21
gdb 39044	2.36817	2.13161	1.70776	0.2532	85.52	-0.2298	0.0217	0.2515	930.5615	0.186663	-349.936438	-349.929757	-349.928813	-349.966888	29.225	
C	 0.0586356485	 1.6478169079	 0.0420587947	-0.237672
C	 1.6038750123	 1.4707261795	-0.1009076436	-0.022669
C	 2.3633535372	 1.6241934892	 1.2270114324	-0.268335
C	 1.6836780346	 1.0136070068	 2.4321613901	-0.058228
C	 0.808753408	 0.0055238028	 2.3986567745	-0.060412
C	 0.4250678935	-0.74163732	 1.1503108949	-0.071285
C	 1.6678751011	-1.1571283921	 0.2909127425	-0.233259
C	 1.362727392	 0.0129485114	-0.6537111182	-0.017368
C	-0.0848988748	 0.1246570797	-0.0825989159	-0.015206
H	-0.3054397283	 2.1282312916	 0.954312526	 0.095522
H	-0.3765592663	 2.1558281824	-0.8239335298	 0.090803
H	 2.0681292941	 2.1277584102	-0.841073172	 0.065603
H	 3.3844767035	 1.2264832676	 1.1248566329	 0.107931
H	 2.4940992482	 2.6976997051	 1.4188431724	 0.101165
H	 1.9296979364	 1.4620871851	 3.3922696257	 0.082055
H	 0.3645547928	-0.3309366849	 3.332317901	 0.079093
H	-0.2466669801	-1.5649216611	 1.4000590075	 0.064178
H	 2.6326986841	-1.1855922391	 0.805224758	 0.094706
H	 1.5089423993	-2.1173619619	-0.2102815133	 0.092809
H	 1.574086331	-0.0966034744	-1.7193371489	 0.054295
H	-0.9578948573	-0.2966543558	-0.5846400108	 0.056273
203.8237	285.0287	298.8371	354.033	416.5615	487.8982	531.0219	647.4955	698.7669	728.276	752.9746	798.0318	811.8975	830.3233	872.3209	899.1887	930.1697	940.3421	981.3874	993.0198	1004.3887	1036.894	1047.3601	1072.5664	1089.8382	1095.4079	1140.2139	1158.8132	1189.6491	1219.4568	1226.1058	1234.4224	1261.4889	1270.1739	1288.7994	1298.1087	1311.7356	1329.3464	1356.0471	1378.9476	1417.831	1466.1107	1473.6554	1484.3081	1709.4708	2993.6361	3026.7803	3041.4971	3046.2199	3061.71	3074.2873	3081.4943	3090.3284	3096.7824	3100.7317	3137.3778	3162.1553
C1C2CC=CC3CC2C13	C1[C@H]2CC=C[C@@H]3C[C@H]2[C@H]13	
InChI=1S/C9H12/c1-2-6-4-9-7(3-1)5-8(6)9/h1-2,6-9H,3-5H2	InChI=1S/C9H12/c1-2-6-4-9-7(3-1)5-8(6)9/h1-2,6-9H,3-5H2/t6-,7-,8-,9-/m1/s1
