23
gdb 115334	2.17441	1.3045	1.04026	2.5861	80.64	-0.2396	0.0711	0.3107	1284.8523	0.20585	-425.429169	-425.41927	-425.418326	-425.463714	37.259	
C	 0.6277467503	 1.6240652744	-0.1308908318	-0.406802
C	 0.1400649427	 0.1815600994	 0.0373118659	 0.109798
O	 0.546298008	-0.6384761109	-1.0533316496	-0.26263
C	 1.8440555072	-1.1536494218	-0.7681698832	-0.086821
C	 1.9853589272	-1.2288273534	 0.7750081807	-0.011804
C	 3.2849976645	-0.5942035434	 1.2588127211	-0.105538
O	 4.344720572	-1.3551582636	 0.6914054497	-0.422802
C	 0.6633572347	-0.5763319048	 1.2814172134	-0.004414
C	 0.7296056732	 0.2287265663	 2.5807617354	-0.422129
H	 1.7195822875	 1.6957387721	-0.1086143843	 0.115825
H	 0.2859298641	 2.010284419	-1.0951813196	 0.124325
H	 0.2301821653	 2.2716798879	 0.6568626384	 0.112518
H	-0.9562690118	 0.1846903332	 0.0252284863	 0.075764
H	 1.9233416221	-2.1287054046	-1.2554599183	 0.108505
H	 2.6264006026	-0.5077009444	-1.1928609739	 0.093782
H	 2.0219818097	-2.2746065212	 1.095156383	 0.084937
H	 3.3463290119	 0.4588955959	 0.9407013641	 0.087453
H	 3.335173775	-0.6102856649	 2.3578772557	 0.087996
H	 5.178324848	-0.9451111655	 0.9393564856	 0.286572
H	-0.0437026323	-1.3979146749	 1.4409801286	 0.083153
H	 1.4186754533	 1.0758681808	 2.5178238169	 0.120068
H	-0.2585292871	 0.6285033038	 2.8330907828	 0.114797
H	 1.0489036719	-0.3994195095	 3.418605703	 0.117446
70.5759	121.2148	157.8932	196.3027	223.9433	248.5702	273.3834	280.3393	296.3789	400.2824	421.2824	460.691	497.2502	676.4245	681.4591	779.0423	834.6917	880.8251	937.582	964.7602	978.3962	1010.8325	1047.2239	1061.8914	1072.2155	1098.7856	1124.8319	1149.3063	1159.0996	1192.7496	1228.9001	1239.8797	1269.8799	1284.338	1324.6639	1345.1756	1360.4735	1374.6782	1384.7663	1395.3383	1408.7862	1418.2118	1458.536	1487.0519	1495.1704	1502.8203	1507.8777	1519.1013	1528.9248	2969.5793	2994.5838	3002.8076	3025.8018	3034.6157	3040.5095	3042.5341	3059.6432	3089.1886	3094.8691	3109.4964	3112.2929	3117.8782	3830.9556
CC1OCC(CO)C1C	C[C@H]1OC[C@@H](CO)[C@H]1C	
InChI=1S/C7H14O2/c1-5-6(2)9-4-7(5)3-8/h5-8H,3-4H2,1-2H3	InChI=1S/C7H14O2/c1-5-6(2)9-4-7(5)3-8/h5-8H,3-4H2,1-2H3/t5-,6+,7+/m0/s1
