17
gdb 51846	3.09237	1.10616	0.88459	4.4558	70.1	-0.2362	-0.0317	0.2045	1281.8186	0.136739	-455.197892	-455.189223	-455.188279	-455.232571	30.408	
O	 0.2404805086	-0.1187143698	 0.2279544925	-0.229931
C	 0.1672274053	 1.0273368165	-0.1270816879	 0.148378
C	 1.3169040405	 2.025951797	-0.0462377027	-0.256472
N	 1.3511754663	 2.9500671609	-1.1478583343	-0.11079
C	 1.5964738311	 2.5694466224	-2.5288956214	-0.170599
C	 1.5883474824	 3.9412420629	-3.2400773069	-0.172186
N	 0.7532699713	 4.7312454002	-2.3440831202	-0.358888
C	 0.794007241	 4.2162611848	-1.0544108928	 0.455772
O	 0.4087882621	 4.7545169924	-0.0384165783	-0.420607
H	-0.7751461769	 1.4582007986	-0.5388087979	 0.088656
H	 1.1626417056	 2.6304773763	 0.8575818288	 0.169063
H	 2.2593725961	 1.4770012746	 0.0553605606	 0.12554
H	 2.5526547555	 2.0490271514	-2.641721108	 0.122671
H	 0.8049798778	 1.9140214982	-2.9210222676	 0.116007
H	 2.6084643883	 4.3427930873	-3.3176973785	 0.114355
H	 1.1642509903	 3.8796073031	-4.2453168432	 0.123285
H	 0.7349430046	 5.7363252232	-2.4167153422	 0.255746
55.3872	57.3837	113.1131	182.5972	212.448	279.18	334.8155	418.6168	522.3132	552.9405	649.6088	723.4861	751.9766	767.8527	826.0599	905.5687	954.6862	1034.9132	1043.7978	1089.2894	1131.1099	1150.9472	1206.5427	1229.3698	1251.986	1304.0693	1326.7373	1335.5251	1353.3786	1412.9552	1433.0184	1436.7045	1458.0353	1528.1307	1534.6447	1830.4241	1840.4337	2867.861	2992.0126	3004.1908	3029.8149	3070.2263	3086.2448	3090.1576	3640.984
O=CCN1CCNC1=O	O=CCN1CCNC1=O	
InChI=1S/C5H8N2O2/c8-4-3-7-2-1-6-5(7)9/h4H,1-3H2,(H,6,9)	InChI=1S/C5H8N2O2/c8-4-3-7-2-1-6-5(7)9/h4H,1-3H2,(H,6,9)
