17
gdb 121670	2.68031	1.06759	0.86545	2.1191	65.84	-0.2698	-0.016	0.2537	1346.8454	0.134189	-496.09491	-496.085606	-496.084662	-496.131106	32.136	
O	 0.3822205631	-0.0661174184	-0.9707669903	-0.418996
C	-0.4578743732	-0.4212299949	 0.1073730887	-0.061877
C	-1.7389222337	 0.4014107534	 0.1258470808	-0.098123
O	-2.4154205498	 0.2192162691	-1.1389616208	-0.254149
C	-3.4041856407	-0.6926778587	-1.1896276298	 0.439666
O	-3.841606954	-1.302060473	-0.2471989367	-0.361427
C	-3.9213444177	-0.8631748091	-2.5890566427	-0.038306
C	-4.0091467782	 0.2754097962	-3.5235128711	-0.165763
O	-2.987624755	-0.7017217898	-3.6562424554	-0.216475
H	-0.1408930282	-0.1608496609	-1.7754468791	 0.295199
H	-0.7174663828	-1.4913213898	 0.0896890984	 0.106553
H	 0.1033725845	-0.2313344656	 1.028580527	 0.116776
H	-2.4012429082	 0.1069833416	 0.9423822554	 0.139539
H	-1.5126289291	 1.4686397397	 0.1778196336	 0.124614
H	-4.6139886496	-1.6953538038	-2.68456281	 0.126072
H	-4.7816244783	 0.2596376207	-4.2903924813	 0.130135
H	-3.6771561691	 1.2563505134	-3.1925975867	 0.136562
31.4421	42.4656	91.6647	131.4325	199.7503	256.6321	311.0961	378.8256	424.3816	472.6935	517.3313	639.3439	759.5326	803.4751	871.7487	879.0316	902.0918	943.0614	992.0668	1054.3267	1091.5564	1100.6114	1137.4312	1158.1758	1169.8116	1227.171	1259.9719	1286.3839	1299.8507	1387.9143	1395.3757	1409.0797	1429.8919	1476.6904	1500.068	1513.8439	1822.2915	2989.182	3071.2099	3083.8414	3097.111	3141.2778	3158.5202	3195.2398	3797.2869
OCCOC(=O)C1CO1	OCCOC(=O)[C@H]1CO1	
InChI=1S/C5H8O4/c6-1-2-8-5(7)4-3-9-4/h4,6H,1-3H2	InChI=1S/C5H8O4/c6-1-2-8-5(7)4-3-9-4/h4,6H,1-3H2/t4-/m1/s1
