17
gdb 37351	3.15821	1.88223	1.59529	2.786	70.45	-0.2474	0.0061	0.2536	874.6099	0.138734	-421.812696	-421.806473	-421.805529	-421.842947	26.277	
C	-0.0187789967	 1.52722244	 0.0193383593	-0.272152
C	 1.386670679	 2.0907217763	-0.0347088414	-0.056809
C	 2.4598966721	 1.3070970058	-0.1477540118	-0.061915
C	 2.246407816	-0.1926324214	-0.2109838782	-0.020711
O	 1.0171782488	-0.4606396509	-0.890361531	-0.251133
C	 0.0112775789	-0.0161145598	 0.0210106241	 0.029094
C	 0.5143669596	-0.5400834278	 1.3660034531	 0.036832
O	 1.1209490413	-1.8349498474	 1.2772512677	-0.251771
C	 1.9611499435	-0.684354862	 1.2152564801	 0.040914
H	-0.5449449401	 1.9017875309	 0.9080558765	 0.108396
H	-0.5924312042	 1.8883162908	-0.8441209608	 0.120103
H	 1.4868774099	 3.1725991527	-0.0065985591	 0.096099
H	 3.4672698604	 1.7092152714	-0.1818958959	 0.093142
H	 3.0404525126	-0.7261403723	-0.7376710966	 0.092694
H	-0.9387320844	-0.4507320049	-0.2995323101	 0.091491
H	 0.0170350389	-0.2925426642	 2.299104074	 0.101462
H	 2.6772866745	-0.5432837572	 2.0189218601	 0.104263
208.0655	254.7648	345.0325	419.4227	484.5761	492.081	560.2052	682.8184	729.3039	789.7085	833.821	860.3594	873.5888	881.6283	905.9863	940.2219	955.1438	976.7853	990.3843	1015.3991	1038.3573	1060.5328	1080.9113	1099.7286	1180.9233	1196.2984	1234.7083	1259.2984	1289.5192	1309.4624	1320.1232	1354.6488	1360.9557	1397.6304	1430.7141	1468.254	1700.8769	3015.7276	3044.0396	3086.1222	3095.9887	3156.7055	3158.2874	3171.7182	3186.3595
C1C=CC2OC1C1OC21	C1C=C[C@@H]2O[C@H]1[C@H]1O[C@@H]21	
InChI=1S/C7H8O2/c1-2-4-6-7(9-6)5(3-1)8-4/h1-2,4-7H,3H2	InChI=1S/C7H8O2/c1-2-4-6-7(9-6)5(3-1)8-4/h1-2,4-7H,3H2/t4-,5+,6-,7+/m0/s1
