16
gdb 35561	3.68627	1.25623	1.04607	4.9028	75.	-0.2427	-0.0044	0.2383	1127.786	0.127047	-396.922125	-396.914787	-396.913842	-396.954247	27.494	
N	 0.1170638664	-1.1677364416	-0.0024075918	-0.315861
C	 0.0689007968	-0.0135260121	-0.017453986	 0.305666
C	-0.0159429402	 1.4342021696	-0.0140645443	-0.296033
C	-0.2857853056	 2.160339188	 1.365962683	-0.190055
N	 0.8038938819	 3.1086231697	 1.0107236954	-0.088251
C	 2.0080849664	 3.5049843937	 1.7535905545	-0.199149
C	 3.0908545433	 3.235623491	 0.6498804107	-0.171731
N	 2.5141274124	 2.1830246483	-0.2416946853	-0.329866
C	 1.2822108209	 2.2381527169	 0.0338732399	 0.377969
H	-0.6999613148	 1.7772007523	-0.7939718985	 0.15778
H	-1.2677191158	 2.6184493953	 1.4928872251	 0.133877
H	-0.0474424055	 1.5135890169	 2.2178539797	 0.136129
H	 1.9750741535	 4.5456953016	 2.0818444501	 0.121849
H	 2.1591664931	 2.8584479399	 2.6306348496	 0.109787
H	 3.2872175683	 4.1433324	 0.0667569891	 0.123036
H	 4.0402245888	 2.8910521104	 1.0648772187	 0.124852
96.9617	128.5941	210.7857	268.7977	294.56	401.0222	501.0631	562.0409	615.342	682.9001	753.6006	811.2428	856.3928	871.7317	913.229	974.9802	1008.4383	1024.4363	1075.8035	1099.4406	1125.7953	1167.0878	1190.6964	1197.3048	1212.1198	1243.3636	1293.2032	1313.6675	1338.7482	1369.1824	1493.3653	1503.5268	1518.8574	1763.8828	2367.2721	3000.1459	3040.0823	3044.7525	3092.1477	3103.6448	3112.1111	3124.8636
N#CC1CN2CCN=C12	N#C[C@H]1CN2CC[N][C]12	
InChI=1S/C6H7N3/c7-3-5-4-9-2-1-8-6(5)9/h5H,1-2,4H2	InChI=1S/C6H7N3/c7-3-5-4-9-2-1-8-6(5)9/h5H,1-2,4H2/t5-/m0/s1
