17
gdb 63338	2.52164	1.53926	1.20692	1.1388	71.29	-0.2608	-0.0083	0.2525	1074.5994	0.135468	-455.21694	-455.208227	-455.207283	-455.250159	32.583	
C	 0.0035483064	 1.5310952774	-0.0277446863	-0.413598
C	-0.0085185802	 0.0039794665	 0.0041211818	 0.19785
C	-1.4184782291	-0.5773303114	-0.0819184486	-0.413512
O	 0.7830233686	-0.5016247674	-1.0989895532	-0.247796
C	 1.837847756	-1.2251453447	-0.657840653	 0.471932
N	 2.6566162861	-1.7575044719	-1.4555775041	-0.555935
N	 1.7906665117	-1.2297364624	 0.742916259	-0.411798
C	 0.7234664315	-0.5214902351	 1.2452188396	 0.423122
O	 0.4296502345	-0.3541326264	 2.4022724543	-0.370322
H	 1.0282545688	 1.911929705	-0.0182354971	 0.133084
H	-0.4927345924	 1.8906121263	-0.9327905424	 0.134904
H	-0.5217035457	 1.9191374456	 0.8484926714	 0.145645
H	-1.9156600021	-0.2208880303	-0.9876886822	 0.134941
H	-1.3875169865	-1.6697852877	-0.1090426008	 0.133085
H	-1.9963668713	-0.265638131	 0.7916652403	 0.145632
H	 3.3871739559	-2.2637038857	-0.9620610178	 0.220527
H	 2.4662898579	-1.7013439367	 1.3226708293	 0.272239
85.109	133.2924	195.332	213.1078	224.9009	291.976	317.3431	391.6449	429.5411	532.3663	577.5126	624.5801	651.5533	721.2495	749.9313	758.	778.853	900.0083	945.8677	959.437	1021.3723	1028.2291	1065.0961	1154.7897	1208.9137	1218.6631	1308.7414	1347.8683	1393.0169	1395.2351	1417.2252	1474.5923	1480.2283	1495.0202	1505.4204	1792.1923	1859.942	3048.6235	3051.8677	3126.377	3128.4776	3133.9969	3139.2045	3533.4985	3653.3708
CC1(C)OC(=N)NC1=O	CC1(C)O[C]([NH])NC1=O	
InChI=1S/C5H8N2O2/c1-5(2)3(8)7-4(6)9-5/h1-2H3,(H2,6,7,8)	InChI=1S/C5H8N2O2/c1-5(2)3(8)7-4(6)9-5/h1-2H3,(H2,6,7,8)
