16
gdb 43882	4.92781	1.0856	1.03656	3.6971	69.38	-0.2515	0.0311	0.2826	1138.9585	0.123913	-437.861746	-437.854279	-437.853335	-437.894031	28.838	
O	 0.0345401084	-0.0417493804	 0.0170540182	-0.355674
C	-0.0405911739	 1.1554731413	 0.0207573493	 0.438863
C	-1.164872115	 2.2166346378	 0.101540423	-0.471026
C	-0.0261862839	 3.2665828236	 0.0117022974	 0.397134
C	 0.0640780124	 4.3990552779	-1.0734016927	-0.335114
C	 0.2301197669	 5.4092487902	 0.0702448225	 0.039167
O	-0.9167104746	 5.26893891	 0.916960043	-0.238489
C	 0.1670093739	 4.3491428989	 1.0898741696	-0.060943
N	 0.9119815818	 2.1510418229	-0.0569447962	-0.394724
H	-1.8552592479	 2.2032090358	-0.7433411636	 0.136678
H	-1.7280049556	 2.2179729348	 1.0362008793	 0.140231
H	 0.9620327713	 4.2862534671	-1.6870877021	 0.113833
H	-0.8066650336	 4.5500892163	-1.7153977111	 0.120035
H	 0.7395133835	 6.3652290732	 0.075964139	 0.112179
H	 0.6093150519	 4.2609646046	 2.0763662253	 0.10985
H	 1.9171115946	 2.1133870761	-0.1483708509	 0.248
65.0353	120.9837	254.9177	354.1156	380.1276	397.9429	436.1496	484.1662	559.5873	576.8446	769.1225	787.5523	840.6085	857.9295	865.5402	903.2181	965.3991	966.5817	984.2456	1038.9842	1052.4582	1079.1002	1116.2838	1154.8642	1171.5099	1196.8251	1222.7354	1239.9573	1257.0606	1288.8282	1381.1074	1391.6029	1457.3121	1467.2534	1902.0098	3064.1131	3089.9899	3123.9013	3147.8537	3177.3899	3198.8347	3601.3073
O=C1CC2(CC3OC23)N1	O=C1C[C@]2(C[C@H]3O[C@@H]23)N1	
InChI=1S/C6H7NO2/c8-4-2-6(7-4)1-3-5(6)9-3/h3,5H,1-2H2,(H,7,8)	InChI=1S/C6H7NO2/c8-4-2-6(7-4)1-3-5(6)9-3/h3,5H,1-2H2,(H,7,8)/t3-,5-,6+/m1/s1
