20
gdb 78389	2.9125	1.52894	1.19775	1.2465	79.48	-0.2161	0.0531	0.2692	1095.2771	0.169315	-403.037537	-403.028765	-403.027821	-403.070493	34.544	
C	-0.0742454134	 1.5936202775	-0.0127013011	-0.451083
C	 0.0316713626	 0.0762140773	-0.0740068056	 0.327585
C	-1.1804441101	-0.5916001649	 0.5709485242	-0.434683
C	 0.66041854	-0.833355835	-1.0828534373	-0.088599
C	 2.010938857	-0.542043347	-1.7659911984	-0.120154
C	 2.6185929308	 0.773131096	-1.5168302466	 0.083472
O	 1.9945839743	 1.9826351459	-1.8138870038	-0.415115
C	 2.5211326201	-0.2114205958	-0.3488929495	-0.097636
N	 1.2422321335	-0.6921343416	 0.3050298505	-0.181515
H	 0.8671678045	 2.0525278914	 0.2826970875	 0.108814
H	-0.3753506525	 2.0280323955	-0.9662484921	 0.137662
H	-0.8206664115	 1.8622667615	 0.7410566477	 0.103871
H	-2.0960543073	-0.3029561492	 0.0432425809	 0.115206
H	-1.0947169499	-1.6806186312	 0.5568657739	 0.122581
H	-1.2722418098	-0.2730988523	 1.6140883546	 0.121245
H	 0.1484013553	-1.7545751641	-1.3505219729	 0.090842
H	 2.3993611481	-1.2507712722	-2.488040109	 0.0942
H	 3.6692821669	 0.7630270273	-1.8244950984	 0.097068
H	 2.4268752202	 2.6778371881	-1.3057762263	 0.285584
H	 3.4304087911	-0.5251730172	 0.1519414719	 0.100655
77.8474	145.8073	222.322	231.4889	269.2372	295.8782	352.5547	395.825	417.5616	500.3548	543.303	622.3758	630.9419	687.267	736.2556	772.5908	863.3917	870.8769	909.3249	964.7992	979.984	1002.9783	1013.5215	1040.5686	1048.8205	1074.4078	1093.5807	1102.5251	1141.7844	1211.2679	1245.443	1281.1725	1286.4905	1318.4398	1360.8418	1393.9084	1410.3141	1421.7819	1476.8432	1485.316	1494.2886	1494.4992	1503.1385	3034.2611	3051.0916	3055.9119	3102.111	3120.8064	3128.4756	3130.1237	3162.8344	3165.6811	3177.989	3799.684
CC1(C)C2C3C(O)C3N12	CC1(C)[C@H]2[C@H]3[C@@H](O)[C@H]3N12	
InChI=1S/C7H11NO/c1-7(2)6-3-4(5(3)9)8(6)7/h3-6,9H,1-2H3	InChI=1S/C7H11NO/c1-7(2)6-3-4(5(3)9)8(6)7/h3-6,9H,1-2H3/t3-,4+,5-,6-,8?/m1/s1
