12
gdb 129591	2.09456	1.90868	0.99905	3.5757	64.49	-0.2409	-0.0147	0.2262	1062.5084	0.078308	-468.822086	-468.814313	-468.813369	-468.854351	28.679	
N	 0.0304589177	 1.3214110457	 0.1889199413	-0.596531
C	-0.0545011439	-0.0184438982	 0.0556216384	 0.468166
C	-1.1434141377	-0.869725237	 0.0042743858	-0.113422
C	-2.5029863924	-0.5133209705	 0.0245759769	 0.181732
N	-3.6115898001	-0.1732315875	 0.0397292427	-0.359356
C	-0.5219732749	-2.1534756217	-0.0816682895	 0.412595
O	-1.1903798596	-3.3048411778	-0.153319954	-0.402578
N	 0.7841441371	-2.1007701612	-0.08679484	-0.268749
O	 1.0819252383	-0.7066808308	 0.0021711687	-0.217148
H	 0.91025095	 1.7584326176	-0.0343340546	 0.283979
H	-0.8019123609	 1.8609490963	 0.0135089911	 0.292024
H	-0.5458718336	-4.0242538047	-0.2038034268	 0.319288
120.2615	141.4306	212.7435	296.204	365.5968	382.5996	391.4118	431.007	453.7841	551.9986	555.2144	612.7305	662.0995	681.5701	773.0458	799.8488	921.9348	1050.9538	1129.6402	1229.8745	1291.7987	1417.1361	1556.0681	1587.4088	1639.622	1687.7254	2338.2312	3598.7822	3716.157	3776.2096
NC1=C(C#N)C(O)=NO1	Nc1c(C#N)c(O)no1	
InChI=1S/C4H3N3O2/c5-1-2-3(6)9-7-4(2)8/h6H2,(H,7,8)	InChI=1S/C4H3N3O2/c5-1-2-3(6)9-7-4(2)8/h6H2,(H,7,8)
