19
gdb 19157	2.86518	1.91204	1.39334	1.6987	71.17	-0.2432	0.0768	0.3199	957.8369	0.164954	-365.005503	-364.997155	-364.996211	-365.038186	31.199	
C	-0.6601552064	 0.9113554961	 0.2461766336	-0.246789
O	-0.5152278857	 0.5967983769	-1.1264948699	-0.282291
C	 0.4556754992	-0.3769884075	-1.4012703447	 0.445075
C	 1.1840922048	-0.1652431575	-2.6930465119	-0.311343
C	 1.9028113448	 0.044524818	-1.374868659	-0.332898
C	 0.0536256779	-1.7660966095	-0.9929942788	-0.093403
N	 1.0971169909	-2.7991847797	-1.0268359809	-0.317679
C	 0.5106984521	-2.4133517976	 0.266511231	-0.236263
H	-1.0501106469	 0.0649191059	 0.8272587375	 0.110366
H	 0.2933001505	 1.2291542125	 0.6917103568	 0.105336
H	-1.3735931499	 1.7369320062	 0.3068482092	 0.123631
H	 1.4455665158	-1.0420251457	-3.2741146243	 0.117791
H	 0.9091462008	 0.714121936	-3.2636076705	 0.118151
H	 2.10800469	 1.0665747819	-1.0770236125	 0.11087
H	 2.6447431584	-0.6903761771	-1.0850560672	 0.132443
H	-0.9403468746	-2.0407274005	-1.3446825316	 0.088568
H	 0.7057946221	-3.6818125841	-1.3422813874	 0.235826
H	 1.1896551906	-1.8808956177	 0.9264487215	 0.120346
H	-0.1626213644	-3.1056569367	 0.765189049	 0.112263
95.9591	113.3318	184.2674	211.5106	229.7841	261.7037	363.7008	410.3802	481.6174	560.2165	668.3189	780.8811	853.7907	876.2886	892.7335	922.8791	938.9893	961.3011	993.4543	1001.4799	1054.5646	1083.0231	1102.6978	1117.9168	1124.4757	1181.9793	1190.3203	1197.0866	1221.2675	1247.3728	1262.9242	1288.8623	1338.928	1440.0015	1443.969	1473.407	1488.0233	1490.4493	1510.8523	1511.2107	2994.1747	3047.537	3107.9602	3113.6178	3114.0326	3138.8324	3141.0655	3195.5687	3227.0516	3239.4258	3515.376
COC1(CC1)C1NC1	COC1(CC1)[C@H]1NC1	
InChI=1S/C6H11NO/c1-8-6(2-3-6)5-4-7-5/h5,7H,2-4H2,1H3	InChI=1S/C6H11NO/c1-8-6(2-3-6)5-4-7-5/h5,7H,2-4H2,1H3/t5-/m0/s1
