18
gdb 89831	3.31588	1.31614	1.03697	4.6492	73.61	-0.2435	0.0573	0.3008	1172.215	0.147903	-439.123455	-439.11501	-439.114066	-439.156906	31.109	
C	-0.0448401972	 1.3953355932	 0.0460289098	-0.337751
N	-0.0447553189	-0.0473026444	 0.0626011398	-0.134674
C	-1.2295265746	-0.8458900487	-0.1594633562	-0.263244
C	-0.6331204282	-2.2486075223	-0.1190565971	 0.434464
C	-1.1150822228	-3.3426034222	 0.7826356651	-0.322022
C	-1.2522230158	-3.45835468	-0.7290037908	-0.330574
O	 0.771813791	-2.0960404321	-0.2567651256	-0.272081
C	 1.1072485906	-0.7769118683	-0.101089269	 0.471578
O	 2.2402038462	-0.3773065484	-0.1124220517	-0.405818
H	 0.9906308779	 1.7274008518	 0.1341567146	 0.169651
H	-0.4681968097	 1.7880540321	-0.8889747834	 0.121204
H	-0.6260758151	 1.7967160447	 0.8838555134	 0.125819
H	-1.9823664186	-0.6910624333	 0.6225606568	 0.119032
H	-1.6964613933	-0.6156940975	-1.130699065	 0.109613
H	-0.3575207248	-3.9527310446	 1.2608956194	 0.137137
H	-2.0076934973	-3.1670880675	 1.374226031	 0.118712
H	-2.2377050057	-3.3616197814	-1.1731707308	 0.12075
H	-0.5869714837	-4.1453778611	-1.2392685203	 0.138205
64.3909	123.8525	158.1768	184.5438	243.5686	305.4441	320.8414	455.7533	489.2787	532.9397	671.8695	759.5885	763.713	812.0572	819.8753	883.5619	940.6143	952.7436	993.4118	1049.1738	1060.029	1078.2256	1095.8668	1132.8433	1158.7915	1187.9709	1207.7659	1274.1273	1283.8816	1316.4508	1381.1237	1436.5943	1451.2222	1453.7512	1491.0819	1502.2539	1517.081	1544.4009	1875.0677	2969.4997	3006.3983	3040.5623	3064.6389	3132.226	3134.8521	3147.1059	3219.7048	3233.1731
CN1CC2(CC2)OC1=O	CN1CC2(CC2)OC1=O	
InChI=1S/C6H9NO2/c1-7-4-6(2-3-6)9-5(7)8/h2-4H2,1H3	InChI=1S/C6H9NO2/c1-7-4-6(2-3-6)9-5(7)8/h2-4H2,1H3
