20
gdb 106389	3.37894	1.44576	1.27369	1.9234	78.13	-0.228	0.0902	0.3182	1063.9414	0.172367	-403.078248	-403.070658	-403.069714	-403.110215	30.802	
C	-0.0895312326	 1.3609389807	-0.0754439272	-0.259484
O	-0.0216185882	-0.0417653632	 0.0752560226	-0.300534
C	 0.6280065436	-0.4967386157	 1.209678485	 0.439421
C	 2.1094091981	-0.1251517553	 1.6317263033	-0.279287
C	 1.6232352425	-0.8075473421	 2.9422435288	 0.001313
C	 0.2470434681	-0.1338373496	 2.6753527664	-0.32256
N	 1.5581714804	-2.2350487003	 2.4782444952	-0.111592
C	 0.2061990869	-2.8135899633	 2.3655624886	-0.256374
C	 0.7638083314	-2.0264665519	 1.2384555095	-0.076975
H	 0.9089986121	 1.8151354951	-0.1383209538	 0.112882
H	-0.6215468019	 1.5515794451	-1.0100563857	 0.13023
H	-0.6405886159	 1.8373847971	 0.7472044756	 0.111397
H	 2.9267892489	-0.6159589541	 1.0993741834	 0.106841
H	 2.2883043637	 0.946792183	 1.7370181428	 0.094852
H	 2.1461329887	-0.6939803154	 3.8895353263	 0.078589
H	 0.307171627	 0.939352542	 2.8618347252	 0.100908
H	-0.6682769499	-0.5259535943	 3.1184478072	 0.099605
H	 0.2222322922	-3.8967209872	 2.2794118285	 0.117511
H	-0.6127473878	-2.4359338628	 2.9661013578	 0.116227
H	 1.0983024125	-2.5093910079	 0.3243295406	 0.09703
77.9964	187.2913	214.5038	292.4813	380.3635	421.9328	447.9265	553.6544	566.6884	615.0942	628.6217	753.2579	795.4228	840.4652	855.1205	910.7422	929.4015	965.8091	971.5132	989.3143	1030.253	1062.5347	1071.1604	1093.4745	1104.3531	1124.769	1137.1672	1165.3895	1181.1529	1185.2352	1221.7952	1227.0565	1236.8562	1259.7715	1282.4722	1285.8916	1379.4968	1473.22	1484.67	1490.7184	1500.7788	1507.8156	1538.8719	2994.8795	3047.8239	3069.7903	3086.3096	3120.682	3125.3403	3135.6244	3138.6459	3140.5569	3147.2802	3210.8955
COC12CC(C1)N1CC21	CO[C@@]12C[C@@H](C1)N1C[C@@H]21	
InChI=1S/C7H11NO/c1-9-7-2-5(3-7)8-4-6(7)8/h5-6H,2-4H2,1H3	InChI=1S/C7H11NO/c1-9-7-2-5(3-7)8-4-6(7)8/h5-6H,2-4H2,1H3/t5-,6-,7-,8?/m0/s1
