13
gdb 123510	4.17906	1.79949	1.25786	1.458	74.37	-0.2497	-0.0728	0.1769	893.3257	0.094305	-411.832932	-411.827302	-411.826358	-411.862888	22.356	
C	 0.0166675725	 1.3064055205	 0.0093501491	-0.078326
C	 1.3226719803	 1.7796324988	-0.0006725471	-0.1101
N	 2.0963225447	 0.6641472879	-0.0143065837	 0.031579
N	 3.4412651083	 0.58306763	-0.0277315123	-0.237675
C	 3.8853213969	-0.6512806861	-0.0388701048	 0.107476
N	 3.1713211605	-1.8090389776	-0.0384226276	-0.278033
C	 1.8606106153	-1.6940178773	-0.0251460239	-0.046972
C	 1.2320015243	-0.438886051	-0.0121029509	 0.367956
N	-0.0384267576	-0.0486617798	 0.0023144048	-0.332513
H	-0.8835716769	 1.9036117406	 0.0213689696	 0.129171
H	 1.7525741258	 2.7663747403	 0.0006422585	 0.154791
H	 4.9657945641	-0.7456906125	-0.0498244869	 0.142294
H	 1.2551535518	-2.5966474339	-0.0243200746	 0.150353
220.143	237.8269	431.4816	441.9354	583.5942	611.9028	654.6852	665.4464	767.1818	786.1669	789.109	901.7574	916.4432	932.4708	948.5065	1000.7717	1077.545	1118.7455	1182.5328	1222.1359	1314.1612	1333.88	1347.9218	1395.3414	1465.2307	1469.351	1497.0434	1521.9616	1644.1023	3174.1963	3202.2165	3245.0809	3294.3471
C1=CN2N=CN=CC2=N1	c1cn2ncncc2n1	
InChI=1S/C5H4N4/c1-2-9-5(7-1)3-6-4-8-9/h1-4H	InChI=1S/C5H4N4/c1-2-9-5(7-1)3-6-4-8-9/h1-4H
