18
gdb 85248	2.80522	1.54319	1.12919	2.7166	73.05	-0.2212	-0.027	0.1942	1090.7229	0.146607	-439.079332	-439.070868	-439.069923	-439.112041	32.479	
C	 0.0495286361	 1.4799553193	 0.0030010438	-0.318386
N	 0.0672456537	 0.0286617522	 0.0495039021	-0.068166
C	 0.5749229792	-0.6184369172	-1.1619552584	-0.291157
C	 1.1490721477	-1.9426435135	-0.6699589693	 0.335639
O	 1.2151157598	-2.9924930557	-1.2663421493	-0.347007
C	 1.4750524426	-1.7962648728	 0.7739204228	 0.338439
O	 1.5709071714	-2.9620042534	 1.5060765559	-0.477473
C	 2.2695935758	-0.5642737985	 1.1806174301	-0.363212
C	 0.7560366564	-0.534490405	 1.1954225525	-0.079134
H	 1.0535852312	 1.9287236742	-0.109306315	 0.09764
H	-0.5675409489	 1.8128634308	-0.8373785877	 0.125263
H	-0.3961631831	 1.8698681584	 0.9232062119	 0.12548
H	-0.2140378164	-0.7902920313	-1.9003453881	 0.139982
H	 1.3748715797	-0.0432664595	-1.6641000712	 0.113849
H	 1.5213163211	-3.6763312898	 0.8526509627	 0.297396
H	 2.7625736709	-0.6761876413	 2.1404631386	 0.136215
H	 2.8255988386	 0.0007615143	 0.4396249276	 0.119844
H	 0.2345007741	-0.4751258713	 2.1448875809	 0.114789
110.5119	131.2691	224.0251	251.0932	285.6551	304.0478	333.2894	369.1313	468.7498	493.5285	537.7438	566.8877	675.2939	707.9245	794.224	865.0335	907.9488	961.8503	993.7015	996.4388	1032.7143	1060.5863	1088.5641	1107.0184	1147.586	1180.3732	1195.5953	1217.6759	1251.7131	1311.8967	1352.4738	1396.2804	1426.9052	1456.6038	1477.8063	1483.8045	1496.5291	1503.6086	1824.3839	2933.8092	2941.1283	3064.8095	3075.6161	3107.8144	3128.4779	3168.6875	3222.6133	3719.4049
CN1CC(=O)C2(O)CC12	CN1CC(=O)[C@@]2(O)C[C@@H]12	
InChI=1S/C6H9NO2/c1-7-3-5(8)6(9)2-4(6)7/h4,9H,2-3H2,1H3	InChI=1S/C6H9NO2/c1-7-3-5(8)6(9)2-4(6)7/h4,9H,2-3H2,1H3/t4-,6-/m1/s1
