12
gdb 50064	3.01182	1.00015	0.93558	2.3067	62.65	-0.2828	-0.1211	0.1617	1231.8494	0.074261	-472.608022	-472.599547	-472.598603	-472.642609	28.367	
O	-0.0123677251	-0.0865209682	 0.5339327136	-0.229216
C	 0.51009664	 0.5138349589	-0.368533123	 0.132148
C	 1.3361381698	 1.7451811185	-0.1178388194	-0.045473
O	 2.3056077998	 2.0718110328	-1.1053905516	-0.20531
C	 1.2288223718	 2.9693185879	-0.9738313643	-0.056201
C	 0.2597798857	 3.0379759499	-2.1235020672	 0.308281
O	 0.1507168424	 2.2067149325	-2.9864388974	-0.263006
C	-0.5823946726	 4.2498780789	-2.1131768633	 0.2217
N	-1.2348796576	 5.2040314922	-2.0851799843	-0.283204
H	 0.4417844685	 0.2061667942	-1.4284528904	 0.134141
H	 1.6316780735	 1.8967414364	 0.9196439318	 0.141865
H	 1.4513852736	 3.9250645559	-0.4992137945	 0.144275
36.2146	81.7645	141.9285	181.634	238.029	275.6327	332.3518	366.2918	482.5355	501.7176	599.4175	745.2675	812.5412	872.4203	915.4131	1009.1511	1036.7925	1070.7056	1126.2836	1141.986	1254.8464	1331.9823	1395.7787	1445.9693	1799.0012	1824.3847	2339.738	2976.4661	3120.9758	3139.8026
O=CC1OC1C(=O)C#N	O=C[C@H]1O[C@H]1C(=O)C#N	
InChI=1S/C5H3NO3/c6-1-3(8)5-4(2-7)9-5/h2,4-5H	InChI=1S/C5H3NO3/c6-1-3(8)5-4(2-7)9-5/h2,4-5H/t4-,5+/m1/s1
