20
gdb 53409	3.9741	0.92598	0.83166	1.5503	87.61	-0.2272	0.052	0.2792	1461.7029	0.17167	-365.973889	-365.964926	-365.963982	-366.009116	32.966	
C	 0.3849130931	 1.6520058872	-0.5987282657	-0.498879
C	 0.2289177922	 0.2410221939	-0.2756731424	 0.074129
C	 0.0969974842	-0.9286681787	-0.0218996471	 0.092781
C	-0.0555468112	-2.3389525655	 0.3123067045	-0.149745
C	 0.3044144208	-2.6768826417	 1.7907528796	-0.241784
C	-0.5643464786	-3.9101719217	 2.1019352173	-0.234748
C	-1.7586981848	-3.7584775344	 1.1722566323	-0.005204
C	-2.4076835859	-2.4257586943	 1.0766687595	-0.24601
N	-1.4338180257	-2.8445680462	 0.057284007	-0.093261
H	 1.1343909382	 1.8004460688	-1.3840333213	 0.148002
H	-0.5574856057	 2.0809763168	-0.956955825	 0.150052
H	 0.7010439904	 2.2317365459	 0.2756801265	 0.145141
H	 0.5904043655	-2.9319537151	-0.3480623316	 0.104673
H	 1.3737360605	-2.8633988095	 1.9099830531	 0.108764
H	 0.0510258449	-1.8367574309	 2.4414324768	 0.115511
H	-0.0317879118	-4.83606186	 1.857044078	 0.106653
H	-0.8484769288	-3.9684125701	 3.1573182317	 0.106141
H	-2.3211840701	-4.6500405778	 0.9088345813	 0.088323
H	-3.427496812	-2.3455701637	 0.7122702871	 0.114491
H	-2.1249828954	-1.6513305429	 1.7847687283	 0.114971
21.1982	78.7758	96.6907	200.5727	256.0003	294.0819	345.6088	402.0837	454.3377	508.7233	618.8848	650.1648	742.4063	803.5009	846.1273	858.9279	897.7564	949.1385	960.2345	994.9241	1029.5721	1052.0547	1054.3956	1089.09	1104.683	1107.951	1164.125	1171.8975	1188.0967	1213.6833	1265.8372	1292.2729	1324.7657	1331.8368	1363.8029	1388.1141	1414.6285	1478.0036	1479.2654	1487.9725	1495.3847	1520.196	2372.2613	3016.2258	3026.3654	3041.5337	3070.9496	3084.0082	3086.0726	3087.855	3112.5813	3119.4487	3143.9991	3195.1561
CC#CC1CCC2CN12	CC#C[C@H]1CC[C@H]2CN12	
InChI=1S/C8H11N/c1-2-3-7-4-5-8-6-9(7)8/h7-8H,4-6H2,1H3	InChI=1S/C8H11N/c1-2-3-7-4-5-8-6-9(7)8/h7-8H,4-6H2,1H3/t7-,8-,9?/m0/s1
