19
gdb 62563	1.88123	1.65788	1.6018	2.7289	71.72	-0.2183	0.0524	0.2707	1033.2091	0.157153	-460.124896	-460.115824	-460.11488	-460.157637	35.786	
C	-0.0644456117	 1.5651685955	 0.0288433842	-0.461869
C	 0.1075571093	 0.0677519561	 0.1008082924	 0.277556
O	-1.0505701502	-0.6170329845	-0.3475703012	-0.494361
C	 1.3563854144	-0.7386162776	-0.2139496611	 0.213828
O	 1.3027652615	-1.7077686434	-1.2147573692	-0.469402
C	 2.6249077844	-0.0853835438	 0.3216493664	-0.310679
C	 2.0045906928	-0.0918434047	 1.7631408314	-0.292094
C	 0.7431771362	-0.7364143137	 1.2142910569	 0.34215
O	 0.0092869247	-1.6416686554	 1.9355663517	-0.466723
H	 0.8079904887	 2.089997809	 0.4267226481	 0.120405
H	-0.2172242856	 1.8891317911	-1.0063311669	 0.115117
H	-0.9399718298	 1.8757566852	 0.6084186201	 0.129486
H	-0.74656819	-1.2728230715	-0.9931968447	 0.287546
H	 1.532020046	-1.2898135078	-2.0550789516	 0.289014
H	 3.4846669343	-0.755013136	 0.2476232258	 0.115626
H	 2.8965194186	 0.8911904052	-0.0933396529	 0.094395
H	 2.5436611572	-0.7651206666	 2.4327625088	 0.120724
H	 1.8821205028	 0.8772509339	 2.2565527493	 0.101206
H	-0.8457818136	-1.6970479411	 1.4804250127	 0.288074
175.112	187.1771	206.2349	228.9015	240.8532	277.9175	298.5267	330.8588	411.1422	447.1952	469.4321	537.215	604.0135	610.9607	665.6323	671.041	703.6179	729.9355	820.3728	937.7968	952.6225	1011.4925	1048.6296	1082.8361	1104.2637	1144.8549	1186.3511	1198.4634	1225.7989	1235.3647	1261.4279	1276.4913	1321.1682	1360.4916	1409.4343	1424.7952	1464.2479	1473.3525	1489.444	1501.0597	1521.6567	3034.7642	3042.1421	3054.8708	3096.4194	3101.1197	3117.8528	3120.72	3701.171	3711.4102	3753.6848
CC1(O)C2(O)CCC12O	C[C@@]1(O)[C@@]2(O)CC[C@@]12O	
InChI=1S/C6H10O3/c1-4(7)5(8)2-3-6(4,5)9/h7-9H,2-3H2,1H3	InChI=1S/C6H10O3/c1-4(7)5(8)2-3-6(4,5)9/h7-9H,2-3H2,1H3/t4-,5+,6-
