15
gdb 132608	3.12906	1.31572	0.92715	2.1596	73.22	-0.1899	0.002	0.1919	1167.3846	0.113229	-461.975484	-461.967707	-461.966763	-462.007353	30.658	
N	 0.0054634274	 1.4264053104	-0.0936337444	-0.594308
C	 0.0021566693	 0.0249832636	-0.0361289869	 0.323697
C	-1.1990945276	-0.6945026736	-0.0178303521	-0.179609
C	-1.2064609825	-2.0860491007	-0.0283009963	-0.185576
C	-0.0145532276	-2.8013872775	-0.0559365048	 0.237922
O	-0.0161653649	-4.165981517	-0.0629738265	-0.447714
C	 1.1723337234	-2.0721689981	-0.0727427878	 0.195652
F	 2.3244017831	-2.7765220383	-0.0959412513	-0.103175
C	 1.2064585333	-0.6912391604	-0.0636491301	-0.331179
H	 0.8355055851	 1.853333787	 0.2932832544	 0.244875
H	-0.8239363272	 1.8517761538	 0.2963971094	 0.245093
H	-2.1419242348	-0.1569686904	 0.0006515647	 0.085687
H	-2.1407808254	-2.6355982302	-0.0120659105	 0.109408
H	 0.9028691466	-4.4575601982	-0.084432194	 0.299463
H	 2.1665453118	-0.1874419203	-0.0831686439	 0.099762
151.6587	236.2226	252.5393	294.5664	321.7832	364.4898	389.9987	451.8016	458.5959	509.6903	595.5652	608.3681	662.5693	704.9406	749.8502	804.9115	825.23	847.4183	921.3999	965.7226	1097.9667	1139.104	1178.5333	1214.1089	1266.3194	1325.0762	1346.3986	1407.5218	1499.2512	1554.7002	1644.9347	1655.6611	1680.3107	3173.9131	3190.7189	3200.8683	3554.4005	3649.557	3805.0864
NC1=CC=C(O)C(F)=C1	Nc1ccc(O)c(F)c1	
InChI=1S/C6H6FNO/c7-5-3-4(8)1-2-6(5)9/h1-3,9H,8H2	InChI=1S/C6H6FNO/c7-5-3-4(8)1-2-6(5)9/h1-3,9H,8H2
