20
gdb 62706	2.82932	1.72622	1.53588	2.6275	77.28	-0.2308	0.0688	0.2997	970.2679	0.172189	-403.118261	-403.110545	-403.109601	-403.14972	31.795	
C	-0.025059646	 1.511038192	 0.0532047032	-0.459197
C	-0.0271627725	-0.0142605546	 0.0148641191	 0.414032
O	-1.3463392891	-0.518714866	 0.1496022039	-0.475925
C	 0.7082108233	-0.5552371982	-1.2118927484	-0.084756
C	 1.9308324132	-0.8315704986	-0.3868374993	-0.056797
C	 1.103209007	-0.6499965759	 0.9151061662	-0.136679
C	 0.7184455812	-2.0714167058	 1.3267922212	-0.219598
C	 0.5725073608	-2.7827896007	-0.0440453502	-0.152226
N	 1.2326042514	-1.9162483297	-1.0497293004	-0.107894
H	 0.9836445513	 1.9144127542	-0.0705516974	 0.126322
H	-0.6602889931	 1.9132550551	-0.7425962413	 0.124765
H	-0.4121023965	 1.8722931558	 1.0146021326	 0.106146
H	-1.7856370012	-0.0399191614	 0.8605935858	 0.275584
H	 0.6067842026	-0.1735648068	-2.2233963198	 0.084303
H	 2.9782134263	-0.6279582118	-0.5715106202	 0.089388
H	 1.4935394613	-0.0138591609	 1.7106519948	 0.059434
H	 1.5071510389	-2.526194383	 1.9356843254	 0.092651
H	-0.2124522388	-2.0933389595	 1.8990492099	 0.096828
H	 1.0763127571	-3.7536428805	-0.0582847802	 0.099467
H	-0.4724968471	-2.9305214436	-0.3209818548	 0.124153
177.9909	230.0676	243.2856	260.6389	282.7454	347.2063	373.0687	480.9801	549.3793	610.7817	676.4311	740.9374	777.6991	828.6785	846.9983	860.7219	907.2985	925.5099	934.1376	950.9605	971.1882	1020.4917	1039.3328	1046.4937	1050.1293	1113.7667	1154.9629	1176.4057	1193.3919	1207.4965	1239.5754	1241.6347	1250.6526	1279.8238	1323.2376	1332.5411	1365.5076	1387.3076	1406.1607	1478.5722	1489.8158	1495.6983	1502.612	3021.2394	3044.4067	3062.1431	3088.7142	3098.4079	3103.8886	3117.3797	3124.8308	3154.1838	3191.1878	3803.7443
CC1(O)C2C3C1CCN23	C[C@@]1(O)[C@H]2[C@H]3[C@@H]1CCN23	
InChI=1S/C7H11NO/c1-7(9)4-2-3-8-5(4)6(7)8/h4-6,9H,2-3H2,1H3	InChI=1S/C7H11NO/c1-7(9)4-2-3-8-5(4)6(7)8/h4-6,9H,2-3H2,1H3/t4-,5+,6+,7-,8?/m0/s1
