20
gdb 71252	2.23938	2.04274	1.62425	2.2112	77.8	-0.2178	0.0548	0.2726	951.426	0.171874	-403.093202	-403.08539	-403.084446	-403.124807	31.979	
C	-0.0434846464	 1.5131422786	 0.1310044029	-0.501253
C	 0.0112843439	 0.0078492777	 0.0655398269	 0.231095
C	 0.8922507367	-0.7683993155	-0.9589197436	-0.292547
C	 0.7759777094	-1.9080101422	 0.0513809006	-0.052974
N	-0.722717601	-2.1445449654	 0.4158299418	-0.155093
C	-0.3640603429	-1.7636389375	 1.8417273801	-0.227261
C	 0.7007781199	-0.8808426576	 1.2267963488	 0.369753
O	 1.7325325925	-0.3580695935	 1.9904700948	-0.479517
C	-1.273318642	-0.8297080097	-0.0518878181	-0.191547
H	 0.9467924964	 1.9478571786	 0.31553539	 0.102143
H	-0.4148590983	 1.9395794234	-0.8078675068	 0.122383
H	-0.7039244275	 1.8522348137	 0.9366781256	 0.123251
H	 0.5121362396	-0.8902224715	-1.9776911604	 0.098965
H	 1.9252079761	-0.4050309906	-0.9967420231	 0.088652
H	 1.3606351939	-2.8258507352	 0.040714306	 0.078526
H	-1.1832789817	-1.3384383955	 2.4301547948	 0.097106
H	 0.064807257	-2.6233101233	 2.3641600741	 0.110686
H	 2.2755890391	 0.219834579	 1.4434951279	 0.283867
H	-2.0916788114	-0.5105733974	 0.5991179186	 0.09757
H	-1.6514523432	-0.9006182761	-1.076407051	 0.096193
177.6513	202.9478	211.3109	220.1904	323.5212	360.3159	454.2156	484.2753	520.236	584.4103	633.1595	688.8464	691.9487	788.3301	836.7387	859.1852	906.3575	929.4132	946.8354	966.4366	991.2871	1020.3088	1062.69	1065.1355	1103.3405	1144.0008	1145.7467	1161.4426	1202.0726	1213.0947	1235.0991	1241.3446	1266.2523	1282.3121	1310.7004	1337.539	1392.1895	1419.5914	1487.5739	1489.1636	1493.2019	1506.4089	1531.1719	3017.4268	3039.1782	3043.963	3050.6114	3075.79	3090.9081	3092.338	3098.0166	3106.4384	3136.9704	3804.4251
CC12CC3N(CC13O)C2	C[C@@]12C[C@@H]3N(C[C@]13O)C2	
InChI=1S/C7H11NO/c1-6-2-5-7(6,9)4-8(5)3-6/h5,9H,2-4H2,1H3	InChI=1S/C7H11NO/c1-6-2-5-7(6,9)4-8(5)3-6/h5,9H,2-4H2,1H3/t5-,6-,7+/m0/s1
