17
gdb 5225	6.61231	1.09154	0.99985	1.4153	70.46	-0.2355	0.0088	0.2443	1194.2203	0.143201	-363.906862	-363.899089	-363.898145	-363.939958	27.799	
C	-0.1275405544	 1.5306210769	 0.0699007657	-0.382042
C	-0.0749398209	 0.0016992332	 0.0596603025	-0.16684
C	 0.844505115	-0.5602746235	 1.1616976378	-0.290734
C	 0.9020002857	-2.0478341927	 1.1800157697	 0.386972
N	 1.9013113317	-2.8255572552	 0.9001288879	-0.304007
C	 1.4014309584	-4.1133215519	 1.0583876358	-0.114745
C	 0.1042256775	-4.0418178639	 1.4304526216	-0.043062
O	-0.234699663	-2.7194649698	 1.5136200159	-0.175332
H	 0.8663519189	 1.9632602149	-0.0888683138	 0.118763
H	-0.7850799009	 1.9080348512	-0.718923927	 0.116433
H	-0.5039564861	 1.908280041	 1.0271148861	 0.116558
H	-1.0820917532	-0.4090524828	 0.1928214188	 0.112265
H	 0.2801858918	-0.3546776312	-0.9143942704	 0.110783
H	 1.8679815487	-0.2014112752	 1.0236942868	 0.132461
H	 0.4988608094	-0.1994054922	 2.1389152619	 0.118901
H	 2.0134603069	-4.9857142594	 0.8935965752	 0.121766
H	-0.6686165254	-4.7537988093	 1.6626667555	 0.141859
47.9422	91.988	119.2322	244.3415	306.3952	331.1205	383.7318	631.7409	697.4792	746.3193	756.2922	786.9098	863.596	873.4273	899.7086	933.2468	951.7507	1043.7213	1077.3016	1111.4767	1115.8602	1150.7927	1166.1496	1235.0401	1274.0332	1308.4318	1326.9358	1380.4091	1392.7477	1414.1489	1472.2483	1493.7122	1499.3714	1509.6756	1558.2073	1619.6457	3027.9862	3030.9327	3040.051	3067.8248	3096.7577	3106.4199	3109.4937	3263.4738	3299.9728
CCCC1=NC=CO1	CCCc1ncco1	
InChI=1S/C6H9NO/c1-2-3-6-7-4-5-8-6/h4-5H,2-3H2,1H3	InChI=1S/C6H9NO/c1-2-3-6-7-4-5-8-6/h4-5H,2-3H2,1H3
