16
gdb 32451	3.26075	1.23184	0.89923	1.6137	68.06	-0.1672	0.0611	0.2284	1233.2506	0.122105	-475.027809	-475.017707	-475.016763	-475.063213	34.788	
C	-0.0708750155	 1.3214859548	-0.0507221241	-0.243648
O	-0.0689444016	-0.0883967711	 0.0420396218	-0.283344
C	 0.6037964727	-0.5977317151	 1.1119179745	 0.24972
C	 1.2995282678	 0.0221154222	 2.1252525527	-0.235877
N	 1.8126576546	-0.9924286663	 2.9277132969	-0.323595
C	 1.4241633757	-2.2083835849	 2.4412237064	 0.33444
O	 1.8003812281	-3.3413838341	 3.0901172015	-0.446127
C	 0.6786773352	-2.0066340533	 1.3084918797	 0.062295
O	 0.1336618838	-3.0004904212	 0.5325570125	-0.480114
H	 0.9516236508	 1.71315726	-0.1423450766	 0.119467
H	-0.6411941331	 1.5818815581	-0.9440700045	 0.129711
H	-0.5446958986	 1.7750114051	 0.8307946246	 0.119437
H	 1.4931121642	 1.0572407983	 2.3387390974	 0.117382
H	 2.2865251222	-0.8663722016	 3.8032582851	 0.264581
H	 1.4396410542	-4.0860755649	 2.5965900157	 0.313229
H	-0.3065976405	-2.5710594761	-0.2082975937	 0.302442
62.8957	81.2529	110.2466	176.959	180.3718	232.1304	236.9549	241.9289	300.0299	354.828	408.8782	539.1939	557.3778	614.6511	624.0707	675.9231	752.3919	785.1138	997.5207	1075.4951	1126.3074	1177.2092	1182.7034	1217.7237	1231.9312	1293.7729	1310.7855	1401.5106	1449.9787	1475.7904	1480.956	1510.6157	1579.1971	1607.7818	1717.5838	2994.8977	3048.6206	3130.582	3294.7054	3703.5369	3825.8569	3827.4904
COC1=CNC(O)=C1O	COc1c[nH]c(O)c1O	
InChI=1S/C5H7NO3/c1-9-3-2-6-5(8)4(3)7/h2,6-8H,1H3	InChI=1S/C5H7NO3/c1-9-3-2-6-5(8)4(3)7/h2,6-8H,1H3
