16
gdb 25699	3.63445	0.97281	0.7711	1.7934	85.71	-0.1938	0.0185	0.2122	1440.6227	0.124255	-400.764815	-400.755753	-400.754809	-400.799782	32.727	
C	-0.1520265812	 1.4301385137	 0.0424438499	-0.508443
C	-0.0510849829	-0.0215752123	 0.0256298881	 0.147175
C	 0.0632621751	-1.2251234481	 0.0102824264	-0.121597
C	 0.0972843102	-2.6363147104	-0.0033938766	 0.085057
C	 1.1848288272	-3.4961992473	-0.0604480755	-0.197532
N	 0.7112133154	-4.7705895409	-0.0496379441	-0.242183
C	-0.6716357825	-4.777799013	 0.0133184922	-0.163678
C	-1.073065762	-3.4665622314	 0.0429961458	 0.195534
O	-2.3541839521	-3.0237163416	 0.1053496114	-0.44791
H	 0.8427129369	 1.8896245741	 0.0312736314	 0.150834
H	-0.6981206361	 1.8088019631	-0.8294624763	 0.146175
H	-0.6690382312	 1.7896546023	 0.9397706342	 0.146205
H	 2.23911109	-3.2802197291	-0.1067570353	 0.125495
H	 1.2831652671	-5.594901981	-0.0827732505	 0.265776
H	-1.2382106893	-5.6923616745	 0.0313116029	 0.124717
H	-2.3190968645	-2.0585874736	 0.1116776061	 0.294375
27.3773	79.9766	105.4245	251.8843	261.7957	317.1336	376.3013	393.6231	414.1177	462.2291	489.3498	576.926	617.0266	635.4836	707.0155	728.8453	742.373	897.4163	980.1345	1050.6101	1052.9746	1074.1697	1138.1339	1182.3012	1255.8609	1289.7841	1372.3301	1414.0563	1429.2302	1474.8853	1480.0424	1486.0829	1563.509	1658.2183	2344.0544	3020.7564	3076.294	3084.7228	3273.6823	3284.5489	3698.5465	3772.1941
CC#CC1=CNC=C1O	CC#Cc1c[nH]cc1O	
InChI=1S/C7H7NO/c1-2-3-6-4-8-5-7(6)9/h4-5,8-9H,1H3	InChI=1S/C7H7NO/c1-2-3-6-4-8-5-7(6)9/h4-5,8-9H,1H3
