19
gdb 62089	4.21977	0.71213	0.66599	3.5856	73.8	-0.2576	-0.0269	0.2307	1682.6819	0.155319	-460.208644	-460.197956	-460.197012	-460.24628	35.927	
C	-0.0555561159	 1.3851299871	-0.1659597423	-0.410129
C	 0.0041657544	-0.150730542	-0.0429565231	-0.095306
C	 0.669696494	-0.7938945041	-1.2608454024	-0.085376
O	-0.1080596823	-0.5126857935	-2.4314938819	-0.186643
C	 0.5252580194	-0.040411202	-3.522135805	 0.169292
O	-0.0416694048	 0.1960998242	-4.5456382759	-0.27389
C	 0.7727921792	-0.5429017365	 1.2212673805	 0.384576
C	 0.0036121587	-0.5218185413	 2.5272016188	-0.48175
O	 1.9418247998	-0.8548993746	 1.1686805206	-0.305734
H	 0.953077506	 1.8082790008	-0.2207745418	 0.1326
H	-0.6004155977	 1.6664513247	-1.0700278236	 0.148835
H	-0.5665942002	 1.8373680384	 0.6881801272	 0.126265
H	-1.0225081909	-0.5290308473	 0.0373270247	 0.100531
H	 1.6927130995	-0.4205688329	-1.3762381943	 0.130788
H	 0.7209756705	-1.8805352198	-1.1440630641	 0.12732
H	 1.6111272524	 0.1028722081	-3.3575434673	 0.081208
H	-0.7137983803	-1.3515763633	 2.5347209147	 0.148698
H	 0.6907313618	-0.6353836011	 3.3663325075	 0.147717
H	-0.5778163536	 0.3988806752	 2.6366335176	 0.141
39.7672	45.683	59.9779	122.6181	136.5736	196.6715	212.5293	253.9164	290.7863	312.0532	371.7708	483.4701	569.8457	600.9693	678.3105	792.4533	885.217	928.7879	955.4056	991.4014	1045.0621	1048.8706	1081.5676	1122.9422	1131.3969	1180.0257	1218.1301	1290.8345	1323.108	1354.2495	1384.6562	1399.365	1406.5409	1437.5306	1461.5241	1475.0865	1493.4995	1504.6148	1504.9868	1802.8837	1866.6589	2949.9013	3034.4227	3039.7177	3043.5526	3048.7446	3098.0706	3100.6897	3115.8097	3129.425	3154.9645
CC(COC=O)C(C)=O	C[C@@H](COC=O)C(=O)C	
InChI=1S/C6H10O3/c1-5(6(2)8)3-9-4-7/h4-5H,3H2,1-2H3	InChI=1S/C6H10O3/c1-5(6(2)8)3-9-4-7/h4-5H,3H2,1-2H3/t5-/m0/s1
