19
gdb 117269	4.5778	0.74348	0.69819	2.5428	72.2	-0.2377	-0.0189	0.2189	1630.8258	0.157188	-460.146368	-460.136484	-460.13554	-460.183248	33.725	
O	-0.2264554777	 1.5491033794	 0.2212175054	-0.424714
C	-0.0034937902	 0.1594339964	 0.0336565668	-0.073774
C	-1.3523294482	-0.532879027	 0.1556222037	-0.298799
C	-1.2723922963	-2.0392533596	-0.0147958382	 0.345293
O	-0.2251389121	-2.6383634294	-0.0825506062	-0.299054
C	-2.6159030231	-2.7536852154	-0.1444606431	 0.052148
C	-3.0762444744	-2.9451348964	-1.618900026	-0.290739
C	-2.8871545916	-4.4451318284	-1.3114519683	-0.058033
O	-2.5354989303	-4.1667150271	 0.0601333457	-0.267369
H	 0.6237438459	 1.9958952102	 0.1755705453	 0.288107
H	 0.4327558028	-0.0531054445	-0.9535692974	 0.098281
H	 0.6863122142	-0.2505891768	 0.7837324662	 0.108708
H	-1.792139005	-0.3181832371	 1.1393691263	 0.138155
H	-2.0607745919	-0.1167821335	-0.5735885874	 0.128332
H	-3.3575320546	-2.2832602644	 0.5152527336	 0.087648
H	-4.1011514486	-2.6327695337	-1.8203567985	 0.1201
H	-2.4116256304	-2.5286193825	-2.3774679612	 0.121269
H	-3.7878365963	-5.0652931241	-1.3834502	 0.106965
H	-2.0669008523	-4.9344544061	-1.8484212868	 0.117478
34.907	56.7678	69.0074	94.7608	143.4271	216.5638	274.9553	292.7249	322.6254	405.3252	564.3887	686.0771	779.9523	793.0427	813.1332	859.6302	938.8583	955.0049	994.4317	1017.2492	1044.381	1052.0971	1085.1058	1109.1406	1129.4486	1163.6543	1204.638	1214.8486	1252.8506	1254.4388	1260.8458	1301.7686	1335.4218	1354.05	1382.8191	1447.3747	1469.4504	1486.8921	1522.9835	1526.865	1813.5018	2993.734	3011.3594	3024.1538	3027.0224	3028.5697	3058.2936	3071.4024	3083.8568	3142.0929	3831.6873
OCCC(=O)C1CCO1	OCCC(=O)[C@H]1CCO1	
InChI=1S/C6H10O3/c7-3-1-5(8)6-2-4-9-6/h6-7H,1-4H2	InChI=1S/C6H10O3/c7-3-1-5(8)6-2-4-9-6/h6-7H,1-4H2/t6-/m1/s1
