21
gdb 41881	2.91317	1.54957	1.12158	0.9623	83.66	-0.2384	0.0235	0.2618	1129.072	0.18492	-387.083607	-387.075816	-387.074872	-387.115961	31.202	
C	 0.0930630798	 1.6389513834	 0.1738358594	-0.249223
C	 1.560540579	 1.5126961555	-0.3262703846	-0.252156
C	 1.2924850235	 0.0363819316	-0.6842036907	 0.147778
O	 2.2989738103	-0.8313597369	-0.2260642574	-0.244099
C	 2.0160680335	-2.2025597209	-0.4217700253	-0.137711
C	 0.9841835551	-2.7841204009	 0.5101472336	-0.036142
C	 0.1714563067	-2.1264478541	 1.3373609278	-0.075314
C	 0.0625956903	-0.6235625573	 1.4813850239	-0.256478
C	-0.0414660726	 0.087555842	 0.1292079162	-0.019049
H	-0.0501406556	 2.1071306415	 1.1511633199	 0.098129
H	-0.5603832236	 2.1404200074	-0.544198647	 0.099735
H	 1.877395541	 2.1712673344	-1.1375050858	 0.098755
H	 2.2908372606	 1.5778858602	 0.4837086768	 0.115136
H	 1.1150542179	-0.1234476999	-1.7592230296	 0.058982
H	 1.7209433585	-2.3885888097	-1.4715316384	 0.094004
H	 2.9675975406	-2.7297086602	-0.2743143744	 0.114148
H	 0.9392411308	-3.8724471725	 0.4870841755	 0.083603
H	-0.4938418899	-2.7173106991	 1.9629692399	 0.085558
H	-0.8201473117	-0.3776690944	 2.0824563384	 0.094008
H	 0.9271665469	-0.2346152346	 2.0342784139	 0.116375
H	-0.9170564612	-0.2881214955	-0.408260072	 0.063963
65.6707	167.6554	247.9312	287.3703	296.2826	370.4203	435.6915	442.7577	603.51	657.4676	685.002	756.6861	772.8379	832.8329	872.0822	881.7871	942.7175	952.488	965.3443	981.0351	999.2005	1037.9225	1043.337	1066.0055	1120.2708	1142.6369	1176.7322	1194.8611	1228.1413	1242.2484	1253.5749	1262.0216	1278.7575	1295.2573	1305.1977	1339.5329	1368.9012	1381.1919	1413.7189	1416.5439	1472.7307	1480.4657	1483.558	1495.2731	1729.2947	2930.277	2974.305	3023.642	3035.2505	3050.7749	3058.8315	3067.5773	3071.1107	3104.3197	3127.0632	3127.2709	3154.9876
C1CC2OCC=CCC12	C1C[C@H]2OCC=CC[C@@H]12	
InChI=1S/C8H12O/c1-2-6-9-8-5-4-7(8)3-1/h1-2,7-8H,3-6H2	InChI=1S/C8H12O/c1-2-6-9-8-5-4-7(8)3-1/h1-2,7-8H,3-6H2/t7-,8+/m0/s1
