16
gdb 128554	4.19886	1.24764	0.9798	3.6788	73.77	-0.2161	0.0094	0.2255	1177.0452	0.125819	-434.014586	-434.006837	-434.005893	-434.047347	27.978	
C	-0.0685036207	 1.4230800484	 0.0709934047	-0.240487
O	 0.0113453593	 0.0015678355	-0.0294390501	-0.26914
C	 0.6374284762	-0.6149163947	 0.9834582265	 0.24542
C	 0.8672138315	-1.9671811939	 1.1631564628	 0.228932
C	 0.9193496957	-3.4821848869	 0.996515579	-0.384626
C	 1.6913719757	-3.4799102075	 2.3758273891	-0.164398
N	 1.5263195714	-2.0089542203	 2.3331404904	 0.100085
N	 1.7318162335	-0.8254769225	 2.9018864381	-0.200996
N	 1.1752426844	 0.0329643544	 2.0544250695	-0.286858
H	 0.9293205928	 1.8716546939	 0.1049022517	 0.137243
H	-0.6005705532	 1.7524563305	-0.8224768089	 0.126724
H	-0.6152878205	 1.7237542736	 0.9702333085	 0.137256
H	-0.0435109025	-3.9963483702	 1.019441324	 0.138584
H	 1.5063432334	-3.847650606	 0.1516219973	 0.1386
H	 1.1741653552	-3.949528231	 3.2142239251	 0.146828
H	 2.7341788977	-3.7997204732	 2.3406223623	 0.146834
74.9811	137.6889	179.8187	206.5308	224.0233	360.4185	384.1234	532.0826	671.55	676.1986	705.2884	734.8589	808.9905	872.015	899.6888	1042.3304	1059.021	1087.6927	1133.4288	1176.0254	1177.6831	1180.8186	1191.5938	1211.1773	1222.6499	1273.5305	1320.7295	1367.2519	1472.7849	1480.0808	1481.9084	1490.3637	1502.638	1528.4361	1640.8767	3035.7977	3077.5215	3083.2438	3103.9568	3125.9033	3145.4366	3146.8103
COC1=C2CCN2N=N1	COc1c2CCn2nn1	
InChI=1S/C5H7N3O/c1-9-5-4-2-3-8(4)7-6-5/h2-3H2,1H3	InChI=1S/C5H7N3O/c1-9-5-4-2-3-8(4)7-6-5/h2-3H2,1H3
