19
gdb 76558	2.54753	1.22402	1.14726	2.0839	71.74	-0.2254	0.0492	0.2746	1174.7821	0.157753	-460.116695	-460.107445	-460.106501	-460.150691	34.915	
O	-0.0254636159	 1.295995883	-0.0031575524	-0.429686
C	-0.0008533813	-0.1100732864	 0.0414196568	-0.043706
C	-0.5043354522	-0.7483019512	 1.3156324005	 0.016755
O	-0.8769940528	 0.0946910189	 2.3648508356	-0.439775
C	-1.3457100042	-0.7848360324	 0.068886029	 0.234291
C	-2.6912375824	-0.0950124489	-0.1802058867	-0.306965
C	-2.9474569448	-1.1092694463	-1.3357517334	-0.255953
C	-1.7449835577	-1.9635854008	-0.837698783	 0.068659
O	-0.8141714767	-2.4532517283	-1.7717038713	-0.428647
H	 0.8252488966	 1.6148487295	 0.319461478	 0.296849
H	 0.799332537	-0.5865039349	-0.5240302274	 0.094606
H	-0.0425557889	-1.6641599962	 1.67457422	 0.103678
H	-0.8637429843	 0.9917087201	 2.0034758091	 0.283869
H	-3.3784302515	-0.2092528486	 0.6622802207	 0.115485
H	-2.6512621818	 0.9592063159	-0.4604536672	 0.116275
H	-3.9233579542	-1.5977110424	-1.3768617294	 0.104392
H	-2.7353425946	-0.673776527	-2.3176625802	 0.096911
H	-2.0623429699	-2.8356617136	-0.2570423437	 0.094531
H	-0.5540848206	-1.7180595904	-2.3378440548	 0.278432
66.5729	128.2413	155.9058	186.9344	232.2256	265.5185	298.3444	345.0791	446.9161	481.6905	493.5235	544.5797	620.5414	655.7782	717.3589	794.0838	842.8704	859.2265	932.3776	946.2213	996.6492	1051.8851	1066.1741	1083.7453	1111.1095	1137.1775	1156.8229	1164.0236	1217.3551	1230.4229	1251.9698	1255.3672	1276.4716	1304.0619	1312.9505	1331.3501	1403.8007	1428.8395	1469.363	1480.9931	1495.971	3051.3002	3060.5734	3065.9615	3106.5188	3107.8685	3122.4556	3147.7239	3747.229	3795.3515	3800.0116
OC1C(O)C11CCC1O	O[C@H]1[C@@H](O)[C@]21CC[C@H]2O	
InChI=1S/C6H10O3/c7-3-1-2-6(3)4(8)5(6)9/h3-5,7-9H,1-2H2	InChI=1S/C6H10O3/c7-3-1-2-6(3)4(8)5(6)9/h3-5,7-9H,1-2H2/t3-,4-,5+,6+/m1/s1
