17
gdb 42564	3.23778	1.57282	1.30566	3.4309	76.34	-0.2312	0.009	0.2402	994.3483	0.136285	-384.639135	-384.632159	-384.631214	-384.670402	28.396	
O	 0.0816744765	 0.1033584456	 0.1356079735	-0.343974
C	 0.0426728002	 1.3005335096	 0.1283584825	 0.457605
C	-1.0591112066	 2.3165197157	 0.077198008	-0.210978
C	-0.1298875965	 3.2006212356	-0.7796331619	-0.068932
C	-0.4560075596	 3.6328435773	 0.6120501768	-0.160441
C	 0.9460071466	 3.3154452925	 1.0943907511	 0.41721
C	 1.945189061	 4.3086676489	 1.5930146624	-0.349511
C	 1.5012547427	 3.1483208549	 2.472066596	-0.336865
C	 1.0889702234	 2.4078836597	-0.1405619832	-0.295563
H	-2.1257960062	 2.1712760574	-0.0245150346	 0.111342
H	-0.3062960699	 3.6075169412	-1.7627083539	 0.11555
H	-1.1157967396	 4.4302649468	 0.9319366459	 0.100475
H	 2.9495532633	 4.2822606574	 1.1829452791	 0.116821
H	 1.5961366674	 5.3040674167	 1.8503723844	 0.114715
H	 0.8579342133	 3.3687091615	 3.3176379192	 0.11716
H	 2.208425775	 2.3443007842	 2.6482422048	 0.123073
H	 2.0493441893	 2.1831577151	-0.5966441501	 0.092313
113.6866	193.9739	243.3796	292.0158	438.1045	475.1368	576.1903	615.5939	755.3024	765.8821	775.3612	804.761	824.1366	837.4289	860.0037	878.6697	915.1725	940.9633	969.7393	988.07	1024.4746	1027.8588	1048.9013	1056.3538	1077.4862	1089.8054	1125.7363	1155.5171	1170.609	1183.2272	1256.0453	1267.9722	1319.8129	1410.0588	1461.5824	1509.7233	1883.3636	3122.8197	3129.7771	3162.3926	3189.2757	3202.4503	3217.7364	3219.0667	3246.713
O=C1C2C3C2C2(CC2)C13	O=C1[C@@H]2[C@H]3[C@@H]2C2(CC2)[C@@H]13	
InChI=1S/C8H8O/c9-7-4-3-5(4)8(1-2-8)6(3)7/h3-6H,1-2H2	InChI=1S/C8H8O/c9-7-4-3-5(4)8(1-2-8)6(3)7/h3-6H,1-2H2/t3-,4+,5-,6+/m0/s1
