17
gdb 6958	2.61157	2.35627	1.71343	1.5918	64.84	-0.2663	0.0232	0.2895	841.0397	0.141681	-401.024415	-401.016419	-401.015474	-401.056468	29.629	
C	 0.0044997097	 1.5010785224	-0.0281199643	-0.417664
C	-0.0420795522	-0.0321702001	 0.0238212617	 0.266084
C	-1.4661876601	-0.5668734814	-0.04959562	-0.417539
O	 0.7197144832	-0.6056707762	-1.0570668388	-0.279225
C	 2.0117082819	-0.825190015	-0.5774964986	 0.006435
O	 1.9036264366	-1.0526896086	 0.8305968355	-0.243425
C	 0.7075812712	-0.5493114891	 1.2465725406	 0.384591
N	 0.2875121495	-0.5093342832	 2.4338919503	-0.540749
H	 1.0340091941	 1.8710141021	-0.0015232535	 0.119487
H	-0.4667258703	 1.8552690978	-0.9490389414	 0.125946
H	-0.5265364087	 1.9181262682	 0.8311932294	 0.143868
H	-1.9666716086	-0.1906049363	-0.946224729	 0.121183
H	-1.4610384785	-1.6587795753	-0.0823891196	 0.126581
H	-2.0216530164	-0.2466399958	 0.834648902	 0.14567
H	 2.4327231763	-1.7160711191	-1.0520654685	 0.128885
H	 2.6740990517	 0.0405432767	-0.7381083133	 0.10336
H	 0.9735780004	-0.8969968071	 3.0827373877	 0.226513
96.8751	192.1283	198.4602	219.7824	237.5389	297.7979	339.6719	413.4548	501.0883	609.315	699.0326	720.0822	752.9378	864.2694	887.3083	939.9525	967.4328	992.7648	1018.9238	1034.5228	1130.5406	1173.5226	1194.7777	1207.2039	1222.9754	1248.9949	1334.3694	1394.0532	1411.2413	1444.7367	1475.6727	1478.8224	1495.6299	1503.9787	1547.5859	1790.5363	2974.3495	3043.0653	3051.37	3087.0716	3115.0036	3126.6872	3131.6431	3141.2525	3482.4135
CC1(C)OCOC1=N	CC1(C)OCO[C]1[NH]	
InChI=1S/C5H9NO2/c1-5(2)4(6)7-3-8-5/h6H,3H2,1-2H3	InChI=1S/C5H9NO2/c1-5(2)4(6)7-3-8-5/h6H,3H2,1-2H3
