15
gdb 26984	3.33382	1.28436	0.97051	2.4438	71.84	-0.1951	0.0245	0.2196	1146.592	0.113578	-416.849487	-416.841294	-416.84035	-416.882718	30.16	
N	-0.1169847661	 1.2801066875	-0.3717704086	-0.606847
C	-0.1329235558	-0.0832873727	-0.1520387224	 0.318109
C	-1.1360277921	-1.0107728927	-0.0440553998	 0.170097
C	-2.6195030811	-0.7956677708	-0.1864772078	-0.45953
C	-2.9460994569	 0.2069503779	-1.2040495002	 0.26884
N	-3.1490191708	 1.0295944669	-1.9909926183	-0.324659
C	-0.4776609893	-2.2516669618	 0.2719618449	-0.268212
C	 0.8467996659	-1.9896965913	 0.333688815	-0.029158
O	 1.0706138902	-0.6576781436	 0.0714052157	-0.176017
H	 0.7740240778	 1.6074887443	-0.7209941674	 0.259027
H	-0.8847279131	 1.6094859417	-0.9445639639	 0.276761
H	-3.1080659387	-1.7356928694	-0.4665435574	 0.161633
H	-3.0884500129	-0.4771624449	 0.7554994956	 0.163242
H	-0.9507947144	-3.2093634169	 0.4280550293	 0.109587
H	 1.7254912873	-2.5764197243	 0.5357406355	 0.137126
49.916	120.7573	204.7324	260.1487	273.3116	306.7385	377.97	434.124	484.7033	605.2416	649.7664	674.1963	718.2857	733.1106	769.8236	817.4334	906.8918	937.0716	937.5028	1029.8203	1065.1866	1171.3793	1185.537	1247.7237	1268.6489	1308.6302	1343.7007	1461.3633	1473.197	1571.847	1635.8638	1682.2833	2353.2801	3007.4639	3066.4188	3247.9784	3300.449	3535.4072	3636.9656
NC1=C(CC#N)C=CO1	Nc1c(CC#N)cco1	
InChI=1S/C6H6N2O/c7-3-1-5-2-4-9-6(5)8/h2,4H,1,8H2	InChI=1S/C6H6N2O/c7-3-1-5-2-4-9-6(5)8/h2,4H,1,8H2
