19
gdb 126768	2.65966	1.30685	0.95262	2.9875	80.19	-0.1837	0.0519	0.2356	1269.1359	0.160795	-415.410459	-415.4009	-415.399956	-415.445413	35.244	
C	-0.006303185	 1.5688247844	-0.1043563083	-0.376595
C	 0.0100774195	 0.0377023336	-0.101490352	-0.137238
N	 0.7528630512	-0.5232633991	-1.210611092	-0.009743
N	 0.1058685964	-0.7386439118	-2.4058020679	-0.361977
C	 1.0733278735	-1.0655500316	-3.2512663191	 0.390383
N	 0.791985619	-1.3033996598	-4.598930239	-0.592182
C	 2.3474856171	-1.0806951637	-2.631923618	-0.390825
C	 2.0893523108	-0.7174286696	-1.322149827	 0.40265
N	 2.9591024145	-0.4684474484	-0.2552709143	-0.609879
H	 1.0073078836	 1.9667807462	-0.0043922611	 0.13387
H	-0.4332539944	 1.9353893693	-1.041454831	 0.141695
H	-0.6111716609	 1.9456392913	 0.7267704495	 0.110991
H	 0.4344569867	-0.3385549578	 0.8362747455	 0.098401
H	-1.0049096434	-0.3596473499	-0.1798210959	 0.131756
H	-0.1996143639	-1.4494925721	-4.7423683123	 0.245057
H	 1.3176759139	-2.0773875122	-4.9829745464	 0.240025
H	 3.3040061271	-1.3190094094	-3.0685030267	 0.082175
H	 3.8956903117	-0.7896446779	-0.4608666842	 0.253151
H	 2.6525830028	-0.8795722815	 0.6187727301	 0.248283
30.5844	91.6718	168.6664	212.5846	219.7273	260.7421	304.0841	314.1329	333.2155	437.6189	516.1664	612.2923	644.9387	648.4586	684.4717	704.2801	765.0237	782.5521	788.9947	833.0858	968.1237	1014.8332	1066.6654	1093.6539	1108.5622	1144.8244	1204.1955	1234.4392	1286.9057	1347.3127	1388.1615	1403.4406	1460.6519	1479.807	1489.2183	1506.8311	1530.1074	1575.4812	1604.8685	1646.2884	1659.2262	3041.655	3042.4812	3100.0395	3116.9047	3133.0415	3255.4661	3528.6983	3537.0541	3626.4577	3632.021
CCN1N=C(N)C=C1N	CCn1nc(N)cc1N	
InChI=1S/C5H10N4/c1-2-9-5(7)3-4(6)8-9/h3H,2,7H2,1H3,(H2,6,8)	InChI=1S/C5H10N4/c1-2-9-5(7)3-4(6)8-9/h3H,2,7H2,1H3,(H2,6,8)
