19
gdb 35987	5.6863	0.58083	0.55098	0.8275	91.66	-0.2437	0.0383	0.282	2011.4046	0.157809	-348.680688	-348.671063	-348.670118	-348.717641	34.611	
C	-0.0027598863	-1.4334193081	 0.2313471581	-0.447449
C	-0.0212389131	-0.2330111873	 0.2250210425	 0.320222
C	-0.0609308002	 1.2312559024	 0.2185792179	-0.494482
C	 1.2522187879	 1.8549073792	 0.0417342073	 0.11263
C	 2.3327152499	 2.3680770607	-0.0986624854	 0.049411
C	 3.6198551125	 3.00420732	-0.2898568968	-0.143078
C	 4.2061953581	 3.1297959914	-1.7349562651	-0.213196
C	 4.7352526944	 4.5378094144	-1.3558942368	-0.217006
C	 3.7286926357	 4.561098356	-0.1758963316	-0.213664
H	 0.0201048713	-2.4948704753	 0.2361602646	 0.198641
H	-0.7408281838	 1.5682804788	-0.5764381364	 0.157815
H	-0.5117249136	 1.5821951534	 1.1575648725	 0.15884
H	 4.3658366807	 2.5398647174	 0.3650558982	 0.099662
H	 4.9258077618	 2.3699229678	-2.0467127608	 0.103155
H	 3.4025572382	 3.1812665325	-2.4736685335	 0.111394
H	 5.7706829925	 4.5013076945	-1.0049485144	 0.104014
H	 4.6516459084	 5.3268967615	-2.105745013	 0.100361
H	 2.7842381436	 5.0345251577	-0.4554372768	 0.110538
H	 4.0591842819	 4.9675936629	 0.7823042295	 0.102193
9.5936	64.0369	96.2737	133.0531	197.0363	288.8176	314.581	323.8897	447.6487	503.3797	538.703	606.678	620.389	646.9175	731.983	787.285	867.5312	906.2476	934.4081	935.2733	940.8199	951.0327	1004.2593	1022.1418	1120.4085	1184.8767	1202.8153	1230.236	1235.4516	1246.1572	1255.1391	1275.6433	1278.0272	1333.3119	1360.8606	1453.949	1478.64	1487.452	1509.5931	2246.5446	2367.4435	3004.7243	3027.7375	3038.5996	3059.8014	3064.7382	3069.1655	3107.2704	3120.8515	3130.7332	3507.7917
C#CCC#CC1CCC1	C#CCC#CC1CCC1	
InChI=1S/C9H10/c1-2-3-4-6-9-7-5-8-9/h1,9H,3,5,7-8H2	InChI=1S/C9H10/c1-2-3-4-6-9-7-5-8-9/h1,9H,3,5,7-8H2
