21
gdb 114035	2.66285	1.14169	0.94758	2.1952	78.97	-0.243	0.0753	0.3183	1313.4068	0.181111	-424.183657	-424.173936	-424.172992	-424.217911	36.668	
C	-0.0038980105	 1.5706836368	 0.3397123356	-0.424341
C	 0.1619999641	 0.0856354414	 0.0828218125	-0.057781
C	 0.6022466073	-0.6183732546	-1.1954855405	-0.185675
C	 1.7695549032	 0.0517823971	-1.9341709489	 0.059481
C	 1.554719482	 1.3352475142	-2.7155991109	-0.105917
O	 2.8128470253	 1.7073200065	-3.2667518409	-0.423197
C	 2.5947966052	 0.0591272334	-0.6040384125	-0.325483
C	 1.4422148166	-0.6950161277	 0.0806909169	 0.370887
O	 1.638609076	-1.8151337539	 0.8749766909	-0.461781
H	-0.8535783128	 1.9804280038	-0.2179549734	 0.116892
H	-0.1931898526	 1.7522249211	 1.4040801992	 0.109974
H	 0.8823257375	 2.1483434347	 0.0681503466	 0.124159
H	-0.6240756175	-0.5097903162	 0.5469931074	 0.088046
H	-0.0324341284	-1.3828319916	-1.6294653071	 0.086608
H	 2.2211032028	-0.668996465	-2.6233729029	 0.08883
H	 0.8095658185	 1.1531581228	-3.5082368992	 0.082649
H	 1.1564047282	 2.1321868004	-2.0731005068	 0.084058
H	 2.6996381727	 2.5341287031	-3.7442819735	 0.285098
H	 3.4968242647	-0.5509895511	-0.6715723044	 0.112401
H	 2.8642625689	 1.0369242156	-0.1915666489	 0.092326
H	 1.6831845888	-1.5304863808	 1.7942275907	 0.282767
82.9725	125.8618	168.2013	189.5974	228.9948	258.0571	262.4078	285.9412	349.9054	375.5182	440.2573	482.1348	550.1722	652.6774	708.3186	757.0158	838.7289	899.9697	921.3135	952.3194	972.7219	1006.9417	1050.0733	1062.9559	1072.2017	1098.1345	1120.3106	1141.5453	1164.3862	1211.8002	1230.6885	1244.1985	1256.273	1264.4082	1298.2987	1321.3633	1347.4814	1374.9509	1415.6624	1457.4541	1467.391	1494.008	1502.7917	1506.5912	1524.4625	2962.625	3022.9083	3029.9862	3050.3451	3057.1129	3082.0323	3109.0769	3120.8661	3127.67	3173.4485	3794.7926	3830.2614
CC1C2C(CO)CC12O	C[C@H]1[C@H]2[C@@H](CO)C[C@@]12O	
InChI=1S/C7H12O2/c1-4-6-5(3-8)2-7(4,6)9/h4-6,8-9H,2-3H2,1H3	InChI=1S/C7H12O2/c1-4-6-5(3-8)2-7(4,6)9/h4-6,8-9H,2-3H2,1H3/t4-,5+,6-,7+/m0/s1
