17
gdb 9874	3.48844	1.46911	1.27663	3.3326	68.27	-0.2691	0.0131	0.2822	1006.1896	0.140492	-363.850207	-363.841726	-363.840782	-363.884045	30.771	
C	 0.458545366	 1.481565062	-0.2653717682	-0.459418
C	-0.1762288372	 0.1391242891	 0.0197721588	 0.430774
C	 0.5073214088	-1.1408921682	-0.3952882901	-0.314294
C	 0.4076356681	-0.7566966055	 1.0678579609	-0.311405
O	-1.5932339868	 0.1440570302	 0.0369592917	-0.271023
C	-2.2315740419	 0.3905927724	-1.1916429213	-0.208574
C	-2.1775364237	-0.7426706017	-2.1384027165	 0.26077
N	-2.1560615907	-1.6240642526	-2.8851446004	-0.310966
H	 1.5419810722	 1.4191056337	-0.1349545055	 0.127716
H	 0.2785408361	 1.821513866	-1.2913074327	 0.120714
H	 0.073230434	 2.2414712753	 0.4223922764	 0.128829
H	-0.116008951	-1.9573450851	-0.7365154976	 0.143504
H	 1.4693100123	-1.0676038254	-0.8909112624	 0.117271
H	 1.2991224748	-0.4226746227	 1.5868275104	 0.115004
H	-0.2960656707	-1.3121138115	 1.676672944	 0.128872
H	-3.2828910177	 0.5858569928	-0.9582097851	 0.160123
H	-1.8378428726	 1.2797927412	-1.7015737024	 0.142104
23.0817	104.7919	200.9718	238.9303	260.6109	330.8569	345.8624	372.1828	414.5475	469.1562	631.1838	683.2566	773.6461	867.0137	884.9656	909.8332	932.1626	953.8192	1035.7964	1047.1289	1064.3988	1082.2147	1103.9746	1135.2263	1188.2817	1267.3	1301.9837	1344.4346	1394.6784	1417.0778	1456.6695	1468.9049	1489.0626	1495.6083	1506.983	2356.4682	3023.455	3034.8352	3087.4019	3094.5225	3119.7276	3139.9576	3145.8505	3227.2023	3242.6813
CC1(CC1)OCC#N	CC1(CC1)OCC#N	
InChI=1S/C6H9NO/c1-6(2-3-6)8-5-4-7/h2-3,5H2,1H3	InChI=1S/C6H9NO/c1-6(2-3-6)8-5-4-7/h2-3,5H2,1H3
