20
gdb 12365	2.84676	2.0051	1.3811	1.7555	76.1	-0.248	0.0144	0.2625	963.3501	0.178318	-349.025717	-349.017625	-349.016681	-349.057687	31.501	
C	-0.0224835518	 1.5756033274	 0.0065308222	-0.402178
C	 0.042760371	 0.0470229934	-0.0067256865	 0.020105
C	 0.7371166677	-0.5041779085	-1.2608128133	-0.205919
C	 0.6436057927	-2.0346239265	-1.3155968417	-0.261659
C	 0.9524502711	-2.6664131318	 0.015739578	-0.041148
C	 0.9764794078	-1.9910495461	 1.1659783709	-0.106261
C	 0.7266412873	-0.5075040983	 1.262138604	 0.0981
O	 1.94693928	 0.1784029677	 1.5792203244	-0.437116
H	 0.9821433007	 2.0063683681	 0.022434412	 0.124272
H	-0.5487429442	 1.9512475043	-0.8771455196	 0.102577
H	-0.5500254184	 1.9419574118	 0.8938931925	 0.108815
H	-0.9848908196	-0.3462349161	 0.0039973986	 0.069658
H	 0.3016941221	-0.06338182	-2.1640392968	 0.091889
H	 1.793323971	-0.2001114284	-1.2487123124	 0.08727
H	-0.3668703586	-2.3372626633	-1.6308224919	 0.111726
H	 1.317755855	-2.4369431798	-2.0821025344	 0.102641
H	 1.1541393573	-3.7357525624	 0.0173244923	 0.088935
H	 1.2284526038	-2.4968650117	 2.0948243603	 0.089987
H	 0.076643096	-0.2997595332	 2.1215262331	 0.081395
H	 2.6390252291	-0.2096710566	 1.0338225382	 0.276913
103.6773	191.6032	209.3386	269.3548	278.9629	311.9931	325.079	442.6454	490.9942	502.8058	614.0552	716.1855	756.4848	784.8387	874.5378	900.7599	947.0268	963.062	1001.3778	1015.027	1023.0051	1063.6043	1091.0163	1122.5766	1134.9226	1173.3607	1232.8363	1247.8453	1264.1542	1325.5794	1336.4504	1363.0195	1369.7682	1399.8376	1405.5612	1407.7117	1427.8538	1472.9483	1490.838	1497.0371	1502.7489	1715.228	2991.6102	2994.0185	3013.8048	3027.8037	3034.264	3042.5929	3066.1158	3096.1423	3118.6568	3139.7494	3165.7444	3814.264
CC1CCC=CC1O	C[C@H]1CCC=C[C@H]1O	
InChI=1S/C7H12O/c1-6-4-2-3-5-7(6)8/h3,5-8H,2,4H2,1H3	InChI=1S/C7H12O/c1-6-4-2-3-5-7(6)8/h3,5-8H,2,4H2,1H3/t6-,7+/m0/s1
