13
gdb 131298	4.26341	0.9928	0.90645	4.0229	64.34	-0.2524	-0.0165	0.2358	1227.8384	0.091113	-448.954843	-448.947234	-448.946289	-448.988164	26.968	
O	 0.2322468175	 1.3080356902	-0.0331366374	-0.399748
C	 0.1142681741	-0.0215014921	-0.0492785406	 0.446229
N	 0.2677947056	-0.7122718454	-1.1644788274	-0.317364
N	 0.0787248664	-1.9899113219	-0.7137926656	 0.053391
C	 0.1064940657	-3.0943540411	-1.6447379832	-0.291619
C	-1.1626023943	-3.2760295075	-2.3652283542	 0.284721
N	-2.1569852666	-3.4432917662	-2.9270158708	-0.285097
C	-0.1802496436	-1.9821410663	 0.6078947403	 0.022051
N	-0.1589047488	-0.74733113	 1.0713390252	-0.354379
H	 0.0763604924	 1.5917236836	 0.8760154694	 0.316393
H	 0.9087208192	-2.9148494176	-2.3654657782	 0.192102
H	 0.3398122711	-4.0115636976	-1.096212732	 0.175395
H	-0.3683229187	-2.8794109082	 1.1788129244	 0.157925
41.4165	78.718	231.9624	285.7788	348.5869	366.1049	413.2562	477.4769	492.7393	631.5059	714.5131	771.6275	808.9694	850.71	930.3629	958.8253	1026.3889	1051.9351	1195.0014	1217.632	1238.2413	1355.9747	1376.3019	1404.9512	1448.591	1477.8987	1523.2323	1645.4892	2372.1226	3070.8843	3119.2646	3256.0849	3811.6288
OC1=NN(CC#N)C=N1	Oc1nn(CC#N)cn1	
InChI=1S/C4H4N4O/c5-1-2-8-3-6-4(9)7-8/h3H,2H2,(H,7,9)	InChI=1S/C4H4N4O/c5-1-2-8-3-6-4(9)7-8/h3H,2H2,(H,7,9)
