14
gdb 27953	3.89934	1.20963	0.92851	3.2054	70.97	-0.2685	-0.0977	0.1708	1183.0623	0.101075	-432.928594	-432.920598	-432.919654	-432.96289	27.337	
C	-0.0073450153	 1.4790769417	-0.0152382667	-0.464313
C	-0.0078853429	-0.0188097193	 0.0114853868	 0.357401
N	 0.0504541034	-0.6628348814	-1.1651958898	-0.291007
C	 0.04729956	-1.9916402636	-1.0867269022	 0.237497
C	 0.1130815789	-2.7122262845	-2.413550437	 0.122289
O	 0.1195547319	-3.9066213615	-2.5316386596	-0.221023
N	-0.0077067371	-2.7116420919	 0.0371230988	-0.253798
C	-0.0624713636	-1.971213341	 1.1401960541	 0.07335
N	-0.0659530424	-0.6373135242	 1.1963272748	-0.261933
H	 0.8969332014	 1.8423638766	-0.5135127223	 0.154247
H	-0.8580587094	 1.8414574406	-0.6008366022	 0.15424
H	-0.0578757089	 1.8790999842	 0.9969250534	 0.148572
H	 0.1550562972	-2.0127745552	-3.273024747	 0.103515
H	-0.1089706632	-2.5008738805	 2.089314759	 0.140963
23.0259	80.5827	172.4039	197.3665	216.4724	348.6391	416.4685	470.2872	577.3791	593.6012	711.3149	810.6207	830.8552	924.9458	1004.4445	1007.4221	1024.9775	1050.4658	1072.7789	1200.3767	1293.6314	1314.1354	1357.4628	1397.8521	1424.7471	1453.5026	1474.1099	1475.8713	1578.4813	1597.0349	1836.7005	2938.8193	3051.0417	3109.5418	3164.3576	3165.1849
CC1=NC(C=O)=NC=N1	Cc1nc(C=O)ncn1	
InChI=1S/C5H5N3O/c1-4-6-3-7-5(2-9)8-4/h2-3H,1H3	InChI=1S/C5H5N3O/c1-4-6-3-7-5(2-9)8-4/h2-3H,1H3
