21
gdb 119095	2.35462	1.17323	0.94401	3.5554	75.17	-0.2471	0.0641	0.3112	1336.3704	0.18135	-461.320757	-461.31079	-461.309846	-461.356785	35.272	
C	 0.0357815377	 1.4301479737	 0.0854913144	-0.2328
O	-0.023973206	 0.0209977627	 0.0208171793	-0.248963
C	 0.7497996736	-0.526359878	-1.0361970441	-0.132616
C	 0.6369305966	-2.0434084939	-1.0142770988	 0.224904
C	 1.0950790007	-2.6444931345	 0.3189460996	-0.119152
O	 0.1835240924	-2.4038296057	 1.3708627817	-0.42796
C	-0.6992373321	-2.6268120471	-1.5321061039	-0.10569
O	-0.0387959337	-3.2720115546	-2.6445599757	-0.272283
C	 1.2369617076	-2.724505754	-2.2688035459	-0.127781
H	 1.0628495176	 1.783792518	 0.2608320903	 0.113673
H	-0.3354229856	 1.8876217817	-0.8433146113	 0.115791
H	-0.5981168964	 1.747014945	 0.9163307129	 0.136393
H	 0.396445624	-0.1282796628	-2.0014241999	 0.097153
H	 1.8065218346	-0.2266501875	-0.9235580873	 0.09308
H	 1.1707162108	-3.7331938658	 0.2183358604	 0.107385
H	 2.1067633606	-2.2703658777	 0.5583910162	 0.078263
H	-0.0085481674	-1.4568729389	 1.349514846	 0.290749
H	-1.1835302778	-3.3424766048	-0.8598718336	 0.118024
H	-1.438896088	-1.8879946865	-1.86493092	 0.097891
H	 1.6349424006	-2.0409727591	-3.0319299265	 0.092694
H	 1.9848911102	-3.5036251	-2.0720828736	 0.101245
34.4461	83.9203	99.6314	140.3375	171.4256	225.6205	249.8369	325.7177	357.0851	366.4331	444.5981	490.5456	546.1756	744.1866	855.2516	917.7275	940.9136	965.6243	973.4464	1005.296	1017.1144	1040.3569	1083.2301	1116.9199	1145.8843	1150.4895	1161.1709	1177.117	1194.0217	1224.1953	1236.112	1302.3303	1316.1334	1322.3683	1371.1639	1389.8092	1422.8762	1464.1555	1482.1171	1486.0228	1500.1506	1508.9208	1514.7767	1525.4419	1541.8761	2941.1965	2951.6461	2984.9354	2988.8818	2994.7687	3022.0655	3035.8428	3037.1755	3058.7396	3077.7257	3124.8651	3752.4776
COCC1(CO)COC1	COCC1(CO)COC1	
InChI=1S/C6H12O3/c1-8-3-6(2-7)4-9-5-6/h7H,2-5H2,1H3	InChI=1S/C6H12O3/c1-8-3-6(2-7)4-9-5-6/h7H,2-5H2,1H3
