21
gdb 73402	2.59993	1.94793	1.49536	1.4651	81.02	-0.2256	0.0856	0.3112	976.8444	0.185309	-387.092572	-387.085285	-387.084341	-387.123703	30.5	
C	 0.0488882004	 1.5480439105	-0.1410303032	-0.496756
C	 0.0184975539	 0.055547946	 0.0410764969	 0.474305
O	 0.4578896953	-0.5961847188	-1.1576014376	-0.325537
C	 0.3657868653	-1.9889946681	-0.807454569	-0.101721
C	-0.1434055491	-1.8776313926	 0.62322392	-0.076562
C	 0.7174218554	-0.7106065952	 1.214197033	-0.066377
C	-0.0108619517	-0.2789096572	 2.4876496761	-0.239718
C	-1.4840756193	-0.3126627081	 1.9659676299	-0.239723
C	-1.2308827154	-0.7552101329	 0.5242754943	-0.066392
H	 1.0641001158	 1.8833579258	-0.3752364148	 0.12744
H	-0.6029803491	 1.8447473954	-0.9686577434	 0.127478
H	-0.2848528001	 2.0645064099	 0.7629839619	 0.119084
H	-0.3293901418	-2.5038749742	-1.4825818387	 0.095757
H	 1.3510784346	-2.4654047974	-0.8874758339	 0.095755
H	-0.3210387937	-2.7969400402	 1.1842549594	 0.063488
H	 1.8068974175	-0.7830547375	 1.2367830524	 0.059399
H	 0.1570292036	-0.9733970825	 3.3162783136	 0.097569
H	 0.2953738893	 0.714973382	 2.8283981043	 0.097773
H	-2.1073665129	-1.0252970839	 2.5144073227	 0.097566
H	-1.9766188319	 0.6629082536	 2.0239029795	 0.097771
H	-2.087943836	-0.8722443644	-0.1424048135	 0.059402
184.4346	228.7636	247.2037	284.9757	330.4565	386.2853	413.8008	595.7888	640.1846	684.8269	694.1998	757.6544	835.5969	897.2122	901.8473	919.0062	929.6699	958.6865	961.4953	998.6078	1006.1335	1011.7173	1030.1818	1034.7569	1090.2664	1110.4352	1166.6657	1171.0073	1176.8832	1221.3127	1232.5079	1234.5994	1255.2457	1264.8688	1286.7788	1319.9548	1323.727	1350.9385	1384.4329	1414.9414	1476.7285	1493.4574	1497.0196	1516.8019	1528.4653	3012.7412	3040.9366	3044.8024	3048.347	3053.6483	3076.4293	3093.4247	3093.6233	3095.8747	3104.6763	3108.0287	3118.0697
CC12OCC3C1CCC23	C[C@@]12OC[C@H]3[C@@H]1CC[C@@H]23	
InChI=1S/C8H12O/c1-8-6-2-3-7(8)5(6)4-9-8/h5-7H,2-4H2,1H3	InChI=1S/C8H12O/c1-8-6-2-3-7(8)5(6)4-9-8/h5-7H,2-4H2,1H3/t5-,6-,7+,8+
