18
gdb 30098	3.60912	1.20025	1.15587	1.3744	79.95	-0.1937	0.0262	0.22	1143.752	0.148095	-401.947582	-401.939487	-401.938542	-401.981405	30.621	
C	-0.057095914	 1.490424767	-0.3396501565	-0.412922
C	 0.0305004246	 0.0023543787	-0.1102785094	 0.010508
C	 1.314211836	-0.7300539806	-0.2802523041	-0.252913
N	 0.7631003088	-0.5425382807	 1.0601309811	-0.193807
C	 1.3936817981	 0.3092831761	 1.9588487845	 0.415186
C	 0.9960749094	 0.7690398781	 3.1788928661	-0.273779
C	 2.0668295046	 1.5875095902	 3.6675115962	-0.164647
C	 3.0366403039	 1.5574729208	 2.7202025631	-0.032092
O	 2.6405799382	 0.7851611579	 1.6627708105	-0.176924
H	 0.9098595399	 1.9770446664	-0.1880414996	 0.136288
H	-0.3873611574	 1.6943516073	-1.3634731487	 0.12278
H	-0.7782776017	 1.9499016288	 0.3446506585	 0.130392
H	-0.8901270804	-0.5458823449	-0.2997586728	 0.097054
H	 1.3239601202	-1.7589571086	-0.6298826415	 0.119484
H	 2.1889360504	-0.1456446583	-0.5503530826	 0.134268
H	 0.0636026933	 0.5363664872	 3.6665048167	 0.105569
H	 2.1083267425	 2.113935152	 4.6084239536	 0.107327
H	 4.0225311638	 1.9835571926	 2.6413602449	 0.128228
22.0531	108.3939	187.9778	224.3008	285.5077	371.8872	458.8701	511.608	581.0499	612.3039	686.6443	727.4554	780.5487	799.78	843.3848	845.4077	896.3217	912.8868	943.2094	1007.1426	1029.3842	1048.9711	1102.8336	1119.0966	1131.0455	1155.5253	1181.6708	1195.8702	1220.3658	1243.7042	1345.1219	1398.9222	1412.3888	1424.3023	1489.768	1495.4533	1511.1312	1547.0347	1637.3241	3037.6577	3099.8723	3111.4178	3115.7005	3134.415	3201.1302	3251.4612	3269.8303	3288.0977
CC1CN1C1=CC=CO1	C[C@H]1CN1c1ccco1	
InChI=1S/C7H9NO/c1-6-5-8(6)7-3-2-4-9-7/h2-4,6H,5H2,1H3	InChI=1S/C7H9NO/c1-6-5-8(6)7-3-2-4-9-7/h2-4,6H,5H2,1H3/t6-,8?/m0/s1
