15
gdb 44920	3.27222	1.51458	1.51365	2.5683	67.91	-0.2711	-0.0008	0.2703	925.0103	0.115689	-453.965562	-453.959105	-453.958161	-453.996421	25.918	
N	-0.0799123848	 1.2804482691	-0.096337869	-0.557827
C	-0.0280406032	 0.0270011116	-0.0180524961	 0.462415
O	 1.1054266117	-0.7546865212	 0.0372266195	-0.262941
C	 0.640192259	-2.137858811	 0.102295821	-0.003392
C	-0.6056087031	-2.1031703074	-0.7991013426	-0.264676
C	-1.1843498576	-0.9523373833	 0.0413645813	-0.003392
O	-1.1580411493	-1.5130451973	 1.3899777434	-0.262942
C	-0.0188993402	-2.2852381849	 1.4600745442	 0.462415
N	 0.3797333981	-2.9584752527	 2.4438391413	-0.557826
H	 0.8576009585	 1.6873006935	-0.1099394177	 0.233302
H	 1.4672649695	-2.8070371692	-0.1082860431	 0.124958
H	-0.3788694269	-1.8292460571	-1.8306824396	 0.135823
H	-1.210682351	-3.0101349898	-0.7554471539	 0.135823
H	-2.17011007	-0.5486801573	-0.1624276089	 0.124958
H	-0.2596627708	-2.8665098031	 3.2358998103	 0.233302
122.2843	209.0795	355.7241	391.0007	438.1728	477.1489	559.4647	672.5082	720.1154	764.1658	781.4279	868.2507	885.1012	894.9202	908.2843	937.5811	947.5144	959.1213	974.1286	996.1109	1066.6356	1077.9376	1122.9611	1199.5147	1247.7189	1251.6283	1288.1557	1293.9723	1345.8907	1355.8939	1482.262	1804.0284	1809.4088	3087.3635	3152.7349	3195.6762	3197.8776	3469.8756	3470.0134
N=C1OC2CC1OC2=N	[NH][C]1O[C@@H]2C[C@H]1O[C]2[NH]	
InChI=1S/C5H6N2O2/c6-4-2-1-3(9-4)5(7)8-2/h2-3,6-7H,1H2	InChI=1S/C5H6N2O2/c6-4-2-1-3(9-4)5(7)8-2/h2-3,6-7H,1H2/t2-,3-/m1/s1
