14
gdb 8752	4.40023	1.42907	1.08601	2.078	70.39	-0.2579	-0.0549	0.203	1023.488	0.105859	-378.713325	-378.704878	-378.703934	-378.746492	29.408	
C	 0.0106250579	 1.5037118923	 0.0627304136	-0.334436
N	 0.0121117904	 0.0445596686	 0.0114373111	-0.118535
C	 0.0727851987	-0.6466979292	 1.2197438749	 0.095269
N	 0.1245705327	-0.0111510526	 2.3198366364	-0.475282
C	-0.0431147355	-0.6931689255	-1.16547214	 0.323135
O	-0.0409442578	-1.9089833168	-1.1895598839	-0.349376
C	-0.1053134454	 0.0707108209	-2.4007051071	 0.177999
C	-0.1593757885	 0.5945907197	-3.4820079958	-0.368764
H	 0.9178109456	 1.8580393254	 0.5580718458	 0.15185
H	-0.0397127228	 1.8978119874	-0.9499229777	 0.148997
H	-0.8461124916	 1.8532274864	 0.6438817454	 0.15185
H	 0.0687797878	-1.7266065184	 1.0767949584	 0.148135
H	 0.164209479	-0.6674274825	 3.0977914975	 0.233658
H	-0.2071320006	 1.0590066343	-4.4371007287	 0.215503
69.3693	109.3673	161.7269	171.7622	268.0385	285.3114	316.6215	358.4376	489.4831	528.0837	659.1375	662.9192	694.683	758.746	785.2823	842.2389	993.9692	1089.3171	1125.3622	1159.2544	1173.4181	1344.779	1367.2539	1413.2968	1461.1806	1476.0892	1516.4159	1707.5667	1747.3171	2222.2915	3061.5678	3122.2947	3146.239	3179.3308	3494.0221	3504.702	69.3695	109.3666	161.727	171.7626	268.039	285.3114	316.6219	358.4376	489.4831	528.0838	659.1382	662.9192	694.6838	758.7463	785.2822	842.2389	993.9692	1089.317	1125.3624	1159.2546	1173.4179	1344.7789	1367.2538	1413.2967	1461.1809	1476.0896	1516.416	1707.5669	1747.3167	2222.2916	3061.5678	3122.2947	3146.2391	3179.3308	3494.022	3504.7023
CN(C=N)C(=O)C#C	CN(C=N)C(=O)C#C	
InChI=1S/C5H6N2O/c1-3-5(8)7(2)4-6/h1,4,6H,2H3	InChI=1S/C5H6N2O/c1-3-5(8)7(2)4-6/h1,4,6H,2H3
