19
gdb 57789	3.56186	0.70669	0.62379	2.383	82.8	-0.2529	0.0132	0.266	1808.5785	0.155897	-422.977045	-422.966619	-422.965675	-423.014385	36.622	
C	-0.0498417057	 1.6343733638	 0.3209293135	-0.385928
C	-0.0092766647	 0.1599513644	-0.1056875456	-0.025313
O	 0.8700487179	-0.6024920869	 0.7183755244	-0.41164
C	-1.3541039823	-0.4240741497	-0.1539392569	 0.125897
C	-2.457888735	-0.9097068722	-0.1594902146	 0.049331
C	-3.7844281148	-1.4634658166	-0.1621079274	-0.16491
O	-4.1324343767	-2.3629675651	-1.2316553412	-0.240882
C	-4.0461356904	-2.9024477854	 0.0840658368	 0.097351
C	-2.9546640457	-3.9027195622	 0.3532206465	-0.426593
H	 0.9681600679	 2.0311812243	 0.349013033	 0.127664
H	-0.6470969119	 2.2264326889	-0.3784121016	 0.128219
H	-0.4946021602	 1.7334108874	 1.3165398822	 0.116686
H	 0.4343049613	 0.096027357	-1.1067756679	 0.124349
H	 0.4563999827	-0.6808694461	 1.5853344436	 0.281897
H	-4.5780689548	-0.7596961286	 0.0892027182	 0.111623
H	-5.0178631679	-3.1388810694	 0.5234525716	 0.093318
H	-1.9994003151	-3.5536257244	-0.0438727657	 0.145865
H	-2.8496682268	-4.0691357537	 1.4306486941	 0.121704
H	-3.1998246277	-4.8624197055	-0.1130642832	 0.131361
14.5881	65.2604	98.5209	154.7115	178.7563	212.4712	248.2354	289.1954	326.3882	378.4714	398.7919	480.2994	542.8203	554.509	616.0997	735.5113	781.8311	840.4018	901.1841	951.5636	997.4196	1029.9912	1068.8464	1082.7725	1098.7542	1149.4441	1164.1679	1196.9232	1282.4818	1288.5997	1334.9791	1377.3017	1398.9195	1412.7035	1416.6533	1446.7124	1485.9397	1487.2532	1490.8061	1496.8389	2352.6582	3037.7607	3040.6117	3041.9097	3082.8746	3103.8313	3107.6203	3114.3956	3128.7525	3139.4394	3803.8216
CC(O)C#CC1OC1C	C[C@@H](O)C#C[C@H]1O[C@H]1C	
InChI=1S/C7H10O2/c1-5(8)3-4-7-6(2)9-7/h5-8H,1-2H3	InChI=1S/C7H10O2/c1-5(8)3-4-7-6(2)9-7/h5-8H,1-2H3/t5-,6+,7-/m1/s1
