15
gdb 48577	5.31121	0.94655	0.9258	0.5897	67.92	-0.2603	-0.0582	0.2021	1232.8435	0.10898	-457.699603	-457.691132	-457.690188	-457.734214	29.577	
O	-0.3974001625	 0.4947112397	-0.5669793841	-0.240225
C	 0.1835881018	 1.1086507789	 0.2894022811	 0.037946
C	 1.4065857676	 1.927552231	 0.0204782409	 0.308337
C	 2.8939762582	 1.4581477748	-0.0277761243	-0.282039
C	 2.8289363289	 3.0053433323	-0.0341353036	 0.308333
C	 1.7019943677	 2.9420153302	-1.1116223519	-0.28204
O	 1.7882754755	 2.9534136424	 1.0222556618	-0.368164
C	 3.9201650392	 4.0189998266	 0.1085714626	 0.037942
O	 4.9647965572	 3.9476510382	-0.4843141498	-0.240234
H	-0.1340422321	 1.1046491308	 1.3547198911	 0.104288
H	 3.2688395163	 1.0179622887	 0.8959093831	 0.126555
H	 3.2386381616	 0.9524891431	-0.9299751955	 0.129227
H	 1.9616850008	 2.5544754783	-2.0969228635	 0.129226
H	 1.0397120168	 3.8069921677	-1.1376480575	 0.126556
H	 3.6755743731	 4.8539845173	 0.8005128897	 0.104293
45.2253	45.613	119.475	169.2917	242.2647	290.0662	384.4364	516.2399	519.0272	588.689	668.9708	713.2718	768.1009	788.4108	919.3187	937.2428	982.1913	987.922	1036.0802	1077.9239	1093.168	1131.6802	1133.188	1159.8514	1165.5245	1238.6884	1346.153	1398.566	1408.0848	1465.2501	1511.6164	1825.6339	1828.511	2902.553	2904.2149	3085.6352	3091.239	3170.9039	3176.3222
O=CC12CC(C1)(O2)C=O	O=C[C@@]12C[C@@](C1)(O2)C=O	
InChI=1S/C6H6O3/c7-3-5-1-6(2-5,4-8)9-5/h3-4H,1-2H2	InChI=1S/C6H6O3/c7-3-5-1-6(2-5,4-8)9-5/h3-4H,1-2H2/t5-,6+
