17
gdb 101959	1.55384	1.44666	1.33852	1.9325	81.13	-0.2549	-0.0394	0.2155	1174.7099	0.130641	-384.625963	-384.61564	-384.614696	-384.66125	36.91	
C	-0.1923749558	 1.4541560981	 0.1286458515	-0.403715
C	-0.1015450029	-0.0453406696	-0.1478124359	-0.194208
C	 0.7221169767	-0.399551166	-1.415333403	-0.209439
C	 0.7614920218	-1.948642721	-1.6194325608	 0.152516
O	 0.2255514962	-2.7310532131	-0.8896078147	-0.235516
C	 0.1157741295	 0.1445166644	-2.6357659825	 0.330444
C	-0.4109306245	 0.5222688806	-3.6477396905	-0.458154
C	 2.1233750668	 0.0191711297	-1.2961485689	 0.330459
C	 3.2880659968	 0.2913695849	-1.1794996619	-0.458155
H	 0.7995899794	 1.8900894098	 0.279916043	 0.129426
H	-0.6711973848	 1.9819472526	-0.7014642853	 0.129426
H	-0.7831031897	 1.6362480746	 1.0310033174	 0.118625
H	 0.3605504273	-0.5688724575	 0.6938158236	 0.121241
H	-1.0973721173	-0.477848143	-0.2790083862	 0.121246
H	 1.339703537	-2.2545905366	-2.5142395279	 0.110675
H	-0.8673381971	 0.8800491624	-4.5378102864	 0.207564
H	 4.3120501404	 0.5567677898	-1.0817193916	 0.207564
71.4795	95.0908	117.9183	140.7111	173.0866	201.1658	233.7521	270.4733	339.468	438.783	472.882	497.5461	559.9806	606.8019	642.8738	644.9995	652.1345	653.3258	697.905	785.7898	944.6081	956.2443	1009.2331	1042.6957	1100.3678	1142.3542	1195.524	1311.0285	1356.5626	1405.1726	1415.1335	1475.6452	1498.6715	1508.2046	1842.5384	2228.9069	2234.0634	2935.6788	3043.8941	3063.2637	3101.0203	3114.9594	3123.6913	3499.2103	3500.029
CCC(C=O)(C#C)C#C	CCC(C=O)(C#C)C#C	
InChI=1S/C8H8O/c1-4-8(5-2,6-3)7-9/h1-2,7H,6H2,3H3	InChI=1S/C8H8O/c1-4-8(5-2,6-3)7-9/h1-2,7H,6H2,3H3
