17
gdb 78814	2.43231	1.74324	1.46181	1.5247	66.98	-0.2443	0.068	0.3123	955.2357	0.135635	-458.903685	-458.89592	-458.894976	-458.935349	31.381	
O	-0.1404121181	 1.4873851147	-0.0606364439	-0.441555
C	-0.0464192809	 0.0815462727	-0.0606392256	 0.083741
C	-1.3543842629	-0.692855278	-0.1481593249	-0.0897
C	-1.7301544081	-0.8412229017	-1.6243362066	-0.116612
C	-0.7217269836	-1.7785824322	-0.9866097539	-0.220415
C	 0.3528235651	-0.6377021139	-1.3622025773	 0.326346
O	 1.6717973162	-0.7692314648	-1.7197055916	-0.485771
C	-0.6527596971	-0.1259471759	-2.4265850663	 0.083075
O	-0.3647247281	-0.6979209316	-3.6951722811	-0.459667
H	 0.7525942024	 1.8448608158	-0.0156207424	 0.287913
H	 0.5536210102	-0.2878911648	 0.7831161786	 0.076527
H	-2.0971646888	-0.8123790584	 0.6285290404	 0.096458
H	-2.7496497346	-1.0502909403	-1.922791146	 0.094006
H	-0.6881256713	-2.8473300385	-0.8388559064	 0.099189
H	 1.6738345315	-0.8770042234	-2.6830845847	 0.285591
H	-0.7165822262	 0.9540793127	-2.5768523779	 0.096753
H	-0.5798330756	-1.6377455923	-3.6415031704	 0.28412
168.158	214.7108	231.0127	259.5562	295.944	374.7792	406.8078	436.0045	542.1614	596.6741	603.091	687.5468	713.3672	774.5185	820.8094	833.961	906.106	937.9782	944.3922	984.7454	1000.8844	1022.5005	1034.0859	1067.9262	1104.642	1135.4076	1151.9024	1184.7701	1234.1854	1261.8401	1277.1073	1289.3703	1348.5165	1370.4805	1400.59	1422.6609	1443.1227	3009.3937	3096.362	3195.9616	3212.4317	3235.2513	3713.2942	3775.9735	3815.8141
OC1C2C3C2C1(O)C3O	O[C@H]1[C@H]2[C@@H]3[C@H]2[C@@]1(O)[C@H]3O	
InChI=1S/C6H8O3/c7-4-1-2-3(1)6(4,9)5(2)8/h1-5,7-9H	InChI=1S/C6H8O3/c7-4-1-2-3(1)6(4,9)5(2)8/h1-5,7-9H/t1-,2+,3-,4-,5-,6-/m0/s1
