19
gdb 88191	3.36102	1.22252	1.06091	1.8654	79.12	-0.2288	0.0204	0.2493	1178.292	0.15978	-423.006911	-422.998715	-422.997771	-423.039508	32.049	
O	-0.1385795313	 1.4353566469	-0.1045015683	-0.421785
C	-0.0453734147	 0.0413357508	-0.0235738267	 0.05338
C	-0.4531703131	-0.6654158787	 1.23817465	-0.373706
C	-1.3480209456	-0.715048249	-0.0001311385	 0.289478
C	-2.6441434288	 0.079901099	-0.0155329996	-0.156462
O	-3.7541469631	-0.7646674666	 0.2461032022	-0.248356
C	-3.9372964128	-1.7462311411	-0.7548389915	-0.123804
C	-2.6606788315	-2.4463528757	-1.1358032393	-0.102198
C	-1.4700482223	-1.9825908058	-0.7581933712	-0.116774
H	 0.5359853969	 1.8127710346	 0.4698109375	 0.289641
H	 0.7678287213	-0.3938450748	-0.6067212476	 0.085973
H	 0.080121643	-1.5636570803	 1.5308068017	 0.112928
H	-0.8039361509	-0.0503400953	 2.0607737467	 0.118544
H	-2.6533493802	 0.8550884682	 0.7518539339	 0.109762
H	-2.760477782	 0.5720377687	-0.9947045481	 0.096694
H	-4.6591697599	-2.4636957867	-0.3464702286	 0.115058
H	-4.4059679163	-1.3026571375	-1.6541091847	 0.095305
H	-2.7519401066	-3.3516899467	-1.729316988	 0.091826
H	-0.556429962	-2.5166973402	-1.0091818498	 0.084496
88.6402	165.3931	200.7067	258.2884	290.2034	334.8093	382.9945	448.8681	481.227	498.3977	564.3443	689.307	715.3371	800.1072	860.5803	901.4195	924.7921	946.1739	975.7991	985.7181	1008.2121	1025.0196	1043.6272	1062.8523	1108.3416	1125.7732	1171.6982	1195.9601	1239.4886	1278.5769	1285.6019	1317.2184	1339.5811	1368.7538	1408.4031	1413.0947	1437.1521	1478.8239	1485.5823	1498.0837	1715.5553	2922.8832	2976.9401	3048.3184	3084.1886	3115.357	3126.101	3144.9649	3174.5862	3217.4042	3804.163
OC1CC11COCC=C1	O[C@H]1C[C@]21COCC=C2	
InChI=1S/C7H10O2/c8-6-4-7(6)2-1-3-9-5-7/h1-2,6,8H,3-5H2	InChI=1S/C7H10O2/c8-6-4-7(6)2-1-3-9-5-7/h1-2,6,8H,3-5H2/t6-,7-/m0/s1
