12
gdb 21413	3.36597	2.5034	1.43565	2.5692	61.18	-0.2486	-0.0495	0.1991	781.7417	0.085816	-410.821531	-410.815086	-410.814142	-410.852414	23.884	
N	-0.1033388141	 1.2492856339	-0.405407678	-0.507559
C	 0.0000947215	 0.0369379809	-0.0514808711	 0.330327
N	-1.1176339916	-0.6822660455	 0.3413965838	-0.346721
C	-1.0414461051	-1.9877246114	 0.7279772399	 0.137675
N	 0.0136766639	-2.7118390085	 0.7852653142	-0.123098
O	 1.2180933468	-2.063232498	 0.4004581152	-0.288231
C	 1.2692183564	-0.7587486228	-0.0055365577	 0.369732
N	 2.3571654566	-0.2103310247	-0.3416579944	-0.507968
H	 0.823416926	 1.5971361437	-0.655324834	 0.256348
H	-2.0011022043	-0.1942782305	 0.329531475	 0.277394
H	-1.9661610953	-2.4728677203	 1.0195006801	 0.160206
H	 3.1393958391	-0.8615713667	-0.2642688629	 0.241895
97.7546	128.0109	350.8661	409.8723	487.7735	536.9187	539.1513	546.6176	616.1031	723.6899	771.8065	880.1898	898.4009	906.6724	924.4252	974.4684	1054.6624	1079.0858	1178.615	1282.1397	1347.0338	1431.6999	1487.9202	1711.5778	1741.9266	1746.0854	3209.7733	3489.8283	3492.8898	3622.9165
N=C1NC=NOC1=N	[NH]C1=C(ON=CN1)[NH]	
InChI=1S/C3H4N4O/c4-2-3(5)8-7-1-6-2/h1,5H,(H2,4,6,7)	InChI=1S/C3H4N4O/c4-2-3(5)8-7-1-6-2/h1,5H,(H2,4,6,7)
