18
gdb 35994	4.97254	0.55571	0.54187	1.419	86.54	-0.2456	0.0352	0.2808	2046.6583	0.145874	-364.715886	-364.7061	-364.705155	-364.75266	34.595	
C	 0.1076621951	-1.0068545654	-0.8176194759	-0.446293
C	 0.0949250553	 0.0994705983	-0.3516958046	 0.31798
C	 0.0644865371	 1.448330892	 0.2179672696	-0.490121
C	 1.3922204586	 2.0411503119	 0.3918027252	 0.096561
C	 2.4823401967	 2.5285903897	 0.5360133139	 0.072416
C	 3.8007861867	 3.1384510613	 0.692218792	-0.390279
C	 3.9098092537	 4.5053876329	 0.0327147154	 0.049204
C	 5.2022287941	 4.944266467	-0.5461243835	-0.248446
N	 4.0601321119	 4.6209601152	-1.4216523454	-0.305501
H	 0.1228667536	-1.9849859917	-1.2303328946	 0.199953
H	-0.5447674705	 2.0980855028	-0.4255896714	 0.163024
H	-0.4566932787	 1.4198090036	 1.1849638221	 0.159741
H	 4.0400374769	 3.2338678725	 1.7601306013	 0.134715
H	 4.5656849557	 2.4723241739	 0.2691924801	 0.123856
H	 3.2468805567	 5.2560920754	 0.4574664215	 0.10134
H	 5.485139787	 5.9928633205	-0.5291629231	 0.120576
H	 6.039247185	 4.2513182946	-0.499481599	 0.109615
H	 4.1833591653	 3.6974409054	-1.8312318436	 0.23166
19.5085	57.441	80.1903	122.2587	214.4502	278.9777	320.5444	341.4496	374.9487	385.3605	499.2166	561.7115	621.7385	648.4166	780.087	801.1548	830.581	923.9001	932.5875	935.0693	951.9922	976.6803	1051.5055	1124.6994	1149.3156	1159.3243	1177.8151	1231.0158	1247.267	1267.602	1311.9054	1326.2671	1335.8503	1421.6667	1453.3577	1463.2923	1513.4528	2247.2199	2378.0035	3007.072	3007.8177	3031.855	3038.8678	3105.6789	3133.1635	3190.4373	3492.0066	3506.7072
C#CCC#CCC1CN1	C#CCC#CC[C@H]1CN1	
InChI=1S/C8H9N/c1-2-3-4-5-6-8-7-9-8/h1,8-9H,3,6-7H2	InChI=1S/C8H9N/c1-2-3-4-5-6-8-7-9-8/h1,8-9H,3,6-7H2/t8-/m0/s1
