21
gdb 85879	1.99382	1.59529	1.15373	1.9588	84.95	-0.2454	0.0491	0.2945	1187.2826	0.179312	-387.05382	-387.043761	-387.042817	-387.087942	38.608	
C	-0.2667256359	 1.5219169081	-0.0674960782	-0.400738
C	-0.0326605717	 0.0167650551	-0.0399028419	 0.000692
C	 1.1536540158	-0.4762795078	-0.9189532465	-0.288894
C	 2.0497060465	-0.5824994505	 0.3521264952	 0.400987
C	 2.9371133362	-1.8069061869	 0.5122644067	-0.454566
O	 2.7827860159	 0.6104415953	 0.5854040863	-0.462028
C	 0.7428490606	-0.524692656	 1.2188609222	-0.229538
C	 0.7398806256	 0.222268691	 2.4570183511	 0.363371
C	 0.7129493133	 0.838525309	 3.4895216366	-0.466671
H	 0.6678164151	 2.0642138479	 0.0964856304	 0.138613
H	-0.6780103723	 1.8240201405	-1.0371924018	 0.103744
H	-0.9730776208	 1.8239091928	 0.7118573871	 0.12048
H	-0.974668495	-0.510052109	-0.2152549338	 0.070603
H	 0.9659155337	-1.4488363383	-1.3826624581	 0.094519
H	 1.5128327952	 0.2184244936	-1.6833940274	 0.092641
H	 3.7437239409	-1.7994764707	-0.2319729634	 0.106192
H	 3.3925910128	-1.8158495265	 1.507260836	 0.133779
H	 2.3704715443	-2.7332049883	 0.3760559478	 0.11416
H	 3.4839923617	 0.6547182308	-0.0741617083	 0.275852
H	 0.422211342	-1.5536674074	 1.4157729936	 0.097231
H	 0.7032828461	 1.3876865273	 4.3979747064	 0.18957
87.5824	126.9439	162.8193	217.7533	240.0161	251.4486	273.493	321.6336	347.7777	360.6882	401.9261	410.8964	537.5744	578.8809	614.9638	631.7383	662.3206	772.2007	815.2849	840.7127	901.1049	919.3618	966.64	992.155	1026.3774	1077.1119	1083.4333	1110.9234	1165.8276	1187.1233	1205.1596	1233.7754	1277.9128	1285.0614	1332.3696	1367.9514	1372.0488	1406.0759	1409.8416	1471.0946	1488.4862	1491.0985	1491.9137	1504.786	2232.5876	3021.6293	3034.2985	3040.6782	3049.5589	3064.1313	3088.9497	3100.1321	3106.408	3115.1216	3127.5639	3504.9329	3798.4637
CC1CC(C)(O)C1C#C	C[C@H]1C[C@@](C)(O)[C@H]1C#C	
InChI=1S/C8H12O/c1-4-7-6(2)5-8(7,3)9/h1,6-7,9H,5H2,2-3H3	InChI=1S/C8H12O/c1-4-7-6(2)5-8(7,3)9/h1,6-7,9H,5H2,2-3H3/t6-,7-,8+/m0/s1
