17
gdb 18572	3.98471	1.91174	1.55833	3.7724	68.45	-0.2445	0.0218	0.2663	858.3724	0.14384	-363.847804	-363.840935	-363.839991	-363.878695	26.688	
C	-0.2681030597	 1.5050858733	-0.2277960259	-0.393066
C	 0.0182623495	 0.0368194971	-0.0191024287	 0.082893
O	 1.287896345	-0.3614532836	-0.715528115	-0.287657
C	 1.867826086	-0.487321999	 0.5130750929	 0.432543
N	 3.0124535975	-0.2761554164	 0.9997662075	-0.310742
C	 2.7132318574	-0.1041872102	 2.4556367788	-0.15346
C	 1.1959454459	 0.3237531054	 2.5480675233	-0.267114
C	 0.6341417087	-0.4449654501	 1.3418015468	-0.150955
H	 0.5616306745	 2.1242922557	 0.1240460687	 0.137618
H	-0.4250277261	 1.7149092234	-1.2894252749	 0.138705
H	-1.1737577213	 1.789661168	 0.3177808317	 0.12702
H	-0.792475867	-0.5983171492	-0.3826876734	 0.099412
H	 2.9004739294	-1.0355333985	 3.0066003304	 0.107389
H	 3.38114878	 0.6573858923	 2.8661763391	 0.11474
H	 0.7311683874	 0.0665421133	 3.5027610518	 0.104505
H	 1.1185504056	 1.4070702493	 2.4108933588	 0.113748
H	 0.2396443271	-1.4271774007	 1.614635638	 0.104423
115.1274	214.6812	238.0132	265.695	402.0025	447.4932	505.6432	610.382	680.729	746.3751	781.5167	794.5607	851.8246	896.1761	927.8886	993.7676	1012.0024	1022.038	1048.2326	1115.8955	1136.0555	1162.1358	1188.7015	1206.3148	1232.7698	1287.9205	1304.3059	1343.3237	1352.9642	1369.9632	1415.0555	1480.8104	1481.7486	1497.5301	1502.3709	1771.0385	3020.5489	3043.2385	3058.2328	3072.8776	3089.3805	3093.7669	3114.6701	3116.4298	3126.3973
CC1OC2=NCCC12	C[C@H]1O[C]2[N]CC[C@@H]12	
InChI=1S/C6H9NO/c1-4-5-2-3-7-6(5)8-4/h4-5H,2-3H2,1H3	InChI=1S/C6H9NO/c1-4-5-2-3-7-6(5)8-4/h4-5H,2-3H2,1H3/t4-,5+/m1/s1
