19
gdb 68373	2.91207	1.53064	1.20894	2.5149	74.7	-0.2406	-0.0175	0.2232	1067.9612	0.159272	-423.051222	-423.043319	-423.042375	-423.083529	31.367	
C	-0.1184798906	 1.5417222048	 0.0314032131	-0.466819
C	 0.0784027545	 0.0465651439	-0.0541591739	 0.392228
C	 0.6662398069	-0.5853671293	-1.3402474836	-0.301277
C	-0.4226932692	-1.6426241628	-1.0761791064	 0.085954
C	 0.0630440283	-2.7328102706	-0.1234828793	-0.311678
C	 0.8591610412	-2.1061869259	 1.028801484	 0.380436
O	 1.5629655128	-2.762301729	 1.7566117248	-0.309329
C	 0.7143653617	-0.5863763361	 1.190730116	-0.337743
O	-1.1745086702	-0.6751028372	-0.2937715228	-0.328422
H	 0.8458397833	 2.0519106288	 0.126039892	 0.122184
H	-0.6247048177	 1.9117087708	-0.8642058821	 0.124873
H	-0.7280061352	 1.800658984	 0.9035632578	 0.128345
H	 0.4536545187	 0.0180319276	-2.2242553329	 0.111089
H	 1.7133318612	-0.8992644101	-1.3379604058	 0.106016
H	-0.9996435089	-2.0301586385	-1.9192566762	 0.082739
H	-0.8000072151	-3.2578995774	 0.3031709262	 0.13839
H	 0.6915399635	-3.4832954323	-0.6145166928	 0.124686
H	 1.7008328391	-0.1703762154	 1.4217235263	 0.123329
H	 0.0704017257	-0.3981919851	 2.0587946156	 0.135001
69.7805	197.6029	231.1073	263.2594	372.9553	377.9485	400.5575	467.7454	484.1907	497.3723	636.254	668.1794	765.7099	799.7207	850.764	864.1975	908.4756	920.713	940.1338	971.7934	1020.0969	1040.1982	1062.0428	1103.4666	1170.3448	1176.5675	1209.5547	1223.6676	1240.9748	1266.7493	1305.7857	1319.9748	1342.745	1369.3905	1410.3048	1436.2942	1439.2723	1480.6159	1490.6783	1496.133	1823.2327	3034.82	3038.7498	3042.5264	3064.4198	3081.7635	3087.0768	3090.7186	3106.4595	3118.9183	3130.5119
CC12CC(CC(=O)C1)O2	C[C@@]12C[C@@H](CC(=O)C1)O2	
InChI=1S/C7H10O2/c1-7-3-5(8)2-6(4-7)9-7/h6H,2-4H2,1H3	InChI=1S/C7H10O2/c1-7-3-5(8)2-6(4-7)9-7/h6H,2-4H2,1H3/t6-,7+/m1/s1
