19
gdb 22307	2.96347	1.21634	1.01811	2.816	84.51	-0.1867	-0.0075	0.1793	1219.0691	0.160554	-419.19154	-419.18287	-419.181926	-419.224532	33.67	
C	-0.187912913	 1.525856146	 0.0748028749	-0.384564
C	 0.026673393	 0.0073152547	-0.0113724942	 0.005365
C	 0.8290792157	-0.4091668441	-1.2570448027	-0.283188
C	 2.2823246165	-0.0025249465	-1.1428773627	 0.353412
C	 2.8806793714	-0.1623856248	 0.1643779328	-0.188561
C	 2.0882989909	-0.4198799172	 1.2311309289	-0.005478
N	 0.7199087035	-0.5198528195	 1.1698663504	-0.292086
N	 2.8529605577	 0.3941827323	-2.2265263014	-0.243745
O	 4.2153948575	 0.6930139291	-2.0123298861	-0.403398
H	 0.767648872	 2.0556863922	 0.1181981735	 0.142326
H	-0.7377771228	 1.8837466654	-0.8016269979	 0.120832
H	-0.7676916551	 1.7869672049	 0.9664093935	 0.104826
H	-0.9522316908	-0.4834778287	-0.0557996612	 0.083703
H	 0.7784992659	-1.5017941614	-1.347546713	 0.117748
H	 0.3884845099	 0.0186876556	-2.15997762	 0.116596
H	 3.9518808183	-0.0954909469	 0.2790602737	 0.104946
H	 2.511717729	-0.5841049885	 2.2174783407	 0.11128
H	 0.2302746278	-0.4169784542	 2.0450107248	 0.239694
H	 4.5014023428	 0.9465456314	-2.895245934	 0.30029
90.7464	141.9688	222.7032	239.6486	277.9722	323.7478	370.0271	380.9458	416.9254	477.0612	500.0278	585.7164	617.9338	659.1363	784.0107	789.2415	830.8117	874.627	933.779	955.053	961.7504	983.15	1055.9312	1078.8669	1103.6947	1152.0241	1228.8166	1246.0301	1272.5406	1312.5849	1352.3036	1372.3162	1401.1267	1406.117	1433.0616	1470.2142	1485.9782	1494.5484	1518.7864	1667.8208	1694.7916	3025.028	3034.3478	3040.9228	3101.449	3112.1783	3121.7113	3177.2877	3249.3073	3618.8009	3829.6248
CC1CC(C=CN1)=NO	C[C@H]1CC(=NO)C=CN1	
InChI=1S/C6H10N2O/c1-5-4-6(8-9)2-3-7-5/h2-3,5,7,9H,4H2,1H3	InChI=1S/C6H10N2O/c1-5-4-6(8-9)2-3-7-5/h2-3,5,7,9H,4H2,1H3/t5-/m0/s1
