18
gdb 19735	3.86061	2.40549	2.20348	1.6018	69.62	-0.2351	0.0941	0.3292	719.8219	0.158456	-347.796047	-347.790582	-347.789637	-347.825227	23.751	
C	-0.0324282243	 1.5684988179	 0.0412199719	-0.238398
C	 1.5146527353	 1.4237142008	 0.016515145	-0.039275
C	 1.7598476725	 0.8071914934	 1.4103864487	-0.232792
C	 0.845866772	-0.4394021091	 1.2288462673	 0.114371
O	 1.6380608745	-1.5224879683	 0.7353833979	-0.273251
C	 2.1294597387	-1.092357277	-0.5447844189	-0.114863
C	 1.2882148659	 0.139060736	-0.870020099	-0.026978
C	 0.0066219678	 0.0238092024	 0.0082049918	-0.039663
H	-0.4856667177	 2.0690614997	 0.9025425382	 0.08901
H	-0.4382483867	 1.9832365186	-0.8850141336	 0.097379
H	 2.1654359721	 2.2371059749	-0.3055639626	 0.060463
H	 2.7898873784	 0.5000627744	 1.606900478	 0.103695
H	 1.4380683742	 1.4779404012	 2.212942147	 0.093198
H	 0.3133055184	-0.7901608329	 2.1125269959	 0.073258
H	 3.2054895834	-0.8734645006	-0.4918914482	 0.093927
H	 1.9837652756	-1.903607971	-1.2680682586	 0.101538
H	 1.131368669	 0.350900894	-1.9276842605	 0.072597
H	-0.8443354693	-0.5973726144	-0.2697577603	 0.065782
256.8005	360.2598	414.9505	483.4316	578.1981	692.8305	740.0802	794.1983	825.8877	847.6215	878.9771	900.5904	922.4671	947.3704	960.182	975.5734	994.5657	1018.4415	1041.4982	1067.095	1070.9513	1098.1111	1121.3095	1160.4902	1191.8783	1196.5226	1227.5957	1236.4656	1255.8225	1271.3398	1298.9913	1312.5609	1324.9525	1340.756	1382.4782	1493.0636	1513.7117	1525.0069	2999.5925	3045.9421	3047.5078	3054.1748	3104.2414	3105.8126	3109.7209	3115.1053	3119.6187	3129.3187
C1C2CC3OCC2C13	C1[C@H]2C[C@@H]3OC[C@H]2[C@H]13	
InChI=1S/C7H10O/c1-4-2-7-5(1)6(4)3-8-7/h4-7H,1-3H2	InChI=1S/C7H10O/c1-4-2-7-5(1)6(4)3-8-7/h4-7H,1-3H2/t4-,5-,6+,7-/m0/s1
