21
gdb 113897	4.01422	0.71817	0.66222	3.4287	80.29	-0.2477	-0.0136	0.2341	1772.4446	0.178943	-424.234454	-424.223874	-424.22293	-424.271816	36.959	
C	 0.0108815937	 1.3978642281	-0.4412243984	-0.374738
C	-0.0822592238	 0.1657359364	 0.467456809	-0.213589
C	-1.4019026328	-0.5521540672	 0.3047630156	 0.06813
O	-1.5992617238	-1.3067520337	-0.8990030035	-0.265498
C	-1.5896323162	-2.0098408698	 0.3509995242	 0.066168
C	-0.471161028	-3.0026009368	 0.562826584	-0.349903
C	-0.8837416402	-4.4419857535	 0.2396767052	 0.390919
C	 0.2488852128	-5.4041510127	-0.0605594829	-0.477254
O	-2.0409130413	-4.7902586749	 0.2461795752	-0.290825
H	 0.9674065179	 1.9125492765	-0.311862661	 0.112968
H	-0.0827569592	 1.1066156735	-1.4915086568	 0.135092
H	-0.7879830618	 2.1138213695	-0.2197059501	 0.117045
H	 0.7455760631	-0.5163288745	 0.2510585558	 0.098943
H	 0.0200587095	 0.4670112539	 1.5184476494	 0.100705
H	-2.26960604	 0.056192026	 0.5751806718	 0.085604
H	-2.5652930759	-2.390527392	 0.6498694774	 0.111634
H	 0.4122047068	-2.727076056	-0.0196525085	 0.124162
H	-0.1587905366	-3.0043037938	 1.6184365929	 0.132873
H	 1.0353846794	-5.3310425631	 0.6986323912	 0.13473
H	-0.1300604955	-6.4254015913	-0.1128785893	 0.144512
H	 0.708333202	-5.1372638847	-1.0198451211	 0.148323
36.2762	44.217	80.8953	110.4945	141.2559	192.7154	219.8431	263.7678	327.5441	423.7109	454.019	479.5604	534.8642	597.0084	747.1626	800.1222	814.4296	827.6367	884.2966	941.9265	955.2227	991.6203	1036.5815	1054.2427	1109.9248	1114.1846	1167.0871	1174.3452	1187.2873	1230.1375	1295.3742	1307.0214	1321.1225	1347.5937	1383.3967	1407.833	1415.3135	1434.3678	1462.6108	1475.0466	1476.7661	1496.7941	1498.7857	1510.4527	1817.4658	3007.8852	3026.4915	3034.6979	3037.5336	3064.531	3082.4204	3094.0332	3097.9003	3108.5628	3117.5691	3129.9488	3153.0067
CCC1OC1CC(C)=O	CC[C@H]1O[C@H]1CC(=O)C	
InChI=1S/C7H12O2/c1-3-6-7(9-6)4-5(2)8/h6-7H,3-4H2,1-2H3	InChI=1S/C7H12O2/c1-3-6-7(9-6)4-5(2)8/h6-7H,3-4H2,1-2H3/t6-,7+/m1/s1
