19
gdb 79636	2.17126	1.9478	1.59556	3.081	73.08	-0.2319	0.0658	0.2978	958.6502	0.160584	-422.997062	-422.989543	-422.988599	-423.028611	30.705	
C	 0.0177677515	 1.5848482719	-0.0592895115	-0.398247
C	 0.0533211012	 0.0507310693	-0.000368586	-0.034231
C	 0.6946235094	-0.6214846903	-1.2122194048	 0.024932
O	 2.0994616202	-0.3658464054	-1.4059383406	-0.28194
C	 1.6902578759	-1.6045263454	-0.7614535037	 0.032722
C	 1.768945236	-1.6078481489	 0.7454245947	-0.155836
C	 2.2559800295	-0.3528248258	 1.4499359355	 0.129882
O	 3.0627520908	 0.6189851825	 0.8757786528	-0.428232
C	 0.7747162234	-0.5359504655	 1.2266862612	-0.131405
H	 1.028766417	 1.9967096072	-0.05417244	 0.14216
H	-0.5011332724	 1.934679552	-0.9578720226	 0.110142
H	-0.5098993912	 1.9881300264	 0.8101878867	 0.118117
H	-0.9804967266	-0.3208410941	 0.0240608168	 0.083579
H	 0.1352598817	-0.7092579744	-2.1409100389	 0.101362
H	 1.9442614808	-2.4984417794	-1.3224629251	 0.107988
H	 1.8766156989	-2.5736803569	 1.2263186624	 0.087026
H	 2.5587857607	-0.5126184793	 2.481884923	 0.103789
H	 2.9464471437	 0.539914048	-0.0838646123	 0.302889
H	 0.1645477595	-0.7022153718	 2.1093591726	 0.085303
146.1323	184.0066	225.8787	289.9796	305.2485	384.4205	498.6883	556.075	630.8426	642.7967	694.6406	721.5409	732.5118	761.9143	817.1259	840.8595	874.4788	909.9919	982.4972	1013.5643	1019.5771	1037.5531	1053.3609	1064.9455	1109.2465	1119.8818	1139.1306	1146.9192	1224.9208	1262.4618	1292.0478	1318.7052	1332.0198	1346.786	1356.5679	1379.4977	1412.1899	1436.3578	1484.3409	1497.0638	1505.1203	3011.4886	3042.0189	3104.362	3136.0934	3139.1503	3140.7988	3149.3969	3162.7088	3176.7962	3673.4957
CC1C2OC2C2C(O)C12	C[C@H]1[C@H]2O[C@H]2[C@H]2[C@@H](O)[C@@H]12	
InChI=1S/C7H10O2/c1-2-3-4(5(3)8)7-6(2)9-7/h2-8H,1H3	InChI=1S/C7H10O2/c1-2-3-4(5(3)8)7-6(2)9-7/h2-8H,1H3/t2-,3+,4-,5+,6-,7+/m1/s1
