16
gdb 74068	3.52551	1.204	0.9031	8.1853	78.43	-0.2227	-0.0152	0.2075	1220.5313	0.125541	-434.109651	-434.10133	-434.100385	-434.142693	30.974	
N	 0.0949852728	 1.3197540684	 0.1300089881	-0.582716
C	-0.0294726284	-0.0415382183	 0.0370212623	 0.345567
C	-1.1314150751	-0.8155716773	 0.0224294788	-0.307372
C	-0.7656335622	-2.2332188778	-0.004426668	 0.39273
N	-1.474590128	-3.289264387	-0.0249776883	-0.5207
N	 0.6612871256	-2.2564012975	-0.0100025645	-0.120101
C	 1.2058377399	-0.9036915272	 0.0258183281	-0.257342
C	 1.5057579307	-3.346859277	-0.0437879212	 0.16354
O	 1.1999909281	-4.5092793769	-0.075436528	-0.280681
H	 0.9433491699	 1.7313897234	-0.227249975	 0.260643
H	-0.7287908113	 1.8672910005	-0.0661725521	 0.264347
H	-2.1600540803	-0.4826755002	 0.0305255773	 0.098837
H	-2.4616392095	-3.031859498	-0.0146337995	 0.212864
H	 1.8358271704	-0.6939516326	-0.8509018657	 0.128816
H	 1.8179113753	-0.7295051241	 0.9212935775	 0.140734
H	 2.5643415121	-3.0045625784	-0.0384517499	 0.060834
66.6958	167.8651	211.9331	218.7186	245.244	313.3201	362.9422	455.3288	478.7486	503.4415	545.903	609.3501	707.5497	762.556	798.3334	805.2405	861.0061	921.047	1017.0459	1034.9914	1070.5782	1098.0209	1202.6987	1215.6915	1256.3149	1278.8888	1298.3778	1412.0651	1430.6519	1464.1076	1505.6877	1648.7182	1707.6159	1714.8627	1840.2084	2881.3619	2996.9196	3028.151	3227.6266	3477.3417	3579.3661	3683.4483
NC1=CC(=N)N(C1)C=O	N[C]1C=C([NH])N(C1)C=O	
InChI=1S/C5H7N3O/c6-4-1-5(7)8(2-4)3-9/h1,3,7H,2,6H2	InChI=1S/C5H7N3O/c6-4-1-5(7)8(2-4)3-9/h1,3,7H,2,6H2
