23
gdb 88945	2.76991	0.99909	0.91037	1.9693	82.14	-0.2485	0.0696	0.3181	1423.0936	0.202604	-425.414375	-425.403657	-425.402713	-425.44978	40.661	
C	-0.1219378935	 1.5034006456	 0.0538359742	-0.421781
C	-0.0014022086	-0.024775735	-0.0222651761	 0.344003
C	 1.2430455488	-0.5042748267	 0.7278591749	-0.381374
O	-1.1092616725	-0.6286947839	 0.6653530189	-0.461601
C	 0.0037169306	-0.4754761764	-1.5008616298	-0.230926
C	 0.0944308508	-1.9757204427	-1.6865379509	-0.009887
C	 0.3273846379	-2.5605958013	-3.0672220536	-0.355475
C	 1.4028163288	-2.6383316658	-2.0129261526	 0.109898
O	 2.5262094391	-1.8080026107	-2.1158062262	-0.418706
H	 0.7475699718	 1.9938642882	-0.3953284678	 0.115688
H	-1.0133885536	 1.853587456	-0.4812268981	 0.097468
H	-0.2012772091	 1.8233195501	 1.0967297679	 0.118324
H	 1.2456217524	-0.1061524542	 1.7466506652	 0.108043
H	 1.2543905988	-1.5945822968	 0.7893662591	 0.122211
H	 2.1531851253	-0.184444516	 0.2147603289	 0.123977
H	-1.9185070237	-0.2824331972	 0.2733865489	 0.271372
H	-0.922630191	-0.1086844156	-1.9671469808	 0.075636
H	 0.8329913533	 0.0092404099	-2.0252229173	 0.107696
H	-0.5640490126	-2.5366358745	-1.0306520874	 0.097691
H	-0.196356269	-3.4652623989	-3.3575767328	 0.107561
H	 0.4959981668	-1.8535804411	-3.8740752532	 0.108993
H	 1.6019162865	-3.6094782616	-1.5598457044	 0.083452
H	 3.0671458326	-2.1285640412	-2.844567447	 0.287737
61.2646	78.0723	153.4713	194.4667	222.2715	254.7995	284.7096	301.9481	314.6259	332.4117	352.415	405.651	432.3458	461.2016	518.7459	580.7746	763.1101	783.1625	826.9344	858.4361	890.3906	926.2732	934.736	977.5053	1001.7134	1018.5686	1031.0825	1058.5175	1122.0329	1127.0531	1142.8819	1180.9596	1208.4618	1233.1281	1235.6632	1261.7435	1296.3744	1327.2379	1378.7521	1399.6407	1401.4687	1423.049	1425.2243	1466.9377	1481.6639	1485.827	1489.4297	1497.77	1508.3393	2996.2216	3023.5812	3050.7068	3082.539	3091.9552	3096.2217	3114.4548	3123.0849	3123.888	3136.3044	3160.9412	3211.4201	3797.9241	3810.2158
CC(C)(O)CC1CC1O	CC(C)(O)C[C@H]1C[C@H]1O	
InChI=1S/C7H14O2/c1-7(2,9)4-5-3-6(5)8/h5-6,8-9H,3-4H2,1-2H3	InChI=1S/C7H14O2/c1-7(2,9)4-5-3-6(5)8/h5-6,8-9H,3-4H2,1-2H3/t5-,6-/m1/s1
