15
gdb 27493	2.10284	1.86843	0.99013	3.6258	75.71	-0.217	-0.0042	0.2128	1120.3458	0.114885	-450.171187	-450.163289	-450.162345	-450.203641	30.478	
N	 0.1094911769	 1.3436930569	 0.2003507309	-0.568416
C	-0.0799249467	 0.0006393732	-0.0027171508	 0.435671
C	-1.2196052078	-0.6966978087	 0.1597714493	-0.270716
C	-1.2268412688	-2.1311724649	-0.0131011633	 0.397018
N	-2.2842261685	-2.8363081986	 0.1387413599	-0.558072
N	 0.031072763	-2.6503795141	-0.3618738062	-0.413963
C	 1.1924069164	-1.9458185008	-0.5556668251	 0.465778
N	 2.2754422824	-2.505572637	-0.8916210069	-0.570078
O	 1.1042026669	-0.5826744526	-0.3580353849	-0.260632
H	 0.8772262739	 1.7486316981	-0.3146658552	 0.266671
H	-0.7270011366	 1.9060383208	 0.2055281919	 0.269974
H	-2.1442031845	-0.2100811537	 0.4316822841	 0.111588
H	-2.1025767056	-3.8273745944	-0.025773472	 0.200382
H	 0.1254252291	-3.6437720401	-0.5103589285	 0.266186
H	 3.0234323698	-1.8228945641	-0.9797775133	 0.22861
96.2404	146.272	172.5146	311.2056	353.0207	367.2866	502.9359	518.593	537.2769	548.2833	569.4109	654.5032	666.1379	688.3734	705.1155	791.1195	798.2577	827.6461	911.1208	971.995	1019.0968	1112.1108	1134.3297	1155.8127	1272.0507	1306.8735	1410.1613	1417.7033	1447.1018	1630.0477	1705.7536	1731.271	1786.5967	3246.4801	3464.2946	3542.7133	3582.0261	3632.7918	3694.2233
NC1=CC(=N)NC(=N)O1	N[C@@H]1C=C([NH])N[C@H]([NH])O1	
InChI=1S/C4H6N4O/c5-2-1-3(6)9-4(7)8-2/h1H,6H2,(H3,5,7,8)	InChI=1S/C4H8N4O/c5-2-1-3(6)9-4(7)8-2/h1,3-5,7-8H,6H2/t3-,4-/m0/s1
