17
gdb 54233	2.17925	1.55621	1.3567	1.3372	69.36	-0.2442	-0.0408	0.2034	1044.0573	0.134824	-455.17754	-455.168351	-455.167407	-455.211629	33.541	
C	 0.0478444485	 1.6239592567	-0.5489450444	-0.423735
C	 0.1884411856	 0.1176076121	-0.3183939936	 0.081949
N	 1.533888785	-0.4364878468	-0.6087136367	-0.353558
C	 1.6470773178	-1.0784605014	 0.7320751774	-0.281046
C	 0.3568533741	-0.3596364534	 1.1371044863	 0.348311
O	-0.2955479892	-0.2243925103	 2.131358911	-0.306566
C	-0.9402170617	-0.6689778293	-1.0172567439	 0.354262
N	-2.1757604663	-0.4711802473	-0.4818772193	-0.512415
O	-0.716157827	-1.37914057	-1.9779063766	-0.360668
H	 0.8791241418	 2.1496006846	-0.0733775281	 0.132181
H	 0.073147845	 1.8408460401	-1.6210811589	 0.139946
H	-0.8936418868	 2.0016718834	-0.1412959987	 0.126158
H	 1.4752199326	-1.1032964479	-1.3746075276	 0.238865
H	 1.5357618524	-2.1712720621	 0.7529270157	 0.135779
H	 2.5478030801	-0.8077414826	 1.2932378163	 0.137777
H	-2.2604374429	-0.0961989221	 0.4508127299	 0.276694
H	-2.9304547692	-1.0409316638	-0.8319734889	 0.266066
67.0616	98.538	141.4476	178.5923	210.9666	251.9243	339.0289	400.2091	430.0859	464.546	522.3618	575.5702	588.0123	651.9217	728.1635	757.1663	798.8842	869.7446	961.0776	970.594	1010.3434	1057.3637	1110.8887	1128.5549	1157.0226	1191.3856	1202.4812	1284.5255	1334.0193	1374.8126	1404.5038	1469.2104	1476.6366	1493.0786	1627.62	1796.1327	1892.2434	3016.0934	3044.8594	3072.3379	3120.1059	3130.8749	3507.6775	3571.2616	3701.017
CC1(NCC1=O)C(N)=O	C[C@]1(NCC1=O)C(=O)N	
InChI=1S/C5H8N2O2/c1-5(4(6)9)3(8)2-7-5/h7H,2H2,1H3,(H2,6,9)	InChI=1S/C5H8N2O2/c1-5(4(6)9)3(8)2-7-5/h7H,2H2,1H3,(H2,6,9)/t5-/m1/s1
