17
gdb 107767	3.69742	1.48104	1.42462	2.1184	65.88	-0.237	0.0692	0.3062	958.7318	0.13668	-458.939181	-458.931948	-458.931003	-458.970942	28.519	
O	-0.1524927351	 1.4323004484	 0.0191372105	-0.405399
C	-0.0691975465	 0.0240882836	 0.0095476036	-0.179952
C	-1.4554162601	-0.5609058451	 0.0301722513	 0.473198
C	-1.6289840171	-2.1038969647	 0.0212053106	-0.265422
C	-3.1487218108	-2.0446876845	 0.0494388545	-0.183081
C	-3.4452682477	-0.7609869242	 0.8188082954	 0.041713
O	-2.21290384	-0.1697490525	 1.17522695	-0.281281
C	-3.472791275	-0.7491166713	-0.6882743342	 0.041764
O	-2.2540723691	-0.1519871614	-1.0800891797	-0.281165
H	 0.7432016481	 1.7817020403	 0.0166565563	 0.291692
H	 0.4361169318	-0.3554348681	-0.8915857662	 0.101528
H	 0.4665096863	-0.3659349127	 0.8882640706	 0.101687
H	-1.2278127512	-2.5567065772	-0.8879654292	 0.111007
H	-1.1950151663	-2.5709325525	 0.9078468627	 0.110944
H	-3.7935355083	-2.9116514888	 0.0543782449	 0.098547
H	-4.2653646418	-0.5760369317	 1.4962805558	 0.1121
H	-4.3169867672	-0.5537553876	-1.3323996468	 0.112121
90.6807	168.5098	177.9072	292.618	396.4783	442.8822	563.457	605.4873	682.6213	722.3029	744.608	789.8447	799.5351	830.4158	835.0273	964.3258	972.2955	1006.2	1020.6984	1021.8129	1036.9258	1043.884	1076.6491	1078.7262	1101.4841	1110.572	1171.9784	1200.5482	1242.8567	1259.0567	1284.7809	1324.9322	1348.9662	1376.6616	1473.6665	1493.6134	1506.5728	2983.9853	3017.3865	3073.47	3132.4145	3220.8528	3231.2558	3241.278	3835.5239
OCC12CC3C(O1)C3O2	OC[C@@]12C[C@H]3[C@@H](O1)[C@H]3O2	
InChI=1S/C6H8O3/c7-2-6-1-3-4(8-6)5(3)9-6/h3-5,7H,1-2H2	InChI=1S/C6H8O3/c7-2-6-1-3-4(8-6)5(3)9-6/h3-5,7H,1-2H2/t3-,4+,5-,6-
