17
gdb 65960	2.30014	1.49156	1.38171	1.6632	72.87	-0.2333	0.0061	0.2394	1041.9966	0.135183	-417.970367	-417.96167	-417.960726	-418.004008	32.511	
O	-0.096232063	 1.3345208526	-0.3861433042	-0.455751
C	-0.0125372758	-0.0217036467	-0.0279121973	 0.167
C	 0.0559237264	-0.3831258263	 1.4951197689	-0.214815
N	-1.2030111566	-1.1793489703	 1.3940459994	-0.371277
C	-1.3759730675	-0.7332908044	 0.0023849145	 0.334914
C	-2.6440258013	-0.1573578413	-0.5444501393	-0.292364
C	-2.0891245665	-1.458588544	-1.0896042796	-0.342409
C	 1.001087499	-0.7169373578	-0.8351899623	 0.219959
N	 1.8117001237	-1.2506092222	-1.4639202576	-0.339722
H	 0.7938034992	 1.6977215899	-0.4582066683	 0.296544
H	 0.9394419243	-0.9347161839	 1.8237419053	 0.123076
H	-0.075430206	 0.512204609	 2.1100240762	 0.126027
H	-0.9982971668	-2.1737912486	 1.430385124	 0.229344
H	-3.5125735198	-0.2068490021	 0.1028967069	 0.126301
H	-2.567072333	 0.7330625174	-1.1575181667	 0.135963
H	-1.6408322533	-1.4629638622	-2.0779931461	 0.134203
H	-2.596870853	-2.379872859	-0.8223557138	 0.123009
44.3464	123.4804	184.8743	225.3925	253.7206	278.7308	350.8224	388.3817	476.4824	507.7873	544.038	640.7678	663.9984	764.9089	803.5067	863.19	892.174	915.7836	959.7556	983.0317	994.879	1006.93	1054.236	1077.4155	1133.4466	1161.7507	1187.3633	1214.8407	1240.2268	1304.9089	1336.8429	1376.5829	1397.5529	1453.7259	1487.464	1502.9692	2345.6167	3052.5441	3116.2514	3127.5609	3140.8437	3211.4975	3236.3233	3505.1986	3806.3533
OC1(CNC11CC1)C#N	O[C@]1(CNC21CC2)C#N	
InChI=1S/C6H8N2O/c7-3-6(9)4-8-5(6)1-2-5/h8-9H,1-2,4H2	InChI=1S/C6H8N2O/c7-3-6(9)4-8-5(6)1-2-5/h8-9H,1-2,4H2/t6-/m0/s1
