19
gdb 89790	2.68682	1.40594	1.10133	3.1188	76.06	-0.2507	-0.0371	0.2137	1142.255	0.158368	-423.007215	-422.998674	-422.99773	-423.040408	32.724	
O	 0.7824651985	 0.6861627512	-0.6965380854	-0.440289
C	 0.1476301086	-0.2164583273	 0.1526133853	 0.172356
C	-0.1038180515	 0.146731714	 1.647775096	-0.350171
C	-1.4542519466	-0.5665275439	 1.5353928348	 0.380707
C	-1.8699964717	-1.7801975179	 2.3138745026	-0.325279
C	-2.6500559102	-0.4905652836	 2.438518792	-0.333188
C	-1.3871588384	-0.4981470244	-0.0163163921	-0.256835
C	-2.1869021722	 0.6689257119	-0.5229407062	 0.168943
O	-1.7657620534	 1.7984273933	-0.6510399426	-0.275919
H	 0.2072557079	 1.4634190546	-0.748134325	 0.294748
H	 0.6949643005	-1.160532014	 0.0793900119	 0.097133
H	 0.6096866024	-0.2279951108	 2.3858066509	 0.102999
H	-0.2162716595	 1.2286057503	 1.7704223966	 0.114376
H	-2.3316020943	-2.6047491508	 1.7798740654	 0.11539
H	-1.2428110805	-2.0824440369	 3.1466893473	 0.119677
H	-2.5531227425	 0.0839052851	 3.3540019172	 0.121655
H	-3.6402024609	-0.4519698055	 1.9965639064	 0.115352
H	-1.6888864651	-1.4064761555	-0.5482375943	 0.086013
H	-3.2522064211	 0.4476182602	-0.7542288909	 0.092332
84.3564	107.6972	184.1034	233.6636	262.4035	287.331	372.6763	418.0948	457.995	497.2162	588.6309	719.0709	769.9228	776.2822	800.6934	861.1066	877.6861	914.6391	952.0949	969.7184	1009.6363	1053.2567	1060.5376	1062.1467	1081.1522	1132.9199	1143.3434	1187.1502	1193.928	1215.51	1235.1164	1257.439	1326.9498	1345.739	1374.4602	1426.1952	1464.2361	1465.5431	1483.0372	1502.6548	1790.9094	2887.17	3050.7188	3054.5764	3071.2359	3109.6205	3122.9733	3129.8945	3202.248	3217.0574	3722.6402
OC1CC2(CC2)C1C=O	O[C@H]1CC2(CC2)[C@H]1C=O	
InChI=1S/C7H10O2/c8-4-5-6(9)3-7(5)1-2-7/h4-6,9H,1-3H2	InChI=1S/C7H10O2/c8-4-5-6(9)3-7(5)1-2-7/h4-6,9H,1-3H2/t5-,6-/m0/s1
