14
gdb 132442	3.16992	1.39728	0.97058	5.489	73.44	-0.1916	-0.03	0.1616	1108.594	0.100958	-478.000542	-477.992894	-477.99195	-478.032588	29.501	
N	 0.1088009133	 1.3511679284	 0.1865437889	-0.563549
C	-0.0631774365	-0.0086268567	 0.06399626	 0.441635
C	-1.2362800553	-0.6879059175	 0.0316614621	-0.273635
C	-1.1819976562	-2.1167856679	-0.0131521554	-0.188644
C	 0.0057994348	-2.7551768775	-0.0312210152	 0.174285
F	 0.0931265596	-4.083048105	-0.0741294701	-0.06024
C	 1.2643525476	-2.040115872	-0.0078348438	 0.300311
N	 2.4102425738	-2.5801455973	-0.028471414	-0.535702
O	 1.1306923677	-0.6436593265	 0.036535311	-0.269253
H	 0.9887542155	 1.6955236006	-0.1693294812	 0.265285
H	-0.6840432623	 1.9121243556	-0.0843539273	 0.265431
H	-2.1786554324	-0.1592837025	 0.0515249121	 0.099939
H	-2.0954320246	-2.699887944	-0.0356381014	 0.122132
H	 3.146080915	-1.8751858577	-0.0020878556	 0.222005
109.7833	159.2095	294.1258	312.5034	339.3873	372.4554	400.7838	460.8715	519.1019	554.9553	578.6094	683.4885	734.2075	746.4783	760.2053	782.2044	819.8438	925.9215	969.6912	1004.3523	1108.9763	1127.1021	1209.7647	1276.1595	1312.7136	1403.9	1437.2918	1616.8262	1650.9507	1692.8213	1752.8091	3203.2529	3229.0413	3502.5815	3576.1439	3686.8977
NC1=CC=C(F)C(=N)O1	N[C@@H]1C=CC(=C([NH])O1)F	
InChI=1S/C5H5FN2O/c6-3-1-2-4(7)9-5(3)8/h1-2,8H,7H2	InChI=1S/C5H6FN2O/c6-3-1-2-4(7)9-5(3)8/h1-2,4,8H,7H2/t4-/m0/s1
