22
gdb 113806	2.81892	1.08771	0.86887	1.6558	84.	-0.2321	0.0738	0.3059	1404.5314	0.19321	-404.296103	-404.286345	-404.2854	-404.331205	36.52	
C	 2.057589003	 1.1161870127	-0.5624018691	-0.401353
C	 1.5189838582	-0.285888178	-0.3894481387	-0.026497
C	 2.4282086409	-1.4086570582	 0.0607388838	-0.322235
C	 1.3372989131	-0.9003072625	 0.9787880975	 0.037768
N	 1.7513435874	-0.1342692851	 2.1221868046	-0.078116
C	 0.7507830248	 0.2007440671	 3.1272616512	-0.266851
C	 1.8358819306	-0.7735736721	 3.4428359595	-0.011911
C	 1.5319021101	-2.2409991389	 3.6409250558	-0.076609
O	 2.6057009293	-3.0724318984	 3.2304233194	-0.424999
H	 2.7513798836	 1.3654471317	 0.2430518209	 0.134902
H	 2.5807052981	 1.2178776543	-1.5193657327	 0.112233
H	 1.2474374968	 1.8536004113	-0.5444203752	 0.113128
H	 0.7588390972	-0.5716884239	-1.1121316815	 0.084991
H	 2.3220011721	-2.3894148491	-0.3909487532	 0.112357
H	 3.4445789136	-1.1334794385	 0.3243051958	 0.123423
H	 0.4610054332	-1.5398470873	 1.0969992317	 0.078741
H	 0.7806819779	 1.2140188091	 3.519034853	 0.116578
H	-0.2533105825	-0.2030940973	 2.9961224127	 0.108153
H	 2.6903755728	-0.4274004764	 4.0225249598	 0.097027
H	 1.3900797591	-2.4383176626	 4.7091396016	 0.111696
H	 0.5930027406	-2.5152637042	 3.1372671859	 0.084766
H	 2.7705916399	-2.8830674136	 2.3000691372	 0.292808
45.2314	80.9258	148.7701	174.7013	207.4435	224.9678	307.8295	340.1331	368.5812	409.273	456.8095	513.5328	584.198	730.9143	781.1803	803.7176	851.5471	876.0853	913.6176	958.7703	975.7487	1003.3653	1042.8809	1065.1581	1073.0717	1076.5395	1107.8534	1120.9828	1126.9586	1148.6243	1160.7288	1187.2859	1197.6643	1230.6001	1236.5921	1327.7468	1352.0286	1382.9591	1404.6277	1413.211	1419.7548	1437.445	1481.057	1495.0621	1501.22	1504.9127	1510.9505	2992.0532	3033.9306	3067.2669	3074.311	3085.3809	3089.9809	3118.5241	3123.9541	3127.4035	3142.9206	3173.4494	3214.8158	3801.9952
CC1CC1N1CC1CO	C[C@H]1C[C@H]1N1C[C@H]1CO	
InChI=1S/C7H13NO/c1-5-2-7(5)8-3-6(8)4-9/h5-7,9H,2-4H2,1H3	InChI=1S/C7H13NO/c1-5-2-7(5)8-3-6(8)4-9/h5-7,9H,2-4H2,1H3/t5-,6-,7+,8?/m0/s1
