18
gdb 19848	4.53622	1.93967	1.63523	0.4462	77.83	-0.2198	0.0211	0.2409	837.9562	0.156303	-310.625639	-310.619383	-310.618439	-310.65566	26.035	
C	 0.0691647193	 1.4558274174	-0.2013488631	-0.265242
C	 1.3052127298	 0.7109621935	 0.2025081699	-0.092667
C	-0.03885705	-0.0424935143	 0.0245820708	-0.181469
C	 0.5275848279	-0.6788183704	-1.2139913493	 0.325699
C	 0.3530399045	-1.0753026778	-2.4700937984	-0.243296
C	 1.6531150247	-0.8183895774	-3.2406088935	-0.233407
C	 2.4062258229	 0.2376730149	-2.3569869343	-0.257164
C	 1.909159691	-0.1360719461	-0.9514023537	-0.01667
H	-0.3697802158	 2.0697628909	 0.5798530045	 0.111295
H	-0.0490566725	 1.8569726086	-1.203844826	 0.113354
H	 1.8196258017	 0.9387916105	 1.1282788936	 0.084776
H	-0.7041875956	-0.4632345792	 0.7676011875	 0.093984
H	-0.5455130911	-1.4602898215	-2.9379173475	 0.090043
H	 2.2523242586	-1.7337558027	-3.3559165217	 0.101617
H	 1.4606083867	-0.4483488942	-4.2537398064	 0.099995
H	 3.4920573585	 0.2014675217	-2.4843378388	 0.089407
H	 2.0662119716	 1.2426575822	-2.6318142035	 0.100411
H	 2.5458576377	-0.910467226	-0.5010604201	 0.079334
167.0534	217.6835	297.8225	431.8833	491.279	611.0904	629.6968	678.3822	745.2448	811.7296	826.201	862.1516	876.1099	896.8816	918.8438	936.7021	956.4936	992.4714	1011.511	1044.9496	1067.7848	1081.9486	1092.8847	1119.9376	1157.0167	1162.6895	1188.2372	1217.447	1257.0861	1271.3865	1302.795	1312.7729	1341.0414	1360.8203	1478.6565	1485.335	1493.0643	1731.8819	2998.377	3003.8333	3040.0109	3061.8664	3094.377	3113.8311	3180.6352	3190.4648	3196.4628	3202.3562
C1C2C1C1=CCCC21	C1[C@H]2[C@@H]1[C]1[CH]CC[C@@H]21	
InChI=1S/C8H10/c1-2-5-6(3-1)8-4-7(5)8/h2,6-8H,1,3-4H2	InChI=1S/C8H10/c1-2-5-6(3-1)8-4-7(5)8/h2,6-8H,1,3-4H2/t6-,7+,8-/m1/s1
