23
gdb 121092	4.48525	0.74698	0.69454	1.659	90.18	-0.2246	0.0244	0.2489	1754.1473	0.204521	-388.31172	-388.301532	-388.300588	-388.347534	36.904	
C	-0.1534874684	 1.5493183884	-0.0792847741	-0.382557
C	-0.0336336305	 0.0239556781	-0.0394801666	-0.160789
C	 0.7995597419	-0.5424313627	-1.1936931544	-0.170422
C	 0.8924820913	-2.0729866303	-1.1732432752	 0.089333
O	-0.4177504478	-2.6505470829	-1.2807874993	-0.279969
C	-0.4702582743	-3.557631026	-2.3732689335	-0.150847
C	 0.8917829265	-3.5053384907	-3.0193142539	 0.29897
C	 1.2266451955	-4.3065418421	-4.2349094886	-0.492844
C	 1.6570682504	-2.6694340524	-2.3227771765	-0.217454
H	 0.8305558874	 2.028953299	-0.0232582728	 0.109025
H	-0.6298676274	 1.8848104609	-1.0073856839	 0.112605
H	-0.7536773066	 1.9243731291	 0.7558183938	 0.109935
H	 0.4150359394	-0.2855546338	 0.9141998888	 0.089335
H	-1.0289121213	-0.4319984316	-0.0721313729	 0.11635
H	 0.3697251879	-0.2345203747	-2.155531069	 0.092308
H	 1.8185790551	-0.1325679953	-1.1552453423	 0.085103
H	 1.3274017148	-2.3789412096	-0.204653261	 0.073661
H	-0.7142363608	-4.5719833604	-2.0139568177	 0.097275
H	-1.2738300668	-3.2655924719	-3.0690329461	 0.098924
H	 1.0967069322	-5.3806069152	-4.0510280889	 0.129354
H	 0.5647323427	-4.051621068	-5.0722720285	 0.12943
H	 2.2582151929	-4.1393822938	-4.5546886988	 0.128277
H	 2.6918194859	-2.4228703141	-2.5287968386	 0.094997
53.1681	88.8133	96.7426	130.3882	171.9798	222.8031	240.9892	286.1495	311.9338	384.1178	426.6164	527.8226	610.5583	736.8046	767.5457	831.5304	838.1629	904.5028	905.4019	922.7012	984.8984	1000.829	1022.6876	1037.9781	1057.9565	1092.5209	1096.1543	1126.0153	1146.5128	1199.7572	1213.9687	1258.0063	1272.3332	1301.1352	1325.5521	1345.7788	1373.3245	1388.1531	1397.924	1412.0474	1414.7155	1472.711	1479.5175	1489.8328	1493.701	1498.5321	1510.3594	1522.726	1734.8968	2934.3203	2957.044	2975.4222	3009.557	3018.5593	3019.4365	3026.6834	3051.4349	3064.8754	3071.7169	3096.211	3099.0237	3115.6666	3205.2822
CCCC1OCC(C)=C1	CCC[C@H]1OCC(=C1)C	
InChI=1S/C8H14O/c1-3-4-8-5-7(2)6-9-8/h5,8H,3-4,6H2,1-2H3	InChI=1S/C8H14O/c1-3-4-8-5-7(2)6-9-8/h5,8H,3-4,6H2,1-2H3/t8-/m1/s1
