19
gdb 86267	1.84338	1.66072	1.15407	5.5538	76.2	-0.2732	0.031	0.3042	1156.8725	0.159074	-419.210758	-419.201429	-419.200485	-419.244484	35.225	
C	-0.0671148977	 1.6238566922	 0.0323690225	-0.410235
C	 0.0553729467	 0.1111818815	 0.0277208417	-0.001945
C	 1.1043279341	-0.5692493371	-0.8973886839	-0.27215
C	 1.4115828829	-1.5870096641	 0.2250045447	-0.039512
N	 2.8077611259	-1.854479292	 0.5156097948	-0.524309
C	 0.7608392465	-0.5710278627	 1.2490242204	 0.25009
O	 1.7564261745	 0.2311713291	 1.8155020548	-0.463951
C	-0.1138637276	-1.1449158829	 2.2795782342	 0.238206
N	-0.8175320597	-1.6253217762	 3.0615750721	-0.347768
H	 0.8922440773	 2.084487184	 0.2796502262	 0.135314
H	-0.3874996864	 1.9860385386	-0.9503253716	 0.114341
H	-0.8032143938	 1.9589238596	 0.7701908893	 0.129017
H	-0.9227286875	-0.3583911283	-0.1172528758	 0.091211
H	 0.76036659	-0.9697037174	-1.8527031918	 0.108647
H	 1.9613836906	 0.088917709	-1.0713015516	 0.111874
H	 0.7986106996	-2.4889183252	 0.1341937872	 0.092543
H	 2.9482707269	-2.7620887611	 0.9439950528	 0.250494
H	 3.3801938064	-1.8044519704	-0.3185471377	 0.248631
H	 2.5790591913	-0.2847782368	 1.6929161019	 0.289502
98.6801	119.3973	171.7523	212.6589	225.4424	245.5947	297.8031	331.7866	380.1975	469.2584	515.5859	537.2722	587.9619	607.2754	661.1605	728.0516	823.3292	852.9811	910.7633	926.3497	940.9544	997.7425	1053.8193	1089.2845	1113.6305	1158.0901	1184.8937	1190.2256	1242.0354	1256.9615	1277.2256	1318.481	1358.1633	1397.606	1410.3541	1433.9093	1484.6084	1488.5832	1502.5382	1648.2346	2344.785	3037.9852	3055.4715	3056.772	3063.2387	3101.614	3121.649	3128.956	3522.0819	3534.2771	3608.1198
CC1CC(N)C1(O)C#N	C[C@H]1C[C@@H](N)[C@]1(O)C#N	
InChI=1S/C6H10N2O/c1-4-2-5(8)6(4,9)3-7/h4-5,9H,2,8H2,1H3	InChI=1S/C6H10N2O/c1-4-2-5(8)6(4,9)3-7/h4-5,9H,2,8H2,1H3/t4-,5+,6-/m0/s1
