20
gdb 111469	2.35624	1.55575	1.05796	1.7523	78.4	-0.2265	-0.0241	0.2023	1183.4201	0.171088	-403.155743	-403.147201	-403.146257	-403.189182	32.569	
C	-0.0761252169	 1.5414483359	 0.1241956471	-0.388346
C	 0.0315951034	 0.0152301483	 0.0945631234	-0.172697
C	 0.7444016661	-0.5142106769	-1.1489864156	-0.075297
N	 2.1647191459	-0.1405339777	-1.2588067597	-0.099759
C	 3.0421132016	-0.8328802445	-0.3029042487	-0.254884
C	 2.9257834577	-1.3442164126	-1.691275689	-0.020324
C	 1.9971015028	-2.5207984123	-1.9012715844	-0.345034
C	 0.6641531214	-2.0446769973	-1.3072781287	 0.366463
O	-0.2805770605	-2.7343420241	-1.0265001607	-0.311046
H	 0.9133267072	 2.0061854656	 0.0914429099	 0.133012
H	-0.6451607525	 1.9125320771	-0.735391226	 0.115
H	-0.5839245028	 1.8800741278	 1.0323495028	 0.112108
H	 0.5553964334	-0.3409696629	 0.9898991328	 0.098037
H	-0.9613228472	-0.446721467	 0.117439906	 0.122006
H	 0.2436705708	-0.0961543758	-2.0371041954	 0.107665
H	 3.9161345804	-0.2663482746	 0.0033908245	 0.122862
H	 2.5923226815	-1.4268021581	 0.4922733619	 0.11788
H	 3.7223255273	-1.1656091264	-2.4068029776	 0.097787
H	 1.845519492	-2.7352130464	-2.9664390841	 0.136202
H	 2.3196972986	-3.4504687081	-1.4253826685	 0.138365
75.8512	94.043	167.404	202.8382	264.3688	312.8159	359.652	459.8207	494.6225	542.7126	626.5699	665.2514	729.2423	793.3046	799.13	840.5753	896.9774	913.4095	947.3732	994.3622	1023.3486	1057.7256	1085.5144	1112.7584	1123.2737	1136.8272	1164.1646	1174.5662	1181.4169	1267.5914	1272.9545	1283.5128	1295.3502	1335.4295	1379.847	1385.6743	1411.6201	1451.8695	1483.5561	1495.8883	1507.2605	1511.0976	1846.5503	2981.1393	3035.1391	3037.7258	3042.9017	3077.2482	3093.9637	3100.987	3102.9778	3117.7637	3154.037	3187.1548
CCC1N2CC2CC1=O	CC[C@H]1N2C[C@H]2CC1=O	
InChI=1S/C7H11NO/c1-2-6-7(9)3-5-4-8(5)6/h5-6H,2-4H2,1H3	InChI=1S/C7H11NO/c1-2-6-7(9)3-5-4-8(5)6/h5-6H,2-4H2,1H3/t5-,6-,8?/m1/s1
