15
gdb 25080	3.37567	1.70487	1.14073	3.9248	74.57	-0.1863	-0.0013	0.185	996.951	0.115617	-416.872432	-416.865558	-416.864614	-416.903624	26.993	
O	 0.0175033214	-0.0678032178	 0.0024214688	-0.436372
C	-0.0011759872	 1.1471478345	 0.0089705791	 0.452229
N	-1.0973919402	 2.0082003569	 0.0296204608	-0.371006
C	-0.7132572804	 3.3572318545	 0.0305524706	-0.243986
C	 0.633607892	 3.3760549797	 0.0107781359	 0.339982
C	 1.8555726516	 4.2559667979	-0.0032081336	-0.413338
C	 2.9707063616	 3.2124981083	-0.0253089167	-0.145171
C	 2.4582457005	 1.9761243624	-0.0237521374	-0.009689
N	 1.0621724981	 2.0421113479	-0.0021981729	-0.117074
H	-2.0386970037	 1.6580270537	 0.0413784345	 0.2673
H	-1.4367262599	 4.1538182072	 0.0452623162	 0.142026
H	 1.8936855541	 4.9169463289	-0.8790275017	 0.135378
H	 1.9202440695	 4.9080235506	 0.8777314852	 0.135371
H	 4.0216936427	 3.458657901	-0.0399196195	 0.111995
H	 2.9448555099	 1.0127470542	-0.0359041894	 0.152356
140.7415	170.2948	264.8979	302.6038	433.9355	465.318	566.7066	627.6096	649.5134	687.5258	688.3375	723.6849	743.0509	803.1953	887.0485	921.855	934.4777	961.1933	1037.4045	1071.7235	1124.6899	1152.3256	1162.1203	1259.5327	1274.6456	1308.129	1376.0896	1391.613	1423.3868	1469.2732	1648.2904	1698.465	1830.6243	3016.2722	3035.6742	3246.3842	3270.6953	3283.754	3696.9806
O=C1NC=C2CC=CN12	O=c1[nH]cc2CC=Cn12	
InChI=1S/C6H6N2O/c9-6-7-4-5-2-1-3-8(5)6/h1,3-4H,2H2,(H,7,9)	InChI=1S/C6H6N2O/c9-6-7-4-5-2-1-3-8(5)6/h1,3-4H,2H2,(H,7,9)
