16
gdb 45692	3.69088	1.41686	1.08012	4.3708	70.99	-0.2325	0.0116	0.2441	1063.9006	0.127707	-434.087071	-434.079919	-434.078975	-434.118751	27.832	
O	-0.0727829909	-0.069579535	-0.1317092285	-0.364271
C	-0.0286204866	 1.1321778716	 0.0293101474	 0.381684
C	-1.3098236071	 1.9879438836	 0.0916121225	-0.285952
N	-1.2178090694	 3.2715777827	 0.79808406	-0.322705
C	-0.0753202114	 3.7886835178	 0.6787525551	 0.415602
N	 0.5884678751	 4.8429514709	 1.2974695614	-0.35595
C	 1.8972219228	 4.1477248591	 1.1394295545	-0.195911
C	 1.199781245	 3.2426238804	 0.0669278104	-0.085304
N	 1.1676354185	 1.8102355313	 0.1628172732	-0.323398
H	-1.6486821117	 2.1346151925	-0.94450833	 0.135295
H	-2.0676719077	 1.3651975892	 0.57192015	 0.143889
H	 0.2667398898	 5.2209806601	 2.1797532266	 0.249881
H	 2.7088165591	 4.7923017097	 0.7951973431	 0.119423
H	 2.2028330817	 3.5755746859	 2.021234094	 0.124106
H	 1.4049072682	 3.6087902068	-0.9466007855	 0.113941
H	 1.9903370846	 1.2573424634	-0.0338897541	 0.249671
98.5892	154.1979	267.8935	354.7325	388.7324	442.2603	484.0221	514.6583	581.5998	618.2747	669.7757	735.1975	770.2929	856.4766	882.6497	941.0606	984.2875	996.0234	1048.5306	1070.852	1145.5267	1163.2111	1206.942	1226.3539	1246.1936	1298.2443	1310.4541	1323.4338	1368.7956	1394.25	1438.0984	1469.5426	1512.7577	1801.134	1818.3876	3008.4771	3025.0982	3048.5303	3106.0283	3115.3543	3572.5294	3597.2966
O=C1CN=C2NCC2N1	O=C1C[N][C]2NC[C@H]2N1	
InChI=1S/C5H7N3O/c9-4-2-7-5-3(8-4)1-6-5/h3H,1-2H2,(H,6,7)(H,8,9)	InChI=1S/C5H7N3O/c9-4-2-7-5-3(8-4)1-6-5/h3H,1-2H2,(H,6,7)(H,8,9)/t3-/m1/s1
