19
gdb 69088	2.45936	1.62498	1.20886	1.9314	82.19	-0.2228	0.0373	0.2601	1092.4166	0.158182	-385.850368	-385.841758	-385.840814	-385.883048	33.75	
C	-0.2204686568	 1.5252649338	 0.0546189105	-0.474357
C	 0.0909892728	 0.0517472871	-0.020800051	 0.245438
C	-0.644624789	-0.9315010062	 0.867466848	-0.397513
C	 0.8456637305	-0.695113356	 1.0704956124	 0.24609
O	 1.7303000762	-1.6318781594	 0.4987321656	-0.298238
C	 1.3682250869	-1.8098090069	-0.8712004201	-0.107106
C	 0.6549509074	-0.5177935763	-1.316341085	-0.285787
C	 1.3407257729	-0.077950906	 2.2624282436	 0.241812
C	 1.7349521823	 0.4565341388	 3.2649764985	-0.402816
H	 0.6245287033	 2.1239108444	-0.3032088204	 0.121195
H	-1.0935637083	 1.7750146759	-0.5590499454	 0.118439
H	-0.4331163281	 1.8301217187	 1.083116283	 0.128336
H	-1.3085613419	-0.5145740724	 1.6164616251	 0.124219
H	-0.9547496898	-1.8947944934	 0.4760962067	 0.118604
H	 2.2827325074	-2.018812934	-1.4324459586	 0.114368
H	 0.7042859597	-2.6791816263	-0.9745430029	 0.101089
H	-0.1093376733	-0.7169576403	-2.0744380889	 0.106864
H	 1.3667212315	 0.1997619684	-1.7393163684	 0.109455
H	 2.0902895161	 0.9215666102	 4.1508307273	 0.189907
126.2303	138.4875	194.3327	208.6366	256.3343	320.8177	360.1699	431.4836	501.8257	526.9433	565.0861	577.011	632.0558	680.2416	698.1414	735.8291	851.4962	893.286	902.299	940.5868	957.1982	986.3189	1038.9408	1048.7379	1072.4437	1105.954	1148.5727	1222.8209	1224.66	1249.4024	1268.1733	1341.1721	1381.0029	1390.3416	1420.9105	1476.5631	1487.7898	1492.064	1502.5808	1531.1269	2239.4056	3005.9329	3027.5994	3040.5683	3080.7168	3088.0814	3093.8167	3110.5921	3133.0197	3222.7152	3503.4584
CC12CC1(OCC2)C#C	C[C@]12C[C@]1(OCC2)C#C	
InChI=1S/C8H10O/c1-3-8-6-7(8,2)4-5-9-8/h1H,4-6H2,2H3	InChI=1S/C8H10O/c1-3-8-6-7(8,2)4-5-9-8/h1H,4-6H2,2H3/t7-,8+/m0/s1
