17
gdb 126996	3.2815	1.06541	0.83344	2.4997	71.3	-0.2041	0.0369	0.241	1362.0047	0.136009	-455.147705	-455.138655	-455.137711	-455.18301	32.279	
C	 0.1069390453	 1.5455660765	-0.119980858	-0.385102
C	-0.1724293279	 0.0717787651	-0.3486373231	-0.056487
O	 1.0448869873	-0.5491560698	-0.7765880608	-0.302391
C	 0.942336313	-1.8786633132	-1.084926027	 0.121786
C	 1.3098108755	-2.3972138112	-2.3115358498	 0.35836
O	 1.7807263229	-1.8034925984	-3.4261386185	-0.434737
N	 1.13613499	-3.7330487754	-2.2368897817	-0.253357
N	 0.6600830953	-4.1314140074	-1.0272454222	-0.239542
C	 0.549842281	-3.0061618135	-0.3271151736	-0.093367
H	 0.8823636139	 1.6761999965	 0.6399891215	 0.132384
H	 0.4475429396	 2.0233354514	-1.0432941466	 0.122092
H	-0.8006182992	 2.054119302	 0.2181985606	 0.121323
H	-0.5248338745	-0.4048515635	 0.5762438879	 0.105943
H	-0.94844939	-0.0759010907	-1.1130059826	 0.099213
H	 1.8567399654	-0.8618887801	-3.2248535177	 0.312593
H	 1.3214967585	-4.4135584248	-2.9531816926	 0.278714
H	 0.1902857438	-3.0417222935	 0.6906348341	 0.112574
26.5129	55.1005	126.8472	231.6804	256.1396	280.7585	334.3606	368.4751	401.7903	447.4652	518.4456	663.749	679.5186	710.4908	779.1244	815.339	868.2551	907.3173	949.4402	1065.4134	1098.4874	1135.784	1177.9955	1183.2205	1217.0748	1252.3098	1292.6992	1365.5157	1392.3726	1409.7273	1430.3911	1451.5805	1482.7004	1498.6837	1525.2235	1596.2535	1666.9963	2998.8075	3035.0557	3045.4237	3119.6391	3123.4149	3243.0274	3682.5558	3789.7461
CCOC1=C(O)NN=C1	CCOc1c(O)[nH]nc1	
InChI=1S/C5H8N2O2/c1-2-9-4-3-6-7-5(4)8/h3H,2H2,1H3,(H2,6,7,8)	InChI=1S/C5H8N2O2/c1-2-9-4-3-6-7-5(4)8/h3H,2H2,1H3,(H2,6,7,8)
