17
gdb 80316	3.60662	1.14112	1.11311	3.2903	81.36	-0.2432	-0.053	0.1902	1143.8438	0.13717	-380.866684	-380.858847	-380.857903	-380.899015	29.899	
C	-0.2099615643	 1.4915043475	 0.1101101052	-0.32365
N	 0.0483711292	 0.0697427405	-0.0558310615	-0.085165
C	 0.6705226928	-0.4651506901	-1.2494965411	-0.044671
C	 1.4768671172	 0.4488508056	-2.173214094	-0.340634
C	 2.6076339221	 0.943695633	-1.2817907804	 0.173116
C	 2.5714087636	 0.3674062768	-0.0667440546	-0.163735
C	 1.3907219786	-0.5223372485	 0.0786690494	-0.068759
C	 3.5492109612	 1.9153849876	-1.7134519117	 0.20798
N	 4.3077519857	 2.7015487149	-2.1004785828	-0.334348
H	 0.5778095403	 2.1642785588	-0.2551691556	 0.114566
H	-1.1378562713	 1.7303407396	-0.4188324728	 0.130558
H	-0.3648245008	 1.6946515333	 1.1739489938	 0.130843
H	 0.1826147196	-1.3336878075	-1.6822822187	 0.103065
H	 1.8683035509	-0.1092490106	-3.0307050381	 0.135794
H	 0.886044555	 1.2781599193	-2.5794485634	 0.135768
H	 3.2883405605	 0.5507371351	 0.7239607473	 0.126019
H	 1.4464982197	-1.4027635055	 0.7111387388	 0.103254
99.7727	163.9185	179.5048	244.5476	270.6721	365.1312	452.9441	501.2151	553.8779	565.8456	617.8498	706.0007	732.7906	837.306	868.5642	896.2071	930.6625	977.243	988.4301	1023.5836	1067.9066	1117.5961	1154.3384	1167.7502	1180.2379	1193.9045	1279.6607	1300.609	1316.3226	1336.6392	1376.8569	1449.5212	1470.112	1489.0498	1506.7515	1652.2835	2333.1533	3007.7774	3043.9197	3077.2521	3079.0697	3109.0127	3148.3578	3159.9414	3216.5497
CN1C2CC(=CC12)C#N	CN1[C@H]2CC(=C[C@@H]12)C#N	
InChI=1S/C7H8N2/c1-9-6-2-5(4-8)3-7(6)9/h2,6-7H,3H2,1H3	InChI=1S/C7H8N2/c1-9-6-2-5(4-8)3-7(6)9/h2,6-7H,3H2,1H3/t6-,7+,9?/m1/s1
