19
gdb 32226	2.54257	1.51829	0.95988	1.6534	88.96	-0.1815	0.0223	0.2038	1223.4295	0.162595	-382.133846	-382.125548	-382.124604	-382.166333	32.821	
C	 0.0396215299	 1.440056594	-0.0163925881	-0.322328
N	 0.0076281181	-0.006013131	 0.0920816709	-0.384512
C	-1.2202989419	-0.6794773139	 0.0546328469	 0.294449
C	-2.4607674763	-0.0423711502	 0.1042932302	-0.202512
C	-3.6451324281	-0.7814571737	 0.074060927	-0.123262
C	-3.6009591587	-2.1656930075	-0.0184054515	-0.12372
C	-2.3655621088	-2.8145023078	-0.0502421523	-0.176278
C	-1.1781658498	-2.0929094784	-0.0063469779	 0.227207
N	 0.0911599566	-2.7070994839	-0.0723093038	-0.607564
H	 1.0814971477	 1.7687416433	-0.0384590678	 0.120569
H	-0.4675751447	 1.8294312901	-0.9138311997	 0.114177
H	-0.4340458797	 1.8948962899	 0.8598104656	 0.133708
H	 0.6922201841	-0.4634307618	-0.4976680106	 0.239648
H	-2.5082444876	 1.0386816348	 0.1558707942	 0.084664
H	-4.59775651	-0.2639852424	 0.1110805906	 0.083577
H	-4.5159745217	-2.7468534114	-0.0499725635	 0.083618
H	-2.3197838757	-3.8993393102	-0.099421915	 0.073829
H	 0.0390035157	-3.7139748706	 0.0138718704	 0.239678
H	 0.7256597208	-2.3391857494	 0.6296192444	 0.245051
103.9423	186.0924	218.2553	245.0562	303.4871	327.023	349.9862	458.6206	498.6408	517.8001	571.3769	591.6544	676.3614	739.3539	760.5673	778.2101	824.827	858.5586	870.3503	894.8523	937.4505	1056.8349	1079.5794	1097.8319	1150.5696	1157.1385	1180.5084	1189.0276	1252.1284	1304.7099	1336.1898	1386.6643	1460.9254	1475.9033	1488.8449	1504.0168	1523.6226	1546.9966	1628.8929	1633.004	1661.8684	2974.127	3067.0681	3116.0835	3155.3753	3175.3418	3192.3133	3203.4478	3502.7501	3546.6021	3610.0419
CNC1=CC=CC=C1N	CNc1ccccc1N	
InChI=1S/C7H10N2/c1-9-7-5-3-2-4-6(7)8/h2-5,9H,8H2,1H3	InChI=1S/C7H10N2/c1-9-7-5-3-2-4-6(7)8/h2-5,9H,8H2,1H3
