17
gdb 67609	2.7337	2.19735	1.68312	1.2262	68.86	-0.2463	0.0828	0.3291	853.6292	0.138137	-421.791937	-421.785678	-421.784734	-421.822283	26.296	
C	-0.0150430134	 1.4688453771	 0.0300407774	-0.515517
C	 0.0434894894	-0.0318015002	 0.0239073784	 0.305982
C	-0.3557205501	-0.9308357156	-1.1230050524	 0.020258
O	 0.500975375	-2.0488091077	-1.2086296528	-0.234251
C	 0.7915563254	-2.2284447634	 0.1406650688	 0.051204
C	-0.4905128526	-2.0587912693	 1.0327999029	 0.030203
O	 0.3117060641	-1.3380580909	 2.0073876457	-0.289842
C	 1.0502978528	-0.8594525669	 0.8537574056	-0.037759
C	-1.1550022221	-0.9832096573	 0.1613541599	-0.17534
H	 0.9031330531	 1.905044772	-0.3795153937	 0.12357
H	-0.8519626278	 1.8357548288	-0.5729996241	 0.12
H	-0.1467227283	 1.8523550035	 1.0475211721	 0.133078
H	-0.7365694651	-0.5840920792	-2.075083052	 0.108989
H	 1.4617040682	-3.0628952761	 0.3229182592	 0.101744
H	-1.086801738	-2.8663707292	 1.4524741397	 0.08333
H	 2.0244952437	-0.4331158858	 1.0888967974	 0.078654
H	-2.1837136144	-0.6644524098	 0.2545649779	 0.095695
199.5594	210.8395	272.3228	485.6794	512.9124	593.7974	606.4092	694.4413	725.5187	768.6584	823.8866	837.8049	858.9828	869.3144	902.5088	930.5967	933.3741	969.6738	1001.9291	1022.9297	1030.9008	1069.6698	1095.5591	1121.7027	1125.8165	1174.9899	1209.2262	1221.0848	1241.5682	1245.7349	1286.602	1302.4811	1353.6612	1417.6546	1432.318	1489.3447	1500.01	3026.8673	3089.835	3097.5473	3134.5348	3145.0028	3181.9173	3202.1451	3217.6839
CC12C3OC4C(OC14)C23	C[C@@]12[C@H]3O[C@@H]4[C@@H](O[C@H]14)[C@@H]23	
InChI=1S/C7H8O2/c1-7-2-3-4(6(7)8-3)9-5(2)7/h2-6H,1H3	InChI=1S/C7H8O2/c1-7-2-3-4(6(7)8-3)9-5(2)7/h2-6H,1H3/t2-,3+,4-,5+,6+,7-/m1/s1
