18
gdb 128486	2.16931	1.77733	1.00106	4.7344	75.72	-0.2196	0.0173	0.2368	1180.9994	0.146816	-435.259873	-435.250211	-435.249267	-435.295328	33.05	
C	 0.2256800969	 1.2709008021	 0.4338881199	-0.252553
O	-0.2092950785	 0.3013649369	-0.5142929799	-0.2664
C	-1.268948876	-0.4550234631	-0.1687705417	 0.327839
C	-1.8965877589	-0.8437323136	 1.0024656457	 0.18227
C	-1.6218719945	-0.5570450991	 2.4455880254	-0.512752
N	-2.9285390156	-1.6633744821	 0.6398797357	-0.241706
N	-2.9678481801	-1.8042588347	-0.6515618964	-0.168367
N	-1.9565853525	-1.0628117464	-1.1645877135	-0.010476
C	-1.713190883	-1.0023253973	-2.5887208399	-0.331477
H	 1.0226100533	 1.8330444869	-0.0547060763	 0.142522
H	-0.5911800595	 1.9499176749	 0.7025880323	 0.134668
H	 0.6191460618	 0.798016738	 1.3393224352	 0.138256
H	-1.6345225811	 0.5122821174	 2.6797638409	 0.121424
H	-2.4017702947	-1.0394242238	 3.0392290525	 0.151012
H	-0.6567761164	-0.9579402052	 2.7752624687	 0.127359
H	-2.51833845	-1.5544588884	-3.0729692838	 0.165696
H	-1.7134962993	 0.0350700133	-2.9332577841	 0.145301
H	-0.751064672	-1.4575066158	-2.8405275806	 0.147385
41.4355	79.1944	125.0002	139.3294	187.4214	200.6528	270.2808	290.0583	313.8783	369.5563	535.7416	591.4749	688.7297	702.9365	721.2128	814.5483	998.7623	1033.6162	1067.6146	1071.581	1097.5601	1153.9238	1177.2434	1216.8794	1261.7891	1268.6952	1338.3742	1370.1121	1420.8473	1439.7027	1471.8043	1480.5574	1484.6485	1488.9049	1499.1685	1506.4794	1506.5518	1544.4598	1626.6302	3026.2692	3034.4179	3051.0853	3083.7747	3099.8807	3115.0172	3127.725	3143.93	3165.4502
COC1=C(C)N=NN1C	COc1c(C)nnn1C	
InChI=1S/C5H9N3O/c1-4-5(9-3)8(2)7-6-4/h1-3H3	InChI=1S/C5H9N3O/c1-4-5(9-3)8(2)7-6-4/h1-3H3
