17
gdb 84544	3.73784	1.32299	1.11313	4.2016	73.34	-0.2529	-0.0062	0.2466	1097.8404	0.137127	-421.869819	-421.862332	-421.861388	-421.901886	28.759	
C	-0.3510738032	 1.4059283151	-0.0448755654	-0.40463
C	 0.078445092	-0.0684829427	 0.0064446265	-0.049846
C	 0.9566677467	-0.4694677176	-1.1607782744	-0.064506
C	 2.1911189089	-0.8238514307	-0.7993864461	-0.090452
C	 2.3668603828	-0.7983115752	 0.6958285223	-0.272069
C	 0.9656790665	-0.3959339989	 1.217776259	 0.105665
O	 0.7657904073	-1.7600397583	 1.7277077451	-0.257856
C	 2.0345380963	-2.1452415154	 1.3668277796	 0.452208
O	 2.5615014901	-3.1906514289	 1.5629457736	-0.321708
H	 0.5202081037	 2.0693121437	-0.0330130173	 0.122798
H	-0.9147310751	 1.6156731963	-0.9588782032	 0.123566
H	-0.9872098925	 1.659070468	 0.8095362806	 0.122703
H	-0.8203097917	-0.6973528731	 0.0563445802	 0.107129
H	 0.5943424417	-0.4479216606	-2.1830813935	 0.104402
H	 2.9814274643	-1.1414075039	-1.4684937532	 0.114678
H	 3.2654767342	-0.3022033058	 1.0663567142	 0.111145
H	 0.8998823077	 0.315442528	 2.042233472	 0.096776
99.3511	141.7661	224.6725	268.2741	297.822	341.9755	480.36	532.6283	665.4423	707.9194	735.9949	790.2941	824.317	858.8666	874.253	931.4575	959.6643	976.6532	981.3603	1020.0839	1046.6676	1094.6983	1115.4329	1124.1623	1134.063	1195.3692	1250.4266	1275.2145	1300.108	1312.6186	1345.446	1381.4347	1410.7411	1495.1656	1499.9858	1670.2275	1937.172	3026.727	3033.062	3100.4943	3104.418	3108.0413	3111.4609	3187.7695	3217.8985
CC1C=CC2C1OC2=O	C[C@H]1C=C[C@H]2[C@@H]1OC2=O	
InChI=1S/C7H8O2/c1-4-2-3-5-6(4)9-7(5)8/h2-6H,1H3	InChI=1S/C7H8O2/c1-4-2-3-5-6(4)9-7(5)8/h2-6H,1H3/t4-,5-,6+/m0/s1
