21
gdb 121058	3.90252	0.80184	0.69176	3.6183	79.99	-0.2345	-0.0117	0.2228	1641.2843	0.181678	-424.253549	-424.244071	-424.243127	-424.28871	34.362	
C	 0.0383140347	 1.37591064	 0.0774733019	-0.226496
O	 0.0193409935	-0.0277913762	-0.0194444682	-0.235333
C	-1.2827024082	-0.568065246	 0.0342320356	-0.069308
C	-1.1894740959	-2.0785600546	-0.0975169492	-0.001039
C	-2.560933738	-2.7899758999	-0.0069350295	-0.238025
C	-2.3068007982	-4.1813877098	-0.6037515302	-0.320827
C	-1.1880283766	-3.9723918915	-1.6341548532	 0.395918
O	-0.8305343758	-4.7758277799	-2.4557058303	-0.312398
C	-0.6101259914	-2.567793538	-1.4349119698	-0.312915
H	 1.0825300294	 1.6939390049	 0.0293555702	 0.128887
H	-0.5163222094	 1.8508680339	-0.7475411393	 0.104042
H	-0.3967182339	 1.7261864046	 1.0271429954	 0.103697
H	-1.7750387038	-0.2945949748	 0.984281613	 0.084664
H	-1.9046154702	-0.1562740277	-0.7818341776	 0.080832
H	-0.5500315423	-2.4448243953	 0.7161961649	 0.087838
H	-2.9495594557	-2.8208381641	 1.0142558223	 0.105431
H	-3.2957328633	-2.2494195123	-0.6176502396	 0.103514
H	-1.9218728779	-4.8742807288	 0.1562548376	 0.131569
H	-3.1761315275	-4.6605806626	-1.0598258361	 0.127292
H	-0.9740242997	-1.9440745657	-2.2645353872	 0.125293
H	 0.4793160701	-2.5692298961	-1.4948124108	 0.137362
66.2581	80.8834	109.3832	120.4929	189.294	237.5309	319.8641	360.1022	423.3805	478.4243	488.811	567.7622	607.7534	732.6198	813.2386	871.3294	891.5946	948.7796	958.5573	990.1665	1005.2555	1084.0523	1116.0119	1149.525	1163.0339	1167.0926	1179.7357	1202.7141	1227.3919	1241.0839	1255.3903	1276.2389	1299.4141	1305.2631	1347.0741	1381.6129	1423.9645	1446.1935	1452.5178	1481.2353	1485.875	1498.6894	1503.9458	1525.6734	1847.501	2932.4217	2962.3872	2969.9	3012.3049	3015.9429	3023.0638	3032.7301	3036.6535	3093.1993	3109.0269	3114.9102	3122.1844
COCC1CCC(=O)C1	COC[C@H]1CCC(=O)C1	
InChI=1S/C7H12O2/c1-9-5-6-2-3-7(8)4-6/h6H,2-5H2,1H3	InChI=1S/C7H12O2/c1-9-5-6-2-3-7(8)4-6/h6H,2-5H2,1H3/t6-/m0/s1
