17
gdb 66031	2.56786	1.26498	1.12642	1.3375	81.01	-0.2549	0.0137	0.2686	1163.0311	0.132231	-384.602162	-384.592783	-384.591839	-384.636399	34.837	
C	-0.2011511368	 1.5746740819	-0.0055850663	-0.431809
C	-0.0327136421	 0.0608592257	 0.0263393979	 0.220371
O	 1.0916214182	-0.3590073954	-0.7982585321	-0.305841
C	 1.8517022184	-0.8112322819	 0.3348652893	-0.081788
C	 0.6746203733	-0.5451530546	 1.3072964493	-0.2978
C	 0.9051731123	 0.3091259728	 2.4493185295	 0.344544
C	 1.1085336553	 1.0214601241	 3.3967134901	-0.460713
C	-1.2616314069	-0.6283265124	-0.3472354558	 0.320833
C	-2.2800941597	-1.1969656799	-0.6376696981	-0.461076
H	 0.7251485175	 2.0639810258	 0.3033176641	 0.129258
H	-0.4500133995	 1.888282949	-1.0226695355	 0.135204
H	-1.0052790423	 1.8866064165	 0.6663244867	 0.133487
H	 2.1539215988	-1.859306154	 0.2389559367	 0.114749
H	 2.7355398157	-0.1894949952	 0.5155124605	 0.112103
H	 0.1803422167	-1.4685143249	 1.6156768099	 0.123997
H	 1.2846147216	 1.6467668884	 4.2368639183	 0.202485
H	-3.1773124606	-1.6998874959	-0.9030705545	 0.201998
47.9645	134.7449	140.1775	186.9836	218.6349	235.1221	318.7262	381.9992	449.5286	491.5418	540.651	572.5551	623.4546	626.8874	638.0127	648.0609	667.7091	764.7916	883.6872	908.9007	941.0391	1022.0786	1051.7688	1083.3008	1114.6751	1156.4829	1168.3555	1191.8719	1257.0707	1334.1393	1359.3455	1406.9958	1476.954	1484.0295	1526.551	2231.0092	2236.257	3031.0133	3050.8092	3076.2285	3093.4542	3129.9066	3137.0083	3499.9824	3502.3927
CC1(OCC1C#C)C#C	C[C@]1(OC[C@H]1C#C)C#C	
InChI=1S/C8H8O/c1-4-7-6-9-8(7,3)5-2/h1-2,7H,6H2,3H3	InChI=1S/C8H8O/c1-4-7-6-9-8(7,3)5-2/h1-2,7H,6H2,3H3/t7-,8+/m1/s1
