20
gdb 109805	1.96907	1.48982	1.00531	3.2976	75.91	-0.2328	0.0633	0.2961	1237.5903	0.169987	-440.217454	-440.207965	-440.207021	-440.25254	34.917	
O	 0.3355170057	 0.5061142844	 0.9306504678	-0.426197
C	-0.1633083315	 0.2410328802	-0.3756992252	-0.077345
C	-1.5256976198	-0.4146767213	-0.3675911231	-0.119434
C	-1.9236523626	-1.4098802315	-1.4414968465	 0.090362
O	-1.0105785353	-1.7983118408	-2.4203121373	-0.429667
C	-1.7028733246	-1.8909615819	-0.0286558162	-0.039459
N	-0.5207565388	-2.6966454002	 0.1400192906	-0.090685
C	-0.1275300182	-3.0470294668	 1.5064882736	-0.234158
C	-0.7181020654	-4.0690990988	 0.5995532793	-0.227939
H	 0.4826902616	-0.3454608536	 1.3535702466	 0.283549
H	-0.2372653462	 1.2175920527	-0.8649965807	 0.11252
H	 0.543419828	-0.3588827501	-0.9603140614	 0.094
H	-2.3232019337	 0.2223421779	 0.0057754337	 0.090867
H	-2.9361193775	-1.3680605897	-1.8317002379	 0.101648
H	-0.3346078807	-2.3186948069	-1.9623765618	 0.291829
H	-2.5668347763	-2.1665379984	 0.5798987875	 0.077934
H	 0.9402983011	-3.0461249142	 1.7081602605	 0.126571
H	-0.7516456479	-2.6812604975	 2.3191751723	 0.125734
H	-1.7379444126	-4.3885174083	 0.8031915996	 0.123151
H	-0.0870755453	-4.8204490854	 0.1346487386	 0.12672
48.8481	69.2631	127.2224	154.0349	213.557	254.4445	309.8154	336.3782	379.8762	466.081	565.3702	578.4176	640.9887	755.555	787.6208	814.3359	873.4468	886.7567	919.849	973.4326	1029.2877	1048.8904	1056.7157	1076.056	1098.3519	1117.5677	1124.4684	1126.4996	1145.525	1178.178	1188.898	1225.2793	1245.2015	1312.3924	1338.6982	1349.1998	1385.1286	1397.8678	1425.393	1461.5748	1491.3016	1501.0943	1517.9449	3036.624	3067.6012	3080.5256	3100.1493	3106.9916	3141.6071	3155.0577	3183.9979	3200.0796	3721.8227	3824.5005
OCC1C(O)C1N1CC1	OC[C@H]1[C@@H](O)[C@H]1N1CC1	
InChI=1S/C6H11NO2/c8-3-4-5(6(4)9)7-1-2-7/h4-6,8-9H,1-3H2	InChI=1S/C6H11NO2/c8-3-4-5(6(4)9)7-1-2-7/h4-6,8-9H,1-3H2/t4-,5+,6-/m1/s1
