20
gdb 7371	3.4635	1.20866	0.94528	2.8073	72.5	-0.2402	-0.0113	0.2289	1268.4367	0.173001	-386.161489	-386.151253	-386.150308	-386.197689	35.335	
C	-0.8500178213	 0.9374649489	 0.1269909573	-0.385065
C	 0.1107142249	-0.2236646477	-0.0670636687	-0.037209
O	 0.4665616352	-0.7247302143	 1.2094382109	-0.258316
C	 1.2588526712	-1.8969657649	 1.1982616196	 0.037118
C	 2.7207893451	-1.6469391609	 0.821834214	-0.401234
C	 1.1465198565	-2.5737094808	 2.5775374858	 0.36435
C	-0.0019874894	-2.1541276116	 3.4676648857	-0.4683
O	 1.9423914093	-3.4263232244	 2.897414966	-0.305274
H	-0.3781420743	 1.7309039526	 0.7134595662	 0.128751
H	-1.1463825321	 1.3518425003	-0.8411785359	 0.117421
H	-1.7494503904	 0.6093415493	 0.6556746817	 0.12514
H	-0.3607336289	-1.022834745	-0.6635941555	 0.087457
H	 1.0024498594	 0.1091220529	-0.6190454427	 0.095544
H	 0.8246502022	-2.6243621104	 0.4861558288	 0.090856
H	 3.2927962383	-2.5627706442	 0.9806018629	 0.146574
H	 2.8195381365	-1.3451219003	-0.2238217654	 0.113757
H	 3.1402497998	-0.858433512	 1.4539728932	 0.124749
H	-0.9548888936	-2.2640009698	 2.9401422383	 0.138753
H	 0.0043927911	-2.7587295151	 4.3750890657	 0.132419
H	 0.0865137206	-1.0915861927	 3.7130780919	 0.15251
33.4551	60.676	88.1713	156.1572	162.7505	202.0241	250.2271	274.8969	328.6087	375.5437	414.3742	461.7561	559.0826	605.9302	755.9172	823.3401	863.028	931.3325	965.3074	977.8185	1063.5783	1095.5105	1119.2215	1149.8894	1164.3988	1189.2025	1223.5735	1300.2707	1329.4257	1344.7351	1380.9889	1393.7483	1402.409	1434.4633	1454.6055	1466.5946	1483.9545	1490.9964	1495.8695	1500.4173	1529.548	1812.4773	2928.6482	2963.8016	3004.1805	3045.2979	3049.0621	3050.9175	3112.2841	3120.1762	3121.6496	3122.2819	3146.2477	3157.9027
CCOC(C)C(C)=O	CCO[C@@H](C)C(=O)C	
InChI=1S/C6H12O2/c1-4-8-6(3)5(2)7/h6H,4H2,1-3H3	InChI=1S/C6H12O2/c1-4-8-6(3)5(2)7/h6H,4H2,1-3H3/t6-/m0/s1
