18
gdb 85611	2.26545	1.74807	1.1727	4.2891	73.92	-0.2506	0.0032	0.2538	1079.0631	0.149016	-439.125073	-439.116714	-439.11577	-439.158671	31.28	
C	-0.3358447008	 1.5019849992	-0.0361143774	-0.384795
C	 0.0762605534	 0.0178882753	 0.0447969686	-0.032377
N	 0.804211788	-0.4322088085	-1.1507423803	-0.346187
C	 1.9861673414	 0.1045673308	-1.6094716436	 0.408706
O	 2.2768911476	 0.1903978369	-2.7749175679	-0.363546
O	 2.8328857727	 0.5487935294	-0.6338744007	-0.233647
C	 3.1445272128	-0.3300888086	 0.4535078333	-0.138632
C	 2.090068795	-0.4465764219	 1.5156022798	-0.064691
C	 0.7836955927	-0.2851785793	 1.3406202301	-0.036048
H	 0.5538148829	 2.1362669121	-0.0677165407	 0.144793
H	-0.935513138	 1.6885015264	-0.9323585149	 0.11887
H	-0.9286867206	 1.7857961184	 0.8391666469	 0.118574
H	-0.8408333493	-0.5836965109	 0.0455578142	 0.098146
H	 0.2091551034	-0.678109846	-1.9293397748	 0.253177
H	 3.4126622532	-1.3192975858	 0.0553984478	 0.129618
H	 4.0536293665	 0.0932799745	 0.891077001	 0.130993
H	 2.4680494447	-0.6835710007	 2.5074807304	 0.09822
H	 0.1256517746	-0.3524068914	 2.2034404782	 0.098825
38.2251	110.8472	196.0387	244.3805	255.7496	317.668	402.3312	427.2091	509.3473	523.7935	628.6041	710.6688	739.1373	752.0869	819.6789	855.3109	869.5759	921.2321	983.3827	999.9322	1033.2838	1039.5404	1103.0552	1116.9742	1171.0584	1241.3252	1282.3587	1294.1226	1325.2392	1392.156	1401.6342	1418.6528	1431.249	1472.1787	1486.7812	1490.9354	1505.1569	1749.8901	1839.7721	3006.1032	3030.067	3038.1042	3080.1185	3109.4081	3128.3725	3146.2367	3168.9549	3602.7143
CC1NC(=O)OCC=C1	C[C@H]1NC(=O)OCC=C1	
InChI=1S/C6H9NO2/c1-5-3-2-4-9-6(8)7-5/h2-3,5H,4H2,1H3,(H,7,8)	InChI=1S/C6H9NO2/c1-5-3-2-4-9-6(8)7-5/h2-3,5H,4H2,1H3,(H,7,8)/t5-/m1/s1
