16
gdb 54819	2.96128	1.51865	1.40163	4.8965	68.23	-0.2409	0.0062	0.2471	972.0415	0.125518	-434.07189	-434.063905	-434.062961	-434.105168	29.426	
N	-0.0355180379	 1.3368466973	 0.1492302806	-0.525455
C	 0.0801768234	-0.0202790808	 0.0559886113	 0.40284
O	 1.1423396702	-0.602864428	 0.1211395415	-0.349818
C	-1.2595380791	-0.7243501771	-0.0537927149	-0.144878
C	-1.992337812	-0.9236667122	-1.3388542776	-0.05662
C	-1.2521348985	-0.791314716	-2.6703837635	-0.193054
N	-0.1882207172	-1.8095296727	-2.626973071	-0.195658
C	-0.2818168236	-2.4052331541	-1.5104107261	 0.058111
N	-1.3730444095	-2.0750245742	-0.6330255499	-0.1342
H	 0.8077898952	 1.88300668	 0.2205459997	 0.267593
H	-0.9052922306	 1.8101722989	-0.0227934822	 0.26394
H	-1.866706653	-0.5950766134	 0.8415679695	 0.124736
H	-3.0771997315	-0.8826295267	-1.3277031544	 0.103245
H	-1.9252820224	-0.9902419522	-3.5118114482	 0.122028
H	-0.8075274376	 0.1962030786	-2.8413620119	 0.118392
H	 0.3893469941	-3.1955706474	-1.1955572329	 0.138795
37.3127	133.56	163.8453	191.9007	281.8475	371.363	448.573	502.9171	566.1115	661.1504	686.9974	726.179	784.8308	824.9714	867.1764	874.9286	956.6695	960.5849	984.8755	1028.4592	1047.8144	1085.3442	1107.444	1114.2053	1208.6571	1258.0172	1289.687	1310.7853	1323.1701	1367.4412	1413.9705	1488.703	1614.7741	1685.8244	1800.668	3035.9656	3066.9977	3112.7865	3156.4273	3218.8577	3598.7012	3735.4156
NC(=O)C1C2CN=CN12	NC(=O)[C@H]1[C@H]2CN=CN12	
InChI=1S/C5H7N3O/c6-5(9)4-3-1-7-2-8(3)4/h2-4H,1H2,(H2,6,9)	InChI=1S/C5H7N3O/c6-5(9)4-3-1-7-2-8(3)4/h2-4H,1H2,(H2,6,9)/t3-,4-,8?/m1/s1
