20
gdb 116428	2.43736	1.36314	0.92851	1.9186	75.68	-0.2208	-0.0133	0.2075	1266.834	0.172201	-440.30283	-440.293946	-440.293002	-440.336521	33.434	
O	-0.1642489392	 1.4466187982	-0.0482488103	-0.434655
C	 0.0106442604	 0.0335666255	 0.0052593693	-0.099734
C	-1.3808880269	-0.5775837008	-0.0209352607	-0.053721
N	-2.0629372214	-0.2173438325	-1.2659506184	-0.307336
C	-3.4384809951	-0.6960210673	-1.3227118081	-0.152753
C	-3.4308162022	-2.2258462729	-1.35056176	-0.186433
C	-2.6835226569	-2.7865482997	-0.1253039276	-0.300659
C	-1.342936986	-2.1038226219	 0.094203288	 0.408387
O	-0.3317535158	-2.7078538548	 0.3685109497	-0.314879
H	 0.6975799128	 1.8517729604	-0.1772921594	 0.291666
H	 0.5806415509	-0.3351749162	-0.8576724852	 0.105115
H	 0.5317871079	-0.2788975945	 0.918596751	 0.105276
H	-1.9318381617	-0.2083531482	 0.8714089652	 0.075628
H	-2.0131024906	 0.7907325933	-1.3664288478	 0.233716
H	-4.048792256	-0.3487681008	-0.4650750275	 0.075896
H	-3.9059474994	-0.3039330765	-2.2316107572	 0.101287
H	-4.454043041	-2.6148903561	-1.3741524873	 0.098688
H	-2.9290757831	-2.5563317419	-2.2664306989	 0.115673
H	-3.2833759677	-2.5925416977	 0.7766061335	 0.119025
H	-2.5217049491	-3.8653299656	-0.1866687583	 0.119813
85.5124	118.7973	148.2886	192.8811	251.5093	318.3749	330.6197	354.9012	429.6219	454.9603	541.6791	561.6854	668.3401	784.412	805.8977	847.4786	877.2086	909.869	989.1431	1003.1541	1056.363	1073.7714	1093.5038	1116.5888	1152.6606	1162.3786	1185.914	1230.2122	1249.8128	1264.4724	1290.3117	1316.6089	1336.5857	1354.3667	1373.3981	1408.5063	1456.8187	1464.7671	1482.3836	1488.9809	1502.7456	1506.8849	1815.5203	2865.9811	2902.3713	3007.8198	3013.9035	3042.1194	3057.5127	3070.7818	3087.7701	3105.7655	3535.2666	3840.4052
OCC1NCCCC1=O	OC[C@H]1NCCCC1=O	
InChI=1S/C6H11NO2/c8-4-5-6(9)2-1-3-7-5/h5,7-8H,1-4H2	InChI=1S/C6H11NO2/c8-4-5-6(9)2-1-3-7-5/h5,7-8H,1-4H2/t5-/m1/s1
