21
gdb 31239	1.8559	1.58769	0.95753	1.2486	86.58	-0.1851	0.0533	0.2384	1308.1239	0.1835	-383.302977	-383.293202	-383.292258	-383.33836	35.833	
C	-0.201314277	 1.6968778382	 0.0389896384	-0.361046
C	-0.1394599441	 0.1818556427	-0.2213880686	-0.305054
C	-1.4649414943	-0.509316554	-0.077834875	 0.248614
C	-2.2060686185	-1.0902669103	-1.0919139575	 0.175
N	-1.9845729408	-1.2574125929	-2.4740720912	-0.391055
C	-2.4415712184	-0.156482402	-3.3311697882	-0.325894
N	-3.3633035596	-1.5890821516	-0.5366228276	-0.257988
C	-3.3774417031	-1.3455856924	 0.8125101865	-0.089266
C	-2.2143552387	-0.6849232369	 1.1264892381	-0.243956
H	 0.787054668	 2.1570257485	-0.0656111914	 0.103411
H	-0.8835170359	 2.1866049525	-0.6632477715	 0.114682
H	-0.565434976	 1.9059178256	 1.0498269817	 0.118085
H	 0.2539571908	 0.0086145227	-1.231156986	 0.079094
H	 0.5916897832	-0.2647635125	 0.46563687	 0.101163
H	-1.0085644659	-1.4579724784	-2.653627976	 0.230718
H	-3.5222859293	-0.0333599601	-3.2147856885	 0.124971
H	-1.9675360323	 0.8111291405	-3.1052797446	 0.110101
H	-2.2423853677	-0.4091892066	-4.3772362066	 0.115428
H	-4.0370932395	-2.1247159514	-1.0557933377	 0.256011
H	-4.2034732328	-1.6620907432	 1.4285841366	 0.111977
H	-1.925454158	-0.3535032785	 2.1131933288	 0.085002
41.8267	67.6794	146.1954	165.5897	170.6352	208.8327	286.2869	332.4809	410.5023	461.3204	500.1602	606.267	647.4873	664.7987	688.7364	731.4504	779.8316	794.1827	822.4007	911.0321	967.483	1018.5235	1054.8023	1078.8645	1091.7038	1109.5475	1141.9939	1162.1524	1193.7177	1267.6405	1282.4334	1323.9021	1358.9308	1406.6528	1430.5757	1445.1335	1456.7879	1481.6193	1485.5927	1495.3964	1498.1775	1505.1031	1511.3134	1524.9791	1626.8394	2982.9613	3010.5168	3031.5624	3041.8989	3071.5793	3101.0188	3107.1275	3110.2314	3234.1261	3267.3372	3551.1865	3679.8644
CCC1=C(NC)NC=C1	CCc1c(NC)[nH]cc1	
InChI=1S/C7H12N2/c1-3-6-4-5-9-7(6)8-2/h4-5,8-9H,3H2,1-2H3	InChI=1S/C7H12N2/c1-3-6-4-5-9-7(6)8-2/h4-5,8-9H,3H2,1-2H3
