22
gdb 78393	3.73858	1.18377	1.04513	1.4945	86.74	-0.2102	0.0634	0.2736	1260.6823	0.192994	-367.123331	-367.114293	-367.113348	-367.156255	35.905	
C	-0.1841792771	 1.4031766706	-0.1260199017	-0.421707
C	-0.0378815893	-0.1069164604	-0.0967199542	-0.039883
C	 0.633427933	-0.7102093311	-1.3012058079	-0.086013
C	 1.3893691313	-0.5926419617	 0.0048059719	-0.02308
N	 1.7231887801	-2.0694874987	 0.0469633795	-0.195187
C	 0.8970393297	-2.2225778356	-1.2147324932	-0.09681
C	 0.5402145464	-2.9791957236	 0.0169233219	 0.337832
C	 1.0587561982	-4.4124684113	-0.0200760202	-0.439787
C	-0.7081901183	-2.8540303351	 0.89137061	-0.493755
H	 0.6694464994	 1.8764306782	-0.6231950125	 0.117588
H	-1.0892539206	 1.6992669084	-0.6672349226	 0.119652
H	-0.2487114175	 1.811427969	 0.8881057596	 0.120416
H	-0.8567785978	-0.6058379392	 0.3970059217	 0.081915
H	 0.7725299744	-0.1594988536	-2.2230708073	 0.088849
H	 2.1914499128	 0.0764256196	 0.2926731688	 0.09791
H	 1.3183942892	-2.7442026532	-2.0717793567	 0.086901
H	 1.9730103559	-4.4863185	-0.6132215903	 0.125688
H	 1.285166429	-4.7565925762	 0.9945178549	 0.120713
H	 0.3028214827	-5.0807860469	-0.4472945299	 0.111841
H	-1.584128699	-2.5153100223	 0.3328200114	 0.133992
H	-0.9528827111	-3.8341602212	 1.3107141513	 0.113806
H	-0.5480332615	-2.1765883656	 1.7333413855	 0.13912
107.8414	193.2553	206.7067	219.7857	252.1656	278.6934	294.3023	356.4128	382.4411	408.1888	486.1296	607.0673	653.8365	721.5973	760.3543	770.9786	842.1479	873.93	887.1037	955.8641	985.9537	992.5458	1018.7805	1028.0238	1038.2389	1046.9707	1072.0347	1083.2302	1116.9805	1130.0941	1146.5666	1194.9772	1222.3823	1256.1717	1292.4791	1309.3388	1387.967	1404.4965	1411.4975	1416.5112	1425.329	1489.186	1495.5939	1496.0781	1499.7837	1507.7513	1512.0135	3028.3201	3031.8427	3046.4729	3093.8948	3097.1217	3097.7994	3106.565	3120.0626	3124.5349	3127.0841	3175.7564	3189.9541	3235.5093
CC1C2C1N1C2C1(C)C	C[C@H]1[C@H]2[C@@H]1N1[C@H]2C1(C)C	
InChI=1S/C8H13N/c1-4-5-6(4)9-7(5)8(9,2)3/h4-7H,1-3H3	InChI=1S/C8H13N/c1-4-5-6(4)9-7(5)8(9,2)3/h4-7H,1-3H3/t4-,5-,6+,7+,9?/m0/s1
