21
gdb 83701	2.64118	1.52264	1.12465	2.291	83.53	-0.2341	0.0167	0.2508	1156.0228	0.183243	-387.091688	-387.083124	-387.08218	-387.124777	33.042	
C	-0.7050042743	 1.346353065	 0.09030426	-0.407969
C	-0.07428785	-0.0502225923	-0.013976621	-0.086795
C	 0.8218786983	-0.2886991778	-1.2491408164	-0.093656
C	 1.8406366346	 0.7934504047	-1.6849140725	-0.084833
O	 2.9665649346	-0.040459949	-1.3402202724	-0.296425
C	 2.0839907994	-1.0432348421	-0.7637924378	 0.090493
C	 1.9831793463	-0.9849371618	 0.7320491829	-0.201539
C	 0.838772969	-0.4332745654	 1.1489239719	 0.325643
C	 0.4172741863	-0.2292906822	 2.5713089045	-0.493374
H	 0.0510864423	 2.1289605051	 0.2050141022	 0.121779
H	-1.2928030142	 1.5742944531	-0.8048790888	 0.116047
H	-1.3791616324	 1.4094116514	 0.9500801042	 0.116869
H	-0.9070494836	-0.7700953944	-0.0454006781	 0.079044
H	 0.2823613177	-0.7315958973	-2.0870371715	 0.074604
H	 1.838939273	 1.0459087791	-2.7517672657	 0.099647
H	 1.8257366252	 1.724291802	-1.104418972	 0.096232
H	 2.3199425967	-2.0361509144	-1.1636226804	 0.072833
H	 2.7694572571	-1.348383724	 1.3854439603	 0.089638
H	 1.1622017521	-0.6185883916	 3.2699513554	 0.125804
H	 0.2649164738	 0.8332601601	 2.7960690859	 0.13129
H	-0.5381486817	-0.7298776682	 2.7758968994	 0.124668
74.7148	153.0972	187.1227	219.5105	246.849	268.6356	336.7529	407.614	459.8406	544.5192	622.1459	655.4494	760.1416	790.5913	850.8374	872.0063	907.5214	954.2221	988.1063	992.8104	1011.0998	1020.9884	1027.4341	1058.3236	1067.3227	1124.834	1145.9889	1165.5823	1181.9846	1231.1141	1269.7525	1289.666	1312.2535	1333.4779	1340.4851	1352.4641	1373.7956	1408.0851	1413.1855	1479.2082	1484.927	1499.0179	1503.6839	1520.7068	1706.7084	2975.0791	3015.4125	3019.5052	3036.0865	3037.9862	3055.2623	3067.4264	3101.1105	3102.0651	3108.6067	3114.4084	3186.7556
CC1C2COC2C=C1C	C[C@H]1[C@H]2CO[C@H]2C=C1C	
InChI=1S/C8H12O/c1-5-3-8-7(4-9-8)6(5)2/h3,6-8H,4H2,1-2H3	InChI=1S/C8H12O/c1-5-3-8-7(4-9-8)6(5)2/h3,6-8H,4H2,1-2H3/t6-,7-,8+/m1/s1
