16
gdb 67496	2.45721	1.65442	1.2374	3.5451	73.1	-0.2351	0.0203	0.2554	1020.0952	0.123805	-400.678406	-400.670726	-400.669782	-400.710288	30.263	
O	-0.0728865637	 1.3586254892	-0.0050208614	-0.447008
C	 0.0189703193	-0.0122853592	-0.0585094212	 0.368046
C	 0.6324576392	-0.7361038477	-1.2945827049	-0.13241
C	 0.8931688387	-2.2043024636	-1.110780032	-0.326336
C	-0.5247836381	-1.7261665196	-1.2563110816	-0.047395
C	-1.1176223135	-0.9915923483	-0.0222576885	-0.144865
C	-0.2012034443	-0.854483188	 1.1967551442	-0.244405
C	 0.6404543733	-1.8348721715	 1.8305348031	 0.284385
N	 1.3103496272	-2.5881251593	 2.4002728551	-0.356502
H	 0.7927045856	 1.7150596311	 0.2303071012	 0.294622
H	 0.9925976414	-0.1629723881	-2.1387253184	 0.103988
H	 1.2776783907	-2.6883961808	-2.004563666	 0.121459
H	 1.2848164569	-2.6226958792	-0.1943611672	 0.162208
H	-1.1592460999	-2.0352793665	-2.0759652301	 0.10378
H	-2.1770620316	-0.8047640254	 0.0956793003	 0.114909
H	-0.6917192713	-0.227739623	 1.9395766173	 0.145523
121.0421	169.6422	228.4194	287.8135	343.4495	381.1791	401.3025	445.8255	547.682	605.4291	659.6141	706.5748	760.3642	766.2911	852.3524	876.0494	911.0472	934.9279	970.0597	992.4958	1026.1189	1057.2095	1059.9505	1087.8972	1096.7891	1176.2717	1192.8032	1227.7163	1278.8786	1299.6995	1332.5466	1342.3275	1471.2782	1499.2182	2338.4021	3134.3399	3139.5138	3195.9228	3201.993	3208.9828	3241.2831	3773.5335
OC12C3CC3C1C2C#N	O[C@]12[C@H]3C[C@H]3[C@H]1[C@H]2C#N	
InChI=1S/C7H7NO/c8-2-5-6-3-1-4(3)7(5,6)9/h3-6,9H,1H2	InChI=1S/C7H7NO/c8-2-5-6-3-1-4(3)7(5,6)9/h3-6,9H,1H2/t3-,4+,5-,6+,7+/m1/s1
