15
gdb 24572	2.30507	2.04656	1.26233	1.2697	78.34	-0.2187	-0.0364	0.1823	970.6458	0.113639	-416.791306	-416.783932	-416.782987	-416.823139	27.857	
O	 0.7694401349	 0.8117982259	-0.5507653607	-0.203322
C	 0.7694377486	 2.0751410234	 0.0058299591	 0.001087
C	 1.2552743832	 2.4366648322	 1.1979688734	-0.028737
N	 1.8164206728	 1.7026506479	 2.2220570626	-0.205028
C	 1.1540459116	 0.9652059709	 3.0354227047	-0.024875
C	-0.2832602538	 0.7273611101	 3.0439091369	-0.141284
C	-1.0312667983	 0.2388496458	 2.0314159848	-0.014173
N	-0.6181616547	-0.4564894834	 0.9281210059	-0.237643
C	 0.1491587673	-0.277207119	-0.0502658513	 0.140989
H	 0.5028530926	 2.8236946292	-0.7299559288	 0.12009
H	 1.3270677325	 3.5127124299	 1.3526947996	 0.122892
H	 1.7345651941	 0.5425300397	 3.8610840578	 0.114561
H	-0.7922082497	 0.9288071865	 3.9834156728	 0.102468
H	-2.1058741243	 0.1578225571	 2.1897899799	 0.116501
H	 0.370990493	-1.1130264662	-0.7117965668	 0.136475
130.5915	153.4305	181.6966	245.5665	352.3283	372.6452	481.1202	521.0883	628.863	680.7561	740.261	778.1784	819.0194	847.9794	880.7955	904.8891	937.952	962.942	965.356	981.6571	1042.442	1089.6257	1180.4025	1278.7223	1322.9664	1394.3451	1428.9049	1440.4829	1465.8457	1627.4968	1671.4644	1703.2438	1800.7801	3075.7794	3131.5489	3135.7992	3154.8943	3159.9215	3210.0715
O1C=CN=CC=CN=C1	O1C=CN=C[CH][CH]N=C1	
InChI=1S/C6H6N2O/c1-2-7-4-5-9-6-8-3-1/h1-6H/b3-1-,5-4-,7-2-,8-6-	InChI=1S/C6H6N2O/c1-2-7-4-5-9-6-8-3-1/h1-6H/b3-1?,5-4-,7-2-,8-6-
