15
gdb 25024	4.25451	1.16759	0.9866	2.74	70.52	-0.2162	0.0174	0.2336	1164.8661	0.113123	-453.924779	-453.917375	-453.916431	-453.957196	27.893	
N	-0.3570526925	 0.8711545451	 0.837314043	-0.579511
C	-0.1219796932	-0.2520579354	 0.3269892095	 0.503886
O	 0.9972423756	-0.6611779143	-0.3556881184	-0.221141
C	 0.7866710979	-1.9823014661	-0.7217868255	-0.146572
C	-0.4073809464	-2.3725180732	-0.2858660366	 0.374815
O	-1.0010688237	-1.2928501385	 0.3814080211	-0.234729
N	-1.0679128582	-3.5786615664	-0.3950095686	-0.20165
C	-1.921847587	-4.0141283222	 0.7260120449	-0.229426
C	-2.5347199053	-3.5630961858	-0.5491833895	-0.229427
H	 0.4253481926	 1.5021628628	 0.6844541403	 0.236362
H	 1.5622874664	-2.4824122016	-1.2714988507	 0.164489
H	-1.8505122161	-5.0722693747	 0.9561480815	 0.132549
H	-2.0028590735	-3.3494182898	 1.5801457625	 0.148904
H	-3.0269088606	-2.5957829418	-0.550587967	 0.148902
H	-2.9160935958	-4.2880716282	-1.2609966062	 0.132549
73.7274	135.0865	166.2003	239.6834	399.6539	430.1752	514.5381	591.7413	656.1982	731.1357	743.3545	752.6759	777.9652	820.5583	842.9731	899.3817	916.5514	973.7507	1016.3664	1041.5787	1092.5378	1117.7321	1138.5668	1155.438	1184.7854	1198.3115	1215.018	1340.2909	1359.5677	1486.3796	1511.7862	1755.8392	1818.8714	3124.8823	3128.0261	3213.9279	3228.1061	3316.6831	3545.0587
N=C1OC=C(O1)N1CC1	[NH][C@H]1OC=C(O1)N1CC1	
InChI=1S/C5H6N2O2/c6-5-8-3-4(9-5)7-1-2-7/h3,6H,1-2H2	InChI=1S/C5H7N2O2/c6-5-8-3-4(9-5)7-1-2-7/h3,5-6H,1-2H2/t5-/m0/s1
