18
gdb 49658	2.63019	1.69536	1.48074	2.1985	76.22	-0.2321	-0.0354	0.1967	964.8575	0.148925	-401.907395	-401.899889	-401.898945	-401.939659	29.042	
O	-1.0471296592	 1.0948063481	-0.2767308104	-0.271828
C	 0.1537137558	 0.9370988766	-0.2639949786	 0.127885
C	 1.2141710492	 1.9176254194	 0.0674406517	-0.11883
C	 1.1530140266	 3.4159374535	-0.2576420577	-0.077352
C	-0.2123601359	 4.1213406429	-0.2738884155	-0.264036
C	-0.5907055204	 4.2848746548	 1.2038204776	-0.017165
C	-0.978313902	 3.1065009353	 2.0192121535	-0.262981
N	 0.4130975853	 3.59732966	 2.0486157163	-0.109437
C	 1.3966806008	 3.0207354254	 1.1585632069	-0.021328
H	 0.5787992661	-0.040706989	-0.5844823538	 0.087487
H	 2.1889017949	 1.48758038	-0.1531124006	 0.096974
H	 1.9335860033	 3.79574785	-0.9081225072	 0.100975
H	-0.1000091274	 5.1020925971	-0.7437416944	 0.1102
H	-0.9655330815	 3.5663650302	-0.8382741877	 0.14069
H	-0.8863343935	 5.2767560374	 1.5370352648	 0.091031
H	-1.5109046258	 3.2663247566	 2.9535179583	 0.11116
H	-1.2054513336	 2.1831210452	 1.5082348455	 0.166017
H	 2.3927880773	 3.0016648965	 1.5868200714	 0.110536
67.1849	136.8372	212.2213	232.8296	349.6588	378.8128	510.8194	638.9557	664.0581	716.3474	744.3251	777.4704	802.3112	840.0703	872.8891	904.0984	920.0585	958.5617	1005.9546	1045.2178	1053.2735	1086.9533	1102.3409	1108.7514	1126.0958	1128.8962	1166.0735	1217.2938	1231.4247	1296.8859	1303.2598	1326.9029	1361.1624	1391.4411	1419.8991	1448.2991	1483.8423	1509.3857	1794.7884	2873.4494	3067.939	3110.0204	3121.1555	3128.071	3135.2017	3160.3312	3171.8022	3266.7089
O=CC1C2CC3CN3C12	O=C[C@H]1[C@H]2C[C@H]3CN3[C@@H]12	
InChI=1S/C7H9NO/c9-3-6-5-1-4-2-8(4)7(5)6/h3-7H,1-2H2	InChI=1S/C7H9NO/c9-3-6-5-1-4-2-8(4)7(5)6/h3-7H,1-2H2/t4-,5+,6-,7+,8?/m0/s1
