23
gdb 94056	4.14813	0.91367	0.79031	0.8243	92.21	-0.2549	0.0615	0.3165	1504.8337	0.206379	-351.156085	-351.14677	-351.145826	-351.189694	36.701	
C	-0.0204403734	 1.5772758106	 0.0106934952	-0.404058
C	 0.0170737276	 0.0465143654	 0.0021537134	 0.058308
C	 0.6922262232	-0.4991427654	-1.267341214	-0.201069
C	 0.752360822	-2.0316108202	-1.2851945702	-0.202183
C	 1.4607380456	-2.583047586	-0.0257750011	-0.159853
C	 0.776760526	-2.0451751594	 1.2528480608	-0.202182
C	 0.7164722331	-0.5126109447	 1.2525202142	-0.201072
C	 1.5142457302	-4.0414091309	-0.0340741743	 0.295191
C	 1.5353573395	-5.2438263738	-0.0407905428	-0.43832
H	 0.9936956511	 1.9942398846	 0.0031614573	 0.111289
H	-0.5459050275	 1.9681023181	-0.8672821181	 0.109348
H	-0.5288695051	 1.9586430724	 0.9027464041	 0.109348
H	-1.0206366499	-0.3208586936	 0.0101737243	 0.067928
H	 0.1628302214	-0.1393560193	-2.157625812	 0.090251
H	 1.7126353293	-0.0931482203	-1.3304217602	 0.089883
H	-0.2632412799	-2.445588325	-1.3230295759	 0.103368
H	 1.2689783443	-2.3873203559	-2.1823919112	 0.101962
H	 2.4944051672	-2.2048241866	-0.033687222	 0.098353
H	-0.2379719118	-2.4596322867	 1.3057696452	 0.103368
H	 1.3104961778	-2.4104064717	 2.1360907308	 0.101961
H	 1.7379500008	-0.1072126121	 1.3002935272	 0.089883
H	 0.2043413189	-0.1624143269	 2.1566191675	 0.090251
H	 1.5653318599	-6.3050179524	-0.046761608	 0.188046
79.7645	137.4028	195.2298	214.2211	236.86	303.1418	310.6662	352.0578	425.4948	443.3704	497.3387	531.8664	567.7886	622.6486	630.8271	766.2473	791.3872	832.5927	894.8413	929.074	942.7398	970.2229	1005.6709	1014.3914	1051.846	1068.2493	1097.4876	1100.2662	1163.243	1179.5737	1243.171	1263.2405	1274.7637	1319.642	1324.5449	1334.6462	1335.1295	1354.2526	1378.6722	1389.487	1399.3117	1413.1765	1478.3418	1485.6449	1489.3132	1496.6378	1499.94	1500.263	2233.5565	2982.4727	2986.9353	2999.621	3007.0237	3024.1117	3027.2746	3031.6439	3053.792	3057.8811	3077.2638	3080.4542	3089.7626	3095.8053	3505.6903
CC1CCC(CC1)C#C	C[C@H]1CC[C@@H](CC1)C#C	
InChI=1S/C9H14/c1-3-9-6-4-8(2)5-7-9/h1,8-9H,4-7H2,2H3	InChI=1S/C9H14/c1-3-9-6-4-8(2)5-7-9/h1,8-9H,4-7H2,2H3/t8-,9-
