17
gdb 71745	2.86361	2.30338	1.71501	0.9158	68.71	-0.2483	0.088	0.3363	830.6635	0.137993	-421.795906	-421.789754	-421.78881	-421.826014	26.385	
C	 0.0429329012	 1.4863439285	-0.0956136706	-0.501902
C	 0.0406624788	-0.0139124513	-0.0368266803	 0.403533
O	 0.4673296643	-0.6237835376	-1.2206599698	-0.273575
C	 0.3592356576	-1.9817890732	-0.8679567804	 0.060799
C	-0.7905463903	-2.185088088	 0.0890015438	-0.126811
C	 0.6550106784	-2.167226292	 0.6007939128	-0.126811
C	 0.6480553206	-0.7587249652	 1.2143706416	-0.003616
O	-0.6322386226	-0.6253544163	 1.885121667	-0.292558
C	-1.2020895882	-0.7815856496	 0.5593343889	-0.003613
H	 1.0496524293	 1.8645541052	-0.2967450369	 0.12876
H	-0.6211552788	 1.8439135184	-0.8881491434	 0.128759
H	-0.3005462658	 1.8873816708	 0.8607616105	 0.140368
H	 0.6444521168	-2.6731160999	-1.649423593	 0.110039
H	-1.4384723075	-3.0496183727	 0.0964604366	 0.099082
H	 1.1727310923	-3.0173529057	 1.0209445924	 0.099082
H	 1.4989478004	-0.4169198315	 1.8011392329	 0.079233
H	-2.2398819967	-0.4631151798	 0.4774220579	 0.079233
226.2027	255.8167	279.544	506.1503	540.6276	581.6043	615.7601	696.0199	746.6394	761.2956	795.0242	806.2285	844.7316	850.7699	902.6377	908.5987	931.417	949.6696	988.0827	1006.0558	1027.7524	1061.7842	1076.5788	1088.6516	1139.2535	1162.074	1166.7427	1190.0572	1226.1702	1267.2295	1297.2863	1321.9521	1349.599	1378.8647	1416.0705	1487.3996	1495.6509	3045.8244	3112.5527	3133.5585	3137.8568	3141.1214	3210.3959	3217.3449	3227.4355
CC12OC3C4C3C1OC24	C[C@@]12O[C@@H]3[C@H]4[C@@H]3[C@@H]1O[C@@H]24	
InChI=1S/C7H8O2/c1-7-5-2-3(4(2)9-7)6(7)8-5/h2-6H,1H3	InChI=1S/C7H8O2/c1-7-5-2-3(4(2)9-7)6(7)8-5/h2-6H,1H3/t2-,3+,4-,5-,6+,7+
