20
gdb 94326	2.55418	1.29814	1.07316	4.2366	84.09	-0.2739	0.0308	0.3048	1209.7443	0.170908	-366.013104	-366.004186	-366.003242	-366.046894	33.714	
C	-0.6279876108	 1.1830471529	 0.0356086039	-0.422543
C	 0.1335726523	-0.1253314147	-0.1041027559	-0.021284
C	 1.5333375255	-0.1113410769	-0.7932851704	-0.232616
C	 2.0783645687	-1.0619724538	 0.3126171895	-0.306308
C	 0.823808741	-0.7382392169	 1.130312083	 0.353307
C	 0.7875722242	-0.201408834	 2.521340936	-0.342436
C	 0.1995318246	-1.5789663511	 2.2297531012	-0.251055
C	-1.2238775595	-1.7570966882	 2.2435803809	 0.293725
N	-2.3738406795	-1.8907591258	 2.2289237574	-0.350157
H	-0.008032577	 1.9549379106	 0.5048304308	 0.112691
H	-0.9379018648	 1.5545161744	-0.9469285296	 0.12022
H	-1.5323054431	 1.0552801417	 0.6401134257	 0.135629
H	-0.5106406877	-0.878698339	-0.5717923859	 0.091486
H	 1.5816645276	-0.4702171833	-1.8231547938	 0.104333
H	 1.9947976411	 0.8790162872	-0.7447164917	 0.105545
H	 2.1112917639	-2.1068506235	-0.0099934879	 0.1116
H	 3.0400447121	-0.8040173018	 0.76364855	 0.105649
H	 1.705092614	-0.1832727114	 3.1006777334	 0.125376
H	 0.0877221967	 0.5939479939	 2.7531859094	 0.138791
H	 0.7632705808	-2.4405840404	 2.5736983938	 0.128047
69.3578	93.1129	153.6463	216.7007	244.1024	278.5691	338.2909	368.9993	450.2192	494.5547	556.8998	634.4244	691.2777	772.2739	802.664	867.2645	888.2	894.8832	931.4309	949.8793	957.3622	1027.1205	1070.8992	1079.2843	1095.8702	1118.8596	1148.1279	1172.4578	1193.112	1219.4828	1256.9474	1274.267	1284.9236	1318.953	1370.7832	1402.8522	1410.4064	1477.8051	1483.959	1495.9925	1498.1442	1501.4295	2346.4506	3028.5282	3039.3532	3052.7936	3061.9396	3098.5312	3100.15	3100.9673	3121.8703	3131.8352	3159.7105	3222.1649
CC1CCC11CC1C#N	C[C@H]1CC[C@]21C[C@H]2C#N	
InChI=1S/C8H11N/c1-6-2-3-8(6)4-7(8)5-9/h6-7H,2-4H2,1H3	InChI=1S/C8H11N/c1-6-2-3-8(6)4-7(8)5-9/h6-7H,2-4H2,1H3/t6-,7-,8+/m0/s1
