23
gdb 75511	1.95468	1.57498	0.96296	0.2615	94.07	-0.2219	0.0264	0.2483	1327.1858	0.206155	-351.179357	-351.169975	-351.169031	-351.2132	36.397	
C	-0.1015270596	 1.5712779032	 0.0400348401	-0.467924
C	 0.0228415312	 0.0688909168	-0.039643141	 0.31148
C	-0.0107484506	-0.5474908605	-1.225548632	-0.11624
C	 0.0398049154	-2.0156935232	-1.5624957048	-0.235309
C	-0.1356198898	-2.9897118512	-0.3848345216	-0.261891
C	 0.9596472962	-2.8618894837	 0.6412031884	-0.151989
C	 1.1179370764	-1.7822864757	 1.4077497492	 0.345381
C	 2.2337063257	-1.6575661963	 2.4092010265	-0.477946
C	 0.155525532	-0.6087492973	 1.3202804852	-0.411494
H	 0.789433248	 2.0203731123	 0.4989680776	 0.118164
H	-0.2420408837	 2.0223871568	-0.9457948455	 0.115927
H	-0.9520906854	 1.8635964038	 0.6706120893	 0.118866
H	-0.0979588053	 0.0939368068	-2.10284193	 0.068941
H	-0.7405668118	-2.2173472791	-2.3102347854	 0.09622
H	 0.9897344759	-2.234318914	-2.0737713738	 0.104869
H	-1.1145800464	-2.8035135218	 0.0788833811	 0.103104
H	-0.169872996	-4.0124717007	-0.7736456591	 0.091625
H	 1.6664964289	-3.6841143839	 0.7296946071	 0.073172
H	 2.8644248691	-2.5506196987	 2.4258801438	 0.11729
H	 2.8726027612	-0.7927922827	 2.1859340641	 0.121965
H	 1.8420631712	-1.4979898787	 3.4227725963	 0.120045
H	 0.4599709864	 0.1520112156	 2.0473642589	 0.094722
H	-0.843006349	-0.9322830679	 1.6550174058	 0.121023
68.0879	125.9616	201.6113	217.215	247.5766	291.887	300.7317	337.3327	381.1502	397.1776	473.5033	492.3657	592.7964	617.2006	790.4795	821.0619	824.5089	857.9787	886.6	922.0069	944.5498	991.2526	1026.1797	1049.7915	1056.0848	1071.5538	1077.5522	1129.7427	1147.2107	1166.1557	1211.8458	1231.9224	1275.05	1337.0666	1354.7728	1371.7739	1389.9292	1393.1026	1413.043	1414.1796	1470.3809	1474.4123	1479.3397	1481.7365	1491.0939	1492.3259	1494.3102	1741.8461	1746.0948	2980.99	2990.0252	3003.2267	3007.7864	3009.5469	3020.7526	3051.2836	3053.6002	3054.5949	3069.393	3107.2196	3107.8831	3117.8741	3146.062
CC1=CCCC=C(C)C1	CC1=CCCC=C(C)C1	
InChI=1S/C9H14/c1-8-5-3-4-6-9(2)7-8/h5-6H,3-4,7H2,1-2H3	InChI=1S/C9H14/c1-8-5-3-4-6-9(2)7-8/h5-6H,3-4,7H2,1-2H3
