15
gdb 21948	6.83914	1.00942	0.93703	2.9016	62.54	-0.2574	-0.0114	0.2461	1183.9329	0.119271	-399.785245	-399.777636	-399.776692	-399.818305	26.646	
O	-0.0774634133	 1.4632792098	 0.0538688643	-0.415552
C	 0.0319144444	 0.051251344	 0.0809059819	-0.061216
C	-1.3779251151	-0.5192504342	-0.0955294825	-0.315785
C	-1.4044804007	-2.0156248273	-0.0562284707	 0.135111
C	-1.5423469653	-2.9029128259	-1.0780553035	-0.008457
O	-1.4953342076	-4.1669754406	-0.6321309754	-0.162009
N	-1.3185497323	-4.1494198435	 0.7470717485	-0.132034
C	-1.2664619027	-2.8819803146	 1.0702525149	-0.037517
H	 0.8020447096	 1.8378949092	 0.1571373785	 0.289601
H	 0.6811316988	-0.3233524121	-0.7259715454	 0.093271
H	 0.4584350041	-0.3036358451	 1.0328840671	 0.091085
H	-2.0148523813	-0.1031043489	 0.6931226362	 0.123485
H	-1.7805761076	-0.1574784144	-1.0468466588	 0.118413
H	-1.6846942249	-2.7844812905	-2.1414601355	 0.150561
H	-1.136660636	-2.613156886	 2.1099539603	 0.131044
49.053	92.9517	121.3838	256.8556	315.4674	347.6178	377.5843	620.7161	663.9384	746.8946	796.2838	848.3029	902.7419	912.4803	938.0602	1006.1359	1024.4506	1061.6432	1084.066	1152.3642	1201.4917	1221.2076	1240.4898	1282.0918	1308.4249	1344.038	1398.2493	1457.0821	1476.7428	1491.7245	1526.3413	1653.1051	2968.8221	2998.4081	3044.9914	3090.8794	3236.2094	3261.5105	3833.2801
OCCC1=CON=C1	OCCc1conc1	
InChI=1S/C5H7NO2/c7-2-1-5-3-6-8-4-5/h3-4,7H,1-2H2	InChI=1S/C5H7NO2/c7-2-1-5-3-6-8-4-5/h3-4,7H,1-2H2
