17
gdb 78633	5.92501	1.02464	1.01211	4.0458	75.15	-0.2339	0.0154	0.2493	1199.1148	0.135083	-417.901408	-417.893807	-417.892863	-417.933614	29.018	
C	 0.2361013131	 1.4808049534	-0.1417765056	-0.327192
N	 0.0800266285	 0.0357322325	-0.0026892082	-0.113172
C	-1.1867468591	-0.4212190115	 0.6347534018	-0.027517
C	-0.5052097697	-1.7108766771	 1.1791059436	-0.031355
C	 0.5339371363	-0.5449293153	 1.2911294813	-0.030773
C	-0.7478047853	-0.1046556514	 2.1166321353	-0.064386
N	-1.059860459	-1.4942941414	 2.5379422908	-0.080626
C	-0.6521357143	-2.1337457537	 3.6783737502	 0.12965
O	-0.2544930344	-3.2768825034	 3.7282881988	-0.314868
H	 1.2835706393	 1.708365971	-0.362672923	 0.12814
H	-0.3660392406	 1.8267599169	-0.9877185562	 0.1278
H	-0.0605639564	 2.0584581802	 0.7501913045	 0.09839
H	-2.1737882457	-0.3164099258	 0.1837831787	 0.099803
H	-0.3969358346	-2.6835414738	 0.7093806859	 0.125541
H	 1.5767404365	-0.587133899	 1.6098462716	 0.10159
H	-0.9369238691	 0.7577318558	 2.7536639756	 0.107406
H	-0.8087482754	-1.5037960174	 4.5787093248	 0.071569
85.5232	152.3711	211.7801	244.4614	282.7895	316.933	489.7848	551.5342	624.6704	729.6375	756.5588	789.672	808.2202	820.5914	834.4062	906.3278	974.402	1028.749	1032.7622	1047.8438	1098.3354	1104.1489	1134.438	1154.4137	1155.9162	1156.7607	1169.8759	1192.6874	1207.7575	1259.9928	1329.2294	1381.0426	1420.5362	1451.6923	1493.6831	1495.6084	1791.6776	2918.5388	2962.2454	3069.4531	3106.7527	3109.3966	3119.4441	3139.3148	3182.5614
CN1C2C3C1C2N3C=O	CN1[C@H]2[C@H]3[C@@H]1[C@@H]2N3C=O	
InChI=1S/C6H8N2O/c1-7-3-5-4(7)6(3)8(5)2-9/h2-6H,1H3	InChI=1S/C6H8N2O/c1-7-3-5-4(7)6(3)8(5)2-9/h2-6H,1H3/t3-,4+,5-,6+
