20
gdb 118802	2.02418	1.27962	0.91182	5.1709	81.16	-0.2676	0.0342	0.3017	1361.243	0.168475	-403.150554	-403.140462	-403.139518	-403.186055	36.336	
C	 0.1040420139	 1.5186931587	-0.2379157169	-0.38539
C	-0.1299712097	 0.0183514275	-0.221316919	-0.055364
O	 0.9268057986	-0.594288432	-0.9551972745	-0.281681
C	 0.8043095273	-1.9647869838	-1.1573252594	 0.439615
C	 1.0876360698	-2.8335025209	 0.0494286304	-0.458279
C	-0.1714590141	-2.4177895919	-2.2073292711	-0.342248
C	 1.3281499478	-2.4249105184	-2.5092026944	-0.251362
C	 1.8636346203	-1.4693285279	-3.4365279417	 0.308581
N	 2.306284	-0.721104052	-4.1994163358	-0.342857
H	 1.0660600423	 1.7615837319	 0.2214839287	 0.132254
H	 0.1113440889	 1.8937526614	-1.2647510874	 0.137686
H	-0.6866661199	 2.0309538203	 0.3181878608	 0.116436
H	-0.1470428989	-0.3573053793	 0.8122878821	 0.095486
H	-1.0981460047	-0.2331073906	-0.6793593489	 0.093389
H	 0.338334895	-2.675641414	 0.831552765	 0.129333
H	 1.068842895	-3.8938893887	-0.2166570552	 0.122733
H	 2.0719055905	-2.5946863544	 0.4631145923	 0.138645
H	-0.659122205	-3.3806985551	-2.1057217771	 0.127088
H	-0.75348104	-1.6533324984	-2.7076919597	 0.1434
H	 1.822347513	-3.3904151926	-2.5348227182	 0.132533
55.8348	79.8893	120.5869	143.0624	213.8986	219.4057	247.3833	301.374	330.457	390.7992	423.1472	456.6741	560.4037	636.5715	718.1471	792.7482	821.1902	850.4847	898.4766	927.5091	993.5966	998.6674	1067.3413	1082.3802	1093.3068	1112.0478	1128.0609	1154.0787	1186.8821	1254.291	1295.2586	1304.0503	1392.7166	1401.9112	1416.1573	1428.1529	1474.8285	1482.5679	1483.6547	1499.6498	1501.1226	1528.0622	2358.1636	2986.7521	3018.7109	3041.5502	3048.1059	3109.1035	3120.2606	3122.6226	3128.3097	3144.1392	3167.6304	3239.6458
CCOC1(C)CC1C#N	CCO[C@@]1(C)C[C@H]1C#N	
InChI=1S/C7H11NO/c1-3-9-7(2)4-6(7)5-8/h6H,3-4H2,1-2H3	InChI=1S/C7H11NO/c1-3-9-7(2)4-6(7)5-8/h6H,3-4H2,1-2H3/t6-,7-/m0/s1
