19
gdb 6402	3.2793	1.31002	0.99072	6.3591	68.55	-0.2451	0.032	0.2771	1187.6453	0.165037	-402.237918	-402.228883	-402.227939	-402.271819	32.528	
C	-0.0840591182	 1.5601386528	 0.1935023446	-0.331881
N	-0.0782184412	 0.1088995526	 0.0001839622	-0.300305
H	 0.4639863851	-0.1241832634	-0.8282015209	 0.228394
H	 0.4004387722	-0.9388628045	 1.3283722053	 0.305395
C	-1.4108561199	-0.5271602624	-0.1044791767	 0.033931
C	-2.1466670694	-0.2115518574	-1.4124809136	-0.399382
C	-1.2523811609	-2.0462548837	 0.0927816215	-0.343385
C	-0.6874817108	-2.4882179793	 1.4492607514	 0.394097
O	 0.2802984169	-1.7087702027	 1.9479324754	-0.373729
O	-1.0699932242	-3.4793912317	 2.0142380642	-0.334407
H	 0.9472657739	 1.917772238	 0.2518110365	 0.134428
H	-0.5965976261	 2.1176011428	-0.6032045362	 0.117183
H	-0.5750354675	 1.7931184385	 1.1432318734	 0.141615
H	-1.9970503338	-0.1288302655	 0.7340499038	 0.103398
H	-3.1432416226	-0.6631307694	-1.4153694927	 0.131327
H	-2.2708102248	 0.8653805117	-1.557608914	 0.12298
H	-1.5967814163	-0.6111502284	-2.2729609119	 0.116296
H	-2.212945936	-2.5497900013	-0.0308178082	 0.134122
H	-0.5878066766	-2.4402045167	-0.689909174	 0.119923
66.8555	118.3029	127.9187	189.2702	222.6917	278.6783	286.1087	345.6504	377.6276	447.8303	515.0075	605.3746	701.9962	768.8332	865.8846	877.8703	911.4017	949.1962	1009.0084	1036.6981	1075.3984	1098.9106	1147.9181	1165.8171	1178.6711	1259.936	1290.3572	1301.01	1367.957	1371.2151	1409.9552	1455.7306	1458.4884	1478.1301	1489.0458	1496.2861	1504.1084	1515.7279	1519.2997	1858.7476	3002.436	3014.1235	3029.1992	3035.9046	3082.0486	3101.8044	3114.9252	3119.4717	3119.857	3184.0921	3494.2654
C[NH2+]C(C)CC([O-])=O	CN[C@@H](C)CC(=O)O	
InChI=1S/C5H11NO2/c1-4(6-2)3-5(7)8/h4,6H,3H2,1-2H3,(H,7,8)	InChI=1S/C5H11NO2/c1-4(6-2)3-5(7)8/h4,6H,3H2,1-2H3,(H,7,8)/t4-/m0/s1
