19
gdb 22452	2.77379	0.98074	0.83211	6.4218	80.21	-0.2345	-0.0763	0.1582	1436.6135	0.157412	-456.281099	-456.271121	-456.270177	-456.316289	35.33	
C	-0.0152819648	 1.5435457349	 0.0317948455	-0.324878
N	-0.1270978419	 0.1022276778	 0.2494884228	-0.306655
H	 0.5302550247	-1.8446891274	-0.3320930907	 0.262503
H	 0.1224992104	-0.0994834887	 1.2133541024	 0.230995
C	-1.4503210821	-0.4862223742	-0.0045551677	-0.037934
C	-1.948886496	-0.1523407869	-1.4213032296	-0.381289
C	-1.3563330275	-1.9885594891	 0.1955708956	 0.15517
C	-2.5185789725	-2.759149949	 0.6292222341	 0.089608
O	-2.5860430636	-3.9597599175	 0.7692157395	-0.26447
N	-0.1872428838	-2.55125159	-0.0779771262	 0.064236
O	 0.1572619169	-3.7460207937	-0.0449608638	-0.393887
H	 0.9538543054	 1.8795490181	 0.4093321568	 0.130828
H	-0.0501535258	 1.773104492	-1.035976873	 0.138538
H	-0.8026636964	 2.1301419428	 0.5338210243	 0.106867
H	-2.2078168867	-0.1080879641	 0.706626544	 0.079331
H	-1.20553527	-0.4505540747	-2.167725104	 0.128335
H	-2.8746738698	-0.6960853655	-1.6264890426	 0.13352
H	-2.1562671036	 0.9148038554	-1.5366414062	 0.124828
H	-3.3961830228	-2.1046131203	 0.8447314488	 0.064354
56.6824	120.2351	133.0804	182.4968	206.1429	215.2014	228.64	299.7002	320.5836	372.6076	378.0506	464.3678	506.079	519.2474	712.6966	825.6053	872.8325	935.9729	997.7982	1016.8625	1053.004	1057.6262	1074.5837	1139.6292	1177.7917	1194.5294	1221.7164	1351.765	1357.7776	1404.6443	1428.042	1443.6181	1463.0531	1482.4133	1487.0372	1494.0203	1501.1755	1504.8796	1522.5833	1635.8262	1786.0149	2845.0253	2923.6288	2968.9369	3041.8174	3086.293	3117.9334	3121.5268	3126.978	3211.8654	3505.4653
C[NH2+]C(C)C(C=O)=N[O-]	CN[C@@H](C)[C](C=O)N[O]	
InChI=1S/C5H10N2O2/c1-4(6-2)5(3-8)7-9/h3-4,6,9H,1-2H3	InChI=1S/C5H10N2O2/c1-4(6-2)5(3-8)7-9/h3-4,6-7H,1-2H3/t4-/m0/s1
