17
gdb 53406	2.25017	1.14981	0.82732	2.9177	77.28	-0.2446	-0.0344	0.2102	1396.5191	0.132877	-421.784409	-421.774559	-421.773615	-421.821778	32.729	
C	 0.067139121	 1.5058559499	-0.2678854248	-0.498432
C	 0.0487729027	 0.0563201473	-0.1396248826	 0.060846
C	 0.032846655	-1.1441537714	-0.0413088814	 0.099894
C	-0.0027969502	-2.5853130756	 0.0871733457	-0.260254
C	 0.1420450689	-3.2014339062	 1.5075745757	-0.074343
O	-1.1237200824	-3.8819358836	 1.3957799051	-0.28303
C	-1.3989391277	-3.3087275376	 0.1087659502	 0.042759
C	-2.6077633187	-2.3909296184	 0.1344513571	 0.139793
O	-3.2570166648	-2.1179316244	-0.8399758276	-0.235986
H	 0.8178410335	 1.8303617502	-0.9965399239	 0.152645
H	-0.9056649546	 1.8826613397	-0.6015936787	 0.158746
H	 0.3005057632	 1.9868005396	 0.6882415765	 0.151105
H	 0.6664609748	-3.0544916086	-0.6384026869	 0.119572
H	 0.9752220948	-3.9004962375	 1.6372011996	 0.113539
H	 0.1460508373	-2.46796781	 2.3207903875	 0.1165
H	-1.5331591312	-4.0624646085	-0.6747491184	 0.107643
H	-2.8417163015	-1.9887543551	 1.1453272069	 0.089004
30.4495	45.7482	51.9934	90.4616	135.0677	220.974	298.2209	309.4163	365.1885	446.618	504.4824	521.4245	684.12	830.1214	877.7641	918.0326	984.9172	1026.5592	1042.7213	1051.3358	1053.5867	1059.6351	1104.1977	1163.6541	1192.0502	1208.6887	1251.0095	1303.1665	1343.6666	1361.0891	1401.7346	1414.3861	1476.7623	1477.1397	1523.2375	1834.8907	2369.6754	2890.7855	3030.1803	3032.032	3053.5124	3071.0598	3088.3296	3092.1094	3094.0343
CC#CC1COC1C=O	CC#C[C@H]1CO[C@H]1C=O	
InChI=1S/C7H8O2/c1-2-3-6-5-9-7(6)4-8/h4,6-7H,5H2,1H3	InChI=1S/C7H8O2/c1-2-3-6-5-9-7(6)4-8/h4,6-7H,5H2,1H3/t6-,7-/m0/s1
