16
gdb 50829	4.66271	0.88029	0.80619	2.1466	68.78	-0.259	-0.0372	0.2218	1411.2874	0.123335	-475.023598	-475.014766	-475.013822	-475.059466	29.851	
N	 0.3391155725	 0.7735448157	 1.1275607232	-0.412583
C	 0.1361168979	-0.1139112818	 0.2617410334	 0.118212
O	-1.0856261524	-0.747885722	 0.2686622031	-0.203292
C	-1.342953087	-1.6631416026	-0.7135831026	 0.466722
O	-0.6089554709	-1.8987772822	-1.6341482048	-0.339758
C	-2.6655743154	-2.358705661	-0.4262581922	 0.033106
C	-3.1654477273	-3.3124059017	-1.5242031098	-0.295001
C	-2.8792434585	-4.4235334271	-0.4940896692	-0.06095
O	-2.4294081313	-3.4554425265	 0.4887715596	-0.29047
H	 1.2785200997	 1.1536627863	 1.0190877459	 0.242327
H	 0.7981656017	-0.478636969	-0.5235340176	 0.14475
H	-3.3816426415	-1.638100802	-0.0171841221	 0.106334
H	-4.2115100929	-3.1834361421	-1.8013310258	 0.119255
H	-2.538052753	-3.3252167257	-2.4146864119	 0.140306
H	-3.7513278988	-4.9789209997	-0.1323586436	 0.11281
H	-2.0852855026	-5.1295779387	-0.7598275057	 0.118232
20.3817	67.8707	106.9221	117.3824	163.8121	263.2739	309.0218	381.1397	530.357	653.8415	770.5948	800.5876	827.3583	854.5916	904.9262	942.8615	966.9516	1008.5243	1027.2821	1061.4706	1071.4937	1106.7602	1163.4055	1182.9215	1223.3852	1259.5519	1267.1541	1276.0004	1353.8189	1382.7222	1397.4848	1483.7117	1528.1612	1748.1784	1838.5554	3033.9413	3054.1873	3079.6254	3098.9441	3141.1102	3160.8775	3506.8543
N=COC(=O)C1CCO1	[NH][CH]OC(=O)[C@H]1CCO1	
InChI=1S/C5H7NO3/c6-3-9-5(7)4-1-2-8-4/h3-4,6H,1-2H2	InChI=1S/C5H7NO3/c6-3-9-5(7)4-1-2-8-4/h3-4,6H,1-2H2/t4-/m1/s1
