21
gdb 91132	2.61367	1.68248	1.45495	1.5654	80.91	-0.2372	0.0736	0.3108	1023.2013	0.184182	-387.034049	-387.02638	-387.025436	-387.066082	31.077	
C	 0.1663449372	 1.4173044835	-0.5067858906	-0.418555
C	 0.0746311635	-0.001746991	 0.0180761608	 0.157491
O	 0.7792725401	-0.9806975235	-0.8000318546	-0.311763
C	 1.259090724	-1.6689067915	 0.3741717745	 0.114753
C	 2.7306628912	-1.3747086382	 0.7857318948	-0.038961
C	 3.4966232278	-0.3147985777	-0.0553375675	-0.238269
C	 3.1320956054	 0.7774930153	 0.998465953	-0.238496
C	 2.2212105643	-0.2379162957	 1.740654822	-0.025926
C	 0.74393872	-0.5425772118	 1.3071218592	-0.127481
H	 1.1933350545	 1.7230172342	-0.7037352215	 0.131861
H	-0.3934947915	 1.4976504145	-1.444481833	 0.124661
H	-0.2790244955	 2.1145036136	 0.2111620118	 0.117392
H	-0.9903259336	-0.2818641616	 0.0553887427	 0.074742
H	 0.9210307842	-2.709204282	 0.4111053645	 0.069285
H	 3.3013835204	-2.2314090689	 1.1479218992	 0.059534
H	 4.5665410421	-0.503069469	-0.1646756875	 0.094559
H	 3.0605207508	-0.1637582046	-1.0439139928	 0.120959
H	 3.9922111667	 1.0388631572	 1.6219209413	 0.098779
H	 2.6915304658	 1.7097185223	 0.6440104813	 0.09818
H	 2.3500472876	-0.2924521431	 2.8232780711	 0.065858
H	 0.0644596848	-0.7223724219	 2.1406670215	 0.071395
83.5963	163.558	236.2528	269.5347	285.938	387.5195	493.4513	564.1736	618.4039	687.089	689.9324	756.0519	815.6857	838.2394	862.0092	887.6165	894.4234	909.3314	956.208	977.7135	996.3012	1045.453	1068.5642	1098.2899	1104.9765	1121.9394	1132.4117	1166.369	1185.416	1213.361	1226.06	1240.2013	1254.058	1269.3068	1289.3515	1303.3122	1317.3101	1339.4667	1349.5482	1397.9308	1415.0713	1472.8003	1481.0817	1490.2811	1513.4886	2964.0534	3042.8073	3051.7206	3058.514	3073.0304	3079.0242	3093.4871	3101.8724	3105.0043	3117.0633	3133.392	3157.7085
CC1OC2C3CCC3C12	C[C@H]1O[C@H]2[C@H]3CC[C@H]3[C@@H]12	
InChI=1S/C8H12O/c1-4-7-5-2-3-6(5)8(7)9-4/h4-8H,2-3H2,1H3	InChI=1S/C8H12O/c1-4-7-5-2-3-6(5)8(7)9-4/h4-8H,2-3H2,1H3/t4-,5-,6+,7-,8+/m1/s1
