17
gdb 24690	3.75522	1.53855	1.11436	3.4617	82.52	-0.2023	-0.0117	0.1906	1053.1067	0.141177	-380.939953	-380.933339	-380.932394	-380.970816	26.753	
C	 0.0085743255	 1.4441890895	 0.1397619751	-0.170643
C	 1.4598718082	 1.9108450681	-0.1396002508	-0.333553
C	 2.2336291209	 0.6149403021	-0.0473542724	 0.295283
C	 3.5816165534	 0.3333484083	 0.0529255276	-0.269291
C	 3.9639762395	-1.0136980083	 0.0861300423	-0.001382
N	 3.1027684945	-2.029543588	 0.022355331	-0.270339
C	 1.7970956083	-1.7543821429	-0.0832388099	-0.103844
C	 1.3227809171	-0.4464926577	-0.1228133783	 0.257807
N	 0.0166583424	 0.0264185134	-0.2685998798	-0.390066
H	-0.222383751	 1.5519305639	 1.2104849492	 0.102247
H	-0.7357049435	 2.0092043768	-0.4270563986	 0.11328
H	 1.5432466372	 2.330816257	-1.1501258803	 0.126614
H	 1.7940636896	 2.6793786731	 0.5615411958	 0.119407
H	 4.3282484601	 1.118625962	 0.1148447238	 0.092408
H	 5.0143405633	-1.2796413044	 0.172466202	 0.099526
H	 1.1190478917	-2.6039084711	-0.1311508219	 0.094394
H	-0.7198367371	-0.5483971818	 0.1154754852	 0.238154
155.4272	200.5098	278.7409	389.9547	429.9609	523.9149	561.7771	584.2177	608.0594	725.834	764.7662	801.3419	848.2707	883.593	890.6994	929.9935	946.416	961.4513	1046.391	1061.0699	1080.9439	1156.4424	1188.3391	1212.768	1220.0459	1279.2271	1291.2144	1305.048	1339.792	1349.1423	1421.7839	1471.7586	1481.8287	1514.0475	1530.167	1619.7251	1641.2693	2984.6781	3028.0544	3087.1733	3098.3818	3143.7203	3156.0446	3183.2056	3592.4912
C1CC2=CC=NC=C2N1	C1Cc2ccncc2N1	
InChI=1S/C7H8N2/c1-3-8-5-7-6(1)2-4-9-7/h1,3,5,9H,2,4H2	InChI=1S/C7H8N2/c1-3-8-5-7-6(1)2-4-9-7/h1,3,5,9H,2,4H2
