18
gdb 111206	2.54923	1.35755	1.03553	4.3592	73.27	-0.2485	-0.0395	0.209	1173.7402	0.147376	-438.990471	-438.982163	-438.981219	-439.024008	30.894	
O	 0.0602649176	 1.417157432	 0.6010624417	-0.417051
C	 0.1747757583	 0.0974543291	 0.0988056581	-0.115043
C	-1.2044675947	-0.5317987651	 0.0119610123	 0.056695
C	-1.5053394993	-2.0524245657	 0.0284738666	-0.118327
C	-1.109428639	-2.0083147847	 1.5167687018	-0.179512
N	-1.9473509509	-0.7180686305	 1.3736902686	-0.17405
C	-2.9056860508	-1.6175099006	 0.5785693387	-0.038034
C	-3.9567975573	-1.0043974718	-0.3068609928	 0.126621
O	-4.1296752868	 0.1705839988	-0.5063544224	-0.233182
H	-0.5315576539	 1.3732871457	 1.3622468779	 0.298429
H	 0.5927044458	 0.1786290162	-0.9113703515	 0.112026
H	 0.8862348678	-0.4944218054	 0.6910249379	 0.089143
H	-1.8051523079	 0.0737044021	-0.6663147362	 0.117207
H	-1.286648986	-2.8140110028	-0.7274966853	 0.078045
H	-1.5625590669	-2.7426903793	 2.1875665105	 0.107723
H	-0.0679045824	-1.8373745459	 1.7815516945	 0.11477
H	-3.3974589801	-2.3699191933	 1.2087435552	 0.094259
H	-4.6137919835	-1.7714164087	-0.7812381955	 0.080282
67.6591	104.0227	126.1512	219.6925	248.6454	360.904	400.1253	435.1188	495.7564	574.0714	691.525	736.3006	774.6047	804.785	876.4824	894.1548	920.7212	1008.1786	1017.269	1034.5108	1066.6745	1084.0248	1112.5014	1128.0686	1147.5768	1165.2178	1172.6294	1212.6624	1220.3744	1245.92	1268.1692	1353.3471	1391.7601	1422.0002	1427.3133	1463.9069	1507.5284	1548.4171	1827.0449	2853.4515	3002.2998	3029.8948	3047.8041	3058.4807	3075.6486	3127.9795	3156.0671	3783.2659
OCC1C2CN1C2C=O	OC[C@H]1[C@H]2CN1[C@H]2C=O	
InChI=1S/C6H9NO2/c8-2-5-4-1-7(5)6(4)3-9/h2,4-6,9H,1,3H2	InChI=1S/C6H9NO2/c8-2-5-4-1-7(5)6(4)3-9/h2,4-6,9H,1,3H2/t4-,5-,6-/m0/s1
