14
gdb 5792	6.27202	1.42995	1.25676	3.3206	63.56	-0.2212	0.0257	0.2469	928.3096	0.109411	-378.732762	-378.726225	-378.72528	-378.763967	24.154	
C	 0.934128348	 1.0159936713	-0.0913784237	-0.16863
O	 0.0627752642	 0.1713531032	-0.8427171194	-0.234586
C	-0.3925793883	 0.638292956	 0.4308453219	-0.02865
C	-0.5664493232	-0.3896728048	 1.4761784046	 0.279376
C	-0.183308664	-1.7066212453	 1.4358172306	-0.184486
N	-0.5709146032	-2.2296386486	 2.6491924567	-0.232259
C	-1.1663309683	-1.2262739931	 3.3532520511	 0.010012
N	-1.1830950358	-0.1025680377	 2.6749508118	-0.316448
H	 1.8177501929	 0.5300730526	 0.3190222806	 0.112026
H	 1.0904548472	 2.012309175	-0.5035464844	 0.115622
H	-1.1815459449	 1.3889228654	 0.3943096186	 0.104042
H	 0.2944233003	-2.2970353637	 0.6734724207	 0.144033
H	-0.4560236999	-3.1836955878	 2.9472034386	 0.268733
H	-1.567166295	-1.3754505125	 4.3446801725	 0.131214
71.034	169.0379	182.7205	404.6022	455.7157	531.9951	663.3028	664.5875	715.4093	759.8543	821.0824	861.1142	894.475	949.3174	972.8087	1024.3152	1091.3001	1094.5996	1136.8336	1148.6278	1169.6296	1235.9799	1260.1861	1272.3715	1355.7541	1422.8136	1461.3045	1515.4174	1533.3731	1601.88	3080.9023	3119.1667	3173.6385	3252.5803	3290.7186	3667.4388
C1OC1C1=CNC=N1	C1O[C@H]1c1c[nH]cn1	
InChI=1S/C5H6N2O/c1-4(5-2-8-5)7-3-6-1/h1,3,5H,2H2,(H,6,7)	InChI=1S/C5H6N2O/c1-4(5-2-8-5)7-3-6-1/h1,3,5H,2H2,(H,6,7)/t5-/m1/s1
