15
gdb 25268	3.15259	1.77671	1.15242	1.4421	72.49	-0.2393	-0.0362	0.2032	989.7891	0.116146	-416.891339	-416.884634	-416.88369	-416.922858	25.556	
O	-0.0100019627	-0.0575396119	 0.0028589267	-0.330992
C	-0.030400184	 1.1422605492	 0.0093509752	 0.416517
C	-1.2435178985	 2.082775925	 0.0321725607	-0.343945
C	-0.6940364595	 3.5351362481	 0.0312744787	-0.358772
C	 0.7899812406	 3.3254745295	 0.0081288304	 0.392542
N	 1.8548245715	 4.0735353836	-0.0039177924	-0.354955
C	 2.9133876148	 3.1664738465	-0.0243313944	-0.08282
C	 2.4735656566	 1.8720475956	-0.0243547364	-0.143776
N	 1.094350648	 1.981845834	-0.0032167989	-0.062776
H	-1.8688590794	 1.861903174	-0.8367855332	 0.152476
H	-1.8426389059	 1.8530913082	 0.917173359	 0.152472
H	-1.0297953555	 4.1051100842	-0.8397992235	 0.144151
H	-1.0036484409	 4.0963299113	 0.9175993575	 0.14415
H	 3.9356984602	 3.5135007236	-0.0378079769	 0.121096
H	 2.9737381849	 0.9196051493	-0.0366546627	 0.154632
88.4323	139.8656	248.7624	313.733	541.2525	550.595	623.5569	638.6684	663.4653	676.5086	744.0571	750.5777	830.1891	880.6469	937.1447	985.116	1025.2704	1037.5888	1098.0221	1121.5549	1158.7829	1168.0369	1232.4339	1265.1331	1284.1057	1309.5279	1411.4087	1425.239	1460.616	1491.5514	1512.0383	1605.3616	1860.5989	3061.638	3077.373	3093.2449	3118.952	3251.2876	3299.7147
O=C1CCC2=NC=CN12	O=C1CCc2nccn12	
InChI=1S/C6H6N2O/c9-6-2-1-5-7-3-4-8(5)6/h3-4H,1-2H2	InChI=1S/C6H6N2O/c9-6-2-1-5-7-3-4-8(5)6/h3-4H,1-2H2
