14
gdb 55251	3.30795	1.298	1.07266	1.3424	57.82	-0.2577	-0.0139	0.2438	1075.7248	0.100754	-511.020935	-511.012837	-511.011893	-511.05517	28.78	
N	-0.16983902	 1.0427520143	 0.7341823534	-0.523731
C	-0.0380032961	-0.1140572082	 0.0344666724	 0.351327
O	 1.009763749	-0.5795274464	-0.3559257942	-0.342191
C	-1.3580010255	-0.8774924161	-0.2391638086	 0.123781
O	-1.3534284567	-2.1436721986	 0.3825831227	-0.236541
C	-2.0878040844	-2.0267908998	 1.584540377	-0.227267
C	-2.949646638	-0.787799715	 1.3941597452	 0.40135
O	-3.8385036033	-0.361122811	 2.0623678316	-0.30987
O	-2.4999691256	-0.1742664873	 0.2538572804	-0.236749
H	 0.6528696673	 1.6091254029	 0.8677277466	 0.270785
H	-1.0762079255	 1.451589299	 0.8872286106	 0.282038
H	-1.4632559722	-1.0194110095	-1.3179449411	 0.140012
H	-2.7033527463	-2.9172965781	 1.7310694224	 0.159128
H	-1.4420490326	-1.8920794661	 2.4642587118	 0.147928
27.4387	73.6291	122.2246	255.2055	329.0889	387.6979	413.9066	495.5505	516.0016	565.6849	623.8555	678.0232	717.9344	788.9093	863.4158	915.9105	981.1823	1021.6438	1053.1822	1092.3199	1104.5404	1203.5735	1216.5269	1325.1648	1346.8381	1359.8251	1379.5067	1492.4036	1606.3136	1821.9733	1912.3105	3012.9441	3089.6924	3108.6079	3594.2165	3728.7251
NC(=O)C1OCC(=O)O1	NC(=O)[C@H]1OCC(=O)O1	
InChI=1S/C4H5NO4/c5-3(7)4-8-1-2(6)9-4/h4H,1H2,(H2,5,7)	InChI=1S/C4H5NO4/c5-3(7)4-8-1-2(6)9-4/h4H,1H2,(H2,5,7)/t4-/m0/s1
