20
gdb 83764	2.55262	1.87938	1.49997	0.8388	78.12	-0.1925	0.0937	0.2861	981.108	0.171467	-403.101988	-403.094045	-403.093101	-403.133823	31.68	
C	-0.2051440823	 1.511201951	 0.035720943	-0.345557
N	 0.0784621419	 0.0807706839	 0.0374188779	-0.117723
C	 1.133648223	-0.4937107268	-0.8548288862	-0.034593
C	 2.3134011471	 0.4600876045	-1.0326297292	-0.091175
O	 2.7555396134	 0.7242799691	 0.3055810001	-0.26909
C	 2.2464061062	-0.3145816051	 1.1184724488	 0.050551
C	 1.5965602032	-1.395800589	 0.3154947666	-0.218451
C	 0.7322633425	-0.5132808745	 1.2056912145	 0.330641
C	-0.0277186764	-0.8094300804	 2.4627798882	-0.502581
H	 0.6590507994	 2.1503560986	 0.2686151651	 0.121143
H	-0.6067395209	 1.7990282167	-0.9419200749	 0.114797
H	-0.9863935021	 1.7111133628	 0.7767843072	 0.118345
H	 0.7561550742	-0.9429900459	-1.7762127142	 0.075839
H	 3.1164470384	-0.0051760013	-1.6256934063	 0.093535
H	 2.0419513895	 1.4122715899	-1.4992955073	 0.108669
H	 2.8698256856	-0.5340478651	 1.9780654235	 0.100174
H	 1.7992600759	-2.4576110568	 0.3135938236	 0.09361
H	 0.5847709514	-1.3912764264	 3.1586910035	 0.120233
H	-0.3227279127	 0.1134959948	 2.9753679483	 0.124392
H	-0.9355118073	-1.38003704	 2.240154408	 0.12724
178.583	199.8638	204.9805	223.414	262.1923	300.2283	340.2345	471.5251	544.4843	620.3328	686.3436	731.6767	779.2698	793.3725	862.5912	871.2533	897.7726	920.8453	967.9121	985.337	1013.1001	1046.8048	1058.4497	1100.0851	1103.278	1152.4083	1167.7717	1191.8558	1201.496	1234.4283	1242.5976	1270.4339	1279.3449	1315.7345	1363.302	1404.989	1431.2321	1448.2497	1478.2355	1484.7226	1499.0596	1505.8402	1520.9319	2982.61	2992.7666	3027.4671	3066.2131	3075.6491	3085.2488	3089.5611	3094.1661	3106.3668	3178.9872	3209.6971
CN1C2COC3C2C13C	CN1[C@H]2CO[C@@H]3[C@H]2[C@]13C	
InChI=1S/C7H11NO/c1-7-5-4(8(7)2)3-9-6(5)7/h4-6H,3H2,1-2H3	InChI=1S/C7H11NO/c1-7-5-4(8(7)2)3-9-6(5)7/h4-6H,3H2,1-2H3/t4-,5-,6+,7-/m0/s1
