14
gdb 130585	4.23748	1.41236	1.0738	7.976	73.32	-0.2279	-0.0617	0.1662	1041.6563	0.102316	-432.837689	-432.830734	-432.82979	-432.869663	25.814	
O	 0.059990559	-0.0091256231	-0.0139459556	-0.348633
C	-0.0529747722	 1.1970584458	 0.0048636183	 0.441661
C	-1.3330097698	 1.90733063	 0.0464409453	-0.468397
C	-1.2399372742	 3.2486274144	 0.0614632264	 0.499343
C	-1.9557600394	 4.5903317567	 0.0991449005	-0.377575
C	-0.5187983012	 5.2366392619	 0.0712293534	-0.162718
N	-0.0192092204	 3.8545973149	 0.037428273	 0.009045
N	 1.1758984163	 3.2643691724	 0.0015381136	-0.077304
N	 1.172376822	 1.9923004344	-0.0146174573	-0.254532
H	-2.2604353917	 1.3507056085	 0.0638290932	 0.130947
H	-2.5731654833	 4.8088179627	-0.7732730764	 0.153293
H	-2.5265690429	 4.7828346294	 1.0086540842	 0.153325
H	-0.2730984217	 5.8120909295	-0.8236000384	 0.150722
H	-0.2259353006	 5.7856930626	 0.9684141598	 0.150824
68.8669	122.7144	203.2624	368.398	456.3355	473.9866	519.737	550.9252	635.6628	725.9564	770.658	800.539	839.074	879.2862	892.7546	929.8575	1060.9791	1109.8552	1117.6234	1142.4171	1184.1138	1215.9068	1218.9781	1280.7196	1300.1754	1405.8231	1468.7296	1484.5479	1516.9246	1702.1727	1786.224	3076.385	3093.1656	3132.6675	3150.588	3225.4149
O=C1C=C2CCN2N=N1	O=c1cc2CCn2nn1	
InChI=1S/C5H5N3O/c9-5-3-4-1-2-8(4)7-6-5/h3H,1-2H2	InChI=1S/C5H5N3O/c9-5-3-4-1-2-8(4)7-6-5/h3H,1-2H2
