15
gdb 56369	2.08156	1.46044	1.25704	3.2428	69.26	-0.3043	-0.0169	0.2874	1077.7318	0.110801	-416.798798	-416.789803	-416.788859	-416.832735	31.704	
C	-0.0803507205	 1.4532450234	-0.1448425204	-0.411592
C	 0.0280476473	-0.0814231732	 0.067896908	-0.112791
C	 0.7301201617	-0.3680516903	 1.3324716529	 0.29157
N	 1.3233438652	-0.5740971198	 2.3013413136	-0.313532
C	-1.3229054233	-0.6669954033	 0.1213240741	 0.31436
N	-2.3864512618	-1.1146852884	 0.1531999502	-0.329218
C	 0.8475068571	-0.6955638733	-1.0870022679	 0.085441
C	 0.5206087793	-1.9712436062	-1.7270991133	-0.187226
O	 0.2079061135	-0.7107381531	-2.3448363503	-0.230742
H	 0.9208852159	 1.8899330066	-0.1572168022	 0.148321
H	-0.5697536554	 1.6395609463	-1.1024323939	 0.168488
H	-0.6593551164	 1.9137562621	 0.6569993981	 0.15963
H	 1.8801079736	-0.3451521463	-1.0840499912	 0.126073
H	 1.3144102647	-2.5383926667	-2.2078576164	 0.136878
H	-0.3395332308	-2.5429325278	-1.3885360914	 0.15434
71.8767	134.9241	137.3738	169.434	222.7787	243.6396	254.5028	366.719	426.7531	489.8935	522.6635	583.1176	614.3435	664.5169	851.9958	886.6102	937.8578	968.9289	1018.7691	1068.4617	1105.2181	1163.8002	1170.5576	1186.3915	1218.1614	1304.2498	1401.4418	1421.404	1488.3278	1492.7696	1523.8922	2365.1947	2370.5628	3061.5668	3105.7445	3113.2501	3147.0597	3157.7391	3203.5091
CC(C#N)(C#N)C1CO1	CC(C#N)(C#N)[C@H]1CO1	
InChI=1S/C6H6N2O/c1-6(3-7,4-8)5-2-9-5/h5H,2H2,1H3	InChI=1S/C6H6N2O/c1-6(3-7,4-8)5-2-9-5/h5H,2H2,1H3/t5-/m1/s1
