19
gdb 57718	3.22421	0.76557	0.71897	2.9223	79.38	-0.2502	-0.0211	0.2292	1604.5849	0.154213	-423.00071	-422.990055	-422.989111	-423.036943	38.143	
C	 0.1561278811	 1.5660086363	 0.1157526868	-0.399423
C	 0.0155389922	 0.0440277116	-0.0224656562	 0.148803
O	 0.6925508382	-0.5109746903	 1.1121114189	-0.443794
C	-1.4691596889	-0.4124113199	-0.0337824057	-0.216041
C	-2.2267785384	-0.0663750049	 1.2572795092	-0.289101
C	-3.5180186542	-0.8424090059	 1.3675850931	 0.15682
O	-4.6060245459	-0.3590232631	 1.5432768255	-0.238502
C	 0.6544034015	-0.4175746917	-1.2638542418	 0.305772
C	 1.1656390536	-0.8343475615	-2.2690608297	-0.460451
H	 1.2101876318	 1.8448526308	 0.0627511104	 0.136319
H	-0.3865117921	 2.07786877	-0.6826637985	 0.126204
H	-0.2384538105	 1.8895980348	 1.0817444434	 0.132278
H	 0.8622470674	-1.441365676	 0.9273978805	 0.285856
H	-1.9703216356	 0.0238504046	-0.9044059132	 0.12232
H	-1.4783495234	-1.4998933785	-0.1840795193	 0.101408
H	-1.5917590791	-0.3511574911	 2.1076438679	 0.137258
H	-2.4566692916	 0.9986241558	 1.3365225269	 0.124174
H	-3.3925687865	-1.9481015368	 1.2721463536	 0.067683
H	 1.6263995404	-1.1895596342	-3.157994822	 0.202418
55.1321	70.9313	101.4256	140.7783	179.6677	215.1184	241.3132	297.9008	309.7394	357.1086	400.6048	433.1929	529.2905	567.183	577.4816	636.2159	670.4009	747.3125	770.7078	843.027	927.3501	948.8943	998.0924	1023.5124	1071.9706	1126.5055	1167.3739	1179.0061	1220.8451	1261.3779	1310.2909	1357.3671	1385.5993	1411.7474	1432.2677	1464.4863	1480.3067	1486.8616	1498.0141	1837.3702	2230.3146	2842.6394	3023.5723	3028.1915	3056.6453	3077.1781	3114.5125	3136.2853	3141.1999	3498.8406	3808.5518
CC(O)(CCC=O)C#C	C[C@@](O)(CCC=O)C#C	
InChI=1S/C7H10O2/c1-3-7(2,9)5-4-6-8/h1,6,9H,4-5H2,2H3	InChI=1S/C7H10O2/c1-3-7(2,9)5-4-6-8/h1,6,9H,4-5H2,2H3/t7-/m0/s1
