19
gdb 108850	3.10674	1.17703	0.93222	4.3654	79.31	-0.2639	-0.0352	0.2287	1309.9136	0.15888	-423.09514	-423.08612	-423.085175	-423.129162	33.132	
C	-0.2799003201	 1.5395522134	-0.0760734504	-0.382765
C	 0.0822715462	 0.0495551928	 0.0597947062	-0.290897
C	 0.8011603885	-0.4788831085	-1.1409700391	 0.184192
C	 2.0528304781	-0.9125237471	-1.2986574516	-0.228175
C	 2.2773104408	-1.3433777509	-2.7208600157	 0.073104
C	 2.6794196991	-2.806163981	-2.8935850597	-0.393763
O	 1.0159855609	-1.1053183619	-3.3641978772	-0.234091
C	 0.1200275224	-0.5968182228	-2.4629189471	 0.388617
O	-1.010663483	-0.3196110913	-2.7573361575	-0.354061
H	 0.6196539645	 2.1549190735	-0.176811431	 0.115179
H	-0.9077306608	 1.6988005182	-0.9557943458	 0.153208
H	-0.8287802547	 1.881021032	 0.8062710617	 0.116148
H	 0.6941387499	-0.1132523553	 0.9532334456	 0.103239
H	-0.8423286574	-0.5255119275	 0.191108662	 0.126498
H	 2.8272123212	-0.9739519119	-0.5435375445	 0.119243
H	 3.0203538517	-0.6994160883	-3.2123070352	 0.109815
H	 1.9439652522	-3.4627142421	-2.420805789	 0.132768
H	 2.7437128466	-3.0565311433	-3.9553596675	 0.139239
H	 3.6566814137	-2.9852611478	-2.4345122441	 0.1225
66.8927	118.5107	139.1192	201.0275	217.6475	241.9069	292.5507	341.2686	462.5458	506.0493	533.9995	620.2697	713.1465	766.3783	799.2792	812.7932	881.1617	885.1285	949.1257	970.3613	1047.4874	1059.2103	1092.1662	1103.5922	1117.846	1146.2601	1219.1238	1272.8476	1337.0617	1341.7795	1351.1095	1367.6905	1404.1509	1405.3395	1478.0304	1486.3355	1495.5486	1497.0312	1512.1466	1713.5556	1854.4901	3010.5619	3034.2637	3043.4846	3045.0404	3076.2684	3111.9965	3120.6005	3131.7782	3134.7	3209.526
CCC1=CC(C)OC1=O	CCC1=C[C@@H](C)OC1=O	
InChI=1S/C7H10O2/c1-3-6-4-5(2)9-7(6)8/h4-5H,3H2,1-2H3	InChI=1S/C7H10O2/c1-3-6-4-5(2)9-7(6)8/h4-5H,3H2,1-2H3/t5-/m1/s1
