16
gdb 68725	2.50467	1.65952	1.30825	1.6717	76.12	-0.2381	0.0189	0.2571	1015.4737	0.122161	-400.639596	-400.631532	-400.630587	-400.671902	31.283	
C	 0.0001665275	 1.5217195397	 0.0322399676	-0.499438
C	-0.0752332684	 0.0334707991	 0.0886879372	 0.341185
O	 1.0736545178	-0.7448466234	-0.2599664872	-0.32191
C	 0.5170578976	-0.9387431605	 1.0620570631	 0.238644
C	 1.3425806332	-0.7267795907	 2.1987134871	 0.254978
C	 2.0246527129	-0.5745780695	 3.1773152073	-0.417858
C	-0.7054938872	-1.8325879126	 0.918631689	-0.184532
N	-1.8748047688	-1.0012533478	 1.3042249316	-0.333287
C	-1.2926792732	-0.8722424974	-0.0562567263	-0.143454
H	 0.9372029021	 1.8708643615	 0.4724803478	 0.144132
H	-0.0467472928	 1.8743115993	-1.0039856196	 0.131294
H	-0.8377519813	 1.9570931718	 0.5840470772	 0.14425
H	 2.6291369431	-0.4345931759	 4.0391036876	 0.193595
H	-0.7420772885	-2.9139405623	 0.9198891518	 0.111103
H	-2.7042901224	-1.5924891138	 1.2285236522	 0.232628
H	-1.8647891016	-1.0853761875	-0.9500838065	 0.108671
120.3106	137.0725	192.7829	215.1408	294.361	358.4992	446.8571	529.7012	556.9259	593.015	609.0198	624.7408	667.6549	700.6074	757.1606	835.5484	844.1347	862.6172	885.8817	935.4359	1018.3575	1040.2073	1078.112	1117.0102	1132.4617	1166.6486	1224.9503	1281.5259	1331.802	1337.802	1405.6627	1457.9037	1483.5005	1489.5747	2241.8548	3039.9124	3106.9694	3132.1204	3198.3362	3211.4823	3456.9504	3502.0145
CC12OC1(C#C)C1NC21	C[C@@]12O[C@]1(C#C)[C@H]1N[C@@H]21	
InChI=1S/C7H7NO/c1-3-7-5-4(8-5)6(7,2)9-7/h1,4-5,8H,2H3	InChI=1S/C7H7NO/c1-3-7-5-4(8-5)6(7,2)9-7/h1,4-5,8H,2H3/t4-,5+,6+,7-/m1/s1
