16
gdb 26685	2.28477	1.61224	0.95775	2.2593	69.03	-0.1851	0.0339	0.219	1172.8407	0.122534	-475.04211	-475.032564	-475.03162	-475.076096	34.54	
C	 0.0336503345	 1.5815229609	 0.0847903661	-0.506433
C	 0.0419940698	 0.0893060902	 0.022448346	 0.170803
C	 0.0750169041	-0.696679541	-1.089194382	 0.187319
N	 0.0883397009	-0.357531415	-2.4429324729	-0.589271
O	 0.0859658746	-2.0353338913	-0.7363704534	-0.198094
C	 0.0428186706	-2.0742235633	 0.6267014093	 0.210563
O	 0.1468662089	-3.2706098771	 1.2516854177	-0.433974
C	 0.0157849406	-0.8180875563	 1.138164891	 0.124377
O	-0.0176372574	-0.4252981052	 2.4426693043	-0.450415
H	 0.1218130417	 1.9990684756	-0.9205573785	 0.136742
H	-0.8896928733	 1.9605132755	 0.5378750583	 0.127352
H	 0.8626038128	 1.9573620636	 0.694652458	 0.130311
H	-0.7828974419	-0.5840409057	-2.9137128037	 0.242702
H	 0.8405687562	-0.818791544	-2.9448158289	 0.244168
H	-0.6094592313	-3.8245971115	 1.0204192394	 0.305111
H	 0.0377578292	-1.2165040952	 2.9903511894	 0.298738
89.4334	143.4534	187.2308	199.3132	221.8145	239.0506	276.0582	307.3182	330.5995	339.5287	387.3925	549.504	610.766	623.4504	634.8748	676.032	739.9281	788.7859	888.4045	1022.8976	1068.0537	1092.4671	1170.4945	1206.8637	1223.9551	1280.781	1312.0141	1347.2996	1414.71	1484.9434	1485.8959	1511.7144	1646.1083	1694.5516	1745.4941	3031.207	3079.6346	3128.7232	3487.2375	3553.9212	3753.8055	3810.6712
CC1=C(N)OC(O)=C1O	Cc1c(N)oc(O)c1O	
InChI=1S/C5H7NO3/c1-2-3(7)5(8)9-4(2)6/h7-8H,6H2,1H3	InChI=1S/C5H7NO3/c1-2-3(7)5(8)9-4(2)6/h7-8H,6H2,1H3
