21
gdb 67466	2.5176	1.65222	1.53269	1.6876	81.08	-0.2206	0.085	0.3056	1025.2093	0.184868	-387.072969	-387.065278	-387.064334	-387.104621	31.34	
C	 0.0293776668	 1.5546947691	 0.0002499372	-0.508813
C	 0.0020410838	 0.055588015	-0.0168072377	 0.253074
C	 0.6792125655	-0.8437970262	-1.0308048826	-0.100934
C	 1.7530655299	-1.8400937575	-0.6205840108	-0.226701
C	 1.491966116	-2.5360717979	 0.7305223019	-0.195109
C	 0.8925120344	-1.5927751671	 1.7867960781	-0.221665
C	-0.2996790865	-0.8483401078	 1.1947352419	 0.064396
O	-1.1257378864	-1.7355992969	 0.372646117	-0.307303
C	-0.8091824865	-0.9590585981	-0.7829034845	 0.041543
H	 0.9252457094	 1.9357892678	 0.5063212041	 0.119358
H	 0.0351612267	 1.9581033074	-1.0177029657	 0.120351
H	-0.8446367588	 1.9667652757	 0.5181298692	 0.119595
H	 0.884877183	-0.3241978031	-1.9663762555	 0.079026
H	 1.8847608482	-2.5984015712	-1.4018259301	 0.097749
H	 2.7027032835	-1.2895484398	-0.5677666862	 0.094418
H	 0.787795531	-3.3578387643	 0.5796395594	 0.120669
H	 2.4240962338	-2.9745057502	 1.1019192477	 0.08543
H	 0.5867201373	-2.1688691859	 2.6673549337	 0.099612
H	 1.6276762154	-0.8520717072	 2.1300682585	 0.095583
H	-0.9211582269	-0.3613769732	 1.9543199127	 0.072967
H	-1.5738025597	-0.8640288187	-1.5468967382	 0.096754
170.9575	185.0812	202.8927	268.1922	297.77	355.7102	422.5307	467.6752	609.9813	634.5767	683.3509	731.0671	770.4884	850.8149	859.3081	879.1024	905.7071	935.5937	957.7287	991.0152	1004.8308	1030.2145	1060.0741	1085.5058	1097.6003	1120.1796	1129.9024	1178.8548	1213.7861	1239.1282	1253.0026	1270.8142	1298.4163	1336.4097	1350.8236	1369.5654	1382.8844	1394.3813	1419.7143	1476.3006	1479.4189	1487.6166	1488.9424	1497.2502	1502.1951	3006.5401	3017.1231	3018.0544	3044.0021	3044.4333	3052.0618	3065.4886	3073.7615	3094.4224	3103.5665	3114.5798	3166.3049
CC12C3CCCC1OC23	C[C@@]12[C@H]3CCC[C@@H]1O[C@@H]23	
InChI=1S/C8H12O/c1-8-5-3-2-4-6(8)9-7(5)8/h5-7H,2-4H2,1H3	InChI=1S/C8H12O/c1-8-5-3-2-4-6(8)9-7(5)8/h5-7H,2-4H2,1H3/t5-,6-,7+,8+/m0/s1
