16
gdb 16405	3.49119	2.23831	1.74748	2.506	64.01	-0.2438	-0.0162	0.2276	776.3334	0.132111	-383.742024	-383.735544	-383.7346	-383.772917	25.153	
O	-0.0220241092	 0.0341523305	-0.3462589878	-0.32608
C	 0.017739013	 1.1993106393	-0.0366645059	 0.380969
C	-1.2671603379	 1.9667505382	 0.3170391233	-0.177048
O	-1.0963228998	 3.3368600735	 0.6670061971	-0.273407
C	 0.2419678648	 3.8004594109	 0.6390071959	 0.136147
C	 0.9631621037	 3.3928828124	-0.6716099653	-0.25777
C	 1.2692348758	 2.0365043952	 0.0459873754	-0.126512
C	 1.1986354009	 2.8374963868	 1.3883047737	-0.257763
H	-1.9442981716	 1.8936246695	-0.543732797	 0.136976
H	-1.7511039368	 1.437441738	 1.1479508154	 0.136979
H	 0.199278618	 4.8513751052	 0.9272307557	 0.08578
H	 0.3749891948	 3.3806480612	-1.5924613915	 0.112751
H	 1.8797050107	 3.9666349408	-0.8265686311	 0.114809
H	 2.1567170163	 1.4589971455	-0.211167055	 0.08661
H	 2.1583229469	 3.309487082	 1.6107449515	 0.114807
H	 0.8178141603	 2.336177731	 2.2814559354	 0.112751
68.2523	174.5382	389.8791	412.241	440.5983	454.4886	571.9904	581.472	729.5617	807.0799	847.7241	874.8154	906.8682	932.9246	948.6651	1002.3731	1020.1544	1052.3726	1075.6736	1097.1392	1138.3774	1177.2358	1229.6368	1242.8284	1250.1163	1269.0274	1271.9887	1320.7145	1345.997	1386.8924	1473.3225	1475.3997	1503.9175	1830.048	3021.1656	3052.7377	3063.9973	3066.7547	3108.8531	3120.6045	3124.3301	3127.2273
O=C1COC2CC1C2	O=C1CO[C@@H]2C[C@H]1C2	
InChI=1S/C6H8O2/c7-6-3-8-5-1-4(6)2-5/h4-5H,1-3H2	InChI=1S/C6H8O2/c7-6-3-8-5-1-4(6)2-5/h4-5H,1-3H2/t4-,5+
