18
gdb 88938	3.22455	0.91421	0.84792	1.3135	73.41	-0.23	-0.099	0.131	1408.8587	0.144305	-439.064823	-439.055171	-439.054227	-439.101109	33.593	
C	-0.4969812216	 1.4291442445	 0.2595561719	-0.321312
N	-0.1185253453	 0.0338796324	 0.1059860069	-0.064552
C	 1.2512273303	-0.2771840175	-0.2756529771	-0.268706
C	 0.7470246915	-0.6090059811	 1.0898789463	 0.028763
C	 1.3098494416	 0.0995589889	 2.3030076612	-0.350396
C	 0.3432709658	 0.1745743121	 3.4647834415	 0.288986
O	-0.8120921128	-0.1798208502	 3.4357947994	-0.269365
C	 0.8841687401	 0.7528574233	 4.7818728941	 0.094003
O	 2.0166456677	 1.130300086	 4.9274788414	-0.217904
H	 0.3218275062	 2.0998713461	 0.5681064667	 0.093039
H	-0.8753078691	 1.7951513239	-0.7000130429	 0.12805
H	-1.3030947948	 1.5012238992	 0.995665715	 0.136505
H	 1.3799095257	-1.0505263216	-1.0287286508	 0.117358
H	 1.9618184834	 0.5472981416	-0.3489415116	 0.103269
H	 0.4540250673	-1.6372453286	 1.2947803626	 0.101404
H	 2.2178385289	-0.4065855573	 2.6575342031	 0.14682
H	 1.6441181452	 1.120192329	 2.0826561282	 0.143529
H	 0.1158716199	 0.7849041893	 5.5831776942	 0.110509
20.7323	63.852	124.9203	127.009	187.8289	225.9714	287.3217	319.9959	409.3616	435.8892	480.953	529.0222	626.782	746.5007	805.6141	815.1096	883.6716	932.5841	1017.1892	1039.7828	1075.6786	1117.6243	1131.7625	1139.1703	1159.3614	1169.8206	1202.0426	1222.1229	1345.8275	1346.9502	1363.1904	1417.92	1433.5443	1449.8633	1492.3784	1504.5824	1517.7805	1804.8671	1824.2703	2924.6148	2964.7997	3037.19	3067.6641	3071.4263	3078.4909	3110.9609	3120.0534	3168.3632
CN1CC1CC(=O)C=O	CN1C[C@H]1CC(=O)C=O	
InChI=1S/C6H9NO2/c1-7-3-5(7)2-6(9)4-8/h4-5H,2-3H2,1H3	InChI=1S/C6H9NO2/c1-7-3-5(7)2-6(9)4-8/h4-5H,2-3H2,1H3/t5-,7?/m1/s1
