18
gdb 105354	2.19793	1.67439	1.19544	0.7222	72.4	-0.2388	-0.0352	0.2036	1085.3277	0.145705	-439.02593	-439.017185	-439.016241	-439.059495	32.191	
C	-0.1537425283	 1.2148911396	 0.4259060761	-0.257522
O	-0.2390857732	-0.159020348	 0.0932333132	-0.286631
C	 0.5168279195	-0.5297589141	-1.0257134334	 0.349677
C	 2.0873719038	-0.3859729044	-1.0320131485	-0.309486
C	 2.1722107626	-1.8969711774	-1.2514014092	-0.024939
N	 1.5469958518	-2.5076655272	-0.0573784512	-0.329405
C	 0.6943031437	-2.0509198842	-1.1786668375	-0.127045
C	-0.1317731543	 0.0182038085	-2.2962684074	 0.092873
O	 0.4446404462	 0.3140110479	-3.3101295809	-0.242512
H	 0.8696009441	 1.5027947981	 0.7018714599	 0.119057
H	-0.4862135728	 1.8669771439	-0.3960022629	 0.111237
H	-0.8097134099	 1.3730759117	 1.2843218321	 0.135601
H	 2.4227355107	 0.2115418986	-1.8804040044	 0.131892
H	 2.5301192214	-0.0398306156	-0.0969320336	 0.113986
H	 2.8850759879	-2.4383370428	-1.8591211236	 0.100571
H	 1.6231710564	-3.5206965776	-0.1546312309	 0.232036
H	 0.0234938078	-2.7313027927	-1.6886896783	 0.099744
H	-1.2393238173	 0.0973714855	-2.2023658696	 0.090867
84.891	116.6902	152.171	185.0722	209.052	274.3408	310.8091	401.3857	427.3056	514.7805	604.4225	650.8563	775.0425	816.7935	840.4987	883.7906	921.341	956.1101	977.9954	1009.8147	1066.8943	1084.8182	1090.403	1127.8875	1153.8521	1175.4663	1182.7009	1209.0285	1233.4099	1246.3291	1293.6482	1319.4015	1373.0898	1399.988	1454.2444	1482.7261	1489.0944	1506.8328	1830.3541	2874.3748	2986.2802	3043.7042	3081.3828	3125.6459	3151.4539	3187.757	3207.7429	3465.4474
COC1(CC2NC12)C=O	CO[C@]1(C[C@H]2N[C@@H]12)C=O	
InChI=1S/C6H9NO2/c1-9-6(3-8)2-4-5(6)7-4/h3-5,7H,2H2,1H3	InChI=1S/C6H9NO2/c1-9-6(3-8)2-4-5(6)7-4/h3-5,7H,2H2,1H3/t4-,5-,6-/m1/s1
