14
gdb 43531	2.64402	1.46141	1.06174	2.4263	69.39	-0.267	-0.0088	0.2582	1084.3976	0.100585	-432.834332	-432.826373	-432.825429	-432.867111	29.078	
N	-0.107863039	 1.1772749483	-0.8069381609	-0.536671
C	-0.0295642736	 0.0836802932	-0.1898713229	 0.331391
N	 0.9549089357	-0.6531144263	 0.4883170455	-0.354359
C	 0.1335045501	-1.8646741746	 0.6373987976	-0.200914
C	 0.0345922176	-2.3927266866	 1.9962966927	 0.297038
N	-0.0630466888	-2.8222988687	 3.0645465168	-0.319491
C	-1.0495197927	-0.9977756266	 0.1060644873	 0.355879
C	-2.4475571039	-0.9289464051	 0.5199912777	-0.248863
O	-2.0421379565	-1.4593010461	-0.7566868549	-0.249042
H	 0.7857431832	 1.6677259465	-0.8578142735	 0.224588
H	 1.95022167	-0.6421737361	 0.3201216582	 0.258071
H	 0.3772883421	-2.6753858684	-0.0586000682	 0.146037
H	-2.8299104955	-1.6606150631	 1.228486812	 0.145745
H	-2.9585353888	 0.0298308635	 0.4800202026	 0.15059
85.679	120.5515	216.7236	234.1573	250.141	326.7186	402.7015	424.2184	521.6306	606.0035	634.3389	694.0019	773.9813	831.7056	857.9309	915.6672	957.9601	1012.0526	1040.2982	1059.2302	1121.1004	1134.3238	1159.3728	1174.9539	1288.3235	1337.1086	1366.4128	1444.7972	1532.3701	1817.3996	2360.3197	3050.6454	3102.1655	3203.0323	3478.5375	3615.105
N=C1NC(C#N)C11CO1	[NH][C]1N[C@@H](C#N)[C@]21CO2	
InChI=1S/C5H5N3O/c6-1-3-5(2-9-5)4(7)8-3/h3H,2H2,(H2,7,8)	InChI=1S/C5H5N3O/c6-1-3-5(2-9-5)4(7)8-3/h3H,2H2,(H2,7,8)/t3-,5-/m0/s1
