16
gdb 42855	3.25972	1.10918	0.9876	3.2958	74.88	-0.254	-0.008	0.2461	1209.9502	0.12315	-400.647867	-400.639807	-400.638863	-400.681095	30.361	
O	-0.1934259631	-0.0089137436	-0.0171690235	-0.312348
C	-0.1127305045	 1.1733164813	 0.0254132039	 0.503032
C	-0.969278749	 2.4579976336	-0.0198327275	-0.162635
N	-0.0444775217	 2.926397386	 1.1043017167	-0.326799
C	 0.9193095523	 2.3230695381	 0.083873099	-0.190373
C	 0.0768694977	 2.9765935985	-1.0644924296	 0.017233
C	 0.1198725932	 2.4430927372	-2.5018195122	-0.407963
C	-0.9505917499	 2.997905119	-3.3219769189	 0.303573
C	-1.8439209744	 3.47464195	-3.9691233104	-0.445288
H	-2.0463658657	 2.6062524085	 0.0062640328	 0.109182
H	 0.0319729219	 3.9466580551	 1.0291909663	 0.220566
H	 1.9975954339	 2.3146733967	 0.2313191191	 0.102686
H	 0.1470524874	 4.0689917216	-1.039615901	 0.095586
H	 1.0926609284	 2.6928006108	-2.9449645576	 0.139201
H	 0.0563565794	 1.3476012501	-2.5006841203	 0.152862
H	-2.6292021758	 3.8843765472	-4.5547521067	 0.201485
55.1514	109.6329	146.4652	288.8732	312.7365	344.7336	440.5632	449.733	588.1233	626.9586	646.5183	677.7367	759.5819	777.4045	808.0072	854.3317	875.9348	947.0828	969.2027	995.6021	1038.1054	1083.5143	1094.3982	1122.8829	1146.8808	1154.0769	1218.4642	1244.3538	1278.0241	1293.1348	1322.8707	1398.1685	1470.5001	1945.4487	2240.5594	3022.2595	3052.5305	3069.2072	3144.3167	3155.962	3380.0066	3506.579
O=C1C2NC1C2CC#C	O=C1[C@H]2N[C@@H]1[C@H]2CC#C	
InChI=1S/C7H7NO/c1-2-3-4-5-7(9)6(4)8-5/h1,4-6,8H,3H2	InChI=1S/C7H7NO/c1-2-3-4-5-7(9)6(4)8-5/h1,4-6,8H,3H2/t4-,5-,6+
