17
gdb 51945	5.1228	0.76907	0.72752	4.3901	72.93	-0.2591	-0.0422	0.217	1542.2778	0.135003	-455.120439	-455.111305	-455.110361	-455.155731	31.682	
N	-0.4313288525	 1.1320000256	 0.1669459689	-0.440184
C	-0.5199399559	-0.1218380517	 0.2386858867	 0.149686
O	-0.8437238513	-0.8301510427	-0.8705147406	-0.165548
C	-0.9535946509	-2.2232643347	-0.7237656175	-0.201515
C	-2.1750363037	-2.6655291606	 0.080505042	 0.360411
O	-2.8679466539	-1.8767142617	 0.6848215805	-0.316149
C	-2.4504462759	-4.1340069883	 0.1004796702	-0.108035
C	-2.7364733484	-4.7341546595	 1.4471037073	-0.21461
N	-3.8069772564	-4.5577043777	 0.4807505128	-0.296757
H	-0.1679837332	 1.5150832652	 1.0722265346	 0.231822
H	-0.3414508236	-0.7463800268	 1.1227084889	 0.087753
H	-1.0190033037	-2.6372962143	-1.7350581453	 0.153277
H	-0.0571678979	-2.664674474	-0.2577744904	 0.133563
H	-1.9645508914	-4.7425016675	-0.6569145795	 0.104239
H	-2.4333504838	-5.7606055649	 1.6314349395	 0.132822
H	-2.6874380472	-4.0631795875	 2.3001790314	 0.135514
H	-4.3253545703	-3.710553569	 0.7177915102	 0.25371
46.277	71.8973	87.611	146.4951	201.7911	263.1217	294.4029	326.0414	366.2809	569.3003	622.7932	710.5977	814.6588	822.5654	865.7438	890.2747	949.4176	967.9155	1002.2884	1034.7642	1036.0796	1076.9043	1123.0364	1134.9968	1179.1357	1189.928	1242.0768	1288.5121	1316.6803	1323.0079	1376.9576	1409.6355	1422.1703	1466.5939	1495.7534	1751.8972	1799.0885	2983.0747	3041.9429	3085.9827	3114.0363	3153.1557	3208.8287	3463.0654	3522.7251
N=COCC(=O)C1CN1	[NH][CH]OCC(=O)[C@H]1CN1	
InChI=1S/C5H8N2O2/c6-3-9-2-5(8)4-1-7-4/h3-4,6-7H,1-2H2	InChI=1S/C5H8N2O2/c6-3-9-2-5(8)4-1-7-4/h3-4,6-7H,1-2H2/t4-/m1/s1
