19
gdb 112342	2.13806	1.42988	0.91238	5.8809	80.14	-0.2187	0.0006	0.2193	1288.2173	0.160065	-419.268146	-419.25891	-419.257966	-419.302132	34.742	
C	-0.0444224511	 1.5525942869	 0.0686647613	-0.391993
C	-0.0010229437	 0.0233491814	 0.0126593597	-0.165936
C	 0.6732609325	-0.5247680176	-1.2611990693	-0.052158
N	 2.0878765164	-0.2345409771	-1.3553190904	-0.350986
C	 2.8789952418	-1.3786177283	-1.2560314912	 0.425719
O	 4.0900076555	-1.3826387013	-1.1727215897	-0.399134
C	 1.9375789289	-2.5141090278	-1.2926660924	-0.363913
C	 0.6752871235	-2.044873916	-1.3117545788	 0.364546
N	-0.5190987636	-2.7212538071	-1.295950386	-0.583337
H	 0.9605111342	 1.9876224863	 0.0882877068	 0.119162
H	-0.5715564095	 1.9689069554	-0.7971383354	 0.117569
H	-0.5615047724	 1.8944524222	 0.9699559806	 0.123122
H	 0.5339188286	-0.3770858954	 0.8811941319	 0.115677
H	-1.021611366	-0.3749528152	 0.0614579388	 0.098075
H	 0.1327501383	-0.1279609598	-2.1377952638	 0.083492
H	 2.4760804003	 0.6628483599	-1.1182563502	 0.244212
H	 2.2654219067	-3.5430466878	-1.3024106024	 0.099768
H	-0.484896012	-3.7007338474	-1.5344783027	 0.260954
H	-1.3163850286	-2.2452787214	-1.6899087366	 0.255164
84.5164	95.7869	172.9681	182.7975	237.2361	287.7437	325.1222	383.982	406.4798	442.6519	508.6273	541.5963	600.4017	635.4226	694.1826	740.1721	786.6952	831.98	865.4585	944.6789	958.989	1021.1256	1067.1152	1089.1708	1112.6129	1154.5862	1212.7892	1238.0068	1281.8069	1297.9156	1356.3986	1375.7693	1385.4345	1412.8977	1424.1539	1478.7535	1499.8523	1506.229	1643.3417	1697.8017	1816.1985	2953.3687	3031.9058	3033.9296	3072.2819	3101.1634	3108.0684	3243.2678	3574.8452	3663.9749	3677.9491
CCC1NC(=O)C=C1N	CC[C@H]1NC(=O)C=C1N	
InChI=1S/C6H10N2O/c1-2-5-4(7)3-6(9)8-5/h3,5H,2,7H2,1H3,(H,8,9)	InChI=1S/C6H10N2O/c1-2-5-4(7)3-6(9)8-5/h3,5H,2,7H2,1H3,(H,8,9)/t5-/m1/s1
