12
gdb 25530	5.74386	0.89869	0.81155	3.6369	59.9	-0.24	-0.0321	0.2079	1299.268	0.076182	-509.780821	-509.773255	-509.772311	-509.814379	26.484	
N	 0.1881690542	 1.3899496996	 0.3477011316	-0.563833
C	 0.0641044734	 0.1506554797	 0.2257220527	 0.52235
O	 0.9183031788	-0.7461560879	-0.3779393959	-0.216338
C	 0.3454873847	-2.001288713	-0.2520313211	-0.175308
C	-0.8064290408	-1.8646646965	 0.3963058633	 0.368477
O	-1.7417116725	-2.7329827513	 0.8108294252	-0.212392
C	-2.5997808859	-3.2494487416	-0.1507963725	 0.170876
O	-3.4272948552	-4.046988142	 0.1282315517	-0.223574
O	-1.0192077259	-0.5414052512	 0.7052602821	-0.207768
H	 1.0555904599	 1.7135763826	-0.0716492908	 0.244911
H	 0.8803038847	-2.8476973476	-0.6419380001	 0.177623
H	-2.3804329154	-2.8324428009	-1.1481010263	 0.114976
31.1936	114.9744	147.3054	212.8077	350.1477	401.7543	474.0323	539.9894	637.3784	720.9434	736.9428	745.4428	780.3951	825.7811	911.0779	984.4622	1018.7189	1029.6105	1064.1755	1111.1701	1195.9042	1305.0584	1344.477	1398.7866	1746.8391	1831.6547	1906.4251	3007.435	3311.9449	3553.1017
N=C1OC=C(OC=O)O1	[NH][C@@H]1OC=C(OC=O)O1	
InChI=1S/C4H3NO4/c5-4-7-1-3(9-4)8-2-6/h1-2,5H	InChI=1S/C4H4NO4/c5-4-7-1-3(9-4)8-2-6/h1-2,4-5H/t4-/m1/s1
