21
gdb 115903	3.29409	1.27526	1.11092	0.9273	78.31	-0.2364	0.0855	0.3219	1178.8164	0.183974	-424.198233	-424.190054	-424.18911	-424.231012	31.915	
C	-0.3410154572	 1.5670591648	 0.0848242953	-0.240745
O	-0.1376558608	 0.2099190008	 0.4096960621	-0.251158
C	-1.1930754799	-0.6498556736	 0.0149349214	 0.109879
C	-1.1962246519	-0.8527383112	-1.5271546077	-0.093508
O	-1.6424350898	-2.1397042488	-1.9430608307	-0.276585
C	-1.364517072	-3.1767955003	-1.0112179284	 0.134339
C	-2.1641731781	-2.932102758	 0.2947270098	-0.243612
C	-0.9840881038	-2.0035645451	 0.6976360258	-0.046044
C	-0.0746625696	-2.9032564282	-0.1889832977	-0.255016
H	 0.4801105276	 2.1324516478	 0.5325088994	 0.1285
H	-0.3359331011	 1.7487967753	-1.0000466324	 0.109097
H	-1.2931742477	 1.9419125429	 0.4925611129	 0.104654
H	-2.1523907739	-0.2212539024	 0.3508723875	 0.064947
H	-1.8387255973	-0.1291235619	-2.0365349637	 0.104573
H	-0.1637356672	-0.680784819	-1.8650888597	 0.103638
H	-1.4816541497	-4.1165045432	-1.5539563761	 0.074039
H	-3.1601153848	-2.4943338054	 0.1835532218	 0.095127
H	-2.215048147	-3.8236564581	 0.9248833275	 0.098353
H	-0.7392079121	-1.8648121512	 1.7520418115	 0.07006
H	 0.2421648585	-3.8024900329	 0.3443444878	 0.10106
H	 0.7861515478	-2.4576327022	-0.6912648465	 0.108404
90.5924	117.43	195.5121	223.2194	300.4092	365.2541	417.0347	441.8712	456.5519	525.9089	596.2999	798.9638	816.996	838.8257	887.3825	898.5386	937.4022	963.4055	981.2294	1001.106	1044.1408	1059.0427	1088.9401	1112.9546	1136.8069	1147.0738	1154.3032	1181.474	1197.3637	1226.6035	1240.0535	1256.9074	1274.5471	1278.0279	1329.5234	1347.8414	1359.6976	1377.5101	1418.0627	1469.1394	1478.5547	1492.1262	1496.8912	1509.4687	1521.8126	2955.176	2975.4001	2995.9506	3024.2589	3053.9923	3069.9666	3081.4496	3094.5971	3097.911	3111.7593	3115.2466	3126.6768
COC1COC2CC1C2	CO[C@H]1CO[C@@H]2C[C@H]1C2	
InChI=1S/C7H12O2/c1-8-7-4-9-6-2-5(7)3-6/h5-7H,2-4H2,1H3	InChI=1S/C7H12O2/c1-8-7-4-9-6-2-5(7)3-6/h5-7H,2-4H2,1H3/t5-,6+,7-/m0/s1
