20
gdb 11675	3.23398	1.78345	1.4559	0.9276	75.68	-0.2467	0.098	0.3447	967.995	0.176907	-348.950679	-348.942566	-348.941622	-348.983059	30.961	
C	-0.7107760094	 1.5881149432	-0.3205628988	-0.261825
O	-0.5185222504	 0.1871647378	-0.3017468232	-0.290444
C	-1.6708808874	-0.5422154443	-0.1104270513	 0.442282
C	-2.6235490762	-0.560359118	 1.130911955	-0.28945
C	-3.1626742283	-1.6287415955	 0.1372602892	-0.068903
C	-2.9594710151	-0.586544737	-1.0004087507	-0.3002
C	-1.6798215686	-2.0937244564	-0.0576816992	 0.005592
C	-1.2381049332	-2.9400550441	-1.2412141819	-0.445078
H	 0.2674865859	 2.0434875741	-0.489389513	 0.127369
H	-1.390481198	 1.8940274856	-1.1284598883	 0.11207
H	-1.1151774484	 1.9554137784	 0.6332751416	 0.112043
H	-2.1984938873	-0.9295960092	 2.0680979588	 0.090393
H	-3.2573993075	 0.3162981559	 1.2862662647	 0.086294
H	-4.0329342942	-2.2643368263	 0.284797931	 0.077119
H	-3.6113517959	 0.2902232037	-0.964108937	 0.087836
H	-2.8595227644	-0.9579247302	-2.0204309685	 0.094807
H	-1.233451673	-2.4844262192	 0.8644503506	 0.063071
H	-1.6700219454	-2.6200894859	-2.1924744339	 0.116643
H	-0.1484840932	-2.9033763539	-1.3450174058	 0.126218
H	-1.5185495901	-3.9876527387	-1.0860667492	 0.114162
78.044	162.0989	174.7933	192.8486	265.8012	322.3403	400.4653	459.1267	548.3525	590.0891	630.438	762.1113	791.2857	826.8611	907.8721	939.152	955.1367	994.2431	1001.7617	1041.6206	1087.2262	1089.383	1107.9801	1139.3541	1142.785	1154.6489	1171.7257	1182.4682	1210.1841	1218.7916	1234.5425	1261.0057	1305.9392	1406.6427	1425.3167	1483.3176	1488.6401	1488.7625	1495.498	1506.9523	1510.4367	1545.0207	2991.513	3031.3943	3037.9625	3043.4512	3052.4961	3066.9584	3094.5606	3115.4998	3119.7806	3121.46	3136.0204	3141.2284
COC12CC(C1)C2C	CO[C@@]12C[C@@H](C1)[C@H]2C	
InChI=1S/C7H12O/c1-5-6-3-7(5,4-6)8-2/h5-6H,3-4H2,1-2H3	InChI=1S/C7H12O/c1-5-6-3-7(5,4-6)8-2/h5-6H,3-4H2,1-2H3/t5-,6-,7-/m1/s1
