23
gdb 59548	2.49277	1.32183	1.02733	1.6914	85.48	-0.2278	0.0745	0.3023	1290.6705	0.20376	-388.262695	-388.252814	-388.251869	-388.297135	37.569	
C	 0.169904386	 1.4660854033	 0.1566477259	-0.392854
C	-0.123785642	-0.0341733811	 0.0199024263	 0.01142
C	-1.6269307023	-0.3093729023	-0.1229708117	-0.397443
C	 0.6372574148	-0.6127109968	-1.1659733545	 0.106536
O	 2.0859032875	-0.444744458	-1.0740755241	-0.314259
C	 2.2741916109	-1.8293982346	-1.3715649323	 0.065344
C	 1.6972795231	-2.6890081506	-0.2903359767	-0.354383
C	 0.7934113845	-2.1279183217	-1.3771966583	 0.246881
C	-0.0551773251	-2.9736694168	-2.2810798603	-0.497684
H	 1.2450889726	 1.6439512391	 0.2400814326	 0.135786
H	-0.1981458588	 2.0184034516	-0.7164904791	 0.108625
H	-0.3200972784	 1.8811240404	 1.0433635031	 0.106705
H	 0.2369700605	-0.5360493599	 0.9263878523	 0.073601
H	-2.0278174276	 0.1489097648	-1.0350604228	 0.112897
H	-1.8406718958	-1.3821770048	-0.1641648929	 0.117847
H	-2.1792014955	 0.1079890759	 0.724865391	 0.115044
H	 0.2886533141	-0.1367440734	-2.095976654	 0.069919
H	 3.082973469	-2.1008508812	-2.0408853465	 0.099558
H	 1.8892282613	-3.7539436423	-0.387271756	 0.109603
H	 1.6715036694	-2.3214360901	 0.7313961691	 0.114198
H	-1.0144395531	-3.2290297493	-1.8153039659	 0.123407
H	-0.2695701695	-2.4571539926	-3.2236738799	 0.119418
H	 0.4485245744	-3.9148869696	-2.524615255	 0.119835
61.1027	138.2253	157.7761	194.9707	219.0687	238.0699	265.1784	299.2457	323.3714	406.3927	415.4334	483.4062	507.0774	651.5738	744.3833	819.113	862.1164	891.6713	916.8372	927.9294	946.1988	976.2572	979.6726	1004.1447	1030.5732	1041.8356	1078.324	1097.2625	1118.997	1139.3485	1173.3055	1202.1748	1242.9828	1261.926	1290.7326	1315.7652	1342.4092	1387.3089	1395.3224	1411.535	1419.8401	1429.0612	1485.6203	1487.7024	1489.341	1491.658	1498.7922	1503.5077	1512.1122	2979.6785	3021.1365	3025.8602	3026.9291	3032.9312	3079.4442	3089.9209	3094.5968	3096.3194	3104.0866	3115.2533	3120.7375	3173.4693	3203.1776
CC(C)C1OC2CC12C	CC(C)[C@H]1O[C@H]2C[C@@]12C	
InChI=1S/C8H14O/c1-5(2)7-8(3)4-6(8)9-7/h5-7H,4H2,1-3H3	InChI=1S/C8H14O/c1-5(2)7-8(3)4-6(8)9-7/h5-7H,4H2,1-3H3/t6-,7+,8+/m0/s1
