19
gdb 47639	2.35781	1.65735	1.11264	3.4319	86.25	-0.2371	-0.0636	0.1735	1114.7783	0.161488	-385.923725	-385.915863	-385.914919	-385.956044	30.873	
O	-0.2691460328	 0.0237960822	 0.5049087186	-0.333358
C	-0.017350292	 1.16476884	 0.1595011927	 0.354768
C	-1.1381400786	 2.1761568595	-0.0432252315	-0.292579
C	-1.613286644	 2.2583019487	-1.5065757531	-0.196234
C	-0.459658137	 2.5643758531	-2.4862761588	-0.264623
C	 0.3278139437	 3.781217763	-2.0993770332	-0.041889
C	 1.3550100374	 3.8067137212	-1.2344666341	-0.094203
C	 1.9545050069	 2.6725841931	-0.5392782858	-0.063098
C	 1.4048830749	 1.5601682178	-0.0100405481	-0.155677
H	-1.9684999154	 1.8530930169	 0.589923612	 0.118387
H	-0.8109198417	 3.1667541609	 0.286939627	 0.112197
H	-2.0806968371	 1.3108306854	-1.7961974229	 0.117141
H	-2.3864454572	 3.0318528838	-1.5793727564	 0.101617
H	 0.2086139437	 1.6947361271	-2.5138869878	 0.123388
H	-0.8687907522	 2.6901335661	-3.4941384568	 0.10356
H	 0.0395214889	 4.7207830087	-2.5662196486	 0.098265
H	 1.8749371792	 4.752109428	-1.0909822543	 0.096913
H	 3.0382710259	 2.7484337719	-0.4440890388	 0.108407
H	 2.0746886273	 0.8033455725	 0.3908747099	 0.107018
80.7675	198.552	227.2684	250.6638	288.643	340.4104	419.2376	493.6099	533.582	583.5375	672.1279	689.1968	786.7843	810.1258	819.6558	857.3653	869.788	918.7199	989.1052	1008.5892	1032.2129	1035.9434	1060.6871	1081.2625	1140.52	1184.11	1226.9658	1272.247	1276.2408	1296.9066	1333.3948	1361.3861	1374.2624	1413.5353	1447.8766	1472.779	1487.6174	1496.1635	1652.7703	1687.5035	1749.7864	3027.2343	3034.2724	3055.2477	3073.5167	3082.451	3111.7748	3116.4509	3136.4122	3158.8172	3166.8518
O=C1CCCC=CC=C1	O=C1CCCC=CC=C1	
InChI=1S/C8H10O/c9-8-6-4-2-1-3-5-7-8/h1-2,4,6H,3,5,7H2/b2-1-,6-4-	InChI=1S/C8H10O/c9-8-6-4-2-1-3-5-7-8/h1-2,4,6H,3,5,7H2/b2-1-,6-4-
