17
gdb 51589	6.01979	0.62684	0.60617	2.2937	74.93	-0.2562	-0.0336	0.2226	1750.5643	0.134683	-418.000837	-417.99146	-417.990516	-418.037	32.152	
O	-0.741811361	 0.4836786828	 0.1968038099	-0.232811
C	-0.1018887301	 1.5025535489	 0.1953166984	 0.158248
C	 1.3378815562	 1.6144599454	-0.2735980749	-0.287939
C	 1.4768463043	 2.6872618444	-1.3374921915	-0.041614
N	 1.4830374153	 4.0869552322	-0.8793658344	-0.323527
C	 2.677618096	 3.5476108926	-1.5306344	-0.017688
C	 3.9360730474	 3.4436236469	-0.6815746779	-0.344877
C	 4.704117442	 4.6890619624	-0.7054166623	 0.261734
N	 5.303516302	 5.6758095555	-0.7459369351	-0.2991
H	-0.5386814773	 2.4641034954	 0.5450930553	 0.093714
H	 1.9422043976	 1.8798533465	 0.6018446359	 0.124388
H	 1.6633202328	 0.6383542317	-0.6450610446	 0.126605
H	 0.9248605231	 2.4679727683	-2.2507492039	 0.107027
H	 0.9602096766	 4.6927352024	-1.504488053	 0.246259
H	 2.8750224484	 3.8556150614	-2.5554654465	 0.112395
H	 3.6774153158	 3.2164556221	 0.3559996275	 0.160393
H	 4.575407281	 2.6325661212	-1.0497965927	 0.156792
36.8349	56.1755	69.8457	115.0532	174.5018	230.3024	358.1024	384.6348	423.0669	487.0122	509.0472	560.7153	796.6679	800.6144	870.5505	874.023	940.7981	959.7048	991.1359	1023.763	1041.4309	1080.3297	1132.9326	1185.784	1220.1915	1258.9083	1263.6348	1277.6084	1293.692	1322.3085	1413.5956	1419.3743	1445.9896	1456.2626	1477.6713	1836.2108	2365.1708	2892.6029	3041.8969	3049.6235	3100.5161	3105.7923	3117.2939	3133.9698	3523.5202
O=CCC1NC1CC#N	O=CC[C@H]1N[C@H]1CC#N	
InChI=1S/C6H8N2O/c7-3-1-5-6(8-5)2-4-9/h4-6,8H,1-2H2	InChI=1S/C6H8N2O/c7-3-1-5-6(8-5)2-4-9/h4-6,8H,1-2H2/t5-,6+/m0/s1
