19
gdb 68855	2.42839	1.81089	1.39805	2.8379	74.27	-0.2494	0.0747	0.3242	997.559	0.158882	-423.006712	-422.998583	-422.997639	-423.038723	32.486	
C	-0.0480728854	 1.5042147584	-0.0281249981	-0.485992
C	-0.0006657773	-0.0031791754	 0.0007066793	 0.278841
C	 1.306137766	-0.7573858572	-0.1980854518	-0.405036
C	 0.6105374415	-0.7797100918	 1.1463271235	 0.374612
O	 1.1699231804	-0.0619426196	 2.2040708999	-0.47199
C	-0.2483157371	-2.001906601	 1.482261896	-0.325572
C	-1.3603294265	-1.9657596755	 0.4417707927	 0.05603
O	-2.2349472889	-0.8391905916	 0.5756314591	-0.259607
C	-1.2088309796	-0.7891531826	-0.4262392782	-0.036472
H	 0.8088608297	 1.9253991577	 0.5031978405	 0.129299
H	-0.0403529213	 1.8854207111	-1.0554545662	 0.111227
H	-0.9579810052	 1.8646484499	 0.4624294718	 0.133493
H	 1.3194087694	-1.653871654	-0.8117238154	 0.104576
H	 2.2029499691	-0.1493975497	-0.2597149282	 0.112691
H	 1.9694466061	-0.5178661196	 2.4874831614	 0.283758
H	 0.3122926694	-2.9435195522	 1.4316813005	 0.094133
H	-0.656554772	-1.9026665992	 2.4931841814	 0.121345
H	-1.8371663947	-2.8839850727	 0.1078043018	 0.093125
H	-1.5621891436	-0.7595811749	-1.4553900698	 0.091539
157.1376	197.2298	201.5992	225.3384	281.0934	364.4938	386.6408	433.4325	475.272	500.4169	557.6731	661.5128	736.8741	757.8796	822.3195	862.1525	914.6007	922.7335	932.5695	962.0128	973.8875	1024.1404	1030.6575	1054.2974	1105.8853	1123.7204	1162.6695	1182.5556	1255.2896	1258.5759	1266.1313	1296.8834	1317.9515	1363.8431	1401.3536	1413.138	1431.5997	1475.9562	1489.1343	1491.1244	1504.0933	3029.1641	3032.9	3083.8968	3095.7205	3115.9391	3122.7425	3127.7327	3146.6687	3207.9676	3802.5215
CC12CC1(O)CC1OC21	C[C@@]12C[C@]1(O)C[C@H]1O[C@@H]21	
InChI=1S/C7H10O2/c1-6-3-7(6,8)2-4-5(6)9-4/h4-5,8H,2-3H2,1H3	InChI=1S/C7H10O2/c1-6-3-7(6,8)2-4-5(6)9-4/h4-5,8H,2-3H2,1H3/t4-,5-,6+,7-/m1/s1
