21
gdb 57094	2.93089	1.09333	0.83438	1.6899	83.9	-0.2463	0.0485	0.2948	1395.9486	0.182037	-387.064299	-387.054693	-387.053749	-387.099743	35.269	
C	 0.0116161303	 1.5854361297	 0.0615956132	-0.394106
C	 0.0039424836	 0.0433290815	 0.042267741	-0.18276
C	 0.7452152223	-0.4864598357	 1.1881368783	 0.328129
C	 1.3403931347	-0.9082438576	 2.1441223263	-0.467744
C	-1.4263760758	-0.5332756075	-0.0011030269	 0.038234
C	-2.2326599681	-0.1596898935	-1.2666975325	-0.271001
C	-3.1152656212	-1.4084979627	-1.5247650299	-0.075397
O	-2.7981963998	-2.3614123744	-0.5145171606	-0.248714
C	-1.4981826695	-2.0669475975	-0.03753434	-0.098924
H	 1.0356905066	 1.9664435484	 0.0869689337	 0.126898
H	-0.4834917906	 1.9844887917	-0.8280772066	 0.119356
H	-0.5107194828	 1.9613329593	 0.9465894032	 0.126814
H	 0.517870461	-0.2871792891	-0.8728892241	 0.102432
H	 1.8732294294	-1.2880748691	 2.9804101936	 0.195195
H	-1.9649232922	-0.1896958164	 0.8896826502	 0.086355
H	-2.8275602647	 0.746003905	-1.1307927299	 0.111118
H	-1.5583886157	 0.0167776324	-2.1120193683	 0.102791
H	-4.1869907082	-1.1979536473	-1.4563007803	 0.107022
H	-2.9175065395	-1.8279407738	-2.5224056493	 0.091961
H	-0.7220490529	-2.4713691197	-0.712285475	 0.081839
H	-1.379385917	-2.5374185537	 0.9403763638	 0.120502
29.2613	85.6286	121.0312	167.3264	207.1517	240.712	261.3528	367.3813	388.1742	457.8629	552.9277	622.7418	634.7509	640.6228	702.562	814.7562	847.7337	886.0006	940.5819	965.4992	974.4846	986.6092	1036.7937	1068.2259	1106.4111	1116.9264	1135.4441	1170.8581	1226.4394	1231.0709	1263.7935	1281.1176	1302.878	1328.4287	1332.4909	1360.1354	1375.107	1405.6324	1411.9904	1493.5822	1497.0514	1501.0975	1511.0281	1530.5694	2232.1298	2943.431	2989.9478	2992.7875	3040.2409	3044.2584	3049.0741	3068.6936	3105.8801	3111.8195	3117.6538	3123.1084	3503.8098
CC(C#C)C1CCOC1	C[C@@H](C#C)[C@H]1CCOC1	
InChI=1S/C8H12O/c1-3-7(2)8-4-5-9-6-8/h1,7-8H,4-6H2,2H3	InChI=1S/C8H12O/c1-3-7(2)8-4-5-9-6-8/h1,7-8H,4-6H2,2H3/t7-,8-/m0/s1
