19
gdb 66245	2.64645	1.41063	1.2425	2.2028	70.29	-0.2519	0.083	0.3349	1094.5281	0.158746	-460.136512	-460.127954	-460.12701	-460.17013	31.777	
C	 0.306002462	 1.7028411309	 0.7414766208	-0.431411
C	 0.0726363017	 0.2394733315	 0.3663891733	 0.332321
C	 0.4261703773	-0.079904443	-1.1133053719	-0.17053
O	 1.7022938958	-0.6998326101	-1.0388327151	-0.239238
C	 1.6739417404	-1.3979034611	 0.1786950063	 0.01271
O	 1.0199196819	-0.5576582822	 1.1045873619	-0.292997
C	-1.3281733643	-0.1897228237	 0.773550351	 0.054557
C	-2.4983903659	-0.0932623678	-0.1060474805	-0.19204
O	-1.8840438836	-1.3555517816	 0.1663056897	-0.235003
H	 1.3230763347	 1.9937405321	 0.4663516973	 0.133268
H	-0.4033269949	 2.3590532752	 0.2273073051	 0.115476
H	 0.1898985162	 1.8446312626	 1.8201151272	 0.127064
H	-0.3110915632	-0.7661193552	-1.5487972484	 0.117347
H	 0.5163783096	 0.8141597382	-1.7332718403	 0.114133
H	 1.129620807	-2.3527173939	 0.0725346067	 0.094919
H	 2.6997030806	-1.5779962631	 0.5129924544	 0.117358
H	-1.4921087264	-0.1332384546	 1.8502457007	 0.104292
H	-3.4875119007	 0.0489690688	 0.325418859	 0.122487
H	-2.384467468	 0.2694787568	-1.1270817672	 0.115286
58.7305	93.5345	203.7177	227.8681	242.8864	270.4939	339.7674	356.3032	456.5667	547.7596	593.6175	737.5171	784.0192	848.4062	883.2645	910.9798	943.8532	963.3991	979.9705	1032.6876	1049.8247	1094.4478	1113.7017	1141.6401	1160.4678	1172.1577	1184.5388	1190.596	1234.235	1253.3673	1289.0119	1310.5118	1373.3086	1401.2352	1427.6979	1429.9047	1484.7756	1492.6492	1506.0449	1532.4529	1545.0425	2951.0741	3026.7077	3039.8231	3085.8395	3087.9908	3106.2552	3110.0782	3114.7554	3124.3863	3171.7273
CC1(COCO1)C1CO1	C[C@]1(COCO1)[C@H]1CO1	
InChI=1S/C6H10O3/c1-6(5-2-8-5)3-7-4-9-6/h5H,2-4H2,1H3	InChI=1S/C6H10O3/c1-6(5-2-8-5)3-7-4-9-6/h5H,2-4H2,1H3/t5-,6+/m1/s1
