20
gdb 111021	2.68286	1.23196	0.98398	1.2148	86.77	-0.2384	0.0365	0.2749	1280.9657	0.170537	-365.902668	-365.893855	-365.892911	-365.936463	33.887	
C	-0.0803245749	 1.5652456352	 0.0855298216	-0.372958
C	 0.2024382131	 0.074653737	-0.1431645475	-0.246751
C	 0.8089541648	-0.5740271091	 1.0875897464	 0.057594
N	-0.0479535675	-0.704431962	 2.3735723145	-0.175323
C	-0.6746894994	-1.9381604276	 1.7039398086	-0.21583
C	 0.825733363	-2.1157380418	 1.3468863798	 0.231636
C	 1.0416901544	-1.688920432	 2.8241543633	-0.201422
C	 1.4716636228	-3.1558220575	 0.5900357181	 0.003784
C	 2.0140698693	-4.0187375609	-0.0495093602	-0.344152
H	 0.8363077239	 2.1067500566	 0.3435279842	 0.115422
H	-0.5002190748	 2.0275198385	-0.8125976609	 0.111917
H	-0.7881188851	 1.7027255287	 0.9078365929	 0.138729
H	-0.713895605	-0.4291124434	-0.4642005126	 0.102422
H	 0.9193089289	-0.0487759372	-0.9650839836	 0.109187
H	 1.7604057702	-0.0794745897	 1.3183084819	 0.074517
H	-1.1026349114	-2.6463038683	 2.4177969034	 0.106672
H	-1.3828726891	-1.716633306	 0.9065396014	 0.109773
H	 1.9908743818	-1.2126193291	 3.0825144336	 0.106164
H	 0.7101207344	-2.3809486849	 3.601876699	 0.105814
H	 2.4935642505	-4.7816330664	-0.6116550038	 0.182804
56.8494	101.6651	165.8074	195.7671	217.0657	350.6856	359.2053	483.4232	514.2217	559.3175	581.558	630.8849	643.2715	644.3543	735.3889	791.0181	819.7135	871.5331	898.9373	961.8153	981.0269	986.5741	1035.0251	1058.9015	1092.9132	1121.0945	1138.3852	1163.8442	1180.948	1191.0206	1196.8853	1257.2854	1286.2852	1296.3346	1348.7736	1407.819	1440.8557	1482.2124	1496.7507	1506.8697	1518.0828	1554.2517	2228.1006	3027.5911	3033.2757	3037.8174	3055.8597	3071.3419	3080.0183	3106.2409	3119.2776	3126.8643	3146.6744	3499.311
CCC1N2CC1(C2)C#C	CC[C@H]1N2C[C@@]1(C2)C#C	
InChI=1S/C8H11N/c1-3-7-8(4-2)5-9(7)6-8/h2,7H,3,5-6H2,1H3	InChI=1S/C8H11N/c1-3-7-8(4-2)5-9(7)6-8/h2,7H,3,5-6H2,1H3/t7-/m1/s1
