15
gdb 11845	6.96503	1.13426	1.10243	4.2338	66.42	-0.2799	0.0258	0.3058	1054.3006	0.11896	-362.643928	-362.636771	-362.635827	-362.675654	26.55	
N	-0.8178590775	-0.7341639284	-0.941003083	-0.322345
C	-0.4084020845	 0.2363602674	-0.4640069527	 0.273368
C	 0.1162674863	 1.4439447044	 0.14682213	-0.144977
C	 0.0193803582	 1.574223797	 1.7066095206	-0.322962
C	 1.4527838553	 2.1100193801	 1.6789002984	 0.45828
C	 1.9935559243	 3.3156345737	 2.3080937463	-0.266043
O	 2.3771183441	 1.9963889263	 2.7327860404	-0.262337
C	 1.6739004505	 1.5886105895	 0.2570242174	-0.322962
H	-0.3230253094	 2.3145717814	-0.3459353313	 0.129446
H	-0.7704459807	 2.2163873909	 2.0993899112	 0.124984
H	-0.0320073037	 0.5953909916	 2.1894541239	 0.142151
H	 2.7730553928	 3.8870072204	 1.805976247	 0.123131
H	 1.3877520275	 3.8749587785	 3.019687831	 0.123131
H	 2.1689173416	 0.614529101	 0.2611471147	 0.142151
H	 2.1607338052	 2.2418752162	-0.4687265139	 0.124984
63.4431	155.5392	229.4683	311.2611	365.3947	376.2753	473.9704	560.6624	572.8896	699.2659	827.9021	850.1405	885.3853	888.1144	958.9142	972.4754	1040.707	1052.1785	1108.6933	1126.0493	1162.0319	1190.8074	1205.8176	1226.0688	1246.4289	1255.7289	1350.0641	1440.1854	1468.3016	1492.421	1538.9135	2356.084	3074.2601	3077.946	3083.1886	3084.4792	3135.8686	3137.9022	3172.2148
N#CC1CC2(CO2)C1	N#C[C@H]1C[C@]2(CO2)C1	
InChI=1S/C6H7NO/c7-3-5-1-6(2-5)4-8-6/h5H,1-2,4H2	InChI=1S/C6H7NO/c7-3-5-1-6(2-5)4-8-6/h5H,1-2,4H2/t5-,6+
