19
gdb 60972	2.72532	1.19446	1.1524	4.3244	71.79	-0.2381	-0.0193	0.2187	1165.6771	0.157551	-460.149703	-460.140598	-460.139654	-460.183754	34.072	
O	-0.3681680646	 1.4044320959	 0.5197879539	-0.424985
C	-0.0826937532	 0.0870701317	 0.139017009	 0.021476
C	 0.7691830111	 0.0100138138	-1.1235236126	 0.154162
O	 1.4343706073	 0.9172500187	-1.5489503895	-0.245864
C	 0.6060193974	-0.7674530092	 1.2313227428	-0.043462
C	 2.0377841016	-0.3067243284	 1.6547136455	-0.249045
C	 1.4486509641	 0.3106599606	 2.9408281106	 0.115595
O	 1.3517213501	 1.7202645265	 2.754789871	-0.426408
C	 0.1213182814	-0.45925491	 2.6815792022	-0.26625
H	 0.3948398196	 1.7745801564	 0.9896036463	 0.294053
H	-1.0494356762	-0.3849093617	-0.092813383	 0.095095
H	 0.7613813641	-0.9899290977	-1.6211808714	 0.066084
H	 0.5424203504	-1.8189113461	 0.9383134986	 0.07984
H	 2.7014943906	-1.1500755315	 1.8570425581	 0.108014
H	 2.5557871056	 0.402592908	 1.0048580189	 0.134569
H	 1.9654275128	 0.0906988308	 3.8823318441	 0.076306
H	 0.7290999328	 2.0705081743	 3.4016174147	 0.291414
H	-0.7936044955	 0.1305367055	 2.770706033	 0.11546
H	 0.0370988107	-1.3594011677	 3.2958301778	 0.103945
63.6728	87.9996	162.584	219.7569	260.9137	275.192	330.0157	357.6355	397.3411	420.5314	490.8697	555.4006	710.741	768.1779	788.3796	822.5691	861.7657	891.0376	930.9067	955.4111	988.224	1035.5341	1068.6049	1075.9001	1097.1776	1176.6743	1180.4673	1216.1809	1233.227	1254.0521	1272.2261	1296.3166	1320.7261	1333.6527	1371.4633	1403.5757	1417.5887	1451.9673	1462.524	1482.7067	1837.6479	2838.2891	3002.4303	3029.3516	3061.7115	3066.2236	3076.263	3125.0875	3127.2423	3697.7628	3805.386
OC(C=O)C1CC(O)C1	O[C@@H](C=O)[C@H]1C[C@@H](O)C1	
InChI=1S/C6H10O3/c7-3-6(9)4-1-5(8)2-4/h3-6,8-9H,1-2H2	InChI=1S/C6H10O3/c7-3-6(9)4-1-5(8)2-4/h3-6,8-9H,1-2H2/t4-,5+,6-/m0/s1
