15
gdb 44824	3.00415	1.29113	1.03415	2.9316	71.36	-0.2456	-0.0296	0.2161	1143.1063	0.109616	-420.563113	-420.554765	-420.553821	-420.596719	30.669	
O	-0.4778225289	 0.0740200748	-0.4164085658	-0.287376
C	-0.2617040482	 1.2110557463	-0.1278400267	 0.38316
C	-1.1710854525	 2.42357322	 0.2514434115	-0.37132
C	 0.0864310591	 3.2846155606	 0.0766613973	-0.052077
O	 1.0243192943	 2.8069707178	 1.0360439128	-0.266158
C	 0.9658316674	 2.1238555437	-0.2343339421	 0.30145
C	 2.2268884141	 1.9748190172	-1.0392449555	-0.482789
C	 3.1393757669	 0.9796194901	-0.4836458111	 0.311881
C	 3.8874932908	 0.1616649332	-0.022725761	-0.43821
H	-1.9503833803	 2.5674340175	-0.5029140878	 0.135129
H	-1.6065886282	 2.4339801699	 1.2519809588	 0.141993
H	 0.1801489961	 4.3064547702	-0.2700080418	 0.123964
H	 1.9563689028	 1.6974625252	-2.0659998995	 0.148867
H	 2.7227542448	 2.9515932694	-1.0905470364	 0.148103
H	 4.5454514417	-0.5648777359	 0.3856351073	 0.203383
49.6107	98.1976	141.9053	226.123	296.3545	331.2642	414.4682	444.4358	517.6885	572.6441	627.3285	653.0749	674.077	746.4876	778.3754	871.0216	922.0282	943.263	957.5762	976.6291	998.593	1039.4709	1131.7692	1153.864	1208.6609	1245.1812	1286.1329	1327.6114	1427.7794	1447.6578	1451.3899	1901.4302	2247.862	3026.5065	3065.2777	3070.1776	3135.1054	3201.7246	3506.9274
O=C1CC2OC12CC#C	O=C1C[C@H]2O[C@@]12CC#C	
InChI=1S/C7H6O2/c1-2-3-7-5(8)4-6(7)9-7/h1,6H,3-4H2	InChI=1S/C7H6O2/c1-2-3-7-5(8)4-6(7)9-7/h1,6H,3-4H2/t6-,7+/m1/s1
