18
gdb 71079	2.59807	1.59771	1.33975	4.7002	76.67	-0.238	0.0048	0.2428	1038.9455	0.146723	-401.91541	-401.90711	-401.906166	-401.947984	31.634	
C	-0.067192625	 1.4489752248	 0.0390623851	-0.509463
C	 0.0204501523	-0.0468038543	-0.0227450042	 0.260255
C	 0.9331656857	-0.9273175483	-0.8733661337	-0.23996
N	 0.0244868322	-2.1074989657	-0.5563891546	-0.254506
C	 0.3030480184	-2.2501115948	 0.9052962393	 0.43362
O	 0.7721582045	-3.1683625115	 1.4992629561	-0.319439
C	-0.3371511893	-0.9467583603	 1.2117514668	-0.318604
C	-1.0470773066	-1.0746340872	-0.1400968915	 0.32477
C	-2.4898772445	-1.1432466062	-0.4996547977	-0.523873
H	 0.8145616949	 1.8787260513	 0.5261057918	 0.134593
H	-0.1343293021	 1.8717073226	-0.9695324069	 0.130248
H	-0.9499446604	 1.7767569745	 0.5973602507	 0.127309
H	 0.8780969275	-0.6871019817	-1.938994657	 0.114406
H	 1.9775909012	-1.0740500889	-0.575690221	 0.11618
H	-0.6925114835	-0.5234155525	 2.1423296779	 0.110428
H	-3.0419471099	-0.3214589127	-0.0332391875	 0.131059
H	-2.627698311	-1.0763880244	-1.5836297831	 0.138282
H	-2.9298673345	-2.0862382846	-0.1597884907	 0.144694
110.3095	176.4963	189.0105	194.5267	247.6617	262.6657	351.9325	461.5143	510.1229	569.4468	631.1298	660.4829	724.8167	782.9313	821.6609	844.0325	928.5655	932.8722	941.2702	957.9168	1008.9351	1049.5943	1119.7611	1126.0232	1134.1486	1166.1253	1170.0439	1220.4434	1264.4309	1329.9696	1411.2958	1416.2733	1471.301	1477.7123	1488.4816	1491.6445	1502.6922	1519.0932	1919.3707	3029.9092	3035.462	3038.2189	3094.5575	3098.5231	3102.0062	3103.3019	3110.6529	3204.6311
CC12CN3C(=O)C1C23C	C[C@@]12CN3C(=O)[C@@H]1[C@@]23C	
InChI=1S/C7H9NO/c1-6-3-8-5(9)4(6)7(6,8)2/h4H,3H2,1-2H3	InChI=1S/C7H9NO/c1-6-3-8-5(9)4(6)7(6,8)2/h4H,3H2,1-2H3/t4-,6+,7-/m0/s1
