16
gdb 6518	2.9725	1.86025	1.42232	6.1713	65.95	-0.2475	0.0317	0.2792	911.8276	0.128213	-379.908296	-379.899279	-379.898335	-379.941223	32.89	
C	 0.0724846997	 1.534732341	 0.0009348066	-0.446436
C	 0.0391267287	 0.0242871555	 0.0142016987	 0.361061
O	-1.1837694415	-0.5276511893	-0.375559808	-0.443113
C	 1.2777164397	-0.7839963828	-0.2713853048	-0.382216
C	 0.7331605498	-0.7408227793	 1.1515075549	 0.09908
N	 1.5179728244	-0.1050725614	 2.17803267	-0.562664
C	 0.0553258147	-1.9322882555	 1.6244655254	 0.312456
N	-0.4804736851	-2.8705756309	 2.0352165807	-0.349588
H	 1.0044792408	 1.9295624051	 0.4120316694	 0.109764
H	-0.0238967414	 1.9073224147	-1.0251307218	 0.122667
H	-0.7634322716	 1.9331124702	 0.5841044126	 0.13835
H	-1.233830093	-0.5136116444	-1.337923836	 0.289919
H	 1.1589619084	-1.7138833089	-0.8147517601	 0.143307
H	 2.2173050797	-0.2678878589	-0.4442225449	 0.122266
H	 2.2769599827	 0.4396894955	 1.7908778432	 0.239756
H	 0.9524467141	 0.4956203493	 2.7680159642	 0.245392
122.214	149.3527	158.2286	177.8447	223.3189	260.1314	282.9124	382.0939	395.3267	416.5579	473.9396	578.5244	603.4108	670.2562	724.1454	780.485	879.2962	905.8291	954.3533	983.5718	1063.2088	1071.9848	1093.7653	1221.5919	1266.8582	1300.5078	1331.4295	1378.2443	1415.38	1467.1281	1482.2064	1499.3672	1651.0654	2357.934	3036.4227	3100.0499	3125.4307	3131.2612	3229.2561	3520.5117	3619.5838	3794.1892
CC1(O)CC1(N)C#N	C[C@@]1(O)C[C@]1(N)C#N	
InChI=1S/C5H8N2O/c1-4(8)2-5(4,7)3-6/h8H,2,7H2,1H3	InChI=1S/C5H8N2O/c1-4(8)2-5(4,7)3-6/h8H,2,7H2,1H3/t4-,5+/m1/s1
