17
gdb 29002	2.48768	1.56297	0.96563	3.2543	85.62	-0.2497	-0.0619	0.1878	1177.3012	0.137293	-384.777716	-384.769785	-384.768841	-384.810229	29.878	
C	-0.0305746706	 1.5335899983	-0.0263227078	-0.507399
C	-0.0073931645	 0.0215357522	 0.0088294592	 0.228262
C	-0.0234959833	-0.6928615049	-1.1911790239	-0.172278
C	-0.0032133006	-2.0847772676	-1.2094383841	-0.104902
C	 0.0340196556	-2.8026558578	-0.0149527167	-0.121364
C	 0.050523871	-2.1128083626	 1.187312105	-0.159729
C	 0.0303225247	-0.7121978053	 1.2129189923	 0.10709
C	 0.050058783	-0.0467767193	 2.5368631917	 0.085578
O	 0.082137859	-0.6346862644	 3.5956415456	-0.268676
H	 0.8554303514	 1.970020472	 0.4466649399	 0.140855
H	-0.0601589846	 1.8877762035	-1.0595557654	 0.127127
H	-0.9057155354	 1.9440936626	 0.4882233208	 0.140846
H	-0.0525361873	-0.1462311072	-2.1289371731	 0.096156
H	-0.0165840704	-2.608681375	-2.1598276674	 0.105322
H	 0.049878048	-3.8870369193	-0.025973734	 0.10563
H	 0.0793992547	-2.6326392439	 2.138511466	 0.127455
H	 0.0335400694	 1.0620765188	 2.5173375817	 0.070029
115.7392	149.8719	168.7055	229.8606	257.8329	338.9971	455.8632	474.2321	504.8891	545.9877	644.7153	733.2849	782.2273	797.9004	842.8256	897.5049	966.3346	994.1876	1007.9436	1036.9464	1065.4295	1068.2216	1119.6868	1185.3287	1206.7703	1233.9327	1305.0865	1338.1196	1414.8785	1445.1609	1471.9291	1488.9353	1502.2373	1515.2584	1613.3698	1638.3548	1786.6226	2922.1352	3037.6	3092.4825	3117.9443	3167.7114	3181.5696	3193.9628	3206.2702
CC1=CC=CC=C1C=O	Cc1ccccc1C=O	
InChI=1S/C8H8O/c1-7-4-2-3-5-8(7)6-9/h2-6H,1H3	InChI=1S/C8H8O/c1-7-4-2-3-5-8(7)6-9/h2-6H,1H3
