18
gdb 39601	3.38769	1.50799	1.10723	0.7669	71.32	-0.2539	0.0103	0.2642	1061.3539	0.151545	-439.091339	-439.084545	-439.083601	-439.122398	27.406	
C	-0.0014308116	 1.3927623562	 0.0057298985	-0.065029
C	 1.4011158674	 2.0455045376	 0.0392312057	-0.262282
C	 2.1565074859	 1.4060742531	-1.1116020576	 0.066691
N	 3.5738947658	 1.6962778661	-1.428205852	-0.302381
C	 4.0024030749	 0.5863013653	-1.8766912913	 0.094081
O	 3.1957311586	-0.5204615532	-1.8351059505	-0.251647
C	 2.1631119695	-0.1016747385	-0.9141798409	 0.142956
C	 0.7521045487	-0.6450913503	-1.0374064271	-0.140641
O	 0.0230482907	-0.0338600506	 0.0247678189	-0.253369
H	-0.5892441382	 1.6804826607	 0.8808157231	 0.117122
H	-0.5368119429	 1.7433388868	-0.8923156024	 0.094495
H	 1.3051572753	 3.1302228263	-0.0737289382	 0.110652
H	 1.8951326605	 1.8443656744	 0.9958447372	 0.112343
H	 1.5949412545	 1.6393050032	-2.0333709218	 0.085069
H	 4.9768927506	 0.4142172073	-2.3194862764	 0.138958
H	 2.5233772386	-0.3420967085	 0.0968601253	 0.093428
H	 0.3173735212	-0.4056971931	-2.0205189521	 0.099617
H	 0.6847851106	-1.7237088428	-0.8749719184	 0.119936
185.0524	195.5629	321.225	337.3945	341.9638	433.4329	508.1754	536.8396	573.9208	672.5477	822.0433	863.8816	867.5003	902.6393	955.3019	958.7465	993.1163	1031.217	1045.5564	1084.1387	1106.3536	1150.6264	1159.1723	1181.8633	1194.83	1247.6825	1288.1807	1297.5023	1326.3141	1337.1004	1351.0454	1388.1448	1399.3587	1410.2896	1422.2629	1487.8117	1495.964	1509.0541	1663.4332	2946.5329	2970.9383	2987.3271	3006.7514	3047.0282	3094.9311	3099.0511	3101.924	3218.6448
C1CC2N=COC2CO1	C1C[C@H]2[N][CH]O[C@@H]2CO1	
InChI=1S/C6H9NO2/c1-2-8-3-6-5(1)7-4-9-6/h4-6H,1-3H2	InChI=1S/C6H9NO2/c1-2-8-3-6-5(1)7-4-9-6/h4-6H,1-3H2/t5-,6-/m1/s1
