15
gdb 20761	4.9982	1.40751	1.127	2.2258	63.1	-0.2488	-0.0149	0.234	1036.8023	0.119545	-395.986154	-395.978268	-395.977324	-396.019	27.504	
C	-0.1753686075	 1.4318830355	 0.0852977619	-0.488744
C	 0.0092449281	-0.0431284619	-0.0017017377	 0.358141
N	 0.5243797608	-0.6243358493	-1.0530346801	-0.173016
O	 0.5041878367	-1.9888071681	-0.7136719336	-0.201986
C	-0.0201768835	-2.0647900643	 0.5120520073	 0.453818
C	-0.1263761407	-3.4045760137	 1.1640909803	-0.275963
N	-1.2636318973	-3.4230442739	 2.0793356937	-0.508467
N	-0.3462225335	-0.9120210491	 1.0111124829	-0.3587
H	 0.3781748251	 1.8335554416	 0.9392967743	 0.148037
H	 0.1751101642	 1.9126492205	-0.8289635571	 0.15094
H	-1.2319512564	 1.6718128731	 0.2370958981	 0.150731
H	-0.2596701993	-4.1612057433	 0.3829594798	 0.140786
H	 0.8519478979	-3.6125046003	 1.6352399556	 0.120531
H	-1.1942876613	-4.2256752268	 2.6955825662	 0.234249
H	-1.2360601133	-2.5903997999	 2.6600216483	 0.249643
55.3264	138.8641	154.0228	185.6021	245.1298	320.999	368.0011	448.7629	624.5763	674.1816	715.1838	765.2091	856.1086	922.1396	996.8796	1020.1035	1046.9836	1060.6972	1072.0939	1102.9444	1179.1089	1274.2037	1295.6282	1367.4358	1419.4686	1452.1383	1474.3803	1475.8309	1501.6658	1570.9876	1627.1752	1655.0371	2934.082	3052.4118	3063.7239	3112.6185	3152.084	3504.186	3588.2546
CC1=NOC(CN)=N1	Cc1noc(CN)n1	
InChI=1S/C4H7N3O/c1-3-6-4(2-5)8-7-3/h2,5H2,1H3	InChI=1S/C4H7N3O/c1-3-6-4(2-5)8-7-3/h2,5H2,1H3
