15
gdb 20575	4.61789	1.53712	1.22184	3.3695	62.48	-0.2651	-0.0171	0.248	956.6752	0.118593	-399.7934	-399.785816	-399.784871	-399.825741	27.424	
C	 0.0403631087	 1.442577102	-0.4047813073	-0.386671
C	 0.0137527387	 0.0571416258	 0.2448795404	 0.05088
O	 0.4241509005	 0.1888814225	 1.5902499089	-0.438114
C	-1.342535926	-0.5937310308	 0.1370937649	 0.368267
N	-1.9297972458	-1.0269530322	 1.2258402514	-0.214926
O	-3.1297260765	-1.5994371597	 0.823278058	-0.170507
C	-3.2258141351	-1.4883042561	-0.5092895051	 0.088824
C	-2.1341980546	-0.8660157423	-1.0182361433	-0.34575
H	 1.0350193164	 1.8776276766	-0.279117287	 0.133134
H	-0.1807037763	 1.3843836366	-1.4748772074	 0.110877
H	-0.6899575578	 2.0992972899	 0.0754848725	 0.131141
H	 0.7231682063	-0.5913196809	-0.2995429164	 0.087913
H	-0.1078563989	-0.4139459495	 2.1241188459	 0.300848
H	-4.1235866384	-1.8942251937	-0.9495177841	 0.157163
H	-1.9214152712	-0.6351991882	-2.0483680214	 0.126922
52.1984	164.1587	195.278	236.7941	257.4326	349.2553	451.9181	490.0143	610.9186	650.8475	743.6647	800.1365	874.7246	906.9669	924.3388	961.7495	994.49	1053.1919	1078.182	1099.4659	1150.6361	1162.5934	1273.1323	1304.7077	1356.7869	1398.4476	1420.9882	1450.3627	1476.256	1490.554	1501.7163	1607.7986	2941.2632	3045.042	3121.1152	3130.9374	3262.4257	3287.6834	3778.3361
CC(O)C1=NOC=C1	C[C@@H](O)c1nocc1	
InChI=1S/C5H7NO2/c1-4(7)5-2-3-8-6-5/h2-4,7H,1H3	InChI=1S/C5H7NO2/c1-4(7)5-2-3-8-6-5/h2-4,7H,1H3/t4-/m1/s1
