17
gdb 69145	2.67549	1.67291	1.29944	4.2287	72.6	-0.2193	-0.0307	0.1885	1008.7181	0.136728	-417.967234	-417.959679	-417.958735	-417.999016	29.799	
C	-0.0900339168	 1.5079324978	 0.0022953375	-0.503056
C	 0.0257411889	 0.0071444705	 0.0021369861	 0.33869
N	-0.5171427087	-0.8027498084	 1.0989799324	-0.338065
C	 0.9587382517	-0.7580764453	 0.8813870575	-0.230753
C	 1.5416491966	-1.9012533057	 0.0750277751	 0.476685
O	 2.5062416314	-2.5558704189	 0.3827928963	-0.322325
C	 0.8758480933	-1.9069687852	-1.2891019199	-0.176081
N	-0.6028964668	-2.075805738	-1.2812535032	-0.305748
C	-0.0315401526	-0.727027418	-1.3473979389	-0.09855
H	 0.6229564334	 1.9599883688	-0.6958844902	 0.130677
H	-1.0963761716	 1.8235735899	-0.2964171163	 0.133602
H	 0.1115245373	 1.916357311	 0.9976304147	 0.122071
H	-0.720237268	-0.1899851421	 1.8883983185	 0.232232
H	 1.5930682977	-0.3028309054	 1.6346549917	 0.103064
H	 1.4535611114	-2.2804407472	-2.1272391748	 0.106578
H	-0.8787633449	-2.3640213541	-2.2187723966	 0.238531
H	-0.1424584322	-0.1350665897	-2.2498862898	 0.092448
119.7609	189.4624	213.9085	282.0055	312.4791	375.9877	442.6017	532.2977	565.182	574.7897	701.6318	745.4451	803.2563	835.7348	855.2646	870.1028	917.3782	926.1205	956.097	1013.1265	1035.8547	1054.3445	1090.4964	1120.2501	1144.6567	1166.9593	1205.1384	1245.5494	1288.8243	1314.7775	1360.2436	1396.9473	1416.4308	1439.618	1483.1997	1499.384	1835.6411	3026.2468	3089.6328	3103.0363	3165.4693	3172.4507	3180.902	3467.6457	3480.2089
CC12NC1C(=O)C1NC21	C[C@]12N[C@H]1C(=O)[C@H]1N[C@@H]21	
InChI=1S/C6H8N2O/c1-6-4-2(7-4)3(9)5(6)8-6/h2,4-5,7-8H,1H3	InChI=1S/C6H8N2O/c1-6-4-2(7-4)3(9)5(6)8-6/h2,4-5,7-8H,1H3/t2-,4-,5+,6-/m1/s1
