23
gdb 38371	1.98859	1.9841	1.24949	1.3201	84.08	-0.2337	0.0725	0.3062	1107.5627	0.209131	-388.277137	-388.269236	-388.268292	-388.309029	32.74	
C	-0.053438287	 1.5612425008	 0.1280824407	-0.247803
C	 1.4983862921	 1.6461060057	 0.0346039874	 0.021645
C	 1.5646243245	 0.0965036326	 0.2214156041	-0.281535
C	 0.0182402028	 0.0114397283	 0.0307821327	 0.145397
O	-0.5172289404	-0.5536379052	-1.1478991371	-0.265907
C	 0.2251206133	-0.5726886568	-2.3525105732	-0.060187
C	 0.6349083096	 0.771689665	-2.9872620482	-0.213393
C	 1.9883759634	 1.3662722351	-2.548256197	-0.191552
C	 2.0542305271	 2.2283288608	-1.2729356426	-0.211604
H	-0.4472321691	 1.9048004024	 1.0887807038	 0.092175
H	-0.6216652059	 2.0471503243	-0.6686270724	 0.09897
H	 1.9452053418	 2.1997941985	 0.8652819308	 0.065924
H	 2.1874164518	-0.4659776133	-0.4761393271	 0.102105
H	 1.8553135033	-0.1974492899	 1.2330109144	 0.097679
H	-0.5009949376	-0.5127120235	 0.838130301	 0.078793
H	 1.1216550656	-1.205008536	-2.2500644399	 0.086071
H	-0.4439146008	-1.0913741267	-3.0469900649	 0.104383
H	 0.7102698146	 0.5713198831	-4.0637232434	 0.097186
H	-0.1804825537	 1.4959783962	-2.8757092782	 0.104854
H	 2.7106534779	 0.5426097679	-2.4684042949	 0.095389
H	 2.362975444	 1.9945316302	-3.365454592	 0.094384
H	 1.5375303466	 3.180569638	-1.4577594406	 0.094954
H	 3.1103295263	 2.4885705127	-1.1239644836	 0.092073
132.1818	197.4119	248.7016	292.4224	318.7051	340.9239	390.6708	439.6912	501.9091	541.1285	677.1859	758.632	761.5375	771.1507	815.8908	860.788	900.3766	924.7693	952.8762	972.2078	994.6116	1022.8046	1058.1143	1066.3119	1084.8198	1108.1	1134.2776	1165.3735	1186.0146	1211.6595	1237.0477	1261.7056	1266.4949	1274.5955	1285.7702	1316.0264	1340.3336	1355.1633	1376.85	1393.8041	1400.4973	1404.3478	1426.4033	1457.7721	1477.134	1483.7591	1487.4182	1492.0678	1509.7043	2976.5356	3004.0541	3011.3994	3020.8234	3038.5251	3049.1011	3051.8688	3057.2292	3059.8259	3067.8374	3069.0625	3077.0698	3112.3035	3124.1043
C1C2CC1OCCCC2	C1[C@H]2C[C@@H]1OCCCC2	
InChI=1S/C8H14O/c1-2-4-9-8-5-7(3-1)6-8/h7-8H,1-6H2	InChI=1S/C8H14O/c1-2-4-9-8-5-7(3-1)6-8/h7-8H,1-6H2/t7-,8+
