17
gdb 68096	2.5717	1.67965	1.33679	1.7105	68.46	-0.2271	-0.0241	0.203	1000.8873	0.134331	-458.952591	-458.94419	-458.943246	-458.985128	31.98	
C	 0.0002274783	 1.5245924252	 0.0574837403	-0.492683
C	-0.0210449222	 0.0316246956	-0.0449707148	 0.294375
C	 0.6442965746	-0.8200986591	-1.1695019338	-0.345758
C	-0.2461951234	-1.9759874091	-0.5473539854	 0.244788
O	-0.526014136	-3.1908302857	-1.1292012637	-0.473658
C	 0.342129402	-2.0183432686	 0.8706886554	-0.112857
O	 0.4751924736	-0.6053546763	 1.1537073844	-0.307405
C	-1.2643919078	-0.8336965118	-0.3747396158	 0.341089
O	-2.4150635104	-0.6799138662	-0.6635671109	-0.329801
H	 1.0227094133	 1.8899904588	 0.1896592831	 0.134359
H	-0.4206196122	 1.9734579204	-0.8460950168	 0.132327
H	-0.5948576079	 1.8501507975	 0.9154322397	 0.142443
H	 0.3471853649	-0.53422722	-2.1805405328	 0.118682
H	 1.724221512	-0.9503330084	-1.0782738226	 0.12214
H	-1.2930885846	-3.0785955245	-1.7037171921	 0.299588
H	-0.3343201912	-2.4959641531	 1.5882426074	 0.118357
H	 1.3207255569	-2.5098121748	 0.9133939985	 0.114013
134.5141	167.8439	181.9093	217.295	271.7608	294.7531	304.2592	399.1836	455.4508	550.8313	580.3582	599.3172	690.0356	729.5228	812.1534	862.0754	893.7984	901.8788	962.961	999.7473	1020.4141	1063.6217	1118.6082	1126.2215	1155.3652	1173.4803	1180.8912	1291.4267	1346.3749	1363.8178	1408.8834	1433.854	1475.0196	1477.1199	1491.8843	1532.7653	1892.7795	3028.3348	3047.2753	3072.5687	3074.2233	3118.9916	3126.8828	3147.7524	3786.4385
CC12CC(O)(CO1)C2=O	C[C@@]12C[C@@](O)(CO1)C2=O	
InChI=1S/C6H8O3/c1-5-2-6(8,3-9-5)4(5)7/h8H,2-3H2,1H3	InChI=1S/C6H8O3/c1-5-2-6(8,3-9-5)4(5)7/h8H,2-3H2,1H3/t5-,6+/m0/s1
