17
gdb 56350	3.86297	0.9041	0.84165	2.0079	76.54	-0.236	0.0158	0.2518	1387.731	0.134065	-417.948391	-417.939065	-417.938121	-417.982844	34.187	
N	 0.3053468437	 1.1613993707	 0.4800438721	-0.55682
C	 0.1344950905	-0.1075463968	-0.0000763427	 0.360015
N	 1.0218241629	-0.9275710405	-0.4243789083	-0.311427
C	 2.415207328	-0.4848265191	-0.4212374069	-0.310754
C	 2.971269837	-0.1733877588	 0.9011672574	 0.302886
C	 3.3929292955	 0.1029136772	 1.9941074808	-0.471833
C	-1.2915528082	-0.5711121854	-0.0480614536	 0.030001
C	-2.1007439927	-0.6461542422	 1.1800057962	-0.171186
O	-2.2952566478	 0.4097078024	 0.2369264003	-0.242019
H	 1.182740792	 1.4104351446	 0.908607247	 0.266083
H	-0.5260372053	 1.6402827633	 0.7900278672	 0.265097
H	 3.0197029315	-1.2774319632	-0.8753967457	 0.137841
H	 2.5362934218	 0.4042861009	-1.0627090309	 0.129762
H	 3.7869462368	 0.318563201	 2.9565152067	 0.199433
H	-1.5138166544	-1.2537094501	-0.8634409142	 0.121403
H	-2.9089554586	-1.3720089385	 1.2422542389	 0.129814
H	-1.6572986828	-0.3493382655	 2.1286499257	 0.121703
71.0642	77.4514	117.9582	196.3892	227.0341	305.8943	334.4334	340.6732	392.9361	421.43	554.9191	586.3875	621.9153	645.3483	655.8551	722.7879	818.9863	863.8355	907.6893	931.7345	983.0006	1005.5852	1045.1959	1093.8052	1147.1845	1157.4081	1167.227	1257.4251	1267.9786	1344.3189	1356.6826	1428.9795	1473.1405	1519.3193	1617.144	1730.6604	2221.101	2967.2925	3056.1237	3093.4741	3162.0781	3186.8861	3502.9256	3572.4657	3695.559
NC(=NCC#C)C1CO1	NC(=NCC#C)[C@H]1CO1	
InChI=1S/C6H8N2O/c1-2-3-8-6(7)5-4-9-5/h1,5H,3-4H2,(H2,7,8)	InChI=1S/C6H8N2O/c1-2-3-8-6(7)5-4-9-5/h1,5H,3-4H2,(H2,7,8)/t5-/m1/s1
