14
gdb 20841	4.98475	1.43754	1.18853	3.0087	59.65	-0.2439	0.0034	0.2473	984.6211	0.107881	-415.910716	-415.903307	-415.902362	-415.942906	26.303	
C	 0.5390211065	 1.0038441711	-0.5703742144	-0.384611
C	-0.3400279263	 0.3067947673	 0.4817009535	-0.289397
C	 0.4482353406	-0.3076442382	 1.5806878964	 0.42983
N	 0.3915024197	-0.0232662852	 2.8344814018	-0.263869
N	 1.322292727	-0.8740801435	 3.3978950724	-0.31416
C	 1.9463046129	-1.6725309499	 2.4828602556	 0.475529
O	 2.7907486087	-2.5124127778	 2.5933589424	-0.386111
O	 1.3513607342	-1.2825825909	 1.2745615278	-0.23478
H	 1.2446053034	 0.2996594132	-1.0185238853	 0.143792
H	-0.0845156439	 1.4178617975	-1.3669267768	 0.126428
H	 1.1105789601	 1.822006532	-0.1228694794	 0.132737
H	-1.0360641677	 1.0121461916	 0.9427625033	 0.139989
H	-0.9374686332	-0.4770716492	 0.0002474942	 0.133854
H	 1.4913658181	-0.8668382377	 4.3878565285	 0.290768
68.5189	127.1637	197.2185	217.3575	314.1662	372.7875	453.1945	529.2804	625.0944	715.5038	762.7291	785.8352	798.2798	914.1737	965.3691	990.3494	1056.9033	1088.6313	1119.5874	1215.1973	1277.1355	1336.421	1374.0952	1397.2606	1415.8387	1471.2016	1498.1376	1508.3367	1684.8708	1920.4114	3039.9717	3049.7401	3104.2291	3124.0471	3132.3658	3702.9798
CCC1=NNC(=O)O1	CCc1n[nH]c(=O)o1	
InChI=1S/C4H6N2O2/c1-2-3-5-6-4(7)8-3/h2H2,1H3,(H,6,7)	InChI=1S/C4H6N2O2/c1-2-3-5-6-4(7)8-3/h2H2,1H3,(H,6,7)
