16
gdb 12748	3.36781	1.76451	1.48943	2.6764	68.73	-0.255	0.0189	0.2739	892.8954	0.131023	-342.758864	-342.751422	-342.750478	-342.79051	27.762	
C	 0.0445152157	 1.5344446655	 0.0677129875	-0.495076
C	-0.0401458376	 0.0411861378	-0.0117830223	 0.345687
C	-0.8834403215	-0.8035617812	 0.8559323833	-0.287432
N	 0.5839355664	-0.9010474949	 1.0073236463	-0.158186
C	 1.0303854171	-1.784697702	-0.1183079603	-0.171797
C	 0.4987076073	-0.786025638	-1.1960370626	-0.223092
C	-0.4544088296	-1.2522630932	-2.1918536346	 0.270974
N	-1.2247215236	-1.6393107994	-2.9628159302	-0.329379
H	 1.0388224236	 1.8933898441	-0.2187397807	 0.126748
H	-0.6903493985	 1.99826701	-0.6001235371	 0.137786
H	-0.158879355	 1.8747104195	 1.0866530754	 0.138555
H	-1.3634615998	-0.3166707648	 1.6988812335	 0.129167
H	-1.4321129826	-1.6494824512	 0.4466078906	 0.131002
H	 2.1166383667	-1.8795460375	-0.1295426411	 0.127357
H	 0.5744388302	-2.7784337767	-0.1138556599	 0.127436
H	 1.3231923314	-0.2755281678	-1.6994627877	 0.130249
115.2589	137.6566	184.4447	261.1806	314.0173	377.8327	470.1967	516.2918	551.3217	649.1413	722.8626	770.5724	830.7048	886.174	964.8374	979.6715	1024.3598	1043.9751	1073.6744	1099.5519	1117.7151	1131.1137	1190.7345	1204.2649	1260.1688	1309.4586	1331.9023	1392.7696	1425.9824	1481.7448	1491.0699	1494.8165	1516.5883	2350.8119	3032.0881	3066.1731	3085.0325	3095.3507	3106.6414	3118.4561	3133.7208	3202.3186
CC12CN1CC2C#N	C[C@]12CN1C[C@H]2C#N	
InChI=1S/C6H8N2/c1-6-4-8(6)3-5(6)2-7/h5H,3-4H2,1H3	InChI=1S/C6H8N2/c1-6-4-8(6)3-5(6)2-7/h5H,3-4H2,1H3/t5-,6-,8?/m1/s1
