17
gdb 49568	2.1965	1.70225	1.15191	3.2002	72.8	-0.2419	-0.0269	0.215	1077.0801	0.134379	-421.771131	-421.76314	-421.762196	-421.80424	30.015	
O	-0.0432132939	-0.043798202	-0.0232506509	-0.263267
C	 0.006069658	 1.1595197569	-0.0984328536	 0.158251
C	 1.280660423	 1.958569208	-0.0110448103	-0.21534
C	 1.3374001169	 3.2487247836	-0.8692449236	 0.007419
O	 0.2579203725	 4.0900682821	-0.4558162506	-0.239887
C	 1.4675245512	 4.1022804985	 0.321293242	-0.072648
C	 1.4284542474	 2.8947841026	 1.2344415684	 0.34643
C	 0.819487972	 2.7705095804	 2.5987560101	-0.324381
C	 2.3143104927	 2.6380943686	 2.4162274626	-0.328281
H	-0.910742697	 1.773768086	-0.217254083	 0.097598
H	 2.1453924736	 1.3039536779	-0.1407150395	 0.099398
H	 1.712031436	 3.3657276368	-1.8788447606	 0.117218
H	 1.9553679305	 5.0592911312	 0.4645542174	 0.114115
H	 0.4309718523	 3.6675027671	 3.0690629719	 0.123697
H	 0.2568858703	 1.8696557957	 2.8205723179	 0.132223
H	 2.7594382768	 1.6537322767	 2.515592829	 0.127153
H	 2.9467559477	 3.4508564398	 2.7594066128	 0.120302
55.2219	118.6364	192.0115	215.4175	258.193	353.0449	448.0128	491.8465	526.7177	618.6203	771.5171	793.9725	835.8212	859.303	876.0958	906.8491	930.6378	963.3014	982.6904	1008.2758	1054.1509	1059.5013	1069.0889	1082.9163	1116.0745	1186.9056	1188.1553	1207.7307	1224.9922	1256.0354	1276.4214	1368.8079	1390.9205	1423.6322	1462.487	1501.2184	1817.6389	2921.496	3097.1075	3127.085	3132.4102	3185.4628	3200.4532	3207.156	3221.6569
O=CC1C2OC2C11CC1	O=C[C@H]1[C@H]2O[C@H]2C21CC2	
InChI=1S/C7H8O2/c8-3-4-5-6(9-5)7(4)1-2-7/h3-6H,1-2H2	InChI=1S/C7H8O2/c8-3-4-5-6(9-5)7(4)1-2-7/h3-6H,1-2H2/t4-,5+,6+/m0/s1
