21
gdb 118563	3.37425	0.71065	0.61434	2.8287	76.43	-0.2532	-0.0238	0.2294	1777.6342	0.179481	-461.359195	-461.348125	-461.347181	-461.396753	38.097	
O	-0.1591318712	 1.4934633806	-0.196543557	-0.419746
C	 0.0386531311	 0.1013096141	-0.0010237384	-0.088412
C	-1.3440154581	-0.5394551916	 0.0861825295	-0.177208
C	-1.3463522546	-2.0773890093	 0.1089527567	-0.018718
C	-0.6678123897	-2.6415266364	 1.3715215652	-0.070669
O	-0.5651476058	-4.0557995567	 1.3549285041	-0.424236
C	-2.7923486477	-2.6080826505	-0.0181610115	-0.284506
C	-2.8778170476	-4.0969865218	-0.2656151334	 0.152847
O	-3.4262379729	-4.8848673007	 0.4669548895	-0.261604
H	 0.7016291244	 1.9220112499	-0.2069852191	 0.287488
H	 0.6004429812	-0.3444139392	-0.8389899337	 0.088314
H	 0.6172777146	-0.0867134641	 0.9158151324	 0.091852
H	-1.8610947045	-0.147948378	 0.9716106339	 0.107275
H	-1.9146796493	-0.1892309758	-0.7816844764	 0.109945
H	-0.77171245	-2.4432522552	-0.7542420043	 0.085345
H	 0.3583027974	-2.2668133589	 1.4390956172	 0.110237
H	-1.2016772781	-2.2845674404	 2.2661429874	 0.095459
H	-1.3931674444	-4.4341501782	 1.66714996	 0.300058
H	-3.3789750696	-2.3692232521	 0.876041782	 0.116023
H	-3.2694001245	-2.1171311541	-0.8780190582	 0.118971
H	-2.4011693009	-4.4353328113	-1.2133231958	 0.081285
57.5531	62.4761	75.9803	91.9543	133.9546	149.6592	213.6976	267.2482	296.3778	337.6532	354.226	410.5695	444.6205	521.0666	585.5675	781.7356	795.7275	885.6277	926.8619	991.1702	1013.8742	1026.0558	1068.0803	1077.6771	1096.0121	1120.1918	1137.9399	1183.0518	1217.6734	1239.0499	1272.3905	1283.4341	1312.9303	1338.2706	1352.6117	1384.1688	1403.8123	1416.6801	1425.9206	1463.2278	1464.588	1492.3211	1500.3764	1527.6068	1815.3512	2879.0621	2961.0885	2985.0381	2996.3693	3008.4073	3015.8567	3030.7816	3072.3897	3078.0467	3082.7714	3825.9992	3830.2808
OCCC(CO)CC=O	OCC[C@@H](CO)CC=O	
InChI=1S/C6H12O3/c7-3-1-6(5-9)2-4-8/h3,6,8-9H,1-2,4-5H2	InChI=1S/C6H12O3/c7-3-1-6(5-9)2-4-8/h3,6,8-9H,1-2,4-5H2/t6-/m0/s1
