17
gdb 34895	1.93085	1.91261	1.197	0.9854	82.96	-0.2529	0.033	0.286	1073.6564	0.134193	-347.452253	-347.443817	-347.442873	-347.485195	32.689	
C	-0.2607072091	-1.2611915355	 0.0028328073	-0.457792
C	-0.1542860883	-0.0636775285	 0.026654284	 0.356665
C	-0.018079765	 1.3777377734	 0.0648631358	-0.227269
C	-0.2852441767	 2.1001162393	 1.3992074018	-0.050749
C	 0.7327366602	 1.7027824701	 2.4279837032	-0.287252
C	 1.1084746185	 2.7182737282	 1.3886935052	-0.050746
C	 1.4478213779	 2.02787157	 0.0538360332	-0.22727
C	 2.6071159192	 1.1610245863	 0.0058851134	 0.356664
C	 3.5658270798	 0.4359087213	-0.0259405864	-0.457786
H	-0.3558789969	-2.318393579	-0.020170722	 0.194591
H	-0.5965402278	 1.8261106349	-0.7475549296	 0.108269
H	-1.2343939731	 2.5504154603	 1.6604253068	 0.095902
H	 0.5623134674	 2.1039679371	 3.4214969153	 0.115085
H	 1.1729624911	 0.7099281557	 2.4112095547	 0.132928
H	 1.415023115	 3.7255185685	 1.6404417135	 0.095901
H	 1.4935210106	 2.7530725004	-0.763275797	 0.108266
H	 4.4129875571	-0.2033707924	-0.0560054492	 0.194592
95.2895	100.0205	160.405	197.1257	299.2724	377.8706	413.7576	510.839	564.7418	596.5001	621.7164	625.0273	632.7821	635.7002	728.3656	759.4723	798.3721	811.683	923.8549	978.1882	979.0246	1027.6159	1043.9143	1055.3505	1068.2771	1071.4215	1086.9871	1155.8026	1202.0206	1243.1886	1281.893	1328.6862	1342.4408	1367.5895	1491.1993	2232.4332	2234.5636	3059.3864	3073.7876	3124.1051	3186.3586	3194.9602	3213.1637	3504.0421	3504.5661
C#CC1C2CC2C1C#C	C#C[C@H]1[C@H]2C[C@H]2[C@H]1C#C	
InChI=1S/C9H8/c1-3-6-7(4-2)9-5-8(6)9/h1-2,6-9H,5H2	InChI=1S/C9H8/c1-3-6-7(4-2)9-5-8(6)9/h1-2,6-9H,5H2/t6-,7+,8-,9+
