27
gdb 118064	3.41177	0.68463	0.60162	1.2794	93.32	-0.2594	0.0737	0.3331	2006.7463	0.249494	-390.707546	-390.695383	-390.694439	-390.745437	44.083	
C	 0.1119543095	 1.5694901686	 0.1107169263	-0.382145
C	 0.0455888673	 0.0402424964	 0.1071253709	-0.158989
C	-1.3804998693	-0.4966597025	-0.0626939628	-0.198693
C	-1.4639256543	-2.0290058869	-0.0229693471	 0.116506
O	-0.8646081479	-2.5303224933	 1.1755167446	-0.428711
C	-2.8931060226	-2.5943434156	-0.2001405319	 0.025317
C	-3.5710870822	-2.0762358823	-1.4778845414	-0.406315
C	-2.8655103012	-4.1362245947	-0.1618153216	-0.170226
C	-4.2297695015	-4.7924872507	 0.0720112793	-0.391912
H	 1.1409206289	 1.9234061216	 0.2292766583	 0.111212
H	-0.278111526	 1.9891640799	-0.8236447081	 0.110651
H	-0.4801336235	 1.9909201859	 0.9312523042	 0.109862
H	 0.6733122178	-0.3529696591	-0.7036520169	 0.092864
H	 0.4686444427	-0.3585943897	 1.0345361877	 0.10652
H	-2.0276158942	-0.0856871893	 0.7287751251	 0.078132
H	-1.792024371	-0.131249032	-1.0101980707	 0.099062
H	-0.8320272767	-2.4354711871	-0.8255163488	 0.081991
H	-1.3804244188	-2.1922527708	 1.9167517711	 0.273552
H	-3.4814333076	-2.2452900817	 0.6653907192	 0.052408
H	-4.534503038	-2.568264304	-1.6376238075	 0.115188
H	-3.7605868227	-1.0005748266	-1.442391375	 0.116156
H	-2.9484030506	-2.2797677508	-2.3576849802	 0.113388
H	-2.4370467743	-4.5039302629	-1.1049189359	 0.086899
H	-2.176165155	-4.4447658088	 0.6290089876	 0.112081
H	-4.6691354756	-4.4617284731	 1.0203167757	 0.109264
H	-4.9471879173	-4.5604493353	-0.7217779274	 0.113981
H	-4.1350167059	-5.8821698854	 0.1156433154	 0.111958
51.5947	72.0255	85.7937	102.4951	129.9476	210.0989	216.7998	244.0358	251.3176	297.3714	311.8094	315.4798	362.8641	384.981	442.2829	512.9408	563.4667	748.5966	778.5146	835.9635	850.9588	893.7133	906.3872	970.8908	985.0013	998.0695	1037.2156	1051.3037	1079.8345	1090.1331	1106.5858	1144.0116	1167.0704	1185.9482	1242.3896	1252.6175	1289.4311	1300.2304	1321.9648	1347.1275	1357.6537	1371.3438	1388.1814	1395.9912	1407.911	1412.8625	1413.8193	1419.2328	1479.086	1489.4834	1494.4145	1496.001	1499.1147	1501.2548	1508.9487	1512.127	1513.8812	2961.8268	2985.2428	3011.4504	3017.8476	3024.5894	3027.1215	3029.6874	3033.3872	3059.8562	3075.0761	3080.9432	3095.88	3096.422	3100.3132	3100.3398	3106.0731	3117.9475	3790.5738
CCCC(O)C(C)CC	CCC[C@@H](O)[C@@H](C)CC	
InChI=1S/C8H18O/c1-4-6-8(9)7(3)5-2/h7-9H,4-6H2,1-3H3	InChI=1S/C8H18O/c1-4-6-8(9)7(3)5-2/h7-9H,4-6H2,1-3H3/t7-,8+/m0/s1
