22
gdb 121634	4.16052	0.64315	0.56684	4.5821	81.71	-0.2347	0.0349	0.2696	1964.4222	0.191628	-441.508839	-441.497253	-441.496308	-441.54733	39.177	
C	 0.0255346003	 1.4356747204	 0.0700182262	-0.342894
N	 0.0046315786	-0.0174204123	 0.0695739966	-0.088934
C	 1.3042759425	-0.6531796129	 0.1312182646	-0.336027
C	-1.2056172037	-0.6673303726	 0.0129578923	 0.42808
O	-2.2606749364	-0.0560890262	-0.0369882334	-0.376277
C	-1.185514843	-2.1990486668	 0.0146653491	-0.34816
C	-2.5961012146	-2.7850402482	-0.0513131653	-0.153752
C	-2.5847430057	-4.3075261665	-0.0503334491	-0.080977
O	-3.9304959337	-4.7527030069	-0.1131591903	-0.419492
H	 0.5884792819	 1.8145567619	-0.7928121294	 0.117553
H	-1.0011395838	 1.7933639471	 0.0212808415	 0.170406
H	 0.5044489969	 1.8152521539	 0.9818874441	 0.117554
H	 1.8395960819	-0.3564312884	 1.0436499127	 0.125015
H	 1.2191905527	-1.7372024011	 0.1272109162	 0.139093
H	 1.9234232096	-0.3564981963	-0.7265575758	 0.125026
H	-0.5882125781	-2.5565466911	-0.8344679108	 0.118473
H	-0.6704640991	-2.5556435527	 0.9164205377	 0.118469
H	-3.1882340346	-2.4275201665	 0.7957452218	 0.123217
H	-3.1063546536	-2.4279810219	-0.9502518769	 0.123234
H	-2.0019147008	-4.679360571	-0.9104914434	 0.078107
H	-2.0847774273	-4.6788379404	 0.8607005906	 0.078103
H	-3.9301344002	-5.7141475014	-0.1128526491	 0.284183
32.7703	65.7864	76.489	108.2899	109.1037	142.726	171.8594	233.707	262.6146	267.0306	297.8628	393.3454	426.7958	529.5627	576.1599	616.5396	768.4522	798.2109	885.2696	974.748	1025.0424	1061.2631	1081.2722	1087.0715	1105.6211	1131.9365	1146.7658	1180.2758	1209.3675	1235.9944	1283.1657	1302.0964	1303.7456	1313.7311	1373.167	1425.8687	1435.6344	1464.1625	1467.4481	1480.5064	1484.5797	1493.5245	1503.3808	1504.1349	1528.226	1543.8446	1752.8459	2947.5853	2970.3822	3001.5097	3012.1624	3015.476	3040.1319	3048.7859	3055.6749	3070.2508	3113.8137	3172.5491	3174.2755	3830.4194
CN(C)C(=O)CCCO	CN(C)C(=O)CCCO	
InChI=1S/C6H13NO2/c1-7(2)6(9)4-3-5-8/h8H,3-5H2,1-2H3	InChI=1S/C6H13NO2/c1-7(2)6(9)4-3-5-8/h8H,3-5H2,1-2H3
