16
gdb 9636	4.39885	1.20171	1.07569	1.7842	67.94	-0.2594	0.0217	0.281	1109.5694	0.12711	-383.679355	-383.670445	-383.6695	-383.712923	32.091	
C	 0.0933801117	 1.4892052914	-0.1975666269	-0.472409
C	-0.0307992761	 0.017062091	 0.142965038	 0.178321
O	 1.1989130744	-0.7393633229	 0.1615743942	-0.288044
C	 0.487262405	-0.5852373603	 1.39652932	-0.000144
C	 1.2128065468	 0.1588177306	 2.4911797767	-0.093465
O	 2.2396043809	-0.6486012126	 3.0428470152	-0.414113
C	-1.1407728792	-0.6504780494	-0.5040046348	 0.291591
C	-2.0764282647	-1.1706345623	-1.0503086822	-0.427803
H	 0.9755617746	 1.9316330064	 0.2659499521	 0.131929
H	 0.1775208199	 1.6076455843	-1.2816073108	 0.141848
H	-0.7969462374	 2.0324783002	 0.1327229973	 0.136221
H	 0.0024509896	-1.5023102904	 1.7341095551	 0.106636
H	 1.6092221923	 1.1128157875	 2.1205268073	 0.095026
H	 0.5196098204	 0.3764547347	 3.3109008529	 0.118028
H	 2.8329336476	-0.8806209363	 2.3193310031	 0.294842
H	-2.8985899359	-1.642716412	-1.5293023273	 0.201537
62.4161	124.4154	146.3004	163.1067	228.3165	270.7826	377.0605	391.721	411.5595	469.4935	550.57	600.5983	627.7502	665.1053	690.8846	810.141	886.8128	930.7004	1018.2911	1057.9	1100.2867	1108.6823	1123.6442	1220.0388	1243.1743	1323.3092	1363.2555	1411.997	1417.9101	1456.2754	1483.2293	1491.1769	1501.082	2238.5864	3019.6096	3051.9922	3077.2126	3110.2167	3117.5144	3148.8719	3500.9565	3801.7214
CC1(OC1CO)C#C	C[C@]1(O[C@H]1CO)C#C	
InChI=1S/C6H8O2/c1-3-6(2)5(4-7)8-6/h1,5,7H,4H2,2H3	InChI=1S/C6H8O2/c1-3-6(2)5(4-7)8-6/h1,5,7H,4H2,2H3/t5-,6-/m0/s1
