17
gdb 31758	6.06455	0.82089	0.7325	1.871	72.02	-0.2045	0.0387	0.2432	1493.0278	0.136251	-455.170806	-455.161492	-455.160548	-455.206148	32.586	
O	-0.0332852175	 1.4132919206	 0.0091661467	-0.420848
C	-0.0197741093	-0.0056998246	-0.0471488293	-0.187627
C	-1.4311850751	-0.4918554386	 0.0073408339	 0.269464
C	-2.5780499372	 0.2506984529	 0.1028450669	-0.175564
N	-3.6023721875	-0.6731416479	 0.1201055847	-0.264606
C	-3.0390265538	-1.9058457966	 0.024154383	 0.347212
C	-3.8661482709	-3.1514962147	 0.0475567054	-0.192469
O	-5.2043378922	-2.7848941607	-0.2715028012	-0.429847
N	-1.7277666093	-1.8369441088	-0.0445197685	-0.377061
H	 0.8766027622	 1.7198032414	-0.0252584817	 0.28889
H	 0.457639551	-0.3689083687	-0.9718336829	 0.101271
H	 0.5506764735	-0.4370911182	 0.7916740444	 0.100183
H	-2.7488819629	 1.3114236047	 0.1493313953	 0.137397
H	-4.5938694732	-0.5031988384	 0.1386278946	 0.271319
H	-3.4494937961	-3.8707670272	-0.6711240239	 0.123203
H	-3.8139365298	-3.6182234965	 1.0440319114	 0.112839
H	-5.7751770419	-3.5341686688	-0.0817545289	 0.296243
35.9974	53.8289	144.6248	168.6286	222.2666	240.6415	257.5942	303.9406	363.3251	551.5057	581.0651	659.7456	675.4193	700.906	735.3049	743.8732	1002.8705	1004.9887	1035.0782	1050.4249	1074.9534	1089.672	1107.8874	1191.3424	1216.1074	1229.5342	1232.8404	1265.8569	1286.4739	1369.797	1441.5048	1462.997	1483.0298	1515.0525	1516.4026	1578.3633	1613.476	2962.4838	2974.4182	2980.944	3021.4616	3297.3075	3673.7933	3844.1603	3845.4578
OCC1=CNC(CO)=N1	OCc1c[nH]c(CO)n1	
InChI=1S/C5H8N2O2/c8-2-4-1-6-5(3-9)7-4/h1,8-9H,2-3H2,(H,6,7)	InChI=1S/C5H8N2O2/c8-2-4-1-6-5(3-9)7-4/h1,8-9H,2-3H2,(H,6,7)
