21
gdb 122493	2.5403	0.84455	0.68145	2.9844	81.76	-0.2408	-0.0165	0.2243	1704.496	0.179791	-424.219033	-424.208796	-424.207852	-424.255672	36.084	
C	-0.5268347332	 1.1396932804	-0.1183713096	-0.384135
C	 0.3442654596	-0.110865725	 0.0253252245	-0.18493
C	 0.6245944537	-0.7743969451	-1.3145156508	-0.050726
O	 1.4421713503	-1.9189145091	-1.0916082792	-0.244982
C	 1.8063861957	-2.576711776	-2.2531166271	 0.124392
C	 2.1706903026	-4.0022370135	-2.1317397314	-0.335069
C	 0.8748259521	-3.6354689961	-2.8665041779	-0.140327
C	-0.4076251936	-3.9527404739	-2.204160778	 0.163989
O	-1.4169080524	-4.2691320192	-2.788433937	-0.278192
H	-0.0437387005	 1.8928161164	-0.7505137487	 0.117618
H	-1.4968000037	 0.9015171953	-0.5681673326	 0.122055
H	-0.7169129738	 1.5975888068	 0.8562922666	 0.120592
H	 1.3008681626	 0.1420996546	 0.4964129032	 0.109273
H	-0.1442939196	-0.8408017761	 0.6808238874	 0.110289
H	-0.3146171122	-1.0733350876	-1.8059743463	 0.102975
H	 1.1398490521	-0.0753495073	-1.9933170059	 0.092255
H	 2.3411095238	-1.9615268831	-2.9785293734	 0.099645
H	 2.9872264421	-4.3991634383	-2.7227886551	 0.131548
H	 2.0541956942	-4.446997055	-1.1488142443	 0.138412
H	 0.8579192765	-3.7206731211	-3.947416214	 0.106787
H	-0.3813469362	-3.8818802172	-1.0942638605	 0.078531
42.128	57.7478	102.6259	130.8688	154.1936	215.3492	231.6248	271.8316	337.9629	359.5507	457.7784	503.4837	587.2919	763.0907	771.15	838.68	861.6093	900.0785	910.5584	967.1583	1003.8303	1048.7378	1051.2321	1069.3141	1089.1389	1124.3008	1143.7967	1180.9709	1182.9146	1192.9067	1245.0782	1270.303	1317.0315	1333.5163	1336.0772	1386.8803	1413.9514	1437.9563	1443.0025	1483.4265	1491.826	1500.3312	1506.998	1525.6984	1809.2685	2887.2533	2969.2708	3002.0872	3033.9536	3040.572	3074.2243	3091.1895	3102.6665	3111.5037	3140.5289	3180.2816	3232.2772
CCCOC1CC1C=O	CCCO[C@H]1C[C@H]1C=O	
InChI=1S/C7H12O2/c1-2-3-9-7-4-6(7)5-8/h5-7H,2-4H2,1H3	InChI=1S/C7H12O2/c1-2-3-9-7-4-6(7)5-8/h5-7H,2-4H2,1H3/t6-,7-/m0/s1
