19
gdb 26475	3.54033	1.30772	1.03947	3.2795	82.5	-0.2051	0.0384	0.2435	1175.2914	0.161203	-382.106118	-382.097958	-382.097014	-382.139086	31.762	
C	-0.0095905316	 1.486504748	-0.0791007069	-0.500148
C	 0.0213133798	-0.028763761	-0.0378887114	 0.241605
C	 1.3611150476	-0.7297771728	-0.1872139505	-0.286512
C	 0.6813193762	-0.7074511768	 1.1506202055	-0.28652
C	-1.150796867	-0.7224916898	-0.6218307865	 0.342668
N	-1.3239650327	-2.0279292345	-0.6887746216	-0.327684
C	-2.5396951925	-2.2165752412	-1.3031063428	-0.086695
C	-3.1149416361	-1.0156965119	-1.6144520167	-0.124593
N	-2.2156310099	-0.0654696631	-1.1729376486	-0.305045
H	 0.8949383013	 1.8999267497	 0.3746921613	 0.124486
H	-0.0587533569	 1.8637557489	-1.1081067033	 0.11667
H	-0.865130321	 1.8904549674	 0.4764324954	 0.116647
H	 1.3564907595	-1.6648508269	-0.7341647439	 0.138077
H	 2.2356360315	-0.1048127379	-0.3362843186	 0.105854
H	 1.0850552112	-0.0672021898	 1.9282178296	 0.105857
H	 0.2239987896	-1.6275413896	 1.4938685036	 0.138055
H	-2.9295586418	-3.2066782629	-1.4848893207	 0.103449
H	-4.0427776048	-0.7458027986	-2.0899859788	 0.122676
H	-2.3252803125	 0.9311255228	-1.2465467549	 0.261155
45.2458	170.911	192.1572	248.6219	310.0166	320.8516	434.7858	436.3063	537.0787	547.1023	641.5279	706.2236	758.2802	793.053	836.8278	844.3669	854.4561	930.5258	955.8259	958.9121	981.2495	1046.568	1073.4157	1087.7004	1104.3655	1118.7091	1133.015	1183.2782	1202.0636	1216.1016	1302.9286	1333.6364	1393.8113	1413.6009	1454.839	1456.5963	1492.6964	1494.2834	1507.274	1521.7123	1589.7366	3015.8892	3071.4177	3108.463	3131.9522	3135.1334	3224.9515	3237.9224	3246.9556	3280.9385	3675.8158
CC1(CC1)C1=NC=CN1	CC1(CC1)c1ncc[nH]1	
InChI=1S/C7H10N2/c1-7(2-3-7)6-8-4-5-9-6/h4-5H,2-3H2,1H3,(H,8,9)	InChI=1S/C7H10N2/c1-7(2-3-7)6-8-4-5-9-6/h4-5H,2-3H2,1H3,(H,8,9)
