17
gdb 79721	2.48616	1.84872	1.46686	3.7747	71.07	-0.2336	-0.0192	0.2143	949.4122	0.134989	-421.779846	-421.772258	-421.771314	-421.81182	29.395	
C	-0.2500925172	 1.6105429079	 0.0543618234	-0.419428
C	 0.0406718919	 0.1184654775	-0.0269263845	-0.102524
C	 0.7134705909	-0.5415047052	-1.2712185602	-0.09832
C	 1.9055256925	 0.1976233781	-1.9357842354	 0.021783
O	 2.6357392667	 0.8886919901	-0.9139199875	-0.23602
C	 2.8824647688	-0.5126582878	-1.0938571326	 0.025199
C	 1.7565772442	-1.2783605133	-0.3539506742	-0.209569
C	 1.1601497675	-0.4954382162	 0.8487756199	 0.409393
O	 1.4409312669	-0.4131367126	 2.006438121	-0.301942
H	 0.646824989	 2.1929523046	-0.164201023	 0.147015
H	-1.0354778405	 1.8962078724	-0.6529416849	 0.114005
H	-0.5909263975	 1.8723918791	 1.0606631858	 0.13321
H	-0.8692973262	-0.4551457443	 0.2031515946	 0.106743
H	 0.0836143633	-1.1035598713	-1.9586452354	 0.083043
H	 1.9828263217	 0.5900847878	-2.9433510383	 0.111094
H	 3.9079900766	-0.8148509314	-1.2693830874	 0.116129
H	 1.8406411013	-2.3626633054	-0.2955378813	 0.10019
108.4266	180.5091	194.0414	203.675	287.2694	369.2199	496.1255	593.4405	606.6622	660.6316	758.8364	784.8955	803.8281	831.9656	871.4278	893.459	911.8043	950.4693	998.124	1002.4194	1034.1991	1058.2212	1089.205	1096.4841	1145.0722	1185.115	1192.2861	1216.3484	1236.5159	1257.7167	1297.6592	1325.864	1380.1194	1403.9291	1491.574	1506.5157	1894.7582	3008.448	3042.8359	3106.3606	3127.8575	3135.5024	3138.6902	3179.078	3195.6996
CC1C2C3OC3C2C1=O	C[C@H]1[C@H]2[C@H]3O[C@H]3[C@H]2C1=O	
InChI=1S/C7H8O2/c1-2-3-4(5(2)8)7-6(3)9-7/h2-4,6-7H,1H3	InChI=1S/C7H8O2/c1-2-3-4(5(2)8)7-6(3)9-7/h2-4,6-7H,1H3/t2-,3+,4+,6+,7-/m0/s1
