16
gdb 86132	2.59967	1.51596	0.99157	4.1755	67.68	-0.244	-0.0733	0.1707	1141.7077	0.123884	-475.067819	-475.059109	-475.058165	-475.101445	31.103	
C	-0.0561702673	 1.4113178967	 0.0891355481	-0.34745
N	-0.0067916716	-0.030553085	-0.0000170514	-0.094358
C	-1.2058019287	-0.8310027413	-0.2387721127	-0.205417
C	-0.7428786376	-2.2726967659	 0.0457877138	 0.045563
O	-1.3727089323	-3.2414263395	-0.7403448939	-0.433281
C	 0.7563439707	-2.1900510256	-0.194523757	 0.261985
O	 1.4456495726	-3.1049016194	-0.5589267043	-0.300983
C	 1.1732812608	-0.7255036328	 0.0030751996	 0.327197
O	 2.2928753518	-0.2794187467	 0.1155931006	-0.369617
H	 0.9591315445	 1.7685797791	 0.2679018041	 0.173518
H	-0.4370007148	 1.8521695503	-0.8401504968	 0.136319
H	-0.7072922081	 1.725111414	 0.913290503	 0.134542
H	-2.0186672341	-0.5030261247	 0.4166439551	 0.124094
H	-1.5489667053	-0.7551170375	-1.2784298371	 0.134968
H	-0.8797815411	-2.4734820758	 1.12389962	 0.113075
H	-0.6891921697	-3.888170676	-0.9692263211	 0.299845
81.4278	116.6944	146.5798	204.931	242.4065	286.2273	324.7067	374.8294	378.4562	489.3502	525.7696	589.0859	653.9774	743.4512	824.012	941.6715	993.7837	1050.3388	1056.9116	1111.3255	1147.1426	1176.4274	1201.3364	1241.0909	1285.9895	1294.8786	1372.784	1410.3765	1427.1602	1446.4243	1491.1751	1506.7997	1537.5875	1819.352	1859.1093	2943.9221	3020.5708	3027.5546	3074.3215	3078.0897	3148.4334	3732.5454
CN1CC(O)C(=O)C1=O	CN1C[C@@H](O)C(=O)C1=O	
InChI=1S/C5H7NO3/c1-6-2-3(7)4(8)5(6)9/h3,7H,2H2,1H3	InChI=1S/C5H7NO3/c1-6-2-3(7)4(8)5(6)9/h3,7H,2H2,1H3/t3-/m1/s1
