21
gdb 104857	1.9565	1.56719	1.07323	3.3289	74.3	-0.2478	0.0562	0.304	1208.2972	0.180632	-461.338702	-461.328583	-461.327639	-461.373907	37.097	
C	 0.7787112007	-0.1740437764	 1.3291209495	-0.40128
C	-0.0037293254	-0.0801143672	 0.0136346851	-0.211837
C	-1.4092015094	-0.6683180479	 0.0609342535	 0.36323
C	-2.3546799949	 0.0392215488	 1.0348605241	-0.093183
O	-2.5861717698	 1.3702416016	 0.6227372475	-0.422687
O	-2.0330874069	-0.5911116116	-1.2663898531	-0.336945
C	-2.2492163662	-2.0159374493	-1.3042470639	-0.102049
C	-1.5479664417	-2.2150011939	 0.0570050736	-0.002184
O	-0.3070367369	-2.8818555109	 0.0299468095	-0.421721
H	 1.791414691	 0.2172050733	 1.1928875675	 0.113981
H	 0.3108853423	 0.4106827661	 2.127230561	 0.119495
H	 0.8625732687	-1.2118396869	 1.6620224735	 0.1299
H	-0.1110844679	 0.9676370454	-0.2872083773	 0.110234
H	 0.5457199084	-0.5922756271	-0.7806229429	 0.107652
H	-3.2980656946	-0.5287478259	 1.0950954714	 0.075627
H	-1.9288598599	 0.0781022265	 2.0423894488	 0.11163
H	-2.8472865249	 1.3078347595	-0.3054862425	 0.291913
H	-3.3149777098	-2.2738357998	-1.3415672223	 0.099217
H	-1.7260822889	-2.4885139915	-2.1440803626	 0.105102
H	-2.1922580067	-2.6066640784	 0.8547282704	 0.073351
H	-0.4706409373	-3.8298996043	 0.0237035792	 0.290556
55.0731	85.7665	135.7423	178.4889	206.9503	223.1262	274.1855	284.6832	335.3703	370.0343	414.9617	456.2797	504.9376	595.9914	685.0126	780.7629	802.5731	875.3147	902.6184	968.3088	1000.7865	1021.2901	1026.8506	1061.9047	1076.0643	1106.4274	1133.3752	1165.1937	1188.3399	1205.1038	1228.1728	1273.317	1311.3565	1318.1719	1333.3113	1360.5323	1398.7769	1407.6872	1432.5234	1441.2822	1477.5927	1495.0521	1508.4939	1509.8774	1513.2532	2962.7892	3009.5754	3019.2657	3042.7873	3053.0938	3066.0331	3080.8045	3094.0184	3109.4629	3126.4196	3768.9055	3824.2612
CCC1(CO)OCC1O	CC[C@@]1(CO)OC[C@H]1O	
InChI=1S/C6H12O3/c1-2-6(4-7)5(8)3-9-6/h5,7-8H,2-4H2,1H3	InChI=1S/C6H12O3/c1-2-6(4-7)5(8)3-9-6/h5,7-8H,2-4H2,1H3/t5-,6+/m1/s1
