19
gdb 126396	2.72814	1.23402	0.91354	0.5247	80.29	-0.2028	0.0272	0.23	1320.6097	0.1589	-419.230674	-419.220923	-419.219979	-419.266049	34.577	
C	 0.0891764584	 1.5357677421	 0.0860958322	-0.372961
C	-0.0436035078	 0.0160776951	-0.1212862096	-0.310198
C	 0.7466344835	-0.4951197957	-1.2874386225	 0.247114
N	 0.1596843699	-0.8428846213	-2.4367520278	-0.3283
N	 1.1544426869	-1.2400958708	-3.246431384	 0.055863
C	 0.8662770959	-1.606002053	-4.6143681708	-0.319994
C	 2.3776553936	-1.1510068805	-2.6530817959	-0.117688
C	 2.1473515407	-0.6733247053	-1.3806111675	 0.166607
O	 3.1070364991	-0.4423646462	-0.4381973793	-0.448368
H	 1.1330073489	 1.8290403121	 0.243524111	 0.111501
H	-0.2731569656	 2.0759447528	-0.7932411146	 0.131087
H	-0.4882626944	 1.866389064	 0.9552711203	 0.112251
H	 0.2650520299	-0.5047020329	 0.7969797216	 0.091615
H	-1.0932835445	-0.2465047341	-0.2821408909	 0.124898
H	 1.0211084672	-0.7640743525	-5.2992368406	 0.136994
H	 1.508240272	-2.4356208613	-4.9220682596	 0.13596
H	-0.1774821261	-1.9167608134	-4.6645738081	 0.156761
H	 3.2880622278	-1.4310254934	-3.1566225823	 0.127907
H	 2.6726385645	-0.2182228956	 0.3901161983	 0.29895
45.4746	69.1348	128.4549	174.4791	196.0456	212.5336	278.6681	295.5707	314.3786	419.3766	507.2739	615.8355	632.0048	634.817	725.594	766.9798	773.3196	821.3108	970.1789	1020.8591	1057.5054	1081.1451	1097.8093	1141.822	1154.9287	1213.251	1257.6372	1285.2002	1350.7645	1367.0181	1408.2723	1412.5875	1452.5365	1475.4024	1480.8582	1489.8959	1495.9484	1503.1099	1513.3179	1537.1088	1641.9739	3000.4669	3031.5148	3032.9895	3080.8462	3100.6491	3102.6817	3115.6768	3155.809	3270.0981	3837.9938
CCC1=NN(C)C=C1O	CCc1nn(C)cc1O	
InChI=1S/C6H10N2O/c1-3-5-6(9)4-8(2)7-5/h4,9H,3H2,1-2H3	InChI=1S/C6H10N2O/c1-3-5-6(9)4-8(2)7-5/h4,9H,3H2,1-2H3
