21
gdb 87249	4.4785	0.74272	0.71209	4.2338	81.39	-0.2707	0.0108	0.2816	1644.7352	0.179911	-424.243237	-424.232909	-424.231965	-424.279489	36.722	
C	 0.0052860254	 1.4704174281	-0.126443319	-0.414891
C	 0.1061732006	-0.0348969111	-0.0102662043	-0.036522
C	 1.4319704091	-0.7526189385	-0.0832141888	-0.3215
C	 0.6576450187	-0.7406278352	 1.2170624964	 0.346294
C	 1.1970016923	 0.0407900938	 2.3995401626	-0.480883
C	-0.0551867242	-2.0180421994	 1.5944055128	-0.150122
O	 0.854674541	-2.9512125363	 2.2053598813	-0.179461
C	 0.5785656182	-3.402206652	 3.4410225388	 0.173981
O	 1.2710271053	-4.1876278746	 4.015787274	-0.278033
H	 0.8687726351	 1.9778961829	 0.3116940418	 0.119624
H	-0.0464530702	 1.7680873207	-1.1793467944	 0.123422
H	-0.8935533292	 1.8526636011	 0.3701416811	 0.118728
H	-0.7211830738	-0.5540073447	-0.4906000209	 0.081688
H	 1.5009361054	-1.6806677358	-0.640717963	 0.116756
H	 2.3294948371	-0.1438383533	-0.1268178168	 0.113042
H	 1.7424154938	 0.9327630264	 2.0845542299	 0.122187
H	 0.3900705376	 0.362719853	 3.069320193	 0.112666
H	 1.8901148938	-0.5762219583	 2.9802637628	 0.137975
H	-0.88365448	-1.8137436887	 2.2874639972	 0.106369
H	-0.466295841	-2.5112179187	 0.70796121	 0.114735
H	-0.351672095	-2.9675656298	 3.8586533554	 0.073947
39.4718	53.7348	132.3258	166.9453	181.6552	197.249	252.9417	274.1516	303.9956	367.6738	390.6585	436.3175	519.426	672.5775	719.8015	792.5129	879.4241	905.3685	938.6736	977.7	997.8724	1019.8259	1046.5614	1049.8383	1059.7124	1106.6414	1132.4138	1138.1752	1183.8996	1197.1926	1282.7252	1288.5722	1361.9221	1395.5339	1412.1571	1421.25	1428.6409	1436.453	1483.8582	1490.8143	1495.1014	1499.8026	1502.1041	1516.5925	1864.0864	2935.4788	3006.4867	3028.0738	3033.1993	3076.5383	3090.0701	3092.2889	3103.7236	3121.8233	3127.336	3129.8493	3212.5124
CC1CC1(C)COC=O	C[C@H]1C[C@]1(C)COC=O	
InChI=1S/C7H12O2/c1-6-3-7(6,2)4-9-5-8/h5-6H,3-4H2,1-2H3	InChI=1S/C7H12O2/c1-6-3-7(6,2)4-9-5-8/h5-6H,3-4H2,1-2H3/t6-,7+/m0/s1
