20
gdb 99152	4.29322	0.7488	0.6902	1.1627	76.85	-0.2459	0.0184	0.2643	1690.1551	0.169245	-440.296458	-440.286202	-440.285258	-440.333472	35.501	
C	 0.267524912	 1.3337543779	 0.2187173611	-0.239569
O	 0.1393545455	-0.0747366327	-0.0131932185	-0.232682
C	 0.5417414843	-0.4978238144	-1.2281603081	 0.460492
O	 0.9900293953	 0.2345567585	-2.07456836	-0.361282
C	 0.3212653887	-1.9919310845	-1.3795002263	-0.349467
C	 1.193151028	-2.5780418461	-2.4650168697	 0.007443
N	 2.4978513874	-3.1157830679	-2.0428389365	-0.339587
C	 1.4859541134	-4.0302547867	-2.6012459229	-0.009942
C	 0.9435957219	-5.1054318011	-1.6891777649	-0.392375
H	 1.3110429842	 1.6453297977	 0.1277145659	 0.142119
H	-0.3306532425	 1.9002292313	-0.4997088856	 0.138588
H	-0.0941192545	 1.5017006197	 1.2332301127	 0.132373
H	 0.497411549	-2.4748675292	-0.4169786349	 0.1368
H	-0.7412990127	-2.1358074242	-1.6196641077	 0.131445
H	 1.1718102	-2.0001556879	-3.3856341982	 0.100992
H	 3.2125393233	-2.8980837579	-2.7312607957	 0.232446
H	 1.6471161447	-4.3655651199	-3.6258775207	 0.0814
H	 0.8262611873	-4.7408662196	-0.6664527385	 0.125271
H	-0.0284975119	-5.4653577728	-2.044207091	 0.114722
H	 1.6268937867	-5.9608665502	-1.6590433604	 0.120814
31.8548	42.5319	107.8948	116.0712	167.4481	182.8245	211.7874	285.7277	349.2608	394.5953	461.5175	492.1628	592.7768	708.7423	772.099	843.1179	877.3632	913.7549	946.1711	985.7681	1021.2711	1034.4193	1049.2757	1096.3837	1157.1262	1177.3524	1179.4931	1205.283	1221.7318	1246.6351	1268.5308	1285.4112	1344.8998	1403.6437	1427.9728	1445.83	1471.4886	1474.9231	1481.1677	1491.6392	1497.6489	1506.3749	1818.7365	3027.9115	3035.7324	3051.4004	3094.469	3098.9656	3118.6448	3125.7229	3131.8024	3145.1797	3158.111	3511.223
COC(=O)CC1NC1C	COC(=O)C[C@H]1N[C@H]1C	
InChI=1S/C6H11NO2/c1-4-5(7-4)3-6(8)9-2/h4-5,7H,3H2,1-2H3	InChI=1S/C6H11NO2/c1-4-5(7-4)3-6(8)9-2/h4-5,7H,3H2,1-2H3/t4-,5+/m0/s1
