18
gdb 117570	2.28974	1.07906	0.77343	4.3955	73.55	-0.2862	0.0091	0.2953	1471.9687	0.145125	-439.059179	-439.049369	-439.048425	-439.095218	33.679	
C	-0.0231818083	 1.5521463557	 0.1747976571	-0.387314
C	 0.0001859691	 0.0351164469	 0.1911914151	-0.051893
O	-1.3090985456	-0.429702435	-0.1365041755	-0.247
C	-1.437645894	-1.8270141438	-0.1919427757	-0.03571
C	-1.2497188886	-2.4468382741	 1.1431316457	 0.270496
N	-1.0986619815	-2.9065616226	 2.1922058727	-0.322345
C	-2.8244209741	-2.1362304925	-0.7311595081	 0.07249
C	-3.0301632768	-2.3197126159	-2.1692202608	-0.176146
O	-2.9929096964	-3.4369871948	-1.2754587963	-0.224481
H	 0.9684696055	 1.9445614423	 0.4176253222	 0.124915
H	-0.3129099759	 1.924557086	-0.8116537858	 0.129282
H	-0.7363361091	 1.9324772119	 0.9110663025	 0.136023
H	 0.7219617343	-0.356740356	-0.5429988875	 0.096235
H	 0.2946295988	-0.3420130782	 1.180663886	 0.121967
H	-0.6939138325	-2.2771876046	-0.8691892973	 0.1184
H	-3.6428540958	-1.7737482697	-0.1112081225	 0.122542
H	-4.0034944374	-2.0988184606	-2.6022416028	 0.129683
H	-2.1835728818	-2.2353597151	-2.8487637589	 0.122856
50.963	72.7283	89.8132	133.282	143.6418	224.2026	256.501	310.5401	334.0429	420.4257	450.0755	538.5129	642.7631	823.0856	849.3807	871.0802	905.366	917.1361	996.5913	1040.0012	1096.3534	1121.1488	1137.0653	1156.0282	1164.9767	1181.358	1187.4362	1281.7338	1286.3687	1301.3662	1340.2551	1403.4417	1431.3936	1447.0399	1483.9333	1499.4067	1526.3742	1530.8174	2355.046	2979.6435	2983.6059	3028.3499	3048.7379	3092.6863	3124.2419	3127.1944	3132.8931	3183.4288
CCOC(C#N)C1CO1	CCO[C@@H](C#N)[C@H]1CO1	
InChI=1S/C6H9NO2/c1-2-8-5(3-7)6-4-9-6/h5-6H,2,4H2,1H3	InChI=1S/C6H9NO2/c1-2-8-5(3-7)6-4-9-6/h5-6H,2,4H2,1H3/t5-,6+/m0/s1
