14
gdb 10451	2.83932	1.80134	1.31254	2.4297	63.67	-0.2591	-0.0411	0.218	932.5286	0.10367	-382.487618	-382.479497	-382.478553	-382.520548	28.851	
O	-0.9545544467	 0.9425773922	-0.1366458521	-0.247808
C	 0.1397829576	 0.8842752242	 0.3591076615	 0.127472
C	 1.2721105116	 1.8050693668	 0.0068331884	 0.30594
C	 1.1512171929	 2.5882333532	-1.2901195418	-0.437977
C	 1.261055544	 1.739824959	-2.4719121913	 0.318438
C	 1.3606588333	 1.0375310067	-3.4407232873	-0.44232
C	 2.0540595228	 2.3297010033	 1.1498666878	-0.222097
O	 2.559454212	 1.2790428864	 0.3431833989	-0.2502
H	 0.4088241114	 0.1413170301	 1.1421921416	 0.093262
H	 0.1788113195	 3.0945796678	-1.28754458	 0.156001
H	 1.9258164587	 3.3622673655	-1.3129873153	 0.137071
H	 1.4424285949	 0.4168202372	-4.2983232274	 0.201672
H	 2.5398361292	 3.2976753068	 1.0360971943	 0.131868
H	 1.7861463088	 2.0559399507	 2.1697514328	 0.128678
56.79	122.3216	141.9014	231.5933	328.4298	337.9768	345.3623	378.1487	513.3005	559.9467	623.4362	653.7863	785.0093	864.4187	881.9759	923.8996	964.4223	993.44	1047.2901	1133.7059	1161.6212	1209.7351	1304.691	1328.1521	1357.6784	1426.5779	1446.4791	1523.2716	1831.6283	2246.5077	2897.6053	3039.9214	3081.2334	3083.4618	3173.4253	3506.8667
O=CC1(CC#C)CO1	O=C[C@@]1(CC#C)CO1	
InChI=1S/C6H6O2/c1-2-3-6(4-7)5-8-6/h1,4H,3,5H2	InChI=1S/C6H6O2/c1-2-3-6(4-7)5-8-6/h1,4H,3,5H2/t6-/m0/s1
