16
gdb 44742	3.11251	1.72128	1.52442	5.0636	68.18	-0.2484	-0.0155	0.2329	899.5428	0.128022	-437.933696	-437.927226	-437.926282	-437.964411	26.571	
O	 0.004160255	-0.0537955968	-0.1002101104	-0.38261
C	-0.0295603038	 1.14592817	-0.0060470018	 0.453795
N	-1.1991128931	 1.8656526076	 0.1435862152	-0.350211
C	-1.2267611718	 3.3313181503	 0.0192053787	-0.043421
C	-0.0310340784	 3.8277653657	 0.84917287	-0.235555
C	 1.0728937999	 3.3214884659	-0.0832276847	 0.075651
O	 1.1325086303	 1.8659340128	 0.0043531802	-0.26409
C	 0.5365752533	 3.713539365	-1.4498201166	-0.077215
C	-0.7969778642	 3.7324416627	-1.3920553904	-0.072747
H	-2.0235318429	 1.3292195181	-0.0771971289	 0.255486
H	-2.2036515086	 3.6947713847	 0.3396184878	 0.08417
H	-0.0151532135	 4.9174113768	 0.9121489901	 0.115273
H	 0.0117160489	 3.391028071	 1.8485506841	 0.120938
H	 2.0853127411	 3.6506934372	 0.1470726147	 0.093563
H	 1.1580870623	 3.837409867	-2.3271864277	 0.115527
H	-1.4845927444	 3.8802856223	-2.2160034201	 0.111445
117.2789	271.4659	392.5722	415.9785	441.8892	473.0701	510.5098	620.7019	633.3596	754.8689	771.7196	809.4831	817.5739	875.8204	890.0586	913.6439	949.3376	971.0411	990.3931	1017.9089	1049.4019	1080.5551	1132.0381	1172.9567	1205.7695	1255.5479	1298.7318	1312.452	1345.4859	1358.9272	1396.5217	1439.2782	1484.0131	1653.5755	1848.3304	3079.3763	3109.9194	3127.6984	3138.4707	3201.3991	3228.379	3637.4601
O=C1NC2CC(O1)C=C2	O=C1N[C@H]2C[C@@H](O1)C=C2	
InChI=1S/C6H7NO2/c8-6-7-4-1-2-5(3-4)9-6/h1-2,4-5H,3H2,(H,7,8)	InChI=1S/C6H7NO2/c8-6-7-4-1-2-5(3-4)9-6/h1-2,4-5H,3H2,(H,7,8)/t4-,5+/m1/s1
