18
gdb 52221	3.47314	0.73444	0.65095	2.0321	75.16	-0.2588	-0.0333	0.2255	1664.2937	0.145324	-439.084026	-439.074514	-439.07357	-439.120171	32.581	
O	-0.1824234804	 0.2914900806	 0.07074875	-0.229116
C	-0.0082559044	 1.4775976364	-0.0279908464	 0.157896
C	 1.3460242128	 2.1496889733	-0.1023708839	-0.277479
C	 1.491505568	 2.9918913739	-1.3848650881	-0.22761
C	 2.8234851063	 3.7050652597	-1.4826824269	-0.006551
C	 2.9606810571	 4.9486228192	-2.3171036047	-0.253377
N	 3.0288148757	 5.0136760278	-0.8769157525	-0.059639
C	 2.1504072697	 5.7301413291	-0.0858262629	 0.133148
O	 1.6827231879	 6.8056147468	-0.370825243	-0.285635
H	-0.8718442658	 2.1820527085	-0.0792514862	 0.077812
H	 1.4411307658	 2.8040346684	 0.7754313272	 0.126169
H	 2.1209248067	 1.3802649691	-0.0389925843	 0.128469
H	 1.3919741258	 2.3347705316	-2.2578050278	 0.128717
H	 0.6793650712	 3.7269078736	-1.4484530108	 0.121149
H	 3.6926144291	 3.051701099	-1.412709692	 0.109071
H	 3.886809616	 5.1444493455	-2.8497533607	 0.133136
H	 2.0633695534	 5.3497512413	-2.7823367849	 0.139292
H	 1.9808938351	 5.2370465863	 0.8908281679	 0.084548
49.3226	54.9622	91.6975	119.9139	152.4869	221.5566	277.3982	327.44	391.0956	488.9882	525.6059	619.4217	767.175	798.4373	848.2307	896.0822	950.8848	1005.4774	1027.3612	1038.8812	1070.0757	1110.0926	1118.4884	1138.4041	1155.3237	1174.1082	1218.9795	1266.7481	1313.5551	1359.4973	1379.7971	1417.8835	1429.5922	1437.4091	1463.1557	1487.1449	1512.1856	1797.3391	1839.5689	2856.847	2946.9879	3018.6628	3028.822	3065.5898	3101.2319	3111.724	3117.1177	3201.0588
O=CCCC1CN1C=O	O=CCC[C@H]1CN1C=O	
InChI=1S/C6H9NO2/c8-3-1-2-6-4-7(6)5-9/h3,5-6H,1-2,4H2	InChI=1S/C6H9NO2/c8-3-1-2-6-4-7(6)5-9/h3,5-6H,1-2,4H2/t6-,7?/m0/s1
