23
gdb 63166	2.22121	1.63653	1.28467	1.5604	85.52	-0.241	0.0833	0.3243	1138.2814	0.205553	-388.293542	-388.284112	-388.283168	-388.326771	36.683	
C	-0.0321096745	 1.5383342686	 0.0556177685	-0.4745
C	 0.0422395032	 0.0184911793	 0.0327151209	 0.283513
C	-1.2407215971	-0.5988655431	-0.5065965382	-0.457106
C	 1.3221645937	-0.716633981	-0.3295916464	-0.153135
C	 2.6400205946	 0.0297956135	-0.2959438446	-0.105522
O	 2.6881795776	 0.7092553684	 0.9578293498	-0.255888
C	 1.8497101476	 0.0340851674	 1.8896327748	-0.136731
C	 0.8106773112	-0.75733436	 1.0985475998	 0.261537
C	 0.2659663159	-1.9845067128	 1.7955511847	-0.489017
H	 0.8841911663	 2.0013835376	 0.4212754841	 0.146105
H	-0.2270655812	 1.9223615685	-0.9528959951	 0.108582
H	-0.863315612	 1.8684434462	 0.6904547836	 0.108293
H	-1.4811689728	-0.1653677806	-1.4842757215	 0.11492
H	-1.1680574245	-1.6807589802	-0.6412709541	 0.112759
H	-2.0900229913	-0.399263722	 0.1575585729	 0.114007
H	 1.2515019019	-1.5865980452	-0.9750898075	 0.078992
H	 3.476477985	-0.6812974115	-0.3920347811	 0.091644
H	 2.7511502643	 0.7899567863	-1.0780139347	 0.105156
H	 2.4362523028	-0.6641728491	 2.5093110623	 0.087553
H	 1.4230264657	 0.7949561676	 2.5542851859	 0.103074
H	-0.2905636672	-1.7095643839	 2.6999250127	 0.118935
H	-0.409262007	-2.5629382107	 1.1627342482	 0.120323
H	 1.0817438876	-2.6487678433	 2.1042039752	 0.116506
164.7748	173.4171	186.322	203.1334	219.0052	233.5015	266.1968	310.4757	348.9942	376.5664	438.9776	495.8723	596.9988	671.0404	691.0678	758.217	881.4666	927.3284	938.9057	952.5754	971.8488	982.7483	1004.6655	1039.1451	1050.1472	1090.7914	1102.1346	1140.5992	1155.2473	1185.568	1212.606	1232.3883	1246.2362	1282.7124	1305.5545	1364.7403	1380.3365	1408.1848	1416.029	1427.3558	1455.4316	1486.1528	1489.2229	1496.43	1501.6264	1510.0767	1516.104	1524.0036	1529.9908	2965.8634	2973.7617	3022.2377	3024.2327	3028.5081	3045.6485	3050.708	3073.4079	3075.8387	3081.3889	3109.469	3128.9367	3146.7354	3157.6694
CC1(C)C2COCC12C	CC1(C)[C@H]2COC[C@@]12C	
InChI=1S/C8H14O/c1-7(2)6-4-9-5-8(6,7)3/h6H,4-5H2,1-3H3	InChI=1S/C8H14O/c1-7(2)6-4-9-5-8(6,7)3/h6H,4-5H2,1-3H3/t6-,8-/m1/s1
