19
gdb 58136	1.9988	1.40961	1.26724	2.3696	77.73	-0.2552	-0.0433	0.2118	1147.3604	0.154877	-423.004699	-422.994343	-422.993399	-423.039386	38.235	
C	 0.1640478854	 1.580703139	-0.1378898826	-0.428629
C	 0.0678001447	 0.0586004809	-0.0119174579	 0.118692
O	 0.7791697196	-0.424964185	 1.1118034849	-0.442717
C	-1.4050091802	-0.4814846199	 0.002742388	-0.053213
C	-1.3973171279	-2.0358635251	 0.0503979167	-0.426319
C	-2.1642368808	-0.0271537492	 1.2581926535	 0.158541
O	-1.65065972	 0.4136788838	 2.2566400466	-0.270769
C	-2.1603465063	-0.0296162252	-1.1631827114	 0.307049
C	-2.8058965331	 0.3379928026	-2.1090062593	-0.458388
H	 1.2183005543	 1.8682205644	-0.1620706008	 0.125899
H	-0.3170207025	 1.9338692397	-1.05355665	 0.128578
H	-0.3054982323	 2.0791478566	 0.7151717406	 0.129157
H	 0.5521042145	-0.3983404083	-0.8827775991	 0.095488
H	 0.3541282607	-0.0307722899	 1.8859294823	 0.292716
H	-0.75330015	-2.3674518561	 0.8662751876	 0.150739
H	-2.4069646572	-2.4330806005	 0.1888419129	 0.124728
H	-1.0076622945	-2.424285283	-0.8939831188	 0.13711
H	-3.2642844469	-0.167685704	 1.1950535179	 0.107952
H	-3.3630068372	 0.6641028092	-2.9527112609	 0.203385
80.0171	122.1417	149.0993	181.4571	218.6095	220.2907	246.2872	269.1908	309.7456	374.5703	426.4526	472.7138	509.6984	516.6157	573.7681	591.2925	631.3083	658.0235	752.8145	900.3863	905.3234	948.525	978.7065	1034.5603	1079.8239	1109.4048	1139.0916	1189.235	1215.2244	1316.6497	1356.3359	1389.3246	1403.9284	1421.5496	1447.0064	1486.3041	1494.7336	1495.5166	1503.6918	1809.9764	2227.2644	2910.2141	3042.2411	3048.633	3049.6835	3120.5997	3124.6604	3129.7086	3150.7184	3498.4951	3751.322
CC(O)C(C)(C=O)C#C	C[C@@H](O)[C@@](C)(C=O)C#C	
InChI=1S/C7H10O2/c1-4-7(3,5-8)6(2)9/h1,5-6,9H,2-3H3	InChI=1S/C7H10O2/c1-4-7(3,5-8)6(2)9/h1,5-6,9H,2-3H3/t6-,7-/m1/s1
