17
gdb 8466	2.99441	2.0294	1.54142	3.786	69.36	-0.2377	0.0145	0.2522	887.016	0.141387	-363.871242	-363.863239	-363.862295	-363.903156	30.074	
C	 0.0067010448	 1.5342813458	 0.0674752586	-0.478547
C	-0.0074011058	 0.0370287221	 0.0711510921	 0.334201
C	 1.1026840961	-0.8694619932	-0.3729398188	-0.362888
C	 0.5733204235	-0.9621773951	 1.0682847037	 0.103242
C	 1.4203873952	-0.79500876	 2.2937145948	-0.496449
C	-0.7637198423	-1.6840932341	 0.9631626328	 0.391245
O	-1.2448861753	-2.6862270329	 1.4116843552	-0.345954
N	-1.2838699475	-0.7009998934	 0.0952382342	-0.394558
H	 1.0111075114	 1.9107115198	 0.283257799	 0.12536
H	-0.2900671767	 1.9314758096	-0.9101738935	 0.126741
H	-0.6849185227	 1.9303630892	 0.8170865402	 0.134286
H	 0.9121180212	-1.6688666811	-1.0839274237	 0.117418
H	 2.0922361998	-0.4252409149	-0.4523482613	 0.117781
H	 2.2215768163	-0.0678541007	 2.1266042103	 0.119693
H	 0.8242147717	-0.4530241261	 3.1456372693	 0.13308
H	 1.8875331906	-1.7447803703	 2.5746774046	 0.140475
H	-1.8060208203	-0.9404274747	-0.7420646575	 0.234873
145.6831	161.9131	169.9191	210.8144	243.3022	328.5528	365.6044	466.5177	524.5136	568.7997	662.1583	695.6618	724.2604	762.145	838.8452	895.2605	956.3601	981.0771	988.057	1056.4834	1085.6358	1108.7368	1133.3822	1181.2113	1241.0582	1314.8044	1344.2053	1397.4762	1418.0786	1432.6977	1479.482	1484.7849	1495.5417	1497.2928	1508.0808	1893.5634	3031.8164	3033.8382	3093.3646	3098.7179	3103.0297	3105.872	3116.0425	3192.3453	3524.773
CC12CC1(C)C(=O)N2	C[C@@]12C[C@]1(C)C(=O)N2	
InChI=1S/C6H9NO/c1-5-3-6(5,2)7-4(5)8/h3H2,1-2H3,(H,7,8)	InChI=1S/C6H9NO/c1-5-3-6(5,2)7-4(5)8/h3H2,1-2H3,(H,7,8)/t5-,6-/m1/s1
