19
gdb 71084	2.99333	1.56766	1.40812	3.2465	79.05	-0.2316	-0.0033	0.2283	1003.5617	0.160819	-385.883297	-385.876068	-385.875124	-385.914594	29.741	
C	-0.0728294779	 1.4883003	 0.0745851183	-0.502565
C	-0.0565159984	-0.018662586	-0.0013275915	 0.326906
C	 0.3843394109	-0.781021812	-1.2842209522	-0.274585
C	-0.4220017605	-1.9357025104	-0.6780365404	-0.038528
C	 0.0399726819	-2.1653057907	 0.8279361904	-0.170814
C	 0.7318233811	-0.8046418859	 1.0810131883	-0.256165
C	-1.4040918038	-1.78527085	 1.2003953697	 0.441091
O	-2.2247821815	-2.1882058008	 1.9730432339	-0.334933
C	-1.4036867674	-0.8795948031	-0.0164048649	-0.209022
H	 0.9466365685	 1.8878868808	 0.0138031513	 0.120662
H	-0.6520282478	 1.9261229596	-0.7449090594	 0.118157
H	-0.5090461476	 1.8337815703	 1.0183297008	 0.123964
H	-0.1007991151	-0.3909944281	-2.1837148353	 0.101823
H	 1.4569909983	-0.9045986635	-1.4678161245	 0.093082
H	-0.7819678307	-2.8013270738	-1.2294157822	 0.086401
H	 0.5103558902	-3.0820758075	 1.1754275385	 0.08343
H	 1.8073342818	-0.8099003491	 0.8793331367	 0.100002
H	 0.5712784657	-0.4364929423	 2.0996224677	 0.106848
H	-2.287139098	-0.4684060077	-0.4996942352	 0.084247
131.5888	220.2134	242.8323	289.4654	368.8838	447.8816	502.7002	545.3979	597.0546	650.5439	740.6252	788.6617	802.8054	830.4465	842.1256	903.7113	943.3885	945.6023	976.3051	996.1399	1015.4798	1030.9153	1062.491	1087.7932	1104.2574	1139.99	1147.7583	1187.3994	1196.987	1228.0514	1241.1029	1248.5551	1273.9952	1287.9333	1347.1501	1415.496	1488.2214	1494.0018	1496.1065	1518.3213	1887.9009	3024.18	3038.2817	3045.2872	3087.9762	3089.4521	3097.2208	3099.3447	3140.644	3149.1	3153.6203
CC12CC3C(C1)C(=O)C23	C[C@@]12C[C@H]3[C@@H](C1)C(=O)[C@@H]23	
InChI=1S/C8H10O/c1-8-2-4-5(3-8)7(9)6(4)8/h4-6H,2-3H2,1H3	InChI=1S/C8H10O/c1-8-2-4-5(3-8)7(9)6(4)8/h4-6H,2-3H2,1H3/t4-,5+,6-,8+/m0/s1
