20
gdb 61530	3.26355	0.88599	0.86927	3.6555	79.7	-0.2796	0.0121	0.2918	1432.6924	0.169253	-403.147333	-403.137407	-403.136463	-403.182619	36.465	
C	 0.1738470295	 1.3920430009	-0.0995256269	-0.476842
C	 0.101357253	-0.1226265033	-0.0397164155	 0.399298
C	-1.2186085948	-0.7367796448	-0.4789156429	-0.300693
C	-1.6422531962	-0.3518028752	-1.9122382757	-0.030006
O	-0.6631392974	-0.6243660194	-2.8956337731	-0.402214
C	-2.9283373894	-1.0010210259	-2.2494313507	 0.262144
N	-3.9171233596	-1.5409046586	-2.5072370824	-0.316979
C	 1.3687256233	-0.8984203078	-0.3056957556	-0.285218
C	 0.8179739091	-0.8161088436	 1.0971544276	-0.321427
H	 1.1166557844	 1.7522901648	 0.3224840665	 0.118763
H	 0.1196139671	 1.7600497989	-1.1300058898	 0.130862
H	-0.6413387718	 1.8540457222	 0.4705089491	 0.115956
H	-1.1624775737	-1.8304532006	-0.4130028494	 0.106496
H	-2.0257301336	-0.4285529605	 0.1987177615	 0.121634
H	-1.8004570548	 0.7304774206	-1.9641142661	 0.142822
H	-0.4759420394	-1.570010379	-2.8837758244	 0.293909
H	 1.2973768373	-1.8487591438	-0.8240515072	 0.099089
H	 2.2674695912	-0.338625072	-0.5404291839	 0.115966
H	 1.3399970354	-0.1971297317	 1.8188962871	 0.114377
H	 0.3678835106	-1.706763571	 1.5234449017	 0.112064
38.8967	94.6045	120.9633	187.0449	228.8095	254.5478	306.2657	316.5226	344.7064	373.3908	382.774	475.078	560.8267	590.8415	732.6513	783.7676	839.4731	875.3485	926.6065	943.3266	948.6399	958.3141	1026.6012	1047.6656	1075.258	1079.4195	1105.1037	1127.6397	1182.9157	1187.1313	1287.2814	1311.1685	1328.2876	1352.9818	1391.9906	1420.6029	1422.6976	1468.0533	1475.8107	1494.4908	1503.2201	1512.8002	2353.0384	3019.5797	3024.6031	3055.9121	3075.7762	3085.794	3103.0003	3128.3143	3133.4551	3205.8102	3219.9078	3803.5522
CC1(CC(O)C#N)CC1	CC1(C[C@@H](O)C#N)CC1	
InChI=1S/C7H11NO/c1-7(2-3-7)4-6(9)5-8/h6,9H,2-4H2,1H3	InChI=1S/C7H11NO/c1-7(2-3-7)4-6(9)5-8/h6,9H,2-4H2,1H3/t6-/m1/s1
