21
gdb 41804	2.26565	1.97781	1.4907	1.2135	82.18	-0.2301	0.0202	0.2503	995.9091	0.186725	-387.108837	-387.101423	-387.100479	-387.140591	30.15	
C	-0.0787536657	 1.4339419751	-0.3339164842	-0.072168
O	 1.1205939841	 2.0402143033	 0.1433449435	-0.274329
C	 2.0992117451	 1.0345477239	 0.447840491	 0.119821
C	 1.5499056589	-0.2625236168	-0.1645201996	-0.237817
C	 0.0280092034	-0.0736809813	-0.010166039	-0.071462
C	-0.4786119663	-0.4411722707	 1.3666711705	-0.073906
C	-0.0335262864	 0.0034224333	 2.5446469743	-0.049674
C	 1.0537923143	 1.0162575063	 2.8241049509	-0.243968
C	 2.3299739135	 0.9666431257	 1.966330772	-0.21134
H	-0.9353850593	 1.9133035086	 0.1501008525	 0.10486
H	-0.1638888473	 1.5863172661	-1.420875442	 0.087857
H	 3.0379437549	 1.327545736	-0.0378376612	 0.071445
H	 1.8140174681	-0.3153902017	-1.2261128855	 0.097505
H	 1.9231040945	-1.1614025457	 0.3290783266	 0.103034
H	-0.5192650414	-0.6555135644	-0.7560166289	 0.069056
H	-1.3101487431	-1.1424071172	 1.3813154604	 0.081008
H	-0.5467066131	-0.3646446428	 3.4314409354	 0.083707
H	 0.6224755857	 2.0211098434	 2.7250918589	 0.128581
H	 1.3514232205	 0.9264514589	 3.8745950519	 0.095088
H	 2.9062333113	 0.0607050006	 2.1903645476	 0.094655
H	 2.9568723682	 1.8159816195	 2.2619749648	 0.098048
85.7595	182.0493	249.0319	291.6026	353.5635	402.5439	476.0418	542.3813	661.2233	695.6217	752.4084	781.7292	803.5735	838.9561	860.6036	882.6451	898.1243	939.9688	997.3419	1001.7592	1010.2464	1040.4341	1061.6157	1084.2793	1098.8615	1119.102	1190.1272	1197.2925	1225.2481	1241.0561	1255.8301	1288.3485	1321.1417	1329.1989	1348.469	1374.1122	1385.2074	1396.0935	1402.5056	1430.4489	1472.3952	1480.9863	1490.7351	1523.5703	1719.0554	2980.8022	3017.4579	3023.7837	3031.2341	3049.6023	3060.434	3069.0355	3071.1815	3075.5819	3117.5945	3128.3144	3154.3033
C1OC2CC1C=CCC2	C1O[C@@H]2C[C@H]1C=CCC2	
InChI=1S/C8H12O/c1-2-4-8-5-7(3-1)6-9-8/h1,3,7-8H,2,4-6H2	InChI=1S/C8H12O/c1-2-4-8-5-7(3-1)6-9-8/h1,3,7-8H,2,4-6H2/t7-,8+/m1/s1
