17
gdb 38065	3.77331	1.40132	1.26584	2.2911	72.13	-0.2492	-0.0108	0.2384	1012.0795	0.13786	-417.959682	-417.952597	-417.951652	-417.991616	27.293	
C	-0.0700603425	 1.4047187152	 0.0070545254	-0.251118
C	 1.2330501618	 0.6975260292	 0.0280883016	-0.113849
N	-0.026018551	-0.082124011	 0.1070383923	-0.121595
C	-0.0811231844	-0.6633046775	-1.1962220345	 0.017279
N	 0.8987495174	-0.4975723202	-1.9914652496	-0.238029
C	 1.8856728325	 0.3432673542	-1.3035114912	 0.26448
C	 2.5290932884	 1.4593935867	-2.1632159739	-0.109114
O	 3.847531344	 0.9073782854	-1.988623136	-0.270236
C	 3.3270390822	-0.2233880267	-1.2660588738	-0.113866
H	-0.4270293231	 1.904948225	 0.9014857044	 0.132495
H	-0.4162131176	 1.8267347011	-0.9328893628	 0.131941
H	 1.8389966044	 0.7207334793	 0.9280822167	 0.110484
H	-0.9615168746	-1.2454891759	-1.4522054466	 0.131811
H	 2.2049200745	 1.4467588281	-3.2099918857	 0.113503
H	 2.446490749	 2.4761250156	-1.7596675346	 0.100482
H	 3.7743668298	-0.3206319909	-0.2684135865	 0.100657
H	 3.442067309	-1.1634622877	-1.8171389452	 0.114675
69.64	136.8642	218.9054	348.1691	392.4529	421.6794	474.5706	608.0877	724.2141	796.886	802.8321	860.6041	863.9847	917.384	954.5154	961.9461	988.734	1009.9317	1038.752	1045.7403	1076.7863	1096.5413	1117.0501	1156.1007	1161.7338	1165.248	1192.5528	1236.9971	1254.033	1305.8849	1323.7684	1369.2204	1382.1402	1496.9911	1500.7582	1526.8339	1665.3727	3009.3624	3020.8758	3069.6414	3071.1798	3114.6535	3164.0979	3190.522	3209.4833
C1C2N1C=NC21COC1	C1[C@H]2N1C=NC12COC1	
InChI=1S/C6H8N2O/c1-5-6(2-9-3-6)7-4-8(1)5/h4-5H,1-3H2	InChI=1S/C6H8N2O/c1-5-6(2-9-3-6)7-4-8(1)5/h4-5H,1-3H2/t5-,8?/m1/s1
