17
gdb 124874	3.68597	1.25755	1.05283	2.9578	75.17	-0.2429	-0.0078	0.2351	1144.7153	0.13675	-417.979955	-417.972048	-417.971104	-418.012887	29.724	
C	-0.2794386396	 1.3630017119	-0.6114667638	-0.475369
C	-0.022418252	-0.0219055758	-0.0496717495	 0.162998
C	 0.9918912869	-0.8968344927	-0.7180315562	-0.257208
N	 1.2616004678	-0.3218400008	 0.6066181699	-0.335574
C	-1.1743078043	-0.6668994215	 0.6220618771	 0.441446
C	-1.2803988645	-1.4725251383	 1.7144267405	-0.344031
C	-2.6711337869	-1.74386868	 1.7856049419	 0.027715
N	-3.3477486379	-1.156554371	 0.8290252782	-0.143548
O	-2.3915927872	-0.4673932222	 0.082093864	-0.223184
H	 0.6106198301	 1.7362080645	-1.1271394863	 0.113693
H	-1.1090195079	 1.348045734	-1.3232922053	 0.150842
H	-0.5380552602	 2.0661551559	 0.1871134669	 0.134568
H	 0.8521067202	-1.9733877967	-0.728337768	 0.129159
H	 1.5054352869	-0.4901923486	-1.585689556	 0.11874
H	 1.8800771559	 0.4814114981	 0.5246359046	 0.235777
H	-0.4854265327	-1.8018399072	 2.3600134422	 0.133086
H	-3.2063565946	-2.3461580696	 2.5065829599	 0.13089
51.4662	144.8964	186.9098	217.4783	312.4134	345.0818	397.8838	476.6748	552.4085	647.1419	723.5862	823.4074	830.7596	846.8473	917.5992	921.0947	935.301	947.2598	969.5364	991.7943	1016.613	1043.8191	1054.9097	1117.4514	1142.1652	1184.1929	1235.6763	1261.8815	1313.4187	1365.1151	1370.6594	1416.6325	1482.2775	1497.2265	1506.4094	1524.4973	1637.1269	3037.9936	3106.0388	3109.0072	3121.3779	3201.1738	3241.5603	3297.8376	3501.6741
CC1(CN1)C1=CC=NO1	C[C@]1(CN1)c1ccno1	
InChI=1S/C6H8N2O/c1-6(4-7-6)5-2-3-8-9-5/h2-3,7H,4H2,1H3	InChI=1S/C6H8N2O/c1-6(4-7-6)5-2-3-8-9-5/h2-3,7H,4H2,1H3/t6-/m0/s1
