16
gdb 131871	5.55183	0.77355	0.71097	2.5902	67.23	-0.2406	-0.0141	0.2265	1521.3731	0.124101	-474.989917	-474.981604	-474.980659	-475.024125	29.718	
O	-0.0136133579	 1.4474781339	-0.0375773559	-0.415308
C	 0.0228710593	 0.0364053142	-0.015446831	-0.067176
C	-1.3698174134	-0.5668090304	 0.0353305704	-0.094262
O	-2.0306048263	-0.1767758093	-1.1706018779	-0.282098
C	-3.3206915021	-0.5531460051	-1.2813485576	 0.224727
C	-4.1358440785	-1.267781604	-0.4550964314	-0.05124
O	-5.3562109322	-1.3834902062	-1.0215420196	-0.167794
N	-5.3583695254	-0.7376777955	-2.2452025168	-0.119833
C	-4.1535625438	-0.2485453775	-2.3951069983	-0.056676
H	-0.561017495	 1.6986436865	-0.7898888169	 0.293299
H	 0.5582007033	-0.3727234736	-0.8864773807	 0.102987
H	 0.5732088931	-0.2564426645	 0.8843276641	 0.118686
H	-1.3276816078	-1.6634810066	 0.1013371792	 0.108414
H	-1.9251575182	-0.1758704743	 0.8989197796	 0.117669
H	-4.0101551974	-1.7349176894	 0.5065386543	 0.149583
H	-3.9001956076	 0.3074347518	-3.2858284918	 0.139024
53.6216	65.2108	130.8358	171.9264	291.209	350.0946	391.3218	445.1137	493.694	606.3037	672.1461	729.4801	776.0143	887.9138	892.9406	912.0488	918.1011	930.4147	1035.5736	1064.0682	1098.8856	1132.8902	1136.7382	1214.1555	1234.8525	1264.8049	1302.0389	1384.4665	1392.3333	1424.8863	1443.2454	1485.939	1495.1044	1505.0347	1668.653	2989.3888	2998.2105	3049.2521	3086.3389	3253.4423	3286.6792	3808.626
OCCOC1=CON=C1	OCCOc1conc1	
InChI=1S/C5H7NO3/c7-1-2-8-5-3-6-9-4-5/h3-4,7H,1-2H2	InChI=1S/C5H7NO3/c7-1-2-8-5-3-6-9-4-5/h3-4,7H,1-2H2
