14
gdb 125184	3.51761	1.65779	1.13473	2.2697	71.1	-0.2233	-0.0278	0.1954	998.5593	0.103206	-432.873859	-432.866825	-432.865881	-432.905534	26.365	
C	 0.0460392879	 1.4990900741	-0.0018128307	-0.500082
C	-0.0786206814	 0.0210974779	 0.0632215409	 0.320693
C	-1.1118422425	-0.8649313215	-0.046355224	 0.093303
N	-2.4804061609	-1.0110918949	-0.250128604	-0.346465
C	-2.6555576247	-2.3006784572	-0.203689402	 0.012755
N	-1.4999099738	-3.0503211667	 0.018197555	-0.40493
C	-0.4871599368	-2.1269708994	 0.1224756542	 0.459248
N	 0.8059716089	-2.0878323145	 0.3206600432	-0.286867
O	 1.0549761709	-0.6900311792	 0.2794975973	-0.225586
H	 0.719237552	 1.8029360893	-0.8103077152	 0.151511
H	-0.9363553425	 1.9406115402	-0.1791709061	 0.153898
H	 0.4492106877	 1.9024151809	 0.9330463614	 0.15151
H	-3.6089112927	-2.7977234237	-0.3230870002	 0.142001
H	-1.437068142	-4.0512975052	 0.0850573501	 0.279009
83.8409	181.9697	244.9217	273.5494	375.6238	415.9442	550.4037	600.9482	606.6053	640.6353	714.4063	785.5148	799.1067	876.8869	892.3692	943.2917	996.5639	1060.4264	1061.0336	1131.3587	1209.2607	1279.355	1328.9118	1366.9189	1412.9627	1440.9314	1473.4692	1483.6376	1551.9164	1612.1371	1713.121	3039.8384	3095.7666	3139.9463	3236.8825	3681.8157
CC1=C2N=CNC2=NO1	Cc1c2nc[nH]c2no1	
InChI=1S/C5H5N3O/c1-3-4-5(8-9-3)7-2-6-4/h2H,1H3,(H,6,7,8)	InChI=1S/C5H5N3O/c1-3-4-5(8-9-3)7-2-6-4/h2H,1H3,(H,6,7,8)
