20
gdb 88831	3.02904	1.13109	0.90077	1.9745	76.23	-0.2418	0.0605	0.3023	1330.3329	0.17019	-440.230327	-440.220867	-440.219922	-440.265601	34.236	
C	-0.0127875991	 1.5348022847	-0.178859066	-0.39349
C	-0.0649805641	 0.0547040536	 0.1167481668	-0.000191
N	 1.1811293052	-0.7143886881	-0.0248319324	-0.348488
C	 0.5535820843	-0.5965219686	 1.3060859795	-0.024973
C	 1.3339152911	 0.164362763	 2.3366054308	 0.127836
O	 0.4856561798	 0.764790864	 3.3510270611	-0.297194
C	 1.1990489728	 0.1087851672	 4.41625042	-0.095417
C	 2.0957689264	-0.6507566933	 3.4133033344	 0.040461
O	 1.868943018	-2.0369039629	 3.2971738373	-0.422457
H	 0.9379103635	 1.9714925037	 0.1334833323	 0.125978
H	-0.1220824317	 1.7128411708	-1.2541331082	 0.11505
H	-0.8220621654	 2.0609879519	 0.3378832778	 0.124648
H	-0.9768434493	-0.4308528788	-0.2306631886	 0.080766
H	 1.0014206489	-1.6353709697	-0.4139904545	 0.232258
H	 0.0403289639	-1.4686399223	 1.7004876883	 0.093043
H	 1.9639311489	 0.9177365998	 1.8511864875	 0.080001
H	 1.7143803818	 0.8237951532	 5.071005022	 0.094995
H	 0.5479331082	-0.537953691	 5.0175930047	 0.099793
H	 3.166697075	-0.4259625167	 3.4808378228	 0.078231
H	 2.3317416019	-2.4813968607	 4.0139528344	 0.289151
42.822	62.5974	123.822	181.6262	207.5867	222.6314	261.3868	384.994	398.6188	428.7429	493.0307	569.7924	784.0594	796.5157	843.9005	865.3098	890.3063	949.8303	967.9907	1001.7955	1015.9139	1029.6872	1053.6491	1067.9216	1107.9405	1143.0315	1159.2863	1171.0421	1190.8288	1231.7146	1261.8689	1272.9061	1280.5285	1305.5996	1327.6363	1343.3076	1407.2961	1432.4456	1435.6093	1474.1838	1491.9055	1505.1255	1511.2598	3005.3461	3026.6283	3038.3783	3049.2569	3058.2906	3098.8564	3101.9964	3134.2357	3156.191	3512.3948	3824.9661
CC1NC1C1OCC1O	C[C@H]1N[C@H]1[C@H]1OC[C@H]1O	
InChI=1S/C6H11NO2/c1-3-5(7-3)6-4(8)2-9-6/h3-8H,2H2,1H3	InChI=1S/C6H11NO2/c1-3-5(7-3)6-4(8)2-9-6/h3-8H,2H2,1H3/t3-,4-,5-,6+/m1/s1
