19
gdb 8139	4.1024	1.62563	1.35054	1.4392	77.83	-0.2202	0.0241	0.2443	988.8246	0.165738	-327.924293	-327.916455	-327.91551	-327.955872	30.581	
C	 0.0470236046	 1.5026815351	 0.0781920448	-0.486474
C	-0.0271511241	 0.0112361354	 0.0028633616	 0.318064
C	-0.1342748616	-0.7440249827	-1.0953567351	-0.214154
C	-0.0973214327	-2.2056859099	-0.7726813963	 0.322078
C	-0.8482086725	-3.204268005	-1.6136077543	-0.493684
N	 1.2117454071	-2.5854533833	-0.154961298	-0.371039
C	 0.0477255624	-2.2721079456	 0.7081443677	-0.096115
C	 0.0552484771	-0.8510369033	 1.2551763427	-0.303909
H	 1.0064735645	 1.8300265486	 0.498821386	 0.128688
H	-0.0631369056	 1.9625708861	-0.9076911922	 0.122224
H	-0.7339144009	 1.9077680486	 0.7349636208	 0.120435
H	-0.2015159303	-0.3661862912	-2.110048804	 0.08317
H	-0.4088056109	-3.2889188888	-2.6145968265	 0.123839
H	-0.830637779	-4.1989833883	-1.155730702	 0.111674
H	-1.895844311	-2.9084082102	-1.7358046774	 0.124767
H	 1.3018946052	-3.6008261001	-0.1974741943	 0.216876
H	-0.3959443684	-3.0749568675	 1.2885111822	 0.080013
H	 0.9641731744	-0.6401360952	 1.8325880876	 0.114504
H	-0.7971160983	-0.6680832928	 1.924169017	 0.099043
148.012	181.9761	200.1581	231.8596	270.659	366.208	403.1468	439.4127	501.0936	568.8321	639.757	735.4395	804.9314	856.3578	873.1792	908.6172	930.1682	943.685	986.6169	1021.9446	1043.8663	1068.9887	1080.9452	1121.6397	1152.7597	1166.5029	1194.9634	1263.5444	1314.6236	1336.0422	1362.3046	1412.2219	1413.2204	1431.5114	1463.7397	1478.9877	1483.9407	1489.3045	1500.4582	1708.4445	3010.8463	3016.1881	3023.2717	3050.6167	3060.3713	3084.8408	3096.859	3109.3303	3156.7562	3186.1975	3455.2694
CC1=CC2(C)NC2C1	CC1=C[C@@]2(C)N[C@H]2C1	
InChI=1S/C7H11N/c1-5-3-6-7(2,4-5)8-6/h4,6,8H,3H2,1-2H3	InChI=1S/C7H11N/c1-5-3-6-7(2,4-5)8-6/h4,6,8H,3H2,1-2H3/t6-,7+/m0/s1
