18
gdb 61968	5.46227	0.56268	0.53011	2.0729	74.35	-0.2578	-0.0343	0.2235	1959.3201	0.144825	-439.107966	-439.097762	-439.096818	-439.144708	34.942	
O	-0.1064092056	 1.3485176916	-0.0198294339	-0.425198
C	-0.0537747819	-0.0753587092	-0.0233053003	 0.102561
C	 0.6312707912	-0.6135193843	-1.2852452519	-0.203762
C	-0.0580387823	-0.1020052534	-2.5651358604	-0.342451
C	 0.6401560775	-0.5153638009	-3.7787660621	 0.255804
N	 1.2086595437	-0.850213291	-4.7274694039	-0.302465
C	 0.6041518325	-0.6151880212	 1.2581574435	-0.30595
C	-0.1411465218	-0.205090454	 2.5144021498	 0.1555
O	-0.3794969668	-0.9504056415	 3.4292463384	-0.235323
H	 0.7984671683	 1.68173534	 0.0126956873	 0.28466
H	-1.1079548813	-0.3817967355	-0.0377006587	 0.107742
H	 1.684612251	-0.3047790628	-1.2881268446	 0.115519
H	 0.6255967402	-1.7082445478	-1.2709385287	 0.129454
H	-1.0899136408	-0.4693542211	-2.6119683919	 0.154645
H	-0.1162206554	 0.9905562688	-2.5362723075	 0.165191
H	 0.6865468208	-1.7058194868	 1.2427134109	 0.13055
H	 1.6256506995	-0.2083699773	 1.3241487021	 0.117552
H	-0.4610137388	 0.8585421564	 2.533304322	 0.09597
47.838	56.3542	93.0821	99.7069	134.725	196.5878	272.0088	323.6655	360.6415	394.1594	434.5885	466.4026	540.605	578.0461	768.0048	806.7223	876.1159	949.2737	960.1532	1006.1522	1045.5897	1070.796	1088.813	1130.4669	1172.8533	1198.3831	1259.1427	1288.6773	1304.4283	1353.9826	1362.7546	1393.4346	1415.5426	1423.2134	1452.3506	1470.6803	1488.4702	1833.6715	2363.5602	2911.6922	2998.1214	3025.1782	3037.7643	3050.406	3080.0898	3097.4218	3102.7685	3785.6395
OC(CCC#N)CC=O	O[C@@H](CCC#N)CC=O	
InChI=1S/C6H9NO2/c7-4-1-2-6(9)3-5-8/h5-6,9H,1-3H2	InChI=1S/C6H9NO2/c7-4-1-2-6(9)3-5-8/h5-6,9H,1-3H2/t6-/m0/s1
