19
gdb 74918	3.07216	1.67208	1.48677	1.4613	79.21	-0.2215	0.0217	0.2432	975.2598	0.162019	-385.901783	-385.894879	-385.893935	-385.932709	28.965	
C	 0.0391877473	 1.5070733331	 0.0612829151	-0.497366
C	-0.0248955902	 0.0105924188	-0.0293409517	 0.375591
C	-0.0620299167	-0.6939707417	-1.1695702487	-0.201393
C	-0.0592445057	-2.1868112322	-0.992635219	 0.011343
C	-1.2587441134	-2.5996079218	-0.0980539273	-0.234015
C	-0.7530017958	-2.1347436815	 1.2533072035	-0.122942
C	 0.7356775557	-2.1455235526	 1.1173769254	 0.100061
O	 1.0924109057	-2.5385909955	-0.173073384	-0.255611
C	 0.0098616299	-0.7939888899	 1.2134803258	-0.193253
H	 0.9503892275	 1.834378845	 0.5777116552	 0.127298
H	 0.0275787784	 1.9671794978	-0.9304502212	 0.122117
H	-0.8067231788	 1.9076737354	 0.6339374496	 0.124483
H	-0.0548891085	-0.2395539121	-2.1538443325	 0.081801
H	 0.0263902845	-2.7445367248	-1.9245010243	 0.078162
H	-2.1859353805	-2.1230696271	-0.4251259759	 0.106041
H	-1.3924827555	-3.6861084288	-0.0943161764	 0.104404
H	-1.2648194409	-2.4133863173	 2.1652895499	 0.090505
H	 1.4472106616	-2.4574419308	 1.8706191966	 0.103921
H	 0.0908257352	-0.2677388541	 2.1584628201	 0.078853
155.3729	182.2016	312.5484	364.5625	409.3894	464.5368	549.401	577.6471	642.9302	731.1151	754.5788	760.3587	810.0419	831.6969	872.3641	890.9016	928.655	949.4174	962.4635	998.7866	1016.2191	1050.1108	1065.4228	1071.0594	1082.0312	1092.7746	1137.0145	1176.4702	1192.7697	1237.117	1277.016	1299.2683	1330.3335	1348.0301	1381.747	1407.7238	1416.7455	1479.3125	1479.8192	1490.6535	1699.3818	3017.8025	3053.2522	3065.4866	3108.8708	3111.621	3123.0562	3167.355	3188.3841	3194.4321	3207.6513
CC1=CC2CC3C(O2)C13	CC1=C[C@@H]2C[C@H]3[C@@H](O2)[C@@H]13	
InChI=1S/C8H10O/c1-4-2-5-3-6-7(4)8(6)9-5/h2,5-8H,3H2,1H3	InChI=1S/C8H10O/c1-4-2-5-3-6-7(4)8(6)9-5/h2,5-8H,3H2,1H3/t5-,6-,7+,8-/m1/s1
