20
gdb 70442	3.20978	1.24645	1.145	2.3314	78.4	-0.2382	0.0731	0.3113	1171.9581	0.171153	-403.077484	-403.069032	-403.068088	-403.110537	32.454	
C	-0.1361095877	 1.5357306523	 0.0931541822	-0.498054
C	 0.0101398158	 0.0448343517	 0.0178062318	 0.257678
C	-0.8017085396	-0.9416436262	 0.8370530919	-0.360896
C	 0.6946191235	-0.9631944582	 0.9105906022	 0.062701
O	 1.2614734179	-1.6882656151	-0.1909548906	-0.312142
C	 0.7161127009	-0.7090249037	-1.1226995454	 0.050033
C	-0.0625974018	-1.334023221	-2.2544419355	-0.010842
C	 0.4957548516	-2.4992912361	-2.9808834553	-0.244692
N	-0.6767693416	-2.6603071382	-2.0982317586	-0.321349
H	 0.788407659	 2.0437614815	-0.2042541153	 0.120556
H	-0.9397912076	 1.8921127274	-0.5624170119	 0.126573
H	-0.3810385771	 1.8561366869	 1.1107662901	 0.123107
H	-1.291437603	-0.4923371059	 1.6966828984	 0.114282
H	-1.3508673865	-1.7569653084	 0.3781554734	 0.13031
H	 1.2936213065	-0.870999315	 1.8092281841	 0.106302
H	 1.5361626806	-0.0967835456	-1.5253211734	 0.085422
H	-0.6731651691	-0.6210077898	-2.8069418495	 0.092849
H	 0.29903529	-2.6266179116	-4.0414538063	 0.115238
H	 1.4475482286	-2.8958968088	-2.6374666407	 0.123626
H	-0.3395197604	-3.0502263962	-1.2197599417	 0.239298
93.8289	136.1558	150.724	193.7918	259.4691	296.2858	336.9877	426.1632	491.3361	604.3719	660.1883	734.7707	810.9555	824.5625	852.1346	885.8471	926.5399	948.7533	966.2167	995.06	1011.6168	1025.3718	1032.7473	1065.4893	1082.8179	1101.0706	1122.4386	1136.2718	1143.9348	1189.1628	1241.6475	1257.1387	1281.0949	1290.9618	1318.0007	1365.2631	1398.6196	1417.5186	1432.0599	1487.0493	1494.9197	1499.8079	1507.1546	2998.1423	3022.2796	3080.4506	3098.569	3110.2939	3117.696	3123.657	3181.4122	3198.2523	3211.3523	3488.9776
CC12CC1OC2C1CN1	C[C@]12C[C@H]1O[C@H]2[C@H]1CN1	
InChI=1S/C7H11NO/c1-7-2-5(7)9-6(7)4-3-8-4/h4-6,8H,2-3H2,1H3	InChI=1S/C7H11NO/c1-7-2-5(7)9-6(7)4-3-8-4/h4-6,8H,2-3H2,1H3/t4-,5-,6+,7+/m1/s1
