15
gdb 50310	2.26327	1.83619	1.33142	2.2448	66.02	-0.2479	-0.0503	0.1976	968.7478	0.111439	-457.767234	-457.75963	-457.758686	-457.799783	28.105	
O	 0.5279452095	-0.1592308704	-0.5265979587	-0.233427
C	 0.2387826159	 0.9738450767	-0.2527880185	 0.145778
C	 1.249167363	 2.0574860237	 0.1135104343	-0.104943
O	 2.5335589283	 1.5644519858	 0.404454494	-0.245451
C	 3.4470739864	 1.9584365991	-0.5985136469	 0.1107
C	 3.1907742954	 1.4568523091	-1.9705025139	-0.326992
C	 2.7777655783	 2.8908999244	-1.5814022731	-0.191973
C	 1.3890841487	 3.0524386682	-1.0779254013	 0.375706
O	 0.5307299647	 3.8121365136	-1.4405196755	-0.315057
H	-0.8088492191	 1.3442391564	-0.2680096684	 0.106395
H	 0.8526082433	 2.6139654469	 0.9738880594	 0.135779
H	 4.4455277794	 2.1172656563	-0.2106547276	 0.121215
H	 4.0248400031	 1.4014420552	-2.6607009241	 0.136476
H	 2.4253780846	 0.7014320583	-2.1028979762	 0.160687
H	 3.2541390785	 3.7345996066	-2.0619410535	 0.125106
84.7557	109.1997	187.9102	215.1142	284.5768	418.1852	458.1796	574.5945	604.7463	692.0535	759.1647	765.7109	811.4277	826.7889	899.2542	929.8698	959.1619	996.5262	1037.61	1051.5079	1091.7483	1102.8455	1151.5979	1179.9922	1197.8041	1221.6188	1309.1018	1329.1779	1372.0218	1410.6778	1479.0652	1824.1012	1851.9401	2906.8248	3024.3131	3146.3889	3196.1704	3212.0421	3242.25
O=CC1OC2CC2C1=O	O=C[C@H]1O[C@H]2C[C@H]2C1=O	
InChI=1S/C6H6O3/c7-2-5-6(8)3-1-4(3)9-5/h2-5H,1H2	InChI=1S/C6H6O3/c7-2-5-6(8)3-1-4(3)9-5/h2-5H,1H2/t3-,4+,5-/m1/s1
