21
gdb 92159	2.20382	1.99205	1.49017	1.3164	81.27	-0.2474	0.0766	0.3241	1003.7923	0.18405	-387.074267	-387.066308	-387.065364	-387.106056	32.63	
C	 0.0159105239	 1.4338545332	-0.0133160721	-0.504898
C	 0.0079342824	-0.0757976129	 0.0274193452	 0.391242
C	-0.3459672575	-0.7922983706	-1.2710145943	-0.087321
C	-0.0900378852	-2.2950656273	-1.1903850042	-0.237842
C	-0.7702392497	-2.287780913	 0.2194702097	-0.052748
C	 0.2733735087	-2.1159034526	 1.3276042116	-0.23649
C	 0.9788097258	-0.7770158965	 0.97447109	 0.024328
O	 2.2348704155	-0.934173556	 0.3142134892	-0.435075
C	-1.2821357431	-0.8457330706	-0.0728302328	-0.132797
H	 0.9934731452	 1.8069598949	-0.3374068954	 0.129444
H	-0.7367895442	 1.818706699	-0.7088541325	 0.113071
H	-0.1949607648	 1.8604631629	 0.9744735645	 0.110248
H	-0.4483208866	-0.2135721877	-2.1826438816	 0.075189
H	-0.6960418854	-2.8375070476	-1.9214627017	 0.091911
H	 0.9468813609	-2.6381908493	-1.2431299456	 0.100222
H	-1.5065491349	-3.0709126368	 0.4004884797	 0.062422
H	-0.2187419955	-2.0323257005	 2.3039021578	 0.09094
H	 0.9887512896	-2.9443070542	 1.3800188662	 0.086387
H	 1.1187482718	-0.1647680604	 1.8783510254	 0.05524
H	 2.8612425722	-1.2898664367	 0.9523367013	 0.279266
H	-2.2728707093	-0.4351342773	 0.0763728696	 0.077261
138.4657	208.4028	236.1429	277.7347	297.7085	313.3354	377.6312	423.8203	533.2493	568.5676	655.9315	685.1099	808.6806	831.6969	851.029	861.4926	867.1786	919.2491	926.9902	965.7072	1007.2346	1013.8029	1031.6723	1050.8172	1058.0937	1095.7918	1106.3944	1124.9219	1168.8659	1192.6524	1224.6034	1235.5423	1248.2054	1266.1555	1279.9251	1308.1946	1338.5286	1353.5837	1403.2845	1414.5907	1438.1592	1474.405	1490.9514	1492.0068	1503.702	2974.3741	3023.7845	3029.9326	3049.991	3075.521	3084.8825	3099.0274	3100.7428	3109.8326	3163.5747	3190.3155	3816.4562
CC12C3CC(CC1O)C23	C[C@@]12[C@H]3C[C@@H](C[C@H]1O)[C@@H]23	
InChI=1S/C8H12O/c1-8-5-2-4(7(5)8)3-6(8)9/h4-7,9H,2-3H2,1H3	InChI=1S/C8H12O/c1-8-5-2-4(7(5)8)3-6(8)9/h4-7,9H,2-3H2,1H3/t4-,5-,6+,7+,8+/m0/s1
