17
gdb 29285	3.9523	1.09916	0.91719	2.8547	77.79	-0.1833	0.0278	0.2111	1260.1439	0.139147	-414.199524	-414.191366	-414.190422	-414.23261	30.842	
N	 0.0391291706	 1.3757035855	-0.2046818484	-0.598968
C	-0.0258667443	-0.0138359395	-0.0803886886	 0.293774
C	-1.1253408903	-0.8262808616	 0.0652003649	-0.195777
N	-0.609598999	-2.1177668227	 0.0656609882	-0.303562
C	 0.7338279936	-2.0270812676	-0.0821901596	 0.394264
N	 1.1192373297	-0.7651430429	-0.1672334283	-0.372816
C	 1.6393275648	-3.1883924193	-0.1240428773	-0.119641
C	 2.7828832086	-3.181462358	-1.0827218911	-0.228509
N	 3.0222804844	-3.0096521581	 0.3534176316	-0.314782
H	 0.9688570016	 1.7116785434	 0.0106529296	 0.247618
H	-0.6490427976	 1.8650162158	 0.3511299315	 0.241366
H	-2.1786445824	-0.6279499156	 0.1592696026	 0.116835
H	-1.1410129904	-2.9665941394	 0.1585916853	 0.262602
H	 1.1872228398	-4.1398196488	 0.147693987	 0.082773
H	 3.1381379202	-4.1192034968	-1.5017241062	 0.115978
H	 2.8658166097	-2.313348568	-1.7297678739	 0.131738
H	 3.1428783709	-2.0156293862	 0.5462122227	 0.247107
59.3957	147.1834	157.2959	219.9679	304.943	373.4583	405.5749	448.7155	502.0203	621.9306	636.5658	667.9288	730.7884	742.4014	781.7999	828.4851	889.3929	975.2512	993.9354	1015.0428	1048.1547	1100.0479	1102.2923	1122.8022	1140.648	1192.7565	1237.8938	1280.7213	1306.9425	1318.7479	1393.2964	1429.7554	1487.4024	1510.8013	1569.9664	1621.1656	1650.0832	3109.3794	3128.7907	3204.9108	3283.8027	3479.0658	3545.8429	3641.9493	3669.1485
NC1=CNC(=N1)C1CN1	Nc1c[nH]c(n1)[C@H]1CN1	
InChI=1S/C5H8N4/c6-4-2-8-5(9-4)3-1-7-3/h2-3,7H,1,6H2,(H,8,9)	InChI=1S/C5H8N4/c6-4-2-8-5(9-4)3-1-7-3/h2-3,7H,1,6H2,(H,8,9)/t3-/m1/s1
