16
gdb 46272	3.09661	1.49845	1.24191	5.114	69.33	-0.2413	0.0256	0.2669	1011.2876	0.124368	-437.855502	-437.84789	-437.846946	-437.888014	28.529	
O	-0.0636698405	-0.0094989826	-0.0177493907	-0.35202
C	-0.035367036	 1.189905648	-0.0112630789	 0.384444
N	-1.0216749979	 2.1514914978	-0.0216006304	-0.336789
C	-0.1217454724	 3.3021819345	 0.0791553372	-0.236155
C	 1.0577811085	 2.288703986	 0.0296680264	 0.172172
C	 2.2104432366	 2.3300866753	 1.0871014058	-0.339222
C	 3.2069330007	 2.4656963656	-0.0764003952	 0.036632
O	 3.0290171468	 1.3186957436	-0.9107668402	-0.225651
C	 2.1241701542	 2.409726603	-1.0720968529	-0.046396
H	-2.0277214127	 2.0792709536	 0.0088111082	 0.251731
H	-0.1821518884	 3.9977038674	-0.7654751987	 0.113671
H	-0.2041135041	 3.860286655	 1.0179879069	 0.114442
H	 2.1517456067	 3.215875459	 1.724597156	 0.111152
H	 2.3362036307	 1.4343857881	 1.6988226077	 0.1337
H	 4.1721970143	 2.9568962175	-0.1015472132	 0.110455
H	 2.0231671335	 2.8412729283	-2.061727208	 0.107836
80.1161	113.2965	166.6139	245.1528	324.8062	435.6236	453.7447	462.7792	632.168	721.6218	776.9498	797.3646	842.887	857.9506	872.7627	906.164	954.4109	987.4043	1000.6888	1034.3012	1083.2669	1130.1153	1152.8278	1162.7467	1180.179	1185.4673	1232.3519	1255.1035	1289.0888	1302.0874	1380.3588	1393.2299	1465.945	1525.7241	1897.6765	3028.5022	3067.6769	3073.6789	3129.7201	3178.2236	3197.5189	3613.032
O=C1NCC11CC2OC12	O=C1NC[C@]21C[C@H]1O[C@@H]21	
InChI=1S/C6H7NO2/c8-5-6(2-7-5)1-3-4(6)9-3/h3-4H,1-2H2,(H,7,8)	InChI=1S/C6H7NO2/c8-5-6(2-7-5)1-3-4(6)9-3/h3-4H,1-2H2,(H,7,8)/t3-,4-,6-/m1/s1
