20
gdb 81460	2.31526	1.91258	1.62196	2.5638	77.04	-0.2187	0.0711	0.2898	960.3518	0.173515	-403.092996	-403.085662	-403.084717	-403.124347	30.143	
C	-0.0993343004	 1.6427139973	-0.0198588475	-0.452023
C	 0.0496219955	 0.1242831224	 0.0234888079	 0.034158
C	 0.9165664533	-0.6994132704	-0.9525730045	 0.056548
C	 2.354983143	-0.1713612421	-1.0983731896	-0.174437
N	 3.0857177675	-0.1072741792	 0.1846258286	-0.085906
C	 2.8404939494	 0.9778923773	 1.1344357389	-0.264748
C	 2.2579583579	-0.3713213724	 1.3714100583	-0.007797
C	 0.8237111457	-0.7430007256	 1.0613422702	 0.027054
O	 0.9271806297	-1.779732009	 0.0239697007	-0.292762
H	 0.769666052	 2.1574303144	-0.4348410456	 0.127658
H	-0.9547213256	 1.9096816133	-0.6488917626	 0.118905
H	-0.2896411431	 2.0552913134	 0.976624267	 0.126308
H	-0.9499465829	-0.3193274318	-0.0034053159	 0.095252
H	 0.499117673	-1.0092478439	-1.9154515652	 0.074171
H	 2.9057739885	-0.869026397	-1.7392597178	 0.117369
H	 2.3647051377	 0.8036640507	-1.6010134469	 0.101376
H	 3.7193912675	 1.277178451	 1.7009400663	 0.114574
H	 2.1880903497	 1.7993613499	 0.8693207646	 0.112667
H	 2.7259618907	-1.0245980737	 2.1066665342	 0.095348
H	 0.2813129509	-1.0951522647	 1.942780279	 0.076284
143.6152	189.0266	259.5868	287.4642	362.9552	414.6478	450.7079	559.2984	594.4896	614.9392	693.8941	769.9428	801.2614	861.5214	876.8728	886.1621	905.7016	947.1228	999.5711	1013.1539	1033.3039	1067.4992	1100.4803	1105.3422	1126.0746	1129.4778	1153.3713	1179.7074	1204.6264	1235.4885	1242.8909	1310.129	1320.5933	1340.1526	1353.87	1378.4318	1387.5855	1419.3907	1427.0187	1481.3947	1496.2679	1501.5661	1525.7164	3026.5908	3039.6296	3055.3517	3063.1605	3068.9267	3076.2551	3097.2769	3110.9589	3119.0966	3123.9858	3230.629
CC1C2CN3CC3C1O2	C[C@H]1[C@H]2CN3C[C@H]3[C@@H]1O2	
InChI=1S/C7H11NO/c1-4-6-3-8-2-5(8)7(4)9-6/h4-7H,2-3H2,1H3	InChI=1S/C7H11NO/c1-4-6-3-8-2-5(8)7(4)9-6/h4-7H,2-3H2,1H3/t4-,5-,6+,7+,8?/m0/s1
