18
gdb 113308	2.58618	1.04576	0.84275	3.5519	73.57	-0.2838	0.0012	0.2851	1393.0439	0.145279	-439.072862	-439.062944	-439.061999	-439.108423	34.934	
C	-0.5283887249	 1.3869206864	 0.329785469	-0.391669
C	 0.2723019021	 0.1697323658	-0.1484238472	-0.271435
C	 0.9784242935	-0.5375054467	 0.996300603	 0.226335
O	 0.164256201	-1.2866791804	 1.9095210703	-0.279428
C	 1.1315812928	-2.0068132831	 1.1315276439	-0.011342
C	 0.5945608687	-3.0295944713	 0.1586894249	-0.097579
O	 0.2516008702	-4.2246549371	 0.8358955716	-0.409349
C	 1.9975525466	 0.2747225908	 1.6537088299	 0.268713
N	 2.8116083287	 0.9337272124	 2.1423891024	-0.334485
H	 0.1215443919	 2.1286834839	 0.8033992892	 0.145656
H	-1.0313308341	 1.8675413243	-0.5134123083	 0.124296
H	-1.2885596566	 1.0867426431	 1.0566295623	 0.137906
H	-0.3911855464	-0.5418104894	-0.6443884966	 0.117729
H	 1.0281670174	 0.4739973006	-0.8817527562	 0.125015
H	 1.9808934513	-2.3617736959	 1.7165137675	 0.122647
H	-0.2570879531	-2.624421658	-0.4020787812	 0.10257
H	 1.3780715462	-3.297383622	-0.5581845181	 0.127624
H	-0.4519431252	-4.0126425233	 1.4595638239	 0.296799
54.1118	74.8457	132.7902	147.9669	166.2184	207.3558	261.4776	312.2001	375.5141	389.6708	437.8432	494.7816	583.154	654.1854	670.5113	777.0845	819.682	919.1167	952.6107	980.2377	1040.8059	1071.5568	1089.7586	1114.4802	1133.7972	1215.6213	1236.5781	1294.9945	1320.7386	1367.1266	1371.2853	1413.9918	1416.141	1466.3392	1474.9925	1489.6556	1498.519	1507.2912	2355.8487	3024.6076	3046.5196	3049.7085	3082.0052	3104.7128	3116.3924	3122.9604	3126.7337	3805.4104
CCC1(OC1CO)C#N	CC[C@]1(O[C@H]1CO)C#N	
InChI=1S/C6H9NO2/c1-2-6(4-7)5(3-8)9-6/h5,8H,2-3H2,1H3	InChI=1S/C6H9NO2/c1-2-6(4-7)5(3-8)9-6/h5,8H,2-3H2,1H3/t5-,6-/m0/s1
