21
gdb 114545	2.6117	1.45305	1.13468	2.8527	77.84	-0.2423	0.0755	0.3178	1151.4796	0.18342	-424.20666	-424.19827	-424.197326	-424.23935	33.407	
C	 0.0416317861	 1.5395364049	 0.0632165982	-0.5061
C	 0.021878028	 0.029280559	 0.0647036936	 0.271524
C	 0.756153302	-0.83936626	-1.0174583895	-0.270946
C	 0.5206263235	-1.9346335756	 0.0464964106	 0.107608
C	 0.790520547	-0.8514265862	 1.1130484615	-0.278001
O	-0.9129155364	-2.0737348988	 0.0616714176	-0.312035
C	-1.3464576398	-0.6854122428	 0.04197261	 0.093395
C	-2.3125075505	-0.4524144654	 1.1977126025	-0.087045
O	-3.3547001434	-1.4087074764	 1.1708506137	-0.42289
H	 1.0670982471	 1.9202461739	 0.0239145074	 0.119352
H	-0.4964812326	 1.9393517825	-0.8040634229	 0.122039
H	-0.4301316001	 1.9480050284	 0.9637426348	 0.125246
H	 0.2743706207	-0.9730906242	-1.9894818508	 0.100125
H	 1.8058467253	-0.5624432313	-1.1344760075	 0.09925
H	 0.9850463866	-2.9190409812	 0.0341393747	 0.08075
H	 1.8431046395	-0.5702596002	 1.1852827263	 0.100223
H	 0.3630925114	-1.0013391726	 2.1061567221	 0.100795
H	-1.879929702	-0.4995214302	-0.900461653	 0.077775
H	-1.776219181	-0.4731044433	 2.158978271	 0.082658
H	-2.7810611223	 0.5333236729	 1.0995840245	 0.104134
H	-2.916864199	-2.2636928534	 1.0743428452	 0.292144
97.3832	168.8177	197.2803	221.5426	271.1842	313.3681	415.6632	472.4525	488.9628	512.1304	550.864	598.1415	680.829	809.3342	835.3331	858.8848	878.2167	932.8865	950.4451	963.9238	987.984	1018.3169	1035.5462	1057.1205	1072.9284	1107.0048	1122.0045	1137.8995	1190.6874	1224.8334	1226.6304	1238.2316	1258.9352	1265.9723	1310.3243	1333.85	1361.3758	1403.1464	1415.8899	1443.7238	1474.4003	1492.2355	1494.8993	1503.5733	1516.8614	2983.3234	3010.863	3026.8678	3062.2522	3066.7358	3073.6382	3090.3364	3099.4004	3128.4775	3135.4641	3140.6158	3782.2015
CC12CC(C1)OC2CO	C[C@@]12C[C@@H](C1)O[C@H]2CO	
InChI=1S/C7H12O2/c1-7-2-5(3-7)9-6(7)4-8/h5-6,8H,2-4H2,1H3	InChI=1S/C7H12O2/c1-7-2-5(3-7)9-6(7)4-8/h5-6,8H,2-4H2,1H3/t5-,6-,7+/m0/s1
