20
gdb 93152	2.18511	1.72158	1.21527	2.6091	81.25	-0.2554	-0.0029	0.2525	1102.7446	0.172014	-403.158412	-403.149637	-403.148693	-403.192335	33.055	
C	-0.1755450406	 1.5325385155	 0.1358489591	-0.39721
C	 0.0104409544	 0.0109063073	-0.0025623474	-0.016262
C	 0.6891560564	-0.374973979	-1.3416844811	-0.292854
C	 2.0269810104	 0.2722743569	-1.5990008566	-0.044301
C	 3.0630657928	 0.2071537143	-0.7645616351	-0.06226
C	 3.036549532	-0.539309237	 0.5439765133	-0.140648
O	 2.0031030151	-0.1465833929	 1.4658166097	-0.259728
C	 0.7087358368	-0.5469163769	 1.2215454876	 0.344859
N	 0.0733120617	-1.256085508	 2.0566004016	-0.476999
H	 0.7871844212	 2.0455687702	 0.1931615838	 0.131983
H	-0.724904125	 1.9269358233	-0.7255315783	 0.109768
H	-0.744180011	 1.7687666692	 1.0394693001	 0.12854
H	-0.9746698818	-0.4630564051	 0.0052486054	 0.10353
H	 0.7953243731	-1.4688376215	-1.3759929291	 0.119523
H	-0.0025934287	-0.1143996261	-2.1488678365	 0.107165
H	 2.135168854	 0.8324644531	-2.5243706395	 0.096528
H	 3.9962014583	 0.7007523596	-1.0219494261	 0.095527
H	 2.9544378808	-1.6232340648	 0.3701409171	 0.114594
H	 3.9637637252	-0.3689915615	 1.0951123848	 0.121767
H	 0.6922358952	-1.5021903165	 2.8335256673	 0.216478
35.1712	131.5019	170.9197	214.6327	239.5435	295.5136	325.9817	376.1712	447.9566	512.0811	626.8485	674.9126	725.8194	752.4465	785.5047	866.7576	890.8617	926.301	950.9453	986.0934	992.0262	1000.5163	1047.9332	1062.6773	1090.1855	1114.1857	1158.4181	1233.999	1254.6851	1290.2049	1297.6089	1324.8692	1352.5384	1377.6802	1405.2646	1411.2926	1424.0721	1479.6604	1492.5534	1495.0506	1505.2513	1722.3312	1734.6686	2987.706	3007.3647	3041.2664	3070.6339	3078.962	3102.4499	3109.7681	3131.9522	3149.9304	3174.0809	3447.8521
CC1CC=CCOC1=N	C[C@H]1CC=CCO[C]1[NH]	
InChI=1S/C7H11NO/c1-6-4-2-3-5-9-7(6)8/h2-3,6,8H,4-5H2,1H3	InChI=1S/C7H11NO/c1-6-4-2-3-5-9-7(6)8/h2-3,6,8H,4-5H2,1H3/t6-/m0/s1
