17
gdb 30027	3.23909	1.71594	1.1959	3.9858	81.35	-0.2023	-0.0224	0.1799	1016.1624	0.13923	-380.92392	-380.916873	-380.915929	-380.955291	27.873	
C	-0.0726553498	 1.575592768	 0.0276825062	-0.389879
C	-0.0045955943	 0.0445793984	 0.0110732413	-0.053974
C	 0.8052086625	-0.5277634323	-1.1448374602	-0.099529
C	 1.834955144	-1.2647523938	-0.6953387824	-0.193774
C	 1.7996289078	-1.2613368664	 0.7579756725	 0.369881
N	 2.4722119915	-1.7521054793	 1.7777789336	-0.363219
C	 1.7929102122	-1.281640687	 2.8806489881	-0.096501
C	 0.7096397831	-0.5074592991	 2.5197511478	-0.159166
N	 0.7273031733	-0.5042270661	 1.147685332	 0.009236
H	 0.933677766	 2.0019224434	 0.040864624	 0.139185
H	-0.595950271	 1.938999634	-0.8615108155	 0.12682
H	-0.61461429	 1.9298386873	 0.9096493002	 0.126951
H	-1.0244144025	-0.3637173319	-0.0034443499	 0.114461
H	 0.5451116904	-0.3264991658	-2.174735899	 0.112491
H	 2.5769298891	-1.7836591657	-1.2844824517	 0.125954
H	 2.115968767	-1.524967705	 3.8819459729	 0.105146
H	-0.0352322594	 0.0096218012	 3.1011431903	 0.125918
121.891	164.5201	246.5958	297.6642	366.5578	484.0496	542.7491	631.2871	673.0401	695.8762	723.3419	729.9076	792.5831	810.747	843.519	904.7474	946.1454	948.6154	1015.414	1067.5227	1078.3268	1106.249	1117.1529	1159.685	1194.0221	1262.9876	1293.0343	1326.5264	1346.1379	1390.9498	1407.905	1435.7749	1491.7439	1493.3931	1496.4764	1572.7012	1622.8614	3017.5185	3043.3334	3115.7428	3129.5688	3229.1771	3244.0246	3254.0713	3278.9171
CC1C=CC2=NC=CN12	C[C@H]1C=Cc2nccn12	
InChI=1S/C7H8N2/c1-6-2-3-7-8-4-5-9(6)7/h2-6H,1H3	InChI=1S/C7H8N2/c1-6-2-3-7-8-4-5-9(6)7/h2-6H,1H3/t6-/m0/s1
