17
gdb 25726	2.59706	1.53539	0.98605	4.076	79.49	-0.2161	-0.0149	0.2012	1163.1377	0.137595	-418.088916	-418.080297	-418.079353	-418.122424	32.201	
C	-0.2434896196	 1.5344537136	 0.0766707234	-0.518806
C	-0.1032511542	 0.0431130139	 0.0183004917	 0.21439
C	 0.0620599998	-0.7356658511	-1.1207762479	 0.147601
N	 0.1053997534	-2.0627505889	-0.7195907858	-0.325421
C	 0.004656817	-2.1330657725	 0.6379384783	-0.076512
C	-0.1467938203	-0.8515349533	 1.1211315757	-0.22376
C	 0.1445572615	-0.3508803107	-2.5331374167	 0.293715
N	-0.0642379821	-1.3964772892	-3.434478403	-0.554655
O	 0.4158353369	 0.7730266458	-2.9193452458	-0.3578
H	-0.1332859453	 1.9703451739	-0.915986484	 0.164515
H	-1.2169675802	 1.8254814969	 0.4885924847	 0.120375
H	 0.5214261347	 1.9706379848	 0.7293867968	 0.125116
H	 0.3918168805	-2.8177130376	-1.3192878445	 0.263394
H	 0.0562642859	-3.0800295437	 1.1519613293	 0.125593
H	-0.2766508698	-0.5787950523	 2.1578014929	 0.098633
H	-0.7699443501	-2.0766122833	-3.1907349205	 0.248003
H	-0.1240325581	-1.0738371165	-4.3907550948	 0.255619
75.1664	91.5874	163.2129	192.0353	270.2101	312.6049	419.661	426.2417	503.6608	544.8513	582.6351	648.3934	654.182	687.1738	690.5039	747.7875	800.1694	841.9706	914.3034	996.6705	1054.5036	1066.8357	1089.032	1119.8548	1168.4904	1226.8551	1289.8391	1344.2243	1410.6089	1447.5998	1466.2429	1489.2926	1500.0078	1503.1047	1603.6382	1621.9183	1770.4465	3029.59	3075.6768	3156.7521	3241.4517	3264.9133	3553.1861	3667.2148	3672.9234
CC1=C(NC=C1)C(N)=O	Cc1c([nH]cc1)C(=O)N	
InChI=1S/C6H8N2O/c1-4-2-3-8-5(4)6(7)9/h2-3,8H,1H3,(H2,7,9)	InChI=1S/C6H8N2O/c1-4-2-3-8-5(4)6(7)9/h2-3,8H,1H3,(H2,7,9)
