15
gdb 32157	4.07806	1.2368	0.95473	0.8267	71.44	-0.2498	-0.0208	0.229	1174.787	0.114901	-450.202064	-450.193878	-450.192934	-450.235038	29.193	
C	-0.0173379337	 1.3791321162	 0.0057278771	-0.228744
O	 0.0256438364	-0.049915393	 0.0467140526	-0.239457
C	 0.6418713527	-0.6176627132	 1.0814313756	 0.467148
N	 1.1858314005	 0.1634166206	 2.0224603707	-0.362228
C	 1.7751959565	-0.5243541511	 3.0030648106	 0.069868
N	 1.8600919487	-1.8392707213	 3.1175769687	-0.319885
C	 1.2663282818	-2.5064754429	 2.1009556414	 0.455432
N	 1.2969870223	-3.8539446737	 2.1565435046	-0.553229
N	 0.6455073223	-1.9460259756	 1.0561365569	-0.364356
H	 0.9900688266	 1.8014255286	-0.023582933	 0.139476
H	-0.5587599195	 1.622418686	-0.9091051518	 0.132463
H	-0.5404946628	 1.781148399	 0.8767806715	 0.139712
H	 2.2367366162	 0.0643232398	 3.7941279215	 0.121726
H	 1.8276575037	-4.2990246248	 2.8834797378	 0.270823
H	 0.9402404182	-4.3845391547	 1.3820187659	 0.271251
108.3831	132.25	154.5229	195.8869	233.7163	240.2643	378.9641	471.208	516.6723	576.0134	594.7495	644.4033	772.7205	833.8649	851.2766	967.3666	998.3853	1025.3185	1039.0878	1157.6649	1179.2545	1198.341	1280.6098	1341.2702	1371.7705	1431.3432	1481.9525	1494.0101	1497.8485	1529.6066	1578.5158	1624.6469	1653.4722	3050.7241	3126.5748	3151.0502	3152.9408	3629.5675	3769.3624
COC1=NC=NC(N)=N1	COc1ncnc(N)n1	
InChI=1S/C4H6N4O/c1-9-4-7-2-6-3(5)8-4/h2H,1H3,(H2,5,6,7,8)	InChI=1S/C4H6N4O/c1-9-4-7-2-6-3(5)8-4/h2H,1H3,(H2,5,6,7,8)
