12
gdb 25220	2.61382	1.80953	1.1532	3.6235	66.55	-0.272	-0.1009	0.1711	971.1476	0.077463	-472.659246	-472.651989	-472.651045	-472.691847	25.78	
O	 0.1185441655	-0.1298282768	 0.0421845027	-0.250223
C	 0.0553435178	 1.0478537039	-0.0874312639	 0.340569
O	-1.2009729716	 1.6040830622	-0.3559378391	-0.203886
C	-1.5160001887	 2.8480099351	-0.7781213217	 0.15589
N	-0.8258016668	 3.7457479849	-1.3473680214	-0.263438
C	 0.5354807329	 3.7234438073	-1.5612065433	 0.017247
C	 1.4889899464	 3.0333565721	-0.8998099101	-0.188502
C	 1.2833769055	 1.9732255942	 0.0835360717	 0.240523
O	 2.0908278776	 1.6644553434	 0.9289218721	-0.285042
H	-2.5758826427	 3.0166445885	-0.6047970804	 0.159456
H	 0.8533150809	 4.4547655143	-2.3000959188	 0.138002
H	 2.5315168932	 3.270138011	-1.0876900779	 0.139404
55.7221	92.3823	257.2239	296.5731	336.3548	388.814	452.1031	557.8618	607.0088	640.5679	780.496	796.3197	853.2197	873.7356	943.9778	965.1018	1009.1913	1020.3853	1155.3917	1226.8515	1293.2154	1429.709	1447.9867	1629.8701	1696.4093	1777.4826	1882.6718	3163.5685	3180.3611	3191.7889
O=C1OC=NC=CC1=O	O=c1ocnccc1=O	
InChI=1S/C5H3NO3/c7-4-1-2-6-3-9-5(4)8/h1-3H	InChI=1S/C5H3NO3/c7-4-1-2-6-3-9-5(4)8/h1-3H
