18
gdb 64881	3.03612	1.01141	0.87927	3.9426	73.59	-0.2425	-0.0331	0.2094	1337.1053	0.144687	-439.079906	-439.070453	-439.069509	-439.115176	33.552	
C	-0.198897708	 1.725631845	 0.0627464445	-0.47075
C	 0.0228182733	 0.21495546	 0.0665064389	 0.261001
C	 0.8879626825	-0.3507956344	-1.0873472229	-0.31875
C	 2.0108910269	-0.5585403776	-0.0249150671	-0.042026
N	 1.025903035	-0.2873456825	 1.0498862289	-0.379085
C	 2.6003021114	-1.9518686592	 0.03066374	 0.166095
O	 3.7162026011	-2.2325466635	-0.3213097079	-0.246163
C	-1.2957984923	-0.5058792807	 0.30177459	 0.140481
O	-1.8821879513	-1.1581050762	-0.5210839599	-0.248527
H	 0.7533787239	 2.2532310892	-0.0541348043	 0.128882
H	-0.8585752515	 2.0213293664	-0.7597402182	 0.141767
H	-0.659691772	 2.0566883199	 1.0010059902	 0.126899
H	 0.4774150899	-1.2720300772	-1.5046185825	 0.138404
H	 1.1315258838	 0.3367981403	-1.8966885236	 0.122664
H	 2.8253967849	 0.1682229218	-0.1144663286	 0.091434
H	 1.3252204526	 0.3792571266	 1.7535713305	 0.224955
H	 1.8867090456	-2.715378472	 0.4162823102	 0.084371
H	-1.6770667859	-0.3954184058	 1.3437161318	 0.078347
45.2222	72.2025	87.4413	216.2932	246.4161	255.8327	283.7212	304.6743	368.3078	403.688	441.1008	582.3802	660.5606	757.1704	833.2384	886.0852	912.1102	933.6896	958.8455	983.6225	1010.016	1043.0484	1070.9904	1140.3345	1179.6497	1194.8244	1229.9643	1273.2467	1288.6062	1314.1734	1376.1112	1398.9399	1408.7907	1417.8211	1485.442	1491.3899	1493.2707	1833.9097	1836.451	2865.9189	2881.9509	3024.7173	3051.1528	3089.4712	3094.3434	3106.2098	3149.6071	3527.1774
CC1(CC(N1)C=O)C=O	C[C@]1(C[C@@H](N1)C=O)C=O	
InChI=1S/C6H9NO2/c1-6(4-9)2-5(3-8)7-6/h3-5,7H,2H2,1H3	InChI=1S/C6H9NO2/c1-6(4-9)2-5(3-8)7-6/h3-5,7H,2H2,1H3/t5-,6+/m1/s1
