19
gdb 99907	2.31616	1.3304	1.06298	4.2316	75.72	-0.253	0.0267	0.2797	1212.7207	0.157632	-419.17997	-419.170112	-419.169168	-419.214793	35.558	
C	-0.1466361565	 1.5584645189	 0.0052808152	-0.337815
N	-0.0263305782	 0.099084258	-0.00375105	-0.29843
C	 0.7416076759	-0.4936134261	 1.0958942506	 0.0793
C	 2.2078035222	-0.0333552256	 1.0618987274	-0.433492
C	 0.1551076875	-0.1309832308	 2.4198714757	 0.265624
N	-0.3554993856	 0.1817560605	 3.4093261947	-0.345895
C	 0.6057692722	-2.0164373828	 0.9509236258	 0.078435
C	 1.5597406676	-2.8474458532	 0.2138341473	-0.184901
O	 1.5311459736	-2.8354429564	 1.6473098063	-0.228798
H	 0.8237329962	 2.0164349561	-0.2043932161	 0.132729
H	-0.8279646047	 1.8504165127	-0.797660829	 0.129142
H	-0.5274419963	 1.9701174158	 0.9526653762	 0.129251
H	-0.957815246	-0.3055356424	-0.0047229164	 0.228523
H	 2.3039260858	 0.9983312228	 1.4039614191	 0.138824
H	 2.8059628091	-0.6710585615	 1.7154624698	 0.156659
H	 2.5812675609	-0.0972660208	 0.0373152327	 0.132751
H	-0.4289663369	-2.3595617863	 1.0152045008	 0.10675
H	 1.2118642322	-3.7681776785	-0.2506619076	 0.126029
H	 2.4418979309	-2.4016729804	-0.2372521924	 0.125313
61.9573	104.1064	146.4712	156.5785	213.6911	224.2681	269.78	290.6011	329.8735	393.4319	431.1001	466.6765	570.5862	628.9965	683.451	775.1503	862.1995	884.2525	903.004	950.3747	1009.3036	1075.5494	1100.3046	1121.9615	1150.5113	1162.1172	1169.7419	1175.6284	1194.0599	1258.6882	1314.651	1394.1457	1430.4397	1459.2728	1486.6413	1498.4907	1499.9828	1502.5371	1524.5948	1531.763	2337.6654	2990.7182	3060.0029	3086.7496	3088.2753	3103.7135	3122.4391	3140.7467	3149.3713	3194.2384	3511.6856
CNC(C)(C#N)C1CO1	CN[C@@](C)(C#N)[C@H]1CO1	
InChI=1S/C6H10N2O/c1-6(4-7,8-2)5-3-9-5/h5,8H,3H2,1-2H3	InChI=1S/C6H10N2O/c1-6(4-7,8-2)5-3-9-5/h5,8H,3H2,1-2H3/t5-,6+/m1/s1
