17
gdb 51261	4.76909	0.91103	0.83554	1.9317	74.86	-0.2442	-0.0376	0.2066	1345.7427	0.134981	-421.822097	-421.813976	-421.813032	-421.85643	29.631	
O	 0.2458502137	-0.1697724873	-0.3283292886	-0.231217
C	 0.1141831017	 1.0120689665	-0.1515514406	 0.158837
C	 1.261921892	 2.0071012708	-0.0243565804	-0.372795
C	 1.2357871044	 2.9864021892	-1.1637048298	 0.292496
C	 0.9200690736	 4.2866120237	-1.1049395884	-0.204945
C	 1.0850934061	 4.9288180113	-2.4416504438	 0.014668
O	 2.443762621	 4.8642197044	-2.9372716892	-0.256381
C	 1.516868547	 3.8671186904	-3.3678886315	 0.039806
C	 1.5915234022	 2.5633560818	-2.5833650732	-0.330333
H	-0.8946198504	 1.4804798205	-0.0862514053	 0.081708
H	 1.1420475737	 2.540120612	 0.9269070306	 0.1237
H	 2.1984869583	 1.4406496974	 0.000713529	 0.129736
H	 0.6345224203	 4.8259816881	-0.2097176529	 0.10201
H	 0.5276099955	 5.8113992432	-2.7390123724	 0.09973
H	 1.2883649541	 3.8665102827	-4.4300559094	 0.099615
H	 2.5904046151	 2.1135696971	-2.6360400432	 0.131624
H	 0.8883146117	 1.8173061983	-2.9756698107	 0.121742
34.1994	50.3751	135.1346	235.8573	307.3068	361.6625	461.1086	502.792	517.9842	636.0161	719.3855	813.1958	825.692	848.4037	871.8197	885.6019	926.4289	958.0156	1003.1324	1011.2807	1036.3031	1060.8259	1109.9605	1160.5797	1192.0076	1201.8504	1256.2208	1280.7946	1295.5495	1312.0046	1356.6894	1409.9914	1418.528	1457.8004	1458.9694	1684.6211	1835.4608	2871.8021	3028.5519	3032.2349	3065.544	3094.1028	3150.6232	3167.9982	3205.2091
O=CCC1=CC2OC2C1	O=CCC1=C[C@H]2O[C@H]2C1	
InChI=1S/C7H8O2/c8-2-1-5-3-6-7(4-5)9-6/h2-3,6-7H,1,4H2	InChI=1S/C7H8O2/c8-2-1-5-3-6-7(4-5)9-6/h2-3,6-7H,1,4H2/t6-,7+/m1/s1
