19
gdb 59321	2.72468	1.235	0.93757	3.8623	73.33	-0.2425	0.0194	0.2619	1266.2215	0.158389	-456.332903	-456.323214	-456.32227	-456.367489	35.601	
C	-0.1545775636	 1.4926990478	-0.1681367775	-0.415221
C	-0.0848379213	-0.0261163672	-0.0571383034	 0.114359
O	 0.8583664701	-0.4651192226	 0.9204061266	-0.429961
C	-1.4352195482	-0.6520232357	 0.2617021566	 0.086824
O	-2.430648043	-0.419109781	-0.7884315052	-0.271507
C	-2.5350949034	-1.7719360183	-1.0613975777	 0.422283
N	-3.1805126922	-2.3733326964	-1.950312419	-0.531815
C	-1.5880556648	-2.1963564853	 0.050260885	-0.116413
N	-0.4923775385	-3.0546812374	-0.3309235444	-0.511117
H	 0.8286573508	 1.9036300098	-0.4121256052	 0.128681
H	-0.8658376627	 1.7859180569	-0.9451704138	 0.143655
H	-0.4905559229	 1.9370358336	 0.7775643511	 0.109066
H	 0.2766125241	-0.4425356954	-1.0042074882	 0.087112
H	 0.6836434091	 0.0160722504	 1.7371311424	 0.284019
H	-1.8141101572	-0.2792634943	 1.2216247932	 0.074924
H	-3.6995739062	-1.7195617689	-2.5396259089	 0.228223
H	-2.1266102357	-2.6517390985	 0.8881825716	 0.114225
H	-0.1192966924	-2.7918715198	-1.2368346811	 0.237133
H	 0.2622192481	-2.9723628677	 0.3436431878	 0.245528
72.0173	89.1906	142.3164	213.9149	226.8708	242.9182	276.6582	301.3371	342.4038	390.7476	429.5009	480.8202	585.6554	654.9883	757.318	808.793	857.5376	875.0756	898.0489	916.832	965.4112	998.4922	1020.9669	1065.3434	1104.1703	1138.6904	1177.7398	1210.1068	1233.8384	1243.4797	1280.2661	1315.7531	1334.1206	1401.2549	1403.5609	1411.9883	1419.6858	1492.1612	1495.1799	1662.9575	1826.2248	3025.2114	3028.5197	3052.4479	3057.2077	3101.793	3129.1319	3472.0832	3505.8477	3589.368	3798.6184
CC(O)C1OC(=N)C1N	C[C@@H](O)[C@H]1O[C]([NH])[C@H]1N	
InChI=1S/C5H10N2O2/c1-2(8)4-3(6)5(7)9-4/h2-4,7-8H,6H2,1H3	InChI=1S/C5H10N2O2/c1-2(8)4-3(6)5(7)9-4/h2-4,7-8H,6H2,1H3/t2-,3+,4-/m1/s1
