19
gdb 83461	2.88037	1.11978	0.97489	3.1424	76.33	-0.2374	-0.023	0.2144	1274.9972	0.157122	-422.993539	-422.984424	-422.98348	-423.028426	32.956	
C	 0.0355878583	 1.595604606	 0.0317069252	-0.424288
C	 0.0754902826	 0.0840773787	 0.0249751711	-0.059692
C	 1.3090136276	-0.7554947	-0.2841416752	-0.219232
C	 2.5326527594	-0.1447405552	 0.3865026796	-0.09617
O	 1.8452874414	-0.0684863451	 1.6656617918	-0.323272
C	 0.7051152223	-0.7453629669	 1.1078901392	 0.43583
C	 0.036118442	-1.7723904405	 1.976435968	-0.384351
C	-0.6741514946	-1.1304905322	 3.1571284914	 0.159745
O	-1.8095732424	-1.3701184838	 3.4770586181	-0.238805
H	 0.8653826411	 2.0064510257	 0.6114763662	 0.136349
H	 0.0857835116	 2.0008883569	-0.9843196708	 0.117948
H	-0.8931132481	 1.9524256274	 0.4889053588	 0.124165
H	-0.817776955	-0.3924019199	-0.3762428851	 0.094965
H	 1.3232916399	-1.5294722907	-1.0402421996	 0.100405
H	 3.3832380681	-0.8318227929	 0.453249694	 0.113175
H	 2.8777870655	 0.8358094901	 0.0393996757	 0.108751
H	-0.6916048459	-2.3559642234	 1.4065108859	 0.12674
H	 0.7998396314	-2.4550466219	 2.3753866587	 0.129357
H	-0.0537080052	-0.4037193522	 3.7256762368	 0.098381
45.9412	60.3594	130.9954	180.8337	250.4109	258.612	269.0882	349.2761	439.7893	489.1121	571.7965	688.0182	748.493	780.7835	815.8829	907.6748	936.3559	950.2976	973.3742	983.3991	1008.5325	1050.1801	1077.4932	1099.0637	1125.5785	1143.9372	1157.8797	1179.5578	1232.1185	1255.5912	1306.0919	1331.1411	1344.383	1412.6473	1425.9691	1442.0547	1472.3963	1493.776	1507.9962	1521.716	1833.303	2898.5413	3016.4431	3029.336	3039.0115	3076.5805	3097.3903	3107.6145	3119.9587	3134.6383	3197.1417
CC1C2COC12CC=O	C[C@H]1[C@H]2CO[C@@]12CC=O	
InChI=1S/C7H10O2/c1-5-6-4-9-7(5,6)2-3-8/h3,5-6H,2,4H2,1H3	InChI=1S/C7H10O2/c1-5-6-4-9-7(5,6)2-3-8/h3,5-6H,2,4H2,1H3/t5-,6+,7-/m0/s1
