19
gdb 92415	2.2344	1.54275	1.22058	3.1007	75.98	-0.2513	-0.0358	0.2155	1108.707	0.158226	-423.002109	-422.993536	-422.992591	-423.035722	31.9	
C	-0.6094051513	 1.369097578	-0.0397757226	-0.416191
C	 0.0472025806	-0.0030640355	-0.0781746612	-0.049526
C	 1.3791760288	-0.1838616569	-0.8739040012	-0.259161
C	 2.0265393949	-0.8454888933	 0.3638952182	 0.078739
O	 2.7946139286	 0.0568678341	 1.1642072301	-0.281856
C	 1.653272542	 0.3742641499	 2.0008692975	-0.143764
C	 0.7240870846	-0.564207675	 1.2131203156	 0.186097
C	 0.0141815139	-1.6337414621	 1.9748013839	 0.066201
O	 0.1288826054	-1.8326437232	 3.159630059	-0.254073
H	 0.0978156242	 2.1485660298	 0.260803282	 0.125837
H	-0.9900517642	 1.6376407384	-1.0309277325	 0.124039
H	-1.4526416067	 1.3904993725	 0.6591865012	 0.122111
H	-0.6870115996	-0.7430452585	-0.4193866055	 0.079871
H	 1.301637167	-0.8186575027	-1.7598653022	 0.106316
H	 1.8863263702	 0.7455702052	-1.1444989338	 0.116441
H	 2.4967350715	-1.8266881938	 0.2577124506	 0.089262
H	 1.8063421488	 0.0441336651	 3.0327893171	 0.13273
H	 1.4103497062	 1.4421132579	 1.9857473534	 0.105167
H	-0.6453455447	-2.2809637598	 1.3498877707	 0.07176
68.2428	80.1448	208.5339	223.1509	229.0856	277.5568	332.2524	402.3052	458.6992	519.4433	613.4932	723.6826	763.4755	844.7513	848.8533	887.9538	935.9355	950.5637	995.8793	1026.2078	1034.0787	1078.0883	1115.9149	1117.9573	1142.4979	1173.1872	1185.0251	1217.095	1244.0359	1264.0439	1291.7172	1331.1755	1343.9283	1381.9675	1413.4555	1428.7275	1471.4132	1492.7616	1499.38	1523.9498	1809.9426	2853.2116	3025.35	3031.1706	3038.2378	3061.747	3076.1899	3092.5366	3098.3346	3104.4741	3121.5459
CC1CC2OCC12C=O	C[C@H]1C[C@H]2OC[C@@]12C=O	
InChI=1S/C7H10O2/c1-5-2-6-7(5,3-8)4-9-6/h3,5-6H,2,4H2,1H3	InChI=1S/C7H10O2/c1-5-2-6-7(5,3-8)4-9-6/h3,5-6H,2,4H2,1H3/t5-,6+,7-/m0/s1
