23
gdb 60062	2.86771	1.06201	0.90934	2.179	82.09	-0.2443	0.0669	0.3113	1405.8599	0.202688	-425.406169	-425.395714	-425.39477	-425.442011	38.412	
C	-0.0236631965	 1.6167726828	-0.2329246028	-0.38058
C	 0.0031940529	 0.1054359894	 0.0025476488	 0.125252
C	 0.7761524708	-0.627067587	-1.0931451381	-0.382866
O	 0.6455632428	-0.1834012578	 1.2515161379	-0.31022
C	-0.1675399212	-0.634573175	 2.3085843608	 0.355566
C	-1.136590339	 0.4217516613	 2.8304614655	-0.4485
C	-0.790354599	-2.0539538696	 2.1592995613	-0.118434
O	-0.1176523406	-2.5058433765	 3.3506869155	-0.275632
C	 0.6835260187	-1.3073066818	 3.4063043605	-0.113594
H	 0.9971295933	 2.0120338002	-0.227771497	 0.124347
H	-0.4782965616	 1.8505959794	-1.2012712742	 0.111378
H	-0.5908928314	 2.1327764244	 0.5455204883	 0.1163
H	-1.0279225518	-0.2764473332	 0.0256345494	 0.074284
H	 1.8190784948	-0.2946440699	-1.1009988742	 0.12537
H	 0.766032373	-1.7067604302	-0.9216456937	 0.119042
H	 0.342297477	-0.4266586492	-2.0779240988	 0.110981
H	-1.8789531868	 0.6972248704	 2.074583117	 0.118206
H	-1.6758828529	 0.0389467405	 3.7023130434	 0.126893
H	-0.5914621364	 1.3233914777	 3.1263888238	 0.124102
H	-1.8798652285	-2.140277716	 2.245618472	 0.097429
H	-0.4476195168	-2.5886921682	 1.2637866204	 0.096938
H	 1.7173722916	-1.4796107802	 3.0837927609	 0.105353
H	 0.6725596878	-0.8485534217	 4.4014889932	 0.098384
53.2459	66.3091	95.7586	172.4456	205.2174	245.8642	272.6587	303.8666	310.9952	339.1368	395.4814	449.1595	465.0349	489.0705	682.6811	830.6523	833.2464	901.076	913.7313	924.923	926.4975	937.4395	984.3883	1009.1383	1032.2111	1040.1909	1139.817	1145.6613	1155.575	1166.3174	1183.6221	1210.4534	1242.1235	1270.3244	1303.6752	1354.7173	1375.7835	1390.8143	1397.821	1406.2903	1415.7405	1478.4297	1483.0513	1489.6497	1490.6315	1496.4157	1503.8239	1507.4761	1526.8689	2994.6037	3006.7453	3022.9571	3034.6152	3036.515	3041.7819	3060.5093	3074.0498	3105.3763	3105.9467	3113.5982	3114.7283	3118.5737	3124.1627
CC(C)OC1(C)COC1	CC(C)OC1(C)COC1	
InChI=1S/C7H14O2/c1-6(2)9-7(3)4-8-5-7/h6H,4-5H2,1-3H3	InChI=1S/C7H14O2/c1-6(2)9-7(3)4-8-5-7/h6H,4-5H2,1-3H3
