18
gdb 81295	2.29925	1.7386	1.59142	5.0852	71.	-0.2403	0.0095	0.2498	964.5408	0.150048	-439.095771	-439.08826	-439.087316	-439.127583	29.392	
C	-0.1574642532	 1.6225206419	 0.0013050841	-0.441176
C	 0.0422498095	 0.1140853066	-0.0183265107	 0.029158
C	 0.8222477123	-0.6194649745	-1.1455703338	-0.054084
C	 2.0934643778	 0.1255486777	-1.5155639747	-0.05211
O	 2.8301873915	 0.5465766311	-0.3479872001	-0.242012
C	 2.3863861218	 0.1873298644	 0.885238408	 0.479818
O	 2.9846530186	 0.5250879232	 1.8670115575	-0.339041
C	 1.091356979	-0.6080638239	 0.8787564882	-0.177825
N	 1.2567866166	-1.6805584936	-0.1695780882	-0.326926
H	 0.7842605849	 2.167433673	-0.106940989	 0.142949
H	-0.8240136637	 1.933571133	-0.8104418528	 0.120725
H	-0.6174044516	 1.9379187391	 0.9434660095	 0.130677
H	-0.9180427694	-0.3956111339	 0.1200401808	 0.081791
H	 0.2976086875	-0.960429041	-2.042022416	 0.080387
H	 2.7530937614	-0.5262968382	-2.0963044324	 0.130184
H	 1.8780616311	 1.0269693504	-2.0990128431	 0.117353
H	 0.8460627274	-0.9269867349	 1.89099789	 0.095386
H	 0.4843580285	-2.3351429702	-0.0511633573	 0.224745
119.939	190.8906	202.2003	245.3934	310.4826	417.7854	450.2731	503.0134	543.5699	624.1452	748.9822	759.8644	807.8986	847.8129	875.1382	895.7496	965.527	982.3154	1024.0951	1037.1268	1052.3014	1076.3234	1134.9641	1153.0243	1167.8518	1174.0765	1249.2081	1251.4758	1261.1046	1312.2966	1348.1049	1386.2097	1407.2916	1422.352	1429.357	1497.3803	1499.0535	1509.428	1864.626	3036.6643	3041.4939	3046.7684	3081.7471	3095.0101	3099.7196	3119.778	3130.0174	3463.8029
CC1C2COC(=O)C1N2	C[C@H]1[C@H]2COC(=O)[C@@H]1N2	
InChI=1S/C6H9NO2/c1-3-4-2-9-6(8)5(3)7-4/h3-5,7H,2H2,1H3	InChI=1S/C6H9NO2/c1-3-4-2-9-6(8)5(3)7-4/h3-5,7H,2H2,1H3/t3-,4+,5+/m0/s1
