13
gdb 9112	8.72377	0.86366	0.78969	2.7417	62.34	-0.2727	-0.1013	0.1714	1357.2316	0.092067	-435.756453	-435.747951	-435.747006	-435.790428	27.809	
C	 0.1148636629	 1.3611473065	-0.0738321319	-0.322167
N	 0.0046248194	-0.0763400962	-0.2317087009	-0.18185
C	-1.1012522	-0.6019973483	 0.0253387339	 0.113554
O	-1.2173073799	-1.9716145597	-0.1218154772	-0.21473
C	-2.4199263466	-2.5476283566	 0.1565599788	 0.36283
O	-3.4089630298	-1.9837664236	 0.5230444997	-0.308881
C	-2.293528632	-4.0603852704	-0.081243174	 0.082209
O	-3.2189113764	-4.7991978406	 0.0938704484	-0.195076
H	 0.912061549	 1.579981869	 0.6441781942	 0.143029
H	 0.4158230712	 1.8024268833	-1.0296583497	 0.143027
H	-0.8111390716	 1.8484698653	 0.2655480049	 0.112558
H	-2.0212171628	-0.1190673028	 0.3604873786	 0.142185
H	-1.2927595334	-4.390930696	-0.420347195	 0.123312
60.8414	85.6134	126.7164	137.6914	214.378	260.0601	336.0532	369.7219	391.1634	571.2239	587.3006	779.1158	921.2775	982.7999	1018.1963	1060.3575	1098.1608	1140.301	1174.6713	1191.7913	1367.3901	1400.5434	1445.9911	1479.782	1500.5467	1776.9246	1841.9019	1853.3838	2955.5942	2991.5755	3077.8875	3095.5561	3118.2946
CN=COC(=O)C=O	CN=COC(=O)C=O	
InChI=1S/C4H5NO3/c1-5-3-8-4(7)2-6/h2-3H,1H3	InChI=1S/C4H5NO3/c1-5-3-8-4(7)2-6/h2-3H,1H3
