13
gdb 131224	5.41474	1.26756	1.02712	4.355	65.83	-0.1971	0.0079	0.2051	1047.1126	0.091081	-452.73994	-452.732999	-452.732055	-452.771077	26.668	
O	 0.081424565	 1.3198303092	 0.2273920252	-0.428829
C	 0.0698761134	-0.0123607527	-0.0079783319	 0.425995
C	 0.0834628359	-0.7660744374	-1.1532763227	-0.517526
C	 0.0573357611	-2.1380812713	-0.7048300106	 0.194628
C	 0.0306506921	-2.1041444859	 0.6678540816	 0.485099
N	 0.0374778309	-0.8222553749	 1.1276736333	-0.46037
O	 0.0043207435	-3.2978874741	 1.2456898843	-0.250374
N	 0.0138260497	-4.243839344	 0.1693979493	-0.160509
C	 0.0442876906	-3.5367577883	-0.9430246224	-0.119611
H	 0.1057866032	 1.7806218934	-0.6170815289	 0.313575
H	 0.1081754393	-0.3848936132	-2.1613523597	 0.10535
H	 0.0229781083	-0.4885764694	 2.0755729125	 0.282921
H	 0.0558737971	-4.0830209714	-1.8762849699	 0.12965
153.6031	214.4681	269.4265	326.8173	335.1326	369.5402	521.7326	561.2687	597.2278	652.5336	709.3771	740.7764	765.1427	814.8765	836.4649	897.4895	959.9493	1009.3277	1148.8539	1178.5222	1195.6419	1225.3688	1273.5411	1433.4629	1448.2985	1502.7988	1564.1317	1612.0747	1634.7869	3237.1124	3257.1716	3687.9196	3845.1976
OC1=CC2=C(N1)ON=C2	Oc1cc2c([nH]1)onc2	
InChI=1S/C5H4N2O2/c8-4-1-3-2-6-9-5(3)7-4/h1-2,7-8H	InChI=1S/C5H4N2O2/c8-4-1-3-2-6-9-5(3)7-4/h1-2,7-8H
