19
gdb 78186	2.04941	1.6551	1.38552	3.8943	79.15	-0.2471	0.0094	0.2565	1063.7891	0.159309	-382.036488	-382.027641	-382.026697	-382.069722	33.169	
C	-1.2256172598	 0.825699051	-0.7054531358	-0.437437
C	-0.5501847997	-0.5171459576	-0.8691891791	 0.030513
C	 0.5393951317	-0.9273135258	-1.7774744751	-0.070103
C	 1.678666848	 0.0771078573	-1.9637730829	-0.004848
C	 1.5038218592	 1.337652118	-2.800386586	-0.428957
C	 1.7790504953	 0.0983149891	-0.3993836183	-0.139478
C	 1.6114018741	 1.3492782389	 0.3315103993	 0.302702
N	 1.5202325688	 2.347149923	 0.9092146681	-0.339786
N	 0.7175730604	-0.9691763351	-0.246986949	-0.16346
H	-0.5699470092	 1.6848509829	-0.8280537396	 0.149232
H	-2.0337128527	 0.9075163904	-1.4404062303	 0.123317
H	-1.6725668343	 0.8957527557	 0.2913860467	 0.138242
H	-1.2638847945	-1.3299276865	-0.7320348994	 0.108012
H	 0.4752723336	-1.8500896043	-2.3468445142	 0.101027
H	 2.5590085754	-0.4587064885	-2.3294830126	 0.101186
H	 0.6546257278	 1.9465173285	-2.4875233185	 0.135962
H	 2.4014410874	 1.9620435657	-2.7465389486	 0.131221
H	 1.3505387921	 1.0660828019	-3.8502734461	 0.12509
H	 2.7221934064	-0.3389507746	-0.0619055089	 0.137566
115.0397	118.9255	168.2566	192.6188	238.887	255.4902	295.8509	352.7256	435.2871	516.5381	555.1403	646.1261	690.2276	708.6064	768.9962	818.8665	888.1307	933.1748	947.4646	1014.4522	1019.8521	1070.9408	1088.6176	1113.8941	1119.6666	1163.5711	1168.9728	1229.8383	1269.862	1287.9127	1350.9612	1370.9403	1381.0511	1414.7575	1422.4887	1452.5217	1485.8539	1494.4664	1501.5408	1506.1131	2345.7196	3043.2578	3045.5619	3060.6125	3079.7212	3101.2447	3103.3242	3105.6781	3142.2838	3153.2669	3173.1151
CC1C2C(C)C(C#N)N12	C[C@H]1[C@H]2[C@@H](C)[C@@H](C#N)N12	
InChI=1S/C7H10N2/c1-4-6(3-8)9-5(2)7(4)9/h4-7H,1-2H3	InChI=1S/C7H10N2/c1-4-6(3-8)9-5(2)7(4)9/h4-7H,1-2H3/t4-,5-,6+,7+,9?/m0/s1
