18
gdb 75263	3.03739	1.64032	1.09699	3.1614	79.35	-0.2102	0.0037	0.2139	1090.8392	0.150186	-398.16698	-398.159083	-398.158138	-398.199631	29.329	
C	-0.0121387998	 1.4883986738	 0.037878687	-0.484865
C	 0.0139863046	-0.0026262508	-0.0045735328	 0.357014
N	-0.0877423219	-0.7084468404	-1.0744209554	-0.310243
C	-0.0248973039	-2.1282924837	-0.6695148028	-0.282065
C	 0.042496635	-2.0953871231	 0.8391295159	 0.375671
N	-0.0580523155	-2.918067679	 1.8039874022	-0.356142
C	 0.0611679546	-2.0995879235	 3.033157429	-0.169407
C	-0.0000158273	-0.5899882231	 2.5933100624	-0.213451
N	 0.1924140736	-0.7476721938	 1.1578922198	-0.109968
H	 0.9194211052	 1.8820402219	 0.4586339682	 0.140574
H	-0.1436876152	 1.8750037384	-0.9725992477	 0.157679
H	-0.8326356592	 1.8469674595	 0.6696790888	 0.137643
H	-0.8972655612	-2.6793047027	-1.0342622874	 0.144675
H	 0.8609135217	-2.6070729941	-1.1043328759	 0.141577
H	-0.7366223649	-2.352851271	 3.7369078798	 0.117731
H	 1.0135676144	-2.3245031547	 3.5282451667	 0.117102
H	-0.9717154352	-0.1323956604	 2.8200506376	 0.11584
H	 0.7833799451	 0.0185695566	 3.0525258647	 0.120633
100.2908	123.4071	158.1841	215.5061	253.5433	273.0338	491.7452	550.9049	609.3782	626.8688	643.3505	760.6785	782.5581	852.9471	915.3042	942.1614	977.902	992.1814	1051.7181	1063.8762	1071.1414	1103.3509	1167.331	1183.9142	1204.331	1236.9323	1256.3327	1298.4347	1333.8498	1363.394	1391.2232	1431.4646	1456.2731	1477.6888	1480.4011	1496.8969	1525.9663	1677.8451	1747.4991	3015.1954	3033.0748	3039.3615	3041.4583	3077.866	3082.8852	3091.5129	3093.9654	3159.0876
CC1=NCC2=NCCN12	CC1=NC[C]2[N]CCN12	
InChI=1S/C6H9N3/c1-5-8-4-6-7-2-3-9(5)6/h2-4H2,1H3	InChI=1S/C6H9N3/c1-5-8-4-6-7-2-3-9(5)6/h2-4H2,1H3
