13
gdb 25407	3.17665	1.50039	1.01906	5.046	70.25	-0.2477	-0.0858	0.1619	1056.3634	0.091154	-452.819854	-452.812721	-452.811777	-452.851898	25.91	
O	-0.211909486	 0.0221764937	 0.0019667155	-0.247503
C	-0.0292444998	 1.2134991052	 0.0092899539	 0.094832
C	 1.2775336344	 1.901248474	 0.0004189015	 0.002145
C	 1.2934750444	 3.2732586984	 0.0111669479	-0.031644
N	 2.401239709	 4.0673888116	 0.0057458522	-0.293427
C	 3.5357362614	 3.4260205784	-0.011385928	 0.132556
N	 3.6476313332	 2.0848949692	-0.0233652388	-0.334054
C	 2.5456033803	 1.1741679572	-0.0191777537	 0.379538
O	 2.7596274646	-0.0135847339	-0.0309444188	-0.335078
H	-0.8856254202	 1.9282997469	 0.0231949048	 0.07102
H	 0.3446060509	 3.8075939146	 0.025551278	 0.133098
H	 4.4671668251	 3.9874646311	-0.01667175	 0.151995
H	 4.5585924127	 1.6422223036	-0.0366148446	 0.276521
83.4615	161.0152	199.2969	272.0959	386.4297	419.6749	461.7492	554.8695	573.0552	692.3421	731.86	750.5496	805.345	929.6758	960.5708	1000.4582	1042.8882	1072.6458	1108.1278	1213.3748	1279.1637	1378.3006	1415.592	1454.9475	1476.8945	1566.659	1641.6841	1786.6514	1846.5587	2850.449	3145.6419	3168.8939	3581.2596
O=CC1=CN=CNC1=O	O=Cc1cnc[nH]c1=O	
InChI=1S/C5H4N2O2/c8-2-4-1-6-3-7-5(4)9/h1-3H,(H,6,7,9)	InChI=1S/C5H4N2O2/c8-2-4-1-6-3-7-5(4)9/h1-3H,(H,6,7,9)
