22
gdb 15188	8.34941	0.66428	0.64845	0.924	80.26	-0.2479	0.0928	0.3407	1808.3592	0.199	-350.189058	-350.179346	-350.178402	-350.224631	34.293	
C	-0.0776848284	 1.4790524065	 0.0125550606	-0.383834
C	-0.0648240934	-0.0319181045	 0.1750236867	-0.026947
O	-1.3647758913	-0.5231556058	-0.0711241918	-0.24318
C	-1.4660251517	-1.925304175	 0.0453000236	-0.040429
C	-2.9068892018	-2.336389102	-0.2384000922	-0.224465
C	-3.1098401494	-3.8337708614	-0.1594310227	 0.033614
C	-3.3632559495	-4.5031064836	 1.1702488915	-0.254729
C	-4.4687800245	-4.4080650685	 0.1471840639	-0.276675
H	 0.9182628382	 1.8925904407	 0.1977220914	 0.112378
H	-0.3851513198	 1.7525495792	-1.0008056348	 0.125408
H	-0.7797403568	 1.9342553442	 0.7169993124	 0.125303
H	 0.6551037758	-0.4895154531	-0.5256497387	 0.082088
H	 0.2618300189	-0.3085585649	 1.1925079678	 0.082282
H	-0.7805991323	-2.420372698	-0.665674984	 0.078982
H	-1.1677484546	-2.2532424184	 1.0558802856	 0.085185
H	-3.5633646529	-1.8312464444	 0.4805682458	 0.099883
H	-3.1863095655	-1.9637209692	-1.2316142373	 0.104909
H	-2.5088843489	-4.4048794499	-0.8637430483	 0.079986
H	-2.9167382138	-5.4730798563	 1.3593486891	 0.109159
H	-3.4334133004	-3.8692934896	 2.0486000011	 0.110168
H	-5.27926662	-3.712811914	 0.3405038114	 0.111087
H	-4.7751029278	-5.312865612	-0.3661120411	 0.109829
49.1891	64.7691	101.1103	121.781	142.6128	227.8008	250.4575	305.7481	376.2166	437.8324	501.6095	775.528	785.7403	820.2797	827.7172	839.4673	895.5029	923.6237	965.6481	1029.8941	1049.7757	1065.094	1074.4301	1082.5489	1139.8388	1149.8773	1168.7276	1181.1942	1198.7569	1204.7555	1228.5822	1254.2309	1295.7156	1302.5647	1315.1043	1387.7008	1405.3424	1418.9116	1452.6302	1469.0738	1483.7662	1488.4812	1499.725	1507.8022	1517.1115	1538.791	2939.1043	2952.8542	2969.9555	2971.7666	3027.647	3044.1772	3067.4846	3118.4663	3120.6866	3127.4754	3128.4571	3133.696	3205.4071	3220.7592
CCOCCC1CC1	CCOCCC1CC1	
InChI=1S/C7H14O/c1-2-8-6-5-7-3-4-7/h7H,2-6H2,1H3	InChI=1S/C7H14O/c1-2-8-6-5-7-3-4-7/h7H,2-6H2,1H3
