16
gdb 125004	2.3442	1.8671	1.04735	1.8777	80.45	-0.2034	-0.0472	0.1562	1090.4081	0.124856	-434.052182	-434.043903	-434.042959	-434.084942	31.266	
C	 0.0628097976	 1.5167439469	 0.0208808832	-0.497398
C	-0.0297845704	 0.0255848161	 0.0335808512	 0.333466
C	-1.17929249	-0.6952917334	 0.0418440855	 0.158273
N	-2.4512657544	-0.1451534463	 0.0741201982	-0.598823
C	-1.0896912667	-2.1451327304	 0.0759001829	 0.246241
N	-2.1652971838	-2.8574289705	 0.0822272954	-0.563338
C	 0.282390242	-2.628613888	 0.0855604607	-0.038231
N	 1.3596057825	-1.9192122476	 0.0612662042	-0.069711
O	 1.2084052314	-0.557457023	 0.0337150172	-0.27516
H	 0.9931198281	 1.8373840732	 0.4957323299	 0.153252
H	 0.0535462263	 1.9212380883	-0.9991816251	 0.142906
H	-0.7791440654	 1.9508929946	 0.5677206816	 0.146035
H	-2.5942223443	 0.6917133712	-0.4699664131	 0.248023
H	-3.1528909427	-0.858503812	-0.0898626007	 0.270618
H	-1.949879215	-3.8548037714	 0.1046910488	 0.213852
H	 0.4668076247	-3.7007060177	 0.1009897702	 0.129995
96.1566	124.4051	174.355	275.6258	302.131	331.7001	365.605	477.2092	509.0825	514.8014	535.3743	567.6411	659.555	682.4458	766.3969	834.9825	883.8239	919.605	937.6547	982.0275	1038.3055	1056.0418	1133.5182	1220.8697	1251.6229	1316.9083	1333.7758	1408.4716	1472.8128	1481.1292	1493.9947	1599.1984	1625.79	1672.9588	1695.1262	3026.742	3092.0324	3131.167	3161.4162	3466.0851	3530.3079	3656.7449
CC1=C(N)C(=N)C=NO1	C[C]1C(=C([NH])C=NO1)N	
InChI=1S/C5H7N3O/c1-3-5(7)4(6)2-8-9-3/h2,6H,7H2,1H3	InChI=1S/C5H7N3O/c1-3-5(7)4(6)2-8-9-3/h2,6H,7H2,1H3
