15
gdb 16041	3.50662	1.77289	1.46341	3.0219	67.74	-0.229	0.0038	0.2328	874.9834	0.120896	-358.796942	-358.789697	-358.788752	-358.828257	27.349	
N	-0.0760582224	 1.4932541425	-0.0010256992	-0.520812
C	-0.0750285415	 0.0617591996	-0.0220668406	-0.01478
C	-1.3206470377	-0.77056812	 0.0669400209	-0.148312
C	-2.4582078607	-0.165110476	-0.7581156073	-0.186136
N	-1.5462767727	 0.0153767851	-1.9393872415	-0.38125
C	-0.4923055316	-0.7618696427	-1.2395252303	 0.215467
C	 0.2826735346	-1.7694076069	-1.87257998	 0.172058
N	 0.9212358271	-2.5843984463	-2.3938618179	-0.350849
H	 0.8602705406	 1.8333529841	-0.199592897	 0.238817
H	-0.6673852416	 1.8317604065	-0.7577786698	 0.252362
H	 0.7543772406	-0.3772846334	 0.524227408	 0.119835
H	-1.4343621511	-1.5627376434	 0.7957345569	 0.117508
H	-3.2533031658	-0.8919151759	-0.9458672063	 0.122067
H	-2.8988343188	 0.7676649557	-0.3918466091	 0.12242
H	-1.8911614789	-0.4722978387	-2.7585062365	 0.241605
132.8335	168.6695	210.9563	248.9159	298.1063	432.4165	504.753	535.0021	567.5914	670.6761	731.7513	773.5303	815.0983	881.5908	932.1383	960.0783	977.6919	1013.8702	1038.4783	1095.6198	1121.5901	1174.3599	1198.6243	1216.8719	1266.3836	1311.3174	1334.4864	1371.593	1476.8563	1514.8517	1667.7958	2329.6382	3046.9414	3096.9443	3168.6006	3197.2634	3479.1147	3546.1259	3558.0169
NC1C2CNC12C#N	N[C@H]1[C@H]2CN[C@@]12C#N	
InChI=1S/C5H7N3/c6-2-5-3(1-8-5)4(5)7/h3-4,8H,1,7H2	InChI=1S/C5H7N3/c6-2-5-3(1-8-5)4(5)7/h3-4,8H,1,7H2/t3-,4+,5-/m1/s1
