16
gdb 126345	2.88704	1.39649	1.01041	2.4955	74.22	-0.2511	-0.0676	0.1835	1153.4636	0.124243	-437.886565	-437.878501	-437.877557	-437.919598	29.639	
C	 0.0354050352	 1.5693982055	-0.0585413474	-0.379622
C	-0.0668106195	 0.0388502451	 0.0620746008	-0.284779
C	 0.680076522	-0.5053666771	 1.2482233107	 0.084847
C	 0.0620607582	-1.0282200748	 2.3286082845	 0.040321
O	 0.6650834006	-1.5250635128	 3.4244621196	-0.227758
N	 2.047370483	-1.5371497752	 3.5181915559	-0.052126
C	 2.6953330258	-1.0594581243	 2.5148408743	-0.037545
C	 2.1358710791	-0.492026021	 1.2703713285	 0.296326
O	 2.8561861767	-0.0707978091	 0.3763849167	-0.363231
H	 1.0799350147	 1.8741071754	-0.1518253362	 0.152602
H	-0.5051972771	 1.917622779	-0.9434182558	 0.118683
H	-0.3939550743	 2.0632856536	 0.8188641693	 0.114812
H	-1.1176825899	-0.2661976676	 0.1196671147	 0.101739
H	 0.354646151	-0.4156668108	-0.8417559642	 0.131063
H	-1.0154572354	-1.1091122019	 2.434008459	 0.148587
H	 3.7768470598	-1.0882100541	 2.6205562597	 0.156081
76.7006	109.8019	180.3257	207.0477	292.2141	347.5888	420.1749	447.4791	516.8711	558.7218	601.3384	737.2273	776.0245	798.6147	850.9454	890.1689	929.7177	961.5905	977.7802	1068.5385	1086.6199	1158.9721	1171.1386	1283.5802	1286.8072	1326.4651	1358.7168	1401.9393	1428.6672	1473.0423	1495.7214	1511.9937	1623.2237	1662.59	1743.7116	3035.1442	3043.8299	3076.2252	3111.9697	3137.9387	3179.8358	3189.5859
CCC1=CON=CC1=O	CCc1concc1=O	
InChI=1S/C6H7NO2/c1-2-5-4-9-7-3-6(5)8/h3-4H,2H2,1H3	InChI=1S/C6H7NO2/c1-2-5-4-9-7-3-6(5)8/h3-4H,2H2,1H3
