17
gdb 45099	2.45701	2.09341	1.43795	3.213	71.72	-0.2303	-0.0034	0.2268	922.0924	0.13852	-417.979427	-417.972499	-417.971555	-418.010603	27.715	
O	-0.3064117427	 0.6484866383	 1.2380003377	-0.335152
C	-0.1720746874	 1.3571485621	 0.2685837509	 0.327888
C	-1.3079502467	 1.7796879875	-0.6665401716	-0.2351
N	-1.4514691059	 3.2424316621	-0.7887778217	-0.106478
C	-1.1812557208	 3.9995614836	 0.4369087781	-0.27593
C	-0.1938357056	 4.0130241035	-0.6781896548	-0.012124
C	 1.1044549605	 3.2575973856	-0.6327856775	-0.045518
C	 1.8059463343	 2.8644088502	 0.6410783512	-0.254325
N	 1.053119841	 1.8940963089	-0.1304410609	-0.072296
H	-1.132930201	 1.37412642	-1.6694103063	 0.130003
H	-2.2409911905	 1.3660680687	-0.2788034247	 0.137532
H	-1.8140933447	 4.8670887436	 0.6005260806	 0.124444
H	-0.9433047659	 3.445637594	 1.342629234	 0.137979
H	-0.170164961	 4.8878778024	-1.3234279346	 0.101945
H	 1.7201149608	 3.3845494847	-1.5213147835	 0.107325
H	 2.8839107532	 2.7323840498	 0.6378302434	 0.133039
H	 1.3812043023	 3.193136755	 1.5853135297	 0.136768
121.7639	198.0291	264.5772	355.306	401.5787	426.9637	517.0935	549.9304	639.2604	692.7164	735.9065	743.4766	834.2286	879.4501	929.9055	953.0115	995.3103	1022.0807	1035.1482	1068.4129	1101.717	1115.2145	1130.7577	1133.1468	1167.5415	1171.2398	1189.4356	1257.638	1300.4097	1328.3054	1371.9738	1405.6928	1413.6437	1471.0198	1505.4225	1517.73	1809.4136	3048.6351	3106.3189	3116.0425	3120.4394	3122.54	3138.0886	3189.6631	3207.2212
O=C1CN2CC2C2CN12	O=C1CN2C[C@H]2[C@H]2CN12	
InChI=1S/C6H8N2O/c9-6-3-7-1-4(7)5-2-8(5)6/h4-5H,1-3H2	InChI=1S/C6H8N2O/c9-6-3-7-1-4(7)5-2-8(5)6/h4-5H,1-3H2/t4-,5+,7?,8?/m0/s1
