21
gdb 64290	2.67853	1.57446	1.31933	2.2222	77.15	-0.2434	0.0723	0.3157	1069.1935	0.182818	-424.221457	-424.213026	-424.212082	-424.25404	33.179	
C	-0.1443811858	 1.6227035839	 0.0314088514	-0.433869
C	 0.0678744508	 0.1114883233	 0.0321033811	 0.367619
C	-1.2718518186	-0.6128535795	-0.1892432957	-0.425814
O	 0.9779785423	-0.1861969538	-1.0444330125	-0.288958
C	 1.5721212027	-1.453001317	-0.7913439434	-0.119403
C	 1.7344511099	-1.5438804611	 0.7243380102	 0.119795
O	 2.8919163782	-0.8367382551	 1.2116664786	-0.290019
C	 2.0766797012	 0.2172037523	 1.7630961587	-0.095975
C	 0.7746896743	-0.458234537	 1.2800221671	-0.115161
H	 0.8055912064	 2.1563055189	 0.100574042	 0.125677
H	-0.6342387624	 1.9301683227	-0.8969725499	 0.125463
H	-0.7805968693	 1.9242972366	 0.8692651547	 0.11292
H	-1.6784115037	-0.3489732782	-1.1695707153	 0.123987
H	-1.1595653515	-1.7006914045	-0.1481091142	 0.114138
H	-1.999414549	-0.3261205034	 0.5768134118	 0.113939
H	 0.9403587186	-2.2761799974	-1.1603545327	 0.08688
H	 2.5342530829	-1.4893937596	-1.3093473099	 0.119943
H	 1.6892205721	-2.5665851829	 1.1124806186	 0.075954
H	 2.1832913461	 0.2834528897	 2.8527791057	 0.098451
H	 2.3160665754	 1.1902838067	 1.3213196133	 0.106688
H	 0.0788936494	-0.7460788644	 2.0681244304	 0.077748
98.2761	193.8261	200.6065	225.2935	265.4901	338.5577	341.4082	376.1671	396.0033	505.4175	581.6348	699.8284	747.6163	837.2302	846.3164	875.0805	900.6967	923.3055	951.184	988.6924	1003.7932	1023.5183	1031.9004	1060.279	1075.7265	1102.0234	1160.2401	1178.0172	1203.9247	1217.3694	1234.4868	1262.6728	1280.9191	1329.9761	1339.4004	1368.5045	1378.7075	1399.2777	1417.515	1475.2676	1486.3687	1493.4182	1503.331	1511.0859	1524.6864	2982.4628	3020.6247	3037.268	3047.166	3056.9463	3069.368	3095.7076	3104.9	3111.4761	3113.4408	3120.3444	3132.987
CC1(C)OCC2OCC12	CC1(C)OC[C@H]2OC[C@@H]12	
InChI=1S/C7H12O2/c1-7(2)5-3-8-6(5)4-9-7/h5-6H,3-4H2,1-2H3	InChI=1S/C7H12O2/c1-7(2)5-3-8-6(5)4-9-7/h5-6H,3-4H2,1-2H3/t5-,6-/m1/s1
