20
gdb 22181	2.45489	1.21696	0.99458	0.8486	79.44	-0.247	0.0033	0.2504	1281.0028	0.167396	-440.238497	-440.228242	-440.227298	-440.273416	37.985	
C	-0.8031953579	 1.2077497732	-0.0263751903	-0.422286
C	 0.1293698727	 0.0075758555	-0.0600614239	 0.011266
C	 1.5079162152	 0.1489789202	-0.7883031976	-0.355841
C	 2.1285065825	-0.5749918219	 0.3830619681	 0.376829
N	 3.1937749086	-1.2070020985	 0.6374967221	-0.259611
O	 4.0945611475	-1.1623963009	-0.4424617572	-0.390484
C	 0.8737187501	-0.4590496272	 1.2445542951	 0.294981
C	 0.9929041069	 0.5723952181	 2.3656454433	-0.436522
O	 0.3417041642	-1.6784020605	 1.7281324418	-0.473381
H	-0.2989664169	 2.1073137701	 0.3417780905	 0.11447
H	-1.178058347	 1.4292148575	-1.0313867903	 0.118765
H	-1.670020675	 1.0207003521	 0.6160936224	 0.125125
H	-0.3978550982	-0.8701342176	-0.4433268734	 0.095751
H	 1.6192689298	-0.3296541572	-1.7638715208	 0.129493
H	 1.8497803755	 1.1868908575	-0.8741143846	 0.120363
H	 4.8281184489	-1.6964149773	-0.1188534691	 0.305589
H	 1.3789981804	 1.5301617564	 2.0036126937	 0.116731
H	 0.0159593069	 0.7389405706	 2.8286357259	 0.125019
H	 1.6840694953	 0.2064105681	 3.1323782351	 0.118608
H	 1.0280650406	-2.1067936682	 2.2521915391	 0.285135
57.2086	118.9837	151.9791	200.4769	224.1239	232.5299	262.4342	292.3411	333.4367	352.3665	393.4566	414.7898	462.1605	530.602	590.8216	630.1122	757.4733	802.6763	876.1303	884.3729	952.4065	971.5902	1004.124	1066.4638	1080.8443	1103.4592	1126.726	1159.5325	1198.7122	1229.134	1244.7437	1287.9142	1345.3331	1373.4786	1399.7568	1406.9632	1412.4231	1462.1253	1483.2769	1484.5831	1500.4596	1501.9289	1785.706	3030.6684	3035.0275	3043.8746	3072.4481	3097.361	3100.9619	3104.5677	3109.5892	3117.6298	3801.469	3814.6256
CC1CC(=NO)C1(C)O	C[C@H]1CC(=NO)[C@]1(C)O	
InChI=1S/C6H11NO2/c1-4-3-5(7-9)6(4,2)8/h4,8-9H,3H2,1-2H3	InChI=1S/C6H11NO2/c1-4-3-5(7-9)6(4,2)8/h4,8-9H,3H2,1-2H3/t4-,6+/m0/s1
