23
gdb 122654	4.90451	0.69572	0.63654	0.8994	89.41	-0.234	0.03	0.264	1841.8498	0.205702	-388.300902	-388.291083	-388.290139	-388.336713	35.615	
C	-0.0535996181	 1.5208871076	 0.0291374509	-0.384422
C	-0.0064281424	 0.0024550754	-0.0006853216	-0.025332
O	-1.3294160687	-0.4911055165	 0.0161733407	-0.247808
C	-1.4045233623	-1.9000680492	-0.0079872954	-0.063079
C	-2.8728738754	-2.313763996	 0.0390596345	-0.030385
C	-3.0721213406	-3.8517899138	-0.0325529492	-0.233855
C	-4.2471450867	-4.1712709177	 0.9280923478	-0.252448
C	-4.3113647424	-2.9437410423	 1.8066400947	-0.071543
C	-3.5769025031	-1.9428049483	 1.3260175994	-0.055927
H	 0.9589491194	 1.9352469118	 0.0152659462	 0.113191
H	-0.5983690987	 1.9045867933	-0.8381879221	 0.125891
H	-0.5600640483	 1.8710057538	 0.9331563701	 0.125309
H	 0.5193552944	-0.3505382658	-0.9046372126	 0.083023
H	 0.5556314039	-0.3845426969	 0.8665988864	 0.084152
H	-0.9257152023	-2.295275452	-0.9213615375	 0.080412
H	-0.865855188	-2.3304146598	 0.854591265	 0.081191
H	-3.3679484832	-1.8141719559	-0.8066689281	 0.083026
H	-3.2464349852	-4.2062356587	-1.0514933293	 0.097328
H	-2.1637346746	-4.348173888	 0.3292300195	 0.099462
H	-5.1926746918	-4.3086813597	 0.3843270496	 0.104378
H	-4.0857311193	-5.0960979292	 1.4938016987	 0.100399
H	-4.9245752567	-2.8977239764	 2.700414403	 0.087866
H	-3.4877583298	-0.9527584957	 1.7571228393	 0.099169
52.6338	72.7358	88.7895	123.7079	163.7099	244.1484	268.8503	289.5875	346.299	476.6502	519.5748	638.1266	753.8189	768.5865	821.7523	846.9418	860.3853	900.2662	930.2073	949.1583	973.8342	985.8884	1039.6625	1064.2854	1097.4773	1106.9276	1137.1909	1145.294	1162.1513	1187.8671	1196.1292	1231.186	1251.2377	1285.4326	1296.2977	1315.4798	1326.4657	1343.2733	1384.9462	1388.8433	1405.5488	1446.4424	1483.2783	1483.7985	1499.315	1500.6068	1512.1651	1536.4853	1686.0815	2936.933	2954.0197	2967.0673	2974.0045	2998.9157	3006.7502	3033.2734	3044.2393	3054.4385	3096.695	3118.5729	3120.4918	3182.932	3214.8769
CCOCC1CCC=C1	CCOC[C@H]1CCC=C1	
InChI=1S/C8H14O/c1-2-9-7-8-5-3-4-6-8/h3,5,8H,2,4,6-7H2,1H3	InChI=1S/C8H14O/c1-2-9-7-8-5-3-4-6-8/h3,5,8H,2,4,6-7H2,1H3/t8-/m1/s1
