15
gdb 50419	2.26988	1.56	1.00769	4.6096	72.14	-0.2655	-0.0239	0.2416	1127.9412	0.113417	-416.84532	-416.837309	-416.836365	-416.878766	28.506	
O	 0.0061106178	 0.0053092825	 0.1929814803	-0.323834
C	 0.0450718117	 1.2125983981	 0.1050618367	 0.149268
N	 1.1963242231	 1.9244619358	-0.0428706107	-0.051182
C	 2.5149014081	 1.2847454896	-0.0473853386	-0.205088
C	 3.4377213141	 2.4675845909	 0.0063759897	-0.08057
C	 2.7761791331	 3.61896245	 0.0006116935	-0.070756
C	 1.2778101496	 3.3855774794	-0.0622648262	-0.185279
C	 0.6749458254	 3.9833562744	-1.2729068012	 0.287085
N	 0.2004770175	 4.4637675319	-2.2103390319	-0.313699
H	-0.852900743	 1.860034773	 0.1353220964	 0.090299
H	 2.6175436184	 0.6128693841	 0.8135167332	 0.145591
H	 2.6617616231	 0.6719567683	-0.9466591753	 0.144503
H	 4.5138651459	 2.3582187388	 0.0432522788	 0.129659
H	 3.1877416023	 4.6184285811	 0.0200189486	 0.136901
H	 0.763820953	 3.8273518122	 0.8038000367	 0.147101
54.1963	103.1676	153.5794	228.9053	257.7165	330.1288	395.8581	468.2969	515.3895	591.7684	717.4327	763.4563	828.7044	873.5245	943.7525	964.8307	974.5278	1024.0903	1033.3707	1035.6004	1136.8004	1192.0493	1213.9638	1254.3879	1327.9689	1343.696	1374.2152	1387.9024	1444.6519	1510.8352	1695.9014	1799.9418	2357.0974	2947.5787	2999.4364	3022.357	3051.6032	3219.7947	3245.6385
O=CN1CC=CC1C#N	O=CN1CC=C[C@H]1C#N	
InChI=1S/C6H6N2O/c7-4-6-2-1-3-8(6)5-9/h1-2,5-6H,3H2	InChI=1S/C6H6N2O/c7-4-6-2-1-3-8(6)5-9/h1-2,5-6H,3H2/t6-/m0/s1
