17
gdb 34826	4.9739	1.08495	1.00279	5.7502	78.81	-0.251	0.0263	0.2774	1183.7593	0.137226	-380.78767	-380.780209	-380.779265	-380.819528	29.201	
N	-0.0938681069	-1.1830425288	-0.112016548	-0.329166
C	-0.0266435367	-0.0323835012	-0.0262174282	 0.278884
C	-0.0068034358	 1.4197847399	 0.0189662517	-0.136634
C	 0.1040487366	 2.1206621833	 1.4110312067	-0.123093
N	 1.5197502024	 1.5670459167	 1.4850656521	-0.31033
C	 1.3758460795	 2.1446071691	 0.0843889322	-0.123083
C	 0.6320573467	 3.3602979814	 0.6664386712	 0.443249
C	 0.0114207233	 4.5862031313	 0.0935964037	-0.363665
C	 1.1129570355	 4.6815966001	 1.1513051157	-0.380959
H	-0.7344355282	 1.8490690288	-0.6708429653	 0.123209
H	-0.5966531044	 2.0488664673	 2.2428156679	 0.103065
H	 2.0916600189	 2.2065786788	 2.0448797823	 0.217503
H	 2.178363321	 2.1011148435	-0.6518704023	 0.103069
H	 0.2636820148	 4.8731162828	-0.9222667729	 0.124406
H	-0.9978508438	 4.8493484204	 0.3936951044	 0.124406
H	 0.8272372642	 5.0099356742	 2.1456621982	 0.124569
H	 2.0882332928	 5.0336638223	 0.8302531005	 0.124569
124.829	136.0481	234.9108	254.393	297.3626	419.9753	466.6144	549.0895	586.7779	699.5266	749.8605	781.9993	808.294	875.7979	890.7205	917.7157	921.0566	952.9656	996.1263	1044.621	1060.2489	1066.2985	1085.1795	1111.9283	1129.0059	1169.5164	1171.3607	1180.809	1205.4446	1211.8737	1283.4288	1294.321	1367.7322	1416.8163	1461.0697	1518.1259	2360.1899	3113.5307	3121.7346	3124.2929	3125.9102	3128.1405	3202.7697	3216.6579	3400.2703
N#CC1C2NC1C21CC1	N#C[C@H]1[C@H]2N[C@@H]1C12CC1	
InChI=1S/C7H8N2/c8-3-4-5-7(1-2-7)6(4)9-5/h4-6,9H,1-2H2	InChI=1S/C7H8N2/c8-3-4-5-7(1-2-7)6(4)9-5/h4-6,9H,1-2H2/t4-,5+,6-
