21
gdb 36135	3.67853	1.0642	0.95879	0.7667	87.4	-0.2552	0.0553	0.3105	1304.3377	0.183175	-349.929513	-349.920901	-349.919957	-349.962786	34.026	
C	-0.0617603899	-1.2016882923	 0.4481278949	-0.463863
C	-0.0619739921	-0.0196586532	 0.229412369	 0.326589
C	-0.0378882381	 1.4164999602	-0.0411758698	-0.464376
C	 1.3669811548	 1.9741199124	-0.2082673801	 0.384527
C	 2.1498828558	 2.3843752018	 1.0146899927	-0.325068
C	 1.6810514632	 3.4366454101	 0.0342863884	-0.084827
C	 2.6674803678	 3.900912491	-1.0275496157	-0.214158
C	 3.2847686	 2.5956188057	-1.5839247453	-0.228723
C	 2.1826466252	 1.5249738242	-1.417513335	-0.26142
H	-0.0701418708	-2.2451473159	 0.6434805615	 0.192936
H	-0.6234459942	 1.6203850253	-0.9488700463	 0.124776
H	-0.5476225168	 1.9453118181	 0.7743520482	 0.124422
H	 1.6321637647	 2.3334240403	 1.9669869876	 0.108487
H	 3.206681877	 2.1463758049	 1.0812081891	 0.107662
H	 0.905900958	 4.1234068163	 0.3596084724	 0.07627
H	 2.1228414481	 4.4344767007	-1.8162014448	 0.097319
H	 3.4286302432	 4.5878706563	-0.6416111568	 0.096646
H	 3.6138774452	 2.6976993159	-2.6212467029	 0.097006
H	 4.1698901696	 2.3194388062	-1.0024577969	 0.105849
H	 2.5892734702	 0.514597316	-1.3078075635	 0.106099
H	 1.5262511991	 1.5116467359	-2.2976892367	 0.093849
62.2042	103.2841	209.9891	241.3208	299.5924	350.454	367.4785	403.0138	432.0779	614.0362	615.5452	626.4097	636.0112	710.303	811.3006	840.2159	884.855	894.4241	898.7913	934.259	945.6022	972.4428	988.237	1005.8954	1050.273	1069.3275	1080.4561	1118.0477	1168.3606	1196.5339	1202.0252	1253.8557	1263.9183	1303.2927	1324.6292	1334.3718	1342.1734	1357.0945	1408.5512	1463.9792	1487.3496	1492.8351	1494.8569	1517.9916	2236.5119	3006.1695	3020.6519	3028.6341	3043.1324	3051.8151	3068.7944	3077.066	3099.7169	3126.1192	3154.9348	3206.4945	3506.9161
C#CCC12CC1CCC2	C#CC[C@]12C[C@H]1CCC2	
InChI=1S/C9H12/c1-2-5-9-6-3-4-8(9)7-9/h1,8H,3-7H2	InChI=1S/C9H12/c1-2-5-9-6-3-4-8(9)7-9/h1,8H,3-7H2/t8-,9+/m1/s1
