20
gdb 58501	2.10552	1.43012	1.12678	3.8937	77.01	-0.2492	0.0002	0.2494	1191.4578	0.16796	-440.282724	-440.272586	-440.271642	-440.317583	36.973	
C	-0.1699429954	 1.418175083	 0.6706791255	-0.422601
C	-0.1823997073	-0.0332211773	 0.1836979727	 0.078441
O	 0.580169945	-0.8714548372	 1.0358016346	-0.427828
C	-1.5954222083	-0.5861823397	-0.0762791691	 0.269313
C	-2.3893009446	 0.1319604973	-1.1498482054	-0.459389
C	-1.803212249	-2.0663087473	 0.1271440346	-0.280169
N	-2.3757241969	-1.1054969175	 1.0410862731	-0.081778
C	-2.1587236256	-1.0378438381	 2.3977147473	 0.105698
O	-2.0124751468	-1.9853007467	 3.1350553893	-0.298494
H	 0.8633903855	 1.745392992	 0.8119541155	 0.13393
H	-0.647870662	 2.0918295288	-0.0452207871	 0.128328
H	-0.695480853	 1.5189693001	 1.6275312141	 0.1182
H	 0.3364378759	-0.0793907908	-0.782945992	 0.100572
H	 0.3273464755	-0.7138317864	 1.9520795021	 0.2952
H	-1.8247238215	 0.1658435489	-2.087904246	 0.125366
H	-3.3335462251	-0.3852957511	-1.3344420884	 0.133579
H	-2.6235727933	 1.1600099769	-0.8579900104	 0.129062
H	-2.5105913445	-2.5930159831	-0.5083055779	 0.119269
H	-0.9628285091	-2.645087344	 0.4952251999	 0.151626
H	-2.2189121394	 0.0050954622	 2.7690476978	 0.081674
67.276	98.672	156.7079	197.2007	209.1282	221.0714	272.3843	292.9023	319.6158	328.1273	394.882	421.2215	482.7677	572.0606	593.1951	729.3363	826.9149	896.1016	928.2442	963.485	987.2468	1026.225	1037.379	1075.264	1104.4951	1125.5578	1138.2832	1145.782	1218.3912	1267.3626	1303.3386	1352.4618	1402.1952	1405.0306	1415.6394	1418.4109	1430.1237	1485.7348	1489.7102	1492.8062	1501.1695	1503.3349	1786.1076	2926.3588	3024.4336	3037.0704	3041.4416	3105.7778	3109.1691	3115.4875	3125.2583	3128.9226	3218.7485	3810.0055
CC(O)C1(C)CN1C=O	C[C@@H](O)[C@@]1(C)CN1C=O	
InChI=1S/C6H11NO2/c1-5(9)6(2)3-7(6)4-8/h4-5,9H,3H2,1-2H3	InChI=1S/C6H11NO2/c1-5(9)6(2)3-7(6)4-8/h4-5,9H,3H2,1-2H3/t5-,6-,7?/m1/s1
