16
gdb 55604	2.59167	1.09841	0.82336	4.8362	70.1	-0.2472	-0.0275	0.2196	1342.7696	0.123537	-471.259952	-471.250418	-471.249474	-471.295812	33.327	
N	 0.2281357057	 0.8390342232	-0.6494303071	-0.556282
C	-0.5293071624	-0.3077250265	-0.5489845648	 0.476591
O	-1.1937854779	-0.7371737023	-1.473948562	-0.388518
N	-0.4035503155	-0.930935936	 0.6846861444	-0.356085
C	-1.0586261773	-2.0605098451	 1.1843431582	 0.34719
N	-0.7053263844	-2.4254756307	 2.3534234489	-0.508189
C	-2.1022766798	-2.7483722896	 0.3252245026	-0.352264
C	-1.4771329931	-3.701961953	-0.6916363996	 0.160018
O	-1.7088225122	-4.8822124601	-0.7126112725	-0.235118
H	 0.0366433773	 1.3801808523	-1.4775687016	 0.272158
H	 0.4542941597	 1.3707597984	 0.1758888991	 0.259537
H	 0.2768727435	-0.5742462925	 1.3414487424	 0.257097
H	-1.2235388034	-3.2510993095	 2.646166685	 0.230955
H	-2.7587993758	-3.331756221	 0.9733287868	 0.121643
H	-2.6788191552	-2.0087862257	-0.2359188622	 0.161128
H	-0.8007953292	-3.2192356818	-1.4222572977	 0.11014
41.0146	54.3256	103.0652	114.6288	201.7222	238.0407	365.0856	370.8033	428.2163	472.1773	497.8911	551.0143	606.2323	681.2108	692.0277	765.7039	780.5248	853.1602	889.3857	1021.8345	1044.2965	1054.6541	1105.991	1161.8303	1201.0276	1281.0225	1312.924	1398.0149	1420.5017	1446.3332	1519.2806	1627.1423	1711.5705	1799.467	1828.5757	2961.5573	3072.0113	3137.9601	3512.8131	3589.6128	3600.7022	3711.1193
NC(=O)NC(=N)CC=O	NC(=O)NC(=N)CC=O	
InChI=1S/C4H7N3O2/c5-3(1-2-8)7-4(6)9/h2H,1H2,(H4,5,6,7,9)	InChI=1S/C4H7N3O2/c5-3(1-2-8)7-4(6)9/h2H,1H2,(H4,5,6,7,9)
