21
gdb 57648	3.41605	0.93037	0.91436	2.6751	79.34	-0.2493	-0.0252	0.2241	1398.8085	0.178226	-424.214399	-424.204049	-424.203105	-424.250471	37.613	
C	-0.3669632674	 1.5369003587	-0.192281767	-0.422046
C	-0.0608997014	 0.0469012614	 0.0460654711	 0.272864
C	 0.9407149679	-0.1422569793	 1.1921129785	-0.42829
O	-1.2442278872	-0.7396479675	 0.2144261328	-0.299631
C	-2.0509840277	-0.4690117708	 1.3207341002	 0.138722
C	-3.2245391232	 0.4706021514	 1.1873656764	-0.285076
C	-3.4358906295	-1.0280327251	 1.2594648233	-0.290962
C	 0.5346970204	-0.5105725789	-1.2523211869	 0.14328
O	 1.6554899503	-0.2908618219	-1.6282938782	-0.261259
H	 0.5593524785	 2.0633604685	-0.4366387511	 0.137123
H	-1.0686977567	 1.6641119422	-1.0219833683	 0.122089
H	-0.8037059407	 1.9886607857	 0.7016038326	 0.128413
H	 0.6306626016	 0.3984881658	 2.0905104804	 0.116435
H	 1.0430196863	-1.2034402216	 1.4363512444	 0.126895
H	 1.9161055699	 0.2367253909	 0.8784780289	 0.143223
H	-1.5371887625	-0.5034055097	 2.2792120434	 0.090139
H	-3.500990355	 1.0830149062	 2.0390850601	 0.112946
H	-3.3724027678	 0.9395895847	 0.2217882769	 0.119876
H	-3.7087282929	-1.5314755241	 0.3390295646	 0.126159
H	-3.8608848177	-1.4593868749	 2.1584785629	 0.116031
H	-0.1822870851	-1.1282195319	-1.8353814848	 0.093068
42.5237	49.8555	109.787	154.0664	220.0873	264.2133	270.8714	289.1271	324.6234	333.8236	406.8549	429.1647	483.9387	635.2001	747.0957	766.4525	815.195	828.0567	900.7875	914.2046	951.5381	966.2809	996.5554	1030.1075	1036.7565	1060.4527	1073.4258	1131.0125	1190.9737	1194.5472	1197.4785	1206.0883	1241.9067	1271.1263	1379.907	1384.2268	1404.8257	1409.1947	1453.9148	1481.1923	1482.6249	1493.3533	1500.2774	1508.7477	1839.1807	2905.6793	3043.912	3047.1183	3116.5223	3120.0985	3125.07	3130.036	3135.3405	3136.4349	3142.6969	3221.6535	3235.8569
CC(C)(OC1CC1)C=O	CC(C)(OC1CC1)C=O	
InChI=1S/C7H12O2/c1-7(2,5-8)9-6-3-4-6/h5-6H,3-4H2,1-2H3	InChI=1S/C7H12O2/c1-7(2,5-8)9-6-3-4-6/h5-6H,3-4H2,1-2H3
