17
gdb 111127	3.61201	1.3397	1.23114	1.0208	66.77	-0.2401	0.068	0.3081	1053.7465	0.135633	-458.871648	-458.864328	-458.863384	-458.903599	28.458	
C	 0.0096811747	 1.3306925571	-0.1978095623	-0.246029
O	-0.0812193201	 0.0332286553	 0.3509721642	-0.2584
C	-1.3511138042	-0.5277061844	 0.223285736	 0.1848
C	-1.6169139225	-1.2782537262	-1.1248664404	-0.029264
O	-0.7467818862	-2.3530466225	-0.6293214893	-0.296137
C	-1.3451912688	-2.0079720815	 0.6684003554	-0.024322
C	-2.8083800624	-2.4630073952	 0.4356932431	 0.031046
O	-3.7497256124	-1.3985997936	 0.2149344449	-0.24497
C	-3.0109618279	-1.9160078407	-0.9070087586	 0.029323
H	 1.0182708789	 1.6957440591	 0.0073836569	 0.132842
H	-0.1512474922	 1.3310682753	-1.286108051	 0.107735
H	-0.7199334968	 2.0164438236	 0.2597008103	 0.109265
H	-2.1315461388	 0.136940639	 0.6025738068	 0.096891
H	-1.3426324931	-0.9020027992	-2.1091534091	 0.084587
H	-0.7875115558	-2.3716342491	 1.5296342245	 0.089371
H	-3.2057146899	-3.3989167444	 0.8108787649	 0.116811
H	-3.5889939825	-2.3737150927	-1.7016740564	 0.11645
89.3334	177.2238	180.2925	308.5177	365.0395	386.1814	453.2822	595.5587	604.1629	698.6527	789.2993	857.6771	863.571	868.8821	892.9363	908.1558	947.4617	967.8777	987.9372	1030.6233	1075.2208	1078.1204	1160.885	1168.6093	1183.6612	1205.943	1219.1434	1237.7467	1244.005	1267.3767	1290.7358	1300.1847	1375.0679	1414.429	1482.5424	1489.3434	1508.1989	2979.2146	3027.8143	3076.2429	3122.5655	3138.7995	3145.1687	3180.0199	3192.4317
COC1C2OC1C1OC21	CO[C@H]1[C@H]2O[C@@H]1[C@H]1O[C@@H]21	
InChI=1S/C6H8O3/c1-7-2-3-5-6(9-5)4(2)8-3/h2-6H,1H3	InChI=1S/C6H8O3/c1-7-2-3-5-6(9-5)4(2)8-3/h2-6H,1H3/t2-,3+,4-,5-,6+
