15
gdb 56478	3.63165	0.97001	0.79618	3.832	69.97	-0.2536	-0.0278	0.2259	1357.6858	0.11084	-453.928024	-453.918749	-453.917805	-453.963056	32.969	
O	-0.3880904908	 1.0177985576	 0.0839543842	-0.43328
C	 0.141349645	-0.3037421037	-0.0815049171	-0.090245
C	 0.9900881846	-0.3993824299	-1.2614833725	 0.318531
C	 1.6749742518	-0.3954555651	-2.2476690427	-0.443981
C	 0.8558016948	-0.7985949218	 1.1967782669	 0.330566
N	 1.6477026211	-1.7820350155	 1.1449795826	-0.489066
N	 0.445142041	-0.0742104522	 2.3265783278	-0.341358
C	 0.8196001677	-0.3082257325	 3.6250767047	 0.164683
O	 1.5597308502	-1.1905810898	 3.9980925778	-0.297537
H	 0.2829203692	 1.6368469277	-0.2262711203	 0.297566
H	-0.7384608592	-0.9478266955	-0.2099989979	 0.153326
H	 2.2881673084	-0.4195137491	-3.1148384274	 0.210322
H	 1.9849120995	-2.0226634079	 2.0780922798	 0.255752
H	-0.1589481952	 0.7128870069	 2.126580747	 0.267606
H	 0.3559169018	 0.4196048409	 4.3178355671	 0.097115
29.7123	90.7546	134.6079	223.1231	226.5057	261.5404	285.2399	351.2343	394.0254	465.112	500.2081	571.9212	640.7005	652.4348	686.4053	728.4295	839.9228	915.0265	946.2418	973.948	1027.1626	1065.4987	1079.2315	1186.674	1250.4893	1292.5009	1332.9321	1407.5208	1436.6276	1512.595	1736.233	1810.9072	2246.0317	2954.4526	3029.5628	3484.0303	3503.0339	3575.8038	3804.8155
OC(C#C)C(=N)NC=O	O[C@@H](C#C)C(=N)NC=O	
InChI=1S/C5H6N2O2/c1-2-4(9)5(6)7-3-8/h1,3-4,9H,(H2,6,7,8)	InChI=1S/C5H6N2O2/c1-2-4(9)5(6)7-3-8/h1,3-4,9H,(H2,6,7,8)/t4-/m0/s1
