25
gdb 116154	3.08992	1.00103	0.80361	1.177	89.92	-0.2427	0.0883	0.331	1543.1118	0.229785	-389.520885	-389.511138	-389.510194	-389.55514	37.652	
C	-0.0603967585	 1.5778983701	 0.0036731853	-0.385497
C	 0.0137550878	 0.0489989008	-0.0082304706	-0.186356
C	 0.7202250087	-0.5128317958	-1.2392692739	 0.137436
C	 0.8703612678	-2.0390956087	-1.205374858	-0.196764
C	 1.4911925007	-2.5757980484	-2.5063103132	 0.023754
C	 1.5671808632	-4.1041265928	-2.5213454139	-0.402226
C	 0.7049350195	-2.0203436604	-3.7050718711	-0.193604
C	 0.5671280993	-0.5008951609	-3.6016754147	-0.08
O	-0.0324021624	-0.1104021162	-2.3800305873	-0.25878
H	 0.9415853345	 2.0217285886	 0.0201490728	 0.107437
H	-0.5735933226	 1.9428834144	-0.889134738	 0.134084
H	-0.5993763925	 1.940059064	 0.884442788	 0.106487
H	 0.5404561874	-0.312079706	 0.8836591758	 0.09104
H	-0.9973755814	-0.3751271792	 0.0283409651	 0.101016
H	 1.7300940558	-0.0642493639	-1.3093051704	 0.053078
H	 1.4827990967	-2.3296068722	-0.3427897495	 0.087925
H	-0.1233541949	-2.4854387206	-1.0615175758	 0.094139
H	 2.5170514408	-2.1814366155	-2.5718501005	 0.066851
H	 0.5662376711	-4.5470750763	-2.4590177383	 0.113322
H	 2.0354730996	-4.4695748948	-3.441736898	 0.108969
H	 2.1506564968	-4.481641476	-1.6745753543	 0.109228
H	 1.1971710437	-2.2854545466	-4.6488971983	 0.088672
H	-0.2977219802	-2.4675566739	-3.7244401132	 0.098089
H	 1.5603345374	-0.0281185232	-3.7030519319	 0.080309
H	-0.0722817781	-0.1046166866	-4.3965416761	 0.101388
88.6198	122.6977	163.1234	185.5681	234.3066	246.2679	287.3034	304.3183	369.3636	414.3059	444.5626	468.0279	506.7008	600.8901	764.5891	801.9205	840.5107	884.2419	914.2051	922.4776	973.6824	986.8399	1001.7622	1026.1899	1042.232	1074.1045	1121.1231	1123.7687	1138.4681	1190.3177	1196.4629	1204.155	1275.3272	1282.5133	1289.3886	1312.8157	1339.2377	1346.0877	1376.7053	1379.8322	1395.6616	1403.7971	1407.6319	1414.0351	1421.1885	1467.3085	1475.5803	1483.6456	1496.317	1497.4325	1499.5205	1501.3189	1510.0032	2915.4122	2949.3367	2984.3317	3012.4282	3018.4693	3024.8395	3027.8506	3035.6927	3057.1251	3063.3524	3067.1364	3076.5616	3091.594	3094.673	3099.3795	3127.2185
CCC1CC(C)CCO1	CC[C@H]1C[C@@H](C)CCO1	
InChI=1S/C8H16O/c1-3-8-6-7(2)4-5-9-8/h7-8H,3-6H2,1-2H3	InChI=1S/C8H16O/c1-3-8-6-7(2)4-5-9-8/h7-8H,3-6H2,1-2H3/t7-,8-/m0/s1
