20
gdb 97199	3.31822	1.07887	0.85437	1.5241	79.15	-0.2432	0.0216	0.2648	1367.6652	0.171166	-440.300047	-440.290847	-440.289903	-440.334222	34.065	
C	 0.02481701	 1.4595140839	 0.1552325	-0.326586
N	 0.0144987806	 0.0071936513	 0.1082804335	-0.284526
C	-1.0731466837	-0.6123681923	-0.0619317422	 0.38066
C	-1.1147149286	-2.1248912502	-0.0574596717	-0.306727
C	-2.0954563672	-2.7051592843	-1.0837323495	 0.119074
O	-2.2844543181	-4.0995304083	-0.9101942647	-0.437438
C	-3.4445371983	-2.0215715502	-0.9048718184	-0.211356
C	-3.2713082976	-0.513882852	-1.0391200595	-0.088855
O	-2.2855227333	 0.0250443907	-0.1468545079	-0.259909
H	 0.9046851861	 1.8221856862	-0.3860760387	 0.11913
H	-0.8749572138	 1.9294523518	-0.2565053327	 0.116741
H	 0.1351850039	 1.7885124527	 1.1961230545	 0.125751
H	-0.0959054282	-2.4902145415	-0.2063166146	 0.115971
H	-1.4494615243	-2.4581187096	 0.9343156691	 0.126615
H	-1.7229619075	-2.4928685708	-2.100782041	 0.070837
H	-1.4273951389	-4.530629387	-0.9924898232	 0.283678
H	-4.1599422189	-2.3775754533	-1.6530404562	 0.111748
H	-3.8426144489	-2.2742027107	 0.0845158328	 0.116421
H	-2.9908819672	-0.2544765393	-2.070117319	 0.107365
H	-4.1959288863	 0.016287583	-0.8001704906	 0.121406
72.182	97.7531	133.7189	218.7431	266.6087	274.7997	285.4441	337.544	393.3207	418.9483	484.7462	550.4438	622.5831	684.0761	807.6077	842.2977	900.2032	948.7681	969.3158	1029.4401	1079.0334	1087.3267	1099.6475	1119.6416	1128.9283	1148.9764	1189.3344	1216.9055	1251.3413	1270.7868	1300.729	1306.5798	1350.6615	1384.8739	1417.8721	1434.6664	1445.5684	1470.7039	1490.7328	1491.7039	1496.3259	1512.1661	1768.1436	2951.1953	3005.6411	3017.1716	3025.6746	3046.1251	3073.8759	3093.663	3094.876	3103.8379	3107.3123	3812.4765
CN=C1CC(O)CCO1	CN=C1C[C@@H](O)CCO1	
InChI=1S/C6H11NO2/c1-7-6-4-5(8)2-3-9-6/h5,8H,2-4H2,1H3	InChI=1S/C6H11NO2/c1-7-6-4-5(8)2-3-9-6/h5,8H,2-4H2,1H3/t5-/m0/s1
