15
gdb 19674	4.72454	1.80297	1.6819	4.3015	67.84	-0.2711	0.0251	0.2962	793.6883	0.121086	-325.488898	-325.482842	-325.481898	-325.519026	24.004	
N	 0.0494805327	-1.190601264	-0.0595669992	-0.336723
C	 0.036211965	-0.0353144473	-0.0103781751	 0.268049
C	 0.0295975262	 1.4235647047	 0.0592202306	-0.142639
C	-0.1517725181	 2.1317030102	 1.4059878649	-0.069162
C	 1.2316441052	 2.2570256322	 2.0594281905	-0.053389
C	 2.2471939884	 1.6101408187	 1.1196788865	-0.240353
C	 1.3887612685	 2.1946974483	-0.0333502756	-0.069163
C	 0.7926335374	 3.2367935789	 0.9985825848	-0.09678
H	-0.6809769041	 1.8163847292	-0.6731876353	 0.121475
H	-1.0630503031	 2.2047729164	 1.9836746998	 0.103671
H	 1.3154084755	 2.4275497036	 3.1246289259	 0.095781
H	 3.214474757	 2.1152426846	 1.1796962916	 0.10844
H	 2.3900636866	 0.5251382176	 1.1466693456	 0.120967
H	 1.8154244514	 2.4094646126	-1.0096662351	 0.088046
H	 0.6800952614	 4.3102345045	 0.9867566601	 0.101779
138.3699	164.4772	389.1929	418.5346	538.629	565.9938	727.8611	741.9979	791.8494	801.6139	817.765	878.6019	922.8508	959.4002	988.3125	994.3165	1013.4038	1026.1833	1035.6773	1060.0847	1082.2042	1131.9985	1163.0587	1168.4141	1194.8114	1236.3564	1274.0714	1314.6567	1347.7163	1367.6419	1502.0969	2349.5778	3051.7804	3078.2524	3110.4341	3151.985	3202.7571	3211.56	3236.2007
N#CC1C2C3CC1C23	N#C[C@H]1[C@H]2[C@H]3C[C@@H]1[C@@H]23	
InChI=1S/C7H7N/c8-2-5-3-1-4-6(3)7(4)5/h3-7H,1H2	InChI=1S/C7H7N/c8-2-5-3-1-4-6(3)7(4)5/h3-7H,1H2/t3-,4-,5+,6+,7+/m0/s1
