19
gdb 87951	3.25415	1.14169	0.96614	1.0325	81.33	-0.2052	0.0234	0.2286	1279.8898	0.157538	-423.012821	-423.003867	-423.002923	-423.046461	33.781	
C	 0.0187168713	 1.4885876663	-0.0102722803	-0.492003
C	-0.0284592022	-0.0037191385	 0.0042060281	 0.280375
C	-1.0622317076	-0.8144645144	 0.2278015365	-0.267768
C	-0.6233116122	-2.2209984456	 0.1273079427	 0.426888
C	-1.1414219693	-3.3426938906	 1.0083137149	-0.394106
C	-1.4570467524	-3.3136316715	-0.4751284355	 0.026193
O	-2.7423066719	-2.969819813	-0.9047726559	-0.422664
O	 0.7575482709	-2.2038126635	-0.1668759926	-0.313229
C	 1.193163007	-0.8488939773	-0.2652165386	-0.167138
H	 0.7248230548	 1.8724189224	 0.7372586184	 0.127984
H	 0.3589214824	 1.8654436957	-0.9832840216	 0.129396
H	-0.9629832719	 1.9218821614	 0.1965253986	 0.129882
H	-2.0849229313	-0.5304581884	 0.4320575042	 0.112335
H	-0.4183211828	-4.0720345973	 1.3570406251	 0.12191
H	-1.9434573334	-3.1041456806	 1.6995211395	 0.113553
H	-0.9193625299	-4.0240156534	-1.103543933	 0.096052
H	-3.3320414239	-3.6987638761	-0.6831119015	 0.287313
H	 1.6136411417	-0.6625528011	-1.2669775935	 0.103158
H	 2.0003097907	-0.6650024246	 0.4623261845	 0.101871
73.7871	131.6084	168.3053	188.4803	236.4257	288.0057	324.4246	389.0396	422.7979	448.5787	506.3813	584.9998	637.6011	811.8838	841.4851	854.1584	891.8058	908.139	919.3099	993.7926	1002.2573	1010.8675	1015.6203	1054.9666	1092.6375	1094.2063	1148.1737	1181.4225	1199.0045	1228.7555	1291.4224	1298.4344	1369.1633	1390.0529	1412.2102	1417.1275	1479.436	1483.3062	1490.5401	1519.8139	1724.7964	2965.4556	2981.4883	3017.8226	3062.229	3102.0677	3116.2388	3126.4605	3224.3538	3236.1303	3793.7387
CC1=CC2(CC2O)OC1	CC1=C[C@]2(C[C@H]2O)OC1	
InChI=1S/C7H10O2/c1-5-2-7(9-4-5)3-6(7)8/h2,6,8H,3-4H2,1H3	InChI=1S/C7H10O2/c1-5-2-7(9-4-5)3-6(7)8/h2,6,8H,3-4H2,1H3/t6-,7-/m1/s1
