16
gdb 51486	4.24665	1.06346	0.93545	4.702	72.48	-0.2555	-0.021	0.2345	1233.5317	0.124163	-437.852014	-437.844215	-437.843271	-437.885574	28.556	
N	-0.1308852881	 1.3201370721	-0.0519420342	-0.438255
C	-0.1213136589	 0.0625361883	-0.1378767266	 0.134602
O	-0.9086964715	-0.6765863211	 0.6703893177	-0.18981
C	-0.923324245	-2.0860984282	 0.4509348305	 0.075437
C	-1.2594277158	-2.8069710729	 1.7429240209	-0.111834
C	-2.2730867424	-3.6585853935	 1.5916452285	-0.08339
C	-2.8196134633	-3.5695524931	 0.1982347862	-0.003758
O	-3.3452607742	-2.2579906516	-0.0977935555	-0.236241
C	-2.0169988829	-2.5647691682	-0.5113026616	 0.003236
H	 0.5320659355	 1.7196399625	-0.7127963654	 0.230074
H	 0.4946193847	-0.5412437249	-0.820660785	 0.080929
H	 0.0604175872	-2.402842613	 0.0704982798	 0.091862
H	-0.7294120739	-2.5855074615	 2.6609992197	 0.121799
H	-2.6938799924	-4.2943598539	 2.3603521061	 0.116177
H	-3.3194050417	-4.3981765261	-0.2929007968	 0.106304
H	-1.8415930776	-2.5730545548	-1.5834783244	 0.102868
40.1081	99.8373	116.9349	235.8375	320.9542	406.4577	481.6341	492.463	686.9932	707.0504	759.0671	815.7133	832.9851	842.0357	870.9175	925.5605	951.8879	976.6476	1016.1147	1033.6324	1041.7551	1067.3903	1103.7237	1119.907	1149.3818	1253.268	1283.4535	1295.6882	1303.2203	1354.1603	1377.9993	1421.0722	1426.293	1674.1536	1749.195	2980.918	3007.2293	3151.4945	3173.7634	3205.5368	3228.7604	3520.0279
N=COC1C=CC2OC12	[NH][CH]O[C@H]1C=C[C@H]2O[C@@H]12	
InChI=1S/C6H7NO2/c7-3-8-4-1-2-5-6(4)9-5/h1-7H	InChI=1S/C6H7NO2/c7-3-8-4-1-2-5-6(4)9-5/h1-7H/t4-,5+,6-/m0/s1
