20
gdb 64043	2.52981	1.70219	1.41258	2.2925	78.67	-0.2305	0.0225	0.253	1025.067	0.171224	-403.159531	-403.151182	-403.150237	-403.191934	33.106	
C	 0.098454132	 1.4910521646	-0.0801222295	-0.408926
C	-0.0542295547	-0.0242794865	 0.0288343219	 0.3291
C	-1.5298106135	-0.4385543669	 0.1043150193	-0.41216
O	 0.4764671843	-0.5436613847	-1.2280844479	-0.268888
C	 0.9485111348	-1.8131135455	-1.2559682098	 0.106557
N	 1.3615479395	-2.52841564	-0.2968605786	-0.260253
C	 1.3708202543	-1.9364624008	 1.0069354635	 0.007833
C	 2.2063468247	-0.688065813	 1.224837851	-0.321982
C	 0.704380849	-0.5984750011	 1.2146144446	-0.049678
H	 1.1528437576	 1.7655955222	-0.1642179993	 0.124962
H	-0.430465235	 1.866515179	-0.9608530595	 0.122956
H	-0.3153018958	 1.9776384277	 0.8084614913	 0.115552
H	-2.0695825925	-0.0804474533	-0.7765664481	 0.122747
H	-1.6215779174	-1.5273187617	 0.1524546712	 0.131409
H	-2.0034709989	-0.0159075287	 0.9957332811	 0.116584
H	 0.9699939848	-2.187326345	-2.2778411897	 0.120155
H	 1.3468263683	-2.6666104632	 1.8083417344	 0.094145
H	 2.7185512357	-0.5707612156	 2.1734156262	 0.114954
H	 2.7546752813	-0.3174067965	 0.3651577755	 0.127751
H	 0.2146409215	-0.4209089208	 2.1677713324	 0.087183
90.4225	192.2105	215.4447	260.7064	301.6707	324.4605	337.7004	377.4482	474.7424	533.2108	565.508	607.2258	693.1476	798.8217	822.7531	853.0935	868.1407	927.8465	936.9404	954.381	988.1209	1000.5867	1035.189	1051.2493	1063.8552	1123.4567	1140.8593	1176.7977	1193.5732	1208.8265	1231.8471	1262.3111	1371.3473	1396.8762	1399.5822	1411.4894	1418.5727	1476.5201	1481.3467	1483.1412	1497.4703	1504.9435	1717.0178	3040.1993	3044.7219	3113.4115	3118.1426	3123.091	3125.5782	3132.2467	3146.8516	3156.5284	3165.5144	3221.3945
CC1(C)OC=NC2CC12	CC1(C)OC=N[C@H]2C[C@@H]12	
InChI=1S/C7H11NO/c1-7(2)5-3-6(5)8-4-9-7/h4-6H,3H2,1-2H3	InChI=1S/C7H11NO/c1-7(2)5-3-6(5)8-4-9-7/h4-6H,3H2,1-2H3/t5-,6+/m1/s1
