19
gdb 60889	2.86961	1.28433	1.06344	2.8683	76.14	-0.2412	-0.024	0.2172	1178.929	0.157022	-422.969171	-422.960281	-422.959336	-423.004304	32.585	
C	-0.0011461929	 1.520426095	-0.0209172608	-0.417029
C	 0.0662300464	-0.0171553657	-0.0129638345	-0.213927
C	-1.341787375	-0.5971283366	-0.0112883254	 0.160354
O	-1.7860329375	-1.3061196464	 0.854021055	-0.251917
C	 0.8217552089	-0.5401202183	-1.2122733909	 0.4296
C	 2.2370373725	-0.1749841284	-1.741698322	-0.271719
C	 1.4983763848	-1.0278853226	-2.7987393413	 0.052267
C	 1.0360233674	-2.0022878287	-1.6945174831	-0.266723
O	 0.2791794262	-0.2179912553	-2.5664034911	-0.349033
H	 1.0056186703	 1.9461372059	 0.0098105977	 0.129408
H	-0.4903698461	 1.8796943926	-0.9307149203	 0.145276
H	-0.5548776225	 1.8915523552	 0.8459486238	 0.12874
H	 0.5648156787	-0.3795678389	 0.8928237712	 0.102291
H	-1.953529132	-0.3026220952	-0.8921030003	 0.096559
H	 2.3792289496	 0.8719735452	-2.0111600887	 0.110502
H	 3.102560868	-0.6116560235	-1.2370759309	 0.099188
H	 1.7712493265	-1.2318667923	-3.8332934706	 0.100992
H	 1.7916784657	-2.6045190827	-1.184208113	 0.100455
H	 0.1244886212	-2.5585199293	-1.9163630649	 0.114717
22.5966	54.0241	170.0974	184.5121	211.1806	290.0463	366.7124	412.3852	462.9767	524.7167	603.8667	684.6823	733.8558	801.8885	883.8787	898.9757	912.4035	942.1274	954.6217	983.1145	985.9203	1052.8777	1061.8263	1096.7084	1119.6556	1136.6004	1149.8073	1167.0701	1216.196	1233.1042	1243.6283	1262.7066	1299.0224	1358.1927	1404.3658	1424.748	1467.3664	1495.282	1500.7142	1512.1647	1832.1656	2896.7984	3045.6451	3059.8857	3061.4414	3070.0773	3118.6742	3125.0092	3129.6084	3146.9372	3151.636
CC(C=O)C12CC(C1)O2	C[C@@H](C=O)[C@@]12C[C@@H](C1)O2	
InChI=1S/C7H10O2/c1-5(4-8)7-2-6(3-7)9-7/h4-6H,2-3H2,1H3	InChI=1S/C7H10O2/c1-5(4-8)7-2-6(3-7)9-7/h4-6H,2-3H2,1H3/t5-,6-,7+/m0/s1
