14
gdb 133177	3.10554	1.36681	0.95461	1.9815	67.96	-0.2392	-0.0654	0.1737	1122.5967	0.101194	-478.020153	-478.012583	-478.011639	-478.05237	28.221	
C	-0.0322872282	 1.5296531556	 0.0208792883	-0.475791
C	-0.004610935	 0.0377166369	-0.0552125449	 0.200866
C	-0.0243334995	-0.6801125304	-1.2066627455	-0.332396
C	 0.0067815013	-2.103479296	-1.1359532012	 0.359286
F	-0.0133740599	-2.7832039183	-2.2766376381	-0.065208
N	 0.0532736131	-2.7927190282	-0.0510784533	-0.253692
N	 0.0720806557	-2.0642678941	 1.083185269	-0.283922
C	 0.0477723327	-0.6817424624	 1.2265531718	 0.383932
O	 0.0710995181	-0.1585505068	 2.3288632886	-0.382741
H	 0.8521818561	 1.8958746672	 0.552815971	 0.158002
H	-0.07390147	 1.9850574081	-0.9705597754	 0.124609
H	-0.8939275287	 1.8604808039	 0.6102659627	 0.158057
H	-0.0630386717	-0.2068064949	-2.1821320517	 0.129674
H	 0.1088821758	-2.6061921404	 1.9359280789	 0.279324
121.954	135.8552	204.3704	274.7695	370.3918	375.5583	419.7932	467.7935	524.3396	586.4542	602.4167	714.6186	722.1746	779.1108	808.0854	912.3741	970.5034	1019.7214	1065.0302	1154.0592	1222.7651	1265.2571	1327.9578	1412.7718	1437.3739	1445.3306	1464.3107	1483.8855	1611.3267	1678.6963	1771.5927	3042.4669	3097.7022	3135.6497	3189.1995	3603.306
CC1=CC(F)=NNC1=O	Cc1cc(F)n[nH]c1=O	
InChI=1S/C5H5FN2O/c1-3-2-4(6)7-8-5(3)9/h2H,1H3,(H,8,9)	InChI=1S/C5H5FN2O/c1-3-2-4(6)7-8-5(3)9/h2H,1H3,(H,8,9)
