20
gdb 61223	3.17825	0.98152	0.85454	2.5012	81.24	-0.2448	0.0544	0.2992	1407.0022	0.168164	-403.08577	-403.075594	-403.074649	-403.121071	37.788	
C	 0.5116507943	-0.6950659538	-1.2417440033	-0.467839
C	-0.025516575	 0.073950934	-0.0505954413	 0.299793
C	 0.9282582343	 0.8938190033	 0.7484062536	-0.287232
N	-0.0661231819	 1.5427778286	-0.1277968715	-0.345435
C	-1.2345567378	-0.6005584563	 0.6032533193	 0.073512
O	-0.8767224021	-1.8923655656	 1.0768761828	-0.421463
C	-1.9154530806	 0.2472633949	 1.6972554686	-0.407627
C	-3.1816247833	-0.3205792362	 2.1390394986	 0.308201
C	-4.2318668778	-0.7868652788	 2.4907151072	-0.429624
H	 1.432414463	-0.2425704596	-1.6236976306	 0.107622
H	 0.7195098218	-1.7319228655	-0.9662376448	 0.141855
H	-0.224849889	-0.7086802219	-2.0539803208	 0.123345
H	 0.7794422617	 1.0699775573	 1.8102097574	 0.116921
H	 1.9711880469	 0.8905676715	 0.4417668366	 0.112371
H	 0.3770755379	 1.8579689223	-0.9874112685	 0.230812
H	-1.9763994008	-0.7927807004	-0.1810152895	 0.101589
H	-0.2277126988	-1.7752091784	 1.7802553631	 0.278519
H	-1.238678238	 0.3399542199	 2.5581225016	 0.113822
H	-2.0604331378	 1.2608790099	 1.3092097996	 0.160251
H	-5.1577033572	-1.1997477651	 2.805506362	 0.190606
51.4778	67.8855	124.9056	212.7043	229.8646	249.2818	306.8183	319.244	344.3322	367.9595	384.9056	458.7372	509.9809	548.4597	610.0931	635.7744	744.0948	848.6604	867.8054	928.8904	939.9692	963.2313	983.486	1002.2136	1042.5377	1050.3214	1097.4132	1121.4743	1153.9672	1189.1391	1247.3837	1271.2921	1310.584	1332.0487	1380.7895	1393.732	1410.609	1420.8949	1469.8559	1482.3496	1505.4374	1518.9656	2241.4745	3011.4876	3029.5195	3047.0822	3080.1088	3093.1937	3107.1787	3123.44	3187.6453	3493.9114	3508.483	3792.2515
CC1(CN1)C(O)CC#C	C[C@]1(CN1)[C@@H](O)CC#C	
InChI=1S/C7H11NO/c1-3-4-6(9)7(2)5-8-7/h1,6,8-9H,4-5H2,2H3	InChI=1S/C7H11NO/c1-3-4-6(9)7(2)5-8-7/h1,6,8-9H,4-5H2,2H3/t6-,7-/m0/s1
