16
gdb 123463	5.13209	0.91208	0.86819	2.6022	69.91	-0.2557	0.0067	0.2624	1327.9275	0.12631	-434.066216	-434.058456	-434.057512	-434.100896	27.702	
C	-0.0350970515	 1.5902831345	-0.0591653735	-0.346914
C	-0.1873503583	 0.15101903	 0.381992427	 0.111029
C	-1.3012898355	-0.6805886995	-0.0856468721	-0.184806
O	 0.0141608293	-0.8495337343	-0.6174803098	-0.23089
C	 1.3923744354	 2.0501691627	-0.0947597752	 0.360707
N	 2.2659254808	 1.7514680263	 0.8571682494	-0.269016
N	 3.3879864808	 2.3738929777	 0.4232114361	-0.175781
C	 3.1501527654	 3.0063104589	-0.7410645758	 0.016999
N	 1.8949810308	 2.8263347505	-1.1019860246	-0.302179
H	-0.4603338308	 1.7197700544	-1.0575367643	 0.132446
H	-0.6075284438	 2.231418869	 0.6250106782	 0.123576
H	 0.2660685677	-0.0871028717	 1.3436909966	 0.110012
H	-1.667547729	-1.4977956376	 0.5343715887	 0.113229
H	-2.0328432095	-0.2593928721	-0.7748703162	 0.111776
H	 4.2390060898	 2.3046986255	 0.9564252641	 0.282481
H	 3.9007224785	 3.5686741457	-1.2758152187	 0.147332
14.6135	61.095	132.8765	275.9483	341.3032	356.5793	457.0866	541.5442	681.5431	704.2268	773.9391	803.0422	854.425	864.7684	947.5086	966.851	996.5939	1011.511	1088.6129	1097.4966	1114.589	1159.3585	1167.8653	1179.5347	1223.1604	1274.1918	1297.318	1316.1517	1369.3379	1445.3144	1461.1737	1472.1932	1486.7536	1531.3689	1552.5529	3022.6212	3079.2648	3103.7508	3124.6002	3165.1119	3259.3939	3666.3431
C(C1CO1)C1=NNC=N1	C([C@H]1CO1)c1n[nH]cn1	
InChI=1S/C5H7N3O/c1(4-2-9-4)5-6-3-7-8-5/h3-4H,1-2H2,(H,6,7,8)	InChI=1S/C5H7N3O/c1(4-2-9-4)5-6-3-7-8-5/h3-4H,1-2H2,(H,6,7,8)/t4-/m0/s1
