17
gdb 71479	4.03333	1.26889	1.14125	3.1177	74.25	-0.242	-0.0316	0.2104	1094.8924	0.133933	-421.778149	-421.770208	-421.769264	-421.810499	30.365	
C	 0.186321563	 1.4958764039	 0.0977114985	-0.506397
C	 0.0365426828	 0.0087902155	 0.1242553953	 0.399533
C	-1.327634756	-0.7405061087	 0.2212724305	-0.266747
C	-0.4997313096	-1.9308744445	 0.6957974053	-0.140535
C	 0.6279584947	-1.042187417	 1.1512910966	-0.22123
C	 0.8136078886	-1.8033706933	-0.132465646	 0.369047
O	 0.6927028375	-0.6788757694	-0.9927041326	-0.356479
C	 1.6993471261	-2.9290772292	-0.4477465059	 0.0499
O	 1.867167066	-3.8770141726	 0.2841918523	-0.273684
H	 1.2422140993	 1.7799126841	 0.0993093465	 0.136961
H	-0.278212207	 1.9016955598	-0.8073043153	 0.139028
H	-0.3012601931	 1.945962364	 0.9674459119	 0.128107
H	-1.9489141178	-0.3445376923	 1.028532367	 0.110566
H	-1.8991141995	-0.8222830369	-0.7078462327	 0.107275
H	-0.8040827881	-2.8867486145	 1.099758894	 0.119324
H	 1.2346579215	-0.9985263572	 2.0451458661	 0.116602
H	 2.2164137117	-2.8342134616	-1.4274640014	 0.088728
108.6169	158.6102	179.3774	204.496	286.4722	307.6646	435.0522	487.2716	563.9662	622.6855	677.5715	733.1864	784.4948	809.1232	851.9772	874.6857	912.5187	946.3195	968.4879	1000.3193	1038.4864	1048.6755	1081.6167	1122.8752	1134.4722	1141.3618	1216.6847	1234.9977	1241.237	1339.8575	1384.3406	1417.1686	1435.9504	1478.567	1486.728	1488.8374	1802.4235	2899.1266	3040.4473	3055.2867	3111.474	3118.6643	3122.6019	3211.4332	3223.4536
CC12CC3C1C3(O2)C=O	C[C@]12C[C@@H]3[C@H]1[C@@]3(O2)C=O	
InChI=1S/C7H8O2/c1-6-2-4-5(6)7(4,3-8)9-6/h3-5H,2H2,1H3	InChI=1S/C7H8O2/c1-6-2-4-5(6)7(4,3-8)9-6/h3-5H,2H2,1H3/t4-,5-,6+,7-/m1/s1
