14
gdb 43292	2.50201	1.60304	1.42663	5.1513	71.57	-0.2603	-0.0753	0.185	953.1949	0.102207	-399.57558	-399.568504	-399.56756	-399.607348	26.802	
O	 0.0316497832	-0.019280033	-0.1244788178	-0.315637
C	-0.0202282297	 1.1819820079	-0.0394106859	 0.399485
C	-1.2339888201	 2.0449533802	 0.0249814518	-0.179388
C	-0.8835466264	 3.337465319	 0.0097029486	-0.069393
C	 0.602610011	 3.5150247628	-0.0262494628	-0.105059
C	 1.3567162878	 3.0190214411	 1.2090605321	-0.190072
C	 0.6929294539	 2.7625859647	 2.4591446127	 0.30867
N	 0.1835466668	 2.5750032493	 3.4801092856	-0.331787
C	 1.1743216333	 2.1299056592	-0.0246465075	-0.185674
H	-2.2320952964	 1.6362343576	 0.1017389177	 0.134392
H	-1.5606728889	 4.1809729471	 0.0681285066	 0.133638
H	 1.0445964008	 4.3357803697	-0.5779520261	 0.121573
H	 2.3625127659	 3.410651161	 1.3317425388	 0.149628
H	 2.0692178089	 1.8429808431	-0.5607500837	 0.129623
93.5371	135.5798	221.5752	303.5022	388.9041	455.2146	539.2105	591.9731	638.1158	737.2343	757.8795	772.8321	794.897	854.0917	872.0515	930.8321	973.8689	985.1616	1015.095	1036.8704	1099.507	1113.9429	1167.3032	1177.4523	1300.1774	1326.6491	1360.0011	1388.4411	1635.112	1825.6036	2357.9078	3157.074	3189.414	3210.5326	3212.8235	3243.3593
O=C1C=CC2C(C#N)C12	O=C1C=C[C@H]2[C@@H](C#N)[C@@H]12	
InChI=1S/C7H5NO/c8-3-5-4-1-2-6(9)7(4)5/h1-2,4-5,7H	InChI=1S/C7H5NO/c8-3-5-4-1-2-6(9)7(4)5/h1-2,4-5,7H/t4-,5+,7-/m0/s1
