17
gdb 32638	5.07756	0.87343	0.79264	7.5689	79.64	-0.2378	-0.0336	0.2042	1437.528	0.136656	-418.060095	-418.051573	-418.050629	-418.094217	30.326	
C	 0.0621510105	 1.5565857813	 0.0653925346	-0.373643
C	-0.0375971021	 0.0336666791	-0.0393745386	-0.164546
N	 0.6567747953	-0.5032290867	-1.204565493	 0.01487
C	 0.086739521	-0.8781963595	-2.3986908318	 0.008827
N	 0.9679894237	-1.2764544945	-3.2757288653	-0.298759
C	 2.1870323366	-1.1585113729	-2.6370191001	 0.164217
C	 3.4772122924	-1.4994087311	-3.2361037263	 0.084496
O	 3.653865274	-1.9194888868	-4.3548742651	-0.269496
C	 2.0031290281	-0.6786072814	-1.3542461369	-0.170832
H	 1.1039431801	 1.8770435901	 0.1546094294	 0.134928
H	-0.367953925	 2.0370205589	-0.8177761671	 0.139456
H	-0.479945935	 1.9068812785	 0.9486020494	 0.130864
H	 0.3749034281	-0.4432982691	 0.8552092578	 0.132748
H	-1.0830157399	-0.2782520684	-0.1158903502	 0.132749
H	-0.9837225659	-0.8371282162	-2.5445929395	 0.135252
H	 4.334210294	-1.3312385816	-2.5413438291	 0.054062
H	 2.6998303341	-0.4614212598	-0.5600890681	 0.144809
50.072	80.2201	160.1301	171.5734	227.8401	292.1936	343.8447	402.828	485.7114	644.9628	679.8889	699.2929	773.0171	787.8062	795.9589	846.5272	962.9781	991.604	1029.2779	1061.548	1103.4898	1111.5168	1164.3538	1252.0575	1277.7656	1346.9659	1386.81	1388.818	1411.0178	1418.8874	1440.8383	1487.1648	1490.1117	1506.5336	1538.6686	1565.9298	1807.6362	2845.2307	3046.5389	3056.8245	3097.2672	3123.0963	3129.1915	3238.6562	3262.5364
CCN1C=NC(C=O)=C1	CCn1cnc(C=O)c1	
InChI=1S/C6H8N2O/c1-2-8-3-6(4-9)7-5-8/h3-5H,2H2,1H3	InChI=1S/C6H8N2O/c1-2-8-3-6(4-9)7-5-8/h3-5H,2H2,1H3
