18
gdb 23241	2.54845	1.36061	1.18767	1.2246	75.95	-0.2305	0.0128	0.2433	1119.2088	0.145992	-439.007749	-438.998751	-438.997807	-439.041147	33.962	
C	-0.2345328589	 1.6157345688	 0.0159438135	-0.416548
C	 0.0241769051	 0.1124312157	-0.0022378961	-0.074923
C	 0.68023356	-0.5625169832	-1.2303877896	-0.117067
C	 2.1266718394	-0.2435465431	-1.3670227593	 0.1137
O	 2.6249120614	 1.0294326024	-1.0757242998	-0.415637
C	 1.7451471215	-1.2416652891	-0.2996928008	-0.235148
C	 1.1209546199	-0.5296890237	 0.8478741967	 0.435142
N	 1.390083057	-0.6233919826	 2.0827975151	-0.274256
O	 0.5044026491	 0.1640275481	 2.8513255468	-0.395532
H	 0.6785567115	 2.1722725505	-0.1954512267	 0.142962
H	-0.9824002982	 1.8790403916	-0.7401784368	 0.107742
H	-0.6163586301	 1.917334348	 0.99478689	 0.130939
H	-0.9047057088	-0.4218933342	 0.2368145578	 0.103069
H	 0.1250748295	-1.0197094543	-2.0403858979	 0.097499
H	 2.5943256857	-0.713982657	-2.2340108436	 0.096549
H	 3.4201672414	 0.9233489802	-0.5428432285	 0.292286
H	 2.1327727771	-2.252698746	-0.2863614923	 0.104316
H	 0.8130405372	-0.005192462	 3.7474818716	 0.304905
82.5504	167.2387	194.0701	203.3726	228.8043	265.5245	289.4334	333.7407	385.6251	480.6101	494.595	632.9411	652.9126	708.7072	729.4922	793.5939	822.2635	927.0999	958.2417	972.9124	988.0871	996.5038	1061.6021	1086.7842	1100.6638	1133.0048	1184.2106	1212.4356	1229.454	1284.8609	1307.1116	1336.7712	1356.3331	1400.4846	1410.4186	1447.5139	1490.474	1510.6415	1782.8803	3025.5092	3043.6128	3088.3683	3111.5654	3155.8869	3186.0365	3196.2819	3809.6982	3822.313
CC1C2C(O)C2C1=NO	C[C@H]1[C@H]2[C@@H](O)[C@H]2C1=NO	
InChI=1S/C6H9NO2/c1-2-3-4(6(3)8)5(2)7-9/h2-4,6,8-9H,1H3	InChI=1S/C6H9NO2/c1-2-3-4(6(3)8)5(2)7-9/h2-4,6,8-9H,1H3/t2-,3+,4+,6+/m0/s1
