14
gdb 80787	2.042	1.85731	1.16834	1.3943	71.02	-0.2446	-0.0209	0.2237	1029.4215	0.099645	-436.587378	-436.579593	-436.578649	-436.619617	29.802	
O	 0.1378240806	 1.3823791988	-0.1226751262	-0.441258
C	 0.0957773417	 0.0046701874	-0.0659601776	 0.189576
C	 0.0138703704	-0.6735767562	 1.3438146083	-0.21925
N	-1.409519744	-0.1098743978	 1.4003055491	-0.374605
C	-1.3304644849	-0.6883977168	-0.0316435774	 0.058876
C	-2.3985300805	-0.6257122788	-0.968260087	 0.037612
C	-3.2891526555	-0.5958300302	-1.7759563864	-0.339311
C	-0.6121650467	-1.8913937706	 0.6514871514	 0.423498
O	-0.6780033424	-3.0757736315	 0.7270129546	-0.307603
H	-0.5240858472	 1.6991302284	 0.5100196434	 0.300596
H	 0.8146425048	-0.4028004329	-0.7761648006	 0.117862
H	 0.6962974168	-0.5921631064	 2.1855299937	 0.116301
H	-2.0208524971	-0.6760421835	 1.9938016681	 0.24399
H	-4.075504466	-0.5686749098	-2.4896056436	 0.193716
110.9622	154.9156	172.8779	275.6276	326.1393	369.5571	479.9054	542.4944	569.5446	575.8357	611.8358	628.5722	674.485	727.5488	777.1311	802.1641	848.8922	879.3274	930.7084	1031.4355	1086.2961	1150.3104	1167.7887	1174.5431	1206.8179	1249.2236	1313.877	1326.7437	1455.7378	1916.9227	2235.3227	3133.0298	3168.8892	3431.4065	3499.1542	3733.2917
OC1C2NC1(C#C)C2=O	O[C@H]1[C@H]2N[C@]1(C#C)C2=O	
InChI=1S/C6H5NO2/c1-2-6-4(8)3(7-6)5(6)9/h1,3-4,7-8H	InChI=1S/C6H5NO2/c1-2-6-4(8)3(7-6)5(6)9/h1,3-4,7-8H/t3-,4+,6+/m1/s1
