21
gdb 39655	3.93658	1.03766	0.98484	1.6387	82.68	-0.2338	0.0851	0.3189	1302.6327	0.184132	-387.035994	-387.027888	-387.026943	-387.069569	31.077	
C	 0.0838431137	 1.4350647121	-0.2605557941	-0.060058
C	 1.5245005026	 1.4697823411	 0.2826809099	-0.297355
C	 1.2091221502	 0.0455983207	 0.8014444438	 0.138459
O	-0.0673719216	 0.0479701035	 0.1022434164	-0.297043
C	 2.0962007034	-1.0798947482	 0.3599057921	-0.008592
C	 3.2779891094	-1.6151184058	 1.1313941993	-0.081958
C	 3.0176587647	-1.6534359446	 2.6446962738	-0.229887
C	 1.7548377843	-2.5401263213	 2.3905372688	-0.23309
C	 2.0439588222	-2.4921487483	 0.8841164446	-0.067803
H	-0.6249277952	 2.0788546524	 0.2778538311	 0.096004
H	-0.0452803125	 1.5949885987	-1.3373893372	 0.101612
H	 2.2962010335	 1.4904255003	-0.4901080458	 0.107164
H	 1.7501441653	 2.2255037612	 1.0364814546	 0.106051
H	 1.0418159824	 0.019320024	 1.885018751	 0.071182
H	 2.283727398	-1.0547417202	-0.7126004133	 0.082349
H	 4.2583475297	-1.6719994443	 0.672663343	 0.081809
H	 3.7948761516	-2.2015175573	 3.1817671001	 0.102798
H	 2.8699061291	-0.6928323635	 3.1482376647	 0.095705
H	 1.8721859068	-3.5430412948	 2.8060876281	 0.10276
H	 0.7868627991	-2.1463745996	 2.7151419313	 0.105397
H	 1.9272617734	-3.3269492258	 0.2033935578	 0.084497
49.8276	86.1866	151.8564	187.4478	285.7371	356.4406	470.4131	491.8113	733.2631	747.767	782.4145	789.765	796.8654	841.6565	885.9874	940.8959	943.7034	950.4958	966.6376	1001.6978	1015.053	1021.1523	1025.2363	1069.2061	1077.7434	1088.4357	1119.1968	1146.3909	1167.553	1210.1827	1221.9311	1235.997	1244.4972	1253.7511	1262.8439	1281.8392	1304.9721	1328.3468	1356.0111	1368.4041	1467.8375	1485.4829	1489.9493	1507.3269	1533.789	3005.4838	3026.9281	3048.315	3050.8908	3057.7669	3073.6697	3095.6617	3114.8297	3121.2964	3130.5788	3170.8967	3184.1869
C1CC(O1)C1C2CCC12	C1C[C@@H](O1)[C@H]1[C@H]2CC[C@@H]12	
InChI=1S/C8H12O/c1-2-6-5(1)8(6)7-3-4-9-7/h5-8H,1-4H2	InChI=1S/C8H12O/c1-2-6-5(1)8(6)7-3-4-9-7/h5-8H,1-4H2/t5-,6+,7-,8-/m1/s1
