13
gdb 130632	5.11817	1.3103	1.05004	3.5419	64.04	-0.2347	-0.0193	0.2154	1028.102	0.09239	-452.785261	-452.778876	-452.777932	-452.816172	24.559	
O	 0.0042340391	 0.0344954427	 0.0032790076	-0.302089
C	-0.0400318017	 1.2222491231	 0.0104822398	 0.41493
C	-1.3047840722	 2.1331548679	 0.0332779348	-0.515411
C	-0.6580090929	 3.4706661581	 0.0314547398	 0.299675
C	 0.6996809352	 3.3220400805	 0.0115413805	 0.279258
O	 1.1105537522	 2.0045806956	-0.0014702775	-0.243342
C	 1.2566585197	 4.6072109866	 0.0108028204	-0.138687
N	 0.268114433	 5.5110477751	 0.0295400319	-0.214575
N	-0.8840847754	 4.8036874227	 0.0418480057	-0.322308
H	-1.9200180401	 1.9012172021	-0.8424255371	 0.165352
H	-1.8951365355	 1.8915759137	 0.9233855561	 0.165351
H	 2.2853644112	 4.9286694347	-0.0018576596	 0.131146
H	-1.7557035926	 5.3047793272	 0.0567672576	 0.2807
115.9262	212.0354	335.4584	352.5697	487.2039	544.5512	557.7723	569.1312	681.438	694.5182	733.1333	797.6199	854.8806	865.8271	966.8525	978.4415	1041.6312	1099.3588	1154.514	1199.8108	1229.2315	1242.8676	1336.0787	1404.2686	1446.7558	1464.1178	1566.1066	1616.2996	1914.6371	3052.7403	3088.7985	3271.3651	3678.6825
O=C1CC2=C(O1)C=NN2	O=C1Cc2c(O1)cn[nH]2	
InChI=1S/C5H4N2O2/c8-5-1-3-4(9-5)2-6-7-3/h2H,1H2,(H,6,7)	InChI=1S/C5H4N2O2/c8-5-1-3-4(9-5)2-6-7-3/h2H,1H2,(H,6,7)
