16
gdb 129635	3.25376	0.99084	0.79575	3.1886	68.7	-0.2241	-0.0316	0.1926	1378.8268	0.123541	-471.173632	-471.164456	-471.163512	-471.208992	31.833	
N	 0.2501722423	 1.4390664671	 0.3254367133	-0.601504
C	 0.0536122997	 0.0940367945	 0.0189095912	 0.162189
C	-1.0889235209	-0.616927195	-0.2138111462	 0.357941
C	-2.5361993981	-0.2801840522	-0.1936458483	-0.305406
C	-3.2213493979	-0.5008159571	-1.547132659	-0.069285
O	-4.5796722105	-0.1363886453	-1.3800500495	-0.417398
O	-0.7136810874	-1.8736492813	-0.5263883983	-0.216081
N	 0.6904406282	-1.9136114439	-0.5018369342	-0.021054
N	 1.1089118145	-0.7645326058	-0.174668918	-0.173986
H	 1.2224668268	 1.6200068616	 0.5406103215	 0.261196
H	-0.336494526	 1.7730553491	 1.0789500815	 0.254982
H	-3.0632797517	-0.87864997	 0.5591326012	 0.138419
H	-2.6527610491	 0.7701386912	 0.0905432408	 0.125603
H	-2.7247820254	 0.1132180539	-2.3138167619	 0.101575
H	-3.1136249888	-1.5543338375	-1.8427815175	 0.111119
H	-5.0366851955	-0.2819626493	-2.2134122764	 0.291691
33.7054	84.7697	111.5552	135.7693	240.609	245.1522	290.4997	349.2685	363.9492	473.1445	664.6984	680.9078	708.561	748.1727	780.9856	802.9266	818.1069	1003.8376	1016.3376	1055.9152	1085.2743	1088.5071	1196.5948	1236.9242	1262.9369	1267.616	1316.372	1345.0988	1423.9654	1446.2804	1457.1788	1479.4874	1529.4118	1644.523	1689.8027	2984.3679	3020.6226	3039.8821	3094.5117	3542.8608	3633.4221	3833.8749
NC1=C(CCO)ON=N1	Nc1c(CCO)onn1	
InChI=1S/C4H7N3O2/c5-4-3(1-2-8)9-7-6-4/h8H,1-2,5H2	InChI=1S/C4H7N3O2/c5-4-3(1-2-8)9-7-6-4/h8H,1-2,5H2
