15
gdb 48572	5.69549	0.94128	0.92688	1.9687	72.77	-0.275	-0.0601	0.2149	1226.2158	0.112564	-416.75164	-416.743801	-416.742857	-416.784574	28.666	
O	-0.5625306963	 0.789625898	-0.6745393887	-0.234768
C	 0.1390864404	 1.1286472582	 0.2433646901	 0.032388
C	 1.3962462523	 1.9172923494	 0.0704775161	 0.227264
C	 2.8601613225	 1.3919286308	 0.232127987	-0.26138
C	 2.912733718	 2.9283070365	 0.0081862381	 0.231887
C	 1.8686556007	 2.7630452187	-1.1393147793	-0.299978
N	 1.7943563239	 3.0295230125	 1.0419609008	-0.368187
C	 4.0676798277	 3.7929738699	 0.0361556505	 0.171325
N	 4.9924839799	 4.4861587379	 0.0375911466	-0.338376
H	-0.0944481156	 0.8671579793	 1.2985096431	 0.099667
H	 3.1336364334	 1.0626622118	 1.2333339003	 0.137394
H	 3.2472916411	 0.7607093323	-0.566739768	 0.129365
H	 2.1861888068	 2.2390681951	-2.0431281342	 0.127416
H	 1.2711768584	 3.6490901763	-1.3647864209	 0.121961
H	 1.2338786168	 3.8640707335	 0.8363222785	 0.224023
64.5254	114.8918	148.0774	221.0944	281.729	423.5109	507.6775	520.3541	559.524	564.0811	604.0799	705.1082	768.6264	844.0054	939.5664	949.2734	973.3725	1036.4903	1052.8942	1076.8406	1110.569	1131.8899	1144.8751	1163.0756	1232.4723	1264.5076	1288.0139	1348.0131	1409.6281	1477.8367	1525.5989	1824.4478	2358.0203	2901.3426	3066.7492	3099.3881	3141.3485	3185.893	3380.5666
O=CC12CC(C1)(N2)C#N	O=C[C@@]12C[C@@](C1)(N2)C#N	
InChI=1S/C6H6N2O/c7-3-5-1-6(2-5,4-9)8-5/h4,8H,1-2H2	InChI=1S/C6H6N2O/c7-3-5-1-6(2-5,4-9)8-5/h4,8H,1-2H2/t5-,6+
