23
gdb 121368	2.50165	1.07672	0.86668	1.9558	82.17	-0.2396	0.0791	0.3186	1451.5743	0.205598	-425.420581	-425.410556	-425.409611	-425.45615	36.068	
C	-0.3602435959	 1.3531648697	-0.1220247572	-0.229025
O	-0.0526319028	-0.0168467962	-0.0363790678	-0.233398
C	 0.5234578043	-0.5278850334	-1.2215994455	-0.063605
C	 0.7776577076	-2.0196933144	-1.0152618737	-0.042607
C	-0.538205283	-2.7911000838	-0.8631691577	-0.079357
O	-1.0005310469	-3.0155347179	-2.1918788257	-0.264077
C	 0.1230212453	-3.1199248355	-3.0627495636	-0.070859
C	 1.381950183	-2.744141464	-2.2442016663	-0.010273
C	 2.4463752119	-2.0011392751	-3.0518853618	-0.421878
H	 0.538089143	 1.9638486073	-0.3071073655	 0.101699
H	-1.0849880166	 1.5608099291	-0.9252434136	 0.105467
H	-0.797798262	 1.6518193899	 0.8338321632	 0.126349
H	-0.1549149524	-0.3651442212	-2.076306153	 0.09569
H	 1.4635501611	 0.0032233245	-1.4418276251	 0.083448
H	 1.4123383526	-2.1347721387	-0.1308953888	 0.077866
H	-0.3699342866	-3.7463215797	-0.3397472054	 0.080283
H	-1.3038162089	-2.2283627587	-0.3246021041	 0.119911
H	 0.1961359759	-4.1381569196	-3.4692986199	 0.093122
H	-0.0301843042	-2.4352421742	-3.9082122848	 0.093947
H	 1.8296697498	-3.6717170393	-1.867480494	 0.080557
H	 2.0528179173	-1.0794141157	-3.492303029	 0.121343
H	 3.3096072787	-1.7382887293	-2.4318105048	 0.118373
H	 2.8108893991	-2.6259790637	-3.8742988559	 0.117025
72.1742	80.503	100.3816	145.0465	164.2969	232.8505	240.7145	274.1423	327.1687	364.7627	463.0121	485.6327	636.2509	709.2193	844.4932	875.7452	914.4168	938.8498	956.5691	986.6061	1000.2352	1018.3828	1078.1789	1086.052	1133.9631	1158.9954	1169.957	1182.0806	1193.542	1209.9079	1231.7668	1243.3883	1256.3905	1287.2144	1331.6219	1351.0785	1365.465	1374.171	1405.5254	1414.1166	1430.6196	1479.821	1485.2843	1497.6465	1500.2805	1503.2291	1518.8767	1528.2313	1533.6894	2955.9415	2968.9689	2971.114	2989.5409	2998.0236	3011.8919	3015.5997	3031.8041	3036.8372	3066.139	3095.878	3103.898	3106.6181	3112.3515
COCC1COCC1C	COC[C@H]1COC[C@H]1C	
InChI=1S/C7H14O2/c1-6-3-9-5-7(6)4-8-2/h6-7H,3-5H2,1-2H3	InChI=1S/C7H14O2/c1-6-3-9-5-7(6)4-8-2/h6-7H,3-5H2,1-2H3/t6-,7+/m1/s1
