21
gdb 106470	2.52505	1.5843	1.232	2.8169	82.01	-0.2302	-0.0042	0.226	1112.1889	0.183611	-387.112248	-387.103953	-387.103009	-387.144978	32.785	
C	 0.0898598896	 1.533890781	 0.1711469514	-0.391271
C	-0.0952712341	 0.026515186	-0.0483738864	-0.297192
C	 0.6716397345	-0.5038476248	-1.2380782474	 0.23892
C	 2.2346099187	-0.4080871672	-1.4017933064	-0.270409
C	 2.0171983183	-1.5309482408	-2.4536138926	-0.028939
C	 0.8723436434	-2.0373271895	-1.5335509832	-0.282772
C	 1.2361616865	-0.7913181188	-3.5554459945	-0.328119
C	 0.2442787363	-0.0518576669	-2.6332633476	 0.416029
O	-0.6556236457	 0.6869897726	-2.9373485712	-0.348937
H	 1.1426429541	 1.7839795541	 0.3424066701	 0.111151
H	-0.2584576662	 2.0956665809	-0.6989089753	 0.144508
H	-0.4769209507	 1.8714736132	 1.043893737	 0.111384
H	 0.2123333077	-0.5212280443	 0.8512136805	 0.09003
H	-1.1605786938	-0.1898046022	-0.1978282938	 0.108873
H	 2.6668318599	 0.5402784619	-1.7343148458	 0.101178
H	 2.7471336408	-0.7612504602	-0.503311775	 0.105073
H	 2.8304750918	-2.1843148352	-2.7663682895	 0.070952
H	 1.2373676448	-2.5622730079	-0.6472445802	 0.104834
H	 0.0440208268	-2.5912517829	-1.9859166035	 0.100833
H	 1.8398955557	-0.0867414499	-4.1363850072	 0.121737
H	 0.7115539217	-1.4502408491	-4.2544116593	 0.122138
87.346	135.1909	184.4678	208.9568	283.8324	387.6858	401.5069	448.2664	496.9638	593.4786	629.4103	642.6279	736.7427	791.13	835.7008	877.0772	887.6445	901.3935	951.9693	969.6707	981.4496	998.9933	1027.4296	1070.5121	1074.3328	1094.8194	1104.7829	1134.7349	1187.1358	1199.2202	1226.9035	1253.3396	1271.2175	1302.3183	1314.9027	1346.8716	1378.6407	1408.2199	1461.5002	1478.5744	1486.8496	1500.0273	1513.6146	1524.5658	1855.3557	3020.8991	3038.6554	3048.5784	3051.7313	3054.4764	3056.1727	3098.9362	3102.6757	3111.2614	3113.3717	3122.191	3129.395
CCC12CC(C1)CC2=O	CC[C@@]12C[C@@H](C1)CC2=O	
InChI=1S/C8H12O/c1-2-8-4-6(5-8)3-7(8)9/h6H,2-5H2,1H3	InChI=1S/C8H12O/c1-2-8-4-6(5-8)3-7(8)9/h6H,2-5H2,1H3/t6-,8+
