14
gdb 129925	2.47958	1.84065	1.05761	5.5877	71.45	-0.1923	-0.0308	0.1615	1038.3187	0.10316	-470.03579	-470.028168	-470.027224	-470.067549	29.707	
N	-0.0002798	 1.4015027007	 0.1380025096	-0.586606
C	-0.037823038	 0.0213625539	 0.051852149	 0.184652
C	-1.173942872	-0.7421974194	 0.0408159874	-0.069665
N	-1.0903683773	-2.0979261803	 0.0049897361	-0.229762
N	 0.0535897309	-2.7907641287	-0.0116406299	-0.305524
C	 1.1611112277	-2.0984695081	-0.0016982919	 0.329695
O	 2.3258079206	-2.7721944635	-0.028551169	-0.390121
C	 1.2597238409	-0.6380268678	 0.0208969149	 0.260947
O	 2.3184716643	-0.0091282598	 0.0051586408	-0.41048
H	 0.9333796484	 1.7382255816	-0.0717299925	 0.265999
H	-0.7329484883	 1.9100593264	-0.3327602537	 0.245573
H	-2.1772636601	-0.3334050669	 0.0611666796	 0.124916
H	-1.9193293918	-2.6674437537	-0.0042586673	 0.280234
H	 2.1077745346	-3.7138048343	-0.054309013	 0.300142
113.1715	255.3547	303.1215	320.5627	327.7071	356.5982	413.21	484.7374	493.0777	548.8039	554.7102	576.0679	593.8907	670.7851	719.146	791.1705	840.9169	902.545	1041.569	1062.1241	1165.9597	1227.1619	1309.6726	1361.3671	1429.5162	1458.2599	1556.2456	1593.5935	1616.4796	1670.9275	1704.6716	3199.9085	3524.3684	3655.2601	3663.8874	3775.4558
NC1=CNN=C(O)C1=O	Nc1c[nH]nc(O)c1=O	
InChI=1S/C4H5N3O2/c5-2-1-6-7-4(9)3(2)8/h1H,(H,6,8)(H3,5,7,9)	InChI=1S/C4H5N3O2/c5-2-1-6-7-4(9)3(2)8/h1H,(H,6,8)(H3,5,7,9)
