18
gdb 62373	2.57508	1.84907	1.36615	4.0494	79.84	-0.2445	-0.0053	0.2391	982.5531	0.148655	-364.79318	-364.785515	-364.784571	-364.824874	30.699	
C	-0.1657360325	 1.5379310296	-0.0120668384	-0.468596
C	 0.0007767291	 0.0119402357	 0.006805684	 0.173344
C	-1.3230608651	-0.5846944685	-0.1953156964	 0.237297
N	-2.3944379738	-0.9882389621	-0.3581660481	-0.348519
C	 1.1889002215	-0.610015616	-0.8513556115	-0.096239
C	 2.130754128	-0.1881318078	 0.3272352806	-0.235319
C	 0.883696162	-0.6182603708	 1.1722196338	-0.096221
C	 0.8173060263	-2.1047924315	 0.7970966205	-0.082551
C	 1.0166512916	-2.0994124349	-0.5243499119	-0.082556
H	 0.7785988028	 2.0632772184	 0.1319819448	 0.127078
H	-0.5927013358	 1.8581160141	-0.9672606896	 0.140426
H	-0.8550179743	 1.8510845293	 0.7778992379	 0.140421
H	 1.3537744991	-0.3048021206	-1.8838016983	 0.076528
H	 3.0288496822	-0.7919688275	 0.4602179967	 0.108014
H	 2.3778712551	 0.8736388291	 0.3688343529	 0.103187
H	 0.7363725192	-0.3214710522	 2.2097639272	 0.076531
H	 0.6270579612	-2.9254338701	 1.4726123407	 0.113588
H	 1.0351160034	-2.9144173341	-1.232441455	 0.113586
143.0819	165.3023	192.2092	273.0537	307.658	452.3424	481.2676	497.8208	542.5512	590.2943	622.2004	724.5555	765.7452	826.0047	835.4672	870.38	909.5576	915.6431	924.5548	945.9766	980.7274	1035.2956	1084.7383	1102.8505	1113.9169	1125.411	1153.9255	1218.7366	1219.7576	1235.8088	1243.9299	1266.3045	1320.28	1413.8831	1487.7611	1489.387	1517.2845	1622.2052	2347.8687	3049.2471	3084.5966	3111.5843	3128.3948	3130.5336	3139.3659	3152.0665	3232.4274	3258.1831
CC1(C#N)C2CC1C=C2	C[C@@]1(C#N)[C@H]2C[C@@H]1C=C2	
InChI=1S/C8H9N/c1-8(5-9)6-2-3-7(8)4-6/h2-3,6-7H,4H2,1H3	InChI=1S/C8H9N/c1-8(5-9)6-2-3-7(8)4-6/h2-3,6-7H,4H2,1H3/t6-,7+,8-
