17
gdb 21171	5.13811	1.33599	1.07626	3.2819	72.18	-0.1948	0.0451	0.2399	1102.0866	0.14344	-360.064072	-360.055712	-360.054767	-360.096868	30.2	
C	 0.0850561977	 1.4161635286	-0.0383465233	-0.322447
N	 0.025897252	-0.0292791355	 0.1177853098	-0.393482
C	-1.2296646054	-0.6186935606	 0.0551561874	 0.451481
C	-2.5057477159	-0.0861887885	 0.0254830228	-0.375163
C	-3.3702775155	-1.213374234	 0.0363467205	 0.358909
C	-4.8662329397	-1.2222045407	 0.0070683487	-0.490898
N	-2.6926927041	-2.3534413293	 0.0655108148	-0.294208
N	-1.3848474924	-1.968176909	 0.0740254394	-0.287408
H	 1.1268806755	 1.7375910188	 0.0284626536	 0.125638
H	-0.3362669706	 1.7741471992	-0.9902946862	 0.117622
H	-0.4682051719	 1.8912590867	 0.77723137	 0.142206
H	 0.7168166732	-0.509646458	-0.4431657246	 0.235722
H	-2.7770226289	 0.9555124133	-0.0152853534	 0.089444
H	-5.2538131951	-0.7411109136	-0.8981491029	 0.122659
H	-5.2313182414	-2.2511689041	 0.0329034975	 0.136084
H	-5.2863907082	-0.6837899028	 0.864016413	 0.123198
H	-0.6693031192	-2.6657478905	 0.180659583	 0.260643
91.0368	115.442	164.3277	185.7283	232.8836	327.2707	339.6618	402.9351	471.876	544.6151	649.6878	682.4669	701.3471	755.5152	773.1036	989.1873	1005.4898	1028.2297	1065.1076	1092.9054	1146.2099	1155.2457	1168.7952	1204.1237	1297.9364	1403.5999	1436.132	1444.278	1459.4166	1483.6548	1485.6374	1490.35	1506.7252	1519.3983	1560.6926	1632.771	2986.8607	3031.6369	3079.5735	3081.1528	3124.822	3130.253	3268.2558	3566.3239	3680.1693
CNC1=CC(C)=NN1	CNc1cc(C)n[nH]1	
InChI=1S/C5H9N3/c1-4-3-5(6-2)8-7-4/h3H,1-2H3,(H2,6,7,8)	InChI=1S/C5H9N3/c1-4-3-5(6-2)8-7-4/h3H,1-2H3,(H2,6,7,8)
