21
gdb 78392	3.80075	1.1735	1.04648	1.3878	83.22	-0.2006	0.0695	0.2702	1244.175	0.180748	-387.01648	-387.007518	-387.006574	-387.049194	35.754	
C	-0.0271574581	 1.4738766832	 0.0072251452	-0.420695
C	-0.0116569798	-0.0412629767	-0.00143879	-0.032381
C	 1.33892937	-0.6794097298	-0.2152831164	-0.076816
C	 0.6975791367	-0.6935228785	 1.1624142617	-0.083581
C	 0.724184096	-2.2440546827	 1.1760225892	-0.153467
C	 1.377803074	-2.2300144167	-0.2286019718	-0.111734
C	 0.1000894376	-2.9702289314	 0.0089511831	 0.361699
C	 0.2622460793	-4.4817537856	 0.0701826264	-0.43521
O	-1.1007634019	-2.6087898754	-0.6324281328	-0.452356
H	 0.8919472626	 1.8815216321	 0.4436387694	 0.109255
H	-0.117558306	 1.8715224931	-1.0094427788	 0.117472
H	-0.8705795914	 1.8560474334	 0.592777304	 0.114136
H	-0.8884134785	-0.5066092608	-0.4271680328	 0.109581
H	 2.1933447909	-0.0993305605	-0.5420693992	 0.081693
H	 0.991526268	-0.1223726865	 2.0347621106	 0.08116
H	 1.0496561666	-2.7918263398	 2.0538221957	 0.078539
H	 2.2649831528	-2.7614356378	-0.5552759705	 0.082122
H	 1.2146887183	-4.7722762984	 0.5221236807	 0.119264
H	-0.5421211418	-4.9293996274	 0.6662621469	 0.106839
H	 0.2099194298	-4.9019658391	-0.9385699396	 0.127511
H	-1.8252794051	-2.8554288148	-0.0457188809	 0.27697
153.9076	187.8515	213.3762	227.3577	238.3155	271.7603	285.2871	352.7278	369.708	418.7955	534.3186	597.3128	656.0071	742.4605	760.5978	761.7775	810.403	844.1892	896.2287	932.0379	998.8577	1002.591	1013.8275	1018.2911	1036.0483	1041.1339	1069.7903	1101.9072	1105.0856	1142.636	1157.5489	1207.1007	1251.5971	1261.7134	1266.2461	1306.5313	1313.9501	1406.6367	1408.0063	1413.3521	1436.4947	1487.4051	1495.9415	1499.4245	1500.2131	3023.5621	3028.005	3087.886	3091.0124	3093.9618	3118.7886	3157.7673	3167.4767	3176.008	3186.749	3223.9207	3787.4354
CC1C2C1C1C2C1(C)O	C[C@H]1[C@H]2[C@@H]1[C@@H]1[C@H]2[C@]1(C)O	
InChI=1S/C8H12O/c1-3-4-5(3)7-6(4)8(7,2)9/h3-7,9H,1-2H3	InChI=1S/C8H12O/c1-3-4-5(3)7-6(4)8(7,2)9/h3-7,9H,1-2H3/t3-,4-,5+,6-,7+,8-
