21
gdb 126388	3.301	1.04976	0.85699	2.3468	87.72	-0.2234	0.0324	0.2559	1442.9534	0.182255	-383.313037	-383.302881	-383.301937	-383.349548	35.663	
C	-0.5046697375	 1.350125373	 0.1315568786	-0.367618
C	 0.3805482624	 0.1119703676	-0.0896239051	-0.28129
C	 0.8918562136	-0.4832759754	 1.1885825885	 0.355096
N	 2.1659877426	-0.3292214208	 1.5447666642	-0.335805
N	 2.2799452993	-0.9579322594	 2.7394572414	-0.011015
C	 3.5593129052	-0.9866809604	 3.4116839233	-0.326519
C	 1.106293058	-1.5105349393	 3.1513064835	 0.381267
C	 0.9742761631	-2.2646220331	 4.4335324972	-0.503944
C	 0.1828925718	-1.2192836765	 2.1661799385	-0.392427
H	 0.0535069115	 2.1377428176	 0.6468966385	 0.122747
H	-0.86139692	 1.752121452	-0.8222701473	 0.107462
H	-1.3794920883	 1.1074966581	 0.7434817837	 0.114005
H	-0.1888133116	-0.6443043653	-0.6441035049	 0.099599
H	 1.2421986819	 0.3796776251	-0.7089144331	 0.113408
H	 3.5057183355	-0.4979451126	 4.3906119167	 0.13342
H	 3.9123315461	-2.0140802885	 3.5527988657	 0.133394
H	 4.2662379648	-0.4488060397	 2.7812238772	 0.161379
H	 1.2173860385	-1.6433046826	 5.3039837771	 0.133071
H	-0.0520498512	-2.6174041342	 4.5534646776	 0.139016
H	 1.6341406743	-3.1399978887	 4.4663270367	 0.133008
H	-0.85744064	-1.505768407	 2.157960132	 0.091745
32.2124	44.0502	115.5872	126.4362	195.7581	201.7952	245.8368	263.0269	297.5192	407.3192	484.2084	588.356	644.4604	655.0566	733.2037	784.2545	794.8402	802.3272	964.1857	994.0928	1028.9209	1049.5641	1060.8351	1075.6356	1097.0268	1149.3801	1169.1207	1208.2772	1281.3852	1321.3434	1352.0747	1404.8539	1412.559	1416.5139	1452.8421	1463.3469	1478.3789	1479.1361	1490.3433	1491.4512	1496.6278	1503.01	1512.2682	1522.4599	1597.4271	3023.3831	3029.4914	3030.8966	3034.0208	3070.0292	3080.2017	3084.3524	3104.4056	3112.1777	3127.6961	3164.3673	3250.3905
CCC1=NN(C)C(C)=C1	CCc1nn(C)c(C)c1	
InChI=1S/C7H12N2/c1-4-7-5-6(2)9(3)8-7/h5H,4H2,1-3H3	InChI=1S/C7H12N2/c1-4-7-5-6(2)9(3)8-7/h5H,4H2,1-3H3
