24
gdb 123166	7.36741	0.46226	0.45058	1.7113	88.73	-0.2314	0.0881	0.3195	2500.3124	0.21572	-405.510571	-405.49972	-405.498776	-405.548096	38.038	
C	-0.1934301072	 1.513786824	-0.2149104013	-0.384073
C	-0.0719922255	 0.0126917206	-0.0125914773	-0.027204
O	-1.3654953431	-0.5519377066	-0.0399413138	-0.242293
C	-1.3699559473	-1.950682419	 0.1397784677	-0.049546
C	-2.8101685307	-2.4423334989	 0.0881991592	-0.196172
C	-2.9188488359	-3.9573315998	 0.2555553458	-0.142533
N	-4.3149160322	-4.3812156357	 0.2395328016	-0.057739
C	-4.8792757574	-4.6913212085	-1.0697610685	-0.21868
C	-4.5625914589	-5.7766601955	-0.1007223149	-0.221413
H	 0.7948425388	 1.9830680104	-0.1996182528	 0.112671
H	-0.6682640933	 1.7337675152	-1.1753278917	 0.125707
H	-0.8023633648	 1.9590133931	 0.5770246863	 0.126525
H	 0.5561674218	-0.4345459891	-0.8025741192	 0.081983
H	 0.4210676404	-0.2090089413	 0.9498285253	 0.082881
H	-0.7660062569	-2.4396342061	-0.6456344607	 0.079731
H	-0.9063376749	-2.2152186183	 1.106940536	 0.081968
H	-3.3907776466	-1.9478757611	 0.8735956288	 0.117518
H	-3.2506829804	-2.1421584669	-0.8696131128	 0.106794
H	-2.327108114	-4.4662341654	-0.5297971101	 0.075107
H	-2.4918000746	-4.2608676165	 1.2199240042	 0.102161
H	-5.9053717545	-4.3747486083	-1.2330796155	 0.116841
H	-4.2300880189	-4.6000544931	-1.9399582136	 0.107165
H	-3.7040176346	-6.4075019311	-0.3276209096	 0.106582
H	-5.3527372393	-6.2684584924	 0.459570847	 0.116016
44.3184	56.8545	82.7907	105.8096	123.7935	160.3383	204.9352	249.5057	273.9063	351.1536	393.0579	486.8261	514.4888	770.2161	774.3933	821.0402	837.9254	889.2975	896.716	907.0951	1011.8688	1028.9866	1046.923	1067.662	1085.2214	1113.7738	1118.1778	1142.6604	1153.9333	1170.4075	1177.4678	1184.2837	1207.005	1246.2256	1289.6407	1296.315	1306.5234	1315.2332	1325.7167	1388.7761	1404.5894	1412.4481	1455.0158	1483.5131	1488.025	1494.7101	1499.4728	1503.6941	1518.6167	1525.2899	1540.0152	2914.0112	2935.3653	2951.8585	2960.578	2970.867	3035.8894	3044.5851	3047.2528	3090.3144	3094.0043	3095.4713	3118.8891	3121.1582	3174.4214	3188.7222
CCOCCCN1CC1	CCOCCCN1CC1	
InChI=1S/C7H15NO/c1-2-9-7-3-4-8-5-6-8/h2-7H2,1H3	InChI=1S/C7H15NO/c1-2-9-7-3-4-8-5-6-8/h2-7H2,1H3
