23
gdb 57396	2.90852	1.11638	0.99362	1.8509	87.87	-0.224	0.0252	0.2492	1337.5805	0.204352	-388.303333	-388.293311	-388.292366	-388.338517	37.539	
C	-0.0663863188	 1.5403400229	 0.0453001121	-0.411619
C	 0.0081657764	 0.0049795438	-0.0025375578	 0.151802
C	 0.7480092034	-0.5005945795	 1.2579259788	-0.407625
C	-1.4287821304	-0.5668175341	-0.0068389661	-0.407543
C	 0.7424663572	-0.4629829168	-1.2419621215	 0.328534
C	 1.287718935	 0.2574632558	-2.2209107826	-0.2485
C	 1.9146274861	-0.6339100483	-3.2517162092	-0.10656
O	 1.6847116402	-1.9606796029	-2.7876247374	-0.26617
C	 0.9723521792	-1.9279630667	-1.5569017304	-0.158893
H	 0.9324365105	 1.9874785912	 0.0673703206	 0.11455
H	-0.5996151514	 1.9408461093	-0.8226465712	 0.114564
H	-0.5990191416	 1.8649249037	 0.9450834299	 0.108219
H	 0.2340117693	-0.1578653608	 2.1623264536	 0.111024
H	 0.7876852874	-1.5934842402	 1.2942733269	 0.115689
H	 1.7753697875	-0.1240964847	 1.2880216132	 0.117234
H	-1.9797890237	-0.2380442394	-0.8936378363	 0.117251
H	-1.4302899972	-1.6609588265	 0.0052352288	 0.115647
H	-1.9754196055	-0.2253398479	 0.8787037222	 0.111016
H	 1.3008138495	 1.336218115	-2.3022684796	 0.097375
H	 1.4678863615	-0.5040891835	-4.2511025744	 0.100655
H	 2.9973099349	-0.4571237069	-3.360935074	 0.10051
H	 1.560174809	-2.4366177494	-0.7766672533	 0.10135
H	 0.0294138914	-2.487133374	-1.6620041522	 0.101489
35.3985	89.1464	150.2542	215.592	226.7379	263.1867	292.843	310.3559	327.3219	333.8351	382.3424	457.0994	555.4385	565.3347	770.7744	810.4579	835.7481	900.6095	928.9459	933.3923	937.7547	957.5968	981.9105	1021.545	1042.353	1048.1148	1069.1098	1086.3689	1144.7989	1179.4301	1225.8389	1226.1907	1234.234	1285.2438	1307.2956	1368.3638	1393.0481	1395.4152	1399.0025	1428.7994	1478.4516	1485.8611	1488.4838	1502.6768	1503.2736	1515.8402	1522.1839	1531.6446	1714.6024	2962.4992	2974.688	2976.1737	2987.6263	3029.2512	3029.647	3036.6163	3098.2155	3098.3385	3103.1147	3105.6039	3107.2444	3109.5604	3221.3203
CC(C)(C)C1=CCOC1	CC(C)(C)C1=CCOC1	
InChI=1S/C8H14O/c1-8(2,3)7-4-5-9-6-7/h4H,5-6H2,1-3H3	InChI=1S/C8H14O/c1-8(2,3)7-4-5-9-6-7/h4H,5-6H2,1-3H3
