16
gdb 5126	3.50656	2.00162	1.29486	2.879	67.78	-0.1906	0.0488	0.2394	928.0235	0.130176	-379.961004	-379.952305	-379.951361	-379.994995	29.82	
C	 0.0767225147	 1.4598601036	 0.0044510875	-0.334117
N	-0.0373348703	 0.0170076028	 0.0153479812	-0.039445
C	-0.3853698498	-0.8151581012	-1.0196410792	-0.017305
N	-0.3905171258	-2.0731971931	-0.6621735513	-0.32153
C	-0.0299903249	-2.0952640849	 0.6743756975	 0.162177
C	 0.0788039774	-3.3647646221	 1.4546485649	-0.495804
C	 0.1875122243	-0.8061997802	 1.0912953804	 0.267533
O	 0.5526005876	-0.2261473786	 2.2649776704	-0.444873
H	 1.0934143264	 1.7742725627	 0.2583210691	 0.146728
H	-0.1655170966	 1.8206197489	-0.996694604	 0.140909
H	-0.6144786396	 1.9127496461	 0.721453579	 0.146732
H	-0.6192748296	-0.4249518206	-1.9992726862	 0.120383
H	 0.374297838	-3.1770041682	 2.4940338653	 0.088929
H	-0.8744348842	-3.9044794154	 1.4787950341	 0.136037
H	 0.8237826886	-4.0409049009	 1.0205935277	 0.135991
H	 0.6733628036	-0.9208993289	 2.9196335636	 0.307657
49.0182	61.1747	135.9125	181.456	258.2068	265.0119	270.7635	320.366	506.0318	582.7022	655.1917	685.1664	742.6782	765.5524	773.1645	973.046	1040.5105	1058.6633	1074.6123	1154.3827	1214.1582	1244.774	1296.7428	1314.6378	1399.1088	1428.2223	1453.5969	1467.952	1478.852	1493.5914	1503.4489	1522.6284	1562.0585	1653.5296	3019.9249	3043.3162	3080.8428	3081.525	3103.991	3140.0441	3243.2267	3840.8441
CN1C=NC(C)=C1O	Cn1cnc(C)c1O	
InChI=1S/C5H8N2O/c1-4-5(8)7(2)3-6-4/h3,8H,1-2H3	InChI=1S/C5H8N2O/c1-4-5(8)7(2)3-6-4/h3,8H,1-2H3
