21
gdb 123235	12.5033	0.38968	0.38243	3.4174	78.51	-0.2573	-0.0279	0.2294	2749.0504	0.178057	-461.344275	-461.332898	-461.331953	-461.383206	37.008	
C	 0.0521406128	 1.3438018907	-0.0895662346	-0.229379
O	 0.0132509845	-0.0620352474	-0.0513483713	-0.228901
C	-1.2989126352	-0.5738769743	-0.005977501	-0.050484
C	-1.2177239726	-2.0942444466	 0.0322649945	-0.214781
C	-2.5911653091	-2.7472825734	 0.083083759	-0.053147
O	-2.4171582307	-4.1505960959	 0.1157401551	-0.247205
C	-3.6225586307	-4.8652836769	 0.1640939442	-0.144818
C	-3.2952119738	-6.3483172652	 0.1948528874	 0.139015
O	-4.1281337346	-7.2137333346	 0.2384217009	-0.237597
H	 1.102899943	 1.6414646294	-0.1229717099	 0.128975
H	-0.4589623188	 1.743928044	-0.9799714665	 0.103339
H	-0.4156906171	 1.7911805219	 0.8021375773	 0.103339
H	-1.8301219651	-0.1912251699	 0.8839249981	 0.084627
H	-1.8731073357	-0.2380901705	-0.8880631716	 0.08463
H	-0.6801295434	-2.449439017	-0.8529022033	 0.119826
H	-0.6371171417	-2.4028261635	 0.9076876607	 0.119829
H	-3.1493285615	-2.4149382042	 0.9752038444	 0.091402
H	-3.1927305025	-2.4615659004	-0.7968989365	 0.091395
H	-4.2190920862	-4.6163151935	 1.0588382795	 0.120942
H	-4.2625916625	-4.6626947709	-0.7121132442	 0.120934
H	-2.2040311191	-6.5626769017	 0.173156608	 0.098059
35.2991	59.7299	68.8548	76.4833	97.0689	135.7467	144.7054	179.2283	239.1961	269.5022	330.9632	463.9271	486.2073	584.6421	740.6614	781.3697	893.2612	974.9804	1016.3892	1050.9734	1065.0439	1114.2292	1116.7593	1162.9752	1169.603	1181.5834	1194.2934	1229.1441	1231.9412	1243.8859	1298.5286	1304.7209	1307.5645	1347.6655	1402.2318	1429.4525	1442.2011	1482.7262	1483.3561	1486.2149	1498.2232	1505.6819	1527.4699	1536.836	1845.385	2901.2784	2936.5079	2949.8768	2960.0266	2960.6445	2968.731	2977.6463	2984.8462	3010.6127	3054.3645	3101.0529	3115.3487
COCCCOCC=O	COCCCOCC=O	
InChI=1S/C6H12O3/c1-8-4-2-5-9-6-3-7/h3H,2,4-6H2,1H3	InChI=1S/C6H12O3/c1-8-4-2-5-9-6-3-7/h3H,2,4-6H2,1H3
