18
gdb 14666	4.83959	0.65667	0.60835	0.2777	85.14	-0.2383	0.0493	0.2876	1890.1908	0.150873	-310.624232	-310.613833	-310.612889	-310.665028	34.15	
C	-0.6999775152	 1.1778990584	-0.36479411	-0.363986
C	 0.4861252887	 0.3412557682	 0.14843212	-0.312071
C	 1.2446815932	-0.2957241435	-0.9233780166	 0.080743
C	 1.8528028139	-0.8139351002	-1.8233832761	 0.067143
C	 2.603920413	-1.4438758364	-2.9127177543	-0.495698
C	 2.1960201551	-2.8232022937	-3.1926134706	 0.088342
C	 1.8654874569	-3.9557340167	-3.426828081	 0.06031
C	 1.4621458581	-5.3263429341	-3.7067537818	-0.49574
H	-0.3544465283	 1.9764403551	-1.0270209431	 0.126507
H	-1.400165776	 0.5540424305	-0.9268619288	 0.128865
H	-1.2377338068	 1.6326803236	 0.4726042833	 0.112595
H	 1.1556880521	 0.9792907324	 0.7396657162	 0.126728
H	 0.1190326079	-0.4288134588	 0.8391333592	 0.129044
H	 2.4970326676	-0.840036278	-3.8251707887	 0.152525
H	 3.6770266385	-1.4222261629	-2.67480388	 0.152767
H	 1.1001802849	-5.4340541625	-4.7352545437	 0.146402
H	 2.2972325096	-6.0232437788	-3.5748959358	 0.146496
H	 0.6559144167	-5.6459843824	-3.037283458	 0.149031
1.7026	15.2561	60.2693	122.7126	170.7763	197.4148	234.3672	284.6381	316.7142	373.7377	397.6361	478.4923	533.3078	744.0739	766.9416	785.0522	931.5513	960.3682	1053.2099	1054.7012	1078.4475	1104.4633	1141.9084	1177.2106	1231.0792	1286.2626	1337.9247	1351.6576	1408.2052	1415.1453	1455.582	1475.5068	1478.7457	1479.2652	1494.5992	1505.7509	2373.2453	2382.2712	2999.3855	3018.3923	3020.6889	3026.261	3043.1041	3045.1984	3086.3252	3087.3413	3116.0323	3122.7782
CCC#CCC#CC	CCC#CCC#CC	
InChI=1S/C8H10/c1-3-5-7-8-6-4-2/h3,8H2,1-2H3	InChI=1S/C8H10/c1-3-5-7-8-6-4-2/h3,8H2,1-2H3
