23
gdb 113074	2.14983	1.09658	0.90225	1.3368	81.77	-0.2527	0.0619	0.3146	1438.029	0.20443	-425.408871	-425.398333	-425.397389	-425.444691	38.628	
C	 0.0731960699	 1.2802608105	-0.5889762208	-0.387443
C	-0.0727518803	-0.2291266044	-0.3721039115	-0.172266
C	-1.4482420645	-0.6061381391	 0.1810332319	 0.009084
C	-2.6323064638	-0.5606911502	-0.8356194814	-0.244127
C	-2.7123163895	-2.1147002238	-0.8257203779	-0.025773
C	-2.2019031492	-2.7888606755	-2.0876894436	-0.077986
O	-3.1434066858	-2.52746106	-3.1208477648	-0.425979
C	-1.7165484314	-2.1257117981	 0.3778886127	 0.074256
O	-0.5567069716	-2.9313043305	 0.2859004219	-0.42263
H	 1.0605720986	 1.5294838129	-0.9902728117	 0.109246
H	-0.6759212437	 1.6595105112	-1.2926874251	 0.116338
H	-0.052585792	 1.82804743	 0.3519069654	 0.110763
H	 0.1104859543	-0.7562063239	-1.3155217159	 0.098825
H	 0.6980409147	-0.5826864666	 0.321709869	 0.104868
H	-1.6242995335	-0.02543081	 1.0932895879	 0.061887
H	-3.5301636874	-0.0738532473	-0.4490177145	 0.095965
H	-2.4035420006	-0.1239762045	-1.8115250255	 0.104794
H	-3.703778851	-2.5201708463	-0.601026431	 0.067464
H	-1.2052116548	-2.4067385599	-2.3507552782	 0.096864
H	-2.0931482251	-3.8719592922	-1.9137125059	 0.072287
H	-2.7939085734	-2.8883472636	-3.940690007	 0.284513
H	-2.2405585931	-2.3184109327	 1.3238745907	 0.063931
H	-0.7946061471	-3.833052066	 0.5210508953	 0.285119
55.5232	95.8429	110.3216	172.2361	174.6263	222.0118	258.4675	265.3729	289.1104	303.5268	374.5674	436.8851	533.27	557.2281	745.4619	771.6522	800.7653	833.2358	874.6031	929.0601	944.0731	982.496	996.9494	1054.7545	1067.8062	1072.3055	1105.2994	1152.315	1155.4342	1165.8384	1195.3584	1231.4677	1256.1603	1260.759	1269.3401	1284.4106	1305.7557	1325.0187	1333.2642	1360.8362	1387.9441	1411.1016	1423.8657	1460.254	1481.8011	1493.6069	1499.2974	1506.9695	1517.377	2965.7181	2995.678	3010.6945	3028.0491	3032.8736	3040.424	3055.8966	3064.5657	3068.8521	3096.9694	3100.4641	3113.2555	3826.0658	3829.0947
CCC1CC(CO)C1O	CC[C@H]1C[C@@H](CO)[C@H]1O	
InChI=1S/C7H14O2/c1-2-5-3-6(4-8)7(5)9/h5-9H,2-4H2,1H3	InChI=1S/C7H14O2/c1-2-5-3-6(4-8)7(5)9/h5-9H,2-4H2,1H3/t5-,6-,7-/m0/s1
