22
gdb 99603	2.13639	1.22814	0.99616	3.8798	86.08	-0.2857	0.0349	0.3207	1344.1017	0.19295	-367.22873	-367.218523	-367.217579	-367.263821	37.756	
C	-0.1417581029	 1.6198569367	 0.1923180702	-0.398177
C	-0.0864807455	 0.090801159	 0.1822420223	-0.18745
C	-1.458538477	-0.5732031342	-0.0845094839	-0.209606
C	-1.9612419928	-0.2095727282	-1.4178595121	 0.291201
N	-2.3421610731	 0.0688562099	-2.4734117796	-0.341329
C	-1.449383278	-2.0986003922	 0.0850422926	 0.381436
C	-0.5411463889	-2.8673702925	-0.8563800002	-0.478534
C	-1.6251652186	-2.6109225754	 1.4948306843	-0.318903
C	-2.7511287015	-2.741796549	 0.4959344046	-0.306818
H	 0.8475474126	 2.0413348283	 0.3922091842	 0.12019
H	-0.4853950813	 2.0108709694	-0.7702452228	 0.14407
H	-0.823905379	 1.9878879366	 0.9667242344	 0.116649
H	 0.6309874463	-0.2493327547	-0.571362251	 0.118596
H	 0.2682305434	-0.2823182361	 1.149462722	 0.108909
H	-2.1741165032	-0.1614175675	 0.6398977411	 0.114753
H	 0.5136502274	-2.6164064131	-0.7026230172	 0.120966
H	-0.6487473155	-3.944008919	-0.6967053296	 0.118125
H	-0.7904428489	-2.6572568971	-1.902014149	 0.141572
H	-1.0824635815	-3.5059144079	 1.7794110117	 0.116589
H	-1.7384260828	-1.8898054694	 2.2980831149	 0.111768
H	-3.6227172731	-2.1084368974	 0.6233031626	 0.117719
H	-2.975151396	-3.7260911062	 0.0999389104	 0.118273
66.1179	98.4554	137.0685	168.1755	185.2293	224.8603	261.9859	302.6224	331.3646	352.5723	387.068	461.1272	534.0526	574.5147	752.3177	776.7004	786.1391	866.2208	879.3371	919.1261	954.2009	966.6563	975.8966	1035.3894	1053.2494	1072.9405	1083.0762	1112.8116	1123.8711	1140.8497	1185.5085	1246.9856	1277.783	1311.0668	1342.2344	1362.2349	1378.7418	1417.7411	1425.8705	1470.9403	1487.5677	1495.1618	1499.6975	1501.861	1507.1651	1511.0347	2350.75	3019.6484	3033.8604	3036.1748	3044.6524	3082.4931	3098.5598	3107.5135	3109.3273	3116.2886	3127.9116	3134.2296	3206.715	3221.602
CCC(C#N)C1(C)CC1	CC[C@@H](C#N)C1(C)CC1	
InChI=1S/C8H13N/c1-3-7(6-9)8(2)4-5-8/h7H,3-5H2,1-2H3	InChI=1S/C8H13N/c1-3-7(6-9)8(2)4-5-8/h7H,3-5H2,1-2H3/t7-/m0/s1
