20
gdb 111541	2.69843	1.4876	1.15137	2.8814	77.97	-0.2299	0.0645	0.2943	1125.0213	0.171312	-403.0662	-403.057829	-403.056885	-403.099107	32.591	
C	-0.0025441058	 1.5049898707	 0.2089933034	-0.514516
C	-0.0380962467	 0.0260008039	-0.0397249963	 0.298675
C	-0.9694652303	-0.9299960327	 0.7439025151	-0.131067
C	-1.0447077654	-2.2137686247	-0.0556800433	-0.19163
N	 0.4152223299	-2.0284822332	-0.4378990715	-0.205765
C	 0.5238303198	-1.0921973708	 0.792351264	-0.07108
C	 0.3989522321	-0.7490829048	-1.2756564254	-0.019884
C	-0.3615429413	-0.8072024247	-2.5887940229	-0.092121
O	 0.1679134209	-1.8299460902	-3.4170517554	-0.425213
H	 0.9586271302	 1.9337735992	-0.0963172435	 0.124305
H	-0.7920603707	 2.025013218	-0.3453091103	 0.126152
H	-0.1433909051	 1.7320682866	 1.2710960427	 0.122954
H	-1.6261959215	-0.5517056166	 1.5177827871	 0.090867
H	-1.1182067642	-3.0982051645	 0.5829153345	 0.111285
H	-1.748753851	-2.3116138106	-0.8878185524	 0.103362
H	 1.264107571	-1.1632569966	 1.5767366087	 0.099749
H	 1.4497635792	-0.5289919753	-1.4993965798	 0.086024
H	-1.4416877747	-0.9393470147	-2.4261795983	 0.087426
H	-0.2358965307	 0.1401023946	-3.1266713415	 0.105143
H	 0.3713441744	-2.5755119336	-2.8389802051	 0.295336
76.7626	138.2195	205.7698	227.1743	250.8474	320.7328	370.1493	411.7626	511.9013	558.1312	613.1351	705.7941	780.0065	809.9611	836.3525	859.6844	890.9531	907.3878	952.3357	981.9041	997.9862	1044.8903	1066.6771	1079.612	1089.8423	1123.8047	1131.8529	1141.7356	1173.085	1214.88	1232.3021	1237.3373	1277.9283	1314.0539	1333.5074	1388.4174	1414.3805	1425.9235	1452.4775	1488.5537	1499.3086	1502.2442	1534.3894	2993.7008	3024.6949	3035.4376	3048.555	3056.5936	3085.5541	3094.0942	3098.9232	3188.1845	3217.1551	3780.0667
CC12C3CN(C13)C2CO	C[C@]12[C@H]3CN([C@@H]13)[C@H]2CO	
InChI=1S/C7H11NO/c1-7-4-2-8(6(4)7)5(7)3-9/h4-6,9H,2-3H2,1H3	InChI=1S/C7H11NO/c1-7-4-2-8(6(4)7)5(7)3-9/h4-6,9H,2-3H2,1H3/t4-,5-,6+,7+/m0/s1
