16
gdb 79112	2.55832	2.0375	1.54813	3.2806	67.14	-0.231	0.0224	0.2534	881.1963	0.126391	-437.887288	-437.880319	-437.879375	-437.918463	27.985	
O	-0.1663419493	 1.4672511241	-0.0732304557	-0.429396
C	-0.0558780506	 0.068893062	-0.0788325564	 0.144868
C	-1.3649744586	-0.6853930673	 0.0277427651	-0.123451
C	-2.0391265489	-0.8040467355	-1.3409224218	-0.000562
N	-1.6843184647	 0.0797209591	-2.4183400819	-0.318576
C	-0.311816052	 0.1958619263	-2.5310607181	 0.431768
O	 0.2939930704	 0.9487632592	-3.2592010626	-0.387355
C	 0.2561135071	-0.7006497798	-1.4354583306	-0.266705
C	-0.8727377288	-1.6783704309	-1.0334338334	-0.078904
H	 0.682987645	 1.8469992198	-0.3249252215	 0.293187
H	 0.64596525	-0.2906333821	 0.6851495944	 0.085219
H	-1.9146721725	-0.8749054836	 0.9418244522	 0.093181
H	-3.0380897473	-1.2210636489	-1.3640047301	 0.110827
H	-2.2587139766	 0.8649570888	-2.6843718868	 0.253757
H	 1.2763519884	-1.0354975813	-1.5990004208	 0.090258
H	-0.8536013616	-2.7590415398	-1.0396037821	 0.101884
126.4804	176.8576	261.7352	344.708	426.4003	468.6194	502.0056	575.1127	621.6012	691.2198	753.3159	772.9672	807.8992	839.4993	863.3572	899.3528	942.2472	985.5547	1000.8097	1029.7215	1044.1083	1054.7247	1101.9326	1143.9537	1156.8887	1215.1646	1225.484	1246.7953	1251.2766	1332.805	1349.9376	1369.842	1417.3038	1434.736	1832.9631	3015.4398	3161.6506	3185.1398	3195.9866	3215.6125	3630.6658	3807.4474
OC1C2C3NC(=O)C1C23	O[C@H]1[C@H]2[C@H]3NC(=O)[C@@H]1[C@@H]23	
InChI=1S/C6H7NO2/c8-5-2-1-3(5)6(9)7-4(1)2/h1-5,8H,(H,7,9)	InChI=1S/C6H7NO2/c8-5-2-1-3(5)6(9)7-4(1)2/h1-5,8H,(H,7,9)/t1-,2-,3-,4+,5+/m1/s1
