25
gdb 104201	2.23592	1.31836	1.26607	0.9918	88.64	-0.2405	0.0794	0.3199	1244.3942	0.226246	-389.484373	-389.47369	-389.472746	-389.518998	41.098	
C	-0.3375203722	 1.3746789229	-0.1389943961	-0.250749
O	-0.4295272259	 0.0127499614	-0.4896341432	-0.286371
C	 0.6654481319	-0.52323875	-1.2121086352	 0.402198
C	 0.7492864308	 0.0801882896	-2.6147199017	-0.448593
C	 2.0485867526	-0.5484843496	-0.491950314	-0.284374
C	 2.195099605	-2.0356181493	-0.9062641148	-0.261697
C	 0.6595319144	-2.1020218957	-1.1748954084	 0.272025
C	-0.0929182822	-2.6381426697	 0.0488660053	-0.41875
C	 0.2088943614	-2.8511629433	-2.4270204144	-0.457203
H	 0.6049960238	 1.6047908659	 0.379429081	 0.105314
H	-0.4262500522	 2.0453948969	-1.0055987504	 0.105923
H	-1.1674767394	 1.5829792282	 0.5414645326	 0.123993
H	 0.9471549725	 1.155597878	-2.5634197149	 0.111977
H	 1.5630385148	-0.3669987577	-3.1923210516	 0.117297
H	-0.1864526979	-0.0711761813	-3.1608907381	 0.120564
H	 2.810083029	 0.1517250661	-0.8447745915	 0.089808
H	 1.937481682	-0.433421283	 0.5889641821	 0.106283
H	 2.7833386538	-2.1566293777	-1.820392809	 0.094338
H	 2.584890161	-2.7239831574	-0.1521166759	 0.094314
H	 0.2203855961	-2.1477577814	 0.9737356283	 0.110661
H	-1.1705343344	-2.4837253399	-0.0522329153	 0.12036
H	 0.094021789	-3.7130869111	 0.1534549652	 0.099798
H	 0.3861497633	-3.9262853795	-2.3074716849	 0.110071
H	-0.8634640488	-2.7144797772	-2.6081430739	 0.116218
H	 0.7460055215	-2.5289929052	-3.3233082911	 0.106596
92.103	114.0887	188.7753	197.8712	205.8788	236.686	263.432	290.047	326.8225	331.7384	358.3198	372.6539	399.272	465.5752	521.0349	595.2608	681.9215	756.3357	867.0656	890.7874	902.8049	925.5404	949.1969	956.413	979.095	1007.8187	1030.6147	1097.8175	1155.8586	1176.7472	1180.8574	1187.4001	1206.1724	1220.9155	1233.0285	1239.6581	1278.1529	1287.869	1300.0472	1400.6835	1405.4393	1420.1545	1473.7521	1475.828	1479.3443	1482.4982	1487.8302	1490.3042	1497.1141	1500.7054	1508.2465	1511.3644	1513.3887	2985.6634	3025.7071	3032.3112	3034.9673	3041.1249	3051.9754	3060.4162	3085.5058	3097.8173	3102.4052	3103.824	3105.9291	3108.879	3114.2137	3118.8274	3122.4274
COC1(C)CCC1(C)C	CO[C@@]1(C)CCC1(C)C	
InChI=1S/C8H16O/c1-7(2)5-6-8(7,3)9-4/h5-6H2,1-4H3	InChI=1S/C8H16O/c1-7(2)5-6-8(7,3)9-4/h5-6H2,1-4H3/t8-/m0/s1
