23
gdb 118551	3.32499	0.71337	0.61711	3.1034	83.78	-0.2515	-0.0223	0.2291	1850.0565	0.20288	-425.439496	-425.428202	-425.427258	-425.477269	39.384	
C	-0.0539049393	 1.6291465272	-0.1291182038	-0.380678
C	 0.0274128203	 0.1064479568	 0.0151871462	-0.181379
C	-1.3574024184	-0.5488858626	 0.1104806669	-0.173646
C	-1.3578983992	-2.0891339721	 0.1181021519	-0.010222
C	-0.6749398069	-2.663902569	 1.3725666274	-0.069802
O	-0.5591803692	-4.0776224923	 1.3378423834	-0.425167
C	-2.801509619	-2.626392106	-0.0117866624	-0.286485
C	-2.8803032898	-4.1131800385	-0.2720493201	 0.15305
O	-3.4221491845	-4.9109552624	 0.4549392026	-0.262455
H	 0.9425122532	 2.0765515636	-0.1948971136	 0.11497
H	-0.6071736438	 1.9127762314	-1.0313902794	 0.114994
H	-0.5660365293	 2.0817781106	 0.7272569132	 0.115905
H	 0.5672850961	-0.3150492489	-0.8430446695	 0.099173
H	 0.6257130529	-0.1373002345	 0.9007048795	 0.104922
H	-1.8750964151	-0.1815907272	 1.0084232037	 0.09585
H	-1.9609484771	-0.2073061725	-0.7408837809	 0.093516
H	-0.7823861527	-2.4419044915	-0.7499331643	 0.084008
H	 0.3468741231	-2.2801026252	 1.4446370483	 0.111587
H	-1.212778306	-2.3249152143	 2.2719816792	 0.092201
H	-1.3840837086	-4.46701668	 1.6444048946	 0.299235
H	-3.3885237833	-2.398603298	 0.8851889001	 0.114086
H	-3.2824238739	-2.1308428864	-0.8671065886	 0.11564
H	-2.4042980998	-4.4405045084	-1.2239857345	 0.080697
55.5145	58.8186	75.5658	89.669	131.253	147.9561	212.6953	246.8795	288.4568	326.4558	349.2592	407.9168	445.0039	517.7641	566.7121	737.8035	790.731	844.363	887.1505	901.9517	952.7266	1001.6604	1029.8551	1052.2836	1065.212	1076.7869	1099.6047	1144.8575	1151.8076	1183.318	1240.6048	1265.1805	1285.4259	1320.333	1324.1064	1353.3045	1373.9126	1395.9867	1406.0676	1413.037	1415.947	1426.3434	1462.5322	1483.4355	1492.8788	1499.4611	1501.3519	1510.494	1814.6476	2878.5127	2982.9943	3001.5122	3009.6407	3013.6336	3022.2353	3030.1247	3035.1762	3061.1686	3079.2207	3086.0542	3097.4454	3104.4119	3826.8808
CCCC(CO)CC=O	CCC[C@@H](CO)CC=O	
InChI=1S/C7H14O2/c1-2-3-7(6-9)4-5-8/h5,7,9H,2-4,6H2,1H3	InChI=1S/C7H14O2/c1-2-3-7(6-9)4-5-8/h5,7,9H,2-4,6H2,1H3/t7-/m1/s1
