16
gdb 42597	4.01513	1.6951	1.60615	2.0956	70.84	-0.244	-0.0013	0.2427	851.8476	0.128085	-400.737499	-400.73179	-400.730845	-400.767452	24.229	
O	 0.0431354826	-0.0043077824	-0.0263087518	-0.323588
C	-0.0045497599	 1.1858533137	 0.0273973354	 0.442466
C	-1.1081867097	 2.2705099416	 0.0229170598	-0.186436
C	-0.8009411602	 3.0039978943	 1.3418863641	-0.051586
C	 0.7014129416	 3.0658114866	 1.3061338851	-0.051586
C	 1.0048568861	 2.3574417818	-0.0273637143	-0.186436
C	-0.1042592093	 3.0948817012	-0.8623688718	-0.071141
C	-0.1506480463	 4.5273561311	-0.3351435095	-0.174687
N	-0.1062638258	 4.2841959756	 1.1098229744	-0.117599
H	-2.1414183571	 2.0753879247	-0.2520151724	 0.088268
H	-1.4030314099	 2.8907281093	 2.2327710785	 0.108211
H	 1.3523937562	 3.0041047688	 2.1671996932	 0.108211
H	 2.0363942581	 2.2472637027	-0.3514304899	 0.088268
H	-0.1219219631	 2.9049874734	-1.9330036699	 0.095652
H	 0.7107931265	 5.12701798	-0.6443887241	 0.115993
H	-1.0721212297	 5.0536651675	-0.6019647671	 0.115992
149.3903	317.2421	441.1046	552.9592	578.7552	691.3097	703.8765	750.0902	778.3789	800.539	810.583	866.2721	870.9962	918.0292	921.0333	962.9007	987.5205	1011.7414	1017.1959	1031.5824	1036.5377	1076.6786	1103.9575	1165.4553	1174.4602	1199.3434	1207.1391	1220.3489	1223.9301	1267.5708	1283.1935	1293.2143	1355.0663	1496.7522	1901.0232	3055.9092	3106.443	3150.8709	3156.9931	3161.0254	3208.372	3217.0256
O=C1C2C3C4C1C2CN34	O=C1[C@H]2[C@H]3[C@H]4[C@@H]1[C@@H]2CN34	
InChI=1S/C7H7NO/c9-7-3-2-1-8-5(3)6(8)4(2)7/h2-6H,1H2	InChI=1S/C7H7NO/c9-7-3-2-1-8-5(3)6(8)4(2)7/h2-6H,1H2/t2-,3-,4+,5+,6-,8?
