16
gdb 36115	3.52828	1.22186	1.07078	2.1631	71.4	-0.2458	0.0244	0.2702	1124.4876	0.123688	-400.683076	-400.675484	-400.67454	-400.7157	29.115	
N	-0.3019089983	-1.1385818627	 0.3140844443	-0.304452
C	-0.1588553308	-0.00741878	 0.1292131578	 0.263786
C	 0.038493347	 1.424642382	-0.0970573237	-0.463934
C	 1.4876351049	 1.8219105617	-0.0275798345	 0.423655
O	 1.8499075431	 3.0691663705	-0.6273677495	-0.288091
C	 2.5593214323	 1.87317267	-1.014286261	-0.05335
C	 3.6237185728	 1.5304813392	 0.0735372912	-0.082174
C	 3.5899465494	 2.5156810082	 1.2109505963	-0.290236
C	 2.5073334923	 1.4750911903	 1.1100111154	-0.134311
H	-0.3611380433	 1.6989326909	-1.0787530779	 0.168923
H	-0.538525929	 1.980710533	 0.6531838042	 0.165192
H	 2.5869396401	 1.63137708	-2.0698179134	 0.116748
H	 4.423782458	 0.8204845826	-0.083204661	 0.104606
H	 4.3211078143	 2.3287801176	 1.9907746024	 0.119299
H	 3.367281365	 3.5585895576	 1.0256184637	 0.139725
H	 2.3269998123	 0.713615969	 1.8563947657	 0.114616
58.6184	101.1913	233.3232	292.9485	388.4337	414.1379	427.4757	503.334	598.9115	642.2343	734.5605	758.1068	805.2408	845.1311	868.9631	915.2347	931.3249	950.9812	977.8401	1013.7255	1022.1633	1053.9603	1059.9191	1103.2533	1131.1382	1167.5987	1225.5443	1264.4316	1279.6094	1310.665	1324.1529	1456.6759	1458.3273	1483.1246	2367.5745	3033.7058	3088.2469	3144.2689	3193.8549	3208.7114	3217.3045	3236.7003
N#CCC12OC1C1CC21	N#CC[C@]12O[C@H]1[C@H]1C[C@@H]21	
InChI=1S/C7H7NO/c8-2-1-7-5-3-4(5)6(7)9-7/h4-6H,1,3H2	InChI=1S/C7H7NO/c8-2-1-7-5-3-4(5)6(7)9-7/h4-6H,1,3H2/t4-,5+,6-,7+/m0/s1
