19
gdb 97684	2.64757	0.84339	0.70753	1.735	82.21	-0.2479	0.0273	0.2751	1666.297	0.15658	-422.973745	-422.963413	-422.962468	-423.011905	35.993	
C	-0.6345243138	 1.2726228066	-0.0298651365	-0.364645
C	 0.5951385286	 0.3673415771	 0.1696082026	-0.322873
C	 1.0845373206	-0.2138923682	-1.0752477802	 0.155584
C	 1.461398421	-0.6863841633	-2.1175097565	 0.027087
C	 1.9430006643	-1.2121918892	-3.3699998646	 0.129026
C	 2.280932558	-0.200499105	-4.4530965908	-0.123428
O	 1.1353400966	 0.4999380544	-4.888055458	-0.40919
C	 2.5439733613	-2.5602104723	-3.4273969789	-0.205121
O	 1.2172416265	-2.354299949	-3.8984494573	-0.271089
H	-0.4012571166	 2.1005348843	-0.7043496122	 0.134125
H	-1.464711289	 0.7087712575	-0.4631819197	 0.131943
H	-0.9603424482	 1.6869553615	 0.9287741655	 0.114932
H	 1.4032164236	 0.9421643544	 0.640230905	 0.132041
H	 0.3504982151	-0.438700639	 0.8731248491	 0.132491
H	 2.976672052	 0.5490056941	-4.0636300566	 0.117676
H	 2.7728749858	-0.7321287305	-5.2818843848	 0.08983
H	 0.4948804888	-0.1628907861	-5.171229272	 0.294439
H	 3.2888598833	-2.7806697273	-4.1917521556	 0.114467
H	 2.6310979319	-3.1339194101	-2.5068649388	 0.122706
7.7335	57.8101	91.5893	103.6191	184.1452	222.4623	248.1716	324.6586	345.6866	400.2674	427.4227	505.8642	543.203	568.206	661.2723	775.8691	784.7335	892.931	924.9658	966.1828	988.7268	1058.6596	1085.2075	1092.0725	1103.9469	1130.6789	1172.1835	1210.8239	1285.3678	1289.9625	1340.109	1355.0634	1407.859	1409.8067	1427.0125	1472.175	1489.2144	1494.3254	1505.1481	1519.195	2364.0003	2988.9203	3020.4915	3045.8601	3048.4403	3081.6158	3086.8659	3119.6961	3127.2016	3175.1025	3797.9659
CCC#CC1(CO)CO1	CCC#C[C@@]1(CO)CO1	
InChI=1S/C7H10O2/c1-2-3-4-7(5-8)6-9-7/h8H,2,5-6H2,1H3	InChI=1S/C7H10O2/c1-2-3-4-7(5-8)6-9-7/h8H,2,5-6H2,1H3/t7-/m1/s1
