16
gdb 30524	3.39047	1.10336	0.83706	4.4417	83.82	-0.1926	-0.0142	0.1784	1325.6529	0.124851	-434.116831	-434.108186	-434.107242	-434.150384	31.262	
C	-0.0111659601	 1.5125902292	 0.123696489	-0.495409
C	 0.0140742684	 0.0281263294	 0.0077259957	 0.162373
C	-0.001546133	-0.7343790212	-1.1244278325	 0.348434
O	 0.0331992083	-2.0644509441	-0.7280077738	-0.195385
C	 0.0683444907	-2.0062275516	 0.6239766822	 0.055877
N	 0.0595899069	-0.8143444352	 1.1178002053	-0.305292
N	-0.0394230274	-0.3868007378	-2.4400232672	-0.350362
C	-0.0404899939	-1.2791065809	-3.3601578374	 0.091319
N	-0.1466978518	-0.9469953288	-4.6777609734	-0.49971
H	 0.8798780291	 1.8841836686	 0.6420890328	 0.13078
H	-0.0517155239	 1.9656809038	-0.8692704258	 0.134598
H	-0.8814188658	 1.8491844584	 0.6981271477	 0.131472
H	 0.0991312964	-2.9488303799	 1.148539303	 0.139791
H	 0.0001553443	-2.3542764973	-3.1670992241	 0.123009
H	-0.0295569228	 0.0266769256	-4.9142298065	 0.26509
H	 0.1408487345	-1.6167766483	-5.3704328349	 0.263414
96.9537	135.2851	136.856	157.0937	249.6579	275.5662	356.2773	385.9393	426.7582	521.066	573.264	661.6085	661.9405	725.6069	799.0477	811.5522	951.1752	976.5874	995.4772	1062.059	1067.4731	1085.1501	1155.8607	1254.426	1301.0621	1308.8517	1357.785	1399.3646	1430.6093	1480.0628	1489.1817	1558.9632	1621.4393	1681.9615	1732.3911	3031.89	3082.1674	3097.0848	3130.6065	3266.6077	3590.0551	3720.3468
CC1=C(OC=N1)N=CN	Cc1c(ocn1)N=CN	
InChI=1S/C5H7N3O/c1-4-5(7-2-6)9-3-8-4/h2-3H,1H3,(H2,6,7)	InChI=1S/C5H7N3O/c1-4-5(7-2-6)9-3-8-4/h2-3H,1H3,(H2,6,7)
