14
gdb 43065	3.45752	1.99159	1.7678	3.93	63.12	-0.2234	-0.0221	0.2014	782.5028	0.103058	-436.625232	-436.619564	-436.618619	-436.655197	23.317	
O	-0.0243957346	-0.0054224884	 0.1641502005	-0.29944
C	-0.0724540396	 1.1750326497	 0.0316295548	 0.432659
C	-1.1588310297	 2.2710734287	-0.0553900431	-0.088183
O	-1.3851058695	 2.63063418	 1.3152454921	-0.25406
C	-0.2577765295	 3.361050569	 1.7323636165	 0.097208
C	 0.3570299933	 4.1564859531	 0.6270014438	-0.147336
C	 1.1199511053	 2.9697252133	 1.2176987712	-0.091311
N	 0.9909105703	 2.1715671121	-0.0484882369	-0.192346
C	 0.0007744083	 3.220354284	-0.530588124	-0.016427
H	-2.1147024261	 2.1444122204	-0.5640910936	 0.103608
H	-0.3513060726	 3.7422667155	 2.7408646523	 0.127169
H	 0.5584868716	 5.2169868116	 0.5982493749	 0.112046
H	 2.0150052824	 2.9206571681	 1.8260881233	 0.115523
H	 0.0653449104	 3.5223052727	-1.5725152618	 0.100889
151.1925	272.0765	435.9948	543.2185	604.3145	660.7996	722.1897	749.6368	790.2029	819.3663	833.1488	841.8863	894.7612	940.3571	943.2805	971.1003	991.9729	1021.6661	1045.3336	1055.5061	1073.5944	1090.3569	1123.5381	1170.6881	1205.9513	1236.8393	1257.2263	1270.5266	1306.1341	1393.4991	1922.2952	3116.327	3154.7758	3185.553	3212.9594	3228.7987
O=C1C2OC3C4C3N1C24	O=C1[C@H]2O[C@@H]3[C@H]4[C@@H]3N1[C@@H]24	
InChI=1S/C6H5NO2/c8-6-5-3-1-2(7(3)6)4(1)9-5/h1-5H	InChI=1S/C6H5NO2/c8-6-5-3-1-2(7(3)6)4(1)9-5/h1-5H/t1-,2-,3+,4+,5-/m0/s1
