17
gdb 38071	3.61911	1.40519	1.24312	2.2766	72.26	-0.2506	-0.0127	0.2379	1021.6886	0.136839	-421.781367	-421.774205	-421.773261	-421.813358	27.726	
C	 0.0257519719	 1.5266459073	 0.0549108736	-0.11359
O	 1.2926222475	 1.5676341919	-0.6324993373	-0.27335
C	 1.4623895213	 0.1469148229	-0.4876016648	-0.125901
C	 0.0277108869	-0.0255244377	 0.0763721913	 0.255444
C	-0.1764487765	-0.7497071567	 1.3827033253	-0.170001
C	-1.0878305754	-1.7228744326	 1.2937511881	-0.097071
C	-1.6652895089	-1.7559823208	-0.0844068717	-0.016372
O	-2.3380941182	-0.5228853481	-0.4466558139	-0.260501
C	-0.9792361014	-0.7020778748	-0.847147032	-0.046599
H	 0.0817511184	 1.9936546869	 1.0467852525	 0.100728
H	-0.7831243172	 1.9922628639	-0.5180533165	 0.119792
H	 1.6648903235	-0.3497838633	-1.4451941705	 0.104221
H	 2.2610294579	-0.1061097635	 0.2223137491	 0.098161
H	 0.3498422034	-0.4562559419	 2.2849188473	 0.109655
H	-1.4083555843	-2.3755181451	 2.0959806564	 0.1106
H	-2.0856971738	-2.6542380281	-0.5250628274	 0.102282
H	-0.8023034151	-0.7401234002	-1.9196226394	 0.102502
75.9749	124.5674	212.2415	333.0458	397.2996	428.5245	487.0742	595.6021	736.6215	766.125	827.4977	845.0049	851.1267	869.894	916.4528	947.4461	973.9799	979.5364	989.6559	1031.3781	1041.7312	1064.2298	1106.4843	1113.7326	1153.6432	1159.214	1190.3603	1253.6606	1271.0396	1303.2596	1307.6236	1372.425	1377.5445	1411.6329	1507.9845	1533.8529	1655.1082	3000.4644	3015.8042	3047.4992	3072.5289	3139.8608	3170.7559	3185.271	3220.5206
C1OCC11C=CC2OC12	C1OCC21C=C[C@H]1O[C@@H]21	
InChI=1S/C7H8O2/c1-2-7(3-8-4-7)6-5(1)9-6/h1-2,5-6H,3-4H2	InChI=1S/C7H8O2/c1-2-7(3-8-4-7)6-5(1)9-6/h1-2,5-6H,3-4H2/t5-,6-/m1/s1
