16
gdb 6302	4.28423	1.10373	0.98986	4.9077	65.63	-0.2667	0.0116	0.2783	1168.1608	0.129399	-379.98063	-379.971457	-379.970513	-380.015196	31.818	
C	-0.1516017124	 1.633461612	 0.1018829967	-0.399239
C	-0.0274659234	 0.0987414243	 0.0431538188	-0.124553
C	 0.7780571147	-0.4779629153	 1.2242070415	-0.324243
C	 2.2666471505	-0.1432774222	 1.1000226133	 0.418395
N	 2.9835988766	-0.3130496201	 2.2451522243	-0.524917
O	 2.7712543813	 0.2306138397	 0.0582693309	-0.355182
C	-1.350817064	-0.5289986484	-0.0113724057	 0.260144
N	-2.3965858104	-1.0205601961	-0.0421629846	-0.325678
H	 0.846524669	 2.0742524714	 0.0756515784	 0.150171
H	-0.720365032	 2.0087246265	-0.7520329821	 0.138497
H	-0.6624354639	 1.9493379098	 1.016532702	 0.127456
H	 0.5119867852	-0.1669550929	-0.8724865055	 0.152981
H	 0.3784262396	-0.1118489379	 2.1765486027	 0.12666
H	 0.6823685093	-1.5700044944	 1.2437533043	 0.14884
H	 2.5754029792	-0.6799594033	 3.0869312558	 0.263819
H	 3.9822455904	-0.1897136931	 2.2052054792	 0.266849
41.4851	75.434	139.0513	197.8623	199.0829	232.5529	291.971	332.2881	405.7825	501.82	546.9914	574.2681	610.811	651.4064	836.3679	851.8766	906.7889	951.5807	1059.7066	1092.7839	1103.9518	1140.5179	1233.2042	1262.7071	1326.6092	1340.836	1399.8718	1410.8764	1461.854	1496.7065	1504.4355	1620.309	1793.7458	2356.7027	3040.1884	3050.4063	3063.2163	3083.5281	3125.116	3146.051	3601.7472	3737.1174
CC(CC(N)=O)C#N	C[C@@H](CC(=O)N)C#N	
InChI=1S/C5H8N2O/c1-4(3-6)2-5(7)8/h4H,2H2,1H3,(H2,7,8)	InChI=1S/C5H8N2O/c1-4(3-6)2-5(7)8/h4H,2H2,1H3,(H2,7,8)/t4-/m0/s1
