23
gdb 110258	1.9171	1.45273	0.93897	1.6911	86.59	-0.2475	0.0763	0.3238	1352.2736	0.204933	-388.231576	-388.221739	-388.220794	-388.267036	37.106	
C	-0.1331240928	 1.7862372132	 0.032208588	-0.390029
C	-0.0512358298	 0.2872665711	-0.2858179387	-0.235842
C	-1.429678175	-0.3833582593	-0.1991153876	 0.065011
C	-2.2619648216	-0.8027379333	-1.4573809134	-0.146166
C	-1.4372053716	-2.1335136419	-1.5513522322	 0.075689
C	-0.0332738693	-2.2736258107	-2.1317260247	-0.4481
C	-1.7072162219	-1.9200083329	-0.0295313983	-0.155442
C	-3.1789736105	-1.6072365336	-0.4743733857	 0.193481
O	-4.1120190216	-0.9902191137	 0.3618616844	-0.454046
H	 0.8473144459	 2.2646871939	-0.0536834283	 0.112095
H	-0.8153372622	 2.2983041807	-0.6556327836	 0.117678
H	-0.5000929754	 1.9577985097	 1.050386502	 0.114369
H	 0.3861783658	 0.1713900828	-1.2789924088	 0.109342
H	 0.6406383053	-0.1928302445	 0.4184625241	 0.099217
H	-2.0041625925	 0.2128163161	 0.5236952854	 0.028891
H	-2.5817639972	-0.1639106059	-2.2840934899	 0.064354
H	-2.0480429607	-2.9426454687	-1.9724160181	 0.064852
H	 0.7414703798	-1.7511008163	-1.5735710061	 0.123965
H	 0.2429247043	-3.3337515529	-2.1441506694	 0.114698
H	-0.0001592185	-1.9224531043	-3.1695984806	 0.115944
H	-1.3877933472	-2.5608659493	 0.7955712907	 0.064388
H	-3.7061773671	-2.4521140753	-0.9231374108	 0.080774
H	-3.7262110164	-0.2002987148	 0.7532815119	 0.284878
22.608	114.1968	162.2952	178.7639	202.6982	240.9793	288.4003	303.7233	372.3431	385.9245	431.3845	527.8894	637.8807	722.0056	748.0249	781.9246	835.3501	855.4921	886.1526	899.6618	971.5526	1019.3919	1027.3206	1050.6214	1062.5572	1072.3311	1090.2803	1108.398	1127.8143	1140.9436	1163.9997	1199.3153	1212.453	1239.4111	1250.374	1280.7537	1288.9505	1310.1032	1343.3516	1409.8343	1415.5374	1425.0391	1472.2455	1475.9309	1486.1907	1498.9812	1501.5417	1505.0091	1515.1278	2981.5039	3007.8249	3023.7024	3027.9233	3036.2819	3080.7394	3082.4972	3084.6151	3085.1779	3093.9716	3101.9779	3110.7976	3160.2947	3814.6024
CCC1C2C(C)C1C2O	CC[C@H]1[C@H]2[C@@H](C)[C@@H]1[C@H]2O	
InChI=1S/C8H14O/c1-3-5-6-4(2)7(5)8(6)9/h4-9H,3H2,1-2H3	InChI=1S/C8H14O/c1-3-5-6-4(2)7(5)8(6)9/h4-9H,3H2,1-2H3/t4-,5+,6-,7+,8+
