19
gdb 114308	2.31638	1.3466	1.14576	2.2087	71.06	-0.2386	0.0479	0.2865	1169.4275	0.157678	-460.108408	-460.099209	-460.098265	-460.142167	34.524	
C	-0.0897985139	 1.5583901494	 0.0014167388	-0.50255
C	-0.0301115166	 0.058937031	-0.0167272788	 0.177154
C	-0.8281084889	-0.8406400904	 0.9223722511	 0.072775
O	-1.6585503211	-1.8924098133	 0.5390300446	-0.430427
C	 0.6529677395	-0.9607646018	 0.9050239714	-0.018621
O	 1.0305709052	-1.8027626975	-0.1975505366	-0.33944
C	 0.5715483695	-0.7788217644	-1.1455085484	 0.07226
C	-0.2661926433	-1.349529029	-2.2744903917	-0.102858
O	 0.5018259915	-2.2398051671	-3.0678368794	-0.41779
H	 0.8631330467	 2.0022419593	-0.3086296692	 0.123495
H	-0.8690437638	 1.9320125805	-0.673220858	 0.130969
H	-0.3200176148	 1.9321783418	 1.0040351948	 0.125392
H	-1.2374968953	-0.2922999526	 1.7678523789	 0.108107
H	-1.0713092523	-2.605183283	 0.2547706451	 0.290568
H	 1.3470895289	-0.883688808	 1.7352649647	 0.105781
H	 1.4619810292	-0.2946669086	-1.5686380626	 0.092423
H	-1.1721963399	-1.8236982019	-1.8774716152	 0.108291
H	-0.5791313062	-0.5322121681	-2.9343634059	 0.112584
H	 0.8343509356	-2.9243207862	-2.4764030536	 0.291889
83.5554	143.3939	177.4677	191.7336	213.7473	255.4373	280.678	367.7913	398.5078	427.1946	478.306	565.151	614.2584	654.3072	784.3868	822.886	848.9515	911.5132	959.0454	982.7409	1023.7138	1030.705	1066.3861	1072.9068	1113.1567	1122.8582	1172.9381	1211.5392	1233.1929	1240.8707	1291.0227	1305.1221	1344.5185	1388.3296	1401.9341	1420.1719	1433.6063	1469.7881	1487.5175	1497.517	1508.7529	3017.2325	3024.3635	3033.9206	3079.0361	3083.2268	3099.5117	3142.754	3168.3441	3762.5876	3804.2021
CC12C(O)C1OC2CO	C[C@]12[C@@H](O)[C@H]1O[C@H]2CO	
InChI=1S/C6H10O3/c1-6-3(2-7)9-5(6)4(6)8/h3-5,7-8H,2H2,1H3	InChI=1S/C6H10O3/c1-6-3(2-7)9-5(6)4(6)8/h3-5,7-8H,2H2,1H3/t3-,4-,5+,6-/m0/s1
