15
gdb 50975	1.82509	1.29788	0.83743	1.3884	68.05	-0.272	-0.0459	0.2261	1314.6205	0.110301	-453.982606	-453.973	-453.972055	-454.01938	31.814	
O	-0.654976703	 0.7830791632	 0.3813719821	-0.228622
C	 0.0278610385	 1.2054591118	-0.5125867248	 0.149335
C	 1.359375313	 1.9071797969	-0.2909333876	-0.281509
C	 1.5183342035	 3.1390966141	-1.2091889951	-0.150257
N	 0.4910823912	 4.1466607004	-0.9878475042	-0.280877
C	-0.5115893555	 4.3435605458	-1.8956114426	 0.165815
O	-0.6544368117	 3.6912163387	-2.9059414372	-0.312378
C	 2.8550716494	 3.7297075184	-1.0577792074	 0.286719
N	 3.9043987405	 4.1887378756	-0.9072512653	-0.304607
H	-0.2702314528	 1.0942206793	-1.5778306813	 0.11015
H	 1.4516858938	 2.1768109048	 0.764343978	 0.140126
H	 2.1600673897	 1.1929542699	-0.5262788238	 0.153449
H	 1.3912538509	 2.827848116	-2.2527452218	 0.177001
H	 0.5490865049	 4.7375178367	-0.1727883762	 0.269902
H	-1.1861785527	 5.1655928083	-1.5961749328	 0.105754
23.133	56.098	80.3898	133.1167	158.5115	216.4415	264.3493	316.2621	422.0732	458.6451	516.4173	555.6429	598.8921	724.1241	787.8635	936.6025	975.0859	1030.2279	1048.4999	1083.6477	1101.3243	1178.677	1227.9392	1270.7018	1335.7305	1367.5825	1421.7122	1432.3304	1451.8118	1513.8971	1799.1811	1840.6115	2362.7769	2904.3639	2979.9979	3033.9513	3062.1134	3112.2765	3633.5553
O=CCC(NC=O)C#N	O=CC[C@@H](NC=O)C#N	
InChI=1S/C5H6N2O2/c6-3-5(1-2-8)7-4-9/h2,4-5H,1H2,(H,7,9)	InChI=1S/C5H6N2O2/c6-3-5(1-2-8)7-4-9/h2,4-5H,1H2,(H,7,9)/t5-/m1/s1
