18
gdb 67857	2.49123	1.72653	1.3858	1.982	79.02	-0.2286	-0.0287	0.1999	1006.4377	0.146913	-401.939192	-401.931045	-401.930101	-401.971518	31.228	
C	-0.0182277381	 1.4723253505	-0.0347311751	-0.476644
C	 0.0033400052	-0.0377994494	-0.0211079076	 0.281518
C	-0.489588406	-0.7980663706	-1.2056590764	-0.135683
C	-1.185008767	-1.8627088125	-0.8091188382	-0.055877
C	-1.2291991633	-1.934188716	 0.6971782076	-0.214666
N	-0.4499004089	-0.7612299986	 1.1721894591	-0.15855
C	 0.9978932275	-0.7609572379	 0.8907890217	-0.142529
C	 1.8198536918	-1.9134386852	 0.4536659405	 0.148645
O	 1.4274455901	-2.9994974353	 0.0927276768	-0.277859
H	 0.6816650639	 1.864075592	-0.7805846643	 0.123163
H	-1.0200363874	 1.8356927324	-0.287091142	 0.130725
H	 0.2555911344	 1.874598114	 0.9433520659	 0.132333
H	-0.2935468108	-0.4922860392	-2.2255339065	 0.101661
H	-1.640003023	-2.6068583605	-1.4513220545	 0.108896
H	-2.2510108756	-1.8403946036	 1.0871773894	 0.114659
H	-0.8086923688	-2.8674753941	 1.0790235744	 0.14506
H	 1.5477389753	-0.1092217067	 1.5696164829	 0.099229
H	 2.9110917708	-1.6905584693	 0.4969083764	 0.075919
131.0881	174.3657	188.7472	213.0623	247.1625	298.6177	332.3425	418.0923	520.7942	601.6215	715.895	726.6022	741.3459	780.3966	834.4455	875.2823	918.3013	950.0632	951.1958	986.2324	1005.1589	1037.9372	1068.3723	1086.1268	1107.0355	1147.6074	1220.6525	1250.2011	1304.7138	1342.85	1364.3384	1393.6149	1413.3046	1432.4781	1475.96	1483.7572	1493.262	1669.6203	1795.7004	2861.5248	3022.6219	3036.1027	3099.9681	3102.731	3110.2748	3126.8456	3202.46	3226.4332
CC12C=CCN1C2C=O	C[C@]12C=CCN1[C@H]2C=O	
InChI=1S/C7H9NO/c1-7-3-2-4-8(7)6(7)5-9/h2-3,5-6H,4H2,1H3	InChI=1S/C7H9NO/c1-7-3-2-4-8(7)6(7)5-9/h2-3,5-6H,4H2,1H3/t6-,7+,8?/m0/s1
