20
gdb 95692	3.01295	1.26043	0.96912	3.8309	77.81	-0.2575	0.0206	0.2781	1249.6965	0.171936	-440.296691	-440.288105	-440.287161	-440.329884	32.9	
C	 0.29418306	 1.6265680425	 0.1439727884	-0.398885
C	-0.0377982883	 0.1487140199	-0.017237709	 0.133295
C	 0.4787964622	-0.4225957336	-1.3419243772	-0.201007
C	 0.1830271177	-1.9067432108	-1.546242013	-0.103077
O	 1.0309783966	-2.7810122634	-0.7937638721	-0.243713
C	 0.9170032842	-2.8797702962	 0.559840193	 0.387344
N	 1.5024603026	-3.8004322519	 1.2039507096	-0.500869
C	 0.0930808135	-1.8486044073	 1.308385452	-0.16847
O	 0.5237610019	-0.5181299275	 1.1060263787	-0.251365
H	 1.3782029373	 1.7759919682	 0.1317475434	 0.129463
H	-0.1465487256	 2.213448719	-0.6673062203	 0.114258
H	-0.0913245987	 1.9996218442	 1.095964915	 0.127124
H	-1.1351036177	 0.01760459	 0.0097532487	 0.064405
H	 0.0107505499	 0.1304546594	-2.1662223402	 0.102852
H	 1.5612194856	-0.2646913637	-1.4148688025	 0.119002
H	-0.8723386649	-2.1308730339	-1.339042577	 0.107387
H	 0.377403887	-2.185304201	-2.584740134	 0.12235
H	 1.9917681293	-4.4223846801	 0.5556738788	 0.217909
H	-0.9744208442	-1.9548285501	 1.0541210346	 0.100048
H	 0.2140843016	-2.075334734	 2.3682367331	 0.141948
78.146	128.7885	212.4513	236.6981	289.5633	318.5341	322.0028	373.0863	451.9251	476.9005	520.4049	578.0216	689.9819	769.3402	820.7867	883.6643	912.8329	931.4393	980.3576	985.5083	1026.3954	1059.6336	1075.7026	1130.4527	1154.2724	1161.5639	1192.2271	1244.0419	1283.455	1299.7832	1335.9838	1355.1272	1376.6294	1400.2125	1403.5438	1412.0466	1427.9523	1459.0644	1477.0752	1483.5042	1500.5388	1507.9787	1742.3815	2934.3845	2972.1978	3016.0847	3028.4253	3044.9371	3079.2375	3099.6663	3117.6484	3126.4058	3128.2177	3454.0114
CC1CCOC(=N)CO1	C[C@H]1CCO[C]([NH])CO1	
InChI=1S/C6H11NO2/c1-5-2-3-8-6(7)4-9-5/h5,7H,2-4H2,1H3	InChI=1S/C6H11NO2/c1-5-2-3-8-6(7)4-9-5/h5,7H,2-4H2,1H3/t5-/m0/s1
