19
gdb 97265	2.71147	1.087	0.93451	7.1387	75.48	-0.2408	0.0033	0.2442	1315.3963	0.15712	-456.396333	-456.386045	-456.385101	-456.4326	37.22	
C	-0.0056365483	 1.5666332383	 0.0991990486	-0.41296
C	-0.0163788633	 0.0279574467	 0.0962946209	 0.107806
C	 0.8217084508	-0.527836949	 1.2646409953	-0.397503
N	-1.3694471331	-0.5461035755	 0.0983382986	-0.275391
H	-0.9170927235	-1.3716102553	-1.429156673	 0.294542
C	-2.2228498588	-0.1970216844	 0.9743477119	 0.110359
N	-3.4616294489	-0.7602390773	 1.066804729	-0.502575
C	 0.6616429779	-0.4488229267	-1.2186006351	 0.43524
O	 1.7666624414	-0.0944168454	-1.5398207687	-0.364697
O	-0.0788026286	-1.2902559711	-1.9434634446	-0.379525
H	 1.0090658453	 1.9210974178	-0.0915012599	 0.15032
H	-0.6631853963	 1.9600157666	-0.6817474995	 0.122095
H	-0.3362031103	 1.9638908483	 1.0643955578	 0.102898
H	 0.4389508922	-0.153948862	 2.2201116073	 0.10344
H	 0.7810331211	-1.6207240465	 1.2829432531	 0.126304
H	 1.8633734277	-0.2184870864	 1.1543683198	 0.145684
H	-2.028646724	 0.5501444258	 1.7516998743	 0.10624
H	-3.7630125902	-1.3400759648	 0.2983750297	 0.262451
H	-4.1822353612	-0.2639817392	 1.5625758746	 0.265275
15.0031	99.2117	152.8696	163.2805	221.9004	259.6278	273.9549	302.5379	329.6702	356.3262	410.1966	419.8291	456.2304	566.1787	582.9411	651.1813	768.2666	775.3225	856.9493	859.9694	941.3435	967.1269	1014.5982	1027.7629	1118.4112	1179.1218	1189.644	1229.4157	1247.0567	1313.1497	1386.438	1405.2409	1413.5083	1456.5777	1478.6636	1487.8482	1498.8671	1508.6671	1631.3184	1759.5517	1857.9933	3035.566	3038.6422	3064.8894	3105.6798	3108.8099	3133.692	3139.6024	3397.7695	3590.5606	3718.5722
CC(C)([NH+]=CN)C([O-])=O	CC(C)(N=CN)C(=O)O	
InChI=1S/C5H10N2O2/c1-5(2,4(8)9)7-3-6/h3H,1-2H3,(H2,6,7)(H,8,9)	InChI=1S/C5H10N2O2/c1-5(2,4(8)9)7-3-6/h3H,1-2H3,(H2,6,7)(H,8,9)
