17
gdb 123791	5.50803	0.93356	0.82632	4.0175	75.16	-0.2035	0.0069	0.2104	1354.9697	0.138301	-414.16326	-414.155434	-414.15449	-414.196458	29.45	
C	-0.3779790053	 1.0705658701	-0.28717109	-0.253778
C	 1.0228499773	 1.1587167205	 0.2648666841	-0.285677
C	 0.380919343	-0.1859444499	 0.0730983188	 0.033814
N	-0.0181209934	-0.8982054685	 1.2482383441	-0.381759
C	-1.0072507709	-1.8610073399	 1.1371573398	 0.373578
C	-2.0200383157	-2.0027363165	 0.2104663454	-0.174322
N	-2.6922055225	-3.1013810003	 0.6557171545	-0.149655
N	-2.1456121466	-3.6095726264	 1.7617033384	-0.116328
N	-1.1166576158	-2.859966298	 2.0597539869	-0.277261
H	-1.1895217447	 1.356902104	 0.3711244653	 0.126257
H	-0.5362085659	 1.289107852	-1.3373490803	 0.112607
H	 1.8300375409	 1.4369701562	-0.4026439117	 0.117216
H	 1.1329502799	 1.508373934	 1.2848642488	 0.124078
H	 0.7392100424	-0.7897982613	-0.7633515597	 0.086614
H	 0.7414499771	-1.2105963101	 1.8386775646	 0.245603
H	-2.305414912	-1.4506142195	-0.6663065682	 0.139604
H	-3.5045933179	-3.5451743363	 0.2593382889	 0.279408
68.6371	73.909	126.5148	304.7532	343.5159	373.6132	482.7456	541.1471	593.6776	683.4454	707.3976	752.5197	765.9969	779.8686	843.0401	849.6538	966.7754	990.5597	1015.597	1046.4179	1058.5533	1079.0769	1081.1437	1133.1094	1140.3745	1193.6302	1197.0177	1244.4366	1277.0262	1301.8119	1352.2372	1404.4012	1450.6335	1458.7142	1498.1009	1535.5643	1631.8241	3069.9978	3139.7183	3144.8054	3224.718	3238.3133	3303.3709	3575.9873	3662.7734
C1CC1NC1=CNN=N1	C1CC1Nc1c[nH]nn1	
InChI=1S/C5H8N4/c1-2-4(1)7-5-3-6-9-8-5/h3-4H,1-2H2,(H2,6,7,8,9)	InChI=1S/C5H8N4/c1-2-4(1)7-5-3-6-9-8-5/h3-4H,1-2H2,(H2,6,7,8,9)
