22
gdb 62940	1.85872	1.83537	1.49983	1.5341	81.59	-0.2269	0.0736	0.3005	1073.5885	0.191859	-404.308995	-404.299326	-404.298382	-404.342147	38.394	
C	-0.1037292995	 1.5405208962	-0.119920037	-0.448541
C	-0.0082933768	 0.0195757537	-0.021220865	 0.275891
C	-1.381370729	-0.5977275146	 0.2512508138	-0.43005
C	 0.6958752295	-0.6841189106	-1.2017798292	-0.079363
N	 2.0822683379	-0.1631066204	-1.2750683689	-0.356
C	 1.7457428721	-1.2515908619	-0.3240286528	-0.115735
C	 1.137632009	-0.5786420169	 0.9267322135	 0.372655
C	 2.0352317775	 0.3856304098	 1.6867577906	-0.457151
O	 0.5595234399	-1.5319432764	 1.8063780693	-0.47643
H	 0.8477141688	 1.980781515	-0.4240229465	 0.132736
H	-0.8595231863	 1.824789183	-0.8612773486	 0.105083
H	-0.40400706	 1.980554885	 0.83760457	 0.109104
H	-2.0813081497	-0.295967508	-0.5364877296	 0.099411
H	-1.339203884	-1.6878662176	 0.280309561	 0.123588
H	-1.7832910381	-0.2562855726	 1.2094263335	 0.117612
H	 0.216324802	-1.11060978	-2.0758479713	 0.083189
H	 2.5276524755	-0.5957837795	-2.0836832678	 0.228248
H	 2.247486478	-2.2122416125	-0.360996975	 0.083864
H	 2.5385845573	 1.0721252094	 1.0044950423	 0.144292
H	 1.4592082999	 0.9606651585	 2.418311895	 0.119364
H	 2.8099914352	-0.1719038275	 2.2303969039	 0.094196
H	 1.2669468708	-1.8807983724	 2.3589541189	 0.274036
125.0792	216.0613	226.4497	241.4715	250.1033	263.4589	282.795	291.4904	331.3487	340.9275	394.9224	459.0807	524.2611	541.4748	624.5764	659.9357	808.6739	840.1945	856.4471	870.4702	931.2421	949.9559	961.9944	973.3742	1006.4572	1034.9581	1074.5282	1091.9687	1099.9507	1158.0646	1175.3089	1196.294	1237.2858	1253.6541	1303.7041	1327.4753	1339.6611	1386.4928	1392.4656	1397.9257	1422.4035	1477.1392	1485.4159	1486.8163	1497.2045	1502.0867	1516.7732	3017.0809	3028.1032	3035.9782	3084.5733	3089.601	3101.9628	3128.5351	3133.0051	3142.9968	3166.5916	3180.8839	3473.2933	3803.7787
CC1(C)C2NC2C1(C)O	CC1(C)[C@H]2N[C@H]2[C@]1(C)O	
InChI=1S/C7H13NO/c1-6(2)4-5(8-4)7(6,3)9/h4-5,8-9H,1-3H3	InChI=1S/C7H13NO/c1-6(2)4-5(8-4)7(6,3)9/h4-5,8-9H,1-3H3/t4-,5+,7-/m0/s1
