17
gdb 105336	2.52213	1.49361	1.17346	3.7912	72.05	-0.2611	0.0099	0.271	1080.2551	0.135973	-417.959438	-417.951063	-417.950119	-417.992453	31.409	
O	 0.0996986749	 1.472319757	-0.0526873648	-0.414597
C	 0.0964197352	 0.0699463381	 0.0980539301	-0.116998
C	-1.3231671649	-0.5117710056	-0.0410343845	 0.140314
C	-2.0224365826	-0.4783627979	-1.4390601591	-0.305298
C	-2.1131562591	-1.9981284008	-1.3238418679	-0.001866
C	-0.7836096635	-2.5963029211	-1.1347815055	-0.242846
N	-1.4562057876	-2.0210283832	 0.0537920821	-0.162943
C	-2.1549598333	 0.0995148944	 0.9998303104	 0.27192
N	-2.7680429188	 0.6425491521	 1.8158523253	-0.345468
H	-0.3721534742	 1.8572983356	 0.6953228376	 0.302175
H	 0.7347945645	-0.3194049987	-0.6976248663	 0.117011
H	 0.5178747609	-0.2560032469	 1.0600834373	 0.120249
H	-2.9851545533	 0.0307924434	-1.4199631197	 0.141132
H	-1.4230032643	-0.0823446169	-2.2623719062	 0.12643
H	-2.9997768631	-2.5875387907	-1.5276534788	 0.111085
H	-0.7206430175	-3.6772695702	-1.063819519	 0.137122
H	 0.0961032166	-2.1233616585	-1.5605674208	 0.122578
87.9735	136.7599	169.1782	185.7728	247.2437	374.4136	380.0212	407.2989	486.0965	504.448	568.5688	666.3005	755.8093	769.6139	846.4287	900.195	911.8602	953.7729	1000.8928	1006.558	1061.374	1092.5467	1108.854	1119.6461	1134.1371	1146.06	1202.5308	1238.9635	1268.1928	1293.5192	1364.3894	1379.8508	1424.8633	1486.2456	1495.1074	1510.3813	2351.1916	3006.4285	3075.5019	3105.2906	3127.1397	3146.0503	3181.4827	3212.6692	3793.5602
OCC1(CC2CN12)C#N	OC[C@]1(C[C@H]2CN12)C#N	
InChI=1S/C6H8N2O/c7-3-6(4-9)1-5-2-8(5)6/h5,9H,1-2,4H2	InChI=1S/C6H8N2O/c7-3-6(4-9)1-5-2-8(5)6/h5,9H,1-2,4H2/t5-,6-,8?/m0/s1
