16
gdb 8818	3.00552	1.46804	1.08017	2.9324	66.76	-0.2604	-0.034	0.2264	1099.6258	0.12667	-383.722307	-383.71307	-383.712126	-383.757124	32.428	
C	-0.0788492304	 1.5143685237	 0.0034296665	-0.379051
C	-0.0299370677	-0.0055722063	 0.1447474755	-0.288405
C	 0.7905736488	-0.4773582338	 1.3210580974	 0.363617
O	 1.363249844	 0.2658662708	 2.0847604727	-0.3144
C	 0.9286166462	-2.0070293571	 1.561369965	-0.108742
O	 1.8182399017	-2.241171224	 2.6176692648	-0.41467
C	-0.3960770775	-2.5926492277	 1.8003440682	 0.327829
C	-1.4836682162	-3.0637577424	 1.9995964003	-0.478378
H	 0.9244786365	 1.9297859631	-0.1197364706	 0.134479
H	-0.6799837454	 1.7977008532	-0.8644332284	 0.117738
H	-0.5168970996	 1.9750957582	 0.8923132263	 0.136728
H	-1.0330358682	-0.4363700031	 0.2507690563	 0.150477
H	 0.3868228074	-0.4783372113	-0.7558146503	 0.131102
H	 1.337971385	-2.4413770043	 0.6340563216	 0.118734
H	 1.9923855493	-1.3608583038	 2.9930593614	 0.296872
H	-2.4384429039	-3.4927082253	 2.1810512533	 0.206071
33.5593	65.9845	131.0909	186.7896	209.3516	237.1293	342.0469	391.0783	403.6326	445.0405	550.4058	582.5869	628.2475	675.6649	682.3667	762.6497	850.3662	957.4623	995.4111	1032.9217	1083.3132	1119.4016	1149.8988	1232.1522	1284.3099	1337.416	1376.4101	1415.4539	1434.0325	1449.2912	1493.15	1499.2902	1807.1475	2230.9885	2968.8187	3025.4142	3054.0353	3065.0178	3126.9562	3129.4718	3501.1974	3654.887
CCC(=O)C(O)C#C	CCC(=O)[C@@H](O)C#C	
InChI=1S/C6H8O2/c1-3-5(7)6(8)4-2/h1,5,7H,4H2,2H3	InChI=1S/C6H8O2/c1-3-5(7)6(8)4-2/h1,5,7H,4H2,2H3/t5-/m0/s1
