25
gdb 112964	3.80785	0.79181	0.75857	1.3759	89.27	-0.2597	0.0653	0.3251	1675.1672	0.227631	-389.490632	-389.479969	-389.479025	-389.526468	39.909	
C	-0.6610724942	 1.692644114	 0.2777601153	-0.377856
C	-0.1637433297	 0.247203124	 0.3801731408	-0.196211
C	-1.1452979812	-0.7665509433	-0.1939145006	 0.085384
C	-1.3647871789	-0.7975950867	-1.7357495944	-0.251751
C	-1.2407414482	-2.3490500403	-1.7154144189	 0.01883
C	-0.7047220051	-2.2570394252	-0.2531267324	-0.282287
C	-2.5638493007	-3.1007237259	-1.9006998719	 0.117468
C	-2.4009247747	-4.6172585365	-1.7883667998	-0.409356
O	-3.5854961738	-2.6273425134	-1.0209044601	-0.431666
H	 0.0699863842	 2.3976573153	 0.6857710466	 0.109065
H	-0.8489454099	 1.9739029777	-0.7641777829	 0.118784
H	-1.5984351832	 1.8268851516	 0.8290187628	 0.113705
H	 0.798145188	 0.1506380812	-0.142764804	 0.086729
H	 0.036451265	 0.0008980935	 1.4320022945	 0.090072
H	-2.110896634	-0.6751849851	 0.3144757938	 0.067132
H	-2.3134126587	-0.3990728281	-2.102694055	 0.104756
H	-0.5455240133	-0.3198744111	-2.2827910746	 0.087364
H	-0.5215561025	-2.7568533205	-2.4333216501	 0.063313
H	 0.3822725664	-2.37245928	-0.202075197	 0.095569
H	-1.1412416159	-2.934272986	 0.489659941	 0.077013
H	-2.9444389567	-2.8593198866	-2.901974956	 0.085329
H	-1.9970659059	-4.8975277939	-0.8075133666	 0.110717
H	-3.3678198031	-5.1125782759	-1.9129468311	 0.122269
H	-1.7133749885	-4.9988052172	-2.5499281838	 0.116095
H	-3.3779497453	-2.9445997318	-0.1354848358	 0.279535
53.1984	82.1132	124.2591	147.9774	210.8266	230.75	240.0905	258.3803	292.7245	352.903	403.9864	413.4488	478.5351	561.8293	683.4416	742.5456	782.7339	815.8931	871.6103	909.9466	937.954	953.1802	967.624	985.613	1021.1684	1028.3566	1043.5836	1078.7577	1090.1077	1131.1382	1150.1477	1170.2492	1221.9933	1229.4148	1265.8503	1274.409	1281.0791	1294.0267	1308.7803	1336.7222	1351.1174	1367.0595	1387.0818	1402.3046	1411.648	1423.8867	1469.1422	1484.0861	1491.0209	1493.7628	1498.2149	1499.9245	1506.5433	3003.9231	3021.8031	3028.1518	3030.1916	3030.84	3032.554	3041.0423	3052.3147	3054.2919	3084.8221	3095.2269	3097.0719	3101.4137	3108.0258	3116.6301	3807.0545
CCC1CC(C1)C(C)O	CC[C@H]1C[C@@H](C1)[C@@H](C)O	
InChI=1S/C8H16O/c1-3-7-4-8(5-7)6(2)9/h6-9H,3-5H2,1-2H3	InChI=1S/C8H16O/c1-3-7-4-8(5-7)6(2)9/h6-9H,3-5H2,1-2H3/t6-,7-,8-/m1/s1
