14
gdb 28740	3.532	1.1975	0.89863	0.6776	68.83	-0.2219	-0.0178	0.2041	1206.0337	0.102034	-470.053642	-470.045476	-470.044531	-470.08737	28.807	
N	 0.01506639	 0.9468085023	 0.9694353062	-0.605785
C	-0.1843098471	-0.1586686884	 0.1581100696	 0.271354
C	-0.9332530213	-0.391096158	-0.942851632	-0.114728
N	-0.7675100816	-1.7019587928	-1.3759639555	-0.364487
C	 0.071533222	-2.1941865502	-0.5161703691	 0.527793
N	 0.5373328007	-3.4951599756	-0.5497518605	-0.405128
C	 1.4221165332	-4.1217132518	 0.3034646275	 0.147519
O	 1.9609170674	-3.6257520986	 1.259348592	-0.283308
O	 0.4864725723	-1.3622409958	 0.4429864219	-0.177801
H	-0.2735728362	 0.7872864014	 1.9295031845	 0.25413
H	 0.980424586	 1.2607188355	 0.9759853706	 0.254126
H	-1.5828687826	 0.3007924557	-1.4539022088	 0.129833
H	 0.1567023644	-4.0300813213	-1.3169635593	 0.276704
H	 1.5763985328	-5.1708086624	-0.0148096872	 0.08978
47.2607	116.8875	140.3597	172.1177	275.8106	310.2745	397.7216	451.7944	604.5509	605.0488	627.247	728.6283	753.4113	767.24	864.5296	874.7411	956.7377	1003.9443	1018.2256	1125.6548	1155.0579	1200.0322	1215.5441	1292.7294	1420.7365	1452.0853	1473.2021	1639.0946	1656.0886	1702.9548	1828.5067	2949.95	3274.0841	3498.0483	3564.2649	3623.3148
NC1=CN=C(NC=O)O1	Nc1cnc(NC=O)o1	
InChI=1S/C4H5N3O2/c5-3-1-6-4(9-3)7-2-8/h1-2H,5H2,(H,6,7,8)	InChI=1S/C4H5N3O2/c5-3-1-6-4(9-3)7-2-8/h1-2H,5H2,(H,6,7,8)
