19
gdb 13660	5.12967	0.87433	0.80264	4.2986	76.56	-0.2821	0.0386	0.3206	1423.3073	0.165149	-327.937877	-327.928981	-327.928036	-327.972019	31.889	
C	 0.0334758572	 1.5500002969	-0.2266538925	-0.406766
C	 0.0336628314	 0.0513167064	-0.0142352411	-0.00897
C	 1.3179637025	-0.7423569347	-0.0277541135	-0.294078
C	 0.5267868034	-0.6068524684	 1.2557009022	 0.003266
C	 1.0762828545	 0.1729587739	 2.4305086795	-0.211708
C	 2.0472636785	-0.6882670507	 3.2685958771	-0.33009
C	 2.5972237217	 0.0335662296	 4.4134742101	 0.254318
N	 3.0219040444	 0.6225015194	 5.3126444762	-0.306431
H	 0.9299113948	 2.025683547	 0.1810218643	 0.118602
H	 0.0011356761	 1.7847524924	-1.29605792	 0.121669
H	-0.8367307191	 2.0219447615	 0.2429463289	 0.120539
H	-0.819728274	-0.4473936786	-0.4670439554	 0.087743
H	 1.3451049758	-1.7017764744	-0.5325344703	 0.112932
H	 2.2437659926	-0.1781129917	-0.1016190962	 0.11021
H	-0.0299048292	-1.4932326274	 1.5538486334	 0.084008
H	 1.6063616206	 1.0678778197	 2.0921481849	 0.119556
H	 0.2612008269	 0.5189483356	 3.0765857909	 0.120846
H	 1.5363303557	-1.5858176828	 3.6364198627	 0.149655
H	 2.8751774263	-1.0350076136	 2.6401476788	 0.1547
68.9783	84.1419	97.9914	182.7143	224.9274	246.2701	340.4014	393.8754	425.5019	484.7313	558.1519	752.2535	774.488	828.734	861.2394	901.4104	941.2442	958.2373	996.0066	1035.8812	1061.1043	1080.3944	1111.5011	1147.3045	1152.8619	1199.1525	1226.1706	1251.9927	1283.0176	1317.9859	1363.679	1396.4265	1419.6882	1431.1643	1467.5101	1486.967	1493.9004	1499.5155	1506.5442	2361.286	3031.609	3039.329	3047.4344	3075.3511	3090.975	3094.5644	3106.8812	3121.1611	3122.6225	3138.7478	3208.0458
CC1CC1CCC#N	C[C@H]1C[C@H]1CCC#N	
InChI=1S/C7H11N/c1-6-5-7(6)3-2-4-8/h6-7H,2-3,5H2,1H3	InChI=1S/C7H11N/c1-6-5-7(6)3-2-4-8/h6-7H,2-3,5H2,1H3/t6-,7+/m0/s1
