15
gdb 14115	3.89449	1.88419	1.45055	2.6624	62.06	-0.2414	0.0163	0.2577	853.0435	0.118966	-399.791497	-399.784114	-399.78317	-399.823163	27.59	
N	 0.0585294544	 0.8877071364	-0.827099996	-0.539703
C	-0.0115874187	 0.0117216423	 0.2089356892	 0.309287
O	 0.8526244418	-0.1393115687	 1.0537501593	-0.37934
C	-1.2718713168	-0.782473416	 0.219210253	 0.378782
C	-1.8641261304	-1.4372616293	 1.428295634	-0.324527
C	-1.4878579352	-2.289554604	 0.2443616412	-0.161894
C	-2.4528097863	-2.0266242989	-0.9070200417	-0.09823
O	-2.260158348	-0.584875154	-0.8026592543	-0.340587
H	 0.871790255	 1.4718898744	-0.9210743651	 0.263017
H	-0.6887329271	 0.9358045639	-1.499088829	 0.273542
H	-1.1824113089	-1.5050757656	 2.2684909141	 0.150347
H	-2.9064794728	-1.242820933	 1.6645488936	 0.118485
H	-0.747080352	-3.0751490428	 0.2906346517	 0.120419
H	-2.0941706675	-2.3907755014	-1.875429408	 0.116864
H	-3.5021398974	-2.309192153	-0.766311022	 0.11354
82.1673	173.4067	197.803	240.0397	363.2798	380.4513	458.9066	504.9142	609.2118	654.8404	739.836	766.3177	858.9542	879.9256	934.8996	970.5322	981.7467	1008.1943	1022.5543	1073.2181	1090.4263	1129.8838	1162.8805	1183.0134	1244.9821	1319.7152	1347.7958	1420.7993	1473.4146	1516.6313	1602.4588	1792.0546	3032.6137	3084.7186	3123.7764	3217.4897	3231.8546	3601.3455	3743.1543
NC(=O)C12CC1CO2	NC(=O)[C@]12C[C@H]1CO2	
InChI=1S/C5H7NO2/c6-4(7)5-1-3(5)2-8-5/h3H,1-2H2,(H2,6,7)	InChI=1S/C5H7NO2/c6-4(7)5-1-3(5)2-8-5/h3H,1-2H2,(H2,6,7)/t3-,5-/m0/s1
