18
gdb 12355	2.98252	2.01978	1.51396	2.2641	68.1	-0.2514	0.0158	0.2671	884.8187	0.15526	-384.954115	-384.946569	-384.945625	-384.985575	29.728	
O	 0.0333722178	 1.4316336807	 0.0213667675	-0.448854
C	 0.0407013292	 0.0163797727	-0.0080279868	 0.137173
C	 0.8016715431	-0.5670154731	 1.1980201413	-0.28418
C	 0.5246541502	-2.0317768856	 1.4181225633	-0.056212
C	-0.4653741506	-2.6945450425	 0.8180037516	-0.07198
C	-1.4203923434	-2.0518992431	-0.1575628705	-0.286696
C	-1.3953054762	-0.5240266328	-0.0588405371	 0.086787
O	-2.1156083455	-0.0439750671	 1.0831944222	-0.454973
H	-0.6607758148	 1.6685638847	 0.6512061299	 0.28183
H	 0.5547026632	-0.2714084118	-0.9331651226	 0.085932
H	 1.8758673125	-0.3926324784	 1.0695118373	 0.116199
H	 0.5257881836	 0.0054554789	 2.0961586138	 0.104493
H	 1.1749048713	-2.5551558528	 2.1154384174	 0.090116
H	-0.6068988797	-3.7530357621	 1.0217966197	 0.090328
H	-1.1713573205	-2.3593133925	-1.1831747798	 0.117008
H	-2.4458098562	-2.4000806236	 0.0173151161	 0.113945
H	-1.9059490439	-0.0764090489	-0.917170188	 0.0906
H	-1.8570740604	-0.5892174325	 1.8356781947	 0.288485
121.4668	142.8978	258.6664	341.5112	377.8291	383.8826	400.8817	457.2389	497.5016	571.32	632.8701	688.711	757.6659	868.3837	902.5665	907.3218	949.3001	982.504	1010.8662	1039.7183	1068.4483	1097.2476	1107.9091	1175.964	1196.0644	1215.628	1248.9799	1297.1068	1323.1899	1338.5557	1369.9585	1381.2885	1414.4161	1430.0374	1439.4064	1468.1679	1477.4829	1718.2081	3001.8946	3010.1723	3038.9172	3050.5003	3061.0589	3068.8719	3143.3544	3167.0908	3758.2014	3789.9379
OC1CC=CCC1O	O[C@H]1CC=CC[C@H]1O	
InChI=1S/C6H10O2/c7-5-3-1-2-4-6(5)8/h1-2,5-8H,3-4H2	InChI=1S/C6H10O2/c7-5-3-1-2-4-6(5)8/h1-2,5-8H,3-4H2/t5-,6+
