21
gdb 68879	2.31099	1.76476	1.38183	1.0719	82.23	-0.2407	0.0789	0.3196	1052.7862	0.182534	-387.05385	-387.045296	-387.044352	-387.086462	33.947	
C	 0.0679359667	 1.5498086653	 0.0608960004	-0.501471
C	-0.0237695439	 0.0506392875	 0.082701849	 0.304855
C	 1.1403695781	-0.833284647	-0.3286857472	-0.41299
C	 0.5717232213	-0.9663542017	 1.058126064	 0.363016
O	 1.3076515592	-0.6801353579	 2.198173141	-0.468814
C	-0.6892893696	-1.8153132293	 1.0320228406	-0.100911
C	-1.7487950026	-1.3791370386	 2.0773368233	-0.230773
C	-2.3872364319	-0.4063867846	 1.0440704036	-0.231355
C	-1.3054629923	-0.7798937841	-0.0036021796	-0.079822
H	 1.0476615822	 1.8829618146	 0.4174415929	 0.124897
H	-0.0707072479	 1.9437800238	-0.9531216411	 0.115883
H	-0.6897166234	 2.0119134778	 0.7026699776	 0.119686
H	 1.0175038039	-1.6203401092	-1.0707947326	 0.097177
H	 2.0955210657	-0.3182160835	-0.3688788516	 0.107338
H	 1.9887993725	-1.3542770533	 2.298726481	 0.28387
H	-0.5840024293	-2.8860219024	 0.8364195137	 0.053539
H	-2.4172383391	-2.1854748325	 2.3871424955	 0.093913
H	-1.3247053786	-0.9218606846	 2.9744118977	 0.110805
H	-3.389852082	-0.7140919887	 0.7370612978	 0.097236
H	-2.4339820051	 0.6483832663	 1.327699561	 0.096817
H	-1.6496004735	-1.0633504882	-1.0017921071	 0.057104
113.7833	171.7069	183.1167	211.9005	241.2976	270.4238	406.4012	435.822	480.0501	517.4907	539.8202	686.7392	706.5819	759.4694	823.1092	826.985	836.8956	862.3609	956.343	965.2602	979.0275	991.7024	1022.1561	1046.512	1054.4068	1097.4576	1130.3952	1144.8655	1169.2921	1187.0109	1234.9524	1251.4831	1259.0466	1273.8713	1282.8906	1291.8421	1322.5544	1342.9866	1404.9886	1420.263	1476.2648	1487.4441	1494.9553	1498.5651	1504.5268	3024.3315	3055.1363	3059.1181	3065.1817	3074.5188	3083.0248	3094.4386	3098.2961	3101.6078	3120.0958	3192.6283	3789.8823
CC12CC1(O)C1CCC21	C[C@@]12C[C@]1(O)[C@H]1CC[C@@H]21	
InChI=1S/C8H12O/c1-7-4-8(7,9)6-3-2-5(6)7/h5-6,9H,2-4H2,1H3	InChI=1S/C8H12O/c1-7-4-8(7,9)6-3-2-5(6)7/h5-6,9H,2-4H2,1H3/t5-,6+,7+,8+/m1/s1
