16
gdb 48420	2.21519	1.58488	1.22513	3.312	74.23	-0.266	-0.0505	0.2155	1057.9446	0.124065	-400.780905	-400.772706	-400.771762	-400.814199	29.94	
O	-0.1294316361	-0.0191780109	-0.1685465419	-0.228217
C	-0.0258656933	 1.1597599549	 0.0151873921	 0.140665
C	 1.3139391562	 1.9312820058	-0.0026312435	 0.046501
C	 2.517133841	 0.9645554149	-0.208920305	-0.307733
C	 2.8169976722	 1.1005924935	-1.6796587534	-0.053323
C	 2.1594002058	 2.1052386676	-2.2508987149	-0.058218
C	 1.2874843775	 2.8564990168	-1.2782312745	-0.314586
C	 1.3841285725	 2.7110750517	 1.2295717227	 0.235015
N	 1.4147267221	 3.3246507268	 2.2092752779	-0.334908
H	-0.9086023283	 1.811981701	 0.1846660662	 0.111946
H	 3.373555545	 1.2558512789	 0.4092825041	 0.13171
H	 2.2314632454	-0.0518725745	 0.0759643369	 0.146961
H	 3.5157564718	 0.4423163659	-2.1822702123	 0.109901
H	 2.2346843462	 2.3999672099	-3.2908892586	 0.109024
H	 0.2624347307	 3.0117858834	-1.6384729061	 0.123898
H	 1.6860561913	 3.8511913545	-1.0478713496	 0.141364
77.395	81.9583	170.5957	182.6218	286.0558	342.792	389.1808	485.1956	531.3746	554.819	612.2715	705.9223	771.1477	797.9446	885.1968	946.8045	963.2945	978.6848	983.8015	985.5662	1059.9494	1105.5838	1128.2086	1148.8517	1188.9344	1260.903	1304.453	1336.0138	1360.4128	1414.9582	1474.7098	1492.7569	1697.7108	1844.7825	2349.9906	2913.7712	3026.4273	3046.9415	3059.5353	3096.701	3195.1	3219.0349
O=CC1(CC=CC1)C#N	O=C[C@]1(CC=CC1)C#N	
InChI=1S/C7H7NO/c8-5-7(6-9)3-1-2-4-7/h1-2,6H,3-4H2	InChI=1S/C7H7NO/c8-5-7(6-9)3-1-2-4-7/h1-2,6H,3-4H2
