14
gdb 48126	2.57918	1.33206	1.05959	3.5806	64.85	-0.2577	-0.1015	0.1562	1117.3171	0.099304	-473.85477	-473.846224	-473.84528	-473.889261	29.225	
O	-0.8081383976	 1.3593464951	-0.1229781419	-0.211964
C	 0.2952108007	 0.9515811774	-0.3697817379	 0.09697
C	 1.5635351087	 1.7946627169	-0.1822007536	 0.290345
O	 2.6409683513	 1.2531336717	-0.2847720906	-0.283752
C	 1.3572707569	 3.2541561701	 0.0978852279	-0.265878
C	 2.6026415826	 4.0652865891	 0.5303835675	-0.183052
N	 2.4914914242	 4.8069682909	-0.7320056411	-0.314379
C	 1.40618011	 4.1394685322	-1.2177020383	 0.422847
O	 0.7659149057	 4.1992324077	-2.2266123145	-0.33394
H	 0.508367386	-0.0780736446	-0.7235281593	 0.114258
H	 0.4362625807	 3.4199741	 0.6570703906	 0.140118
H	 2.4620858571	 4.6809361994	 1.4227971133	 0.123171
H	 3.5095308696	 3.4623915053	 0.6139044722	 0.142801
H	 3.0636871941	 5.5249779388	-1.1507785542	 0.262454
43.5799	97.361	125.6295	132.2638	185.5607	271.4845	412.9011	439.9029	510.0004	569.4825	619.6637	674.5641	753.3292	805.3837	877.0878	987.2197	1004.1922	1028.9278	1074.9563	1132.3808	1153.5574	1174.8523	1185.641	1293.9287	1357.9954	1367.0914	1397.0325	1520.7076	1792.0249	1824.1929	1911.8567	2937.2854	3060.803	3118.7102	3130.7797	3617.2857
O=CC(=O)C1CNC1=O	O=CC(=O)[C@H]1CNC1=O	
InChI=1S/C5H5NO3/c7-2-4(8)3-1-6-5(3)9/h2-3H,1H2,(H,6,9)	InChI=1S/C5H5NO3/c7-2-4(8)3-1-6-5(3)9/h2-3H,1H2,(H,6,9)/t3-/m1/s1
