18
gdb 38397	3.94797	1.3426	1.32305	0.9661	74.76	-0.2366	0.0769	0.3135	1020.0504	0.148254	-401.854887	-401.847836	-401.846892	-401.886226	28.596	
C	 0.0700062426	 1.4225281827	 0.0363484943	-0.239428
C	 1.3192250107	 0.6467517199	-0.0387821093	-0.014036
C	 1.713207675	 0.1110185408	 1.3340588644	-0.334656
C	 0.3076163531	-0.5318298321	 1.3767822905	 0.360968
C	 0.0997894916	-2.0715188535	 1.5596555927	-0.333396
C	-0.9095532617	-1.7552251784	 2.6674487884	 0.037211
O	-0.2177676393	-0.9749609217	 3.6532993799	-0.248979
C	-0.7266021671	-0.3067981743	 2.4919796831	-0.045099
N	-0.0348165397	-0.0533318045	-0.0090283229	-0.182026
H	-0.1852987842	 1.9502941916	 0.9531115742	 0.112734
H	-0.2946506855	 1.8921849694	-0.8717552474	 0.122695
H	 1.9393031589	 0.6281558581	-0.9287995242	 0.096799
H	 2.5055510358	-0.6390343919	 1.3002147166	 0.115743
H	 1.9605687387	 0.8516800628	 2.1000017495	 0.110487
H	-0.3543225821	-2.4958429955	 0.661433408	 0.125269
H	 0.9669311645	-2.6614069052	 1.8668568726	 0.106537
H	-1.7727809507	-2.319487814	 2.9991837299	 0.106389
H	-1.4066140006	 0.5236823558	 2.6444912398	 0.102792
125.7289	162.7296	224.7466	373.1218	403.4109	431.2229	498.0663	550.4494	760.1329	766.0524	785.9933	815.6388	848.7938	861.0892	886.8276	894.2748	941.566	963.7493	983.2038	1004.0066	1035.2639	1058.3649	1078.9103	1106.6873	1117.8891	1139.2402	1156.2907	1185.2744	1201.2737	1227.5242	1237.9505	1257.051	1272.8304	1305.0235	1365.6466	1382.1107	1462.1731	1483.4725	1502.98	3059.1397	3065.4436	3104.999	3117.1841	3130.7035	3167.3105	3178.4714	3196.3563	3199.6595
C1C2CC3(CC4OC34)N12	C1[C@H]2C[C@]3(C[C@H]4O[C@@H]34)N12	
InChI=1S/C7H9NO/c1-4-3-8(4)7(1)2-5-6(7)9-5/h4-6H,1-3H2	InChI=1S/C7H9NO/c1-4-3-8(4)7(1)2-5-6(7)9-5/h4-6H,1-3H2/t4-,5-,6-,7-,8?/m1/s1
