17
gdb 97792	3.41453	0.69795	0.60622	3.1383	80.73	-0.2555	-0.0416	0.2139	1824.2658	0.132633	-421.785276	-421.775505	-421.774561	-421.821905	33.45	
C	-0.0770957056	 1.618886135	-0.0099582564	-0.367623
C	-0.0667837302	 0.0792523972	-0.024016563	-0.321131
C	 0.6202640024	-0.4800544421	-1.1821358113	 0.156587
C	 1.1976589618	-0.9298421609	-2.1395770488	 0.04577
C	 1.8620231343	-1.430018541	-3.3116426468	-0.157551
O	 3.2272641425	-1.8358028717	-3.2011465158	-0.226244
C	 2.2691048898	-2.8565902723	-3.4786458695	-0.044669
C	 2.028302457	-3.8356698806	-2.3742904929	 0.148668
O	 1.6421477618	-4.9601339117	-2.5651383329	-0.245599
H	 0.9418467516	 2.0143464216	 0.0044073404	 0.134055
H	-0.580760739	 2.0128258093	-0.8966204686	 0.131262
H	-0.6026246366	 1.9848371757	 0.8766143261	 0.120731
H	 0.411202886	-0.2966000965	 0.8893938277	 0.13959
H	-1.0968978223	-0.2987122684	-0.0020875416	 0.138611
H	 1.6375662104	-0.8999098013	-4.2374159191	 0.127021
H	 2.2865914683	-3.2770689659	-4.4831325645	 0.11987
H	 2.241987288	-3.4341023164	-1.3622183128	 0.100652
27.4877	56.3687	110.8099	115.0021	167.3919	224.459	292.2304	306.9969	361.5475	471.1166	482.9405	529.7772	564.269	736.7516	784.7241	851.0157	857.9333	959.1071	1008.1156	1029.7049	1077.6431	1100.494	1104.0423	1152.6507	1171.0625	1259.6945	1286.0191	1331.4884	1350.0172	1394.7254	1411.4617	1432.2098	1470.3098	1495.4447	1505.1436	1826.7502	2362.6954	2928.109	3025.0553	3047.9957	3053.8751	3108.3256	3122.6694	3127.5651	3135.9328
CCC#CC1OC1C=O	CCC#C[C@H]1O[C@H]1C=O	
InChI=1S/C7H8O2/c1-2-3-4-6-7(5-8)9-6/h5-7H,2H2,1H3	InChI=1S/C7H8O2/c1-2-3-4-6-7(5-8)9-6/h5-7H,2H2,1H3/t6-,7+/m1/s1
