19
gdb 7517	4.78071	1.17538	1.10372	1.4746	77.64	-0.2422	0.0446	0.2868	1147.7185	0.162971	-327.87678	-327.867498	-327.866554	-327.910443	34.288	
C	 0.0052200612	 1.3979812858	-0.3585024095	-0.400802
C	 0.0697866538	-0.0475253309	 0.073909433	-0.041106
N	 1.398691795	-0.6884932412	 0.1161959628	-0.362957
C	 0.6364953388	-0.5317537684	 1.3667560355	 0.33194
C	 1.2392681806	 0.4044228952	 2.3932133174	-0.450151
C	-0.0114882136	-1.7846053456	 1.9660036118	-0.433699
C	 0.9453523363	-2.6786968346	 2.613467934	 0.316684
C	 1.7458431352	-3.4077798688	 3.1355360275	-0.452328
H	 0.8538822858	 1.9695515486	 0.0218823068	 0.128089
H	 0.0222415105	 1.4675959057	-1.4515618143	 0.121513
H	-0.9187388665	 1.8699826401	-0.006468543	 0.114291
H	-0.7472125003	-0.6540098856	-0.3194134393	 0.074299
H	 1.3540640999	-1.6489810557	-0.2157235987	 0.227534
H	 1.7769272265	 1.2224417605	 1.9125599737	 0.128464
H	 0.4636188555	 0.8269583892	 3.0423029434	 0.1104
H	 1.9492702291	-0.1388272732	 3.024922078	 0.13379
H	-0.7768052901	-1.4834888074	 2.6942837172	 0.133012
H	-0.5416562487	-2.3333809934	 1.1771431747	 0.123455
H	 2.4485565008	-4.0549953102	 3.5988179889	 0.197572
59.0472	120.8989	165.1773	175.2989	228.4856	258.8421	335.1944	357.8238	388.5145	405.6503	471.8792	566.3372	622.3563	641.5057	723.0744	786.6319	866.0547	912.1337	936.2034	968.4871	990.3704	1031.6635	1082.1084	1091.2346	1108.9636	1146.8187	1215.0692	1238.5271	1274.2223	1337.4688	1368.2028	1412.3449	1421.2319	1458.0343	1461.9168	1480.6985	1490.3261	1499.1166	1512.2756	2236.4773	3012.4011	3034.8201	3037.7204	3047.007	3088.4931	3094.1798	3099.2408	3131.5271	3144.0774	3493.8071	3506.2079
CC1NC1(C)CC#C	C[C@H]1N[C@]1(C)CC#C	
InChI=1S/C7H11N/c1-4-5-7(3)6(2)8-7/h1,6,8H,5H2,2-3H3	InChI=1S/C7H11N/c1-4-5-7(3)6(2)8-7/h1,6,8H,5H2,2-3H3/t6-,7-/m1/s1
