16
gdb 69685	3.43603	1.30975	1.18842	2.4311	75.19	-0.222	0.0198	0.2417	1061.4917	0.122159	-400.603858	-400.595937	-400.594993	-400.635914	31.476	
O	-0.0743754629	 1.4755944052	 0.2185570303	-0.452859
C	-0.0411321798	 0.1108046038	 0.0205638412	 0.377486
C	-0.4477630695	-0.5795629258	-1.2462173682	-0.376007
C	-1.1737688288	-0.8746217901	 0.0534160335	-0.064132
N	-0.4924751651	-1.7428329254	 1.0990802911	-0.162685
C	 0.8485507581	-2.2565147206	 0.6784948874	-0.179502
C	 1.2176498439	-2.8918495432	-0.5565017044	 0.309622
C	 1.5955009425	-3.5364167062	-1.5001600308	-0.418937
C	 0.6854775471	-0.8153568402	 1.0230705683	-0.143994
H	 0.6030700874	 1.8784884901	-0.3364770305	 0.290137
H	-1.0510137126	 0.0659966565	-1.8799278724	 0.119232
H	 0.1683811601	-1.2899963378	-1.777122083	 0.143979
H	-2.2415282377	-0.7449179815	 0.1662017626	 0.116614
H	 1.2488791263	-2.8176217746	 1.5243487626	 0.131945
H	 1.9112302571	-4.0780580907	-2.3574499841	 0.200389
H	 1.1211394839	-0.4046574198	 1.9303838563	 0.108711
95.9014	172.4506	256.3113	288.8869	318.4526	371.5075	408.015	445.4283	582.174	601.0821	623.1463	634.8249	651.9791	674.4022	746.657	823.2648	830.6534	888.8057	939.8833	970.9718	998.9504	1013.1984	1060.5943	1071.2143	1073.9731	1112.3623	1196.3877	1226.8395	1247.2681	1304.0563	1329.7987	1396.4826	1423.1983	1499.8583	2224.5247	3095.5142	3135.1206	3144.8558	3208.5745	3247.7266	3500.6514	3785.6677
OC12CC1N1C(C#C)C21	O[C@]12C[C@H]1N1[C@@H](C#C)[C@@H]21	
InChI=1S/C7H7NO/c1-2-4-6-7(9)3-5(7)8(4)6/h1,4-6,9H,3H2	InChI=1S/C7H7NO/c1-2-4-6-7(9)3-5(7)8(4)6/h1,4-6,9H,3H2/t4-,5+,6-,7+,8?/m0/s1
