15
gdb 105146	2.44613	1.21785	0.9713	1.664	71.69	-0.2991	-0.0206	0.2785	1202.4247	0.11197	-416.813511	-416.80456	-416.803616	-416.847652	31.658	
O	 0.1074441445	 1.3581567327	-0.4500775804	-0.406192
C	 0.0231971678	 0.0783468381	 0.1319343532	-0.140539
C	-1.3924364476	-0.4959149615	 0.0407713077	 0.122448
C	-1.8484444452	-1.1277920574	-1.2517869297	-0.29505
C	-1.6094163869	-2.0161141529	-0.0505878157	-0.219671
C	-0.4722454888	-2.893737375	-0.0074746876	 0.304944
N	 0.4412883258	-3.6021804491	 0.0266373213	-0.325615
C	-2.3662462663	 0.2376090029	 0.810966582	 0.238682
N	-3.1141810225	 0.8612655185	 1.4353320276	-0.329005
H	-0.3471752767	 1.9862972883	 0.122092427	 0.302536
H	 0.7030537641	-0.5689809119	-0.4281977575	 0.140647
H	 0.3491432794	 0.0755721668	 1.1809687197	 0.124335
H	-2.8762496122	-0.9895116777	-1.563064038	 0.157521
H	-1.1184446045	-1.155193326	-2.0519251037	 0.162116
H	-2.486249841	-2.4004728459	 0.4586517139	 0.162843
77.755	107.9749	119.2132	152.1271	243.0154	264.651	314.2332	363.6634	415.6907	502.6247	547.4487	574.5168	640.8814	705.13	806.0003	900.1658	932.8075	953.4499	983.8744	1059.5274	1086.9458	1095.6676	1130.0143	1183.1564	1273.5046	1297.8736	1393.3455	1397.2053	1421.8529	1478.4065	1500.5525	2350.9218	2358.2766	3017.7299	3103.9726	3155.5307	3180.1415	3251.8986	3807.5581
OCC1(CC1C#N)C#N	OC[C@]1(C[C@H]1C#N)C#N	
InChI=1S/C6H6N2O/c7-2-5-1-6(5,3-8)4-9/h5,9H,1,4H2	InChI=1S/C6H6N2O/c7-2-5-1-6(5,3-8)4-9/h5,9H,1,4H2/t5-,6-/m0/s1
