14
gdb 50889	5.09757	0.73589	0.71299	4.8445	67.17	-0.2729	-0.02	0.2529	1537.2413	0.100406	-470.04356	-470.034477	-470.033533	-470.079653	30.332	
N	 0.1815224224	 1.1292493568	 0.5477206506	-0.393057
C	-0.0728697211	-0.0170111147	 0.0798957313	 0.085673
N	-1.3501165805	-0.4496503905	-0.2779857772	-0.374801
C	-2.5381279271	 0.237508905	-0.1661849904	 0.561607
O	-2.7245419164	 1.3331945653	 0.2777749068	-0.345341
O	-3.5200499006	-0.5819627496	-0.6826819625	-0.273939
C	-4.8474772709	-0.0715160872	-0.5914011638	-0.204898
C	-5.6395553318	-0.8781869275	 0.3424990012	 0.263659
N	-6.2772277075	-1.5115537866	 1.0674079363	-0.292524
H	 1.179203796	 1.213640398	 0.7339431961	 0.236434
H	 0.6565072854	-0.8139125224	-0.10825747	 0.106401
H	-1.4303876367	-1.3805743432	-0.6551983536	 0.271527
H	-4.8173135926	 0.9694157223	-0.2562113798	 0.194591
H	-5.2965342486	-0.1212795058	-1.587332135	 0.164668
21.4929	60.9495	77.5291	173.7796	186.4718	247.197	324.0826	367.4822	386.7131	557.038	576.5571	613.7032	765.1418	777.252	823.7619	931.2961	953.096	1023.8674	1051.7353	1063.9315	1138.9872	1197.5469	1256.4162	1290.057	1388.4607	1430.1874	1472.701	1548.434	1742.9098	1874.6571	2369.6431	3047.9494	3064.569	3114.4725	3507.3582	3645.8009
N=CNC(=O)OCC#N	N=CNC(=O)OCC#N	
InChI=1S/C4H5N3O2/c5-1-2-9-4(8)7-3-6/h3H,2H2,(H2,6,7,8)	InChI=1S/C4H5N3O2/c5-1-2-9-4(8)7-3-6/h3H,2H2,(H2,6,7,8)
