15
gdb 47373	2.59965	1.4677	1.17459	3.4961	66.67	-0.2707	-0.004	0.2667	1058.394	0.112044	-457.755529	-457.747588	-457.746643	-457.788571	29.395	
O	-0.0577341539	 0.021699095	 0.5813698523	-0.310465
C	-0.0814484821	 1.1253125171	 0.117523036	 0.408559
C	-1.3496549416	 1.9538995149	-0.0193589293	-0.333034
C	-1.2196398517	 3.1012547667	-1.0176422348	-0.113967
O	 0.0239627285	 3.7633800781	-0.7917124933	-0.213401
C	 1.1056313577	 2.9257191213	-1.0321751323	-0.003132
O	 1.092938796	 1.7280045028	-0.2264048725	-0.22583
C	 1.2407309688	 2.5425125696	-2.4466278195	 0.332845
C	 1.3705026717	 2.247593264	-3.6034854025	-0.438918
H	-2.1702730206	 1.2769776129	-0.266862516	 0.142842
H	-1.5512103453	 2.3571736956	 0.9801528042	 0.152401
H	-1.2683123053	 2.7389670459	-2.0525600937	 0.123759
H	-1.9976244982	 3.8536012052	-0.8769882635	 0.126862
H	 1.994125473	 3.4712279376	-0.7041983351	 0.139162
H	 1.4903864531	 1.9837412733	-4.6260046301	 0.212316
64.2627	97.2326	173.4722	233.9076	335.8082	427.9053	437.3192	482.0256	532.6068	588.2366	628.5741	670.2414	685.3693	758.7069	798.6542	867.4344	943.8807	973.2391	1011.621	1025.9968	1094.0374	1111.2046	1227.2282	1249.0307	1282.1889	1348.9948	1363.1411	1388.0175	1413.0239	1452.5596	1510.5594	1859.2066	2239.1604	3031.3061	3052.6487	3087.5777	3115.9097	3121.2413	3498.0148
O=C1CCOC(O1)C#C	O=C1CCO[C@@H](O1)C#C	
InChI=1S/C6H6O3/c1-2-6-8-4-3-5(7)9-6/h1,6H,3-4H2	InChI=1S/C6H6O3/c1-2-6-8-4-3-5(7)9-6/h1,6H,3-4H2/t6-/m0/s1
