23
gdb 59465	2.76874	1.05253	0.9558	1.5964	86.07	-0.2611	0.0825	0.3437	1393.6923	0.204422	-388.262014	-388.252113	-388.251168	-388.297017	37.06	
C	-0.8388595468	 0.9403423776	-0.4716284702	-0.38524
C	 0.2905572713	-0.0954115384	-0.3664847338	 0.011044
C	 1.6058340722	 0.4688148301	-0.9245638158	-0.38798
C	 0.4620433618	-0.549209855	 1.0745935521	 0.01842
C	-0.4470239301	-1.5885879604	 1.6847956712	-0.322567
C	 1.0091456135	-1.909782527	 1.4560496658	-0.060703
C	 1.4128851288	-2.9338728459	 0.4403640568	 0.059929
C	 0.8600276081	-4.2970572692	 0.4457032723	-0.177919
O	 0.4429466901	-3.3385207044	-0.5296151565	-0.226505
H	-0.606597484	 1.8357408744	 0.1179278639	 0.105957
H	-0.9884974205	 1.2569290856	-1.5093107539	 0.1071
H	-1.785349185	 0.5343545465	-0.1013807339	 0.113494
H	 0.0093529923	-0.9675686603	-0.9666487733	 0.103179
H	 1.9323295795	 1.3436846232	-0.3490327805	 0.106765
H	 2.4095013881	-0.2732225852	-0.885401857	 0.110107
H	 1.4894106809	 0.7835058053	-1.9669453541	 0.109051
H	 0.7607445605	 0.2567635221	 1.7439721522	 0.074838
H	-0.7997061663	-1.4568060453	 2.7016963991	 0.105089
H	-1.1518762282	-2.0711124206	 1.0152661675	 0.127479
H	 1.6508311997	-1.9277933541	 2.3344318953	 0.085905
H	 2.4141534782	-2.8093926735	 0.0231754989	 0.092464
H	 1.4491707865	-5.1269409436	 0.0584872075	 0.113845
H	 0.1082643193	-4.5589251819	 1.1883625763	 0.11625
62.1217	87.0307	117.0726	193.7692	218.3791	233.4886	248.2306	286.4392	339.0963	390.0794	457.6608	537.1937	623.6023	733.4803	760.4744	848.4627	852.1411	889.279	910.5452	928.7164	959.3284	974.6065	995.5845	1000.7541	1072.5181	1080.381	1098.2027	1128.4596	1134.4531	1144.5516	1160.5967	1174.7176	1186.0966	1207.552	1242.1101	1289.1168	1322.7489	1355.547	1388.3101	1396.325	1415.9687	1427.6675	1435.6619	1485.3473	1487.9234	1490.4205	1502.7368	1509.7077	1522.2226	3021.7364	3026.0242	3052.9874	3083.8034	3085.5577	3088.7554	3094.0709	3101.5455	3103.6453	3110.8529	3128.1733	3132.6589	3176.0034	3218.2873
CC(C)C1CC1C1CO1	CC(C)[C@H]1C[C@H]1[C@H]1CO1	
InChI=1S/C8H14O/c1-5(2)6-3-7(6)8-4-9-8/h5-8H,3-4H2,1-2H3	InChI=1S/C8H14O/c1-5(2)6-3-7(6)8-4-9-8/h5-8H,3-4H2,1-2H3/t6-,7-,8-/m1/s1
