17
gdb 106216	2.84909	1.70359	1.26786	1.4276	71.44	-0.2345	-0.0092	0.2254	992.0387	0.13566	-421.736399	-421.729032	-421.728088	-421.768189	29.367	
O	 0.1222465844	 1.4074460783	 0.0333445605	-0.417511
C	 0.0334347085	-0.0053679999	-0.1149188435	-0.196715
C	-1.3931618019	-0.4940239486	-0.0967066717	 0.283726
C	-2.4244210732	 0.0387431046	-1.0767951502	-0.169455
C	-3.5523938094	-0.6105383789	-0.7757868719	-0.114
C	-3.1721933811	-1.5133853574	 0.3815182971	-0.100455
C	-1.7136108225	-2.0216861705	 0.1244598556	 0.018547
O	-1.3775692555	-1.9386225233	 1.5536255629	-0.324654
C	-2.152660507	-0.7274277138	 1.2740378949	 0.023115
H	-0.1939971165	 1.6293081153	 0.9149387967	 0.283796
H	 0.4924229033	-0.2261439787	-1.0850589813	 0.110664
H	 0.6068693682	-0.5379470263	 0.6562224967	 0.108974
H	-2.2395165483	 0.7917865235	-1.8297207426	 0.118478
H	-4.5307956981	-0.5305454902	-1.2283390329	 0.111595
H	-3.888977429	-2.1799395932	 0.857438022	 0.082865
H	-1.3629767932	-2.894466151	-0.4330357459	 0.093057
H	-2.3397446689	-0.03722589	 2.1023384736	 0.087972
89.1205	163.4687	257.6158	307.7354	338.9858	409.5598	502.5902	553.3571	643.8362	674.0282	709.3483	754.0327	772.0449	833.7657	870.2351	894.7132	919.4979	934.2797	955.9353	975.4273	1030.4201	1071.1215	1082.5421	1093.7134	1140.0433	1144.7324	1167.628	1193.8172	1239.3261	1250.1282	1289.9181	1317.3439	1357.1151	1384.7712	1417.2015	1500.7801	1633.9579	3013.6352	3069.9843	3072.3136	3085.8618	3145.8352	3221.7074	3247.4012	3817.0347
OCC12C=CC3C1OC23	OC[C@@]12C=C[C@H]3[C@@H]1O[C@@H]23	
InChI=1S/C7H8O2/c8-3-7-2-1-4-5(7)9-6(4)7/h1-2,4-6,8H,3H2	InChI=1S/C7H8O2/c8-3-7-2-1-4-5(7)9-6(4)7/h1-2,4-6,8H,3H2/t4-,5-,6+,7-
