21
gdb 53089	4.45684	0.7755	0.6816	0.1332	99.36	-0.2102	-0.0013	0.2089	1713.2237	0.183301	-349.965269	-349.955799	-349.954855	-350.000829	34.592	
C	-0.0944690131	 1.4952785991	 0.0101747888	-0.504741
C	-0.0068752942	 0.0431667078	-0.0097624828	 0.187859
C	 0.0846258773	-1.1609946674	-0.0273365248	-0.102144
C	 0.1157253324	-2.5847391134	-0.0406042259	 0.149556
C	 1.270504035	-3.2639946418	-0.1485849711	-0.135243
C	 1.3730166903	-4.7644024771	-0.132757108	-0.241021
C	 0.0798085742	-5.4372047544	 0.348003703	-0.197659
C	-1.1424583214	-4.7762349077	-0.2979534501	-0.204437
C	-1.2255611634	-3.2918675885	 0.0799283125	-0.289347
H	 0.3908467841	 1.91338951	 0.899781897	 0.147341
H	 0.3920708868	 1.9366900964	-0.8673250925	 0.147618
H	-1.1371967166	 1.8318886681	 0.013838004	 0.146574
H	 2.1965170924	-2.704921865	-0.2527952689	 0.083471
H	 1.6294737805	-5.1203021667	-1.142970536	 0.108688
H	 2.2183458039	-5.065619566	 0.4995521797	 0.103413
H	 0.1062847478	-6.5091933688	 0.1258475375	 0.090426
H	 0.0058024298	-5.3416540586	 1.439067778	 0.099229
H	-1.0676309651	-4.8692605498	-1.3893637321	 0.098931
H	-2.0639502277	-5.2883503393	-0.000961534	 0.091107
H	-1.5928934227	-3.1808947646	 1.1099306904	 0.11139
H	-1.9578209504	-2.7755305424	-0.5507990548	 0.108988
28.2815	78.159	88.1105	163.5118	246.322	291.7746	300.8051	361.4839	394.7799	463.9877	532.135	555.2291	565.8115	743.5977	816.7958	845.8914	869.8804	921.3835	927.4465	941.6534	1005.356	1049.4151	1053.3792	1060.4335	1088.1834	1098.875	1156.6318	1192.4885	1242.9803	1264.8683	1298.5083	1328.7413	1367.2841	1372.5382	1380.072	1387.0891	1414.2727	1471.3628	1477.0782	1477.7328	1478.7671	1489.8729	1500.0206	1693.7156	2346.1109	2986.2538	3010.401	3018.4525	3021.9224	3023.2839	3036.6289	3059.8267	3069.5702	3073.9878	3078.8954	3084.2657	3163.3674
CC#CC1=CCCCC1	CC#CC1=CCCCC1	
InChI=1S/C9H12/c1-2-6-9-7-4-3-5-8-9/h7H,3-5,8H2,1H3	InChI=1S/C9H12/c1-2-6-9-7-4-3-5-8-9/h7H,3-5,8H2,1H3
