19
gdb 109745	2.21691	1.37258	1.17831	7.019	73.21	-0.2306	0.0185	0.2491	1153.7791	0.159661	-456.332321	-456.323136	-456.322192	-456.366356	33.804	
C	-1.7480820203	 0.491427005	-1.0075680988	-0.337358
N	-0.660033952	-0.2936973993	-0.4360821193	-0.104382
C	 0.624477685	-0.502498169	-1.0723913729	-0.014223
C	 1.0595111775	-0.0952546987	-2.4748563914	-0.219967
N	 0.5673918289	 1.205905837	-2.9565402317	-0.522493
H	 0.5868050096	 2.1586338373	-1.5794558744	 0.33644
H	 1.1463763168	 1.5418819186	-3.7189375727	 0.256339
H	-0.3785867574	 1.1273378243	-3.3138581252	 0.25492
C	 0.5247977893	 0.3386363119	 0.1758623887	-0.149925
C	 0.7238067365	 1.8364327941	 0.3420440534	 0.378394
O	 0.9506671364	 2.264786507	 1.4474371766	-0.335571
O	 0.6157361183	 2.650016238	-0.7089611934	-0.395557
H	-1.4877561748	 1.50229423	-1.3424838517	 0.120655
H	-2.1820735509	-0.0668590967	-1.8445323517	 0.115902
H	-2.525553586	 0.5910354471	-0.2438981348	 0.141346
H	 1.002800046	-1.5109182689	-0.8857731469	 0.103761
H	 2.1547841557	-0.057465436	-2.4746177546	 0.136649
H	 0.7791990577	-0.911834573	-3.1560900422	 0.11776
H	 0.8183213035	-0.1372331089	 1.1079790429	 0.117311
71.3685	115.9074	150.5094	192.0827	229.5748	276.8724	297.3398	360.7291	371.5702	397.0828	476.5009	609.4921	673.0294	719.2867	760.0518	814.846	849.8473	889.7663	957.8256	998.1941	1048.2512	1053.5166	1109.0733	1145.1922	1150.3932	1166.6955	1176.7906	1215.1473	1298.0213	1344.7066	1355.0383	1383.7906	1414.4313	1432.208	1464.014	1483.5334	1492.0666	1497.1049	1518.764	1653.8138	1825.906	2995.1018	3017.5499	3063.6915	3067.1046	3073.3795	3082.044	3096.9745	3142.5142	3513.6235	3590.9366
CN1C(C[NH3+])C1C([O-])=O	CN1[C@@H](CN)[C@H]1C(=O)O	
InChI=1S/C5H10N2O2/c1-7-3(2-6)4(7)5(8)9/h3-4H,2,6H2,1H3,(H,8,9)	InChI=1S/C5H10N2O2/c1-7-3(2-6)4(7)5(8)9/h3-4H,2,6H2,1H3,(H,8,9)/t3-,4-,7?/m0/s1
