19
gdb 11542	4.01897	1.1837	0.96094	3.7385	72.87	-0.2349	0.04	0.2749	1232.9783	0.165171	-365.084834	-365.075723	-365.074779	-365.119559	32.135	
C	 0.9337193874	 1.1124237087	 0.0248998319	-0.332519
N	 0.9602462242	-0.1814502714	-0.625759326	-0.303529
C	-0.1065503254	-0.6776849003	-1.3149676407	 0.391964
O	-1.1543662014	-0.0709549913	-1.4538037439	-0.381273
C	 0.0793837597	-2.0848162088	-1.8946118712	-0.312559
C	 1.4993876922	-2.5508177168	-2.136713938	-0.002512
C	 2.3006798454	-3.214989017	-1.0327154047	-0.26464
C	 1.8093032061	-4.0225659452	-2.2072675583	-0.280007
H	 1.736439909	 1.7606995804	-0.3441485024	 0.121645
H	-0.0295470824	 1.5701209778	-0.2034734533	 0.170182
H	 1.0346619176	 1.0187946502	 1.112619807	 0.121544
H	 1.780850247	-0.758436635	-0.5452412867	 0.252695
H	-0.4260356817	-2.7782344094	-1.2092308217	 0.121864
H	-0.5015217956	-2.103734022	-2.8218540456	 0.132555
H	 2.0686578907	-1.9211777412	-2.8159215853	 0.094955
H	 3.3633018878	-3.0084115896	-0.9613104694	 0.1155
H	 1.8128330831	-3.3707664188	-0.0755331372	 0.118703
H	 0.9948324651	-4.7185144069	-2.0357764949	 0.118258
H	 2.5361391813	-4.3608093035	-2.9370136597	 0.117175
55.0781	77.7785	86.2646	133.7709	176.003	277.889	322.2464	353.9651	451.4988	510.3938	620.7874	678.9343	783.0502	809.6019	836.3244	876.1881	905.96	942.2356	1011.7156	1056.0395	1082.5295	1102.2803	1136.4474	1149.435	1159.319	1172.799	1201.5283	1226.8672	1248.1019	1276.8661	1309.5388	1412.4894	1436.6306	1459.5858	1472.0115	1493.7251	1501.3149	1506.1184	1563.4379	1778.8279	3023.5564	3030.6479	3073.5936	3086.4332	3125.9273	3134.9864	3140.2461	3152.1629	3206.0161	3223.2798	3649.4083
CNC(=O)CC1CC1	CNC(=O)CC1CC1	
InChI=1S/C6H11NO/c1-7-6(8)4-5-2-3-5/h5H,2-4H2,1H3,(H,7,8)	InChI=1S/C6H11NO/c1-7-6(8)4-5-2-3-5/h5H,2-4H2,1H3,(H,7,8)
