19
gdb 128764	3.23025	1.06562	0.84091	2.5381	79.32	-0.2264	0.0238	0.2502	1384.5829	0.159747	-419.222391	-419.212981	-419.212037	-419.257464	33.101	
C	-0.6760389798	 1.2954989604	 0.6690524554	-0.220634
O	-0.8581373616	-0.1002120634	 0.6932784479	-0.230825
C	-0.7180304684	-0.6883022981	-0.5930604682	-0.204511
C	-0.9415049234	-2.1617229439	-0.5044710497	 0.124627
C	-2.0491997185	-2.8186550054	 0.0119159615	 0.301007
C	-3.3111667524	-2.3007404257	 0.6205847626	-0.514031
N	-1.7887395325	-4.1414409512	-0.1403460492	-0.245228
N	-0.5969712597	-4.4038144691	-0.7161102472	-0.237008
C	-0.0835032945	-3.1983069365	-0.9348000449	-0.086343
H	-0.8068404261	 1.6606846284	 1.6905784067	 0.126581
H	 0.3324771479	 1.56950406	 0.320486276	 0.104793
H	-1.4091979483	 1.79496474	 0.0150506712	 0.101292
H	-1.4338227739	-0.2133295514	-1.2873218977	 0.089985
H	 0.2887787896	-0.4892252318	-0.9955680586	 0.094864
H	-3.6634935472	-2.9503662698	 1.4287802356	 0.12639
H	-3.1309657752	-1.307762467	 1.0356140386	 0.161643
H	-4.1194779419	-2.222932549	-0.1169477773	 0.134768
H	-2.3690481702	-4.9119194512	 0.1472549982	 0.267047
H	 0.8904083363	-3.104742455	-1.394848321	 0.105583
58.0859	83.6188	107.9113	126.7503	227.9594	246.5326	251.2478	331.084	385.8689	405.2316	530.0323	659.6165	689.2644	699.0318	784.3483	887.9161	949.7726	976.615	1007.8537	1013.1219	1063.7225	1135.0808	1137.6548	1180.0807	1198.6933	1222.2668	1231.9899	1273.3587	1311.5958	1364.2854	1410.6224	1428.3459	1448.2549	1479.1749	1482.8433	1484.6141	1497.5405	1504.6085	1523.0506	1534.7482	1625.8939	2940.117	2966.9101	2980.7482	3010.029	3027.247	3082.8682	3113.8428	3140.9122	3234.6562	3663.1805
COCC1=C(C)NN=C1	COCc1c(C)[nH]nc1	
InChI=1S/C6H10N2O/c1-5-6(4-9-2)3-7-8-5/h3H,4H2,1-2H3,(H,7,8)	InChI=1S/C6H10N2O/c1-5-6(4-9-2)3-7-8-5/h3H,4H2,1-2H3,(H,7,8)
