23
gdb 118008	3.23531	0.84892	0.71023	1.0496	89.24	-0.2491	0.0566	0.3057	1662.0797	0.201568	-388.262368	-388.250875	-388.24993	-388.299697	41.245	
C	-0.1281989357	 1.5290151157	-0.0567102059	-0.384344
C	-0.0205302175	 0.0251366223	 0.135847077	-0.038909
O	-1.3076202365	-0.5369785572	-0.0337894234	-0.258819
C	-1.3650246116	-1.9558740582	 0.013919405	 0.146411
C	-1.3235972498	-2.4694409746	 1.4540331021	-0.412224
C	-2.6700204575	-2.3499004007	-0.7238299218	-0.1555
C	-2.6981044583	-1.8055231594	-2.1659026193	-0.396956
C	-2.866747991	-3.7980019349	-0.717648369	 0.322137
C	-3.0191598827	-4.9905433014	-0.7484426821	-0.479234
H	 0.8512688784	 2.0001824597	 0.0692315194	 0.114464
H	-0.5013656059	 1.7634867522	-1.057737793	 0.125253
H	-0.8172725665	 1.9603161815	 0.6749735146	 0.127052
H	 0.6801183956	-0.4097868763	-0.5963984896	 0.08678
H	 0.3793874251	-0.1988530342	 1.1369452625	 0.090322
H	-0.5156709637	-2.3753630407	-0.5510214043	 0.07061
H	-0.3911239905	-2.1825226095	 1.9478001322	 0.113938
H	-2.157036363	-2.0497539579	 2.026922838	 0.120145
H	-1.3976081228	-3.5590523227	 1.4764501051	 0.134765
H	-3.4932527858	-1.883880039	-0.1641415201	 0.110229
H	-3.6476708386	-2.0495677823	-2.648623611	 0.120504
H	-2.568142029	-0.7225863611	-2.1543353581	 0.131851
H	-1.893748885	-2.2510963959	-2.7598515428	 0.118414
H	-3.1634123579	-6.0423288851	-0.7657217753	 0.193112
39.7086	54.599	86.5183	141.674	189.004	213.5074	217.4913	243.4141	258.4708	278.959	348.65	401.9825	432.922	465.2947	557.3463	567.7096	625.2279	639.7747	814.0322	822.3799	854.2832	905.3703	956.3127	986.383	1041.4506	1081.9917	1100.1747	1126.1281	1143.6338	1151.8274	1186.0775	1194.0457	1288.8109	1298.6685	1328.0366	1364.5968	1366.9325	1399.2602	1402.8266	1406.3773	1436.7404	1483.4828	1491.0043	1493.903	1496.5618	1499.8228	1501.8144	1530.3049	2232.1951	2960.1588	2967.8403	2996.0022	3013.2608	3044.2009	3045.0522	3048.1155	3114.1949	3117.1869	3118.6404	3121.1314	3132.2719	3147.686	3504.5413
CCOC(C)C(C)C#C	CCO[C@@H](C)[C@@H](C)C#C	
InChI=1S/C8H14O/c1-5-7(3)8(4)9-6-2/h1,7-8H,6H2,2-4H3	InChI=1S/C8H14O/c1-5-7(3)8(4)9-6-2/h1,7-8H,6H2,2-4H3/t7-,8-/m0/s1
