18
gdb 61974	4.3279	0.79273	0.70832	5.6131	74.17	-0.245	0.0048	0.2497	1563.1536	0.146784	-435.305699	-435.295254	-435.294309	-435.342853	35.845	
C	-0.3668946126	 1.4221267883	-0.0354019634	-0.481275
C	 0.1983865671	 0.0551880238	-0.3794381719	 0.404568
O	 1.3751225559	-0.2234170714	-0.210606565	-0.373051
N	-0.7020445241	-0.8442428824	-0.8741207733	-0.308761
C	-0.398086712	-2.2492933556	-1.0963367671	-0.182857
C	 0.3634031288	-2.5162392115	-2.4351837389	-0.103
N	 1.8065746487	-2.2758376089	-2.417800289	-0.519128
C	 0.1026391627	-3.8989377436	-2.8633168823	 0.282527
N	-0.1257770204	-4.9915417903	-3.1614527927	-0.316147
H	 0.3367812367	 2.1867212448	-0.3691238714	 0.160316
H	-1.3482934789	 1.6127991172	-0.477154851	 0.119502
H	-0.4526332776	 1.5042763816	 1.0526820505	 0.159581
H	-1.6592321832	-0.5527514452	-0.9789520311	 0.254147
H	 0.2133516518	-2.6244509241	-0.2696160874	 0.142191
H	-1.3467216827	-2.792554692	-1.0968686722	 0.12905
H	-0.0837675009	-1.8560445053	-3.1909853211	 0.130425
H	 1.9746162227	-1.4152744779	-1.8989214999	 0.264681
H	 2.258233538	-3.0095908376	-1.8780997629	 0.237229
27.777	46.6713	83.5816	114.806	170.1403	231.3577	240.5396	264.9041	335.6847	381.1855	435.8869	474.9266	539.6213	583.8308	633.4378	646.2472	824.0721	885.5163	926.9152	964.4532	997.9546	1042.8576	1052.8219	1110.411	1163.3459	1217.0249	1270.4598	1296.1867	1325.7672	1382.0737	1396.9965	1423.9013	1460.1406	1467.5239	1486.6482	1538.2051	1681.0202	1765.825	2361.5688	3019.7362	3050.4383	3055.108	3111.5028	3120.4838	3145.5976	3473.9795	3549.0633	3652.6732
CC(=O)NCC(N)C#N	CC(=O)NC[C@@H](N)C#N	
InChI=1S/C5H9N3O/c1-4(9)8-3-5(7)2-6/h5H,3,7H2,1H3,(H,8,9)	InChI=1S/C5H9N3O/c1-4(9)8-3-5(7)2-6/h5H,3,7H2,1H3,(H,8,9)/t5-/m0/s1
