20
gdb 68365	2.89325	1.50807	1.18724	3.8545	78.86	-0.2354	0.033	0.2684	1093.4239	0.172648	-403.190664	-403.182661	-403.181717	-403.222894	32.284	
C	-0.0665457665	 1.5550237935	 0.0296478744	-0.474721
C	 0.0406129508	 0.04052352	 0.0135808759	 0.301892
C	 1.1198996595	-0.6375706647	-0.891104811	-0.252171
C	 1.140271554	-1.7654541534	 0.1755680664	-0.001032
C	 0.7275345159	-0.6876681446	 1.2140061737	-0.252178
N	 0.0179476226	-2.6658181112	-0.0550219842	-0.294322
C	-1.2403946906	-2.1814890913	-0.2779010554	 0.388424
O	-2.2090039645	-2.8886966324	-0.4756213273	-0.382003
C	-1.3122636675	-0.6462108192	-0.2549405754	-0.356513
H	 0.9073437652	 2.0176435441	 0.2221643388	 0.11076
H	-0.4361689711	 1.9357867416	-0.9296137051	 0.117955
H	-0.7599970439	 1.8944394934	 0.8079200234	 0.117955
H	 0.8472533512	-0.9179367094	-1.9121307498	 0.100436
H	 2.0517927812	-0.065644439	-0.8954544754	 0.099362
H	 2.048611967	-2.3477229177	 0.3310004295	 0.076132
H	 1.5904230515	-0.1245561267	 1.5798912993	 0.099364
H	 0.1079526455	-1.0123286623	 2.0543325804	 0.100433
H	 0.1372637247	-3.6664969691	-0.0566900556	 0.24768
H	-2.0502685642	-0.3683066342	 0.5067081313	 0.126264
H	-1.7287613907	-0.3274194573	-1.2176954438	 0.126285
75.5474	216.6378	247.7216	267.5582	367.9795	377.309	403.8569	440.361	479.8977	487.0269	603.8685	613.1224	667.4585	818.2046	828.8975	847.8085	895.8289	910.6621	925.3619	948.0189	1013.8123	1017.408	1062.4281	1080.2702	1113.5272	1125.2737	1192.6564	1198.6408	1235.2735	1254.4532	1267.1445	1279.2816	1304.347	1352.1729	1378.116	1412.2568	1446.4602	1465.0522	1470.2291	1491.2321	1493.0267	1504.9224	1801.226	3020.9766	3039.1082	3050.2968	3057.6296	3076.4945	3086.7663	3093.2144	3109.3926	3113.1015	3117.1203	3637.1336
CC12CC(C1)NC(=O)C2	C[C@@]12C[C@@H](C1)NC(=O)C2	
InChI=1S/C7H11NO/c1-7-2-5(3-7)8-6(9)4-7/h5H,2-4H2,1H3,(H,8,9)	InChI=1S/C7H11NO/c1-7-2-5(3-7)8-6(9)4-7/h5H,2-4H2,1H3,(H,8,9)/t5-,7+
