18
gdb 36606	5.27749	0.82912	0.81556	4.6389	77.81	-0.2759	0.0118	0.2877	1424.3876	0.147853	-401.899189	-401.891049	-401.890104	-401.933124	30.288	
N	 0.0433950115	-1.1022730987	-0.0056950263	-0.292769
C	 0.0386309348	 0.0520539041	 0.0017179067	 0.263272
C	-0.0122984788	 1.5163306649	 0.0112703547	-0.222412
O	 1.3042153941	 2.0228972443	 0.0001046273	-0.290155
C	 1.3639818779	 3.408364169	 0.0074346889	 0.456484
C	 0.8534716557	 4.3983715797	 1.1038640433	-0.28475
C	 1.5671905608	 5.252028884	 0.0157729914	-0.051063
C	 2.6983606004	 4.1797578687	-0.0034241989	-0.273944
C	 0.8285612123	 4.4109294171	-1.0654589862	-0.284759
H	-0.581727936	 1.8540486186	-0.8676663544	 0.147353
H	-0.5625169003	 1.8431214282	 0.9064301621	 0.147333
H	-0.2272796758	 4.5355988246	 1.1956130521	 0.093135
H	 1.3416183774	 4.3384026724	 2.079508265	 0.102055
H	 1.6914558818	 6.331298306	 0.0205850382	 0.091397
H	 3.3143833115	 4.0984425825	 0.8949995699	 0.101815
H	 3.2935954431	 4.1089150052	-0.9166277389	 0.101812
H	 1.294175465	 4.3623442323	-2.0526832507	 0.102056
H	-0.2539928353	 4.549072167	-1.1307707142	 0.093141
40.2783	78.0267	115.5316	229.2314	363.5827	390.6715	392.073	495.2685	552.4431	556.6976	708.3726	773.6029	798.8123	891.9012	943.1288	944.0848	959.7682	963.6685	981.7255	990.4585	1033.9592	1083.6696	1092.5615	1100.881	1135.5104	1140.53	1164.9589	1185.3728	1226.5645	1232.8103	1238.4783	1252.1113	1291.1947	1409.8871	1494.8639	1494.9137	1498.2902	1556.8559	2374.8912	2991.6369	3021.734	3051.8746	3056.0407	3065.0797	3121.0995	3125.2327	3132.3975	3157.3695
N#CCOC12CC(C1)C2	N#CCO[C@@]12C[C@@H](C1)C2	
InChI=1S/C7H9NO/c8-1-2-9-7-3-6(4-7)5-7/h6H,2-5H2	InChI=1S/C7H9NO/c8-1-2-9-7-3-6(4-7)5-7/h6H,2-5H2/t6-,7-
