22
gdb 57902	2.80938	1.0609	0.97364	3.287	85.83	-0.2324	0.0283	0.2607	1378.8015	0.192871	-404.370595	-404.360013	-404.359068	-404.407005	37.605	
C	-0.3277675339	 1.242363687	 0.3105801789	-0.4169
C	 0.2063029602	-0.1446245961	 0.0297005634	 0.011842
C	 1.547725934	-0.351991897	-0.6000925285	-0.287923
C	 1.3523373652	-0.7562594823	 0.8452100104	-0.157383
C	 2.0451942389	 0.0727105996	 1.8873848484	 0.433046
O	 2.5762457102	 1.1398120037	 1.6015530358	-0.399848
N	 2.0601280005	-0.4133466004	 3.1732123875	-0.097012
C	 2.8307675045	 0.2932576563	 4.182807194	-0.343237
C	 1.3538101884	-1.5942259715	 3.6323567247	-0.33588
H	 0.473464801	 1.9125272014	 0.6281402876	 0.155434
H	-0.7901312843	 1.6600379302	-0.5905779349	 0.113615
H	-1.0914518086	 1.2227954971	 1.0963623024	 0.107949
H	-0.5569666596	-0.8699134285	-0.2425102595	 0.084207
H	 1.6749278702	-1.1443811027	-1.3291852697	 0.105517
H	 2.1678279656	 0.5253417525	-0.7448177947	 0.141808
H	 1.2738772336	-1.8184826475	 1.0381259109	 0.086965
H	 2.1767883633	 0.6802658872	 4.9749377614	 0.118295
H	 3.5654308436	-0.3782981596	 4.6452385574	 0.117047
H	 3.3436500646	 1.1243854346	 3.7026814704	 0.169823
H	 0.5294190076	-1.8458836143	 2.9667417451	 0.143461
H	 2.0152956485	-2.467788252	 3.7240775391	 0.122016
H	 0.9273933765	-1.3959283477	 4.62237444	 0.12716
38.6837	73.5629	90.166	139.0956	188.2866	197.4536	219.1393	244.9507	337.3337	376.8798	399.0828	426.0115	471.1889	606.6778	725.4046	769.6501	795.1539	852.0456	891.4691	949.9888	967.3642	1032.7253	1076.2173	1081.6156	1099.6456	1113.2238	1131.3139	1142.4318	1152.2711	1176.0605	1209.1803	1236.846	1287.2098	1366.2298	1393.4773	1423.3449	1426.36	1442.9018	1473.4157	1477.943	1493.0273	1498.9862	1501.2713	1506.2312	1506.5658	1539.5901	1726.6688	2999.1912	3011.7266	3030.9277	3055.2222	3062.1287	3086.2838	3122.9147	3137.4798	3140.3748	3148.5735	3172.9915	3185.1837	3233.029
CC1CC1C(=O)N(C)C	C[C@H]1C[C@H]1C(=O)N(C)C	
InChI=1S/C7H13NO/c1-5-4-6(5)7(9)8(2)3/h5-6H,4H2,1-3H3	InChI=1S/C7H13NO/c1-5-4-6(5)7(9)8(2)3/h5-6H,4H2,1-3H3/t5-,6+/m0/s1
