21
gdb 116339	2.94184	1.23222	0.96025	0.7878	77.84	-0.2586	0.0765	0.3351	1262.6938	0.1841	-424.222105	-424.213515	-424.212571	-424.255404	33.051	
O	-0.0414704157	 1.4258124344	 0.0526994327	-0.425584
C	 0.0225609364	 0.0067727943	 0.0260429686	-0.095732
C	-1.4066928899	-0.5323467186	-0.0361521064	 0.00563
C	-2.1497042146	-0.0721423955	-1.3021766509	-0.202091
C	-3.5318938774	-0.7261879296	-1.3978284169	-0.216088
C	-3.4401654313	-2.2558577943	-1.5350155978	-0.221995
C	-2.3857669224	-2.8721856789	-0.6316914402	 0.041294
O	-1.0252488768	-2.7769959587	-1.0824060193	-0.261796
C	-1.4040876322	-2.0427299161	 0.0882251994	 0.040878
H	 0.8549622456	 1.7685708436	-0.001555171	 0.287379
H	 0.5841178301	-0.3553582961	-0.8487450149	 0.101627
H	 0.5256611531	-0.3825465683	 0.9265445809	 0.080512
H	-1.9386251063	-0.1382340409	 0.8429026656	 0.08145
H	-2.2332934403	 1.0170046705	-1.2854720435	 0.111967
H	-1.5518709469	-0.3371305682	-2.1828369386	 0.103667
H	-4.1048311283	-0.477579527	-0.4944089431	 0.095071
H	-4.0935438854	-0.3135298329	-2.2425793494	 0.09382
H	-4.4112320339	-2.7131596292	-1.3147950841	 0.096733
H	-3.1941234915	-2.5310152352	-2.5680680144	 0.114733
H	-2.627173415	-3.8496423889	-0.2124446467	 0.087498
H	-0.9755968074	-2.4365365144	 1.0126949902	 0.081026
81.5919	123.1952	172.152	241.0933	266.7734	284.7012	354.5467	399.6746	431.4313	481.7112	611.9451	657.4387	774.0032	785.7749	851.2965	874.1528	894.8238	942.4633	956.3783	997.3493	1054.7044	1058.346	1075.5008	1079.473	1094.1183	1143.9513	1175.0709	1189.3126	1221.1593	1244.191	1266.5061	1290.0936	1294.4697	1328.1866	1344.4744	1370.5524	1377.0771	1385.6967	1403.8236	1456.3987	1464.6503	1480.4634	1491.772	1499.477	1522.3102	2962.6179	2993.0185	3011.0055	3017.1949	3029.6593	3040.689	3064.7476	3075.3166	3079.4499	3102.2513	3104.9335	3835.3775
OCC1CCCC2OC12	OC[C@H]1CCC[C@H]2O[C@@H]12	
InChI=1S/C7H12O2/c8-4-5-2-1-3-6-7(5)9-6/h5-8H,1-4H2	InChI=1S/C7H12O2/c8-4-5-2-1-3-6-7(5)9-6/h5-8H,1-4H2/t5-,6-,7+/m1/s1
