19
gdb 119182	3.44158	0.91269	0.79236	2.3886	71.15	-0.2571	0.0749	0.3321	1447.7014	0.157092	-460.103891	-460.094368	-460.093424	-460.139322	33.944	
O	 0.2705384519	 1.4327520606	 0.5755063255	-0.422256
C	 0.1915319085	 0.094307266	 0.1062876068	-0.091259
C	-1.2414470515	-0.3711678771	 0.338745275	-0.25671
C	-1.5050310455	-1.8382273253	 0.0502298098	 0.356113
C	-0.7807726995	-2.6116127645	-0.9681708969	-0.227311
O	-0.470306258	-2.7610894208	 0.4241024763	-0.276712
C	-2.8891677274	-2.2822335319	 0.4387891194	 0.014335
C	-4.0041596716	-2.260430131	-0.5180820902	-0.174823
O	-3.3848867881	-3.4883618309	-0.130676526	-0.226756
H	 1.1826320129	 1.7250028537	 0.4913426922	 0.28722
H	 0.443258381	 0.0403172003	-0.9643856168	 0.084865
H	 0.8802485772	-0.5695693216	 0.6456142573	 0.113543
H	-1.4866107375	-0.1701149546	 1.3897365679	 0.118784
H	-1.9263576938	 0.2423084345	-0.2588187628	 0.114736
H	-1.2746175531	-3.4678998456	-1.420465801	 0.134138
H	-0.0087856432	-2.1348669299	-1.5685936029	 0.110519
H	-3.1194875005	-2.1609924633	 1.4987129027	 0.104664
H	-5.0221089946	-2.1148375107	-0.161121879	 0.121602
H	-3.8192927773	-1.9512974581	-1.5459360274	 0.115309
46.8573	69.1816	107.3971	147.9368	225.0027	257.284	266.1348	342.4655	357.7604	380.2799	502.8876	604.1816	715.2355	790.6828	842.3615	872.4791	888.6403	935.5055	975.9891	1021.9874	1038.7506	1075.5186	1099.2785	1118.4562	1139.8898	1155.6011	1168.0311	1178.8192	1193.9139	1233.5593	1259.5362	1287.3045	1316.4825	1363.059	1410.95	1432.4962	1466.5911	1486.7271	1518.4656	1528.3051	1538.2636	2977.5823	3028.9538	3030.8942	3070.7575	3086.3706	3098.7516	3100.1548	3175.6486	3192.9398	3833.0542
OCCC1(CO1)C1CO1	OCC[C@]1(CO1)[C@H]1CO1	
InChI=1S/C6H10O3/c7-2-1-6(4-9-6)5-3-8-5/h5,7H,1-4H2	InChI=1S/C6H10O3/c7-2-1-6(4-9-6)5-3-8-5/h5,7H,1-4H2/t5-,6+/m1/s1
