20
gdb 96875	3.20388	1.16401	0.88215	3.2228	88.3	-0.2331	-0.0305	0.2026	1358.0793	0.170623	-403.171321	-403.162162	-403.161217	-403.205496	33.911	
C	-0.2732151097	 1.3901773639	 0.0204741133	-0.324947
N	-0.0355760894	-0.0296440285	-0.0571063877	-0.269047
C	 0.6943400035	-0.5574859421	-0.9505883682	 0.368327
O	 0.7379456094	-1.9256859991	-0.931913488	-0.262583
C	 1.8678956737	-2.5747594996	-1.5318166305	 0.133813
C	 1.6206261287	-4.0688856042	-1.4049777535	-0.401523
C	 2.0647838248	-2.1005924069	-2.9716273099	-0.267792
C	 2.0377703011	-0.6008779625	-3.0076300839	-0.085128
C	 1.4334368062	 0.0990761671	-2.0426744856	-0.146932
H	 0.2433308184	 2.0187960186	-0.7182887234	 0.099515
H	-1.3496101719	 1.5790597382	-0.0772451796	 0.128655
H	 0.0116855343	 1.7435844122	 1.0189191412	 0.128008
H	 2.7652541228	-2.299522168	-0.9567255351	 0.081811
H	 0.7202452591	-4.3552339596	-1.9570099515	 0.126867
H	 2.4699960891	-4.6312048665	-1.8047112904	 0.114616
H	 1.4814115676	-4.343263508	-0.3564786878	 0.133192
H	 3.0171355372	-2.4817283151	-3.3584993865	 0.112112
H	 1.2781335987	-2.5139890653	-3.6196183942	 0.122132
H	 2.5234258545	-0.08983157	-3.8345522835	 0.103648
H	 1.4364872918	 1.1808529355	-2.0644304951	 0.105255
71.9706	81.9236	141.4589	223.6426	227.8895	257.5769	322.2541	337.5328	428.407	465.9261	500.1269	559.9456	634.2622	696.9788	808.6572	847.9197	873.5341	928.9301	945.9831	994.1132	1001.9102	1077.9582	1109.8051	1128.1797	1131.7552	1137.033	1163.9193	1201.5579	1231.3509	1284.5452	1326.1851	1385.4264	1396.6679	1407.4451	1413.1124	1453.0216	1463.5131	1482.4332	1483.7916	1499.048	1503.4618	1685.2795	1740.8343	2985.1417	2994.3595	3009.2126	3043.7486	3054.2351	3060.3016	3063.9562	3116.6943	3127.5668	3163.4351	3218.9867
CN=C1OC(C)CC=C1	CN=C1O[C@@H](C)CC=C1	
InChI=1S/C7H11NO/c1-6-4-3-5-7(8-2)9-6/h3,5-6H,4H2,1-2H3	InChI=1S/C7H11NO/c1-6-4-3-5-7(8-2)9-6/h3,5-6H,4H2,1-2H3/t6-/m0/s1
