16
gdb 108899	3.19517	1.07886	0.87212	2.9379	72.12	-0.2663	0.0082	0.2744	1301.2433	0.123197	-437.858058	-437.849116	-437.848172	-437.892893	31.588	
O	 0.1767351422	 1.3517402651	 0.2387824035	-0.42001
C	 0.0826316695	-0.015946752	-0.0534674968	-0.125348
C	-1.3407648178	-0.485735585	-0.0504465724	 0.39571
N	-2.326764817	 0.2723427016	 0.2081183781	-0.332014
C	-3.5418174505	-0.5682806077	 0.1140472417	-0.171516
C	-2.9838140889	-1.9866939928	-0.2453651099	-0.12596
O	-1.5554475254	-1.7877341638	-0.3383858416	-0.248677
C	-4.324537357	-0.5543414553	 1.3454592966	 0.338603
C	-4.9771601422	-0.5752894544	 2.3536692542	-0.457357
H	-0.7236076164	 1.6513661133	 0.4301108448	 0.299988
H	 0.5191872127	-0.2358695064	-1.039502228	 0.124616
H	 0.6429085204	-0.6214295285	 0.6766042235	 0.123664
H	-4.1657379216	-0.1818423438	-0.7008754173	 0.124394
H	-3.1832808156	-2.7267890973	 0.5316239052	 0.138272
H	-3.3438510788	-2.3552181871	-1.2082283112	 0.130211
H	-5.5517879337	-0.5792568057	 3.2469505096	 0.205425
38.323	74.9668	131.5514	174.0585	219.9477	254.1522	289.9366	447.8316	483.4278	516.6079	595.7087	630.9147	659.8509	710.3428	753.1972	847.1614	964.9794	999.3547	1008.9633	1039.6944	1050.768	1083.4217	1117.2834	1217.5517	1237.9099	1243.9575	1284.1849	1329.8608	1354.7662	1379.653	1479.5601	1503.8784	1517.7793	1732.638	2242.5919	2987.5717	3008.9143	3028.9814	3073.3442	3130.0044	3502.1563	3729.6408
OCC1=NC(CO1)C#C	OCC1=N[C@@H](CO1)C#C	
InChI=1S/C6H7NO2/c1-2-5-4-9-6(3-8)7-5/h1,5,8H,3-4H2	InChI=1S/C6H7NO2/c1-2-5-4-9-6(3-8)7-5/h1,5,8H,3-4H2/t5-/m1/s1
