18
gdb 70713	2.27796	1.93748	1.25583	2.7702	73.38	-0.2397	0.0108	0.2505	1020.3541	0.149047	-439.087847	-439.079993	-439.079049	-439.12006	31.052	
O	-0.0634497458	 1.3903447643	 0.0180052837	-0.475636
C	-0.0261821769	 0.0020691569	 0.0043299283	 0.375839
C	-0.4270656833	-0.7140378886	-1.2759457401	-0.333446
C	-1.332826678	-0.7465539528	-0.0667841442	-0.108119
C	-1.4579897929	-2.0525492847	 0.7147507409	-0.238276
C	-0.3573547049	-2.1733241961	 1.7623759546	-0.089431
O	 0.9490748383	-1.8622541085	 1.2301636356	-0.251865
C	 1.0980148542	-0.5842400273	 0.7863618106	 0.331506
N	 2.1496743823	 0.1008285479	 0.9594764701	-0.553159
H	 0.8539965027	 1.6616494792	 0.1751330202	 0.295313
H	-0.6963126061	-0.0587103633	-2.0957852139	 0.126512
H	 0.0885256539	-1.6286612444	-1.5515708621	 0.11943
H	-2.2112939378	-0.1122068939	-0.1130328978	 0.10772
H	-2.424736385	-2.1031666032	 1.2265444286	 0.113359
H	-1.4154674845	-2.9071256663	 0.0302250926	 0.114719
H	-0.5532647591	-1.5006538875	 2.6071711183	 0.116929
H	-0.2702152339	-3.1912864808	 2.1478413717	 0.121451
H	 2.8378004767	-0.4108881308	 1.511942483	 0.227154
79.8021	180.0143	224.3974	310.804	326.1253	390.6404	421.8315	456.236	492.6701	516.2428	615.683	686.5225	731.5137	805.0389	864.6902	881.9534	908.5907	923.5493	959.9116	963.1302	1002.633	1044.7828	1079.0529	1100.1546	1125.7676	1135.305	1209.0942	1242.7361	1260.4457	1282.5732	1335.1815	1370.2368	1400.669	1424.7463	1447.5447	1479.6257	1495.1858	1509.6343	1742.4627	3025.8673	3039.3513	3082.5595	3112.2167	3129.3614	3171.337	3230.0441	3491.3785	3714.619
OC12CC1CCOC2=N	O[C@]12C[C@H]1CCO[C]2[NH]	
InChI=1S/C6H9NO2/c7-5-6(8)3-4(6)1-2-9-5/h4,7-8H,1-3H2	InChI=1S/C6H9NO2/c7-5-6(8)3-4(6)1-2-9-5/h4,7-8H,1-3H2/t4-,6-/m1/s1
