14
gdb 20654	3.38181	2.29815	1.3798	3.1437	68.93	-0.2381	-0.0698	0.1683	846.4592	0.107634	-378.713559	-378.706634	-378.70569	-378.744686	25.823	
C	 0.0158244339	 1.5027654461	-0.0960828572	-0.474308
C	-0.0189593536	 0.0117295957	 0.0031508935	 0.247096
C	-1.1367374639	-0.7209737798	 0.1758243064	-0.211551
C	-1.0357437191	-2.1536159221	 0.2558986982	 0.033546
N	 0.0577472327	-2.8269974	 0.1757917036	-0.069009
O	 1.2233781914	-2.086345156	-0.0026710444	-0.285212
C	 1.254820518	-0.7024230017	-0.0946976267	 0.359542
N	 2.3619554851	-0.1006356093	-0.2578697368	-0.522717
H	 0.659363109	 1.9195631064	 0.6850839898	 0.158044
H	 0.4625396561	 1.8088190491	-1.0473484013	 0.158009
H	-0.9863338187	 1.928490728	-0.0095295485	 0.11993
H	-2.1125072614	-0.2543445373	 0.2559427327	 0.11816
H	-1.9194215995	-2.7693521338	 0.3946661726	 0.138798
H	 3.1337313199	-0.7680089853	-0.3021592721	 0.229673
109.0169	164.5079	221.66	301.6055	379.0716	457.2008	524.7804	563.5404	573.7919	728.3747	746.4504	860.4779	879.3804	884.6106	939.1271	953.2269	1001.0987	1030.6244	1067.8272	1088.2879	1199.0717	1285.4091	1352.9319	1399.6809	1417.8134	1463.2814	1477.5532	1627.0495	1686.6729	1723.6959	3044.9811	3104.0359	3133.0912	3180.2288	3195.4407	3480.4006
CC1=CC=NOC1=N	CC1=C(ON=C[CH]1)[NH]	
InChI=1S/C5H6N2O/c1-4-2-3-7-8-5(4)6/h2-3,6H,1H3	InChI=1S/C5H6N2O/c1-4-2-3-7-8-5(4)6/h2-3,6H,1H3
