20
gdb 99880	1.94355	1.51336	1.19527	2.9896	79.73	-0.2464	0.0252	0.2716	1167.9389	0.170331	-399.304899	-399.295046	-399.294101	-399.339248	36.528	
C	-0.0126690513	 1.6096667083	 0.1560333801	-0.407868
C	-0.066091954	 0.0791455538	 0.0288808699	 0.095245
C	 0.6913134456	-0.6301991203	 1.2017717864	-0.157409
N	 2.1048560164	-0.321790629	 1.3129519322	-0.507984
C	-1.4800547133	-0.3583931515	 0.0756187967	 0.261218
N	-2.574575758	-0.7330259859	 0.0905617578	-0.354006
N	 0.6105851794	-0.3045451766	-1.2177340892	-0.088096
C	 0.2430721262	-1.5404213306	-1.9053820507	-0.236235
C	-0.0935478249	-0.2126993414	-2.4922261103	-0.235206
H	 1.0291733452	 1.9352914907	 0.1219288383	 0.125203
H	-0.5485796238	 2.0858535905	-0.6684731115	 0.135976
H	-0.4647959661	 1.9375110856	 1.0959643243	 0.132084
H	 0.1906550423	-0.3803121131	 2.1423853835	 0.11963
H	 0.5767496551	-1.7102752037	 1.0565689362	 0.121824
H	 2.5406642659	-0.4084276646	 0.3992938725	 0.240565
H	 2.245686674	 0.6354402322	 1.618122924	 0.23029
H	 1.076041924	-2.1212055765	-2.2895987638	 0.123303
H	-0.5871499383	-2.1232886208	-1.5133612367	 0.14156
H	-1.1444944381	 0.068914519	-2.4806412656	 0.136451
H	 0.4848656535	 0.1949536638	-3.3159095341	 0.123456
92.2056	124.0548	142.3861	156.2106	215.3793	230.087	274.5079	304.7408	339.8859	363.5401	441.8237	498.9744	571.2113	600.7736	639.0717	792.7094	826.5205	868.0662	894.8818	907.8514	927.4606	990.9879	1037.5843	1076.3824	1116.7153	1124.608	1131.9149	1158.852	1165.0093	1190.2141	1202.6346	1242.5803	1314.778	1376.5063	1397.4396	1408.0686	1477.877	1486.8456	1489.7899	1498.1933	1516.9181	1668.5352	2334.1796	3042.7512	3053.7164	3091.8687	3105.3198	3110.9739	3129.8679	3138.0813	3189.8525	3204.0042	3499.6704	3581.786
CC(CN)(C#N)N1CC1	C[C@@](CN)(C#N)N1CC1	
InChI=1S/C6H11N3/c1-6(4-7,5-8)9-2-3-9/h2-4,7H2,1H3	InChI=1S/C6H11N3/c1-6(4-7,5-8)9-2-3-9/h2-4,7H2,1H3/t6-/m1/s1
