21
gdb 119377	3.185	0.99884	0.88489	1.7042	79.28	-0.2478	0.0821	0.3298	1414.8109	0.181445	-424.169261	-424.160196	-424.159252	-424.203501	34.594	
C	-0.1675984116	 1.5039023193	-0.0988522613	-0.382835
C	-0.0461174905	-0.0212568796	-0.0609370675	-0.164781
C	 0.8390577381	-0.5725374354	-1.1869720249	-0.33352
C	 0.9245165333	-2.0677349104	-1.2135087278	 0.376647
C	 1.3850684849	-3.0898775009	-0.1465592824	-0.268257
C	 0.7153695059	-3.8698844948	-1.2911693398	-0.007631
O	-0.3629249266	-2.8447689089	-1.3336650383	-0.378143
C	 1.4947793997	-3.0112310108	-2.3235284868	 0.147902
O	 0.9787710889	-2.8859994391	-3.6048545445	-0.447411
H	 0.8122973525	 1.9841271744	 0.0019556145	 0.113106
H	-0.6047289024	 1.8425667514	-1.0447048027	 0.116696
H	-0.8035540971	 1.8715875361	 0.712198797	 0.113477
H	 0.3629941975	-0.3352406786	 0.9074063242	 0.097831
H	-1.0379563323	-0.4802426983	-0.1369942256	 0.11989
H	 0.4612191148	-0.2378142537	-2.1621939378	 0.110578
H	 1.8594181884	-0.1755577166	-1.0990010937	 0.105843
H	 2.459687837	-3.2183325782	 0.0096759999	 0.097511
H	 0.8166860229	-3.0735355052	 0.7829176581	 0.114978
H	 0.4052203592	-4.9137717889	-1.3361389588	 0.096247
H	 2.5785924964	-3.1333975343	-2.3861842604	 0.086307
H	 0.0220414608	-2.7992006778	-3.4755950315	 0.285569
68.8032	81.502	117.7368	236.0163	249.6818	289.8225	314.1463	346.5697	467.8207	515.1274	592.7743	657.8113	711.5619	732.8323	763.2629	787.5529	850.2238	890.5266	905.6092	906.5913	953.1342	972.8748	1024.1101	1046.4486	1085.3546	1133.2608	1138.4703	1147.204	1160.1492	1200.8028	1214.7065	1236.4836	1263.6004	1292.9408	1312.5332	1329.0644	1350.8337	1401.4703	1413.6007	1446.3608	1469.9333	1493.0746	1497.8529	1499.6358	1509.861	3015.83	3029.0018	3032.3997	3049.8766	3063.7718	3073.0452	3096.4329	3099.33	3103.9394	3123.8568	3154.15	3723.7287
CCCC12CC(O1)C2O	CCC[C@@]12C[C@@H](O1)[C@H]2O	
InChI=1S/C7H12O2/c1-2-3-7-4-5(9-7)6(7)8/h5-6,8H,2-4H2,1H3	InChI=1S/C7H12O2/c1-2-3-7-4-5(9-7)6(7)8/h5-6,8H,2-4H2,1H3/t5-,6-,7+/m1/s1
