17
gdb 112111	2.99633	1.37139	0.97731	4.7791	70.74	-0.2582	-0.0074	0.2508	1166.7627	0.136713	-458.999184	-458.991003	-458.990059	-459.033112	30.155	
O	-0.2401912725	 1.5292638289	-0.4390419308	-0.42421
C	-0.01405031	 0.1688515131	-0.1856030798	-0.053529
C	-1.3223694475	-0.6145920266	 0.1037181003	-0.238635
C	-1.1254498978	-2.1011678629	 0.0613321493	-0.055153
C	-1.684565194	-2.9126687639	 0.9485888911	-0.105976
C	-2.547873295	-2.4041564753	 2.0542703454	-0.11112
O	-2.4905665643	-0.9866437642	 2.2687676684	-0.228695
C	-1.9280166311	-0.1182055192	 1.4117794215	 0.43626
O	-1.9143049377	 1.0518912475	 1.7182241844	-0.344879
H	-0.7505757795	 1.8524340708	 0.3190360415	 0.29861
H	 0.4465511021	-0.2562515764	-1.0845917297	 0.104528
H	 0.6881025821	 0.0086707968	 0.6495099144	 0.094459
H	-2.0250450359	-0.3105556115	-0.6876511304	 0.134378
H	-0.507023926	-2.4935215302	-0.7416741156	 0.107729
H	-1.55523173	-3.9897601128	 0.9030815548	 0.11171
H	-3.6014234721	-2.6652131451	 1.8812863752	 0.136038
H	-2.2640537207	-2.856715449	 3.0116315399	 0.138486
27.0938	115.2055	158.1261	228.5608	278.8651	372.1135	436.7295	473.6249	528.3473	564.3333	601.2443	675.0877	700.735	785.8088	875.2954	931.4339	984.9487	1004.4458	1022.7953	1034.4293	1084.6582	1104.2086	1132.8488	1175.7761	1210.6227	1241.7441	1258.2642	1261.8015	1340.8991	1385.7679	1412.3857	1432.6081	1468.9776	1503.8718	1509.7879	1747.6595	1796.5766	2965.9707	2996.6726	3011.5248	3054.8178	3060.7358	3159.0578	3184.8961	3708.7433
OCC1C=CCOC1=O	OC[C@H]1C=CCOC1=O	
InChI=1S/C6H8O3/c7-4-5-2-1-3-9-6(5)8/h1-2,5,7H,3-4H2	InChI=1S/C6H8O3/c7-4-5-2-1-3-9-6(5)8/h1-2,5,7H,3-4H2/t5-/m1/s1
