19
gdb 10175	3.31751	1.06855	0.85207	3.0028	72.08	-0.2743	0.0325	0.3068	1355.7251	0.164052	-365.081449	-365.071638	-365.070693	-365.116574	33.897	
C	-0.0736238167	 1.5433817114	 0.079206689	-0.399544
C	 0.0144877381	 0.0187179058	-0.0032798261	-0.179929
C	 0.7203677145	-0.5008594797	-1.2778973603	-0.140531
C	 0.8803381153	-2.0350419461	-1.2625393678	-0.180556
C	 1.6545290924	-2.5880449412	-2.4535302226	-0.090275
O	 1.7835502127	-3.986254836	-2.2551079644	-0.419485
C	 0.001613211	-0.0614340852	-2.4808962187	 0.288534
N	-0.5750412609	 0.2792274303	-3.4235333916	-0.34176
H	 0.9221903757	 1.9999854839	 0.0683350533	 0.118075
H	-0.6405444299	 1.9551633101	-0.7611176363	 0.144958
H	-0.5708875258	 1.8513393918	 1.0033626068	 0.121981
H	 0.5707303647	-0.372649341	 0.8559967331	 0.107814
H	-0.9882978309	-0.4208165301	 0.0452103713	 0.118273
H	 1.7195715818	-0.0452677013	-1.325092521	 0.122549
H	 1.4060499209	-2.3149173469	-0.3433732134	 0.115785
H	-0.1057327119	-2.510285343	-1.2267133651	 0.124
H	 1.1185429217	-2.3604173439	-3.3866236341	 0.113945
H	 2.6418586531	-2.0995687401	-2.5142776633	 0.086007
H	 2.1832350043	-4.3667314087	-3.0424520389	 0.29016
75.9766	86.5042	103.5339	138.4383	164.3305	226.5866	254.6109	272.5275	315.3845	352.762	444.8581	557.6503	617.3115	755.3107	793.6176	857.5889	927.1405	1001.5714	1022.885	1047.0181	1073.4084	1107.0611	1134.1592	1141.1738	1222.6193	1244.5161	1279.483	1300.591	1314.0727	1351.1376	1367.4324	1373.0499	1417.0715	1468.5837	1483.4826	1493.8387	1498.572	1507.4343	1529.3286	2350.3491	2959.6471	3011.272	3014.2124	3036.0164	3038.1812	3048.8492	3074.478	3096.2407	3107.2184	3117.2649	3834.014
CCC(CCO)C#N	CC[C@@H](CCO)C#N	
InChI=1S/C6H11NO/c1-2-6(5-7)3-4-8/h6,8H,2-4H2,1H3	InChI=1S/C6H11NO/c1-2-6(5-7)3-4-8/h6,8H,2-4H2,1H3/t6-/m0/s1
