18
gdb 121573	3.01993	0.69319	0.58151	3.9314	81.65	-0.2453	-0.0106	0.2347	1900.4906	0.145297	-439.087	-439.076098	-439.075154	-439.126623	36.193	
C	 0.052178532	 1.4180541473	 0.0736525007	-0.504686
C	 0.0432720271	-0.0340130805	 0.0071735313	 0.142415
C	 0.0283346625	-1.237701069	-0.0522323187	-0.04624
C	-0.0455925389	-2.6874842109	-0.1545634285	 0.264043
O	-0.9505575112	-3.2618378124	-0.7377577814	-0.369454
N	 0.9874797382	-3.3290500124	 0.4642623928	-0.3141
C	 1.1438965016	-4.7690522311	 0.4478398095	-0.153549
C	 2.5309107925	-5.159675985	-0.0411577211	-0.078927
O	 3.4688557879	-4.5551111406	 0.8426614742	-0.424388
H	 0.9474568504	 1.8282077845	-0.4062198037	 0.155681
H	-0.8234045387	 1.8420741392	-0.4289283619	 0.160375
H	 0.0445638289	 1.7639638719	 1.1130031268	 0.156613
H	 1.7214763725	-2.7861378668	 0.8904051587	 0.259333
H	 0.9917117655	-5.1812289952	 1.4542056593	 0.116108
H	 0.3710972943	-5.173845749	-0.2084963769	 0.148028
H	 2.6241406882	-6.2563186903	-0.0376855549	 0.094663
H	 2.6713275869	-4.8055394131	-1.0728585428	 0.10105
H	 4.3517797601	-4.6771083566	 0.4828622868	 0.293037
9.3888	37.9329	56.1339	83.0234	130.9676	174.0353	254.7524	271.3109	302.1947	347.1802	385.4503	451.8694	511.7464	537.1521	589.1494	763.9236	804.9061	891.2081	925.0983	1049.6933	1052.5947	1056.2965	1092.8898	1105.4714	1151.9819	1213.3185	1252.372	1265.395	1311.4023	1392.9971	1411.6287	1453.3763	1472.6849	1475.4586	1485.3078	1514.4951	1529.95	1748.3137	2355.8745	2983.2236	3012.0841	3030.5943	3032.3739	3092.7868	3096.9536	3126.7151	3645.9384	3838.2178
CC#CC(=O)NCCO	CC#CC(=O)NCCO	
InChI=1S/C6H9NO2/c1-2-3-6(9)7-4-5-8/h8H,4-5H2,1H3,(H,7,9)	InChI=1S/C6H9NO2/c1-2-3-6(9)7-4-5-8/h8H,4-5H2,1H3,(H,7,9)
