17
gdb 125529	5.03141	1.2717	1.02803	2.2926	83.6	-0.2094	-0.0105	0.1989	1146.1205	0.138289	-380.909256	-380.901864	-380.90092	-380.941204	28.498	
C	-0.0204459085	 1.4466279008	-0.0705696817	-0.488648
C	 0.0038544647	-0.0451588755	 0.0419101617	 0.369826
N	-0.0337673425	-0.804936975	-1.0600848578	-0.357642
N	 0.0033795861	-2.0580666951	-0.5761691346	 0.047084
C	-0.0063253492	-3.3256770486	-1.1745836314	-0.010903
C	 0.0471775485	-4.2587979072	-0.2153474733	-0.129443
C	 0.0979239513	-3.5898425875	 1.1541927252	-0.418125
C	 0.0631697828	-2.1334567734	 0.7831348712	 0.438384
C	 0.0656255975	-0.8312919247	 1.2298529503	-0.481529
H	 0.8763719584	 1.8972716452	 0.3691936763	 0.126491
H	-0.0716646236	 1.7383346852	-1.121628792	 0.139176
H	-0.8852000883	 1.8745634118	 0.4488461666	 0.126454
H	-0.0517597346	-3.4099105529	-2.2492661701	 0.14262
H	 0.0542778367	-5.3269039442	-0.3689412676	 0.114069
H	-0.7507431026	-3.8843824823	 1.7841240414	 0.140977
H	 1.00514121	-3.8618844597	 1.7080487008	 0.140974
H	 0.1050161835	-0.4750405468	 2.2466413548	 0.100235
86.9776	130.0901	239.1371	275.005	314.6406	440.1657	497.6339	562.1977	663.9124	678.1461	715.337	736.7377	789.6968	792.9849	897.4246	912.4097	936.4383	944.803	982.4787	1025.0654	1062.565	1084.0116	1143.4332	1146.8633	1185.8831	1254.1085	1301.0205	1366.8199	1401.9262	1417.0385	1434.4507	1454.6584	1481.2588	1483.213	1497.4368	1593.2505	1648.9713	3031.6219	3032.6614	3057.1784	3082.2371	3131.7741	3250.7086	3262.0482	3275.3538
CC1=NN2C=CCC2=C1	Cc1nn2C=CCc2c1	
InChI=1S/C7H8N2/c1-6-5-7-3-2-4-9(7)8-6/h2,4-5H,3H2,1H3	InChI=1S/C7H8N2/c1-6-5-7-3-2-4-9(7)8-6/h2,4-5H,3H2,1H3
