18
gdb 128817	3.36338	1.10999	0.86768	1.3867	76.08	-0.1902	0.0299	0.2201	1327.1415	0.149068	-435.267789	-435.258745	-435.257801	-435.30179	33.035	
C	-0.2362771037	 1.348433969	-0.2675091692	-0.22327
O	-0.2941387207	-0.058527789	-0.3130777458	-0.240633
C	 0.8685073831	-0.6325048147	-0.9033870225	-0.190285
C	 0.697811461	-2.1128245742	-0.9649852466	 0.307733
N	 1.6656522715	-2.9414208813	-0.5723024578	-0.296836
N	 1.1780064788	-4.1643994041	-0.8079733338	-0.191444
C	-0.0855870063	-4.1513185027	-1.3263473558	-0.113183
C	-0.4349951779	-2.8206343167	-1.446405697	 0.139299
N	-1.5947553056	-2.2390116196	-1.9779725919	-0.622649
H	 0.6132716505	 1.6987289013	 0.338818769	 0.109417
H	-0.1429336717	 1.7874930367	-1.273509384	 0.106246
H	-1.1645403688	 1.7005921218	 0.1889124452	 0.125721
H	 1.0043889574	-0.2077782009	-1.9135505101	 0.098337
H	 1.7675636899	-0.3903126059	-0.3184343226	 0.112294
H	 1.7382330908	-4.9666549911	-0.5800744968	 0.270902
H	-0.617196149	-5.0599298823	-1.5593361874	 0.11888
H	-2.4059728138	-2.8395655384	-1.9119768378	 0.236306
H	-1.7831368757	-1.3542273779	-1.5209123151	 0.253164
74.7381	98.7958	134.283	233.152	251.6605	286.0036	307.584	341.2907	386.1472	436.712	452.1747	650.6775	676.1078	711.3838	737.8557	785.5679	820.3373	948.0811	975.3335	1021.1635	1070.9828	1115.5721	1141.1707	1183.6818	1205.9238	1226.6312	1252.5837	1262.7671	1343.4798	1401.8065	1432.3258	1475.5637	1482.9216	1485.8157	1499.5803	1518.3523	1544.2777	1633.2263	1658.8985	2947.3044	2973.3608	3017.4968	3020.4531	3114.2627	3261.8764	3526.6215	3620.9573	3686.4363
COCC1=NNC=C1N	COCc1n[nH]cc1N	
InChI=1S/C5H9N3O/c1-9-3-5-4(6)2-7-8-5/h2H,3,6H2,1H3,(H,7,8)	InChI=1S/C5H9N3O/c1-9-3-5-4(6)2-7-8-5/h2H,3,6H2,1H3,(H,7,8)
