17
gdb 106657	2.74732	1.29831	1.0468	0.5636	71.06	-0.2445	0.0152	0.2596	1166.1325	0.135562	-455.103377	-455.094541	-455.093597	-455.137108	32.99	
N	-0.1009364093	 1.4735663433	 0.0990542689	-0.595715
C	-0.0575015579	 0.0651521791	-0.0178759627	 0.109312
C	-0.2960770393	-0.8388002253	 1.1983393197	-0.35747
C	-1.1677898547	-0.9828999077	 0.0036253772	 0.405182
C	-2.6529999658	-0.9323128583	-0.1158352146	-0.176681
O	-3.2827081689	-2.128382405	 0.3155452434	-0.406949
O	-0.4446067227	-1.7882206443	-0.9835454319	-0.32039
C	 0.5208221455	-0.7867399541	-1.1103067078	 0.386145
N	 1.4533029904	-0.6517145354	-1.9360247902	-0.560618
H	 0.7294121124	 1.8253395667	 0.5652554914	 0.246605
H	-0.1428375995	 1.9118034509	-0.8155764894	 0.246571
H	 0.409021385	-1.622215481	 1.4563252138	 0.128773
H	-0.7356088176	-0.3019925132	 2.0334906015	 0.137247
H	-3.0296138564	-0.130775491	 0.5266926539	 0.130964
H	-2.922899213	-0.6876560158	-1.1539851001	 0.102817
H	-2.9723609107	-2.839128854	-0.2558355707	 0.293368
H	 1.4955499927	-1.4381589049	-2.5862262124	 0.230839
63.1936	110.1995	150.1408	235.5607	276.6102	290.6758	327.3343	383.0443	419.7869	468.7185	533.8191	635.917	686.4255	743.7409	776.4892	832.0657	864.32	877.8453	904.9176	950.6739	983.6278	992.224	1050.8798	1079.1921	1087.1529	1134.1029	1210.9416	1267.1974	1282.6218	1363.7251	1386.5881	1413.391	1431.5534	1484.8216	1504.9245	1666.9931	1826.1033	2997.4543	3091.9301	3126.9222	3222.4125	3479.3231	3501.6526	3575.8751	3811.7694
NC12CC1(CO)OC2=N	N[C@@]12C[C@]1(CO)O[C]2[NH]	
InChI=1S/C5H8N2O2/c6-3-5(7)1-4(5,2-8)9-3/h6,8H,1-2,7H2	InChI=1S/C5H8N2O2/c6-3-5(7)1-4(5,2-8)9-3/h6,8H,1-2,7H2/t4-,5-/m1/s1
