18
gdb 42846	2.69778	1.8749	1.61979	1.9281	74.44	-0.2075	-0.012	0.1955	910.5678	0.150099	-401.91467	-401.907875	-401.906931	-401.945799	27.649	
O	-0.1534770135	-0.0330081696	 0.2078427982	-0.332339
C	-0.0926858619	 1.1538551954	 0.0798693907	 0.430085
C	-1.0941816089	 2.3325470157	 0.1003469893	-0.172524
C	 0.0314267	 3.0166782972	 0.9664852845	-0.245564
C	 1.0006486276	 2.2465960091	 0.019085433	-0.126481
N	 0.7317416626	 2.9336326184	-1.2656625701	-0.108405
C	 0.6863213824	 2.0467274783	-2.4784609681	-0.176702
C	-0.8603410571	 2.1596234904	-2.5525922479	-0.269392
C	-0.7946936022	 2.9954815936	-1.2507095948	 0.035812
H	-2.1252340326	 2.2254204639	 0.4295172778	 0.088151
H	 0.0922899586	 4.1050162981	 0.9059629131	 0.122121
H	 0.0594729492	 2.6689112997	 1.9998521744	 0.12224
H	 2.0521126332	 2.0713001568	 0.2373635478	 0.088489
H	 1.2295429972	 2.4850014672	-3.3197968053	 0.108473
H	 1.0690456645	 1.0354360841	-2.3052634211	 0.122045
H	-1.2337939478	 2.7099280239	-3.4176949982	 0.110278
H	-1.4063019997	 1.217176397	-2.4724539852	 0.121713
H	-1.1943302315	 4.0124557107	-1.314914918	 0.082001
123.0911	140.8603	312.9849	351.9688	445.9083	470.1618	590.4407	624.8918	722.7602	753.7998	798.3411	816.4816	849.0677	852.319	870.4623	939.215	964.9348	986.1749	1016.103	1032.752	1045.1653	1068.3786	1087.4647	1102.997	1128.2613	1174.1311	1200.8993	1216.0099	1227.2652	1239.2417	1252.172	1257.7829	1278.668	1316.4467	1355.4815	1481.3325	1483.2761	1509.909	1892.4044	3042.2685	3045.6438	3074.451	3078.1913	3090.2808	3129.8792	3144.6209	3148.8904	3151.649
O=C1C2CC1N1CCC21	O=C1[C@H]2C[C@@H]1N1CC[C@@H]21	
InChI=1S/C7H9NO/c9-7-4-3-6(7)8-2-1-5(4)8/h4-6H,1-3H2	InChI=1S/C7H9NO/c9-7-4-3-6(7)8-2-1-5(4)8/h4-6H,1-3H2/t4-,5-,6-/m0/s1
