12
gdb 21142	7.24141	1.36251	1.15497	1.9909	54.96	-0.2409	0.0188	0.2597	963.2961	0.082919	-451.776592	-451.769301	-451.768356	-451.80901	25.158	
C	-0.0137660288	 1.3846062097	 0.1115880709	-0.335955
N	 0.2722007034	-0.0414166017	 0.0833700171	-0.354562
C	 0.668880818	-0.5695625601	-0.9698801952	 0.557332
O	 0.9071754136	-0.0261589159	-2.2017058804	-0.259064
N	 1.3368267833	-1.0688812596	-3.0894299701	-0.255368
C	 1.3296858625	-2.105265828	-2.3341505758	 0.498872
O	 1.651160613	-3.3416840577	-2.665822147	-0.382956
O	 0.9552542229	-1.9274767006	-1.0616808215	-0.205725
H	 0.7550719987	 1.8976587131	 0.7002798809	 0.135618
H	-0.0616703489	 1.8523937008	-0.8784053821	 0.131536
H	-0.9689165035	 1.5416587377	 0.6215340845	 0.134998
H	 1.9052750358	-3.3466244676	-3.5993282513	 0.335273
41.7852	114.2583	196.8581	266.8537	318.6114	374.8838	449.4349	562.9555	677.9188	679.1096	734.1713	756.5894	897.0489	938.2049	1016.2876	1105.3215	1134.5816	1153.9787	1195.1561	1231.8437	1446.8627	1493.1148	1503.6053	1530.1532	1723.9046	1863.2585	3021.0747	3084.4987	3098.0396	3787.0852
CN=C1ON=C(O)O1	CN=c1onc(O)o1	
InChI=1S/C3H4N2O3/c1-4-3-7-2(6)5-8-3/h1H3,(H,5,6)	InChI=1S/C3H4N2O3/c1-4-3-7-2(6)5-8-3/h1H3,(H,5,6)
