20
gdb 32795	3.16885	1.00266	0.7846	1.4671	84.27	-0.1813	0.0312	0.2125	1487.7379	0.170598	-403.176246	-403.166609	-403.165665	-403.211925	34.663	
C	-0.0385544166	 1.5258971287	-0.0589704989	-0.39363
C	 0.3233358331	 0.0443348949	-0.067086788	-0.115014
N	 0.3357039108	-0.4874952612	 1.2959097357	-0.408358
C	 0.6436317477	-1.8443470294	 1.464146203	 0.178909
C	 1.4604179901	-2.4071820747	 2.4074377513	 0.275876
C	 2.3056952236	-1.8477912235	 3.4936898645	-0.501267
O	 1.4219163302	-3.7758659406	 2.2912831117	-0.182792
C	 0.5963000189	-4.0694450728	 1.2594613636	-0.016414
C	 0.0864179161	-2.9384095072	 0.711192656	-0.240519
H	 0.7063927542	 2.1119655833	 0.4923415194	 0.112356
H	-0.0782292288	 1.9194374718	-1.0786641082	 0.11887
H	-1.0110543418	 1.6838164556	 0.4160728195	 0.129172
H	-0.4264815974	-0.5109968059	-0.6409759333	 0.112477
H	 1.2873380628	-0.1062817639	-0.5827876194	 0.089457
H	 0.8940702162	 0.0971345953	 1.9061038659	 0.219116
H	 1.8474317707	-1.9488891405	 4.4862629747	 0.13384
H	 3.2792484947	-2.348616454	 3.5299097391	 0.137512
H	 2.4879111722	-0.7818424614	 3.323466415	 0.118836
H	 0.47526905	-5.1167136155	 1.0359902188	 0.127005
H	-0.6042915867	-2.8809273689	-0.1147459404	 0.104567
37.2072	67.9476	101.1607	136.3356	215.4926	251.2523	274.2832	336.7999	355.2548	454.9208	607.3451	633.7496	663.8747	696.9177	738.5261	787.5319	807.9802	817.7052	909.5063	922.4214	959.0296	1055.0567	1060.6824	1092.2168	1109.068	1144.6951	1191.469	1197.7588	1244.6698	1293.7227	1320.4655	1379.7841	1409.919	1413.7388	1458.7267	1468.617	1484.7628	1492.1342	1498.1971	1504.5703	1523.448	1550.6933	1679.2914	2953.0461	3014.0791	3032.5963	3058.0277	3068.303	3100.5327	3100.9506	3121.2036	3256.7011	3281.8159	3547.6961
CCNC1=C(C)OC=C1	CCNc1c(C)occ1	
InChI=1S/C7H11NO/c1-3-8-7-4-5-9-6(7)2/h4-5,8H,3H2,1-2H3	InChI=1S/C7H11NO/c1-3-8-7-4-5-9-6(7)2/h4-5,8H,3H2,1-2H3
