22
gdb 110129	2.3057	1.13962	0.89437	3.7028	84.78	-0.2444	0.0102	0.2546	1425.7952	0.19254	-404.355502	-404.345145	-404.3442	-404.391069	37.114	
C	-0.3914825628	 1.5761791342	-0.4726722131	-0.390032
C	 0.0107060981	 0.151203285	-0.0705459326	-0.197897
C	 0.9500374513	-0.4866510033	-1.0744345948	-0.01883
C	 1.1486980191	-1.9817191554	-1.2179261656	-0.03205
C	 0.4214117355	-3.0040944552	-0.3675772838	-0.20049
C	 0.3681377982	-4.392263718	-1.0181403123	-0.384734
N	 0.4694647237	-1.202937994	-2.2368945866	-0.065146
C	-0.7921787873	-1.3113816254	-2.7594073924	 0.138957
O	-1.5907364849	-0.4072179918	-2.8720856373	-0.308147
H	 0.4898241773	 2.2172689111	-0.5860947449	 0.108655
H	-0.9330506449	 1.5579797344	-1.4209120305	 0.160666
H	-1.0342283254	 2.0264521283	 0.2897062776	 0.109649
H	 0.5201831906	 0.1659751701	 0.9020607407	 0.100686
H	-0.8875400246	-0.4602422767	 0.0516781579	 0.110479
H	 1.8294461291	 0.1232896553	-1.2880649379	 0.098537
H	 2.1486433268	-2.3022944232	-1.5159594067	 0.096121
H	 0.944672202	-3.0749858879	 0.5947958869	 0.11079
H	-0.5927982254	-2.6572582685	-0.1460047394	 0.111518
H	-0.1923458676	-4.3726574093	-1.9582093078	 0.126053
H	 1.3744100827	-4.763384885	-1.2402521966	 0.121335
H	-0.1158674467	-5.115359664	-0.3552405526	 0.121029
H	-0.9827953948	-2.3269703505	-3.1581593383	 0.082851
83.0174	94.4303	120.4099	136.7698	150.6882	220.4973	239.2686	244.0808	283.0857	307.4584	420.3702	498.336	558.0343	625.6465	750.1353	770.6791	811.6072	859.5747	896.8257	978.9515	1000.9776	1027.8226	1042.3347	1064.5192	1100.5967	1117.338	1143.7166	1160.4479	1185.9945	1201.677	1282.8027	1297.581	1334.4143	1348.6972	1393.4889	1403.8036	1412.9209	1416.7291	1426.8529	1471.7891	1476.3518	1484.1168	1498.6982	1499.8745	1504.5673	1518.1759	1778.8625	2940.2901	3023.5378	3028.5105	3036.4495	3037.0985	3070.2634	3083.4294	3087.7368	3096.7949	3105.7195	3110.3631	3111.8228	3138.3735
CCC1C(CC)N1C=O	CC[C@H]1[C@@H](CC)N1C=O	
InChI=1S/C7H13NO/c1-3-6-7(4-2)8(6)5-9/h5-7H,3-4H2,1-2H3	InChI=1S/C7H13NO/c1-3-6-7(4-2)8(6)5-9/h5-7H,3-4H2,1-2H3/t6-,7+,8?
