19
gdb 89960	2.29602	1.5812	1.11983	2.1605	78.48	-0.216	-0.0387	0.1773	1137.4568	0.158515	-419.153511	-419.144876	-419.143932	-419.186888	32.254	
C	-0.1811959081	 1.5155874994	 0.2032019842	-0.328234
N	-0.0116175307	 0.0806816099	 0.1350176686	-0.070771
C	-1.217057721	-0.7700633208	 0.295672524	-0.208705
C	-0.4430137968	-1.6968131165	 1.2544520561	 0.238606
N	 0.4915286424	-2.6279449212	 0.5841693209	-0.372453
C	 1.6518012431	-1.7148992913	 0.7919860186	-0.165938
C	 0.6885077204	-0.5923168476	 1.2369165125	-0.045022
C	-1.087307431	-2.1449843253	 2.5243770914	 0.060907
O	-2.1067160511	-1.6883348598	 2.9802516018	-0.25334
H	 0.7958621687	 2.0081015128	 0.1580080384	 0.120919
H	-0.7643768516	 1.8547243347	-0.6591571982	 0.126911
H	-0.6995330638	 1.8579257568	 1.118679366	 0.09758
H	-2.0377771064	-0.2695103178	 0.8282786683	 0.114009
H	-1.5827343909	-1.2239005335	-0.6297381259	 0.110577
H	 0.5778636877	-3.530249204	 1.0404661422	 0.218296
H	 2.3272501499	-2.0251868807	 1.6001662661	 0.095433
H	 2.2307091752	-1.5164307876	-0.1148686975	 0.112219
H	 0.9556781873	 0.0295135824	 2.096011994	 0.08143
H	-0.5266222431	-2.9504258299	 3.0577490884	 0.067576
82.3625	108.2748	192.9035	208.8464	262.8514	277.4867	305.0835	363.5978	432.9342	504.5514	613.663	651.4712	740.9769	763.1712	853.952	916.0007	946.5287	982.9646	1002.5549	1019.0567	1058.7276	1081.3643	1100.6415	1131.5896	1153.8266	1171.8458	1196.1582	1205.0308	1238.0428	1256.9908	1301.766	1322.6631	1349.5772	1401.7409	1418.33	1454.0141	1485.2053	1496.4143	1501.6618	1504.7119	1808.0869	2840.8602	2930.5279	3009.0835	3011.0462	3057.7713	3069.0828	3084.4321	3088.4006	3100.5374	3520.681
CN1CC2(NCC12)C=O	CN1C[C@]2(NC[C@@H]12)C=O	
InChI=1S/C6H10N2O/c1-8-3-6(4-9)5(8)2-7-6/h4-5,7H,2-3H2,1H3	InChI=1S/C6H10N2O/c1-8-3-6(4-9)5(8)2-7-6/h4-5,7H,2-3H2,1H3/t5-,6+/m1/s1
