20
gdb 54521	3.13137	1.3134	1.07767	2.8305	79.08	-0.2336	-0.0111	0.2226	1180.4817	0.171691	-403.167964	-403.159333	-403.158389	-403.201545	32.747	
C	 0.7576775231	 0.2286915854	-0.9004615251	-0.480443
C	-0.1783819951	 0.318753473	 0.287297544	 0.317886
O	 0.0723809888	 1.0040884544	 1.2567642928	-0.312274
C	-1.4525320262	-0.4731283429	 0.2376945816	 0.225013
C	-2.5398840416	-0.1692764069	 1.2596102721	-0.27743
C	-3.4639853342	-1.4078565214	 1.2476541065	-0.249542
C	-2.5532667908	-2.5872659575	 0.8336424841	-0.226801
C	-1.4752910522	-1.9571240761	-0.032902091	-0.047322
N	-1.8597260447	-1.0136436108	-1.0769763817	-0.372652
H	 1.6583851589	 0.8061841817	-0.690083347	 0.133314
H	 1.0216040139	-0.8103534612	-1.1214304859	 0.137725
H	 0.2579388574	 0.6118593696	-1.7951092152	 0.153289
H	-2.0572174999	-0.0323373267	 2.2313669568	 0.130528
H	-3.0758777702	 0.7597521737	 1.0390369894	 0.105853
H	-3.947468086	-1.5751886446	 2.2128077122	 0.110831
H	-4.2725208524	-1.278272839	 0.5202438431	 0.103919
H	-2.0751991258	-3.0392632059	 1.7107527988	 0.113469
H	-3.098583732	-3.3853677836	 0.3180362614	 0.107255
H	-0.5672792958	-2.5181216589	-0.235993474	 0.09513
H	-2.8698021151	-0.9652453121	-1.1884194029	 0.23225
58.0109	115.9019	148.9607	198.2395	235.9117	326.1294	358.0736	436.2261	491.0079	581.8116	607.9732	649.1894	686.3905	790.0614	847.9732	869.5534	891.8833	913.6628	945.8513	990.215	994.4707	1024.54	1042.2453	1058.3461	1116.9389	1136.2279	1169.3984	1186.9598	1216.6391	1253.5457	1295.9234	1312.4111	1323.5278	1343.8665	1355.4566	1384.6808	1421.5485	1454.5737	1469.0803	1486.2959	1495.6923	1511.8792	1787.5851	3036.4933	3044.7919	3049.7018	3055.9922	3075.6856	3094.5334	3108.6569	3111.8534	3149.2167	3157.0074	3494.6681
CC(=O)C12CCCC1N2	CC(=O)[C@]12CCC[C@H]1N2	
InChI=1S/C7H11NO/c1-5(9)7-4-2-3-6(7)8-7/h6,8H,2-4H2,1H3	InChI=1S/C7H11NO/c1-5(9)7-4-2-3-6(7)8-7/h6,8H,2-4H2,1H3/t6-,7-/m1/s1
