16
gdb 47987	6.58538	0.69773	0.68814	3.4511	83.64	-0.2465	-0.067	0.1795	1607.8294	0.124128	-400.636272	-400.628235	-400.627291	-400.670445	28.719	
O	-0.0353581281	-0.1573474964	 0.2010991532	-0.226194
C	 0.0052316085	 1.051473675	 0.2159808623	 0.014291
C	 1.214652562	 1.8276692404	 0.1169216781	 0.090796
C	 2.2082160411	 2.5121889213	 0.0368050577	 0.102471
C	 3.4312841986	 3.2756139843	-0.0417844149	-0.186712
C	 4.0393933181	 3.6740114282	-1.4199320915	-0.05741
C	 2.8731324479	 4.6801092837	-1.502314868	-0.177686
N	 3.3191227116	 4.8305660066	-0.0310108927	-0.142742
C	 4.7456466703	 4.7816611749	-0.6151899762	-0.167118
H	-0.9159947807	 1.661566193	 0.3096416096	 0.103415
H	 4.1446371223	 2.918037629	 0.7076142719	 0.11335
H	 4.4390820427	 3.0035142819	-2.1869087113	 0.083978
H	 3.0261355169	 5.5888080741	-2.0884989548	 0.109746
H	 1.8587440877	 4.294983808	-1.6160457605	 0.121114
H	 5.5087906214	 4.4935342803	 0.1125856121	 0.108223
H	 5.0202346196	 5.6967987557	-1.1433358753	 0.110476
37.4087	82.1024	101.2519	195.7859	261.6456	415.2871	449.2006	504.8269	601.0379	675.2626	753.8689	785.0801	832.6142	873.7728	909.0018	912.6462	942.0389	1021.0034	1025.0446	1068.024	1082.3885	1114.0456	1135.6558	1162.5912	1197.8777	1202.9021	1227.6365	1239.6084	1278.8472	1378.0651	1421.0104	1513.6826	1549.5741	1766.9133	2316.9585	2921.8766	3053.8282	3059.4889	3065.015	3076.8723	3131.8323	3142.1662
O=CC#CC1C2CN1C2	O=CC#C[C@H]1[C@H]2CN1C2	
InChI=1S/C7H7NO/c9-3-1-2-7-6-4-8(7)5-6/h3,6-7H,4-5H2	InChI=1S/C7H7NO/c9-3-1-2-7-6-4-8(7)5-6/h3,6-7H,4-5H2/t7-/m0/s1
