17
gdb 86868	2.82088	1.25483	1.00305	2.3141	68.66	-0.2505	-0.0454	0.2051	1192.3897	0.133441	-458.99616	-458.98732	-458.986375	-459.030665	31.536	
C	-0.2321542968	 1.6619248905	 0.1633160358	-0.399017
C	 0.3145004288	 0.2916094262	-0.1976867338	 0.016731
O	 1.4826924591	 0.4110486536	-1.0068776036	-0.275497
C	 2.3380198453	-0.7104128743	-0.7600567871	 0.002226
C	 2.1107446369	-1.1479897782	 0.6862987619	-0.368189
C	 0.7488967113	-0.5382537101	 1.0193066342	 0.384802
O	 0.1240557776	-0.6655778376	 2.0371845625	-0.302554
C	 2.0379095426	-1.8106583472	-1.781229162	 0.131908
O	 2.0989614655	-2.9896245419	-1.5518332695	-0.226927
H	 0.5411481053	 2.2633751743	 0.6490894924	 0.128844
H	-0.5765420508	 2.1902293094	-0.7287605305	 0.129936
H	-1.0696786459	 1.5417825142	 0.8552918499	 0.14416
H	-0.4591962735	-0.2934948659	-0.7265819202	 0.104861
H	 3.3638068843	-0.3718297043	-0.9535747364	 0.119122
H	 2.0933640419	-2.2353470582	 0.7938798531	 0.166009
H	 2.8613912555	-0.7465442387	 1.3726351068	 0.144683
H	 1.7536151628	-1.4121205918	-2.7800941536	 0.098904
59.1059	62.0673	118.0766	199.2428	224.0409	259.4226	328.6559	411.9302	464.1586	570.2552	580.0565	629.09	697.6451	734.2939	838.6168	878.0235	899.3404	985.1753	1008.2229	1064.2301	1090.7304	1101.1091	1120.9532	1168.3502	1188.4758	1261.0438	1301.8014	1322.5442	1341.0921	1359.5781	1394.8314	1401.4576	1445.7037	1482.4636	1497.2039	1834.4917	1858.8192	2899.7646	2946.5039	3033.8883	3051.1951	3072.8267	3122.2623	3128.7308	3136.2108
CC1OC(CC1=O)C=O	C[C@H]1O[C@@H](CC1=O)C=O	
InChI=1S/C6H8O3/c1-4-6(8)2-5(3-7)9-4/h3-5H,2H2,1H3	InChI=1S/C6H8O3/c1-4-6(8)2-5(3-7)9-4/h3-5H,2H2,1H3/t4-,5+/m1/s1
