18
gdb 102045	2.07808	1.27534	0.86319	4.9477	71.22	-0.2414	-0.0189	0.2225	1353.5307	0.143895	-476.207568	-476.197103	-476.196159	-476.244558	35.168	
C	-0.8417331128	 0.8851902123	-0.0359011662	-0.23752
O	 0.1419877258	-0.0909417195	 0.2571545769	-0.255038
C	 0.8459360685	-0.594055781	-0.8659242665	-0.054333
C	 2.2742803257	-0.8614579081	-0.3828300118	 0.180798
O	 3.2538667288	-0.5383777847	-0.9968545485	-0.250374
C	 0.2166998179	-1.8804782679	-1.3753081338	 0.427129
N	 0.840250904	-2.9777754919	-1.2715212327	-0.529329
O	-1.0169668902	-1.6387135237	-1.8834716266	-0.230447
C	-1.7731998302	-2.7577541264	-2.3331677214	-0.271623
H	-0.4084653471	 1.7387946402	-0.5775328289	 0.113895
H	-1.6643069542	 0.4702676662	-0.6293236333	 0.123863
H	-1.2283508185	 1.2354543793	 0.9240652306	 0.131556
H	 0.8873260339	 0.143720012	-1.6784753007	 0.103851
H	 2.317237031	-1.3387994531	 0.6162492987	 0.100138
H	 0.3299553897	-3.7799139478	-1.6374233703	 0.224248
H	-1.2703651993	-3.2677246193	-3.1631492844	 0.137395
H	-1.9470530345	-3.4707056389	-1.5190255332	 0.138512
H	-2.7270687686	-2.3589534375	-2.678666338	 0.147279
27.6007	78.2383	93.3246	117.5964	168.4817	195.0354	220.6419	250.6966	294.7088	323.8028	376.3674	434.5028	536.595	599.5992	731.4	862.6556	870.6798	969.4995	1008.1964	1042.5606	1092.5958	1120.6135	1150.7023	1174.5505	1181.6612	1213.9743	1217.8026	1250.6999	1329.7263	1369.6016	1409.7084	1471.9129	1478.4216	1486.2423	1492.5379	1505.265	1512.6326	1733.3291	1848.1758	2940.8081	2996.3821	3021.9427	3027.5563	3069.1328	3088.4197	3122.2258	3150.5946	3503.295
COC(C=O)C(=N)OC	CO[C@@H](C=O)[C]([NH])OC	
InChI=1S/C5H9NO3/c1-8-4(3-7)5(6)9-2/h3-4,6H,1-2H3	InChI=1S/C5H9NO3/c1-8-4(3-7)5(6)9-2/h3-4,6H,1-2H3/t4-/m0/s1
