17
gdb 128168	2.70658	1.31245	0.90889	4.18	73.62	-0.1897	0.0151	0.2047	1271.72	0.136536	-451.299978	-451.290731	-451.289787	-451.335388	32.056	
C	 0.2246793147	 1.3062626637	 0.2922755229	-0.337129
N	-0.3159374574	 0.0416633779	-0.1988820195	-0.396584
C	 0.4550124776	-0.7102928243	-1.0718077364	 0.285415
C	 0.6507886575	-2.0775191341	-1.1731820932	 0.332459
O	 0.1269937656	-2.9900926477	-0.3255845852	-0.289775
C	 0.4616828903	-4.3451873659	-0.6113083284	-0.24059
N	 1.4319340864	-2.3468964791	-2.2389164758	-0.279972
N	 1.7609711009	-1.2251116293	-2.8300749594	-0.159188
N	 1.161205179	-0.2325879192	-2.1263133179	-0.233043
H	 1.2208582737	 1.2125548165	 0.7501910135	 0.123973
H	 0.2894480844	 2.0320315733	-0.5255139939	 0.1277
H	-0.4658487009	 1.7182332041	 1.0311403533	 0.137876
H	-0.6672223116	-0.5491479345	 0.5429009934	 0.25543
H	 0.1045479778	-4.6378883158	-1.6042189742	 0.136748
H	 1.5452008489	-4.5000197506	-0.57311311	 0.135055
H	-0.0308211203	-4.9437360618	 0.1564830076	 0.124661
H	 1.2794985734	 0.7209091069	-2.4254782268	 0.276964
30.0944	64.1495	150.235	170.3354	177.2787	235.447	296.4262	328.0404	401.6606	505.6958	558.4617	609.3184	687.8589	702.0992	729.9233	787.8426	997.9587	1046.364	1058.7014	1078.4193	1145.8595	1157.9736	1181.941	1211.0148	1245.0587	1264.1704	1353.7372	1386.3493	1454.7138	1468.7235	1479.6028	1489.4317	1500.9086	1505.2488	1519.7765	1566.5391	1678.3016	2990.3551	3030.7714	3068.6369	3096.4422	3125.2056	3141.7532	3583.924	3669.5093
CNC1=C(OC)N=NN1	CNc1c(OC)nn[nH]1	
InChI=1S/C4H8N4O/c1-5-3-4(9-2)7-8-6-3/h1-2H3,(H2,5,6,7,8)	InChI=1S/C4H8N4O/c1-5-3-4(9-2)7-8-6-3/h1-2H3,(H2,5,6,7,8)
