18
gdb 84383	2.14087	1.82566	1.18452	2.4773	72.78	-0.2384	-0.0059	0.2325	1060.6314	0.148357	-439.054999	-439.046734	-439.04579	-439.087843	32.29	
O	 0.4192100112	 1.0525876658	-0.6859941697	-0.421856
C	 0.1130322405	-0.1798758216	-0.045988653	 0.009286
C	 0.598376021	-0.2803686746	 1.3792099652	-0.125528
C	-0.3346712793	-0.7511273739	 2.206468037	-0.11947
C	-1.6411916122	-1.0432638469	 1.5088028944	 0.037107
O	-2.7721502119	-0.4965512406	 2.1745325663	-0.422313
C	-1.3876664376	-0.5118178603	 0.084918914	 0.238542
C	-2.4088454139	 0.2869377096	-0.640856939	-0.287125
N	-2.1405239196	-1.1110047368	-1.0221804371	-0.362709
H	 0.0648555438	 1.7587764449	-0.13359673	 0.274794
H	 0.6087312168	-0.9301756721	-0.6771158436	 0.102524
H	 1.6147466254	-0.0104414881	 1.6449104076	 0.108495
H	-0.2146999957	-0.9287907728	 3.2697807054	 0.108857
H	-1.8478933919	-2.1185604554	 1.4664139766	 0.111117
H	-2.6106877036	 0.4468012647	 2.2895893916	 0.27308
H	-3.3758968611	 0.4488404913	-0.1749804611	 0.125748
H	-2.0535167138	 1.0788701377	-1.2934428138	 0.117797
H	-1.5591560082	-1.124081711	-1.8587008408	 0.231654
52.4709	199.5771	246.675	275.9061	297.6128	333.9322	341.0877	383.6943	484.4061	512.4682	556.2165	609.8926	715.9767	753.6521	817.1203	898.6929	917.7839	936.9866	986.0162	988.8092	1001.0918	1019.1794	1042.19	1086.9873	1105.0709	1139.7599	1148.5148	1250.2153	1257.2519	1268.6924	1276.8886	1283.3536	1302.19	1365.7805	1385.5279	1423.9897	1432.7641	1492.9833	1677.884	3015.8168	3052.0939	3117.272	3183.1531	3207.4357	3210.8791	3473.3996	3795.4104	3796.4702
OC1C=CC(O)C11CN1	O[C@H]1C=C[C@@H](O)[C@]21CN2	
InChI=1S/C6H9NO2/c8-4-1-2-5(9)6(4)3-7-6/h1-2,4-5,7-9H,3H2	InChI=1S/C6H9NO2/c8-4-1-2-5(9)6(4)3-7-6/h1-2,4-5,7-9H,3H2/t4-,5+,6+
