21
gdb 101850	5.10697	0.58759	0.57027	2.1167	75.65	-0.2572	0.0622	0.3194	1949.9992	0.180798	-461.332625	-461.322485	-461.321541	-461.368874	36.508	
O	 0.1448966827	 1.3086690776	-0.3252468854	-0.424576
C	 0.098649763	-0.0844230669	-0.1109023201	-0.062553
C	-1.338729401	-0.5554498323	 0.1251206768	 0.094385
O	-2.1657277686	-0.0632382329	-0.9396575155	-0.439312
C	-1.4563577159	-2.0691258806	 0.291765391	-0.210222
C	-2.8853344139	-2.5381531186	 0.5985057892	-0.222631
C	-2.9964383833	-4.0419625253	 0.631897771	 0.09581
C	-4.1652231873	-4.7583920521	 0.1085454781	-0.180519
O	-2.9465659826	-4.7069126649	-0.6362184787	-0.239319
H	-0.6237691821	 1.5042544298	-0.8774798851	 0.284313
H	 0.5218119197	-0.6407931606	-0.9684801189	 0.072147
H	 0.7228822727	-0.3074704627	 0.7616501272	 0.105804
H	-1.7238456947	-0.0466551804	 1.0175279267	 0.095494
H	-1.9553302098	-0.5750457492	-1.7306951827	 0.284306
H	-1.1084656545	-2.5611389038	-0.6274753096	 0.109223
H	-0.7746676828	-2.3916529969	 1.0897466624	 0.102356
H	-3.2108010498	-2.1316964691	 1.5653692969	 0.102462
H	-3.5668216396	-2.1411076888	-0.1603874167	 0.114238
H	-2.4073694976	-4.5399109428	 1.405588226	 0.089737
H	-4.4290412416	-5.736776737	 0.507945581	 0.114877
H	-4.9944122728	-4.1914627925	-0.3132430936	 0.11398
50.8659	56.9129	108.6754	120.9584	160.4418	229.5156	278.2791	329.9953	361.0586	423.5384	441.4772	488.3577	519.438	590.4549	764.4264	800.1978	860.4057	873.7741	937.8549	953.1535	1023.0692	1034.4584	1071.1642	1090.0257	1100.5735	1109.9903	1137.9296	1160.6764	1168.6919	1198.9364	1214.8192	1257.007	1293.4652	1297.3858	1326.9718	1342.0274	1383.8034	1395.6667	1421.4598	1443.9936	1449.902	1472.5792	1490.6756	1508.1111	1530.855	2929.253	3010.3695	3026.4016	3039.4399	3052.59	3067.6447	3077.3113	3082.4607	3095.8476	3167.6235	3759.8218	3778.426
OCC(O)CCC1CO1	OC[C@@H](O)CC[C@H]1CO1	
InChI=1S/C6H12O3/c7-3-5(8)1-2-6-4-9-6/h5-8H,1-4H2	InChI=1S/C6H12O3/c7-3-5(8)1-2-6-4-9-6/h5-8H,1-4H2/t5-,6-/m0/s1
