21
gdb 102680	2.59123	0.83858	0.68919	2.0964	81.99	-0.2548	0.0273	0.2821	1679.4201	0.178925	-424.176571	-424.165572	-424.164627	-424.214041	38.829	
C	 0.8849062503	 0.4460033097	-0.6533872862	-0.389734
C	 0.0116287631	 0.2070931575	 0.5829015901	-0.190384
C	-1.4371970118	-0.1737514899	 0.2472108559	 0.12373
C	-1.5812811519	-1.606944962	-0.2730058551	-0.068032
O	-1.187420403	-2.5556889873	 0.6986309976	-0.420648
O	-2.2678731574	-0.1450478677	 1.4136219811	-0.279905
C	-2.7268513415	 1.1379830511	 1.7930566583	-0.214168
C	-3.601089719	 1.0227971871	 2.9533580904	 0.280401
C	-4.3236564777	 0.9529979837	 3.9098024867	-0.417572
H	 1.8962294094	 0.7437550432	-0.3614925818	 0.119709
H	 0.9756724254	-0.4539777761	-1.2694528712	 0.125319
H	 0.4748649733	 1.2420890671	-1.2854450837	 0.112917
H	 0.4323812511	-0.5936288753	 1.1992529816	 0.120632
H	 0.0092125863	 1.1141077992	 1.1979509392	 0.094435
H	-1.8431988557	 0.519282899	-0.5092229834	 0.061503
H	-2.6257077148	-1.7610356187	-0.5840545821	 0.091157
H	-0.9434215071	-1.7619848009	-1.1484036961	 0.108406
H	-1.6921439982	-2.3437034175	 1.4932173394	 0.294677
H	-1.8879384457	 1.8086433138	 2.0365074075	 0.124316
H	-3.2764068337	 1.6079603587	 0.9599735524	 0.120708
H	-4.9626918315	 0.8868165051	 4.7554489095	 0.202532
30.5233	67.5927	86.4698	97.645	155.3694	203.8104	255.1532	263.6637	309.3305	330.4025	368.565	435.2758	452.9598	556.3255	610.2613	660.8935	678.4706	774.9331	855.6659	906.5482	959.4561	977.8467	1028.3499	1031.7243	1039.9227	1081.2623	1111.7551	1141.8953	1157.6625	1239.2708	1250.8334	1279.8031	1323.2422	1360.3991	1374.9843	1401.1362	1415.5986	1425.0348	1435.615	1484.0411	1493.6466	1502.2013	1504.6263	1509.0384	2248.0471	2958.5852	2964.4752	2990.574	2993.4409	3033.83	3039.6993	3081.616	3086.8405	3104.5311	3110.677	3505.8232	3791.6203
CCC(CO)OCC#C	CC[C@@H](CO)OCC#C	
InChI=1S/C7H12O2/c1-3-5-9-7(4-2)6-8/h1,7-8H,4-6H2,2H3	InChI=1S/C7H12O2/c1-3-5-9-7(4-2)6-8/h1,7-8H,4-6H2,2H3/t7-/m0/s1
