16
gdb 19598	4.37808	1.98049	1.84839	1.8507	62.5	-0.2537	0.0808	0.3345	763.0372	0.132702	-383.67727	-383.671399	-383.670454	-383.706834	24.932	
O	 0.0852602472	 1.452464995	-0.0414042822	-0.459295
C	 0.1121218001	 0.0550583509	-0.092730205	 0.178027
C	 0.1793049159	-0.6320702281	 1.2996731939	 0.013499
O	-1.250670508	-0.2562726944	 1.439485831	-0.334295
C	-1.2884388256	-0.6124818514	-0.0017958618	 0.013498
C	-1.0518551098	-2.1267588847	 0.0381032365	-0.041095
C	 0.2992926966	-2.6795192267	-0.3449747655	-0.308007
C	 0.0887890246	-2.1419827036	 1.0495268245	-0.041095
H	-0.5384010514	 1.6705416058	 0.6652202233	 0.285075
H	 0.8097906288	-0.2150823779	-0.8835984536	 0.082768
H	 0.8081007986	-0.2591750831	 2.1079013094	 0.084155
H	-2.1603778081	-0.2195565536	-0.5242896461	 0.084155
H	-1.9065673009	-2.7871579832	 0.1183429923	 0.100904
H	 0.3495602684	-3.7618953605	-0.417957513	 0.116601
H	 0.9400227888	-2.1794300987	-1.0600379698	 0.1242
H	 0.1014441447	-2.8139568059	 1.8988730162	 0.100904
267.6797	317.7907	341.0405	401.339	555.2824	562.6037	611.5256	652.3322	790.2588	805.7123	829.15	840.1672	871.9848	889.6731	917.2985	940.1448	995.7071	1029.0752	1039.0057	1055.4306	1086.6993	1100.3815	1142.8203	1179.259	1193.5228	1206.0551	1245.5992	1250.262	1284.156	1318.5446	1327.3001	1368.55	1460.1503	1507.3621	3122.6918	3127.5115	3131.7218	3139.805	3182.1477	3189.8383	3219.1354	3752.5191
OC1C2OC1C1CC21	O[C@H]1[C@H]2O[C@@H]1[C@H]1C[C@@H]21	
InChI=1S/C6H8O2/c7-4-5-2-1-3(2)6(4)8-5/h2-7H,1H2	InChI=1S/C6H8O2/c7-4-5-2-1-3(2)6(4)8-5/h2-7H,1H2/t2-,3+,4+,5+,6-
