16
gdb 123947	3.47992	1.57987	1.12801	3.4049	70.27	-0.2257	-0.0079	0.2178	1026.9978	0.127336	-437.884832	-437.878167	-437.877223	-437.91594	26.427	
C	-0.0198321308	 1.5278761987	-0.0136191257	-0.229325
C	 1.4032845369	 2.0921351295	 0.0240378002	-0.083259
O	 2.1059607067	 1.7486361093	 1.2296353588	-0.278082
C	 1.9614023981	 0.4471778873	 1.5703781279	 0.192625
C	 2.6432836866	-0.299405773	 2.4774054324	-0.054162
O	 2.1170602764	-1.543078696	 2.5085845456	-0.171397
N	 1.0669131036	-1.6285563316	 1.6021518228	-0.222192
C	 0.9794235625	-0.4435044648	 1.0493872462	 0.292071
C	-0.0074147783	-0.0146841566	 0.0081330771	-0.326476
H	-0.5734749905	 1.9111849257	 0.8510477063	 0.123406
H	-0.522762321	 1.8968988733	-0.9127543497	 0.111781
H	 1.9795503633	 1.7285983665	-0.8396273934	 0.108805
H	 1.3983224536	 3.1836703991	-0.0010356197	 0.122135
H	 3.4648423145	-0.1031421833	 3.1454149192	 0.151025
H	-1.0005634566	-0.4213537714	 0.217641358	 0.134229
H	 0.293295635	-0.4017101426	-0.9733118359	 0.128814
113.3407	219.8802	314.8828	372.7673	407.7758	451.441	527.0238	601.6397	667.8444	696.0853	711.8359	789.2586	868.9641	877.7967	918.2395	934.6853	948.0837	1008.2915	1071.2591	1099.4799	1128.9847	1203.9192	1215.8918	1235.6592	1295.199	1298.9554	1348.5518	1370.8117	1406.1954	1445.6557	1475.3107	1483.3606	1501.5758	1540.6984	1677.2541	3001.4624	3034.1005	3046.1056	3090.751	3098.2153	3111.7251	3282.9954
C1COC2=CON=C2C1	C1COc2conc2C1	
InChI=1S/C6H7NO2/c1-2-5-6(8-3-1)4-9-7-5/h4H,1-3H2	InChI=1S/C6H7NO2/c1-2-5-6(8-3-1)4-9-7-5/h4H,1-3H2
