21
gdb 70579	2.43679	1.84124	1.2902	1.7387	81.14	-0.2512	0.0848	0.336	1060.72	0.184242	-387.085727	-387.077844	-387.0769	-387.117509	32.286	
C	-0.1185078578	 1.4863047665	 0.0445918526	-0.474835
C	 0.044071799	-0.0146711295	-0.0180431833	 0.395546
O	-0.1809647184	-0.6964123982	 1.2302053555	-0.301081
C	 1.1520126225	-0.6818590476	 0.6893367492	 0.006037
C	 1.6899101219	-2.0087519062	 0.1973356491	-0.24129
C	 0.5752347506	-2.8924838548	-0.3924623529	-0.230848
C	-0.2577492132	-2.1628703678	-1.4436224259	-0.032241
C	-1.652975041	-1.6805477579	-1.1296460031	-0.300906
C	-0.523835328	-0.6861400066	-1.2418572373	-0.073074
H	 0.3835414466	 1.9686034229	-0.8012682394	 0.118312
H	-1.1787154385	 1.7593692433	 0.0049945245	 0.12736
H	 0.3035087433	 1.8806129399	 0.9724290648	 0.124358
H	 1.8513013557	-0.061238967	 1.252377303	 0.078161
H	 2.4646628051	-1.8049558592	-0.5547132335	 0.100981
H	 2.1855912318	-2.5361661893	 1.0211433401	 0.102479
H	 1.0215969594	-3.7891186127	-0.8329626695	 0.094453
H	-0.064925804	-3.2309669913	 0.4269320134	 0.116326
H	-0.0783666509	-2.468113583	-2.4698666723	 0.080108
H	-2.3997427903	-1.6960790141	-1.915800202	 0.104846
H	-2.030097088	-1.8790393496	-0.1324598334	 0.128737
H	-0.5125468459	-0.0552482676	-2.1257739797	 0.076572
153.3042	201.3801	221.2109	253.3425	300.5142	374.8479	386.0867	454.1259	525.9379	576.358	649.2196	681.2609	768.4279	792.2038	826.4041	876.7518	893.9499	908.7489	955.6879	972.4017	992.2515	1030.1012	1065.9722	1074.2947	1088.1807	1102.9262	1122.1909	1130.2986	1149.8706	1215.3199	1230.9618	1243.784	1253.2407	1319.597	1365.2444	1368.4535	1395.6274	1410.0077	1418.7711	1460.3507	1473.9431	1483.9439	1488.1438	1493.4106	1504.6583	3016.3112	3032.7916	3049.7261	3060.1399	3092.9964	3094.163	3096.229	3120.9127	3133.9412	3143.199	3153.6435	3225.1635
CC12OC1CCC1CC21	C[C@]12O[C@H]1CC[C@H]1C[C@@H]21	
InChI=1S/C8H12O/c1-8-6-4-5(6)2-3-7(8)9-8/h5-7H,2-4H2,1H3	InChI=1S/C8H12O/c1-8-6-4-5(6)2-3-7(8)9-8/h5-7H,2-4H2,1H3/t5-,6+,7-,8+/m0/s1
