12
gdb 129906	3.47264	1.78068	1.18467	3.1668	62.29	-0.2457	-0.0679	0.1778	925.7008	0.079323	-464.930576	-464.923959	-464.923015	-464.961628	24.818	
N	-0.0973213484	 1.4298567831	-0.0237416534	-0.603875
C	-0.0660089624	 0.0387444581	 0.0146692535	 0.205874
C	-1.0677425973	-0.8964413558	 0.1361782371	-0.071733
N	-0.6242008389	-2.2210953703	 0.135536984	-0.390908
C	 0.6574772241	-2.0743654618	 0.012253979	 0.542109
O	 1.749801648	-2.8451936369	-0.0661418496	-0.235874
N	 2.8509351811	-1.9309232865	-0.1964549522	 0.005996
N	 2.4210304722	-0.7477911724	-0.1923100438	-0.065465
N	 1.0825246978	-0.7812313558	-0.0667794348	-0.034341
H	 0.3937482984	 1.8692279143	 0.7468801281	 0.255355
H	 0.2412680237	 1.8204863917	-0.8959653869	 0.25534
H	-2.1198488082	-0.6715090676	 0.2267671991	 0.137521
153.333	199.8634	244.6577	263.0956	396.8652	552.2252	599.3434	637.575	640.615	702.0522	730.1457	739.9785	746.1922	827.9092	885.362	1024.4759	1114.5939	1181.0939	1215.2139	1238.7147	1280.3145	1329.0085	1398.2061	1450.7661	1606.3832	1644.7545	1666.531	3258.0876	3510.2383	3581.0474
NC1=CN=C2ON=NN12	Nc1cnc2onnn12	
InChI=1S/C3H3N5O/c4-2-1-5-3-8(2)6-7-9-3/h1H,4H2	InChI=1S/C3H3N5O/c4-2-1-5-3-8(2)6-7-9-3/h1H,4H2
