12
gdb 21520	3.61728	1.86282	1.23025	4.6408	60.64	-0.2413	-0.0397	0.2016	884.3048	0.084028	-414.669025	-414.662072	-414.661128	-414.7002	25.191	
N	 0.0389388522	 1.3518295708	 0.1406962909	-0.586798
C	-0.0481809306	 0.0042785884	 0.048158785	 0.443305
C	-1.1224119342	-0.8733055429	 0.0171632687	-0.013211
C	-2.5379995587	-0.5859696446	 0.0222267161	 0.056735
O	-3.4180142751	-1.4211032311	-0.0089926733	-0.289573
C	-0.4754038023	-2.1450169868	-0.0237638931	-0.01291
N	 0.8225673236	-2.070119811	-0.0201523406	-0.144284
O	 1.1009802669	-0.6644728175	 0.0255784068	-0.218098
H	 0.9289513164	 1.7691361356	-0.0820134522	 0.282499
H	-0.7752089326	 1.8947873659	-0.094138535	 0.2811
H	-2.7923008617	 0.5009740665	 0.057756624	 0.040388
H	-0.9521969241	-3.1146283632	-0.0562098873	 0.160847
151.4149	166.6361	221.3712	306.3599	345.0479	379.1469	402.2163	546.3187	629.4114	667.9771	739.336	813.4034	847.5924	940.0565	944.2001	1026.5251	1053.0076	1192.3719	1225.8886	1343.9437	1436.05	1474.8807	1568.201	1620.0383	1670.3534	1779.5958	2826.2555	3250.6486	3599.7369	3715.858
NC1=C(C=O)C=NO1	Nc1c(C=O)cno1	
InChI=1S/C4H4N2O2/c5-4-3(2-7)1-6-8-4/h1-2H,5H2	InChI=1S/C4H4N2O2/c5-4-3(2-7)1-6-8-4/h1-2H,5H2
