14
gdb 130269	4.6956	0.88553	0.79089	3.3744	65.37	-0.2455	-0.0423	0.2032	1370.2904	0.100477	-470.019299	-470.011022	-470.010078	-470.053789	28.991	
N	 0.161992728	 1.3244848498	 0.2840713756	-0.584602
C	-0.0112912508	-0.0201937544	 0.1043666479	 0.411441
N	-1.1755460545	-0.5769398177	-0.1473769999	-0.21125
O	-0.8570028028	-1.9547690123	-0.1673002759	-0.196818
C	 0.4529929598	-2.0466192621	 0.0540607387	 0.421616
C	 1.0695180167	-3.4000153596	 0.110754758	-0.406388
C	 1.7747781865	-3.6628848319	 1.4456556034	 0.159326
O	 1.8093702204	-4.742928198	 1.9663937434	-0.221647
N	 1.0423015623	-0.9018774083	 0.2316616151	-0.356657
H	 1.0948161177	 1.6543025699	 0.0910574158	 0.269789
H	-0.573753776	 1.9075971597	-0.0844999567	 0.270474
H	 0.3303887523	-4.1805799723	-0.0736440077	 0.161649
H	 1.8441722524	-3.4668431379	-0.6653643305	 0.167485
H	 2.273697868	-2.772895635	 1.8820445828	 0.115583
32.7625	61.4449	125.307	234.0206	313.607	340.6174	396.7329	422.8184	477.6889	548.5264	643.8559	710.6431	750.3743	789.2527	831.3637	926.5208	1013.2891	1031.1624	1039.8714	1082.7847	1126.6664	1177.9106	1262.1499	1357.8252	1412.1275	1436.1316	1457.0214	1578.6447	1630.834	1660.5721	1844.031	2927.2754	3033.2147	3139.1364	3588.6501	3699.423
NC1=NOC(CC=O)=N1	Nc1noc(CC=O)n1	
InChI=1S/C4H5N3O2/c5-4-6-3(1-2-8)9-7-4/h2H,1H2,(H2,5,7)	InChI=1S/C4H5N3O2/c5-4-6-3(1-2-8)9-7-4/h2H,1H2,(H2,5,7)
