15
gdb 31196	2.13773	1.59043	0.96288	5.1114	74.12	-0.261	-0.0373	0.2238	1180.5758	0.11358	-416.863613	-416.855493	-416.854549	-416.897163	28.809	
C	 0.1361242516	 1.6119787985	-0.0972973268	-0.38005
C	-0.0675286386	 0.0950227254	 0.0678407057	-0.309902
C	 0.5676357606	-0.4523845706	 1.2930433385	 0.292416
C	 0.102287429	-1.0588854082	 2.4259059118	 0.073418
N	 1.1709205733	-1.3654335906	 3.2713214507	-0.299082
C	 2.1997051683	-0.9398943725	 2.6260669376	 0.067805
O	 1.922192637	-0.374107678	 1.4213486337	-0.173139
C	-1.2488524315	-1.3542239412	 2.7409720609	 0.221238
N	-2.361699968	-1.5801363321	 2.9659030964	-0.341327
H	 1.1995125117	 1.8608814898	-0.1465977474	 0.136065
H	-0.3389042479	 1.9564473894	-1.0194839778	 0.129379
H	-0.3046247422	 2.1592760041	 0.7406147932	 0.135594
H	-1.1340107898	-0.1443807719	 0.1147559994	 0.146316
H	 0.3382193801	-0.4277468539	-0.8073159376	 0.135392
H	 3.2375472364	-0.9762128982	 2.9168349418	 0.165878
52.7533	133.1914	154.3782	182.296	215.2904	327.8128	381.6952	526.5346	555.5969	598.2014	660.1773	693.4691	757.1539	794.7819	846.1638	952.6965	972.5963	1031.6829	1081.0202	1104.3037	1139.962	1223.4842	1288.3057	1303.4732	1352.6089	1374.0661	1411.7806	1474.374	1497.0168	1506.011	1568.5762	1627.3461	2353.2936	3034.9984	3049.1797	3092.635	3125.5122	3128.5314	3282.8037
CCC1=C(N=CO1)C#N	CCc1c(nco1)C#N	
InChI=1S/C6H6N2O/c1-2-6-5(3-7)8-4-9-6/h4H,2H2,1H3	InChI=1S/C6H6N2O/c1-2-6-5(3-7)8-4-9-6/h4H,2H2,1H3
