18
gdb 125958	2.93028	1.56502	1.07115	3.53	77.19	-0.2501	-0.0083	0.2418	1112.0324	0.149972	-401.958241	-401.950819	-401.949875	-401.990105	29.04	
C	-0.1021575484	 1.5888654874	-0.037957218	-0.396828
C	 0.0146499002	 0.0638720592	 0.0204696659	-0.12714
C	 0.8036974145	-0.5515001362	-1.1862182612	-0.215229
C	 1.4883703051	-1.8580910362	-0.6811830311	-0.347283
C	 1.6194503382	-1.5722412363	 0.7866955573	 0.364445
N	 2.3125345339	-2.0853608748	 1.7650828195	-0.249465
O	 1.9369771096	-1.3227288847	 2.8837457396	-0.1765
C	 1.0328845805	-0.3881587314	 2.5108956766	-0.100442
C	 0.787476736	-0.4923907403	 1.1840744634	 0.179363
H	 0.8881286192	 2.055782706	-0.0226249652	 0.121738
H	-0.6138654875	 1.905370639	-0.9526891147	 0.117587
H	-0.6713391618	 1.9769743841	 0.8127585133	 0.117429
H	-1.0000619459	-0.3593786806	 0.0295686465	 0.092401
H	 0.1630278142	-0.7205051452	-2.055548964	 0.103765
H	 1.5794053532	 0.1617629986	-1.487815277	 0.111875
H	 0.8456077519	-2.7322159258	-0.8405752291	 0.127213
H	 2.4400422306	-2.0614254186	-1.1776821896	 0.129731
H	 0.6874249466	 0.2553799157	 3.3050439177	 0.147341
118.0587	165.4084	230.1706	249.8859	295.0777	437.9545	491.1369	556.022	598.8362	628.4478	697.515	735.0696	819.1694	833.8951	881.1698	905.678	951.114	957.5806	972.6369	1031.5918	1096.5104	1109.193	1116.0561	1142.73	1189.8427	1221.8556	1279.8408	1305.5338	1309.1939	1329.5578	1362.8906	1412.147	1418.2634	1479.877	1492.811	1496.0942	1501.6994	1553.346	1666.6935	2996.8101	3032.7119	3040.0266	3044.8011	3097.4405	3102.5292	3105.0632	3108.1141	3262.2312
CC1CCC2=NOC=C12	C[C@H]1CCc2nocc12	
InChI=1S/C7H9NO/c1-5-2-3-7-6(5)4-9-8-7/h4-5H,2-3H2,1H3	InChI=1S/C7H9NO/c1-5-2-3-7-6(5)4-9-8-7/h4-5H,2-3H2,1H3/t5-/m0/s1
