21
gdb 91492	2.52434	1.81604	1.4673	1.8529	82.44	-0.2323	0.0587	0.291	1008.9802	0.183806	-386.989249	-386.981723	-386.980779	-387.020601	31.65	
C	-0.0162851896	 1.4944058454	 0.1384248002	-0.417803
C	 0.0952831618	-0.0165952611	-0.0613360526	 0.014272
C	 1.0980808395	-0.462264644	-1.1678650392	-0.231964
C	 2.0558159975	-1.2241920349	-0.2528331445	-0.003712
O	 2.2053503975	-0.2723769908	 0.8991655721	-0.379056
C	 0.7910269182	-0.7136330768	 1.1434532033	 0.40597
C	-0.1636548552	-1.2933859831	 2.2194828361	-0.336862
C	-0.2609687725	-2.5430884467	 1.2097283394	-0.300248
C	 1.1673923533	-2.0830969851	 0.7262781498	-0.002388
H	 0.9680870177	 1.9215075167	 0.3471889793	 0.135489
H	-0.4196037201	 1.9793023693	-0.7566377635	 0.109018
H	-0.6814910226	 1.7372005097	 0.9749766038	 0.108149
H	-0.902765264	-0.4270743958	-0.2402045131	 0.065571
H	 0.6529797251	-1.0952882784	-1.9409558468	 0.09635
H	 1.5952309858	 0.3825481482	-1.651279341	 0.104476
H	 3.017582855	-1.5722995877	-0.631835068	 0.08036
H	 0.3375748553	-1.5903961553	 3.1424609791	 0.122524
H	-1.0789303398	-0.7423696162	 2.4530683809	 0.104244
H	-0.3136008406	-3.5324463247	 1.6673342707	 0.10902
H	-1.0755994824	-2.4327498972	 0.4941414596	 0.121397
H	 1.8704683	-2.4716878914	 1.4676855145	 0.095193
158.4883	231.1863	242.9812	276.0517	323.8914	405.8014	446.3905	543.0534	585.7311	628.474	659.8075	745.7955	756.4562	787.6458	834.4605	852.4824	873.8819	912.3016	927.852	947.151	1002.179	1035.3859	1051.4863	1061.1007	1084.0861	1109.6278	1126.1455	1154.5175	1186.946	1196.6339	1220.5545	1225.1826	1238.7674	1250.6153	1267.9389	1304.709	1328.4646	1368.0238	1399.1384	1400.8511	1478.4438	1488.4272	1490.6542	1494.7963	1508.1921	3030.7281	3052.2997	3059.7606	3061.5389	3065.5275	3084.3757	3092.0521	3106.6285	3116.069	3121.6616	3127.9328	3149.9779
CC1CC2OC11CCC21	C[C@H]1C[C@H]2O[C@]31CC[C@@H]23	
InChI=1S/C8H12O/c1-5-4-7-6-2-3-8(5,6)9-7/h5-7H,2-4H2,1H3	InChI=1S/C8H12O/c1-5-4-7-6-2-3-8(5,6)9-7/h5-7H,2-4H2,1H3/t5-,6-,7+,8-/m0/s1
