14
gdb 43905	3.08765	1.38248	1.13444	2.1787	67.04	-0.2726	-0.0541	0.2185	1042.0776	0.100037	-436.672383	-436.664858	-436.663914	-436.704786	27.796	
O	-0.0031909769	 0.106562574	-0.4844145039	-0.275926
C	 0.0080855217	 1.2337813339	-0.0950310561	 0.412716
C	-1.0826656836	 2.2048956367	 0.4071096648	-0.398265
C	 0.0401564624	 3.2484089676	 0.660347974	 0.301857
O	 0.6144054068	 3.1293344312	 1.9741900593	-0.312455
C	 1.7164226541	 2.3221796909	 1.4860788727	-0.095668
C	 1.1257986459	 2.2829116525	 0.0591912594	-0.263276
C	-0.1697155322	 4.6180013145	 0.2317662724	 0.239417
N	-0.3396468606	 5.7020718277	-0.1312202139	-0.328412
H	-1.7688626336	 2.4865249685	-0.398429451	 0.160008
H	-1.6525401347	 1.9107379737	 1.2906348274	 0.158682
H	 2.6629751283	 2.8682288415	 1.5523197432	 0.135059
H	 1.8012934024	 1.3677335148	 2.0138073361	 0.134619
H	 1.7705487999	 2.4960567226	-0.7909139945	 0.131643
74.8982	146.5564	190.2981	224.6377	352.9191	430.0468	475.2678	511.6732	556.5359	574.3051	645.9963	724.1	835.1781	924.2164	938.4768	958.7645	993.8087	1035.8522	1068.3932	1089.1897	1113.0337	1143.0915	1164.6301	1195.5124	1236.1322	1279.5262	1338.8032	1413.4528	1522.4392	1908.0348	2357.1389	3043.781	3064.0127	3098.6317	3134.583	3147.3817
O=C1CC2(OCC12)C#N	O=C1C[C@]2(OC[C@@H]12)C#N	
InChI=1S/C6H5NO2/c7-3-6-1-5(8)4(6)2-9-6/h4H,1-2H2	InChI=1S/C6H5NO2/c7-3-6-1-5(8)4(6)2-9-6/h4H,1-2H2/t4-,6-/m0/s1
