19
gdb 54289	2.15461	1.47701	1.14511	1.0473	76.62	-0.2469	-0.0257	0.2211	1160.9838	0.1555	-423.056938	-423.0468	-423.045856	-423.093082	35.732	
C	-1.2052166347	 0.3345950597	 0.5585466569	-0.483867
C	 0.1403736904	-0.1404303676	 0.0362893331	 0.284202
O	 1.1481488907	-0.0246476469	 0.697431411	-0.303607
C	 0.1306212506	-0.8894230594	-1.2763799031	 0.16578
C	 1.4103881681	-1.6251772134	-1.6540460188	-0.295519
C	 0.2465231298	-2.4022321597	-1.1358841138	-0.295516
C	-0.6626567856	-0.3760714616	-2.4559571329	 0.284224
C	-0.5308593316	 1.104365005	-2.7719816954	-0.483873
O	-1.2792179028	-1.1221043794	-3.1835728	-0.303612
H	-1.8142236595	 0.8183607204	-0.2092024452	 0.136872
H	-1.7691460176	-0.542871723	 0.8980121629	 0.154899
H	-1.056929072	 1.0071123145	 1.4042293406	 0.146312
H	 1.6402830334	-1.6966474396	-2.7111466471	 0.130029
H	 2.2510529078	-1.4465551045	-0.9939892944	 0.147779
H	 0.3061718057	-2.7971731135	-0.1279729428	 0.130027
H	-0.3509729986	-2.9726483909	-1.8372512943	 0.147782
H	 0.4702835369	 1.277796372	-3.1853169048	 0.154897
H	-1.2742369307	 1.3909329182	-3.5167689821	 0.146311
H	-0.6163362902	 1.7389309297	-1.8863240797	 0.13688
34.5879	74.5484	89.4806	110.6255	199.9455	200.7091	255.8177	264.2613	394.1568	404.3405	447.017	597.5523	599.3839	615.3367	641.4889	797.3433	848.1963	869.5991	917.175	943.1009	981.0392	1016.5659	1049.1698	1056.6693	1063.0315	1099.6648	1130.8877	1175.4063	1204.9094	1297.3785	1321.7984	1383.7019	1391.2468	1453.3357	1459.9629	1468.6566	1476.0469	1478.562	1482.2773	1781.901	1804.9311	3041.2885	3042.7552	3106.3515	3111.1446	3142.0653	3142.411	3154.8541	3157.3139	3231.9686	3244.5008
CC(=O)C1(CC1)C(C)=O	CC(=O)C1(CC1)C(=O)C	
InChI=1S/C7H10O2/c1-5(8)7(3-4-7)6(2)9/h3-4H2,1-2H3	InChI=1S/C7H10O2/c1-5(8)7(3-4-7)6(2)9/h3-4H2,1-2H3
