15
gdb 19522	3.80166	1.8503	1.70207	1.4609	59.35	-0.2482	0.0053	0.2535	802.219	0.120453	-399.779548	-399.772747	-399.771803	-399.811312	25.352	
O	 0.1527299819	 1.1661468872	-0.5071327293	-0.422201
C	 0.0343656338	-0.0023458126	 0.2912843927	-0.094593
C	-1.3459222877	-0.6220225922	 0.2044183326	-0.087283
C	-1.8925786457	-1.1593948132	-1.0877248454	 0.028811
O	-0.9281852953	-1.4971982579	-2.0850687592	-0.215253
C	-0.2095143856	-2.5242476949	-1.549286273	 0.091196
N	-0.5198524089	-2.9532385261	-0.394255284	-0.243709
C	-1.6109050468	-2.119396005	 0.0577044311	-0.054037
H	 0.0322198858	 0.8933019564	-1.4230910232	 0.288538
H	 0.8057480827	-0.7411174073	 0.0393382447	 0.108635
H	 0.2235325166	 0.3166875503	 1.3205084532	 0.116694
H	-2.1081204214	-0.1157811692	 0.7906099936	 0.107098
H	-2.8477338976	-0.8734978783	-1.5082096369	 0.117643
H	 0.5884869587	-2.896439083	-2.179807831	 0.149518
H	-2.3594516806	-2.5978489041	 0.6768195341	 0.108943
38.1589	160.5022	246.8362	343.3788	386.1394	449.5762	606.3773	677.9475	729.0022	760.021	806.8892	876.9298	914.972	938.1028	964.1774	1001.3999	1023.2961	1062.1241	1079.1459	1091.4271	1109.1912	1120.0447	1190.3033	1238.9169	1287.0555	1326.0495	1347.0642	1383.9605	1409.6981	1428.6532	1512.6486	1668.6256	3026.1878	3084.8923	3150.6991	3187.2128	3201.7549	3233.3761	3810.0125
OCC1C2OC=NC12	OC[C@H]1[C@H]2OC=N[C@@H]12	
InChI=1S/C5H7NO2/c7-1-3-4-5(3)8-2-6-4/h2-5,7H,1H2	InChI=1S/C5H7NO2/c7-1-3-4-5(3)8-2-6-4/h2-5,7H,1H2/t3-,4+,5-/m1/s1
