19
gdb 92026	2.83132	1.72256	1.28337	2.3025	74.68	-0.2507	0.0849	0.3356	1026.4996	0.159975	-422.997348	-422.989758	-422.988814	-423.029124	30.422	
C	 0.0994158986	 1.5040464475	-0.0216356416	-0.398746
C	-0.0055134625	-0.0153911239	 0.01841231	 0.100967
O	 0.6257615965	-0.4900114275	-1.1665946702	-0.265157
C	 0.7114755451	-1.8764717009	-1.3158552941	 0.090903
C	 2.0875253484	-2.4754031219	-1.2464560953	-0.311303
C	 1.109301524	-2.6926487313	-0.1118287472	-0.079898
C	 1.2307803044	-1.9455543339	 1.1833694038	 0.025182
O	 2.0597761328	-0.7772819372	 1.2111359311	-0.250949
C	 0.6408108566	-0.6035331154	 1.2636359563	 0.031559
H	 1.1506190304	 1.8036090181	 0.005451006	 0.139029
H	-0.3492205671	 1.8878922618	-0.9412326987	 0.125343
H	-0.4173787858	 1.9500877532	 0.8334015383	 0.112334
H	-1.0691554189	-0.3137611728	 0.0300132928	 0.067752
H	-0.0133565296	-2.2901096738	-2.0151966335	 0.08755
H	 2.3253618628	-3.3183261529	-1.8851762341	 0.110834
H	 2.8936176	-1.7755576927	-1.0615862667	 0.141632
H	 0.6707373136	-3.6804500344	-0.0099022736	 0.0898
H	 1.2925368902	-2.5554161506	 2.0838330396	 0.092007
H	 0.2524539904	-0.2319881314	 2.2124412672	 0.091163
117.3078	194.6724	226.5731	245.4653	330.7547	401.2379	427.9347	499.8209	544.1062	654.5131	709.007	756.5117	797.8655	819.243	863.3108	889.4944	909.551	961.7996	994.3414	1037.2856	1045.876	1064.0793	1072.7243	1099.7737	1118.484	1128.5969	1148.1406	1170.3873	1184.3879	1233.3612	1273.8838	1335.3886	1340.971	1376.2851	1396.1536	1403.8295	1407.2762	1459.0496	1478.6382	1484.1514	1500.1584	2944.8798	3046.3436	3104.0704	3111.3356	3116.8975	3122.2464	3130.0657	3143.0841	3157.9758	3241.538
CC1OC2CC2C2OC12	C[C@H]1O[C@H]2C[C@H]2[C@H]2O[C@@H]12	
InChI=1S/C7H10O2/c1-3-6-7(9-6)4-2-5(4)8-3/h3-7H,2H2,1H3	InChI=1S/C7H10O2/c1-3-6-7(9-6)4-2-5(4)8-3/h3-7H,2H2,1H3/t3-,4-,5+,6+,7-/m1/s1
