19
gdb 60030	2.36124	1.07171	0.78335	3.124	79.7	-0.2401	-0.0149	0.2251	1458.57	0.154691	-423.000784	-422.990138	-422.989194	-423.036982	37.84	
C	 0.0509030631	 1.5626045337	-0.0193892072	-0.39883
C	 0.027518431	 0.0359445458	 0.0520897218	 0.103302
O	 0.5643395055	-0.4254827725	 1.2934771259	-0.417663
C	-1.3878892806	-0.5312565234	-0.0229385225	-0.18769
C	-1.4153849853	-2.0734896879	-0.1517854751	-0.250193
C	-0.7416559881	-2.7844098177	 1.0376323906	 0.188143
O	 0.1069856821	-3.6244379543	 0.9137741434	-0.261301
C	-2.7875909546	-2.5653013284	-0.229457159	 0.292315
C	-3.9197201983	-2.9701829406	-0.2407402188	-0.43838
H	 1.0756644995	 1.9364760868	 0.0759908797	 0.111253
H	-0.3501636429	 1.9201612264	-0.9733911533	 0.117545
H	-0.5433561439	 1.99098757	 0.7936647964	 0.128231
H	 0.6163570492	-0.3733349554	-0.7843139538	 0.076546
H	 1.524395548	-0.3814720694	 1.2555727436	 0.290865
H	-1.934781247	-0.2300508115	 0.8782083455	 0.121663
H	-1.9189483359	-0.1032319238	-0.8782255083	 0.116172
H	-0.8606540139	-2.3819094688	-1.046244875	 0.117829
H	-1.1538466797	-2.4930125111	 2.0254022277	 0.089823
H	-4.9167659482	-3.3344606878	-0.2727054218	 0.200371
44.3709	100.324	105.7739	114.9718	204.699	228.9951	234.0288	255.9268	300.8851	339.6999	417.7815	466.133	492.3831	499.1503	574.9132	634.5408	642.1552	841.3802	862.4722	935.1386	945.8511	981.6083	1019.9714	1081.334	1087.8791	1118.0282	1137.8942	1183.4974	1262.6993	1291.0999	1317.7699	1350.0038	1387.396	1407.3347	1414.6859	1421.8759	1472.8048	1490.2377	1497.4859	1834.9448	2230.8257	2921.6559	2975.8351	3033.0334	3039.745	3049.413	3096.9291	3103.7435	3114.8823	3503.5791	3831.8757
CC(O)CC(C=O)C#C	C[C@@H](O)C[C@@H](C=O)C#C	
InChI=1S/C7H10O2/c1-3-7(5-8)4-6(2)9/h1,5-7,9H,4H2,2H3	InChI=1S/C7H10O2/c1-3-7(5-8)4-6(2)9/h1,5-7,9H,4H2,2H3/t6-,7+/m1/s1
