16
gdb 35786	3.87367	1.19882	1.00951	4.8466	68.94	-0.2823	0.0099	0.2922	1136.6326	0.125476	-437.874765	-437.86732	-437.866376	-437.906921	28.167	
N	 0.0593741717	-1.1618005076	 0.0401719943	-0.311469
C	 0.0658454449	-0.0073146518	 0.0306640002	 0.280265
C	 0.012640907	 1.4606959706	 0.0315006835	-0.022234
C	-0.7432919147	 1.9978472292	 1.2637653724	-0.23995
C	-0.5399735569	 3.4983052682	 1.3895658577	 0.022507
O	 0.6822557679	 3.9156625937	 2.0066570307	-0.236435
C	 0.5240670244	 4.1601549166	 0.6144571408	 0.039957
C	 1.3882749979	 3.3327982766	-0.3112889344	-0.11697
O	 1.3406704331	 1.9468513491	-0.0157302034	-0.246369
H	-0.5281565444	 1.7694032437	-0.8798338928	 0.114922
H	-1.8073760842	 1.7617325013	 1.1672364237	 0.123728
H	-0.3712890163	 1.5065678689	 2.1673512923	 0.14791
H	-1.4092903045	 4.0793564847	 1.6938725664	 0.104257
H	 0.4147542922	 5.2081369893	 0.3325133924	 0.101437
H	 1.0714995395	 3.5188232905	-1.3518519979	 0.102011
H	 2.4393061323	 3.620686007	-0.2173336559	 0.136433
90.1146	154.4406	198.5092	300.3425	361.4542	372.8772	424.2526	516.6653	556.4493	574.425	728.2888	790.8491	812.9626	884.6792	916.1847	968.1587	1021.5388	1025.6196	1046.0203	1069.7142	1100.1102	1151.0199	1161.3484	1237.6944	1276.4575	1291.1364	1311.4826	1360.574	1371.3542	1390.5068	1400.0181	1466.5946	1474.1427	1483.0734	2370.7361	2958.7333	2968.9032	3059.8787	3091.7707	3105.4466	3108.8652	3124.1668
N#CC1CC2OC2CO1	N#C[C@H]1C[C@H]2O[C@H]2CO1	
InChI=1S/C6H7NO2/c7-2-4-1-5-6(9-5)3-8-4/h4-6H,1,3H2	InChI=1S/C6H7NO2/c7-2-4-1-5-6(9-5)3-8-4/h4-6H,1,3H2/t4-,5-,6+/m1/s1
