14
gdb 56063	3.96489	0.7967	0.6661	4.8907	66.8	-0.283	-0.0125	0.2704	1560.2587	0.099202	-470.055548	-470.045888	-470.044944	-470.092186	31.8	
N	 0.1798719771	 1.0269260944	-0.3597271907	-0.563876
C	-0.0413149103	-0.1470464496	 0.2699732023	 0.520951
O	 0.4963065942	-0.5471694808	 1.2685511468	-0.369558
O	-1.0159894871	-0.8418406841	-0.4363099452	-0.238894
C	-1.3749581664	-2.0603648359	 0.0519924662	 0.138609
N	-2.2562832673	-2.7025673182	-0.5760029833	-0.238966
C	-2.6718826437	-4.0059989323	-0.0943473582	-0.241461
C	-2.0223123872	-4.51077156	 1.1288409807	 0.232416
N	-1.4959558534	-4.8800116542	 2.0890739258	-0.304822
H	 0.8626454406	 1.6541691982	 0.0252622555	 0.282239
H	-0.3238978538	 1.2702426137	-1.1936893508	 0.280449
H	-0.8429193345	-2.3518475685	 0.9589861451	 0.168083
H	-3.7547858339	-3.9832998483	 0.0779962197	 0.167415
H	-2.5113365144	-4.7390401346	-0.8942058338	 0.167416
34.3596	49.0094	89.7119	97.1678	184.2589	185.5956	300.1643	341.8817	375.176	400.4908	521.938	557.0255	666.114	669.1617	773.7476	907.5885	942.3664	965.4124	1041.4217	1054.1118	1110.5669	1221.3468	1269.3947	1331.856	1354.6291	1389.968	1462.7547	1606.9184	1776.0421	1871.9921	2354.551	3038.3489	3064.2427	3132.0396	3632.5681	3770.833
NC(=O)OC=NCC#N	NC(=O)OC=NCC#N	
InChI=1S/C4H5N3O2/c5-1-2-7-3-9-4(6)8/h3H,2H2,(H2,6,8)	InChI=1S/C4H5N3O2/c5-1-2-7-3-9-4(6)8/h3H,2H2,(H2,6,8)
