12
gdb 21583	7.86698	1.33013	1.13916	5.6744	61.22	-0.2304	-0.0651	0.1653	953.9673	0.084708	-410.843533	-410.836679	-410.835734	-410.874611	24.702	
N	 0.0343116108	 1.420132528	 0.1513383068	-0.589016
C	-0.0735754517	 0.0452437181	 0.0529006779	 0.334639
C	-1.1629389757	-0.7831456787	 0.0429426063	-0.168648
N	-0.6176805444	-2.0491332259	 0.001015928	 0.006959
C	-1.317375997	-3.2713335325	-0.0303580022	 0.197266
O	-0.8060754012	-4.3500829986	-0.0666025364	-0.242135
N	 0.7391056738	-1.9844147494	-0.0103444534	-0.100135
N	 1.062629247	-0.7356176432	 0.0183051918	-0.218142
H	 0.9536498547	 1.7471998169	-0.1135126085	 0.265239
H	-0.6963900207	 1.9427312032	-0.3088159709	 0.256257
H	-2.2245505253	-0.6106849551	 0.0656342223	 0.150324
H	-2.4076148203	-3.0906075128	-0.0167073719	 0.107391
106.0113	207.3497	229.5592	256.4277	348.9003	384.0445	508.6942	620.9161	664.9745	699.9049	733.5565	766.1021	808.4701	991.2274	1024.3094	1046.241	1097.5248	1183.4989	1240.0591	1306.8977	1417.1116	1427.0714	1463.7676	1629.1991	1672.0479	1856.4709	2975.2716	3291.5974	3562.5854	3662.6021
NC1=CN(C=O)N=N1	Nc1cn(C=O)nn1	
InChI=1S/C3H4N4O/c4-3-1-7(2-8)6-5-3/h1-2H,4H2	InChI=1S/C3H4N4O/c4-3-1-7(2-8)6-5-3/h1-2H,4H2
