18
gdb 104243	2.99984	1.15041	1.00173	4.9213	71.99	-0.2777	0.0009	0.2786	1214.2765	0.145905	-439.069407	-439.059858	-439.058914	-439.104147	34.004	
C	-0.3173046572	 1.6198422289	 0.0996498632	-0.469205
C	-0.1186887654	 0.1124079009	 0.0440853474	 0.260425
C	-1.3946225109	-0.6215121828	-0.3615636428	-0.128424
O	-1.7322811077	-0.1964477579	-1.6704300247	-0.422505
C	 1.1232399627	-0.4086312597	-0.7190146516	-0.10373
O	 1.5649586841	-1.1729731522	 0.4327316464	-0.275671
C	 0.5497537991	-0.597586402	 1.2686831879	-0.079674
C	 1.1016636645	 0.2742679756	 2.3121419202	 0.295633
N	 1.5233958676	 0.9662862444	 3.1361355495	-0.329668
H	 0.6072428419	 2.1363824876	 0.3693968781	 0.136867
H	-0.6515944427	 1.9807432439	-0.8760307229	 0.143801
H	-1.0797151186	 1.8884135113	 0.8388176064	 0.125521
H	-1.2182253103	-1.7084070997	-0.3291439697	 0.099421
H	-2.1954045231	-0.389933701	 0.3598174274	 0.096147
H	-2.5214713866	-0.6676248657	-1.9526808135	 0.295939
H	 0.926073528	-1.0476916807	-1.584222485	 0.121677
H	 1.8517253001	 0.3641352752	-0.9894185308	 0.114144
H	-0.0627483656	-1.3681047961	 1.7547694045	 0.119302
49.9369	112.3792	136.4706	185.0765	209.2573	237.1682	254.338	315.3618	357.0125	373.7535	429.3832	539.1883	602.8594	682.5297	851.4183	878.8852	937.7682	960.5405	973.6883	1001.4866	1024.3764	1047.2564	1088.5288	1152.1629	1154.296	1202.4873	1215.9925	1253.3123	1285.2506	1311.2087	1355.3573	1363.4875	1413.8322	1460.4783	1487.9742	1499.2542	1517.8944	1528.6575	2353.8236	2963.5349	2997.9582	3023.077	3035.7348	3043.7524	3095.5264	3112.3624	3132.7618	3835.9233
CC1(CO)COC1C#N	C[C@@]1(CO)CO[C@H]1C#N	
InChI=1S/C6H9NO2/c1-6(3-8)4-9-5(6)2-7/h5,8H,3-4H2,1H3	InChI=1S/C6H9NO2/c1-6(3-8)4-9-5(6)2-7/h5,8H,3-4H2,1H3/t5-,6+/m0/s1
