15
gdb 13911	3.27635	1.69063	1.54083	4.2133	58.52	-0.2414	0.0084	0.2498	874.0146	0.11841	-436.948764	-436.940891	-436.939947	-436.980985	29.535	
N	 0.0885118814	 1.2652098998	 0.0204035695	-0.531086
C	 0.0928791635	-0.0781787779	-0.1926986125	 0.477972
O	 1.1421234098	-0.6794331587	-0.4279139168	-0.416691
C	-1.2239266635	-0.7550773683	-0.0943177815	-0.281959
C	-1.7342290561	-1.6319358885	-1.2746502902	 0.095456
O	-0.9695544436	-1.7892152694	-2.4106004353	-0.413463
C	-1.255228149	-2.2863594226	-0.0212563061	 0.054529
O	-0.0653508627	-2.9964829333	-0.1235365079	-0.437697
H	 0.9510614999	 1.7623911588	-0.1350459534	 0.266246
H	-0.7688094863	 1.7898553108	 0.0325155257	 0.264645
H	-1.9937436034	-0.2231677469	 0.4554012023	 0.094643
H	-2.7974780638	-1.5500457486	-1.4803231044	 0.108843
H	-0.2804228673	-2.431751185	-2.1769083825	 0.293748
H	-1.9663739606	-2.7367303869	 0.6657756169	 0.107365
H	 0.6561616516	-2.3293505033	-0.1490287939	 0.31745
71.3905	133.3845	234.891	274.3873	297.2975	372.784	413.8106	427.008	502.1806	581.3532	667.8645	698.5342	732.5887	751.45	781.1816	812.991	890.7222	984.5316	1030.6729	1060.6076	1106.7264	1110.3725	1170.2635	1238.633	1279.8193	1344.1087	1363.5708	1434.2921	1447.8952	1505.3273	1617.6797	1733.4313	3141.3608	3150.5183	3163.0746	3428.6601	3597.857	3690.159	3732.4476
NC(=O)C1C(O)C1O	NC(=O)[C@H]1[C@@H](O)[C@H]1O	
InChI=1S/C4H7NO3/c5-4(8)1-2(6)3(1)7/h1-3,6-7H,(H2,5,8)	InChI=1S/C4H7NO3/c5-4(8)1-2(6)3(1)7/h1-3,6-7H,(H2,5,8)/t1-,2+,3-
