23
gdb 112819	2.22086	1.17196	0.93357	1.2921	82.22	-0.2411	0.0714	0.3125	1387.9548	0.204021	-425.400315	-425.38971	-425.388766	-425.436157	38.26	
C	-0.453007319	 1.6550550695	-0.0687312863	-0.23986
O	-0.2722625383	 0.3248778809	 0.3627338063	-0.237724
C	-1.3742388353	-0.5123638407	 0.1085830782	 0.119617
C	-1.4713056586	-1.2378320003	-1.2803850098	-0.019353
C	-0.220622021	-1.1853873479	-2.1531016331	-0.39688
C	-1.6827717251	-2.5787582595	-0.5108163014	-0.240306
C	-1.3113692787	-1.8836756385	 0.8309303041	-0.027377
C	 0.0467011493	-2.2617928617	 1.4002147095	-0.0835
O	-0.056031684	-3.6043058487	 1.8613806403	-0.427568
H	 0.4455406703	 2.2124415336	 0.2077637108	 0.125421
H	-0.5903422125	 1.7266303202	-1.1573659628	 0.10901
H	-1.3244718532	 2.1202494891	 0.418286364	 0.105496
H	-2.3061331969	 0.0237434063	 0.3433956256	 0.059975
H	-2.3374122097	-0.9245112385	-1.8718253345	 0.061759
H	 0.6813115853	-1.4358154747	-1.5878487587	 0.124998
H	-0.3081789991	-1.8992956819	-2.9794881574	 0.111299
H	-0.0697018279	-0.191726223	-2.5875541369	 0.111211
H	-2.7111020087	-2.9454218335	-0.5414573304	 0.096246
H	-1.0197053381	-3.3985727868	-0.7992743271	 0.104375
H	-2.0507998423	-2.0040368366	 1.627836879	 0.07425
H	 0.8295469587	-2.1658468954	 0.6338047945	 0.090914
H	 0.3083420365	-1.5733778805	 2.2169036723	 0.093759
H	 0.8038305984	-3.8681971116	 2.2010625737	 0.284237
65.5188	96.7255	121.2493	135.5468	167.0529	203.7039	236.329	256.9083	281.0746	325.368	351.4391	411.5028	516.338	563.7857	770.8451	785.0986	830.1576	847.3869	908.4778	943.6331	977.0765	1012.2799	1057.484	1071.6731	1090.308	1105.0294	1155.8816	1167.1375	1181.2395	1183.4912	1207.9944	1228.5326	1244.4315	1266.0929	1270.4629	1300.1473	1302.3605	1351.7603	1368.8473	1390.4995	1411.31	1456.1515	1479.6815	1484.0042	1489.5806	1493.6132	1495.6969	1510.9595	1519.373	2973.8183	2981.8261	2989.6707	3017.8232	3028.0223	3033.3423	3046.2082	3061.4357	3067.8613	3094.8496	3110.8724	3111.9095	3115.7974	3830.1981
COC1C(C)CC1CO	CO[C@H]1[C@@H](C)C[C@H]1CO	
InChI=1S/C7H14O2/c1-5-3-6(4-8)7(5)9-2/h5-8H,3-4H2,1-2H3	InChI=1S/C7H14O2/c1-5-3-6(4-8)7(5)9-2/h5-8H,3-4H2,1-2H3/t5-,6-,7-/m0/s1
