15
gdb 53991	1.91306	1.64716	1.22824	5.4092	69.12	-0.2507	-0.0245	0.2262	1071.85	0.108626	-453.904191	-453.894371	-453.893426	-453.939023	35.39	
N	-0.1612229962	 1.4385431873	 0.0757504388	-0.554124
C	 0.0737830612	 0.0858050453	-0.1076763414	 0.327696
N	 1.1526405088	-0.496353442	-0.4471286488	-0.502309
C	-1.2088753197	-0.7605149002	-0.0254683451	 0.022719
O	-2.0153784033	-0.5050396711	-1.1737799165	-0.445587
C	-0.8061033763	-2.2540593201	-0.1583507603	 0.18218
O	-0.7687996274	-3.0250391847	 0.7546084109	-0.242868
C	-1.9344191836	-0.4952613567	 1.2190528583	 0.331767
C	-2.5349934417	-0.2305851283	 2.2261039687	-0.466755
H	 0.658353884	 2.0282473087	 0.1152359996	 0.252873
H	-0.8523590857	 1.6632167887	 0.7804573993	 0.262817
H	 1.9405569689	 0.1508231305	-0.5153676452	 0.211627
H	-2.0672873068	 0.4511852104	-1.2887791374	 0.295317
H	-0.5916589811	-2.5250605001	-1.2083947339	 0.114845
H	-3.0730361311	-0.0327486377	 3.1209109631	 0.209804
47.0473	101.4363	136.4887	161.7067	212.0126	268.9111	283.109	318.1278	408.8922	444.7249	456.0896	466.1437	560.8534	605.3761	643.2208	652.9548	670.1174	726.6403	742.8949	876.5575	912.5188	1010.2563	1085.5608	1111.5714	1124.1513	1156.9648	1351.4428	1388.3132	1393.7079	1631.4763	1739.5432	1857.8585	2230.5105	2972.4701	3451.2782	3496.4487	3538.0246	3647.3346	3798.6667
NC(=N)C(O)(C=O)C#C	NC(=N)[C@@](O)(C=O)C#C	
InChI=1S/C5H6N2O2/c1-2-5(9,3-8)4(6)7/h1,3,9H,(H3,6,7)	InChI=1S/C5H6N2O2/c1-2-5(9,3-8)4(6)7/h1,3,9H,(H3,6,7)/t5-/m0/s1
