20
gdb 64491	2.97569	1.60016	1.23769	1.8115	79.33	-0.2243	0.0836	0.3079	1062.6088	0.170066	-403.03534	-403.027164	-403.02622	-403.067891	32.365	
C	 0.0505356872	 1.7270250071	 0.7209843225	-0.464555
C	-0.017881398	 0.2831538399	 0.2295280479	 0.36419
C	 1.0201375126	-0.2558194867	-0.8406996386	-0.026372
C	 2.1534407915	-0.1778760061	 0.207973284	-0.23527
C	 0.9039566579	-0.8081242651	 0.8665423	 0.011503
O	 0.7476610946	-1.6315903354	-0.3556840689	-0.313068
N	-1.4188882008	-0.0702037599	 0.1517899147	-0.115166
C	-2.2423045702	 0.5114855236	-0.9052987818	-0.236147
C	-1.969310587	-0.9516241492	-0.8647660059	-0.209711
H	 1.0622587183	 2.0756133284	 0.9250640514	 0.117744
H	-0.3919252463	 2.3985355602	-0.0216384418	 0.121697
H	-0.5397316965	 1.8200339028	 1.6372114264	 0.134322
H	 1.0742118979	-0.1085452556	-1.9209175686	 0.088779
H	 2.9504398676	-0.898767561	 0.0276535331	 0.112044
H	 2.5307626734	 0.7869563882	 0.5448664721	 0.098717
H	 0.7994997092	-1.3150104649	 1.8267183055	 0.093472
H	-3.2011154123	 0.9177422913	-0.5937915755	 0.11241
H	-1.7452580566	 1.0786706192	-1.6916246195	 0.104567
H	-1.3086383129	-1.3614782987	-1.6195221248	 0.127449
H	-2.7289407498	-1.6426490181	-0.5086655022	 0.113394
86.4717	150.8319	170.0386	237.6609	282.0737	358.8704	416.578	447.9269	518.5924	612.6136	647.125	748.5605	768.7185	802.8255	835.5127	868.5477	880.3681	916.19	922.0065	998.4224	1014.891	1028.5588	1031.4675	1104.4828	1110.0896	1118.1145	1122.0453	1127.461	1165.821	1166.3192	1173.8542	1192.0727	1204.9637	1213.1455	1268.7912	1295.7755	1348.7777	1412.1116	1486.1054	1486.6348	1499.1108	1509.9925	1525.9507	3050.7936	3087.2062	3087.664	3100.6526	3109.6141	3116.2208	3120.5621	3147.9743	3166.697	3171.7531	3214.797
CC1(C2CC1O2)N1CC1	C[C@]1([C@H]2C[C@@H]1O2)N1CC1	
InChI=1S/C7H11NO/c1-7(8-2-3-8)5-4-6(7)9-5/h5-6H,2-4H2,1H3	InChI=1S/C7H11NO/c1-7(8-2-3-8)5-4-6(7)9-5/h5-6H,2-4H2,1H3/t5-,6+,7-
