17
gdb 67902	2.47418	1.91635	1.3526	4.2014	72.03	-0.2413	0.0088	0.2501	970.8009	0.136315	-417.968114	-417.960587	-417.959643	-417.99974	29.88	
C	-0.0481742237	 1.5074265744	-0.0357782795	-0.483862
C	-0.0046906769	 0.0010794502	 0.0257227653	 0.35906
N	-1.2946082228	-0.6998779355	 0.0858096412	-0.368059
C	-0.9540640835	-1.5239263892	 1.1493944085	 0.410507
O	-1.5352040739	-2.4222205904	 1.6935418151	-0.35616
C	 0.4300862855	-0.8299807304	 1.255360976	-0.200454
N	 1.6014311582	-1.4530130151	 0.4997085118	-0.14057
C	 1.0852588381	-2.1775541815	-0.6779225412	-0.259566
C	 1.1422685523	-0.7078060847	-0.7468706431	-0.074778
H	 0.9494659835	 1.9268074177	 0.1263332146	 0.1356
H	-0.3959464942	 1.8494440209	-1.0178079206	 0.124967
H	-0.7249681536	 1.9075396729	 0.7241412918	 0.132457
H	-2.0185748375	-0.8236474128	-0.6104815621	 0.244735
H	 0.7430616464	-0.4029542039	 2.205593043	 0.108582
H	 1.8722778731	-2.7223376477	-1.1907738341	 0.129798
H	 0.1362472279	-2.7025083071	-0.6283915247	 0.138425
H	 1.857915921	-0.1752595979	-1.3661790821	 0.099319
128.304	214.6485	222.1216	266.3246	310.2835	394.8941	453.4378	503.8881	556.3616	607.0926	679.7554	705.6289	733.485	796.5918	856.1849	884.8599	918.0495	967.672	985.2375	994.597	1051.3375	1106.0833	1110.247	1123.6058	1143.3898	1173.9483	1215.31	1247.4651	1250.3705	1255.5753	1341.1257	1390.2209	1415.74	1488.2388	1492.5248	1511.7465	1885.9839	3032.0455	3097.1663	3120.5608	3123.1046	3144.7825	3155.5339	3207.2764	3572.7806
CC12NC(=O)C1N1CC21	C[C@]12NC(=O)[C@H]1N1C[C@@H]21	
InChI=1S/C6H8N2O/c1-6-3-2-8(3)4(6)5(9)7-6/h3-4H,2H2,1H3,(H,7,9)	InChI=1S/C6H8N2O/c1-6-3-2-8(3)4(6)5(9)7-6/h3-4H,2H2,1H3,(H,7,9)/t3-,4+,6+,8?/m0/s1
