18
gdb 11083	2.55418	2.15776	2.05936	2.23	67.23	-0.2371	0.0633	0.3004	825.5133	0.152142	-384.912168	-384.903968	-384.903024	-384.944574	30.674	
C	 0.1560531615	 1.561471953	-0.0580621275	-0.471741
C	 0.0526309493	 0.0665958411	 0.0642897313	 0.40997
C	 0.6620195143	-0.8623471035	-1.0204288967	-0.262089
C	 1.3261208233	-1.7310324792	 0.0966554025	-0.298467
C	 0.6948783251	-0.8162522873	 1.1790303797	 0.297153
O	 1.519238285	-0.2621367976	 2.1601352773	-0.477004
C	-0.7597146377	-1.165099993	 1.5521503422	-0.130086
O	-1.2730660201	-0.387496659	 0.446052043	-0.331024
H	 1.1883945962	 1.8631804163	-0.2595622745	 0.120282
H	-0.4728048234	 1.9165799963	-0.8824556111	 0.125133
H	-0.1756525094	 2.0496771997	 0.8623369067	 0.129258
H	-0.0957485575	-1.3626384276	-1.6257178884	 0.111301
H	 1.382954105	-0.3726028784	-1.6798252956	 0.101815
H	 1.0457293052	-2.7871124969	 0.1326960481	 0.098038
H	 2.4163588656	-1.6529650576	 0.0965811563	 0.103707
H	 2.0034838707	-0.9735363842	 2.5929399312	 0.282038
H	-1.059781291	-2.2196148762	 1.49795241	 0.09055
H	-1.063445612	-0.7437097059	 2.5188674556	 0.101165
78.2001	129.9028	183.2456	196.6431	285.0771	332.099	375.0509	394.667	500.5891	585.4868	654.8271	708.3815	746.4149	862.5946	891.4417	913.228	926.5012	947.0946	994.8998	1007.1423	1064.2152	1144.9994	1162.6152	1182.7929	1204.4911	1213.2472	1227.8643	1252.586	1264.6982	1300.6055	1335.9216	1399.134	1409.0284	1461.7158	1479.2242	1481.5463	1487.6479	1517.4986	3004.9184	3034.3534	3054.0751	3055.6421	3066.58	3103.2063	3106.753	3119.4976	3131.3779	3803.0777
CC12CCC1(O)CO2	C[C@@]12CC[C@]1(O)CO2	
InChI=1S/C6H10O2/c1-5-2-3-6(5,7)4-8-5/h7H,2-4H2,1H3	InChI=1S/C6H10O2/c1-5-2-3-6(5,7)4-8-5/h7H,2-4H2,1H3/t5-,6+/m1/s1
