19
gdb 79041	3.67755	1.59004	1.3648	1.7917	78.79	-0.2368	0.0832	0.32	988.6132	0.160952	-385.797204	-385.790408	-385.789464	-385.828005	28.402	
C	-0.2023331739	 1.620316697	-0.110682614	-0.418301
C	-0.0310078698	 0.1149422879	 0.0114464194	-0.09631
C	 1.1776545653	-0.5933982759	-0.6964056075	-0.11678
C	 2.1858243415	-0.1657272582	 0.4141598001	-0.080072
C	 2.5499520279	-1.5638235931	 0.9244268974	 0.073451
O	 2.3896691098	-1.5444702241	 2.3653312466	-0.297172
C	 1.1715623712	-0.7863002851	 2.5973039662	-0.191078
C	 0.8317504372	-0.478581267	 1.1550944249	 0.270147
C	 1.1586399256	-1.7708311069	 0.319969432	-0.072585
H	 0.7456689127	 2.1493241048	 0.029210731	 0.116794
H	-0.5909751154	 1.8854375141	-1.0999524314	 0.118167
H	-0.9111200459	 1.999282951	 0.6336642009	 0.118255
H	-0.9888686862	-0.4007957772	-0.1313212402	 0.069856
H	 1.3716540717	-0.6570665261	-1.7675638857	 0.071754
H	 2.7473105465	 0.764267611	 0.4968574179	 0.076219
H	 3.4518593913	-2.1274322509	 0.688203773	 0.075876
H	 0.4365926844	-1.4141555013	 3.1137301445	 0.10394
H	 1.395385105	 0.0925291984	 3.2122537707	 0.104289
H	 0.5294060311	-2.6612003882	 0.2958607844	 0.073551
200.7277	211.002	224.4361	328.643	409.7214	482.0958	517.6223	678.544	719.2815	749.2913	767.5706	822.6873	870.3172	892.1508	899.1785	916.4557	937.4402	952.2811	988.5996	992.9137	1038.8723	1058.6553	1093.6494	1116.4879	1125.054	1132.4068	1146.4402	1182.3962	1184.1257	1200.8211	1214.1748	1224.3783	1259.902	1293.1497	1318.6863	1357.4057	1397.8525	1414.4243	1493.763	1497.7601	1522.727	3026.9399	3028.0181	3031.8515	3069.9717	3093.6784	3100.5174	3103.6331	3110.859	3117.1488	3133.1396
CC1C2C3C4OCC13C24	C[C@H]1[C@H]2[C@@H]3[C@H]4OC[C@@]13[C@@H]24	
InChI=1S/C8H10O/c1-3-4-5-7-6(4)8(3,5)2-9-7/h3-7H,2H2,1H3	InChI=1S/C8H10O/c1-3-4-5-7-6(4)8(3,5)2-9-7/h3-7H,2H2,1H3/t3-,4-,5+,6-,7+,8+/m0/s1
