19
gdb 57510	3.22274	0.94312	0.86868	3.4818	79.44	-0.2581	-0.0703	0.1878	1404.8942	0.154698	-423.015558	-423.005292	-423.004348	-423.050822	38.001	
C	 0.0922451226	 1.551023941	-0.0209717064	-0.403489
C	 0.0542329903	 0.0244750884	 0.0792036389	 0.350763
C	 0.9343882554	-0.4574004438	 1.2459846551	-0.422201
O	-1.309096319	-0.312915688	 0.3083796425	-0.470442
C	 0.5287710322	-0.5863888251	-1.2621655595	-0.330964
C	 0.3759036136	-2.0926590061	-1.3752257934	 0.22557
O	-0.3211435359	-2.7632060638	-0.6353935918	-0.312976
C	 1.1090997153	-2.71178943	-2.4648399696	 0.253317
C	 1.7269275829	-3.2010361105	-3.3747681348	-0.374268
H	 1.1070524406	 1.9124262743	-0.2132160561	 0.107166
H	-0.5631406095	 1.8963624877	-0.8258263951	 0.118277
H	-0.2622940476	 1.9895023036	 0.9158800261	 0.124894
H	 0.5635758193	-0.0273814596	 2.1802909987	 0.123643
H	 0.9054630956	-1.5463819196	 1.3381942262	 0.126349
H	 1.9777070266	-0.1503399447	 1.114339844	 0.105669
H	-1.3520137118	-1.2791208914	 0.3056141196	 0.290487
H	-0.0632390235	-0.1582242884	-2.083871792	 0.143581
H	 1.5717684789	-0.3249078082	-1.4756829395	 0.125444
H	 2.2658133539	-3.6509038757	-4.1734496327	 0.219182
39.131	119.4484	128.6187	209.3436	219.4428	241.4818	259.4798	314.7039	331.5115	375.3538	397.6012	447.9026	531.6867	578.9994	590.9999	626.6855	649.1034	715.564	781.2682	850.0673	881.5875	926.1035	939.8679	992.6118	1018.1587	1098.1184	1131.1334	1179.7284	1238.6142	1275.4434	1345.1709	1391.1437	1409.946	1427.2078	1431.6648	1477.7123	1490.8828	1499.2643	1512.6983	1744.3769	2212.0411	3019.5663	3036.173	3042.4273	3069.4697	3108.2466	3116.1567	3119.7873	3125.0578	3492.428	3743.4857
CC(C)(O)CC(=O)C#C	CC(C)(O)CC(=O)C#C	
InChI=1S/C7H10O2/c1-4-6(8)5-7(2,3)9/h1,9H,5H2,2-3H3	InChI=1S/C7H10O2/c1-4-6(8)5-7(2,3)9/h1,9H,5H2,2-3H3
