20
gdb 112516	3.22569	0.98769	0.87456	3.8208	80.42	-0.2483	0.0153	0.2636	1393.4649	0.171808	-399.317808	-399.308195	-399.307251	-399.35264	35.25	
C	-0.0492124884	 1.5092974211	-0.2540328702	-0.390127
C	 0.0331672337	 0.0060822058	 0.0303484642	-0.171088
C	-1.3415140974	-0.6393692609	 0.0954145481	 0.0527
N	-2.1025860378	-0.6659717409	-1.1825058095	-0.319501
C	-2.6634314621	-1.9928958663	-0.8658841079	-0.16198
C	-2.7315622932	-2.9329924829	-1.9806936615	 0.29183
N	-2.7512358826	-3.7110610709	-2.8358212853	-0.327818
C	-1.4800616796	-2.1917457597	 0.1735700898	-0.01657
N	-0.3122191839	-2.9247901526	-0.2411952922	-0.497549
H	 0.9475295668	 1.957789708	-0.2959174021	 0.118815
H	-0.5384244513	 1.6983796404	-1.2152891684	 0.123751
H	-0.6176068372	 2.0331664162	 0.523175273	 0.110644
H	 0.6309633728	-0.4843510747	-0.7439899223	 0.101742
H	 0.5461189102	-0.1731462418	 0.9828449141	 0.104248
H	-1.9180787334	-0.1818359888	 0.9159239914	 0.065518
H	-2.7867691962	 0.0689912539	-1.3241561704	 0.226984
H	-3.6380380821	-1.9740275577	-0.3576978702	 0.104796
H	-1.8140046484	-2.5794012604	 1.1372689311	 0.093378
H	-0.4976899284	-3.9228266417	-0.2417744812	 0.242636
H	-0.0432497015	-2.6774765059	-1.1888646205	 0.247592
57.9747	86.4854	128.6886	177.0596	220.8728	238.9226	283.8415	310.9176	371.8385	427.3091	475.492	566.0555	610.745	699.0249	755.6651	783.7327	826.7441	888.4022	908.6321	968.5854	978.0645	993.4894	1051.695	1072.9172	1112.1477	1120.1943	1149.2511	1197.7768	1212.7347	1254.0579	1282.8795	1318.1382	1328.9257	1365.75	1384.7593	1408.4385	1423.2163	1436.6375	1472.952	1500.6202	1509.1329	1662.6796	2350.4734	2963.3432	2999.7287	3030.8463	3041.9443	3079.9662	3099.7872	3103.5396	3108.948	3501.8452	3532.2508	3579.0684
CCC1NC(C#N)C1N	CC[C@H]1N[C@@H](C#N)[C@H]1N	
InChI=1S/C6H11N3/c1-2-4-6(8)5(3-7)9-4/h4-6,9H,2,8H2,1H3	InChI=1S/C6H11N3/c1-2-4-6(8)5(3-7)9-4/h4-6,9H,2,8H2,1H3/t4-,5+,6+/m1/s1
