22
gdb 56142	3.13315	0.84661	0.79524	3.1388	80.34	-0.2384	0.0386	0.277	1571.2218	0.190721	-441.533639	-441.522287	-441.521342	-441.571313	40.636	
C	-0.1333150956	 1.4607518493	-0.1175530574	-0.482114
C	-0.0350685804	-0.0255302855	 0.1936785852	 0.406146
O	 0.81202686	-0.4732617231	 0.9471071472	-0.378022
N	-0.9552169251	-0.8104081824	-0.4383030662	-0.309583
C	-1.055865078	-2.2375652175	-0.2243758979	-0.170969
C	-2.5202042442	-2.667839414	 0.0048215346	 0.322454
C	-2.6181873347	-4.1953891914	 0.0301877878	-0.427461
C	-3.0932679841	-2.0572019633	 1.2838266086	-0.385295
O	-3.3248055516	-2.137017227	-1.065485488	-0.464468
H	 0.8055616873	 1.7875858494	-0.5727692584	 0.150372
H	-0.9600523446	 1.7177877343	-0.7848092148	 0.110904
H	-0.2469024901	 2.008586978	 0.8214665106	 0.150409
H	-1.6756672642	-0.3973895423	-1.008880519	 0.245994
H	-0.6604449042	-2.7855827954	-1.0937081913	 0.087935
H	-0.4235293532	-2.484545633	 0.6316325353	 0.143104
H	-2.0371004972	-4.6155215668	 0.8569567207	 0.12673
H	-3.6602658591	-4.5057905231	 0.1461962829	 0.126099
H	-2.2308887081	-4.6294775727	-0.8997940106	 0.105837
H	-3.0250632077	-0.9673286107	 1.2545889438	 0.121194
H	-4.1455195347	-2.3332017387	 1.3910851906	 0.120704
H	-2.5436630884	-2.4126356114	 2.159860662	 0.121655
H	-3.1302801422	-2.6465362427	-1.8601763755	 0.278375
32.4314	45.4672	77.0269	99.6911	199.5584	237.6018	243.8629	268.8267	306.2527	330.0579	349.7862	398.8525	431.8099	469.7699	523.8115	565.431	625.931	655.399	768.5631	883.3541	906.5318	938.2725	944.3226	996.5408	1005.6352	1035.3239	1051.6107	1124.7244	1143.2516	1205.7668	1237.0416	1252.2149	1275.2177	1360.5435	1385.3584	1396.3107	1406.7295	1425.0456	1471.2213	1477.0329	1483.7419	1484.4945	1495.3435	1501.0435	1508.6973	1530.1005	1776.2913	2981.9426	3027.1347	3049.5575	3050.7171	3094.4565	3112.2806	3118.726	3126.3842	3127.1207	3129.8996	3130.2184	3639.1515	3797.3874
CC(=O)NCC(C)(C)O	CC(=O)NCC(C)(C)O	
InChI=1S/C6H13NO2/c1-5(8)7-4-6(2,3)9/h9H,4H2,1-3H3,(H,7,8)	InChI=1S/C6H13NO2/c1-5(8)7-4-6(2,3)9/h9H,4H2,1-3H3,(H,7,8)
