19
gdb 40759	2.74628	1.33254	1.01054	0.8344	75.74	-0.247	0.0574	0.3044	1206.2889	0.158585	-422.96097	-422.952574	-422.95163	-422.994811	31.242	
C	 0.0826760682	 1.4574651273	 0.021533441	-0.178154
O	 1.0117672662	 0.4411060802	-0.3616601057	-0.240699
C	-0.3095530943	 0.04404143	 0.0233917122	 0.071676
C	-0.39044299	-0.7514299763	 1.2979108109	 0.046922
O	-1.7585766091	-0.9092962962	 1.7469954094	-0.300363
C	-1.6725504794	-2.3539469676	 1.6993374591	-0.139601
C	-0.2385015769	-2.2701902207	 1.1909047412	 0.285359
C	 0.4326738591	-3.0651458314	 0.1123390807	-0.328427
C	 0.9405644201	-3.1220672568	 1.5360793679	-0.324488
H	 0.298263028	 1.9557992352	 0.9657635445	 0.118492
H	-0.255914278	 2.1076790038	-0.7833201738	 0.118671
H	-0.9308656785	-0.3259751214	-0.7926328125	 0.095844
H	 0.2400630313	-0.2799981843	 2.0650523219	 0.07869
H	-1.8031038214	-2.8023067353	 2.6929270565	 0.103188
H	-2.4112787276	-2.7840710252	 1.0106638255	 0.103827
H	-0.0901580989	-3.9312110784	-0.2813789925	 0.114452
H	 1.0279895367	-2.5273579351	-0.618111603	 0.136557
H	 1.8790258339	-2.6259365474	 1.7625500964	 0.123591
H	 0.7624368905	-4.0267349306	 2.1092232704	 0.114463
53.9866	78.9553	147.5411	219.6681	272.7616	300.9885	360.2137	425.9308	487.9954	592.5666	776.6922	828.6703	860.3542	867.7085	885.4918	912.1161	937.592	966.8803	978.5787	1019.389	1039.9663	1061.7597	1081.5566	1087.1113	1103.2985	1148.0577	1152.2569	1162.7381	1183.8703	1190.7946	1244.3981	1267.918	1281.4488	1312.4232	1329.0052	1410.2749	1456.3776	1463.288	1507.4913	1523.9914	1528.009	3001.264	3008.4805	3045.8269	3085.9127	3111.9769	3123.2005	3127.7897	3174.6506	3203.1283	3218.3405
C1OC1C1OCC11CC1	C1O[C@H]1[C@H]1OCC21CC2	
InChI=1S/C7H10O2/c1-2-7(1)4-9-6(7)5-3-8-5/h5-6H,1-4H2	InChI=1S/C7H10O2/c1-2-7(1)4-9-6(7)5-3-8-5/h5-6H,1-4H2/t5-,6-/m1/s1
