25
gdb 121130	2.80472	0.84983	0.78258	1.2953	89.2	-0.2613	0.0798	0.341	1624.0292	0.227402	-389.486075	-389.475322	-389.474377	-389.521826	40.286	
C	-0.0801894982	 1.5460642097	-0.0791567792	-0.435173
C	-0.019377585	 0.0162917426	-0.0296999923	 0.319676
C	-1.3917350872	-0.5820154916	-0.3258013172	-0.451744
C	 1.1753745928	-0.535565905	-0.8727588351	-0.255241
C	 2.0199276144	-0.6421343139	 0.4229191563	-0.2381
C	 0.7064433245	-0.5469456747	 1.2477996409	 0.013118
C	 0.6887181313	 0.2304408604	 2.5578665401	-0.204588
C	 1.4857338292	-0.4583204235	 3.6595402017	-0.074093
O	 1.4114793553	 0.348839858	 4.8262204233	-0.422207
H	 0.8979134697	 2.0041753156	 0.0988493177	 0.111677
H	-0.4231542941	 1.8775976197	-1.065983268	 0.107888
H	-0.776290357	 1.9467512355	 0.665972706	 0.113936
H	-1.7572974196	-0.2676144952	-1.3107597603	 0.109471
H	-1.3581455019	-1.6768435798	-0.3162452634	 0.105532
H	-2.1335812514	-0.2633178542	 0.4165704584	 0.110959
H	 0.9523450132	-1.5184063069	-1.2991103123	 0.092584
H	 1.5543212704	 0.1089145891	-1.6710829947	 0.090238
H	 2.634481688	-1.5366360697	 0.5509950131	 0.091551
H	 2.659095495	 0.2340420734	 0.5734031017	 0.098393
H	 0.3261615997	-1.5607587953	 1.4305248648	 0.060291
H	 1.1004447581	 1.2363783958	 2.4168719581	 0.102097
H	-0.3426445406	 0.3600336637	 2.9102454905	 0.101444
H	 1.0723554107	-1.4638833303	 3.844326926	 0.081314
H	 2.5306043617	-0.5922141188	 3.3355035429	 0.0874
H	 1.928033391	-0.0747547147	 5.517794721	 0.283578
71.1187	87.1871	119.948	135.9608	214.9168	258.4657	263.3861	267.41	288.5606	334.3495	356.278	366.666	466.9774	513.2677	601.543	739.9121	785.0608	812.1744	872.8784	908.9938	931.5344	948.8635	959.3542	987.4508	995.3561	1020.1929	1050.3036	1079.1059	1119.2708	1158.0303	1186.2924	1197.4624	1223.1698	1237.6986	1242.8132	1263.3374	1272.2184	1284.1106	1310.3131	1322.5391	1332.108	1393.9812	1402.364	1420.8799	1459.9476	1479.3455	1484.126	1485.8821	1494.694	1499.6678	1505.7017	1507.2303	1527.1837	2957.8487	2983.8657	3010.2763	3015.8038	3024.6311	3028.5059	3045.0334	3049.537	3073.0638	3079.0958	3088.0358	3088.9458	3091.2533	3098.141	3106.8708	3829.3322
CC1(C)CCC1CCO	CC1(C)CC[C@H]1CCO	
InChI=1S/C8H16O/c1-8(2)5-3-7(8)4-6-9/h7,9H,3-6H2,1-2H3	InChI=1S/C8H16O/c1-8(2)5-3-7(8)4-6-9/h7,9H,3-6H2,1-2H3/t7-/m0/s1
