16
gdb 97315	5.36698	0.60551	0.54782	1.793	84.37	-0.2631	-0.0523	0.2108	2000.3552	0.12051	-437.887616	-437.877243	-437.876299	-437.925665	33.797	
C	-0.0164868353	 1.328762976	 0.1515576794	-0.321713
N	 0.0772174007	-0.1174803037	 0.1067133294	-0.199383
C	 0.5409371976	-0.6274402081	-0.9400469175	 0.122749
O	 0.6396236729	-1.9986457766	-1.0070586023	-0.207846
C	 1.1496458961	-2.5441729344	-2.1569722025	 0.276991
O	 1.5166931772	-1.9074345603	-3.1100279942	-0.339532
C	 1.1792927887	-3.9756618926	-2.0526078114	-0.070752
C	 1.2296088227	-5.1791202145	-2.0245142358	 0.233494
C	 1.2848744769	-6.629024666	-1.9831452303	-0.50948
H	 0.5629336637	 1.6998115956	 1.0038256654	 0.136141
H	 0.338827382	 1.8313839987	-0.7610203077	 0.106914
H	-1.0590791414	 1.6157405176	 0.325968743	 0.136138
H	 0.889781666	-0.1147118605	-1.8384803175	 0.135896
H	 1.8673244016	-7.0281040082	-2.8195675868	 0.165225
H	 1.7412019958	-6.9745309102	-1.0495898688	 0.167175
H	 0.276395825	-7.0530842929	-2.0377880425	 0.167985
17.1008	56.0342	69.9435	84.7379	164.1282	178.9592	213.675	304.1123	331.4544	378.2697	402.4643	426.7019	523.7032	640.3316	766.6312	844.6871	988.9576	1028.7961	1045.5008	1053.3676	1068.687	1140.012	1141.1542	1181.6223	1254.9785	1371.1516	1409.2863	1447.3093	1468.0833	1471.7368	1479.9105	1501.2554	1775.4975	1802.484	2361.7321	2984.9365	3035.079	3071.4674	3089.3507	3099.9445	3104.9581	3117.4399
CN=COC(=O)C#CC	CN=COC(=O)C#CC	
InChI=1S/C6H7NO2/c1-3-4-6(8)9-5-7-2/h5H,1-2H3	InChI=1S/C6H7NO2/c1-3-4-6(8)9-5-7-2/h5H,1-2H3
