19
gdb 88990	3.09926	1.05977	0.92891	2.9962	71.61	-0.2382	0.0577	0.296	1306.2779	0.156509	-460.096761	-460.087244	-460.0863	-460.132339	34.89	
O	-0.1016195103	 1.3878700957	-0.062906764	-0.423041
C	-0.1578515639	 0.0333663641	 0.2677368927	 0.087281
C	-1.1453327188	-0.3611168521	 1.3415094915	-0.33259
C	-1.3968635952	-0.7298908397	-0.1027390303	 0.083833
O	-2.3141022563	 0.0063180028	-0.8612307721	-0.277685
C	-3.6034284164	-0.531343823	-0.9722855961	 0.051495
C	-4.5307986372	-0.5140978104	 0.226352018	-0.35196
C	-4.6826337828	 0.5086897606	-0.8800066971	 0.12786
O	-4.3035239398	 1.8293947035	-0.6584572836	-0.431706
H	-0.3750387057	 1.4730588285	-0.9830630554	 0.295746
H	 0.7973445421	-0.4880706638	 0.2236353697	 0.09262
H	-0.8843249037	-1.1455141797	 2.0432448359	 0.11727
H	-1.7291173403	 0.4572321589	 1.7463614707	 0.131802
H	-1.3078483863	-1.7724679611	-0.4025597984	 0.095782
H	-3.680882362	-1.345772807	-1.6907569852	 0.095952
H	-5.2580334274	-1.3141943688	 0.3160540359	 0.114839
H	-4.1259236321	-0.1517283146	 1.1635338163	 0.129074
H	-5.5383553586	 0.4346762313	-1.5441422408	 0.102455
H	-3.3387934854	 1.8291514048	-0.5938180377	 0.290972
34.6605	53.6219	108.2781	150.5967	249.8925	273.249	314.243	358.639	401.6958	460.3566	505.0402	578.5348	644.3668	762.1978	773.9229	805.9031	821.7586	897.1836	912.4052	993.5974	1002.8462	1030.1972	1036.6082	1066.491	1067.7503	1116.2849	1124.97	1134.1561	1156.7462	1169.0264	1186.2187	1236.021	1254.1919	1333.9737	1346.9369	1354.9694	1388.4239	1414.1023	1427.728	1468.829	1481.8767	3106.5926	3112.1134	3121.8306	3137.8343	3141.0399	3157.3007	3233.8028	3237.4839	3752.5863	3800.2771
OC1CC1OC1CC1O	O[C@H]1C[C@H]1O[C@H]1C[C@H]1O	
InChI=1S/C6H10O3/c7-3-1-5(3)9-6-2-4(6)8/h3-8H,1-2H2	InChI=1S/C6H10O3/c7-3-1-5(3)9-6-2-4(6)8/h3-8H,1-2H2/t3-,4+,5+,6-
