15
gdb 132522	3.09008	1.27379	0.90702	1.4477	71.62	-0.2374	-0.009	0.2284	1178.9949	0.111526	-469.952408	-469.944706	-469.943762	-469.984859	29.066	
C	-0.0279801092	 1.5278368535	 0.0289528367	-0.49819
C	-0.0056421296	 0.0229309534	-0.0141183095	 0.15279
C	-0.0348694911	-0.7049381355	-1.2043973445	-0.167066
C	-0.0135245631	-2.0981106724	-1.2213878062	-0.256723
C	 0.0384844062	-2.7747530752	-0.0126482206	 0.3209
F	 0.0597962089	-4.1111966875	-0.0056654043	-0.079847
C	 0.0693836266	-2.1009587814	 1.2010463763	-0.406838
C	 0.0464021945	-0.7159039354	 1.1681537978	 0.265455
F	 0.0756851791	-0.0505256022	 2.3306417946	-0.076452
H	 0.8605781288	 1.9272496213	 0.5294034586	 0.139367
H	-0.0661239908	 1.9440918982	-0.9804146873	 0.124169
H	-0.8957267857	 1.8996579626	 0.5842493788	 0.139364
H	-0.0754839918	-0.1649801279	-2.1450751626	 0.106624
H	-0.0364154494	-2.6568307913	-2.1487725458	 0.112065
H	 0.1099934664	-2.6354312402	 2.141274718	 0.124384
90.5389	144.4834	237.7262	271.0614	333.4146	340.8275	447.85	470.3995	506.9471	569.2755	631.8976	712.4857	738.0656	771.8024	827.255	867.9184	936.9933	971.85	1016.078	1063.6335	1128.3349	1172.7327	1203.9232	1282.0837	1325.36	1342.0553	1415.4497	1456.7151	1480.2904	1497.9862	1540.8939	1635.2581	1660.5539	3036.991	3090.1022	3122.2152	3178.7238	3212.9489	3221.301
CC1=CC=C(F)C=C1F	Cc1ccc(F)cc1F	
InChI=1S/C7H6F2/c1-5-2-3-6(8)4-7(5)9/h2-4H,1H3	InChI=1S/C7H6F2/c1-5-2-3-6(8)4-7(5)9/h2-4H,1H3
