19
gdb 96910	2.93628	1.2089	0.95514	0.9757	79.94	-0.2393	0.0247	0.264	1285.5709	0.158595	-419.177793	-419.168449	-419.167504	-419.212131	34.193	
C	-0.1343779808	 1.3592999088	-0.1256938495	-0.339125
N	-0.1950459047	-0.0935805735	-0.214399363	-0.338377
C	 0.5781408486	-0.6924192627	-0.9923115908	 0.436272
O	 1.5620700816	-0.2052679682	-1.849936142	-0.292367
C	 1.9905668288	-1.5511127321	-2.1622696919	 0.4661
C	 2.5744917032	-1.9140353594	-3.4770148484	-0.341554
C	 3.428325571	-1.9294111057	-2.2114489385	-0.332657
C	 0.8592582274	-2.1577987536	-1.3295885861	-0.23414
N	 1.2316349037	-3.1125107874	-0.3093047526	-0.513224
H	 0.7190149774	 1.8027659275	-0.6520794324	 0.126223
H	-1.0566046805	 1.7851271935	-0.5374854341	 0.12884
H	-0.0918645823	 1.6506184213	 0.9290677005	 0.124588
H	 2.2877056987	-2.8597646604	-3.9250986156	 0.125351
H	 2.7489294952	-1.1085047021	-4.1819424181	 0.130015
H	 4.1605139086	-1.1378075813	-2.0961178024	 0.127979
H	 3.7058553751	-2.8878723081	-1.7854881627	 0.133849
H	 0.0658171486	-2.5904971232	-1.9467384071	 0.112343
H	 1.8313496195	-2.6690911822	 0.3807954704	 0.236035
H	 0.4033969107	-3.4250749912	 0.1877731643	 0.243849
81.3951	90.0951	147.0873	176.1951	190.7931	247.6248	255.7944	323.0941	392.7018	494.5877	506.3943	593.0027	706.8852	761.3698	774.4631	836.8168	865.4413	901.0445	946.4928	971.1523	991.2083	1045.111	1050.4716	1076.3338	1083.7765	1130.0497	1153.8957	1173.8507	1187.6251	1220.6555	1230.5092	1271.718	1370.4368	1433.6677	1442.0697	1446.8397	1492.7761	1497.8457	1503.735	1663.23	1847.6397	3016.2964	3068.8724	3080.6681	3088.8976	3132.0762	3133.7178	3216.4773	3230.0713	3496.2865	3575.7783
CN=C1OC2(CC2)C1N	CN=C1OC2(CC2)[C@H]1N	
InChI=1S/C6H10N2O/c1-8-5-4(7)6(9-5)2-3-6/h4H,2-3,7H2,1H3	InChI=1S/C6H10N2O/c1-8-5-4(7)6(9-5)2-3-6/h4H,2-3,7H2,1H3/t4-/m0/s1
