19
gdb 27283	3.05264	1.55514	1.05829	2.0099	83.98	-0.1662	0.0562	0.2225	1132.1098	0.163113	-382.113171	-382.105215	-382.104271	-382.145519	30.953	
N	 0.0158546392	 1.4377629605	 0.150744796	-0.609001
C	-0.0017432457	 0.0297870686	 0.0278588075	 0.058167
C	-1.1071533816	-0.7938023415	-0.0217009586	 0.318519
C	-2.6037683952	-0.7672839249	 0.0263406816	-0.360799
C	-2.9646216332	-2.2233726871	-0.3903381934	-0.205512
C	-1.731331397	-3.0755725125	-0.0027870804	-0.175626
N	-0.660000155	-2.0996353726	-0.0666778239	 0.0057
C	 0.7005297636	-2.134293967	-0.0351618861	-0.140001
C	 1.1427337613	-0.8243081518	 0.0155753488	-0.210105
H	 0.8205141171	 1.8421733742	-0.312920012	 0.235857
H	-0.816872848	 1.8630692972	-0.2387574152	 0.232425
H	-2.9817122133	-0.5435253973	 1.0340402072	 0.111179
H	-3.0581190486	-0.0335668161	-0.6487466749	 0.103739
H	-3.8803071514	-2.5878182926	 0.0804880529	 0.104295
H	-3.1061061687	-2.2674184602	-1.4741801827	 0.115192
H	-1.8265637941	-3.4872066145	 1.0114472744	 0.112682
H	-1.5588839746	-3.9095630208	-0.6899221618	 0.114924
H	 1.2483658228	-3.0623302702	-0.0683739486	 0.108345
H	 2.1749365626	-0.5053189416	 0.027906139	 0.080018
120.8278	146.3544	175.1669	221.3858	255.2544	320.0314	501.9424	572.8213	601.6013	616.4419	657.0023	688.7569	724.205	761.4634	780.2642	811.2599	869.6265	898.1663	919.0786	1001.7007	1035.9592	1061.8904	1089.4522	1101.319	1178.1271	1218.0348	1223.0866	1239.1714	1264.5599	1310.2927	1324.8102	1338.5959	1383.5072	1443.0226	1476.2532	1490.3054	1502.9534	1511.9321	1532.6809	1641.6139	1659.298	2999.6178	3006.3242	3047.685	3062.5304	3076.3116	3114.145	3231.9725	3263.5375	3519.4028	3606.4157
NC1=C2CCCN2C=C1	Nc1c2CCCn2cc1	
InChI=1S/C7H10N2/c8-6-3-5-9-4-1-2-7(6)9/h3,5H,1-2,4,8H2	InChI=1S/C7H10N2/c8-6-3-5-9-4-1-2-7(6)9/h3,5H,1-2,4,8H2
