17
gdb 86774	2.65898	1.11749	1.03906	2.678	75.94	-0.2365	0.0161	0.2527	1233.1022	0.13433	-417.950914	-417.94151	-417.940566	-417.986161	33.574	
O	 0.5831136431	 1.0545416808	 0.5384287097	-0.434952
C	 0.0379445714	-0.1705357821	 0.1304374401	 0.063972
C	-1.4938681638	-0.173015534	-0.1668195287	-0.200347
N	-1.1575251313	-0.711913902	-1.4997022492	-0.08055
C	-1.9581083205	-0.690258809	-2.7071087201	-0.336204
C	-2.3643390542	 0.6546220814	-3.1263330155	 0.310251
C	-2.6951981651	 1.7679682517	-3.4339882235	-0.448511
C	 0.2037628384	-0.4878576553	-1.3547604436	 0.345276
N	 1.2340943566	-0.4290758649	-2.0865613997	-0.571802
H	 1.334445739	 1.2253100143	-0.042989829	 0.301448
H	 0.343096544	-0.9895484523	 0.7941669983	 0.095795
H	-2.1277777537	-0.8293152342	 0.4361756233	 0.108981
H	-1.9017109228	 0.8424674135	-0.1950078313	 0.128827
H	-1.374463306	-1.1716255899	-3.5009654559	 0.147102
H	-2.8474992804	-1.3148489849	-2.5575664524	 0.147206
H	-2.9836411171	 2.7502299067	-3.7173393176	 0.207506
H	 1.0302451623	-0.5652304298	-3.0774422251	 0.216
39.493	59.7835	113.5847	187.7152	238.0811	253.129	272.1674	325.1813	409.0349	475.8199	526.0147	632.2662	664.3582	679.6597	737.0142	809.6693	824.9412	861.0306	928.3046	944.0585	964.9652	1050.1081	1116.7588	1141.3686	1167.6338	1194.0073	1230.8186	1265.0502	1310.1641	1362.4263	1366.8929	1387.0371	1401.6358	1462.6038	1513.3765	1789.2747	2236.4878	3025.265	3027.5035	3045.2103	3062.8745	3104.2986	3470.0329	3502.8494	3783.9594
OC1CN(CC#C)C1=N	O[C@H]1CN(CC#C)[C]1[NH]	
InChI=1S/C6H8N2O/c1-2-3-8-4-5(9)6(8)7/h1,5,7,9H,3-4H2	InChI=1S/C6H8N2O/c1-2-3-8-4-5(9)6(8)7/h1,5,7,9H,3-4H2/t5-/m0/s1
