23
gdb 89150	2.26802	1.42536	1.18331	1.2317	85.53	-0.2465	0.0757	0.3221	1208.8423	0.204935	-388.273204	-388.263699	-388.262755	-388.306875	37.131	
C	 0.1858097478	 1.6329082961	-0.0630766833	-0.414697
C	 0.1177247647	 0.1148299509	 0.0121438992	 0.055012
C	 1.037083678	-0.7469821616	-0.9057712981	-0.310205
C	 1.3035413137	-1.7301343013	 0.2791364426	 0.369709
C	 0.7896212703	-3.1440590012	 0.1201237854	-0.506047
C	 2.6699031472	-1.5106385735	 0.9562557299	 0.080596
O	 3.748869261	-1.349922162	 0.0606126374	-0.434116
C	 2.1080020864	-0.2638973743	 1.7025399556	-0.292999
C	 0.66996608	-0.6487651869	 1.2424245301	-0.084544
H	 1.2086271712	 2.002772517	 0.0635076777	 0.114256
H	-0.1703487406	 1.9900806043	-1.0360395601	 0.113145
H	-0.4362734499	 2.0992344287	 0.7095950574	 0.109883
H	-0.9225831154	-0.1992007359	-0.1354836217	 0.067661
H	 0.5544963242	-1.1919450894	-1.7797742085	 0.09143
H	 1.9435065421	-0.2353675842	-1.2379547661	 0.113029
H	 1.3757725988	-3.6889993793	-0.6300086362	 0.122721
H	 0.8503696096	-3.7021391917	 1.0616819796	 0.107451
H	-0.2562428354	-3.1552565579	-0.2074090763	 0.111499
H	 2.8718641061	-2.3286601987	 1.6650724989	 0.057632
H	 4.5470561452	-1.1882783306	 0.573162088	 0.282202
H	 2.2706441263	-0.2490127762	 2.7828385953	 0.093471
H	 2.4764117766	 0.6768065383	 1.2848673102	 0.099886
H	-0.0268559379	-0.9046308809	 2.043157403	 0.053026
77.6001	179.4941	203.6593	214.8901	230.2949	251.9868	260.291	293.2924	372.5287	396.1714	488.0945	529.2472	563.2417	624.7027	749.8546	775.3778	832.5683	874.66	880.0762	915.5733	957.3094	958.4765	996.0273	1022.0928	1069.9105	1096.7733	1118.1533	1124.3836	1152.7066	1160.3758	1176.4596	1197.0138	1243.1817	1248.2161	1265.8725	1283.3497	1297.6493	1321.8783	1348.0863	1372.6922	1407.6521	1409.4603	1429.9648	1477.0773	1488.7377	1492.2689	1492.735	1496.9567	1500.579	2973.1972	3016.0834	3023.1115	3026.4319	3058.8679	3060.5011	3080.8561	3081.9696	3084.6564	3087.5543	3095.868	3112.1822	3116.0904	3818.9336
CC1CC2(C)C(O)CC12	C[C@H]1C[C@@]2(C)[C@@H](O)C[C@@H]12	
InChI=1S/C8H14O/c1-5-4-8(2)6(5)3-7(8)9/h5-7,9H,3-4H2,1-2H3	InChI=1S/C8H14O/c1-5-4-8(2)6(5)3-7(8)9/h5-7,9H,3-4H2,1-2H3/t5-,6-,7-,8+/m0/s1
