17
gdb 24214	4.0819	1.55267	1.35563	1.5604	78.17	-0.2157	0.0336	0.2492	954.9192	0.140334	-384.679117	-384.673138	-384.672194	-384.709236	25.632	
C	-0.0445616711	 1.5780838525	-0.0470089306	-0.21572
C	 1.51778311	 1.3884526573	 0.0067655472	-0.181393
C	 1.1969696687	 0.1771708364	 0.9605280822	-0.215719
C	-0.0502571098	 0.0045724031	 0.014799183	-0.181393
C	 0.6514801964	-0.3076556428	-1.2839096651	 0.298838
C	 0.7608944963	-1.0263827431	-2.4178650769	-0.224388
O	 1.8462905232	-0.5823468463	-3.1384929983	-0.167807
C	 2.4257091021	 0.4433143575	-2.426560482	-0.224388
C	 1.7328285902	 0.6468320365	-1.2895061141	 0.298837
H	-0.4398791956	 2.0313279815	 0.8662606697	 0.098262
H	-0.4688501822	 2.0536861346	-0.9339113155	 0.10407
H	 2.1890107478	 2.1933874905	 0.2988411999	 0.072141
H	 1.9192103671	-0.640929236	 1.0040632593	 0.104069
H	 0.9146038132	 0.5029280029	 1.9654750097	 0.09826
H	-0.9306652749	-0.5599072744	 0.3148310286	 0.072141
H	 0.2126402847	-1.8366306053	-2.8685642472	 0.132096
H	 3.2950337538	 0.8844892053	-2.8846582799	 0.132096
172.1457	296.5277	429.8436	474.5068	543.8591	584.6944	668.9354	677.7989	730.8414	747.4166	765.5478	813.408	833.8748	868.0574	887.9783	930.1501	1000.5491	1003.6557	1008.4479	1032.4395	1067.6589	1070.4568	1094.9732	1111.163	1146.7373	1222.9864	1223.5471	1225.1966	1253.9474	1256.4392	1261.5327	1290.7627	1390.6948	1480.6157	1513.1414	1631.0275	1692.0318	3053.7847	3061.1323	3123.1729	3126.9325	3139.612	3140.9359	3272.8474	3277.4564
C1C2CC1C1=COC=C21	C1[C@H]2C[C@@H]1c1cocc21	
InChI=1S/C8H8O/c1-5-2-6(1)8-4-9-3-7(5)8/h3-6H,1-2H2	InChI=1S/C8H8O/c1-5-2-6(1)8-4-9-3-7(5)8/h3-6H,1-2H2/t5-,6+
