14
gdb 29074	2.68053	1.7432	1.05628	3.8742	79.19	-0.2344	-0.0738	0.1606	1045.8263	0.103071	-436.73262	-436.725505	-436.724561	-436.764932	26.907	
O	-0.04256198	 1.3130259012	 0.0080132344	-0.334237
C	 0.0165858687	-0.0195372329	 0.0024166496	 0.32277
N	 1.1983298509	-0.5460476102	-0.0068622355	-0.364683
C	 1.5498889937	-1.8559928419	-0.0147983487	 0.000217
C	 0.7824386337	-2.984208725	-0.0172925918	-0.098937
C	-0.6364546896	-3.0569561325	-0.0108965242	-0.07509
C	-1.5536759357	-2.0516345781	 0.0003674528	-0.16579
C	-1.3774943386	-0.6094592593	 0.0093048842	 0.289526
O	-2.3318567797	 0.1510423793	 0.0206256275	-0.336606
H	 0.8791387629	 1.6159473665	 0.0033157484	 0.303468
H	 2.6293145196	-1.9962780111	-0.0204857442	 0.117438
H	 1.3183486374	-3.9282387724	-0.0250931576	 0.105864
H	-1.0445169362	-4.0653663384	-0.0153219004	 0.114945
H	-2.6058195869	-2.3220689152	 0.0040644654	 0.121114
38.6946	177.6796	336.9973	352.3004	379.237	408.2883	445.0161	530.6721	600.426	670.1708	689.9218	733.6254	759.3495	830.16	891.1666	906.1176	973.6433	994.2851	1039.945	1067.9508	1209.4777	1232.2909	1289.9072	1364.3619	1423.0074	1438.1729	1500.0398	1545.8868	1641.5343	1658.5959	1724.8758	3142.3411	3150.8208	3179.0121	3185.5201	3731.3915
OC1=NC=CC=CC1=O	Oc1nccccc1=O	
InChI=1S/C6H5NO2/c8-5-3-1-2-4-7-6(5)9/h1-4H,(H,7,8,9)	InChI=1S/C6H5NO2/c8-5-3-1-2-4-7-6(5)9/h1-4H,(H,7,8,9)
