16
gdb 103536	2.5527	1.47828	1.19822	4.2212	66.55	-0.2292	-0.0274	0.2018	1054.4269	0.123793	-475.050319	-475.041655	-475.040711	-475.083525	32.387	
O	 0.1197516773	 1.4094257459	 0.0046927883	-0.429613
C	 0.0583536315	 0.0015128396	-0.0082570116	-0.072648
C	-1.4023367819	-0.4804984211	-0.0264584175	 0.209186
O	-1.975091978	 0.0945945068	 1.1481384728	-0.467077
C	-2.1454578217	-0.1628285392	-1.3000999568	-0.221056
C	-2.5040964111	-1.3098164541	-1.8859762751	-0.030209
N	-2.0867167179	-2.427730039	-1.1445285171	-0.340086
C	-1.4490861354	-2.0391132851	 0.0194427189	 0.374426
O	-1.0176013764	-2.7627170607	 0.883004929	-0.359006
H	-0.4422908123	 1.6856234365	 0.7391450752	 0.291253
H	 0.5805431553	-0.3432785893	-0.9049969704	 0.115441
H	 0.5420501172	-0.4468856684	 0.8724494853	 0.116614
H	-2.9332487699	 0.0334247303	 1.0755739552	 0.287659
H	-2.2967326901	 0.8352179107	-1.6800281875	 0.122697
H	-3.026626742	-1.4658831901	-2.819537184	 0.137389
H	-2.3170180645	-3.3862392128	-1.3486358149	 0.265029
84.708	134.7322	158.1069	249.6932	268.2016	296.3079	332.5934	377.2689	447.4023	467.8308	572.8587	597.3438	652.8874	716.1485	751.8162	770.1531	811.6301	918.76	942.3396	1006.914	1067.5165	1076.6776	1086.5755	1131.5393	1155.6735	1222.6417	1237.9062	1342.708	1371.3805	1379.2164	1410.7352	1434.6573	1497.1251	1663.4114	1845.3956	3000.6991	3096.614	3232.4704	3265.9346	3657.8036	3786.9249	3817.5685
OCC1(O)C=CNC1=O	OC[C@@]1(O)C=CNC1=O	
InChI=1S/C5H7NO3/c7-3-5(9)1-2-6-4(5)8/h1-2,7,9H,3H2,(H,6,8)	InChI=1S/C5H7NO3/c7-3-5(9)1-2-6-4(5)8/h1-2,7,9H,3H2,(H,6,8)/t5-/m0/s1
