15
gdb 13586	3.70439	1.37954	1.23236	2.2101	64.17	-0.247	-0.0966	0.1505	1011.7103	0.117028	-399.788979	-399.780802	-399.779858	-399.82215	28.615	
C	 0.4226536166	 1.7514825454	-0.2600145281	-0.406751
C	 0.0239233234	 0.3271494649	 0.0306128313	 0.013086
N	 1.0667876572	-0.6840574346	-0.0045902015	-0.312976
C	 0.417087635	-0.4079431037	 1.2946019669	-0.164778
C	 1.2477493434	 0.2307593176	 2.3469139206	 0.317768
O	 2.2233370735	 0.9262547277	 2.1676205303	-0.289714
C	 0.7997694513	-0.0026655668	 3.7977749457	 0.089896
O	-0.146902982	-0.6748743612	 4.1136614474	-0.221925
H	 1.4020325554	 1.9728996409	 0.165524412	 0.164083
H	 0.4714080609	 1.9062979832	-1.3430665911	 0.125529
H	-0.3141446885	 2.4510334452	 0.148202013	 0.118371
H	-0.9602636136	 0.0406981253	-0.3406586184	 0.098715
H	 0.7136074998	-1.5653047735	-0.3690125757	 0.242632
H	-0.3062891912	-1.1189862596	 1.6808554714	 0.11571
H	 1.4543718788	 0.5175472792	 4.5284736563	 0.110353
53.5328	132.9635	172.7702	180.8779	221.007	268.7671	365.0847	429.5507	522.8903	616.4247	642.9952	751.6627	815.9641	849.8542	944.6106	998.4922	1011.0066	1039.0165	1080.0905	1146.5947	1166.6055	1198.4211	1236.0848	1257.4298	1363.0976	1399.2554	1433.044	1463.6181	1494.5597	1499.979	1791.7421	1821.4143	2927.0311	3041.1088	3101.4282	3104.2828	3153.7146	3169.1062	3503.1698
CC1NC1C(=O)C=O	C[C@H]1N[C@H]1C(=O)C=O	
InChI=1S/C5H7NO2/c1-3-5(6-3)4(8)2-7/h2-3,5-6H,1H3	InChI=1S/C5H7NO2/c1-3-5(6-3)4(8)2-7/h2-3,5-6H,1H3/t3-,5-/m1/s1
