18
gdb 12920	3.00877	1.73382	1.43393	2.0534	67.7	-0.2353	0.0693	0.3046	951.0056	0.152982	-384.893323	-384.885087	-384.884142	-384.926243	30.46	
C	 0.2317846823	 1.4096580298	-0.1477077408	-0.484274
C	 0.1950812424	-0.0739598917	 0.0226292726	 0.439015
O	-1.0293778875	-0.7469272491	-0.3311248623	-0.322891
C	-0.9142310826	-1.5997127742	 0.8394325811	-0.099949
C	 0.451701222	-1.0200119521	 1.1826405189	-0.210651
C	 1.351404399	-1.0318751551	-0.0467253189	-0.093071
C	 1.4486070427	-2.1638978331	-1.0437473069	-0.095001
O	 1.9102502742	-1.7159797976	-2.3121121269	-0.420624
H	 1.1789729547	 1.8138100868	 0.2205234196	 0.127546
H	 0.1404070129	 1.6791473944	-1.2063535897	 0.128954
H	-0.5900930572	 1.888338755	 0.3938331842	 0.128832
H	-1.684922005	-1.3423712467	 1.5749870713	 0.109818
H	-0.9876502626	-2.6647784464	 0.5920726207	 0.106501
H	 0.8233128544	-0.8274480154	 2.1804952075	 0.098338
H	 2.3033919385	-0.540799277	 0.1468938431	 0.093598
H	 2.1839613272	-2.900805105	-0.7038214888	 0.108218
H	 0.4835829819	-2.6774245854	-1.1364267772	 0.100175
H	 1.2342541626	-1.128571617	-2.6655759973	 0.285466
48.6412	138.8366	198.9185	232.216	255.8496	314.8617	322.3296	397.3337	489.9623	558.319	660.6869	761.5324	801.6864	877.892	915.9466	949.3135	971.7478	993.5911	1013.5595	1034.4365	1058.265	1099.788	1122.1941	1140.3403	1162.6224	1197.1292	1217.8924	1276.8955	1312.5784	1340.5367	1393.7785	1412.2501	1417.7281	1474.0127	1481.6137	1494.7065	1501.266	1521.4103	3023.5465	3028.9509	3031.9416	3070.6866	3075.6365	3094.1789	3117.6113	3135.2079	3196.7049	3814.3265
CC12OCC1C2CO	C[C@]12OC[C@H]1[C@H]2CO	
InChI=1S/C6H10O2/c1-6-4(2-7)5(6)3-8-6/h4-5,7H,2-3H2,1H3	InChI=1S/C6H10O2/c1-6-4(2-7)5(6)3-8-6/h4-5,7H,2-3H2,1H3/t4-,5+,6-/m1/s1
