17
gdb 114420	3.28651	1.13637	1.13141	2.9423	69.42	-0.2485	0.0087	0.2572	1148.1594	0.137259	-455.097074	-455.089199	-455.088255	-455.129965	29.915	
O	 0.1280535901	 1.0601677422	-0.6164355669	-0.422883
C	 0.056826477	-0.2308705999	-0.0396478875	-0.068844
C	-1.4011959977	-0.629347787	 0.1588896518	-0.008788
N	-2.195803437	-0.5248123102	-1.1109779829	-0.34673
C	-2.7252131711	-1.9090768752	-0.92917783	-0.148768
C	-1.7844455613	-2.1226184826	 0.2785807284	 0.066538
O	-0.9601926495	-3.0206918951	-0.5259540395	-0.271713
C	-1.8307247102	-2.9295688596	-1.6099748163	 0.476936
N	-1.8227854988	-3.5171258948	-2.7132295079	-0.544308
H	-0.3488562948	 0.992379696	-1.4536896637	 0.288296
H	 0.5599097812	-0.9823962366	-0.6622983129	 0.106242
H	 0.5774185215	-0.1827459488	 0.9225188721	 0.108793
H	-1.8464107382	-0.0494525371	 0.9764926196	 0.08522
H	-2.9281563873	 0.1730465874	-1.062474537	 0.235464
H	-3.8043823004	-2.0484511438	-0.955127507	 0.108282
H	-2.0285718387	-2.561419717	 1.2439971092	 0.10327
H	-1.0189179048	-4.1411016379	-2.8042607495	 0.232994
70.6234	114.0195	182.1148	217.4948	315.3747	402.8321	457.1772	486.9205	539.1572	634.468	706.9064	780.0523	804.6798	824.9236	867.5647	875.5055	917.5738	948.5935	996.2602	1024.4161	1038.296	1051.4717	1083.7067	1120.0541	1168.9816	1183.3504	1199.8602	1244.5166	1252.406	1294.3957	1332.9432	1355.5063	1383.0294	1397.1891	1432.4074	1506.2149	1833.4329	3019.1567	3033.0383	3082.5441	3131.334	3141.3048	3474.8238	3553.0509	3770.2389
OCC1NC2C1OC2=N	OC[C@H]1N[C@@H]2[C@H]1O[C]2[NH]	
InChI=1S/C5H8N2O2/c6-5-3-4(9-5)2(1-8)7-3/h2-4,6-8H,1H2	InChI=1S/C5H8N2O2/c6-5-3-4(9-5)2(1-8)7-3/h2-4,6-8H,1H2/t2-,3-,4+/m1/s1
