22
gdb 116805	5.64902	0.48311	0.46476	2.4778	85.31	-0.2427	0.0248	0.2675	2393.7701	0.190781	-441.479033	-441.467591	-441.466647	-441.517398	39.242	
C	-0.1347029663	 1.3502759614	 0.0052026163	-0.24837
O	-0.0440987756	-0.0674700084	 0.0516279758	-0.192896
C	 0.5618788049	-0.6459061038	-1.0056347208	 0.125226
N	 0.7028684587	-1.8937116723	-1.0625457535	-0.210261
C	 1.3669250725	-2.4445289778	-2.2283580699	-0.157888
C	 2.606283665	-3.2481560524	-1.8186469336	-0.181395
C	 3.2522861229	-3.995154681	-2.9912478762	 0.137529
C	 4.5205616844	-4.7409182502	-2.5746743948	-0.400032
O	 2.3236953467	-4.8741450339	-3.627034163	-0.428906
H	 0.8577759523	 1.817503741	-0.0133367207	 0.125361
H	-0.7087375268	 1.6896966519	-0.8658963153	 0.126426
H	-0.6543836145	 1.6553054916	 0.9142705975	 0.14568
H	 0.9002170461	 0.0616374464	-1.7803044418	 0.069721
H	 0.6747596118	-3.122293389	-2.7400630382	 0.118371
H	 1.6549778766	-1.6672634933	-2.9595299555	 0.074415
H	 3.3444811309	-2.5783282807	-1.3601062818	 0.092568
H	 2.3180804531	-3.9678284467	-1.0401348711	 0.098762
H	 3.5093656412	-3.2713466849	-3.7758991913	 0.085081
H	 5.2794113227	-4.0515370452	-2.1904393791	 0.114572
H	 4.3004468769	-5.4678291705	-1.7826865688	 0.1071
H	 4.9399074702	-5.2813347389	-3.4276414127	 0.122396
H	 2.0745232166	-5.5462051833	-2.9821579413	 0.276539
37.819	49.5657	59.8342	116.8768	139.3088	159.8098	222.9875	244.829	265.5951	300.5533	310.1891	409.3874	446.5837	466.6613	502.8434	614.4008	789.633	856.0804	936.7847	972.7418	985.2184	1021.373	1054.8847	1066.6335	1096.1227	1115.5749	1163.0571	1177.4744	1179.3098	1206.8677	1275.7447	1285.5461	1300.8131	1339.0031	1367.1107	1391.8068	1403.7266	1415.7247	1421.7557	1478.0451	1485.469	1492.919	1494.887	1495.4885	1501.298	1506.6912	1776.7594	2935.1024	2980.6635	3013.1172	3015.9885	3022.313	3029.9522	3052.3688	3070.5359	3073.5431	3094.4779	3117.8831	3143.5461	3792.0039
COC=NCCC(C)O	COC=NCC[C@@H](C)O	
InChI=1S/C6H13NO2/c1-6(8)3-4-7-5-9-2/h5-6,8H,3-4H2,1-2H3	InChI=1S/C6H13NO2/c1-6(8)3-4-7-5-9-2/h5-6,8H,3-4H2,1-2H3/t6-/m1/s1
