16
gdb 80230	2.17226	1.86553	1.32113	3.6698	69.72	-0.2389	-0.0277	0.2112	994.4515	0.124862	-437.909674	-437.902058	-437.901113	-437.941645	29.386	
C	-0.1846251313	 1.619526932	-0.0134100028	-0.43375
C	 0.007464279	 0.1109109722	 0.007627727	 0.025925
C	 1.1887767376	-0.5485995575	-0.7759955999	-0.159609
N	 2.3417779236	 0.1239935122	-0.1470850448	-0.304302
C	 2.0956988519	 0.0344720944	 1.2275538663	 0.408168
O	 2.8404646799	 0.3182305959	 2.1296015989	-0.365732
C	 0.6895100687	-0.5837862759	 1.250479563	-0.290904
C	 0.9715071267	-1.7313913646	 0.2151624754	 0.434369
O	 0.9223572968	-2.9173872284	 0.1963376287	-0.297871
H	 0.7505613543	 2.1514863099	 0.1714130093	 0.14702
H	-0.5738349598	 1.9383212279	-0.985598596	 0.125284
H	-0.9086149122	 1.9203092377	 0.7498019282	 0.131291
H	-0.9279914701	-0.4034824039	-0.2349111723	 0.104678
H	 1.2330787616	-0.6268816491	-1.8592756754	 0.103677
H	 3.2840702013	 0.0009155756	-0.4891161779	 0.261702
H	 0.2186866219	-0.7280999183	 2.2174262621	 0.110052
130.3664	159.2761	195.2779	252.6255	302.1531	427.9303	438.9749	503.5024	540.9975	627.5441	674.4393	696.7197	722.8927	807.1105	818.4862	862.3769	966.0441	998.4283	1011.96	1045.5142	1068.9076	1090.6792	1106.668	1160.7733	1186.5437	1197.7673	1249.3657	1307.4422	1354.2556	1399.5095	1411.9364	1492.5313	1498.6237	1858.6082	1925.3666	3045.2427	3061.5956	3107.9659	3137.5442	3160.6986	3186.8408	3616.4998
CC1C2NC(=O)C1C2=O	C[C@H]1[C@H]2NC(=O)[C@@H]1C2=O	
InChI=1S/C6H7NO2/c1-2-3-5(8)4(2)7-6(3)9/h2-4H,1H3,(H,7,9)	InChI=1S/C6H7NO2/c1-2-3-5(8)4(2)7-6(3)9/h2-4H,1H3,(H,7,9)/t2-,3+,4-/m1/s1
