14
gdb 125146	3.31859	1.30444	0.94287	5.5547	73.02	-0.2531	-0.0577	0.1954	1155.8546	0.101239	-432.880717	-432.872391	-432.871447	-432.913686	30.043	
C	-0.0410303388	 1.5448387514	 0.0608076073	-0.529356
C	-0.005567215	 0.0547593958	 0.0176161525	 0.005641
C	 0.0025223662	-0.7864392834	-1.055357811	 0.296168
O	 0.0171503957	-2.0790246424	-0.6676253632	-0.224489
N	 0.032292238	-2.1168318064	 0.7221703462	-0.207521
C	 0.008338914	-0.8613446205	 1.1195255761	 0.364745
N	-0.0707159175	-0.5254969824	 2.4555039808	-0.592823
C	-0.0104313381	-0.5065155759	-2.4429814512	 0.242165
N	-0.0206600324	-0.2398508761	-3.5695400259	-0.334327
H	 0.8658896632	 1.9556077327	 0.52098164	 0.13971
H	-0.12090017	 1.9642005815	-0.9445215311	 0.158373
H	-0.8947651316	 1.8987301995	 0.6491017528	 0.151879
H	 0.1237077079	-1.2993985559	 3.0766300713	 0.268881
H	 0.4378019684	 0.3076711421	 2.7141432055	 0.260954
118.0821	129.0768	137.8736	233.9716	243.3898	297.0023	362.0917	415.9013	493.2045	517.6489	598.6524	627.8188	678.5274	688.1775	754.302	779.4225	954.9002	985.1556	1064.558	1134.7126	1139.841	1216.3652	1309.629	1421.8552	1471.4379	1481.0319	1500.7292	1554.5074	1642.9127	1676.0781	2349.6312	3028.8932	3081.9674	3128.6147	3559.902	3660.734
CC1=C(ON=C1N)C#N	Cc1c(onc1N)C#N	
InChI=1S/C5H5N3O/c1-3-4(2-6)9-8-5(3)7/h1H3,(H2,7,8)	InChI=1S/C5H5N3O/c1-3-4(2-6)9-8-5(3)7/h1H3,(H2,7,8)
