14
gdb 11646	3.33539	1.87646	1.49231	4.0282	63.67	-0.2527	-0.0083	0.2444	848.6126	0.107645	-378.650358	-378.64342	-378.642476	-378.681372	26.531	
N	 0.3102031062	 1.4901358815	-0.041414983	-0.529573
C	 0.0528960603	 0.0915998708	 0.0120316403	 0.026624
C	-0.1469073466	-0.6482529625	 1.3612640051	 0.021061
C	-1.5858729291	-0.0907542987	 1.4963363616	-0.272067
C	-1.3862147185	-0.6121132629	 0.0507212337	 0.291487
O	-0.7042941996	-1.7948101	 0.6010215635	-0.313693
C	-2.3529979117	-0.7765326529	-1.0019956008	 0.159692
N	-3.11483086	-0.8435862566	-1.8695736267	-0.341849
H	 0.3266617701	 1.8321426967	-0.9949600382	 0.24985
H	-0.3472742077	 2.0496638123	 0.4882351721	 0.240221
H	 0.7182004289	-0.4524451317	-0.6602051645	 0.116016
H	 0.5800764359	-0.8718284961	 2.1395072545	 0.114399
H	-2.2603087806	-0.6955048751	 2.1022041434	 0.132406
H	-1.7339479776	 0.9803785951	 1.6496619589	 0.105426
125.876	175.1002	258.3026	317.0875	340.0831	507.3256	521.3116	552.3908	585.7134	617.9674	735.3854	777.0855	829.9215	860.302	923.666	948.1957	976.5193	1025.6373	1082.7735	1124.3699	1190.7637	1207.7821	1218.051	1241.3412	1253.7893	1281.0559	1426.6758	1496.892	1662.2842	2348.8032	3076.6078	3115.9895	3147.9485	3158.8419	3527.3027	3611.3405
NC1C2CC1(O2)C#N	N[C@H]1[C@H]2C[C@@]1(O2)C#N	
InChI=1S/C5H6N2O/c6-2-5-1-3(8-5)4(5)7/h3-4H,1,7H2	InChI=1S/C5H6N2O/c6-2-5-1-3(8-5)4(5)7/h3-4H,1,7H2/t3-,4+,5-/m1/s1
