15
gdb 65419	4.00008	0.85781	0.77922	4.5575	71.48	-0.3159	-0.0152	0.3006	1412.3746	0.110565	-416.811698	-416.802573	-416.801629	-416.846383	31.762	
C	 0.0568515038	 1.5227519028	-0.1878966128	-0.469477
C	-0.0377906954	 0.0387207704	 0.0942105083	 0.216206
O	 1.176146562	-0.7242800315	 0.0478297546	-0.251029
C	 0.5082342849	-0.6317808991	 1.2992006545	 0.028096
C	 1.2047523606	 0.1216712711	 2.4207373536	-0.381888
C	 2.1560187213	-0.7329947559	 3.1318347101	 0.269005
N	 2.8983795005	-1.4159560997	 3.6939712219	-0.286352
C	-1.1746520996	-0.612526269	-0.5450136218	 0.261999
N	-2.0936806399	-1.0987738368	-1.0488566578	-0.318197
H	 0.9419764143	 1.9560269212	 0.2788962257	 0.141015
H	 0.1252927129	 1.6884241589	-1.2663875937	 0.161562
H	-0.83475968	 2.038926322	 0.179570992	 0.15182
H	 0.0238589742	-1.5552130037	 1.6159106616	 0.139484
H	 1.7375482103	 0.9925545116	 2.031935001	 0.167044
H	 0.4554603602	 0.4813378077	 3.1360800729	 0.170712
46.1709	98.8537	144.1284	163.8067	196.5374	240.1716	330.9612	379.4861	396.8841	434.1795	498.9029	582.3021	619.3569	690.8685	823.6561	889.4904	916.2951	953.4149	1015.7547	1083.3574	1107.5167	1126.2938	1230.5406	1244.0029	1320.6532	1341.2121	1418.3252	1445.6109	1457.8591	1483.1667	1500.1343	2361.0634	2370.128	3051.0489	3056.5965	3110.2067	3125.4436	3126.5385	3151.3787
CC1(OC1CC#N)C#N	C[C@]1(O[C@H]1CC#N)C#N	
InChI=1S/C6H6N2O/c1-6(4-8)5(9-6)2-3-7/h5H,2H2,1H3	InChI=1S/C6H6N2O/c1-6(4-8)5(9-6)2-3-7/h5H,2H2,1H3/t5-,6-/m0/s1
