16
gdb 98497	2.80626	1.23909	0.97053	2.4104	72.93	-0.2507	0.0029	0.2536	1227.5297	0.121619	-437.854003	-437.844535	-437.84359	-437.888753	33.568	
C	-0.3603318156	 1.4603756313	 0.5097266542	-0.336122
N	-0.2821739836	 0.0190310617	 0.6351951124	-0.314806
C	 0.8948678693	-0.6519873879	 0.5886621322	 0.317283
O	 1.9938788032	-0.1496060275	 0.4621052457	-0.366698
C	 0.7324757928	-2.1646105302	 0.7524572618	 0.108097
C	 0.1956448579	-2.6649518976	 2.0411163831	-0.187669
O	-0.6254870739	-2.6407908317	 0.8779786486	-0.275924
C	 1.63036928	-2.9812199254	-0.0194550262	 0.277442
C	 2.3686881154	-3.6661103435	-0.6731218329	-0.387277
H	 0.6606058027	 1.8427325799	 0.472904003	 0.171196
H	-0.8829725661	 1.7534202655	-0.4075771822	 0.131524
H	-0.8805195635	 1.9031765714	 1.3657582069	 0.127813
H	-1.120970232	-0.5403642436	 0.6629870065	 0.264514
H	 0.4943528865	-3.6537828309	 2.3811393429	 0.138126
H	-0.0620857912	-1.9447427199	 2.8155105465	 0.129446
H	 3.0278256381	-4.2643954915	-1.2526235325	 0.203055
61.1403	93.8059	118.1263	147.8711	200.9091	241.3796	279.9464	329.7046	419.1833	462.8963	539.4895	579.2544	610.7324	631.4493	675.0592	759.1711	791.2069	871.2213	888.7191	953.3183	1038.304	1133.6853	1153.9484	1162.3374	1178.6246	1200.0722	1285.732	1335.4848	1443.1888	1493.0292	1500.3611	1511.5076	1566.7889	1794.9793	2249.6702	3030.8112	3084.3711	3094.9354	3151.915	3194.5271	3502.0568	3623.7639
CNC(=O)C1(CO1)C#C	CNC(=O)[C@]1(CO1)C#C	
InChI=1S/C6H7NO2/c1-3-6(4-9-6)5(8)7-2/h1H,4H2,2H3,(H,7,8)	InChI=1S/C6H7NO2/c1-3-6(4-9-6)5(8)7-2/h1H,4H2,2H3,(H,7,8)/t6-/m1/s1
