21
gdb 91460	2.3732	1.94858	1.41376	1.4199	81.91	-0.2345	0.0114	0.2459	1015.4523	0.183597	-387.099057	-387.091087	-387.090143	-387.130731	32.939	
C	-0.07488376	 1.5470164888	-0.0581462274	-0.413635
C	 0.0413892691	 0.0290659275	 0.0231074571	 0.136632
O	 0.8111359418	-0.4548417065	-1.0908223101	-0.29575
C	 1.8720218792	-1.2766918917	-0.5295700999	 0.056506
C	 2.2546020186	-0.4784168519	 0.7227139679	-0.258329
C	 0.8023007569	-0.54973744	 1.2774859121	 0.250364
C	 0.493690602	 0.0942044423	 2.6169403877	-0.500948
C	 0.5650866254	-2.0550604733	 1.1705114712	-0.116086
C	 1.2154557059	-2.5020624262	 0.0922112444	-0.093276
H	 0.8948621511	 2.0371196872	 0.068949701	 0.116073
H	-0.4671727247	 1.8297544608	-1.0392204709	 0.126833
H	-0.7620236654	 1.9274261852	 0.7044834912	 0.11162
H	-0.9658521431	-0.4084868483	-0.0255740495	 0.066053
H	 2.6168483146	-1.4346122156	-1.3078414305	 0.070796
H	 2.9708863582	-0.987754573	 1.3695881897	 0.098861
H	 2.6013437638	 0.5328775206	 0.4934423875	 0.095759
H	 0.7523254995	 1.1571085106	 2.6257434119	 0.119777
H	-0.571424424	 0.0086908664	 2.8622362225	 0.115852
H	 1.0568830703	-0.3928659802	 3.4197455292	 0.118926
H	-0.1105026289	-2.6036173366	 1.8165530391	 0.094283
H	 1.1864670398	-3.4918287762	-0.3445050043	 0.099689
170.6858	207.437	233.7686	261.7864	304.7204	334.3934	407.869	431.5656	516.1694	548.353	607.7726	677.8439	724.4881	777.7621	811.1393	852.5772	870.5482	900.6771	904.5664	940.8159	963.2922	969.2742	1004.9036	1057.4753	1067.5971	1094.5473	1110.8183	1127.8213	1191.1025	1206.3533	1227.7866	1266.0131	1276.9216	1297.3378	1343.7509	1360.2477	1382.9367	1405.958	1415.2359	1481.6504	1489.9701	1492.6384	1499.8291	1501.5907	1638.8821	2995.1788	3028.7079	3038.9517	3065.8719	3090.6777	3105.0834	3111.4408	3116.4413	3128.9705	3135.7051	3191.2618	3222.7149
CC1OC2CC1(C)C=C2	C[C@H]1O[C@H]2C[C@]1(C)C=C2	
InChI=1S/C8H12O/c1-6-8(2)4-3-7(5-8)9-6/h3-4,6-7H,5H2,1-2H3	InChI=1S/C8H12O/c1-6-8(2)4-3-7(5-8)9-6/h3-4,6-7H,5H2,1-2H3/t6-,7-,8+/m1/s1
