14
gdb 127656	3.58654	1.763	1.19107	3.8935	69.28	-0.2249	-0.0203	0.2046	956.8792	0.103951	-429.043875	-429.036884	-429.03594	-429.076053	25.343	
C	 0.0915708067	 1.4078802703	-0.0204309439	-0.337698
N	 0.0384201737	-0.0363150519	 0.0092145945	-0.127232
N	 0.0867855796	-0.7816756217	-1.137111336	-0.232495
C	 0.0973447177	-2.0333653877	-0.7682632115	 0.011747
N	 0.06701613	-2.1373319474	 0.6082380453	-0.06504
C	 0.0518725319	-2.9138541211	 1.7514850512	-0.021778
N	 0.0196402858	-2.1325546584	 2.8042854646	-0.207735
N	 0.0127905856	-0.8034007364	 2.4103467443	-0.36808
C	 0.0391385127	-0.8525891023	 1.0988459584	 0.545289
H	 1.1131579336	 1.7658027394	-0.1846100194	 0.150494
H	-0.5526002444	 1.7737817761	-0.8216608108	 0.158283
H	-0.2688878502	 1.778944028	 0.9404108338	 0.173802
H	 0.1205094938	-2.867508592	-1.4481853665	 0.168836
H	 0.0642575634	-3.9902681649	 1.754570826	 0.151607
50.3353	132.541	237.6823	256.8364	334.5562	533.9402	626.2119	636.5593	654.2318	720.5869	742.3783	761.1945	792.117	879.4105	981.153	1018.1696	1030.7084	1153.4504	1171.7246	1219.1225	1244.0055	1276.9964	1298.2965	1404.6553	1444.1913	1450.5131	1476.01	1489.4557	1504.5153	1548.0181	1647.667	3046.1662	3121.8416	3157.8769	3290.8883	3295.087
CN1N=CN2C=NN=C12	Cn1ncn2cnnc12	
InChI=1S/C4H5N5/c1-8-4-7-5-2-9(4)3-6-8/h2-3H,1H3	InChI=1S/C4H5N5/c1-8-4-7-5-2-9(4)3-6-8/h2-3H,1H3
