16
gdb 84415	2.67853	1.49776	1.15012	4.4193	72.81	-0.2316	-0.0309	0.2007	1081.0126	0.12408	-434.088869	-434.080219	-434.079275	-434.12303	30.148	
C	 0.1830232139	 1.3974662756	-0.0806189445	-0.358672
N	 0.0491641215	-0.0384745585	-0.0270238763	-0.086705
C	-0.2213568179	-0.8949266331	-1.0802335894	 0.063374
N	-0.3129994556	-2.1410036466	-0.8055097862	-0.279157
C	-0.0314238657	-2.2336161223	 0.6414155363	-0.16001
C	 1.2218593245	-3.1095537149	 0.7831308402	 0.167451
O	 2.2709048443	-2.7467864928	 1.2353102236	-0.22284
C	 0.1390084186	-0.8071941946	 1.1416781791	 0.389636
N	 0.3107173934	-0.4464775092	 2.3442409318	-0.544335
H	 1.1677777023	 1.7124322503	 0.2829184841	 0.151435
H	 0.0728148354	 1.7313393406	-1.1140413033	 0.146534
H	-0.5858402648	 1.889116456	 0.5271998819	 0.144936
H	-0.3503423784	-0.4823465009	-2.0765667865	 0.138083
H	-0.853938288	-2.7449755078	 1.1563409152	 0.134277
H	 1.0700745503	-4.131300128	 0.3760490636	 0.101242
H	 0.4123412062	 0.5651411261	 2.4362201802	 0.214751
54.0805	107.1362	116.8798	159.2567	181.5701	279.9249	291.3629	449.332	507.7143	575.6061	621.8781	714.7594	796.0199	811.8115	854.1178	929.0337	942.2666	978.7253	1027.5079	1054.9579	1086.8538	1154.356	1216.2731	1241.0382	1262.5937	1316.8507	1320.7661	1409.0408	1421.1342	1464.4167	1478.0676	1521.7992	1668.6267	1752.8593	1847.9049	2915.6815	3023.0974	3043.6206	3077.6015	3134.1252	3186.1416	3467.9945
CN1C=NC(C=O)C1=N	CN1C=N[C@@H](C=O)[C]1[NH]	
InChI=1S/C5H7N3O/c1-8-3-7-4(2-9)5(8)6/h2-4,6H,1H3	InChI=1S/C5H7N3O/c1-8-3-7-4(2-9)5(8)6/h2-4,6H,1H3/t4-/m0/s1
