15
gdb 18197	4.36705	1.76013	1.4441	3.1157	66.89	-0.2441	0.0389	0.283	863.6329	0.119336	-362.592978	-362.586089	-362.585144	-362.624055	26.392	
C	 0.0770012616	-1.2361230055	 0.0550025592	-0.438066
C	 0.0487258298	-0.0358904483	 0.078897102	 0.325554
C	 0.0211249718	 1.4218529122	 0.0414908873	-0.036824
O	-0.6111481855	 1.9278373299	 1.2218130467	-0.265773
C	-0.0639393472	 3.2016244818	 1.55297997	-0.073908
C	 1.3257174029	 3.2243150289	 0.9519518344	-0.058754
N	 2.0958223571	 2.0102670185	 1.2891238758	-0.318571
C	 1.3899429994	 2.0946901668	 0.0010192722	-0.07367
H	 0.1051507763	-2.2976626806	 0.0532149072	 0.196649
H	-0.5367194769	 1.7436347304	-0.8552017153	 0.096078
H	-0.6658394437	 4.0202987217	 1.1269136045	 0.092446
H	-0.0741654158	 3.2852403484	 2.6441287236	 0.119492
H	 1.8313758773	 4.1674898202	 0.7753840179	 0.097399
H	 3.0861909358	 2.184463223	 1.1357544667	 0.235507
H	 1.9379602971	 2.1276502426	-0.9336729723	 0.102439
103.6023	149.5788	243.0871	321.1639	393.6459	512.0839	517.5067	618.3976	665.3241	670.6157	766.2677	812.1366	861.4437	879.9399	901.096	975.1285	985.8047	1017.1396	1059.3355	1078.1402	1103.4616	1152.1247	1157.1191	1230.2702	1252.304	1305.8141	1345.3896	1364.3734	1385.7674	1432.7014	1506.3971	2245.6041	2949.0709	2979.7683	3078.6875	3170.5378	3183.3406	3503.6091	3504.7775
C#CC1OCC2NC12	C#C[C@H]1OC[C@H]2N[C@@H]12	
InChI=1S/C6H7NO/c1-2-5-6-4(7-6)3-8-5/h1,4-7H,3H2	InChI=1S/C6H7NO/c1-2-5-6-4(7-6)3-8-5/h1,4-7H,3H2/t4-,5-,6-/m1/s1
