17
gdb 73078	2.3688	1.90419	1.37533	1.9964	73.46	-0.2449	-0.0576	0.1872	972.0746	0.136382	-421.841558	-421.833825	-421.832881	-421.873741	29.429	
C	-0.2056083066	 1.5221264793	-0.0384739647	-0.479999
C	 0.0400477112	 0.0249692186	 0.0007083461	 0.134507
C	-1.1387180632	-0.8722213858	 0.4837315899	-0.110907
O	-0.3758892701	-1.37291995	 1.6008870402	-0.293904
C	 0.7972317825	-0.627856588	 1.1761512863	 0.043937
C	 1.8298558503	-1.5185074586	 0.5331440392	-0.073159
C	 1.798016429	-1.4445662097	-0.8036631496	-0.175064
C	 0.7408774593	-0.5030019712	-1.2564791586	 0.338346
O	 0.4674915729	-0.202924449	-2.3958224549	-0.340249
H	 0.7373931765	 2.075772708	-0.0966931604	 0.124785
H	-0.7923770281	 1.7760065136	-0.9264349115	 0.145127
H	-0.7462267052	 1.8600867555	 0.8507073334	 0.120149
H	-2.0186503795	-0.309623038	 0.8162049185	 0.11264
H	-1.4543981277	-1.6692037635	-0.1996007915	 0.114499
H	 1.1872747294	 0.0034079716	 1.9818182052	 0.088189
H	 2.4764449322	-2.1646755967	 1.1169681493	 0.125925
H	 2.4175191771	-1.9926233059	-1.5029225269	 0.125178
88.0105	197.8456	206.0504	242.653	273.427	296.2991	406.3855	494.493	585.3961	649.979	707.5726	751.111	826.9686	849.1304	893.1021	918.7375	971.8785	982.75	1001.1798	1005.4269	1021.3972	1078.225	1138.4083	1153.1749	1168.1652	1198.3439	1247.7851	1278.4727	1328.6771	1352.2424	1368.1874	1410.1602	1489.6799	1495.2697	1518.7388	1641.1609	1811.1115	3021.869	3035.7319	3052.1461	3070.9739	3104.5777	3115.8127	3193.5703	3222.6645
CC12COC1C=CC2=O	C[C@]12CO[C@H]1C=CC2=O	
InChI=1S/C7H8O2/c1-7-4-9-6(7)3-2-5(7)8/h2-3,6H,4H2,1H3	InChI=1S/C7H8O2/c1-7-4-9-6(7)3-2-5(7)8/h2-3,6H,4H2,1H3/t6-,7+/m0/s1
