19
gdb 80065	2.89842	1.82769	1.62249	1.6682	78.14	-0.2329	0.0028	0.2356	924.0199	0.161369	-385.850429	-385.843589	-385.842645	-385.881187	28.886	
C	-0.1930390992	 1.6204508792	-0.015724433	-0.42194
C	 0.0511107146	 0.1190933239	 0.0172086575	 0.042095
C	 1.1554376874	-0.5821087883	-0.8680606403	-0.172997
C	 2.39000517	 0.2686659832	-0.8347727318	-0.044162
C	 2.8954292428	 0.4743143068	 0.3857498864	-0.078726
C	 2.2478378499	-0.3813228716	 1.4389181658	 0.040076
O	 2.4808097473	-1.7710967545	 0.9859886833	-0.293279
C	 1.2385908497	-1.6931893959	 0.3096599927	 0.131686
C	 0.6847838518	-0.588046806	 1.2222597876	-0.103546
H	 0.7173916566	 2.1867196136	 0.1923355156	 0.120035
H	-0.5739152142	 1.9381097945	-0.9929049528	 0.111975
H	-0.9417511316	 1.8967276137	 0.7352234371	 0.112148
H	-0.893986754	-0.4038127204	-0.1802985632	 0.076481
H	 0.861711288	-0.9122549573	-1.8647091992	 0.061029
H	 2.7976552652	 0.7048689388	-1.7405202626	 0.096471
H	 3.7617247177	 1.0874923439	 0.6045063657	 0.095935
H	 2.6016526418	-0.2305388678	 2.4591329204	 0.075788
H	 0.7880287023	-2.6632836693	 0.0932351464	 0.080797
H	 0.1224639139	-0.7748395664	 2.1384722144	 0.070134
181.1878	204.404	248.6462	402.0186	416.0691	490.922	545.933	619.0968	670.0911	694.1921	733.7079	763.6956	778.7031	822.2012	853.7833	911.3572	927.5297	952.2744	961.6319	985.3487	1034.3097	1058.6676	1075.6738	1088.1378	1115.4093	1127.3999	1147.4807	1179.3441	1194.5462	1232.7489	1248.5413	1301.0287	1305.7945	1321.9424	1344.8625	1374.0855	1399.1652	1408.5834	1491.7452	1504.1255	1665.4808	3016.9558	3032.3883	3088.9167	3091.8341	3099.1679	3106.5858	3112.6812	3123.3874	3175.5599	3203.5873
CC1C2C=CC3OC2C13	C[C@H]1[C@H]2C=C[C@@H]3O[C@H]2[C@H]13	
InChI=1S/C8H10O/c1-4-5-2-3-6-7(4)8(5)9-6/h2-8H,1H3	InChI=1S/C8H10O/c1-4-5-2-3-6-7(4)8(5)9-6/h2-8H,1H3/t4-,5+,6-,7+,8+/m0/s1
