23
gdb 100087	2.28997	1.17463	0.97402	1.878	82.52	-0.2588	0.0195	0.2783	1379.119	0.201599	-425.484458	-425.473086	-425.472142	-425.5211	40.959	
C	-0.1428634317	 1.6365194412	-0.1307799888	-0.396215
C	-0.1080086683	 0.1091096931	-0.0300258169	-0.17975
C	-1.4751256684	-0.5847218072	 0.1213560294	 0.371497
C	-1.281004349	-2.1046586872	 0.1479919428	-0.42719
C	-2.2382277865	-0.0934340355	 1.3563193598	-0.426401
O	-2.183779994	-0.1971508853	-1.1064674069	-0.292324
C	-3.4350422291	-0.6172028554	-1.3662163812	 0.434908
C	-3.9014954243	-0.0596255532	-2.6938318284	-0.470412
O	-4.0985490273	-1.3314097149	-0.6545816068	-0.363051
H	 0.8620491088	 2.0267063902	-0.3183328498	 0.112189
H	-0.7887948939	 1.9580572169	-0.9518826928	 0.126801
H	-0.5073176819	 2.1008793659	 0.7902523651	 0.117024
H	 0.3727077416	-0.3013729686	-0.9256470901	 0.10002
H	 0.5106308505	-0.1950304343	 0.8226619404	 0.096641
H	-0.6568088253	-2.3795048214	 1.0041584516	 0.113384
H	-2.2366862321	-2.621816271	 0.2318866322	 0.15008
H	-0.7740949098	-2.4407567466	-0.7618839639	 0.113746
H	-2.4750045959	 0.9704516955	 1.2752178166	 0.118842
H	-3.1682843491	-0.6465859496	 1.483156738	 0.150857
H	-1.6176634667	-0.2359575064	 2.2470346756	 0.112235
H	-4.9009363808	-0.4339659745	-2.9122846986	 0.144904
H	-3.9141461998	 1.0335567549	-2.6568560347	 0.14643
H	-3.209290147	-0.3491817764	-3.4891917028	 0.145784
51.8415	86.0276	104.921	114.708	165.1894	215.039	232.5517	242.2027	273.7308	318.5461	333.1184	371.2491	431.7768	457.6739	505.7124	611.5023	629.3215	749.7241	777.1477	836.1961	930.6172	936.8672	950.386	1004.6383	1017.1042	1034.2675	1062.2075	1077.6894	1091.6753	1193.5905	1224.2166	1263.4048	1286.0354	1327.7868	1377.8315	1391.4483	1396.0509	1410.6036	1415.8642	1468.9843	1469.4786	1476.0557	1480.67	1493.3548	1496.1629	1505.9662	1510.2591	1522.6243	1809.6693	3031.3682	3044.0294	3045.4376	3051.4751	3056.3088	3068.6781	3107.1996	3109.5285	3117.9363	3121.5012	3124.6978	3154.0517	3158.7657	3167.1639
CCC(C)(C)OC(C)=O	CCC(C)(C)OC(=O)C	
InChI=1S/C7H14O2/c1-5-7(3,4)9-6(2)8/h5H2,1-4H3	InChI=1S/C7H14O2/c1-5-7(3,4)9-6(2)8/h5H2,1-4H3
