18
gdb 126566	3.25596	1.01941	0.82359	0.865	74.33	-0.2296	0.004	0.2336	1404.6766	0.148659	-435.282728	-435.273685	-435.272741	-435.317434	32.604	
C	 0.0167362147	 1.6039573852	 0.0002446755	-0.379116
C	 0.1238990001	 0.0784194215	-0.04761677	-0.166666
C	 0.5898071869	-0.5234800113	 1.2921227647	-0.303694
C	 0.722756332	-2.0113100715	 1.2570820222	 0.24646
N	-0.110942134	-2.8429387722	 1.8879697025	-0.263986
N	 0.3436058623	-4.0491839648	 1.5875353823	-0.094937
N	 1.4246324525	-4.0974891767	 0.8016942504	-0.302433
C	 1.6721143325	-2.8130729575	 0.5849650106	 0.3059
O	 2.6951642392	-2.3700899214	-0.1723546691	-0.427755
H	 0.9841556101	 2.0619461672	 0.2349233484	 0.11511
H	-0.3189453914	 2.008949147	-0.9593725357	 0.112446
H	-0.6963645016	 1.9277557138	 0.7666715041	 0.114979
H	-0.8466356242	-0.3573560778	-0.3133812623	 0.103573
H	 0.8249005312	-0.2217539306	-0.8352910819	 0.112517
H	 1.5560398744	-0.0790886806	 1.5638512789	 0.111443
H	-0.117163749	-0.2595544077	 2.0853880979	 0.11727
H	-0.0902553077	-4.8854074323	 1.9388768264	 0.290709
H	 3.1743024919	-3.1413516803	-0.499294525	 0.308177
41.3529	83.3411	115.8635	237.4087	252.5577	296.5082	318.8137	364.4969	369.9628	441.9597	476.2846	690.1936	702.6779	744.3552	756.9142	797.6209	876.6044	902.5776	982.8089	1044.3028	1091.0064	1111.7624	1152.1996	1193.8258	1240.0234	1263.7506	1292.8554	1314.7338	1334.5581	1385.5154	1410.4875	1416.61	1464.9102	1477.308	1492.6295	1498.3269	1508.9247	1589.8268	1593.8075	3022.8622	3028.715	3035.6009	3060.5101	3084.1435	3100.0168	3103.1224	3687.1705	3801.9847
CCCC1=NNN=C1O	CCCc1n[nH]nc1O	
InChI=1S/C5H9N3O/c1-2-3-4-5(9)7-8-6-4/h2-3H2,1H3,(H2,6,7,8,9)	InChI=1S/C5H9N3O/c1-2-3-4-5(9)7-8-6-4/h2-3H2,1H3,(H2,6,7,8,9)
