13
gdb 131100	3.34063	1.20971	0.94875	3.0537	64.71	-0.2784	-0.044	0.2344	1154.127	0.087131	-452.669888	-452.66173	-452.660786	-452.703519	29.137	
O	-0.0310555845	 1.4445163832	 0.0177385361	-0.409212
C	 0.0548585228	 0.022935459	 0.0083681207	-0.147625
C	 0.6806358385	-0.4870469045	-1.2132138205	 0.299884
C	 1.2175951668	-0.8618213558	-2.2200087775	-0.443019
C	 0.7685733875	-0.456209546	 1.2491979402	 0.244663
C	 1.1980803523	 0.2510518094	 2.3252614572	-0.042266
O	 1.7500097495	-0.5866636476	 3.1990232891	-0.162521
N	 1.6447986437	-1.8919294841	 2.6203685707	-0.000993
N	 1.0767739091	-1.7730893038	 1.5059737485	-0.173518
H	 0.7780707586	 1.7848218389	-0.3805389846	 0.294583
H	-0.9841361655	-0.3303931809	 0.0448258902	 0.147876
H	 1.6839126283	-1.2088762358	-3.1094296872	 0.212509
H	 1.1652348328	 1.2964237379	 2.5792238672	 0.179639
41.3681	105.4751	179.8868	220.0635	268.9083	294.2448	412.0254	472.5576	585.0352	622.2296	630.0274	647.5283	689.9291	695.1575	803.8851	872.5324	933.6329	988.7291	1051.7363	1069.9937	1143.8503	1237.2192	1266.1511	1324.4914	1328.795	1407.6201	1462.0422	1614.5279	2241.559	3025.5986	3300.8978	3500.3506	3808.1282
OC(C#C)C1=CON=N1	O[C@@H](C#C)c1conn1	
InChI=1S/C5H4N2O2/c1-2-5(8)4-3-9-7-6-4/h1,3,5,8H	InChI=1S/C5H4N2O2/c1-2-5(8)4-3-9-7-6-4/h1,3,5,8H/t5-/m0/s1
