18
gdb 33792	3.51264	1.35142	1.17233	2.92	75.57	-0.2586	0.024	0.2827	1064.7287	0.150325	-401.952007	-401.944671	-401.943726	-401.983594	29.261	
N	-0.0392900316	-1.1699696336	-0.0493147939	-0.34296
C	-0.0418360822	-0.0139978106	-0.01451746	 0.191092
C	-0.036538311	 1.4373038353	 0.0373971263	 0.169551
C	-0.2283794507	 2.1463939836	 1.4218942869	-0.289758
C	 0.654222801	 3.2752829738	 0.8183970371	 0.117533
C	 1.333942179	 2.1861222669	-0.0519895042	-0.257387
O	-0.0805758358	 4.1680976485	-0.0021036444	-0.270974
C	-1.2102810194	 3.5645947988	-0.6288604399	-0.080889
C	-0.9900190532	 2.0816927625	-0.998579246	-0.27474
H	-1.2425334026	 2.3780979011	 1.7509878052	 0.117748
H	 0.3017389597	 1.6156708998	 2.2143312814	 0.125744
H	 1.2669704743	 3.8855500983	 1.482310779	 0.09032
H	 2.1228993	 1.6541525143	 0.4835127996	 0.119702
H	 1.6764631639	 2.4842613685	-1.0448492448	 0.113485
H	-2.0795458715	 3.6443004972	 0.0382594898	 0.105724
H	-1.428979143	 4.1627400706	-1.5171912636	 0.119132
H	-0.5506752325	 1.9738610876	-1.995300166	 0.123703
H	-1.9562063642	 1.5678249974	-1.0092305625	 0.122974
146.6087	151.6869	225.4562	307.3999	391.4612	434.3068	445.3519	551.4288	564.2478	589.5134	604.3662	809.5139	831.8724	837.9478	895.8487	932.7539	951.677	953.8695	967.693	1000.2555	1054.7147	1064.6302	1134.505	1179.6594	1194.7529	1203.5514	1238.9269	1248.9292	1254.6532	1266.2487	1286.2061	1353.1079	1369.805	1414.2403	1471.3126	1491.5622	1500.1264	1525.8883	2350.5665	3004.5102	3049.1443	3071.5108	3083.2183	3087.2887	3099.6025	3112.9142	3138.0192	3142.3169
N#CC12CC(C1)OCC2	N#C[C@@]12C[C@@H](C1)OCC2	
InChI=1S/C7H9NO/c8-5-7-1-2-9-6(3-7)4-7/h6H,1-4H2	InChI=1S/C7H9NO/c8-5-7-1-2-9-6(3-7)4-7/h6H,1-4H2/t6-,7-
