17
gdb 65889	3.56308	0.82305	0.74832	0.9673	91.58	-0.2433	-0.0241	0.2192	1535.5155	0.133737	-384.62277	-384.613583	-384.612639	-384.656915	34.397	
O	 0.0636060723	 1.6171100782	-0.159653047	-0.457678
C	-0.0078970467	 0.2154514498	 0.0197097782	 0.197895
C	 0.1853468649	-0.3345073653	 1.4791775556	-0.268052
C	-1.0900081837	-1.1951305395	 1.2876892332	-0.210391
C	-1.4783328971	-0.2955165884	 0.0859863757	-0.249859
C	 0.813222007	-0.4890900496	-0.9561940604	 0.52993
C	 1.5307816142	-1.0439023526	-1.7595927005	-0.434261
C	 2.3251484855	-1.6788280359	-2.6629813154	 0.309839
C	 3.0328690317	-2.2392963627	-3.4651674456	-0.570586
H	 0.9827422234	 1.8552185147	-0.3245502441	 0.283873
H	 1.1255277402	-0.8387202937	 1.709107972	 0.106638
H	 0.0253733206	 0.4892224393	 2.1794478583	 0.113917
H	-0.8526285385	-2.2148295491	 0.9757267459	 0.115892
H	-1.7908990963	-1.238763425	 2.1225668978	 0.105761
H	-2.115798701	 0.5402824487	 0.3847091175	 0.12046
H	-1.884655913	-0.7628933539	-0.8117290277	 0.112765
H	 3.6509477265	-2.7357076251	-4.1713651334	 0.193856
70.5062	93.0767	142.4361	228.3822	237.8287	275.2037	351.98	358.5151	479.9042	502.1359	546.6433	552.9874	584.4621	600.737	616.9793	671.7905	791.5628	811.2008	898.6155	935.7609	974.0778	996.4175	1042.9583	1049.178	1135.7813	1197.963	1203.5395	1246.9515	1263.0548	1274.9095	1293.0281	1368.9173	1467.7097	1483.9183	1503.2468	2177.9952	2351.2868	3067.2266	3073.2192	3076.2752	3119.4769	3133.2039	3141.8293	3504.7784	3806.0916
OC1(CCC1)C#CC#C	OC1(CCC1)C#CC#C	
InChI=1S/C8H8O/c1-2-3-5-8(9)6-4-7-8/h1,9H,4,6-7H2	InChI=1S/C8H8O/c1-2-3-5-8(9)6-4-7-8/h1,9H,4,6-7H2
