16
gdb 46971	2.78885	1.84698	1.26435	6.3317	69.03	-0.2233	0.017	0.2403	961.7311	0.128489	-434.117857	-434.110816	-434.109871	-434.14968	27.063	
O	 0.0057405035	 0.0701868737	 0.4107071289	-0.368684
C	-0.0084897289	 1.2572441747	 0.1882952783	 0.409368
N	-1.1204384021	 2.0565945275	 0.1482899298	-0.308765
C	-0.9201612026	 3.4209275191	-0.2930172481	-0.173458
C	 0.6154100571	 3.6021177452	-0.2226802063	-0.020874
N	 1.080551546	 4.1968159525	 1.0343538006	-0.300857
C	 2.0195147548	 3.3288663023	 1.5725957861	 0.061007
N	 2.1489419005	 2.1805038822	 1.0319711976	-0.229006
C	 1.2095428012	 2.1632828493	-0.1002659571	-0.111819
H	-2.0331630922	 1.641301101	 0.2490881201	 0.252531
H	-1.2819570271	 3.5756446793	-1.3192110317	 0.106103
H	-1.4296812337	 4.1379164789	 0.3589206343	 0.1154
H	 0.9800351789	 4.1642585883	-1.0878803576	 0.087507
H	 1.2584256912	 5.1895482214	 1.0701392013	 0.243833
H	 2.5772980096	 3.6398849484	 2.4514510552	 0.129869
H	 1.7089919539	 1.7959033363	-1.0006960114	 0.107843
81.3311	127.2683	230.4156	355.3171	443.0842	492.0616	502.6242	574.5299	579.5124	685.8305	731.3036	794.688	859.8659	887.2402	900.7208	945.9299	981.728	1013.1852	1027.9892	1083.5121	1091.1767	1124.5375	1209.1948	1239.4888	1262.9622	1278.4661	1285.5513	1312.3809	1346.2464	1377.6621	1436.5474	1457.7002	1525.2729	1686.7516	1839.7177	3000.8997	3051.0338	3065.1494	3077.3546	3185.7794	3608.4633	3639.6696
O=C1NCC2NC=NC12	O=C1NC[C@H]2N[CH][N][C@@H]12	
InChI=1S/C5H7N3O/c9-5-4-3(1-6-5)7-2-8-4/h2-4H,1H2,(H,6,9)(H,7,8)	InChI=1S/C5H7N3O/c9-5-4-3(1-6-5)7-2-8-4/h2-4H,1H2,(H,6,9)(H,7,8)/t3-,4-/m1/s1
