16
gdb 28721	3.70674	1.08016	0.9474	3.2758	74.06	-0.2284	0.0056	0.2341	1261.295	0.124733	-434.10374	-434.094982	-434.094037	-434.138422	30.618	
C	-0.2535535914	 1.4973139971	-0.0824104644	-0.48918
C	-0.0417003754	 0.0267086973	-0.0806446258	 0.399559
N	 0.5464930297	-0.7010638367	-0.9815045564	-0.303636
C	 0.4942880058	-1.9905281978	-0.4739361584	-0.16099
C	-0.1406748518	-1.980849222	 0.7202060785	 0.387212
N	-0.4945509201	-2.9633432106	 1.6320230484	-0.419754
C	 0.0881596273	-3.0974909091	 2.8790773933	 0.063261
N	 1.056665809	-2.37235839	 3.2627850926	-0.436784
O	-0.4997237588	-0.6753192664	 0.9827778086	-0.188076
H	 0.248013734	 1.9654306183	 0.7708321219	 0.150938
H	 0.1525210736	 1.9103181069	-1.0060101863	 0.155819
H	-1.3181448491	 1.7440795912	-0.0155431983	 0.142446
H	 0.9189573935	-2.8324417744	-0.9968459785	 0.123156
H	-1.321921461	-3.5084770993	 1.4509263169	 0.257879
H	-0.3877141568	-3.9005432722	 3.4555240444	 0.092756
H	 1.3538396114	-2.6440474023	 4.1967338133	 0.225394
34.4487	97.042	110.876	151.5025	226.7129	286.6991	332.7708	360.8829	479.1916	582.9144	643.5093	699.232	710.9073	806.2574	841.4695	880.6348	971.2503	986.0603	1033.4107	1050.2247	1066.9439	1088.4041	1159.5916	1196.8636	1246.7252	1298.0011	1354.5622	1409.2038	1413.1015	1475.7766	1481.1509	1501.1074	1607.8631	1668.6022	1738.6485	3043.2889	3044.9677	3099.9309	3157.5131	3266.7427	3520.7418	3625.8301
CC1=NC=C(NC=N)O1	Cc1ncc(NC=N)o1	
InChI=1S/C5H7N3O/c1-4-7-2-5(9-4)8-3-6/h2-3H,1H3,(H2,6,8)	InChI=1S/C5H7N3O/c1-4-7-2-5(9-4)8-3-6/h2-3H,1H3,(H2,6,8)
