21
gdb 72492	2.53628	1.79855	1.48167	0.8362	76.98	-0.2395	0.0817	0.3212	1000.4582	0.184936	-424.245518	-424.237867	-424.236923	-424.276979	31.609	
C	-0.1202406577	 1.4814881896	-0.00162657	-0.454679
C	 0.0424517537	-0.0279321512	-0.0127964964	 0.367107
C	 0.9170063835	-0.5699396457	-1.1609701185	-0.118658
O	 1.4241413555	-1.8334567368	-0.717642933	-0.283729
C	 0.9729433133	-2.0542438019	 0.6318787139	 0.094488
C	 0.7803563123	-0.642708215	 1.1912739033	-0.248523
C	-0.3835833976	-2.7740527086	 0.6209899112	-0.227213
C	-1.3582724529	-1.9804072559	-0.2624059081	-0.070996
O	-1.2845382865	-0.5720889509	-0.057740452	-0.308186
H	 0.8474253416	 1.9766692294	 0.1186623975	 0.113966
H	-0.5784411941	 1.8269346862	-0.9333515737	 0.12349
H	-0.7721107445	 1.7806733926	 0.8235610579	 0.127845
H	 0.3394087117	-0.6959706533	-2.0841606683	 0.106669
H	 1.7545673222	 0.1091762627	-1.3682968851	 0.09432
H	 1.7415091852	-2.6427708918	 1.1391235026	 0.0741
H	 1.7420002407	-0.1487015649	 1.3617482069	 0.097637
H	 0.1814932371	-0.6019830398	 2.103091152	 0.103074
H	-0.2800702746	-3.7884644855	 0.2220883785	 0.102749
H	-0.7572856282	-2.8543356366	 1.6484571743	 0.098489
H	-1.1563887018	-2.2198559552	-1.3161279167	 0.102821
H	-2.3967993091	-2.2549326775	-0.0576154163	 0.105231
186.0986	207.2551	261.5649	277.3865	304.1447	376.8284	423.053	457.0572	476.8644	560.8071	627.4151	769.3503	784.1524	833.65	845.5771	883.5423	906.9876	916.7124	949.9908	989.1053	996.6503	1024.4098	1053.4509	1080.4387	1109.075	1138.9858	1182.4686	1201.8999	1222.0794	1244.9774	1256.4134	1273.9522	1312.6968	1328.6333	1342.4054	1368.8209	1393.1447	1409.8859	1413.9348	1471.0181	1480.7562	1484.9734	1497.5688	1507.2056	1526.1506	3001.4964	3011.9424	3036.5326	3042.8266	3055.4514	3058.0321	3078.8611	3083.6219	3090.3855	3114.4453	3119.9599	3124.3733
CC12COC(C1)CCO2	C[C@@]12CO[C@@H](C1)CCO2	
InChI=1S/C7H12O2/c1-7-4-6(8-5-7)2-3-9-7/h6H,2-5H2,1H3	InChI=1S/C7H12O2/c1-7-4-6(8-5-7)2-3-9-7/h6H,2-5H2,1H3/t6-,7+/m1/s1
