17
gdb 54573	3.63079	1.346	1.15287	2.5918	73.05	-0.2391	-0.016	0.2231	1076.4844	0.134622	-421.778271	-421.770392	-421.769448	-421.811183	29.738	
C	-0.3539943942	 1.4073623163	 0.1009830449	-0.490916
C	 0.0488770967	-0.0494379487	-0.0234208525	 0.252248
O	 0.4459609336	-0.6995347067	 0.9255173015	-0.327434
C	-0.0407773111	-0.6567006061	-1.3641811905	 0.207541
C	-0.7152410457	-0.24319697	-2.6725103453	-0.32011
C	-0.3507793062	-1.6696231625	-3.1583320968	 0.058003
O	 1.1065908399	-1.6330896329	-3.2429930009	-0.289265
C	 1.1048925721	-1.638273021	-1.8284991072	 0.08744
C	-0.2625418951	-2.1507044998	-1.6615647076	-0.175417
H	 0.1995290002	 2.0221050462	-0.6177419904	 0.140155
H	-1.4181632277	 1.5264585491	-0.1335638094	 0.139918
H	-0.1629688294	 1.7565842555	 1.1163268866	 0.142042
H	-1.7949821615	-0.125028617	-2.5481469176	 0.111277
H	-0.3009437924	 0.58314739	-3.2579865157	 0.10945
H	-0.8280228552	-2.1603343116	-4.0027791974	 0.098622
H	 2.0210914543	-1.7615296958	-1.2687385002	 0.13555
H	-0.7183161683	-2.9204118452	-1.0557647916	 0.120895
59.8138	128.2913	156.7469	170.7903	334.7836	425.7853	477.6843	521.018	601.1918	611.0222	684.9284	779.0437	799.7395	845.2161	887.433	917.137	950.1582	956.3364	977.6539	1011.4576	1025.6163	1049.7038	1055.9478	1109.6087	1141.5722	1144.9644	1171.0554	1196.5581	1253.4861	1288.7348	1332.3091	1374.8194	1400.1884	1461.2987	1474.0747	1487.4391	1768.6548	3034.3852	3051.0968	3094.4537	3112.4674	3152.2138	3157.7599	3221.0376	3236.59
CC(=O)C12CC3OC1C23	CC(=O)[C@@]12C[C@H]3O[C@@H]1[C@@H]23	
InChI=1S/C7H8O2/c1-3(8)7-2-4-5(7)6(7)9-4/h4-6H,2H2,1H3	InChI=1S/C7H8O2/c1-3(8)7-2-4-5(7)6(7)9-4/h4-6H,2H2,1H3/t4-,5+,6-,7-/m1/s1
