20
gdb 35270	3.35323	0.91194	0.80897	0.7821	86.3	-0.2285	0.0347	0.2632	1474.3648	0.169612	-365.928806	-365.919608	-365.918664	-365.963373	34.645	
C	-0.2877462192	-1.2122630531	 0.0940408668	-0.475351
C	-0.1351064185	-0.0193982898	 0.1350926737	 0.345527
C	 0.0148086426	 1.4106002888	 0.141404285	-0.181129
C	 0.8228410081	 2.0781115518	 1.2172748638	-0.238156
N	 1.3062110922	 2.0598958329	-0.1493290323	-0.08291
C	 2.4610303269	 1.2131678325	-0.4508462692	-0.163925
C	 3.742237514	 1.9981019614	-0.2977595422	 0.035006
C	 4.4747653002	 2.0320343293	 1.0210849456	-0.254412
C	 5.052537465	 1.2699744219	-0.1456860642	-0.276302
H	-0.4215869351	-2.2653306806	 0.0678905622	 0.199332
H	-0.8358862704	 1.9508265131	-0.2682777081	 0.116567
H	 0.5064837698	 3.0422831519	 1.6063030339	 0.120022
H	 1.297696681	 1.419301159	 1.9419509991	 0.118583
H	 2.4975614828	 0.3099430601	 0.180275179	 0.091641
H	 2.3495862894	 0.8723210265	-1.4871804539	 0.109973
H	 3.7633410316	 2.9151613657	-0.8791272434	 0.091916
H	 4.9522908623	 2.9577765704	 1.3220984821	 0.111978
H	 4.0687838821	 1.4548475506	 1.8455477337	 0.108197
H	 5.0286334404	 0.1857407813	-0.1019869954	 0.111079
H	 5.9254574749	 1.6723978863	-0.6472561262	 0.112366
57.0732	90.2651	99.4628	189.4916	210.4097	305.5316	345.6408	369.9825	436.5921	531.8896	592.4187	614.3372	662.116	754.5387	776.3902	811.5332	822.7018	849.0038	907.2957	918.1495	961.5314	1016.2273	1029.1532	1053.9597	1062.7057	1080.7678	1115.8328	1124.7048	1138.095	1145.303	1198.0072	1201.1256	1227.0191	1294.1557	1317.3232	1358.0982	1370.9109	1425.7086	1469.3128	1488.6604	1503.5156	1513.6293	2230.6626	2970.2858	3051.5289	3096.4363	3125.9485	3129.4976	3134.0799	3153.3895	3185.4382	3207.2633	3222.3204	3503.6461
C#CC1CN1CC1CC1	C#C[C@H]1CN1CC1CC1	
InChI=1S/C8H11N/c1-2-8-6-9(8)5-7-3-4-7/h1,7-8H,3-6H2	InChI=1S/C8H11N/c1-2-8-6-9(8)5-7-3-4-7/h1,7-8H,3-6H2/t8-,9?/m0/s1
