21
gdb 37051	2.84556	1.67083	1.32695	1.8866	81.35	-0.2374	0.0846	0.322	1048.1887	0.185022	-387.081346	-387.073853	-387.072909	-387.112827	31.103	
C	-0.0280911973	 1.586947852	-0.2204337372	-0.299832
C	 1.5470374741	 1.603461724	-0.241372795	-0.303338
C	 1.5165583673	 0.1354870749	 0.2160269865	 0.361045
C	 2.3596598306	-0.68290432	 1.1452618255	-0.316907
C	 1.5001093684	-1.8339881501	 1.7190392707	-0.194497
C	 0.1434907874	-1.3390293293	 2.2602173816	-0.191775
C	-0.775291814	-0.7258613109	 1.1735804106	-0.314272
C	 0.0443799647	 0.119726343	 0.2366282929	 0.350492
O	 0.7763653636	-0.5857139798	-0.7833088441	-0.321516
H	-0.4397860829	 2.256161691	 0.5397089009	 0.101868
H	-0.5394702537	 1.7581433854	-1.1709266988	 0.106317
H	 2.0275919494	 1.7831264711	-1.2060520039	 0.1061
H	 1.9655820388	 2.282511779	 0.5059831487	 0.102338
H	 3.2519798081	-1.0776605163	 0.6440212587	 0.103681
H	 2.712764637	-0.0370564323	 1.960246197	 0.099016
H	 1.3322083677	-2.5788700913	 0.9340915944	 0.115885
H	 2.0540216052	-2.3312601239	 2.5219834635	 0.092467
H	-0.3782429241	-2.1622903697	 2.7598360182	 0.095484
H	 0.3327609782	-0.5796115551	 3.0310993948	 0.093117
H	-1.2781700838	-1.5163436931	 0.604639666	 0.113859
H	-1.5612858948	-0.1250700986	 1.6436258389	 0.100468
126.5228	203.9197	281.3521	309.8	337.5909	388.6176	446.6523	503.9538	538.5883	644.1597	699.2371	735.3074	770.731	815.4776	833.695	876.9977	898.3734	921.7303	935.2512	950.3008	1003.719	1055.4372	1056.2875	1086.5431	1117.4435	1144.0334	1179.0267	1202.7297	1212.9753	1219.4826	1246.6929	1266.8428	1275.9022	1304.2426	1363.5444	1372.0877	1379.5454	1384.0143	1456.4189	1463.8605	1475.5365	1481.7795	1485.8484	1496.195	1505.8382	3014.7798	3018.7304	3034.942	3042.6581	3055.3897	3057.5056	3065.1036	3068.4417	3079.3418	3090.3052	3108.4092	3125.2092
C1CC23CCCCC12O3	C1C[C@@]23CCCC[C@@]12O3	
InChI=1S/C8H12O/c1-2-4-8-6-5-7(8,3-1)9-8/h1-6H2	InChI=1S/C8H12O/c1-2-4-8-6-5-7(8,3-1)9-8/h1-6H2/t7-,8+
