20
gdb 110366	4.51114	1.10284	1.06695	2.6526	79.54	-0.2163	0.0811	0.2974	1224.6505	0.171726	-403.074635	-403.066999	-403.066055	-403.106768	30.64	
C	 0.2890811952	 1.4590806952	 0.0637969021	-0.374948
C	-0.1689784807	 0.0224298919	-0.171954307	-0.118403
N	 0.5629872604	-0.5730541703	-1.2901673801	-0.075854
C	 1.8012123588	-1.2652720745	-0.9075903538	-0.047717
C	 0.5923205429	-2.0394258254	-1.2907265832	-0.048473
C	 1.1180815212	-2.6510194728	-2.6174639265	 0.030589
C	 2.5151442272	-3.1789493205	-2.1786392142	-0.226646
C	 2.7065990092	-1.6354654198	-2.1130035695	 0.032916
O	 1.7991569373	-1.5303375861	-3.2426390942	-0.262237
H	 1.3454294867	 1.4926077703	 0.3499630773	 0.115099
H	 0.1680293025	 2.051968181	-0.8467820996	 0.132166
H	-0.2932133369	 1.9236786752	 0.8654636436	 0.110407
H	-0.0650525983	-0.5629589042	 0.7607102188	 0.074794
H	-1.2327268281	 0.0077765134	-0.4373482705	 0.104278
H	 2.1834098899	-1.2004247764	 0.105302524	 0.091418
H	-0.0112295101	-2.6072228606	-0.5911101567	 0.091176
H	 0.4384240782	-3.1898601641	-3.2764331273	 0.084337
H	 2.5971874246	-3.7649505678	-1.2582723137	 0.091986
H	 3.0667924209	-3.6321741447	-3.0033924841	 0.111015
H	 3.6612897392	-1.1300417398	-2.2532882457	 0.084098
93.9367	146.5302	194.0896	278.7617	346.6586	408.9059	434.4968	504.4542	653.5795	712.3646	763.8687	809.8394	841.4916	855.8474	858.2024	865.8113	905.4418	922.1639	946.3532	957.0801	981.4668	1027.5085	1050.1768	1085.3154	1087.2422	1101.2669	1150.2588	1161.691	1173.3072	1210.0912	1221.0754	1251.267	1273.581	1283.9753	1306.5934	1314.8934	1368.932	1392.1129	1412.5651	1480.9503	1488.068	1494.5442	1512.7374	2925.4779	3039.5334	3048.554	3057.2309	3107.5184	3122.1217	3128.7355	3130.0647	3142.0613	3169.0264	3178.9742
CCN1C2C1C1CC2O1	CCN1[C@H]2[C@@H]1[C@@H]1C[C@H]2O1	
InChI=1S/C7H11NO/c1-2-8-6-4-3-5(9-4)7(6)8/h4-7H,2-3H2,1H3	InChI=1S/C7H11NO/c1-2-8-6-4-3-5(9-4)7(6)8/h4-7H,2-3H2,1H3/t4-,5+,6-,7+,8?
