17
gdb 8926	2.67118	1.57746	1.22931	4.4289	64.94	-0.2776	0.0206	0.2982	1042.6733	0.139837	-400.998801	-400.989395	-400.988451	-401.033252	32.593	
C	 0.0704217073	 1.3418841065	-0.101025411	-0.240975
O	 0.0059218329	-0.0672301936	-0.0216896108	-0.266914
C	-1.3025555405	-0.6181673835	 0.0151852956	 0.115244
C	-1.9165032794	-0.7431086218	-1.3782658605	-0.41539
C	-1.1051936077	-2.0027632635	 0.6716662735	-0.027064
O	-0.1177595688	-2.7492752824	-0.0003355275	-0.412601
C	-0.7774585894	-1.84015902	 2.1074698277	 0.272883
N	-0.5291223969	-1.7104206371	 3.2282262589	-0.321677
H	 1.1273973792	 1.614110499	-0.0671540918	 0.13907
H	-0.3616702724	 1.7253575867	-1.0354953864	 0.114976
H	-0.4462592011	 1.813284039	 0.746931644	 0.122403
H	-1.9482464193	-0.0091644906	 0.6654619932	 0.090951
H	-1.3241092633	-1.428340039	-1.9892265709	 0.143156
H	-2.9402690794	-1.1251514857	-1.3140636636	 0.123554
H	-1.954980811	 0.2295690227	-1.8752964923	 0.124505
H	-2.0362877817	-2.5750288514	 0.6031936302	 0.133793
H	 0.6410589816	-2.1568468754	-0.0952026885	 0.304085
58.5227	80.8331	143.5498	187.2271	205.2976	219.1636	247.8873	329.4226	358.4624	408.3336	482.2335	519.6667	592.4838	706.4619	807.5813	888.7348	972.363	1007.3212	1056.7508	1121.308	1132.4799	1161.9316	1182.9819	1212.4011	1285.4154	1305.03	1370.2434	1372.7242	1406.0041	1433.7419	1479.8454	1484.3973	1494.175	1498.6182	1509.8586	2357.4275	2993.0427	3000.156	3046.2719	3050.7044	3069.3694	3116.9662	3125.6555	3135.5322	3762.8458
COC(C)C(O)C#N	CO[C@@H](C)[C@@H](O)C#N	
InChI=1S/C5H9NO2/c1-4(8-2)5(7)3-6/h4-5,7H,1-2H3	InChI=1S/C5H9NO2/c1-4(8-2)5(7)3-6/h4-5,7H,1-2H3/t4-,5-/m0/s1
