19
gdb 103022	2.28968	1.67977	1.15219	3.7387	79.75	-0.2541	0.0197	0.2738	1111.3478	0.160224	-382.013548	-382.005164	-382.00422	-382.046642	32.015	
C	 0.8437070618	-0.4929306804	 1.3145324192	-0.388642
C	 0.0879450328	-0.0317153363	 0.0623986657	-0.2809
C	-1.3403316246	-0.5950846769	-0.0218334139	 0.195943
C	-2.1458239866	-0.0318450059	 1.064720577	 0.232941
N	-2.7568936524	 0.4312395515	 1.9313753897	-0.352401
C	-2.1203116091	-0.7268035745	-1.3907324892	-0.073319
C	-1.1973633253	-1.9091301272	-1.7796249108	-0.22682
C	-1.6424307005	-2.1213204476	-0.3118929221	-0.05695
N	-3.0382131925	-1.7734716637	-0.7910399966	-0.326792
H	 1.8418735921	-0.047374531	 1.346429394	 0.122794
H	 0.3160488005	-0.2009545947	 2.2273978259	 0.145217
H	 0.9627810296	-1.5814116335	 1.3274999077	 0.120676
H	 0.0221636406	 1.062530936	 0.0528615895	 0.120501
H	 0.6496136801	-0.3119993241	-0.8311959013	 0.110953
H	-2.4949965784	 0.0877719023	-2.0118101066	 0.098087
H	-1.6464468082	-2.6077362328	-2.4837483355	 0.122948
H	-0.1483224517	-1.7156277646	-1.9911309367	 0.106523
H	-1.4511675067	-2.9669751317	 0.3494771822	 0.098739
H	-3.5833512815	-1.3667462349	-0.0248081682	 0.230504
72.0274	146.0368	162.2241	196.0071	225.5801	346.7532	382.3798	486.3525	526.7854	542.7552	630.3688	647.861	768.5603	792.458	809.4235	879.525	905.9991	915.8056	968.6483	972.5105	1044.2948	1048.0872	1081.5563	1087.822	1117.0204	1165.731	1171.7529	1189.311	1207.5937	1213.3765	1251.9586	1296.1858	1311.6887	1319.0326	1358.5803	1415.8316	1479.0508	1498.8944	1504.8908	1516.1429	2339.612	3039.5429	3046.1234	3094.0772	3106.0612	3110.6456	3112.1102	3119.2104	3123.6727	3183.6352	3398.8385
CCC1(C#N)C2CC1N2	CC[C@@]1(C#N)[C@H]2C[C@@H]1N2	
InChI=1S/C7H10N2/c1-2-7(4-8)5-3-6(7)9-5/h5-6,9H,2-3H2,1H3	InChI=1S/C7H10N2/c1-2-7(4-8)5-3-6(7)9-5/h5-6,9H,2-3H2,1H3/t5-,6+,7-
