15
gdb 81764	3.39361	1.26947	1.0862	1.9904	68.78	-0.2482	0.0044	0.2526	1095.7137	0.109696	-457.676358	-457.667678	-457.666734	-457.711027	32.06	
O	 0.0419312803	 1.4402754331	 0.183683138	-0.423339
C	 0.0479683021	 0.0500723221	 0.0761079557	 0.093997
C	-1.3074468461	-0.6554690027	-0.0014722108	-0.108838
O	-1.9135159721	-0.1936755436	-1.2210923814	-0.309845
C	-0.9717444714	-1.2995552656	-1.2960988518	 0.274171
C	-1.3868140855	-2.5299093453	-1.8717540006	 0.141154
C	-1.6817301113	-3.5809355299	-2.3756887075	-0.365793
C	 0.4065602402	-0.6068697366	-1.3381567751	 0.015588
O	 0.6446270007	 0.2381813439	-2.4190456607	-0.424748
H	-0.6106852046	 1.774136082	-0.4428434764	 0.286013
H	 0.6914346656	-0.3379026569	 0.8692274384	 0.104085
H	-1.9779280423	-0.9976313291	 0.7784573246	 0.124954
H	-1.9526290778	-4.5080970196	-2.8176173561	 0.195895
H	 1.244061569	-1.3036558041	-1.26757505	 0.107788
H	-0.1774386867	 0.7108185221	-2.5978870566	 0.288921
13.7356	126.8662	154.4021	231.7197	267.9241	283.9658	398.9955	459.1928	492.9768	535.7235	599.3474	617.4765	631.7882	671.7198	699.5258	754.6896	807.1502	864.124	926.8964	962.2547	1018.8943	1111.4728	1121.5233	1162.4389	1172.9159	1234.8125	1246.4335	1297.3534	1303.8036	1392.3873	1416.7214	1455.0717	2242.7562	3090.7345	3106.5493	3192.5398	3500.3151	3785.6785	3797.989
OC1C2OC2(C#C)C1O	O[C@H]1[C@H]2O[C@@]2(C#C)[C@H]1O	
InChI=1S/C6H6O3/c1-2-6-4(8)3(7)5(6)9-6/h1,3-5,7-8H	InChI=1S/C6H6O3/c1-2-6-4(8)3(7)5(6)9-6/h1,3-5,7-8H/t3-,4+,5-,6+/m1/s1
