17
gdb 26029	3.24522	1.18894	0.97393	3.3557	79.83	-0.2191	0.0286	0.2478	1218.1132	0.136563	-380.877703	-380.869109	-380.868165	-380.911689	31.828	
C	-0.8325214626	 1.5603032087	-0.6545589739	-0.377609
C	-0.053265616	 0.3128084907	-0.1636906996	-0.285293
C	-0.9711332383	-0.6723260594	 0.4136068011	 0.306188
C	-1.7515660093	-1.4798557047	 0.8439506398	-0.459444
C	 0.783974245	-0.2976129302	-1.2586814907	 0.325779
C	 2.0312240871	 0.0027265375	-1.7462964745	-0.17835
N	 2.3514992398	-0.8070241713	-2.811962376	-0.257761
C	 1.3123442028	-1.5939508734	-2.969691676	 0.010293
N	 0.332488193	-1.3225424097	-2.0617271342	-0.297713
H	-0.1324328427	 2.3019177888	-1.0468244942	 0.12902
H	-1.5294058076	 1.2871321925	-1.4512813543	 0.127456
H	-1.4015618828	 2.0047919006	 0.1664901863	 0.126114
H	 0.6354119568	 0.6405630764	 0.6253132682	 0.128015
H	-2.4281751625	-2.1872292509	 1.2563562674	 0.202398
H	 2.715600297	 0.7574894199	-1.3878085673	 0.104608
H	 1.2114462091	-2.372922115	-3.7105670611	 0.128372
H	-0.5330924787	-1.8193719905	-1.9237423108	 0.267928
34.255	116.5604	156.8373	197.0769	233.1073	325.5725	369.0682	467.9297	536.1433	572.1631	633.9456	649.1613	685.7127	694.1827	705.8607	807.5254	847.6941	865.1697	933.4214	992.3071	1019.9682	1071.787	1105.801	1116.84	1146.2171	1251.6303	1261.4851	1306.1085	1319.7089	1386.0011	1403.6255	1436.4454	1488.9142	1492.1451	1504.0345	1602.2372	2231.7835	3028.5937	3046.1626	3125.6566	3130.9829	3241.4996	3252.0913	3500.9492	3650.0402
CC(C#C)C1=CN=CN1	C[C@@H](C#C)c1cnc[nH]1	
InChI=1S/C7H8N2/c1-3-6(2)7-4-8-5-9-7/h1,4-6H,2H3,(H,8,9)	InChI=1S/C7H8N2/c1-3-6(2)7-4-8-5-9-7/h1,4-6H,2H3,(H,8,9)/t6-/m0/s1
