18
gdb 37792	2.54899	2.20229	1.72018	2.3796	74.36	-0.2275	0.0232	0.2507	864.4862	0.152331	-401.962556	-401.95624	-401.955296	-401.992955	26.536	
C	-0.0410077421	 1.6175079223	 0.0651735175	-0.244235
C	 1.3952938568	 2.1096852307	 0.0095552901	-0.074953
C	 2.3038793115	 0.9508325463	 0.3643223413	-0.074955
C	 1.4337969882	-0.2635362008	 0.6410273402	-0.244237
C	 0.0640155875	 0.0792818165	 0.0202505707	 0.08189
O	-0.0564562686	-0.4264416686	-1.3231615331	-0.233913
C	 0.8387753763	-0.009911529	-2.2551010142	 0.109303
N	 1.8218391543	 0.7784508025	-2.1976944468	-0.264927
C	 2.2853633353	 1.4917865835	-1.0547924011	 0.020081
H	-0.5057325668	 1.931264416	 1.0073054564	 0.105356
H	-0.6713281483	 1.9845563771	-0.7504018025	 0.118895
H	 1.6153241433	 3.1201882615	 0.3367872778	 0.084005
H	 3.2011061214	 1.0975984691	 0.9559759093	 0.084005
H	 1.8231265437	-1.1969988023	 0.2235805883	 0.118896
H	 1.3267502533	-0.4059939643	 1.7228184751	 0.105356
H	-0.7608661186	-0.4077225682	 0.5420117766	 0.094325
H	 0.5953480524	-0.4905265845	-3.2019864602	 0.119825
H	 3.1525859704	 2.0954679922	-1.3039475355	 0.095282
153.3793	264.9798	342.675	419.6687	450.9452	525.8024	581.1521	721.2529	727.8551	764.8735	787.0025	802.7908	852.244	886.4979	910.901	942.0775	959.1529	989.4548	1007.5433	1048.4196	1053.3492	1085.5108	1097.0662	1114.8726	1133.3439	1182.2198	1222.3268	1245.0444	1252.4453	1321.9499	1322.1821	1366.6492	1370.7489	1396.2186	1420.337	1434.1986	1478.5072	1491.7898	1754.7108	3037.4604	3040.4824	3088.5804	3089.6064	3105.1665	3144.3492	3148.5277	3158.3574	3170.8668
C1C2C3CC1OC=NC23	C1[C@H]2[C@H]3C[C@@H]1OC=N[C@@H]23	
InChI=1S/C7H9NO/c1-4-2-6-5(1)7(6)8-3-9-4/h3-7H,1-2H2	InChI=1S/C7H9NO/c1-4-2-6-5(1)7(6)8-3-9-4/h3-7H,1-2H2/t4-,5+,6-,7+
