18
gdb 17557	3.19065	2.11512	1.63085	2.3846	72.15	-0.2251	0.0685	0.2936	858.2295	0.154464	-343.911412	-343.904001	-343.903057	-343.942621	29.122	
C	-0.0695661525	 1.5443114434	 0.0193551582	-0.52331
C	 0.0974919794	 0.0574724385	-0.0022045118	 0.252875
N	-0.8167094261	-0.8615687783	 0.7345029609	-0.36985
C	 0.6476805977	-0.9094470551	 0.9923642511	-0.104223
C	 1.2471434999	-1.7943230983	-0.1099247876	-0.296689
C	 0.660642546	-0.7962700988	-1.1350236918	 0.35014
C	 0.1312459143	-0.9813603791	-2.4973924323	-0.301927
N	 1.4349182603	-0.308325118	-2.2714478042	-0.377568
H	 0.8296569353	 2.0517425658	-0.3475292631	 0.127807
H	-0.9146385946	 1.8636314994	-0.6027879217	 0.129287
H	-0.255834032	 1.9003016514	 1.038222635	 0.123606
H	-1.2303605145	-0.3132988149	 1.4904953524	 0.220273
H	 1.0407523814	-0.7293293941	 1.9857504021	 0.092172
H	 2.3392404077	-1.7834720469	-0.1326119499	 0.113686
H	 0.8751816728	-2.8211311075	-0.1432659919	 0.108057
H	 0.2015425743	-1.950381782	-2.9837589531	 0.119643
H	-0.7222384326	-0.3815160074	-2.804153873	 0.109168
H	 1.3232071031	 0.6987115719	-2.3713171192	 0.226855
133.4561	194.6465	219.0158	237.1102	332.9358	396.5957	445.9063	486.5209	585.7119	639.8652	748.9086	830.2706	848.3039	878.7621	906.0678	925.6217	934.0117	969.599	1015.9796	1030.7482	1039.6676	1075.7185	1104.9908	1114.6447	1134.3942	1177.9954	1223.6374	1235.9866	1259.9718	1308.5626	1329.6498	1401.0582	1418.2042	1444.4623	1475.4287	1485.6827	1498.5121	1515.9701	3020.6574	3065.2347	3080.6099	3094.7217	3104.6746	3126.2982	3185.5319	3189.2829	3447.953	3482.1243
CC12NC1CC21CN1	C[C@]12N[C@H]1C[C@]12CN1	
InChI=1S/C6H10N2/c1-5-4(8-5)2-6(5)3-7-6/h4,7-8H,2-3H2,1H3	InChI=1S/C6H10N2/c1-5-4(8-5)2-6(5)3-7-6/h4,7-8H,2-3H2,1H3/t4-,5-,6+/m0/s1
