16
gdb 84354	2.1694	1.68312	1.37663	4.2919	69.1	-0.2747	-0.0292	0.2455	996.0786	0.125081	-437.900961	-437.892826	-437.891882	-437.933751	30.776	
O	 0.0208354949	 1.4098966051	-0.1252485628	-0.439438
C	 0.0335518819	-0.0203785772	-0.064213437	 0.046862
C	 0.6499938962	-0.5553471091	 1.2020486476	-0.101027
C	-0.2781235104	-0.9347435774	 2.0814917937	-0.068886
C	-1.6870998723	-0.7356334022	 1.541508393	-0.259559
C	-2.2978568556	 0.4634134695	 2.1181388123	 0.281102
N	-2.7323914784	 1.4357393526	 2.5688785362	-0.328885
C	-1.4161535185	-0.5736126658	-0.0046693109	 0.11165
O	-2.333936582	 0.2037676428	-0.703837679	-0.421439
H	-0.1295352353	 1.7500724907	 0.7656787015	 0.298727
H	 0.5446991662	-0.3369934089	-0.9770397223	 0.102801
H	 1.7201982593	-0.5773494687	 1.3702445465	 0.119166
H	-0.0945104915	-1.3174406552	 3.0783657268	 0.12753
H	-2.346541797	-1.58618416	 1.7411564012	 0.131475
H	-1.4292716583	-1.5850017409	-0.4246740208	 0.104356
H	-1.9703268291	 1.1025376345	-0.710386676	 0.295567
69.056	139.7308	180.0804	271.1447	294.5837	362.2936	371.2578	460.0448	524.8832	557.2397	576.5115	596.7634	738.3304	773.5729	785.5224	849.175	885.7032	971.655	986.1828	1005.6905	1056.091	1090.0008	1134.449	1150.8902	1200.7576	1248.3708	1290.0731	1292.0136	1312.1319	1350.3276	1372.937	1422.352	1442.0991	1671.6004	2349.536	3053.0795	3067.4132	3085.7343	3197.3436	3220.1816	3712.3215	3785.0397
OC1C=CC(C#N)C1O	O[C@H]1C=C[C@@H](C#N)[C@H]1O	
InChI=1S/C6H7NO2/c7-3-4-1-2-5(8)6(4)9/h1-2,4-6,8-9H	InChI=1S/C6H7NO2/c7-3-4-1-2-5(8)6(4)9/h1-2,4-6,8-9H/t4-,5-,6+/m0/s1
