15
gdb 46231	2.78871	1.37498	1.09189	3.1571	73.87	-0.2477	-0.0458	0.2018	1112.3641	0.109517	-420.569781	-420.561425	-420.560481	-420.603135	30.757	
O	 0.0188986308	 0.0336294841	-0.1620705892	-0.290689
C	-0.022498561	 1.2144124406	 0.0058847326	 0.338965
C	-1.1189010909	 2.2218558281	 0.4258438153	-0.34386
C	-0.0134440282	 3.3107753376	 0.5946577464	-0.341244
C	 1.0042597293	 2.3459584901	-0.0378379714	 0.352778
O	 2.3797121867	 2.2591235239	 0.2365321588	-0.259863
C	 2.0066966799	 2.6105059637	-1.1048201672	-0.282841
C	 2.2876692146	 1.6696515427	-2.150873576	 0.365326
C	 2.5287753293	 0.911956459	-3.0515236394	-0.408927
H	-1.8326329996	 2.4192838121	-0.3788768383	 0.140348
H	-1.6722515316	 1.94078773	 1.3244355243	 0.140843
H	-0.17362614	 4.2502196482	 0.0638734712	 0.120748
H	 0.2222407	 3.5237561524	 1.6397598515	 0.132859
H	 2.182821123	 3.6579882322	-1.3495731659	 0.125775
H	 2.7351604678	 0.2264052354	-3.8363812526	 0.209781
76.9603	90.0274	146.066	225.6827	248.173	305.2431	461.8631	467.4859	529.4558	566.148	633.201	645.8449	680.9227	707.0508	756.8735	844.5971	875.9123	928.489	997.0512	1030.3811	1032.367	1061.2674	1095.5119	1134.5794	1209.8348	1220.4318	1241.5784	1334.1958	1428.9175	1447.0482	1483.0472	1897.2625	2244.093	3070.7117	3079.7115	3112.0218	3122.6578	3138.212	3501.6516
O=C1CCC11OC1C#C	O=C1CC[C@]21O[C@H]2C#C	
InChI=1S/C7H6O2/c1-2-6-7(9-6)4-3-5(7)8/h1,6H,3-4H2	InChI=1S/C7H6O2/c1-2-6-7(9-6)4-3-5(7)8/h1,6H,3-4H2/t6-,7+/m0/s1
