19
gdb 121328	3.1476	1.13551	0.87785	3.4866	72.	-0.2524	0.0093	0.2616	1319.2611	0.159376	-460.195751	-460.186642	-460.185698	-460.230969	32.132	
C	-0.0860159353	 0.8121751354	 0.4904783758	-0.249105
O	-0.3787363182	 0.2745026931	-0.7895049386	-0.238572
C	 0.68300529	-0.3908299499	-1.4265544559	-0.089622
C	 0.7458970822	-1.9046179857	-1.1291520531	-0.146978
C	 1.3419132509	-2.7606964445	-2.2557459367	-0.254842
C	 1.8762479332	-3.9768035982	-1.4919200428	-0.087747
O	 2.233733508	-3.4825591978	-0.1893408122	-0.216076
C	 1.6077899063	-2.304199128	 0.0708931425	 0.435082
O	 1.7670769946	-1.7225139372	 1.1070858063	-0.337666
H	 0.1814149891	 0.0370673987	 1.2151679865	 0.146006
H	 0.7430342672	 1.533991682	 0.4359824497	 0.103232
H	-0.9870324788	 1.336588177	 0.8183478695	 0.119079
H	 0.5091037766	-0.2734702484	-2.5029515334	 0.105131
H	 1.6497714296	 0.0793576669	-1.191228248	 0.101575
H	-0.2790843477	-2.230372465	-0.90890993	 0.122604
H	 0.6192900325	-3.0324403902	-3.0276049604	 0.120268
H	 2.1675805948	-2.2245615191	-2.7379914082	 0.119722
H	 1.1128330297	-4.7550042449	-1.3734392513	 0.119578
H	 2.7683677553	-4.4256200442	-1.9332141095	 0.128334
31.8869	84.4296	113.4439	188.2292	194.5419	204.5274	305.157	350.5331	438.2979	513.217	603.5051	673.4337	712.7439	779.9025	891.9204	928.0759	947.4704	970.2148	1032.1984	1062.6806	1102.2606	1117.0628	1154.2232	1171.6395	1187.0992	1208.7332	1218.918	1238.2955	1274.5377	1297.4184	1343.5096	1360.031	1401.4871	1409.3569	1475.7607	1485.7866	1493.4425	1495.7903	1518.5029	1525.2789	1866.3676	2988.5694	2994.8696	3033.4581	3037.6263	3047.3285	3053.5631	3079.5085	3108.8204	3118.2356	3124.2646
COCC1CCOC1=O	COC[C@H]1CCOC1=O	
InChI=1S/C6H10O3/c1-8-4-5-2-3-9-6(5)7/h5H,2-4H2,1H3	InChI=1S/C6H10O3/c1-8-4-5-2-3-9-6(5)7/h5H,2-4H2,1H3/t5-/m1/s1
