18
gdb 41002	3.22393	1.92497	1.4702	1.5578	75.73	-0.2373	0.0674	0.3048	906.6919	0.15008	-401.827069	-401.820795	-401.819851	-401.857378	26.654	
C	-0.1431646614	 1.5407328122	 0.0753208193	-0.237115
C	 1.3644115615	 1.2386097555	 0.0101330686	-0.043319
N	 1.1844300995	 0.1564185991	 1.0488554566	-0.134017
C	 2.2982150078	-0.7997537391	 0.7274687242	-0.232207
C	 2.1258899496	-0.9693812126	-0.7922306656	 0.104639
O	 2.9353855843	-0.4306997225	-1.8966209933	-0.308374
C	 1.7267339511	 0.1694580469	-2.459277285	-0.227544
C	 1.1180409399	 0.1067342815	-1.0445930854	 0.326143
C	-0.0022215993	 0.01088599	 0.0210555349	-0.151405
H	-0.5011400162	 1.9623541693	 1.0154001009	 0.109095
H	-0.5951300694	 2.0140479102	-0.7976938422	 0.099175
H	 2.2099570237	 1.9283629938	 0.0573699781	 0.085258
H	 3.2417177401	-0.3332531801	 1.0247561876	 0.123432
H	 2.1785963108	-1.7375689646	 1.2753279015	 0.107692
H	 1.8122757081	-1.9870928332	-1.0622438505	 0.074151
H	 1.914821046	 1.1562090364	-2.8914157217	 0.114104
H	 1.2675558772	-0.492123095	-3.2047185254	 0.105066
H	-0.7613992134	-0.7630111077	 0.1448616475	 0.085227
190.4475	297.2347	306.4436	361.1022	461.3136	547.7131	646.6376	681.6672	702.0728	777.5791	789.7974	865.1412	884.2473	904.3336	925.8251	932.335	966.9916	1027.3977	1034.8909	1043.2602	1050.2164	1079.1259	1099.5585	1127.333	1137.1612	1147.3308	1179.9403	1189.5469	1218.6092	1226.3651	1261.3043	1273.3108	1295.5781	1306.2322	1342.0417	1377.5036	1481.167	1497.6194	1511.9785	3006.1023	3021.6434	3064.212	3076.1617	3092.7878	3094.5194	3107.5014	3117.1386	3149.0532
C1C2N3CC4OCC24C13	C1[C@H]2N3C[C@@H]4OC[C@]24[C@H]13	
InChI=1S/C7H9NO/c1-4-7-3-9-6(7)2-8(4)5(1)7/h4-6H,1-3H2	InChI=1S/C7H9NO/c1-4-7-3-9-6(7)2-8(4)5(1)7/h4-6H,1-3H2/t4-,5+,6-,7-/m0/s1
