13
gdb 131912	4.23071	1.18065	0.92368	6.9098	72.71	-0.2226	-0.0699	0.1527	1156.4736	0.089429	-489.828048	-489.820534	-489.81959	-489.860316	27.731	
N	 0.169851581	 1.2841685656	 0.179311242	-0.591546
C	-0.0305385389	-0.0629595935	 0.0667927762	 0.413851
C	-1.1644839959	-0.8472097506	 0.0277019611	-0.257415
C	-0.7024515539	-2.1867542141	-0.0137211151	-0.194022
C	 0.6594803225	-2.1205048164	 0.0017998214	 0.428902
O	 1.0833155367	-0.819481447	 0.0504488786	-0.17132
N	 1.6470990213	-3.1284725867	-0.0312451027	 0.320818
O	 1.2353549898	-4.2902675839	-0.0742670956	-0.393431
O	 2.8275257712	-2.7860477922	-0.0163252315	-0.380209
H	 1.0793206836	 1.6097788953	-0.1145740814	 0.277438
H	-0.5922225658	 1.8665631518	-0.1306149083	 0.273222
H	-2.184767692	-0.5005439991	 0.0327075864	 0.120235
H	-1.2813960295	-3.0943059494	-0.052572301	 0.153475
93.3954	154.8663	191.4645	279.1851	311.3539	386.0998	442.4034	527.0394	558.0362	589.516	699.4081	717.9656	761.3563	766.845	821.3009	899.8811	977.2272	1006.0022	1039.6377	1079.619	1229.8881	1265.2275	1314.4893	1405.1108	1462.7852	1563.4767	1597.6193	1622.0293	1663.9299	3267.5881	3287.8131	3581.0231	3691.3198
NC1=CC=C(O1)N(=O)=O	Nc1ccc(o1)N(=O)=O	
InChI=1S/C4H4N2O3/c5-3-1-2-4(9-3)6(7)8/h1-2H,5H2	InChI=1S/C4H4N2O3/c5-3-1-2-4(9-3)6(7)8/h1-2H,5H2
