21
gdb 48360	2.9162	1.10933	0.99249	2.8078	83.38	-0.2461	-0.0217	0.2244	1301.7018	0.182217	-387.079817	-387.070911	-387.069967	-387.1138	33.669	
O	-0.0012002532	 0.0691965773	 0.8388260622	-0.279417
C	 0.1963319295	 0.872206307	-0.044599514	 0.082279
C	 1.3142845713	 1.8550535387	-0.0578983404	 0.253416
C	 1.7346524814	 2.3495669849	 1.3278767058	-0.29072
C	 2.5937596984	 1.3626461175	 0.6220067139	-0.290688
C	 1.4309821576	 2.7972600936	-1.2334091154	-0.051313
C	 1.4844616642	 2.2515527009	-2.69342329	-0.241147
C	 0.6608909847	 3.4899742272	-3.1400547767	-0.207725
C	 0.2287292931	 3.6932532061	-1.6624434103	-0.241146
H	-0.4815638479	 0.9107271356	-0.9250608893	 0.071979
H	 2.063091757	 3.3810220046	 1.3939198336	 0.118269
H	 1.1378415181	 1.9919984644	 2.1589314653	 0.139109
H	 2.5772462452	 0.3384913205	 0.9763023487	 0.139097
H	 3.5303901071	 1.6953889516	 0.1882532402	 0.118277
H	 2.303494994	 3.4390974917	-1.0682421995	 0.068834
H	 2.4708952512	 2.0985452232	-3.1379294062	 0.098954
H	 0.910687118	 1.3264585446	-2.8052048724	 0.104245
H	 1.3062190141	 4.3013118564	-3.4886316528	 0.104119
H	-0.1269283485	 3.3327048686	-3.8796994744	 0.100378
H	-0.7327580856	 3.213261556	-1.4558960751	 0.104244
H	 0.1944245602	 4.7120875497	-1.2689384532	 0.098957
69.4152	110.231	115.2697	200.7468	225.4028	270.6566	315.5509	373.767	459.9467	542.3183	677.1199	730.3577	780.0985	795.397	822.6211	831.0861	896.7075	932.4821	938.1064	958.5321	967.5413	992.0966	1044.1902	1051.022	1057.337	1062.1683	1098.425	1127.4743	1200.8256	1207.5024	1232.106	1255.5291	1263.8657	1264.4467	1290.6348	1290.7358	1319.9927	1400.9906	1443.6312	1451.4538	1479.0089	1481.5118	1488.7034	1511.0279	1800.3996	2888.878	3036.0622	3052.1267	3055.9124	3061.9612	3099.5516	3104.6569	3121.215	3135.6929	3137.236	3224.2379	3238.2472
O=CC1(CC1)C1CCC1	O=CC1(CC1)C1CCC1	
InChI=1S/C8H12O/c9-6-8(4-5-8)7-2-1-3-7/h6-7H,1-5H2	InChI=1S/C8H12O/c9-6-8(4-5-8)7-2-1-3-7/h6-7H,1-5H2
