19
gdb 73047	3.27406	1.03401	0.92329	1.0974	81.18	-0.2442	0.0581	0.3022	1314.8157	0.15761	-385.819994	-385.810955	-385.810011	-385.854031	34.547	
O	-0.0364252447	 1.4312301041	-0.2495620027	-0.459294
C	 0.0211098459	 0.0556888088	-0.0955376071	 0.361273
C	 0.5879510431	-0.8888601484	-1.1647171194	-0.299249
C	-0.5904616575	-1.8770214185	-0.8771319427	-0.228672
C	-1.1461214463	-0.8977883325	 0.1639049986	-0.111411
C	-0.1267182877	-0.607429342	 1.2458022517	-0.071611
C	 0.83330387	-1.6255300496	 1.8542627303	-0.394586
C	 0.1974625464	-2.4598307943	 2.8694559066	 0.317015
C	-0.3487922054	-3.1296115302	 3.7048461505	-0.455858
H	 0.7324305072	 1.8205592784	 0.1809605075	 0.284385
H	 0.5088166021	-0.4422241959	-2.15803034	 0.112757
H	 1.6111917145	-1.2548751079	-1.0253897067	 0.089895
H	-1.2487685386	-1.997181885	-1.7395111018	 0.10795
H	-0.321288479	-2.8714940136	-0.5087331131	 0.104496
H	-2.1942538664	-0.6727531699	 0.3177318587	 0.092566
H	-0.529172899	 0.0879748234	 1.979288062	 0.098521
H	 1.258478893	-2.2668997079	 1.074293209	 0.132689
H	 1.6856507273	-1.0971021369	 2.3022326839	 0.125176
H	-0.823930085	-3.728273772	 4.4416139746	 0.193957
41.7898	111.8384	197.872	228.9216	249.2331	280.3552	342.3346	367.6488	419.1534	481.4307	567.7794	618.4015	627.4263	633.7058	723.9398	791.3298	829.0227	893.6288	913.8895	947.9401	959.0473	965.1223	1012.094	1031.5535	1075.8773	1118.8959	1131.013	1198.1143	1219.3409	1220.3278	1233.1018	1258.2129	1294.9095	1311.2118	1325.246	1354.7052	1464.7702	1465.9561	1487.3353	1514.5841	2237.7504	3018.2756	3040.1508	3058.5876	3064.833	3102.6011	3119.9428	3139.5621	3190.062	3506.9939	3795.0235
OC12CCC1C2CC#C	O[C@]12CC[C@H]1[C@H]2CC#C	
InChI=1S/C8H10O/c1-2-3-6-7-4-5-8(6,7)9/h1,6-7,9H,3-5H2	InChI=1S/C8H10O/c1-2-3-6-7-4-5-8(6,7)9/h1,6-7,9H,3-5H2/t6-,7+,8+/m1/s1
