13
gdb 131365	3.64315	1.60437	1.11431	2.8229	64.99	-0.2155	0.0104	0.2259	976.419	0.0932	-448.929399	-448.922607	-448.921663	-448.960354	26.205	
O	 0.0897530573	 1.3416932783	 0.0261839421	-0.420243
C	 0.0710363806	-0.0025112329	 0.0571725397	 0.274545
N	 0.0781341248	-0.7229360003	-1.045387814	-0.332914
N	 0.1151408239	-2.0551253274	-0.6341618393	-0.378691
C	 0.0312012355	-2.1024525453	 0.7184009806	 0.505453
C	 0.0446899707	-0.8093315834	 1.2317235628	 0.116943
C	 0.0304536223	-0.9980910036	 2.639376084	-0.164913
N	 0.0058967757	-2.2838995746	 2.9509145942	-0.213715
N	 0.0182934072	-2.9679185743	 1.75509043	-0.363007
H	 0.1098652286	 1.6036582186	-0.903836132	 0.305207
H	-0.1643877096	-2.7506870577	-1.3031738971	 0.271089
H	 0.0346993498	-0.2638467895	 3.4305313951	 0.125682
H	-0.0288110268	-3.970555598	 1.769517934	 0.274561
202.5948	247.0841	262.389	297.9021	331.8019	424.7764	472.3288	555.6893	649.8405	651.8287	664.9698	694.2519	766.8448	848.6637	881.6342	970.9225	1038.2632	1060.9624	1152.5199	1219.985	1243.3216	1310.9854	1370.3817	1394.6007	1450.6984	1508.4568	1563.77	1596.2042	1656.9842	3255.0912	3682.2636	3698.5702	3783.3203
OC1=NNC2=C1C=NN2	Oc1n[nH]c2c1cn[nH]2	
InChI=1S/C4H4N4O/c9-4-2-1-5-6-3(2)7-8-4/h1H,(H3,5,6,7,8,9)	InChI=1S/C4H4N4O/c9-4-2-1-5-6-3(2)7-8-4/h1H,(H3,5,6,7,8,9)
