23
gdb 110298	2.08389	1.40096	1.20534	1.3323	85.23	-0.2424	0.068	0.3103	1226.9785	0.205331	-388.26155	-388.251867	-388.250923	-388.295633	37.199	
C	-1.4532074127	 0.6375619105	 0.5152659567	-0.38096
C	 0.0142950841	 0.4553320771	 0.1112078002	-0.199184
C	 0.8175604169	-0.3172652426	 1.1579217269	 0.0176
C	 0.4764202698	-1.7902908876	 1.4458133215	-0.140503
C	 0.8568401188	-2.7229389397	 0.3353411202	 0.107872
O	 0.7696895071	-2.4289982651	-1.0358007332	-0.416509
C	 1.9594025795	-2.1926120968	 1.1792002989	-0.11161
C	 2.3182378137	-0.7253841433	 0.8937795191	-0.007301
C	 3.0214366734	-0.3653284288	-0.4124157718	-0.414589
H	-1.540317196	 1.1789090956	 1.4643684799	 0.111179
H	-2.0092740021	 1.2011922771	-0.2405636343	 0.109054
H	-1.9535945319	-0.3290877213	 0.6434016305	 0.110293
H	 0.0734156052	-0.0529314994	-0.854534522	 0.102389
H	 0.4756568095	 1.4420087301	-0.0282809958	 0.090266
H	 0.7728198028	 0.2422529758	 2.0994469197	 0.067116
H	-0.177799661	-2.1200191733	 2.2460459872	 0.079134
H	 0.6216582015	-3.7642239687	 0.5650983076	 0.086252
H	-0.1601878383	-2.4646315536	-1.284066959	 0.284783
H	 2.5915755787	-2.8671362845	 1.7467374472	 0.081983
H	 2.92123385	-0.3487699577	 1.726587839	 0.07027
H	 2.4691620729	-0.7220596555	-1.2821620629	 0.143483
H	 3.152613871	 0.7194584752	-0.49836538	 0.103155
H	 4.0195077673	-0.8177354534	-0.4400323755	 0.105827
78.7218	141.7298	165.5602	203.3314	210.3609	226.2949	267.0717	319.45	333.6431	372.5062	485.6621	537.718	655.9662	699.3263	719.0616	766.0054	798.9284	822.9554	904.3443	930.969	972.4279	986.9217	994.7498	1011.6708	1052.404	1058.8639	1086.1845	1091.1904	1127.8806	1156.6195	1182.9719	1221.3013	1230.759	1275.8089	1287.6063	1301.1215	1310.2409	1348.113	1359.4493	1376.3785	1395.0569	1406.0721	1410.2343	1465.4084	1488.9327	1495.4041	1499.5476	1507.8674	1512.6427	3019.6828	3024.9915	3026.1481	3029.7571	3047.6129	3080.8135	3081.1935	3083.7217	3097.1513	3107.0385	3148.1426	3156.9707	3168.4889	3804.8365
CCC1C2C(O)C2C1C	CC[C@H]1[C@H]2[C@@H](O)[C@H]2[C@H]1C	
InChI=1S/C8H14O/c1-3-5-4(2)6-7(5)8(6)9/h4-9H,3H2,1-2H3	InChI=1S/C8H14O/c1-3-5-4(2)6-7(5)8(6)9/h4-9H,3H2,1-2H3/t4-,5+,6-,7+,8-/m0/s1
