17
gdb 31985	4.66539	0.93124	0.80092	2.4884	72.02	-0.2174	0.0135	0.2308	1413.9382	0.136341	-455.157477	-455.148304	-455.14736	-455.192843	31.678	
C	 0.0357333454	 1.3414221988	-0.4574201841	-0.255373
O	-0.15439978	-0.0567715851	-0.7076354906	-0.266545
C	-1.2347477892	-0.6083308455	-0.1577114945	 0.38546
C	-1.4442573568	-1.7749857151	 0.4939590447	-0.228066
N	-2.8085614987	-1.8972989029	 0.758567654	-0.310592
C	-3.3424490625	-0.8234404184	 0.2794451434	 0.380725
C	-4.7853640864	-0.4053625262	 0.3065820589	-0.275411
N	-5.6822063835	-1.3646095972	 0.935707665	-0.486095
O	-2.4438499216	 0.0241885596	-0.3091422402	-0.224143
H	 0.9755312606	 1.6077457862	-0.9417705466	 0.143069
H	-0.7808411794	 1.9306576958	-0.8842191662	 0.142983
H	 0.1047426042	 1.5347124852	 0.619188605	 0.13
H	-0.7256626431	-2.5239308753	 0.7803302438	 0.12414
H	-4.8677350968	 0.5584623898	 0.8258068477	 0.130172
H	-5.1229999316	-0.2168969558	-0.7204961071	 0.132446
H	-5.5974906849	-2.255326857	 0.4527470564	 0.238552
H	-5.3482322257	-1.5536073169	 1.8773103304	 0.238676
40.9278	51.2321	139.834	151.5634	179.7871	220.1265	272.4122	362.5735	427.2123	504.3316	663.1499	679.4441	708.762	727.6913	818.1309	911.5951	939.1656	963.8342	993.0277	1050.2108	1123.794	1143.0266	1174.107	1185.0945	1197.1691	1215.3642	1292.2966	1316.296	1390.2059	1394.3832	1473.218	1476.8069	1487.5081	1503.4106	1622.5537	1678.5251	1679.2256	3022.5739	3029.4724	3051.5828	3105.8485	3151.6065	3279.1014	3491.3832	3557.3445
COC1=CN=C(CN)O1	COc1cnc(CN)o1	
InChI=1S/C5H8N2O2/c1-8-5-3-7-4(2-6)9-5/h3H,2,6H2,1H3	InChI=1S/C5H8N2O2/c1-8-5-3-7-4(2-6)9-5/h3H,2,6H2,1H3
