16
gdb 40388	3.7624	1.2913	1.17508	4.1738	68.	-0.2437	0.0421	0.2858	1063.78	0.123319	-437.748586	-437.741314	-437.74037	-437.78078	28.19	
C	 0.2149952242	 1.5526879256	-0.1007783588	-0.248457
N	 1.2540141534	 0.5219963822	-0.2113691993	-0.306222
C	-0.1405432101	 0.1147544337	 0.0390123972	-0.176442
C	-0.4129702612	-0.5082699232	 1.3493058067	 0.490772
O	-0.7480098397	-1.8967642812	 1.4218322275	-0.266807
C	-1.6398981018	-0.9529586111	 2.0164354106	-0.124846
C	-1.0370308861	-0.5220363445	 3.415687061	-0.013561
O	 0.1843942484	-1.230522649	 3.60367695	-0.208321
C	 0.192707562	-0.0869565123	 2.7542946263	-0.06888
H	 0.291750802	 2.1869943319	 0.7783148423	 0.121162
H	-0.1245577515	 2.0670732267	-0.9959902633	 0.119303
H	 1.4998525953	 0.3597556593	-1.1837359307	 0.240374
H	-0.6985595937	-0.3376213451	-0.7776262709	 0.098367
H	-2.6771693607	-0.9469828105	 1.7041885319	 0.111841
H	-1.5648578272	-0.1477868897	 4.2836461838	 0.113308
H	 0.8912796067	 0.7125025472	 2.9636641757	 0.118408
68.6369	146.9626	155.8289	365.9884	389.5478	429.3121	507.1394	583.5205	692.1074	769.2857	801.0459	825.2591	842.454	859.0756	887.0442	894.3647	915.7569	943.4662	978.7589	988.1089	992.4155	1028.6598	1063.8487	1121.3747	1141.9463	1191.1769	1201.8231	1237.9485	1243.585	1270.4091	1284.3966	1355.8659	1380.128	1496.543	1524.4074	3107.6167	3136.9337	3190.4371	3191.0068	3198.5758	3212.9244	3514.9393
C1NC1C12OC1C1OC21	C1N[C@H]1[C@]12O[C@H]1[C@H]1O[C@@H]21	
InChI=1S/C6H7NO2/c1-2(7-1)6-4-3(8-4)5(6)9-6/h2-5,7H,1H2	InChI=1S/C6H7NO2/c1-2(7-1)6-4-3(8-4)5(6)9-6/h2-5,7H,1H2/t2-,3+,4-,5+,6-/m1/s1
