18
gdb 40460	4.04327	1.32228	1.24229	1.2761	74.78	-0.2274	0.0725	0.2999	1052.4475	0.148772	-401.846903	-401.839767	-401.838823	-401.878745	28.619	
C	 1.1610245551	 0.9295490845	 0.0150177142	-0.231154
N	 0.3130520552	 0.1154642341	-0.868378351	-0.314744
C	-0.2529054691	 0.652189215	 0.3814609881	-0.197133
C	-0.6107496377	-0.3488911312	 1.4171567608	 0.514415
C	 0.1935465044	-1.6453958603	 1.7069774918	-0.275695
C	-1.0825953514	-2.1294078001	 2.3930615207	-0.127304
C	-1.6995529962	-0.8549830514	 2.9976946224	 0.099859
O	-0.8046398982	 0.2281816973	 2.7497141379	-0.341218
C	-1.9510226453	-1.1825997869	 1.5704351134	-0.208981
H	 1.9621748956	 0.38465782	 0.5049069987	 0.126692
H	 1.4151378256	 1.942934883	-0.2831993314	 0.116272
H	-0.0072949704	 0.6706479355	-1.6568828123	 0.236454
H	-0.9489556273	 1.485560283	 0.3117958186	 0.091642
H	 0.3951729839	-2.1966265014	 0.7868825904	 0.124028
H	 1.1036913249	-1.5239501994	 2.3035771031	 0.094128
H	-1.3291798098	-3.1227254919	 2.7451764535	 0.09052
H	-2.3405149765	-0.8211612499	 3.8684340846	 0.105074
H	-2.8346335029	-1.3198593099	 0.9631874266	 0.097144
68.5595	176.8729	180.5622	351.004	403.6358	495.3981	541.9509	622.4274	761.3725	765.5008	789.437	810.9412	849.6214	887.345	890.5867	916.0807	934.987	964.0907	970.9286	987.941	1011.6521	1025.8212	1038.4893	1060.9018	1085.1034	1105.8227	1121.1927	1147.3876	1173.6308	1185.8071	1241.1209	1247.0879	1276.6239	1287.7815	1334.7155	1358.734	1464.7443	1493.4528	1513.8541	3047.4767	3115.281	3129.5334	3130.7523	3198.4211	3202.4894	3204.2156	3220.3944	3511.5429
C1NC1C12CC3C(O1)C23	C1N[C@H]1[C@@]12C[C@H]3[C@@H](O1)[C@@H]23	
InChI=1S/C7H9NO/c1-3-5-6(3)9-7(1,5)4-2-8-4/h3-6,8H,1-2H2	InChI=1S/C7H9NO/c1-3-5-6(3)9-7(1,5)4-2-8-4/h3-6,8H,1-2H2/t3-,4-,5+,6-,7-/m1/s1
