18
gdb 86952	2.20559	1.57584	1.47563	2.4879	68.44	-0.2464	0.005	0.2513	1010.9478	0.148203	-476.203443	-476.195182	-476.194237	-476.236037	31.859	
O	-0.6742161049	 0.7684604044	 1.7310173513	-0.445012
C	-0.2260670136	 0.0904580172	 0.5860032276	 0.073809
C	 0.536514416	-1.2448385909	 0.843828257	-0.298945
C	-0.6949823601	-2.056709356	 0.3544666512	 0.06733
O	-1.4223411233	-2.8927771402	 1.2678305528	-0.203287
C	-1.7777486764	-2.5521890035	 2.4978334815	 0.167754
N	-1.4991969253	-1.472112212	 3.1096948426	-0.501489
C	-1.3797310451	-0.7192488787	-0.1108026274	 0.115779
O	-2.663564843	-0.4353665118	 0.3442828404	-0.429481
H	-0.8899662467	 0.0752065681	 2.395479444	 0.307744
H	 0.2837936847	 0.8203773644	-0.0475731023	 0.082409
H	 1.4015135227	-1.3918387728	 0.1918767098	 0.109208
H	 0.8489215175	-1.4029780994	 1.8755179758	 0.128045
H	-0.4830067689	-2.7469886229	-0.4627625041	 0.100158
H	-2.3468230749	-3.3784045461	 2.9337913238	 0.122511
H	-1.8873733551	-1.4854220099	 4.0485430676	 0.241031
H	-1.3530454628	-0.654335814	-1.2057924341	 0.076627
H	-2.5333920406	 0.1920156542	 1.0742004526	 0.285809
112.0317	156.8183	187.7083	242.9584	270.4928	283.662	391.9763	412.7977	469.7563	571.0789	583.8592	709.8343	754.1866	759.9207	802.0966	839.0556	853.6733	920.1549	923.6495	995.5548	1037.0139	1045.5216	1083.9869	1130.4543	1166.6212	1181.5726	1206.9174	1253.8198	1265.8905	1279.8319	1334.7686	1356.4062	1362.9939	1421.8502	1430.4767	1433.5503	1463.8834	1537.4237	1702.2615	3022.4479	3070.0781	3081.5404	3094.2829	3103.8039	3145.5657	3389.6477	3534.1867	3675.5507
OC1CC(OC=N)C1O	O[C@H]1C[C@@H](O[CH][NH])[C@H]1O	
InChI=1S/C5H9NO3/c6-2-9-4-1-3(7)5(4)8/h2-8H,1H2	InChI=1S/C5H9NO3/c6-2-9-4-1-3(7)5(4)8/h2-8H,1H2/t3-,4+,5-/m0/s1
