12
gdb 21600	3.64929	1.9764	1.28388	3.9773	65.28	-0.222	-0.0339	0.1882	864.4765	0.083815	-377.472992	-377.465965	-377.46502	-377.504075	26.254	
N	 0.0833270673	 1.3819504521	 0.1684084236	-0.617607
C	 0.0061032482	-0.0005013279	 0.0432789872	 0.063614
C	-1.0638235835	-0.8412326712	 0.0176668876	-0.014948
O	-0.6411573409	-2.1266131704	-0.0425139066	-0.158699
N	 0.72707703	-2.1656197537	-0.0554387263	-0.209018
C	 1.1215258026	-0.9032528077	-0.0057910542	 0.235653
C	 2.4863513635	-0.5288988489	-0.0131959	 0.238978
C	 3.623309292	-0.1341840578	-0.0251118241	-0.397749
H	 0.9699709093	 1.7523008214	-0.1480357197	 0.256872
H	-0.6852429487	 1.8835149969	-0.2538183989	 0.253946
H	-2.1310010127	-0.6931783704	 0.0363252558	 0.145329
H	 4.636321053	 0.1853696277	-0.0291857644	 0.203629
132.6468	166.1939	224.1663	318.622	345.2495	480.6518	536.1339	595.9515	600.2119	603.2648	668.8004	684.3494	735.5799	739.6977	779.8364	929.617	991.0034	1114.3977	1133.0466	1246.8701	1313.6609	1426.0635	1495.8648	1644.1915	1674.6516	2237.6575	3277.4508	3500.5857	3549.143	3644.7955
NC1=CON=C1C#C	Nc1conc1C#C	
InChI=1S/C5H4N2O/c1-2-5-4(6)3-8-7-5/h1,3H,6H2	InChI=1S/C5H4N2O/c1-2-5-4(6)3-8-7-5/h1,3H,6H2
