19
gdb 72288	3.00848	1.61649	1.32975	1.1193	73.79	-0.2199	0.0788	0.2987	1004.7149	0.16131	-422.990846	-422.983434	-422.98249	-423.0223	30.22	
O	-0.1021074249	 1.4489166771	-0.0338421855	-0.458588
C	 0.0098937114	 0.0677860246	-0.0771746411	 0.328831
C	 0.6129785677	-0.6818172051	-1.2636498436	-0.321856
C	-0.4052212731	-1.8482483745	-1.0129406124	-0.029555
C	 0.1710436442	-3.1097010223	-0.3619129359	-0.22588
C	 1.1224974889	-2.7459183417	 0.7830204071	-0.064821
O	 0.5883385232	-1.7952206483	 1.697104754	-0.265824
C	-0.2066064333	-0.7758464119	 1.1584237241	 0.055322
C	-1.1438480742	-0.9575094135	 0.0096795788	-0.174615
H	 0.6328178824	 1.7970500167	 0.4829202867	 0.286838
H	 0.3671286264	-0.1559401723	-2.1898200977	 0.109231
H	 1.6853839972	-0.9007551749	-1.2589527784	 0.090414
H	-0.9966374297	-2.092976488	-1.89633342	 0.075785
H	-0.6531636963	-3.7265332068	 0.0166043874	 0.105072
H	 0.7239622847	-3.7154563884	-1.0896781603	 0.097022
H	 1.3612568404	-3.6294217631	 1.3827229721	 0.104204
H	 2.070620216	-2.3684899792	 0.3721376028	 0.094412
H	-0.6070511749	-0.1840074389	 1.9765362847	 0.104142
H	-2.215896636	-0.8151500595	 0.0750193171	 0.089864
140.4057	193.714	281.5639	301.9485	321.8251	404.3775	421.7011	526.7748	539.9692	617.5696	689.6801	747.1475	788.5582	830.3074	871.7581	906.827	931.6773	970.23	973.9161	989.2914	1028.9258	1076.8412	1083.7617	1100.7329	1123.8883	1156.8491	1200.4247	1219.9687	1236.4309	1255.6442	1273.7757	1305.4768	1326.081	1331.595	1342.7294	1375.5813	1413.7291	1457.6911	1478.515	1503.4331	1523.4504	2991.4975	3025.9531	3047.7642	3067.4813	3077.4538	3088.2544	3104.3285	3160.7817	3183.448	3795.0848
OC12CC3CCOC1C23	O[C@@]12C[C@H]3CCO[C@@H]1[C@@H]23	
InChI=1S/C7H10O2/c8-7-3-4-1-2-9-6(7)5(4)7/h4-6,8H,1-3H2	InChI=1S/C7H10O2/c8-7-3-4-1-2-9-6(7)5(4)7/h4-6,8H,1-3H2/t4-,5+,6-,7-/m1/s1
