18
gdb 34371	2.59073	1.62741	1.28182	4.1882	80.7	-0.2572	0.0058	0.263	1034.0125	0.149852	-364.833902	-364.826366	-364.825422	-364.865943	29.52	
N	 0.0116621668	-1.043731861	-0.5748824308	-0.353386
C	 0.0000974586	 0.0720183073	-0.2690024987	 0.218202
C	-0.0118381836	 1.472732354	 0.1089793058	 0.173382
C	-0.413032522	 2.4373713508	-1.0644457303	-0.264229
C	 1.0579852969	 2.9133639712	-1.1952097952	-0.221142
C	 1.3995648429	 2.1897668565	 0.1400604909	-0.091538
C	 1.3036420369	 3.0284764066	 1.3829749975	-0.078935
C	 0.1913330951	 2.8076482264	 2.0829312791	-0.066401
C	-0.6926157418	 1.743608119	 1.4765019449	-0.330415
H	-0.8471315615	 1.954077315	-1.9404729387	 0.125486
H	-1.0952788193	 3.2160922188	-0.7169360317	 0.114812
H	 1.5699305274	 2.4672039811	-2.0510086096	 0.116714
H	 1.2209812171	 3.9931027488	-1.2124674041	 0.105983
H	 2.2893197063	 1.5544869099	 0.1186928932	 0.096884
H	 2.0782774715	 3.7386178897	 1.6523861799	 0.10299
H	-0.0715562334	 3.3088092776	 3.0080033794	 0.103477
H	-1.7302529409	 2.0727031096	 1.3428535999	 0.118248
H	-0.728841867	 0.8440230487	 2.1031370685	 0.129866
92.1075	154.3968	190.1166	251.5039	349.9405	435.4475	508.868	545.7672	564.0177	651.6046	730.0465	748.3462	774.7712	843.3166	876.747	921.9111	952.793	960.0684	975.6166	985.9549	1020.7761	1042.9987	1095.4066	1115.3823	1134.5926	1177.0131	1197.7583	1226.3091	1266.369	1270.6577	1276.0483	1303.633	1342.1814	1366.5183	1474.2175	1486.8848	1493.5882	1682.7204	2347.1085	3027.8796	3058.8997	3064.6438	3071.4393	3076.9828	3116.6948	3138.5911	3181.9733	3206.8847
N#CC12CCC1C=CC2	N#C[C@]12CC[C@H]1C=CC2	
InChI=1S/C8H9N/c9-6-8-4-1-2-7(8)3-5-8/h1-2,7H,3-5H2	InChI=1S/C8H9N/c9-6-8-4-1-2-7(8)3-5-8/h1-2,7H,3-5H2/t7-,8+/m1/s1
