16
gdb 64786	4.5472	0.68432	0.66725	5.9755	83.13	-0.2792	-0.0419	0.2373	1662.9379	0.122318	-400.720176	-400.710996	-400.710051	-400.755085	32.549	
C	 0.02476578	 1.5682204151	-0.4595765352	-0.462395
C	-0.0421632569	 0.0950596265	-0.1312047407	 0.417008
C	-1.4023618956	-0.4390381296	 0.3308676658	-0.442094
C	-1.9145759558	 0.2337380721	 1.5145035259	 0.104955
C	-2.3343463894	 0.7992052037	 2.4960852456	 0.041197
C	-2.8148911902	 1.4358592171	 3.6040295786	 0.211671
N	-3.2260427559	 1.9794441683	 4.5448263716	-0.336689
C	 0.8877020501	-0.8575899191	-0.7543025179	-0.227942
O	 1.0661299166	-0.4298968756	 0.5997221498	-0.25849
H	 1.0379952929	 1.8414053664	-0.7615650901	 0.136135
H	-0.6636211928	 1.8181774372	-1.2740464034	 0.125754
H	-0.2496866215	 2.1701954848	 0.4118295472	 0.146258
H	-2.130236767	-0.3323116035	-0.484559549	 0.151095
H	-1.3088009688	-1.5104878885	 0.5401073261	 0.155745
H	 0.5985627342	-1.9002805231	-0.8814416942	 0.116304
H	 1.6307595501	-0.4943339319	-1.46240879	 0.121488
44.1861	70.6515	147.7948	194.6735	196.3898	325.5157	344.4218	363.1012	376.3012	396.6571	498.9736	576.2695	578.9932	729.481	746.1829	842.507	888.371	926.7252	931.5385	1041.7001	1104.626	1134.5636	1164.5148	1171.6348	1215.4256	1275.1832	1315.7061	1401.9668	1425.3693	1443.8371	1483.3117	1496.2307	1533.1285	2266.5882	2402.6963	3024.7712	3042.5508	3073.7741	3082.6804	3109.2343	3133.635	3169.7053
CC1(CC#CC#N)CO1	C[C@@]1(CC#CC#N)CO1	
InChI=1S/C7H7NO/c1-7(6-9-7)4-2-3-5-8/h4,6H2,1H3	InChI=1S/C7H7NO/c1-7(6-9-7)4-2-3-5-8/h4,6H2,1H3/t7-/m1/s1
