19
gdb 50663	2.18443	1.59214	1.04961	3.2848	76.02	-0.2503	-0.0238	0.2265	1162.2432	0.158965	-423.029597	-423.021196	-423.020252	-423.06357	31.392	
O	 0.2891867583	-0.2172329268	 0.1077997856	-0.254918
C	 0.1364856882	 0.9762562816	 0.0760748947	 0.15175
C	 1.2447417562	 2.0003333609	 0.0085527931	-0.124817
C	 1.0593695635	 2.9893145741	-1.1715098494	-0.24306
C	 1.5547557906	 4.346177174	-0.6358807786	-0.216003
C	 1.0605276104	 4.3478531809	 0.8183209796	-0.283109
C	 1.2683739288	 2.9053871806	 1.2658048245	 0.40057
C	 0.9884855278	 2.420081095	 2.6236824288	-0.253737
O	 2.3300978648	 2.6510279061	 2.1871748548	-0.263485
H	-0.886870405	 1.4241341027	 0.101805283	 0.068169
H	 2.1982458318	 1.4694252899	-0.046654602	 0.111637
H	 1.5822161898	 2.6559158703	-2.0705671497	 0.116563
H	-0.0064721548	 3.0638227317	-1.4259632718	 0.10356
H	 2.6498431543	 4.3814864253	-0.658177683	 0.115433
H	 1.1837526732	 5.1914876659	-1.2208618872	 0.103383
H	 1.5891916669	 5.0404438925	 1.4768349458	 0.117745
H	-0.0081321335	 4.5959767618	 0.85072133	 0.105742
H	 0.6131233701	 3.1137402734	 3.3757691906	 0.114377
H	 0.7258480987	 1.3753070102	 2.7861279814	 0.130199
44.4332	64.0826	180.708	241.3374	296.7526	329.5873	380.2582	436.675	473.2724	530.0902	581.9609	738.9452	818.0647	854.0171	885.8515	910.0613	913.0315	960.8612	978.5641	1005.8269	1023.1202	1082.5862	1103.2369	1134.2943	1156.8471	1179.6659	1190.2451	1207.3654	1246.8135	1273.9047	1297.3276	1315.829	1341.2258	1349.0315	1405.9826	1429.8462	1475.3137	1491.9717	1505.1213	1528.8569	1830.3051	2835.3923	3020.3635	3029.8653	3047.5131	3077.8063	3087.8148	3100.9727	3107.5535	3112.831	3164.3812
O=CC1CCCC11CO1	O=C[C@H]1CCC[C@]21CO2	
InChI=1S/C7H10O2/c8-4-6-2-1-3-7(6)5-9-7/h4,6H,1-3,5H2	InChI=1S/C7H10O2/c8-4-6-2-1-3-7(6)5-9-7/h4,6H,1-3,5H2/t6-,7-/m1/s1
