20
gdb 78381	2.42109	1.80522	1.44933	0.3747	78.41	-0.2226	0.0514	0.2741	1008.9157	0.171171	-403.057109	-403.0491	-403.048156	-403.089099	32.07	
C	 0.2523034484	 2.4827495568	-0.4354610995	-0.443139
C	-0.0857448003	 1.0276390696	-0.6915078079	 0.038706
C	 0.2892697778	 0.1830073339	-1.8326772881	-0.081776
C	 1.7828551158	 0.1651103709	-2.1939714431	 0.101201
O	 2.5646634031	 1.3633609469	-1.9355894204	-0.323609
C	 3.1135357142	 0.7647918514	-0.7119074815	 0.153266
C	 3.2884995573	 1.6801187893	 0.4812159116	-0.431111
C	 2.0784410572	-0.3659219351	-0.8005347416	-0.048641
N	 0.615097495	-0.2541797208	-0.3796450718	-0.200969
H	 1.1908907074	 2.7966066267	-0.8791850473	 0.161587
H	-0.5511230504	 3.083728233	-0.8777382204	 0.115552
H	 0.2536472433	 2.6959587294	 0.6390200413	 0.118856
H	-1.1203300794	 0.8343211231	-0.4018477274	 0.10518
H	-0.4426140598	-0.3631033965	-2.4233441318	 0.092048
H	 2.0597840716	-0.3278121358	-3.1282805845	 0.084405
H	 4.0954954297	 0.3340677863	-0.9656926805	 0.079725
H	 2.3459568794	 1.9653367744	 0.9458047701	 0.135587
H	 3.8987280272	 1.1682490354	 1.2329704935	 0.121604
H	 3.8214964464	 2.588560048	 0.1817926427	 0.130884
H	 2.4094243861	-1.3814276168	-0.5872554234	 0.090645
135.445	167.944	237.4556	262.4671	289.7717	306.9392	353.3084	461.3205	542.9041	602.0048	624.1252	677.0748	716.7052	809.0558	849.6169	861.1909	901.7195	919.3002	938.1555	954.1039	1003.1145	1036.0417	1075.4915	1093.8821	1112.5888	1118.5777	1149.7682	1165.771	1204.8363	1246.1263	1281.5568	1303.3621	1314.3964	1329.8041	1375.0691	1397.	1402.8026	1413.6428	1453.7713	1488.4017	1490.9351	1502.9719	1524.7497	2967.9887	3034.9103	3046.0894	3083.4255	3084.2862	3087.6019	3104.451	3119.5014	3135.2777	3165.7165	3210.9683
CC1C2C3OC(C)C3N12	C[C@H]1[C@H]2[C@H]3O[C@@H](C)[C@H]3N12	
InChI=1S/C7H11NO/c1-3-5-7-6(8(3)5)4(2)9-7/h3-7H,1-2H3	InChI=1S/C7H11NO/c1-3-5-7-6(8(3)5)4(2)9-7/h3-7H,1-2H3/t3-,4-,5-,6+,7+,8?/m0/s1
