25
gdb 122199	3.69188	0.71991	0.6982	0.9983	90.04	-0.2495	0.0782	0.3277	1787.153	0.22763	-389.475237	-389.464617	-389.463673	-389.511356	39.025	
C	-0.0052440704	 1.4963976336	-0.0255774353	-0.226653
O	 0.1285991924	 0.0989102283	-0.0924780316	-0.22725
C	 0.6913025551	-0.4563126953	 1.07861548	-0.06009
C	 0.8104435821	-1.9639661981	 0.881707038	-0.270279
C	 1.2468331993	-2.742716097	 2.1257997209	 0.354575
C	 2.6436664295	-2.3371251642	 2.6078310585	-0.445961
C	 0.2162029416	-2.8020226745	 3.3040942409	-0.247165
C	 0.4401145413	-4.334346735	 3.402374181	-0.213659
C	 1.1162017193	-4.2969838987	 2.0059744194	-0.259731
H	 0.967829073	 1.9967117867	 0.1078254129	 0.100378
H	-0.4459226126	 1.8305917177	-0.9683466375	 0.124439
H	-0.6626952124	 1.8073844248	 0.8027521234	 0.100294
H	 1.6757230309	-0.0004425013	 1.2753224946	 0.084043
H	 0.0533340061	-0.2307563916	 1.9517533197	 0.084917
H	-0.1692561883	-2.3304251015	 0.5522310124	 0.098536
H	 1.5089642125	-2.157858777	 0.0572042527	 0.098174
H	 2.6742451063	-1.2929982634	 2.936885956	 0.113417
H	 2.9637340697	-2.954183678	 3.4541353907	 0.111009
H	 3.384481266	-2.4603661034	 1.8091018899	 0.111457
H	 0.4426522701	-2.2030313693	 4.1908939923	 0.090242
H	-0.7966320779	-2.5549952034	 2.9712835706	 0.095675
H	 1.1376851814	-4.6051732717	 4.1992884277	 0.101547
H	-0.4495894731	-4.9595067187	 3.5053923713	 0.096101
H	 0.4275458967	-4.5855650401	 1.2062840862	 0.095097
H	 2.0456940014	-4.8597625589	 1.8797505153	 0.090888
61.5964	80.442	107.7139	126.8227	146.5643	238.9828	264.3903	275.9755	304.0813	345.2049	365.3266	419.7668	484.1652	654.7953	722.8328	790.1936	802.7173	866.2177	906.8576	923.6365	944.8426	963.7129	991.7082	996.3298	1026.1119	1044.0261	1088.1751	1162.0144	1164.1899	1178.9164	1199.3207	1209.9398	1222.928	1232.6486	1246.195	1259.3825	1276.102	1293.4541	1309.0268	1332.9286	1334.7772	1414.5404	1425.4278	1474.6167	1480.1477	1481.1271	1485.8103	1488.1361	1499.3832	1502.5235	1505.6175	1509.4533	1532.9109	2943.8112	2964.7525	2978.3417	3004.6326	3020.1815	3024.9297	3044.0344	3048.6739	3062.5916	3064.1877	3089.1689	3090.3907	3094.0795	3096.9684	3109.6116	3116.9396
COCCC1(C)CCC1	COCCC1(C)CCC1	
InChI=1S/C8H16O/c1-8(4-3-5-8)6-7-9-2/h3-7H2,1-2H3	InChI=1S/C8H16O/c1-8(4-3-5-8)6-7-9-2/h3-7H2,1-2H3
