17
gdb 37614	3.06896	2.49598	2.29315	1.361	71.52	-0.2475	0.0698	0.3173	727.7461	0.140464	-384.63216	-384.627329	-384.626385	-384.661029	22.661	
O	-0.030369255	 1.4781890551	 0.0680826658	-0.244166
C	 1.352424393	 1.768940005	-0.005254459	 0.072751
C	 1.9614044621	 0.9257444136	-1.1749541034	-0.078536
C	 1.0050043959	-0.311544347	-1.1738280681	-0.078536
C	 0.0366059881	 0.0666657511	-0.0037029931	 0.072751
C	 1.1418182112	-0.4153255906	 0.9944052545	-0.078536
C	 2.0982151548	 0.8219660711	 0.9932789852	-0.078536
C	 2.9207220125	 0.1836150324	-0.1800888642	-0.063896
C	 1.9657789391	-1.0517935066	-0.1789673884	-0.063897
H	 1.5273446457	 2.8429242549	 0.0351121449	 0.076679
H	 2.2524286687	 1.3876175111	-2.1167091767	 0.065919
H	 0.6305251744	-0.7106240894	-2.1147985157	 0.065919
H	-0.9586194598	-0.3731661715	 0.0380431713	 0.07668
H	 0.8859158556	-0.9043526173	 1.9326437043	 0.065919
H	 2.507813715	 1.1938935931	 1.9307349332	 0.065919
H	 4.0061800904	 0.1662297086	-0.2494108944	 0.061784
H	 2.2560384882	-2.0979291837	-0.2473548061	 0.061784
533.1819	553.9247	604.144	651.8062	677.555	715.412	799.5745	830.2506	831.2636	833.4296	844.3122	862.565	890.1902	891.134	891.5752	946.3816	954.9649	976.6321	1007.9519	1022.5471	1026.5833	1083.5123	1089.7894	1104.4834	1135.9809	1173.4809	1174.2342	1177.1242	1201.1656	1217.4442	1235.4426	1237.7885	1253.7833	1274.1854	1280.9267	1296.1642	1347.9139	3113.9088	3119.4633	3122.5893	3127.8555	3127.9267	3134.525	3134.5802	3147.0299
O1C2C3C4C1C1C2C3C41	O1[C@@H]2[C@@H]3[C@@H]4[C@H]1[C@@H]1[C@H]2[C@H]3[C@H]41	
InChI=1S/C8H8O/c9-7-3-1-2-5(3)8(9)6(2)4(1)7/h1-8H	InChI=1S/C8H8O/c9-7-3-1-2-5(3)8(9)6(2)4(1)7/h1-8H/t1-,2+,3-,4+,5+,6-,7+,8-
