18
gdb 14481	3.78941	2.13472	2.13064	1.3604	69.18	-0.2538	0.0723	0.3261	750.0304	0.156842	-347.815897	-347.809739	-347.808794	-347.845547	26.504	
O	-0.0928287384	 1.3543064418	 0.0040421435	-0.49865
C	-0.0055691204	-0.0443293083	 0.0034271599	 0.373465
C	 0.7020558643	-0.7336496847	 1.2020473771	-0.270788
C	 0.4467426521	-2.1676572259	 0.7604399532	-0.055964
C	-0.8758547371	-2.1677099132	 0.0108539104	-0.057921
C	-1.3867697606	-0.7329697369	 0.0150707419	-0.236303
C	 0.4339643912	-2.1677528518	-0.760829234	-0.055955
C	 0.6818078411	-0.7338102496	-1.2068485953	-0.270751
H	 0.8018343985	 1.7099646369	-0.0027303212	 0.276189
H	 1.7680120936	-0.4810993609	 1.2566427518	 0.082196
H	 0.2302015919	-0.4753557246	 2.1553837436	 0.098248
H	 0.7829035255	-3.0264581573	 1.3266238124	 0.079893
H	-1.5353227752	-3.0253928844	 0.0164623871	 0.079726
H	-1.9626187712	-0.4755942653	 0.9096668482	 0.098139
H	-1.9775724208	-0.4756690318	-0.8697443036	 0.098145
H	 0.7605633798	-3.0266413109	-1.3324518685	 0.079891
H	 0.1939632922	-0.4756241933	-2.1521315613	 0.098247
H	 1.7466799634	-0.4812450999	-1.2794239053	 0.082193
244.9404	324.2675	336.6947	436.6428	449.5421	462.4233	616.9935	638.7485	643.1224	788.6353	812.5669	813.7261	898.9165	899.8425	952.6544	956.476	969.9455	973.0739	1017.4462	1021.4498	1057.9583	1077.6312	1101.9241	1117.2663	1140.8219	1161.1456	1184.9862	1228.6159	1264.5326	1267.3594	1287.2136	1314.6163	1329.598	1387.6145	1402.9673	1486.4122	1487.677	1517.8928	3026.2887	3033.2192	3048.9712	3081.397	3084.9857	3094.7734	3191.1258	3193.3437	3206.5732	3810.7195
OC12CC3C(C1)C3C2	O[C@@]12C[C@H]3[C@@H](C1)[C@H]3C2	
InChI=1S/C7H10O/c8-7-1-4-5(2-7)6(4)3-7/h4-6,8H,1-3H2	InChI=1S/C7H10O/c8-7-1-4-5(2-7)6(4)3-7/h4-6,8H,1-3H2/t4-,5+,6-,7-
