17
gdb 104140	2.76425	1.34007	1.18799	5.0067	64.54	-0.2856	0.0415	0.3271	1107.9996	0.134714	-496.153685	-496.144967	-496.144022	-496.187398	31.498	
C	-0.1029932368	 1.3677423287	-0.0744849062	-0.26267
O	-0.0498339506	-0.0519620664	-0.1691915156	-0.268512
C	 0.7512572977	-0.5857982958	-1.1819196457	 0.430811
C	 2.22093871	-0.2052718356	-1.0806850005	-0.456755
C	 0.4597211275	-2.0971170082	-1.2033526204	-0.133869
O	-0.5008293186	-2.2527887131	-2.2466695667	-0.240421
C	-0.5635499438	-1.1218525566	-2.9902878544	 0.482395
O	-1.2267048571	-0.9834803942	-3.9660793458	-0.369775
O	 0.2606199467	-0.1698208984	-2.4690923486	-0.267396
H	 0.8312920224	 1.7866718909	 0.318850586	 0.117361
H	-0.3284958873	 1.8231696962	-1.0439486419	 0.142959
H	-0.9097714809	 1.5930654285	 0.6249977062	 0.139755
H	 2.6144850073	-0.5107363754	-0.1072152809	 0.136827
H	 2.7925848525	-0.6990630925	-1.8692807076	 0.138112
H	 2.3543418173	 0.8725839783	-1.1913671081	 0.14341
H	 1.3481128957	-2.6908744475	-1.4380872881	 0.122244
H	 0.0233954181	-2.4224476388	-0.2589003218	 0.145524
72.9906	113.4366	153.8793	184.1317	229.5951	277.6819	326.1054	364.4668	423.7708	512.6332	583.8409	638.5916	733.8623	774.7822	832.8448	874.7255	934.134	954.366	995.6003	1083.0536	1105.3525	1113.6082	1173.7918	1179.6936	1190.8614	1217.9771	1267.9681	1303.4561	1404.0831	1413.2752	1473.3285	1484.5325	1487.7192	1505.9319	1508.7185	1513.3972	1931.1137	3022.3529	3057.0338	3063.2584	3093.9636	3135.2552	3137.058	3140.2847	3144.2489
COC1(C)COC(=O)O1	CO[C@@]1(C)COC(=O)O1	
InChI=1S/C5H8O4/c1-5(7-2)3-8-4(6)9-5/h3H2,1-2H3	InChI=1S/C5H8O4/c1-5(7-2)3-8-4(6)9-5/h3H2,1-2H3/t5-/m1/s1
