14
gdb 22031	2.52566	1.60773	0.98239	3.9765	74.68	-0.1784	-0.0212	0.1571	1101.9125	0.101801	-469.954863	-469.946937	-469.945993	-469.987113	30.088	
O	-0.1210002929	 1.329384367	 0.1277163274	-0.403373
N	 0.0585138445	-0.0721258481	 0.1490928155	-0.268419
C	-1.0752969341	-0.6747453651	-0.0220900305	 0.271287
C	-2.3772916377	-0.044257123	-0.2135608992	-0.059447
N	-3.5041886981	-0.6684484046	-0.3840277823	-0.189679
N	-3.4642125085	-2.004836607	-0.3835017135	-0.239579
C	-2.3112411772	-2.7429672928	-0.2144664534	-0.123848
C	-1.1182337434	-2.1268563503	-0.0342496864	 0.289603
O	 0.0583575465	-2.7745871235	 0.1386665662	-0.415783
H	 0.7786514979	 1.6415378061	 0.2628726357	 0.304662
H	-2.4317682596	 1.0352245125	-0.2174229708	 0.146527
H	-4.352958579	-2.4540939384	-0.517489171	 0.274908
H	-2.4298470622	-3.819824778	-0.2364115222	 0.11557
H	-0.0909529661	-3.7262950747	 0.1116156146	 0.297571
107.0229	217.5499	221.1189	294.1887	325.0508	343.7074	368.6637	381.662	501.7958	502.3783	569.1489	597.6622	618.728	739.4887	797.4898	798.4147	897.9767	923.4404	984.3064	1032.889	1163.6773	1232.3986	1274.5918	1321.4948	1360.9555	1388.422	1471.8569	1533.0078	1611.2427	1655.9979	1691.6081	3198.0069	3240.3258	3675.3583	3808.2846	3835.3931
ON=C1C=NNC=C1O	ON=c1cn[nH]cc1O	
InChI=1S/C4H5N3O2/c8-4-2-6-5-1-3(4)7-9/h1-2,9H,(H,5,8)(H,6,7)	InChI=1S/C4H5N3O2/c8-4-2-6-5-1-3(4)7-9/h1-2,9H,(H,5,8)(H,6,7)
