19
gdb 36292	3.91997	1.05022	0.99056	3.4358	78.75	-0.2435	0.0322	0.2758	1243.0526	0.162435	-382.050087	-382.042496	-382.041552	-382.082771	29.63	
N	-0.4706067946	-0.5625268866	-0.7385247092	-0.308575
C	-0.1823838793	 0.1820074006	 0.0968540788	 0.261519
C	 0.2035239199	 1.1326284385	 1.1383314762	-0.385111
C	 1.5297395721	 1.8232407406	 0.801849178	 0.063197
C	 1.5569256879	 2.9588982799	-0.2596047331	-0.02932
C	 1.092397041	 3.8470116969	 0.9196157143	-0.191152
N	 1.9018393247	 2.9077866955	 1.8016807238	-0.137188
C	 3.2718000716	 3.2291741096	 1.2961891518	-0.168829
C	 3.0641813342	 3.274873414	-0.263400026	-0.239661
H	-0.6128412553	 1.8471771677	 1.2744490412	 0.154093
H	 0.3136166197	 0.5974027065	 2.0879372441	 0.163769
H	 2.3005273385	 1.0521052819	 0.6985831672	 0.08823
H	 1.0409661542	 2.8981925272	-1.2187609243	 0.08119
H	 1.4174854306	 4.8906823697	 0.9474977081	 0.105475
H	 0.0308485345	 3.7949698677	 1.160528454	 0.108842
H	 3.5998818019	 4.182756674	 1.7155136745	 0.1108
H	 3.9721791078	 2.453563882	 1.6144282042	 0.110839
H	 3.6520086421	 2.5216851191	-0.7946826314	 0.10775
H	 3.2865238784	 4.253158455	-0.6973201719	 0.104132
53.3443	109.363	274.0933	284.9206	349.9635	390.6639	424.9085	523.7908	590.5186	682.771	791.6644	826.722	841.1818	854.3287	882.5067	903.5936	947.6636	956.5509	969.5993	980.6205	1006.6752	1061.6604	1075.691	1098.1274	1154.8411	1176.8536	1194.6218	1238.2686	1246.0002	1252.888	1268.6827	1271.4073	1299.2506	1318.5642	1330.7046	1415.4074	1462.4365	1497.5295	1508.6541	1536.4798	2363.1087	3048.8177	3057.6343	3060.0592	3067.914	3073.4212	3102.4286	3104.2692	3110.1761	3123.7282	3135.7655
N#CCC1C2CN1CC2	N#CC[C@H]1[C@H]2CN1CC2	
InChI=1S/C7H10N2/c8-3-1-7-6-2-4-9(7)5-6/h6-7H,1-2,4-5H2	InChI=1S/C7H10N2/c8-3-1-7-6-2-4-9(7)5-6/h6-7H,1-2,4-5H2/t6-,7+/m1/s1
