18
gdb 99061	3.54139	0.84701	0.70891	4.6228	75.27	-0.248	0.0086	0.2566	1546.1502	0.147713	-435.307311	-435.297147	-435.296202	-435.343635	35.076	
C	-0.6798302719	 1.3872683152	-0.4995423617	-0.334106
N	-1.0189000991	-0.0211705895	-0.4466333505	-0.300151
C	-0.9014441786	-0.7506083748	 0.6927293179	 0.374607
O	-0.5230972098	-0.3009098977	 1.7603828236	-0.373841
C	-1.2596845075	-2.2411237303	 0.5705967875	-0.28853
C	-2.4291674055	-2.5935772773	-0.3738221264	-0.158951
N	-2.0605815965	-2.3797165443	-1.7824760981	-0.500805
C	-2.8878046026	-3.9751015551	-0.1222891282	 0.269993
N	-3.2325674718	-5.0678520746	 0.0317843152	-0.311839
H	 0.1914837263	 1.5663515722	-1.140390948	 0.124767
H	-1.5183429833	 1.979534202	-0.8815598621	 0.123471
H	-0.4438461174	 1.7106080675	 0.5147459224	 0.169275
H	-1.3035471145	-0.513121298	-1.2860067174	 0.260755
H	-0.3664944297	-2.793485122	 0.2521970177	 0.134926
H	-1.4909107331	-2.5766330452	 1.5826640502	 0.156154
H	-3.2695003855	-1.9252227899	-0.1529759947	 0.148069
H	-1.3475708755	-3.050952274	-2.0565145617	 0.251354
H	-2.8617139141	-2.5418783541	-2.3854160957	 0.254851
53.1061	62.562	75.7837	125.5938	175.1739	204.9548	264.2808	304.3651	323.4648	365.9322	434.5126	515.8261	587.0159	629.0353	688.0865	749.8895	847.7045	870.6185	926.2177	971.6688	990.3547	1096.2747	1122.3466	1146.5506	1160.3247	1181.0091	1278.0871	1283.8161	1306.7364	1355.9686	1393.5264	1437.3448	1461.5631	1497.8694	1502.2782	1592.6115	1658.7435	1781.6599	2348.2092	3026.5047	3039.3502	3056.6668	3077.9392	3129.2564	3153.7122	3491.3691	3520.6061	3572.2276
CNC(=O)CC(N)C#N	CNC(=O)C[C@@H](N)C#N	
InChI=1S/C5H9N3O/c1-8-5(9)2-4(7)3-6/h4H,2,7H2,1H3,(H,8,9)	InChI=1S/C5H9N3O/c1-8-5(9)2-4(7)3-6/h4H,2,7H2,1H3,(H,8,9)/t4-/m1/s1
