23
gdb 111291	2.95465	1.20332	1.02651	1.1144	86.5	-0.2391	0.0795	0.3186	1299.2998	0.204114	-388.261434	-388.251397	-388.250453	-388.296029	37.442	
C	 0.0429345226	 1.3395294059	 0.0634658152	-0.239974
O	 0.0088293124	-0.0267633595	-0.2829816404	-0.241065
C	-1.2480885943	-0.6344420168	-0.0947483663	 0.127242
C	-1.3719145696	-2.0032780813	-0.7407021215	-0.138315
C	-0.4156748564	-2.9715198798	-0.0947468674	-0.331303
C	-1.6981384782	-2.6439225997	 0.6175737708	 0.361978
C	-2.7339556636	-3.6762419963	 0.961142798	-0.498504
C	-1.5792943914	-1.2753808727	 1.3153073793	-0.084028
C	-0.5889512716	-1.116701903	 2.4636440329	-0.411674
H	 1.0488227054	 1.7057273743	-0.1574864442	 0.124787
H	-0.6832356878	 1.9230851171	-0.5244869073	 0.102739
H	-0.1652943849	 1.508931043	 1.1297063671	 0.106707
H	-2.0442678911	 0.0529081723	-0.4137459873	 0.060071
H	-1.8114424198	-2.1948100415	-1.7127175315	 0.079354
H	-0.3895904612	-3.9543961	-0.5556440716	 0.104738
H	 0.5484750462	-2.6274195488	 0.2652790798	 0.118401
H	-2.7728354388	-4.4669652374	 0.2043306331	 0.116274
H	-2.5172316119	-4.1555920037	 1.9238108407	 0.118946
H	-3.7335438959	-3.2311513646	 1.0327440852	 0.112824
H	-2.5716598157	-0.9399865177	 1.637673195	 0.06297
H	 0.4392287222	-1.2954988628	 2.1392435732	 0.126131
H	-0.6304454121	-0.1081510831	 2.8884106478	 0.110532
H	-0.8170002647	-1.8217700439	 3.2709301992	 0.111168
89.4047	108.811	154.4515	167.0388	197.9561	215.4709	233.1761	261.8112	330.5937	339.9298	460.5395	509.0811	569.4157	660.6997	698.2213	782.1346	811.0845	904.2279	928.1668	958.0053	979.9746	989.7423	1023.255	1064.8247	1069.533	1086.7374	1105.4683	1117.8254	1139.7311	1153.319	1182.1848	1214.3933	1228.6584	1256.119	1277.4192	1311.5887	1359.8927	1387.1684	1402.8709	1407.5525	1427.7148	1479.77	1483.6375	1485.6521	1492.4136	1494.9952	1498.8414	1505.8228	1513.5755	2974.8318	2995.9313	3016.6433	3026.4926	3031.629	3038.7879	3073.1668	3090.8569	3091.2555	3110.1905	3118.1283	3125.6204	3175.5544	3205.7124
COC1C2CC2(C)C1C	CO[C@H]1[C@H]2C[C@@]2(C)[C@H]1C	
InChI=1S/C8H14O/c1-5-7(9-3)6-4-8(5,6)2/h5-7H,4H2,1-3H3	InChI=1S/C8H14O/c1-5-7(9-3)6-4-8(5,6)2/h5-7H,4H2,1-3H3/t5-,6+,7+,8-/m0/s1
