18
gdb 37411	3.6348	1.86775	1.7825	1.056	73.4	-0.2138	0.0827	0.2966	841.126	0.151712	-401.890397	-401.884684	-401.88374	-401.920055	25.486	
C	 0.0501479052	 1.504658906	-0.1502580052	-0.240728
C	 1.2869689577	 0.6953747098	-0.0051939051	-0.035147
C	 1.8162134569	 0.4703024084	 1.4165500273	 0.062999
O	 1.0140960166	 1.2605109259	 2.32296201	-0.282877
C	-0.0215113324	 0.3122677808	 2.6471807423	 0.055535
C	 0.8025048044	-0.8524008863	 3.2404625548	-0.247832
C	 1.2836168192	-0.9561430278	 1.7731788834	-0.071135
C	-0.151269081	-0.5432150441	 1.3273385492	 0.015278
N	-0.0485356947	 0.0397322611	-0.0174300671	-0.130485
H	-0.2384498709	 2.1369449446	 0.6796354038	 0.138409
H	-0.2314530607	 1.866791696	-1.135805506	 0.111442
H	 1.9444152335	 0.5067140444	-0.8515209908	 0.087054
H	 2.8752387494	 0.6806440458	 1.5700350815	 0.078197
H	-0.8454007265	 0.8121022123	 3.1541519593	 0.082246
H	 1.5196450836	-0.5827669529	 4.0174713019	 0.106588
H	 0.2039133639	-1.7156011722	 3.5383719702	 0.105472
H	 1.8057579106	-1.8137908768	 1.3519404437	 0.079138
H	-0.9183370648	-1.3156237851	 1.3767080367	 0.085846
271.7173	327.399	436.3741	509.0284	529.2019	630.7231	654.9221	741.396	799.9862	812.3081	822.5331	866.5346	869.536	882.0204	923.4686	935.9078	947.1696	989.2858	1002.1696	1030.0824	1063.0434	1073.2465	1085.5194	1101.149	1104.8665	1125.0505	1152.7465	1189.7844	1212.4599	1240.2627	1241.0596	1262.9229	1273.3867	1290.9444	1314.4181	1339.2165	1373.7169	1487.9555	1492.1946	3074.8452	3108.9474	3117.3232	3118.8295	3126.9321	3133.9399	3138.946	3140.9401	3227.3535
C1C2C3OC4CC3C4N12	C1[C@H]2[C@H]3O[C@@H]4C[C@H]3[C@@H]4N12	
InChI=1S/C7H9NO/c1-3-6-5(1)9-7(3)4-2-8(4)6/h3-7H,1-2H2	InChI=1S/C7H9NO/c1-3-6-5(1)9-7(3)4-2-8(4)6/h3-7H,1-2H2/t3-,4-,5+,6-,7-,8?/m0/s1
