19
gdb 84372	2.2084	1.6047	1.22125	2.4979	71.86	-0.2485	-0.0045	0.244	1084.231	0.157571	-460.162285	-460.153047	-460.152103	-460.195657	36.092	
C	 0.5288146358	 1.4847344833	 0.0402543607	-0.462366
C	 0.0880384205	 0.0203264331	 0.0037476471	 0.319148
O	-1.3310758684	-0.0666306858	-0.0184651437	-0.477456
C	 0.7457531904	-0.7512818686	-1.195855577	 0.038631
O	 1.0716778593	 0.0337265611	-2.3343917291	-0.433705
C	 1.9069428858	-1.4710715092	-0.5618076164	-0.12951
C	 1.8154064187	-1.4831961432	 0.7675643325	-0.130829
C	 0.5876668579	-0.7618715458	 1.2625289913	 0.073765
O	 0.7946244472	 0.0085884228	 2.4351205198	-0.427717
H	 1.6197790049	 1.5811046882	 0.105259339	 0.096097
H	 0.2084314991	 1.9975485724	-0.8712255503	 0.120524
H	 0.0863072362	 1.9764165214	 0.9081324451	 0.141324
H	-1.6437091933	 0.417425407	-0.79091187	 0.280523
H	 0.0016065539	-1.4677429873	-1.5654749562	 0.106611
H	 1.8358974038	 0.576386584	-2.1126533483	 0.279766
H	 2.6737803753	-1.9545171545	-1.1581371827	 0.105698
H	 2.4949723406	-1.9774102774	 1.453786836	 0.10631
H	-0.2037086396	-1.4692899181	 1.5365149896	 0.115436
H	 1.587327902	 0.5401495163	 2.3062859624	 0.277748
59.8283	198.1968	264.5334	281.8587	292.5779	297.6202	323.7378	334.8061	344.5301	351.2976	400.7012	499.2976	534.0702	594.6447	624.6601	714.4082	738.5591	821.0897	896.2908	957.0893	983.599	995.0831	1029.3833	1056.7059	1064.1593	1118.4739	1143.7546	1164.119	1194.6784	1242.2194	1262.2188	1271.0201	1315.8676	1347.4134	1372.7728	1394.9405	1423.6687	1434.1919	1489.9682	1508.7126	1677.7736	3028.5919	3034.8258	3047.9087	3096.9421	3141.113	3178.546	3203.2885	3800.3496	3806.6255	3807.062
CC1(O)C(O)C=CC1O	C[C@@]1(O)[C@@H](O)C=C[C@H]1O	
InChI=1S/C6H10O3/c1-6(9)4(7)2-3-5(6)8/h2-5,7-9H,1H3	InChI=1S/C6H10O3/c1-6(9)4(7)2-3-5(6)8/h2-5,7-9H,1H3/t4-,5+,6+
