15
gdb 125206	3.31859	1.60102	1.09781	2.6644	68.36	-0.2029	0.0202	0.2231	1043.841	0.114184	-453.938051	-453.930292	-453.929348	-453.970745	28.006	
C	-0.0590595626	 1.5354048635	 0.106682016	-0.508791
C	 0.0168911116	 0.0567582309	-0.0670096999	 0.181492
C	 0.1586674639	-0.7661119654	-1.1499814256	 0.184546
O	 0.3738579561	-0.7700503748	-2.5042597266	-0.296199
C	 0.2486748106	-2.1667151915	-2.8455639404	 0.001821
O	 0.3952209931	-2.9643241059	-1.654186909	-0.272558
C	 0.1795176419	-2.0662346133	-0.6530804176	 0.374353
N	 0.0581495927	-2.1601824137	 0.6450022432	-0.341264
N	 0.0012788382	-0.8290205964	 1.002029209	-0.271815
H	 0.8201052231	 1.9297545198	 0.6288817775	 0.14358
H	-0.1151521051	 2.0217508706	-0.86936364	 0.148924
H	-0.9453676391	 1.832164811	 0.6795341534	 0.133984
H	-0.7492737166	-2.3438105988	-3.2713358422	 0.118185
H	 1.0363741814	-2.4333301156	-3.55307019	 0.136879
H	-0.3441498492	-0.6187733003	 1.9230722621	 0.266863
70.2855	130.8119	180.1737	239.4567	267.4596	328.2073	392.281	546.4794	597.1455	609.3557	677.0157	732.5446	778.1254	802.3678	922.3179	992.4008	1054.1536	1060.6797	1086.412	1137.0719	1146.0244	1211.4847	1219.1126	1275.6656	1403.1064	1420.45	1464.1059	1481.879	1492.3161	1523.6697	1534.9393	1609.9114	1711.8514	3000.5943	3028.5793	3078.4668	3113.1265	3129.2459	3671.5427
CC1=C2OCOC2=NN1	Cc1c2OCOc2n[nH]1	
InChI=1S/C5H6N2O2/c1-3-4-5(7-6-3)9-2-8-4/h2H2,1H3,(H,6,7)	InChI=1S/C5H6N2O2/c1-3-4-5(7-6-3)9-2-8-4/h2H2,1H3,(H,6,7)
