19
gdb 98634	5.07078	0.77591	0.74419	3.6573	77.69	-0.2473	-0.0234	0.2239	1560.7135	0.156421	-423.060977	-423.05139	-423.050446	-423.097095	34.078	
C	-0.1006037612	 1.4551188724	-0.3721938237	-0.378341
C	 0.0571410333	-0.0272200185	-0.04654297	-0.288576
C	 0.717124262	-0.2971525144	 1.2954376249	 0.376556
O	 1.0090104753	 0.5920085192	 2.0647618485	-0.311728
C	 1.0325506512	-1.7477894446	 1.619646922	-0.099115
C	 2.5540705439	-2.1262288929	 1.4635848205	-0.347402
C	 2.4628511729	-2.7668637378	 2.859691763	 0.400028
O	 3.1428269388	-3.5553103195	 3.446334693	-0.285502
C	 1.1065817912	-2.111612993	 3.1327073466	-0.350047
H	 0.8726542731	 1.9508358573	-0.4175636112	 0.131125
H	-0.6018373422	 1.5888632202	-1.3346538092	 0.11278
H	-0.6861834257	 1.9615754621	 0.3988272117	 0.135803
H	-0.9167685336	-0.5384851455	-0.0345814492	 0.127303
H	 0.636990482	-0.5524143681	-0.8188120427	 0.124096
H	 0.4006336031	-2.429355254	 1.0465379879	 0.085832
H	 2.8437798744	-2.7797887907	 0.6381254544	 0.132949
H	 3.2011312317	-1.2427696193	 1.4735750918	 0.146793
H	 1.2207545932	-1.2009803919	 3.7316093905	 0.158422
H	 0.3236560066	-2.7400753412	 3.5618952514	 0.129021
24.5382	64.159	74.8645	172.5228	197.2717	221.3627	289.8789	340.2882	426.4459	468.8098	561.0654	614.5792	675.1516	687.6944	745.0373	804.0609	868.0653	913.3485	948.8336	993.1983	1011.0168	1043.3339	1075.5759	1088.4067	1110.4225	1134.0092	1191.7673	1203.8149	1231.957	1247.0731	1277.811	1344.2314	1384.8688	1414.6675	1422.7967	1441.7207	1447.7735	1493.1029	1497.8429	1799.5182	1899.9515	3010.7554	3036.8103	3052.6831	3053.9783	3059.4695	3088.5957	3123.3957	3125.9307	3127.1592	3129.2817
CCC(=O)C1CC(=O)C1	CCC(=O)C1CC(=O)C1	
InChI=1S/C7H10O2/c1-2-7(9)5-3-6(8)4-5/h5H,2-4H2,1H3	InChI=1S/C7H10O2/c1-2-7(9)5-3-6(8)4-5/h5H,2-4H2,1H3
