12
gdb 21410	3.73829	2.06559	1.33045	6.4929	59.91	-0.2277	-0.0312	0.1965	831.051	0.085364	-410.864528	-410.857836	-410.856892	-410.895533	24.182	
N	-0.0932841041	 1.3213179465	 0.0110345583	-0.586888
C	 0.0219171989	 0.0556079175	 0.0033867478	 0.485794
N	 1.1233713346	-0.8035363136	-0.0077004388	-0.372687
C	 0.6642758775	-2.1012761644	-0.0122946492	 0.079995
N	-0.6203598713	-2.1842793357	-0.0052771019	-0.200885
N	-1.0472750831	-0.8608375487	 0.0045241514	-0.103561
C	-2.3983507821	-0.5120862663	 0.0142887127	 0.178475
O	-3.3010435951	-1.3033327103	 0.0151945274	-0.279897
H	 0.8073312405	 1.7914021021	 0.0084396183	 0.220552
H	 2.0810988645	-0.5002897497	-0.0117641993	 0.277383
H	 1.3224056028	-2.9566521977	-0.0208504634	 0.16416
H	-2.5016468932	 0.5840012302	 0.0210069767	 0.13756
121.4307	187.504	220.4024	276.1235	383.8317	395.0225	587.4474	641.6487	704.2043	706.554	730.2594	843.5738	866.1999	929.8183	1041.2814	1045.3622	1102.9126	1145.8615	1231.4194	1313.2212	1383.343	1421.0618	1427.9535	1643.6353	1762.9745	1832.359	3034.1311	3265.7384	3535.6131	3689.5628
N=C1NC=NN1C=O	[NH][C@H]1NC=NN1C=O	
InChI=1S/C3H4N4O/c4-3-5-1-6-7(3)2-8/h1-2H,(H2,4,5,6)	InChI=1S/C3H5N4O/c4-3-5-1-6-7(3)2-8/h1-4H,(H,5,6)/t3-/m0/s1
