17
gdb 103011	2.17003	1.43543	1.19443	3.7519	70.21	-0.2437	0.0078	0.2516	1116.8283	0.134575	-455.112	-455.102445	-455.101501	-455.146205	34.378	
C	 0.1032692856	 1.2132020664	 0.3793242647	-0.266959
O	-0.0898879372	-0.0537152948	-0.256503989	-0.287911
C	-1.3586530647	-0.5813079546	-0.0850806385	 0.226903
C	-2.4165097037	 0.0499202277	-0.8397320171	 0.249874
N	-3.2764654101	 0.5638079398	-1.4198299589	-0.348809
C	-1.3987551681	-2.0982451325	 0.0779424925	-0.156108
N	-0.1118254392	-2.7466865529	 0.1646435387	-0.526474
C	-1.7210784701	-1.2315467934	 1.2735561129	 0.063855
O	-0.775764469	-1.1914721659	 2.2721187715	-0.419927
H	 1.1366205812	 1.5003261033	 0.1770425773	 0.133387
H	-0.569994575	 1.9686415218	-0.0441280582	 0.1331
H	-0.0576797603	 1.1301831483	 1.4579587449	 0.147077
H	-2.2016389671	-2.622534187	-0.4311569392	 0.11809
H	-0.186122352	-3.7328722721	-0.0492488641	 0.25118
H	 0.5557077738	-2.3182011621	-0.4674566056	 0.263676
H	-2.7454903454	-1.1310890752	 1.6173693993	 0.124617
H	-0.0893260788	-1.8259887567	 1.985994729	 0.29443
112.0329	123.4839	150.2448	161.5177	183.7817	196.0776	249.0482	306.5607	339.6305	461.0182	474.705	569.6052	615.8632	646.8459	684.1384	725.5109	830.8995	876.446	882.227	996.0882	1064.0561	1076.4111	1100.3992	1155.952	1178.7891	1190.0286	1223.1139	1259.614	1284.256	1341.5355	1409.7234	1464.1964	1475.0758	1489.692	1507.5516	1633.7112	2336.217	3024.0199	3103.838	3142.0718	3151.8933	3168.6788	3523.5413	3564.5898	3616.7649
COC1(C#N)C(N)C1O	CO[C@@]1(C#N)[C@@H](N)[C@H]1O	
InChI=1S/C5H8N2O2/c1-9-5(2-6)3(7)4(5)8/h3-4,8H,7H2,1H3	InChI=1S/C5H8N2O2/c1-9-5(2-6)3(7)4(5)8/h3-4,8H,7H2,1H3/t3-,4+,5-/m0/s1
