16
gdb 45222	3.22766	1.81095	1.44704	4.7415	67.46	-0.2367	0.0076	0.2443	896.9625	0.127332	-437.889071	-437.882693	-437.881749	-437.919776	25.967	
O	 0.037283066	-0.0420031705	-0.0501541484	-0.369062
C	 0.014324398	 1.1665008354	-0.0517205249	 0.412408
N	-1.1054374413	 1.9655355095	-0.0355712866	-0.310968
C	-0.8469880215	 3.3865032906	 0.0521374652	-0.017973
C	-0.5011348261	 3.9605798965	 1.473503485	-0.250926
C	 1.0004215386	 3.853176942	 1.1313109755	 0.117658
O	 1.5268284687	 2.5193250793	 1.3331272352	-0.310576
C	 1.2141388061	 2.1290215928	-0.0369390446	-0.000506
C	 0.6593358264	 3.5255928654	-0.3446607852	-0.112573
H	-2.0067997695	 1.5584458003	 0.1616942171	 0.252886
H	-1.5784707273	 3.9599101279	-0.5190284374	 0.09184
H	-0.8194479474	 5.0032155899	 1.5707094289	 0.106912
H	-0.8439133817	 3.3871997619	 2.3371782775	 0.115644
H	 1.6909854481	 4.6230175214	 1.4802332736	 0.086774
H	 2.086785956	 1.7344862906	-0.5597859325	 0.099815
H	 0.9520114369	 4.0832435971	-1.2299900886	 0.088648
119.4368	242.2851	343.6223	408.2318	439.3905	510.169	607.2927	666.9762	713.0159	743.7971	802.1675	824.0744	875.0037	893.2688	911.1092	938.999	967.5383	990.2764	996.6661	1052.7229	1089.7285	1140.2678	1158.9442	1206.0616	1208.6715	1238.7256	1269.4935	1269.8687	1288.5579	1304.1505	1330.1692	1361.7629	1425.9142	1456.8504	1838.4551	3055.5897	3093.5689	3095.4757	3103.8681	3125.7143	3153.8767	3630.6116
O=C1NC2CC3OC1C23	O=C1N[C@H]2C[C@H]3O[C@@H]1[C@@H]23	
InChI=1S/C6H7NO2/c8-6-5-4-2(7-6)1-3(4)9-5/h2-5H,1H2,(H,7,8)	InChI=1S/C6H7NO2/c8-6-5-4-2(7-6)1-3(4)9-5/h2-5H,1H2,(H,7,8)/t2-,3+,4-,5+/m0/s1
