18
gdb 33541	2.54234	1.43895	1.1574	2.6503	76.29	-0.2542	0.0096	0.2638	1119.3861	0.149174	-398.08626	-398.077842	-398.076898	-398.119604	31.337	
N	 0.0401409666	-1.1640721255	-0.0212427502	-0.355547
C	 0.0065474476	-0.0074496482	-0.0096977199	 0.229577
C	-0.0035851831	 1.4663431588	-0.0098531684	 0.175411
C	-0.2806518038	 2.0269530344	 1.4293352331	-0.271117
C	 1.2519520793	 2.1867755358	 1.5569546815	-0.16125
N	 1.3525819681	 2.0644251767	 0.0819807518	-0.331303
C	-0.840031514	 2.0108354402	-1.1513861267	-0.028853
C	-0.9349174921	 1.3203408239	-2.4611299938	-0.255867
N	-2.1002501266	 1.3807730079	-1.5617174222	-0.327683
H	-0.8103261365	 2.9790825621	 1.3746457784	 0.129237
H	-0.7838409825	 1.3614154765	 2.1288329205	 0.130566
H	 1.6290149036	 3.1347978985	 1.9498960487	 0.115723
H	 1.7119031261	 1.360420846	 2.1134105949	 0.113898
H	 2.1120274656	 1.4997044363	-0.2833506851	 0.233114
H	-0.8677961884	 3.0974730923	-1.1339607858	 0.102824
H	-1.0232805977	 1.9098428287	-3.3686834843	 0.125494
H	-0.4232804385	 0.3691092156	-2.5788020851	 0.132481
H	-2.2147405135	 0.4817111699	-1.0963788074	 0.243295
72.0599	128.0924	149.7036	192.6849	205.8294	316.541	373.619	446.6947	513.1632	587.1105	643.5507	698.4832	769.7585	833.587	882.1343	916.0085	929.1484	958.0322	971.4123	1005.2012	1022.6488	1059.8361	1097.4586	1112.6464	1147.1839	1164.4467	1179.2343	1209.3687	1246.255	1263.8593	1272.8037	1300.7925	1325.4393	1386.9978	1402.1405	1482.3846	1509.1373	1526.9295	2335.3774	3023.0192	3084.6518	3096.0419	3115.6774	3141.3638	3160.929	3203.6788	3483.0107	3533.6612
N#CC1(CCN1)C1CN1	N#C[C@]1(CCN1)[C@H]1CN1	
InChI=1S/C6H9N3/c7-4-6(1-2-9-6)5-3-8-5/h5,8-9H,1-3H2	InChI=1S/C6H9N3/c7-4-6(1-2-9-6)5-3-8-5/h5,8-9H,1-3H2/t5-,6-/m1/s1
