20
gdb 10782	2.52812	1.95701	1.46048	1.0806	69.35	-0.2526	0.0425	0.2951	955.085	0.175648	-386.126909	-386.117623	-386.116679	-386.160143	34.611	
C	 0.6774972909	 1.5462973615	 0.155404649	-0.433283
C	 0.0958150443	 0.1400034765	 0.0278125433	-0.072419
C	 0.8460358817	-0.8217964707	-0.9519304334	 0.129646
O	 1.6840700358	-0.2848498709	-1.948780382	-0.426677
C	 1.4767140684	-1.5845246542	 0.2597948083	-0.07242
C	 2.9495841829	-1.2911815047	 0.5370978347	-0.433264
C	 0.4496706987	-0.8517267113	 1.1849839766	 0.129646
O	 0.8718384525	-0.3461816084	 2.4301832533	-0.426677
H	 1.7562269205	 1.5551455389	 0.3556159192	 0.097045
H	 0.5185177369	 2.1121034823	-0.7672636585	 0.132165
H	 0.1954176117	 2.0876989623	 0.9746791444	 0.132166
H	-0.9769008154	 0.2272156889	-0.169938611	 0.071282
H	 0.1417370961	-1.4585567624	-1.4931318763	 0.088406
H	 2.3314708016	 0.2901756698	-1.529338504	 0.281668
H	 1.3428913538	-2.669845202	 0.219771368	 0.07128
H	 3.1771589131	-0.2193817865	 0.5943130556	 0.097038
H	 3.2562528926	-1.7347935343	 1.4888800523	 0.132162
H	 3.5793578423	-1.7104059847	-0.2530678673	 0.132163
H	-0.3986446235	-1.4993603103	 1.4202099667	 0.088406
H	 1.6237384052	 0.2366711501	 2.2865074211	 0.281668
86.9207	181.2853	189.912	218.9993	225.9287	236.8292	252.7908	259.9452	319.8975	456.0652	492.8233	526.1861	576.3557	763.5354	771.0618	780.1431	828.9076	892.2709	981.0929	1021.0296	1029.289	1067.6742	1118.1807	1119.489	1149.3855	1180.5805	1181.3872	1255.7104	1267.647	1287.5862	1292.7676	1294.1609	1349.9305	1379.144	1398.3369	1409.7521	1431.4989	1452.7452	1489.927	1501.0542	1506.4709	1510.4723	3021.2054	3030.2998	3047.3387	3051.0522	3073.936	3083.3643	3086.5878	3095.5788	3114.1514	3114.6692	3823.4452	3823.9334
CC1C(O)C(C)C1O	C[C@H]1[C@@H](O)[C@@H](C)[C@H]1O	
InChI=1S/C6H12O2/c1-3-5(7)4(2)6(3)8/h3-8H,1-2H3	InChI=1S/C6H12O2/c1-3-5(7)4(2)6(3)8/h3-8H,1-2H3/t3-,4+,5+,6-
