20
gdb 91139	2.74127	1.6724	1.44356	1.3685	77.5	-0.2038	0.0566	0.2604	995.4654	0.173014	-403.069222	-403.061767	-403.060823	-403.100843	30.49	
O	 0.0671408328	 1.3826293444	-0.4297863276	-0.42077
C	 0.0658694692	 0.007023182	-0.1222579397	 0.098981
C	 0.3338415995	-0.462641261	 1.3406831935	-0.229469
N	-0.9000102288	-1.3118493101	 1.3105757385	-0.145527
C	-2.1508635059	-0.7996427658	 1.9839879603	 0.023891
C	-2.1108774406	 0.5126344368	 2.7963991019	-0.237343
C	-2.3503419488	 1.3275037246	 1.4882640764	-0.248431
C	-2.5397615338	-0.0021681808	 0.6917790238	-0.046825
C	-1.3188971154	-0.6648820132	 0.0085916564	 0.006487
H	 0.9790191812	 1.6645068249	-0.5534326176	 0.2864
H	 0.6893899706	-0.5452789222	-0.8383429184	 0.077158
H	 1.2437063497	-1.0499706546	 1.5019754482	 0.097685
H	 0.3218445371	 0.362899654	 2.0589174796	 0.105117
H	-2.7363190621	-1.6239214812	 2.3988907631	 0.070965
H	-2.9572000434	 0.5676486159	 3.486926638	 0.099564
H	-1.2052426479	 0.7243744644	 3.371206507	 0.101244
H	-3.2516796017	 1.9438960404	 1.5135481563	 0.097753
H	-1.5192111879	 1.9446205833	 1.151572071	 0.130314
H	-3.4942772968	-0.119921721	 0.1771417121	 0.064146
H	-1.5906619273	-1.3451152407	-0.8063165127	 0.068661
107.6587	200.0362	247.8576	297.9483	313.4764	398.1638	443.8148	556.4988	617.0556	694.7103	720.9195	734.6401	816.8423	841.3216	851.8027	882.5295	933.7478	949.8927	968.1717	1002.3655	1004.2957	1045.7286	1081.9876	1102.0004	1129.976	1159.9297	1180.52	1188.5975	1199.898	1212.9436	1219.8978	1242.7221	1268.258	1274.6873	1292.0506	1308.3686	1315.1982	1323.2663	1359.8441	1436.961	1478.5161	1495.4808	1516.2603	3000.3327	3033.59	3040.5831	3053.5317	3067.2181	3075.4433	3089.9007	3096.5003	3100.133	3154.6106	3815.6247
OC1CN2C3CCC3C12	O[C@H]1CN2[C@H]3CC[C@H]3[C@@H]12	
InChI=1S/C7H11NO/c9-6-3-8-5-2-1-4(5)7(6)8/h4-7,9H,1-3H2	InChI=1S/C7H11NO/c9-6-3-8-5-2-1-4(5)7(6)8/h4-7,9H,1-3H2/t4-,5+,6+,7+/m1/s1
