25
gdb 60410	4.27757	0.692	0.62359	0.8539	90.7	-0.2434	0.0864	0.3298	1908.239	0.227581	-389.485258	-389.474677	-389.473733	-389.521874	38.846	
C	-0.03229512	 1.5191530092	-0.2091487501	-0.392382
C	 0.0415679193	 0.0298601947	 0.1482938972	 0.021918
C	 0.4934442468	-0.1845917121	 1.5978091526	-0.379798
C	-1.3038387474	-0.6450560569	-0.1178849517	-0.051348
O	-1.177168178	-2.0377470967	 0.0978707125	-0.257808
C	-2.3751244542	-2.7481748992	-0.0504941357	 0.181102
C	-2.9212137245	-3.0384269265	-1.4799590172	-0.245692
C	-3.2509966486	-4.4769269647	-0.9930301548	-0.218023
C	-2.2553173968	-4.2666908557	 0.1814432071	-0.250863
H	 0.9354389632	 2.0059808222	-0.0534691023	 0.113714
H	-0.3187851303	 1.670438812	-1.2555091695	 0.110316
H	-0.7669292676	 2.0394462762	 0.4172588933	 0.112335
H	 0.7723531897	-0.4519459654	-0.5151752168	 0.081118
H	-0.1948929547	 0.3075672639	 2.2961632284	 0.104947
H	 0.5180772266	-1.2488569125	 1.8422329828	 0.130107
H	 1.4912569346	 0.2339438917	 1.7646979664	 0.105585
H	-2.0765064152	-0.2261271468	 0.5521768479	 0.078642
H	-1.629529068	-0.4457936957	-1.1519481119	 0.083949
H	-3.1626571223	-2.3053585896	 0.5808980955	 0.06025
H	-3.7364691471	-2.4214135314	-1.8648531727	 0.0929
H	-2.0968010171	-3.0384088487	-2.1994720853	 0.106248
H	-4.2835073437	-4.5619852833	-0.6434107454	 0.103314
H	-3.0505012265	-5.2997908243	-1.681500563	 0.101247
H	-1.2471209975	-4.5977731889	-0.0830331969	 0.111944
H	-2.5139463706	-4.6585700915	 1.1674416897	 0.096279
41.9763	53.5441	102.3627	132.7691	184.3807	219.5426	242.791	262.9076	304.9999	399.1002	416.4673	448.9216	503.1062	643.2928	766.8604	786.7369	836.5831	900.5885	921.8599	924.9754	930.1757	945.6102	960.944	975.434	978.6114	1057.3328	1062.3928	1141.1294	1159.001	1176.8358	1190.6129	1196.4659	1203.116	1245.0239	1248.469	1258.9446	1272.1173	1275.8201	1305.3105	1328.602	1371.7911	1380.5622	1396.4078	1413.6938	1441.559	1471.8379	1486.9394	1488.876	1489.9708	1503.8823	1508.7622	1512.1918	1519.1131	2940.2599	2967.3505	2980.8661	3019.3246	3024.1811	3029.822	3055.052	3062.5076	3066.7027	3087.5683	3093.2087	3102.4235	3106.4307	3114.9207	3127.133	3127.5692
CC(C)COC1CCC1	CC(C)COC1CCC1	
InChI=1S/C8H16O/c1-7(2)6-9-8-4-3-5-8/h7-8H,3-6H2,1-2H3	InChI=1S/C8H16O/c1-7(2)6-9-8-4-3-5-8/h7-8H,3-6H2,1-2H3
