21
gdb 119014	3.60982	0.87854	0.84822	1.8105	74.35	-0.243	0.0582	0.3012	1443.5003	0.18164	-461.355519	-461.345637	-461.344693	-461.39075	35.972	
O	 0.0389581715	 1.4619570105	 0.4183749907	-0.416104
C	 0.0960023107	 0.0562982814	 0.2362584876	-0.095031
C	-1.3289501622	-0.4320155371	-0.0019342587	-0.220466
C	-1.4518629799	-1.9468738464	-0.1997365926	 0.33386
O	-1.0307933938	-2.6572495478	 0.9732025438	-0.479859
C	-2.8883080819	-2.4243866184	-0.4598308597	-0.247234
C	-2.6501067053	-3.7781001696	-1.1283759582	-0.074018
O	-1.4696212561	-3.6147108811	-1.9179713049	-0.266234
C	-0.7345685396	-2.4909797633	-1.4544936535	-0.09323
H	 0.9280896808	 1.7796856718	 0.6006405532	 0.286551
H	 0.7387276868	-0.2049856922	-0.6210007266	 0.088331
H	 0.5136074007	-0.4399936046	 1.126874136	 0.08175
H	-1.9390611315	-0.1386710356	 0.8589922779	 0.114639
H	-1.7319322572	 0.0872546716	-0.8786734907	 0.10538
H	-0.0691097156	-2.6718804829	 0.9942268258	 0.279436
H	-3.4578938907	-2.4910181965	 0.4692324237	 0.115253
H	-3.3955521553	-1.7344402777	-1.1413074407	 0.103416
H	-2.4934069607	-4.5600435884	-0.3734115612	 0.104119
H	-3.4641794316	-4.0886405424	-1.7905754293	 0.101692
H	-0.6907373141	-1.7294230982	-2.2466628021	 0.093807
H	 0.2980750849	-2.793130053	-1.2268116506	 0.083944
64.5342	94.8813	102.3155	138.0708	200.408	260.4325	278.5096	328.9132	332.6659	364.4034	423.9627	461.694	663.5251	688.9323	795.9647	809.6276	861.4214	925.1227	953.3989	968.5627	992.8243	1012.2449	1036.08	1066.2438	1094.1309	1108.1734	1172.2997	1187.0112	1196.9776	1229.8634	1243.275	1252.1073	1286.9973	1314.1915	1330.4785	1334.4849	1370.1671	1374.0057	1413.4565	1463.3576	1472.9058	1482.7754	1513.3217	1525.7797	1529.2167	2957.574	2984.0519	2989.005	3015.2152	3016.1771	3042.4038	3058.7426	3079.0171	3090.5298	3124.5072	3825.0192	3828.6311
OCCC1(O)CCOC1	OCC[C@@]1(O)CCOC1	
InChI=1S/C6H12O3/c7-3-1-6(8)2-4-9-5-6/h7-8H,1-5H2	InChI=1S/C6H12O3/c7-3-1-6(8)2-4-9-5-6/h7-8H,1-5H2/t6-/m1/s1
