19
gdb 78458	3.87043	1.2661	1.18187	3.4235	75.53	-0.226	0.0801	0.306	1108.7307	0.161296	-419.123922	-419.116603	-419.115659	-419.155205	30.391	
C	-0.0863860391	 1.4078947547	-0.0489723613	-0.321717
N	 0.0106425126	-0.0464416689	 0.0043437486	-0.095246
C	 1.3721626892	-0.5760385413	-0.1927655874	-0.030165
C	 0.757498818	-0.5673138109	 1.1636352813	-0.030165
C	 0.6433704029	-2.0866136806	 1.4070504505	-0.097369
N	 1.9724755302	-2.6199467144	 0.9099095342	-0.351706
C	 1.4725871673	-2.0983816417	-0.4228305412	-0.097369
C	 0.0857097659	-2.64128686	 0.0550529785	 0.208804
O	-0.0498357838	-4.0301035116	 0.0025624306	-0.466664
H	 0.8014767637	 1.928073777	 0.3499655618	 0.097744
H	-0.2272361637	 1.719231753	-1.0885375411	 0.128201
H	-0.9593065357	 1.7296201576	 0.5271941988	 0.128201
H	 2.163686234	 0.1014096803	-0.4987162294	 0.090582
H	 1.0525729595	 0.1171799227	 1.9532247375	 0.090581
H	 0.2915894214	-2.4437825111	 2.375120417	 0.072853
H	 2.7729223485	-2.0966473465	 1.2692692983	 0.205061
H	 1.966807055	-2.4675595566	-1.3216816532	 0.072853
H	-0.8110399732	-2.1887185508	-0.3542235285	 0.110458
H	 0.7698485574	-4.3837115607	 0.376275335	 0.285065
181.7638	217.7592	261.6714	306.7709	356.1685	382.4994	413.5973	529.1337	577.6658	604.9579	699.3471	801.9972	810.0546	843.466	858.7232	877.3436	927.6882	928.8882	952.5752	968.6395	1022.5125	1059.8184	1073.4637	1114.471	1116.0744	1136.432	1156.7395	1161.1375	1216.8161	1220.4299	1229.0316	1252.2303	1282.6537	1295.7954	1323.7717	1328.1258	1376.5937	1444.2466	1455.0577	1492.4244	1497.3508	2955.4653	3069.894	3108.8957	3117.784	3119.3806	3152.3126	3162.2332	3185.6687	3430.8495	3742.5547
CN1C2C1C1NC2C1O	CN1[C@H]2[C@@H]1[C@@H]1N[C@H]2[C@H]1O	
InChI=1S/C6H10N2O/c1-8-4-2-6(9)3(7-2)5(4)8/h2-7,9H,1H3	InChI=1S/C6H10N2O/c1-8-4-2-6(9)3(7-2)5(4)8/h2-7,9H,1H3/t2-,3+,4-,5+,6-,8?
