18
gdb 72205	3.30244	1.84113	1.59715	2.4357	73.51	-0.206	0.0629	0.269	884.3592	0.15024	-401.882096	-401.875707	-401.874763	-401.912316	27.66	
O	 0.0122699197	 1.3313847757	 0.1113763709	-0.477754
C	 0.0571766351	-0.0544841224	 0.0007855579	 0.396425
C	-0.1788514294	-0.7219739771	-1.3459692154	-0.293042
C	-0.0967085344	-2.2138110881	-0.9992911167	-0.06426
C	-1.3230368283	-2.6005571441	-0.1404211311	-0.168961
N	-0.5840998239	-2.2335499799	 1.1136759535	-0.140281
C	-0.3792870965	-0.7736349725	 1.2675079847	-0.06903
C	 1.0696104438	-0.8418195447	 0.8055034803	-0.182617
C	 0.7313698944	-2.2655433877	 0.3532294035	-0.009325
H	 0.7610007799	 1.6965474179	-0.3743792075	 0.282607
H	-1.143288652	-0.4557324657	-1.7910093839	 0.105551
H	 0.6108939532	-0.4173579418	-2.0472365711	 0.083818
H	 0.186600522	-2.8598351592	-1.8315883677	 0.066884
H	-2.2528154291	-2.0495060324	-0.3151020967	 0.102107
H	-1.5369013889	-3.6737348455	-0.1301279949	 0.102492
H	-0.8291664239	-0.2170145558	 2.0821168121	 0.098734
H	 1.9760801037	-0.4510104445	 1.2474800749	 0.091852
H	 1.4015622148	-3.1038248621	 0.5452162569	 0.074801
226.5038	294.8492	355.179	398.4985	410.6699	485.811	568.7552	600.9528	708.0255	712.3903	812.6573	830.5276	848.8233	867.993	886.5077	921.0911	940.1169	948.277	979.2598	999.115	1016.3925	1053.8537	1080.1751	1096.9317	1125.6711	1169.1756	1185.9881	1202.7532	1221.5147	1223.0149	1244.1047	1270.6108	1286.4511	1312.5188	1325.6641	1350.3186	1420.0687	1492.3584	1503.563	3004.9412	3039.907	3072.83	3089.6685	3096.1767	3106.7969	3173.8452	3205.9002	3780.5876
OC12CC3CN4C1C2C34	O[C@]12C[C@@H]3CN4[C@H]1[C@H]2[C@H]34	
InChI=1S/C7H9NO/c9-7-1-3-2-8-5(3)4(7)6(7)8/h3-6,9H,1-2H2	InChI=1S/C7H9NO/c9-7-1-3-2-8-5(3)4(7)6(7)8/h3-6,9H,1-2H2/t3-,4-,5+,6+,7+/m1/s1
