14
gdb 125721	4.37247	1.10991	0.89011	4.555	65.54	-0.2752	-0.0628	0.2124	1233.0349	0.100905	-470.047571	-470.039242	-470.038298	-470.081041	29.408	
C	 0.6611391046	 1.2228497922	-0.4077579128	-0.491205
C	 0.0376241181	-0.0745576036	-0.0282407433	 0.355089
N	-1.2538924209	-0.2840825655	-0.0995556849	-0.151504
O	-1.406848603	-1.6001239874	 0.3387675887	-0.178846
C	-0.1853569168	-2.0415046325	 0.6274801461	 0.356695
N	 0.7517164952	-1.1621064286	 0.4275167165	-0.363889
C	-0.0277907856	-3.4486230646	 1.1318776278	 0.320454
N	 1.2702604367	-3.7516535129	 1.3812187469	-0.529994
O	-0.9733900248	-4.1905049447	 1.2832977441	-0.336765
H	 1.1996836947	 1.6481432972	 0.4441937875	 0.152665
H	 1.3846914763	 1.0740049256	-1.214629353	 0.152665
H	-0.1041701405	 1.9268726789	-0.7367761363	 0.157198
H	 1.9946486733	-3.0701185212	 1.2260512357	 0.283523
H	 1.4957686826	-4.6701962429	 1.7241327372	 0.273914
63.0452	133.7629	153.5571	163.5753	267.697	322.7768	334.062	384.2204	515.6314	569.5131	647.7714	658.291	706.9429	720.4033	819.8619	940.8613	1001.1569	1037.9886	1058.5926	1072.4674	1099.0918	1262.0005	1349.1773	1399.4598	1421.9495	1473.7965	1476.2787	1546.0598	1604.5743	1608.7487	1816.5417	3053.9609	3115.0073	3154.4678	3598.9585	3740.0897
CC1=NOC(=N1)C(N)=O	Cc1noc(n1)C(=O)N	
InChI=1S/C4H5N3O2/c1-2-6-4(3(5)8)9-7-2/h1H3,(H2,5,8)	InChI=1S/C4H5N3O2/c1-2-6-4(3(5)8)9-7-2/h1H3,(H2,5,8)
