16
gdb 46444	3.65009	1.18978	1.08161	2.9136	76.88	-0.2338	-0.0278	0.206	1128.324	0.12418	-400.72047	-400.712608	-400.711664	-400.752832	30.424	
O	 0.0175025903	-0.008969394	 0.0220596216	-0.319636
C	-0.0160848026	 1.1932901588	-0.0299675467	 0.454438
C	-1.2672554912	 2.0772523867	-0.0978365279	-0.346757
C	-0.8299236911	 3.3459362192	-0.8609437256	-0.281664
C	 0.6879559155	 3.4233789786	-0.6596599326	 0.185523
N	 1.050595201	 3.2791379148	 0.7657841814	-0.369523
C	 1.1789876819	 2.1018917756	-0.1330839394	-0.215609
C	 1.4884576216	 4.2418564057	-1.5184837186	 0.167639
C	 2.1360571237	 4.9541818213	-2.2398150801	-0.362986
H	-2.0895754754	 1.5365404476	-0.568531756	 0.130864
H	-1.5645679868	 2.317041967	 0.9281242127	 0.149829
H	-1.0381194516	 3.2469040633	-1.9304158891	 0.123196
H	-1.3207087786	 4.254862511	-0.5041760115	 0.121086
H	 1.9819780929	 3.6664923588	 0.9064882853	 0.249025
H	 2.15622685	 1.698439517	-0.3679982885	 0.117436
H	 2.7138177506	 5.5760099084	-2.8782699149	 0.197139
96.9415	146.3942	150.3949	271.489	367.6252	421.9172	482.8832	524.883	534.5853	559.0881	608.1753	650.7857	668.0854	678.9734	793.9431	812.9841	872.4324	921.6508	981.9981	994.9361	1051.3632	1056.0728	1082.0528	1172.7239	1194.2592	1221.4001	1269.2702	1291.1881	1296.2628	1345.2386	1398.4835	1450.3847	1491.4971	1846.3457	2236.8657	3061.6338	3066.6023	3107.53	3130.8914	3202.0814	3495.0681	3501.1214
O=C1CCC2(NC12)C#C	O=C1CC[C@]2(N[C@@H]12)C#C	
InChI=1S/C7H7NO/c1-2-7-4-3-5(9)6(7)8-7/h1,6,8H,3-4H2	InChI=1S/C7H7NO/c1-2-7-4-3-5(9)6(7)8-7/h1,6,8H,3-4H2/t6-,7+/m0/s1
