17
gdb 64890	1.98419	1.7305	1.09837	4.986	80.39	-0.2395	0.0149	0.2545	1128.8497	0.133315	-380.829453	-380.819677	-380.818732	-380.863501	36.236	
C	 0.0192748679	 1.5018868289	-0.023117109	-0.458252
C	 0.0237937075	-0.0184101677	-0.0221636196	 0.089096
C	 1.3339403885	-0.7551514291	-0.2269529905	-0.344941
C	 0.7514645139	-0.7484105176	 1.1635693735	 0.109176
N	 1.4423029543	-0.0489783875	 2.2086439886	-0.55752
C	 0.1345258996	-1.970737625	 1.6363992222	 0.300354
N	-0.3662521768	-2.9316474271	 2.039335773	-0.34462
C	-1.1670090115	-0.622711131	-0.5504873191	 0.292037
C	-2.1774807098	-1.1025613137	-0.9918155995	-0.445124
H	 0.9161866688	 1.9083270403	 0.4501977659	 0.104736
H	-0.0224886464	 1.8765341445	-1.0499220779	 0.141933
H	-0.8548262334	 1.8854487669	 0.5110326658	 0.138504
H	 1.3157417624	-1.6844922065	-0.7820057916	 0.153804
H	 2.2262640014	-0.154312741	-0.3752688046	 0.126581
H	 2.141620426	 0.5870294241	 1.8506791634	 0.243968
H	 0.8089566714	 0.458957384	 2.8161895875	 0.248889
H	-3.0660513937	-1.5444663726	-1.3698415682	 0.201378
107.7818	111.8403	158.1359	188.6954	193.7358	209.2409	282.399	321.8546	396.0343	415.4265	462.2049	542.3323	582.8953	601.8769	619.7725	654.1557	661.5999	704.2907	767.66	827.8528	925.4834	954.3205	977.8784	1075.598	1080.0839	1105.3039	1222.73	1254.8451	1326.2839	1360.5184	1412.6812	1474.7405	1483.9749	1499.5081	1652.1119	2235.8515	2356.9506	3045.524	3114.6941	3123.4174	3134.8769	3235.2595	3502.6352	3525.4412	3628.2022
CC1(CC1(N)C#N)C#C	C[C@]1(C[C@]1(N)C#N)C#C	
InChI=1S/C7H8N2/c1-3-6(2)4-7(6,9)5-8/h1H,4,9H2,2H3	InChI=1S/C7H8N2/c1-3-6(2)4-7(6,9)5-8/h1H,4,9H2,2H3/t6-,7+/m1/s1
