18
gdb 108435	2.28405	1.71145	1.2102	4.8796	71.16	-0.2379	0.007	0.2449	1077.296	0.147808	-439.082061	-439.073711	-439.072767	-439.115095	31.194	
C	-0.0768467751	 1.5275746612	-0.039101973	-0.385594
C	-0.0697767346	-0.0084477505	-0.0675518183	-0.31326
C	 0.7469104468	-0.5498805499	-1.2152839713	 0.152421
N	 0.2757212106	-0.3181200671	-2.6167224914	-0.350182
C	 0.3941348621	-1.7728254239	-2.9319484575	-0.193095
C	 1.0767572168	-2.0216266996	-1.5775189239	 0.031933
O	 2.5024914703	-1.7096220057	-1.583142068	-0.265845
C	 2.2835261493	-0.3999480755	-1.1977702799	 0.473594
O	 3.0989156874	 0.4319734154	-0.9669147027	-0.331197
H	 0.9414732099	 1.9144141666	 0.0496778334	 0.156994
H	-0.5116318802	 1.9426947232	-0.9539869767	 0.122908
H	-0.6641726587	 1.8943285174	 0.8071003158	 0.117869
H	 0.3422910297	-0.3940690858	 0.8727587401	 0.117004
H	-1.0943963663	-0.3956076587	-0.1441601171	 0.099487
H	-0.6779748459	 0.0239619356	-2.6497026076	 0.226358
H	-0.5673837165	-2.2936423757	-3.0068487427	 0.110145
H	 0.9956587278	-1.9928682029	-3.818402785	 0.126402
H	 0.8669512066	-2.9115480942	-0.9874692143	 0.104059
97.2803	132.2484	153.0577	203.3154	244.2751	303.1904	323.4771	412.4007	488.8672	649.7458	687.9752	705.3523	774.5691	794.2152	840.2157	877.0807	935.2989	953.5166	990.3641	994.6154	1008.0645	1071.4032	1096.6267	1128.8761	1152.0507	1173.0506	1208.4954	1253.5652	1293.2367	1317.8104	1338.9296	1360.6324	1409.7242	1416.6895	1481.5504	1494.8036	1498.885	1509.9758	1934.0032	3018.9402	3034.7135	3044.5192	3059.0619	3094.2259	3111.8018	3130.5142	3137.8374	3539.0392
CCC12NCC1OC2=O	CC[C@]12NC[C@H]1OC2=O	
InChI=1S/C6H9NO2/c1-2-6-4(3-7-6)9-5(6)8/h4,7H,2-3H2,1H3	InChI=1S/C6H9NO2/c1-2-6-4(3-7-6)9-5(6)8/h4,7H,2-3H2,1H3/t4-,6+/m1/s1
