16
gdb 84409	3.22963	1.29573	0.98137	3.4683	73.58	-0.2437	-0.0374	0.2062	1171.8398	0.124254	-437.959034	-437.950811	-437.949867	-437.992111	30.	
C	-0.1060134819	 1.5845182929	 0.018494011	-0.392246
C	 0.0171846135	 0.0526451364	-0.034149757	-0.185124
C	 0.8385428249	-0.5058202246	-1.1700409035	-0.154641
C	 1.842337622	-1.2408847163	-0.6914687969	-0.015564
N	 1.8226313493	-1.2676689824	 0.7224594298	-0.137484
C	 2.7362810109	-1.935097825	 1.5247537049	 0.162131
O	 3.6554997268	-2.5827270985	 1.0866231579	-0.306873
C	 0.7419476222	-0.4930861785	 1.2048454789	 0.437838
O	 0.4848512559	-0.3107680217	 2.3668411183	-0.353308
H	 0.8799277571	 2.0570389129	-0.014036873	 0.130264
H	-0.6895289181	 1.9519455275	-0.8298844399	 0.125121
H	-0.6038869587	 1.8844456539	 0.9441138442	 0.146789
H	-0.994429223	-0.3768955483	-0.0299003571	 0.128968
H	 0.6340215133	-0.3293939343	-2.2158255231	 0.121487
H	 2.6237323332	-1.7906642361	-1.1927204021	 0.163568
H	 2.5105166525	-1.795771568	 2.5928140478	 0.129074
71.1948	153.9668	196.7449	223.8843	243.6464	251.1398	331.1388	399.8035	544.3766	581.7316	658.5024	711.3236	748.4288	789.4437	844.5771	920.9084	940.7515	982.6692	1041.067	1044.9335	1083.2761	1105.8641	1149.0123	1229.2612	1277.5315	1289.2533	1320.76	1393.4726	1409.0918	1421.4372	1493.9496	1499.8838	1674.2123	1800.9549	1847.5527	3017.8973	3036.354	3046.1191	3120.7749	3129.6389	3241.1718	3273.5556
CC1C=CN(C=O)C1=O	C[C@H]1C=CN(C=O)C1=O	
InChI=1S/C6H7NO2/c1-5-2-3-7(4-8)6(5)9/h2-5H,1H3	InChI=1S/C6H7NO2/c1-5-2-3-7(4-8)6(5)9/h2-5H,1H3/t5-/m0/s1
