21
gdb 119655	3.81771	1.02369	0.93897	1.6055	82.82	-0.2272	0.0878	0.315	1358.3757	0.181789	-387.00781	-386.999314	-386.99837	-387.041419	32.747	
C	-0.1378858289	 1.5226829162	-0.0066838066	-0.384309
C	 0.0017995992	-0.00091077	 0.017781797	-0.162486
C	 0.7171169027	-0.5531509819	-1.2235413478	-0.347997
C	 0.7822980536	-2.0485788766	-1.2407628728	 0.511847
O	-0.4755957885	-2.8087032087	-1.2423203083	-0.366191
C	 0.5673068596	-3.8232924984	-1.2589647377	 0.088015
C	 1.5125034998	-3.0365861696	-2.2155249719	-0.147054
C	 2.7171273797	-3.1952089298	-1.2630843199	-0.281364
C	 1.5229707553	-3.0614389941	-0.2939367393	-0.133216
H	 0.841470217	 2.0125746336	-0.0525140681	 0.11161
H	-0.7128914026	 1.8530472908	-0.8788534813	 0.11608
H	-0.6511359779	 1.8886414422	 0.8878750756	 0.113025
H	 0.551754633	-0.3088350143	 0.9158802747	 0.096778
H	-0.9859754521	-0.4691238807	 0.0885983199	 0.122577
H	 0.198293568	-0.2197385646	-2.1319215982	 0.110485
H	 1.7401215194	-0.158195042	-1.2835036874	 0.104244
H	 0.2766295898	-4.873326353	-1.2701820274	 0.091586
H	 1.4720497972	-3.0209550335	-3.3049877916	 0.079026
H	 3.2258920204	-4.1630006522	-1.2785756409	 0.098334
H	 3.4493159502	-2.3829006335	-1.256580199	 0.099097
H	 1.495482705	-3.0772922601	 0.795759451	 0.079914
75.6624	79.7537	128.7316	239.8218	259.4241	316.273	342.157	461.4388	544.3908	682.0663	723.7064	755.4811	775.227	787.7943	850.0967	861.8494	890.9507	899.7789	912.8015	925.364	986.2151	1013.0882	1034.2075	1051.2923	1075.9197	1096.0334	1123.9698	1142.8223	1151.2418	1169.0383	1184.1829	1234.6257	1239.3092	1264.4182	1282.4438	1306.2977	1330.7781	1372.2283	1409.6732	1413.3969	1467.0624	1493.1513	1499.3398	1510.0125	1514.884	3015.5964	3028.1472	3031.9372	3050.4385	3051.6913	3073.4	3098.6244	3102.951	3106.0419	3113.0074	3115.3303	3130.6102
CCCC12OC3C1CC23	CCC[C@@]12O[C@H]3[C@@H]1C[C@@H]23	
InChI=1S/C8H12O/c1-2-3-8-5-4-6(8)7(5)9-8/h5-7H,2-4H2,1H3	InChI=1S/C8H12O/c1-2-3-8-5-4-6(8)7(5)9-8/h5-7H,2-4H2,1H3/t5-,6+,7-,8+
