19
gdb 94644	3.58522	0.80363	0.71097	3.0355	78.07	-0.2477	0.0525	0.3003	1587.3293	0.156813	-422.967009	-422.95719	-422.956246	-423.002743	35.095	
O	 0.1559069026	 1.3665035417	-0.2412496276	-0.420059
C	 0.0992649413	 0.0004090997	 0.0863422472	 0.04029
C	-0.1703020905	-0.3829865141	 1.5597606637	-0.099063
O	-1.376578459	-1.0837617141	 1.1947498481	-0.292741
C	-1.2790639179	-0.6481681646	-0.1870523154	 0.110355
C	-2.4150412872	 0.2778375809	-0.5900151517	-0.183023
C	-3.7772165065	-0.4335888523	-0.461446356	-0.361342
C	-4.9008419794	 0.4261630529	-0.81011353	 0.293125
C	-5.8112690688	 1.1547470307	-1.1024109211	-0.439464
H	 1.0530669776	 1.6813256612	-0.0964637601	 0.291309
H	 0.9318999058	-0.5539043809	-0.3633284639	 0.08037
H	 0.5577344762	-1.0436076545	 2.045408617	 0.099621
H	-0.3681201167	 0.4844467049	 2.202652488	 0.104141
H	-1.244407662	-1.5197407547	-0.855366182	 0.075024
H	-2.4052853227	 1.1732256253	 0.0366818212	 0.123162
H	-2.2591614132	 0.6103544071	-1.6219769885	 0.114311
H	-3.7886495002	-1.3271500459	-1.1002493695	 0.123588
H	-3.8872832182	-0.7925334287	 0.5685806255	 0.150146
H	-6.6235591512	 1.7890636752	-1.3565762448	 0.190251
53.6911	84.2067	94.6387	99.1311	206.4359	215.1563	257.6461	348.005	407.6154	444.437	483.7766	571.4995	611.6077	631.5208	737.1542	779.8967	861.799	889.7133	925.902	968.3694	1023.2228	1028.9869	1062.5433	1068.3416	1109.9961	1152.0773	1172.7373	1188.2403	1221.1137	1262.7355	1292.4007	1306.3041	1310.8122	1345.8658	1365.9879	1401.447	1440.4949	1472.807	1487.4966	1515.1904	2238.8918	3002.3356	3012.2091	3017.5582	3028.2486	3054.9438	3064.103	3065.1924	3110.6845	3508.6491	3829.1828
OC1COC1CCC#C	O[C@H]1CO[C@H]1CCC#C	
InChI=1S/C7H10O2/c1-2-3-4-7-6(8)5-9-7/h1,6-8H,3-5H2	InChI=1S/C7H10O2/c1-2-3-4-7-6(8)5-9-7/h1,6-8H,3-5H2/t6-,7-/m0/s1
