14
gdb 129718	2.37858	1.90383	1.05801	3.7972	72.92	-0.2001	-0.045	0.155	1037.1385	0.100982	-469.991512	-469.983417	-469.982473	-470.023866	30.617	
N	 0.0500624389	 1.3780819484	-0.0210524472	-0.586936
C	-0.0140767401	 0.0215035147	 0.0205831243	 0.214134
C	-1.1577759	-0.7093975155	 0.1329531067	 0.247987
O	-2.3601944674	-0.0565649506	 0.1689741802	-0.455435
C	-1.0480129416	-2.1266470171	 0.2159074241	-0.0491
N	 0.045929132	-2.8153462413	 0.1886601	-0.108507
O	 1.2214050423	-2.0678102746	 0.0585157661	-0.286418
C	 1.2529588492	-0.6994974499	-0.0394020403	 0.381849
N	 2.3483776122	-0.065064053	-0.1852625888	-0.561522
H	 0.9430752867	 1.7544882972	-0.3039207402	 0.28038
H	-0.7858928094	 1.8901850581	-0.2462944387	 0.268629
H	-3.0781184376	-0.6953657402	 0.2146665414	 0.303939
H	-1.9429413766	-2.7388760004	 0.3159957423	 0.121608
H	 3.1443818912	-0.7003574459	-0.21884182	 0.22939
121.2438	165.253	189.9007	278.7652	287.0654	333.6497	383.9338	486.8888	517.7249	525.6021	533.0132	551.5679	617.9196	685.071	750.0789	821.2801	874.6411	895.1007	917.228	991.6527	1070.6987	1169.5026	1269.1839	1275.5785	1346.1065	1394.83	1438.1262	1590.1483	1624.5479	1704.8619	1731.4559	3146.9605	3507.6607	3576.9343	3715.5961	3836.3775
NC1=C(O)C=NOC1=N	NC1=C(ON=C[C]1O)[NH]	
InChI=1S/C4H5N3O2/c5-3-2(8)1-7-9-4(3)6/h1,6,8H,5H2	InChI=1S/C4H5N3O2/c5-3-2(8)1-7-9-4(3)6/h1,6,8H,5H2
