15
gdb 5093	3.42195	1.9599	1.26284	1.9365	63.99	-0.1772	0.0515	0.2288	914.7109	0.12054	-395.995393	-395.987162	-395.986218	-396.02765	30.437	
N	 0.2060510704	 1.4184204039	-0.0275296352	-0.626085
C	 0.0471901802	-0.0019646381	-0.0145875368	 0.069335
C	-1.0732928246	-0.8119844353	 0.0386975395	-0.155708
N	-0.6391816084	-2.106878198	 0.024660587	-0.253961
C	 0.7437436011	-2.1651801429	-0.0368103966	 0.151039
N	 1.3923442732	-3.4198808055	-0.0605955133	-0.614679
C	 1.1809757204	-0.8589353854	-0.061693296	 0.271147
O	 2.4710967281	-0.4307598463	-0.1210577979	-0.462778
H	-0.1792442579	 1.8523052021	 0.8051280753	 0.239203
H	-0.252805343	 1.8456692823	-0.8256079362	 0.2392
H	-2.1222079095	-0.5664190597	 0.084470068	 0.109308
H	-1.2115170131	-2.9322710209	 0.0536160427	 0.257875
H	 2.026389898	-3.523552921	 0.7260514217	 0.243133
H	 1.9535538977	-3.530396994	-0.8998864435	 0.243128
H	 2.4071552875	 0.5364503187	-0.1223524586	 0.289845
114.6898	143.5046	166.5031	240.3675	284.6213	302.8709	314.0501	455.7656	536.6491	551.3525	578.4507	636.1952	686.8632	709.2361	752.1993	770.5314	831.8529	848.8073	1026.5037	1102.7445	1202.382	1216.8434	1235.6801	1245.2132	1329.135	1360.1484	1445.2386	1501.7818	1569.1173	1646.219	1661.2991	1689.8286	3258.8515	3489.0779	3494.8185	3545.8952	3561.243	3686.2446	3718.3484
NC1=CNC(N)=C1O	Nc1c[nH]c(N)c1O	
InChI=1S/C4H7N3O/c5-2-1-7-4(6)3(2)8/h1,7-8H,5-6H2	InChI=1S/C4H7N3O/c5-2-1-7-4(6)3(2)8/h1,7-8H,5-6H2
