12
gdb 130020	5.49261	1.35219	1.08558	5.7088	63.49	-0.2417	-0.02	0.2216	994.8305	0.080156	-468.797131	-468.7908	-468.789856	-468.827668	24.828	
N	 0.0464216388	 1.3103394853	 0.1388953016	-0.585976
C	-0.0595692955	-0.0322164473	 0.0527290429	 0.459825
N	-1.1490517028	-0.740558388	 0.0215174308	-0.409243
C	-0.6582861003	-2.0393941236	-0.0051667562	 0.388422
N	-1.1441066475	-3.2548822736	-0.0424235333	-0.261788
O	 0.0192462981	-4.0588672528	-0.0569989846	-0.183767
C	 1.1484564727	-3.2977720589	-0.0285751505	-0.074758
C	 0.7535053389	-2.0121665727	 0.0052076969	 0.192046
O	 1.1571639507	-0.703369436	 0.0431385843	-0.252876
H	 0.9220773314	 1.7287792607	-0.1281043591	 0.280843
H	-0.792472414	 1.8328350004	-0.0532725565	 0.288486
H	 2.0828661795	-3.8320806934	-0.0367218963	 0.158785
162.814	325.207	335.247	373.8222	392.051	451.765	561.7052	565.9374	607.2177	737.6687	763.6459	777.1945	790.1496	847.3938	871.0518	914.9973	976.6085	1084.5291	1106.0725	1193.0972	1287.1871	1378.6583	1450.971	1576.4409	1599.1922	1709.9931	1717.0759	3286.7762	3609.469	3730.4365
NC1=NC2=NOC=C2O1	Nc1nc2nocc2o1	
InChI=1S/C4H3N3O2/c5-4-6-3-2(9-4)1-8-7-3/h1H,(H2,5,6,7)	InChI=1S/C4H3N3O2/c5-4-6-3-2(9-4)1-8-7-3/h1H,(H2,5,6,7)
