16
gdb 75559	2.65207	1.52067	1.04796	2.8272	72.17	-0.2453	0.0001	0.2454	1108.0166	0.125984	-434.080714	-434.072657	-434.071713	-434.113443	30.344	
N	 0.0084293206	 1.3672353669	 0.1607391016	-0.545931
C	-0.0647357689	 0.0001559337	 0.0047968301	 0.339998
N	-1.179559185	-0.6084231694	-0.008615595	-0.301368
C	-1.1923213139	-2.0645007371	-0.0485111037	-0.150758
C	 0.1327390504	-2.6911110198	 0.360637844	-0.097485
O	 1.2024024201	-2.0690258456	-0.3526050132	-0.255229
C	 1.3065660196	-0.7091160541	-0.0152749242	-0.069206
C	 2.2158195223	-0.0633109171	-0.9725504188	 0.268806
N	 2.9112247336	 0.5070903204	-1.6975427545	-0.317739
H	 0.7654032737	 1.8417716609	-0.3108065175	 0.270043
H	-0.8867132845	 1.8282053776	 0.0716234486	 0.26101
H	-1.9927914294	-2.4247217114	 0.6093393618	 0.111675
H	-1.4570666092	-2.3839120208	-1.0653473617	 0.121145
H	 0.2970463015	-2.5841467928	 1.4447228655	 0.101597
H	 0.1812701585	-3.7522108992	 0.1057344518	 0.123238
H	 1.7504869207	-0.5852383721	 0.9893834952	 0.140204
69.639	148.8511	209.3915	259.114	332.6708	375.1723	398.8716	448.2109	473.3526	494.9138	573.5913	604.1363	657.9735	684.3003	849.9125	908.3074	911.0035	972.4856	1034.1463	1053.2399	1116.8047	1145.3267	1205.2422	1260.6948	1278.6891	1289.5778	1341.7008	1365.327	1376.1381	1405.5332	1484.9394	1494.6551	1631.5004	1756.1825	2361.4873	2945.0636	2983.7764	3018.9268	3052.1663	3107.0392	3555.2969	3665.2412
NC1=NCCOC1C#N	NC1=NCCO[C@H]1C#N	
InChI=1S/C5H7N3O/c6-3-4-5(7)8-1-2-9-4/h4H,1-2H2,(H2,7,8)	InChI=1S/C5H7N3O/c6-3-4-5(7)8-1-2-9-4/h4H,1-2H2,(H2,7,8)/t4-/m0/s1
