18
gdb 6125	3.15344	1.66926	1.4223	2.218	68.3	-0.244	-0.0261	0.2179	968.0753	0.150917	-384.955348	-384.946279	-384.945335	-384.988696	32.88	
C	-0.7540091146	 1.1378872523	 0.1724890812	-0.406731
C	 0.1881053057	-0.0354918718	-0.0501396617	-0.088927
C	 1.1677300414	-0.0573641263	-1.2740233672	-0.299993
C	 2.3238356739	-0.603587909	-0.3574754066	 0.327721
C	 2.4892392737	-2.1200816552	-0.4390389549	-0.427216
O	 3.5836056552	 0.0149508819	-0.4459727763	-0.482978
C	 1.4558948066	-0.0991299561	 0.8074007721	 0.317352
O	 1.7769629901	 0.4031243545	 1.8509791855	-0.321943
H	-0.2112846638	 2.0874156884	 0.1310203211	 0.125065
H	-1.5408079024	 1.160983633	-0.5876789838	 0.121639
H	-1.2309585748	 1.070810065	 1.1548105382	 0.133929
H	-0.3548290812	-0.9861849771	 0.0079745755	 0.103941
H	 0.8851304599	-0.6863259478	-2.1195825321	 0.107842
H	 1.4026169601	 0.9514854782	-1.6206880447	 0.117382
H	 2.9909389397	-2.3741098377	-1.3778895438	 0.133536
H	 3.1076982551	-2.4771691315	 0.3889614805	 0.131328
H	 1.5269040388	-2.6398505299	-0.4099133875	 0.115012
H	 3.6874806663	 0.5588679092	 0.3452930045	 0.293042
72.2306	154.1924	175.0488	186.2735	219.9686	229.4271	288.944	304.9553	364.0556	415.1574	565.0807	570.4648	707.349	741.8219	808.182	873.0501	917.7399	947.9712	957.9735	993.7578	1049.3865	1103.9016	1131.0174	1161.6839	1178.7139	1204.7412	1244.1695	1288.7333	1340.8045	1375.9512	1401.0493	1409.3352	1477.0415	1484.1369	1492.6428	1493.1076	1495.042	1860.6214	3038.4172	3039.2076	3042.631	3073.7209	3110.2126	3112.9466	3113.5724	3120.6315	3138.097	3769.9116
CC1CC(C)(O)C1=O	C[C@H]1C[C@@](C)(O)C1=O	
InChI=1S/C6H10O2/c1-4-3-6(2,8)5(4)7/h4,8H,3H2,1-2H3	InChI=1S/C6H10O2/c1-4-3-6(2,8)5(4)7/h4,8H,3H2,1-2H3/t4-,6+/m0/s1
