17
gdb 74382	3.01228	1.75089	1.30695	1.6552	73.27	-0.2109	0.0142	0.2252	984.5059	0.13689	-417.971402	-417.96398	-417.963036	-418.002702	30.139	
C	-0.0059557914	 1.4617852168	 0.0219290004	-0.481227
C	-0.0184002574	-0.0390341132	-0.0639989685	 0.317534
N	 0.9672619783	-0.6630411445	-0.9170828049	-0.337982
C	 0.5623453918	-1.8637895429	-1.1317028235	 0.409515
N	 1.2019577297	-2.7846213504	-1.9212424246	-0.592898
C	-0.6735719879	-2.2031805869	-0.3146545109	-0.053357
O	-0.1322329693	-2.2255970636	 1.0602170763	-0.296785
C	-0.4726222975	-0.8513902645	 1.1816622613	 0.053379
C	-1.3172297204	-0.8205444228	-0.0612343562	-0.191477
H	 0.9698670242	 1.8181402957	 0.3653537909	 0.130647
H	-0.2013340411	 1.9079900766	-0.9589059382	 0.124737
H	-0.7685625499	 1.8247497089	 0.7190097422	 0.110056
H	 2.1632733074	-2.5598052994	-2.1368304148	 0.260592
H	 1.050228178	-3.7553930611	-1.6974109472	 0.257655
H	-1.2546063249	-3.098121182	-0.5382222778	 0.084183
H	-0.5791194259	-0.4469891615	 2.1819990839	 0.10716
H	-2.3171730238	-0.4718670952	-0.2852935183	 0.098269
179.242	209.4562	253.1867	270.594	350.4999	388.621	424.6002	538.2514	576.62	594.5578	639.2359	719.8874	744.9474	783.734	838.6189	867.6091	880.5958	894.0231	931.7653	951.1013	1008.3767	1042.5121	1092.4156	1108.4862	1133.6747	1178.7213	1205.5921	1211.9508	1269.2172	1298.6452	1372.7392	1412.6639	1434.186	1480.644	1501.2073	1624.6777	1697.1862	3032.8422	3098.881	3107.8528	3115.057	3177.1012	3194.0633	3568.4424	3683.4534
CC12N=C(N)C3OC1C23	C[C@@]12[N][C](N)[C@H]3O[C@@H]1[C@@H]23	
InChI=1S/C6H8N2O/c1-6-2-3(5(7)8-6)9-4(2)6/h2-4H,1H3,(H2,7,8)	InChI=1S/C6H8N2O/c1-6-2-3(5(7)8-6)9-4(2)6/h2-4H,1H3,(H2,7,8)/t2-,3-,4+,6-/m0/s1
