23
gdb 81703	2.51647	1.53445	1.26855	1.3036	84.63	-0.234	0.0816	0.3156	1134.0207	0.208441	-388.287562	-388.279438	-388.278493	-388.319528	33.438	
C	-0.0102206854	 1.5729893092	 0.0465662963	-0.422903
C	 0.0073150931	 0.0474823943	 0.0084597547	 0.014039
C	 0.7159058687	-0.5641808533	-1.2442183763	-0.004118
C	 2.0112376743	-0.6788987035	-0.3889241678	-0.269536
C	 1.129024998	-0.5997795715	 0.8853682405	 0.132862
O	 0.7760602447	-1.8336904047	 1.4843015216	-0.27137
C	 0.6571069123	-2.9777523134	 0.6515741475	-0.065639
C	-0.3142620737	-2.8418436606	-0.5274694304	-0.213822
C	 0.1523828988	-1.9254611089	-1.6776155047	-0.217949
H	 0.9823671064	 1.9973931617	-0.1420412106	 0.113367
H	-0.6884645336	 1.9761897834	-0.713352795	 0.114014
H	-0.3460453199	 1.9386838684	 1.0231163425	 0.116038
H	-0.994488382	-0.3350734756	 0.2226293466	 0.066366
H	 0.787183549	 0.0967375752	-2.1141664794	 0.057506
H	 2.6464468005	-1.5573563617	-0.5237559274	 0.096929
H	 2.6407178926	 0.2097927878	-0.4762425431	 0.099901
H	 1.5034231109	 0.0165781296	 1.7082513934	 0.071575
H	 1.6450735748	-3.2973493652	 0.2843956921	 0.087668
H	 0.3001427269	-3.7636553041	 1.3247996093	 0.104265
H	-0.4874764648	-3.847352474	-0.9305867282	 0.093114
H	-1.2795428269	-2.5000103989	-0.1368637233	 0.108868
H	-0.6954569132	-1.7686866848	-2.355800247	 0.094781
H	 0.9212619586	-2.4450674796	-2.2652962514	 0.094043
172.0222	218.6067	227.6583	241.7374	297.3949	330.8893	376.2062	383.8927	426.3299	538.2323	560.4	753.5154	778.7718	809.6522	838.734	862.6457	880.5096	903.9567	933.5305	941.9424	1012.0955	1042.3732	1046.6356	1069.2399	1086.4274	1107.0563	1127.2708	1143.887	1172.6329	1192.7724	1216.2121	1250.7171	1262.1014	1274.6074	1284.4957	1320.3304	1328.7387	1359.8521	1372.3419	1388.3616	1398.4529	1409.9906	1417.1826	1474.7032	1481.5067	1490.3041	1497.1328	1498.4484	1509.5885	2980.1404	3010.9026	3025.2539	3029.4988	3043.8795	3052.4608	3056.5034	3061.9297	3071.2109	3072.6446	3075.7133	3092.9183	3095.1747	3114.7901
CC1C2CC1OCCC2	C[C@H]1[C@H]2C[C@@H]1OCCC2	
InChI=1S/C8H14O/c1-6-7-3-2-4-9-8(6)5-7/h6-8H,2-5H2,1H3	InChI=1S/C8H14O/c1-6-7-3-2-4-9-8(6)5-7/h6-8H,2-5H2,1H3/t6-,7+,8-/m0/s1
