21
gdb 85861	2.11215	1.54121	1.2295	2.577	77.93	-0.2457	0.0645	0.3102	1147.3804	0.180112	-424.198285	-424.188686	-424.187742	-424.232041	36.775	
C	-0.6556469946	 1.5029672174	 0.0629425435	-0.452305
C	-0.0807237191	 0.0910559618	-0.0034094694	 0.224676
C	-1.160710576	-0.9278274253	-0.3849429019	-0.429952
C	 1.2362631437	-0.0833225283	-0.8344963933	-0.324868
C	 1.8539460635	-0.924375487	 0.324655681	 0.068317
O	 3.195847381	-0.73836732	 0.6959097482	-0.430248
C	 0.7321412025	-0.3881667998	 1.218894578	 0.385754
C	 0.8733411041	 0.2186363068	 2.54478997	-0.27774
O	 0.2031661345	-1.0372007238	 2.3588399529	-0.278234
H	 0.107104095	 2.2352002543	 0.3472277873	 0.105481
H	-1.0623369924	 1.803052818	-0.9094207335	 0.116917
H	-1.470954554	 1.5636350313	 0.7930566458	 0.120484
H	-1.616074865	-0.6635225953	-1.3455191508	 0.111503
H	-0.7539586223	-1.9400435515	-0.4724790316	 0.119537
H	-1.9486753912	-0.9550913463	 0.374086725	 0.127142
H	 1.1491189711	-0.5697584522	-1.8082040864	 0.10574
H	 1.7686833927	 0.8655767673	-0.959242837	 0.090865
H	 1.7403278208	-1.9988139527	 0.1544417925	 0.106233
H	 3.3367996228	 0.2043994289	 0.8347633506	 0.277035
H	 1.8305946136	 0.1572542787	 3.061397564	 0.118482
H	 0.2343050092	 1.0508448877	 2.8359891552	 0.115182
78.0384	178.9835	202.5357	214.9515	225.0722	252.8128	274.9844	323.8133	337.1579	343.5063	434.6974	499.7574	549.079	574.3366	656.3359	782.2618	851.5109	881.2985	924.1524	926.7889	959.8586	973.6904	1010.2959	1030.781	1071.1539	1100.452	1127.0864	1156.1807	1168.3889	1181.3448	1225.3382	1246.2312	1267.5666	1305.4837	1311.9027	1400.6605	1413.113	1425.2217	1440.0987	1479.6132	1483.3966	1487.8217	1501.9738	1506.5344	1529.2243	3022.5817	3032.1498	3048.4196	3076.5284	3081.6622	3088.742	3095.0244	3101.361	3107.4438	3115.9412	3170.0398	3804.7652
CC1(C)CC(O)C11CO1	CC1(C)C[C@@H](O)[C@]21CO2	
InChI=1S/C7H12O2/c1-6(2)3-5(8)7(6)4-9-7/h5,8H,3-4H2,1-2H3	InChI=1S/C7H12O2/c1-6(2)3-5(8)7(6)4-9-7/h5,8H,3-4H2,1-2H3/t5-,7+/m1/s1
