20
gdb 54312	2.35547	1.54059	1.0929	3.5492	79.62	-0.2445	0.0249	0.2694	1166.3123	0.170933	-403.154264	-403.145136	-403.144192	-403.188155	35.163	
N	-0.1175241271	 1.4532754436	-0.0685140136	-0.538237
C	 0.0370551449	 0.0907604803	-0.0152152139	 0.353042
O	 1.1541475699	-0.3986411381	-0.0075536874	-0.374803
C	-1.2207848157	-0.74275852	 0.0006465188	 0.245976
C	-2.4216715271	-0.1949998993	 0.7684857003	-0.309975
C	-2.4422676311	-0.191860602	-0.7283546577	-0.305969
C	-1.0803438444	-2.2447968427	-0.000626297	-0.044946
C	-0.0322541671	-3.0188987701	-0.7618117934	-0.277017
C	-0.0248260399	-3.0205257504	 0.7489361503	-0.277125
H	 0.7248663026	 1.9955462719	 0.0318590199	 0.261062
H	-0.9939173681	 1.9166670931	 0.0897081159	 0.255238
H	-3.0300887143	-0.9256479581	 1.2901263232	 0.125843
H	-2.3147183491	 0.7412297804	 1.3053257048	 0.10973
H	-2.3424413812	 0.7469440715	-1.2607928078	 0.117157
H	-3.0683763672	-0.9186295706	-1.2342146789	 0.124814
H	-2.0618141639	-2.7144784463	 0.0037874046	 0.068686
H	-0.3531443965	-3.9142403165	-1.2839307211	 0.096968
H	 0.7566883784	-2.458800239	-1.2446221271	 0.136728
H	 0.7686941701	-2.4613640501	 1.225170484	 0.136197
H	-0.3407419233	-3.9170845374	 1.2720479762	 0.096632
53.6174	101.1911	203.4217	213.1846	238.8876	289.2162	319.0501	350.9311	473.7622	478.7262	502.9579	548.827	671.5185	753.1795	769.6021	792.695	825.434	852.5472	886.3284	930.2404	935.1439	979.6077	993.0219	1049.6512	1066.0572	1073.7651	1077.6715	1092.7082	1110.5717	1147.8178	1194.5159	1201.6083	1223.3432	1254.2482	1281.4582	1400.906	1423.0409	1453.2172	1480.4172	1498.4099	1506.948	1618.499	1766.2561	3115.471	3133.5748	3137.7966	3138.5003	3143.4842	3209.9574	3225.8939	3241.0383	3250.8302	3608.8956	3741.068
NC(=O)C1(CC1)C1CC1	NC(=O)C1(CC1)C1CC1	
InChI=1S/C7H11NO/c8-6(9)7(3-4-7)5-1-2-5/h5H,1-4H2,(H2,8,9)	InChI=1S/C7H11NO/c8-6(9)7(3-4-7)5-1-2-5/h5H,1-4H2,(H2,8,9)
