17
gdb 126841	3.08437	1.29904	0.9931	3.1085	71.48	-0.2221	0.0161	0.2382	1198.8719	0.136832	-451.323741	-451.314716	-451.313772	-451.358082	32.501	
C	-0.0223481681	 1.5527667377	-0.0075118889	-0.385101
C	-0.0377218085	 0.0257370528	 0.0745403149	-0.143482
N	-1.3769570602	-0.5285134269	-0.0284911273	-0.009125
N	-2.0605283055	-0.9380417503	 1.0846353645	-0.175603
N	-3.2317129595	-1.3515252462	 0.697059101	-0.236169
C	-3.3360978294	-1.2182709543	-0.6536603206	 0.12546
N	-4.4318103443	-1.5514379895	-1.4834663957	-0.614428
C	-2.1514451993	-0.6903045221	-1.1166271688	 0.384642
O	-1.7399050338	-0.3697260379	-2.3545213881	-0.436521
H	 1.0030417704	 1.9207750268	 0.092674041	 0.123926
H	-0.4165991194	 1.8957597762	-0.9680532901	 0.138108
H	-0.62660115	 1.9864570187	 0.7937875973	 0.140862
H	 0.572748628	-0.411506589	-0.7216276106	 0.13117
H	 0.3510327824	-0.3222035519	 1.0339820218	 0.144128
H	-5.2645116444	-1.0335146935	-1.2181243283	 0.249534
H	-4.665601711	-2.5369585845	-1.4048563509	 0.249732
H	-2.4757163274	-0.597390266	-2.9419789813	 0.312867
40.2544	99.1227	178.8858	201.0819	237.3415	250.2457	295.1578	338.7021	417.7097	490.5905	531.3209	603.3571	704.47	726.3902	749.0221	775.0931	813.5938	876.131	974.5033	1037.2403	1077.49	1110.4474	1207.0522	1222.4228	1247.9171	1298.8156	1320.505	1365.0522	1390.1814	1399.778	1412.0913	1475.7828	1492.0712	1505.6991	1596.4285	1641.8722	1686.8319	3046.5037	3062.3239	3112.8988	3122.5466	3136.1356	3491.8378	3554.3412	3745.143
CCN1N=NC(N)=C1O	CCn1nnc(N)c1O	
InChI=1S/C4H8N4O/c1-2-8-4(9)3(5)6-7-8/h9H,2,5H2,1H3	InChI=1S/C4H8N4O/c1-2-8-4(9)3(5)6-7-8/h9H,2,5H2,1H3
