22
gdb 86031	3.23531	0.93335	0.86698	4.0619	86.48	-0.2953	0.0333	0.3286	1448.4323	0.193237	-367.234037	-367.224227	-367.223283	-367.268766	36.884	
C	 0.1456385293	 1.5913123898	 0.163139801	-0.408897
C	 0.073299879	 0.0763323233	 0.0515089908	 0.05703
C	 1.0645898637	-0.6463489109	-0.9048102928	-0.289027
C	 1.2652294867	-1.7554311764	 0.1746281125	 0.340137
C	 0.4029918656	-2.9922739988	-0.0834907278	-0.453891
C	 2.7353093289	-2.1470623764	 0.4207394879	-0.407395
C	 2.9137198472	-2.9869241888	 1.60516877	 0.269826
N	 3.031360294	-3.6459164368	 2.5475316486	-0.31785
C	 0.6333207256	-0.7842511982	 1.2194878995	-0.270041
H	 1.1662276894	 1.9209689753	 0.3896168024	 0.110039
H	-0.160845965	 2.0746960625	-0.7712785659	 0.116245
H	-0.5081930256	 1.9626944586	 0.960027118	 0.118479
H	-0.954134089	-0.2243045583	-0.1777780588	 0.076583
H	 0.6909097326	-0.9692766402	-1.8805169708	 0.098914
H	 1.9738633341	-0.0549903554	-1.0603853846	 0.092448
H	 0.7554090603	-3.5404653003	-0.9650429155	 0.114061
H	 0.4258888165	-3.6749435986	 0.7721152546	 0.140918
H	-0.6399753991	-2.7134036804	-0.2616351788	 0.119781
H	 3.1346934256	-2.683924262	-0.4489878663	 0.146154
H	 3.3474234383	-1.246871405	 0.5458593153	 0.14216
H	 1.3970605727	-0.242132992	 1.787298438	 0.097942
H	-0.0798968706	-1.2149928511	 1.9265521327	 0.106384
58.4546	85.9902	137.5395	220.8885	245.8746	276.513	296.9973	316.785	352.0608	399.4708	415.4539	423.1062	482.2522	648.4481	745.1348	830.9733	868.826	882.981	900.5903	924.6001	945.9127	955.7907	967.9582	987.6103	1060.4489	1098.5103	1130.8465	1163.2741	1182.5298	1220.5483	1244.2228	1246.307	1289.8498	1302.6368	1316.0073	1330.091	1378.8274	1410.3719	1418.4512	1461.4767	1474.8273	1493.4196	1494.3205	1495.5836	1500.2459	1503.7841	2357.3616	3022.4294	3027.189	3032.4459	3038.5133	3044.9315	3049.8763	3074.0548	3089.2167	3092.4847	3094.6394	3096.7723	3105.7198	3108.7341
CC1CC(C)(CC#N)C1	C[C@H]1C[C@@](C)(CC#N)C1	
InChI=1S/C8H13N/c1-7-5-8(2,6-7)3-4-9/h7H,3,5-6H2,1-2H3	InChI=1S/C8H13N/c1-7-5-8(2,6-7)3-4-9/h7H,3,5-6H2,1-2H3/t7-,8+
