21
gdb 38326	3.7028	1.42232	1.18443	0.0083	87.06	-0.233	0.0334	0.2664	1097.9127	0.185188	-349.912721	-349.905525	-349.904581	-349.944498	30.017	
C	-0.1258213072	 1.5367761426	 0.0457283581	-0.229865
C	 1.4065492108	 1.2743899786	 0.1326758828	-0.093095
C	 1.0644800132	 0.1312162402	 1.1330304392	-0.229866
C	 0.0465675892	-0.0085423653	-0.0369647562	-0.093095
C	 1.2364889724	 0.234320164	-1.0256651044	 0.414717
C	 0.926981265	 0.7522481902	-2.4612730643	-0.357957
C	 1.8135252926	-0.0690535787	-3.3576436945	-0.068634
C	 2.55367084	-0.9430556472	-2.6815480268	-0.068634
C	 2.30982398	-0.8806832994	-1.1980972252	-0.357958
H	-0.5992071124	 1.9184316377	 0.9544678166	 0.085206
H	-0.502282189	 2.0527798407	-0.8386046953	 0.094455
H	 2.2011956604	 2.0191955373	 0.2255668539	 0.063034
H	 1.7990099937	-0.6646841069	 1.2635499898	 0.094454
H	 0.6492926871	 0.4441456451	 2.094933164	 0.085206
H	-0.7424884602	-0.7577180324	-0.1416223827	 0.063035
H	-0.1324326397	 0.6280495813	-2.7236224436	 0.105878
H	 1.1369178269	 1.8254300185	-2.5652975534	 0.105878
H	 1.8252346923	 0.0609207884	-4.4346312297	 0.087743
H	 3.2625756967	-1.6363638253	-3.1216730462	 0.087743
H	 3.2335510594	-0.6503926585	-0.6500953205	 0.105878
H	 1.9642237789	-1.8477985207	-0.8084023616	 0.105877
55.1076	215.6543	271.7235	359.4455	386.1713	427.7125	531.1012	595.5801	683.4958	760.2098	769.0445	793.4366	801.0082	857.7385	901.7543	902.4242	953.7012	961.5291	983.1654	994.5542	1011.7269	1012.8849	1013.1871	1027.1714	1075.5498	1100.0113	1113.6201	1131.9932	1163.0979	1169.5019	1181.9614	1182.4372	1194.2594	1216.5604	1250.6498	1254.1835	1273.123	1298.1146	1346.5771	1373.3796	1479.2043	1483.8065	1506.3154	1544.8873	1702.4839	3003.902	3006.0894	3027.6363	3028.3408	3058.0629	3059.8683	3074.7135	3085.6226	3127.3861	3129.3619	3175.1395	3200.949
C1C2CC1C21CC=CC1	C1[C@H]2C[C@@H]1[C@]12CC=CC1	
InChI=1S/C9H12/c1-2-4-9(3-1)7-5-8(9)6-7/h1-2,7-8H,3-6H2	InChI=1S/C9H12/c1-2-4-9(3-1)7-5-8(9)6-7/h1-2,7-8H,3-6H2/t7-,8+
