17
gdb 76985	2.99099	1.44233	1.22729	3.9872	69.15	-0.2486	-0.0376	0.2111	1055.3892	0.133476	-458.93425	-458.925647	-458.924703	-458.967359	31.918	
C	-0.2800341908	 1.4269827527	-0.0955983472	-0.512151
C	 0.1363959035	-0.0057947703	-0.0642426107	 0.38721
O	-0.757730228	-0.9602449505	 0.5383508483	-0.27112
C	 0.5806572784	-0.9038839189	 1.0200747183	-0.060865
C	 1.4401010861	-1.7682880137	 0.0579315572	-0.207427
C	 1.0065219446	-3.2025853448	-0.0169519035	 0.166454
O	 0.0864519052	-3.5967968078	-0.6973734483	-0.259697
C	 0.9776247406	-0.785436159	-1.1014130259	 0.077128
O	 0.3560340291	-1.3008882742	-2.2304854448	-0.42976
H	 0.578169776	 2.076480648	-0.2950697662	 0.127445
H	-1.0164406006	 1.5891766661	-0.8899900514	 0.146484
H	-0.7318404431	 1.7195795664	 0.8558109982	 0.135902
H	 0.7369892095	-0.7276133124	 2.0780246395	 0.113198
H	 2.5083118598	-1.6992836021	 0.2819510706	 0.093554
H	 1.5683745901	-3.9123870719	 0.6289041448	 0.093259
H	 1.8282351571	-0.180718799	-1.4345929606	 0.09605
H	-0.1991297874	-2.0371214487	-1.9298283487	 0.304336
106.2929	124.2392	182.7133	196.8683	231.0719	251.7828	296.2637	415.2734	480.1744	534.2415	589.0613	639.3348	715.7254	773.893	813.4726	851.3334	873.8179	916.936	981.5375	1009.8466	1041.264	1070.2268	1097.0109	1155.087	1159.6308	1212.2277	1244.3473	1256.9284	1315.0905	1344.8876	1403.6317	1425.2491	1456.6603	1470.2271	1482.6719	1493.5748	1797.0661	2890.2502	3038.36	3054.0502	3079.3409	3103.4093	3122.8298	3187.9973	3703.2326
CC12OC1C(C=O)C2O	C[C@]12O[C@H]1[C@@H](C=O)[C@H]2O	
InChI=1S/C6H8O3/c1-6-4(8)3(2-7)5(6)9-6/h2-5,8H,1H3	InChI=1S/C6H8O3/c1-6-4(8)3(2-7)5(6)9-6/h2-5,8H,1H3/t3-,4+,5-,6+/m0/s1
