16
gdb 63453	1.87842	1.80571	1.10042	6.134	75.5	-0.2735	-0.0082	0.2653	1111.0902	0.123243	-396.937545	-396.928278	-396.927334	-396.971174	33.915	
C	-0.0138485702	 1.4707937866	-0.095480337	-0.461902
C	 0.0569428835	-0.0439101649	-0.0709383014	 0.249604
N	-1.0522583908	-0.7874845193	-0.5947162963	-0.533409
C	 1.3728304255	-0.7308566212	-0.2012295904	-0.3223
C	 0.7045731916	-0.7175361623	 1.1857044329	-0.004353
C	 1.2838650761	 0.1276096684	 2.1988080955	 0.257118
N	 1.748945088	 0.8268875352	 2.9937386783	-0.339034
C	 0.1254487653	-1.9411378247	 1.680207908	 0.272866
N	-0.3287726788	-2.914808798	 2.1058703239	-0.334926
H	 0.8572628358	 1.9408129061	 0.3662530582	 0.150299
H	-0.0789022178	 1.812841528	-1.1339704041	 0.128365
H	-0.9061719802	 1.8215720356	 0.4335588349	 0.136629
H	-1.9343479542	-0.4441374637	-0.2278780168	 0.245453
H	-1.0852145342	-0.7117942092	-1.6064466538	 0.24416
H	 1.3907886692	-1.696142379	-0.6918502882	 0.158759
H	 2.2715235312	-0.1327463575	-0.2932318938	 0.152672
113.0107	140.3386	158.6934	161.1676	220.1573	233.9811	326.8826	366.0544	389.9902	419.6937	493.3842	527.1612	587.8833	603.8508	608.0671	744.7402	792.294	864.2176	935.3034	953.3701	1000.0029	1064.5667	1097.3794	1115.706	1217.0505	1268.4652	1314.0024	1365.2949	1421.2457	1470.2485	1490.8562	1494.5729	1658.6744	2355.4719	2363.8868	3037.2459	3102.2278	3129.8867	3153.8024	3253.2344	3501.4081	3581.9166
CC1(N)CC1(C#N)C#N	C[C@@]1(N)CC1(C#N)C#N	
InChI=1S/C6H7N3/c1-5(9)2-6(5,3-7)4-8/h2,9H2,1H3	InChI=1S/C6H7N3/c1-5(9)2-6(5,3-7)4-8/h2,9H2,1H3/t5-/m1/s1
