20
gdb 112181	2.44016	1.24063	1.02479	1.77	76.89	-0.2643	0.0216	0.286	1275.7582	0.168628	-440.294137	-440.284108	-440.283164	-440.328984	36.641	
C	-0.1272776124	 1.6320426909	-0.0778489622	-0.386027
C	-0.0576219594	 0.1613542852	 0.3482497537	-0.206767
C	-1.3211770712	-0.5959308819	 0.0031436034	 0.134865
O	-1.5156689646	-0.7142800595	-1.4600086574	-0.278254
C	-1.6417556481	-2.0767917192	-1.3786922667	 0.400339
N	-1.9048231177	-2.947209505	-2.2430720355	-0.562973
C	-1.4068926671	-2.1442841145	 0.1251195661	 0.213266
C	-0.1819457732	-2.9243297273	 0.5784773084	-0.447169
O	-2.5620301738	-2.515660276	 0.854763735	-0.470781
H	 0.8000927612	 2.1557524898	 0.170456474	 0.116975
H	-0.2864807242	 1.7137732984	-1.1567745509	 0.138244
H	-0.9512569008	 2.150554017	 0.4239451756	 0.119744
H	 0.8013911735	-0.3237788199	-0.127807998	 0.106852
H	 0.0949396714	 0.0876955942	 1.4326310413	 0.111029
H	-2.2071801697	-0.1266016104	 0.4408963905	 0.102996
H	-2.0571590597	-2.5356146939	-3.1655362174	 0.228251
H	 0.7226865752	-2.6177645879	 0.0468274612	 0.126149
H	-0.0281290514	-2.7914385123	 1.6531450985	 0.128186
H	-0.3383332557	-3.988996803	 0.3785667766	 0.1317
H	-2.8538883621	-3.368928075	 0.5123973736	 0.293375
78.9445	96.6395	149.1687	162.3294	213.703	226.3514	244.0432	292.3362	320.4411	333.5477	408.6851	469.2377	585.8589	669.7749	709.6485	740.5152	795.2352	867.3627	875.689	895.5128	966.3187	976.8669	1031.1903	1050.9283	1083.2303	1105.3903	1161.0241	1188.893	1214.9453	1248.5463	1295.4886	1315.1652	1360.358	1371.3291	1407.76	1408.4535	1413.8001	1471.6491	1488.0733	1491.8311	1498.6185	1508.4052	1823.2776	3031.1757	3039.6948	3043.1617	3065.4451	3081.9724	3109.5259	3114.869	3120.4803	3126.1107	3473.0089	3796.9476
CCC1OC(=N)C1(C)O	CC[C@H]1O[C]([NH])[C@]1(C)O	
InChI=1S/C6H11NO2/c1-3-4-6(2,8)5(7)9-4/h4,7-8H,3H2,1-2H3	InChI=1S/C6H11NO2/c1-3-4-6(2,8)5(7)9-4/h4,7-8H,3H2,1-2H3/t4-,6-/m1/s1
