12
gdb 14593	5.69753	0.90364	0.78368	1.9588	60.27	-0.3011	-0.0401	0.2609	1309.3023	0.082018	-414.681215	-414.6732	-414.672256	-414.714584	26.299	
O	-0.1912337624	 0.2124829402	 0.0955633959	-0.24019
C	 0.2442565987	 1.2546396049	 0.4601221336	 0.181635
O	 0.8496509333	 2.1240694936	-0.4099974832	-0.159203
C	 1.3218477342	 3.2994048875	 0.0902081028	 0.150209
N	 1.8792589028	 4.1053065958	-0.6945651404	-0.220533
C	 2.393121828	 5.3666587999	-0.193125133	-0.243115
C	 2.218772798	 5.6200724394	 1.2476599544	 0.234285
N	 2.0521732234	 5.7600313112	 2.3827208474	-0.304662
H	 0.2157266356	 1.6346127581	 1.4962556254	 0.11271
H	 1.1679593061	 3.4404486961	 1.1658876952	 0.13677
H	 3.4618321032	 5.4234884031	-0.4308597089	 0.176045
H	 1.9157395091	 6.1806805602	-0.7511276192	 0.176048
94.1954	96.6628	110.9474	195.7568	203.2433	301.6935	373.2768	374.677	475.6253	607.898	750.3109	908.3716	956.9766	1015.4845	1022.9184	1035.8172	1139.9659	1207.9769	1268.2775	1352.3402	1399.8714	1447.8502	1462.4322	1770.7597	1901.3531	2353.5743	2990.3137	3044.7642	3065.6736	3072.8157
O=COC=NCC#N	O=COC=NCC#N	
InChI=1S/C4H4N2O2/c5-1-2-6-3-8-4-7/h3-4H,2H2	InChI=1S/C4H4N2O2/c5-1-2-6-3-8-4-7/h3-4H,2H2
