23
gdb 96589	2.21331	1.42856	0.99502	0.9978	81.82	-0.2373	0.0825	0.3198	1279.7292	0.207036	-425.410662	-425.401513	-425.400569	-425.444536	35.198	
C	 0.1961614001	 1.6752733012	-0.0001022398	-0.410736
C	 0.024240322	 0.1486153064	 0.0258486777	 0.032867
C	 0.6115029308	-0.4527026283	-1.2713701032	-0.210433
C	 0.9380569618	-1.9477332912	-1.2938020155	-0.076457
O	-0.1524173933	-2.8418814176	-1.2027258153	-0.261248
C	-0.872096843	-2.9497048124	 0.0174129349	-0.063914
C	-0.1002362401	-2.7716666373	 1.3351972998	-0.102386
O	-0.1642765753	-1.4795841449	 1.906510306	-0.247538
C	 0.6075366478	-0.438495292	 1.3329606001	-0.087258
H	 1.2553180501	 1.9528187181	 0.0680665518	 0.114004
H	-0.193883954	 2.0999213508	-0.9308675827	 0.115037
H	-0.3293033396	 2.1507838678	 0.8342409595	 0.114912
H	-1.0500025027	-0.0632365557	 0.0631293972	 0.089957
H	-0.0598775337	-0.221874182	-2.1072174195	 0.104417
H	 1.5594726799	 0.0613801865	-1.4899952148	 0.092247
H	 1.399470812	-2.1826992333	-2.2590205373	 0.105568
H	 1.6958830058	-2.1732339113	-0.5296837891	 0.084651
H	-1.7232561569	-2.2525437219	 0.036873494	 0.100887
H	-1.2867428527	-3.9642584525	-0.0014782108	 0.104015
H	-0.5758732351	-3.4189263053	 2.0796597101	 0.110889
H	 0.9397426071	-3.1167942476	 1.2291437201	 0.100668
H	 1.6535500036	-0.7570073634	 1.1946972735	 0.087016
H	 0.6136302055	 0.3420282061	 2.1008357933	 0.102834
62.9585	113.5345	199.2361	241.4481	250.3927	291.9877	314.4391	360.2889	369.3989	420.7135	490.7119	522.5646	548.5892	774.2423	795.5982	837.1866	875.2907	917.2666	966.4511	984.7064	999.1489	1024.6416	1044.7188	1074.9075	1109.0866	1146.8486	1155.404	1166.8342	1184.994	1241.6833	1260.4896	1309.9911	1314.7525	1336.4589	1344.3654	1364.9398	1385.9432	1393.5204	1404.558	1416.7051	1423.0104	1429.1835	1473.6177	1479.3006	1490.2432	1498.362	1501.5059	1502.192	1520.2724	2974.3976	2984.9978	2995.4043	2999.841	3009.5954	3023.3149	3042.2414	3051.5011	3059.3905	3066.038	3068.9928	3073.7592	3091.0559	3102.9887
CC1CCOCCOC1	C[C@H]1CCOCCOC1	
InChI=1S/C7H14O2/c1-7-2-3-8-4-5-9-6-7/h7H,2-6H2,1H3	InChI=1S/C7H14O2/c1-7-2-3-8-4-5-9-6-7/h7H,2-6H2,1H3/t7-/m0/s1
