16
gdb 55571	4.67387	0.76327	0.68841	1.9925	72.9	-0.2506	-0.0376	0.213	1567.7529	0.121221	-437.904127	-437.894475	-437.893531	-437.940046	34.325	
N	 0.6203974425	 0.3071452636	-0.5339645454	-0.508685
C	-0.3041912535	 0.2346865502	 0.4583393651	 0.385659
O	-0.31940857	 0.9495168075	 1.4392062568	-0.351896
C	-1.423733686	-0.7985579875	 0.2226549615	-0.410636
C	-0.9827385865	-2.1720676219	-0.2672481278	 0.382119
O	-0.1600957218	-2.3210628268	-1.1408450901	-0.296273
C	-1.6705554274	-3.3543905307	 0.4247767104	-0.478546
C	-1.3372056462	-4.659352494	-0.1164109908	 0.317789
C	-1.0664782156	-5.740551658	-0.561739444	-0.414443
H	 1.4192499381	 0.9000231455	-0.3735046243	 0.259895
H	 0.6903994609	-0.4577641503	-1.1913974151	 0.278118
H	-2.0009719862	-0.8621492182	 1.1457701293	 0.14022
H	-2.0865908795	-0.3923005475	-0.5535130974	 0.164636
H	-1.4096109502	-3.2917914997	 1.4916164012	 0.168231
H	-2.7547896154	-3.1768811015	 0.3908915303	 0.159973
H	-0.8234991932	-6.6951689707	-0.9585460794	 0.203837
29.8706	69.0792	80.4148	123.7296	240.9867	303.4447	326.374	381.3755	410.5808	465.4094	482.2509	546.066	572.8845	632.4948	653.9242	677.8005	744.5597	812.2841	843.2867	921.1494	970.7762	991.9378	1070.9297	1140.6168	1160.2955	1235.0782	1302.0177	1336.0846	1359.8746	1433.4348	1446.4115	1616.8695	1804.4094	1813.3426	2252.017	3010.6161	3036.1241	3037.4975	3131.9875	3505.611	3542.8871	3693.0412
NC(=O)CC(=O)CC#C	NC(=O)CC(=O)CC#C	
InChI=1S/C6H7NO2/c1-2-3-5(8)4-6(7)9/h1H,3-4H2,(H2,7,9)	InChI=1S/C6H7NO2/c1-2-3-5(8)4-6(7)9/h1H,3-4H2,(H2,7,9)
