18
gdb 54270	2.52077	1.49657	1.32611	4.0673	67.8	-0.2319	0.0242	0.2562	1052.5025	0.14702	-476.260575	-476.251582	-476.250638	-476.294881	33.255	
C	-0.0321350211	 1.7561068473	-0.1710091636	-0.423342
C	 0.0414358692	 0.2473715604	-0.0267672218	 0.360838
O	 0.8859603774	-0.2757644967	-1.0389808897	-0.268985
C	 1.6059915759	-1.3573661915	-0.4655817442	-0.104869
C	 1.8155269291	-0.8739896202	 0.9669705191	-0.101782
O	 0.6205566317	-0.1370864531	 1.2279176302	-0.31536
C	-1.3758589421	-0.3836784377	-0.1753899358	 0.365439
N	-1.6841862816	-1.3185236245	 0.7633177587	-0.527478
O	-2.1023038763	-0.0676078305	-1.0950729546	-0.368691
H	 0.9768128089	 2.1738760482	-0.1500695742	 0.117309
H	-0.5185814985	 2.0019180473	-1.1158404383	 0.157698
H	-0.6168740383	 2.1821773848	 0.6483968213	 0.125735
H	 1.0204598899	-2.2871424957	-0.4938739413	 0.109404
H	 2.5297340222	-1.4933459763	-1.0315280024	 0.121236
H	 1.9031621374	-1.6800132156	 1.7006322117	 0.112387
H	 2.6923797202	-0.2182991291	 1.0467147442	 0.111859
H	-1.1181153117	-1.3717921355	 1.5932194494	 0.268578
H	-2.6222179325	-1.6857665917	 0.7703096913	 0.260022
35.2802	80.8862	189.1074	219.3829	254.2337	292.064	338.276	369.5991	408.6054	468.0748	526.8607	635.1562	648.6427	658.6262	766.3692	774.2329	877.0404	902.9632	909.9078	953.2858	1057.9526	1078.2756	1095.9881	1130.3195	1152.8263	1180.0691	1222.0574	1233.4592	1256.0267	1363.4959	1371.1219	1385.1796	1399.2838	1474.4569	1486.4286	1512.2317	1521.9529	1586.1856	1808.2407	3007.0527	3021.6607	3058.0581	3092.8687	3115.0246	3134.8714	3158.124	3591.9511	3730.5127
CC1(OCCO1)C(N)=O	CC1(OCCO1)C(=O)N	
InChI=1S/C5H9NO3/c1-5(4(6)7)8-2-3-9-5/h2-3H2,1H3,(H2,6,7)	InChI=1S/C5H9NO3/c1-5(4(6)7)8-2-3-9-5/h2-3H2,1H3,(H2,6,7)
