17
gdb 29477	3.14033	1.63157	1.08814	3.4293	82.2	-0.1883	-0.0011	0.1871	1079.6311	0.138594	-380.921011	-380.913604	-380.91266	-380.952619	29.035	
C	-0.0204670214	 1.5381967016	 0.0207881001	-0.514932
C	-0.0073225822	 0.0421138525	 0.0187442252	 0.216718
C	-0.0252400304	-0.7896435391	-1.0506561138	-0.18499
C	-0.0026128214	-2.2582033807	-0.645128031	-0.412734
C	 0.0316726516	-2.1446049758	 0.8497738683	 0.268399
C	 0.0281216995	-0.8177909782	 1.1954291305	 0.266047
N	 0.0605242391	-0.7960773219	 2.5674410287	-0.39883
C	 0.0812624021	-2.1161313945	 2.9663200931	-0.023388
N	 0.0648380024	-2.9566473119	 1.9479132879	-0.34014
H	 0.8691922402	 1.9461734414	 0.5167355989	 0.125801
H	-0.0482919182	 1.9330853571	-0.9978307653	 0.131614
H	-0.8924713927	 1.9306355812	 0.5588394363	 0.125792
H	-0.0525202237	-0.4671542491	-2.0840293958	 0.091235
H	-0.8855339769	-2.7931416823	-1.0186799847	 0.130872
H	 0.8710632564	-2.7775359163	-1.0601438767	 0.130877
H	 0.0680357671	 0.0035543463	 3.177262753	 0.26323
H	 0.1082422485	-2.3902063003	 4.0103487953	 0.124429
159.5478	175.5238	217.105	235.8182	291.4214	488.3373	494.9054	515.7742	582.6971	651.5505	656.4728	719.6552	737.7561	770.6951	778.4014	932.4653	941.8152	963.275	1009.6496	1065.1136	1065.4082	1106.8194	1122.6387	1152.5795	1239.037	1249.242	1308.7411	1373.0542	1389.4419	1414.391	1437.1261	1464.9811	1480.4528	1492.0737	1519.5415	1563.6073	1647.6974	3018.9366	3029.4838	3057.0808	3064.9651	3116.1231	3211.5279	3252.3832	3670.3621
CC1=CCC2=C1NC=N2	CC1=CCc2c1[nH]cn2	
InChI=1S/C7H8N2/c1-5-2-3-6-7(5)9-4-8-6/h2,4H,3H2,1H3,(H,8,9)	InChI=1S/C7H8N2/c1-5-2-3-6-7(5)9-4-8-6/h2,4H,3H2,1H3,(H,8,9)
