21
gdb 78376	2.74263	1.44325	1.21364	1.2659	81.88	-0.2272	0.0682	0.2955	1131.8324	0.182993	-387.032746	-387.024498	-387.023554	-387.065016	33.281	
C	-0.0019024685	 1.4764231918	-0.0276645221	-0.422973
C	 0.0656284625	-0.0370521929	-0.0070765081	-0.003767
C	 1.4248400966	-0.6526010753	-0.2018051252	-0.07578
C	 0.7415927912	-0.6614825855	 1.1807880841	-0.054881
C	 0.7313450364	-2.2049416898	 1.1764464673	-0.055349
C	-0.4774379833	-2.9964283845	 0.6014755673	 0.10772
O	-1.7375233645	-2.40226301	 0.8249275717	-0.422302
C	 0.1563395909	-2.9236184907	-0.8350468472	-0.300667
C	 1.3965158707	-2.1980294733	-0.2323062367	-0.028231
H	 0.8967660219	 1.9206769285	 0.4146252876	 0.11141
H	-0.0892748289	 1.8551280753	-1.0520024023	 0.113118
H	-0.8659498871	 1.8395169158	 0.5392610894	 0.118602
H	-0.8150466583	-0.5214955282	-0.4137455161	 0.09206
H	 2.2600122803	-0.0513148873	-0.5448282915	 0.075146
H	 0.9713547398	-0.0681890704	 2.0588645859	 0.07704
H	 1.2337354642	-2.6484364014	 2.0366946508	 0.062471
H	-0.4692616046	-4.0302266492	 0.9758271705	 0.065532
H	-2.4099489515	-2.9756518292	 0.4434855697	 0.282666
H	 0.3763075233	-3.9040420442	-1.2659831381	 0.09183
H	-0.4217624223	-2.3466333334	-1.5609880108	 0.101693
H	 2.3672261612	-2.6676214161	-0.3888462462	 0.064661
134.1557	186.4061	214.4273	248.6884	268.5423	277.4676	361.0728	412.5514	469.0449	594.7974	653.8199	712.8201	764.8781	791.8692	840.5085	865.6199	880.7971	903.4142	913.3869	985.3932	1004.495	1016.1588	1041.326	1046.4903	1065.9075	1085.9574	1105.8592	1135.424	1142.8282	1186.4489	1192.7144	1207.1527	1211.7984	1239.6439	1276.6678	1291.2419	1309.2927	1322.3535	1334.7406	1414.5106	1421.4729	1433.3901	1477.3849	1495.563	1502.7812	2985.9268	3025.2981	3056.8948	3089.5636	3092.3045	3097.3855	3106.4237	3116.588	3158.6493	3168.4754	3171.526	3814.4688
CC1C2C1C1C(O)CC21	C[C@H]1[C@H]2[C@@H]1[C@H]1[C@@H](O)C[C@@H]21	
InChI=1S/C8H12O/c1-3-6-4-2-5(9)8(4)7(3)6/h3-9H,2H2,1H3	InChI=1S/C8H12O/c1-3-6-4-2-5(9)8(4)7(3)6/h3-9H,2H2,1H3/t3-,4-,5-,6+,7+,8+/m0/s1
