20
gdb 14164	3.2039	2.2138	1.80604	1.6046	73.84	-0.2341	0.0877	0.3217	841.2512	0.178131	-348.984548	-348.977143	-348.976199	-349.01552	30.026	
C	-0.1310656239	 1.5263518182	 0.0064979997	-0.466867
C	-0.0243861369	-0.0017609455	 0.0154984225	 0.351737
C	-1.3995087995	-0.5907944064	 0.3351457269	-0.470783
C	 0.8056420912	-0.6102564519	-1.189530191	-0.101717
C	 2.0978642403	-0.214238047	-0.404027295	-0.251297
C	 1.1957820671	-0.6150320435	 0.7834711963	 0.073346
O	 1.0327649809	-2.0332548248	 0.5846693718	-0.27992
C	 0.7695326562	-2.1011712976	-0.8400146542	-0.093895
H	 0.7827150575	 2.0413484821	-0.2932497829	 0.114838
H	-0.9221582944	 1.839096351	-0.6848895055	 0.116425
H	-0.4093544936	 1.8948247676	 1.0004807921	 0.116344
H	-2.0821763371	-0.4739692883	-0.514830308	 0.109523
H	-1.3434556609	-1.6480077549	 0.5964742436	 0.137129
H	-1.8488231702	-0.0644230234	 1.1846769237	 0.109643
H	 0.6276369225	-0.3244552666	-2.2267250949	 0.065055
H	 2.9864060449	-0.8307637617	-0.5574129725	 0.097873
H	 2.3560108886	 0.8402629236	-0.4572079269	 0.104135
H	 1.4212448095	-0.4189096279	 1.831656808	 0.071861
H	-0.1969561998	-2.5823117111	-1.0229185344	 0.098496
H	 1.5540064276	-2.6815049618	-1.3397787289	 0.098075
164.8365	185.5874	215.2436	312.216	346.3402	402.373	419.7972	506.8381	528.2547	641.6946	675.2931	805.0141	847.3186	869.6488	915.3857	933.9184	944.3938	961.6597	976.4772	991.7541	1014.7414	1029.5962	1078.2133	1089.0213	1129.4301	1177.3581	1196.5135	1216.1545	1218.4959	1236.4196	1260.6485	1287.0994	1308.2749	1366.4256	1401.567	1423.0988	1479.7927	1488.4223	1495.3811	1513.1137	1515.0304	1537.509	3027.3855	3028.9233	3034.0752	3069.0468	3081.9043	3082.5706	3086.3842	3113.2131	3124.5707	3126.4002	3140.0875	3169.6635
CC1(C)C2CC1OC2	CC1(C)[C@H]2C[C@@H]1OC2	
InChI=1S/C7H12O/c1-7(2)5-3-6(7)8-4-5/h5-6H,3-4H2,1-2H3	InChI=1S/C7H12O/c1-7(2)5-3-6(7)8-4-5/h5-6H,3-4H2,1-2H3/t5-,6-/m0/s1
