22
gdb 18475	3.25091	1.47293	1.28889	0.2001	82.01	-0.2455	0.0868	0.3323	1096.3791	0.200636	-313.045976	-313.03739	-313.036446	-313.078859	32.98	
C	-0.5357009181	 1.6585519634	 0.3083451142	-0.377046
C	-0.1914275382	 0.1973498918	-0.0081892089	-0.210029
C	 0.5000986607	-0.4824511212	 1.1600504107	 0.033768
C	-0.1800610884	-1.1820089503	 2.3046918333	-0.070043
C	-1.354220373	-2.0500415727	 1.8258034467	-0.264395
C	-0.3564014555	-2.9028981861	 0.968193595	 0.051046
C	-0.633689893	-3.2112891043	-0.4998251177	-0.41375
C	 0.7795651747	-1.9493322604	 1.3765191968	-0.118092
H	 0.3655998325	 2.2345185783	 0.5468202713	 0.111619
H	-1.0273390512	 2.1455504649	-0.5396527171	 0.108129
H	-1.2067526849	 1.725264128	 1.171300601	 0.118457
H	-1.1080660353	-0.3316178309	-0.2830704915	 0.101469
H	 0.4604800683	 0.1567484789	-0.8906147651	 0.094127
H	 1.3456846003	 0.1074656634	 1.5174098785	 0.077392
H	-0.0236235812	-0.8815859491	 3.3341858925	 0.078169
H	-1.8220957155	-2.6284491422	 2.6252479125	 0.098226
H	-2.1462656017	-1.5264964567	 1.2798639933	 0.093485
H	-0.1979389148	-3.8521924611	 1.4918294121	 0.073876
H	-0.8112158819	-2.3099149971	-1.0910818899	 0.118266
H	 0.2154623944	-3.7382058597	-0.9501151411	 0.111709
H	-1.5133075687	-3.8573188255	-0.6024772753	 0.109464
H	 1.7913916406	-2.2811502216	 1.5856878488	 0.074152
74.3034	144.644	182.8474	204.9532	236.2179	263.5496	326.7806	388.9447	472.5996	579.7021	670.9304	721.1862	776.8085	804.2395	835.3329	860.962	900.0722	951.2963	966.6159	988.5507	1006.8512	1023.0207	1071.7879	1075.2158	1093.6916	1123.0007	1127.5549	1142.6661	1194.9655	1223.5635	1245.8322	1274.4372	1292.3767	1307.1165	1332.5916	1364.0401	1381.3027	1407.0882	1410.7855	1457.4268	1480.0155	1494.7366	1499.2279	1499.4276	1501.2945	1509.9515	3023.2986	3028.1799	3029.6613	3035.9669	3045.4541	3072.4389	3085.9056	3093.0285	3102.5477	3103.2808	3104.0644	3123.0543	3155.8644	3175.6886
CCC1C2CC(C)C12	CC[C@H]1[C@H]2C[C@@H](C)[C@@H]12	
InChI=1S/C8H14/c1-3-6-7-4-5(2)8(6)7/h5-8H,3-4H2,1-2H3	InChI=1S/C8H14/c1-3-6-7-4-5(2)8(6)7/h5-8H,3-4H2,1-2H3/t5-,6+,7-,8+/m1/s1
