15
gdb 35656	3.67997	1.01236	0.88803	3.5767	80.47	-0.256	-0.052	0.204	1275.912	0.11316	-379.643723	-379.635456	-379.634512	-379.677195	30.245	
C	 0.1767668274	-1.132519957	 0.3197001957	-0.466473
C	 0.0357941348	 0.0443005042	 0.1232059503	 0.383868
C	-0.0978714661	 1.4832360197	-0.138876756	-0.241025
N	-0.7972494265	 2.2090585542	 0.948694514	-0.29245
C	 0.2129363963	 2.9489986043	 1.7212318391	-0.266731
C	 1.4500709201	 2.9523301358	 0.8304995314	 0.201275
C	 1.2754811779	 2.1364282384	-0.2120061468	-0.164656
C	 2.6211655552	 3.6906762016	 1.1414474569	 0.205169
N	 3.5535230962	 4.3162731949	 1.4271037012	-0.328581
H	 0.2875429185	-2.1729929096	 0.5028639166	 0.206263
H	-0.6506958237	 1.6076224071	-1.0789851683	 0.11958
H	-1.4379518399	 2.8685684465	 0.5257321464	 0.234314
H	-0.1376463078	 3.9559306194	 1.9670503249	 0.129997
H	 0.4399830315	 2.4455234353	 2.6706541883	 0.140397
H	 2.0049427162	 1.9011267651	-0.9751856338	 0.139053
60.989	98.4298	161.0156	194.1278	243.0889	363.6048	476.1613	515.9846	532.8387	566.8568	592.112	634.6686	665.6216	712.5249	816.0264	851.0295	878.6898	911.8325	975.9074	1003.749	1057.635	1093.3386	1172.3238	1220.2921	1261.5493	1281.0695	1326.6373	1361.0994	1466.121	1504.1463	1683.0167	2236.0067	2338.7941	3018.1163	3021.6207	3080.2325	3235.2307	3501.578	3557.5688
C#CC1NCC(=C1)C#N	C#C[C@H]1NCC(=C1)C#N	
InChI=1S/C7H6N2/c1-2-7-3-6(4-8)5-9-7/h1,3,7,9H,5H2	InChI=1S/C7H6N2/c1-2-7-3-6(4-8)5-9-7/h1,3,7,9H,5H2/t7-/m1/s1
