19
gdb 61775	2.37915	1.05625	0.96942	5.687	76.79	-0.2672	0.0097	0.2769	1324.7947	0.157949	-419.257449	-419.247206	-419.246262	-419.29303	36.119	
C	-0.0118894638	 2.025894343	-0.3035526705	-0.438969
C	-0.0896978258	 0.5484151147	 0.0748197696	 0.055473
N	-1.4836903956	 0.1568019822	 0.2519771867	-0.285475
C	-1.8496371148	-0.9573624603	 0.9395086309	 0.147756
O	-1.0700335011	-1.7557654516	 1.4168163163	-0.320413
C	 0.616624126	-0.4072801305	-0.942613741	-0.144767
C	 0.0167789911	-0.3821584798	-2.3603354302	-0.402195
C	 2.0504951274	-0.1106347154	-0.9788145007	 0.274319
N	 3.1772222931	 0.1469472363	-1.0080871786	-0.329513
H	 1.0280600048	 2.3262570538	-0.4499896341	 0.160721
H	-0.5583251415	 2.2354627604	-1.2295584371	 0.123583
H	-0.4375906984	 2.6443066956	 0.4916582942	 0.131841
H	 0.4122304918	 0.393121842	 1.0353787305	 0.127784
H	-2.2057241054	 0.7633714841	-0.1033010312	 0.25172
H	-2.9497375309	-1.0603876786	 1.0172922861	 0.085307
H	 0.5042500906	-1.4135296295	-0.5246086954	 0.160414
H	-1.0553938891	-0.5874497658	-2.3095431278	 0.123396
H	 0.1686559284	 0.584345556	-2.8476202668	 0.135456
H	 0.4824606832	-1.1482823366	-2.9842832107	 0.143562
58.6835	71.6481	144.9439	167.153	214.0226	215.6326	237.3282	254.5604	278.2983	355.6318	387.3913	475.4324	521.0517	562.3438	611.8371	778.7913	801.1491	875.3459	917.269	999.4192	1012.6972	1033.1302	1101.7129	1119.2779	1145.4882	1162.1985	1225.9232	1288.9069	1343.1185	1359.0805	1394.1371	1410.3131	1417.129	1427.0554	1493.4397	1494.4487	1498.4427	1507.668	1514.6999	1796.8958	2353.4224	2944.0583	3040.9232	3054.1654	3059.1401	3065.4127	3110.1627	3130.8797	3132.1968	3133.8768	3633.4893
CC(NC=O)C(C)C#N	C[C@@H](NC=O)[C@@H](C)C#N	
InChI=1S/C6H10N2O/c1-5(3-7)6(2)8-4-9/h4-6H,1-2H3,(H,8,9)	InChI=1S/C6H10N2O/c1-5(3-7)6(2)8-4-9/h4-6H,1-2H3,(H,8,9)/t5-,6+/m0/s1
