20
gdb 78884	2.51938	2.12699	1.46077	1.7112	80.18	-0.219	0.0747	0.2937	965.6555	0.171942	-365.965883	-365.958312	-365.957368	-365.997328	31.032	
C	 0.1087589487	 1.6074248838	-0.0311590034	-0.403668
C	 0.0397426213	 0.0791017994	 0.010358629	-0.053479
C	 0.8286638174	-0.6169027804	-1.0814409636	-0.080241
C	 2.2716790886	-0.8468576047	-0.6413141044	-0.116637
C	 1.2702836028	-1.967802838	-0.5946671813	-0.035121
N	 1.1946630701	-1.9389610304	 0.9172455878	-0.207933
C	 2.1739704723	-0.7984677043	 0.8903534623	-0.095414
C	 0.7430671731	-0.5381526103	 1.2122769221	 0.329569
C	 0.2684091656	-0.2965517453	 2.6190146955	-0.49584
H	 1.1487892765	 1.9497803756	-0.0190064838	 0.119943
H	-0.3637253718	 1.9962192686	-0.938891718	 0.113351
H	-0.406347999	 2.0543552474	 0.82533076	 0.11555
H	-1.0096920791	-0.2439874062	-0.0118837912	 0.076392
H	 0.6181015351	-0.4679954589	-2.1335727939	 0.08737
H	 3.145987816	-0.698639719	-1.2585286921	 0.091088
H	 1.1925268178	-2.906980751	-1.1256137304	 0.095294
H	 2.9974965179	-0.7417569185	 1.5936092981	 0.087949
H	 0.3251272648	 0.7659572366	 2.8785129693	 0.118464
H	-0.7702927296	-0.6223374537	 2.740460382	 0.122545
H	 0.8791709013	-0.8561190704	 3.3320140161	 0.130818
162.4124	199.9907	221.0051	243.6787	285.3662	337.0174	523.4651	572.5737	602.6117	704.2599	710.3353	760.8825	768.5719	794.0686	831.6817	870.3031	917.0859	934.1573	960.6586	994.292	999.7095	1017.5998	1036.6489	1042.8008	1046.7426	1073.3257	1105.9771	1114.4835	1131.4609	1198.0897	1236.2076	1247.4682	1284.6871	1311.6588	1358.666	1375.8213	1399.1023	1409.0584	1419.0413	1487.8127	1492.9035	1497.4494	1501.9969	3021.369	3032.6514	3035.1276	3096.2605	3100.4564	3105.2715	3118.6234	3169.5961	3191.54	3200.3822	3219.5569
CC1C2C3C2N2C3C12C	C[C@H]1[C@H]2[C@@H]3[C@H]2N2[C@@H]3[C@@]12C	
InChI=1S/C8H11N/c1-3-4-5-6(4)9-7(5)8(3,9)2/h3-7H,1-2H3	InChI=1S/C8H11N/c1-3-4-5-6(4)9-7(5)8(3,9)2/h3-7H,1-2H3/t3-,4-,5+,6-,7-,8+,9?/m0/s1
