20
gdb 59218	2.51823	1.41451	1.01396	3.8066	78.56	-0.2437	-0.0114	0.2322	1219.4089	0.170006	-403.136888	-403.127868	-403.126924	-403.170698	33.873	
C	 0.0102749195	 1.6302775723	 0.129970853	-0.391476
C	 0.0544657618	 0.1020786432	 0.0038782281	 0.007987
C	 0.8151009772	-0.5456101765	 1.1699398937	-0.396681
C	-1.3620011549	-0.4759399477	-0.0882070558	-0.120461
C	-2.2855830327	-0.1687859923	-1.2734286826	-0.059404
C	-1.8327386642	-0.8127593008	-2.514263009	-0.247798
N	-2.5672671293	-1.6570020124	-1.5205727844	-0.172233
C	-1.5834509101	-1.9492458762	-0.4866431202	 0.383567
O	-1.1962378243	-3.0079920662	-0.1006202423	-0.301187
H	 1.0215065087	 2.0479091485	 0.1670363442	 0.117665
H	-0.5109643053	 2.0893197767	-0.71670078	 0.116081
H	-0.5081193652	 1.9319744048	 1.0478492315	 0.115102
H	 0.5861291749	-0.1460140827	-0.92454375	 0.07607
H	 0.8141951639	-1.635494218	 1.0851133161	 0.146331
H	 1.8530287096	-0.1992429225	 1.1970353188	 0.111717
H	 0.3519771564	-0.2837611323	 2.1288700778	 0.112844
H	-1.8911870441	-0.3002198564	 0.8579216531	 0.111466
H	-3.1157882835	 0.5264590177	-1.2515630102	 0.11356
H	-2.4099724271	-0.6526009067	-3.4188985234	 0.14089
H	-0.7779386812	-1.0122089923	-2.6836171183	 0.135962
67.5447	122.7895	155.5413	218.1503	233.4163	257.0061	299.038	334.6624	411.5349	497.9714	529.6656	655.787	680.3049	751.7914	819.4907	851.649	885.0878	931.3159	937.7591	969.5732	1000.4564	1020.3537	1047.5548	1063.2481	1116.9722	1128.8187	1149.0639	1167.625	1202.3815	1211.1853	1240.1966	1296.2465	1344.9641	1358.8983	1386.669	1402.3506	1423.9929	1489.918	1491.5253	1504.0357	1507.4811	1512.8078	1908.0464	3010.239	3025.7748	3030.2043	3036.2866	3092.0771	3097.3551	3102.1792	3119.9849	3122.4616	3191.8342	3210.8958
CC(C)C1C2CN2C1=O	CC(C)[C@H]1[C@H]2CN2C1=O	
InChI=1S/C7H11NO/c1-4(2)6-5-3-8(5)7(6)9/h4-6H,3H2,1-2H3	InChI=1S/C7H11NO/c1-4(2)6-5-3-8(5)7(6)9/h4-6H,3H2,1-2H3/t5-,6+,8?/m1/s1
