17
gdb 36710	5.19649	0.74987	0.70923	3.2155	73.1	-0.2631	0.01	0.2731	1539.7654	0.13729	-418.040559	-418.03212	-418.031176	-418.075053	29.75	
N	 0.0027795094	-1.1314560246	-0.1839306158	-0.301582
C	-0.0109451378	 0.0199019408	-0.0871833949	 0.257161
C	-0.0028122292	 1.4751231595	 0.0365738229	-0.343201
C	 1.423893234	 2.0580932828	 0.0275443077	-0.202636
C	 1.427856417	 3.5762621297	 0.1577834747	 0.083274
C	 2.8290334105	 4.2325379663	 0.0131466371	-0.205148
N	 2.7441287276	 5.0609844173	-1.2015727778	-0.254058
C	 1.5560182364	 4.940446112	-1.6183385738	 0.121938
O	 0.6745713643	 4.1573358921	-0.945191092	-0.234966
H	-0.5803415652	 1.9068812406	-0.7868181753	 0.171318
H	-0.5199979347	 1.7486544941	 0.964013273	 0.151785
H	 2.0038373287	 1.6339390383	 0.8546732356	 0.129428
H	 1.931998133	 1.7740295694	-0.9003346982	 0.133968
H	 0.9186164192	 3.8799728981	 1.0787451698	 0.097623
H	 3.0886956775	 4.8596646666	 0.8715628593	 0.12513
H	 3.6236410791	 3.4864162823	-0.0990992611	 0.122448
H	 1.1433871202	 5.4212636546	-2.4981670511	 0.147519
47.3367	83.1913	108.7093	133.9071	230.9367	352.4614	393.5833	429.0209	516.4599	564.9756	729.9305	771.4907	848.5817	879.3088	935.6424	942.5476	964.0852	978.1159	1012.9723	1056.2353	1069.0384	1115.186	1120.3415	1188.8177	1234.2882	1275.8511	1307.9926	1317.0689	1322.861	1347.8523	1375.1649	1406.0753	1468.7074	1483.9893	1501.654	1713.9101	2364.1038	3039.7399	3043.1978	3046.8843	3051.401	3080.7608	3085.7013	3103.4958	3219.6958
N#CCCC1CN=CO1	N#CCC[C@H]1CN=CO1	
InChI=1S/C6H8N2O/c7-3-1-2-6-4-8-5-9-6/h5-6H,1-2,4H2	InChI=1S/C6H8N2O/c7-3-1-2-6-4-8-5-9-6/h5-6H,1-2,4H2/t6-/m0/s1
