17
gdb 77261	2.74074	1.15753	1.0112	1.8925	74.26	-0.2639	0.0052	0.2691	1212.307	0.13528	-418.036609	-418.027247	-418.026303	-418.071912	32.789	
C	-0.1814189519	 1.4258791082	-0.2740171509	-0.41614
C	 0.0674316367	-0.0544260938	-0.1191460037	-0.019374
C	 0.9313032173	-0.8240231766	-1.0799822782	 0.036941
N	 1.6241104645	-0.1491725684	-2.1312845814	-0.289238
C	 1.0382128625	 0.0607532378	-3.3448699335	 0.150879
O	-0.1007543327	-0.2480690608	-3.6164765391	-0.315833
C	 1.4206231188	-0.6012827624	 0.3458095957	-0.24893
C	 2.529503391	 0.2850538154	 0.5495797351	 0.293487
N	 3.4371171005	 0.9933727239	 0.6724342079	-0.346943
H	 0.7051839198	 1.9499529866	-0.6366765466	 0.138134
H	-0.9906170523	 1.591823266	-0.9911036948	 0.146675
H	-0.4691720491	 1.8718287765	 0.6825608978	 0.130785
H	-0.7722244308	-0.6203227276	 0.2735658534	 0.112822
H	 0.6199855865	-1.8355344817	-1.3241683706	 0.129662
H	 2.593138728	 0.1026608649	-2.0019805406	 0.267831
H	 1.7300050463	 0.5486432445	-4.058782396	 0.086848
H	 1.4178480348	-1.4630798126	 1.0038722257	 0.142395
28.0665	97.6845	131.4802	162.2232	183.0098	210.1688	290.2728	343.6543	379.7836	478.0777	552.7072	598.0949	652.564	742.6301	779.0959	825.72	883.9432	961.7979	1001.5644	1034.5659	1045.5965	1092.5531	1111.9587	1145.5907	1152.9382	1210.8257	1279.3663	1354.456	1377.4938	1423.7886	1424.8397	1429.1446	1490.5488	1496.9821	1514.068	1807.4856	2346.0967	2949.5448	3049.674	3116.1454	3132.0319	3147.7699	3160.2222	3177.2463	3607.41
CC1C(NC=O)C1C#N	C[C@H]1[C@@H](NC=O)[C@H]1C#N	
InChI=1S/C6H8N2O/c1-4-5(2-7)6(4)8-3-9/h3-6H,1H3,(H,8,9)	InChI=1S/C6H8N2O/c1-4-5(2-7)6(4)8-3-9/h3-6H,1H3,(H,8,9)/t4-,5+,6-/m1/s1
