22
gdb 77090	2.54343	1.15873	0.97412	4.3773	84.69	-0.2374	0.0277	0.265	1333.4614	0.192473	-404.37485	-404.364695	-404.363751	-404.410338	37.266	
C	-0.4109172876	 1.363304911	-0.0839200107	-0.405333
C	 0.0235612849	-0.0956110241	-0.0396403889	 0.001902
N	 1.2358201906	-0.4204293493	-0.8081895692	-0.043265
C	 1.9719209867	-0.9941717017	 0.3153630508	-0.212656
C	 0.7541095655	-0.6669268739	 1.2417062826	 0.297588
C	 1.0676009781	 0.3411142945	 2.3444175345	-0.450881
C	 0.0639723058	-1.9057874154	 1.8085730245	-0.446027
C	 1.4593655012	-0.5786247369	-2.1316998793	 0.125333
O	 2.4584833661	-1.0794313462	-2.6081903176	-0.333628
H	 0.4161307375	 2.0395362186	 0.1460969154	 0.125326
H	-0.7865346388	 1.6195626993	-1.0797374832	 0.124944
H	-1.2204110606	 1.5437500929	 0.6312658079	 0.121883
H	-0.8262511464	-0.7306891415	-0.3250583855	 0.081223
H	 2.1958477399	-2.0587264828	 0.187840924	 0.118997
H	 2.9021414778	-0.4656656448	 0.5498741742	 0.114498
H	 1.5903897703	 1.2224750993	 1.9626003471	 0.121794
H	 0.1561104816	 0.6799784297	 2.8487526816	 0.117531
H	 1.7112501295	-0.120176082	 3.1015645445	 0.120384
H	 0.6859063504	-2.3874937428	 2.5711809101	 0.11923
H	-0.8922538392	-1.6429244055	 2.2753775365	 0.116572
H	-0.1362734764	-2.6436920121	 1.0248426265	 0.12111
H	 0.6222755931	-0.1848436462	-2.7455168856	 0.063476
34.5313	75.0333	168.9105	216.7188	227.9965	247.13	270.1652	292.4957	315.9412	336.9513	383.1839	404.1739	503.762	539.9538	679.2311	748.653	850.6161	880.3482	928.4014	959.0972	980.1165	1009.8076	1031.6675	1043.4775	1063.6389	1120.4141	1159.2266	1177.7701	1216.339	1224.5085	1264.7474	1299.2713	1334.874	1383.8272	1397.8849	1404.895	1408.773	1426.5577	1441.4491	1481.0227	1484.934	1490.4974	1498.2654	1506.0036	1513.5098	1521.0053	1788.6183	2913.7177	3002.9713	3023.8808	3031.2169	3035.6417	3039.8605	3078.3277	3090.5615	3095.7144	3099.1121	3103.9565	3109.3836	3125.1167
CC1N(CC1(C)C)C=O	C[C@H]1N(CC1(C)C)C=O	
InChI=1S/C7H13NO/c1-6-7(2,3)4-8(6)5-9/h5-6H,4H2,1-3H3	InChI=1S/C7H13NO/c1-6-7(2,3)4-8(6)5-9/h5-6H,4H2,1-3H3/t6-/m1/s1
