15
gdb 57736	2.2972	1.20751	0.8794	11.1767	86.37	-0.1848	-0.0488	0.136	1289.1062	0.111768	-412.993012	-412.983391	-412.982446	-413.027764	33.984	
C	-2.15204349	 0.6400658237	-0.3161430191	-0.473087
C	-1.0703476534	-0.3734308665	-0.1834945826	 0.437383
N	-0.8614356181	-0.9642838905	 1.0149448899	-0.533327
N	-0.2893597407	-0.6589825828	-1.2028114144	-0.294313
H	 0.3568245519	-1.4369325401	-1.0936233742	 0.267161
C	-0.1967891776	 0.0734487228	-2.4192483799	-0.121051
C	-0.0182010567	-0.6785547126	-3.5847955685	 0.181919
N	 0.1388510182	-1.3550112352	-4.5207051664	-0.378034
C	-0.1227799629	 1.4653154698	-2.3406022413	 0.232376
N	-0.0995350087	 2.6218719957	-2.1850177075	-0.406532
H	-1.7483620123	 1.6592830044	-0.2978975411	 0.209444
H	-2.6303532325	 0.518579468	-1.292722982	 0.185746
H	-2.8859446345	 0.5273839809	 0.4852111481	 0.128516
H	-1.579244165	-0.9083272139	 1.7165120913	 0.287287
H	-0.1788184177	-1.6979764836	 1.1222924076	 0.276512
64.2889	102.9588	137.9453	139.2421	225.0339	255.6728	294.9955	302.153	421.261	446.2836	503.7143	517.6178	525.0034	565.3556	577.5984	608.181	736.2195	807.8704	892.7684	1037.493	1057.0742	1090.5172	1243.2586	1296.0768	1389.8252	1414.0602	1449.9221	1472.9328	1523.8814	1639.965	1694.6341	2260.1978	2292.4768	3036.0665	3098.869	3135.7293	3478.6225	3599.409	3725.179
CC(N)=[NH+][C-](C#N)C#N	CC(=[NH2])[NH]=C(C#N)C#N	
InChI=1S/C5H6N4/c1-4(8)9-5(2-6)3-7/h9H,8H2,1H3	InChI=1S/C5H6N4/c1-4(8)9-5(2-6)3-7/h9H,8H2,1H3
