15
gdb 12347	3.2123	2.23625	1.37196	3.5883	63.14	-0.2288	-0.0152	0.2136	853.009	0.120797	-399.848134	-399.841229	-399.840285	-399.87909	26.731	
O	 0.0562694005	 1.3891282659	 0.1565717634	-0.44062
C	-0.0043979477	-0.0027150398	 0.0190120115	 0.03816
C	-1.4472743382	-0.5183560736	 0.0549592945	-0.281035
C	-1.4757058299	-1.9834368035	-0.2986326676	-0.123028
C	-0.5641972082	-2.4910038251	-1.1295729443	 0.019906
N	 0.4531264419	-1.6967210534	-1.6866464623	-0.338297
C	 0.7121464771	-0.4209281697	-1.2697741596	 0.392653
O	 1.4836840357	 0.3315522843	-1.8378756138	-0.386343
H	 0.7387127899	 1.6760176988	-0.4714367916	 0.293537
H	 0.5511580405	-0.5051164377	 0.834229774	 0.095353
H	-1.8688226541	-0.3351874412	 1.047348028	 0.122055
H	-2.0527113404	 0.0676831416	-0.6522082808	 0.124215
H	-2.2468453832	-2.6277952384	 0.1045323106	 0.103567
H	-0.5447822569	-3.5294006764	-1.4369434258	 0.119822
H	 0.9703859729	-2.0220689319	-2.4897059662	 0.260056
121.1427	168.5025	311.2267	352.67	427.1198	470.8958	491.6355	512.4372	541.8156	591.448	690.226	736.7684	770.1124	871.017	942.3541	957.7243	1024.0516	1050.7884	1096.1952	1155.7286	1170.7077	1199.7504	1291.8623	1299.0964	1313.2023	1384.4333	1425.0217	1454.9409	1464.5131	1483.0732	1720.0764	1789.6986	2920.302	3007.8077	3085.1976	3199.8105	3219.927	3621.972	3688.3349
OC1CC=CNC1=O	O[C@H]1CC=CNC1=O	
InChI=1S/C5H7NO2/c7-4-2-1-3-6-5(4)8/h1,3-4,7H,2H2,(H,6,8)	InChI=1S/C5H7NO2/c7-4-2-1-3-6-5(4)8/h1,3-4,7H,2H2,(H,6,8)/t4-/m0/s1
