19
gdb 82066	2.47625	1.54793	1.16595	3.6461	75.17	-0.2325	-0.0076	0.2249	1108.3722	0.157558	-423.010448	-423.001352	-423.000408	-423.044679	33.703	
C	 0.052107343	 1.3578812447	 0.4062711993	-0.483852
C	 0.0448704492	 0.0101729043	-0.2937235272	 0.397934
O	 0.9688429533	-0.3556643747	-0.9832398965	-0.303106
C	-1.1909994678	-0.8498597266	-0.0810001831	-0.176852
C	-1.1446868398	-2.3082674464	-0.5284193518	-0.048738
C	-0.1387429337	-3.0662636437	 0.2822786475	-0.272133
C	-1.4839681641	-2.7860093121	 0.8923505286	-0.058123
C	-1.566264572	-1.3521309127	 1.385653017	 0.084776
O	-0.6984999426	-1.0510464568	 2.4587430514	-0.419658
H	 0.2004985571	 1.1868010672	 1.4782468404	 0.139607
H	 0.8691535036	 1.9719943636	 0.0253399184	 0.141224
H	-0.90233116	 1.881248076	 0.2845836713	 0.123109
H	-2.0462613027	-0.3030088475	-0.4954251017	 0.088401
H	-1.5322145683	-2.6799803243	-1.4675139999	 0.092028
H	 0.0102846948	-4.0978752684	-0.0191887259	 0.112064
H	 0.7550928035	-2.5778405226	 0.6534715347	 0.134228
H	-2.1498011226	-3.5792578122	 1.2087288073	 0.086512
H	-2.5956380597	-1.065937153	 1.6283139986	 0.075788
H	-1.0307497113	-0.2736137547	 2.9168026915	 0.286793
50.9046	111.0445	127.7996	167.941	213.8477	265.4995	301.674	392.2311	443.7635	527.0163	576.2159	620.3501	714.4131	748.6732	791.8562	822.7682	921.8919	937.4286	954.2353	985.1027	1004.0178	1023.311	1039.6056	1058.4056	1063.8031	1082.77	1112.4473	1160.3126	1195.1152	1209.6818	1233.4045	1266.5998	1322.6445	1342.2475	1368.2662	1376.6708	1434.4246	1469.2669	1477.769	1497.2364	1806.4291	3028.4585	3036.9771	3046.9972	3102.9137	3136.7463	3149.7042	3185.1645	3201.9537	3220.9684	3830.7915
CC(=O)C1C2CC2C1O	CC(=O)[C@H]1[C@H]2C[C@H]2[C@H]1O	
InChI=1S/C7H10O2/c1-3(8)6-4-2-5(4)7(6)9/h4-7,9H,2H2,1H3	InChI=1S/C7H10O2/c1-3(8)6-4-2-5(4)7(6)9/h4-7,9H,2H2,1H3/t4-,5+,6-,7+/m0/s1
