16
gdb 27949	3.50655	1.19866	0.89825	3.716	81.77	-0.2521	-0.0688	0.1832	1245.8226	0.125002	-400.831511	-400.823462	-400.822518	-400.865118	29.083	
C	-0.3150442675	 1.5512474079	 0.2134107863	-0.470449
C	-0.1123207505	 0.0638338528	 0.0888339924	 0.318406
N	-0.0990098524	-0.438503121	-1.1510672565	-0.359103
C	 0.0787169298	-1.7558815399	-1.3014871253	 0.209409
C	 0.0822370373	-2.2438507279	-2.7101847392	 0.105865
O	 0.2296532164	-3.3998962135	-3.0277600273	-0.259898
C	 0.252146625	-2.6442222044	-0.2393828004	-0.165897
C	 0.2384455352	-2.1239091208	 1.0468182714	-0.073257
C	 0.0541499526	-0.7545719203	 1.2128053402	-0.158758
H	 0.474329935	 2.0884620552	-0.3215962379	 0.145048
H	-1.2658859642	 1.844638845	-0.2423894483	 0.145051
H	-0.3128701768	 1.8748389138	 1.2568314391	 0.12067
H	-0.0656629478	-1.432774912	-3.4530409964	 0.089164
H	 0.3903140991	-3.6982333952	-0.4471587974	 0.130728
H	 0.3686374781	-2.7694429516	 1.9091860146	 0.116253
H	 0.0384107607	-0.316385358	 2.2048977248	 0.106768
36.4828	112.1337	195.8969	197.3287	250.8545	343.9676	437.8735	472.0306	546.412	561.0728	657.0179	759.3621	783.2089	817.5012	920.169	945.4246	1002.2425	1015.5662	1028.3311	1050.504	1062.3485	1109.188	1178.6925	1244.4339	1281.6393	1319.7628	1381.8982	1410.0617	1452.5174	1476.129	1485.0869	1495.6248	1610.7132	1626.5128	1806.5039	2928.117	3043.5528	3104.831	3128.2359	3179.0269	3195.1588	3216.1551
CC1=NC(C=O)=CC=C1	Cc1nc(C=O)ccc1	
InChI=1S/C7H7NO/c1-6-3-2-4-7(5-9)8-6/h2-5H,1H3	InChI=1S/C7H7NO/c1-6-3-2-4-7(5-9)8-6/h2-5H,1H3
