21
gdb 89630	4.65609	0.98029	0.9258	1.5997	83.3	-0.2437	0.0826	0.3263	1346.8283	0.182394	-387.042175	-387.033555	-387.032611	-387.075493	33.267	
C	-0.1942867748	 1.5707987019	 0.2340902098	-0.404109
C	 0.0284550261	 0.065891234	 0.1453674066	 0.040108
C	 0.9017036104	-0.5117151607	-1.024342364	-0.334743
C	 1.7987884928	-1.2156899317	 0.0063931588	 0.393041
C	 2.4069393899	-0.2043908446	 0.9313471099	-0.34368
C	 0.9731638236	-0.61229139	 1.1515635272	-0.116417
C	 2.3261260979	-2.5955046503	-0.1455619601	-0.06371
C	 3.7575688181	-2.8846324445	-0.3321820832	-0.176176
O	 3.121407757	-3.1064577917	 0.9282442572	-0.234218
H	 0.7518519041	 2.121808678	 0.2349263139	 0.114468
H	-0.7860387034	 1.9302403358	-0.6152384273	 0.112343
H	-0.732949343	 1.8343973924	 1.1510432204	 0.115111
H	-0.9411598246	-0.4421522263	 0.1518455554	 0.07446
H	 0.3442878152	-1.2027144057	-1.6624605999	 0.100572
H	 1.406967661	 0.2196385634	-1.6649914361	 0.093028
H	 3.1036173712	-0.6210061199	 1.6511513829	 0.128446
H	 2.6631938457	 0.7897514132	 0.5723912106	 0.099835
H	 0.6673032334	-1.0834283041	 2.0787214451	 0.0889
H	 1.6147791225	-3.3207640517	-0.5474956975	 0.0862
H	 4.0667242081	-3.784274655	-0.8626232642	 0.113382
H	 4.4644902188	-2.0569642423	-0.3556309054	 0.113157
72.5366	120.7262	166.787	220.9261	246.9519	286.8833	344.7899	399.3006	494.1469	521.2718	649.0057	683.1393	805.6861	840.8117	851.9148	868.7465	886.5812	919.548	965.5552	970.2739	988.0192	1023.516	1046.2099	1079.3236	1090.1602	1099.1134	1112.5801	1131.0151	1151.9745	1173.1271	1190.5408	1209.8684	1246.751	1264.7924	1293.4307	1297.5488	1370.4297	1388.247	1412.5873	1447.2036	1480.1994	1494.5694	1497.4018	1504.7807	1522.8475	3027.7078	3037.871	3047.3296	3078.4657	3085.1335	3091.8536	3094.6035	3101.2022	3108.0882	3174.1072	3175.7638	3207.9411
CC1CC2(CC12)C1CO1	C[C@H]1C[C@]2(C[C@@H]12)[C@H]1CO1	
InChI=1S/C8H12O/c1-5-2-8(3-6(5)8)7-4-9-7/h5-7H,2-4H2,1H3	InChI=1S/C8H12O/c1-5-2-8(3-6(5)8)7-4-9-7/h5-7H,2-4H2,1H3/t5-,6-,7+,8+/m0/s1
