18
gdb 56554	2.8419	1.14729	0.84644	5.9256	74.41	-0.2515	0.0125	0.2641	1313.9083	0.146237	-439.088098	-439.078472	-439.077527	-439.122787	35.474	
C	 0.0576213475	 1.4476025582	-0.255798503	-0.395139
C	 0.0020146678	-0.0635906873	-0.0201440473	-0.139358
C	 0.7904380425	-0.4967945288	 1.2505512652	-0.19643
N	 0.8156769672	-1.9797072027	 1.3418819527	-0.524306
H	-0.8451510872	-2.1182047174	 0.8666621146	 0.315508
H	 1.4744847795	-2.3463527919	 0.6591055625	 0.250802
H	 1.1553500492	-2.2664224631	 2.2550908641	 0.254724
C	 2.1412046542	 0.0670144417	 1.2959093357	 0.321866
C	 3.2728174346	 0.4721079222	 1.3309916902	-0.43195
C	-1.4725408534	-0.5438365963	-0.004202038	 0.410208
O	-2.3621407314	 0.1236408445	-0.4644977781	-0.330523
O	-1.7006934658	-1.7525514659	 0.518275364	-0.378833
H	 1.0842890786	 1.7791762206	-0.421727425	 0.1229
H	-0.554325693	 1.7049970278	-1.1201762917	 0.146961
H	-0.3475167385	 1.990763842	 0.6041959398	 0.123858
H	 0.4765967735	-0.5721909073	-0.8730325456	 0.10837
H	 0.2325714252	-0.1419776621	 2.1267946149	 0.134242
H	 4.2665058894	 0.8462985057	 1.3678996549	 0.207099
56.3073	84.5566	144.8062	201.3853	231.9181	287.5261	312.3857	324.8938	360.9464	411.1806	458.614	526.7302	582.8762	624.7838	648.6085	661.2009	720.601	836.412	854.0413	915.0868	989.1176	1018.3684	1030.7682	1089.2496	1092.58	1127.5508	1209.1852	1247.2936	1280.7642	1332.0842	1353.607	1387.1938	1412.1231	1492.4672	1496.6247	1504.5893	1651.3241	1849.2002	2230.2817	2999.4448	3033.7055	3054.0793	3125.4306	3157.9123	3219.4842	3490.3113	3500.1801	3570.6824
CC(C([NH3+])C#C)C([O-])=O	C[C@@H]([C@@H](N)C#C)C(=O)O	
InChI=1S/C6H9NO2/c1-3-5(7)4(2)6(8)9/h1,4-5H,7H2,2H3,(H,8,9)	InChI=1S/C6H9NO2/c1-3-5(7)4(2)6(8)9/h1,4-5H,7H2,2H3,(H,8,9)/t4-,5-/m0/s1
