19
gdb 114269	4.17751	1.22802	1.16295	2.2909	78.01	-0.2225	0.0651	0.2876	1131.4841	0.157804	-422.876774	-422.868878	-422.867934	-422.909104	30.956	
C	 0.2119911717	 1.5289694916	-0.0053222713	-0.2364
O	-0.3326607893	 0.2538760285	-0.2647408921	-0.221819
C	 0.441956843	-0.5095603702	-1.130920589	 0.121755
C	 1.7745080887	-1.2086637601	-0.556356718	-0.37615
C	 0.9639569878	-2.504113984	-0.5970563202	 0.371817
C	 0.4978476173	-3.953878017	-0.8858582754	-0.311769
C	-0.7449953567	-2.9996856921	-0.610376572	 0.028872
O	-0.0178107724	-2.4579917044	 0.5305920902	-0.323912
C	-0.1121913727	-1.9268941777	-1.5309429882	-0.075694
H	 1.1845312059	 1.4664877958	 0.5050010379	 0.108865
H	 0.3456497896	 2.1099014963	-0.932180126	 0.101316
H	-0.4918900423	 2.0538957964	 0.6443349533	 0.13041
H	 0.672053509	 0.0672764794	-2.0408175696	 0.067674
H	 2.5900108547	-1.1635168146	-1.2822392351	 0.10855
H	 2.1255692879	-0.9044832549	 0.4321061801	 0.122479
H	 0.6507231369	-4.3368688577	-1.8984272924	 0.100613
H	 0.6713521401	-4.7024578401	-0.1107576608	 0.112511
H	-1.7872636051	-3.2936159668	-0.4589650478	 0.095122
H	-0.0706876942	-2.1344633883	-2.6015648737	 0.075761
96.513	142.9146	180.7681	243.3088	320.5875	363.7147	424.6235	454.6978	566.0045	664.706	707.3966	724.1414	778.9111	818.8574	846.2145	869.1107	919.0443	956.1463	998.0276	1009.2227	1024.3695	1060.4027	1089.6679	1111.3418	1139.6724	1166.6042	1180.5798	1187.735	1189.3942	1203.1062	1237.2834	1242.8868	1259.2937	1290.0384	1342.8383	1392.5562	1455.0411	1481.1541	1482.2133	1488.7932	1507.9612	2964.1322	2973.6847	3022.6228	3056.6137	3066.7277	3074.8352	3096.3035	3119.4493	3132.6763	3143.165
COC1CC23CC(O2)C13	CO[C@H]1C[C@@]23C[C@@H](O2)[C@@H]13	
InChI=1S/C7H10O2/c1-8-4-2-7-3-5(9-7)6(4)7/h4-6H,2-3H2,1H3	InChI=1S/C7H10O2/c1-8-4-2-7-3-5(9-7)6(4)7/h4-6H,2-3H2,1H3/t4-,5+,6+,7-/m0/s1
