18
gdb 75000	3.136	1.49938	1.20686	1.3832	73.36	-0.2453	0.0231	0.2684	1065.7194	0.148945	-439.086539	-439.078694	-439.07775	-439.119155	29.426	
C	 0.0039004521	 1.4901194149	 0.056546263	-0.453077
C	-0.0643794345	-0.0081836571	 0.0461056296	 0.397857
N	-1.1549745778	-0.6300435458	 0.2415433035	-0.306101
C	-1.193198731	-2.067457318	 0.1013252887	-0.048996
C	-1.508046533	-2.526533364	-1.3457797473	-0.072603
O	-0.1419322199	-2.9516207265	-1.5472037822	-0.29286
C	 0.1574206579	-2.7788786478	-0.1478226004	 0.102449
C	 1.3659688913	-1.9161397543	 0.1219773744	-0.10962
O	 1.16330014	-0.5396320474	-0.208739394	-0.254274
H	 0.6737978376	 1.835559883	 0.8505578128	 0.136417
H	 0.4151070301	 1.8517897614	-0.8913904224	 0.142119
H	-0.9929575408	 1.9020346788	 0.2074596142	 0.143847
H	-1.8319230075	-2.4914781133	 0.8785310569	 0.086153
H	-2.210054756	-3.3669925783	-1.4178651838	 0.099658
H	-1.8045045689	-1.7298282229	-2.0344616498	 0.114018
H	 0.2745611774	-3.746681162	 0.3599481983	 0.074511
H	 1.6221087833	-1.9881999566	 1.1884119141	 0.110119
H	 2.2251742798	-2.2452501241	-0.4682523157	 0.130381
92.7354	127.2813	162.3164	196.2457	311.0128	342.4446	424.7318	499.7932	573.572	632.8682	724.4421	798.3008	830.8026	864.125	887.3609	919.3535	979.4398	1007.8728	1039.3847	1056.0382	1071.639	1077.4609	1137.354	1155.262	1200.707	1227.5073	1258.3045	1261.5085	1298.8378	1353.395	1356.779	1372.7116	1402.9623	1414.243	1473.8933	1476.108	1486.1227	1516.5127	1738.3662	2999.518	3016.7023	3020.8272	3047.5535	3082.1625	3091.1139	3099.7715	3104.8785	3166.9031
CC1=NC2COC2CO1	CC1=N[C@H]2CO[C@H]2CO1	
InChI=1S/C6H9NO2/c1-4-7-5-2-9-6(5)3-8-4/h5-6H,2-3H2,1H3	InChI=1S/C6H9NO2/c1-4-7-5-2-9-6(5)3-8-4/h5-6H,2-3H2,1H3/t5-,6-/m0/s1
