16
gdb 54354	2.15226	1.78182	1.1414	5.5293	70.57	-0.2609	0.009	0.2699	1061.6636	0.124214	-437.85594	-437.847746	-437.846802	-437.888685	31.056	
O	 0.4671140588	 0.6584127608	-0.5114718922	-0.324318
C	-0.1832425624	 1.2881477252	 0.2730432192	 0.431171
O	 0.1910615052	 1.4344044258	 1.5562718526	-0.391121
C	-1.5108319534	 1.9977566495	-0.0909041425	-0.092366
C	-2.6108334448	 1.7195694915	 0.9964313397	-0.200808
N	-2.0946235666	 2.8947082697	 1.742441122	-0.344782
H	-2.7751803434	 3.4589487027	 2.2389705565	 0.238319
H	-0.4766468671	 1.9833037834	 2.0279159435	 0.314433
C	-1.5408037622	 3.459268788	 0.4860626614	-0.200808
C	-1.8771219039	 1.8165318618	-1.4764005433	 0.207997
C	-2.228457349	 1.6972605378	-2.618658288	-0.351025
H	-3.6116308774	 1.8587984474	 0.5727582025	 0.124939
H	-2.5612684108	 0.7705439319	 1.5362078021	 0.133923
H	-0.5865566993	 3.9809510081	 0.5943478962	 0.133934
H	-2.2458270823	 4.0793492453	-0.0786638114	 0.12494
H	-2.5145279914	 1.5749687111	-3.6341418483	 0.195573
91.2887	141.7798	184.2046	237.8929	253.1909	333.5958	409.4976	486.7695	508.368	534.1945	648.587	651.2435	667.9324	723.1817	749.7339	851.9656	872.531	944.278	968.3446	987.2302	1012.2006	1036.6366	1121.2991	1139.7159	1177.4008	1216.2631	1253.7159	1276.7545	1358.4736	1359.8827	1446.4838	1505.5279	1532.2455	1869.3974	2248.2142	3036.1215	3040.6703	3104.8775	3105.0629	3399.5857	3501.8247	3535.3589
[O-]C(=O)C1(C[NH2+]C1)C#C	O=C(O)C1(CNC1)C#C	
InChI=1S/C6H7NO2/c1-2-6(5(8)9)3-7-4-6/h1,7H,3-4H2,(H,8,9)	InChI=1S/C6H7NO2/c1-2-6(5(8)9)3-7-4-6/h1,7H,3-4H2,(H,8,9)
