19
gdb 62835	2.59703	1.81849	1.46958	0.8714	76.	-0.2422	0.0227	0.2649	974.729	0.156442	-422.852165	-422.843991	-422.843047	-422.884106	32.824	
C	-0.1321453917	 1.3921508074	 0.5466641294	-0.464486
C	-0.0426037486	-0.0219088719	-0.0237953754	 0.319191
C	-1.433278234	-0.5490387779	-0.3718680943	-0.46947
C	 1.1121197622	-0.2911410593	-1.0021688494	-0.047261
O	 2.114695609	-0.0438432883	 0.1084413389	-0.36552
C	 1.0403207913	-0.9519546883	 0.6636655387	 0.263544
C	 0.6312157349	-2.2226093158	 1.4294732717	-0.190438
O	 0.2595785669	-2.7784994041	 0.1049082709	-0.302316
C	 1.1968952386	-1.810633289	-0.5216970469	 0.069367
H	 0.8490297337	 1.7739329714	 0.8272463961	 0.139419
H	-0.5734012365	 2.0717864616	-0.1911229176	 0.112974
H	-0.7841284734	 1.4059033939	 1.4272108388	 0.112239
H	-1.9466876786	 0.1846463851	-1.0037481436	 0.111472
H	-1.4199640384	-1.5070210996	-0.8880216365	 0.143105
H	-2.0364051986	-0.6647691285	 0.5358844689	 0.115718
H	 1.3746390386	 0.1820927608	-1.9535907982	 0.092734
H	 1.4486564973	-2.7947688304	 1.8805835865	 0.12864
H	-0.2303887041	-2.1609084376	 2.0998355596	 0.126708
H	 2.1582948017	-2.2850422895	-0.7194448677	 0.104382
164.9849	178.4077	208.0374	254.807	290.5369	351.1921	386.7301	399.5472	447.032	527.0212	583.5248	644.2809	691.7666	778.1345	816.5998	830.3734	867.0553	885.277	902.6451	957.0901	969.4336	1002.3673	1013.3667	1078.9613	1118.8493	1131.8801	1157.0246	1179.2074	1191.3584	1236.3442	1273.5233	1293.7328	1304.2603	1353.6033	1399.2722	1422.9551	1483.0601	1485.7811	1493.7329	1507.9313	1513.8942	3031.5485	3037.1183	3042.2365	3068.8955	3083.7159	3089.7585	3112.1912	3113.6271	3152.006	3163.5109
CC1(C)C2OC11COC21	CC1(C)[C@H]2O[C@]31CO[C@@H]23	
InChI=1S/C7H10O2/c1-6(2)4-5-7(6,9-4)3-8-5/h4-5H,3H2,1-2H3	InChI=1S/C7H10O2/c1-6(2)4-5-7(6,9-4)3-8-5/h4-5H,3H2,1-2H3/t4-,5-,7+/m0/s1
