18
gdb 31578	3.31186	1.15345	0.86635	1.6936	77.1	-0.1676	0.0575	0.2251	1332.7117	0.147777	-435.305618	-435.295785	-435.294841	-435.340415	34.667	
C	-0.0012353174	 1.3626193061	 0.0076663975	-0.233249
O	 0.0342757742	-0.0632950319	-0.0402910839	-0.273231
C	 0.6466848662	-0.5728360637	-1.117857161	 0.481237
N	 1.2040987572	 0.077539956	-2.1075643427	-0.41709
C	 1.6910590999	-0.915334484	-2.9444067881	 0.178038
N	 2.4052755222	-0.5710456644	-4.1059866721	-0.602386
C	 1.4273722338	-2.1638087316	-2.4494638734	 0.261467
C	 1.7566396449	-3.5306707061	-2.9359397421	-0.513524
N	 0.7267524633	-1.9161727776	-1.2561538554	-0.404023
H	 1.0115520718	 1.7762860564	 0.0150375109	 0.138639
H	-0.536959062	 1.7671759468	-0.8563657094	 0.136267
H	-0.5226977338	 1.6158895265	 0.9314632167	 0.12744
H	 2.3752643209	 0.4334024848	-4.2317051285	 0.24273
H	 2.0356503681	-1.0135000493	-4.9386274939	 0.237985
H	 2.2314406135	-4.14308723	-2.1581093297	 0.121465
H	 0.8817844125	-4.0887272644	-3.2983949458	 0.118882
H	 2.4666052662	-3.4565469905	-3.7643360969	 0.139434
H	 0.3652718584	-2.596043253	-0.6099903322	 0.259919
83.8983	105.6285	142.4007	147.3648	196.0555	201.6405	244.6049	261.5717	310.4113	389.5637	440.6453	538.1165	645.0163	656.0353	671.4441	726.9559	812.4166	819.0145	987.929	1019.1178	1064.8854	1083.4705	1115.2388	1183.1264	1215.2754	1231.2742	1238.5766	1331.5819	1413.3075	1435.5612	1466.6475	1476.6781	1480.4464	1496.7412	1502.1404	1522.7563	1616.6991	1644.6893	1682.4925	2998.529	3039.7371	3040.1059	3109.0645	3109.3754	3148.9247	3526.5938	3615.9529	3676.9574
COC1=NC(N)=C(C)N1	COc1nc(N)c(C)[nH]1	
InChI=1S/C5H9N3O/c1-3-4(6)8-5(7-3)9-2/h6H2,1-2H3,(H,7,8)	InChI=1S/C5H9N3O/c1-3-4(6)8-5(7-3)9-2/h6H2,1-2H3,(H,7,8)
