16
gdb 51446	2.8327	1.23841	1.0037	2.9438	70.74	-0.2414	-0.039	0.2024	1173.9586	0.122973	-437.876057	-437.867811	-437.866867	-437.910214	29.543	
O	 0.0463844737	-0.0764760531	-0.1928676828	-0.225305
C	 0.0726631397	 1.1151808881	-0.3444693992	 0.150309
C	 1.2941113961	 1.9858024717	-0.0650818654	-0.260641
N	 1.5610718796	 2.9759663944	-1.082223171	-0.106298
C	 1.8189531478	 2.8250654854	-2.5185579479	-0.002871
C	 0.5663183067	 2.995240608	-3.3231712608	-0.291691
C	 1.2727281259	 4.2216636718	-2.7427461075	-0.216995
C	 1.0163763358	 4.2554515102	-1.2354805527	 0.415079
O	 0.5384360733	 5.0131139866	-0.4377474096	-0.359137
H	-0.8191453933	 1.6817322189	-0.6991521207	 0.087804
H	 1.1030711815	 2.5405141912	 0.8634711941	 0.161287
H	 2.1599516645	 1.3366625016	 0.0963711589	 0.136481
H	 2.7478739621	 2.4007750847	-2.8753241852	 0.124467
H	 0.6647041621	 2.8858666831	-4.3999364323	 0.132622
H	-0.3915741452	 2.6776005429	-2.9230160081	 0.128949
H	 1.6643892695	 5.0194627545	-3.3559254597	 0.12594
50.3844	54.4701	152.9876	199.5071	236.8103	320.4443	422.2585	478.0045	534.4315	685.4183	712.4231	749.6744	797.2068	836.2192	853.2203	925.4556	953.6869	976.8037	1031.8864	1046.9327	1051.6349	1081.1911	1100.7567	1153.782	1186.3023	1246.3917	1283.6159	1310.7476	1335.0775	1372.7994	1414.1835	1444.9168	1480.439	1840.3138	1884.3141	2869.4594	3033.4504	3096.9355	3120.1164	3205.5825	3211.5216	3237.1435
O=CCN1C2CC2C1=O	O=CCN1[C@H]2C[C@H]2C1=O	
InChI=1S/C6H7NO2/c8-2-1-7-5-3-4(5)6(7)9/h2,4-5H,1,3H2	InChI=1S/C6H7NO2/c8-2-1-7-5-3-4(5)6(7)9/h2,4-5H,1,3H2/t4-,5+/m1/s1
