17
gdb 35600	2.49468	1.71793	1.2765	1.7954	79.31	-0.2419	-0.0012	0.2407	1021.6605	0.135844	-384.614686	-384.606934	-384.60599	-384.646995	30.007	
C	 0.0058957855	-1.2216008846	 0.0242119221	-0.474993
C	 0.0031809684	-0.0198642778	 0.0177159877	 0.376189
C	-0.028082036	 1.4349555581	 0.0216760053	-0.268109
C	-0.5345855685	 2.0014105984	 1.4122523624	-0.258077
C	 0.7535842043	 2.150782884	 2.2196358542	-0.198348
C	 1.7703509879	 2.2635121242	 1.3761493043	 0.202619
C	 3.1548126906	 1.7832857001	 1.0203303868	-0.157411
O	 2.6161598536	 1.3100991882	-0.254883214	-0.296372
C	 1.3900697633	 2.078943745	-0.0540454604	 0.11827
H	 0.0209684815	-2.2831579013	 0.0176985141	 0.195761
H	-0.6677994146	 1.7818188314	-0.7973501111	 0.100665
H	-1.06190337	 2.9530033193	 1.2656035584	 0.111817
H	-1.2391587638	 1.3132493339	 1.8863029911	 0.124152
H	 0.7891218967	 2.0544967238	 3.2978438171	 0.104916
H	 3.9155335168	 2.5579347673	 0.8595609213	 0.110406
H	 3.5721541159	 0.9743403919	 1.6286579727	 0.125977
H	 1.3920948083	 2.9570937178	-0.7134970818	 0.082539
82.7172	129.2111	213.1538	255.5411	321.1184	362.9187	445.5065	545.7568	624.7274	629.8112	673.2559	720.8825	750.5033	830.0615	838.0667	869.6691	901.8577	924.0894	965.9288	979.5189	1006.3887	1036.7537	1073.0888	1118.1561	1138.212	1183.7014	1192.1138	1237.0319	1286.1177	1305.5993	1317.5617	1340.2533	1365.5823	1482.9832	1507.342	1749.5438	2237.8356	3007.8752	3018.2446	3022.16	3049.6506	3078.3477	3096.2846	3208.4126	3505.1478
C#CC1CC=C2COC12	C#C[C@H]1C[CH][C]2CO[C@@H]12	
InChI=1S/C8H8O/c1-2-6-3-4-7-5-9-8(6)7/h1,4,6,8H,3,5H2	InChI=1S/C8H8O/c1-2-6-3-4-7-5-9-8(6)7/h1,4,6,8H,3,5H2/t6-,8-/m0/s1
