22
gdb 96023	2.53557	1.15076	0.90069	4.2369	85.43	-0.3086	0.0385	0.3471	1360.7945	0.195678	-367.25373	-367.244371	-367.243427	-367.288365	34.877	
C	-0.5567182522	 1.4465469099	-0.0715689591	-0.423715
C	-0.0214827392	 0.0160252125	-0.016389908	 0.034671
C	 1.0492798302	-0.3102482633	-1.0848079443	-0.212646
C	 1.8706176802	-1.5022643927	-0.5186890146	-0.210067
C	 1.3140550058	-1.7586401414	 0.9064149597	-0.223941
C	 0.6240885584	-0.4430450197	 1.3157594569	-0.002679
C	 1.6242723404	 0.5955732586	 1.8821423248	-0.35542
C	 2.2551134188	 0.1442556227	 3.1203468422	 0.267646
N	 2.7434835637	-0.2261935434	 4.1003586287	-0.314455
H	 0.2461312499	 2.1864694714	 0.0184716583	 0.115414
H	-1.0589334786	 1.633051089	-1.0263751222	 0.119039
H	-1.2836874391	 1.6374906533	 0.7254983307	 0.11609
H	-0.8693510261	-0.6636731463	-0.1765122601	 0.078113
H	 0.5908735522	-0.5364544629	-2.0515363355	 0.101002
H	 1.6932332619	 0.5616251383	-1.249240103	 0.095779
H	 1.7833916107	-2.3955013722	-1.1423841744	 0.103956
H	 2.9361186773	-1.2562460057	-0.4842377066	 0.104552
H	 0.5618557051	-2.5539360619	 0.8784006153	 0.10294
H	 2.0826399531	-2.0750562698	 1.6166969519	 0.119297
H	-0.1392618002	-0.6142679502	 2.0815664814	 0.084543
H	 2.4146536306	 0.8137636003	 1.1546178604	 0.149075
H	 1.1166772774	 1.5437178737	 2.0874272975	 0.150804
60.8951	88.5753	136.4402	142.6641	218.5505	258.4919	315.7463	349.8071	400.4324	485.7212	535.3186	587.4066	651.237	778.9423	818.0968	839.1489	872.2574	896.1369	941.725	947.4611	972.8495	1002.7147	1021.2984	1050.231	1073.3747	1118.486	1164.6988	1182.2891	1217.2956	1223.8687	1252.6086	1285.834	1299.9932	1317.3284	1333.8349	1339.6819	1350.4944	1380.1699	1390.3854	1413.5412	1467.0689	1491.4115	1495.9819	1499.893	1506.7222	1518.1416	2358.8913	3007.2072	3028.1572	3035.7437	3042.6716	3047.5516	3057.2329	3061.1582	3077.6289	3087.9195	3093.2703	3095.7704	3097.6808	3106.5339
CC1CCCC1CC#N	C[C@H]1CCC[C@H]1CC#N	
InChI=1S/C8H13N/c1-7-3-2-4-8(7)5-6-9/h7-8H,2-5H2,1H3	InChI=1S/C8H13N/c1-7-3-2-4-8(7)5-6-9/h7-8H,2-5H2,1H3/t7-,8-/m0/s1
