19
gdb 95604	2.22546	1.77082	1.02618	4.4342	78.77	-0.2214	-0.0541	0.1673	1158.2589	0.160888	-419.2445	-419.235789	-419.234845	-419.278302	32.122	
C	-0.0473049391	 1.3601515719	-0.4636369045	-0.331778
N	-0.0026753631	 0.0388868242	 0.1408128391	-0.097895
C	-1.261634164	-0.6871047012	 0.2367252957	-0.148991
C	-1.1880404437	-1.8057097595	 1.2708354909	-0.233316
C	-0.0550436676	-2.7685267287	 0.9137813207	-0.308662
C	 1.2566274358	-2.0383738875	 0.7117797183	 0.343061
O	 2.3276626433	-2.5604114472	 0.9135314989	-0.304216
C	 1.2183331193	-0.5987219243	 0.1827948858	 0.264336
N	 2.2977064547	-0.011745085	-0.1777792523	-0.529051
H	 0.8470740669	 1.9132296378	-0.1768631016	 0.165814
H	-0.0723413552	 1.31309679	-1.5621680029	 0.121639
H	-0.940508003	 1.885222091	-0.1138786111	 0.11482
H	-2.0373328702	 0.032662114	 0.517339052	 0.112853
H	-1.5598080181	-1.1045071751	-0.7416965645	 0.100654
H	-1.0145410692	-1.37084733	 2.261857306	 0.119396
H	-2.1450707533	-2.3347682318	 1.308360842	 0.111446
H	 0.0946264875	-3.5597735286	 1.6525449627	 0.131219
H	-0.285035995	-3.2633470165	-0.0421216123	 0.134393
H	 3.0740523639	-0.6493305135	 0.0078162369	 0.234276
78.7868	92.0081	108.4897	174.3694	288.2732	353.2959	380.8418	419.8589	433.2331	472.3032	568.7348	578.3637	675.9513	725.45	869.8805	885.051	898.2694	929.2433	959.7418	1052.2079	1080.7658	1100.7293	1139.7059	1169.416	1195.7017	1199.9772	1247.9704	1294.3579	1321.6066	1349.7067	1375.9713	1387.3875	1436.6599	1452.6197	1467.7766	1484.883	1490.4465	1506.925	1526.3892	1676.5322	1810.1971	2942.9989	3002.0817	3007.7177	3042.5764	3065.4966	3084.8831	3091.2983	3102.8983	3152.192	3469.2313
CN1CCCC(=O)C1=N	CN1CCCC(=O)[C]1[NH]	
InChI=1S/C6H10N2O/c1-8-4-2-3-5(9)6(8)7/h7H,2-4H2,1H3	InChI=1S/C6H10N2O/c1-8-4-2-3-5(9)6(8)7/h7H,2-4H2,1H3
