14
gdb 128282	2.85409	1.55705	1.01382	4.6403	69.33	-0.2494	-0.0694	0.18	1095.0228	0.101581	-470.017732	-470.0097	-470.008756	-470.051444	28.19	
C	 0.0316306656	 1.4271464798	 0.0751390477	-0.322949
N	 0.1038040051	-0.0150669437	-0.0531290887	-0.319597
C	 0.6241484019	-0.6307574122	-1.1153157327	 0.287872
N	 1.1125610064	 0.0139064314	-2.1413599379	-0.362483
C	 1.5970189464	-0.7873032029	-3.1357225435	 0.105686
N	 1.6494411044	-2.0758005388	-3.2187753196	-0.106838
O	 1.1169031325	-2.7647471548	-2.0942009214	-0.245107
C	 0.6005140891	-2.1214140759	-1.0330375468	 0.440772
O	 0.1533006288	-2.7235931099	-0.0873979063	-0.355909
H	 1.0333801098	 1.8689806098	 0.0906778737	 0.153723
H	-0.5135692817	 1.8610294203	-0.7685461538	 0.157019
H	-0.4845490722	 1.6716902227	 1.004014163	 0.140797
H	-0.2332144213	-0.6274444517	 0.6756756598	 0.282641
H	 2.0101881252	-0.2864934041	-4.0072915533	 0.144372
37.181	109.9299	158.9222	192.9238	233.2382	358.8668	490.172	539.4585	552.0684	576.452	585.194	596.8176	771.9985	821.2236	910.314	967.3126	970.4161	1059.3692	1132.7702	1156.6298	1216.3026	1257.8752	1347.0234	1353.2564	1457.7289	1476.3283	1507.1352	1560.8241	1617.8737	1667.7889	1813.8441	3042.3399	3100.3987	3150.2846	3180.9616	3617.7571
CNC1=NC=NOC1=O	CNc1ncnoc1=O	
InChI=1S/C4H5N3O2/c1-5-3-4(8)9-7-2-6-3/h2H,1H3,(H,5,6,7)	InChI=1S/C4H5N3O2/c1-5-3-4(8)9-7-2-6-3/h2H,1H3,(H,5,6,7)
