21
gdb 68026	2.52426	1.74987	1.30993	1.3689	81.49	-0.2438	0.0782	0.322	1052.4492	0.183334	-387.057987	-387.050106	-387.049161	-387.089472	33.419	
C	-0.0381118688	 1.5208224877	 0.0439606117	-0.496537
C	 0.0403805263	 0.011190284	 0.0527904996	 0.331853
C	 0.9073698256	-0.7949786483	-0.9822430042	-0.312464
C	 0.741437734	-1.9173286662	 0.1104854901	 0.407243
O	 1.5177590034	-3.0721872918	 0.1672986173	-0.48956
C	 0.8399832066	-0.7626950823	 1.1437648896	-0.347225
C	-0.7639240212	-2.2025012873	-0.0133232898	-0.058542
C	-1.718619485	-1.7178820252	 1.0485213132	-0.321816
C	-1.2865659619	-0.7818252818	-0.0550122719	-0.066901
H	 0.9579891451	 1.97433966	 0.0797094666	 0.110223
H	-0.5380520088	 1.8845273009	-0.861348995	 0.1143
H	-0.6064638635	 1.8900720597	 0.9050670816	 0.118208
H	 0.4774924293	-0.9814019509	-1.9705287058	 0.087917
H	 1.9335214504	-0.4209507649	-1.0705117276	 0.077501
H	 2.4431357611	-2.8117749271	 0.2147189562	 0.277069
H	 1.8632575638	-0.3819767705	 1.2150468122	 0.08233
H	 0.4302128222	-0.883793866	 2.1471578358	 0.094963
H	-1.0676674885	-2.9688036422	-0.7169580546	 0.089289
H	-2.7331744458	-2.0950097738	 0.9596236922	 0.107891
H	-1.4069114341	-1.5772984594	 2.0763330482	 0.112962
H	-2.0124878704	-0.4528551547	-0.7913580753	 0.081295
219.6129	232.313	250.261	255.0727	306.5688	369.876	407.815	457.0544	543.9125	557.9738	576.4907	596.1706	663.0324	789.5693	809.4055	817.7798	828.8604	932.7788	940.94	956.681	972.9053	992.7288	1009.6252	1033.8169	1056.1118	1076.6684	1088.8962	1107.6156	1130.1831	1138.2301	1160.1749	1186.5637	1195.9991	1244.0999	1262.9986	1274.2464	1324.8978	1377.1026	1396.9538	1416.5441	1472.9469	1492.0782	1494.98	1496.5733	1537.144	3023.5558	3035.7409	3061.3746	3086.4111	3094.3378	3102.9862	3118.2777	3133.6878	3159.6792	3179.8689	3210.073	3816.2745
CC12CC(O)(C1)C1CC21	C[C@@]12C[C@@](O)(C1)[C@H]1C[C@@H]21	
InChI=1S/C8H12O/c1-7-3-8(9,4-7)6-2-5(6)7/h5-6,9H,2-4H2,1H3	InChI=1S/C8H12O/c1-7-3-8(9,4-7)6-2-5(6)7/h5-6,9H,2-4H2,1H3/t5-,6+,7-,8-/m1/s1
