16
gdb 44828	2.97607	1.26885	1.02506	3.71	74.61	-0.2462	0.0052	0.2514	1160.4183	0.123262	-400.704042	-400.695747	-400.694802	-400.73751	31.129	
O	-0.3865508053	 0.0682573941	-0.0118620095	-0.330839
C	-0.1995686689	 1.2499478607	-0.0224729161	 0.372442
N	-1.0861432599	 2.3443205027	 0.0843313444	-0.346781
C	 0.0118910051	 3.3144550379	 0.0371088472	-0.06759
C	 1.0276678014	 3.0473393247	 1.1044254281	-0.3147
C	 1.0051755268	 2.1806144953	-0.1582370605	 0.189847
C	 2.1794077459	 2.0295996947	-1.0956186834	-0.474709
C	 3.1987819041	 1.112758736	-0.5910434745	 0.323534
C	 4.0362652042	 0.3645080794	-0.1653442162	-0.449447
H	-1.8292403924	 2.3771355545	 0.7741423651	 0.243374
H	-0.083405463	 4.2315392338	-0.5292899886	 0.118856
H	 1.8726153642	 3.7291970498	 1.1596221409	 0.127477
H	 0.7165105197	 2.6356497378	 2.06006053	 0.126452
H	 1.8233645782	 1.6804935338	-2.0729618211	 0.147749
H	 2.6306791304	 3.0153474337	-1.2685972401	 0.134407
H	 4.7705096197	-0.3068597889	 0.2054474942	 0.199928
45.0723	102.6204	183.4685	242.5201	294.202	334.39	411.4904	450.862	507.6627	611.6377	623.5882	647.0086	703.8543	731.4158	795.2304	836.8555	891.7848	910.3224	953.5939	967.6097	993.5342	1032.5418	1066.1988	1096.0186	1124.0286	1190.6884	1270.928	1296.9222	1323.5686	1337.8044	1392.7411	1460.2259	1489.4406	1900.8067	2244.2484	3018.6767	3052.8499	3114.229	3199.7483	3208.0216	3507.1391	3540.1248
O=C1NC2CC12CC#C	O=C1N[C@H]2C[C@@]12CC#C	
InChI=1S/C7H7NO/c1-2-3-7-4-5(7)8-6(7)9/h1,5H,3-4H2,(H,8,9)	InChI=1S/C7H7NO/c1-2-3-7-4-5(7)8-6(7)9/h1,5H,3-4H2,(H,8,9)/t5-,7+/m0/s1
