23
gdb 58196	2.6459	0.9831	0.86639	1.2463	87.84	-0.2622	0.0317	0.2939	1475.0921	0.201855	-388.260645	-388.249222	-388.248278	-388.297092	42.125	
C	 0.3038894287	-0.383720084	 1.3154910104	-0.399357
C	-0.1486612678	 0.0310090148	-0.093069011	 0.048309
C	-0.3192947522	 1.5548679417	-0.1780797461	-0.410625
C	 0.7674272738	-0.5004704279	-1.2277004848	 0.015799
C	 2.2503958734	-0.1404717975	-1.0563609837	-0.414761
C	 0.5920622596	-2.0330496519	-1.4150766271	-0.06529
O	-0.777329272	-2.4115215911	-1.5536706423	-0.418077
C	 1.3789261575	-2.5414753137	-2.5437464031	 0.294667
C	 1.9779308524	-2.9442983112	-3.5057539042	-0.442158
H	 0.4011861723	-1.4691734494	 1.4179884259	 0.115466
H	 1.2659647028	 0.0667111253	 1.5821801386	 0.113611
H	-0.4286590759	-0.0538396113	 2.0592957163	 0.112179
H	-1.1311406999	-0.420445394	-0.2684110902	 0.08999
H	 0.6179216737	 2.0847076967	 0.0256912799	 0.113658
H	-0.6684365916	 1.8639605597	-1.1693578792	 0.107
H	-1.0535522452	 1.9015977013	 0.5566266098	 0.111055
H	 0.4157104495	-0.0409628556	-2.1632421488	 0.065098
H	 2.3791827884	 0.9326036774	-0.8907254205	 0.116524
H	 2.6957144633	-0.6644078673	-0.2039217321	 0.117947
H	 2.8229518451	-0.4132437912	-1.9458825268	 0.129231
H	 0.9265157468	-2.5380433055	-0.5006584781	 0.118327
H	-1.054585857	-2.1643490585	-2.4430596141	 0.283304
H	 2.5178524542	-3.3158526469	-4.3415568987	 0.198104
41.6938	71.9582	136.7689	203.087	203.3238	224.3795	241.4884	248.0209	265.1056	292.9892	306.423	361.4026	422.6451	457.7294	497.3358	568.7288	599.6949	628.4284	667.6569	783.9393	853.8772	916.7736	932.0483	966.8293	972.86	1007.465	1032.1179	1060.1724	1133.4259	1139.2834	1172.9359	1207.5601	1252.8211	1283.819	1328.6846	1346.8489	1377.7964	1385.1376	1402.464	1410.4819	1418.62	1426.3299	1486.1279	1490.5137	1497.318	1508.6768	1510.8434	1511.7232	2228.2149	2993.3514	3026.9446	3033.4169	3039.9864	3045.2673	3048.6244	3092.3969	3095.2216	3100.4255	3103.1704	3109.7035	3124.8367	3502.0488	3804.3412
CC(C)C(C)C(O)C#C	CC(C)[C@@H](C)[C@@H](O)C#C	
InChI=1S/C8H14O/c1-5-8(9)7(4)6(2)3/h1,6-9H,2-4H3	InChI=1S/C8H14O/c1-5-8(9)7(4)6(2)3/h1,6-9H,2-4H3/t7-,8+/m1/s1
