16
gdb 28896	2.35275	1.83302	1.037	1.5159	74.81	-0.2284	-0.0047	0.2237	1088.4525	0.125559	-437.96854	-437.960501	-437.959557	-438.001137	30.631	
C	 0.0561322012	 1.544301559	-0.069452875	-0.550034
C	 0.0565592357	 0.0375117885	-0.0355329755	 0.046288
C	 0.0581925381	-0.7257138146	-1.2056884834	 0.350309
O	 0.0593793943	-0.1556457435	-2.4350180068	-0.428668
C	 0.0586793073	-2.1231963974	-1.1400709314	-0.219709
C	 0.0574214851	-2.706994482	 0.1122454979	-0.004947
N	 0.0557381212	-2.0140753237	 1.2582948968	-0.387306
C	 0.0553212198	-0.6901060959	 1.1627434734	 0.379068
O	 0.0535916643	-0.0016729376	 2.3293605872	-0.421954
H	 0.9414911015	 1.9430490683	-0.5831253252	 0.129876
H	-0.8309653267	 1.9427146749	-0.5803602069	 0.130028
H	 0.0576572657	 1.9488875685	 0.9423963912	 0.163767
H	 0.0586565507	 0.8033920144	-2.3438309854	 0.302487
H	 0.0599777157	-2.7102566262	-2.049343283	 0.104014
H	 0.0577401772	-3.7892567217	 0.2112881519	 0.110585
H	 0.0531714788	-0.6760280809	 3.022742054	 0.296196
76.0445	141.7566	240.0926	276.6424	299.7329	348.7155	405.4237	503.1723	526.4132	534.1954	534.9352	559.0978	676.2853	703.3882	788.9391	839.5382	847.6994	947.3947	975.6992	1057.0466	1084.2397	1106.1878	1171.6283	1238.9456	1273.3892	1324.5016	1364.0509	1377.6714	1414.1775	1477.7421	1498.3078	1502.6242	1528.2058	1636.4154	1662.528	3005.6724	3048.6325	3151.6287	3163.2123	3217.775	3768.5858	3815.7775
CC1=C(O)C=CN=C1O	Cc1c(O)ccnc1O	
InChI=1S/C6H7NO2/c1-4-5(8)2-3-7-6(4)9/h2-3H,1H3,(H2,7,8,9)	InChI=1S/C6H7NO2/c1-4-5(8)2-3-7-6(4)9/h2-3H,1H3,(H2,7,8,9)
