17
gdb 24638	4.40389	1.15304	0.98475	0.9788	83.02	-0.2426	-0.0425	0.2001	1199.4316	0.138862	-380.906703	-380.899475	-380.898531	-380.938887	27.77	
C	-0.2374900809	 1.295522904	-0.3438091542	-0.26783
C	 1.16270364	 1.1756359765	 0.1731746188	-0.267806
C	 0.2806309636	-0.0589796608	 0.1072688272	-0.079051
C	-0.2286399465	-0.7167845688	 1.3343645191	 0.338093
C	-0.5972426383	-0.0150550537	 2.4943475632	-0.072687
N	-1.0527338892	-0.6170059104	 3.5889167057	-0.235038
C	-1.1467803605	-1.9489830103	 3.5363133467	-0.017793
C	-0.7859125684	-2.6565787102	 2.3958535432	-0.018306
N	-0.3288954768	-2.0527699034	 1.2976133457	-0.310086
H	-0.9787980585	 1.7811287501	 0.2815528915	 0.123143
H	-0.3893476165	 1.4392029937	-1.407603864	 0.123264
H	 1.9848267887	 1.2359508377	-0.5309819795	 0.123269
H	 1.3866394966	 1.5785263153	 1.1549894591	 0.123142
H	 0.5069918511	-0.7769417666	-0.6722715553	 0.103256
H	-0.5210426564	 1.0688290714	 2.5381065147	 0.107417
H	-1.5172521536	-2.4572875324	 4.4222111615	 0.11389
H	-0.8659598844	-3.740574332	 2.3624808667	 0.113122
65.6565	142.9973	185.1832	312.0868	398.1935	427.3696	553.0815	559.0541	641.9991	774.2755	787.2979	809.58	829.3291	860.2395	920.8632	934.4659	966.0407	990.7677	1027.2118	1052.444	1060.8314	1080.0481	1084.3569	1139.9857	1197.0399	1203.2838	1219.4534	1238.8345	1261.0525	1332.0465	1402.9389	1438.8211	1472.3148	1498.3648	1515.9115	1576.4064	1616.3903	3135.0066	3137.5597	3150.8868	3152.6966	3174.7515	3182.0717	3214.3906	3229.8249
C1CC1C1=CN=CC=N1	C1CC1c1cnccn1	
InChI=1S/C7H8N2/c1-2-6(1)7-5-8-3-4-9-7/h3-6H,1-2H2	InChI=1S/C7H8N2/c1-2-6(1)7-5-8-3-4-9-7/h3-6H,1-2H2
