20
gdb 69356	2.67424	1.40507	1.14931	2.9519	79.79	-0.2454	-0.0298	0.2156	1154.0562	0.169077	-403.128592	-403.119397	-403.118453	-403.162067	34.771	
C	 0.0841801162	 1.5158976532	-0.0270077943	-0.485776
C	-0.0895226648	 0.0293920481	 0.0536697499	 0.35995
C	-1.437737681	-0.7174507306	 0.080611176	-0.353009
C	-0.8242165821	-1.7792549597	 1.0497763247	 0.221731
C	-1.4052886904	-1.7745287145	 2.4599562808	-0.471396
C	-0.6656107649	-3.1726953076	 0.5028084542	 0.115656
O	-0.6871971922	-3.4514168879	-0.6738419398	-0.266691
C	 0.5382159876	-1.0013784264	 0.9516238014	-0.146986
N	 0.9766098072	-0.8434649898	-0.4227459968	-0.361688
H	 1.1299903959	 1.7865818339	 0.1385274129	 0.134138
H	-0.2063901025	 1.8865978511	-1.0173337641	 0.125173
H	-0.5358759686	 2.028582765	 0.7161349895	 0.114718
H	-2.2397078897	-0.1528954415	 0.5635268301	 0.104814
H	-1.788909633	-1.0953493467	-0.883037497	 0.11785
H	-2.4472732011	-2.111852181	 2.463625334	 0.126896
H	-0.8346270256	-2.4336236577	 3.1245450004	 0.122221
H	-1.3753690005	-0.7673528225	 2.8862837911	 0.127266
H	-0.4517805176	-3.9575668897	 1.2654035281	 0.076511
H	 1.2614185598	-0.9202490156	 1.7570439984	 0.092265
H	 0.6569981074	-1.5948195	-1.0337321594	 0.24636
102.4156	132.6217	193.0517	202.5289	219.105	245.3777	297.4686	334.0284	358.8162	420.266	508.3333	554.5834	614.385	703.141	796.8265	842.039	856.8082	911.2116	935.4956	953.3107	980.4684	1013.5335	1031.2034	1057.1574	1123.4737	1133.5581	1161.3299	1166.4974	1221.8685	1249.5656	1261.5526	1275.9615	1301.4703	1400.5831	1408.3159	1425.6243	1451.9023	1479.9457	1484.5249	1494.1075	1495.0358	1497.2608	1800.4484	2860.5764	3027.8044	3028.8598	3059.5663	3087.84	3093.5115	3106.1739	3115.6129	3122.1643	3161.0913	3455.8284
CC12CC(C)(C=O)C1N2	C[C@]12C[C@@](C)(C=O)[C@H]1N2	
InChI=1S/C7H11NO/c1-6(4-9)3-7(2)5(6)8-7/h4-5,8H,3H2,1-2H3	InChI=1S/C7H11NO/c1-6(4-9)3-7(2)5(6)8-7/h4-5,8H,3H2,1-2H3/t5-,6+,7+/m1/s1
