19
gdb 115957	3.20688	1.33138	1.08129	1.5493	71.08	-0.2437	0.0608	0.3045	1154.8104	0.159664	-460.126004	-460.117746	-460.116802	-460.159391	30.438	
C	 0.0133224674	 1.3314338036	-0.1688246382	-0.23561
O	-0.0143683211	-0.0149544722	 0.2527012056	-0.237862
C	-1.265338559	-0.6295380079	 0.1102507232	 0.124563
C	-1.6798325611	-0.9815753521	-1.3374472622	-0.135115
O	-2.627946495	-2.0366122802	-1.1998062093	-0.264563
C	-2.237858016	-2.8397796998	-0.1008796344	 0.064798
C	-1.0056917026	-3.7427175861	-0.3216499562	-0.102644
O	-0.1617331033	-2.8382696685	 0.4266488538	-0.285515
C	-1.2837755219	-2.0038137921	 0.7827153203	 0.043518
H	 1.0100813642	 1.7171423148	 0.0569388621	 0.133157
H	-0.1661433844	 1.4356444861	-1.2490945527	 0.109832
H	-0.7334136141	 1.9396926616	 0.3654366949	 0.105871
H	-2.058824314	-0.01558719	 0.5710421368	 0.069763
H	-2.1710360045	-0.1705843124	-1.8792081919	 0.110413
H	-0.7872633043	-1.2983896405	-1.8965117205	 0.111863
H	-3.1308671599	-3.3014065719	 0.3210744992	 0.093195
H	-1.062566702	-4.7308586281	 0.1518964689	 0.102657
H	-0.6893374101	-3.852679924	-1.3652422872	 0.111239
H	-1.4362708981	-1.9634631304	 1.8648380178	 0.08044
74.7167	97.716	168.7411	188.8253	220.919	318.6576	387.2854	424.6854	505.2531	635.2296	674.4006	807.1097	865.7366	875.3918	905.4071	954.9267	1001.0811	1021.9595	1026.5365	1042.4021	1084.1884	1110.3427	1139.4051	1169.5279	1174.5492	1182.1181	1224.8898	1234.6564	1244.1561	1249.4504	1311.1495	1323.4712	1334.1821	1359.7252	1371.5511	1404.3614	1481.1222	1492.905	1506.9908	1509.0663	1519.1917	2954.1035	2976.7688	3005.3636	3017.3323	3025.7344	3069.9681	3072.2443	3105.9467	3114.1807	3118.7166
COC1COC2COC12	CO[C@H]1CO[C@H]2CO[C@@H]12	
InChI=1S/C6H10O3/c1-7-4-2-8-5-3-9-6(4)5/h4-6H,2-3H2,1H3	InChI=1S/C6H10O3/c1-7-4-2-8-5-3-9-6(4)5/h4-6H,2-3H2,1H3/t4-,5-,6-/m0/s1
