21
gdb 101651	3.29783	0.70493	0.66626	2.8109	75.81	-0.2523	-0.0243	0.228	1740.1419	0.179234	-461.367582	-461.356735	-461.35579	-461.404599	38.364	
C	-1.4221529486	 0.0134076127	 0.1125465133	-0.401921
C	 0.0950168369	 0.1623750957	-0.0108999952	-0.072457
C	 0.8558897111	-0.4735191727	 1.1798339398	-0.2364
C	 2.2777983113	 0.0540358025	 1.3888417867	 0.084499
O	 2.3001846487	 1.4759173928	 1.5740568798	-0.43392
C	 2.9913817724	-0.6113843266	 2.5681333402	-0.061519
O	 4.2773838937	-0.0661034208	 2.7550926585	-0.422104
C	 0.6029920837	-0.398948001	-1.326258561	 0.156137
O	-0.0975494452	-0.8537528375	-2.1947117319	-0.243327
H	-1.7874732688	 0.5175542297	 1.0122589096	 0.106568
H	-1.9275715942	 0.4393678765	-0.7567972107	 0.134755
H	-1.7087213872	-1.0412731832	 0.1704097446	 0.127111
H	 0.3667649241	 1.228878938	-0.0182543575	 0.112783
H	 0.2783071237	-0.281933327	 2.0951972072	 0.098409
H	 0.8870003324	-1.5653965835	 1.0699088551	 0.114837
H	 2.8897165571	-0.1051181026	 0.4940720147	 0.105199
H	 1.7081952263	 1.6848250048	 2.3075563766	 0.283599
H	 2.3657460689	-0.498376554	 3.4739752581	 0.072247
H	 3.1100508434	-1.6853284258	 2.3869055881	 0.111083
H	 4.1755455763	 0.8855900922	 2.6236214033	 0.28553
H	 1.7090374443	-0.3678019202	-1.4551729593	 0.078891
43.3872	59.3701	89.4659	134.5066	155.5101	203.377	238.7011	291.6079	325.1069	336.7944	366.0409	408.612	465.0405	507.2472	583.4238	654.5788	808.8547	836.7284	875.0705	921.5718	959.2521	997.0795	1054.7195	1087.2219	1099.1089	1110.9619	1131.3269	1159.3276	1189.9314	1215.0147	1269.8822	1299.1393	1336.0433	1349.7814	1384.8302	1387.08	1411.4415	1420.953	1438.8832	1443.7912	1480.435	1490.5298	1497.4035	1507.0204	1826.6836	2871.3895	2925.0476	3005.1413	3008.1813	3044.7794	3047.8614	3060.2136	3073.9879	3111.1262	3130.545	3766.7491	3776.8949
CC(CC(O)CO)C=O	C[C@@H](C[C@@H](O)CO)C=O	
InChI=1S/C6H12O3/c1-5(3-7)2-6(9)4-8/h3,5-6,8-9H,2,4H2,1H3	InChI=1S/C6H12O3/c1-5(3-7)2-6(9)4-8/h3,5-6,8-9H,2,4H2,1H3/t5-,6+/m0/s1
