15
gdb 61706	2.19514	1.2477	0.99973	2.7734	70.55	-0.2744	-0.064	0.2104	1211.1785	0.106887	-457.746054	-457.736238	-457.735293	-457.78106	33.991	
C	-0.1215373212	 1.5237626559	-0.1521678516	-0.41243
C	 0.0750809357	 0.0143234251	-0.0066565536	 0.073348
O	 0.7885768674	-0.3169321171	 1.21574565	-0.224879
C	 0.134024318	-0.170484826	 2.39049854	 0.169146
O	 0.668989962	-0.3557236535	 3.4398742398	-0.264747
C	-1.2682195644	-0.7612167452	-0.0384643442	 0.122058
O	-2.3098389292	-0.2779848532	-0.3818500563	-0.225103
C	 0.8678279833	-0.54432457	-1.0979640943	 0.309869
C	 1.4548454006	-1.0235147913	-2.029772291	-0.425279
H	 0.8485346079	 2.0233631819	-0.1293467642	 0.147481
H	-0.6191394525	 1.7395461218	-1.0988476187	 0.157109
H	-0.7481745885	 1.9086702066	 0.656050901	 0.135055
H	-0.9267142515	 0.1227686781	 2.2775042154	 0.102489
H	-1.1627615244	-1.8235058526	 0.2673023606	 0.118184
H	 1.9952172469	-1.4364279705	-2.846602033	 0.217698
83.7256	93.9783	124.1358	155.449	176.5256	205.5487	241.1085	268.3539	375.03	418.5337	472.1735	474.6136	536.9609	653.2083	684.5565	697.2485	776.5979	919.8263	956.5768	1005.9084	1042.9933	1109.281	1151.2871	1182.9514	1222.5603	1391.7406	1410.6275	1434.6302	1479.7979	1482.9188	1839.1412	1870.2692	2239.349	2920.6598	2962.7938	3062.1775	3141.5723	3156.4439	3496.8632
CC(OC=O)(C=O)C#C	C[C@@](OC=O)(C=O)C#C	
InChI=1S/C6H6O3/c1-3-6(2,4-7)9-5-8/h1,4-5H,2H3	InChI=1S/C6H6O3/c1-3-6(2,4-7)9-5-8/h1,4-5H,2H3/t6-/m0/s1
