21
gdb 86935	2.73331	0.96628	0.87057	3.6716	79.57	-0.2404	-0.0154	0.225	1418.2985	0.180334	-424.222825	-424.212878	-424.211933	-424.258318	36.152	
C	-0.5798835358	 1.4024906144	-0.1262550067	-0.413098
C	-0.0573332894	-0.0236155482	-0.0562925173	 0.019431
C	 1.2236602982	-0.4069968451	-0.8449064657	 0.106263
O	 2.0654656091	 0.7292310017	-0.9667440012	-0.427374
C	 1.62150844	-1.3432834997	 0.3288214093	-0.265721
C	 0.6080075444	-0.5891621355	 1.2464975898	-0.023845
C	 1.2368940531	 0.4648565017	 2.171683796	-0.289677
C	 1.9527806859	-0.1642854658	 3.3430308809	 0.158101
O	 1.7471365028	 0.0997781813	 4.5007399315	-0.243362
H	 0.2017020644	 2.1308410911	 0.0988797289	 0.135528
H	-0.9575894192	 1.6239733702	-1.1300430319	 0.115091
H	-1.4048909321	 1.5501457224	 0.5789557645	 0.113799
H	-0.8509143091	-0.7184953973	-0.3529111082	 0.076997
H	 1.0710218814	-0.8800634722	-1.8243966298	 0.062073
H	 2.9165290337	 0.4329515899	-1.3052160665	 0.285092
H	 1.3298351977	-2.3818028573	 0.15026098	 0.103586
H	 2.6774311794	-1.3199787538	 0.6138935506	 0.09317
H	-0.0482931723	-1.2373564985	 1.8352781731	 0.075306
H	 1.9676201463	 1.0494091028	 1.5972202089	 0.132933
H	 0.4828172353	 1.1517442268	 2.5670473483	 0.117711
H	 2.7168480461	-0.9283380089	 3.0661552653	 0.067996
49.7467	82.5005	115.3138	157.7801	199.6388	235.3759	250.6672	295.8115	359.9107	396.5116	446.6769	505.2825	552.8941	705.6143	788.2698	827.27	844.2166	862.7401	903.488	963.7369	989.0889	999.4534	1044.4248	1066.3887	1108.7179	1143.8167	1151.1358	1166.74	1196.1404	1231.4551	1247.7124	1267.1396	1285.8018	1299.8996	1327.7072	1368.9284	1375.2665	1406.525	1420.5126	1435.774	1465.473	1475.9701	1490.4652	1500.5302	1830.4365	2854.354	3001.0186	3028.7447	3035.6865	3042.0063	3049.8475	3059.9253	3095.5199	3099.2482	3107.5488	3129.8841	3814.5935
CC1C(O)CC1CC=O	C[C@H]1[C@@H](O)C[C@H]1CC=O	
InChI=1S/C7H12O2/c1-5-6(2-3-8)4-7(5)9/h3,5-7,9H,2,4H2,1H3	InChI=1S/C7H12O2/c1-5-6(2-3-8)4-7(5)9/h3,5-7,9H,2,4H2,1H3/t5-,6-,7+/m1/s1
