20
gdb 116343	2.7287	1.44405	1.14033	1.3086	74.04	-0.2214	0.0686	0.29	1122.3162	0.172594	-440.241372	-440.233046	-440.232102	-440.274305	32.11	
O	 0.2023319867	 1.4149044722	 0.1612282826	-0.419585
C	 0.0477820274	 0.0054863766	 0.0545078419	-0.0908
C	-1.4088198875	-0.4632618727	 0.0382196638	 0.030467
C	-2.1847594147	-0.0655623863	 1.2987289047	-0.110143
O	-3.530932938	-0.4968980499	 1.1883628862	-0.24077
C	-4.2252970948	 0.22795784	 0.1899037333	-0.106374
C	-3.5009480709	 0.2464664207	-1.1595763932	-0.031166
C	-2.4950249027	 1.3140964176	-1.4246324614	-0.272299
N	-2.0690191937	-0.0722710021	-1.2166441109	-0.104968
H	 0.0339081395	 1.7918951313	-0.7066951888	 0.293742
H	 0.555658794	-0.38296005	-0.8388036145	 0.1032
H	 0.5463199281	-0.4211161026	 0.9324643104	 0.109335
H	-1.3872023368	-1.5618638638	 0.0181349637	 0.088735
H	-1.7634865669	-0.5738052727	 2.1713845912	 0.10951
H	-2.1310878078	 1.0188240745	 1.4805002688	 0.102518
H	-5.1961212443	-0.2624017686	 0.0817459389	 0.114234
H	-4.4069284807	 1.2582835123	 0.5393103603	 0.092539
H	-4.0686249812	-0.1532778091	-1.9970402277	 0.095698
H	-2.3428348321	 1.6929894167	-2.4326733393	 0.113419
H	-2.3428307838	 2.0467866359	-0.6355696101	 0.122707
84.2888	116.1464	207.4056	261.1939	286.6066	318.5447	352.1967	394.599	459.6859	510.5756	630.7374	693.0104	727.8564	821.4632	898.5889	912.6074	922.3204	945.4058	965.6477	991.1216	1075.8832	1088.5372	1094.205	1111.9558	1122.3103	1152.8155	1158.7816	1171.8541	1236.5979	1250.7736	1298.8597	1323.2123	1331.7742	1371.143	1379.7865	1392.5393	1405.1403	1414.0254	1422.4634	1488.5131	1496.0231	1497.3668	1515.163	2958.21	2992.5623	3006.546	3018.7106	3068.8348	3083.6882	3089.2298	3096.0022	3123.8954	3180.555	3842.2372
OCC1COCC2CN12	OC[C@H]1COC[C@H]2CN12	
InChI=1S/C6H11NO2/c8-2-6-4-9-3-5-1-7(5)6/h5-6,8H,1-4H2	InChI=1S/C6H11NO2/c8-2-6-4-9-3-5-1-7(5)6/h5-6,8H,1-4H2/t5-,6+,7?/m1/s1
