19
gdb 38530	3.34944	1.58688	1.26306	1.662	80.36	-0.2313	0.0234	0.2548	1026.7396	0.162104	-385.896353	-385.889455	-385.88851	-385.927511	28.331	
C	-0.0695138504	 1.4900665205	-0.1619080674	-0.245902
C	 1.3735359327	 1.9631475851	 0.1811037687	-0.236541
C	 2.2484024293	 0.7343473433	-0.1380337602	-0.079942
C	 3.4120431075	 0.3257090807	 0.7491936022	 0.015544
O	 3.0137734003	-0.1035080781	 2.057695868	-0.253382
C	 3.2757690976	-1.109216655	 1.0712451969	 0.051833
C	 2.0124663368	-1.6785020626	 0.4234262144	-0.372938
C	 1.2766108147	-0.4223306679	 0.0475449964	 0.362822
C	 0.0127362053	-0.0120797347	 0.0418101979	-0.228525
H	-0.8263990051	 1.9591219902	 0.4764443115	 0.10253
H	-0.339531467	 1.7443020654	-1.1974324749	 0.101875
H	 1.669593381	 2.8660970129	-0.3596402615	 0.09028
H	 1.4350793007	 2.1722517494	 1.2540208594	 0.117103
H	 2.6197387694	 0.7760919079	-1.1751123712	 0.073797
H	 4.3779942772	 0.8221565194	 0.6953363715	 0.089275
H	 4.1276804958	-1.7520102483	 1.2790552011	 0.092912
H	 2.3013648732	-2.2784048123	-0.4513475669	 0.10968
H	 1.4448119405	-2.3276932947	 1.0968560294	 0.121059
H	-0.8616355895	-0.6362741211	 0.1897338247	 0.088522
125.3914	186.1209	265.9291	359.042	384.0346	472.7492	571.5159	598.4658	697.3962	723.8687	816.9051	823.3467	847.3046	861.4702	879.4336	909.7243	919.1578	959.0625	972.9531	1008.941	1019.9496	1064.8865	1082.2728	1098.1705	1150.7499	1174.7903	1184.7426	1217.1421	1250.4943	1256.106	1272.2675	1292.0118	1311.4259	1315.951	1354.6689	1357.7477	1422.6797	1465.2834	1481.6562	1497.1406	1744.1095	2971.005	2999.8203	3011.3655	3048.6326	3061.3303	3083.7445	3102.0747	3137.889	3150.8537	3191.8413
C1CC2C3OC3CC2=C1	C1C[C@H]2[C@H]3O[C@H]3CC2=C1	
InChI=1S/C8H10O/c1-2-5-4-7-8(9-7)6(5)3-1/h2,6-8H,1,3-4H2	InChI=1S/C8H10O/c1-2-5-4-7-8(9-7)6(5)3-1/h2,6-8H,1,3-4H2/t6-,7+,8-/m1/s1
