14
gdb 27448	2.44452	1.77989	1.10832	5.1475	75.	-0.2459	-0.084	0.1619	1034.6779	0.102423	-432.90171	-432.894155	-432.89321	-432.933774	28.502	
N	 0.0449300157	 1.3010802428	 0.2628796675	-0.531861
C	-0.050257064	-0.0270384585	-0.0444125432	 0.346225
N	-1.2041235807	-0.5968954743	 0.0004206406	-0.330638
C	-1.4577187081	-1.9264714423	-0.3209991793	 0.326545
O	-2.4556910824	-2.2586011148	-0.9246535057	-0.331541
C	-0.5291963811	-2.9464045019	 0.2308670523	-0.157648
C	 0.8144107588	-2.8640089976	 0.2047661747	 0.004401
N	 1.5977519402	-1.8568117849	-0.3354647609	-0.208981
C	 1.2290564586	-0.6408251607	-0.4764487905	-0.031636
H	 0.9361739015	 1.7012407701	 0.5013098225	 0.267662
H	-0.7771351576	 1.7353646371	 0.652636285	 0.27321
H	-0.9960384217	-3.8705523438	 0.5596459855	 0.128875
H	 1.402591201	-3.7126435107	 0.5449310349	 0.122011
H	 1.9533862999	 0.0450540194	-0.9244825435	 0.123378
94.9676	153.7694	251.654	302.4791	335.2361	386.6776	428.7298	455.8804	540.0789	559.5937	640.7584	659.8482	717.1405	818.2314	839.9989	878.4084	934.6908	969.8953	993.26	1009.7825	1127.6204	1243.3497	1284.7324	1341.7649	1426.0341	1446.0822	1604.7172	1624.1275	1663.1504	1703.7504	1774.7762	3086.8138	3157.8686	3183.6501	3595.0438	3724.0541
NC1=NC(=O)C=CN=C1	Nc1nc(=O)ccnc1	
InChI=1S/C5H5N3O/c6-4-3-7-2-1-5(9)8-4/h1-3H,(H2,6,8,9)	InChI=1S/C5H5N3O/c6-4-3-7-2-1-5(9)8-4/h1-3H,(H2,6,8,9)
