19
gdb 65258	3.58405	1.19051	1.12969	1.574	77.28	-0.2378	0.0143	0.2521	1163.6463	0.158882	-423.00941	-423.001069	-423.000125	-423.042515	32.218	
O	-0.1805476509	 1.303532543	-0.3613222824	-0.476925
C	-0.0456241659	-0.0536620289	-0.055966088	 0.438588
C	-0.3428705008	-0.4318985469	 1.3596617199	-0.316233
C	-1.2963267609	-0.8410564449	 0.2527198648	-0.327632
C	 1.0929981238	-0.7241304643	-0.7999002731	 0.011539
O	 0.8879520533	-0.5087230714	-2.2078369622	-0.29318
C	 2.100667732	-0.0692613288	-2.8206473626	-0.123359
C	 3.0337846128	 0.21269195	-1.6764315995	-0.104008
C	 2.4638672418	-0.1550947717	-0.5365617615	-0.071329
H	-0.2307404029	 1.3423956824	-1.3251176027	 0.283227
H	 0.2609831923	-1.1974068958	 1.8361287054	 0.110165
H	-0.6522870991	 0.3745698283	 2.0142668067	 0.12609
H	-2.2339259016	-0.3022403266	 0.1836098306	 0.117918
H	-1.34238628	-1.8867218597	-0.0325632533	 0.111659
H	 1.0654943434	-1.8055851527	-0.580870804	 0.07811
H	 2.4938823599	-0.8503285638	-3.4922719394	 0.106
H	 1.8937977903	 0.8153952401	-3.4396757525	 0.108727
H	 4.0206074431	 0.6378129371	-1.8076705048	 0.108378
H	 2.8847216295	-0.0904219156	 0.4580548686	 0.112265
70.7868	105.0432	171.9782	237.4732	300.8962	333.3227	386.3658	429.9088	497.5328	530.2895	692.5844	760.329	773.3118	811.6789	840.1504	888.0294	903.203	938.5489	947.2	957.5239	962.9439	994.7541	1044.8922	1048.1181	1050.547	1077.3365	1096.3879	1122.6852	1189.422	1201.4024	1234.7969	1292.9816	1316.3501	1334.3699	1355.0178	1380.6141	1423.3971	1452.0047	1506.0126	1521.3383	1693.167	2949.5106	2968.1521	3010.6712	3132.2517	3135.6978	3211.0787	3218.2095	3232.405	3236.3744	3772.1258
OC1(CC1)C1OCC=C1	OC1(CC1)[C@H]1OCC=C1	
InChI=1S/C7H10O2/c8-7(3-4-7)6-2-1-5-9-6/h1-2,6,8H,3-5H2	InChI=1S/C7H10O2/c8-7(3-4-7)6-2-1-5-9-6/h1-2,6,8H,3-5H2/t6-/m0/s1
