21
gdb 78359	2.62015	1.36502	1.08254	2.0744	83.5	-0.2189	0.0747	0.2936	1218.3369	0.182306	-383.201923	-383.193025	-383.192081	-383.235015	34.462	
C	 0.3768953767	 1.6213528781	 0.4718896759	-0.417292
C	 0.2369731796	 0.1453354973	 0.189839023	 0.018138
C	 0.9386854837	-0.4659262149	-0.9603340811	-0.147885
N	 1.4559883229	-0.644424119	 0.4597394095	-0.16069
C	 1.0975713181	-2.1180124771	 0.3675661591	-0.004775
C	 0.2135313952	-2.6891993704	 1.4608422537	-0.41325
C	 0.5847411835	-1.9297606473	-1.0694852364	 0.343926
C	-0.4979361805	-2.5683777751	-1.8500206638	-0.31206
N	 0.925653797	-2.8400463413	-2.1526493513	-0.377807
H	 1.365554848	 1.9782952438	 0.1705801856	 0.12791
H	-0.3818976092	 2.1959366834	-0.0699306178	 0.114972
H	 0.2590345069	 1.8228635081	 1.541477525	 0.12454
H	-0.7233062954	-0.2839440564	 0.4712779797	 0.083113
H	 1.4866402079	 0.1128008592	-1.6999078031	 0.09175
H	 2.044082292	-2.6661131949	 0.3343169517	 0.098257
H	-0.7667628515	-2.2061682517	 1.5055820084	 0.116534
H	 0.05051955	-3.7587209101	 1.2910862088	 0.125139
H	 0.6963774451	-2.5730711063	 2.4365687956	 0.128317
H	-1.0430665154	-3.4163050159	-1.4435720095	 0.119163
H	-1.0722908061	-1.9451514299	-2.53168374	 0.111014
H	 1.2144693515	-2.3188157694	-2.9778685031	 0.230987
124.919	179.9758	187.9222	196.0422	208.4052	240.8736	295.2086	368.4266	414.3802	460.4378	556.7592	588.3447	728.5396	768.3365	805.2487	859.8073	899.5486	916.5666	954.3008	962.3884	967.124	1012.0753	1029.9775	1047.4848	1098.9546	1107.5863	1126.8634	1130.2371	1151.1208	1165.7995	1213.5089	1254.6695	1262.3851	1297.3352	1301.2141	1373.3211	1404.7758	1408.8856	1421.1265	1440.8302	1489.3053	1491.8326	1494.3974	1497.5403	1514.4539	3036.0563	3036.92	3061.5238	3100.6964	3101.4873	3104.1759	3108.0433	3113.8988	3127.9402	3140.3677	3185.5025	3487.2686
CC1C2N1C(C)C21CN1	C[C@H]1[C@H]2N1[C@@H](C)[C@]12CN1	
InChI=1S/C7H12N2/c1-4-6-7(3-8-7)5(2)9(4)6/h4-6,8H,3H2,1-2H3	InChI=1S/C7H12N2/c1-4-6-7(3-8-7)5(2)9(4)6/h4-6,8H,3H2,1-2H3/t4-,5-,6+,7-,9?/m0/s1
