18
gdb 37197	2.7028	2.07168	1.73802	1.9371	73.27	-0.2156	0.0436	0.2591	869.816	0.148822	-401.82272	-401.816031	-401.815087	-401.85322	28.267	
C	 0.0865802182	 1.4181635923	 0.0240198409	-0.245197
C	 1.3184203292	 0.6102605596	 0.0277072854	-0.11468
N	-0.110635839	-0.0416745464	 0.0601343882	-0.192761
C	 0.2066944828	-0.5514896091	-1.3304851353	 0.22544
C	-0.1393218224	 0.1468156316	-2.680293821	-0.313027
C	 1.339388124	 0.7161640775	-2.7177641353	-0.306623
C	 1.5921263184	 0.0140727551	-1.3509086177	 0.382077
O	 2.2215737209	-1.2797586834	-1.359998601	-0.33692
C	 0.9022390934	-1.9217118192	-1.3291111498	-0.134964
H	-0.1911872222	 1.8865860257	 0.9635418796	 0.129691
H	-0.2085955694	 1.9928487886	-0.8499744697	 0.116743
H	 1.9841314076	 0.5566373923	 0.8823477386	 0.107155
H	-0.398803644	-0.5383777767	-3.4908132519	 0.11015
H	-0.9191167654	 0.9089289496	-2.6189044893	 0.117651
H	 1.9626330192	 0.3169424694	-3.5195281059	 0.121784
H	 1.4177141097	 1.8059834075	-2.7136569337	 0.109315
H	 0.7555634202	-2.5114853909	-0.418572361	 0.119332
H	 0.7398717387	-2.5498398535	-2.2127196413	 0.104833
199.2843	286.2018	314.168	324.4999	348.9935	506.8427	510.3347	635.3045	679.6099	710.4914	727.2066	731.3016	811.1166	880.1212	891.7626	894.3413	934.2239	956.9586	974.0774	1006.3217	1047.4823	1110.1918	1123.6266	1143.577	1151.0183	1166.1036	1191.9146	1212.6366	1231.2655	1237.3863	1247.2535	1258.0673	1266.3956	1329.4343	1357.8606	1457.4521	1471.0548	1502.4052	1511.5158	3025.8597	3065.6538	3069.6963	3086.0285	3115.4622	3117.069	3136.1112	3173.0312	3196.6879
C1C2N1C13CCC21OC3	C1[C@H]2N1[C@@]13CC[C@@]21OC3	
InChI=1S/C7H9NO/c1-2-7-5-3-8(5)6(1,7)4-9-7/h5H,1-4H2	InChI=1S/C7H9NO/c1-2-7-5-3-8(5)6(1,7)4-9-7/h5H,1-4H2/t5-,6-,7-,8?/m1/s1
