19
gdb 79575	2.13637	1.67825	1.48841	0.9084	75.12	-0.2303	0.0757	0.306	1028.3839	0.157619	-422.972216	-422.963299	-422.962354	-423.005064	34.563	
C	-0.0390636344	 1.5383225569	-0.0076931003	-0.416841
C	 0.1061176772	 0.03793046	 0.1377364882	-0.093114
C	 1.367423497	-0.7505352062	-0.1574088871	-0.137006
C	 2.6077817454	-0.0237278594	 0.3025999473	-0.11405
C	 3.2870360867	-0.7948582868	 1.4138060653	-0.356582
C	 2.0559606873	 0.0198345543	 1.729186706	 0.327716
O	 2.0899929754	 1.1076727829	 2.5920375664	-0.473416
C	 0.799918557	-0.6800989853	 1.2723140887	 0.302776
O	 0.1974106711	-1.7202956399	 1.9699143438	-0.471212
H	 0.8479741814	 2.0677302352	 0.3457327976	 0.139476
H	-0.2061479107	 1.8112323125	-1.0558300718	 0.11206
H	-0.8941268591	 1.9055943889	 0.5706486503	 0.111236
H	-0.7772285284	-0.5215743876	-0.1706573893	 0.083874
H	 1.3584857155	-1.6248030884	-0.7982383309	 0.092439
H	 3.1045027877	 0.7890456671	-0.2129901459	 0.095771
H	 3.2600139356	-1.8808248557	 1.4292747487	 0.115605
H	 4.2120134472	-0.3535695466	 1.7743846707	 0.10821
H	 2.304466319	 0.7849179425	 3.4734685537	 0.28717
H	-0.587398031	-1.3738415745	 2.4065803185	 0.285888
147.7357	177.2006	182.9595	192.8644	239.1999	264.7639	280.369	352.5855	412.683	455.1562	537.4733	610.1161	640.1405	671.5136	748.8062	823.1086	874.7196	889.9047	916.6888	966.2013	980.5294	1006.9447	1026.4551	1060.369	1082.531	1097.2632	1119.6094	1129.9498	1177.0483	1210.4258	1254.9618	1280.0666	1295.9715	1325.388	1343.9296	1390.8511	1414.6714	1458.6137	1490.2012	1495.3957	1502.0593	3031.6334	3086.1948	3110.3818	3113.6073	3134.353	3178.9931	3188.3138	3203.4767	3804.792	3807.5128
CC1C2C3CC3(O)C12O	C[C@H]1[C@H]2[C@@H]3C[C@]3(O)[C@@]12O	
InChI=1S/C7H10O2/c1-3-5-4-2-6(4,8)7(3,5)9/h3-5,8-9H,2H2,1H3	InChI=1S/C7H10O2/c1-3-5-4-2-6(4,8)7(3,5)9/h3-5,8-9H,2H2,1H3/t3-,4-,5-,6+,7+/m0/s1
