18
gdb 78794	2.11035	1.83303	1.65047	2.3761	75.01	-0.2296	-0.004	0.2256	970.63	0.14647	-401.909843	-401.901588	-401.900644	-401.942313	31.516	
C	 0.0126795577	 1.5748969636	 0.0685765088	-0.425298
C	 0.0808247292	 0.0602694422	 0.061469084	 0.039363
N	 1.1243258946	-0.5845932899	-0.8370661771	-0.147493
C	 2.3962199442	-0.6052242688	-0.0394935579	-0.179129
C	 1.320216594	-1.6487193486	 0.1504882569	-0.098227
C	 0.6641409493	-0.7206035066	 1.2609202415	 0.145264
C	-0.0929235101	-1.0801624414	 2.5071581982	-0.515925
C	 2.0910744755	-0.1267460399	 1.3472257321	 0.407005
O	 2.7476664951	 0.2990051906	 2.2561212788	-0.345358
H	 0.9617830747	 2.0264199432	 0.373079736	 0.135665
H	-0.2380373991	 1.946204105	-0.9298103071	 0.133229
H	-0.76231789	 1.9190703467	 0.761501694	 0.12616
H	-0.876364054	-0.3680564692	-0.2546255843	 0.087844
H	 3.3296995168	-0.66436458	-0.5813551993	 0.120438
H	 1.3524361867	-2.7127228929	-0.0388139538	 0.120225
H	 0.51623164	-1.6954800244	 3.1765433819	 0.135517
H	-0.3658827909	-0.1738478179	 3.0580369852	 0.138663
H	-1.0132116138	-1.6262224916	 2.276328072	 0.122057
131.9483	154.8694	193.1478	196.8208	217.4807	259.5824	359.3214	456.6699	551.317	639.3508	652.2338	712.6334	766.034	771.9425	827.4177	844.1588	860.6583	885.7701	904.6757	979.1224	1036.127	1069.5255	1095.8219	1106.0282	1147.0394	1152.8449	1195.4269	1202.6271	1231.8583	1288.3463	1347.8473	1397.7999	1410.8889	1418.7983	1485.5156	1488.391	1489.2922	1494.0236	1874.1737	3034.7013	3038.3751	3049.7591	3102.3284	3106.5371	3108.4629	3114.997	3213.6894	3226.3193
CC1N2C3C2C1(C)C3=O	C[C@H]1N2[C@@H]3[C@H]2[C@@]1(C)C3=O	
InChI=1S/C7H9NO/c1-3-7(2)5-4(6(7)9)8(3)5/h3-5H,1-2H3	InChI=1S/C7H9NO/c1-3-7(2)5-4(6(7)9)8(3)5/h3-5H,1-2H3/t3-,4-,5+,7+,8?/m1/s1
