18
gdb 54310	2.70126	1.34723	1.09689	3.2424	71.82	-0.2494	-0.0293	0.2201	1157.7728	0.145714	-439.050124	-439.041018	-439.040074	-439.084545	32.909	
C	 0.0400056122	 1.4395538166	-0.1521766883	-0.479969
C	 0.0865162445	-0.0692707631	-0.0472857337	 0.328863
O	 1.1174553794	-0.6918891678	 0.0609557282	-0.298558
C	-1.2366596901	-0.815738546	-0.0924248429	 0.255277
C	-2.2327243559	-0.4953132574	 0.9549857454	-0.21176
O	-2.3974097738	-0.0244000525	-0.3797939096	-0.265743
C	-1.1909610305	-2.1747484911	-0.7304777009	-0.05528
C	-2.4395665214	-2.8691322555	-1.1164770225	-0.252175
N	-1.5525629373	-2.3109819745	-2.154228601	-0.323052
H	 1.0374003427	 1.8420965382	 0.0262462231	 0.144034
H	-0.2995057566	 1.7217990447	-1.1550029636	 0.156413
H	-0.6778714551	 1.8764522332	 0.5476356703	 0.142801
H	-2.9187781549	-1.2798047601	 1.2666162481	 0.13162
H	-2.0226251757	 0.2720672809	 1.6983695223	 0.125684
H	-0.3170717298	-2.7491988895	-0.4417049483	 0.119118
H	-2.483406282	-3.9536748624	-1.0809091029	 0.121875
H	-3.3819286182	-2.3615262991	-0.931243363	 0.121515
H	-1.9569077478	-1.4323660746	-2.4746553105	 0.239335
67.4389	79.6268	112.5694	173.8087	205.3289	263.728	300.069	362.0633	469.7702	480.6214	569.2844	615.5632	669.7676	808.7125	845.8336	877.9666	901.0717	934.7924	952.0595	981.4632	1028.1132	1045.4895	1094.7522	1122.3765	1132.5417	1155.5254	1169.7564	1198.5235	1265.2614	1286.3192	1304.9543	1364.9519	1387.1388	1421.7249	1452.3406	1468.2435	1499.0912	1520.1778	1807.2391	3047.4954	3091.2988	3110.0843	3114.3287	3159.4131	3173.1426	3185.0487	3202.2619	3482.0528
CC(=O)C1(CO1)C1CN1	CC(=O)[C@]1(CO1)[C@H]1CN1	
InChI=1S/C6H9NO2/c1-4(8)6(3-9-6)5-2-7-5/h5,7H,2-3H2,1H3	InChI=1S/C6H9NO2/c1-4(8)6(3-9-6)5-2-7-5/h5,7H,2-3H2,1H3/t5-,6-/m1/s1
