14
gdb 127515	3.36463	1.2539	0.91878	3.0784	73.31	-0.2404	-0.0431	0.1972	1175.3122	0.102075	-432.905424	-432.897243	-432.896298	-432.938741	29.182	
C	 0.0419330746	 1.3625209028	-0.0393284122	-0.334596
N	 0.0501571712	-0.083682914	 0.0353613156	-0.054434
N	 0.1747342921	-0.8155347563	-1.0877997924	-0.353145
C	 0.1466191583	-2.0831484245	-0.6827497998	 0.467101
O	 0.2477652911	-3.1057846131	-1.5491884928	-0.426338
C	 0.0034638428	-2.1984762162	 0.7089967299	-0.442339
C	-0.0555953623	-0.87906378	 1.1385438578	 0.328877
C	-0.1968245119	-0.3506578912	 2.4436611692	 0.232429
N	-0.3120227187	 0.0951798911	 3.50666089	-0.350468
H	 0.9781615903	 1.7191837445	-0.4762843999	 0.156715
H	-0.7925712911	 1.6996983119	-0.659477964	 0.156707
H	-0.0667253419	 1.7652778228	 0.9680759696	 0.16984
H	 0.3354500879	-2.7291209049	-2.4340139589	 0.309181
H	-0.0492001023	-3.0887749829	 1.3108292278	 0.140471
60.4742	138.8864	147.4415	175.4689	301.788	343.7376	405.9803	439.0996	514.0313	537.987	593.0384	670.6229	674.3033	706.0373	804.2873	814.4071	1024.8995	1091.4167	1152.5839	1162.607	1172.2209	1246.1958	1332.9526	1428.0102	1463.5229	1474.7268	1483.5486	1528.5657	1556.512	1594.3875	2344.6134	3053.7874	3121.3314	3159.4851	3292.1928	3794.4631
CN1N=C(O)C=C1C#N	Cn1nc(O)cc1C#N	
InChI=1S/C5H5N3O/c1-8-4(3-6)2-5(9)7-8/h2H,1H3,(H,7,9)	InChI=1S/C5H5N3O/c1-8-4(3-6)2-5(9)7-8/h2H,1H3,(H,7,9)
