15
gdb 24830	2.6819	1.65782	1.04953	4.2566	80.28	-0.2379	-0.0513	0.1866	1074.3028	0.115054	-416.80314	-416.795776	-416.794832	-416.835818	27.77	
N	-0.0665342732	 1.2169867287	 0.6996846492	-0.452015
C	-0.0102420933	 0.0704744486	 0.1345802157	 0.226163
C	 1.2548853022	-0.5351017301	-0.2935181685	-0.185782
C	 1.5600771165	-1.5377120951	-1.1272058642	 0.048173
O	 0.7808131661	-2.3454521073	-1.8824973725	-0.197521
C	-0.5719712582	-2.3397164377	-1.8723991112	 0.048173
C	-1.4518310901	-1.6614394865	-1.1246073123	-0.185781
C	-1.3114645926	-0.6716249305	-0.0517135816	 0.226164
N	-2.2719625618	-0.3759012551	 0.7401159686	-0.452016
H	 0.8721557872	 1.6173716347	 0.7806258651	 0.216173
H	 2.1331839566	-0.0539275558	 0.1298465646	 0.109952
H	 2.5974058945	-1.7951180974	-1.3084847007	 0.136097
H	-0.9231278533	-3.0555945957	-2.6068229754	 0.136097
H	-2.484189062	-1.92410959	-1.3423600236	 0.109951
H	-3.1010032186	-0.9318196907	 0.5128609766	 0.216173
42.3078	104.1081	320.1125	347.5368	355.5545	415.0183	431.2321	499.6203	581.971	663.4736	734.1519	792.7231	806.8467	841.9186	872.9988	928.4429	939.8012	945.7594	962.2124	972.8246	996.5518	1146.6001	1180.9834	1301.194	1341.2491	1384.336	1413.5134	1429.9077	1455.5056	1657.4326	1657.4477	1694.0835	1704.3819	3156.4346	3157.217	3204.6858	3207.9599	3426.7166	3428.1915
N=C1C=COC=CC1=N	[NH][C]1C=COC=C[C]1[NH]	
InChI=1S/C6H6N2O/c7-5-1-3-9-4-2-6(5)8/h1-4,7-8H	InChI=1S/C6H6N2O/c7-5-1-3-9-4-2-6(5)8/h1-4,7-8H
