19
gdb 72736	2.59821	1.70449	1.54094	1.556	74.59	-0.2369	0.0629	0.2998	976.226	0.159076	-422.969715	-422.961921	-422.960977	-423.001709	30.684	
C	-0.1293670944	 1.5454099781	 0.0066161676	-0.473476
C	 0.0934766043	 0.0580401204	 0.0414187646	 0.3734
C	 0.98790467	-0.651004913	-1.0146106164	-0.297375
C	 1.6270679451	-1.4898765031	 0.1281056236	-0.130072
C	 2.7741283574	-0.8418848775	 0.9482163901	-0.109691
O	 1.8506390499	-0.3639636101	 1.9743465694	-0.326564
C	 0.7575546669	-0.7734348013	 1.1820367507	 0.379599
C	-0.6349875755	-1.2086523856	 1.5791388381	-0.182928
O	-1.1312996367	-0.6971955576	 0.3112739564	-0.335403
H	 0.8244140064	 2.0777422623	-0.0655641618	 0.120011
H	-0.7385738563	 1.8194309601	-0.8624324332	 0.127793
H	-0.649149912	 1.8861133895	 0.9068531059	 0.126352
H	 0.4136332503	-1.2333900652	-1.7384698265	 0.11491
H	 1.6804323297	 0.0054650228	-1.5511001821	 0.097778
H	 1.6718307363	-2.5741962216	 0.0280827728	 0.080095
H	 3.5042594113	-1.5358754742	 1.3756759753	 0.114659
H	 3.3003070709	-0.0130504871	 0.459443169	 0.106056
H	-0.8241591524	-2.2808006119	 1.7019232444	 0.106154
H	-1.0580975512	-0.6606477052	 2.4325910022	 0.108701
112.3931	178.4509	199.4939	240.325	331.3372	347.8141	386.6914	480.2661	523.8172	609.5203	697.0985	783.0125	810.9072	837.2618	868.0086	897.8061	920.8611	964.9003	970.3752	991.1068	1025.7804	1067.3522	1124.8787	1137.1323	1138.3608	1161.1525	1177.4249	1191.0826	1226.5998	1233.7824	1284.956	1305.7598	1314.4044	1347.9642	1368.5685	1408.3081	1461.2657	1480.1109	1486.0863	1514.4552	1519.2432	3005.1167	3026.1981	3031.3536	3050.3886	3065.9344	3081.579	3098.6261	3108.1439	3113.3023	3119.4091
CC12CC3COC13CO2	C[C@@]12C[C@H]3CO[C@@]13CO2	
InChI=1S/C7H10O2/c1-6-2-5-3-8-7(5,6)4-9-6/h5H,2-4H2,1H3	InChI=1S/C7H10O2/c1-6-2-5-3-8-7(5,6)4-9-6/h5H,2-4H2,1H3/t5-,6+,7+/m0/s1
