18
gdb 71676	2.79414	2.05447	1.81486	0.7753	72.96	-0.2193	0.0688	0.2882	848.3363	0.151004	-401.907593	-401.901375	-401.900431	-401.937648	27.251	
O	-0.1107164326	 1.4262534157	-0.0299253694	-0.489196
C	 0.0323611376	 0.0427659823	-0.0069042874	 0.376111
C	 0.9232862824	-0.8055363876	-0.9601846424	-0.235157
N	 0.7546476379	-1.9020997022	 0.0723903953	-0.14704
C	-0.7207425581	-2.1318468784	 0.0014992593	-0.026755
C	-1.3959908802	-1.5824166034	 1.2312118842	-0.076479
C	-0.2991111597	-1.1610731441	 2.1898550312	-0.252288
C	 0.7142674856	-0.7889711052	 1.1284286142	-0.068871
C	-1.2955071557	-0.7343200544	-0.0295032823	-0.113987
H	 0.7665450314	 1.8228586945	-0.0227471624	 0.281242
H	 0.5566608673	-1.0486216149	-1.9608034099	 0.101863
H	 1.9694630305	-0.4849813097	-1.0036952232	 0.093087
H	-1.0736573655	-2.9797686417	-0.5693028404	 0.090627
H	-2.3494218317	-1.9746202391	 1.5632407058	 0.086751
H	-0.5720653335	-0.3020899838	 2.811970366	 0.108333
H	 0.0430898464	-1.9771315082	 2.8341212393	 0.109315
H	 1.7168394643	-0.4896904854	 1.434413446	 0.070634
H	-2.1434628962	-0.4085012043	-0.615571344	 0.091809
242.2976	319.0051	329.5342	422.5346	463.647	514.438	612.2246	685.7682	693.7991	754.4714	794.9058	817.5525	836.0774	876.8836	893.2261	930.3292	941.4579	969.9356	987.9129	1027.6049	1035.0174	1041.9842	1060.4179	1069.3621	1078.2257	1119.628	1129.9369	1177.1994	1206.0816	1221.6504	1236.6631	1259.6184	1288.2197	1295.7366	1342.0512	1376.4105	1400.7873	1479.3894	1507.7268	3045.8497	3047.6387	3094.9963	3110.6105	3118.0602	3190.8298	3204.3248	3217.697	3813.4692
OC12CN3C4C(CC13)C24	O[C@@]12CN3[C@H]4[C@@H](C[C@H]13)[C@@H]24	
InChI=1S/C7H9NO/c9-7-2-8-4(7)1-3-5(7)6(3)8/h3-6,9H,1-2H2	InChI=1S/C7H9NO/c9-7-2-8-4(7)1-3-5(7)6(3)8/h3-6,9H,1-2H2/t3-,4+,5+,6-,7-/m0/s1
