17
gdb 13369	6.9433	1.10807	0.97288	3.0793	73.38	-0.2256	-0.0052	0.2204	1193.4503	0.142773	-360.067288	-360.059133	-360.058189	-360.100736	28.975	
C	 0.0551405999	 1.5759481643	 0.398830167	-0.37245
C	-0.1523443586	 0.3800626148	-0.5265204649	-0.133389
N	-1.5452974671	-0.0494286277	-0.5093325148	-0.331886
C	-1.8745849084	-1.035874996	-1.2308543441	 0.4103
C	-3.260727152	-1.6574693389	-1.3730230922	-0.259002
N	-3.1266652958	-2.7731928944	-2.3236095047	-0.24475
C	-1.8976959083	-2.7901887409	-2.6633289794	 0.07044
N	-1.0885429127	-1.8215958056	-2.0834408881	-0.353341
H	 1.0996071359	 1.9036386162	 0.3903116832	 0.102872
H	-0.575309299	 2.4131952174	 0.0860021544	 0.123525
H	-0.220019992	 1.3156245054	 1.4249077719	 0.12352
H	 0.1565778115	 0.6526739144	-1.550430582	 0.087621
H	 0.5113425624	-0.4440507821	-0.212670388	 0.087629
H	-3.6344907994	-2.0198442167	-0.4093856924	 0.145078
H	-3.9880687009	-0.92659912	-1.7423586464	 0.145078
H	-1.4647109789	-3.5005491013	-3.360769876	 0.133888
H	-0.1044737465	-1.7025184389	-2.2469006934	 0.264867
34.8017	111.637	148.1289	178.6525	275.297	337.4221	349.6462	456.6853	498.2687	631.2016	726.931	800.0783	867.0111	881.465	929.5137	930.8431	987.054	994.1766	1066.5364	1089.094	1117.0442	1135.7034	1185.5985	1208.469	1293.8296	1302.7281	1349.4006	1383.6722	1402.2543	1411.5659	1453.6714	1481.7819	1488.1874	1505.0091	1684.5441	1779.4543	2941.46	2968.8231	3040.8933	3051.1057	3082.7857	3113.3416	3119.4987	3190.4608	3684.546
CCN=C1CN=CN1	CCN=C1CN=CN1	
InChI=1S/C5H9N3/c1-2-7-5-3-6-4-8-5/h4H,2-3H2,1H3,(H,6,7,8)	InChI=1S/C5H9N3/c1-2-7-5-3-6-4-8-5/h4H,2-3H2,1H3,(H,6,7,8)
