14
gdb 17228	5.61278	1.69828	1.54452	3.2688	66.6	-0.2513	0.0106	0.2619	809.305	0.109287	-341.518357	-341.512362	-341.511418	-341.548385	23.458	
N	 0.0859540866	-1.0938784748	-0.0956129511	-0.345962
C	 0.0494560905	 0.0614163002	-0.0267586703	 0.164965
C	-0.0233741307	 1.4788179173	 0.0739507908	 0.205879
C	-1.1089191446	 2.3602168045	 0.6868934304	-0.228625
N	-0.5381350117	 3.536953434	-0.070196832	-0.168333
C	 0.8136208885	 3.701250294	 0.603723942	-0.181112
C	 1.2438910333	 2.3819170294	-0.0111116218	-0.121493
C	 0.1461390413	 2.5236151497	-1.0099498454	-0.061425
H	-2.0998261769	 2.1168516085	 0.2990117643	 0.132023
H	-1.1475448599	 2.4854828883	 1.7733562309	 0.117407
H	 1.3356708734	 4.5520780026	 0.1599517596	 0.126608
H	 0.7728116483	 3.8122500771	 1.6917175469	 0.113957
H	 2.2217062123	 1.9355620886	-0.1391397273	 0.119957
H	 0.0661289297	 2.4793402306	-2.0862887172	 0.126154
160.6703	166.1101	392.8584	474.1708	517.9204	542.4893	559.6268	710.1346	781.5508	834.4555	847.5431	884.7034	921.4404	938.7717	972.4041	1007.0687	1035.7955	1085.7034	1096.7367	1132.9838	1158.4241	1187.2576	1212.7621	1229.781	1279.7915	1304.5755	1384.7141	1500.0454	1521.3604	2344.431	3050.5296	3058.4297	3115.4351	3124.2794	3203.6531	3232.6605
N#CC12CN3CC1C23	N#C[C@@]12CN3C[C@@H]1[C@@H]23	
InChI=1S/C6H6N2/c7-2-6-3-8-1-4(6)5(6)8/h4-5H,1,3H2	InChI=1S/C6H6N2/c7-2-6-3-8-1-4(6)5(6)8/h4-5H,1,3H2/t4-,5+,6-/m1/s1
