17
gdb 67907	2.43223	1.93744	1.37041	4.4194	70.97	-0.2538	0.0075	0.2613	969.5455	0.135951	-421.817563	-421.810178	-421.809234	-421.849123	29.334	
C	-0.0974332939	 1.4887990565	-0.0041873168	-0.483289
C	 0.047258912	-0.0037604571	 0.0639496891	 0.44719
O	-1.2589144781	-0.7022243366	 0.0616311867	-0.298787
C	-0.935947982	-1.4119660862	 1.2031551939	 0.43531
O	-1.6278839178	-2.1805434375	 1.7893485703	-0.328037
C	 0.4700744051	-0.8127990759	 1.3021534751	-0.288247
C	 1.5787717562	-1.4953266253	 0.4531785064	-0.05311
C	 1.0286353832	-2.1820264956	-0.7607021502	-0.312036
C	 1.1499304056	-0.685558271	-0.7802142599	-0.096211
H	 0.8774405982	 1.968930862	 0.1252492888	 0.130778
H	-0.4967473679	 1.7892128148	-0.978815904	 0.139569
H	-0.7751994005	 1.8515361056	 0.773303337	 0.134827
H	 0.7722543874	-0.3556544327	 2.2419911148	 0.106036
H	 2.5738778906	-1.690245915	 0.8295466224	 0.104085
H	 1.7711338733	-2.6976117821	-1.3610740602	 0.121513
H	 0.0550198604	-2.6612437699	-0.7518769214	 0.14676
H	 1.7581669382	-0.1615250739	-1.507225842	 0.09365
129.2347	213.0932	217.8723	264.8469	314.5222	382.4443	490.3639	522.8925	597.3987	689.3708	714.7023	754.1578	815.1017	838.0029	881.6072	884.2342	938.428	950.8626	990.6798	1000.2826	1025.2081	1055.3371	1059.9348	1092.3079	1119.8813	1170.0227	1191.7002	1215.992	1237.4411	1268.6229	1310.0757	1372.1688	1416.2212	1482.2828	1489.2427	1499.2089	1929.9673	3038.7275	3107.7812	3121.6722	3131.4034	3144.9834	3186.0166	3203.2827	3216.1524
CC12OC(=O)C1C1CC21	C[C@]12OC(=O)[C@H]1[C@H]1C[C@@H]21	
InChI=1S/C7H8O2/c1-7-4-2-3(4)5(7)6(8)9-7/h3-5H,2H2,1H3	InChI=1S/C7H8O2/c1-7-4-2-3(4)5(7)6(8)9-7/h3-5H,2H2,1H3/t3-,4+,5+,7+/m0/s1
