17
gdb 19938	3.66994	2.34627	1.90183	2.7279	66.2	-0.229	0.0678	0.2967	753.55	0.145598	-363.822652	-363.816647	-363.815703	-363.852567	24.5	
C	 0.3674340364	 1.5631585726	 0.2759386811	-0.074732
O	 1.4718415291	 1.427238236	-0.6476579058	-0.289642
C	 1.2949179187	-0.002056854	-0.7118298283	 0.133001
C	 2.2673432938	-0.8195281559	 0.1247108814	-0.062594
N	 2.4922325277	-0.2370626072	 1.4645903385	-0.322214
C	 1.5521792633	-1.3588898895	 1.3190389819	-0.029844
C	 0.0972837216	-0.9073454771	 1.3053385092	-0.239287
C	-0.0152215671	 0.0721458367	 0.1196484104	-0.075617
H	 0.7086623142	 1.8484655435	 1.2764713577	 0.112424
H	-0.3716872501	 2.2869019889	-0.0879605629	 0.09123
H	 1.2496649052	-0.359302873	-1.7466259401	 0.069449
H	 3.0773644214	-1.3621437376	-0.3515978761	 0.082842
H	 3.3808110127	-0.5708680263	 1.8284067798	 0.232584
H	 1.811572394	-2.3225038567	 1.7478784338	 0.084195
H	-0.5544672901	-1.7736457682	 1.1467701161	 0.098996
H	-0.192724432	-0.4478939783	 2.2565317078	 0.109527
H	-0.9356669289	-0.070310794	-0.4481441043	 0.079681
159.142	236.561	342.0452	380.0073	526.1295	633.1857	681.9717	752.1968	812.6112	853.9519	857.3302	875.4593	896.8751	933.696	947.0066	988.8113	1013.6991	1022.6894	1057.6649	1096.1875	1106.2946	1121.2422	1160.5051	1170.0602	1204.9747	1233.2464	1247.3372	1261.1958	1318.2179	1322.4851	1353.996	1357.4639	1386.7124	1423.1674	1479.4366	1512.2625	3021.9757	3039.6266	3044.0233	3076.3367	3079.2264	3101.6448	3149.8453	3165.4493	3506.1744
C1OC2C3NC3CC12	C1O[C@H]2[C@H]3N[C@H]3C[C@@H]12	
InChI=1S/C6H9NO/c1-3-2-8-6(3)5-4(1)7-5/h3-7H,1-2H2	InChI=1S/C6H9NO/c1-3-2-8-6(3)5-4(1)7-5/h3-7H,1-2H2/t3-,4-,5-,6+/m0/s1
