19
gdb 83647	2.38594	1.72104	1.26769	2.1095	74.41	-0.24	0.0544	0.2944	1051.9919	0.158752	-422.965309	-422.957198	-422.956254	-422.998131	31.033	
C	-0.6481032909	 1.3737019485	-0.0633722108	-0.423567
C	-0.0607416849	-0.0302964016	-0.0582307868	-0.079551
C	 1.1419415204	-0.4023856709	-0.9832436331	-0.106846
C	 2.3351645076	 0.5728719626	-1.0265041555	-0.085091
O	 2.9711260976	-0.0541131087	 0.1147817689	-0.286291
C	 1.8997503559	-1.0100885972	 0.2355992138	-0.000337
C	 0.7716249365	-0.5124462588	 1.1462487738	 0.432659
C	 0.8894492087	 0.0104971926	 2.5056622508	-0.255882
O	 0.2304336082	-1.2376298667	 2.234856612	-0.276718
H	 0.1127121235	 2.135155684	 0.1345487067	 0.121595
H	-1.1131116808	 1.60365452	-1.0279652243	 0.119478
H	-1.420998778	 1.4704626438	 0.7065712244	 0.126489
H	-0.8586611589	-0.7629314508	-0.2280470194	 0.094682
H	 0.9160974998	-0.9476742514	-1.8978461024	 0.08262
H	 2.9602207785	 0.4809976633	-1.9226259278	 0.106504
H	 2.1199963156	 1.6339639231	-0.8529915422	 0.103076
H	 2.2434031295	-2.0413749999	 0.3475768692	 0.086874
H	 1.8418857266	-0.0632325808	 3.0277002167	 0.125362
H	 0.2358916949	 0.8174374586	 2.8337530862	 0.114944
63.0157	185.6832	203.2404	208.3522	240.9012	285.078	402.977	470.922	535.7149	552.9814	715.9024	773.9113	829.2416	849.9527	879.1394	921.1688	944.8939	949.2146	1000.9493	1011.1836	1015.2361	1097.4624	1113.8035	1121.562	1131.8897	1151.357	1159.7815	1168.6648	1188.9019	1219.0518	1253.2845	1289.5517	1317.9444	1344.058	1372.1732	1408.0864	1434.0739	1494.4342	1496.3981	1523.2377	1532.8366	3019.8987	3031.97	3039.0037	3061.6905	3085.395	3085.9666	3097.5303	3103.3106	3126.1103	3174.8688
CC1C2COC2C11CO1	C[C@H]1[C@H]2CO[C@H]2[C@]21CO2	
InChI=1S/C7H10O2/c1-4-5-2-8-6(5)7(4)3-9-7/h4-6H,2-3H2,1H3	InChI=1S/C7H10O2/c1-4-5-2-8-6(5)7(4)3-9-7/h4-6H,2-3H2,1H3/t4-,5+,6+,7+/m0/s1
