23
gdb 85923	2.46709	1.29812	1.10453	2.7403	85.08	-0.2336	-0.0123	0.2213	1252.9746	0.204433	-388.341041	-388.331238	-388.330293	-388.375254	37.775	
C	-0.3223437059	 1.5819898118	-0.0286143668	-0.401394
C	 0.0033459589	 0.0843067859	-0.0745095717	-0.081247
C	 0.7230819802	-0.4256238059	-1.3457818098	-0.260305
C	 2.1806101937	-0.8063535768	-0.9343351407	 0.287536
C	 2.7481891903	-1.9131754494	-1.8282345529	-0.435472
C	 3.0998019534	 0.4282227817	-0.9943618429	-0.422633
C	 2.0106837153	-1.2515750321	 0.5343364021	-0.341843
C	 0.9209713969	-0.3386277428	 1.0874811277	 0.389956
O	 0.795221716	 0.015843754	 2.2320510083	-0.323384
H	 0.5621097675	 2.1907762576	-0.2422162992	 0.120613
H	-1.089689815	 1.8369758119	-0.7655714128	 0.113626
H	-0.6863951203	 1.8537286414	 0.9656588914	 0.13896
H	-0.936355776	-0.4640728568	 0.0728380418	 0.102572
H	 0.2160508545	-1.3144892841	-1.7360897577	 0.094128
H	 0.719155045	 0.3172602423	-2.1497146998	 0.098249
H	 2.7994586208	-1.5854859108	-2.8729927786	 0.112648
H	 3.7613574377	-2.1942205348	-1.5201220638	 0.113318
H	 2.1243146322	-2.8128319476	-1.790856561	 0.10885
H	 2.7448289308	 1.2376641931	-0.3474681059	 0.123019
H	 4.1147535231	 0.1737232012	-0.669855677	 0.115429
H	 3.1614278196	 0.8206690721	-2.015017655	 0.113299
H	 1.6302885527	-2.2824249542	 0.5778391678	 0.115812
H	 2.9188340685	-1.2093602976	 1.1403534065	 0.118263
64.5907	104.5231	215.3139	223.9164	238.3383	254.8508	294.289	330.1403	337.0919	372.9088	405.2604	469.3693	551.7149	562.8872	649.3059	745.2476	769.7584	872.9253	895.628	909.9734	923.8828	950.8678	966.6743	1006.1204	1031.427	1067.4473	1082.6696	1128.8188	1172.5753	1193.3183	1210.1109	1237.8934	1275.105	1283.592	1308.5085	1330.3565	1343.7002	1402.0384	1405.1813	1424.1076	1453.3025	1482.6363	1485.3302	1495.5808	1497.9326	1500.5619	1506.0895	1507.6092	1839.6793	3013.7552	3018.0021	3021.1926	3027.2824	3039.1449	3042.6728	3080.8998	3088.5916	3092.3585	3095.0049	3098.0936	3105.9114	3107.7432	3124.0693
CC1CC(C)(C)CC1=O	C[C@H]1CC(C)(C)CC1=O	
InChI=1S/C8H14O/c1-6-4-8(2,3)5-7(6)9/h6H,4-5H2,1-3H3	InChI=1S/C8H14O/c1-6-4-8(2,3)5-7(6)9/h6H,4-5H2,1-3H3/t6-/m0/s1
