18
gdb 71710	2.29778	2.1213	1.79641	2.2435	74.33	-0.2178	0.0659	0.2837	889.4267	0.147569	-401.866008	-401.858635	-401.857691	-401.897179	30.209	
C	-0.0200106214	 1.5070569931	 0.0293858903	-0.498585
C	-0.0673305403	 0.0126636307	-0.0982159957	 0.324512
C	 0.4880599351	-0.7941254504	-1.2903404041	-0.291847
C	-0.3676687067	-1.9454705291	-0.7105817497	-0.159993
C	 0.1264558525	-2.1425890598	 0.7345703789	-0.038893
C	-0.9568147413	-1.3548884663	 1.3726742843	-0.165957
N	 0.3885527877	-0.7296018117	 1.1648782814	-0.171173
C	-1.3484038287	-0.8738272506	-0.0614875655	 0.350931
O	-2.5494938046	-0.4486028424	-0.5739414715	-0.475846
H	 1.0162528787	 1.8505197213	 0.1196167941	 0.125019
H	-0.4711377497	 1.9870853348	-0.8441226675	 0.122379
H	-0.5620936697	 1.8381777043	 0.9208983415	 0.125733
H	 0.0839975585	-0.424810372	-2.237539282	 0.107664
H	 1.5703863343	-0.9294665546	-1.3649395097	 0.101508
H	-0.700496498	-2.8076412802	-1.2869407569	 0.068135
H	 0.7579235175	-2.9225501086	 1.1424403998	 0.093845
H	-1.4418019969	-1.4100094851	 2.3405978076	 0.094893
H	-3.1458680872	-1.2024851636	-0.6484333352	 0.287676
182.7136	198.9731	241.104	280.3725	324.9509	384.4717	446.6027	557.7783	595.958	634.8073	731.1118	769.7348	790.5222	821.0126	837.618	874.122	899.4445	934.2408	950.745	976.5343	998.8411	1007.088	1037.2995	1066.5193	1118.7004	1155.6888	1177.9678	1193.2253	1195.8317	1220.8668	1272.581	1277.7403	1318.0973	1336.1415	1407.4224	1414.6646	1478.7157	1484.1443	1488.7829	3033.9497	3054.8261	3101.6243	3110.9725	3115.3944	3127.4683	3171.8146	3187.5635	3788.5532
CC12CC3C4C(N14)C23O	C[C@@]12C[C@H]3[C@@H]4[C@@H](N14)[C@@]23O	
InChI=1S/C7H9NO/c1-6-2-3-4-5(8(4)6)7(3,6)9/h3-5,9H,2H2,1H3	InChI=1S/C7H9NO/c1-6-2-3-4-5(8(4)6)7(3,6)9/h3-5,9H,2H2,1H3/t3-,4+,5+,6-,7+,8?/m0/s1
