16
gdb 82651	2.02998	1.81887	1.61899	2.6972	63.57	-0.2188	0.0402	0.259	941.0447	0.123383	-474.923431	-474.915326	-474.914382	-474.955612	31.617	
N	-0.1046482415	 1.4626600624	 0.0378539068	-0.640438
C	 0.0442458011	 0.0616734076	 0.0126264618	 0.156739
C	 0.1389677619	-1.0701923614	-0.9895960685	-0.029745
O	 1.2674511664	-1.698298675	-0.3762932141	-0.283135
C	 0.9210952659	-0.9847492602	 0.8367626843	-0.021998
C	-0.3967194425	-1.6694949773	 1.3040021459	 0.059953
O	-0.9707606784	-1.1241443728	 2.4772275959	-0.451345
C	-0.9952499311	-1.0781892291	 0.0337852371	 0.297383
O	-2.3168994824	-1.0460427754	-0.3395689431	-0.463541
H	 0.524499973	 1.9402663545	-0.5995125807	 0.24404
H	-1.0548024401	 1.7353622677	-0.1899132318	 0.242778
H	-0.0031202704	-1.1336099207	-2.061299757	 0.117369
H	 1.7506961204	-0.8047687669	 1.5184896011	 0.092045
H	-0.3765202221	-2.7548734823	 1.4370498911	 0.095091
H	-0.8559413478	-0.1651692869	 2.4445553149	 0.289758
H	-2.8307151823	-0.8738152541	 0.4602993464	 0.295045
132.8388	170.8869	188.0689	249.2924	340.1471	364.5229	392.0933	396.7998	451.5965	519.0716	580.7835	653.7054	692.6934	754.1829	773.8337	842.3539	861.0186	917.2819	954.9407	982.7816	990.8043	1041.8332	1075.8843	1114.7772	1159.5642	1213.7209	1226.983	1245.193	1262.0099	1276.1879	1341.8905	1399.2908	1423.0855	1495.7206	1653.009	3080.1861	3141.0552	3202.033	3495.9353	3575.4861	3761.4383	3764.0673
NC12C3OC1C(O)C23O	N[C@@]12[C@H]3O[C@@H]1[C@@H](O)[C@@]23O	
InChI=1S/C5H7NO3/c6-4-2-1(7)5(4,8)3(4)9-2/h1-3,7-8H,6H2	InChI=1S/C5H7NO3/c6-4-2-1(7)5(4,8)3(4)9-2/h1-3,7-8H,6H2/t1-,2-,3-,4-,5+/m1/s1
