19
gdb 54793	3.4184	1.32563	1.18203	3.3891	75.84	-0.2304	0.05	0.2804	1102.5711	0.162314	-419.225735	-419.218032	-419.217088	-419.257997	30.703	
N	-0.0966984402	 1.3394344189	-0.209617646	-0.552302
C	-0.0078066225	-0.0427176017	-0.093910473	 0.393715
O	 0.9536838828	-0.6745757821	-0.4915230109	-0.392441
N	-1.0992522205	-0.6204189465	 0.5400812126	-0.12806
C	-2.5312733399	-0.3444906226	 0.1410785387	-0.016963
C	-2.3988463873	-1.4923806687	-0.8940554569	-0.223559
C	-1.4587530545	-2.0416025491	 0.2157269444	 0.01061
C	-2.4341781691	-2.3459362598	 1.3693457293	-0.213698
C	-3.2709972527	-1.0203873446	 1.3127307911	-0.206162
H	 0.7935306221	 1.7693306647	-0.4119518328	 0.257922
H	-0.6408027118	 1.8233461076	 0.4886195248	 0.251046
H	-2.7962371335	 0.6751628222	-0.1344420277	 0.079561
H	-3.293593481	-2.063984796	-1.1589886116	 0.091494
H	-1.8471404063	-1.1891698764	-1.7848645378	 0.125028
H	-0.6322786399	-2.716041976	 0.01019345	 0.104487
H	-3.0319434763	-3.2404647843	 1.1782563078	 0.101305
H	-1.9121111842	-2.4703269235	 2.319747931	 0.111251
H	-3.1942330465	-0.4373313849	 2.2326744087	 0.105387
H	-4.3285144088	-1.1843665472	 1.0905761183	 0.101378
86.1541	130.5046	190.1105	307.0761	356.1146	438.0232	475.9557	514.9047	550.4569	634.7161	682.1971	708.4398	787.7146	834.2029	841.8488	845.9444	898.1179	908.9307	948.6815	977.8334	1011.4278	1037.0548	1040.4416	1086.99	1099.6669	1127.6711	1180.3254	1184.8453	1227.524	1236.1263	1254.7361	1260.3736	1307.0574	1313.2819	1328.1435	1401.7856	1484.8549	1490.3675	1511.6309	1619.0052	1784.9662	3055.0834	3065.7381	3075.7284	3111.4317	3128.5911	3132.839	3138.2067	3171.933	3573.451	3688.3949
NC(=O)N1C2CC1CC2	NC(=O)N1[C@H]2C[C@@H]1CC2	
InChI=1S/C6H10N2O/c7-6(9)8-4-1-2-5(8)3-4/h4-5H,1-3H2,(H2,7,9)	InChI=1S/C6H10N2O/c7-6(9)8-4-1-2-5(8)3-4/h4-5H,1-3H2,(H2,7,9)/t4-,5+
