21
gdb 39680	3.91715	1.0177	0.98107	1.2153	78.	-0.2499	0.0847	0.3346	1302.3714	0.184265	-424.213521	-424.20509	-424.204146	-424.247601	31.262	
C	-0.068007825	 1.5063996658	-0.0983144132	-0.212835
C	 1.4838719017	 1.4942061764	-0.0769197719	-0.234416
C	 1.4235593788	 0.0898447079	 0.5901330354	 0.024469
C	-0.0486872126	-0.0331093314	 0.1008738289	-0.227974
C	 2.4408422798	-0.9567380729	 0.1715596322	 0.088437
C	 2.1857567576	-2.3723110012	 0.7136889821	-0.12714
O	 2.6961317678	-3.211026603	-0.3121170445	-0.237389
C	 2.3804673428	-2.5452182547	-1.5072162077	 0.02805
O	 2.4295413973	-1.1531790053	-1.2497672287	-0.274893
H	-0.4826379954	 2.02279252	 0.7724450082	 0.099405
H	-0.5577209719	 1.8922381828	-0.995184976	 0.097865
H	 1.9000314784	 1.422852148	-1.0849532322	 0.120072
H	 1.996762538	 2.2927141001	 0.464803251	 0.092102
H	 1.4611559	 0.1861998444	 1.6822045344	 0.06922
H	-0.7821530455	-0.4699450227	 0.7829231016	 0.091371
H	-0.091866453	-0.5594947805	-0.8562237677	 0.111763
H	 3.4480172257	-0.6208149088	 0.4615320075	 0.076837
H	 2.7211218899	-2.5929522424	 1.6391294531	 0.118505
H	 1.1091044002	-2.5467657569	 0.8679753891	 0.098481
H	 3.1234202391	-2.8170697491	-2.2653350135	 0.113763
H	 1.3687436265	-2.8177671765	-1.8575930082	 0.084306
53.2457	82.742	118.6847	177.0309	242.2309	263.0704	370.6746	549.8307	604.1399	685.8369	740.9883	776.3713	793.4322	875.9881	907.3814	936.5357	948.5213	972.6856	981.2245	987.6662	1015.6924	1040.2004	1112.7646	1130.2654	1140.3265	1145.4869	1179.0995	1203.4935	1208.0007	1248.1297	1256.4278	1260.0667	1262.6375	1275.9336	1283.5293	1322.9012	1355.0248	1380.2808	1394.162	1438.5949	1475.3819	1486.5863	1507.3026	1510.3759	1548.647	2938.337	2978.4251	2990.8589	3033.0667	3055.107	3059.2743	3059.78	3065.052	3100.489	3112.0876	3115.2365	3125.7147
C1CC(C1)C1COCO1	C1CC(C1)[C@H]1COCO1	
InChI=1S/C7H12O2/c1-2-6(3-1)7-4-8-5-9-7/h6-7H,1-5H2	InChI=1S/C7H12O2/c1-2-6(3-1)7-4-8-5-9-7/h6-7H,1-5H2/t7-/m1/s1
