16
gdb 29840	3.88031	1.10182	0.86748	8.0761	80.12	-0.2373	-0.0108	0.2265	1287.1868	0.125066	-396.995539	-396.986747	-396.985802	-397.029799	30.792	
C	 0.0044631395	 1.4585324547	 0.0283591073	-0.344313
N	 0.0116623137	 0.0065023794	 0.0005191068	-0.021753
C	-0.003551766	-0.7825842414	-1.1182447341	-0.196144
C	 0.0109273457	-2.0785033034	-0.656844823	 0.160595
N	 0.0346418719	-2.0964308461	 0.7235328739	-0.345486
C	 0.0345416054	-0.8356759782	 1.0901104213	 0.333019
C	 0.0562707935	-0.3427321757	 2.4969075392	-0.507124
C	 0.0034140237	-3.2594957648	-1.444373511	 0.210155
N	-0.0031731512	-4.2078250674	-2.1088092817	-0.347364
H	 0.9004129689	 1.8420013233	 0.5251242028	 0.153615
H	-0.0151058143	 1.8342832193	-0.9950144181	 0.155367
H	-0.8779261393	 1.8325832111	 0.5556389402	 0.15362
H	-0.0225761532	-0.3721692735	-2.1139042216	 0.1532
H	 0.9413426602	 0.2706230779	 2.7019157266	 0.13741
H	-0.8261528054	 0.2637096874	 2.731689557	 0.137354
H	 0.0709015668	-1.2053931328	 3.1632308145	 0.16785
44.3063	122.1512	139.7689	149.1382	211.3146	265.1495	281.4568	411.6917	517.0554	525.1974	597.5637	646.5206	659.7875	716.8182	778.0706	788.277	1007.3754	1023.903	1063.1953	1075.1234	1151.8314	1182.2055	1225.2839	1304.3862	1378.3502	1407.7372	1435.5735	1470.6042	1478.0889	1488.2683	1490.404	1511.1416	1565.9782	1579.5512	2349.7771	3031.3963	3047.577	3080.9474	3110.216	3150.8508	3155.3542	3278.2415
CN1C=C(N=C1C)C#N	Cn1cc(nc1C)C#N	
InChI=1S/C6H7N3/c1-5-8-6(3-7)4-9(5)2/h4H,1-2H3	InChI=1S/C6H7N3/c1-5-8-6(3-7)4-9(5)2/h4H,1-2H3
