17
gdb 47171	2.45948	1.88567	1.13611	4.2204	74.8	-0.2463	-0.0061	0.2402	1046.0303	0.137355	-421.84996	-421.842552	-421.841608	-421.88209	28.479	
O	-0.000103288	-0.0372674079	-0.2403467631	-0.333465
C	-0.0390153134	 1.1312523553	 0.0337741114	 0.420944
O	-1.2179514986	 1.7014656384	 0.3936068611	-0.236634
C	-1.3181380013	 3.0864008848	 0.8027303166	-0.105618
C	-0.0984457908	 3.5909968458	 1.5350302747	-0.282608
C	 1.0602415496	 3.1225641368	 1.1029090309	 0.359181
C	 2.5074359325	 2.9503565368	 1.5089008054	-0.329924
C	 2.502591999	 1.6116823579	 0.6869685617	-0.231352
C	 1.1547234244	 2.0593928369	 0.0377104158	-0.230427
H	-1.5370775381	 3.6886560658	-0.0900832758	 0.125529
H	-2.2050809252	 3.1167395298	 1.440550585	 0.133277
H	-0.2264029534	 4.2478299568	 2.3885667127	 0.105841
H	 3.1672428064	 3.7022680481	 1.0626853389	 0.120854
H	 2.724586022	 2.8910493419	 2.5782012047	 0.121812
H	 3.3406444547	 1.4474729303	 0.0090209707	 0.113344
H	 2.3714125551	 0.7296775639	 1.3156932721	 0.132054
H	 1.2909682351	 2.4590590485	-0.9752179127	 0.11719
82.6567	146.6015	224.7867	237.027	341.5618	463.2058	489.6428	522.0386	609.0164	701.0386	725.5884	742.4126	810.3997	840.529	903.6504	930.1985	972.0918	988.3202	1022.4293	1054.9036	1084.914	1094.2386	1139.4425	1175.2827	1194.6125	1206.9338	1236.4224	1256.0171	1267.0181	1294.439	1332.4661	1410.2353	1470.3672	1492.2978	1501.9783	1776.8919	1844.7301	3008.0634	3029.971	3047.7296	3086.9692	3095.3205	3102.2975	3146.4458	3188.5523
O=C1OCC=C2CCC12	O=C1OCC=C2CC[C@@H]12	
InChI=1S/C7H8O2/c8-7-6-2-1-5(6)3-4-9-7/h3,6H,1-2,4H2	InChI=1S/C7H8O2/c8-7-6-2-1-5(6)3-4-9-7/h3,6H,1-2,4H2/t6-/m1/s1
