16
gdb 11422	4.26773	1.45048	1.14043	2.9162	61.49	-0.2722	0.0042	0.2764	1034.0803	0.130212	-420.924611	-420.916892	-420.915947	-420.957205	27.551	
C	-0.0874527732	 1.5185463198	 0.0434284698	-0.391774
C	-0.0434154444	-0.010429292	-0.0066977637	-0.201766
C	 0.6569156334	-0.538650881	-1.2403336824	 0.232103
O	 0.7112746675	-1.9497258067	-1.2139765568	-0.255748
C	 0.6167836742	-2.3920739887	-2.5521184398	-0.230126
C	-0.0717076303	-1.2447270564	-3.2827204007	 0.402807
O	-0.5386761864	-1.2189018163	-4.3808977906	-0.322834
O	-0.066083582	-0.1859782365	-2.4312815289	-0.226872
H	 0.9207581525	 1.9467800277	 0.0429340315	 0.12014
H	-0.6253839279	 1.9227606019	-0.8182133197	 0.142598
H	-0.5926670638	 1.8590452903	 0.951002983	 0.123484
H	 0.4906550799	-0.4135448964	 0.8610686295	 0.118583
H	-1.0528202893	-0.434963227	 0.008695244	 0.117154
H	 1.6703588367	-0.114824405	-1.3422082916	 0.087078
H	 1.6020552152	-2.5800460252	-3.00614681	 0.133005
H	 0.0249642879	-3.3085131982	-2.6036491534	 0.152168
86.642	107.1513	148.3967	203.735	241.1589	392.4959	457.0652	514.938	559.8663	669.7552	709.7497	795.5632	866.5444	914.8246	963.1784	1003.3229	1034.3788	1080.0189	1093.7291	1144.8583	1167.0733	1208.6936	1228.8931	1283.6868	1330.905	1342.9778	1389.6632	1414.1389	1434.3616	1476.6391	1494.7911	1500.0225	1509.5749	1902.8648	2964.8187	2996.2169	3041.7265	3046.9638	3087.4627	3109.2948	3111.9638	3126.2129
CCC1OCC(=O)O1	CC[C@H]1OCC(=O)O1	
InChI=1S/C5H8O3/c1-2-5-7-3-4(6)8-5/h5H,2-3H2,1H3	InChI=1S/C5H8O3/c1-2-5-7-3-4(6)8-5/h5H,2-3H2,1H3/t5-/m0/s1
