17
gdb 74111	2.45606	1.64881	1.08211	5.4221	78.42	-0.2132	-0.022	0.1912	1096.6221	0.138464	-418.02487	-418.017148	-418.016204	-418.056929	30.488	
N	 0.0860311686	 1.3454715688	-0.0425402495	-0.55857
C	-0.0007586295	-0.0239766443	-0.0060525585	 0.392944
C	-1.1877825922	-0.6800405269	-0.0098692995	-0.313555
C	-1.3111144669	-2.1238733299	 0.08231289	 0.437831
O	-2.3730809866	-2.7016000682	 0.2580158938	-0.378
C	-0.0371571411	-2.9153750955	-0.0577381892	-0.160436
N	 0.7314843098	-2.6763172767	-1.3087859581	-0.33317
C	 1.2769309216	-2.2195235641	-0.0298446596	-0.040591
C	 1.3297800217	-0.7201451819	 0.1628809099	-0.315678
H	 0.954971985	 1.7556616435	-0.3441435059	 0.255791
H	-0.7363995406	 1.8578299549	-0.3208424399	 0.261109
H	-2.1203526596	-0.1253468849	-0.0609284301	 0.080861
H	-0.1110127554	-3.9343845816	 0.3096749657	 0.097613
H	 1.1810082461	-3.5444479828	-1.589593108	 0.236978
H	 2.1218088573	-2.7624672123	 0.3874786425	 0.090283
H	 2.0558046999	-0.2903235131	-0.5414457835	 0.114435
H	 1.7051652317	-0.491249375	 1.1692367099	 0.132153
100.2121	161.8201	258.5703	336.2645	353.5062	375.2806	443.2727	476.0049	482.3242	526.0838	556.4464	643.0146	740.6364	801.5173	847.4646	870.481	886.0496	914.5944	933.4327	1002.37	1005.3275	1079.3017	1109.6925	1157.6848	1184.4036	1236.4635	1262.6558	1266.6566	1299.8699	1365.9776	1393.1835	1425.1571	1449.8313	1462.5538	1644.9997	1679.6001	1748.1092	3009.1379	3043.7727	3131.0692	3163.2189	3168.8917	3499.3762	3585.6913	3696.7067
NC1=CC(=O)C2NC2C1	NC1=CC(=O)[C@H]2N[C@H]2C1	
InChI=1S/C6H8N2O/c7-3-1-4-6(8-4)5(9)2-3/h2,4,6,8H,1,7H2	InChI=1S/C6H8N2O/c7-3-1-4-6(8-4)5(9)2-3/h2,4,6,8H,1,7H2/t4-,6-/m0/s1
