20
gdb 94220	3.24258	1.04803	0.97353	5.4323	79.08	-0.2594	0.0287	0.2881	1301.5362	0.169237	-403.15691	-403.147182	-403.146238	-403.191909	35.377	
C	-0.4243835301	 1.4056082708	-0.0716080982	-0.418286
C	 0.0744551669	-0.0312757951	-0.0603214022	-0.086793
C	 1.4122272503	-0.3513043751	-0.7599552071	-0.082826
O	 1.9317594826	-0.998977961	 0.4191572872	-0.316829
C	 0.7755300061	-0.6212090227	 1.2062996623	 0.409341
C	 1.1607792955	 0.3451846836	 2.3173386333	-0.444516
C	 0.0678642927	-1.8803889268	 1.7512724607	-0.381668
C	 0.8411411807	-2.5935981433	 2.7655881066	 0.274396
N	 1.4507545527	-3.1488983845	 3.5750175801	-0.31275
H	 0.3561614601	 2.1131106803	 0.2225102793	 0.125575
H	-0.75702062	 1.6814437781	-1.0780049021	 0.12508
H	-1.2760923189	 1.5414352571	 0.6031918105	 0.122337
H	-0.7262120809	-0.695363145	-0.4010300004	 0.080203
H	 1.3736651929	-1.0295412719	-1.6195808656	 0.107373
H	 2.004280733	 0.5328383989	-1.0320257974	 0.10235
H	 1.688142618	 1.2107642846	 1.9111285193	 0.125578
H	 0.2781504423	 0.698957959	 2.8609547951	 0.117259
H	 1.8257831786	-0.1526673114	 3.0284226248	 0.154689
H	-0.8999762007	-1.5972138403	 2.1828566014	 0.148154
H	-0.1304669219	-2.5646052554	 0.9202468724	 0.151334
49.6207	73.3788	129.1659	208.7336	212.6244	248.1915	280.9201	334.0095	373.962	396.2708	414.8656	447.6011	550.4465	686.9385	765.848	862.1825	895.6878	913.5624	918.8743	939.0154	972.6974	1020.5501	1038.7975	1109.511	1130.4695	1149.1571	1172.7248	1200.4428	1217.7849	1271.895	1293.9835	1328.6421	1347.8306	1389.4622	1414.342	1418.723	1450.0535	1480.4137	1489.8362	1499.137	1506.3951	1529.0691	2362.2092	3009.4852	3034.655	3039.9615	3043.7671	3048.0703	3066.1586	3090.0617	3098.088	3110.5884	3116.3899	3133.0056
CC1COC1(C)CC#N	C[C@H]1CO[C@]1(C)CC#N	
InChI=1S/C7H11NO/c1-6-5-9-7(6,2)3-4-8/h6H,3,5H2,1-2H3	InChI=1S/C7H11NO/c1-6-5-9-7(6,2)3-4-8/h6H,3,5H2,1-2H3/t6-,7+/m0/s1
