17
gdb 88298	3.2286	1.08133	1.01199	1.9042	70.84	-0.2472	-0.0389	0.2083	1224.6471	0.134607	-458.937222	-458.928842	-458.927898	-458.97079	31.261	
O	-0.4425174804	 1.6330122964	 0.6283080952	-0.416803
C	-0.4214298282	 0.5691605045	-0.2458396493	 0.15105
C	-0.0870106203	-0.8082096162	 0.1767135786	-0.326667
C	-1.543880316	-0.5116931833	-0.2112265921	-0.211034
C	-2.5177139021	-0.3734854456	 0.8785941271	 0.398312
O	-2.2187271954	 0.0515599074	 1.9892107655	-0.386414
C	-3.9547982498	-0.7152735967	 0.6026013267	-0.010748
C	-4.6548963825	-0.1371741203	-0.5635060642	-0.175987
O	-4.2582670213	-1.500832261	-0.5508406331	-0.21733
H	-0.8593245254	 1.3212583669	 1.4503652082	 0.306023
H	-0.131749684	 0.8914229449	-1.2407033764	 0.11948
H	 0.4654287185	-1.4563642748	-0.4942208182	 0.126653
H	 0.0838467798	-0.9715269899	 1.2359622011	 0.139575
H	-1.9130239639	-0.9134935955	-1.1456525635	 0.115259
H	-4.5320442896	-0.9382117382	 1.4977859561	 0.121229
H	-5.7251471949	 0.0467734744	-0.4899639995	 0.135028
H	-4.1098912345	 0.506479157	-1.2516724822	 0.132375
60.2427	99.5033	176.2766	207.2464	260.2386	286.0609	426.3296	458.2241	509.0975	572.2702	590.1509	709.4226	758.81	790.7356	836.4955	878.6948	892.7232	928.744	956.4308	1022.7357	1062.2269	1084.9726	1087.9746	1117.049	1142.608	1152.383	1165.0153	1207.3513	1236.1488	1262.8694	1361.1421	1385.234	1417.0054	1451.0421	1486.4167	1521.862	1728.8384	3092.1898	3132.7514	3142.2109	3171.7041	3185.0785	3202.3033	3229.643	3639.3995
OC1CC1C(=O)C1CO1	O[C@H]1C[C@H]1C(=O)[C@H]1CO1	
InChI=1S/C6H8O3/c7-4-1-3(4)6(8)5-2-9-5/h3-5,7H,1-2H2	InChI=1S/C6H8O3/c7-4-1-3(4)6(8)5-2-9-5/h3-5,7H,1-2H2/t3-,4+,5-/m1/s1
