16
gdb 74991	2.95059	1.63801	1.19905	0.9977	71.53	-0.2194	-0.0546	0.1648	1015.3598	0.126671	-434.074179	-434.066574	-434.06563	-434.106129	29.366	
N	 0.0123525924	 1.326800902	 0.1803752979	-0.567746
C	-0.0737443312	-0.0205727562	 0.0887251591	 0.288643
N	-1.1465636284	-0.729759272	 0.0977368335	-0.286004
C	-0.7893680691	-2.145786206	 0.0323878173	-0.005315
C	-0.9325500532	-2.7912353663	-1.3733754481	-0.168096
N	 0.5110563697	-2.5491395558	-1.613406131	-0.31668
C	 0.7460322524	-2.2465331243	-0.1710342953	-0.152305
C	 1.2149268247	-0.8088204786	-0.0157005723	 0.389986
O	 2.3243861323	-0.3370156844	-0.0238013918	-0.329843
H	 0.9088457682	 1.7362269147	-0.0285491981	 0.271313
H	-0.8136821675	 1.884983382	 0.0459212594	 0.265401
H	-1.2504190812	-2.6934074109	 0.8561721333	 0.086586
H	-1.2115503616	-3.851154805	-1.3171697252	 0.095516
H	-1.5983104427	-2.276152339	-2.0725231445	 0.112485
H	 1.0408681161	-3.3335571104	-1.9717376472	 0.229167
H	 1.3245566891	-2.9735755699	 0.4038416029	 0.086891
107.8229	165.1267	224.2008	269.0881	324.2787	389.7148	440.2856	487.9409	547.813	619.3171	627.4639	680.5421	735.7824	823.7768	848.497	886.7698	940.4716	972.2975	1011.2786	1037.365	1071.2936	1114.4736	1141.4668	1171.8477	1212.7659	1236.2925	1264.6353	1317.0329	1327.9401	1375.3093	1415.6064	1509.1876	1603.719	1714.3855	1837.6037	3015.9599	3077.9481	3082.1831	3092.6197	3559.5849	3596.857	3723.5218
NC1=NC2CNC2C1=O	NC1=N[C@H]2CN[C@H]2C1=O	
InChI=1S/C5H7N3O/c6-5-4(9)3-2(8-5)1-7-3/h2-3,7H,1H2,(H2,6,8)	InChI=1S/C5H7N3O/c6-5-4(9)3-2(8-5)1-7-3/h2-3,7H,1H2,(H2,6,8)/t2-,3+/m0/s1
