18
gdb 77199	3.60097	1.06331	0.91646	0.6396	85.71	-0.2256	0.0194	0.245	1289.8226	0.144882	-364.714459	-364.705046	-364.704102	-364.748545	35.093	
C	 0.1235401086	 1.5025725757	-0.0507265999	-0.333977
N	-0.007591796	 0.0767195206	 0.1614888315	-0.054504
C	-1.2717607457	-0.5176058455	 0.6749545867	-0.170442
C	-0.4004948295	-1.5613055379	 1.438991217	-0.256277
C	 0.7773825008	-0.5652659432	 1.2410653123	-0.155955
C	 2.0880502446	-1.0700031769	 0.8689004815	 0.336306
C	 3.1749472519	-1.4907274668	 0.5737289983	-0.434735
C	-2.07187567	 0.3352987906	 1.5507211831	 0.35409
C	-2.7170484862	 1.0591272617	 2.2631224855	-0.491133
H	 1.1516548572	 1.7151446282	-0.3603506429	 0.130209
H	-0.5445810917	 1.8173186591	-0.8587921535	 0.124227
H	-0.1080053657	 2.1055301386	 0.8430039774	 0.107371
H	-1.9055379284	-0.9156684204	-0.1254690302	 0.105371
H	-0.6874285653	-1.7851529479	 2.4645951727	 0.122936
H	-0.2640684934	-2.4779290063	 0.8660030211	 0.125479
H	 0.8750510142	 0.0847571783	 2.1273529859	 0.093295
H	 4.1327782359	-1.8636995562	 0.3069594168	 0.196655
H	-3.2974670512	 1.6901166784	 2.8901044267	 0.201084
66.3635	115.9203	151.1455	183.6837	221.3129	237.8579	309.9284	328.6888	451.5876	479.8697	535.6239	612.7115	623.5532	628.1244	655.9021	658.4748	678.3498	776.7966	825.5477	941.0994	974.0432	991.8839	1052.4977	1082.1006	1135.9753	1153.0879	1196.8522	1222.5601	1249.5631	1267.0787	1282.8268	1344.9631	1373.4968	1446.8911	1480.1905	1488.3115	1502.003	2222.4347	2235.7062	2951.3907	2969.8962	3035.9143	3067.6572	3103.1049	3106.9348	3171.6798	3501.048	3503.1754
CN1C(CC1C#C)C#C	CN1[C@@H](C[C@H]1C#C)C#C	
InChI=1S/C8H9N/c1-4-7-6-8(5-2)9(7)3/h1-2,7-8H,6H2,3H3	InChI=1S/C8H9N/c1-4-7-6-8(5-2)9(7)3/h1-2,7-8H,6H2,3H3/t7-,8-/m1/s1
