16
gdb 43729	4.8062	1.06124	1.02024	2.5567	69.84	-0.2418	-0.0264	0.2154	1154.3466	0.12426	-437.905079	-437.897511	-437.896567	-437.938247	28.315	
O	-0.1416012788	 0.323088691	-0.9871931263	-0.286786
C	-0.0645391934	 1.2683533147	-0.2592387172	 0.407403
C	-1.0982359276	 2.1664574	 0.4353346798	-0.396177
C	 0.0628320972	 3.1447615429	 0.8110565215	 0.294561
C	 1.1038775388	 2.1027915505	 0.2848857279	-0.396177
C	 0.0568065342	 4.5401432451	 0.1323288911	-0.175223
O	 0.1590872404	 5.473341186	 1.2333618711	-0.216948
C	 0.2127448909	 4.7053676044	 2.3446216416	 0.112214
N	 0.1693427226	 3.4422747427	 2.2440180071	-0.296083
H	-1.9058741139	 2.5551063355	-0.1917904069	 0.127375
H	-1.5304544474	 1.6916016609	 1.3215590468	 0.149735
H	 1.6245152167	 1.6003973539	 1.1059998612	 0.149733
H	 1.8397795243	 2.4468237157	-0.4477156638	 0.127376
H	 0.9093244452	 4.7049772848	-0.5325441023	 0.125783
H	-0.8673009711	 4.7563838311	-0.4110686957	 0.12578
H	 0.2922290518	 5.2619205207	 3.271627084	 0.147436
43.9482	59.5741	274.7712	320.7806	358.4806	396.9247	440.814	474.129	583.6375	665.721	711.1119	789.5637	829.5113	892.6392	907.1129	933.5231	965.5125	970.5265	1017.6532	1063.3847	1106.9202	1117.2664	1147.4998	1152.5717	1199.4161	1231.2782	1233.8347	1272.2447	1324.6704	1379.6713	1416.3877	1434.9913	1514.345	1697.605	1900.1745	3050.9426	3054.5308	3059.8319	3098.728	3115.0492	3116.2824	3220.2012
O=C1CC2(C1)COC=N2	O=C1CC2(C1)COC=N2	
InChI=1S/C6H7NO2/c8-5-1-6(2-5)3-9-4-7-6/h4H,1-3H2	InChI=1S/C6H7NO2/c8-5-1-6(2-5)3-9-4-7-6/h4H,1-3H2
