23
gdb 115826	4.13469	0.92195	0.83457	1.0933	86.51	-0.2462	0.0818	0.328	1479.5074	0.206279	-388.283572	-388.274332	-388.273388	-388.318489	35.206	
C	-0.0726028694	 1.3990220075	-0.1076364064	-0.238071
O	-0.0399548421	 0.0346958821	 0.2388594948	-0.244506
C	-1.2762785873	-0.6305307772	 0.0886674724	 0.156978
C	-1.7072010599	-0.9138815076	-1.364757558	-0.240894
C	-2.7388399497	-2.0404991012	-1.1992415783	-0.291402
C	-2.1808284874	-2.8962329808	-0.0528075893	 0.389399
C	-3.0512452477	-3.9138254699	 0.6356980465	-0.320325
C	-1.9157068985	-4.3681113443	-0.2494328893	-0.307895
C	-1.1807803037	-2.0282063771	 0.7244699611	-0.320473
H	 0.9111136164	 1.8155199905	 0.1238299974	 0.124508
H	-0.2759186656	 1.5566114958	-1.1772229412	 0.105532
H	-0.8334620017	 1.9479506851	 0.4703045603	 0.100891
H	-2.0683400216	-0.0429720467	 0.5855905416	 0.059284
H	-2.1068914048	-0.0391124754	-1.884793712	 0.091032
H	-0.8296690506	-1.2678848172	-1.9195642188	 0.105301
H	-3.7099027636	-1.6142676492	-0.9152068391	 0.097595
H	-2.8976987636	-2.6129454991	-2.117896095	 0.096331
H	-2.9440700065	-4.0385177692	 1.7088415727	 0.107505
H	-4.0662756801	-4.0464696501	 0.2730389193	 0.105429
H	-2.1610081542	-4.8109801631	-1.2099409341	 0.10609
H	-1.0384597882	-4.7958367307	 0.2261903237	 0.108006
H	-0.1533130034	-2.3833597227	 0.5877946526	 0.111429
H	-1.3777066764	-2.0036479195	 1.7999964992	 0.098256
24.0282	99.6078	147.9899	190.1164	241.4993	304.3115	313.0539	396.6327	405.0197	445.8771	524.5706	562.5021	730.2297	782.0401	830.6552	849.9488	882.9017	924.0479	930.0478	964.1669	981.1509	1000.6463	1020.3407	1053.7414	1077.319	1080.461	1094.2258	1158.7922	1178.4289	1183.7025	1190.3367	1193.49	1218.3057	1253.2748	1274.2371	1284.9153	1309.6398	1319.7175	1356.0962	1374.1968	1401.3924	1467.3383	1481.2472	1486.9334	1489.6182	1493.3265	1504.3045	1506.5752	1512.406	2943.5375	2973.1678	3019.1292	3020.9003	3037.7981	3043.6897	3078.8511	3088.182	3096.8667	3109.3335	3115.79	3120.3407	3193.5097	3209.3116
COC1CCC2(CC2)C1	CO[C@H]1CCC2(CC2)C1	
InChI=1S/C8H14O/c1-9-7-2-3-8(6-7)4-5-8/h7H,2-6H2,1H3	InChI=1S/C8H14O/c1-9-7-2-3-8(6-7)4-5-8/h7H,2-6H2,1H3/t7-/m0/s1
