16
gdb 105998	2.76058	1.69656	1.2753	0.7115	68.04	-0.208	0.0588	0.2668	999.4929	0.122252	-437.729484	-437.721655	-437.720711	-437.761844	29.808	
C	 0.070549691	 1.2534239569	-0.2305625449	-0.256943
O	-0.0690330223	-0.0739007171	 0.2680996804	-0.274313
C	-1.3266940712	-0.5659555202	 0.1763352656	 0.369546
C	-2.664935027	-0.2712790451	 0.9325094959	-0.140737
C	-3.0644975456	-1.7004081366	 0.8071603191	-0.136444
N	-3.4678933111	-0.7170066255	-0.2593384641	-0.164069
C	-2.1765644522	-1.0145496431	-1.014106007	-0.211432
C	-1.7385558329	-2.0232085306	 0.0441866153	 0.283958
O	-0.91160776	-3.1047713861	 0.0033817945	-0.443191
H	 1.1244772382	 1.517621686	-0.1276106826	 0.134525
H	-0.2237996269	 1.310667474	-1.2859787954	 0.120088
H	-0.5377635745	 1.9623077971	 0.3460330192	 0.120918
H	-3.0040031492	 0.5092262371	 1.6050145569	 0.099353
H	-3.7864596448	-2.2946659356	 1.3573611157	 0.098819
H	-2.0537540916	-0.9619545404	-2.0886530682	 0.104144
H	-1.3021812899	-3.7731382509	-0.5722707403	 0.295778
98.0611	140.4065	166.9382	254.5712	300.1994	345.3963	411.555	478.1171	591.2293	656.8191	714.9908	758.1789	773.9672	811.559	861.9698	891.497	903.3501	956.1349	973.4673	1000.2176	1010.6354	1042.1244	1088.6102	1171.6629	1177.8838	1193.9912	1200.6413	1226.4507	1286.0642	1295.8675	1385.1609	1469.711	1487.3382	1502.5078	1523.7493	3007.5038	3068.1304	3134.4691	3159.298	3173.2531	3192.6972	3775.9697
COC12C3C4N3C1C24O	CO[C@@]12[C@@H]3[C@H]4N3[C@@H]1[C@@]24O	
InChI=1S/C6H7NO2/c1-9-6-3-2-5(6,8)4(6)7(2)3/h2-4,8H,1H3	InChI=1S/C6H7NO2/c1-9-6-3-2-5(6,8)4(6)7(2)3/h2-4,8H,1H3/t2-,3+,4-,5-,6+,7?/m1/s1
