18
gdb 81827	2.14166	1.7214	1.16125	5.0354	76.25	-0.2679	0.0239	0.2919	1108.392	0.146106	-401.937808	-401.928904	-401.92796	-401.971244	32.948	
C	-0.0711815806	 1.6059627502	-0.1538965941	-0.411356
C	-0.0005864076	 0.0905877668	-0.0612634843	-0.022361
C	 0.7062265113	-0.6590702673	-1.2017566676	-0.053206
O	 2.0754342063	-0.2286612018	-1.2054400244	-0.272377
C	 1.7001545567	-1.2693059777	-0.3027190665	 0.414409
C	 2.4652238401	-2.5505833778	-0.3128025778	-0.50545
C	 1.0565357395	-0.5718698358	 0.9276872432	-0.258428
C	 1.9167334758	 0.2970520727	 1.7125716994	 0.298031
N	 2.5984581572	 0.9896818391	 2.3390591036	-0.336997
H	 0.9080884067	 2.0210954183	-0.403050395	 0.151747
H	-0.7833300054	 1.9069994706	-0.9293186551	 0.11826
H	-0.3978347721	 2.0451056408	 0.7933975462	 0.130834
H	-0.9852238921	-0.3411174703	 0.140708538	 0.089889
H	 0.296348969	-1.0101167798	-2.1421714257	 0.111396
H	 2.651542698	-2.8696615591	-1.3413186454	 0.142743
H	 3.4315238329	-2.4245614447	 0.1874312244	 0.14903
H	 1.9135330455	-3.3394048273	 0.2080263168	 0.129053
H	 0.5687598291	-1.2918291666	 1.5903064945	 0.124783
102.8976	120.7766	171.1349	191.3646	214.4499	229.4585	333.0093	359.4849	394.9648	532.4278	539.7819	587.4311	700.1637	730.1788	797.0543	860.0693	872.4294	898.3131	980.1626	998.7179	1042.648	1062.9313	1085.1615	1113.8185	1123.8019	1174.7973	1199.3863	1256.3302	1275.6739	1325.2959	1358.0648	1406.7189	1411.8141	1468.9769	1483.7076	1489.5727	1497.1085	1500.2772	2353.8634	3039.3828	3042.0355	3066.1243	3083.5116	3104.4329	3107.7055	3126.9434	3133.125	3185.5832
CC1C2OC2(C)C1C#N	C[C@H]1[C@H]2O[C@@]2(C)[C@H]1C#N	
InChI=1S/C7H9NO/c1-4-5(3-8)7(2)6(4)9-7/h4-6H,1-2H3	InChI=1S/C7H9NO/c1-4-5(3-8)7(2)6(4)9-7/h4-6H,1-2H3/t4-,5+,6-,7+/m1/s1
