19
gdb 125375	2.87011	1.32139	0.98024	1.9225	82.96	-0.2185	0.0275	0.246	1237.816	0.161011	-382.088441	-382.079849	-382.078905	-382.122588	31.974	
C	-0.2355728503	 1.5555352905	-0.0204787182	-0.51498
C	-0.025486947	 0.0721621886	-0.0066894492	 0.127691
C	-0.0053266585	-0.7862787035	-1.0869681051	-0.108439
N	 0.215274208	-2.028882571	-0.5959021839	-0.190924
N	 0.3428924759	-2.0478066355	 0.7444572246	-0.315163
C	 0.1982346599	-0.7748060404	 1.1148183694	 0.291415
C	 0.2742208158	-0.37394835	 2.5358604914	-0.097002
C	-0.2564163682	-1.2910103369	 3.6206599526	-0.256189
C	 1.2231007049	-1.0827170417	 3.4827751898	-0.256191
H	 0.6215436838	 2.0943190463	 0.4000706848	 0.128601
H	-0.3821098316	 1.9210510325	-1.0408410718	 0.119494
H	-1.1164550587	 1.8496842013	 0.56203454	 0.128601
H	-0.1293953595	-0.604770133	-2.1435215553	 0.128132
H	 0.2895269901	-2.8919182618	-1.1054537797	 0.270456
H	 0.1397793366	 0.689717686	 2.70033449	 0.076528
H	-0.769730542	-0.8389964418	 4.4624939432	 0.105258
H	-0.662775229	-2.239115864	 3.2878899858	 0.128728
H	 1.8061501249	-1.8915431767	 3.057778354	 0.128726
H	 1.736795415	-0.486135149	 4.2288972874	 0.105259
33.9898	101.7947	161.1036	173.554	260.3993	265.5169	418.8476	465.0025	468.6189	601.9727	658.8337	708.5859	744.3989	781.1547	800.0444	822.974	917.0335	917.1798	952.4547	1004.6227	1060.9377	1067.299	1077.1218	1084.3754	1099.2371	1130.9727	1132.1353	1206.4525	1221.6448	1242.904	1316.4756	1351.4847	1415.3619	1422.954	1458.8765	1484.657	1486.2129	1492.8488	1499.9305	1527.4208	1610.1982	3024.9253	3072.871	3105.0004	3133.2231	3136.3265	3164.4007	3219.7067	3234.7304	3253.5038	3683.1737
CC1=CNN=C1C1CC1	Cc1c[nH]nc1C1CC1	
InChI=1S/C7H10N2/c1-5-4-8-9-7(5)6-2-3-6/h4,6H,2-3H2,1H3,(H,8,9)	InChI=1S/C7H10N2/c1-5-4-8-9-7(5)6-2-3-6/h4,6H,2-3H2,1H3,(H,8,9)
