23
gdb 101449	2.19205	1.35212	1.05039	2.0165	82.02	-0.2346	0.0772	0.3118	1293.4509	0.203746	-425.400735	-425.390292	-425.389348	-425.436356	37.714	
C	 0.2148926673	 1.2336177484	 0.448307025	-0.23577
O	-0.038142892	-0.1000608485	 0.0723980982	-0.244278
C	 0.6075852253	-0.5189383564	-1.1228770543	 0.117995
C	 2.1122135012	-0.7284030984	-0.9162238775	-0.408459
C	-0.0418377769	-1.8224477226	-1.5853076509	 0.112878
O	 0.027157905	-2.8488394591	-0.5701621803	-0.292727
C	-1.4068750373	-2.833450699	-0.3962527481	-0.076901
C	-1.5910691986	-1.9579237683	-1.6534819286	-0.026794
C	-2.5188754369	-0.7530466376	-1.6161441157	-0.425513
H	 1.2608156287	 1.4001055076	 0.7416405319	 0.111254
H	-0.0329892695	 1.939340283	-0.3605601723	 0.101928
H	-0.4218329122	 1.4500069857	 1.309952466	 0.126586
H	 0.4441635031	 0.2380108026	-1.9114320409	 0.059901
H	 2.5901284173	-1.0239097956	-1.855610788	 0.113542
H	 2.6045024126	 0.1835248109	-0.5689111145	 0.111914
H	 2.2694201934	-1.5196742596	-0.1788454447	 0.146571
H	 0.4782301152	-2.1383627493	-2.5006681385	 0.068747
H	-1.8326656286	-3.843022275	-0.4215111138	 0.094334
H	-1.6911033234	-2.3372773785	 0.5400903228	 0.104502
H	-1.8483400078	-2.5864552381	-2.5119017783	 0.08001
H	-2.3210973368	-0.1260095149	-0.7459844818	 0.138884
H	-2.4044952706	-0.1386745896	-2.5164817063	 0.110303
H	-3.5639170384	-1.0806964479	-1.5799307696	 0.111094
66.4216	81.3363	111.7556	162.347	205.3822	213.3106	218.4783	247.1194	283.5414	345.0136	374.5371	412.3426	528.9642	634.8746	733.3746	780.5848	872.3505	892.1086	931.0836	945.1124	985.845	1012.3758	1035.5461	1075.041	1114.5314	1124.8044	1142.3992	1160.6831	1179.1157	1182.3698	1192.9116	1224.3524	1270.5537	1285.7654	1332.102	1349.784	1382.6952	1389.6935	1393.097	1401.2862	1410.0569	1477.1642	1483.2901	1492.9369	1496.8433	1504.4168	1508.7234	1512.3744	1519.7136	2941.3531	2976.0823	3000.4166	3017.9324	3030.4892	3032.7911	3046.7495	3049.108	3070.8288	3086.537	3109.3245	3113.088	3133.6409	3145.4537
COC(C)C1OCC1C	CO[C@@H](C)[C@H]1OC[C@H]1C	
InChI=1S/C7H14O2/c1-5-4-9-7(5)6(2)8-3/h5-7H,4H2,1-3H3	InChI=1S/C7H14O2/c1-5-4-9-7(5)6(2)8-3/h5-7H,4H2,1-3H3/t5-,6+,7+/m1/s1
