17
gdb 85752	3.07934	1.33708	1.12482	5.9157	72.82	-0.2626	0.0193	0.2819	1110.9516	0.136821	-417.995521	-417.987542	-417.986597	-418.028247	30.063	
C	 0.3690516117	 1.5045527997	-0.2197601946	-0.403598
C	 0.1101388325	 0.0226616783	-0.0064724377	 0.139511
O	 0.6615067574	-0.6937889018	-1.1264442363	-0.278874
C	 1.1339353044	-1.9677932488	-0.7152548178	-0.009196
C	 2.3095133464	-2.3304414568	-1.5205601717	 0.288826
N	 3.2254038398	-2.6703409651	-2.1359623131	-0.321308
C	 1.4212845629	-1.847773195	 0.776900656	-0.077936
N	 2.2366801016	-0.6634684963	 1.0808867528	-0.317191
C	 0.7699623015	-0.5961252206	 1.2140769112	-0.069418
H	 1.444171103	 1.6964588714	-0.2078031115	 0.148581
H	-0.037923306	 1.8251218432	-1.1820672474	 0.132595
H	-0.1108203503	 2.091836673	 0.5696176957	 0.112854
H	-0.972816379	-0.1727599207	 0.0532150266	 0.077188
H	 0.3677420782	-2.745250384	-0.8685794939	 0.117879
H	 1.4822759682	-2.7436522297	 1.3836127016	 0.113226
H	 2.6653738313	-0.772904344	 1.9962413035	 0.243139
H	 0.3087228463	-0.491717883	 2.1901685965	 0.103721
77.8522	135.3228	188.2322	233.4669	275.884	342.585	388.2107	489.9616	548.4014	559.0397	651.1491	772.4017	813.514	833.5729	876.0166	894.1759	924.3623	947.9352	1030.3259	1041.2865	1047.5624	1088.0788	1111.1124	1135.5839	1158.5289	1171.5076	1249.8273	1302.2525	1343.3754	1348.4946	1363.8786	1384.626	1407.7579	1434.6439	1485.6236	1499.0422	2368.5856	2972.8527	2976.8008	3047.7623	3119.6907	3140.9825	3173.2813	3188.316	3513.4554
CC1OC(C#N)C2NC12	C[C@H]1O[C@@H](C#N)[C@H]2N[C@@H]12	
InChI=1S/C6H8N2O/c1-3-5-6(8-5)4(2-7)9-3/h3-6,8H,1H3	InChI=1S/C6H8N2O/c1-3-5-6(8-5)4(2-7)9-3/h3-6,8H,1H3/t3-,4+,5+,6-/m1/s1
