19
gdb 80739	3.78673	1.06126	1.04507	3.1898	79.67	-0.2364	0.0299	0.2663	1215.8401	0.160659	-382.066286	-382.057745	-382.0568	-382.100005	31.556	
C	 0.1177465069	 1.8167635332	 0.0648075024	-0.325217
N	-0.0000166377	 0.3713408143	 0.0114653196	-0.084151
C	 1.0613065626	-0.5292804465	-0.4041105225	-0.030931
C	 2.5168301379	-0.084486573	-0.4030843607	-0.255495
C	 2.8206350795	 0.4176386495	 1.0464909132	-0.159505
C	 1.6538461798	-0.1010070594	 1.9494470445	-0.255493
C	 0.5449246528	-0.5391592866	 1.0035618624	-0.03093
C	 4.1322871858	-0.0126009285	 1.5246147007	 0.268237
N	 5.1678656184	-0.36164162	 1.9021192247	-0.324534
H	 1.0778769266	 2.2180212326	 0.4197535802	 0.100332
H	-0.0589784827	 2.2179429681	-0.9381102154	 0.131892
H	-0.6672960397	 2.2062949578	 0.7205466602	 0.131891
H	 0.7741365315	-1.2750339573	-1.1416759032	 0.096626
H	 3.1475274404	-0.9430476297	-0.6508217509	 0.132809
H	 2.7317140733	 0.6943826724	-1.1412159152	 0.120719
H	 2.8295629175	 1.5108496049	 1.0574420119	 0.133595
H	 1.978645827	-0.9654303717	 2.5355849439	 0.13281
H	 1.3369339422	 0.6676761343	 2.661025098	 0.120719
H	-0.1476727322	-1.2926669043	 1.3711942261	 0.096627
67.2718	80.8519	148.2013	203.381	226.2433	262.9406	421.6212	425.0571	534.6234	550.3386	659.0678	699.581	719.1263	811.6567	817.3801	882.8346	910.0168	994.57	1014.3552	1032.3332	1053.5547	1060.8103	1113.1144	1124.3812	1152.1264	1172.8657	1193.5668	1238.4283	1289.9911	1302.428	1307.8674	1333.7274	1335.1375	1361.6737	1417.8074	1461.0374	1482.2819	1492.8571	1496.56	1496.5693	2354.776	2998.3106	3055.2965	3056.9449	3066.5019	3070.379	3096.68	3102.1903	3103.3422	3129.5858	3139.0273
CN1C2CC(CC12)C#N	CN1[C@H]2C[C@@H](C[C@@H]12)C#N	
InChI=1S/C7H10N2/c1-9-6-2-5(4-8)3-7(6)9/h5-7H,2-3H2,1H3	InChI=1S/C7H10N2/c1-9-6-2-5(4-8)3-7(6)9/h5-7H,2-3H2,1H3/t5-,6-,7+,9?
