19
gdb 61990	3.80805	0.76004	0.66731	2.0245	78.93	-0.2681	0.0135	0.2816	1681.2002	0.155255	-423.036717	-423.025974	-423.02503	-423.07417	37.082	
C	 0.0011602934	 1.5021368874	 0.13647868	-0.387136
C	-0.0458462787	-0.0322800448	-0.0000753791	-0.170812
C	-1.48600744	-0.5618868744	-0.0427772002	-0.057897
O	-2.1012014479	-0.226611102	 1.212149637	-0.244211
C	-3.405912825	-0.5603765	 1.3373394033	 0.427076
C	-3.9302417954	-0.1558198013	 2.6939508731	-0.479632
O	-4.0384759997	-1.1050517659	 0.4698429372	-0.344127
C	 0.6692059698	-0.4882911014	-1.1903157812	 0.309317
C	 1.2378602613	-0.8546703945	-2.1837426421	-0.461684
H	 1.0343084356	 1.8507133001	 0.2052144809	 0.127783
H	-0.4611604417	 1.9786542291	-0.7334047472	 0.126756
H	-0.5374219493	 1.8133280247	 1.0342288768	 0.128504
H	 0.4341821563	-0.4732665739	 0.8840167313	 0.11644
H	-2.0503352392	-0.1083536823	-0.8631536143	 0.130707
H	-1.5052176659	-1.6463258357	-0.1804581143	 0.130494
H	-3.8229645872	 0.9239521296	 2.8312101425	 0.149642
H	-4.9788718024	-0.4385527918	 2.7758835296	 0.149913
H	-3.3489009178	-0.6428333062	 3.4819461822	 0.150133
H	 1.7495864338	-1.1826069068	-3.0545517854	 0.198733
32.1665	54.7995	71.125	99.3785	178.5378	193.7736	216.2199	251.8216	290.3689	363.1784	442.7968	526.9488	533.6413	605.8536	633.2983	648.4314	650.8881	818.7433	919.1181	925.296	943.7495	989.0372	1064.5216	1067.4916	1093.2476	1124.1526	1167.1923	1259.343	1264.3988	1308.329	1342.8184	1386.8617	1398.7229	1416.4678	1469.6157	1476.1932	1494.5322	1498.9692	1509.5368	1828.8869	2238.3494	3018.6605	3048.8601	3057.2578	3059.8345	3109.6407	3121.9794	3122.5495	3136.914	3170.0706	3504.6174
CC(COC(C)=O)C#C	C[C@@H](COC(=O)C)C#C	
InChI=1S/C7H10O2/c1-4-6(2)5-9-7(3)8/h1,6H,5H2,2-3H3	InChI=1S/C7H10O2/c1-4-6(2)5-9-7(3)8/h1,6H,5H2,2-3H3/t6-/m1/s1
