19
gdb 103397	2.25916	1.57508	1.38517	2.183	75.95	-0.2223	-0.0141	0.2081	1065.6715	0.157193	-423.007368	-422.998236	-422.997292	-423.041038	33.876	
C	-0.1749572113	 1.2986814487	 0.0797664287	-0.25942
O	 0.1557643552	-0.0815008063	 0.0816399118	-0.289189
C	 0.7249177107	-0.5708611925	-1.1152975451	 0.281441
C	 2.0869190713	 0.0454437347	-1.430037387	-0.461497
C	 0.7062116192	-2.1065791574	-1.1653404442	-0.0834
C	-0.6853445624	-2.600693779	-1.0393171286	-0.291018
C	-0.2348328477	-2.0952403972	-2.4073417806	-0.178593
C	-0.1936189116	-0.6038957273	-2.392956932	 0.37912
O	-0.545733145	 0.2537600176	-3.1570532636	-0.340472
H	 0.7175777613	 1.9386924398	 0.101211366	 0.110504
H	-0.7805526338	 1.5712337123	-0.7927899082	 0.136854
H	-0.7522016174	 1.4789601079	 0.9896948203	 0.126404
H	 2.7432031492	-0.0435598338	-0.5585051176	 0.125928
H	 2.5564537907	-0.4654510822	-2.2756516591	 0.125441
H	 1.9898762603	 1.1012940206	-1.6944054217	 0.137427
H	 1.5789061128	-2.7321313866	-1.0304035293	 0.104211
H	-0.8125767842	-3.677349112	-0.9965437119	 0.125702
H	-1.4042678577	-2.0347209074	-0.4584059533	 0.138667
H	-0.2492829097	-2.73635234	-3.2796982047	 0.111891
94.1871	115.8216	151.0538	199.6501	216.1855	234.2173	291.4007	314.6457	399.6714	487.4228	518.824	626.3699	672.92	743.0213	808.4391	843.3184	895.3278	920.4936	938.9878	949.351	1001.3193	1047.4264	1077.4631	1095.9679	1105.3756	1151.7215	1163.8147	1182.2631	1187.0164	1230.4161	1239.6721	1302.3907	1338.2371	1396.3099	1475.7139	1483.7746	1485.9716	1492.2933	1502.2761	1514.3872	1865.6993	3004.4028	3041.6326	3068.2779	3115.0067	3119.0084	3124.9835	3138.1165	3196.6557	3204.7562	3226.0097
COC1(C)C2CC2C1=O	CO[C@@]1(C)[C@H]2C[C@H]2C1=O	
InChI=1S/C7H10O2/c1-7(9-2)5-3-4(5)6(7)8/h4-5H,3H2,1-2H3	InChI=1S/C7H10O2/c1-7(9-2)5-3-4(5)6(7)8/h4-5H,3H2,1-2H3/t4-,5+,7+/m1/s1
