17
gdb 27264	3.21015	1.52631	1.06186	0.9436	76.28	-0.182	0.03	0.2119	1099.2925	0.139459	-418.022595	-418.015077	-418.014132	-418.054339	29.549	
N	-0.0790021793	 1.4275950067	 0.022250034	-0.599038
C	-0.1312905945	 0.0348605705	-0.0201671635	 0.137982
C	-1.1524546354	-0.8466509848	-0.1658833692	 0.246545
N	-2.5342076729	-0.8716290445	-0.3814891245	-0.420713
C	-2.9763828904	-2.2379672113	-0.0087066659	-0.166448
C	-1.7394166593	-3.1496078144	-0.2813186122	-0.352733
C	-0.6146142102	-2.1673044248	-0.1155928543	 0.240583
C	 0.7213691445	-2.0278991206	 0.0545372989	-0.182101
O	 1.0486336752	-0.7060327995	 0.1140372414	-0.189009
H	 0.4043619867	 1.7694694409	 0.8472141196	 0.240155
H	 0.3786534587	 1.8292888723	-0.7912493552	 0.241798
H	-3.060264687	-0.1236464992	 0.0499398828	 0.236607
H	-3.2437396485	-2.29677241	 1.057422454	 0.097994
H	-3.8519155178	-2.5321971267	-0.5940264865	 0.106419
H	-1.7115402806	-4.0044177615	 0.3990209284	 0.11409
H	-1.773869953	-3.5440859387	-1.3043085821	 0.120463
H	 1.5420410838	-2.7183268444	 0.1653514143	 0.127407
154.3101	172.4256	214.0565	272.058	318.5463	323.0769	522.1407	550.0886	590.0058	613.5788	666.5378	699.5095	743.1313	768.0262	793.4019	835.8037	875.8903	936.2878	1002.053	1047.6969	1078.7263	1082.153	1147.2321	1188.7006	1215.7771	1225.2374	1262.1121	1295.226	1316.304	1327.2146	1430.2687	1441.4388	1486.5546	1519.8748	1632.0135	1659.5496	1753.819	2982.9127	3029.9285	3081.4549	3094.2824	3261.9218	3481.2804	3544.9073	3578.0281
NC1=C2NCCC2=CO1	Nc1c2NCCc2co1	
InChI=1S/C6H8N2O/c7-6-5-4(3-9-6)1-2-8-5/h3,8H,1-2,7H2	InChI=1S/C6H8N2O/c7-6-5-4(3-9-6)1-2-8-5/h3,8H,1-2,7H2
