19
gdb 56648	2.33453	1.27718	1.03592	3.7653	76.01	-0.2687	0.0261	0.2948	1239.2297	0.158068	-419.198242	-419.188248	-419.187303	-419.233116	36.599	
C	-0.0478689737	 1.5180805078	-0.0485697338	-0.410213
C	 0.0624620747	 0.0108904495	-0.0020603738	-0.031165
C	 1.4092778613	-0.6798703453	-0.1362435485	-0.369894
C	 0.6746236703	-0.6844878705	 1.1795408738	 0.430509
O	 1.1525482309	 0.1268662696	 2.2155274401	-0.470484
C	 0.0597732411	-1.9883509084	 1.6882624397	-0.183688
N	 0.9853224856	-2.6313852137	 2.6262879563	-0.520194
C	-1.2788885002	-1.7438545139	 2.275371702	 0.268029
N	-2.3151498083	-1.5791071124	 2.7610722496	-0.32921
H	 0.7825454112	 1.9864685989	 0.4840841268	 0.129743
H	-0.0429025953	 1.8749123046	-1.0836229294	 0.116479
H	-0.9770555448	 1.8555934081	 0.4213943107	 0.131493
H	-0.7752956323	-0.5153666665	-0.454353633	 0.094871
H	 1.4844345856	-1.6006859024	-0.7048316477	 0.11462
H	 2.2841387336	-0.0397998532	-0.1929950507	 0.117243
H	 2.0226678882	-0.2079872529	 2.4604297275	 0.292373
H	-0.0791021933	-2.6586730451	 0.8335813776	 0.128762
H	 0.9899682584	-2.0971978982	 3.4909211599	 0.244638
H	 0.6486068371	-3.558822266	 2.866465913	 0.246087
55.7986	101.2713	179.388	186.7563	197.7847	208.7216	255.2301	289.0811	363.2783	381.5132	435.4442	456.1392	541.0341	569.6694	613.7449	786.5002	791.5239	867.7354	892.8536	913.158	947.0334	996.7116	1023.1078	1040.4885	1088.2715	1096.9297	1140.3635	1181.8508	1191.1537	1247.3941	1267.6263	1322.6413	1358.8141	1389.0695	1411.6355	1428.0418	1486.7039	1493.669	1506.061	1654.8767	2345.4241	3040.7434	3062.9476	3101.7589	3121.9644	3127.7565	3138.7886	3215.9141	3497.9869	3575.1743	3796.5001
CC1CC1(O)C(N)C#N	C[C@H]1C[C@]1(O)[C@@H](N)C#N	
InChI=1S/C6H10N2O/c1-4-2-6(4,9)5(8)3-7/h4-5,9H,2,8H2,1H3	InChI=1S/C6H10N2O/c1-4-2-6(4,9)5(8)3-7/h4-5,9H,2,8H2,1H3/t4-,5-,6+/m0/s1
