16
gdb 24407	3.707	1.63453	1.15591	1.1462	78.93	-0.1716	0.0053	0.1769	1008.735	0.127634	-400.787483	-400.780637	-400.779693	-400.818508	27.576	
C	 0.0404392945	 1.486216322	 0.1140382	-0.144756
O	 1.3669139774	 2.0685483016	 0.0271859644	-0.28154
C	 2.1389535595	 1.41278087	-0.8579482383	 0.387032
C	 2.0248997156	 0.0912287669	-1.2426890631	 0.161633
C	 3.1392563335	-0.1671769435	-2.104279389	-0.295759
C	 3.8718142922	 0.9878831659	-2.1960241108	-0.078639
N	 3.248682701	 1.9583326688	-1.4150609077	-0.360331
C	 0.9765717425	-0.6820197179	-0.6123484174	-0.146008
C	 0.0465891694	-0.0247823653	 0.0988659131	-0.134352
H	-0.3805847875	 1.8835205663	 1.0402134949	 0.120911
H	-0.5530135387	 1.8861261485	-0.727365456	 0.105878
H	 3.3687411362	-1.098482178	-2.5996021263	 0.095249
H	 4.7614224219	 1.2256207263	-2.7543844587	 0.11962
H	 3.5486919779	 2.9097615171	-1.292180574	 0.265781
H	 0.986445598	-1.7660737543	-0.6674549137	 0.092623
H	-0.7373968236	-0.5360686544	 0.6453872327	 0.092658
142.0062	173.006	304.1462	399.3617	444.1362	452.6077	525.9641	595.9087	619.917	634.5768	675.3676	720.5426	757.0886	814.3998	829.0175	920.8127	923.9478	966.1544	1009.1401	1027.6046	1074.9131	1104.5313	1172.9816	1217.9553	1255.9362	1270.7336	1327.1489	1361.6977	1405.5275	1434.6055	1487.8195	1521.7105	1557.1337	1603.9859	1674.0383	2937.333	3098.9931	3174.5509	3199.6993	3244.7387	3280.6076	3682.5501
C1OC2=C(C=CN2)C=C1	C1Oc2c(cc[nH]2)C=C1	
InChI=1S/C7H7NO/c1-2-6-3-4-8-7(6)9-5-1/h1-4,8H,5H2	InChI=1S/C7H7NO/c1-2-6-3-4-8-7(6)9-5-1/h1-4,8H,5H2
