16
gdb 19517	3.73331	1.92013	1.77953	1.4476	63.4	-0.2114	0.0093	0.2208	808.4981	0.132342	-379.894299	-379.887307	-379.886363	-379.925562	26.231	
C	-0.508179965	 1.03661497	 0.1466849558	-0.315326
N	 0.5897846176	 0.1018776567	-0.073651292	-0.290672
C	 1.0418837361	-0.5907316956	 1.0866828497	-0.026522
C	 0.1874798674	-1.5317241366	 1.9188140864	 0.025957
O	-0.9857225019	-2.033523519	 1.2871435533	-0.200758
C	-0.5459620188	-2.7378263907	 0.2155893202	 0.090366
N	 0.7075408547	-2.8522484233	 0.023096653	-0.259893
C	 1.3376050564	-2.078036895	 1.0707357315	-0.074163
H	-0.1717713527	 1.8522199846	 0.797089456	 0.119418
H	-0.798488916	 1.4795192651	-0.810381421	 0.118549
H	-1.3984655805	 0.5819778363	 0.6079331024	 0.111507
H	 0.389193339	-0.5439767399	-0.8264658284	 0.233248
H	 1.7448269489	-0.0280753337	 1.7005235637	 0.102419
H	 0.1055246049	-1.4961704313	 2.9975786833	 0.112166
H	-1.3281429012	-3.166562879	-0.3991398462	 0.147122
H	 2.2826332613	-2.4526632485	 1.4444317322	 0.106581
100.994	162.2183	190.9117	257.3003	325.8289	466.	628.2585	653.3379	709.2249	735.0331	762.122	809.622	879.4011	941.1357	947.2225	993.0944	1009.0203	1054.8135	1086.9753	1096.5857	1114.7647	1141.7899	1153.002	1189.0012	1280.6383	1288.2082	1328.4145	1353.42	1380.7136	1458.6347	1484.4958	1498.491	1523.3052	1660.3919	2985.1311	3059.0772	3104.7583	3107.4758	3183.3944	3196.6218	3229.8696	3560.8875
CNC1C2OC=NC12	CN[C@H]1[C@H]2OC=N[C@@H]12	
InChI=1S/C5H8N2O/c1-6-3-4-5(3)8-2-7-4/h2-6H,1H3	InChI=1S/C5H8N2O/c1-6-3-4-5(3)8-2-7-4/h2-6H,1H3/t3-,4+,5-/m1/s1
