14
gdb 131599	4.66683	1.04198	0.85637	5.0886	64.11	-0.2731	-0.0619	0.2111	1240.6858	0.100954	-470.020423	-470.01236	-470.011416	-470.053874	28.08	
O	 0.0088844278	 1.4341084098	 0.0099148942	-0.387963
C	 0.0005343315	 0.0362195661	 0.0035573895	-0.198837
C	-1.4499775039	-0.4264134103	 0.0131359005	 0.436242
O	-2.4023977936	 0.2995740027	 0.0236668266	-0.279205
N	-1.616009169	-1.8382581734	 0.0083885313	-0.125147
C	-0.6899980839	-2.8652762791	-0.0035084816	 0.039757
N	-1.2798640236	-4.0223100439	-0.0037325543	-0.216486
N	-2.6547331258	-3.7871872821	 0.0081687504	-0.220736
C	-2.8291983174	-2.5003091465	 0.0150582774	 0.057744
H	 0.9240771156	 1.7299431178	 0.0011498053	 0.302308
H	 0.4864599832	-0.3933297914	-0.8888996926	 0.129363
H	 0.5007895281	-0.4014190583	 0.8841110024	 0.129333
H	 0.3765199084	-2.7082297148	-0.0112906842	 0.154451
H	-3.7673531375	-1.9708444665	 0.0247814753	 0.179175
73.1697	100.8336	159.6287	168.0812	213.2877	301.024	379.4805	507.9551	555.4235	645.7833	681.8045	757.489	828.0856	884.9819	946.5368	966.3619	998.2859	1032.1666	1079.2236	1147.3051	1205.9145	1236.8891	1253.9702	1263.1518	1309.5715	1377.4713	1456.8252	1504.177	1527.5889	1540.183	1854.0072	2960.6222	2987.3408	3275.831	3294.9912	3838.1611
OCC(=O)N1C=NN=C1	OCC(=O)n1cnnc1	
InChI=1S/C4H5N3O2/c8-1-4(9)7-2-5-6-3-7/h2-3,8H,1H2	InChI=1S/C4H5N3O2/c8-1-4(9)7-2-5-6-3-7/h2-3,8H,1H2
