16
gdb 60957	4.21515	0.93155	0.8042	0.6835	67.66	-0.2727	-0.0517	0.221	1356.7113	0.12265	-475.024504	-475.015933	-475.014989	-475.058623	30.895	
O	 0.4384506081	 1.6257707769	 0.01212738	-0.431583
C	 0.0760150072	 0.2767236556	-0.0422485388	 0.026961
C	 0.6939659646	-0.3968968012	-1.2554861201	 0.128106
O	 1.3842169378	 0.2268246104	-2.0254931835	-0.256549
C	 0.5148061432	-0.4243585165	 1.24668401	 0.100931
C	-0.2872774898	-0.1001878554	 2.5215180042	-0.373521
C	-0.7052787816	-1.5540664805	 2.4371861875	 0.437762
N	-1.433726952	-2.3116901538	 3.1149234225	-0.530018
O	 0.0368163527	-1.8074223308	 1.289863477	-0.271314
H	 0.9972321471	 1.7764083336	-0.768410107	 0.300357
H	-1.019197689	 0.1588483686	-0.13120358	 0.103594
H	 0.4813132516	-1.4736156857	-1.3879007145	 0.126179
H	 1.6023687482	-0.3859533165	 1.3530961058	 0.108497
H	 0.3002271318	 0.1553826315	 3.403851115	 0.146701
H	-1.0942469403	 0.6238820147	 2.3989198663	 0.151348
H	-1.4586669596	-3.2566556408	 2.7284824556	 0.232546
63.5919	75.9069	117.0029	187.1825	291.7053	347.8717	380.8904	389.8847	476.1728	492.6924	504.1458	749.5739	749.8577	816.8677	868.0448	895.4598	944.1466	962.8509	981.2994	1009.4361	1056.3412	1096.4105	1151.6423	1168.9481	1212.8035	1235.9004	1271.6839	1299.6397	1316.8211	1376.3974	1385.1428	1443.0121	1466.5909	1810.3938	1834.22	2949.8624	2978.244	3079.6574	3095.3182	3150.2778	3481.3311	3671.8456
OC(C=O)C1CC(=N)O1	O[C@@H](C=O)[C@H]1C[C]([NH])O1	
InChI=1S/C5H7NO3/c6-5-1-4(9-5)3(8)2-7/h2-4,6,8H,1H2	InChI=1S/C5H7NO3/c6-5-1-4(9-5)3(8)2-7/h2-4,6,8H,1H2/t3-,4+/m0/s1
