14
gdb 17151	4.17742	2.01592	1.61847	5.3113	66.85	-0.2503	0.0164	0.2666	782.3492	0.109146	-341.499002	-341.493018	-341.492074	-341.529052	23.466	
N	 0.0269030769	-1.0975922118	-0.018771217	-0.344541
C	-0.0015116681	 0.0582910638	 0.0042105044	 0.167295
C	-0.0585852389	 1.4934877342	 0.0639583563	 0.250958
C	-0.7687189904	 2.3977978417	 1.0973001488	-0.312146
C	-0.1199324988	 3.3990918573	 0.1219959039	-0.090441
C	 1.1426015117	 2.4929133505	-0.0986169059	-0.044199
N	 1.0509702749	 2.4504640473	-1.5911913313	-0.33374
C	-0.3694337277	 2.4754197241	-1.1223520526	-0.044188
H	-1.8602192553	 2.3497242891	 1.1049060207	 0.117981
H	-0.3698570493	 2.3669634021	 2.1140099531	 0.117976
H	-0.1393110073	 4.4883328292	 0.1320292322	 0.091094
H	 2.0820816741	 2.4773841714	 0.4541267721	 0.104368
H	 1.307811201	 3.359297174	-1.9860622674	 0.21521
H	-1.2311234129	 2.439045257	-1.7891040073	 0.104373
152.6198	180.7917	395.3508	428.5106	534.0571	538.1104	599.3571	724.182	777.4388	849.3336	869.3171	887.4636	913.8451	931.6344	1009.3298	1020.5916	1056.9335	1085.9791	1097.9355	1115.1814	1157.2988	1173.2252	1184.0599	1236.5644	1247.6975	1275.6984	1291.8936	1338.7539	1513.3715	2352.4137	3063.9654	3118.9487	3120.5311	3126.0597	3134.4644	3406.5191
N#CC12CC3C1NC23	N#C[C@@]12C[C@H]3[C@@H]1N[C@@H]23	
InChI=1S/C6H6N2/c7-2-6-1-3-4(6)8-5(3)6/h3-5,8H,1H2	InChI=1S/C6H6N2/c7-2-6-1-3-4(6)8-5(3)6/h3-5,8H,1H2/t3-,4-,5+,6-
