19
gdb 126593	5.51646	0.67231	0.64119	1.2395	77.39	-0.2879	-0.0218	0.2661	1773.1009	0.159754	-419.222902	-419.213966	-419.213022	-419.257954	31.636	
C	 0.0437498448	 1.5641908472	 0.0730044572	-0.383368
C	 0.0126444154	 0.0356612703	-0.0063338509	-0.16501
C	 0.7089929247	-0.5099612597	-1.2568195046	-0.164158
C	 0.6676141008	-2.04674381	-1.3358840799	-0.314038
C	 1.3977451474	-2.5770071207	-2.5243670592	 0.371767
N	 0.8007064317	-3.2212906783	-3.4930286917	-0.177538
O	 1.8429082799	-3.5154588584	-4.3875256411	-0.153081
C	 2.946313256	-3.0071616019	-3.8417074628	 0.106553
N	 2.7619501278	-2.4179733048	-2.7055389856	-0.3052
H	 1.0731717999	 1.9386144686	 0.0901764678	 0.116915
H	-0.4573937949	 2.0157788602	-0.7902454379	 0.116278
H	-0.4576114218	 1.9262925026	 0.975805565	 0.113786
H	 0.4897877665	-0.3887593934	 0.8869718524	 0.097786
H	-1.0285590313	-0.312456145	 0.0110241016	 0.097937
H	 0.2362943083	-0.092342793	-2.154972742	 0.104683
H	 1.7547461478	-0.1812178611	-1.2747413834	 0.119248
H	 1.1267878155	-2.4691421836	-0.4338246388	 0.125006
H	-0.3659632736	-2.4026661176	-1.3769490492	 0.127911
H	 3.869480095	-3.1352822514	-4.3882177069	 0.164522
48.2616	83.2786	91.5618	128.0839	244.59	250.6085	321.541	340.3999	440.2919	632.863	706.7257	738.7367	779.8857	804.292	900.6665	906.1147	911.5471	937.8923	983.8629	995.8776	1019.1981	1063.0794	1117.6748	1125.4253	1151.6428	1237.6602	1278.1942	1300.5647	1311.6343	1333.5014	1355.6125	1376.1885	1397.9544	1414.4783	1472.7843	1486.2978	1498.3103	1500.6027	1512.122	1525.0036	1605.0638	3013.8081	3025.5739	3031.7926	3040.9869	3042.0173	3070.3712	3097.9206	3102.897	3104.1568	3264.2089
CCCCC1=NOC=N1	CCCCc1nocn1	
InChI=1S/C6H10N2O/c1-2-3-4-6-7-5-9-8-6/h5H,2-4H2,1H3	InChI=1S/C6H10N2O/c1-2-3-4-6-7-5-9-8-6/h5H,2-4H2,1H3
