15
gdb 11879	4.91648	1.5607	1.34446	4.2727	61.01	-0.265	0.01	0.275	899.5279	0.120303	-399.814812	-399.808075	-399.80713	-399.846026	25.399	
O	-0.1819123466	 0.040137076	 0.5546079127	-0.331722
C	-0.1336075652	 1.2085721477	 0.3086286686	 0.440466
C	-1.2026898944	 2.0825973756	-0.347044798	-0.458043
C	-0.7216349813	 3.4910306401	-0.0680074673	 0.300772
C	-1.3453560474	 4.7206939355	-0.5971995999	-0.298795
N	-1.4355271074	 4.3966324905	 0.8413417926	-0.34034
C	 0.7746861022	 3.3336751925	 0.1671231253	-0.122574
O	 0.9593320717	 1.9707327063	 0.5862397327	-0.21786
H	-1.2175043015	 1.8521725815	-1.4190155705	 0.147475
H	-2.1894274626	 1.8451254794	 0.0559635164	 0.140936
H	-0.7337527253	 5.5885953446	-0.8312637957	 0.125911
H	-2.2321450501	 4.615378759	-1.2173822352	 0.120327
H	-2.3583951475	 4.0270266675	 1.058751175	 0.234581
H	 1.3600985888	 3.4988181607	-0.7453287809	 0.117452
H	 1.1330818866	 3.9948921129	 0.9580052042	 0.141413
77.0064	169.125	264.3403	360.275	380.3042	478.2859	527.0576	558.759	691.2764	789.0169	834.4848	861.0439	890.8803	938.2971	961.9178	990.644	1058.7881	1063.8747	1087.9202	1136.0931	1159.0698	1181.6725	1235.5828	1244.0862	1271.551	1325.812	1367.0989	1427.4751	1457.1932	1512.7422	1517.5789	1888.2941	3035.5907	3047.1748	3102.4948	3113.4883	3120.7947	3185.996	3493.8491
O=C1CC2(CN2)CO1	O=C1C[C@]2(CN2)CO1	
InChI=1S/C5H7NO2/c7-4-1-5(2-6-5)3-8-4/h6H,1-3H2	InChI=1S/C5H7NO2/c7-4-1-5(2-6-5)3-8-4/h6H,1-3H2/t5-/m0/s1
