17
gdb 79303	4.00428	1.22188	1.12931	1.3442	80.86	-0.2297	0.0265	0.2562	1123.1674	0.13474	-384.592827	-384.584976	-384.584032	-384.624951	30.874	
C	 0.0577616525	 1.6075523908	-0.000820288	-0.424658
C	 0.0764052801	 0.0873332579	-0.0006974141	 0.019968
C	 0.7699574139	-0.6812747417	-1.1327062417	-0.187635
C	 2.226280766	-0.8085528687	-0.6823159808	 0.024656
O	 2.3788479902	-0.1092027298	 0.5470966057	-0.283396
C	 1.0832978869	-0.6493693271	 0.9290972271	-0.017057
C	 1.2143795811	-1.7939381554	-0.1619874141	 0.298772
C	 1.0825928084	-3.1960999594	-0.1689126845	-0.023592
C	 0.962246416	-4.3945973801	-0.1615542629	-0.35933
H	 1.0737149234	 2.0020452135	-0.0762671442	 0.135528
H	-0.5271936315	 1.9909814954	-0.8435023142	 0.115166
H	-0.3938148482	 1.9939039107	 0.9196900642	 0.114858
H	-0.9219881726	-0.3334750044	 0.1567603907	 0.085118
H	 0.4620256043	-0.8069492822	-2.1628419299	 0.103887
H	 3.0822690866	-0.9391034678	-1.3302944007	 0.122921
H	 0.9547216932	-0.7544925079	 2.0038111736	 0.096132
H	 0.8614426297	-5.4512584538	-0.1556953861	 0.178662
112.8658	142.2967	197.4552	247.9296	282.6599	445.074	464.0945	511.4382	565.7248	604.4051	628.089	664.273	716.8289	755.2994	808.9028	869.8399	898.6035	907.474	931.0237	993.6251	1011.1952	1027.8067	1040.9628	1079.4356	1104.9241	1126.2793	1154.8162	1208.4583	1226.5216	1262.9713	1319.2981	1375.748	1403.8739	1427.8574	1489.9667	1501.5031	2230.1348	3034.8108	3061.9719	3095.7395	3128.7914	3155.1608	3203.3641	3221.0704	3503.4941
CC1C2C3OC1C23C#C	C[C@H]1[C@H]2[C@H]3O[C@@H]1[C@@]23C#C	
InChI=1S/C8H8O/c1-3-8-5-4(2)6(8)9-7(5)8/h1,4-7H,2H3	InChI=1S/C8H8O/c1-3-8-5-4(2)6(8)9-7(5)8/h1,4-7H,2H3/t4-,5-,6-,7+,8+/m0/s1
