21
gdb 17628	2.74749	1.67079	1.2934	2.5933	75.01	-0.2443	0.081	0.3253	1052.228	0.187459	-366.23567	-366.226519	-366.225575	-366.268983	34.513	
C	 0.0028051331	 1.5261092768	-0.1979585555	-0.406177
C	-0.0152677033	 0.0230749776	 0.0962334087	 0.154944
O	 0.5551847215	-0.2549001956	 1.366624943	-0.443786
C	-1.4215589864	-0.6162331595	 0.0073634008	 0.030852
C	-1.3229820852	-2.1425314742	 0.0465709108	-0.391633
N	-2.1965838038	-0.1429078432	 1.1632453918	-0.077971
C	-3.1038739828	 0.9856618102	 0.9714027037	-0.220062
C	-3.6331949545	-0.3907117923	 1.1636988101	-0.227875
H	 1.0291395753	 1.8978151809	-0.135950104	 0.121872
H	-0.3825603251	 1.7419841184	-1.201056622	 0.101414
H	-0.5977277382	 2.0797149508	 0.5298818807	 0.119369
H	 0.6247156893	-0.480791098	-0.639442238	 0.075571
H	-0.1693738139	-0.1293618797	 1.9968317817	 0.281319
H	-1.8977527613	-0.3068166815	-0.9402463856	 0.053927
H	-2.3133243815	-2.6065419775	 0.0542050515	 0.108199
H	-0.7836762901	-2.5098319465	-0.8317530732	 0.114124
H	-0.7794009703	-2.459099768	 0.9400224043	 0.136063
H	-3.139018901	 1.7111294799	 1.7791719915	 0.119345
H	-3.1798075471	 1.4118664068	-0.0270059736	 0.116334
H	-4.0652352154	-0.879479968	 0.2922598127	 0.114299
H	-4.0644834693	-0.6929539775	 2.1137609407	 0.119874
89.0871	115.5022	186.8196	206.8949	244.838	260.5275	291.037	339.5351	346.8657	453.5908	501.0504	536.6096	616.2743	741.4813	810.4673	842.8279	907.8192	926.9079	972.2841	1013.1188	1019.8603	1029.5751	1071.0382	1106.1345	1116.466	1124.2226	1136.8889	1167.3058	1176.0893	1200.0805	1290.2194	1313.5168	1331.7635	1366.4775	1384.619	1400.4751	1405.6032	1437.5034	1488.5801	1492.6839	1494.0278	1498.5082	1500.4979	1521.2072	2938.7367	3025.6315	3033.7009	3045.7713	3098.0385	3102.5677	3105.0922	3112.6499	3119.069	3130.8386	3178.9856	3193.4688	3723.429
CC(O)C(C)N1CC1	C[C@@H](O)[C@@H](C)N1CC1	
InChI=1S/C6H13NO/c1-5(6(2)8)7-3-4-7/h5-6,8H,3-4H2,1-2H3	InChI=1S/C6H13NO/c1-5(6(2)8)7-3-4-7/h5-6,8H,3-4H2,1-2H3/t5-,6-/m1/s1
