14
gdb 35009	2.98237	1.33576	1.11673	4.8086	75.	-0.257	-0.0076	0.2495	1079.8703	0.099645	-399.477093	-399.469227	-399.468283	-399.509603	29.31	
C	-0.0033005572	-1.1680541769	-0.0323566333	-0.377358
C	 0.0311050748	 0.0336333352	-0.0300535378	 0.222625
C	 0.0673069608	 1.4532033608	-0.018992133	 0.29866
O	-0.6900652055	 2.1997122833	-0.9650563469	-0.309362
C	 0.3810855338	 3.1828993538	-1.0761332054	-0.110355
C	 1.188196512	 2.4791570139	 0.0058992609	-0.197311
C	 0.3203214626	 2.2835002151	 1.2404828307	-0.269785
C	-0.6164558318	 3.2752738397	 1.6912223884	 0.32038
N	-1.3629872354	 4.0825810074	 2.0494685025	-0.338992
H	-0.0379730704	-2.2299550886	-0.0387136125	 0.206023
H	 0.8456109034	 3.1258126987	-2.0646363295	 0.131392
H	 0.0321003611	 4.1986826161	-0.8699866607	 0.141295
H	 2.2602101697	 2.3455772982	 0.0402072035	 0.13133
H	 0.812740182	 1.7270692833	 2.0316361631	 0.151458
101.968	134.2798	164.1359	197.2301	347.2853	376.758	459.9351	484.9317	546.058	583.5437	605.3906	701.0971	705.4218	790.0484	803.943	878.112	959.8504	973.6428	979.1391	1009.5606	1057.9085	1098.2656	1144.0699	1164.7967	1237.8331	1307.0204	1335.181	1426.9473	1511.3232	2241.1391	2355.9098	3053.9547	3111.9079	3173.4979	3218.9384	3498.0421
C#CC12OCC1C2C#N	C#C[C@]12OC[C@H]1[C@H]2C#N	
InChI=1S/C7H5NO/c1-2-7-5(3-8)6(7)4-9-7/h1,5-6H,4H2	InChI=1S/C7H5NO/c1-2-7-5(3-8)6(7)4-9-7/h1,5-6H,4H2/t5-,6+,7-/m1/s1
