25
gdb 102651	1.80357	1.23462	0.78619	0.9071	90.22	-0.2269	0.084	0.3109	1570.9643	0.226258	-389.476237	-389.465077	-389.464133	-389.514079	40.382	
C	 0.0960390244	 1.5459151153	 0.0530667152	-0.388535
C	 0.0439593224	 0.0198900848	-0.0383772985	-0.174483
C	 0.7095605945	-0.5401874842	-1.3012113188	 0.133254
C	 0.6963904539	-2.0763122456	-1.3137056588	-0.166896
C	 1.6041166161	-2.7332365397	-2.3572595769	-0.403563
O	 0.0022861088	 0.0173211447	-2.4137709493	-0.270881
C	 0.7439025604	 0.3589239722	-3.5445566008	 0.163176
C	 0.5305343173	-0.3822547818	-4.8400730731	-0.280244
C	-0.0096448906	 1.0241895751	-4.6516552099	-0.307879
H	 1.1310279146	 1.906020265	 0.0856386273	 0.105595
H	-0.3901864198	 1.9988865304	-0.8142208283	 0.132329
H	-0.4077960248	 1.9038960292	 0.956089873	 0.107676
H	 0.532205477	-0.4263034782	 0.836074668	 0.09098
H	-0.9995865292	-0.3193998255	-0.02241879	 0.101959
H	 1.7548147955	-0.1888297498	-1.334279793	 0.060898
H	 0.9954194916	-2.4222871581	-0.31598908	 0.091462
H	-0.3416424774	-2.4007759613	-1.4566154607	 0.101532
H	 1.570509772	-3.8238819975	-2.2687116447	 0.109505
H	 1.308451795	-2.4714102856	-3.3753061755	 0.137475
H	 2.6472971516	-2.4242242249	-2.2232669828	 0.108313
H	 1.749111276	 0.7182149187	-3.3259503254	 0.084277
H	 1.3740897091	-0.5390407178	-5.504344183	 0.109314
H	-0.1965596851	-1.186383497	-4.8263272319	 0.118892
H	-1.080177408	 1.122716415	-4.5107775818	 0.123817
H	 0.456935115	 1.8456868566	-5.1837993204	 0.112028
23.1673	52.1119	95.285	99.6688	170.7495	192.7656	220.0018	240.9853	277.2539	365.1574	393.9518	435.2083	465.0233	498.7762	739.9763	762.1578	775.8187	798.5213	844.2026	870.745	933.0664	939.6669	955.2001	1021.3911	1030.9411	1040.1773	1054.8362	1067.0632	1074.3597	1120.334	1125.3571	1151.2226	1171.9239	1195.4524	1212.9549	1240.7568	1278.3377	1303.6333	1311.7699	1366.228	1378.9529	1392.6918	1403.6403	1412.2367	1425.1396	1452.4902	1467.4619	1480.4461	1495.8122	1497.8874	1500.1475	1508.2209	1510.5344	2959.3061	3019.467	3029.4195	3033.5263	3035.0188	3057.9612	3069.1109	3094.5822	3097.4813	3103.519	3125.9143	3129.8662	3133.6521	3137.9353	3215.8571	3231.1407
CCC(CC)OC1CC1	CCC(CC)OC1CC1	
InChI=1S/C8H16O/c1-3-7(4-2)9-8-5-6-8/h7-8H,3-6H2,1-2H3	InChI=1S/C8H16O/c1-3-7(4-2)9-8-5-6-8/h7-8H,3-6H2,1-2H3
