20
gdb 9404	5.86379	0.78835	0.72296	2.8999	73.	-0.2529	-0.0261	0.2267	1585.7926	0.1732	-386.148934	-386.138739	-386.137795	-386.185145	34.625	
C	 0.115432279	 1.5007929504	-0.139905338	-0.383836
C	 0.0011301067	-0.0105660548	 0.0725282452	-0.18142
C	-1.422470868	-0.5174153636	-0.1144939606	-0.04006
O	-1.4317518216	-1.9176524047	 0.0970252436	-0.263932
C	-2.7094307794	-2.5176299539	 0.126750196	 0.045354
C	-3.3743985081	-2.6689680351	-1.2418719584	-0.404435
C	-2.5153252973	-3.8656987509	 0.8163561508	 0.148076
O	-3.2836873239	-4.7869990437	 0.733582013	-0.246015
H	 1.1460304899	 1.8389481345	-0.0004602397	 0.120201
H	-0.1934050221	 1.787289102	-1.1512760351	 0.117808
H	-0.5131956894	 2.0531282366	 0.56732676	 0.117249
H	 0.6538679334	-0.5436369418	-0.6281487242	 0.109731
H	 0.3371213493	-0.2813170156	 1.0799438308	 0.106839
H	-2.1038306506	-0.025000147	 0.6009476092	 0.085105
H	-1.7818389946	-0.2704641204	-1.1258487857	 0.092438
H	-3.3775946325	-1.9367491039	 0.7925302075	 0.09228
H	-4.2593319933	-3.3017445594	-1.140629263	 0.144031
H	-3.6774712675	-1.7025526716	-1.6517145688	 0.118232
H	-2.6836016865	-3.147150586	-1.9424153118	 0.130034
H	-1.5880515136	-3.9126385113	 1.428259659	 0.092319
51.742	57.9643	83.2772	120.8944	156.178	211.111	231.0796	250.1604	307.1477	346.1265	430.7941	490.3034	616.8553	764.6203	831.4966	900.8545	909.7521	912.2421	934.2154	1045.5328	1082.637	1111.0664	1138.1224	1155.7714	1173.2353	1193.4517	1268.3394	1314.6389	1322.4085	1334.0629	1346.5026	1383.7658	1402.2487	1414.4114	1439.2296	1487.9382	1492.2262	1497.0596	1500.9399	1507.3934	1527.8379	1840.6051	2902.615	2918.5054	2954.0126	2993.6912	3032.902	3040.2423	3050.7198	3073.1355	3100.9812	3110.3043	3126.1899	3136.5998
CCCOC(C)C=O	CCCO[C@@H](C)C=O	
InChI=1S/C6H12O2/c1-3-4-8-6(2)5-7/h5-6H,3-4H2,1-2H3	InChI=1S/C6H12O2/c1-3-4-8-6(2)5-7/h5-6H,3-4H2,1-2H3/t6-/m0/s1
