13
gdb 20989	3.49844	2.21693	1.36875	2.9752	55.34	-0.213	0.0444	0.2574	824.9292	0.096555	-431.965155	-431.957552	-431.956608	-431.997223	26.611	
C	 0.0005694682	 1.4635149071	 0.0567470649	-0.346001
N	 0.029668275	 0.0168881263	 0.0505759609	-0.167717
C	 0.0027982178	-0.7661415598	-1.1255320593	 0.465234
O	-0.0466382342	-0.3693767028	-2.2704838846	-0.427739
N	 0.0467211169	-2.0377394722	-0.6190962719	-0.320456
N	 0.0981427828	-2.094124683	 0.7725874388	-0.338884
C	 0.0851268317	-0.8443564391	 1.1067416458	 0.483953
O	 0.1204514811	-0.360793828	 2.3527171835	-0.413447
H	 0.9001873037	 1.8729606659	 0.5243092526	 0.145194
H	-0.0432400052	 1.7755115816	-0.9883956058	 0.173303
H	-0.8790787586	 1.8369267989	 0.5881242034	 0.14519
H	 0.0441155127	-2.8848170205	-1.1572816294	 0.280371
H	 0.1575627383	-1.1178741143	 2.9525520612	 0.320999
102.52	116.9208	168.4948	252.8282	254.7751	352.7686	418.9003	454.8642	595.5284	625.3574	689.1495	757.0743	763.9933	807.9533	983.0006	1076.519	1161.5826	1212.1352	1221.8941	1265.7666	1332.5439	1392.1752	1439.6825	1493.21	1510.4487	1587.433	1685.5756	1849.0208	3047.5348	3113.6052	3148.663	3710.5485	3790.0627
CN1C(=O)NN=C1O	Cn1c(=O)[nH]nc1O	
InChI=1S/C3H5N3O2/c1-6-2(7)4-5-3(6)8/h1H3,(H,4,7)(H,5,8)	InChI=1S/C3H5N3O2/c1-6-2(7)4-5-3(6)8/h1H3,(H,4,7)(H,5,8)
