18
gdb 99247	5.09657	0.61482	0.57326	2.81	70.15	-0.2457	-0.0091	0.2366	1869.6629	0.144275	-476.265897	-476.255181	-476.254236	-476.303723	36.404	
N	 0.047654369	 1.2903856371	-0.1566484752	-0.523538
C	 0.027598183	-0.0159580207	 0.2419366788	 0.412101
O	 0.9675128076	-0.5346319529	 0.8143830706	-0.35899
C	-1.2646164507	-0.7602998182	-0.0850139473	-0.319507
C	-1.0757864354	-2.2733275849	-0.0599106628	-0.3097
C	-2.3687280912	-3.03263585	 0.2010419949	 0.372291
O	-3.3640937547	-2.5078585188	 0.6359489697	-0.28534
C	-2.3064839649	-4.5239868697	-0.1139494212	-0.168768
O	-3.4911539147	-5.151209465	 0.2981911018	-0.395056
H	 0.8162133557	 1.8632917139	 0.152508892	 0.260724
H	-0.7770861226	 1.7477671215	-0.504915329	 0.259192
H	-2.0175807244	-0.4923721996	 0.6662694035	 0.156076
H	-1.6645210301	-0.4223786655	-1.0471851573	 0.111792
H	-0.6067071477	-2.6408965801	-0.9803990482	 0.114916
H	-0.3663174688	-2.5183736403	 0.741865162	 0.16169
H	-2.1313260662	-4.6159882957	-1.2011915164	 0.108195
H	-1.4077822402	-4.9350703086	 0.3779295302	 0.110774
H	-3.4186718737	-6.0880023624	 0.094128804	 0.293148
36.9208	41.1252	64.2743	95.2217	132.4257	228.3516	247.3797	255.9411	268.9432	351.7113	458.3867	486.5402	512.7142	602.9684	648.4968	676.5573	762.0237	832.4781	866.0489	949.4248	1013.7198	1058.529	1089.5001	1109.9624	1149.4761	1170.9693	1234.9436	1250.0496	1258.6411	1297.0082	1364.3997	1405.8221	1443.4841	1457.4577	1470.3759	1493.9295	1619.538	1794.7149	1826.1703	2945.5626	2970.9027	3032.3698	3042.5343	3062.3169	3083.6109	3597.4684	3731.3993	3836.4061
NC(=O)CCC(=O)CO	NC(=O)CCC(=O)CO	
InChI=1S/C5H9NO3/c6-5(9)2-1-4(8)3-7/h7H,1-3H2,(H2,6,9)	InChI=1S/C5H9NO3/c6-5(9)2-1-4(8)3-7/h7H,1-3H2,(H2,6,9)
