20
gdb 23519	3.06254	1.11359	0.96095	1.5905	84.77	-0.2335	0.039	0.2725	1308.3493	0.169515	-403.04062	-403.031202	-403.030258	-403.074971	35.09	
C	-0.0292963567	 1.5556277474	-0.2010248558	-0.450985
C	 0.0255069759	 0.0301361188	-0.1109533388	 0.053657
C	 1.0985429632	-0.8214211942	-0.8922001921	-0.189471
C	 2.1515970497	-0.5448869224	 0.2613080799	 0.053487
C	 2.9533342464	 0.7451224281	 0.4363506596	-0.451074
C	 0.786132266	-0.7996481058	 1.0050454699	-0.178704
C	 0.6407826805	-1.9439002958	 0.0251016202	 0.511819
N	 0.3040160788	-3.1560254152	 0.0701663191	-0.333486
O	 0.3663370918	-3.7463967308	-1.2226905935	-0.408202
H	 0.9065016322	 2.0201098343	-0.5071539618	 0.128046
H	-0.7826663297	 1.8380419117	-0.9437446667	 0.120304
H	-0.3365082564	 1.9985262902	 0.7529228144	 0.12133
H	-0.9896062761	-0.3547079942	-0.2507467306	 0.089466
H	 1.2735025434	-0.8608979687	-1.9654799177	 0.089957
H	 2.8411399973	-1.3886921427	 0.3651570535	 0.089445
H	 2.3642155788	 1.5994161314	 0.765311031	 0.127704
H	 3.7258434321	 0.5798037402	 1.1946440866	 0.11997
H	 3.4670395029	 1.019471266	-0.4917180771	 0.121865
H	 0.5975686302	-0.809810939	 2.0778100211	 0.083255
H	 0.0895221297	-4.6493661393	-1.035350071	 0.301617
73.0694	109.5024	110.4753	164.2421	216.9106	311.2089	324.9099	349.1246	350.9851	390.8809	497.1443	620.2721	678.5918	712.3023	763.4421	769.6695	781.724	814.2121	931.9044	996.4664	1022.2641	1044.8506	1073.6852	1078.0544	1094.1324	1099.3172	1110.4806	1128.0377	1161.8016	1203.5041	1209.915	1244.1002	1265.4214	1399.999	1403.5549	1414.4415	1417.939	1454.9976	1493.7817	1494.8777	1497.7678	1528.6444	1828.7215	3038.3905	3038.4409	3049.1424	3051.8901	3093.282	3093.6185	3129.2052	3142.041	3145.8537	3167.1649	3822.2433
CC1C2C(C)C1C2=NO	C[C@H]1[C@H]2[C@@H](C)[C@@H]1C2=NO	
InChI=1S/C7H11NO/c1-3-5-4(2)6(3)7(5)8-9/h3-6,9H,1-2H3	InChI=1S/C7H11NO/c1-3-5-4(2)6(3)7(5)8-9/h3-6,9H,1-2H3/t3-,4+,5-,6+
