16
gdb 46579	2.9283	1.7724	1.45943	1.7294	69.02	-0.2474	0.009	0.2564	918.2019	0.126031	-437.834956	-437.828096	-437.827152	-437.866141	27.185	
N	-0.0105883737	 1.285328297	 0.3101108914	-0.538327
C	-0.0097092721	 0.0505639316	 0.052790743	 0.347743
O	 1.1355017227	-0.6848962991	-0.2264611105	-0.257659
C	 0.8182327361	-1.9350799179	-0.890485515	-0.162202
C	-0.6502366531	-2.146145334	-0.6162348081	 0.341526
C	-1.1829317764	-2.1467876771	 0.7695195034	-0.365363
C	-1.1784711236	-0.8542579177	-0.036006581	 0.077992
C	-2.2057171893	-0.9393021662	-1.1719610684	-0.141674
O	-1.6618988248	-2.2214104245	-1.6251681469	-0.320703
H	 0.9323598609	 1.6691935186	 0.224328308	 0.227368
H	 0.9916339249	-1.8395272586	-1.9678986003	 0.131338
H	 1.4856891665	-2.6964800369	-0.4794497804	 0.126901
H	-2.1384296637	-2.6211113291	 0.9649128968	 0.136426
H	-0.458489706	-2.2019170419	 1.5744487105	 0.143726
H	-3.2598461947	-1.0206466747	-0.8894613156	 0.121207
H	-2.0765042339	-0.1657429395	-1.9341851068	 0.1317
123.3513	181.3787	264.8606	342.2632	400.0595	415.55	587.1282	608.8509	651.6481	703.1363	765.6091	796.8181	858.2996	902.882	916.3873	949.7013	955.6172	967.9535	989.6035	1012.903	1030.8437	1073.6592	1138.5993	1154.0576	1198.4974	1218.4257	1265.3838	1309.9392	1346.6505	1377.4516	1392.934	1469.0776	1510.5754	1515.1895	1777.8827	3046.7409	3048.343	3104.3444	3105.4302	3137.6219	3233.5805	3472.0615
N=C1OCC23CC12CO3	[NH][C]1OC[C@@]23C[C@@]12CO3	
InChI=1S/C6H7NO2/c7-4-5-1-6(5,3-8-4)9-2-5/h7H,1-3H2	InChI=1S/C6H7NO2/c7-4-5-1-6(5,3-8-4)9-2-5/h7H,1-3H2/t5-,6+/m1/s1
