21
gdb 61442	3.3847	0.8551	0.7632	3.7068	79.9	-0.236	-0.0063	0.2297	1560.901	0.179629	-424.232321	-424.221895	-424.220951	-424.268861	37.354	
C	-0.8001698439	 0.9121704864	 0.2724873124	-0.481347
C	 0.4050342221	 0.0409804821	-0.0089667343	 0.392684
O	 1.3288075966	-0.0653091815	 0.7653410545	-0.310171
C	 0.3900176651	-0.7612648713	-1.308674895	-0.30011
C	-0.0978945982	-2.2043957341	-1.0508332713	 0.120347
O	-1.4339257304	-2.2098671165	-0.5435781021	-0.438006
C	 0.0455341848	-3.0738015417	-2.2784304399	-0.007269
C	 1.3181409745	-3.8473681441	-2.5193868823	-0.267075
C	 0.0546019022	-4.5737032891	-2.1350065942	-0.273498
H	-0.6933381317	 1.408860816	 1.2375621007	 0.136151
H	-0.9276360389	 1.6593139601	-0.5195065013	 0.129552
H	-1.6929530595	 0.2771948508	 0.2674886948	 0.151801
H	-0.2531154487	-0.293323016	-2.0638137123	 0.086649
H	 1.4132033557	-0.8010451159	-1.6937571357	 0.125685
H	 0.5120285695	-2.6233376524	-0.2416232083	 0.1045
H	-2.0330738803	-2.1294054078	-1.293560559	 0.278439
H	-0.4444149098	-2.6721643381	-3.1648530622	 0.076099
H	 1.6785137727	-3.9361263372	-3.5379912614	 0.114909
H	 2.1048126943	-3.7690811395	-1.7760001737	 0.122589
H	-0.0151226248	-4.9779853947	-1.130927997	 0.124749
H	-0.4500730014	-5.1663197854	-2.8897131525	 0.113322
39.4619	61.4947	89.5901	130.4367	180.7456	200.2213	237.3112	276.5947	331.5163	395.5468	443.2324	484.4207	537.9323	606.0055	772.4455	797.7281	831.5245	840.5217	901.5079	917.1795	947.137	972.0899	1019.2869	1057.1978	1067.6163	1075.5945	1082.0993	1133.5115	1149.0405	1165.9009	1197.4768	1224.6375	1241.5466	1286.5892	1287.8058	1354.2644	1374.1255	1398.1667	1438.9695	1462.2173	1471.7626	1473.1733	1477.3117	1507.2885	1811.1712	3030.2546	3035.7556	3048.1428	3099.4532	3101.3972	3111.1347	3133.3978	3138.6026	3152.8198	3212.1585	3226.8997	3806.4858
CC(=O)CC(O)C1CC1	CC(=O)C[C@@H](O)C1CC1	
InChI=1S/C7H12O2/c1-5(8)4-7(9)6-2-3-6/h6-7,9H,2-4H2,1H3	InChI=1S/C7H12O2/c1-5(8)4-7(9)6-2-3-6/h6-7,9H,2-4H2,1H3/t7-/m1/s1
