18
gdb 106990	2.95486	1.28333	1.03201	4.357	72.46	-0.2263	-0.0253	0.201	1192.3549	0.146514	-439.05472	-439.045776	-439.044832	-439.088682	33.023	
C	 0.0113864162	 1.5115704268	 0.2998830206	-0.380726
C	 0.0249927536	 0.0255093572	-0.0892684674	-0.32313
C	-1.3563303665	-0.5390344562	-0.2265371323	 0.231875
N	-2.2134468969	-0.902176359	 0.9657669306	-0.390404
C	-1.9289458423	-1.9225880212	-0.0556783833	-0.168097
C	-3.027454051	-1.6917302758	-1.1094672736	 0.037545
O	-4.355557928	-1.8191734627	-0.7062783674	-0.428308
C	-2.3853814812	-0.2609958106	-1.3048039114	 0.359451
O	-2.5307078701	 0.6172567662	-2.1039842277	-0.31003
H	 1.0297192762	 1.9052110308	 0.3631939451	 0.117123
H	-0.5379244584	 2.0944727093	-0.444280341	 0.150967
H	-0.4729502705	 1.6618983123	 1.2697336456	 0.122386
H	 0.5478249166	-0.0977173522	-1.0454734462	 0.120486
H	 0.5873634593	-0.5601127807	 0.6499691006	 0.099914
H	-1.5693405931	-1.0395950168	 1.7449365044	 0.239671
H	-1.3998902754	-2.8376200442	 0.1782022111	 0.111247
H	-2.891162656	-2.2827422353	-2.02091451	 0.113325
H	-4.4205449825	-1.3546686881	 0.1392117623	 0.296705
68.1658	90.6022	165.078	178.3217	237.5625	256.2509	312.5672	379.4654	473.3174	501.5033	579.6452	626.7929	662.1261	749.8974	805.9488	821.4394	851.8881	914.9374	953.8152	967.8236	1002.0924	1043.6252	1079.9435	1092.3891	1108.1502	1147.0179	1198.9447	1248.7656	1268.8828	1308.0392	1347.4879	1351.4495	1409.7932	1427.8409	1439.6418	1476.8558	1497.2501	1510.2271	1889.4286	3018.3142	3043.9668	3057.4725	3074.8917	3114.3679	3125.9815	3203.2979	3467.5908	3761.3804
CCC12NC1C(O)C2=O	CC[C@]12N[C@H]1[C@@H](O)C2=O	
InChI=1S/C6H9NO2/c1-2-6-4(7-6)3(8)5(6)9/h3-4,7-8H,2H2,1H3	InChI=1S/C6H9NO2/c1-2-6-4(7-6)3(8)5(6)9/h3-4,7-8H,2H2,1H3/t3-,4+,6+/m1/s1
