17
gdb 61942	2.23351	1.12727	0.83997	3.6067	72.86	-0.2956	0.0012	0.2967	1358.5573	0.134046	-418.026413	-418.016559	-418.015615	-418.062602	33.839	
C	-0.8628921916	 1.4351179676	 0.8804170598	-0.403136
C	-0.5046955527	 0.0471952438	 0.3649718017	 0.109659
C	 0.7167810132	-0.5339716401	 1.1121595856	-0.334326
C	 1.0929107367	-1.8562267385	 0.6185106892	 0.272048
N	 1.3676475688	-2.8990854307	 0.2027932474	-0.312244
O	-1.6284878177	-0.8116264971	 0.5801584222	-0.249356
C	-2.0108796416	-1.6175271478	-0.5118834671	-0.21146
C	-2.5826335946	-0.8268965135	-1.6197020398	 0.257205
N	-3.0118153018	-0.1858438456	-2.4798444353	-0.303615
H	-0.0201960387	 2.1238966396	 0.7691703797	 0.123935
H	-1.7124228654	 1.8306488765	 0.3194298454	 0.14808
H	-1.1401363501	 1.3877712554	 1.9379966959	 0.134156
H	-0.2746999226	 0.0997387245	-0.7064496536	 0.112715
H	 1.5733957992	 0.1410248926	 1.0106354518	 0.156091
H	 0.4781420323	-0.6075417298	 2.1786915811	 0.163079
H	-1.1791032859	-2.2200195698	-0.899010665	 0.170316
H	-2.7738899374	-2.3060937372	-0.1375385591	 0.166852
31.6967	73.2788	83.9933	134.6727	205.596	226.9572	298.7604	331.6881	369.3454	385.3023	395.9759	468.6553	564.1169	625.1769	808.3578	891.3322	901.8201	905.413	966.6647	1031.7645	1065.6017	1115.3714	1138.1754	1144.3258	1243.4036	1296.3453	1303.2225	1367.5583	1383.1053	1410.0008	1417.5485	1453.1106	1478.6479	1486.1691	1498.4912	2357.6162	2360.5346	3031.7555	3038.8007	3045.5647	3052.4294	3096.412	3099.6001	3120.2939	3134.9505
CC(CC#N)OCC#N	C[C@@H](CC#N)OCC#N	
InChI=1S/C6H8N2O/c1-6(2-3-7)9-5-4-8/h6H,2,5H2,1H3	InChI=1S/C6H8N2O/c1-6(2-3-7)9-5-4-8/h6H,2,5H2,1H3/t6-/m0/s1
