16
gdb 93346	2.35982	1.64571	1.09486	6.8158	66.52	-0.2661	-0.0233	0.2428	1089.4527	0.124334	-475.093566	-475.085226	-475.084282	-475.127012	29.652	
C	 0.1301459482	 1.6083472823	 0.0004970746	-0.397558
C	-0.0031141064	 0.0845178914	 0.0337444956	-0.013928
C	 0.7035171492	-0.6169062042	-1.1426025213	-0.103004
O	 1.9799656867	-1.0127218034	-0.6296922767	-0.243571
C	 1.9517344849	-1.0706880473	 0.7329930688	 0.511167
O	 2.836728891	-1.5054810914	 1.3981270279	-0.341672
N	 0.7233327646	-0.5182488455	 1.1547166012	-0.173734
C	 0.2486867526	-0.5007415152	 2.4607350556	 0.158225
O	 0.7997879501	-0.9540038184	 3.4249404393	-0.263907
H	 1.1812859916	 1.902154978	-0.0805166723	 0.144477
H	-0.4126242565	 2.0167105789	-0.8578331445	 0.130318
H	-0.2820019605	 2.0587037044	 0.9081087051	 0.134423
H	-1.0585785259	-0.2005127477	 0.0767929862	 0.110356
H	 0.1625145986	-1.5088314066	-1.4764534151	 0.128689
H	 0.8651599825	 0.0471372523	-1.9936105707	 0.134354
H	-0.7449403705	-0.0096324275	 2.5003136765	 0.085364
70.0393	124.2778	166.1349	209.3123	219.3104	252.8907	323.0301	433.4714	491.3658	519.2133	706.4309	732.0531	773.0972	798.768	877.2224	957.3626	1000.8475	1030.0655	1072.7982	1103.5759	1134.2991	1157.5975	1210.1872	1251.1289	1261.2426	1365.6671	1378.6198	1407.3846	1416.0183	1453.4984	1490.3688	1494.0401	1521.5958	1820.6575	1925.6179	2924.151	3038.6386	3046.0711	3064.078	3114.011	3118.6037	3121.3556
CC1COC(=O)N1C=O	C[C@H]1COC(=O)N1C=O	
InChI=1S/C5H7NO3/c1-4-2-9-5(8)6(4)3-7/h3-4H,2H2,1H3	InChI=1S/C5H7NO3/c1-4-2-9-5(8)6(4)3-7/h3-4H,2H2,1H3/t4-/m0/s1
