17
gdb 114416	3.41503	1.09013	1.05646	3.2676	67.87	-0.2724	0.0071	0.2795	1183.3094	0.136206	-458.964457	-458.956364	-458.95542	-458.997721	29.901	
O	 0.0651843153	 1.1681606362	-0.4651458795	-0.42323
C	 0.0254696089	-0.2170168589	-0.1527632414	-0.095922
C	-1.4327727013	-0.5837867359	 0.0427891315	 0.012566
C	-2.3804620001	-0.5439904233	-1.1973074082	-0.255662
C	-2.8112171335	-2.0224151562	-0.909276149	-0.229984
C	-1.7876322658	-2.072545602	 0.2521416469	 0.076007
O	-0.9471288214	-2.9814960299	-0.5327158783	-0.25921
C	-1.8678499057	-3.0225784966	-1.5640959404	 0.455602
O	-1.7972727299	-3.6571405306	-2.5655624092	-0.322461
H	 0.9684468053	 1.3972724537	-0.7021973905	 0.291084
H	 0.4563507212	-0.8257131919	-0.9595390975	 0.106615
H	 0.5912837032	-0.4408406594	 0.7664124316	 0.091399
H	-1.8442949217	 0.0162590176	 0.8603704908	 0.093653
H	-3.2002586106	 0.1683907444	-1.103188262	 0.122442
H	-1.8945879274	-0.3863028029	-2.162090757	 0.128052
H	-3.867834071	-2.2712431651	-0.8483547442	 0.110149
H	-1.9637669056	-2.4740864494	 1.2488441964	 0.0989
68.208	105.0244	175.5767	206.4257	263.5414	304.4219	424.1316	438.605	533.0584	650.5026	740.2647	791.5873	814.8605	855.9601	881.7052	904.1093	937.5289	988.0229	1005.64	1064.802	1077.9421	1089.0971	1110.8845	1155.1645	1164.8847	1218.5966	1233.3817	1244.8219	1267.1748	1288.0713	1291.987	1324.887	1358.7392	1462.2041	1487.0198	1524.9314	1936.7877	2970.5678	3024.4118	3066.3623	3083.5615	3129.0179	3137.3693	3153.1143	3832.7293
OCC1CC2C1OC2=O	OC[C@H]1C[C@@H]2[C@H]1OC2=O	
InChI=1S/C6H8O3/c7-2-3-1-4-5(3)9-6(4)8/h3-5,7H,1-2H2	InChI=1S/C6H8O3/c7-2-3-1-4-5(3)9-6(4)8/h3-5,7H,1-2H2/t3-,4-,5+/m1/s1
