18
gdb 50231	2.85011	1.72624	1.39016	3.2407	75.25	-0.2304	-0.0002	0.2302	963.9685	0.148261	-401.884201	-401.876867	-401.875923	-401.916069	28.963	
O	-0.3128680166	 0.3767651834	 0.7780521596	-0.27848
C	-0.0510331105	 1.1616228744	-0.0988422149	 0.175272
C	 1.1918967203	 2.0203074401	-0.1075040412	-0.095048
C	 1.1710346357	 3.3369768905	-0.9440139732	-0.269366
C	 1.4403936542	 4.1553287709	 0.3530501556	-0.023834
C	 0.211309916	 4.5973082225	 1.1797769915	-0.061538
N	-0.8264442243	 3.5574105488	 0.9971924581	-0.328514
C	 0.2528183293	 3.3367571476	 1.9828822151	-0.047167
C	 1.480341985	 2.8375653597	 1.1949365825	-0.025061
H	-0.704838843	 1.2741065915	-0.9934490668	 0.068591
H	 2.0329963841	 1.3673685904	-0.3663094346	 0.099323
H	 1.9779407232	 3.4076820188	-1.6765182423	 0.097562
H	 0.2188568215	 3.5482611049	-1.436147851	 0.111093
H	 2.2761319433	 4.8538708336	 0.3622891774	 0.07303
H	-0.0699354865	 5.6060855337	 1.4584523093	 0.093391
H	-1.6613651077	 3.8443606188	 1.5043208011	 0.236858
H	 0.0117332757	 3.1464167438	 3.0209497547	 0.098884
H	 2.3468613303	 2.5682686466	 1.7961631591	 0.075004
102.7781	128.1279	183.8616	304.2502	357.8581	408.4735	556.4104	637.8778	673.2051	725.2002	793.8568	802.0211	812.1517	878.9783	880.8408	901.972	921.4977	943.4075	989.6539	1008.2551	1032.2726	1047.1547	1076.1368	1090.6694	1118.084	1124.2498	1156.862	1193.4907	1209.1785	1231.5194	1260.1587	1271.1999	1304.7025	1324.5149	1335.1957	1372.579	1413.5826	1469.1013	1815.8183	2869.8627	3047.6839	3065.9368	3114.1771	3122.7971	3130.8964	3178.3236	3197.8471	3494.3179
O=CC1CC2C3NC3C12	O=C[C@H]1C[C@H]2[C@H]3N[C@H]3[C@@H]12	
InChI=1S/C7H9NO/c9-2-3-1-4-5(3)7-6(4)8-7/h2-8H,1H2	InChI=1S/C7H9NO/c9-2-3-1-4-5(3)7-6(4)8-7/h2-8H,1H2/t3-,4-,5+,6-,7+/m1/s1
