21
gdb 59597	2.55333	1.37497	0.97248	2.886	79.28	-0.2503	0.0036	0.254	1245.1372	0.182881	-424.238649	-424.229568	-424.228624	-424.27229	35.226	
C	 0.1862672087	 1.6694654757	-0.0549700207	-0.387653
C	 0.1321273769	 0.1476999138	-0.1284495108	 0.129658
O	 1.0031741736	-0.2498416324	-1.1740121924	-0.446782
C	 0.5198773819	-0.5166199368	 1.2054699395	-0.028204
C	-0.5110122596	-0.302857862	 2.3474881454	-0.286383
C	-0.6063646752	-1.6535484542	 3.0095518252	-0.060889
C	 0.0783910607	-2.5948198477	 2.360814227	-0.105745
C	 0.718633984	-2.0669860056	 1.1047245818	 0.052819
O	 0.1499438514	-2.6750382299	-0.0730134132	-0.436728
H	 1.2050258679	 1.998326886	 0.1749049253	 0.12055
H	-0.0993794698	 2.099593149	-1.0186063516	 0.121668
H	-0.4878413398	 2.0581671882	 0.713920985	 0.110644
H	-0.9051704762	-0.1511158155	-0.3674073548	 0.04353
H	 0.874457288	-1.2040445468	-1.2649881809	 0.289342
H	 1.4822228037	-0.0937311177	 1.5141822329	 0.082048
H	-0.1920685455	 0.4767362096	 3.0484039925	 0.114296
H	-1.4933185004	 0.0182824358	 1.9702247215	 0.105738
H	-1.1825378481	-1.8151878186	 3.9150058959	 0.100964
H	 0.1435759063	-3.6407355108	 2.6390614154	 0.100409
H	 1.7797681235	-2.3200364041	 1.0268893053	 0.099519
H	-0.808532252	-2.6666885157	 0.0298284118	 0.281197
78.2369	109.9798	190.0833	219.3383	246.3629	297.8322	336.8195	379.299	384.6414	469.0236	513.231	546.6628	641.0067	732.77	748.0341	782.7335	805.8625	896.461	928.6301	962.3179	971.1214	990.0217	1002.2382	1025.187	1063.9475	1091.715	1125.1022	1132.6468	1165.0336	1188.0846	1233.4038	1270.5072	1291.6771	1308.9507	1324.1413	1335.6426	1371.6914	1388.0042	1398.6397	1428.671	1449.651	1481.9346	1486.8628	1500.5835	1685.3585	2920.922	3000.6083	3039.0089	3041.0061	3058.6087	3073.3733	3112.5	3120.8684	3179.2722	3206.9919	3743.6261	3798.7427
CC(O)C1CC=CC1O	C[C@@H](O)[C@H]1CC=C[C@H]1O	
InChI=1S/C7H12O2/c1-5(8)6-3-2-4-7(6)9/h2,4-9H,3H2,1H3	InChI=1S/C7H12O2/c1-5(8)6-3-2-4-7(6)9/h2,4-9H,3H2,1H3/t5-,6-,7-/m1/s1
