20
gdb 124516	2.53986	1.32765	0.99105	1.6805	81.33	-0.1982	0.0369	0.2351	1256.8085	0.172159	-399.359339	-399.349858	-399.348914	-399.393595	35.611	
C	-0.0238972614	 1.6568298078	 0.4682235782	-0.391116
C	-0.0668057587	 0.2113236198	-0.0465051998	-0.099277
C	 0.9225017107	-0.6715338267	 0.7427530805	-0.378408
C	-1.4574500431	-0.3639057155	-0.0312782225	 0.185365
C	-2.5513709803	-0.0106025268	 0.7349785055	-0.126993
N	-3.5706411455	-0.8234634955	 0.3755514618	-0.201777
N	-3.2223496232	-1.7132470038	-0.58680785	-0.307985
C	-1.9478608575	-1.4317492577	-0.8361367644	 0.275175
N	-1.2517447154	-2.093297697	-1.8531335476	-0.593607
H	 0.9875327497	 2.0675026389	 0.3869827212	 0.109119
H	-0.7015611288	 2.3008111088	-0.0997984314	 0.117945
H	-0.3130513003	 1.7084420077	 1.5244759268	 0.110641
H	 0.2660065271	 0.2195426772	-1.0941866832	 0.085136
H	 0.6543279045	-0.6947877011	 1.8046349584	 0.115937
H	 0.9201916027	-1.7065435286	 0.3844487724	 0.104446
H	 1.9457235257	-0.2894495942	 0.6569728818	 0.10861
H	-2.6783574031	 0.7542184308	 1.4849597208	 0.125952
H	-4.5132453653	-0.825749186	 0.7212537837	 0.268922
H	-1.7701939318	-2.8986501228	-2.1818028483	 0.247886
H	-0.317444976	-2.3707079653	-1.5820644838	 0.244027
45.881	141.93	166.6718	233.5228	248.2348	264.554	293.3099	297.7005	365.2069	388.3347	458.2033	515.1958	607.8223	653.9198	711.9166	743.1459	788.4022	805.9734	888.4749	927.1512	943.64	963.6971	1066.9057	1089.6031	1108.468	1117.3652	1155.3965	1209.0407	1237.6137	1328.9861	1346.132	1368.098	1396.0342	1418.3843	1432.6714	1483.6015	1489.1354	1491.5348	1500.7874	1509.0211	1534.3955	1617.0717	1649.2877	3000.5212	3024.2646	3029.7779	3091.3437	3092.6452	3099.622	3110.075	3256.7808	3535.9717	3629.4353	3695.9991
CC(C)C1=CNN=C1N	CC(C)c1c[nH]nc1N	
InChI=1S/C6H11N3/c1-4(2)5-3-8-9-6(5)7/h3-4H,1-2H3,(H3,7,8,9)	InChI=1S/C6H11N3/c1-4(2)5-3-8-9-6(5)7/h3-4H,1-2H3,(H3,7,8,9)
