19
gdb 96694	3.16011	1.10483	0.84823	3.0539	83.2	-0.2206	-0.0657	0.1549	1367.8686	0.157753	-419.189278	-419.179657	-419.178713	-419.224668	33.415	
C	-0.1470142054	 1.3597963657	 0.1425141439	-0.307901
N	-0.0433984892	-0.0805112234	 0.0066636499	-0.29572
C	 0.6291083511	-0.6354609148	-0.9274217086	 0.254299
C	 1.3995425692	 0.0469546832	-2.0311300071	 0.099759
O	 1.263146948	 1.2025801253	-2.3466340651	-0.244037
N	 0.7694978314	-2.0088450822	-0.9413613425	-0.093159
C	-0.0643212853	-2.9114076391	-0.1378843188	-0.153607
C	 0.1373838727	-4.0075418217	-1.2187784848	-0.237594
C	 0.7784057894	-2.9123989447	-2.11280157	-0.181111
H	 0.7819810542	 1.8993529058	-0.0726920175	 0.126884
H	-0.9094458479	 1.763241702	-0.5363352705	 0.127758
H	-0.4617521057	 1.5863347238	 1.1658189815	 0.112431
H	 2.14016099	-0.6038506198	-2.5467789748	 0.08918
H	 0.3297843033	-3.1121216178	 0.862451396	 0.117601
H	-1.093589666	-2.5469468985	-0.037701655	 0.12024
H	 0.8373182586	-4.7910034246	-0.925233974	 0.118579
H	-0.7703595563	-4.4663053775	-1.610258269	 0.116818
H	 0.1312012541	-2.5789585291	-2.9342294626	 0.11297
H	 1.7746159739	-3.1269918426	-2.512755361	 0.116611
53.3278	91.9549	98.037	144.1782	174.6345	195.9123	245.935	278.6683	395.1978	441.7913	488.1818	545.6284	749.5992	839.4178	843.6317	865.5305	934.5841	943.0368	1006.1815	1018.3283	1070.9813	1109.7098	1135.9723	1139.8277	1155.79	1187.0247	1203.8979	1234.8096	1270.3627	1294.7438	1336.5746	1367.9013	1435.6173	1449.3111	1477.2511	1491.1972	1500.4036	1508.6842	1531.4816	1681.5095	1817.9119	2882.7154	3011.344	3014.1201	3036.412	3066.6306	3067.0383	3082.7451	3090.2647	3092.5025	3146.8872
CN=C(C=O)N1CCC1	CN=C(C=O)N1CCC1	
InChI=1S/C6H10N2O/c1-7-6(5-9)8-3-2-4-8/h5H,2-4H2,1H3	InChI=1S/C6H10N2O/c1-7-6(5-9)8-3-2-4-8/h5H,2-4H2,1H3
