17
gdb 127231	4.26962	1.03275	0.84033	2.3027	78.48	-0.2392	-0.0297	0.2095	1347.2741	0.136089	-418.057162	-418.048222	-418.047278	-418.091899	31.189	
C	-0.0377080504	 1.4207487797	 0.0560459999	-0.319661
N	-0.0500278177	-0.0257434106	-0.0199605464	 0.058341
C	 0.1861956003	-0.8031974243	-1.0907423808	-0.098178
C	 0.060135848	-2.1230799466	-0.6738562044	 0.085763
C	-0.261960493	-2.0102896167	 0.7017853408	-0.089416
N	-0.3282597848	-0.7457249765	 1.0955216439	-0.269061
C	 0.2374056729	-3.3047076187	-1.5306293843	 0.296615
C	 0.0555205722	-4.666150786	-0.8807896652	-0.493477
O	 0.5178891393	-3.1942573936	-2.7099140487	-0.326925
H	 0.2034330671	 1.824434861	-0.9281004683	 0.145987
H	-1.01795568	 1.7871353575	 0.3706393096	 0.156257
H	 0.7117107014	 1.750837987	 0.7795721912	 0.156273
H	 0.4237308489	-0.4003698292	-2.0619513595	 0.161898
H	-0.4470211466	-2.7993671742	 1.4161469304	 0.119759
H	 0.7640067502	-4.7966311868	-0.055258072	 0.138067
H	-0.9516830262	-4.7605857014	-0.4599534647	 0.138067
H	 0.2149584584	-5.4457262406	-1.6261561915	 0.13969
50.0926	75.4627	124.8937	154.5848	154.9201	253.4889	325.5385	392.7197	507.6264	565.0627	611.206	656.8352	689.2387	724.8781	846.1343	898.514	941.5698	995.0911	1015.7635	1045.2127	1077.89	1108.8699	1153.1881	1221.7129	1244.4224	1315.2154	1377.5074	1395.3723	1427.2594	1457.2808	1467.343	1473.5696	1476.5049	1486.8321	1536.3342	1580.1612	1766.6471	3036.4838	3056.0731	3097.8691	3125.6552	3153.71	3153.8909	3244.1962	3273.3997
CN1C=C(C=N1)C(C)=O	Cn1cc(cn1)C(=O)C	
InChI=1S/C6H8N2O/c1-5(9)6-3-7-8(2)4-6/h3-4H,1-2H3	InChI=1S/C6H8N2O/c1-5(9)6-3-7-8(2)4-6/h3-4H,1-2H3
