18
gdb 41919	2.27588	2.22453	1.90867	1.4656	69.55	-0.1966	0.0595	0.2561	855.0944	0.151545	-439.042951	-439.036319	-439.035375	-439.073714	27.378	
C	-0.0267295418	 1.5165464459	 0.0652515762	-0.155691
N	 1.3085052091	 2.1082822962	-0.0776710448	-0.301459
C	 2.2487355344	 1.3457072435	-0.8699920795	-0.092702
C	 2.76433493	 0.0573707437	-0.2289276434	 0.05136
O	 2.2854442183	-0.2450641905	 1.0489092162	-0.253597
C	 0.9271412522	-0.6566113662	 1.1181253065	-0.061978
C	 0.0449097439	-0.0138522365	 0.0459401016	 0.032006
O	 0.5196550098	-0.4357533237	-1.2359051063	-0.263163
C	 1.8404071405	-0.0054254776	-1.4256987566	 0.035334
H	-0.4733855133	 1.8595383109	 1.0073175278	 0.101549
H	-0.7119441503	 1.8000642735	-0.7492077964	 0.095094
H	 1.2365884098	 3.0490255889	-0.4390596161	 0.226035
H	 2.945391855	 1.9536360601	-1.437570762	 0.088971
H	 3.8071021723	-0.2242482345	-0.3397603712	 0.095328
H	 0.8539395505	-1.7474014366	 0.9933493883	 0.099811
H	 0.5766391041	-0.3971905888	 2.122421915	 0.108562
H	-0.9670622712	-0.4187789296	 0.1394491896	 0.092485
H	 2.2193561767	-0.3495464387	-2.3825392751	 0.102056
130.6868	219.1755	336.922	364.1077	453.9263	478.5369	568.2826	619.779	663.1123	716.3455	750.5337	779.525	794.5019	892.8408	909.872	919.5786	952.2646	981.8691	1032.4419	1084.5421	1089.1607	1100.6118	1112.0089	1133.472	1172.7194	1204.9058	1240.3832	1255.3224	1271.6392	1311.6232	1315.4153	1353.5548	1372.0956	1400.2319	1411.183	1451.8825	1489.427	1496.6027	1510.2301	2970.3378	2991.1434	3030.977	3071.3525	3076.0978	3145.2126	3153.2932	3164.2335	3576.7525
C1NC2C3OCC1OC23	C1N[C@H]2[C@H]3OC[C@@H]1O[C@@H]23	
InChI=1S/C6H9NO2/c1-3-2-8-5-4(7-1)6(5)9-3/h3-7H,1-2H2	InChI=1S/C6H9NO2/c1-3-2-8-5-4(7-1)6(5)9-3/h3-7H,1-2H2/t3-,4+,5-,6+/m1/s1
