19
gdb 103086	2.29725	1.22502	1.02526	4.1943	76.5	-0.2432	0.0239	0.2671	1244.3362	0.158013	-419.19734	-419.187083	-419.186139	-419.232486	36.852	
C	-0.1223232997	 1.5939997828	-0.1785785557	-0.477979
C	-0.0791964554	 0.0831851101	-0.0991483441	 0.269692
C	-1.2975217043	-0.5659079197	 0.5356458199	-0.130585
O	-1.4068533797	-0.3359768234	 1.9307220171	-0.414093
C	 0.6339005886	-0.7148664619	-1.1773965283	-0.035016
N	 1.3234242646	-0.1534667948	-2.301502151	-0.532283
C	 1.2481431493	-0.6165624698	 0.2147346262	-0.236221
C	 2.4406548473	 0.1604856898	 0.3837210897	 0.299104
N	 3.3987087006	 0.8029245872	 0.4863473265	-0.354994
H	 0.7466508488	 2.0050393708	-0.6956095631	 0.134733
H	-1.020021473	 1.919457332	-0.7172427433	 0.119386
H	-0.1438515157	 2.0438789275	 0.8199645373	 0.128341
H	-2.2017647153	-0.2317032955	 0.0020409034	 0.094154
H	-1.2399919081	-1.6539148929	 0.4239164419	 0.11043
H	-1.5974884163	 0.596507998	 2.0707113755	 0.288768
H	 0.1968469001	-1.6890935583	-1.3903327022	 0.105634
H	 0.7039529658	 0.3911957462	-2.8911041918	 0.237961
H	 2.1007825197	 0.435551896	-2.0248000039	 0.253421
H	 1.2008948527	-1.4951636642	 0.849124416	 0.139548
72.0137	116.3258	133.208	161.3814	172.2261	184.3851	248.901	290.3181	335.1985	352.4513	373.9214	438.2574	559.12	570.7886	644.6209	716.6435	773.3663	845.5359	870.0534	948.487	956.8429	985.6326	1038.813	1076.5632	1100.0832	1119.5492	1165.9631	1216.7729	1237.7699	1277.6137	1339.2663	1360.7899	1381.9552	1414.9945	1427.0453	1437.2409	1489.1861	1499.2873	1502.6627	1658.6347	2343.4601	2978.1042	3031.4729	3068.4093	3089.3048	3116.9913	3131.3559	3170.1973	3512.8546	3596.1964	3827.4195
CC1(CO)C(N)C1C#N	C[C@@]1(CO)[C@@H](N)[C@H]1C#N	
InChI=1S/C6H10N2O/c1-6(3-9)4(2-7)5(6)8/h4-5,9H,3,8H2,1H3	InChI=1S/C6H10N2O/c1-6(3-9)4(2-7)5(6)8/h4-5,9H,3,8H2,1H3/t4-,5+,6+/m1/s1
