17
gdb 47764	2.00581	1.68871	1.24513	4.2007	72.55	-0.2382	-0.0441	0.1941	1066.3226	0.137924	-418.036478	-418.028375	-418.027431	-418.069469	30.234	
O	 0.0420907203	-0.0373601818	-0.1004302716	-0.296912
C	-0.0276280512	 1.1612554955	-0.0064739093	 0.396953
C	-1.3190462323	 1.955033164	 0.0144105633	-0.308088
C	-1.3054800336	 3.054420141	-1.0720431428	-0.211136
C	-0.0187942995	 3.8868231579	-0.9899897221	-0.173237
N	 1.2086784495	 3.0815297799	-1.0359047781	-0.286873
C	 1.2569896942	 2.0414520554	 0.0016077653	-0.231325
C	 1.442040471	 2.6445657137	 1.3285007409	 0.298908
N	 1.5408095825	 3.0984741161	 2.3868651754	-0.321926
H	-2.1569194218	 1.2646487147	-0.1045211929	 0.129279
H	-1.4020200616	 2.4281996171	 1.0023677107	 0.146128
H	-1.3721060927	 2.585244666	-2.0620999619	 0.109104
H	-2.1867799484	 3.6966439257	-0.9649469275	 0.113583
H	 0.0283070838	 4.609873629	-1.8095517868	 0.117996
H	-0.0015746718	 4.4628151977	-0.0564914234	 0.135862
H	 1.2947988637	 2.6269283223	-1.9401054796	 0.234774
H	 2.1024323578	 1.3756783258	-0.1948422495	 0.146911
75.5861	127.6641	139.6411	227.3935	323.3763	379.463	400.2596	449.9803	492.7912	557.769	608.0388	709.5209	752.124	754.1427	859.7429	891.6337	907.4749	960.1779	1004.0756	1033.927	1093.3583	1124.3811	1158.0677	1198.008	1237.3379	1252.3924	1282.5489	1337.8691	1352.9912	1374.9767	1381.8925	1466.5062	1482.8423	1490.7427	1496.6454	1830.7602	2354.293	3023.7012	3030.0595	3039.1297	3073.8089	3080.9428	3093.1761	3112.9798	3517.5034
O=C1CCCNC1C#N	O=C1CCCN[C@H]1C#N	
InChI=1S/C6H8N2O/c7-4-5-6(9)2-1-3-8-5/h5,8H,1-3H2	InChI=1S/C6H8N2O/c7-4-5-6(9)2-1-3-8-5/h5,8H,1-3H2/t5-/m0/s1
