15
gdb 11875	4.846	1.67875	1.41349	4.2081	63.06	-0.2493	0.0549	0.3042	878.7092	0.11971	-399.802872	-399.796109	-399.795165	-399.834067	25.659	
N	-0.1474582101	 1.2345876567	-0.1785286941	-0.577369
C	-0.0300835684	 0.0012432789	 0.0282274555	 0.484365
O	 1.1307078385	-0.6977594023	 0.2028987763	-0.252084
C	 0.8170052873	-2.0488304057	 0.5570030357	-0.174043
C	-0.6388564771	-2.1662762717	 0.1521647137	 0.41248
C	-1.1760307553	-3.1272083818	-0.8638860869	-0.323461
C	-1.590986921	-3.2177767909	 0.5985466119	-0.338202
O	-1.0999112696	-0.8271038811	 0.1100202827	-0.248578
H	 0.7672988769	 1.6790449518	-0.1633357958	 0.231675
H	 1.4795631388	-2.7233703451	 0.0101155516	 0.130967
H	 0.9663685758	-2.1842841906	 1.6354648264	 0.12315
H	-1.9073101187	-2.7418935245	-1.5648874581	 0.141091
H	-0.5072496174	-3.883093848	-1.2624100179	 0.122241
H	-1.2081979477	-4.0347164387	 1.2016562899	 0.124911
H	-2.593325352	-2.8939887671	 0.8542513692	 0.142856
82.3705	149.5348	259.5429	305.5481	445.5265	485.4721	521.2734	713.2367	718.3592	761.8983	802.3514	815.1696	878.4746	916.4173	938.2588	959.0306	988.3434	1046.6836	1068.4101	1080.6719	1085.7968	1104.0121	1188.1613	1213.1096	1245.2123	1302.2283	1376.7884	1417.7885	1451.7573	1503.959	1522.7242	1804.4755	3026.8781	3103.866	3133.5346	3135.9011	3220.7706	3234.1782	3538.8258
N=C1OCC2(CC2)O1	[NH][C]1OCC2(CC2)O1	
InChI=1S/C5H7NO2/c6-4-7-3-5(8-4)1-2-5/h6H,1-3H2	InChI=1S/C5H7NO2/c6-4-7-3-5(8-4)1-2-5/h6H,1-3H2
