20
gdb 16558	2.96266	2.48699	1.99058	0.2318	78.04	-0.232	0.0297	0.2617	802.258	0.181859	-311.901271	-311.894915	-311.89397	-311.931364	26.818	
C	-0.0169248292	 1.5528107387	 0.0032683677	-0.201564
C	 1.4736518112	 2.0095113286	-0.0647201827	-0.199514
C	 2.2733541763	 0.6951828997	 0.1312351247	-0.036809
C	 1.3849010042	-0.3189139418	-0.612757092	-0.218968
C	 0.0160861747	-0.0030760792	 0.0218106802	 0.001865
C	-0.0087667246	-0.5615401009	 1.4597269421	-0.253668
C	 1.2697701665	-0.2505240176	 2.1992470344	-0.04494
C	 2.314204932	 0.3227385981	 1.6002200879	-0.064603
H	-0.5260751849	 1.949506655	 0.8864504262	 0.095832
H	-0.5695507967	 1.9149697959	-0.868721297	 0.09393
H	 1.7026565937	 2.4443606989	-1.0440640359	 0.089486
H	 1.7172260424	 2.7611087639	 0.6906284168	 0.094072
H	 3.2857486364	 0.7650641478	-0.2761639408	 0.056372
H	 1.3766245981	-0.1116165854	-1.6891102523	 0.084693
H	 1.7015405629	-1.3558217902	-0.4653167629	 0.091277
H	-0.8192400382	-0.4258833393	-0.5438998692	 0.056726
H	-0.8667816688	-0.1450729048	 2.0061281439	 0.098456
H	-0.1730945288	-1.6496193135	 1.4441093168	 0.09825
H	 1.3143212282	-0.513502522	 3.2536540932	 0.079846
H	 3.2129572146	 0.5595842882	 2.164051409	 0.079261
136.2437	269.8428	345.4394	404.1574	448.2804	501.929	618.1216	699.5654	749.1834	785.9401	803.486	839.5056	882.3956	888.3345	915.0149	945.2038	967.4376	975.1448	997.423	1010.7001	1042.9676	1075.2427	1091.4185	1139.389	1173.934	1177.7724	1203.4335	1222.0425	1255.1394	1269.4013	1309.5508	1328.8294	1339.1124	1346.8484	1357.5314	1381.3485	1413.5323	1473.5385	1487.238	1489.6012	1511.3746	1711.7544	2992.0647	3019.416	3032.739	3036.2689	3049.7655	3062.2903	3070.196	3082.5401	3087.2847	3101.6959	3141.8044	3166.5001
C1CC2CC1CC=C2	C1C[C@@H]2C[C@H]1CC=C2	
InChI=1S/C8H12/c1-2-7-4-5-8(3-1)6-7/h1-2,7-8H,3-6H2	InChI=1S/C8H12/c1-2-7-4-5-8(3-1)6-7/h1-2,7-8H,3-6H2/t7-,8+/m1/s1
