23
gdb 36909	4.59265	0.79877	0.74488	0.1015	90.8	-0.2335	0.0314	0.2648	1609.441	0.207271	-351.157174	-351.148338	-351.147394	-351.191474	34.057	
C	-0.1462291094	 1.5416663194	-0.1923857351	-0.236165
C	-0.2086032828	 0.0281009299	-0.2194417353	 0.040008
C	-0.1952080994	-0.7561411955	 1.0700937928	-0.254748
C	-1.4500520266	-0.6965340691	 0.2323516059	-0.281162
C	 1.2754158632	 2.102545828	-0.0752956864	 0.053323
C	 2.2099916486	 1.7812450322	-1.2768632045	-0.259323
C	 3.0770995693	 3.0129126257	-1.3864699733	-0.064912
C	 2.6046139428	 4.0229271931	-0.6585270745	-0.060631
C	 1.3359303517	 3.6490763974	 0.0692991053	-0.277505
H	-0.6184476531	 1.9479147808	-1.0986428586	 0.0917
H	-0.7474536206	 1.9049998467	 0.6524440822	 0.086958
H	 0.3227087561	-0.4293679668	-1.0504002202	 0.08274
H	 0.355669848	-1.6894662878	 1.1087430995	 0.108117
H	-0.1832804095	-0.197016408	 2.0005590853	 0.107836
H	-2.2773334807	-0.0994697574	 0.6029920254	 0.10796
H	-1.7548752348	-1.5887825077	-0.3035751286	 0.108308
H	 1.7382525876	 1.6703051203	 0.8204263392	 0.076034
H	 2.7866833524	 0.8619409235	-1.1241716831	 0.100954
H	 1.6366574772	 1.6313213706	-2.2051556032	 0.098773
H	 3.9550092904	 3.055374944	-2.0222866489	 0.086977
H	 3.037703922	 5.0162288707	-0.6088702514	 0.087366
H	 0.4645798133	 4.1308227569	-0.4006245881	 0.099011
H	 1.3293306939	 3.9670378727	 1.1185203359	 0.098384
64.4936	75.6033	108.1594	145.7406	295.7366	322.9795	394.7627	410.7595	435.6373	620.2623	716.4343	774.7923	778.9905	806.7825	821.5141	842.2671	882.8796	920.7113	935.7379	956.0416	973.9285	975.3603	980.8554	1045.2171	1052.35	1063.1456	1079.0041	1104.131	1133.0029	1138.6056	1152.8661	1162.0114	1198.8317	1212.6288	1230.2263	1279.3299	1288.5492	1298.5512	1331.3358	1337.6933	1375.3239	1382.1142	1419.3748	1469.6947	1480.7771	1484.4303	1492.8801	1508.5816	1689.2339	2986.1586	2988.6185	2998.9431	3019.9996	3036.6613	3048.1316	3057.3463	3126.1106	3130.5856	3136.8489	3176.8027	3202.7617	3203.4588	3218.8976
C(C1CC1)C1CC=CC1	C(C1CC1)[C@H]1CC=CC1	
InChI=1S/C9H14/c1-2-4-8(3-1)7-9-5-6-9/h1-2,8-9H,3-7H2	InChI=1S/C9H14/c1-2-4-8(3-1)7-9-5-6-9/h1-2,8-9H,3-7H2
