17
gdb 98570	4.16897	1.0304	0.83925	3.2386	72.48	-0.247	-0.0318	0.2152	1358.1364	0.136881	-455.190893	-455.18185	-455.180905	-455.226043	30.831	
C	-0.1699311207	 1.3951133067	 0.0271576423	-0.334797
N	-0.0345007749	-0.0416022887	 0.1281153988	-0.310476
C	 0.7523081107	-0.6380083942	 1.0566756765	 0.334261
O	 1.423999367	-0.0703742734	 1.8957936655	-0.3662
C	 0.7112893169	-2.1468142967	 0.9418164186	 0.349129
N	 0.024019198	-2.7864368166	 0.0819973266	-0.332081
C	 0.2787570693	-4.2140761491	 0.3289247069	-0.192186
C	 1.2673591245	-4.2255332969	 1.5255872959	-0.111801
O	 1.4664459478	-2.8233194365	 1.8271177941	-0.234905
H	 0.4533175142	 1.8405139404	 0.8038279479	 0.170171
H	 0.1640502057	 1.7582494012	-0.9512301018	 0.129556
H	-1.2089347009	 1.7081759298	 0.1791457893	 0.129547
H	-0.5311234008	-0.656607432	-0.4997968481	 0.265452
H	-0.6622375551	-4.7272264681	 0.5524857234	 0.124506
H	 0.6969318342	-4.6788431491	-0.5699055204	 0.124505
H	 0.8690246854	-4.7111269107	 2.4200788919	 0.127662
H	 2.2405618587	-4.662299526	 1.2874712425	 0.127658
53.5454	84.5198	92.6807	113.7534	161.0344	207.3741	310.552	386.0117	484.5584	548.9238	608.6679	757.0377	802.3059	809.3274	829.7934	921.3638	978.3273	987.1046	1022.1691	1055.4807	1117.9392	1153.0994	1180.5053	1213.4897	1219.0058	1246.4991	1281.9106	1350.6125	1397.5543	1443.2924	1496.1414	1498.8829	1500.1969	1525.7434	1575.8613	1706.2398	1797.8371	3028.0359	3044.672	3063.3061	3073.8643	3079.5853	3112.1968	3150.422	3612.5703
CNC(=O)C1=NCCO1	CNC(=O)C1=NCCO1	
InChI=1S/C5H8N2O2/c1-6-4(8)5-7-2-3-9-5/h2-3H2,1H3,(H,6,8)	InChI=1S/C5H8N2O2/c1-6-4(8)5-7-2-3-9-5/h2-3H2,1H3,(H,6,8)
