20
gdb 97447	5.40853	0.58245	0.55617	2.9097	81.58	-0.2413	0.0307	0.272	2017.5493	0.168431	-440.253867	-440.243524	-440.24258	-440.291457	35.947	
C	-0.0685452462	 1.3538317232	 0.2117104975	-0.313666
N	-0.0638027581	-0.0776089395	 0.4245240905	-0.207333
C	-1.0488777491	-0.7282781416	-0.0108615363	 0.136898
O	-1.1202388109	-2.0628448439	 0.1480564164	-0.208741
C	-2.2925839081	-2.6895487531	-0.3918449344	-0.093673
C	-2.1789392133	-4.1687861999	-0.1588611952	-0.037523
C	-2.4851870023	-4.732798556	 1.2153249715	-0.312799
C	-3.4201283571	-4.9874529374	 0.0631960474	 0.090526
O	-4.6451264196	-4.3125976573	 0.000452149	-0.41815
H	 0.8201318465	 1.645449472	-0.3602061652	 0.125322
H	-0.9587597594	 1.7266648487	-0.3223550364	 0.092978
H	-0.0072758889	 1.8710420738	 1.1764083104	 0.125042
H	-1.908024791	-0.2828718542	-0.5390923363	 0.069598
H	-3.1927567573	-2.2958638724	 0.0919175315	 0.119016
H	-2.3623543271	-2.4729509154	-1.4665276129	 0.108574
H	-1.3795767301	-4.6490082597	-0.7145274621	 0.100374
H	-1.8767897701	-5.5461029501	 1.5942181056	 0.118022
H	-2.8163631271	-4.0225521145	 1.9657369342	 0.121879
H	-3.4331341142	-5.9875596585	-0.3693267511	 0.09218
H	-5.2168541163	-4.6722389942	 0.6864580659	 0.291474
16.0391	49.0147	96.3864	111.4983	206.4696	209.2901	240.3898	300.0868	309.5426	349.0529	425.6816	478.6871	528.4576	647.7237	776.1401	837.7988	909.5714	923.1645	983.6829	990.2667	1025.734	1049.0124	1066.6954	1090.9133	1136.0186	1141.5614	1153.7104	1177.4605	1183.6311	1239.9197	1253.8206	1271.9377	1305.8971	1362.1348	1405.5473	1423.7154	1443.4186	1451.6227	1480.5717	1491.343	1505.8813	1517.2947	1779.7356	2960.6099	2979.2804	3012.2711	3053.6647	3072.7429	3073.5884	3101.9438	3136.0728	3160.3562	3225.483	3810.0639
CN=COCC1CC1O	CN=COC[C@H]1C[C@H]1O	
InChI=1S/C6H11NO2/c1-7-4-9-3-5-2-6(5)8/h4-6,8H,2-3H2,1H3	InChI=1S/C6H11NO2/c1-7-4-9-3-5-2-6(5)8/h4-6,8H,2-3H2,1H3/t5-,6-/m1/s1
