18
gdb 35047	2.56696	1.42036	1.41247	4.1864	81.	-0.2475	0.0022	0.2497	1043.1654	0.150408	-364.832173	-364.824575	-364.823631	-364.864382	29.601	
N	-0.0895900277	-1.1894931805	 0.0027757827	-0.351417
C	-0.0538276394	-0.0325490834	-0.001808795	 0.306252
C	-0.0235410739	 1.4006775661	 0.0011947923	-0.205514
C	 0.4880721789	 2.1597910808	 1.2292057443	-0.054668
C	 1.029162622	 1.4015250973	 2.4398192002	-0.243131
C	 2.569431795	 1.4182791279	 2.5045771139	-0.254405
C	 3.1963679609	 1.1210259784	 1.1639076906	-0.044786
C	 2.6109200154	 1.4427718158	 0.0098770961	-0.069865
C	 1.3110370883	 2.1578995556	-0.0247054835	-0.079927
H	-0.8444868839	 1.8553780562	-0.5434542581	 0.129822
H	-0.0710753678	 3.0640000244	 1.444448552	 0.100493
H	 0.6097439782	 1.8308069996	 3.3543979758	 0.103469
H	 0.6954676473	 0.3594053759	 2.4038831907	 0.136997
H	 2.9248216976	 2.3959379757	 2.8619390635	 0.114314
H	 2.9102401731	 0.6896017303	 3.2475073218	 0.111879
H	 4.1651223355	 0.6291903616	 1.1586209383	 0.09777
H	 3.0823977321	 1.2086405088	-0.9401222041	 0.097301
H	 1.2823602984	 3.0489573194	-0.6463880415	 0.105417
90.0486	123.4516	186.1326	273.4952	370.3733	438.2934	474.2116	513.4391	608.6749	623.1055	724.2295	740.652	781.484	790.3875	836.9104	898.1015	940.005	976.3768	995.6145	1008.047	1009.8941	1058.9725	1077.389	1100.0608	1132.104	1193.798	1210.7277	1231.7949	1271.724	1339.907	1355.4843	1360.7381	1393.2481	1417.3669	1422.7587	1478.6884	1495.6737	1711.5678	2348.5118	3003.3951	3048.6815	3068.0571	3090.2577	3137.5294	3159.0323	3159.794	3170.4561	3180.8815
N#CC1C2CCC=CC12	N#C[C@H]1[C@H]2CCC=C[C@@H]12	
InChI=1S/C8H9N/c9-5-8-6-3-1-2-4-7(6)8/h1,3,6-8H,2,4H2	InChI=1S/C8H9N/c9-5-8-6-3-1-2-4-7(6)8/h1,3,6-8H,2,4H2/t6-,7+,8-/m1/s1
