20
gdb 32593	2.70237	1.22966	0.91875	1.8433	84.12	-0.1621	0.059	0.2211	1321.6461	0.171754	-399.354974	-399.344927	-399.343983	-399.390829	36.707	
C	-0.0734403748	 1.5939531504	 0.1034651296	-0.369978
C	-0.0243948918	 0.0669619022	-0.0063520041	-0.141975
N	-1.3408840801	-0.5460275438	-0.0173933552	-0.010474
C	-2.0751596569	-0.8620897991	 1.1181877654	-0.193986
C	-3.3383254375	-1.241444965	 0.7238193395	 0.248601
N	-4.4286547277	-1.5847960169	 1.5514090804	-0.607852
C	-3.3746757798	-1.1660334228	-0.6992013724	-0.301737
C	-2.1324819513	-0.7345710005	-1.1203557936	 0.278357
N	-1.6319935076	-0.4234699915	-2.4067459781	-0.613035
H	 0.9403024774	 2.0061104097	 0.1442959834	 0.109127
H	-0.5855716702	 2.0186498983	-0.7637093705	 0.137508
H	-0.6085930391	 1.9013909771	 1.0065473349	 0.124745
H	 0.4959287715	-0.2206490291	-0.9228463238	 0.114678
H	 0.5348266852	-0.3601112757	 0.8329511191	 0.107794
H	-1.6273275227	-0.8024784078	 2.0973670942	 0.09425
H	-4.1296642591	-1.8444099403	 2.4834591603	 0.23244
H	-4.9676661363	-2.3516544142	 1.167184642	 0.234921
H	-4.2082934124	-1.4167810229	-1.3387380721	 0.072325
H	-2.3958690022	-0.2057401819	-3.0350671935	 0.244238
H	-1.1158882746	-1.1974641263	-2.8170840655	 0.240053
24.1959	79.0789	116.5912	184.7847	215.3215	217.6975	296.6326	300.6635	313.8182	411.3121	504.6377	589.0744	610.473	636.2975	649.9712	658.3774	730.335	776.9453	795.7008	823.2397	835.4282	963.7111	1008.5581	1092.9516	1101.0555	1108.5924	1156.3619	1193.611	1210.7001	1255.341	1310.2466	1382.2472	1394.7718	1405.3464	1447.1102	1475.5159	1489.3336	1504.8297	1512.8264	1548.2288	1627.8752	1653.4903	1660.5361	3040.3342	3050.0851	3099.0161	3113.8662	3131.4493	3233.5732	3253.4625	3479.8924	3520.4718	3587.7332	3607.604
CCN1C=C(N)C=C1N	CCn1cc(N)cc1N	
InChI=1S/C6H11N3/c1-2-9-4-5(7)3-6(9)8/h3-4H,2,7-8H2,1H3	InChI=1S/C6H11N3/c1-2-9-4-5(7)3-6(9)8/h3-4H,2,7-8H2,1H3
