19
gdb 87285	2.71364	1.31124	1.01497	3.2258	76.67	-0.2522	-0.038	0.2142	1223.3477	0.156582	-423.004235	-422.994976	-422.994032	-423.038399	33.938	
C	 0.1938341477	 1.3057539301	-0.2628044335	-0.437831
C	 0.2695248197	-0.1446778794	 0.1289835425	 0.036957
O	 1.5652348697	-0.7192928029	 0.2747740163	-0.270675
C	 0.7506330149	-0.6608700483	 1.4454583571	 0.266832
C	 1.1890157806	 0.3180084944	 2.5027266343	 0.108363
O	 1.9465989666	 1.2381509617	 2.331840317	-0.250926
C	 0.2586382217	-1.9750309097	 1.9832469565	-0.097351
C	 0.2560124568	-3.20274271	 1.1140741542	-0.27208
C	 1.2486832369	-3.0889017795	 2.2420372897	-0.264055
H	 0.9151653859	 1.901244496	 0.2972303134	 0.16455
H	 0.4101353203	 1.4072965218	-1.3315798349	 0.131963
H	-0.8153792573	 1.6938328934	-0.0886034344	 0.12145
H	-0.442029067	-0.8053936121	-0.3711699851	 0.096829
H	 0.7342299276	 0.1223492034	 3.5002163699	 0.079025
H	-0.555229747	-1.8771477609	 2.6970038559	 0.093529
H	-0.5706556207	-3.8963962868	 1.2166906918	 0.113544
H	 0.6445507028	-3.0956012563	 0.107857562	 0.132789
H	 2.2827530329	-2.9060905548	 1.9713529319	 0.131463
H	 1.1108526179	-3.7023913502	 3.1249227656	 0.115624
71.2648	117.2859	157.1154	187.217	194.9764	219.5443	262.4654	313.6605	424.0589	476.2786	487.0178	616.5728	746.4959	790.6356	814.4934	834.5821	867.5044	894.7672	933.0224	988.2728	1018.3908	1055.6962	1066.0846	1092.3357	1096.7666	1132.6071	1138.9905	1161.9534	1202.8556	1204.1184	1230.5473	1335.7155	1399.3928	1403.7391	1426.1058	1451.3892	1458.411	1490.7795	1499.1454	1503.3899	1825.5834	2875.8914	3041.143	3088.169	3100.7289	3138.194	3138.7646	3144.0346	3157.1844	3221.1392	3235.113
CC1OC1(C=O)C1CC1	C[C@H]1O[C@]1(C=O)C1CC1	
InChI=1S/C7H10O2/c1-5-7(4-8,9-5)6-2-3-6/h4-6H,2-3H2,1H3	InChI=1S/C7H10O2/c1-5-7(4-8,9-5)6-2-3-6/h4-6H,2-3H2,1H3/t5-,7+/m1/s1
