25
gdb 121933	4.07677	0.60431	0.55544	1.4804	90.26	-0.2577	0.077	0.3347	2109.8254	0.227122	-389.485783	-389.474607	-389.473663	-389.523109	40.449	
C	-0.0686444064	 1.556840012	 0.0496973938	-0.378438
C	-0.0650377966	 0.0288198406	-0.0481741042	-0.165594
C	 0.7319647228	-0.4945411923	-1.2473993507	-0.159069
C	 0.7357895976	-2.0218376716	-1.3580919987	-0.19753
C	 1.5930973568	-2.552757426	-2.5154304088	 0.102617
O	 2.9490590396	-2.1140148837	-2.4050359507	-0.432057
C	 1.500133761	-4.0586715066	-2.646551808	 0.011122
C	 0.4480441792	-4.6846701602	-3.5289913209	-0.266231
C	 1.9002247826	-4.7286202657	-3.9332673007	-0.272058
H	 0.9501556896	 1.9490029279	 0.1436886137	 0.113863
H	-0.5133310456	 2.0092881446	-0.8437746822	 0.112726
H	-0.6403184981	 1.9022762364	 0.9169430497	 0.108504
H	 0.3500781921	-0.3961415342	 0.8757762893	 0.090305
H	-1.0990452822	-0.3368530053	-0.109012148	 0.090945
H	 0.3185608529	-0.0669718419	-2.1719122485	 0.088061
H	 1.7683580742	-0.1423033304	-1.1895654964	 0.106049
H	 1.1085518737	-2.4604756017	-0.4193217463	 0.078298
H	-0.2890999144	-2.3957062827	-1.4807374436	 0.096888
H	 1.243134963	-2.1001276021	-3.4531608083	 0.077435
H	 3.3332677567	-2.5523547898	-1.6376208078	 0.273381
H	 1.7322588025	-4.5968061001	-1.7282794688	 0.071283
H	-0.0265264098	-5.6010014868	-3.1959056339	 0.110321
H	-0.2118171982	-4.0202842462	-4.0779506344	 0.111184
H	 2.2227145519	-4.0891478027	-4.7480312097	 0.118876
H	 2.420968755	-5.6783217315	-3.8817778661	 0.109119
51.5188	60.6821	91.4814	98.8779	142.9089	194.9681	240.1278	249.4851	268.4635	309.2942	325.0666	450.3683	488.6394	535.3203	736.6564	770.9951	788.297	828.3052	851.5472	900.0145	909.25	942.0474	945.4683	999.4834	1024.2727	1056.3934	1068.7844	1075.3299	1084.0929	1110.4563	1122.1893	1133.9116	1169.7508	1195.9624	1226.5033	1231.6452	1266.7082	1281.8447	1309.6687	1328.831	1338.7472	1375.8808	1397.5888	1409.5394	1412.6923	1430.7899	1469.9407	1477.4308	1486.2617	1499.8094	1499.9994	1505.7952	1513.3332	2989.6656	3006.1093	3013.974	3022.2341	3028.6828	3035.9519	3043.4751	3072.6027	3095.4983	3099.8384	3111.9837	3128.7319	3135.3843	3206.8672	3222.4459	3798.2701
CCCCC(O)C1CC1	CCCC[C@@H](O)C1CC1	
InChI=1S/C8H16O/c1-2-3-4-8(9)7-5-6-7/h7-9H,2-6H2,1H3	InChI=1S/C8H16O/c1-2-3-4-8(9)7-5-6-7/h7-9H,2-6H2,1H3/t8-/m1/s1
