17
gdb 10895	3.01274	1.93655	1.50849	3.9533	69.23	-0.2307	-0.015	0.2157	902.8934	0.141018	-363.842594	-363.834611	-363.833667	-363.874631	29.833	
C	-0.0568165455	 1.5968228853	 0.0388784775	-0.419377
C	 0.0472121918	 0.0788150186	 0.0038582683	-0.150592
C	 1.1222322485	-0.6043027742	-0.8972901674	 0.457402
O	 1.2805344416	-0.6645521641	-2.0817241793	-0.31637
C	 1.7313006936	-1.3071933697	 0.2920696013	-0.254681
N	 2.0704959321	-0.1927601289	 1.2555226083	-0.360537
C	 0.690184617	-0.6844158904	 1.1890873124	 0.329805
C	-0.0267444627	-1.2674345188	 2.3666322762	-0.507082
H	 0.88404275	 2.0351569522	 0.3792632363	 0.142976
H	-0.276489071	 1.9824727178	-0.9613625812	 0.132441
H	-0.858094157	 1.9265990492	 0.7086583727	 0.11312
H	-0.9154074389	-0.3792054554	-0.2598556594	 0.098232
H	 2.2488379671	-2.2569779719	 0.3509911819	 0.110357
H	 2.526342102	-0.6493776307	 2.0473397309	 0.232809
H	-0.3668533924	-0.4799773957	 3.048823216	 0.136596
H	-0.9066669957	-1.8359016711	 2.0484175722	 0.132514
H	 0.6260550195	-1.9409480821	 2.9325242634	 0.122387
103.8149	186.8978	204.4133	209.6192	238.5455	277.0987	362.6998	488.7731	534.9401	582.9155	647.3916	708.0299	766.7533	810.339	852.2091	947.5858	987.8749	992.1929	1025.2348	1073.2864	1093.6623	1105.5591	1124.321	1146.8864	1196.9147	1291.7815	1309.3315	1343.6314	1400.368	1407.0597	1439.2236	1481.1997	1492.6011	1497.6563	1504.6075	1893.409	3026.7733	3031.3427	3039.6561	3090.7753	3100.9214	3103.0294	3131.1969	3194.9557	3452.2662
CC1C(=O)C2NC12C	C[C@H]1C(=O)[C@H]2N[C@@]12C	
InChI=1S/C6H9NO/c1-3-4(8)5-6(3,2)7-5/h3,5,7H,1-2H3	InChI=1S/C6H9NO/c1-3-4(8)5-6(3,2)7-5/h3,5,7H,1-2H3/t3-,5+,6-/m0/s1
