18
gdb 51650	3.94889	0.98993	0.94305	3.7116	72.1	-0.2241	-0.0234	0.2008	1270.8861	0.147173	-439.061248	-439.053028	-439.052084	-439.09531	30.049	
O	-0.2777459445	 0.9016877996	 1.1065789871	-0.239412
C	 0.2273215804	 1.1725279024	 0.0488439929	 0.159934
C	 1.3436212745	 2.1891752964	-0.1412057436	-0.248738
N	 1.2309151586	 2.8481218322	-1.4326770434	-0.083483
C	 0.2092340901	 3.9116971063	-1.4721829605	-0.216724
C	 0.9810657534	 5.2182559231	-1.4800986898	 0.048743
O	 1.9898302252	 5.2763005855	-0.4632893823	-0.249856
C	 2.3778155284	 4.906443369	-1.7924793247	 0.046057
C	 2.4810583147	 3.4038041289	-1.9789024318	-0.207658
H	-0.0820959032	 0.6784736221	-0.9007295593	 0.07898
H	 1.3714024167	 2.8684601439	 0.722944595	 0.129629
H	 2.2756893821	 1.6069856649	-0.1289019647	 0.126461
H	-0.3992861212	 3.8472874019	-2.3854028806	 0.10824
H	-0.4678621161	 3.8231907905	-0.6165268848	 0.125343
H	 0.5013607852	 6.1588964642	-1.7371497335	 0.10073
H	 3.0462525627	 5.5902297337	-2.308946282	 0.100351
H	 3.3480981389	 2.9703705672	-1.4723974033	 0.115021
H	 2.576481384	 3.183124658	-3.0525010907	 0.106383
47.6912	68.9861	106.1153	236.1588	310.2882	359.4807	408.0064	431.9429	485.9344	677.5109	708.7076	778.8142	838.3315	867.9633	870.2297	904.9015	955.5843	990.8923	1017.2358	1046.8391	1050.978	1072.4171	1115.9432	1154.3737	1155.5426	1214.0576	1256.0128	1265.229	1312.4678	1316.3008	1326.3598	1350.7803	1364.977	1400.6839	1444.7009	1463.1086	1489.8875	1501.1478	1837.5679	2875.8048	2995.7884	2999.4618	3007.7659	3047.3021	3076.8766	3085.0186	3148.3274	3161.1448
O=CCN1CC2OC2C1	O=CCN1C[C@H]2O[C@H]2C1	
InChI=1S/C6H9NO2/c8-2-1-7-3-5-6(4-7)9-5/h2,5-6H,1,3-4H2	InChI=1S/C6H9NO2/c8-2-1-7-3-5-6(4-7)9-5/h2,5-6H,1,3-4H2/t5-,6+
