17
gdb 6495	3.8354	1.4599	1.36654	2.2178	64.66	-0.2599	0.0568	0.3168	980.9576	0.140874	-401.035233	-401.026713	-401.025769	-401.068093	31.702	
C	-0.0507736744	 1.6324500756	-0.58950023	-0.462729
C	-0.0444939678	 0.192252505	-0.1409488127	 0.473922
C	 1.185515812	-0.6580611487	-0.2625264366	-0.321742
C	 0.6694810079	-0.2449399861	 1.1021190267	-0.295727
O	-1.2351812336	-0.5182412824	-0.4706177969	-0.306086
C	-2.3401824707	-0.2386949944	 0.2750262272	 0.475824
N	-3.3711183554	-1.041252917	-0.1304464899	-0.559069
O	-2.3968842608	 0.566312533	 1.1731643251	-0.396652
H	 0.9193112916	 2.0951240097	-0.3867306813	 0.115932
H	-0.2405737218	 1.6990767946	-1.6662055844	 0.117019
H	-0.8209955537	 2.1950153246	-0.0571355577	 0.149803
H	 1.0423905665	-1.69070064	-0.5588531875	 0.120719
H	 2.0879069166	-0.1944537567	-0.6456230931	 0.113303
H	 1.2127915218	 0.5057469095	 1.6650182327	 0.118832
H	 0.1919697327	-1.0043824605	 1.709262392	 0.125621
H	-3.297164889	-1.5128004239	-1.0157603108	 0.263511
H	-4.2871425319	-0.7792816325	 0.1905311071	 0.267521
77.2661	104.0393	182.8111	225.5557	309.8733	312.836	349.5665	403.0632	440.6857	460.3774	517.2179	640.8323	754.2336	765.8163	785.8735	868.3181	876.8574	940.2203	970.9582	1034.3496	1051.6606	1068.8069	1077.3858	1112.827	1143.8512	1185.7004	1266.9151	1350.5665	1371.052	1415.4299	1457.0198	1480.8051	1497.7329	1513.9821	1609.5257	1835.4013	3039.763	3107.8091	3131.2526	3138.0168	3143.9865	3222.2762	3236.4241	3613.8104	3743.7468
CC1(CC1)OC(N)=O	CC1(CC1)OC(=O)N	
InChI=1S/C5H9NO2/c1-5(2-3-5)8-4(6)7/h2-3H2,1H3,(H2,6,7)	InChI=1S/C5H9NO2/c1-5(2-3-5)8-4(6)7/h2-3H2,1H3,(H2,6,7)
