18
gdb 81873	2.91165	1.52082	1.15518	4.6969	72.67	-0.2365	0.0548	0.2913	1097.5215	0.147303	-439.125871	-439.117338	-439.116394	-439.1589	31.861	
C	-0.0773184496	 1.4162084219	 0.0038118948	-0.342033
N	-0.0551057817	-0.0158738024	 0.2003563763	-0.120305
C	-1.2033328396	-0.8607993289	 0.123371041	-0.077312
C	-1.3428129914	-1.7033254624	-1.1389115992	-0.371348
C	-0.6220542674	-2.243352398	 0.07465576	 0.41316
C	-1.0791543441	-3.4399390969	 0.8546334791	-0.46682
O	 0.7892687247	-2.0817197671	 0.079457055	-0.277677
C	 1.1110704024	-0.7442792657	 0.113467622	 0.459256
O	 2.2383674158	-0.3335655469	 0.0604926149	-0.400082
H	 0.9527082679	 1.7715423323	 0.0610006984	 0.168951
H	-0.495958618	 1.6833623586	-0.97519477	 0.125425
H	-0.6715410475	 1.9065686597	 0.7825200275	 0.126647
H	-2.0627837206	-0.5875831691	 0.7267509691	 0.109392
H	-2.3196886136	-2.1259545466	-1.3482096077	 0.122776
H	-0.7604212798	-1.42018304	-2.0092254341	 0.130415
H	-2.1713470591	-3.4893890215	 0.8701788129	 0.12333
H	-0.7022084326	-4.3615142303	 0.4001918021	 0.14018
H	-0.7161949659	-3.3917587268	 1.8856027881	 0.136047
97.1851	154.2018	162.1078	202.2424	232.8197	269.789	317.5991	406.5544	479.8024	517.1235	594.5815	671.8186	752.5271	764.1773	798.4855	849.0187	925.0538	967.5851	975.7726	1012.2499	1036.0567	1073.8004	1084.8348	1116.08	1139.0504	1164.2401	1249.8162	1270.488	1328.0512	1375.1199	1415.8796	1429.3159	1453.7356	1476.2147	1479.5122	1491.887	1502.2464	1520.5394	1874.1671	3015.252	3041.6845	3072.5196	3111.3915	3121.1319	3130.9414	3147.0562	3160.7924	3226.2205
CN1C2CC2(C)OC1=O	CN1[C@H]2C[C@@]2(C)OC1=O	
InChI=1S/C6H9NO2/c1-6-3-4(6)7(2)5(8)9-6/h4H,3H2,1-2H3	InChI=1S/C6H9NO2/c1-6-3-4(6)7(2)5(8)9-6/h4H,3H2,1-2H3/t4-,6+/m0/s1
