12
gdb 35983	10.01188	0.45242	0.43402	3.5795	106.24	-0.2506	-0.0657	0.1849	2296.4458	0.075473	-361.148398	-361.139414	-361.13847	-361.183073	31.017	
C	 0.0514766847	-6.34253806	-0.0323648284	-0.687782
C	 0.0492354661	-5.1332275122	-0.0259049566	 0.174067
C	 0.0461317926	-3.7804690305	-0.0186467806	 0.008853
C	 0.0446771302	-2.5627165285	-0.0120845595	 0.589925
C	 0.0400551292	-1.2111180422	-0.0047831274	-0.374347
C	 0.0371487729	-0.0004698924	 0.0017466562	 0.223665
C	 0.0111447087	 1.4564392422	 0.0098287562	-0.513218
C	 1.351451105	 2.0589250644	 0.0002217055	 0.284324
N	 2.3976928886	 2.5463793112	-0.0071822407	-0.29117
H	 0.0553146143	-7.4046700688	-0.0380670975	 0.2003
H	-0.5425545207	 1.8321437215	-0.8610994192	 0.192692
H	-0.5257237516	 1.8227019153	 0.895196962	 0.192692
48.1249	74.7703	117.8128	195.2721	236.0632	333.3207	353.2187	372.6295	446.875	489.87	491.6312	562.6046	567.538	635.3572	646.9891	662.1304	904.0405	930.0502	981.3734	1230.7134	1295.9776	1354.1227	1440.5569	2158.6754	2302.394	2350.347	2374.296	3020.4465	3051.1003	3500.6294
C#CC#CC#CCC#N	C#CC#CC#CCC#N	
InChI=1S/C8H3N/c1-2-3-4-5-6-7-8-9/h1H,7H2	InChI=1S/C8H3N/c1-2-3-4-5-6-7-8-9/h1H,7H2
