21
gdb 64168	2.18159	1.45957	1.31026	1.2586	84.03	-0.2459	0.0427	0.2886	1140.8561	0.178797	-387.051205	-387.041072	-387.040128	-387.085485	38.583	
C	-0.483458469	 1.5099927029	 0.2499333102	-0.437985
C	 0.0128370655	 0.0893199377	 0.0320685517	 0.394071
C	-1.0442099525	-0.7620438243	-0.6643920279	-0.433609
O	 1.2507972656	 0.0781982511	-0.7356600855	-0.320667
C	 1.8757217519	-0.8376518605	 0.1740609489	-0.110272
C	 0.7548521894	-0.6404811477	 1.233418643	 0.029973
C	 1.1952479663	 0.2723629067	 2.3876627883	-0.456572
C	 0.1341581218	-1.84605254	 1.7551940113	 0.291697
C	-0.3662358135	-2.8405190525	 2.2111967226	-0.469952
H	 0.2838653675	 2.1498167645	 0.6880307638	 0.120385
H	-0.7715338528	 1.9429381516	-0.7135610931	 0.126193
H	-1.3643418062	 1.5185955551	 0.9002093135	 0.120076
H	-1.2971583114	-0.3076934252	-1.6273025606	 0.117964
H	-0.6830176761	-1.7768020168	-0.844962299	 0.125358
H	-1.9538749012	-0.8304720423	-0.0600482284	 0.119813
H	 1.936953432	-1.8554733728	-0.2304168605	 0.10379
H	 2.87551828	-0.5059261756	 0.4767310101	 0.103593
H	 1.7447501706	 1.1386991377	 2.0112442554	 0.127199
H	 0.3370465296	 0.6246972183	 2.9664296894	 0.127239
H	 1.8531024381	-0.2809592035	 3.0641545878	 0.127696
H	-0.8108080557	-3.7209558243	 2.6047673889	 0.19401
68.2878	145.8429	162.1132	181.7504	226.5546	249.4291	286.4278	323.1151	348.5603	365.0442	381.8301	467.7079	526.173	552.029	602.3632	624.0072	638.2412	673.9014	851.9694	890.0788	930.3989	935.2101	955.4161	988.5351	995.5362	1034.6943	1130.5859	1150.8662	1167.2586	1182.3745	1217.6559	1253.3538	1283.0916	1344.1727	1399.162	1406.6559	1415.8921	1468.6734	1476.2029	1487.0119	1492.227	1499.9492	1509.8105	1526.3479	2228.5843	3015.6206	3038.9296	3043.4232	3046.4215	3065.0808	3103.819	3114.9606	3115.7815	3124.6183	3128.4391	3139.4712	3501.1097
CC1(C)OCC1(C)C#C	CC1(C)OC[C@]1(C)C#C	
InChI=1S/C8H12O/c1-5-8(4)6-9-7(8,2)3/h1H,6H2,2-4H3	InChI=1S/C8H12O/c1-5-8(4)6-9-7(8,2)3/h1H,6H2,2-4H3/t8-/m0/s1
