14
gdb 124331	4.19765	1.16225	0.91532	0.5344	66.1	-0.2548	-0.0544	0.2004	1183.4209	0.101466	-470.063464	-470.055571	-470.054627	-470.096346	28.394	
C	 0.0070567468	 1.4981308878	-0.0357637412	-0.486944
C	-0.0014739074	-0.0024911351	 0.0508976239	 0.433724
O	 0.0088911975	-0.6547255317	 1.0639948053	-0.308631
N	-0.0240623927	-0.6733834059	-1.2003956107	-0.037653
C	-0.0359075531	-2.0189986041	-1.4055512307	 0.048382
N	-0.0563160722	-2.2858445545	-2.688729293	-0.358986
C	-0.056211738	-1.0321502852	-3.2501282108	 0.449895
O	-0.0741945253	-0.8500127294	-4.5703918847	-0.397435
N	-0.0373799839	-0.020971894	-2.4117424486	-0.327426
H	 0.8767528953	 1.8405050547	-0.6029593605	 0.168194
H	-0.8746222314	 1.8519099325	-0.5768767356	 0.168191
H	 0.0247104342	 1.9021664868	 0.975690898	 0.148867
H	-0.0286805176	-2.7229795777	-0.5891115465	 0.181404
H	-0.0858345723	-1.7266358142	-4.974346595	 0.318419
90.9834	130.2934	134.2284	186.0785	351.8207	381.2971	419.3213	428.0099	549.0143	572.5479	640.407	642.9046	770.4219	773.056	903.3723	958.7129	1016.4168	1035.8481	1058.9464	1120.4657	1213.389	1252.1127	1293.9337	1387.2106	1402.0219	1425.8085	1457.1108	1466.6008	1526.387	1661.1708	1828.6416	3062.5869	3128.3411	3172.9541	3286.3768	3809.567
CC(=O)N1C=NC(O)=N1	CC(=O)n1cnc(O)n1	
InChI=1S/C4H5N3O2/c1-3(8)7-2-5-4(9)6-7/h2H,1H3,(H,6,9)	InChI=1S/C4H5N3O2/c1-3(8)7-2-5-4(9)6-7/h2H,1H3,(H,6,9)
