20
gdb 12552	2.77682	2.06292	1.46347	0.9661	76.67	-0.234	0.0216	0.2556	945.1832	0.178774	-349.009645	-349.001805	-349.000861	-349.041647	30.212	
C	-0.4101435379	 1.4595365807	 0.0032522476	-0.379065
C	-0.0000976806	-0.0276559628	-0.0102856791	-0.030273
C	 0.631415903	-0.4144949486	-1.3541435275	-0.083028
O	 1.8236294914	 0.2787779299	-1.6700951165	-0.241834
C	 2.9891115279	-0.25762545	-1.0761590259	-0.068462
C	 3.2070137131	 0.1598074457	 0.379156259	-0.25218
C	 2.1565383188	-0.2737713693	 1.3730443005	-0.055731
C	 0.83489585	-0.3588262839	 1.207958893	-0.067704
H	 0.46498777	 2.0943303519	-0.1575117938	 0.13156
H	-1.1340044522	 1.6702239802	-0.7916912098	 0.108462
H	-0.8642758708	 1.7361018374	 0.9592039339	 0.110382
H	-0.9203535293	-0.6257483909	 0.0563212579	 0.073029
H	 0.8110454794	-1.50100432	-1.3789741089	 0.085119
H	-0.0748278662	-0.1723973752	-2.1573381231	 0.097331
H	 2.97475077	-1.3574016925	-1.1474492112	 0.087161
H	 3.8279833664	 0.1056468385	-1.6803083588	 0.100506
H	 4.1809040276	-0.2390418827	 0.6908075647	 0.099061
H	 3.3103678415	 1.2543441632	 0.4155283493	 0.119376
H	 2.541659441	-0.5041746164	 2.3649191599	 0.083784
H	 0.2514352372	-0.6455987252	 2.0818044587	 0.082506
82.2621	161.0132	220.2997	249.5921	292.1534	338.7088	400.2493	474.1925	498.2061	611.4103	723.0954	743.3301	777.3334	822.1601	885.0519	947.0585	960.3897	981.0446	1010.404	1021.6801	1059.0327	1081.6816	1120.9272	1151.0183	1171.9466	1237.5714	1263.0762	1298.5814	1323.5003	1344.056	1366.4487	1385.6228	1390.1624	1397.1241	1432.1922	1438.2713	1463.5751	1480.6138	1492.3045	1499.1058	1500.5808	1726.798	2971.2994	2978.0365	3003.0525	3003.7135	3034.7873	3046.3548	3053.5576	3063.497	3102.4223	3121.1867	3123.7874	3147.3063
CC1COCCC=C1	C[C@H]1COCCC=C1	
InChI=1S/C7H12O/c1-7-4-2-3-5-8-6-7/h2,4,7H,3,5-6H2,1H3	InChI=1S/C7H12O/c1-7-4-2-3-5-8-6-7/h2,4,7H,3,5-6H2,1H3/t7-/m1/s1
