21
gdb 72249	2.37765	1.6975	1.44754	1.7819	82.03	-0.2311	0.0873	0.3184	1049.4655	0.183122	-387.076702	-387.068368	-387.067424	-387.10899	32.926	
C	-0.0789992093	 1.5004266335	 0.0392332032	-0.504453
C	 0.0151154887	 0.0025178172	-0.0171348566	 0.287475
C	 0.8633310601	-0.7952484906	-1.0134382593	-0.30438
C	-0.0898201874	-2.0086363144	-0.7721114872	 0.032809
O	 0.4179901869	-2.8995376108	 0.2109745793	-0.266002
C	 0.5528829218	-2.1353672131	 1.4156680235	-0.107019
C	-0.2863595878	-0.8829052385	 1.1910923391	-0.174859
C	-1.091457094	-1.0543018728	-0.0668711352	 0.302278
C	-2.5801325117	-0.9771921977	-0.2222660406	-0.525868
H	 0.8506670824	 1.9428823119	 0.4172546136	 0.121103
H	-0.265009829	 1.9241153729	-0.9546356294	 0.116183
H	-0.8898946045	 1.828090663	 0.6987454852	 0.115318
H	 0.7622010895	-0.3939900008	-2.0271895659	 0.09421
H	 1.9248707681	-0.9618222916	-0.7978122321	 0.091691
H	-0.4077480698	-2.5920416828	-1.6360374464	 0.078767
H	 0.1790495766	-2.7348666124	 2.2542515671	 0.102257
H	 1.6117061205	-1.9092376205	 1.6054461556	 0.094345
H	-0.7443463612	-0.3929089192	 2.0436705585	 0.082951
H	-2.9979863123	-0.1560231944	 0.3699907794	 0.118764
H	-2.8713977722	-0.8116628381	-1.2660083915	 0.117817
H	-3.0623093955	-1.9032034709	 0.1128687695	 0.126613
170.3012	186.8712	197.7193	205.5953	228.5587	290.0596	293.2624	439.2698	483.2162	576.3444	615.3849	704.2749	739.6834	751.1079	839.9838	875.9702	911.0781	932.9167	944.4937	960.2187	1016.7263	1025.9963	1039.8936	1077.8777	1108.0315	1120.0749	1157.0059	1184.2246	1191.6639	1219.5195	1230.9631	1237.3037	1267.4321	1326.9773	1337.8746	1375.6057	1411.8581	1417.8014	1462.8273	1484.2637	1488.6915	1493.7254	1496.3533	1508.6884	1525.9182	2998.1842	3017.8845	3020.3382	3031.0857	3046.5793	3076.7042	3078.37	3082.5624	3088.9485	3091.5298	3120.9247	3174.5179
CC12CC3OCC1C23C	C[C@@]12C[C@H]3OC[C@@H]1[C@@]23C	
InChI=1S/C8H12O/c1-7-3-6-8(7,2)5(7)4-9-6/h5-6H,3-4H2,1-2H3	InChI=1S/C8H12O/c1-7-3-6-8(7,2)5(7)4-9-6/h5-6H,3-4H2,1-2H3/t5-,6+,7+,8+/m0/s1
