19
gdb 79982	2.24079	1.74466	1.45305	2.4971	80.5	-0.24	0.004	0.244	1024.3063	0.158366	-385.888772	-385.880302	-385.879357	-385.921294	32.906	
C	-0.1450013824	 1.6119213342	-0.0050252129	-0.436281
C	 0.0276342093	 0.1012419675	 0.0118611751	 0.007167
C	 1.1922812902	-0.5770267521	-0.7923971172	-0.205298
C	 2.4270299571	-0.0433008707	-0.0902648959	-0.096544
C	 2.1014738456	-0.063548976	 1.2153677124	-0.130384
C	 0.6819984866	-0.6115695098	 1.2598912785	 0.163405
C	-0.031124528	-0.814747967	 2.5734130719	-0.514219
C	 0.9415569151	-1.7752524079	 0.2115284745	 0.399392
O	 0.8977773028	-2.9599404827	 0.1887611193	-0.310383
H	 0.7907806746	 2.1274789532	 0.2218176737	 0.126729
H	-0.4929180684	 1.9474488165	-0.9874179282	 0.119395
H	-0.8945995259	 1.9200610102	 0.7316579877	 0.118653
H	-0.9244939279	-0.3902407472	-0.228591089	 0.082977
H	 1.1824750608	-0.6879246214	-1.8742181861	 0.079519
H	 3.3783641134	 0.1719483759	-0.5552821815	 0.109737
H	 2.7214258848	 0.1321990144	 2.0795138281	 0.105564
H	-0.2404912244	 0.1426056565	 3.0631754247	 0.123407
H	-0.9825079859	-1.3357911701	 2.428969521	 0.126136
H	 0.5740395526	-1.4151114134	 3.2603300237	 0.131027
137.1166	157.8641	189.8061	220.5375	230.9087	270.1632	318.9884	421.2228	513.9953	581.06	614.8193	659.1469	715.1181	737.819	769.7344	803.3405	820.494	897.406	906.1295	939.6341	979.29	1030.7351	1059.6936	1082.416	1098.1774	1105.7178	1153.3394	1167.2409	1208.4788	1254.6776	1281.9449	1359.1792	1392.3099	1405.3866	1416.2301	1490.1593	1491.7102	1496.7408	1498.6744	1588.6698	1910.7137	3024.0518	3033.4943	3039.682	3097.1258	3098.4981	3106.4616	3127.3285	3150.7245	3217.1087	3243.3105
CC1C2C=CC1(C)C2=O	C[C@H]1[C@H]2C=C[C@]1(C)C2=O	
InChI=1S/C8H10O/c1-5-6-3-4-8(5,2)7(6)9/h3-6H,1-2H3	InChI=1S/C8H10O/c1-5-6-3-4-8(5,2)7(6)9/h3-6H,1-2H3/t5-,6+,8-/m0/s1
