15
gdb 11582	6.429	0.8368	0.78623	3.9402	74.92	-0.2477	-0.0155	0.2323	1424.5301	0.118182	-362.655234	-362.64658	-362.645635	-362.689846	29.917	
N	-0.0135611544	 1.303051014	 0.3067436754	-0.521634
C	 0.0369405284	-0.0019429743	-0.100487976	 0.256023
O	 1.0652959585	-0.5492156011	-0.4523780156	-0.339071
C	-1.2515882844	-0.6714987177	-0.093649496	 0.047593
C	-2.2903513999	-1.2876067695	-0.1091050048	 0.057559
C	-3.5128000471	-2.0272325998	-0.1322895238	-0.169156
C	-3.7424647797	-3.0726191767	-1.2180624509	-0.249602
C	-3.5004309964	-3.5176184363	 0.188968478	-0.249968
H	 0.8581011447	 1.7961509565	 0.4118267233	 0.26324
H	-0.8509410223	 1.6936198056	 0.7020463745	 0.262875
H	-4.3923513226	-1.4794673274	 0.1920659995	 0.114959
H	-4.7457949634	-3.1422304288	-1.6223181003	 0.12438
H	-2.9478402547	-3.2086680628	-1.9413369674	 0.139458
H	-2.540267821	-3.9581477784	 0.4279473044	 0.139115
H	-4.3347807859	-3.8980017435	 0.7670085797	 0.124228
32.0791	80.6474	104.0977	161.0443	196.1657	253.5992	405.7319	491.5986	525.6915	564.4631	611.0467	678.1072	769.6194	791.8316	823.0652	869.7003	887.6867	1017.4202	1064.2814	1085.7932	1089.374	1115.6713	1161.0541	1202.6048	1218.7205	1343.7013	1397.2401	1467.4664	1496.6598	1607.2648	1768.1629	2334.3167	3144.2736	3146.7774	3152.166	3230.5924	3245.3187	3599.8813	3741.049
NC(=O)C#CC1CC1	NC(=O)C#CC1CC1	
InChI=1S/C6H7NO/c7-6(8)4-3-5-1-2-5/h5H,1-2H2,(H2,7,8)	InChI=1S/C6H7NO/c7-6(8)4-3-5-1-2-5/h5H,1-2H2,(H2,7,8)
