18
gdb 127385	3.81607	1.12585	1.07688	3.1528	79.14	-0.215	0.0142	0.2291	1184.9195	0.149894	-398.116597	-398.108606	-398.107662	-398.149567	30.293	
C	 0.2943219618	 1.5154253305	-0.4758529352	-0.318021
N	 0.0756905006	 0.1219250751	-0.1069982977	-0.091498
C	 1.2539946034	-0.7208264276	 0.027790137	-0.251167
C	 0.4799589906	-0.3336973638	 1.2425143284	-0.100752
C	 1.0483930759	 0.5673296452	 2.270672578	 0.357325
N	 2.2181937845	 1.1954454965	 2.1189005864	-0.297489
N	 2.3655374675	 1.9165603313	 3.2458467252	-0.179311
C	 1.3391560751	 1.7633570388	 4.116074246	-0.018452
C	 0.4569793599	 0.892362531	 3.5173025328	-0.296232
H	 1.2152672319	 1.9514163402	-0.0654140975	 0.125
H	 0.3344210687	 1.576007343	-1.5682613032	 0.116732
H	-0.5564692538	 2.1142701983	-0.1342233986	 0.11536
H	 1.1704700547	-1.729058485	-0.3710925779	 0.107122
H	 2.2318501846	-0.2564818612	-0.0844291486	 0.126703
H	-0.2236597729	-1.0531774993	 1.6556918413	 0.085723
H	 3.194977389	 2.4735440387	 3.360786422	 0.276107
H	 1.3205343674	 2.2715010534	 5.0672016002	 0.135738
H	-0.4809321589	 0.5380574648	 3.9131774414	 0.107112
55.1197	130.3508	184.5477	221.2634	300.1111	364.3568	434.3812	489.8225	510.3664	655.4957	675.2474	730.1388	763.9472	794.9011	846.4169	869.2141	945.8188	959.8373	1015.2129	1039.2588	1071.1255	1091.6543	1113.9614	1130.3872	1137.3587	1170.5679	1214.1126	1219.4686	1258.3002	1324.4685	1373.5634	1410.7697	1448.9527	1481.6361	1488.8973	1495.6585	1506.8084	1514.4203	1569.9848	3005.7972	3076.3734	3093.5036	3098.0169	3125.2828	3180.8818	3256.3188	3275.1147	3676.4512
CN1CC1C1=NNC=C1	CN1C[C@H]1c1n[nH]cc1	
InChI=1S/C6H9N3/c1-9-4-6(9)5-2-3-7-8-5/h2-3,6H,4H2,1H3,(H,7,8)	InChI=1S/C6H9N3/c1-9-4-6(9)5-2-3-7-8-5/h2-3,6H,4H2,1H3,(H,7,8)/t6-,9?/m0/s1
