20
gdb 91688	3.34576	1.2468	1.1257	2.5576	78.87	-0.2391	-0.0278	0.2113	1158.9856	0.171726	-403.121684	-403.113546	-403.112602	-403.154574	31.441	
C	 0.0303073388	 1.5953910788	-0.1768192784	-0.416652
C	 0.0608180983	 0.079289027	-0.0556281969	 0.08246
C	 1.0089759388	-0.6777039337	-1.0606495145	-0.264013
C	 1.823094481	-1.4670809652	-0.0190224379	-0.023891
C	 0.701914993	-1.8823694053	 0.9671000804	-0.192682
N	 0.5703846442	-0.3980729246	 1.277242387	-0.155266
C	 2.075685488	-0.3593085679	 1.0257877561	-0.042765
C	 2.858467652	-0.6920541902	 2.2731904435	 0.128532
O	 3.6488065021	-1.596253115	 2.3711400512	-0.245535
H	 1.0292154206	 2.0397170225	-0.1148240292	 0.115979
H	-0.3942808234	 1.8863520864	-1.1432014925	 0.119334
H	-0.5848474792	 2.0310475512	 0.6156091713	 0.128804
H	-0.9647868388	-0.2933886593	-0.1425900466	 0.081233
H	 0.4664935748	-1.3264407034	-1.7538324293	 0.101195
H	 1.6282198037	 0.0067047755	-1.6489073311	 0.100257
H	 2.6052778173	-2.1435082543	-0.362225092	 0.081363
H	-0.2064667714	-2.3449473653	 0.5708007266	 0.099778
H	 1.0540302485	-2.4302040926	 1.841784487	 0.125867
H	 2.4385803856	 0.6157397349	 0.6729293718	 0.087699
H	 2.6593348261	 0.0021391505	 3.1203782636	 0.088305
63.6462	152.2658	203.3693	222.7723	249.6979	304.1526	405.2812	477.6451	512.5856	654.6716	690.7572	783.2544	807.4805	830.9005	850.6084	874.973	913.0755	936.8537	953.5234	990.6469	1015.2174	1057.8812	1069.0662	1080.8876	1108.3626	1118.0517	1162.1746	1192.8427	1207.9704	1248.4686	1260.883	1262.6914	1299.0014	1315.546	1365.7531	1384.7427	1413.8172	1414.7258	1492.3321	1495.3323	1503.5827	1524.6125	1825.5256	2884.8442	3020.4298	3037.0747	3046.4472	3052.2928	3063.8066	3097.1304	3102.6789	3115.9429	3124.2633	3136.4565
CC1CC2CN1C2C=O	C[C@H]1C[C@@H]2CN1[C@H]2C=O	
InChI=1S/C7H11NO/c1-5-2-6-3-8(5)7(6)4-9/h4-7H,2-3H2,1H3	InChI=1S/C7H11NO/c1-5-2-6-3-8(5)7(6)4-9/h4-7H,2-3H2,1H3/t5-,6+,7-/m0/s1
