20
gdb 102194	2.78389	0.99756	0.78656	4.5159	79.67	-0.2644	0.0251	0.2895	1454.9455	0.170308	-403.147498	-403.137787	-403.136843	-403.182675	35.326	
O	 0.0045071227	 1.3607557527	 0.516406624	-0.423117
C	-0.0679570557	 0.0096216995	 0.1127847107	-0.073127
C	-1.5076819898	-0.5198755243	-0.0541191562	-0.029663
C	-2.1704285791	-0.0524857974	-1.3766837707	-0.348609
C	-2.1534643744	 1.3943282986	-1.5825218419	 0.259313
N	-2.1122897399	 2.5392114418	-1.7430393018	-0.318915
C	-1.5465261355	-2.035039439	 0.0031649652	 0.022092
C	-1.5839069684	-2.7444859334	 1.3320669611	-0.279595
C	-2.798234411	-2.7579841632	 0.4366565536	-0.277613
H	-0.3007685772	 1.9251504963	-0.2023599522	 0.298967
H	 0.5047432237	-0.1759198865	-0.81219398	 0.085415
H	 0.4163831478	-0.5655854757	 0.9080719904	 0.11673
H	-2.0895313669	-0.1164518791	 0.7834719307	 0.09899
H	-1.6560297453	-0.5175265971	-2.2272209108	 0.151347
H	-3.2094731601	-0.3964051705	-1.412620501	 0.157258
H	-0.9650669606	-2.5238083764	-0.7765808558	 0.085974
H	-1.0141667575	-3.6599935097	 1.4435435172	 0.118825
H	-1.6253678087	-2.135802402	 2.229404727	 0.122335
H	-3.6508600314	-2.1579101867	 0.739088426	 0.115679
H	-3.0626079525	-3.6828685879	-0.0635173655	 0.117716
57.9928	90.1718	118.4268	143.8325	173.4639	251.4165	280.9384	393.837	404.0985	418.792	425.641	456.9863	559.7332	783.5369	831.5069	850.2452	861.2275	892.6391	921.0309	967.4306	969.5049	1059.4363	1073.9764	1080.2373	1084.9627	1099.2552	1140.4899	1165.577	1189.4102	1199.1033	1226.9006	1263.6999	1281.0106	1312.0909	1358.0624	1400.0616	1417.9373	1429.7222	1461.8331	1471.5119	1503.6122	1507.3346	2349.4254	2959.743	3034.556	3044.7656	3077.5932	3084.6042	3121.85	3129.5872	3136.3846	3209.3179	3224.597	3805.4353
OCC(CC#N)C1CC1	OC[C@@H](CC#N)C1CC1	
InChI=1S/C7H11NO/c8-4-3-7(5-9)6-1-2-6/h6-7,9H,1-3,5H2	InChI=1S/C7H11NO/c8-4-3-7(5-9)6-1-2-6/h6-7,9H,1-3,5H2/t7-/m1/s1
