13
gdb 132986	3.45444	1.42452	1.01497	5.2499	62.19	-0.2772	-0.0646	0.2126	1056.0195	0.090266	-494.104884	-494.097572	-494.096628	-494.137133	26.215	
C	-0.016342654	 1.44626781	-0.0042801565	-0.336348
N	 0.000968851	-0.012597539	-0.0317801648	-0.109666
C	-0.1007083318	-0.7167531523	-1.1671308739	 0.126734
N	-0.0891202149	-2.0200121645	-1.2306691722	-0.34113
C	 0.0380910703	-2.6030032623	-0.0148877286	 0.355935
F	 0.0508904148	-3.9150883543	-0.0683892623	-0.038911
N	 0.145532986	-2.0671955596	 1.1544898101	-0.376922
C	 0.1344106723	-0.6938827511	 1.2327720887	 0.458112
O	 0.2242768744	-0.035900488	 2.2395942852	-0.369414
H	 0.909131677	 1.8168812522	 0.4405169116	 0.170849
H	-0.1204744712	 1.8219400489	-1.0234656864	 0.137615
H	-0.8486458692	 1.7928093044	 0.6112534418	 0.170791
H	-0.1988151248	-0.1450174643	-2.0872459128	 0.152356
103.7256	120.2609	187.7081	280.4282	319.6735	408.9052	451.4518	492.88	579.8468	632.3221	764.223	777.373	806.4149	819.1442	971.5087	999.0083	1094.2406	1157.2604	1182.3623	1214.9077	1363.1946	1388.0522	1451.5935	1465.5251	1469.0509	1514.3958	1568.0906	1680.6714	1831.6268	3063.1088	3141.1681	3153.9259	3168.0142
CN1C=NC(F)=NC1=O	Cn1cnc(F)nc1=O	
InChI=1S/C4H4FN3O/c1-8-2-6-3(5)7-4(8)9/h2H,1H3	InChI=1S/C4H4FN3O/c1-8-2-6-3(5)7-4(8)9/h2H,1H3
