15
gdb 34792	2.32616	1.58845	1.11991	5.4689	75.34	-0.3201	-0.0123	0.3078	1069.9689	0.114316	-379.648114	-379.640749	-379.639804	-379.680182	27.903	
N	-0.0961697346	-1.194529924	-0.0759313363	-0.320919
C	-0.0469789638	-0.0402177078	-0.0384482953	 0.275192
C	-0.0092497552	 1.4116038644	 0.0097860926	-0.172985
C	 0.0806374752	 2.1241764088	 1.4039035928	-0.06791
C	 1.5520246292	 1.6255899435	 1.5102446044	-0.271181
C	 1.3861845849	 2.1412823661	 0.043919691	 0.228477
C	 0.6236997422	 3.366344579	 0.6419534974	-0.264649
C	 2.3708548233	 2.154453586	-1.0078815505	 0.169861
N	 3.1607908161	 2.1744251143	-1.8516843694	-0.335704
H	-0.7295858079	 1.8364000075	-0.6930390763	 0.133143
H	-0.6852079759	 2.1004973018	 2.175506279	 0.112213
H	 2.2192826107	 2.2136379848	 2.141843997	 0.12231
H	 1.7111409433	 0.5537490525	 1.6317384412	 0.146775
H	-0.06389279	 3.8846378691	-0.0294413433	 0.120546
H	 1.2339590124	 4.061411344	 1.2196569857	 0.124831
98.4456	170.422	180.1757	217.6814	433.2151	463.0866	500.8407	522.2159	545.6819	589.7424	642.6022	784.0661	828.5881	882.6353	927.4804	951.6924	961.6975	1021.433	1042.0234	1068.9135	1108.424	1127.3838	1151.6734	1166.3719	1218.3885	1227.8634	1234.3799	1267.6465	1371.5872	1502.1919	1541.3746	2355.1578	2357.6851	3076.0607	3085.0457	3093.7058	3150.5415	3152.7635	3158.04
N#CC1C2CC1(C2)C#N	N#C[C@H]1[C@H]2C[C@@]1(C2)C#N	
InChI=1S/C7H6N2/c8-3-6-5-1-7(6,2-5)4-9/h5-6H,1-2H2	InChI=1S/C7H6N2/c8-3-6-5-1-7(6,2-5)4-9/h5-6H,1-2H2/t5-,6-,7+/m0/s1
