16
gdb 14369	4.22639	2.14875	1.88435	1.3873	64.11	-0.2446	0.0663	0.3109	742.6508	0.131929	-383.63294	-383.626897	-383.625953	-383.663029	24.332	
C	-0.0525450487	 1.5974961195	 0.0876716376	-0.267714
C	 1.4327104522	 1.2189969487	 0.0552756918	 0.003672
O	 1.114293996	 0.0425837576	 0.9438668801	-0.365797
C	 0.0966595421	 0.0673454574	-0.1316920595	 0.398246
C	-0.8846947151	-0.8746114756	-0.7699824419	-0.1875
O	-0.8015819393	-0.4645788139	-2.1521229351	-0.290036
C	 0.3581554593	 0.3840745943	-2.4295232565	-0.118057
C	 1.1996663512	 0.2770318806	-1.1703598776	-0.036295
H	-0.4327455217	 1.8815275762	 1.0685836949	 0.111944
H	-0.4588212275	 2.208179306	-0.7198191113	 0.110179
H	 2.3168277097	 1.7925161195	 0.3336022845	 0.100156
H	-0.5802704058	-1.9229795118	-0.6494422871	 0.113041
H	-1.9226557768	-0.7567872124	-0.4451019454	 0.114579
H	 0.8577988431	-0.0214384055	-3.3137235505	 0.11105
H	 0.0076959309	 1.3948425783	-2.6646640922	 0.107031
H	 1.9140337702	-0.5477791489	-1.1920137417	 0.0955
106.2815	298.1634	330.3056	412.894	533.4279	568.156	662.2308	691.2437	741.1484	821.5475	853.7621	879.3665	898.5862	946.6421	974.5874	996.2903	1014.3711	1046.2479	1085.0971	1109.4105	1118.3943	1149.1737	1188.6268	1193.8733	1202.5217	1213.1814	1263.1462	1294.7013	1347.2539	1362.1069	1386.9398	1493.5891	1513.5826	1528.2361	3014.2779	3037.8655	3080.0871	3082.1135	3084.6102	3105.4253	3120.7861	3159.8185
C1C2OC11COCC21	C1[C@H]2O[C@]31COC[C@@H]23	
InChI=1S/C6H8O2/c1-5-4-2-7-3-6(1,4)8-5/h4-5H,1-3H2	InChI=1S/C6H8O2/c1-5-4-2-7-3-6(1,4)8-5/h4-5H,1-3H2/t4-,5+,6+/m0/s1
