23
gdb 103856	3.02944	0.93077	0.85745	1.7475	87.22	-0.2501	0.0896	0.3397	1516.4869	0.203781	-388.270599	-388.260408	-388.259464	-388.306256	37.863	
C	-0.5279555485	 1.3898290726	 0.2245991367	-0.379383
C	 0.3897229068	 0.2239442998	-0.1682642647	-0.249603
C	 1.0054453338	-0.4748715345	 1.0336338802	 0.389157
C	 2.0549173082	 0.3190492892	 1.7877281829	-0.460491
O	 0.0657353004	-1.1626054863	 1.8854307157	-0.308023
C	 1.0227378025	-1.9475486942	 1.1603353836	 0.006915
C	 0.5087096955	-2.9273223241	 0.1614116006	-0.013677
C	 1.4739320017	-3.9079006939	-0.4650413354	-0.26909
C	 0.4559303916	-4.3921267052	 0.531474305	-0.267061
H	 0.0187249055	 2.1892587472	 0.7340323491	 0.115999
H	-0.9995680464	 1.8261965354	-0.6608809831	 0.110806
H	-1.3174934832	 1.0396861817	 0.8958303376	 0.135136
H	-0.1845363924	-0.4941301142	-0.758947072	 0.10164
H	 1.1993167573	 0.583691604	-0.8160685056	 0.096571
H	 1.6448559452	 1.2644543218	 2.1568166454	 0.126528
H	 2.4191063672	-0.246442614	 2.64896107	 0.124137
H	 2.9058604983	 0.5531137706	 1.1385536637	 0.117136
H	 1.813848845	-2.3620829272	 1.793486921	 0.072724
H	-0.2987184358	-2.5695137753	-0.4667526667	 0.09083
H	 1.3392817621	-4.156675421	-1.5115134625	 0.114989
H	 2.5117459654	-3.8656614017	-0.1504875376	 0.11316
H	 0.8050840981	-4.6745056131	 1.5192582468	 0.116531
H	-0.3841826781	-4.9761167875	 0.1732315594	 0.11507
53.6264	59.637	135.2653	152.9801	196.6615	213.643	258.1143	311.0811	356.4463	376.1176	416.9941	497.3842	576.4723	689.3452	764.0663	780.1593	822.4498	827.1852	888.396	906.2005	930.8308	957.3312	997.0696	1002.5134	1054.2293	1062.6118	1074.4368	1084.1407	1125.4683	1130.5604	1146.2344	1194.2663	1198.6107	1224.4519	1251.691	1306.6072	1329.0257	1353.3573	1387.8425	1406.0374	1413.6954	1471.3027	1473.593	1481.9008	1490.1188	1500.2233	1504.3872	1509.6436	1519.2892	3031.5703	3037.5847	3042.4951	3051.989	3088.4102	3101.3061	3111.329	3119.2267	3122.1378	3131.9301	3136.0137	3175.7021	3210.4592	3225.8227
CCC1(C)OC1C1CC1	CC[C@@]1(C)O[C@H]1C1CC1	
InChI=1S/C8H14O/c1-3-8(2)7(9-8)6-4-5-6/h6-7H,3-5H2,1-2H3	InChI=1S/C8H14O/c1-3-8(2)7(9-8)6-4-5-6/h6-7H,3-5H2,1-2H3/t7-,8+/m0/s1
