18
gdb 105855	2.08335	1.64592	1.25147	2.2486	73.71	-0.2514	0.0152	0.2667	1099.1383	0.145715	-439.040386	-439.031342	-439.030398	-439.074279	32.984	
C	-0.4857719099	 1.1665638007	 0.0630150648	-0.264879
O	 0.4204039062	 0.0866554096	-0.1563325531	-0.27162
C	 0.8267271974	-0.5174531352	 0.9979623513	 0.27982
C	 1.9762060301	 0.008642209	 1.8833369373	-0.09769
C	 1.9103879605	 0.2843091802	 3.3679819394	-0.422372
C	 2.045712169	-1.3597922038	 1.277685129	-0.022395
O	 1.2532294627	-2.2888252293	 2.0725922622	-0.274565
C	 0.0884128841	-1.5916499485	 1.7464024142	 0.381422
N	-1.1137315829	-1.8549433187	 1.9761489421	-0.563734
H	-0.0180456389	 1.9586250302	 0.6632123852	 0.112135
H	-0.74108814	 1.5624953911	-0.9215172506	 0.131962
H	-1.3950046998	 0.819727264	 0.5665734556	 0.148056
H	 2.5568959848	 0.7229823838	 1.2997488124	 0.108106
H	 1.3667407982	-0.5044097113	 3.8920514931	 0.142879
H	 2.9183792143	 0.33555655	 3.7931981434	 0.124205
H	 1.4116806887	 1.2374361748	 3.5686238288	 0.124432
H	 2.8044901564	-1.7831652409	 0.6343580561	 0.131732
H	-1.213828541	-2.7279963954	 2.4970922687	 0.232507
75.5232	129.4924	156.7707	169.1228	176.1671	256.55	301.5906	327.7863	427.9785	473.2336	583.8343	648.1752	689.7213	771.0532	806.5688	864.2332	912.0019	923.1504	940.605	985.5591	1012.7151	1053.8613	1070.6972	1108.554	1126.7693	1177.8166	1183.4542	1223.7856	1255.7305	1280.1123	1352.2236	1415.4027	1444.6202	1486.9435	1489.6687	1497.217	1505.4745	1508.1564	1831.706	3008.1571	3040.8344	3079.9207	3100.9582	3120.6679	3135.5246	3136.5429	3219.3853	3475.6481
COC12C(C)C1OC2=N	CO[C@]12[C@@H](C)[C@H]1O[C]2[NH]	
InChI=1S/C6H9NO2/c1-3-4-6(3,8-2)5(7)9-4/h3-4,7H,1-2H3	InChI=1S/C6H9NO2/c1-3-4-6(3,8-2)5(7)9-4/h3-4,7H,1-2H3/t3-,4+,6+/m0/s1
