17
gdb 29490	3.18998	1.59759	1.07314	1.5821	84.38	-0.1643	0.0055	0.1698	1080.9745	0.138901	-380.905757	-380.898105	-380.897161	-380.937401	30.505	
N	 0.011437173	 1.4389351205	 0.1504736127	-0.609985
C	 0.0275646383	 0.0336282635	 0.0363112918	 0.05477
C	-1.0731407255	-0.8123419048	 0.0168854308	-0.155858
N	-0.6245142146	-2.1289357857	-0.0140814354	-0.402591
C	 0.7359810098	-2.1131257818	-0.0246907636	 0.313095
C	 1.1722577862	-0.801221741	 0.0081396275	 0.2573
C	 2.6753200102	-0.803816658	 0.0158047797	-0.427816
C	 2.989866858	-2.2941771208	-0.0246218793	-0.086936
C	 1.857622659	-3.0313556805	-0.045901163	-0.193076
H	 0.7447007763	 1.8706338977	-0.3988316499	 0.237535
H	-0.8756148718	 1.8363337193	-0.1330794485	 0.234741
H	-2.1272294348	-0.585830082	 0.0295029448	 0.101094
H	-1.2194338211	-2.937291077	-0.0305550488	 0.255308
H	 3.1245107738	-0.2850995676	-0.8434779255	 0.114805
H	 3.1062181168	-0.3340365759	 0.9110714694	 0.125188
H	 3.9998450675	-2.6821363252	-0.0356319127	 0.091695
H	 1.7979107387	-4.1120023608	-0.07369071	 0.090731
157.9134	195.3229	219.4903	258.8372	311.6105	376.3864	451.5099	512.6056	592.3313	606.3752	647.0789	653.7947	678.4301	729.948	774.4787	802.2636	857.2363	922.7157	928.7011	935.9054	1041.7812	1074.9068	1111.061	1130.5125	1142.2263	1194.2925	1268.0116	1288.032	1330.7207	1375.5906	1431.2102	1457.6493	1530.0198	1552.645	1597.2749	1612.2184	1655.8236	3009.9513	3033.8831	3205.0933	3229.7135	3257.742	3523.4922	3611.3041	3692.2364
NC1=CNC2=C1CC=C2	Nc1c[nH]c2c1CC=C2	
InChI=1S/C7H8N2/c8-6-4-9-7-3-1-2-5(6)7/h1,3-4,9H,2,8H2	InChI=1S/C7H8N2/c8-6-4-9-7-3-1-2-5(6)7/h1,3-4,9H,2,8H2
