20
gdb 47892	2.6964	1.38362	1.0081	4.0721	83.82	-0.221	-0.0408	0.1802	1198.2098	0.17353	-403.164087	-403.155849	-403.154904	-403.196881	32.188	
O	-0.0158826503	 0.4064350157	 1.371741074	-0.331298
C	 0.1481498494	 1.2357793641	 0.4942846964	 0.345687
C	-1.0619740027	 1.6016733975	-0.3992379985	-0.320383
C	-1.3121518516	 3.0906134345	-0.7735568033	-0.191494
C	-0.958082413	 3.519693835	-2.2137119912	-0.202718
C	 0.5429720726	 3.6784094168	-2.5104302945	-0.163279
N	 1.3134096189	 2.5488416556	-1.9772121284	-0.270637
C	 1.8311199941	 2.6712305383	-0.6929144556	-0.00984
C	 1.4262912118	 1.9607836725	 0.3757758231	-0.186872
H	-1.0318946661	 0.9816372321	-1.3066440713	 0.107562
H	-1.9113712239	 1.2179413555	 0.1721191731	 0.126743
H	-2.3828852914	 3.2779671788	-0.6425900435	 0.108062
H	-0.8062428167	 3.7441155896	-0.0537780321	 0.108631
H	-1.378858543	 2.779908133	-2.909296627	 0.101424
H	-1.4599816589	 4.4666093779	-2.4472313033	 0.103161
H	 0.7033776196	 3.7663280335	-3.5914501033	 0.10832
H	 0.9327929026	 4.5920012691	-2.0493146131	 0.114463
H	 0.8143622347	 1.6783821226	-2.1016371231	 0.236213
H	 2.6563408953	 3.3789314132	-0.6104108026	 0.112938
H	 2.0289605085	 1.9568900849	 1.2782337742	 0.103316
74.5473	165.8014	206.521	252.182	294.5407	309.1062	407.6149	428.6675	485.2474	499.6103	642.2605	671.8114	736.7156	777.9642	818.4068	838.4242	857.0838	894.0029	952.3721	955.9743	984.6867	1039.3687	1081.6565	1107.0002	1120.9524	1182.5696	1221.2643	1255.0076	1260.3796	1288.196	1333.4322	1339.6182	1369.756	1375.7043	1390.206	1423.1069	1473.0431	1477.8502	1482.8615	1491.112	1501.6688	1675.137	1743.2181	3008.0539	3012.1036	3031.3575	3037.4574	3056.1446	3074.0642	3083.9978	3092.0224	3122.9624	3187.7805	3578.4636
O=C1CCCCNC=C1	O=C1CCCCN[CH][CH]1	
InChI=1S/C7H11NO/c9-7-3-1-2-5-8-6-4-7/h4,6,8H,1-3,5H2/b6-4-	InChI=1S/C7H11NO/c9-7-3-1-2-5-8-6-4-7/h4,6,8H,1-3,5H2
