18
gdb 6904	4.62683	1.0148	0.94639	1.5055	78.63	-0.2272	0.054	0.2812	1294.0568	0.150688	-347.771752	-347.762179	-347.761235	-347.806865	34.055	
C	 0.0999206847	 1.4957934456	 0.0313293261	-0.499011
C	 0.038069094	 0.0411784378	 0.031944771	 0.077985
C	-0.0083496979	-1.1634478268	 0.0300707594	 0.077054
C	-0.0508662704	-2.5962528143	 0.0213764178	-0.239153
C	-0.526254923	-3.3788111383	 1.2510310883	-0.345859
C	-1.3578942839	-3.3634684128	-0.0017918177	 0.407219
C	-2.682787162	-2.6417968424	-0.0425154396	-0.448059
O	-1.2877992069	-4.5032413133	-0.8205099844	-0.463596
H	 1.0691008016	 1.8493476711	-0.3382099594	 0.148097
H	-0.6753226635	 1.9318464822	-0.6090052465	 0.145314
H	-0.0354915966	 1.9035260578	 1.0395543901	 0.144736
H	 0.7363016391	-3.0860507026	-0.5443254727	 0.117701
H	 0.0145249663	-4.2894400665	 1.4824006074	 0.114838
H	-0.8613462714	-2.8017144449	 2.1055210473	 0.118358
H	-2.6443042442	-1.7134384631	 0.531748142	 0.130318
H	-2.9481661155	-2.3981956762	-1.0758908463	 0.129168
H	-3.4780145538	-3.2709776513	 0.3758377042	 0.104491
H	-1.8734191664	-5.170485272	-0.4445798672	 0.280397
25.2647	91.1343	100.7061	215.6148	239.4898	252.0383	291.8269	344.2423	360.0061	389.2841	435.7543	500.0032	548.9372	705.6303	731.5225	868.3862	914.4018	939.9713	958.6623	1018.7123	1051.6255	1053.4844	1056.3854	1089.1578	1101.5685	1205.3171	1239.3673	1298.9772	1349.5986	1400.8169	1415.5123	1418.0561	1471.572	1477.9537	1479.7189	1484.7253	1503.6171	2366.7084	3023.2547	3028.3174	3081.467	3084.1234	3094.5179	3129.6571	3135.9745	3152.4716	3231.804	3787.26
CC#CC1CC1(C)O	CC#C[C@H]1C[C@]1(C)O	
InChI=1S/C7H10O/c1-3-4-6-5-7(6,2)8/h6,8H,5H2,1-2H3	InChI=1S/C7H10O/c1-3-4-6-5-7(6,2)8/h6,8H,5H2,1-2H3/t6-,7-/m0/s1
