17
gdb 49941	5.97373	0.72675	0.68094	1.2886	75.54	-0.2539	0.01	0.2638	1570.7136	0.136091	-418.030507	-418.021497	-418.020552	-418.066279	30.748	
O	 0.0522298403	 0.1865462678	-0.7722392726	-0.325926
C	 0.0945079452	 1.3462114424	-0.4167499421	 0.131237
N	 1.2097504993	 1.9603697933	 0.0376786058	-0.035718
C	 2.5338730078	 1.4061043098	 0.3055945704	-0.198435
C	 2.9343077258	 2.7856511239	 0.9130254604	-0.004313
C	 4.0487806145	 3.523303381	 0.1625550827	-0.359556
C	 4.2190989348	 4.8956236485	 0.6380013989	 0.261593
N	 4.3279545485	 5.9771531439	 1.0297210806	-0.2981
C	 1.4808133027	 3.2750605328	 0.6240088534	-0.194654
H	-0.7792348125	 2.0296548781	-0.4336927793	 0.074357
H	 2.5260452587	 0.5646101572	 1.0053362025	 0.132366
H	 3.0820856086	 1.1070603793	-0.5951225889	 0.125024
H	 3.1686724686	 2.7433643546	 1.9771145089	 0.112491
H	 4.9990325221	 2.9892770003	 0.2779031588	 0.161173
H	 3.82820103	 3.5496310855	-0.9113815077	 0.160102
H	 1.4049840313	 4.1123406243	-0.0794526472	 0.128164
H	 0.8853675042	 3.5058124173	 1.5133301554	 0.130195
26.4771	62.7775	80.9159	142.5684	181.2407	305.4257	345.2748	365.5452	397.8227	514.1189	559.7093	779.5807	821.7632	878.4834	893.9208	931.7918	951.1274	1029.9883	1035.5756	1066.2447	1132.7233	1141.8057	1171.4333	1192.3089	1244.2337	1266.6683	1293.3989	1317.2507	1335.1418	1380.1092	1402.6445	1450.8772	1465.7034	1508.6543	1526.8767	1792.1753	2363.9656	2925.9392	3028.9718	3036.2608	3040.7512	3075.6441	3077.2141	3082.225	3113.5371
O=CN1CC(CC#N)C1	O=CN1CC(CC#N)C1	
InChI=1S/C6H8N2O/c7-2-1-6-3-8(4-6)5-9/h5-6H,1,3-4H2	InChI=1S/C6H8N2O/c7-2-1-6-3-8(4-6)5-9/h5-6H,1,3-4H2
