18
gdb 29713	2.42976	1.54632	0.95627	1.8557	76.34	-0.161	0.0665	0.2275	1200.1201	0.145324	-439.115991	-439.105476	-439.104532	-439.152701	36.223	
C	-0.0091670203	 1.4475967131	 0.0080872424	-0.346158
N	 0.030691724	 0.002019124	 0.0142083936	-0.101758
C	 0.0751968005	-0.7934487953	-1.0893888561	 0.378132
O	 0.0742082391	-0.194372561	-2.3114191858	-0.443761
C	 0.1163351935	-2.1166486816	-0.7117261534	-0.462388
C	 0.0967636016	-2.1051776529	 0.7172552104	 0.269852
O	 0.1184402534	-3.1890379309	 1.5553339543	-0.457552
C	 0.0465688125	-0.8086460714	 1.160041116	 0.196583
C	 0.0094252881	-0.2627787899	 2.5446847774	-0.51185
H	 0.8866547454	 1.8724562352	 0.4750528249	 0.132275
H	-0.0612816918	 1.7921598738	-1.0243098168	 0.158165
H	-0.8879031362	 1.8175656585	 0.546997491	 0.133218
H	 0.0727454593	-0.883848003	-2.9812074829	 0.306125
H	 0.1535986974	-2.9750852178	-1.3655231611	 0.078964
H	 0.1894526016	-3.9834418739	 1.0200985633	 0.292407
H	 0.8616762295	 0.3927186085	 2.7706687871	 0.115735
H	-0.9032627649	 0.3112228207	 2.7566186188	 0.115973
H	 0.0419292373	-1.097406866	 3.2488730967	 0.146037
22.0541	67.6431	102.0017	167.7697	177.9786	194.5022	244.7578	249.6278	294.1495	324.959	349.8672	550.3093	600.4206	610.4712	619.3034	647.4742	677.7463	739.4757	861.0526	1002.8803	1064.6731	1082.8394	1146.9511	1152.5037	1159.5747	1208.6739	1260.3321	1312.1246	1361.5548	1417.4087	1459.0465	1466.4032	1479.5753	1491.9597	1493.9772	1516.1379	1574.6056	1585.5641	1685.3037	2998.2363	3029.2202	3033.3054	3079.6387	3122.4297	3158.4139	3234.0118	3854.5953	3856.2801
CN1C(O)=CC(O)=C1C	Cn1c(O)cc(O)c1C	
InChI=1S/C6H9NO2/c1-4-5(8)3-6(9)7(4)2/h3,8-9H,1-2H3	InChI=1S/C6H9NO2/c1-4-5(8)3-6(9)7(4)2/h3,8-9H,1-2H3
