16
gdb 133679	3.1094	0.95194	0.86226	1.5177	62.95	-0.272	0.0447	0.3167	1319.1182	0.118289	-532.237521	-532.228056	-532.227112	-532.272447	34.043	
C	-0.0612222355	 1.5868708915	 0.0600513606	-0.412176
C	 0.024134724	 0.0587236718	 0.0007344473	-0.124714
C	 0.7168252616	-0.4510665919	-1.2871738774	-0.376353
C	-0.0370723896	-0.1337329295	-2.4923775347	 0.292447
C	-0.676772136	 0.1317408201	-3.4745108988	-0.430022
C	 0.7522197201	-0.492889998	 1.2189536629	 0.288284
F	 0.1670264566	-0.1029350075	 2.3612299801	-0.0799
F	 0.7679008716	-1.8374496587	 1.219741601	-0.084663
F	 2.0327160112	-0.0828046479	 1.2632426322	-0.089033
H	 0.9392387985	 2.0297503519	 0.0791593662	 0.132005
H	-0.5859829341	 1.9604722965	-0.821683009	 0.140625
H	-0.5981401855	 1.9152932716	 0.9525626608	 0.134044
H	-0.9840530008	-0.3673153188	 0.041738171	 0.118005
H	 1.7210240404	-0.0145116151	-1.3495030504	 0.144686
H	 0.853023153	-1.5357036583	-1.215937599	 0.147831
H	-1.2307325954	 0.3575611323	-4.3518533829	 0.198934
60.4859	68.6456	131.0405	216.0645	217.6995	254.8785	311.177	345.9798	381.4364	428.3458	484.0488	569.2238	573.2532	624.2271	650.9953	669.1977	812.2054	876.8496	906.5289	981.0051	1029.023	1100.4884	1123.7581	1165.97	1206.7682	1248.6398	1282.237	1314.572	1354.1223	1395.1502	1415.0094	1475.3528	1498.6809	1506.5303	2241.4528	3036.0443	3052.6727	3062.2076	3079.1245	3126.7012	3139.5905	3505.6907
CC(CC#C)C(F)(F)F	C[C@@H](CC#C)C(F)(F)F	
InChI=1S/C6H7F3/c1-3-4-5(2)6(7,8)9/h1,5H,4H2,2H3	InChI=1S/C6H7F3/c1-3-4-5(2)6(7,8)9/h1,5H,4H2,2H3/t5-/m0/s1
