17
gdb 79588	2.15295	1.74378	1.54037	1.9107	67.32	-0.2309	0.0633	0.2942	967.0949	0.134102	-458.896813	-458.888142	-458.887198	-458.92963	33.241	
O	 0.0003407534	 1.3910162581	 0.0585233849	-0.436728
C	-0.1059083307	-0.0012157329	 0.0801294351	 0.029906
C	-0.4605449167	-0.8241213529	 1.3026327882	-0.164373
C	-1.5076504291	-0.1163908859	 2.1220733949	-0.106335
C	-2.8288481135	-0.8580172486	 2.1157164543	-0.353119
C	-2.4278758013	-0.0492404978	 0.9086163208	 0.295684
O	-3.1050184481	 1.1008768097	 0.5062420488	-0.473004
C	-1.4008511628	-0.7514228662	 0.0577048289	 0.255171
O	-1.7130831935	-1.7522672279	-0.851050789	-0.467424
H	-0.8878167314	 1.7583613306	 0.1376147988	 0.300874
H	 0.675667067	-0.4551134426	-0.5270753458	 0.100232
H	 0.1341809214	-1.6739716273	 1.6180288012	 0.095828
H	-1.3206453768	 0.7020603202	 2.8059635193	 0.105794
H	-2.8555476083	-1.9429555614	 2.0761094021	 0.1192
H	-3.6091208575	-0.3988514296	 2.7153095709	 0.115184
H	-3.8892645897	 0.8393803797	 0.011054159	 0.292358
H	-1.4674425524	-1.4521402651	-1.7317314625	 0.290752
117.8073	131.7766	176.4643	256.0674	275.1916	281.291	325.6987	384.5134	413.3664	452.343	576.8108	621.333	647.3312	697.4139	779.8878	842.9541	894.4532	898.5756	918.9482	991.9215	996.0887	1031.7604	1055.7232	1086.3286	1089.8625	1109.9472	1163.7882	1206.9679	1243.8316	1263.3336	1292.2662	1324.3583	1345.8155	1361.305	1406.6206	1467.7333	1490.4712	3119.1041	3131.6705	3179.4611	3194.2989	3210.8562	3794.9941	3796.0155	3817.0166
OC1C2C3CC3(O)C12O	O[C@H]1[C@H]2[C@@H]3C[C@]3(O)[C@@]12O	
InChI=1S/C6H8O3/c7-4-3-2-1-5(2,8)6(3,4)9/h2-4,7-9H,1H2	InChI=1S/C6H8O3/c7-4-3-2-1-5(2,8)6(3,4)9/h2-4,7-9H,1H2/t2-,3+,4-,5+,6-/m0/s1
