12
gdb 21098	7.51774	1.34345	1.14807	5.4483	59.57	-0.2701	-0.0713	0.1988	962.5145	0.084221	-410.831464	-410.82444	-410.823496	-410.863369	23.506	
C	 0.0075812533	 1.4390715574	 0.0434532644	-0.321584
N	-0.0275038143	-0.0119025994	 0.0328797303	 0.152661
N	-0.2207549903	-0.717913145	-1.0882841038	-0.108034
N	-0.195072702	-1.9712781745	-0.7401627854	-0.23067
C	 0.0161001075	-1.9876652336	 0.6019213263	 0.293744
C	 0.1224880999	-3.189933933	 1.4543064347	 0.104111
O	 0.0320225149	-4.3193609609	 1.0481452297	-0.236245
N	 0.1245627594	-0.757043834	 1.1078111538	-0.276342
H	 0.9764534212	 1.7801022679	 0.4129010979	 0.169905
H	-0.1457613255	 1.7725608096	-0.9818162913	 0.180695
H	-0.7853301258	 1.8206969171	 0.6893770282	 0.169898
H	 0.2966859418	-2.9481780617	 2.5228718352	 0.10186
83.9605	103.6813	184.3482	216.2312	313.4895	359.1625	500.8195	702.6531	730.7954	748.4607	791.0217	1007.5715	1037.2907	1058.1247	1106.3294	1151.4077	1257.7816	1291.2081	1397.3705	1402.4742	1435.8595	1452.4696	1477.175	1494.7072	1513.4753	1823.5322	2928.3436	3070.2943	3146.8591	3181.9336
CN1N=NC(C=O)=N1	Cn1nnc(C=O)n1	
InChI=1S/C3H4N4O/c1-7-5-3(2-8)4-6-7/h2H,1H3	InChI=1S/C3H4N4O/c1-7-5-3(2-8)4-6-7/h2H,1H3
