22
gdb 5872	3.92328	0.90555	0.90418	2.8721	79.58	-0.2476	-0.0181	0.2295	1404.9688	0.196879	-350.228929	-350.218738	-350.217793	-350.264263	36.893	
C	-0.2031081398	 1.5355867945	 0.0559380557	-0.402916
C	 0.0010310925	 0.0096759886	 0.0625386934	 0.2624
C	 0.7717158619	-0.4049704606	 1.3290938481	-0.401192
C	-1.3780020554	-0.6772115651	 0.0667173285	-0.4038
C	 0.7492413545	-0.4543729059	-1.213528582	-0.19552
C	 2.1722024245	 0.1000134699	-1.4158212388	-0.292253
C	 2.7227856305	-0.3017406316	-2.7645283221	 0.162954
O	 3.7381598226	-0.9232485317	-2.9434824096	-0.238914
H	 0.7452112214	 2.0787048856	 0.1172382692	 0.112427
H	-0.7220048836	 1.8635383413	-0.8519857592	 0.108486
H	-0.8088922557	 1.8453900381	 0.9140671381	 0.113116
H	 0.2060565381	-0.1398072121	 2.2288042633	 0.111144
H	 0.9443573632	-1.4867095629	 1.3514272755	 0.111548
H	 1.7445416649	 0.0917591289	 1.3963895091	 0.114127
H	-1.9600167378	-0.4043313499	-0.8206683345	 0.109081
H	-1.2776719571	-1.7680602227	 0.0787263478	 0.110921
H	-1.9580631106	-0.3856097415	 0.9487238385	 0.110443
H	 0.8016970605	-1.5507196152	-1.2062157218	 0.105211
H	 0.1392850271	-0.1842910331	-2.0867010137	 0.094487
H	 2.1495147293	 1.1982856497	-1.3910280048	 0.117604
H	 2.8658256102	-0.2467754499	-0.6461229455	 0.123134
H	 2.0934895889	 0.0236252456	-3.6277745749	 0.067514
56.8693	61.6332	107.3407	181.1721	229.8448	265.422	274.8801	292.174	328.4049	332.6995	408.7218	416.1455	477.2171	533.9121	740.9412	771.0282	853.8113	909.4707	935.6291	937.4253	960.243	999.5141	1021.3643	1029.9864	1091.0944	1103.1208	1191.5185	1219.5851	1262.7261	1269.2581	1288.5447	1344.0925	1379.3722	1400.53	1401.3525	1428.7241	1434.0763	1464.5562	1481.4632	1484.1032	1487.8446	1490.4515	1508.8976	1510.0929	1519.3089	1836.056	2842.9875	3007.6083	3022.3385	3024.1651	3026.063	3033.4535	3048.6127	3091.2618	3092.2446	3094.7371	3098.4447	3099.5065	3103.3377	3112.6701
CC(C)(C)CCC=O	CC(C)(C)CCC=O	
InChI=1S/C7H14O/c1-7(2,3)5-4-6-8/h6H,4-5H2,1-3H3	InChI=1S/C7H14O/c1-7(2,3)5-4-6-8/h6H,4-5H2,1-3H3
