13
gdb 132075	2.40581	1.85257	1.04663	2.9867	67.26	-0.208	-0.0396	0.1684	1019.9168	0.089331	-497.879187	-497.872071	-497.871127	-497.910726	27.473	
O	 0.0260362851	 1.3659122359	 0.0070442683	-0.419396
C	-0.0285008792	 0.0253584167	 0.0006925475	 0.156936
C	-1.1728470491	-0.6995083576	 0.0036810196	 0.196352
F	-2.3648345518	-0.1081738906	 0.0134957395	-0.056852
C	-1.123384417	-2.1303792449	-0.0037163311	-0.281227
C	 0.0746626146	-2.7351984676	-0.0136293792	 0.051388
O	 1.2438783911	-2.0398501593	-0.0169091957	-0.224499
C	 1.251800456	-0.6688069363	-0.010129061	 0.340639
N	 2.322529744	 0.0237685624	-0.0128892887	-0.588686
H	 0.9812575799	 1.5706903137	 0.0025716407	 0.311706
H	-2.0395056147	-2.7046055437	-0.0012913501	 0.133113
H	 0.2454881046	-3.8019348523	-0.0199205909	 0.147554
H	 3.1649838865	-0.5454539864	-0.020590439	 0.232971
137.0791	192.4645	283.4315	298.0628	341.0765	479.6198	509.3736	530.2933	559.6534	592.8968	625.0132	707.8752	741.8552	760.0242	787.8377	855.7267	891.1092	997.4139	1053.1713	1105.1595	1241.3701	1266.139	1301.6335	1356.245	1432.5005	1463.1101	1634.698	1708.1659	1744.5232	3231.1243	3252.042	3535.881	3595.1857
OC1=C(F)C=COC1=N	OC1=C(OCC=C1F)[NH]	
InChI=1S/C5H4FNO2/c6-3-1-2-9-5(7)4(3)8/h1-2,7-8H	InChI=1S/C5H5FNO2/c6-3-1-2-9-5(7)4(3)8/h1,7-8H,2H2
