20
gdb 104900	2.08491	1.49636	1.02156	4.1823	80.85	-0.2444	0.0227	0.2672	1237.6601	0.170024	-399.318578	-399.308346	-399.307402	-399.353393	37.467	
C	-0.0253745582	 1.5104971834	-0.0489267418	-0.441387
C	-0.0168625611	-0.0031072594	 0.0632019094	 0.259685
C	-1.1758982108	-0.6661493182	-0.6573313686	-0.473552
N	 1.3109021152	-0.6305855048	-0.0115531077	-0.393943
C	 0.5759648353	-0.6797800855	 1.2801578362	 0.136536
C	 1.2468813245	 0.0521943752	 2.4343936741	-0.229007
N	 2.411795214	-0.7177778952	 2.8633707264	-0.501712
C	 0.008031422	-1.9554736867	 1.667815059	 0.277552
N	-0.4591658342	-2.9690280669	 1.9729056035	-0.356518
H	 0.9021422269	 1.9529558475	 0.3138859252	 0.134635
H	-0.138421052	 1.7959403725	-1.1005146622	 0.12519
H	-0.8666104829	 1.939426625	 0.5053161383	 0.125487
H	-1.1101699559	-0.4557509622	-1.7305450667	 0.125869
H	-1.1887006102	-1.7487815955	-0.5149924026	 0.14627
H	-2.1320744812	-0.2697274109	-0.3002863282	 0.133551
H	 1.2591265534	-1.5334130454	-0.4788523462	 0.244321
H	 1.4733640991	 1.0786521275	 2.1170828048	 0.095367
H	 0.5430038791	 0.1160340542	 3.2718066107	 0.119663
H	 3.1078349573	-0.7021853128	 2.1235769606	 0.239259
H	 2.8348590497	-0.2901103517	 3.6801828157	 0.232734
77.3881	120.264	153.2919	155.5666	186.9519	221.1786	245.805	292.8288	338.0365	378.5194	389.2472	422.7267	488.3651	581.1781	601.7092	674.3082	741.34	846.0079	869.1679	921.3844	962.6778	980.1788	1002.1999	1053.7266	1081.3614	1097.2154	1128.1725	1150.4658	1203.6813	1266.7837	1314.4553	1340.3576	1392.548	1415.7188	1423.8903	1430.1547	1478.8398	1485.148	1498.3935	1501.9679	1511.7273	1651.8792	2345.6743	3010.0623	3035.501	3042.3046	3067.5389	3096.7238	3101.5038	3129.7215	3149.7191	3495.8755	3498.3933	3582.007
CC1(C)NC1(CN)C#N	CC1(C)N[C@]1(CN)C#N	
InChI=1S/C6H11N3/c1-5(2)6(3-7,4-8)9-5/h9H,3,7H2,1-2H3	InChI=1S/C6H11N3/c1-5(2)6(3-7,4-8)9-5/h9H,3,7H2,1-2H3/t6-/m1/s1
