23
gdb 103470	2.31528	1.45963	1.11378	1.1739	86.01	-0.2346	0.0696	0.3042	1231.2664	0.204289	-388.268037	-388.258158	-388.257213	-388.302108	38.189	
C	 0.2082951625	 1.4497607395	 0.2498400382	-0.393544
C	-0.1661799718	-0.0015675985	-0.0785891971	-0.239909
C	 0.6286212734	-0.5659865071	-1.2430912155	 0.373018
O	 0.3862879244	 0.1290820805	-2.450031803	-0.482266
C	 2.0441840209	-1.0942433735	-1.1498184732	-0.173909
C	 2.2841449786	-1.864154769	 0.1508216395	-0.242338
C	 1.0843549851	-2.8013042012	-0.2023956602	-0.29207
C	 0.8644410287	-2.0307525455	-1.5153378532	 0.291636
C	 0.4893982964	-2.6939823002	-2.8099862022	-0.493662
H	 1.2701262913	 1.5364500287	 0.506189885	 0.117041
H	 0.0090449859	 2.1127760719	-0.5989697855	 0.110501
H	-0.3723064114	 1.8254183961	 1.0974872588	 0.114761
H	-0.0268134993	-0.6203306583	 0.8121249645	 0.100503
H	-1.2310419011	-0.0571778418	-0.3357693061	 0.102203
H	 0.8718862441	 0.959323257	-2.4127628392	 0.282837
H	 2.8126224457	-0.6894284435	-1.8006124922	 0.074415
H	 3.2351878603	-2.4015270616	 0.1530948778	 0.102686
H	 2.2151941702	-1.2912604216	 1.0816160879	 0.09403
H	 1.4104888271	-3.8277768728	-0.3885679578	 0.10156
H	 0.2443061426	-2.8345217217	 0.4987866142	 0.093776
H	-0.5145541945	-3.1326801842	-2.7448610878	 0.113319
H	 0.4883870838	-1.9753107742	-3.6311202196	 0.137991
H	 1.1855869372	-3.5050390189	-3.0533100334	 0.10742
73.339	147.2211	185.8749	214.45	223.26	259.3468	269.6627	303.7696	310.4226	372.5534	409.1033	461.8062	537.671	655.6529	663.6167	743.1331	792.0803	797.0093	882.0613	932.0169	938.5522	954.0661	973.8037	993.3711	1010.7741	1043.5816	1083.6073	1112.1516	1125.6262	1177.69	1188.1281	1215.9945	1234.4536	1247.5164	1259.9418	1289.4386	1314.6674	1324.9667	1360.5101	1401.7064	1408.6767	1455.3274	1473.2879	1490.1667	1493.8505	1497.2823	1500.9604	1510.7824	1511.823	3020.4686	3030.5303	3036.2155	3042.3447	3049.9389	3071.5037	3081.9549	3088.3715	3102.6155	3105.6991	3108.394	3136.0207	3160.083	3811.4847
CCC1(O)C2CCC12C	CC[C@@]1(O)[C@H]2CC[C@@]12C	
InChI=1S/C8H14O/c1-3-8(9)6-4-5-7(6,8)2/h6,9H,3-5H2,1-2H3	InChI=1S/C8H14O/c1-3-8(9)6-4-5-7(6,8)2/h6,9H,3-5H2,1-2H3/t6-,7+,8+/m0/s1
