21
gdb 119661	3.69622	1.08554	0.97904	0.9825	84.36	-0.252	0.088	0.3399	1305.6578	0.182348	-387.002227	-386.993813	-386.992868	-387.035796	32.054	
C	-0.0335772246	 1.3510502108	-0.041948069	-0.217
O	 0.0119454596	-0.05446704	-0.0587528013	-0.235911
C	-1.2637012205	-0.6472195617	 0.0849993574	-0.22059
C	-1.1017378021	-2.1378398182	 0.0849012346	 0.378641
C	-0.3399801519	-3.0236995972	 1.0923155746	-0.305566
C	-0.9142377416	-4.016518796	 0.0645331628	-0.045677
C	-2.2453370552	-3.2025092211	-0.0991997758	-0.089733
C	-2.1273742672	-3.1810803288	-1.6361487276	-0.269818
C	-0.6766913285	-3.0376684929	-1.1359012562	-0.062971
H	 0.9905604788	 1.7143107458	-0.158357839	 0.125643
H	-0.6480846192	 1.7516670651	-0.8644980932	 0.101307
H	-0.4418141368	 1.7371895809	 0.906109472	 0.10168
H	-1.7362312281	-0.3158673208	 1.0269382274	 0.083881
H	-1.9308653171	-0.3327803349	-0.737231289	 0.084801
H	 0.7476890101	-2.9087888371	 1.1182278473	 0.098699
H	-0.7479115883	-3.073602885	 2.108086088	 0.084579
H	-0.8253271074	-5.1032673916	 0.0271531052	 0.067929
H	-3.1347798467	-3.2971915524	 0.5274614047	 0.065777
H	-2.3763065691	-4.1105783214	-2.1584583259	 0.089847
H	-2.5631467613	-2.3238490666	-2.1595778146	 0.090427
H	 0.2470874273	-2.932731657	-1.7061840825	 0.074056
67.4774	89.3522	128.1823	223.8701	278.121	344.2145	346.4427	421.5669	465.8483	690.2743	733.9219	774.0729	852.1827	863.254	878.7376	907.4293	920.8054	944.671	983.9494	1003.0952	1018.3323	1025.1736	1056.1829	1105.5799	1120.6954	1137.0067	1153.1949	1159.1885	1160.1936	1184.6207	1189.9685	1218.6463	1225.4502	1238.8485	1242.5358	1274.3495	1305.9744	1338.8688	1421.0411	1479.3039	1484.7948	1497.9348	1510.2765	1510.9201	1520.9387	2937.5531	2963.8954	2966.1629	3006.9793	3034.2669	3037.1966	3087.6498	3091.1677	3096.1189	3099.955	3111.2527	3111.8508
COCC12CC3C1CC23	COC[C@@]12C[C@H]3[C@@H]1C[C@@H]23	
InChI=1S/C8H12O/c1-9-4-8-3-5-6(8)2-7(5)8/h5-7H,2-4H2,1H3	InChI=1S/C8H12O/c1-9-4-8-3-5-6(8)2-7(5)8/h5-7H,2-4H2,1H3/t5-,6-,7+,8-
