15
gdb 5166	5.29579	1.37688	1.16879	0.9021	69.81	-0.2069	-0.0295	0.1775	991.1093	0.119752	-362.70942	-362.702017	-362.701072	-362.74254	26.488	
O	-0.6103046389	 1.6034143077	 0.8407399643	-0.251996
C	 0.0697605595	 1.1657524327	-0.0539960902	 0.150739
C	 1.4908339279	 1.6300276187	-0.3312986796	-0.379806
C	 1.4311294346	 2.727920229	-1.351732148	 0.29017
C	 1.9685609949	 2.8429769977	-2.6159011863	-0.231977
C	 1.5798710171	 4.1082209422	-3.1362881926	-0.136302
C	 0.8090751134	 4.7259803509	-2.1786653547	-0.090323
N	 0.724657469	 3.8825115292	-1.1017500526	-0.270811
H	-0.3377620813	 0.432262363	-0.7839785751	 0.088969
H	 1.9326080974	 1.9712364267	 0.6122168837	 0.127133
H	 2.089184573	 0.805597863	-0.7290447332	 0.124882
H	 2.5835316896	 2.1015684951	-3.1034225168	 0.092878
H	 1.8406141184	 4.5187320259	-4.0994410195	 0.096089
H	 0.3184086184	 5.6858973098	-2.1721311026	 0.119374
H	 0.190443717	 4.0459886684	-0.2643412469	 0.270981
30.123	68.1522	157.7812	296.2027	330.7532	500.3277	527.3032	631.4611	645.9259	680.6781	725.7216	796.8236	854.3707	882.2638	896.9121	973.9563	990.4829	1053.4974	1055.8474	1115.771	1144.969	1189.2581	1253.1989	1288.1233	1305.2227	1416.2916	1441.9106	1452.0731	1468.4803	1497.7367	1609.9631	1816.8018	2893.2065	3035.4039	3105.4014	3241.3764	3254.2748	3273.2205	3663.7073
O=CCC1=CC=CN1	O=CCc1ccc[nH]1	
InChI=1S/C6H7NO/c8-5-3-6-2-1-4-7-6/h1-2,4-5,7H,3H2	InChI=1S/C6H7NO/c8-5-3-6-2-1-4-7-6/h1-2,4-5,7H,3H2
