21
gdb 95626	2.21099	1.49828	1.13774	1.6915	78.53	-0.2308	-0.0178	0.213	1176.3891	0.183043	-424.26653	-424.257401	-424.256457	-424.300133	34.917	
C	-0.033668165	 1.570783061	 0.0335504222	-0.410151
C	 0.0396654145	 0.0404065908	-0.0005161758	 0.016952
C	 0.6936104044	-0.4890645751	-1.289683247	-0.188467
C	 0.7240858753	-2.0228100523	-1.3279213651	-0.224803
C	 1.4360038866	-2.6096822066	-0.0898587858	-0.28459
C	 0.8293474114	-2.0489721613	 1.1834244145	 0.362123
O	 0.4208431504	-2.7320037605	 2.0945523051	-0.318216
C	 0.7707070152	-0.514682229	 1.2346595197	 0.02164
O	 2.102928143	 0.0056168897	 1.2279026831	-0.434897
H	 0.9694080377	 2.0049149791	 0.0290030853	 0.13497
H	-0.5784297969	 1.9514343604	-0.8362307353	 0.110384
H	-0.5490025149	 1.9227814622	 0.933503292	 0.11065
H	-0.9838543624	-0.3596005649	 0.0495979311	 0.080545
H	 0.1463810836	-0.1051001141	-2.1578583885	 0.09283
H	 1.7145981194	-0.0956932168	-1.358438559	 0.11439
H	-0.3028937564	-2.4091964587	-1.3669218019	 0.105003
H	 1.2235258427	-2.3740764099	-2.2368517867	 0.102231
H	 1.3820190106	-3.7001862992	-0.057833205	 0.113158
H	 2.4919263149	-2.3130809769	-0.1145706982	 0.125328
H	 0.2414014303	-0.2282826331	 2.1532631374	 0.076532
H	 2.5166074056	-0.2294803049	 2.0647015178	 0.294388
76.4406	125.3399	204.8318	215.455	256.3859	287.2282	297.3236	329.2746	401.2796	430.293	477.2388	531.6845	626.7591	684.5596	762.6402	811.3824	876.4685	886.0242	945.3239	967.8109	987.2933	1001.897	1053.0464	1095.3779	1106.6938	1119.7715	1153.669	1219.4568	1234.0103	1256.1337	1287.1718	1295.7033	1330.2124	1344.3616	1372.8533	1374.1938	1379.703	1402.9061	1416.5669	1460.9033	1487.4255	1493.2498	1498.8094	1504.7238	1815.5073	2999.5334	3019.7	3022.7445	3034.6237	3038.2976	3039.4522	3070.8591	3081.0977	3100.2062	3112.0108	3123.5402	3819.2054
CC1CCCC(=O)C1O	C[C@H]1CCCC(=O)[C@H]1O	
InChI=1S/C7H12O2/c1-5-3-2-4-6(8)7(5)9/h5,7,9H,2-4H2,1H3	InChI=1S/C7H12O2/c1-5-3-2-4-6(8)7(5)9/h5,7,9H,2-4H2,1H3/t5-,7-/m0/s1
