17
gdb 115561	2.90759	1.08922	1.03157	2.6531	69.14	-0.2521	-0.0013	0.2507	1214.6726	0.135509	-455.115503	-455.106293	-455.105348	-455.150093	33.287	
O	 0.0438076672	 1.3370026448	-0.4953449519	-0.421955
C	 0.1468094907	-0.0329012104	-0.1687490093	-0.049669
C	-1.2335092548	-0.5401159805	 0.2545520975	-0.052144
N	-2.2153069777	-0.3155848161	-0.8509186402	-0.33347
C	-2.3460698021	-1.7819696368	-1.078902245	-0.222556
C	-1.4605254009	-2.084683103	 0.1749526374	 0.238384
O	-0.2745182688	-2.8161958786	-0.0083935047	-0.453662
C	-2.2383855508	-2.6162901372	 1.3016429941	 0.224213
N	-2.8555946972	-3.0570820975	 2.1743915139	-0.330621
H	-0.6665860453	 1.3842198099	-1.1504222686	 0.28623
H	 0.5237760391	-0.6279316979	-1.0116904745	 0.100396
H	 0.8617168317	-0.1256755759	 0.6534635078	 0.119481
H	-1.5185618705	-0.0831056601	 1.2054742256	 0.103749
H	-3.0817424517	 0.0834994361	-0.5088917246	 0.23773
H	-3.3652020694	-2.1750007351	-1.0564957508	 0.127364
H	-1.8503773463	-2.1037661572	-2.0001521114	 0.127139
H	-0.4782870832	-3.7581670644	-0.0052099151	 0.299391
43.3457	103.1287	142.2224	187.0054	209.9389	256.8087	298.8182	372.7642	428.8617	470.0603	521.4984	536.6804	612.2609	658.0851	809.6092	841.0999	876.0116	926.53	985.0984	1009.0758	1026.4477	1065.3919	1085.8125	1134.4324	1149.3499	1198.0412	1227.1834	1279.0726	1299.0662	1343.4674	1365.5461	1381.8981	1400.1426	1437.1227	1496.6178	1507.4308	2347.4419	3014.4206	3049.0476	3077.2715	3098.9439	3110.7619	3544.8015	3744.7876	3808.1292
OCC1NCC1(O)C#N	OC[C@H]1NC[C@]1(O)C#N	
InChI=1S/C5H8N2O2/c6-2-5(9)3-7-4(5)1-8/h4,7-9H,1,3H2	InChI=1S/C5H8N2O2/c6-2-5(9)3-7-4(5)1-8/h4,7-9H,1,3H2/t4-,5-/m1/s1
