14
gdb 25555	7.01452	0.75113	0.68581	5.4799	66.42	-0.2303	-0.0186	0.2116	1519.3398	0.09897	-473.832417	-473.824194	-473.82325	-473.867833	28.123	
O	 0.6486972171	-0.2188042765	 0.2452027835	-0.245299
C	 0.4247466872	 0.772918997	-0.3970067085	 0.152983
C	 0.6634736184	 2.1846815347	 0.1200681681	-0.237521
N	 0.5201605606	 3.1397109874	-0.9582785602	-0.389481
C	 0.9643125489	 4.2991135958	-0.802130255	 0.550951
O	 1.5925496264	 4.8225146831	 0.3042448939	-0.224404
C	 1.9099895741	 6.1341584804	-0.0041954795	-0.055298
C	 1.4884750956	 6.396541575	-1.2352526367	-0.043593
O	 0.8901760327	 5.2694486319	-1.7605455289	-0.215879
H	 0.0107956887	 0.7377946691	-1.4288903822	 0.093649
H	-0.0793614498	 2.3632315863	 0.9140826895	 0.139467
H	 1.645605178	 2.2136665364	 0.612424851	 0.136256
H	 2.4160259059	 6.7106809957	 0.7490433038	 0.168344
H	 1.5232189462	 7.2697861937	-1.8613754789	 0.169823
14.4326	59.2656	110.8409	168.4602	255.8531	313.2428	412.6931	567.4235	596.5007	687.4964	718.2396	753.7145	762.1829	802.1866	890.2542	912.0636	1043.3718	1048.8168	1086.951	1101.5291	1124.4636	1133.3162	1202.0936	1238.0312	1334.0375	1366.6142	1402.0538	1442.0537	1680.247	1834.4527	1843.9109	2899.3225	2983.324	3028.8321	3299.3879	3325.2966
O=CCN=C1OC=CO1	O=CCN=c1occo1	
InChI=1S/C5H5NO3/c7-2-1-6-5-8-3-4-9-5/h2-4H,1H2	InChI=1S/C5H5NO3/c7-2-1-6-5-8-3-4-9-5/h2-4H,1H2
