17
gdb 127134	4.08343	1.11171	0.89354	4.8897	73.82	-0.2092	0.0326	0.2419	1278.2403	0.135882	-451.31206	-451.302955	-451.30201	-451.346423	32.53	
C	-0.138008101	 1.4128252667	 0.0001187761	-0.332165
N	-0.2491950334	-0.0420644896	 0.0072013259	-0.178141
C	 0.2552788405	-0.700255193	 1.2050261288	-0.344702
C	-0.0784698087	-0.6544233382	-1.2044122806	 0.551884
N	 0.1113357087	-0.0209663599	-2.3249622292	-0.247908
O	 0.1168662156	-1.0570724178	-3.3246380504	-0.248814
C	-0.0457883923	-2.2759691649	-2.7371460425	 0.491525
N	-0.1129750356	-3.4177732376	-3.2771513581	-0.609488
N	-0.1267266785	-2.0169704511	-1.375569448	-0.420181
H	 0.9050632724	 1.7519301665	-0.0719476851	 0.129133
H	-0.6849715254	 1.8096247397	-0.8555814658	 0.167089
H	-0.5748157689	 1.7998738766	 0.9241793297	 0.12531
H	-0.2028188914	-0.2309161423	 2.0793062392	 0.141433
H	-0.0188201519	-1.757044548	 1.2185471544	 0.128779
H	 1.3488685064	-0.624998439	 1.3028253692	 0.132713
H	-0.0320283679	-3.341088879	-4.2880921548	 0.231028
H	-0.4343513586	-2.709707069	-0.7174580988	 0.282505
45.1386	118.1076	147.5105	176.5261	217.1547	227.0238	353.9721	369.6233	371.6128	419.0844	547.2022	605.3679	687.0956	730.4283	746.249	770.0492	908.9017	941.2664	980.4948	1047.4265	1077.6053	1083.8969	1126.0311	1175.8632	1215.8202	1263.9512	1324.7572	1351.9943	1449.6274	1472.3334	1478.9478	1488.4919	1501.4695	1506.6362	1554.7321	1664.9222	1790.0217	2993.7916	3009.7041	3090.8567	3094.4967	3129.4408	3152.1484	3536.09	3701.344
CN(C)C1=NOC(=N)N1	CN(C)C1=NO[C@@H]([NH])N1	
InChI=1S/C4H8N4O/c1-8(2)4-6-3(5)9-7-4/h1-2H3,(H2,5,6,7)	InChI=1S/C4H9N4O/c1-8(2)4-6-3(5)9-7-4/h3,5H,1-2H3,(H,6,7)/t3-/m0/s1
