21
gdb 82134	3.02877	1.12039	0.95313	2.8115	82.5	-0.2459	-0.0198	0.226	1294.1852	0.181492	-387.071661	-387.062522	-387.061578	-387.106221	34.101	
C	-0.1572635663	 1.6552849852	 0.1557481172	-0.416121
C	-0.0211548914	 0.1409182685	 0.0338428842	 0.005951
C	 0.4529610563	-0.4493450354	-1.3043617966	-0.050832
C	 1.879615811	-0.0758799203	-1.5917480978	-0.282768
C	 1.6040366282	-1.1805882027	-0.6102617776	-0.070603
C	 1.1647194067	-0.6278207378	 0.7509282519	-0.022056
C	 2.1962556534	 0.1396879011	 1.5929222465	-0.289967
C	 1.6500347192	 0.4943849865	 2.9562050385	 0.161532
O	 1.5187384716	 1.6108505518	 3.3887700562	-0.240992
H	 0.7340833276	 2.1821000972	-0.1976378029	 0.116081
H	-1.0034982879	 2.0073946779	-0.4443618869	 0.113737
H	-0.3291304984	 1.9614118965	 1.1922183142	 0.133373
H	-0.9656042724	-0.323315171	 0.3339134009	 0.075514
H	-0.2027343395	-0.8168381635	-2.0847899745	 0.08435
H	 2.2545992048	-0.4068619971	-2.5550173846	 0.112599
H	 2.2912985683	 0.8764514171	-1.2695739597	 0.10797
H	 1.9658888169	-2.1889194027	-0.7745829705	 0.083922
H	 0.7483717893	-1.4340706131	 1.3649394409	 0.075785
H	 3.0645623938	-0.5174258968	 1.7486626205	 0.115583
H	 2.5427101096	 1.0520151238	 1.1022428279	 0.117947
H	 1.3470162393	-0.3909685652	 3.5661553523	 0.068995
51.0864	72.4054	136.8314	202.6718	213.1964	250.8957	293.4675	382.1461	456.7071	530.785	558.9852	659.6884	725.2889	783.4806	797.106	853.9773	896.1841	932.7939	956.6784	993.9897	1002.325	1033.5677	1051.527	1066.9737	1070.3535	1085.6981	1099.2037	1139.5685	1152.1612	1179.4378	1212.0196	1240.5311	1266.7498	1283.4482	1311.5355	1365.7028	1370.7267	1384.6068	1417.1529	1430.3681	1462.5203	1487.2665	1498.8106	1500.9532	1831.634	2840.0558	3011.1273	3033.5844	3036.1728	3055.8626	3100.1531	3108.3595	3112.1904	3121.1183	3170.6733	3180.7807	3202.6669
CC1C2CC2C1CC=O	C[C@H]1[C@H]2C[C@H]2[C@H]1CC=O	
InChI=1S/C8H12O/c1-5-6(2-3-9)8-4-7(5)8/h3,5-8H,2,4H2,1H3	InChI=1S/C8H12O/c1-5-6(2-3-9)8-4-7(5)8/h3,5-8H,2,4H2,1H3/t5-,6+,7-,8+/m1/s1
