19
gdb 113353	2.73078	0.99295	0.84008	1.4509	73.57	-0.259	-0.0396	0.2195	1415.687	0.155982	-460.149765	-460.139674	-460.13873	-460.185511	35.664	
C	 0.2988642838	 1.1868442435	 0.5428046314	-0.385685
C	-0.4575795992	 0.0637918988	-0.1801169079	-0.279101
C	 0.3229611155	-0.4801982366	-1.3563399119	 0.278779
O	 1.5878216296	-1.1281359291	-1.1034757345	-0.294408
C	 0.5368023261	-1.9206921933	-1.6533492212	-0.023111
C	 0.0221461787	-3.0586336534	-0.8034256776	-0.095048
O	 0.8755993347	-4.1852277846	-0.9068412198	-0.411666
C	 0.3969746026	 0.4031354292	-2.5732756199	 0.130894
O	-0.3253257802	 1.3445818788	-2.7764594858	-0.256893
H	 1.2644292495	 0.82777795	 0.9108060061	 0.129823
H	 0.4784121011	 2.0335993518	-0.1253028934	 0.137447
H	-0.2791974508	 1.5498722338	 1.3970077967	 0.118072
H	-0.6933656111	-0.7377487489	 0.523314495	 0.105778
H	-1.4063554968	 0.4461519487	-0.5707207699	 0.128483
H	 0.7034551716	-2.2060072219	-2.695066448	 0.103037
H	-0.094780197	-2.7364821324	 0.2385740435	 0.103089
H	-0.9565871877	-3.3812712994	-1.1742090279	 0.123941
H	 1.7352071573	-3.9275905759	-0.555577553	 0.294714
H	 1.1968835125	 0.0992333305	-3.284689382	 0.091855
55.8386	74.3989	106.0576	149.6018	190.5626	218.5904	255.7397	301.9169	322.5251	386.7023	395.1672	495.4307	544.1698	606.8893	725.3613	789.8186	822.6559	881.0901	945.9896	993.552	1027.038	1058.1289	1070.1975	1102.066	1115.5999	1133.8484	1221.0973	1253.2918	1312.3683	1319.3761	1364.568	1370.1699	1406.5688	1408.9472	1419.7072	1465.5593	1477.3877	1489.198	1501.0093	1509.6895	1826.0408	2893.5546	3025.9954	3046.4582	3061.6587	3077.8459	3091.2305	3103.721	3118.9061	3128.2921	3806.5608
CCC1(OC1CO)C=O	CC[C@]1(O[C@H]1CO)C=O	
InChI=1S/C6H10O3/c1-2-6(4-8)5(3-7)9-6/h4-5,7H,2-3H2,1H3	InChI=1S/C6H10O3/c1-2-6(4-8)5(3-7)9-6/h4-5,7H,2-3H2,1H3/t5-,6-/m0/s1
