19
gdb 115015	2.30388	1.61529	1.05223	2.1015	77.96	-0.2412	0.0082	0.2495	1166.7748	0.158643	-423.003069	-422.994544	-422.9936	-423.036593	31.995	
C	 0.1088410827	 1.5298346749	-0.2569623854	-0.235992
O	-0.2673339063	 0.1731827292	-0.33749425	-0.244152
C	 0.6198250932	-0.6174405075	-1.0972849759	 0.040952
C	 1.9555002354	-0.9708058219	-0.3802983902	-0.301964
C	 2.1284450304	-2.4455838388	-0.6569699361	-0.083363
C	 1.0484647746	-2.988988014	-1.2190324012	-0.149346
C	-0.0147213151	-1.9756475319	-1.4224831531	 0.402756
C	-1.4559294421	-2.2361111138	-1.2978816613	-0.238823
O	-0.8547962154	-2.0572798979	-2.5830814263	-0.292999
H	 1.0654980983	 1.6656010109	 0.2690871852	 0.107625
H	 0.1966578525	 1.9847661934	-1.2558184941	 0.109573
H	-0.6733359098	 2.0494114723	 0.3015970904	 0.128402
H	 0.8322854049	-0.1152990556	-2.0542818931	 0.08498
H	 2.8043795462	-0.374167908	-0.7319477975	 0.107583
H	 1.852023547	-0.7777551775	 0.6956873358	 0.12073
H	 3.0330539017	-2.9826802011	-0.394282099	 0.101752
H	 0.9151097693	-4.0274662331	-1.4967033186	 0.106246
H	-1.8035131037	-3.2456483984	-1.0788081391	 0.106762
H	-2.1013309337	-1.4273900611	-0.9644530305	 0.129277
60.3286	105.1352	188.9424	209.7123	262.7983	295.057	331.3103	456.0883	470.1397	507.4831	562.2413	715.6345	756.0329	811.5035	857.65	877.8453	946.0787	965.4992	974.7837	1004.472	1031.0037	1048.4593	1119.6905	1130.5381	1151.8904	1161.4564	1178.7253	1188.3412	1231.0974	1244.0927	1280.241	1323.0973	1344.856	1392.6878	1426.4505	1478.7785	1482.5902	1492.3215	1510.0659	1519.4371	1679.3645	2976.0629	2982.6753	3021.9488	3027.5073	3063.4514	3084.3083	3115.6514	3184.5382	3189.0426	3217.2607
COC1CC=CC11CO1	CO[C@H]1CC=C[C@]21CO2	
InChI=1S/C7H10O2/c1-8-6-3-2-4-7(6)5-9-7/h2,4,6H,3,5H2,1H3	InChI=1S/C7H10O2/c1-8-6-3-2-4-7(6)5-9-7/h2,4,6H,3,5H2,1H3/t6-,7+/m0/s1
