18
gdb 38235	3.27906	2.04235	1.73325	1.9627	75.52	-0.2232	0.0518	0.275	835.3978	0.150115	-401.780235	-401.774235	-401.773291	-401.810043	26.785	
C	-0.0102142678	 1.7386594493	 0.0302117097	-0.154413
N	 1.4690607024	 1.5656469684	 0.1110207965	-0.149509
C	 1.1145683761	 0.3314022199	 0.9737020417	-0.259891
C	-0.0861108255	 0.1792027978	-0.0661680723	 0.181716
C	-1.4049401389	-0.1799587442	-0.7519015818	-0.186144
O	-1.1376544543	 0.5355938311	-2.0149176708	-0.27299
C	 0.2647010565	 0.4732283912	-2.2592476246	 0.043588
C	 1.5915332337	 0.9765048476	-1.2833826086	-0.078866
C	 0.8855596457	-0.3039531576	-1.2233555905	-0.085193
H	-0.4249846983	 2.0719625002	 0.9876151631	 0.090441
H	-0.3632041249	 2.3734746927	-0.7780550585	 0.130953
H	 1.8652818234	-0.4604232357	 0.9981077252	 0.11364
H	 0.8544998177	 0.6630734659	 1.9790805007	 0.118543
H	-1.5759644886	-1.2416285919	-0.9589615357	 0.109713
H	-2.297616749	 0.271456846	-0.3156663513	 0.120361
H	 0.4927321463	 0.4622032496	-3.3191553571	 0.107631
H	 2.5113243746	 1.1717491026	-1.8239321529	 0.089559
H	 1.245143381	-1.330592143	-1.1922412128	 0.080863
272.0431	337.8163	381.2605	477.3842	511.7491	553.6748	625.3422	677.518	692.7263	744.3728	791.1723	823.7188	845.1974	853.5014	879.513	896.2731	934.7032	939.4903	966.5695	997.5751	1012.7448	1042.2891	1086.7865	1094.7276	1132.0671	1148.4871	1170.0799	1189.3537	1202.5426	1212.8398	1223.1642	1249.5045	1279.154	1293.3	1313.7206	1410.0176	1500.2692	1506.7397	1544.9918	3042.7023	3045.2498	3078.8704	3109.6805	3124.5898	3153.0665	3164.1845	3175.3368	3184.8203
C1N2CC11COC3C2C13	C1N2C[C@]31CO[C@H]1[C@@H]2[C@@H]31	
InChI=1S/C7H9NO/c1-7-2-8(1)5-4(7)6(5)9-3-7/h4-6H,1-3H2	InChI=1S/C7H9NO/c1-7-2-8(1)5-4(7)6(5)9-3-7/h4-6H,1-3H2/t4-,5+,6-/m1/s1
