19
gdb 114715	2.78159	1.42354	1.11808	4.6656	76.05	-0.2422	0.0347	0.2769	1147.6569	0.160806	-419.228944	-419.220536	-419.219592	-419.262606	31.138	
C	 0.158697481	 1.5846555922	-0.0863622841	-0.380613
C	-0.025437978	 0.0814915414	 0.1392454984	-0.152563
N	 0.7158254838	-0.4283630381	 1.2770432246	-0.086644
C	 2.1523055451	-0.6187651773	 1.2797883172	-0.198404
C	 2.3982365371	-1.1384178465	 2.6901519774	-0.026919
C	 1.9508465598	-0.3171369638	 3.8366210462	-0.249499
N	 1.0932406768	-1.4134096903	 3.322526826	-0.156459
C	 0.0944684564	-0.9011355251	 2.410698311	 0.409436
O	-1.0921254851	-0.9020481451	 2.6270979791	-0.383482
H	 1.2050415502	 1.8415114538	-0.2816807433	 0.116309
H	-0.4291014209	 1.9102529811	-0.9500545051	 0.123204
H	-0.1758821336	 2.1497588479	 0.7884284551	 0.131999
H	-1.0750429746	-0.1469487046	 0.3408870316	 0.14836
H	 0.2724270249	-0.4744077381	-0.7605927269	 0.102274
H	 2.4592380711	-1.3628423563	 0.5302524485	 0.113344
H	 2.6941513353	 0.3109961513	 1.0641352796	 0.117351
H	 3.1651377352	-1.8924371668	 2.8299675937	 0.109492
H	 2.3629965369	-0.4951493772	 4.8245978513	 0.131997
H	 1.6257041088	 0.7029816616	 3.6475982998	 0.130819
52.9837	93.43	152.894	215.5947	254.021	323.2664	375.9772	380.7478	514.6961	624.0722	675.5691	753.3304	782.9375	803.8166	822.4558	871.103	932.6471	945.5833	997.607	1036.9642	1078.2631	1091.3752	1110.7688	1117.6226	1137.5731	1169.8469	1212.8509	1252.9607	1266.3561	1299.2133	1346.8064	1385.7919	1400.7612	1412.5446	1441.9646	1482.2847	1493.7646	1502.6005	1503.5162	1533.5412	1837.565	2994.7378	3010.8345	3030.7457	3039.5974	3096.8155	3113.1103	3114.6344	3121.0908	3169.946	3206.3039
CCN1CC2CN2C1=O	CCN1C[C@H]2CN2C1=O	
InChI=1S/C6H10N2O/c1-2-7-3-5-4-8(5)6(7)9/h5H,2-4H2,1H3	InChI=1S/C6H10N2O/c1-2-7-3-5-4-8(5)6(7)9/h5H,2-4H2,1H3/t5-,8?/m0/s1
