18
gdb 74789	2.833	1.73192	1.53082	2.2376	75.54	-0.2352	0.0019	0.2371	952.8066	0.150644	-401.968822	-401.961745	-401.960801	-402.000006	28.525	
C	-0.0301553127	 1.4966828879	 0.0622002671	-0.511221
C	-0.0737934427	 0.0060360623	-0.0084054728	 0.33689
C	-0.0541779089	-0.7951273798	-1.0807703983	-0.170309
C	 0.0591725666	-2.2494582985	-0.6344722948	-0.026337
C	-0.6312337751	-2.1861945113	 0.743149026	-0.249292
C	 0.016968108	-0.8872778482	 1.2247507614	 0.022211
O	 1.4329081802	-1.1541750095	 1.4801724956	-0.247519
C	 2.0180586722	-1.9819199685	 0.575387128	 0.12537
N	 1.4961300286	-2.5509629556	-0.4320798243	-0.266794
H	 0.8820698926	 1.8367610981	 0.5681523174	 0.139865
H	-0.0525784185	 1.9454579312	-0.934441845	 0.128359
H	-0.8753397413	 1.8967966341	 0.6365934498	 0.125988
H	 0.0027102631	-0.4769895407	-2.1154698794	 0.101254
H	-0.3587681144	-2.979385609	-1.3287803306	 0.072355
H	-1.7128206307	-2.0631672012	 0.6508672795	 0.106733
H	-0.4094505526	-3.0452485548	 1.3812161464	 0.10991
H	-0.3611336094	-0.4651333367	 2.1565705025	 0.080278
H	 3.0708711349	-2.1177797197	 0.8171019214	 0.122257
146.8875	184.3318	250.8488	336.7792	354.8013	447.042	473.8568	557.2736	617.0267	662.5087	729.7119	836.6534	847.1096	852.6533	886.1504	924.0991	945.7292	964.857	970.0657	1005.3777	1024.0253	1063.949	1095.4838	1133.9611	1150.8111	1184.3138	1265.0431	1270.5013	1309.2477	1329.8327	1343.8556	1359.4879	1399.2757	1412.596	1478.6586	1483.9236	1487.9961	1687.5667	1701.1504	3018.8238	3066.1182	3066.5642	3100.0306	3109.7035	3113.177	3121.7332	3154.2996	3199.2432
CC1=CC2CC1OC=N2	CC1=C[C@@H]2C[C@H]1O[CH][N]2	
InChI=1S/C7H9NO/c1-5-2-6-3-7(5)9-4-8-6/h2,4,6-7H,3H2,1H3	InChI=1S/C7H9NO/c1-5-2-6-3-7(5)9-4-8-6/h2,4,6-7H,3H2,1H3/t6-,7-/m1/s1
