16
gdb 20165	3.41242	2.99403	2.12007	1.8027	67.36	-0.2325	0.0013	0.2338	686.8743	0.133538	-346.574824	-346.56936	-346.568416	-346.604029	23.081	
C	-0.0171684859	 1.556875121	 0.0152158534	-0.246158
C	 1.531631911	 1.5279758357	 0.0157604301	 0.125026
O	 2.1145928394	 1.3623340174	 1.32610358	-0.320365
C	 2.0728508063	-0.1065360675	 1.2126008766	 0.074249
C	 0.9619002312	-0.7196578223	 2.0277141376	-0.075676
C	-0.193408559	-0.6611384001	 1.360428739	-0.073744
C	-0.0331821526	-0.0250833236	 0.0020775452	-0.07908
C	 1.5121057041	 0.0017115291	-0.2224284124	-0.104594
H	-0.4921285994	 2.0492108817	 0.8657888383	 0.108181
H	-0.4096476604	 1.9753557016	-0.9166888935	 0.099094
H	 2.0712700485	 2.2657265688	-0.5827143389	 0.074061
H	 3.0706896111	-0.52228794	 1.377188698	 0.074138
H	 1.0933551398	-1.0784420255	 3.0415715629	 0.099183
H	-1.1583946664	-0.9658674398	 1.752062826	 0.099257
H	-0.6589050276	-0.4637486682	-0.777204554	 0.072422
H	 1.9700437899	-0.5330420582	-1.0516273883	 0.074006
229.4949	313.1199	403.7521	526.056	656.9517	673.4236	766.7232	772.3474	804.0993	823.774	862.5285	895.9226	923.5695	939.1738	956.7092	970.085	975.5378	997.0319	1017.4247	1062.9927	1127.5415	1134.5978	1166.0369	1200.7088	1211.6487	1248.8894	1266.2046	1291.518	1295.5919	1328.7828	1337.7255	1367.3879	1462.5699	1661.1537	3053.2807	3068.2402	3078.6915	3088.7345	3124.0299	3137.4945	3182.0373	3212.7696
C1C2OC3C=CC1C23	C1[C@H]2O[C@H]3C=C[C@@H]1[C@@H]23	
InChI=1S/C7H8O/c1-2-5-7-4(1)3-6(7)8-5/h1-2,4-7H,3H2	InChI=1S/C7H8O/c1-2-5-7-4(1)3-6(7)8-5/h1-2,4-7H,3H2/t4-,5-,6+,7+/m0/s1
