14
gdb 44303	3.98964	1.80511	1.59455	4.7908	62.9	-0.2624	-0.0128	0.2496	816.3321	0.103758	-436.6519	-436.646359	-436.645414	-436.68176	22.944	
O	-0.0273596649	-0.033568066	 0.0534029052	-0.332762
C	 0.0004408346	 1.1591921139	 0.0305498863	 0.468296
O	-1.1332016718	 1.9386256024	-0.0082374682	-0.239392
C	-0.7093110998	 3.3011479454	-0.0690515492	 0.095887
C	 0.0350471006	 3.6644013707	-1.3552005413	-0.07898
C	 1.2110534131	 4.1735755607	-0.6098274867	-0.06229
C	 0.6688902185	 3.432369677	 0.6492411388	-0.115998
C	 1.1792707136	 2.1219900779	 0.0312244859	-0.143955
N	 1.3047673409	 2.8588916436	-1.3078945658	-0.144119
H	-1.5211534213	 3.9549761624	 0.2406122547	 0.109872
H	-0.3548896515	 3.9153833279	-2.3318530034	 0.117549
H	 1.8876245389	 4.9988875254	-0.7761433268	 0.118794
H	 0.7491231896	 3.6918630926	 1.7014527093	 0.096243
H	 2.1303242998	 1.690517246	 0.3307228014	 0.110855
158.9884	350.0153	428.2852	505.3398	622.2792	679.6245	711.3022	768.5667	811.8361	826.9708	854.6604	886.013	900.7528	913.3818	946.1259	962.3221	994.0809	999.3382	1033.603	1053.0578	1135.5487	1150.3589	1151.6456	1195.8032	1226.1322	1242.0619	1248.1697	1286.3622	1326.0864	1354.1325	1897.4944	3151.5019	3157.8913	3167.1868	3215.161	3232.3081
O=C1OC2C3C4C2C1N34	O=C1O[C@@H]2[C@H]3[C@H]4[C@@H]2[C@@H]1N34	
InChI=1S/C6H5NO2/c8-6-3-1-2-4(7(2)3)5(1)9-6/h1-5H	InChI=1S/C6H5NO2/c8-6-3-1-2-4(7(2)3)5(1)9-6/h1-5H/t1-,2-,3+,4-,5+,7?/m1/s1
