21
gdb 53578	4.5582	0.62459	0.57798	1.3482	88.25	-0.2389	0.0593	0.2982	1951.7944	0.180623	-387.057676	-387.047254	-387.04631	-387.095435	36.888	
C	-0.0418128344	 1.438499108	-0.173429129	-0.496348
C	 0.0069225681	-0.0137308814	-0.0766474436	 0.077804
C	 0.0590024229	-1.2143771312	 0.0025401439	 0.052983
C	 0.0814600844	-2.6710830623	 0.0972196742	-0.373048
C	-1.3192833842	-3.2921550632	 0.1151879692	 0.050775
C	-2.1811236678	-3.2303658979	-1.1762366706	-0.238934
C	-2.6611012289	-4.6631141204	-0.8742624118	 0.146169
O	-2.7742662083	-5.4822042467	-2.0146689571	-0.431126
C	-1.4368821421	-4.841450037	 0.0678498957	-0.29311
H	 0.4680045627	 1.9131659589	 0.6725200712	 0.144771
H	 0.4403381329	 1.794218731	-1.0909140459	 0.145624
H	-1.0750697764	 1.8034019871	-0.1819835018	 0.145007
H	 0.64591644	-3.0888193136	-0.7478848088	 0.119869
H	 0.6240013522	-2.9758265477	 1.0030413278	 0.121539
H	-1.8786707282	-2.8893919426	 0.9652481608	 0.078753
H	-2.928409964	-2.4408548056	-1.2718948482	 0.100771
H	-1.550855229	-3.2386048861	-2.0713295001	 0.11093
H	-3.5977454986	-4.6527348678	-0.2978582382	 0.064313
H	-3.0834873212	-6.3498213641	-1.7353511645	 0.280421
H	-0.6056584847	-5.2845854228	-0.4909425607	 0.102371
H	-1.5711088254	-5.3829448247	 1.0079697674	 0.090468
15.4625	46.5019	71.8896	106.6399	204.449	243.7201	267.2243	307.3436	377.1702	385.0313	393.3118	439.8915	479.7909	615.9733	762.8115	792.5875	813.2328	875.5033	932.3767	953.7415	1023.3089	1038.1497	1053.116	1054.036	1072.0689	1110.9836	1146.0203	1165.7669	1184.9625	1217.0213	1250.0979	1253.8148	1266.5276	1286.6733	1319.5448	1339.2447	1378.9232	1415.585	1430.9937	1468.8885	1472.2423	1479.4444	1479.7458	1500.9406	2371.6472	2989.1428	3003.0892	3024.0631	3030.1559	3045.1944	3056.8582	3062.0226	3083.3486	3083.6757	3105.4821	3122.3259	3814.5286
CC#CCC1CC(O)C1	CC#CC[C@H]1C[C@@H](O)C1	
InChI=1S/C8H12O/c1-2-3-4-7-5-8(9)6-7/h7-9H,4-6H2,1H3	InChI=1S/C8H12O/c1-2-3-4-7-5-8(9)6-7/h7-9H,4-6H2,1H3/t7-,8+
