20
gdb 116370	3.17411	1.21468	0.97556	2.0527	77.57	-0.2425	0.0239	0.2664	1259.0737	0.171523	-440.285294	-440.276303	-440.275358	-440.319846	32.758	
C	-0.1696772005	 1.3852272788	 0.0127836869	-0.245025
O	-0.2764703117	 0.0110594059	-0.3195129542	-0.227387
C	 0.8131593606	-0.5022994322	-1.0164589429	 0.240947
C	 0.676137672	-2.0189996898	-1.0273047718	-0.248292
C	 1.5099439491	-2.6844052459	-2.1231550103	-0.230431
C	 0.7565733623	-2.702025913	-3.459263819	-0.136683
N	 0.2376994474	-1.4567657356	-3.9885960124	-0.237999
C	 0.3227950556	-0.3224224399	-3.4543923338	 0.11429
O	 0.9249560499	 0.1215666591	-2.3039588555	-0.253156
H	 0.7262578921	 1.5788023858	 0.6211215495	 0.108361
H	-0.1287840907	 2.0137827489	-0.8836358951	 0.127349
H	-1.0574126047	 1.6396718267	 0.5950921145	 0.130339
H	 1.7530200957	-0.1992655181	-0.5303120678	 0.077514
H	 0.9665066321	-2.370663022	-0.0323563063	 0.110765
H	-0.3845960155	-2.2652856773	-1.1493626246	 0.120898
H	 2.4735841014	-2.172771079	-2.2324165761	 0.107656
H	 1.7369607193	-3.7203185464	-1.8469279824	 0.098892
H	 1.3906113232	-3.1373858585	-4.2425838322	 0.112535
H	-0.100223117	-3.3849509024	-3.3697662913	 0.114693
H	-0.0687043506	 0.5398717847	-3.9962936751	 0.114731
41.5959	94.8087	113.876	181.0201	241.8859	288.8389	315.1107	380.7464	440.4802	497.8512	536.4654	588.8544	743.0901	785.5818	841.4179	903.078	943.255	968.2651	970.411	1014.3135	1056.2496	1081.6651	1106.4404	1128.679	1171.3112	1179.7147	1202.2597	1239.0833	1251.4275	1304.9341	1344.915	1379.5956	1391.7426	1408.6301	1413.6119	1437.7176	1474.8336	1478.3183	1484.2949	1490.5819	1492.5269	1511.2361	1768.0344	2989.3618	2997.7328	3007.786	3028.5309	3042.0957	3046.0483	3071.4534	3074.658	3090.7207	3122.6409	3130.1464
COC1CCCN=CO1	CO[C@H]1CCCN=CO1	
InChI=1S/C6H11NO2/c1-8-6-3-2-4-7-5-9-6/h5-6H,2-4H2,1H3	InChI=1S/C6H11NO2/c1-8-6-3-2-4-7-5-9-6/h5-6H,2-4H2,1H3/t6-/m1/s1
