20
gdb 96289	2.39394	1.51034	1.05384	2.1614	76.58	-0.2579	0.0103	0.2682	1185.9083	0.172005	-440.295837	-440.287156	-440.286212	-440.329146	32.827	
C	 0.3984386578	 1.6428229961	-0.0566766925	-0.40708
C	-0.0299222617	 0.1757561811	 0.0653006095	 0.016311
C	 0.2807777463	-0.5895726472	-1.2280966563	-0.087256
O	-0.3458551838	-1.87185922	-1.2184121833	-0.234017
C	 0.451247129	-2.9231139139	-0.7801559118	-0.016481
O	 1.1480371094	-2.6357778033	 0.4232572861	-0.259383
C	 0.425987912	-1.9631444645	 1.4048911334	 0.360454
N	-0.2235447969	-2.5378851773	 2.3211539431	-0.477447
C	 0.60188902	-0.470625153	 1.3189877605	-0.240417
H	 1.4800438958	 1.7283123826	-0.2147653046	 0.117805
H	-0.1030086936	 2.1337191386	-0.897103127	 0.116971
H	 0.1523925239	 2.2012221541	 0.8514599478	 0.123317
H	-1.1201540488	 0.1344130741	 0.1827879954	 0.097518
H	-0.1393081896	-0.0503122529	-2.0835424094	 0.109216
H	 1.3646767175	-0.6842853582	-1.3848712521	 0.103023
H	-0.2306334377	-3.7729428683	-0.6491121532	 0.110524
H	 1.2449193734	-3.1790947177	-1.49643788	 0.105313
H	-0.182671472	-3.552633812	 2.1997414212	 0.221223
H	 1.6826821725	-0.2743495276	 1.309226484	 0.11489
H	 0.1841386664	-0.0184189207	 2.220864849	 0.125516
106.1172	118.6958	144.2745	221.9662	257.7282	288.89	359.2383	376.1026	441.2312	454.143	558.5017	595.5249	696.8531	822.7303	855.1002	894.3277	936.8645	942.005	956.3228	979.6982	1013.5987	1060.4293	1098.6668	1125.6017	1148.1779	1164.9095	1176.5504	1240.5127	1285.9425	1302.2192	1319.7551	1320.0826	1348.9978	1381.2469	1404.0571	1418.3998	1449.462	1470.3294	1494.2521	1499.1687	1502.2256	1521.6034	1755.696	2999.8007	3008.1683	3020.0402	3028.4065	3037.0287	3051.9207	3075.4823	3095.7756	3107.0514	3114.7724	3454.9052
CC1COCOC(=N)C1	C[C@H]1COCO[C]([NH])C1	
InChI=1S/C6H11NO2/c1-5-2-6(7)9-4-8-3-5/h5,7H,2-4H2,1H3	InChI=1S/C6H11NO2/c1-5-2-6(7)9-4-8-3-5/h5,7H,2-4H2,1H3/t5-/m1/s1
