19
gdb 75476	2.8811	1.14541	0.86492	2.3232	84.46	-0.2289	0.0164	0.2453	1346.7822	0.157246	-385.865609	-385.856236	-385.855292	-385.900254	34.293	
C	-0.1083670652	 1.5210084446	 0.0013575741	-0.502247
C	-0.0109932591	 0.029153189	-0.0120752938	 0.311614
C	 0.0727894812	-0.7902884954	-1.0568626454	-0.211181
C	 0.1063971946	-2.2186985164	-0.6014335493	-0.114881
O	 0.0543467026	-2.1539761901	 0.8217493603	-0.270543
C	-0.0296437395	-0.80062226	 1.2551036161	 0.042184
C	 1.1364446231	-0.4838907083	 2.2218376548	-0.368731
C	 1.0921514624	-1.2705222713	 3.4465978131	 0.313203
C	 1.0358856794	-1.9119341475	 4.4611610439	-0.441704
H	 0.7445368781	 1.9797837531	 0.5162926892	 0.133427
H	-0.1441488916	 1.9263151142	-1.0129139369	 0.129705
H	-1.0093950822	 1.8520993748	 0.5328403763	 0.132331
H	 0.0963004066	-0.4993058145	-2.1001696783	 0.10049
H	-0.7501481362	-2.7990758257	-0.9804187891	 0.10545
H	 1.0181862998	-2.7494599717	-0.9173049281	 0.106116
H	-0.9720228379	-0.6554127516	 1.8095065103	 0.087615
H	 2.0795861712	-0.6593400751	 1.6902754156	 0.130408
H	 1.10445613	 0.5839335539	 2.4745482769	 0.124282
H	 0.9933107427	-2.4857825618	 5.3532016402	 0.192465
62.0937	80.3722	123.9383	168.624	219.8632	245.539	333.543	344.6055	364.069	500.6729	552.205	602.4286	613.5893	636.4422	770.7252	807.8624	832.5168	932.7289	947.4732	973.1726	988.2187	1037.1748	1045.1742	1053.1835	1071.0679	1115.646	1191.6103	1208.7223	1233.6595	1272.4462	1305.4687	1356.0747	1371.2324	1387.5477	1417.4141	1457.4047	1481.8623	1489.6731	1523.4619	1733.4205	2241.0563	2959.0822	2973.0591	2988.8689	3020.728	3023.2619	3062.5762	3069.353	3116.1309	3207.6157	3508.2033
CC1=CCOC1CC#C	CC1=CCO[C@H]1CC#C	
InChI=1S/C8H10O/c1-3-4-8-7(2)5-6-9-8/h1,5,8H,4,6H2,2H3	InChI=1S/C8H10O/c1-3-4-8-7(2)5-6-9-8/h1,5,8H,4,6H2,2H3/t8-/m0/s1
