15
gdb 33290	6.33164	0.71551	0.71455	5.3329	88.11	-0.2609	-0.0532	0.2077	1547.3656	0.114182	-379.584812	-379.577318	-379.576374	-379.617482	28.125	
N	 0.0513787203	-3.6657868888	-0.0485515801	-0.331299
C	 0.0317186307	-2.5041568163	-0.0300663689	 0.128254
C	 0.0115961437	-1.1404313687	-0.0077963957	 0.563153
C	-0.005878534	 0.0686317333	 0.0134173264	-0.46856
C	-0.0054888339	 1.4993154539	 0.046844412	 0.211457
C	-0.6659513349	 2.4469782436	 1.0964763628	-0.223613
C	-0.0628446959	 3.3285501442	-0.0249566486	-0.054143
C	 1.2247493234	 2.464794204	 0.0280944702	-0.260593
N	-0.6954522294	 2.3581928303	-1.0163848501	-0.338601
H	-1.7536803598	 2.4023306238	 1.1316846169	 0.126957
H	-0.1962565727	 2.4882733748	 2.0793111129	 0.111775
H	-0.151436483	 4.4060236683	-0.1516559758	 0.101223
H	 1.8463562537	 2.5072741043	 0.9270326587	 0.110819
H	 1.8264576285	 2.4351302793	-0.88405871	 0.109199
H	-0.1276555666	 2.334422034	-1.8705252507	 0.213973
81.6765	82.6843	229.3874	235.9871	408.9592	474.1947	475.5799	545.7289	583.4868	597.9024	608.9929	772.7338	793.2622	872.2162	914.4477	923.4659	945.1761	989.5667	1043.0451	1045.4664	1091.7252	1118.8438	1151.2296	1180.6162	1220.8479	1227.0366	1273.6257	1298.1933	1326.1832	1478.9347	1521.0933	2261.5734	2392.3402	3048.7159	3091.5781	3121.9379	3137.8986	3174.7804	3378.9204
N#CC#CC12CC(C1)N2	N#CC#C[C@@]12C[C@@H](C1)N2	
InChI=1S/C7H6N2/c8-3-1-2-7-4-6(5-7)9-7/h6,9H,4-5H2	InChI=1S/C7H6N2/c8-3-1-2-7-4-6(5-7)9-7/h6,9H,4-5H2/t6-,7+
