19
gdb 117403	2.89606	0.79798	0.6657	1.7231	80.21	-0.2462	-0.0155	0.2307	1722.9514	0.157492	-456.367649	-456.357351	-456.356407	-456.403835	35.4	
C	-0.8231823619	 0.1907369423	-0.0866063963	-0.248638
O	-0.1789693578	-0.0178969941	-1.3331631001	-0.234601
C	 1.209660999	-0.2357498412	-1.2176780262	-0.187583
C	 1.6004670879	-1.6883142348	-0.914460222	 0.367466
O	 2.7013627392	-1.9856232232	-0.5001021197	-0.354641
N	 0.6079481327	-2.5952891544	-1.1996619496	-0.330159
C	 0.7437137931	-3.9675510056	-1.0460865139	 0.11639
N	-0.208554142	-4.7481037962	-1.3356739863	-0.233035
C	 0.0140540786	-6.1673973886	-1.1492219574	-0.311464
H	-0.7249366519	-0.6785761535	 0.578860078	 0.12088
H	-0.4151256088	 1.073117308	 0.4258257083	 0.121894
H	-1.8812151147	 0.3578648198	-0.2986419276	 0.138684
H	 1.6582438015	 0.0283916155	-2.1823108815	 0.144427
H	 1.6712999407	 0.3994222092	-0.4509395235	 0.12785
H	-0.2673598783	-2.2394038036	-1.5604651737	 0.271777
H	 1.7270528003	-4.2587432433	-0.6644519267	 0.129181
H	 1.0154611875	-6.4151147512	-0.7636628213	 0.103855
H	-0.7339163034	-6.567468424	-0.4548208668	 0.128362
H	-0.1293820617	-6.689130291	-2.1025520835	 0.129354
70.0645	78.628	114.2013	133.4781	139.842	184.4913	215.8028	252.0818	343.0571	363.5035	392.0602	482.8886	541.0196	579.0669	669.8617	736.4711	942.8844	956.8755	1009.6573	1028.3843	1064.1995	1130.5516	1142.8787	1145.9615	1181.7394	1200.8269	1218.894	1252.0434	1300.9962	1363.6499	1367.4592	1445.7262	1460.9647	1479.3447	1484.6724	1489.9335	1494.049	1506.2037	1522.1994	1759.0619	1802.5106	2978.8542	2993.495	3027.621	3049.4314	3061.2836	3076.1185	3078.7383	3090.7445	3127.8132	3598.6184
COCC(=O)NC=NC	COCC(=O)NC=NC	
InChI=1S/C5H10N2O2/c1-6-4-7-5(8)3-9-2/h4H,3H2,1-2H3,(H,6,7,8)	InChI=1S/C5H10N2O2/c1-6-4-7-5(8)3-9-2/h4H,3H2,1-2H3,(H,6,7,8)
