16
gdb 6461	3.74368	1.48823	1.33236	3.0538	60.78	-0.277	0.0057	0.2826	955.8903	0.129275	-420.909234	-420.901275	-420.900331	-420.94155	29.483	
C	-0.3383331973	 1.7080024615	-0.1576559722	-0.440002
C	-0.0749718922	 0.2161035331	-0.1494706003	 0.386218
C	-1.311448165	-0.623561269	 0.1571182192	-0.096842
O	-1.8424940698	-0.3203124136	 1.4291681797	-0.41454
C	 0.8562564111	-0.3476200823	-1.2427423397	-0.481277
C	 1.796655729	-0.6466695907	-0.0767573424	 0.448442
O	 2.8659957512	-1.1360393822	 0.0913091993	-0.314049
O	 0.9575598306	-0.1225966367	 0.8741245646	-0.2893
H	 0.5958731646	 2.2685342556	-0.2464223974	 0.127886
H	-0.9832512673	 1.9693049228	-1.0031235653	 0.127072
H	-0.8458007321	 2.0038420812	 0.7632329211	 0.148309
H	-2.0968327831	-0.4080915306	-0.575626094	 0.118639
H	-1.0529219713	-1.6904167576	 0.0696455684	 0.094341
H	-1.1426993276	-0.4950596107	 2.0701813414	 0.297711
H	 0.503909239	-1.2332542509	-1.775788493	 0.1426
H	 1.2481744502	 0.37911585	-1.9562965494	 0.144792
85.2127	126.3543	224.0457	235.4242	318.4028	329.797	393.5798	448.7668	471.0805	526.2501	554.6119	667.914	815.6362	848.7081	891.8374	944.9151	956.5273	991.1632	1059.1853	1083.3695	1095.4994	1170.3183	1210.0751	1241.1638	1268.2598	1304.5134	1390.7988	1415.65	1429.2698	1454.0538	1481.6649	1496.843	1497.8351	1939.3201	2984.8219	3045.3493	3075.3937	3084.0875	3116.8101	3137.0187	3141.6143	3791.9695
CC1(CO)CC(=O)O1	C[C@@]1(CO)CC(=O)O1	
InChI=1S/C5H8O3/c1-5(3-6)2-4(7)8-5/h6H,2-3H2,1H3	InChI=1S/C5H8O3/c1-5(3-6)2-4(7)8-5/h6H,2-3H2,1H3/t5-/m0/s1
