18
gdb 105278	2.27599	1.25245	1.04765	3.3294	80.1	-0.2556	-0.0051	0.2505	1239.8945	0.144582	-401.91254	-401.902855	-401.901911	-401.947284	34.92	
C	 0.1639914913	 1.5008346909	 0.1328325702	-0.385616
C	 0.0335973043	 0.044873986	-0.3216131728	-0.251833
C	-1.3114031624	-0.5713272018	 0.0405447515	 0.100784
C	-1.4000770636	-2.041490247	 0.3992622261	-0.276154
N	-1.4434903143	-1.034465952	 1.4288573996	-0.101853
C	-2.5525468758	-0.8268182215	 2.2419672658	 0.146844
O	-3.2028340853	-1.7065615883	 2.7460527866	-0.281078
C	-2.4681975503	 0.0285747793	-0.5834785293	 0.317557
C	-3.4107342222	 0.5557924136	-1.1122161254	-0.446684
H	 1.1433801296	 1.9045986851	-0.1384483894	 0.119628
H	-0.6026687397	 2.1282304156	-0.3312341442	 0.131714
H	 0.0556245114	 1.5775681874	 1.2193383806	 0.12629
H	 0.1639968679	-0.0283745317	-1.4074103151	 0.113398
H	 0.8155576374	-0.5650960044	 0.1424077236	 0.110929
H	-2.3264030329	-2.5656566894	 0.182733488	 0.145762
H	-0.4950161744	-2.6411210277	 0.3510251932	 0.129558
H	-2.7242773287	 0.2484113401	 2.4316988884	 0.094018
H	-4.2521034523	 1.0077973359	-1.5774205174	 0.206735
73.409	90.086	140.3069	157.855	181.645	217.0154	274.6459	326.1827	360.5993	413.2211	550.8488	556.8131	606.4265	622.5324	670.8705	726.2117	802.0236	858.5538	897.9509	941.1212	1001.0944	1035.7141	1057.3947	1103.7416	1124.0489	1133.0753	1182.1133	1249.0013	1323.0347	1349.4687	1396.1524	1410.5319	1414.8002	1473.5379	1497.584	1504.0651	1507.6111	1805.6829	2234.0467	2972.2542	3040.2639	3042.7018	3082.0217	3113.5317	3114.7992	3119.3341	3208.6446	3499.4525
CCC1(CN1C=O)C#C	CC[C@]1(CN1C=O)C#C	
InChI=1S/C7H9NO/c1-3-7(4-2)5-8(7)6-9/h1,6H,4-5H2,2H3	InChI=1S/C7H9NO/c1-3-7(4-2)5-8(7)6-9/h1,6H,4-5H2,2H3/t7-,8?/m0/s1
