17
gdb 81792	2.1482	1.93526	1.22875	1.5539	67.93	-0.2424	0.0677	0.31	1031.2902	0.133658	-458.897854	-458.889459	-458.888514	-458.930648	31.782	
C	-0.1402746138	 1.4983881441	 0.0397827452	-0.515062
C	 0.1416558662	 0.035631377	-0.0047993178	 0.334083
O	-0.6895565445	-0.8833620306	 0.7445665314	-0.30234
C	 0.7338348856	-0.9098027929	 0.9649460495	-0.110307
C	 1.2929019542	-1.812506278	-0.1545522867	 0.030804
O	 0.8756099835	-3.1470872297	-0.1710998668	-0.43189
C	 0.6613787906	-0.8064132797	-1.1622912025	 0.362623
C	 0.1689390238	-0.988398221	-2.5225805481	-0.269579
O	 1.3876491331	-0.2675592737	-2.2481182815	-0.279463
H	 0.6974773044	 2.0526587609	-0.3931389298	 0.145386
H	-1.0384142161	 1.7387970123	-0.5393912969	 0.135622
H	-0.2974923722	 1.8313733266	 1.0686585759	 0.137944
H	 1.0843304904	-0.7570140176	 1.9794181852	 0.110742
H	 2.3838533117	-1.7973470341	-0.2274146761	 0.11056
H	-0.0754164432	-3.1307878524	-0.0020739372	 0.290447
H	 0.303344735	-1.9527408829	-3.0091004236	 0.130647
H	-0.6565775486	-0.3824119083	-2.8921930603	 0.119782
100.1415	168.8577	186.2611	220.8504	225.2568	256.2749	379.4718	453.1707	488.7287	498.6145	587.1149	651.8747	696.3489	756.252	837.4508	871.1937	895.346	933.5112	987.1434	1000.7643	1039.9149	1075.9606	1101.5688	1121.1178	1138.8502	1157.9038	1197.0454	1249.2986	1254.4694	1296.1071	1398.105	1426.9702	1434.0028	1473.9279	1484.6274	1493.4591	1537.1996	3041.2775	3088.8818	3089.9512	3106.5285	3129.4835	3180.0102	3185.2926	3772.6245
CC12OC1C(O)C21CO1	C[C@]12O[C@H]1[C@@H](O)[C@]12CO1	
InChI=1S/C6H8O3/c1-5-4(9-5)3(7)6(5)2-8-6/h3-4,7H,2H2,1H3	InChI=1S/C6H8O3/c1-5-4(9-5)3(7)6(5)2-8-6/h3-4,7H,2H2,1H3/t3-,4+,5+,6+/m1/s1
