22
gdb 77938	2.19315	1.7071	1.09959	2.514	83.47	-0.2154	0.0886	0.304	1179.1743	0.19264	-404.258619	-404.249235	-404.248291	-404.292098	36.794	
C	 0.9363743421	 1.3597090832	 0.2614835238	-0.334888
N	 0.9032627336	-0.0992257172	 0.3399046371	-0.135646
C	-0.3818918578	-0.8953345108	 0.4427209139	-0.144214
C	 0.5937731245	-2.1108623042	 0.6747606829	 0.206612
O	 1.4252376177	-2.495581452	-0.3614057901	-0.453408
C	 1.046749264	-0.9357094729	 1.6070207786	-0.139557
C	-0.4554674329	-0.7075653188	 2.004688772	 0.363872
C	-0.8228168243	 0.6511319003	 2.6213745974	-0.470658
C	-1.2128750786	-1.7734978728	 2.817909122	-0.466723
H	 1.691113098	 1.758045466	 0.9481043979	 0.123731
H	 1.2400567712	 1.6427404825	-0.7535867654	 0.116446
H	-0.0143488219	 1.8625389908	 0.4682275976	 0.117086
H	-1.1766230657	-0.793023641	-0.3009997988	 0.074568
H	 0.2016542684	-3.0069656005	 1.142504308	 0.082404
H	 1.7375611257	-1.6438506811	-0.7144271677	 0.274439
H	 1.9406258881	-0.8663035679	 2.2327658263	 0.073748
H	-1.7983619364	 0.9994089353	 2.2623320866	 0.116697
H	-0.9074177045	 0.5384182969	 3.7077631598	 0.112954
H	-0.0945549744	 1.4382839617	 2.4454937845	 0.122598
H	-0.8021970362	-1.8384658208	 3.8319416481	 0.120098
H	-2.2619540245	-1.4721799611	 2.9175766609	 0.117701
H	-1.2080206163	-2.7762544055	 2.3917531146	 0.12214
104.0851	142.6648	174.7799	181.7997	252.7719	283.8494	319.5047	344.8416	380.7568	431.5751	450.7402	538.6439	626.354	676.1658	683.2923	741.5238	769.1477	789.005	854.9237	869.3997	955.5094	967.6722	1005.4368	1055.2151	1083.3453	1100.1885	1118.5387	1125.8018	1155.6219	1159.7321	1178.0201	1193.8449	1214.9786	1243.4903	1267.3564	1301.45	1315.9509	1405.7428	1424.8288	1444.7946	1468.2876	1484.5866	1489.4783	1495.6159	1509.7346	1517.961	1540.551	3013.4122	3031.5451	3037.2133	3061.6176	3077.7544	3083.3957	3085.1072	3086.8603	3094.0042	3139.6758	3176.0769	3188.3031	3644.4793
CN1C2C(O)C1C2(C)C	CN1[C@H]2[C@@H](O)[C@@H]1C2(C)C	
InChI=1S/C7H13NO/c1-7(2)5-4(9)6(7)8(5)3/h4-6,9H,1-3H3	InChI=1S/C7H13NO/c1-7(2)5-4(9)6(7)8(5)3/h4-6,9H,1-3H3/t4-,5+,6-
