22
gdb 88396	2.11839	1.38117	1.16745	1.9368	83.03	-0.2296	-0.0264	0.2032	1215.3492	0.190959	-404.323733	-404.313316	-404.312372	-404.35892	38.376	
C	-1.5746508848	 0.7047393198	 1.148754417	-0.335346
N	-0.6669395478	-0.3576062223	 0.740530608	-0.090816
C	 0.350524169	-0.0350719568	-0.250890656	-0.27438
C	 0.7333444227	-0.3773661306	 1.1537986089	 0.009
C	 1.4349455426	 0.5661336669	 2.1453868065	 0.125511
C	 0.9127276008	 0.3341978542	 3.5706609714	-0.407689
C	 2.9490107695	 0.2340065977	 2.0694827296	-0.42092
C	 1.3511755764	 2.0420219554	 1.7752277412	 0.13194
O	 0.9641626526	 2.9196280945	 2.5045272806	-0.259127
H	-1.1222959584	 1.7051282148	 1.2078185366	 0.123047
H	-2.3947646921	 0.7501061669	 0.4250966137	 0.12539
H	-2.0030821287	 0.4634340166	 2.126071185	 0.129327
H	 0.4910914898	-0.7544099716	-1.054293003	 0.115287
H	 0.4343569305	 1.0037565895	-0.5667324635	 0.106794
H	 1.0777673534	-1.3993790086	 1.3189278907	 0.092518
H	 0.9936184083	-0.7244959936	 3.8357754313	 0.111522
H	 1.4890038005	 0.9182564122	 4.2928215423	 0.125279
H	-0.1325837004	 0.6346410321	 3.6660683072	 0.13159
H	 3.3499418414	 0.4150596286	 1.0669773319	 0.125295
H	 3.5176155689	 0.8374003933	 2.7835912155	 0.129027
H	 3.1113166505	-0.82079422	 2.3115339165	 0.127787
H	 1.7508834252	 2.281160581	 0.7633854088	 0.078966
50.0205	95.6083	176.0639	185.5395	226.0769	239.0481	256.1746	264.4981	302.5911	327.6424	359.6858	379.2175	469.3195	534.6949	594.5773	729.9756	776.9096	846.2794	903.5654	923.2443	951.9472	994.2625	1022.2737	1037.3236	1055.7193	1100.8285	1128.8494	1145.9081	1167.4196	1184.9549	1204.2041	1230.4321	1257.9829	1360.8699	1387.8042	1400.4379	1409.6494	1434.9171	1455.5086	1480.1756	1482.4824	1494.0673	1498.5229	1501.255	1505.8716	1519.5038	1818.8768	2869.2887	3001.948	3033.2816	3048.4467	3075.5284	3083.5686	3089.9076	3105.2598	3107.4926	3110.5682	3118.7407	3135.9895	3168.6195
CN1CC1C(C)(C)C=O	CN1C[C@H]1C(C)(C)C=O	
InChI=1S/C7H13NO/c1-7(2,5-9)6-4-8(6)3/h5-6H,4H2,1-3H3	InChI=1S/C7H13NO/c1-7(2,5-9)6-4-8(6)3/h5-6H,4H2,1-3H3/t6-,8?/m0/s1
