17
gdb 6146	4.8906	1.18769	1.13658	5.1423	69.4	-0.2757	0.0316	0.3073	1078.4209	0.141282	-363.873793	-363.865585	-363.864641	-363.906199	30.843	
C	-0.2064183953	 1.5214176046	-0.0432351813	-0.455121
C	 0.0103536552	 0.0119897997	-0.0161019289	 0.417976
O	-1.203634917	-0.6860859699	-0.1883291537	-0.470512
C	 1.2112365911	-0.4653806449	-0.8952414423	-0.289114
C	 2.085981989	-0.5105676093	 0.3970150659	-0.140233
C	 0.7693802042	-0.4953951227	 1.2357676565	-0.267664
C	 2.9933748874	-1.6306033194	 0.5695473691	 0.270717
N	 3.7057363708	-2.5318367181	 0.7030460504	-0.327464
H	 0.7235166072	 2.0693235151	 0.139743691	 0.12324
H	-0.585147759	 1.8397890322	-1.0225974883	 0.113776
H	-0.9341423289	 1.8122024111	 0.7204001232	 0.132147
H	-1.6824311704	-0.2930512488	-0.9262646928	 0.27798
H	 1.0205580918	-1.4690634994	-1.2787915288	 0.131153
H	 1.5575268506	 0.182721261	-1.7033441112	 0.108343
H	 2.6474810066	 0.418498505	 0.5259453039	 0.12239
H	 0.7564933459	 0.1267156028	 2.1325736337	 0.114105
H	 0.4447045506	-1.507151239	 1.4835919636	 0.138281
76.5112	155.2987	232.2357	263.2055	270.8145	300.7657	356.5909	422.1405	432.6877	523.1431	567.4392	587.1308	728.2671	834.1363	874.405	899.1758	941.4578	981.0795	994.6355	1040.2093	1055.8123	1125.2208	1147.3592	1183.6307	1228.7619	1244.0148	1265.0556	1295.9109	1354.2307	1383.1637	1410.3061	1467.5305	1486.8605	1490.7886	1500.3752	2353.785	3023.7151	3071.6475	3073.9748	3080.3189	3090.5885	3112.9521	3139.6735	3145.4398	3803.4004
CC1(O)CC(C1)C#N	C[C@@]1(O)C[C@@H](C1)C#N	
InChI=1S/C6H9NO/c1-6(8)2-5(3-6)4-7/h5,8H,2-3H2,1H3	InChI=1S/C6H9NO/c1-6(8)2-5(3-6)4-7/h5,8H,2-3H2,1H3/t5-,6+
