15
gdb 130972	7.3499	0.70178	0.64814	3.6457	69.08	-0.2302	-0.0487	0.1815	1590.9024	0.112867	-450.112138	-450.103759	-450.102815	-450.146645	29.064	
O	-0.2372488241	 0.0538951183	 0.279385486	-0.225145
C	-0.0143734672	 1.1877508721	-0.047500739	 0.14684
C	 1.3813596095	 1.7379185355	-0.3010967231	-0.234948
N	 1.3376250975	 2.8208836345	-1.2700382936	-0.429111
C	 2.4473211711	 3.6506111794	-1.3526008471	 0.419323
C	 3.6276851303	 3.7380406361	-0.6425476718	-0.138394
N	 4.3389072623	 4.8038757568	-1.1137347951	-0.180193
N	 3.6869149315	 5.378458671	-2.0725420882	-0.11688
N	 2.523930619	 4.6863691354	-2.2248583308	-0.272267
H	-0.823511963	 1.942014763	-0.1739679826	 0.093188
H	 1.7300461443	 2.1553838012	 0.6534048363	 0.159046
H	 2.0562187416	 0.9108610632	-0.5622538641	 0.136915
H	 0.9947019864	 2.5222165133	-2.174915711	 0.247873
H	 4.0020042253	 3.1109641663	 0.1487347703	 0.118522
H	 1.8427509855	 4.999938214	-2.8971792263	 0.27523
54.0925	65.3376	91.309	142.6001	299.3242	302.2685	377.7306	492.2793	525.0836	616.4207	698.5619	719.3881	758.5884	783.1217	805.7201	989.3723	1030.2268	1044.3951	1069.3771	1089.0686	1130.8895	1146.9805	1230.0361	1255.0052	1327.3194	1355.0414	1388.1235	1407.3259	1431.8159	1473.9408	1522.1989	1635.037	1846.7436	2887.3138	3008.6905	3053.8435	3279.8755	3549.2805	3659.1384
O=CCNC1=CN=NN1	O=CCNc1cnn[nH]1	
InChI=1S/C4H6N4O/c9-2-1-5-4-3-6-8-7-4/h2-3H,1H2,(H2,5,6,7,8)	InChI=1S/C4H6N4O/c9-2-1-5-4-3-6-8-7-4/h2-3H,1H2,(H2,5,6,7,8)
