16
gdb 20038	4.09725	1.36259	1.19867	2.6655	61.05	-0.2627	0.0671	0.3298	1017.4907	0.129323	-420.817266	-420.80928	-420.808336	-420.850343	28.421	
O	 0.0668156675	 1.1151242592	-0.7515091016	-0.418527
C	 0.1286896901	-0.0716675455	 0.0280171541	-0.111811
C	-1.260254913	-0.5897873655	 0.3093474475	 0.037489
O	-1.8919099802	-1.3358285144	-0.7520182883	-0.263384
C	-1.6331477847	-2.0067535423	 0.4753960409	 0.021449
C	-0.6998700059	-3.1803125819	 0.4538422347	 0.045919
C	-0.5761868162	-4.0253062826	-0.7433672859	-0.174013
O	 0.4661494719	-3.1246586607	-0.358951973	-0.222437
H	-0.3035154955	 0.8696257823	-1.6062446122	 0.290855
H	 0.7293826435	-0.8503410231	-0.4505471268	 0.132768
H	 0.6105359094	 0.2104763108	 0.9708782663	 0.110077
H	-1.9224374163	 0.1523980391	 0.7597567135	 0.100167
H	-2.5259037763	-2.2106896567	 1.0735734338	 0.094541
H	-0.5491246657	-3.6406043257	 1.4318644573	 0.101898
H	-0.3407756097	-5.0827472096	-0.6395678127	 0.119968
H	-1.121899939	-3.7375546333	-1.6388921374	 0.135041
69.9764	82.4167	151.7745	207.8308	247.194	332.8658	388.8138	468.4465	558.1984	660.1518	738.478	816.8275	863.3301	913.6283	944.3055	977.0677	1015.1207	1064.2243	1084.0319	1102.6289	1134.7326	1156.2446	1167.8367	1169.6765	1232.833	1280.7063	1299.2634	1356.8784	1400.4059	1421.4576	1432.2538	1487.5834	1501.2566	1518.4366	3048.2265	3067.2556	3091.711	3095.4775	3102.7676	3110.3232	3193.7039	3810.0425
OCC1OC1C1CO1	OC[C@H]1O[C@H]1[C@H]1CO1	
InChI=1S/C5H8O3/c6-1-3-5(8-3)4-2-7-4/h3-6H,1-2H2	InChI=1S/C5H8O3/c6-1-3-5(8-3)4-2-7-4/h3-6H,1-2H2/t3-,4-,5-/m1/s1
