17
gdb 45413	2.6484	1.73928	1.71017	3.4517	71.92	-0.2272	-0.0277	0.1995	901.8069	0.138411	-421.850654	-421.843869	-421.842924	-421.881698	27.527	
O	 0.0176223917	-0.0428116259	-0.1413761743	-0.326351
C	-0.0078263428	 1.1558219973	-0.0378850477	 0.43713
C	-1.2788992	 2.0050477329	 0.0789728799	-0.326928
C	-0.8642243977	 3.496445161	 0.0690766725	-0.101338
C	 0.0424860318	 3.707072302	 1.3033787746	-0.056235
O	 1.133998105	 2.7916895038	 1.2565007158	-0.277545
C	 1.2305376883	 2.0669430345	 0.0076560668	-0.045433
C	 1.1149817276	 2.994577741	-1.1731268031	-0.083779
C	 0.0078689126	 3.7424356647	-1.1413200611	-0.081538
H	-1.947860032	 1.7644126098	-0.7515572718	 0.134521
H	-1.7973033052	 1.7343606533	 1.005970958	 0.130706
H	-1.7322869454	 4.157041905	 0.1126260478	 0.079291
H	 0.4222318949	 4.7363572399	 1.3335067846	 0.100917
H	-0.5175950359	 3.515802724	 2.2283676821	 0.103685
H	 2.1504834694	 1.4869517452	 0.0540251683	 0.096514
H	 1.8700202563	 3.0269001087	-1.9492281821	 0.112294
H	-0.2440873986	 4.4914800928	-1.8836255501	 0.10409
104.9839	221.8027	341.1075	367.8288	405.6427	442.7373	561.8606	579.7026	635.5974	652.4325	724.2708	770.4686	839.7319	871.7129	925.383	951.9561	964.62	974.319	1008.4315	1021.4878	1057.7207	1074.3411	1119.0002	1167.2489	1181.3791	1215.1795	1243.0498	1266.6313	1311.2297	1324.39	1342.2281	1375.9645	1397.5651	1450.9981	1522.2409	1667.574	1840.4942	3006.14	3043.8941	3048.8644	3093.2236	3103.1438	3140.154	3185.7762	3210.7858
O=C1CC2COC1C=C2	O=C1C[C@H]2CO[C@@H]1C=C2	
InChI=1S/C7H8O2/c8-6-3-5-1-2-7(6)9-4-5/h1-2,5,7H,3-4H2	InChI=1S/C7H8O2/c8-6-3-5-1-2-7(6)9-4-5/h1-2,5,7H,3-4H2/t5-,7+/m0/s1
