19
gdb 81530	3.97756	1.16706	1.01624	2.4268	77.76	-0.2588	-0.0401	0.2188	1201.4015	0.158589	-422.98202	-422.973706	-422.972762	-423.014632	32.658	
C	-0.4081883778	 1.5165039044	 0.4621606287	-0.452699
C	 0.0009415991	 0.0810257312	 0.1718861774	 0.057104
C	 1.3924967687	-0.2732649633	-0.467523779	-0.129318
C	 2.0370039084	 0.0190555526	 0.9158086365	-0.262465
C	 0.7549015401	-0.7991783151	 1.2337404234	-0.129342
C	 1.1209940052	-1.7498416319	 0.0257065053	 0.395178
O	 0.0755922521	-2.4392496316	-0.5791744539	-0.498631
C	 2.2915166195	-2.6894892966	 0.1741321334	 0.075868
O	 2.2157240444	-3.8372481424	-0.2095127361	-0.285021
H	 0.3655302304	 2.1211500155	 0.9412434639	 0.116694
H	-0.69025208	 2.0202943116	-0.4689843529	 0.122701
H	-1.2877101436	 1.5295901013	 1.1153445703	 0.122694
H	-0.8277885753	-0.4442477433	-0.3011232653	 0.109133
H	 1.7652099174	 0.0115778228	-1.4532308557	 0.078464
H	 3.0081982047	-0.4183681627	 1.1445493227	 0.095845
H	 2.0267080073	 1.0593442162	 1.2335594579	 0.107477
H	 0.3917409489	-1.1212502551	 2.2115268028	 0.078466
H	 0.415496275	-3.3365475496	-0.7296381678	 0.293242
H	 3.2187898454	-2.3165857839	 0.6375984684	 0.104612
88.4334	171.5564	221.545	222.0282	265.3078	365.6597	417.0277	420.9618	432.8997	528.6361	541.5389	628.4014	736.9523	789.3129	792.9437	833.7286	865.4026	893.46	1005.9747	1006.4285	1018.7502	1022.4292	1065.4501	1069.3012	1089.7755	1127.0975	1152.9421	1155.2596	1199.1623	1202.82	1234.2171	1262.1533	1272.7656	1391.9612	1411.9047	1423.5454	1461.5127	1496.1821	1499.0993	1549.8767	1782.7579	3001.3989	3035.9466	3091.5222	3094.1221	3095.6885	3104.627	3115.4701	3129.7625	3159.239	3667.6624
CC1C2CC1C2(O)C=O	C[C@H]1[C@H]2C[C@@H]1[C@]2(O)C=O	
InChI=1S/C7H10O2/c1-4-5-2-6(4)7(5,9)3-8/h3-6,9H,2H2,1H3	InChI=1S/C7H10O2/c1-4-5-2-6(4)7(5,9)3-8/h3-6,9H,2H2,1H3/t4-,5+,6-,7-
