17
gdb 133699	3.5166	0.97867	0.93079	3.1008	61.19	-0.2387	0.0669	0.3056	1282.7193	0.132619	-549.502544	-549.493897	-549.492953	-549.536645	31.722	
C	-0.3642943519	 1.4482885539	 0.0768641145	-0.404692
C	 0.0517276023	-0.0169562507	 0.0384364697	 0.077459
C	 0.8119235623	-0.4553486243	-1.245548715	-0.276351
C	 2.0928165699	-0.435430876	-0.3757001816	-0.103845
N	 1.262136175	-0.3597579052	 0.8353656694	-0.324541
C	 2.9816210918	-1.665185836	-0.423355963	 0.286475
F	 3.6613274392	-1.7061112411	-1.5844910871	-0.086355
F	 3.8806534986	-1.6464483267	 0.5729043221	-0.084369
F	 2.2874694623	-2.8035426323	-0.322492933	-0.074862
H	 0.4595849364	 2.1065986932	-0.2222688322	 0.115111
H	-1.2062554016	 1.6312231435	-0.5997826092	 0.12295
H	-0.6810304813	 1.7366971285	 1.0855981355	 0.120994
H	-0.8042278994	-0.648021051	 0.3035949086	 0.082317
H	 0.5499316449	-1.4554310582	-1.5912689992	 0.12748
H	 0.7893565442	 0.2410010846	-2.084184403	 0.112231
H	 2.7431048415	 0.4281449547	-0.5654740704	 0.089634
H	 1.5482996559	 0.3281216131	 1.5230255139	 0.220365
62.8962	76.83	146.3348	225.55	254.0708	324.5175	331.3289	423.3055	447.7302	514.9665	573.826	622.8081	702.1542	784.7095	808.4384	890.9739	907.9923	952.2518	986.8784	1044.371	1076.1485	1117.6275	1122.7994	1177.1841	1182.5556	1200.536	1261.0999	1265.1065	1306.4578	1323.3479	1350.6446	1388.3914	1407.2045	1432.0374	1485.5739	1493.2021	1495.9071	3021.5019	3024.2775	3031.5894	3092.0529	3093.2689	3096.8726	3151.2527	3534.2619
CC1CC(N1)C(F)(F)F	C[C@H]1C[C@@H](N1)C(F)(F)F	
InChI=1S/C5H8F3N/c1-3-2-4(9-3)5(6,7)8/h3-4,9H,2H2,1H3	InChI=1S/C5H8F3N/c1-3-2-4(9-3)5(6,7)8/h3-4,9H,2H2,1H3/t3-,4+/m0/s1
