17
gdb 45247	3.11548	1.74961	1.3955	3.131	72.1	-0.241	0.016	0.257	939.9058	0.138638	-417.981149	-417.974376	-417.973431	-418.012327	27.215	
N	-0.0936306665	 1.1648753624	-0.8111875021	-0.541068
C	-0.0486178049	 0.0812510008	-0.1856166778	 0.427392
O	 0.9695236063	-0.4833052242	 0.5649292475	-0.274826
C	 0.210798953	-1.7346603799	 0.730877473	 0.10738
C	-0.1954733783	-2.0684016464	 2.164601882	-0.271447
C	-1.5700043961	-1.4313126582	 2.3457481328	-0.011804
C	-1.6990018888	 0.0333627651	 2.1763267336	-0.247371
N	-2.0622866011	-0.8629232748	 1.0616526235	-0.106389
C	-1.0115994562	-1.0702536144	 0.0465656591	-0.123687
H	 0.783363934	 1.6824934837	-0.7240165233	 0.229368
H	 0.7282003902	-2.5396872787	 0.2061083297	 0.101635
H	-0.2651917509	-3.154593623	 2.2797729689	 0.117163
H	 0.5479741607	-1.707840855	 2.8818001315	 0.131258
H	-2.3045347282	-1.9738570039	 2.9343879644	 0.097014
H	-2.5443455717	 0.5606534212	 2.6086296756	 0.12302
H	-0.7890409522	 0.6228304436	 2.109534771	 0.133593
H	-1.4407796393	-1.5334966083	-0.8417475292	 0.108769
107.8451	177.0107	275.7394	354.648	419.0081	469.7767	612.2953	655.8994	695.1463	756.2498	784.5097	823.9373	844.1539	863.3382	879.3366	917.3319	970.2347	987.2158	1003.9941	1026.4047	1066.4268	1080.0505	1103.215	1119.0767	1169.6084	1191.7184	1217.9008	1228.4736	1269.6608	1284.7317	1301.3841	1332.3003	1357.4902	1395.6146	1472.9326	1513.6083	1824.9789	3055.8404	3095.3325	3102.3582	3115.037	3117.8081	3146.0406	3200.5891	3468.9855
N=C1OC2CC3CN3C12	[NH][C]1O[C@H]2C[C@H]3CN3[C@@H]12	
InChI=1S/C6H8N2O/c7-6-5-4(9-6)1-3-2-8(3)5/h3-5,7H,1-2H2	InChI=1S/C6H8N2O/c7-6-5-4(9-6)1-3-2-8(3)5/h3-5,7H,1-2H2/t3-,4-,5+,8?/m0/s1
