15
gdb 43650	3.65084	1.04645	0.84864	4.8153	72.33	-0.2586	-0.0471	0.2114	1274.6824	0.113754	-416.868692	-416.860703	-416.859758	-416.902031	29.085	
O	-0.0035457455	-0.081143617	-0.1059167662	-0.370336
C	 0.0220511942	 1.1256267614	-0.0274929354	 0.406348
N	-1.070228514	 1.9702552128	 0.0672172516	-0.328491
C	-0.7148834492	 3.3678889013	 0.0669950509	-0.029489
C	-1.2443336271	 4.1256068733	 1.3133110998	-0.340562
C	-2.7041234785	 4.129500006	 1.35843657	 0.260496
N	-3.8594731712	 4.1087461765	 1.3605517097	-0.29898
C	 0.7955548902	 3.3064910039	 0.0354726841	-0.085824
C	 1.2079402342	 2.0405067778	-0.0109171714	-0.191806
H	-2.0139266831	 1.6335365253	-0.0334781528	 0.270092
H	-1.0963705627	 3.8818303149	-0.8278382174	 0.123289
H	-0.8561841444	 3.6486565082	 2.2188198542	 0.166828
H	-0.8851388832	 5.1606024675	 1.2980323141	 0.156577
H	 1.4030694194	 4.2023327696	 0.0565171853	 0.127137
H	 2.2205673408	 1.6652647984	-0.0457976663	 0.134722
62.9462	102.2372	127.6919	240.9942	332.1751	397.9325	427.7261	459.3172	483.145	568.8141	667.1713	703.8863	775.2362	831.5099	888.2626	929.1565	947.0937	976.2606	989.2725	1045.9225	1083.4344	1131.0565	1211.7964	1225.7888	1267.9364	1325.8319	1346.0461	1377.5138	1417.369	1458.0003	1657.5193	1833.4363	2362.9835	2998.5484	3051.2118	3100.2563	3215.4539	3253.3174	3657.9433
O=C1NC(CC#N)C=C1	O=C1N[C@@H](CC#N)C=C1	
InChI=1S/C6H6N2O/c7-4-3-5-1-2-6(9)8-5/h1-2,5H,3H2,(H,8,9)	InChI=1S/C6H6N2O/c7-4-3-5-1-2-6(9)8-5/h1-2,5H,3H2,(H,8,9)/t5-/m1/s1
