21
gdb 59553	2.51857	1.3608	1.04026	2.9371	78.5	-0.2427	0.0682	0.3109	1232.2606	0.180212	-424.197063	-424.187466	-424.186521	-424.231135	36.358	
C	 0.1266266912	 1.4849043499	-0.1068184928	-0.410016
C	-0.0023783587	-0.021437033	 0.1130654095	 0.124242
O	 0.5485599592	-0.4115364589	 1.3745130154	-0.435759
C	-1.437561145	-0.5228123771	-0.0113193351	-0.068301
C	-2.1464419251	-0.5124269486	-1.4168272605	-0.282282
C	-2.2917647357	-2.0340154588	-1.2951492306	-0.043431
O	-0.9651197677	-2.5643083221	-1.1522717266	-0.289645
C	-1.6259089113	-2.0579223715	 0.0201577723	 0.427218
C	-1.729889434	-2.9466095068	 1.2150277547	-0.510685
H	 1.1688191983	 1.796346129	 0.0052925283	 0.124985
H	-0.2165785381	 1.77375563	-1.1052577447	 0.121039
H	-0.4769415735	 2.0388610917	 0.6243140906	 0.101415
H	 0.6046549522	-0.5542807246	-0.6264199221	 0.105225
H	 0.102596367	 0.1018701585	 2.0576426558	 0.27316
H	-2.0701017587	-0.0338524674	 0.7410458516	 0.059637
H	-3.0958474188	 0.0278431697	-1.408745839	 0.103658
H	-1.5451410038	-0.1796712894	-2.2673720149	 0.108341
H	-3.0394186761	-2.6893798668	-1.7284041283	 0.099246
H	-0.7785062896	-2.9551206965	 1.7560442038	 0.146967
H	-2.5046746333	-2.5862731343	 1.9002670373	 0.115918
H	-1.9746057285	-3.9689287332	 0.9145626053	 0.129069
81.4087	130.2582	142.7615	203.9669	239.4007	263.5107	286.1137	293.5422	365.1637	410.0358	438.3136	473.424	566.1372	670.1535	731.3262	798.8791	864.6483	892.6771	904.4345	930.6142	964.1952	988.3395	1030.3237	1042.9868	1063.3411	1087.917	1119.6168	1130.3018	1186.4153	1198.5492	1214.3873	1256.1971	1268.0553	1283.1285	1325.6345	1387.2913	1401.4297	1402.587	1425.1789	1458.9586	1476.1348	1486.5614	1491.7653	1494.1573	1500.7305	3019.2871	3023.0955	3037.3134	3060.9372	3065.2039	3093.6894	3103.401	3117.2194	3118.4167	3121.8221	3178.5314	3793.9687
CC(O)C1CC2OC12C	C[C@@H](O)[C@H]1C[C@H]2O[C@@]12C	
InChI=1S/C7H12O2/c1-4(8)5-3-6-7(5,2)9-6/h4-6,8H,3H2,1-2H3	InChI=1S/C7H12O2/c1-4(8)5-3-6-7(5,2)9-6/h4-6,8H,3H2,1-2H3/t4-,5-,6-,7+/m1/s1
