23
gdb 92954	2.48444	1.51952	1.14595	0.1667	90.94	-0.2302	0.029	0.2592	1186.2113	0.20718	-351.162761	-351.15419	-351.153246	-351.195707	34.35	
C	-0.6198019987	 1.2577499257	-0.2926043643	-0.415727
C	 0.1650420449	-0.0514589518	-0.2503134492	-0.048583
C	 1.4800760658	-0.0319830761	-1.0742308939	-0.277482
C	 2.3686814859	-0.988149244	-0.3183784732	-0.093872
C	 1.8707833939	-1.2800975684	 0.8817366465	-0.105247
C	 0.5673627445	-0.5735584771	 1.1589740846	 0.326194
C	 0.6613269359	 0.3858187043	 2.402171883	-0.263765
C	 0.0146894856	-0.7235489312	 3.270938199	-0.213329
C	-0.4737349726	-1.4073023314	 1.9686744106	-0.267994
H	-0.0251123718	 2.0955734354	 0.0878911209	 0.11656
H	-0.9105378841	 1.5008694356	-1.3202416838	 0.11024
H	-1.5379704878	 1.2011728159	 0.3026232802	 0.111035
H	-0.4679668311	-0.8398805705	-0.6807421702	 0.074502
H	 1.3205276729	-0.3213001776	-2.1197309449	 0.098663
H	 1.9238910039	 0.9749125574	-1.1011613934	 0.099866
H	 3.3124140144	-1.3525457292	-0.7100716884	 0.08832
H	 2.3473992174	-1.9181420762	 1.6199009722	 0.087847
H	 1.6574340836	 0.7392186007	 2.6808473179	 0.093357
H	 0.0012487968	 1.2510569542	 2.2983309981	 0.098181
H	 0.7637980294	-1.324755787	 3.7938449702	 0.10082
H	-0.7441103552	-0.4175587389	 3.9950276109	 0.093438
H	-1.4970324163	-1.110200353	 1.715401185	 0.094818
H	-0.402366267	-2.4965167369	 1.8974104621	 0.092157
79.3506	128.0611	221.0401	241.3446	259.4945	288.9954	363.2197	438.9097	480.4876	515.3846	629.5059	690.1967	748.8409	770.1641	796.3014	867.613	877.4598	916.1885	937.6673	942.0548	958.6345	964.8753	974.3048	984.4459	1050.7173	1063.2365	1090.2195	1116.7414	1145.4396	1183.8748	1195.477	1208.9704	1214.1294	1253.7686	1268.4787	1272.2723	1291.1234	1309.8228	1327.9011	1365.819	1379.4257	1408.6278	1473.1729	1484.6816	1487.7922	1497.2502	1501.2837	1509.3667	1684.5791	2991.4182	3002.9436	3025.893	3040.2385	3048.5547	3054.7376	3060.2672	3088.1486	3091.1936	3094.6623	3102.0796	3117.3929	3168.385	3196.8295
CC1CC=CC11CCC1	C[C@H]1CC=CC21CCC2	
InChI=1S/C9H14/c1-8-4-2-5-9(8)6-3-7-9/h2,5,8H,3-4,6-7H2,1H3	InChI=1S/C9H14/c1-8-4-2-5-9(8)6-3-7-9/h2,5,8H,3-4,6-7H2,1H3/t8-/m0/s1
