23
gdb 58441	2.3737	1.32363	1.22584	1.5039	84.99	-0.2402	0.0742	0.3144	1205.8176	0.204869	-388.26154	-388.251839	-388.250895	-388.295677	37.611	
C	 0.1642548542	 1.3285389786	-0.350445239	-0.412412
C	 0.023203901	-0.1016014492	 0.1785716614	 0.056486
O	 0.5297648773	-0.2147140351	 1.5098024452	-0.439742
C	-1.4018067066	-0.6444822854	 0.0748165048	 0.360889
C	-2.4168260504	 0.0702276983	 0.9569810683	-0.490036
C	-1.9844657416	-1.1448367844	-1.2259690761	-0.102197
C	-0.9553726087	-1.8676303685	-2.1082604568	-0.246168
C	-0.6611915118	-2.8566156816	-0.9334004734	-0.251565
C	-1.6926113143	-2.1193728652	-0.0713750348	-0.09468
H	 1.2087865399	 1.6469433198	-0.2930113534	 0.120795
H	-0.1658396592	 1.3955492157	-1.392007715	 0.121289
H	-0.4353240712	 2.0356066006	 0.2345147684	 0.107258
H	 0.6895544948	-0.7411054286	-0.4052430539	 0.086303
H	 0.07782671	 0.4393764345	 2.05270423	 0.276298
H	-2.5185244938	 1.1285168573	 0.6941377636	 0.116496
H	-3.4062179079	-0.386087305	 0.8582132984	 0.119615
H	-2.1360984957	 0.0045299454	 2.0143339434	 0.11224
H	-2.9412099942	-0.7745164801	-1.5785830389	 0.07573
H	-1.4232004621	-2.3726174746	-2.9562491524	 0.101304
H	-0.1202961721	-1.2708942275	-2.4894187877	 0.096631
H	-0.9755066191	-3.8747418315	-1.1731870604	 0.100958
H	 0.3623878226	-2.8983607866	-0.5485307929	 0.106808
H	-2.3930209914	-2.6064443266	 0.5979837612	 0.077702
50.1103	172.7735	197.9746	207.2402	229.7762	252.7177	290.7011	296.4678	312.4815	379.3423	457.886	510.5497	523.0451	680.0364	750.913	786.9604	830.8926	841.3034	894.3824	923.5732	944.8191	978.5991	997.6843	1010.9465	1028.4241	1049.1785	1068.5191	1078.6809	1108.8218	1124.4827	1134.7608	1182.7416	1221.3531	1246.9833	1261.9672	1291.3332	1293.5218	1315.6229	1355.2254	1400.9087	1411.0839	1414.3292	1435.0578	1487.4135	1489.0544	1492.6528	1504.4175	1505.4588	1509.6531	3026.2397	3032.794	3045.383	3053.6442	3078.1261	3088.1194	3092.9375	3100.348	3104.5008	3112.1186	3116.9242	3159.1006	3172.0402	3811.9525
CC(O)C1(C)C2CCC12	C[C@@H](O)[C@@]1(C)[C@H]2CC[C@@H]12	
InChI=1S/C8H14O/c1-5(9)8(2)6-3-4-7(6)8/h5-7,9H,3-4H2,1-2H3	InChI=1S/C8H14O/c1-5(9)8(2)6-3-4-7(6)8/h5-7,9H,3-4H2,1-2H3/t5-,6-,7+,8-/m1/s1
