18
gdb 83114	2.29128	1.75695	1.46761	2.2728	71.32	-0.2453	0.028	0.2733	991.4715	0.147891	-439.07452	-439.066143	-439.065199	-439.107228	31.709	
C	 0.0891902992	 1.5801467622	-0.0929157306	-0.473878
C	-0.0343899404	 0.0743541171	 0.006464799	 0.211352
C	-1.3793112409	-0.5175745649	-0.4024899493	-0.217681
N	-1.9036153641	-1.5949335977	 0.4274140139	-0.25211
C	-1.1933434355	-2.0904665257	 1.3387365058	 0.115138
O	 0.0776787984	-1.7692871953	 1.7270611153	-0.236545
C	 0.6576153866	-0.6252067913	 1.1478947996	 0.001805
C	 1.2051650677	-0.7650835224	-0.2533392017	 0.040122
O	 1.0439224911	-1.9833225421	-0.9090266885	-0.418922
H	 1.0878549219	 1.9226798272	 0.197411457	 0.115785
H	-0.0885234931	 1.917334575	-1.1206246795	 0.127265
H	-0.6375616361	 2.0796624971	 0.5573971315	 0.125234
H	-2.1274695887	 0.2833947827	-0.398470678	 0.112855
H	-1.3334695907	-0.8930706551	-1.4319420166	 0.130692
H	-1.5564507144	-2.9088166023	 1.9566973149	 0.125538
H	 1.2019204905	-0.0566334571	 1.8945542595	 0.106927
H	 2.1310066839	-0.2408568512	-0.488730437	 0.089825
H	 1.2395074344	-2.6889594964	-0.2814976752	 0.296598
98.5303	154.7133	197.5701	218.825	261.9218	268.0477	316.7533	477.9572	499.9485	507.197	526.6585	640.6852	703.9952	815.8728	847.1029	926.7417	934.7545	956.6681	974.6021	1001.0455	1014.7814	1064.6079	1097.6788	1126.9192	1168.3648	1176.9289	1247.3587	1292.2901	1313.1953	1340.8453	1349.8256	1365.7556	1409.9834	1417.2125	1451.3523	1475.8766	1494.1303	1500.4302	1757.591	3023.2528	3030.3532	3059.6534	3089.3607	3095.2734	3106.3654	3162.6551	3166.8693	3788.1252
CC12CN=COC1C2O	C[C@]12CN=CO[C@H]1[C@H]2O	
InChI=1S/C6H9NO2/c1-6-2-7-3-9-5(6)4(6)8/h3-5,8H,2H2,1H3	InChI=1S/C6H9NO2/c1-6-2-7-3-9-5(6)4(6)8/h3-5,8H,2H2,1H3/t4-,5+,6-/m1/s1
