22
gdb 116173	3.24864	1.09273	0.86318	1.1259	80.48	-0.2155	0.0888	0.3043	1400.5409	0.194496	-441.472558	-441.463227	-441.462283	-441.506535	34.845	
C	-0.018322122	 1.376188941	 0.0441127227	-0.239585
O	-0.0275182895	-0.0413032635	 0.0608631583	-0.236864
C	-1.2937462411	-0.5994147023	 0.064358089	 0.212663
C	-1.1492591742	-2.1102358163	-0.092580027	-0.177533
N	-2.4604739254	-2.7431305293	-0.000217696	-0.078139
C	-2.3910603063	-4.1773553464	-0.213042782	-0.312487
C	-3.1166429802	-2.398931783	 1.2558216344	-0.142545
C	-3.215265057	-0.8814847641	 1.37958824	-0.084962
O	-1.9319454385	-0.2842823025	 1.2928578512	-0.26325
H	 1.0276150408	 1.6838669643	-0.01684061	 0.126164
H	-0.5581314533	 1.7662263728	-0.8318783394	 0.104421
H	-0.4693901336	 1.7918431998	 0.9512591144	 0.13091
H	-1.9102685594	-0.1935420613	-0.7630212741	 0.053714
H	-0.7104145205	-2.329562804	-1.0709995587	 0.106424
H	-0.445878839	-2.4644797743	 0.6845793139	 0.091735
H	-1.7910099958	-4.703373732	 0.5542494281	 0.093444
H	-3.4000026835	-4.6025105748	-0.2018661061	 0.115803
H	-1.9444524942	-4.3853533759	-1.1906903517	 0.117858
H	-4.1219181571	-2.8361630071	 1.2642756586	 0.098064
H	-2.5688543094	-2.7987702383	 2.1321775676	 0.082215
H	-3.8741645119	-0.4918772109	 0.5867857622	 0.093909
H	-3.6287074689	-0.5943376918	 2.3500804845	 0.108041
94.7418	129.2189	157.991	169.9964	239.3194	255.3819	295.911	335.1755	378.2039	420.3977	434.7311	516.5532	554.8735	621.1659	816.5896	876.7897	925.8326	972.372	1048.0192	1057.6901	1073.8314	1096.3365	1108.2666	1120.5562	1167.5946	1170.4892	1181.113	1188.2496	1217.2931	1240.937	1272.5617	1303.0677	1322.2345	1341.8902	1383.0882	1395.4534	1418.0806	1427.1758	1460.6148	1480.1585	1483.743	1483.8766	1485.1099	1491.5708	1504.6318	1507.3292	1512.9743	2900.497	2909.3562	2924.3087	2937.7377	2980.15	2994.4299	3054.8796	3057.6127	3075.3805	3076.5726	3094.1508	3101.3353	3128.2293
COC1CN(C)CCO1	CO[C@H]1CN(C)CCO1	
InChI=1S/C6H13NO2/c1-7-3-4-9-6(5-7)8-2/h6H,3-5H2,1-2H3	InChI=1S/C6H13NO2/c1-7-3-4-9-6(5-7)8-2/h6H,3-5H2,1-2H3/t6-/m1/s1
