13
gdb 18316	3.9337	2.13744	1.48391	2.404	58.93	-0.2499	-0.0419	0.208	787.9819	0.096388	-398.58125	-398.575094	-398.57415	-398.611691	23.132	
O	-0.224535701	-0.0635939636	 0.0197409705	-0.27051
C	-0.0873790964	 1.1223780036	 0.0253186176	 0.34975
C	-1.2171061322	 2.2145566485	 0.0433449407	-0.265759
N	-0.6355776144	 3.3884371941	 0.7347242797	-0.296156
C	 0.6106831632	 3.2079864699	 0.6249483849	 0.422433
O	 1.699313116	 3.6049564182	 1.3506203932	-0.264002
C	 2.3031773491	 2.2735611997	 1.0823154641	-0.123715
C	 1.1992877785	 1.986667479	 0.0222513256	-0.267436
H	-1.5319567218	 2.4338957623	-0.9861125988	 0.13693
H	-2.0944399314	 1.8503999711	 0.5850373389	 0.147343
H	 3.3194918817	 2.3742636703	 0.7013706686	 0.141198
H	 2.2700843637	 1.6653330139	 1.9881268842	 0.149108
H	 1.5687550652	 2.0699764531	-1.0032677192	 0.140816
111.5028	221.0388	279.6679	383.0026	481.3148	545.4642	611.6368	665.5941	728.7566	776.7121	869.065	907.3651	955.2147	965.0385	1036.1421	1051.1923	1088.6819	1140.9044	1147.3199	1177.783	1211.3492	1268.6126	1271.3052	1363.288	1464.8935	1500.8176	1759.0404	1881.9665	3021.881	3082.0839	3084.8567	3099.4544	3156.4321
O=C1CN=C2OCC12	O=C1C[N][C]2OC[C@@H]12	
InChI=1S/C5H5NO2/c7-4-1-6-5-3(4)2-8-5/h3H,1-2H2	InChI=1S/C5H5NO2/c7-4-1-6-5-3(4)2-8-5/h3H,1-2H2/t3-/m0/s1
