18
gdb 64052	2.269	1.78768	1.3015	1.8924	72.18	-0.2353	-0.0324	0.2029	1032.1669	0.146236	-439.121399	-439.112489	-439.111544	-439.155242	32.855	
C	 0.1585352437	 1.5361469586	-0.0942813295	-0.412201
C	 0.0268073265	 0.0231001618	 0.0165215276	 0.236849
C	-1.4419426488	-0.4313483011	 0.0581083437	-0.41949
O	 0.6330746411	-0.5264502315	-1.1859110571	-0.258835
C	 1.1348024452	-1.7802702555	-1.1402967469	 0.124575
N	 1.4085092787	-2.5067699189	-0.1435124396	-0.269157
C	 1.2334115729	-1.9477847049	 1.1861531967	-0.260123
C	 0.729757246	-0.5151299275	 1.2709590697	 0.337375
O	 0.8217773569	 0.1458204832	 2.2771644896	-0.313639
H	 1.2095015229	 1.8230507319	-0.1783453659	 0.130973
H	-0.3739737652	 1.8927743152	-0.9796907684	 0.123278
H	-0.256447947	 2.0104031963	 0.7960987786	 0.143834
H	-1.9516158576	-0.093699874	-0.8483737415	 0.13547
H	-1.5187367261	-1.5213236924	 0.1107554178	 0.134451
H	-1.9450960723	-0.0039007285	 0.9294724524	 0.140982
H	 1.3169356772	-2.1415816662	-2.1510989738	 0.129126
H	 0.5369518243	-2.5800521003	 1.7564078978	 0.146321
H	 2.1819182116	-2.0016819761	 1.7329535691	 0.150208
52.4003	88.0481	188.143	217.926	240.526	298.8117	336.245	373.5161	460.8896	471.7178	521.746	527.2116	604.9499	658.5767	822.2022	866.0708	913.4734	947.7933	963.9157	984.0339	1012.6311	1029.8655	1123.7179	1169.5062	1186.9037	1212.4294	1245.6112	1301.3013	1332.0441	1392.7591	1406.938	1414.2516	1440.3418	1474.2447	1480.9621	1493.5524	1505.7602	1744.1409	1821.2221	3009.9748	3043.8654	3057.5864	3062.046	3120.0309	3128.7443	3131.1341	3152.4056	3158.042
CC1(C)OC=NCC1=O	CC1(C)OC=NCC1=O	
InChI=1S/C6H9NO2/c1-6(2)5(8)3-7-4-9-6/h4H,3H2,1-2H3	InChI=1S/C6H9NO2/c1-6(2)5(8)3-7-4-9-6/h4H,3H2,1-2H3
