20
gdb 47496	2.72036	1.41113	1.04801	3.8221	80.32	-0.2281	0.0342	0.2622	1182.1374	0.173098	-403.189404	-403.18129	-403.180346	-403.22215	32.189	
O	 0.0554270898	-0.0577964723	 0.0154409561	-0.378707
C	-0.0045163238	 1.1582358687	 0.0189664358	 0.379237
C	-1.3310218573	 1.9074589238	 0.1084194059	-0.297422
C	-1.2143558943	 3.3768889393	 0.5302735034	-0.223319
C	-0.0904711782	 4.0596385729	-0.257063513	-0.259001
C	 1.2233497696	 3.3606125234	 0.0211320378	 0.403603
C	 2.5232934897	 3.9982684203	-0.3723174345	-0.335553
C	 2.1447917052	 3.9053754369	 1.0936171376	-0.306558
N	 1.1197141894	 1.929090166	-0.123851031	-0.364005
H	-1.7863384675	 1.8382703898	-0.8882813995	 0.129444
H	-1.9753102498	 1.3334079403	 0.7786017058	 0.128762
H	-2.1675086104	 3.8908474429	 0.3704902247	 0.099766
H	-0.9937652987	 3.4427575341	 1.6026945704	 0.108295
H	-0.3109904464	 4.0142445869	-1.3320014942	 0.104704
H	-0.003300801	 5.1163898125	 0.0120456856	 0.100003
H	 3.3183416852	 3.3524592455	-0.7323104247	 0.115629
H	 2.4907993306	 4.9681563318	-0.8574720431	 0.121175
H	 1.8583098154	 4.8148153597	 1.6114937306	 0.117256
H	 2.6807935285	 3.1894108772	 1.7071241981	 0.117036
H	 1.973516264	 1.3907128804	-0.1772368818	 0.239658
90.3593	92.4049	225.2104	269.4868	353.3313	392.7688	435.9041	469.7983	495.1181	525.629	585.6311	649.5516	729.7401	768.788	816.3843	860.0147	894.4737	905.0509	938.4889	967.885	990.69	1006.9737	1053.3985	1061.5234	1076.5269	1094.4249	1168.7284	1186.6775	1204.5303	1257.7495	1303.7241	1319.2778	1348.5885	1362.7694	1376.1842	1387.9304	1456.626	1463.9877	1475.9951	1488.6204	1498.0622	1511.1474	1785.9229	3020.2717	3031.4501	3036.3239	3078.9957	3085.0939	3106.3485	3124.8642	3130.3506	3205.2342	3221.8757	3594.4186
O=C1CCCC2(CC2)N1	O=C1CCCC2(CC2)N1	
InChI=1S/C7H11NO/c9-6-2-1-3-7(8-6)4-5-7/h1-5H2,(H,8,9)	InChI=1S/C7H11NO/c9-6-2-1-3-7(8-6)4-5-7/h1-5H2,(H,8,9)
