20
gdb 91690	3.05105	1.29018	1.13117	2.5026	78.46	-0.2374	-0.0288	0.2087	1157.6139	0.171784	-403.119509	-403.11134	-403.110395	-403.152589	31.395	
C	 0.1869521079	 1.6189680597	-0.0615098397	-0.419183
C	 0.1069743817	 0.1044997281	 0.1197668785	 0.015323
C	 0.7854465783	-0.7487831159	-1.0193160075	-0.183445
N	 1.7576410027	-1.6071108645	-0.2748613008	-0.14508
C	 0.8897525195	-1.990868883	 0.9167828747	-0.200151
C	 0.9258946435	-0.4874372566	 1.2894076402	-0.032152
C	 2.3383066408	-0.5595198086	 0.6634561122	-0.043755
C	 3.4718982666	-1.1092635405	 1.4972876207	 0.126078
O	 3.5244404807	-1.0664550729	 2.7001925234	-0.244009
H	 1.2211749977	 1.9679298818	-0.1554467112	 0.115505
H	-0.3458354814	 1.9322037954	-0.9658746113	 0.118749
H	-0.2647342405	 2.1442168079	 0.7865686704	 0.119575
H	-0.9459158465	-0.1775998098	 0.2331534902	 0.073642
H	 0.0816382731	-1.3840535875	-1.5625449743	 0.107355
H	 1.322331715	-0.1301044999	-1.7444585307	 0.105438
H	-0.0700175985	-2.4444596301	 0.6534304938	 0.100716
H	 1.440229485	-2.6403376325	 1.5988084544	 0.125118
H	 0.7437902318	-0.1118163898	 2.2961101665	 0.080269
H	 2.7284851572	 0.3220099624	 0.1355041504	 0.090544
H	 4.2959661855	-1.5500536936	 0.8924902399	 0.089462
54.0485	156.2851	187.8017	211.2537	261.4754	311.4861	398.1586	480.9543	503.4429	657.6699	679.6011	780.5392	806.7592	837.4899	847.2767	888.4665	922.002	945.9029	973.268	993.5646	1015.6442	1045.7441	1067.6693	1073.833	1125.2653	1138.8873	1170.4052	1198.7287	1221.8506	1242.8628	1250.9846	1265.5005	1304.7958	1318.8607	1365.7717	1381.7632	1411.5078	1414.015	1495.1671	1498.6807	1502.6665	1525.1128	1825.3714	2885.681	3016.3053	3030.2377	3035.2096	3057.0125	3062.8339	3095.7966	3098.2496	3109.0471	3122.5598	3132.9499
CC1CN2CC1C2C=O	C[C@H]1CN2C[C@H]1[C@H]2C=O	
InChI=1S/C7H11NO/c1-5-2-8-3-6(5)7(8)4-9/h4-7H,2-3H2,1H3	InChI=1S/C7H11NO/c1-5-2-8-3-6(5)7(8)4-9/h4-7H,2-3H2,1H3/t5-,6+,7+/m0/s1
