18
gdb 67506	2.65368	1.61473	1.22517	3.2447	76.84	-0.2269	-0.0305	0.1964	1056.7682	0.145348	-401.859587	-401.851161	-401.850217	-401.892873	31.709	
C	-0.0060764789	 1.4602721319	 0.0506829559	-0.483766
C	-0.0624997144	-0.0301956223	-0.1161198528	 0.298768
C	-1.4149307432	-0.7662563562	-0.0328961781	-0.12882
C	-1.3300604293	-2.2181841887	-0.3899040253	-0.307699
C	-0.7290521518	-1.739795352	 0.9018061008	 0.012739
N	 0.5809998954	-0.9715000247	 0.8847639535	-0.193097
C	 1.1312034857	-0.851764546	-0.4708100782	-0.122297
C	 1.4067215978	-1.9204240335	-1.4880293474	 0.11674
O	 1.6160338882	-3.0824079184	-1.2519645257	-0.245
H	 1.0074760981	 1.7933975852	 0.2894750383	 0.130393
H	-0.3304273323	 1.9666312193	-0.8661916351	 0.125639
H	-0.6691427107	 1.7785029648	 0.8625583133	 0.131737
H	-2.3451347625	-0.2273431419	 0.0894726991	 0.096553
H	-2.260776735	-2.7564483795	-0.2308591488	 0.120813
H	-0.7625890333	-2.5916898918	-1.2298945633	 0.135824
H	-1.0337657534	-2.1256146128	 1.8651435812	 0.109702
H	 2.0358718973	-0.2333157061	-0.4347949285	 0.122948
H	 1.5079775123	-1.511076917	-2.5207419189	 0.078823
56.8328	117.9145	189.5264	213.3605	232.5545	301.7377	341.6761	444.4033	521.2529	615.314	659.413	709.0861	728.3323	773.5269	838.7934	880.7171	912.3876	938.1286	980.474	987.7681	1017.4448	1043.3991	1060.5184	1072.6514	1081.3435	1100.6342	1151.3977	1182.3168	1226.0344	1295.2097	1314.8243	1341.9279	1409.1328	1418.6261	1441.998	1479.0135	1491.3927	1497.0906	1816.7219	2852.9942	3027.8922	3046.3966	3090.1359	3116.3463	3140.0116	3195.3011	3206.9624	3239.3345
CC12C3CC3N1C2C=O	C[C@]12[C@H]3C[C@H]3N1[C@H]2C=O	
InChI=1S/C7H9NO/c1-7-4-2-5(4)8(7)6(7)3-9/h3-6H,2H2,1H3	InChI=1S/C7H9NO/c1-7-4-2-5(4)8(7)6(7)3-9/h3-6H,2H2,1H3/t4-,5+,6-,7+,8?/m0/s1
