20
gdb 70843	3.05126	1.75225	1.40944	1.898	81.26	-0.2238	0.0767	0.3006	1001.3291	0.17126	-365.941156	-365.933532	-365.932588	-365.972538	31.322	
C	-0.0349270934	 1.4902402838	 0.0069739695	-0.512773
C	-0.0059434617	-0.0138472946	-0.0667182209	 0.326516
C	 0.5339958254	-0.8088684637	-1.2865989897	-0.33198
C	-0.3231862369	-1.9832320872	-0.7409350348	 0.326546
C	-0.7818704414	-3.1466166307	-1.5804027446	-0.512778
C	 0.1732548803	-2.2265770889	 0.7051960924	-0.089741
C	 0.3968769893	-0.8374598886	 1.1808239592	-0.089734
N	-0.9466637749	-1.4841289659	 1.3822466868	-0.185446
C	-1.2616817187	-0.9528153636	-0.0211416213	-0.081075
H	 0.9797796105	 1.9021318943	 0.0668225267	 0.118242
H	-0.5156819467	 1.9222571089	-0.877213054	 0.116052
H	-0.5848973173	 1.8318965355	 0.8907617881	 0.126544
H	 0.1291965982	-0.4210796643	-2.2289444728	 0.092319
H	 1.6159613162	-0.9516523629	-1.3786438904	 0.089638
H	 0.0649190488	-3.7771420394	-1.8774733663	 0.118243
H	-1.4883763952	-3.7770770867	-1.0293620886	 0.12655
H	-1.2773101835	-2.8053914143	-2.4956386556	 0.116055
H	 0.6129124124	-3.1182542747	 1.1378755777	 0.087665
H	 1.0259777367	-0.5520992086	 2.0165272149	 0.087669
H	-2.2804702979	-0.6915975583	-0.3047751463	 0.071488
207.2144	212.6378	222.3369	241.3739	282.3306	328.5587	413.805	570.391	571.115	598.0917	737.7935	771.0427	789.9619	832.5469	846.6621	857.5144	884.9881	919.7693	937.4209	958.4115	994.7167	1007.5384	1024.1856	1038.3046	1087.9735	1130.548	1140.4608	1178.3028	1193.9699	1204.5374	1210.1297	1230.6032	1248.6801	1286.3825	1357.284	1376.9015	1413.4109	1417.3322	1485.31	1491.8106	1492.6322	1493.1018	1493.781	3021.7754	3022.0232	3029.559	3083.8567	3084.4459	3087.2792	3095.4669	3095.9915	3122.6795	3168.5895	3181.0222
CC12CC3(C)C4C1N4C23	C[C@@]12C[C@@]3(C)[C@H]4[C@@H]1N4[C@@H]23	
InChI=1S/C8H11N/c1-7-3-8(2)5-4(7)9(5)6(7)8/h4-6H,3H2,1-2H3	InChI=1S/C8H11N/c1-7-3-8(2)5-4(7)9(5)6(7)8/h4-6H,3H2,1-2H3/t4-,5+,6-,7+,8-,9?
