19
gdb 47741	2.51071	1.74096	1.16246	3.6173	76.55	-0.2168	0.0316	0.2483	1076.5551	0.162568	-419.23196	-419.224064	-419.22312	-419.264301	31.158	
O	 0.0194029736	-0.0589467341	 0.0537686194	-0.395753
C	 0.0146034352	 1.1617674067	 0.0202588213	 0.375442
N	-1.1516167192	 1.8764997394	 0.0458495896	-0.338907
C	-1.2868742115	 3.3251279607	-0.000613191	-0.155541
C	 0.0269858973	 3.9790504932	 0.4371334683	-0.179584
N	 1.1812219942	 3.4041826405	-0.2482049312	-0.360408
C	 1.2797178072	 1.9811559526	-0.0059830868	 0.218178
C	 2.3601317966	 1.5158226013	 0.9636081487	-0.267009
C	 2.5204072555	 1.2861147157	-0.5075218653	-0.309984
H	-1.9829829365	 1.3039997987	 0.0324609859	 0.245705
H	-1.5450237994	 3.6610002472	-1.0175146188	 0.101436
H	-2.1081386964	 3.6338651986	 0.6579840067	 0.11095
H	-0.0140325741	 5.0559433266	 0.2477026482	 0.107341
H	 0.1691394749	 3.8352596732	 1.5145710341	 0.120649
H	 1.0991071077	 3.5734887881	-1.2476120521	 0.218266
H	 2.9444282936	 2.3044561419	 1.4223764389	 0.118664
H	 2.1245460219	 0.6603865341	 1.5848115745	 0.133873
H	 2.3829990312	 0.2782615469	-0.8790132169	 0.141819
H	 3.2288006181	 1.9069182087	-1.0442639134	 0.114862
87.5206	137.7607	258.3204	264.8719	283.8505	405.8392	421.0048	477.2506	531.5423	577.5452	630.3985	683.952	752.8515	790.676	806.0043	868.6919	891.7523	928.7913	955.174	978.3447	1011.6761	1057.2981	1079.3913	1094.0863	1113.1462	1155.0435	1206.2531	1238.3498	1257.2377	1269.4797	1325.6332	1362.4313	1379.7689	1407.4305	1435.6732	1468.2537	1477.8078	1481.3082	1486.2827	1523.8807	1770.2844	2974.7968	3034.8595	3048.0399	3092.5211	3143.8605	3146.6306	3237.8935	3251.1084	3485.1231	3611.3188
O=C1NCCNC11CC1	O=C1NCCNC21CC2	
InChI=1S/C6H10N2O/c9-5-6(1-2-6)8-4-3-7-5/h8H,1-4H2,(H,7,9)	InChI=1S/C6H10N2O/c9-5-6(1-2-6)8-4-3-7-5/h8H,1-4H2,(H,7,9)
