19
gdb 107183	3.43619	1.19942	1.13065	3.2767	74.42	-0.2328	0.0522	0.2849	1171.628	0.157985	-422.947951	-422.939653	-422.938709	-422.980832	32.648	
C	 0.1783592477	 1.4903196585	 0.0614000486	-0.383978
C	-0.0817507091	-0.0113402056	-0.1172143281	-0.302055
C	-1.5288081047	-0.3783814419	-0.0221802214	 0.431658
O	-1.9629923486	-1.6104226174	-0.6560126336	-0.325758
C	-2.636806499	-0.3674415972	-0.9752165748	-0.051716
C	-3.6673598133	-0.0303752153	 0.1329128262	-0.17339
C	-3.6622170495	-1.0091332045	 1.2803777904	 0.151599
O	-3.6502097932	-2.3921128862	 1.224826097	-0.428096
C	-2.4969699999	-0.057062061	 1.1593120014	-0.223845
H	 1.2467434776	 1.7062910028	-0.026015761	 0.122255
H	-0.3483111413	 2.0757867202	-0.6988189792	 0.122097
H	-0.1512980228	 1.842488104	 1.0436564537	 0.125315
H	 0.2839039631	-0.3489495516	-1.0929732489	 0.117523
H	 0.475724482	-0.5773139115	 0.6411234301	 0.113889
H	-2.6913647174	-0.0994623495	-2.0237957706	 0.111581
H	-4.4257870245	 0.7318153451	 0.001348639	 0.094253
H	-4.3419961527	-0.6904561999	 2.0687021017	 0.110019
H	-3.0321632151	-2.6165509158	 0.5155312373	 0.294605
H	-2.2588967991	 0.6794252467	 1.9173895722	 0.094043
71.2236	132.7892	190.5319	235.1918	283.9061	338.0136	441.6967	468.7974	543.5431	569.6785	626.1319	680.1191	720.0776	721.7303	773.755	808.3506	863.2905	888.6401	926.2299	943.6059	971.0356	995.534	1012.2958	1034.88	1061.9102	1095.9465	1103.1113	1179.0644	1191.4362	1251.5327	1258.9792	1293.5095	1315.5397	1353.5855	1354.9395	1412.0853	1474.8251	1479.4122	1484.1672	1500.8634	1511.1321	3022.2637	3041.0687	3072.1087	3111.3093	3115.3515	3131.5153	3177.7108	3184.4452	3192.484	3736.1952
CCC12OC1C1C(O)C21	CC[C@]12O[C@H]1[C@H]1[C@@H](O)[C@@H]21	
InChI=1S/C7H10O2/c1-2-7-4-3(5(4)8)6(7)9-7/h3-6,8H,2H2,1H3	InChI=1S/C7H10O2/c1-2-7-4-3(5(4)8)6(7)9-7/h3-6,8H,2H2,1H3/t3-,4+,5-,6+,7-/m1/s1
