12
gdb 133356	3.22262	1.48037	1.01439	4.815	63.38	-0.2427	-0.0765	0.1662	1040.0605	0.076578	-510.069827	-510.062126	-510.061182	-510.102465	28.162	
N	 0.0209670475	 1.3486843484	 0.0078397069	-0.561203
C	-0.0549234919	 0.0045403556	 0.0009685321	 0.322043
N	-1.1847561899	-0.6213109244	 0.0046005613	-0.350949
C	-1.1816237121	-1.9948581571	-0.0025770403	 0.452747
N	-2.2344527706	-2.6915313686	-0.0006174923	-0.518189
O	 0.0696314406	-2.6848423431	-0.0142600112	-0.282856
N	 1.269579998	-2.0133181515	-0.0181253958	-0.113873
C	 1.1969324517	-0.7476512277	-0.0108036518	 0.306575
F	 2.333071755	-0.0569005107	-0.0140432713	-0.057486
H	 0.9099638002	 1.8151754015	 0.0047721715	 0.284487
H	-0.832049379	 1.8832631977	 0.0159040296	 0.285861
H	-2.0063493895	-3.6848714702	-0.0075872888	 0.232843
60.2727	150.1865	204.2349	297.6251	358.1313	374.0278	381.6089	483.3238	535.2842	573.4484	598.0795	710.6803	713.8111	769.1507	786.6384	834.9543	835.4184	1003.7321	1045.1711	1171.9935	1281.0259	1316.1327	1488.3272	1610.8254	1667.4088	1722.1978	1759.0437	3510.827	3615.2384	3755.1757
NC1=NC(=N)ON=C1F	N[C]1N=C([NH])ON=C1F	
InChI=1S/C3H3FN4O/c4-1-2(5)7-3(6)9-8-1/h(H3,5,6,7)	InChI=1S/C3H3FN4O/c4-1-2(5)7-3(6)9-8-1/h(H3,5,6,7)
