18
gdb 112533	3.65191	0.9506	0.85663	3.3352	72.99	-0.2703	0.0188	0.289	1348.9011	0.147004	-439.078625	-439.069258	-439.068313	-439.113231	33.82	
O	-0.0871684121	 1.3699471122	-0.2710157655	-0.4264
C	 0.0383780633	-0.0185274129	 0.0094654012	-0.103683
C	-1.3654712285	-0.5880722394	 0.0270267858	 0.02477
C	-2.1684601394	-0.6245926219	-1.300864517	-0.239562
C	-2.7376298999	-2.0111273484	-0.8639278968	-0.183644
C	-2.8387971703	-3.0835498733	-1.8335911906	 0.263719
N	-2.8644928527	-3.9682062794	-2.5789499906	-0.332064
C	-1.5426986606	-2.1232918987	 0.1574222853	 0.083635
O	-0.4206263588	-2.7785065153	-0.3791119102	-0.42125
H	 0.79525927	 1.7316557575	-0.3932061704	 0.289918
H	 0.6360200586	-0.5348028352	-0.752732307	 0.108839
H	 0.5238089901	-0.1902599603	 0.9837281148	 0.090447
H	-1.9476762691	-0.0842632688	 0.8053349965	 0.089101
H	-2.8979253409	 0.1644863242	-1.4814430121	 0.121574
H	-1.5130343905	-0.7178332207	-2.1683589009	 0.131436
H	-3.6881432622	-1.9019795701	-0.3344151977	 0.12424
H	-1.8073858203	-2.5180509477	 1.1466893755	 0.078082
H	-0.6633675066	-3.6865792917	-0.5955234705	 0.300843
61.0811	91.6169	127.479	179.4955	221.6398	262.1055	298.8955	330.1604	372.7975	425.8571	473.1051	545.2287	630.4942	707.778	773.275	868.0665	912.1766	930.3106	956.31	1037.1906	1065.56	1079.5515	1103.0136	1132.1679	1144.5445	1195.7724	1225.6457	1247.0671	1250.6918	1272.018	1292.6191	1328.798	1336.5121	1376.4941	1418.1627	1461.109	1484.2668	1525.2668	2346.9779	2974.0245	3016.0475	3036.3121	3065.3788	3078.4868	3089.7752	3150.5495	3792.5023	3832.9731
OCC1CC(C#N)C1O	OC[C@H]1C[C@@H](C#N)[C@H]1O	
InChI=1S/C6H9NO2/c7-2-4-1-5(3-8)6(4)9/h4-6,8-9H,1,3H2	InChI=1S/C6H9NO2/c7-2-4-1-5(3-8)6(4)9/h4-6,8-9H,1,3H2/t4-,5+,6+/m0/s1
