18
gdb 68177	4.10081	1.12443	1.02605	4.8771	85.21	-0.2465	-0.0473	0.1992	1198.1048	0.148827	-364.809269	-364.801521	-364.800577	-364.841319	30.598	
C	 0.0005631276	 1.5484632871	 0.0215660299	-0.505677
C	 0.0236184975	 0.0376840152	 0.0276730386	 0.293274
C	 0.9552200825	-0.8167318352	-0.9152338761	-0.24444
C	 0.6004955932	-1.9377560895	 0.1136711435	-0.128778
C	 0.6539673964	-0.8127851051	 1.1965926519	-0.244441
C	-0.925803738	-2.0202588719	-0.10383796	 0.253685
C	-1.2914231033	-0.7283280454	-0.1585373963	-0.231762
C	-1.6979967862	-3.1945912589	-0.2117266511	 0.16205
N	-2.3064031469	-4.1782539417	-0.296635805	-0.352764
H	 1.0054788671	 1.9573549889	 0.1640476667	 0.121419
H	-0.3858974279	 1.934804444	-0.9279968103	 0.125179
H	-0.6356190482	 1.9380712726	 0.8239121292	 0.125181
H	 0.6363583652	-0.9578341375	-1.9505199325	 0.104696
H	 2.0028624812	-0.5037618935	-0.8682140379	 0.101801
H	 1.1562570968	-2.8693753524	 0.1946934587	 0.085573
H	 1.6731387095	-0.4994596033	 1.4432342387	 0.1018
H	 0.0582715812	-0.9502539903	 2.101937386	 0.104697
H	-2.2745355576	-0.301503233	-0.299628494	 0.128505
116.5637	145.5724	203.6614	286.3747	298.3185	434.1448	463.7043	502.2915	547.2449	561.1677	637.5934	640.4324	784.1103	810.3216	844.0534	872.7837	874.3445	924.229	951.0268	988.5935	1044.1425	1056.6143	1092.7045	1109.2468	1125.8957	1190.1022	1202.1035	1221.1302	1226.0866	1228.7433	1280.4608	1341.2661	1417.3107	1476.7581	1492.2189	1494.1904	1513.6528	1642.6189	2330.1482	3030.6233	3046.2211	3056.305	3094.8801	3104.8044	3118.5074	3123.2811	3145.6513	3235.4552
CC12CC(C1)C(=C2)C#N	C[C@@]12C[C@@H](C1)C(=C2)C#N	
InChI=1S/C8H9N/c1-8-2-6(3-8)7(4-8)5-9/h4,6H,2-3H2,1H3	InChI=1S/C8H9N/c1-8-2-6(3-8)7(4-8)5-9/h4,6H,2-3H2,1H3/t6-,8+
