17
gdb 71225	2.96444	1.89764	1.69839	0.3884	71.48	-0.2382	-0.0093	0.229	875.7325	0.136493	-421.779924	-421.77322	-421.772276	-421.810485	28.074	
C	 0.0406315695	 1.505738866	-0.035361466	-0.502696
C	-0.0080826192	 0.0030307467	 0.0377075145	 0.331994
O	 0.9567758135	-0.6379509688	-0.8933125074	-0.316497
C	 1.2265289613	-1.6116970177	 0.0898471097	 0.063142
C	-0.0470898181	-2.4872588527	 0.5566827987	-0.02043
O	 0.0081484683	-1.8031145228	 1.8633030006	-0.294412
C	 0.7409487494	-0.7611596224	 1.2524592158	 0.02676
C	-1.2972768883	-1.9971137753	-0.1061518723	-0.060941
C	-1.3194344329	-0.6684946986	-0.2635907168	-0.085634
H	 1.0515831953	 1.8715031379	 0.1632984062	 0.126161
H	-0.2608055266	 1.8549571693	-1.0284952194	 0.132855
H	-0.6410773841	 1.9404388687	 0.7034045707	 0.128259
H	 2.1778909372	-2.1307716141	-0.0316056153	 0.093712
H	 0.0591919875	-3.5663513606	 0.6659379671	 0.078708
H	 1.3168674138	-0.1425859779	 1.9434098993	 0.089971
H	-2.1126992491	-2.6632658872	-0.3622670342	 0.106633
H	-2.1668215574	-0.1034640605	-0.6371453711	 0.102414
196.5015	249.1856	278.2096	383.3225	397.1577	471.5405	532.5214	618.2637	669.4695	694.8601	739.1527	754.0134	763.9001	813.6603	846.634	896.6756	909.1715	950.7341	986.5896	1002.7169	1047.3937	1067.4131	1096.3927	1128.9513	1163.5848	1187.7009	1203.5222	1239.2857	1257.6164	1301.8704	1310.5205	1351.4187	1393.9393	1410.0198	1478.9561	1493.2565	1656.3899	3036.0208	3096.7154	3105.7969	3110.5273	3118.3681	3120.8611	3178.1503	3204.5467
CC12OC3C(OC13)C=C2	C[C@@]12O[C@@H]3[C@@H](O[C@H]13)C=C2	
InChI=1S/C7H8O2/c1-7-3-2-4-5(9-7)6(7)8-4/h2-6H,1H3	InChI=1S/C7H8O2/c1-7-3-2-4-5(9-7)6(7)8-4/h2-6H,1H3/t4-,5+,6-,7-/m0/s1
