20
gdb 59850	3.13828	0.86361	0.79849	1.4056	78.41	-0.2374	-0.0586	0.1788	1558.3637	0.167782	-440.351117	-440.340256	-440.339312	-440.38888	37.684	
C	-0.011930753	 1.3249777799	-0.3122007296	-0.382306
C	 0.074637114	-0.1200423269	 0.1932783002	 0.045816
C	 0.685507995	-0.2029584966	 1.5972091319	-0.382346
N	-1.2398450729	-0.7510534651	 0.1685251249	-0.307892
C	-1.5497582477	-1.8283504596	-0.5816237701	 0.302238
O	-0.8011963764	-2.4284159538	-1.3365162695	-0.376613
C	-3.0227412261	-2.2675052064	-0.3946504118	 0.308861
C	-3.4446270094	-3.4655063268	-1.2005166421	-0.469909
O	-3.7504214908	-1.6597947632	 0.3587029145	-0.305033
H	 0.9809599557	 1.7846330286	-0.3295454766	 0.121644
H	-0.426308404	 1.3606965446	-1.3232581778	 0.127658
H	-0.6498260691	 1.932004806	 0.3409245566	 0.114169
H	 0.6822246564	-0.7089056073	-0.4999061988	 0.123369
H	 0.7616784637	-1.2418483453	 1.9290653724	 0.127645
H	 1.687648748	 0.2364294503	 1.6052306204	 0.121659
H	 0.0746456227	 0.3448472734	 2.3243473538	 0.114177
H	-1.993126784	-0.3858334969	 0.7368340303	 0.258767
H	-2.8046172363	-4.3188985745	-0.9553004678	 0.160427
H	-4.4911928188	-3.6984812815	-1.0042013932	 0.137243
H	-3.284094217	-3.2688856689	-2.2652207077	 0.160426
21.2559	62.1456	70.7904	97.8417	136.7785	228.2015	255.6714	265.9909	303.4919	381.6466	405.9482	443.6702	474.7197	533.0805	601.4189	632.1105	731.013	828.9389	882.8734	933.0025	938.0461	949.4068	1005.819	1032.451	1144.1192	1169.651	1189.9816	1195.7243	1271.9967	1362.1483	1376.1644	1385.8058	1400.0151	1419.7824	1448.8859	1455.7138	1484.1318	1488.0661	1496.9134	1507.2703	1550.6499	1774.9136	1805.8116	3030.5551	3034.2751	3051.4667	3077.3942	3097.8599	3110.215	3112.6052	3118.9309	3121.6679	3163.6248	3585.26
CC(C)NC(=O)C(C)=O	CC(C)NC(=O)C(=O)C	
InChI=1S/C6H11NO2/c1-4(2)7-6(9)5(3)8/h4H,1-3H3,(H,7,9)	InChI=1S/C6H11NO2/c1-4(2)7-6(9)5(3)8/h4H,1-3H3,(H,7,9)
