17
gdb 129595	3.03296	1.35939	1.01465	2.1687	76.25	-0.1974	0.0361	0.2335	1159.8593	0.138478	-414.164536	-414.156399	-414.155455	-414.197826	30.627	
N	 0.0169124349	 1.384156138	 0.0130606881	-0.610516
C	 0.0038199244	-0.0092033579	 0.002587247	 0.301379
C	-1.0605836853	-0.8855823727	 0.1394874637	 0.16245
C	-0.4625515923	-2.1717507999	 0.1376595221	-0.073254
N	 0.8564138364	-2.1085522829	 0.0044045555	-0.240769
N	 1.1181933657	-0.7760066326	-0.0676097765	-0.246336
N	-2.3989708811	-0.4312145151	 0.2345708685	-0.199595
C	-3.4696580129	-1.2967818798	-0.268137288	-0.225155
C	-3.2955079159	-1.0904788422	 1.193159765	-0.222724
H	 0.4956588448	 1.7893273024	-0.7838273323	 0.246643
H	-0.9419517931	 1.7164631545	 0.0313184309	 0.259466
H	-0.9388768558	-3.1389417267	 0.215994694	 0.100926
H	 2.0728040476	-0.4660009456	-0.1232786459	 0.267938
H	-4.2671096089	-0.7876433148	-0.8026776776	 0.116903
H	-3.1870060407	-2.261577719	-0.6814446223	 0.122472
H	-2.8876382946	-1.9128621392	 1.7754175568	 0.122583
H	-3.9641981334	-0.4292886765	 1.7375164411	 0.11759
39.5007	158.9834	179.3667	260.2136	273.132	288.8125	443.2558	460.619	509.248	566.8741	673.7904	716.0059	728.8062	813.849	828.6516	854.8126	878.5204	910.4017	959.6775	1034.2092	1097.9882	1105.2455	1115.2272	1120.1738	1169.3917	1178.8201	1204.0299	1225.1019	1300.1499	1355.5474	1407.955	1454.8578	1492.3323	1517.008	1561.8481	1627.6348	1666.5572	3103.7372	3107.6176	3184.7713	3200.615	3231.2801	3505.9371	3593.0112	3679.1494
NC1=C(C=NN1)N1CC1	Nc1c(cn[nH]1)N1CC1	
InChI=1S/C5H8N4/c6-5-4(3-7-8-5)9-1-2-9/h3H,1-2H2,(H3,6,7,8)	InChI=1S/C5H8N4/c6-5-4(3-7-8-5)9-1-2-9/h3H,1-2H2,(H3,6,7,8)
