22
gdb 105261	2.14872	1.39708	0.9997	2.2583	81.82	-0.2398	0.0767	0.3165	1295.7176	0.19302	-404.312457	-404.302527	-404.301583	-404.347477	36.694	
C	-0.0441766626	 0.9465925579	-0.8638492914	-0.388316
C	 1.1755065055	 1.292565889	 0.0013095287	-0.256632
C	 1.4086137079	 0.3164779986	 1.1414914156	 0.353917
O	 2.1433534466	 0.8296498242	 2.2664975264	-0.311157
C	 0.7601466541	 0.4730535478	 2.4598526131	 0.030126
C	-0.1899764815	 1.5740215771	 2.854101496	-0.42601
C	 1.8444602281	-1.0686327027	 0.7256950593	-0.071938
C	 3.2836161507	-1.3366348011	 0.4826792488	-0.237943
N	 2.6013421693	-1.9077835055	 1.6601187369	-0.328665
H	-0.9623117186	 0.9270562239	-0.2676507148	 0.120296
H	-0.1757527197	 1.6886079919	-1.6567425496	 0.119742
H	 0.0623435624	-0.0308346762	-1.3439406137	 0.126371
H	 2.077728063	 1.3082592446	-0.6222010038	 0.107866
H	 1.0710551616	 2.2996066858	 0.4133634932	 0.109323
H	 0.6388140852	-0.4451002939	 3.0384592087	 0.094736
H	-0.0645866856	 2.4695172374	 2.2432172179	 0.128445
H	-1.2254408028	 1.2287595698	 2.7621512143	 0.125152
H	-0.0250229582	 1.8530496753	 3.9001859531	 0.132281
H	 1.1093724643	-1.6143606626	 0.1382447944	 0.095522
H	 3.5877889395	-2.0559715069	-0.2721262509	 0.115296
H	 3.9800074115	-0.5186664042	 0.6479370494	 0.119939
H	 2.843822309	-1.3271837303	 2.4630850984	 0.241649
55.3916	97.2406	156.0233	166.7985	184.215	214.8569	253.3406	303.5398	309.6509	414.1986	479.8978	486.0494	616.382	667.1945	777.6915	794.7197	850.4241	873.9373	908.8369	950.0687	983.173	991.922	1010.3631	1024.7714	1068.2662	1108.7134	1123.4043	1131.4876	1149.1437	1176.8301	1201.8052	1233.9491	1276.9204	1287.2864	1315.8304	1341.9864	1368.0111	1409.0194	1412.5052	1415.2798	1465.6997	1482.8624	1495.783	1501.9268	1503.8985	1506.287	1514.6591	3037.6509	3040.471	3041.0994	3087.1092	3088.2701	3099.2513	3109.1728	3109.6737	3113.6702	3131.7016	3139.7891	3197.0526	3468.731
CCC1(OC1C)C1CN1	CC[C@]1(O[C@H]1C)[C@H]1CN1	
InChI=1S/C7H13NO/c1-3-7(5(2)9-7)6-4-8-6/h5-6,8H,3-4H2,1-2H3	InChI=1S/C7H13NO/c1-3-7(5(2)9-7)6-4-8-6/h5-6,8H,3-4H2,1-2H3/t5-,6+,7+/m0/s1
