22
gdb 112845	3.01719	1.17753	0.95955	1.8096	82.43	-0.2305	0.0761	0.3067	1319.607	0.194936	-404.328107	-404.319032	-404.318087	-404.361918	34.564	
C	 0.1127737332	 1.3327748044	 0.1220469542	-0.233331
O	-0.1761260078	-0.0237998465	-0.1188841218	-0.248054
C	 0.5493184991	-0.5802391876	-1.1947610338	 0.171859
C	 2.0574368716	-0.8136826988	-0.9218217744	-0.272601
C	 2.4652051851	-2.0123358922	-1.8154348534	 0.029956
C	 3.6512217197	-2.8135164668	-1.2771002673	-0.399937
C	 1.1718049146	-2.8120216196	-1.9330835539	-0.043469
N	 0.5164053686	-3.0152909427	-0.6240336505	-0.329974
C	 0.0266680349	-1.9597524706	-1.5392910293	-0.084293
H	 1.1514078998	 1.4890814058	 0.4490829449	 0.10624
H	-0.0614127371	 1.9522209083	-0.7732632604	 0.097567
H	-0.5565059478	 1.6705061066	 0.9173933925	 0.124442
H	 0.4256197084	 0.0620229044	-2.0859237194	 0.056505
H	 2.6698327346	 0.0704995164	-1.1152610858	 0.089601
H	 2.1660802975	-1.0819842718	 0.1326373928	 0.126405
H	 2.7096605663	-1.6411685195	-2.8204651137	 0.068887
H	 3.4013266996	-3.2476672183	-0.3039994753	 0.132202
H	 3.9215306416	-3.6305610396	-1.9552168099	 0.105139
H	 4.5352666102	-2.179440286	-1.1521561422	 0.109595
H	 1.0781334608	-3.580827132	-2.694551559	 0.079105
H	-0.1122793075	-3.8121292965	-0.682663241	 0.230071
H	-0.9586941154	-2.0613844475	-1.9817566336	 0.084085
83.6107	109.5067	164.0095	188.9061	231.7267	241.1467	325.4531	357.8321	428.7313	468.9846	548.0445	596.6642	656.2542	803.0955	842.3697	875.0135	892.4054	912.5609	938.9086	947.2756	1014.3777	1037.1924	1053.485	1076.9737	1112.3063	1120.2324	1140.2612	1157.9423	1182.2681	1187.867	1224.4665	1229.6635	1261.1755	1281.344	1328.3034	1343.3921	1355.1703	1371.6451	1399.1104	1409.3013	1431.6623	1478.8649	1483.4237	1491.828	1496.4593	1502.7459	1510.448	2934.1455	2967.518	3008.223	3018.3552	3029.5931	3063.8581	3093.192	3108.2971	3109.4279	3114.0233	3150.1522	3169.0464	3506.7055
COC1CC(C)C2NC12	CO[C@H]1C[C@@H](C)[C@H]2N[C@@H]12	
InChI=1S/C7H13NO/c1-4-3-5(9-2)7-6(4)8-7/h4-8H,3H2,1-2H3	InChI=1S/C7H13NO/c1-4-3-5(9-2)7-6(4)8-7/h4-8H,3H2,1-2H3/t4-,5+,6-,7+/m1/s1
