18
gdb 109356	3.38617	1.19328	0.92165	2.2283	76.19	-0.2436	-0.016	0.2276	1243.1136	0.14991	-435.279365	-435.271048	-435.270103	-435.31256	31.109	
O	 0.0201637136	 1.3969032017	-0.5466330011	-0.418086
C	 0.0370101138	 0.0537404635	-0.1805674473	-0.116434
C	-1.3709388205	-0.4617473214	 0.1014690245	 0.362076
N	-2.3155274469	 0.3833237416	 0.041377641	-0.307817
C	-3.706548388	 0.0251130245	 0.224369064	-0.182606
C	-4.0076827973	-0.8730063653	 1.4422696227	-0.17339
N	-3.6132552873	-2.2630656518	 1.320427527	-0.227615
C	-2.4796550952	-2.5969745577	 0.8714543156	 0.087158
N	-1.4261090976	-1.8197182216	 0.3848832907	-0.352138
H	-0.9188457622	 1.6502809349	-0.4659813244	 0.288642
H	 0.4827454307	-0.5653492367	-0.9791624559	 0.099633
H	 0.6525194865	-0.1074801742	 0.7213739564	 0.106981
H	-4.278706868	 0.9536216497	 0.3263763423	 0.11076
H	-4.0805191588	-0.4770147762	-0.6780231549	 0.12224
H	-3.5285507451	-0.4319018701	 2.3266987172	 0.120973
H	-5.0871373702	-0.8508535558	 1.628595483	 0.110349
H	-2.2227139634	-3.657677325	 0.8449564637	 0.115792
H	-0.568670814	-2.32844077	 0.2197313555	 0.253483
80.9606	119.2944	151.8521	221.6231	259.4516	373.4866	388.1011	473.0061	481.0721	528.3856	553.5835	623.9797	680.6684	765.8157	834.798	914.1534	942.0671	947.9766	1026.0443	1033.1291	1080.7726	1096.627	1125.0892	1167.372	1219.8459	1249.8269	1258.496	1309.2277	1324.9177	1343.8273	1379.4877	1443.8438	1481.623	1489.9892	1493.9862	1514.5602	1536.1202	1750.3826	1776.1198	2951.1036	2965.3523	3015.7561	3020.6043	3060.9644	3065.0508	3112.2287	3583.0308	3587.3793
OCC1=NCCN=CN1	OCC1=NCCN=CN1	
InChI=1S/C5H9N3O/c9-3-5-7-2-1-6-4-8-5/h4,9H,1-3H2,(H,6,7,8)	InChI=1S/C5H9N3O/c9-3-5-7-2-1-6-4-8-5/h4,9H,1-3H2,(H,6,7,8)
