19
gdb 99980	2.81128	1.11571	0.97847	1.5764	73.12	-0.2565	0.0308	0.2873	1264.678	0.154565	-460.115081	-460.104223	-460.103279	-460.150321	39.928	
C	-0.0157831427	 1.5918158223	 0.1177488011	-0.440995
C	-0.0303567615	 0.0628516266	 0.0027490849	 0.358139
O	 0.6418378413	-0.5345059157	 1.1024607947	-0.478618
C	-1.4721492399	-0.4690117953	-0.036576605	-0.12194
O	-2.0235150091	-0.2107232304	 1.2547318473	-0.439276
C	 0.7193383158	-0.4408570718	-1.2599425333	-0.069605
O	 0.0288140906	-0.072695182	-2.453768328	-0.430332
C	 2.1161621165	-0.009040404	-1.2919045927	 0.300435
C	 3.2499186452	 0.3820558961	-1.3721138463	-0.440189
H	 1.0080362031	 1.9454638523	 0.2552069535	 0.132704
H	-0.4390587026	 2.0599217121	-0.7775156818	 0.102738
H	-0.6175791936	 1.9037100959	 0.9748046638	 0.130296
H	 0.0046253547	-0.5273011521	 1.8288023611	 0.287473
H	-2.046867006	 0.025458121	-0.8279279971	 0.108806
H	-1.4520466932	-1.548959353	-0.2412901101	 0.092614
H	-2.8486176848	-0.6956513594	 1.3386211431	 0.295975
H	 0.6912875006	-1.5364065357	-1.2216145111	 0.120811
H	 0.3602114874	 0.7886562033	-2.7279691712	 0.290998
H	 4.2585792981	 0.7101659999	-1.4278209829	 0.199965
70.5579	124.2773	131.4007	196.3382	222.9744	230.8677	238.3827	258.2618	286.3392	330.733	354.2001	405.6253	435.4569	453.6323	486.7888	595.1153	628.3926	668.2179	673.3499	773.3115	887.9103	938.9917	972.7869	1011.5269	1053.9418	1077.4951	1125.0182	1165.7963	1197.366	1243.2752	1260.369	1275.4088	1341.9499	1390.0726	1399.1334	1413.4866	1446.3051	1491.7302	1501.0863	1514.0414	2234.3567	2999.4105	3041.1784	3042.6865	3063.8356	3114.8957	3139.7258	3502.6944	3766.0684	3821.5549	3847.9858
CC(O)(CO)C(O)C#C	C[C@@](O)(CO)[C@@H](O)C#C	
InChI=1S/C6H10O3/c1-3-5(8)6(2,9)4-7/h1,5,7-9H,4H2,2H3	InChI=1S/C6H10O3/c1-3-5(8)6(2,9)4-7/h1,5,7-9H,4H2,2H3/t5-,6+/m0/s1
