27
gdb 102638	2.43724	0.84996	0.74977	0.9295	93.08	-0.2427	0.0764	0.3191	1747.1307	0.248856	-390.697403	-390.68514	-390.684196	-390.735656	43.785	
C	-0.6453140715	 1.1525811255	 0.3333758122	-0.393006
C	-0.2088022266	-0.2809638543	 0.0241206856	-0.164708
C	 0.6249624253	-0.4185717875	-1.256654781	 0.107384
C	 1.0315844156	-1.8768036026	-1.503969299	-0.172409
C	 1.9241326051	-2.1196460076	-2.7339890981	 0.038766
C	 3.3381043277	-1.547768516	-2.5561790711	-0.387695
C	 1.9921057906	-3.618931718	-3.0560307628	-0.391663
O	-0.1430144792	 0.034654197	-2.376825541	-0.250863
C	 0.3442815097	 1.1906609352	-3.018621202	-0.237868
H	 0.2178046026	 1.8145747278	 0.4691111958	 0.107455
H	-1.257135433	 1.5546381562	-0.4788875873	 0.128366
H	-1.2394152784	 1.1928075407	 1.2515922613	 0.110002
H	 0.3753096998	-0.6828562382	 0.8615886726	 0.090386
H	-1.094362285	-0.9210957472	-0.0761178125	 0.101168
H	 1.5236384484	 0.208998463	-1.1590814605	 0.064855
H	 1.5340384867	-2.2622052498	-0.6060600976	 0.083965
H	 0.1059936109	-2.4559114731	-1.6168162184	 0.095702
H	 1.4481109159	-1.6140982708	-3.5837311326	 0.084396
H	 3.8502068271	-2.0288126598	-1.7135117048	 0.108697
H	 3.9451385982	-1.7187098403	-3.4515492868	 0.109522
H	 3.3310616678	-0.4699654829	-2.3664929522	 0.109545
H	 0.9949823059	-4.0326550925	-3.2392993082	 0.110655
H	 2.6031266595	-3.8071780264	-3.9452847375	 0.106436
H	 2.4371146031	-4.1792254976	-2.2244813898	 0.108208
H	 0.3728613177	 2.0622197256	-2.348233657	 0.104304
H	 1.3534095837	 1.0421581349	-3.4320526477	 0.105538
H	-0.3384228377	 1.4112198788	-3.8443493797	 0.122862
44.3029	60.9162	76.8801	117.0072	136.3733	174.6849	214.778	240.7706	248.4723	254.1661	305.4523	330.9799	344.533	414.2115	420.3438	487.6591	556.9433	760.9266	806.5177	834.9858	905.7424	928.4759	946.5179	959.5017	965.9969	1021.6305	1048.5508	1084.6735	1125.5683	1135.4774	1158.5732	1180.0248	1181.6392	1192.5674	1222.0913	1263.7741	1283.5931	1311.2796	1339.3556	1370.832	1378.5523	1392.8284	1398.4889	1403.0284	1407.2689	1423.2347	1464.7487	1477.1067	1483.5874	1486.5677	1488.9896	1495.5772	1499.7134	1505.5481	1506.3316	1509.9858	1516.2549	2975.5581	2992.2878	3009.0297	3020.9724	3023.7294	3024.2575	3025.7628	3030.8888	3032.9126	3052.0939	3064.4134	3084.5482	3092.3127	3096.8453	3097.4918	3099.4883	3101.9888	3116.0321
CCC(CC(C)C)OC	CC[C@@H](CC(C)C)OC	
InChI=1S/C8H18O/c1-5-8(9-4)6-7(2)3/h7-8H,5-6H2,1-4H3	InChI=1S/C8H18O/c1-5-8(9-4)6-7(2)3/h7-8H,5-6H2,1-4H3/t8-/m0/s1
