21
gdb 105698	2.61858	0.84738	0.71265	3.2301	79.98	-0.2469	-0.0185	0.2284	1612.3485	0.180369	-424.218702	-424.208532	-424.207588	-424.255133	36.469	
O	-0.0779210633	 1.4647458312	-0.5433081244	-0.416189
C	-0.0151409439	 0.1237504615	-0.0792630818	-0.132162
C	-1.3839841816	-0.5178692995	 0.0458620144	 0.346551
C	-2.3659621931	 0.2042539165	 0.9571236434	-0.280148
C	-1.9822437922	 0.1464308504	 2.4499931988	-0.274874
C	-2.9610149987	 0.9207147051	 3.3007125741	 0.157892
O	-3.6007835202	 0.4625959814	 4.2122120952	-0.238948
C	-1.9340395389	-1.1813252685	-1.2005147214	-0.328282
C	-1.4547591056	-2.021746687	-0.0422750481	-0.307757
H	-0.5257401436	 1.452213313	-1.3962597536	 0.283028
H	 0.620085142	-0.4976761688	-0.7301564557	 0.084954
H	 0.484412855	 0.1781319424	 0.8943113839	 0.112732
H	-2.4333304037	 1.2519306282	 0.640946982	 0.113365
H	-3.3632592737	-0.2326491734	 0.8305517359	 0.104752
H	-1.9371592955	-0.8837614998	 2.8140318538	 0.120122
H	-0.9943702489	 0.6066029047	 2.5901561988	 0.12408
H	-3.0662598364	 1.9936138515	 3.0115391052	 0.071806
H	-3.0016526448	-1.1243366092	-1.3840434358	 0.116493
H	-1.3284113723	-1.1699353815	-2.101817461	 0.109433
H	-0.5303345324	-2.5773048347	-0.1621288883	 0.114741
H	-2.2001354583	-2.5292794135	 0.5609629647	 0.118412
48.8875	58.9539	74.8284	133.7411	176.4802	229.8024	277.6063	325.0358	352.1875	365.2663	426.1495	503.2204	554.4445	738.1305	769.1578	790.951	857.3107	888.2192	936.8257	944.986	970.2215	1002.644	1013.8563	1051.0541	1067.6664	1084.4264	1088.0328	1108.9417	1185.4977	1195.3171	1206.9865	1269.4149	1296.4433	1321.9556	1356.0334	1371.244	1403.1232	1425.7443	1430.4846	1463.5638	1469.4543	1486.1546	1502.0116	1512.009	1835.2397	2850.3748	2978.5904	3022.1111	3033.2955	3066.5404	3071.2534	3103.834	3123.3827	3130.027	3202.6941	3217.0234	3803.9246
OCC1(CCC=O)CC1	OCC1(CCC=O)CC1	
InChI=1S/C7H12O2/c8-5-1-2-7(6-9)3-4-7/h5,9H,1-4,6H2	InChI=1S/C7H12O2/c8-5-1-2-7(6-9)3-4-7/h5,9H,1-4,6H2
