17
gdb 104776	2.97615	1.00591	0.86333	1.4026	66.61	-0.2672	-0.0519	0.2153	1330.1766	0.133173	-496.069243	-496.059801	-496.058856	-496.104047	33.645	
O	-0.0037128946	 1.3559150565	-0.6661936214	-0.413001
C	 0.0426912721	 0.0632358439	-0.0633532961	-0.143648
C	-1.3512088963	-0.502773164	 0.1491210235	 0.306905
C	-2.285990148	 0.3384790008	 1.009515041	-0.106914
O	-2.5665887251	 1.6042676831	 0.4544669551	-0.42118
O	-1.9468770149	-1.0873429409	-1.0134448799	-0.275362
C	-1.6132214611	-1.9649341507	 0.065059295	-0.099947
C	-0.538402935	-2.9733825255	-0.1973433079	 0.128332
O	-0.38873987	-3.9584471031	 0.4784307318	-0.238669
H	-0.3954747882	 1.2503151222	-1.5416223486	 0.304523
H	 0.6544921808	-0.6196003784	-0.6633232224	 0.10842
H	 0.5379479316	 0.2019605152	 0.9028343416	 0.133437
H	-3.2432650834	-0.1818112947	 1.1084688388	 0.116635
H	-1.8436702962	 0.4181801212	 2.0177973074	 0.09338
H	-1.7179490708	 2.002822035	 0.2188170719	 0.289795
H	-2.4530824505	-2.3565777428	 0.6386773275	 0.121272
H	 0.0999580396	-2.7545227681	-1.0800082274	 0.09602
75.2455	87.9644	107.28	148.3322	241.5662	268.785	316.4585	326.4421	380.8162	402.1623	459.858	516.0329	583.4944	610.4703	770.8338	881.3921	914.3847	954.0251	993.7073	1020.9144	1056.8933	1068.3897	1111.2312	1116.8763	1187.995	1225.8086	1267.8777	1314.1724	1365.3568	1373.7681	1399.1203	1420.2858	1458.241	1474.7517	1485.1152	1497.4241	1824.3082	2903.9554	2957.644	3040.7028	3083.8184	3094.9831	3124.7812	3746.894	3795.6303
OCC1(CO)OC1C=O	OCC1(CO)O[C@H]1C=O	
InChI=1S/C5H8O4/c6-1-4-5(2-7,3-8)9-4/h1,4,7-8H,2-3H2	InChI=1S/C5H8O4/c6-1-4-5(2-7,3-8)9-4/h1,4,7-8H,2-3H2/t4-/m0/s1
