17
gdb 44141	2.89919	1.48299	1.20106	3.0815	71.21	-0.2512	-0.018	0.2333	1048.7884	0.136671	-417.949051	-417.941321	-417.940377	-417.982026	29.166	
O	 0.7298179922	 0.1412835985	 0.3588059512	-0.30545
C	 0.3481819217	 1.2659094512	 0.2748570737	 0.428218
C	-1.0186442591	 1.9580725821	 0.1862456239	-0.378457
C	-0.2076053845	 3.2398002961	 0.007779492	-0.045223
C	 0.7439082144	 3.4695494345	 1.1023524518	-0.047464
C	 0.5025727014	 3.1291390719	 2.5480111805	-0.028568
C	 1.0751340545	 1.919775805	 3.2019672838	-0.240146
N	 1.6118786263	 3.2524417884	 3.5111038441	-0.323073
N	 1.1323769449	 2.472364735	 0.0414078946	-0.204788
H	-1.5638915248	 1.6480738336	-0.7084434374	 0.145042
H	-1.6764248823	 1.8834153097	 1.0548000331	 0.139595
H	-0.3796386768	 3.9697164398	-0.7739723704	 0.117477
H	 1.3528301256	 4.36374639	 0.9732146551	 0.121114
H	-0.4335883461	 3.5253351068	 2.9378530982	 0.106413
H	 0.5288201164	 1.4447037478	 4.0118117008	 0.125573
H	 1.671983768	 1.2453266409	 2.5977067674	 0.151889
H	 2.4845359182	 3.3844181088	 3.0026920375	 0.237847
47.2879	118.5838	164.3984	229.5409	324.5623	468.1191	475.6286	489.1997	611.8927	667.2856	741.7521	792.4452	817.1787	845.1567	876.228	936.6297	954.0536	968.7331	1004.6505	1025.5236	1032.8929	1082.2029	1098.7147	1133.0158	1149.0546	1161.1736	1217.931	1227.1029	1243.0159	1270.1013	1305.0255	1351.2646	1390.0429	1434.3823	1455.9504	1512.1784	1913.1265	3075.7195	3114.6109	3117.0347	3124.1013	3130.1241	3193.1907	3217.1348	3483.8408
O=C1CC2C(C3CN3)N12	O=C1C[C@H]2[C@@H]([C@H]3CN3)N12	
InChI=1S/C6H8N2O/c9-5-1-4-6(8(4)5)3-2-7-3/h3-4,6-7H,1-2H2	InChI=1S/C6H8N2O/c9-5-1-4-6(8(4)5)3-2-7-3/h3-4,6-7H,1-2H2/t3-,4+,6-,8?/m1/s1
