20
gdb 59610	2.81139	1.1925	1.10852	5.0787	74.26	-0.2574	0.0496	0.307	1211.3179	0.171637	-440.347037	-440.337938	-440.336994	-440.38104	33.879	
C	 0.0770251428	 1.535202577	-0.0860145069	-0.402342
C	 0.0324745724	 0.0095978446	 0.0776667567	 0.021815
C	 0.7538172051	-0.430042222	 1.3592458373	-0.399832
C	-1.4216315755	-0.5104734638	-0.0163101187	 0.005126
C	-1.5675631269	-2.0489720379	 0.0688496365	-0.108482
O	-1.9762727771	-2.3267835722	 1.4124273729	-0.23898
C	-2.4437424465	-1.1792348649	 1.9964845422	 0.475979
O	-2.9163368398	-1.139145921	 3.0976555127	-0.394321
N	-2.2778017501	-0.1471922103	 1.1001072346	-0.36051
H	 1.1101259609	 1.8947505085	-0.1080208826	 0.123357
H	-0.4105012375	 1.8568094463	-1.0125681865	 0.115523
H	-0.4204578219	 2.0413485735	 0.7500768579	 0.112927
H	 0.5548101563	-0.4331892664	-0.7829360047	 0.079707
H	 0.7557123605	-1.5166377496	 1.4838938099	 0.130039
H	 1.7952774509	-0.0951226628	 1.3425462986	 0.116044
H	 0.2828087614	 0.0032371798	 2.2476098588	 0.12982
H	-1.8503380664	-0.1490758533	-0.9586263277	 0.088747
H	-2.3376044625	-2.4166447317	-0.6178467082	 0.121067
H	-0.6324601262	-2.5774879636	-0.1293233806	 0.124035
H	-2.36184853	 0.7941173199	 1.4455986378	 0.26028
74.6411	86.2682	161.6361	222.7152	245.7903	260.8706	280.8184	347.4886	417.9917	462.1223	505.6471	579.3009	709.6028	752.6255	767.8293	811.3234	900.3457	926.792	930.5737	968.0471	1008.6996	1017.9183	1051.1047	1091.1338	1134.508	1163.2548	1200.0238	1223.0141	1237.4861	1298.2649	1335.7685	1349.4219	1389.691	1403.1446	1418.693	1422.7868	1434.5771	1484.6749	1497.0301	1507.1637	1510.1686	1523.8834	1891.9244	3000.3231	3025.2519	3027.3387	3042.0328	3048.313	3090.0579	3104.982	3106.2486	3108.9155	3115.0035	3664.7412
CC(C)C1COC(=O)N1	CC(C)[C@H]1COC(=O)N1	
InChI=1S/C6H11NO2/c1-4(2)5-3-9-6(8)7-5/h4-5H,3H2,1-2H3,(H,7,8)	InChI=1S/C6H11NO2/c1-4(2)5-3-9-6(8)7-5/h4-5H,3H2,1-2H3,(H,7,8)/t5-/m1/s1
