15
gdb 45667	3.27929	1.87208	1.46852	3.1149	71.69	-0.2203	-0.0311	0.1892	874.3426	0.114868	-416.743607	-416.737277	-416.736333	-416.774182	25.822	
O	-0.1612450969	-0.0053833965	 0.3435062134	-0.329554
C	-0.0780737706	 1.1636581022	 0.0808241087	 0.412233
N	-1.2279779387	 1.9364965469	-0.31808071	-0.325682
C	-1.2533687325	 3.1471917187	 0.3894070193	-0.055745
C	-0.1124980205	 3.8610438638	 0.362067793	 0.023636
C	 0.7852977562	 3.968808192	 1.6052312092	-0.292378
C	 1.7351252089	 2.9925511291	 0.8366475001	-0.035896
C	 1.0299038372	 3.258008567	-0.4501459145	-0.093899
N	 1.1319285718	 1.8929275191	 0.0068711604	-0.138046
H	-2.0656129143	 1.3697912932	-0.3065125466	 0.254301
H	-2.0322910749	 3.281128827	 1.1375944256	 0.117183
H	 1.3239633477	 4.9166309129	 1.7149122126	 0.122649
H	 0.3681783898	 3.6645813342	 2.5677342468	 0.114058
H	 2.7960371533	 2.8794567856	 1.026336622	 0.120531
H	 1.4039691934	 3.5429808149	-1.4262201	 0.106609
118.87	262.4224	361.1066	419.4645	494.9815	520.9012	560.189	629.9291	686.4285	766.7742	773.8091	818.697	846.7464	877.0445	903.0254	915.5643	927.54	979.9785	1007.8622	1034.699	1075.2364	1110.5627	1114.8056	1158.9868	1213.5751	1235.1367	1275.9458	1331.4892	1350.7825	1406.7083	1488.3051	1653.313	1841.7169	3041.9045	3109.2747	3139.3806	3182.1318	3193.7629	3592.0925
O=C1NC=C2CC3C2N13	O=C1N[CH][C]2C[C@@H]3[C@H]2N13	
InChI=1S/C6H6N2O/c9-6-7-2-3-1-4-5(3)8(4)6/h2,4-5H,1H2,(H,7,9)	InChI=1S/C6H6N2O/c9-6-7-2-3-1-4-5(3)8(4)6/h2,4-5H,1H2,(H,7,9)/t4-,5+,8?/m1/s1
