19
gdb 38431	3.97335	1.32491	1.21328	1.1415	81.68	-0.2247	0.0157	0.2404	1084.3364	0.16022	-385.861622	-385.854222	-385.853278	-385.893546	29.71	
C	 0.1807211898	 1.5964309249	 0.1235190474	-0.289977
C	 1.3932808445	 0.7368088086	-0.0797908097	-0.038949
C	 1.7266429329	-0.0042150004	 1.221171943	-0.297288
C	 0.2994779165	-0.6681622049	 1.196143536	 0.415336
O	 0.3950486495	-2.0737345415	 0.9439883794	-0.320537
C	-0.3952155025	-2.808479078	 1.8720161375	-0.134832
C	-1.018365311	-1.7710677347	 2.7610978036	-0.106501
C	-0.622530142	-0.5640735534	 2.3740954229	-0.143854
C	-0.0030620559	 0.1172218031	-0.0952015427	-0.094372
H	-0.0181267396	 2.0509960792	 1.0918934428	 0.101362
H	-0.1042159236	 2.2199683987	-0.7181376733	 0.112295
H	 2.0762629536	 0.893128559	-0.9051714143	 0.084999
H	 2.4745610346	-0.7890728181	 1.0972578398	 0.118531
H	 1.984425367	 0.615197076	 2.087393879	 0.087022
H	-1.1474164744	-3.4067896326	 1.3337445404	 0.105218
H	 0.2395995977	-3.5154067563	 2.4293201699	 0.104876
H	-1.6841432529	-2.0119816702	 3.5802486831	 0.105324
H	-0.9022168701	 0.383192129	 2.8159380011	 0.103745
H	-0.5787424243	-0.2845436784	-0.920228116	 0.087602
79.4468	148.9893	208.0813	327.7869	387.3378	413.4634	478.333	516.8935	722.6444	748.3886	779.0272	787.1579	824.3644	848.6995	887.4477	942.3415	943.5917	956.2126	959.8862	965.6064	1007.7813	1041.9174	1043.1566	1063.5946	1076.5264	1087.9049	1120.305	1143.053	1152.8836	1182.8659	1198.6769	1233.4271	1247.1617	1297.5842	1350.5173	1367.1594	1380.2257	1469.6917	1493.4878	1519.002	1686.8458	2973.7285	2989.5867	3039.7027	3103.5604	3124.1253	3182.4826	3186.8378	3199.9206	3206.9812	3232.0233
C1C2CC3(OCC=C3)C12	C1[C@H]2C[C@]3(OCC=C3)[C@@H]12	
InChI=1S/C8H10O/c1-2-8(9-3-1)5-6-4-7(6)8/h1-2,6-7H,3-5H2	InChI=1S/C8H10O/c1-2-8(9-3-1)5-6-4-7(6)8/h1-2,6-7H,3-5H2/t6-,7-,8-/m0/s1
