21
gdb 93632	2.75719	1.26154	0.94653	4.3602	83.69	-0.2346	0.0272	0.2618	1284.2407	0.183261	-383.293326	-383.283931	-383.282986	-383.3279	34.721	
C	-0.2150626889	 1.3905902927	-0.1074746945	-0.418138
C	 0.0325067833	-0.1138934637	-0.102710363	 0.089521
C	 0.7953974062	-0.6198832168	-1.3400762378	-0.224771
C	 1.5585155991	-1.8770180318	-0.8586367638	-0.248681
C	 1.2860156308	-1.9160376431	 0.6698549579	-0.084906
C	 2.4430938618	-2.3587642563	 1.4564020899	 0.283383
N	 3.3482471599	-2.7251787145	 2.0742213727	-0.333527
N	 0.8882308539	-0.5503206464	 1.0083668783	-0.070234
C	 0.3020834528	-0.4315486944	 2.332749978	-0.343053
H	 0.73636799	 1.9314050431	-0.0946624643	 0.127846
H	-0.7660793603	 1.6762090329	-1.0089574527	 0.119712
H	-0.807244526	 1.7130829243	 0.7536149241	 0.119793
H	-0.9469231132	-0.6332775622	-0.0498118258	 0.051305
H	 0.1178576595	-0.8309215066	-2.1706399918	 0.106566
H	 1.4994209694	 0.1467689145	-1.6755873752	 0.112634
H	 1.2073517168	-2.7973028386	-1.3290370988	 0.117584
H	 2.6284410302	-1.7946497322	-1.0548790128	 0.131544
H	 0.4678926951	-2.6348675386	 0.8749484781	 0.09542
H	 1.010935949	-0.7945099693	 3.0822213628	 0.144239
H	 0.0886876789	 0.6158951832	 2.5570622209	 0.128974
H	-0.6372978283	-1.0077304264	 2.4365654475	 0.094787
45.6565	93.9019	144.2651	213.3469	228.1566	252.0715	306.9877	318.3133	378.5682	458.5616	504.6355	568.2613	571.2445	623.4044	761.2638	837.6694	882.1701	911.8918	976.5559	998.0171	1025.904	1044.1603	1082.2913	1127.8443	1130.7698	1148.5817	1209.4067	1234.5186	1236.2607	1278.052	1297.9774	1305.2638	1333.3592	1356.4412	1378.3849	1394.0238	1411.7639	1461.6888	1486.9977	1489.9594	1497.4901	1503.2268	1506.3611	1509.9419	2359.8242	2877.2776	2896.6975	2929.0973	3039.6508	3060.4238	3082.3579	3083.5987	3103.7662	3109.9559	3116.0339	3126.1777	3131.9568
CC1CCC(C#N)N1C	C[C@H]1CC[C@@H](C#N)N1C	
InChI=1S/C7H12N2/c1-6-3-4-7(5-8)9(6)2/h6-7H,3-4H2,1-2H3	InChI=1S/C7H12N2/c1-6-3-4-7(5-8)9(6)2/h6-7H,3-4H2,1-2H3/t6-,7-/m0/s1
