14
gdb 28843	3.19903	1.44544	1.1002	5.0082	76.75	-0.2337	-0.0739	0.1598	1052.2386	0.102333	-432.90251	-432.894995	-432.894051	-432.934498	28.525	
N	 0.0714982187	 1.3147484757	 0.2662116242	-0.535491
C	-0.0249631704	-0.017374774	-0.0124285249	 0.357142
N	-1.1934612684	-0.5777282123	 0.0209352973	-0.320502
C	-1.4379178656	-1.9026289386	-0.2234076317	 0.018628
C	-0.6115515866	-2.9705859498	-0.1093567458	-0.190595
C	 0.79415793	-2.8687622233	 0.3013907224	 0.333576
O	 1.3404749167	-3.6223560364	 1.0745724922	-0.324561
N	 1.5481228419	-1.8822112132	-0.3773508583	-0.202804
C	 1.2199950632	-0.6588594311	-0.4900836376	-0.043136
H	 0.9656737969	 1.7125425589	 0.4987411822	 0.270965
H	-0.7466479082	 1.7556514419	 0.6570420678	 0.271511
H	-2.4849368461	-2.0971127504	-0.4493228413	 0.116057
H	-1.0189349512	-3.9724846294	-0.1975905719	 0.121262
H	 1.9038437091	-0.001277598	-1.0369962647	 0.127948
85.2314	175.4381	293.6801	308.5927	336.5949	363.6435	421.0627	464.0767	519.2857	545.5216	643.2277	706.088	734.1752	793.2469	820.0539	868.4849	902.3749	956.8392	990.4878	1008.3051	1136.7886	1216.3812	1329.6602	1352.6402	1435.4789	1441.9345	1585.7	1616.323	1648.6118	1713.175	1786.6782	3069.7523	3143.2519	3189.9405	3593.8288	3722.4942
NC1=NC=CC(=O)N=C1	Nc1nccc(=O)nc1	
InChI=1S/C5H5N3O/c6-4-3-8-5(9)1-2-7-4/h1-3H,(H2,6,7)	InChI=1S/C5H5N3O/c6-4-3-8-5(9)1-2-7-4/h1-3H,(H2,6,7)
