17
gdb 12869	2.74158	2.44228	1.83791	1.7796	67.49	-0.2373	0.0183	0.2556	814.0724	0.142368	-363.868327	-363.860785	-363.85984	-363.899855	28.316	
C	-0.0731756518	 1.5371549314	 0.0057875776	-0.414494
C	 0.0909469783	 0.035306027	 0.0144377232	-0.087085
C	 1.4150295438	-0.6887103476	-0.2226268795	-0.088806
N	 2.6322623396	 0.0627129409	-0.0234955644	-0.251443
C	 2.6169855029	 0.4159077693	 1.1982506295	 0.080131
O	 1.5877338714	 0.015451698	 1.9873433059	-0.239168
C	 0.7199695288	-0.7462089132	 1.1367706311	 0.380225
C	 0.0896916739	-1.9123166648	 1.8374913502	-0.475936
H	 0.8194525368	 2.052631016	 0.3659489576	 0.133883
H	-0.2715676542	 1.893997939	-1.0098017066	 0.123298
H	-0.9123080193	 1.8393036635	 0.6411097939	 0.120086
H	-0.742803487	-0.5040165742	-0.4300290926	 0.092131
H	 1.4632407668	-1.5068478125	-0.9321077342	 0.098
H	 3.3653198159	 1.0188793594	 1.6985370434	 0.140562
H	-0.5807877425	-1.5780685071	 2.6364616017	 0.132243
H	-0.4989078434	-2.5008095999	 1.1283298546	 0.125772
H	 0.85116964	-2.5631002551	 2.2785212188	 0.1306
117.7723	179.6737	208.7657	216.6571	243.7144	318.3629	474.2163	527.9646	609.8375	689.3686	703.1327	760.6887	882.6946	908.6062	914.4095	938.3286	952.2155	1027.1759	1039.0191	1099.4018	1119.7605	1128.4472	1146.066	1151.4658	1228.9855	1262.0584	1327.5563	1339.5363	1413.7944	1418.6818	1453.2385	1477.5317	1490.2876	1497.8173	1502.5967	1666.625	3036.155	3040.8233	3099.4008	3101.2438	3118.3409	3122.5396	3137.6605	3174.009	3225.8961
CC1C2N=COC12C	C[C@H]1[C@H]2N=CO[C@@]12C	
InChI=1S/C6H9NO/c1-4-5-6(4,2)8-3-7-5/h3-5H,1-2H3	InChI=1S/C6H9NO/c1-4-5-6(4,2)8-3-7-5/h3-5H,1-2H3/t4-,5+,6-/m0/s1
