19
gdb 90142	3.36003	1.5178	1.38057	1.8292	79.25	-0.2198	0.008	0.2279	1016.7664	0.159931	-385.845911	-385.838439	-385.837494	-385.877319	30.518	
C	-0.0814459679	 1.5406742551	-0.0029599636	-0.402445
C	 0.1153573763	 0.0399065006	 0.0216638648	 0.095054
O	 1.1949102703	-0.4129666109	-0.8616772878	-0.341375
C	 1.728324034	-1.1931601752	 0.2200843139	 0.36882
C	 2.2203763385	-0.3335432953	 1.3413105397	-0.373014
C	 0.7427868437	-0.6601840932	 1.24322422	 0.130889
C	 0.1621463926	-1.8585530391	 1.9831792144	-0.358227
C	 0.8620964295	-3.0397778651	 1.3091371774	-0.05594
C	 1.6889572505	-2.6723170143	 0.3191526698	-0.177359
H	 0.818372129	 2.0671072112	 0.3261569749	 0.121061
H	-0.3225829162	 1.8759191575	-1.0167306522	 0.126753
H	-0.9094194841	 1.8202127457	 0.6574565593	 0.117806
H	-0.8131508078	-0.4733337545	-0.2641024835	 0.081242
H	 2.7590405424	-0.8381086014	 2.1358579113	 0.12205
H	 2.5663108513	 0.6700027637	 1.1146379309	 0.119412
H	 0.3565904701	-1.8351469629	 3.0628285445	 0.113825
H	-0.9285177087	-1.9226236633	 1.871963247	 0.111105
H	 0.7230780529	-4.0629426897	 1.6476391869	 0.096988
H	 2.2763689235	-3.3465453288	-0.2931451178	 0.103356
145.7797	217.3196	231.7573	273.3548	301.9322	432.3912	451.7715	504.6385	582.3379	646.8691	692.0948	760.434	786.4331	828.1771	857.2543	872.5591	902.0475	916.0081	937.8939	947.8302	975.9795	1033.135	1057.4446	1084.6435	1112.046	1120.1796	1137.1481	1186.3964	1199.5659	1258.6219	1280.0092	1322.5512	1352.1898	1373.7127	1391.2262	1413.3767	1464.3606	1478.2329	1482.5621	1493.4494	1637.3302	3007.1352	3017.4354	3037.7989	3046.7693	3107.027	3119.9057	3127.238	3168.7799	3205.261	3221.0181
CC1OC23CC12CC=C3	C[C@H]1O[C@@]23C[C@@]12CC=C3	
InChI=1S/C8H10O/c1-6-7-3-2-4-8(7,5-7)9-6/h2,4,6H,3,5H2,1H3	InChI=1S/C8H10O/c1-6-7-3-2-4-8(7,5-7)9-6/h2,4,6H,3,5H2,1H3/t6-,7+,8+/m1/s1
