16
gdb 51990	6.70023	0.57167	0.53659	2.1825	70.36	-0.2619	-0.0347	0.2272	1930.6522	0.120944	-475.063232	-475.053431	-475.052487	-475.100298	32.161	
N	-0.2380531183	 1.2993135452	 0.4206203345	-0.413714
C	-0.0487114349	 0.1026374172	 0.088447328	 0.115315
O	-1.1062611447	-0.7698034545	 0.2130638755	-0.207484
C	-0.9151668248	-2.0752911482	-0.1581727625	 0.476718
O	 0.1195639088	-2.5129938691	-0.5805023939	-0.331984
C	-2.1998912374	-2.8499089396	 0.0294485786	-0.350466
C	-1.9949577716	-4.3628254822	-0.0948588025	-0.27194
C	-3.3074575291	-5.0974046788	-0.2544505829	 0.159997
O	-3.6534404678	-6.0424616825	 0.4033173507	-0.231564
H	 0.6171438443	 1.83627869	 0.2831226914	 0.243601
H	 0.8520414964	-0.3752581165	-0.2964007254	 0.146945
H	-2.6365467484	-2.5713707616	 0.9935394614	 0.156838
H	-2.9052713526	-2.4841150048	-0.7299023008	 0.149808
H	-1.3889235436	-4.5590970034	-0.9893971197	 0.147952
H	-1.4583954376	-4.7722345966	 0.764145176	 0.136701
H	-3.9596355386	-4.6931169645	-1.0658068584	 0.073277
39.3784	49.9379	68.78	107.5469	134.8226	139.7078	258.1927	292.266	389.2683	505.8167	547.6103	577.6211	724.3845	779.6808	854.6714	859.039	941.8879	1000.1758	1035.8602	1071.6624	1094.1488	1096.1103	1167.2479	1193.8628	1259.8331	1266.6231	1308.922	1381.32	1394.6038	1430.5347	1452.4861	1467.3101	1748.9169	1840.071	1842.5275	2844.3071	3028.0554	3037.0874	3087.9158	3117.2479	3141.5902	3509.2199
N=COC(=O)CCC=O	[NH][CH]OC(=O)CCC=O	
InChI=1S/C5H7NO3/c6-4-9-5(8)2-1-3-7/h3-4,6H,1-2H2	InChI=1S/C5H7NO3/c6-4-9-5(8)2-1-3-7/h3-4,6H,1-2H2
