15
gdb 49097	3.61066	1.56652	1.29884	2.8629	65.93	-0.2304	-0.0332	0.1971	946.2191	0.112209	-457.717235	-457.710355	-457.709411	-457.748629	26.485	
O	-0.270628362	 0.4907848246	-0.7317057554	-0.275996
C	 0.2041253077	 1.0714921535	 0.2185609978	 0.062718
C	 1.3645064755	 1.9718390753	 0.1172086888	 0.326078
O	 1.780435831	 2.6063389406	 1.2976079978	-0.308984
C	 2.4726491628	 3.8065344141	 0.9227810443	-0.088548
C	 2.8172495974	 3.57968132	-0.5402310773	 0.041012
O	 3.6347036027	 2.361319068	-0.5925770344	-0.295317
C	 2.4709232987	 1.6234684359	-0.9181240723	 0.060096
C	 1.6034104738	 2.8171044405	-1.1165563952	-0.216449
H	-0.1906923444	 0.952226909	 1.2493113453	 0.094602
H	 1.8289797585	 4.6886110569	 1.0602711113	 0.103713
H	 3.3653944597	 3.9028191903	 1.5461255741	 0.130745
H	 3.2624145271	 4.4089247977	-1.0893352285	 0.104995
H	 2.5522126264	 0.667428345	-1.4198550991	 0.13537
H	 0.8683872249	 3.0999544386	-1.8565851872	 0.125965
119.5864	177.625	202.542	283.009	402.4649	464.7976	550.7304	656.2606	697.2094	753.8217	770.5817	850.3196	870.6436	897.9398	920.0308	943.5748	1004.4117	1029.4209	1037.2642	1045.9905	1060.3141	1108.7542	1165.6262	1191.1183	1204.6001	1232.5814	1282.5513	1297.1863	1368.773	1384.3294	1419.3045	1500.1824	1795.2881	2918.272	2995.291	3100.6384	3128.5725	3202.9495	3219.3618
O=CC12OCC3OC1C23	O=C[C@@]12OC[C@H]3O[C@@H]1[C@@H]23	
InChI=1S/C6H6O3/c7-2-6-4-3(1-8-6)9-5(4)6/h2-5H,1H2	InChI=1S/C6H6O3/c7-2-6-4-3(1-8-6)9-5(4)6/h2-5H,1H2/t3-,4+,5-,6+/m1/s1
