14
gdb 78069	3.9434	1.07943	0.89793	2.548	65.38	-0.2581	-0.0433	0.2148	1211.1033	0.098588	-473.790802	-473.782537	-473.781592	-473.824329	29.204	
O	-0.0922482375	 1.3957834941	 0.0990770009	-0.436923
C	 0.0293731742	-0.0005770269	 0.1241991015	 0.026221
C	-1.3155673442	-0.7448384918	 0.0277485051	-0.092454
C	-0.9620911888	-1.3867046969	-1.3217833889	-0.176915
N	-0.9686197744	-2.1422010652	-0.0696668844	-0.086937
C	-1.8508638876	-3.2002337963	 0.1350379919	 0.146595
O	-2.1633809459	-4.0082643329	-0.7005623173	-0.278226
C	 0.3016644497	-0.5586736946	-1.3195281649	 0.394129
O	 1.0355457971	-0.1528592436	-2.1720731837	-0.306609
H	 0.5698375616	 1.7343532897	-0.5167734874	 0.305391
H	 0.6753439145	-0.3601778924	 0.9336186779	 0.108421
H	-2.2908111037	-0.3969824995	 0.342418473	 0.144506
H	-1.5934535053	-1.7010513765	-2.1431010877	 0.149712
H	-2.1695217898	-3.251460107	 1.1921811038	 0.103089
75.8254	93.6626	150.2186	223.4453	229.5243	283.4252	365.6251	393.7389	461.8599	627.2953	708.8339	721.2623	790.9347	870.0983	887.3856	933.4007	982.0183	1023.8075	1027.998	1062.4568	1120.7021	1148.8606	1175.9371	1219.5847	1255.7168	1333.0167	1382.3736	1393.9002	1412.4463	1805.0882	1889.0031	2973.4098	3040.5132	3211.6718	3220.7849	3779.3239
OC1C2C(N2C=O)C1=O	O[C@H]1[C@H]2[C@H](N2C=O)C1=O	
InChI=1S/C5H5NO3/c7-1-6-2-3(6)5(9)4(2)8/h1-4,8H	InChI=1S/C5H5NO3/c7-1-6-2-3(6)5(9)4(2)8/h1-4,8H/t2-,3+,4+,6?/m1/s1
