19
gdb 14757	12.23667	0.5613	0.54579	3.8286	73.9	-0.2622	0.0347	0.2969	1956.7808	0.164096	-365.073046	-365.06331	-365.062366	-365.108689	32.675	
C	 0.036745421	 1.3872909396	 0.0089769362	-0.229519
O	 0.0181315738	-0.0200788096	 0.0015524126	-0.230876
C	-1.286235707	-0.5531016268	 0.0114586531	-0.054803
C	-1.1836580435	-2.0730329465	 0.002226997	-0.201062
C	-2.5547652876	-2.7528644698	 0.0120047023	-0.184702
C	-2.4309273276	-4.2894552973	 0.0024801197	-0.341
C	-3.7297809261	-4.9592268271	 0.0115934848	 0.256749
N	-4.765732252	-5.4712030849	 0.0189941763	-0.303902
H	 1.0833713937	 1.7007229274	 0.0004390563	 0.129055
H	-0.4676572042	 1.8080952846	-0.8754771364	 0.104781
H	-0.4502243965	 1.7984577548	 0.9076201105	 0.104781
H	-1.8371914287	-0.2107445432	 0.9053776814	 0.087101
H	-1.8545768983	-0.2011533997	-0.8677296963	 0.087101
H	-0.6151567509	-2.3787014606	-0.8845245282	 0.111813
H	-0.5978914755	-2.3882152317	 0.8742895611	 0.111813
H	-3.1239951718	-2.4476552977	 0.8973666557	 0.122774
H	-3.1412348113	-2.4381611545	-0.8586613648	 0.122774
H	-1.8760889342	-4.6194324197	-0.8836219521	 0.153561
H	-1.8588301732	-4.6289370972	 0.8738960308	 0.153561
53.8983	79.0605	82.1819	127.3675	141.1845	187.7823	234.3075	284.6106	369.3072	400.6243	481.5688	566.1822	742.62	800.2572	927.0049	935.2959	975.8867	1028.6463	1060.2149	1086.2068	1133.6927	1165.7766	1178.8665	1218.8608	1221.999	1267.4485	1282.3315	1316.2056	1328.1136	1340.8747	1393.8477	1431.6371	1469.2785	1481.9376	1485.2947	1490.5108	1501.859	1508.8081	1533.8633	2362.7684	2941.576	2967.0361	2970.4131	3012.8681	3029.7397	3036.6183	3046.9901	3061.2587	3074.5625	3094.9386	3115.8292
COCCCCC#N	COCCCCC#N	
InChI=1S/C6H11NO/c1-8-6-4-2-3-5-7/h2-4,6H2,1H3	InChI=1S/C6H11NO/c1-8-6-4-2-3-5-7/h2-4,6H2,1H3
