19
gdb 113642	3.29352	0.88072	0.83254	1.7282	78.97	-0.247	-0.0909	0.1561	1472.2346	0.156978	-423.041627	-423.031955	-423.031011	-423.07703	34.301	
C	 0.0766378795	 1.4962895006	 0.1241896378	-0.375808
C	-0.2335425353	 0.0000642362	-0.0132967377	-0.212249
C	 0.3923593364	-0.5887281022	-1.2598222527	 0.019958
C	 1.7957828293	-1.0809716569	-1.2816402631	-0.287311
C	 0.6693727522	-2.0976796607	-1.4237672464	-0.159099
C	 0.4154297813	-3.0330221305	-0.315861367	 0.286814
O	 0.7019940417	-2.8624350015	 0.8539296876	-0.314517
C	-0.2743565041	-4.3581134031	-0.6780456023	 0.094952
O	-0.5876118918	-4.6770476557	-1.7945227521	-0.220677
H	 1.1550488499	 1.6700462762	 0.1984959957	 0.120544
H	-0.2921277777	 2.0620654128	-0.7386252975	 0.113286
H	-0.3937487502	 1.9114105058	 1.0204957925	 0.116502
H	 0.1255098999	-0.5389475974	 0.8673286575	 0.13415
H	-1.3205076599	-0.1462692348	-0.0507429357	 0.099006
H	 0.0387278357	-0.141570036	-2.1864522018	 0.099405
H	 2.4151186338	-0.9103757827	-2.1548737571	 0.123371
H	 2.3250123378	-1.1167955011	-0.3344829963	 0.138536
H	 0.4700502986	-2.5127307719	-2.4038301987	 0.117211
H	-0.4464910471	-4.9978757472	 0.2134049772	 0.105927
46.0073	90.2639	126.2291	147.5531	175.7439	218.2259	244.4896	272.8292	397.7951	426.2027	522.6189	627.847	649.7882	753.6351	773.0991	800.8743	858.9034	898.1194	936.9679	993.9123	1029.0434	1039.2795	1077.9977	1095.7165	1125.7249	1147.3675	1164.4443	1204.9634	1236.0994	1301.4389	1346.9127	1362.7738	1406.7401	1415.7267	1432.1527	1480.5654	1495.4078	1497.4714	1510.043	1770.2462	1824.5157	2923.5617	3029.6249	3032.749	3087.6277	3107.8891	3109.0107	3132.3525	3134.1071	3196.9605	3225.613
CCC1CC1C(=O)C=O	CC[C@H]1C[C@H]1C(=O)C=O	
InChI=1S/C7H10O2/c1-2-5-3-6(5)7(9)4-8/h4-6H,2-3H2,1H3	InChI=1S/C7H10O2/c1-2-5-3-6(5)7(9)4-8/h4-6H,2-3H2,1H3/t5-,6+/m0/s1
