19
gdb 58165	2.23537	1.21593	0.99044	3.0224	79.07	-0.2703	-0.0722	0.1981	1288.4283	0.155058	-423.011836	-423.001404	-423.00046	-423.04745	37.657	
C	 0.0516154843	 1.4802880439	 0.2101849463	-0.398786
C	-0.0062965723	-0.0371282022	-0.0085795158	 0.013163
C	-1.4485191458	-0.5564526842	 0.0472251431	-0.394552
C	 0.6369756641	-0.437907107	-1.3623230045	 0.030575
O	-0.0289598557	 0.1558005544	-2.4435416259	-0.437986
C	 2.1190246256	-0.0761068308	-1.4258622854	 0.205324
O	 2.5304184406	 0.6806110101	-2.2850384744	-0.321275
C	 2.9957303256	-0.6807349259	-0.4488887663	 0.292388
C	 3.7149602066	-1.2048589753	 0.3616013975	-0.406839
H	 1.0813901986	 1.8510098785	 0.2504538295	 0.116969
H	-0.4630034453	 2.0000521063	-0.6027291815	 0.13349
H	-0.4354210977	 1.7515354949	 1.1515309554	 0.113115
H	 0.5748144925	-0.5356188497	 0.7777755667	 0.083188
H	-2.0435650595	-0.1208576077	-0.7604813534	 0.139419
H	-1.4852530107	-1.6462427105	-0.0555076851	 0.109233
H	-1.9170466563	-0.2915170535	 1.0002319133	 0.110362
H	 0.5826395104	-1.5377086397	-1.4455046855	 0.094623
H	 0.6443668472	 0.673055887	-2.9144648408	 0.295751
H	 4.3615142178	-1.6598571188	 1.0727302566	 0.221839
50.9101	78.666	122.8027	173.2237	209.5376	228.9721	259.4233	273.5897	310.3643	355.0606	403.079	447.5644	482.4363	589.9344	617.7439	652.9783	682.8135	714.6128	837.9334	878.3626	928.3574	958.034	971.229	1051.639	1108.0625	1121.3062	1191.4013	1199.9993	1260.876	1316.1164	1345.9231	1369.8003	1395.5977	1418.6409	1432.0523	1484.8969	1494.8789	1503.3226	1511.9791	1745.4039	2214.52	2953.3184	3029.0971	3033.8755	3038.9997	3099.6895	3103.1471	3116.4529	3121.8732	3492.3384	3679.8726
CC(C)C(O)C(=O)C#C	CC(C)[C@@H](O)C(=O)C#C	
InChI=1S/C7H10O2/c1-4-6(8)7(9)5(2)3/h1,5,7,9H,2-3H3	InChI=1S/C7H10O2/c1-4-6(8)7(9)5(2)3/h1,5,7,9H,2-3H3/t7-/m1/s1
