20
gdb 82792	2.54386	1.98578	1.61955	1.6594	81.72	-0.2064	0.0116	0.218	940.3781	0.174016	-365.983818	-365.976762	-365.975818	-366.014889	29.294	
C	-0.2974824318	 1.5854165811	 0.0596346245	-0.417949
C	-0.008457248	 0.0941298014	-0.01183127	 0.012962
C	 0.7651126724	-0.5145028782	-1.2129099174	 0.007253
C	 1.9727649058	 0.2365429168	-1.8235013696	-0.268302
C	 2.8492542058	-0.4544852447	-0.7225835697	-0.031416
C	 3.1866691822	 0.4078265251	 0.4600139764	-0.077763
C	 2.2081010202	 0.3636697472	 1.3636597121	-0.072662
C	 1.1036111633	-0.5462062091	 0.9058926903	-0.066862
N	 1.6713694878	-1.2906291252	-0.2791848399	-0.131906
H	 0.6171427407	 2.1816366758	-0.0073030239	 0.120166
H	-0.9620027087	 1.8937515511	-0.755225879	 0.11516
H	-0.7919349863	 1.8428831191	 1.0029912079	 0.114418
H	-0.9450184998	-0.4588353511	 0.1152078585	 0.078607
H	 0.1619961911	-1.0917893487	-1.9196087879	 0.068704
H	 2.2028463127	-0.092926714	-2.839742689	 0.104483
H	 1.9522129448	 1.3283617064	-1.8058763069	 0.102702
H	 3.6941735585	-1.0381889928	-1.1016715258	 0.074268
H	 4.0920651653	 1.0004837176	 0.5236096017	 0.098255
H	 2.1765458176	 0.9139619167	 2.2968929576	 0.098197
H	 0.7178654864	-1.1933652747	 1.7007409701	 0.071684
147.1551	199.8994	230.4972	301.7134	382.8043	477.3836	540.2093	627.4347	666.2981	731.4013	764.8901	799.3118	815.6822	848.0896	856.1823	908.9122	958.0725	962.6373	966.5039	982.2924	1014.0818	1023.3106	1059.8321	1088.5623	1104.1371	1124.2493	1135.0413	1162.4715	1208.6833	1228.3851	1250.2847	1255.9134	1278.7939	1302.6677	1340.9529	1351.2785	1354.8038	1375.9166	1411.8055	1478.3078	1494.1983	1504.6671	1670.9312	3029.2641	3034.885	3044.6697	3046.9221	3057.2439	3067.5529	3090.4972	3107.6433	3116.6795	3188.7468	3213.5038
CC1C2CC3C=CC1N23	C[C@H]1[C@H]2C[C@H]3C=C[C@@H]1N23	
InChI=1S/C8H11N/c1-5-7-3-2-6-4-8(5)9(6)7/h2-3,5-8H,4H2,1H3	InChI=1S/C8H11N/c1-5-7-3-2-6-4-8(5)9(6)7/h2-3,5-8H,4H2,1H3/t5-,6-,7+,8-/m1/s1
