13
gdb 129294	2.86958	1.51704	0.9924	1.8641	71.11	-0.2574	-0.1155	0.1419	1080.0803	0.089055	-452.732467	-452.725052	-452.724108	-452.764933	26.812	
N	 0.1705365953	 1.413942503	-0.0552050263	-0.521172
C	 0.0697164237	 0.1621738396	-0.2212261581	 0.370038
O	 1.1471504791	-0.5673984972	-0.7293531704	-0.282611
N	 1.1226687937	-1.9351024461	-0.9417719958	-0.048405
C	 0.0319118893	-2.5560983027	-0.6473513073	 0.033816
C	-1.1468316547	-1.9276283181	-0.1189294146	-0.179879
C	-1.1353753877	-0.5957546946	 0.0924129527	 0.100206
C	-2.3355358776	 0.106176934	 0.6404728181	 0.103385
O	-3.3550148848	-0.4821440101	 0.9144480357	-0.256792
H	 1.0909086429	 1.7551515416	-0.3332036442	 0.238249
H	 0.0687832955	-3.624585004	-0.8335688465	 0.152234
H	-2.0357582318	-2.5055405636	 0.1093850754	 0.156249
H	-2.219604773	 1.1945927483	 0.7747511214	 0.134682
83.3149	119.0157	210.7236	212.4944	359.4099	371.6359	497.6684	554.5575	559.4929	616.0818	750.7032	816.1268	854.6963	886.1023	895.7086	924.0625	980.3307	994.4866	1057.7849	1062.1851	1156.6887	1267.6343	1350.0108	1369.602	1428.7527	1602.2486	1668.0508	1741.6479	1796.0154	3008.4452	3192.1129	3206.9414	3495.7189
N=C1ON=CC=C1C=O	[NH]C1=C([CH]C=NO1)C=O	
InChI=1S/C5H4N2O2/c6-5-4(3-8)1-2-7-9-5/h1-3,6H	InChI=1S/C5H4N2O2/c6-5-4(3-8)1-2-7-9-5/h1-3,6H
