17
gdb 98367	2.14076	1.26175	0.82778	2.8586	66.92	-0.2796	-0.015	0.2646	1354.3512	0.13232	-496.152359	-496.142122	-496.141178	-496.189563	33.957	
C	 1.3043391254	 1.0291385576	-0.2457775262	-0.243498
O	 1.2206811567	-0.355260065	-0.6196198227	-0.228588
C	 0.0354439837	-0.7559235026	-1.0999248283	 0.455673
O	-0.9334538075	-0.0503516891	-1.2095806672	-0.353521
C	 0.0619147134	-2.2522085132	-1.4411710719	-0.029959
C	-1.0823024445	-2.6473986525	-2.3594623311	-0.390545
O	 1.2995726716	-2.5934120409	-2.0744604076	-0.17779
C	 2.3100689842	-3.0431265143	-1.2998922824	 0.181354
O	 3.3916440049	-3.2887007178	-1.7373726366	-0.271783
H	 1.1075859093	 1.6677164485	-1.1098814051	 0.150022
H	 0.5774104868	 1.2574349969	 0.5372675189	 0.145397
H	 2.3212188002	 1.175734879	 0.1161408165	 0.144493
H	-0.0148450505	-2.7915032739	-0.4848220926	 0.116172
H	-2.0335789968	-2.3494031246	-1.9158865984	 0.146357
H	-0.9827699367	-2.1483479015	-3.3262214569	 0.145973
H	-1.0757470947	-3.7279791308	-2.5178763566	 0.12899
H	 2.0157438945	-3.1714390158	-0.240841632	 0.081252
20.7729	58.6387	109.7085	136.5911	156.5719	198.8928	200.8554	258.3151	315.8353	334.4861	398.055	511.1624	548.3335	673.6749	785.1234	859.9597	939.6395	1007.9305	1039.6506	1066.6334	1126.7519	1130.1881	1178.7666	1201.1194	1210.8983	1256.6454	1344.8828	1361.1325	1412.3703	1438.5242	1472.9089	1481.8406	1482.6604	1493.5539	1495.6236	1827.6926	1873.1299	2956.8508	2998.3486	3057.346	3062.9758	3134.9778	3139.9477	3152.1966	3169.4583
COC(=O)C(C)OC=O	COC(=O)[C@@H](C)OC=O	
InChI=1S/C5H8O4/c1-4(9-3-6)5(7)8-2/h3-4H,1-2H3	InChI=1S/C5H8O4/c1-4(9-3-6)5(7)8-2/h3-4H,1-2H3/t4-/m1/s1
