18
gdb 118387	3.11548	0.78793	0.65984	3.9266	78.24	-0.2728	0.0268	0.2996	1643.3646	0.145088	-401.923321	-401.912964	-401.91202	-401.959496	36.115	
O	-0.1244098235	 1.4796168528	 0.0981077508	-0.419787
C	 0.0272779168	 0.0750630109	-0.029383254	-0.089187
C	-1.3696372757	-0.53198559	 0.0177362107	-0.177527
C	-1.3705271579	-2.0738224745	-0.041969947	-0.177264
C	-2.8227673534	-2.6032378652	 0.1250670199	-0.350851
C	-2.89725752	-4.0579021896	 0.232915929	 0.268452
N	-2.9518366213	-5.2073125223	 0.335034064	-0.30238
C	-0.7752658641	-2.5788260559	-1.2774012162	 0.351845
C	-0.309547424	-2.9869673721	-2.3072628633	-0.469911
H	 0.7416277549	 1.8860221241	 0.0019946204	 0.289769
H	 0.5181215031	-0.1961211314	-0.9747674976	 0.107389
H	 0.6389402425	-0.3379698622	 0.7901952503	 0.087622
H	-1.8548522422	-0.2119494751	 0.9469218214	 0.111933
H	-1.959805021	-0.1285932262	-0.8125450388	 0.119317
H	-0.7843877371	-2.4534816473	 0.8055637947	 0.12763
H	-3.2635276152	-2.1645677111	 1.0269001062	 0.153738
H	-3.4310230143	-2.2782016456	-0.7255220535	 0.161777
H	 0.1095087123	-3.3620339994	-3.208427627	 0.207434
57.7126	88.0265	95.8579	112.2416	160.0957	222.9774	233.1969	254.5486	338.3032	393.4472	397.4606	477.8454	539.3071	636.8253	643.7282	656.8552	784.7675	832.0493	929.3226	951.3151	1014.919	1050.4648	1074.6513	1098.0416	1111.471	1210.3566	1226.7925	1245.0134	1294.0667	1314.8746	1345.5726	1355.2453	1370.4821	1463.3397	1466.5996	1490.7518	1530.0372	2237.8042	2366.1	2963.7011	3018.8819	3020.7247	3040.117	3050.7416	3087.9672	3095.6608	3502.1059	3833.8317
OCCC(CC#N)C#C	OCC[C@@H](CC#N)C#C	
InChI=1S/C7H9NO/c1-2-7(3-5-8)4-6-9/h1,7,9H,3-4,6H2	InChI=1S/C7H9NO/c1-2-7(3-5-8)4-6-9/h1,7,9H,3-4,6H2/t7-/m1/s1
