21
gdb 56190	4.66227	0.64593	0.6019	3.0499	79.22	-0.2445	-0.0135	0.231	1860.345	0.180253	-424.22748	-424.217266	-424.216322	-424.265251	35.053	
C	-0.0512282848	 1.5064954132	-0.1450525284	-0.473229
C	 0.0905835015	 0.0050130273	 0.0363193078	 0.378454
O	 1.1678646633	-0.5204331439	 0.1981678177	-0.287348
C	-1.2024856831	-0.8032337479	 0.0034228581	-0.30413
C	-0.9885997259	-2.3124526812	 0.1251259237	-0.202034
C	-2.2925262462	-3.0986498605	 0.1131707756	-0.030463
C	-3.0497617695	-3.2354138491	-1.2302452958	-0.074761
O	-2.9846334752	-4.673485819	-1.1766260211	-0.270853
C	-2.1969841616	-4.6394170734	 0.0311345429	-0.091895
H	 0.9248305212	 1.9846403793	-0.0560267242	 0.144096
H	-0.4793508883	 1.7294313057	-1.1291059331	 0.139499
H	-0.7377661003	 1.9229957566	 0.6003922777	 0.136455
H	-1.8491189923	-0.432725566	 0.8125635583	 0.119612
H	-1.7390027853	-0.5515038895	-0.9226500587	 0.119951
H	-0.3425045788	-2.6526367912	-0.6927816344	 0.113853
H	-0.4348109266	-2.5215814937	 1.0473015484	 0.115541
H	-2.9450065979	-2.7640698028	 0.9258446753	 0.0758
H	-4.0843199214	-2.8718697693	-1.2539756833	 0.099148
H	-2.5139440203	-2.8336909149	-2.1027319262	 0.092477
H	-1.1817240606	-5.0280398836	-0.1292804462	 0.099723
H	-2.667927338	-5.2043203561	 0.844574436	 0.100102
24.4822	49.1272	73.6057	99.126	117.1625	139.0327	238.6166	301.5332	401.0234	447.2746	480.6644	587.259	732.209	755.8993	834.824	874.4918	893.8933	900.5478	943.1982	984.5711	992.6558	1030.4699	1045.7807	1098.0196	1117.8487	1147.4598	1162.3669	1165.0238	1177.5504	1228.6645	1260.6973	1303.4818	1312.7833	1321.0373	1359.9216	1383.4437	1393.2181	1405.893	1449.0792	1465.5781	1478.1681	1485.8441	1512.5528	1538.0771	1812.6644	2990.1775	3005.6088	3007.8354	3034.1707	3037.2533	3037.7731	3040.4449	3046.7549	3062.325	3083.0035	3097.2197	3152.5734
CC(=O)CCC1COC1	CC(=O)CCC1COC1	
InChI=1S/C7H12O2/c1-6(8)2-3-7-4-9-5-7/h7H,2-5H2,1H3	InChI=1S/C7H12O2/c1-6(8)2-3-7-4-9-5-7/h7H,2-5H2,1H3
