18
gdb 76927	2.03566	1.68502	1.09208	3.6523	74.52	-0.2455	-0.0413	0.2042	1143.5522	0.145544	-439.118993	-439.109376	-439.108431	-439.153885	33.37	
C	-0.1001471868	 1.6060416101	 0.1162395925	-0.416092
C	 0.0017078947	 0.0921344492	-0.0200927277	-0.176564
C	 0.8034224576	-0.5316596364	-1.2331505077	-0.095797
C	 1.405419783	 0.4509294498	-2.2087759001	 0.154057
O	 2.5552328926	 0.8096931114	-2.196023993	-0.245828
N	 1.71610376	-1.1055276654	-0.2558008949	-0.059402
C	 2.9172632555	-1.8916998205	-0.4000824582	-0.354604
C	 1.0867285101	-0.591964052	 0.8498552542	 0.428859
O	 1.326625447	-0.6606629782	 2.0265695885	-0.376125
H	 0.8682945349	 2.0900853127	-0.0420585642	 0.14256
H	-0.8187711865	 2.0297124944	-0.5921257321	 0.121885
H	-0.4349245284	 1.8548060671	 1.1272425488	 0.146187
H	-0.9770195012	-0.379813329	 0.1005073366	 0.109267
H	 0.2181637532	-1.2697769255	-1.8024284858	 0.095307
H	 0.6859682886	 0.831097948	-2.9699491489	 0.084885
H	 3.6637314416	-1.3555128936	-0.9927110745	 0.154203
H	 3.3116893021	-2.0706032625	 0.6028235366	 0.162087
H	 2.7079483919	-2.8585748398	-0.8737330798	 0.125114
69.9748	97.7099	124.6832	148.0808	204.0017	212.2092	235.4564	252.0372	296.9211	388.5316	535.3718	638.9806	680.6023	740.9096	752.4501	848.134	888.7742	966.7998	1002.5002	1062.8161	1081.7845	1088.6472	1144.2866	1151.9133	1177.7572	1232.6378	1294.413	1332.0473	1363.1735	1402.7876	1415.1599	1420.5241	1455.4118	1481.9766	1496.8103	1498.9337	1517.9309	1825.9217	1882.7956	2870.5745	2993.9014	3025.5152	3040.746	3079.5649	3095.238	3111.9793	3119.7642	3137.4168
CC1C(C=O)N(C)C1=O	C[C@H]1[C@@H](C=O)N(C)C1=O	
InChI=1S/C6H9NO2/c1-4-5(3-8)7(2)6(4)9/h3-5H,1-2H3	InChI=1S/C6H9NO2/c1-4-5(3-8)7(2)6(4)9/h3-5H,1-2H3/t4-,5+/m0/s1
