20
gdb 103909	2.54191	1.11582	0.96164	4.2255	78.36	-0.2486	0.0311	0.2797	1336.9511	0.167746	-440.251824	-440.241622	-440.240677	-440.287381	36.322	
C	-0.1603079406	 0.8008577132	 0.3790858238	-0.2468
O	-0.290919402	-0.4549390167	-0.2623466228	-0.275699
C	 0.6413755148	-0.7067141746	-1.2691540203	 0.386967
C	 0.3928363839	 0.0117936985	-2.5777705107	-0.453959
C	 2.0602564869	-1.0349584959	-0.8442579838	-0.372675
C	 1.1402548461	-2.1342822469	-1.3009581735	 0.038821
O	 0.7480199715	-3.0380312868	-0.3067737701	-0.185254
C	-0.5515313304	-3.4201647308	-0.3206877361	 0.14564
N	-0.9460184032	-4.3038629926	 0.4876756542	-0.44703
H	 0.8426470433	 0.9328429221	 0.8069296983	 0.113124
H	-0.3629196574	 1.6372638321	-0.3037067849	 0.110912
H	-0.8974161357	 0.8187276106	 1.1845963685	 0.134498
H	 0.5508957648	 1.0911742652	-2.4797868858	 0.124455
H	 1.0730187581	-0.3490318501	-3.3547237357	 0.121752
H	-0.6356550189	-0.1548716432	-2.9139114574	 0.12752
H	 2.8918611684	-0.7431532173	-1.4757334875	 0.116902
H	 2.2583287639	-1.0291559982	 0.2216555188	 0.139343
H	 1.3082807846	-2.5930321074	-2.2734580172	 0.101046
H	-1.152541002	-2.8913682524	-1.0689936759	 0.093592
H	-1.9421113061	-4.4681716186	 0.3572992781	 0.226845
64.8178	90.0441	124.3138	134.2897	173.3675	198.1272	218.942	280.6522	329.7781	366.1684	404.5364	488.7377	571.5689	659.5476	718.3346	820.5215	822.1957	870.2987	922.9544	946.1905	1031.6843	1041.7882	1059.797	1076.4207	1109.8259	1123.1156	1125.4882	1180.2887	1199.8137	1218.9625	1261.902	1285.4747	1317.5703	1394.3556	1411.9912	1421.0001	1470.4062	1475.2896	1480.6552	1492.5805	1503.0214	1510.0779	1746.3904	2998.0035	3033.634	3052.5113	3058.2373	3098.7625	3112.8223	3120.9336	3125.1089	3139.0411	3233.0042	3516.6145
COC1(C)CC1OC=N	CO[C@@]1(C)C[C@H]1O[CH][NH]	
InChI=1S/C6H11NO2/c1-6(8-2)3-5(6)9-4-7/h4-5,7H,3H2,1-2H3	InChI=1S/C6H11NO2/c1-6(8-2)3-5(6)9-4-7/h4-5,7H,3H2,1-2H3/t5-,6+/m1/s1
