18
gdb 59930	2.23657	1.17012	0.80919	3.7015	79.46	-0.2834	-0.01	0.2733	1415.2077	0.143412	-401.911678	-401.901332	-401.900387	-401.947919	36.64	
C	 0.1196456026	 1.4581312342	-0.2455608647	-0.396781
C	 0.0292655406	-0.0448395329	 0.0175114879	 0.143163
C	 0.5769395943	-0.4321625145	 1.3848668579	-0.393873
O	-1.3294619383	-0.5214831909	-0.0013264199	-0.247499
C	-1.9254939592	-0.6425200924	-1.2718384917	-0.199922
C	-2.8241973089	-1.798941696	-1.2877536895	 0.316778
C	-3.5516154977	-2.7521019866	-1.3192323052	-0.389892
C	-2.6778262705	 0.5835426749	-1.6511033811	 0.295879
N	-3.2478323702	 1.5429959374	-1.9486828699	-0.330395
H	 1.1631590072	 1.7834962537	-0.1877510787	 0.118964
H	-0.2595512852	 1.7276525297	-1.234709242	 0.133132
H	-0.4587714726	 2.0097435301	 0.5016453437	 0.135963
H	 0.5884565205	-0.5856047379	-0.7635788903	 0.076833
H	 0.0179325654	 0.0772004292	 2.1756212631	 0.132893
H	 0.4918974816	-1.5101324425	 1.541859857	 0.128292
H	 1.6294314281	-0.1460880334	 1.4664281311	 0.119942
H	-1.1528652073	-0.7899464382	-2.0448686379	 0.14336
H	-4.1990154806	-3.5943909637	-1.3404190797	 0.213164
28.3711	73.2651	128.8842	145.5702	211.6341	221.0462	254.3616	286.6533	339.7765	349.5103	412.3006	460.69	521.9592	579.8668	610.3648	650.7683	686.0537	835.198	904.2416	930.9192	938.167	946.7237	1018.6817	1087.7429	1144.3086	1161.9184	1201.697	1313.6912	1325.1359	1365.4753	1394.7878	1404.5413	1419.6776	1479.8329	1483.2557	1497.3358	1508.268	2252.7238	2358.352	2967.8813	2969.1094	3041.9379	3047.659	3113.5904	3121.2003	3124.6447	3129.0734	3501.8292
CC(C)OC(C#C)C#N	CC(C)O[C@@H](C#C)C#N	
InChI=1S/C7H9NO/c1-4-7(5-8)9-6(2)3/h1,6-7H,2-3H3	InChI=1S/C7H9NO/c1-4-7(5-8)9-6(2)3/h1,6-7H,2-3H3/t7-/m0/s1
