16
gdb 13322	5.2773	1.14199	1.02295	2.8419	68.43	-0.2367	-0.0347	0.2021	1123.6124	0.129403	-383.748521	-383.740536	-383.739592	-383.782619	27.292	
O	 0.1808081981	-0.1987217602	-0.3199313297	-0.228673
C	 0.077323571	 0.9960001798	-0.2425431118	 0.159759
C	 1.2442330566	 1.9586642827	-0.045634287	-0.383745
C	 1.304244465	 2.9727147598	-1.1484947602	 0.285574
C	 0.9804135352	 4.2630669739	-1.1186696681	-0.208666
C	 1.1779952927	 4.877377704	-2.4739213179	-0.099736
O	 1.6333114546	 3.8118293397	-3.3048858142	-0.262437
C	 1.7446435102	 2.6138475516	-2.5476690711	-0.144311
H	-0.9125019581	 1.5015178163	-0.3174733707	 0.083285
H	 1.089943608	 2.4668285954	 0.9148194286	 0.128268
H	 2.1621556432	 1.3649552848	 0.0163714217	 0.129723
H	 0.6349202434	 4.8223326339	-0.2577364878	 0.104236
H	 0.248010022	 5.3002181683	-2.8859634937	 0.108568
H	 1.9225477284	 5.6896037047	-2.4614311711	 0.10802
H	 2.7836011307	 2.2452102536	-2.5679062553	 0.107506
H	 1.118803279	 1.8250874419	-2.9961523217	 0.112629
42.5603	50.5447	107.712	156.4486	293.2852	311.8655	452.6925	503.0328	629.1694	772.5045	820.8273	825.7057	912.5826	926.8605	960.1707	1019.4251	1023.9171	1049.7032	1073.4682	1113.4892	1171.1395	1182.9552	1210.0753	1224.4671	1290.9053	1313.8976	1370.861	1397.161	1417.1374	1459.613	1515.4379	1527.9039	1723.3511	1837.7738	2874.6049	2964.0605	2973.7256	2981.3911	2987.8482	3029.3413	3091.0623	3210.494
O=CCC1=CCOC1	O=CCC1=CCOC1	
InChI=1S/C6H8O2/c7-3-1-6-2-4-8-5-6/h2-3H,1,4-5H2	InChI=1S/C6H8O2/c7-3-1-6-2-4-8-5-6/h2-3H,1,4-5H2
