22
gdb 97381	2.70183	0.98412	0.82956	2.9073	87.38	-0.2432	0.0278	0.271	1514.0498	0.191027	-404.338233	-404.327714	-404.32677	-404.373709	38.385	
C	 1.2675666891	-2.48000815	 3.0140045669	-0.314082
N	 0.7355476949	-2.1151088279	 1.7181767071	-0.212042
C	-0.3726279666	-2.6102264748	 1.3901762064	 0.122297
O	-0.9165208376	-2.3354665783	 0.1820292144	-0.24398
C	-2.2331562973	-2.8153082309	-0.0364249176	 0.406844
C	-3.2888868479	-2.0489032267	 0.7268511849	-0.449105
C	-2.4852135843	-3.2378495935	-1.4521554643	-0.345745
C	-2.407100588	-4.2860083152	-0.357156832	-0.045928
C	-1.2531648937	-5.2634273122	-0.3274190133	-0.420599
H	 1.4371724516	-1.5759958679	 3.6101486875	 0.126583
H	 0.6181528884	-3.1581131728	 3.5926648593	 0.092895
H	 2.2429398297	-2.9646045528	 2.8894794774	 0.126508
H	-0.969126098	-3.2920166134	 2.0143692947	 0.079374
H	-3.2355539263	-0.9833408795	 0.4810257569	 0.134471
H	-4.2875288628	-2.4124086734	 0.4696397217	 0.121343
H	-3.1621592168	-2.1534612582	 1.8099444181	 0.119046
H	-3.4443174685	-2.9994102384	-1.8985785402	 0.11233
H	-1.6392584457	-3.17427726	-2.1280171609	 0.12838
H	-3.3593230209	-4.7038965003	-0.0385194619	 0.085823
H	-0.3168865483	-4.7800513171	-0.6178455781	 0.139472
H	-1.1137066492	-5.6933007041	 0.6708373036	 0.115542
H	-1.4330493917	-6.0911462826	-1.0217041407	 0.120576
61.3429	107.3025	129.1065	200.2334	204.1239	210.7729	225.28	240.1181	314.7746	340.2934	362.9431	422.8681	440.3091	528.8303	581.9005	743.2839	789.3114	871.3644	929.4708	935.0127	984.1452	990.4666	1019.867	1057.8704	1065.5357	1119.7684	1133.0399	1142.059	1147.7721	1149.6281	1190.0657	1229.8752	1262.2798	1306.4227	1400.8085	1404.1545	1414.3378	1427.6702	1450.623	1480.7272	1482.6393	1485.8257	1497.7268	1499.2225	1504.7373	1507.503	1776.2568	2962.8561	3005.4946	3032.0442	3034.5386	3055.79	3075.3979	3089.3182	3098.6049	3115.3236	3117.6708	3134.1174	3136.9863	3223.4728
CN=COC1(C)CC1C	CN=CO[C@@]1(C)C[C@H]1C	
InChI=1S/C7H13NO/c1-6-4-7(6,2)9-5-8-3/h5-6H,4H2,1-3H3	InChI=1S/C7H13NO/c1-6-4-7(6,2)9-5-8-3/h5-6H,4H2,1-3H3/t6-,7+/m1/s1
