19
gdb 107443	2.75006	1.43851	1.28859	1.9973	73.72	-0.2334	0.0597	0.2932	1068.1456	0.15955	-422.979993	-422.971954	-422.97101	-423.012578	31.614	
O	 0.1131749219	 1.3945631136	 0.3212961229	-0.415612
C	-0.0132199951	 0.0430385089	-0.0975521542	-0.177483
C	-1.4301164759	-0.482978491	-0.040683732	 0.304844
C	-1.9282565725	-1.4281572358	-1.1227869367	-0.386442
C	-2.5017022409	-0.0385467876	-1.0047351989	 0.076389
O	-3.7186620923	 0.1456777366	-0.3217972911	-0.26104
C	-3.5315789103	-0.0425918464	 1.0601511746	 0.114201
C	-3.2877561498	-1.4350865063	 1.5792481293	-0.337426
C	-2.118950431	-0.5027702462	 1.3137928579	-0.151782
H	-0.1244534292	 1.445714569	 1.2519462281	 0.285077
H	 0.3406445914	 0.0254679339	-1.1331319728	 0.108082
H	 0.6539650152	-0.6156058767	 0.481582986	 0.091811
H	-1.2552774686	-1.6064563489	-1.9564109947	 0.112025
H	-2.5421732402	-2.2811486899	-0.8624051689	 0.117903
H	-2.3437444402	 0.6938366636	-1.7892026634	 0.107071
H	-4.0641805773	 0.6869154189	 1.6609938627	 0.100671
H	-3.5337851661	-1.6140512262	 2.6212010154	 0.11342
H	-3.467217108	-2.2833725509	 0.930570526	 0.122685
H	-1.5465676311	-0.1487173987	 2.1648750898	 0.075607
77.7146	139.3454	216.2741	258.9674	274.6357	317.732	430.4269	478.8377	559.7985	591.3284	706.2311	715.5684	775.9493	825.0435	830.8266	873.613	942.3567	962.6803	981.6812	989.2126	1003.6357	1027.0733	1049.5654	1062.7768	1070.3949	1086.1889	1098.9715	1114.3672	1165.5637	1185.5076	1209.2528	1245.4028	1298.9145	1338.9875	1371.6247	1383.1996	1398.7739	1425.8678	1469.0009	1493.3398	1502.1067	2974.8069	3075.9982	3130.4124	3137.5974	3153.6509	3165.4528	3170.7077	3220.3401	3228.9043	3827.7438
OCC12CC1OC1CC21	OC[C@]12C[C@H]1O[C@H]1C[C@@H]21	
InChI=1S/C7H10O2/c8-3-7-2-6(7)9-5-1-4(5)7/h4-6,8H,1-3H2	InChI=1S/C7H10O2/c8-3-7-2-6(7)9-5-1-4(5)7/h4-6,8H,1-3H2/t4-,5+,6-,7+/m1/s1
