16
gdb 50117	5.4034	0.89132	0.83653	2.1711	75.86	-0.2591	-0.0456	0.2135	1322.7761	0.123999	-400.7412	-400.733042	-400.732098	-400.774654	29.737	
O	 0.0342660028	-0.0839061806	-0.2183153773	-0.24247
C	 0.0110528075	 1.0873803286	 0.0594097626	 0.156446
C	 1.2200958792	 1.9898297559	 0.0268067862	-0.07721
C	 1.1687310646	 3.2550640676	-0.907596529	-0.326906
C	 1.4749433141	 4.1534195527	 0.3054671096	 0.232941
C	 0.4002453378	 3.9792087244	 1.3516943723	-0.32284
C	 1.4521017431	 2.918231332	 1.2333500919	-0.119748
C	 2.3726847524	 5.2599192906	 0.3005613776	 0.180923
N	 3.1084339543	 6.1536632229	 0.2814475401	-0.343017
H	-0.940084635	 1.5828964191	 0.3608597148	 0.075484
H	 2.0955077839	 1.3774678285	-0.1935819757	 0.113565
H	 1.9652026039	 3.2363488518	-1.6508170355	 0.145473
H	 0.2186033282	 3.4657152179	-1.4072384914	 0.121971
H	 0.4979205928	 4.6199790075	 2.2208416283	 0.148913
H	-0.6234260078	 3.8140434649	 1.0299165729	 0.130364
H	 2.1246735182	 2.6988674561	 2.0526103226	 0.126111
55.5727	93.3383	150.6191	217.6113	275.2818	362.8508	410.7732	443.0656	542.9515	569.8962	601.7505	725.7369	824.2484	852.7187	875.9595	932.4406	965.2989	972.9695	1027.2712	1061.1749	1071.5407	1091.5962	1112.3139	1170.6883	1209.3016	1240.2755	1258.842	1287.0791	1309.3256	1383.006	1438.1148	1480.749	1498.6375	1829.3586	2346.1534	2869.3594	3064.0398	3107.557	3130.6827	3143.8541	3202.0299	3223.4399
O=CC1CC2(CC12)C#N	O=C[C@H]1C[C@]2(C[C@@H]12)C#N	
InChI=1S/C7H7NO/c8-4-7-1-5(3-9)6(7)2-7/h3,5-6H,1-2H2	InChI=1S/C7H7NO/c8-4-7-1-5(3-9)6(7)2-7/h3,5-6H,1-2H2/t5-,6+,7+/m1/s1
