20
gdb 107801	2.49954	1.67105	1.29967	2.0193	77.72	-0.2234	0.0719	0.2953	1062.6964	0.170269	-403.06878	-403.06022	-403.059275	-403.102081	32.628	
C	-0.1235455204	 1.3571096604	 0.0743194495	-0.268585
O	 0.0257886364	-0.0512370843	 0.064270034	-0.297155
C	 0.6345812528	-0.5557707782	-1.0652133638	 0.374073
C	 0.0186341029	-0.4852541418	-2.4788961954	-0.215864
N	 0.6924658475	-1.7890571888	-2.7977502998	-0.153114
C	 2.020251483	-1.745934136	-2.0700356202	-0.046797
C	 0.7833596061	-2.0961196148	-1.3427195439	-0.126232
C	 2.1822182311	-0.4182070306	-1.3305453319	-0.043799
C	 2.8121121358	 0.7840392178	-2.0249784182	-0.435716
H	 0.8457755766	 1.8717769413	 0.1168987745	 0.116986
H	-0.6708125479	 1.713578658	-0.8098759703	 0.11582
H	-0.6958538647	 1.6094679416	 0.9693983958	 0.132277
H	-1.0611219225	-0.6558734068	-2.4666180646	 0.112036
H	 0.2596337162	 0.3492798555	-3.1452303779	 0.094426
H	 2.7896573634	-2.3969060777	-2.4655873073	 0.095491
H	 0.407401142	-2.9927124155	-0.8693679973	 0.100553
H	 2.6878424786	-0.617502331	-0.3787865667	 0.084404
H	 2.3156611083	 1.0291250482	-2.9678621083	 0.123424
H	 2.7909732515	 1.6749252011	-1.3887414133	 0.117032
H	 3.8625955435	 0.5755738316	-2.2579211551	 0.12074
55.1831	151.9378	172.7767	198.9272	245.9596	279.8053	361.3439	389.8654	493.5916	564.2674	641.9556	673.6552	750.4338	782.9357	826.3944	882.1112	916.9823	952.1523	983.437	1000.4141	1009.7106	1059.2355	1077.6963	1094.8428	1130.68	1140.551	1158.4964	1166.43	1180.1998	1195.5941	1227.9778	1245.9558	1261.9528	1328.4895	1338.368	1390.4438	1410.4739	1484.9448	1488.9622	1492.9312	1496.3195	1506.4435	1514.8557	2995.2805	3032.4828	3044.1155	3048.0448	3050.2831	3092.2828	3104.9697	3115.0355	3123.5916	3193.2617	3214.4104
COC12CN3C(C13)C2C	CO[C@]12CN3[C@H]([C@@H]13)[C@H]2C	
InChI=1S/C7H11NO/c1-4-5-6-7(4,9-2)3-8(5)6/h4-6H,3H2,1-2H3	InChI=1S/C7H11NO/c1-4-5-6-7(4,9-2)3-8(5)6/h4-6H,3H2,1-2H3/t4-,5+,6+,7+,8?/m1/s1
