14
gdb 30615	4.64608	1.03514	0.85098	3.6398	67.26	-0.2608	-0.0666	0.1942	1261.6194	0.100459	-473.853117	-473.845004	-473.84406	-473.886713	28.25	
O	-0.020339652	 1.3949057373	 0.0097135225	-0.397023
C	-0.0213786885	-0.0075825724	 0.0031593112	-0.178858
C	-1.4642714509	-0.4952748012	 0.0128110355	 0.287052
O	-2.424702062	 0.2337666202	 0.0238814597	-0.283844
C	-1.6050708411	-1.9736304891	 0.0073378402	 0.313787
N	-0.656851492	-2.8669328652	-0.0042741977	-0.297598
C	-1.3176403857	-4.0781597745	-0.0044509568	-0.116708
C	-2.6567686735	-3.8439225784	 0.0075191973	-0.025554
O	-2.853481593	-2.5036368521	 0.015075362	-0.145682
H	 0.8950982468	 1.6885909583	 0.0033506974	 0.295217
H	 0.4717386776	-0.4390604279	-0.8832612129	 0.125828
H	 0.4863786282	-0.4473140222	 0.8771596634	 0.125838
H	-0.7922827919	-5.0196704227	-0.0129516029	 0.136571
H	-3.5375658519	-4.4630637	 0.011894501	 0.160974
74.8414	79.9012	151.3117	183.1266	228.541	290.4748	368.145	499.3831	541.8764	636.776	739.0329	762.4871	796.6671	875.3074	931.3592	950.7775	1000.6358	1011.3018	1123.6109	1143.3569	1153.3928	1171.2516	1230.8382	1244.4232	1294.9578	1395.2636	1451.3915	1485.1069	1512.1227	1577.8925	1811.4965	2975.0339	2998.046	3267.1206	3299.1526	3839.9616
OCC(=O)C1=NC=CO1	OCC(=O)c1ncco1	
InChI=1S/C5H5NO3/c7-3-4(8)5-6-1-2-9-5/h1-2,7H,3H2	InChI=1S/C5H5NO3/c7-3-4(8)5-6-1-2-9-5/h1-2,7H,3H2
