14
gdb 124904	3.78938	1.28957	1.06491	2.8474	62.98	-0.2905	-0.0798	0.2108	1081.2223	0.099167	-469.925334	-469.917624	-469.91668	-469.958955	27.597	
C	-0.0499815231	 1.5028549908	 0.033492503	-0.473606
C	-0.0319573851	-0.003501576	-0.0728133851	 0.291792
C	 0.7718260612	-0.6981313318	-1.0911682599	-0.213702
O	 1.2128740863	-0.6398400575	 0.2650721868	-0.255568
C	-1.2245986037	-0.7020142175	 0.4752616579	 0.406275
N	-1.6791995409	-1.8585694783	 0.0822651207	-0.150718
O	-2.7407554144	-2.1021358993	 0.877037671	-0.137421
N	-2.903672048	-1.0275067847	 1.7534918436	 0.046452
N	-1.9969925779	-0.1952005991	 1.5082125854	-0.210307
H	 0.8832371329	 1.9067442201	-0.364017184	 0.136743
H	-0.8882276648	 1.9244048988	-0.5302146633	 0.135965
H	-0.1536720746	 1.8144716662	 1.0759821741	 0.156075
H	 0.4685854097	-1.6811615295	-1.4435126751	 0.14502
H	 1.3414662423	-0.0950742222	-1.796573985	 0.122999
20.5325	154.4216	191.9943	203.8174	321.1597	353.3738	428.8366	491.7559	565.0814	676.4521	679.7235	787.1397	802.4578	879.8581	933.5115	970.39	1026.1091	1058.6332	1085.1128	1105.2164	1138.4889	1169.7714	1208.4655	1294.6194	1392.4663	1419.3679	1477.2476	1481.2106	1504.2245	1526.788	1587.0811	3049.7549	3093.8084	3120.3887	3140.4989	3189.6044
CC1(CO1)C1=NON=N1	C[C@]1(CO1)c1nonn1	
InChI=1S/C4H5N3O2/c1-4(2-8-4)3-5-7-9-6-3/h2H2,1H3	InChI=1S/C4H5N3O2/c1-4(2-8-4)3-5-7-9-6-3/h2H2,1H3/t4-/m0/s1
