22
gdb 22563	2.057	1.4586	0.98606	0.844	85.68	-0.2382	0.0109	0.2491	1292.2048	0.19202	-404.30824	-404.297952	-404.297008	-404.343207	38.469	
C	-0.3195138355	 1.5023790036	-0.0412231975	-0.394128
C	 0.005370656	 0.0133847474	 0.0173068252	-0.029427
C	 1.2225847399	-0.4445401259	-0.873367524	-0.058855
C	 1.7185866145	 0.3956470386	-2.0428832048	-0.408897
C	 2.0379551614	-0.4990436826	 0.403733365	 0.393094
N	 3.2969026753	-0.4678726046	 0.536452777	-0.258001
O	 3.6813512511	-0.4844244675	 1.8959913064	-0.396246
C	 0.8072056401	-0.4494388952	 1.2957338537	-0.073275
C	 0.8044595754	 0.39517892	 2.5657153504	-0.407624
H	 0.5648713256	 2.1256087673	 0.1268657048	 0.122158
H	-0.7322714489	 1.7730591744	-1.0184331264	 0.115509
H	-1.0607653138	 1.7711580052	 0.718211243	 0.116053
H	-0.9071910164	-0.5627029948	-0.1596960843	 0.065199
H	 1.0381527295	-1.4699612554	-1.2203779932	 0.090403
H	 1.9215918727	 1.4273030737	-1.743721015	 0.119904
H	 2.6503602216	-0.0211639973	-2.4362748923	 0.13022
H	 0.9849792807	 0.4117277181	-2.8558024092	 0.111581
H	 4.6404970414	-0.4295251763	 1.8319011906	 0.303869
H	 0.5161721123	-1.4776694313	 1.5482547401	 0.093797
H	 1.1259859748	 1.4220082722	 2.3726281391	 0.118832
H	-0.2010050769	 0.4306482921	 2.9994139441	 0.109209
H	 1.4860754393	-0.0287903417	 3.3058101774	 0.136625
45.2901	152.864	169.6915	199.1238	224.756	235.3127	240.9387	275.7359	284.6775	339.0085	383.8714	450.1275	497.5083	522.5244	590.4322	714.9151	750.3206	791.2572	803.2597	957.1664	976.6064	980.8643	986.4249	1035.7477	1061.0797	1085.9162	1099.4199	1169.1588	1179.3642	1185.0835	1199.0179	1269.0099	1277.7926	1332.0705	1364.9869	1370.1481	1402.0544	1406.2012	1409.1901	1417.5864	1484.636	1488.5444	1490.9128	1499.513	1504.7313	1509.6697	1779.2949	3013.0758	3017.1296	3032.1665	3039.1443	3041.3822	3060.2359	3099.6607	3100.5468	3107.0498	3110.6864	3118.0126	3133.7386	3820.4169
CC1C(C)C(=NO)C1C	C[C@H]1[C@@H](C)C(=NO)[C@H]1C	
InChI=1S/C7H13NO/c1-4-5(2)7(8-9)6(4)3/h4-6,9H,1-3H3	InChI=1S/C7H13NO/c1-4-5(2)7(8-9)6(4)3/h4-6,9H,1-3H3/t4-,5+,6-
