19
gdb 111159	4.58204	1.11573	1.01647	2.2061	77.16	-0.2389	0.0718	0.3107	1210.406	0.159916	-419.07672	-419.068555	-419.067611	-419.109763	31.36	
C	-0.1260592089	 0.5982001884	 0.5645236429	-0.21806
O	-0.0703990862	 0.6459727795	-0.8528224742	-0.282921
C	 0.529510543	-0.3685815031	-1.575810995	 0.225089
C	 1.9143145835	-1.0180600237	-1.2302399347	-0.18479
N	 1.2059385471	-1.8061193303	-0.1339409681	-0.330386
C	 0.2798274942	-1.9024391065	-1.339423015	-0.211807
C	 1.5195643936	-2.1270121296	-2.2212386743	 0.449645
N	 1.7438577585	-2.2441063155	-3.6432587939	-0.395984
C	 2.1812823017	-3.3381308771	-2.7217026112	-0.354427
H	-0.6870414889	-0.2687611685	 0.9280864484	 0.117538
H	 0.870311449	 0.5709456057	 1.0172195865	 0.1187
H	-0.6384121876	 1.5167872039	 0.8646418216	 0.111451
H	 0.4423613593	-0.0652671128	-2.6208453631	 0.099116
H	 2.8837365118	-0.5449888132	-1.0746231452	 0.088598
H	 1.683351913	-2.7052645626	-0.0135955405	 0.207412
H	-0.6586668471	-2.4586366809	-1.309062045	 0.082328
H	 0.8909476602	-2.5165586274	-4.1273879717	 0.234229
H	 3.2588658593	-3.4577899517	-2.6492988261	 0.126611
H	 1.6222451745	-4.2708575945	-2.7294761913	 0.117657
47.5231	149.7697	210.4436	249.8686	282.6552	307.5621	362.1791	416.34	511.928	599.9966	708.0119	739.733	821.0165	857.0706	875.633	899.4617	918.3291	955.9469	973.7414	982.8306	1033.3248	1061.4989	1105.6708	1120.889	1134.3734	1145.594	1175.6918	1190.4264	1191.4338	1224.2598	1239.4658	1244.4917	1255.173	1285.7694	1307.8289	1440.4092	1451.7103	1483.4896	1487.0936	1495.0598	1528.3601	3025.3144	3093.9166	3100.4168	3103.9566	3105.6807	3110.0191	3123.5272	3188.1188	3382.1402	3489.6471
COC1C2NC1C21NC1	CO[C@H]1[C@H]2N[C@@H]1[C@]12NC1	
InChI=1S/C6H10N2O/c1-9-3-4-6(2-7-6)5(3)8-4/h3-5,7-8H,2H2,1H3	InChI=1S/C6H10N2O/c1-9-3-4-6(2-7-6)5(3)8-4/h3-5,7-8H,2H2,1H3/t3-,4+,5-,6-
