21
gdb 109765	2.52753	1.1242	0.94285	3.1637	74.91	-0.2477	0.0561	0.3038	1335.2357	0.181085	-461.33451	-461.32435	-461.323406	-461.369618	37.892	
C	-0.0125823971	 1.5414050531	-0.221173867	-0.403411
C	 0.0417968395	 0.0365119235	 0.0452742877	 0.111898
O	 0.8019628786	-0.2562357052	 1.221663556	-0.433059
C	-1.3512490461	-0.5623562568	 0.0951467298	-0.079917
C	-1.8942541952	-1.346572101	-1.0768709714	 0.091863
O	-1.0624929511	-1.5631256809	-2.1759605517	-0.427115
C	-1.5777742635	-2.0657305558	 0.2141786842	-0.13355
C	-0.4305282212	-3.0585866866	 0.2101053297	-0.113988
O	-0.546122233	-4.0098048647	-0.8648581895	-0.419134
H	 0.9983878781	 1.9559386475	-0.2528658525	 0.121821
H	-0.5083970667	 1.748936094	-1.1745886244	 0.128423
H	-0.571000148	 2.0596820479	 0.5688863378	 0.100305
H	 0.5965105941	-0.4398478413	-0.7668349341	 0.106035
H	 0.3246922745	 0.1070617082	 1.9755968499	 0.274178
H	-2.0800443993	 0.0503237112	 0.6233222956	 0.075705
H	-2.9420539292	-1.1985672527	-1.3370875071	 0.085161
H	-0.8380273997	-2.5062923901	-2.1662901502	 0.297069
H	-2.4334944776	-2.3651710865	 0.8147286097	 0.081293
H	 0.5297370511	-2.5689067121	 0.0565014678	 0.146641
H	-0.3732638397	-3.580773783	 1.1738028674	 0.102379
H	-1.3735474785	-4.4882088088	-0.7458800478	 0.287405
60.0466	93.8366	133.3035	184.6059	224.9797	244.2145	273.8265	291.4225	314.7806	375.9888	413.6521	449.9064	564.6731	597.0321	628.3983	662.2735	790.8903	795.8436	853.0864	913.3217	954.7219	990.1935	1015.0935	1033.9742	1050.4278	1075.8106	1101.4787	1123.0619	1136.5679	1185.8385	1226.6661	1252.8562	1275.2197	1331.7255	1352.7995	1377.1584	1400.8803	1402.1413	1408.483	1419.9636	1427.3512	1439.542	1491.0756	1494.39	1505.1209	3023.7336	3024.2067	3081.2057	3096.6508	3100.6357	3115.1265	3122.1122	3130.3709	3150.7829	3692.5269	3800.5204	3810.5837
CC(O)C1C(O)C1CO	C[C@@H](O)[C@H]1[C@@H](O)[C@H]1CO	
InChI=1S/C6H12O3/c1-3(8)5-4(2-7)6(5)9/h3-9H,2H2,1H3	InChI=1S/C6H12O3/c1-3(8)5-4(2-7)6(5)9/h3-9H,2H2,1H3/t3-,4+,5-,6+/m1/s1
