17
gdb 126807	1.99705	1.81507	1.02206	1.7679	84.98	-0.2294	-0.0176	0.2118	1162.3177	0.136419	-380.869139	-380.860553	-380.859609	-380.903095	31.65	
C	-0.0646148998	 1.5552221895	-0.0454610377	-0.378715
C	 0.0920101778	 0.0343928382	-0.0156218305	-0.145855
N	 0.7740412182	-0.4777801974	-1.1952875152	-0.046599
N	 0.0960865817	-0.6360139714	-2.3408431508	-0.248346
C	 0.9990144649	-1.0546193511	-3.2291448039	-0.006169
C	 2.2757007484	-1.1650126558	-2.6600782568	-0.335385
C	 2.1034714772	-0.7803324227	-1.3349844966	 0.263762
C	 3.0267742682	-0.6878851153	-0.2730501072	 0.263673
C	 3.8148754066	-0.6063041568	 0.6346558119	-0.458432
H	 0.9119054833	 2.047749607	-0.0552438716	 0.131811
H	-0.6194222695	 1.8620083679	-0.9356413266	 0.144135
H	-0.6116284621	 1.8924822917	 0.8401547161	 0.120571
H	 0.6698291453	-0.2824211829	 0.8557326804	 0.133476
H	-0.8845573874	-0.4542300605	 0.0218822075	 0.134907
H	 0.6931394781	-1.2665551853	-4.2429170019	 0.115311
H	 3.1972111432	-1.4812136171	-3.1196555989	 0.114514
H	 4.5153782559	-0.5384127979	 1.4298847516	 0.197342
36.6364	128.3594	149.4645	171.2451	229.8782	357.7931	374.2978	471.9028	537.736	558.1831	590.4655	669.1084	677.724	697.9624	707.7139	796.4714	805.3129	890.1581	942.4153	976.1808	1059.7822	1076.8433	1102.5078	1176.8984	1233.5917	1273.1622	1341.4769	1360.5949	1393.9918	1409.9057	1431.4127	1472.1968	1481.7034	1490.8261	1505.7546	1549.2054	2229.6723	3045.7928	3073.6486	3114.3138	3121.8725	3139.0259	3247.5117	3279.0821	3501.2021
CCN1N=CC=C1C#C	CCn1nccc1C#C	
InChI=1S/C7H8N2/c1-3-7-5-6-8-9(7)4-2/h1,5-6H,4H2,2H3	InChI=1S/C7H8N2/c1-3-7-5-6-8-9(7)4-2/h1,5-6H,4H2,2H3
