21
gdb 38362	2.38794	1.93172	1.36655	1.3775	83.36	-0.2346	-0.0054	0.2292	1012.1774	0.185183	-387.037934	-387.030532	-387.029588	-387.069207	31.16	
C	-0.1450503099	 1.5032945166	-0.0919622067	-0.264123
C	 1.4047904922	 1.7423118866	 0.0225905844	 0.016539
C	 1.5291746715	 0.272032309	 0.5314825979	-0.24386
C	 0.0581826332	-0.0447105124	 0.0918633701	 0.155692
O	-0.2091657227	-1.0075306652	-0.9232151784	-0.287633
C	 0.1821578107	-0.8577396413	-2.310661559	-0.09382
C	 1.4777479787	-0.1155696526	-2.3577733068	-0.096533
C	 1.4251095457	 1.2184667646	-2.3231664833	-0.048782
C	 2.1701104517	 2.0337113703	-1.3158021103	-0.267689
H	-0.6676445821	 1.9071210107	 0.780365258	 0.097053
H	-0.6708424187	 1.8531483509	-0.9798294185	 0.100947
H	 1.684212238	 2.4976550275	 0.7633876454	 0.066602
H	 2.3205976966	-0.3491279915	 0.1109680778	 0.098784
H	 1.6197379419	 0.2341185802	 1.6217145791	 0.095468
H	-0.542609501	-0.4396353826	 0.9150032096	 0.085837
H	 0.2166976622	-1.88529812	-2.6850723044	 0.104503
H	-0.5958719961	-0.3119809545	-2.8628924799	 0.093887
H	 2.3531898226	-0.6432684189	-1.9863755072	 0.090502
H	 0.5199147439	 1.6861388273	-2.7070823662	 0.091816
H	 2.15637512	 3.1054440859	-1.539624765	 0.097257
H	 3.2144870517	 1.7246820593	-1.1971168067	 0.107553
141.3581	269.2195	276.8402	344.5394	350.2926	359.0704	429.0143	476.7484	525.5985	622.5749	697.0476	743.2639	768.0993	837.89	869.2034	879.8714	921.4279	932.6064	959.2125	985.6284	1010.2206	1043.1412	1054.5051	1070.4556	1083.5932	1109.8218	1134.6955	1172.9261	1197.8643	1209.5154	1244.4679	1257.431	1262.2561	1283.2378	1290.5898	1323.6719	1346.1384	1368.8605	1389.0123	1414.5548	1464.4726	1485.7896	1489.9651	1508.5868	1700.8014	3001.3319	3035.2169	3047.0566	3056.8415	3061.0909	3075.7521	3077.6125	3082.9	3123.4704	3124.1665	3139.3921	3155.0675
C1C2CC1OCC=CC2	C1[C@H]2C[C@@H]1OC[CH][CH]C2	
InChI=1S/C8H12O/c1-2-4-9-8-5-7(3-1)6-8/h1-2,7-8H,3-6H2/b2-1-	InChI=1S/C8H12O/c1-2-4-9-8-5-7(3-1)6-8/h1-2,7-8H,3-6H2/t7-,8+
