16
gdb 76082	2.25708	1.41033	1.18933	7.1449	71.44	-0.2371	-0.0017	0.2354	1103.2309	0.124791	-434.092647	-434.08358	-434.082636	-434.126527	33.208	
N	 0.1432397491	 1.383919794	-0.1037223397	-0.508316
C	-0.0427033022	-0.0192612502	 0.0479065303	 0.01666
C	-0.4249734067	-0.6044479757	 1.3809770046	-0.213142
C	-0.6923669873	 0.2294145856	 2.5210456622	 0.321964
N	-0.8560262522	 0.8569501209	 3.4781428806	-0.340901
C	-1.4129798025	-0.710113161	 0.2046208502	-0.193229
C	-2.6417698671	 0.136842521	 0.1931634208	 0.439251
N	-3.7420747846	-0.4512390109	-0.3632178547	-0.537336
O	-2.6595318918	 1.287984428	 0.6008223016	-0.372641
H	 0.1529923217	 1.6269230833	-1.0891337772	 0.236497
H	-0.6334416393	 1.8852902958	 0.3228798688	 0.273007
H	 0.6866949804	-0.6063144422	-0.5020869849	 0.116845
H	 0.0526236308	-1.5407101525	 1.6517817985	 0.14049
H	-1.509174267	-1.7085651176	-0.2103250587	 0.092255
H	-3.7851857283	-1.4405581331	-0.5350018966	 0.261222
H	-4.609064723	 0.0599686447	-0.314477326	 0.267373
67.1151	118.3131	134.2474	218.4532	257.9306	267.72	311.0992	360.1634	407.0323	446.676	516.2485	590.0734	626.1412	694.0834	728.7589	781.9845	802.7666	841.9892	910.8913	959.5566	1005.5418	1043.3719	1104.912	1108.542	1136.5548	1231.6022	1276.2574	1291.4149	1365.7139	1438.187	1458.2191	1618.2734	1675.6261	1767.3656	2360.232	3151.0214	3155.3689	3167.7299	3482.4253	3566.9205	3598.3286	3732.1646
NC1C(C#N)C1C(N)=O	N[C@H]1[C@@H](C#N)[C@H]1C(=O)N	
InChI=1S/C5H7N3O/c6-1-2-3(4(2)7)5(8)9/h2-4H,7H2,(H2,8,9)	InChI=1S/C5H7N3O/c6-1-2-3(4(2)7)5(8)9/h2-4H,7H2,(H2,8,9)/t2-,3+,4-/m0/s1
