25
gdb 117672	2.73819	0.90689	0.82274	1.6598	89.03	-0.2604	0.0793	0.3398	1580.8899	0.226522	-389.480188	-389.469197	-389.468253	-389.516343	40.761	
C	-0.2351703645	 1.6168148639	 0.148812727	-0.377598
C	-0.0159177549	 0.1031897994	 0.0497833168	-0.194242
C	-1.3400328973	-0.6710333356	 0.0344381138	-0.169772
C	-1.2617542412	-2.217867845	-0.0885689159	 0.219553
C	-0.5748366064	-2.6401608029	-1.401277415	-0.418574
C	-0.5267905167	-2.8287502796	 1.1155491916	-0.436038
C	-2.7089596431	-2.7040195472	-0.1567126913	 0.094136
C	-3.225742476	-3.9454057713	 0.4336227361	-0.196424
O	-3.4888897997	-2.6763015165	 1.040834343	-0.249524
H	 0.7165753559	 2.1572729249	 0.1599593895	 0.109572
H	-0.8200157676	 1.9889703111	-0.6997872605	 0.11309
H	-0.7787822411	 1.8791666203	 1.0631227569	 0.116159
H	 0.5609560614	-0.1159931844	-0.8567842204	 0.096164
H	 0.6034604107	-0.222581206	 0.8935431072	 0.099313
H	-1.9023644614	-0.4354033018	 0.9471651448	 0.108754
H	-1.9500022727	-0.2943721452	-0.7992392489	 0.084848
H	 0.4787734704	-2.3475556189	-1.4121524989	 0.11849
H	-0.617396974	-3.7270822388	-1.529150473	 0.11205
H	-1.0579086119	-2.1805472481	-2.2710408431	 0.109771
H	-1.0834239487	-2.6507776815	 2.0399970013	 0.131048
H	-0.3955752795	-3.9088069678	 0.9954478171	 0.107826
H	 0.4709480988	-2.3963383828	 1.2248563925	 0.114057
H	-3.2490488658	-2.319554341	-1.0264578158	 0.082957
H	-4.0893531393	-4.43408163	-0.0163803357	 0.110938
H	-2.5695756651	-4.6021554154	 0.999849911	 0.113449
57.5715	73.4205	110.5055	152.8519	214.143	246.9246	248.9394	256.5537	308.958	313.8672	329.1023	370.4039	392.6277	511.4838	562.0879	726.829	744.8487	824.8154	863.6496	869.3549	919.0918	940.7918	950.1844	964.4954	1011.7065	1024.6793	1052.5064	1078.929	1099.8212	1115.2048	1157.4326	1180.3139	1207.7893	1231.0466	1255.6749	1287.1699	1310.8591	1329.4246	1352.3863	1393.7207	1396.1527	1406.8791	1413.1959	1440.3323	1480.7437	1486.3352	1493.5732	1496.2122	1500.6955	1504.444	1511.7608	1518.5818	1532.3327	3002.6973	3027.6444	3029.19	3030.942	3041.9572	3042.9911	3065.5456	3068.3548	3089.8295	3093.3491	3098.1904	3101.25	3106.3956	3109.6516	3122.5673	3177.6444
CCCC(C)(C)C1CO1	CCCC(C)(C)[C@H]1CO1	
InChI=1S/C8H16O/c1-4-5-8(2,3)7-6-9-7/h7H,4-6H2,1-3H3	InChI=1S/C8H16O/c1-4-5-8(2,3)7-6-9-7/h7H,4-6H2,1-3H3/t7-/m1/s1
