14
gdb 57751	3.44954	0.69608	0.61541	4.3647	76.64	-0.2988	-0.1114	0.1874	1733.4374	0.097832	-436.664722	-436.654942	-436.653998	-436.701482	32.782	
C	 0.0343640509	 1.5306041413	 0.6320059942	-0.397768
C	-0.092478115	 0.1920044941	-0.1132979571	-0.03379
O	 0.8948779787	-0.7462335466	 0.2804105921	-0.400202
C	-1.4473995628	-0.3542025462	 0.0255636083	 0.087057
C	-2.5542366636	-0.8126661575	 0.1847564641	 0.032093
C	-3.8666271031	-1.3580750077	 0.3652148897	 0.201657
O	-4.1395832882	-2.2985659514	 1.0753061636	-0.248606
C	-4.9161560752	-0.6627582876	-0.4050786192	 0.226238
N	-5.7435649017	-0.1206095999	-1.0036797561	-0.314803
H	 1.0511415675	 1.9087383632	 0.5032628658	 0.142217
H	-0.6751685339	 2.2655925978	 0.2424976358	 0.140877
H	-0.1615597965	 1.396804229	 1.7004667241	 0.129593
H	 0.0941808398	 0.3631271172	-1.1804345466	 0.142834
H	 0.7455841031	-0.9690040258	 1.2066982514	 0.292602
18.9519	63.0867	93.2457	149.4029	225.9104	237.9057	269.7695	306.1935	319.2974	373.1685	476.9389	547.7583	579.5318	610.5129	697.8246	772.3086	855.8195	937.4632	1037.709	1078.0239	1119.8162	1210.2008	1288.8581	1320.3436	1400.	1415.2375	1487.2462	1490.6949	1745.9827	2322.226	2341.0265	3043.281	3047.9823	3121.8611	3137.4067	3800.4076
CC(O)C#CC(=O)C#N	C[C@@H](O)C#CC(=O)C#N	
InChI=1S/C6H5NO2/c1-5(8)2-3-6(9)4-7/h5,8H,1H3	InChI=1S/C6H5NO2/c1-5(8)2-3-6(9)4-7/h5,8H,1H3/t5-/m1/s1
