23
gdb 91737	3.01184	1.34021	1.25825	1.4356	83.71	-0.2476	0.0801	0.3277	1160.4199	0.208471	-388.318341	-388.31007	-388.309126	-388.350821	33.539	
C	-0.3403616418	 1.5372696456	-0.009582804	-0.420393
C	 0.0160456878	 0.052329794	-0.0026457156	 0.05631
C	 0.8044931196	-0.4589363095	-1.2506424648	-0.259954
C	 1.9498017099	-1.2537059533	-0.5823701499	 0.080898
O	 1.3444146202	-1.7356505688	 0.6294258072	-0.268012
C	 0.9430022494	-0.4517730117	 1.1328297155	 0.061327
C	 2.2805030932	 0.3181530609	 1.1796686603	-0.245102
C	 3.035259137	-0.2843199842	-0.0499931485	 0.047984
C	 4.321792344	-1.0116002217	 0.3430742326	-0.415677
H	 0.5370213576	 2.17156336	-0.1730004162	 0.115859
H	-1.0536890525	 1.7588182117	-0.8101621597	 0.117159
H	-0.8031129703	 1.8426062341	 0.9357791105	 0.113032
H	-0.9116031627	-0.5233100538	 0.0827511742	 0.078207
H	 0.1876805962	-1.1032359784	-1.8814735469	 0.099876
H	 1.1790517253	 0.3599083151	-1.8729426702	 0.093007
H	 2.3331322803	-2.0980950051	-1.1574111648	 0.068892
H	 0.4480667851	-0.57634538	 2.0972327149	 0.069656
H	 2.1608229409	 1.4023283929	 1.1249140426	 0.097793
H	 2.8119497231	 0.0914413618	 2.108129113	 0.099996
H	 3.2631844386	 0.486776378	-0.7932762968	 0.063777
H	 4.0948447123	-1.8323735527	 1.0311061377	 0.128716
H	 4.8294511499	-1.4307954384	-0.5327205966	 0.107248
H	 5.0221362171	-0.3344072767	 0.8436234054	 0.109402
83.2053	188.8856	237.7024	254.6248	265.5307	326.3275	365.3126	425.4161	478.8799	538.2253	629.9594	736.0818	763.3862	802.606	818.1757	866.857	902.8763	933.6079	940.7685	958.5945	973.2586	993.3809	1007.758	1048.8519	1061.5402	1076.1334	1103.4425	1133.075	1150.3801	1191.5777	1211.5651	1237.3437	1261.013	1279.9072	1295.4448	1303.1942	1323.7127	1343.9408	1349.396	1374.0995	1382.2269	1403.718	1416.4739	1489.458	1493.6451	1495.6164	1498.319	1504.8782	1510.5346	3027.2063	3028.025	3041.1224	3045.7065	3054.8586	3062.7879	3092.0665	3092.7488	3096.7333	3100.0329	3105.0349	3106.6559	3110.6895	3113.704
CC1CC2OC1CC2C	C[C@H]1C[C@@H]2O[C@H]1C[C@H]2C	
InChI=1S/C8H14O/c1-5-3-8-6(2)4-7(5)9-8/h5-8H,3-4H2,1-2H3	InChI=1S/C8H14O/c1-5-3-8-6(2)4-7(5)9-8/h5-8H,3-4H2,1-2H3/t5-,6+,7-,8-/m0/s1
