15
gdb 21286	7.12059	1.28418	1.09768	2.7069	64.62	-0.2005	0.0451	0.2456	1042.9073	0.120232	-395.989218	-395.981246	-395.980302	-396.021368	28.768	
C	-0.0843139602	 1.3963164417	-0.0134648471	-0.230344
O	-0.0175294571	-0.0253135707	-0.023858561	-0.269186
C	-1.2010227542	-0.6616628633	 0.0211567581	 0.479429
N	-2.3595597043	-0.0265035209	 0.0554406118	-0.336784
N	-3.2773184115	-1.0487458703	 0.0607968169	-0.279216
C	-2.6976509145	-2.2745695915	 0.059063552	 0.427981
N	-3.4654757846	-3.4359356009	 0.1563990425	-0.605396
C	-1.3327034124	-2.0735076297	 0.0172258778	-0.435282
H	 0.9482686273	 1.7463644994	-0.0568579451	 0.121509
H	-0.6474106225	 1.7699657751	-0.875271049	 0.129579
H	-0.5687007274	 1.7610026083	 0.8987021108	 0.129216
H	-4.2373602433	-0.8337907216	 0.264266904	 0.264466
H	-4.2449617537	-3.4562498596	-0.4905516422	 0.250194
H	-2.9053560974	-4.268001174	 0.0298895359	 0.256785
H	-0.5521966542	-2.8130087122	-0.0379290156	 0.09705
95.8913	170.7623	181.7303	220.5038	236.3498	291.464	359.4583	437.0858	499.2195	648.6571	662.9455	709.2571	735.8843	760.4154	782.6197	982.9507	1044.525	1067.9578	1109.1206	1157.1937	1181.8732	1201.147	1236.1216	1333.3227	1446.1037	1452.4531	1477.2939	1502.7058	1540.2895	1576.8643	1621.6588	1663.0002	3029.3455	3093.5368	3139.0365	3275.8354	3533.9244	3631.2949	3685.8289
COC1=NNC(N)=C1	COc1n[nH]c(N)c1	
InChI=1S/C4H7N3O/c1-8-4-2-3(5)6-7-4/h2H,1H3,(H3,5,6,7)	InChI=1S/C4H7N3O/c1-8-4-2-3(5)6-7-4/h2H,1H3,(H3,5,6,7)
