23
gdb 94215	3.0258	1.03138	0.95031	0.7055	91.25	-0.2557	0.0518	0.3074	1379.3505	0.203515	-351.123064	-351.112895	-351.111951	-351.157717	39.037	
C	-0.1276200046	 1.5499100602	-0.1607831674	-0.417945
C	 0.0511115694	 0.0481896027	 0.0098390067	 0.015397
C	 1.0588279813	-0.7090270337	-0.8960654164	-0.242406
C	 1.4269725369	-1.6064416489	 0.3138518338	-0.248672
C	 0.7910503663	-0.5457784624	 1.2648756506	 0.328037
C	 1.8421467006	 0.3887986044	 1.8661648634	-0.448854
C	-0.1484517905	-1.0936141035	 2.3585939807	-0.428258
C	 0.5287260104	-1.9030999441	 3.3661206672	 0.314153
C	 1.1064987059	-2.5748855593	 4.1792448397	-0.454143
H	 0.8274004312	 2.0818606396	-0.106535859	 0.115228
H	-0.574146155	 1.7739745812	-1.1361732576	 0.114414
H	-0.7886830635	 1.970165766	 0.6059052948	 0.112222
H	-0.9295377982	-0.4381600318	-0.0678174086	 0.064075
H	 0.6608830832	-1.1992014813	-1.7879086194	 0.093931
H	 1.8910374071	-0.0673386393	-1.2023521983	 0.098711
H	 0.8655953426	-2.5453545882	 0.3169459292	 0.098202
H	 2.4833954352	-1.8370836421	 0.4714391326	 0.097351
H	 2.5368559944	 0.7582451612	 1.105567002	 0.111746
H	 1.3788353946	 1.2584185364	 2.3457324338	 0.110024
H	 2.4271078536	-0.1405561705	 2.6243937613	 0.129466
H	-0.6627198696	-0.2555976909	 2.8499646762	 0.12366
H	-0.9330105283	-1.6978965213	 1.8848802578	 0.121121
H	 1.606578807	-3.1684056247	 4.9036453871	 0.19254
61.3513	118.4323	131.1435	208.0781	239.8245	251.3617	278.6788	328.9109	344.9165	359.1548	393.5139	444.0914	519.5323	614.3757	621.1811	636.6808	724.6243	786.5525	871.1418	893.1945	910.0207	919.2876	942.7207	967.0139	969.0179	996.2033	1066.3045	1104.5811	1146.2957	1163.597	1177.1234	1211.7713	1238.9667	1260.0551	1266.8425	1299.361	1315.0303	1336.0199	1377.3103	1408.4087	1412.5477	1464.2159	1482.4958	1490.8932	1491.419	1502.6781	1504.9896	1507.0719	2232.8558	3005.5532	3018.3268	3026.3703	3032.1581	3040.5623	3051.5935	3055.8106	3086.5846	3096.2069	3097.5665	3101.3937	3108.8167	3113.2598	3506.7888
CC1CCC1(C)CC#C	C[C@H]1CC[C@]1(C)CC#C	
InChI=1S/C9H14/c1-4-6-9(3)7-5-8(9)2/h1,8H,5-7H2,2-3H3	InChI=1S/C9H14/c1-4-6-9(3)7-5-8(9)2/h1,8H,5-7H2,2-3H3/t8-,9-/m0/s1
