19
gdb 8389	5.01832	1.25662	1.15791	2.368	73.14	-0.2133	0.0842	0.2975	1110.5445	0.163754	-365.01806	-365.009635	-365.008691	-365.050797	31.155	
C	-0.0362895948	 1.5397453221	-0.073502109	-0.41805
C	-0.0420833287	 0.0395559046	 0.0664891256	-0.021853
O	 1.2210802255	-0.6351411305	-0.1013599204	-0.288541
C	 0.6088127755	-0.6533406313	 1.1749461161	 0.416033
C	 1.2913109641	-0.1395183544	 2.4448277563	-0.249607
N	 1.1885847324	-1.5075983644	 3.0018095216	-0.0714
C	 0.7593030165	-1.6577536956	 4.3726968661	-0.319471
C	 0.2671191745	-1.9406755235	 1.9266245012	-0.251737
H	 0.8060666218	 1.9792665455	 0.4669944505	 0.128629
H	 0.0439006754	 1.8287007609	-1.1264927104	 0.131324
H	-0.9657787026	 1.9645884666	 0.3213250775	 0.121737
H	-0.8728177249	-0.4714617798	-0.4252171018	 0.088246
H	 2.3149002517	 0.2347156211	 2.3370358993	 0.114842
H	 0.6861102864	 0.609870634	 2.9824813388	 0.086219
H	-0.2120133057	-1.1683762922	 4.5849470967	 0.086373
H	 0.6622213543	-2.7207197972	 4.6173657236	 0.122501
H	 1.5082110102	-1.228000198	 5.0462169521	 0.122252
H	-0.7903081102	-1.9884772365	 2.2358327699	 0.086686
H	 0.5424059186	-2.8811896115	 1.4373114963	 0.115815
74.5232	165.2092	181.3864	207.9419	233.0855	299.3293	318.9295	399.5767	449.5245	461.9606	545.6499	736.6414	772.2042	895.336	923.2453	942.051	973.144	995.1369	1036.4247	1087.0971	1117.274	1125.2053	1137.6506	1157.8953	1184.1186	1198.6557	1220.1004	1230.7076	1300.3416	1320.1741	1367.4674	1410.0804	1452.4215	1476.3771	1485.7755	1488.6309	1491.401	1498.0288	1515.1903	1542.1306	2911.9472	2958.3011	2968.245	3036.2746	3056.1252	3061.1402	3062.3007	3083.3498	3098.8762	3100.5668	3124.5061
CC1OC11CN(C)C1	C[C@H]1OC21CN(C)C2	
InChI=1S/C6H11NO/c1-5-6(8-5)3-7(2)4-6/h5H,3-4H2,1-2H3	InChI=1S/C6H11NO/c1-5-6(8-5)3-7(2)4-6/h5H,3-4H2,1-2H3/t5-/m1/s1
