18
gdb 121190	2.39111	1.23963	0.90607	4.3799	72.85	-0.2752	-0.0029	0.2723	1309.0769	0.146151	-439.064588	-439.055215	-439.054271	-439.100062	32.552	
C	 0.165593294	 1.5112311552	-0.0523408561	-0.388996
C	 0.4230042023	 0.0166576884	-0.0123449414	-0.055688
O	 0.210715601	-0.5065067466	-1.3230504511	-0.237184
C	 0.4087388433	-1.871138884	-1.4343556744	 0.088381
C	 0.1253571633	-2.4232196854	-2.8383310285	-0.108189
O	 1.4387933127	-3.0319936625	-2.9133106919	-0.269785
C	 1.8664628022	-2.4112412722	-1.6897479218	-0.068658
C	 2.8857382235	-1.3782397755	-1.8904279059	 0.301126
N	 3.6910300751	-0.5602158243	-2.0246716018	-0.325575
H	 0.8547195687	 1.9961055105	-0.748538042	 0.144436
H	-0.8582943559	 1.7171119116	-0.3766033594	 0.128876
H	 0.3109047011	 1.945513175	 0.9409323745	 0.121439
H	 1.453662705	-0.1884110201	 0.3107974673	 0.108778
H	-0.2563831001	-0.4859849057	 0.6944440565	 0.094876
H	-0.0807904014	-2.4248135852	-0.6217780055	 0.089778
H	-0.672414663	-3.1650324932	-2.9342698679	 0.118976
H	-0.0034844391	-1.628444332	-3.5810110977	 0.131322
H	 2.2410634074	-3.1499055138	-0.9721760429	 0.126087
45.8306	64.9833	104.2018	150.7044	187.0891	236.3389	252.7354	341.5615	401.7907	436.4185	554.1781	630.0679	765.9107	814.5096	824.1265	897.8604	923.2248	987.0199	1023.6577	1038.1629	1069.2925	1089.0422	1151.3075	1162.5873	1185.5041	1190.0323	1240.5042	1275.6701	1301.765	1338.0409	1348.2965	1379.6828	1406.6625	1447.3216	1483.5093	1498.2761	1515.0593	1523.495	2354.2314	2977.8205	3012.5381	3022.0198	3042.8619	3049.1505	3050.7162	3102.9013	3123.7973	3130.2874
CCOC1COC1C#N	CCO[C@H]1CO[C@H]1C#N	
InChI=1S/C6H9NO2/c1-2-8-6-4-9-5(6)3-7/h5-6H,2,4H2,1H3	InChI=1S/C6H9NO2/c1-2-8-6-4-9-5(6)3-7/h5-6H,2,4H2,1H3/t5-,6-/m0/s1
