19
gdb 47015	3.42135	1.31479	1.00397	4.1205	84.46	-0.2301	-0.0411	0.189	1179.9375	0.161304	-385.920515	-385.912971	-385.912027	-385.952549	29.989	
O	 0.039366477	-0.0643528723	 0.1677786523	-0.338162
C	-0.0006446079	 1.1493181472	 0.1148694215	 0.399935
C	-1.3445071811	 1.8970953839	 0.0985431164	-0.314538
C	-1.2935194826	 3.300172878	 0.735756547	-0.252201
C	-0.184336438	 4.0856530787	 0.0451573171	-0.035971
C	 0.6516124646	 5.2245709569	 0.7194444211	-0.254922
C	 1.9518478206	 4.5347839078	 0.1778087943	-0.321349
C	 1.1035442143	 3.3016557073	-0.0280306556	 0.382352
C	 1.2251223045	 1.9760868388	 0.0705799136	-0.370717
H	-1.6480970588	 1.9863943156	-0.95474534	 0.12078
H	-2.080080224	 1.2492800241	 0.5817899897	 0.121923
H	-2.2671719148	 3.7957104492	 0.6588723328	 0.100929
H	-1.0604459035	 3.2077115994	 1.8039740927	 0.104473
H	-0.5072978231	 4.405681945	-0.955038284	 0.090052
H	 0.4575070877	 6.2485211325	 0.395343863	 0.10681
H	 0.5951737663	 5.1735162663	 1.8096222812	 0.114665
H	 2.2798809351	 4.9808656246	-0.767563473	 0.123952
H	 2.8161613459	 4.4494914027	 0.8406461127	 0.121732
H	 2.1754782477	 1.4592572343	 0.1637969973	 0.100258
90.1088	182.4633	199.7995	312.4163	335.7159	428.4033	448.3047	502.5094	545.0054	655.4374	694.9382	750.1825	761.6669	822.5334	882.8608	903.6436	915.5712	950.4771	978.6121	990.9083	1063.4903	1080.4638	1095.3188	1107.4901	1180.8068	1193.6659	1197.9273	1233.7843	1243.1961	1262.0449	1272.358	1305.9903	1331.5946	1350.4184	1369.6138	1460.324	1464.7357	1487.1858	1496.2844	1724.9964	1771.6921	3009.6917	3013.2756	3029.4678	3047.2201	3068.88	3074.8042	3102.0549	3104.7108	3129.5337	3179.8468
O=C1CCC2CCC2=C1	O=C1CC[C@H]2CCC2=C1	
InChI=1S/C8H10O/c9-8-4-3-6-1-2-7(6)5-8/h5-6H,1-4H2	InChI=1S/C8H10O/c9-8-4-3-6-1-2-7(6)5-8/h5-6H,1-4H2/t6-/m1/s1
