19
gdb 108991	3.18196	1.17515	1.10569	2.5927	82.51	-0.2346	0.0067	0.2413	1204.5031	0.159469	-385.888646	-385.880443	-385.879499	-385.921791	31.482	
C	-0.2839214275	 1.473157475	-0.0460391225	-0.372666
C	 0.1554602317	-0.0014993312	-0.0322675524	-0.320539
C	 0.8339694456	-0.4320322975	-1.290885698	 0.351606
C	 2.0706414551	-0.930453873	-1.4981659622	-0.206769
C	 2.0950252142	-1.3220631486	-2.9666813036	-0.178261
C	 1.3352650275	-0.120980539	-3.6105623312	-0.221208
C	 0.1697181209	-0.5414586765	-2.6625504628	-0.232117
C	 0.670035296	-2.0134340561	-2.9754471508	 0.423532
O	 0.2014140088	-3.0864919272	-3.1592614396	-0.306249
H	 0.5780030414	 2.1361211882	-0.1689814196	 0.121418
H	-0.9789702995	 1.6732299522	-0.8677309555	 0.120529
H	-0.7866794257	 1.736832609	 0.8893461125	 0.11605
H	 0.8275473321	-0.1799158932	 0.8149990807	 0.107273
H	-0.7282995864	-0.6331782311	 0.1353917008	 0.114969
H	 2.8398889278	-1.1499189149	-0.7705364176	 0.105282
H	 2.9866718589	-1.7708339818	-3.3976016561	 0.083065
H	 1.7665321965	 0.8639420612	-3.414160294	 0.104731
H	 1.1095078924	-0.2603174754	-4.6726686027	 0.108237
H	-0.86017895	-0.2165210403	-2.7940783153	 0.081117
67.238	102.0661	172.264	209.8289	287.9368	369.6379	415.3379	485.7643	561.5236	581.2333	665.8177	749.2355	793.1341	797.7228	816.6068	837.2101	878.1715	946.3234	957.0776	962.0454	1003.4797	1032.5384	1050.4667	1075.9432	1085.8542	1121.6384	1165.1736	1179.8291	1223.9018	1236.7189	1252.1167	1277.127	1335.4662	1352.1597	1408.3384	1473.1363	1480.5348	1497.707	1504.9195	1647.1389	1914.0541	3009.3925	3037.3993	3048.3244	3059.402	3108.9394	3111.7414	3121.4327	3147.9817	3154.3281	3225.4289
CCC1=CC2CC1C2=O	CCC1=C[C@@H]2C[C@H]1C2=O	
InChI=1S/C8H10O/c1-2-5-3-6-4-7(5)8(6)9/h3,6-7H,2,4H2,1H3	InChI=1S/C8H10O/c1-2-5-3-6-4-7(5)8(6)9/h3,6-7H,2,4H2,1H3/t6-,7-/m1/s1
