23
gdb 89564	4.1483	1.01188	0.96447	0.1499	90.55	-0.2335	0.0305	0.264	1353.0185	0.206708	-351.164949	-351.15631	-351.155366	-351.198258	34.354	
C	-0.01051771	 1.5994872634	-0.0003585114	-0.409418
C	 0.0526371228	 0.0804743886	 0.0286862428	 0.064849
C	 1.0686301914	-0.6469978976	-0.8947075006	-0.279085
C	 1.3638953016	-1.6525668029	 0.2631476799	 0.374196
C	 0.7279803068	-0.6239623294	 1.2387880933	-0.301198
C	 0.5835368104	-2.9862163107	 0.0990090265	-0.313245
C	 1.6501560688	-3.9648241426	-0.3301570422	-0.062917
C	 2.8745097512	-3.4790273665	-0.1322849938	-0.058394
C	 2.8334189383	-2.0904468253	 0.4586781224	-0.342289
H	 0.9833993882	 2.0355739009	 0.1542152865	 0.108362
H	-0.3879840263	 1.9656002431	-0.9620241802	 0.111873
H	-0.6695717134	 1.9878067816	 0.7846211046	 0.11171
H	-0.9503212018	-0.3336285344	-0.1246176696	 0.069093
H	 0.7043978123	-1.058304537	-1.840539391	 0.09265
H	 1.9366088583	-0.0111732333	-1.1033042987	 0.087758
H	 1.4895919659	 0.0184524971	 1.6958375692	 0.089645
H	 0.0832049744	-1.0143887288	 2.0320976032	 0.087959
H	 0.1306247467	-3.3056103488	 1.0500687697	 0.099736
H	-0.2418286121	-2.9031254759	-0.6185549118	 0.097868
H	 1.419515363	-4.9540042809	-0.7106533714	 0.086957
H	 3.8002448642	-4.0099053607	-0.3261343248	 0.087461
H	 3.5352663226	-1.3936398216	-0.0155184341	 0.095682
H	 3.1029233867	-2.1157886583	 1.5261043613	 0.100745
72.5873	81.9062	220.8857	258.5341	279.5481	316.1307	380.4178	410.1519	438.6274	457.1452	661.7906	697.3666	771.2201	776.3188	826.9193	865.551	892.0162	904.0618	932.3538	947.7959	953.3013	975.035	980.0298	987.7022	1054.1907	1074.5043	1081.744	1127.3669	1139.5629	1158.321	1163.984	1212.4239	1233.3375	1241.5175	1265.4655	1287.5746	1290.8929	1291.7107	1339.0665	1367.918	1377.2706	1409.8595	1470.9409	1479.614	1486.0815	1493.8551	1496.1287	1500.6442	1686.3888	2987.1545	2989.4375	3019.5008	3029.4639	3033.3005	3038.1011	3041.9721	3043.6002	3083.0763	3086.8579	3087.8531	3094.4224	3178.0181	3203.829
CC1CC2(C1)CC=CC2	C[C@H]1C[C@@]2(C1)CC=CC2	
InChI=1S/C9H14/c1-8-6-9(7-8)4-2-3-5-9/h2-3,8H,4-7H2,1H3	InChI=1S/C9H14/c1-8-6-9(7-8)4-2-3-5-9/h2-3,8H,4-7H2,1H3
