17
gdb 93306	2.08676	1.91726	1.27142	2.6826	69.61	-0.253	0.0053	0.2584	1019.6074	0.137014	-455.124497	-455.116354	-455.11541	-455.157443	30.688	
O	 0.030011834	 1.4918699346	 0.0724483093	-0.424192
C	 0.001058931	 0.0748771117	 0.0179976868	 0.014766
C	 0.5812879714	-0.5881982524	 1.2781998387	-0.119811
O	-0.537218935	-0.7982701388	 2.1608711469	-0.253459
C	-1.7034174949	-0.8507718932	 1.4432332407	 0.381876
N	-2.8417999365	-1.1046178568	 1.9208935678	-0.545323
C	-1.4067795321	-0.5057024715	 0.0146584006	 0.200274
C	-2.4584657277	-0.1040585968	-0.945407671	-0.284058
N	-1.8805195976	-1.4524829856	-1.0219508042	-0.343927
H	-0.5563569216	 1.7815809617	 0.7807463632	 0.291776
H	 0.5707700557	-0.1912798316	-0.876277003	 0.096822
H	 1.0464457273	-1.5547308091	 1.0494911646	 0.118779
H	 1.3031628087	 0.0549268293	 1.7848348837	 0.128895
H	-2.7814745414	-1.3210918562	 2.9167860354	 0.225742
H	-3.4835973327	-0.0763201563	-0.5897614771	 0.151347
H	-2.1907420818	 0.6331677093	-1.6974510779	 0.126442
H	-1.1929819567	-1.4849598781	-1.7731460446	 0.234055
61.019	146.6043	200.3623	248.4627	267.5062	287.3108	358.1376	476.1071	511.4708	557.8276	691.1017	711.3361	765.8034	863.9472	879.5391	887.7787	922.8169	950.3892	976.974	983.1228	1027.1769	1053.6277	1089.6427	1119.2647	1148.7906	1211.8114	1251.1902	1257.8021	1271.9731	1291.7323	1323.244	1375.0487	1420.1098	1435.7046	1497.8712	1506.7785	1783.1705	3034.3452	3083.9832	3115.8386	3121.4781	3213.7947	3476.4036	3481.7622	3801.8659
OC1COC(=N)C11CN1	O[C@H]1CO[C]([NH])[C@]21CN2	
InChI=1S/C5H8N2O2/c6-4-5(2-7-5)3(8)1-9-4/h3,6-8H,1-2H2	InChI=1S/C5H8N2O2/c6-4-5(2-7-5)3(8)1-9-4/h3,6-8H,1-2H2/t3-,5+/m0/s1
