16
gdb 20798	3.22304	1.80521	1.25783	4.2201	67.39	-0.2089	0.0064	0.2152	967.4921	0.132262	-376.107392	-376.099362	-376.098417	-376.140466	28.784	
C	-0.2727905968	 1.5690576734	 0.0092913442	-0.367664
C	-0.0060619214	 0.0521441419	 0.0288986988	-0.315576
C	 0.7542641084	-0.4495875112	-1.153987351	 0.295357
C	 2.090877602	-0.7416810834	-1.3507619693	 0.222197
N	 3.1429295114	-0.6977055097	-0.4277137992	-0.599362
N	 2.2703640818	-1.1847523339	-2.6255272375	-0.251693
N	 1.1188106856	-1.1895351386	-3.2444364154	-0.130294
N	 0.210554308	-0.7351437491	-2.3709376089	-0.229737
H	 0.6641622699	 2.1328869993	-0.0301404598	 0.122677
H	-0.8665838228	 1.8561766027	-0.8642878267	 0.118713
H	-0.8191575198	 1.8778934239	 0.9056548796	 0.120554
H	 0.5669350727	-0.2093740968	 0.9252808893	 0.129864
H	-0.9601325955	-0.4838080893	 0.110756722	 0.112462
H	 3.2709528979	 0.2171845777	-0.0129417825	 0.245021
H	 4.0051738657	-0.9768918473	-0.8811902736	 0.25318
H	-0.7525809672	-0.6646440896	-2.6586281	 0.274303
38.3905	139.1876	179.5589	197.4097	270.5047	298.8927	400.8322	450.6012	555.1006	636.9442	712.1379	734.3783	735.6602	786.2975	822.8593	968.475	1009.4584	1059.7345	1080.7491	1109.3171	1116.2943	1235.343	1243.728	1306.1972	1357.4942	1361.5787	1388.6663	1411.8558	1481.2973	1496.0702	1503.7616	1523.5416	1646.9619	1648.2404	3026.3949	3037.4151	3070.4806	3110.2481	3112.7237	3526.4397	3612.8444	3652.4016
CCC1=C(N)N=NN1	CCc1c(N)nn[nH]1	
InChI=1S/C4H8N4/c1-2-3-4(5)7-8-6-3/h2H2,1H3,(H3,5,6,7,8)	InChI=1S/C4H8N4/c1-2-3-4(5)7-8-6-3/h2H2,1H3,(H3,5,6,7,8)
