20
gdb 120887	4.14032	0.89706	0.83661	1.492	76.09	-0.2203	0.0675	0.2878	1415.018	0.170311	-440.222037	-440.213118	-440.212174	-440.255885	34.2	
O	 0.0500257527	 1.3531281799	-0.4633507767	-0.422979
C	 0.0392120837	 0.0226339171	 0.0087040424	-0.047632
C	-1.3936447149	-0.4799069983	 0.1886390695	-0.167425
N	-2.1132337574	-0.3209608336	-1.0721148107	-0.091056
C	-1.9449434675	-1.3661168377	-2.1320980564	-0.259357
C	-3.4674199064	-1.5220518616	-2.1980169017	 0.385799
O	-4.2055125856	-1.7320132868	-3.3414450536	-0.455724
C	-4.0056449222	-1.9229012309	-0.8623988899	-0.326845
C	-3.567607659	-0.4839026361	-1.086403168	-0.102621
H	-0.6830104766	 1.3904424263	-1.0943722774	 0.278107
H	 0.5803416921	-0.6520173031	-0.6785383884	 0.08018
H	 0.5699426104	 0.0010924631	 0.9668337603	 0.102633
H	-1.3906641251	-1.5175269704	 0.5650786295	 0.081471
H	-1.8995068975	 0.1446085744	 0.9335692792	 0.111568
H	-1.4944697507	-0.9557858943	-3.0431423705	 0.104336
H	-1.3810571786	-2.2569387951	-1.8263672464	 0.10605
H	-3.9995398308	-1.0317715147	-3.971551692	 0.287868
H	-5.0833576749	-2.053613431	-0.8550562889	 0.124746
H	-3.460651746	-2.5945573875	-0.2039281464	 0.109924
H	-4.2278858957	 0.3634530003	-0.9387343837	 0.100958
68.8369	95.6151	163.7658	184.1096	281.9377	347.8737	366.629	414.0707	426.5673	481.347	513.2903	539.4668	617.9564	696.9832	818.5777	859.7369	894.1479	926.5005	939.967	969.4551	971.3354	1014.2812	1047.7843	1072.5272	1084.3137	1095.2631	1136.2661	1158.8241	1187.7218	1209.3684	1236.6968	1259.7874	1281.3287	1304.7013	1341.1714	1376.4413	1383.1353	1430.0189	1447.3598	1479.629	1490.3301	1512.6235	1515.2048	2942.9673	2956.606	3013.5077	3060.9828	3062.0389	3070.716	3112.9839	3173.0415	3207.0137	3726.7704	3788.2283
OCCN1CC2(O)CC12	OCCN1C[C@@]2(O)C[C@@H]12	
InChI=1S/C6H11NO2/c8-2-1-7-4-6(9)3-5(6)7/h5,8-9H,1-4H2	InChI=1S/C6H11NO2/c8-2-1-7-4-6(9)3-5(6)7/h5,8-9H,1-4H2/t5-,6+/m1/s1
