25
gdb 96329	2.05598	1.42234	0.9199	1.1368	89.31	-0.2397	0.0814	0.3211	1385.0524	0.229898	-389.511233	-389.501558	-389.500614	-389.545188	37.698	
C	 0.4308168121	 1.6791138021	-0.0658182358	-0.400559
C	 0.0224936416	 0.2011160706	 0.0084162949	 0.023994
C	 0.3780370421	-0.5291984201	-1.3030024288	-0.172328
C	-0.2672053113	-1.9186432533	-1.4337020777	-0.234991
C	 0.5001536502	-3.0438284053	-0.7178495078	-0.064018
O	 1.1706411149	-2.6554070606	 0.4646193748	-0.2545
C	 0.3979336244	-1.9528923391	 1.4371072774	 0.106303
C	 0.8500692581	-2.4474420253	 2.809253276	-0.391605
C	 0.6197168258	-0.4429862571	 1.2720226521	-0.158317
H	 1.5152597839	 1.7794687552	-0.19345157	 0.113909
H	-0.0511413999	 2.1834743204	-0.9099741283	 0.107505
H	 0.155134932	 2.2161172644	 0.8480040425	 0.107829
H	-1.0738645045	 0.1638062599	 0.1034873685	 0.065005
H	 0.0350557465	 0.0946546095	-2.1372747991	 0.086967
H	 1.4684692278	-0.6068598791	-1.4031179611	 0.098884
H	-1.2973862786	-1.8641065019	-1.0602168895	 0.096201
H	-0.350331145	-2.2005836167	-2.4902335844	 0.093567
H	-0.1840134158	-3.8856371355	-0.5169845037	 0.081945
H	 1.2952629864	-3.4223550172	-1.3696053272	 0.103577
H	-0.6697269028	-2.192911578	 1.3107470791	 0.062948
H	 1.9146240757	-2.2372352443	 2.9547781706	 0.122029
H	 0.2877367457	-1.9560313916	 3.609185149	 0.108215
H	 0.7036335523	-3.5278125462	 2.891550392	 0.115578
H	 1.7061774825	-0.2802031844	 1.2844427293	 0.097035
H	 0.2156317161	 0.0756646638	 2.1512524671	 0.084826
99.7794	133.6402	178.484	219.7742	231.0447	252.2117	282.1832	337.2466	340.1376	363.1879	433.0083	481.7234	514.5475	598.1275	765.1932	819.8103	845.4514	870.8678	880.5924	923.0356	956.3888	968.9737	999.2433	1042.5676	1049.8192	1079.0548	1100.6329	1137.8763	1153.9043	1172.7056	1180.553	1227.2011	1261.6753	1277.2721	1304.6272	1318.491	1332.9323	1371.2064	1375.833	1384.3786	1392.0161	1399.0495	1408.465	1413.1052	1420.4071	1466.1237	1483.4642	1486.9355	1490.7762	1496.3311	1498.3936	1501.2875	1507.8118	2959.4436	2976.1958	2980.4807	3010.783	3018.2367	3024.0939	3026.1023	3038.9147	3048.4765	3052.8212	3060.0458	3071.3143	3090.8538	3096.3503	3111.7515	3118.0229
CC1CCCOC(C)C1	C[C@H]1CCCO[C@@H](C)C1	
InChI=1S/C8H16O/c1-7-4-3-5-9-8(2)6-7/h7-8H,3-6H2,1-2H3	InChI=1S/C8H16O/c1-7-4-3-5-9-8(2)6-7/h7-8H,3-6H2,1-2H3/t7-,8-/m0/s1
