17
gdb 97608	2.24042	0.76837	0.59737	2.8769	75.55	-0.2729	-0.0036	0.2693	1806.3255	0.132359	-458.945707	-458.935136	-458.934192	-458.98422	35.051	
C	-0.1587568636	 1.8253800412	 0.0917149208	-0.389356
C	-0.0883901973	 0.3046667825	-0.0364239154	-0.080459
O	 0.5304921866	 0.0264829218	-1.3183566942	-0.176898
C	 0.2530524308	-1.1628946656	-1.8868510473	 0.175604
O	 0.743004275	-1.5129372562	-2.9176422324	-0.270721
C	 0.6641360668	-0.3201801874	 1.0477021362	 0.121598
C	 1.281659912	-0.8245336164	 1.9508548326	 0.030593
C	 2.0375104963	-1.4821215775	 3.0180386098	-0.199354
O	 1.6195062922	-2.8131277384	 3.2744958827	-0.396941
H	 0.8472115129	 2.2501707566	 0.0769414717	 0.147103
H	-0.7315332083	 2.2394415606	-0.741451261	 0.134973
H	-0.6429085475	 2.0976179943	 1.032439198	 0.135969
H	-1.1074580753	-0.1059132928	-0.0515534986	 0.119264
H	-0.4757852931	-1.7620454029	-1.3069101024	 0.082121
H	 3.1115828589	-1.4319049603	 2.7795561422	 0.128238
H	 1.8981520911	-0.9384317195	 3.9588778121	 0.147401
H	 1.6975742724	-3.3073232999	 2.4516312051	 0.290865
18.4176	30.9918	94.8885	106.8599	155.6901	195.0792	218.9739	260.0317	290.989	346.8868	407.5866	468.3651	549.6698	572.0573	658.6331	756.642	929.0916	977.4521	1000.4965	1042.582	1052.7492	1086.7785	1111.5604	1162.3139	1209.6574	1216.5417	1338.6253	1355.1057	1365.3298	1407.0836	1415.5629	1438.8582	1483.1565	1485.643	1494.2287	1867.7398	2358.1271	2949.1544	2984.3809	3013.0658	3056.9167	3067.6091	3138.6582	3143.3108	3815.4172
CC(OC=O)C#CCO	C[C@@H](OC=O)C#CCO	
InChI=1S/C6H8O3/c1-6(9-5-8)3-2-4-7/h5-7H,4H2,1H3	InChI=1S/C6H8O3/c1-6(9-5-8)3-2-4-7/h5-7H,4H2,1H3/t6-/m1/s1
