17
gdb 48717	3.85057	1.32352	1.14694	2.6092	72.65	-0.2533	-0.0367	0.2166	1068.1487	0.136213	-421.81466	-421.807376	-421.806432	-421.846366	28.69	
O	-0.7310739279	 0.9032086796	 0.571262068	-0.260189
C	 0.2478650524	 0.9224192652	-0.1327547139	 0.097295
C	 1.3619686798	 1.8960594207	 0.0098476272	 0.295826
C	 1.474996004	 2.8162206711	 1.212907698	-0.319532
C	 2.202507222	 4.0716467339	 0.7213573215	-0.048133
C	 3.6084093686	 3.9601730202	 0.1980796255	-0.285525
C	 2.4516183438	 3.9362685991	-0.7744494547	-0.0589
C	 1.9522195396	 2.5725136628	-1.1838264629	-0.028915
O	 2.6065144379	 1.4646552497	-0.5766132704	-0.280464
H	 0.3975015814	 0.2043115291	-0.9689897389	 0.087262
H	 0.4605145867	 3.0557084684	 1.5457783915	 0.134442
H	 1.9835881838	 2.3237950903	 2.0482361471	 0.122957
H	 1.8975631137	 5.0236024317	 1.141241429	 0.094045
H	 4.214035663	 4.8595495358	 0.2180200571	 0.113591
H	 4.1525080821	 3.0350914909	 0.3444010281	 0.137363
H	 2.2994851336	 4.7547873225	-1.4669867629	 0.09213
H	 1.5931074455	 2.4005877889	-2.1953804193	 0.106747
105.3884	179.4385	221.5201	297.3664	329.0024	405.2221	499.5876	564.4073	655.2334	683.8449	737.4044	787.1052	813.3483	831.1608	877.8582	900.9542	931.9766	978.8013	1022.3211	1031.1488	1066.4966	1077.2152	1084.9733	1103.3704	1112.8548	1188.574	1216.8539	1244.7618	1271.6201	1333.546	1342.3194	1363.5577	1393.85	1424.9164	1475.0423	1482.9802	1815.9287	2897.0699	3056.0952	3099.7563	3141.3729	3148.515	3170.4652	3191.2366	3234.0016
O=CC12CC3CC3C1O2	O=C[C@]12C[C@H]3C[C@H]3[C@H]1O2	
InChI=1S/C7H8O2/c8-3-7-2-4-1-5(4)6(7)9-7/h3-6H,1-2H2	InChI=1S/C7H8O2/c8-3-7-2-4-1-5(4)6(7)9-7/h3-6H,1-2H2/t4-,5-,6-,7-/m1/s1
