13
gdb 129590	2.08742	1.89717	0.99509	5.8643	67.9	-0.2281	0.0013	0.2294	1079.5027	0.09133	-448.966676	-448.958605	-448.957661	-448.999158	29.806	
N	 0.0616549952	 1.3510065204	 0.2142687174	-0.608051
C	-0.034841352	-0.0110405579	 0.055702099	 0.352158
C	-1.1698793829	-0.8271210864	 0.0049774657	-0.022043
C	-2.5045224438	-0.3838851471	 0.006812699	 0.180033
N	-3.5870428946	 0.0336156687	 0.0076170393	-0.371861
C	-0.6348372776	-2.1462029462	-0.077208051	 0.358781
O	-1.3784984592	-3.2576215916	-0.1510400218	-0.411854
N	 0.6788578069	-2.1669183892	-0.085332867	-0.337578
N	 1.0275155885	-0.8342605545	-0.0088733314	-0.273494
H	 0.8177600361	 1.80141611	-0.2818210637	 0.26329
H	-0.8169872041	 1.8333002012	 0.082222136	 0.281702
H	-0.7733158072	-4.00899947	-0.2033430484	 0.310133
H	 1.9978279746	-0.5938464675	 0.0936757971	 0.278783
121.6526	140.8882	215.5752	256.8618	296.8792	317.4345	420.0029	431.6044	449.8782	547.4808	551.7895	611.9364	614.9843	676.4924	693.1306	763.6099	814.3153	1073.2746	1079.5352	1153.2964	1227.8453	1300.3233	1363.4112	1471.132	1572.1563	1608.424	1625.9698	1666.5449	2332.6467	3558.73	3655.8451	3686.455	3788.9273
NC1=C(C#N)C(O)=NN1	Nc1c(C#N)c(O)n[nH]1	
InChI=1S/C4H4N4O/c5-1-2-3(6)7-8-4(2)9/h(H4,6,7,8,9)	InChI=1S/C4H4N4O/c5-1-2-3(6)7-8-4(2)9/h(H4,6,7,8,9)
