13
gdb 19903	6.33317	1.46139	1.42849	4.297	59.7	-0.2452	0.0027	0.2478	854.8716	0.09421	-398.504519	-398.498188	-398.497244	-398.535212	23.754	
O	 0.0725882181	 0.0386311535	 0.3289192641	-0.296935
C	 0.0511660861	 1.1965730875	-0.0109287648	 0.138293
N	 1.1138982477	 1.8791056398	-0.5704440004	-0.030703
C	 2.4835205196	 1.7856782779	-0.1230641378	-0.08835
C	 3.405596381	 2.4235086338	-1.231310834	 0.006666
O	 2.5843253368	 2.8688074906	-2.3075593203	-0.207962
C	 2.6696297788	 3.6869411793	-1.1463632762	 0.004462
C	 1.7292167247	 3.0798342486	-0.033887659	-0.114801
H	-0.8559950387	 1.8294058214	 0.0237430218	 0.087742
H	 2.7714343868	 1.0976475243	 0.6597135788	 0.132293
H	 4.4454987415	 2.1985637541	-1.4306687549	 0.123889
H	 2.9757740011	 4.7194158706	-1.2578208109	 0.122661
H	 1.3407497264	 3.5842592685	 0.8414897535	 0.122745
98.3264	176.9031	254.8414	357.2571	444.8161	575.457	699.9137	769.7273	785.8917	800.0669	834.0384	847.1404	868.1192	911.7168	992.0243	1000.6285	1013.9977	1029.8804	1034.953	1150.1894	1202.4108	1209.9411	1251.3052	1256.8151	1366.3018	1415.4645	1417.0414	1795.5529	2955.9397	3194.36	3205.6696	3210.3855	3226.3123
O=CN1C2C3OC3C12	O=CN1[C@H]2[C@H]3O[C@H]3[C@@H]12	
InChI=1S/C5H5NO2/c7-1-6-2-3(6)5-4(2)8-5/h1-5H	InChI=1S/C5H5NO2/c7-1-6-2-3(6)5-4(2)8-5/h1-5H/t2-,3+,4-,5+,6?
