20
gdb 78420	5.08867	1.2331	1.21013	1.691	82.6	-0.219	0.0922	0.3112	1109.7498	0.173532	-365.929382	-365.922461	-365.921517	-365.960277	29.127	
C	 0.0178699193	 1.5411154329	 0.0199805396	-0.426734
C	 0.0126837337	 0.0280386348	 0.0216845981	-0.024309
C	 1.303752204	-0.7052653648	-0.2591062656	-0.066489
C	 0.7158880965	-0.7016191776	 1.142634652	-0.066472
C	 0.4329562664	-2.1810017132	 1.2995431627	 0.006501
C	-0.108080479	-2.793783316	-0.0216218302	-0.09175
C	 0.7083484201	-4.040331935	 0.3240224686	-0.188835
N	 1.6788788772	-2.9330283379	 0.7281556296	-0.163533
C	 1.2146321349	-2.1858521539	-0.5643410559	 0.006505
H	 0.9607945564	 1.9347635632	 0.4138991941	 0.117143
H	-0.1093251625	 1.9352795175	-0.9940651083	 0.119544
H	-0.7932953454	 1.9394620995	 0.6389867188	 0.119547
H	-0.9035790929	-0.4129853817	-0.3614434737	 0.086388
H	 2.1980315947	-0.1499499375	-0.5158133424	 0.089995
H	 1.1605789632	-0.1435057794	 1.9579689576	 0.089993
H	 0.0818850069	-2.5564430815	 2.2625164984	 0.069721
H	-1.1174511135	-2.7247326016	-0.4451093233	 0.061278
H	 0.3745665937	-4.6593728199	 1.1619635458	 0.095894
H	 1.0709679489	-4.6636961019	-0.4985901205	 0.095893
H	 1.6547756276	-2.5662022461	-1.4879929655	 0.06972
183.3805	207.7885	237.905	333.7266	382.8392	461.1425	483.607	701.8004	716.5963	762.2812	771.6503	816.147	831.5189	854.9234	892.8492	897.8062	929.9215	969.9888	999.8735	1010.6539	1036.2033	1051.6406	1061.3585	1073.5033	1113.6424	1114.064	1122.1563	1130.5304	1143.4992	1186.7555	1208.537	1223.0566	1250.5499	1261.487	1288.7137	1304.3151	1315.408	1357.7198	1416.0759	1436.9648	1494.5922	1501.193	1529.7142	3019.0035	3028.9131	3047.3394	3093.1376	3096.3834	3099.6187	3104.5585	3105.3123	3141.5692	3179.4187	3188.2744
CC1C2C1C1C3CN1C23	C[C@H]1[C@H]2[C@@H]1[C@H]1[C@@H]3CN1[C@H]23	
InChI=1S/C8H11N/c1-3-5-6(3)8-4-2-9(8)7(4)5/h3-8H,2H2,1H3	InChI=1S/C8H11N/c1-3-5-6(3)8-4-2-9(8)7(4)5/h3-8H,2H2,1H3/t3-,4+,5-,6+,7-,8+
