18
gdb 30668	2.94462	1.19016	0.99554	1.9724	74.07	-0.2398	0.0022	0.2419	1237.2083	0.147336	-439.107069	-439.098196	-439.097251	-439.141398	31.626	
C	 1.2870527497	 1.1937653656	 0.6569553573	-0.241267
O	 0.192962863	 0.37781924	 0.286622339	-0.232427
C	 0.0248919551	-0.7702357747	 1.0965275088	 0.010378
C	-1.4111346868	-1.2598711778	 0.9018449012	-0.399114
C	 1.0324517851	-1.8223385118	 0.7310238898	 0.322278
C	 1.7651125302	-2.1007996924	-0.3752118402	-0.190621
N	 2.5231033428	-3.2475452529	-0.153165187	-0.255315
C	 2.2145085949	-3.5984141528	 1.0496423586	 0.064263
O	 1.3178844473	-2.7873603738	 1.6633600944	-0.184689
H	 2.2441198629	 0.6598945379	 0.5847304418	 0.11705
H	 1.2997541273	 2.0404762063	-0.032999638	 0.130835
H	 1.1736698856	 1.572715391	 1.6839948047	 0.108359
H	 0.1719482247	-0.51196161	 2.1588440256	 0.0818
H	-1.5879609101	-1.4828241715	-0.1536948297	 0.133757
H	-1.585847603	-2.1671210465	 1.4864283379	 0.12715
H	-2.1150141244	-0.4875502554	 1.2224862269	 0.124699
H	 1.8034324727	-1.5620186843	-1.3075210665	 0.133424
H	 2.5747660632	-4.4401481371	 1.6198339352	 0.14944
49.0474	110.7517	143.5961	173.3232	213.8312	237.2245	278.3378	352.6445	463.8145	504.4997	664.8496	682.5136	715.5263	831.4436	871.7194	875.3161	939.2916	968.6901	1030.8909	1090.7811	1112.507	1119.8704	1127.286	1152.007	1182.2768	1199.6028	1238.9878	1252.0852	1329.7058	1353.3984	1392.0196	1404.1252	1478.3565	1484.2855	1486.6082	1495.8671	1511.253	1547.9512	1628.0745	2961.8718	2987.4722	3045.304	3048.1274	3121.4737	3129.0603	3130.6796	3275.5954	3279.1015
COC(C)C1=CN=CO1	CO[C@@H](C)c1cnco1	
InChI=1S/C6H9NO2/c1-5(8-2)6-3-7-4-9-6/h3-5H,1-2H3	InChI=1S/C6H9NO2/c1-5(8-2)6-3-7-4-9-6/h3-5H,1-2H3/t5-/m0/s1
