20
gdb 13022	2.47218	2.42416	1.57241	1.5195	73.62	-0.2237	0.0805	0.3042	908.9283	0.177456	-349.001798	-348.993855	-348.99291	-349.033465	31.038	
C	-0.0211618644	 1.5502696902	-0.0350250829	-0.406565
C	 0.0352871818	 0.0239026718	 0.0341593622	-0.04793
C	 0.7992787203	-0.6149113317	-1.1494128097	-0.105361
O	 1.3620104907	-1.8372268147	-0.6791422854	-0.259309
C	 1.544510614	-1.7122282223	 0.7077532803	 0.076223
C	 2.2669245867	-0.4960883277	 1.2358831297	-0.38008
C	 0.7434397456	-0.5678919361	 1.2559807189	 0.318299
C	 0.0015207798	-0.6177713777	 2.5690181043	-0.486475
H	 0.9848631258	 1.9827134815	-0.0100653699	 0.117463
H	-0.5089989803	 1.8876665473	-0.9560704587	 0.114816
H	-0.5850915558	 1.9652669546	 0.8062292828	 0.117938
H	-0.9912414444	-0.3671687779	 0.0442278968	 0.073996
H	 0.1583465	-0.8458254144	-2.0051402749	 0.108025
H	 1.5929598494	 0.0627198681	-1.5000557632	 0.091161
H	 1.6397786907	-2.6764200413	 1.1943159616	 0.096947
H	 2.7730749773	-0.5964100961	 2.1907358436	 0.108442
H	 2.7714027063	 0.1620873563	 0.5365111339	 0.112829
H	-0.1694703717	 0.3870854	 2.9735824982	 0.1182
H	-0.9761231519	-1.1008388788	 2.4534436393	 0.116346
H	 0.56405784	-1.1788650211	 3.3220544329	 0.115034
138.1373	205.9733	217.9776	226.9327	256.3428	301.675	358.7795	454.812	495.208	571.3163	656.7868	694.6689	821.1362	853.2094	900.1235	916.8685	948.4933	965.9685	1007.2918	1029.0313	1034.9517	1064.3915	1094.5352	1103.5173	1144.451	1151.0321	1170.9965	1231.9787	1268.384	1293.1434	1319.1352	1355.2116	1384.8921	1409.5926	1415.3891	1422.0844	1486.1626	1488.9235	1494.2793	1500.7898	1502.5972	1525.5339	2981.5433	3010.0608	3019.3796	3030.5838	3077.0291	3081.0462	3094.8522	3096.1592	3103.3473	3128.4292	3176.7212	3212.484
CC1COC2CC12C	C[C@H]1CO[C@H]2C[C@@]12C	
InChI=1S/C7H12O/c1-5-4-8-6-3-7(5,6)2/h5-6H,3-4H2,1-2H3	InChI=1S/C7H12O/c1-5-4-8-6-3-7(5,6)2/h5-6H,3-4H2,1-2H3/t5-,6-,7-/m0/s1
