12
gdb 129007	4.05394	1.85427	1.27231	5.0586	69.76	-0.2635	-0.0897	0.1738	870.1678	0.083174	-427.878668	-427.873174	-427.87223	-427.908515	21.628	
N	-0.1159151777	 1.3054361474	 0.0099303542	-0.272123
N	 1.0830445763	 1.9162635673	 0.0022766805	-0.179759
H	 1.0269427846	 2.9252649256	 0.0084180201	 0.29823
C	 2.2923327868	 1.309264506	-0.0122614377	 0.083173
N	 2.4707186234	 0.0099596177	-0.0211479398	-0.314779
C	 1.3171646744	-0.6828064324	-0.0143810007	 0.351508
N	 1.1167016915	-1.9881668263	-0.019742823	-0.33868
C	-0.2589460653	-2.0605916245	-0.0075381692	 0.043065
N	-0.9749317881	-0.9355157284	 0.005325632	-0.322127
C	 0.0061106358	 0.0014446826	 0.0015408758	 0.36399
H	 3.1454490134	 1.9807651414	-0.0163751269	 0.155847
H	-0.745240085	-3.0295147164	-0.0084290952	 0.131654
232.7656	270.6795	421.116	512.4917	573.2929	595.9476	635.2162	639.2764	707.2583	789.1478	846.8081	919.8001	919.946	953.9252	990.0315	1055.8273	1133.1246	1185.5681	1269.8391	1317.908	1357.5284	1410.7675	1436.3901	1503.2675	1573.4257	1605.4253	1637.989	3188.8398	3217.5633	3607.9741
[N-]1[NH+]=CN=C2N=CN=C12	n1[nH]cnc2ncnc12	
InChI=1S/C4H3N5/c1-5-3-4(6-1)9-8-2-7-3/h1-2H,(H-,5,6,7,8,9)	InChI=1S/C4H3N5/c1-5-3-4(6-1)9-8-2-7-3/h1-2H,(H,5,6,7,8,9)
