20
gdb 69454	3.73037	1.10008	0.99511	4.242	81.49	-0.2238	0.0336	0.2574	1257.1947	0.171932	-403.177546	-403.169005	-403.168061	-403.210883	32.569	
C	-0.0493960306	 1.5101581688	-0.0036551975	-0.478778
C	 0.0171904603	 0.0020032485	 0.0036534729	 0.32229
C	-0.7728220781	-0.782322896	 1.0357517968	-0.356589
C	 0.7409106498	-0.7792772641	 1.070372351	-0.024929
N	 1.3967656527	-1.8916238271	 0.4382850661	-0.025944
C	 0.9049292521	-2.0868598765	-0.9270054076	-0.186187
C	 0.3118332755	-0.7133419436	-1.3155255658	-0.287415
C	 2.354793105	-2.670005961	 0.9957218772	 0.136303
O	 2.9040485893	-3.6003758121	 0.4382685035	-0.348884
H	 0.857858672	 1.9454717737	-0.4381634268	 0.12073
H	-0.9034783286	 1.8643627468	-0.5925917048	 0.123209
H	-0.1619910954	 1.9090296605	 1.0093553423	 0.117666
H	-1.2869932199	-0.2065500816	 1.7984386842	 0.11633
H	-1.2802154569	-1.6978079978	 0.7493215222	 0.118048
H	 1.2809726284	-0.316349093	 1.8881784896	 0.106719
H	 1.7266889428	-2.4138521583	-1.5663697346	 0.141226
H	 0.1435701944	-2.875807339	-0.9494607672	 0.119243
H	-0.5705393841	-0.8193260074	-1.9538095449	 0.109387
H	 1.0500407485	-0.1260285429	-1.8730774538	 0.111119
H	 2.5984210628	-2.3516155277	 2.0292549272	 0.066454
50.7791	169.6616	203.8382	214.4284	257.0766	325.824	333.7559	346.8158	440.9744	512.2623	573.4888	690.4175	733.207	829.9635	840.8238	877.0619	926.1763	955.275	959.5832	1003.0024	1028.0211	1033.8535	1051.397	1061.459	1084.2817	1138.7057	1198.0096	1226.6797	1246.5261	1264.4762	1288.29	1316.4721	1367.9478	1383.6515	1421.7008	1426.5868	1459.9053	1486.7283	1491.1753	1495.3114	1507.2858	1526.2675	1786.3846	2929.8938	3023.3245	3031.6038	3042.7245	3083.6058	3086.8875	3098.6722	3115.9278	3128.0929	3178.0568	3214.9964
CC12CC1N(CC2)C=O	C[C@]12C[C@H]1N(CC2)C=O	
InChI=1S/C7H11NO/c1-7-2-3-8(5-9)6(7)4-7/h5-6H,2-4H2,1H3	InChI=1S/C7H11NO/c1-7-2-3-8(5-9)6(7)4-7/h5-6H,2-4H2,1H3/t6-,7+/m1/s1
