16
gdb 128771	3.4966	1.11412	0.86348	4.9773	69.3	-0.2168	-0.0293	0.1875	1291.2732	0.123516	-471.164249	-471.155405	-471.15446	-471.198625	31.143	
C	 0.3928499843	 1.3829745754	-0.0399829395	-0.230766
O	 0.5590166628	-0.0196434281	-0.0538755073	-0.240293
C	 0.2140566281	-0.6218543513	 1.1782158619	-0.184685
C	 0.5422300314	-2.0701530825	 1.0809751856	 0.336032
C	 1.4512579757	-2.7701165952	 0.3417448037	 0.206321
N	 2.4333962759	-2.3454599084	-0.5376502542	-0.605262
N	 1.2875668705	-4.0943296653	 0.6725866164	-0.174251
N	 0.3729125593	-4.2279257793	 1.5374933567	-0.022303
O	-0.1397691872	-2.951947742	 1.8331910604	-0.21822
H	 1.0253356546	 1.8579009459	 0.724945123	 0.116805
H	 0.6844429956	 1.7529982854	-1.0249172326	 0.136256
H	-0.6539422757	 1.6616758487	 0.1513626701	 0.117576
H	 0.7721903011	-0.146015436	 2.0040964947	 0.11846
H	-0.8575851312	-0.4946966998	 1.399700291	 0.124409
H	 2.2009883436	-1.4578004298	-0.9625033792	 0.262096
H	 2.6698439512	-3.0496078476	-1.2235306208	 0.257826
51.1697	83.2914	133.0395	221.1464	236.737	283.393	318.86	338.7151	377.7232	444.2565	646.9979	674.0814	720.7106	754.5885	774.362	796.1506	987.6596	1017.4691	1032.4364	1084.276	1150.7528	1182.5147	1217.2448	1228.1943	1268.9634	1285.6521	1387.33	1438.5685	1470.7042	1484.5257	1487.993	1500.8445	1521.6069	1624.1312	1699.4576	2946.3559	2984.3117	2993.2155	3035.2123	3127.2852	3551.3695	3653.894
COCC1=C(N)N=NO1	COCc1c(N)nno1	
InChI=1S/C4H7N3O2/c1-8-2-3-4(5)6-7-9-3/h2,5H2,1H3	InChI=1S/C4H7N3O2/c1-8-2-3-4(5)6-7-9-3/h2,5H2,1H3
