18
gdb 89945	2.91629	1.31323	1.07348	4.0503	76.22	-0.2765	0.018	0.2944	1140.7226	0.148355	-401.93702	-401.928794	-401.927849	-401.969908	31.514	
O	 0.5557884141	 0.7028224062	-0.849628433	-0.425611
C	-0.0103796111	-0.2871901239	-0.0382263962	 0.15779
C	 0.0758646629	-0.1698839842	 1.5125270217	-0.342499
C	-1.4202487231	-0.6208691704	 1.6214702431	 0.213451
C	-2.4176357246	 0.5541796179	 1.8200297591	-0.274847
C	-2.3586805834	 0.8548474825	 0.2947946632	-0.247324
C	-1.5486143289	-0.4479094243	 0.047015689	-0.101434
C	-1.675809217	-1.8651726496	 2.3038658177	 0.187744
N	-1.889940767	-2.8652788521	 2.8456083295	-0.346397
H	 0.2235630603	 1.5619176458	-0.5684264618	 0.282852
H	 0.4368792344	-1.2280017061	-0.3712355454	 0.110093
H	 0.80618364	-0.8165783818	 1.9998411726	 0.133234
H	 0.2224146688	 0.8540653735	 1.8702349261	 0.104948
H	-3.4023243901	 0.2035916712	 2.1348403206	 0.129849
H	-2.0879727196	 1.3376464458	 2.5071525254	 0.112111
H	-3.3302564144	 0.8819448393	-0.1998462508	 0.124063
H	-1.8314865004	 1.7755318389	 0.0251011413	 0.09146
H	-2.0196109511	-1.1953928486	-0.5902217221	 0.090518
73.9188	149.3888	172.7733	236.2307	271.8606	340.3222	393.6767	457.2906	536.81	564.663	582.6219	607.5536	756.001	777.5731	842.7928	886.7475	906.243	953.9226	955.7916	1012.7885	1034.5153	1061.9372	1107.0809	1128.931	1152.3562	1164.8751	1214.8805	1240.0906	1248.9587	1259.8522	1281.7867	1304.217	1321.4706	1327.1812	1433.1548	1475.279	1483.6408	1499.8696	2343.6402	3052.8489	3058.8297	3066.247	3074.6606	3110.8606	3121.6662	3130.3718	3133.6667	3808.2749
OC1CC2(CCC12)C#N	O[C@H]1C[C@]2(CC[C@@H]12)C#N	
InChI=1S/C7H9NO/c8-4-7-2-1-5(7)6(9)3-7/h5-6,9H,1-3H2	InChI=1S/C7H9NO/c8-4-7-2-1-5(7)6(9)3-7/h5-6,9H,1-3H2/t5-,6-,7+/m0/s1
