18
gdb 78916	3.41309	1.82446	1.63078	0.7943	73.	-0.2228	0.0664	0.2892	875.4112	0.151407	-401.89936	-401.893141	-401.892197	-401.92961	26.709	
O	-0.0548137686	 1.4667069851	 0.079977338	-0.440571
C	 0.000757663	 0.050914455	 0.0308086104	 0.115682
C	-1.3722212225	-0.5326853102	-0.1963689644	-0.095291
C	-1.632613059	-0.5709307402	-1.6964598696	-0.070725
C	-1.1751350349	-1.8145047025	-0.9591991318	-0.037908
N	 0.2535836136	-1.9693730705	-1.3731881966	-0.154161
C	 0.1392926774	-1.6896282211	-2.8643626098	-0.176552
C	-0.3239667728	-0.2671055899	-2.4502062859	-0.055868
C	 0.6307058959	-0.4928842961	-1.2445873639	-0.049284
H	 0.8367819506	 1.7942536705	 0.2348110061	 0.284279
H	 0.4773851397	-0.3665608435	 0.9299818084	 0.075243
H	-2.1754419197	-0.4113386161	 0.5193946441	 0.089869
H	-2.6143704226	-0.4394417507	-2.1292122605	 0.086992
H	-1.757827158	-2.7131512681	-0.8115217097	 0.090538
H	 1.1284978384	-1.7261075601	-3.3294380011	 0.101344
H	-0.5577674213	-2.3383725379	-3.4018143781	 0.09921
H	-0.2863417606	 0.6072293804	-3.0999193405	 0.067345
H	 1.6960852814	-0.327655514	-1.405374105	 0.069856
175.4244	278.8633	294.0207	454.8992	499.119	565.5142	671.8552	731.633	765.7191	798.6132	806.0933	842.3512	861.5123	879.5348	886.1978	943.2326	953.1615	967.0859	996.7724	1016.6175	1042.9084	1059.0558	1062.7575	1076.0865	1079.4396	1109.6179	1152.9672	1184.9946	1203.0353	1225.4692	1241.6998	1255.6214	1262.8551	1296.0799	1319.1059	1339.2127	1376.694	1432.8634	1512.0296	3000.7677	3052.935	3111.5717	3112.8835	3121.5763	3196.8739	3206.1618	3218.0263	3818.5396
OC1C2C3C2N2CC3C12	O[C@H]1[C@H]2[C@@H]3[C@H]2N2C[C@@H]3[C@@H]12	
InChI=1S/C7H9NO/c9-7-4-3-2-1-8(5(2)7)6(3)4/h2-7,9H,1H2	InChI=1S/C7H9NO/c9-7-4-3-2-1-8(5(2)7)6(3)4/h2-7,9H,1H2/t2-,3+,4-,5-,6+,7-/m0/s1
