17
gdb 47213	1.99891	1.74292	1.26038	2.7873	78.85	-0.2377	-0.0223	0.2153	1067.3364	0.135239	-384.68241	-384.673971	-384.673026	-384.716209	31.67	
O	-0.136219649	 0.5398326621	-1.3361420729	-0.308011
C	-0.0271445578	 1.3121998962	-0.4195502979	 0.400268
C	-1.1947788186	 1.6706548224	 0.4924198591	-0.299566
C	-0.8409667215	 2.5785744663	 1.681992669	-0.277314
C	 0.1111484832	 3.6703349655	 1.2631160163	-0.049208
C	 1.104324584	 3.4232835794	 0.41288033	-0.075033
C	 1.3260392961	 2.024700843	-0.1379883994	-0.303121
C	 2.0869635043	 1.194398167	 0.7971680102	 0.334653
C	 2.6789064271	 0.502768136	 1.5828952852	-0.478853
H	-1.9221202291	 2.1784717375	-0.1533057431	 0.141698
H	-1.6711159755	 0.7382099449	 0.81054656	 0.136171
H	-1.7571412046	 2.9998163789	 2.1057895399	 0.110373
H	-0.3788979971	 1.9825629404	 2.4806122984	 0.13391
H	-0.0216100208	 4.6650248284	 1.6781678639	 0.099456
H	 1.8059588164	 4.1934830087	 0.1101777633	 0.106048
H	 1.8551106713	 2.0548986181	-1.0960299267	 0.126811
H	 3.2189211517	-0.1056279348	 2.2654959647	 0.201719
33.9964	114.6003	128.9359	202.0909	348.0018	385.5386	441.3159	458.9047	498.0091	561.8594	609.2687	625.2838	632.6595	672.5774	730.6265	790.5943	894.5708	934.0928	947.8148	987.8703	996.5014	1042.1279	1057.0446	1120.361	1184.7393	1213.0182	1254.6936	1261.9412	1301.7371	1327.6654	1360.9653	1397.5791	1444.7544	1483.2263	1714.2706	1824.7763	2226.3646	3020.8505	3040.2888	3058.2317	3081.3741	3091.2134	3166.3001	3190.6913	3503.6045
O=C1CCC=CC1C#C	O=C1CCC=C[C@H]1C#C	
InChI=1S/C8H8O/c1-2-7-5-3-4-6-8(7)9/h1,3,5,7H,4,6H2	InChI=1S/C8H8O/c1-2-7-5-3-4-6-8(7)9/h1,3,5,7H,4,6H2/t7-/m1/s1
