15
gdb 13466	3.17492	1.85258	1.32515	2.5927	62.82	-0.25	-0.0224	0.2277	915.9179	0.117809	-399.843005	-399.834959	-399.834015	-399.875995	28.257	
C	-0.0455254679	 1.3952926544	 0.3977700261	-0.486964
C	 0.1059508401	-0.025125453	-0.0994777035	 0.376551
O	 1.1674741323	-0.5109247341	-0.4157081334	-0.29618
C	-1.1825639345	-0.8305588992	-0.12005404	-0.258665
C	-1.078609335	-2.339360579	-0.4486437067	-0.181332
N	-1.5463629883	-2.6044102856	 0.9210810727	-0.316607
C	-1.634861069	-1.2983489965	 1.3084493304	 0.426956
O	-1.9206444926	-0.7455257617	 2.3356399891	-0.354749
H	 0.9329232573	 1.8669728457	 0.4931976312	 0.141816
H	-0.6662517059	 1.973586938	-0.2965758129	 0.138625
H	-0.5674104262	 1.3872786537	 1.3618777886	 0.17298
H	-1.9782726347	-0.2859063755	-0.6345565815	 0.118641
H	-1.7576428692	-2.6988909773	-1.2263867397	 0.115972
H	-0.0555301757	-2.6654567564	-0.6460469908	 0.144733
H	-1.6440736407	-3.4573911236	 1.4513038402	 0.258223
66.5042	111.9654	139.9699	161.5471	236.4387	367.921	411.4735	452.0946	558.1348	590.2147	673.2405	750.7202	796.572	901.9917	944.9559	982.2031	1010.8498	1048.2543	1089.5154	1134.6147	1168.3568	1176.8567	1192.1254	1288.5832	1334.2387	1387.1513	1391.7853	1466.6889	1474.1565	1524.4097	1808.6502	1891.9724	3032.884	3061.7426	3090.8621	3096.5749	3125.2507	3154.7715	3615.9753
CC(=O)C1CNC1=O	CC(=O)[C@H]1CNC1=O	
InChI=1S/C5H7NO2/c1-3(7)4-2-6-5(4)8/h4H,2H2,1H3,(H,6,8)	InChI=1S/C5H7NO2/c1-3(7)4-2-6-5(4)8/h4H,2H2,1H3,(H,6,8)/t4-/m1/s1
