23
gdb 77677	1.8292	1.61986	1.54575	1.5806	85.58	-0.2407	0.0813	0.322	1126.7465	0.205244	-388.2976	-388.287973	-388.287029	-388.33106	36.948	
C	-0.1359201504	 1.5524124558	-0.0311802724	-0.434628
C	 0.0504378964	 0.048977759	 0.0407545183	-0.096918
C	 1.3532817256	-0.686716049	-0.2157665832	 0.254991
C	 1.4043843799	-1.8785604447	-1.1417017956	-0.487335
C	 2.6261551721	 0.1341696717	-0.0735953564	-0.136596
O	 2.5382604147	 0.837747469	 1.1610303954	-0.256339
C	 1.6797234554	 0.117957489	 2.0395885013	-0.136597
C	 0.7307884291	-0.6973758504	 1.1741263575	 0.254991
C	 0.080838664	-1.9012259489	 1.813478964	-0.487334
H	 0.7275675329	 2.0928294978	 0.3597037732	 0.144924
H	-0.2966434897	 1.8712446605	-1.0673992224	 0.111283
H	-1.0178440008	 1.8588948062	 0.5428535443	 0.111283
H	-0.8085400104	-0.4972147613	-0.34814877	 0.073728
H	 1.5369545729	-1.5640151446	-2.1838534549	 0.120004
H	 2.2371150554	-2.5467961024	-0.8915224543	 0.115101
H	 0.4811481582	-2.4633601084	-1.0958940606	 0.1176
H	 3.5000420413	-0.539258824	-0.0840436762	 0.08634
H	 2.7686744103	 0.8813117893	-0.8636056662	 0.103228
H	 2.2576743037	-0.5605408767	 2.6899012646	 0.086341
H	 1.1809604743	 0.8541151486	 2.6814268916	 0.103228
H	-0.6101682683	-1.6007865994	 2.610247084	 0.120004
H	-0.496408923	-2.4800856848	 1.0867324223	 0.1176
H	 0.8257954563	-2.5709774424	 2.2596193757	 0.115101
175.9919	177.9245	193.9719	195.8789	208.8075	217.0513	229.9102	247.6376	328.87	343.1659	500.0504	509.3065	543.7573	628.9892	699.7294	723.7083	814.6608	938.6918	946.8713	962.7561	975.449	994.928	1039.022	1069.6925	1084.9403	1106.5181	1111.9855	1140.481	1152.5942	1199.219	1233.1895	1237.0474	1248.5341	1290.5785	1335.5178	1378.0341	1380.7873	1412.153	1413.0358	1424.5157	1473.69	1483.2446	1494.5265	1495.0782	1500.6967	1506.7104	1509.5748	1518.6454	1528.0951	2955.9922	2962.1962	3020.0637	3023.0294	3029.6479	3044.9236	3047.984	3075.6858	3077.1319	3081.1294	3100.3853	3100.7415	3108.4342	3138.0201
CC1C2(C)COCC12C	C[C@H]1[C@@]2(C)COC[C@@]12C	
InChI=1S/C8H14O/c1-6-7(2)4-9-5-8(6,7)3/h6H,4-5H2,1-3H3	InChI=1S/C8H14O/c1-6-7(2)4-9-5-8(6,7)3/h6H,4-5H2,1-3H3/t6-,7+,8-
