18
gdb 19164	4.14392	1.44217	1.25169	3.6591	67.39	-0.2339	0.057	0.2908	1002.4607	0.154363	-381.052592	-381.044307	-381.043363	-381.085749	30.431	
O	-0.3493452644	 1.7327046732	-0.3881258626	-0.424561
C	-0.1104748473	 0.3881337237	-0.7743215578	-0.159501
C	-1.1376578845	-0.5117346566	-0.1053583537	 0.317714
C	-1.6170765987	-0.1430149736	 1.2480901786	-0.295296
N	-2.5007504676	 0.0139333202	 0.0746509546	-0.351211
C	-1.0210842139	-1.9446671579	-0.5539988326	-0.049322
C	-0.4580039781	-2.9808496857	 0.3549981593	-0.242464
N	-1.8819877665	-2.9905931433	-0.0069129269	-0.317422
H	 0.2395439148	 2.3035771682	-0.8885462404	 0.296685
H	-0.1967401632	 0.2736088769	-1.8669433473	 0.098041
H	 0.9011690434	 0.0606878661	-0.4873857338	 0.102719
H	-1.9246307273	-0.9082739345	 1.9572664801	 0.10395
H	-1.195793715	 0.7499188671	 1.6984074685	 0.129745
H	-2.5054058355	 0.9967024118	-0.1924327331	 0.241046
H	-0.8476437947	-2.0527381951	-1.6247672029	 0.08382
H	 0.1224059431	-3.8082592245	-0.043908129	 0.115587
H	-0.1698412826	-2.6617333034	 1.3535715524	 0.10974
H	-2.4609445218	-2.6122534627	 0.7386373865	 0.240728
45.2139	113.6847	203.9779	206.7772	252.8936	286.2674	351.0972	396.0851	508.6361	572.8481	681.1612	815.954	853.4914	876.4838	918.916	944.1354	956.3907	989.0439	1013.885	1032.5568	1087.3039	1099.5542	1124.3156	1145.1183	1149.6216	1183.2558	1213.25	1239.0588	1257.058	1288.4244	1297.1184	1310.6656	1402.188	1427.8332	1456.168	1509.6198	1512.6146	1518.7558	2967.4751	2998.1607	3099.7276	3105.7652	3105.9216	3190.1854	3198.8587	3491.9785	3510.6608	3847.4205
OCC1(CN1)C1CN1	OC[C@]1(CN1)[C@H]1CN1	
InChI=1S/C5H10N2O/c8-3-5(2-7-5)4-1-6-4/h4,6-8H,1-3H2	InChI=1S/C5H10N2O/c8-3-5(2-7-5)4-1-6-4/h4,6-8H,1-3H2/t4-,5-/m1/s1
