19
gdb 39694	3.66052	1.65363	1.52642	0.1121	81.6	-0.2175	0.0904	0.3079	939.8189	0.161548	-348.691144	-348.684731	-348.683787	-348.721528	28.055	
C	-0.1073495719	 1.4734205516	 0.0109171169	-0.325021
C	 1.268350275	 0.8363696958	-0.006016603	-0.325021
C	 0.0347805909	-0.0235482562	 0.0015494363	 0.429997
C	-0.3588678342	-0.9041420262	 1.1512299386	-0.169687
C	-1.5805968938	-1.7305075487	 0.7842473967	-0.090888
C	-0.2062996097	-2.3668454258	 0.7673135248	-0.0909
C	-0.2216322719	-2.3585977748	-0.7842816757	-0.090888
C	-1.5958883627	-1.7221705015	-0.7673477609	-0.090902
C	-0.3814879431	-0.8918854699	-1.1494873143	-0.169682
H	-0.4365095594	 1.9532884689	 0.9270276094	 0.108121
H	-0.4544456253	 1.9629830195	-0.8933670131	 0.108121
H	 1.8477606647	 0.8968924362	-0.9217121402	 0.108122
H	 1.8656867363	 0.8872048253	 0.8986834025	 0.108121
H	-0.2063249544	-0.6020651394	 2.1808131348	 0.080888
H	-2.4203235353	-1.9099472916	 1.4411795192	 0.082184
H	 0.2132779012	-3.1293666177	 1.4087303606	 0.082182
H	 0.1850907353	-3.1142192653	-1.4419379157	 0.082183
H	-2.448424894	-1.8946149987	-1.4094878011	 0.082182
H	-0.2491821478	-0.5788387217	-2.1785928658	 0.080888
158.7077	247.2505	273.2014	474.5929	578.9099	584.8198	682.752	722.1533	744.5138	773.511	782.334	806.8332	844.2787	878.4983	902.5905	919.4178	934.0591	938.8027	941.037	970.3585	971.9435	983.338	999.7464	1026.8858	1036.7772	1046.8962	1056.2912	1070.601	1076.2051	1095.7546	1186.477	1207.2389	1227.5664	1261.8539	1271.9854	1280.0319	1312.0912	1376.6675	1429.286	1466.9536	1510.218	3122.1801	3126.0553	3181.797	3185.0689	3196.4908	3199.1402	3206.4623	3208.6038	3213.9387	3218.3724
C1CC11C2C3C2C2C3C12	C1CC21[C@H]1[C@@H]3[C@H]1[C@H]1[C@@H]3[C@@H]21	
InChI=1S/C9H10/c1-2-9(1)7-3-4(7)6-5(3)8(6)9/h3-8H,1-2H2	InChI=1S/C9H10/c1-2-9(1)7-3-4(7)6-5(3)8(6)9/h3-8H,1-2H2/t3-,4+,5-,6+,7+,8-
