20
gdb 63216	2.08532	1.89063	1.36883	1.4445	79.59	-0.2397	0.0086	0.2483	1041.2182	0.171337	-403.136109	-403.127641	-403.126697	-403.168714	33.916	
C	 0.3212569545	 1.6189206418	-0.2122133934	-0.408515
C	 0.0296114584	 0.1338729433	 0.0071614166	 0.272939
O	-1.3893488737	 0.0513167306	 0.1929642188	-0.464973
C	 0.5036063996	-0.7193942085	-1.1494260533	-0.136184
C	 1.4816434322	-1.5578185841	-0.8130234938	-0.083477
C	 1.8753755601	-1.435694705	 0.6368790696	-0.327381
C	 0.8118703565	-0.4915762962	 1.2043059589	 0.275124
C	 0.9406963565	 0.1941185644	 2.5089709059	-0.292812
N	 0.053352083	-0.9755130578	 2.3673003927	-0.356057
H	 1.398576445	 1.7977382083	-0.2586386989	 0.118773
H	-0.1323279558	 1.9594242651	-1.1477556484	 0.118326
H	-0.0989933295	 2.2155927821	 0.6026204127	 0.122439
H	-1.6383842131	-0.8739871873	 0.0852485907	 0.279852
H	 0.0704744975	-0.603584712	-2.1373546776	 0.098911
H	 1.9768035906	-2.2416948632	-1.4941388717	 0.100048
H	 1.8729220703	-2.3937200483	 1.1682144428	 0.122311
H	 2.8880758323	-1.0209131005	 0.7344258966	 0.110665
H	 1.8241955572	 0.0307176527	 3.1218645117	 0.109989
H	 0.4870796681	 1.1747232534	 2.6285976931	 0.110144
H	-0.9046649796	-0.6394671088	 2.270945577	 0.229878
68.087	223.6884	233.7154	265.265	286.0483	329.3135	363.247	413.07	445.2587	466.7425	543.66	562.7122	640.6858	748.4021	762.677	839.5473	886.9989	928.2058	944.1413	956.449	968.1495	982.0878	1000.042	1032.2729	1046.718	1103.5299	1106.0745	1135.3278	1180.8749	1191.9188	1198.2939	1282.3539	1291.8749	1306.4072	1342.0415	1384.1846	1399.3452	1409.5819	1479.1353	1480.8581	1490.9438	1515.2255	1686.9244	3015.3676	3041.8297	3064.9158	3099.0009	3112.8704	3125.057	3178.8424	3181.5117	3203.5652	3468.0205	3795.3696
CC1(O)C=CCC11CN1	C[C@@]1(O)C=CC[C@]21CN2	
InChI=1S/C7H11NO/c1-6(9)3-2-4-7(6)5-8-7/h2-3,8-9H,4-5H2,1H3	InChI=1S/C7H11NO/c1-6(9)3-2-4-7(6)5-8-7/h2-3,8-9H,4-5H2,1H3/t6-,7-/m1/s1
