22
gdb 116035	2.47696	1.29927	0.97612	2.2233	82.44	-0.2413	0.0319	0.2732	1297.1533	0.195249	-404.372008	-404.362696	-404.361752	-404.406102	34.972	
C	 0.0060414419	 1.629381604	 0.1356576937	-0.394417
C	 0.0050698581	 0.1065396841	-0.0463892508	-0.197163
C	-1.3964630903	-0.5217915027	-0.0823546344	-0.013725
C	-2.1724655236	-0.1580254325	-1.3472766106	-0.079421
O	-3.4917122166	-0.7219643321	-1.3348055989	-0.226494
C	-3.6086382083	-1.9352636076	-0.7441905332	 0.120652
N	-2.7497022374	-2.6157400311	-0.114265512	-0.275274
C	-1.404671854	-2.0604076935	 0.0673528385	 0.02354
C	-0.4274040676	-2.8105723424	-0.850031155	-0.388835
H	 1.0284793841	 2.013484681	 0.2017099502	 0.116909
H	-0.4812010613	 2.1439359017	-0.6986440072	 0.119216
H	-0.5177283572	 1.9174906822	 1.0536973702	 0.119517
H	 0.5510458424	-0.1532340989	-0.9619286044	 0.101341
H	 0.565987624	-0.35054669	 0.7786652333	 0.102121
H	-1.9688306973	-0.1228873935	 0.767132259	 0.084304
H	-2.3171586301	 0.9193864911	-1.451002586	 0.116734
H	-1.6493541108	-0.5175811611	-2.2439270725	 0.110589
H	-4.6250964084	-2.3045777846	-0.8721364691	 0.120428
H	-1.118242273	-2.2945535907	 1.1012593766	 0.082333
H	-0.5941434736	-2.5659886099	-1.904347658	 0.11286
H	 0.6126941941	-2.5804836572	-0.6023885666	 0.113385
H	-0.5802315151	-3.8865368063	-0.7341994927	 0.1314
80.2228	108.2109	146.9096	198.7929	228.5671	247.207	298.5663	322.9313	378.9759	450.9902	497.3492	558.2884	613.863	752.9791	783.9269	849.6936	891.5189	927.4909	947.71	965.4859	984.1472	1016.0983	1038.3905	1066.6076	1099.6166	1135.3406	1164.1803	1179.5605	1197.0851	1260.5868	1290.0778	1314.2272	1341.857	1352.9521	1369.0735	1387.9748	1401.9463	1411.4691	1414.4864	1425.3407	1484.3543	1492.572	1497.0251	1501.4468	1504.7264	1513.5069	1731.5944	2998.7633	3013.2453	3017.6151	3022.7642	3034.8347	3040.1799	3054.4132	3099.3438	3103.6903	3108.3444	3109.5122	3123.0508	3152.5868
CCC1COC=NC1C	CC[C@H]1COC=N[C@H]1C	
InChI=1S/C7H13NO/c1-3-7-4-9-5-8-6(7)2/h5-7H,3-4H2,1-2H3	InChI=1S/C7H13NO/c1-3-7-4-9-5-8-6(7)2/h5-7H,3-4H2,1-2H3/t6-,7-/m0/s1
