15
gdb 48080	3.05277	1.25136	0.89747	1.3601	71.52	-0.2485	-0.1098	0.1386	1211.131	0.111065	-457.777638	-457.769283	-457.768339	-457.811763	28.829	
O	-0.8776772637	 1.3497905259	-0.054956988	-0.227789
C	 0.2331274532	 0.9927393852	 0.2389327956	 0.088606
C	 1.4449596279	 1.9253683865	 0.3405910215	 0.192686
O	 2.5071222231	 1.4179772997	 0.6478413262	-0.29568
C	 1.2639455687	 3.3615669838	 0.0656421967	 0.197272
C	 2.2665226425	 4.2468212728	 0.1274830149	-0.158151
C	 1.7639798109	 5.6130106774	-0.2036651817	-0.106596
O	 0.3766549036	 5.4545770895	-0.459592648	-0.269572
C	-0.009332512	 4.084415055	-0.3193383754	-0.167314
H	 0.4977306118	-0.0600843358	 0.4689532731	 0.116972
H	 3.2929782041	 4.0127650528	 0.3790985911	 0.140618
H	 1.9250332625	 6.3221395542	 0.6250321941	 0.120391
H	 2.2748119038	 6.0348936102	-1.085180872	 0.120052
H	-0.4343983733	 3.7169321834	-1.2620499933	 0.124087
H	-0.793797453	 3.9941397394	 0.4425749352	 0.124419
50.1085	110.6247	125.986	164.5444	183.0419	269.9889	403.8049	415.6506	549.5297	606.76	659.5011	775.9109	851.4627	879.5958	919.9839	968.1587	1021.7475	1032.4772	1059.7958	1064.0424	1118.2338	1176.4565	1223.4098	1280.7306	1282.1703	1361.4931	1370.2151	1391.9007	1503.2738	1516.9715	1661.4091	1754.4825	1822.7766	2935.5168	2966.9451	2980.1114	3018.983	3044.2308	3230.0877
O=CC(=O)C1=CCOC1	O=CC(=O)C1=CCOC1	
InChI=1S/C6H6O3/c7-3-6(8)5-1-2-9-4-5/h1,3H,2,4H2	InChI=1S/C6H6O3/c7-3-6(8)5-1-2-9-4-5/h1,3H,2,4H2
