15
gdb 68526	2.97106	1.8058	1.47068	3.7762	64.27	-0.2582	-0.0352	0.2231	905.8667	0.112645	-457.793238	-457.786304	-457.78536	-457.824303	27.635	
C	-0.0787082357	 1.4772112219	-0.0658635325	-0.496592
C	 0.0537875278	-0.0126559493	 0.0188925703	 0.453397
O	 0.707383784	-0.6003281906	-1.0837132744	-0.247218
C	 0.5096172495	-1.9572906914	-0.6505302994	-0.168252
C	 1.0419842661	-1.9169996244	 0.7851938173	-0.098415
C	 0.7589198555	-0.6870614765	 1.2081618197	-0.109793
C	-1.0342095925	-1.91526743	-0.4833846141	 0.470435
O	-1.8554738902	-2.7631682735	-0.6597085748	-0.3422
O	-1.2887192047	-0.6471176065	-0.0576671711	-0.281421
H	 0.9131128695	 1.9353360198	-0.044255911	 0.142598
H	-0.5834499357	 1.7528267224	-0.9938213203	 0.15189
H	-0.6609902563	 1.8492601266	 0.7802430412	 0.143743
H	 0.8946130081	-2.6881672946	-1.3546902472	 0.118041
H	 1.4496771841	-2.7590386248	 1.3244960676	 0.135825
H	 0.8894515006	-0.241921579	 2.1837156385	 0.127963
157.7498	188.666	280.1998	294.9246	394.88	463.2218	509.2902	608.7544	630.5857	668.2394	718.3539	773.5308	776.664	836.9347	863.1691	882.4235	901.9525	916.2658	940.8706	1018.6815	1052.0537	1097.7844	1170.5104	1185.2215	1209.7368	1293.1965	1303.1811	1345.4681	1426.9924	1479.0098	1484.5314	1638.9949	1904.1576	3060.9554	3139.7048	3147.4664	3184.5922	3235.651	3260.8139
CC12OC(C=C1)C(=O)O2	C[C@@]12O[C@@H](C=C1)C(=O)O2	
InChI=1S/C6H6O3/c1-6-3-2-4(8-6)5(7)9-6/h2-4H,1H3	InChI=1S/C6H6O3/c1-6-3-2-4(8-6)5(7)9-6/h2-4H,1H3/t4-,6-/m0/s1
