18
gdb 65334	3.94787	1.01603	0.93124	4.0475	77.67	-0.2469	0.0193	0.2663	1272.9573	0.148052	-398.090275	-398.081336	-398.080392	-398.124072	33.361	
N	-0.0573164377	 1.6258313323	 0.3719438198	-0.571158
C	-0.0655769813	 0.2387614651	-0.0121758812	 0.298395
C	 0.9544419742	-0.3253767445	-0.9704785555	-0.35055
C	 1.0616510915	-0.6422637523	 0.5209067509	-0.21319
C	 2.1228958379	-0.0541895849	 1.285049461	 0.29338
N	 2.9669028762	 0.4566630496	 1.890913945	-0.342923
C	-1.4621328944	-0.3220679524	 0.0337804302	-0.019814
C	-2.3103541118	-0.3381777613	-1.1871906872	-0.239842
N	-1.8461064647	-1.5969437183	-0.5793919017	-0.326864
H	 0.8614481986	 1.9396541538	 0.6660794153	 0.25066
H	-0.3662168667	 2.214282747	-0.3946728077	 0.236946
H	 0.7134290929	-1.154462389	-1.6277824792	 0.121422
H	 1.6835723517	 0.3675259196	-1.3741060488	 0.136777
H	 0.7834548912	-1.643401159	 0.8318813727	 0.145649
H	-1.9455058667	-0.1340749655	 0.9890120328	 0.113032
H	-3.3782752524	-0.1560453248	-1.1144273185	 0.127319
H	-1.8538796222	-0.0185608397	-2.1209866614	 0.112045
H	-1.0874467162	-1.9876188056	-1.1325404962	 0.228716
69.3644	113.2616	142.3191	193.4001	224.7279	275.0295	333.8933	394.7494	445.2201	486.2769	560.2732	619.3998	687.0414	784.4343	814.041	834.0581	853.0037	899.71	912.3832	955.4434	982.3837	1020.6994	1039.2185	1061.7349	1108.8169	1120.7593	1155.8568	1172.2942	1219.1125	1246.8284	1280.0419	1295.6524	1307.0212	1392.9917	1425.6412	1478.8128	1508.2318	1652.1806	2346.9021	3108.1351	3131.2251	3145.6007	3173.1102	3196.8904	3224.826	3500.6112	3504.2144	3589.6528
NC1(CC1C#N)C1CN1	N[C@]1(C[C@H]1C#N)[C@H]1CN1	
InChI=1S/C6H9N3/c7-2-4-1-6(4,8)5-3-9-5/h4-5,9H,1,3,8H2	InChI=1S/C6H9N3/c7-2-4-1-6(4,8)5-3-9-5/h4-5,9H,1,3,8H2/t4-,5+,6-/m0/s1
