18
gdb 39900	2.73229	1.7922	1.58758	1.7165	70.67	-0.2402	0.0659	0.3061	922.6606	0.150307	-439.043084	-439.036179	-439.035235	-439.074154	27.959	
C	 0.0019861919	 1.4745624305	-0.0200700362	-0.33298
N	 1.238530318	 0.6530164275	 0.0586420272	-0.388718
C	-0.0610176521	 0.0064917213	 0.0072989074	 0.413407
C	-0.5577027562	-0.9287480978	 1.0983670483	-0.005727
C	-2.0346400986	-1.0307737247	 0.7002019081	-0.080621
O	-1.9778889269	-1.0313063705	-0.7498182306	-0.286225
C	-0.5899237396	-0.9113143372	-1.0867874751	-0.033378
C	 0.1024661983	-2.2213742776	-0.6874451776	-0.078961
O	 0.0687249531	-2.1752123062	 0.7566550434	-0.285091
H	-0.211401346	 2.0531618827	 0.874723133	 0.124452
H	-0.2328826052	 1.9805688134	-0.9531383749	 0.119108
H	 1.6925169525	 0.6200226692	-0.852361093	 0.232459
H	-0.3378268307	-0.682768564	 2.1355385413	 0.094831
H	-2.4863440612	-1.9628762885	 1.053854498	 0.111964
H	-2.6331386418	-0.178224211	 1.0458670748	 0.101431
H	-0.4917316839	-0.6014591475	-2.1274333516	 0.083795
H	-0.4507756292	-3.0944339619	-1.0485212731	 0.110549
H	 1.1431382276	-2.2789753475	-1.0338922093	 0.099704
159.1478	205.0348	260.893	286.0883	385.4551	398.0261	537.279	593.9541	656.9561	764.5743	855.9593	865.2492	890.5222	896.6874	924.0497	952.4062	959.0609	972.095	989.0054	1017.9447	1047.0523	1067.5519	1088.1856	1094.5842	1139.4002	1184.3796	1189.1822	1237.1314	1241.2833	1259.2829	1288.3673	1291.0303	1311.1316	1365.3037	1372.4421	1452.436	1507.3198	1510.6279	1526.1751	3012.283	3020.3432	3074.4743	3079.7471	3106.4034	3122.99	3147.0237	3190.6423	3479.9608
C1NC11C2COC1CO2	C1N[C@]21[C@H]1CO[C@@H]2CO1	
InChI=1S/C6H9NO2/c1-4-6(3-7-6)5(8-1)2-9-4/h4-5,7H,1-3H2	InChI=1S/C6H9NO2/c1-4-6(3-7-6)5(8-1)2-9-4/h4-5,7H,1-3H2/t4-,5-/m1/s1
