18
gdb 17468	4.29481	1.93356	1.65812	0.2428	70.29	-0.2159	0.0652	0.2811	837.2537	0.155801	-343.937034	-343.930226	-343.929282	-343.9675	27.562	
C	-0.0473107608	 1.5493376871	 0.0797625408	-0.464689
C	-0.0106619264	 0.041046278	 0.084014811	 0.327296
C	-1.2942177221	-0.7316417283	-0.2505244932	-0.246869
N	-1.3652051102	-1.9542781098	 0.5847367246	-0.091282
C	-0.3923152705	-3.010637404	 0.2893063976	-0.265755
C	-0.1062965525	-2.0236390891	 1.362214773	-0.018916
C	 0.7368748377	-0.8035184376	 1.068031539	-0.088955
N	 1.2730679573	-0.5777670918	-0.2814127407	-0.369408
H	 0.9269229591	 1.9504813209	 0.3686796722	 0.131173
H	-0.2822294391	 1.9337037926	-0.9197265871	 0.12034
H	-0.806353846	 1.9287640021	 0.7723965091	 0.117611
H	-2.1645124215	-0.1133818802	-0.0045113524	 0.113046
H	-1.3692474748	-0.9836467707	-1.315801986	 0.106602
H	-0.7230634472	-4.0129452818	 0.5515934789	 0.119032
H	 0.1748110759	-2.9737036248	-0.6384216482	 0.105843
H	-0.1898779531	-2.3165177976	 2.4055598274	 0.091948
H	 1.3315588149	-0.3919401918	 1.8780327451	 0.090986
H	 1.1592732193	-1.3914452035	-0.8780623109	 0.221996
186.1547	202.8437	247.4221	336.7606	362.503	439.872	527.3046	594.7624	671.6747	730.7516	763.7247	814.4812	821.4071	888.3238	931.8986	962.2516	980.8314	1013.309	1030.5001	1063.8209	1093.206	1110.7832	1113.0015	1122.4123	1156.9982	1163.9591	1233.4421	1270.441	1273.3918	1319.3325	1330.8591	1372.8748	1409.9554	1436.5389	1486.7345	1492.3565	1500.4162	1516.8073	3026.4456	3031.3887	3066.2775	3090.0207	3094.6879	3124.9946	3137.9207	3156.8187	3170.8656	3515.1496
CC12CN3CC3C1N2	C[C@]12CN3C[C@H]3[C@H]1N2	
InChI=1S/C6H10N2/c1-6-3-8-2-4(8)5(6)7-6/h4-5,7H,2-3H2,1H3	InChI=1S/C6H10N2/c1-6-3-8-2-4(8)5(6)7-6/h4-5,7H,2-3H2,1H3/t4-,5+,6-,8?/m0/s1
