20
gdb 109362	2.70284	1.32957	0.97044	4.837	84.69	-0.2077	-0.0262	0.1815	1261.6084	0.172563	-403.19678	-403.187918	-403.186974	-403.230419	33.48	
C	 0.0217826667	 1.6056321389	 0.1198306355	-0.371025
C	-0.0238149806	 0.0881995671	-0.1266006296	-0.278048
C	-1.414363018	-0.4951885032	-0.0592565356	 0.154656
C	-2.0866964282	-0.8938683134	-1.1716285358	-0.067053
N	-3.344480263	-1.4343055474	-1.1805766949	-0.290469
C	-3.8484783895	-1.9802275007	 0.0753548073	-0.18096
C	-3.5564060106	-0.9947902094	 1.2041438559	-0.300024
C	-2.0804953738	-0.5810996562	 1.2413374242	 0.308402
O	-1.5394140296	-0.2837460715	 2.2946246822	-0.355212
H	 1.0508684997	 1.9771285594	 0.0746903223	 0.104765
H	-0.5661141274	 2.1444594438	-0.631029607	 0.102553
H	-0.3822708053	 1.8419652591	 1.1070308224	 0.141773
H	 0.4194545194	-0.1409718301	-1.1032739817	 0.083631
H	 0.598049189	-0.4064590733	 0.6281262075	 0.11583
H	-1.6384231891	-0.7758827489	-2.1555763035	 0.110739
H	-3.6010731013	-1.9359716561	-2.016168351	 0.24776
H	-4.922082256	-2.1652662498	-0.0213065153	 0.113486
H	-3.3579200573	-2.9434398016	 0.2954689764	 0.108407
H	-4.1474969168	-0.080381935	 1.0569523002	 0.126788
H	-3.8308010582	-1.4126390217	 2.1751014104	 0.124001
76.4477	103.066	165.2781	211.3735	228.628	306.1811	382.8666	399.5172	441.6461	493.4291	521.8502	554.4125	631.9722	709.141	771.0793	783.917	873.6026	915.3002	949.4947	979.9997	1025.8593	1069.1038	1077.6558	1092.3518	1127.464	1195.7813	1230.0941	1239.4	1290.3276	1295.6374	1345.6952	1356.3239	1387.2715	1399.6634	1416.3804	1457.0355	1472.6237	1494.9037	1497.294	1511.4616	1521.8137	1678.3164	1744.968	2963.5116	3025.6439	3026.3523	3034.3556	3066.2067	3080.8392	3098.84	3114.4686	3129.095	3157.7591	3622.688
CCC1=CNCCC1=O	CCC1=CNCCC1=O	
InChI=1S/C7H11NO/c1-2-6-5-8-4-3-7(6)9/h5,8H,2-4H2,1H3	InChI=1S/C7H11NO/c1-2-6-5-8-4-3-7(6)9/h5,8H,2-4H2,1H3
