20
gdb 93638	1.91151	1.62206	1.3459	3.9321	77.37	-0.2776	0.0186	0.2962	1106.1616	0.171406	-403.171772	-403.162611	-403.161667	-403.205797	33.944	
C	 0.633258201	 1.6372982966	-0.0347908934	-0.415418
C	 0.221972097	 0.1608571962	 0.0019336024	-0.028529
C	 0.9286120297	-0.667554681	-1.1063633842	-0.092729
O	 1.6030446187	-1.7635934448	-0.4724902372	-0.243243
C	 1.8552241522	-1.3991860638	 0.8660688366	-0.056984
C	 3.1039418993	-0.6072569672	 0.9849561018	 0.285411
N	 4.0752445908	 0.013848486	 1.0702888779	-0.34033
C	 0.5964997918	-0.6126935945	 1.3033782199	 0.009718
C	 0.7252223008	 0.1964363569	 2.5913320371	-0.429233
H	 1.7113291608	 1.763117087	 0.1048300822	 0.145191
H	 0.3724598747	 2.0750074585	-1.0041442666	 0.118581
H	 0.1197424904	 2.2190484007	 0.7360785775	 0.119257
H	-0.862610532	 0.1056877915	-0.1319399081	 0.084487
H	 0.23881157	-1.101460371	-1.8347013547	 0.115872
H	 1.6572197521	-0.0487999613	-1.6473737693	 0.112045
H	 1.9914741783	-2.3196218355	 1.4421052274	 0.129942
H	-0.1646384974	-1.3861328367	 1.4531649238	 0.094013
H	 1.5127403324	 0.951172481	 2.5257868744	 0.146412
H	-0.2154278106	 0.7050840995	 2.8225744642	 0.123711
H	 0.9608747299	-0.4580932979	 3.4368683083	 0.121825
60.5996	101.0669	146.0713	233.4279	257.0326	267.2196	277.449	330.7007	367.8735	476.3404	494.9459	581.0225	678.9268	687.1994	775.457	858.601	919.4093	942.6714	948.4395	960.4603	1015.6711	1036.8895	1089.3363	1102.0493	1147.7341	1164.1646	1180.2329	1243.9087	1253.6061	1303.7014	1328.8595	1351.8836	1368.1467	1376.966	1393.9525	1413.7116	1423.2795	1492.0803	1496.1312	1506.681	1509.3214	1522.386	2346.4912	3014.5907	3037.8884	3038.0283	3042.6496	3055.6649	3072.6597	3093.7236	3102.1667	3105.3336	3117.8039	3126.049
CC1COC(C#N)C1C	C[C@H]1CO[C@@H](C#N)[C@H]1C	
InChI=1S/C7H11NO/c1-5-4-9-7(3-8)6(5)2/h5-7H,4H2,1-2H3	InChI=1S/C7H11NO/c1-5-4-9-7(3-8)6(5)2/h5-7H,4H2,1-2H3/t5-,6-,7-/m0/s1
