17
gdb 62858	2.93213	1.59934	1.39692	3.9822	67.58	-0.2636	0.0037	0.2673	973.0186	0.136173	-458.980805	-458.973242	-458.972298	-459.012433	30.273	
C	-0.1462206828	 1.5674288751	 0.011764207	-0.454149
C	-0.0042946649	 0.0548816724	-0.0043197062	 0.448488
O	-1.2865498954	-0.4529289703	-0.2287786256	-0.484111
C	 1.1569876965	-0.5777853098	-0.8329513622	 0.023625
C	 2.1280078585	-0.2210496603	 0.3060801429	-0.260587
C	 0.8749642728	-0.5782503716	 1.1760629148	-0.252642
C	 0.745456952	-2.0370610611	 0.7865901382	 0.436087
O	 0.5258857501	-3.0358240387	 1.3977413557	-0.339141
O	 0.9209410733	-2.0029312072	-0.5930227919	-0.27108
H	 0.7755679448	 2.0904197547	 0.2666611257	 0.122526
H	-0.4874887963	 1.9126405213	-0.9685937776	 0.134571
H	-0.911811987	 1.8391710796	 0.7437457699	 0.142875
H	-1.2086623783	-1.3762300841	-0.5004683853	 0.300516
H	 1.3325460467	-0.414161123	-1.8944914368	 0.098902
H	 3.0015724811	-0.8668044796	 0.4061505403	 0.129161
H	 2.4180005227	 0.8264451725	 0.3506465262	 0.123759
H	 0.759626936	-0.3329361398	 2.2280181549	 0.101198
150.7214	178.8085	203.9233	297.9363	383.5627	395.6782	466.5549	483.1364	500.5269	564.9099	642.0793	684.8103	772.1207	793.7821	845.0872	858.7227	897.6998	926.1788	978.1638	999.9475	1016.0369	1070.6698	1091.7795	1111.6458	1126.1324	1160.5962	1210.7257	1220.5656	1251.2559	1271.9714	1323.6213	1390.5896	1425.7859	1480.9888	1490.7038	1508.2702	1917.4719	3054.7785	3096.5927	3118.7725	3145.6502	3147.6009	3167.7043	3170.5665	3778.1916
CC1(O)C2CC1C(=O)O2	C[C@@]1(O)[C@H]2C[C@@H]1C(=O)O2	
InChI=1S/C6H8O3/c1-6(8)3-2-4(6)9-5(3)7/h3-4,8H,2H2,1H3	InChI=1S/C6H8O3/c1-6(8)3-2-4(6)9-5(3)7/h3-4,8H,2H2,1H3/t3-,4-,6+/m1/s1
