22
gdb 104723	2.59973	1.15243	0.95065	1.7456	79.47	-0.2114	0.0749	0.2863	1349.3237	0.19208	-441.43848	-441.428212	-441.427268	-441.473916	37.365	
C	 0.6573210324	-0.1186796119	 1.2852439723	-0.261915
O	-0.097619401	 0.031532846	 0.0956922145	-0.302759
C	-1.3141916269	-0.7057711156	 0.0234044478	 0.365564
C	-2.3271402716	-0.1467432451	 1.0141475472	-0.108958
O	-2.4852675399	 1.2469922166	 0.8343665283	-0.428911
C	-1.7475371159	-0.7778822466	-1.4600110167	-0.204839
N	-1.2366254869	-2.1607528313	-1.5268283398	-0.063839
C	-2.0070439101	-3.1524116284	-2.2381136139	-0.321325
C	-1.1527064697	-2.2503275935	-0.0594548354	-0.234039
H	 1.5981888538	 0.4123724642	 1.1232764079	 0.134081
H	 0.1562955292	 0.3165478582	 2.1606194469	 0.116404
H	 0.8827044526	-1.1712669109	 1.5005637795	 0.115907
H	-3.3028975871	-0.6155466135	 0.8522914832	 0.105156
H	-2.0201087285	-0.389558557	 2.0457822998	 0.083303
H	-1.6070977694	 1.5850006621	 0.6175307803	 0.289189
H	-2.8387899283	-0.6947461227	-1.5797394479	 0.088777
H	-1.2521772522	-0.073346208	-2.1348576726	 0.111881
H	-2.0361371961	-2.9044785654	-3.3045182889	 0.122734
H	-1.5342125594	-4.1353180708	-2.1368092389	 0.11999
H	-3.0522280332	-3.2378049147	-1.8796362046	 0.085906
H	-0.2225442284	-2.6877133282	 0.3191321185	 0.104504
H	-2.0030165434	-2.7751335834	 0.4088970126	 0.083188
63.8299	77.7193	110.2113	178.1793	201.8702	232.7615	263.5846	299.0192	344.668	364.6245	394.2083	405.5333	447.2964	537.1221	672.4012	756.4596	856.508	932.5326	941.1859	955.5268	1001.7753	1066.7268	1091.8776	1098.9953	1112.4068	1136.5636	1156.3364	1175.1891	1182.5814	1208.662	1229.5275	1235.7821	1273.1073	1292.3726	1305.2261	1353.5886	1362.7694	1440.5256	1450.884	1477.2518	1482.671	1488.1592	1490.4419	1497.6105	1506.199	1515.52	1524.4008	2909.2581	2955.3327	2964.1505	2985.3096	3002.7986	3052.1668	3053.7376	3060.8085	3072.6066	3077.1633	3096.5376	3118.6681	3772.3131
COC1(CO)CN(C)C1	COC1(CO)CN(C)C1	
InChI=1S/C6H13NO2/c1-7-3-6(4-7,5-8)9-2/h8H,3-5H2,1-2H3	InChI=1S/C6H13NO2/c1-7-3-6(4-7,5-8)9-2/h8H,3-5H2,1-2H3
