15
gdb 50956	3.03732	0.90386	0.73306	3.4857	74.19	-0.277	-0.007	0.27	1469.9847	0.107983	-420.570563	-420.560776	-420.559832	-420.606536	33.782	
O	-0.0584889417	-0.0967355907	-1.3570944306	-0.264804
C	-0.0161346782	 0.9360576368	-0.7629123329	 0.174697
O	 1.1500520346	 1.4994151889	-0.3758339757	-0.181208
C	 1.0683251452	 2.7664595689	 0.3120080096	-0.077533
C	 2.3695332191	 2.8718845114	 1.1358282311	-0.357907
C	 2.3812485911	 4.0336091781	 2.0117754028	 0.291819
C	 2.3696856061	 4.9887254818	 2.7397729746	-0.435837
C	 0.899666202	 3.8617254984	-0.6372430644	 0.366341
C	 0.7603813122	 4.7524532753	-1.4303485188	-0.464455
H	-0.902509696	 1.5260046016	-0.4621186156	 0.090332
H	 0.216780301	 2.7444827656	 1.0041661279	 0.130292
H	 2.4612690578	 1.9489678197	 1.7190781009	 0.150471
H	 3.216027982	 2.8984888497	 0.44156078	 0.158032
H	 2.3711225458	 5.8353110446	 3.3809625311	 0.204773
H	 0.6355736687	 5.5426761699	-2.1296494102	 0.214986
36.8707	70.2057	107.3673	123.9375	176.37	231.8171	260.1421	348.6689	371.0928	440.6288	512.1632	570.4018	633.8222	649.6553	664.7211	684.3563	725.7074	834.8299	971.4992	1011.8108	1035.2671	1041.861	1086.6179	1170.4445	1210.6176	1307.5127	1351.0604	1365.9978	1437.609	1470.9349	1872.3555	2243.1536	2247.0775	2962.6419	3028.1578	3046.6225	3089.144	3500.5148	3505.3815
O=COC(CC#C)C#C	O=CO[C@@H](CC#C)C#C	
InChI=1S/C7H6O2/c1-3-5-7(4-2)9-6-8/h1-2,6-7H,5H2	InChI=1S/C7H6O2/c1-3-5-7(4-2)9-6-8/h1-2,6-7H,5H2/t7-/m1/s1
