23
gdb 60254	2.89271	0.92976	0.8737	2.2821	82.65	-0.2431	0.0727	0.3158	1501.3448	0.202924	-425.410391	-425.399784	-425.39884	-425.447281	38.066	
C	 0.1357955774	 1.2691055754	 0.7430085002	-0.390226
C	-0.0351453006	-0.059388817	 0.0015458902	 0.148735
C	-1.490120419	-0.3323389645	-0.3620645836	-0.38992
O	 0.6961307241	-0.0658571824	-1.2278003263	-0.266437
C	 2.0677419702	-0.3248013245	-1.110301638	 0.061348
C	 2.4870891573	-1.8082681184	-0.9768777332	-0.096371
O	 3.1295646064	-1.7850343321	-2.2655411061	-0.293632
C	 2.7916043565	-0.3901643765	-2.4788139591	 0.122841
C	 1.9730387354	-0.1695008079	-3.7342453988	-0.388558
H	 1.1827545371	 1.4662235226	 0.9909740349	 0.117856
H	-0.2311623877	 2.0947062622	 0.1251194336	 0.124061
H	-0.4296618424	 1.2590389906	 1.6802356262	 0.115634
H	 0.3324706858	-0.878516005	 0.6405133351	 0.070669
H	-1.8665747472	 0.4531516758	-1.0251069451	 0.124896
H	-1.5821767097	-1.2900181425	-0.8808828077	 0.121564
H	-2.1159038678	-0.3572315708	 0.5349659102	 0.11322
H	 2.5427284507	 0.34567553	-0.383615223	 0.071427
H	 3.1920221018	-2.0424523132	-0.1690969402	 0.094715
H	 1.6466253265	-2.513246455	-0.9436886287	 0.100349
H	 3.7055233597	 0.2192226809	-2.5072085501	 0.071642
H	 1.0327105394	-0.721743975	-3.689683963	 0.129823
H	 1.744585163	 0.8936108463	-3.8609181324	 0.116047
H	 2.5444763832	-0.5065626691	-4.604591635	 0.120317
32.817	51.5259	88.2077	130.4186	205.9583	208.3797	239.9269	251.2961	335.1976	386.1086	401.0178	440.1892	480.709	541.5952	755.4248	822.2425	854.1361	875.1441	913.2929	926.036	939.5449	953.0153	1017.2642	1037.0049	1067.206	1096.5297	1143.1687	1146.1516	1161.3404	1168.6462	1194.2467	1206.3953	1267.0778	1291.9575	1345.9734	1364.3985	1368.7354	1381.5339	1395.9059	1401.9908	1414.5436	1421.816	1480.2861	1482.1817	1484.718	1488.8964	1494.8728	1510.0148	1512.3538	2970.3758	2999.8004	3006.8865	3024.0153	3037.9794	3042.9955	3044.4741	3055.9466	3108.4778	3111.3912	3112.3554	3117.7655	3123.0714	3140.3118
CC(C)OC1COC1C	CC(C)O[C@H]1CO[C@H]1C	
InChI=1S/C7H14O2/c1-5(2)9-7-4-8-6(7)3/h5-7H,4H2,1-3H3	InChI=1S/C7H14O2/c1-5(2)9-7-4-8-6(7)3/h5-7H,4H2,1-3H3/t6-,7-/m0/s1
