19
gdb 38922	3.11906	1.68744	1.22191	1.5185	82.02	-0.2149	0.0136	0.2284	1031.4149	0.161542	-385.866324	-385.859289	-385.858345	-385.897446	29.182	
C	 0.0585495154	 1.4866872537	 0.0963989853	-0.37555
C	 1.3386546625	 0.7244058603	-0.0091367268	 0.049252
O	 1.6896048557	 0.1037085325	 1.2257423672	-0.304516
C	 0.4732878855	-0.7036463444	 1.1808792058	 0.072644
C	 0.7486293395	-2.1810040326	 0.9300926445	-0.23057
C	-0.4740418134	-2.8480379501	 0.265783082	-0.278587
C	-0.9464545172	-2.0845688064	-0.9515497755	-0.073608
C	-0.7037197171	-0.7808077805	-1.1249436057	-0.169154
C	 0.0001907164	-0.0156003819	-0.0953306493	 0.294216
H	-0.2288062671	 1.9372102947	 1.0437440559	 0.113676
H	-0.2119548539	 2.0597749927	-0.7866432192	 0.114823
H	 2.1258471116	 0.9054924135	-0.7323807358	 0.105304
H	-0.1390451667	-0.5467791105	 2.0781756895	 0.076743
H	 1.6064192932	-2.2516098347	 0.2530215788	 0.113014
H	 1.0204601724	-2.6912967965	 1.8595550232	 0.099188
H	-0.2195431001	-3.8759418766	-0.017047571	 0.107346
H	-1.2963687923	-2.9412732622	 0.9909563637	 0.112037
H	-1.501087465	-2.6369660251	-1.7048695441	 0.088857
H	-1.0438657595	-0.2625377459	-2.0174592787	 0.084883
146.5357	193.6863	272.237	365.8227	428.4463	456.006	470.7281	489.9193	622.5075	708.0744	749.271	782.9296	840.1899	859.8451	882.9054	904.5689	936.1536	972.7372	987.1985	1001.572	1011.2058	1030.2677	1055.9579	1080.4428	1093.3133	1112.4641	1155.2783	1193.7558	1213.1278	1249.7263	1287.1278	1306.2483	1328.0235	1354.2757	1376.1851	1388.743	1440.1273	1477.2262	1480.6714	1493.3484	1694.1238	2998.	3022.4335	3043.6453	3056.2935	3094.0067	3101.7754	3152.7529	3174.9641	3176.6131	3195.2717
C1C2OC3CCC=CC123	C1[C@H]2O[C@@H]3CCC=C[C@]123	
InChI=1S/C8H10O/c1-2-4-8-5-7(8)9-6(8)3-1/h2,4,6-7H,1,3,5H2	InChI=1S/C8H10O/c1-2-4-8-5-7(8)9-6(8)3-1/h2,4,6-7H,1,3,5H2/t6-,7-,8-/m1/s1
