20
gdb 22103	3.54717	0.75462	0.70058	2.2931	80.09	-0.2458	-0.0244	0.2214	1632.0071	0.166441	-440.262886	-440.251822	-440.250878	-440.300879	37.996	
C	 0.0464150664	 1.6045017464	-0.0488127111	-0.4052
C	 0.0386626815	 0.0686887491	-0.0108087601	-0.064676
C	-1.4039908704	-0.5041646381	 0.0658167779	-0.292893
C	-2.110990169	-0.1533909579	 1.3489519046	 0.358452
C	-1.6480486524	-0.7509117649	 2.6510369282	-0.472375
N	-3.0968918953	 0.6556752682	 1.2463657081	-0.164106
O	-3.6790945641	 0.9210884522	 2.4964289055	-0.398282
C	 0.7015056402	-0.4784861687	-1.2602280855	 0.157736
O	 1.6290980047	-1.2447678709	-1.2771524722	-0.247051
H	 1.0681856939	 1.9942081386	-0.022943745	 0.127033
H	-0.4367283299	 1.9752782219	-0.9600614185	 0.124775
H	-0.5027822564	 2.0161435102	 0.8014314293	 0.138476
H	 0.6229159402	-0.2955668743	 0.8406834665	 0.09801
H	-1.9960982698	-0.126610537	-0.7736571665	 0.11917
H	-1.3541605568	-1.5972734889	-0.0227311662	 0.118462
H	-1.243001486	 0.0232728722	 3.3117595553	 0.148128
H	-2.4950273361	-1.1960570501	 3.181323451	 0.151695
H	-0.8814151053	-1.5117227697	 2.4924978777	 0.124699
H	-4.409302456	 1.5025321152	 2.2599133298	 0.307121
H	 0.2428694105	-0.1106745535	-2.210277549	 0.070826
35.3306	48.8402	60.9317	83.2947	133.9499	193.0421	263.2917	290.9326	307.0139	338.8069	374.251	394.5376	419.942	532.7874	580.5822	649.025	813.683	855.4168	903.227	914.367	963.4554	990.699	1022.8973	1033.4381	1109.2852	1117.9825	1156.1944	1229.0263	1263.284	1282.5343	1347.2395	1351.314	1397.8278	1399.6621	1407.5321	1427.9804	1474.1527	1476.1262	1483.1938	1494.6219	1498.4099	1724.1089	1835.5501	2839.7203	3023.149	3037.1361	3043.3452	3057.4283	3089.926	3101.6184	3105.7209	3124.3717	3135.5064	3821.437
CC(CC(C)=NO)C=O	C[C@@H](CC(=NO)C)C=O	
InChI=1S/C6H11NO2/c1-5(4-8)3-6(2)7-9/h4-5,9H,3H2,1-2H3	InChI=1S/C6H11NO2/c1-5(4-8)3-6(2)7-9/h4-5,9H,3H2,1-2H3/t5-/m0/s1
