21
gdb 119180	3.33545	0.9233	0.80168	1.3461	78.09	-0.2571	0.0751	0.3322	1479.6775	0.181315	-424.184954	-424.175333	-424.174388	-424.219974	35.596	
O	 0.1527342684	 1.5099072373	-0.3973899234	-0.41962
C	 0.1197272554	 0.1051147827	-0.1951648435	-0.080579
C	-1.2989831341	-0.4579857656	-0.3145143876	-0.271653
C	-1.462017612	-1.9345711866	 0.0085325035	 0.367235
C	-0.3394340362	-2.8838305343	-0.0819456599	-0.224704
O	-0.7834916906	-2.3912961265	 1.189748801	-0.270553
C	-2.8697375172	-2.4460747987	-0.1420875459	-0.057932
C	-3.3389690402	-3.6535206575	 0.6226131667	-0.277591
C	-3.8477706303	-2.2839651597	 0.9973337559	-0.262815
H	-0.3222120725	 1.9222135822	 0.3312095047	 0.280925
H	 0.7644842369	-0.3119519451	-0.9752432851	 0.110127
H	 0.5487209666	-0.1775943948	 0.7762114786	 0.109635
H	-1.9573786023	 0.1005760066	 0.3661394565	 0.099358
H	-1.6778089424	-0.2690917692	-1.3262200463	 0.110701
H	-0.5535985929	-3.9347332877	-0.269060925	 0.113692
H	 0.6518380959	-2.5526746016	-0.3837829292	 0.11711
H	-3.2723347744	-2.3130464562	-1.1429378336	 0.086703
H	-4.0138488229	-4.3421529834	 0.1269298492	 0.108606
H	-2.6301368196	-4.1116367592	 1.302542044	 0.128709
H	-3.4694832202	-1.8567394941	 1.9197746893	 0.121972
H	-4.8740371653	-2.0236419485	 0.7642308403	 0.110672
68.0212	79.349	105.8768	144.3937	228.0262	251.8555	299.5647	343.2509	365.4083	387.1281	489.4878	579.3583	703.9435	773.6358	791.9409	826.6711	842.357	873.8865	935.5896	944.7799	978.9675	1036.9682	1062.1365	1074.0195	1079.2301	1091.5542	1103.953	1129.8429	1135.6319	1171.1082	1176.9582	1198.1263	1205.156	1230.2916	1319.4346	1326.554	1383.4257	1399.8378	1416.3309	1428.9856	1457.5343	1478.6572	1498.7465	1518.9307	1531.9914	3009.9696	3013.1377	3057.2252	3082.7977	3093.5697	3134.7139	3138.1316	3143.4444	3179.3012	3217.729	3233.612	3815.5112
OCCC1(CO1)C1CC1	OCC[C@]1(CO1)C1CC1	
InChI=1S/C7H12O2/c8-4-3-7(5-9-7)6-1-2-6/h6,8H,1-5H2	InChI=1S/C7H12O2/c8-4-3-7(5-9-7)6-1-2-6/h6,8H,1-5H2/t7-/m0/s1
