17
gdb 40109	3.16777	1.56976	1.20281	3.9254	72.24	-0.2492	0.0122	0.2614	1019.7271	0.13817	-417.946832	-417.939782	-417.938838	-417.978276	27.912	
C	 0.0129259742	 1.550177917	 0.0995179754	-0.284425
N	 1.2791477492	 0.7934164988	 0.1600881072	-0.369273
C	 0.0240815507	 0.0694461644	 0.0066473016	 0.302352
C	-0.4612808136	-0.8557191658	 1.167551226	-0.210581
N	-1.697214166	-1.5234080423	 0.6614889979	-0.308527
C	-1.5611063593	-1.4342817275	-0.5883519626	 0.4367
O	-2.4080468976	-1.4338266588	-1.6631824573	-0.270397
C	-1.5140267144	-0.4324917247	-2.2985646711	-0.123563
C	-0.4191127123	-0.715138293	-1.2240236183	-0.260458
H	-0.2771816376	 2.0326369259	 1.0290240276	 0.126992
H	-0.2118100082	 2.1217222869	-0.7976895571	 0.11268
H	 1.7748012789	 0.858765172	-0.7251286711	 0.233865
H	 0.3139705133	-1.5853221399	 1.4340037669	 0.116282
H	-0.7032226617	-0.2872958579	 2.0694735584	 0.121177
H	-1.2777804928	-0.7206777992	-3.3236653738	 0.130839
H	-1.9818283016	 0.5538512154	-2.2559559596	 0.132577
H	 0.3706652288	-1.3624617012	-1.6175767002	 0.11376
109.527	207.8606	268.7916	281.792	348.5742	457.8061	494.3846	508.7246	664.6756	720.789	765.6523	824.9876	874.8048	907.5366	933.7249	943.9466	967.6994	980.7464	1019.3437	1025.9239	1044.1939	1071.6931	1130.8343	1148.4212	1154.1951	1185.1078	1206.4748	1259.0614	1281.3323	1295.6906	1323.7968	1357.633	1403.5644	1492.9192	1498.8045	1512.8982	1773.5057	3030.3973	3063.3883	3070.5242	3094.6383	3104.4764	3144.477	3190.296	3503.93
C1NC11CN=C2OCC12	C1N[C@]21C[N][C]1OC[C@@H]21	
InChI=1S/C6H8N2O/c1-4-5(9-1)7-2-6(4)3-8-6/h4,8H,1-3H2	InChI=1S/C6H8N2O/c1-4-5(9-1)7-2-6(4)3-8-6/h4,8H,1-3H2/t4-,6+/m1/s1
