19
gdb 11909	3.66776	1.714	1.50847	2.3658	70.75	-0.2424	0.0741	0.3164	923.5713	0.16661	-365.043014	-365.035284	-365.03434	-365.075288	29.449	
C	 0.8890532879	 1.2697921285	-0.2300101967	-0.399058
C	-0.1049719016	 0.1366622364	 0.0287621555	 0.138117
C	-0.137043347	-0.9270000498	-1.0835951961	-0.315895
C	 0.9830753826	-1.8572183885	-0.6469904782	 0.309032
C	 1.4239810237	-3.0448472955	-1.4058546608	-0.309363
N	 2.2980014671	-1.855571542	-1.313787559	-0.346082
C	 0.9784199636	-1.7686109631	 0.8746759872	-0.113579
O	 0.2439246126	-0.591621368	 1.212448072	-0.278329
H	 1.886648865	 0.8756257893	-0.4493302434	 0.129594
H	 0.5654667815	 1.8865556753	-1.0758061768	 0.106566
H	 0.9628215601	 1.9092256073	 0.653842584	 0.125872
H	-1.0992520244	 0.5607506747	 0.2083773302	 0.076289
H	-1.097675943	-1.4539088538	-1.0703628674	 0.11039
H	 0.0120783335	-0.5156630709	-2.0861949194	 0.097621
H	 1.7933520206	-3.9226916981	-0.8812914542	 0.11966
H	 0.9326649449	-3.2622479648	-2.3514572045	 0.111607
H	 2.2463853705	-1.3301111763	-2.18389018	 0.226237
H	 0.4762504775	-2.6311254135	 1.3331387366	 0.098233
H	 2.004070895	-1.7165774673	 1.2586370512	 0.113088
61.0376	104.183	248.8173	265.7616	343.6505	383.3909	391.2761	415.4593	523.6119	725.1372	772.4387	818.0301	839.7449	879.5066	916.1756	927.5787	953.8378	967.5993	1012.9978	1050.1649	1061.0655	1081.8563	1114.294	1131.7041	1157.4431	1199.8266	1228.9916	1264.5029	1294.4159	1300.9549	1338.5544	1359.1648	1386.3418	1409.2531	1426.9244	1479.3122	1493.1794	1499.301	1516.8523	1522.8005	3008.5494	3033.376	3034.9269	3048.3017	3054.6659	3092.6798	3099.7722	3105.6247	3119.5271	3181.9855	3486.5864
CC1CC2(CN2)CO1	C[C@H]1C[C@]2(CN2)CO1	
InChI=1S/C6H11NO/c1-5-2-6(3-7-6)4-8-5/h5,7H,2-4H2,1H3	InChI=1S/C6H11NO/c1-5-2-6(3-7-6)4-8-5/h5,7H,2-4H2,1H3/t5-,6-/m0/s1
