16
gdb 7737	3.55393	1.78961	1.23829	5.3213	68.76	-0.2579	-0.0395	0.2184	958.3815	0.131312	-383.796884	-383.789545	-383.7886	-383.828479	27.306	
C	-0.0336538539	 1.5214378058	 0.0497971813	-0.481113
C	-0.0350477534	 0.0244627841	-0.0135772062	 0.308242
C	-0.1656204529	-0.6662091487	-1.1541137519	-0.288284
C	-0.0260745637	-2.1358414539	-1.2247656718	 0.421723
O	 0.1119136971	-2.7405969783	-2.2568538171	-0.341421
O	 0.004304566	-2.8153029438	-0.0430543407	-0.237199
C	-0.4494149216	-2.1355646982	 1.1327544823	-0.079528
C	 0.1544364958	-0.7441463383	 1.2701716001	-0.311243
H	 0.896481204	 1.887362568	 0.503213698	 0.138831
H	-0.1348678732	 1.9711867965	-0.9404513798	 0.135842
H	-0.8512502515	 1.8852915873	 0.6846207382	 0.136096
H	-0.2835461494	-0.1794851702	-2.1157347395	 0.112824
H	-1.5447676774	-2.0626068577	 1.0999779771	 0.11357
H	-0.1746809984	-2.7827303209	 1.9684550569	 0.123888
H	 1.22534994	-0.8055727284	 1.5097938318	 0.131844
H	-0.3217302175	-0.2239924232	 2.1096918413	 0.115928
125.1903	152.3853	200.0135	245.9342	302.5281	434.7292	452.9921	498.764	522.5878	668.8378	738.5796	796.1126	859.2631	894.3256	915.4039	1005.9507	1027.3079	1034.6237	1100.8484	1111.4187	1161.2635	1226.9335	1236.6312	1289.956	1330.0297	1385.639	1410.4997	1427.6666	1463.9258	1476.7853	1481.2089	1508.0482	1707.2318	1825.0458	3013.1175	3020.5196	3022.8774	3063.9358	3069.7814	3107.2072	3124.5356	3198.6813
CC1=CC(=O)OCC1	CC1=CC(=O)OCC1	
InChI=1S/C6H8O2/c1-5-2-3-8-6(7)4-5/h4H,2-3H2,1H3	InChI=1S/C6H8O2/c1-5-2-3-8-6(7)4-5/h4H,2-3H2,1H3
