18
gdb 32695	5.28748	0.87184	0.79672	4.0405	78.7	-0.179	0.0482	0.2272	1466.2767	0.147963	-435.280782	-435.271555	-435.27061	-435.315499	33.92	
C	-0.2388129491	 1.4356357729	 0.172179784	-0.359345
C	 0.1215469529	-0.0461561608	 0.0146772628	-0.134377
N	 0.7953299538	-0.5653313838	 1.1966102123	-0.388474
C	 0.1067534556	-1.1445034297	 2.0814753864	 0.513317
N	 0.5952541	-1.6941297411	 3.2648170936	-0.403323
C	-0.4474101884	-2.3586763635	 3.9167024148	 0.290934
N	-0.1719556893	-3.1219290223	 5.0502746373	-0.603896
C	-1.5643697408	-2.1244728145	 3.2151240979	-0.119832
O	-1.2528170435	-1.36796232	 2.0808133223	-0.228922
H	 0.6510501095	 2.0224539205	 0.4190288045	 0.1185
H	-0.6701184666	 1.8317913727	-0.7535762724	 0.101918
H	-0.9692787336	 1.5729599781	 0.9758519629	 0.115108
H	-0.7852905343	-0.6173427896	-0.2300151559	 0.096096
H	 0.8094147514	-0.1570718196	-0.8320264054	 0.092281
H	 1.5572546162	-1.9860427735	 3.3201286249	 0.269227
H	 0.2834484088	-2.5816495311	 5.7795538983	 0.25372
H	-1.0065833863	-3.5524406137	 5.4271910642	 0.255176
H	-2.5994703063	-2.3683576709	 3.3692406175	 0.131892
29.749	89.4434	180.7638	186.4751	246.3042	272.6109	324.0313	350.789	418.9285	440.1628	540.8465	596.7337	631.7863	671.0945	728.2194	736.3847	797.6353	818.8689	879.3491	931.5917	1016.4827	1069.1743	1083.9183	1125.6714	1150.2733	1159.8721	1214.5504	1286.981	1311.3496	1360.0499	1378.1146	1401.0397	1460.3674	1489.2372	1495.3593	1513.9825	1637.8165	1743.7201	1803.435	2999.9317	3032.3102	3043.1753	3102.606	3112.5303	3305.7333	3504.8781	3614.5403	3659.3528
CCN=C1NC(N)=CO1	CCN=c1[nH]c(N)co1	
InChI=1S/C5H9N3O/c1-2-7-5-8-4(6)3-9-5/h3H,2,6H2,1H3,(H,7,8)	InChI=1S/C5H9N3O/c1-2-7-5-8-4(6)3-9-5/h3H,2,6H2,1H3,(H,7,8)
