21
gdb 78750	2.8958	1.56943	1.21915	1.6497	81.67	-0.2329	0.0936	0.3264	1106.3297	0.183425	-387.071462	-387.063382	-387.062438	-387.103474	32.461	
C	 0.0042458358	 1.5141964985	 0.0074054292	-0.410354
C	-0.0050751307	-0.0097913249	-0.0263775627	-0.014012
C	 0.7489201758	-0.5990982525	-1.2249451471	-0.114227
C	 1.9726139985	-0.8914491651	-0.3622059716	-0.128393
C	 1.0887238296	-0.6650501011	 0.8881879459	 0.072958
O	 0.6901834013	-1.9428360724	 1.3594956162	-0.265843
C	 0.4995255132	-2.7602440106	 0.2015148118	-0.150179
C	 1.192877014	-2.0311477253	-0.9506810482	 0.30362
C	 1.7341504605	-2.8453981734	-2.1003539291	-0.49579
H	 1.0198576477	 1.9047718713	-0.1244001875	 0.11443
H	-0.6177441619	 1.9339996948	-0.7906393356	 0.113726
H	-0.3803496132	 1.8868273873	 0.9629711776	 0.114999
H	-1.0184950045	-0.3880023685	 0.1550019332	 0.067481
H	 0.7199597293	-0.2170722508	-2.2406021879	 0.07577
H	 3.0273284763	-0.6999601208	-0.5089272114	 0.082994
H	 1.4559862385	-0.0784115968	 1.7304279055	 0.077682
H	 0.9569922245	-3.7403432836	 0.3863019067	 0.098051
H	-0.5727804375	-2.9164751841	 0.014704218	 0.09438
H	 0.9288885355	-3.362031364	-2.6353960482	 0.121254
H	 2.2552900944	-2.2113811152	-2.8243435791	 0.120448
H	 2.4411703528	-3.6056161528	-1.7492647257	 0.121006
164.1597	202.6452	218.491	237.8048	252.268	316.7572	329.063	412.4166	481.5013	572.9551	687.0832	750.053	780.5487	844.8128	861.6678	874.7412	905.9509	933.9448	953.8402	969.7161	1015.3309	1027.0538	1037.4431	1062.5254	1082.5923	1092.8306	1129.1075	1142.9105	1164.7948	1207.1101	1225.2674	1248.9467	1272.5361	1278.7767	1322.7385	1349.7992	1381.8899	1407.2382	1417.6286	1424.1607	1490.9637	1495.5711	1500.3791	1501.5045	1525.8174	2995.1876	3024.4424	3024.6601	3028.4951	3039.2973	3083.4844	3092.2278	3095.4138	3100.5658	3117.2537	3158.4254	3199.3702
CC1C2C3C1OCC23C	C[C@H]1[C@H]2[C@H]3[C@@H]1OC[C@@]23C	
InChI=1S/C8H12O/c1-4-5-6-7(4)9-3-8(5,6)2/h4-7H,3H2,1-2H3	InChI=1S/C8H12O/c1-4-5-6-7(4)9-3-8(5,6)2/h4-7H,3H2,1-2H3/t4-,5-,6-,7+,8-/m0/s1
