16
gdb 79487	2.33567	1.94684	1.26052	5.1109	74.23	-0.2398	-0.0004	0.2394	993.2133	0.124633	-396.813036	-396.805604	-396.804659	-396.844832	28.688	
C	 0.0814286021	 1.523282368	-0.1603658008	-0.34032
N	 0.037432606	 0.0665787984	-0.0393089751	-0.153301
C	-1.1163498337	-0.4927798186	 0.724709147	-0.049788
C	-0.2844177585	-1.7321635065	 1.1859996377	-0.079142
N	-0.577997127	-1.5950717545	 2.6443895356	-0.337737
C	-0.538903259	-0.1810801009	 2.1638895104	-0.092565
C	 0.6692704264	-0.4957919483	 1.1929212389	 0.30644
C	 2.0788690465	-0.4410581379	 1.474206499	 0.168179
N	 3.2118574559	-0.3724865602	 1.693759308	-0.343984
H	 1.0896648178	 1.8259323454	-0.4575321562	 0.143519
H	-0.6096006617	 1.8299743507	-0.9511123515	 0.130085
H	-0.1849618291	 2.0635665146	 0.7626099336	 0.105248
H	-2.1471181174	-0.4516235024	 0.371677991	 0.098973
H	-0.1216130165	-2.6767129252	 0.6700226488	 0.114313
H	-1.5415140111	-1.8764271261	 2.8407751793	 0.220107
H	-0.6814650907	 0.6720609836	 2.8257863644	 0.109974
124.8438	165.7348	216.7596	236.4209	292.6343	424.9163	505.63	553.4966	565.0002	596.5152	736.3426	754.4513	796.2942	860.384	903.0992	917.6353	941.3495	951.331	1057.127	1079.5933	1095.3015	1121.2445	1133.1158	1160.1586	1174.5314	1186.3936	1216.5597	1252.4948	1268.0444	1294.7867	1349.5737	1448.3612	1492.45	1496.0069	2354.4497	2974.836	3077.9133	3115.587	3118.4649	3133.4025	3146.4144	3417.8474
CN1C2C3NC2C13C#N	CN1[C@H]2[C@@H]3N[C@H]2[C@]13C#N	
InChI=1S/C6H7N3/c1-9-3-4-6(9,2-7)5(3)8-4/h3-5,8H,1H3	InChI=1S/C6H7N3/c1-9-3-4-6(9,2-7)5(3)8-4/h3-5,8H,1H3/t3-,4-,5+,6+
