21
gdb 122567	5.12184	0.66486	0.64447	2.5327	79.1	-0.2331	0.0802	0.3133	1775.6701	0.181683	-424.174718	-424.165375	-424.164431	-424.209781	34.388	
O	-0.1432194	 1.4365085958	-0.2916588578	-0.420758
C	 0.0022531284	 0.0518244826	-0.0149019916	-0.076275
C	-1.3767620228	-0.5894669425	-0.0848722075	-0.161799
C	-1.3481137695	-2.0920089154	 0.2158301049	-0.218319
C	-2.7257923704	-2.7226462294	 0.1306351545	 0.142772
O	-3.3405981308	-2.625879955	-1.1941144835	-0.306554
C	-3.6364638652	-4.0239108053	-1.169325792	 0.114476
C	-2.3825523474	-4.835831405	-1.1619397294	-0.297955
C	-2.9061885673	-4.2422414825	 0.1334014038	-0.157617
H	 0.7282733863	 1.8417357353	-0.2652591989	 0.284378
H	 0.6742245473	-0.4322843511	-0.7429916612	 0.083385
H	 0.4385227292	-0.1106024725	 0.9852642781	 0.079604
H	-2.0358573096	-0.0742891607	 0.6248880524	 0.10256
H	-1.7965213794	-0.4238296034	-1.0825301375	 0.128128
H	-0.6698894986	-2.6012823712	-0.4788374562	 0.098286
H	-0.9587497595	-2.2698993673	 1.2281433605	 0.096125
H	-3.4008622954	-2.2513574882	 0.8585200367	 0.0798
H	-4.6051239456	-4.3453711621	-1.5336106154	 0.102983
H	-2.5196135508	-5.9101364549	-1.2400702482	 0.113697
H	-1.4900339818	-4.4505445348	-1.6458686692	 0.115892
H	-3.1631045769	-4.8436781924	 0.9946537372	 0.097189
59.6667	79.0966	103.7949	141.3581	218.6778	259.6335	274.9221	334.3049	445.2433	487.1242	553.298	715.5077	758.0848	771.9487	814.6351	843.0662	924.7132	950.0603	976.4107	981.1979	1022.7003	1033.1071	1046.2554	1049.9963	1057.1134	1084.2375	1086.8068	1107.5665	1160.3787	1199.8464	1215.823	1226.1187	1261.5492	1286.6167	1300.7139	1311.9865	1317.2785	1358.4024	1377.6026	1414.3856	1463.5102	1472.6026	1480.1535	1501.2675	1529.1029	2953.0963	2978.3285	3006.4705	3016.1502	3036.6698	3063.9925	3093.1093	3119.7369	3180.5237	3201.5539	3211.5863	3830.7532
OCCCC1OC2CC12	OCCC[C@H]1O[C@H]2C[C@@H]12	
InChI=1S/C7H12O2/c8-3-1-2-6-5-4-7(5)9-6/h5-8H,1-4H2	InChI=1S/C7H12O2/c8-3-1-2-6-5-4-7(5)9-6/h5-8H,1-4H2/t5-,6+,7-/m0/s1
