17
gdb 32004	2.91982	1.44771	1.03395	3.1213	76.51	-0.2143	0.0259	0.2402	1139.3504	0.138275	-418.004414	-417.996452	-417.995508	-418.038036	29.072	
O	 0.1370693782	 1.1987287896	 0.5736628841	-0.419632
C	 0.0423786469	 0.0184417612	-0.2223658972	-0.165786
C	-1.3058821139	-0.6159102925	-0.1515216627	 0.251968
N	-2.1363465087	-0.8193431629	-1.1660290617	-0.304255
C	-3.2907323626	-1.3913343312	-0.6688351369	-0.235303
C	-3.1452512196	-1.5310050133	 0.6894677075	 0.280526
C	-3.4695762156	-1.8456799309	 2.1458772698	-0.378366
C	-2.0366774483	-1.2657542039	 2.4528264154	-0.169529
N	-1.9072752639	-1.0494530063	 0.9936542323	-0.023487
H	-0.5127615352	 1.8222383778	 0.2315444346	 0.285004
H	 0.2668898054	 0.2058883712	-1.2796735162	 0.121243
H	 0.815142543	-0.6505544128	 0.1725251511	 0.115134
H	-4.1134867558	-1.6477825356	-1.3166951692	 0.107278
H	-4.2919318158	-1.2771178381	 2.5859776301	 0.130742
H	-3.5941942911	-2.9026941002	 2.3919458925	 0.130408
H	-2.0113543079	-0.3394570836	 3.0301315633	 0.140084
H	-1.3113153451	-1.9763933087	 2.8551422229	 0.133973
34.4054	118.03	142.6993	212.1225	268.0234	372.8242	427.6859	506.6307	649.0474	662.534	700.8564	750.9654	797.7258	824.4071	846.8746	903.9372	959.7468	1040.86	1056.7526	1058.2955	1131.2622	1136.7659	1181.6013	1187.0443	1204.7049	1227.2314	1252.4493	1296.9777	1353.5387	1400.1821	1415.3827	1439.3484	1484.9246	1493.9492	1505.7613	1521.5881	1564.9304	3029.4863	3069.8802	3073.7371	3074.6578	3115.0952	3133.3681	3261.0046	3806.5681
OCC1=NC=C2CCN12	OCc1ncc2CCn12	
InChI=1S/C6H8N2O/c9-4-6-7-3-5-1-2-8(5)6/h3,9H,1-2,4H2	InChI=1S/C6H8N2O/c9-4-6-7-3-5-1-2-8(5)6/h3,9H,1-2,4H2
