18
gdb 124746	2.55949	1.27927	1.01053	4.4344	74.68	-0.2438	-0.0038	0.24	1227.6031	0.146185	-439.087841	-439.07855	-439.077606	-439.122786	33.344	
C	-0.288579011	 1.5315218821	 0.0517437507	-0.403569
C	 0.0169448177	 0.0274476739	 0.044719943	-0.004235
O	-1.1853952691	-0.7394790601	 0.0907393449	-0.435588
C	 0.7484126942	-0.3984878318	-1.1910924555	 0.109601
C	 2.0785257838	-0.6282437784	-1.3847027753	 0.325914
C	 3.2724698425	-0.5740898239	-0.4984196531	-0.49637
O	 2.299712426	-0.9710193028	-2.6688503195	-0.216701
N	 1.0889894005	-0.9850963296	-3.3615143112	-0.144998
C	 0.1878391185	-0.6447982633	-2.4777600861	-0.028637
H	 0.6345851602	 2.1174961969	 0.0143133728	 0.123364
H	-0.9043697957	 1.7986141185	-0.8120510635	 0.131299
H	-0.8280134332	 1.811828288	 0.9646435117	 0.106627
H	 0.6440422743	-0.2018486579	 0.9220216246	 0.068299
H	-1.7248338281	-0.3974194411	 0.8111195536	 0.283876
H	 2.9689462123	-0.4779116818	 0.5462305326	 0.139437
H	 3.8729659535	-1.4823584541	-0.6061660777	 0.153908
H	 3.9149367465	 0.277721429	-0.7476069978	 0.150103
H	-0.851558333	-0.5973433634	-2.7686285342	 0.13767
31.5095	96.6098	146.8695	173.1233	241.3165	255.3274	291.55	300.2855	389.0655	451.3761	521.6916	627.2632	641.1389	709.1554	727.9802	896.4482	908.8344	921.4389	963.1993	1004.3517	1022.8001	1061.7028	1089.0735	1106.761	1167.739	1195.2695	1247.7355	1274.3286	1355.4121	1400.5697	1403.0058	1416.6281	1436.7915	1473.2888	1485.4485	1489.8785	1498.3111	1521.2401	1678.1382	2959.8792	3026.6112	3040.5558	3097.7173	3099.3162	3121.1246	3132.7495	3252.3613	3814.7682
CC(O)C1=C(C)ON=C1	C[C@@H](O)c1c(C)onc1	
InChI=1S/C6H9NO2/c1-4(8)6-3-7-9-5(6)2/h3-4,8H,1-2H3	InChI=1S/C6H9NO2/c1-4(8)6-3-7-9-5(6)2/h3-4,8H,1-2H3/t4-/m1/s1
