13
gdb 128980	4.01727	1.78623	1.23645	5.8296	74.68	-0.2441	-0.0715	0.1726	904.7312	0.095141	-411.83192	-411.826301	-411.825357	-411.86183	22.565	
N	 0.0148127603	 1.2510406816	 0.0091699497	-0.194622
C	 1.1203985082	 2.0339997484	 0.0025964741	 0.032855
C	 2.3817356188	 1.4795282073	-0.012874723	-0.264307
C	 2.4316723473	 0.083847643	-0.0210501708	 0.317553
N	 3.4279424708	-0.7981714107	-0.0357304551	-0.363509
C	 2.7513033781	-1.9921687319	-0.0356239312	 0.032606
N	 1.4184152764	-1.9805899598	-0.02239272	-0.325599
C	 1.1553826413	-0.6474513451	-0.0125153662	 0.341272
N	-0.0343799423	-0.0826666218	 0.0023111733	-0.273631
H	-0.8983242166	 1.6817641548	 0.0205315499	 0.292831
H	 0.9282455048	 3.0990748607	 0.0103509125	 0.148443
H	 3.2646579383	 2.1058763115	-0.0181228439	 0.136053
H	 3.3021751645	-2.925969248	-0.0461727193	 0.120054
245.7295	255.648	428.3377	468.602	573.7933	591.7346	629.9299	640.4255	706.305	787.9183	805.5922	858.6921	925.9031	933.3157	946.5147	980.9144	1042.5914	1113.0788	1158.0355	1236.017	1289.7373	1328.6409	1363.1785	1396.2416	1444.8362	1507.2183	1578.5765	1614.2011	1634.9755	3213.4658	3213.8448	3228.6402	3619.3252
N1C=CC2=NC=NC2=N1	[nH]1ccc2ncnc2n1	
InChI=1S/C5H4N4/c1-2-8-9-5-4(1)6-3-7-5/h1-3,8H	InChI=1S/C5H4N4/c1-2-8-9-5-4(1)6-3-7-5/h1-3,8H
