15
gdb 62506	1.8811	1.6032	1.12911	5.8112	71.24	-0.291	-0.0124	0.2787	1107.1081	0.110745	-416.820055	-416.811002	-416.810058	-416.853741	32.665	
C	-0.1084569691	 1.5801980737	-0.0094054057	-0.467407
C	 0.001901225	 0.0765414066	 0.0304116211	 0.387185
O	-1.1200955117	-0.6270301148	-0.3982908796	-0.447397
C	 1.3415775555	-0.6142802132	-0.2336566092	-0.271864
C	 2.5328514213	 0.1381485524	-0.4939358637	 0.313857
N	 3.4829595704	 0.7546668845	-0.7291383832	-0.328819
C	 0.6960097951	-0.6280798867	 1.1687762351	-0.239039
C	 1.2739715458	 0.1083816771	 2.2560800175	 0.319022
N	 1.7254156906	 0.7036190058	 3.1384431807	-0.326874
H	 0.7884441273	 2.0640683607	 0.3811396311	 0.169625
H	-0.2503932358	 1.9195145364	-1.0415664402	 0.130322
H	-0.9685881002	 1.9004606261	 0.5846717307	 0.149813
H	-1.35111422	-0.320583469	-1.2832031105	 0.29698
H	 1.2742404445	-1.5633709331	-0.7538920132	 0.153163
H	 0.2643096814	-1.5842393865	 1.4441549693	 0.161433
94.7938	125.5356	152.0718	179.967	216.4474	304.1343	320.31	363.7357	403.1903	409.3511	467.013	558.1515	567.2606	661.7961	716.0225	805.3794	846.4235	938.6362	1003.6273	1027.4321	1063.9367	1092.4997	1119.4034	1203.6502	1272.9863	1328.5038	1345.9083	1427.8494	1433.3953	1483.5363	1501.8457	2355.5418	2362.374	3043.1011	3113.2059	3146.5465	3177.0807	3183.9972	3794.8097
CC1(O)C(C#N)C1C#N	C[C@@]1(O)[C@@H](C#N)[C@H]1C#N	
InChI=1S/C6H6N2O/c1-6(9)4(2-7)5(6)3-8/h4-5,9H,1H3	InChI=1S/C6H6N2O/c1-6(9)4(2-7)5(6)3-8/h4-5,9H,1H3/t4-,5+,6+
