16
gdb 127668	3.32102	1.4301	1.07791	2.586	71.14	-0.254	-0.0057	0.2483	1084.2598	0.126186	-434.065849	-434.058045	-434.057101	-434.098779	28.101	
C	 1.086545395	 0.8354432869	 0.5560487088	-0.346386
N	 0.2504527754	-0.3053160971	 0.2228341015	-0.030856
N	 0.3551920601	-0.8695839618	-1.0061935965	-0.248418
C	-0.5352219402	-1.8456754678	-0.9536275331	 0.021415
N	-1.210641876	-1.9455080346	 0.2185572931	-0.323763
C	-0.6885674567	-0.965023709	 0.9437486676	 0.363308
C	-1.1135352	-0.706413212	 2.3364657426	-0.011202
C	-0.1820891315	-0.5061996242	 3.460531878	-0.18906
O	-0.906405308	 0.5923706147	 2.9042103154	-0.230108
H	 2.1098202625	 0.5109768616	 0.7685181397	 0.142725
H	 1.1047138518	 1.5120153151	-0.2996724861	 0.158605
H	 0.6616025794	 1.3394066275	 1.4221217191	 0.176949
H	-0.7084846892	-2.5006093436	-1.7944755799	 0.126858
H	-2.0819850459	-1.1527581174	 2.5501735558	 0.131772
H	-0.4856061935	-0.8066419963	 4.4614816622	 0.134565
H	 0.8905956568	-0.502700202	 3.2752456017	 0.123596
61.8805	142.5788	165.8741	212.7818	230.9322	344.2311	418.1531	452.6816	671.6204	684.7	715.2314	749.0936	859.8149	905.9883	907.9383	991.7623	994.3008	1041.8197	1096.5897	1152.1558	1157.7854	1172.9044	1199.7401	1230.3132	1276.4811	1310.2646	1317.1099	1359.8561	1434.9551	1463.701	1496.3848	1500.378	1521.4124	1529.218	1569.0381	3053.4209	3091.808	3129.5949	3148.5616	3181.8092	3184.3302	3259.8436
CN1N=CN=C1C1CO1	Cn1ncnc1[C@H]1CO1	
InChI=1S/C5H7N3O/c1-8-5(4-2-9-4)6-3-7-8/h3-4H,2H2,1H3	InChI=1S/C5H7N3O/c1-8-5(4-2-9-4)6-3-7-8/h3-4H,2H2,1H3/t4-/m1/s1
