21
gdb 79022	4.54368	1.30555	1.24753	0.1769	85.65	-0.2476	0.1002	0.3478	1097.0397	0.18523	-349.897176	-349.890178	-349.889233	-349.928081	29.963	
C	-0.1843153595	 1.5810405829	-0.0138002804	-0.43403
C	 0.0118195477	 0.0721795533	 0.0154144039	 0.024949
C	 1.2357021605	-0.5949985304	-0.6597262924	-0.067535
C	 2.1579715108	-0.1544324016	 0.5416180383	-0.021713
C	 3.2069782107	-1.2397003521	 0.7577423305	-0.061521
C	 2.9936975977	-2.2087851419	 1.8981256118	-0.297212
C	 2.3745121959	-2.4829337234	 0.5469769394	-0.066764
C	 1.015721759	-1.8611429553	 0.2521169409	-0.014109
C	 0.7968280376	-0.611624102	 1.1673331629	-0.078717
H	 0.7326926385	 2.1331268931	 0.2091877508	 0.115193
H	-0.5336443794	 1.9053978157	-1.0005598647	 0.113863
H	-0.9420016437	 1.8873924478	 0.7164191138	 0.113418
H	-0.9367289921	-0.4298169435	-0.2135634783	 0.057333
H	 1.5016456722	-0.5954323233	-1.7200491486	 0.059404
H	 2.4710609129	 0.8848791811	 0.6353239091	 0.061318
H	 4.1966842437	-1.1214361942	 0.331631669	 0.080522
H	 3.8439016891	-2.824457498	 2.175426444	 0.104083
H	 2.3636297529	-1.9297762321	 2.7356714357	 0.109326
H	 2.7206152862	-3.3229941056	-0.0441121021	 0.081127
H	 0.1642602454	-2.5140460431	 0.050106741	 0.057783
H	 0.531951824	-0.6163551674	 2.2269202853	 0.063279
186.2604	208.6984	235.0252	324.0924	374.0659	487.8423	537.1204	650.8854	680.5685	775.746	787.3487	803.544	816.705	836.775	884.3058	887.306	911.5421	939.9215	985.5328	993.6113	1014.1474	1030.1877	1053.2626	1067.1856	1074.9651	1077.8568	1098.8096	1110.763	1126.5631	1136.8111	1162.921	1177.8017	1196.698	1218.6394	1245.3106	1273.3621	1277.4707	1323.7142	1332.1388	1375.5761	1410.6387	1421.648	1489.7238	1496.1141	1500.8308	3019.8555	3031.1682	3075.0262	3079.9123	3086.1328	3096.9823	3109.265	3123.6065	3127.8653	3169.1131	3177.9424	3209.8408
CC1C2C3C4CC4C2C13	C[C@H]1[C@H]2[C@@H]3[C@H]4C[C@H]4[C@H]2[C@H]13	
InChI=1S/C9H12/c1-3-6-8-4-2-5(4)9(6)7(3)8/h3-9H,2H2,1H3	InChI=1S/C9H12/c1-3-6-8-4-2-5(4)9(6)7(3)8/h3-9H,2H2,1H3/t3-,4-,5+,6-,7+,8-,9+/m0/s1
