16
gdb 45725	2.34275	1.50607	1.1343	5.2709	74.11	-0.2563	-0.0339	0.2224	1093.3582	0.125083	-400.793495	-400.78554	-400.784596	-400.826743	29.403	
O	-0.0232861412	-0.1128648646	 0.1727614885	-0.297312
C	-0.0259559907	 1.0769397994	-0.0221085276	 0.398747
C	-1.3201453006	 1.8673608942	-0.1868294464	-0.360683
C	-1.1675896004	 3.1649399423	-0.9314793632	-0.038657
C	-0.020147347	 3.6160832712	-1.430555206	-0.075946
C	 1.2948345641	 2.873844034	-1.2713027381	-0.211647
C	 1.254088201	 1.8995330864	-0.0670074636	-0.322506
C	 1.6429317259	 2.1780929984	-2.5199722501	 0.279792
N	 1.9123486905	 1.6389446617	-3.5061348471	-0.314088
H	-2.0552697106	 1.2146599529	-0.6712507398	 0.152647
H	-1.7215536076	 2.055200383	 0.8208674119	 0.145288
H	-2.0739742237	 3.7479124764	-1.074008289	 0.110417
H	 0.013767016	 4.5433823297	-1.9929629715	 0.115903
H	 2.0962806223	 3.6014428916	-1.0932707683	 0.139035
H	 1.2810103302	 2.5124216219	 0.8432363399	 0.134116
H	 2.1125607918	 1.2263660215	-0.0568504296	 0.144891
63.943	72.4495	168.489	238.3378	380.0149	397.5328	435.0221	471.7718	529.515	578.8867	608.768	707.6715	733.6915	776.2091	877.9939	928.7947	945.3793	964.2747	1006.1749	1037.7824	1066.5145	1142.3173	1179.555	1232.1604	1234.8065	1271.0736	1321.1385	1340.3671	1356.0462	1407.3203	1434.9292	1458.7281	1729.8516	1830.5618	2355.0157	3006.0882	3029.8512	3040.5517	3067.4307	3129.5397	3159.0352	3189.7048
O=C1CC=CC(C1)C#N	O=C1CC=C[C@@H](C1)C#N	
InChI=1S/C7H7NO/c8-5-6-2-1-3-7(9)4-6/h1-2,6H,3-4H2	InChI=1S/C7H7NO/c8-5-6-2-1-3-7(9)4-6/h1-2,6H,3-4H2/t6-/m0/s1
