18
gdb 111663	2.31926	1.68398	1.31747	2.6106	73.35	-0.2436	0.026	0.2696	1042.0432	0.148672	-439.077353	-439.069221	-439.068276	-439.110289	30.365	
C	-0.5339958207	 0.9660985578	-0.1392608919	-0.248066
O	 0.4687254638	-0.0101608657	 0.1080257858	-0.235015
C	 0.9288046724	-0.6211090624	-1.0447044071	 0.120132
C	 1.4403619003	-2.0160576556	-0.9416455541	-0.146932
C	 1.0132143164	-2.7875969506	 0.2974321311	-0.095744
O	-0.4209884011	-2.8626653733	 0.2717799009	-0.24146
C	-0.9327745258	-2.3619746567	-0.8909467082	 0.436959
N	-2.1521926959	-2.4176654827	-1.2225943816	-0.560837
C	 0.1517299777	-1.7516880818	-1.7073043835	-0.194628
H	-0.1518002098	 1.7727123936	-0.7818362303	 0.10782
H	-1.4157074175	 0.5183994962	-0.6133179877	 0.141491
H	-0.8126001955	 1.3848832301	 0.8297452413	 0.131409
H	 1.4439202204	 0.0452732969	-1.7391224753	 0.094835
H	 2.3654384938	-2.2945367983	-1.4310184387	 0.106112
H	 1.4175476712	-3.8055772806	 0.2865013459	 0.114665
H	 1.3056401672	-2.2942770162	 1.2284712804	 0.131657
H	-2.689354391	-2.9171728053	-0.5119674397	 0.220716
H	 0.0561016742	-1.7845623954	-2.7838375473	 0.116885
95.7883	116.78	173.6394	184.1787	222.6771	301.5364	435.142	476.0686	536.2859	668.4749	713.3238	757.2455	781.4523	824.4154	877.6119	888.6846	958.3932	982.8184	1001.0153	1003.9255	1074.3429	1084.7178	1105.1579	1115.1457	1135.5659	1185.4542	1203.5585	1235.1285	1257.5742	1272.9276	1339.1293	1353.0846	1392.8519	1437.9851	1488.7327	1490.8098	1507.9447	1514.1575	1766.1502	2996.2591	3043.9775	3066.5006	3087.3136	3094.9489	3130.6719	3189.4807	3215.1587	3475.2274
COC1C2COC(=N)C12	CO[C@H]1[C@H]2CO[C]([NH])[C@@H]12	
InChI=1S/C6H9NO2/c1-8-5-3-2-9-6(7)4(3)5/h3-5,7H,2H2,1H3	InChI=1S/C6H9NO2/c1-8-5-3-2-9-6(7)4(3)5/h3-5,7H,2H2,1H3/t3-,4+,5-/m0/s1
