15
gdb 105436	2.50088	1.55545	1.25327	2.5438	66.18	-0.2843	-0.0065	0.2778	1028.747	0.112074	-453.956487	-453.948181	-453.947237	-453.989724	29.558	
C	 0.0576297864	 1.4260294293	 0.1194694165	-0.270515
O	-0.0399844935	 0.0042655968	-0.0047229923	-0.251193
C	 0.5665088525	-0.5517917287	-1.1135524263	 0.33274
C	 0.2490265437	-2.0761625263	-1.143533976	-0.233039
N	-0.6832823058	-2.2453872262	-2.2587501824	-0.245469
C	-0.7593244871	-1.119942497	-2.8260637806	 0.11573
O	-0.0338680493	-0.0686901262	-2.3380732665	-0.243601
C	 2.010555247	-0.2292116682	-1.1791540121	 0.244292
N	 3.1443758793	-0.0099358203	-1.1901648981	-0.336132
H	 1.1039174128	 1.7428940763	 0.2017015269	 0.144827
H	-0.4111597767	 1.9254376532	-0.733531405	 0.141079
H	-0.4740966663	 1.6823004177	 1.0360638284	 0.145293
H	 1.1431522064	-2.6846462384	-1.3015990302	 0.147845
H	-0.2091756608	-2.360523015	-0.1935117288	 0.151499
H	-1.3535363787	-0.8810393468	-3.6999833135	 0.156644
90.7457	116.3432	160.7702	179.5452	200.8013	277.3919	415.4379	440.0594	507.0425	531.568	569.0368	666.1379	784.3999	876.7613	899.6683	953.3445	980.3469	1015.7253	1049.7495	1118.8558	1133.5997	1177.9871	1182.5138	1221.2707	1257.2078	1319.1292	1333.7402	1472.8721	1476.7712	1487.9297	1507.0236	1717.3144	2360.6981	3030.8653	3071.9513	3105.4537	3122.3433	3152.6437	3229.6235
COC1(CN=CO1)C#N	CO[C@]1(CN=CO1)C#N	
InChI=1S/C5H6N2O2/c1-8-5(2-6)3-7-4-9-5/h4H,3H2,1H3	InChI=1S/C5H6N2O2/c1-8-5(2-6)3-7-4-9-5/h4H,3H2,1H3/t5-/m1/s1
