12
gdb 21537	3.57171	1.98036	1.27556	2.7811	65.09	-0.2235	-0.0338	0.1897	861.4528	0.086755	-373.732636	-373.725747	-373.724803	-373.763669	25.283	
N	 0.0340516764	 1.4353117891	 0.1647961325	-0.61626
C	 0.0163701273	 0.0565086928	 0.0467379509	 0.121097
C	-1.0983724553	-0.7821467379	 0.0196233138	 0.239139
N	-0.6038079568	-2.0661824863	-0.0252462307	-0.282097
N	 0.7221970058	-2.1055703931	-0.0356386118	-0.189662
C	 1.1154967607	-0.8326630668	 0.0096263061	-0.055941
C	-2.4690352245	-0.4688775338	 0.0249647424	 0.202404
N	-3.5949567856	-0.187708591	 0.0230001859	-0.351913
H	 0.8419118639	 1.8823621368	-0.243214723	 0.258816
H	-0.8220416003	 1.8959657966	-0.1105895627	 0.264841
H	-1.1347653203	-2.9204451803	-0.0542674591	 0.289106
H	 2.1674448386	-0.5895001163	 0.0165720658	 0.12047
132.4466	160.4396	261.045	311.9509	357.5668	437.7943	517.7218	539.4227	610.5977	611.6761	687.2404	723.5216	740.3535	849.58	953.557	1071.4736	1167.8979	1240.7244	1273.1391	1288.0404	1409.8227	1449.1875	1531.7766	1616.7141	1662.7425	2326.755	3251.8444	3562.6455	3660.1395	3673.1114
NC1=C(NN=C1)C#N	Nc1c([nH]nc1)C#N	
InChI=1S/C4H4N4/c5-1-4-3(6)2-7-8-4/h2H,6H2,(H,7,8)	InChI=1S/C4H4N4/c5-1-4-3(6)2-7-8-4/h2H,6H2,(H,7,8)
