17
gdb 30105	3.88049	1.14331	1.01826	2.6651	76.11	-0.2291	0.0007	0.2298	1192.0134	0.13766	-418.012823	-418.004962	-418.004018	-418.045905	29.146	
C	 0.1055826637	 1.566908212	-0.3204355428	-0.407836
C	 0.0125420526	 0.0936613365	-0.0103818249	 0.007805
N	 1.2529794003	-0.6894870478	-0.0425479546	-0.332997
C	 0.539604651	-0.542974854	 1.241401624	-0.176269
C	 1.2100925496	 0.1484570461	 2.3492265252	 0.394987
C	 1.131483706	 0.0167391863	 3.6994390378	-0.200807
N	 1.9817593965	 0.9312210819	 4.3093527049	-0.257572
C	 2.5233278685	 1.5578901164	 3.3188517257	 0.068791
O	 2.1128652125	 1.1474833617	 2.095439796	-0.171204
H	 1.0261218091	 1.9934643149	 0.0789770288	 0.146914
H	 0.0948479691	 1.7253695955	-1.4041088751	 0.12081
H	-0.7470695107	 2.1050994549	 0.1072246959	 0.118114
H	-0.8808030843	-0.391408037	-0.4053315798	 0.086829
H	 1.097151638	-1.6172623317	-0.426961762	 0.236104
H	-0.0306231268	-1.3963994708	 1.6033909422	 0.094343
H	 0.5290258292	-0.6689308153	 4.2740095056	 0.122277
H	 3.2538153158	 2.3510374004	 3.3415284129	 0.149713
54.3116	125.7704	168.8253	197.3824	274.7025	380.6413	438.2148	488.7626	665.7793	681.1333	723.2632	777.6084	830.8436	845.4961	862.007	929.4226	941.5076	975.1577	1003.2899	1016.3048	1071.1362	1125.3538	1133.3465	1141.0787	1171.8298	1230.8625	1248.2391	1254.7592	1289.5352	1368.0775	1395.7281	1418.5093	1452.517	1493.1655	1498.9343	1553.0513	1635.1934	3039.7758	3096.2846	3098.0735	3127.4438	3153.8693	3262.4819	3278.6684	3507.2666
CC1NC1C1=CN=CO1	C[C@H]1N[C@H]1c1cnco1	
InChI=1S/C6H8N2O/c1-4-6(8-4)5-2-7-3-9-5/h2-4,6,8H,1H3	InChI=1S/C6H8N2O/c1-4-6(8-4)5-2-7-3-9-5/h2-4,6,8H,1H3/t4-,6-/m1/s1
