18
gdb 127144	2.56044	1.50656	0.99563	4.5463	75.38	-0.2263	-0.0229	0.2034	1190.2354	0.146898	-435.22518	-435.216147	-435.215203	-435.258996	32.684	
C	 0.0047486542	 1.4074739984	-0.9678607866	-0.326572
N	-0.0775617358	 0.1356057476	-0.2583440562	-0.155454
C	 0.61921081	 0.1312086177	 1.0225437208	-0.348653
C	-1.2948927496	-0.5108279111	-0.3395358861	 0.324724
N	-2.3218519164	 0.005832913	-0.9744775859	-0.184489
O	-3.3023831957	-0.9583762873	-0.9427474834	-0.172092
N	-2.8824279682	-2.0635939259	-0.2686572816	-0.129753
C	-1.6580776929	-1.8317478822	 0.1156483237	 0.270533
C	-0.871686131	-2.8726288373	 0.8430480929	-0.508968
H	 1.0535563119	 1.7127190536	-1.0146519963	 0.119766
H	-0.3825272885	 1.2864358295	-1.9805392947	 0.153878
H	-0.5747346213	 2.2035124812	-0.4764605468	 0.124004
H	 0.1687793828	 0.8256105479	 1.7497232822	 0.120988
H	 0.6258383807	-0.8671849878	 1.4588506803	 0.135742
H	 1.657621828	 0.4334861169	 0.8601143657	 0.133009
H	-1.4149100353	-3.8189441044	 0.8171424821	 0.154998
H	 0.1087901843	-3.0175348635	 0.3786111273	 0.144492
H	-0.708855317	-2.6040907863	 1.8921633528	 0.143848
64.5019	150.4675	192.8976	196.434	227.8836	236.2951	278.9923	305.2663	380.1677	419.3775	523.6162	608.0084	623.4068	703.9822	755.8909	920.91	960.0119	965.5522	1014.5499	1067.8006	1075.3609	1078.8943	1124.6872	1177.6758	1199.3607	1251.2044	1336.1806	1414.6609	1427.4755	1447.7416	1466.7139	1476.9679	1483.0693	1490.2349	1494.4236	1502.4464	1509.3421	1571.7376	1629.7441	2980.669	2996.7374	3040.8672	3086.0922	3087.1542	3098.0951	3139.0649	3142.6432	3155.4916
CN(C)C1=NON=C1C	CN(C)c1nonc1C	
InChI=1S/C5H9N3O/c1-4-5(8(2)3)7-9-6-4/h1-3H3	InChI=1S/C5H9N3O/c1-4-5(8(2)3)7-9-6-4/h1-3H3
