15
gdb 5019	3.32884	2.22812	1.34567	6.1442	71.07	-0.2124	-0.0085	0.2039	873.3665	0.121081	-362.729868	-362.722843	-362.721899	-362.760903	26.717	
C	-0.0288070264	 1.5103554231	 0.0169121208	-0.472769
C	-0.0051608139	 0.0120000721	-0.0196904702	 0.134796
C	-0.0358617561	-0.6895097595	-1.1788617969	-0.061096
N	-0.0137851311	-2.0623909406	-1.1993374012	-0.322906
C	 0.0406456942	-2.7785422173	-0.0367900369	 0.020611
C	 0.074147206	-2.1534854747	 1.1635432047	-0.235731
C	 0.0538905095	-0.6971811435	 1.2724721769	 0.311317
O	 0.0830966437	-0.095551265	 2.3445899741	-0.395143
H	 0.8583804682	 1.8932741874	 0.5321575449	 0.142948
H	-0.0732741878	 1.9442669151	-0.9860053767	 0.103089
H	-0.8875997917	 1.8641257145	 0.5970132266	 0.142974
H	-0.079419502	-0.2134870163	-2.1522716116	 0.123588
H	-0.0381739345	-2.5441139744	-2.0815252235	 0.26654
H	 0.0544423321	-3.8562493065	-0.1497512193	 0.131413
H	 0.1172404898	-2.7296738146	 2.0795063884	 0.11037
136.4365	153.2752	266.9262	284.357	428.5525	449.8773	452.2863	537.4508	552.8024	586.4223	731.0912	755.9584	845.3614	882.0863	888.9535	958.6551	1004.2216	1043.0508	1064.4647	1136.6735	1172.2448	1263.1636	1265.2917	1396.6766	1414.6479	1423.2121	1466.0362	1487.7668	1543.5546	1632.9082	1686.7071	1718.5776	3035.8385	3092.8515	3115.3482	3190.4676	3196.9225	3218.5727	3668.6638
CC1=CNC=CC1=O	Cc1c[nH]ccc1=O	
InChI=1S/C6H7NO/c1-5-4-7-3-2-6(5)8/h2-4H,1H3,(H,7,8)	InChI=1S/C6H7NO/c1-5-4-7-3-2-6(5)8/h2-4H,1H3,(H,7,8)
