17
gdb 40666	3.90727	1.22028	1.0297	2.6604	72.62	-0.2524	-0.0085	0.2439	1145.9081	0.136396	-421.781055	-421.773703	-421.772759	-421.813353	28.27	
C	 0.237759711	 1.5271782849	-0.0025816092	-0.184431
O	 1.2217688181	 0.5016866577	-0.1484971742	-0.240123
C	-0.1465046114	 0.1110073655	-0.0071717592	 0.092745
C	-0.5079774697	-0.6275765051	 1.2659177484	-0.099301
C	-1.9906258517	-0.5579130738	 1.6028724219	-0.094187
C	-2.5425128216	-1.7657399509	 1.7384346951	-0.088365
C	-1.5282286315	-2.8283810368	 1.4653662423	-0.003229
O	-1.0030288658	-2.7722855323	 0.1161367386	-0.256135
C	-0.2644163755	-2.137234493	 1.1626395458	 0.018157
H	 0.2698199531	 2.0729628653	 0.9403190522	 0.1103
H	 0.0631845037	 2.1400230249	-0.8856409458	 0.117113
H	-0.59132383	-0.3065061894	-0.9096465749	 0.113756
H	 0.0993145147	-0.2052613643	 2.0776957901	 0.092429
H	-2.516348979	 0.3877150078	 1.6755713083	 0.106487
H	-3.5773179298	-1.971924516	 1.9815682153	 0.108001
H	-1.5908094623	-3.8244799813	 1.8917047151	 0.100542
H	 0.7187439478	-2.5528129531	 1.3624605103	 0.10624
78.7415	127.0979	163.4433	322.8092	351.281	414.1437	518.1996	549.0695	717.692	745.9888	813.6852	838.7749	860.1917	865.6765	867.4124	918.6135	944.4304	980.3235	986.9802	1005.7083	1050.1075	1102.7988	1109.6302	1126.1228	1148.2976	1160.3196	1181.4698	1245.4173	1255.9775	1286.8808	1290.0559	1299.1807	1375.302	1407.1148	1436.0811	1528.3293	1661.9111	3023.4086	3079.1825	3126.3625	3157.7804	3165.9483	3171.5039	3190.5465	3220.7577
C1OC1C1C=CC2OC12	C1O[C@H]1[C@H]1C=C[C@H]2O[C@@H]12	
InChI=1S/C7H8O2/c1-2-5-7(9-5)4(1)6-3-8-6/h1-2,4-7H,3H2	InChI=1S/C7H8O2/c1-2-5-7(9-5)4(1)6-3-8-6/h1-2,4-7H,3H2/t4-,5-,6-,7+/m1/s1
