19
gdb 102439	2.38835	1.08493	0.96155	3.9469	77.66	-0.235	-0.0863	0.1487	1335.8769	0.156978	-419.216066	-419.205587	-419.204643	-419.252065	36.427	
C	 0.5905941556	-0.7273831605	 1.2123166032	-0.388155
C	-0.0309276705	-0.1685307948	-0.0696426873	-0.222007
C	 0.8109885266	-0.4432116347	-1.3596933334	-0.07347
N	 2.176005896	 0.0288091912	-1.3754949358	-0.285605
C	 2.3786418037	 1.4371264348	-1.0810487047	-0.323531
C	 0.8168143642	-1.9393005516	-1.6140248662	 0.301428
O	 1.7716205048	-2.6591228294	-1.463563271	-0.281978
C	-0.484512614	-2.5085931984	-2.0299386012	 0.244729
N	-1.5015538084	-2.9456347376	-2.3646842579	-0.306745
H	 0.6889624588	-1.8172213446	 1.1778094432	 0.13287
H	 1.5875703239	-0.3117394832	 1.3884574846	 0.124043
H	-0.0294862879	-0.478176699	 2.0777892059	 0.127261
H	-1.0387162778	-0.5744867085	-0.215592991	 0.126473
H	-0.1530462075	 0.9162847572	 0.0126386639	 0.11721
H	 0.2651038333	 0.0226435291	-2.1944604136	 0.11194
H	 2.7712712156	-0.5769889216	-0.8250067479	 0.23658
H	 1.8233918206	 2.0454578336	-1.804547425	 0.125076
H	 2.0718126938	 1.7574583117	-0.071550646	 0.103749
H	 3.4396244892	 1.6736610065	-1.2001394199	 0.130132
52.1951	96.9512	108.3066	134.19	167.8045	207.4148	220.6688	265.6927	284.1725	316.1832	381.4876	439.9604	552.3311	593.0092	669.9139	714.4267	771.3107	848.3054	869.9632	970.6803	1038.6886	1062.0129	1066.8906	1121.7501	1157.3674	1166.8227	1234.0992	1262.3387	1298.1849	1366.393	1372.1403	1422.246	1459.132	1480.0407	1495.0266	1500.2527	1501.2032	1504.66	1524.4008	1790.3798	2335.6884	2965.032	2995.109	3042.5067	3045.1369	3055.0342	3077.7305	3106.4186	3111.0501	3115.6016	3567.2059
CCC(NC)C(=O)C#N	CC[C@@H](NC)C(=O)C#N	
InChI=1S/C6H10N2O/c1-3-5(8-2)6(9)4-7/h5,8H,3H2,1-2H3	InChI=1S/C6H10N2O/c1-3-5(8-2)6(9)4-7/h5,8H,3H2,1-2H3/t5-/m1/s1
