15
gdb 18309	3.77168	2.23886	1.45264	1.6641	69.13	-0.2245	-0.0016	0.2228	830.2227	0.121551	-358.838212	-358.831679	-358.830735	-358.869106	24.606	
N	 0.0931878289	 1.3795706663	 0.0209421651	-0.532542
C	 0.081221356	 0.1128358264	 0.076988631	 0.308727
C	 1.1952942791	-0.9769827942	-0.0205193137	-0.273451
N	 0.5997257072	-2.2782733759	 0.386621312	-0.353941
C	-0.6315098323	-1.9816762855	 0.5067662933	 0.394352
C	-2.0012716772	-2.392576633	 1.0320825015	-0.361909
C	-2.357270455	-0.8602816175	 0.9033958022	-0.173757
N	-1.0394627467	-0.6878519487	 0.2534286252	-0.065842
H	 1.0446780253	 1.7227283461	-0.1075961264	 0.221223
H	 1.5752171866	-1.0337317601	-1.0476776966	 0.140109
H	 2.0414236757	-0.7299624164	 0.6288958781	 0.136095
H	-2.5724746135	-3.0451734897	 0.3696680141	 0.143839
H	-2.0065371361	-2.8015959834	 2.0429205854	 0.145146
H	-3.2033289346	-0.6080983449	 0.2615739487	 0.134001
H	-2.4420273434	-0.3341555494	 1.8579889003	 0.137951
91.668	166.0798	249.9484	306.3726	490.7934	541.2101	622.7649	656.1598	699.6095	786.4954	806.8916	838.491	897.9409	927.5963	972.3182	1002.7881	1057.5271	1079.8796	1135.986	1180.9084	1184.8381	1192.9895	1224.2855	1248.3644	1276.7175	1360.2631	1386.1445	1456.1559	1465.098	1514.6658	1737.2387	1754.3493	3041.0174	3066.5304	3083.3124	3092.5483	3122.3867	3151.3382	3485.203
N=C1CN=C2CCN12	[NH][C]1C[N][C]2CCN12	
InChI=1S/C5H7N3/c6-4-3-7-5-1-2-8(4)5/h6H,1-3H2	InChI=1S/C5H7N3/c6-4-3-7-5-1-2-8(4)5/h6H,1-3H2
