15
gdb 121790	2.36819	0.96642	0.78418	4.0362	67.19	-0.2881	-0.044	0.2441	1434.8373	0.110544	-453.930345	-453.920767	-453.919823	-453.966233	32.36	
O	 0.0034467391	 1.4517989642	-0.1874952346	-0.410922
C	-0.036105602	 0.0569719052	 0.0126136932	-0.064396
C	-1.4598197549	-0.4711137692	 0.0777637194	-0.094486
O	-2.0374410485	-0.2328635826	-1.2148175269	-0.249312
C	-3.3787034279	-0.6215926126	-1.3279078368	-0.130936
C	-4.2913488341	 0.238408499	-0.5331227172	 0.290428
N	-4.9752183537	 0.896629801	 0.1237857209	-0.29712
C	-3.7520839156	-0.5819574867	-2.7527971492	 0.306086
N	-4.0495460857	-0.5796897801	-3.8671948756	-0.287619
H	-0.4631263307	 1.6343563372	-1.010556112	 0.295733
H	 0.5120315875	-0.4880770471	-0.7713686526	 0.106665
H	 0.4577032104	-0.1439396512	 0.968737508	 0.124296
H	-1.4742288503	-1.548580755	 0.3003758261	 0.1067
H	-2.0297254896	 0.0660342756	 0.8467858087	 0.136921
H	-3.522125304	-1.6570780376	-0.9748228415	 0.16796
41.6185	66.392	110.7684	132.2459	175.9144	241.5747	282.6399	336.4087	372.4979	395.9148	494.7776	518.835	575.7888	640.6671	866.4149	880.9174	916.7221	1017.8743	1044.2546	1088.5157	1126.3439	1132.9697	1233.5713	1269.1153	1325.1554	1330.4875	1393.4433	1413.0199	1435.2447	1493.4126	1502.161	2365.3991	2382.1862	2972.836	2991.5259	2996.917	3059.6356	3086.7483	3812.2135
OCCOC(C#N)C#N	OCCOC(C#N)C#N	
InChI=1S/C5H6N2O2/c6-3-5(4-7)9-2-1-8/h5,8H,1-2H2	InChI=1S/C5H6N2O2/c6-3-5(4-7)9-2-1-8/h5,8H,1-2H2
