15
gdb 33928	3.52037	1.38148	1.1694	2.9424	70.91	-0.2577	-0.0127	0.245	1024.7939	0.11474	-416.816062	-416.808744	-416.8078	-416.848004	27.466	
N	-0.0685998349	-1.134458445	-0.303297835	-0.335868
C	-0.038620525	 0.0123545725	-0.1500097664	 0.226838
C	-0.0081890164	 1.433758393	 0.0507771084	 0.10008
C	 0.4538077794	 2.3155242633	-1.094262375	-0.319297
C	 1.3473724099	 2.144985787	 0.1073332733	-0.010865
N	 1.5139391436	 3.2340670639	 1.0121157486	-0.250506
C	 0.4841933304	 3.7092809455	 1.572475846	 0.122815
O	-0.8025394722	 3.2978401387	 1.4618662545	-0.229564
C	-1.0440879586	 1.9487731674	 1.0423974831	-0.144722
H	 0.7348123479	 1.8246756809	-2.0182779258	 0.147112
H	-0.0461975558	 3.2710149587	-1.2084310952	 0.144805
H	 2.2342850057	 1.5345121233	-0.0142098564	 0.128178
H	 0.5499739335	 4.5802320972	 2.2198579082	 0.139331
H	-2.0497044073	 1.94725734	 0.6146151822	 0.142401
H	-1.0417896803	 1.3036891637	 1.9288032594	 0.139262
113.0077	143.2409	164.1447	282.3795	356.4885	440.4723	508.7478	545.7687	564.6963	579.8589	694.6902	807.539	866.0781	878.3281	934.6784	943.1771	971.0262	1034.3902	1053.5387	1082.6789	1092.3707	1149.5326	1174.7679	1246.5232	1287.1532	1298.149	1368.7004	1410.8374	1426.0233	1476.8469	1513.2976	1724.7761	2346.7672	3039.414	3099.3234	3143.8976	3176.4539	3184.8971	3240.1803
N#CC12CC1N=COC2	N#C[C@]12C[C@H]1N=COC2	
InChI=1S/C6H6N2O/c7-2-6-1-5(6)8-4-9-3-6/h4-5H,1,3H2	InChI=1S/C6H6N2O/c7-2-6-1-5(6)8-4-9-3-6/h4-5H,1,3H2/t5-,6+/m1/s1
