15
gdb 124041	3.82225	1.7131	1.20562	2.3258	75.02	-0.2164	-0.0187	0.1977	961.7216	0.116229	-416.827299	-416.82081	-416.819866	-416.858256	25.465	
C	-0.0033086709	 1.4676980715	 0.0843943831	-0.147821
O	 1.3239945636	 2.0387971293	 0.0257116355	-0.279146
C	 2.1654062693	 1.4415727461	-0.8355552273	 0.502262
C	 3.3148643311	 1.8786466875	-1.4477039418	-0.393581
C	 3.7845950719	 0.726656729	-2.1318658076	 0.026911
N	 3.008684082	-0.3347566557	-1.9640062669	-0.290012
N	 2.0064718708	 0.1243416752	-1.160161258	-0.058216
C	 0.995817129	-0.6565214159	-0.6125344562	 0.042694
C	 0.012056793	-0.0381317932	 0.041960879	-0.152177
H	-0.4301982389	 1.8429087903	 1.0169222127	 0.134087
H	-0.5954123634	 1.881756272	-0.7478558117	 0.12308
H	 3.7442063942	 2.8648330383	-1.4072266637	 0.116018
H	 4.6653854798	 0.6448058239	-2.7524150766	 0.117996
H	 1.1135223858	-1.7235832091	-0.741741151	 0.141219
H	-0.7839252772	-0.5915769893	 0.5217948705	 0.116687
133.5616	140.1706	317.7985	419.9996	447.8684	537.6678	617.4777	654.2593	675.7455	721.7114	731.9917	775.7383	861.9575	890.2029	928.4375	939.0393	953.2033	1018.5253	1030.4338	1057.8124	1155.9456	1204.1763	1230.0773	1257.8303	1284.5544	1359.8729	1387.3031	1402.1531	1462.7527	1493.8931	1522.6718	1622.0408	1715.8133	2970.8194	3102.7522	3220.97	3242.3547	3245.0372	3283.8316
C1OC2=CC=NN2C=C1	C1Oc2ccnn2C=C1	
InChI=1S/C6H6N2O/c1-4-8-6(9-5-1)2-3-7-8/h1-4H,5H2	InChI=1S/C6H6N2O/c1-4-8-6(9-5-1)2-3-7-8/h1-4H,5H2
