18
gdb 73048	3.29289	1.03707	0.92556	4.0745	76.22	-0.2647	0.0384	0.3032	1283.7599	0.147432	-401.928841	-401.920206	-401.919262	-401.96267	32.393	
O	-0.0478844318	 1.4313819762	-0.2353213841	-0.455335
C	 0.0186300537	 0.0579761163	-0.0883728692	 0.363283
C	 0.6025654619	-0.8841912685	-1.1505950062	-0.303245
C	-0.5765802035	-1.8756943952	-0.8780038992	-0.23117
C	-1.1463767238	-0.8996756843	 0.1585878125	-0.109864
C	-0.1404266751	-0.6079291854	 1.2523672066	-0.078452
C	 0.8224811727	-1.6243316693	 1.8566259483	-0.380662
C	 0.1716483332	-2.4859247349	 2.8447692558	 0.268382
N	-0.357362915	-3.1542192194	 3.6251601481	-0.308135
H	 0.7430084903	 1.8239618371	 0.1506783603	 0.286898
H	 0.5349612184	-0.4372352938	-2.1442846789	 0.119444
H	 1.6256041858	-1.2458335437	-0.9989340566	 0.091957
H	-1.2260353041	-1.9932859517	-1.7469226232	 0.115816
H	-0.3117826666	-2.8721520627	-0.5116492933	 0.106883
H	-2.1963698255	-0.6799211379	 0.3056926566	 0.102565
H	-0.546768534	 0.0844446717	 1.9856072262	 0.110116
H	 1.2631551844	-2.2616895814	 1.0839389538	 0.153367
H	 1.658021869	-1.110495643	 2.3471001426	 0.148151
41.3097	115.6533	205.8302	231.5403	253.3896	283.909	372.0597	388.4887	437.8054	482.6275	582.2345	627.7268	725.1867	790.6081	828.1899	895.3291	912.1586	941.9814	950.6638	965.4009	1011.4728	1033.1241	1073.5761	1120.9912	1131.21	1199.8291	1219.9642	1221.7811	1234.1096	1258.2931	1299.0364	1309.9183	1321.0795	1354.8426	1461.2591	1466.0003	1488.1014	1515.4367	2360.7084	3041.3355	3042.766	3059.9145	3090.6558	3107.377	3124.1762	3148.5803	3194.7948	3792.8156
OC12CCC1C2CC#N	O[C@]12CC[C@H]1[C@H]2CC#N	
InChI=1S/C7H9NO/c8-4-2-6-5-1-3-7(5,6)9/h5-6,9H,1-3H2	InChI=1S/C7H9NO/c8-4-2-6-5-1-3-7(5,6)9/h5-6,9H,1-3H2/t5-,6+,7+/m0/s1
