21
gdb 62729	2.37775	1.5024	1.23652	3.2292	83.94	-0.2334	-0.0059	0.2275	1139.7182	0.180241	-387.096473	-387.086812	-387.085868	-387.130459	36.501	
C	-0.0248477284	 1.5184940166	 0.0551695359	-0.462972
C	 0.0748277329	 0.000127458	 0.0225642833	 0.274073
C	-1.1592801388	-0.6361912905	-0.6026730915	-0.45783
C	 1.3538092535	-0.7368676635	-0.234350727	-0.145143
C	 2.5733959497	 0.0143288236	 0.3103639173	-0.375705
C	 1.9014888528	-0.0726387621	 1.7043291315	 0.355194
O	 2.2973478431	 0.1459333309	 2.8163979522	-0.322384
C	 0.6906288685	-0.7975183018	 1.1848545494	 0.173218
C	-0.007864634	-1.8652953138	 1.9818100743	-0.500629
H	 0.8304441976	 1.9982513729	 0.5341879043	 0.129964
H	-0.1116368454	 1.919928391	-0.9613602647	 0.116537
H	-0.9204883093	 1.8246899587	 0.6070291917	 0.122102
H	-1.3330235785	-0.2054685194	-1.5950546109	 0.121351
H	-1.0543976726	-1.7169909705	-0.7265483953	 0.119725
H	-2.05498667	-0.4488030472	-0.000331447	 0.122553
H	 1.4053468373	-1.5478506518	-0.9510528192	 0.094716
H	 3.4878370077	-0.5871618876	 0.3137453961	 0.128768
H	 2.8013680636	 1.0002152818	-0.1032985726	 0.118318
H	-0.5299697523	-1.4189912541	 2.8354413585	 0.137236
H	-0.7444010692	-2.4149826723	 1.3921289845	 0.121631
H	 0.7122309319	-2.5853800989	 2.383995239	 0.129278
85.8731	106.3614	175.6776	195.1305	218.0013	259.3353	276.8601	302.3432	367.4415	394.4853	467.7034	514.6192	562.29	650.8578	670.0429	674.8048	812.1142	865.2561	934.4221	948.0205	969.0507	988.5838	1018.3531	1028.1973	1034.5125	1093.9719	1108.3066	1140.6067	1161.37	1210.18	1227.5291	1276.5965	1317.4381	1401.6287	1414.8389	1417.8318	1430.7088	1461.3953	1483.1251	1485.1774	1493.326	1494.4718	1508.2112	1515.0293	1866.5669	3028.7738	3032.94	3038.1724	3056.3569	3086.152	3091.9552	3093.2451	3105.8038	3113.6027	3126.7122	3128.6627	3185.5657
CC1(C)C2CC(=O)C12C	CC1(C)[C@H]2CC(=O)[C@@]12C	
InChI=1S/C8H12O/c1-7(2)5-4-6(9)8(5,7)3/h5H,4H2,1-3H3	InChI=1S/C8H12O/c1-7(2)5-4-6(9)8(5,7)3/h5H,4H2,1-3H3/t5-,8+/m1/s1
