17
gdb 105131	2.39601	1.26918	0.99785	4.5211	81.25	-0.239	0.0011	0.2401	1227.2962	0.134014	-380.822106	-380.812632	-380.811688	-380.856398	34.655	
C	-0.4312760592	 1.3136477969	 0.0770211141	-0.331107
N	 0.3634847667	 0.0994543813	-0.0592284612	-0.344718
C	 0.8298017345	-0.4712316276	 1.1640251598	 0.169466
C	-0.1145981508	-1.0615610365	 2.2066565785	-0.315324
C	 0.7311361958	-1.9927476873	 1.3626607187	-0.263587
C	 0.1344789354	-2.7819831955	 0.3269902556	 0.308313
C	-0.3642567105	-3.4314447782	-0.5546784856	-0.414408
C	 2.0359257718	 0.1479815976	 1.6804437997	 0.288157
N	 2.9852238065	 0.6498686165	 2.1098731134	-0.34735
H	 0.181292603	 2.1044418167	 0.5220281327	 0.144183
H	-0.7371120727	 1.6491761239	-0.9170064634	 0.129059
H	-1.3336649557	 1.1940430862	 0.6993051677	 0.102342
H	-0.0931974169	-0.6044419247	-0.6265386446	 0.237785
H	 0.1392070794	-0.9673822492	 3.255867614	 0.14329
H	-1.1710938336	-1.0067282881	 1.9721453766	 0.139119
H	 1.5847617525	-2.4459748835	 1.8560074038	 0.145489
H	-0.8000126963	-4.0204358884	-1.3238538299	 0.20929
81.0128	106.4906	127.2798	173.5529	207.8101	246.6197	258.4298	367.2701	408.1293	488.671	531.4973	581.6995	607.5469	627.989	654.2591	671.2493	704.7544	805.0032	882.1868	925.2143	982.7949	1039.0295	1066.0331	1092.9816	1133.6134	1153.7405	1178.5399	1236.8108	1314.8559	1383.7876	1462.4688	1467.5795	1484.6827	1497.2293	1521.0462	2235.1127	2351.7194	2967.6795	3072.5081	3119.8728	3145.544	3166.3521	3243.3806	3500.3895	3551.043
CNC1(CC1C#C)C#N	CN[C@]1(C[C@H]1C#C)C#N	
InChI=1S/C7H8N2/c1-3-6-4-7(6,5-8)9-2/h1,6,9H,4H2,2H3	InChI=1S/C7H8N2/c1-3-6-4-7(6,5-8)9-2/h1,6,9H,4H2,2H3/t6-,7-/m1/s1
