21
gdb 76383	2.42571	1.16537	1.11383	2.1385	80.08	-0.2385	-0.0076	0.2309	1268.1797	0.178847	-424.239573	-424.228843	-424.227899	-424.275114	38.888	
C	-0.0995281726	 1.5559185628	 0.1400110836	-0.432818
C	 0.0342504133	 0.0505498282	 0.1246586297	-0.070316
C	 1.3160639551	-0.6276985367	-0.236223841	 0.067378
O	 2.4776792298	 0.1194157963	-0.446196267	-0.424142
C	 0.8275532287	-0.7070161498	 1.2119669342	 0.156634
C	 1.5792004838	 0.0650850087	 2.2787518085	-0.48931
C	 0.2277518149	-2.0406707697	 1.5605198588	 0.330857
C	 0.4027671153	-2.5657479673	 2.9737308737	-0.491271
O	-0.3794166435	-2.6879743712	 0.7286657204	-0.325526
H	 0.8592840942	 2.0529046286	 0.3022043758	 0.127289
H	-0.4974263294	 1.9071005016	-0.818919214	 0.119855
H	-0.7917918778	 1.8889459205	 0.9201757351	 0.123987
H	-0.8528509307	-0.4942461684	-0.1855129244	 0.110038
H	 1.2513335093	-1.559143375	-0.795832499	 0.10882
H	 2.3977309367	 0.5593632696	-1.2991762879	 0.293424
H	 2.1250772248	 0.9002498373	 1.840337257	 0.140883
H	 0.9045571687	 0.4598401447	 3.04617791	 0.115299
H	 2.31862722	-0.5683761677	 2.7782686622	 0.119686
H	 0.0429580903	-1.8417184657	 3.7122869713	 0.136918
H	-0.1441564553	-3.5034886734	 3.0750248789	 0.139494
H	 1.4629474743	-2.7378474735	 3.1910569043	 0.14282
52.9042	131.9479	144.9843	171.0644	182.4825	196.5072	223.8053	238.7963	257.3384	327.0076	353.039	436.2126	471.5715	580.3564	590.1046	604.54	674.5264	770.9201	833.0825	906.6861	965.883	996.1493	1022.6824	1035.9793	1075.1138	1097.916	1108.1447	1142.4827	1178.6698	1202.5981	1269.5463	1283.9364	1326.0986	1375.2898	1381.8971	1411.3889	1419.7433	1439.6458	1460.0066	1474.3689	1490.6571	1495.5676	1504.9871	1515.6356	1771.2141	3034.5726	3037.1741	3042.0537	3089.5815	3094.9797	3100.9228	3122.0736	3123.2301	3149.6358	3153.8941	3157.2169	3805.8812
CC1C(O)C1(C)C(C)=O	C[C@H]1[C@@H](O)[C@]1(C)C(=O)C	
InChI=1S/C7H12O2/c1-4-6(9)7(4,3)5(2)8/h4,6,9H,1-3H3	InChI=1S/C7H12O2/c1-4-6(9)7(4,3)5(2)8/h4,6,9H,1-3H3/t4-,6+,7-/m0/s1
