21
gdb 59303	2.39997	1.27631	0.98402	2.0806	78.86	-0.251	-0.0275	0.2235	1282.4185	0.180127	-424.23664	-424.226667	-424.225723	-424.271448	36.999	
C	 0.2217525903	 1.3897573187	 0.2244314548	-0.394313
C	 0.0540600607	-0.1157924243	-0.0273231177	 0.042464
C	-1.4121827654	-0.5293177091	 0.1784963699	-0.400699
C	 0.5371860682	-0.509964808	-1.4296337396	-0.059043
C	 2.0681116176	-0.2864364464	-1.7023240673	-0.361831
C	 2.2423027644	-1.7744920723	-1.4028848218	 0.346794
O	 3.0764432984	-2.4317384399	-0.8422166763	-0.31158
C	 0.7685453094	-2.0654848836	-1.6591140439	 0.045453
O	 0.1689726068	-3.0473114088	-0.8672863518	-0.422675
H	 1.2638378709	 1.7140285093	 0.1487120935	 0.111615
H	-0.3615239692	 1.9721691447	-0.4988928926	 0.112912
H	-0.1351509649	 1.654423143	 1.2250152634	 0.115555
H	 0.6669599732	-0.6557599775	 0.709839063	 0.072095
H	-2.0634352413	-0.0002639868	-0.5281298515	 0.106662
H	-1.5437687451	-1.6022089729	 0.0307546565	 0.142959
H	-1.7478282574	-0.2727940064	 1.1887229678	 0.107335
H	-0.1159867077	-0.063075552	-2.1839707512	 0.077506
H	 2.2824915598	-0.0393094056	-2.7458019336	 0.130357
H	 2.6223762649	 0.3939420975	-1.0538286165	 0.133027
H	 0.5920103254	-2.2890485169	-2.7202698228	 0.106923
H	 0.8483824909	-3.3725030827	-0.2624058425	 0.298482
69.26	82.2072	164.2746	197.469	221.9339	245.0723	248.2983	293.5156	344.5565	356.6403	407.4632	449.0983	565.2386	607.3001	728.3046	754.8479	777.2896	876.0417	901.52	932.6704	948.2882	968.4705	1008.7215	1046.6514	1071.0516	1125.3575	1142.6314	1172.4082	1188.4213	1203.994	1232.561	1267.0471	1300.2644	1333.3059	1339.8693	1396.2132	1399.2819	1409.0415	1422.4235	1448.1317	1489.0248	1494.0371	1504.5396	1519.233	1869.5249	2994.4801	3014.6279	3027.0475	3031.6597	3066.0102	3075.8566	3088.2232	3095.8882	3106.9251	3133.0777	3143.0012	3766.331
CC(C)C1CC(=O)C1O	CC(C)[C@H]1CC(=O)[C@H]1O	
InChI=1S/C7H12O2/c1-4(2)5-3-6(8)7(5)9/h4-5,7,9H,3H2,1-2H3	InChI=1S/C7H12O2/c1-4(2)5-3-6(8)7(5)9/h4-5,7,9H,3H2,1-2H3/t5-,7+/m1/s1
