19
gdb 90049	2.91618	1.50378	1.24294	2.0061	77.15	-0.2352	0.0635	0.2987	1055.3391	0.158565	-422.902411	-422.894349	-422.893405	-422.934392	32.625	
O	 0.1273364061	 1.4711105316	-0.1479036686	-0.411784
C	 0.0724399504	 0.0702526066	-0.0150918749	 0.053015
C	 0.22873704	-0.527669815	 1.4587146202	-0.371545
C	-1.3065174112	-0.6704645567	 1.4684301976	 0.283773
C	-2.6260666076	-1.475765691	 1.446785498	-0.376413
C	-2.7760332359	-0.2247079332	 0.4199589536	 0.364489
O	-3.853298068	 0.0560297058	-0.4001053696	-0.46942
C	-2.1568983926	 0.6482165635	 1.5237249589	-0.325832
C	-1.3571046386	-0.5956713677	-0.0733309752	-0.051654
H	 1.0377546587	 1.7479845318	-0.0001509817	 0.285912
H	 0.747807477	-0.4087491474	-0.7366197578	 0.075967
H	 0.7642680564	-1.4810797702	 1.4344786202	 0.106971
H	 0.6748363031	 0.1226521785	 2.2173262855	 0.098435
H	-2.5888929143	-2.469055014	 0.9932623388	 0.097805
H	-3.2747875959	-1.4520517732	 2.3289033751	 0.084991
H	-4.5439941137	 0.4647133041	 0.1332014836	 0.281099
H	-2.7463965042	 0.7814519131	 2.436737022	 0.074801
H	-1.6675351794	 1.5661904821	 1.207620672	 0.128973
H	-1.2928840503	-1.5537843788	-0.5962876577	 0.070416
167.5224	177.1875	194.4375	262.8665	308.6514	369.943	373.9032	429.5694	488.8523	536.3142	591.1533	684.1196	728.725	760.0174	781.4615	808.6322	882.7112	933.4896	952.1523	987.638	1009.1344	1017.3252	1050.019	1075.4282	1107.4729	1117.0255	1137.7335	1165.6773	1171.8875	1192.3272	1210.7868	1228.5338	1254.0583	1283.0789	1308.0712	1344.1607	1384.4854	1418.4709	1467.2132	1491.7889	1538.6481	2999.9333	3037.0043	3046.3351	3049.2549	3067.5132	3107.2685	3118.2858	3170.8286	3805.4931	3807.2357
OC1CC23CC(O)(C2)C13	O[C@H]1C[C@@]23C[C@@](O)(C2)[C@@H]13	
InChI=1S/C7H10O2/c8-4-1-6-2-7(9,3-6)5(4)6/h4-5,8-9H,1-3H2	InChI=1S/C7H10O2/c8-4-1-6-2-7(9,3-6)5(4)6/h4-5,8-9H,1-3H2/t4-,5-,6-,7-/m0/s1
