17
gdb 84557	2.83257	1.82865	1.3888	2.8047	73.11	-0.2345	-0.0024	0.232	941.253	0.136165	-421.71833	-421.711275	-421.710331	-421.749428	28.85	
O	-0.2214665485	 1.4346400631	 0.114140484	-0.430603
C	-0.0304937967	 0.0358448335	 0.0190576735	-0.090761
C	 0.6391710889	-0.6016697927	 1.2663601675	-0.083522
C	 0.0398359479	-1.7192656238	 1.7092625225	-0.162984
C	-1.0435210997	-2.0913696476	 0.7239956715	-0.044346
C	-2.59676298	-1.862038999	 0.6389427517	-0.017001
C	-2.4362503568	-0.4410319032	 1.1806267008	-0.245137
C	-1.3310288507	-0.7176837645	 0.1233313759	 0.47582
O	-2.3700212959	-1.3194965126	-0.7513851767	-0.388829
H	 0.63485775	 1.8649219616	 0.0276285591	 0.287909
H	 0.5216968732	-0.2306029995	-0.8967877768	 0.092247
H	 1.5136411353	-0.1391983327	 1.7145012946	 0.097996
H	 0.3661706095	-2.3003805479	 2.5649572128	 0.102443
H	-0.7192173863	-2.8370069638	-0.0084400873	 0.095883
H	-3.4192132554	-2.571863708	 0.7333280598	 0.093812
H	-3.2013266218	 0.2641990759	 0.8587923653	 0.111962
H	-2.1310361732	-0.3088305488	 2.2188816719	 0.105111
156.8611	226.7887	240.2303	307.3032	351.9996	498.9027	518.3851	548.1477	601.1396	668.8333	698.8678	762.4442	787.9812	866.348	899.6037	934.7402	947.2708	963.8164	974.4692	984.527	1055.1404	1070.9058	1085.1795	1107.3721	1120.6473	1143.7369	1181.7026	1195.0319	1216.9472	1251.873	1267.1856	1302.9573	1341.5981	1350.02	1430.113	1493.3425	1618.9275	2973.7325	3062.054	3088.2313	3113.9462	3168.6789	3171.4981	3196.7876	3823.4407
OC1C=CC2C3CC12O3	O[C@H]1C=C[C@H]2[C@H]3C[C@@]12O3	
InChI=1S/C7H8O2/c8-6-2-1-4-5-3-7(4,6)9-5/h1-2,4-6,8H,3H2	InChI=1S/C7H8O2/c8-6-2-1-4-5-3-7(4,6)9-5/h1-2,4-6,8H,3H2/t4-,5+,6-,7-/m0/s1
