25
gdb 118777	2.9199	0.91511	0.80182	1.2847	90.21	-0.2475	0.0733	0.3208	1602.6125	0.225678	-389.491466	-389.480071	-389.479126	-389.527611	42.459	
C	 0.0478246648	 1.5831357011	 0.1401215887	-0.38282
C	-0.0104342885	 0.0557921921	 0.2264834735	-0.175076
C	-1.3622110596	-0.517028277	-0.224596427	-0.2228
C	-1.4368118025	-2.0306713453	-0.1191151317	 0.367851
O	-0.4773560377	-2.6814974134	-0.9234222651	-0.471441
C	-1.792432369	-2.6986966245	 1.1937363089	-0.39532
C	-2.7482726821	-2.7769025336	 0.0103506388	 0.281019
C	-4.060349399	-2.0158089601	 0.0900888227	-0.453735
C	-2.8810110669	-4.1133510494	-0.6993455497	-0.439154
H	 1.0224611395	 1.9649770744	 0.4598601026	 0.110786
H	-0.1250284417	 1.9276168066	-0.8854619819	 0.116581
H	-0.7159368295	 2.0449969195	 0.7757965078	 0.113598
H	 0.7883655926	-0.3693131521	-0.3942665296	 0.091724
H	 0.1912012699	-0.2634399271	 1.2577657094	 0.094964
H	-2.1561104891	-0.0603420178	 0.3748351003	 0.091893
H	-1.5469108675	-0.2278663161	-1.26777921	 0.099479
H	 0.3743255913	-2.6078619288	-0.4808750081	 0.281861
H	-1.2458386938	-3.5987325379	 1.4576833665	 0.103528
H	-2.0649996608	-2.0717011008	 2.0376908062	 0.101081
H	-3.9882438888	-1.103854782	 0.6871558251	 0.112692
H	-4.4192338631	-1.7370036971	-0.9077735084	 0.115735
H	-4.8302060821	-2.6456429105	 0.5510666661	 0.113855
H	-3.5731930974	-4.7657096485	-0.1542270692	 0.105245
H	-3.280842205	-3.9785854211	-1.7113143515	 0.11129
H	-1.9189813438	-4.6179971705	-0.7885691842	 0.127164
73.9581	82.1752	113.6225	175.5122	180.2866	204.3908	243.2845	261.6597	283.3764	299.2148	332.4729	368.8171	393.7608	438.766	472.9057	545.9211	699.9647	749.8164	762.2518	874.164	880.2394	919.3041	920.7715	933.4094	970.969	985.1922	1036.7003	1046.2836	1052.1942	1074.548	1117.728	1155.5467	1199.112	1206.222	1276.9963	1300.7917	1309.3717	1312.954	1331.9505	1380.5838	1404.7737	1408.0008	1413.1961	1422.7544	1471.3362	1481.7862	1486.4542	1489.926	1494.429	1499.5023	1504.3357	1509.7919	1515.1573	3012.5712	3022.0457	3024.3056	3028.7263	3030.2317	3045.7535	3078.1539	3080.5717	3081.7583	3097.105	3101.3309	3114.8071	3118.3643	3144.4309	3205.1455	3807.432
CCCC1(O)CC1(C)C	CCC[C@@]1(O)CC1(C)C	
InChI=1S/C8H16O/c1-4-5-8(9)6-7(8,2)3/h9H,4-6H2,1-3H3	InChI=1S/C8H16O/c1-4-5-8(9)6-7(8,2)3/h9H,4-6H2,1-3H3/t8-/m1/s1
