16
gdb 125056	3.35144	1.09721	0.83117	3.0019	80.79	-0.1981	0.006	0.2041	1330.0075	0.12552	-430.264494	-430.255705	-430.254761	-430.298478	31.425	
C	-0.0093156192	 1.532733086	 0.0694800046	-0.513788
C	 0.0134970144	 0.0483536678	-0.0236455685	 0.241039
C	 0.0183379241	-0.7983415347	-1.1179379996	 0.310974
N	-0.0032200555	-0.3955635046	-2.4428598891	-0.359535
C	 0.0094267949	-1.295443462	-3.354000014	 0.111531
N	 0.0536291614	-0.9747738416	-4.6781030757	-0.506007
N	 0.0440685785	-2.0934102381	-0.6682941052	-0.276112
N	 0.0539814713	-2.0990323796	 0.6322784252	-0.129128
N	 0.035759174	-0.8106650029	 1.0278672235	-0.232433
H	 0.87229806	 1.9286704917	 0.5870865755	 0.132908
H	-0.0211207971	 1.9402942118	-0.9434654527	 0.161584
H	-0.8970761793	 1.9011450775	 0.5968853346	 0.132393
H	 0.0265041357	-2.3677053456	-3.1417249914	 0.132999
H	-0.1227472234	-0.0116189095	-4.9207609398	 0.258922
H	-0.2240153434	-1.6673336406	-5.352069855	 0.261062
H	 0.0419624634	-0.6019703355	 2.0132188777	 0.273591
65.4154	122.1299	135.8398	158.0539	241.4486	267.5785	358.0339	400.6793	429.3366	517.6154	544.67	581.9348	670.1548	703.3091	767.7362	810.9922	985.4015	1020.9428	1027.3112	1067.0724	1086.6316	1094.5758	1184.2312	1266.4031	1301.2916	1331.7456	1370.9922	1389.7956	1417.6696	1481.1935	1488.5032	1513.3862	1617.0391	1646.3755	1729.1785	3025.551	3074.3112	3101.8831	3133.9462	3588.9343	3657.6574	3719.9133
CC1=C(N=CN)N=NN1	Cc1c(N=CN)nn[nH]1	
InChI=1S/C4H7N5/c1-3-4(6-2-5)8-9-7-3/h2H,1H3,(H3,5,6,7,8,9)	InChI=1S/C4H7N5/c1-3-4(6-2-5)8-9-7-3/h2H,1H3,(H3,5,6,7,8,9)
