15
gdb 23596	3.22539	1.49552	1.15979	3.173	69.04	-0.2434	-0.0196	0.2238	1021.4401	0.113352	-453.843781	-453.836753	-453.835809	-453.875192	27.768	
O	-0.1232019606	 1.3260170608	 0.0629304291	-0.384376
N	 0.005562833	-0.0665889589	 0.0558937102	-0.233849
C	-1.1267464507	-0.6503564643	 0.0348306707	 0.455067
C	-1.2219773501	-2.1407289284	-0.0680157553	-0.150941
N	-2.0508344949	-2.7888378711	 0.97935029	-0.313579
C	-2.6526777643	-2.4748780182	-0.3280296571	-0.081834
C	-3.4367080992	-1.1670762784	-0.3311966409	 0.046099
O	-3.4335357259	-0.47609353	 0.9105938492	-0.224854
C	-2.4965042107	-0.0502651606	-0.0936831586	-0.081848
H	 0.7947219823	 1.6181378744	 0.061490688	 0.311596
H	-0.3881514693	-2.6840707066	-0.4970091112	 0.104423
H	-1.8089282549	-3.7780276814	 1.000124152	 0.237444
H	-2.9499145732	-3.2709296788	-1.0009744013	 0.094975
H	-4.333538765	-1.0682174314	-0.9361803647	 0.103114
H	-2.6170927566	 0.9632419929	-0.4580649503	 0.118562
122.2303	209.5024	246.8396	312.5551	370.9686	444.7701	478.835	562.8946	652.6124	692.6847	716.694	804.5952	835.0797	856.3412	878.0028	881.2328	905.7937	950.7102	994.6234	1030.3475	1051.7337	1100.1764	1136.3661	1148.6176	1220.882	1245.5685	1250.5533	1315.9245	1353.8059	1379.9623	1407.4627	1433.9544	1749.6984	3154.5755	3178.2559	3186.1224	3190.5368	3486.7748	3817.512
ON=C1C2NC2C2OC12	ON=C1[C@H]2N[C@H]2[C@H]2O[C@@H]12	
InChI=1S/C5H6N2O2/c8-7-3-1-2(6-1)4-5(3)9-4/h1-2,4-6,8H	InChI=1S/C5H6N2O2/c8-7-3-1-2(6-1)4-5(3)9-4/h1-2,4-6,8H/t1-,2+,4+,5-/m0/s1
