19
gdb 76184	2.0282	1.51212	1.2333	2.5574	73.98	-0.2397	-0.0239	0.2158	1128.3666	0.154998	-460.156729	-460.14653	-460.145585	-460.191082	37.661	
C	-0.1154004316	 1.4593562064	 0.0477698309	-0.43145
C	 0.0302523143	-0.0504458239	 0.0168119719	 0.203911
C	-1.1402734335	-0.7732420253	-0.6238892963	-0.47006
C	 1.3880866213	-0.6440620546	-0.1558334407	-0.010946
O	 2.4808028044	 0.2218586509	-0.2838950116	-0.42402
C	 0.7527659439	-0.6921774624	 1.2416069472	 0.224465
O	 1.2957356204	 0.1637864976	 2.1998776084	-0.472688
C	 0.3574652045	-2.0006982042	 1.80874142	 0.108264
O	-0.0173422466	-2.9601824591	 1.1712361784	-0.285187
H	 0.7097249456	 1.9527087711	 0.5588893436	 0.126263
H	-0.1649181625	 1.847182238	-0.9752868563	 0.121499
H	-1.0435766312	 1.7346334953	 0.5583975118	 0.122734
H	-1.2470484823	-0.4499682922	-1.6658573566	 0.115449
H	-1.0153749854	-1.8559407387	-0.6016084268	 0.156527
H	-2.0720180142	-0.5301409684	-0.1016765558	 0.119457
H	 1.4668534071	-1.5929722782	-0.6828061825	 0.115259
H	 3.2852304162	-0.307049604	-0.2497880518	 0.30195
H	 2.1103068863	 0.5212944584	 1.8190518413	 0.28805
H	 0.4618372933	-2.0367934067	 2.914490185	 0.090522
106.8421	123.5909	180.2184	195.2259	212.9983	236.1557	238.705	292.3469	307.2691	316.7307	366.3069	446.5286	480.9285	543.4125	572.2576	634.7585	684.9817	727.8115	817.6196	973.4662	985.7395	1015.1592	1037.0652	1065.3178	1123.7787	1141.1993	1154.5452	1191.9206	1232.8198	1291.3085	1320.4868	1368.8615	1407.1926	1415.3305	1428.6574	1462.5805	1480.7481	1486.3478	1509.2284	1513.8568	1793.7936	2907.0438	3031.1805	3043.3105	3088.9756	3100.7507	3130.3817	3148.882	3158.3429	3732.0836	3811.1809
CC1(C)C(O)C1(O)C=O	CC1(C)[C@@H](O)[C@]1(O)C=O	
InChI=1S/C6H10O3/c1-5(2)4(8)6(5,9)3-7/h3-4,8-9H,1-2H3	InChI=1S/C6H10O3/c1-5(2)4(8)6(5,9)3-7/h3-4,8-9H,1-2H3/t4-,6-/m1/s1
