14
gdb 32399	6.47294	0.86848	0.76941	5.0937	73.79	-0.2413	-0.0375	0.2038	1371.295	0.102312	-432.911058	-432.902863	-432.901919	-432.944683	28.938	
O	-0.0350553281	 1.424080413	 0.0071898398	-0.420794
C	 0.0041405801	 0.0067113633	 0.0018180456	-0.192188
C	-1.4063546115	-0.4883676981	 0.012789607	 0.27135
C	-2.5603869567	 0.2640014147	 0.0236070769	-0.142955
N	-3.5854900794	-0.6422066659	 0.0307704553	-0.289106
C	-3.0216668957	-1.8896294063	 0.0235474716	 0.24293
N	-1.701583992	-1.8215650361	 0.0129134594	-0.340822
C	-3.8090644247	-3.0693964003	 0.0279977507	 0.235146
N	-4.4865052832	-4.0084877517	 0.0320076015	-0.336608
H	 0.8688389745	 1.7502005193	 0.0010625191	 0.296065
H	 0.5202940395	-0.3851340494	-0.8886269114	 0.114921
H	 0.5362438815	-0.3916082324	 0.8798817411	 0.114966
H	-2.7228565821	 1.3273303232	 0.0269169435	 0.16164
H	-4.5717153023	-0.4382466331	 0.03960432	 0.285456
42.5281	132.9671	137.7154	225.143	225.2868	281.2493	411.0684	500.6761	569.7654	575.3603	625.313	658.5325	709.6609	725.0483	784.6228	1003.8952	1014.9847	1048.4469	1091.4805	1117.0582	1206.0506	1235.1356	1246.7359	1298.8986	1382.0097	1439.6149	1453.5969	1513.4823	1531.4251	1593.5043	2347.5989	2976.2154	2998.9283	3299.3973	3660.4141	3846.1618
OCC1=CNC(=N1)C#N	OCc1c[nH]c(n1)C#N	
InChI=1S/C5H5N3O/c6-1-5-7-2-4(3-9)8-5/h2,9H,3H2,(H,7,8)	InChI=1S/C5H5N3O/c6-1-5-7-2-4(3-9)8-5/h2,9H,3H2,(H,7,8)
