16
gdb 20205	3.45569	2.86354	2.24151	1.3541	67.2	-0.2143	0.0147	0.229	679.4975	0.13385	-346.590972	-346.585523	-346.584578	-346.620141	23.125	
C	-0.0056662706	 1.5321485096	 0.0490983697	-0.068112
O	 1.3816383605	 1.8941512298	-0.007271416	-0.25489
C	 2.0382279809	 0.9194732204	-0.7736251705	 0.099438
C	 2.3818918877	-0.4423403699	-0.1398139623	-0.130161
C	 1.8779607585	-0.7050129718	 1.2379613221	-0.055436
C	 0.5583860482	-0.5264135261	 1.3139775939	-0.086674
C	-0.0007570545	-0.011942631	-0.0047447921	-0.113733
C	 1.1515470177	-0.2529646277	-1.0144557735	-0.122801
H	-0.4176924771	 1.9429517045	 0.9750049835	 0.108434
H	-0.551058939	 1.9604974972	-0.8071492294	 0.087671
H	 2.704324014	 1.3261350625	-1.5280225921	 0.097233
H	 3.2663704674	-0.9462779817	-0.5152135168	 0.083043
H	 2.5309549199	-0.9673699876	 2.0617210278	 0.098063
H	-0.039451193	-0.5824615771	 2.2164049685	 0.094563
H	-0.9672075511	-0.4301130443	-0.2969930177	 0.074119
H	 0.9977236404	-0.7295386168	-1.9740249851	 0.089244
241.4765	299.3074	415.458	571.1819	652.4266	712.3738	740.5924	748.6003	794.2382	807.5848	820.4154	872.9156	920.9245	945.3397	948.8563	979.5561	996.6745	1006.4669	1049.048	1060.9508	1083.2663	1093.382	1129.2646	1154.9565	1214.0427	1233.1786	1273.8835	1292.6224	1311.387	1364.8237	1376.4945	1399.7601	1509.9703	1666.5523	2975.426	3080.1098	3091.4265	3155.0741	3166.1878	3190.1431	3190.7513	3216.3246
C1OC2C3C=CC1C23	C1O[C@H]2[C@H]3C=C[C@@H]1[C@@H]23	
InChI=1S/C7H8O/c1-2-5-6-4(1)3-8-7(5)6/h1-2,4-7H,3H2	InChI=1S/C7H8O/c1-2-5-6-4(1)3-8-7(5)6/h1-2,4-7H,3H2/t4-,5-,6+,7-/m0/s1
