20
gdb 121265	3.98311	0.99828	0.88571	2.495	76.45	-0.2399	0.0745	0.3144	1382.085	0.171214	-440.255553	-440.24677	-440.245826	-440.289945	32.239	
C	 0.1214656137	 1.5003950581	 0.0791677315	-0.385404
C	 0.1600943184	-0.014444946	-0.0169110973	-0.037918
O	 0.7459196016	-0.5199720519	 1.1777477518	-0.248538
C	 0.7507812947	-1.9008932448	 1.2675729483	 0.268684
O	 1.6060138975	-2.4666339636	 0.2733390656	-0.284293
C	 2.2999442035	-3.5972149015	 0.7880597661	-0.072607
C	 2.2724089911	-3.450263036	 2.2965734178	-0.055397
N	 2.7503734557	-2.1229079915	 2.7252632605	-0.314796
C	 1.3017883701	-2.3764778271	 2.5958975108	-0.1117
H	 1.1325617531	 1.9012920995	 0.1922521023	 0.131781
H	-0.3223884827	 1.9268489057	-0.8255231252	 0.112817
H	-0.4714696393	 1.8188713902	 0.9415105539	 0.121411
H	-0.856906699	-0.4253318375	-0.1328882311	 0.081923
H	 0.748016597	-0.3379651278	-0.8848602671	 0.114064
H	-0.2764261787	-2.289720423	 1.1207727033	 0.049866
H	 1.8026991341	-4.534811692	 0.4939054854	 0.091205
H	 3.312236566	-3.5902612391	 0.3701576192	 0.115848
H	 2.4042480972	-4.3177273666	 2.9340587288	 0.093743
H	 2.9979643315	-2.1585829113	 3.7115007937	 0.232917
H	 0.6616210145	-2.3757125638	 3.470422282	 0.096394
53.1509	87.5633	105.9359	167.0769	243.2246	284.8458	346.2829	376.3875	461.2268	598.9589	673.3321	773.5438	808.9711	818.2526	873.8238	878.0533	912.761	920.2117	975.6235	1016.603	1021.4744	1062.9933	1076.5973	1102.4267	1149.4491	1152.5319	1160.5444	1179.8741	1192.5314	1231.4872	1256.1883	1294.5581	1329.4497	1367.7652	1383.4585	1394.496	1406.0804	1434.2082	1455.6913	1482.8061	1500.3342	1509.1588	1527.7625	2903.5793	2967.9049	2983.9659	3043.4352	3044.3943	3068.1452	3117.4614	3122.2938	3171.5237	3185.4978	3498.3408
CCOC1OCC2NC12	CCO[C@H]1OC[C@H]2N[C@@H]12	
InChI=1S/C6H11NO2/c1-2-8-6-5-4(7-5)3-9-6/h4-7H,2-3H2,1H3	InChI=1S/C6H11NO2/c1-2-8-6-5-4(7-5)3-9-6/h4-7H,2-3H2,1H3/t4-,5-,6+/m1/s1
