21
gdb 112725	2.18614	1.25373	1.03173	3.6162	74.68	-0.2447	0.0587	0.3034	1280.2705	0.179728	-461.345108	-461.334828	-461.333884	-461.380407	38.07	
C	 0.2157427727	 1.4479554808	-0.3125359655	-0.417122
C	 0.1337401497	-0.0232598225	 0.0349425517	 0.1347
O	 1.0286646543	-0.8350602257	-0.7657228236	-0.33898
C	 1.4517584677	-1.5969101542	 0.3930672302	 0.118684
C	 2.9569521267	-1.7868169899	 0.3725958912	-0.084165
O	 3.3407615961	-2.4817367693	-0.8005953712	-0.421744
C	 0.74328069	-0.6085959873	 1.3516260932	 0.268301
C	 1.6181212262	 0.3223904127	 2.1799705763	-0.465495
O	-0.1732820704	-1.3040134701	 2.1746006839	-0.471539
H	 1.2343234267	 1.8315151961	-0.2111953386	 0.119794
H	-0.1011569783	 1.6019446437	-1.3489726841	 0.13224
H	-0.448403211	 2.0354206232	 0.3310088686	 0.115356
H	-0.8995453384	-0.3840673706	-0.0684792656	 0.077729
H	 0.9552258205	-2.5757486099	 0.4176827656	 0.091341
H	 3.4645206366	-0.8125790968	 0.4380126815	 0.080434
H	 3.2770119353	-2.3954329331	 1.2253862416	 0.111513
H	 2.9441945433	-2.0008692455	-1.5370811062	 0.295069
H	 2.3649722412	 0.8416839752	 1.5755026929	 0.133438
H	 1.0023116812	 1.0886325571	 2.6672644506	 0.110924
H	 2.1366549467	-0.2425230125	 2.9603319607	 0.131805
H	-0.5478185668	-0.6819144914	 2.8074542668	 0.277717
41.6611	95.1425	169.3534	205.7789	234.8186	240.6527	261.1621	287.0528	312.2645	355.2012	396.8903	432.5146	475.4246	496.4405	563.5701	651.4991	771.5966	850.343	887.3787	925.2374	972.1966	1016.6045	1043.2096	1063.0806	1083.0153	1110.0916	1140.0999	1147.9664	1186.9119	1205.4477	1222.5659	1265.3616	1321.9519	1340.95	1377.1356	1383.3444	1404.3593	1413.2961	1420.9937	1440.5083	1477.0884	1489.7243	1496.2739	1499.841	1505.8251	2990.5081	3002.5736	3028.0253	3029.2914	3037.5814	3074.175	3096.7016	3104.0857	3119.6308	3129.4847	3791.4404	3806.301
CC1OC(CO)C1(C)O	C[C@H]1O[C@@H](CO)[C@]1(C)O	
InChI=1S/C6H12O3/c1-4-6(2,8)5(3-7)9-4/h4-5,7-8H,3H2,1-2H3	InChI=1S/C6H12O3/c1-4-6(2,8)5(3-7)9-4/h4-5,7-8H,3H2,1-2H3/t4-,5+,6-/m1/s1
