19
gdb 93226	2.73993	1.2973	0.92601	3.6459	71.74	-0.2617	0.0067	0.2684	1247.5028	0.159316	-460.206314	-460.197392	-460.196448	-460.240091	33.282	
C	 0.0604106476	 1.5681263604	-0.024661596	-0.394774
C	 0.1077431267	 0.0370204125	-0.0233274544	-0.140402
C	 0.741148182	-0.5430320327	-1.2947313529	-0.211366
C	 0.9104852295	-2.0456744442	-1.1514867392	 0.072436
O	 1.5223870067	-2.5483160831	-2.3270562006	-0.426187
C	 1.8008282891	-2.3129498581	 0.0616389404	-0.090759
O	 1.3384405135	-1.6983449282	 1.2700500235	-0.233681
C	 0.7315230531	-0.4818492055	 1.2782053721	 0.424373
O	 0.627580655	 0.097470728	 2.3249631297	-0.322432
H	 1.0688483866	 1.989367062	-0.0902609341	 0.122744
H	-0.5140764789	 1.9285605202	-0.8831341269	 0.112166
H	-0.3987499201	 1.9371560756	 0.8931726673	 0.145574
H	-0.9277262691	-0.3342280858	 0.0296968508	 0.116583
H	 0.122702853	-0.3097429092	-2.1667906056	 0.112834
H	 1.7273419935	-0.0948803681	-1.4724004708	 0.112889
H	-0.0759398346	-2.5100209609	-0.9905222128	 0.077529
H	 1.5270268873	-3.5101119572	-2.2838240223	 0.289005
H	 1.8639951972	-3.382581864	 0.285534928	 0.111344
H	 2.8125517718	-1.9521722818	-0.1638584561	 0.122124
61.9238	121.0775	193.8522	212.7295	269.0421	286.6528	320.3344	382.9372	403.4777	414.3026	473.9376	561.8709	598.4377	722.9495	770.8605	894.4573	924.4724	931.6772	1001.2064	1044.7858	1073.4044	1101.7614	1124.6173	1134.1861	1155.9341	1182.6672	1210.6237	1254.1588	1288.0966	1312.0639	1346.2719	1355.147	1373.3599	1409.3203	1411.9009	1450.0046	1490.599	1497.8035	1502.8949	1518.336	1836.7069	2972.2782	2991.7011	3026.8289	3033.535	3045.1968	3082.5016	3086.8953	3109.4652	3146.9065	3815.5918
CC1CC(O)COC1=O	C[C@H]1C[C@@H](O)COC1=O	
InChI=1S/C6H10O3/c1-4-2-5(7)3-9-6(4)8/h4-5,7H,2-3H2,1H3	InChI=1S/C6H10O3/c1-4-2-5(7)3-9-6(4)8/h4-5,7H,2-3H2,1H3/t4-,5+/m0/s1
