20
gdb 23234	2.728	1.37558	1.07793	0.8836	82.36	-0.2372	0.0069	0.2441	1179.0357	0.170674	-403.083936	-403.075169	-403.074225	-403.117585	33.548	
C	 0.3698770693	 1.7008970435	-0.0266968113	-0.408766
C	 0.1825124707	 0.1892693747	 0.0609163529	-0.080384
C	 0.6408044109	-0.7504754128	-1.1071756994	-0.04208
C	 1.9456413065	-0.3597984479	-1.8513916117	-0.225823
C	 2.7905817987	-1.1937528968	-0.8426372102	-0.222953
C	 1.4911239125	-1.6033476446	-0.082596413	-0.127588
C	 1.0693696699	-0.6301659318	 0.9921499223	 0.41163
N	 1.3693970242	-0.6183488969	 2.2230600068	-0.248419
O	 0.7467732143	 0.4608093503	 2.8886241608	-0.397555
H	 1.4141810422	 1.9730236754	-0.2055766444	 0.117742
H	-0.2326423385	 2.1179558729	-0.8410136727	 0.112048
H	 0.0640056233	 2.1723193363	 0.9099737849	 0.139551
H	-0.8668371727	-0.024105456	 0.3050039987	 0.099823
H	-0.1602103088	-1.1774057595	-1.7106947931	 0.066853
H	 1.9857736938	-0.7529101298	-2.8700135005	 0.10291
H	 2.16712282	 0.7089664471	-1.8997052325	 0.101788
H	 3.2964956284	-2.0456967763	-1.3026617941	 0.105049
H	 3.5202299919	-0.6451110983	-0.2430171295	 0.109438
H	 1.3391245085	-2.6644600799	 0.1178443438	 0.082044
H	 1.0564031449	 0.3437668506	 3.7928340321	 0.304692
47.8837	144.5733	172.6331	202.8668	267.6247	274.8714	338.4608	399.7842	443.3665	516.0721	598.662	645.9343	715.89	773.9135	790.2177	829.0781	839.5922	939.9533	950.6161	962.2099	968.2585	1012.0354	1052.4135	1086.2703	1115.8862	1129.8051	1139.2068	1171.021	1212.0367	1230.5202	1233.5188	1260.7323	1281.824	1292.8165	1317.5256	1335.6866	1401.2545	1404.7176	1476.1664	1487.549	1493.3775	1511.2802	1771.3176	3016.8669	3039.275	3061.92	3067.8782	3096.5957	3104.6956	3107.2051	3109.1517	3124.3675	3128.7168	3820.9465
CC1C2CCC2C1=NO	C[C@H]1[C@H]2CC[C@H]2C1=NO	
InChI=1S/C7H11NO/c1-4-5-2-3-6(5)7(4)8-9/h4-6,9H,2-3H2,1H3	InChI=1S/C7H11NO/c1-4-5-2-3-6(5)7(4)8-9/h4-6,9H,2-3H2,1H3/t4-,5+,6+/m0/s1
