16
gdb 11363	6.08775	1.26014	1.06454	3.1353	66.54	-0.2429	-0.0075	0.2353	1085.2106	0.131165	-379.98613	-379.978351	-379.977407	-380.018704	28.154	
C	 0.0706179111	 1.5488141671	 0.0080710367	-0.366586
C	-0.0450301409	 0.0247895806	 0.0031601279	-0.29748
C	-1.4604223277	-0.467768851	 0.0133104248	 0.396903
N	-2.5091471419	 0.2660483903	 0.0241978589	-0.292847
C	-3.6544611941	-0.644256933	 0.0304550293	-0.301448
C	-3.0859674407	-2.0697442958	 0.0218370725	 0.400371
O	-3.6434630821	-3.1386767861	 0.0223573048	-0.359517
N	-1.7139253783	-1.8441138099	 0.010872308	-0.37514
H	 1.1219665764	 1.8486700076	 0.0000833913	 0.11162
H	-0.4230179924	 1.9793426366	-0.8660197863	 0.137943
H	-0.4076780341	 1.9725250932	 0.8939476948	 0.137896
H	 0.4583673291	-0.3986178304	-0.8771868285	 0.123548
H	 0.4733154302	-0.405425866	 0.8714420308	 0.123502
H	-4.2805572688	-0.4874967542	 0.9159736316	 0.14878
H	-4.2943703728	-0.4822306566	-0.8441810694	 0.14884
H	-1.0270639031	-2.5807137824	 0.0026472127	 0.263614
52.9615	134.7328	190.1453	203.7255	267.0777	367.9203	463.4757	506.1747	553.643	634.5772	646.7101	692.5924	807.5342	885.7769	948.7498	977.3604	998.1894	1049.8641	1096.804	1110.0168	1156.7916	1180.3053	1233.1503	1285.9433	1286.1589	1361.1897	1417.2805	1437.2332	1442.7521	1471.2924	1491.4996	1501.5379	1705.0926	1855.5657	3014.0688	3039.4032	3050.1955	3056.1348	3083.986	3128.6467	3136.0915	3652.5306
CCC1=NCC(=O)N1	CCC1=NCC(=O)N1	
InChI=1S/C5H8N2O/c1-2-4-6-3-5(8)7-4/h2-3H2,1H3,(H,6,7,8)	InChI=1S/C5H8N2O/c1-2-4-6-3-5(8)7-4/h2-3H2,1H3,(H,6,7,8)
