18
gdb 13943	3.28331	1.81884	1.46864	3.1866	67.42	-0.2382	0.0654	0.3035	909.2894	0.153734	-384.900087	-384.892305	-384.891361	-384.932403	28.993	
O	 0.3483550583	 0.9943695784	-0.611860465	-0.429466
C	 0.1199228913	-0.1687202449	 0.1449667917	 0.080366
C	-0.0864854396	-0.064024408	 1.681023637	-0.264448
C	-1.250103757	-1.0825255385	 1.5308556074	-0.300351
C	-1.3056331438	-0.7444906464	 0.0212379019	 0.282342
C	-2.4354145025	 0.1592356872	-0.5204688517	-0.12198
O	-2.7983389026	-0.820655666	-1.5167093688	-0.275721
C	-1.7518736765	-1.7113019495	-1.0844872801	-0.146795
H	 1.2646974438	 1.2633844709	-0.4947009811	 0.286596
H	 0.8586484071	-0.9501821095	-0.0933846357	 0.066459
H	 0.7498002986	-0.3225143846	 2.3346910847	 0.094458
H	-0.4548248275	 0.9323062352	 1.9413373168	 0.11148
H	-0.9255899992	-2.1129172745	 1.7064464943	 0.103996
H	-2.158687646	-0.9008900679	 2.1097114414	 0.107164
H	-3.2572051209	 0.3536619471	 0.1817150353	 0.091662
H	-2.1040192654	 1.1007151166	-0.9705832701	 0.121606
H	-1.0095538427	-1.8909558844	-1.8746070533	 0.09815
H	-2.1457560253	-2.6769492914	-0.7385972048	 0.094479
80.113	105.5942	214.0542	238.2194	254.7294	341.1658	409.9785	497.9921	540.2738	681.4356	775.9149	854.6724	874.8614	891.2381	935.3129	947.4615	970.6447	991.0994	1040.7534	1108.8675	1122.6916	1149.4024	1156.1845	1164.2065	1182.9912	1218.0323	1222.166	1252.4964	1271.6918	1275.2824	1309.4205	1333.4175	1385.4615	1427.0821	1478.9258	1495.7584	1505.8079	1531.2232	2974.4459	2991.49	3009.3341	3034.4377	3052.9942	3060.1236	3075.0202	3103.4104	3120.4533	3822.9736
OC1CCC11COC1	O[C@H]1CCC21COC2	
InChI=1S/C6H10O2/c7-5-1-2-6(5)3-8-4-6/h5,7H,1-4H2	InChI=1S/C6H10O2/c7-5-1-2-6(5)3-8-4-6/h5,7H,1-4H2/t5-/m0/s1
