18
gdb 14759	3.54131	1.04857	0.96456	1.3764	70.39	-0.2452	0.0295	0.2747	1270.6026	0.15062	-384.874689	-384.86508	-384.864136	-384.910346	32.93	
C	 1.1733876534	 0.6946929442	-0.156888146	-0.231883
O	-0.1046562702	 0.152236453	 0.1163157187	-0.235305
C	-0.1187240832	-0.8807183959	 1.0746252472	-0.076685
C	 0.2907106244	-2.246676254	 0.5381510915	-0.068317
O	 1.7031098913	-2.2981579547	 0.3978597469	-0.230937
C	 2.1839921143	-3.5295630341	-0.1038816271	-0.211827
C	 1.8282642347	-3.7813943404	-1.5034016802	 0.311599
C	 1.5325348625	-3.9801935319	-2.651205217	-0.462864
H	 1.8396150677	-0.0322127739	-0.6340702166	 0.12613
H	 1.0175692063	 1.5433942429	-0.8280932294	 0.118994
H	 1.6589578943	 1.0559402967	 0.7633281363	 0.099503
H	 0.5157257376	-0.6286127297	 1.9397493257	 0.093615
H	-1.155188906	-0.9544335186	 1.4237738411	 0.106077
H	-0.0431176005	-3.0286218547	 1.2423727836	 0.083803
H	-0.2026890024	-2.4239606631	-0.4275996075	 0.114654
H	 3.2736556215	-3.4909379301	-0.0007226223	 0.140506
H	 1.8253985956	-4.3660629369	 0.5189317701	 0.118733
H	 1.2761376486	-4.1577851388	-3.666503105	 0.204205
32.4985	65.1698	101.2747	137.5392	198.992	230.1598	266.7168	332.2264	341.7968	403.1322	495.8753	620.4469	620.9385	684.0401	829.6596	881.1177	933.3455	993.887	1023.0535	1057.1091	1118.5977	1134.9818	1169.2629	1187.1283	1223.0674	1271.5841	1289.4081	1338.8138	1385.189	1404.9262	1426.1454	1467.8869	1473.522	1483.136	1491.4181	1504.5524	1515.7693	2233.9906	2957.1813	2968.6578	2979.3168	2985.9908	3034.5831	3065.7745	3067.2615	3068.8824	3114.6039	3503.9113
COCCOCC#C	COCCOCC#C	
InChI=1S/C6H10O2/c1-3-4-8-6-5-7-2/h1H,4-6H2,2H3	InChI=1S/C6H10O2/c1-3-4-8-6-5-7-2/h1H,4-6H2,2H3
