21
gdb 52652	2.71935	0.95429	0.83331	2.4929	83.83	-0.247	0.0334	0.2804	1508.8254	0.177874	-424.207714	-424.196155	-424.195211	-424.245847	41.217	
C	-0.065844373	 1.4986935644	 0.0831421572	-0.501069
C	-0.0328111519	 0.045959805	-0.0032862201	 0.078731
C	 0.0095949864	-1.1551401754	-0.0886171843	 0.051078
C	 0.0000187072	-2.6148553596	-0.1513738246	-0.079715
O	-1.3409296931	-3.1067483853	-0.3213480772	-0.44575
C	 0.8109342228	-3.2014100357	-1.3453473328	 0.376719
C	 2.227526528	-2.6349102494	-1.3870939145	-0.41295
C	 0.8353586861	-4.7352222143	-1.2284365995	-0.425343
O	 0.1720373551	-2.8120061339	-2.5530494526	-0.472928
H	 0.937052831	 1.9035496003	 0.2573097634	 0.154428
H	-0.4474587868	 1.9435469651	-0.8421408882	 0.154627
H	-0.7057982802	 1.8356399322	 0.9059649963	 0.149022
H	 0.4198350517	-3.0182320029	 0.7831339135	 0.092121
H	-1.9350576438	-2.4749902539	 0.0946896435	 0.291479
H	 2.7697453325	-2.862250793	-0.4638132456	 0.107534
H	 2.7738185865	-3.078518575	-2.2241719041	 0.121246
H	 2.2022307414	-1.5520973999	-1.5243760463	 0.131076
H	-0.179589814	-5.1347412489	-1.1644129868	 0.128019
H	 1.3204814147	-5.1548810458	-2.1135385036	 0.11757
H	 1.3889548022	-5.0610640844	-0.3411058513	 0.104041
H	-0.7709976826	-2.9625171195	-2.4050830124	 0.280065
10.9256	67.6319	86.4466	156.073	207.2563	236.4195	240.9021	256.3065	286.1246	311.5809	338.2185	362.862	390.0489	411.5425	473.4262	486.2901	573.725	600.6207	804.7315	814.3773	894.0307	935.4648	980.1181	1002.9641	1035.1679	1052.0684	1054.3803	1148.4087	1170.8141	1184.2265	1215.3717	1278.4911	1331.0559	1381.9462	1393.1645	1404.4858	1414.1098	1424.3484	1476.0843	1477.8253	1478.6479	1486.9139	1498.1378	1509.7308	2364.405	2980.4186	3029.5236	3038.1693	3046.9389	3090.7812	3092.9772	3109.4193	3116.6445	3130.1806	3135.6215	3764.5829	3834.4976
CC#CC(O)C(C)(C)O	CC#C[C@@H](O)C(C)(C)O	
InChI=1S/C7H12O2/c1-4-5-6(8)7(2,3)9/h6,8-9H,1-3H3	InChI=1S/C7H12O2/c1-4-5-6(8)7(2,3)9/h6,8-9H,1-3H3/t6-/m1/s1
