17
gdb 41445	2.86082	2.20267	1.7011	1.2393	71.59	-0.2152	0.0691	0.2843	841.5178	0.136635	-421.696023	-421.689689	-421.688745	-421.726254	26.925	
C	 0.0066087292	 1.4881091254	-0.2298087665	-0.326217
C	 1.5528770428	 1.5042910822	 0.1166415192	-0.30317
C	 1.3445405906	 0.1827242876	 0.9087374247	 0.352253
O	 1.0984234512	 0.3072337515	 2.2854985828	-0.306073
C	 0.0641397864	-0.6830474812	 2.5120265133	-0.10968
C	-0.1724323336	-1.2146756131	 1.108331659	-0.173327
C	 1.2666400456	-1.2898797483	 0.4183243888	-0.020716
O	 0.7252306696	-0.8533660846	-0.8593975832	-0.339938
C	 0.0308845316	-0.0095109772	 0.1335182412	 0.319957
H	-0.5754814569	 2.076159561	 0.4828555916	 0.126195
H	-0.2987203166	 1.7360788204	-1.2481996981	 0.121436
H	 2.1796940879	 1.3784802497	-0.7645414616	 0.134441
H	 1.9131796809	 2.3387092707	 0.7183507469	 0.120468
H	 0.4272379591	-1.4558808024	 3.1998000039	 0.113537
H	-0.8116922419	-0.1979582722	 2.9573628894	 0.114647
H	-0.9118350073	-1.9974003363	 0.939193548	 0.089593
H	 1.9633174114	-2.1343250334	 0.4191994104	 0.086594
217.9066	255.6553	321.1465	393.8688	475.2913	512.2612	613.0298	667.0824	674.9382	704.174	792.3097	805.7178	843.239	853.7929	908.6423	929.2776	942.3096	960.0891	992.7095	1008.8192	1054.135	1099.4094	1117.1277	1128.5287	1173.8504	1196.7608	1209.0891	1234.2772	1239.555	1244.036	1264.3945	1274.8963	1303.1114	1373.0347	1447.6271	1461.7463	1514.0811	3030.1168	3059.9198	3071.1948	3074.4955	3099.7726	3129.3916	3134.6417	3168.3838
C1CC23OCC4C2OC134	C1C[C@]23OC[C@@H]4[C@H]2O[C@]134	
InChI=1S/C7H8O2/c1-2-7-5-4(3-8-7)6(1,7)9-5/h4-5H,1-3H2	InChI=1S/C7H8O2/c1-2-7-5-4(3-8-7)6(1,7)9-5/h4-5H,1-3H2/t4-,5-,6+,7+/m1/s1
