18
gdb 35609	2.30143	1.74596	1.10733	1.3643	83.42	-0.2304	0.0143	0.2446	1101.2814	0.148005	-364.761646	-364.75355	-364.752606	-364.794241	31.804	
C	-0.3578842262	-0.9618649668	-0.8130195141	-0.450408
C	-0.1893467847	 0.1328519598	-0.3435541754	 0.317711
C	 0.0128828062	 1.461553199	 0.2094007396	-0.278439
C	-0.2853646895	 1.6013351331	 1.734241332	-0.276218
C	 0.6688008345	 2.6931675207	 2.1616210293	-0.097047
C	 1.6018639658	 2.9320734911	 1.2412333822	-0.109282
C	 1.4374070126	 2.0501106843	 0.0547154773	 0.323063
C	 2.5667273917	 1.3073640337	-0.567990096	-0.28918
N	 1.9613116374	 2.4661723804	-1.2521655475	-0.369897
H	-0.5132833245	-1.9306499748	-1.2192682722	 0.197312
H	-0.6588002866	 2.1582262309	-0.312168848	 0.1153
H	-1.3372382943	 1.8399114722	 1.9201915117	 0.114338
H	-0.0754865326	 0.6618023573	 2.2611305362	 0.122614
H	 0.5995035086	 3.177816876	 3.1285420374	 0.099826
H	 2.4181291856	 3.6404807651	 1.3134493247	 0.107087
H	 3.5799518036	 1.467314571	-0.208999584	 0.113318
H	 2.3608893339	 0.3103486342	-0.9462419571	 0.127215
H	 1.3391939985	 2.1351092127	-1.9877829061	 0.232689
73.3622	141.3892	198.7844	266.1898	315.3182	349.3886	456.5528	488.0976	535.1611	560.0785	617.5302	642.5182	685.8728	750.147	777.7755	874.1598	886.6546	923.3186	962.4352	970.1746	984.7919	1009.0184	1012.0326	1056.8488	1070.0995	1117.1211	1135.3526	1167.1267	1254.0947	1277.5684	1291.4183	1308.4402	1330.9539	1352.4239	1410.5492	1488.4372	1506.1557	1679.2224	2232.1212	3001.069	3029.119	3075.5782	3109.1343	3193.764	3200.2661	3219.8174	3477.1294	3502.1859
C#CC1CC=CC11CN1	C#C[C@H]1CC=C[C@]21CN2	
InChI=1S/C8H9N/c1-2-7-4-3-5-8(7)6-9-8/h1,3,5,7,9H,4,6H2	InChI=1S/C8H9N/c1-2-7-4-3-5-8(7)6-9-8/h1,3,5,7,9H,4,6H2/t7-,8+/m0/s1
