16
gdb 83199	3.03141	1.45349	1.26599	5.2401	64.74	-0.2362	0.0049	0.2411	1010.0478	0.125738	-475.017017	-475.009612	-475.008668	-475.049139	28.68	
O	 0.2607261315	 1.1931631501	 0.3672135967	-0.418208
C	 0.0926777205	-0.1423909527	 0.0633094956	 0.101882
C	-1.3325625143	-0.6764757738	-0.0197315392	-0.141092
N	-2.3351404843	 0.3544610128	 0.058192636	-0.321417
C	-3.0552476123	 0.5113258688	-1.204890777	-0.308644
C	-2.0935317714	 0.8985526925	-2.3230743752	 0.438136
O	-2.4053419603	 1.5829914807	-3.2545805586	-0.316595
O	-0.8206823597	 0.435738498	-2.2156032624	-0.209628
C	-0.4938189872	-0.5579278471	-1.2705722378	 0.050538
H	-0.6384959528	 1.5591852948	 0.4210988327	 0.286629
H	 0.8681016033	-0.7769748737	 0.4809340786	 0.110341
H	-1.5828689816	-1.6700886619	 0.3478436713	 0.095728
H	-2.9629082048	 0.2207606139	 0.8400565788	 0.244558
H	-3.590654735	-0.3999779696	-1.5216795123	 0.124472
H	-3.7868148308	 1.3173548957	-1.1278675004	 0.147085
H	-0.1308902807	-1.4603485085	-1.7516339468	 0.116215
76.3633	151.7687	206.6831	310.9786	395.0893	444.7178	498.4325	538.9789	590.1994	633.1719	646.0426	697.5986	736.3987	792.658	814.4965	905.683	956.0002	1023.4713	1032.4712	1064.3498	1076.9871	1113.702	1155.8309	1170.5915	1206.656	1239.0196	1268.1673	1309.7401	1346.0569	1368.1679	1407.7648	1445.9863	1484.1033	1485.2369	1864.6015	2964.1051	3110.1001	3120.2757	3156.6999	3166.9084	3566.0557	3650.164
OC1C2NCC(=O)OC12	O[C@H]1[C@H]2NCC(=O)O[C@@H]12	
InChI=1S/C5H7NO3/c7-2-1-6-3-4(8)5(3)9-2/h3-6,8H,1H2	InChI=1S/C5H7NO3/c7-2-1-6-3-4(8)5(3)9-2/h3-6,8H,1H2/t3-,4+,5-/m1/s1
