19
gdb 93496	2.47959	1.42482	1.07919	3.1616	71.24	-0.2658	0.0027	0.2686	1158.4981	0.159309	-460.207509	-460.198643	-460.197699	-460.241072	33.216	
C	-0.0159440215	 1.5911908788	 0.0251328898	-0.411074
C	-0.0040142235	 0.0624491465	 0.0707462071	-0.003457
C	 0.5885229497	-0.5397892063	-1.2125033279	-0.345866
C	 0.9410233988	-2.0209357191	-1.1697248128	 0.388535
O	 1.0794964155	-2.6911745321	-2.1538409665	-0.312254
O	 1.227946081	-2.5706349316	 0.0471778291	-0.239976
C	 0.7013639205	-2.0030311277	 1.2618802798	-0.110013
C	 0.78011547	-0.4849225604	 1.2755459061	 0.114813
O	 2.1287927505	-0.0335530484	 1.2969236711	-0.442296
H	 1.007217443	 1.9774387047	 0.0144396606	 0.136625
H	-0.5339182779	 1.955570485	-0.8676287513	 0.115658
H	-0.5238262037	 2.0064179972	 0.9017039123	 0.115157
H	-1.0370331777	-0.2966621851	 0.1793339742	 0.080196
H	-0.0599651485	-0.3854132984	-2.0776555289	 0.139563
H	 1.5316961961	-0.0268379546	-1.447322874	 0.141136
H	-0.3357250438	-2.336280763	 1.3911998114	 0.118027
H	 1.3075207338	-2.4332026611	 2.0625847586	 0.130504
H	 0.3259314276	-0.1241292129	 2.2062563109	 0.092331
H	 2.6512383002	-0.6241551116	 0.7431206106	 0.292394
80.9161	118.2795	162.8596	222.9205	248.9351	284.4521	325.7775	373.2524	415.5003	467.4189	527.3461	584.5411	613.961	719.0344	808.2585	852.4495	897.848	914.9291	968.1527	997.1695	1038.3675	1084.1686	1097.8952	1127.8346	1163.5114	1193.2284	1234.7035	1256.8304	1285.9353	1303.6438	1338.1516	1366.542	1390.6506	1408.4739	1414.885	1425.8357	1460.4801	1494.3414	1502.3139	1503.9552	1851.774	3006.6492	3029.1942	3032.1363	3037.2615	3048.7648	3103.5999	3107.8487	3109.9731	3119.8097	3805.7074
CC1CC(=O)OCC1O	C[C@H]1CC(=O)OC[C@H]1O	
InChI=1S/C6H10O3/c1-4-2-6(8)9-3-5(4)7/h4-5,7H,2-3H2,1H3	InChI=1S/C6H10O3/c1-4-2-6(8)9-3-5(4)7/h4-5,7H,2-3H2,1H3/t4-,5+/m0/s1
