21
gdb 72328	2.55038	1.9478	1.58344	0.1939	87.26	-0.232	0.0151	0.2471	965.0598	0.18462	-349.885901	-349.878712	-349.877768	-349.916725	31.226	
C	-0.1153410693	 1.5423217838	-0.0937880143	-0.473931
C	-0.0259464074	 0.0166740768	-0.0212862876	 0.372519
C	-1.4424750008	-0.5304012586	 0.3198385105	-0.381503
C	-1.3297985967	-0.6958588386	 1.8452720875	-0.048647
C	-0.0631970457	-0.7418815894	 2.2879115489	-0.243126
C	 0.8192229132	-0.6841169641	 1.0827881159	 0.315629
C	 2.1107951347	-0.1350140376	 0.4103525304	-0.32582
C	 1.1869633122	-0.6703466312	-0.7630007099	-0.132928
C	 0.9764842871	-1.9194929107	 0.115731186	-0.250297
H	 0.8420648753	 2.0409534262	-0.2521237566	 0.111873
H	-0.765362302	 1.8228640581	-0.931010094	 0.112468
H	-0.5655454955	 1.9520991951	 0.8177908027	 0.118517
H	-2.2390123182	 0.1657303239	 0.0377222924	 0.095895
H	-1.6950889707	-1.4890571937	-0.1468835583	 0.113066
H	-2.2074538277	-0.810975054	 2.4733537508	 0.091705
H	 0.2415567517	-0.8910252502	 3.3168024176	 0.096085
H	 2.3075925199	 0.934056455	 0.4712037763	 0.097836
H	 3.028378975	-0.7067683618	 0.5721833579	 0.089833
H	 1.4290142097	-0.6455442521	-1.8279925469	 0.063966
H	 1.8546332388	-2.5462370602	 0.2896299698	 0.085223
H	 0.0939786464	-2.5310428468	-0.069954479	 0.091639
212.4015	213.2888	268.0874	363.2632	406.9137	430.6614	502.8077	544.8298	565.3885	617.2522	699.1108	734.7383	786.3655	793.5164	832.049	885.8097	901.3349	917.8674	942.6565	950.7856	957.8212	971.4596	1006.1146	1041.1059	1065.547	1099.0797	1111.9511	1125.16	1130.2293	1159.3908	1177.138	1201.0892	1203.6481	1219.022	1255.8073	1272.8974	1307.6542	1363.8132	1408.6021	1476.8394	1496.0306	1498.3547	1518.0466	1549.2671	1619.8105	3028.2071	3038.0579	3063.9537	3066.7994	3070.8005	3081.3048	3085.7478	3122.7038	3138.1808	3151.1242	3178.5799	3208.2636
CC12CC=CC11CC2C1	C[C@]12CC=C[C@@]31C[C@H]2C3	
InChI=1S/C9H12/c1-8-3-2-4-9(8)5-7(8)6-9/h2,4,7H,3,5-6H2,1H3	InChI=1S/C9H12/c1-8-3-2-4-9(8)5-7(8)6-9/h2,4,7H,3,5-6H2,1H3/t7-,8-,9+/m1/s1
