18
gdb 40614	3.68311	1.31872	1.16238	2.859	75.19	-0.2235	0.057	0.2804	1086.4808	0.147964	-401.815561	-401.808155	-401.807211	-401.847912	29.046	
C	-0.2361707858	 1.5975172016	 0.0516151059	-0.176923
O	 1.0330586588	 0.9745691282	-0.1292767156	-0.230962
C	-0.1285113337	 0.135198529	-0.0492187087	 0.015434
C	-0.2951494134	-0.7451449062	 1.1592362353	-0.04283
C	-0.4111262799	-2.2445506241	 1.1997202754	-0.125071
C	 0.7087237552	-2.9901443031	 0.445718629	-0.042648
C	 1.7841737393	-2.1656807162	-0.1544818033	-0.261299
N	 1.7830099413	-2.3797540916	 1.3044967924	-0.13713
C	 0.699117813	-1.5623609882	 1.9698778623	-0.020474
H	-0.3943438303	 2.0527843624	 1.0292053023	 0.115141
H	-0.6037081999	 2.1769536778	-0.7946412717	 0.115174
H	-0.4014025885	-0.3190712407	-1.0019284693	 0.105065
H	-0.9977450003	-0.3150690918	 1.873227482	 0.103513
H	-1.2921928331	-2.7560684763	 1.5653811026	 0.093792
H	 0.6705255309	-4.0664307305	 0.3105388145	 0.100972
H	 2.5857555769	-2.7249751366	-0.6310378067	 0.120362
H	 1.6371975597	-1.1784658168	-0.5648664644	 0.164
H	 0.8209389	-1.3866923567	 3.0312054181	 0.103883
57.7842	141.6202	175.4185	325.1893	344.3516	420.0834	547.1442	656.9162	689.137	720.631	738.6351	754.1255	832.692	882.5412	887.004	901.3066	941.1639	951.5976	1006.6194	1018.4284	1055.0605	1063.109	1066.6172	1095.3806	1101.4846	1114.987	1144.1904	1159.7143	1178.3626	1211.7548	1243.2804	1277.6894	1292.6254	1333.5644	1345.315	1387.6971	1456.423	1513.1294	1526.9302	3076.7885	3103.6258	3107.6129	3131.1057	3158.382	3163.5299	3185.5488	3196.5568	3265.7692
C1OC1C1C2C3CN3C12	C1O[C@H]1[C@H]1[C@H]2[C@H]3CN3[C@@H]12	
InChI=1S/C7H9NO/c1-3-5-6(4-2-9-4)7(5)8(1)3/h3-7H,1-2H2	InChI=1S/C7H9NO/c1-3-5-6(4-2-9-4)7(5)8(1)3/h3-7H,1-2H2/t3-,4-,5-,6+,7-,8?/m1/s1
