18
gdb 98699	2.27464	1.20351	0.97631	2.5384	79.14	-0.2413	-0.0206	0.2207	1290.9408	0.144884	-401.9058	-401.896134	-401.895189	-401.941053	34.871	
C	 0.068164827	 1.7247880272	 0.354594039	-0.380691
C	-0.0492394573	 0.5616838637	 1.3359644888	-0.292376
C	 0.9130393438	-0.5677132908	 1.0327474951	 0.389862
O	 1.7018491918	-0.5376471199	 0.1132449726	-0.315396
C	 0.9130446796	-1.778261667	 1.9346270069	-0.116795
N	 0.1666102578	-1.7420137454	 3.193812757	-0.324214
C	-0.2922113358	-2.6682504055	 2.1485924981	-0.238801
C	-1.5795015955	-2.4505922235	 1.5480041354	 0.375514
C	-2.6598738197	-2.3292140224	 1.0347876969	-0.42405
H	-0.144487815	 1.3984558422	-0.6668376355	 0.128823
H	-0.6346346436	 2.5203827703	 0.6171353172	 0.107656
H	 1.0790236317	 2.1408385845	 0.3567004071	 0.127713
H	 0.1331490375	 0.8770151037	 2.371398977	 0.133657
H	-1.0649633187	 0.148018782	 1.3533892884	 0.141778
H	 1.8602487012	-2.3118031299	 1.8902226291	 0.109259
H	 0.6615034603	-2.248983176	 3.9226050051	 0.247043
H	-0.0407721771	-3.7205184688	 2.270370167	 0.124538
H	-3.6143578983	-2.2102322846	 0.5841793047	 0.206479
53.2116	62.556	120.3032	174.3245	199.4854	223.828	268.744	292.7766	454.6928	501.8718	526.912	574.3845	621.6697	636.3056	667.6533	737.1184	802.3285	812.1054	866.7434	940.9989	989.1008	1001.4132	1029.6976	1093.0681	1099.724	1140.9529	1192.7134	1216.9245	1252.2744	1275.3275	1373.9386	1398.4657	1413.6056	1437.5364	1442.638	1494.0959	1498.9192	1794.1968	2240.1898	3039.6302	3050.016	3066.8412	3119.3877	3121.1887	3124.5164	3139.1487	3501.7519	3511.3459
CCC(=O)C1NC1C#C	CCC(=O)[C@H]1N[C@H]1C#C	
InChI=1S/C7H9NO/c1-3-5-7(8-5)6(9)4-2/h1,5,7-8H,4H2,2H3	InChI=1S/C7H9NO/c1-3-5-7(8-5)6(9)4-2/h1,5,7-8H,4H2,2H3/t5-,7-/m0/s1
