20
gdb 104100	2.50692	1.23265	1.09213	2.7235	75.17	-0.2432	0.0294	0.2726	1212.8421	0.171149	-440.337611	-440.328359	-440.327414	-440.371581	35.063	
C	-0.0385219601	 1.5734990076	-0.0039691537	-0.442719
C	-0.0348916161	 0.043898936	-0.038006735	 0.275307
C	-1.4836519871	-0.4932184818	-0.0542205162	-0.084989
O	-2.1833169422	-0.2013194015	 1.1416563752	-0.422084
C	 0.7780323223	-0.5466593717	-1.2240838114	-0.265682
C	 1.4869527153	-1.7861128725	-0.6527790772	-0.338537
C	 1.5697836993	-1.5178919211	 0.8538307388	 0.402892
O	 2.265101096	-2.0821071791	 1.6684297605	-0.376463
N	 0.6796007075	-0.5079167328	 1.1155382451	-0.336677
H	 0.9770045266	 1.9623326799	 0.1130615002	 0.118989
H	-0.4560393038	 1.9733093417	-0.9338444378	 0.121882
H	-0.6573303786	 1.9363530343	 0.8220497725	 0.133403
H	-2.0427628157	-0.0126447434	-0.864232165	 0.111861
H	-1.4709592345	-1.5758682984	-0.2523767899	 0.088092
H	-1.7979847104	-0.7488348788	 1.8341864477	 0.283861
H	 0.1338310281	-0.76914328	-2.0794289116	 0.107779
H	 1.5160858597	 0.1902183619	-1.5549842704	 0.112038
H	 0.9151525354	-2.707686979	-0.8076237367	 0.130388
H	 2.4857014237	-1.9562152995	-1.0581198695	 0.132771
H	 0.6150068344	-0.1123725718	 2.0404823544	 0.247886
72.689	111.5431	133.4384	227.8045	258.0836	300.1719	313.2748	347.6213	395.1808	487.8439	497.2324	520.2731	578.2936	626.7159	662.4142	785.7859	828.7	897.4349	917.4466	944.9085	966.2533	1004.8943	1020.2409	1074.5226	1115.7837	1143.8565	1198.3552	1207.1396	1252.8524	1257.4221	1296.1927	1317.2796	1347.8768	1382.3619	1403.5782	1414.7592	1418.8939	1471.8539	1485.7842	1496.7844	1498.2069	1505.7442	1831.6324	2988.1972	3037.7608	3054.6929	3057.1511	3075.1562	3096.8302	3109.8014	3119.6605	3123.2221	3636.7524	3807.3582
CC1(CO)CCC(=O)N1	C[C@@]1(CO)CCC(=O)N1	
InChI=1S/C6H11NO2/c1-6(4-8)3-2-5(9)7-6/h8H,2-4H2,1H3,(H,7,9)	InChI=1S/C6H11NO2/c1-6(4-8)3-2-5(9)7-6/h8H,2-4H2,1H3,(H,7,9)/t6-/m0/s1
