17
gdb 124535	3.89021	1.08348	0.8997	3.1198	70.48	-0.2433	0.005	0.2483	1286.7564	0.135772	-455.20021	-455.191391	-455.190447	-455.234208	31.882	
C	 0.0160676525	 1.5518047523	 0.0775892144	-0.384258
C	 0.0204216492	 0.0249286893	-0.0539341586	-0.096535
C	-1.4024751909	-0.5675154649	-0.0054712386	-0.393808
C	 0.7245442208	-0.4079480445	-1.2973890952	 0.446881
N	 1.1946895249	 0.3312172089	-2.2400397187	-0.273981
N	 1.7248197402	-0.5809813596	-3.1308788621	-0.316762
C	 1.5780438954	-1.8766709856	-2.7257607624	 0.473713
O	 1.905673911	-2.9145534189	-3.2228405414	-0.387694
O	 0.9087250777	-1.7448938336	-1.5028086188	-0.241034
H	 1.0307638873	 1.9567271145	 0.0708994257	 0.131579
H	-0.5320131348	 2.012541379	-0.7490722057	 0.134047
H	-0.4682584693	 1.8399419889	 1.0145771794	 0.116606
H	 0.5856417687	-0.4037022273	 0.7854713798	 0.110636
H	-2.020423165	-0.1550649293	-0.8096602287	 0.127542
H	-1.3836986487	-1.6549840883	-0.1098311805	 0.140066
H	-1.8762848511	-0.3207581547	 0.9488175544	 0.122933
H	 2.1726103121	-0.2735896565	-3.9756385531	 0.290068
46.5028	124.1705	175.6242	212.7513	219.0972	259.8206	308.6532	375.8342	415.2882	465.5767	556.4039	632.8424	728.3847	765.3026	776.0638	882.7828	922.1795	936.3086	971.0577	981.9246	1076.1692	1110.6269	1135.4862	1182.1486	1223.0553	1282.8628	1329.3757	1383.1954	1397.2288	1409.0336	1425.5196	1486.7382	1489.1168	1500.1832	1513.5292	1676.3708	1918.093	3013.835	3042.1273	3050.1275	3113.2944	3122.7458	3127.9389	3128.8191	3702.9084
CC(C)C1=NNC(=O)O1	CC(C)c1n[nH]c(=O)o1	
InChI=1S/C5H8N2O2/c1-3(2)4-6-7-5(8)9-4/h3H,1-2H3,(H,7,8)	InChI=1S/C5H8N2O2/c1-3(2)4-6-7-5(8)9-4/h3H,1-2H3,(H,7,8)
