23
gdb 104068	2.85219	1.04604	1.00687	1.553	87.46	-0.2259	0.034	0.2599	1361.7742	0.204947	-388.313151	-388.303258	-388.302313	-388.347447	37.953	
C	 0.5452291262	 1.372344091	 0.1315668627	-0.493486
C	 0.0831854314	-0.0449296578	 0.0048225272	 0.339946
C	 0.1258098295	-0.8197649525	-1.0810223362	-0.16449
C	-0.4698406245	-2.1838266225	-0.8502194743	-0.296036
C	-0.6354132851	-2.2613704537	 0.6984536503	 0.304236
C	-1.9376434087	-2.9504421168	 1.1194683368	-0.467836
C	 0.5783358032	-3.0052108118	 1.2981170359	-0.096724
O	 0.7366529906	-4.3360813056	 0.8313036593	-0.42412
C	-0.5572487858	-0.778113318	 1.1649759694	-0.350476
H	 1.3071069573	 1.4754127583	 0.9151257886	 0.121932
H	 0.9691972604	 1.7440542227	-0.8054199598	 0.121901
H	-0.2815516482	 2.0363930304	 0.4164912201	 0.121946
H	 0.5181567822	-0.507551559	-2.0439142703	 0.080405
H	-1.4386057559	-2.2813471866	-1.3616757831	 0.09147
H	 0.1529606189	-3.0064647385	-1.2182910769	 0.116967
H	-1.9900233979	-3.9766663296	 0.7369960441	 0.106476
H	-2.0377394724	-2.9894120281	 2.2111274664	 0.108181
H	-2.8086235689	-2.4178729307	 0.7245296455	 0.117444
H	 1.4975662996	-2.4824928772	 1.0124955711	 0.11087
H	 0.5111963782	-2.9793697796	 2.3979343132	 0.081709
H	 0.0190303989	-4.8653205519	 1.1917401234	 0.28335
H	 0.0159687861	-0.669165602	 2.0968991753	 0.090838
H	-1.554804135	-0.3679453004	 1.3800880512	 0.095497
66.7515	136.6687	168.0816	215.3047	242.7965	262.0917	277.265	318.127	343.3507	355.3729	399.2065	439.6352	479.7002	610.7808	652.1774	777.4893	824.1959	880.5485	896.5793	903.159	935.3088	968.1867	981.6786	1008.6407	1035.404	1050.0551	1078.211	1126.9957	1131.9191	1160.26	1187.9856	1204.4576	1258.3281	1290.2415	1298.2874	1333.9537	1352.678	1381.986	1410.1358	1413.4435	1419.4696	1478.993	1485.2958	1490.186	1492.9957	1496.9209	1505.1856	1510.0167	1726.7081	2970.3146	2994.3739	2999.0884	3013.2941	3018.8106	3019.2586	3056.8462	3064.4234	3072.6225	3080.4468	3095.5512	3107.604	3178.0318	3827.6257
CC1=CCC(C)(CO)C1	CC1=CC[C@@](C)(CO)C1	
InChI=1S/C8H14O/c1-7-3-4-8(2,5-7)6-9/h3,9H,4-6H2,1-2H3	InChI=1S/C8H14O/c1-7-3-4-8(2,5-7)6-9/h3,9H,4-6H2,1-2H3/t8-/m1/s1
