17
gdb 74190	2.4892	1.66922	1.08421	5.5132	77.5	-0.2139	-0.0049	0.209	1089.3951	0.138783	-418.047825	-418.040121	-418.039177	-418.079795	30.789	
N	 0.099906582	 1.3537858437	 0.1774192981	-0.574901
C	-0.0044676374	-0.0134071983	 0.0234047983	 0.374779
C	-1.1787638171	-0.6826929918	-0.0017064946	-0.318964
C	-1.2733523175	-2.1438522375	 0.0007335209	 0.406699
O	-2.3334059027	-2.7503458864	-0.0508491988	-0.404275
N	-0.0724666967	-2.8300972854	 0.0858965191	-0.352285
C	 1.2199114624	-2.2466582543	-0.040473188	 0.029183
C	 1.650479368	-1.528147178	-1.2948039732	-0.314876
C	 1.2877322339	-0.7379001482	-0.0411832073	-0.145226
H	 0.8993893387	 1.795443597	-0.2513336742	 0.254218
H	-0.7536258823	 1.882039454	 0.0710051831	 0.256606
H	-2.1295130268	-0.162193558	 0.0035355148	 0.088454
H	-0.1640096016	-3.8301285755	-0.0097066924	 0.242555
H	 1.9888315447	-2.7723205629	 0.5173745111	 0.106621
H	 2.6969853228	-1.5645930437	-1.5768158764	 0.117802
H	 0.9437753976	-1.4938635217	-2.116007612	 0.131735
H	 2.102191082	-0.2693879928	 0.5025858914	 0.101874
108.3083	162.2794	233.0801	330.4636	398.5668	416.2652	465.5839	496.6361	501.803	522.9159	550.1816	659.4634	713.7084	736.3032	773.0681	820.2705	856.4822	888.8114	938.4623	969.9739	1045.4454	1050.2802	1095.3445	1116.4301	1124.9768	1157.3695	1235.2332	1259.8385	1303.2228	1359.6383	1416.3889	1441.2601	1457.0954	1490.299	1642.5339	1688.119	1763.6808	3134.9814	3146.8675	3156.4397	3196.8037	3232.729	3566.1392	3621.5175	3673.4893
NC1=CC(=O)NC2CC12	NC1=CC(=O)N[C@H]2C[C@@H]12	
InChI=1S/C6H8N2O/c7-4-2-6(9)8-5-1-3(4)5/h2-3,5H,1,7H2,(H,8,9)	InChI=1S/C6H8N2O/c7-4-2-6(9)8-5-1-3(4)5/h2-3,5H,1,7H2,(H,8,9)/t3-,5-/m0/s1
