19
gdb 97638	2.80318	0.7066	0.59822	1.9151	84.49	-0.2402	-0.0366	0.2036	1909.6237	0.154784	-422.992461	-422.98132	-422.980375	-423.031994	36.841	
C	-0.4869793448	 1.4487328214	 0.3219166687	-0.366802
C	 0.5211547217	 0.3498103173	-0.0611561488	-0.320258
C	 1.0988228841	-0.3272159921	 1.0939338956	 0.170956
C	 1.5434476408	-0.8715913706	 2.0726615939	-0.024869
C	 2.1718363953	-1.5303200379	 3.20905656	-0.122267
O	 1.473969684	-2.7275852039	 3.515866394	-0.242326
C	 1.822138598	-3.2631350057	 4.7810891343	-0.239352
C	 3.6242646576	-1.8710199343	 2.8178137911	 0.147405
O	 4.5976207173	-1.3566725752	 3.2965948753	-0.235413
H	-0.0091683561	 2.2181637488	 0.9340459137	 0.131551
H	-0.8896544549	 1.9235012413	-0.577451162	 0.118342
H	-1.319050322	 1.029783862	 0.8938001172	 0.132706
H	 0.0325813082	-0.3938188282	-0.7033686759	 0.137336
H	 1.3296430353	 0.7832386455	-0.6636169653	 0.13641
H	 2.2095356948	-0.8579707581	 4.0802839001	 0.107811
H	 2.887396874	-3.5267663269	 4.8474963026	 0.120627
H	 1.5902939651	-2.5576326996	 5.5925276832	 0.116466
H	 1.2257505534	-4.1680764314	 4.9125060801	 0.136192
H	 3.6796527481	-2.6672618723	 2.0433751224	 0.095485
9.1201	50.3181	73.0032	94.1066	114.4729	177.4226	192.5527	214.3548	308.5131	327.299	358.7376	453.8741	475.015	501.1476	543.173	783.7797	785.3676	952.3994	973.6212	1024.8161	1040.0664	1079.8656	1103.6964	1119.1875	1172.6252	1182.7038	1217.0574	1266.3816	1285.4927	1346.6531	1354.4294	1396.5372	1409.7494	1470.8567	1477.5377	1488.783	1495.0056	1505.1045	1508.5461	1837.2247	2360.8174	2899.0179	2985.0845	2990.8116	3023.5722	3038.8728	3046.4788	3052.1772	3120.7073	3126.5726	3127.7694
CCC#CC(OC)C=O	CCC#C[C@@H](OC)C=O	
InChI=1S/C7H10O2/c1-3-4-5-7(6-8)9-2/h6-7H,3H2,1-2H3	InChI=1S/C7H10O2/c1-3-4-5-7(6-8)9-2/h6-7H,3H2,1-2H3/t7-/m1/s1
