19
gdb 37108	3.618	1.62696	1.54168	0.3586	82.54	-0.1905	0.0185	0.2089	943.7134	0.161333	-348.68086	-348.674197	-348.673253	-348.711269	28.947	
C	-0.001801086	 1.5168890926	-0.1191919132	-0.300033
C	 1.2993691052	 0.7787628855	 0.0373663963	-0.10679
C	-0.0266670044	 0.0252445715	 0.0577157469	-0.108383
C	 0.4080148074	-0.7615130667	-1.2147160039	 0.214418
C	 0.8082086349	 0.0864240064	-2.4020312868	-0.389957
C	 1.7463502187	 0.0020257402	-1.2338293369	 0.245069
C	 2.8685594237	-1.0294278847	-1.2235567047	-0.347415
C	 2.1157701612	-2.3551210099	-1.2605163103	-0.060365
C	 0.7856829767	-2.1972052691	-1.2184701401	-0.163346
H	-0.2995648861	 2.0669998149	 0.769104935	 0.112146
H	-0.2957059191	 2.0077738061	-1.0405681067	 0.109714
H	 1.9826941304	 0.9901808888	 0.8513045314	 0.083373
H	-0.5374067954	-0.4482434406	 0.8866883911	 0.085646
H	 1.1034294401	-0.4816086816	-3.2783270149	 0.116765
H	 0.2884967347	 1.006676775	-2.6426017738	 0.114596
H	 3.5593063988	-0.9244819344	-2.0705623806	 0.108665
H	 3.4863014231	-0.9454455899	-0.3192706473	 0.10697
H	 2.625458084	-3.3103937026	-1.3517730239	 0.088907
H	 0.0675587722	-3.0113474115	-1.2089422776	 0.09002
205.842	241.7974	300.8683	414.1112	464.5997	476.6608	537.3318	603.6259	686.7149	716.3877	755.6407	780.1202	809.8927	856.6057	870.5458	917.1115	921.4525	939.1835	944.2109	956.3503	973.2787	981.9168	1023.1009	1052.4203	1072.4585	1094.33	1114.3151	1129.792	1168.4068	1188.5906	1196.2182	1240.2123	1280.2956	1307.7874	1328.068	1364.2967	1375.0935	1465.4834	1479.4447	1509.3881	1643.7574	3011.9029	3037.4376	3121.2333	3135.7625	3161.5687	3173.0918	3185.7818	3187.6399	3200.487	3214.1886
C1C2C1C13CC21CC=C3	C1[C@H]2[C@@H]1[C@@]13C[C@@]21CC=C3	
InChI=1S/C9H10/c1-2-8-5-9(8,3-1)7-4-6(7)8/h1-2,6-7H,3-5H2	InChI=1S/C9H10/c1-2-8-5-9(8,3-1)7-4-6(7)8/h1-2,6-7H,3-5H2/t6-,7+,8-,9+/m1/s1
