20
gdb 92582	3.27938	1.42364	1.0907	1.4854	81.99	-0.2089	0.014	0.2229	1149.3737	0.172052	-403.121494	-403.11348	-403.112535	-403.153955	31.137	
C	-0.0821403915	 1.5768233975	 0.0879234385	-0.325854
N	-0.0346313039	 0.133787561	 0.0736048194	-0.073942
C	-1.2542250485	-0.6121421057	 0.4497089445	-0.192145
C	-0.3839524082	-1.6212042357	 1.2216757878	 0.097035
O	-0.1319059146	-2.7672416455	 0.4407117132	-0.263019
C	 1.1188075586	-3.376088046	 0.7074848402	-0.124405
C	 2.2720095433	-2.4076387719	 0.6524112031	-0.076119
C	 2.0955677185	-1.0967100335	 0.7987393286	-0.066194
C	 0.7407612508	-0.5601485026	 1.1366303844	-0.019679
H	 0.9116158133	 1.9862287291	-0.1235224833	 0.119226
H	-0.76113478	 1.9339925894	-0.6939098771	 0.121539
H	-0.4261695811	 1.9952848383	 1.0549846566	 0.084731
H	-1.9238486664	-0.0504420797	 1.1212175969	 0.081402
H	-1.8292267104	-1.0146844608	-0.3898225597	 0.112038
H	-0.7130239839	-1.9000666458	 2.2310591528	 0.065329
H	 1.1023579654	-3.8977935815	 1.6826307704	 0.096435
H	 1.2401618899	-4.149272314	-0.0591319147	 0.118685
H	 3.2568183759	-2.8307560918	 0.4723536837	 0.0949
H	 2.9270541903	-0.4020014295	 0.7139969568	 0.090918
H	 0.7852787524	 0.0384086387	 2.0641513977	 0.059122
86.437	179.296	203.9529	229.6704	272.5489	330.0642	391.7739	476.2941	485.7689	537.7738	703.5794	715.574	825.535	833.6535	884.0376	924.6518	946.1297	983.0953	988.9794	1007.2108	1047.9711	1065.116	1092.3283	1113.3139	1150.1071	1170.4751	1206.338	1215.1893	1231.0828	1263.4799	1277.2233	1296.3112	1330.1758	1356.4474	1368.7105	1406.2437	1414.5437	1449.0419	1483.6955	1488.6807	1496.6595	1503.4164	1717.1065	2906.6267	2932.7059	2935.2612	2970.5777	3016.9473	3052.8742	3061.8989	3075.9592	3094.9477	3150.6523	3173.8308
CN1CC2OCC=CC12	CN1C[C@H]2OCC=C[C@@H]12	
InChI=1S/C7H11NO/c1-8-5-7-6(8)3-2-4-9-7/h2-3,6-7H,4-5H2,1H3	InChI=1S/C7H11NO/c1-8-5-7-6(8)3-2-4-9-7/h2-3,6-7H,4-5H2,1H3/t6-,7-/m1/s1
