20
gdb 14052	4.21944	1.53281	1.43282	2.0159	73.45	-0.2412	0.0653	0.3065	963.2838	0.179191	-348.998917	-348.991346	-348.990402	-349.031693	28.451	
C	-0.1124659025	 1.4360220415	-0.1293281431	-0.113741
O	 1.1502514131	 1.6895867341	 0.5148806679	-0.273853
C	 1.4732591354	 0.2845837524	 0.5287032194	-0.14517
C	 0.0851151763	-0.1005346365	-0.0256528367	 0.331133
C	-0.8862966506	-0.8124778507	 0.9235576714	-0.27096
C	-2.0741620478	-1.1554376445	 0.0128705928	-0.204958
C	-1.4137539276	-1.5915597097	-1.3184464841	-0.199551
C	-0.0064420678	-0.9244835908	-1.32405756	-0.287177
H	-0.9548892624	 1.8589076482	 0.4340213858	 0.09516
H	-0.1348959989	 1.8329601493	-1.1540021736	 0.090465
H	 2.3184822322	 0.052372921	-0.1344711722	 0.091755
H	 1.7059596645	-0.0751308513	 1.5394655665	 0.096229
H	-0.419435631	-1.7330858211	 1.2997366582	 0.094122
H	-1.15599253	-0.2045399394	 1.7926949917	 0.099893
H	-2.7340579396	-1.9195845901	 0.4324333542	 0.095356
H	-2.6847759276	-0.2579370339	-0.1444793643	 0.100183
H	-1.3175026354	-2.6807998767	-1.359171775	 0.101685
H	-2.0142290867	-1.2995399781	-2.1839821834	 0.099539
H	 0.1630368872	-0.3030217948	-2.2083930737	 0.099936
H	 0.7783644893	-1.6893401186	-1.3269236516	 0.099951
44.2162	75.8674	167.0329	263.9695	369.154	390.9111	458.4132	588.147	729.1925	775.4845	831.3888	856.6462	889.6451	904.8203	917.2733	957.1449	979.5358	991.1262	1016.6533	1030.4982	1041.6064	1069.7192	1145.3116	1156.6936	1163.9265	1207.754	1218.5851	1246.2029	1263.4754	1291.4105	1298.9363	1310.9249	1330.5364	1342.7831	1360.3576	1386.825	1485.998	1489.6936	1495.2355	1508.7214	1517.267	1535.207	2986.8073	2998.7685	3016.0445	3033.6201	3035.4051	3036.1007	3040.2322	3055.95	3074.6827	3081.4156	3089.2458	3103.2861
C1OCC11CCCC1	C1OCC21CCCC2	
InChI=1S/C7H12O/c1-2-4-7(3-1)5-8-6-7/h1-6H2	InChI=1S/C7H12O/c1-2-4-7(3-1)5-8-6-7/h1-6H2
