15
gdb 48487	2.19481	1.62514	1.20298	2.3303	67.92	-0.2553	-0.0435	0.2118	1051.0618	0.11019	-457.721743	-457.713212	-457.712267	-457.755544	30.396	
O	-0.737433177	 0.8398155587	 0.4961159247	-0.236933
C	 0.2612536966	 0.8545515909	-0.1672475493	 0.133338
C	 1.3899038254	 1.9012763924	-0.0193916741	 0.103258
C	 1.4060307829	 2.5454987047	 1.3905178285	-0.162602
O	 2.3247468409	 1.7309503534	 2.0986577137	-0.234175
C	 3.2983496002	 1.3958858863	 1.1504786037	 0.016791
O	 2.6130386238	 1.1495339161	-0.0705481349	-0.288271
C	 1.2856424104	 2.8576623559	-1.1135189719	 0.296861
C	 1.1467609364	 3.6223149112	-2.030559035	-0.448885
H	 0.48302314	 0.0978015491	-0.9467860885	 0.111568
H	 1.7471394722	 3.5871502342	 1.3342112756	 0.11209
H	 0.4281171321	 2.48605535	 1.8686305439	 0.157062
H	 4.0192983144	 2.2197397524	 1.0091352141	 0.097627
H	 3.8121676023	 0.4841831321	 1.4655071851	 0.130993
H	 1.0375582494	 4.3060324525	-2.8366250056	 0.211278
69.6776	80.7188	154.2474	170.0699	223.8153	313.2017	347.9477	465.9415	493.2823	532.6131	631.1304	642.0297	673.2523	741.7599	811.3861	928.5086	949.3351	982.3252	1024.6849	1068.7119	1111.8966	1152.4953	1163.1382	1192.0188	1225.4575	1275.1648	1348.0894	1397.4924	1422.1451	1502.3805	1541.4133	1841.1939	2231.0973	2936.3835	2955.7979	3025.619	3101.4287	3141.9031	3498.0297
O=CC1(COCO1)C#C	O=C[C@]1(COCO1)C#C	
InChI=1S/C6H6O3/c1-2-6(3-7)4-8-5-9-6/h1,3H,4-5H2	InChI=1S/C6H6O3/c1-2-6(3-7)4-8-5-9-6/h1,3H,4-5H2/t6-/m0/s1
