20
gdb 94640	3.35774	0.78784	0.70005	5.522	79.81	-0.2672	0.0396	0.3068	1612.6822	0.170675	-403.153596	-403.144075	-403.143131	-403.188719	34.596	
O	 0.2622338949	 1.1011523526	-0.6341784662	-0.428462
C	 0.072287753	-0.0982341616	 0.0771262208	 0.126894
C	-0.1460925523	-0.0499023146	 1.6134306639	-0.258196
C	-1.3013273521	-1.0734970223	 1.4299720261	-0.234037
C	-1.3406126217	-0.7213491559	-0.0903366432	-0.027156
C	-2.4203522883	 0.2865894442	-0.4849609032	-0.178327
C	-3.8065658625	-0.3829293588	-0.5784742637	-0.349464
C	-4.866294044	 0.5601459991	-0.9287816949	 0.256878
N	-5.6939541955	 1.317942272	-1.2050450616	-0.307121
H	 1.1486034648	 1.4290022621	-0.4531859074	 0.28723
H	 0.8449978504	-0.8370190555	-0.1809003924	 0.069655
H	 0.6900668015	-0.3300745211	 2.2584431681	 0.096487
H	-0.514790791	 0.9338523673	 1.9162183776	 0.112855
H	-0.9818911142	-2.1025562221	 1.6109505058	 0.106833
H	-2.2142656188	-0.8918528698	 2.003090867	 0.102204
H	-1.381559686	-1.5778224058	-0.7719376763	 0.068412
H	-2.4644153958	 1.1087818806	 0.2365012539	 0.120634
H	-2.1681102459	 0.737959228	-1.4484907148	 0.134794
H	-3.790449296	-1.1806165306	-1.3308034653	 0.149377
H	-4.0703378607	-0.8578337078	 0.3737567359	 0.150508
60.9362	96.212	108.8116	130.8051	221.4244	235.2791	258.1037	374.7071	404.5204	414.9936	508.6071	573.4117	658.1267	756.9281	766.6553	860.0218	894.4398	922.1198	954.3	955.4854	970.1077	1025.6797	1062.2393	1100.4145	1121.2278	1159.7953	1189.4232	1199.3741	1230.9363	1254.8957	1266.3689	1272.8589	1291.8104	1319.6061	1334.8429	1357.3874	1395.2352	1423.5259	1467.5164	1480.6705	1491.0508	1501.2359	2361.6899	2989.6957	3037.2503	3040.3725	3058.6021	3062.4359	3065.7655	3072.0756	3104.8726	3107.4795	3122.844	3822.4623
OC1CCC1CCC#N	O[C@H]1CC[C@H]1CCC#N	
InChI=1S/C7H11NO/c8-5-1-2-6-3-4-7(6)9/h6-7,9H,1-4H2	InChI=1S/C7H11NO/c8-5-1-2-6-3-4-7(6)9/h6-7,9H,1-4H2/t6-,7+/m1/s1
