13
gdb 11652	3.43495	1.89121	1.5134	3.6466	59.73	-0.267	-0.0116	0.2555	822.9471	0.095035	-398.531001	-398.524226	-398.523282	-398.561905	25.522	
O	 0.2024675442	 1.4623473482	 0.113035312	-0.416201
C	 0.0621226989	 0.0853086872	 0.0363753144	 0.097844
C	-0.1184576757	-0.6791608389	 1.3666224516	 0.005563
C	-1.542551404	-0.0948231418	 1.527421591	-0.259859
C	-1.3669309795	-0.5927377292	 0.0696841924	 0.28005
O	-0.6898548557	-1.7995322228	 0.5747251942	-0.321544
C	-2.3392466303	-0.7148772796	-0.9850830576	 0.160584
N	-3.1078825315	-0.7573897227	-1.847656408	-0.338978
H	 0.2702686078	 1.8204254111	-0.7779523163	 0.304711
H	 0.7363706211	-0.4059203941	-0.6717218174	 0.108664
H	 0.6213584695	-0.9286671543	 2.1238636821	 0.11682
H	-2.2253937043	-0.6937235461	 2.1292218453	 0.127794
H	-1.6376039104	 0.979731043	 1.6790861563	 0.134553
129.4566	177.8284	281.8904	313.5013	337.568	508.0745	520.9277	556.6114	584.4836	633.0038	750.4316	847.1389	907.8118	931.5865	959.3956	979.0591	1046.4722	1104.4717	1138.9763	1176.3983	1210.7503	1225.4475	1234.565	1273.8523	1291.5263	1422.3157	1484.7252	2353.8317	3077.3125	3097.005	3155.2404	3181.0274	3823.0623
OC1C2CC1(O2)C#N	O[C@H]1[C@H]2C[C@@]1(O2)C#N	
InChI=1S/C5H5NO2/c6-2-5-1-3(8-5)4(5)7/h3-4,7H,1H2	InChI=1S/C5H5NO2/c6-2-5-1-3(8-5)4(5)7/h3-4,7H,1H2/t3-,4+,5-/m1/s1
