16
gdb 44818	3.65032	1.16354	0.97637	2.1742	75.34	-0.2623	0.0155	0.2778	1186.5643	0.122887	-400.683348	-400.675107	-400.674163	-400.716627	31.044	
N	 1.2381081548	 0.6443096134	-0.7121472437	-0.561956
C	 0.5152012329	-0.268097601	-0.2499940861	 0.402099
O	 0.8113421214	-1.5929671032	 0.06858011	-0.277821
C	-0.6035777777	-1.8489811227	 0.2956414292	 0.054085
C	-1.0702413931	-1.0318988588	 1.4454741181	-0.337522
C	-0.9436568061	-0.3951970121	 0.0561148771	 0.179797
C	-2.0499222664	 0.3184007277	-0.6863608149	-0.452229
C	-3.3608341806	-0.2900721999	-0.4906974273	 0.287623
C	-4.429210001	-0.8117004013	-0.3148014312	-0.441156
H	 2.2018472319	 0.3306754335	-0.83808207	 0.232811
H	-1.014874629	-2.7684647822	-0.0959053798	 0.133314
H	-2.1008719371	-1.1918569574	 1.7473157463	 0.142413
H	-0.3759358898	-0.7745641846	 2.2390521379	 0.131535
H	-2.0778028421	 1.3676880409	-0.3649143344	 0.154088
H	-1.8053805222	 0.3383919892	-1.7556520122	 0.150722
H	-5.3833248357	-1.2566079315	-0.174726339	 0.202197
51.1502	110.99	178.6271	238.1259	287.1602	337.5435	403.362	463.5298	546.9296	625.3742	634.8692	654.3938	693.4566	747.6435	846.1793	863.6845	885.199	920.3071	935.9362	971.9513	993.0915	1014.3435	1034.305	1065.2182	1085.3033	1168.8581	1231.8853	1255.9583	1277.0501	1353.0064	1402.9438	1471.2907	1483.1432	1830.3742	2240.4995	3024.2834	3054.2103	3125.9872	3220.6474	3227.6591	3480.8554	3503.7099
N=C1OC2CC12CC#C	[NH][C]1O[C@H]2C[C@@]12CC#C	
InChI=1S/C7H7NO/c1-2-3-7-4-5(7)9-6(7)8/h1,5,8H,3-4H2	InChI=1S/C7H7NO/c1-2-3-7-4-5(7)9-6(7)8/h1,5,8H,3-4H2/t5-,7+/m0/s1
