18
gdb 93608	2.62388	1.31204	1.04158	5.6987	76.13	-0.2599	-0.0398	0.2201	1188.7647	0.148	-402.001375	-401.992706	-401.991761	-402.03527	31.951	
C	 0.086728853	 1.6055617402	 0.0407976078	-0.396256
C	 0.0250160708	 0.0675883414	-0.0128152112	-0.092573
C	 0.7426078537	-0.5491797818	-1.2301933904	-0.241907
C	 2.1805940891	-0.838008102	-0.7501274405	-0.22852
C	 1.9807406883	-1.3306554369	 0.6991616352	-0.261793
C	 3.1457551379	-1.2404166285	 1.5634601651	 0.287703
N	 4.0848742015	-1.1546749234	 2.2312110422	-0.318675
C	 0.754609282	-0.5115756784	 1.2067142281	 0.406052
O	 0.452194755	-0.359441495	 2.3559604219	-0.297232
H	 1.1160745929	 1.9703934252	-0.0400719728	 0.127254
H	-0.489424994	 2.03575683	-0.7832758689	 0.125155
H	-0.3260119626	 1.9679023754	 0.9854540462	 0.147196
H	-1.0248625684	-0.2366358756	 0.0467303092	 0.110001
H	 0.2567878848	-1.4874358234	-1.5203784115	 0.110057
H	 0.7260531063	 0.1077484895	-2.1032489433	 0.113692
H	 2.7023812381	-1.5685386716	-1.3707371961	 0.125541
H	 2.7801897402	 0.0775290754	-0.7427991972	 0.132109
H	 1.6429197113	-2.3773699306	 0.6825265062	 0.152194
40.8077	139.226	151.1159	219.5873	239.0777	261.6494	357.4255	415.0876	475.6706	520.4814	572.814	606.5654	646.8007	790.3873	820.3469	892.9463	912.1598	964.0916	986.0499	1017.1605	1035.5366	1096.1464	1102.7999	1127.3888	1181.2956	1212.1418	1253.1804	1292.5812	1298.2185	1328.1076	1344.0529	1353.2766	1406.7843	1489.827	1498.1667	1501.0948	1506.7377	1857.6055	2362.9465	3012.8478	3039.9087	3043.9896	3062.1072	3064.853	3101.8539	3110.5626	3121.7909	3129.2814
CC1CCC(C#N)C1=O	C[C@H]1CC[C@@H](C#N)C1=O	
InChI=1S/C7H9NO/c1-5-2-3-6(4-8)7(5)9/h5-6H,2-3H2,1H3	InChI=1S/C7H9NO/c1-5-2-3-6(4-8)7(5)9/h5-6H,2-3H2,1H3/t5-,6-/m0/s1
