22
gdb 107724	3.25118	1.28376	1.09836	1.5152	86.05	-0.2344	0.0901	0.3245	1223.8065	0.194202	-367.176538	-367.167741	-367.166797	-367.209647	34.498	
C	-0.276115557	 1.4821829221	-0.1478567095	-0.382077
C	 0.1377376076	 0.0132517854	 0.001360568	-0.296419
C	 0.920780565	-0.5143476296	-1.1678247223	 0.359661
C	 2.1357843806	 0.1039491107	-1.8436952817	-0.340513
C	 1.724323305	-0.7634655902	-3.0537385275	 0.354198
C	 1.9536525175	-0.3199912482	-4.4686188884	-0.496033
C	 1.9560977418	-2.2223899146	-2.5981114176	-0.284293
C	 0.8276796376	-1.9357562113	-1.628771783	-0.090236
N	 0.2591423588	-0.833109352	-2.4853704648	-0.230567
H	 0.5957858626	 2.1428098461	-0.1941554191	 0.114437
H	-0.856730921	 1.6251056123	-1.0640373305	 0.133607
H	-0.8886292448	 1.8028745294	 0.700027037	 0.110475
H	 0.7307644802	-0.1191035802	 0.9166039051	 0.099366
H	-0.7582437332	-0.6077396331	 0.1224032824	 0.105068
H	 1.975959767	 1.1665074736	-2.0482389546	 0.103302
H	 3.131155637	-0.0424307223	-1.4088349635	 0.08896
H	 3.0247074357	-0.3240898699	-4.7037304514	 0.118839
H	 1.4472060486	-0.9854678761	-5.1750731988	 0.124326
H	 1.57467071	 0.6948261919	-4.6270628622	 0.123716
H	 1.6425219975	-2.9331835443	-3.3682926092	 0.105255
H	 2.9446213975	-2.5000864161	-2.2158220104	 0.091315
H	 0.174038466	-2.6490076838	-1.137755788	 0.087615
84.39	138.9631	190.5058	214.0369	255.822	294.513	323.2551	384.2497	430.9375	501.7008	574.3587	641.4397	735.8985	767.4876	773.6607	803.3557	848.9841	899.6063	922.2442	964.5326	981.6937	1005.4283	1028.1777	1034.5782	1059.7956	1078.8898	1115.0924	1127.5301	1147.8948	1186.6042	1215.5559	1245.5067	1264.1799	1278.6292	1336.3394	1351.1701	1360.8706	1408.0863	1411.9932	1424.2571	1472.5146	1480.415	1488.3981	1492.3246	1498.6492	1508.5231	1509.1445	3016.0269	3026.7446	3029.8184	3036.7442	3038.8868	3054.5966	3092.8555	3093.8474	3096.5305	3104.9198	3106.0297	3116.1784	3169.3266
CCC12CC3(C)CC1N23	CC[C@@]12C[C@@]3(C)C[C@@H]1N23	
InChI=1S/C8H13N/c1-3-8-5-7(2)4-6(8)9(7)8/h6H,3-5H2,1-2H3	InChI=1S/C8H13N/c1-3-8-5-7(2)4-6(8)9(7)8/h6H,3-5H2,1-2H3/t6-,7+,8+,9?/m0/s1
