16
gdb 124175	3.39601	0.98643	0.77173	3.5197	83.36	-0.2445	-0.0252	0.2194	1448.5235	0.122919	-400.730951	-400.721747	-400.720803	-400.767903	31.457	
C	-0.0394280315	 1.4551480243	 0.0164139996	-0.509453
C	-0.0072985985	 0.0027544481	-0.0281656988	 0.217649
C	 0.0383821902	-1.2012870285	-0.0672152185	-0.075752
C	 0.0357668929	-2.6172762793	-0.1071180904	 0.188258
N	 1.1552818959	-3.3070861151	-0.2470242044	-0.213856
O	 0.7724009818	-4.6361175592	-0.2436280603	-0.164745
C	-0.5621679708	-4.7112830668	-0.1023427132	-0.02316
C	-1.1127796312	-3.4760220798	-0.008076212	 0.063527
C	-2.5409800785	-3.0723996107	 0.1568907187	-0.513764
H	 0.5827957594	 1.8377901646	 0.8328698212	 0.158748
H	 0.3361722499	 1.8862839173	-0.918092642	 0.158523
H	-1.0587801669	 1.824939421	 0.170134282	 0.153365
H	-0.978188281	-5.7071062295	-0.0859336432	 0.148717
H	-2.6859928454	-2.4932617923	 1.0750365141	 0.141444
H	-2.8737180092	-2.4424148115	-0.6748639735	 0.141458
H	-3.1950026772	-3.9468065126	 0.2016638309	 0.12904
6.5072	80.1235	91.0387	115.9936	244.4583	252.19	311.6871	352.5849	470.9619	480.892	545.7	609.5498	677.0429	745.2174	829.8776	922.9931	950.0741	1004.1332	1018.2374	1048.8048	1053.6588	1070.3588	1146.3886	1236.9608	1300.9993	1396.5781	1411.4617	1422.967	1473.4635	1474.6047	1480.4127	1489.6324	1504.5419	1647.4405	2366.3896	3028.9755	3036.8838	3090.4745	3090.8819	3094.1112	3119.4372	3260.3097
CC#CC1=NOC=C1C	CC#Cc1nocc1C	
InChI=1S/C7H7NO/c1-3-4-7-6(2)5-9-8-7/h5H,1-2H3	InChI=1S/C7H7NO/c1-3-4-7-6(2)5-9-8-7/h5H,1-2H3
