19
gdb 110539	3.38205	1.16263	1.04713	2.3052	75.03	-0.2323	0.0727	0.3049	1194.4804	0.159365	-422.955705	-422.947436	-422.946491	-422.988513	32.289	
O	 0.2824622112	 0.5988301484	-0.9504694111	-0.42509
C	-0.0600343637	 0.3458625548	 0.4077382682	-0.115274
C	-1.4454457681	-0.2748664907	 0.409254484	 0.055387
C	-1.663319329	-1.7196464546	-0.0353802796	-0.120627
C	-1.4948876769	-2.6332137175	 1.2218429452	-0.153105
C	-1.1874419634	-1.7225547485	 2.4071395411	-0.232856
C	-2.1368906031	-0.6851642222	 1.7440666536	-0.180336
C	-2.7862596485	-1.9085672764	 0.9308489691	 0.375176
O	-4.0722563022	-2.3093406495	 0.6867639059	-0.454221
H	 1.1854007343	 0.928175055	-0.9758465451	 0.285119
H	 0.6708365844	-0.3296043935	 0.8744720246	 0.084768
H	-0.0735609892	 1.2791380819	 0.9965044335	 0.079514
H	-2.1148080112	 0.3789036427	-0.1602601977	 0.085795
H	-1.570316528	-2.1414053978	-1.0271476935	 0.093252
H	-1.2730689585	-3.6852364773	 1.0950505734	 0.084946
H	-1.6178286166	-2.1189558479	 3.3318526131	 0.091529
H	-0.152536046	-1.4197237748	 2.5979098487	 0.089293
H	-2.6624157233	 0.0548395538	 2.3451038283	 0.067494
H	-4.417185592	-2.736827386	 1.4790949683	 0.289235
82.9788	142.8131	188.2486	265.6622	292.8471	321.5737	361.3782	407.325	480.9687	574.5264	632.66	693.6467	714.5984	813.2445	854.1409	906.0527	940.6149	950.4141	979.7082	989.4453	1011.9031	1025.5301	1060.7244	1068.39	1093.2824	1115.3153	1119.9335	1134.6562	1181.5463	1217.7657	1241.946	1255.7361	1256.7347	1288.1833	1299.4047	1321.5824	1381.6095	1460.3484	1492.1815	1509.6011	1518.5894	2955.8371	3008.3345	3041.3563	3058.0721	3088.4376	3131.1015	3196.5699	3211.842	3783.3238	3830.3661
OCC1C2C3CC1C23O	OC[C@H]1[C@H]2[C@H]3C[C@@H]1[C@@]23O	
InChI=1S/C7H10O2/c8-2-3-4-1-5-6(3)7(4,5)9/h3-6,8-9H,1-2H2	InChI=1S/C7H10O2/c8-2-3-4-1-5-6(3)7(4,5)9/h3-6,8-9H,1-2H2/t3-,4+,5-,6+,7+/m1/s1
