15
gdb 39549	3.48768	2.1402	1.70677	1.065	65.66	-0.246	0.0076	0.2536	785.913	0.116939	-416.756456	-416.750955	-416.750011	-416.786112	23.099	
O	-0.0210965504	 1.48697925	 0.0485406168	-0.24427
C	 1.1420543475	 2.1776239098	-0.0758142868	 0.133142
N	 2.3222356737	 1.7370485185	-0.2066845551	-0.285458
C	 2.4623776027	 0.2901418648	-0.2550259979	 0.018007
C	 2.2424542138	-0.515016425	 1.0219089167	-0.050395
C	 0.7676737837	-0.6248201502	 1.2199615696	-0.083812
C	 0.1104870743	 0.0611585284	 0.0406507043	 0.122554
C	 1.2640283672	-0.5302763023	-0.7788428398	-0.08049
N	 1.4854220039	-1.6062622752	 0.3142441387	-0.173131
H	 0.9394430143	 3.2464560555	-0.0577794469	 0.131217
H	 3.399773442	 0.0182521326	-0.7429673255	 0.0957
H	 2.9480006196	-0.7360032953	 1.8140051206	 0.106795
H	 0.3185093519	-0.9387831946	 2.1540604348	 0.106833
H	-0.8719092512	-0.342228421	-0.2026042125	 0.108932
H	 1.1546787571	-0.8141901962	-1.8215471569	 0.094375
219.861	315.015	428.1447	562.7777	577.8388	585.5882	750.5738	757.7859	804.3821	822.1942	826.8854	909.3527	922.0867	944.8238	977.611	1004.327	1015.9079	1037.2567	1043.7195	1059.9143	1078.7599	1129.6081	1157.6529	1185.7401	1197.3634	1256.0663	1264.5259	1331.4364	1352.2671	1369.7219	1378.887	1409.1335	1706.9341	3100.9182	3127.2684	3162.7833	3166.9117	3187.5223	3200.6026
O1C=NC2C3C4C1C2N34	O1C=N[C@H]2[C@H]3[C@H]4[C@@H]1[C@@H]2N34	
InChI=1S/C6H6N2O/c1-7-2-3-5-6(9-1)4(2)8(3)5/h1-6H	InChI=1S/C6H6N2O/c1-7-2-3-5-6(9-1)4(2)8(3)5/h1-6H/t2-,3-,4+,5-,6-,8?/m0/s1
