18
gdb 41452	2.86456	2.15234	1.64987	1.7994	74.77	-0.2245	0.0488	0.2733	865.7031	0.150171	-401.806726	-401.800422	-401.799478	-401.836934	27.076	
C	 0.0863140977	 1.4866370754	-0.2090584516	-0.20395
O	 1.5375359378	 1.424699298	 0.0744202135	-0.342568
C	 1.3120316593	 0.2210339737	 0.8631980444	 0.367861
C	 1.1431555888	 0.3229192448	 2.3683905024	-0.294796
C	 0.0559752733	-0.7838635624	 2.5507604599	-0.234833
C	-0.1481398705	-1.2349849405	 1.1054250126	-0.083246
C	 1.2767760613	-1.2772392838	 0.3842637727	-0.105598
N	 0.6171407299	-0.9164246374	-0.9056486026	-0.354528
C	-0.0095138911	-0.0100397438	 0.1373176214	 0.196353
H	-0.4159525961	 2.173023283	 0.4809211411	 0.118589
H	-0.1147212989	 1.7684946914	-1.2464457023	 0.12596
H	 2.0632745329	 0.1116988192	 2.9206537876	 0.107561
H	 0.7919937401	 1.3125045595	 2.6738288398	 0.107769
H	 0.3963598461	-1.6144755858	 3.176148035	 0.109095
H	-0.8626538119	-0.3925117139	 2.9971964833	 0.1093
H	-0.8519099064	-2.0356651757	 0.8788608176	 0.088854
H	 2.012134887	-2.0857573542	 0.4650030578	 0.073033
H	 1.2800772409	-0.3571207775	-1.4510007925	 0.215144
209.5231	267.1313	375.7734	383.5796	461.8039	493.6772	594.4816	666.3261	680.0665	757.3099	819.0242	837.6347	842.216	868.7911	895.9359	924.3923	944.3498	957.1416	993.8323	1024.1693	1065.6475	1074.5321	1099.8651	1131.0904	1145.7008	1172.4136	1209.8697	1220.4666	1224.148	1243.897	1248.2283	1287.1148	1295.4809	1321.8499	1323.0422	1342.8517	1487.3218	1496.2948	1512.5606	3038.5494	3042.9124	3052.0805	3061.375	3087.5023	3104.7893	3107.3918	3127.8353	3395.6163
C1OC23CCC4C2NC134	C1O[C@]23CC[C@@H]4[C@H]2N[C@]134	
InChI=1S/C7H9NO/c1-2-7-5-4(1)6(7,8-5)3-9-7/h4-5,8H,1-3H2	InChI=1S/C7H9NO/c1-2-7-5-4(1)6(7,8-5)3-9-7/h4-5,8H,1-3H2/t4-,5-,6+,7-/m1/s1
