23
gdb 110216	2.09628	1.26542	1.1869	1.1758	86.38	-0.233	0.0723	0.3053	1278.1091	0.204211	-388.270692	-388.260585	-388.25964	-388.305285	38.267	
C	 0.0374002874	 1.4237571073	 0.3493492786	-0.372699
C	-0.0040765431	-0.0026220683	-0.2141099259	-0.210556
C	-1.3693623125	-0.6461329811	-0.0642915825	-0.113748
C	-1.6894488668	-2.1332116857	-0.1026061784	 0.256668
C	-2.6809437129	-2.7203282454	-1.065755125	-0.495699
C	-0.5827295334	-2.9314501608	 0.6073321211	-0.279057
C	-0.8380041388	-2.1171750079	 1.9180784174	-0.294815
C	-1.9111509563	-1.3161396802	 1.17304718	 0.343417
O	-3.1293655845	-0.961990193	 1.7360672689	-0.465457
H	 1.0233696945	 1.8792684751	 0.2132826113	 0.111693
H	-0.6975441624	 2.0677209761	-0.1467302959	 0.112311
H	-0.1878325011	 1.4302824768	 1.4217049239	 0.110668
H	 0.2697441337	 0.0173403183	-1.2772344512	 0.095261
H	 0.7618966266	-0.6077625456	 0.2820004231	 0.099888
H	-2.1622481932	-0.0814990594	-0.5570481587	 0.077449
H	-2.232704396	-2.8954189729	-2.0514951325	 0.114673
H	-3.0654501777	-3.6803408018	-0.7020839754	 0.115153
H	-3.5360139352	-2.0506098308	-1.202471431	 0.123175
H	-0.842483831	-3.9872607665	 0.7201395726	 0.09981
H	 0.4210580665	-2.8691202918	 0.1759016482	 0.093392
H	-1.2801093615	-2.7360759859	 2.7019458622	 0.107785
H	 0.004084188	-1.5602456115	 2.3437774405	 0.087966
H	-3.0761097601	-0.0459005052	 2.0281199685	 0.282719
69.2089	139.8357	164.5528	180.303	205.2678	227.3582	250.8336	276.3418	294.0145	380.1078	409.7598	498.5025	553.1759	582.7841	714.7393	729.7735	772.5555	805.3264	831.0956	920.8965	945.0972	962.1359	978.8748	1026.2485	1044.7682	1077.5798	1114.2652	1125.5279	1147.7704	1183.8557	1208.5225	1230.6556	1233.9799	1238.4016	1289.9912	1302.2182	1334.238	1338.9762	1364.5392	1408.64	1414.9745	1474.6227	1479.7967	1487.1245	1492.5916	1497.849	1499.6519	1507.8254	1524.3525	3018.5456	3021.3652	3027.3572	3038.1639	3049.9315	3065.2166	3075.0651	3091.9004	3093.9259	3097.4629	3100.1746	3105.7468	3112.5633	3799.5158
CCC1C2(C)CCC12O	CC[C@H]1[C@@]2(C)CC[C@@]12O	
InChI=1S/C8H14O/c1-3-6-7(2)4-5-8(6,7)9/h6,9H,3-5H2,1-2H3	InChI=1S/C8H14O/c1-3-6-7(2)4-5-8(6,7)9/h6,9H,3-5H2,1-2H3/t6-,7+,8+/m0/s1
