17
gdb 70085	2.64142	1.8268	1.39067	0.6203	72.53	-0.2373	-0.0033	0.2339	954.8918	0.136784	-421.799333	-421.792143	-421.791199	-421.830481	29.522	
O	-0.0295679727	 1.3632205437	 0.09381437	-0.472721
C	 0.0159072472	-0.0326979703	-0.0136664529	 0.377427
C	-0.4774178029	-0.6908865426	-1.2675762962	-0.351404
C	-1.3296396669	-0.7247264697	 0.0045727725	-0.130349
C	-1.4747541941	-1.9590934591	 0.8014913706	-0.05082
C	-0.4705533204	-2.5232021372	 1.4838830344	-0.09687
C	 0.8845115133	-1.9298508893	 1.515307059	 0.013082
O	 1.6522413923	-1.9144671662	 0.2818195949	-0.257741
C	 1.1323730248	-0.6820650269	 0.7667585193	-0.051855
H	 0.6532481528	 1.7266711018	-0.4815535723	 0.285287
H	-0.8244982408	-0.0364842525	-2.0592868545	 0.114523
H	 0.0061775618	-1.6104252447	-1.5728670249	 0.139524
H	-2.1901548087	-0.0639086042	-0.0158624942	 0.103465
H	-2.462058515	-2.4129234377	 0.8274167025	 0.099296
H	-0.6368641921	-3.4284287667	 2.0591818082	 0.094217
H	 1.4951669487	-2.1506875789	 2.3888070887	 0.09419
H	 1.8723239227	 0.0237422605	 1.143652215	 0.090751
150.4957	232.7931	288.1593	331.9252	365.6921	405.2072	479.1893	524.086	539.8136	586.0343	682.8327	746.5327	810.8821	831.5872	850.5451	895.5	906.728	939.7242	974.1424	989.8226	995.2482	1051.8858	1075.7178	1094.4049	1107.5181	1129.2391	1212.3853	1219.4542	1268.4256	1281.9019	1339.9316	1368.1088	1405.565	1422.4118	1443.6361	1480.2966	1692.3321	3111.4757	3128.8546	3141.574	3154.2702	3166.3601	3184.3409	3245.42	3788.5757
OC12CC1C=CC1OC21	O[C@]12C[C@H]1C=C[C@H]1O[C@@H]21	
InChI=1S/C7H8O2/c8-7-3-4(7)1-2-5-6(7)9-5/h1-2,4-6,8H,3H2	InChI=1S/C7H8O2/c8-7-3-4(7)1-2-5-6(7)9-5/h1-2,4-6,8H,3H2/t4-,5-,6-,7-/m1/s1
