12
gdb 24883	3.49925	1.32468	0.96092	1.5091	75.29	-0.259	-0.1083	0.1508	1103.6268	0.078788	-431.690516	-431.683428	-431.682484	-431.722498	25.81	
N	-0.0399603372	 1.2671772172	 0.3359246172	-0.514442
C	-0.017055801	 0.060591033	-0.0391709503	 0.357293
O	 1.1562504277	-0.56454705	-0.4516569874	-0.260202
C	 1.1068290599	-1.8678392827	-0.8429300849	 0.251748
C	-0.0425009838	-2.5740945214	-0.8440918348	-0.117
N	-1.2449330488	-2.0114831925	-0.4452768305	-0.228315
C	-1.2176605337	-0.7804881876	-0.0720721395	 0.009721
C	 2.3657122246	-2.4008109507	-1.2432182627	 0.251689
N	 3.3802485352	-2.8505063376	-1.572011163	-0.308222
H	 0.88493072	 1.697093525	 0.2942889164	 0.242141
H	-0.0554974296	-3.60870502	-1.1596421187	 0.154183
H	-2.1361206432	-0.2963593327	 0.2492727782	 0.161407
110.464	136.3053	151.7421	357.9086	405.2203	453.9159	472.0374	542.3191	570.7308	656.7134	707.3608	718.9895	871.1986	894.894	895.2312	969.9396	986.1586	1078.108	1124.2883	1210.5345	1287.4789	1363.7886	1383.2636	1584.1699	1664.3102	1739.6709	2347.07	3179.3817	3229.107	3491.6988
N=C1OC(=CN=C1)C#N	[NH]C1=C[N]C=C(O1)C#N	
InChI=1S/C5H3N3O/c6-1-4-2-8-3-5(7)9-4/h2-3,7H	InChI=1S/C5H3N3O/c6-1-4-2-8-3-5(7)9-4/h2-3,7H
