16
gdb 89146	2.20377	1.68234	1.17774	3.9557	69.48	-0.2591	0.0335	0.2926	1050.0981	0.123289	-437.858323	-437.84984	-437.848896	-437.891181	31.892	
O	-0.0846188606	 1.4143977164	-0.1863446225	-0.414655
C	-0.0048049264	 0.0304100556	 0.0191757091	 0.123825
C	 0.2702214773	-0.5335938533	 1.4641606079	-0.373308
C	-1.0689641936	-1.2753956272	 1.3631483833	 0.386624
O	-1.2909571537	-2.5788894946	 1.7417016048	-0.451457
C	-2.2124634383	-0.2856352829	 1.2069522284	-0.258307
C	-2.2437007627	 1.0040547996	 1.8438986348	 0.312225
N	-2.2869509238	 2.0058847012	 2.4212203301	-0.357862
C	-1.356142095	-0.6730785227	 0.0033212995	-0.130931
H	 0.768487635	 1.8102514496	 0.018426736	 0.292188
H	 0.6738557957	-0.4466113812	-0.7012280386	 0.087498
H	 1.1238117912	-1.2131474962	 1.4933529108	 0.116504
H	 0.350062841	 0.2082528504	 2.2632528358	 0.123545
H	-1.3823371948	-2.6107034751	 2.7013468881	 0.296212
H	-3.1776902929	-0.7834149428	 1.1860197182	 0.137987
H	-1.8359833685	-1.1084020468	-0.864110466	 0.109912
118.7642	134.3083	165.3385	240.8857	272.2303	285.6608	367.4186	398.0165	433.6887	485.6415	561.9368	572.6246	670.351	743.5542	811.0193	854.9508	907.972	963.2845	979.1173	983.9537	1041.4259	1080.4517	1115.97	1175.0639	1191.6128	1209.3777	1228.1594	1270.6817	1305.1657	1329.7264	1340.1357	1414.7113	1454.4205	1492.759	2348.8107	3003.9953	3064.7732	3130.5614	3161.1096	3198.4968	3787.2692	3822.0505
OC1CC2(O)C(C#N)C12	O[C@H]1C[C@@]2(O)[C@@H](C#N)[C@@H]12	
InChI=1S/C6H7NO2/c7-2-3-5-4(8)1-6(3,5)9/h3-5,8-9H,1H2	InChI=1S/C6H7NO2/c7-2-3-5-4(8)1-6(3,5)9/h3-5,8-9H,1H2/t3-,4-,5-,6+/m0/s1
