15
gdb 52648	2.00361	1.13266	0.86364	2.097	72.12	-0.255	-0.1069	0.1481	1377.7295	0.107852	-457.744486	-457.734172	-457.733228	-457.782226	33.88	
C	 0.1307805096	 1.3844657523	 0.2174095032	-0.498934
C	 0.0991052665	-0.064749038	 0.0968782867	 0.036374
C	 0.0709961486	-1.2667802437	 0.0222980399	 0.090499
C	 0.0229977236	-2.7286171543	-0.1211604495	-0.120572
O	-1.2576521655	-3.2800101813	 0.0478734475	-0.406369
C	 0.5463722043	-3.0318503869	-1.5314509188	 0.27912
O	-0.1927247948	-3.3837116556	-2.4194245948	-0.292057
C	 2.0449358689	-2.8820315555	-1.8022316857	 0.097748
O	 2.8571422139	-2.7521058966	-0.9264913429	-0.209565
H	 1.1209635516	 1.7307981287	 0.5320901406	 0.15806
H	-0.1085468678	 1.8699793027	-0.7346716192	 0.153752
H	-0.5953098756	 1.7303868527	 0.9609407181	 0.15944
H	 0.7004326313	-3.1880069366	 0.6092067345	 0.141955
H	-1.6515208276	-3.3231901334	-0.8360678935	 0.29416
H	 2.303328033	-2.9566537445	-2.8787807761	 0.116388
18.254	49.7679	75.2721	119.4007	144.786	180.4207	250.5295	293.5229	339.7657	371.7525	411.5108	504.0571	536.7255	567.7243	658.5377	798.1182	841.4872	1013.2349	1049.9679	1053.4194	1084.8981	1159.5691	1164.1015	1272.2682	1311.1929	1368.0793	1412.3797	1426.6305	1474.451	1476.0453	1805.4196	1824.3568	2359.4107	2932.5872	3031.3071	3041.8065	3094.5156	3096.0608	3728.2469
CC#CC(O)C(=O)C=O	CC#C[C@@H](O)C(=O)C=O	
InChI=1S/C6H6O3/c1-2-3-5(8)6(9)4-7/h4-5,8H,1H3	InChI=1S/C6H6O3/c1-2-3-5(8)6(9)4-7/h4-5,8H,1H3/t5-/m1/s1
