23
gdb 101766	4.10648	0.59848	0.54878	1.2593	83.14	-0.2424	-0.0077	0.2347	2043.9591	0.201873	-425.451985	-425.440301	-425.439357	-425.490566	40.517	
C	-0.1064172274	 1.6057612675	 0.0692476502	-0.391388
C	-0.043635489	 0.0743832582	-0.0082433766	 0.028361
C	-1.449834086	-0.5271581688	 0.0390369276	-0.07985
O	-2.0591454546	-0.1597607708	 1.2690961312	-0.424914
C	 0.6952569674	-0.4377739001	-1.2556848041	-0.179978
C	 2.1735083614	-0.0526568161	-1.3129535607	-0.313077
C	 2.921027955	-0.6698256313	-2.4896937649	 0.378884
C	 4.3822803927	-0.2776471373	-2.6343492278	-0.472579
O	 2.3856842268	-1.427431477	-3.2663619131	-0.290831
H	 0.8869140093	 2.0498562429	 0.1821076854	 0.105773
H	-0.5582258671	 2.0221830467	-0.839896359	 0.105704
H	-0.7150695371	 1.9155079327	 0.9213973335	 0.135264
H	 0.4818316275	-0.2947729182	 0.8845311205	 0.077542
H	-2.0355550132	-0.1588529899	-0.8201276255	 0.082958
H	-1.38363811	-1.6227695724	-0.0550122386	 0.084111
H	-2.9651198527	-0.480803865	 1.2640951545	 0.286395
H	 0.6240302767	-1.5300026174	-1.3059412937	 0.108981
H	 0.1954758804	-0.0684198382	-2.1601735266	 0.104255
H	 2.3096685604	 1.0355763862	-1.3638498201	 0.120449
H	 2.6929312674	-0.358765084	-0.3925497633	 0.118484
H	 4.9340461709	-0.4908183504	-1.7121686601	 0.135348
H	 4.8310247738	-0.8197504887	-3.467510996	 0.141651
H	 4.4679524074	 0.8005741416	-2.8121407629	 0.138457
27.0285	60.161	87.3355	100.8421	119.5273	133.3945	234.6357	242.0177	244.6291	262.264	323.0711	406.7554	455.23	481.6763	502.6836	603.681	740.8426	813.8283	858.1656	902.0703	923.8965	933.3381	965.7942	1013.5436	1050.307	1084.9238	1108.7028	1147.9102	1171.3203	1175.7682	1210.9236	1244.718	1270.8358	1300.3626	1318.6833	1349.9412	1381.7375	1382.9249	1396.2508	1406.9135	1451.3555	1459.2248	1466.1474	1477.8669	1487.1836	1495.1378	1509.4784	1522.43	1811.2675	2957.7939	2986.6141	3007.6896	3008.8919	3028.4913	3033.9676	3036.7522	3046.2152	3075.9466	3096.3901	3096.8808	3129.9404	3151.5525	3836.1834
CC(CO)CCC(C)=O	C[C@@H](CO)CCC(=O)C	
InChI=1S/C7H14O2/c1-6(5-8)3-4-7(2)9/h6,8H,3-5H2,1-2H3	InChI=1S/C7H14O2/c1-6(5-8)3-4-7(2)9/h6,8H,3-5H2,1-2H3/t6-/m1/s1
