16
gdb 5642	3.50457	1.90005	1.35708	3.0509	67.36	-0.1882	0.0309	0.2191	914.2726	0.131212	-379.946247	-379.938572	-379.937628	-379.978956	28.13	
C	 0.0452659321	 1.5712174218	 0.0163390369	-0.378509
C	 0.0009910601	 0.0432106861	-0.0569463879	-0.147644
N	 0.6536038695	-0.4903666968	-1.2396897553	-0.084041
C	 0.0755754292	-0.8166130096	-2.4647348075	-0.11749
C	 1.0603109276	-1.2149924775	-3.2759999418	-0.058661
O	 2.2688947134	-1.1422589212	-2.6028658904	-0.221885
C	 2.0185461441	-0.6753736353	-1.3283062298	 0.469274
N	 2.8624302372	-0.4521915982	-0.4048941529	-0.621302
H	 1.0825850382	 1.9141623195	 0.0343779324	 0.153749
H	-0.4598981979	 2.0240668764	-0.8425881811	 0.116164
H	-0.4499256213	 1.9191541649	 0.9282695637	 0.118036
H	 0.5120353986	-0.3868972471	 0.8090064151	 0.146658
H	-1.0317060765	-0.3203230639	-0.0545944097	 0.109124
H	-0.9855028956	-0.7433037982	-2.6319626143	 0.145245
H	 1.0891685411	-1.5659789686	-4.2914521579	 0.14777
H	 3.8031178402	-0.6825166323	-0.7117344895	 0.223511
43.2385	92.6149	217.5419	222.279	309.4732	385.1055	487.4501	574.8734	643.0495	665.8184	709.7361	745.1471	771.6457	778.4857	791.021	911.7181	951.0312	1003.3516	1052.4475	1087.6529	1107.2678	1153.6168	1215.3611	1272.5611	1277.5468	1389.4256	1394.2553	1408.8051	1449.1873	1480.3015	1490.114	1506.1726	1658.1153	1768.0531	3041.1492	3051.2936	3097.7812	3114.3574	3133.9563	3281.3089	3314.7111	3546.5916
CCN1C=COC1=N	CCN1C=CO[C@H]1[NH]	
InChI=1S/C5H8N2O/c1-2-7-3-4-8-5(7)6/h3-4,6H,2H2,1H3	InChI=1S/C5H9N2O/c1-2-7-3-4-8-5(7)6/h3-6H,2H2,1H3/t5-/m0/s1
