16
gdb 124739	2.63833	1.52075	0.99734	6.3638	66.81	-0.2557	-0.032	0.2237	1136.6777	0.125028	-471.166631	-471.158567	-471.157623	-471.199411	30.358	
C	-0.046116348	 1.5702589553	 0.9237319067	-0.390389
C	-0.1832855549	 0.454270049	-0.1147947142	-0.094611
N	 0.8325755635	-0.6223012856	-0.0065950086	-0.536967
H	 0.9152111777	-0.9194365065	 0.9634069348	 0.249255
H	-0.0923811662	-2.0284103517	-0.8968737222	 0.311653
H	 1.744076181	-0.2690861573	-0.2803829635	 0.249987
C	-1.533042127	-0.2093180083	-0.0942111321	 0.258238
N	-2.6371103481	 0.3361941227	 0.3267421474	-0.167617
O	-3.6185949427	-0.5902796053	 0.12169968	-0.162543
N	-3.117978835	-1.7530358381	-0.4315141969	-0.169395
C	-1.8393088902	-1.5296418152	-0.57121313	 0.338493
O	-0.9823151028	-2.4128196813	-1.0767149572	-0.406405
H	 0.9337378757	 2.0498353448	 0.8382771836	 0.112916
H	-0.8207832175	 2.3278121508	 0.7822310763	 0.154829
H	-0.1540370732	 1.1701977229	 1.9370747993	 0.128349
H	-0.0468472025	 0.8856644637	-1.1158061333	 0.124208
70.232	177.8841	208.9837	240.5162	312.3417	326.1841	369.973	416.5332	483.4844	541.6891	613.7339	644.9221	747.9461	778.9139	817.5643	890.9098	910.5599	940.8986	961.1652	1015.3946	1051.9193	1088.8201	1140.5929	1219.2452	1258.8838	1327.3595	1375.9691	1406.4565	1411.6218	1486.0068	1494.9555	1503.2993	1563.2181	1653.6909	1677.2465	3019.1742	3040.3433	3112.1369	3129.9507	3395.2009	3484.572	3570.5957
CC([NH3+])C1=NON=C1[O-]	C[C@@H](N)c1nonc1O	
InChI=1S/C4H7N3O2/c1-2(5)3-4(8)7-9-6-3/h2H,5H2,1H3,(H,7,8)	InChI=1S/C4H7N3O2/c1-2(5)3-4(8)7-9-6-3/h2H,5H2,1H3,(H,7,8)/t2-/m1/s1
