21
gdb 116383	2.75665	1.27699	0.93287	4.1762	79.05	-0.2566	0.0101	0.2668	1302.9366	0.183575	-424.280603	-424.271603	-424.270658	-424.314772	33.642	
C	 0.1214299434	 1.5333871461	-0.1755450329	-0.392493
C	 0.0333914864	 0.0300538964	 0.103339287	-0.176473
C	-1.4005407736	-0.5328407456	 0.1561148468	-0.116181
C	-1.4566663267	-2.0394348421	-0.1428388709	-0.226358
C	-2.8855338544	-2.5501088248	 0.0241449571	-0.231815
C	-3.342344282	-2.2858025769	 1.4486791862	-0.05832
O	-3.1538382998	-0.9259267197	 1.8749925304	-0.232412
C	-2.1102802559	-0.1610516749	 1.4623310571	 0.41618
O	-1.840985178	 0.8194622232	 2.1044466524	-0.317311
H	 1.1660770738	 1.8557530618	-0.2295779508	 0.107605
H	-0.3504842418	 1.7815625506	-1.1337159551	 0.103922
H	-0.3773356791	 2.1014060158	 0.6107184029	 0.154107
H	 0.5721169523	-0.5148885861	-0.6821828885	 0.089373
H	 0.5415299529	-0.2030536537	 1.0460989256	 0.107539
H	-1.9954489772	-0.027853491	-0.6218461765	 0.108133
H	-1.0850957817	-2.2221196699	-1.1563214651	 0.105189
H	-0.7859979248	-2.5797802029	 0.5393749459	 0.105508
H	-3.5516899983	-2.0419648942	-0.6838895883	 0.110385
H	-2.9574951414	-3.6246773915	-0.1756201917	 0.107687
H	-4.4096898045	-2.481168828	 1.5800319254	 0.122029
H	-2.7942928895	-2.9320931226	 2.1475287829	 0.113705
53.6553	103.4965	134.9109	216.1836	231.7235	292.7241	328.7978	371.541	428.2225	470.0801	541.549	595.6466	677.1479	737.6378	806.1898	884.5407	899.9248	907.7806	966.2817	984.5509	1040.2679	1062.3458	1081.6044	1118.1993	1144.6671	1157.2944	1165.9407	1209.9364	1247.7251	1283.1667	1295.0033	1311.389	1362.7555	1376.0662	1380.5506	1383.7448	1407.1598	1428.2814	1480.9352	1484.7089	1495.3172	1497.7452	1516.7038	1517.4905	1827.3519	2983.8583	3017.0985	3018.1218	3024.8434	3033.0336	3033.6924	3064.8954	3073.4705	3081.6045	3095.4109	3096.0856	3149.0198
CCC1CCCOC1=O	CC[C@H]1CCCOC1=O	
InChI=1S/C7H12O2/c1-2-6-4-3-5-9-7(6)8/h6H,2-5H2,1H3	InChI=1S/C7H12O2/c1-2-6-4-3-5-9-7(6)8/h6H,2-5H2,1H3/t6-/m0/s1
