18
gdb 37634	2.88372	2.21694	2.04983	1.0407	72.22	-0.2199	0.0942	0.314	795.7987	0.152505	-401.905982	-401.900355	-401.899411	-401.935551	25.042	
C	-0.0280997426	 1.4853030377	-0.0462006206	-0.194941
C	 1.4751870898	 1.8288462273	 0.0497981376	 0.075719
O	 1.8838251553	 1.7774085669	 1.4233571297	-0.276004
C	 1.3268238679	 0.6401153018	 2.078222526	-0.086781
C	 0.9739470073	-0.4429119843	 1.0643864578	-0.025759
C	 2.0322456168	-0.6560724955	-0.0090129853	-0.089697
C	 2.091253726	 0.6766938227	-0.7554645224	-0.069165
C	 1.0052141357	-0.3311760245	-1.0511365412	-0.045321
N	-0.0176782846	 0.0029510753	-0.0215257542	-0.14026
H	-0.6131769071	 1.9072091361	 0.775115728	 0.110361
H	-0.4643862042	 1.8134380246	-0.9947622867	 0.105514
H	 1.7575916238	 2.8194873809	-0.3101896861	 0.076026
H	 2.074708389	 0.2620341163	 2.7855213712	 0.10698
H	 0.4364084609	 0.9251762602	 2.6611512078	 0.095425
H	 0.6144339944	-1.3521805419	 1.5514172024	 0.083326
H	 2.8382611843	-1.3790233483	-0.0181580475	 0.091399
H	 2.9124695972	 0.8338896901	-1.4429830401	 0.089697
H	 0.7559812602	-0.7696143055	-2.0084697965	 0.093483
275.1409	366.9172	414.7536	491.2464	557.1586	667.5424	687.8845	732.5639	767.5084	812.186	816.5595	846.223	903.8889	910.0785	929.312	947.8287	948.0582	990.2186	1012.2727	1036.2673	1060.4723	1066.2983	1076.1663	1104.8862	1112.7921	1130.99	1214.5706	1229.2279	1237.1397	1262.1663	1277.0972	1281.7085	1325.037	1332.1144	1361.3355	1386.4343	1404.8009	1490.2321	1517.9093	2973.7462	3047.6865	3055.1592	3081.0233	3101.2974	3110.4356	3185.6624	3194.5754	3207.225
C1C2OCC3C4C2C4N13	C1[C@H]2OC[C@@H]3[C@@H]4[C@H]2[C@@H]4N13	
InChI=1S/C7H9NO/c1-4-6-5-3(2-9-4)8(1)7(5)6/h3-7H,1-2H2	InChI=1S/C7H9NO/c1-4-6-5-3(2-9-4)8(1)7(5)6/h3-7H,1-2H2/t3-,4-,5-,6+,7-/m1/s1
