21
gdb 58678	2.02229	1.37817	1.14157	2.5511	79.75	-0.2518	-0.035	0.2168	1234.036	0.178798	-424.229847	-424.219465	-424.218521	-424.264821	37.812	
C	 2.6055418233	-0.8159699834	 2.2165705071	-0.412512
C	 1.4643266135	-1.1540437576	 1.242611532	-0.04772
C	 0.2198113045	-0.285198977	 1.4895071359	-0.409415
C	 1.9347246818	-1.064644341	-0.2014603072	 0.280837
O	 2.7076390488	-2.1766668267	-0.7098168139	-0.297127
C	 1.4288697634	-1.9523119431	-1.2861609807	 0.028611
C	 0.3593544666	-2.9997791463	-1.1061953996	-0.430487
C	 2.4904232326	 0.2345519494	-0.7168055197	 0.12791
O	 2.3704973405	 1.3125680808	-0.1919764187	-0.259942
H	 3.479014223	-1.4478963106	 2.0282683665	 0.124168
H	 2.9069575742	 0.2303068574	 2.123246701	 0.141215
H	 2.2825386879	-0.9853711603	 3.2484472756	 0.111546
H	 1.1941884179	-2.2013743429	 1.4114099695	 0.082781
H	 0.4480222883	 0.7722409044	 1.3420623894	 0.150529
H	-0.5988060602	-0.5569374411	 0.8146998096	 0.107867
H	-0.134699822	-0.4216675361	 2.5160307227	 0.113195
H	 1.481798129	-1.5515412997	-2.3025122239	 0.092055
H	 0.3155936491	-3.377969026	-0.084222493	 0.137195
H	-0.6190279249	-2.5881212687	-1.3741367001	 0.132022
H	 0.560427329	-3.8445602191	-1.7732077368	 0.137116
H	 3.0522946137	 0.1036033376	-1.6694407857	 0.090156
80.2824	106.5753	153.3833	188.4885	202.5288	227.7672	232.9197	254.4802	269.9642	323.2772	391.7474	432.2061	480.9538	537.2603	556.1933	738.5602	784.079	872.64	902.5837	931.9182	969.3974	982.9382	1003.0794	1039.0609	1093.106	1123.0894	1148.0521	1176.1788	1196.2659	1277.1346	1318.0343	1341.8124	1369.1675	1394.675	1410.3214	1413.7508	1423.936	1457.5653	1484.9031	1488.1225	1500.3744	1502.5788	1503.9087	1521.7217	1821.9624	2882.0412	3038.1924	3041.6826	3043.9227	3055.4393	3066.2995	3100.0684	3105.4812	3107.2021	3128.1953	3138.606	3147.0067
CC(C)C1(OC1C)C=O	CC(C)[C@]1(O[C@H]1C)C=O	
InChI=1S/C7H12O2/c1-5(2)7(4-8)6(3)9-7/h4-6H,1-3H3	InChI=1S/C7H12O2/c1-5(2)7(4-8)6(3)9-7/h4-6H,1-3H3/t6-,7+/m0/s1
