17
gdb 10566	2.86052	1.45077	1.0887	2.3393	65.12	-0.252	-0.0293	0.2228	1091.2338	0.140904	-400.974296	-400.965624	-400.96468	-401.007902	30.824	
O	-0.0338074038	 1.5024834183	-0.2450605318	-0.415191
C	-0.020645419	 0.0860124938	-0.3037562837	-0.06625
C	-1.3314921472	-0.5214340874	 0.2173529049	-0.31301
C	-1.378439835	-2.0309020322	 0.1097421802	 0.218296
C	-2.6562273606	-2.7195769623	-0.2737544969	-0.276114
N	-1.5372396157	-2.7003018759	-1.2074904	-0.343836
C	-0.4843866396	-2.8029461573	 1.0256215734	 0.146898
O	 0.121788849	-2.3210407008	 1.9504637286	-0.269251
H	 0.0037533209	 1.7575365255	 0.6822897946	 0.285518
H	 0.1168570206	-0.1658990311	-1.361335421	 0.107813
H	 0.8301899626	-0.335471525	 0.2475717812	 0.116398
H	-1.4535369143	-0.2462956253	 1.2719196812	 0.114946
H	-2.1678371473	-0.0780087932	-0.3346866971	 0.102356
H	-2.8960090812	-3.6970432427	 0.1367513963	 0.129799
H	-3.5139392158	-2.0750890849	-0.4467082136	 0.128739
H	-1.683944027	-1.9911291037	-1.9222325701	 0.244127
H	-0.4313858765	-3.8871057259	 0.7836167036	 0.088763
83.2259	94.2337	137.8268	164.0883	248.8471	300.9636	329.1349	347.1878	418.7847	465.0026	550.5604	757.4864	802.7806	832.4047	894.7932	958.258	974.5102	1026.135	1052.9585	1061.1126	1075.5723	1092.9591	1136.9328	1167.8116	1248.415	1296.2286	1316.432	1340.594	1380.4794	1408.3064	1422.2415	1427.3144	1470.291	1509.2	1511.3285	1818.6525	2900.5266	3019.085	3034.5682	3063.3653	3088.0705	3107.6767	3194.4776	3501.0456	3817.6492
OCCC1(CN1)C=O	OCC[C@]1(CN1)C=O	
InChI=1S/C5H9NO2/c7-2-1-5(4-8)3-6-5/h4,6-7H,1-3H2	InChI=1S/C5H9NO2/c7-2-1-5(4-8)3-6-5/h4,6-7H,1-3H2/t5-/m0/s1
