25
gdb 110829	3.14755	1.06105	0.95791	0.1391	93.21	-0.2454	0.0845	0.3299	1412.5374	0.228179	-352.33719	-352.327229	-352.326285	-352.371474	38.892	
C	-0.0444209558	 1.6798808589	-0.6053184648	-0.379132
C	 0.115176482	 0.2135043899	-0.1831103642	-0.212636
C	-1.2196507393	-0.5098274733	-0.1552994339	 0.010587
C	-1.8590164455	-1.2375218027	-1.3062786113	-0.067665
C	-0.8436385963	-2.0949807532	-2.0766842144	-0.295226
C	-0.5867476676	-2.9462818773	-0.779789096	 0.337532
C	-1.2669044014	-4.3153240333	-0.9012233572	-0.426604
C	 0.8519291218	-3.1327138685	-0.2948294471	-0.452368
C	-1.5128589044	-1.9820068153	-0.0057201421	-0.121562
H	 0.9202778296	 2.1966208401	-0.622013212	 0.108477
H	-0.4843132313	 1.7543523302	-1.6055274991	 0.118592
H	-0.7008732872	 2.2217135102	 0.0847980774	 0.111983
H	 0.8124738457	-0.2763817434	-0.8677538084	 0.102201
H	 0.5778627838	 0.1663172899	 0.8113224571	 0.095098
H	-1.9657583771	 0.0638411011	 0.397401924	 0.077854
H	-2.8361164094	-0.9618063043	-1.6856280158	 0.077505
H	-1.2914728882	-2.6859183826	-2.8791988955	 0.096151
H	 0.018658594	-1.5618342269	-2.4907324857	 0.091037
H	-0.7355258065	-4.9538427416	-1.6162269634	 0.107193
H	-1.279442653	-4.8333220453	 0.0651998926	 0.107279
H	-2.3035291672	-4.2156307365	-1.2394527298	 0.111021
H	 1.3911097632	-2.1889844867	-0.1963568327	 0.114849
H	 0.8662730213	-3.6253182484	 0.6846393833	 0.109431
H	 1.4149562714	-3.7685187264	-0.9887872248	 0.107425
H	-2.1919978625	-2.3230156744	 0.7703418637	 0.070976
69.8462	141.0383	168.2824	188.4124	233.2002	240.4917	268.0426	297.6108	357.3074	366.1665	405.1965	488.9312	597.4821	615.5167	718.1791	773.0595	805.3021	835.0817	859.0039	892.7044	935.313	957.1624	958.8911	994.1011	1003.0956	1012.0114	1025.8755	1033.875	1074.7627	1091.6768	1130.1655	1146.9858	1208.7476	1218.2972	1237.8232	1243.8868	1270.2518	1300.7073	1307.4225	1338.607	1365.1924	1399.1541	1409.1378	1419.3326	1455.871	1478.4338	1485.2124	1486.6382	1497.7504	1499.385	1501.8243	1508.1577	1511.9773	3018.3673	3024.4802	3026.4304	3029.998	3040.2482	3078.7852	3080.559	3085.7154	3091.0028	3093.7475	3099.0206	3103.3968	3107.2284	3132.1419	3145.8234	3173.5483
CCC1C2CC(C)(C)C12	CC[C@H]1[C@H]2CC(C)(C)[C@@H]12	
InChI=1S/C9H16/c1-4-6-7-5-9(2,3)8(6)7/h6-8H,4-5H2,1-3H3	InChI=1S/C9H16/c1-4-6-7-5-9(2,3)8(6)7/h6-8H,4-5H2,1-3H3/t6-,7+,8-/m0/s1
