23
gdb 95206	2.42688	1.57953	1.14218	1.3804	84.51	-0.2507	0.0664	0.3171	1169.8425	0.207827	-388.29626	-388.287575	-388.286631	-388.329013	35.194	
C	-0.0085496735	 1.5796896465	-0.0194944953	-0.439708
C	 0.0459524293	 0.0481215944	-0.0289088267	 0.047283
C	 0.688769614	-0.5033334136	-1.308583365	-0.208378
C	 0.4660847814	-2.0180584587	-1.4228408053	-0.229709
C	 0.8391013334	-2.770343588	-0.1566994497	-0.006561
C	 2.1823384085	-2.5911896039	 0.4920276977	-0.27594
C	 0.9510676136	-2.0266761141	 1.1624958692	-0.041216
C	 0.7563640171	-0.513283173	 1.2242321523	 0.084309
O	 2.040614026	 0.0849044574	 1.4233715888	-0.43337
H	 0.9890903869	 2.0163317325	-0.1437762612	 0.116085
H	-0.6261967485	 1.9527216438	-0.842475747	 0.11649
H	-0.4372337473	 1.9643919003	 0.914078338	 0.106518
H	-0.9875188485	-0.3264521235	 0.0170407128	 0.067633
H	 0.2657800217	-0.0054891029	-2.1885031211	 0.085536
H	 1.7589147673	-0.2625652394	-1.3009514902	 0.107697
H	-0.5977450323	-2.1947993379	-1.632225028	 0.09195
H	 1.0191969654	-2.4232725707	-2.2794429525	 0.092815
H	 0.4166541388	-3.7697660356	-0.0952132358	 0.074799
H	 2.6559042068	-3.4545539566	 0.9464350507	 0.101741
H	 2.8782774135	-1.8773244242	 0.0678150603	 0.126484
H	 0.6104411691	-2.5561252349	 2.0460701071	 0.078396
H	 0.1196965219	-0.2903266249	 2.0946296109	 0.056519
H	 1.9041308053	 1.022321027	 1.5922488501	 0.280627
84.3169	187.254	245.7495	274.4414	277.2192	306.0587	343.6024	355.993	399.3188	456.7481	538.8674	627.1999	662.41	747.2553	763.2551	814.6014	864.7072	906.2507	913.6237	930.4423	975.186	1009.1052	1016.3895	1020.1519	1054.9418	1091.4103	1106.2809	1125.545	1130.5514	1148.5857	1170.4767	1211.6868	1226.0557	1255.0258	1268.1772	1330.6863	1338.1182	1350.2427	1370.4948	1386.3859	1398.5238	1409.342	1419.5364	1427.0941	1488.2798	1491.1041	1498.5985	1504.2064	1514.0748	2965.2335	2996.8867	3009.1946	3020.2188	3027.5912	3045.1046	3067.2428	3084.367	3097.4701	3133.287	3139.4322	3155.4641	3225.7831	3822.4738
CC1CCC2CC2C1O	C[C@H]1CC[C@H]2C[C@H]2[C@H]1O	
InChI=1S/C8H14O/c1-5-2-3-6-4-7(6)8(5)9/h5-9H,2-4H2,1H3	InChI=1S/C8H14O/c1-5-2-3-6-4-7(6)8(5)9/h5-9H,2-4H2,1H3/t5-,6-,7+,8-/m0/s1
