15
gdb 50489	3.71322	1.00488	0.7987	5.308	81.76	-0.2361	-0.0552	0.1809	1333.2726	0.114065	-416.863657	-416.855439	-416.854495	-416.898323	28.525	
O	-0.1000364177	-0.0263989385	 0.0012297689	-0.30646
C	-0.0247415831	 1.1803366317	 0.0102217616	 0.151405
N	 1.1559246472	 1.8841179715	 0.0024244013	-0.067796
C	 1.2715607956	 3.3581816505	 0.0131044518	-0.183086
C	 2.8042610914	 3.6203517762	-0.0020900603	-0.338491
C	 3.3945053333	 2.2163002032	-0.020466746	 0.095773
C	 2.4095707601	 1.3003316993	-0.0169124411	-0.054746
C	 4.7798055162	 1.9500180247	-0.0384737642	 0.206528
N	 5.9263161376	 1.7745380111	-0.0530328509	-0.33769
H	-0.9027342602	 1.852368621	 0.0259141503	 0.091059
H	 0.7732868038	 3.7806618295	-0.8635503126	 0.139703
H	 0.7932754795	 3.7662939869	 0.9075155528	 0.139704
H	 3.1099147249	 4.1967808216	-0.8802206506	 0.141651
H	 3.1298421397	 4.1820352778	 0.8784301451	 0.141644
H	 2.4750181617	 0.2227694134	-0.0266211859	 0.180803
18.9944	111.4264	129.0899	188.9355	244.9633	285.1526	473.6912	485.4245	522.9296	558.6739	564.84	762.7396	839.7931	889.8513	947.0064	947.6164	982.3464	1021.663	1072.202	1154.8141	1208.1045	1251.397	1259.594	1264.174	1303.4819	1340.1342	1432.8778	1450.6	1497.2743	1524.7351	1672.0743	1798.1079	2329.637	2965.5027	3052.1508	3061.1491	3082.1283	3105.5248	3267.736
O=CN1CCC(=C1)C#N	O=CN1CCC(=C1)C#N	
InChI=1S/C6H6N2O/c7-3-6-1-2-8(4-6)5-9/h4-5H,1-2H2	InChI=1S/C6H6N2O/c7-3-6-1-2-8(4-6)5-9/h4-5H,1-2H2
