16
gdb 32384	6.74471	0.85534	0.76417	2.2688	86.21	-0.1935	-0.0143	0.1791	1445.92	0.123738	-400.734437	-400.725832	-400.724888	-400.767658	32.089	
C	 0.0659737837	 1.455297382	-0.0061792236	-0.328919
N	-0.1422286236	 0.0201218252	 0.0604140408	-0.392521
C	 0.5530325429	-0.6860020091	 1.0354465754	 0.312811
C	 1.2211867376	-0.1959242438	 2.1273251479	-0.122151
O	 1.7170662537	-1.2178457455	 2.8845302576	-0.18644
C	 1.3751875162	-2.3803042899	 2.2605364745	 0.264847
C	 0.6591676505	-2.1103224331	 1.1256047477	-0.425201
C	 1.782875663	-3.5920666949	 2.8456120269	 0.249134
C	 2.126377865	-4.6374517906	 3.3361808532	-0.416494
H	 1.124679287	 1.741376896	-0.1179378103	 0.112238
H	-0.4986736028	 1.8631934785	-0.8473592596	 0.125826
H	-0.31338645	 1.9239475786	 0.9088478535	 0.134616
H	-0.1173380649	-0.4308596634	-0.8425716383	 0.237051
H	 1.4119546958	 0.7959508073	 2.4973141816	 0.128764
H	 0.2530429286	-2.8405938294	 0.4434066366	 0.113414
H	 2.4288954272	-5.557836648	 3.7703684561	 0.193025
77.4881	129.8827	157.6824	199.2501	228.9245	336.0074	401.1331	458.6511	519.1622	532.8398	547.3161	623.811	635.7344	684.8228	686.9241	693.6943	729.9082	809.8831	960.5552	992.5682	1079.8028	1144.2162	1160.8288	1165.7453	1194.7785	1244.6788	1327.546	1379.4614	1459.2144	1481.4448	1504.1741	1523.6998	1553.8959	1657.1229	2230.1776	2970.9437	3060.5612	3121.7795	3258.5629	3293.7242	3504.0926	3592.0057
CNC1=COC(=C1)C#C	CNc1coc(c1)C#C	
InChI=1S/C7H7NO/c1-3-7-4-6(8-2)5-9-7/h1,4-5,8H,2H3	InChI=1S/C7H7NO/c1-3-7-4-6(8-2)5-9-7/h1,4-5,8H,2H3
