16
gdb 12975	2.75094	2.70462	1.63828	3.4153	70.33	-0.2368	-0.0498	0.187	809.7119	0.131116	-346.630031	-346.623006	-346.622062	-346.660953	27.114	
C	-0.0376484339	 1.5303810563	 0.0055826081	-0.4809
C	 0.0764910625	 0.0273376633	 0.0268220074	 0.216884
C	-0.8037682315	-0.8115631818	 0.9417266615	-0.308527
C	 0.7045955642	-0.7914606379	 1.1253729766	-0.12914
C	 1.4104220314	-1.9181293206	 0.4450728474	-0.063137
C	 1.248941568	-1.8828741281	-0.8858755172	-0.198507
C	 0.4630538723	-0.6765459931	-1.267350154	 0.340571
O	 0.1957697538	-0.2920679902	-2.3831049938	-0.340802
H	 0.9216675208	 1.9961853827	-0.2425446014	 0.126574
H	-0.7604844284	 1.8394211071	-0.75536421	 0.143008
H	-0.3649827821	 1.920263753	 0.9737849761	 0.111969
H	-1.4091503712	-0.2612530529	 1.6560154301	 0.120795
H	-1.255596802	-1.7230382189	 0.5649640827	 0.125653
H	 1.1217738416	-0.3406506663	 2.0183691256	 0.100555
H	 1.9380585796	-2.6887106883	 0.9965093476	 0.11795
H	 1.6050491748	-2.6016891443	-1.6116917967	 0.117055
136.8704	168.2929	249.579	280.0444	323.0965	454.0831	469.2682	598.3184	668.1979	736.7471	750.0204	831.7871	846.5951	850.7312	879.0208	973.7477	979.2934	1013.2228	1036.5764	1051.7487	1074.9155	1116.3184	1123.2938	1128.3941	1248.8099	1299.3554	1359.7696	1390.618	1414.77	1482.4472	1484.004	1499.2468	1629.0658	1807.8384	3037.1239	3103.2057	3113.8292	3122.4027	3179.1012	3194.2389	3214.9249	3232.5421
CC12CC1C=CC2=O	C[C@]12C[C@H]1C=CC2=O	
InChI=1S/C7H8O/c1-7-4-5(7)2-3-6(7)8/h2-3,5H,4H2,1H3	InChI=1S/C7H8O/c1-7-4-5(7)2-3-6(7)8/h2-3,5H,4H2,1H3/t5-,7+/m1/s1
