20
gdb 85683	2.45935	1.35559	1.04916	2.1241	85.44	-0.238	0.0499	0.2879	1221.6321	0.169815	-365.945033	-365.935907	-365.934963	-365.978766	35.082	
C	-1.1619758577	 0.9303025339	-0.0847442612	-0.415209
C	-0.0736741945	-0.1321030204	-0.0922588401	-0.053691
C	 1.2440901189	 0.1471890673	-0.8736032301	-0.251035
C	 2.0607910996	-0.5059755262	 0.2930619279	-0.230865
C	 3.2912054047	 0.1230943941	 0.7224961896	 0.318492
C	 4.3008894373	 0.6667798971	 1.0862470595	-0.454533
C	 0.7904477781	-0.3530382855	 1.1605234995	 0.339222
C	 0.6746836628	 0.330602707	 2.4637257632	-0.30168
N	 0.5109651252	-1.1375342246	 2.3509165635	-0.370372
H	-0.7590759302	 1.9051476967	 0.2087189572	 0.12074
H	-1.6114742586	 1.0365701139	-1.0778730508	 0.119893
H	-1.9687404231	 0.6754515271	 0.6125844756	 0.112778
H	-0.4945251043	-1.0941654467	-0.4129573354	 0.077836
H	 1.3540839831	-0.3071400898	-1.8595223916	 0.106394
H	 1.4515266566	 1.2175777896	-0.9446078577	 0.113484
H	 2.2313817121	-1.5694800486	 0.0907442388	 0.10807
H	 5.1984417577	 1.1369406891	 1.4031053907	 0.192695
H	 1.5742345796	 0.6481665181	 2.9832040895	 0.130732
H	-0.2048578659	 0.9419511642	 2.6491753958	 0.109795
H	-0.4766675212	-1.3835933464	 2.384473586	 0.227253
61.6656	124.5708	188.2171	212.197	223.7305	270.6771	329.5967	362.135	473.8456	492.4782	533.3615	563.5689	613.5342	626.8791	692.0515	800.2758	848.1417	879.2816	923.2475	936.1678	944.4247	977.6225	1000.4679	1045.8124	1079.959	1097.1745	1123.8342	1137.8445	1166.0464	1214.2633	1234.2185	1261.1353	1278.2138	1288.7803	1345.2595	1379.972	1403.0644	1413.0635	1488.3071	1495.4246	1496.6911	1512.8495	2232.264	3017.3065	3026.0607	3043.2016	3071.0497	3088.7761	3101.8651	3108.1733	3130.831	3196.1634	3479.1961	3505.015
CC1CC(C#C)C11CN1	C[C@H]1C[C@@H](C#C)[C@]21CN2	
InChI=1S/C8H11N/c1-3-7-4-6(2)8(7)5-9-8/h1,6-7,9H,4-5H2,2H3	InChI=1S/C8H11N/c1-3-7-4-6(2)8(7)5-9-8/h1,6-7,9H,4-5H2,2H3/t6-,7+,8+/m0/s1
