14
gdb 21964	7.06996	1.09995	1.02456	4.7431	58.66	-0.2843	-0.0179	0.2663	1090.2128	0.108308	-412.01028	-412.002881	-412.001937	-412.043188	25.293	
O	 0.075895093	 1.4223946825	 0.1632881817	-0.401409
C	 0.0473210899	 0.012235858	 0.2195540808	-0.07277
C	-1.3596909101	-0.5176637612	-0.1042368965	-0.187352
N	-1.4280829569	-1.9664871687	-0.0167902537	 0.040337
C	-1.8768089045	-2.7762551951	 0.959447941	 0.06078
N	-1.6782614802	-4.0277326159	 0.6082081813	-0.221092
N	-1.0876870203	-3.9715622118	-0.6147623576	-0.090013
N	-0.9297796021	-2.7489234081	-0.9997995659	-0.130784
H	 0.1151084495	 1.6903511462	-0.7602022684	 0.294959
H	 0.7761941973	-0.4549830276	-0.4554736464	 0.129306
H	 0.315702352	-0.2687463095	 1.2432628734	 0.127451
H	-2.0870382309	-0.0946317312	 0.5923862966	 0.143032
H	-1.6496326615	-0.2321327302	-1.1191323784	 0.141834
H	-2.3319025252	-2.4289920173	 1.872682042	 0.165722
49.9866	93.5912	109.5235	289.7345	322.4913	350.1332	377.4181	678.4593	735.9858	772.5374	784.4422	865.7765	985.9713	1028.2953	1042.0981	1053.9898	1088.8218	1120.1743	1142.8418	1196.426	1259.6512	1312.4816	1334.997	1343.6	1400.8329	1417.6769	1462.8767	1477.9859	1510.8112	1515.2457	3025.2193	3071.0228	3084.2349	3130.2699	3283.7515	3822.4457
OCCN1C=NN=N1	OCCn1cnnn1	
InChI=1S/C3H6N4O/c8-2-1-7-3-4-5-6-7/h3,8H,1-2H2	InChI=1S/C3H6N4O/c8-2-1-7-3-4-5-6-7/h3,8H,1-2H2
