18
gdb 75964	2.1447	1.95764	1.064	2.5432	77.38	-0.2318	-0.0045	0.2273	1107.4636	0.149675	-435.2822	-435.273642	-435.272697	-435.3166	31.244	
C	 0.6504194747	 1.2892409572	-0.001113756	-0.329999
N	 0.1247214953	-0.077817786	 0.0102531618	-0.109943
C	-0.1032293906	-0.6943307322	-1.2133618629	 0.342838
N	 0.0920909216	-0.041349237	-2.2930662254	-0.518992
C	-0.6098679567	-2.1268993685	-1.1550697429	-0.185864
O	-0.2360480886	-2.7996334952	 0.0244601338	-0.227002
C	-0.7090900487	-2.099702157	 1.1509176353	-0.185713
C	-0.2069972836	-0.6652081775	 1.2258729731	 0.345685
N	-0.1099302861	 0.0013866565	 2.3101433725	-0.51835
H	 1.4255635487	 1.3601383547	-0.7635209199	 0.150676
H	-0.1402399497	 2.0036054043	-0.2499899661	 0.135388
H	 1.0384650943	 1.5095044018	 0.9902831354	 0.162146
H	-0.0840770177	-0.6338290729	-3.1034019812	 0.217608
H	-1.7084615119	-2.1208236329	-1.268552694	 0.116398
H	-0.1862671972	-2.684901276	-1.9930989889	 0.134997
H	-1.8133982925	-2.0892814739	 1.1677522342	 0.116711
H	-0.3622525556	-2.6395468814	 2.0348068341	 0.135067
H	-0.3548000557	-0.5814698141	 3.1091079672	 0.218348
30.8098	83.2173	103.8185	211.06	312.931	370.7792	384.6601	467.0931	468.2811	538.0568	565.6004	611.2115	661.673	748.6643	825.0918	844.6126	951.5527	999.9475	1015.0132	1023.2289	1088.9509	1098.5027	1154.0729	1168.2588	1191.6291	1249.952	1280.8587	1323.6701	1365.5152	1401.9149	1415.4181	1420.6909	1472.7747	1474.0755	1484.3996	1496.2837	1510.6082	1681.0904	1715.8933	2952.1357	2955.2748	3059.2878	3104.6855	3106.946	3135.6998	3191.4769	3489.1765	3493.0118
CN1C(=N)COCC1=N	CN1[C]([NH])COC[C]1[NH]	
InChI=1S/C5H9N3O/c1-8-4(6)2-9-3-5(8)7/h6-7H,2-3H2,1H3	InChI=1S/C5H9N3O/c1-8-4(6)2-9-3-5(8)7/h6-7H,2-3H2,1H3
