23
gdb 74425	2.56745	1.40723	1.05964	0.2862	92.68	-0.2122	0.0295	0.2417	1256.9907	0.206646	-351.176278	-351.16733	-351.166386	-351.209153	35.784	
C	-0.0222052171	 1.5312007217	-0.0536846057	-0.475712
C	 0.0023302662	 0.0310515055	 0.0435015654	 0.294212
C	-1.0998361619	-0.7164065815	-0.0785336537	-0.193556
C	-1.1224238745	-2.2042415322	-0.0296590827	 0.324613
C	-2.4579031856	-2.8266726439	 0.3267532678	-0.474677
C	-0.2203193949	-2.9467741523	-1.0114951504	-0.326278
C	 0.1552476482	-2.865864775	 0.4450923864	-0.059033
C	 1.2746567377	-1.9803626662	 0.956994953	-0.224855
C	 1.3549667155	-0.6164463895	 0.2468112899	-0.3144
H	 0.6221064099	 1.8890768692	-0.8682970587	 0.118684
H	-1.0325769259	 1.9092601574	-0.2331892218	 0.116788
H	 0.3585947481	 1.9956822881	 0.8657188956	 0.118219
H	-2.0594286615	-0.2274822466	-0.2398610977	 0.068065
H	-3.2321355469	-2.5429678337	-0.396454191	 0.113668
H	-2.3962986942	-3.9194322502	 0.3349570729	 0.109331
H	-2.795970246	-2.5031212464	 1.3180596836	 0.115977
H	-0.5674809523	-3.9020802149	-1.3929700815	 0.102914
H	 0.3306694466	-2.353505329	-1.733124966	 0.110337
H	 0.0213078637	-3.7838481794	 1.0122933959	 0.076747
H	 1.1048023472	-1.8078356667	 2.0278037881	 0.099593
H	 2.2396839352	-2.4946455639	 0.8753433435	 0.094844
H	 1.851037779	-0.7314315042	-0.7278501006	 0.108919
H	 2.0063271736	 0.0534090037	 0.8217537678	 0.095599
130.877	166.2503	208.3554	214.6859	237.233	280.837	366.7111	375.2287	379.1034	462.7427	492.0727	536.1812	622.1229	737.4583	756.257	805.0918	848.1108	885.2877	923.5056	945.1648	954.7871	958.5067	1014.1974	1037.692	1049.0222	1051.5221	1087.7474	1109.5386	1117.3409	1130.8504	1174.4863	1218.7814	1257.1402	1265.0535	1316.8424	1343.598	1369.388	1394.8229	1412.2512	1414.7674	1421.2764	1475.8485	1481.3719	1486.4682	1489.1928	1492.8399	1500.1811	1504.5761	1730.38	3000.8245	3007.8012	3016.1557	3019.6146	3042.662	3050.0772	3054.9153	3078.797	3097.2815	3105.7371	3123.5029	3131.8086	3133.6452	3210.693
CC1=CC2(C)CC2CC1	CC1=C[C@@]2(C)C[C@H]2CC1	
InChI=1S/C9H14/c1-7-3-4-8-6-9(8,2)5-7/h5,8H,3-4,6H2,1-2H3	InChI=1S/C9H14/c1-7-3-4-8-6-9(8,2)5-7/h5,8H,3-4,6H2,1-2H3/t8-,9+/m1/s1
