16
gdb 62206	5.84416	0.61003	0.57046	2.968	71.33	-0.2858	-0.0072	0.2787	1801.1793	0.123797	-434.065516	-434.055979	-434.055035	-434.101216	32.747	
O	 0.1295361415	 1.4253666649	-0.1073965424	-0.415965
C	 0.0396189665	 0.0280897416	 0.0207989095	-0.01711
C	 0.6427811888	-0.6753450951	-1.2145675796	-0.171643
N	-0.0088088208	-0.1225859986	-2.3997505478	-0.321661
C	 0.7118644052	-0.385485117	-3.6447056232	-0.267719
C	 0.0040996094	 0.1987566094	-4.7867529559	 0.257327
N	-0.5677841191	 0.6413129565	-5.6868684336	-0.283481
C	 0.7477443339	-0.3965663062	 1.2376387686	 0.288393
N	 1.3011190778	-0.7753629285	 2.1775079671	-0.308467
H	-0.0380815211	 1.5933459454	-1.0481278521	 0.297485
H	-1.0112417669	-0.2942467701	 0.129895004	 0.116235
H	 1.7082355579	-0.4281582895	-1.2622277396	 0.141458
H	 0.5524216849	-1.7675654406	-1.1160467347	 0.121573
H	-0.9583868076	-0.4748647934	-2.4787767857	 0.24467
H	 1.7059072145	 0.0717761079	-3.5783543777	 0.17097
H	 0.8691082452	-1.4576460967	-3.8507313769	 0.147936
42.6286	75.7697	94.6302	153.4869	154.3801	248.5684	309.3698	334.0297	390.118	438.8148	498.8009	557.8185	592.6709	596.4137	801.2388	880.0087	943.4528	954.3966	995.0155	1029.8146	1111.6277	1130.6066	1146.8485	1217.2851	1292.963	1302.2459	1329.9163	1356.9859	1404.7928	1448.2054	1485.8085	1495.4159	1504.9291	2370.2573	2372.0817	2948.806	2969.1987	2996.5364	3063.9327	3085.548	3513.628	3701.7423
OC(CNCC#N)C#N	O[C@@H](CNCC#N)C#N	
InChI=1S/C5H7N3O/c6-1-2-8-4-5(9)3-7/h5,8-9H,2,4H2	InChI=1S/C5H7N3O/c6-1-2-8-4-5(9)3-7/h5,8-9H,2,4H2/t5-/m1/s1
