19
gdb 40222	2.08195	2.04135	1.2539	1.4926	74.49	-0.2541	0.0708	0.3249	1040.7128	0.159543	-422.988572	-422.980644	-422.9797	-423.021387	30.793	
C	-0.2149664073	 1.4787903933	 0.141736158	-0.310656
C	 1.1740339684	 0.9566175067	-0.1292048586	-0.320524
C	 0.0330085467	-0.004024129	 0.0005587596	 0.291798
C	-0.1446418903	-0.9570825721	 1.1711534058	-0.180877
O	-1.3072938043	-1.7121564778	 0.8452613444	-0.250774
C	-1.2704761753	-1.9597424296	-0.5518543173	-0.15331
C	-0.493393095	-0.7937096811	-1.1757769928	 0.320462
C	-0.7330564508	-0.2728777677	-2.5222048506	-0.253822
O	 0.3909574664	-1.1199561726	-2.2553471038	-0.272441
H	-0.4365214908	 1.8593664944	 1.1338704369	 0.115065
H	-0.7391173037	 1.9904010567	-0.6584115107	 0.114012
H	 1.5974848786	 1.0870401877	-1.1196418325	 0.127553
H	 1.9028885336	 0.9911771342	 0.6741969973	 0.116957
H	 0.7318527343	-1.6189522493	 1.275418979	 0.095183
H	-0.3216662627	-0.4592077784	 2.1281905437	 0.109962
H	-0.7404575324	-2.8962000368	-0.78588354	 0.108663
H	-2.3011823712	-2.0411844994	-0.9083479005	 0.114184
H	-1.517289809	-0.710841515	-3.1397020999	 0.115953
H	-0.4906245753	 0.762445886	-2.762737158	 0.112611
44.3835	178.1266	224.0299	236.2331	314.1135	345.5309	385.334	490.1446	537.7355	561.7995	699.8382	779.5867	827.7803	848.2823	890.4727	935.3024	945.4566	951.7838	964.1823	986.3792	1053.0466	1071.61	1078.4022	1095.1473	1109.1701	1126.8348	1156.3058	1175.5383	1188.6472	1212.7456	1255.2687	1272.081	1332.453	1360.1354	1398.4763	1438.2177	1470.1125	1500.7002	1509.3818	1518.9101	1535.6149	2960.7199	2987.6256	3071.9916	3083.2276	3089.2877	3125.8027	3129.8431	3153.8543	3204.6836	3219.097
C1CC11COCC11CO1	C1CC21COC[C@]12CO1	
InChI=1S/C7H10O2/c1-2-6(1)3-8-4-7(6)5-9-7/h1-5H2	InChI=1S/C7H10O2/c1-2-6(1)3-8-4-7(6)5-9-7/h1-5H2/t7-/m1/s1
