18
gdb 52453	2.64118	0.76819	0.61876	3.5174	71.88	-0.2622	-0.0357	0.2265	1731.2362	0.144027	-476.206237	-476.195934	-476.19499	-476.244181	33.865	
N	-0.9150883147	 1.0828898279	-0.4705416829	-0.441906
C	-0.8147047657	-0.1707480708	-0.5630637072	 0.134472
O	-0.8715843613	-0.9296650601	 0.5537924063	-0.181415
C	-0.9265106921	-2.3386942237	 0.3794281329	-0.101233
C	-2.3538153358	-2.830703092	 0.2142972555	-0.056464
O	-2.8296944027	-2.4012562657	-1.0442934359	-0.25054
C	-4.1968956708	-2.6527409871	-1.2538186876	-0.144601
C	-4.5833414652	-2.0860204666	-2.609538841	 0.142194
O	-5.6585605947	-2.2550287005	-3.1175849918	-0.232168
H	-0.818444079	 1.5060214221	-1.3911784654	 0.22854
H	-0.6632579859	-0.7538503163	-1.4796905252	 0.092678
H	-0.3242157976	-2.6495572863	-0.4842732717	 0.118001
H	-0.490479955	-2.7766160875	 1.2813252464	 0.127064
H	-2.3751823178	-3.9309376224	 0.2867437563	 0.098323
H	-2.9774924303	-2.4239740082	 1.0250360418	 0.114295
H	-4.4293297908	-3.729767326	-1.2356882314	 0.125724
H	-4.8226456304	-2.1721292524	-0.4825905693	 0.13163
H	-3.7769079302	-1.4892284843	-3.0898204098	 0.095406
34.6543	53.5104	63.6056	103.2514	123.6793	144.1446	158.2549	290.0915	370.3275	386.6325	462.257	575.2906	618.5153	742.5735	818.0856	875.5717	918.5477	1001.0163	1034.9105	1038.7187	1080.9751	1112.469	1140.6986	1154.155	1178.5135	1237.1058	1252.5439	1280.3914	1336.3679	1351.9228	1398.6365	1403.4772	1423.0185	1434.4867	1476.2162	1488.0766	1512.0105	1746.4166	1847.8697	2899.4115	2964.5813	2973.0722	3001.7959	3012.1588	3030.9317	3046.5887	3104.306	3518.7807
N=COCCOCC=O	[NH][CH]OCCOCC=O	
InChI=1S/C5H9NO3/c6-5-9-4-3-8-2-1-7/h1,5-6H,2-4H2	InChI=1S/C5H9NO3/c6-5-9-4-3-8-2-1-7/h1,5-6H,2-4H2
