19
gdb 81056	2.54971	1.49669	1.25042	2.7001	76.78	-0.2281	0.0199	0.248	1084.9658	0.1594	-419.163916	-419.155241	-419.154297	-419.197231	33.289	
C	-0.0410851034	 1.7734870896	 0.4515714361	-0.340223
N	 0.1103152391	 0.3427374467	 0.1854179004	-0.145815
C	-0.9601580599	-0.6038132843	 0.7155161725	-0.027966
C	 0.0854570396	-1.7299276732	 0.5370708385	-0.239344
C	 0.7870677173	-0.5286770467	 1.2437113996	 0.27952
C	-0.4466025288	-0.4307945496	 2.1773726808	-0.28409
C	 2.2511393654	-0.4095168668	 1.5783458477	 0.254662
N	 2.9879661954	 0.0929534576	 0.5470270487	-0.534824
O	 2.7089115376	-0.7380039402	 2.6549408095	-0.362313
H	 0.9322629094	 2.2577782535	 0.3241445757	 0.122981
H	-0.7211618109	 2.1884963366	-0.2995159052	 0.123315
H	-0.4255132208	 2.0486725094	 1.443813818	 0.107049
H	-1.984463996	-0.5674811365	 0.3419322053	 0.085879
H	-0.0437855461	-2.6333525377	 1.1329980402	 0.108987
H	 0.4050399809	-1.9203577868	-0.4877444998	 0.102097
H	-0.6236935071	 0.5221951755	 2.6731648227	 0.109468
H	-0.6095026348	-1.2620869648	 2.8656444523	 0.110506
H	 2.5549535558	 0.2473911963	-0.3490909298	 0.269072
H	 3.9911948173	 0.1122853613	 0.6299182869	 0.261038
62.3561	147.7444	162.6797	184.4371	297.4396	329.2258	349.0292	385.8536	482.3993	557.3184	572.5735	616.7843	650.0755	721.6664	756.9276	813.148	825.4415	921.154	935.7928	957.5697	996.4602	1060.308	1069.5858	1094.9875	1132.2003	1141.6651	1158.3573	1169.8944	1172.0808	1210.0009	1229.7609	1234.2374	1238.0527	1392.0148	1441.7749	1472.7432	1494.3961	1501.866	1537.9921	1603.094	1801.8991	3001.7752	3070.3459	3083.4183	3087.3023	3101.9026	3108.0322	3155.1961	3165.8482	3585.8074	3725.8897
CN1C2CC1(C2)C(N)=O	CN1[C@H]2C[C@@]1(C2)C(=O)N	
InChI=1S/C6H10N2O/c1-8-4-2-6(8,3-4)5(7)9/h4H,2-3H2,1H3,(H2,7,9)	InChI=1S/C6H10N2O/c1-8-4-2-6(8,3-4)5(7)9/h4H,2-3H2,1H3,(H2,7,9)/t4-,6+
