18
gdb 83559	3.03714	1.34531	1.17071	3.5057	75.97	-0.2756	0.0339	0.3095	1088.993	0.149908	-401.955221	-401.94752	-401.946576	-401.987204	30.256	
O	-0.0696879699	 1.5719502576	 0.0237484304	-0.437976
C	 0.0186137294	 0.173177894	 0.0233131143	 0.139275
C	 0.1661869217	-0.5955123036	 1.3778983545	-0.080086
C	-0.9657684454	 0.0213626317	 2.2176301658	-0.22153
C	-2.1050597934	 0.0317509532	 1.1436302531	-0.227081
C	-1.3358089349	-0.5729382386	-0.0460913979	-0.051096
C	-0.5903313342	-1.7657024598	 0.6546639523	-0.16082
C	 0.2221906957	-2.6015793846	-0.2116386704	 0.266634
N	 0.8646636952	-3.2811682827	-0.892662637	-0.339004
H	 0.8178920647	 1.9383617015	-0.0301398482	 0.290753
H	 0.723618563	-0.1928617785	-0.7303922299	 0.098625
H	 1.1326069804	-0.765148411	 1.8514956622	 0.079064
H	-1.2085786613	-0.5841943818	 3.0944981854	 0.100837
H	-0.7080596829	 1.0280344301	 2.5510276361	 0.113743
H	-2.9652821237	-0.5796871662	 1.4281945922	 0.100864
H	-2.4548941132	 1.0404592022	 0.9200396533	 0.124695
H	-1.8658393082	-0.7164245241	-0.9863101954	 0.085202
H	-1.2087143929	-2.3992681692	 1.2954537891	 0.1179
136.9569	158.1458	241.0133	256.46	268.0101	377.76	379.9957	485.5585	538.0417	620.977	698.2636	784.3355	835.155	843.0922	886.1579	889.8776	910.6425	964.1799	980.2325	1011.2219	1024.1009	1044.7174	1101.8446	1139.0399	1162.6958	1167.8275	1193.6796	1205.2981	1260.3067	1266.9302	1276.1746	1288.5447	1315.6107	1321.0005	1366.0061	1450.8168	1480.4988	1503.6651	2349.1013	3058.7012	3065.1767	3073.8464	3081.1985	3115.0768	3125.6932	3131.4642	3135.2656	3831.6368
OC1C2CCC1C2C#N	O[C@H]1[C@H]2CC[C@@H]1[C@H]2C#N	
InChI=1S/C7H9NO/c8-3-6-4-1-2-5(6)7(4)9/h4-7,9H,1-2H2	InChI=1S/C7H9NO/c8-3-6-4-1-2-5(6)7(4)9/h4-7,9H,1-2H2/t4-,5+,6-,7-
