13
gdb 28003	4.08974	1.249	0.9568	2.2224	63.93	-0.2135	-0.0528	0.1607	1109.988	0.090085	-489.94566	-489.938344	-489.9374	-489.97737	27.625	
O	 0.0448586359	 1.355508488	-0.034554606	-0.422004
C	 0.0566525279	 0.0161053956	-0.081160334	 0.369949
C	 0.0047817172	-0.7712738025	-1.1842397174	-0.250788
N	 0.0473328526	-2.0906147071	-0.6648537884	-0.124114
C	 0.0239714491	-3.2868085168	-1.3268329241	 0.184473
O	 0.0665546491	-4.3665302541	-0.7599811936	-0.345259
C	 0.1221343817	-1.9538328231	 0.7308219824	 0.497977
O	 0.1765856573	-3.0089292958	 1.5204287712	-0.399668
N	 0.1290397688	-0.7121933558	 1.1006227574	-0.426009
H	 0.093215425	 1.5994053011	 0.898429591	 0.310786
H	-0.0549314223	-0.5698801473	-2.237635225	 0.144714
H	-0.0369131861	-3.1850425292	-2.4208570634	 0.129639
H	 0.1535006138	-3.804818593	 0.9421547299	 0.330304
121.1779	243.3678	249.9736	262.7434	350.693	369.7154	405.0631	488.1612	556.8802	583.1182	641.4344	694.9975	737.7357	750.6653	804.2385	862.3626	1021.3397	1029.5006	1168.6141	1214.8419	1248.2608	1280.8665	1386.3103	1407.1422	1439.9985	1493.2663	1674.5945	1709.2441	1774.6846	3030.1979	3304.9196	3437.5605	3798.8583
OC1=CN(C=O)C(O)=N1	Oc1cn(C=O)c(O)n1	
InChI=1S/C4H4N2O3/c7-2-6-1-3(8)5-4(6)9/h1-2,8H,(H,5,9)	InChI=1S/C4H4N2O3/c7-2-6-1-3(8)5-4(6)9/h1-2,8H,(H,5,9)
