26
gdb 6104	3.84575	0.84947	0.73294	0.	89.43	-0.2964	0.0826	0.379	1680.6032	0.244479	-315.494298	-315.483261	-315.482316	-315.530803	40.343	
C	-0.1050706181	 1.5881368586	 0.0912684603	-0.380564
C	-0.058074659	 0.0552151789	 0.018635892	 0.045961
C	-1.479086109	-0.5247424906	 0.0488561309	-0.388138
C	 0.7062225515	-0.460022726	-1.2167316501	-0.176208
C	 2.1992957048	-0.1105166616	-1.2472987505	-0.176207
C	 2.9635907138	-0.6257087672	-2.4826873268	 0.04596
C	 4.3845955142	-0.0457350796	-2.5128928217	-0.388138
C	 3.0106042133	-2.1586274974	-2.5553761774	-0.380564
H	 0.8926220774	 2.0308948087	 0.1596488727	 0.113671
H	-0.5957747804	 2.0049772706	-0.7969785727	 0.108706
H	-0.6721124309	 1.919461514	 0.9676571493	 0.107896
H	 0.4712892139	-0.3087555474	 0.9117833791	 0.068452
H	-2.0545027749	-0.1955914326	-0.8250243102	 0.109779
H	-1.464678016	-1.6198316099	 0.0426720603	 0.107486
H	-2.0226856474	-0.2009948541	 0.9427997947	 0.106773
H	 0.5867416374	-1.5495068593	-1.2587171867	 0.090468
H	 0.2220034204	-0.0674991837	-2.1234704589	 0.085718
H	 2.3187750192	 0.9789667983	-1.2052790931	 0.090468
H	 2.6835200523	-0.5030667387	-0.340574224	 0.085718
H	 2.4342206735	-0.2617107725	-3.3758201378	 0.068452
H	 4.9600230137	-0.3749213331	-1.639032736	 0.109779
H	 4.9281904359	-0.3694351066	-3.4068564752	 0.106772
H	 4.3701761602	 1.0493536852	-2.5066571615	 0.107486
H	 3.5012915485	-2.5754970574	-1.6671333709	 0.108706
H	 2.0129183941	-2.6013935185	-2.6237983171	 0.113671
H	 3.5776708916	-2.4899123779	-3.4317638191	 0.107896
28.1235	82.3644	124.4466	132.6591	224.4384	228.4568	243.1114	250.585	260.4179	307.3937	383.8227	409.889	410.1873	446.1122	486.5341	757.3432	818.0428	840.9221	915.0443	925.7722	927.1148	956.6132	957.344	967.9754	972.7982	1058.2617	1058.4297	1106.0955	1165.9418	1192.4568	1193.6669	1203.2958	1248.5858	1289.7888	1324.7815	1340.1163	1364.7681	1371.8047	1377.6231	1397.2214	1399.1589	1401.645	1420.4287	1422.6513	1474.9195	1486.5135	1490.0454	1490.5933	1497.0437	1500.085	1504.9974	1505.3881	1510.7423	1512.6635	2988.469	2991.1026	2996.839	3007.9264	3021.6625	3021.7107	3027.4424	3027.5163	3038.3131	3060.2831	3085.3893	3085.4112	3091.4836	3091.971	3097.1348	3097.3925	3108.0753	3108.3309
CC(C)CCC(C)C	CC(C)CCC(C)C	
InChI=1S/C8H18/c1-7(2)5-6-8(3)4/h7-8H,5-6H2,1-4H3	InChI=1S/C8H18/c1-7(2)5-6-8(3)4/h7-8H,5-6H2,1-4H3
