16
gdb 30503	2.74434	1.40075	0.93285	4.8911	77.27	-0.1963	-0.0223	0.174	1202.7957	0.124185	-434.110688	-434.101781	-434.100837	-434.144924	31.086	
C	 0.0247184561	 1.3984071463	-0.0037197024	-0.335847
N	 0.0373942902	-0.05068987	 0.0005898918	-0.363232
C	-1.091197537	-0.6361379305	 0.0000781235	 0.527183
N	-2.3888073859	-0.1420340649	-0.0039579364	-0.390613
C	-3.3162920408	-1.1882038368	-0.0022474401	-0.089796
C	-2.6429658449	-2.347280078	 0.0023600728	-0.091722
N	-1.2704161282	-2.0400023008	 0.0038400308	-0.160658
C	-0.243732492	-2.9698528748	 0.0083401703	 0.161848
O	-0.4366793337	-4.1623104462	 0.0115072439	-0.316064
H	 1.0522259991	 1.7699367626	-0.0020854542	 0.130646
H	-0.4721537846	 1.8176978047	-0.8950158924	 0.10235
H	-0.4768579108	 1.8230304299	 0.8824236422	 0.102254
H	-2.6057815169	 0.8370264054	-0.0061798477	 0.27229
H	-4.3767535918	-1.0023927269	-0.0047480618	 0.149507
H	-2.9662635035	-3.3719702561	 0.0047732416	 0.168963
H	 0.7411322947	-2.481074964	 0.0085982681	 0.13289
67.5361	111.4616	120.296	171.4069	196.6228	246.933	250.3791	358.2151	416.1193	597.286	600.9843	694.4359	719.4095	745.9251	816.3124	831.6647	918.1579	1029.862	1046.4704	1087.1801	1106.1005	1117.8522	1164.1086	1185.6606	1272.0151	1312.394	1394.8131	1417.8372	1430.6452	1449.1937	1496.8768	1505.4493	1657.3594	1767.6317	1800.8154	2947.7152	2986.7494	3049.3229	3101.6314	3283.8877	3321.0647	3715.2413
CN=C1NC=CN1C=O	CN=c1[nH]ccn1C=O	
InChI=1S/C5H7N3O/c1-6-5-7-2-3-8(5)4-9/h2-4H,1H3,(H,6,7)	InChI=1S/C5H7N3O/c1-6-5-7-2-3-8(5)4-9/h2-4H,1H3,(H,6,7)
