23
gdb 103367	2.4939	1.52962	1.25996	1.5302	84.14	-0.2568	0.0623	0.3192	1125.2289	0.207733	-388.27443	-388.265793	-388.264849	-388.307212	34.961	
C	-0.1370250604	 1.5451022907	 0.0629573173	-0.470782
C	-0.0634364419	 0.011712479	 0.0439002379	 0.338831
C	-1.4994851735	-0.5100803804	-0.1027616272	-0.143381
O	-2.0896960343	-0.1270828098	-1.3428573982	-0.423365
C	 1.0473800942	-0.5848203021	-0.9056584518	-0.060128
C	 2.0683085681	-0.246955143	 0.2198070627	-0.237256
C	 0.8711532738	-0.6269903739	 1.1391984921	-0.057723
C	 0.783522763	-2.1425750807	 0.8574953797	-0.222409
C	 0.9035376802	-2.1093640061	-0.7060018179	-0.224194
H	 0.8313431203	 2.0411791389	-0.0118042183	 0.110348
H	-0.7557340043	 1.8840244143	-0.7723261402	 0.132169
H	-0.6154883832	 1.890221998	 0.9873170429	 0.10962
H	-1.5641270404	-1.595710669	 0.0279593248	 0.087231
H	-2.1309039488	-0.058846696	 0.6713539874	 0.103964
H	-1.5813930687	-0.5459571969	-2.0449807421	 0.284034
H	 1.1796426921	-0.220966678	-1.9268517513	 0.053466
H	 2.9606012927	-0.8771760963	 0.2836263878	 0.084638
H	 2.3600321372	 0.7995530697	 0.2675159916	 0.101029
H	 0.8198788889	-0.3063759835	 2.1813591821	 0.05447
H	 1.6129988046	-2.6809764175	 1.3249421285	 0.094849
H	-0.1423728782	-2.6035889778	 1.2092668912	 0.098884
H	 0.030797096	-2.5352262008	-1.2096999488	 0.089259
H	 1.7826699024	-2.6481750088	-1.0704426202	 0.096446
84.5812	170.5503	187.5432	273.698	283.6043	315.6792	350.3101	400.7019	447.4361	478.259	517.5511	643.5976	713.261	820.0377	833.3483	842.6035	861.5762	902.6538	926.9824	933.0617	958.097	971.1391	995.8616	1003.1175	1028.2926	1051.2654	1084.9368	1102.752	1133.8278	1154.7605	1178.085	1197.1544	1220.983	1243.1703	1252.0542	1262.4844	1266.383	1297.3582	1311.4962	1339.5551	1386.4845	1404.1507	1419.8677	1488.8876	1495.6484	1498.9749	1511.7102	1518.9977	1532.7008	3031.7464	3037.104	3049.913	3057.3152	3060.4608	3069.9395	3084.3745	3089.3629	3098.5907	3102.9326	3105.2514	3130.6958	3155.5238	3813.6385
CC1(CO)C2CC1CC2	C[C@@]1(CO)[C@H]2C[C@@H]1CC2	
InChI=1S/C8H14O/c1-8(5-9)6-2-3-7(8)4-6/h6-7,9H,2-5H2,1H3	InChI=1S/C8H14O/c1-8(5-9)6-2-3-7(8)4-6/h6-7,9H,2-5H2,1H3/t6-,7+,8-
