15
gdb 126107	6.76221	0.65625	0.60266	4.2386	81.18	-0.2431	-0.0444	0.1987	1782.5764	0.111558	-416.765497	-416.756963	-416.756019	-416.800492	29.747	
C	-0.0534499362	 1.5293229857	 0.086315424	-0.368761
C	 0.0126207539	-0.0054206489	-0.0211237505	-0.327587
C	 0.6959229412	-0.4634467474	-1.2237983291	 0.197941
C	 1.2639371397	-0.8271316734	-2.2236567995	-0.046864
C	 1.9249048061	-1.2679512509	-3.3870340504	 0.143669
C	 2.5010137875	-0.5650868589	-4.4072029378	-0.083368
O	 3.0075549095	-1.4051290575	-5.2958742003	-0.157145
N	 2.7265863525	-2.7309398985	-4.79274535	-0.010525
N	 2.1129120447	-2.6087882217	-3.7110164272	-0.184837
H	 0.9503144541	 1.9618967131	 0.1074953566	 0.131574
H	-0.5893667538	 1.9567137193	-0.7652960723	 0.131575
H	-0.5739599036	 1.8206492688	 1.0028109659	 0.122224
H	 0.5219707352	-0.4160981747	 0.8600897866	 0.139839
H	-1.0029825758	-0.4212311589	-0.0043624752	 0.13984
H	 2.6045835052	 0.4905528839	-4.595872261	 0.172424
25.8338	73.5453	105.0508	189.186	220.6882	319.7205	419.614	488.5223	503.0045	562.4244	576.9997	638.472	721.8564	786.8475	855.7898	886.6536	969.4378	1008.335	1059.6023	1089.9732	1103.311	1154.5047	1263.9791	1283.2006	1319.0478	1349.9143	1411.2746	1473.2691	1487.8446	1495.8322	1505.4995	1597.202	2363.3502	3022.5447	3048.0027	3050.5828	3123.1662	3126.1616	3288.0036
CCC#CC1=CON=N1	CCC#Cc1conn1	
InChI=1S/C6H6N2O/c1-2-3-4-6-5-9-8-7-6/h5H,2H2,1H3	InChI=1S/C6H6N2O/c1-2-3-4-6-5-9-8-7-6/h5H,2H2,1H3
