21
gdb 59205	3.03199	1.22465	1.00618	1.7893	80.62	-0.1951	0.0706	0.2656	1253.5327	0.182425	-420.305561	-420.296487	-420.295543	-420.339253	34.764	
C	-0.2280843006	 1.2146519944	 1.0924213267	-0.327299
N	-0.1488255895	 0.3361903571	-0.0622983216	-0.093423
C	 1.1163430814	-0.3797286197	-0.1244778342	-0.299404
C	-1.3783884258	-0.3469593198	-0.3185380547	 0.148618
C	-1.5387481197	-1.38468176	-1.4601809499	-0.149861
N	-0.8544669813	-2.4132220195	-0.5800074629	-0.327183
C	-1.8494772556	-1.7208758018	 0.3317063249	-0.106809
C	-2.8968480425	-1.8119458372	-0.8000490162	 0.134292
O	-4.0069878295	-0.9575061945	-0.7324843602	-0.427991
H	 0.6325864703	 1.8921779882	 1.0988661976	 0.113523
H	-1.1374461448	 1.8219746115	 1.0403376185	 0.116277
H	-0.2357775385	 0.6761581373	 2.058665557	 0.093874
H	 1.2675747185	-1.0903602032	 0.7042937418	 0.098603
H	 1.1923521844	-0.9422125002	-1.0542519405	 0.127639
H	 1.9267858144	 0.3585447665	-0.0933113244	 0.098179
H	-2.1807895275	 0.3912282571	-0.3054510488	 0.093862
H	-1.2910368153	-1.2789151112	-2.5188976229	 0.07425
H	-1.203292337	-3.3503094444	-0.8142649416	 0.20038
H	-1.9647358842	-2.0038414936	 1.3787679627	 0.079206
H	-3.1828748474	-2.8440306393	-1.0501642159	 0.065813
H	-4.46812179	-0.9894979075	-1.5767916655	 0.287455
57.3883	156.9554	186.0453	237.9035	256.0363	266.9288	304.5129	349.7614	386.3892	425.8682	436.692	599.2253	620.6578	758.0836	814.1668	861.2185	881.0497	907.3412	930.0548	950.3002	1036.0084	1074.6889	1094.299	1100.4559	1117.9971	1127.6796	1147.906	1158.8413	1182.5935	1185.984	1208.6705	1224.1309	1265.8641	1273.8111	1292.6299	1318.5535	1355.689	1421.6423	1446.0313	1458.476	1475.4833	1482.3748	1493.1156	1504.3776	1520.7526	2930.0981	2971.4792	3000.0602	3048.0664	3050.5468	3088.3083	3096.1288	3107.5497	3112.8863	3145.9675	3352.4523	3817.1184
CN(C)C1C2NC1C2O	CN(C)[C@H]1[C@H]2N[C@@H]1[C@H]2O	
InChI=1S/C6H12N2O/c1-8(2)5-3-6(9)4(5)7-3/h3-7,9H,1-2H3	InChI=1S/C6H12N2O/c1-8(2)5-3-6(9)4(5)7-3/h3-7,9H,1-2H3/t3-,4+,5+,6+
