21
gdb 102310	2.48828	0.93536	0.75857	4.0417	80.29	-0.2415	0.0273	0.2688	1565.6066	0.180866	-420.408864	-420.397965	-420.397021	-420.445696	38.587	
C	-0.0311991885	 1.5500460473	 0.272912735	-0.329724
N	-0.0176883746	 0.1721273213	-0.2185813498	-0.299424
C	-1.304734512	-0.5115011076	-0.1002690958	-0.104392
C	-1.2306706005	-1.9501536456	-0.6570108621	-0.214464
C	-0.8132326014	-2.0142030758	-2.1346628705	 0.10233
C	-0.9453518946	-3.4280819141	-2.6974985216	-0.407726
O	-1.5247969266	-1.0626527766	-2.9255286824	-0.427507
C	-1.7188001044	-0.5696372327	 1.3122324983	 0.302977
N	-2.0696946885	-0.6285076129	 2.4115826731	-0.333412
H	 0.9379521348	 2.0094136686	 0.0621791586	 0.124732
H	-0.8189148195	 2.1780973713	-0.1776791813	 0.102578
H	-0.1767018672	 1.5533395098	 1.356958693	 0.150425
H	 0.2156622435	 0.1868598841	-1.2055413946	 0.238925
H	-2.1083596785	 0.0215479626	-0.6392548236	 0.10471
H	-0.5236189846	-2.5299726863	-0.0553417362	 0.12829
H	-2.217932787	-2.4135072756	-0.5352807972	 0.107142
H	 0.2351356067	-1.7048377601	-2.2210063828	 0.102686
H	-0.6300415434	-3.4500358966	-3.7438582077	 0.129927
H	-0.3318685811	-4.1371749722	-2.1330262812	 0.127338
H	-1.9858700524	-3.7720208249	-2.6428564446	 0.112349
H	-2.4403703401	-1.356758464	-2.9931856066	 0.28224
32.1108	78.7364	120.6378	123.2107	166.0475	226.8074	242.663	272.6157	301.5516	310.0372	322.5691	419.4504	462.2564	521.2022	564.7166	590.265	783.2754	813.2457	857.0809	935.8915	947.0621	1003.1181	1042.9697	1071.106	1097.4836	1144.2232	1148.0074	1167.9922	1187.1506	1238.4795	1284.304	1324.9028	1355.6113	1364.0822	1391.0646	1406.8247	1426.3853	1461.4884	1471.6061	1489.5875	1492.533	1495.0274	1499.5429	1523.9881	2359.0702	2942.291	2960.2048	3026.3269	3031.0154	3045.4678	3079.5943	3090.3169	3101.0274	3121.7481	3123.4227	3535.4843	3796.2623
CNC(CC(C)O)C#N	CN[C@@H](C[C@@H](C)O)C#N	
InChI=1S/C6H12N2O/c1-5(9)3-6(4-7)8-2/h5-6,8-9H,3H2,1-2H3	InChI=1S/C6H12N2O/c1-5(9)3-6(4-7)8-2/h5-6,8-9H,3H2,1-2H3/t5-,6+/m1/s1
