20
gdb 126151	3.73362	0.91679	0.88131	0.5648	80.46	-0.2564	0.0008	0.2571	1421.319	0.172435	-399.346915	-399.337721	-399.336777	-399.382115	33.319	
C	-0.0850435733	 1.5349838474	-0.0808598868	-0.390949
C	-0.0942586875	 0.0094472122	 0.0535954378	-0.168709
C	 0.7218827476	-0.5318192036	 1.2508685461	-0.084739
C	 0.1561157935	-0.0769837076	 2.6082188253	-0.397929
C	 0.8218178669	-2.0297396772	 1.18432274	 0.317123
N	 1.9756817502	-2.6502996748	 0.9182635968	-0.281662
N	 1.6481479545	-3.9371790902	 0.9335873099	-0.075434
N	 0.3805360033	-4.2250914226	 1.1876290559	-0.193826
C	-0.1684303415	-3.0211255984	 1.3506071964	-0.131603
H	 0.9391968442	 1.918771766	-0.1488112206	 0.116818
H	-0.6159511593	 1.8462958557	-0.985809866	 0.114552
H	-0.5694486776	 2.0276042332	 0.7676288295	 0.118799
H	-1.1290562488	-0.3492954607	 0.1352592144	 0.094549
H	 0.3098344711	-0.4347613103	-0.8634109364	 0.105518
H	 1.7462962758	-0.1515957175	 1.1581810297	 0.091898
H	 0.1683739992	 1.0125361194	 2.6980185275	 0.118797
H	-0.8796574698	-0.4112693273	 2.736508537	 0.114295
H	 0.744889731	-0.4883208428	 3.4330965875	 0.122984
H	 2.3310425572	-4.6581563064	 0.7672036615	 0.290741
H	-1.2185619467	-2.9227132944	 1.5748696745	 0.118777
24.069	92.7235	122.1465	191.5033	218.6212	275.1158	291.0073	345.5573	411.8166	480.7262	511.9948	694.3905	723.3187	756.5204	784.4955	852.1523	883.343	962.0249	981.3253	999.0536	1019.1939	1036.4874	1075.7041	1134.9569	1168.3379	1178.6433	1206.9505	1240.9558	1286.3737	1304.0634	1349.3327	1367.2652	1380.6896	1408.4259	1415.101	1421.678	1472.9617	1482.8552	1495.6652	1499.708	1506.4667	1512.0208	1564.747	3018.3656	3033.0504	3035.6832	3040.4947	3061.2191	3100.1224	3104.2208	3108.0674	3118.7761	3268.3592	3671.2819
CCC(C)C1=NNN=C1	CC[C@@H](C)c1n[nH]nc1	
InChI=1S/C6H11N3/c1-3-5(2)6-4-7-9-8-6/h4-5H,3H2,1-2H3,(H,7,8,9)	InChI=1S/C6H11N3/c1-3-5(2)6-4-7-9-8-6/h4-5H,3H2,1-2H3,(H,7,8,9)/t5-/m1/s1
