21
gdb 119067	2.00782	1.2514	0.88338	2.4671	76.09	-0.2477	0.0731	0.3208	1380.8674	0.180402	-461.324852	-461.314497	-461.313553	-461.360329	37.559	
C	 0.0018212906	 1.4231596234	-0.0039484891	-0.229317
O	 0.1736803664	 0.0248114932	-0.0594892637	-0.247407
C	 0.4291316554	-0.5546048805	 1.2177854324	-0.131946
C	 0.5038650322	-2.0535296685	 1.0556956663	 0.269747
C	-0.7650649153	-2.6948304839	 0.518659542	-0.122841
O	-0.9678611507	-2.4436471359	-0.8587787929	-0.426861
C	 1.8309765633	-2.6572863518	 0.6313109953	-0.349054
C	 1.3339200937	-2.8282658394	 2.0429271701	 0.033557
O	 1.9296635299	-2.1112901809	 3.0881653394	-0.422417
H	 0.8988618391	 1.921377462	 0.3938083458	 0.110584
H	-0.1759547552	 1.7733375855	-1.0233033559	 0.130995
H	-0.8559002876	 1.703571565	 0.6265640233	 0.110102
H	 1.3607228334	-0.1561977465	 1.6399163135	 0.103781
H	-0.387223992	-0.2884151663	 1.9103563573	 0.09266
H	-0.713427818	-3.7839432161	 0.6321479638	 0.093888
H	-1.6237304856	-2.3485528869	 1.1207463673	 0.079406
H	-0.7931700544	-1.5011601696	-0.9838827884	 0.289345
H	 1.8141292407	-3.5065648128	-0.0427506291	 0.122392
H	 2.6577157992	-1.9704616575	 0.4830400809	 0.113573
H	 0.9555560126	-3.8095150797	 2.3314842457	 0.089289
H	 2.8059248423	-2.4809742829	 3.2380170361	 0.290524
75.3005	95.5999	115.6455	147.606	185.9297	231.3046	248.8055	286.376	331.117	354.6875	385.2031	428.3631	485.2015	516.4432	606.3504	747.9155	853.0559	930.9047	947.4204	972.6649	983.758	1000.8159	1033.6905	1053.3221	1090.3829	1109.3633	1143.3393	1170.4704	1187.6303	1221.3048	1224.0522	1241.1455	1282.3174	1323.553	1349.9523	1375.4063	1422.5621	1430.1916	1467.7965	1482.9408	1485.4526	1489.0395	1501.8699	1509.285	1527.4228	2945.9097	2963.8511	2980.0753	3026.749	3039.3548	3050.6308	3092.8476	3119.291	3133.428	3222.891	3751.1628	3808.3027
COCC1(CO)CC1O	COC[C@@]1(CO)C[C@H]1O	
InChI=1S/C6H12O3/c1-9-4-6(3-7)2-5(6)8/h5,7-8H,2-4H2,1H3	InChI=1S/C6H12O3/c1-9-4-6(3-7)2-5(6)8/h5,7-8H,2-4H2,1H3/t5-,6+/m1/s1
