24
gdb 88430	2.21646	1.29332	1.10251	1.3401	89.71	-0.2173	0.0814	0.2987	1295.0707	0.215917	-368.370777	-368.360634	-368.35969	-368.405915	38.869	
C	 1.4597364853	-3.0269951642	 4.4179648456	-0.411166
C	 0.9609207708	-2.8443419936	 3.0014490975	 0.01009
C	-0.38229969	-2.2071095182	 2.7630844088	-0.314323
C	 0.8706212585	-1.5061145047	 2.2844300911	-0.071311
C	 1.2824328053	-0.1454658494	 2.8038304178	 0.304968
C	 0.1606886276	 0.8773954745	 2.8687557726	-0.433214
C	 2.4502944773	 0.0227423199	 3.7270477244	-0.287952
N	 2.5532014289	 0.4462968982	 2.3369292542	-0.115782
C	 3.4321133508	-0.3343614346	 1.4792879784	-0.317842
H	 1.1985737968	-2.1756688833	 5.0527286802	 0.122789
H	 1.0086272645	-3.9214963757	 4.8622422956	 0.114705
H	 2.5473031671	-3.1538474593	 4.4584557648	 0.114925
H	 1.2077048315	-3.6772184531	 2.3467496856	 0.081436
H	-1.0574027532	-2.6265184664	 2.0250158245	 0.107299
H	-0.8832229593	-1.7976551884	 3.6350181161	 0.1107
H	 1.0152170029	-1.5858070743	 1.2084086528	 0.08913
H	-0.5928699301	 0.5987516435	 3.6124894129	 0.108621
H	 0.5621354253	 1.8600490835	 3.1275817961	 0.120685
H	-0.3432576747	 0.9607849611	 1.8992742373	 0.11377
H	 2.4486217573	 0.8174303686	 4.4707686175	 0.103462
H	 3.0001563047	-0.8674178428	 4.0207186423	 0.106628
H	 3.4710078873	-1.4084829765	 1.7191692508	 0.10434
H	 3.1152165574	-0.2281710939	 0.4361310258	 0.118651
H	 4.446703608	 0.0689788592	 1.5617187872	 0.119391
25.5357	165.5549	180.9549	192.9653	227.2935	239.8802	266.5101	283.8269	330.7052	351.8073	407.9272	456.1708	498.2092	558.3625	666.2306	752.5688	778.9245	840.6269	863.0206	909.3042	918.5531	950.8007	997.2107	1031.1811	1057.3165	1070.5839	1084.5271	1108.1243	1123.8928	1130.4047	1148.5543	1152.6982	1174.535	1202.7477	1210.1206	1230.5335	1299.0485	1360.037	1393.9309	1407.678	1414.5821	1424.6756	1447.8724	1484.6002	1488.5673	1494.001	1494.2845	1497.6153	1498.1603	1506.0589	1515.7933	2979.7482	3028.1158	3032.1887	3063.2206	3083.8274	3093.8925	3094.1382	3095.6367	3105.311	3113.2047	3122.2538	3126.5815	3132.3281	3182.3513	3208.8423
CC1CC1C1(C)CN1C	C[C@H]1C[C@H]1[C@@]1(C)CN1C	
InChI=1S/C8H15N/c1-6-4-7(6)8(2)5-9(8)3/h6-7H,4-5H2,1-3H3	InChI=1S/C8H15N/c1-6-4-7(6)8(2)5-9(8)3/h6-7H,4-5H2,1-3H3/t6-,7+,8+,9?/m0/s1
