15
gdb 20288	4.1949	3.13481	2.87004	1.5676	64.81	-0.2266	0.0718	0.2984	585.2679	0.12254	-325.445127	-325.440608	-325.439663	-325.473346	20.401	
C	 0.0203764382	 1.4989845919	 0.0587224968	-0.080623
C	-0.2809108535	 1.8537968643	 1.5078775734	-0.080623
C	 0.8352824519	 1.3340441113	 2.4008205281	-0.106262
C	-0.4522515281	 0.556936624	 2.2645687964	-0.035238
N	 0.1787512698	-0.4644370479	 1.3717086998	-0.155238
C	 0.027994171	-0.0086272579	-0.0453584965	-0.035238
C	 1.3377047775	 0.742363546	-0.0157700387	-0.106262
C	 1.4896066935	 0.3115457634	 1.4542501271	-0.015767
H	-0.303987565	 2.1138950108	-0.770187873	 0.088703
H	-0.8355451063	 2.7398841903	 1.7865337091	 0.088703
H	 1.264412336	 1.8557309805	 3.2466399107	 0.089284
H	-1.2393096618	 0.3155093315	 2.9685776089	 0.090116
H	-0.454308151	-0.6089500099	-0.8071807659	 0.090116
H	 2.1001591561	 0.871508349	-0.7732031036	 0.089284
H	 2.3632593415	-0.2549663673	 1.7745935574	 0.079046
556.8629	571.3435	705.6755	721.2779	771.8787	778.5705	790.7469	802.2176	820.6187	828.9457	868.3885	893.1664	930.4114	955.6259	983.4421	984.2758	994.0711	1022.4305	1026.9489	1050.9103	1053.6314	1069.4219	1080.0776	1094.8411	1176.6088	1214.8795	1229.5624	1255.9458	1262.8272	1305.2466	1324.3361	1371.8595	3118.8815	3179.5946	3180.882	3192.0626	3195.6441	3206.6908	3217.8867
C12C3C4C3N3C1C2C43	[C@@H]12[C@@H]3[C@H]4[C@@H]3N3[C@@H]1[C@@H]2[C@@H]43	
InChI=1S/C7H7N/c1-2-4-6(2)8-5(1)3(1)7(4)8/h1-7H	InChI=1S/C7H7N/c1-2-4-6(2)8-5(1)3(1)7(4)8/h1-7H/t1-,2+,3+,4-,5-,6+,7-
