15
gdb 39716	3.57753	1.78439	1.57471	3.0461	67.74	-0.2467	-0.0147	0.2319	855.0432	0.11416	-416.729017	-416.722858	-416.721914	-416.759375	25.09	
C	 0.0998538738	 1.4096111112	-0.0155974504	-0.282342
O	 1.239675763	 0.5307930889	 0.0064787455	-0.269564
C	-0.045065768	-0.0427090155	 0.0015815637	 0.536485
C	-0.6753638575	-0.8861498526	 1.0765193647	-0.170318
C	-1.5690291015	-1.5060356591	 0.0522699181	-0.043566
C	-0.6473713189	-0.9675755653	-1.0899755454	-0.185728
N	 0.3553107032	-2.0248961825	-1.3284119528	-0.172963
C	 0.3696972034	-2.6927386591	-0.2482810556	 0.047612
N	-0.6117367951	-2.3664540383	 0.7553252334	-0.161269
H	-0.0619167824	 1.98696022	 0.8939452137	 0.122573
H	-0.0505293999	 1.9553907365	-0.9459947004	 0.124936
H	-0.8404896902	-0.6337208857	 2.1160498148	 0.116275
H	-2.6304334189	-1.7193684687	 0.0666793419	 0.112097
H	-1.048782355	-0.5290027344	-1.9998835097	 0.089235
H	 1.0643998741	-3.4981668254	-0.0366884115	 0.136538
152.719	255.3124	297.0704	437.7847	494.4299	536.0526	622.7526	721.8625	762.7364	826.6026	836.2501	877.9556	885.0232	909.5925	948.6732	953.0601	959.9647	977.083	997.856	1014.1959	1067.3293	1118.357	1138.7767	1164.8126	1175.4869	1209.0067	1237.5217	1256.0586	1286.3368	1322.4596	1446.2528	1540.1118	1668.9102	3081.9238	3154.1493	3169.2363	3192.6536	3204.6918	3209.2298
C1OC11C2C3C1N=CN23	C1O[C@]21[C@H]1[C@H]3[C@@H]2[N][CH]N13	
InChI=1S/C6H6N2O/c1-6(9-1)4-3-5(6)8(3)2-7-4/h2-5H,1H2	InChI=1S/C6H6N2O/c1-6(9-1)4-3-5(6)8(3)2-7-4/h2-5H,1H2/t3-,4+,5-,6+,8?/m1/s1
