17
gdb 45780	3.09801	1.43607	1.10521	1.3448	75.83	-0.2378	-0.0205	0.2173	1090.5045	0.138062	-418.049174	-418.041672	-418.040727	-418.081282	29.416	
O	 0.017539083	-0.0839487642	 0.0641969556	-0.349416
C	-0.0359670891	 1.1243244539	 0.0602054544	 0.413447
C	-1.3110946002	 1.9498721877	 0.0727524947	-0.409897
C	-1.1167827829	 3.307807257	 0.7323942138	 0.353088
C	-2.326737006	 4.1665677079	 0.9942948661	-0.30988
C	-1.6038072333	 3.5336056642	 2.1535265307	-0.300042
N	 0.0886835517	 4.0134631958	 0.390388066	-0.276281
C	 1.0854313431	 3.3028840991	 0.0522878987	 0.071069
N	 1.1029722662	 1.9107181239	-0.0283869426	-0.333508
H	-1.6011920508	 2.0856619437	-0.9795462938	 0.13612
H	-2.0984725906	 1.3623606121	 0.5485718855	 0.133863
H	-2.1973794942	 5.2313480543	 0.8412802714	 0.127557
H	-3.2985208966	 3.7740646982	 0.7141872559	 0.113559
H	-2.0690943531	 2.6957416873	 2.6618992378	 0.118879
H	-0.9964972785	 4.1722597467	 2.7832488365	 0.126103
H	 2.0360906252	 3.7750759997	-0.1887616491	 0.125523
H	 1.9763612663	 1.4218544528	-0.1625396015	 0.259816
87.2289	124.1116	276.7032	309.929	341.2279	446.4555	464.7984	509.776	558.5292	597.9587	653.3778	723.2289	777.9966	826.7813	848.2453	912.0592	933.8869	948.2284	951.8875	1000.8847	1023.8724	1059.8051	1082.7105	1096.0036	1174.1466	1193.2286	1251.9378	1288.7217	1322.6771	1363.1426	1420.7641	1448.3641	1453.0741	1462.492	1492.2877	1728.0447	1823.5191	3010.3541	3115.5913	3135.098	3138.6909	3149.4866	3223.4464	3237.0945	3614.4647
O=C1CC2(CC2)N=CN1	O=C1CC2(CC2)N=CN1	
InChI=1S/C6H8N2O/c9-5-3-6(1-2-6)8-4-7-5/h4H,1-3H2,(H,7,8,9)	InChI=1S/C6H8N2O/c9-5-3-6(1-2-6)8-4-7-5/h4H,1-3H2,(H,7,8,9)
