24
gdb 104717	2.49567	1.15557	0.94153	0.91	86.63	-0.2111	0.0805	0.2916	1404.7783	0.215293	-405.518027	-405.507452	-405.506508	-405.553325	38.96	
C	-0.0596552693	 1.1780613651	-0.6525348499	-0.387418
C	-0.1299485606	-0.253714705	-0.114159051	-0.235859
C	-1.5449904414	-0.6980458727	 0.2655256736	 0.411067
C	-2.458537697	-1.0178914284	-0.9431947161	-0.225313
N	-2.0997930773	-2.4409779118	-0.798632681	-0.067474
C	-3.1113278873	-3.4406943196	-1.0517251046	-0.316047
C	-1.6544692956	-2.2208879137	 0.589145692	-0.232943
O	-2.1874272324	 0.18134469	 1.1650000713	-0.288105
C	-1.6082857586	 0.2587401791	 2.4501476715	-0.255479
H	 0.9707815222	 1.4527067468	-0.8972212263	 0.109551
H	-0.6578321146	 1.2926942787	-1.5625499166	 0.118437
H	-0.4399377739	 1.8946780841	 0.0805937567	 0.126018
H	 0.244146735	-0.9629812075	-0.8608119206	 0.114702
H	 0.5287471429	-0.3564638947	 0.7576305641	 0.091954
H	-3.5066937587	-0.7954804405	-0.689995464	 0.092103
H	-2.2158330316	-0.5764287842	-1.9158784177	 0.09671
H	-3.3915664333	-3.425583386	-2.1106380151	 0.119111
H	-2.7149897455	-4.4364452453	-0.8246272065	 0.118122
H	-4.0305632342	-3.2933886301	-0.4524995661	 0.089298
H	-0.7479385056	-2.7670790069	 0.8744340998	 0.093547
H	-2.4436189246	-2.4027440489	 1.3374505584	 0.083689
H	-0.6158815715	 0.7304680433	 2.4401564611	 0.10976
H	-2.2762395099	 0.8711776872	 3.0608720919	 0.12668
H	-1.5155294872	-0.7323162691	 2.9187792852	 0.107887
87.3042	96.7556	128.2349	180.6527	192.9078	194.3534	231.6492	277.7364	310.4718	322.8815	365.2566	393.0442	431.7983	539.6776	623.1564	735.1767	790.3924	853.467	953.9556	957.6251	982.1463	997.223	1005.5527	1026.3813	1106.1599	1115.2552	1128.034	1132.0276	1179.5241	1181.9195	1196.9626	1217.9979	1229.8762	1257.2229	1276.9186	1300.1188	1313.8682	1359.1671	1369.1136	1410.865	1450.4042	1474.4374	1482.6837	1483.7849	1492.4648	1496.3924	1499.3376	1502.9801	1504.0848	1512.8448	1523.5004	2921.5588	2964.0304	2986.205	2987.2814	3028.908	3039.2909	3040.3794	3049.1066	3052.368	3059.1456	3070.1467	3094.0833	3104.2889	3112.0394	3117.9141
CCC1(CN(C)C1)OC	CCC1(CN(C)C1)OC	
InChI=1S/C7H15NO/c1-4-7(9-3)5-8(2)6-7/h4-6H2,1-3H3	InChI=1S/C7H15NO/c1-4-7(9-3)5-8(2)6-7/h4-6H2,1-3H3
