18
gdb 125621	3.17762	1.18159	0.88298	3.4404	76.8	-0.1883	0.0306	0.2188	1300.2664	0.148083	-435.280452	-435.270729	-435.269784	-435.315257	34.698	
C	-0.0123005375	 1.4621693175	-0.0750559629	-0.505817
C	-0.0399664324	-0.0275357599	 0.0432599603	 0.320942
N	-0.1313003702	-0.8099655992	-1.0332339125	-0.295656
N	-0.1596722636	-2.0599745514	-0.5493620656	-0.257311
C	-0.0457231106	-2.1155496091	 0.8084615008	 0.349459
C	-0.0769130363	-3.4127726132	 1.5402749528	-0.201893
O	 0.5184082922	-4.4028864832	 0.7056666937	-0.421984
C	 0.0229216704	-0.8015199884	 1.2325429936	-0.004421
N	 0.0514102029	-0.3074921419	 2.5523469396	-0.615128
H	 0.904072442	 1.8897649121	 0.3526279437	 0.114485
H	-0.0569782261	 1.7493457114	-1.1276356853	 0.141776
H	-0.8583397786	 1.9264451816	 0.4457248126	 0.128187
H	-0.1119479567	-2.8483463872	-1.1713569502	 0.272855
H	 0.4641638612	-3.3104285998	 2.495871905	 0.093517
H	-1.1120190131	-3.6976072468	 1.792104617	 0.109833
H	 0.306775286	-5.2672030392	 1.0705212785	 0.292913
H	 0.4809633809	-0.9567822077	 3.2011536761	 0.235887
H	 0.5494397394	 0.5729258043	 2.610391863	 0.242356
58.8802	113.8494	132.7186	162.4251	188.9494	239.958	270.0525	306.7994	329.238	362.9709	489.188	528.9109	600.0358	674.5516	709.4391	747.22	768.5549	805.9602	991.9499	1000.4538	1024.3401	1059.6817	1065.2659	1194.2732	1214.8854	1224.3847	1244.0128	1259.3166	1321.1054	1407.736	1423.3823	1465.3189	1483.2997	1486.4715	1509.4113	1516.8042	1547.5799	1642.3865	1663.1298	2953.3247	2970.7535	3016.6139	3063.2987	3129.6653	3514.2272	3602.0108	3685.4793	3830.6575
CC1=NNC(CO)=C1N	Cc1n[nH]c(CO)c1N	
InChI=1S/C5H9N3O/c1-3-5(6)4(2-9)8-7-3/h9H,2,6H2,1H3,(H,7,8)	InChI=1S/C5H9N3O/c1-3-5(6)4(2-9)8-7-3/h9H,2,6H2,1H3,(H,7,8)
