13
gdb 129335	4.62626	1.19257	0.94815	5.6027	71.88	-0.2471	-0.0835	0.1636	1138.0952	0.090896	-445.084159	-445.076778	-445.075834	-445.117044	25.937	
N	 0.3494047991	 1.2691825246	 0.0036205017	-0.384327
C	 0.0731966459	 0.0356020797	 0.0013822778	 0.083076
N	-1.2192575156	-0.4917677779	 0.0127291959	-0.362556
C	-2.4509641202	 0.1036396942	 0.0272237085	 0.536339
N	-3.4843119186	-0.7525239601	 0.0353843271	-0.303275
C	-4.6554140314	-0.1442239584	 0.0493407747	 0.117227
N	-4.8549063012	 1.1804417948	 0.0553080487	-0.187499
N	-3.7795321454	 1.9518836536	 0.0463563407	-0.040197
N	-2.5656212151	 1.4452834928	 0.0323239977	-0.21682
H	 1.3603025366	 1.3957417926	-0.0065668383	 0.237053
H	 0.7993483311	-0.7860775903	-0.0096792478	 0.105329
H	-1.2868166024	-1.4994473859	 0.0101117729	 0.269191
H	-5.5494973927	-0.7628033998	 0.0568181605	 0.146459
46.98	122.4098	172.3578	213.3439	335.2172	361.3138	542.5391	570.4693	646.5185	697.1524	786.8731	819.6422	858.6532	875.5501	987.4189	1008.5711	1024.7208	1064.7665	1097.2936	1148.4845	1228.952	1293.3374	1356.7312	1422.7204	1456.715	1503.6204	1562.6562	1609.2634	1747.0035	3046.4858	3172.9351	3501.8042	3616.1102
N=CNC1=NC=NN=N1	N=CNc1ncnnn1	
InChI=1S/C3H4N6/c4-1-5-3-6-2-7-9-8-3/h1-2H,(H2,4,5,6,7,8)	InChI=1S/C3H4N6/c4-1-5-3-6-2-7-9-8-3/h1-2H,(H2,4,5,6,7,8)
