18
gdb 94035	4.66246	0.86038	0.78701	4.0219	79.34	-0.2442	-0.0061	0.238	1453.3135	0.14709	-401.972147	-401.963151	-401.962207	-402.00692	32.124	
C	 0.2557145219	 1.5889984032	-0.2803114422	-0.388772
C	-0.0412500559	 0.1308830317	 0.069112253	 0.1108
O	 0.4263226625	-0.7270800908	-0.9805168152	-0.277683
C	 1.2698087026	-1.7439262825	-0.4598330195	-0.157977
C	 1.4064459301	-1.4309726946	 1.0092655361	 0.307481
C	 2.2879459849	-2.2249606642	 1.9354591888	-0.446579
C	 1.9266814907	-3.6462363245	 1.9821441162	 0.264475
N	 1.6370898914	-4.7643317806	 2.0068267223	-0.305609
C	 0.6540612649	-0.3769955701	 1.3038654364	-0.222513
H	 1.3344692889	 1.7553725388	-0.3526373374	 0.118741
H	-0.2007141649	 1.8412921995	-1.2412988231	 0.1316
H	-0.1541515639	 2.2601433096	 0.4818492278	 0.113202
H	-1.133615993	 0.0081100037	 0.1654885031	 0.088645
H	 0.8260998673	-2.7385961811	-0.6260249762	 0.124428
H	 2.2394457362	-1.7325279216	-0.9829806521	 0.106298
H	 3.3372088392	-2.1596436242	 1.6162180277	 0.163113
H	 2.2393723827	-1.8179906554	 2.9503874052	 0.161895
H	 0.5317890644	 0.0777023831	 2.2794981591	 0.108454
42.5869	83.7301	94.7807	184.2289	228.85	277.1266	362.8468	383.3471	394.8938	481.5743	519.0729	686.4806	726.2388	842.5192	854.2634	882.7753	914.1794	938.3151	963.6248	1020.835	1049.1588	1074.9458	1105.4111	1136.0267	1193.4264	1211.494	1214.2353	1300.1582	1325.5951	1345.9532	1371.1217	1392.5731	1400.588	1454.1132	1485.2787	1494.6077	1523.0587	1733.4715	2363.5179	2953.0641	2973.1465	2991.1684	3022.6276	3038.114	3084.8506	3112.0529	3123.3473	3209.5462
CC1OCC(CC#N)=C1	C[C@H]1OCC(=C1)CC#N	
InChI=1S/C7H9NO/c1-6-4-7(2-3-8)5-9-6/h4,6H,2,5H2,1H3	InChI=1S/C7H9NO/c1-6-4-7(2-3-8)5-9-6/h4,6H,2,5H2,1H3/t6-/m1/s1
