19
gdb 26185	3.84934	0.95306	0.91675	2.8443	78.58	-0.1918	0.0361	0.2278	1366.0005	0.159715	-419.260632	-419.251402	-419.250458	-419.295526	34.494	
C	-0.1729558574	 1.5609420908	-0.0924533473	-0.388135
C	 0.0318684206	 0.0348777496	-0.0583909547	-0.073004
C	-1.3008628271	-0.7022211869	 0.1709598498	-0.388045
C	 0.7434000908	-0.4624157731	-1.2831441038	 0.348421
N	 1.926554225	-1.0561127425	-1.296505333	-0.393127
C	 2.1859411049	-1.3378206742	-2.60797226	 0.337031
O	 3.3307864573	-1.9539921271	-2.9801360548	-0.4403
C	 1.1670093679	-0.9222238681	-3.42220236	-0.212352
N	 0.2476129889	-0.3596256815	-2.5447135485	-0.280204
H	 0.7778453429	 2.0842076725	-0.2260888951	 0.129298
H	-0.837185052	 1.857224601	-0.9129539994	 0.102765
H	-0.6291888542	 1.9087440452	 0.8399213881	 0.116646
H	 0.704793072	-0.2039505137	 0.7710978157	 0.107109
H	-2.0128741864	-0.5024537679	-0.6385749515	 0.10281
H	-1.1497902885	-1.7838884143	 0.224358643	 0.129324
H	-1.7666233549	-0.3731477763	 1.1054243572	 0.116599
H	 3.8251066207	-2.1070757869	-2.1658355514	 0.298408
H	 1.0104739684	-0.9669156358	-4.4848119354	 0.125423
H	-0.6322227189	 0.0508892391	-2.8060946588	 0.26133
17.0653	128.9753	185.9968	229.7885	259.0898	292.0742	300.0367	375.777	392.278	405.9692	513.5038	513.7647	629.9367	647.0475	707.0904	725.1141	759.0089	886.0007	931.447	962.5194	1005.4904	1027.8305	1063.9781	1113.0239	1120.1533	1172.469	1196.1406	1293.6462	1322.935	1326.893	1342.6638	1398.7215	1416.1917	1429.722	1484.208	1484.4242	1492.4327	1502.2705	1505.8076	1565.6886	1666.5593	3026.908	3030.4538	3062.8967	3089.9129	3100.2515	3114.3766	3116.3661	3294.3647	3673.1681	3804.3933
CC(C)C1=NC(O)=CN1	CC(C)c1nc(O)c[nH]1	
InChI=1S/C6H10N2O/c1-4(2)6-7-3-5(9)8-6/h3-4,9H,1-2H3,(H,7,8)	InChI=1S/C6H10N2O/c1-4(2)6-7-3-5(9)8-6/h3-4,9H,1-2H3,(H,7,8)
