12
gdb 132204	2.05697	1.88627	0.98455	6.9174	60.5	-0.2462	-0.0277	0.2185	1063.3717	0.077645	-513.964099	-513.956829	-513.955885	-513.996023	27.096	
N	 0.1345657299	 1.3383094791	 0.1661480965	-0.572657
C	-0.0416617139	-0.0093662799	 0.0567148951	 0.463326
C	-1.1923815517	-0.7125265901	 0.0211958729	-0.345923
C	-1.1714919854	-2.1678724925	-0.0210306294	 0.396041
O	-2.1559309944	-2.8681127169	-0.048033047	-0.345248
N	 0.1367851791	-2.7609365736	-0.0365254498	-0.404331
C	 1.1280258412	-1.9952802128	-0.0104444143	 0.403647
F	 2.3619808479	-2.4322961005	-0.0281280053	-0.038914
O	 1.1738127754	-0.645468111	 0.0369159584	-0.226434
H	 1.0216988123	 1.6996206617	-0.1498188049	 0.275326
H	-0.6642258522	 1.9136891429	-0.046802168	 0.278353
H	-2.1488852884	-0.2082980565	 0.0298169058	 0.116813
126.3679	180.8729	205.2504	315.8328	354.4974	389.1407	467.853	503.9492	547.4818	624.5863	641.0766	676.6651	719.0753	766.6934	839.5441	908.7672	985.9504	1034.651	1117.0971	1214.8786	1278.5852	1333.9833	1425.6517	1625.0285	1686.8417	1766.0734	1819.2496	3228.4133	3591.2546	3706.9454
NC1=CC(=O)N=C(F)O1	Nc1cc(=O)nc(F)o1	
InChI=1S/C4H3FN2O2/c5-4-7-3(8)1-2(6)9-4/h1H,6H2	InChI=1S/C4H3FN2O2/c5-4-7-3(8)1-2(6)9-4/h1H,6H2
