17
gdb 16434	3.34169	2.2599	1.70268	1.7815	68.4	-0.2406	0.0699	0.3106	815.3242	0.141881	-363.768899	-363.761791	-363.760847	-363.799683	28.026	
C	-0.129802383	 1.5842552088	-0.0438837507	-0.430184
C	-0.0189586204	 0.0762064736	 0.0563433544	 0.002083
N	 1.1814731194	-0.5643866099	-0.6456650193	-0.167545
C	 2.0992408253	-0.2785721827	 0.5694368416	-0.079411
C	 2.569867881	-1.7357000105	 0.6163947052	-0.268458
C	 1.0739474819	-1.7935060971	 0.295310406	-0.0261
C	 0.7049770681	-0.6080164881	 1.2198438869	 0.335547
O	 0.3634058754	-0.7399318953	 2.5546204305	-0.467401
H	 0.7858900304	 2.0867566918	 0.2835965635	 0.11456
H	-0.325918201	 1.8850204101	-1.0780124892	 0.132859
H	-0.9574446812	 1.9519204255	 0.5727038101	 0.117399
H	-0.9537378716	-0.4082365859	-0.2540685067	 0.072424
H	 2.6841914569	 0.6401850992	 0.6229507054	 0.080584
H	 3.2477244845	-2.0490230892	-0.1813545725	 0.106974
H	 2.8761655405	-2.1215847021	 1.5905246759	 0.109133
H	 0.4383803019	-2.6365540002	 0.0196519222	 0.083684
H	 0.3389823318	 0.1360431623	 2.9557153465	 0.283851
196.257	212.9738	224.9937	255.2822	302.1032	367.0029	493.7151	538.8943	621.3385	738.8694	744.3079	845.3028	877.8921	886.5256	919.4719	937.0212	944.3402	1014.4394	1033.6873	1069.3052	1086.5247	1123.0583	1139.5047	1144.3025	1183.842	1196.685	1227.7126	1231.2557	1272.9543	1294.3084	1368.0318	1403.5441	1421.0591	1487.468	1493.7145	1496.2529	3027.1954	3033.762	3065.8757	3098.885	3103.4795	3107.7736	3112.5936	3133.8311	3801.1102
CC1N2C3CC2C13O	C[C@H]1N2[C@@H]3C[C@H]2[C@]13O	
InChI=1S/C6H9NO/c1-3-6(8)4-2-5(6)7(3)4/h3-5,8H,2H2,1H3	InChI=1S/C6H9NO/c1-3-6(8)4-2-5(6)7(3)4/h3-5,8H,2H2,1H3/t3-,4-,5+,6+/m1/s1
