17
gdb 71117	3.05011	2.00765	1.69963	1.0595	70.95	-0.2299	0.0098	0.2397	860.024	0.137036	-421.825404	-421.818781	-421.817837	-421.855834	28.11	
C	 0.0479558938	 1.4864886406	 0.0147423038	-0.478768
C	-0.0341143158	-0.0172928246	-0.0009004973	 0.399163
O	 0.6951500924	-0.5451791098	-1.1347083277	-0.281804
C	 1.0222905998	-1.8450884099	-0.7511117002	 0.034421
C	 1.0081360498	-1.8596491848	 0.7333224507	 0.034438
O	 0.673433545	-0.5674876848	 1.1360846181	-0.281824
C	-0.113143974	-2.615056403	-0.0271359777	-0.191626
C	-1.4251539044	-1.9614584732	-0.0332540325	-0.063379
C	-1.4109112259	-0.6224951994	-0.0200048977	-0.096685
H	 1.0926543982	 1.8015584123	 0.0262615109	 0.135417
H	-0.4420459982	 1.8925870598	-0.8736864411	 0.133973
H	-0.4562324717	 1.874699233	 0.903231248	 0.134037
H	 1.7223366604	-2.3373016432	-1.4112018289	 0.116968
H	 1.6955700858	-2.3648524028	 1.3968445271	 0.116965
H	-0.046250023	-3.6964045418	-0.0370997095	 0.091587
H	-2.335470079	-2.5511207236	-0.0477360661	 0.102005
H	-2.2938353834	 0.0043949553	-0.0222903301	 0.095113
188.8063	285.1326	289.2548	371.0322	430.5753	511.7642	558.4651	652.4036	665.9544	680.6818	755.3502	756.5821	770.7658	777.3549	820.0107	862.3091	911.634	933.2599	973.872	990.8286	997.3197	1051.564	1069.7071	1095.3413	1136.5838	1142.4947	1148.8583	1210.2623	1274.1593	1304.5401	1334.707	1373.894	1408.7538	1425.3315	1482.0989	1484.1774	1667.654	3058.5173	3134.6618	3148.1636	3175.655	3188.8274	3210.4409	3216.2743	3225.7637
CC12OC3C(O1)C3C=C2	C[C@@]12O[C@H]3[C@@H](O1)[C@H]3C=C2	
InChI=1S/C7H8O2/c1-7-3-2-4-5(8-7)6(4)9-7/h2-6H,1H3	InChI=1S/C7H8O2/c1-7-3-2-4-5(8-7)6(4)9-7/h2-6H,1H3/t4-,5+,6-,7+
