15
gdb 53875	4.43695	0.81172	0.70897	4.1272	64.04	-0.2622	-0.1066	0.1557	1508.4331	0.107983	-494.943676	-494.933887	-494.932943	-494.980117	32.301	
C	-0.2283066679	 1.3319404795	-0.2162347001	-0.476917
C	 0.0250429352	-0.1105083778	 0.1273853353	 0.309778
O	 1.1079221553	-0.5842611877	 0.3841520974	-0.271721
C	-1.2071851545	-1.042241018	 0.1364149985	 0.259741
O	-2.3034621707	-0.643895912	-0.1671385402	-0.258978
C	-0.9264352891	-2.4945219699	 0.5118485839	-0.198911
O	-2.1184317631	-3.2053066291	 0.7829085849	-0.165788
C	-2.8859891846	-3.552128126	-0.2784389881	 0.188443
O	-3.937944401	-4.095811788	-0.1511569006	-0.26562
H	 0.7108314658	 1.8849151795	-0.2068579794	 0.150506
H	-0.7078874936	 1.4046256691	-1.197622745	 0.163646
H	-0.934432626	 1.7663718496	 0.4993652937	 0.164297
H	-0.3411424222	-2.9568828147	-0.2961971671	 0.151217
H	-0.3078469849	-2.5400109819	 1.4097031584	 0.170235
H	-2.4164806388	-3.3042266027	-1.2490079018	 0.080071
48.0381	52.1508	77.6136	106.5127	167.0468	190.6774	287.874	318.0008	345.6177	367.7957	515.3372	569.1739	604.5129	669.5879	818.8106	908.1737	934.9374	1032.057	1042.0495	1058.166	1082.5099	1170.9163	1256.5431	1279.0909	1379.3038	1389.2548	1426.801	1451.2536	1457.5405	1458.8264	1803.8808	1820.1965	1880.0435	2960.6234	3018.6911	3048.3379	3108.9848	3127.304	3164.6179
CC(=O)C(=O)COC=O	CC(=O)C(=O)COC=O	
InChI=1S/C5H6O4/c1-4(7)5(8)2-9-3-6/h3H,2H2,1H3	InChI=1S/C5H6O4/c1-4(7)5(8)2-9-3-6/h3H,2H2,1H3
