23
gdb 103622	2.55049	1.15673	0.9684	1.572	81.04	-0.2514	0.0646	0.316	1329.1285	0.203672	-425.413546	-425.403055	-425.40211	-425.448246	39.796	
C	 0.5825216434	 1.6631432757	-0.1664899741	-0.423723
C	 0.1235602685	 0.2459023681	 0.1634508976	-0.083574
C	 0.7752863058	-0.8595845168	-0.7342068754	 0.159352
O	 1.2974801963	-0.517746755	-1.995511112	-0.435125
C	 1.736142831	-1.2155299392	 0.4258431751	-0.307981
C	 0.7984231355	-0.4444552058	 1.4060614081	 0.330969
C	 1.4751005565	 0.4351704623	 2.4539945325	-0.46107
C	-0.1993115228	-1.3889110508	 2.0781423483	-0.11927
O	 0.5083031346	-2.2338735676	 2.9750663512	-0.425046
H	 1.6744207175	 1.7585400835	-0.1870703481	 0.103183
H	 0.2073045094	 1.9610852122	-1.1503884068	 0.1259
H	 0.212932189	 2.3831416487	 0.569818382	 0.119194
H	-0.9726461687	 0.2260369553	 0.1811060055	 0.058946
H	 0.0683521564	-1.668993189	-0.9337356077	 0.087072
H	 1.994791183	 0.1328417146	-1.8653152994	 0.277783
H	 1.9247846484	-2.2697403184	 0.6389489133	 0.109671
H	 2.7004205262	-0.7074822897	 0.3110499076	 0.083447
H	 2.220525777	 1.0995361676	 2.0086312169	 0.10413
H	 0.7431638821	 1.0586533697	 2.9817957808	 0.105779
H	 1.9764142378	-0.1896140574	 3.1979981645	 0.135378
H	-0.9579589688	-0.790215223	 2.6100745922	 0.082343
H	-0.7285352544	-1.9847250566	 1.3179588133	 0.084884
H	-0.1218558138	-2.8278474084	 3.3924710747	 0.287759
85.1582	126.5964	178.1135	209.0463	224.1042	240.8804	250.1514	280.5037	299.3342	334.433	351.8597	366.188	423.0409	499.4315	566.8309	627.7595	742.9118	804.5657	855.6457	910.9436	931.923	961.3825	989.9227	1024.3061	1049.0141	1056.2711	1086.5688	1110.1829	1123.2252	1168.0219	1201.1714	1209.4166	1236.9094	1254.4321	1284.2329	1292.6407	1317.2954	1326.3246	1367.0779	1402.0004	1409.4062	1441.3161	1453.6755	1485.9314	1486.7558	1492.6349	1504.2695	1509.3181	1517.2592	2955.9908	2990.1093	3024.6044	3028.0887	3030.9099	3044.4816	3075.805	3090.2621	3097.7158	3108.3951	3113.3427	3120.1439	3816.8492	3834.6569
CC1C(O)CC1(C)CO	C[C@H]1[C@@H](O)C[C@]1(C)CO	
InChI=1S/C7H14O2/c1-5-6(9)3-7(5,2)4-8/h5-6,8-9H,3-4H2,1-2H3	InChI=1S/C7H14O2/c1-5-6(9)3-7(5,2)4-8/h5-6,8-9H,3-4H2,1-2H3/t5-,6-,7+/m0/s1
