17
gdb 67195	2.97018	1.48393	1.21989	2.9636	76.4	-0.2545	0.0272	0.2817	1047.8709	0.136897	-380.82296	-380.815343	-380.814399	-380.855031	29.286	
C	-0.3068728888	 1.5658184559	-0.080122356	-0.535029
C	-0.0055525735	 0.111422315	 0.0193795274	 0.362919
C	 0.6717170507	-0.8709917305	-0.8616246571	-0.082486
C	 1.461470248	-1.4870390166	 0.3060405825	-0.177788
C	 2.7594637741	-0.8546017133	 0.4829878511	 0.265222
N	 3.7908400482	-0.350765177	 0.6230159202	-0.326476
C	 0.3434732313	-0.8754101983	 1.212999808	-0.124539
C	-0.8878563319	-1.6641133302	 0.7499059882	-0.170128
N	-0.8022967795	-0.9959573229	-0.5890913961	-0.187942
H	 0.5669508822	 2.1662030958	 0.1927298732	 0.14216
H	-0.5912010268	 1.8153815415	-1.1067039802	 0.142486
H	-1.1347060894	 1.8480291552	 0.5793449246	 0.130272
H	 0.9779743995	-0.7912640545	-1.8956981067	 0.118869
H	 1.5738941026	-2.5762900042	 0.3381034055	 0.118482
H	 0.5576974525	-0.6338487146	 2.2515244401	 0.099732
H	-0.8333580044	-2.7589372426	 0.737420603	 0.104737
H	-1.8129019648	-1.3456526187	 1.2358511823	 0.119511
102.0448	160.0564	205.2599	242.693	285.3735	394.1491	466.9112	505.2718	541.7736	614.3776	742.5868	777.6705	810.6724	842.0416	904.1654	931.2601	958.2736	987.5988	1008.7359	1034.5633	1072.7786	1074.8853	1101.4224	1141.1952	1168.944	1170.8362	1207.5683	1235.6922	1251.0893	1304.606	1342.9439	1402.4659	1451.7202	1479.9221	1490.9983	1511.4499	2354.4683	3033.8373	3037.2408	3052.8667	3099.1973	3109.9765	3115.0006	3148.0907	3216.0365
CC12C3C(C#N)C1CN23	C[C@@]12[C@H]3[C@@H](C#N)[C@@H]1CN23	
InChI=1S/C7H8N2/c1-7-5-3-9(7)6(7)4(5)2-8/h4-6H,3H2,1H3	InChI=1S/C7H8N2/c1-7-5-3-9(7)6(7)4(5)2-8/h4-6H,3H2,1H3/t4-,5-,6+,7-,9?/m0/s1
