19
gdb 57309	3.21164	0.95756	0.88284	3.0981	78.13	-0.2446	-0.017	0.2276	1396.8686	0.153377	-423.013436	-423.002568	-423.001624	-423.049953	39.26	
C	 0.1223845412	 1.58572046	 0.2006937803	-0.409018
C	-0.0116054304	 0.0681716979	 0.0024539193	 0.243368
C	 0.5540112957	-0.7069965808	 1.2020348622	-0.409098
O	-1.3726580946	-0.2913780398	-0.2345533876	-0.462097
C	 0.7911054715	-0.3293601002	-1.2551940968	 0.370595
O	 1.9785128203	-0.1286938141	-1.2991746769	-0.305123
C	 0.0036321347	-0.9725796888	-2.402096567	-0.488628
C	 0.813386313	-1.3212201082	-3.5555530109	 0.313635
C	 1.4759145618	-1.6125626652	-4.5135665988	-0.414741
H	 1.1749688233	 1.8687249118	 0.2688487101	 0.146305
H	-0.3340019185	 2.1235192228	-0.6353197896	 0.125821
H	-0.3834795338	 1.8909445565	 1.1237584003	 0.106248
H	 0.0489915798	-0.3958798677	 2.1235853865	 0.106175
H	 0.3993219875	-1.7818844076	 1.0712670961	 0.125813
H	 1.6239495719	-0.5155271793	 1.30782404	 0.146377
H	-1.883453455	-0.0477779379	 0.5438871567	 0.283265
H	-0.5170879499	-1.8483918754	-1.9946201859	 0.163476
H	-0.8085669803	-0.2855992954	-2.6715054465	 0.16335
H	 2.0655590517	-1.8683504986	-5.3585193715	 0.194277
23.3617	66.0866	124.951	215.5389	224.0838	241.7822	241.8501	275.1392	291.9842	330.7185	359.94	399.2102	424.0649	490.7546	573.6677	586.296	624.293	641.2314	791.1997	841.9339	913.7623	937.4866	958.1149	989.1695	1018.8294	1064.302	1139.6039	1169.0845	1216.6125	1221.5481	1323.2637	1374.5571	1386.6219	1407.2707	1421.1013	1477.2929	1483.0101	1495.7355	1511.1708	1820.2428	2249.5749	3031.469	3035.9909	3037.9221	3060.2663	3103.1397	3106.6376	3135.0134	3139.648	3507.96	3820.2158
CC(C)(O)C(=O)CC#C	CC(C)(O)C(=O)CC#C	
InChI=1S/C7H10O2/c1-4-5-6(8)7(2,3)9/h1,9H,5H2,2-3H3	InChI=1S/C7H10O2/c1-4-5-6(8)7(2,3)9/h1,9H,5H2,2-3H3
