15
gdb 128011	2.65962	1.58466	0.99915	4.356	78.62	-0.2306	-0.0652	0.1655	1121.9409	0.110886	-450.093791	-450.08488	-450.083936	-450.127822	31.658	
C	 0.0653416263	 1.3546299908	-0.1642917743	-0.321587
N	-0.0098233798	-0.0964166566	-0.2179451312	-0.349989
C	-1.1173279131	-0.6449909172	 0.1082593164	 0.432343
O	-2.207479212	 0.0020251934	 0.4934526631	-0.34276
N	-3.5552653482	-0.8484760231	 0.8770002545	-0.029056
N	-3.4326900447	-2.0384426524	 0.7729724982	-0.026418
C	-2.3416247193	-2.7697451257	 0.3845702896	-0.121867
C	-1.1794616301	-2.1328541176	 0.0470919092	 0.270456
N	-0.0474473623	-2.722434142	-0.3477551767	-0.555521
H	 1.0595511662	 1.6752571567	-0.4837937643	 0.113383
H	-0.6824776898	 1.8259586963	-0.8156343162	 0.127793
H	-0.1155160843	 1.733219134	 0.850511369	 0.127642
H	-2.4756735816	-3.841890963	 0.3691494768	 0.12038
H	 0.0437772808	-3.7193711328	-0.4294763824	 0.270619
H	 0.7199022317	-2.0971251805	-0.5584049015	 0.284581
55.7435	108.5294	149.2915	187.0147	214.1708	288.5178	301.3476	342.4893	493.0065	524.2085	554.7741	588.8697	611.1915	647.6363	782.6246	806.6766	816.6613	868.5103	1048.4078	1057.8358	1111.6252	1168.5245	1179.0345	1254.8168	1370.7803	1437.4403	1444.9805	1485.7422	1493.9318	1563.2887	1630.7665	1692.8931	1730.2462	3005.6759	3055.1338	3109.6603	3227.0129	3543.6512	3720.7091
CN=C1ON=NC=C1N	C[N]C1=C(C=N[N]O1)N	
InChI=1S/C4H6N4O/c1-6-4-3(5)2-7-8-9-4/h2H,5H2,1H3	InChI=1S/C4H6N4O/c1-6-4-3(5)2-7-8-9-4/h2H,5H2,1H3
