15
gdb 47638	2.4224	1.71991	1.17217	6.0762	69.44	-0.2519	-0.081	0.1709	1030.5613	0.113061	-457.80537	-457.797743	-457.796798	-457.837868	28.23	
O	 0.1324501079	 0.8851515363	-1.4633003986	-0.295945
C	 0.0035042255	 1.4432611054	-0.4131771662	 0.349441
O	-1.152706194	 2.0673233826	-0.1025895051	-0.217027
C	-1.3130546516	 2.6578614164	 1.1925659253	-0.104438
C	-0.5851009995	 3.9891287871	 1.31346221	-0.266086
C	 0.9108039783	 3.8863380376	 1.3531776614	-0.042902
C	 1.6552620536	 2.8056412029	 1.0891651912	-0.142754
C	 1.1875516465	 1.4911094747	 0.5915885946	 0.221436
O	 1.7918283965	 0.4679318882	 0.8168285954	-0.29629
H	-2.3898210465	 2.8010741028	 1.298603055	 0.136306
H	-0.9844379783	 1.9606615227	 1.9731773316	 0.134184
H	-0.8962248578	 4.6505979116	 0.4925448748	 0.145694
H	-0.9216234245	 4.4849789218	 2.2339677861	 0.130147
H	 1.4255133551	 4.7844067338	 1.6884940888	 0.118845
H	 2.7277426487	 2.8332304463	 1.2614710957	 0.129387
78.9128	109.9307	244.0851	275.2815	327.2156	389.0135	400.4712	432.598	583.4702	587.4657	665.3196	726.848	793.5547	853.3622	861.6712	929.6221	998.6316	1017.7536	1076.3728	1089.1411	1109.2306	1209.1453	1234.4379	1270.8647	1323.3061	1391.4825	1401.5037	1422.3511	1448.8946	1504.7693	1691.0725	1778.0895	1849.5719	3017.4859	3035.1869	3051.5633	3119.6632	3150.4401	3178.0781
O=C1OCCC=CC1=O	O=C1OCCC=CC1=O	
InChI=1S/C6H6O3/c7-5-3-1-2-4-9-6(5)8/h1,3H,2,4H2	InChI=1S/C6H6O3/c7-5-3-1-2-4-9-6(5)8/h1,3H,2,4H2
