20
gdb 38769	3.04309	1.56824	1.16538	1.5963	84.22	-0.2392	0.016	0.2552	1083.8754	0.17453	-365.981982	-365.974761	-365.973817	-366.013237	30.17	
C	-0.0005901331	 1.5437229981	-0.0151893738	-0.306306
C	 1.3023497518	 0.7822415763	-0.0033405659	-0.00271
C	 2.1709562761	 0.7778947782	 1.2423353165	-0.247992
C	 2.688807149	-0.6138457708	 1.549972991	-0.015497
N	 2.6078049655	-1.0537144817	 2.9554145467	-0.345088
C	 1.7315531691	-1.6813611251	 1.9332095181	-0.069879
C	 0.266021802	-1.4439495445	 2.0512384896	-0.048477
C	-0.4795321551	-0.7138526674	 1.2178873783	-0.073821
C	-0.0061133733	 0.0262332487	 0.014475297	-0.05522
H	-0.2763679638	 2.063512633	 0.8971572481	 0.114019
H	-0.314406697	 2.0417965181	-0.9262322718	 0.107485
H	 1.8476325604	 0.7492281805	-0.9433124608	 0.077781
H	 3.0039130923	 1.4825363796	 1.1303520209	 0.093655
H	 1.591358673	 1.1145956099	 2.1054499765	 0.117795
H	 3.5589955696	-0.9313027413	 0.9768243445	 0.076199
H	 3.3796858379	-1.679361751	 3.1732141604	 0.226404
H	 1.9963860395	-2.6994267694	 1.6451402382	 0.086575
H	-0.219821099	-1.9369650855	 2.8920266388	 0.088367
H	-1.5505124202	-0.6523884408	 1.4115175472	 0.086641
H	-0.2996222947	-0.4356801748	-0.9270393593	 0.09007
144.2511	218.6436	292.7593	328.9731	343.0517	401.8597	431.2357	556.7927	600.2591	726.6784	765.7568	797.0381	814.9686	816.4492	839.9225	863.4499	915.6223	952.7896	988.0427	992.7937	1008.6862	1025.7094	1032.2824	1060.5071	1094.8978	1122.2365	1131.4162	1145.3132	1183.9235	1212.1188	1226.2634	1240.2698	1272.2125	1282.8517	1318.592	1375.1422	1396.361	1418.2074	1435.2235	1469.6428	1486.314	1493.7858	1715.8473	3035.9849	3088.7777	3095.4764	3107.5625	3114.623	3116.9334	3125.9734	3135.7135	3143.712	3212.481	3493.4713
C1C2CC3NC3C=CC12	C1[C@H]2C[C@H]3N[C@H]3C=C[C@@H]12	
InChI=1S/C8H11N/c1-2-7-8(9-7)4-6-3-5(1)6/h1-2,5-9H,3-4H2	InChI=1S/C8H11N/c1-2-7-8(9-7)4-6-3-5(1)6/h1-2,5-9H,3-4H2/t5-,6-,7-,8+/m0/s1
