20
gdb 99175	5.17187	0.78305	0.73227	2.3049	77.62	-0.2481	0.0659	0.314	1613.551	0.170603	-440.321694	-440.311868	-440.310924	-440.358193	34.312	
C	-0.0207762617	 1.5323461801	-0.0851074499	-0.328899
N	-0.1610547851	 0.1092981949	-0.3006634372	-0.358766
C	 0.6712303077	-0.5898172892	-1.1173305558	 0.511799
O	 1.6079697574	-0.1334910827	-1.7365995463	-0.41738
O	 0.2947936356	-1.8977131216	-1.1383952212	-0.289054
C	 1.0935746712	-2.7522164555	-1.9544855994	 0.185663
C	 2.3788346463	-3.3578963854	-1.3465647193	-0.238301
C	 1.977814798	-4.7072312296	-2.0081526711	-0.22085
C	 0.5215303029	-4.1706436839	-2.1215436193	-0.256528
H	 0.8559627037	 1.8621003431	-0.6436688429	 0.169901
H	-0.8968759509	 2.0848190393	-0.444696837	 0.124227
H	 0.126296314	 1.7641319216	 0.9759336192	 0.124164
H	-0.9092853647	-0.4002027526	 0.1378466571	 0.251448
H	 1.2951327144	-2.2542408844	-2.9049478715	 0.103201
H	 3.3302290002	-2.8978962244	-1.6168668871	 0.112529
H	 2.2965556628	-3.4067372606	-0.2568014188	 0.1055
H	 2.4433218277	-4.8370083976	-2.988580828	 0.108346
H	 2.1311513395	-5.6181879851	-1.4272632075	 0.102929
H	-0.0731253011	-4.4435213654	-1.2452417896	 0.10969
H	-0.051681728	-4.389176401	-3.0250509845	 0.100379
34.482	56.1295	80.2261	116.3641	130.02	193.6902	298.9881	346.9367	388.9098	465.8828	492.9396	662.9005	713.2303	774.6721	779.122	790.9698	911.4456	920.7591	939.7512	953.7565	973.5555	1067.9801	1092.916	1155.0412	1160.0763	1171.1896	1183.8904	1193.6632	1243.9842	1246.1587	1249.8559	1255.2965	1274.9391	1299.3469	1393.5669	1447.1805	1475.4793	1488.3416	1498.4161	1500.011	1511.3239	1567.9521	1813.4654	3023.092	3062.369	3065.8819	3069.5234	3072.1037	3091.435	3114.0419	3123.6155	3135.9131	3152.788	3660.4033
CNC(=O)OC1CCC1	CNC(=O)OC1CCC1	
InChI=1S/C6H11NO2/c1-7-6(8)9-5-3-2-4-5/h5H,2-4H2,1H3,(H,7,8)	InChI=1S/C6H11NO2/c1-7-6(8)9-5-3-2-4-5/h5H,2-4H2,1H3,(H,7,8)
