19
gdb 62088	4.16752	0.70631	0.66505	2.7049	75.21	-0.2532	0.022	0.2752	1693.5179	0.157166	-456.377903	-456.367013	-456.366069	-456.416057	36.674	
C	-0.219904974	 1.6175180983	-0.0661358691	-0.394738
C	-0.0318971688	 0.0895510313	-0.0355155598	-0.111956
C	-1.367168613	-0.6418477735	 0.0925647877	-0.074925
O	-1.9679778465	-0.2448198751	 1.3269186184	-0.19148
C	-3.2803926923	-0.5073733417	 1.4707039836	 0.12724
N	-3.8535436345	-0.2784329788	 2.5718822904	-0.441626
C	 0.6525103565	-0.3754292956	-1.3229309222	 0.411733
N	 2.0126409606	-0.4398330797	-1.2664368895	-0.526517
O	 0.025819843	-0.6449148121	-2.3315530012	-0.371644
H	 0.7439485541	 2.1334538621	-0.1011920228	 0.11447
H	-0.7938734638	 1.9109749009	-0.9507681904	 0.134571
H	-0.7580976456	 1.945940232	 0.8252987304	 0.147619
H	 0.5863440246	-0.1754474418	 0.8307500558	 0.088915
H	-2.0097383255	-0.3887598903	-0.757635702	 0.13104
H	-1.2124793161	-1.7279861008	 0.0900075363	 0.115064
H	-3.7490808272	-0.9085920239	 0.5611780845	 0.088492
H	-4.8413630051	-0.5138237788	 2.5020710754	 0.228744
H	 2.5304974157	-0.2063183094	-0.4381018796	 0.262077
H	 2.5164330278	-0.6781946331	-2.105182556	 0.262924
27.7012	40.6352	74.1455	98.1245	154.6669	161.2053	223.3721	228.6154	283.9124	326.8904	336.8749	524.0416	573.1947	590.655	666.4131	765.8202	806.4874	824.5379	911.3656	938.34	1004.8286	1046.172	1049.2404	1105.2441	1122.4264	1137.7352	1176.452	1247.6497	1274.9169	1302.075	1353.9644	1374.1933	1407.3499	1413.2973	1432.6927	1495.3157	1503.3525	1511.4313	1616.5765	1747.3371	1788.2818	3017.4194	3028.7311	3035.6677	3044.6975	3081.9589	3113.8818	3136.3651	3517.8191	3602.8944	3741.1261
CC(COC=N)C(N)=O	C[C@@H](CO[CH][NH])C(=O)N	
InChI=1S/C5H10N2O2/c1-4(5(7)8)2-9-3-6/h3-4,6H,2H2,1H3,(H2,7,8)	InChI=1S/C5H10N2O2/c1-4(5(7)8)2-9-3-6/h3-4,6H,2H2,1H3,(H2,7,8)/t4-/m0/s1
