24
gdb 122170	3.17307	0.78951	0.7086	1.3601	87.86	-0.2384	0.081	0.3195	1747.2952	0.21487	-405.526733	-405.515561	-405.514616	-405.563661	40.036	
C	 0.2708878289	 1.5246653781	 0.0904966318	-0.385719
C	-0.0087240751	 0.0372120872	-0.0431006355	-0.020653
O	 0.6984602008	-0.4559842526	-1.1607255813	-0.248792
C	 0.5085522706	-1.8396447275	-1.3760668663	-0.098512
C	 1.3149754545	-2.2567265655	-2.5870154977	 0.301238
C	 1.0664554746	-1.4107558836	-3.8209112553	-0.462886
N	 2.696953561	-2.6862494813	-2.2923796932	-0.365057
C	 1.7216830235	-3.6794947875	-2.7788970031	-0.03906
C	 1.3795119239	-4.8328128491	-1.8633654932	-0.402578
H	 1.3416099985	 1.701706594	 0.2256392021	 0.128446
H	-0.0537895855	 2.0588416396	-0.8071630136	 0.123793
H	-0.2619280191	 1.9377520674	 0.9522680653	 0.112969
H	 0.3026371991	-0.498048626	 0.8702269405	 0.086179
H	-1.0908586127	-0.1440722746	-0.1659815363	 0.081421
H	 0.8273112361	-2.4092194127	-0.4924775708	 0.091909
H	-0.5623226901	-2.0528934188	-1.547219494	 0.077608
H	 1.3316258113	-0.3677269933	-3.6292074841	 0.139889
H	 1.6552926886	-1.7752851767	-4.6689022599	 0.104135
H	 0.0094174457	-1.4357388825	-4.1100481008	 0.116513
H	 3.3221853528	-2.3985008942	-3.041231534	 0.223457
H	 1.8108703681	-3.9732127095	-3.8255587153	 0.074711
H	 1.3555222844	-4.5247474169	-0.8163995392	 0.127552
H	 0.4067575326	-5.2653030831	-2.1228430053	 0.113903
H	 2.1317354074	-5.6238503008	-1.9563472707	 0.119534
45.2189	73.6422	102.1927	139.0078	162.4929	197.4433	215.9739	243.084	248.803	295.916	371.3612	411.8038	449.0828	481.1205	536.5585	735.7358	781.4871	821.1614	874.71	906.4547	963.6702	972.8655	987.5812	1030.506	1044.8119	1053.6449	1108.5959	1137.4143	1143.2108	1148.0378	1164.0715	1191.0998	1242.5852	1269.7752	1295.5307	1325.2113	1348.089	1392.5257	1406.1559	1409.1372	1411.7977	1451.9183	1464.1033	1480.4066	1482.9723	1489.0323	1498.5027	1499.232	1505.2342	1512.22	1534.6276	2939.5083	2951.8432	2973.0953	3022.9987	3029.8506	3035.0831	3044.1361	3090.6881	3091.7597	3093.9472	3117.829	3118.5017	3121.0334	3134.5421	3494.5721
CCOCC1(C)NC1C	CCOC[C@@]1(C)N[C@H]1C	
InChI=1S/C7H15NO/c1-4-9-5-7(3)6(2)8-7/h6,8H,4-5H2,1-3H3	InChI=1S/C7H15NO/c1-4-9-5-7(3)6(2)8-7/h6,8H,4-5H2,1-3H3/t6-,7+/m0/s1
