18
gdb 32601	2.84494	1.23829	0.92036	3.1986	75.27	-0.1771	0.0443	0.2214	1272.7372	0.148741	-435.309623	-435.300472	-435.299528	-435.343631	33.995	
C	 0.0062055328	 1.5337987544	-0.146241788	-0.37307
C	-0.0452161225	 0.0158946797	 0.0518522439	-0.165607
N	 0.7124789818	-0.4424895639	 1.2018355654	-0.013921
C	 2.0881647808	-0.7115339077	 1.2396496531	-0.252547
C	 2.3122517647	-1.1653884925	 2.5075066141	 0.337639
O	 3.4891082685	-1.5704176469	 3.0382310269	-0.441778
N	 1.1652637977	-1.1687619699	 3.2564446857	-0.417842
C	 0.2278477492	-0.7262385637	 2.4372174522	 0.372965
N	-1.1333795942	-0.6355242839	 2.7410844823	-0.60049
H	 1.036757314	 1.8756372877	-0.2786211418	 0.134463
H	-0.568164164	 1.8209566664	-1.0325182411	 0.121996
H	-0.4127570278	 2.0602112666	 0.7172680472	 0.118741
H	-1.0769030211	-0.3217542277	 0.1891303261	 0.133445
H	 0.3469501589	-0.4931028332	-0.8347965606	 0.122899
H	 2.7283166003	-0.5547252172	 0.3903029224	 0.118636
H	 3.2963347964	-1.8169390654	 3.9505861667	 0.296149
H	-1.2802025456	-0.9605756279	 3.6889603821	 0.259166
H	-1.50497349	 0.3039902251	 2.6532063532	 0.249157
60.0158	98.572	202.729	226.7244	246.2751	292.8203	312.1462	335.5426	361.1622	417.2211	535.9937	608.2398	615.1926	660.7901	676.8031	722.3486	794.64	823.1078	831.5865	970.1548	1034.8478	1092.9324	1098.0009	1147.1606	1165.7245	1218.5757	1253.7026	1326.7564	1371.0013	1395.0124	1411.6667	1424.7815	1485.5908	1489.382	1505.0739	1542.3961	1569.4421	1649.4315	1673.6161	3038.9537	3049.1779	3091.1734	3112.5234	3121.76	3291.7468	3516.0631	3613.8873	3807.2172
CCN1C=C(O)N=C1N	CCn1cc(O)nc1N	
InChI=1S/C5H9N3O/c1-2-8-3-4(9)7-5(8)6/h3,9H,2H2,1H3,(H2,6,7)	InChI=1S/C5H9N3O/c1-2-8-3-4(9)7-5(8)6/h3,9H,2H2,1H3,(H2,6,7)
