14
gdb 25540	4.50341	0.88908	0.80052	3.8239	65.88	-0.2228	-0.0361	0.1868	1351.8626	0.100032	-473.884853	-473.876653	-473.875708	-473.919144	28.715	
O	-0.4692723551	 0.4742790454	 0.6295479955	-0.227541
C	 0.1556258363	 0.9173675135	-0.2958301837	 0.158626
C	 1.3410547075	 1.8702918144	-0.1385272455	-0.387016
C	 1.3008532093	 2.9889060981	-1.1138885539	 0.332944
C	 1.0133919544	 4.2944146177	-1.0117553666	-0.199411
N	 1.1128689036	 4.8257852136	-2.2972422327	-0.359664
C	 1.4592003441	 3.843135092	-3.1968517814	 0.481305
O	 1.6395234543	 3.9022015702	-4.3801867299	-0.391969
O	 1.5733881047	 2.6861126873	-2.4375520982	-0.245546
H	-0.0884060664	 0.6559103523	-1.3479734844	 0.104001
H	 1.3493110237	 2.2470925399	 0.8866376994	 0.142031
H	 2.2570684866	 1.2821313561	-0.2942344669	 0.151171
H	 0.7521917658	 4.8882593597	-0.1531073236	 0.159477
H	 0.9797308812	 5.7821311998	-2.573729248	 0.281592
43.6303	61.3771	124.9453	205.642	272.0637	344.6675	433.0508	450.4054	532.0718	621.0764	675.0168	738.0564	751.9055	772.2518	812.9342	932.9692	963.2708	1028.8059	1046.7812	1085.327	1132.5962	1197.8284	1251.0458	1315.4045	1360.138	1404.6321	1418.852	1440.6977	1716.5598	1838.6132	1905.4979	2906.3697	3015.9829	3119.0504	3290.4199	3699.0591
O=CCC1=CNC(=O)O1	O=CCc1c[nH]c(=O)o1	
InChI=1S/C5H5NO3/c7-2-1-4-3-6-5(8)9-4/h2-3H,1H2,(H,6,8)	InChI=1S/C5H5NO3/c7-2-1-4-3-6-5(8)9-4/h2-3H,1H2,(H,6,8)
