16
gdb 53104	2.21058	1.18868	0.97689	4.0275	78.75	-0.2584	0.0109	0.2692	1284.2752	0.122055	-400.721405	-400.7117	-400.710756	-400.757119	33.575	
C	-0.0379052747	 1.4459883933	 0.0674945052	-0.503038
C	-0.0231206353	-0.0082966018	 0.0187835068	 0.125488
C	-0.0173824118	-1.2118455129	-0.0592850916	 0.036451
C	-0.0357500136	-2.6429060051	-0.0711210268	-0.27427
C	-0.3931664292	-3.3490804329	 1.2172952315	 0.131165
O	-0.6558131776	-2.6335840763	 2.3626993526	-0.404488
C	-1.3896095081	-3.3909962286	 0.0598056329	-0.254377
C	-2.6041125644	-2.6390308156	 0.1503483493	 0.304345
N	-3.5868927919	-2.0340525663	 0.2306051894	-0.335271
H	 0.6629159064	 1.8300148058	 0.816381875	 0.154206
H	 0.2419416715	 1.8708743482	-0.9023367795	 0.159044
H	-1.0372065901	 1.817173968	 0.317956471	 0.166103
H	 0.6848759494	-3.1308891728	-0.7201202843	 0.129532
H	 0.1116566204	-4.2849153609	 1.4342529905	 0.128057
H	-0.6631516968	-1.6915764407	 2.1399433152	 0.297654
H	-1.4691550741	-4.3214251415	-0.4922901971	 0.139401
46.0045	65.0542	89.3259	135.7464	181.5348	248.1779	296.7929	317.0084	383.5171	406.9762	454.5255	587.4124	637.0346	664.7732	735.1213	761.5416	807.4596	947.8235	990.5311	1018.5168	1049.8723	1054.0162	1109.9035	1111.0218	1189.0742	1234.9012	1345.0013	1358.1207	1369.4262	1413.061	1444.329	1474.6092	1476.1224	2354.9769	2362.0005	3032.7337	3095.837	3099.2016	3153.624	3165.9234	3175.5442	3731.7621
CC#CC1C(O)C1C#N	CC#C[C@H]1[C@@H](O)[C@H]1C#N	
InChI=1S/C7H7NO/c1-2-3-5-6(4-8)7(5)9/h5-7,9H,1H3	InChI=1S/C7H7NO/c1-2-3-5-6(4-8)7(5)9/h5-7,9H,1H3/t5-,6+,7-/m1/s1
