17
gdb 34230	3.36425	1.59534	1.37712	1.5914	79.01	-0.2232	0.0294	0.2525	964.4287	0.13841	-380.770384	-380.763606	-380.762662	-380.801292	28.366	
C	-0.0446405252	-1.1868388735	 0.0703132997	-0.351603
C	-0.042423352	 0.0149114026	 0.0229230439	 0.10432
C	-0.0692204393	 1.4446357944	-0.0204909378	 0.267601
N	-1.0284948905	 2.2200720602	 0.8220367911	-0.370058
C	-0.6712391814	 3.358187633	-0.097269376	-0.069183
C	 0.7474075584	 3.6472972043	 0.4208973464	-0.198709
C	 1.298664594	 2.2875410409	-0.0619772892	-0.070379
N	 1.1468487668	 2.335320544	-1.544625991	-0.303536
C	-0.2918446294	 2.3319055515	-1.2779936926	-0.075852
H	-0.0383610316	-2.2479789966	 0.1095540571	 0.183064
H	-1.9599810235	 1.8800859378	 0.5785899473	 0.219828
H	-1.3898357032	 4.1682749803	-0.203086065	 0.075299
H	 1.2602619695	 4.4812774227	-0.0676506776	 0.090653
H	 0.746595807	 3.7873952603	 1.5027727448	 0.118315
H	 2.2312928614	 1.8961416279	 0.3398124685	 0.085273
H	 1.5101635437	 3.1908372204	-1.9653755433	 0.209639
H	-1.0020499746	 2.1258209697	-2.0790213164	 0.085327
145.3894	151.8818	382.9542	426.8416	499.5998	516.6761	527.0363	566.985	615.295	656.4471	700.11	729.5715	798.8951	823.6287	889.1298	910.2888	920.5801	947.3203	968.9785	988.6921	1001.5258	1035.0661	1040.6026	1072.1087	1126.8757	1140.1239	1171.1559	1217.8888	1227.5329	1254.2839	1271.3969	1287.1903	1331.5557	1340.3017	1360.0082	1481.106	2237.2629	3060.4401	3118.5239	3130.1835	3140.8361	3143.9279	3446.1925	3450.5862	3501.9737
C#CC12NC3CC1NC23	C#C[C@@]12N[C@H]3C[C@@H]1N[C@@H]23	
InChI=1S/C7H8N2/c1-2-7-5-3-4(9-7)6(7)8-5/h1,4-6,8-9H,3H2	InChI=1S/C7H8N2/c1-2-7-5-3-4(9-7)6(7)8-5/h1,4-6,8-9H,3H2/t4-,5-,6+,7+/m0/s1
