23
gdb 84878	2.06663	1.69623	1.25674	1.3956	86.6	-0.2328	0.0353	0.2681	1148.5333	0.205803	-388.315576	-388.306266	-388.305322	-388.348579	37.447	
C	-0.2096308535	 1.5301060672	-0.059327907	-0.409439
C	 0.0328961337	 0.0095371173	 0.0020017393	-0.01622
C	 0.7340417465	-0.4479492859	-1.2559318698	-0.051518
C	 1.9737685963	-0.9293467215	-1.3036454465	-0.049594
C	 2.8306695713	-1.1096611264	-0.0817420635	-0.250818
C	 2.2960753765	-0.3005540378	 1.1061755941	-0.239428
C	 0.7746094811	-0.475410582	 1.2740896746	 0.353511
C	 0.2793905567	 0.2142848967	 2.5496345488	-0.441253
O	 0.4542647968	-1.8743084298	 1.3524780859	-0.470974
H	 0.7306841275	 2.0880524497	 0.0019161835	 0.116677
H	-0.6800535798	 1.7943483584	-1.0118605175	 0.113497
H	-0.8692070314	 1.8745923868	 0.7416636855	 0.114145
H	-0.9502333782	-0.479538624	 0.0374982328	 0.088118
H	 0.1616373653	-0.3429141797	-2.1757820133	 0.077559
H	 2.3968338733	-1.2374631931	-2.2569263678	 0.079009
H	 2.8604098819	-2.1760919345	 0.1806496512	 0.108731
H	 3.8672306294	-0.8223802203	-0.2965394554	 0.094584
H	 2.8037439581	-0.5983683122	 2.0331141795	 0.077594
H	 2.518170101	 0.7636159021	 0.9602066386	 0.100435
H	 0.5375157075	 1.2766443443	 2.5753198823	 0.117202
H	-0.8061284081	 0.1147593137	 2.6461045132	 0.119534
H	 0.740043439	-0.2556802396	 3.4271224273	 0.097528
H	 0.8996440491	-2.2313435692	 2.128624914	 0.27112
106.803	193.0104	233.4822	251.1042	267.533	296.2909	305.3689	320.3083	364.4407	418.227	442.5074	501.4434	539.9433	541.1345	684.9266	720.4187	768.7182	837.5089	878.8303	922.3838	939.1405	950.0576	1003.5517	1008.9257	1036.3924	1055.0019	1069.8697	1097.9286	1126.8698	1146.8323	1168.2721	1202.5942	1239.2669	1266.609	1318.7746	1336.2044	1361.9472	1375.7054	1391.0956	1403.5142	1408.0316	1426.6075	1468.7628	1482.6854	1491.3835	1493.4113	1503.5194	1511.6052	1729.8091	3010.5047	3012.1002	3018.1748	3027.6699	3035.8174	3044.206	3062.267	3091.7013	3100.5349	3112.8189	3118.3821	3133.2672	3159.9892	3800.7416
CC1C=CCCC1(C)O	C[C@H]1C=CCC[C@]1(C)O	
InChI=1S/C8H14O/c1-7-5-3-4-6-8(7,2)9/h3,5,7,9H,4,6H2,1-2H3	InChI=1S/C8H14O/c1-7-5-3-4-6-8(7,2)9/h3,5,7,9H,4,6H2,1-2H3/t7-,8-/m0/s1
