18
gdb 14375	3.80424	2.30049	1.94116	1.8627	70.85	-0.2412	0.083	0.3242	761.1835	0.157054	-347.73977	-347.73395	-347.733005	-347.769239	25.101	
C	 0.0420256712	 1.4889802866	-0.2502147771	-0.168486
O	 1.462929175	 1.5286985403	 0.1298674435	-0.35969
C	 1.2264607395	 0.360897572	 0.9294327762	 0.466178
C	 1.8385832447	-1.0080016916	 1.2932250267	-0.313247
C	 0.4934533022	-1.0496550379	 2.1468603654	-0.025822
C	 0.734901969	 0.461970951	 2.3949327756	-0.280775
C	-0.7025534621	-0.9604909979	 1.1346784093	-0.271917
C	-0.0001432497	-0.0185154308	 0.124500827	-0.01651
H	-0.5511304816	 2.1585924644	 0.3835906174	 0.105603
H	-0.0951046675	 1.7478154536	-1.3028780034	 0.11069
H	 1.979925142	-1.7299558026	 0.4850554664	 0.096252
H	 2.7062100675	-0.9877861778	 1.9564697563	 0.10446
H	 0.4091744292	-1.7530293456	 2.9740999315	 0.072254
H	 1.551730461	 0.664671419	 3.0906060302	 0.09927
H	-0.130675057	 1.0883892853	 2.6253054822	 0.090502
H	-0.9784327685	-1.9166549795	 0.682492106	 0.098025
H	-1.5898054644	-0.5521469456	 1.62711006	 0.1062
H	 0.2985692095	-0.5738969526	-0.7689839032	 0.087013
245.3248	335.9526	392.0497	428.3264	514.9402	552.0291	610.5618	717.0678	786.0772	806.6879	850.5617	863.2833	909.9283	929.0103	941.0041	952.5181	991.0668	1014.2701	1029.1818	1071.8458	1099.8757	1117.0816	1122.3682	1152.0948	1171.7711	1189.0526	1203.4037	1228.7794	1255.7748	1264.6448	1287.2971	1308.5717	1327.7319	1393.2046	1483.6801	1494.6272	1513.2461	1525.4512	3032.1037	3054.9462	3057.9353	3059.1152	3066.2858	3102.0796	3106.461	3123.1089	3126.0144	3130.5544
C1OC23CC(C2)CC13	C1O[C@@]23C[C@@H](C2)C[C@@H]13	
InChI=1S/C7H10O/c1-5-2-7(3-5)6(1)4-8-7/h5-6H,1-4H2	InChI=1S/C7H10O/c1-5-2-7(3-5)6(1)4-8-7/h5-6H,1-4H2/t5-,6-,7-/m0/s1
