18
gdb 39774	3.01057	1.86945	1.51189	2.7341	75.12	-0.2273	0.0729	0.3003	915.0639	0.151077	-398.013719	-398.007189	-398.006244	-398.044233	27.815	
C	-0.0311924077	 1.4935335351	-0.0363696179	-0.347089
N	 1.2723581559	 0.7981938192	 0.0788783349	-0.37581
C	 0.0681493099	 0.0263097876	 0.0174099291	 0.484789
C	-0.515042334	-0.9753082889	 1.0189474718	-0.112008
N	-1.6612473029	-1.0686319518	 0.0286901571	-0.315479
C	-0.546920669	-0.9620347172	-0.9941125101	-0.126495
C	 0.2583497746	-2.2635415506	-0.7574033057	-0.059361
N	 1.5466149297	-2.0670679049	-0.0535802962	-0.320786
C	 0.2972179428	-2.2649597028	 0.7248755054	-0.046144
H	-0.3200862326	 2.0662904092	 0.8406314351	 0.117915
H	-0.3127460078	 1.945557171	-0.9849661424	 0.108824
H	 1.7842032488	 0.7684411024	-0.7979947719	 0.233476
H	-0.7550615225	-0.7271259292	 2.0519056318	 0.074458
H	-2.06727949	-2.007418964	 0.0268887184	 0.200859
H	-0.8206695877	-0.6869442125	-2.013263246	 0.069448
H	 0.0905414069	-3.1461260509	-1.3646160499	 0.092375
H	 2.0606834303	-2.9477229186	-0.0628290094	 0.227428
H	 0.1745425054	-3.1546250029	 1.3322644558	 0.093601
189.8571	243.4681	285.7617	383.0987	438.3274	510.1866	575.8103	680.1743	717.5539	774.3659	817.6358	838.021	844.085	874.4046	899.8793	904.5213	916.0185	928.7239	961.4632	984.9296	1039.2453	1050.017	1064.2238	1090.2311	1102.633	1132.3234	1146.4457	1158.813	1192.743	1216.5854	1231.4863	1242.306	1261.6173	1297.4701	1321.8393	1340.6574	1387.199	1458.3359	1534.0078	3100.6016	3112.6561	3130.3575	3169.4111	3180.2143	3184.5105	3414.1208	3467.0035	3519.7695
C1NC11C2NC1C1NC21	C1N[C@]21[C@H]1N[C@@H]2[C@H]2N[C@@H]12	
InChI=1S/C6H9N3/c1-6(7-1)4-2-3(8-2)5(6)9-4/h2-5,7-9H,1H2	InChI=1S/C6H9N3/c1-6(7-1)4-2-3(8-2)5(6)9-4/h2-5,7-9H,1H2/t2-,3+,4+,5-,6-
