12
gdb 132373	1.95086	1.9428	0.97928	2.1293	58.02	-0.3014	-0.0602	0.2412	1069.3422	0.076872	-518.132404	-518.125103	-518.124159	-518.166321	25.43	
C	-0.0090893519	 1.4787460882	 0.0179436096	-0.462174
C	 0.010741331	-0.0171964011	 0.013703266	 0.360799
N	 0.1395025909	-0.6313635144	-1.1723469148	-0.332984
C	 0.1419459347	-1.9464648103	-1.0967245639	 0.358555
F	 0.2651744929	-2.5945347745	-2.2280303914	-0.032042
N	 0.0355377481	-2.7001725538	-0.0138359878	-0.36019
C	-0.0849617171	-1.9724176212	 1.0817941579	 0.36131
F	-0.1961767806	-2.6420655688	 2.2015019623	-0.031394
N	-0.1061163542	-0.6558250767	 1.1850763447	-0.332153
H	 0.8585614733	 1.8640973987	-0.5247941821	 0.158366
H	-0.8984818713	 1.8347272695	-0.5127309948	 0.15989
H	-0.0175602257	 1.8589172443	 1.0386888445	 0.152017
12.9731	191.64	201.5932	212.9495	307.917	383.3227	571.5126	580.1329	615.129	634.4634	641.6921	769.8629	844.1805	1001.2621	1011.1081	1038.5415	1065.26	1126.1428	1256.7038	1387.2231	1426.8422	1441.6218	1474.5795	1476.133	1512.2927	1596.8096	1626.9257	3052.6734	3113.1878	3168.2075
CC1=NC(F)=NC(F)=N1	Cc1nc(F)nc(F)n1	
InChI=1S/C4H3F2N3/c1-2-7-3(5)9-4(6)8-2/h1H3	InChI=1S/C4H3F2N3/c1-2-7-3(5)9-4(6)8-2/h1H3
