17
gdb 105302	2.7556	1.02239	0.91126	2.0922	72.27	-0.2659	-0.0575	0.2084	1305.3779	0.133513	-458.964651	-458.955479	-458.954535	-458.999043	32.851	
O	 0.0717654327	 1.4148046543	-0.3388707037	-0.419585
C	 0.0771387661	 0.0799622459	 0.1165369288	-0.153029
C	-1.3242009782	-0.5207504334	 0.1114143155	 0.194865
C	-1.8941801046	-1.1652106396	-1.1262221921	-0.329823
C	-1.5707192681	-2.0467510609	 0.0491748229	-0.154928
C	-0.4265272657	-2.9936664172	-0.019280301	 0.161437
O	-0.3869581065	-4.0329251804	 0.5886753861	-0.254805
C	-2.3059247684	 0.2000263001	 0.9656857574	 0.134408
O	-2.0586775377	 1.2205594508	 1.565197203	-0.278997
H	-0.4300023819	 1.9155637147	 0.317049807	 0.300328
H	 0.7352414165	-0.4756078214	-0.5569192301	 0.110164
H	 0.4956309827	-0.0024691631	 1.1306110438	 0.110914
H	-2.9412340546	-1.0158403832	-1.3668720414	 0.140218
H	-1.2345481017	-1.2022746627	-1.987220012	 0.147307
H	-2.3963080748	-2.4204593346	 0.6474861212	 0.118519
H	 0.3996688624	-2.6922729702	-0.7000847089	 0.082661
H	-3.3166181482	-0.2637295991	 1.0179240433	 0.090344
73.1572	104.6819	121.0529	184.0794	227.8483	246.3039	311.4373	350.8227	383.2938	435.1668	514.3582	546.6791	571.1035	806.479	838.7341	870.6598	927.6861	936.327	999.5781	1043.6092	1048.2643	1080.1943	1086.8261	1091.6558	1181.4536	1194.1096	1275.6176	1325.0244	1364.6831	1387.2557	1432.2935	1434.8666	1459.5475	1477.4168	1499.3426	1799.3725	1820.4893	2883.1411	2888.0682	2998.7033	3090.9248	3133.6155	3163.5316	3220.8727	3775.2902
OCC1(CC1C=O)C=O	OC[C@]1(C[C@H]1C=O)C=O	
InChI=1S/C6H8O3/c7-2-5-1-6(5,3-8)4-9/h2-3,5,9H,1,4H2	InChI=1S/C6H8O3/c7-2-5-1-6(5,3-8)4-9/h2-3,5,9H,1,4H2/t5-,6-/m0/s1
