16
gdb 26039	3.24414	1.14025	1.05781	0.5379	77.33	-0.2226	0.0085	0.231	1187.4636	0.124514	-400.727347	-400.71891	-400.717966	-400.760918	31.381	
N	-0.1469342402	 1.4222556403	 0.127993904	-0.503272
C	 0.0292450105	-0.0379368755	-0.0105541771	-0.279997
C	 0.7844908756	-0.4299989771	-1.2142659517	 0.331056
C	 1.3893572987	-0.7071301207	-2.2159730781	-0.479127
C	 0.6518873794	-0.5953147889	 1.2329093727	 0.431956
C	 0.2362884	-1.4897757643	 2.1671750203	-0.287109
C	 1.2953046956	-1.5917352994	 3.1287146534	-0.168538
C	 2.2701390581	-0.7495797458	 2.7021840855	-0.017191
O	 1.8966344616	-0.1358599685	 1.5468457168	-0.186422
H	 0.7704334997	 1.839396467	 0.2646927501	 0.241157
H	-0.4909612587	 1.7913995759	-0.7550118531	 0.233968
H	-0.9716159369	-0.481622099	-0.0754161611	 0.125316
H	 1.929758988	-0.9612902982	-3.0941352315	 0.198395
H	-0.707780387	-2.0115604131	 2.1738189428	 0.112419
H	 1.3200695745	-2.2077588087	 4.0136473407	 0.11337
H	 3.2420430811	-0.4798058039	 3.0806870263	 0.134017
53.0035	98.6213	169.6034	202.6753	257.2064	321.1735	396.5019	450.5854	568.6668	613.9906	637.8967	644.5836	707.9973	746.8736	753.6933	811.9506	852.6587	866.8163	903.2255	945.3539	994.1583	1034.0207	1077.9549	1102.3366	1169.8338	1188.8905	1238.3133	1266.2649	1319.8	1385.8078	1418.3159	1539.3527	1640.8368	1658.4285	2225.9338	3040.5458	3253.1077	3264.2953	3287.7594	3481.9787	3503.2817	3560.9236
NC(C#C)C1=CC=CO1	N[C@@H](C#C)c1ccco1	
InChI=1S/C7H7NO/c1-2-6(8)7-4-3-5-9-7/h1,3-6H,8H2	InChI=1S/C7H7NO/c1-2-6(8)7-4-3-5-9-7/h1,3-6H,8H2/t6-/m0/s1
