17
gdb 131196	3.15063	1.56313	1.07102	4.1408	75.18	-0.2025	0.0309	0.2334	1085.0733	0.139448	-418.032339	-418.024824	-418.02388	-418.064364	28.567	
O	 0.1025385049	 1.3859805535	 0.1851189983	-0.443057
C	 0.0854381283	 0.031235467	 0.0180796562	 0.079635
C	 0.1010940891	-0.7357738287	-1.1330708771	 0.274958
C	 0.0709027656	-0.6942233898	-2.6298063997	-0.375301
C	 0.3941161475	-2.1784279699	-2.9962998016	-0.211072
C	-0.0052244164	-3.0188266617	-1.7571084744	-0.164151
N	 0.0843756843	-2.0267636364	-0.7028506093	 0.058722
N	 0.0456307826	-2.1685590556	 0.6216350099	-0.300893
C	 0.0555107956	-0.9071871943	 1.0747863302	-0.055483
H	 0.1197564246	 1.8077767563	-0.6786190583	 0.296257
H	-0.9176274986	-0.4006233011	-3.0067839514	 0.120563
H	 0.7982891278	-0.0055227353	-3.0710815712	 0.115789
H	-0.121626081	-2.5077216684	-3.9002084886	 0.113409
H	 1.4686738181	-2.2804999614	-3.1700102979	 0.123978
H	-1.0270686202	-3.4115631647	-1.830942914	 0.122059
H	 0.6699965899	-3.8562925588	-1.56643437	 0.13165
H	 0.0500363279	-0.7038285009	 2.1350058189	 0.112937
126.7846	169.3943	185.8155	223.7878	265.2722	356.3251	522.975	578.5222	623.6466	647.3255	673.0061	734.068	805.6914	850.1951	862.5636	898.7337	919.8475	1001.9561	1058.903	1093.9784	1123.8809	1181.961	1196.5544	1226.3886	1233.1663	1253.6426	1314.1386	1329.4908	1335.8524	1374.6881	1406.9704	1450.7438	1489.2706	1502.9428	1521.4171	1536.3196	1640.8685	3017.1196	3026.872	3061.8222	3073.8538	3098.5344	3122.8698	3251.4678	3841.0343
OC1=C2CCCN2N=C1	Oc1c2CCCn2nc1	
InChI=1S/C6H8N2O/c9-6-4-7-8-3-1-2-5(6)8/h4,9H,1-3H2	InChI=1S/C6H8N2O/c9-6-4-7-8-3-1-2-5(6)8/h4,9H,1-3H2
