15
gdb 18507	5.76757	1.25511	1.17592	2.5854	62.85	-0.249	0.0266	0.2756	1003.4631	0.119191	-399.781271	-399.77414	-399.773195	-399.813481	25.976	
O	-0.1595907114	 0.0031179651	 0.2620781842	-0.324983
C	-0.0334666173	 1.198438732	 0.0997543079	 0.153388
N	 1.1456577162	 1.840091695	-0.1225330344	-0.275978
C	 2.4172592755	 1.1707287844	-0.1807300487	 0.022002
C	 3.2696865612	 1.2863605653	-1.5072973931	-0.276484
C	 4.3490297422	 1.9932380238	-0.6842635464	 0.034246
O	 3.7317691686	 3.148609439	-0.095039277	-0.257353
C	 3.5654289209	 1.8802754957	 0.5561548166	 0.005272
H	-0.886758974	 1.9047723986	 0.1165554824	 0.076768
H	 1.1505019627	 2.8421920751	-0.2385759627	 0.256555
H	 2.2618096347	 0.1359344587	 0.1227873089	 0.128098
H	 3.5698753974	 0.3076597557	-1.8879315832	 0.120493
H	 2.8330740107	 1.8803852765	-2.3131961169	 0.112719
H	 5.4211562304	 2.0277352644	-0.8315288354	 0.114354
H	 3.8628713123	 1.8133936808	 1.5962223978	 0.110903
47.5165	122.2191	218.4736	229.381	380.7543	425.3268	582.6768	596.1392	697.7496	770.2203	839.07	854.2852	889.2947	911.0286	946.4222	1004.2424	1021.6517	1037.2753	1048.8453	1097.5214	1150.836	1202.5335	1227.0401	1239.4263	1242.6915	1284.1725	1340.6988	1384.72	1430.1474	1471.9499	1524.653	1803.1808	2939.9252	3071.4504	3127.827	3139.2734	3186.4364	3206.5897	3625.2251
O=CNC1CC2OC12	O=CN[C@H]1C[C@H]2O[C@@H]12	
InChI=1S/C5H7NO2/c7-2-6-3-1-4-5(3)8-4/h2-5H,1H2,(H,6,7)	InChI=1S/C5H7NO2/c7-2-6-3-1-4-5(3)8-4/h2-5H,1H2,(H,6,7)/t3-,4+,5-/m0/s1
