25
gdb 53644	3.71384	0.58305	0.57303	0.1612	98.93	-0.2385	0.0635	0.302	2132.7322	0.225198	-352.350493	-352.338386	-352.337442	-352.389551	43.204	
C	-0.0883853327	 1.5460257211	 0.0073850411	-0.496998
C	-0.014494695	 0.0917572013	-0.0181149549	 0.110181
C	 0.0583566895	-1.1101641293	-0.0399595995	 0.027484
C	 0.1107546262	-2.568653416	-0.0640669974	-0.383259
C	-1.293105115	-3.2069518133	 0.0207386725	-0.171734
C	-1.348462581	-4.7545098933	 0.0026255825	 0.267055
C	-0.5913737106	-5.3486419044	 1.2052161344	-0.402503
C	-2.8299211205	-5.1673327977	 0.0957219719	-0.407952
C	-0.759047304	-5.3132554779	-1.3061114733	-0.402503
H	 0.4714324483	 1.9604470513	 0.8534465934	 0.14415
H	 0.325919272	 1.9839974892	-0.9077603978	 0.144127
H	-1.1243392709	 1.8918834496	 0.0976138174	 0.144251
H	 0.6165491397	-2.8964529259	-0.9806815199	 0.124827
H	 0.7333938771	-2.9211532597	 0.7675144947	 0.124826
H	-1.7769132965	-2.8466109641	 0.9367375039	 0.09891
H	-1.8937735397	-2.8219523672	-0.8122929666	 0.098913
H	-0.9741371445	-4.9488610721	 2.1509711366	 0.109031
H	-0.7068162696	-6.4376965737	 1.23389871	 0.108041
H	 0.4816311472	-5.1372214874	 1.160999532	 0.111381
H	-3.4057106446	-4.7694789238	-0.7472105285	 0.108435
H	-2.934905786	-6.257805092	 0.0873795789	 0.106447
H	-3.2878239794	-4.7943369688	 1.0185197368	 0.108434
H	 0.3107135882	-5.1011702998	-1.398979716	 0.111382
H	-0.8793389278	-6.4012885617	-1.3497430171	 0.108041
H	-1.2633533005	-4.8878031344	-2.181012065	 0.109031
16.8323	41.5359	77.9543	98.7883	206.2766	210.4901	223.1127	258.0956	270.8192	277.1561	331.5131	333.2076	385.3264	394.2426	415.5554	469.0688	510.0595	734.723	762.5876	789.9691	915.9976	931.2996	940.0836	958.1643	970.566	1012.5633	1052.9705	1053.321	1065.7147	1080.5397	1168.709	1175.7533	1219.6229	1270.196	1273.598	1307.8727	1338.75	1382.5388	1399.4764	1400.252	1415.7358	1432.1895	1471.749	1479.8686	1480.0556	1480.9313	1485.5803	1486.4616	1491.2169	1508.0626	1509.5573	1518.529	2372.8952	3017.9903	3020.7166	3023.3455	3023.4016	3028.124	3032.5744	3045.7679	3070.4607	3082.3913	3082.4145	3088.8459	3088.9295	3093.0718	3096.0349	3097.2626	3100.93
CC#CCCC(C)(C)C	CC#CCCC(C)(C)C	
InChI=1S/C9H16/c1-5-6-7-8-9(2,3)4/h7-8H2,1-4H3	InChI=1S/C9H16/c1-5-6-7-8-9(2,3)4/h7-8H2,1-4H3
