19
gdb 70886	2.46772	1.58243	1.39858	2.1639	75.59	-0.2243	0.0644	0.2887	1037.8448	0.15777	-422.96793	-422.959302	-422.958358	-423.00032	34.16	
C	-0.0017211221	 1.5786960039	 0.0264653925	-0.501724
C	-0.0345805804	 0.073916937	 0.0091474615	 0.242873
C	 0.4020016215	-0.7462130499	-1.2438663548	-0.271012
C	-0.5517326136	-1.829971028	-0.7578406676	-0.229308
C	-0.4822637325	-1.8209435007	 0.8090652089	 0.35187
O	-0.9206879519	-2.8972721216	 1.5485123581	-0.466986
C	 0.5364911155	-0.7584707535	 1.2033800808	-0.336501
C	-1.3481225548	-0.8487796186	 0.0823547531	 0.286819
O	-2.6799823361	-0.574390825	 0.2326518111	-0.446725
H	 1.0299666011	 1.9498060415	-0.0027559082	 0.118817
H	-0.5283199248	 2.0000536732	-0.8374593287	 0.109945
H	-0.4733190186	 1.9767228353	 0.9312375789	 0.124254
H	 0.0608889099	-0.2825212827	-2.1758938707	 0.088614
H	 1.4689541864	-0.9846385093	-1.3278311381	 0.085624
H	-0.9112331259	-2.7213963833	-1.2574600414	 0.084423
H	-0.2920951762	-3.6193847367	 1.4385584196	 0.284494
H	 1.6057696372	-1.0020445068	 1.1726474908	 0.080329
H	 0.2828158539	-0.3089178073	 2.1679603776	 0.103716
H	-3.0412077587	-0.3163874275	-0.6228377633	 0.290479
178.7099	183.574	194.1669	211.4317	285.4149	303.2978	335.2244	374.0277	400.3577	470.1446	544.0469	571.2294	614.8291	687.8349	731.5172	777.3552	844.1614	896.7829	928.3021	955.2444	978.903	995.8061	1028.9596	1094.2803	1106.2899	1132.599	1161.9852	1189.0487	1207.0528	1230.2598	1241.1326	1284.1837	1306.2529	1339.739	1363.9245	1413.4286	1481.6133	1489.6618	1491.5274	1501.6636	1544.4542	3019.5816	3019.9137	3028.2966	3074.7188	3082.1348	3092.3285	3095.7294	3191.9043	3788.0729	3789.7608
CC12CC3C(O)(C1)C23O	C[C@@]12C[C@H]3[C@@](O)(C1)[C@@]23O	
InChI=1S/C7H10O2/c1-5-2-4-6(8,3-5)7(4,5)9/h4,8-9H,2-3H2,1H3	InChI=1S/C7H10O2/c1-5-2-4-6(8,3-5)7(4,5)9/h4,8-9H,2-3H2,1H3/t4-,5+,6-,7-/m0/s1
