19
gdb 71897	2.3683	1.85389	1.62496	2.2217	74.68	-0.2378	0.063	0.3007	956.7257	0.158651	-422.983732	-422.975742	-422.974798	-423.015581	31.963	
C	 0.0524239039	 1.5232855938	 0.0963019115	-0.483689
C	-0.0604955117	 0.0310625446	-0.0358643906	 0.402601
C	 0.4415593665	-0.7095244378	-1.3054015431	-0.265603
C	-0.6676068192	-1.781923209	-1.1231674895	-0.137
C	-0.3594239142	-2.7510456015	 0.0491064318	-0.236295
C	-0.6938580837	-1.6364931216	 1.0675193416	 0.02654
O	 0.3750814778	-0.6709214927	 1.1618677994	-0.339658
C	-1.3701693366	-0.8095148631	-0.0799059398	 0.30453
O	-2.6133975992	-0.2222026587	-0.1373297527	-0.474225
H	 1.1033021695	 1.8116385869	 0.2124857923	 0.125857
H	-0.3452874411	 2.023153005	-0.7917322541	 0.120959
H	-0.4985476472	 1.8755534276	 0.9725969552	 0.130022
H	 0.2605996667	-0.1060605674	-2.2008155357	 0.100584
H	 1.4827562315	-1.0426286851	-1.2936454	 0.099569
H	-1.1437656395	-2.1838413949	-2.0176955572	 0.066866
H	-1.104142771	-3.5534033198	 0.0997418272	 0.092931
H	 0.6431059014	-3.1821553575	 0.1095032065	 0.102773
H	-1.1094669883	-1.8912645904	 2.0449212178	 0.075809
H	-3.2835541355	-0.9085322682	-0.2290759304	 0.287429
167.9805	183.4773	206.6843	252.9317	263.1976	355.4961	392.2878	440.1442	455.7864	556.5072	629.1057	688.2849	755.0244	828.9792	849.5865	882.3544	906.9996	921.4455	939.0561	972.202	1015.459	1025.8129	1040.384	1093.7091	1109.3733	1150.1035	1166.8159	1186.9812	1207.8723	1224.15	1255.0798	1280.2862	1298.6962	1316.6858	1339.4714	1407.0171	1417.1823	1462.4169	1475.1021	1480.2535	1488.8567	3035.4919	3040.0348	3046.5138	3086.0745	3103.1863	3103.8729	3105.5229	3109.706	3121.1204	3798.7765
CC12CC3CC(O1)C23O	C[C@@]12C[C@H]3C[C@@H](O1)[C@@]23O	
InChI=1S/C7H10O2/c1-6-3-4-2-5(9-6)7(4,6)8/h4-5,8H,2-3H2,1H3	InChI=1S/C7H10O2/c1-6-3-4-2-5(9-6)7(4,6)8/h4-5,8H,2-3H2,1H3/t4-,5-,6+,7-/m1/s1
