20
gdb 106727	2.50502	1.51086	1.11407	2.1133	79.52	-0.2293	0.0053	0.2346	1147.3315	0.171347	-403.136353	-403.1276	-403.126656	-403.169694	33.893	
C	 0.069835202	 1.5204609304	-0.1015976875	-0.47971
C	-0.0103082201	 0.0330077557	 0.1297861143	 0.253923
N	 1.2625942212	-0.7332050255	 0.0455666195	-0.417993
C	 0.5079624366	-0.7330417656	 1.3161088914	 0.254722
C	 1.2863572859	-0.1555172591	 2.4728500621	-0.13434
O	 2.365431833	-1.0057814008	 2.8326123662	-0.423127
C	-0.440385957	-1.9098962603	 1.562442144	-0.335733
C	-1.4363222814	-1.8106578523	 0.4288478898	-0.094355
C	-1.2176900185	-0.7320868011	-0.3270555056	-0.133118
H	 1.0037426654	 1.9297365732	 0.2884607	 0.131909
H	 0.0353303783	 1.7415174927	-1.174622341	 0.120816
H	-0.7686785314	 2.0398924274	 0.3744388719	 0.120186
H	 1.1060425833	-1.5996280912	-0.4662276717	 0.222544
H	 1.6450595727	 0.8522112368	 2.2204558156	 0.088355
H	 0.6511444423	-0.0727686464	 3.3613127622	 0.102529
H	 2.8881543468	-1.112388114	 2.0285224049	 0.288841
H	 0.0880124153	-2.8714658118	 1.5838879053	 0.119555
H	-0.9338268161	-1.813973533	 2.5391932928	 0.115293
H	-2.2081982572	-2.5529143802	 0.2602401529	 0.100277
H	-1.8021394613	-0.4287348548	-1.1886983769	 0.099426
59.9517	148.1987	183.1152	219.2918	272.9569	298.1887	344.8043	430.728	454.3761	471.3956	516.8453	600.5666	719.4737	728.6243	757.7831	800.5958	879.3877	906.2914	953.3123	955.0466	958.8299	993.2702	1046.8034	1072.6542	1080.1617	1095.9399	1139.3693	1151.3029	1159.7795	1229.6032	1264.9347	1285.4365	1327.782	1372.1754	1381.8493	1408.6865	1429.7121	1439.3454	1470.9852	1487.3412	1492.7973	1501.8405	1665.5462	3004.5247	3019.3709	3033.2292	3050.1253	3072.8496	3091.6615	3129.4322	3184.4704	3209.2292	3475.2698	3785.4837
CC12NC1(CO)CC=C2	C[C@@]12N[C@]1(CO)CC=C2	
InChI=1S/C7H11NO/c1-6-3-2-4-7(6,5-9)8-6/h2-3,8-9H,4-5H2,1H3	InChI=1S/C7H11NO/c1-6-3-2-4-7(6,5-9)8-6/h2-3,8-9H,4-5H2,1H3/t6-,7-/m0/s1
