16
gdb 113651	3.2859	1.02313	0.82233	2.0251	68.44	-0.259	-0.0886	0.1704	1340.177	0.12192	-475.012233	-475.002899	-475.001954	-475.047494	32.014	
O	-0.1586595973	 1.4000122553	 0.1656499255	-0.414471
C	-0.0196840711	 0.0503506215	-0.2296319473	-0.068274
C	-1.2300751909	-0.7604004492	 0.1648517504	-0.038661
C	-1.1768175437	-2.2334963541	 0.4696487046	-0.247861
N	-1.2564005464	-1.2532545616	 1.5278448614	-0.074577
C	-2.2208180109	-1.0310196121	 2.472389083	 0.271394
O	-2.7117501774	 0.0536170687	 2.713068053	-0.330332
C	-2.6112739705	-2.242538457	 3.3268835625	 0.099683
O	-2.2813066884	-3.3747276671	 3.096686537	-0.227663
H	-0.4066684036	 1.4072333863	 1.0978459399	 0.294942
H	 0.0885188527	 0.0568632409	-1.3194707533	 0.118372
H	 0.8816276009	-0.417127557	 0.1974026386	 0.094909
H	-2.1771769843	-0.3685005157	-0.2035758784	 0.122748
H	-2.0592040975	-2.8309519791	 0.2615074261	 0.144602
H	-0.2334865806	-2.7676449191	 0.3967214342	 0.137928
H	-3.2676885709	-1.9528317907	 4.1725261626	 0.117261
56.1231	75.9204	121.0392	137.5603	143.4588	213.4436	320.111	355.5335	404.7441	465.9848	501.649	594.6284	682.7655	697.3539	826.3672	931.5392	981.8916	1027.4728	1044.1534	1079.5524	1089.6161	1137.1098	1145.1506	1155.0784	1219.7916	1237.4271	1348.9728	1369.6607	1392.1626	1426.5671	1468.7371	1498.1201	1516.9235	1768.8235	1828.4772	2942.1659	2983.3115	3075.3364	3118.0377	3132.7912	3208.2258	3792.766
OCC1CN1C(=O)C=O	OC[C@H]1CN1C(=O)C=O	
InChI=1S/C5H7NO3/c7-2-4-1-6(4)5(9)3-8/h3-4,7H,1-2H2	InChI=1S/C5H7NO3/c7-2-4-1-6(4)5(9)3-8/h3-4,7H,1-2H2/t4-,6?/m1/s1
