21
gdb 26356	2.46537	1.44139	0.99879	1.6482	86.9	-0.1765	0.0549	0.2314	1252.1583	0.182665	-383.294797	-383.285116	-383.284172	-383.32896	36.319	
C	 0.3173824779	 1.0458220461	-0.5322456273	-0.331281
N	 0.0169085035	-0.1712536284	 0.213742363	-0.146269
C	 0.4798186823	-0.0910237222	 1.5868998364	-0.320591
C	-1.3064519978	-0.6466448959	 0.0641509022	 0.199417
C	-2.2778443448	-0.745886374	 1.0422550822	-0.173966
N	-3.3886422265	-1.3188030578	 0.4688800899	-0.255417
C	-3.1421438415	-1.5816497235	-0.8522271606	-0.157178
C	-1.8584445971	-1.1830355031	-1.1485085088	 0.202275
C	-1.1588003016	-1.3349419751	-2.4646422818	-0.512709
H	 1.396762601	 1.23102439	-0.5087143833	 0.110661
H	 0.014849305	 0.9365563709	-1.5748015787	 0.126242
H	-0.1936774692	 1.9347531718	-0.1196403529	 0.094247
H	-0.0254963432	 0.6985494953	 2.1753889285	 0.090517
H	 0.3150137944	-1.0488621778	 2.0875607671	 0.122441
H	 1.5526275001	 0.1278558402	 1.5965298144	 0.112472
H	-2.2659713562	-0.4740076201	 2.0840822451	 0.110891
H	-4.2347514314	-1.549110582	 0.957050986	 0.256825
H	-3.8882845854	-2.0455454413	-1.478293193	 0.110665
H	-1.1276215108	-0.4021496695	-3.0431269288	 0.118473
H	-0.1210486452	-1.653854213	-2.3176713802	 0.12947
H	-1.6569116637	-2.0823760106	-3.0896972794	 0.112815
63.9236	151.295	163.5824	193.0139	226.5926	250.1043	276.2714	299.9111	374.5295	382.071	433.0575	499.2087	592.7387	632.2719	646.5154	697.8835	733.8681	750.599	901.5205	957.7576	1001.2157	1064.0494	1071.0845	1088.5615	1114.56	1121.6909	1181.2055	1188.6225	1216.5594	1267.0707	1291.9942	1365.5336	1391.9353	1415.2076	1440.236	1465.9027	1476.4019	1477.9824	1485.0938	1492.0145	1497.5149	1505.9387	1516.0191	1568.6158	1621.7578	2921.1256	2941.5476	3012.1297	3057.4227	3062.7351	3065.6574	3101.0761	3111.097	3132.2296	3253.0875	3272.9179	3696.0653
CN(C)C1=CNC=C1C	CN(C)c1c[nH]cc1C	
InChI=1S/C7H12N2/c1-6-4-8-5-7(6)9(2)3/h4-5,8H,1-3H3	InChI=1S/C7H12N2/c1-6-4-8-5-7(6)9(2)3/h4-5,8H,1-3H3
