16
gdb 66696	3.18115	1.72854	1.45808	4.568	71.16	-0.2348	-0.0131	0.2217	924.2936	0.124923	-400.712753	-400.705944	-400.705	-400.743787	27.339	
C	 0.0014529534	 1.5242099051	-0.0303386591	-0.516516
C	-0.0221926118	 0.0292754334	 0.0247139976	 0.332319
C	 0.3635540147	-1.0192343538	-0.9806410321	-0.150574
C	 0.9708498507	-1.8915408195	 0.1670780866	-0.064689
C	 0.5889436328	-0.8725918195	 1.1611182245	-0.125847
N	-0.1264308384	-2.1740842489	 1.127939706	-0.180672
C	-1.3848926207	-1.9517235494	 0.4293987286	 0.451535
O	-2.4021831419	-2.5344505018	 0.6578067333	-0.3178
C	-1.09198213	-0.8748244975	-0.5663315712	-0.261079
H	 1.0182586698	 1.9067569476	 0.1135509577	 0.129364
H	-0.3566364491	 1.8876393085	-0.9983471824	 0.129899
H	-0.6340094703	 1.960924706	 0.7484663744	 0.132985
H	 0.7158181955	-0.9225547908	-1.9973902372	 0.105961
H	 1.8008818879	-2.5826570765	 0.1113699457	 0.111518
H	 1.0385876994	-0.5491307671	 2.0910947141	 0.108254
H	-1.8465732619	-0.5004286458	-1.2430428865	 0.115343
132.6123	198.4081	251.4176	271.9731	464.0223	527.0027	565.8182	629.5503	719.2613	766.2766	773.5987	793.3129	830.554	848.2374	883.3925	894.9665	908.5344	934.4792	952.9334	1002.6379	1025.0302	1045.4559	1089.4167	1111.9786	1170.5151	1175.417	1235.9382	1249.8165	1253.3324	1318.0612	1414.0111	1443.2278	1484.1751	1497.4761	1891.8979	3026.899	3086.5743	3104.7881	3196.5255	3211.2963	3222.5969	3231.4994
CC12C3C4C1N4C(=O)C23	C[C@@]12[C@H]3[C@H]4[C@@H]1N4C(=O)[C@@H]23	
InChI=1S/C7H7NO/c1-7-2-3(7)6(9)8-4(2)5(7)8/h2-5H,1H3	InChI=1S/C7H7NO/c1-7-2-3(7)6(9)8-4(2)5(7)8/h2-5H,1H3/t2-,3+,4+,5+,7+,8?/m1/s1
