20
gdb 31482	3.11482	1.04725	0.82084	1.0243	85.58	-0.1905	0.0356	0.2261	1436.3584	0.170369	-403.196236	-403.186111	-403.185167	-403.232371	36.044	
C	 0.6601566824	 1.2425267404	 0.1521660254	-0.507839
C	 0.1982152223	-0.1562279385	-0.0963950935	 0.210832
C	-0.2705575437	-0.7811075285	-1.2379437972	 0.2171
C	-0.4665143657	-0.171287288	-2.5942719717	-0.505387
C	-0.5432809924	-2.1389828579	-0.8864135625	-0.334499
C	-0.2485178815	-2.306194217	 0.4464639004	 0.272018
C	-0.3468825706	-3.4850043552	 1.3543240805	-0.182125
O	 0.841016801	-3.6874122827	 2.1237131641	-0.420041
N	 0.193234322	-1.090736339	 0.914984938	-0.33517
H	 1.6880130296	 1.2745300541	 0.5358723001	 0.123437
H	 0.6399296741	 1.8225985241	-0.7726318528	 0.136099
H	 0.025865368	 1.764766632	 0.8798838762	 0.127142
H	-0.0954384561	 0.8566795017	-2.6367894061	 0.115255
H	 0.059299587	-0.739268332	-3.3708001166	 0.121322
H	-1.5249774446	-0.1456255955	-2.8813463477	 0.122774
H	-0.9267661421	-2.9053689346	-1.5449300029	 0.085235
H	-1.1366862762	-3.3538847392	 2.1048032161	 0.114667
H	-0.609589776	-4.3723973091	 0.7609484761	 0.101778
H	 1.5688258388	-3.7709845103	 1.49764658	 0.280551
H	 0.5544614037	-0.9510787148	 1.8436310239	 0.256851
42.3788	55.352	93.3309	121.2762	210.7668	230.7014	271.2146	290.2223	369.2239	386.0464	474.7107	504.0541	610.49	628.6754	657.28	695.3379	783.2932	804.8661	963.1466	987.5986	992.2805	1028.7456	1045.7964	1054.6664	1064.8412	1160.2339	1171.7847	1201.0699	1245.6475	1321.6054	1352.3109	1405.8966	1415.7935	1426.9134	1446.2605	1476.1597	1479.4032	1484.3217	1498.0693	1500.3506	1503.7572	1555.0222	1647.6454	3002.5705	3013.3803	3020.8149	3042.3381	3055.0551	3065.6138	3102.415	3125.4878	3230.7634	3666.79	3799.3716
CC1=C(C)C=C(CO)N1	Cc1c(C)cc(CO)[nH]1	
InChI=1S/C7H11NO/c1-5-3-7(4-9)8-6(5)2/h3,8-9H,4H2,1-2H3	InChI=1S/C7H11NO/c1-5-3-7(4-9)8-6(5)2/h3,8-9H,4H2,1-2H3
