15
gdb 32518	2.63729	1.24611	0.85074	3.2212	69.7	-0.2395	-0.0505	0.189	1261.2815	0.111996	-457.790602	-457.782162	-457.781218	-457.824467	29.632	
O	-0.0549015897	 1.4135845376	 0.007097867	-0.416817
C	 0.0111885106	-0.0017451883	 0.0017501822	-0.195857
C	-1.3871173572	-0.5334605287	 0.0121063734	 0.144405
C	-2.5251742655	 0.2019723796	 0.0236720771	-0.080336
O	-3.6267011551	-0.6142112366	 0.0307143109	-0.139964
C	-3.1837466482	-1.8803977751	 0.023551353	-0.050232
C	-1.8143989258	-1.9154628968	 0.0118650611	 0.037808
C	-0.9971508972	-3.1275789927	 0.0016239726	 0.067932
O	-1.4381748944	-4.2563935709	 0.002205079	-0.275018
H	 0.8427767099	 1.7571739249	 0.0007393366	 0.294941
H	 0.5449187266	-0.3746405482	-0.8881751919	 0.108004
H	 0.5603261153	-0.3806506653	 0.8796731299	 0.10799
H	-2.7177392374	 1.2597122907	 0.0282521628	 0.162984
H	-3.9270572317	-2.6600977412	 0.0276965841	 0.172003
H	 0.1016358798	-2.9490800691	-0.0071377778	 0.062157
60.3326	135.4361	137.6082	210.4682	226.6984	228.7066	295.6774	378.8062	549.3267	623.3136	637.1825	687.4725	774.9387	801.0095	830.2942	911.6053	1032.6629	1050.9081	1069.2626	1086.081	1156.2971	1191.2327	1217.894	1250.4623	1252.2689	1319.4927	1371.2569	1450.2437	1477.5826	1515.665	1563.1899	1631.7052	1788.7957	2873.3695	2959.2323	2975.7895	3287.4492	3309.1618	3841.5441
OCC1=COC=C1C=O	OCc1cocc1C=O	
InChI=1S/C6H6O3/c7-1-5-3-9-4-6(5)2-8/h1,3-4,8H,2H2	InChI=1S/C6H6O3/c7-1-5-3-9-4-6(5)2-8/h1,3-4,8H,2H2
