17
gdb 125934	3.84893	1.3782	1.15828	1.9688	74.15	-0.2033	0.0046	0.2079	1065.4846	0.1397	-414.1903	-414.182837	-414.181893	-414.222199	28.871	
C	 0.231714276	 1.4762282236	 0.0850582477	-0.394107
C	-0.0348617515	-0.0257002252	-0.0363193437	 0.034788
C	 0.6636022933	-0.6448166519	-1.3085499233	-0.36431
C	 1.8720213551	-1.2698359758	-0.6883982616	 0.302039
N	 3.0249980738	-1.8289167898	-1.0230240198	-0.310255
N	 3.5298253641	-2.1678482726	 0.1675578749	-0.114563
N	 2.7900790208	-1.86612964	 1.2633964236	-0.343868
C	 1.7345340142	-1.2993101696	 0.7022089497	 0.364288
N	 0.5201634951	-0.7832703146	 1.1322525396	-0.404896
H	 1.3080616769	 1.6796710669	 0.0945933321	 0.130707
H	-0.2122722897	 2.0175481317	-0.7568061869	 0.122177
H	-0.2025228834	 1.8800858948	 1.0062226577	 0.115452
H	-1.1142289232	-0.1985147059	-0.0785976782	 0.088377
H	 0.0174809978	-1.3919897065	-1.7831271681	 0.126393
H	 0.8779834543	 0.1253465779	-2.0548938819	 0.122557
H	 4.4374098533	-2.5912626797	 0.2535031422	 0.286157
H	 0.5236838933	-0.2696409735	 2.003732716	 0.239064
79.0262	220.8495	259.3643	272.1404	333.1405	350.8955	400.0212	489.9209	595.3584	659.8653	677.586	740.8121	750.0037	807.6315	866.2861	916.6426	939.2858	978.0866	1041.6334	1092.5139	1123.3401	1138.6499	1157.2273	1201.9267	1211.7998	1276.277	1317.3287	1356.6043	1386.2438	1406.5329	1446.49	1471.0648	1489.6372	1493.5761	1496.9217	1559.9807	1630.8693	3027.8612	3037.8387	3058.9567	3086.0851	3099.044	3107.1075	3574.2378	3694.7113
CC1CC2=NNN=C2N1	C[C@H]1Cc2n[nH]nc2N1	
InChI=1S/C5H8N4/c1-3-2-4-5(6-3)8-9-7-4/h3H,2H2,1H3,(H2,6,7,8,9)	InChI=1S/C5H8N4/c1-3-2-4-5(6-3)8-9-7-4/h3H,2H2,1H3,(H2,6,7,8,9)/t3-/m0/s1
