19
gdb 83781	2.77041	1.89237	1.6979	2.1138	72.8	-0.2435	0.073	0.3165	894.5033	0.162873	-422.994417	-422.987897	-422.986953	-423.024846	28.17	
O	 0.0296082558	 1.4619391529	-0.0511703326	-0.450402
C	-0.0170673224	 0.061514734	 0.0028453208	 0.179421
C	 0.2216465204	-0.6907486065	 1.3574538069	-0.120119
C	-0.4196768596	 0.1386815761	 2.4647358194	-0.103819
O	-1.705961525	 0.5979448731	 2.0142051149	-0.291709
C	-2.3059994459	-0.3546427884	 1.1346917358	 0.102415
C	-2.1153908927	-1.8051021656	 1.6508584135	-0.259516
C	-0.787657414	-1.8027397554	 0.8687778053	-0.039608
C	-1.3520208191	-0.6896584195	-0.0800516948	-0.10646
H	-0.6633688642	 1.7787415339	 0.5424419744	 0.291293
H	 0.670051854	-0.3047329749	-0.7661688448	 0.0866
H	 1.2377444616	-0.9959584543	 1.6150244327	 0.07022
H	-0.5234690209	-0.4364875318	 3.3945430827	 0.103125
H	 0.1701919304	 1.0339349183	 2.6828857345	 0.116682
H	-3.3109213618	 0.0114802544	 0.9223514306	 0.084099
H	-2.1248514199	-1.9671145976	 2.7324850643	 0.101389
H	-2.8354500735	-2.483276771	 1.1835647896	 0.104928
H	-0.3390862627	-2.7305286656	 0.5142693207	 0.067727
H	-1.8463758405	-0.884693012	-1.0330034141	 0.063734
199.6621	261.1214	327.8377	422.8541	438.765	509.5232	569.8098	600.4271	619.4777	710.4216	760.1893	803.8218	825.4031	838.8402	858.5248	938.2951	950.072	985.566	997.3309	1012.0789	1034.7276	1053.3801	1086.4466	1108.9159	1132.1624	1138.4386	1183.8668	1194.6041	1228.5026	1233.7342	1256.002	1271.7392	1291.3437	1305.7531	1307.804	1337.746	1354.7854	1404.969	1451.3966	1481.9122	1517.6199	3011.9766	3051.6452	3064.1389	3081.1592	3091.0209	3094.9387	3102.4202	3108.3675	3114.4044	3767.2369
OC1C2COC3CC2C13	O[C@H]1[C@H]2CO[C@@H]3C[C@H]2[C@H]13	
InChI=1S/C7H10O2/c8-7-4-2-9-5-1-3(4)6(5)7/h3-8H,1-2H2	InChI=1S/C7H10O2/c8-7-4-2-9-5-1-3(4)6(5)7/h3-8H,1-2H2/t3-,4+,5-,6+,7+/m1/s1
