19
gdb 63726	2.95397	1.31888	1.10761	4.2378	78.04	-0.2441	-0.0253	0.2188	1161.4758	0.156214	-423.00674	-422.99775	-422.996806	-423.040092	34.159	
C	-0.0598957516	 1.5556458258	 0.0283717078	-0.438259
C	 0.0593817717	 0.0420867147	 0.0826420672	 0.390238
C	-1.251099358	-0.6590227924	-0.2468984317	-0.421452
O	 1.1111023102	-0.4518746771	-0.8247452737	-0.343815
C	 1.7114424947	-1.182588037	 0.2269538954	 0.382501
C	 2.2290730168	-0.2601384996	 1.3086692016	-0.361314
C	 0.771812492	-0.5977704611	 1.289554616	-0.198183
C	 2.1539584046	-2.5713798868	 0.0534695145	 0.061837
O	 2.1012283372	-3.1969254952	-0.9758738651	-0.266958
H	 0.8803073441	 2.0451258607	 0.2909349107	 0.121491
H	-0.3362701476	 1.8703419576	-0.9828517304	 0.133438
H	-0.8365121105	 1.9018129378	 0.7179164533	 0.121497
H	-1.599627911	-0.3560658544	-1.2383081966	 0.131061
H	-1.1182386833	-1.743905412	-0.2464699412	 0.131913
H	-2.0226603696	-0.3985699669	 0.4860297749	 0.114636
H	 2.7969154001	-0.7349542716	 2.1030292837	 0.129903
H	 2.5927134726	 0.7143973574	 0.9998638966	 0.132357
H	 0.2729307109	-1.1116876052	 2.1012363191	 0.111883
H	 2.5555844565	-3.0134038746	 0.9955848079	 0.067226
81.5063	155.2078	194.9951	199.3599	237.528	276.8451	321.6568	359.1386	390.4127	439.3829	508.0675	541.2604	626.984	756.0398	793.3213	846.7686	859.7595	934.2999	943.0147	947.8553	987.3912	995.4258	1005.6501	1039.1411	1061.4438	1072.2914	1149.4737	1200.9522	1238.6137	1269.2461	1333.4002	1354.8766	1403.5762	1417.2151	1436.4106	1467.6358	1475.353	1481.911	1495.7232	1502.4811	1814.0329	2854.1243	3036.9183	3044.7783	3107.5937	3114.296	3125.5383	3126.3785	3130.6793	3196.8066	3217.4433
CC1(C)OC2(CC12)C=O	CC1(C)O[C@]2(C[C@@H]12)C=O	
InChI=1S/C7H10O2/c1-6(2)5-3-7(5,4-8)9-6/h4-5H,3H2,1-2H3	InChI=1S/C7H10O2/c1-6(2)5-3-7(5,4-8)9-6/h4-5H,3H2,1-2H3/t5-,7+/m0/s1
