18
gdb 133061	2.92824	1.13324	0.87454	1.4938	82.31	-0.2377	-0.006	0.2317	1321.427	0.148276	-409.993587	-409.985478	-409.984534	-410.026934	30.906	
C	-0.0689412937	 1.5602074353	-0.0126523966	-0.364944
C	 0.0168802771	 0.0236952526	-0.0041717989	-0.289817
C	 0.7387422014	-0.5128811327	 1.2112794644	 0.344282
C	 2.1168021974	-0.7491942321	 1.1841051169	-0.208674
C	 2.7844931942	-1.2087869618	 2.3161853374	-0.080698
C	 2.0919903956	-1.4445775455	 3.5008670284	-0.263345
C	 0.7248830602	-1.2085842199	 3.5165494767	 0.324096
F	 0.0386938929	-1.4342158536	 4.6444652948	-0.085097
C	 0.0422786298	-0.7509225517	 2.3994584121	-0.348841
H	 0.929838798	 2.0078652438	-0.0059535359	 0.121946
H	-0.596581706	 1.916815507	-0.9028341338	 0.114031
H	-0.6027012963	 1.9275098727	 0.8694933295	 0.122421
H	-0.9956066565	-0.3941424942	-0.0434442349	 0.105934
H	 0.5306796583	-0.3145258711	-0.9109204213	 0.104715
H	 2.6692857987	-0.5752661502	 0.2659765885	 0.09058
H	 3.8533554402	-1.3907918756	 2.2769343023	 0.102539
H	 2.5853739144	-1.8061518653	 4.3949330496	 0.109015
H	-1.0282797156	-0.5885448677	 2.4662962711	 0.101857
43.5664	132.6322	215.59	243.7217	304.7521	323.3027	447.8971	467.0659	518.7206	533.0683	629.2826	715.1031	735.2035	792.0496	805.8367	889.959	900.2919	920.606	960.0295	992.5177	1015.1049	1069.6575	1082.0629	1110.6276	1171.5088	1184.1611	1267.4193	1297.2257	1312.3461	1348.389	1353.9505	1410.2302	1477.9082	1488.1001	1496.8216	1508.867	1521.3524	1631.331	1650.7604	3034.0856	3035.7396	3070.1801	3108.205	3111.5213	3170.6698	3187.368	3189.3402	3209.443
CCC1=CC=CC(F)=C1	CCc1cccc(F)c1	
InChI=1S/C8H9F/c1-2-7-4-3-5-8(9)6-7/h3-6H,2H2,1H3	InChI=1S/C8H9F/c1-2-7-4-3-5-8(9)6-7/h3-6H,2H2,1H3
