16
gdb 33860	4.06219	1.34103	1.19638	4.8882	72.96	-0.2601	0.0099	0.2701	1031.5041	0.125351	-400.723871	-400.716823	-400.715879	-400.75523	28.126	
N	 0.0040932304	-1.1100274668	-0.0302840507	-0.344981
C	-0.0001646274	 0.046255014	-0.0038147164	 0.24235
C	 0.0181731892	 1.483905963	 0.0073743284	 0.286358
C	 0.4241528063	 2.2657691791	-1.2258611726	-0.343426
C	 1.2975089177	 2.3158035494	 0.0026765026	-0.116928
C	 1.0849685452	 3.3623684429	 1.0719698747	-0.071739
C	-0.0066804556	 4.4047871977	 0.9123996848	-0.327283
C	-0.2973653564	 3.1105369846	 1.619590369	 0.091431
O	-0.9095355405	 2.0698935018	 0.8850226165	-0.288157
H	 0.7962595548	 1.6898773121	-2.065880966	 0.140994
H	-0.19549346	 3.1122915502	-1.4942311232	 0.136513
H	 2.2640257639	 1.8299304133	-0.0362613437	 0.1226
H	 1.9246570333	 3.5736470956	 1.7218009188	 0.107105
H	 0.0775777426	 5.2912628328	 1.5321553261	 0.124321
H	-0.4469301487	 4.583089298	-0.061070958	 0.127378
H	-0.5519038448	 3.0867318624	 2.6730123896	 0.113463
122.8201	156.5485	273.5029	292.3748	453.396	461.6193	526.8048	561.0945	605.1863	698.7204	720.5273	779.0916	795.3633	853.534	865.2507	929.8971	960.5938	970.3084	992.6927	1034.0422	1050.8572	1069.4711	1086.1471	1099.057	1109.6962	1148.5523	1199.3239	1216.5059	1267.0955	1341.0426	1358.7368	1383.1624	1465.5793	1490.7129	2353.2875	3140.791	3148.6045	3177.6453	3190.0993	3202.6975	3229.5129	3240.829
N#CC12CC1C1CC1O2	N#C[C@]12C[C@H]1[C@H]1C[C@H]1O2	
InChI=1S/C7H7NO/c8-3-7-2-5(7)4-1-6(4)9-7/h4-6H,1-2H2	InChI=1S/C7H7NO/c8-3-7-2-5(7)4-1-6(4)9-7/h4-6H,1-2H2/t4-,5+,6-,7-/m1/s1
