18
gdb 96416	2.0265	1.71868	1.221	3.9291	71.29	-0.2698	0.0162	0.2861	1077.0693	0.148874	-439.100442	-439.09207	-439.091125	-439.13326	31.739	
O	-0.0893619818	 1.4272628146	 0.0049553919	-0.418994
C	-0.0142458465	 0.0179287249	-0.0051611173	 0.105729
C	-1.4294780864	-0.5423607965	 0.0890689233	-0.221088
C	-1.4005331084	-2.0727851929	-0.0353547841	-0.217104
C	-0.640871027	-2.4916549692	-1.2928977343	-0.081984
O	 0.6747464959	-1.9265134642	-1.3268493064	-0.246933
C	 0.6829986909	-0.5154164691	-1.2856591427	-0.071978
C	 0.0863367694	 0.075290891	-2.5072174447	 0.286984
N	-0.3781931938	 0.502633189	-3.4749806619	-0.332403
H	 0.7994199032	 1.7912393435	 0.0749159113	 0.290373
H	 0.5820975401	-0.3606693696	 0.8392361967	 0.084204
H	-1.8794271133	-0.2263767372	 1.0345908966	 0.112859
H	-2.0293876517	-0.1028884095	-0.7169622687	 0.131273
H	-0.9093789722	-2.5108353924	 0.8419324896	 0.108639
H	-2.4183999718	-2.4753744085	-0.0721634884	 0.10958
H	-0.4856739856	-3.5722731684	-1.3311202818	 0.118596
H	-1.1940275747	-2.1929033612	-2.1956013273	 0.11917
H	 1.7407860737	-0.2271250042	-1.2696535017	 0.123078
100.2525	144.3643	178.3978	256.2972	292.2048	321.0966	348.5872	401.6115	431.9834	448.7065	563.9812	637.0139	656.2976	796.9705	862.4836	893.5507	915.1982	945.3261	995.4412	1039.7039	1096.1836	1112.6472	1115.1648	1123.4845	1202.0189	1215.904	1283.0233	1301.226	1313.4321	1342.9861	1350.9043	1377.5392	1378.8252	1412.7257	1438.9434	1480.6013	1495.561	1507.4582	2353.7162	2985.8237	3005.6704	3035.2287	3044.752	3047.234	3082.2509	3095.9229	3106.42	3812.9477
OC1CCCOC1C#N	O[C@H]1CCCO[C@H]1C#N	
InChI=1S/C6H9NO2/c7-4-6-5(8)2-1-3-9-6/h5-6,8H,1-3H2	InChI=1S/C6H9NO2/c7-4-6-5(8)2-1-3-9-6/h5-6,8H,1-3H2/t5-,6-/m0/s1
