20
gdb 109084	3.44955	1.18599	1.10352	1.2593	79.42	-0.2357	0.0261	0.2618	1215.1273	0.172339	-403.16897	-403.16063	-403.159686	-403.202667	31.352	
C	 0.3925976412	 1.001726679	 0.6345758153	-0.38039
C	-0.3627660381	 0.3759514365	-0.5492452121	-0.270937
C	 0.5483781053	-0.3054827476	-1.5183616749	 0.400159
N	 0.7258481215	 0.0067889428	-2.7397654929	-0.313177
C	 1.7077656501	-0.9354575178	-3.282691381	-0.011655
C	 3.1594341677	-0.3838032258	-3.3570988194	-0.222692
C	 3.5194624037	-1.1741480954	-2.0579802303	-0.244732
C	 2.1101648509	-1.815148022	-2.0596646668	 0.083987
O	 1.2443283663	-1.3675990959	-1.0016036269	-0.266673
H	 0.957905944	 0.2424528109	 1.1806192691	 0.135201
H	 1.0943057981	 1.7672020976	 0.2892151691	 0.125673
H	-0.3090748645	 1.4738134501	 1.3277176884	 0.118635
H	-1.0785160135	-0.3650393708	-0.173066244	 0.121776
H	-0.9230253398	 1.1328811293	-1.1016828775	 0.130461
H	 1.3233237108	-1.4112757507	-4.1885326201	 0.077334
H	 3.7093712973	-0.7178288685	-4.2403878425	 0.102926
H	 3.2253803356	 0.7038718297	-3.2919203664	 0.111292
H	 4.3450793879	-1.8828034444	-2.1558848051	 0.105727
H	 3.6962898455	-0.5559007766	-1.175038342	 0.112427
H	 2.0552296699	-2.9033506805	-2.1110679	 0.084661
54.707	89.2497	119.7917	206.7698	259.0982	347.5288	416.283	428.7344	629.6122	665.6052	714.3461	736.2916	769.0104	803.9664	854.9768	907.1488	910.4497	924.7992	951.2523	980.9139	1009.3437	1054.7263	1075.5804	1098.7334	1123.7758	1132.5339	1197.7268	1223.5216	1236.0497	1256.7335	1279.1154	1284.3304	1302.0781	1312.8714	1352.9451	1372.6345	1408.581	1469.1504	1473.6576	1485.8554	1497.0854	1509.7879	1719.898	3041.4981	3046.1082	3063.2549	3067.5537	3073.3855	3101.2183	3109.651	3115.1479	3117.32	3132.5475	3133.3052
CCC1=NC2CCC2O1	CCC1=N[C@H]2CC[C@H]2O1	
InChI=1S/C7H11NO/c1-2-7-8-5-3-4-6(5)9-7/h5-6H,2-4H2,1H3	InChI=1S/C7H11NO/c1-2-7-8-5-3-4-6(5)9-7/h5-6H,2-4H2,1H3/t5-,6+/m0/s1
