16
gdb 46554	4.23565	1.12662	1.03917	3.1359	64.65	-0.2686	0.0438	0.3123	1136.2443	0.125646	-475.046278	-475.038682	-475.037737	-475.079174	27.943	
O	 0.12837903	-0.0248680985	 0.3089204926	-0.384335
C	 0.0512858358	 1.1579236454	 0.1434242482	 0.477514
N	-1.0640188931	 1.9024785698	-0.1943788867	-0.418248
C	-0.849164159	 3.3142922612	-0.0392111482	 0.248229
C	-1.5945662908	 4.3085535237	-0.9583033391	-0.125957
O	-2.0810983222	 5.0525195826	 0.1737731764	-0.264439
C	-1.5720692501	 4.080082699	 1.1039567006	-0.120517
C	 0.6916452662	 3.341663175	-0.0772125507	-0.136872
O	 1.1103802641	 2.0163118431	 0.2571765215	-0.23673
H	-1.9672555407	 1.4743054542	-0.0681244347	 0.263509
H	-0.9714515649	 4.9198999996	-1.6228409808	 0.112548
H	-2.4045942934	 3.8530056964	-1.543204604	 0.109181
H	-2.3736521413	 3.5035580981	 1.5862966782	 0.103536
H	-0.9379445061	 4.531049529	 1.8765531386	 0.114156
H	 1.0524864103	 3.5871591829	-1.0832358802	 0.124038
H	 1.1259428952	 4.0420938387	 0.6392714183	 0.134387
69.8443	82.8429	170.0593	269.085	340.7996	422.1614	438.2816	503.5523	540.1563	709.9331	767.6662	820.764	851.2928	924.5063	933.1672	947.676	971.3817	1004.9479	1040.5288	1081.0187	1138.1274	1150.3778	1153.5391	1171.1921	1229.1609	1242.7691	1300.0102	1301.2786	1369.9796	1399.5971	1435.0049	1503.1965	1516.0876	1530.9225	1901.4161	2999.2066	3012.5483	3034.8039	3057.5386	3058.2153	3109.1029	3648.6367
O=C1NC2(COC2)CO1	O=C1NC2(COC2)CO1	
InChI=1S/C5H7NO3/c7-4-6-5(3-9-4)1-8-2-5/h1-3H2,(H,6,7)	InChI=1S/C5H7NO3/c7-4-6-5(3-9-4)1-8-2-5/h1-3H2,(H,6,7)
