18
gdb 11242	5.1591	1.17938	1.00889	3.0313	75.36	-0.239	-0.0177	0.2213	1159.3606	0.153215	-347.836752	-347.828585	-347.827641	-347.869922	29.63	
C	-0.1197115602	 1.4827382665	 0.0672264801	-0.491646
C	 0.0123143035	-0.0050031905	-0.0126265311	 0.337492
C	-0.0714741945	-0.7739692503	-1.0985291637	-0.161396
C	 0.0645863866	-2.2442827186	-0.7928318705	-0.285005
C	 0.5548663348	-2.2625779348	 0.6881297454	-0.050579
C	 0.2237756861	-0.8429200981	 1.232971295	-0.330785
C	-0.10573581	-3.353905303	 1.4931634754	 0.153984
O	 0.4616304489	-4.2535434352	 2.0565124894	-0.252106
H	 0.7813431008	 1.9384158878	 0.4971481227	 0.127334
H	-0.2892239574	 1.9264785002	-0.9173253879	 0.125939
H	-0.9539443471	 1.7719842669	 0.7194108003	 0.12684
H	-0.2567808616	-0.4076147997	-2.1029209871	 0.089765
H	-0.901380814	-2.759902307	-0.9076424376	 0.108061
H	 0.7666555669	-2.7669695509	-1.4511324828	 0.117145
H	 1.6334781542	-2.4324167614	 0.7197914864	 0.096806
H	 1.0235738162	-0.4612783822	 1.8776249563	 0.114336
H	-0.6882828925	-0.8435588734	 1.8503408051	 0.106875
H	-1.2197175507	-3.2650917463	 1.5312725145	 0.06694
61.8145	72.0611	179.1472	232.8441	271.4816	343.5958	364.8532	413.6419	443.3502	611.8231	686.3766	817.4507	869.2688	881.0701	916.4413	925.9731	992.905	1002.2196	1035.9812	1051.1731	1091.4768	1112.2629	1160.2594	1194.5937	1212.3939	1277.4065	1290.9577	1317.678	1333.9376	1347.5527	1414.8911	1427.5651	1478.8985	1483.2373	1489.141	1491.7544	1730.7783	1834.6861	2828.2548	2987.842	2991.2255	3017.2299	3053.9266	3059.6309	3062.4004	3090.7961	3112.7388	3186.6677
CC1=CCC(C1)C=O	CC1=CC[C@@H](C1)C=O	
InChI=1S/C7H10O/c1-6-2-3-7(4-6)5-8/h2,5,7H,3-4H2,1H3	InChI=1S/C7H10O/c1-6-2-3-7(4-6)5-8/h2,5,7H,3-4H2,1H3/t7-/m0/s1
