20
gdb 8066	3.44546	1.54623	1.32425	1.166	75.44	-0.2567	0.0809	0.3376	1028.7554	0.177151	-348.959701	-348.951621	-348.950677	-348.992118	31.378	
C	-0.0681381445	 1.5684532084	-0.0034774099	-0.376054
C	-0.1922428795	 0.0413483112	-0.0759600236	-0.234981
C	 0.6235447658	-0.5514643262	-1.217148785	 0.042049
C	 2.1765541832	-0.7562980293	-1.1359307949	-0.063717
C	 1.9367931275	-1.9747560575	-0.1987369073	-0.296126
C	 0.8789724512	-2.0776604719	-1.3451921556	 0.379677
O	-0.1455240178	-2.9949463623	-1.4942448994	-0.475498
C	 2.0337009616	-1.7327727997	-2.338559922	-0.286381
H	 0.9656154258	 1.8743871049	 0.1905335609	 0.114464
H	-0.3787463705	 2.0361998427	-0.9444910319	 0.113569
H	-0.6932989967	 1.980535954	 0.7947269342	 0.110453
H	 0.0909045291	-0.3917715496	 0.8886250749	 0.096527
H	-1.2436255431	-0.232220378	-0.2313494036	 0.106846
H	 0.3075590262	-0.0957546577	-2.1644633694	 0.059425
H	 2.9366575465	 0.0124869639	-1.0185640002	 0.077674
H	 2.7222299496	-2.7367661597	-0.1946260306	 0.082229
H	 1.5760222324	-1.7801241634	 0.8114441248	 0.096272
H	 0.237429151	-3.8774949094	-1.5417329337	 0.281418
H	 1.741173906	-1.2965149623	-3.2973511276	 0.090932
H	 2.8253417163	-2.479159858	-2.4526004301	 0.081222
66.1772	146.9257	214.513	244.0259	275.8559	320.8938	394.663	463.5352	550.4707	586.6411	648.7047	734.0716	778.4483	814.8797	865.0184	908.7953	943.474	956.2086	977.0231	1012.0635	1017.4021	1054.6031	1101.017	1105.2835	1116.0114	1135.9573	1156.4877	1168.1858	1208.5781	1223.1229	1226.5755	1290.308	1300.3521	1346.6477	1364.4696	1409.9655	1440.6265	1482.3741	1498.6026	1500.0093	1508.9017	1545.3659	3019.8242	3029.684	3030.9848	3046.1972	3056.7833	3070.3656	3098.8335	3102.239	3115.4491	3134.1004	3143.5677	3808.8563
CCC1C2CC1(O)C2	CC[C@H]1[C@H]2C[C@]1(O)C2	
InChI=1S/C7H12O/c1-2-6-5-3-7(6,8)4-5/h5-6,8H,2-4H2,1H3	InChI=1S/C7H12O/c1-2-6-5-3-7(6,8)4-5/h5-6,8H,2-4H2,1H3/t5-,6-,7-/m0/s1
