17
gdb 45266	3.06427	1.69741	1.3692	4.2627	70.1	-0.2627	0.0128	0.2754	952.9456	0.138552	-421.852793	-421.846051	-421.845107	-421.884006	27.018	
O	-0.1682865826	 0.107827805	 0.2964561712	-0.323429
C	-0.0359138402	 1.2544944055	 0.0165137266	 0.452178
O	-0.9991806987	 2.1157363611	-0.4592223257	-0.2663
C	-0.0138631435	 3.1968119933	-0.6508507577	 0.110883
C	-0.2449382657	 4.4452974904	 0.2037594586	-0.256752
C	 0.5494659926	 4.2423910136	 1.4913409465	-0.030164
C	 0.2073993707	 3.0654889744	 2.362685793	-0.298428
C	 1.3533497629	 2.9542614177	 1.3813568521	-0.04306
C	 1.0692239593	 2.3187637321	 0.0234673494	-0.234246
H	 0.0808574672	 3.3957282254	-1.7196137431	 0.102529
H	 0.1378497132	 5.3184672202	-0.3356564842	 0.111249
H	-1.3146864735	 4.6098295363	 0.3707354694	 0.127302
H	 0.9784148245	 5.1192006562	 1.9638474043	 0.090662
H	 0.467994642	 3.1286297685	 3.4134189053	 0.117795
H	-0.7090395658	 2.5178421892	 2.168336291	 0.139397
H	 2.36019616	 2.8796324032	 1.7727673793	 0.096303
H	 1.9693336275	 2.0659696879	-0.536594126	 0.104081
112.3169	161.3492	278.0355	355.5199	414.0259	487.255	637.5124	669.8871	714.392	767.5009	779.6263	812.6859	832.1828	868.4813	908.9433	935.1829	964.9317	997.4047	1007.8237	1051.609	1074.3985	1087.1756	1102.8608	1109.0792	1133.6659	1189.1381	1202.5869	1218.6176	1266.5422	1285.2453	1322.0202	1340.0808	1369.6454	1393.2662	1474.1774	1494.6612	1937.2195	3045.7378	3086.0698	3100.7937	3121.4033	3133.161	3167.5444	3187.1936	3218.2768
O=C1OC2CC3CC3C12	O=C1O[C@H]2C[C@H]3C[C@H]3[C@@H]12	
InChI=1S/C7H8O2/c8-7-6-4-1-3(4)2-5(6)9-7/h3-6H,1-2H2	InChI=1S/C7H8O2/c8-7-6-4-1-3(4)2-5(6)9-7/h3-6H,1-2H2/t3-,4-,5+,6-/m1/s1
