20
gdb 79811	2.09048	1.93684	1.66715	1.617	76.71	-0.2391	0.0552	0.2943	972.2918	0.172351	-403.126103	-403.118097	-403.117153	-403.158004	32.106	
C	-0.035103469	 1.4884915679	-0.0242140696	-0.484803
C	 0.0136999221	-0.0220699455	-0.0169397678	 0.294301
C	 0.8048595981	-0.6718518548	-1.1547431624	-0.255515
C	 0.2626012638	-2.1221431209	-1.210342156	-0.269379
C	-0.9720915191	-2.0633137509	-0.3200570991	-0.015337
C	-0.8882985957	-1.5945316356	 1.090296371	-0.115124
C	 0.3198057743	-0.7191761865	 1.3506519473	 0.105476
O	 1.5835529745	-1.279861902	 1.6268215562	-0.439438
N	-1.3767883215	-0.6773105615	-0.0261125722	-0.173651
H	 0.9700803909	 1.9055329364	 0.1021037718	 0.121041
H	-0.4458827336	 1.8610821179	-0.9684639193	 0.120467
H	-0.6655671397	 1.8627150283	 0.7877031184	 0.122927
H	 0.6098633513	-0.1465349715	-2.0947327494	 0.105989
H	 1.880045652	-0.6240047885	-0.9615895054	 0.111237
H	-0.0183635867	-2.4093867808	-2.2275148625	 0.112801
H	 0.9896547421	-2.8686388562	-0.8699695197	 0.095629
H	-1.8019242175	-2.7287528218	-0.5406939308	 0.093743
H	-1.5684294933	-1.9695045956	 1.8500055818	 0.089578
H	 0.1212521923	-0.0238533133	 2.1709118793	 0.095363
H	 1.6857020347	-2.0744204552	 1.0947957883	 0.284696
160.5047	190.6463	209.8405	246.9746	267.4154	306.9966	337.3235	485.2538	553.9334	584.1712	659.1661	707.1806	773.0754	779.408	786.5438	837.8022	891.1536	927.8818	957.5238	987.3246	1003.9601	1023.764	1060.8635	1071.782	1117.4723	1129.7623	1170.7916	1181.104	1217.1191	1236.2845	1246.9737	1270.281	1283.8574	1315.0612	1354.0609	1362.9101	1407.227	1412.4257	1439.387	1478.5655	1487.1393	1494.9307	1511.0356	3031.7151	3035.7076	3053.4888	3075.6569	3079.689	3100.0027	3104.4653	3109.1356	3144.81	3158.0285	3833.8391
CC12CCC3C(C1O)N23	C[C@@]12CC[C@H]3[C@@H]([C@H]1O)N23	
InChI=1S/C7H11NO/c1-7-3-2-4-5(6(7)9)8(4)7/h4-6,9H,2-3H2,1H3	InChI=1S/C7H11NO/c1-7-3-2-4-5(6(7)9)8(4)7/h4-6,9H,2-3H2,1H3/t4-,5-,6+,7+,8?/m0/s1
