20
gdb 122034	2.44238	0.76469	0.60839	2.9151	81.54	-0.2761	-0.0511	0.225	1831.4938	0.168402	-403.179721	-403.169054	-403.16811	-403.217121	36.327	
C	-0.0407620744	 1.5280313633	 0.1118673145	-0.383079
C	 0.0596886676	 0.0024655825	 0.0316284556	-0.16999
C	 0.7043243766	-0.4830996383	-1.2718249473	-0.180404
C	 0.8102174453	-2.009462395	-1.3427814497	-0.202468
C	 1.4751377218	-2.5225393038	-2.652426138	-0.228429
C	 1.6013826904	-4.0508879233	-2.5739287852	 0.156995
O	 2.5683607709	-4.5960347677	-2.1198550701	-0.233489
C	 0.7129669765	-2.1352387439	-3.8383383301	 0.268708
N	 0.0954958749	-1.8608953888	-4.776194625	-0.31787
H	 0.9492914671	 1.9936683966	 0.0562310577	 0.117404
H	-0.6416006736	 1.9287759989	-0.7116415113	 0.121266
H	-0.5059654715	 1.8458467427	 1.0497362641	 0.117011
H	 0.6381448753	-0.3740875201	 0.885413885	 0.09991
H	-0.941865972	-0.437304208	 0.1246370073	 0.101724
H	 0.1233653647	-0.1165940161	-2.1272092152	 0.124591
H	 1.707277534	-0.0460716683	-1.3697039967	 0.102091
H	 1.4148802974	-2.3877640292	-0.5113915795	 0.127931
H	-0.1853023367	-2.4598693261	-1.2488730812	 0.119554
H	 2.489265204	-2.1150468766	-2.7225448251	 0.148451
H	 0.7109190217	-4.6136463887	-2.9256242698	 0.110094
42.6354	63.6369	81.6821	107.4117	137.5359	178.6234	218.7461	251.6288	260.8076	333.5899	424.2782	483.8588	539.6911	587.9857	741.0309	788.2045	879.3897	900.5206	924.9769	977.3248	1017.6077	1040.8971	1066.9429	1072.8825	1132.9686	1139.7321	1225.3415	1246.2736	1298.016	1305.2344	1337.6034	1345.9794	1366.9966	1400.0136	1414.0765	1418.5722	1484.2707	1486.8345	1499.4896	1500.1616	1512.5923	1840.832	2356.1089	2913.6109	3013.2647	3019.8992	3032.9161	3036.7124	3042.3508	3061.5705	3067.678	3090.6617	3101.0734	3107.0902
CCCCC(C=O)C#N	CCCC[C@@H](C=O)C#N	
InChI=1S/C7H11NO/c1-2-3-4-7(5-8)6-9/h6-7H,2-4H2,1H3	InChI=1S/C7H11NO/c1-2-3-4-7(5-8)6-9/h6-7H,2-4H2,1H3/t7-/m1/s1
