18
gdb 81402	4.02161	1.12454	1.07123	3.146	75.37	-0.2665	0.0301	0.2966	1149.3691	0.149599	-401.947883	-401.940136	-401.939192	-401.980021	30.336	
O	 0.1896394393	 1.3532680132	-0.2075185429	-0.453634
C	 0.0537243228	-0.0321764009	-0.0451363249	 0.180127
C	 0.1577318426	-0.6183269539	 1.4001070875	-0.056707
C	-1.3483218763	-0.2491183945	 1.5611998941	-0.269945
C	-1.4004617356	-0.6083696224	 0.0474313846	-0.060573
C	-1.09470711	-2.1275806483	 0.0641355404	-0.153966
C	 0.0876013945	-2.1275726459	 1.1170352839	-0.242409
C	-2.2315258845	-2.9506340745	 0.4586866428	 0.271272
N	-3.1353441256	-3.5956923162	 0.7816867921	-0.331885
H	-0.3228110033	 1.809922689	 0.4671749434	 0.285065
H	 0.7067486731	-0.4776348865	-0.8025018286	 0.083058
H	 0.9224711018	-0.2773748261	 2.0978404386	 0.07481
H	-1.9560501707	-0.8403368889	 2.2505974769	 0.122159
H	-1.526199451	 0.8106898121	 1.7576534985	 0.096184
H	-2.1975436615	-0.2724086922	-0.6145438854	 0.086785
H	-0.7528629618	-2.4704971682	-0.9171482265	 0.124706
H	 1.0080391885	-2.5246618557	 0.6822443165	 0.115646
H	-0.1566621721	-2.7145582101	 2.0042625791	 0.129307
113.2351	143.6267	211.5009	277.6161	313.0425	356.6874	431.5779	464.1967	541.0126	583.7695	670.5212	803.412	822.2847	832.1779	875.6331	910.5087	934.9663	971.441	984.9419	1008.3196	1045.6087	1052.6366	1073.6605	1108.792	1118.5165	1176.3266	1201.4709	1217.1329	1241.573	1259.0361	1266.9931	1286.0188	1303.8486	1322.0063	1349.4856	1447.5718	1497.3793	1519.5181	2352.8716	3061.12	3063.487	3065.7278	3072.668	3115.4081	3121.3482	3123.2324	3131.2492	3821.3844
OC1C2CC1C(C2)C#N	O[C@H]1[C@H]2C[C@@H]1[C@@H](C2)C#N	
InChI=1S/C7H9NO/c8-3-5-1-4-2-6(5)7(4)9/h4-7,9H,1-2H2	InChI=1S/C7H9NO/c8-3-5-1-4-2-6(5)7(4)9/h4-7,9H,1-2H2/t4-,5+,6-,7+/m1/s1
