20
gdb 71709	2.22229	2.11526	1.75504	1.8119	81.46	-0.2182	0.0849	0.3031	938.2513	0.171098	-365.941967	-365.934282	-365.933338	-365.973422	31.438	
C	 0.0696600065	 1.5848352271	-0.0152457003	-0.537744
C	 0.0249498701	 0.0872360452	-0.0378452907	 0.309811
C	 0.529700626	-0.9013192195	-1.1243723713	-0.131818
C	 0.8202298153	-1.8733945476	-0.0452940303	-0.043559
C	 0.5964670348	-0.8664426923	 1.0977780094	-0.124192
C	-0.8392492474	-1.1347356055	 1.6033002301	-0.291778
C	-1.23764865	-0.8348510479	 0.14505262	 0.321365
C	-2.63594079	-0.5387691053	-0.3160799099	-0.499531
N	-0.5233633766	-1.8819195708	-0.7148682273	-0.17735
H	 1.0999003623	 1.9533196199	-0.0841392715	 0.122025
H	-0.4925443672	 2.014093554	-0.8529055362	 0.122709
H	-0.3612338277	 1.9798686731	 0.9119784134	 0.121052
H	 0.8878822789	-0.8036878468	-2.1430321889	 0.08877
H	 1.3953634623	-2.7910477236	-0.0568410175	 0.091627
H	 1.428319625	-0.5982703362	 1.7472275213	 0.068813
H	-1.0774462561	-2.1204408267	 2.0136935169	 0.099727
H	-1.1901873191	-0.3502216181	 2.2816066893	 0.097972
H	-3.0771992902	 0.2822761545	 0.2582560755	 0.112513
H	-2.6469906557	-0.2625667801	-1.3758377077	 0.121864
H	-3.2725069911	-1.4226231132	-0.1973270244	 0.127723
175.907	204.1198	217.3554	235.5482	287.3495	334.8276	431.8828	554.4566	591.6441	617.8077	724.8537	761.7827	796.7914	807.984	839.3965	864.501	870.6751	899.6702	923.1805	951.7284	978.9677	1004.1905	1011.024	1066.4554	1098.7076	1127.6301	1147.1744	1169.0144	1179.8447	1197.6477	1212.8155	1225.1463	1278.5646	1319.3515	1329.8222	1353.4417	1411.3931	1416.4461	1481.3608	1482.1443	1486.431	1487.8415	1495.4199	3018.6119	3029.0487	3046.5336	3080.9221	3085.8983	3096.408	3101.2088	3105.1198	3129.0974	3169.0993	3189.2959
CC12C3C4C1CC2(C)N34	C[C@@]12[C@H]3[C@H]4[C@@H]1C[C@]2(C)N34	
InChI=1S/C8H11N/c1-7-3-4-5-6(9(5)7)8(4,7)2/h4-6H,3H2,1-2H3	InChI=1S/C8H11N/c1-7-3-4-5-6(9(5)7)8(4,7)2/h4-6H,3H2,1-2H3/t4-,5+,6+,7-,8-,9?/m0/s1
