16
gdb 98752	3.18463	0.92724	0.81114	4.4068	68.25	-0.2566	-0.0586	0.198	1395.6438	0.121707	-475.006763	-474.997594	-474.99665	-475.042272	31.978	
O	 0.2911542928	 1.3772664873	 0.4074873871	-0.417053
C	 0.1088562618	 0.0010346006	 0.5062086801	-0.135173
C	-1.0323398765	-0.4769785837	-0.3763877191	 0.392329
O	-1.6537604022	 0.3245783625	-1.0405378762	-0.331087
C	-1.3163363783	-1.9485808992	-0.3704899698	-0.139563
N	-2.7213833644	-2.3587202492	-0.4498544435	-0.3072
C	-1.8563642309	-2.6770407425	-1.5829796246	-0.124058
C	-2.1714557514	-1.9778771832	-2.8732052279	 0.169434
O	-1.7625540913	-2.3828884682	-3.9321433882	-0.253509
H	-0.3922633295	 1.682968215	-0.2105447392	 0.298388
H	 1.0198672227	-0.5504681501	 0.214093777	 0.122821
H	-0.1124687115	-0.3067113473	 1.5436938604	 0.121102
H	-0.6475208541	-2.5364070932	 0.2557572708	 0.1082
H	-2.8824340279	-3.1795330885	 0.1278058779	 0.254589
H	-1.4847056075	-3.6911755144	-1.7156094968	 0.117593
H	-2.8158554021	-1.0869050859	-2.7713375381	 0.123186
29.988	60.9893	118.4793	181.0536	220.5785	283.4339	336.0214	344.4026	395.7361	416.169	499.2501	581.9159	706.1089	794.1225	861.647	901.4627	926.822	988.8121	1024.9686	1039.4434	1068.5439	1115.6524	1157.1551	1193.7709	1209.3508	1228.2337	1244.2459	1310.0326	1360.9359	1417.1109	1445.2535	1466.5746	1488.7427	1798.2084	1819.4321	2957.3466	2971.1712	2990.3797	3126.4267	3142.3735	3514.1477	3686.8765
OCC(=O)C1NC1C=O	OCC(=O)[C@H]1N[C@H]1C=O	
InChI=1S/C5H7NO3/c7-1-3-5(6-3)4(9)2-8/h1,3,5-6,8H,2H2	InChI=1S/C5H7NO3/c7-1-3-5(6-3)4(9)2-8/h1,3,5-6,8H,2H2/t3-,5-/m0/s1
