15
gdb 57583	3.01975	0.78338	0.72234	1.5818	75.05	-0.27	-0.0813	0.1888	1558.0504	0.106889	-457.738712	-457.72825	-457.727306	-457.775747	34.611	
C	 0.2185132309	 1.5283232474	 0.1567782301	-0.415596
C	 0.0149344073	 0.0081637955	 0.0925328233	 0.082604
O	 0.5411551236	-0.6657458893	 1.2290804565	-0.442952
C	-1.4980769748	-0.3413766452	 0.1227911342	 0.15778
O	-2.3625691848	 0.386468562	-0.2723898192	-0.229151
C	 0.5555144284	-0.5446295569	-1.1517592311	 0.175347
C	 1.0243612052	-1.0193804568	-2.1598447729	-0.071775
C	 1.5615785506	-1.5652521285	-3.3827684788	 0.024935
O	 2.5544396652	-2.2522846135	-3.4401053124	-0.222935
H	 1.2767165728	 1.7778018805	 0.045501783	 0.125116
H	-0.3525069759	 2.0174451109	-0.6345537692	 0.153288
H	-0.1355874497	 1.8890735741	 1.1253907747	 0.140109
H	 1.4994449109	-0.7110604769	 1.1410320084	 0.297433
H	-1.6890873044	-1.3438882885	 0.5567732509	 0.115004
H	 0.9817479846	-1.3000177247	-4.2891230274	 0.110794
37.4439	58.1906	95.3667	105.1059	191.9076	207.945	215.225	250.0568	269.5203	336.7504	378.5188	472.335	536.9592	561.8716	660.5766	741.7775	861.7159	933.3386	1000.0601	1020.0289	1055.7719	1104.1472	1147.5202	1214.8707	1342.8563	1380.0545	1399.7702	1419.617	1481.0152	1484.8408	1768.3831	1849.906	2311.8744	2931.6055	2937.3613	3054.2473	3134.9523	3148.6029	3816.5897
CC(O)(C=O)C#CC=O	C[C@@](O)(C=O)C#CC=O	
InChI=1S/C6H6O3/c1-6(9,5-8)3-2-4-7/h4-5,9H,1H3	InChI=1S/C6H6O3/c1-6(9,5-8)3-2-4-7/h4-5,9H,1H3/t6-/m0/s1
