18
gdb 75820	2.62002	1.62022	1.22137	3.3094	71.63	-0.2435	0.0112	0.2547	1051.6602	0.148305	-439.116481	-439.108221	-439.107277	-439.149029	32.127	
C	-0.0996108256	 1.5162258733	 0.0232286247	-0.490023
C	 0.032060941	 0.0125510888	-0.0071438414	 0.340898
C	-0.7904239934	-0.8379850835	 0.9396536187	-0.335865
C	 0.7110775116	-0.765249822	 1.1000585861	-0.058204
N	 1.4709619621	-1.8227664214	 0.4807328014	-0.311049
C	 1.2152315412	-1.9242357067	-0.8580325511	 0.366618
O	 1.4551176648	-2.8609109313	-1.5914166247	-0.386369
C	 0.469786092	-0.6500457626	-1.3031803153	-0.047642
O	-0.5879075966	-1.0028625037	-2.1650603544	-0.437417
H	 0.815006424	 2.0017700328	-0.3353933911	 0.121161
H	-0.926107438	 1.8435463276	-0.6164752569	 0.138186
H	-0.2977219945	 1.8794681087	 1.0364950831	 0.114901
H	-1.4040717896	-0.3043871548	 1.6577644429	 0.117554
H	-1.218545751	-1.7647749955	 0.5728912288	 0.128377
H	 1.1718796487	-0.2730734343	 1.9486507313	 0.10574
H	 1.7371853826	-2.6544624577	 0.9888776518	 0.254023
H	 1.187838581	 0.0108885233	-1.8189158948	 0.085874
H	-0.2763312903	-1.783465541	-2.6464880689	 0.293237
85.0201	194.1614	208.4372	235.9608	276.5298	304.141	429.6449	451.9817	493.0359	508.7042	536.8836	589.781	718.747	721.8947	752.9075	851.7348	896.0945	902.0872	965.226	971.9534	1031.4015	1042.413	1090.4228	1116.8163	1122.7371	1137.1351	1213.8994	1263.7064	1286.6183	1333.5196	1357.9662	1381.316	1416.2187	1421.3913	1442.3431	1488.4988	1489.8235	1502.6916	1823.9172	2952.9664	3028.4581	3093.5476	3102.6843	3131.3036	3177.8549	3221.7779	3602.4727	3729.5169
CC12CC1NC(=O)C2O	C[C@]12C[C@H]1NC(=O)[C@H]2O	
InChI=1S/C6H9NO2/c1-6-2-3(6)7-5(9)4(6)8/h3-4,8H,2H2,1H3,(H,7,9)	InChI=1S/C6H9NO2/c1-6-2-3(6)7-5(9)4(6)8/h3-4,8H,2H2,1H3,(H,7,9)/t3-,4-,6+/m1/s1
