17
gdb 32699	3.56041	1.01051	0.83461	1.9695	74.33	-0.1807	0.051	0.2318	1377.9248	0.134853	-455.159824	-455.150518	-455.149574	-455.194962	33.299	
C	-0.2526080618	 1.4813702488	 0.1607102425	-0.35742
C	 0.0355111184	-0.0204982444	 0.057105812	-0.136644
N	 0.7245802874	-0.5132567156	 1.2386871814	-0.375922
C	 0.0841222202	-1.1401747049	 2.1244541882	 0.505956
N	 0.5747619578	-1.65550085	 3.3076718254	-0.3727
C	-0.4253824732	-2.4491932406	 3.9199978394	-0.222632
C	-1.5295767839	-2.2715285485	 3.1934088093	 0.385714
O	-2.7970824241	-2.6629053941	 3.375508321	-0.42027
O	-1.2799237457	-1.462062023	 2.1055245578	-0.259457
H	 0.6709398817	 2.0354990901	 0.3520864641	 0.122367
H	-0.6972720615	 1.8562500764	-0.767449656	 0.103112
H	-0.9467277528	 1.6886063558	 0.9815325595	 0.114131
H	-0.9021520515	-0.5608603693	-0.1367887095	 0.090109
H	 0.6893025458	-0.1968152002	-0.8059619848	 0.09658
H	 1.5610843671	-1.8348252411	 3.3884013879	 0.268271
H	-0.2722629222	-2.9783647214	 4.8421340047	 0.145536
H	-3.2443042718	-2.649745328	 2.5204472171	 0.313269
26.7796	112.1481	138.2949	170.3606	180.1029	263.0317	299.1576	395.5976	397.3367	432.6417	552.2847	608.9316	641.	688.3927	722.4707	752.8879	816.2084	887.8449	925.8884	983.1505	1065.394	1068.2962	1120.7151	1149.4459	1174.0297	1239.4522	1310.5082	1320.1037	1378.1868	1389.1442	1400.2192	1405.322	1488.5395	1495.125	1514.5333	1779.1715	1831.8393	2997.3243	3033.0013	3038.6337	3103.4349	3114.6013	3308.4652	3672.6885	3801.0411
CCN=C1NC=C(O)O1	CCN=c1[nH]cc(O)o1	
InChI=1S/C5H8N2O2/c1-2-6-5-7-3-4(8)9-5/h3,8H,2H2,1H3,(H,6,7)	InChI=1S/C5H8N2O2/c1-2-6-5-7-3-4(8)9-5/h3,8H,2H2,1H3,(H,6,7)
