17
gdb 22336	2.88022	1.27422	0.99451	3.8378	74.49	-0.2338	-0.0385	0.1953	1200.3935	0.136158	-455.146791	-455.138162	-455.137218	-455.180447	32.186	
C	 0.2313193373	 1.5332655029	-0.0206272598	-0.38698
C	-0.0347049121	 0.0244238037	-0.0338326299	 0.028229
C	 0.6309268446	-0.7047459143	-1.2313752053	-0.30643
C	 1.8724444557	-1.3254865895	-0.6391836126	 0.275433
N	 2.8405985712	-1.7021521069	-1.3782421131	-0.215066
O	 3.8990402815	-2.2615548234	-0.6839699567	-0.352105
C	 1.721477263	-1.3569702011	 0.8654395934	 0.35953
O	 2.4315119952	-1.8694880622	 1.7002192367	-0.364109
N	 0.562185809	-0.6580890455	 1.1087467896	-0.324259
H	 1.3058725803	 1.7372179026	-0.0725520168	 0.131132
H	-0.2558293739	 2.0160912295	-0.8739747476	 0.123068
H	-0.1585551179	 1.9923894513	 0.8937765725	 0.117833
H	-1.117119752	-0.1464474262	-0.0385323501	 0.090349
H	-0.0340129076	-1.489314958	-1.6093748422	 0.131407
H	 0.8527946994	-0.0312163463	-2.0611427041	 0.129648
H	 4.5196333353	-2.4658449425	-1.3929006371	 0.311621
H	 0.3130795009	-0.439346094	 2.0613419833	 0.250698
51.6778	98.0401	215.2105	258.4238	271.4484	325.6238	336.8874	411.0899	448.8596	495.5809	505.7206	544.9085	678.0391	728.2238	746.3676	773.0454	845.8312	919.4559	982.3045	1024.5071	1044.0036	1094.0984	1136.6993	1168.9317	1213.3513	1271.8537	1275.3041	1343.3248	1393.3212	1409.353	1422.4276	1433.6325	1475.4237	1494.7978	1495.9387	1734.2184	1823.3533	3031.3381	3032.1723	3049.4101	3104.4014	3111.594	3114.5645	3630.1342	3801.7523
CC1CC(=NO)C(=O)N1	C[C@H]1CC(=NO)C(=O)N1	
InChI=1S/C5H8N2O2/c1-3-2-4(7-9)5(8)6-3/h3,9H,2H2,1H3,(H,6,8)	InChI=1S/C5H8N2O2/c1-3-2-4(7-9)5(8)6-3/h3,9H,2H2,1H3,(H,6,8)/t3-/m0/s1
