16
gdb 126028	3.0113	1.63679	1.11687	3.3639	70.84	-0.2171	-0.0132	0.2039	1050.3876	0.125831	-437.862095	-437.854751	-437.853807	-437.894336	27.616	
C	 0.0102306468	 1.5935839358	-0.032024923	-0.401442
C	 0.0027984992	 0.0644650663	 0.0730732956	-0.166473
C	 0.7432867933	-0.6435899698	-1.1290257134	-0.102295
O	 1.6117362347	-1.7048667127	-0.6196710749	-0.289236
C	 1.6521352993	-1.488662907	 0.7214739371	 0.23672
C	 0.8156931635	-0.5349819903	 1.1747671665	 0.312601
O	 0.8982903187	-0.4162264989	 2.5035688921	-0.224323
N	 1.8538677433	-1.344996567	 2.9498070731	-0.141858
C	 2.2960254032	-1.9809035947	 1.8773818003	-0.111166
H	 1.0344114186	 1.9758685134	-0.0814411805	 0.128603
H	-0.5244054755	 1.9221506182	-0.9290613605	 0.123395
H	-0.4800380813	 2.0439331047	 0.8354390177	 0.13791
H	-1.0384876251	-0.2803560073	 0.131767343	 0.107624
H	 0.0556188583	-1.098497839	-1.8440898351	 0.128286
H	 1.3780542151	 0.079865673	-1.6534310665	 0.121272
H	 3.0454633777	-2.7483253747	 1.9998303285	 0.140382
68.0084	145.6294	222.1377	263.3419	333.6801	408.0959	477.5096	593.455	630.8959	659.723	725.9505	743.8936	873.1187	886.1491	895.2377	929.5985	957.3346	967.3741	1028.4571	1097.9302	1134.4562	1162.7375	1197.7274	1233.3766	1281.2305	1334.8261	1365.7932	1375.319	1412.01	1428.7801	1495.3943	1498.0357	1504.3189	1527.803	1683.1812	3007.4369	3037.2893	3041.7164	3110.4073	3116.7812	3121.0485	3256.2309
CC1COC2=C1ON=C2	C[C@H]1COc2c1onc2	
InChI=1S/C6H7NO2/c1-4-3-8-5-2-7-9-6(4)5/h2,4H,3H2,1H3	InChI=1S/C6H7NO2/c1-4-3-8-5-2-7-9-6(4)5/h2,4H,3H2,1H3/t4-/m0/s1
