17
gdb 73019	2.85343	1.46779	1.17664	1.7089	68.13	-0.2362	0.0516	0.2878	1059.0981	0.134917	-458.872796	-458.86476	-458.863816	-458.905544	30.056	
O	 0.038676716	 1.4606849242	 0.1148371116	-0.445453
C	 0.0231526256	 0.0839662939	 0.0585515846	 0.225916
C	-0.8497788832	-0.7531235032	-0.8764797082	-0.14529
O	-1.0694885918	-1.7385205995	 0.1726660373	-0.285285
C	-0.3573743462	-0.9311381124	 1.1159749129	-0.048914
C	 1.0709378206	-0.7933398033	 0.6965049455	 0.210501
C	 2.0645032623	-1.8099699822	 0.1471237509	-0.144892
O	 3.1054494221	-1.2638356077	 0.9934995697	-0.276186
C	 2.2179178912	-0.2761224874	 1.558943433	-0.148651
H	 0.8159658917	 1.7812493756	-0.3571889916	 0.294674
H	-1.7870344998	-0.2488819511	-1.1359416425	 0.1207
H	-0.3925003481	-1.1888392195	-1.7724128911	 0.106388
H	-0.7325822453	-0.8612362856	 2.1308758529	 0.115783
H	 1.8455169946	-2.8582042536	 0.3814060663	 0.116802
H	 2.3155826412	-1.721676261	-0.918208244	 0.099251
H	 2.5507686228	 0.7496183976	 1.3485480799	 0.094621
H	 2.1014031562	-0.3931319447	 2.6441384329	 0.110037
86.6276	148.2181	170.5046	236.3085	263.8601	303.3159	375.1453	430.2587	524.3121	575.0801	679.3959	754.2225	859.5481	916.9378	953.8185	964.0281	977.9156	999.0928	1025.4216	1028.8028	1040.5946	1095.2828	1129.8993	1145.131	1146.8201	1150.545	1173.0848	1224.1889	1267.7381	1302.3447	1317.4583	1348.6332	1381.7505	1482.7511	1511.5231	1513.296	1535.8246	2996.6059	3010.4027	3027.7759	3038.7481	3058.7801	3083.5872	3180.4638	3785.5196
OC12COC1C21COC1	O[C@]12CO[C@H]1C12COC1	
InChI=1S/C6H8O3/c7-6-3-9-4(6)5(6)1-8-2-5/h4,7H,1-3H2	InChI=1S/C6H8O3/c7-6-3-9-4(6)5(6)1-8-2-5/h4,7H,1-3H2/t4-,6+/m0/s1
