17
gdb 15870	2.5605	2.05405	1.26701	1.5295	71.54	-0.2273	0.0302	0.2575	974.5035	0.140189	-363.794624	-363.786102	-363.785158	-363.827457	31.435	
C	 0.0137363904	 1.466666014	-0.0227836232	-0.327687
N	-0.0541769899	 0.0287503996	 0.105166406	-0.067159
C	-1.3156139012	-0.607549354	 0.5287078264	-0.214277
C	-0.4846878579	-1.671900948	 1.2906717176	 0.140019
O	-0.2603672017	-2.87628839	 0.6167369514	-0.425642
C	 0.6823121391	-0.6195198591	 1.2162687255	-0.235422
C	 2.0262770648	-1.0754030359	 0.9145186954	 0.343258
C	 3.1302058655	-1.4730735968	 0.6516179192	-0.426535
H	 1.0423398906	 1.7678378878	-0.2452279202	 0.131346
H	-0.6211117797	 1.7948138554	-0.8523124849	 0.124445
H	-0.3131878678	 1.9980235542	 0.8914635456	 0.092186
H	-1.9174778039	 0.0157016102	 1.2117246488	 0.085023
H	-1.9509111308	-0.9689534375	-0.2863639812	 0.107679
H	-0.821373849	-1.9312030705	 2.2945829817	 0.09915
H	 0.1790133671	-2.671794172	-0.2174380771	 0.291368
H	 0.688262662	-0.0030357412	 2.1327298068	 0.083442
H	 4.1078561525	-1.8204276561	 0.4247169122	 0.198807
79.8712	126.2877	161.005	233.8474	281.1952	314.3262	334.8695	365.1225	413.3148	529.1838	564.0924	628.4606	653.5471	741.6427	806.9618	861.6878	931.124	979.8875	1017.7248	1063.5835	1113.2271	1153.4073	1159.0813	1184.7226	1224.7418	1246.3606	1264.2153	1308.0221	1327.3939	1367.6124	1443.1298	1449.9893	1487.0363	1496.991	1511.7219	2233.3295	2926.2593	2939.4776	2962.3036	3061.7515	3069.8555	3105.0218	3116.6516	3502.2618	3793.6803
CN1CC(O)C1C#C	CN1C[C@@H](O)[C@H]1C#C	
InChI=1S/C6H9NO/c1-3-5-6(8)4-7(5)2/h1,5-6,8H,4H2,2H3	InChI=1S/C6H9NO/c1-3-5-6(8)4-7(5)2/h1,5-6,8H,4H2,2H3/t5-,6-/m1/s1
