17
gdb 55714	2.48802	1.30655	1.06914	1.778	75.38	-0.2491	0.0117	0.2608	1199.7095	0.131881	-421.811016	-421.801408	-421.800464	-421.846234	34.477	
C	 0.0899919073	 1.4503463049	-0.1544872313	-0.480839
C	-0.2063818231	-0.0188032932	 0.0212805814	 0.412029
O	-0.8008615105	-0.5173232866	 0.9367325309	-0.33557
O	 0.3099614134	-0.7231921231	-1.0278292167	-0.280836
C	 0.153104232	-2.1363260053	-0.9860297037	 0.274985
C	-1.2140627859	-2.6843312802	-1.3171722885	-0.298285
C	-0.1123706492	-2.7485882503	-2.3413519091	-0.318753
C	 1.003496115	-2.8121352959	-0.0466645754	 0.323591
C	 1.7298058251	-3.387371108	 0.7189189254	-0.484969
H	 1.1709719627	 1.6148238214	-0.1173035487	 0.155345
H	-0.2574945039	 1.7948120436	-1.1321212388	 0.147605
H	-0.39632796	 2.0148036962	 0.6400249585	 0.149378
H	-1.5191839949	-3.5924633646	-0.8122424005	 0.137895
H	-1.9989112729	-1.9513247869	-1.4587153404	 0.132673
H	-0.1484382486	-2.0528977452	-3.1716257034	 0.131882
H	 0.3537952416	-3.7027716796	-2.5535122402	 0.133765
H	 2.3601690417	-3.8899603371	 1.4100012807	 0.200105
51.5042	74.1395	91.4173	150.7753	186.7086	215.0758	336.9697	359.7081	401.3625	533.8427	553.5827	585.2055	607.31	614.3269	687.2933	734.3614	765.2974	861.7151	920.4399	933.0798	970.3994	1002.0945	1033.9963	1063.6453	1067.9704	1083.134	1189.8714	1224.3554	1267.0339	1319.8701	1393.6915	1453.3129	1469.1444	1474.9543	1486.2446	1844.4706	2240.5673	3057.6018	3122.845	3147.2506	3153.0331	3170.1882	3235.8595	3249.8285	3503.4064
CC(=O)OC1(CC1)C#C	CC(=O)OC1(CC1)C#C	
InChI=1S/C7H8O2/c1-3-7(4-5-7)9-6(2)8/h1H,4-5H2,2H3	InChI=1S/C7H8O2/c1-3-7(4-5-7)9-6(2)8/h1H,4-5H2,2H3
