24
gdb 14789	11.36488	0.48278	0.47256	1.3122	83.35	-0.2612	0.0815	0.3427	2365.6253	0.221952	-351.414823	-351.403926	-351.402982	-351.451614	37.867	
C	 0.0459932733	 1.5834422892	 0.0100488838	-0.379053
C	 0.0160538352	 0.0526404712	 0.0021349016	-0.162811
C	-1.4038046238	-0.5240517276	 0.0126375704	-0.159356
C	-1.4424662168	-2.055602123	 0.0048048907	-0.175448
C	-2.8629394017	-2.6309449712	 0.0153147943	-0.185046
C	-2.8942013524	-4.1620263088	 0.0074156205	-0.164274
C	-4.3068312485	-4.7298495635	 0.0178967209	-0.073602
O	-4.212822199	-6.1472831917	 0.0093861009	-0.422023
H	 1.0720410002	 1.9646122459	 0.0022680374	 0.109865
H	-0.4681857367	 1.9939186182	-0.8662926364	 0.112272
H	-0.4512724007	 1.9844535894	 0.9004207703	 0.112272
H	 0.5508667048	-0.3200668283	-0.8816350497	 0.093426
H	 0.567649882	-0.3294588958	 0.8714604577	 0.093426
H	-1.9398417985	-0.1508732291	 0.8968413958	 0.089514
H	-1.9566283945	-0.1414809304	-0.8570980066	 0.089514
H	-0.9070327341	-2.4286480653	-0.8793294924	 0.092605
H	-0.8902483962	-2.4380432511	 0.8744830826	 0.092605
H	-3.39776796	-2.2572003591	 0.8998286124	 0.091602
H	-3.4145523552	-2.2478068998	-0.8547536819	 0.091603
H	-2.3728761058	-4.5459076951	-0.8783205411	 0.102963
H	-2.3560521922	-4.5553178402	 0.8788455834	 0.102962
H	-4.8446913189	-4.3721749879	 0.9117423324	 0.081559
H	-4.8616726625	-4.3626557093	-0.8615950458	 0.081559
H	-5.104311788	-6.5073754564	 0.0160736088	 0.283867
52.184	77.5741	79.1384	115.9815	143.2745	166.6958	197.9248	243.7358	266.2431	272.0519	350.4731	466.6089	496.64	734.0974	744.4877	779.8427	845.9279	897.9271	934.9226	986.4706	1024.0639	1028.2408	1034.3364	1064.8525	1071.8122	1080.6498	1133.0726	1194.1082	1225.1724	1225.278	1270.4002	1274.7968	1310.9273	1316.5936	1319.5815	1334.8863	1339.5446	1364.6086	1398.57	1403.1074	1412.9518	1464.3833	1484.3981	1485.2845	1490.6292	1498.4431	1499.0098	1507.9004	1516.0286	1530.0076	2955.7139	2980.1073	2999.6605	3001.3811	3008.9344	3017.382	3020.8336	3027.34	3028.2166	3029.6135	3043.5538	3059.0513	3074.8352	3094.2488	3099.8462	3829.1149
CCCCCCCO	CCCCCCCO	
InChI=1S/C7H16O/c1-2-3-4-5-6-7-8/h8H,2-7H2,1H3	InChI=1S/C7H16O/c1-2-3-4-5-6-7-8/h8H,2-7H2,1H3
