15
gdb 77276	2.22456	1.37792	1.06529	5.0747	68.32	-0.2706	-0.0054	0.2652	1146.5355	0.111057	-453.922252	-453.913347	-453.912403	-453.95665	31.28	
O	 0.1255597294	 1.3922077432	 0.0189660895	-0.404787
C	 0.1145366912	 0.018202736	-0.0211000332	 0.112845
C	-1.1546359817	-0.7166675595	 0.2507679001	 0.023128
O	-2.2188859304	 0.1350431409	 0.5394283753	-0.207144
C	-3.4645586386	-0.2510745081	 0.1266429091	 0.139666
N	-4.4569108009	 0.4241517936	 0.493662858	-0.423097
C	-0.5808048226	-0.7326673369	-1.1784526884	-0.291958
C	-1.2356815818	 0.0133914382	-2.2072960314	 0.306608
N	-1.776845925	 0.6108832973	-3.0374056013	-0.332362
H	-0.7730135081	 1.695935037	 0.2093393868	 0.315937
H	 1.0488989933	-0.4160802778	 0.3187784121	 0.132423
H	-1.1485751485	-1.6520885024	 0.8042810392	 0.129301
H	-3.4493660991	-1.1433559989	-0.5082819343	 0.112767
H	-5.3135579031	 0.038382609	 0.1022570097	 0.244166
H	-0.1286631644	-1.6647669318	-1.5016007814	 0.142507
65.2647	109.6182	113.4295	130.3474	179.788	292.4633	342.5524	389.7357	403.2912	542.2696	624.2207	672.8028	708.2322	734.631	776.3647	827.7294	929.3624	977.0584	1035.6041	1041.1354	1050.7096	1110.2498	1112.5661	1187.2279	1242.3848	1269.8944	1343.2929	1355.8639	1368.2116	1411.837	1456.9832	1755.6312	2353.3568	3068.7255	3140.2922	3165.632	3175.3377	3527.0575	3757.1735
OC1C(OC=N)C1C#N	O[C@H]1[C@@H](O[CH][NH])[C@H]1C#N	
InChI=1S/C5H6N2O2/c6-1-3-4(8)5(3)9-2-7/h2-5,7-8H	InChI=1S/C5H6N2O2/c6-1-3-4(8)5(3)9-2-7/h2-5,7-8H/t3-,4+,5-/m0/s1
