20
gdb 63513	3.14575	1.26987	1.24682	2.8451	79.7	-0.231	0.0743	0.3052	1132.7161	0.169404	-403.04968	-403.041129	-403.040185	-403.08237	33.554	
C	-0.0635778929	 1.5527760741	-0.0925430657	-0.437825
C	-0.0705470993	 0.0415981059	 0.0144329171	 0.187611
C	-1.245936046	-0.6465640163	-0.6512622801	-0.460032
N	 1.2838671321	-0.5842640493	-0.125720309	-0.448521
C	 0.6006029225	-0.6329110574	 1.1403440963	 0.45911
C	 1.1526023346	-0.2901887813	 2.5351224059	-0.05503
C	-0.185559401	-0.7740355258	 3.1473315283	-0.218701
C	 0.2756010225	-1.803195713	 2.0849053853	-0.068692
O	 1.6528395023	-1.688316458	 2.6265668987	-0.311274
H	 0.8374105079	 1.9686329689	 0.3636357716	 0.128463
H	-0.0848591189	 1.8642259313	-1.1431074702	 0.119428
H	-0.9396199048	 1.9857601665	 0.4036298014	 0.112643
H	-1.2554561068	-0.4376616311	-1.7275657171	 0.124422
H	-1.2065265627	-1.7317939068	-0.51573512	 0.113479
H	-2.1972988021	-0.2905047764	-0.2401399403	 0.123429
H	 1.2294212363	-1.4787947154	-0.6087754158	 0.227599
H	 1.8226359397	 0.5075429321	 2.8525719222	 0.101637
H	-0.1076205596	-1.1268897771	 4.1758698748	 0.109771
H	-1.0896732147	-0.1917220627	 2.9515073997	 0.097896
H	-0.1016554291	-2.804255988	 1.8730808069	 0.094588
143.9873	149.5498	165.6058	200.187	234.2124	309.7584	380.8522	422.3857	452.7078	486.7976	573.5861	659.2472	750.3413	753.9973	805.5767	863.5125	899.6381	910.0833	933.5914	959.5169	972.8215	1007.7649	1023.6166	1051.6278	1062.4206	1109.0225	1119.5127	1141.7359	1169.5704	1185.7237	1196.2448	1231.0806	1260.6928	1273.267	1304.7965	1408.5572	1420.853	1469.1061	1477.49	1485.3733	1489.5335	1499.4817	1535.2945	3023.5803	3030.3157	3063.3601	3084.6814	3090.0049	3102.6013	3114.4058	3126.1375	3134.7191	3152.9671	3486.1105
CC1(C)NC11C2CC1O2	CC1(C)N[C@]21[C@H]1C[C@@H]2O1	
InChI=1S/C7H11NO/c1-6(2)7(8-6)4-3-5(7)9-4/h4-5,8H,3H2,1-2H3	InChI=1S/C7H11NO/c1-6(2)7(8-6)4-3-5(7)9-4/h4-5,8H,3H2,1-2H3/t4-,5+,7-
