21
gdb 92735	2.90965	1.23374	0.92172	2.6796	85.41	-0.2331	-0.0092	0.2238	1323.3772	0.181884	-387.142186	-387.13287	-387.131926	-387.176232	35.066	
C	-0.0656668159	 1.5591316425	 0.0179355989	-0.39904
C	 0.0935776567	 0.0411972451	 0.0142311894	-0.087234
C	 0.8007620607	-0.4928660408	-1.2525798892	-0.257849
C	 1.1106868485	-1.9632992541	-1.1723204756	-0.158045
C	 1.1909330483	-2.6547028093	-0.033266836	 0.312315
C	 1.4918515644	-4.1277101233	 0.0073819116	-0.470589
C	 1.0031809601	-1.9855407093	 1.3111338149	-0.396464
C	 0.8307274019	-0.4727358925	 1.2438918015	 0.382965
O	 1.2496541526	 0.2546578607	 2.1146125256	-0.31554
H	 0.911042353	 2.0517575034	 0.0197040525	 0.127265
H	-0.6185781326	 1.8913662267	-0.866303441	 0.105839
H	-0.5999855589	 1.8964799122	 0.9092350849	 0.126237
H	-0.8974817034	-0.4379541274	 0.0412184178	 0.094328
H	 0.1688249674	-0.2897369737	-2.1257869975	 0.108584
H	 1.7248240662	 0.0809639374	-1.4213629356	 0.117055
H	 1.2805907929	-2.4783902752	-2.1154276763	 0.081399
H	 1.6132877838	-4.5426748236	-0.9965264053	 0.122085
H	 2.4096875399	-4.3289891214	 0.5746633342	 0.126272
H	 0.6890946959	-4.6815919223	 0.5116875399	 0.122654
H	 0.1145481932	-2.4014534385	 1.8134094094	 0.128955
H	 1.8428822854	-2.1986680467	 1.9832298558	 0.128808
77.1231	87.0819	184.6669	192.4323	263.8029	266.3332	284.4456	338.0674	390.8502	424.3356	460.8804	564.9457	611.2565	687.7786	727.3719	801.5023	858.5059	909.8817	924.1863	944.491	995.2166	1045.3436	1048.405	1083.8875	1103.3454	1138.3866	1154.3036	1167.069	1206.2699	1227.2607	1305.0952	1312.1568	1330.791	1372.4522	1389.6997	1412.7484	1415.1726	1446.1689	1477.9623	1482.6715	1490.0315	1491.7186	1494.0701	1744.7656	1812.6701	2984.6602	2988.8715	2999.8617	3014.5319	3042.5191	3044.8277	3056.8424	3060.4788	3112.7044	3112.9688	3124.3803	3147.483
CC1CC=C(C)CC1=O	C[C@H]1CC=C(C)CC1=O	
InChI=1S/C8H12O/c1-6-3-4-7(2)8(9)5-6/h3,7H,4-5H2,1-2H3	InChI=1S/C8H12O/c1-6-3-4-7(2)8(9)5-6/h3,7H,4-5H2,1-2H3/t7-/m0/s1
