14
gdb 5092	3.33145	2.02498	1.26812	3.1561	59.68	-0.1691	0.0439	0.2131	885.5535	0.107805	-415.872998	-415.865024	-415.864079	-415.904643	30.025	
N	 0.1540577233	 1.4055827715	-0.130709011	-0.644779
C	 0.0392729724	-0.0114974153	-0.0758168715	-0.062339
C	-1.0665385889	-0.8347464289	-0.0084296476	 0.35207
O	-2.3973812499	-0.5679516876	 0.0278471828	-0.436817
N	-0.6516681099	-2.1243494287	 0.0235600285	-0.304152
C	 0.7475992194	-2.1763694882	-0.0221983932	-0.212542
C	 1.1790739136	-0.8794641902	-0.08364723	 0.319682
O	 2.4588832432	-0.4306168169	-0.1436437878	-0.45372
H	-0.1983159042	 1.8849576528	 0.6901792409	 0.237837
H	-0.2540159554	 1.8256707666	-0.9582537598	 0.237813
H	-2.5001124601	 0.3892133656	-0.0051251379	 0.29616
H	-1.268269387	-2.914794296	 0.0735938268	 0.264721
H	 1.2764894224	-3.1120975943	-0.0066731453	 0.115356
H	 2.3847711411	 0.5344986996	-0.175759735	 0.29071
172.9045	208.5889	230.2494	235.7767	276.8292	295.894	323.0896	419.9546	520.2383	565.9469	577.5115	586.964	653.2713	701.8936	716.6323	760.2827	784.8541	1054.3621	1081.1156	1176.7821	1191.8896	1202.2255	1262.7765	1345.2236	1381.3481	1458.1868	1571.8216	1620.8355	1649.1778	1679.817	3293.5132	3498.0183	3569.9101	3700.0898	3730.9981	3821.8148
NC1=C(O)NC=C1O	Nc1c(O)[nH]cc1O	
InChI=1S/C4H6N2O2/c5-3-2(7)1-6-4(3)8/h1,6-8H,5H2	InChI=1S/C4H6N2O2/c5-3-2(7)1-6-4(3)8/h1,6-8H,5H2
