19
gdb 113259	2.88681	0.8769	0.79899	3.7569	73.15	-0.2724	0.002	0.2744	1480.3798	0.156239	-460.164644	-460.154694	-460.15375	-460.199865	35.614	
C	 0.0905406131	 1.5107110153	-0.4782600062	-0.452995
C	 0.0070870663	 0.0883484132	 0.0237842487	 0.384467
C	 1.2115549909	-0.8027427907	 0.0589585176	-0.3488
C	 0.5469077179	-0.3750436942	 1.3575656039	-0.091975
C	 1.2558550926	 0.5343186104	 2.3366797613	-0.083299
O	 2.0908584188	-0.1927092285	 3.2226673367	-0.410484
O	-1.1668682137	-0.5764263844	-0.4418673268	-0.223266
C	-2.3120232549	-0.3497535841	 0.2368124503	 0.160207
O	-3.360725962	-0.8074831912	-0.103942013	-0.272316
H	 1.0460025671	 1.9701184059	-0.2160013924	 0.128677
H	-0.0061604996	 1.5203512101	-1.5682317328	 0.141977
H	-0.7097974373	 2.1316067814	-0.0615387509	 0.127271
H	 1.0803326576	-1.8269160486	-0.2693386303	 0.137603
H	 2.1647855591	-0.3540752624	-0.2044041799	 0.117001
H	-0.0411936357	-1.1499502913	 1.8416580246	 0.112064
H	 1.8240382439	 1.3093932113	 1.7994931821	 0.087047
H	 0.5307971105	 1.0499948279	 2.9758227758	 0.117979
H	 2.7096705968	-0.7005213431	 2.6868030991	 0.285002
H	-2.1646293714	 0.2853110431	 1.1303252122	 0.083838
69.0968	105.2435	135.3683	150.4247	175.2433	221.6527	244.9117	319.3225	350.8668	375.762	414.1884	440.471	527.3802	604.1907	766.0984	855.6601	877.0329	926.6786	947.0201	988.6532	1041.4938	1050.296	1056.1767	1070.6415	1114.2814	1131.1394	1161.2754	1182.2417	1223.4578	1247.2459	1319.9253	1363.3969	1407.3776	1419.7053	1422.2081	1434.9966	1476.3084	1484.1076	1503.4937	1506.8913	1866.1931	2964.0617	2983.2338	3039.6862	3067.3409	3104.3417	3127.1712	3131.623	3152.1002	3225.8115	3807.6268
CC1(CC1CO)OC=O	C[C@]1(C[C@H]1CO)OC=O	
InChI=1S/C6H10O3/c1-6(9-4-8)2-5(6)3-7/h4-5,7H,2-3H2,1H3	InChI=1S/C6H10O3/c1-6(9-4-8)2-5(6)3-7/h4-5,7H,2-3H2,1H3/t5-,6+/m0/s1
