16
gdb 60761	2.6375	1.16035	0.83205	4.636	68.99	-0.2542	-0.062	0.1921	1322.8856	0.121373	-475.08375	-475.07417	-475.073225	-475.119118	32.608	
C	-0.8546311709	 1.6464367412	-0.254004998	-0.404997
C	 0.1220504359	 0.4788760825	-0.1291727234	-0.210615
C	-0.5607122328	-0.7953389363	 0.3513635973	 0.149925
O	-0.0014055625	-1.8543698164	 0.5151421918	-0.2582
C	 0.9319265474	 0.2811078275	-1.4395166386	 0.424901
O	 0.853626542	 1.0622933242	-2.350282692	-0.297629
N	 1.7575045028	-0.8390195105	-1.4146094107	-0.354684
C	 2.6630726592	-1.2413578561	-2.3950441773	 0.164872
O	 2.9483053389	-0.6442580117	-3.3950282682	-0.252122
H	-0.3283811486	 2.5569514891	-0.5408735502	 0.152846
H	-1.6050314287	 1.4467219217	-1.0239907879	 0.14178
H	-1.3676976675	 1.8196071955	 0.6967011802	 0.118119
H	 0.8778841663	 0.6981426724	 0.6405561711	 0.147174
H	-1.6454545024	-0.6929158609	 0.5641449772	 0.112427
H	 1.6058969809	-1.4752633357	-0.6372078177	 0.274057
H	 3.1116863601	-2.2157421264	-2.1153488034	 0.092148
61.3958	72.5092	119.8436	157.6352	176.7811	213.8301	243.9311	306.4079	338.8462	363.1579	506.9255	595.6463	676.1635	717.9016	768.2482	910.7621	940.3564	948.2965	1027.2857	1033.1224	1079.5025	1138.0902	1154.0497	1191.4249	1242.0408	1305.1621	1411.654	1425.9258	1445.5713	1489.6081	1493.7701	1543.5806	1800.5721	1809.8568	1871.7193	2919.5195	2933.3276	3006.347	3052.8006	3120.8458	3153.2054	3509.0185
CC(C=O)C(=O)NC=O	C[C@@H](C=O)C(=O)NC=O	
InChI=1S/C5H7NO3/c1-4(2-7)5(9)6-3-8/h2-4H,1H3,(H,6,8,9)	InChI=1S/C5H7NO3/c1-4(2-7)5(9)6-3-8/h2-4H,1H3,(H,6,8,9)/t4-/m0/s1
