20
gdb 79583	2.10578	1.72753	1.50245	1.7026	79.	-0.2256	0.0689	0.2945	1042.7639	0.169182	-403.087623	-403.078554	-403.07761	-403.12061	35.047	
C	-0.0926489055	 1.5677653003	-0.0152677107	-0.426563
C	 0.0538469099	 0.0707741476	 0.137820589	-0.026428
N	 1.2988982317	-0.6843657482	-0.1569940568	-0.187695
C	 2.4200163897	 0.1401603844	 0.3386314949	-0.056177
C	 3.1781770292	-0.62912771	 1.3862434618	-0.353234
C	 1.915854678	 0.1163410159	 1.765319123	 0.31334
O	 1.8880573578	 1.1301443365	 2.7104487748	-0.465894
C	 0.705347629	-0.6438230549	 1.2691965778	 0.249922
C	 0.1106825704	-1.8454532145	 1.9459112029	-0.502449
H	 0.6999921755	 2.1241993477	 0.4861430643	 0.142818
H	-0.0975188214	 1.8433516934	-1.075995459	 0.119469
H	-1.0475792535	 1.8888452955	 0.4140137989	 0.120631
H	-0.793238922	-0.479817686	-0.2710603635	 0.088998
H	 2.8501239068	 0.9394712338	-0.2522035079	 0.099092
H	 3.208604737	-1.7150803343	 1.3449827095	 0.11303
H	 4.0922319845	-0.1498491233	 1.7257012023	 0.111118
H	 2.1882419358	 0.7731761101	 3.5531761529	 0.287174
H	-0.4939440679	-1.5385021098	 2.8077450804	 0.122617
H	-0.5368183756	-2.4030434316	 1.2635622986	 0.13067
H	 0.8897430107	-2.5260933826	 2.3061074166	 0.119561
149.368	163.7166	175.1926	201.8417	224.7158	250.2926	256.8014	361.6562	406.1649	444.7648	527.381	601.9754	627.1196	666.7225	712.1081	816.5663	830.6544	891.9326	922.4411	955.6994	983.1168	1020.3836	1032.8456	1050.8538	1079.1871	1088.7111	1117.0563	1137.442	1163.6594	1184.4832	1241.3767	1302.6145	1313.7833	1318.2421	1393.8205	1410.6671	1411.1279	1454.9919	1484.3154	1486.5004	1492.4247	1495.6866	1501.7148	3026.9768	3036.7921	3087.2717	3093.2399	3107.7012	3108.7853	3113.8456	3146.5242	3189.4261	3201.9625	3797.4643
CC1N2C3CC3(O)C12C	C[C@H]1N2[C@@H]3C[C@]3(O)[C@@]12C	
InChI=1S/C7H11NO/c1-4-6(2)7(9)3-5(7)8(4)6/h4-5,9H,3H2,1-2H3	InChI=1S/C7H11NO/c1-4-6(2)7(9)3-5(7)8(4)6/h4-5,9H,3H2,1-2H3/t4-,5-,6-,7-,8?/m1/s1
