16
gdb 16313	3.17674	1.94319	1.39774	4.1203	64.31	-0.2726	0.0033	0.2759	907.1694	0.129941	-383.743294	-383.735772	-383.734828	-383.775377	27.75	
C	 0.064142562	 1.534278847	 0.191045211	-0.378883
C	 0.0441298482	 0.0237102443	-0.0824147353	-0.298747
C	-1.3510522157	-0.5353018811	-0.0780979323	 0.128821
C	-2.1133139912	-0.9997589123	 1.1802504289	-0.332068
C	-1.9487882843	-1.917185826	 0.0264091258	 0.034024
O	-2.9647934918	-1.6045551574	-0.969118371	-0.267564
C	-2.3900893865	-0.3517587653	-1.1601988342	 0.439776
O	-2.678680795	 0.4591321549	-1.9791535224	-0.329902
H	 1.0863220388	 1.9218775384	 0.1561106285	 0.116113
H	-0.5302761391	 2.0676143554	-0.5561519922	 0.147561
H	-0.3521558824	 1.7611658545	 1.1777354869	 0.119211
H	 0.5111843981	-0.1808042517	-1.0532483966	 0.117144
H	 0.643236086	-0.5043969241	 0.6689965012	 0.103996
H	-1.4653337216	-1.1723326623	 2.0355159372	 0.129451
H	-3.0994986899	-0.61204313	 1.4151053605	 0.138368
H	-1.5060512457	-2.9021762844	-0.011329616	 0.132697
71.4872	142.1664	208.2578	212.2793	292.8674	380.7853	467.3061	490.5731	667.6626	706.0226	781.2205	783.314	849.3702	890.6577	914.3869	931.4623	989.9533	1007.4581	1034.2902	1067.5501	1078.2326	1105.7903	1135.8772	1235.6129	1264.6411	1321.5661	1350.1827	1403.5144	1414.3158	1480.5251	1486.7496	1498.5679	1510.7206	1934.7908	3028.8191	3041.5325	3063.6085	3112.1368	3119.5258	3122.053	3211.5966	3228.0918
CCC12CC1OC2=O	CC[C@]12C[C@H]1OC2=O	
InChI=1S/C6H8O2/c1-2-6-3-4(6)8-5(6)7/h4H,2-3H2,1H3	InChI=1S/C6H8O2/c1-2-6-3-4(6)8-5(6)7/h4H,2-3H2,1H3/t4-,6+/m1/s1
