18
gdb 111476	2.65182	1.61287	1.1243	2.1703	73.18	-0.2466	0.0133	0.26	1096.0946	0.148018	-439.070714	-439.062545	-439.061601	-439.10381	30.771	
C	 0.041522168	 1.2393945311	-0.2457212207	-0.244148
O	-0.0403609439	-0.1539924397	 0.0131589836	-0.244175
C	 0.6734995579	-0.5802961008	 1.1523796126	 0.007495
C	 0.2486988241	-1.9735929612	 1.563548307	-0.086083
C	 0.4353809225	-3.0628878405	 0.520160021	-0.308115
C	 1.4943624829	-2.8073198009	 1.5463913765	 0.077286
O	 2.5930822779	-2.0109326487	 1.1335742149	-0.233636
C	 2.1838877447	-0.7292862719	 0.8885142803	 0.391969
N	 2.9411890902	 0.1964128281	 0.4857601281	-0.531396
H	 1.0683743922	 1.5532749103	-0.4560818854	 0.151424
H	-0.5923753826	 1.4293498385	-1.1150245156	 0.121637
H	-0.3408163518	 1.8209415993	 0.6079106682	 0.099498
H	 0.5274620056	 0.1328070848	 1.9780379901	 0.091921
H	-0.5100576776	-2.0892045011	 2.3260703675	 0.102676
H	-0.1680458136	-3.9567605845	 0.6311919362	 0.122464
H	 0.6285934434	-2.7607548472	-0.5028051111	 0.142851
H	 1.7694566754	-3.5276259361	 2.3059339646	 0.113311
H	 3.8914469849	-0.1495335595	 0.3394243321	 0.225021
62.4509	130.3568	180.757	193.8678	268.063	351.5493	412.0426	441.8569	483.6817	639.2013	694.0355	695.3304	798.8113	824.0063	861.7285	894.6072	954.4065	971.9862	1018.8509	1029.7716	1043.3351	1060.2938	1089.2234	1107.4305	1145.9622	1160.9903	1185.1609	1201.6213	1225.0919	1271.5932	1301.9902	1350.1418	1380.5584	1395.7873	1475.5045	1479.1265	1480.7596	1519.6145	1770.5271	2983.7724	2989.2014	3081.1994	3127.3929	3141.8414	3194.1949	3202.062	3234.1607	3466.6801
COC1C2CC2OC1=N	CO[C@H]1[C@H]2C[C@H]2O[C]1[NH]	
InChI=1S/C6H9NO2/c1-8-5-3-2-4(3)9-6(5)7/h3-5,7H,2H2,1H3	InChI=1S/C6H9NO2/c1-8-5-3-2-4(3)9-6(5)7/h3-5,7H,2H2,1H3/t3-,4+,5-/m0/s1
