20
gdb 95396	2.24232	1.73079	1.0177	3.5616	83.49	-0.2297	-0.0228	0.2069	1197.439	0.171753	-403.206909	-403.197767	-403.196823	-403.240667	33.735	
C	-0.0131867789	 1.4459681877	-0.0003672805	-0.344682
N	 0.0203871565	 0.0035549672	-0.1625081312	-0.116221
C	-1.250546	-0.7043235314	-0.0653797215	-0.158723
C	-1.1924874367	-2.0548770748	-0.7740352392	-0.271853
C	 0.0589962057	-2.793716234	-0.3961923117	-0.157424
C	 1.1667349158	-2.1548141966	-0.0059220255	 0.207046
C	 2.4523001895	-2.8432059956	 0.3527953962	-0.46759
C	 1.2138095523	-0.6566220558	 0.0267293793	 0.370551
O	 2.2747271831	-0.0667212867	 0.1816479226	-0.393913
H	 1.0063677021	 1.8215029597	-0.0711303357	 0.167193
H	-0.6317367965	 1.8994421774	-0.7825976991	 0.118509
H	-0.4288851873	 1.7326492028	 0.9764877402	 0.116666
H	-1.5265557089	-0.852238015	 0.9921259021	 0.104124
H	-2.0253365075	-0.0726841448	-0.5114226602	 0.109506
H	-2.0829295786	-2.637790493	-0.5152049464	 0.11191
H	-1.2228664711	-1.913168872	-1.8645704871	 0.122301
H	 0.0591597228	-3.8779388328	-0.4839196286	 0.093316
H	 3.2671886725	-2.4950118157	-0.2886659789	 0.145143
H	 2.751577111	-2.6051355808	 1.3790122972	 0.135376
H	 2.3563652845	-3.9277697358	 0.257024188	 0.108765
98.0047	130.8459	135.3895	161.6078	217.376	285.8365	294.1841	369.9051	388.5887	446.4564	468.0307	564.3042	625.8279	715.7181	771.6052	869.9305	900.7815	921.7334	943.3164	1040.7433	1071.2852	1073.7673	1076.9962	1106.9977	1154.4456	1206.2358	1229.1017	1246.2932	1295.3563	1340.9522	1375.4798	1387.1491	1413.6545	1427.8734	1458.7231	1468.2308	1473.1045	1485.8846	1498.406	1502.7906	1532.4739	1716.2863	1747.9311	2963.5361	3001.2535	3002.672	3041.0091	3065.6099	3067.5885	3068.2472	3099.0713	3124.038	3150.9396	3167.1515
CN1CCC=C(C)C1=O	CN1CCC=C(C)C1=O	
InChI=1S/C7H11NO/c1-6-4-3-5-8(2)7(6)9/h4H,3,5H2,1-2H3	InChI=1S/C7H11NO/c1-6-4-3-5-8(2)7(6)9/h4H,3,5H2,1-2H3
