13
gdb 127352	3.49256	1.73577	1.16806	5.861	66.57	-0.2461	-0.0524	0.1936	957.4956	0.091031	-448.902552	-448.895644	-448.8947	-448.934153	25.164	
C	 0.0020162042	 1.4773609529	 0.012828189	-0.348181
N	-0.0087354724	 0.0274100707	 0.0349944071	-0.132376
C	-0.1048119942	-0.8262211764	-1.0390277594	 0.012886
N	-0.0956560515	-2.1219305202	-0.7401715528	-0.369937
C	 0.0124557516	-2.096203666	 0.6115128091	 0.418143
C	 0.0670435789	-0.8215332275	 1.1168179847	 0.298737
N	 0.1752145669	-0.8753435331	 2.4617396928	-0.222459
N	 0.1904202481	-2.086023596	 2.8257490457	-0.039109
O	 0.0824435547	-2.9608833972	 1.606603591	-0.24569
H	 0.9319564409	 1.8611638198	 0.441279563	 0.162282
H	-0.0771872698	 1.8123389425	-1.0226293566	 0.153594
H	-0.8420953286	 1.8764666837	 0.5819416863	 0.162273
H	-0.1805573688	-0.4334827931	-2.0432690299	 0.149838
98.6917	160.1993	242.911	250.8062	375.3418	428.6098	579.8253	611.6852	631.3907	645.2287	718.4889	786.1867	825.4989	840.9188	986.3053	1070.3799	1154.8924	1155.5655	1253.535	1296.0838	1359.3922	1387.9841	1445.3005	1472.2803	1479.2093	1483.9595	1516.9074	1553.9938	1586.8998	3049.861	3116.7169	3147.0692	3246.0108
CN1C=NC2=C1N=NO2	Cn1cnc2c1nno2	
InChI=1S/C4H4N4O/c1-8-2-5-4-3(8)6-7-9-4/h2H,1H3	InChI=1S/C4H4N4O/c1-8-2-5-4-3(8)6-7-9-4/h2H,1H3
