18
gdb 5604	3.22601	1.89716	1.31672	3.6616	74.15	-0.2107	0.0343	0.245	968.6837	0.155135	-344.031514	-344.023281	-344.022336	-344.064576	29.575	
C	 0.0814574876	 1.5281461464	 0.1188258753	-0.375714
C	-0.0388196041	 0.0042515227	-0.0624243386	-0.292616
C	 0.6689864735	-0.5171802551	-1.2736378885	 0.332638
N	 0.0789859853	-0.8072296041	-2.4169559975	-0.309981
C	 1.0810222297	-1.2149197603	-3.263509682	-0.10038
C	 2.2901250656	-1.1739000918	-2.6268502605	-0.13512
N	 2.0242017312	-0.7282837088	-1.3472729398	-0.024411
C	 3.0201439082	-0.4905689234	-0.3217188352	-0.342926
H	 1.1212760818	 1.8391719963	 0.264427893	 0.111409
H	-0.3025673154	 2.0485271381	-0.7630475487	 0.136128
H	-0.4909694537	 1.8605125145	 0.9904163206	 0.11505
H	 0.3169152833	-0.5044263473	 0.8426251886	 0.10118
H	-1.0906664813	-0.2673581989	-0.1825722254	 0.134361
H	 0.8732919981	-1.5231727168	-4.2770568426	 0.102424
H	 3.2924335358	-1.4184200841	-2.9390560446	 0.117714
H	 3.4534625438	 0.5127720882	-0.4012214336	 0.141502
H	 2.5712906263	-0.5975833328	 0.6673612575	 0.146054
H	 3.8234271343	-1.2254722127	-0.4137381678	 0.142688
67.14	93.2439	148.9151	199.9447	211.4905	306.1774	386.3385	423.6108	632.514	643.2802	705.4289	719.1609	749.0656	790.6405	846.6658	928.4145	974.4471	1050.4533	1066.5782	1081.6273	1107.3097	1147.8551	1181.8981	1217.451	1285.8542	1310.941	1348.7516	1385.2877	1405.7277	1442.8905	1474.1342	1481.079	1491.418	1497.7075	1504.0406	1512.0457	1530.3178	1567.5568	3026.9707	3035.4496	3037.4642	3092.1358	3104.4849	3109.6383	3119.9368	3138.3134	3243.4105	3271.1008
CCC1=NC=CN1C	CCc1nccn1C	
InChI=1S/C6H10N2/c1-3-6-7-4-5-8(6)2/h4-5H,3H2,1-2H3	InChI=1S/C6H10N2/c1-3-6-7-4-5-8(6)2/h4-5H,3H2,1-2H3
