16
gdb 43283	2.89736	1.81834	1.42881	3.0673	73.93	-0.2326	-0.0656	0.1669	925.4886	0.126276	-400.71246	-400.705647	-400.704702	-400.743484	27.358	
O	-0.0556818621	-0.0447970404	 0.1197576314	-0.317673
C	-0.0581506943	 1.1565411699	 0.0102012121	 0.323747
C	-1.2767513292	 2.0391950395	-0.1462401312	-0.19477
C	-0.9576293275	 3.336484011	 0.00516841	-0.169743
C	 0.5180276051	 3.4843192886	 0.1591643261	 0.206368
C	 1.4481149665	 3.883528654	 1.326270219	-0.270556
C	 2.077841291	 2.4444739753	 1.2654818066	-0.271147
C	 1.1073238621	 2.1122611485	 0.1144522301	 0.104773
N	 1.3683509205	 3.0831972382	-0.9761352641	-0.377756
H	-2.2544187957	 1.6277792203	-0.3658512056	 0.125134
H	-1.6534617705	 4.1682038533	-0.0313723608	 0.124412
H	 2.1125729711	 4.7249015992	 1.1211359	 0.117879
H	 0.9038631927	 4.0637998149	 2.2547105672	 0.115448
H	 3.1349450604	 2.3817247498	 1.0028828053	 0.121239
H	 1.8869608133	 1.8567998643	 2.1645068954	 0.122911
H	 0.7638657167	 2.8624084935	-1.7654601715	 0.239732
123.8419	229.1907	243.7293	354.4636	394.8473	484.6573	573.1874	590.82	682.7031	713.9953	741.0951	764.0593	777.8122	832.1244	845.1655	928.5144	942.1068	971.8174	993.1005	1062.5851	1089.0497	1099.7553	1114.3481	1132.7092	1215.8404	1233.1699	1244.8701	1297.6151	1330.053	1346.1902	1369.5909	1467.187	1484.0483	1602.265	1814.8331	3075.3962	3083.3972	3129.7693	3147.4353	3184.4806	3219.2388	3497.6134
O=C1C=CC23CCC12N3	O=C1C=C[C@@]23CC[C@@]12N3	
InChI=1S/C7H7NO/c9-5-1-2-6-3-4-7(5,6)8-6/h1-2,8H,3-4H2	InChI=1S/C7H7NO/c9-5-1-2-6-3-4-7(5,6)8-6/h1-2,8H,3-4H2/t6-,7-/m1/s1
