20
gdb 26226	3.6948	1.05728	0.88192	1.7088	82.78	-0.2235	0.0133	0.2367	1387.734	0.170288	-403.206618	-403.197113	-403.196168	-403.24154	34.462	
C	-0.4236776443	 1.6165755026	-0.1694655624	-0.377379
C	 0.1442027952	 0.1964887786	-0.0744207253	-0.092214
C	-0.9468866315	-0.8357407925	 0.2749929193	-0.387749
C	 0.8473510095	-0.1815323714	-1.3410606865	 0.402439
N	 0.8819680496	 0.4378640937	-2.4773621645	-0.313052
C	 1.6665737374	-0.3700926681	-3.294151146	-0.202282
C	 2.0769044683	-1.4587834736	-2.6016866313	 0.321295
C	 2.9121798292	-2.6467408267	-2.905173951	-0.494874
O	 1.5535017786	-1.3484395065	-1.3364394097	-0.220355
H	 0.3609911121	 2.344437889	-0.3888985061	 0.126786
H	-1.1666186831	 1.6833810257	-0.968959327	 0.132633
H	-0.903193559	 1.8919153223	 0.7746478297	 0.106321
H	 0.8938134802	 0.1677754415	 0.7286764595	 0.096656
H	-1.734992071	-0.8357280154	-0.4852335136	 0.124461
H	-0.5316282022	-1.844960104	 0.3368923324	 0.126093
H	-1.4038549022	-0.5919426772	 1.2389826551	 0.11498
H	 1.8786828493	-0.1071600686	-4.3186604307	 0.115862
H	 3.7930240157	-2.6972983198	-2.2551031953	 0.140303
H	 2.351832186	-3.5790504842	-2.7717207049	 0.139987
H	 3.2551490021	-2.6001348953	-3.9412920716	 0.140089
32.3523	124.8849	145.9454	171.2126	219.7118	240.4509	267.8763	297.5838	338.4365	430.5349	476.4701	627.8403	648.4328	692.0735	755.669	845.9197	888.0114	932.7935	961.7731	974.3404	988.6317	1034.5149	1067.6673	1104.3814	1123.9707	1159.9154	1173.3904	1219.2639	1246.53	1316.9711	1334.3849	1388.3608	1401.0816	1418.9187	1420.7261	1472.3539	1485.9578	1487.872	1491.4119	1498.6287	1510.8195	1609.7731	1651.1516	3009.8746	3031.1076	3037.0738	3046.8397	3081.9491	3107.6996	3118.7948	3120.4647	3127.2708	3128.2355	3259.5013
CC(C)C1=NC=C(C)O1	CC(C)c1ncc(C)o1	
InChI=1S/C7H11NO/c1-5(2)7-8-4-6(3)9-7/h4-5H,1-3H3	InChI=1S/C7H11NO/c1-5(2)7-8-4-6(3)9-7/h4-5H,1-3H3
