21
gdb 114069	2.85601	1.19129	1.00128	0.7347	80.07	-0.2422	0.0853	0.3274	1291.0226	0.180244	-424.190109	-424.180329	-424.179385	-424.224379	36.558	
C	-0.1955323828	 1.3509979538	 0.0933401976	-0.235522
O	 0.3323437772	 0.0645368877	-0.1367126503	-0.251243
C	 0.7826778224	-0.5712704223	 1.0334836587	 0.074683
C	-0.2676998112	-1.2102749772	 2.0154673652	-0.327445
C	 0.4282516877	-2.5669757144	 1.828019409	 0.294236
C	 0.6917877956	-3.5675047882	 2.9144106489	-0.49439
C	 0.3432628332	-2.9315404186	 0.3608448626	-0.390984
C	 1.3881728198	-1.9459745142	 0.8123177809	 0.326379
O	 2.7452541991	-2.1825772382	 0.6771492931	-0.467584
H	 0.5499190868	 2.0204346155	 0.5513288435	 0.103619
H	-0.4900041741	 1.7622102685	-0.875461319	 0.125022
H	-1.0795193223	 1.3241046337	 0.7484104421	 0.10707
H	 1.4813289173	 0.0793994264	 1.5802778344	 0.071649
H	-0.1994885403	-0.8133813262	 3.0316831379	 0.099018
H	-1.3078809251	-1.163022259	 1.6772657123	 0.096495
H	-0.2236268444	-4.0990469345	 3.2004616566	 0.118055
H	 1.4238730393	-4.3132727978	 2.5888753776	 0.125755
H	 1.0879101011	-3.0811753678	 3.8131712189	 0.116614
H	 0.7516788689	-3.9079408587	 0.1176058428	 0.108135
H	-0.4985336734	-2.6190745412	-0.251759329	 0.112097
H	 2.9563034653	-2.1996870074	-0.2628089639	 0.288341
90.6499	119.0512	173.8122	176.4983	193.855	234.3748	272.9404	312.9021	331.0088	370.8118	454.0719	484.5487	568.6859	589.701	702.8916	772.6661	831.2374	851.4897	952.5235	966.3876	994.2866	995.2348	1034.4042	1060.5189	1092.415	1146.6372	1150.8392	1184.7463	1187.4359	1204.3867	1223.0714	1241.1243	1256.2039	1305.2976	1350.6553	1384.5866	1413.8991	1429.1862	1473.0021	1481.5236	1486.1489	1488.4696	1497.5062	1509.0504	1521.2153	2972.3729	2995.0358	3019.8277	3022.2045	3045.1088	3079.8584	3100.2012	3102.5406	3110.5879	3111.366	3201.7842	3794.9376
COC1CC2(C)CC12O	CO[C@H]1C[C@@]2(C)C[C@@]12O	
InChI=1S/C7H12O2/c1-6-3-5(9-2)7(6,8)4-6/h5,8H,3-4H2,1-2H3	InChI=1S/C7H12O2/c1-6-3-5(9-2)7(6,8)4-6/h5,8H,3-4H2,1-2H3/t5-,6-,7+/m0/s1
