19
gdb 73166	2.39489	1.46251	1.32569	1.9201	81.05	-0.2437	0.0197	0.2634	1092.2502	0.157672	-385.825898	-385.817242	-385.816298	-385.859097	33.318	
C	-0.1635211754	 1.3831563384	-0.177273467	-0.504182
C	 0.0022314705	-0.0999046305	 0.0525806331	 0.279635
C	-1.2496518339	-0.9442170522	 0.4373478063	-0.290965
C	-0.4825841708	-1.5408468555	 1.6593987484	-0.228176
C	 0.7819831904	-0.7754862835	 1.2223431028	 0.081536
O	 1.5974882161	-1.5325552542	 0.3001462845	-0.308235
C	 1.0167574037	-0.863269647	-0.8509778694	-0.086839
C	 0.5252221964	-1.7605382261	-1.8814789822	 0.334265
C	 0.1099653836	-2.4886698392	-2.7438678369	-0.450532
H	 0.8045628361	 1.888976484	-0.2625885102	 0.120084
H	-0.7238252936	 1.5732505101	-1.1007593829	 0.127713
H	-0.7166195772	 1.8503606807	 0.6444262117	 0.120064
H	-2.1068414048	-0.3260582462	 0.7149832656	 0.100439
H	-1.5699681335	-1.6593263862	-0.3230430473	 0.118275
H	-0.8778800062	-1.210176772	 2.6238744492	 0.099659
H	-0.3570640783	-2.6251782763	 1.677856756	 0.115009
H	 1.3849545595	-0.2512029847	 1.969330105	 0.073175
H	 1.7540221748	-0.1761774074	-1.292066502	 0.097516
H	-0.2476557273	-3.1360752221	-3.5063147547	 0.201558
66.6111	138.048	177.2369	214.2627	254.46	324.0559	348.6921	387.8776	505.3505	535.0948	618.5525	643.2275	668.3068	672.4282	738.9229	826.6486	872.397	876.4139	940.5029	948.8084	966.1318	1008.4076	1021.2866	1057.1047	1113.8273	1162.812	1179.452	1205.7306	1222.2774	1248.0475	1255.8976	1278.6203	1311.0054	1337.1281	1375.5356	1412.27	1464.0227	1486.0312	1491.9501	1493.7381	2230.0455	2987.8228	3022.3176	3057.3272	3064.8919	3072.3382	3086.6654	3095.8287	3113.1976	3129.6167	3500.824
CC12CCC1OC2C#C	C[C@]12CC[C@H]1O[C@H]2C#C	
InChI=1S/C8H10O/c1-3-6-8(2)5-4-7(8)9-6/h1,6-7H,4-5H2,2H3	InChI=1S/C8H10O/c1-3-6-8(2)5-4-7(8)9-6/h1,6-7H,4-5H2,2H3/t6-,7+,8+/m0/s1
