21
gdb 66847	2.49739	2.0033	1.77515	0.2677	84.45	-0.2342	0.0948	0.329	931.8689	0.185422	-349.928395	-349.921468	-349.920524	-349.959066	29.925	
C	-0.0274581354	 1.5215038883	 0.0050060696	-0.522133
C	 0.0222700223	 0.0162049714	-0.0219022931	 0.380751
C	 0.658828959	-0.7486870811	-1.2136805359	-0.145301
C	 0.9363163069	-2.0917434345	-0.6097451786	-0.045083
C	 1.2547005043	-1.9570603834	 0.8699997778	-0.229025
C	 0.357682332	-0.7920328794	 1.3139985276	-0.091516
C	-1.1267093669	-1.2548311793	 1.3833717582	-0.23989
C	-1.2504898576	-0.8887608707	-0.1087688556	-0.072054
C	-0.4691133879	-1.7745990799	-1.1040581756	-0.085219
H	 0.975411861	 1.9505979748	 0.122563879	 0.114655
H	-0.4517377952	 1.9211522579	-0.923253918	 0.115403
H	-0.6424257299	 1.8866891862	 0.8354163568	 0.114499
H	 1.1513206677	-0.3270436427	-2.0816258194	 0.076476
H	 1.4755169654	-2.8203658714	-1.207219544	 0.077881
H	 1.0525325726	-2.8662987846	 1.4477982299	 0.092691
H	 2.3180335941	-1.7162558606	 0.9947170567	 0.089451
H	 0.7484446754	-0.2333724091	 2.1670151328	 0.056696
H	-1.3102362091	-2.2910090052	 1.6854252048	 0.086087
H	-1.7377240771	-0.5923348626	 2.0041997381	 0.091378
H	-2.1918117131	-0.5026744902	-0.5063044596	 0.056916
H	-0.9165558684	-2.3738964338	-1.8887260117	 0.077337
214.2277	224.3543	251.173	318.7324	410.087	468.5492	562.3733	608.667	661.0201	710.3683	748.9274	792.0394	840.947	855.9695	869.9661	881.1417	908.3922	939.8637	948.709	974.2217	998.4216	1011.2908	1044.2916	1054.8609	1083.0162	1091.3444	1118.3096	1131.2358	1153.9799	1169.8093	1188.0761	1217.6666	1234.0383	1248.037	1279.434	1311.925	1319.8104	1334.9625	1361.1792	1406.0872	1411.8593	1482.8867	1489.3655	1494.3959	1499.9311	3015.9293	3020.2337	3038.1332	3062.0252	3077.0585	3079.4475	3081.3965	3085.5999	3092.8136	3159.0011	3168.5881	3184.513
CC12C3C4CC1CC2C34	C[C@@]12[C@H]3[C@H]4C[C@@H]1C[C@@H]2[C@@H]34	
InChI=1S/C9H12/c1-9-4-2-5-7(8(5)9)6(9)3-4/h4-8H,2-3H2,1H3	InChI=1S/C9H12/c1-9-4-2-5-7(8(5)9)6(9)3-4/h4-8H,2-3H2,1H3/t4-,5+,6-,7+,8+,9-/m1/s1
