24
gdb 61583	3.80605	0.81537	0.71217	1.0173	90.37	-0.2292	0.0927	0.3219	1666.5069	0.21686	-368.369056	-368.359157	-368.358213	-368.40437	37.237	
C	-0.0086987226	 1.3769715284	 0.0927102705	-0.396231
C	-0.0927249404	-0.1517098672	-0.015775385	 0.004883
C	-1.5407139678	-0.6671491226	-0.0041940261	-0.137763
N	-2.2317284345	-0.3610268759	 1.2456402863	-0.067065
C	-3.1202379747	 0.7974418208	 1.2517749996	-0.217452
C	-3.6732038996	-0.5832953334	 1.248698624	-0.222595
C	 0.62539174	-0.6527693105	-1.2567684908	 0.043041
C	 2.1198665335	-0.8461315028	-1.2525925697	-0.277787
C	 1.2032504741	-2.0449757997	-1.3048089923	-0.275177
H	 1.034282267	 1.7080726096	 0.073787468	 0.112687
H	-0.5243937886	 1.8598794961	-0.7465962561	 0.103534
H	-0.4625771775	 1.7360280476	 1.0197923269	 0.124401
H	 0.4048771248	-0.5847644953	 0.8627116355	 0.076399
H	-2.0838159093	-0.2664047245	-0.8824308742	 0.071067
H	-1.5249891419	-1.7579595051	-0.1123202783	 0.102301
H	-3.1204574301	 1.392423524	 2.1608962517	 0.114553
H	-3.2159712775	 1.3722001144	 0.3317173272	 0.108999
H	-4.1371728841	-0.9286146203	 0.3255333588	 0.106047
H	-4.0846278586	-1.0191249483	 2.1549152845	 0.113927
H	 0.203208277	-0.285668928	-2.1907037464	 0.075038
H	 2.6808818171	-0.5861113952	-2.1435205484	 0.108133
H	 2.6509096383	-0.6581511327	-0.3246698057	 0.109984
H	 1.1231512719	-2.6561747583	-0.4112585942	 0.111087
H	 1.1382969234	-2.605214941	-2.2311157658	 0.107985
66.6952	69.4202	114.1193	134.0707	211.3469	249.3691	268.4314	321.0822	367.9828	411.8613	456.7634	506.5407	758.5814	775.0765	818.0906	828.6073	839.9491	891.1475	896.9326	926.04	939.0043	966.043	1000.4568	1030.8275	1036.6718	1056.6728	1077.9799	1111.6739	1118.5498	1133.0344	1140.9401	1150.1768	1176.8443	1184.3751	1199.0383	1216.1606	1224.9508	1276.0307	1300.3865	1320.7331	1356.5486	1389.1017	1410.4511	1418.9962	1470.3715	1484.8645	1493.6659	1498.842	1502.2012	1507.4159	1523.4153	2912.5633	3014.3023	3027.9117	3053.0445	3090.4775	3092.8858	3095.7062	3118.2981	3119.2292	3125.6413	3131.0978	3172.3284	3187.0448	3203.1625	3218.3727
CC(CN1CC1)C1CC1	C[C@@H](CN1CC1)C1CC1	
InChI=1S/C8H15N/c1-7(8-2-3-8)6-9-4-5-9/h7-8H,2-6H2,1H3	InChI=1S/C8H15N/c1-7(8-2-3-8)6-9-4-5-9/h7-8H,2-6H2,1H3/t7-/m0/s1
