20
gdb 16423	3.27562	2.01025	1.62563	1.6097	73.24	-0.2543	0.0722	0.3265	875.6462	0.18041	-349.003708	-348.996765	-348.995821	-349.034387	28.696	
O	 0.403691398	 0.9618643598	-0.801473843	-0.440441
C	 0.0596790559	-0.1366507701	 0.0352858705	 0.141
C	 0.6148029483	 0.0540650196	 1.4664688263	-0.217689
C	-0.168279701	-0.735599637	 2.5432225657	-0.216316
C	-1.6420241007	-0.9038278703	 2.1379166497	 0.00695
C	-1.7157125675	-1.7330740296	 0.8270740305	-0.221391
C	-1.4557045202	-0.398705941	 0.0782452675	-0.032462
C	-2.1248261598	 0.3131382237	 1.2927723095	-0.241192
H	 0.0008025884	 1.7523416428	-0.4251227528	 0.273025
H	 0.538399723	-0.9965572307	-0.4484419207	 0.08518
H	 1.6837272394	-0.1749939663	 1.4971297551	 0.100197
H	 0.5352985423	 1.1245378678	 1.692298011	 0.091318
H	 0.2715472269	-1.7287339452	 2.6966851777	 0.097727
H	-0.0892108342	-0.2108716038	 3.5021381421	 0.094013
H	-2.258152499	-1.2245869011	 2.9814947584	 0.057972
H	-0.9896580214	-2.543080384	 0.6955850313	 0.08573
H	-2.7211406845	-2.1179413041	 0.6361576151	 0.093821
H	-1.8856949459	-0.2611811452	-0.916566939	 0.06481
H	-3.2132004569	 0.3235364014	 1.1931358032	 0.097704
H	-1.7901623409	 1.316379873	 1.5764364318	 0.080045
140.8768	236.204	299.2211	356.5465	390.5703	414.9001	438.8872	547.076	562.0051	765.1014	810.1259	821.2855	829.6617	901.9488	915.2525	938.2068	941.9248	964.8673	1030.0454	1049.268	1060.0574	1078.6875	1097.4751	1111.8817	1129.8217	1166.3827	1200.7022	1237.1206	1249.1133	1270.5348	1285.0635	1296.8539	1322.6265	1336.1878	1351.6012	1371.351	1378.7223	1432.7911	1478.3005	1494.3217	1497.221	1519.862	3024.3218	3026.3671	3035.0474	3039.4747	3045.4731	3061.3084	3074.0576	3080.4485	3088.1164	3096.7867	3101.9809	3796.7079
OC1CCC2CC1C2	O[C@H]1CC[C@@H]2C[C@H]1C2	
InChI=1S/C7H12O/c8-7-2-1-5-3-6(7)4-5/h5-8H,1-4H2	InChI=1S/C7H12O/c8-7-2-1-5-3-6(7)4-5/h5-8H,1-4H2/t5-,6+,7-/m0/s1
