16
gdb 124661	3.08153	1.30374	0.98913	5.79	70.62	-0.2526	-0.0531	0.1995	1161.4021	0.124797	-434.078329	-434.070091	-434.069147	-434.112451	29.26	
C	-0.0425090346	 1.5415838204	 0.921734125	-0.397447
C	-0.0804049264	 0.3163350985	-0.0320012845	-0.23303
C	 1.0975309542	-0.573583288	 0.3190482492	 0.171504
O	 1.0406456029	-1.6923549419	 0.7673913593	-0.256395
C	-1.4175931969	-0.3619854207	-0.0359815498	 0.358343
C	-2.6440517902	 0.0338827182	-0.5267034477	-0.161085
N	-3.5642451165	-0.9309072067	-0.2563574094	-0.189743
N	-2.9786786672	-1.9089451493	 0.3767160371	-0.116647
N	-1.6870822601	-1.5699573517	 0.5181332472	-0.237146
H	 0.9365461212	 2.0304916201	 0.8933462474	 0.128306
H	-0.798264022	 2.2695915862	 0.6207090975	 0.146806
H	-0.2514019047	 1.2346095675	 1.950002995	 0.145248
H	 0.1266223829	 0.6950126845	-1.0433820702	 0.125826
H	 2.0811997117	-0.0817795439	 0.1561742513	 0.102632
H	-2.9101654594	 0.9382832582	-1.0505520767	 0.117818
H	-1.014290235	-2.1958137314	 0.9368729593	 0.295011
27.2034	117.7069	154.9549	203.8449	234.9782	295.9795	347.0313	428.7182	575.6488	673.2853	716.2722	735.1686	768.1851	849.4369	904.2154	922.4345	972.6026	1003.5588	1065.5631	1084.6523	1096.3252	1129.9107	1146.7026	1232.2146	1282.7929	1291.5898	1357.7112	1365.2721	1403.4634	1434.6815	1442.0575	1492.2179	1498.686	1595.5736	1819.3986	2901.6545	3011.6129	3044.5305	3119.3389	3137.8649	3262.8746	3631.8085
CC(C=O)C1=CN=NN1	C[C@@H](C=O)c1cnn[nH]1	
InChI=1S/C5H7N3O/c1-4(3-9)5-2-6-8-7-5/h2-4H,1H3,(H,6,7,8)	InChI=1S/C5H7N3O/c1-4(3-9)5-2-6-8-7-5/h2-4H,1H3,(H,6,7,8)/t4-/m0/s1
