16
gdb 36018	3.26133	0.90572	0.76835	3.8392	80.52	-0.2744	0.0175	0.2919	1451.4059	0.120993	-363.556791	-363.546966	-363.546022	-363.592172	34.822	
C	-0.0905099175	-1.2292681907	-0.0138242789	-0.40765
C	-0.0647472454	-0.0287481968	 0.0047602088	 0.286858
C	-0.0061654143	 1.425227855	 0.0149564044	-0.369247
C	 1.4452927634	 1.9794982406	 0.0230415544	-0.148542
C	 1.4411659054	 3.526957558	-0.1161149603	-0.369254
C	 2.7743721319	 4.0940400654	-0.2523455607	 0.286899
C	 3.8826356506	 4.5405157094	-0.3734743539	-0.407681
C	 2.1538750299	 1.5672983989	 1.2378759856	 0.300319
N	 2.6939967867	 1.2560558132	 2.2104154989	-0.317714
H	-0.1182363535	-2.290971788	-0.0181353018	 0.205906
H	-0.5108919333	 1.8236662382	-0.8736524857	 0.140571
H	-0.5442828379	 1.8190717197	 0.885566393	 0.150944
H	 1.9813346882	 1.5569667974	-0.833202674	 0.151165
H	 0.8374112529	 3.7815943832	-0.9957563759	 0.140571
H	 0.9319434445	 3.9627663461	 0.7518763515	 0.150947
H	 4.8617291883	 4.9407985504	-0.4691418554	 0.205908
53.3419	76.1228	95.5143	144.2464	215.6541	236.9065	302.6745	337.5305	341.9812	437.2325	480.3374	551.2202	632.6056	633.3025	638.189	660.2415	663.0218	786.0116	897.4359	928.9504	1001.1444	1031.6017	1052.1593	1068.7932	1196.1539	1230.8026	1276.0345	1345.9467	1352.3491	1374.1243	1465.7277	1475.9446	2246.1765	2246.9216	2363.4353	3027.2836	3030.5992	3057.7647	3064.6884	3078.8893	3505.292	3505.5813
C#CCC(CC#C)C#N	C#CCC(CC#C)C#N	
InChI=1S/C8H7N/c1-3-5-8(7-9)6-4-2/h1-2,8H,5-6H2	InChI=1S/C8H7N/c1-3-5-8(7-9)6-4-2/h1-2,8H,5-6H2
