18
gdb 86483	2.69327	1.16749	0.94161	5.8562	77.46	-0.2717	-0.0424	0.2292	1283.0691	0.14614	-401.96405	-401.954892	-401.953948	-401.998281	33.181	
C	 0.1502349882	 1.598098586	 0.0703047868	-0.414568
C	 0.0646836473	 0.0807160157	 0.0256765582	 0.044235
C	 1.0285834875	-0.6812434211	-0.9236309208	-0.277901
C	 1.2976760947	-1.7434713624	 0.2092882124	 0.026257
C	 0.6478363537	-0.7228007934	 1.2194783267	-0.277884
C	 0.4135797193	-2.9669488942	 0.0287142187	 0.143722
O	 0.7823906862	-4.107098976	 0.0727831257	-0.23386
C	 2.6860864312	-2.102276132	 0.4490271441	 0.251941
N	 3.8016545249	-2.3324820082	 0.6427608708	-0.335748
H	 1.1776214454	 1.9284424003	 0.2592360655	 0.123161
H	-0.1754571276	 2.0399559254	-0.8774528711	 0.125801
H	-0.4848179046	 2.0061864497	 0.8638605568	 0.125801
H	-0.9699366023	-0.2240925795	-0.1640393742	 0.08666
H	 0.6282359689	-1.0721531507	-1.8619357517	 0.124799
H	 1.9386269501	-0.1165161945	-1.1363719067	 0.136737
H	 1.4252059258	-0.1725995776	 1.7536431539	 0.136747
H	-0.0484699395	-1.1460683178	 1.9471471131	 0.124817
H	-0.6528305492	-2.7045889396	-0.1560298883	 0.089279
78.8454	81.1457	154.7812	176.8206	241.3509	268.6446	271.7728	356.2097	378.2071	443.7709	509.2308	566.9548	693.2473	740.779	827.701	845.2384	907.4663	922.8676	922.9944	956.4146	1049.2733	1081.5306	1087.144	1137.4631	1152.7754	1217.9933	1246.9394	1270.1175	1294.3959	1315.1928	1380.5219	1416.5102	1430.7693	1474.5246	1492.7028	1496.4237	1499.0191	1841.4791	2360.9864	2879.9328	3029.3888	3047.9082	3069.1689	3071.6201	3100.1075	3100.475	3128.4042	3130.6962
CC1CC(C1)(C=O)C#N	C[C@H]1C[C@@](C1)(C=O)C#N	
InChI=1S/C7H9NO/c1-6-2-7(3-6,4-8)5-9/h5-6H,2-3H2,1H3	InChI=1S/C7H9NO/c1-6-2-7(3-6,4-8)5-9/h5-6H,2-3H2,1H3/t6-,7-
