19
gdb 59740	2.41408	1.49089	1.00623	2.7574	71.28	-0.2697	0.0012	0.2709	1198.3009	0.158536	-460.208737	-460.199615	-460.198671	-460.243087	32.949	
C	-0.1172000717	 1.5051940063	-0.127505162	-0.394285
C	-0.0556580758	-0.0206930347	 0.0167780799	 0.006897
C	 0.8601595982	-0.4395470803	 1.1751532038	-0.401587
C	-1.4780913942	-0.5922029945	 0.2097405683	-0.045843
O	-2.4036873902	-0.1452842778	-0.7789861708	-0.257286
C	-2.5673261955	-1.1833050982	-1.7118117346	 0.02142
O	-2.2192318344	-2.4009624209	-1.0604568274	-0.215961
C	-1.5347863392	-2.1140225892	 0.079964681	 0.428272
O	-1.0787849766	-2.9539678128	 0.7977177264	-0.331018
H	 0.8816217698	 1.9105557567	-0.3161375256	 0.115362
H	-0.7736413979	 1.8020638486	-0.9482453599	 0.128643
H	-0.4961249632	 1.9667988987	 0.7921178954	 0.115925
H	 0.3465179326	-0.4402400335	-0.9164313644	 0.079683
H	 0.8965433437	-1.5240181691	 1.2947300426	 0.151441
H	 1.876222479	-0.0716270146	 1.003554303	 0.115501
H	 0.5074867888	-0.0090756868	 2.1199302127	 0.115844
H	-1.8635386672	-0.2936300918	 1.1912279351	 0.119327
H	-3.6151762211	-1.2304510604	-2.0215566671	 0.134084
H	-1.9151685653	-1.0586219858	-2.5891311366	 0.113581
61.6508	83.9319	167.1876	187.1963	222.319	239.7593	287.8108	338.762	376.1421	439.3129	528.9414	680.764	692.27	755.5749	859.2145	888.8077	931.1238	944.311	971.9029	1003.7235	1035.9408	1104.101	1125.0212	1150.1654	1156.0937	1194.2815	1219.4162	1226.3021	1283.8088	1325.5384	1345.0195	1384.5356	1400.2169	1424.344	1444.5515	1488.9012	1492.0348	1502.5959	1514.6556	1549.2785	1888.6899	2992.3544	3003.5128	3032.1427	3036.5519	3054.3968	3088.5081	3096.3809	3102.1301	3129.0487	3137.9428
CC(C)C1OCOC1=O	CC(C)[C@H]1OCOC1=O	
InChI=1S/C6H10O3/c1-4(2)5-6(7)9-3-8-5/h4-5H,3H2,1-2H3	InChI=1S/C6H10O3/c1-4(2)5-6(7)9-3-8-5/h4-5H,3H2,1-2H3/t5-/m1/s1
