16
gdb 19132	3.31419	1.77776	1.3455	2.9201	69.39	-0.2686	0.0157	0.2842	928.3706	0.131422	-342.756659	-342.74915	-342.748206	-342.788616	28.011	
N	-0.1931998446	-1.1588771477	 0.7220031806	-0.337524
C	-0.1445624556	-0.0463058328	 0.4084442214	 0.239052
C	-0.0868028499	 1.3426623864	-4.8026*^-6	 0.16624
C	 0.6683375668	 2.2629370671	 0.9097435466	-0.259316
N	 1.2401361709	 1.8716354595	-0.3804945156	-0.339018
C	-1.2646582439	 1.809634815	-0.810907248	-0.067867
C	-1.1379953019	 3.0131927342	-1.7069685779	-0.277983
C	-1.2612871383	 1.6372089582	-2.3090052423	-0.255191
H	 0.3388055825	 3.2958869067	 0.9670275841	 0.137819
H	 1.0912476374	 1.8524313205	 1.8214206437	 0.13865
H	 1.9536421223	 1.158080967	-0.25622501	 0.254343
H	-2.2143330449	 1.6682305996	-0.3040061382	 0.102311
H	-1.9862538767	 3.6856534187	-1.7650311093	 0.114521
H	-0.1658808583	 3.48809017	-1.7646321487	 0.138757
H	-0.368772559	 1.2150223792	-2.7571784566	 0.125394
H	-2.1893679469	 1.3543596684	-2.7918732073	 0.119812
78.7115	146.8256	202.6866	237.4643	263.5743	422.4576	444.9545	568.0679	596.2986	649.5402	788.5127	828.2882	849.9436	864.2123	913.7094	951.1464	961.1471	998.5558	1062.4245	1069.6001	1094.1384	1134.5926	1135.791	1142.9494	1202.2065	1223.0971	1257.435	1281.1954	1338.6161	1417.5805	1458.6756	1496.0138	1504.6934	2347.6265	3120.381	3140.8784	3143.3528	3157.0043	3215.0537	3224.4521	3238.608	3515.0523
N#CC1(CN1)C1CC1	N#C[C@]1(CN1)C1CC1	
InChI=1S/C6H8N2/c7-3-6(4-8-6)5-1-2-5/h5,8H,1-2,4H2	InChI=1S/C6H8N2/c7-3-6(4-8-6)5-1-2-5/h5,8H,1-2,4H2/t6-/m0/s1
