15
gdb 8396	4.11313	1.76167	1.5322	2.1692	61.71	-0.2486	0.0196	0.2682	844.1514	0.118691	-399.762578	-399.755275	-399.754331	-399.794751	27.284	
N	-0.130147305	 1.1928851198	 0.4317927198	-0.534619
C	 0.0023295771	-0.0515594394	-0.0924393394	 0.259721
O	 1.0313997412	-0.5201713443	-0.5387848269	-0.369742
C	-1.2789238996	-0.841965951	-0.0797143401	 0.352635
C	-2.1228306295	-1.3518717913	-1.2778347827	-0.242234
C	-2.9000474288	-1.5871310348	 0.0379685905	 0.034052
C	-1.6152990223	-2.1439935567	 0.6940032338	-0.242296
O	-2.5090076121	-0.2234888754	 0.485147549	-0.360178
H	 0.6732010403	 1.7981067538	 0.4673875437	 0.264289
H	-1.0189138454	 1.5076364235	 0.7831979795	 0.281263
H	-2.5226424196	-0.5698572289	-1.9237307931	 0.11303
H	-1.7508392465	-2.2199169583	-1.824392688	 0.113871
H	-3.9393608017	-1.8758623482	 0.1894690034	 0.103238
H	-1.2005658123	-3.0788809796	 0.313799327	 0.113877
H	-1.5695473058	-2.0577267291	 1.7798365337	 0.113094
35.9119	184.9987	190.6991	253.6672	375.3974	444.1262	541.5443	565.294	615.5042	647.6007	730.6649	739.536	820.1474	900.2754	931.597	954.6925	976.7611	985.1857	1083.0765	1084.8263	1097.4708	1125.9048	1158.73	1203.7623	1229.1901	1236.5316	1243.3354	1407.0705	1467.9446	1511.3548	1608.5121	1801.2994	3076.6137	3082.4891	3129.58	3158.4283	3163.8364	3597.8794	3737.7264
NC(=O)C12CC(C1)O2	NC(=O)[C@@]12C[C@@H](C1)O2	
InChI=1S/C5H7NO2/c6-4(7)5-1-3(2-5)8-5/h3H,1-2H2,(H2,6,7)	InChI=1S/C5H7NO2/c6-4(7)5-1-3(2-5)8-5/h3H,1-2H2,(H2,6,7)/t3-,5+
