18
gdb 117305	2.82237	0.99046	0.76735	3.401	72.31	-0.2466	0.0198	0.2664	1487.9654	0.14688	-472.453589	-472.443483	-472.442538	-472.489928	35.578	
C	-0.110827571	 1.5301952858	 0.1976881361	-0.39033
C	 0.0067108594	 0.0259653014	 0.0442330284	-0.027121
O	-1.307210442	-0.5234583725	 0.2416640584	-0.212694
C	-1.4373024325	-1.8357211202	 0.0575689102	 0.499139
N	-0.4458679672	-2.6084509885	-0.1409832611	-0.57804
N	-2.7768661899	-2.2346954117	 0.1866511266	-0.431001
C	-3.9145576931	-1.5019746321	-0.1892233988	 0.448352
N	-5.0796798375	-2.1839011182	 0.1402345039	-0.565715
O	-3.9022126412	-0.447406189	-0.7748787188	-0.349034
H	 0.8684678509	 1.9944923317	 0.0477482416	 0.117471
H	-0.8088940122	 1.9402247285	-0.5368859736	 0.140051
H	-0.469062405	 1.7942446236	 1.1967052749	 0.126567
H	 0.3651558755	-0.2616474322	-0.9490092612	 0.123177
H	 0.690095258	-0.4136624989	 0.7778324625	 0.119914
H	-0.7404679887	-3.568162617	-0.3020044774	 0.209994
H	-2.9047786958	-3.2290867127	 0.2871173382	 0.250506
H	-5.0845911315	-2.7176964798	 0.9967355943	 0.252999
H	-5.9056497362	-1.6211331584	 0.0013100657	 0.265767
44.9576	67.5914	78.3675	104.7792	173.5946	243.4234	256.7476	364.8325	386.8107	419.9674	449.7182	485.5795	565.3327	620.7053	698.5435	754.6226	773.5638	786.6945	815.1597	872.0149	962.0876	1033.3525	1094.1112	1122.72	1125.6699	1137.1476	1184.5842	1288.6436	1294.9932	1361.3519	1409.1159	1438.7258	1484.0784	1492.9519	1497.4305	1521.8263	1625.0627	1734.4306	1843.529	3047.2313	3051.186	3089.8996	3120.9818	3129.8678	3522.4875	3572.314	3637.3752	3686.8343
CCOC(=N)NC(N)=O	CCOC(=N)NC(=O)N	
InChI=1S/C4H9N3O2/c1-2-9-4(6)7-3(5)8/h2H2,1H3,(H4,5,6,7,8)	InChI=1S/C4H9N3O2/c1-2-9-4(6)7-3(5)8/h2H2,1H3,(H4,5,6,7,8)
