17
gdb 128118	1.94848	1.72356	0.95643	4.7871	72.44	-0.2052	0.0185	0.2237	1201.7834	0.137299	-451.311357	-451.302471	-451.301527	-451.345267	32.051	
C	-0.2820534252	 1.3344570114	-0.1075863143	-0.344018
N	 0.0487281296	-0.0717627759	 0.0362109792	-0.386726
C	 0.6237923723	-0.7572815514	-1.0058014694	 0.357422
C	 0.7276058611	-2.1239657928	-1.2287271595	 0.183522
C	 0.1828476208	-3.2124713903	-0.3661464394	-0.196722
O	-1.1463195161	-2.9131201683	 0.0884242452	-0.419393
N	 1.4105921251	-2.3151801508	-2.3906331814	-0.248913
N	 1.7509202354	-1.1762210903	-2.9063019016	-0.146868
N	 1.2668332758	-0.2097068524	-2.0624662795	-0.259923
H	 0.6312612084	 1.9296315496	-0.223449548	 0.132528
H	-0.9437290962	 1.5469371355	-0.9621283055	 0.120992
H	-0.775829038	 1.6756194187	 0.8041294799	 0.142958
H	-0.6442776432	-0.6431652677	 0.5024112346	 0.259992
H	 0.2264473575	-4.1647960921	-0.9094331632	 0.123711
H	 0.7633930041	-3.3314150643	 0.5559667127	 0.122461
H	-1.7056514641	-2.8657425385	-0.6950131528	 0.285535
H	 1.4118272627	 0.7596488697	-2.2895515968	 0.273442
79.6963	116.4158	146.614	176.1437	205.968	263.97	324.7502	389.6567	436.2781	489.0552	502.9612	623.5519	698.6399	704.723	747.6802	799.6193	966.8141	1000.0235	1012.3539	1025.891	1078.275	1147.3152	1163.7581	1183.2979	1246.2818	1279.1517	1310.5282	1374.7123	1396.0031	1416.844	1465.6264	1469.7276	1490.8851	1500.9621	1519.7795	1552.969	1655.0995	2979.9668	3025.849	3057.142	3065.9619	3129.1722	3574.146	3672.4889	3800.4267
CNC1=C(CO)N=NN1	CNc1c(CO)nn[nH]1	
InChI=1S/C4H8N4O/c1-5-4-3(2-9)6-8-7-4/h9H,2H2,1H3,(H2,5,6,7,8)	InChI=1S/C4H8N4O/c1-5-4-3(2-9)6-8-7-4/h9H,2H2,1H3,(H2,5,6,7,8)
