17
gdb 56999	2.96118	1.23429	0.98602	4.3871	72.36	-0.2443	0.0153	0.2596	1188.5223	0.136381	-417.96271	-417.954349	-417.953404	-417.99613	31.133	
O	-0.2743400061	 1.3082180609	 0.0017235941	-0.412669
C	 0.0295326996	-0.0739582335	-0.0646961761	-0.01844
C	 0.8256799144	-0.3910142648	-1.2691245021	 0.2501
N	 1.486412087	-0.6222912132	-2.1889984728	-0.325394
C	 0.7421790208	-0.5884562889	 1.1896641717	-0.017829
C	-0.0447724091	-0.4777779836	 2.5461221399	-0.255367
C	 0.0546746733	-2.0013099707	 2.6750148888	-0.037489
N	-0.6222274234	-2.5560703843	 1.4796192051	-0.32991
C	 0.7905124439	-2.1124059857	 1.3854674389	-0.066741
H	 0.5545269754	 1.799119466	 0.042285056	 0.292049
H	-0.9319077483	-0.5893723261	-0.1439334496	 0.158269
H	 1.7372709674	-0.1399323146	 1.2657266408	 0.086262
H	 0.5211628659	 0.0645086384	 3.3054334654	 0.109536
H	-1.0579856633	-0.0752162003	 2.4844519243	 0.122942
H	 0.1512306301	-2.5879933099	 3.5796630495	 0.101104
H	-0.6105036953	-3.5719192897	 1.5616988988	 0.235944
H	 1.5702980478	-2.7934729101	 1.0700742074	 0.107634
63.2726	121.6644	145.3688	216.5404	262.9106	320.8324	381.1824	428.0926	488.2086	557.0193	617.8352	706.1428	807.6961	829.0258	845.966	918.9753	923.6273	959.83	990.4368	994.0653	1044.6124	1068.1798	1093.3242	1111.0792	1130.8638	1160.5418	1193.2278	1248.33	1255.8425	1290.3851	1309.7251	1326.1673	1374.8077	1380.5546	1423.3927	1478.4439	2350.6024	3063.0695	3076.4602	3090.7917	3134.1286	3192.7334	3206.2735	3482.3111	3799.6566
OC(C#N)C1CC2NC12	O[C@@H](C#N)[C@H]1C[C@H]2N[C@@H]12	
InChI=1S/C6H8N2O/c7-2-5(9)3-1-4-6(3)8-4/h3-6,8-9H,1H2	InChI=1S/C6H8N2O/c7-2-5(9)3-1-4-6(3)8-4/h3-6,8-9H,1H2/t3-,4-,5+,6+/m1/s1
