15
gdb 66890	2.63192	2.00808	1.4151	3.4716	69.15	-0.2142	-0.0156	0.1986	903.1014	0.112602	-420.607233	-420.60015	-420.599206	-420.638503	28.055	
O	-0.0680609709	 1.403470516	 0.1158048307	-0.449063
C	 0.0319270002	 0.0363938431	 0.077086789	 0.261057
C	-0.2646003845	-0.7653578432	-1.2125698832	-0.156494
C	 0.5226348357	-2.0156773227	-1.4766922798	-0.096035
C	 0.4977120698	-2.7878196492	-0.3887216001	-0.089225
C	-0.2416043616	-2.0626306719	 0.7193503106	-0.218759
C	-1.1217636784	-0.9969287069	-0.0052927356	-0.125463
C	 0.6317959169	-0.8315681193	 1.1420823666	 0.366365
O	 1.294896033	-0.5995376613	 2.1125794069	-0.332902
H	 0.6241876613	 1.7840694158	-0.4355336162	 0.298885
H	-0.6382883436	-0.1370070091	-2.0146262525	 0.10079
H	 1.0394866181	-2.2119691002	-2.4066477132	 0.108604
H	 1.0183126551	-3.7245268078	-0.2411457168	 0.116111
H	-0.6518124839	-2.6503482383	 1.5382687474	 0.094865
H	-2.1802987671	-0.8092067449	 0.1113466663	 0.121264
134.1063	174.1264	269.5542	273.0984	389.8982	443.6362	470.9968	622.6184	663.6103	702.265	734.914	775.9969	798.5151	818.1092	872.7623	892.9608	914.9268	934.9667	955.9756	977.0761	994.1189	1037.2605	1113.3336	1123.7139	1186.2658	1229.8315	1253.5727	1274.2206	1302.2239	1346.9603	1441.3088	1649.5466	1871.1404	3140.3356	3171.0006	3213.8058	3215.8756	3238.2718	3803.5556
OC12C3C=CC(C13)C2=O	O[C@]12[C@H]3C=C[C@H]([C@@H]13)C2=O	
InChI=1S/C7H6O2/c8-6-3-1-2-4-5(3)7(4,6)9/h1-5,9H	InChI=1S/C7H6O2/c8-6-3-1-2-4-5(3)7(4,6)9/h1-5,9H/t3-,4+,5-,7-/m1/s1
