20
gdb 74058	2.53533	1.39945	1.12872	4.9149	83.58	-0.2113	-0.021	0.1903	1186.3078	0.169558	-403.20829	-403.198698	-403.197754	-403.242152	36.114	
C	 0.0495256673	 1.5032975472	 0.0683333692	-0.496219
C	-0.0228541479	 0.0160864308	-0.054296018	 0.372907
C	-0.0517759835	-0.7328668611	-1.1941937692	-0.361146
C	-0.0657725856	-2.1331690639	-0.8252736368	 0.394278
O	-0.1086679371	-3.1371810709	-1.5109832587	-0.387256
C	-0.0129614612	-2.1748601169	 0.7333286768	 0.151298
C	-1.2010852542	-2.9741548571	 1.27464862	-0.406319
C	 1.3262414907	-2.7768412141	 1.1759904374	-0.418222
N	-0.1071951936	-0.7492553743	 1.0816040778	-0.364108
H	 0.928820878	 1.8043636047	 0.6506773214	 0.136086
H	 0.1108840232	 1.9735094402	-0.9139460096	 0.146759
H	-0.8325280968	 1.8906940247	 0.5898686208	 0.14833
H	-0.0751776	-0.3525742137	-2.2038365647	 0.103529
H	-1.1910462662	-3.9719938713	 0.8277609337	 0.141948
H	-1.152665257	-3.0709866189	 2.364392971	 0.103411
H	-2.1447932699	-2.4882758405	 1.0126019306	 0.122846
H	 2.1661242338	-2.1782040409	 0.8098273369	 0.120447
H	 1.3903363057	-2.8418946102	 2.2682355866	 0.106785
H	 1.4210751273	-3.7843830261	 0.7618234483	 0.14712
H	 0.3176289271	-0.4161954476	 1.9346255567	 0.237527
100.587	110.567	171.8941	217.396	227.1793	246.0712	283.6376	295.3829	342.2162	421.4392	466.3658	537.6783	581.0719	603.9463	619.0498	725.0363	743.935	811.7574	898.4646	949.8091	962.129	1004.0577	1022.1208	1023.5492	1059.935	1133.5804	1176.9862	1188.9007	1230.2013	1247.9298	1360.9254	1389.6748	1407.2687	1413.6516	1455.403	1478.6906	1479.9164	1483.6322	1494.8083	1499.5532	1506.8426	1628.0864	1785.7504	3028.3228	3033.2303	3037.5356	3087.5917	3099.0604	3109.5868	3120.323	3128.1095	3143.7629	3251.3069	3601.5867
CC1=CC(=O)C(C)(C)N1	CC1=CC(=O)C(C)(C)N1	
InChI=1S/C7H11NO/c1-5-4-6(9)7(2,3)8-5/h4,8H,1-3H3	InChI=1S/C7H11NO/c1-5-4-6(9)7(2,3)8-5/h4,8H,1-3H3
