14
gdb 133184	3.09492	1.44879	0.99287	2.3061	70.04	-0.2276	-0.0775	0.1501	1098.3521	0.100692	-474.157256	-474.149425	-474.148481	-474.190024	28.89	
C	-0.0343832569	 1.4953981078	-0.0006781436	-0.485121
C	-0.0049433462	-0.0027957869	-0.0375312702	 0.2209
N	-0.0267088778	-0.63208148	-1.1640460736	-0.298539
C	 0.0008774863	-2.030230688	-1.1856101496	 0.436033
N	-0.0203384389	-2.6527792329	-2.2992874373	-0.525035
N	 0.0522023435	-2.6466650592	 0.0809200524	-0.300741
N	 0.0760040817	-2.020114269	 1.2682675965	-0.213614
C	 0.0483167468	-0.7439041587	 1.2088551627	 0.282627
F	 0.0695359236	-0.0639997635	 2.3508061237	-0.056227
H	 0.8511721801	 1.8835505478	 0.5141581899	 0.151511
H	-0.0712950105	 1.8837970027	-1.0179340898	 0.158187
H	-0.9046122433	 1.8476349225	 0.5638093477	 0.151576
H	 0.0044243546	-3.664195978	-2.1644115819	 0.204334
H	 0.074670957	-3.6530671246	 0.144780153	 0.274107
61.7825	134.3571	208.4508	274.4528	354.6927	361.3333	374.8078	497.9969	532.3332	548.7249	598.114	662.7752	710.4671	771.5654	798.7428	809.2164	919.2421	1023.2044	1051.8874	1097.3799	1178.3559	1266.1609	1314.0505	1401.1271	1422.913	1460.0904	1467.1818	1473.4068	1610.9747	1699.5354	1713.0374	3042.9017	3098.3621	3164.34	3474.1671	3620.457
CC1=NC(=N)NN=C1F	C[C@@H]1N=C([NH])NN=C1F	
InChI=1S/C4H5FN4/c1-2-3(5)8-9-4(6)7-2/h1H3,(H2,6,7,9)	InChI=1S/C4H6FN4/c1-2-3(5)8-9-4(6)7-2/h2,6H,1H3,(H,7,9)/t2-/m0/s1
