15
gdb 18002	4.27194	1.70391	1.45384	3.8775	60.83	-0.2337	-0.0278	0.2058	860.523	0.118733	-399.746101	-399.739131	-399.738187	-399.777843	25.49	
O	-0.7103351452	 0.7816328471	 0.2993862844	-0.249547
C	 0.3524680418	 0.7160351589	-0.2614021673	 0.153199
C	 1.4543784304	 1.7377895319	-0.0570245064	 0.051069
O	 2.7489332405	 1.2955314823	-0.5338009281	-0.313921
C	 2.910173892	 2.4623931861	-1.3673302813	 0.115776
C	 2.4488465751	 2.263386356	-2.8253046961	-0.184156
N	 1.0356041728	 2.5048349624	-2.4062796387	-0.318979
C	 1.4685862475	 2.9252577589	-1.0505001303	-0.078521
H	 0.6080796018	-0.0938303335	-0.9758360388	 0.093599
H	 1.4917296902	 2.0367184439	 0.9979488587	 0.102641
H	 3.8392064785	 2.9979169855	-1.1647975717	 0.090192
H	 2.8559557793	 3.0287809528	-3.4982083247	 0.102206
H	 2.629471708	 1.2722897659	-3.252723059	 0.118985
H	 0.562340526	 3.2286897859	-2.9314579724	 0.229778
H	 1.1569109312	 3.9083642158	-0.6985895484	 0.087679
73.277	105.8861	214.1249	276.6858	381.1895	463.0942	525.678	641.2086	746.5045	797.6143	798.9614	900.9505	933.9827	971.2351	1004.4122	1015.4072	1027.2431	1062.0739	1080.304	1096.439	1149.8003	1191.3868	1206.3403	1242.1331	1276.5414	1306.6547	1331.9327	1347.9393	1387.9456	1398.6944	1495.8797	1830.6195	2920.5535	3019.5667	3035.8575	3083.8203	3095.1866	3116.2484	3564.2316
O=CC1OC2CNC12	O=C[C@H]1O[C@H]2CN[C@@H]12	
InChI=1S/C5H7NO2/c7-2-4-5-3(8-4)1-6-5/h2-6H,1H2	InChI=1S/C5H7NO2/c7-2-4-5-3(8-4)1-6-5/h2-6H,1H2/t3-,4+,5+/m0/s1
