21
gdb 63974	3.18819	1.30142	1.17831	1.3769	85.08	-0.2332	0.0093	0.2425	1171.5448	0.182055	-387.074552	-387.065869	-387.064924	-387.107336	34.087	
C	 0.1022361993	 1.4346165641	 0.153070783	-0.428521
C	-0.0633393677	-0.0738655345	 0.0628661518	 0.337662
C	-1.4730873397	-0.4852913415	-0.3536187971	-0.42431
O	 0.9315847799	-0.67178169	-0.8603427785	-0.360162
C	 1.2726137924	-1.7080010043	 0.1204075508	 0.107556
C	 2.6929364019	-1.8760874049	 0.6851337732	-0.252821
C	 2.4484094622	-1.7753975185	 2.2303128618	-0.242695
C	 1.2321878683	-0.8494898052	 2.3185643928	-0.237658
C	 0.5784736871	-0.9001026233	 1.1641358469	 0.17995
H	 1.131678966	 1.690834712	 0.4110758624	 0.122825
H	-0.1445508426	 1.8992307564	-0.8072695999	 0.123603
H	-0.5672385529	 1.849437501	 0.9139775447	 0.116788
H	-1.7053273818	-0.071995505	-1.3399762685	 0.122765
H	-1.5678183033	-1.5728419477	-0.4057784757	 0.120318
H	-2.2121112473	-0.1097972469	 0.3617976289	 0.116662
H	 0.81973578	-2.6619114321	-0.1822262157	 0.074641
H	 3.1924798487	-2.8011898787	 0.3839181215	 0.093629
H	 3.3045282936	-1.0292966189	 0.3577194264	 0.116704
H	 2.2615784664	-2.7640085245	 2.671576449	 0.108958
H	 3.3118764997	-1.3598799879	 2.7601592084	 0.106843
H	 1.0482161897	-0.1904695994	 3.1588952537	 0.097263
127.1857	136.5486	187.2284	224.2924	268.1255	289.3655	322.5347	381.4652	407.8654	506.5833	593.2218	611.8472	709.9373	805.654	827.0224	830.0635	869.4603	894.7797	906.7511	934.317	955.0192	964.449	1002.2923	1032.6355	1048.4489	1089.0261	1153.241	1163.9923	1200.1987	1215.0046	1241.8547	1272.9623	1275.3949	1310.7556	1335.8905	1366.9477	1396.5062	1410.74	1473.3321	1478.1435	1478.8294	1493.0133	1493.4721	1501.2336	1734.5484	3004.2461	3014.4949	3035.5026	3040.6794	3052.8454	3070.73	3103.3654	3107.0078	3110.6812	3120.1426	3132.359	3198.7831
CC1(C)OC2CCC=C12	CC1(C)O[C@H]2CC[CH][C]12	
InChI=1S/C8H12O/c1-8(2)6-4-3-5-7(6)9-8/h4,7H,3,5H2,1-2H3	InChI=1S/C8H12O/c1-8(2)6-4-3-5-7(6)9-8/h4,7H,3,5H2,1-2H3/t7-/m0/s1
