19
gdb 98472	2.48409	1.2991	0.99169	1.4776	72.54	-0.2629	-0.0035	0.2594	1265.9845	0.156611	-460.176702	-460.166742	-460.165798	-460.212184	34.947	
C	-0.4720884367	 1.1340767788	 0.6300389337	-0.38746
C	 0.2498236656	-0.1666273024	 0.2573404845	-0.255475
C	 0.7299304845	-0.1780429416	-1.1789686167	 0.271834
C	 0.5720519136	-1.3757957581	-2.0333933891	-0.215005
O	-0.2879254196	-0.256144643	-2.1844453276	-0.258675
C	 1.8802089971	 0.7552892027	-1.4847953012	 0.41664
O	 2.554463235	 1.2829590997	-0.6336215249	-0.373253
O	 2.0779932133	 0.9084342503	-2.803073999	-0.227502
C	 3.1698605478	 1.7650773432	-3.1617322365	-0.240383
H	 0.2037706054	 1.9902830923	 0.5587155923	 0.136762
H	-1.3236763536	 1.3064842355	-0.0349604409	 0.129015
H	-0.8468561859	 1.0851672079	 1.6563938663	 0.113971
H	 1.1133484901	-0.3186097273	 0.9122063134	 0.120485
H	-0.4234111506	-1.0190798716	 0.3947801079	 0.100802
H	 1.2630296777	-1.5462680735	-2.8558412926	 0.126812
H	 0.1210865491	-2.2649520735	-1.5944669864	 0.118947
H	 3.022114192	 2.7666452977	-2.7507507204	 0.144507
H	 4.1142419331	 1.3659942273	-2.7825936452	 0.140791
H	 3.1759730721	 1.7949859156	-4.2510178576	 0.137185
51.8539	92.9453	117.919	136.106	176.3877	215.9932	232.3622	321.9505	330.4189	340.2878	462.7617	488.2122	558.6677	759.0963	768.7441	805.6027	871.5708	888.8574	958.5959	993.2047	1015.701	1078.1707	1101.8421	1139.3545	1167.1564	1179.2485	1190.3984	1217.1803	1285.2776	1327.1468	1363.1481	1401.3201	1406.3425	1468.7888	1474.3729	1482.0871	1496.7879	1499.2557	1511.3311	1516.6257	1805.9763	3045.4228	3049.1904	3052.8208	3088.1307	3092.3112	3115.5594	3127.2889	3127.6994	3162.574	3184.2254
CCC1(CO1)C(=O)OC	CC[C@]1(CO1)C(=O)OC	
InChI=1S/C6H10O3/c1-3-6(4-9-6)5(7)8-2/h3-4H2,1-2H3	InChI=1S/C6H10O3/c1-3-6(4-9-6)5(7)8-2/h3-4H2,1-2H3/t6-/m0/s1
