19
gdb 29858	4.62809	1.19174	0.97279	1.5015	85.39	-0.1682	0.0471	0.2153	1228.5949	0.162698	-382.09698	-382.08901	-382.088066	-382.129413	30.774	
C	 0.1355526647	 1.4171309437	 0.0282717769	-0.328915
N	-0.0539219876	-0.0141901788	-0.0038247602	 0.019244
C	-0.0006858983	-0.7942999716	-1.1373142493	-0.269239
C	-0.0278701973	-2.1075739022	-0.7391081495	 0.258216
C	-0.0998119797	-3.5216233978	-1.2425109069	-0.349664
C	 0.209355533	-4.3151984879	 0.0627778112	-0.161892
N	-0.2353836991	-3.4322910823	 1.1722489605	-0.407519
C	-0.1027170175	-2.1210125567	 0.6746445475	 0.262048
C	-0.1130824774	-0.8252303679	 1.1266602519	-0.265789
H	 1.1792692049	 1.6956460444	 0.2253351964	 0.128722
H	-0.1609393027	 1.8441042817	-0.9328787028	 0.134457
H	-0.4926836618	 1.8611095748	 0.8063881906	 0.133866
H	 0.0614294655	-0.3331931945	-2.1106975366	 0.111292
H	-1.1032556675	-3.7693923078	-1.6134600072	 0.110568
H	 0.609675047	-3.7703706695	-2.037178737	 0.104312
H	-0.3103480603	-5.2766215963	 0.1059954729	 0.100138
H	 1.2914617389	-4.5097580897	 0.1184215744	 0.09176
H	 0.2510951695	-3.6144700686	 2.0406754312	 0.224892
H	-0.1471164443	-0.390480923	 2.111987136	 0.103501
102.6868	126.795	184.8246	243.9909	287.036	308.0806	491.2238	528.9804	584.7284	610.0255	626.9831	665.7009	721.9394	733.6971	793.7421	838.0182	882.8433	939.0224	1010.5519	1036.777	1077.0073	1082.9834	1118.4859	1146.8085	1178.3379	1196.3956	1212.2747	1255.1809	1306.229	1320.8128	1376.9053	1401.927	1417.5356	1460.4166	1475.3832	1485.5825	1492.7639	1515.1529	1518.2084	1580.2846	1650.0306	2979.3046	3011.1786	3013.9748	3073.8238	3080.1313	3080.955	3121.8396	3249.3485	3262.2929	3556.9469
CN1C=C2CCNC2=C1	Cn1cc2CCNc2c1	
InChI=1S/C7H10N2/c1-9-4-6-2-3-8-7(6)5-9/h4-5,8H,2-3H2,1H3	InChI=1S/C7H10N2/c1-9-4-6-2-3-8-7(6)5-9/h4-5,8H,2-3H2,1H3
