17
gdb 98180	2.22897	1.30443	1.21239	2.1653	65.61	-0.2528	-0.037	0.2158	1155.9436	0.131119	-496.135044	-496.124535	-496.123591	-496.171359	35.715	
C	-0.1659412468	 1.4405373466	-0.4107122213	-0.246085
O	-0.2228345976	 0.0078966322	-0.4932589587	-0.260879
C	 0.962386236	-0.6137552096	-0.6513707675	 0.45395
O	 2.0225901959	-0.0524835849	-0.6961679682	-0.354839
C	 0.7437829456	-2.1246670501	-0.8001655832	 0.127001
C	 1.9901428588	-2.9095173175	-0.4035356831	-0.4192
O	-0.3413544948	-2.591931163	-0.010983055	-0.456882
C	 0.3929974447	-2.423786462	-2.2701853337	 0.135024
O	 0.45631874	-1.6400802656	-3.1779224752	-0.238005
H	 0.4322369974	 1.7482734393	 0.4500044017	 0.147312
H	 0.2777169329	 1.8517062348	-1.3199518457	 0.155583
H	-1.1975850278	 1.7731391725	-0.3005600694	 0.138678
H	 2.1546192978	-2.8075720667	 0.6720126386	 0.140684
H	 1.8505829429	-3.9697973153	-0.6318427283	 0.128282
H	 2.8638536723	-2.5298832688	-0.9351032983	 0.153586
H	-1.0317953165	-1.9186625715	-0.0513121025	 0.298603
H	 0.0297786992	-3.4676493205	-2.4009587802	 0.097188
50.91	63.7201	101.6811	118.7369	180.2552	193.8529	207.5596	299.1587	332.0143	341.5557	370.7361	419.1443	496.5777	510.6039	586.2382	793.4215	831.9768	904.7344	939.109	990.6867	1021.3628	1112.6233	1179.0649	1179.2873	1189.7913	1217.1796	1258.8675	1366.4842	1404.1092	1413.2383	1472.3986	1477.6279	1481.1937	1492.0621	1495.8538	1826.0903	1850.2228	2892.3796	3054.5785	3058.7015	3127.3033	3138.5007	3154.1616	3167.2802	3791.4855
COC(=O)C(C)(O)C=O	COC(=O)[C@@](C)(O)C=O	
InChI=1S/C5H8O4/c1-5(8,3-6)4(7)9-2/h3,8H,1-2H3	InChI=1S/C5H8O4/c1-5(8,3-6)4(7)9-2/h3,8H,1-2H3/t5-/m0/s1
