16
gdb 47543	2.91846	1.7022	1.17527	3.432	66.42	-0.2629	0.0205	0.2834	1010.6186	0.125265	-474.993997	-474.986681	-474.985737	-475.026124	27.981	
N	-0.0747208549	 1.3395087684	 0.2351004679	-0.500777
C	-0.0303026541	 0.1104454878	-0.0358935027	 0.432175
O	 1.1317879287	-0.6051043676	-0.1035969765	-0.251789
C	 1.3749376239	-1.5654921153	-1.1309977605	 0.014132
O	 0.4465627942	-2.6006129752	-1.1958224729	-0.220233
C	-0.6998652761	-2.2433013485	-1.9161578493	 0.062482
C	-2.0235236485	-2.5800237283	-1.2937819178	-0.336263
C	-1.5596181486	-1.1510311508	-1.3328144758	 0.0656
O	-1.1816541766	-0.614646796	-0.0918606111	-0.227237
H	 0.8740402635	 1.7032903845	 0.3187750663	 0.231198
H	 1.4450158182	-1.0414531139	-2.0958809749	 0.100344
H	 2.3357882499	-2.0061356756	-0.8624945577	 0.133086
H	-0.5868425895	-2.3009740915	-2.99787109	 0.103157
H	-2.8410783004	-2.886203542	-1.9352918269	 0.12731
H	-1.9802727747	-3.0552473786	-0.3209033458	 0.150826
H	-2.043586935	-0.4339665773	-1.9911854122	 0.115989
81.0881	121.057	250.5586	311.8239	329.0752	412.811	473.9103	533.7776	645.9898	703.325	734.3819	801.715	820.7033	838.0074	897.2702	907.3534	992.6265	1031.8442	1050.3451	1068.5345	1089.5058	1116.4339	1124.8056	1150.5803	1168.325	1205.1892	1245.9211	1302.1263	1331.4445	1375.5662	1393.2106	1458.9727	1474.0554	1508.4547	1756.2176	2993.0118	3113.04	3130.4333	3138.895	3150.7793	3246.2511	3505.3814
N=C1OCOC2CC2O1	[NH][C]1OCO[C@H]2C[C@H]2O1	
InChI=1S/C5H7NO3/c6-5-8-2-7-3-1-4(3)9-5/h3-4,6H,1-2H2	InChI=1S/C5H7NO3/c6-5-8-2-7-3-1-4(3)9-5/h3-4,6H,1-2H2/t3-,4+/m0/s1
