14
gdb 131302	4.73465	0.89987	0.79798	2.6639	64.6	-0.2426	-0.0448	0.1978	1343.3303	0.101101	-470.032607	-470.024513	-470.023568	-470.067584	28.038	
O	 0.1072628939	 1.303903998	 0.0226167223	-0.40269
C	 0.0809119745	-0.0323117995	 0.0027107784	 0.439857
N	 0.1965139221	-0.7049652568	-1.1299132569	-0.327794
N	 0.1218533614	-1.9967478572	-0.6851865628	 0.046292
C	 0.1650939637	-3.0809424524	-1.6327501275	-0.248764
C	-1.0569779134	-3.1037688485	-2.5559590654	 0.152096
O	-1.2030769356	-3.9409467944	-3.402748417	-0.222073
C	-0.0357770334	-2.0123821526	 0.6498294826	 0.01296
N	-0.0624468182	-0.7801929846	 1.1290927138	-0.360101
H	 0.0107284741	 1.5694823796	 0.9452644663	 0.314483
H	 1.0646104694	-2.9999469988	-2.2516313465	 0.171168
H	 0.2156782324	-4.0282074176	-1.0881726612	 0.157143
H	-1.7895027254	-2.2887000917	-2.3782166359	 0.115491
H	-0.1189437656	-2.9240354735	 1.2228079599	 0.151931
16.5426	76.5317	90.5961	257.3689	313.531	389.2904	413.7476	424.5571	484.6519	640.352	708.4319	718.3242	771.7315	827.2374	849.0678	1017.7045	1020.9718	1055.1256	1071.4034	1194.3384	1208.7496	1244.139	1329.3203	1345.7802	1394.7224	1406.8437	1442.3809	1487.257	1525.3852	1640.2179	1845.4886	2923.9932	3060.2522	3114.2145	3254.9794	3812.8157
OC1=NN(CC=O)C=N1	Oc1nn(CC=O)cn1	
InChI=1S/C4H5N3O2/c8-2-1-7-3-5-4(9)6-7/h2-3H,1H2,(H,6,9)	InChI=1S/C4H5N3O2/c8-2-1-7-3-5-4(9)6-7/h2-3H,1H2,(H,6,9)
