18
gdb 38699	2.72193	2.18513	1.65424	2.1001	74.49	-0.2199	0.0165	0.2364	866.3257	0.151384	-401.930643	-401.924367	-401.923423	-401.960794	27.057	
C	-0.0122473246	 1.465668772	 0.0058850619	-0.394224
C	 1.3650901316	 0.8021440465	-0.0317259885	-0.044048
C	 2.2450359176	 0.2138010395	 1.0857115652	-0.256458
C	 1.559456757	-1.1565899147	 1.2817706202	 0.132207
C	 0.0941026618	-0.7480468611	 1.3252689854	-0.292256
C	 0.0899799593	-0.0208902629	-0.0253506988	 0.347605
N	-0.0526415672	-0.9728879264	-1.1072958487	-0.316509
C	 0.8126404961	-1.8919145935	-0.9242259121	 0.107036
O	 1.7323574977	-1.9882321431	 0.0782405116	-0.263244
H	-0.3967840916	 1.9171080131	 0.9165294402	 0.110887
H	-0.2733734679	 2.004068475	-0.9001454361	 0.12514
H	 1.8475828792	 0.8969729909	-0.9981910459	 0.101837
H	 3.2834715171	 0.1188314468	 0.7598556861	 0.113321
H	 2.2401932294	 0.7705653639	 2.0310092028	 0.10262
H	 1.9394491795	-1.7686922031	 2.1041911786	 0.079877
H	-0.6096414353	-1.5819877495	 1.3489329073	 0.116581
H	-0.0988339409	-0.0905430305	 2.1768636473	 0.1047
H	 0.9120485814	-2.7307382028	-1.6087706964	 0.124926
220.6686	336.3829	353.0138	380.8933	453.5073	470.0894	595.9063	618.9504	693.9875	742.5496	801.7231	803.9728	851.0378	880.9988	902.7967	912.0182	948.2855	957.8093	979.5037	1012.881	1029.846	1067.2932	1095.2125	1106.2742	1121.1989	1153.0768	1200.5282	1243.6706	1255.969	1295.7837	1316.1079	1332.5493	1353.5657	1376.5049	1409.6224	1472.8724	1481.8234	1496.446	1649.7434	3033.8837	3065.8151	3083.4935	3105.6805	3113.7419	3125.9606	3168.3187	3175.522	3202.5342
C1C2CC3CC12N=CO3	C1[C@H]2C[C@H]3C[C@@]12[N][CH]O3	
InChI=1S/C7H9NO/c1-5-2-7(5)3-6(1)9-4-8-7/h4-6H,1-3H2	InChI=1S/C7H9NO/c1-5-2-7(5)3-6(1)9-4-8-7/h4-6H,1-3H2/t5-,6+,7+/m1/s1
