21
gdb 112575	3.08225	0.92645	0.83842	1.8418	85.4	-0.2523	0.0568	0.3091	1464.3859	0.180002	-387.045069	-387.034958	-387.034014	-387.080162	37.824	
C	-0.0051765533	 1.5097031896	 0.0847853815	-0.449265
C	-0.0003165889	-0.0207302563	 0.0242165278	 0.125068
C	 1.0780257454	-0.6857139762	-0.9073044436	-0.285001
C	 1.3930463277	-1.7060263068	 0.2163151914	 0.061054
C	 2.8429906253	-2.0587640919	 0.4677348572	-0.098736
O	 2.8984319882	-2.8820860579	 1.6237882145	-0.421974
C	 0.6772730429	-0.7733660785	 1.2263569533	-0.25312
C	-1.3363875685	-0.5327369484	-0.2509022637	 0.32759
C	-2.4416375378	-0.9500117672	-0.4785713842	-0.503329
H	 1.0024560502	 1.8847455159	 0.2910980729	 0.107852
H	-0.3457611442	 1.9381557471	-0.8631627667	 0.124241
H	-0.6736956498	 1.8663825332	 0.874552056	 0.125824
H	 0.7315308701	-1.0701824241	-1.8678601393	 0.10822
H	 1.9110908093	 0.0048955161	-1.0774657204	 0.093936
H	 0.8202635329	-2.6274572369	 0.0770983992	 0.09053
H	 3.2590749177	-2.5751093229	-0.413684411	 0.084777
H	 3.4267803545	-1.1330182803	 0.609551691	 0.075809
H	 3.8194181165	-3.0954373963	 1.7994526532	 0.286709
H	 1.3844935238	-0.1157252853	 1.7424336328	 0.095047
H	 0.0136848154	-1.2293439787	 1.9614730778	 0.112715
H	-3.4166895774	-1.3201357644	-0.6773637398	 0.192055
52.1814	97.9443	145.5478	169.846	214.3841	247.6576	262.8036	311.9995	340.8144	389.5686	426.3932	516.2443	555.069	611.1332	613.0568	626.1797	720.0721	830.7573	863.0637	903.0454	922.198	935.4079	997.9854	1028.1548	1062.3768	1083.13	1096.3328	1145.645	1170.7877	1185.8799	1234.6887	1246.3069	1270.3578	1280.2585	1292.3574	1307.7959	1370.004	1406.8198	1462.6783	1470.6254	1488.3166	1488.5654	1498.1128	1519.1062	2227.5417	2948.5503	2976.6035	3031.3596	3045.4313	3053.0593	3071.7059	3104.8993	3108.044	3120.5318	3130.0071	3502.7533	3829.7749
CC1(CC(CO)C1)C#C	C[C@]1(C[C@@H](CO)C1)C#C	
InChI=1S/C8H12O/c1-3-8(2)4-7(5-8)6-9/h1,7,9H,4-6H2,2H3	InChI=1S/C8H12O/c1-3-8(2)4-7(5-8)6-9/h1,7,9H,4-6H2,2H3/t7-,8-
