15
gdb 20400	4.84236	2.07157	1.49056	2.1065	67.01	-0.1899	0.0309	0.2209	806.1635	0.123709	-358.857767	-358.851584	-358.85064	-358.887829	24.266	
C	 0.0113063166	 1.4145852405	 0.1141278048	-0.161557
C	 1.4636517279	 1.9548729754	-0.1104675494	-0.359874
C	 2.2536048688	 0.6823559304	-0.021610055	 0.222618
C	 3.4941699674	 0.1031083479	 0.0773070362	-0.213865
N	 3.2810904795	-1.2437543483	 0.0286765426	-0.196874
N	 1.9605454651	-1.5912418592	-0.0957855557	-0.362768
C	 1.3717066585	-0.410201656	-0.1312080178	 0.391282
N	 0.0476911806	-0.0081722616	-0.3089073269	-0.391536
H	-0.2483960728	 1.504302215	 1.1792650215	 0.100089
H	-0.733128481	 1.9682296314	-0.464163535	 0.108088
H	 1.5517812474	 2.4192720663	-1.1008962364	 0.117555
H	 1.7199249246	 2.7179592743	 0.6295896946	 0.111487
H	 4.4896041464	 0.5060906849	 0.1813059491	 0.128332
H	 3.9624337346	-1.9751135384	 0.1242151605	 0.268414
H	-0.6564955634	-0.5978217327	 0.1135979769	 0.238609
166.5053	240.3923	292.4766	360.4157	463.8892	553.9948	626.2154	658.6319	712.8981	740.5291	782.914	821.0559	870.9018	935.8233	966.7665	1030.9537	1050.8015	1078.8393	1121.0591	1184.1935	1199.1789	1231.3564	1292.6948	1313.0348	1330.4638	1397.8467	1467.4066	1471.1735	1495.1117	1513.4024	1558.9242	1657.3472	2990.4713	3022.3586	3079.9104	3088.149	3255.0397	3581.5386	3697.4098
C1CC2=CNN=C2N1	C1Cc2c[nH]nc2N1	
InChI=1S/C5H7N3/c1-2-6-5-4(1)3-7-8-5/h3H,1-2H2,(H2,6,7,8)	InChI=1S/C5H7N3/c1-2-6-5-4(1)3-7-8-5/h3H,1-2H2,(H2,6,7,8)
