20
gdb 5971	3.39343	1.21105	1.12182	0.9783	77.9	-0.258	0.0552	0.3132	1183.7285	0.173157	-348.966737	-348.956579	-348.955635	-349.001305	36.549	
C	-0.0039345757	 1.404352901	-0.0111259968	-0.228097
O	 0.001746851	-0.0029855508	 0.0021117754	-0.24114
C	 0.6429194936	-0.5614300467	-1.1227277455	-0.056186
C	 0.5976231941	-2.1026106141	-1.0132987435	 0.041144
C	 1.3359895303	-2.5597985557	 0.2652080318	-0.402583
C	-0.8709184003	-2.5833772333	-0.9806843326	-0.402575
C	 1.2714178161	-2.6459665154	-2.1966093762	 0.328916
C	 1.8258633524	-3.0821393801	-3.1703986101	-0.492231
H	 1.0174215849	 1.8166517327	-0.0131387379	 0.106044
H	-0.5348906748	 1.8021796552	-0.8903243052	 0.106042
H	-0.5181695177	 1.7381816557	 0.8933357592	 0.127782
H	 0.1436139369	-0.2419393852	-2.0519609345	 0.093041
H	 1.691180236	-0.2253736915	-1.1780678143	 0.093028
H	 0.8645398997	-2.1123384995	 1.1429878237	 0.13143
H	 1.3023251009	-3.6485346234	 0.3579778147	 0.118392
H	 2.3856783923	-2.2531432075	 0.2388017564	 0.117314
H	-1.3954303178	-2.2935328378	-1.8958129614	 0.117322
H	-0.915323492	-3.6722281862	-0.8939739995	 0.118388
H	-1.3861750342	-2.1363853884	-0.127632061	 0.131445
H	 2.3141468243	-3.4738794389	-4.0281091325	 0.192523
79.2364	108.337	121.609	181.6899	213.8391	220.3055	236.6315	262.6832	328.7786	362.7483	378.8746	452.0339	551.306	557.5454	624.2042	638.1022	742.5941	900.8151	932.5577	968.652	984.9793	1012.1056	1049.2577	1156.2949	1172.1677	1200.764	1215.361	1230.3065	1255.3488	1292.2638	1391.5886	1398.2416	1424.9076	1479.4605	1482.7294	1484.676	1486.5974	1494.3932	1503.0951	1510.2508	1526.058	2231.6975	2960.4856	2974.4977	2997.6386	3016.2065	3044.4187	3048.189	3114.6209	3116.0876	3118.9017	3132.7777	3136.5716	3501.5926
COCC(C)(C)C#C	COCC(C)(C)C#C	
InChI=1S/C7H12O/c1-5-7(2,3)6-8-4/h1H,6H2,2-4H3	InChI=1S/C7H12O/c1-5-7(2,3)6-8-4/h1H,6H2,2-4H3
