16
gdb 62408	2.36716	1.59251	1.37675	2.0104	76.06	-0.2432	-0.0331	0.2101	1016.8233	0.121726	-400.67937	-400.670861	-400.669917	-400.712192	32.092	
C	-0.1362419701	 1.6333862477	-0.0104055943	-0.448367
C	 0.019062779	 0.114410769	-0.0243601644	-0.049256
C	-1.2552726538	-0.5436193846	 0.2189502715	 0.336949
C	-2.304100717	-1.0809834987	 0.4528842503	-0.42651
N	 0.6734200212	-0.5157864172	-1.2601591491	-0.128729
C	 2.0464313308	-0.0250834333	-1.3140629384	-0.247009
C	 1.7473058087	-1.1502940523	-0.3822429546	-0.146139
C	 1.1233425399	-0.5876839743	 0.8570321564	 0.38595
O	 1.2721510006	-0.7420193585	 2.030151495	-0.298239
H	 0.8144360997	 2.1529481634	-0.1450360632	 0.122788
H	-0.8247825586	 1.9442762831	-0.8012035287	 0.144476
H	-0.5553686091	 1.9407194762	 0.9509095727	 0.152435
H	-3.2317127566	-1.5583092977	 0.6528800466	 0.202266
H	 2.5568767854	-0.2883956917	-2.2354240598	 0.141762
H	 2.3074319676	 0.9522564673	-0.9205888206	 0.129395
H	 2.1239710422	-2.1559128883	-0.5265479093	 0.12823
120.9487	129.2675	175.1222	191.1666	211.9828	314.6211	388.2399	452.2626	481.908	545.0595	628.6837	648.2311	659.3631	675.0819	704.1622	772.1562	808.0095	902.1986	919.2672	962.2776	1033.5094	1074.8806	1102.2541	1112.8444	1141.3281	1180.3023	1208.8456	1221.8626	1302.3798	1404.3546	1482.7591	1486.2201	1508.9829	1902.4958	2236.2211	3052.3028	3122.2706	3128.7148	3135.1506	3192.5368	3210.3026	3501.0583
CC1(C#C)N2CC2C1=O	C[C@@]1(C#C)N2C[C@H]2C1=O	
InChI=1S/C7H7NO/c1-3-7(2)6(9)5-4-8(5)7/h1,5H,4H2,2H3	InChI=1S/C7H7NO/c1-3-7(2)6(9)5-4-8(5)7/h1,5H,4H2,2H3/t5-,7-,8?/m0/s1
