16
gdb 124159	6.2735	0.75897	0.68283	2.2762	85.26	-0.2262	-0.0051	0.2211	1641.9337	0.124332	-396.946367	-396.937077	-396.936133	-396.982978	31.359	
C	 0.0069098179	 1.4360600338	-0.0181676996	-0.511308
C	 0.0138695117	-0.0174287822	-0.0109331327	 0.27145
C	 0.0186476115	-1.2220793673	-0.0050360838	-0.064061
C	 0.0114816512	-2.6399296994	 0.0012165033	 0.138981
N	 1.1298547744	-3.3609200821	 0.0581996764	-0.273418
N	 0.6472093736	-4.6237018489	 0.0408050324	-0.227772
C	-0.7056212845	-4.6298645268	-0.0242761152	 0.327761
C	-1.5394384565	-5.8657980104	-0.0586570798	-0.51541
N	-1.1417469506	-3.3858575462	-0.0509689541	-0.33518
H	 1.0258722608	 1.8348354016	-0.0669395032	 0.153651
H	-0.5463946027	 1.8248539342	-0.880269073	 0.153152
H	-0.4651386431	 1.8346444895	 0.8868386646	 0.152887
H	 1.2886068246	-5.3992264811	 0.0751926644	 0.277877
H	-1.39058487	-6.4766184401	 0.8381480392	 0.142325
H	-2.5895284759	-5.5776500811	-0.1123099029	 0.166823
H	-1.3029307923	-6.4866034534	-0.9293823959	 0.142244
24.514	29.8618	84.964	96.2519	229.6619	280.8341	326.0691	361.8153	462.3755	489.7933	548.0165	550.5803	695.2683	707.6759	781.2129	971.6249	989.143	1050.8859	1053.4612	1059.6361	1065.6167	1083.3652	1176.7706	1274.9305	1369.4041	1410.1608	1413.1289	1430.3285	1474.5186	1475.7098	1484.1376	1497.7018	1505.627	1588.8967	2373.8051	3027.3233	3041.1191	3087.3391	3092.7349	3095.2519	3155.3254	3658.6807
CC#CC1=NNC(C)=N1	CC#Cc1n[nH]c(C)n1	
InChI=1S/C6H7N3/c1-3-4-6-7-5(2)8-9-6/h1-2H3,(H,7,8,9)	InChI=1S/C6H7N3/c1-3-4-6-7-5(2)8-9-6/h1-2H3,(H,7,8,9)
