22
gdb 59144	3.08432	1.25834	1.14863	0.7692	86.13	-0.2084	0.0709	0.2793	1205.3639	0.193092	-367.115926	-367.107061	-367.106117	-367.149159	35.148	
C	-0.2562324037	 1.5572827901	 0.4374295741	-0.379919
C	 0.2397306519	 0.1211011617	 0.2266501557	 0.060346
C	 0.9737513505	-0.4073535441	 1.4589114897	-0.381723
N	-0.9355857687	-0.716001692	-0.0421359895	-0.052362
C	-1.4922745567	-1.2453687056	-1.2428064474	-0.072692
C	-0.5582067407	-2.1457246565	-2.1338538096	-0.074098
C	 0.8422295794	-2.3563733248	-1.6149599496	-0.308873
C	-0.3010079157	-3.051886843	-0.9405494262	-0.065485
C	-1.2052121136	-2.1239967558	-0.0534707661	-0.074108
H	 0.5855984993	 2.2397247389	 0.597131975	 0.103175
H	-0.8136649543	 1.9039298028	-0.4381036326	 0.113149
H	-0.9224210923	 1.6095714414	 1.3041770526	 0.116061
H	 0.9266605579	 0.1420093877	-0.6286138325	 0.07653
H	 1.3609502021	-1.4168588341	 1.2929187405	 0.122239
H	 1.8134150951	 0.2453214459	 1.7152800529	 0.112673
H	 0.2934465889	-0.4421600913	 2.3163341982	 0.120614
H	-2.444054542	-0.8764757989	-1.6132550362	 0.090911
H	-0.8438225323	-2.4404117653	-3.1354517284	 0.087305
H	 1.4411621136	-3.0060194043	-2.2482073962	 0.11145
H	 1.4216433241	-1.5877546013	-1.1265051954	 0.117044
H	-0.3870875302	-4.1301885159	-0.8964360404	 0.086525
H	-1.8940793326	-2.5325618157	 0.6792488215	 0.091238
73.6737	144.1405	168.2818	225.2437	257.2405	311.7107	335.0736	351.1619	427.3411	549.134	640.9832	666.9499	700.6605	720.9828	738.0917	845.3739	867.5014	889.4275	929.1272	932.7001	934.5742	956.3886	976.7297	1015.1695	1021.7123	1034.4676	1059.4653	1083.5458	1090.4601	1126.6156	1158.5239	1181.6523	1192.0815	1253.9644	1266.5449	1283.0929	1318.6239	1344.9009	1382.5336	1395.1637	1413.3895	1432.5619	1482.4956	1486.4801	1491.721	1496.058	1510.7222	3011.5609	3030.7868	3039.0925	3102.1895	3107.775	3113.2785	3115.7345	3135.3909	3145.7647	3157.1061	3187.092	3198.2359	3249.2266
CC(C)N1C2C3CC3C12	CC(C)N1[C@H]2[C@H]3C[C@H]3[C@@H]12	
InChI=1S/C8H13N/c1-4(2)9-7-5-3-6(5)8(7)9/h4-8H,3H2,1-2H3	InChI=1S/C8H13N/c1-4(2)9-7-5-3-6(5)8(7)9/h4-8H,3H2,1-2H3/t5-,6+,7-,8+,9?
