19
gdb 74671	2.86323	1.85315	1.46106	1.2711	78.85	-0.2206	0.0129	0.2336	960.8626	0.161789	-385.890308	-385.883223	-385.882279	-385.921469	29.028	
C	-0.0389947844	 1.5011389232	 0.0663826159	-0.496579
C	-0.0957262034	 0.0112113067	-0.0206532987	 0.31538
C	-0.0496768985	-0.768885885	-1.1058251208	-0.190233
C	-0.0327176364	-2.2202195038	-0.7451394338	-0.085233
C	 1.085315138	-2.7055029295	 0.1960164814	-0.077103
C	 2.1047137857	-1.6948749775	 0.7197200797	-0.101908
O	 1.4002260617	-0.854986338	 1.6431573497	-0.261548
C	 0.0214597992	-0.859940056	 1.2343584873	-0.030973
C	-0.2505269976	-2.2928108684	 0.7410387325	-0.079829
H	 0.8456868091	 1.8183737314	 0.6312109428	 0.140588
H	-0.0016381808	 1.9660919942	-0.9226161277	 0.119981
H	-0.9117471844	 1.9015509528	 0.5986335694	 0.121856
H	 0.0180043003	-0.4145459788	-2.1288865659	 0.089499
H	-0.4661892607	-2.9551033722	-1.4146119398	 0.08302
H	 1.3662482136	-3.7515765657	 0.1483880367	 0.090331
H	 2.9191371689	-2.1821530285	 1.2645094733	 0.105094
H	 2.5398602798	-1.0929159389	-0.089787935	 0.09663
H	-0.5671812678	-0.5250687804	 2.0917074019	 0.072694
H	-0.9446187123	-2.9602079455	 1.2341248412	 0.088333
148.9778	185.5218	251.3495	285.5796	336.7467	482.8886	555.7284	590.1376	714.4104	728.1596	746.419	754.4378	822.856	860.0302	882.7357	918.7988	930.4159	962.1707	970.7448	1011.924	1016.7964	1021.1959	1040.6474	1068.9264	1084.5342	1098.6304	1140.7997	1191.0176	1234.5304	1267.0052	1288.0256	1303.2348	1329.7642	1344.9068	1361.0384	1396.3192	1408.2114	1477.3932	1491.7251	1510.8489	1705.7951	3008.0897	3017.7162	3068.4878	3074.6442	3086.6698	3109.8123	3166.608	3175.13	3188.3489	3200.3255
CC1=CC2C3COC1C23	CC1=C[C@H]2[C@H]3CO[C@@H]1[C@@H]23	
InChI=1S/C8H10O/c1-4-2-5-6-3-9-8(4)7(5)6/h2,5-8H,3H2,1H3	InChI=1S/C8H10O/c1-4-2-5-6-3-9-8(4)7(5)6/h2,5-8H,3H2,1H3/t5-,6+,7-,8-/m0/s1
