16
gdb 32169	2.81071	1.36783	0.93081	2.102	73.47	-0.2381	-0.0284	0.2097	1201.746	0.126995	-434.130774	-434.122705	-434.121761	-434.165593	29.592	
N	 0.3292750184	 1.0253253557	-0.8029544899	-0.492541
C	-0.2399526214	 0.4108529931	 0.3863281513	-0.241909
C	-1.5392408352	-0.3645518141	 0.2244214718	 0.332451
N	-1.9405495157	-1.0791486381	 1.2783601511	-0.298438
C	-3.0924345518	-1.7441954693	 1.1326526019	 0.016758
C	-3.8475912792	-1.7174048104	-0.0270141637	-0.225126
C	-3.3267864475	-0.9359532347	-1.0589875394	 0.440656
O	-3.9876471814	-0.8453973742	-2.2229509839	-0.407501
N	-2.1851653254	-0.2635759923	-0.9428797953	-0.386659
H	 0.5366203252	 0.3006591585	-1.4850966397	 0.226304
H	-0.3812158526	 1.6001878536	-1.2476962059	 0.229534
H	 0.4939255661	-0.2648459885	 0.8386439735	 0.134489
H	-0.4178860357	 1.1888143678	 1.1406393372	 0.133673
H	-3.4231895478	-2.3281638205	 1.9887671012	 0.119587
H	-4.7767466565	-2.2593805401	-0.1396957741	 0.11851
H	-3.4608237094	-0.2633974266	-2.789564076	 0.300212
7.6872	158.2354	187.0292	213.5035	252.6426	398.7231	443.9146	468.3392	558.3057	562.3519	616.0867	650.6049	761.9471	795.09	855.7076	913.6766	922.9854	1000.2299	1010.2868	1012.5152	1095.7424	1144.4623	1181.4797	1197.9227	1277.6875	1289.2966	1371.5635	1381.0071	1389.416	1436.4411	1468.5906	1490.2508	1616.4942	1645.3068	1677.0726	3029.381	3075.9863	3155.9983	3225.9356	3490.0866	3558.5474	3755.8218
NCC1=NC=CC(O)=N1	NCc1nccc(O)n1	
InChI=1S/C5H7N3O/c6-3-4-7-2-1-5(9)8-4/h1-2H,3,6H2,(H,7,8,9)	InChI=1S/C5H7N3O/c6-3-4-7-2-1-5(9)8-4/h1-2H,3,6H2,(H,7,8,9)
