23
gdb 86193	2.3071	1.37303	1.12927	2.6194	80.79	-0.2494	0.0657	0.315	1216.7542	0.205292	-425.43852	-425.428479	-425.427535	-425.472797	38.56	
C	 0.7051826572	 1.7055617203	-0.047095234	-0.398056
C	 0.185316954	 0.2629335325	 0.008696765	-0.023287
C	 0.6315422219	-0.586161347	-1.198252926	 0.133368
O	 0.5609820051	 0.1592434658	-2.4020923007	-0.43785
C	 2.054998373	-1.0792490613	-0.8338168995	-0.282413
C	 2.1480055113	-1.0313339848	 0.7156878812	 0.10696
O	 3.1077707211	-0.0788870669	 1.1720804614	-0.424465
C	 0.7397151348	-0.5825699566	 1.1819148131	 0.027913
C	 0.6930951223	 0.0508190572	 2.5709264737	-0.414579
H	 1.7961022113	 1.7443156991	-0.00166466	 0.128693
H	 0.3786980751	 2.1873223469	-0.9713406759	 0.125055
H	 0.3174371465	 2.2850484137	 0.7962307574	 0.104561
H	-0.909579484	 0.293285524	 0.0520479337	 0.063307
H	-0.0401794532	-1.4574605445	-1.2630029224	 0.060165
H	 0.8097897496	-0.4204012335	-3.1282411388	 0.280579
H	 2.2633131964	-2.074578995	-1.2395828989	 0.086817
H	 2.7866631244	-0.3845495546	-1.2585139022	 0.106146
H	 2.3926865919	-2.0169921117	 1.137267279	 0.057671
H	 3.9719872869	-0.3554637481	 0.8525195194	 0.281325
H	 0.1360911468	-1.5013791908	 1.2108782227	 0.067144
H	 1.3277999269	 0.9364258884	 2.6295623577	 0.138799
H	-0.3314863242	 0.3392867143	 2.828830665	 0.104786
H	 1.042210025	-0.6553355274	 3.3317646592	 0.107361
71.2119	128.7227	213.8818	226.0055	244.3641	256.991	260.9572	281.427	285.6306	349.4386	409.0045	442.0639	490.6544	559.6465	607.6059	704.179	764.6839	814.7724	839.5725	942.246	961.5712	995.8942	1003.021	1032.0248	1057.1506	1064.5606	1082.1863	1135.1619	1154.6465	1177.8609	1213.5904	1227.4064	1255.8859	1270.4945	1285.2774	1325.2236	1342.5354	1370.7879	1379.6464	1388.5501	1406.0724	1409.4897	1426.6295	1438.6047	1480.4524	1491.3285	1496.6507	1507.0986	1511.1462	2958.2465	2979.6455	2999.0853	3034.7983	3038.9237	3043.3808	3050.1214	3091.3493	3095.1222	3116.0398	3136.6327	3138.8134	3821.8455	3824.5479
CC1C(O)CC(O)C1C	C[C@H]1[C@@H](O)C[C@@H](O)[C@H]1C	
InChI=1S/C7H14O2/c1-4-5(2)7(9)3-6(4)8/h4-9H,3H2,1-2H3	InChI=1S/C7H14O2/c1-4-5(2)7(9)3-6(4)8/h4-9H,3H2,1-2H3/t4-,5+,6+,7-
