18
gdb 111831	2.4504	1.45288	1.05278	2.5236	71.69	-0.2384	-0.033	0.2055	1152.0107	0.147268	-439.041383	-439.032843	-439.031899	-439.075486	31.236	
O	 0.9629918441	-0.8178147671	 0.574154471	-0.414894
C	 0.0942142875	 0.0469012998	-0.1360208485	-0.084388
C	-1.3515795794	-0.4114915279	-0.0616234893	-0.110415
N	-2.1195983261	-0.329687424	 1.2392540991	-0.164254
C	-2.0111867614	 0.9907684368	 1.9629036015	-0.183358
C	-3.3811394651	 1.4643490004	 1.413394699	-0.247176
C	-3.3429048849	 0.212195085	 0.513616572	-0.090516
C	-2.4945145168	 0.3468732319	-0.766437134	 0.352133
O	-2.6375370262	 0.8833636256	-1.8243761454	-0.291689
H	 0.6188008158	-0.9075516102	 1.4692034069	 0.293544
H	 0.2009942338	 1.089371856	 0.1983135428	 0.09792
H	 0.4084712793	 0.018076061	-1.1842095466	 0.133543
H	-1.3801586262	-1.4632722302	-0.3802686942	 0.125841
H	-1.9572312041	 0.8509095075	 3.0452737558	 0.117415
H	-1.1655568607	 1.6142746514	 1.6564501065	 0.111293
H	-4.1847042159	 1.4343633119	 2.1509608491	 0.122523
H	-3.4091483138	 2.4256570535	 0.8972164629	 0.125465
H	-4.2316491598	-0.4201256012	 0.4385061115	 0.107011
55.0773	76.9018	119.1735	188.584	274.8517	296.8281	344.6965	448.3318	537.5436	570.3842	641.0296	729.1179	755.3006	823.224	875.7673	910.5003	930.0533	955.5761	991.7049	1028.4515	1060.2006	1074.5761	1098.257	1122.2648	1173.0743	1185.6441	1213.217	1225.104	1240.0036	1253.7009	1288.7098	1305.6804	1322.3651	1381.6752	1417.0347	1484.9365	1498.0635	1515.3533	1891.8029	2992.7044	3014.8425	3050.6442	3073.1529	3081.6251	3083.1406	3095.5394	3134.0845	3812.6637
OCC1N2CCC2C1=O	OC[C@H]1N2CC[C@H]2C1=O	
InChI=1S/C6H9NO2/c8-3-5-6(9)4-1-2-7(4)5/h4-5,8H,1-3H2	InChI=1S/C6H9NO2/c8-3-5-6(9)4-1-2-7(4)5/h4-5,8H,1-3H2/t4-,5+/m0/s1
