16
gdb 52232	4.65584	0.6991	0.67629	2.1315	68.36	-0.2677	-0.0457	0.222	1602.4212	0.122236	-475.016129	-475.007008	-475.006064	-475.051865	31.002	
O	 0.4071545643	 0.2336102373	-0.617429831	-0.268558
C	 0.3966629067	 1.4149353415	-0.453363869	 0.175328
O	 0.8502573567	 1.9905766958	 0.6836461928	-0.181733
C	 0.8791361541	 3.4217295991	 0.7264534646	-0.10766
C	 2.2321052222	 3.9159075202	 0.2759052842	-0.015089
N	 2.4154839847	 4.0956870541	-1.1564950371	-0.329916
C	 2.4734931008	 5.2886988075	-0.2885802405	-0.129089
C	 1.3786305596	 6.2867440038	-0.4764162392	 0.16979
O	 1.4608825469	 7.4340407069	-0.1206020219	-0.246717
H	 0.0163517198	 2.1516145861	-1.1851534472	 0.092576
H	 0.0836893225	 3.8368845897	 0.0991865705	 0.121472
H	 0.6865666473	 3.6970661105	 1.7663682197	 0.138192
H	 3.0593048955	 3.5037580828	 0.8513825962	 0.119615
H	 3.3477211609	 3.8244355221	-1.4554154076	 0.25477
H	 3.4363650827	 5.7368490774	-0.0556443688	 0.118303
H	 0.4755949253	 5.8891792152	-0.988829726	 0.088716
42.1959	56.8601	81.346	139.2998	198.6931	258.4132	326.3867	358.1924	433.8471	443.7376	528.4271	670.5257	834.6356	852.4797	918.9968	964.6514	1008.8367	1020.5163	1032.5199	1047.301	1059.7551	1125.2025	1152.927	1208.5183	1233.9829	1250.0755	1314.1763	1356.0109	1384.954	1418.5394	1429.4521	1474.786	1492.0884	1827.3099	1870.1587	2897.4476	2970.4883	3054.6042	3111.0267	3131.565	3151.227	3523.0398
O=COCC1NC1C=O	O=COC[C@H]1N[C@H]1C=O	
InChI=1S/C5H7NO3/c7-1-4-5(6-4)2-9-3-8/h1,3-6H,2H2	InChI=1S/C5H7NO3/c7-1-4-5(6-4)2-9-3-8/h1,3-6H,2H2/t4-,5+/m0/s1
