14
gdb 127497	3.95801	1.1574	0.9018	8.0783	72.22	-0.247	-0.0302	0.2168	1207.7639	0.102883	-429.088595	-429.080333	-429.079389	-429.121682	29.318	
C	-0.0156279809	 1.405990903	-0.0481909367	-0.342619
N	 0.0045619737	-0.0399459213	 0.0123472771	 0.005004
N	 0.0401739096	-0.7924330295	-1.1185626077	-0.296513
C	 0.0229914859	-2.0238784814	-0.6290047232	 0.243769
N	-0.0031255247	-2.1202544513	 0.73301448	-0.360166
C	-0.0105740326	-0.8514972871	 1.100394728	 0.403623
N	-0.1063098902	-0.3819385822	 2.392005417	-0.610036
C	 0.0365792219	-3.1654465117	-1.4842905613	 0.266864
N	 0.0487696355	-4.0964170524	-2.1697227631	-0.335486
H	 0.9905079405	 1.826798401	 0.0549153667	 0.148748
H	-0.4244885354	 1.6967926624	-1.0153318719	 0.178306
H	-0.6559619414	 1.7907584896	 0.7497043206	 0.155998
H	-0.0147144828	-1.1307321337	 3.0650731171	 0.278414
H	 0.492016921	 0.4005941246	 2.6178364974	 0.264095
96.2198	126.1084	154.4064	196.1593	270.1175	290.4191	320.551	434.9764	517.3148	544.5732	614.1543	644.5545	678.6494	746.3885	772.8948	829.8898	1041.8018	1053.5915	1121.516	1151.9503	1270.1529	1304.1853	1388.4063	1436.4575	1472.6826	1489.4325	1506.0291	1533.165	1591.9141	1658.8536	2365.9101	3040.9712	3112.7377	3165.4913	3560.0213	3657.8635
CN1N=C(N=C1N)C#N	Cn1nc(nc1N)C#N	
InChI=1S/C4H5N5/c1-9-4(6)7-3(2-5)8-9/h1H3,(H2,6,7,8)	InChI=1S/C4H5N5/c1-9-4(6)7-3(2-5)8-9/h1H3,(H2,6,7,8)
