15
gdb 128701	2.7216	1.62177	1.02277	2.7194	75.71	-0.2114	-0.0382	0.1731	1100.5271	0.114305	-450.098658	-450.090738	-450.089794	-450.131308	29.033	
C	-0.0169025169	 1.3740409656	 0.0273601119	-0.232046
O	 0.02742512	-0.0529299086	 0.0423876479	-0.226139
C	 0.6306768384	-0.6336680505	 1.0758242962	 0.471664
N	 1.1508723584	 0.0901171517	 2.0198002635	-0.32906
N	 1.7452628304	-0.5734405942	 3.0329930993	-0.111216
N	 1.8608402151	-1.8815898448	 3.1792829146	-0.182683
C	 1.3441988761	-2.6209214871	 2.24080458	-0.043693
C	 0.6605278942	-2.1065180618	 1.0639015035	 0.146922
N	 0.1291845823	-2.7727437138	 0.1018380795	-0.52958
H	 0.9927878063	 1.795604894	 0.0207973144	 0.136376
H	-0.5461787827	 1.6387577422	-0.8878514205	 0.140366
H	-0.5506965617	 1.756980748	 0.9023540159	 0.136405
H	 2.142726577	 0.0003460933	 3.7566472583	 0.290572
H	 1.4455381885	-3.6943053035	 2.3716578997	 0.121632
H	 0.2493412147	-3.7753279606	 0.2683948957	 0.21048
89.571	139.7912	188.985	221.7236	330.6531	336.3574	345.0802	494.0576	521.6106	544.4733	624.5677	626.4983	773.9671	784.4302	859.1856	912.2556	916.5431	1041.0271	1111.1246	1126.4531	1177.7314	1196.2798	1237.916	1325.0855	1372.7319	1434.1351	1465.5723	1480.9508	1495.519	1516.536	1587.402	1635.3471	1671.6237	3040.3533	3109.8339	3157.2981	3175.4724	3430.3503	3675.6531
COC1=NNN=CC1=N	COc1n[nH]ncc1[NH]	
InChI=1S/C4H6N4O/c1-9-4-3(5)2-6-8-7-4/h2H,1H3,(H2,5,8)	InChI=1S/C4H11N4O/c1-9-4-3(5)2-6-8-7-4/h3-8H,2H2,1H3
