16
gdb 29289	5.74297	0.93951	0.85342	2.0701	74.52	-0.1966	0.0083	0.2049	1323.4555	0.124968	-437.879274	-437.871249	-437.870304	-437.912268	29.992	
N	-0.0973518363	 1.4193961208	-0.2481589456	-0.606099
C	-0.0053454169	 0.0363445551	-0.0420655361	 0.2354
C	-0.9687218463	-0.8265793195	 0.3931471803	-0.096012
O	-0.4467824933	-2.083011021	 0.5519103605	-0.187622
C	 0.8592809981	-2.0201651077	 0.1975787664	 0.415682
C	 1.188923796	-0.7499235891	-0.1702476037	-0.364868
C	 1.6569602128	-3.2491963498	 0.274284102	-0.048687
C	 1.2390569182	-4.4236740261	 1.055680309	-0.177088
O	 1.13615908	-4.4300038201	-0.3654601819	-0.232607
H	 0.4609115185	 1.7342999263	-1.0311275237	 0.246463
H	-1.0497582191	 1.738006941	-0.3704359273	 0.244434
H	-2.0130216332	-0.7150821987	 0.6308911635	 0.122607
H	 2.1603889879	-0.4068960526	-0.4926804819	 0.106743
H	 2.7211734637	-3.0876630086	 0.1091784124	 0.099911
H	 1.9980668094	-5.080867456	 1.4793449667	 0.113751
H	 0.2927086905	-4.3877112541	 1.5912841395	 0.127992
59.3972	140.0004	165.8707	217.3327	307.6816	323.5357	434.0837	456.472	623.8423	629.0567	674.4986	702.388	724.6522	755.3472	801.6525	826.1445	895.8156	968.1534	996.2713	1004.5077	1094.2704	1108.0238	1153.7582	1159.6298	1165.4085	1184.5213	1264.5915	1285.6185	1356.3224	1399.4976	1452.0907	1516.7251	1589.7303	1653.3726	1680.4649	3084.171	3126.639	3178.6693	3248.0872	3280.6914	3538.3994	3627.2011
NC1=COC(=C1)C1CO1	Nc1coc(c1)[C@H]1CO1	
InChI=1S/C6H7NO2/c7-4-1-5(8-2-4)6-3-9-6/h1-2,6H,3,7H2	InChI=1S/C6H7NO2/c7-4-1-5(8-2-4)6-3-9-6/h1-2,6H,3,7H2/t6-/m1/s1
