18
gdb 74640	4.31553	1.39593	1.29608	1.1289	76.82	-0.248	0.0138	0.2617	1028.9237	0.149089	-401.884932	-401.877937	-401.876993	-401.916066	28.539	
C	-0.1322947305	 1.4729323662	 0.1114427544	-0.484715
C	 0.0342728183	 0.0050488144	-0.0664142831	 0.378976
N	-0.0656322336	-0.6464780739	-1.1679917163	-0.345089
C	-0.0055819327	-2.0561145787	-0.7426059931	 0.027783
C	 1.1254088529	-3.1554402167	-0.7456561387	-0.106683
C	 2.0848460152	-2.1085376522	-0.140732528	-0.278147
C	 0.7136755134	-1.9323199626	 0.5765533132	 0.391344
C	 0.6387470807	-3.4687801012	 0.7418251574	-0.303379
O	 0.3272602655	-0.6819790121	 1.1201075129	-0.319497
H	 0.7881895752	 1.9173299041	 0.5027188966	 0.146373
H	-0.3868737992	 1.9304651027	-0.8439942934	 0.153158
H	-0.9246768044	 1.6741238936	 0.8395609137	 0.148038
H	-1.0170418975	-2.4779803568	-0.748568121	 0.079134
H	 1.3509782349	-3.9076387747	-1.499330274	 0.090728
H	 2.9080141876	-2.4898015802	 0.4672540742	 0.093019
H	 2.3991724519	-1.2989674172	-0.7990560589	 0.11434
H	-0.3550731567	-3.9086085372	 0.8492323951	 0.108222
H	 1.3779253189	-3.9482734773	 1.386735229	 0.106395
139.9934	163.33	284.4882	338.8975	406.1412	475.0034	497.4751	554.6311	628.6352	719.2014	750.857	773.008	832.6361	858.4303	891.4742	923.8114	951.6682	985.5779	1002.1919	1022.4482	1059.0387	1065.4273	1083.0783	1092.415	1108.72	1150.5729	1170.214	1179.7012	1209.5032	1230.5895	1253.0106	1301.8791	1370.0689	1407.9621	1472.7411	1474.1693	1492.5779	1533.0809	1662.6785	3039.6469	3049.9032	3065.8837	3074.2947	3107.527	3133.9363	3139.2879	3149.397	3165.3453
CC1=NC2C3CC2(C3)O1	C[C]1[N][C@H]2[C@H]3C[C@@]2(C3)O1	
InChI=1S/C7H9NO/c1-4-8-6-5-2-7(6,3-5)9-4/h5-6H,2-3H2,1H3	InChI=1S/C7H9NO/c1-4-8-6-5-2-7(6,3-5)9-4/h5-6H,2-3H2,1H3/t5-,6-,7-/m0/s1
