21
gdb 103612	2.61988	1.18658	1.0487	1.4326	79.13	-0.2265	-0.0251	0.2014	1288.5604	0.179681	-424.242017	-424.231745	-424.230801	-424.277371	37.601	
C	 0.1655242903	 1.5267701617	 0.0908689411	-0.411911
C	 0.0595586989	-0.000492871	-0.0024121782	-0.236185
C	-1.3767811391	-0.5114155253	 0.0259014285	 0.307224
O	-2.1743816923	 0.0094865577	-1.0371377729	-0.481757
C	-1.6221355217	-2.0453143836	 0.0966313437	-0.291577
C	-2.6687267696	-1.8579603034	 1.2442927429	-0.085258
C	-2.6146322074	-2.7327330912	 2.4895236825	-0.409956
C	-2.168608095	-0.4100463504	 1.3636111752	 0.34003
O	-2.2725643679	 0.4427705249	 2.2011409251	-0.312778
H	 1.2121315813	 1.8434153151	 0.1112328425	 0.118346
H	-0.2981212345	 2.0108290982	-0.7758165922	 0.110997
H	-0.3227270214	 1.8972543348	 0.9965814135	 0.147753
H	 0.5303092988	-0.3584937897	-0.9268819302	 0.106103
H	 0.6070068456	-0.4589673009	 0.8303746221	 0.098762
H	-2.2666687297	 0.9586983487	-0.8970690374	 0.289707
H	-1.9916359795	-2.4787430792	-0.8328570713	 0.117222
H	-0.7335846558	-2.5883152776	 0.4299514987	 0.104973
H	-3.6838621286	-1.8437092667	 0.8295043277	 0.113876
H	-1.602584212	-2.7636598192	 2.9070711179	 0.118289
H	-3.2823315763	-2.3426657345	 3.2635494727	 0.135041
H	-2.9175908842	-3.7599397985	 2.2636023181	 0.121098
41.7359	104.2035	140.3777	188.59	201.0025	227.0439	256.7166	286.6085	297.2086	355.6028	382.5111	405.7687	538.7701	612.3303	709.7184	725.3806	781.3459	833.3507	878.0018	910.9074	954.5644	967.1255	1002.9014	1031.1177	1067.7942	1108.2319	1132.5516	1156.0732	1195.1508	1206.8321	1250.7629	1268.0448	1316.7107	1323.5701	1328.829	1385.5179	1406.2731	1411.2277	1471.8861	1474.5306	1494.5165	1495.3082	1505.431	1514.6664	1872.7756	3022.3774	3034.4851	3038.0603	3041.3685	3059.9535	3070.4958	3102.2701	3102.5478	3111.3071	3123.5879	3140.3774	3804.6172
CCC1(O)CC(C)C1=O	CC[C@@]1(O)C[C@@H](C)C1=O	
InChI=1S/C7H12O2/c1-3-7(9)4-5(2)6(7)8/h5,9H,3-4H2,1-2H3	InChI=1S/C7H12O2/c1-3-7(9)4-5(2)6(7)8/h5,9H,3-4H2,1-2H3/t5-,7-/m1/s1
