14
gdb 129793	3.57442	1.63525	1.12877	6.2758	69.88	-0.2106	-0.0003	0.2103	990.598	0.105544	-429.062919	-429.055826	-429.054882	-429.094309	27.101	
N	 0.2316076857	 1.435179466	 0.0065697369	-0.622132
C	-0.0376527228	 0.0524762963	 0.0118424568	 0.135313
C	-1.1463414198	-0.7737790734	-0.0136325746	 0.267074
N	-2.5192745942	-0.917713107	-0.0538522986	-0.459458
C	-2.747606593	-2.2862296528	-0.0474218684	 0.009623
N	-1.6714194289	-3.0259706513	-0.007602093	-0.329681
C	-0.646535522	-2.0970870981	 0.0144074004	 0.36691
N	 0.6871940625	-2.145804022	 0.055261285	-0.33931
N	 1.0112600234	-0.8375699205	 0.0522994983	-0.190525
H	-0.112057593	 1.8942361061	-0.8299690948	 0.247185
H	-0.1637721873	 1.910515473	 0.8105262609	 0.247172
H	-3.2251782251	-0.2039668441	-0.0820152135	 0.262173
H	-3.7588455071	-2.6688008607	-0.074320748	 0.131213
H	 1.9799307616	-0.5623606615	 0.0790277928	 0.274442
130.0533	189.5166	282.9027	283.6983	300.3292	407.3363	529.553	579.2127	621.0098	633.4748	660.6975	719.6468	781.1772	791.2368	832.1704	858.6474	950.4129	1063.6343	1118.6173	1196.3427	1207.7139	1214.3819	1274.3421	1329.3413	1386.8411	1433.9926	1477.9434	1512.903	1552.1653	1653.0138	1693.641	3237.6535	3505.4261	3572.8722	3661.0855	3685.4318
NC1=C2NC=NC2=NN1	Nc1c2[nH]cnc2n[nH]1	
InChI=1S/C4H5N5/c5-3-2-4(9-8-3)7-1-6-2/h1H,(H4,5,6,7,8,9)	InChI=1S/C4H5N5/c5-3-2-4(9-8-3)7-1-6-2/h1H,(H4,5,6,7,8,9)
