15
gdb 45355	2.46711	1.80394	1.22836	4.5407	65.02	-0.2616	-0.0462	0.2154	985.7025	0.11362	-457.821214	-457.814142	-457.813198	-457.85315	26.769	
O	-0.1477635446	 0.1465048808	 0.4121112235	-0.306599
C	-0.0407621157	 1.2835263802	 0.0945669814	 0.448928
O	-1.0229707648	 2.1481035248	-0.3121016751	-0.255784
C	-0.0444609188	 3.2202687795	-0.5775799762	 0.114524
C	-0.2173566788	 4.4077108266	 0.3694755434	-0.242542
C	 0.4115732329	 3.9626192646	 1.7021774033	-0.33508
C	 1.4796865736	 2.931552886	 1.320490855	 0.414528
O	 2.4624095059	 2.6466876375	 1.9461502229	-0.296889
C	 1.0860560515	 2.3269969156	-0.0383382051	-0.336517
H	-0.051837791	 3.4656459875	-1.6392989216	 0.110456
H	 0.3299179799	 5.2622570021	-0.0434707725	 0.122861
H	-1.2675936204	 4.6963498501	 0.4538611902	 0.133542
H	 0.8482721798	 4.7704082398	 2.2910742571	 0.140143
H	-0.3219220299	 3.45449213	 2.3405886581	 0.155049
H	 1.9408298003	 2.0360460351	-0.6450683145	 0.133382
95.8261	136.4048	167.6394	337.3184	437.3889	471.4431	484.776	599.7414	636.3497	711.1698	763.7132	799.1182	829.3704	859.7024	894.0124	958.3606	978.7426	1025.7333	1048.5622	1090.4493	1144.1186	1146.9081	1178.9044	1201.6119	1227.3256	1288.0671	1317.6502	1337.7875	1357.1511	1455.6358	1479.7339	1853.4776	1944.3811	3046.241	3054.4094	3111.59	3121.0081	3128.8642	3152.5748
O=C1OC2CCC(=O)C12	O=C1O[C@H]2CCC(=O)[C@@H]12	
InChI=1S/C6H6O3/c7-3-1-2-4-5(3)6(8)9-4/h4-5H,1-2H2	InChI=1S/C6H6O3/c7-3-1-2-4-5(3)6(8)9-4/h4-5H,1-2H2/t4-,5+/m0/s1
