18
gdb 87294	2.33282	1.49244	1.05668	4.6413	73.74	-0.2293	-0.0142	0.2151	1156.0771	0.145105	-439.030172	-439.021144	-439.0202	-439.064216	33.456	
O	 0.2057331479	 1.1891630766	-0.2053307399	-0.418287
C	-0.04859645	-0.1583123637	 0.055674394	 0.074074
C	-0.6778151093	-0.577178519	 1.349514701	-0.394009
C	-1.4779303515	-0.6272618873	 0.0208414335	 0.205486
C	-2.5483812301	 0.4148811853	-0.053880266	 0.148413
O	-3.6473451393	 0.2192462856	-0.5073683859	-0.272804
N	-1.8003392783	-1.8258311124	-0.6955854568	-0.114682
C	-1.3283103701	-3.1337024779	-0.2543855994	-0.243835
C	-2.7580085806	-2.7490375353	-0.1007148866	-0.204059
H	 0.9505701431	 1.4625236114	 0.3409455417	 0.292638
H	 0.6558401016	-0.859014203	-0.3941382036	 0.106109
H	-0.3713115149	-1.5087930115	 1.8099305037	 0.129043
H	-0.9565076583	 0.2065632178	 2.0467055328	 0.127665
H	-2.2558487341	 1.3953665463	 0.3721093726	 0.087732
H	-1.0147216191	-3.7982380923	-1.0542657249	 0.123498
H	-0.7341908311	-3.2144019673	 0.6533071391	 0.109466
H	-3.1038220255	-2.5406713561	 0.9095602136	 0.115986
H	-3.5176835803	-3.131705747	-0.7743140889	 0.127567
50.7828	118.2881	163.981	210.0821	231.4938	277.4637	301.601	341.8185	421.1038	465.2421	525.4844	582.7823	680.5195	765.9872	811.724	881.5447	905.326	910.9392	956.3608	985.8524	1020.6342	1032.9277	1049.0106	1094.8466	1111.943	1122.351	1160.4692	1173.8873	1181.4511	1242.5668	1277.0797	1308.2153	1368.1429	1417.3628	1441.0612	1478.6292	1495.2577	1518.5667	1819.5048	2934.0751	3098.2737	3101.328	3109.1809	3134.5067	3182.4177	3202.3677	3226.2059	3802.8836
OC1CC1(C=O)N1CC1	O[C@H]1C[C@]1(C=O)N1CC1	
InChI=1S/C6H9NO2/c8-4-6(3-5(6)9)7-1-2-7/h4-5,9H,1-3H2	InChI=1S/C6H9NO2/c8-4-6(3-5(6)9)7-1-2-7/h4-5,9H,1-3H2/t5-,6+/m0/s1
