18
gdb 86826	4.69366	0.78386	0.7464	2.2612	69.22	-0.2623	0.0562	0.3185	1521.7505	0.146797	-476.253277	-476.243954	-476.243009	-476.288614	34.037	
N	-0.1185355237	 1.2434370534	-0.0810440018	-0.564263
C	 0.0395224721	-0.1017827105	 0.1025692658	 0.487152
O	 1.0436790514	-0.6385426923	 0.5085573175	-0.400923
O	-1.0910043078	-0.752879601	-0.275378832	-0.268325
C	-1.0373375934	-2.1756120861	-0.1748410325	 0.170274
C	-1.3830917305	-2.8140587997	 1.1896303884	-0.260402
C	-2.2450427469	-3.8443731517	 0.4286352569	 0.130591
O	-3.4656425898	-4.1377517794	 1.0655858337	-0.427339
C	-2.2555145046	-2.8806392015	-0.7970657264	-0.305294
H	 0.5649810783	 1.8339940989	 0.360179899	 0.268125
H	-1.0467761542	 1.6086156576	-0.2096747325	 0.263856
H	-0.0788762363	-2.5228992321	-0.5630083871	 0.104828
H	-0.5651071961	-3.1673802908	 1.817612725	 0.115334
H	-2.0367683199	-2.1522306799	 1.7646525432	 0.117968
H	-1.6793409343	-4.76065523	 0.2105892151	 0.070748
H	-3.9332170166	-4.7937956716	 0.5388547607	 0.28282
H	-3.1351411313	-2.233554772	-0.7428015993	 0.116547
H	-2.1580018465	-3.2936548112	-1.8034217437	 0.098303
30.3134	66.9034	106.3389	193.0318	266.7493	321.4841	340.9865	356.9961	422.8364	441.0569	486.0386	515.3425	594.4259	690.9598	784.3353	802.869	806.8825	911.2947	934.5315	982.8554	1016.4485	1063.0626	1071.1453	1112.9856	1126.8367	1173.0952	1204.37	1208.5443	1248.0798	1267.943	1274.9314	1328.9649	1349.1069	1413.7729	1432.9706	1463.8406	1496.8657	1611.2807	1831.6572	3002.8279	3063.0981	3073.8335	3100.2453	3127.521	3142.7507	3614.6066	3744.4013	3814.9758
NC(=O)OC1CC(O)C1	NC(=O)O[C@H]1C[C@@H](O)C1	
InChI=1S/C5H9NO3/c6-5(8)9-4-1-3(7)2-4/h3-4,7H,1-2H2,(H2,6,8)	InChI=1S/C5H9NO3/c6-5(8)9-4-1-3(7)2-4/h3-4,7H,1-2H2,(H2,6,8)/t3-,4+
