18
gdb 12919	3.43428	1.56227	1.29642	2.2111	67.74	-0.2357	0.0652	0.3009	997.9139	0.152994	-384.88926	-384.88102	-384.880076	-384.922133	30.399	
C	-0.0909674274	 1.5625475399	 0.00095786	-0.497655
C	 0.003686263	 0.0651566892	 0.0280312708	 0.238803
C	-0.952489923	-0.8844989924	-0.6980638332	-0.135183
O	-0.8947258259	-1.8505687777	 0.3850119831	-0.289013
C	-0.0847531494	-0.9502431055	 1.1502759221	 0.032813
C	 1.2377683017	-0.7073348122	 0.4768268791	-0.111119
C	 1.9656344913	-1.7687388525	-0.3162275059	-0.095744
O	 2.7175343704	-2.633806225	 0.5246367492	-0.418502
H	 0.4910347616	 2.0099079074	 0.8127723438	 0.124865
H	 0.2957378578	 1.9703223035	-0.940828161	 0.124919
H	-1.128870045	 1.8979615195	 0.1081230692	 0.121294
H	-1.9652469032	-0.4717906918	-0.783947643	 0.106976
H	-0.6481017193	-1.3094856024	-1.6613064901	 0.106269
H	-0.2898664253	-0.863602873	 2.2119609442	 0.102325
H	 1.8989156966	-0.0860976467	 1.0794005201	 0.093295
H	 1.2580232512	-2.3373585522	-0.9327884384	 0.101596
H	 2.6938591604	-1.3042131083	-0.9893830382	 0.108031
H	 2.0880185645	-3.0898451997	 1.0931601481	 0.28603
53.3401	159.0297	186.0606	222.5758	257.5817	301.5993	326.8745	373.2779	475.0625	601.1817	635.5414	763.7072	815.7889	914.3263	925.464	942.9909	981.4871	999.702	1005.4298	1053.3609	1066.7197	1076.0027	1125.4753	1144.053	1168.2175	1204.6613	1244.6187	1282.2415	1296.4944	1343.3491	1396.2682	1417.1525	1418.7364	1476.8211	1487.6198	1494.4554	1498.2225	1519.4565	3017.8322	3022.3796	3025.9039	3067.8675	3074.9868	3080.2403	3099.7267	3129.8035	3171.2054	3811.7586
CC12COC1C2CO	C[C@]12CO[C@H]1[C@H]2CO	
InChI=1S/C6H10O2/c1-6-3-8-5(6)4(6)2-7/h4-5,7H,2-3H2,1H3	InChI=1S/C6H10O2/c1-6-3-8-5(6)4(6)2-7/h4-5,7H,2-3H2,1H3/t4-,5+,6-/m1/s1
