20
gdb 102109	2.13131	1.18277	0.8768	3.0568	77.13	-0.2306	-0.0199	0.2107	1371.3981	0.168002	-440.246334	-440.236047	-440.235102	-440.282494	36.138	
C	-0.4272153465	 1.3486388289	-0.0622928077	-0.318357
N	 0.068656077	-0.0134609559	 0.0605111093	-0.084861
C	 1.4838562468	-0.2473458365	-0.1948122501	-0.256808
C	 0.9284826638	-0.3995335242	 1.1814342149	-0.014718
C	 1.3465845206	 0.5532648372	 2.298174012	-0.096179
C	 0.3707111791	 0.4944304238	 3.4706845176	-0.0996
O	 0.8528962238	 1.3879858187	 4.4602076038	-0.419399
C	 2.7462647628	 0.1625877289	 2.7547797669	 0.182107
O	 3.7564396473	 0.6992455526	 2.3843849211	-0.254217
H	 0.3036403563	 2.131729274	 0.1914174814	 0.110933
H	-0.7357976639	 1.5078436126	-1.1002269196	 0.129421
H	-1.3087073601	 1.476865527	 0.5743435066	 0.122721
H	 1.7289588108	-1.1185532281	-0.7964028044	 0.118357
H	 2.1237625933	 0.6184382277	-0.3636141484	 0.122681
H	 0.7210932585	-1.4101297307	 1.534240917	 0.092964
H	 1.4149465337	 1.5781968617	 1.9260671099	 0.107023
H	-0.6400509707	 0.7645576291	 3.13061648	 0.102348
H	 0.3217710509	-0.5396866398	 3.8519157403	 0.091857
H	 0.2893104746	 1.3216547416	 5.2366861453	 0.292585
H	 2.7772669218	-0.710428179	 3.4487629641	 0.071143
47.2897	70.7894	95.7583	151.0788	182.1561	218.3298	224.813	283.1854	334.1802	356.4962	394.1193	446.0585	532.7458	562.9111	750.7932	836.6279	885.3564	919.2198	982.4135	1032.4829	1055.301	1069.5739	1095.5652	1115.1297	1129.2754	1134.8449	1160.034	1181.5522	1204.6916	1230.7196	1242.7532	1274.8215	1327.0452	1342.0441	1409.5449	1428.5589	1450.0789	1453.7095	1489.9023	1502.9167	1516.3157	1520.2614	1836.5664	2852.3569	2962.2675	2982.8169	3007.5657	3068.143	3088.5153	3090.8781	3101.987	3102.3773	3178.3502	3831.2674
CN1CC1C(CO)C=O	CN1C[C@H]1[C@@H](CO)C=O	
InChI=1S/C6H11NO2/c1-7-2-6(7)5(3-8)4-9/h3,5-6,9H,2,4H2,1H3	InChI=1S/C6H11NO2/c1-7-2-6(7)5(3-8)4-9/h3,5-6,9H,2,4H2,1H3/t5-,6+,7?/m1/s1
