16
gdb 49324	2.0797	1.78972	1.08431	1.9501	71.45	-0.2574	-0.0386	0.2188	1097.352	0.122558	-437.870892	-437.862667	-437.861723	-437.904272	30.233	
N	 0.0973850287	 1.1786870838	-0.2913581299	-0.545192
C	 0.0342500381	-0.0306381594	 0.0272065983	 0.428358
O	 0.9709033692	-0.8935106785	 0.5497561998	-0.270628
C	-0.0055219818	-1.9716536201	 0.6187275367	 0.455748
C	 0.3796530714	-3.3826987907	 0.3574763852	-0.341272
C	-0.0216585094	-2.9254105827	 1.7562637874	-0.327146
C	-1.0763555754	-1.072485708	 0.0132721318	-0.350904
C	-2.324619762	-0.722713295	 0.7958013731	 0.147384
O	-2.7966462432	-1.401583844	 1.6695655454	-0.234819
H	 1.0269695012	 1.5667590711	-0.1238585259	 0.235438
H	-0.305360475	-4.0081339784	-0.2054255436	 0.12742
H	 1.4307401002	-3.5804113148	 0.1784136662	 0.134813
H	 0.7706372735	-2.824019411	 2.4897265267	 0.133764
H	-0.9868294882	-3.2162161632	 2.1507139933	 0.15274
H	-1.3766678568	-1.3340113746	-1.0085354952	 0.141414
H	-2.7905209605	 0.2345371954	 0.4797271008	 0.112883
62.9267	107.4719	164.6736	199.4015	250.7504	300.5467	433.0001	455.5356	516.9136	614.2623	673.9265	755.0752	761.2949	843.9218	863.835	884.1961	917.4162	968.5828	986.4176	1010.5692	1051.5367	1057.1096	1076.8443	1091.303	1167.7688	1174.8885	1185.9894	1285.426	1312.2645	1390.1392	1422.3218	1450.4965	1504.2112	1815.1027	1838.144	2916.0755	3051.323	3134.1798	3149.4431	3221.9819	3246.844	3482.5745
N=C1OC2(CC2)C1C=O	[NH][C]1OC2(CC2)[C@H]1C=O	
InChI=1S/C6H7NO2/c7-5-4(3-8)6(9-5)1-2-6/h3-4,7H,1-2H2	InChI=1S/C6H7NO2/c7-5-4(3-8)6(9-5)1-2-6/h3-4,7H,1-2H2/t4-/m0/s1
