20
gdb 93507	2.32106	1.52545	1.14028	5.1276	75.23	-0.2484	0.0549	0.3034	1151.4701	0.171982	-440.34802	-440.338968	-440.338024	-440.381764	33.872	
C	-0.1078148015	 1.6080824393	-0.053759517	-0.4013
C	-0.0098638575	 0.0766463426	-0.0303806062	-0.017714
C	 0.734024984	-0.482616421	-1.2489234909	-0.170859
N	 2.1668965336	-0.3076954455	-1.0705579968	-0.358299
C	 2.8382356618	-0.0687554274	 0.0984870184	 0.454398
O	 4.028989985	 0.1160715534	 0.1547859388	-0.395027
O	 2.0826346139	-0.0171055791	 1.2287383427	-0.258034
C	 0.7161388519	-0.4773417914	 1.2044690542	 0.14613
C	 0.1166970903	-0.1001795115	 2.5497098605	-0.41431
H	 0.8791536262	 2.0758150647	-0.0098108258	 0.145207
H	-0.5997495039	 1.9424273969	-0.972352865	 0.115239
H	-0.6938406556	 1.9826473963	 0.7893450096	 0.123013
H	-1.0212707529	-0.3462143025	-0.0370323374	 0.084266
H	 0.4860900213	-1.5464835748	-1.3781303496	 0.106149
H	 0.4211701224	 0.035183886	-2.1628483287	 0.1105
H	 2.7741160459	-0.3507905045	-1.8723081142	 0.257453
H	 0.7348148071	-1.5744419696	 1.121950904	 0.085675
H	 0.1406591656	 0.9812723118	 2.7031910104	 0.135092
H	-0.9204707562	-0.4433590856	 2.6132299767	 0.116409
H	 0.6873869086	-0.5678684881	 3.3557812562	 0.136013
83.4022	108.4639	164.6674	183.9631	237.5188	278.1625	296.778	362.3556	449.036	496.5392	512.5835	550.1457	605.3375	735.2824	762.836	807.0663	854.8905	896.0662	955.6305	993.8816	1013.3599	1031.1871	1087.8656	1124.7758	1128.5469	1166.5884	1187.4602	1263.182	1294.7054	1313.075	1352.4647	1382.5521	1392.1899	1412.4569	1415.0264	1423.8864	1478.6418	1484.7476	1495.2517	1501.55	1511.1766	1530.488	1843.0065	2985.2092	2992.3212	3043.2848	3047.032	3050.4463	3052.653	3112.5913	3123.6198	3127.5666	3134.0853	3653.6706
CC1CNC(=O)OC1C	C[C@H]1CNC(=O)O[C@H]1C	
InChI=1S/C6H11NO2/c1-4-3-7-6(8)9-5(4)2/h4-5H,3H2,1-2H3,(H,7,8)	InChI=1S/C6H11NO2/c1-4-3-7-6(8)9-5(4)2/h4-5H,3H2,1-2H3,(H,7,8)/t4-,5-/m0/s1
