21
gdb 79834	2.49587	1.64743	1.39611	1.2776	80.89	-0.2337	0.0739	0.3076	1049.391	0.183939	-387.070879	-387.062778	-387.061834	-387.102841	32.941	
C	-0.2707303893	 1.5487598324	 0.0321101985	-0.42292
C	 0.061940027	 0.0600400997	 0.0029003646	 0.044534
C	 0.6530838537	-0.6046236639	-1.2454592857	-0.141943
C	 2.1850162598	-0.4492625941	-1.3259060083	-0.117354
C	 2.8919412344	 0.6643746379	-0.5575515138	-0.236672
C	 2.4592936654	 0.4288070601	 0.9202696003	-0.213615
C	 1.2642670491	-0.5331529347	 0.8270971937	-0.135302
C	 1.5682186754	-1.4532666084	-0.4006398948	 0.383015
O	 1.7149610949	-2.8261602931	-0.4135180293	-0.467937
H	 0.5754141658	 2.1792306409	-0.2516009471	 0.116521
H	-1.088137916	 1.768006711	-0.6642582747	 0.112609
H	-0.599777883	 1.8581769179	 1.0309210545	 0.111199
H	-0.837262735	-0.5019498474	 0.2811216316	 0.076296
H	 0.1028961594	-0.8893333066	-2.1358926615	 0.081465
H	 2.6042428211	-0.8139509839	-2.2580656865	 0.080797
H	 3.9781441878	 0.5849208314	-0.6743873271	 0.092431
H	 2.6131747148	 1.6598422116	-0.9166040284	 0.102463
H	 3.2707515347	-0.0460433961	 1.4843752758	 0.089563
H	 2.2117684033	 1.359380534	 1.4402994642	 0.09686
H	 0.9946856289	-1.0164597721	 1.7667835535	 0.064836
H	 2.6312702078	-3.0366577767	-0.2022473495	 0.283151
170.3498	187.7653	231.6068	243.5104	248.716	295.549	364.7093	463.1714	540.0884	576.5284	614.267	674.453	748.7589	765.9371	832.0978	850.7016	887.0265	912.0401	937.9972	976.8181	980.0913	1027.4067	1047.8846	1053.8177	1068.6202	1101.8256	1134.3379	1141.959	1169.2892	1176.461	1219.7465	1255.7517	1276.3565	1288.7476	1291.435	1319.0698	1335.0562	1341.4564	1381.6346	1406.4681	1479.847	1484.0423	1492.9835	1500.2921	1514.1828	3027.1632	3030.4056	3033.016	3044.9391	3068.8769	3085.3659	3087.5606	3106.6912	3119.0036	3163.3361	3173.7852	3788.9955
CC1C2C3CCC1C23O	C[C@H]1[C@H]2[C@H]3CC[C@@H]1[C@@]23O	
InChI=1S/C8H12O/c1-4-5-2-3-6-7(4)8(5,6)9/h4-7,9H,2-3H2,1H3	InChI=1S/C8H12O/c1-4-5-2-3-6-7(4)8(5,6)9/h4-7,9H,2-3H2,1H3/t4-,5+,6-,7+,8+/m1/s1
