16
gdb 19922	4.38074	2.16101	1.77526	1.4272	69.88	-0.2316	0.	0.2316	763.1323	0.132757	-346.549123	-346.543173	-346.542229	-346.578913	24.264	
C	-0.0142116067	 1.4486030124	 0.1836364136	-0.275451
C	 1.3553306929	 0.8227903608	 0.0074750083	-0.068112
C	 1.9937421962	 0.5096511762	 1.3293714477	-0.19354
C	 1.3423761644	-0.5018852904	 1.9034609223	 0.141227
C	 0.5784413178	-0.8353451239	 3.1620834873	-0.143278
O	-0.6322985212	-0.8660018019	 2.3454195182	-0.307235
C	 0.1693073515	-0.9873119981	 1.1047450008	 0.108565
C	 0.0726699043	-0.0331234048	-0.0633199495	-0.077112
H	-0.2976858287	 1.7888894905	 1.1736346754	 0.125496
H	-0.4008342084	 2.0475058516	-0.634165047	 0.11386
H	 1.9311789717	 1.0583219267	-0.880753988	 0.090416
H	 2.7065371744	 1.1755009625	 1.8027071655	 0.101291
H	 0.7797052712	-1.8199901024	 3.6049305363	 0.10448
H	 0.5359306348	-0.0756697568	 3.9489999838	 0.116747
H	 0.1590554443	-2.0366983191	 0.784156637	 0.076233
H	-0.2736944685	-0.4075210431	-1.0186398017	 0.086412
182.987	214.7169	355.3149	435.765	491.7274	661.3765	672.2306	763.558	793.7168	816.2562	846.701	872.6558	890.9589	914.9383	952.9827	981.4118	987.9557	1040.4123	1056.7177	1071.2302	1088.8925	1100.1834	1129.8788	1140.9278	1188.4462	1238.6185	1281.3316	1322.2369	1326.5198	1345.5249	1387.2502	1476.1822	1514.9741	1714.6627	3009.1385	3021.1008	3077.8884	3132.0998	3168.6598	3188.0058	3195.4712	3222.0909
C1C2C=C3COC3C12	C1[C@H]2[CH][C]3CO[C@H]3[C@@H]12	
InChI=1S/C7H8O/c1-4-2-6(4)7-5(1)3-8-7/h1,4,6-7H,2-3H2	InChI=1S/C7H8O/c1-4-2-6(4)7-5(1)3-8-7/h1,4,6-7H,2-3H2/t4-,6+,7-/m1/s1
