21
gdb 106492	2.37057	1.57159	1.22612	1.8566	77.51	-0.2372	0.0612	0.2984	1108.9754	0.183083	-424.20434	-424.195766	-424.194821	-424.237273	33.766	
C	-0.0107482539	 1.5676175034	-0.0550455476	-0.426239
C	 0.0693574654	 0.0541610185	 0.0497000631	 0.140555
O	 0.9199603358	-0.5019572285	-0.990309707	-0.300209
C	 1.8405178709	-1.2958474568	-0.230593129	 0.11094
C	 2.2656570552	-0.3562019343	 0.9224004894	-0.291683
C	 0.7579163529	-0.5448673879	 1.299666039	 0.257015
C	 0.2010052769	-0.2033613261	 2.6610422385	-0.18843
O	-1.1861443758	-0.4977281721	 2.7767771041	-0.416088
C	 0.9366983596	-2.0221723895	 0.7944535814	-0.292934
H	 0.9542016099	 2.0467844424	 0.1329668438	 0.115102
H	-0.3351751474	 1.8502848696	-1.0607623644	 0.127852
H	-0.7427884372	 1.9575182146	 0.6596907979	 0.125518
H	-0.9389690182	-0.3632371658	-0.060948803	 0.076329
H	 2.5363990598	-1.7995154538	-0.8996864559	 0.078746
H	 2.935663021	-0.8282831525	 1.6439908636	 0.098736
H	 2.6242926171	 0.639438065	 0.6549438304	 0.102326
H	 0.7850889641	-0.7145680862	 3.4427950132	 0.087795
H	 0.2895078629	 0.8732095334	 2.8462310662	 0.114699
H	-1.2943496606	-1.4461232091	 2.6509295053	 0.286337
H	 0.0638963152	-2.5481189349	 0.3975092169	 0.09703
H	 1.4879208563	-2.6479034095	 1.5000443341	 0.096602
81.4354	163.5428	208.5477	221.4922	241.913	309.5278	360.8682	414.5044	492.0036	496.3118	533.4886	624.4345	689.5715	791.7535	836.9723	851.1851	888.6887	933.274	943.1476	973.7518	974.4132	1010.1867	1035.2297	1053.203	1088.1348	1102.435	1127.9893	1152.3252	1158.7912	1183.1827	1225.5902	1239.7841	1263.0828	1274.6937	1313.6261	1351.608	1377.627	1396.7631	1411.7242	1419.2884	1472.7331	1490.1847	1495.0985	1503.1687	1514.2374	2977.3099	3024.2607	3040.9618	3055.2478	3063.1201	3073.3413	3112.754	3117.5978	3122.8568	3135.5287	3136.3108	3813.1458
CC1OC2CC1(CO)C2	C[C@H]1O[C@H]2C[C@]1(CO)C2	
InChI=1S/C7H12O2/c1-5-7(4-8)2-6(3-7)9-5/h5-6,8H,2-4H2,1H3	InChI=1S/C7H12O2/c1-5-7(4-8)2-6(3-7)9-5/h5-6,8H,2-4H2,1H3/t5-,6-,7+/m1/s1
