17
gdb 75864	2.95649	1.29249	0.955	3.1691	76.88	-0.2495	-0.0684	0.1811	1194.46	0.134463	-421.877631	-421.869013	-421.868069	-421.911406	31.372	
C	-0.0966800894	 1.6126985629	-0.0405688118	-0.400821
C	 0.0089349333	 0.0794269927	 0.018970619	-0.220727
C	 0.809928171	-0.4879010734	-1.1701125612	 0.397863
O	 0.5971242413	-0.2579829982	-2.3300978714	-0.304488
C	 1.9472404956	-1.3753758706	-0.6261650622	-0.381464
C	 1.7892855685	-1.2578472904	 0.85868214	-0.160666
C	 0.7497587271	-0.4822688763	 1.2105623065	 0.237432
C	 0.362576547	-0.2495801063	 2.6061487764	 0.080197
O	-0.5952464205	 0.4055811233	 2.9533276305	-0.270344
H	 0.8923394417	 2.0770645182	 0.0295937524	 0.114967
H	-0.5469020978	 1.9104390472	-0.9907838555	 0.138605
H	-0.7095502478	 1.9789066887	 0.7845318068	 0.149707
H	-1.0084811786	-0.3328163227	-0.0284001769	 0.123898
H	 1.8377754078	-2.4046770596	-0.992541562	 0.151394
H	 2.9192998216	-1.0261621363	-0.9967285806	 0.151558
H	 2.4409278978	-1.7592147528	 1.5674302584	 0.119052
H	 1.0260834315	-0.7403641264	 3.3534472716	 0.073837
49.4133	123.3761	173.184	228.2238	239.9064	246.2434	289.442	440.7523	478.9532	520.4384	598.8503	631.4837	733.732	752.6874	813.8869	827.0721	929.3833	988.5046	1005.8636	1036.2698	1074.4419	1087.6217	1141.7062	1153.8922	1201.4231	1264.936	1279.2973	1299.2109	1369.1593	1398.463	1422.1973	1430.2799	1494.1448	1505.3448	1669.2095	1785.0467	1854.6426	2877.6382	3019.4962	3029.9135	3046.2803	3058.9065	3118.4795	3147.1899	3186.0308
CC1C(=O)CC=C1C=O	C[C@H]1C(=O)CC=C1C=O	
InChI=1S/C7H8O2/c1-5-6(4-8)2-3-7(5)9/h2,4-5H,3H2,1H3	InChI=1S/C7H8O2/c1-5-6(4-8)2-3-7(5)9/h2,4-5H,3H2,1H3/t5-/m1/s1
