16
gdb 78636	4.96387	1.07523	1.00288	5.0462	71.09	-0.2326	0.019	0.2516	1163.9921	0.123805	-437.801508	-437.794069	-437.793125	-437.833632	28.375	
O	-0.1591115747	 1.4600014356	-0.1208315716	-0.434856
C	-0.0534289518	 0.0589966583	-0.080709681	 0.10146
C	 0.1949912731	-0.6103017074	 1.288770417	-0.108447
C	-1.2791165038	-0.3400052501	 1.7467655746	-0.009604
C	-1.3845023729	-0.642240826	 0.2035031108	-0.076793
C	-0.6577734793	-1.8556013948	 0.8845746966	-0.046068
N	-1.4610362657	-1.7640754823	 2.1362663249	-0.081403
C	-2.6522080867	-2.3794013205	 2.412785411	 0.129063
O	-3.5957392427	-1.8524689004	 2.9608715222	-0.317239
H	 0.7259156115	 1.8339710614	-0.174334816	 0.288788
H	 0.5322769171	-0.3356563711	-0.9221057811	 0.073996
H	 1.07695194	-0.6180828361	 1.929020058	 0.089864
H	-1.6871175661	 0.4913507888	 2.3118931664	 0.123795
H	-2.2966730681	-0.6745384664	-0.391716591	 0.098084
H	-0.3301923375	-2.7965369257	 0.445458849	 0.101464
H	-2.6255468623	-3.4584841433	 2.1518213602	 0.067897
91.3144	144.9753	242.2794	258.9672	269.3453	357.1832	468.1693	576.703	652.738	739.3834	761.1847	821.5934	833.8903	842.0775	912.2408	919.0696	972.9851	1021.4777	1030.6908	1034.5495	1104.0697	1106.1214	1126.8958	1133.2697	1157.1835	1175.4923	1180.8084	1203.0796	1241.4711	1298.777	1322.517	1373.4723	1420.127	1440.8133	1790.7674	2911.4546	3012.1793	3121.0555	3126.3017	3139.4268	3186.8543	3821.1481
OC1C2C3C1C2N3C=O	O[C@H]1[C@H]2[C@H]3[C@@H]1[C@@H]2N3C=O	
InChI=1S/C6H7NO2/c8-1-7-4-2-5(7)3(4)6(2)9/h1-6,9H	InChI=1S/C6H7NO2/c8-1-7-4-2-5(7)3(4)6(2)9/h1-6,9H/t2-,3+,4-,5+,6-
