20
gdb 88714	3.27212	1.00837	0.85056	1.5034	87.15	-0.2197	0.045	0.2646	1401.2654	0.169279	-365.929186	-365.919802	-365.918858	-365.963729	35.316	
C	 2.8017049713	-0.3005991773	 0.1889163184	-0.307562
N	 1.7039276527	-1.2258878611	 0.425505367	-0.088732
C	 1.919242228	-2.302097967	 1.3860044388	-0.262192
C	 0.9782613965	-1.1875818495	 1.6992493241	 0.005701
C	 1.288661236	-0.2004187703	 2.7794487491	-0.020789
C	 0.4710450353	 1.0548444055	 2.9190780285	-0.301967
C	 0.334855123	-0.0397077702	 3.9649634206	-0.209192
C	-0.8736498478	-0.8049354436	 4.0635774778	 0.340875
C	-1.8873947339	-1.4452445263	 4.1647795548	-0.469744
H	 3.4624335107	-0.1349200541	 1.0547689141	 0.094992
H	 3.4166918056	-0.6920951514	-0.6278234945	 0.12279
H	 2.4001869023	 0.6684187268	-0.1244489085	 0.12356
H	 1.5509164349	-3.2848134533	 1.1027711068	 0.114625
H	 2.8633402452	-2.3136102296	 1.9319415981	 0.100731
H	-0.0870730394	-1.3759164322	 1.5825959393	 0.100976
H	 2.3353016725	-0.1177577842	 3.0519978782	 0.093981
H	 0.96448893	 1.9738781428	 3.2144481788	 0.119013
H	-0.3656947572	 1.1841205322	 2.2417380949	 0.131984
H	 0.8187561551	 0.1549306673	 4.9176551814	 0.114721
H	-2.7824889808	-2.0093513746	 4.2521425425	 0.196227
45.102	101.3943	145.1329	195.047	222.5553	245.1201	312.6489	356.4381	429.344	486.5729	535.536	582.6091	614.8896	651.8309	734.5808	774.2187	816.0742	855.6097	892.0661	929.7843	976.9957	1000.3445	1035.9159	1070.8921	1097.377	1118.3887	1123.6515	1132.324	1148.311	1163.3564	1199.9292	1204.5642	1238.6045	1318.1108	1339.0259	1377.605	1449.7634	1455.6439	1486.0711	1490.238	1500.9676	1514.6711	2234.7683	2973.7506	3064.9539	3080.5983	3100.9213	3126.9991	3137.9404	3145.183	3165.2923	3170.6917	3229.24	3505.0392
CN1CC1C1CC1C#C	CN1C[C@H]1[C@H]1C[C@H]1C#C	
InChI=1S/C8H11N/c1-3-6-4-7(6)8-5-9(8)2/h1,6-8H,4-5H2,2H3	InChI=1S/C8H11N/c1-3-6-4-7(6)8-5-9(8)2/h1,6-8H,4-5H2,2H3/t6-,7+,8+,9?/m1/s1
