21
gdb 69771	2.91968	1.5974	1.42483	1.2204	80.87	-0.2473	0.0843	0.3316	1014.7323	0.185207	-387.072129	-387.064793	-387.063849	-387.103211	31.532	
O	-0.0914897788	 1.3717552354	 0.1750480906	-0.472473
C	 0.0070290801	-0.0201457438	-0.0056992812	 0.417139
C	-0.5028616037	-0.5654628224	-1.3206635983	-0.372814
C	-1.2986712171	-0.7596421226	-0.0421528476	-0.057337
C	-1.3138748867	-2.0780127096	 0.7218648947	-0.02808
C	-0.706613499	-1.8012691272	 2.1332505129	-0.224952
C	 0.6830886834	-2.0007868535	 1.4545768732	 0.002768
C	-0.0445928289	-2.933436489	 0.4498651192	-0.234484
C	 1.1419442608	-0.6979410843	 0.7719997177	-0.29904
H	 0.6185379137	 1.7835851933	-0.3299498436	 0.276496
H	-0.8860500211	 0.1726036026	-2.017134411	 0.106709
H	-0.0095869891	-1.4114411634	-1.785844436	 0.108778
H	-2.1911415317	-0.1497621926	 0.0609474423	 0.092479
H	-2.2834893467	-2.5765319646	 0.6521677477	 0.058724
H	-0.9224409503	-0.8330461448	 2.5938198371	 0.098482
H	-0.9233978403	-2.6045176942	 2.8426730245	 0.091449
H	 1.491441927	-2.4270563287	 2.053921258	 0.056757
H	-0.1666565325	-3.9384105581	 0.8628775842	 0.09523
H	 0.3405780362	-3.0221715098	-0.5689440355	 0.089285
H	 2.0111260608	-0.8928710016	 0.1291548076	 0.088739
H	 1.4634001939	 0.012401969	 1.5417200135	 0.106145
171.5244	237.1542	301.3795	366.4551	384.846	415.3619	435.8679	463.0375	509.7036	560.7964	700.2074	780.4303	820.2789	841.2744	862.4815	888.0868	903.3452	921.951	931.3143	934.3573	982.6275	1008.978	1036.9366	1046.8672	1070.2933	1079.9886	1110.2339	1118.1997	1139.3488	1145.3567	1193.0342	1246.0595	1252.3714	1257.8793	1275.7897	1298.0768	1312.5319	1341.9464	1354.2176	1377.7449	1406.0863	1471.9305	1485.5483	1495.7856	1514.2784	3011.7029	3050.0464	3054.5529	3066.7731	3072.2032	3077.0976	3103.5825	3109.1452	3133.8627	3155.5722	3221.2625	3788.8907
OC12CC1C1CC(C1)C2	O[C@]12C[C@H]1[C@@H]1C[C@@H](C1)C2	
InChI=1S/C8H12O/c9-8-3-5-1-6(2-5)7(8)4-8/h5-7,9H,1-4H2	InChI=1S/C8H12O/c9-8-3-5-1-6(2-5)7(8)4-8/h5-7,9H,1-4H2/t5-,6+,7-,8+/m0/s1
