19
gdb 38889	3.55838	1.5152	1.20037	1.0362	82.11	-0.2268	0.0133	0.2401	1059.1097	0.161309	-385.861507	-385.854405	-385.853461	-385.892825	29.207	
C	 0.0749808081	 1.5968411438	 0.0371004145	-0.299838
C	 1.2966599532	 0.722379803	-0.0432161652	 0.092386
O	 2.1579676028	 0.7051433091	 1.0686216246	-0.273443
C	 2.0855479059	-0.5100800346	 1.7920055901	 0.076021
C	 2.2981527737	-0.4317923421	 3.3304511094	-0.247762
C	 1.030564727	-1.3390698168	 3.5123476751	-0.328206
C	 0.6789832347	-0.9743988135	 2.0856570559	 0.311531
C	-0.3669359151	-0.6203470682	 1.351192767	-0.26698
C	-0.066019386	 0.0788380588	 0.0699571601	-0.087125
H	-0.0664975315	 2.1233615086	 0.9742107947	 0.120393
H	-0.2489219445	 2.131176913	-0.8499884964	 0.108675
H	 1.821859397	 0.6512909792	-0.9938509077	 0.087318
H	 2.7244964228	-1.2780024742	 1.3296496554	 0.072391
H	 3.2468857333	-0.7972955277	 3.7278275318	 0.101623
H	 2.1165699812	 0.586921446	 3.6783031069	 0.119972
H	 1.296978258	-2.3941397322	 3.6372028888	 0.113357
H	 0.3175273332	-1.0675809123	 4.2942995827	 0.114454
H	-1.3989137195	-0.7613515923	 1.6623557342	 0.090308
H	-0.4574841945	-0.3778374877	-0.8356365019	 0.094927
124.816	161.3667	295.4773	348.3078	375.521	456.704	494.5995	535.0729	669.5298	719.2362	767.1843	780.9016	821.7573	839.1227	863.0001	884.6037	920.1672	967.6191	987.0841	1034.7465	1040.6718	1052.8831	1088.7633	1102.8928	1125.8033	1132.5052	1134.9897	1172.455	1189.2468	1219.652	1227.1143	1261.5349	1266.3308	1319.2324	1355.2711	1371.6363	1399.9369	1471.4552	1472.3884	1486.6301	1763.2709	2981.2121	3045.9692	3074.818	3101.0639	3114.0243	3130.5099	3135.5671	3138.7564	3156.3235	3226.8025
C1C2OC3CCC3=CC12	C1[C@H]2O[C@H]3CC[C]3[CH][C@@H]12	
InChI=1S/C8H10O/c1-2-7-5(1)3-6-4-8(6)9-7/h3,6-8H,1-2,4H2	InChI=1S/C8H10O/c1-2-7-5(1)3-6-4-8(6)9-7/h3,6-8H,1-2,4H2/t6-,7-,8+/m0/s1
