16
gdb 45525	3.04432	1.56173	1.22239	3.7172	69.4	-0.2385	-0.0284	0.2101	1002.4628	0.126004	-437.89795	-437.890863	-437.889919	-437.929751	27.263	
O	-0.1206684558	-0.0624237913	 0.0460534426	-0.277937
C	-0.0892538231	 1.128952079	 0.0634587439	 0.380041
C	-1.1671025085	 2.2336684678	 0.1648366059	-0.364522
C	-0.0486194857	 3.1882437202	 0.6702150898	-0.082506
C	 0.0607464484	 3.2295879749	 2.1901068188	-0.090054
O	 1.4190585339	 3.3897195404	 2.6310268424	-0.220876
C	 2.3248554307	 2.5854969485	 2.0239879655	 0.128654
N	 2.2270945066	 1.9620267665	 0.9248621598	-0.264886
C	 1.0392495348	 2.1956829536	 0.149998594	-0.064991
H	-1.546952824	 2.5096497524	-0.8235942082	 0.13817
H	-2.016747877	 2.0277724925	 0.8208372701	 0.132281
H	-0.0237802513	 4.1879833875	 0.2364937941	 0.088112
H	-0.4936640151	 4.0594424347	 2.6319592013	 0.128174
H	-0.319858744	 2.2934300559	 2.6214902939	 0.120697
H	 3.2365175584	 2.5293417638	 2.6154678588	 0.131547
H	 1.3305837819	 2.4453348936	-0.8792501327	 0.118096
81.4558	165.8057	222.237	328.7241	409.3259	462.3053	482.1222	534.6494	600.4337	702.273	724.4971	793.8971	862.015	908.9747	929.7278	968.7714	980.378	1011.0468	1045.6552	1072.203	1107.431	1120.3307	1172.4048	1189.6209	1229.2421	1253.8932	1285.1158	1326.9442	1350.3243	1406.1681	1414.3214	1446.0974	1501.6482	1712.6467	1903.8739	3015.4754	3020.5089	3062.2267	3103.9255	3115.4913	3121.2413	3163.9023
O=C1CC2COC=NC12	O=C1C[C@H]2COC=N[C@@H]12	
InChI=1S/C6H7NO2/c8-5-1-4-2-9-3-7-6(4)5/h3-4,6H,1-2H2	InChI=1S/C6H7NO2/c8-5-1-4-2-9-3-7-6(4)5/h3-4,6H,1-2H2/t4-,6+/m0/s1
