15
gdb 131085	5.35768	0.80918	0.73446	5.06	69.16	-0.2591	0.0035	0.2626	1455.0069	0.113851	-453.981502	-453.973437	-453.972493	-454.016361	28.036	
O	 0.0508296674	 0.1575397694	 0.6977235753	-0.275897
C	 0.2301449904	 1.2114450518	 0.1662905673	 0.177146
O	 0.7594382024	 2.2706081625	 0.8037009904	-0.170499
C	 0.9272913074	 3.4937117811	 0.0650367981	-0.200859
C	 2.3641409845	 3.9011854519	 0.0414728877	 0.34794
N	 2.7136606268	 5.1058585026	 0.4895225892	-0.28271
N	 4.0441597404	 5.1559515015	 0.3100096336	-0.17828
C	 4.5531189113	 4.0205262832	-0.2278922262	-0.008799
C	 3.4855540866	 3.1733667426	-0.4222186023	-0.279093
H	-0.0163037506	 1.4272127758	-0.8930963746	 0.074652
H	 0.5353285068	 3.3551943111	-0.951507143	 0.118018
H	 0.3393832975	 4.269977857	 0.5599695336	 0.142376
H	 4.5412432768	 5.9859085186	 0.5857576914	 0.280547
H	 5.6078779138	 3.9074034409	-0.4221297698	 0.140236
H	 3.5126194786	 2.1745969899	-0.8260881507	 0.115221
30.1839	38.1161	131.9734	202.6123	287.2161	365.3397	380.0153	527.9931	634.0996	674.6998	713.2078	757.3225	779.7879	849.3016	948.7252	973.4585	1005.1228	1038.1247	1045.3412	1077.6889	1113.9574	1169.0026	1218.0401	1285.8711	1310.1807	1383.8385	1418.3699	1432.2137	1476.8304	1494.2829	1498.7679	1576.5839	1867.1227	2932.0277	3016.3755	3108.3755	3259.416	3278.481	3674.8909
O=COCC1=NNC=C1	O=COCc1n[nH]cc1	
InChI=1S/C5H6N2O2/c8-4-9-3-5-1-2-6-7-5/h1-2,4H,3H2,(H,6,7)	InChI=1S/C5H6N2O2/c8-4-9-3-5-1-2-6-7-5/h1-2,4H,3H2,(H,6,7)
