13
gdb 21452	5.88971	1.5924	1.25349	4.4329	62.61	-0.2288	-0.0109	0.218	890.9443	0.099751	-390.99644	-390.989999	-390.989055	-391.027202	23.724	
N	 0.0928735755	 1.3305169371	 0.0066414792	-0.476681
C	 0.0108182001	 0.0558986306	 0.0022599874	 0.094312
N	-1.1902927195	-0.6032113149	 0.0114156867	-0.388247
C	-2.4380134063	-0.0101252787	 0.0267713667	 0.5072
N	-3.5792175368	-0.6762964449	 0.0362206321	-0.362114
C	-4.492320115	 0.337456421	 0.0494404406	 0.032948
N	-3.9929490823	 1.5600467989	 0.0490219931	-0.222766
N	-2.653288478	 1.3169015102	 0.0339690059	-0.235014
H	 1.0628565002	 1.6314222466	-0.0016915701	 0.23643
H	 0.8582285177	-0.6358884353	-0.0089216804	 0.112657
H	-1.2037333561	-1.6101147096	 0.0079833907	 0.278533
H	-5.557370189	 0.1611383582	 0.059892331	 0.124417
H	-1.9376969906	 2.0312411509	 0.0296402071	 0.298323
107.569	210.472	214.3034	366.2663	383.2735	504.6333	627.8397	631.5171	725.1578	756.2073	799.6078	830.2063	906.7978	982.8585	1037.9627	1054.8393	1082.0847	1136.8254	1221.2106	1231.8007	1295.5946	1303.1496	1386.9072	1424.5019	1503.151	1558.4393	1640.1316	1715.2557	3082.9718	3262.5144	3539.4603	3602.5567	3659.3751
N=CNC1=NC=NN1	N=CNc1ncn[nH]1	
InChI=1S/C3H5N5/c4-1-5-3-6-2-7-8-3/h1-2H,(H3,4,5,6,7,8)	InChI=1S/C3H5N5/c4-1-5-3-6-2-7-8-3/h1-2H,(H3,4,5,6,7,8)
