23
gdb 118190	4.01876	0.64721	0.60973	3.5073	83.73	-0.2374	-0.0079	0.2295	1933.9691	0.202065	-425.456414	-425.444943	-425.443999	-425.494436	40.376	
C	 0.1376664155	 1.4798681871	 0.2645441681	-0.382513
C	 0.0356902601	-0.0468588354	 0.3062973015	-0.165539
C	-1.3444039165	-0.5656777528	-0.1127600317	-0.193643
C	-1.4786869923	-2.0892282945	-0.0203645891	 0.127151
O	-1.2220697072	-2.5624471504	 1.3028214296	-0.430705
C	-2.8488682048	-2.5843200258	-0.5330818478	-0.307261
C	-2.8766953909	-4.1091542906	-0.6268198811	 0.393218
C	-3.4304792035	-4.861052277	 0.5646868073	-0.482418
O	-2.4319594819	-4.6705456911	-1.6019569883	-0.307224
H	 1.1338650741	 1.8195585977	 0.564066544	 0.115043
H	-0.0562887779	 1.8653993739	-0.7426989594	 0.114495
H	-0.5890227609	 1.9453239612	 0.940168076	 0.111249
H	 0.7962931653	-0.4856635532	-0.3523614124	 0.100418
H	 0.2626962909	-0.4119931205	 1.3136758489	 0.106521
H	-2.1229135701	-0.10324853	 0.5148835967	 0.082299
H	-1.5630780236	-0.2535750059	-1.1419304018	 0.101663
H	-0.7009087321	-2.5580626532	-0.6350003201	 0.111213
H	-1.7957628705	-2.0721978991	 1.9032921368	 0.277732
H	-3.6388043187	-2.2073919915	 0.1286738478	 0.087561
H	-3.0167171877	-2.1874021036	-1.5386434168	 0.122286
H	-3.3776695011	-5.9366940593	 0.3925186784	 0.13716
H	-2.8436731297	-4.5886049396	 1.4488255112	 0.151702
H	-4.4679713765	-4.5647745365	 0.7582245122	 0.129591
34.1153	55.2393	80.1927	113.9225	125.7282	173.3767	201.4906	246.6562	285.0758	326.0785	352.3384	395.0945	442.3919	485.7104	537.5004	626.1301	746.9983	799.4244	848.7532	867.2097	906.6522	923.2022	991.5236	1011.329	1043.3072	1056.6265	1090.5611	1112.0356	1137.5483	1157.8459	1236.6766	1248.8098	1269.9269	1304.9474	1323.6936	1352.1538	1363.4485	1376.238	1393.8173	1412.3152	1420.6658	1461.4974	1471.821	1476.863	1481.5821	1493.8334	1499.4633	1511.0329	1811.4884	2985.4362	3026.6262	3026.9668	3029.5896	3035.0866	3042.1382	3053.8297	3071.3959	3096.4727	3098.9544	3100.8027	3103.3999	3152.5947	3788.7756
CCCC(O)CC(C)=O	CCC[C@@H](O)CC(=O)C	
InChI=1S/C7H14O2/c1-3-4-7(9)5-6(2)8/h7,9H,3-5H2,1-2H3	InChI=1S/C7H14O2/c1-3-4-7(9)5-6(2)8/h7,9H,3-5H2,1-2H3/t7-/m1/s1
