16
gdb 92407	2.29267	1.62159	1.30355	3.4084	69.58	-0.2619	-0.0086	0.2532	1022.1631	0.124026	-437.853259	-437.84512	-437.844175	-437.887023	29.882	
O	 0.0427177504	 1.3824088163	 0.5176346671	-0.410033
C	 0.0462855153	 0.0485059986	 0.1149645915	 0.071965
C	 0.42732768	-0.9300521308	 1.2560363624	-0.255758
C	-0.898865964	-1.7109798416	 1.0621180719	-0.148582
C	-2.0830286879	-1.1508120644	 1.8669966778	-0.084027
O	-2.3522774318	-0.1381042728	 0.8595432295	-0.314538
C	-1.3517150527	-0.6696682986	-0.0158624162	 0.29097
C	-1.8403764174	-0.9793193522	-1.346296867	 0.217155
N	-2.1832239048	-1.2250417741	-2.4233160095	-0.336064
H	-0.3047664467	 1.9277463417	-0.1966700669	 0.296227
H	 0.6397492285	-0.1186839769	-0.7950487363	 0.087456
H	 1.3319557691	-1.5074140987	 1.0612044307	 0.119516
H	 0.5208109586	-0.4358330513	 2.2254069424	 0.123899
H	-0.8525489987	-2.7820408428	 0.8806870707	 0.104716
H	-2.9348444123	-1.832520476	 1.9707379534	 0.119086
H	-1.8443565657	-0.7069415864	 2.8392920785	 0.118012
25.2931	129.8891	166.7527	235.6036	283.4857	357.5254	377.4683	488.4991	514.6088	552.8336	611.4037	667.8152	797.5341	839.8559	918.5934	956.1199	980.1381	1005.7408	1027.4185	1041.6588	1094.3001	1118.2434	1144.3189	1150.6983	1190.6293	1211.1985	1255.5599	1269.0154	1303.1633	1329.1284	1350.1283	1421.4242	1475.9449	1520.7258	2344.8505	3001.3262	3030.0731	3078.4403	3082.7784	3134.2771	3147.8473	3808.6455
OC1CC2COC12C#N	O[C@H]1C[C@H]2CO[C@@]12C#N	
InChI=1S/C6H7NO2/c7-3-6-4(2-9-6)1-5(6)8/h4-5,8H,1-2H2	InChI=1S/C6H7NO2/c7-3-6-4(2-9-6)1-5(6)8/h4-5,8H,1-2H2/t4-,5-,6+/m0/s1
