13
gdb 21489	5.14024	1.61554	1.23355	2.1607	61.44	-0.2381	-0.0397	0.1984	901.6794	0.097345	-394.782318	-394.775483	-394.774539	-394.813879	25.368	
N	-0.0693561015	 1.3186542939	 0.2533195792	-0.52518
C	 0.0714455555	-0.0289924248	 0.0594308845	 0.281021
N	 1.2263499734	-0.555640155	-0.1125565922	-0.526742
C	-1.2100100125	-0.7852678604	 0.0960508935	 0.369897
N	-2.3568968771	-0.1417395496	 0.0837317431	-0.20542
O	-3.3436246693	-1.1090567301	 0.1074360445	-0.163488
C	-2.7610660444	-2.3188555772	 0.1351684918	 0.087735
C	-1.4119990714	-2.1965129387	 0.1293303207	-0.362087
H	 0.734378804	 1.8815379043	 0.0259894904	 0.259368
H	-0.9802464567	 1.7248799923	 0.116515078	 0.273441
H	 1.1583243059	-1.5660659172	-0.2042160354	 0.21393
H	-3.4332986781	-3.1621703933	 0.1585435076	 0.161616
H	-0.6767580378	-2.9825202442	 0.1546277342	 0.13591
47.691	202.7695	220.7339	378.717	415.4312	480.9673	503.1454	605.5552	629.9628	654.7123	762.632	806.1163	821.5644	873.9336	922.0898	970.7254	991.763	1074.4843	1121.7454	1152.2991	1156.6587	1263.8042	1394.4196	1454.1181	1503.4128	1590.2921	1619.002	1713.8292	3267.9124	3291.8473	3520.6577	3594.935	3721.4848
NC(=N)C1=NOC=C1	NC(=N)c1nocc1	
InChI=1S/C4H5N3O/c5-4(6)3-1-2-8-7-3/h1-2H,(H3,5,6)	InChI=1S/C4H5N3O/c5-4(6)3-1-2-8-7-3/h1-2H,(H3,5,6)
