16
gdb 125270	5.10579	1.19882	0.98266	3.6479	78.3	-0.2134	-0.0183	0.1951	1161.9439	0.125628	-400.752589	-400.74537	-400.744426	-400.784145	27.839	
C	-0.021398236	 1.4690130426	 0.0679935673	-0.484862
C	-0.001493624	-0.0223581823	-0.0240794623	 0.293056
C	-0.0382060855	-0.7814909733	-1.1420682701	-0.323723
C	 0.0018907757	-2.1948538762	-0.7621986597	 0.199526
C	 0.0626521714	-2.261341968	 0.5965016332	 0.374481
C	 0.0678897389	-0.9085227688	 1.2276395385	-0.466458
O	 0.102525889	-3.5126850105	 1.0383532635	-0.226125
N	 0.0668579985	-4.3577891518	-0.0944774193	-0.145065
C	 0.0075497678	-3.559391085	-1.1426948003	-0.136937
H	 0.8769993597	 1.8569578138	 0.5651923641	 0.128593
H	-0.0764166802	 1.9220122084	-0.9255800414	 0.12984
H	-0.8801318063	 1.8283018974	 0.6495676907	 0.128494
H	-0.0890154529	-0.3997332311	-2.1535544716	 0.104724
H	 0.9718421899	-0.7139115793	 1.8179914258	 0.146512
H	-0.7871478421	-0.7430012227	 1.8947569149	 0.146537
H	-0.0279863339	-4.0151621831	-2.1223069033	 0.131406
136.2151	165.6746	233.2702	266.8688	315.529	451.7232	460.9512	515.2968	626.3071	694.7202	733.1311	787.2793	843.5522	844.5149	871.5206	902.1572	926.7418	977.3631	1009.0197	1057.7379	1133.9571	1145.555	1165.9727	1202.5506	1229.6394	1306.312	1377.1284	1413.7596	1424.0924	1436.1662	1476.9493	1486.1414	1519.287	1601.1036	1651.6526	3014.7107	3039.3538	3058.2197	3072.0749	3110.8939	3217.294	3241.9042
CC1=CC2=C(C1)ON=C2	CC1=Cc2c(C1)onc2	
InChI=1S/C7H7NO/c1-5-2-6-4-8-9-7(6)3-5/h2,4H,3H2,1H3	InChI=1S/C7H7NO/c1-5-2-6-4-8-9-7(6)3-5/h2,4H,3H2,1H3
