20
gdb 90123	3.33823	1.45651	1.41693	2.0442	81.1	-0.2048	0.0691	0.2739	1033.7418	0.17181	-403.030151	-403.022813	-403.021868	-403.061438	30.373	
C	-0.0871179744	 1.6418464479	 0.0812033825	-0.320598
N	 0.0009492707	 0.1988135954	 0.0100091839	-0.107757
C	-1.2149470672	-0.5997634463	 0.4604793208	-0.260766
C	-0.1971905958	-1.64308309	 0.9861744517	 0.354808
C	 0.6325862689	-2.3448966404	 2.1031204747	-0.327593
C	 1.81615324	-1.6619871	 1.2391000846	-0.141409
C	 1.6505487297	-2.4066326979	-0.0756590192	-0.071496
O	 0.2178380431	-2.3935916527	-0.1811302147	-0.291726
C	 0.7612525323	-0.4926772433	 1.0851342988	 0.056156
H	 0.88261233	 2.0808080113	-0.1758187409	 0.122599
H	-0.8222340438	 2.0054870176	-0.6444744192	 0.121751
H	-0.3802858582	 2.0165820847	 1.0815235224	 0.08567
H	-1.7745526078	-0.0884268903	 1.2560534607	 0.095451
H	-1.8798812377	-0.9159897205	-0.3459491711	 0.120251
H	 0.5323939922	-1.909469508	 3.0969576119	 0.111063
H	 0.6161320901	-3.4365045382	 2.1384053232	 0.108805
H	 2.819779791	-1.5204091654	 1.6410878137	 0.074415
H	 2.0988730252	-1.881189824	-0.9272238548	 0.105865
H	 2.0249555148	-3.4370754985	-0.0486783613	 0.095758
H	 0.6705098168	 0.0444891686	 2.0399925024	 0.068753
157.2855	214.526	251.5694	295.4321	364.4071	379.6933	458.5763	486.7944	584.87	645.796	718.2563	788.2148	836.4573	844.3883	881.8406	906.4797	918.8545	960.9707	981.1766	1001.9641	1012.1243	1042.5974	1060.845	1094.707	1121.3026	1146.9135	1165.1197	1169.6838	1188.1939	1199.9147	1213.2083	1219.8855	1253.2902	1277.7449	1291.4064	1355.8447	1393.8346	1447.7678	1477.9154	1481.0137	1493.2783	1497.5186	1523.7746	2913.0611	2992.0001	3012.0539	3020.6471	3056.6498	3060.3322	3075.4176	3099.5454	3110.4459	3116.6067	3153.7452
CN1CC23CC(CO2)C13	CN1C[C@@]23C[C@@H](CO2)[C@@H]13	
InChI=1S/C7H11NO/c1-8-4-7-2-5(3-9-7)6(7)8/h5-6H,2-4H2,1H3	InChI=1S/C7H11NO/c1-8-4-7-2-5(3-9-7)6(7)8/h5-6H,2-4H2,1H3/t5-,6+,7+/m0/s1
