16
gdb 127789	2.50008	1.86225	1.07606	3.5419	78.93	-0.2113	-0.0469	0.1644	1065.7963	0.126099	-430.231795	-430.223769	-430.222825	-430.264067	30.78	
C	-0.4001693064	 1.3171656642	-0.0132683291	-0.305822
N	 0.0595193156	-0.0639859582	 0.0138309826	-0.058373
N	 0.2635141524	-0.6192382901	-1.2068819008	-0.082046
N	 0.6484000106	-1.8285861102	-1.2832500633	-0.221536
C	 0.8776788351	-2.5498492259	-0.1392409584	-0.042696
C	 0.6891011876	-2.0610537125	 1.1181476291	 0.209034
N	 0.8801747636	-2.7853517628	 2.2747110657	-0.589007
C	 0.1971944926	-0.6925364214	 1.2491194293	 0.3833
N	-0.0976442725	-0.0331270223	 2.3142415335	-0.581389
H	 0.2917446575	 1.9509916464	 0.546790416	 0.150366
H	-0.44902284	 1.6190800086	-1.0580067613	 0.14838
H	-1.3804074008	 1.3926275723	 0.4641641461	 0.152777
H	 1.2339358387	-3.5613136879	-0.3077950015	 0.109381
H	 1.3880997224	-3.6511815967	 2.1659623781	 0.261385
H	 1.1974303295	-2.2503958451	 3.0713843374	 0.256571
H	-0.0246209159	-0.6175579481	 3.1427734665	 0.209675
102.9116	178.8998	217.1037	259.5047	316.9835	343.9603	381.5515	462.0413	495.1456	524.0368	584.938	612.0149	648.0779	699.192	730.0112	793.7164	899.3805	906.6791	971.0082	1023.9083	1102.488	1154.1533	1173.7437	1213.002	1276.1966	1341.2217	1365.6271	1432.1582	1439.4222	1469.7879	1502.5685	1515.472	1620.2645	1638.5101	1687.0988	3058.654	3121.7829	3176.2876	3177.9506	3520.7466	3554.8726	3658.1917
CN1N=NC=C(N)C1=N	Cn1nncc(N)c1[NH]	
InChI=1S/C4H7N5/c1-9-4(6)3(5)2-7-8-9/h2,6H,5H2,1H3	InChI=1S/C4H12N5/c1-9-4(6)3(5)2-7-8-9/h3-4,6-8H,2,5H2,1H3
