19
gdb 59220	2.43372	1.46035	1.02348	2.6623	75.52	-0.242	-0.0302	0.2118	1196.0434	0.157007	-423.004758	-422.995757	-422.994813	-423.038682	33.4	
C	-0.0311357841	 1.6305544183	 0.158622618	-0.39568
C	 0.0135739394	 0.1056399035	-0.0080237566	 0.020564
C	 0.8339005846	-0.5590346361	 1.1065992703	-0.398656
C	-1.3994288165	-0.4831861795	-0.0554047574	-0.146235
C	-2.3075724206	-0.1599615722	-1.2580679891	 0.010753
O	-1.6625528709	-0.6931951696	-2.4095682298	-0.231783
C	-2.4908863788	-1.5855591722	-1.6285110426	-0.113053
C	-1.6083165046	-1.9852085303	-0.4476528332	 0.412215
O	-1.3017876383	-3.0239796357	 0.056833001	-0.304354
H	 0.9801594939	 2.0499014615	 0.1671811739	 0.117559
H	-0.5825352526	 2.1111931421	-0.6562680439	 0.115269
H	-0.5139971339	 1.9094781535	 1.1030424502	 0.111162
H	 0.4880162355	-0.1204668257	-0.9704292955	 0.09345
H	 0.4164417419	-0.3228502061	 2.0930101406	 0.110049
H	 0.8419538355	-1.6471201465	 1.0015386541	 0.1412
H	 1.8686671944	-0.2022946013	 1.0907416296	 0.11149
H	-1.9210333985	-0.3192452083	 0.8985350682	 0.100146
H	-3.0065731889	 0.6553720912	-1.3977023959	 0.119976
H	-3.2935065377	-2.1026221566	-2.1402938321	 0.12593
65.0529	113.2403	157.1838	205.2075	229.5273	251.5136	295.2137	340.9844	411.9663	511.2494	545.2682	631.5815	723.07	810.3594	851.0143	863.1052	879.3424	910.5653	936.8023	947.9459	970.9075	1019.3167	1026.8632	1069.761	1125.2047	1159.503	1193.9899	1198.9562	1213.0307	1251.6662	1283.9269	1344.2961	1360.1716	1381.8668	1402.7112	1424.4489	1488.7528	1492.1849	1504.7798	1511.3385	1893.9261	3018.7211	3023.8803	3028.6019	3041.4691	3089.702	3096.3753	3100.68	3121.1522	3193.113	3206.5459
CC(C)C1C2OC2C1=O	CC(C)[C@H]1[C@H]2O[C@H]2C1=O	
InChI=1S/C7H10O2/c1-3(2)4-5(8)7-6(4)9-7/h3-4,6-7H,1-2H3	InChI=1S/C7H10O2/c1-3(2)4-5(8)7-6(4)9-7/h3-4,6-7H,1-2H3/t4-,6-,7+/m1/s1
