23
gdb 79197	2.26051	1.86448	1.35445	0.0773	89.06	-0.2379	0.0885	0.3264	1083.788	0.207973	-351.115938	-351.107781	-351.106837	-351.148005	33.677	
C	-0.1115193056	 1.5949950517	 0.0016682773	-0.436037
C	 0.0883384702	 0.0789974308	 0.033480497	-0.078542
C	 1.2645243371	-0.7666727652	-0.4258752569	-0.096722
C	 2.7319136961	-0.3305294649	-0.2532199641	-0.039132
C	 3.1532654706	-1.2694444832	 0.9332850719	-0.209309
C	 2.1327180744	-0.3555625285	 1.7071571211	-0.083737
C	 2.6976774642	 0.7871433257	 0.8235332356	-0.239869
C	 0.8141472538	-0.8064226522	 1.033129521	 0.340778
C	 0.0857527721	-1.9615609416	 1.6805341584	-0.476236
H	 0.5317563976	 2.089723535	-0.7317629005	 0.126391
H	-1.145328862	 1.8191697781	-0.2793897415	 0.108489
H	 0.0617370129	 2.0649967254	 0.9738129651	 0.125183
H	-0.8313872051	-0.4251712503	-0.2615989587	 0.078953
H	 1.0699505148	-1.5906876369	-1.1063822816	 0.075327
H	 3.3355378904	-0.2337178829	-1.1565677307	 0.055616
H	 2.9193928311	-2.3340036934	 0.8443564671	 0.087843
H	 4.1903219011	-1.1327022249	 1.2537250252	 0.086767
H	 2.131005575	-0.2893192713	 2.7965452348	 0.053003
H	 3.7090670875	 1.0576803849	 1.1369907354	 0.091354
H	 2.1220906551	 1.6912810228	 0.6582735977	 0.093834
H	-0.4390669548	-1.6431779471	 2.5900780656	 0.112554
H	-0.6606977896	-2.3926083023	 1.0053478565	 0.110982
H	 0.7766227233	-2.7635994396	 1.9662932342	 0.112509
123.2033	203.6515	224.7626	228.523	269.1883	299.4673	403.5169	512.368	535.8141	553.0154	662.2898	700.9234	715.9716	822.2946	834.1313	845.8252	866.411	898.5686	928.8315	970.4468	981.1736	1005.1632	1018.7882	1033.4161	1059.0111	1079.2632	1085.3525	1101.5357	1105.9234	1116.2318	1132.2831	1167.0862	1216.5901	1220.5331	1239.2414	1247.7077	1286.6446	1296.6952	1316.3555	1366.9211	1414.668	1417.9244	1454.0609	1486.6788	1489.793	1501.6515	1505.6264	1506.54	1540.2238	3015.8511	3037.023	3047.8809	3071.3	3077.3544	3087.522	3092.6596	3097.467	3103.1081	3106.8198	3109.3887	3110.1396	3146.5827	3194.2103
CC1C2C3CC(C3)C12C	C[C@H]1[C@H]2[C@@H]3C[C@@H](C3)[C@@]12C	
InChI=1S/C9H14/c1-5-8-6-3-7(4-6)9(5,8)2/h5-8H,3-4H2,1-2H3	InChI=1S/C9H14/c1-5-8-6-3-7(4-6)9(5,8)2/h5-8H,3-4H2,1-2H3/t5-,6-,7+,8-,9+/m0/s1
