18
gdb 95744	2.82025	1.15967	0.86099	3.8953	80.87	-0.2659	-0.0421	0.2238	1307.7609	0.149015	-401.983878	-401.97541	-401.974466	-402.017057	31.917	
O	-0.0818117084	 1.4511134262	 0.014954768	-0.428668
C	 0.0049568879	 0.0302748875	-0.0016614277	 0.089505
C	-1.4208047081	-0.5155818198	 0.0560859463	-0.208129
C	-1.4404399961	-2.0153722069	-0.2547718127	-0.231517
C	-0.920207079	-2.2992283367	-1.6708291488	-0.290712
C	 0.3209760362	-1.4860140023	-1.9850524338	 0.157774
C	 0.7308050449	-0.4543256696	-1.2335031148	-0.150611
C	 1.0576179417	-1.8581382732	-3.1539754913	 0.217822
N	 1.6308435036	-2.1878647357	-4.1051387437	-0.333529
H	 0.8070298741	 1.8121387925	 0.096413464	 0.286047
H	 0.5598568266	-0.3214761733	 0.8863120819	 0.084265
H	-1.8503241047	-0.3074546298	 1.0400131079	 0.108394
H	-2.0181730693	 0.034663731	-0.6806710668	 0.117171
H	-0.8162427483	-2.5482083799	 0.4739701934	 0.108367
H	-2.4538555454	-2.4136826083	-0.1480201658	 0.108755
H	-0.6990355638	-3.3644425795	-1.7979425803	 0.127117
H	-1.6906293618	-2.0630305431	-2.4173032672	 0.13141
H	 1.6326325798	 0.0856308309	-1.5124881787	 0.106538
99.534	123.3113	155.3937	254.4048	262.8931	319.0629	365.5414	404.1527	450.945	538.9595	552.5001	575.008	618.4861	776.0715	867.8029	873.0563	905.5408	935.7499	967.0825	1043.3616	1068.7546	1091.3972	1105.2993	1149.1468	1159.05	1212.8563	1263.0898	1291.5057	1323.8674	1347.6007	1365.4725	1374.7096	1385.8624	1429.3365	1476.6711	1491.4599	1499.176	1695.2687	2334.9738	2937.5315	3021.184	3029.1296	3043.9125	3068.6116	3084.9288	3095.7708	3160.0525	3814.4738
OC1CCCC(=C1)C#N	O[C@H]1CCCC(=C1)C#N	
InChI=1S/C7H9NO/c8-5-6-2-1-3-7(9)4-6/h4,7,9H,1-3H2	InChI=1S/C7H9NO/c8-5-6-2-1-3-7(9)4-6/h4,7,9H,1-3H2/t7-/m0/s1
