21
gdb 64202	2.44783	1.49064	1.37441	2.4374	78.29	-0.2309	0.0672	0.2981	1090.8924	0.180828	-424.198803	-424.189584	-424.18864	-424.232538	35.368	
C	-0.1507613653	 1.4978141821	 0.0529929426	-0.450588
C	 0.0114119886	-0.0212808488	 0.0490392407	 0.350116
O	-1.2399959182	-0.6670691278	 0.0462101871	-0.468808
C	 1.0914021775	-0.5078491172	-0.9680626753	-0.288188
C	 2.1211775515	-0.5277866323	 0.1954066263	-0.293122
C	 0.9439496644	-0.5402574987	 1.1935292619	 0.437996
C	 0.9307826633	 0.0017165784	 2.6337959512	-0.375385
C	 0.4185019816	-1.4023872772	 3.0022556846	-0.066756
O	 0.6126329536	-1.8679658481	 1.6521282327	-0.310482
H	 0.8103952682	 2.013957401	 0.139558074	 0.120403
H	-0.6154113983	 1.8298465729	-0.884144463	 0.108226
H	-0.7902673078	 1.8154997945	 0.88207488	 0.123291
H	-1.7875710711	-0.2555070927	-0.6309778003	 0.273726
H	 0.8546424331	-1.5167872474	-1.3119760372	 0.11936
H	 1.3003273992	 0.134325072	-1.8278631738	 0.085973
H	 2.7809598867	-1.3939278128	 0.268314862	 0.111429
H	 2.7173359838	 0.3870225888	 0.2585828716	 0.100586
H	 1.9223041056	 0.2405643079	 3.0252191166	 0.108694
H	 0.2559188413	 0.8363049524	 2.8311934466	 0.108102
H	 1.0179387866	-1.9732679064	 3.7204299576	 0.099379
H	-0.6367062844	-1.4458838107	 3.298444604	 0.10605
69.3883	96.3418	204.4455	233.139	243.592	261.1484	299.3847	335.7636	392.868	436.9831	500.4526	546.8745	657.1435	722.5734	779.2082	863.0915	871.9025	885.5198	900.6105	930.0114	951.3968	983.4657	1000.5445	1031.325	1090.6051	1141.7841	1157.7174	1170.7159	1182.2582	1190.4088	1205.9383	1225.7477	1231.1899	1256.046	1271.6779	1296.1774	1355.9043	1377.3346	1402.7621	1464.1956	1480.1494	1484.8233	1491.0715	1497.4377	1526.5397	3019.3907	3021.6551	3058.3368	3061.4047	3064.0311	3072.1142	3087.8227	3111.8714	3117.6294	3126.496	3132.5219	3803.5607
CC1(O)CCC11CCO1	C[C@@]1(O)CC[C@]21CCO2	
InChI=1S/C7H12O2/c1-6(8)2-3-7(6)4-5-9-7/h8H,2-5H2,1H3	InChI=1S/C7H12O2/c1-6(8)2-3-7(6)4-5-9-7/h8H,2-5H2,1H3/t6-,7-/m1/s1
