18
gdb 133698	3.45159	0.9953	0.94545	2.1801	64.69	-0.308	0.0832	0.3912	1284.3946	0.143912	-533.462403	-533.453667	-533.452723	-533.496439	32.417	
C	-0.6918325211	 1.1595386966	-0.0908908774	-0.411596
C	 0.2486688576	-0.0209922535	 0.0860275751	 0.064015
C	 1.4962428212	-0.1193981096	-0.8416049111	-0.254218
C	 2.3673158743	-0.4862155856	 0.3931652228	-0.137989
C	 1.2030810906	-0.0292739367	 1.3171368041	-0.254203
C	 2.694954584	-1.9549839887	 0.4990107072	 0.276205
F	 3.5533095122	-2.3371671664	-0.4618145933	-0.082681
F	 3.2615752275	-2.2477525735	 1.6819100273	-0.082684
F	 1.601316833	-2.7338399814	 0.3826682559	-0.089839
H	-0.1450108925	 2.1093136506	-0.0566488584	 0.110447
H	-1.2142392059	 1.110702337	-1.0528228573	 0.11795
H	-1.4513880488	 1.1841206158	 0.6984682228	 0.117953
H	-0.3148384183	-0.9573741916	 0.0485774705	 0.086787
H	 1.4653516198	-0.8461896405	-1.6559829627	 0.11617
H	 1.7836061072	 0.8522179452	-1.2524166523	 0.103896
H	 3.3116746571	 0.0517983425	 0.4989368872	 0.099723
H	 1.3814749514	 0.975845887	 1.7086632371	 0.103896
H	 0.9484300706	-0.6872641773	 2.1505606627	 0.116169
60.1183	87.3093	169.2044	221.7867	236.8337	308.4575	319.1535	422.1712	425.3109	525.9431	577.0771	606.2306	692.9205	788.6749	804.5581	870.2971	899.4867	942.8318	965.0443	997.6059	1054.4943	1066.6419	1133.0584	1144.7522	1177.7201	1194.3837	1225.9975	1233.8868	1260.3935	1277.6878	1295.5604	1296.997	1370.688	1407.0755	1413.673	1474.3054	1493.1302	1497.3179	1499.9953	3022.6459	3061.1939	3061.9436	3067.0415	3091.1189	3092.7978	3093.0579	3118.9599	3122.5953
CC1CC(C1)C(F)(F)F	C[C@H]1C[C@@H](C1)C(F)(F)F	
InChI=1S/C6H9F3/c1-4-2-5(3-4)6(7,8)9/h4-5H,2-3H2,1H3	InChI=1S/C6H9F3/c1-4-2-5(3-4)6(7,8)9/h4-5H,2-3H2,1H3/t4-,5-
