16
gdb 70230	4.21856	1.17162	1.0222	1.1945	79.41	-0.242	-0.0329	0.2091	1171.4721	0.123071	-400.714943	-400.706933	-400.705989	-400.74724	30.859	
C	-0.0446398237	 1.5350095055	 0.02595796	-0.472137
C	 0.0655208289	 0.0344869423	 0.022521397	 0.313844
C	-0.8018345233	-0.8462594075	 0.9077845089	-0.354205
C	 0.6868299089	-0.8502823101	 1.0983033672	 0.019682
O	 1.4047308962	-1.8549196269	 0.402793303	-0.244403
C	 1.1617128382	-1.6088212438	-0.9224037247	 0.230553
N	 0.4577995329	-0.584253686	-1.2249425215	-0.346953
C	 1.7343591727	-2.531283879	-1.8390278782	 0.25648
C	 2.2235408333	-3.3166604102	-2.6054323974	-0.354785
H	 0.8895996305	 1.9960100821	-0.3087752341	 0.129117
H	-0.8429480099	 1.8591642311	-0.6490358091	 0.13601
H	-0.2741923048	 1.9069554723	 1.0287386409	 0.11513
H	-1.3737628821	-0.3399034332	 1.6781000791	 0.121824
H	-1.2791015812	-1.7164299444	 0.4696349895	 0.12878
H	 1.174948153	-0.5386130935	 2.0127411307	 0.114889
H	 2.6540967705	-4.0050615186	-3.2906540412	 0.206175
115.4326	149.4609	182.791	242.2243	304.6248	339.2064	427.1517	506.9349	527.6484	563.1472	643.659	650.5852	676.2034	723.5872	769.8773	800.8337	875.5095	933.5183	961.5551	965.3536	1006.9096	1036.8884	1103.0606	1111.7932	1131.3469	1224.6828	1261.7947	1319.4625	1383.4406	1421.0366	1467.8303	1480.2407	1497.9011	1652.9106	2250.8818	3038.7873	3108.2406	3114.4367	3129.9139	3196.1164	3224.1444	3500.7346
CC12CC1OC(=N2)C#C	C[C@]12C[C@H]1OC(=N2)C#C	
InChI=1S/C7H7NO/c1-3-6-8-7(2)4-5(7)9-6/h1,5H,4H2,2H3	InChI=1S/C7H7NO/c1-3-6-8-7(2)4-5(7)9-6/h1,5H,4H2,2H3/t5-,7+/m1/s1
