16
gdb 127067	4.2155	0.87944	0.79738	2.3907	67.35	-0.2775	-0.0759	0.2016	1429.1812	0.122701	-471.137508	-471.128867	-471.127923	-471.172591	29.661	
C	-0.3033155601	 1.3622694414	-0.1257641644	-0.383647
C	-0.6842676051	-0.0733922417	-0.4389157998	-0.051666
O	-1.0130921164	-0.7164769939	 0.791084573	-0.237568
C	-1.2965503741	-2.0904866061	 0.6856419594	-0.1783
C	-2.7073964003	-2.362395675	 0.2498304545	 0.411758
N	-3.6538500357	-2.7985829721	 1.0313902621	-0.133862
O	-4.7467541225	-2.8792628956	 0.2423867506	-0.135999
N	-4.4032275965	-2.4678428661	-1.0457364152	 0.050438
N	-3.1849906282	-2.1640420303	-1.0371060058	-0.19953
H	-0.0345298792	 1.8892173391	-1.0459284576	 0.120984
H	-1.1396760828	 1.8881827276	 0.3428926784	 0.132211
H	 0.5498054688	 1.3950341008	 0.5575597803	 0.128792
H	-1.5341463787	-0.108815108	-1.1336994979	 0.119675
H	 0.1531441269	-0.6062821373	-0.917783436	 0.092774
H	-0.6065925602	-2.5899650679	-0.0108933684	 0.119305
H	-1.1639494659	-2.525199205	 1.6794296268	 0.144635
35.9489	64.9242	96.1505	171.0898	244.9185	258.5922	325.5491	365.6387	523.0643	672.4311	678.876	693.0593	814.6433	826.7212	856.4332	957.0246	1001.3613	1029.7827	1062.5598	1095.8821	1131.1426	1152.8994	1186.6792	1271.4044	1301.8783	1336.6619	1392.4882	1405.8228	1436.4011	1475.4041	1480.0232	1483.2516	1500.3042	1530.9112	1585.8511	2976.5404	3000.0397	3034.5956	3047.249	3107.6522	3122.6211	3125.066
CCOCC1=NON=N1	CCOCc1nonn1	
InChI=1S/C4H7N3O2/c1-2-8-3-4-5-7-9-6-4/h2-3H2,1H3	InChI=1S/C4H7N3O2/c1-2-8-3-4-5-7-9-6-4/h2-3H2,1H3
