16
gdb 53879	2.74372	1.17495	0.88522	3.7608	68.53	-0.24	-0.0694	0.1706	1263.9842	0.124291	-471.246304	-471.236966	-471.236022	-471.281343	33.191	
N	 0.1295231213	 0.8604989253	-0.3991831739	-0.511434
C	-0.1608778552	-0.4530148948	-0.1557680871	 0.236368
N	 0.5845065952	-1.404584759	-0.5697029406	-0.515747
C	-1.4395023124	-0.5975086281	 0.6649876325	 0.34853
O	-2.1404365602	 0.3661906813	 0.8849667773	-0.312379
C	-1.8557873899	-1.9832843606	 1.1741365544	-0.273388
N	-2.5610669407	-2.7308356955	 0.1453462381	-0.269662
C	-1.9997232798	-3.7788579612	-0.5138029215	 0.162374
O	-0.8711368081	-4.1867033902	-0.3270032133	-0.313208
H	 0.8264650674	 1.0529040832	-1.0990870039	 0.261076
H	-0.6105266364	 1.5275110013	-0.255848789	 0.266115
H	 0.2578844219	-2.328447115	-0.2900852902	 0.254424
H	-0.995863519	-2.5819741329	 1.4777978837	 0.164488
H	-2.5134176199	-1.8215289959	 2.0317841046	 0.138156
H	-3.4916077894	-2.4380313129	-0.1084800627	 0.264
H	-2.6936594846	-4.232947815	-1.2445376784	 0.100287
39.901	82.5752	113.1823	171.4145	226.5566	298.4149	336.7444	354.1679	425.3754	449.6118	515.5307	519.0421	544.0451	609.8733	699.2416	756.8957	829.1716	914.7107	975.3188	1004.0774	1025.4048	1108.4604	1150.8531	1179.9308	1220.9652	1276.831	1359.2747	1419.5243	1421.92	1470.5888	1529.2585	1590.578	1714.774	1782.9151	1790.7889	2970.6155	3074.7576	3143.8407	3493.5752	3600.8708	3635.5609	3730.3745
NC(=N)C(=O)CNC=O	NC(=N)C(=O)CNC=O	
InChI=1S/C4H7N3O2/c5-4(6)3(9)1-7-2-8/h2H,1H2,(H3,5,6)(H,7,8)	InChI=1S/C4H7N3O2/c5-4(6)3(9)1-7-2-8/h2H,1H2,(H3,5,6)(H,7,8)
