15
gdb 19386	3.14594	2.30341	1.59822	3.6722	66.64	-0.2354	-0.0177	0.2176	810.7841	0.119063	-362.611384	-362.604629	-362.603685	-362.642252	25.937	
O	 0.0386246029	 0.0326307532	-0.1090411277	-0.323631
C	-0.0063256295	 1.2239811946	 0.0007479165	 0.398534
C	-1.1135599593	 2.268753422	-0.0534616325	-0.186275
N	-0.8899192494	 3.1558159743	 1.1447735353	-0.332039
C	-0.0670346443	 3.3492763818	-0.058579107	-0.179629
C	 1.0491914897	 2.3214549264	 0.0385002486	 0.282005
C	 2.3558175346	 2.346348199	 0.7753157252	-0.308193
C	 2.3472828606	 2.2492468297	-0.7250401576	-0.331797
H	-2.0822521794	 2.218654976	-0.5331932073	 0.115186
H	-1.6483880521	 3.8398093421	 1.1186091972	 0.237352
H	-0.0695193352	 4.2703248953	-0.6268818672	 0.111329
H	 2.6538158401	 3.2845942554	 1.2306231202	 0.124024
H	 2.6143117931	 1.4599431643	 1.3447489775	 0.134444
H	 2.5878873859	 1.2956512448	-1.1831910356	 0.137284
H	 2.6398703323	 3.1210059312	-1.3008986956	 0.121404
130.1527	185.1604	210.1034	247.6419	414.903	513.319	620.0733	656.6944	750.7372	781.139	821.3304	823.8558	846.8772	892.0887	938.654	958.9483	970.534	996.4258	1049.7475	1065.1203	1080.6781	1097.8015	1107.6004	1191.9871	1194.5548	1281.3374	1289.5311	1329.2597	1405.3973	1458.5275	1495.1877	1888.6438	3130.4795	3134.3684	3200.1109	3211.2395	3213.4429	3227.9013	3451.2129
O=C1C2NC2C11CC1	O=C1[C@H]2N[C@H]2C21CC2	
InChI=1S/C6H7NO/c8-5-3-4(7-3)6(5)1-2-6/h3-4,7H,1-2H2	InChI=1S/C6H7NO/c8-5-3-4(7-3)6(5)1-2-6/h3-4,7H,1-2H2/t3-,4+/m0/s1
