20
gdb 64383	2.15865	1.63303	1.23605	4.1236	77.84	-0.2753	0.0206	0.2959	1108.319	0.170617	-403.174603	-403.165306	-403.164361	-403.208556	34.533	
C	-0.5332781094	 1.568357844	 0.0817246186	-0.454413
C	-0.0170958618	 0.1293456298	 0.0163368158	 0.27351
C	-1.1842769388	-0.8487154979	-0.2071380774	-0.434622
C	 1.0876055213	-0.0768316509	-1.0490926099	-0.275056
C	 1.9194367242	-1.2561157763	-0.5068427491	-0.085026
O	 1.5309430533	-1.4435182705	 0.8670830293	-0.253384
C	 0.7607855332	-0.3340438539	 1.2819695646	-0.064551
C	 1.6306200904	 0.7245707915	 1.8469415534	 0.283104
N	 2.3199687407	 1.5445790596	 2.2809374639	-0.336297
H	 0.2758413862	 2.2832317406	 0.2524751769	 0.142854
H	-1.0291013506	 1.8336831063	-0.8574506005	 0.12011
H	-1.2671218051	 1.6894068262	 0.8860267764	 0.120813
H	-1.6679209041	-0.6493094482	-1.1684668438	 0.11887
H	-0.8441084167	-1.8878703268	-0.2041243448	 0.133448
H	-1.9417677893	-0.7385352055	 0.5760978609	 0.118999
H	 0.6693870085	-0.2816847994	-2.0375793125	 0.11051
H	 1.7030526979	 0.8239174493	-1.1281835608	 0.121345
H	 1.7175286015	-2.196667859	-1.0285508188	 0.115386
H	 2.995872073	-1.0587995087	-0.5594830656	 0.11811
H	 0.0885993457	-0.6736722201	 2.0768124536	 0.126287
73.1259	105.2503	152.1767	213.7848	236.5879	249.3646	292.1493	340.2921	372.6966	397.1553	500.3293	565.2113	602.3086	719.73	780.1539	876.8182	890.1652	924.679	946.7333	954.6291	973.8072	993.4413	1028.2875	1054.9081	1096.7371	1190.5498	1197.9856	1219.7038	1244.1399	1259.0941	1306.3733	1331.7287	1357.1107	1387.3389	1403.2953	1426.772	1483.1513	1487.609	1498.9463	1504.1745	1510.4297	1530.7086	2349.3362	3033.5286	3037.6666	3037.9237	3060.6008	3064.9462	3077.2244	3098.1142	3103.3363	3111.3974	3118.2201	3120.164
CC1(C)CCOC1C#N	CC1(C)CCO[C@H]1C#N	
InChI=1S/C7H11NO/c1-7(2)3-4-9-6(7)5-8/h6H,3-4H2,1-2H3	InChI=1S/C7H11NO/c1-7(2)3-4-9-6(7)5-8/h6H,3-4H2,1-2H3/t6-/m0/s1
