18
gdb 83813	2.3798	1.72725	1.50345	2.5024	72.22	-0.2319	0.0094	0.2413	982.561	0.148133	-439.077286	-439.069154	-439.06821	-439.109438	31.598	
C	 0.0578271831	 1.5853768206	 0.0369872101	-0.453305
C	-0.033421736	 0.0790883216	 0.1022909113	 0.27011
N	-1.3243754013	-0.4295224524	-0.2469492741	-0.265481
C	-1.6531109873	-1.5911364412	 0.1218687004	 0.068512
O	-0.9215744689	-2.4687221731	 0.8771835474	-0.250283
C	 0.0477685654	-1.8702311954	 1.7687231198	-0.115702
C	 0.7697028353	-0.7011450372	 1.1419875407	-0.176055
C	 1.1879494416	-0.7609271768	-0.3015341817	 0.096883
O	 1.1135040973	-1.9097612323	-1.0776484761	-0.426704
H	 1.0825517163	 1.926109915	 0.215053769	 0.108612
H	-0.2610244565	 1.9406390175	-0.9476215152	 0.132633
H	-0.5888572889	 2.0509444546	 0.7888216624	 0.119478
H	-2.6011379458	-2.0359229099	-0.1706679598	 0.131464
H	-0.4773110768	-1.5459726241	 2.6761505968	 0.123426
H	 0.7259652923	-2.6853753877	 2.0365341657	 0.128884
H	 1.3945326696	-0.1464185939	 1.837909957	 0.094572
H	 2.0662253946	-0.1869502473	-0.5827905318	 0.10979
H	 0.4873397461	-2.524273038	-0.6783523817	 0.303166
158.0058	177.2945	198.5634	225.1295	257.074	317.8606	375.4051	439.6192	461.9435	501.6269	622.0167	691.5184	704.5014	774.4392	814.4776	865.5538	913.2056	932.9168	945.7537	982.9091	1047.215	1069.2669	1100.9136	1125.744	1127.546	1181.3541	1227.286	1278.2902	1285.343	1332.6138	1372.2992	1394.1323	1414.4933	1416.7503	1466.7527	1481.7996	1498.6291	1514.4612	1718.7247	3024.7446	3031.7754	3084.8349	3097.2559	3111.8541	3135.566	3154.6645	3171.4143	3797.3132
CC12N=COCC1C2O	C[C@]12N=COC[C@H]1[C@H]2O	
InChI=1S/C6H9NO2/c1-6-4(5(6)8)2-9-3-7-6/h3-5,8H,2H2,1H3	InChI=1S/C6H9NO2/c1-6-4(5(6)8)2-9-3-7-6/h3-5,8H,2H2,1H3/t4-,5+,6-/m0/s1
