22
gdb 111114	3.37432	1.23963	1.14771	1.5536	85.26	-0.2232	0.091	0.3143	1195.032	0.19665	-367.154417	-367.146612	-367.145668	-367.186684	31.993	
C	 0.5618356102	 0.2452874544	-1.4605797231	-0.378128
C	 0.0204766744	 0.1560633577	-0.0282983252	-0.232363
C	-1.3901765358	-0.4339934924	 0.0260348925	 0.053584
C	-1.5549496795	-1.9771683111	-0.1398817386	-0.064691
C	-1.1544390582	-2.0809899193	 1.3773349785	-0.218487
C	-1.9842856521	-0.7628795332	 1.42908871	-0.017817
N	-3.3571593138	-1.3459011032	 1.2307200862	-0.114696
C	-4.0241968873	-1.0575175397	-0.0520481904	-0.257942
C	-3.0677663046	-2.1912004533	 0.030504369	-0.024339
H	 1.5522975577	 0.7103810153	-1.4802980159	 0.112515
H	 0.6508128389	-0.746807573	-1.9157919449	 0.117754
H	-0.0993577837	 0.8425810543	-2.0982995762	 0.114275
H	 0.7256650326	-0.4095247452	 0.5875968126	 0.099662
H	-0.0164883851	 1.1643327451	 0.405628614	 0.096974
H	-2.0070213422	 0.1848870182	-0.6292993017	 0.058172
H	-1.0494560018	-2.5422360426	-0.9233843018	 0.062559
H	-1.5607110237	-2.9214655246	 1.9444689241	 0.102192
H	-0.0901161214	-1.9654526187	 1.5770872762	 0.098981
H	-1.9468376322	-0.0622933138	 2.2638527233	 0.066939
H	-5.0842367979	-1.2972197085	-0.0263073026	 0.113753
H	-3.8009681219	-0.1601157725	-0.6162447264	 0.118906
H	-3.4386094725	-3.2135076639	 0.0448192702	 0.092196
76.8869	160.5768	204.4685	300.5522	343.3846	377.9564	451.7276	516.1985	568.6677	640.9069	740.3034	753.9826	781.7231	840.5742	850.2694	878.2041	881.3409	909.9565	957.0146	988.4103	1005.9754	1026.1763	1045.911	1058.8942	1077.5095	1094.966	1101.1167	1113.7472	1122.0071	1139.8389	1170.1109	1214.4326	1230.8866	1241.1404	1253.8985	1257.5893	1274.887	1301.0077	1344.8764	1370.8008	1410.6125	1416.2533	1483.3336	1498.987	1500.2187	1513.0977	1515.4303	3020.5662	3031.3418	3063.6962	3074.3166	3082.7459	3102.4847	3103.6083	3111.0099	3113.1771	3122.6346	3133.3999	3148.8211	3204.9034
CCC1C2CC1N1CC21	CC[C@H]1[C@H]2C[C@@H]1N1C[C@@H]21	
InChI=1S/C8H13N/c1-2-5-6-3-7(5)9-4-8(6)9/h5-8H,2-4H2,1H3	InChI=1S/C8H13N/c1-2-5-6-3-7(5)9-4-8(6)9/h5-8H,2-4H2,1H3/t5-,6+,7-,8-,9?/m0/s1
