19
gdb 54415	2.5448	1.43259	1.17316	1.5985	77.35	-0.2387	-0.0177	0.221	1133.7957	0.156702	-423.016158	-423.006934	-423.00599	-423.050279	34.047	
C	-0.6471955994	 1.1862717751	 0.1968838857	-0.494501
C	 0.2872969015	 0.0110676048	-0.0304909368	 0.296386
O	 1.0611746239	-0.3659524068	 0.8296148972	-0.333753
C	 0.1969168694	-0.6807545877	-1.3315327075	 0.10617
C	 1.2996018757	-1.6265160333	-1.8052745999	-0.372884
C	-0.0407894774	-2.2002468466	-1.5543646801	 0.434388
C	-0.3871528866	-3.2975220804	-0.6052817681	-0.485179
O	-0.9145784478	-1.9494403543	-2.6565470388	-0.314383
C	-0.8057611286	-0.5134860015	-2.4671128176	-0.160712
H	-0.552254262	 1.9232620578	-0.6085099522	 0.136382
H	-1.6902147078	 0.8490234202	 0.2008891556	 0.142428
H	-0.4169790544	 1.6517784235	 1.1556352881	 0.14393
H	 1.6643536433	-1.5326369655	-2.824416099	 0.116741
H	 2.0442130737	-1.8064527632	-1.0376232563	 0.146785
H	 0.2300045949	-3.2157748078	 0.293355111	 0.151954
H	-1.4418351829	-3.249054529	-0.3198658845	 0.129738
H	-0.2004549203	-4.2744290323	-1.0652983354	 0.136728
H	-1.7714083802	-0.098886145	-2.1576740347	 0.110778
H	-0.4587799851	-0.001842358	-3.3727941366	 0.109005
63.958	107.3736	135.8785	185.2205	205.1952	250.5275	344.0489	374.5646	399.2245	464.0356	502.4141	598.554	613.5194	688.9399	753.1904	791.6217	924.7707	938.1668	962.5426	981.9013	992.1349	1023.6933	1044.1162	1065.5837	1102.9018	1128.9177	1166.5709	1186.819	1237.5826	1320.8115	1350.6717	1375.7484	1397.1345	1425.1808	1463.9691	1475.1843	1476.4115	1480.546	1498.8776	1521.6979	1767.0725	3024.4227	3034.4265	3037.1799	3074.3458	3094.4505	3103.2703	3119.4825	3129.0323	3153.5942	3226.7894
CC(=O)C12CC1(C)OC2	CC(=O)[C@@]12C[C@]1(C)OC2	
InChI=1S/C7H10O2/c1-5(8)7-3-6(7,2)9-4-7/h3-4H2,1-2H3	InChI=1S/C7H10O2/c1-5(8)7-3-6(7,2)9-4-7/h3-4H2,1-2H3/t6-,7-/m0/s1
