19
gdb 39532	3.93241	1.47687	1.24861	0.2782	85.98	-0.2058	0.0186	0.2244	1039.0535	0.16215	-348.764184	-348.757419	-348.756475	-348.79487	28.701	
C	-0.0596350778	 1.4885357885	-0.0131352915	-0.299687
C	 1.3706003411	 1.9901460844	 0.0791065019	-0.077173
C	 2.2583173997	 0.9916673463	 0.0607215988	-0.19768
C	 1.5904463202	-0.3338433752	 0.0212931501	 0.361419
C	 2.0784442182	-1.6207312105	-0.5358087585	-0.19768
C	 1.5305498034	-2.6671802066	 0.0887678236	-0.077172
C	 0.621292557	-2.2437431633	 1.2287883432	-0.299687
C	 0.6504147699	-0.7150681788	 1.1756332077	-0.088826
C	 0.0843448771	-0.0343550611	-0.03750796	-0.088826
H	-0.6687863906	 1.8403876864	 0.8304857544	 0.108561
H	-0.5546509805	 1.8564040803	-0.9215875733	 0.107211
H	 1.612364186	 3.0420182945	 0.1799546103	 0.091876
H	 3.3352780233	 1.1057107189	 0.1138475806	 0.092277
H	 2.760621042	-1.6759941483	-1.3767921764	 0.092277
H	 1.6744812719	-3.7061644873	-0.1848210987	 0.091876
H	-0.3926283724	-2.6498297345	 1.1120855817	 0.108561
H	 0.990055595	-2.6158301676	 2.19378477	 0.107211
H	 0.6971101508	-0.1551344716	 2.1041892677	 0.082732
H	-0.5456294052	-0.6137779342	-0.7048339324	 0.082732
206.2642	210.4023	290.9859	313.0148	445.1001	487.7747	502.2644	673.7978	728.0723	734.4677	740.7196	782.847	796.6285	881.1646	890.0871	905.8743	929.0009	939.9816	955.4293	958.5774	1006.3134	1021.5877	1041.6254	1054.6357	1057.0561	1123.1086	1131.367	1169.9413	1187.4326	1231.0703	1247.6886	1267.9915	1305.5823	1314.2078	1347.5039	1404.0711	1408.9403	1477.5953	1478.1336	1657.5414	1666.7247	3012.1752	3012.8272	3037.1644	3037.5009	3154.7544	3159.7488	3184.2703	3185.2897	3208.9443	3210.4421
C1C=CC23C=CCC2C13	C1C=C[C@@]23C=CC[C@@H]2[C@@H]13	
InChI=1S/C9H10/c1-3-7-8-4-2-6-9(7,8)5-1/h1-2,5-8H,3-4H2	InChI=1S/C9H10/c1-3-7-8-4-2-6-9(7,8)5-1/h1-2,5-8H,3-4H2/t7-,8-,9+/m1/s1
