17
gdb 31193	2.01418	1.6334	0.95437	4.3399	84.5	-0.2095	0.0084	0.2179	1225.2074	0.136246	-380.889113	-380.880332	-380.879388	-380.923318	32.376	
C	-0.4314620688	 1.5572157014	-0.1360705943	-0.3711
C	 0.101880274	 0.1243169289	 0.044082831	-0.318261
C	 0.8123657102	-0.4104196957	-1.154423546	 0.225118
C	 2.1401447602	-0.7318894783	-1.3704802554	 0.078407
N	 2.3291357546	-1.1860106419	-2.6686283541	-0.313469
C	 1.1465561931	-1.139565367	-3.2224118383	-0.009504
N	 0.1947224274	-0.6784517451	-2.354712257	-0.292162
C	 3.1924170291	-0.6299739495	-0.4287020201	 0.25001
C	 4.0731706943	-0.536928739	 0.3877916427	-0.439278
H	 0.3847471852	 2.2500579023	-0.3590977897	 0.135159
H	-1.1540282412	 1.6185696054	-0.9570842976	 0.106809
H	-0.9337423771	 1.898537717	 0.7739767911	 0.120594
H	 0.8086287437	 0.0964032047	 0.8785263622	 0.136204
H	-0.7277658099	-0.541914231	 0.3173959914	 0.109443
H	 0.9103236693	-1.4231380676	-4.2373486046	 0.131093
H	-0.7855946679	-0.5610136147	-2.5511610424	 0.266805
H	 4.8579645239	-0.4594410802	 1.0982614312	 0.184132
33.5444	133.0326	149.6807	175.3094	216.2057	322.6489	368.8707	481.6372	527.8478	535.7559	554.7818	592.5103	663.1055	666.7614	693.8383	756.1475	787.0634	810.2947	956.1605	966.9778	1046.6167	1079.3412	1109.0685	1137.1588	1246.474	1278.3737	1304.4443	1356.6997	1382.0119	1411.6704	1444.393	1480.5468	1497.4384	1503.8014	1529.0491	1598.0887	2231.4947	3015.3816	3036.105	3085.1643	3106.8992	3120.0861	3249.9604	3505.0945	3657.6967
CCC1=C(N=CN1)C#C	CCc1c(nc[nH]1)C#C	
InChI=1S/C7H8N2/c1-3-6-7(4-2)9-5-8-6/h1,5H,4H2,2H3,(H,8,9)	InChI=1S/C7H8N2/c1-3-6-7(4-2)9-5-8-6/h1,5H,4H2,2H3,(H,8,9)
