19
gdb 13761	3.01296	1.49751	1.18385	4.0911	76.04	-0.285	0.0312	0.3162	1081.5661	0.164736	-327.942557	-327.933707	-327.932763	-327.975959	32.466	
C	 0.0169563259	 1.4369597489	-0.2492655041	-0.390372
C	 0.0511209618	-0.0400486647	 0.1700767393	 0.011025
C	 0.7000144383	-0.2170610361	 1.5501150859	-0.392988
C	-1.3493201505	-0.6270931398	 0.149310685	 0.025372
C	-1.9759579118	-1.1139526425	-1.1203795754	-0.302548
C	-1.5871068944	-2.1222178905	-0.0456984194	-0.185862
C	-0.4810657718	-3.0083780669	-0.2739126226	 0.290859
N	 0.4122112507	-3.7229669119	-0.4513226269	-0.35004
H	 1.0268531458	 1.858203839	-0.2702835646	 0.117411
H	-0.4229016093	 1.5609154648	-1.2438083066	 0.115401
H	-0.5758481359	 2.0318806007	 0.455566932	 0.113085
H	 0.6561283458	-0.5899102419	-0.5626879688	 0.094238
H	 0.120435638	 0.3002106763	 2.3241366481	 0.10958
H	 0.7681964738	-1.2734586189	 1.8251900032	 0.131829
H	 1.7121717164	 0.1991369763	 1.560161146	 0.116809
H	-2.0289250166	-0.1771853859	 0.8702673303	 0.09714
H	-3.0360334154	-0.9629178688	-1.2881809766	 0.128218
H	-1.3686197562	-1.105408979	-2.018849456	 0.138839
H	-2.3940853447	-2.5710335092	 0.5234555311	 0.132005
67.5123	106.9986	179.6264	222.0427	236.5119	242.1104	308.1763	336.7055	422.6331	455.3366	563.3525	636.7775	758.0338	781.2356	845.847	895.4741	932.0065	950.4598	969.4654	992.2446	1014.0132	1077.6634	1118.6898	1138.3004	1146.9843	1188.735	1203.8003	1237.5161	1319.63	1344.4228	1373.9103	1400.5149	1418.4015	1430.2542	1486.2226	1487.6068	1491.4004	1504.007	1510.6333	2348.4814	3023.2718	3027.036	3032.4029	3092.8955	3098.6486	3106.7941	3114.0475	3131.4608	3140.4271	3169.9736	3230.0041
CC(C)C1CC1C#N	CC(C)[C@H]1C[C@H]1C#N	
InChI=1S/C7H11N/c1-5(2)7-3-6(7)4-8/h5-7H,3H2,1-2H3	InChI=1S/C7H11N/c1-5(2)7-3-6(7)4-8/h5-7H,3H2,1-2H3/t6-,7+/m0/s1
