17
gdb 14844	2.90748	1.69731	1.17926	4.8787	69.43	-0.2299	0.0165	0.2464	1026.9887	0.143288	-360.013718	-360.005472	-360.004527	-360.046769	29.482	
C	 0.1830084634	 1.3826076545	 0.2653790634	-0.321149
N	-0.0448257787	-0.0258098404	-0.0291680138	-0.270637
C	 0.5263198627	-0.4700734486	-1.2711585105	 0.045783
C	 2.0685225776	-0.7361532996	-1.3475565753	-0.197124
N	 1.7990998662	-2.176176631	-1.1316808167	-0.302055
C	 0.3837915392	-2.0110137425	-1.5218069769	-0.172528
C	-0.5756341155	-2.7628223192	-0.7116519587	 0.313335
N	-1.3278414748	-3.3674466918	-0.0761488157	-0.328116
H	 1.2454725136	 1.6790772795	 0.3013186063	 0.100521
H	-0.3078190935	 1.9971712346	-0.4979751037	 0.125306
H	-0.269729917	 1.6260302745	 1.2301667276	 0.129657
H	 0.2741744487	-0.609242208	 0.737508829	 0.236187
H	 0.1307039573	 0.1517522622	-2.0780247045	 0.092806
H	 2.4909433146	-0.4886787878	-2.3313230917	 0.096199
H	 2.6873473732	-0.2770663986	-0.569303013	 0.110373
H	 2.3329039143	-2.8309530744	-1.6917163619	 0.229611
H	 0.1707066787	-2.2142685333	-2.5808510237	 0.111831
88.2482	110.0318	121.4899	209.4962	218.2221	287.4406	372.4611	422.6104	555.5768	564.4396	682.4117	728.9413	799.0369	860.7768	942.2758	980.5856	999.1422	1033.7087	1059.3162	1081.6942	1134.3221	1160.0407	1166.4076	1182.2922	1241.6267	1270.7565	1314.3013	1353.7818	1367.5586	1388.9428	1460.2958	1489.4098	1503.2231	1516.7395	1524.7957	2358.2385	2956.0654	3000.0437	3004.0132	3057.5405	3066.8441	3082.2058	3111.6307	3526.6061	3540.5667
CNC1CNC1C#N	CN[C@H]1CN[C@H]1C#N	
InChI=1S/C5H9N3/c1-7-5-3-8-4(5)2-6/h4-5,7-8H,3H2,1H3	InChI=1S/C5H9N3/c1-7-5-3-8-4(5)2-6/h4-5,7-8H,3H2,1H3/t4-,5-/m0/s1
