16
gdb 17249	4.58479	1.60233	1.54662	2.2384	63.41	-0.2304	0.0599	0.2903	863.6138	0.130594	-383.657846	-383.650949	-383.650005	-383.689137	26.466	
O	 0.1243541214	 1.3201940409	-0.3981341621	-0.410284
C	-0.0396517002	 0.0327549023	 0.1834918227	-0.189627
C	-1.4501402805	-0.4686828373	 0.128403972	 0.262356
C	-2.6579709048	-0.0449110075	 0.9758232015	-0.295384
C	-3.3627047066	-1.2734369768	 0.3488273745	 0.070734
O	-3.5010529023	-0.90848615	-1.0543362842	-0.296048
C	-2.0857692093	-1.0647347745	-1.1429141393	 0.064193
C	-1.951190487	-1.9160481185	 0.0723382262	-0.198005
H	-0.4551142812	 1.9295231202	 0.0702605838	 0.28499
H	 0.6135464561	-0.6350913575	-0.3903090666	 0.109644
H	 0.3250553007	 0.0191736821	 1.2236762297	 0.089618
H	-2.4621227289	-0.1869742955	 2.0425922259	 0.102701
H	-3.1331051695	 0.9252448111	 0.7944438441	 0.098526
H	-4.2518462409	-1.737168314	 0.7698963228	 0.089991
H	-1.6114887019	-1.0835383307	-2.1150469599	 0.115006
H	-1.485994995	-2.8685691543	 0.2855359389	 0.101588
79.1523	149.0932	245.3926	318.9584	386.9438	466.391	523.5811	668.6854	753.0681	776.1953	807.5473	821.7343	900.9758	917.124	930.0675	965.3862	984.7533	1032.2528	1038.5486	1040.3423	1066.5587	1123.2264	1151.0951	1163.2352	1188.8532	1220.0602	1248.7906	1299.9837	1318.1542	1373.6776	1392.7981	1428.7561	1487.1643	1499.7981	2969.0758	3038.9719	3056.8497	3102.8253	3148.0742	3203.7757	3218.2297	3818.1633
OCC12CC3OC1C23	OC[C@@]12C[C@H]3O[C@@H]1[C@@H]23	
InChI=1S/C6H8O2/c7-2-6-1-3-4(6)5(6)8-3/h3-5,7H,1-2H2	InChI=1S/C6H8O2/c7-2-6-1-3-4(6)5(6)8-3/h3-5,7H,1-2H2/t3-,4+,5-,6-/m1/s1
