19
gdb 83332	2.15474	1.67632	1.51357	1.8253	70.19	-0.2383	0.0551	0.2934	1007.9089	0.159201	-460.135374	-460.126981	-460.126037	-460.167622	33.199	
C	-0.0179845265	 1.5277407397	 0.0400415137	-0.517702
C	 0.0196905513	 0.021331089	 0.0698893533	 0.226057
C	 0.4944848182	-0.7439005434	-1.1664102488	-0.142459
O	 0.394791089	-2.1194881798	-0.6917673485	-0.300598
C	-0.123749649	-1.9338237143	 0.6400060552	-0.017179
C	 0.781163642	-0.8088481861	 1.1857232302	 0.135411
O	 2.1651139523	-0.9787443904	 1.116846662	-0.455973
C	-1.2211305067	-0.8537425556	 0.4348440225	 0.082493
O	-1.8581331514	-0.3691931888	 1.5932785206	-0.437833
H	 0.9957142589	 1.9382361007	-0.0217510102	 0.12729
H	-0.5854821709	 1.9015370905	-0.8201366396	 0.11474
H	-0.4893999616	 1.915462888	 0.9472714438	 0.138258
H	-0.1474362837	-0.6058494139	-2.0434365894	 0.105978
H	 1.530553226	-0.515600593	-1.4411676503	 0.104461
H	-0.2788050849	-2.9019292666	 1.1159807517	 0.077302
H	 0.5126113932	-0.4710391887	 2.1847290652	 0.104947
H	 2.3282016965	-1.6107422343	 0.4049549695	 0.292289
H	-1.9291986195	-1.061034546	-0.3783280854	 0.072378
H	-2.4833152032	-1.034974517	 1.8966523945	 0.29014
188.3041	191.4734	207.1877	232.2344	278.9942	295.5562	318.561	369.9423	441.677	495.9388	526.7999	615.0935	641.6352	746.4864	818.6212	831.5734	887.2277	930.2801	941.5601	978.6675	994.8947	1012.7036	1095.0583	1129.4683	1141.514	1168.6272	1190.6055	1212.7975	1232.5799	1240.7989	1250.7998	1272.6849	1303.6614	1321.8483	1379.7087	1410.9594	1421.0081	1438.941	1489.7295	1497.7982	1526.8877	3017.1011	3027.2405	3031.5239	3071.3724	3090.7018	3114.2855	3125.4608	3144.2477	3769.8238	3818.6681
CC12COC(C1O)C2O	C[C@@]12CO[C@@H]([C@H]1O)[C@H]2O	
InChI=1S/C6H10O3/c1-6-2-9-3(4(6)7)5(6)8/h3-5,7-8H,2H2,1H3	InChI=1S/C6H10O3/c1-6-2-9-3(4(6)7)5(6)8/h3-5,7-8H,2H2,1H3/t3-,4-,5-,6+/m1/s1
