13
gdb 9163	6.80656	0.78305	0.72072	3.8154	69.53	-0.2724	-0.0809	0.1915	1481.6875	0.093173	-398.599231	-398.590111	-398.589167	-398.635085	28.857	
C	 0.1064192078	 1.4614860159	-0.0951404164	-0.342078
N	 0.2576046392	 0.0212353131	-0.0044453554	-0.313679
C	 0.2386368764	-0.640290737	 1.1839809498	 0.273569
O	 0.0933219814	-0.1188659348	 2.2742017756	-0.346875
C	 0.4090241949	-2.0851047523	 1.0518425651	 0.008453
C	 0.558627322	-3.283600955	 1.0099606409	 0.092525
C	 0.7013251222	-4.7201801779	 0.9717922313	 0.017933
O	 1.7084141897	-5.2909242648	 0.6259068324	-0.217034
H	 1.0153468289	 1.9316034086	-0.4858410988	 0.137703
H	-0.7353428913	 1.7258857791	-0.7431979277	 0.135703
H	-0.0826059654	 1.8360299571	 0.9110088901	 0.178294
H	 0.419794233	-0.5142552043	-0.842112579	 0.262461
H	-0.2051842287	-5.2719196176	 1.2904893221	 0.113025
30.9617	68.9739	77.4739	94.5529	158.4816	245.714	295.8871	325.179	410.6003	488.1502	586.9637	682.2561	757.8671	842.1915	993.0113	1018.7583	1121.934	1150.8536	1173.8503	1255.0451	1418.4851	1442.0008	1489.9134	1497.8829	1561.0518	1762.0473	1770.8111	2315.0335	2933.2354	3035.364	3091.3806	3160.6778	3641.4654
CNC(=O)C#CC=O	CNC(=O)C#CC=O	
InChI=1S/C5H5NO2/c1-6-5(8)3-2-4-7/h4H,1H3,(H,6,8)	InChI=1S/C5H5NO2/c1-6-5(8)3-2-4-7/h4H,1H3,(H,6,8)
