18
gdb 52273	3.36914	0.98517	0.8034	4.5426	75.18	-0.2518	-0.0336	0.2182	1406.9146	0.146393	-439.085743	-439.076603	-439.075659	-439.120978	32.227	
N	-0.5805532612	 1.2392356859	 0.0223859928	-0.44183
C	-0.6536994097	 0.0091039613	 0.2947244646	 0.107288
O	-0.6676200622	-0.8897632904	-0.7187731831	-0.187027
C	-0.7180746258	-2.2678777488	-0.3656439943	-0.119678
C	-2.1220348196	-2.7398775749	 0.0049374852	-0.093169
C	-2.438190388	-4.2707104921	 0.0525142583	-0.261595
C	-3.2290127408	-4.0733068543	 1.3820087048	-0.325164
C	-2.5664503262	-2.6941572306	 1.4811260718	 0.386002
O	-2.3144133842	-1.9566399133	 2.3917524544	-0.296351
H	-0.5819820203	 1.7788255003	 0.885906974	 0.229302
H	-0.7246833844	-0.4429030398	 1.2900555214	 0.120707
H	-0.3778113069	-2.8025353093	-1.2570349032	 0.12836
H	-0.0112495702	-2.4841964406	 0.4467138064	 0.114279
H	-2.8498702636	-2.2145213194	-0.6240365654	 0.125645
H	-2.9941446745	-4.671601321	-0.7949099009	 0.120188
H	-1.5353842526	-4.8689105013	 0.2018524142	 0.119651
H	-4.3085892587	-3.9872387406	 1.2220355457	 0.139361
H	-3.049225351	-4.7604330911	 2.2115071332	 0.134033
48.7387	72.898	103.7049	122.4426	182.4563	247.1857	321.9404	366.8665	448.4428	546.0931	640.1752	697.2658	735.0933	756.9568	827.8377	893.4955	928.4286	951.6797	971.9298	1036.2507	1050.852	1067.7528	1095.3271	1132.5002	1145.7197	1196.9835	1221.9797	1232.6092	1253.8067	1263.4123	1305.0681	1352.1249	1402.1419	1435.6062	1444.271	1492.5847	1495.5436	1742.2653	1877.0553	3017.9392	3055.7767	3063.0906	3072.9449	3074.6981	3092.2462	3121.602	3139.6399	3513.8149
N=COCC1CCC1=O	[NH][CH]OC[C@H]1CCC1=O	
InChI=1S/C6H9NO2/c7-4-9-3-5-1-2-6(5)8/h4-5,7H,1-3H2	InChI=1S/C6H9NO2/c7-4-9-3-5-1-2-6(5)8/h4-5,7H,1-3H2/t5-/m1/s1
