15
gdb 25232	3.2431	1.64554	1.10117	5.8828	74.86	-0.1952	-0.0055	0.1897	1022.3442	0.116251	-416.862452	-416.855584	-416.85464	-416.893608	27.211	
O	-0.109710172	-0.0446237148	-0.0166232091	-0.357331
C	-0.0006401182	 1.1627722433	-0.0058506813	 0.261278
C	-1.2253369118	 2.1401663247	 0.0024059481	-0.286253
N	-0.6785556509	 3.5149151205	-0.1196213651	-0.422479
C	 0.6911739722	 3.3404141549	-0.0228736069	 0.388161
C	 1.1539982772	 2.0368116233	-0.0126162308	 0.170272
C	 2.5865528526	 2.1026868373	-0.0062847559	-0.3273
C	 2.9173472861	 3.4285126968	-0.0030139612	-0.067559
N	 1.7382155431	 4.1950407201	-0.01656068	-0.383942
H	-1.8920248618	 1.9089721995	-0.8329656352	 0.141674
H	-1.7860375128	 2.0113414168	 0.9340557846	 0.133789
H	-1.0925116975	 4.1980238548	 0.5023628018	 0.241797
H	 3.2804125855	 1.277366539	 0.0022461213	 0.116361
H	 3.8759317542	 3.9212709349	 0.0105962696	 0.126092
H	 1.6979804939	 5.198802199	-0.0541259699	 0.265439
143.4359	186.7363	282.5931	308.5398	442.9516	535.5081	548.6765	584.7407	608.6859	621.216	659.1235	679.5438	748.0329	782.5883	843.1071	922.1644	966.1831	1013.5748	1034.3409	1065.3024	1077.508	1161.1708	1192.3747	1275.6699	1285.4286	1318.5332	1394.6947	1440.6768	1473.97	1531.9348	1559.0924	1616.7319	1802.7727	3054.9643	3103.5127	3257.4968	3276.7979	3551.3469	3676.5408
O=C1CNC2=C1C=CN2	O=C1CNc2c1cc[nH]2	
InChI=1S/C6H6N2O/c9-5-3-8-6-4(5)1-2-7-6/h1-2,7-8H,3H2	InChI=1S/C6H6N2O/c9-5-3-8-6-4(5)1-2-7-6/h1-2,7-8H,3H2
