17
gdb 37697	3.49407	2.01238	1.52459	1.8214	75.59	-0.2276	0.0099	0.2375	863.1716	0.138148	-384.601623	-384.595699	-384.594755	-384.631457	25.922	
C	-0.0402006488	 1.4396052989	-0.0083881857	-0.414611
C	 1.4254904897	 1.8591442632	 0.013369925	-0.078113
C	 2.4148281486	 0.9574029261	 0.0468094086	-0.05518
C	 2.1133666752	-0.5269956167	 0.0644593386	-0.123097
C	 0.9572080637	-0.8679006086	-0.9126817873	-0.102361
C	 0.2045840488	-1.8242169414	 0.0480016557	 0.00707
O	-1.0563787096	-1.0419834844	 0.0111862219	-0.387025
C	 0.0036504786	-0.0540583814	 0.0160912477	 0.50263
C	 0.9200217817	-0.8375299724	 1.0063795091	-0.102359
H	-0.5785170739	 1.84815524	 0.8567682457	 0.122462
H	-0.5443659919	 1.8202721355	-0.9062202842	 0.122462
H	 1.6389272964	 2.9236075339	 0.0006575705	 0.09535
H	 3.4507047293	 1.2825026977	 0.061734542	 0.09067
H	 2.9934980816	-1.1713132222	 0.091710264	 0.065046
H	 0.9486663326	-0.8674197374	-2.0028187123	 0.081738
H	 0.1200958994	-2.9097736926	 0.0635428876	 0.093581
H	 0.8692605886	-0.8025693282	 2.094806313	 0.081738
246.3216	312.1312	406.6564	469.522	523.456	554.9397	620.545	709.1018	746.5322	769.559	775.729	848.984	858.1929	897.1991	905.0533	915.3823	933.1867	979.665	986.4516	989.5075	1054.2423	1066.8158	1080.2338	1107.7241	1143.4002	1157.2497	1185.4385	1186.7027	1223.9583	1233.9129	1256.2266	1326.3266	1340.1216	1381.9031	1405.4305	1480.554	1678.5482	3019.1354	3050.0956	3093.333	3116.7135	3117.1822	3136.6912	3163.7264	3186.0782
C1C=CC2C3C4OC13C24	C1C=C[C@@H]2[C@H]3[C@@H]4O[C@]13[C@H]24	
InChI=1S/C8H8O/c1-2-4-5-7-6(4)8(5,3-1)9-7/h1-2,4-7H,3H2	InChI=1S/C8H8O/c1-2-4-5-7-6(4)8(5,3-1)9-7/h1-2,4-7H,3H2/t4-,5+,6-,7+,8-
