17
gdb 98494	2.3459	1.4223	0.95649	0.9243	75.77	-0.2654	0.008	0.2734	1225.979	0.135599	-418.04893	-418.039548	-418.038604	-418.083861	33.153	
C	-0.0531570203	 1.4510921883	-0.2592107629	-0.342103
N	-0.1589445236	 0.0072354873	-0.3558029426	-0.357732
C	-1.2124599115	-0.6783391742	 0.1478999581	 0.415557
O	-2.159178083	-0.1654064288	 0.7214060902	-0.393463
C	-1.1673525211	-2.1867950794	-0.038259044	 0.054826
C	-1.8193432468	-3.0045303058	 1.0817256366	-0.276068
C	-2.5296356493	-2.8657814739	-0.2150612284	-0.276065
C	-0.0347819074	-2.7471980217	-0.7186157332	 0.22525
N	 0.9001500086	-3.1466252208	-1.2734319122	-0.364579
H	 0.8411785486	 1.7432951569	 0.3011669691	 0.134117
H	-0.0108734311	 1.909727644	-1.252748589	 0.134118
H	-0.9381639714	 1.812517582	 0.2647493083	 0.173633
H	 0.5780507291	-0.5054120262	-0.8144552206	 0.270345
H	-1.352153156	-3.9503475571	 1.3270610972	 0.142231
H	-2.1722789286	-2.4080477216	 1.9138790352	 0.158855
H	-3.3629898731	-2.1756111963	-0.2598859892	 0.158849
H	-2.5654488031	-3.7133441027	-0.8884036527	 0.142228
55.2276	71.8149	134.9915	137.0536	221.9811	229.4139	291.513	322.6024	411.4273	504.7521	511.6591	574.9194	581.3353	753.4942	782.7021	794.3929	869.9586	900.7347	974.9908	986.3732	1070.4459	1080.0132	1109.0549	1154.7015	1174.0265	1209.167	1233.0888	1298.2419	1310.0127	1440.8035	1444.8008	1474.8242	1496.3518	1499.0165	1579.2881	1773.073	2338.5962	3035.106	3089.8323	3152.8969	3153.7486	3159.0587	3246.9775	3259.9474	3626.6311
CNC(=O)C1(CC1)C#N	CNC(=O)C1(CC1)C#N	
InChI=1S/C6H8N2O/c1-8-5(9)6(4-7)2-3-6/h2-3H2,1H3,(H,8,9)	InChI=1S/C6H8N2O/c1-8-5(9)6(4-7)2-3-6/h2-3H2,1H3,(H,8,9)
