15
gdb 128669	6.80088	0.91839	0.81749	0.804	64.39	-0.2305	0.0303	0.2608	1365.7678	0.112162	-491.079315	-491.070723	-491.069779	-491.113126	29.385	
C	-0.0310421281	 1.3020693064	 0.0401303549	-0.241915
O	 0.0414888962	-0.1286808368	-0.0607184831	-0.251398
C	 0.6550990258	-0.5659514994	-1.1421721161	 0.499004
N	 1.197040679	 0.0771954025	-2.1170262412	-0.349531
N	 1.6989385661	-0.9235165587	-2.9894287804	-0.349531
C	 1.3957178197	-2.0424346352	-2.4292870004	 0.499004
O	 1.6238945198	-3.2832867128	-2.8107137494	-0.251398
C	 2.3272371269	-3.3986507939	-4.0575004263	-0.241915
O	 0.7298456954	-1.9204979872	-1.2488198866	-0.209687
H	 0.9738002286	 1.731947135	 0.0633365553	 0.152346
H	-0.5769990174	 1.7150573891	-0.8121533458	 0.152408
H	-0.559012673	 1.5019949273	 0.9715893165	 0.143931
H	 1.7525880357	-2.9315369848	-4.8616269608	 0.152358
H	 3.3043729166	-2.9134870563	-3.9879089654	 0.152396
H	 2.4377241425	-4.4681307628	-4.231695778	 0.143931
79.4753	114.8838	149.7721	151.5132	174.3011	268.7993	269.7983	389.7335	403.7066	617.7437	684.0068	702.4709	756.8561	758.4947	973.4457	981.4086	1056.7436	1085.8175	1088.5156	1183.6948	1183.8317	1219.8523	1224.644	1319.0185	1439.446	1466.0261	1478.694	1478.7473	1487.3959	1498.6264	1503.4009	1630.5615	1719.9938	3050.6396	3051.1278	3126.8144	3126.8718	3168.2888	3168.3935
COC1=NN=C(OC)O1	COc1nnc(OC)o1	
InChI=1S/C4H6N2O3/c1-7-3-5-6-4(8-2)9-3/h1-2H3	InChI=1S/C4H6N2O3/c1-7-3-5-6-4(8-2)9-3/h1-2H3
