23
gdb 116315	2.89812	1.21489	0.95054	1.4462	85.23	-0.237	0.082	0.319	1322.0887	0.207256	-388.286846	-388.27802	-388.277076	-388.320337	34.552	
C	 0.0932167611	 1.5695058695	 0.0550323885	-0.390078
C	 0.015863097	 0.0414822241	-0.0259597527	-0.174449
C	-1.4145080263	-0.5245189057	-0.0455903849	 0.015483
C	-2.2426364979	-0.0685270052	-1.2627288537	-0.224248
C	-3.5247885125	-0.8896857832	-1.3733239663	-0.072751
O	-3.2413724086	-2.2559412072	-1.6391609015	-0.25788
C	-2.4116702411	-2.8710313315	-0.6938934538	 0.088337
C	-0.9444089877	-2.9691277136	-1.0222691659	-0.309032
C	-1.4185257885	-2.0442376576	 0.0825948397	-0.054785
H	 1.1325425695	 1.9050404657	 0.1256445629	 0.112438
H	-0.3459866826	 2.0477607376	-0.82600841	 0.118137
H	-0.4371547529	 1.9474273764	 0.9367606492	 0.111727
H	 0.54871999	-0.309880675	-0.9188744148	 0.096105
H	 0.5474691976	-0.3912136127	 0.8314425968	 0.09137
H	-1.9345596151	-0.1417290196	 0.8462325855	 0.067595
H	-2.4916282742	 0.9943027176	-1.1747909644	 0.097977
H	-1.6688478228	-0.1892116212	-2.1907740975	 0.101075
H	-4.119551178	-0.7878954135	-0.4501126879	 0.084017
H	-4.1429402042	-0.5514910813	-2.2099972208	 0.103813
H	-2.8960242893	-3.7099791022	-0.1984690592	 0.087092
H	-0.396161173	-3.863173867	-0.7455606258	 0.106825
H	-0.6480711592	-2.5311430874	-1.96934948	 0.116639
H	-1.2093988911	-2.3959184372	 1.0897239465	 0.084594
84.8194	104.2897	166.2479	225.1783	265.1689	283.4227	352.4087	413.3425	420.5633	495.2376	557.724	655.1554	738.2635	769.7186	805.0063	833.1361	867.9692	920.0928	951.3676	957.3035	1003.1899	1027.1116	1040.4688	1050.4823	1057.9058	1083.5806	1101.0284	1124.9201	1150.7557	1184.1363	1196.0071	1230.5844	1244.4443	1278.9064	1300.6803	1328.8294	1343.9358	1363.3603	1370.8486	1389.2473	1408.4378	1412.3805	1418.742	1474.9039	1483.8668	1487.1973	1500.406	1504.2015	1508.2447	2966.0653	2979.3751	3017.9528	3026.8814	3031.2584	3050.9964	3077.3951	3084.2705	3096.9643	3105.6005	3117.4802	3130.2589	3135.8104	3219.3167
CCC1CCOC2CC12	CC[C@H]1CCO[C@H]2C[C@@H]12	
InChI=1S/C8H14O/c1-2-6-3-4-9-8-5-7(6)8/h6-8H,2-5H2,1H3	InChI=1S/C8H14O/c1-2-6-3-4-9-8-5-7(6)8/h6-8H,2-5H2,1H3/t6-,7-,8-/m0/s1
