22
gdb 99774	1.82527	1.45515	1.02657	1.2443	77.26	-0.2472	0.0584	0.3056	1278.0402	0.194066	-441.444178	-441.434068	-441.433124	-441.479347	37.733	
C	 0.0981054225	 1.4450636242	 0.1127039437	-0.428638
C	-0.087374278	-0.0612412547	-0.0490844146	 0.137784
O	 0.61687927	-0.7844460165	 0.9704106455	-0.45719
C	-1.5615842072	-0.5286948079	-0.1348408302	-0.0621
C	-1.62894512	-2.071316752	-0.2716463273	-0.085845
O	-0.5686464933	-2.623776697	-1.0287266775	-0.427067
C	-2.3908170496	 0.0095205582	 1.0235475455	 0.012656
C	-3.4739124457	-0.7365252806	 1.7095973784	-0.262121
N	-2.2011159255	-0.4720423642	 2.4115724502	-0.333776
H	 1.1622398954	 1.6934910838	 0.073910826	 0.126137
H	-0.4121958274	 1.9933199812	-0.6860016473	 0.119864
H	-0.297649337	 1.800177083	 1.0704787713	 0.127318
H	 0.3934519466	-0.3739309542	-0.9802326824	 0.100408
H	 0.3676344575	-0.4083218382	 1.8220982464	 0.292251
H	-1.9685831273	-0.0892167105	-1.0559062038	 0.082098
H	-1.6632036242	-2.539544327	 0.7227394088	 0.082162
H	-2.5525536294	-2.3509565572	-0.7870824424	 0.11421
H	 0.2185854649	-2.5650645603	-0.474508074	 0.297295
H	-2.5153261618	 1.0897901915	 0.9930237222	 0.097065
H	-4.3315564066	-0.1966337941	 2.1004245171	 0.119535
H	-3.6887627378	-1.7554423082	 1.4025031741	 0.119638
H	-1.6469667063	-1.3257768493	 2.3972391104	 0.228315
71.1565	77.0692	110.8241	187.4808	205.7081	247.9614	259.6565	322.7322	345.3003	381.5918	426.3809	500.8552	531.4504	554.4842	665.1849	713.8212	820.4213	842.5311	905.3557	951.0731	974.352	976.9036	990.356	1038.2187	1071.322	1082.351	1097.5043	1124.072	1140.7742	1171.0641	1193.8837	1233.43	1271.8961	1287.8428	1308.7451	1316.9496	1342.7737	1371.4936	1407.2474	1417.7153	1425.7081	1429.3021	1442.2174	1490.2326	1497.7367	1501.6808	1516.3744	2992.2735	3013.248	3034.8272	3070.3141	3080.4914	3105.062	3116.0574	3118.2308	3126.267	3202.025	3488.629	3793.8443	3800.5727
CC(O)C(CO)C1CN1	C[C@@H](O)[C@@H](CO)[C@H]1CN1	
InChI=1S/C6H13NO2/c1-4(9)5(3-8)6-2-7-6/h4-9H,2-3H2,1H3	InChI=1S/C6H13NO2/c1-4(9)5(3-8)6-2-7-6/h4-9H,2-3H2,1H3/t4-,5-,6-/m1/s1
