23
gdb 118772	2.86386	0.93391	0.81115	2.3207	82.83	-0.2474	0.0733	0.3207	1517.6785	0.202278	-425.409996	-425.398808	-425.397863	-425.446103	41.182	
C	-0.0319880293	 1.4675636073	-0.24076732	-0.443982
C	 0.047904763	-0.0153873869	 0.0534484702	 0.347847
O	-1.0977722339	-0.7056872604	-0.3881155984	-0.456816
C	 1.3649594047	-0.75531033	-0.0197058432	-0.395598
C	 0.6640586904	-0.5677763971	 1.3235570055	 0.292653
C	 1.2797543713	 0.3959633302	 2.3255547508	-0.464556
C	 0.01095047	-1.7913626492	 1.955025083	-0.241277
C	 1.0052939183	-2.787112103	 2.5462400146	-0.073406
O	 0.2564641244	-3.8843362153	 3.0525743859	-0.420456
H	 0.8610336005	 2.0095220849	 0.0765563863	 0.116913
H	-0.1414328072	 1.6272538368	-1.3209302135	 0.105423
H	-0.9035360301	 1.9118731988	 0.2508493215	 0.125994
H	-1.0844248025	-0.7067882891	-1.3514709292	 0.279627
H	 1.3438781469	-1.7465044318	-0.4616666075	 0.107845
H	 2.2727654931	-0.1919989008	-0.2144688223	 0.10131
H	 1.8022633067	 1.2252784414	 1.8435600489	 0.111989
H	 0.5128019303	 0.8198788994	 2.9842686101	 0.118811
H	 2.0111425649	-0.1154346376	 2.9601298278	 0.117995
H	-0.6745963128	-1.4733559635	 2.7507585107	 0.098322
H	-0.5952942927	-2.3141256942	 1.2132586892	 0.125874
H	 1.7111448298	-3.1127545491	 1.7650971642	 0.082997
H	 1.6003090224	-2.3191398948	 3.346083514	 0.079867
H	 0.8716470219	-4.5112180861	 3.4436313614	 0.282625
62.7984	85.9238	121.6574	159.8842	187.3483	206.5525	259.2743	268.4167	285.1892	306.8193	347.8752	379.7385	400.6439	456.3794	479.515	551.977	704.545	738.8533	800.1837	882.008	910.3465	944.4563	968.596	1002.4764	1015.3676	1037.4429	1048.8726	1070.1217	1085.6441	1114.8727	1188.8045	1214.4925	1235.605	1247.7635	1295.1675	1300.4002	1333.35	1350.4388	1400.6587	1414.0889	1424.5942	1459.8606	1477.324	1481.7546	1488.6862	1501.3095	1504.029	1515.652	1530.1756	2965.9443	2991.1689	3025.3956	3031.5178	3037.5431	3086.4177	3089.5421	3114.1061	3116.9359	3121.4799	3131.1719	3205.9118	3794.8626	3830.061
CC1(O)CC1(C)CCO	C[C@@]1(O)C[C@]1(C)CCO	
InChI=1S/C7H14O2/c1-6(3-4-8)5-7(6,2)9/h8-9H,3-5H2,1-2H3	InChI=1S/C7H14O2/c1-6(3-4-8)5-7(6,2)9/h8-9H,3-5H2,1-2H3/t6-,7+/m0/s1
