21
gdb 86467	1.6164	1.6161	0.85545	1.9842	74.65	-0.2633	0.0708	0.3341	1341.922	0.182626	-461.373852	-461.364519	-461.363575	-461.407374	36.324	
O	-0.0702592892	 1.4371878488	 0.0429992769	-0.439077
C	 0.017452918	 0.0183485875	 0.0177851904	 0.109766
C	 0.7728620459	-0.5346806034	 1.2317605701	-0.216292
C	 0.757690684	-2.0631998697	 1.2544960349	 0.109921
O	 1.4415366617	-2.4698246243	 2.4327522583	-0.439077
C	-0.6811187718	-2.5908133235	 1.2110529756	-0.216167
C	-1.4412092496	-2.0511569888	-0.0002214061	 0.109613
O	-2.7659767203	-2.5613520792	 0.0777405009	-0.439023
C	-1.4134030971	-0.5181830702	-0.0186826956	-0.216077
H	 0.8238019978	 1.7884169063	 0.1070670821	 0.2799
H	 0.5377965332	-0.3073706704	-0.9005064552	 0.062161
H	 1.811563171	-0.1824043576	 1.2321842554	 0.090549
H	 0.3005539109	-0.1598092284	 2.1476036908	 0.112856
H	 1.2965798413	-2.4327187724	 0.3638782545	 0.062121
H	 1.4040472859	-3.4306243579	 2.4801323246	 0.279907
H	-0.6883492372	-3.6872842927	 1.1844817752	 0.09053
H	-1.2023029332	-2.2828099013	 2.1252971725	 0.112879
H	-0.9508591426	-2.4242647186	-0.9169867609	 0.062159
H	-3.2679633581	-2.1965320146	-0.6582710479	 0.279915
H	-1.9581301361	-0.1402950894	 0.8547346821	 0.112869
H	-1.9217925645	-0.1344446303	-0.9115882285	 0.090568
145.6067	151.4595	168.2138	265.832	267.1061	286.5916	299.6319	301.6202	399.9574	402.9068	455.6978	465.8547	513.7982	516.638	523.4954	868.3486	869.4716	924.9853	933.159	934.4824	1051.1124	1052.11	1052.3076	1077.7101	1088.1711	1089.0582	1141.0517	1153.9583	1234.7261	1235.6989	1238.8884	1284.0141	1284.8602	1297.0799	1317.0326	1318.1495	1383.162	1398.6514	1399.147	1423.3603	1446.1035	1446.4852	1486.1482	1487.7267	1509.0174	2932.8548	2933.4201	2947.7849	3027.7064	3027.9336	3032.8752	3073.9426	3074.2297	3082.1478	3813.0059	3813.2541	3813.7347
OC1CC(O)CC(O)C1	O[C@H]1C[C@@H](O)C[C@@H](O)C1	
InChI=1S/C6H12O3/c7-4-1-5(8)3-6(9)2-4/h4-9H,1-3H2	InChI=1S/C6H12O3/c7-4-1-5(8)3-6(9)2-4/h4-9H,1-3H2/t4-,5+,6-
