15
gdb 43486	2.38579	1.97923	1.20556	3.4901	66.78	-0.2536	-0.0173	0.2363	984.0263	0.114978	-453.967595	-453.960599	-453.959655	-453.999337	26.678	
N	-0.2115408637	 1.3219035221	-0.4153535593	-0.525549
C	-0.0995982291	 0.0968563779	-0.1657420427	 0.452048
O	 1.1027047822	-0.5994882289	-0.1650490567	-0.221444
C	 0.911055277	-1.9667202739	-0.0280587587	 0.44062
O	 1.8297096024	-2.7233914724	 0.0115079979	-0.316946
C	-0.5776551692	-2.2642163123	 0.0399418528	-0.195891
C	-1.097641542	-2.5607493289	 1.4703110756	-0.174085
N	-1.3055756953	-1.104175874	 1.6505882136	-0.310205
C	-1.2059143381	-0.8652708894	 0.1860862032	-0.09122
H	 0.6982780402	 1.7487234468	-0.6001416733	 0.237928
H	-0.874838872	-2.9359641283	-0.7637071911	 0.124511
H	-2.0184166951	-3.1569670354	 1.4435326445	 0.10931
H	-0.3944146721	-3.0164967291	 2.1730476622	 0.132568
H	-2.1760792164	-0.8177562593	 2.0809287093	 0.235135
H	-2.1369392387	-0.6431167448	-0.3391275173	 0.103221
104.4513	137.7204	245.3879	258.1161	369.0518	495.2806	606.8033	624.8342	655.5216	699.3773	711.647	813.2972	852.724	915.9849	926.0493	941.7751	974.2987	1012.397	1025.2228	1062.8927	1097.9396	1130.715	1146.3165	1191.6508	1227.8543	1277.095	1306.8016	1324.5314	1344.8747	1386.1193	1522.4152	1796.9449	1913.1949	3020.7598	3087.5902	3094.0426	3135.0133	3473.7778	3559.0041
N=C1OC(=O)C2CNC12	[NH][C]1OC(=O)[C@H]2CN[C@@H]12	
InChI=1S/C5H6N2O2/c6-4-3-2(1-7-3)5(8)9-4/h2-3,6-7H,1H2	InChI=1S/C5H6N2O2/c6-4-3-2(1-7-3)5(8)9-4/h2-3,6-7H,1H2/t2-,3+/m0/s1
