24
gdb 119265	1.77297	1.11189	0.76745	0.8327	86.61	-0.2401	0.0751	0.3152	1621.0929	0.215816	-405.5168	-405.505848	-405.504904	-405.554043	39.035	
C	 0.3297475848	 1.9213098629	-1.5348231247	-0.380173
C	 0.5533686862	 0.5733347664	-0.8438766553	-0.168127
C	 0.5559569433	-0.6013870772	-1.8337438964	-0.263983
C	 0.8393989891	-1.9546056847	-1.2043821371	 0.31158
C	-0.1953304438	-2.4692694069	-0.2259504448	-0.099939
O	-1.4382304132	-2.5652901151	-0.8920693488	-0.238378
C	-2.4751609158	-3.0107417706	-0.0527394077	-0.22153
C	 1.6286721018	-2.9501954872	-1.9722912593	-0.28116
N	 2.216739788	-2.2872613263	-0.7908969274	-0.361032
H	 1.115152068	 2.1249434794	-2.271580299	 0.111674
H	-0.6296365038	 1.9390892279	-2.0637358956	 0.116782
H	 0.3283451158	 2.7445808316	-0.8137854495	 0.111625
H	 1.5040134776	 0.5936388672	-0.2951042296	 0.095539
H	-0.2289514474	 0.4188752552	-0.0915332224	 0.104226
H	-0.4152724471	-0.6515933062	-2.3399383107	 0.118922
H	 1.3062570465	-0.4122370991	-2.6134369542	 0.0823
H	 0.124785617	-3.4488971516	 0.1612074926	 0.093363
H	-0.2768903452	-1.7923186878	 0.6413935574	 0.087215
H	-2.2725757834	-4.0161704793	 0.3494865175	 0.104135
H	-2.6346755501	-2.3297970969	 0.7988950756	 0.102358
H	-3.3892618605	-3.0479790146	-0.65058102	 0.125315
H	 1.4342549024	-4.0123273426	-1.8498240309	 0.114976
H	 1.9845531122	-2.6674853912	-2.9595432217	 0.108016
H	 2.8500519778	-1.5504068332	-1.0935748881	 0.226296
35.935	70.6257	89.1771	111.9177	168.7622	182.9407	229.0364	246.8041	311.6252	323.0398	367.7932	417.6537	440.0169	540.8456	739.0702	768.618	840.6733	884.7016	904.1229	923.0017	954.8648	980.5997	1001.7358	1040.3705	1051.7472	1074.2235	1114.3423	1123.1579	1145.7332	1164.389	1184.2162	1227.221	1233.6358	1256.4898	1262.3096	1305.4139	1319.104	1358.4369	1374.3027	1403.1667	1413.9942	1437.1053	1473.4254	1482.9612	1485.5908	1490.9351	1500.4344	1504.0817	1509.0448	1513.9344	1526.9156	2956.6913	2969.9849	3001.2954	3010.8368	3012.6327	3021.8816	3029.0682	3051.7472	3071.5437	3096.559	3102.5578	3106.454	3111.3583	3190.5089	3489.093
CCCC1(COC)CN1	CCC[C@@]1(COC)CN1	
InChI=1S/C7H15NO/c1-3-4-7(5-8-7)6-9-2/h8H,3-6H2,1-2H3	InChI=1S/C7H15NO/c1-3-4-7(5-8-7)6-9-2/h8H,3-6H2,1-2H3/t7-/m0/s1
