16
gdb 133882	3.65648	2.14237	1.90439	1.2976	69.52	-0.2393	0.0608	0.3002	762.6354	0.127495	-400.629713	-400.624444	-400.6235	-400.658942	23.697	
C	 0.7295695565	-0.5677007277	-1.4352392147	-0.263379
N	 1.3814421352	 0.6959240999	-0.9596524438	-0.147911
C	 1.2959827707	 0.7510146376	 0.548213524	-0.073215
C	 0.3443882116	 1.5480118744	-0.2650564893	-0.073214
C	-0.9295348736	 0.7480796599	-0.1433132204	-0.071842
C	-1.0882166898	-0.0913621569	 1.1585212308	-0.012281
O	-1.4218312068	-1.3175987972	 0.3471813298	-0.395838
C	-0.2923104883	-0.6517136302	-0.321893527	 0.38661
C	 0.43318235	-0.3932468661	 1.0213219675	-0.071842
H	 1.4658986269	-1.3740118708	-1.4502778045	 0.124212
H	 0.3155210621	-0.4105272874	-2.4334400466	 0.124211
H	 2.1543505386	 1.1554529756	 1.0685338587	 0.100257
H	 0.4096872999	 2.6166743167	-0.4225217593	 0.100257
H	-1.8178439842	 0.9870616601	-0.7233885769	 0.088003
H	-1.7160548826	 0.0564419918	 2.0379885413	 0.097971
H	 0.8477499238	-1.2454761498	 1.5547372104	 0.088003
388.7314	414.4912	475.5419	508.6855	639.4194	702.3299	732.7252	744.4865	756.5498	775.2884	795.9436	830.1466	880.5902	921.2992	951.1044	966.458	967.4809	990.5595	1013.6576	1024.9313	1056.4348	1088.9717	1112.8536	1135.478	1178.9642	1185.3193	1206.7505	1207.9506	1252.2263	1265.0536	1272.8901	1306.4778	1316.6302	1385.7754	1491.0324	3074.7395	3109.9598	3133.9017	3151.0751	3153.4139	3193.8111	3203.8004
C1N2C3C2C2C4OC12C34	C1N2[C@H]3[C@@H]2[C@@H]2[C@H]4O[C@@]12[C@@H]34	
InChI=1S/C7H7NO/c1-7-2-4-5(8(1)4)3(7)6(2)9-7/h2-6H,1H2	InChI=1S/C7H7NO/c1-7-2-4-5(8(1)4)3(7)6(2)9-7/h2-6H,1H2/t2-,3+,4+,5-,6-,7+,8?
