18
gdb 23462	3.12164	1.34569	1.0326	0.7545	81.42	-0.2253	0.0116	0.2368	1155.2528	0.148887	-401.913982	-401.90619	-401.905246	-401.946286	30.91	
O	-0.0222511445	 1.3250348128	-0.2110931071	-0.400341
N	 0.0310084864	-0.0817832498	-0.194921039	-0.216529
C	-1.1119198029	-0.601653746	 0.0578825695	 0.390564
C	-2.3611877739	 0.196973935	 0.3530106891	-0.366188
C	-3.3822545016	-0.5471521561	 1.1734087209	-0.080068
C	-3.3367293564	-1.8571023419	 1.4147662334	-0.057821
C	-2.292596602	-2.7452988593	 0.8508253571	-0.08143
C	-2.2006691053	-2.8698039146	-0.65614834	-0.295109
C	-1.1509892135	-2.081328442	 0.1003935717	-0.09229
H	 0.9001426916	 1.556126279	-0.3604881027	 0.304882
H	-2.0644100007	 1.1240717996	 0.8547962593	 0.144259
H	-2.8075372705	 0.5325972983	-0.5961891592	 0.133684
H	-4.1947063875	 0.050033436	 1.5782675423	 0.091301
H	-4.1066432294	-2.3242829449	 2.0228107807	 0.089382
H	-2.0513545931	-3.6315702539	 1.4286242352	 0.092189
H	-1.8882178196	-3.8169866385	-1.0821308755	 0.119038
H	-2.9367278568	-2.3287408337	-1.2401651268	 0.122797
H	-0.1706711902	-2.53841629	 0.1664911612	 0.101679
73.4962	171.2181	249.8524	271.2529	349.1317	400.2845	417.2316	496.2526	520.0254	563.5578	607.8272	723.1135	746.0789	786.6887	824.7692	867.5222	929.7646	950.3754	966.0805	988.6147	996.7802	1010.5004	1039.571	1064.5118	1111.6245	1126.2793	1192.0604	1204.4188	1211.8847	1279.9833	1333.8743	1354.0191	1385.0404	1422.2969	1433.8386	1459.4696	1481.1124	1712.1521	1723.1045	2992.2704	3065.9544	3133.1398	3150.4169	3159.5417	3176.0349	3181.4246	3225.1012	3824.3928
ON=C1CC=CC2CC12	ON=C1CC=C[C@H]2C[C@@H]12	
InChI=1S/C7H9NO/c9-8-7-3-1-2-5-4-6(5)7/h1-2,5-6,9H,3-4H2	InChI=1S/C7H9NO/c9-8-7-3-1-2-5-4-6(5)7/h1-2,5-6,9H,3-4H2/t5-,6+/m0/s1
