20
gdb 119021	1.88733	1.30043	0.89296	4.5601	79.87	-0.2656	0.032	0.2976	1378.44	0.168881	-403.145478	-403.135559	-403.134614	-403.181358	35.683	
C	-0.4268036885	 1.107544265	 2.889379283	-0.385074
C	-0.3042812709	-0.3901511103	 2.6688256516	-0.060007
O	 0.5893939936	-0.599597044	 1.5796078039	-0.286001
C	 0.9420543927	-1.9239645468	 1.3341730664	 0.454646
C	-0.1698159839	-2.7941338669	 0.7515549381	-0.420728
C	-0.6944522233	-2.2685010487	-0.5100553496	 0.275803
N	-1.1119384925	-1.8593467669	-1.5063713629	-0.307416
C	 2.3444927969	-2.1140143772	 0.8489699139	-0.306556
C	 1.9597961444	-2.56921591	 2.2441214994	-0.335061
H	-0.8012705978	 1.5963986127	 1.98598671	 0.138044
H	-1.1195187226	 1.3147428195	 3.710341631	 0.117354
H	 0.5464909531	 1.5409585559	 3.1359170124	 0.126584
H	 0.0793325704	-0.8914794993	 3.5699976399	 0.091695
H	-1.2920330115	-0.8210476464	 2.4463081488	 0.095919
H	 0.2082073834	-3.8070377006	 0.5797433123	 0.151575
H	-1.0002113841	-2.8885842719	 1.460770872	 0.150721
H	 2.5340007073	-2.8636585679	 0.0887161749	 0.121346
H	 2.9447282977	-1.2161885455	 0.7654543846	 0.13468
H	 2.316337788	-1.9713533859	 3.0748674632	 0.126733
H	 1.8910458276	-3.6327220749	 2.447101437	 0.115744
43.4216	52.608	121.9455	140.2136	192.3094	249.9386	295.5233	320.0569	379.9967	396.9072	409.7386	475.086	581.1173	755.1466	777.153	822.1387	865.1209	888.9823	903.1378	957.7596	974.6692	997.7013	1017.9981	1053.6398	1083.6866	1094.0161	1145.5061	1185.8885	1187.3121	1201.9973	1286.8027	1299.3143	1326.2552	1360.1408	1401.6482	1427.0177	1454.0392	1463.1013	1483.7167	1498.0365	1499.5288	1524.8859	2365.3148	2983.165	3015.4093	3047.0736	3047.9564	3088.3516	3121.6774	3126.5846	3135.5947	3143.8615	3221.9237	3238.2094
CCOC1(CC#N)CC1	CCOC1(CC#N)CC1	
InChI=1S/C7H11NO/c1-2-9-7(3-4-7)5-6-8/h2-5H2,1H3	InChI=1S/C7H11NO/c1-2-9-7(3-4-7)5-6-8/h2-5H2,1H3
