20
gdb 55762	4.00927	0.97983	0.92671	3.4756	80.98	-0.2333	0.0326	0.2659	1358.5494	0.170366	-403.156152	-403.14689	-403.145946	-403.191574	33.968	
C	-0.1326373561	 1.5193373905	-0.2400825026	-0.493497
C	-0.1371355559	 0.0320356246	-0.5697781249	 0.380276
O	 0.5528389531	-0.4452339974	-1.4471897837	-0.355911
N	-0.9821501508	-0.7172064124	 0.218869291	-0.425891
C	-1.0602799236	-2.1323101913	 0.1804766457	 0.417375
C	-1.3314003585	-2.8617351875	-1.097692618	-0.272414
C	-2.297008572	-3.036453671	 0.0424851274	-0.129537
C	-1.7104579544	-4.0115259611	 1.0707320385	-0.218899
C	-0.4598698019	-3.0826105745	 1.2282916295	-0.27965
H	 0.642346054	 1.7235195769	 0.5067910396	 0.146871
H	 0.1167583697	 2.0759579314	-1.143947144	 0.151692
H	-1.089434601	 1.8719062621	 0.1558646416	 0.118063
H	-1.4476340023	-0.2461837681	 0.9794431841	 0.238359
H	-1.672762276	-2.2296739695	-1.908839021	 0.125121
H	-0.681113463	-3.6763275395	-1.4075846799	 0.109327
H	-3.3399301074	-2.7562795092	-0.0469387595	 0.086688
H	-2.2954553087	-4.0827225843	 1.9902543875	 0.100812
H	-1.5180062986	-5.0233661343	 0.700662789	 0.101047
H	 0.5205206368	-3.5060375529	 0.9878064892	 0.104566
H	-0.4112677336	-2.6311553328	 2.2230006606	 0.095604
40.1231	46.4974	89.6009	132.4562	237.925	329.1373	368.4016	390.0839	437.5022	487.3767	564.8238	623.9858	697.0808	758.6253	788.3929	840.6267	891.2217	928.1747	955.2149	957.0793	972.0943	1006.0134	1025.5189	1042.9186	1049.3134	1092.7584	1108.3681	1152.0204	1215.036	1220.9062	1233.0836	1254.2426	1275.6952	1299.1989	1388.778	1401.3774	1467.7471	1481.5187	1484.583	1486.6143	1511.7312	1519.7761	1795.7723	3042.998	3044.5695	3054.0116	3091.608	3108.1799	3111.4457	3116.266	3152.0437	3180.9374	3219.8657	3610.8247
CC(=O)NC12CC1CC2	CC(=O)N[C@]12C[C@H]1CC2	
InChI=1S/C7H11NO/c1-5(9)8-7-3-2-6(7)4-7/h6H,2-4H2,1H3,(H,8,9)	InChI=1S/C7H11NO/c1-5(9)8-7-3-2-6(7)4-7/h6H,2-4H2,1H3,(H,8,9)/t6-,7-/m1/s1
