18
gdb 78177	2.33605	1.71305	1.3434	3.0907	73.18	-0.2526	0.015	0.2676	1024.7259	0.14839	-439.090786	-439.082707	-439.081762	-439.123109	31.578	
C	 0.0899589531	 1.564815838	-0.070339114	-0.411267
C	 0.0260237804	 0.0517287995	 0.0683308006	 0.095684
O	 0.6381012208	-0.5724975852	-1.0940923758	-0.278631
C	 1.1945394223	-1.7882500168	-0.7433004594	 0.397294
N	 1.4497878641	-2.7181915275	-1.5562909493	-0.542313
C	 1.4733023559	-1.7875318206	 0.7139927862	-0.183273
C	 2.2527760022	-0.5746736586	 1.1944352942	 0.12411
O	 3.0246187915	 0.234023583	 0.3633402883	-0.422846
C	 0.755996575	-0.549353195	 1.2595322294	-0.138323
H	 1.121955461	 1.9202125802	-0.0408600393	 0.142088
H	-0.3758993817	 1.8829164316	-1.007067763	 0.130584
H	-0.4558680135	 2.0295630177	 0.7566285126	 0.125025
H	-1.0237370628	-0.2713996603	 0.0885907136	 0.096504
H	 1.128812258	-2.4717676125	-2.4941064556	 0.224747
H	 1.5531361643	-2.7389452597	 1.2212491123	 0.117637
H	 2.7648810531	-0.7127543125	 2.1406071916	 0.120564
H	 2.6528635011	 0.2121643023	-0.5266840406	 0.300163
H	 0.2487862451	-0.5528327036	 2.2173319783	 0.102254
124.776	157.8882	179.1547	237.7243	280.3067	368.3101	394.9831	452.4822	480.3047	565.7981	643.8701	715.6711	760.8873	767.9597	784.2043	839.0744	902.0679	917.5867	944.9888	986.3901	1010.2237	1044.8355	1052.4903	1102.8066	1115.0015	1121.3386	1156.2469	1190.4327	1269.6648	1314.9768	1327.9999	1350.1403	1385.4939	1392.9661	1411.8327	1459.7921	1490.9792	1501.4955	1780.6377	3009.0622	3048.9401	3117.7994	3140.5858	3173.5465	3182.7486	3216.4141	3475.7277	3787.0022
CC1OC(=N)C2C(O)C12	C[C@H]1O[C]([NH])[C@H]2[C@@H](O)[C@@H]12	
InChI=1S/C6H9NO2/c1-2-3-4(5(3)8)6(7)9-2/h2-5,7-8H,1H3	InChI=1S/C6H9NO2/c1-2-3-4(5(3)8)6(7)9-2/h2-5,7-8H,1H3/t2-,3+,4-,5+/m1/s1
