20
gdb 81128	3.34259	1.10542	0.98076	1.534	85.04	-0.2248	0.0506	0.2754	1278.8163	0.170061	-365.902065	-365.893182	-365.892238	-365.935865	34.107	
C	-0.0958059517	 1.5654275203	-0.0587379701	-0.444547
C	 0.1021975715	 0.0628548514	 0.0035538955	 0.038111
N	 1.298187767	-0.5592939928	-0.7590910972	-0.161111
C	 2.1534422944	-0.1259568433	 0.4469004801	-0.212184
C	 0.8812955015	-0.670258362	 1.1345424829	 0.304568
C	 0.5449203504	-0.752616951	 2.6188496203	-0.492498
C	 1.5206043426	-1.5287498198	 3.3752026843	 0.299232
C	 2.346401671	-2.1728795744	 3.9652034957	-0.450277
C	 1.00456369	-1.8059246992	 0.0947225487	-0.19751
H	-0.2891143011	 1.8678196016	-1.0933030036	 0.134877
H	-0.9705964397	 1.847672494	 0.5371751319	 0.119928
H	 0.7554157175	 2.1441100925	 0.3060270866	 0.120786
H	-0.8303641308	-0.4332690167	-0.2922453961	 0.0685
H	 3.0713258108	-0.7085873546	 0.5550032315	 0.107634
H	 2.3699104411	 0.9419221097	 0.4874370221	 0.100178
H	 0.4810794063	 0.2635158305	 3.0306993735	 0.133194
H	-0.4537967611	-1.1940879755	 2.7370124216	 0.131819
H	 3.0669900942	-2.7397294629	 4.500648416	 0.19691
H	 0.0942866912	-2.3354403868	-0.202156137	 0.096304
H	 1.8558918546	-2.4851115509	 0.1788369333	 0.106087
54.8309	100.3717	159.8984	190.5519	285.3807	340.3716	351.0602	366.9296	455.1209	577.6658	603.0509	622.4197	633.6047	676.0873	752.5535	783.5381	832.1435	881.9157	889.865	948.4218	982.5472	994.5358	1022.4607	1050.3638	1097.3642	1110.928	1152.3658	1160.8684	1174.4456	1193.8705	1201.3151	1248.7912	1267.5597	1312.8629	1333.6945	1405.2826	1430.8766	1462.2639	1489.9969	1494.8337	1521.5225	1558.8494	2237.4371	3012.319	3025.7818	3040.0389	3044.34	3051.3211	3073.5371	3099.4987	3120.2654	3124.211	3139.6385	3506.5744
CC1N2CC1(CC#C)C2	C[C@H]1N2C[C@]1(CC#C)C2	
InChI=1S/C8H11N/c1-3-4-8-5-9(6-8)7(8)2/h1,7H,4-6H2,2H3	InChI=1S/C8H11N/c1-3-4-8-5-9(6-8)7(8)2/h1,7H,4-6H2,2H3/t7-/m1/s1
