19
gdb 38986	2.97682	1.66405	1.22479	1.5995	74.69	-0.2445	0.0828	0.3273	1030.5717	0.161244	-422.991621	-422.984479	-422.983534	-423.022968	29.099	
C	-0.0228743582	 1.5709005903	-0.1126829726	-0.274071
C	 1.5030322195	 1.560569273	 0.077849606	-0.064368
O	 2.0602727452	 0.7727781937	-0.9945007769	-0.307194
C	 1.5341679691	 0.0902524928	 0.1387343015	 0.457993
C	 2.3266844409	-0.9463086763	 0.8717647937	-0.210372
O	 1.6134084489	-1.3871616444	 2.0190959243	-0.244108
C	 0.2813364853	-1.7914774863	 1.7267454398	-0.073387
C	-0.5799226633	-0.6015312199	 1.2847038503	-0.22723
C	 0.0042287769	 0.0034081175	 0.0009630753	-0.076737
H	-0.5632967633	 2.043397683	 0.7114500041	 0.107207
H	-0.3618143725	 1.9913137269	-1.0622499427	 0.11188
H	 2.1518263701	 2.3077526657	 0.5203680213	 0.10445
H	 2.52536822	-1.7959796531	 0.1948597307	 0.09798
H	 3.2884451876	-0.5573986724	 1.2177297225	 0.120454
H	 0.2826182992	-2.5761071216	 0.9505101039	 0.087791
H	-0.1036770013	-2.2334499347	 2.6500845487	 0.110204
H	-1.6219643052	-0.9105841013	 1.1464296801	 0.099371
H	-0.5623641104	 0.1380104047	 2.0940460802	 0.104896
H	-0.3328657884	-0.5425140674	-0.8856320804	 0.075239
150.2084	158.2756	298.3627	354.2717	369.7377	435.1463	465.1885	471.1549	558.2166	684.7227	742.7874	825.716	826.982	877.2474	881.071	923.2697	969.855	977.0796	998.6192	1017.6978	1040.4626	1064.6285	1107.6479	1128.7528	1169.4474	1188.4312	1213.8475	1240.3571	1243.6949	1263.0373	1284.7016	1309.1041	1332.7771	1367.5929	1373.1802	1408.5364	1463.8809	1477.8439	1487.2919	1490.1455	1498.2856	2953.3283	2962.0594	3032.1294	3056.1747	3066.4257	3081.5451	3087.2337	3090.2316	3122.9765	3186.385
C1C2OC22COCCC12	C1[C@@H]2O[C@]32COCC[C@@H]13	
InChI=1S/C7H10O2/c1-2-8-4-7-5(1)3-6(7)9-7/h5-6H,1-4H2	InChI=1S/C7H10O2/c1-2-8-4-7-5(1)3-6(7)9-7/h5-6H,1-4H2/t5-,6-,7+/m0/s1
