20
gdb 82195	2.52489	1.77817	1.35763	2.5437	77.12	-0.2307	0.0669	0.2976	1022.5482	0.172498	-403.119301	-403.111336	-403.110392	-403.151209	32.488	
C	-0.1821153741	 1.463081048	 0.0136925909	-0.503624
C	 0.088925653	-0.0162051598	-0.017544061	 0.308416
N	-0.7102258481	-0.9362153444	 0.8243600068	-0.388358
C	 0.7551914394	-0.7987995577	 1.0502002819	-0.09998
C	 1.5950763167	-1.9042979554	 0.4388587523	-0.033682
C	 0.8606568175	-3.034080579	-0.2358630825	-0.295452
C	 1.3440873675	-1.862777993	-1.0547940589	-0.065282
C	 0.3907416722	-0.6959607934	-1.3698443839	 0.072708
O	-0.7955322214	-1.0426131636	-2.0589361043	-0.440385
H	 0.6694364822	 2.0290303336	-0.3795672687	 0.1256
H	-1.0561380101	 1.7065406729	-0.6010120329	 0.136236
H	-0.3744824051	 1.8111180812	 1.0345146771	 0.109851
H	-1.2141479855	-0.4010405818	 1.5281722415	 0.226636
H	 1.0839931852	-0.3369818366	 1.9758030346	 0.083621
H	 2.5823909605	-2.0704477473	 0.8538335559	 0.080656
H	 1.3970127563	-3.9675182188	-0.3688511752	 0.104619
H	-0.1960999622	-3.1410490339	-0.0268700705	 0.128636
H	 2.1459874787	-2.0465606644	-1.7609431901	 0.082426
H	 0.9109415077	 0.0143668086	-2.0217171592	 0.080086
H	-1.3489451604	-1.4889524153	-1.4046174137	 0.287274
126.6076	210.2502	222.2895	241.3843	278.8904	380.2255	416.3407	468.6508	528.4488	572.5729	628.2174	676.171	723.636	786.0788	810.6454	842.3786	877.2055	919.8131	951.3922	970.3956	992.1596	1039.1554	1042.3622	1054.6413	1077.096	1093.4828	1101.3122	1112.3055	1124.2094	1155.0677	1204.0009	1250.9055	1297.3749	1306.8001	1343.4013	1355.0287	1383.4658	1411.1545	1434.8583	1448.5751	1479.9143	1483.9135	1501.0849	3023.9713	3052.9078	3091.8203	3095.0228	3139.8399	3158.1086	3166.9903	3179.8333	3232.0517	3488.4247	3765.1349
CC12NC1C1CC1C2O	C[C@]12N[C@H]1[C@H]1C[C@H]1[C@H]2O	
InChI=1S/C7H11NO/c1-7-5(8-7)3-2-4(3)6(7)9/h3-6,8-9H,2H2,1H3	InChI=1S/C7H11NO/c1-7-5(8-7)3-2-4(3)6(7)9/h3-6,8-9H,2H2,1H3/t3-,4+,5-,6+,7-/m0/s1
