22
gdb 123097	4.29441	0.6077	0.55472	6.3374	80.61	-0.2467	0.0301	0.2767	2020.9106	0.193964	-441.526834	-441.516509	-441.515564	-441.563428	36.637	
C	-0.2563297002	 1.4827479305	-0.1782466709	-0.379817
C	-0.2174488624	-0.0325630023	-0.3910395034	-0.191812
C	 1.0209340453	-0.4848140606	-1.1631854708	-0.114508
N	 1.0199988185	-1.9358111457	-1.3749631591	-0.30876
H	 0.9326034171	-2.4025888793	-0.4750037695	 0.22751
H	-0.0330457317	-2.8130658823	-2.5144366395	 0.300383
C	 2.2124534882	-2.4490266349	-2.0654846202	-0.158477
C	 2.0409691874	-3.9323318246	-2.4148797673	-0.351152
C	 0.8832355949	-4.2472939038	-3.3724823383	 0.406065
O	-0.2106037184	-3.4869881999	-3.2221668774	-0.375183
O	 0.9415474798	-5.1305390155	-4.1868884082	-0.332115
H	 0.6177390064	 1.8295967437	 0.3835401854	 0.118678
H	-0.269960481	 2.0167671875	-1.1344265986	 0.122284
H	-1.1491538117	 1.778175457	 0.379816134	 0.122139
H	-0.240089006	-0.5406053138	 0.582920544	 0.096625
H	-1.1118022847	-0.3620125862	-0.9323614636	 0.11661
H	 1.0399619476	-0.005577001	-2.1498200736	 0.117274
H	 1.9323777428	-0.1540817536	-0.6351400967	 0.091082
H	 2.3349284781	-1.8637876935	-2.9844609397	 0.127592
H	 3.1300349833	-2.3060406791	-1.4735025936	 0.102721
H	 2.9516643039	-4.3271943855	-2.8690309406	 0.137973
H	 1.8746034929	-4.5093994972	-1.4943263026	 0.124887
49.7324	69.5991	81.4834	126.1595	162.5849	215.4763	239.8235	259.9846	320.779	365.6678	449.6901	514.6228	578.8843	704.4865	760.365	800.0857	827.0168	884.8999	905.2285	915.9977	973.458	997.5681	1031.6225	1065.9505	1068.4246	1127.4349	1142.154	1159.9604	1230.4738	1244.2211	1284.5207	1298.4743	1323.4476	1330.7095	1355.9713	1380.1878	1414.1715	1425.8756	1458.1453	1485.1506	1489.2322	1500.7833	1500.9532	1503.4303	1512.0849	1524.7611	1859.2449	2952.6015	2979.9175	3014.6338	3022.3619	3034.4029	3045.655	3061.0127	3065.7937	3101.4922	3111.5439	3119.5963	3222.9523	3487.3618
CCC[NH2+]CCC([O-])=O	CCCNCCC(=O)O	
InChI=1S/C6H13NO2/c1-2-4-7-5-3-6(8)9/h7H,2-5H2,1H3,(H,8,9)	InChI=1S/C6H13NO2/c1-2-4-7-5-3-6(8)9/h7H,2-5H2,1H3,(H,8,9)
