22
gdb 14727	7.28317	0.54766	0.53691	0.148	88.92	-0.2384	0.0634	0.3018	2182.2007	0.198381	-313.061893	-313.051241	-313.050297	-313.100164	36.547	
C	 0.3722799037	 1.4973283011	-0.2347557832	-0.385024
C	-0.0361272854	 0.0499479608	 0.0518871021	-0.160407
C	 0.7090883928	-0.5570498811	 1.2441523339	-0.148245
C	 0.2935185714	-2.0145692843	 1.5281159917	-0.355462
C	 0.9965081067	-2.6055479782	 2.6620790301	 0.004623
C	 1.5875644646	-3.0630199222	 3.6072491603	 0.125058
C	 2.3132092177	-3.6448275926	 4.7323349989	-0.31268
C	 3.3574488498	-4.691448295	 4.3026089133	-0.362325
H	 1.4423960106	 1.5694751107	-0.4585608776	 0.114934
H	-0.1750109196	 1.9051440599	-1.0903422588	 0.111584
H	 0.171984541	 2.1430074755	 0.6274577778	 0.115026
H	-1.117522892	 0.0037881553	 0.238241352	 0.094811
H	 0.1434984516	-0.5655528043	-0.8398432753	 0.094708
H	 1.7905585802	-0.5240788432	 1.0644149391	 0.103446
H	 0.5293203512	 0.0456410456	 2.1427086531	 0.103872
H	-0.7901242415	-2.0527700112	 1.7056382488	 0.121788
H	 0.4694606929	-2.6213521741	 0.6291656108	 0.121734
H	 2.8098126395	-2.8463969808	 5.2991292719	 0.124749
H	 1.6004051509	-4.1058284277	 5.4285754844	 0.124829
H	 3.8747205661	-5.0984405324	 5.1768574015	 0.11109
H	 2.8811827729	-5.5178664304	 3.7679544139	 0.126202
H	 4.102328775	-4.2459622314	 3.6375020712	 0.12569
7.9524	67.144	73.5484	113.7495	140.9525	191.5879	244.4897	247.8441	293.6259	348.212	376.0647	504.6106	516.0214	734.314	742.4985	785.3032	790.845	905.995	932.3161	959.5678	1008.1919	1061.4325	1078.8911	1103.2931	1121.2722	1130.5848	1166.8691	1241.2892	1277.0185	1286.6262	1311.6532	1327.0646	1350.7215	1360.4989	1393.8518	1407.6474	1413.4062	1473.8802	1476.6745	1485.7463	1494.3708	1497.9948	1499.7669	1505.8228	1512.0193	2366.2998	3004.6192	3010.779	3015.2933	3027.9691	3029.8808	3032.4643	3037.4118	3041.1483	3041.9882	3073.9137	3096.6885	3101.3235	3114.5864	3121.4344	7.9471	67.144	73.5481	113.7495	140.9524	191.5876	244.4899	247.8441	293.6259	348.2123	376.0648	504.6108	516.0217	734.3139	742.4985	785.3032	790.845	905.995	932.3161	959.5678	1008.1918	1061.4325	1078.8912	1103.2932	1121.2722	1130.5849	1166.8692	1241.2892	1277.0185	1286.6264	1311.6533	1327.0646	1350.7216	1360.4989	1393.8519	1407.6476	1413.4061	1473.8803	1476.6747	1485.7463	1494.371	1497.9948	1499.7667	1505.8231	1512.0192	2366.3	3004.6192	3010.7789	3015.2933	3027.9691	3029.8808	3032.4643	3037.4118	3041.1483	3041.9882	3073.9137	3096.6885	3101.3235	3114.5864	3121.4344
CCCCC#CCC	CCCCC#CCC	
InChI=1S/C8H14/c1-3-5-7-8-6-4-2/h3-5,7H2,1-2H3	InChI=1S/C8H14/c1-3-5-7-8-6-4-2/h3-5,7H2,1-2H3
