18
gdb 52588	2.12547	1.10184	0.7533	1.3259	87.65	-0.2405	0.0265	0.267	1523.7561	0.144136	-364.708247	-364.698079	-364.697135	-364.745277	35.551	
C	 0.1960400807	 1.3940291551	 0.0242692414	-0.500382
C	 0.0898464461	-0.0571648054	 0.0034615705	 0.100594
C	-0.0077064244	-1.2555737729	-0.0217799586	 0.110154
C	-0.1040052681	-2.7192256685	-0.0347615981	-0.386738
C	-1.4976005817	-3.1736860508	 0.0592332219	 0.366734
C	-2.6274152905	-3.567723118	 0.1557517952	-0.441788
N	 0.5160989385	-3.2624384394	-1.2597837845	-0.049447
C	 1.9637519128	-3.4414002908	-1.1893862757	-0.215651
C	 1.0505749036	-4.6161262148	-1.1337068016	-0.217143
H	 0.8634119569	 1.7349765004	 0.8232601343	 0.14807
H	 0.5909962633	 1.7733598559	-0.9244364139	 0.152758
H	-0.7826019286	 1.8588949735	 0.1857523538	 0.153001
H	 0.4252310401	-3.0994431357	 0.862118208	 0.107748
H	-3.6313169804	-3.9050873103	 0.2335506174	 0.197742
H	 2.5078260456	-3.2011279917	-2.0976017217	 0.120964
H	 2.4694822443	-3.158269092	-0.2678133759	 0.115549
H	 0.9444549684	-5.1206279628	-0.1748279979	 0.116134
H	 0.9106319734	-5.2549022721	-2.0002282546	 0.121701
19.0503	64.7547	88.9691	110.9246	154.4188	242.8054	274.7595	337.0345	366.5467	376.6936	481.4612	515.2789	543.0253	629.7953	657.4227	764.9735	827.5036	868.4504	910.0328	961.564	1016.7546	1048.9357	1053.8513	1054.4933	1111.2904	1116.8535	1165.8286	1176.1617	1183.5872	1302.4222	1325.4826	1328.0652	1413.7284	1477.0492	1477.8033	1492.581	1518.392	2245.2547	2380.028	2887.0509	3028.7708	3090.302	3091.7312	3098.5401	3102.7354	3183.5953	3197.35	3504.2933
CC#CC(C#C)N1CC1	CC#C[C@@H](C#C)N1CC1	
InChI=1S/C8H9N/c1-3-5-8(4-2)9-6-7-9/h2,8H,6-7H2,1H3	InChI=1S/C8H9N/c1-3-5-8(4-2)9-6-7-9/h2,8H,6-7H2,1H3/t8-/m1/s1
