20
gdb 96518	2.20654	1.68213	1.10336	2.5294	75.27	-0.2234	-0.0185	0.2049	1143.0418	0.171789	-440.289937	-440.281146	-440.280202	-440.323903	33.306	
C	 0.8928610436	 1.3017154732	-0.3805874395	-0.405812
C	-0.0547098252	 0.231793508	 0.1698142113	 0.021717
O	-0.5127400354	-0.7002741577	-0.7964436964	-0.262965
C	 0.4383782607	-1.5903783207	-1.3658597152	-0.063193
C	 0.5456956148	-2.8892937255	-0.5730126732	-0.157065
N	 1.1317409139	-2.6593240226	 0.7411717405	-0.300656
C	 0.2838486729	-1.9065385575	 1.6698966732	-0.264475
C	 0.4856505931	-0.4029250567	 1.4661467347	 0.383653
O	 1.0123602451	 0.2877618067	 2.3063249543	-0.307778
H	 1.8469804257	 0.8776631944	-0.7053009795	 0.126557
H	 0.4272804678	 1.8102191657	-1.228311068	 0.120556
H	 1.1061072967	 2.0261961818	 0.4073720671	 0.145319
H	-0.9779922825	 0.7357064149	 0.4905220119	 0.117743
H	 0.0817737909	-1.8085329654	-2.3784865043	 0.10594
H	 1.4287333235	-1.1260806936	-1.4458865223	 0.10424
H	-0.461437093	-3.3430169015	-0.5198994989	 0.0882
H	 1.1955305325	-3.5807885622	-1.1219430047	 0.099609
H	 1.3864942069	-3.5411940453	 1.1667894981	 0.229227
H	-0.788883278	-2.1508044099	 1.5654164356	 0.100578
H	 0.5967201062	-2.1204545161	 2.6939448753	 0.118605
30.4827	142.0988	206.7428	225.5976	274.0963	314.1438	322.0124	368.6243	461.8828	484.7375	510.1976	540.5365	629.5759	716.4602	819.2849	835.9397	875.3527	929.5093	982.389	987.2328	1015.3303	1078.552	1109.3376	1123.5388	1154.8676	1173.5625	1199.2136	1263.7304	1294.3982	1311.3781	1320.7687	1343.5078	1370.046	1390.7745	1403.6714	1412.7326	1469.0724	1480.1869	1486.8182	1492.2262	1493.8657	1502.7747	1811.4256	2933.2135	2940.8608	3010.608	3028.1135	3054.6354	3061.6949	3079.8757	3109.2766	3125.9806	3146.3553	3557.241
CC1OCCNCC1=O	C[C@H]1OCCNCC1=O	
InChI=1S/C6H11NO2/c1-5-6(8)4-7-2-3-9-5/h5,7H,2-4H2,1H3	InChI=1S/C6H11NO2/c1-5-6(8)4-7-2-3-9-5/h5,7H,2-4H2,1H3/t5-/m1/s1
