19
gdb 79949	2.56383	1.56225	1.26721	0.7145	85.33	-0.2291	0.0128	0.242	1071.2173	0.15915	-348.715412	-348.707076	-348.706132	-348.74796	32.87	
C	-0.1102436078	 1.5090225124	-0.2807122832	-0.412216
C	 0.049739736	 0.0230862653	-0.0493913806	 0.001455
C	 1.3585913258	-0.7424773979	-0.2120379417	-0.114029
C	 2.616533441	 0.0488810787	-0.1059902082	-0.078602
C	 2.7762478567	 0.5864337257	 1.1034505336	-0.08875
C	 1.6585408989	 0.1736279015	 2.059465907	-0.214323
C	 1.0587064567	 1.2845881471	 2.7973751518	 0.334973
C	 0.58526205	 2.1921713096	 3.42813413	-0.480027
C	 0.6950224458	-0.6193910056	 1.15480517	-0.079512
H	 0.7789794346	 2.0723059313	 0.0065380487	 0.1295
H	-0.3102943338	 1.7080658493	-1.3397044597	 0.107574
H	-0.9508070261	 1.9010852031	 0.3002813974	 0.122687
H	-0.8061572861	-0.5516205194	-0.3985144427	 0.085468
H	 1.3537690323	-1.667445168	-0.7789842902	 0.085303
H	 3.2958619407	 0.1856028564	-0.9401641313	 0.098898
H	 3.5730253477	 1.250635575	 1.4153499397	 0.105497
H	 2.074722298	-0.5200170406	 2.8066464951	 0.113491
H	 0.1589452234	 2.9943336197	 3.9776713293	 0.192927
H	 0.1854916465	-1.4611819835	 1.6080515951	 0.089684
108.8309	130.3818	192.14	221.0283	241.9035	353.6295	426.2425	484.6433	547.4072	563.5549	620.1999	629.8787	711.307	726.8096	754.1778	785.826	822.2309	882.7518	926.6589	955.9245	964.0008	998.1145	1031.4398	1054.9879	1071.6419	1088.6101	1112.242	1128.978	1147.6622	1229.8287	1256.7862	1296.8914	1308.2	1358.7748	1376.5823	1413.7914	1429.875	1491.5982	1499.0777	1670.4076	2232.3984	2976.5122	3035.9743	3095.2757	3117.3753	3138.2581	3159.7201	3178.5316	3187.9787	3217.2614	3504.5761
CC1C2C=CC(C#C)C12	C[C@H]1[C@H]2C=C[C@@H](C#C)[C@@H]12	
InChI=1S/C9H10/c1-3-7-4-5-8-6(2)9(7)8/h1,4-9H,2H3	InChI=1S/C9H10/c1-3-7-4-5-8-6(2)9(7)8/h1,4-9H,2H3/t6-,7+,8+,9+/m0/s1
