13
gdb 132613	3.11126	1.37788	0.95563	3.8019	65.5	-0.2153	-0.0231	0.1922	1097.9791	0.089441	-502.059056	-502.05188	-502.050935	-502.090616	27.764	
N	 0.01474407	 1.3723603007	 0.1733388542	-0.567091
C	-0.0192839873	-0.0043419679	 0.0665077025	 0.38753
C	-1.2272260864	-0.7180905579	 0.0442985446	-0.188224
C	-1.1750573155	-2.104410641	-0.0065728626	-0.186894
C	 0.0578677787	-2.7348175037	-0.0304718792	 0.096679
F	 0.164578992	-4.0651016241	-0.0792021617	-0.0645
C	 1.1943571386	-1.93220329	-0.0060427624	 0.214798
F	 2.3868105654	-2.5152845845	-0.0344745401	-0.056376
N	 1.1704121309	-0.623303875	 0.0359742573	-0.376013
H	 0.9023884699	 1.7821260048	-0.0758038206	 0.260994
H	-0.7856203096	 1.8746652852	-0.1765220245	 0.253825
H	-2.1776242882	-0.1983643656	 0.0731175108	 0.098645
H	-2.0774789685	-2.704806021	-0.0269376383	 0.126626
135.1702	243.6859	286.0922	330.7845	363.8015	380.3682	469.8419	478.4827	534.9421	546.6189	593.5579	688.0093	751.9223	761.2524	801.4114	830.425	953.7613	986.5814	1110.6158	1132.3399	1226.4486	1296.8258	1338.1101	1391.4708	1485.1641	1526.2199	1627.4159	1637.4781	1673.8095	3191.4393	3207.4013	3582.6883	3695.9875
NC1=CC=C(F)C(F)=N1	Nc1ccc(F)c(F)n1	
InChI=1S/C5H4F2N2/c6-3-1-2-4(8)9-5(3)7/h1-2H,(H2,8,9)	InChI=1S/C5H4F2N2/c6-3-1-2-4(8)9-5(3)7/h1-2H,(H2,8,9)
