17
gdb 82761	2.34258	2.22959	1.58763	1.6421	65.99	-0.2333	0.0625	0.2959	879.2643	0.137687	-458.916091	-458.909439	-458.908495	-458.946659	28.289	
O	-0.1240268193	 1.352507112	-0.0383354955	-0.461154
C	-0.0799415109	-0.0543390155	-0.021358438	 0.099839
C	 0.3640480733	-0.6603213602	 1.324290023	 0.015738
O	-0.548481116	 0.0399889036	 2.2322817732	-0.317676
C	-1.5497223567	-0.8287092241	 1.6472137645	 0.022865
C	-0.5368418186	-1.953849326	 1.361097438	-0.080243
C	-1.1674580733	-2.1925147657	-0.0284921668	-0.308426
C	-1.4939899905	-0.6876687801	 0.0449283633	 0.35865
O	-2.4709197215	-0.096656601	-0.7284819987	-0.491037
H	-0.3607036495	 1.6004740063	 0.8697729746	 0.290661
H	 0.4950635283	-0.3862987391	-0.8890253705	 0.090491
H	 1.4069167982	-0.617485559	 1.6348210412	 0.089275
H	-2.4969666797	-0.8941680372	 2.1787625716	 0.096722
H	-0.2861331563	-2.740596222	 2.067482387	 0.089565
H	-0.5464943645	-2.5364606949	-0.8601515443	 0.10282
H	-2.0548292606	-2.8250410215	 0.0591382261	 0.115046
H	-2.1834213523	 0.8187475743	-0.8628144286	 0.286863
211.157	244.2626	326.3131	399.2081	435.5016	458.8456	523.9128	567.1099	635.0635	697.5966	712.2479	753.3503	823.4943	850.2558	853.3159	877.0314	928.8417	947.9998	967.8901	1004.3566	1015.5181	1045.1287	1105.794	1110.5817	1127.9569	1187.7331	1198.5416	1211.6067	1231.5247	1263.8927	1272.306	1299.7224	1309.5223	1363.6957	1406.0782	1442.4655	1504.7238	3057.2804	3091.163	3113.9876	3133.9116	3145.5687	3160.039	3697.8367	3723.1587
OC1C2OC3C2CC13O	O[C@H]1[C@H]2O[C@@H]3[C@H]2C[C@]13O	
InChI=1S/C6H8O3/c7-4-3-2-1-6(4,8)5(2)9-3/h2-5,7-8H,1H2	InChI=1S/C6H8O3/c7-4-3-2-1-6(4,8)5(2)9-3/h2-5,7-8H,1H2/t2-,3-,4-,5+,6-/m0/s1
