12
gdb 130749	3.46096	1.6684	1.13377	5.0155	61.61	-0.2898	-0.0719	0.2178	954.7087	0.079862	-472.635561	-472.629409	-472.628464	-472.666338	23.103	
O	-0.0176527398	-0.0305347832	 0.0043482233	-0.329943
C	 0.0356093508	 1.1610275484	 0.0084262842	 0.413031
O	-1.0824999833	 1.9716723323	 0.0288639907	-0.248921
C	-0.7536628294	 3.3811737767	 0.0315032275	-0.194977
C	 0.7393124315	 3.3921515481	 0.0110234886	 0.142957
C	 1.1641973493	 2.1111157547	-0.0014673084	 0.204221
O	 2.491211141	 2.0176609996	-0.0194058932	-0.213064
N	 2.9898019695	 3.3263120486	-0.0196296318	-0.109351
C	 1.9468656459	 4.1319636095	-0.0017730869	-0.122958
H	-1.2143996424	 3.8404914447	-0.8489475491	 0.152167
H	-1.189871567	 3.8314537046	 0.9289552775	 0.152209
H	 2.122431784	 5.1980256161	 0.0012694977	 0.154628
161.219	208.6509	268.1054	302.9633	548.633	614.9623	621.8824	638.7578	661.2967	777.1267	787.5041	882.4165	902.1099	975.0611	1014.1182	1026.0691	1051.0527	1130.8682	1197.5796	1205.7547	1332.648	1387.303	1429.3481	1494.1599	1498.8	1649.0019	1893.808	3050.8806	3090.7649	3252.3013
O=C1OCC2=C1ON=C2	O=C1OCc2c1onc2	
InChI=1S/C5H3NO3/c7-5-4-3(2-8-5)1-6-9-4/h1H,2H2	InChI=1S/C5H3NO3/c7-5-4-3(2-8-5)1-6-9-4/h1H,2H2
