17
gdb 29996	3.14387	1.65472	1.15025	0.3709	80.22	-0.1961	-0.005	0.1911	1049.3777	0.138023	-384.721661	-384.714472	-384.713528	-384.753174	28.502	
C	-0.0832298973	 1.5751279534	 0.0475996052	-0.392731
C	 0.0186890388	 0.0394465671	 0.0416647268	-0.199919
C	 0.8173296981	-0.5256371804	-1.1355280208	-0.087249
C	 1.8550731839	-1.2818848912	-0.7228386471	-0.224041
C	 1.86249878	-1.3071121104	 0.7432180434	 0.242017
C	 0.8108564145	-0.5508465837	 1.1626698036	 0.32505
O	 0.7255613602	-0.4992969841	 2.5072537809	-0.204142
C	 1.7744221379	-1.2627219936	 2.9635593039	-0.016215
C	 2.5032423996	-1.7820381924	 1.9331646936	-0.367432
H	 0.912511091	 2.0269477938	 0.0480041711	 0.129461
H	-0.6221952079	 1.9295509478	-0.8362180035	 0.117435
H	-0.6193990878	 1.9227551946	 0.9355665333	 0.126701
H	-0.9988249673	-0.3786588239	 0.0187490192	 0.108554
H	 0.5480846961	-0.3121063499	-2.1619420978	 0.097065
H	 2.5642087832	-1.78843839	-1.3649477094	 0.100908
H	 1.857809963	-1.3324866794	 4.0353237492	 0.132157
H	 3.3724495241	-2.4133222077	 2.0337059184	 0.112379
119.1278	163.9889	242.797	289.7901	352.2089	464.0283	549.8702	609.8005	638.6317	674.9052	689.88	721.3098	772.4153	800.5719	818.8542	908.6719	915.0419	936.4738	1012.7899	1044.3478	1055.4891	1076.2724	1091.1366	1138.5552	1171.0413	1222.4338	1262.6935	1282.801	1335.5781	1387.8116	1406.2533	1482.9719	1496.7479	1500.025	1511.6368	1565.8296	1625.0844	3004.7829	3040.1074	3111.1069	3120.4777	3205.6485	3228.2305	3251.9203	3285.0676
CC1C=CC2=C1OC=C2	C[C@H]1C=Cc2c1occ2	
InChI=1S/C8H8O/c1-6-2-3-7-4-5-9-8(6)7/h2-6H,1H3	InChI=1S/C8H8O/c1-6-2-3-7-4-5-9-8(6)7/h2-6H,1H3/t6-/m0/s1
