21
gdb 122304	3.07036	1.11812	0.99259	1.6428	79.58	-0.2377	0.0681	0.3058	1299.9265	0.181284	-424.171226	-424.161962	-424.161018	-424.206329	34.202	
C	 0.7097486772	 0.9421620911	 1.1580989504	-0.394296
C	 0.0180166575	-0.0689173162	 0.2468906046	-0.047133
O	 0.790457775	-1.2387843721	 0.0022421496	-0.237734
C	 0.589667932	-2.322531856	 0.8863978868	-0.19964
C	 1.3363060363	-2.2420029086	 2.183960729	 0.46483
C	 2.8201994764	-2.3257293461	 2.3578203276	-0.322211
C	 1.9262220695	-3.2919836791	 3.1082883258	-0.185105
C	 1.2091106621	-2.5351461099	 4.2177429936	-0.086912
O	 0.7534114507	-1.5175178855	 3.2850077295	-0.318977
H	 1.6896141944	 1.2096978913	 0.7507527064	 0.116573
H	 0.1063932095	 1.8546445933	 1.2241326889	 0.104101
H	 0.8424683546	 0.5442032571	 2.1668748145	 0.153532
H	-0.9639758145	-0.3476915591	 0.6585766509	 0.090767
H	-0.1553777983	 0.3773647156	-0.7394817315	 0.100842
H	-0.4822482581	-2.456427646	 1.1003003	 0.097706
H	 0.9417738648	-3.2127992397	 0.3520012669	 0.107555
H	 3.363722994	-2.7600177783	 1.5247804454	 0.121459
H	 3.3420429718	-1.5327672329	 2.8866612552	 0.116358
H	 1.9874808811	-4.3667422231	 3.0025120923	 0.102494
H	 0.354915368	-3.0735715337	 4.6433171387	 0.109872
H	 1.821539526	-2.1152425921	 5.0246150055	 0.10592
44.0622	51.2459	119.3087	163.7675	253.5643	286.3386	310.2432	402.2346	414.2232	441.909	474.0448	718.7691	747.9012	804.2928	828.4736	857.711	911.3678	927.7451	953.4614	975.5862	987.7572	1005.6886	1015.6554	1034.5757	1069.2897	1100.2213	1128.0159	1136.6373	1165.2724	1184.5086	1214.38	1273.0338	1312.0271	1338.5537	1350.0255	1380.6402	1398.5622	1415.7972	1422.0304	1463.4168	1482.8264	1489.3999	1495.0609	1517.1732	1518.9287	2984.9148	2990.7653	3023.5153	3035.8639	3052.6233	3061.355	3072.3674	3103.6364	3116.7386	3134.7998	3200.6184	3211.4505
CCOCC12CC1CO2	CCOC[C@]12C[C@H]1CO2	
InChI=1S/C7H12O2/c1-2-8-5-7-3-6(7)4-9-7/h6H,2-5H2,1H3	InChI=1S/C7H12O2/c1-2-8-5-7-3-6(7)4-9-7/h6H,2-5H2,1H3/t6-,7+/m0/s1
