14
gdb 124290	4.23087	1.11045	0.88474	5.7368	65.43	-0.2563	-0.0596	0.1967	1229.5937	0.100239	-470.02935	-470.020994	-470.02005	-470.062948	29.843	
C	 1.0787999137	 0.7350757598	 0.2010088487	-0.478407
C	-0.3143233347	 0.3399465983	-0.2321988474	 0.318778
O	-1.3205183948	 0.8068147124	 0.244160029	-0.275979
C	-0.3854761119	-0.6962427724	-1.3208482707	 0.269645
N	-1.5329119448	-1.1134965384	-1.7944200685	-0.164362
O	-1.1427860862	-2.053743719	-2.7702853753	-0.196805
C	 0.1973369899	-2.0780549199	-2.7545682273	 0.502923
N	 0.8233497894	-2.8783054378	-3.6484010536	-0.597857
N	 0.732913022	-1.2676547447	-1.8829421665	-0.389263
H	 1.6292453264	-0.1428563716	 0.5541480137	 0.151185
H	 1.6430397054	 1.1274559035	-0.6512399669	 0.152464
H	 1.0102076339	 1.4845395594	 0.9895937873	 0.140291
H	 0.2889038627	-3.6323508473	-4.0484710346	 0.282244
H	 1.795968659	-3.0640937923	-3.4660869978	 0.285142
47.2849	138.7658	155.8374	168.4856	331.0363	353.1492	372.5082	395.6519	436.9766	511.0334	551.6737	628.6147	721.0694	763.7899	782.7631	906.4069	962.9426	1012.2617	1029.8586	1045.8025	1111.6614	1183.4793	1361.1081	1384.9208	1429.2957	1456.625	1465.2894	1540.2344	1600.3214	1690.0895	1812.8924	3047.5834	3109.4987	3161.6247	3606.1642	3723.1185
CC(=O)C1=NOC(N)=N1	CC(=O)c1noc(N)n1	
InChI=1S/C4H5N3O2/c1-2(8)3-6-4(5)9-7-3/h1H3,(H2,5,6,7)	InChI=1S/C4H5N3O2/c1-2(8)3-6-4(5)9-7-3/h1H3,(H2,5,6,7)
