20
gdb 81924	2.3574	1.66777	1.22619	3.3588	78.27	-0.2287	-0.0165	0.2122	1090.4915	0.171633	-403.15798	-403.149399	-403.148455	-403.190911	33.226	
C	 0.1260773261	 1.6151609428	-0.139072344	-0.404397
C	 0.0574798466	 0.0910089056	-0.0271558454	 0.006869
C	 0.6800394974	-0.6241097054	-1.2251453654	-0.042451
N	 2.1456801175	-0.592479765	-1.2034054882	-0.330499
C	 1.4221665441	-1.8317607129	-0.7730398896	-0.171648
C	 1.3059904538	-1.895896815	 0.722479638	 0.449823
O	 1.5516428641	-2.854841091	 1.410453774	-0.337224
C	 0.7456926624	-0.5496609468	 1.2228496565	-0.128315
C	 1.8595603309	 0.2653647361	 1.9044723045	-0.405303
H	 1.1603043194	 1.9561428326	-0.2317122517	 0.135285
H	-0.4219041277	 1.9588823489	-1.0232346301	 0.108498
H	-0.3193488278	 2.1020137699	 0.7341276075	 0.116341
H	-0.9993914943	-0.2053529385	-0.0033506655	 0.079967
H	 0.1664121646	-0.6116020221	-2.1820987258	 0.092432
H	 2.5062144855	-0.759769318	-2.1403399091	 0.241021
H	 1.5243266513	-2.7420881964	-1.3514624902	 0.103856
H	-0.0072400521	-0.785758791	 1.9815969668	 0.097489
H	 2.6566574369	 0.5132340655	 1.2007555152	 0.145781
H	 1.4639369327	 1.1936114029	 2.3266630713	 0.112905
H	 2.2889193686	-0.3212917219	 2.7217771213	 0.129569
75.673	172.2465	230.1166	247.3056	259.2492	261.4949	275.7953	405.6694	473.3044	485.2782	563.2478	674.1639	721.8638	768.9993	796.4489	846.7529	875.3701	902.693	920.1621	974.2807	1000.0098	1042.4775	1062.1246	1081.5998	1121.6661	1132.7249	1155.2958	1171.3511	1201.3527	1257.1049	1265.7971	1323.4614	1342.761	1349.8634	1370.2304	1393.5843	1403.5798	1418.9544	1488.3825	1498.0715	1505.2661	1516.149	1838.2345	3016.0423	3036.2745	3045.8689	3057.5864	3097.0061	3112.882	3122.9348	3138.0345	3153.4402	3193.0224	3494.732
CC1C2NC2C(=O)C1C	C[C@H]1[C@H]2N[C@H]2C(=O)[C@H]1C	
InChI=1S/C7H11NO/c1-3-4(2)7(9)6-5(3)8-6/h3-6,8H,1-2H3	InChI=1S/C7H11NO/c1-3-4(2)7(9)6-5(3)8-6/h3-6,8H,1-2H3/t3-,4+,5-,6-/m1/s1
