14
gdb 42291	2.62443	1.51473	0.97226	4.21	71.18	-0.2821	-0.08	0.2021	1124.4735	0.101134	-432.892658	-432.884456	-432.883512	-432.926168	28.769	
N	-0.1179519635	 1.2309768787	 0.481606527	-0.525544
C	-0.0554250683	 0.0316895781	 0.1237324863	 0.416906
C	-1.0748826012	-0.9417995948	-0.4548134399	-0.328724
C	 0.0600590561	-2.0077869951	-0.4823533984	-0.17656
N	 0.9578198304	-0.983392777	 0.0793385867	-0.157782
C	 2.2748616112	-1.103342389	 0.3969216408	 0.336311
O	 2.9251085538	-2.1152457137	 0.2561380766	-0.324157
C	 2.8719541938	 0.1298787283	 0.9430366735	 0.235245
N	 3.3666547036	 1.0814328365	 1.3735807059	-0.324814
H	 0.7613074264	 1.6065426454	 0.8356234297	 0.255762
H	-1.9069185569	-1.1629746397	 0.2149623094	 0.150493
H	-1.4639094678	-0.6487935589	-1.4308292561	 0.150489
H	-0.0700343726	-2.8654660151	 0.1805831161	 0.146191
H	 0.3743758751	-2.3496744739	-1.4704524076	 0.146186
78.2634	98.6149	126.5927	182.7329	229.8377	329.1209	372.0375	493.8007	504.7275	558.6602	684.1588	753.1208	753.4286	795.9302	884.0313	928.4453	982.0087	1026.0022	1059.623	1144.8536	1157.795	1195.3177	1219.0784	1244.587	1327.9468	1395.6796	1468.1964	1514.5045	1767.436	1807.0875	2348.6074	3078.2457	3096.9132	3130.1403	3152.8355	3502.2602
N=C1CCN1C(=O)C#N	[NH][C]1CCN1C(=O)C#N	
InChI=1S/C5H5N3O/c6-3-5(9)8-2-1-4(8)7/h7H,1-2H2	InChI=1S/C5H5N3O/c6-3-5(9)8-2-1-4(8)7/h7H,1-2H2
