19
gdb 38282	3.7808	1.43042	1.25157	1.9869	80.84	-0.2078	0.0208	0.2286	1047.6624	0.162521	-385.846083	-385.839188	-385.838243	-385.877587	27.639	
C	-0.0392409942	 1.5727380566	-0.0884279049	-0.20253
C	 1.5169305345	 1.3491683389	-0.0062844289	-0.168553
C	 1.1632333933	 0.1809815928	 0.9880205945	-0.202532
C	-0.0506180602	 0.0010746438	 0.0018153331	-0.168552
C	 0.7139321036	-0.3308316326	-1.2813816595	 0.258091
C	 1.723039234	 0.5370011425	-1.2865946727	 0.258092
C	 2.577607141	 0.3425204535	-2.4925877123	-0.210632
O	 1.938218919	-0.7452340848	-3.1849471831	-0.278097
C	 0.7711505825	-1.2110329507	-2.4832546522	-0.210632
H	-0.4525264039	 2.0586495048	 0.801698886	 0.09343
H	-0.4347240212	 2.0271249195	-0.9998429375	 0.095823
H	 2.2081438282	 2.1489054468	 0.2555691716	 0.067153
H	 1.873962288	-0.6449709906	 1.0668794401	 0.095822
H	 0.8638300042	 0.5350851752	 1.9800937444	 0.093431
H	-0.9432322202	-0.5612802492	 0.2718515955	 0.067153
H	 2.6184325569	 1.2218335169	-3.1548068075	 0.103137
H	 3.6178857326	 0.0648286979	-2.2599715262	 0.10313
H	 0.8913917233	-2.2799579454	-2.2458851921	 0.10313
H	-0.1082857215	-1.1231467758	-3.140719708	 0.103137
98.5527	135.2567	224.6041	360.3533	458.3029	509.8021	604.0019	618.1547	673.8218	803.3274	827.4516	836.7622	851.2399	887.2836	906.8737	945.1373	991.8483	1003.8988	1013.7129	1044.908	1063.5564	1074.9946	1090.7655	1110.2117	1126.6248	1149.6142	1196.4967	1214.1587	1214.3198	1226.2688	1227.9106	1253.8535	1281.0198	1305.7274	1383.1942	1397.8738	1478.2925	1512.9642	1519.6162	1529.0912	1703.0855	2966.6297	2973.0019	2982.427	2985.0595	3038.9032	3049.631	3113.3781	3118.3197	3127.4782	3128.9064
C1C2CC1C1=C2COC1	C1[C@H]2C[C@@H]1C1=C2COC1	
InChI=1S/C8H10O/c1-5-2-6(1)8-4-9-3-7(5)8/h5-6H,1-4H2	InChI=1S/C8H10O/c1-5-2-6(1)8-4-9-3-7(5)8/h5-6H,1-4H2/t5-,6+
