17
gdb 68912	2.83981	1.44174	1.15253	3.2762	67.7	-0.2391	-0.0226	0.2164	1066.3804	0.134254	-458.972768	-458.964491	-458.963547	-459.00524	32.563	
O	-0.2199328137	 1.3242217963	-0.1454591924	-0.475482
C	-0.0248348908	-0.0491540207	 0.0317507062	 0.298865
C	-0.4777159262	-0.6971166703	 1.3273395736	-0.41657
C	-1.2857661696	-0.8818007552	 0.052736894	 0.403494
O	-2.5242896267	-0.2661156332	-0.0708649005	-0.483408
C	-1.0582831192	-2.1481976643	-0.7403850346	-0.382987
C	 0.451867694	-2.1663648543	-1.0312190217	 0.386744
O	 1.0817048157	-3.1232127303	-1.3945074781	-0.300831
C	 1.0345501639	-0.7620085991	-0.7807847129	-0.393897
H	 0.3103778472	 1.8038197866	 0.4993228639	 0.293957
H	 0.0967478725	-1.5200724687	 1.7440583002	 0.118988
H	-0.9277191833	-0.0342476145	 2.0586811024	 0.118775
H	-2.3496826864	 0.680266171	-0.170111752	 0.291839
H	-1.3649557033	-3.0742788529	-0.2466296261	 0.134229
H	-1.598564829	-2.086253931	-1.6935835057	 0.14105
H	 1.1574977416	-0.259404151	-1.7487582117	 0.140304
H	 2.0228438835	-0.8374296587	-0.3169420846	 0.124931
86.3431	191.1794	226.3345	281.0067	320.7719	349.3706	392.646	430.8165	472.8031	473.9451	514.1364	586.8765	593.684	689.0649	763.8984	787.4695	849.2759	890.3055	922.1773	939.3994	1023.6415	1028.6267	1086.8028	1127.2523	1179.0534	1188.3299	1211.3642	1228.4997	1265.8159	1283.88	1345.2528	1389.8903	1413.6852	1451.1929	1454.0929	1485.6259	1851.9669	3036.9891	3043.1373	3088.9559	3099.3933	3117.167	3215.0585	3743.6926	3809.7822
OC12CC1(O)CC(=O)C2	O[C@@]12C[C@]1(O)CC(=O)C2	
InChI=1S/C6H8O3/c7-4-1-5(8)3-6(5,9)2-4/h8-9H,1-3H2	InChI=1S/C6H8O3/c7-4-1-5(8)3-6(5,9)2-4/h8-9H,1-3H2/t5-,6+
