21
gdb 97907	4.35101	0.545	0.51549	2.8834	90.04	-0.2434	-0.0233	0.2202	2183.7903	0.178936	-387.084921	-387.073629	-387.072685	-387.125058	38.322	
C	 0.0751928401	 1.394622571	-0.4798237639	-0.363915
C	-0.1027313247	 0.2449966136	 0.5288266284	-0.315628
C	-1.4359053057	-0.3487577266	 0.4906237862	 0.130658
C	-2.5483976208	-0.8095197934	 0.4438240329	 0.009916
C	-3.883161852	-1.3917346701	 0.3761806246	-0.370502
C	-3.8764362433	-2.8902554637	-0.0361900301	-0.051864
C	-3.1052553403	-3.7577028674	 0.9707930091	-0.405734
C	-5.3088460024	-3.3773734978	-0.1263764612	 0.15505
O	-5.8342576787	-3.8213670769	-1.1134162241	-0.244688
H	 1.0866722365	 1.8063931042	-0.4142541288	 0.114983
H	-0.0888472362	 1.0432563732	-1.5020659945	 0.128742
H	-0.6382278706	 2.1990693977	-0.2815918478	 0.128494
H	 0.6471455709	-0.5322436727	 0.3329388261	 0.128699
H	 0.1038714799	 0.6117039902	 1.5425770398	 0.128769
H	-4.3830627719	-1.2909875849	 1.3500131095	 0.127381
H	-4.4934083248	-0.8269162528	-0.3402621871	 0.138003
H	-3.4343428994	-2.9847880906	-1.0322666164	 0.104921
H	-2.0894197138	-3.3739462699	 1.0934148838	 0.141724
H	-3.5906814527	-3.7462578806	 1.9538822879	 0.118637
H	-3.0480482904	-4.7962720267	 0.632859365	 0.128901
H	-5.8716106796	-3.2984105458	 0.8365178403	 0.067451
5.3052	45.0046	57.2614	84.6243	137.8974	199.6437	220.2632	275.7746	278.221	318.6636	347.3935	364.0659	456.3601	513.9985	580.8349	741.1132	785.3013	852.5931	899.5397	913.1231	954.7704	976.8359	1078.5784	1101.6167	1103.9571	1116.6313	1154.7026	1168.2975	1240.6312	1274.753	1286.4454	1347.6821	1350.5176	1358.1408	1403.2526	1408.7737	1427.9118	1472.4688	1475.7536	1494.6473	1496.997	1499.9544	1505.6419	1837.2325	2364.5705	2829.694	3005.9861	3018.7534	3033.2579	3041.2448	3044.1722	3045.5658	3076.1387	3104.7815	3117.5918	3123.6029	3125.2247
CCC#CCC(C)C=O	CCC#CC[C@@H](C)C=O	
InChI=1S/C8H12O/c1-3-4-5-6-8(2)7-9/h7-8H,3,6H2,1-2H3	InChI=1S/C8H12O/c1-3-4-5-6-8(2)7-9/h7-8H,3,6H2,1-2H3/t8-/m1/s1
