19
gdb 33214	5.5513	0.6524	0.6207	4.2163	78.4	-0.2149	0.0339	0.2488	1774.7708	0.160726	-419.241518	-419.232373	-419.231429	-419.276817	32.634	
O	-0.0298576736	 1.4281231171	-0.307646951	-0.420928
C	 0.0316331056	 0.0451196073	 0.0015658199	-0.072289
C	-1.3832813384	-0.5134601022	-0.0725522793	-0.160074
C	-1.4365839623	-2.0279933741	 0.1997415588	-0.33954
C	-2.8148672219	-2.6029503705	 0.1641753635	 0.312068
C	-3.6001673414	-3.188763908	 1.1247538398	-0.167305
N	-4.8222950428	-3.56540511	 0.6134623393	-0.253124
C	-4.7867296897	-3.2128831251	-0.6488750505	 0.010032
N	-3.5974377724	-2.627410092	-0.9758853817	-0.297346
H	 0.8567839697	 1.7933613454	-0.2365591684	 0.286808
H	 0.6825590287	-0.4944232913	-0.7070341881	 0.082711
H	 0.4434251901	-0.1226457507	 1.0104437984	 0.088013
H	-2.0159486675	 0.0155436234	 0.6480505083	 0.119249
H	-1.7887005099	-0.2885108989	-1.0667735293	 0.097073
H	-0.7887159789	-2.547578838	-0.5213284518	 0.105628
H	-1.0155795655	-2.2375826768	 1.1893586909	 0.119328
H	-3.3466462595	-3.3614579271	 2.1604009581	 0.101725
H	-5.5772670469	-3.351703296	-1.3714984666	 0.12579
H	-3.3370032834	-2.2706664026	-1.8801066704	 0.26218
44.1401	78.3482	90.1374	124.4965	244.1834	263.7401	310.1928	327.9011	462.6211	522.8285	665.579	684.3853	738.2323	755.497	804.1019	845.1919	865.6552	932.8263	1010.0066	1022.0049	1035.2075	1082.8647	1090.6435	1114.1989	1145.9357	1206.0141	1231.633	1255.7549	1271.7275	1303.4494	1308.4585	1316.7095	1378.1148	1386.0062	1427.6117	1464.4173	1480.8895	1497.588	1511.0708	1527.8924	1616.4749	2954.9459	2981.2825	2999.4582	3034.7065	3064.4453	3089.148	3241.2622	3248.6207	3661.5155	3830.3105
OCCCC1=CN=CN1	OCCCc1cnc[nH]1	
InChI=1S/C6H10N2O/c9-3-1-2-6-4-7-5-8-6/h4-5,9H,1-3H2,(H,7,8)	InChI=1S/C6H10N2O/c9-3-1-2-6-4-7-5-8-6/h4-5,9H,1-3H2,(H,7,8)
