19
gdb 57933	3.27428	0.9159	0.88929	2.3105	73.93	-0.249	-0.0116	0.2375	1424.6944	0.156768	-456.381311	-456.370666	-456.369722	-456.418489	36.803	
C	 0.0537782917	 1.3384110185	-0.5367308343	-0.380391
C	-0.0579901424	-0.0669015591	 0.0767771762	-0.083895
N	 0.5913091173	-0.1024246673	 1.3790496445	-0.495722
C	-1.5302346803	-0.4840934385	 0.1290126346	 0.43257
O	-2.1983382896	-0.549148559	 1.1273465194	-0.36068
O	-1.9910325487	-0.775554014	-1.1183537686	-0.240188
C	-3.3308868795	-1.1472278901	-1.2919379314	 0.382687
C	-4.3163037537	-0.052415171	-0.9961571106	-0.478637
N	-3.519502985	-2.3062929525	-1.7421367133	-0.434046
H	 1.1068336187	 1.6211374117	-0.5955427338	 0.137071
H	-0.3848508761	 1.3679569221	-1.5367344024	 0.1305
H	-0.4620792256	 2.0743075183	 0.0903017025	 0.120902
H	 0.4513287931	-0.7736260151	-0.5875704296	 0.116524
H	 0.0311418106	 0.435428593	 2.0367394499	 0.234218
H	 0.5773185314	-1.0527499826	 1.7393618308	 0.234667
H	-5.3266432439	-0.3580789585	-1.2737361098	 0.130277
H	-4.2893418059	 0.1886604888	 0.0690591792	 0.176515
H	-4.0498933991	 0.851951385	-1.5529160715	 0.145702
H	-4.514016643	-2.4663825295	-1.901430282	 0.231926
28.7672	57.5022	69.056	147.9747	164.1789	201.2529	223.5207	251.1122	306.3828	333.9431	423.5864	470.0501	515.3171	575.5115	674.9903	744.6665	814.887	865.1237	913.1446	920.9496	953.5509	1005.8456	1018.343	1068.2367	1076.4582	1088.4139	1163.9747	1179.7214	1278.8313	1319.2949	1331.9574	1394.1676	1402.4465	1411.1223	1469.5616	1489.5038	1491.4942	1498.0059	1672.626	1767.0771	1823.3459	3040.8178	3049.9245	3058.0682	3115.8686	3122.68	3140.7919	3146.6933	3484.2678	3493.2241	3555.0565
CC(N)C(=O)OC(C)=N	C[C@@H](N)C(=O)O[C](C)[NH]	
InChI=1S/C5H10N2O2/c1-3(6)5(8)9-4(2)7/h3,7H,6H2,1-2H3	InChI=1S/C5H10N2O2/c1-3(6)5(8)9-4(2)7/h3,7H,6H2,1-2H3/t3-/m1/s1
