20
gdb 119960	2.43986	1.10385	0.95866	0.9464	78.34	-0.2324	-0.0348	0.1976	1349.121	0.168208	-440.241786	-440.231627	-440.230683	-440.277591	35.473	
C	-0.1728742592	 1.0757131234	 1.1675722132	-0.2281
O	-0.1870420565	-0.2212213519	 0.6183245836	-0.239816
C	 1.0984527766	-0.6652708999	 0.2363775587	-0.095759
C	 0.9382196668	-2.0774625739	-0.2755133444	-0.019832
C	 0.7253869034	-2.3959312076	-1.7501644059	-0.114606
C	 0.6586077321	-1.3019045231	-2.7498731933	 0.155425
O	 1.3825352631	-0.3313473823	-2.8131182222	-0.281466
N	 1.941886322	-2.785640431	-1.0191868565	-0.109776
C	 3.24051589	-2.1868149408	-1.3277739706	-0.330566
H	 0.4477592388	 1.1269884068	 2.076531487	 0.10365
H	 0.2072201319	 1.8193978304	 0.4503134043	 0.112279
H	-1.2028204896	 1.3298943795	 1.4290246351	 0.128137
H	 1.5320396867	-0.0042544142	-0.5237504837	 0.130494
H	 1.7780071915	-0.6738520497	 1.1074488629	 0.090465
H	 0.3670491859	-2.7027637874	 0.4105467699	 0.11152
H	 0.0718833057	-3.2326089508	-1.990000844	 0.099759
H	-0.1572177989	-1.4435555291	-3.4932062714	 0.084886
H	 3.2040127546	-1.1462951127	-1.6610767134	 0.150886
H	 3.8647338427	-2.2658211696	-0.4323558172	 0.124885
H	 3.7080370923	-2.7839820858	-2.1161397319	 0.127536
44.8726	86.3553	122.9584	172.1309	183.7929	204.1347	231.8536	251.8112	278.9861	354.1525	391.5932	476.0773	532.7777	688.1332	772.3238	834.3568	897.3924	956.4003	991.6289	1004.1834	1060.7044	1090.3141	1134.6229	1147.24	1165.1387	1170.487	1181.794	1192.1643	1232.18	1269.6595	1340.732	1361.6553	1389.4363	1431.0059	1448.6593	1458.1648	1480.8631	1485.8512	1486.9847	1502.0693	1517.9376	1530.815	1788.4742	2883.8659	2946.4989	2972.5085	3018.5051	3037.5883	3054.5953	3107.7635	3109.803	3115.9207	3116.8889	3127.7707
COCC1C(C=O)N1C	COC[C@H]1[C@@H](C=O)N1C	
InChI=1S/C6H11NO2/c1-7-5(3-8)6(7)4-9-2/h3,5-6H,4H2,1-2H3	InChI=1S/C6H11NO2/c1-7-5(3-8)6(7)4-9-2/h3,5-6H,4H2,1-2H3/t5-,6+,7?/m1/s1
