18
gdb 112692	2.48951	1.27873	1.07917	3.0789	68.29	-0.2391	0.0199	0.259	1173.5975	0.148681	-476.259473	-476.250623	-476.249679	-476.29333	32.796	
O	 0.0878374431	 1.0905327332	 0.5467416534	-0.429154
C	-0.0533832189	-0.2888667529	 0.237932019	-0.081098
C	-1.5046549542	-0.5038796155	-0.1883631817	 0.013812
C	-1.855972772	-1.9937674999	-0.4172650311	-0.256821
C	-2.473794823	-2.4621020715	 0.9008359909	 0.030052
O	-1.4809373524	-3.083726083	 1.7111703248	-0.439323
C	-2.9056627405	-1.1644620186	 1.6081494726	 0.377681
O	-3.4915262059	-1.1129918282	 2.6705777279	-0.394929
N	-2.4293706981	-0.1198809268	 0.8719270843	-0.292902
H	 0.9416618651	 1.2249202635	 0.9672024854	 0.294313
H	 0.6141957964	-0.5893249888	-0.5851888844	 0.090598
H	 0.1602945897	-0.9292755213	 1.1054274927	 0.111577
H	-1.6932714183	 0.0996644252	-1.0827165391	 0.093507
H	-2.587491413	-2.0823612731	-1.2238963994	 0.115887
H	-0.9832239771	-2.5948778643	-0.6817608588	 0.123649
H	-3.3321164094	-3.1300186807	 0.7560839619	 0.088633
H	-1.8316067393	-3.0883718859	 2.6113598334	 0.294811
H	-2.3754317923	 0.8026807986	 1.2787153783	 0.259707
77.9676	87.5079	156.3209	216.7768	251.3124	258.9245	372.8747	391.8081	440.2149	480.6729	510.415	579.5872	676.3641	746.1203	765.8389	807.4246	911.465	918.6022	974.1811	1028.1051	1043.4544	1081.1826	1110.094	1126.5136	1196.745	1214.3567	1244.0945	1267.3802	1278.0272	1310.0473	1341.379	1356.1498	1399.5467	1411.6	1437.5161	1455.4099	1479.9501	1520.167	1820.5713	2977.3427	3024.8343	3026.8226	3052.9628	3076.284	3123.1284	3621.82	3773.9149	3839.5775
OCC1CC(O)C(=O)N1	OC[C@H]1C[C@@H](O)C(=O)N1	
InChI=1S/C5H9NO3/c7-2-3-1-4(8)5(9)6-3/h3-4,7-8H,1-2H2,(H,6,9)	InChI=1S/C5H9NO3/c7-2-3-1-4(8)5(9)6-3/h3-4,7-8H,1-2H2,(H,6,9)/t3-,4-/m1/s1
