22
gdb 121808	3.34734	0.77997	0.7437	3.9773	84.	-0.2699	0.0373	0.3072	1653.0199	0.191209	-404.369442	-404.358288	-404.357343	-404.406059	39.428	
C	-0.0002911919	 1.5117365534	-0.0231823155	-0.387358
C	 0.0080477953	-0.0067012388	-0.0057540886	-0.032948
O	 0.6692574143	-0.4672108343	-1.1711036081	-0.25497
C	 0.7356992621	-1.8686223879	-1.2601977477	-0.058318
C	 1.4774630549	-2.2346177316	-2.5680346877	 0.057541
C	 0.7019733919	-1.6983679663	-3.7914187612	-0.403974
C	 2.9156477082	-1.6719407256	-2.5432870809	-0.403967
C	 1.5334570398	-3.7032684738	-2.636262585	 0.257971
N	 1.5741819721	-4.8575212739	-2.6840916011	-0.341041
H	 1.0213183721	 1.9017520421	-0.0394595194	 0.128563
H	-0.524141255	 1.883361504	-0.9083554219	 0.128561
H	-0.5052611953	 1.8983424628	 0.8668136841	 0.120387
H	 0.5241800529	-0.3834454856	 0.8926260147	 0.093088
H	-1.0207236059	-0.4019114342	 0.0233766183	 0.093085
H	 1.2742636715	-2.2924533944	-0.3971578339	 0.102466
H	-0.2738856041	-2.3104006966	-1.2701509734	 0.102477
H	 0.6131849142	-0.6135876018	-3.7093336083	 0.140944
H	 1.2241766365	-1.9459051782	-4.7189442144	 0.129497
H	-0.302501193	-2.128136908	-3.8381982541	 0.128784
H	 3.4832222634	-2.0830355033	-1.7038118014	 0.128777
H	 3.4434518103	-1.9192808927	-3.4676892981	 0.12949
H	 2.8716833457	-0.5866359452	-2.4357841165	 0.140946
59.1065	72.943	101.8779	149.4257	182.4257	191.027	222.2306	247.1454	249.5002	293.2831	356.4904	363.7825	406.9441	481.5635	581.6372	587.8084	735.5401	822.3308	890.466	902.988	937.3883	974.0716	1001.7529	1046.6125	1050.9253	1144.8476	1161.2785	1175.9533	1202.5621	1229.3437	1243.5973	1293.4058	1300.3674	1384.3667	1395.3755	1405.4724	1416.9016	1450.9534	1483.285	1484.1604	1487.5505	1495.9425	1499.5461	1508.5032	1515.4508	1536.3538	2353.3281	2959.706	2970.8558	2991.0842	3000.2745	3046.4586	3050.3152	3053.5008	3121.8564	3122.581	3122.8788	3125.2851	3142.5101	3145.7785
CCOCC(C)(C)C#N	CCOCC(C)(C)C#N	
InChI=1S/C7H13NO/c1-4-9-6-7(2,3)5-8/h4,6H2,1-3H3	InChI=1S/C7H13NO/c1-4-9-6-7(2,3)5-8/h4,6H2,1-3H3
