18
gdb 14662	11.84941	0.53927	0.52246	0.0001	97.53	-0.2243	0.0004	0.2247	2162.8841	0.152067	-310.639513	-310.629692	-310.628747	-310.675309	33.581	
C	-0.0526013378	 1.5740512144	 0.0695266614	-0.365475
C	 0.0020300828	 0.035572785	 0.0013759418	-0.342652
C	 0.6790024073	-0.4606746377	-1.187980323	 0.291627
C	 1.2451379182	-0.8564698098	-2.1828748238	-0.231366
C	 1.8807170275	-1.3023424882	-3.2999627057	-0.231204
C	 2.4467983885	-1.6981099504	-4.2948987625	 0.291474
C	 3.1237092611	-2.194467858	-5.4842492977	-0.342649
C	 3.1781853621	-3.7329477822	-5.5523940185	-0.365474
H	 0.9549098518	 1.9980269246	 0.076311925	 0.131589
H	-0.5852159793	 1.9818665062	-0.7935429463	 0.131588
H	-0.5695702324	 1.8942471716	 0.9788978629	 0.116277
H	 0.5077198447	-0.3533475654	 0.8951325724	 0.134203
H	-1.0181623508	-0.3693570934	 0.0333106171	 0.134201
H	 2.6180644419	-1.8054849961	-6.3780049065	 0.134202
H	 4.1439407204	-1.7896365538	-5.5161808881	 0.134201
H	 2.1706334689	-4.1568264261	-5.5591719267	 0.131589
H	 3.6951153846	-4.0532077144	-6.4617656284	 0.116279
H	 3.7107629405	-4.1408187964	-4.6893274634	 0.131589
35.7388	63.0458	87.7459	128.2877	189.119	237.9181	248.6845	297.5968	391.0789	399.1272	520.5574	541.5459	553.6076	613.1897	785.3898	786.1248	854.5189	959.5022	1022.6828	1079.0444	1083.7403	1099.6203	1103.7545	1269.8241	1283.8495	1284.6448	1342.3357	1364.1739	1409.8542	1410.5774	1470.4018	1471.3599	1494.8458	1494.9043	1504.8624	1505.6393	2274.1279	2383.2242	3015.1618	3015.4568	3042.5337	3042.7192	3046.0748	3046.3669	3120.2638	3120.3317	3127.298	3127.3419
CCC#CC#CCC	CCC#CC#CCC	
InChI=1S/C8H10/c1-3-5-7-8-6-4-2/h3-4H2,1-2H3	InChI=1S/C8H10/c1-3-5-7-8-6-4-2/h3-4H2,1-2H3
