20
gdb 111624	3.10432	1.20929	1.14022	1.4431	77.69	-0.2182	0.0654	0.2836	1164.6743	0.172927	-403.089574	-403.081607	-403.080663	-403.12219	31.438	
O	-0.2829027529	 1.592074677	 0.2892597013	-0.428907
C	 0.0590764186	 0.2219589333	 0.1069577119	-0.122258
C	-1.2546871209	-0.5254205769	-0.0010634673	 0.008923
C	-1.8311532318	-1.1741023437	-1.2358820554	-0.073997
C	-0.9134576592	-1.6950991454	-2.3488244168	-0.193255
N	-0.2329218944	-2.9322527078	-1.8826963276	-0.093553
C	 0.8430401478	-2.7479520771	-0.8997976511	-0.261458
C	-0.5323938979	-3.0737784792	-0.4407061532	-0.022842
C	-1.5224245724	-2.0181683074	-0.0085872034	-0.091438
H	 0.5337617123	 2.0981351994	 0.3358980373	 0.285069
H	 0.6741120696	 0.1035887002	-0.7959777958	 0.091646
H	 0.6463163226	-0.1541164389	 0.9598879151	 0.094674
H	-1.9998640915	 0.0115017416	 0.5827714787	 0.103629
H	-2.8506217935	-0.9274317053	-1.5138958682	 0.088494
H	-1.5224245256	-1.9600349606	-3.2184806137	 0.112825
H	-0.1749127831	-0.9593674723	-2.6900274043	 0.106066
H	 1.6032427276	-3.5259952303	-0.9203717363	 0.110799
H	 1.2409026423	-1.7563928658	-0.7245443294	 0.109374
H	-0.7459963292	-4.0812375286	-0.0921900819	 0.088793
H	-2.3177213485	-2.3668118422	 0.64095537	 0.087417
70.6013	172.5258	198.426	258.7155	267.7889	345.3054	404.3903	468.1883	610.7277	662.9276	693.0889	719.3183	778.351	793.2662	841.8048	868.6735	942.3781	962.3688	990.3814	1018.926	1031.3672	1050.1639	1066.9479	1095.1327	1105.9878	1115.5659	1119.1744	1132.7008	1159.5662	1217.0757	1227.2624	1265.4581	1274.1521	1283.0921	1328.0213	1342.4534	1365.0501	1381.6729	1425.8791	1472.2214	1496.9501	1515.5512	1530.1012	2969.9646	3009.8033	3035.9175	3074.7164	3112.0735	3126.8665	3132.9904	3155.8833	3171.058	3219.6261	3827.4184
OCC1C2CN3CC3C12	OC[C@H]1[C@H]2CN3C[C@H]3[C@@H]12	
InChI=1S/C7H11NO/c9-3-5-4-1-8-2-6(8)7(4)5/h4-7,9H,1-3H2	InChI=1S/C7H11NO/c9-3-5-4-1-8-2-6(8)7(4)5/h4-7,9H,1-3H2/t4-,5+,6+,7-,8?/m1/s1
