19
gdb 31965	4.66152	0.88721	0.78897	2.8217	80.22	-0.1917	0.0454	0.2372	1498.6906	0.159731	-419.243491	-419.234131	-419.233187	-419.278532	33.541	
C	 0.236805154	 1.7519607964	-0.0779106751	-0.372597
C	-0.2650385899	 0.2982241638	-0.1376736426	-0.291357
C	 0.5247439476	-0.5747998323	-1.0583259172	 0.341019
N	 0.1125106672	-1.0770843231	-2.1959888975	-0.295959
C	 1.1736612077	-1.7985208526	-2.7183924796	-0.244447
C	 2.2414636586	-1.7182290718	-1.8643722718	 0.399414
N	 1.8311412813	-0.9399813616	-0.8093875995	-0.377835
O	 3.4981879952	-2.2046683319	-1.8457178	-0.262305
C	 3.8314474708	-3.0033251174	-2.9712037833	-0.249268
H	 1.2686113185	 1.8080066008	 0.2858152981	 0.106218
H	 0.2087621273	 2.2116227347	-1.0700291396	 0.132673
H	-0.3849946398	 2.3496920103	 0.5956027624	 0.115924
H	-0.2704425338	-0.1272209868	 0.8750848734	 0.10194
H	-1.2967351673	 0.2734345517	-0.4975847386	 0.133588
H	 1.0979020359	-2.3210298085	-3.6576015043	 0.101317
H	 2.3989587071	-0.7065228593	-0.0121555499	 0.263839
H	 4.8636302507	-3.3253611707	-2.8291506312	 0.136763
H	 3.1756096947	-3.8804281067	-3.0368036214	 0.130551
H	 3.7486767144	-2.4250433448	-3.8999229722	 0.130524
40.1966	72.0531	139.7653	180.852	198.3217	231.2834	286.6439	346.9656	429.2957	479.3433	489.5341	636.3163	673.8062	699.1018	734.0759	774.1488	788.4163	956.5221	996.2	1033.2399	1064.311	1083.2963	1090.4849	1165.3592	1183.9452	1213.344	1227.359	1274.2898	1299.549	1352.1933	1407.804	1440.393	1442.5081	1473.5084	1476.9198	1482.6259	1498.0906	1503.6477	1509.4072	1572.7515	1639.6086	3011.5495	3016.4472	3034.9837	3071.8497	3091.485	3109.9916	3118.1682	3143.8008	3263.6142	3664.2307
CCC1=NC=C(N1)OC	CCc1ncc([nH]1)OC	
InChI=1S/C6H10N2O/c1-3-5-7-4-6(8-5)9-2/h4H,3H2,1-2H3,(H,7,8)	InChI=1S/C6H10N2O/c1-3-5-7-4-6(8-5)9-2/h4H,3H2,1-2H3,(H,7,8)
