19
gdb 6773	4.85772	0.82876	0.80239	5.3928	68.55	-0.2473	0.0219	0.2692	1478.5416	0.165217	-402.234319	-402.225131	-402.224186	-402.269336	32.216	
C	 0.0592330792	 1.3888097828	-0.375207952	-0.380762
C	-0.0515952685	 0.008489862	 0.2769440599	-0.185612
C	-1.4294745645	-0.6217852852	 0.0846571183	-0.120015
N	-1.505614368	-1.946338722	 0.7119327791	-0.320938
H	-0.9849806652	-3.2488579949	-0.6021379631	 0.301522
H	-1.2577967451	-1.8767673422	 1.6921933649	 0.231639
C	-2.7952842576	-2.6156851598	 0.5507987332	-0.310954
C	-2.818792438	-3.4764098236	-0.7239400745	 0.422808
O	-1.5928822496	-3.7320514025	-1.204779582	-0.362688
O	-3.826969851	-3.8994053076	-1.2191207775	-0.331577
H	 1.0525610768	 1.8189426377	-0.2194874243	 0.120818
H	-0.1132954329	 1.3314781291	-1.4552635294	 0.123884
H	-0.6752398065	 2.0864698037	 0.0414133784	 0.119637
H	 0.7080796907	-0.666964571	-0.1335105639	 0.109927
H	 0.1583448546	 0.0919074561	 1.3523699517	 0.09568
H	-2.2099481393	 0.0554783734	 0.4729210779	 0.095832
H	-1.6323007191	-0.7483086381	-0.9863943858	 0.122176
H	-2.9584176853	-3.2980113143	 1.3918497391	 0.139059
H	-3.6546246006	-1.9329632738	 0.5172563499	 0.129566
56.7507	69.8533	82.9003	147.3428	196.501	237.3768	317.975	362.9497	397.0594	544.1975	562.2492	664.1323	758.4876	768.0858	861.1626	875.7934	898.1588	919.8734	957.9811	1040.9944	1062.6395	1135.8801	1142.7314	1167.8144	1216.0176	1257.8929	1274.568	1321.034	1334.5878	1354.9633	1403.7857	1417.0714	1427.5657	1467.8473	1480.7219	1488.844	1501.6833	1504.3502	1520.2403	1880.4555	2955.6459	3013.2816	3022.5894	3035.6198	3043.7967	3063.8957	3082.4449	3102.6682	3111.6894	3472.0917	3537.4434
CCC[NH2+]CC([O-])=O	CCCNCC(=O)O	
InChI=1S/C5H11NO2/c1-2-3-6-4-5(7)8/h6H,2-4H2,1H3,(H,7,8)	InChI=1S/C5H11NO2/c1-2-3-6-4-5(7)8/h6H,2-4H2,1H3,(H,7,8)
