13
gdb 29077	2.71718	1.77502	1.07365	3.2455	75.68	-0.2475	-0.0912	0.1562	1015.013	0.090658	-452.771243	-452.764117	-452.763173	-452.804074	26.221	
O	-0.038848365	 1.320798204	 0.0074327634	-0.338725
C	 0.0251766309	-0.0091159507	 0.0023967501	 0.33966
N	 1.1992082995	-0.5502035707	-0.0072565518	-0.362655
C	 1.4982546587	-1.8730095527	-0.0142821549	 0.007562
C	 0.6881000205	-2.9752880331	-0.0165673224	-0.010543
N	-0.6692142343	-3.0650500427	-0.0126524393	-0.23459
C	-1.5112604528	-2.0860386686	-0.0021028157	-0.04912
C	-1.350853887	-0.6191599379	 0.0095490853	 0.270044
O	-2.3310485038	 0.1024060433	 0.023373779	-0.314749
H	 0.8791445734	 1.6350862916	 0.0021169327	 0.309002
H	 2.5689014056	-2.0678843378	-0.019636127	 0.125242
H	 1.190949183	-3.9392325467	-0.02342489	 0.120317
H	-2.5695697888	-2.3544374879	-0.0006308295	 0.138556
23.5983	151.3893	335.4357	353.5143	359.	397.003	458.9497	523.9373	630.5179	664.9019	682.3469	750.3665	784.441	862.9558	868.7941	971.5464	989.145	999.2043	1101.5153	1242.1923	1266.387	1362.9743	1412.8404	1433.0629	1478.1473	1518.3344	1624.4981	1655.4582	1730.6459	3118.2643	3144.1717	3166.7865	3732.1132
OC1=NC=CN=CC1=O	Oc1nccncc1=O	
InChI=1S/C5H4N2O2/c8-4-3-6-1-2-7-5(4)9/h1-3H,(H,7,8,9)	InChI=1S/C5H4N2O2/c8-4-3-6-1-2-7-5(4)9/h1-3H,(H,7,8,9)
