17
gdb 96701	3.16984	1.0416	0.80587	4.0982	77.29	-0.2415	-0.0598	0.1817	1406.9905	0.132785	-455.184349	-455.174161	-455.173217	-455.220985	34.464	
C	-0.6880214972	 1.8292499402	-0.7900651591	-0.325647
N	-0.8777636563	 0.4085590044	-0.5753434921	-0.282945
C	 0.0481631791	-0.444927576	-0.7309868033	 0.309143
N	-0.2934045086	-1.7956750961	-0.5408126139	-0.362212
C	 0.6047438779	-2.7968049665	-0.2357821136	 0.410303
C	-0.0292741512	-4.1386961697	 0.0732670485	-0.497679
O	 1.8055265535	-2.6036324788	-0.2266424836	-0.343456
C	 1.4609380196	-0.1841939247	-1.2249803251	 0.106839
O	 2.0948499293	 0.7853774515	-0.8944833625	-0.249078
H	-0.6504639559	 2.3262968281	 0.1867552421	 0.141169
H	 0.2176928238	 2.1043750384	-1.3374564171	 0.140217
H	-1.5695929152	 2.2183099116	-1.3100676355	 0.124526
H	-1.2811595108	-1.9490236551	-0.388792583	 0.25748
H	-0.6824528887	-4.4624200746	-0.7430051747	 0.146583
H	 0.7608307673	-4.8731017899	 0.2234955201	 0.160623
H	-0.6375976578	-4.07380771	 0.9818598316	 0.150162
H	 1.8281588112	-0.9054026127	-1.9769711189	 0.113972
37.3163	61.6303	95.4751	100.9955	127.5172	227.9563	268.1717	307.5696	353.8895	367.7653	398.0056	522.2737	593.9025	607.1699	660.321	722.4175	858.2736	952.0379	973.5223	1000.6411	1054.1389	1088.7925	1129.7006	1155.8293	1243.4289	1276.5807	1388.8757	1426.1624	1445.0866	1463.4518	1480.8257	1481.224	1490.0754	1509.6984	1720.3209	1782.4179	1809.3025	2966.6344	3026.2213	3045.8618	3081.0416	3109.4134	3110.1709	3168.4318	3595.3866
CN=C(NC(C)=O)C=O	CN=C(NC(=O)C)C=O	
InChI=1S/C5H8N2O2/c1-4(9)7-5(3-8)6-2/h3H,1-2H3,(H,6,7,9)	InChI=1S/C5H8N2O2/c1-4(9)7-5(3-8)6-2/h3H,1-2H3,(H,6,7,9)
