13
gdb 132073	2.32981	1.83459	1.02638	5.4	67.29	-0.2022	-0.032	0.1702	1032.3084	0.089269	-502.021589	-502.014405	-502.013461	-502.053254	27.587	
F	 0.0024264648	 0.0240443905	 0.0034103315	-0.055973
C	-0.0158671968	 1.3542612165	 0.0108332511	 0.20076
C	-1.2011301403	 2.014015755	 0.0306898798	 0.077151
F	-2.3478747403	 1.3509597301	 0.0428832929	-0.039779
C	-1.2787398158	 3.4667303903	 0.0396394529	 0.296013
N	-2.4018608871	 4.0824744984	 0.0584375061	-0.551873
N	-0.0034310689	 4.0663972178	 0.0252349215	-0.393021
C	 1.1908665949	 3.400223837	 0.0052378264	 0.038998
C	 1.2310881615	 2.0477672577	-0.0025828693	-0.29649
H	-2.2795149367	 5.0954254063	 0.062217614	 0.19845
H	 0.0052994196	 5.0749056221	 0.0304791813	 0.256707
H	 2.0772983104	 4.0205750657	-0.0036155045	 0.141477
H	 2.1598335245	 1.4971937726	-0.0182652937	 0.127578
126.2705	196.2261	286.2876	287.3582	330.4239	486.275	505.2398	516.0488	551.543	559.5297	644.0374	701.0824	720.7506	734.9413	770.4992	862.0581	901.8852	1016.9293	1094.102	1152.8563	1222.9798	1276.0253	1288.8491	1378.4815	1459.5013	1493.1264	1628.4693	1696.4358	1728.3329	3221.3772	3249.571	3470.9264	3626.3558
FC1=C(F)C(=N)NC=C1	FC1=CCNC(=C1F)[NH]	
InChI=1S/C5H4F2N2/c6-3-1-2-9-5(8)4(3)7/h1-2H,(H2,8,9)	InChI=1S/C5H5F2N2/c6-3-1-2-9-5(8)4(3)7/h1,8-9H,2H2
