19
gdb 116547	2.87352	0.973	0.85984	2.3393	78.77	-0.2443	-0.0126	0.2318	1437.1965	0.157629	-456.367784	-456.357424	-456.35648	-456.404655	35.409	
C	 1.0020174977	 2.1040857658	-0.8377444849	-0.363732
C	 0.2430800461	 0.7927851273	-0.6075399425	-0.131856
N	 0.8384222126	-0.2969269154	-1.3684128338	-0.324283
C	 1.6261868072	-1.099901844	-0.7907586545	 0.460065
N	 2.0940290351	-2.2020088977	-1.5522400332	-0.35207
C	 3.3669260838	-2.723981266	-1.6114910126	 0.155235
O	 4.272820735	-2.5131883335	-0.8410372647	-0.295413
O	 2.0457106947	-0.984996967	 0.4805788453	-0.236384
C	 2.1965184868	-2.1565172556	 1.2970616643	-0.258223
H	 2.0216503425	 2.0329673519	-0.4473510114	 0.125885
H	 1.0607741752	 2.3337473557	-1.9056294905	 0.123076
H	 0.496975022	 2.933048482	-0.3317468626	 0.109633
H	 0.2086653115	 0.5729426401	 0.4671990189	 0.098924
H	-0.78846112	 0.9083157501	-0.9598906658	 0.097805
H	 1.5356628537	-2.3220332487	-2.3865278874	 0.267122
H	 3.4599577381	-3.4093383873	-2.476383078	 0.093305
H	 1.3399935726	-2.8273300549	 1.1760799758	 0.124386
H	 3.1272961901	-2.6719680573	 1.0586267044	 0.165885
H	 2.2243747251	-1.7901792654	 2.3242835832	 0.140639
27.5093	56.2563	110.7666	144.9764	159.109	210.7315	227.9889	251.3298	291.4448	336.4453	380.9732	515.3684	581.0196	665.0613	725.8018	776.9858	824.9199	880.5743	922.6171	1028.9791	1057.2817	1066.6545	1112.6249	1166.2452	1173.5673	1184.6824	1216.7541	1297.4244	1310.2021	1375.22	1401.0116	1443.7205	1478.0628	1484.1074	1488.1184	1489.7689	1494.2913	1511.9385	1521.0401	1755.2452	1820.6953	2946.4646	3015.4654	3038.2842	3043.8456	3055.7309	3111.3578	3118.2766	3132.0357	3159.1249	3602.9212
CCN=C(NC=O)OC	CCN=C(NC=O)OC	
InChI=1S/C5H10N2O2/c1-3-6-5(9-2)7-4-8/h4H,3H2,1-2H3,(H,6,7,8)	InChI=1S/C5H10N2O2/c1-3-6-5(9-2)7-4-8/h4H,3H2,1-2H3,(H,6,7,8)
