22
gdb 121995	2.50694	0.72069	0.58741	3.4093	81.43	-0.2285	-0.0259	0.2026	1913.8013	0.190349	-441.458629	-441.447331	-441.446387	-441.496931	38.176	
C	 0.3944990673	 1.3995447801	 0.3597057619	-0.226596
O	 0.4629362982	-0.0013220183	 0.24737895	-0.228675
C	-0.2948034897	-0.5051818593	-0.8285850699	-0.060057
C	-0.124266142	-2.0223898114	-0.8323967247	-0.163374
N	-0.9276724122	-2.6781743765	-1.8636938233	-0.0814
C	-0.3673973468	-2.5248015591	-3.2007210218	-0.324309
C	-1.1907789381	-4.0692544191	-1.5394680251	-0.229796
C	-2.1880031746	-4.2006783356	-0.39795007	 0.15131
O	-2.236274203	-5.1328018012	 0.3601653234	-0.237917
H	 0.7803510995	 1.9014512293	-0.5420884509	 0.103298
H	-0.637211774	 1.7465920097	 0.5286721894	 0.105262
H	 1.009091618	 1.6899432169	 1.2151661886	 0.128859
H	-1.3626559502	-0.255387731	-0.7173895004	 0.094326
H	 0.0468801883	-0.0584806699	-1.7770133543	 0.085198
H	 0.9496773074	-2.268139953	-0.9218253291	 0.09512
H	-0.4450899978	-2.3862488598	 0.1494997478	 0.121016
H	 0.6284517875	-2.9933236804	-3.3088918887	 0.100216
H	-1.0392907758	-2.9783102924	-3.9355212123	 0.121551
H	-0.2686954327	-1.4662077441	-3.4530274575	 0.125626
H	-1.6654550508	-4.5461217768	-2.4090681113	 0.126463
H	-0.2926349896	-4.6661248568	-1.3012160904	 0.109161
H	-2.9068915488	-3.3513993115	-0.3412419014	 0.084717
39.1568	52.969	80.7009	114.4217	120.1883	147.1949	193.3503	227.9862	258.9743	316.5794	335.5415	406.1637	436.8481	483.0007	555.7161	758.7083	816.1641	894.5397	996.8495	1043.2205	1052.5795	1080.6435	1084.4572	1107.326	1163.0952	1168.3508	1178.2732	1197.4315	1223.6773	1238.5819	1267.5864	1293.0281	1326.1276	1352.7733	1371.1327	1402.9345	1437.4054	1452.6807	1476.1924	1481.676	1485.2416	1490.7134	1500.0533	1506.5426	1508.6588	1533.0452	1840.2978	2876.874	2937.3267	2943.3404	2956.5799	2958.542	2972.6861	2992.7618	3013.0424	3029.7277	3069.4124	3073.0503	3114.8746	3116.6391
COCCN(C)CC=O	COCCN(C)CC=O	
InChI=1S/C6H13NO2/c1-7(3-5-8)4-6-9-2/h5H,3-4,6H2,1-2H3	InChI=1S/C6H13NO2/c1-7(3-5-8)4-6-9-2/h5H,3-4,6H2,1-2H3
