16
gdb 94142	1.91959	1.73313	1.18649	3.0187	76.57	-0.2504	-0.0075	0.2428	1085.2579	0.123899	-396.868643	-396.859658	-396.858714	-396.902293	33.249	
N	 0.2230944535	 1.4069166277	-0.0978376181	-0.49328
C	 0.0882452895	-0.0085539389	 0.0413207658	-0.009179
C	 0.1446525768	-0.5022167171	 1.5047637977	-0.179467
N	-1.3310216952	-0.6188329943	 1.5211104227	-0.33113
C	-1.4165086508	-0.6330182965	 0.0403491706	-0.054818
C	-2.4663842463	 0.1847053548	-0.5415647019	 0.274565
C	-3.284614692	 0.9133313392	-1.03532302	-0.396045
C	-1.411362802	-1.9833699255	-0.5382599626	 0.24538
N	-1.3589059751	-3.0618602318	-0.9538200491	-0.341768
H	 0.0186497226	 1.7065523497	-1.0458526167	 0.242912
H	-0.4188852711	 1.8971594371	 0.5180699703	 0.246674
H	 0.7435190598	-0.5168340239	-0.6659430465	 0.113082
H	 0.6859825573	-1.4505678013	 1.6060124458	 0.118932
H	 0.539991812	 0.2186889861	 2.2261123009	 0.118877
H	-1.7281298054	-1.4291231718	 1.984424222	 0.23849
H	-4.0316546834	 1.5348176065	-1.4650464608	 0.206775
83.2826	123.2789	129.5878	170.9131	234.4399	311.3833	333.5228	404.8886	482.4618	500.6556	546.7313	582.2484	598.3299	650.869	663.4698	706.2978	828.6738	837.4164	890.5324	979.8367	1007.4476	1031.2464	1060.1909	1120.1771	1147.2997	1192.0507	1256.3914	1281.6649	1312.5244	1380.0237	1428.5811	1518.1415	1664.1002	2236.767	2337.8949	3028.0228	3088.1985	3117.1123	3498.1145	3500.9244	3537.7881	3581.8405
NC1CNC1(C#C)C#N	N[C@H]1CN[C@]1(C#C)C#N	
InChI=1S/C6H7N3/c1-2-6(4-7)5(8)3-9-6/h1,5,9H,3,8H2	InChI=1S/C6H7N3/c1-2-6(4-7)5(8)3-9-6/h1,5,9H,3,8H2/t5-,6+/m0/s1
