13
gdb 23539	2.08184	1.81251	1.08643	4.875	66.59	-0.2744	-0.0298	0.2446	1046.2168	0.087965	-452.656939	-452.649219	-452.648275	-452.689587	28.138	
O	-0.0818060945	 1.2932132196	 0.0383866754	-0.373977
N	 0.0536166956	-0.0892193381	-0.0709000616	-0.239568
C	-1.060531953	-0.6744706832	 0.0283594868	 0.448251
C	-1.4415766526	-2.1131061303	-0.0956720122	-0.084995
O	-2.2584945798	-2.4122743454	 1.0582557758	-0.214016
C	-2.8762382697	-1.7504253707	-0.0274440937	 0.029478
C	-2.5442038039	-0.2340675255	 0.1018588962	-0.300624
C	-3.0298110103	 0.4515378508	 1.2880799295	 0.311223
N	-3.4337963116	 0.9912928387	 2.2262189358	-0.323371
H	 0.8288204949	 1.602818889	-0.0298663767	 0.319707
H	-0.9275403751	-2.93199763	-0.5793433643	 0.137441
H	-3.7457703896	-2.1972860768	-0.4918629296	 0.135981
H	-2.8064198005	 0.3349032519	-0.7965710013	 0.154471
89.1915	126.8226	163.2453	225.7062	331.6091	390.9589	442.3	462.9549	524.4469	608.9375	658.2978	730.6008	810.5374	844.1255	868.6133	911.3135	1001.101	1005.0907	1039.1464	1055.1786	1116.589	1163.6678	1221.1074	1253.9746	1309.7763	1358.369	1421.1106	1794.1507	2365.009	3069.3137	3209.3351	3230.8978	3808.475
ON=C1C2OC2C1C#N	ON=C1[C@H]2O[C@H]2[C@H]1C#N	
InChI=1S/C5H4N2O2/c6-1-2-3(7-8)5-4(2)9-5/h2,4-5,8H	InChI=1S/C5H4N2O2/c6-1-2-3(7-8)5-4(2)9-5/h2,4-5,8H/t2-,4-,5+/m0/s1
