19
gdb 19359	3.9217	1.7032	1.47735	1.8051	74.54	-0.2013	0.082	0.2833	937.3907	0.165744	-327.844603	-327.837135	-327.836191	-327.876177	29.631	
C	-0.1215487347	 1.5592649418	 0.1316250376	-0.377584
C	 0.084207068	 0.0432956387	 0.0078321694	-0.306083
C	 0.7593232965	-0.3750312901	-1.2647678453	 0.358461
N	 1.4873243574	-1.6636749699	-1.3937538615	-0.387782
C	 2.1765338176	-0.3740130009	-1.6839229962	-0.119557
C	 1.789932768	 0.0866569077	-3.1183837464	-0.051947
C	 0.8220395871	-0.8556710526	-3.7826632594	-0.291159
C	 0.3252982307	 0.0709635745	-2.7035666921	-0.103095
H	 0.8342204955	 2.0906642594	 0.0841311544	 0.119227
H	-0.7576406067	 1.944280001	-0.6711730968	 0.123176
H	-0.6018021164	 1.8088188973	 1.0824863082	 0.113984
H	 0.6858920578	-0.3126525963	 0.8548312254	 0.092632
H	-0.8864891967	-0.4661010161	 0.0866688556	 0.107021
H	 1.7669593854	-1.9390821023	-0.4522307999	 0.221036
H	 3.0722409006	-0.0901983342	-1.1453829117	 0.087307
H	 2.3259426751	 0.8593595759	-3.6537108842	 0.085651
H	 0.5321172118	-0.5630415082	-4.7875127263	 0.102517
H	 0.8838218587	-1.9219987691	-3.6094679927	 0.140989
H	-0.4269126358	 0.8279346232	-2.8835433082	 0.085208
85.9655	154.0143	208.0307	277.3814	363.5358	421.4257	482.2382	539.2706	612.777	717.0565	747.7744	777.9629	825.2924	844.8475	890.0626	910.0528	924.0535	944.587	963.8548	1005.2901	1015.5951	1041.8647	1053.947	1086.9579	1101.0167	1110.5604	1140.4369	1184.4679	1218.5458	1265.799	1295.2365	1317.8265	1341.6196	1361.6061	1409.2765	1446.8705	1465.8269	1477.366	1498.6814	1507.5378	3005.4169	3038.6705	3039.7507	3109.6703	3110.8094	3136.8523	3184.6261	3190.5113	3200.4653	3233.5433	3466.1947
CCC12NC1C1CC21	CC[C@]12N[C@H]1[C@H]1C[C@@H]21	
InChI=1S/C7H11N/c1-2-7-5-3-4(5)6(7)8-7/h4-6,8H,2-3H2,1H3	InChI=1S/C7H11N/c1-2-7-5-3-4(5)6(7)8-7/h4-6,8H,2-3H2,1H3/t4-,5+,6-,7+/m0/s1
