19
gdb 14153	4.08125	1.56352	1.37211	1.9889	71.55	-0.2296	0.085	0.3146	970.3036	0.166269	-365.032146	-365.024422	-365.023478	-365.064395	29.243	
C	-0.1592138537	 1.428001958	-0.1375281056	-0.315471
N	 0.0614536729	 0.0019825344	 0.0345975394	-0.1169
C	 1.4267867122	-0.4896122688	-0.1313020482	-0.30398
C	 0.7782900367	-0.4901690296	 1.208466868	 0.322997
C	 1.2701449734	 0.378412286	 2.373714985	-0.31467
C	 0.649972042	-0.3330525074	 3.5867344265	-0.077838
O	 0.6053891604	-1.7064241992	 3.2282898337	-0.245176
C	 0.2052664851	-1.7536886878	 1.8676297402	-0.135142
H	 0.6960668714	 2.0589746137	 0.1557075891	 0.100285
H	-0.3741160226	 1.6248525114	-1.1926721593	 0.125541
H	-1.0313412054	 1.73896422	 0.4474364814	 0.121673
H	 1.5399657589	-1.4126009903	-0.6964810034	 0.111986
H	 2.2138301777	 0.246116909	-0.3027509139	 0.102748
H	 2.3620214989	 0.354873951	 2.4376763957	 0.113963
H	 0.9605943766	 1.4233671775	 2.2955442535	 0.106239
H	 1.2376233956	-0.2420489176	 4.5033636521	 0.10888
H	-0.3649631718	 0.0511370292	 3.7843225924	 0.088681
H	-0.8918441215	-1.7427598364	 1.7709614071	 0.097692
H	 0.5835644231	-2.6842925231	 1.4355236265	 0.108494
52.8199	179.0599	212.4734	257.6117	265.5753	357.883	439.674	452.0969	513.6997	643.7918	744.6754	769.1993	870.1761	912.9421	923.9357	964.019	979.8065	1020.0153	1060.4929	1098.4125	1107.2392	1123.0597	1149.5486	1163.9873	1202.1862	1209.7872	1224.3381	1247.5335	1268.2966	1305.7899	1343.7726	1388.3322	1416.3613	1449.0293	1482.509	1492.4887	1498.5796	1504.5651	1513.5331	1520.6561	2963.2188	2966.4767	2983.2432	3056.906	3063.6844	3072.6336	3084.43	3097.2038	3099.0774	3107.8932	3158.924
CN1CC11CCOC1	CN1C[C@]21CCOC2	
InChI=1S/C6H11NO/c1-7-4-6(7)2-3-8-5-6/h2-5H2,1H3	InChI=1S/C6H11NO/c1-7-4-6(7)2-3-8-5-6/h2-5H2,1H3/t6-,7?/m1/s1
