17
gdb 87922	3.68564	1.13734	1.04499	5.3164	69.13	-0.2719	0.0437	0.3155	1186.7713	0.135689	-459.00306	-458.994908	-458.993964	-459.036361	30.097	
C	-0.1477809339	 1.4873278351	-0.0162562742	-0.416049
C	 0.012457045	-0.0128824547	 0.078182877	-0.064598
C	 1.3479753679	-0.6840366699	-0.2168676378	-0.362984
C	 0.806274832	-0.6660457409	 1.1722801958	 0.395026
C	 1.4337672432	 0.0316411451	 2.3685474421	-0.175067
O	 0.9095291031	-0.6971409048	 3.4826951693	-0.243129
C	 0.3151651551	-1.8405932955	 3.0543303039	 0.487685
O	-0.1322400911	-2.6804994973	 3.7662744181	-0.371408
O	 0.3067010682	-1.8881754174	 1.6970050849	-0.268223
H	 0.7605991937	 2.0140052044	 0.2952990491	 0.116606
H	-0.3567606856	 1.7875820434	-1.0480739265	 0.131961
H	-0.9731665733	 1.8431890278	 0.6095100571	 0.130876
H	-0.8568316322	-0.5900376671	-0.2251331434	 0.114298
H	 1.340937185	-1.6343628295	-0.7384867274	 0.13936
H	 2.2036730541	-0.0504515799	-0.4334529207	 0.121341
H	 2.526991289	-0.0434711348	 2.3777849954	 0.128725
H	 1.1438792396	 1.0801642361	 2.4658267773	 0.135581
52.1978	139.2156	186.6365	201.4693	223.304	323.0288	416.1879	468.0013	511.5832	557.2089	726.6372	770.7011	795.3738	820.0123	878.1314	894.8651	931.9696	963.606	1017.85	1052.8835	1091.6919	1102.3185	1112.7758	1132.1264	1151.1883	1181.721	1220.7066	1249.5967	1346.0157	1392.1492	1410.7279	1428.9771	1485.9101	1492.0211	1505.2506	1526.2637	1929.3757	3031.0239	3040.9648	3095.3054	3099.734	3105.306	3124.9975	3153.3714	3220.3963
CC1CC11COC(=O)O1	C[C@H]1C[C@]21COC(=O)O2	
InChI=1S/C6H8O3/c1-4-2-6(4)3-8-5(7)9-6/h4H,2-3H2,1H3	InChI=1S/C6H8O3/c1-4-2-6(4)3-8-5(7)9-6/h4H,2-3H2,1H3/t4-,6+/m0/s1
