18
gdb 60500	2.07463	1.44334	0.93241	3.7523	77.26	-0.2831	-0.0825	0.2006	1257.7648	0.145747	-401.959471	-401.949925	-401.94898	-401.994762	33.878	
C	-0.1952738788	 1.8793916645	 0.7029588001	-0.401801
C	-0.1012733736	 0.4568747123	 0.1464322491	-0.123966
C	 0.7245892992	-0.4651361299	 1.0411977365	 0.021558
C	 1.456159866	-1.6650134874	 0.4895183608	-0.268784
C	 2.2306470133	-0.4552488014	 0.9413913162	-0.27645
C	-1.4837685115	-0.1485955018	-0.0352691271	 0.288362
O	-2.5040473335	 0.2880912883	 0.4340081103	-0.270966
C	-1.5287379007	-1.3859125568	-0.8523781605	 0.253567
N	-1.5725126507	-2.3305745641	-1.5181109278	-0.315411
H	 0.8074765004	 2.2998717407	 0.8122014514	 0.123453
H	-0.7782480617	 2.5274907447	 0.0434040119	 0.128986
H	-0.6812551338	 1.8809575544	 1.6819048321	 0.13799
H	 0.3721897611	 0.4670947251	-0.8455742683	 0.104096
H	 0.3139938709	-0.5716900934	 2.0422078305	 0.100761
H	 1.4907871967	-2.5616463867	 1.0973822424	 0.125423
H	 1.3901549108	-1.8581987173	-0.5752062653	 0.132928
H	 2.6803321238	 0.1719508666	 0.1784049651	 0.118222
H	 2.8022238121	-0.5147653478	 1.8605376623	 0.122032
34.2575	88.6528	132.2239	168.1103	204.2419	236.5161	264.1658	316.4945	339.1979	398.0067	510.7953	604.3748	691.0992	771.442	788.3805	831.2831	838.3018	933.5319	944.7242	992.1398	1033.7047	1062.9219	1085.7664	1090.9044	1140.3	1142.2825	1195.6364	1197.8188	1225.8026	1279.1947	1348.3698	1396.7696	1411.913	1472.5632	1489.4062	1493.2608	1504.9601	1793.5794	2334.7476	3013.3068	3052.2484	3126.1652	3130.4643	3133.4508	3139.6135	3145.5993	3214.8755	3231.8774
CC(C1CC1)C(=O)C#N	C[C@@H](C1CC1)C(=O)C#N	
InChI=1S/C7H9NO/c1-5(6-2-3-6)7(9)4-8/h5-6H,2-3H2,1H3	InChI=1S/C7H9NO/c1-5(6-2-3-6)7(9)4-8/h5-6H,2-3H2,1H3/t5-/m0/s1
