21
gdb 109952	2.15015	1.47909	1.06351	2.0797	79.06	-0.2492	0.0624	0.3116	1227.8495	0.180565	-424.185598	-424.176071	-424.175127	-424.219951	35.205	
C	 0.2058518872	 1.6572260955	-0.4275167782	-0.241151
O	-0.1534965476	 0.2915273798	-0.4075784256	-0.240866
C	 0.6322335888	-0.516506965	-1.2370266972	 0.055593
C	 1.9572464231	-1.1602318101	-0.6790678266	-0.042814
C	 2.0299851155	-1.2083767319	 0.8438370465	-0.386721
C	 1.5185987919	-2.5103485746	-1.3355628036	-0.340589
C	 0.1082065789	-1.9297907273	-1.4526214198	 0.428372
C	-1.1688100322	-2.4752391624	-0.9951186706	-0.256364
O	-0.8801409813	-2.2977978651	-2.3917229429	-0.280665
H	 1.2264661382	 1.8232817406	-0.0533421349	 0.109233
H	 0.1374193218	 2.0758168139	-1.4430745017	 0.110813
H	-0.4960157372	 2.186045171	 0.2216611283	 0.128971
H	 0.8139006587	-0.0222267513	-2.2042444006	 0.07373
H	 2.874639298	-0.7330389137	-1.0913778062	 0.069327
H	 1.1113678329	-1.6181359144	 1.27443063	 0.124622
H	 2.8666810354	-1.8361036891	 1.1679106763	 0.112191
H	 2.1732790337	-0.2106915185	 1.2701625677	 0.116771
H	 1.9722570024	-2.6755215396	-2.3166288051	 0.113122
H	 1.6390902793	-3.4126690905	-0.7311514157	 0.106453
H	-1.222602117	-3.5100070577	-0.6584069694	 0.111596
H	-1.9190044804	-1.8017532597	-0.5863817209	 0.128375
81.3428	99.1437	154.7884	175.4881	217.3724	240.3882	263.9343	305.7288	349.7814	391.1682	490.3829	527.5892	629.1816	798.3494	810.3191	832.9871	879.5561	899.0593	923.0802	962.4022	1023.9639	1049.3097	1083.6795	1120.6815	1129.8422	1152.1913	1162.6832	1174.0165	1181.8044	1186.4512	1213.0673	1238.5759	1267.3543	1285.4188	1357.1481	1389.6067	1414.4849	1438.8482	1478.6047	1484.7087	1488.6122	1495.1779	1495.9675	1509.4121	1532.8207	2978.3734	2986.0414	3032.0622	3036.3326	3058.8017	3071.2787	3085.1184	3102.009	3110.7236	3114.9805	3117.006	3179.5308
COC1C(C)CC11CO1	CO[C@H]1[C@@H](C)C[C@]21CO2	
InChI=1S/C7H12O2/c1-5-3-7(4-9-7)6(5)8-2/h5-6H,3-4H2,1-2H3	InChI=1S/C7H12O2/c1-5-3-7(4-9-7)6(5)8-2/h5-6H,3-4H2,1-2H3/t5-,6-,7+/m0/s1
