16
gdb 5115	3.43663	2.06972	1.31301	2.9614	67.37	-0.1898	0.0487	0.2385	908.5869	0.130352	-379.962634	-379.954105	-379.953161	-379.996519	29.716	
C	 0.0444691414	 1.4544874597	 0.0092386992	-0.348174
N	 0.0404255767	 0.0053456798	 0.0046571976	-0.083901
C	 0.0567404691	-0.8006847472	-1.1093425345	 0.323908
O	 0.0786941435	-0.206264982	-2.330034238	-0.442925
C	 0.0457779427	-2.093263372	-0.6648082261	-0.233575
N	 0.0227605364	-2.1014690544	 0.7174380036	-0.297938
C	 0.019983562	-0.8457893307	 1.0936524416	 0.330238
C	-0.0020222676	-0.353047889	 2.5000663618	-0.499134
H	 0.926554469	 1.842400216	 0.5285014426	 0.139598
H	 0.0619804764	 1.8058403477	-1.0224169976	 0.162925
H	-0.8515941747	 1.8473971606	 0.5000204684	 0.139602
H	 0.0877162205	-0.8956746811	-3.0006534028	 0.310858
H	 0.0528995004	-3.0032327442	-1.2448187865	 0.094227
H	 0.8790117653	 0.2542944026	 2.742882215	 0.125088
H	-0.8872484263	 0.2592060007	 2.7135252011	 0.125088
H	-0.015458105	-1.2188599765	 3.1634298146	 0.154116
23.5942	133.0605	150.8194	198.8072	226.7153	263.9812	305.4405	351.6649	508.8953	600.8052	662.639	682.5591	739.5708	753.5399	756.3081	973.1186	1005.5549	1059.6405	1122.3576	1152.5662	1177.2512	1210.4595	1274.1049	1312.6024	1392.2075	1413.9103	1456.0978	1477.8668	1480.5216	1495.1898	1510.7475	1537.407	1579.4827	1619.2003	3017.8741	3039.3159	3061.653	3095.6606	3144.9498	3156.2047	3243.647	3849.7898
CN1C(O)=CN=C1C	Cn1c(O)cnc1C	
InChI=1S/C5H8N2O/c1-4-6-3-5(8)7(4)2/h3,8H,1-2H3	InChI=1S/C5H8N2O/c1-4-6-3-5(8)7(4)2/h3,8H,1-2H3
