15
gdb 66421	2.42501	1.30386	1.16603	2.1769	68.46	-0.2534	-0.04	0.2134	1101.4771	0.109935	-457.749683	-457.741244	-457.7403	-457.783062	30.634	
O	-0.0449862652	 1.4125216385	 0.0800199214	-0.438285
C	-0.0162536782	 0.0497330905	-0.0352905013	 0.268859
C	-1.1898381012	-0.9316550393	-0.0792386489	-0.129052
C	-0.5036343698	-1.7830579626	-1.1590658495	-0.363527
C	 0.6654759989	-0.7572823195	-1.119864741	 0.33365
O	 1.6181311486	-0.5579134774	-1.8142933468	-0.30489
C	-0.359529769	-0.8586033017	 1.1786361476	-0.180725
C	 0.5434260479	-1.9175983036	 1.6972952694	 0.144241
O	 0.7357548117	-2.0995239201	 2.8748578163	-0.259915
H	 0.7856922991	 1.7135817347	 0.4667722052	 0.30817
H	-2.2423766409	-0.6833165055	-0.0545520536	 0.127866
H	-0.289493184	-2.8303931346	-0.9391308207	 0.13365
H	-1.0053191444	-1.7163951845	-2.129169964	 0.145971
H	-0.8139324965	-0.2661234361	 1.9684076934	 0.128406
H	 1.0651073727	-2.5323872589	 0.9330720826	 0.085582
81.9573	110.1907	163.1106	225.5291	233.2939	281.0411	347.8382	448.1038	469.959	501.3646	595.5302	650.0246	685.2675	807.5249	840.9501	900.1767	961.1488	991.6015	1021.3729	1039.1547	1045.8261	1120.8916	1123.781	1184.7582	1212.424	1276.0288	1296.8996	1314.7673	1423.4214	1463.0438	1473.4227	1810.1167	1888.3644	2902.3906	3068.448	3124.9109	3162.2973	3213.6979	3795.2163
OC12C(CC1=O)C2C=O	O[C@@]12[C@@H](CC1=O)[C@H]2C=O	
InChI=1S/C6H6O3/c7-2-4-3-1-5(8)6(3,4)9/h2-4,9H,1H2	InChI=1S/C6H6O3/c7-2-4-3-1-5(8)6(3,4)9/h2-4,9H,1H2/t3-,4+,6+/m0/s1
