17
gdb 105122	2.37698	1.22015	0.96496	2.5703	78.6	-0.3041	-0.0139	0.2902	1251.3571	0.13531	-380.894163	-380.884942	-380.883998	-380.928443	33.058	
C	-0.3102914702	 1.5165299759	 0.0953743348	-0.394367
C	 0.1975941613	 0.0819384778	-0.0781791199	-0.259705
C	 0.8024681719	-0.4887954752	 1.2010257573	 0.154625
C	-0.0999232449	-1.0985307276	 2.2510184348	-0.301203
C	 0.8048177027	-2.009644123	 1.4502847027	-0.226249
C	 0.2542195731	-2.8863072849	 0.45503104	 0.302658
N	-0.1899124541	-3.5919923513	-0.3465937968	-0.328954
C	 1.981974625	 0.1946095026	 1.678122059	 0.259162
N	 2.925431394	 0.7507549476	 2.0499738559	-0.337338
H	 0.4992472325	 2.1913061742	 0.3894881702	 0.145777
H	-0.7322877561	 1.8855055082	-0.8431685409	 0.129808
H	-1.0905347075	 1.5718663128	 0.8613080086	 0.12329
H	-0.618937495	-0.575648536	-0.3921805439	 0.131345
H	 0.9517579676	 0.0412377714	-0.8716075234	 0.131564
H	 0.1454843143	-0.958089391	 3.2962631807	 0.155301
H	-1.1582939686	-1.1190938976	 2.0192504015	 0.153234
H	 1.6754456342	-2.4061249941	 1.9606173193	 0.161053
81.9691	109.114	121.2034	154.8556	216.0715	257.0829	265.4308	344.4763	393.9374	506.4758	548.3373	574.9096	635.8477	663.1809	786.5557	808.0419	880.3022	913.767	963.8157	1013.0182	1016.3462	1088.7271	1096.2765	1115.9953	1133.6097	1241.7308	1278.3142	1322.0821	1367.2872	1399.2003	1417.1587	1474.9522	1487.5195	1499.1072	1506.8082	2352.8269	2357.6084	3041.9429	3050.183	3088.3376	3115.434	3121.6067	3152.4382	3181.0555	3249.0735
CCC1(CC1C#N)C#N	CC[C@]1(C[C@H]1C#N)C#N	
InChI=1S/C7H8N2/c1-2-7(5-9)3-6(7)4-8/h6H,2-3H2,1H3	InChI=1S/C7H8N2/c1-2-7(5-9)3-6(7)4-8/h6H,2-3H2,1H3/t6-,7-/m0/s1
