19
gdb 15251	2.54675	1.7752	1.40818	1.5051	73.7	-0.229	-0.0342	0.1948	1000.4869	0.16362	-365.042698	-365.033663	-365.032719	-365.076276	32.383	
C	 0.4362686554	-0.2641759382	-1.7633626491	-0.382336
C	 0.1712686409	-0.5487668346	-0.2803102246	-0.217482
C	-1.2899250441	-0.8501465208	-0.0191377856	 0.01589
C	-1.8666387767	-2.2647724988	-0.0160712295	-0.121945
C	-0.9943969242	-3.4379002741	-0.2617036058	 0.148843
O	 0.1300457053	-3.6112980806	 0.1585538651	-0.279123
N	-1.8047365272	-1.4248230279	 1.1938107176	-0.108881
C	-0.9241210138	-1.7727478633	 2.3074293409	-0.330323
H	 1.481377737	 0.0138571261	-1.9262325485	 0.119104
H	 0.2255892132	-1.1456731795	-2.3777031806	 0.121685
H	-0.1889450111	 0.5564417335	-2.1325442524	 0.115401
H	 0.7988404124	-1.3759195035	 0.0559921018	 0.141711
H	 0.4460803398	 0.3306779372	 0.3170586473	 0.104197
H	-1.9655484153	-0.1099753612	-0.4530648119	 0.09819
H	-2.8758158137	-2.4000265873	-0.4014975696	 0.095383
H	-1.476992694	-4.2091952291	-0.9036134735	 0.081256
H	 0.0100071563	-2.2653986332	 2.0242987517	 0.14998
H	-0.7005482384	-0.8518086918	 2.8548163921	 0.123623
H	-1.4746834117	-2.4377479328	 2.9794821645	 0.124829
65.2313	144.5361	174.379	186.077	200.9473	232.2077	252.9811	298.8469	383.059	445.2217	532.0762	676.5302	756.4163	794.5162	833.2214	860.1206	963.163	979.0347	1013.2448	1062.9339	1069.1137	1116.4748	1149.981	1160.8847	1170.551	1201.2663	1293.2947	1335.9476	1348.4324	1384.7947	1411.7354	1427.8063	1434.6625	1454.5693	1484.0528	1489.2677	1499.8638	1505.0179	1518.9344	1786.6	2874.8546	3025.1122	3033.6505	3036.7226	3078.0526	3094.0246	3106.5701	3111.1798	3113.619	3121.5712	3127.5441
CCC1C(C=O)N1C	CC[C@H]1[C@@H](C=O)N1C	
InChI=1S/C6H11NO/c1-3-5-6(4-8)7(5)2/h4-6H,3H2,1-2H3	InChI=1S/C6H11NO/c1-3-5-6(4-8)7(5)2/h4-6H,3H2,1-2H3/t5-,6+,7?/m0/s1
