23
gdb 104843	2.21834	1.20833	1.13001	3.1861	81.39	-0.2419	0.0575	0.2994	1275.0124	0.204974	-425.41108	-425.400926	-425.399982	-425.445739	38.396	
C	-0.6300616993	 1.2409508675	-0.043142234	-0.420167
C	 0.1775366282	-0.0506555	-0.091161967	-0.003776
C	 1.6141485444	-0.0276485818	-0.6810657317	-0.240219
C	 2.0514799184	-1.0448219399	 0.4052342704	-0.248091
C	 0.759534134	-0.7118857708	 1.2133115503	 0.285772
C	 1.0235412826	 0.3104863898	 2.3154262283	-0.144033
O	 1.8047318195	-0.3152362332	 3.3408356204	-0.427575
C	-0.0211321343	-1.9164138347	 1.7486942341	-0.117079
O	 0.7446573275	-2.758957177	 2.5875767668	-0.433393
H	-0.0817205094	 2.0529178777	 0.4462808112	 0.111185
H	-0.8666698775	 1.5775237704	-1.058749979	 0.116726
H	-1.5796841931	 1.1084974794	 0.48712366	 0.115871
H	-0.4121563641	-0.8140398271	-0.6122785108	 0.073109
H	 1.7278218169	-0.3222813585	-1.7272767679	 0.095074
H	 2.0907769553	 0.9496828862	-0.5516825897	 0.094885
H	 2.0409640073	-2.0770568754	 0.0472305898	 0.107939
H	 3.0016018365	-0.8676010657	 0.9127989311	 0.105094
H	 1.5634787885	 1.1814068576	 1.9167253436	 0.092118
H	 0.068263367	 0.6689489933	 2.7279561753	 0.093204
H	 1.8768414925	 0.2890783995	 4.0851124266	 0.293314
H	-0.937876371	-1.5624705723	 2.2568450764	 0.06912
H	-0.3455484585	-2.5380955556	 0.9055544982	 0.092422
H	 1.1933755986	-2.1762170894	 3.2145818676	 0.2885
81.6178	118.5984	143.2823	188.7055	211.1519	235.6394	267.041	282.7266	310.6438	360.4865	432.4863	454.2834	516.5079	540.9226	618.9401	738.3437	795.3518	892.1464	902.9894	934.235	950.6406	965.3701	979.1044	1008.6568	1045.5304	1077.2814	1097.0374	1129.8505	1167.7657	1180.5243	1206.8514	1224.5104	1243.6733	1256.8158	1266.7785	1270.2436	1319.2305	1332.83	1372.2342	1380.7004	1409.5601	1455.6528	1470.1315	1484.8595	1495.1044	1497.0824	1500.8927	1506.3904	1523.4659	2925.133	2979.6061	3016.1752	3025.8619	3029.1482	3045.4931	3047.8062	3070.3363	3089.3695	3093.6098	3098.7429	3123.7041	3748.9972	3834.2723
CC1CCC1(CO)CO	C[C@H]1CCC1(CO)CO	
InChI=1S/C7H14O2/c1-6-2-3-7(6,4-8)5-9/h6,8-9H,2-5H2,1H3	InChI=1S/C7H14O2/c1-6-2-3-7(6,4-8)5-9/h6,8-9H,2-5H2,1H3/t6-/m0/s1
