15
gdb 116639	2.7648	0.86604	0.66373	10.9989	93.04	-0.1816	-0.0479	0.1337	1607.0794	0.112216	-412.977086	-412.967165	-412.966221	-413.013055	33.228	
C	 0.0643802721	 1.4433125689	 0.1384493422	-0.330661
N	-0.100543901	 0.012602766	-0.0752705316	-0.314579
C	 0.5505609037	-0.6330693428	-1.0693495111	 0.169217
N	 0.6752952087	-1.931627613	-1.1517969308	-0.316316
H	 0.3100455398	-2.5025756703	-0.3975617366	 0.283007
C	 1.2515172438	-2.6938164512	-2.2011357402	-0.003896
C	 1.7427267451	-1.9921311525	-3.2990801098	 0.201031
N	 2.1195300799	-1.3038205535	-4.1628561275	-0.392714
C	 1.2848292558	-4.0760323862	-2.0193836385	 0.158976
N	 1.2821678335	-5.2239373948	-1.8138284174	-0.376216
H	 0.9542278429	 1.6826351535	 0.7342338644	 0.1477
H	 0.1484384662	 1.9434021137	-0.8293519804	 0.165193
H	-0.8190231766	 1.8351460455	 0.6466310356	 0.154226
H	-0.4162245966	-0.5278217879	 0.7166927398	 0.262821
H	 0.9584930626	-0.0397875856	-1.8793033982	 0.192215
58.275	91.3682	102.6309	128.4365	134.2511	173.4497	237.8653	282.5584	415.3469	439.0459	486.1785	502.928	566.383	595.6971	601.3071	744.8403	820.2961	942.449	1031.7803	1147.0941	1157.2599	1217.257	1270.397	1346.9736	1390.3487	1409.6449	1472.1315	1488.8137	1505.1722	1540.5319	1747.9738	2258.4672	2291.2974	3022.9188	3103.7008	3140.2357	3218.2699	3564.1401	3609.585
CNC=[NH+][C-](C#N)C#N	CN[CH][NH]=C(C#N)C#N	
InChI=1S/C5H6N4/c1-8-4-9-5(2-6)3-7/h4,8-9H,1H3	InChI=1S/C5H6N4/c1-8-4-9-5(2-6)3-7/h4,8-9H,1H3
