21
gdb 31663	2.2752	1.34905	0.86242	1.2785	89.34	-0.1672	0.0567	0.2239	1390.7291	0.182429	-383.30029	-383.290144	-383.2892	-383.335437	36.697	
C	-0.0187414699	 1.410625671	-0.0014648049	-0.317632
N	-0.1604611429	-0.030790242	 0.0755232501	-0.382123
C	 0.5825068883	-0.69363948	 1.0615802865	 0.195934
C	 1.252595351	-0.1388235844	 2.1341773861	-0.19066
N	 1.8073104205	-1.1708209297	 2.8686338813	 0.011469
C	 2.4720314882	-1.0180615581	 4.1405852163	-0.332317
C	 1.4901760557	-2.3594705396	 2.2695758545	-0.179468
C	 0.7347115057	-2.1146173353	 1.1440037791	 0.180483
C	 0.1821014773	-3.1170844279	 0.1791169658	-0.515888
H	 1.0265301799	 1.7491254515	-0.1060487592	 0.10122
H	-0.5954403519	 1.78855071	-0.8495579264	 0.115043
H	-0.4247312826	 1.868132305	 0.908192437	 0.126054
H	-0.0692351178	-0.4740809362	-0.8287478999	 0.226944
H	 1.3802156043	 0.8854680866	 2.4419404616	 0.102308
H	 1.7621364019	-0.8675417286	 4.964301125	 0.130349
H	 3.0615149227	-1.9135167613	 4.3511830717	 0.134392
H	 3.1521662258	-0.1610281497	 4.110998427	 0.132803
H	 1.8236094346	-3.2952511673	 2.6922491843	 0.107401
H	-0.9048960887	-3.0169762946	 0.0691474063	 0.125473
H	 0.6129869492	-3.0130148142	-0.8268217179	 0.110508
H	 0.3892441487	-4.1386551453	 0.5110964657	 0.117707
81.8793	89.6467	141.2244	148.9687	171.9088	208.3157	241.0596	249.1773	329.7896	360.1634	517.6885	560.1504	597.9096	605.8378	616.4082	657.9532	717.3095	735.365	830.3053	1002.887	1029.898	1062.5815	1069.9302	1090.7699	1144.2743	1147.6462	1160.5377	1190.6157	1224.6648	1257.1206	1379.8339	1403.576	1413.1118	1434.8869	1456.6672	1466.7857	1479.1834	1482.1094	1484.9092	1499.101	1504.0069	1519.0404	1527.3368	1588.3124	1636.8782	2954.7396	3002.039	3013.8394	3048.8568	3052.6637	3078.274	3100.7665	3110.3943	3122.419	3243.5406	3268.2103	3563.4486
CNC1=CN(C)C=C1C	CNc1cn(C)cc1C	
InChI=1S/C7H12N2/c1-6-4-9(3)5-7(6)8-2/h4-5,8H,1-3H3	InChI=1S/C7H12N2/c1-6-4-9(3)5-7(6)8-2/h4-5,8H,1-3H3
