16
gdb 10377	2.78848	1.93266	1.41636	2.1733	71.54	-0.2507	-0.0301	0.2206	916.4734	0.128463	-346.568372	-346.560251	-346.559307	-346.601034	29.705	
O	-0.1192145656	 0.0783610055	-0.3648733694	-0.246634
C	 0.0342123076	 1.1850712696	 0.0795437339	 0.112097
C	 1.3491414058	 1.9591601225	 0.0398406924	 0.065533
C	 2.5163195273	 1.1275625108	-0.5800788174	-0.255546
C	 2.2119758432	 1.7553900219	-1.9650035764	-0.216177
C	 1.3633258742	 2.849853936	-1.2707317992	-0.260541
C	 1.5562143226	 2.6388239595	 1.3018001862	 0.210259
C	 1.7082364573	 3.1959380569	 2.3572437615	-0.409906
H	-0.805030005	 1.7543754612	 0.535063313	 0.092848
H	 3.4796334763	 1.4379347564	-0.172676718	 0.113712
H	 2.4018043294	 0.0472324393	-0.4876275751	 0.129005
H	 3.0651799803	 2.1029047012	-2.5497056458	 0.106295
H	 1.6048755529	 1.0941380366	-2.5864265639	 0.124418
H	 0.3886237336	 3.0981766754	-1.6990954274	 0.113981
H	 1.9152815317	 3.7738217464	-1.0895132865	 0.123707
H	 1.8561163584	 3.6887686208	 3.2863023621	 0.196948
79.0186	109.4185	165.8724	178.8156	272.2762	297.3201	496.1108	506.2299	531.7721	608.9904	622.2237	642.8935	729.2364	792.7563	868.6261	872.5582	948.7592	951.9861	974.5544	1047.7168	1082.4407	1166.0666	1199.231	1217.1196	1253.4806	1265.4533	1280.8201	1285.2414	1414.3447	1465.3928	1479.5751	1499.4644	1826.4598	2228.7125	2899.1638	3063.5409	3077.7663	3085.2808	3117.3049	3133.7017	3150.2297	3500.7228
O=CC1(CCC1)C#C	O=CC1(CCC1)C#C	
InChI=1S/C7H8O/c1-2-7(6-8)4-3-5-7/h1,6H,3-5H2	InChI=1S/C7H8O/c1-2-7(6-8)4-3-5-7/h1,6H,3-5H2
