19
gdb 98086	3.65607	1.01845	0.8257	2.0994	79.3	-0.2446	-0.0542	0.1903	1417.0478	0.157656	-419.201954	-419.19228	-419.191336	-419.23748	34.314	
C	-0.0683898557	 1.5174976142	-0.0449754929	-0.382438
C	-0.0224747439	-0.0024814956	-0.1743351723	-0.269948
C	 0.5579212052	-0.4663616239	-1.4943444895	 0.366905
O	 0.9282292533	 0.2967447372	-2.3579245008	-0.307074
C	 0.676525937	-1.9759824101	-1.6994862288	 0.218115
N	 0.4147928787	-2.7442168798	-0.7131439846	-0.495729
N	 0.979671888	-2.3621552828	-2.9965966684	-0.067832
C	 2.1851882041	-1.9998464019	-3.7115891814	-0.203396
C	 1.9122836167	-3.4224022865	-3.3248002388	-0.246268
H	 0.9333278486	 1.949889976	-0.1166228715	 0.126019
H	-0.6703504775	 1.9629376023	-0.8414241313	 0.128757
H	-0.5001383086	 1.8059330019	 0.9173190373	 0.110545
H	 0.5583094085	-0.4689599326	 0.6294463234	 0.14219
H	-1.0189964336	-0.4510290593	-0.0759815196	 0.137053
H	 0.53384407	-3.726992188	-0.9725254164	 0.218779
H	 2.0438681865	-1.6725586843	-4.7369491424	 0.133254
H	 2.9598292609	-1.4709374069	-3.1647944494	 0.136115
H	 2.4996783327	-3.844692532	-2.5111554095	 0.124439
H	 1.575635429	-4.137945348	-4.0692087831	 0.130511
45.0097	63.6409	109.0197	154.2025	196.1913	220.3987	252.6618	328.1467	373.6795	416.9569	491.7508	645.4741	660.5053	732.513	807.8435	825.7276	828.4192	907.7857	966.0607	989.7825	1026.9961	1049.7185	1084.7609	1090.7396	1127.2908	1134.1439	1139.4835	1169.1307	1173.3837	1263.8353	1308.9394	1368.1874	1415.3533	1425.7248	1437.8494	1494.153	1495.8363	1498.5418	1524.2159	1684.677	1796.4592	3046.1246	3049.731	3073.9205	3100.4777	3120.9226	3123.0021	3123.3644	3189.2685	3212.9793	3438.1444
CCC(=O)C(=N)N1CC1	CCC(=O)[C]([NH])N1CC1	
InChI=1S/C6H10N2O/c1-2-5(9)6(7)8-3-4-8/h7H,2-4H2,1H3	InChI=1S/C6H10N2O/c1-2-5(9)6(7)8-3-4-8/h7H,2-4H2,1H3
