21
gdb 110208	2.12911	1.62821	1.10609	1.1657	79.92	-0.2428	0.078	0.3208	1186.3936	0.180784	-424.175353	-424.165885	-424.164941	-424.209151	35.962	
C	-0.0137507172	 1.337784673	 0.286974003	-0.247527
O	-0.0583010931	 0.0299496103	-0.253375781	-0.265508
C	-1.297505934	-0.5918611226	-0.082776971	 0.106384
C	-1.3360115526	-2.1109616929	-0.4051907048	 0.282961
C	-1.0821920442	-2.7503043028	-1.7414859793	-0.512481
C	-0.5422163092	-2.3447819869	 0.924190442	-0.334622
C	-1.6398964531	-1.2897982998	 1.2603131805	 0.350718
O	-1.8507219348	-0.6028420875	 2.4434931565	-0.47606
C	-2.64297792	-2.15987168	 0.4464937592	-0.33042
H	 0.9786930916	 1.7412678415	 0.0721737322	 0.122028
H	-0.7694618018	 1.9893678588	-0.1785669678	 0.103646
H	-0.1793898941	 1.3345145406	 1.371795501	 0.130471
H	-2.1068892463	 0.0162148269	-0.5163282023	 0.055794
H	-0.0868735947	-2.4847092358	-2.1120848317	 0.131825
H	-1.1394589673	-3.8419771463	-1.6758704896	 0.117298
H	-1.8170811295	-2.4187957018	-2.4831932588	 0.117811
H	-0.6593663136	-3.3318608889	 1.3821166615	 0.077531
H	 0.49078797	-1.9991902635	 0.9390225043	 0.110133
H	-1.9853773244	-1.2425564673	 3.1511811388	 0.28264
H	-3.5226931967	-1.6554543477	 0.0355052358	 0.090147
H	-2.8954072749	-3.1346367075	 0.8717713013	 0.087231
91.9852	146.0682	177.4085	207.4377	217.0627	225.375	260.5658	310.36	375.9135	419.5256	500.1189	539.2087	594.291	619.5036	677.0966	753.9068	831.5112	921.7899	945.7488	974.0406	1008.4311	1046.7552	1055.2312	1070.9734	1109.3962	1121.506	1131.4128	1147.0071	1173.1592	1185.9323	1194.4274	1210.3516	1236.0889	1297.9958	1339.6133	1369.7993	1410.3332	1422.8383	1480.5282	1487.032	1488.9436	1490.5473	1493.4219	1512.2839	1545.0001	2980.5753	2988.4635	3029.8943	3047.2866	3052.347	3056.0723	3095.2408	3102.3737	3114.7184	3117.2239	3148.8795	3803.8236
COC1C2(C)CC1(O)C2	CO[C@H]1[C@@]2(C)C[C@]1(O)C2	
InChI=1S/C7H12O2/c1-6-3-7(8,4-6)5(6)9-2/h5,8H,3-4H2,1-2H3	InChI=1S/C7H12O2/c1-6-3-7(8,4-6)5(6)9-2/h5,8H,3-4H2,1-2H3/t5-,6-,7-/m0/s1
