19
gdb 72752	2.4986	1.74298	1.51675	2.3463	74.58	-0.228	0.0573	0.2853	977.0835	0.159485	-422.974515	-422.9668	-422.965855	-423.00643	31.004	
O	 0.1429136499	 1.420574728	 0.0787029884	-0.471303
C	-0.0117155994	 0.0387321832	-0.0271070795	 0.28633
C	 0.258334138	-0.6710730056	 1.3188602607	-0.124579
O	-1.0697662522	-1.2594846354	 1.3481678631	-0.330115
C	-1.348975298	-0.7668394284	 0.0502301645	 0.42676
C	-2.6954075176	-0.3499104551	-0.5052601599	-0.331807
C	-2.1611790306	-0.7630493178	-1.9195678143	-0.235382
C	-0.9309109228	-1.4871522622	-1.2774650826	-0.081165
C	 0.4128004536	-0.7108682632	-1.3217106957	-0.330252
H	-0.0441259369	 1.817178746	-0.7783601233	 0.281814
H	 1.0494464807	-1.4294956083	 1.3214403663	 0.101557
H	 0.4041125013	 0.029899292	 2.1464938483	 0.118048
H	-3.496231177	-1.0145962682	-0.1672540874	 0.117026
H	-3.0073574993	 0.6863921516	-0.3451620302	 0.10143
H	-2.8271116097	-1.4123209768	-2.4899182515	 0.111769
H	-1.8869589946	 0.0846570509	-2.5542775357	 0.093508
H	-0.9127311736	-2.5718295124	-1.3822229099	 0.071435
H	 0.5280656982	-0.0569284399	-2.1945138897	 0.090177
H	 1.32120423	-1.3138875981	-1.2303790615	 0.104749
96.7307	174.2522	227.2274	308.9483	348.2937	387.1058	391.7772	492.3316	499.6894	611.6707	696.5728	710.5406	794.4176	806.3004	863.6796	899.2627	918.4655	924.3982	974.8973	989.5583	1010.1492	1064.2626	1081.284	1098.9805	1104.2467	1154.6984	1160.5359	1192.0535	1211.7378	1228.0382	1248.7689	1263.4212	1273.8989	1303.2875	1314.5459	1343.0795	1392.9817	1473.0348	1476.9379	1494.3186	1507.9733	3027.8363	3030.9887	3049.6637	3059.1855	3083.4718	3092.6783	3097.1688	3110.1624	3125.2624	3814.8479
OC12COC11CCC1C2	O[C@@]12CO[C@]31CC[C@H]3C2	
InChI=1S/C7H10O2/c8-6-3-5-1-2-7(5,6)9-4-6/h5,8H,1-4H2	InChI=1S/C7H10O2/c8-6-3-5-1-2-7(5,6)9-4-6/h5,8H,1-4H2/t5-,6-,7+/m0/s1
