18
gdb 84284	3.16143	1.66304	1.48757	3.2166	75.34	-0.2468	-0.0244	0.2224	954.0682	0.149312	-401.892683	-401.885727	-401.884783	-401.923766	28.406	
C	 0.0375025849	 1.559094613	-0.020909554	-0.375338
C	 0.0176926411	 0.0329247938	-0.0102828258	 0.023853
N	 0.8664280047	-0.4598449037	-1.1313776441	-0.21813
C	 1.5266377191	-1.4365750164	-0.6626455372	 0.258372
O	 2.875543962	-1.5928149433	-0.888875276	-0.257778
C	 3.3060841334	-0.8149207013	 0.2843613365	-0.092942
C	 2.1827747035	-0.9806601013	 1.3587260799	-0.10232
C	 0.645640799	-0.6341421038	 1.2292673534	-0.064488
C	 1.2037691163	-1.9223131805	 0.7478901399	-0.15721
H	 1.0640360072	 1.932116946	 0.0371826018	 0.120392
H	-0.41493422	 1.9451417936	-0.9379194611	 0.127969
H	-0.5221419307	 1.9484369033	 0.8364956167	 0.109144
H	-1.0230553315	-0.3117705572	-0.1004257162	 0.085776
H	 4.239833732	-1.2559359143	 0.6429279092	 0.122844
H	 3.4700209972	 0.2179059691	-0.036712867	 0.126368
H	 2.5183606674	-1.0983657716	 2.3840064594	 0.101212
H	 0.1302243892	-0.5620731154	 2.1828201136	 0.08901
H	 0.9721352753	-2.9447197802	 1.0159039911	 0.103265
136.6706	213.8063	242.3596	287.286	415.7689	517.2573	535.838	603.3648	636.3717	696.9733	746.5601	789.9961	823.0977	843.3047	880.5994	914.6722	925.2069	956.3991	988.9896	1025.3622	1050.9832	1058.5485	1097.2639	1104.132	1109.7144	1141.6613	1173.6188	1206.8752	1266.4076	1288.7655	1311.062	1327.4032	1359.6803	1379.8823	1404.8547	1483.2604	1489.2922	1493.9892	1662.9884	2995.8974	3038.5531	3050.8881	3109.919	3112.857	3124.7538	3154.7967	3165.9575	3196.4307
CC1N=C2OCC3C1C23	C[C@H]1[N][C]2OC[C@H]3[C@@H]1[C@@H]23	
InChI=1S/C7H9NO/c1-3-5-4-2-9-7(8-3)6(4)5/h3-6H,2H2,1H3	InChI=1S/C7H9NO/c1-3-5-4-2-9-7(8-3)6(4)5/h3-6H,2H2,1H3/t3-,4+,5-,6+/m1/s1
