17
gdb 47772	2.06162	1.66984	1.21657	2.6538	73.89	-0.2353	-0.0326	0.2027	1074.6502	0.135507	-421.807787	-421.79944	-421.798496	-421.840921	31.341	
O	 0.0145696958	-0.0216203756	 0.0909143199	-0.29566
C	-0.0125933286	 1.1789933648	 0.0125732875	 0.386007
C	-1.3110572465	 1.9833040399	-0.0416671094	-0.177378
O	-1.2904303313	 2.9668037405	-1.0617572284	-0.246234
C	-0.2066352091	 3.8754366747	-0.9322592843	-0.075951
C	 1.1282771075	 3.1528369182	-1.0954056459	-0.228476
C	 1.2757653053	 2.0355168698	-0.0286872077	-0.25273
C	 1.5063933791	 2.5828812345	 1.3055153658	 0.325259
C	 1.6733055888	 3.0384786717	 2.4058695258	-0.48126
H	-2.1391743511	 1.3046702981	-0.2530494855	 0.135902
H	-1.4717082413	 2.4445168823	 0.9486690034	 0.120184
H	-0.3439206521	 4.6223620477	-1.7184495667	 0.116308
H	-0.2481256605	 4.3880782102	 0.0419771416	 0.106407
H	 1.1640484883	 2.6953334421	-2.08986208	 0.118775
H	 1.9630863095	 3.8560598604	-1.015048378	 0.116106
H	 2.0953871512	 1.3577912099	-0.2885791398	 0.12641
H	 1.8358941253	 3.4309344009	 3.3794706718	 0.206331
77.5431	128.6286	130.4273	220.3908	324.1008	347.4085	412.4971	441.6356	479.13	530.554	600.8295	638.7529	641.3721	690.646	769.0536	863.3462	873.0488	944.8894	980.8667	1026.7934	1060.2877	1099.0576	1127.06	1169.7403	1223.2464	1247.1584	1282.3504	1303.7005	1327.2258	1359.4154	1373.3484	1410.5477	1469.4088	1474.3363	1496.0973	1836.0945	2228.4281	2960.8601	2986.4322	3044.8586	3060.9029	3094.9035	3098.8337	3123.2113	3501.3844
O=C1COCCC1C#C	O=C1COCC[C@H]1C#C	
InChI=1S/C7H8O2/c1-2-6-3-4-9-5-7(6)8/h1,6H,3-5H2	InChI=1S/C7H8O2/c1-2-6-3-4-9-5-7(6)8/h1,6H,3-5H2/t6-/m1/s1
