17
gdb 80310	3.56528	1.14865	1.10393	3.8559	81.46	-0.2368	-0.052	0.1848	1149.7881	0.137252	-380.870822	-380.862999	-380.862055	-380.90314	29.903	
C	-0.1854649155	 1.5417597774	 0.0649194523	-0.429279
C	 0.0243158267	 0.0505501752	-0.0323781874	 0.021419
C	 0.6008407654	-0.669194334	-1.2210287024	-0.094141
C	 1.3734155121	 0.1257463336	-2.1991103878	-0.163029
C	 2.4474331038	 0.6740374094	-1.6091673735	 0.174911
C	 2.5141015182	 0.2492540983	-0.1455798577	-0.266653
N	 1.3333580284	-0.6098839167	 0.0751689757	-0.120142
C	 3.3956013605	 1.5414036802	-2.2090398694	 0.203673
N	 4.1962614477	 2.2467262807	-2.6616431007	-0.332682
H	 0.4648729437	 2.1145097125	-0.598355164	 0.133214
H	-1.2224111463	 1.7843188208	-0.1876955043	 0.130414
H	-0.01012818	 1.8806149607	 1.092300706	 0.132785
H	-0.7295282226	-0.5192128879	 0.5096945098	 0.103588
H	 0.1830400227	-1.6245179966	-1.5283752275	 0.107383
H	 1.1000264083	 0.2396848078	-3.2401046294	 0.130423
H	 3.4244558663	-0.3250301698	 0.0605472866	 0.135428
H	 2.5126524107	 1.1080299286	 0.5363020535	 0.132687
98.8722	162.2658	190.4984	242.5945	266.542	366.3325	473.5553	502.52	552.7245	566.7883	608.6774	719.0786	754.9643	764.9424	890.7139	900.0567	912.5274	971.4994	1007.7948	1026.5671	1064.7782	1080.2741	1136.9473	1163.1804	1186.509	1212.4085	1276.4624	1294.3969	1331.3194	1363.2775	1401.8532	1423.0766	1487.2331	1497.606	1503.083	1661.6822	2333.0227	3033.2579	3039.8449	3065.4262	3098.1606	3108.8611	3137.0312	3142.2042	3225.3881
CC1C2C=C(CN12)C#N	C[C@H]1[C@H]2C=C(CN12)C#N	
InChI=1S/C7H8N2/c1-5-7-2-6(3-8)4-9(5)7/h2,5,7H,4H2,1H3	InChI=1S/C7H8N2/c1-5-7-2-6(3-8)4-9(5)7/h2,5,7H,4H2,1H3/t5-,7+,9?/m0/s1
