20
gdb 53509	5.48485	0.66552	0.63337	3.0445	84.73	-0.2374	0.0442	0.2816	1808.2464	0.169572	-403.09738	-403.087065	-403.086121	-403.134182	36.314	
C	 0.0028982163	 1.4042245667	-0.2175336831	-0.4999
C	 0.0170094239	-0.0503979901	-0.1396819938	 0.125308
C	 0.0693155433	-1.2527289214	-0.0655350085	-0.016471
C	 0.0381291595	-2.7097479501	 0.0058386875	-0.365284
C	-1.4066042978	-3.2346522988	 0.2035799424	 0.101241
O	-2.2668374586	-2.7303927236	-0.8021667396	-0.440184
C	-1.4445277352	-4.7489162774	 0.1408705519	 0.01824
C	-2.6819258419	-5.462129669	-0.2470659065	-0.251851
N	-1.5224179032	-5.4240930482	-1.1628580384	-0.32611
H	 0.8944278641	 1.8313645701	 0.2544322796	 0.153739
H	-0.0192508436	 1.7490623616	-1.2570247687	 0.15087
H	-0.8724042398	 1.8232161358	 0.2906853982	 0.150068
H	 0.4452318446	-3.1423279067	-0.9165175088	 0.140346
H	 0.6662932606	-3.0688591013	 0.8303358253	 0.128425
H	-1.7508116826	-2.9099492247	 1.1994309432	 0.079434
H	-2.0800319099	-1.7869938301	-0.8858748047	 0.288865
H	-0.768169452	-5.226339719	 0.8481066199	 0.086094
H	-2.8995426603	-6.43776546	 0.1782316733	 0.111763
H	-3.5477684767	-4.8586082084	-0.4991366167	 0.127327
H	-1.7105392008	-4.7093364053	-1.8643394827	 0.23808
34.172	52.1328	74.1765	107.234	207.6482	221.4084	276.3978	283.1903	368.3688	389.101	401.9962	430.0106	543.4275	632.1649	751.4837	810.3334	857.6431	865.212	941.0528	993.8771	1002.3142	1038.4821	1053.3419	1056.6224	1096.6757	1132.9901	1151.4329	1163.3355	1190.8273	1233.734	1259.8517	1284.2903	1305.9982	1317.9039	1366.3335	1406.5874	1415.6052	1451.5302	1467.149	1477.9882	1479.0318	1504.6492	2363.061	2964.9593	3026.3358	3029.1241	3065.0714	3090.3006	3091.3133	3116.1094	3122.0593	3209.9913	3485.6307	3772.0094
CC#CCC(O)C1CN1	CC#CC[C@@H](O)[C@H]1CN1	
InChI=1S/C7H11NO/c1-2-3-4-7(9)6-5-8-6/h6-9H,4-5H2,1H3	InChI=1S/C7H11NO/c1-2-3-4-7(9)6-5-8-6/h6-9H,4-5H2,1H3/t6-,7-/m1/s1
