18
gdb 55087	3.87718	1.0951	0.94416	4.2105	74.21	-0.2279	0.029	0.2569	1250.5583	0.145759	-439.070952	-439.061862	-439.060918	-439.105251	33.263	
C	-0.0770641266	 1.4183331101	-0.1630423548	-0.487353
C	 0.0004834272	-0.0964562103	-0.0552032267	 0.36719
O	 1.0194249912	-0.7301862418	-0.2593403329	-0.362634
N	-1.1599005072	-0.7115925209	 0.3310595612	-0.068624
C	-2.5781098839	-0.304629512	 0.2332310563	-0.259826
C	-2.9355804505	-1.7960467701	 0.0771692474	 0.359798
O	-4.00773934	-2.3878427853	 0.7065967704	-0.453164
C	-2.1818943851	-2.4168082785	-1.0732067923	-0.343998
C	-1.4627668761	-2.1283564431	 0.2271563045	-0.062951
H	 0.9353487155	 1.8206175437	-0.1263397286	 0.148354
H	-0.528054446	 1.704828586	-1.1200764953	 0.137467
H	-0.6814610844	 1.858679803	 0.6350324567	 0.13161
H	-2.9599531396	 0.1160489315	 1.1695978606	 0.125317
H	-2.8212589882	 0.3616247341	-0.6023289772	 0.109684
H	-4.7230227708	-2.4833790286	 0.0684248796	 0.292378
H	-2.4125072115	-3.4670511298	-1.2250815873	 0.124588
H	-1.9400726427	-1.8578882433	-1.9733845583	 0.115806
H	-0.9427931911	-2.8708096649	 0.8166900267	 0.126357
64.912	82.0889	120.1467	155.2788	246.6093	296.9513	367.1101	368.9715	415.7596	471.661	539.0686	600.6916	630.5242	680.8255	802.9041	851.8637	921.3176	944.084	970.9482	994.6518	1037.2787	1048.7524	1058.2534	1088.6862	1105.5175	1134.7221	1184.0814	1222.4885	1261.6792	1285.0481	1321.8353	1380.1589	1415.5601	1431.132	1471.3782	1481.9015	1489.7051	1511.685	1772.5517	3027.7389	3041.1659	3081.858	3105.8273	3113.1138	3157.0825	3207.561	3217.9073	3799.9124
CC(=O)N1CC2(O)CC12	CC(=O)N1C[C@@]2(O)C[C@@H]12	
InChI=1S/C6H9NO2/c1-4(8)7-3-6(9)2-5(6)7/h5,9H,2-3H2,1H3	InChI=1S/C6H9NO2/c1-4(8)7-3-6(9)2-5(6)7/h5,9H,2-3H2,1H3/t5-,6+/m1/s1
