19
gdb 126372	4.80279	0.8977	0.78967	1.7487	79.69	-0.1976	0.028	0.2256	1496.2995	0.160965	-415.425776	-415.416336	-415.415392	-415.46085	33.597	
C	 0.0748338904	 1.4908474892	-0.1084310301	-0.367655
C	-0.0355490322	-0.0361290571	 0.0167592136	-0.303644
C	-1.4540744014	-0.5083656105	 0.0424537227	 0.380131
N	-2.3996537123	-0.1054702336	 0.8766575149	-0.385883
C	-3.4903863561	-0.8310283544	 0.4817162203	 0.422246
N	-4.7138314696	-0.6642095332	 1.0806162712	-0.371418
C	-5.7456546972	-1.6640103039	 0.877431551	-0.31567
N	-3.2831706374	-1.6635954272	-0.5329004674	-0.315048
N	-1.9617421977	-1.4243032355	-0.8018241264	-0.253973
H	 1.1215595558	 1.8057927029	-0.0692308703	 0.113024
H	-0.3535520741	 1.8397148058	-1.0528255493	 0.122625
H	-0.4682357242	 1.9755261046	 0.7060094033	 0.148462
H	 0.4933059494	-0.5273641062	-0.8082199754	 0.100693
H	 0.4568441364	-0.3613918533	 0.9411394046	 0.130932
H	-4.6399791483	-0.2786687542	 2.0092210664	 0.245733
H	-6.6543235638	-1.3451114359	 1.3933247577	 0.117622
H	-5.9649956232	-1.7489934357	-0.1899631929	 0.147786
H	-5.4613272509	-2.6635914794	 1.2386425009	 0.114469
H	-1.5062847135	-1.9257889623	-1.5451500349	 0.26957
38.2757	89.3864	135.1547	156.6265	189.5468	224.2114	290.6148	360.6276	399.5156	474.8702	486.1447	526.3018	671.3	724.5518	773.0714	774.4828	799.4125	977.983	998.2004	1065.1421	1082.5577	1093.4108	1103.6198	1157.429	1166.6068	1190.1112	1250.5103	1296.7766	1341.8203	1381.9806	1407.6407	1447.2243	1458.8287	1478.3203	1481.7893	1495.2324	1505.5779	1513.8278	1529.1223	1593.7449	1619.3455	2994.069	3031.8187	3045.824	3067.498	3085.6898	3115.2936	3128.2257	3134.3067	3627.227	3674.6638
CCC1=NC(NC)=NN1	CCc1nc(NC)n[nH]1	
InChI=1S/C5H10N4/c1-3-4-7-5(6-2)9-8-4/h3H2,1-2H3,(H2,6,7,8,9)	InChI=1S/C5H10N4/c1-3-4-7-5(6-2)9-8-4/h3H2,1-2H3,(H2,6,7,8,9)
