23
gdb 115281	2.73041	1.18501	1.04582	0.769	81.69	-0.2471	0.0823	0.3294	1313.5681	0.20387	-425.452029	-425.441949	-425.441005	-425.487177	37.767	
C	 0.221765773	 1.3220571734	 0.3747761822	-0.382056
C	-0.0467090578	-0.1446959713	 0.0331734358	-0.18206
C	-1.5370127044	-0.4613940352	-0.1143463974	 0.119707
C	-1.8366892288	-1.9609246922	-0.276026753	-0.13971
O	-2.0828835772	-2.3892744583	 1.0524766869	-0.279045
C	-2.7215727257	-1.3086516486	 1.717899708	 0.450999
C	-4.244488323	-1.3917775595	 1.5704428492	-0.412674
C	-2.2767236797	-1.3122495839	 3.1742400292	-0.415953
O	-2.2533586094	-0.1182503416	 1.0748961544	-0.311927
H	 1.2921054697	 1.50945632	 0.5026704578	 0.109273
H	-0.1410945832	 1.9856589967	-0.4184659567	 0.110586
H	-0.2899088023	 1.5980313329	 1.3003170351	 0.133287
H	 0.4526728962	-0.4096509148	-0.9083508759	 0.090308
H	 0.3717333055	-0.7985862215	 0.8084287778	 0.104577
H	-1.9568398674	 0.1232133732	-0.9436675832	 0.074499
H	-2.7095870257	-2.1311540036	-0.9229748723	 0.093096
H	-0.9929225426	-2.5336876096	-0.6691192717	 0.112294
H	-4.6275101716	-2.2890855974	 2.0644273026	 0.119359
H	-4.7135271822	-0.5125998328	 2.0202496989	 0.123121
H	-4.52827087	-1.4251854753	 0.5152892528	 0.114247
H	-1.1878141995	-1.2518340128	 3.2273005573	 0.122852
H	-2.7065643762	-0.4557132191	 3.6997246541	 0.122957
H	-2.6056976278	-2.2296421185	 3.6697769578	 0.122264
39.5297	109.1249	135.0992	192.8295	222.2169	239.2978	254.2625	314.823	338.0754	383.3037	397.2941	460.4338	505.844	637.4785	738.4949	790.8208	803.0666	837.8078	863.8278	918.0871	958.4125	985.8927	988.6074	998.5195	1013.6149	1068.6748	1097.4229	1128.8526	1171.7273	1174.2924	1224.5572	1249.5104	1275.6519	1290.9596	1307.4427	1355.1345	1382.187	1398.1667	1403.2483	1410.272	1412.0625	1472.4406	1476.6116	1480.0041	1495.2288	1496.178	1497.2975	1510.0499	1519.8572	2994.0724	3017.6544	3018.0579	3035.4033	3046.1208	3053.7294	3060.3957	3096.6879	3100.4385	3122.4156	3123.995	3124.5397	3131.7131	3138.7994
CCC1COC(C)(C)O1	CC[C@H]1COC(C)(C)O1	
InChI=1S/C7H14O2/c1-4-6-5-8-7(2,3)9-6/h6H,4-5H2,1-3H3	InChI=1S/C7H14O2/c1-4-6-5-8-7(2,3)9-6/h6H,4-5H2,1-3H3/t6-/m0/s1
