23
gdb 101633	2.00196	0.99038	0.89207	4.244	86.69	-0.2402	0.0318	0.272	1527.462	0.203936	-384.487031	-384.475869	-384.474925	-384.523969	40.128	
C	 0.0632854016	 1.6012291604	 0.131259213	-0.380561
C	-0.367621862	 0.3634015289	-0.658098212	-0.174658
C	-1.8366813974	-0.0327983825	-0.4413525054	 0.055199
C	-2.2641219362	-1.138912356	-1.4196551183	-0.406383
N	-2.0307958324	-0.3847765198	 0.9747707669	-0.289541
C	-3.4073264094	-0.4725939212	 1.4523947666	-0.091636
C	-3.4344701599	-1.0562433145	 2.8735636884	-0.406969
C	-4.0178987258	 0.8711226334	 1.4472685234	 0.306955
N	-4.5202545327	 1.9116341771	 1.4401680146	-0.332815
H	 1.1252198533	 1.8158906789	-0.0224561937	 0.106939
H	-0.5047705376	 2.4839400309	-0.1820445799	 0.118642
H	-0.111270014	 1.4570521982	 1.2000529172	 0.129939
H	-0.2101138454	 0.5289126638	-1.7306741596	 0.095562
H	 0.2685327685	-0.4927018623	-0.3893096647	 0.085887
H	-2.4568444156	 0.8549710111	-0.6230172548	 0.10475
H	-3.3080833205	-1.4346622222	-1.2757450634	 0.114817
H	-2.1600168236	-0.8044808325	-2.4567689304	 0.121981
H	-1.639093451	-2.0314911522	-1.2930338673	 0.108827
H	-1.5638515167	-1.2640239969	 1.1774426568	 0.215471
H	-4.0552764502	-1.0995471989	 0.8136536587	 0.106026
H	-4.4543655033	-1.0821285086	 3.2632005348	 0.140966
H	-3.0469180447	-2.0797613547	 2.8565506306	 0.121853
H	-2.811999205	-0.4548445307	 3.5398381485	 0.148749
31.5367	77.2048	112.2721	142.8197	196.3554	222.0812	227.1181	244.2771	253.7169	287.3743	350.0919	423.2556	433.5603	478.0508	565.1328	602.8993	722.9591	777.8295	808.7059	843.3343	917.378	973.1543	984.5676	1010.7632	1036.2608	1066.0212	1099.7911	1124.5981	1154.4894	1186.2867	1211.2335	1290.4283	1324.2671	1329.5468	1351.3142	1378.8151	1387.2421	1406.4605	1407.9936	1409.1599	1474.386	1484.0536	1492.5675	1495.3857	1496.5589	1500.3405	1510.4471	1516.7553	2359.1546	2934.1846	3003.1856	3023.7871	3030.7577	3039.4129	3048.1747	3054.1799	3094.2682	3102.8573	3104.2193	3122.9912	3127.4872	3143.0576	3508.8137
CCC(C)NC(C)C#N	CC[C@@H](C)N[C@@H](C)C#N	
InChI=1S/C7H14N2/c1-4-6(2)9-7(3)5-8/h6-7,9H,4H2,1-3H3	InChI=1S/C7H14N2/c1-4-6(2)9-7(3)5-8/h6-7,9H,4H2,1-3H3/t6-,7+/m1/s1
