25
gdb 81683	3.13697	1.17348	1.11347	0.0752	91.96	-0.2668	0.0837	0.3506	1287.4829	0.231561	-352.368334	-352.359614	-352.35867	-352.401021	35.667	
C	-0.2093323785	 1.4438220377	-0.0245654344	-0.433365
C	 0.0324692279	-0.0615683472	 0.0115503725	 0.066619
C	 1.2325339918	-0.5753719593	-0.8408049146	-0.011188
C	 2.1272788042	-0.3619416962	 0.4163549888	-0.244096
C	 0.8275086748	-0.5904118437	 1.2439845438	-0.011187
C	 0.546941085	-2.0935752467	 1.4072844573	-0.221814
C	 1.0701310404	-2.9055546972	 0.1926269235	 0.063047
C	 0.3600310054	-4.2530305363	 0.0449487405	-0.410593
C	 1.0375737181	-2.0753565814	-1.1181520955	-0.221813
H	 0.7063131086	 2.0158590221	 0.1573987839	 0.114179
H	-0.6020911716	 1.7534471637	-0.9997042369	 0.110789
H	-0.9393790243	 1.7409331266	 0.7368675866	 0.110789
H	-0.9156580814	-0.5818200006	-0.1764018145	 0.049749
H	 1.4791552712	-0.0212638039	-1.7515715008	 0.050812
H	 2.973018075	-1.0358335992	 0.575799874	 0.08738
H	 2.485063455	 0.6664093252	 0.4932834884	 0.094295
H	 0.7137025972	-0.0496872062	 2.1884521194	 0.050811
H	 1.0135250071	-2.4807763072	 2.3214978847	 0.087074
H	-0.5352188963	-2.240488164	 1.5277606223	 0.088875
H	 2.12654274	-3.1197204249	 0.3963185337	 0.076303
H	-0.707821124	-4.1141446293	-0.1615134267	 0.111058
H	 0.7840495499	-4.838413211	-0.7784486347	 0.108163
H	 0.4464975412	-4.8509466921	 0.9589877638	 0.108163
H	 0.0796306025	-2.2176573241	-1.6370583351	 0.088875
H	 1.813548351	-2.4510695549	-1.7964696499	 0.087074
98.4394	215.7462	228.107	256.4258	257.7794	289.1972	325.5208	393.2337	415.2319	427.2364	511.3207	596.0475	754.4976	804.1472	826.403	847.6959	848.9895	881.922	915.4842	941.7543	952.4266	1008.7081	1009.3186	1023.3235	1061.7052	1075.3683	1076.0885	1094.8395	1132.43	1136.9013	1153.4374	1183.9179	1215.4287	1245.4815	1258.0278	1273.163	1296.1587	1305.7243	1315.2069	1339.1836	1340.7996	1377.2798	1378.584	1398.5788	1413.9248	1414.3998	1489.4522	1491.7022	1495.8538	1499.272	1499.9845	1501.3053	1510.4112	3004.28	3006.4487	3009.9442	3012.4074	3022.0841	3026.4132	3044.5878	3050.1146	3055.1152	3055.6961	3069.5776	3087.229	3088.9935	3091.8015	3098.3449	3117.053
CC1C2CC1CC(C)C2	C[C@H]1[C@H]2C[C@@H]1C[C@@H](C)C2	
InChI=1S/C9H16/c1-6-3-8-5-9(4-6)7(8)2/h6-9H,3-5H2,1-2H3	InChI=1S/C9H16/c1-6-3-8-5-9(4-6)7(8)2/h6-9H,3-5H2,1-2H3/t6-,7-,8+,9-
