16
gdb 87073	4.29819	0.70897	0.67679	6.1083	86.82	-0.2629	-0.0369	0.2259	1631.5268	0.122421	-400.722657	-400.713233	-400.712288	-400.757193	33.782	
C	-0.0791577121	 1.5628952647	-0.0422404073	-0.45918
C	-0.0166763039	 0.0417246394	-0.0104819019	 0.074492
C	 1.3406188527	-0.6469837586	-0.2161770049	-0.352741
C	 0.7091369483	-0.6479068132	 1.1428261908	 0.090326
O	 1.1963318269	 0.1887646648	 2.1416209565	-0.416647
C	-1.1655137742	-0.6340387687	-0.5303666806	 0.054055
C	-2.1449488768	-1.1916352985	-0.9725152805	 0.07268
C	-3.2435699385	-1.828274937	-1.4694879447	 0.190876
N	-4.1791889683	-2.3726015442	-1.8934934296	-0.342063
H	 0.7880595601	 1.9826820793	 0.4688467855	 0.139879
H	-0.0993283618	 1.9251463654	-1.0738242932	 0.132418
H	-0.978666998	 1.9214460662	 0.4656320844	 0.139443
H	 1.3674496927	-1.5697240802	-0.7834615328	 0.135599
H	 2.1782172584	 0.0241454267	-0.3737740709	 0.130597
H	 0.2687262643	-1.5804507045	 1.4922717239	 0.112765
H	 2.05206363	-0.1491529116	 2.426743225	 0.297501
75.4987	82.9512	172.7557	191.98	221.9776	241.9856	260.3294	301.5036	381.3516	470.6022	516.5294	527.6138	583.5759	585.8466	622.7867	787.6952	815.3522	910.174	956.0347	1011.9364	1050.6586	1088.584	1105.05	1123.5722	1187.8251	1272.8168	1296.9195	1333.2088	1407.3497	1422.6788	1474.7444	1487.9673	1500.8251	2258.5954	2388.1685	3051.9027	3118.5141	3118.7186	3138.9646	3149.0018	3235.7128	3806.4745
CC1(CC1O)C#CC#N	C[C@]1(C[C@H]1O)C#CC#N	
InChI=1S/C7H7NO/c1-7(3-2-4-8)5-6(7)9/h6,9H,5H2,1H3	InChI=1S/C7H7NO/c1-7(3-2-4-8)5-6(7)9/h6,9H,5H2,1H3/t6-,7-/m1/s1
