20
gdb 80420	2.48955	1.7606	1.28739	2.5769	73.88	-0.2194	0.0567	0.276	1036.7875	0.171624	-440.247489	-440.239069	-440.238124	-440.279748	33.8	
C	-0.1087404151	 1.5423894811	 0.0524747613	-0.416104
C	 0.066026936	 0.0315673839	 0.0337039452	 0.021213
C	 0.9740105091	-0.5477025359	-1.1087600005	 0.030948
O	 1.7390762338	 0.3842200255	-1.8640009604	-0.443737
C	 1.9502553833	-1.3229814993	-0.2131684017	 0.406444
O	 2.932813483	-2.0672788183	-0.848215597	-0.496342
C	 0.9869906055	-1.93613456	 0.8206996337	-0.227283
N	 0.7487876728	-0.5020652076	 1.2662763867	-0.139153
C	 2.2050899585	-0.2757075337	 0.9129493305	-0.250495
H	 0.8459977982	 2.0714868622	 0.0190843902	 0.130274
H	-0.697607997	 1.8704231932	-0.8113742651	 0.103715
H	-0.6418855233	 1.8405758237	 0.9591816256	 0.129748
H	-0.9235576755	-0.4363453114	-0.0042929426	 0.07437
H	 0.4287195555	-1.2213441544	-1.7831918748	 0.06805
H	 1.1768536884	 0.7733803658	-2.5397851805	 0.290437
H	 3.2441584663	-1.536058862	-1.5922735385	 0.286635
H	 0.0971035185	-2.4722372358	 0.4759679135	 0.096866
H	 1.4944532394	-2.4995546169	 1.6062134899	 0.114219
H	 2.847468978	-0.6581500114	 1.708358555	 0.108656
H	 2.4825484648	 0.7448594213	 0.6481640797	 0.111541
141.8027	184.2777	234.2158	248.5853	272.6995	311.6063	369.7014	398.3249	448.0883	495.4441	517.1322	580.7302	658.573	712.1094	791.4895	830.5319	856.692	882.1395	924.9036	968.0479	1008.9076	1018.7584	1040.1258	1059.367	1095.976	1145.6154	1158.1397	1173.2211	1206.6554	1212.3866	1233.3088	1241.2466	1278.4089	1308.201	1346.7613	1378.0707	1394.9534	1409.6443	1429.913	1486.1232	1495.2173	1503.6677	1532.0555	3008.7874	3040.101	3045.4311	3053.3408	3080.6087	3107.0723	3122.3151	3133.6061	3147.4786	3774.7208	3837.018
CC1C(O)C2(O)CN1C2	C[C@H]1[C@@H](O)[C@]2(O)CN1C2	
InChI=1S/C6H11NO2/c1-4-5(8)6(9)2-7(4)3-6/h4-5,8-9H,2-3H2,1H3	InChI=1S/C6H11NO2/c1-4-5(8)6(9)2-7(4)3-6/h4-5,8-9H,2-3H2,1H3/t4-,5+/m0/s1
