19
gdb 64977	3.57617	0.9157	0.79352	4.154	77.26	-0.2454	-0.0276	0.2178	1453.2902	0.15587	-423.04536	-423.035563	-423.034619	-423.081585	34.882	
C	 0.0650259155	 1.5080394046	-0.1022201198	-0.485554
C	 0.072222386	-0.008242173	-0.1077783569	 0.237335
C	 1.4123011983	-0.7253551954	-0.2640253693	-0.272569
C	 0.7353349977	-0.7344738892	 1.062266146	-0.273882
C	-1.0870809705	-0.749011196	-0.7061113915	 0.318819
O	-1.1273448031	-1.9635066336	-0.7275186684	-0.326366
C	-2.2310423262	 0.0689351604	-1.3025701165	-0.413253
C	-3.3338985307	-0.8042712197	-1.8710643495	 0.17711
O	-3.8181485819	-0.6378490821	-2.9598839253	-0.242245
H	 0.9781752546	 1.8871492717	 0.365283405	 0.121937
H	 0.0221910707	 1.9233076783	-1.1147798655	 0.127051
H	-0.7806078385	 1.9140454624	 0.4637451367	 0.122349
H	 1.3978283046	-1.644021746	-0.8382832629	 0.140898
H	 2.282901435	-0.0944630783	-0.4054424381	 0.118393
H	 1.1277269074	-0.1097089559	 1.8570449727	 0.117784
H	 0.2664759722	-1.6593100061	 1.3763275845	 0.13939
H	-2.6603133135	 0.7033628424	-0.5126684151	 0.145049
H	-1.8669624518	 0.7473149793	-2.0808876433	 0.148673
H	-3.682115716	-1.6105288638	-1.1948900627	 0.099082
35.5968	44.1532	69.6131	179.4692	225.2797	278.9972	291.2215	307.5728	349.7154	393.6359	473.1868	560.23	596.0524	723.4594	793.71	803.9639	827.5788	874.2028	948.0782	960.7881	1015.1654	1041.2634	1063.7047	1077.6945	1091.2767	1092.3289	1118.484	1197.5028	1206.8537	1281.3988	1315.5163	1351.8643	1419.4085	1423.83	1428.1646	1451.5174	1482.7312	1496.4103	1501.2356	1766.9655	1837.6917	2934.7362	3016.1818	3031.3522	3087.8133	3093.2886	3107.3461	3138.7698	3140.5209	3229.07	3242.3553
CC1(CC1)C(=O)CC=O	CC1(CC1)C(=O)CC=O	
InChI=1S/C7H10O2/c1-7(3-4-7)6(9)2-5-8/h5H,2-4H2,1H3	InChI=1S/C7H10O2/c1-7(3-4-7)6(9)2-5-8/h5H,2-4H2,1H3
