18
gdb 19198	3.15172	2.03413	1.70017	2.0737	66.7	-0.2464	0.0731	0.3195	838.4001	0.155508	-384.922613	-384.915418	-384.914474	-384.953435	28.859	
O	-0.028316042	 1.5135975061	-0.0094030014	-0.442423
C	 0.0296865471	 0.1080246077	 0.0283832227	 0.150493
C	 0.1528036368	-0.6299393253	 1.4027942276	-0.129567
C	-0.9668627185	 0.0326846304	 2.2231363482	-0.211934
C	-2.1015416832	 0.0411432016	 1.1395873548	-0.218381
C	-1.338709536	-0.6160453651	-0.0259011034	-0.063229
C	-0.624611781	-1.7881240581	 0.6997367221	 0.142864
O	 0.1202295462	-2.5854738596	-0.1972126913	-0.449332
H	 0.8703617946	 1.8539058418	-0.043307985	 0.282932
H	 0.7262036893	-0.2940407279	-0.7102742091	 0.083816
H	 1.1153079918	-0.801894892	 1.8898232886	 0.045917
H	-1.2321355419	-0.5505612295	 3.1097696621	 0.089207
H	-0.6965926838	 1.0413639883	 2.5414954752	 0.104038
H	-2.9757020823	-0.5440927396	 1.4386619028	 0.091389
H	-2.4294386028	 1.0518525718	 0.892234366	 0.115575
H	-1.8678918545	-0.7751266785	-0.9650880368	 0.065988
H	-1.2577512503	-2.4064455801	 1.3513592001	 0.060814
H	 0.7354569207	-3.1151425621	 0.3195944867	 0.281833
218.9836	243.4719	263.0774	272.4976	285.7732	332.1432	384.5722	498.839	620.2598	691.6169	785.6079	831.649	842.4027	890.6984	896.6995	911.2582	963.8025	1000.9965	1014.7139	1015.4534	1082.002	1117.3664	1147.4349	1158.0414	1175.598	1190.3797	1211.0915	1257.2537	1268.3102	1278.8956	1287.9676	1304.8168	1332.8686	1340.2665	1415.9239	1441.5951	1482.5165	1505.9835	2999.2426	3055.3601	3065.7917	3084.0526	3093.1134	3106.1079	3122.5874	3125.4512	3815.267	3830.1857
OC1C2CCC1C2O	O[C@H]1[C@H]2CC[C@@H]1[C@H]2O	
InChI=1S/C6H10O2/c7-5-3-1-2-4(5)6(3)8/h3-8H,1-2H2	InChI=1S/C6H10O2/c7-5-3-1-2-4(5)6(3)8/h3-8H,1-2H2/t3-,4+,5-,6-
