20
gdb 72871	2.97165	1.29632	1.09427	3.0794	79.44	-0.2224	-0.0212	0.2012	1174.6779	0.169899	-403.120375	-403.11166	-403.110716	-403.15435	32.792	
C	-0.4019996841	 1.5248284493	-0.0840759819	-0.466974
C	-0.0403285488	 0.0583212633	-0.0987484577	 0.388977
C	-1.1854522393	-0.9729213299	 0.0795439793	-0.299479
C	-0.3891260563	-1.5453493583	 1.2806135995	-0.163638
N	 0.6840364931	-0.510542555	 1.1316527764	-0.188858
C	 1.8017469167	-0.9538401317	 0.2409183488	-0.042771
C	 1.1215946723	-0.3869067821	-1.0241623159	-0.328297
C	 3.0810918545	-0.2708017212	 0.6801281162	 0.15428
O	 3.7798907927	 0.408654127	-0.026747236	-0.245418
H	 0.4932014495	 2.1484189633	 0.0038624715	 0.128953
H	-0.9175149797	 1.7984865852	-1.0126200696	 0.118696
H	-1.064613948	 1.7575592872	 0.7557921319	 0.119034
H	-2.1450006905	-0.5250172169	 0.3483567351	 0.107608
H	-1.343180784	-1.650700402	-0.7631172912	 0.104328
H	-0.8937698689	-1.4666216815	 2.2476634945	 0.109637
H	-0.0273304804	-2.5734000259	 1.1676151416	 0.100501
H	 1.9753447926	-2.0394125652	 0.2614374644	 0.089036
H	 0.8579724571	-1.1159351672	-1.7930613306	 0.103366
H	 1.6880633674	 0.4269409777	-1.4818655381	 0.12836
H	 3.3118984342	-0.430306386	 1.7570115018	 0.082659
41.5632	89.3413	184.8493	222.2623	233.3434	332.245	340.591	369.8159	394.2285	603.5596	634.5966	693.7935	754.6345	815.3399	828.1072	859.2446	890.6265	930.5085	952.76	965.6378	971.6826	1019.8691	1043.0754	1090.3478	1126.0931	1129.7477	1171.7887	1210.5281	1233.8225	1243.1147	1252.3121	1275.9429	1300.0759	1322.2784	1340.8401	1406.4709	1409.5205	1479.3163	1482.2131	1485.7602	1495.7228	1510.4065	1828.4287	2889.6791	3002.5372	3025.754	3034.2186	3061.2478	3071.1229	3081.3539	3094.8054	3106.4456	3115.9475	3127.4955
CC12CCN1C(C2)C=O	C[C@]12CCN1[C@@H](C2)C=O	
InChI=1S/C7H11NO/c1-7-2-3-8(7)6(4-7)5-9/h5-6H,2-4H2,1H3	InChI=1S/C7H11NO/c1-7-2-3-8(7)6(4-7)5-9/h5-6H,2-4H2,1H3/t6-,7+/m0/s1
