16
gdb 10145	2.79615	1.26331	0.91069	1.4739	72.27	-0.2631	0.0329	0.296	1227.8933	0.126838	-346.522478	-346.513059	-346.512114	-346.556832	33.407	
O	-0.089468228	 1.4636547969	-0.0774604648	-0.421234
C	 0.0227115276	 0.0530055781	 0.0249102575	-0.086757
C	-1.3921413814	-0.5117906737	 0.0218228928	-0.168523
C	-1.4235599196	-2.0640968755	 0.0585078934	-0.356505
C	-0.7965191619	-2.6002555221	 1.273190088	 0.352217
C	-0.2736672093	-3.0250335202	 2.2676690425	-0.470824
C	-2.7959588446	-2.559471858	-0.0899734424	 0.321454
C	-3.9265489823	-2.9403294393	-0.2257977666	-0.431524
H	 0.7908938111	 1.8414403214	 0.0038864352	 0.287638
H	 0.5913945808	-0.3652319279	-0.8232320596	 0.083233
H	 0.5412786367	-0.2461464559	 0.9469464318	 0.105123
H	-1.9455460929	-0.1183543176	 0.8790661676	 0.127135
H	-1.9093940034	-0.1796129197	-0.8831507969	 0.122103
H	-0.8429889656	-2.4264152581	-0.8036979862	 0.136499
H	 0.1815357031	-3.4100885076	 3.1465234916	 0.201328
H	-4.9235868204	-3.287141751	-0.3410483138	 0.198635
80.0024	95.5356	123.0496	130.1996	209.4048	251.9608	281.902	342.1072	383.7616	475.4053	564.3536	582.1254	632.0164	636.4	645.8945	649.6472	788.675	864.8316	985.5745	1033.9007	1049.3725	1087.0352	1107.9844	1215.2436	1236.4378	1293.3855	1304.7717	1328.3822	1347.9421	1465.0091	1490.8665	1528.9715	2238.41	2245.7833	2956.5891	2989.1639	3016.6665	3062.8716	3113.2288	3503.3755	3504.4494	3832.7405
OCCC(C#C)C#C	OCCC(C#C)C#C	
InChI=1S/C7H8O/c1-3-7(4-2)5-6-8/h1-2,7-8H,5-6H2	InChI=1S/C7H8O/c1-3-7(4-2)5-6-8/h1-2,7-8H,5-6H2
