17
gdb 124474	3.25535	1.27223	1.14149	0.6426	69.29	-0.2783	-0.0305	0.2478	1117.1848	0.134521	-455.15359	-455.144731	-455.143787	-455.187489	32.35	
C	-0.1502959637	 1.5468970883	-0.044616976	-0.402005
C	 0.0213825192	 0.026009337	 0.0623092767	 0.237505
C	 0.872894699	-0.3530067244	 1.2919370139	-0.407536
O	-1.2713895831	-0.5446352831	 0.1675382894	-0.461132
C	 0.6857730368	-0.5246518943	-1.1756608603	 0.427251
N	 0.284308133	-1.5494618569	-1.8699650402	-0.344808
C	 1.2602020696	-1.6385344423	-2.8321009607	 0.037852
N	 2.2033242041	-0.7429850776	-2.7524263413	-0.11162
O	 1.8186894136	 0.0136427605	-1.630613793	-0.211237
H	 0.8164448057	 2.0505471261	-0.1183283561	 0.132316
H	-0.753094032	 1.8003786334	-0.9199424406	 0.13242
H	-0.6706640446	 1.904514264	 0.8474600554	 0.132616
H	 0.3742860246	 0.0174185357	 2.1911923405	 0.132448
H	 0.9645501024	-1.4400073782	 1.3706785347	 0.125646
H	 1.8752922906	 0.0809605813	 1.234338619	 0.129468
H	-1.2653998199	-1.3821674855	-0.3139745093	 0.296527
H	 1.2646613648	-2.3879607139	-3.610068902	 0.15429
39.3346	139.1681	186.612	218.7984	264.1833	265.7716	326.5141	341.4524	360.3724	463.4926	493.1849	616.2893	654.1528	784.2875	864.5769	898.3014	930.8622	931.3514	980.3823	984.8692	1018.1621	1023.0857	1152.2468	1177.4349	1202.1769	1209.0909	1262.4684	1324.3404	1388.6196	1398.2897	1416.0777	1474.9262	1480.8406	1490.2236	1501.1544	1527.5216	1610.6166	3042.4959	3053.3022	3121.1879	3127.982	3133.2579	3137.9405	3262.9651	3767.6583
CC(C)(O)C1=NC=NO1	CC(C)(O)c1ncno1	
InChI=1S/C5H8N2O2/c1-5(2,8)4-6-3-7-9-4/h3,8H,1-2H3	InChI=1S/C5H8N2O2/c1-5(2,8)4-6-3-7-9-4/h3,8H,1-2H3
