19
gdb 48412	2.60339	1.21941	0.9528	2.0434	76.36	-0.2566	-0.0366	0.22	1276.8967	0.157364	-422.999669	-422.99067	-422.989726	-423.034038	33.037	
O	-1.115202913	 1.6776323086	 0.0693051144	-0.257306
C	-0.0307206444	 1.1875427601	 0.2538127657	 0.133141
C	 1.2749170962	 1.8644350505	-0.0444612606	 0.31369
C	 1.268420171	 3.0646537956	-0.9670876993	-0.325126
C	 1.1406505576	 2.6797737108	-2.4285673228	 0.029969
C	-0.2132443205	 2.4705181433	-3.0618796771	-0.256409
C	 0.6135548949	 3.6781597652	-3.4269898625	-0.280728
C	 2.3144508994	 1.6815340367	 0.9974554465	-0.222802
O	 2.3548993849	 0.9242962651	-0.1986096291	-0.263463
H	 0.0974892767	 0.1702474296	 0.6867453914	 0.090641
H	 0.4310935196	 3.7076203255	-0.6737609184	 0.120819
H	 2.1903813411	 3.6369712427	-0.8134187717	 0.103178
H	 1.9382568995	 2.0294174563	-2.7760436212	 0.095811
H	-0.3173995454	 1.6791179253	-3.7959878361	 0.110641
H	-1.0863515319	 2.6183362966	-2.4372750121	 0.134521
H	 0.2896653701	 4.6446257911	-3.0538449848	 0.10995
H	 1.073130344	 3.715036745	-4.4084924092	 0.110788
H	 3.0701479348	 2.4588574444	 1.0998204783	 0.129484
H	 2.0957959253	 1.1182619076	 1.9044636484	 0.123202
56.9461	94.9521	138.7575	148.9857	223.5735	293.8416	342.6886	365.2398	395.7724	484.6933	556.7043	764.7298	789.1691	805.9841	836.0843	855.5052	878.554	914.3197	951.8682	961.5798	1011.8321	1046.6673	1061.2209	1084.3194	1127.0465	1139.5719	1151.7856	1165.3368	1200.8892	1225.8935	1245.7283	1312.7872	1326.0747	1357.4065	1414.7464	1426.9998	1464.1191	1475.3391	1509.3118	1520.1482	1825.2262	2890.7898	3035.7991	3080.0902	3081.9015	3129.7961	3140.906	3151.6067	3170.1401	3210.1671	3231.267
O=CC1(CC2CC2)CO1	O=C[C@@]1(CC2CC2)CO1	
InChI=1S/C7H10O2/c8-4-7(5-9-7)3-6-1-2-6/h4,6H,1-3,5H2	InChI=1S/C7H10O2/c8-4-7(5-9-7)3-6-1-2-6/h4,6H,1-3,5H2/t7-/m0/s1
