18
gdb 93574	3.50288	1.01297	0.81671	4.5435	75.5	-0.2489	-0.0446	0.2043	1371.3822	0.148715	-439.128643	-439.119921	-439.118977	-439.162657	32.513	
N	 0.041560249	 1.385984725	-0.087003989	-0.520675
H	 1.1964270169	-0.462968182	 3.9605735588	 0.30134
H	-0.3876556632	 1.9038537972	-0.8478889391	 0.231331
H	 0.0090798385	 0.4053028703	-0.3546214219	 0.223128
C	-0.7182936578	 1.5868252581	 1.1455944458	 0.008245
C	-2.1500314092	 0.9796702723	 1.2329033737	-0.244066
C	-2.3320686566	 0.5574078934	 2.7082082313	-0.296376
C	-0.9039715243	 0.3981959957	 3.1892458356	 0.170657
C	-0.0364955407	 0.9688429443	 2.3455848068	-0.199504
C	-0.6210790958	-0.2230243548	 4.5071205537	 0.36586
O	 0.6636362224	-0.586823619	 4.7547842903	-0.375961
O	-1.4730870564	-0.4065654631	 5.3366733571	-0.320537
H	-0.762242258	 2.6753851995	 1.3028669189	 0.100195
H	-2.9237722694	 1.6665038026	 0.8804699117	 0.101122
H	-2.1816059079	 0.0924799288	 0.5890199024	 0.098339
H	-2.8358147602	 1.3326861335	 3.2986606842	 0.128022
H	-2.921204333	-0.3544877253	 2.8378296312	 0.123542
H	 1.0373486057	 1.0633690634	 2.4764605084	 0.105338
51.2498	113.0121	132.0141	186.2534	281.9239	337.2981	380.9917	388.3198	478.3637	510.4268	552.1608	590.2798	697.8836	750.6192	822.5042	850.7251	885.4407	894.6518	911.9114	973.0455	998.4473	1031.992	1095.7121	1124.8576	1153.561	1197.6321	1213.4107	1234.2264	1267.1536	1302.5507	1309.7152	1331.5152	1365.7988	1415.1134	1481.7983	1496.862	1660.1662	1685.0129	1838.9998	2990.7665	3035.7376	3038.9204	3088.6427	3101.2147	3177.1521	3480.9309	3564.2071	3806.9476
[NH3+]C1CCC(=C1)C([O-])=O	N[C@H]1CCC(=C1)C(=O)O	
InChI=1S/C6H9NO2/c7-5-2-1-4(3-5)6(8)9/h3,5H,1-2,7H2,(H,8,9)	InChI=1S/C6H9NO2/c7-5-2-1-4(3-5)6(8)9/h3,5H,1-2,7H2,(H,8,9)/t5-/m0/s1
