17
gdb 106980	4.3133	1.09113	0.97152	2.8773	69.6	-0.2331	0.0118	0.2449	1208.8338	0.136719	-455.131917	-455.123611	-455.122667	-455.164923	31.631	
N	 0.1103448008	 1.3144974746	-0.0949234831	-0.579943
C	-0.0015385424	-0.0531490403	-0.0305364291	 0.397739
N	-1.1141254455	-0.6869499958	 0.008236399	-0.303307
C	-0.8378779321	-2.1104912187	 0.2424915763	-0.215502
C	 0.6815378541	-2.2755105896	 0.2499990945	 0.384817
C	 1.3766863255	-3.4161222982	 0.9390437898	-0.159653
O	 1.0488207781	-4.6596113857	 0.3396039325	-0.413956
O	 1.2689083536	-1.8728593683	-1.00713597	-0.297358
C	 1.2244389923	-0.9205867917	 0.0720295469	-0.173779
H	 0.9072431417	 1.6777529136	-0.5956505125	 0.256573
H	-0.7563968626	 1.7892693048	-0.3073714997	 0.259917
H	-1.2670889648	-2.4249272971	 1.2027352537	 0.110825
H	-1.3068712874	-2.7229536675	-0.534784619	 0.12351
H	 2.461935741	-3.2369847128	 0.9367828598	 0.095254
H	 1.0452326964	-3.4843439507	 1.9804951524	 0.117216
H	 1.3337442356	-4.6125141983	-0.5799325134	 0.293782
H	 2.1821341056	-0.5646253883	 0.442683972	 0.103867
63.0457	124.7426	222.6196	262.0383	304.3286	354.5594	402.6558	412.1846	437.0196	451.9808	589.6143	657.6848	694.9979	723.8513	786.5421	853.8213	894.249	936.2717	970.7363	994.3077	1019.7019	1045.0647	1087.8022	1169.6203	1176.5684	1214.5621	1237.9745	1259.6586	1319.1414	1373.1752	1411.9445	1425.6048	1456.4426	1476.9372	1488.4105	1628.0168	1717.4811	2997.6263	3027.1546	3073.6954	3079.2664	3150.9176	3561.6489	3673.255	3803.6924
NC1=NCC2(CO)OC12	NC1=NC[C@@]2(CO)O[C@@H]12	
InChI=1S/C5H8N2O2/c6-4-3-5(2-8,9-3)1-7-4/h3,8H,1-2H2,(H2,6,7)	InChI=1S/C5H8N2O2/c6-4-3-5(2-8,9-3)1-7-4/h3,8H,1-2H2,(H2,6,7)/t3-,5-/m0/s1
