17
gdb 55899	3.82056	0.76977	0.6912	2.7858	70.93	-0.2605	-0.0444	0.2161	1596.8056	0.131519	-458.966702	-458.957004	-458.95606	-459.00308	33.211	
C	 0.0036421284	 1.3955372871	 0.6350560163	-0.477858
C	 0.0661704202	-0.0156216426	 0.0886215663	 0.390459
O	 1.1012054742	-0.5327451661	-0.2589705974	-0.285185
C	-1.2743899372	-0.751216574	-0.0227233211	-0.361596
C	-1.0986506164	-2.24415509	-0.1765308925	 0.084736
O	-1.2527029506	-3.0483941549	 0.9839328281	-0.239796
C	-2.2040628674	-3.2288275751	-0.072407743	-0.066511
C	-3.602493634	-2.7994277103	 0.228767125	 0.143817
O	-4.5640232094	-3.2102875837	-0.3687733116	-0.243828
H	 0.9727903682	 1.8826507993	 0.5238115989	 0.149667
H	-0.7727981708	 1.977966675	 0.1271186767	 0.139481
H	-0.2672030368	 1.3640557514	 1.6972127763	 0.150688
H	-1.9043737789	-0.515491039	 0.839967611	 0.130752
H	-1.7868999201	-0.3361809225	-0.9028019559	 0.146379
H	-0.2565199869	-2.5263817589	-0.806315147	 0.13146
H	-2.1248169811	-4.1574697094	-0.6359290956	 0.120681
H	-3.6884107814	-2.0702016664	 1.0637475055	 0.086656
38.1795	53.4063	81.7034	134.7762	146.63	230.024	282.8713	352.2928	402.8955	466.6803	474.1005	515.4474	590.1594	795.1096	819.4672	852.1116	891.6245	959.6849	971.569	1019.6912	1064.6278	1086.8201	1133.6507	1166.5913	1178.366	1229.5188	1271.5157	1323.3255	1344.2815	1384.9542	1410.019	1432.4892	1461.3346	1473.0654	1476.2395	1818.4382	1825.4602	2897.2018	3020.3383	3036.2285	3092.3644	3097.7319	3130.0047	3141.5696	3155.8136
CC(=O)CC1OC1C=O	CC(=O)C[C@H]1O[C@H]1C=O	
InChI=1S/C6H8O3/c1-4(8)2-5-6(3-7)9-5/h3,5-6H,2H2,1H3	InChI=1S/C6H8O3/c1-4(8)2-5-6(3-7)9-5/h3,5-6H,2H2,1H3/t5-,6+/m1/s1
