19
gdb 97225	2.83848	1.52651	1.10655	3.8498	79.3	-0.2189	0.0426	0.2614	1132.3362	0.160521	-419.191175	-419.182839	-419.181895	-419.224544	31.096	
C	 0.3570831541	 1.3761040421	 0.0654625562	-0.316512
N	 0.3809778335	-0.0739154425	 0.0111379959	-0.310476
C	 0.3388436396	-0.6486543174	-1.1122016079	 0.412048
O	 0.2273571505	 0.0323499987	-2.2951722656	-0.264283
C	 0.6441710554	-0.6054736011	-3.5094146671	-0.054563
C	 1.7279095721	-1.6490693915	-3.2329387693	-0.265254
C	 1.1082296457	-2.6562214155	-2.2891697375	-0.010279
C	 1.5221093721	-2.7955924669	-0.8638102456	-0.242182
N	 0.3139138597	-2.0524412499	-1.2127414691	-0.121636
H	 0.8066983104	 1.8600137085	-0.8109668757	 0.107678
H	-0.6754453465	 1.7411942419	 0.1491198386	 0.119822
H	 0.8879196423	 1.7059073829	 0.9639193419	 0.113156
H	-0.2240774529	-1.0772542229	-3.9883795666	 0.115595
H	 0.9991684959	 0.199043591	-4.1593336017	 0.118844
H	 2.0528300254	-2.1180353834	-4.1658105035	 0.114892
H	 2.597734481	-1.1577279887	-2.7835188382	 0.12203
H	 0.6134048851	-3.5007379278	-2.7656102902	 0.102619
H	 1.3547228323	-3.7324648861	-0.3413037266	 0.127159
H	 2.3715591641	-2.2158679713	-0.5130152079	 0.131342
63.747	97.0948	167.2938	221.5266	245.5086	304.5525	397.7825	482.7471	492.6834	539.1457	636.3607	719.9105	748.9606	815.802	885.9414	910.9999	959.612	989.9037	1002.1071	1069.3324	1072.0229	1119.1301	1124.7375	1135.0816	1141.2323	1161.6876	1172.8104	1201.9497	1239.9501	1267.4212	1339.1096	1349.8407	1410.5228	1428.6858	1440.3713	1475.6847	1492.6723	1498.0331	1509.0833	1516.975	1765.4766	3002.7255	3020.1351	3048.4765	3054.092	3086.1403	3090.6522	3099.4365	3115.866	3123.546	3205.8677
CN=C1OCCC2CN12	CN=C1OCC[C@H]2CN12	
InChI=1S/C6H10N2O/c1-7-6-8-4-5(8)2-3-9-6/h5H,2-4H2,1H3	InChI=1S/C6H10N2O/c1-7-6-8-4-5(8)2-3-9-6/h5H,2-4H2,1H3/t5-,8?/m0/s1
