20
gdb 85740	3.16303	1.19004	1.00877	4.3876	82.5	-0.2863	0.0401	0.3264	1233.3916	0.172898	-366.038146	-366.029848	-366.028903	-366.070968	32.292	
C	 0.0085806058	 1.573753115	-0.0182268538	-0.401857
C	 0.053635116	 0.0448748151	 0.0201640271	 0.019284
C	 0.7738802953	-0.5823517728	-1.1963606083	-0.251664
C	 1.2616223973	-1.9752423013	-0.7049944966	-0.158202
C	 2.4160323559	-2.4756958508	-1.4519415414	 0.27061
N	 3.3312740567	-2.8639057609	-2.04198571	-0.330726
C	 1.5146352917	-1.7913799178	 0.7938827312	-0.041465
C	 2.2818271362	-0.5666638664	 1.221947295	-0.289335
C	 0.7720681535	-0.5498055962	 1.2288485114	-0.041067
H	 1.0194598546	 1.9952407637	-0.0065925422	 0.119755
H	-0.4966373658	 1.9335338169	-0.9207083001	 0.116291
H	-0.5300178235	 1.9740043837	 0.8467082648	 0.116637
H	-0.9785312756	-0.331770338	 0.0407710376	 0.077949
H	 0.1302534659	-0.6644213774	-2.0748977204	 0.116785
H	 1.6326286067	 0.0283287662	-1.489662915	 0.124597
H	 0.4520987622	-2.7054571904	-0.8279799604	 0.123518
H	 1.5601321013	-2.6827823613	 1.4080508945	 0.099377
H	 2.7797230147	-0.6185649157	 2.1834245858	 0.119375
H	 2.8275493739	 0.0074595683	 0.4803387209	 0.122244
H	 0.2659443072	-0.5182351702	 2.1878096198	 0.087891
91.8972	135.8821	177.1038	231.9557	280.4784	323.4512	378.6123	455.3651	528.3158	557.1231	579.8918	622.1346	768.577	819.3968	838.743	884.1419	931.7283	933.8784	963.5756	994.7715	1026.3162	1046.4761	1052.059	1071.5895	1092.1409	1110.8698	1141.1656	1159.1054	1204.8012	1210.6016	1275.9869	1297.1463	1332.0066	1339.2194	1352.1987	1375.2058	1393.9616	1413.9706	1486.2028	1495.3417	1499.7706	1511.3101	2354.7959	3005.0462	3031.6749	3032.981	3066.6752	3100.5886	3102.3931	3113.3556	3136.6563	3164.3086	3181.9522	3218.5899
CC1CC(C#N)C2CC12	C[C@H]1C[C@@H](C#N)[C@H]2C[C@@H]12	
InChI=1S/C8H11N/c1-5-2-6(4-9)8-3-7(5)8/h5-8H,2-3H2,1H3	InChI=1S/C8H11N/c1-5-2-6(4-9)8-3-7(5)8/h5-8H,2-3H2,1H3/t5-,6-,7-,8+/m0/s1
