21
gdb 99995	2.14226	1.34838	1.03262	1.6323	80.48	-0.2518	0.0336	0.2854	1267.1979	0.17722	-424.178891	-424.167572	-424.166627	-424.214915	41.183	
C	 0.1286150216	 1.3739434408	 0.0200021158	-0.242678
O	-0.0552742366	-0.0232628121	 0.0037567486	-0.277015
C	-1.3949451843	-0.5183848322	-0.0055915213	 0.353408
C	-2.1400016681	-0.1571535042	 1.2859457004	-0.436084
C	-2.1758278645	-0.0627136367	-1.2439184558	-0.442777
C	-1.171946546	-2.064254827	-0.0305771398	-0.060802
O	-2.405153856	-2.7725256359	 0.0775563897	-0.427744
C	-0.4121294552	-2.5061337585	-1.19998376	 0.303448
C	 0.1451084306	-2.9185363725	-2.1823028425	-0.451308
H	 1.2086398707	 1.5410402583	 0.0385112242	 0.128713
H	-0.2805954106	 1.8648110019	-0.8736457033	 0.107383
H	-0.3091826429	 1.8487803477	 0.9091279301	 0.106477
H	-2.3975512501	 0.9051392767	 1.3163463095	 0.109648
H	-3.0639065036	-0.734964886	 1.3543417607	 0.138895
H	-1.519311666	-0.3881504407	 2.1573365467	 0.117743
H	-1.6097073015	-0.2724687956	-2.1550732894	 0.132027
H	-3.1323860047	-0.5913513036	-1.2925375446	 0.116087
H	-2.3992816106	 1.0067030147	-1.206822161	 0.116181
H	-0.5995223447	-2.3043730658	 0.8733996083	 0.1194
H	-2.6975405197	-2.9847713777	-0.8144694074	 0.290498
H	 0.6612260522	-3.2739813517	-3.0398208486	 0.198499
61.462	76.6013	133.3435	177.5311	197.7816	224.1215	227.2978	257.004	277.385	313.7742	327.8286	366.1588	396.999	434.1115	477.356	585.6474	615.9577	632.9681	665.5038	757.7588	847.4025	924.3607	933.729	1004.4253	1008.5589	1068.2982	1121.5179	1178.0177	1182.1036	1200.5705	1217.3372	1260.7871	1277.3474	1340.0619	1387.8366	1406.6857	1408.3332	1476.0905	1481.4491	1485.0037	1501.9581	1502.4899	1512.3345	1515.8966	2232.1484	2995.2461	3040.5004	3041.4402	3048.5681	3049.7356	3109.4831	3113.2556	3116.4945	3128.8217	3137.1059	3502.5967	3825.8745
COC(C)(C)C(O)C#C	COC(C)(C)[C@@H](O)C#C	
InChI=1S/C7H12O2/c1-5-6(8)7(2,3)9-4/h1,6,8H,2-4H3	InChI=1S/C7H12O2/c1-5-6(8)7(2,3)9-4/h1,6,8H,2-4H3/t6-/m0/s1
