18
gdb 15768	3.76559	1.06801	0.87448	1.9136	77.09	-0.2481	0.0412	0.2893	1343.2996	0.151565	-347.761048	-347.751492	-347.750547	-347.797277	33.05	
C	 0.1226894179	 1.4112689895	 0.0479701992	-0.498588
C	 0.0642073732	-0.0429241506	 0.0166420133	 0.04945
C	 0.0241824106	-1.2469505459	 0.0077914328	 0.079164
C	-0.0694687195	-2.7100239233	-0.0519281991	-0.078927
O	-1.4227416428	-3.1523185431	 0.0661545217	-0.41743
C	 0.6056598809	-3.2578122655	-1.2986642525	 0.030608
C	 2.0763744419	-3.5854374606	-1.2714484361	-0.259949
C	 1.0538612165	-4.6934790744	-1.3224225496	-0.275675
H	 0.9073808943	 1.7601643086	 0.7282881056	 0.151164
H	 0.3347123434	 1.8260307057	-0.9436284286	 0.147685
H	-0.8256853272	 1.8387760379	 0.391726096	 0.150282
H	 0.4339262333	-3.1402002421	 0.8240464866	 0.105351
H	-1.9430090506	-2.6496908613	-0.5700995044	 0.279369
H	 0.2161294686	-2.8436761265	-2.2250430731	 0.08123
H	 2.6645472296	-3.3779321016	-2.1581259556	 0.112138
H	 2.6115977962	-3.4291864134	-0.3403103633	 0.114358
H	 0.8948269098	-5.283473274	-0.4258767608	 0.118544
H	 0.9401784937	-5.2510971494	-2.2452397423	 0.111225
15.7026	60.4278	94.6038	140.2798	211.751	245.6844	284.4691	317.3544	358.5125	446.0082	490.585	575.3353	752.8258	797.9692	835.0308	870.0391	942.7884	964.7626	1034.2654	1051.9272	1054.6554	1061.3011	1076.9976	1131.4217	1143.2804	1174.4064	1194.9199	1223.7651	1264.5043	1300.304	1410.2066	1413.3229	1417.6905	1471.7362	1477.2435	1478.7023	1506.2979	2365.5509	3021.6329	3027.0366	3087.9059	3088.6592	3131.1002	3134.5361	3140.998	3208.8454	3223.6201	3808.2621
CC#CC(O)C1CC1	CC#C[C@@H](O)C1CC1	
InChI=1S/C7H10O/c1-2-3-7(8)6-4-5-6/h6-8H,4-5H2,1H3	InChI=1S/C7H10O/c1-2-3-7(8)6-4-5-6/h6-8H,4-5H2,1H3/t7-/m1/s1
