13
gdb 24511	4.11657	1.73321	1.21968	2.8107	71.62	-0.2519	-0.0533	0.1986	915.2698	0.09389	-415.67856	-415.672899	-415.671955	-415.70855	22.583	
O	-0.063980953	 1.3422234516	 0.0098289431	-0.204527
C	 1.2293361407	 1.7932128258	 0.0001457237	 0.013723
C	 2.1406328956	 0.7903967085	-0.0141874027	-0.297569
C	 1.367634467	-0.4238502345	-0.0136391805	 0.281382
C	 0.0238695074	-0.0156317857	 0.0013658754	 0.292122
C	-0.9766866114	-0.9663521465	 0.0054995335	-0.085421
N	-0.6305288186	-2.2562229565	-0.0050160263	-0.255192
C	 0.6794870404	-2.5532939832	-0.0190879342	 0.051441
N	 1.7167588521	-1.7162666951	-0.0242036998	-0.338091
H	 1.3313788043	 2.8669077409	 0.0052272172	 0.155033
H	 3.2138039359	 0.8892915393	-0.0238316487	 0.136241
H	-2.0340401274	-0.7158259441	 0.0169218663	 0.131443
H	 0.919888927	-3.6131824805	-0.0273108669	 0.119415
223.6176	247.4379	432.0503	433.1446	564.781	602.3504	628.0056	645.0159	783.7085	790.8212	839.7438	878.6098	882.5033	917.9627	945.5524	999.9906	1050.4304	1126.5526	1160.268	1188.3787	1281.8101	1293.8782	1306.1459	1390.4362	1423.0712	1487.2616	1563.4877	1599.8312	1635.6351	3167.1663	3172.862	3265.2118	3285.266
O1C=CC2=C1C=NC=N2	o1ccc2c1cncn2	
InChI=1S/C6H4N2O/c1-2-9-6-3-7-4-8-5(1)6/h1-4H	InChI=1S/C6H4N2O/c1-2-9-6-3-7-4-8-5(1)6/h1-4H
