16
gdb 55600	3.51449	0.8331	0.73227	5.3788	67.39	-0.2469	-0.0376	0.2094	1496.1184	0.120841	-475.081118	-475.071136	-475.070192	-475.118244	33.679	
N	 0.5917081477	 0.7224626196	-0.2312293756	-0.503102
C	-0.1304804171	-0.2225227635	 0.4253118985	 0.398963
O	 0.2052440187	-0.6834123102	 1.5003700769	-0.352465
C	-1.4121679377	-0.6713158163	-0.2911919303	-0.395483
C	-1.3452275728	-2.1691544776	-0.6055718424	 0.374434
O	-1.1531704775	-2.5616192852	-1.7321275454	-0.292348
C	-1.5212487427	-3.1095507891	 0.5729287546	-0.397707
C	-1.1837808438	-4.5472162933	 0.2364289596	 0.173169
O	-1.8746682706	-5.4858430941	 0.5343765851	-0.241129
H	 1.4712859877	 1.0088221941	 0.1681959832	 0.269855
H	 0.3581791879	 1.0311628488	-1.1580751346	 0.27038
H	-2.2420137804	-0.4726023235	 0.394441785	 0.148935
H	-1.5768832732	-0.1356694557	-1.2276007308	 0.122674
H	-0.8721213768	-2.7462890333	 1.3836853681	 0.184948
H	-2.5506749796	-3.050545934	 0.9456051451	 0.145862
H	-0.2206558898	-4.6821901068	-0.2988790971	 0.093013
31.0813	50.1268	72.7041	79.0055	169.6426	215.5331	253.8709	318.0378	427.557	455.885	508.5446	520.1633	586.4498	627.0838	736.9755	746.4031	852.9339	881.2005	934.433	1035.168	1050.8872	1078.1306	1125.6636	1191.4205	1199.603	1270.1987	1328.0004	1375.1853	1425.2949	1433.0432	1461.8405	1620.8799	1785.5077	1808.4875	1839.3891	2915.8461	3019.1442	3061.9232	3077.3165	3130.1323	3602.1059	3740.2205
NC(=O)CC(=O)CC=O	NC(=O)CC(=O)CC=O	
InChI=1S/C5H7NO3/c6-5(9)3-4(8)1-2-7/h2H,1,3H2,(H2,6,9)	InChI=1S/C5H7NO3/c6-5(9)3-4(8)1-2-7/h2H,1,3H2,(H2,6,9)
