15
gdb 56447	2.62282	1.21388	0.91694	3.1038	68.05	-0.2662	-0.0554	0.2109	1234.8907	0.108969	-457.70278	-457.693703	-457.692759	-457.737577	32.186	
O	 0.36741509	 1.5540038477	 0.021157467	-0.414829
C	 0.0446964662	 0.1948084588	-0.0357146853	-0.112865
C	 0.319478647	-0.4037900227	-1.3473828605	 0.318186
C	 0.5510995711	-0.9069343594	-2.4138167482	-0.470856
C	 0.8262852951	-0.5780879604	 1.0500218612	 0.356496
O	 1.5784689639	 0.0281109099	 1.7757983893	-0.322529
C	 0.6077674529	-2.0571585515	 1.1479615354	-0.023451
C	 1.7529268731	-2.9207798344	 1.507791471	-0.155432
O	 0.748128121	-2.6118591703	 2.4550493074	-0.205231
H	 1.0495270458	 1.6221078383	 0.7110385057	 0.299792
H	-1.0270104865	 0.05209751	 0.1917627077	 0.127773
H	 0.7501814157	-1.3374045912	-3.3645206388	 0.209885
H	-0.1982368734	-2.471163916	 0.5460554037	 0.119328
H	 1.7662830256	-3.9452307574	 1.1399547186	 0.130997
H	 2.7177019624	-2.4497592814	 1.6831605858	 0.142737
49.0096	63.7449	121.7263	198.4703	229.1421	278.3103	329.6659	370.1774	425.2436	438.5988	578.3814	618.5928	638.0645	684.746	761.3648	844.7685	878.4217	891.7685	974.2264	1020.4588	1065.7366	1094.2736	1151.0257	1162.4052	1172.2922	1233.8631	1278.0028	1337.3109	1417.839	1431.7349	1509.3703	1811.0829	2232.0811	2948.6426	3094.0477	3143.7253	3194.3145	3500.0485	3659.038
OC(C#C)C(=O)C1CO1	O[C@@H](C#C)C(=O)[C@H]1CO1	
InChI=1S/C6H6O3/c1-2-4(7)6(8)5-3-9-5/h1,4-5,7H,3H2	InChI=1S/C6H6O3/c1-2-4(7)6(8)5-3-9-5/h1,4-5,7H,3H2/t4-,5+/m0/s1
