17
gdb 68443	2.75125	1.69685	1.3061	1.6188	67.53	-0.2506	-0.0466	0.2039	979.1607	0.135521	-458.94505	-458.937534	-458.93659	-458.977004	29.687	
O	 0.4176713178	 1.2524250894	-0.2931762332	-0.486973
C	 0.0882259915	-0.0671637336	-0.0784183181	 0.386095
C	 0.3980733581	-0.7844859908	 1.2652955197	-0.284916
C	-0.5802685791	-1.8167668745	 0.6512976716	 0.099558
C	-1.376426095	-0.6276770176	 0.0739081288	-0.308241
O	 0.1437816288	-2.3272701165	-0.500253801	-0.292835
C	 0.6684139066	-1.1212350444	-1.0604889474	-0.022305
C	 0.2220209018	-0.9030837453	-2.4888352173	 0.121037
O	 0.2458322369	 0.1895149278	-3.0091428301	-0.25857
H	 0.3802424617	 1.4020866361	-1.2502272069	 0.295484
H	 1.423537305	-1.1075416045	 1.4579417338	 0.10611
H	-0.0187078883	-0.2537539532	 2.1225586006	 0.11504
H	-1.019883505	-2.6446304825	 1.2004511375	 0.092748
H	-1.9399442807	-0.0759320931	 0.8269125353	 0.114322
H	-1.979956886	-0.8063213829	-0.8192954875	 0.102062
H	 1.7690633094	-1.1187713658	-1.0441331985	 0.112061
H	-0.1360169733	-1.8031673685	-3.0310704472	 0.109324
86.9801	184.2204	191.5879	351.2834	360.746	437.077	463.1755	505.323	527.1203	575.0958	645.3881	671.4802	800.7206	830.9643	897.3121	901.5196	944.2439	955.714	988.6957	1016.2413	1034.9099	1076.5462	1096.9161	1118.0991	1149.0729	1181.6155	1221.0174	1233.7179	1236.6632	1308.308	1330.9314	1339.1527	1392.6248	1417.1353	1473.9929	1513.8182	1799.7577	2922.0697	2992.6288	3069.7837	3075.8702	3140.6157	3148.3999	3166.1081	3712.2093
OC12CC(C1)OC2C=O	O[C@@]12C[C@@H](C1)O[C@H]2C=O	
InChI=1S/C6H8O3/c7-3-5-6(8)1-4(2-6)9-5/h3-5,8H,1-2H2	InChI=1S/C6H8O3/c7-3-5-6(8)1-4(2-6)9-5/h3-5,8H,1-2H2/t4-,5-,6-/m0/s1
