17
gdb 54135	3.01473	1.21855	1.04469	2.1117	69.26	-0.2465	0.0137	0.2603	1161.6822	0.134966	-455.207599	-455.198478	-455.197533	-455.241693	33.911	
C	-0.0160943085	 1.5666964101	-0.3305587207	-0.444528
C	-0.0553784798	 0.0746320944	-0.0245453927	 0.226533
C	 0.6473956718	-0.8408910118	-1.0898049539	-0.420298
C	 1.7198558957	-1.0874870247	-0.008214615	 0.425176
O	 2.7864533446	-1.6306939803	 0.0502051247	-0.34076
N	 0.9746336364	-0.3928226434	 0.9345399447	-0.376484
C	-1.4897769698	-0.376245405	 0.2974094485	 0.367607
N	-1.5917430521	-1.3386428108	 1.2497947204	-0.531987
O	-2.4436426711	 0.0897905659	-0.2967891664	-0.371892
H	 0.9747868672	 1.8605837482	-0.6886117756	 0.117189
H	-0.7659639164	 1.8036134402	-1.0868541772	 0.160354
H	-0.2496729659	 2.1536201436	 0.5641185312	 0.123426
H	 0.0912125195	-1.7293254954	-1.3926937383	 0.143093
H	 1.0133833807	-0.3158095482	-1.9732597992	 0.142734
H	 1.3107025497	 0.071680105	 1.7688625707	 0.248932
H	-0.7738529566	-1.7044117901	 1.7053156741	 0.266495
H	-2.5009783254	-1.7164616578	 1.4572153248	 0.264411
50.6487	84.2385	202.805	236.9747	263.4892	273.724	323.2281	366.2899	432.0162	459.3946	499.4002	529.9273	578.9125	629.8339	664.7385	763.3401	777.0077	875.731	903.8188	945.2029	977.197	1071.273	1081.8936	1109.3413	1163.7628	1189.1493	1220.9915	1252.1641	1352.258	1376.6605	1402.6046	1453.9165	1484.0644	1496.9356	1593.1515	1794.299	1901.8753	3041.8237	3091.4618	3107.7215	3148.118	3151.1702	3574.3215	3604.0519	3742.503
CC1(CC(=O)N1)C(N)=O	C[C@]1(CC(=O)N1)C(=O)N	
InChI=1S/C5H8N2O2/c1-5(4(6)9)2-3(8)7-5/h2H2,1H3,(H2,6,9)(H,7,8)	InChI=1S/C5H8N2O2/c1-5(4(6)9)2-3(8)7-5/h2H2,1H3,(H2,6,9)(H,7,8)/t5-/m0/s1
