21
gdb 99890	1.85979	1.49489	1.1367	1.7224	83.98	-0.2555	0.0529	0.3084	1230.7517	0.179184	-387.036056	-387.025716	-387.024772	-387.07121	38.279	
C	 0.1284735827	 1.4849628609	 0.1390346246	-0.413312
C	-0.0859734014	-0.0323320105	 0.1425070592	-0.183915
C	-1.5537888347	-0.520171556	-0.071272599	 0.002273
C	-2.1397003587	-0.0089360469	-1.4088153377	-0.420436
C	-1.5327439106	-1.9862126862	-0.0910200181	 0.337828
C	-1.4912357155	-3.1866412403	-0.1445075152	-0.471357
C	-2.4358312572	-0.0013464365	 1.0694599993	 0.100952
C	-3.4569335604	-0.7975468787	 1.758252834	-0.198552
O	-2.1951260705	-0.5131310337	 2.3749326085	-0.245419
H	 1.1882563569	 1.7064340795	 0.2979508655	 0.119801
H	-0.1601043466	 1.9424150231	-0.8120690663	 0.117911
H	-0.4285955579	 1.9830160847	 0.9381661948	 0.125961
H	 0.5299834381	-0.4898634601	-0.6394672628	 0.104432
H	 0.2569292625	-0.4488035505	 1.0947775473	 0.126552
H	-1.5001060139	-0.3060838057	-2.2442015997	 0.127137
H	-3.1356748659	-0.4271032988	-1.5768757427	 0.12702
H	-2.2228555322	 1.0816622197	-1.4088231691	 0.118284
H	-1.4541850179	-4.2473975455	-0.1803278632	 0.193868
H	-2.5832514829	 1.079337951	 1.0379868656	 0.091391
H	-4.3153248481	-0.2969779387	 2.2043574993	 0.1108
H	-3.6051429958	-1.8360666406	 1.4734505156	 0.128781
59.1612	92.6162	143.9663	164.0694	208.2537	219.0125	255.4683	280.4412	318.2799	349.5301	435.1732	479.6734	548.1948	600.7443	625.7172	644.5429	669.102	779.5731	845.5679	886.5579	899.1197	952.1019	995.696	1018.6345	1035.0916	1071.3062	1100.452	1161.0762	1165.9943	1181.4286	1191.2985	1237.9288	1307.5715	1322.6587	1369.9591	1402.9695	1412.5245	1426.5714	1480.5813	1490.6065	1498.2937	1506.3564	1509.5453	1520.9777	2231.3559	3040.8662	3043.8892	3045.1931	3084.3072	3089.5684	3098.6399	3107.1089	3115.9349	3119.805	3122.7675	3188.6385	3500.0671
CCC(C)(C#C)C1CO1	CC[C@@](C)(C#C)[C@H]1CO1	
InChI=1S/C8H12O/c1-4-8(3,5-2)7-6-9-7/h1,7H,5-6H2,2-3H3	InChI=1S/C8H12O/c1-4-8(3,5-2)7-6-9-7/h1,7H,5-6H2,2-3H3/t7-,8-/m1/s1
