15
gdb 53927	1.84954	1.61931	1.24716	2.9203	74.27	-0.2362	-0.0085	0.2277	1087.1518	0.108872	-416.725925	-416.716128	-416.715183	-416.760288	36.519	
N	-0.0965861893	 1.3230481318	-0.3031834865	-0.518548
C	 0.0813292164	 0.0057749161	 0.0286425093	 0.36308
N	 1.2115973237	-0.46857881	 0.3634403301	-0.526308
C	-1.2682764198	-0.782265445	 0.0400900316	-0.103644
O	-2.022179434	-0.3039189483	-1.0814630784	-0.439434
C	-1.0273065123	-2.2278717872	-0.0776972692	 0.324666
C	-0.8618433065	-3.4123092258	-0.1886033731	-0.437258
C	-1.9811559216	-0.4981227336	 1.2954718898	 0.355622
C	-2.5948893867	-0.2658819864	 2.3015317679	-0.485089
H	 0.7582681452	 1.8298783364	-0.4757642837	 0.258586
H	-0.8717703479	 1.5272882491	-0.9133649075	 0.26817
H	 1.1321498039	-1.4491499011	 0.6248596281	 0.22427
H	-2.9248190382	-0.6278492816	-0.9829692806	 0.296474
H	-0.710878629	-4.459485595	-0.2875486456	 0.20907
H	-3.1227106039	-0.0559214594	 3.1993932378	 0.210344
56.0215	124.4727	138.9574	162.2121	229.2366	292.3362	316.6626	378.4682	422.7177	444.2911	499.8707	511.2245	543.1577	561.3949	621.4074	643.0597	647.1088	672.0789	676.4718	681.008	727.0309	840.72	959.4135	1061.6544	1105.9505	1141.2269	1164.6134	1329.8899	1408.9799	1607.737	1744.6739	2234.4923	2238.286	3497.9422	3499.149	3510.5757	3583.5426	3704.3313	3806.8117
NC(=N)C(O)(C#C)C#C	NC(=N)C(O)(C#C)C#C	
InChI=1S/C6H6N2O/c1-3-6(9,4-2)5(7)8/h1-2,9H,(H3,7,8)	InChI=1S/C6H6N2O/c1-3-6(9,4-2)5(7)8/h1-2,9H,(H3,7,8)
