19
gdb 122476	3.8417	0.79986	0.76009	3.8451	78.43	-0.2532	0.0152	0.2684	1551.8072	0.158043	-419.173189	-419.16352	-419.162576	-419.208762	33.878	
C	-1.2730012506	 1.164858511	-0.1244622614	-0.227642
O	-1.0138333053	-0.2192213124	-0.1107992822	-0.231529
C	 0.1542490613	-0.5542610296	 0.6066114309	-0.053876
C	 0.3127530653	-2.0660114564	 0.6022002018	-0.169843
N	-0.724729337	-2.6854560881	 1.4261385247	-0.075988
C	-1.984799677	-2.9959063951	 0.7835120314	-0.220258
C	-1.0531438182	-4.0996679866	 1.1925519694	-0.155968
C	-0.3774077225	-4.862347867	 0.1707807407	 0.285277
N	 0.1834000021	-5.4872093221	-0.6253941242	-0.33841
H	-2.1863758349	 1.3213763943	-0.7031267938	 0.129232
H	-1.4217772362	 1.5622069331	 0.8917119237	 0.108094
H	-0.4523925158	 1.7279743314	-0.5962465706	 0.106928
H	 1.0413338412	-0.0936190846	 0.1401886752	 0.090744
H	 0.0915649656	-0.1887277806	 1.6441987063	 0.099671
H	 0.3014236915	-2.4247752842	-0.4382969327	 0.121253
H	 1.2855058254	-2.3239746514	 1.0340399065	 0.118652
H	-2.8802540458	-2.8215352982	 1.3726303131	 0.130866
H	-2.0791002281	-2.7971050891	-0.2805253881	 0.144741
H	-1.2585096708	-4.6685700542	 2.0949569292	 0.138056
45.9	80.5125	112.4746	124.4112	212.3492	228.6769	266.3734	287.0185	348.7586	388.2899	524.2808	557.7966	652.2787	737.8646	806.2526	861.8295	910.0817	959.5487	1021.2264	1044.8018	1068.5084	1100.7467	1120.1127	1137.1572	1157.0085	1165.3044	1188.0077	1230.1881	1267.134	1306.8201	1325.7076	1367.3332	1393.1452	1424.8555	1480.0041	1482.242	1486.0009	1499.7352	1510.0572	1523.4651	2348.3989	2960.5173	2975.3862	2990.4078	3006.6865	3019.0057	3078.6982	3115.4409	3116.6792	3150.1164	3207.2013
COCCN1CC1C#N	COCCN1C[C@H]1C#N	
InChI=1S/C6H10N2O/c1-9-3-2-8-5-6(8)4-7/h6H,2-3,5H2,1H3	InChI=1S/C6H10N2O/c1-9-3-2-8-5-6(8)4-7/h6H,2-3,5H2,1H3/t6-,8?/m1/s1
