23
gdb 117626	2.79903	0.77236	0.70571	1.1247	92.35	-0.2427	0.0611	0.3037	1770.425	0.201448	-388.266347	-388.254299	-388.253355	-388.305286	41.593	
C	-0.0631711911	 1.4019709508	 0.0101747544	-0.226987
O	-0.0055777714	-0.0034084687	 0.0021014067	-0.240692
C	-1.2808005484	-0.6071678977	 0.0109982633	-0.053017
C	-1.1151381518	-2.1431524346	 0.0011958689	 0.040166
C	-0.358327732	-2.5776202574	-1.2746190067	-0.400606
C	-0.3341254318	-2.5911666464	 1.2575928214	-0.400608
C	-2.4588996823	-2.7330633714	 0.0108716579	 0.078381
C	-3.5644357063	-3.2116577027	 0.0188983121	 0.035778
C	-4.8975339771	-3.7987081664	 0.0284491017	-0.498679
H	 0.9647697154	 1.77279605	 0.0023563355	 0.126279
H	-0.5898305788	 1.794701365	-0.8741732642	 0.104371
H	-0.5728287393	 1.7851570968	 0.9085602577	 0.104371
H	-1.8464703682	-0.3027712792	 0.9067135613	 0.089692
H	-1.8633811498	-0.2932484337	-0.8704776438	 0.089692
H	 0.6231370648	-2.0987226331	-1.3064777772	 0.128385
H	-0.2259434098	-3.6628366521	-1.2904417529	 0.114777
H	-0.9144810421	-2.2909870733	-2.1721434418	 0.113602
H	-0.8729974979	-2.3142166813	 2.168597733	 0.113602
H	-0.2015605515	-3.6764750731	 1.259269903	 0.114776
H	 0.6478129879	-2.1125261579	 1.2758157397	 0.128388
H	-4.8495536937	-4.8933935305	 0.022366691	 0.147035
H	-5.4603613507	-3.4983866269	 0.9193415182	 0.145647
H	-5.4770098042	-3.4893061163	-0.8485538393	 0.145649
15.7402	74.2372	76.7876	96.4569	135.3547	199.6274	214.7487	240.6013	255.557	291.746	293.8087	326.7691	361.2203	371.6929	425.9227	547.5238	550.8309	698.3837	837.2771	930.1824	967.0952	979.9393	1009.3946	1047.288	1053.2627	1054.4769	1075.3322	1156.3861	1171.9253	1200.3988	1222.731	1233.9712	1277.6555	1291.6533	1388.9427	1397.3756	1414.4392	1423.1847	1479.0032	1479.5581	1479.6195	1481.7806	1485.299	1486.6639	1494.2422	1503.305	1508.5357	1525.4864	2366.6382	2958.9943	2972.5709	2996.6803	3012.8547	3025.3323	3041.4485	3045.433	3085.1291	3085.5955	3112.457	3112.6035	3115.5034	3128.476	3132.4584
COCC(C)(C)C#CC	COCC(C)(C)C#CC	
InChI=1S/C8H14O/c1-5-6-8(2,3)7-9-4/h7H2,1-4H3	InChI=1S/C8H14O/c1-5-6-8(2,3)7-9-4/h7H2,1-4H3
