17
gdb 108191	3.27268	1.50272	1.3457	0.9145	66.95	-0.2507	-0.004	0.2467	982.9624	0.136986	-458.943924	-458.936606	-458.935662	-458.97563	29.07	
O	 0.0348011101	 1.4078058176	 0.0075970188	-0.415763
C	 0.0142017261	-0.0052215972	 0.0370447301	-0.160925
C	-1.394537496	-0.5397879408	-0.0483322577	 0.263656
C	-1.6293004215	-2.0824727678	 0.068434546	-0.111212
O	-2.9737707982	-2.1469579401	 0.5561104765	-0.271287
C	-3.3544502966	-0.7580215454	 0.6986492581	 0.118568
O	-2.1596810053	-0.1365996835	 1.1172133458	-0.271639
C	-3.5456599374	-0.2067650794	-0.7120253782	-0.087868
C	-2.3052508942	-0.07921047	-1.1831573021	-0.120534
H	-0.5991973213	 1.7042039126	 0.6711671076	 0.295693
H	 0.5964889034	-0.3502105523	-0.8240999734	 0.114309
H	 0.4912877143	-0.4034465216	 0.9460526784	 0.101414
H	-1.537088491	-2.6040797729	-0.8891538599	 0.106224
H	-0.9519152792	-2.5298410768	 0.8043250887	 0.109757
H	-4.1506963447	-0.6754671076	 1.4350107835	 0.096111
H	-4.4917118273	-0.0972238053	-1.2228760807	 0.116813
H	-1.9687543111	 0.1680843306	-2.1800889916	 0.116683
98.2968	159.3685	266.5026	333.7583	363.6394	410.763	443.5435	507.4185	628.3417	688.3633	724.5486	737.6265	822.3725	830.6931	865.1281	886.1954	923.6472	942.9687	973.4354	1001.0622	1037.6117	1049.3567	1069.5176	1120.1659	1140.9923	1196.9846	1244.1059	1261.1687	1283.1605	1324.3697	1335.872	1368.5534	1384.453	1441.5549	1496.3463	1511.3022	1638.6583	2988.8808	3034.6249	3074.6765	3087.0309	3157.8583	3225.7219	3250.6195	3798.473
OCC12COC(O1)C=C2	OC[C@@]12CO[C@@H](O1)C=C2	
InChI=1S/C6H8O3/c7-3-6-2-1-5(9-6)8-4-6/h1-2,5,7H,3-4H2	InChI=1S/C6H8O3/c7-3-6-2-1-5(9-6)8-4-6/h1-2,5,7H,3-4H2/t5-,6-/m0/s1
