17
gdb 52490	8.22158	0.49094	0.48373	1.9858	98.34	-0.2325	-0.0111	0.2215	2254.7714	0.134471	-384.624884	-384.615171	-384.614227	-384.662949	32.632	
C	 0.0487389859	 1.5541514386	-0.06552372	-0.518129
C	 0.0419122787	 0.1026860645	-0.0440931877	 0.23871
C	 0.0360149006	-1.1076995954	-0.0261517822	-0.191348
C	 0.0293376532	-2.4668866022	-0.0059265111	-0.2424
C	 0.0223556707	-3.6785410305	 0.0132763052	 0.356564
C	 0.0050931689	-5.1205985684	 0.046359181	-0.267565
C	 0.1918706512	-5.8476452254	 1.4110877296	-0.072729
O	-0.982863803	-6.6477882749	 1.1893830127	-0.266458
C	-1.3656190896	-5.860269176	 0.0480261152	-0.072732
H	 1.0722688869	 1.9454787968	-0.0826556985	 0.15685
H	-0.4695339068	 1.9395181286	-0.9509358801	 0.156957
H	-0.4508470208	 1.966477817	 0.8184464522	 0.156888
H	 0.6750549439	-5.5305758749	-0.7153672699	 0.116298
H	 1.0959135569	-6.4559527857	 1.518404389	 0.112271
H	 0.086815472	-5.1847374768	 2.2786098149	 0.112275
H	-2.2176167647	-5.2034154224	 0.2618508586	 0.112279
H	-1.586200684	-6.4776926228	-0.8288893188	 0.11227
6.9542	55.7936	65.7063	106.7551	165.827	193.8204	322.1713	323.681	413.7295	476.0922	536.9324	574.3776	581.8992	752.0377	876.8548	888.7882	977.858	993.5753	1041.022	1047.7805	1048.1748	1071.4579	1105.2153	1158.7113	1172.1482	1233.5247	1279.1301	1303.7808	1355.3134	1383.2461	1413.631	1471.7527	1472.023	1508.9534	1534.5389	2276.1091	2382.2534	3017.5125	3023.2967	3027.5707	3054.8086	3076.7492	3083.4145	3085.401	3085.5157
CC#CC#CC1COC1	CC#CC#CC1COC1	
InChI=1S/C8H8O/c1-2-3-4-5-8-6-9-7-8/h8H,6-7H2,1H3	InChI=1S/C8H8O/c1-2-3-4-5-8-6-9-7-8/h8H,6-7H2,1H3
