13
gdb 28411	3.26131	1.45811	1.00761	3.0038	66.7	-0.2125	-0.0352	0.1774	1067.1298	0.090121	-489.919514	-489.912162	-489.911218	-489.951326	28.068	
O	-0.1425342366	 1.2795808351	 0.010062816	-0.382556
C	 0.0566766598	-0.0382385746	 0.0021049234	 0.498056
N	 1.2190478665	-0.5679820492	-0.0068956182	-0.40021
C	 1.2438640665	-1.9562203541	-0.0141923878	-0.149509
C	 0.1296228068	-2.721393706	-0.0121135279	 0.270411
O	 0.0923085833	-4.0760563103	-0.0189091197	-0.413162
C	-1.1792607384	-2.0798560712	-0.0017121232	 0.361769
N	-2.2895076248	-2.6792219982	 0.0012104547	-0.516703
O	-1.12155112	-0.6739199775	 0.0052232414	-0.231667
H	 0.7360543174	 1.6838636703	 0.0074242311	 0.321065
H	 2.2327077678	-2.4061956696	-0.0218647739	 0.107146
H	 0.9956343124	-4.4126127587	-0.0255098277	 0.301953
H	-3.0649948509	-2.0168430261	 0.0088269018	 0.233407
114.3566	152.6553	320.1071	347.6618	357.7952	395.8803	412.7213	481.5641	532.5975	534.4104	593.6588	732.6872	751.2612	754.3214	795.4214	852.521	897.4128	982.0493	1033.5956	1171.2036	1181.2946	1251.7302	1296.1572	1322.5453	1450.6392	1475.6251	1653.949	1681.8237	1766.8167	3166.5099	3500.1992	3788.3688	3808.7924
OC1=NC=C(O)C(=N)O1	OC1=NCC(=C([NH])O1)O	
InChI=1S/C4H4N2O3/c5-3-2(7)1-6-4(8)9-3/h1,5,7H,(H,6,8)	InChI=1S/C4H5N2O3/c5-3-2(7)1-6-4(8)9-3/h5,7H,1H2,(H,6,8)
