14
gdb 124422	3.34805	1.17136	1.06758	3.7956	66.89	-0.3084	-0.0469	0.2615	1133.4399	0.101537	-432.880662	-432.872704	-432.871759	-432.914505	27.67	
C	-0.0405287019	 1.5473748027	 0.0051226269	-0.400655
C	-0.0210488675	 0.0000937066	 0.038046583	-0.248225
C	 0.7125828926	-0.4911367992	 1.2121549289	 0.27905
N	 1.308289106	-0.8587149104	 2.1305619362	-0.305903
C	-1.4089776021	-0.5725031189	-0.0096560481	 0.453078
N	-1.9414245602	-1.2732373009	-0.9637357179	-0.313921
C	-3.2144527717	-1.4699359483	-0.4821012905	 0.040881
N	-3.4591692897	-0.9339390055	 0.6808924138	-0.098232
O	-2.2408868989	-0.3232255947	 1.006226491	-0.19489
H	 0.9814641343	 1.931317332	 0.0069876125	 0.151259
H	-0.5460420066	 1.8872631297	-0.9017554469	 0.146366
H	-0.5674757283	 1.9429055093	 0.8754616682	 0.162291
H	 0.4852508355	-0.3785874272	-0.8551341073	 0.170231
H	-3.9722615614	-2.0267592452	-1.0133521197	 0.158668
30.3075	107.0587	173.6354	201.654	232.0319	333.4038	388.4582	478.2714	562.529	658.7188	709.3691	785.8279	868.8773	913.8981	932.1501	979.205	998.6215	1022.5667	1080.2338	1111.8114	1179.6806	1257.9262	1293.6096	1319.3151	1344.088	1410.8254	1492.0036	1495.0171	1515.84	1624.6046	2367.9603	3060.2508	3079.9265	3142.684	3150.5329	3266.725
CC(C#N)C1=NC=NO1	C[C@@H](C#N)c1ncno1	
InChI=1S/C5H5N3O/c1-4(2-6)5-7-3-8-9-5/h3-4H,1H3	InChI=1S/C5H5N3O/c1-4(2-6)5-7-3-8-9-5/h3-4H,1H3/t4-/m0/s1
