20
gdb 121653	2.66598	0.98666	0.80931	2.5226	76.92	-0.2465	-0.0314	0.2151	1477.3676	0.169469	-440.265888	-440.255983	-440.255039	-440.302136	34.729	
C	-1.1887708457	 0.406576029	-0.7016699643	-0.385133
C	 0.2229735224	-0.0843534584	-0.9670536894	-0.046429
O	 0.3482038386	-1.3965715888	-0.4334838336	-0.231664
C	 1.631779312	-1.9485295482	-0.5882117408	-0.176265
C	 1.9266832095	-2.4960095331	-1.9872604011	 0.337741
O	 3.0683320733	-2.6018711388	-2.3875629816	-0.332147
C	 0.7650211348	-2.9473823488	-2.812187191	-0.093526
C	 0.7460053662	-2.4756817986	-4.2386018054	-0.220449
N	 1.0621975856	-3.8598760805	-3.927497662	-0.305533
H	-1.9213171248	-0.2423724455	-1.1898169657	 0.128827
H	-1.3966914094	 0.4117084307	 0.3718704699	 0.13134
H	-1.3151387923	 1.4228393374	-1.0862594721	 0.119792
H	 0.4355426031	-0.0873763446	-2.0477468111	 0.096359
H	 0.9637201618	 0.5781909683	-0.4912118406	 0.097271
H	 2.4305710912	-1.241550938	-0.3222034979	 0.119943
H	 1.6975526134	-2.79700356	 0.105848615	 0.137733
H	-0.1737284663	-3.1063083722	-2.2950570926	 0.115509
H	-0.2149364325	-2.3074099873	-4.7160240584	 0.128054
H	 1.5507353861	-1.8137879389	-4.5475074991	 0.130194
H	 2.077558033	-3.9695242737	-3.9481640282	 0.248383
52.3499	54.0575	79.7614	112.7887	197.1888	249.182	259.0879	289.3993	305.1889	391.8382	530.0275	563.3356	665.4326	775.1262	820.9636	845.0064	869.9318	892.068	960.4258	997.6755	1030.2392	1041.9007	1109.907	1129.0493	1135.4848	1148.9933	1176.6059	1185.7728	1191.9596	1283.8358	1290.7073	1299.3531	1322.9149	1363.7946	1396.9365	1403.509	1431.282	1460.2929	1483.7921	1497.2211	1498.6945	1524.4685	1782.8572	2970.9486	3000.5174	3007.0347	3046.9359	3056.052	3110.8265	3121.8817	3124.3299	3188.7952	3205.2427	3455.4368
CCOCC(=O)C1CN1	CCOCC(=O)[C@H]1CN1	
InChI=1S/C6H11NO2/c1-2-9-4-6(8)5-3-7-5/h5,7H,2-4H2,1H3	InChI=1S/C6H11NO2/c1-2-9-4-6(8)5-3-7-5/h5,7H,2-4H2,1H3/t5-/m1/s1
