15
gdb 66888	2.66144	2.13412	1.47741	0.9494	69.95	-0.2434	-0.0301	0.2133	878.1452	0.114783	-412.932954	-412.926074	-412.92513	-412.963921	27.523	
N	-0.1968271064	 1.428186792	-0.1138410734	-0.611287
C	-0.0258902276	 0.0330150323	 0.0128566849	 0.245856
C	-0.2323384046	-0.8844579888	-1.2307581593	-0.05127
N	 0.6604199165	-2.0224212799	-1.4124299571	-0.183976
C	 0.657167725	-2.6102548824	-0.2860051102	 0.004549
N	-0.1567837622	-1.9990351403	 0.7575021231	-0.225159
C	-1.0764049473	-1.1042265531	-0.0375629178	-0.073163
C	 0.6153781001	-0.7488402947	 1.0912009677	 0.333016
N	 1.3536580413	-0.4546831368	 2.0623314829	-0.556584
H	-0.2220409648	 1.8680126819	 0.8011041921	 0.25176
H	 0.5656903829	 1.8478755341	-0.6353711029	 0.249381
H	-0.595127455	-0.3733079241	-2.1128335213	 0.122844
H	 1.2595814681	-3.4775169192	-0.0418698296	 0.136461
H	-2.1462638169	-1.0909875781	 0.1178177927	 0.124965
H	 1.4878233509	-1.2542724829	 2.6832734982	 0.232606
142.7473	232.418	250.2464	301.1601	390.8877	446.0706	503.8196	660.2625	683.5906	715.0122	754.9469	775.5172	826.3839	842.767	872.4698	895.2036	911.0498	931.7799	957.0513	984.6025	1008.7609	1025.835	1045.1388	1151.6354	1210.2221	1217.9918	1268.0093	1298.3496	1317.4193	1432.0317	1658.3819	1663.5978	1802.4002	3211.5167	3215.5209	3221.6704	3474.4902	3504.0216	3578.7856
NC12C3N=CN(C13)C2=N	N[C@]12[C@H]3[N][CH]N([C@@H]13)[C]2[NH]	
InChI=1S/C5H6N4/c6-4-5(7)2-3(5)9(4)1-8-2/h1-3,6H,7H2	InChI=1S/C5H6N4/c6-4-5(7)2-3(5)9(4)1-8-2/h1-3,6H,7H2/t2-,3+,5+/m0/s1
