19
gdb 68396	2.54622	1.99717	1.44566	1.3356	73.76	-0.21	0.0712	0.2811	944.9231	0.162189	-419.148207	-419.141172	-419.140228	-419.179009	29.946	
O	-0.1937881387	 1.3816798458	 0.0132972045	-0.496317
C	 0.0211241569	-0.0032173593	 0.0129230709	 0.385528
C	 0.9478773899	-0.7079865029	-1.0203126017	-0.232193
N	 1.2340341712	-1.7512049423	 0.0272101348	-0.117969
C	 0.9126884021	-0.7044780821	 1.0638346277	-0.241443
C	 0.1649232945	-2.7733858308	 0.0096221675	-0.17967
C	-1.2481338467	-2.1894022784	-0.0786379062	-0.041417
N	-1.7578075924	-1.4750029235	 1.1149597947	-0.33961
C	-1.326760946	-0.7078093062	-0.0642407218	-0.0548
H	 0.6621104185	 1.8183206867	 0.0796963503	 0.277819
H	 0.5135123816	-1.0749863068	-1.9553528786	 0.098786
H	 1.8624381103	-0.1426115017	-1.2334834492	 0.093724
H	 1.8170897077	-0.1268130123	 1.2903179809	 0.085556
H	 0.4474661951	-1.0641975291	 1.9809512651	 0.13446
H	 0.3393579609	-3.4154806749	-0.86127348	 0.103939
H	 0.2724550275	-3.396453965	 0.90386877	 0.114264
H	-1.9692058149	-2.7452383225	-0.6732722092	 0.086045
H	-2.7729549903	-1.5267026133	 1.1393327043	 0.232207
H	-2.0709110772	-0.1905569516	-0.663628344	 0.091092
218.8483	267.3161	313.2023	331.7432	390.8792	433.6972	442.2848	473.9024	541.6254	607.3405	694.3547	768.3513	808.4707	854.8783	868.1507	901.5663	918.8994	930.0203	977.4403	986.7762	1020.2997	1037.5034	1054.6094	1111.4972	1128.1049	1140.2879	1153.2128	1188.808	1220.2813	1244.6599	1254.5144	1262.8872	1295.3616	1300.5787	1352.5953	1367.841	1412.057	1446.8671	1475.466	1482.0939	1513.0449	3024.975	3030.4249	3037.5906	3080.037	3091.0646	3130.3122	3142.134	3152.4189	3503.3597	3807.9954
OC12CN(C1)CC1NC21	O[C@@]12CN(C1)C[C@H]1N[C@@H]21	
InChI=1S/C6H10N2O/c9-6-2-8(3-6)1-4-5(6)7-4/h4-5,7,9H,1-3H2	InChI=1S/C6H10N2O/c9-6-2-8(3-6)1-4-5(6)7-4/h4-5,7,9H,1-3H2/t4-,5-/m1/s1
