17
gdb 111377	2.04394	1.80917	1.14729	2.7167	74.59	-0.2402	0.0387	0.2789	1093.5952	0.133333	-421.730166	-421.721466	-421.720522	-421.763654	32.076	
C	 0.063977161	 1.328417742	-0.0831705677	-0.245152
O	-0.2885176906	-0.005940822	 0.2332245956	-0.234074
C	 0.5525817519	-0.6007644516	 1.1581137665	 0.138794
C	 0.1446188022	-2.0062671366	 1.5881782711	-0.025414
O	 0.2830795618	-2.8787801158	 0.4638302314	-0.222183
C	 1.4528088051	-2.5657532939	 1.2064394961	 0.02938
C	 1.9725361242	-1.2050449958	 0.6942790939	-0.321065
C	 2.3466521347	-1.1229800332	-0.6999952915	 0.365707
C	 2.6678507341	-1.0481178182	-1.8563885582	-0.447622
H	 1.0585609005	 1.3858959086	-0.542668767	 0.125677
H	-0.6788174777	 1.6931133701	-0.795586184	 0.132684
H	 0.0460024162	 1.9693060821	 0.8121329354	 0.102739
H	 0.7191037561	 0.0481747149	 2.032280147	 0.073236
H	-0.5568743602	-2.2970145351	 2.360786336	 0.111806
H	 2.0234909755	-3.3815823518	 1.6332069366	 0.114049
H	 2.7666918841	-0.8098519938	 1.3356746575	 0.105006
H	 2.939589171	-0.9942286799	-2.8813917984	 0.196432
101.1949	113.6742	135.9417	175.4587	192.4004	290.5013	364.612	374.4109	505.9167	591.7589	622.1517	627.1156	659.3011	766.9485	780.3703	865.4109	875.5891	911.2513	959.0751	1029.966	1032.5118	1052.5851	1073.9621	1134.625	1177.8819	1184.7262	1226.6027	1242.0067	1252.8977	1280.1824	1328.4433	1386.2099	1397.2518	1482.3079	1489.0823	1506.5846	2234.7792	2978.681	2985.5506	3055.9066	3060.0444	3126.6705	3187.91	3202.2713	3503.7241
COC1C2OC2C1C#C	CO[C@H]1[C@H]2O[C@H]2[C@H]1C#C	
InChI=1S/C7H8O2/c1-3-4-5(8-2)7-6(4)9-7/h1,4-7H,2H3	InChI=1S/C7H8O2/c1-3-4-5(8-2)7-6(4)9-7/h1,4-7H,2H3/t4-,5+,6-,7+/m0/s1
