21
gdb 77495	1.93299	1.69064	1.26758	2.3982	79.18	-0.2427	0.0684	0.3111	1134.4948	0.180205	-424.184851	-424.175048	-424.174104	-424.218477	37.572	
C	-0.0107018449	 1.5074563464	 0.0592188494	-0.523577
C	 0.0168374495	 0.0037011725	 0.0288616068	 0.230043
C	 0.6001914911	-0.9291628708	-1.0777550746	-0.346952
C	 0.0435962472	-1.9181404449	-0.0018117819	 0.254045
C	 0.0625330669	-3.4218127194	-0.0190058246	-0.52049
C	 0.660480367	-0.9628058502	 1.0785886086	 0.113544
O	 2.0395478421	-0.9459064469	 1.3342349724	-0.456702
C	-1.1939929381	-0.9880682301	 0.0327251973	 0.081734
O	-2.009440902	-1.1057103579	 1.1738295193	-0.445181
H	 1.0020505872	 1.9152218364	 0.1494310301	 0.125368
H	-0.4616074811	 1.9234957722	-0.8487225577	 0.115129
H	-0.5860854312	 1.8683937124	 0.9197389915	 0.116563
H	 0.0894290881	-0.9227790458	-2.0462621642	 0.090012
H	 1.6819724264	-0.9109494771	-1.2374457001	 0.078871
H	 1.0876707002	-3.7990172735	 0.0628818964	 0.119486
H	-0.5104017262	-3.822048066	 0.823845105	 0.132778
H	-0.3715876813	-3.8191358688	-0.9430476239	 0.115004
H	 0.1754793681	-0.9854212773	 2.0531542943	 0.096077
H	 2.5210994759	-0.9385167974	 0.5011216687	 0.27866
H	-1.7916172139	-0.9826906055	-0.889469514	 0.060005
H	-2.647772041	-0.3860877084	 1.164417181	 0.285583
176.2014	182.5737	184.9802	194.4206	198.931	214.5338	250.3207	264.6424	271.7711	393.6912	423.4273	503.0303	558.4543	588.1181	655.9233	676.5492	763.4227	817.7891	851.3815	905.4806	916.1848	998.1833	1024.1906	1053.5498	1081.1036	1116.2503	1132.2948	1147.9289	1174.2781	1192.0487	1195.0183	1215.6147	1261.4822	1282.3208	1334.2317	1354.1633	1404.8913	1409.4973	1426.208	1468.2226	1487.5104	1488.4369	1490.8269	1492.3764	1538.9477	3003.1629	3022.269	3028.1767	3043.3511	3086.9224	3090.5654	3092.3133	3094.1252	3101.3033	3134.8373	3817.7359	3824.628
CC12CC(C)(C1O)C2O	C[C@@]12C[C@@](C)([C@H]1O)[C@H]2O	
InChI=1S/C7H12O2/c1-6-3-7(2,4(6)8)5(6)9/h4-5,8-9H,3H2,1-2H3	InChI=1S/C7H12O2/c1-6-3-7(2,4(6)8)5(6)9/h4-5,8-9H,3H2,1-2H3/t4-,5-,6-,7+
