20
gdb 72019	2.78816	2.03532	1.83893	1.6669	79.89	-0.2231	0.0971	0.3202	883.8767	0.174552	-365.993944	-365.98747	-365.986526	-366.024205	28.342	
C	-0.039058321	 1.4837582769	 0.0123998039	-0.49575
C	 0.0234781741	-0.0199091349	-0.0442897637	 0.364257
C	 0.4936533305	-0.7231605045	-1.3207671522	-0.24975
C	 0.4819304244	-2.1377508124	-0.6985243457	-0.060985
C	 1.4950627778	-1.949980398	 0.4577119761	-0.221748
C	 0.704247109	-0.8252913289	 1.1474473805	-0.111119
C	-0.683209592	-1.4424563751	 1.3648397404	-0.041861
C	-0.8780530079	-2.1153775701	 0.0536300338	-0.044624
N	-1.3166742561	-0.6940255582	 0.238092718	-0.177813
H	 0.9571963847	 1.9206657627	-0.1155902984	 0.111982
H	-0.690596577	 1.8723870528	-0.7774949881	 0.123876
H	-0.4401372091	 1.8232801359	 0.9725339115	 0.121744
H	-0.2299983057	-0.5917424366	-2.1306991517	 0.10306
H	 1.4861511279	-0.41418678	-1.6642994888	 0.091455
H	 0.6363459186	-2.9834037518	-1.3672777413	 0.062293
H	 1.5931630367	-2.8330967315	 1.0972783617	 0.095078
H	 2.4881130298	-1.6515570438	 0.1045628674	 0.09081
H	 1.1758941129	-0.2627087899	 1.9507925969	 0.065269
H	-1.2038492054	-1.6647376233	 2.2903913542	 0.083934
H	-1.6682207223	-2.8327783194	-0.1294239545	 0.089892
219.2757	258.1233	275.1778	426.4189	468.4282	552.833	588.0902	638.3949	690.7272	788.7318	792.1329	814.8926	847.253	867.8426	888.2728	905.7532	919.9572	925.8379	954.0442	964.7141	983.6043	1009.2748	1047.5045	1059.5748	1082.0847	1110.0843	1157.5791	1164.8882	1187.4257	1200.3877	1223.3652	1248.2531	1260.3919	1278.8254	1286.5175	1328.866	1339.8596	1361.4542	1414.8803	1475.916	1484.1596	1494.0647	1499.8202	3030.6655	3039.9603	3050.205	3091.3799	3099.3716	3103.4138	3104.834	3126.085	3134.1765	3161.1625	3192.3726
CC12CC3CC1C1C3N21	C[C@@]12C[C@H]3C[C@@H]1[C@@H]1[C@H]3N21	
InChI=1S/C8H11N/c1-8-3-4-2-5(8)7-6(4)9(7)8/h4-7H,2-3H2,1H3	InChI=1S/C8H11N/c1-8-3-4-2-5(8)7-6(4)9(7)8/h4-7H,2-3H2,1H3/t4-,5-,6+,7-,8-,9?/m1/s1
