17
gdb 32442	3.22124	1.20866	0.88962	1.3837	73.13	-0.1701	0.0515	0.2216	1274.2286	0.135811	-455.148127	-455.138737	-455.137793	-455.182014	34.451	
C	 0.0588728918	 1.3891140879	-0.0625531676	-0.323053
N	-0.1498176562	-0.0396103073	 0.0892980266	-0.398686
C	 0.5472024444	-0.6809301321	 1.1065879354	 0.223217
C	 1.2006733049	-0.1729158257	 2.1879066955	-0.143163
O	 1.6990884371	-1.2147069212	 2.9630573537	-0.18982
C	 1.3696334727	-2.366980283	 2.3481826809	 0.333358
N	 1.7284388875	-3.5517380562	 2.9783875509	-0.600907
C	 0.6632168883	-2.1140320724	 1.2118390129	 0.032197
O	 0.2315417089	-3.0412459086	 0.2866307046	-0.458845
H	 1.1184770049	 1.6665198145	-0.1855573464	 0.110609
H	-0.5030668257	 1.7488178446	-0.9277250898	 0.121043
H	-0.3216961629	 1.9088160343	 0.823865268	 0.131841
H	-0.0856204438	-0.5519394177	-0.7807274131	 0.235305
H	 1.3908840327	 0.8155490005	 2.5626037456	 0.119916
H	 2.668937979	-3.5208552002	 3.3553652432	 0.252706
H	 1.633408911	-4.3343687331	 2.342981655	 0.256408
H	-0.7254141147	-3.1317937443	 0.3653741146	 0.297874
85.8646	152.4095	174.7357	182.143	221.3921	240.8434	300.9517	308.2582	338.6718	389.5	542.2247	560.0944	580.0332	627.025	674.9464	699.7112	756.0734	783.8867	798.5824	991.888	1054.6423	1107.1328	1152.0369	1169.7597	1176.8527	1226.8857	1273.9323	1305.6501	1369.2165	1455.2585	1457.8803	1481.5355	1512.9421	1527.7404	1624.2499	1651.1955	1723.1175	2972.263	3060.7974	3117.0799	3306.1967	3522.6539	3565.5162	3622.1234	3768.0398
CNC1=COC(N)=C1O	CNc1coc(N)c1O	
InChI=1S/C5H8N2O2/c1-7-3-2-9-5(6)4(3)8/h2,7-8H,6H2,1H3	InChI=1S/C5H8N2O2/c1-7-3-2-9-5(6)4(3)8/h2,7-8H,6H2,1H3
