19
gdb 36343	5.09491	0.82375	0.7816	2.1153	82.4	-0.2563	0.0516	0.3078	1496.7049	0.157194	-385.827563	-385.818547	-385.817602	-385.86194	33.711	
C	-0.0685046395	-1.1105209331	-0.260510846	-0.438295
C	-0.0516502242	 0.053096723	 0.0379574902	 0.30257
C	-0.0031890771	 1.4624990362	 0.4120733474	-0.381309
C	 1.4038002968	 2.0347407903	 0.3701843612	-0.048934
O	 1.8845862511	 2.4638613149	-0.9104359616	-0.284317
C	 1.6649577644	 3.448506002	 0.0854851965	 0.454528
C	 0.6805158634	 4.6189136845	-0.0210335702	-0.310805
C	 1.6323892139	 5.4183276282	 0.9201356232	-0.211925
C	 2.7477968701	 4.3580984006	 0.671107852	-0.312364
H	-0.0910016366	-2.1362082145	-0.5337033983	 0.1971
H	-0.6426137168	 2.0505757204	-0.2555135062	 0.139452
H	-0.4041834451	 1.5862231489	 1.4277176961	 0.132067
H	 2.1373069973	 1.4810153662	 0.9583129263	 0.100064
H	 0.6582631946	 5.0245525657	-1.0367087879	 0.118197
H	-0.3470656193	 4.4574518458	 0.3145346542	 0.104758
H	 1.8590262351	 6.4445137107	 0.6276157252	 0.107297
H	 1.2848846641	 5.4180347826	 1.9556712983	 0.108225
H	 3.3071562133	 3.9899446348	 1.5344293018	 0.105987
H	 3.4562336843	 4.6722172328	-0.1011694422	 0.117703
47.7622	92.4792	109.4289	190.6066	225.3456	335.5692	348.0396	413.0103	451.1217	521.914	578.4168	620.0239	643.2877	716.9192	782.426	820.8429	856.404	904.8656	924.2288	938.4449	956.3797	1003.7265	1030.8455	1071.9969	1083.2278	1144.2129	1167.0532	1206.0453	1225.8516	1234.2519	1245.0868	1269.2123	1277.9657	1317.8037	1358.2002	1453.1022	1468.0349	1479.869	1489.5088	1519.7162	2242.3513	3015.8363	3056.1751	3060.1292	3068.1609	3075.0956	3102.2746	3105.3039	3110.8144	3133.2076	3507.4098
C#CCC1OC11CCC1	C#CC[C@H]1OC21CCC2	
InChI=1S/C8H10O/c1-2-4-7-8(9-7)5-3-6-8/h1,7H,3-6H2	InChI=1S/C8H10O/c1-2-4-7-8(9-7)5-3-6-8/h1,7H,3-6H2/t7-/m1/s1
