16
gdb 39539	4.17367	1.58087	1.31407	1.3045	72.92	-0.2244	0.0109	0.2354	942.3796	0.127065	-400.753492	-400.747252	-400.746307	-400.783815	25.836	
C	-0.0627357235	 1.5376749023	 0.0107591082	-0.372093
C	 1.4060093944	 1.9076305856	 0.045256805	-0.077039
C	 2.2060944292	 0.8431054533	-0.0768422153	-0.080962
C	 1.4383416613	-0.4307910101	-0.1701747237	-0.17886
C	 0.6782325895	-0.7888835144	 1.0832130565	 0.017822
O	-0.0038406787	-2.0368796082	 1.0691328407	-0.219886
C	-0.9669794217	-1.912926837	 0.1152416716	 0.083442
N	-1.0762055984	-0.8075860223	-0.5063934512	-0.328318
C	-0.0197655276	 0.0235391907	 0.0021762575	 0.352028
H	-0.6171129366	 1.9305933796	 0.8714810453	 0.115932
H	-0.5630705803	 1.9231130088	-0.8877606997	 0.126563
H	 1.7430809728	 2.9318030858	 0.1535414913	 0.10056
H	 3.2894691856	 0.8713386833	-0.0943813362	 0.101189
H	 1.7211038315	-1.2216737916	-0.8579359222	 0.101089
H	 0.9847881498	-0.4731549311	 2.0735177534	 0.114215
H	-1.575786667	-2.7956360744	-0.0338674812	 0.144318
202.5991	254.3855	313.5288	397.4095	444.1583	502.3339	603.4591	694.2004	726.6762	769.9606	792.8183	848.8089	898.6631	937.3011	941.7208	955.2075	965.8044	981.5762	1010.1024	1019.4821	1043.975	1060.3342	1118.0959	1138.44	1163.2288	1205.0214	1258.4434	1262.8294	1321.0689	1344.1731	1360.5313	1384.8164	1477.5917	1653.9801	1663.8156	3022.5926	3055.5643	3159.3822	3179.6857	3190.6298	3214.9188	3235.5694
C1C=CC2C3OC=NC123	C1C=C[C@H]2[C@@H]3OC=N[C@]123	
InChI=1S/C7H7NO/c1-2-5-6-7(5,3-1)8-4-9-6/h1-2,4-6H,3H2	InChI=1S/C7H7NO/c1-2-5-6-7(5,3-1)8-4-9-6/h1-2,4-6H,3H2/t5-,6-,7+/m0/s1
