15
gdb 127675	3.2165	1.44468	1.07809	2.8757	68.87	-0.2467	-0.0176	0.2292	1069.0567	0.114773	-450.17519	-450.167095	-450.166151	-450.208652	28.308	
C	-0.8632617098	 0.9051971688	 0.6118590499	-0.325358
N	-0.229606554	-0.3436517346	 0.2248422413	-0.006462
N	-0.2781816314	-0.7617017278	-1.0711279347	-0.244624
C	 0.456905775	-1.8586186801	-1.0513312611	 0.034114
N	 0.9696733948	-2.1920098498	 0.1619980764	-0.334358
C	 0.5088006755	-1.2232069947	 0.9339015263	 0.452894
N	 0.8285541397	-1.1160395758	 2.2883179798	-0.40148
C	-0.0480819643	-0.8547477014	 3.3162779206	 0.139171
O	-1.2005891724	-0.5175716928	 3.1891958239	-0.295475
H	-0.1637280527	 1.5098865343	 1.1947237969	 0.140581
H	-1.1186065601	 1.4256240105	-0.3099625266	 0.158341
H	-1.7515409757	 0.7181203676	 1.2148375148	 0.178309
H	 0.6274470986	-2.4424416324	-1.94327049	 0.12957
H	 1.6909259745	-1.5831963775	 2.5319694967	 0.276075
H	 0.4484689723	-0.9753581944	 4.2969743159	 0.098701
69.2083	76.8815	172.0721	205.9017	218.3127	303.0328	363.1314	476.9475	577.9151	630.1659	677.5198	719.6237	742.9423	884.8817	903.5093	991.8861	1021.1751	1031.5314	1130.1574	1154.8166	1203.4308	1264.3673	1306.4671	1313.9594	1395.6469	1428.5054	1447.5051	1479.2699	1489.8302	1503.9447	1557.5612	1592.9951	1816.7978	2967.2724	3066.4693	3144.3913	3179.5881	3262.4164	3607.6871
CN1N=CN=C1NC=O	Cn1ncnc1NC=O	
InChI=1S/C4H6N4O/c1-8-4(6-3-9)5-2-7-8/h2-3H,1H3,(H,5,6,7,9)	InChI=1S/C4H6N4O/c1-8-4(6-3-9)5-2-7-8/h2-3H,1H3,(H,5,6,7,9)
