13
gdb 129973	3.34776	1.48868	1.03127	2.9259	64.92	-0.2409	-0.0398	0.2011	1053.9827	0.089777	-486.088121	-486.080078	-486.079134	-486.12057	29.895	
N	-0.0182395133	 1.3336174749	 0.0985679115	-0.55118
C	-0.030626465	-0.0139318666	 0.0328856198	 0.539347
N	-1.1580643763	-0.6667019798	 0.0282990969	-0.406314
C	-1.0802272588	-2.0277057231	 0.0043171398	 0.359088
O	-2.0338139651	-2.7838087836	-0.0358702205	-0.371395
C	 0.3120294359	-2.6128863859	 0.0168288431	 0.330086
N	 0.3493444718	-3.9602129016	 0.0635300525	-0.545712
N	 1.4085271296	-1.9223807142	-0.0114809739	-0.219074
O	 1.2058423157	-0.5132709622	-0.0076555429	-0.252585
H	 0.8410345951	 1.8313366483	-0.0573819737	 0.279932
H	-0.8982014866	 1.8061295258	-0.0162177445	 0.285697
H	-0.5394765294	-4.4146263448	-0.0822978202	 0.282623
H	 1.2110664563	-4.4527218372	-0.096597098	 0.269487
84.1717	180.2389	241.9806	256.9113	309.3373	328.6829	364.4936	457.102	498.5195	509.115	552.9632	566.5813	603.9368	711.965	749.6556	824.0396	831.1586	907.8065	1016.4919	1106.413	1145.1447	1315.7241	1420.732	1459.5997	1577.3159	1586.9366	1659.2109	1667.7759	1786.1264	3584.9384	3620.5458	3726.9785	3754.9541
NC1=NC(=O)C(N)=NO1	Nc1nc(=O)c(N)no1	
InChI=1S/C3H4N4O2/c4-1-2(8)6-3(5)9-7-1/h(H2,4,7)(H2,5,6,8)	InChI=1S/C3H4N4O2/c4-1-2(8)6-3(5)9-7-1/h(H2,4,7)(H2,5,6,8)
