18
gdb 97953	4.52994	0.52599	0.50048	3.3467	80.05	-0.243	0.0248	0.2678	2177.8058	0.144644	-439.078766	-439.067653	-439.066709	-439.118758	36.533	
C	-0.3013477214	 1.4505185675	-0.1672454144	-0.482173
C	-0.1328220908	-0.0137861806	 0.2053717349	 0.415411
O	 0.6608804847	-0.3827242023	 1.0521874499	-0.371401
N	-0.9405667913	-0.8812034448	-0.476401465	-0.308959
C	-0.972849267	-2.3039161453	-0.1629448581	-0.292792
C	-2.3238077354	-2.7935389884	 0.0893518039	 0.050105
C	-3.4460406191	-3.1903140386	 0.2673143193	 0.097014
C	-4.7963666537	-3.6763559998	 0.5169760128	-0.214787
O	-5.469509964	-3.879937287	-0.7198464406	-0.410212
H	-0.7702039832	 1.9746195977	 0.671023923	 0.15365
H	 0.6871665238	 1.8895851105	-0.3171273449	 0.154152
H	-0.90679062	 1.6083650058	-1.0635010062	 0.113695
H	-1.6276551694	-0.5254019605	-1.1198668713	 0.251378
H	-0.5161005556	-2.8867824786	-0.9745729438	 0.13853
H	-0.3339534092	-2.4291613837	 0.7175668878	 0.176299
H	-4.7357528121	-4.6109973075	 1.0980451736	 0.120896
H	-5.3305502245	-2.945977536	 1.1464454991	 0.118565
H	-6.3493340017	-4.2131426383	-0.5155810101	 0.29063
19.73	24.9092	37.7595	67.2145	126.6789	162.4925	232.5189	257.0008	300.9098	323.5888	395.2298	440.6692	502.428	577.2869	611.0515	640.2886	773.436	903.3425	988.296	1025.1982	1035.0497	1047.7505	1051.583	1100.8996	1156.5121	1245.0597	1249.5021	1257.9294	1267.7894	1374.26	1397.0112	1459.306	1469.2242	1482.2373	1486.0578	1501.4911	1527.6935	1779.7661	2372.4538	2964.202	2982.8664	3010.1371	3049.5277	3081.4338	3121.6462	3138.9251	3653.6001	3817.3017
CC(=O)NCC#CCO	CC(=O)NCC#CCO	
InChI=1S/C6H9NO2/c1-6(9)7-4-2-3-5-8/h8H,4-5H2,1H3,(H,7,9)	InChI=1S/C6H9NO2/c1-6(9)7-4-2-3-5-8/h8H,4-5H2,1H3,(H,7,9)
