13
gdb 133166	2.30918	1.87333	1.04088	1.3484	64.04	-0.2611	-0.0742	0.1869	1032.8195	0.08746	-497.84709	-497.839363	-497.838419	-497.879821	27.665	
C	-0.011487201	 1.5358547045	 0.0237754341	-0.491164
C	-0.0140141694	 0.0374721733	-0.0056152075	-0.125528
C	-0.1602460402	-0.6947133693	-1.1286716588	 0.395982
F	-0.316771173	-0.1689357715	-2.3219623542	-0.02618
O	-0.1730491047	-2.0234412365	-1.235857059	-0.243048
N	-0.0227263907	-2.8174181559	-0.0917831994	-0.04943
C	 0.1216117669	-2.1862275174	 1.0159047763	-0.039299
C	 0.1474947078	-0.718265268	 1.2238787468	 0.318367
O	 0.2921939375	-0.2299831636	 2.3331049836	-0.351491
H	 0.9287690656	 1.901454978	 0.4482878048	 0.154626
H	-0.1424324122	 1.9604715494	-0.9720703271	 0.137143
H	-0.8112824165	 1.8999431335	 0.6762687218	 0.154629
H	 0.2358839099	-2.8279894064	 1.8853051085	 0.165393
85.0271	113.7491	189.8455	257.4379	260.6471	355.7642	473.0686	482.6795	522.2827	565.0839	661.3183	669.1277	764.7097	846.158	912.6902	957.8208	960.5632	1061.1156	1136.6872	1171.9884	1267.3711	1307.1055	1402.3395	1424.6577	1476.8553	1484.0631	1641.3454	1699.3868	1753.1897	3048.1499	3102.245	3149.1579	3186.6556
CC1=C(F)ON=CC1=O	Cc1c(F)oncc1=O	
InChI=1S/C5H4FNO2/c1-3-4(8)2-7-9-5(3)6/h2H,1H3	InChI=1S/C5H4FNO2/c1-3-4(8)2-7-9-5(3)6/h2H,1H3
