15
gdb 64834	2.9766	1.27515	1.21526	3.6649	74.54	-0.2726	-0.0552	0.2174	1079.7382	0.112446	-416.842659	-416.834642	-416.833698	-416.875241	29.965	
C	-0.0254828971	 1.5560021729	-0.0237204318	-0.415009
C	 0.0127299394	 0.0226628679	 0.022470136	 0.158702
O	 0.7528062179	-0.4721704146	-1.1058417517	-0.256331
C	 1.8206894002	-1.2371312558	-0.6723270874	 0.382229
N	 2.657896883	-1.8051207953	-1.4263258904	-0.535981
C	 1.7956647251	-1.2478921446	 0.7963390377	-0.130138
C	 0.7558369088	-0.5366232263	 1.222067896	-0.11584
C	-1.3608624618	-0.5234986289	-0.0400903915	 0.268932
N	-2.4414179373	-0.9310177488	-0.061154879	-0.323959
H	 0.9963606114	 1.9393356577	 0.0210979997	 0.142819
H	-0.496479317	 1.8890939141	-0.9509430267	 0.155585
H	-0.5956714782	 1.948688788	 0.8222259388	 0.142955
H	 2.4405453787	-1.638904149	-2.4097871447	 0.233942
H	 2.5379836907	-1.7705546963	 1.3807143723	 0.147754
H	 0.435057896	-0.3452546011	 2.2364474424	 0.144339
89.223	152.3998	194.5429	237.8199	247.6722	336.7718	438.1258	446.8463	513.7222	560.7967	618.0467	688.934	711.6665	823.9183	835.763	887.1087	903.9335	934.5261	952.8863	977.5043	1051.3728	1087.6437	1134.8583	1171.2955	1203.0752	1299.2156	1362.2483	1404.2634	1480.9023	1486.9255	1665.2707	1772.2768	2359.5969	3054.0295	3136.7614	3145.1192	3237.4189	3265.1205	3488.3099
CC1(OC(=N)C=C1)C#N	C[C@]1(OC(=C[CH]1)[NH])C#N	
InChI=1S/C6H6N2O/c1-6(4-7)3-2-5(8)9-6/h2-3,8H,1H3	InChI=1S/C6H6N2O/c1-6(4-7)3-2-5(8)9-6/h2-3,8H,1H3/t6-/m1/s1
