13
gdb 128999	4.17133	1.68466	1.20001	3.1178	76.98	-0.2155	-0.0819	0.1336	923.1595	0.094016	-411.78819	-411.782395	-411.781451	-411.81829	23.135	
N	 0.0507532005	 1.2786947197	 0.0089625355	-0.066835
N	 1.1152150296	 2.1015725147	 0.0030854918	-0.247215
C	 2.2986723115	 1.5154795992	-0.0117792492	-0.060952
C	 2.4339627882	 0.1220088139	-0.0208409196	 0.205999
C	 3.4129251308	-0.8491397917	-0.0358441633	-0.182765
N	 2.8588931709	-2.1086990927	-0.0373956651	-0.226296
C	 1.5335377799	-1.9963000224	-0.0237409796	-0.12249
C	 1.1664350991	-0.6278206304	-0.0125659489	 0.298664
N	-0.0088190403	-0.0348393572	 0.002255534	-0.27516
H	-0.8408401297	 1.7517877914	 0.0203401529	 0.302478
H	 3.1424216089	 2.1988639898	-0.0162718047	 0.140558
H	 4.486687543	-0.7261435919	-0.0457038406	 0.112819
H	 0.8790682475	-2.8565377023	-0.0220820032	 0.121195
216.4106	226.2319	425.192	437.5328	579.3789	589.5802	621.1023	648.0113	676.8477	776.2781	785.2794	826.427	858.9796	887.8512	920.5248	970.9822	1036.51	1109.0888	1177.1833	1242.286	1274.0309	1311.1167	1347.0984	1386.8782	1434.2902	1468.1614	1543.0061	1588.2855	1625.2084	3181.8349	3231.4076	3235.8817	3629.3813
N1N=CC2=CN=CC2=N1	[nH]1ncc2cncc2n1	
InChI=1S/C5H4N4/c1-4-2-7-9-8-5(4)3-6-1/h1-3,9H	InChI=1S/C5H4N4/c1-4-2-7-9-8-5(4)3-6-1/h1-3,9H
