15
gdb 132010	2.2979	1.81746	1.02115	5.4521	71.46	-0.2208	-0.0162	0.2046	1076.3746	0.112786	-461.976456	-461.968459	-461.967515	-462.009086	29.735	
C	-0.0105706784	 1.5325206183	 0.0144081007	-0.483859
C	 0.0068633052	 0.0338709726	-0.0160899994	-0.065794
C	 0.1617232731	-0.6797875618	-1.1506920698	 0.341903
F	 0.3144485417	-0.1324953781	-2.3554412765	-0.061925
N	 0.1801203831	-2.0447446969	-1.1977268214	-0.396455
C	 0.035595291	-2.7731689825	-0.0432023622	 0.020573
C	-0.1254867159	-2.154077704	 1.1454367273	-0.242412
C	-0.1531129667	-0.6933276687	 1.2563952382	 0.332015
O	-0.297882793	-0.1013823697	 2.3221913293	-0.387623
H	 0.1156906482	 1.9630825166	-0.9802864775	 0.120178
H	-0.9525076594	 1.8885906904	 0.4437997291	 0.145613
H	 0.782796541	 1.9041630903	 0.6708059247	 0.145612
H	 0.3012225595	-2.4894822367	-2.0927114923	 0.274324
H	 0.0614999372	-3.8482486646	-0.1674573675	 0.141082
H	-0.2392054566	-2.7311503953	 2.0541190573	 0.116766
98.3047	127.2416	206.6201	262.9968	270.0311	354.2026	393.7136	482.6596	512.9818	521.9723	557.7728	644.0107	683.377	744.6502	840.6501	850.1337	930.1722	949.8726	1061.6233	1075.4396	1124.624	1174.9674	1245.2829	1258.4729	1339.5667	1411.6073	1423.3539	1474.9644	1483.9112	1546.3708	1641.4521	1715.3677	1722.0748	3044.2287	3096.1887	3139.6364	3208.9529	3226.9676	3660.8391
CC1=C(F)NC=CC1=O	Cc1c(F)[nH]ccc1=O	
InChI=1S/C6H6FNO/c1-4-5(9)2-3-8-6(4)7/h2-3H,1H3,(H,8,9)	InChI=1S/C6H6FNO/c1-4-5(9)2-3-8-6(4)7/h2-3H,1H3,(H,8,9)
