22
gdb 11080	2.40189	2.0444	1.99088	0.1261	81.29	-0.2508	0.0801	0.3308	915.556	0.199869	-313.060386	-313.051848	-313.050903	-313.093594	33.177	
C	-0.2578460766	 1.5401219589	 0.0663019234	-0.49501
C	-0.0078205056	 0.0486081928	 0.0135738141	 0.344996
C	 1.0836376228	-0.4538834898	-0.9780375513	-0.277642
C	 1.820917832	-1.19145601	 0.1783205509	-0.274233
C	 0.6993389629	-0.7851428317	 1.1698324704	 0.344996
C	 1.1097890226	-0.2110641651	 2.5084402228	-0.49501
C	-0.5076427252	-1.7701102163	 1.159525363	-0.277642
C	-1.2344326549	-0.8974657098	 0.0941487174	-0.274233
H	 0.6766530453	 2.1041482217	 0.1679411035	 0.10939
H	-0.7499975174	 1.885154995	-0.8522082064	 0.113952
H	-0.9057149689	 1.8121436166	 0.9075576027	 0.109431
H	 0.7103673711	-1.0929249719	-1.7839847352	 0.092036
H	 1.6689672127	 0.3506851802	-1.4319215284	 0.094173
H	 1.9796666667	-2.2669024075	 0.0517243339	 0.090283
H	 2.7849963988	-0.7351019443	 0.4224901288	 0.092624
H	 1.8415462025	 0.5970472699	 2.3947372768	 0.109431
H	 0.2503157265	 0.1909263921	 3.0574884752	 0.10939
H	 1.568754169	-0.9834030935	 3.1391265772	 0.113952
H	-0.2632237199	-2.790132318	 0.8479651138	 0.092036
H	-1.0350533213	-1.8289254391	 2.1157319184	 0.094173
H	-2.1244823758	-0.4006400516	 0.4920193713	 0.092624
H	-1.5153813173	-1.3954377887	-0.8390738624	 0.090283
24.9591	186.0039	210.7149	221.6811	266.0658	323.4258	345.3982	368.2797	450.6773	559.3187	618.8977	676.449	744.8174	752.8636	852.4236	853.1627	899.2329	942.9526	947.1221	961.9634	966.9443	991.5762	1036.0407	1053.8178	1123.3346	1164.8093	1203.7179	1216.309	1236.7978	1242.2711	1250.6539	1252.247	1254.7492	1280.8143	1319.2162	1333.9489	1404.8438	1412.0577	1470.9171	1480.0289	1485.4728	1487.2627	1491.168	1494.7313	1494.9134	1504.7196	3010.7387	3013.1832	3037.9379	3039.2713	3045.6188	3049.9324	3071.725	3074.1883	3077.4287	3082.1302	3082.6148	3084.6561	3099.1187	3104.1047
CC12CCC1(C)CC2	C[C@@]12CC[C@]1(C)CC2	
InChI=1S/C8H14/c1-7-3-5-8(7,2)6-4-7/h3-6H2,1-2H3	InChI=1S/C8H14/c1-7-3-5-8(7,2)6-4-7/h3-6H2,1-2H3/t7-,8+
