21
gdb 100528	2.83911	0.87539	0.83825	2.4511	75.38	-0.2591	-0.0273	0.2319	1500.9431	0.178985	-461.379634	-461.368488	-461.367544	-461.41702	39.226	
C	-0.1160145856	 1.558664798	 0.0695944451	-0.402628
C	-0.0245654999	 0.0256397532	-0.0465004509	 0.054673
O	 0.6304489081	-0.3381911008	-1.2325413906	-0.438382
C	 0.7160822141	-0.5682161747	 1.1547089326	 0.358373
O	 1.8179952987	-1.0517241835	 0.9797399371	-0.350178
C	 0.0443930555	-0.5715111979	 2.5154974258	-0.074688
C	-0.7293881911	-1.897001078	 2.6879372049	-0.399316
C	 1.0781832277	-0.3792798691	 3.6281478696	-0.078116
O	 0.3712519176	-0.3035459244	 4.8565463627	-0.425348
H	 0.8853724329	 1.9935925545	 0.1445294291	 0.127181
H	-0.589280984	 1.948065451	-0.8348846844	 0.13819
H	-0.7078463946	 1.8755901552	 0.9332430974	 0.119056
H	-1.0468789202	-0.3858748036	-0.0497101185	 0.09007
H	 1.4667279538	-0.7395747605	-0.9447605207	 0.290927
H	-0.6749568486	 0.2533317853	 2.5683648831	 0.096171
H	-0.0504981482	-2.750132903	 2.5907786578	 0.131984
H	-1.1805544201	-1.9208563518	 3.6814402031	 0.146877
H	-1.5211049985	-2.0024553197	 1.940673542	 0.121319
H	 1.7859069071	-1.2188087304	 3.6118760322	 0.110584
H	 1.6545208522	 0.5402048873	 3.4426423778	 0.092203
H	 1.012914613	-0.2804782471	 5.5719860147	 0.29105
24.7916	59.9692	94.8154	164.7337	189.1166	223.3859	230.028	241.2718	250.6017	327.5696	339.3767	371.7977	425.4307	466.2462	495.1143	666.9982	754.7245	805.0931	867.7893	920.3786	935.6243	1021.0508	1031.2615	1052.8699	1073.5583	1094.7985	1123.0952	1165.2596	1178.6186	1251.3546	1267.2237	1276.201	1338.9952	1344.6365	1361.0727	1396.7638	1401.1251	1439.3209	1455.9699	1489.8771	1493.1019	1498.0017	1505.4075	1521.6275	1779.4078	2977.7258	2983.1634	3031.0428	3041.9729	3044.8014	3057.1537	3114.6564	3119.0723	3128.2723	3140.7402	3674.6849	3836.5105
CC(O)C(=O)C(C)CO	C[C@@H](O)C(=O)[C@@H](C)CO	
InChI=1S/C6H12O3/c1-4(3-7)6(9)5(2)8/h4-5,7-8H,3H2,1-2H3	InChI=1S/C6H12O3/c1-4(3-7)6(9)5(2)8/h4-5,7-8H,3H2,1-2H3/t4-,5+/m0/s1
