19
gdb 80366	2.30816	1.69026	1.18616	2.3036	79.18	-0.2482	0.0227	0.2709	1095.6285	0.159133	-382.042285	-382.033517	-382.032573	-382.075306	33.327	
C	-0.1260794662	 1.5443436996	 0.1203582635	-0.438526
C	 0.051166486	 0.0556312672	-0.0724207614	 0.016604
C	 0.6107712904	-0.6534999758	-1.2420170562	-0.090555
N	 1.3173314154	-0.6907811174	 0.1099867267	-0.147796
C	 2.4197050142	 0.1363111907	-0.4869698438	-0.216567
C	 1.8083070814	 0.0353622194	-1.9221902007	 0.146169
C	 2.5885670248	-0.9290342319	-2.8283411051	-0.445137
C	 1.5450354023	 1.2833676528	-2.6376806183	 0.247696
N	 1.3521860115	 2.2727477802	-3.2049502221	-0.353707
H	 0.5819579938	 2.1568962303	-0.4378274344	 0.147154
H	-1.1288146042	 1.8336438938	-0.2093410867	 0.135402
H	-0.0393959335	 1.7953849257	 1.1830694454	 0.128727
H	-0.7467982981	-0.5171490582	 0.39883531	 0.106182
H	 0.1427587487	-1.5361638457	-1.6694003689	 0.102445
H	 2.524673138	 1.1367147528	-0.0618236609	 0.123327
H	 3.3721879204	-0.3900202794	-0.4049920665	 0.123334
H	 2.7733772386	-1.8656716271	-2.2952006624	 0.13825
H	 2.0235344818	-1.1521494973	-3.737921157	 0.138358
H	 3.5490056847	-0.4948204898	-3.1196518812	 0.138642
113.389	139.3091	173.3426	208.6399	259.2627	270.8162	288.1422	373.1681	458.1815	511.0412	543.4778	592.5595	644.4611	708.8515	781.1426	833.3668	903.8568	930.2348	954.3606	963.3875	989.5811	1031.5127	1074.7599	1108.1597	1127.2131	1167.6922	1176.6085	1194.7186	1257.8422	1261.6374	1293.6531	1354.9073	1411.3393	1420.2122	1441.5884	1486.2732	1491.5132	1496.4794	1502.0816	1514.9745	2345.4667	3042.9535	3044.3415	3073.9827	3103.4994	3114.7832	3119.6803	3124.4712	3129.5481	3147.3235	3151.4145
CC1C2N1CC2(C)C#N	C[C@H]1[C@@H]2N1C[C@]2(C)C#N	
InChI=1S/C7H10N2/c1-5-6-7(2,3-8)4-9(5)6/h5-6H,4H2,1-2H3	InChI=1S/C7H10N2/c1-5-6-7(2,3-8)4-9(5)6/h5-6H,4H2,1-2H3/t5-,6-,7-,9?/m0/s1
