16
gdb 64726	4.04234	1.09642	1.0419	3.0692	68.22	-0.2694	0.0172	0.2866	1146.161	0.122742	-437.851913	-437.843659	-437.842715	-437.884967	30.897	
O	-0.1196105951	 1.4460567703	-0.0759379587	-0.474269
C	-0.0183689465	 0.0551989345	 0.0158317673	 0.385138
C	 0.8891955684	-0.5148042103	-1.0998697696	-0.394384
C	 2.2450589097	 0.0159149597	-0.9859509859	 0.2489
N	 3.2965742001	 0.4769814575	-0.8515840232	-0.3023
C	 0.2764137392	-0.5952979081	 1.4280863973	-0.328542
C	-1.0701282786	-1.3169606162	 1.3022018309	 0.037507
O	-2.0677135989	-0.297277869	 1.2122353184	-0.235493
C	-1.3812697826	-0.6585245619	 0.0200500977	-0.012696
H	 0.7533732459	 1.8309239379	 0.0703395517	 0.297273
H	 0.9211480748	-1.6086264762	-1.0598735279	 0.153591
H	 0.4782495777	-0.2267915683	-2.0738828149	 0.16145
H	 1.1547630691	-1.2445461117	 1.4337353896	 0.116728
H	 0.3246421255	 0.1126802288	 2.2569962236	 0.125928
H	-1.3724036688	-2.2865064108	 1.6782173815	 0.113428
H	-1.97499223	-0.9712344862	-0.8322952777	 0.10774
71.0137	113.749	162.6164	262.2681	328.6547	337.4768	394.2766	416.9735	429.1512	467.3102	608.34	711.2211	800.0135	827.6768	862.2931	891.5468	905.8689	947.0378	960.8201	987.6338	1033.3839	1050.9161	1109.6869	1123.2238	1204.3159	1218.8546	1238.932	1253.8162	1281.9266	1301.4388	1387.2395	1392.0759	1454.9062	1466.34	2357.7655	3048.6917	3074.6482	3094.2907	3138.5431	3175.2766	3201.9591	3783.2853
OC1(CC#N)CC2OC12	O[C@@]1(CC#N)C[C@H]2O[C@@H]12	
InChI=1S/C6H7NO2/c7-2-1-6(8)3-4-5(6)9-4/h4-5,8H,1,3H2	InChI=1S/C6H7NO2/c7-2-1-6(8)3-4-5(6)9-4/h4-5,8H,1,3H2/t4-,5-,6+/m1/s1
