18
gdb 73712	2.78533	1.96543	1.36641	1.0221	70.76	-0.2451	0.0735	0.3186	940.0993	0.150461	-439.021176	-439.014482	-439.013538	-439.051844	28.308	
O	 0.1529892075	 1.3946525028	 0.1257982475	-0.50228
C	 0.0865690231	 0.0107412771	 0.0291250091	 0.507069
C	 1.0636992118	-0.6383342885	 0.9943789522	-0.306891
C	 1.3476151887	-2.0709497354	 0.5374121456	-0.078248
O	 0.163154069	-2.7232118169	 0.0846702886	-0.272359
C	-0.6368618071	-1.8874858099	-0.6983544997	 0.14093
C	-1.3287468091	-0.6457730206	-0.0643186929	-0.142034
N	-1.4320284923	-0.0173932028	-1.4413539661	-0.369297
C	-0.0454011502	-0.6291117258	-1.4074474166	-0.172372
H	-0.5214319635	 1.7226883458	-0.4879685226	 0.290667
H	 1.9929263943	-0.0602550701	 1.0145561686	 0.117955
H	 0.642357038	-0.6154615888	 2.0056761077	 0.113725
H	 2.0832380553	-2.0541024652	-0.2812533666	 0.099124
H	 1.7558556105	-2.6877543937	 1.3416715705	 0.112335
H	-1.2899619855	-2.5104196569	-1.3157761193	 0.084133
H	-2.1454983454	-0.6002507642	 0.6582132032	 0.081017
H	-2.0491337519	-0.5747825114	-2.0399943303	 0.213972
H	 0.6290068767	-0.5562754856	-2.2623490088	 0.082552
212.2759	219.4886	345.1567	402.5645	413.9056	424.7864	521.3344	578.2036	590.439	670.7295	713.5071	797.644	819.5858	871.3472	877.8898	909.7675	921.8802	949.0804	1021.3389	1047.556	1078.111	1117.7956	1129.4712	1131.3919	1144.432	1158.2835	1168.7737	1203.0915	1247.5512	1256.4395	1270.3561	1286.0993	1315.4242	1359.5628	1382.0355	1418.7768	1443.5842	1486.2843	1513.0454	2987.4461	3044.1214	3079.3688	3090.1087	3098.8145	3101.0785	3108.2127	3392.4862	3723.995
OC12CCOC3C1NC23	O[C@@]12CCO[C@H]3[C@@H]1N[C@@H]23	
InChI=1S/C6H9NO2/c8-6-1-2-9-3-4(6)7-5(3)6/h3-5,7-8H,1-2H2	InChI=1S/C6H9NO2/c8-6-1-2-9-3-4(6)7-5(3)6/h3-5,7-8H,1-2H2/t3-,4-,5+,6-
