17
gdb 63013	2.52161	1.78864	1.55816	2.3614	66.06	-0.256	0.0546	0.3105	929.5668	0.134524	-458.919009	-458.911217	-458.910273	-458.950778	30.746	
C	 0.0752796653	 1.5210350829	 0.0064049092	-0.446326
C	-0.0032464413	-0.0023591204	-0.0103317958	 0.308855
O	-1.3449520696	-0.4818423479	 0.0344669703	-0.469147
C	 0.7095719694	-0.6339642631	-1.2243292532	-0.023346
O	 2.1024123487	-0.3493786699	-1.3398380743	-0.237617
C	 1.7152978286	-1.6042533461	-0.7698847721	 0.011375
C	 1.70388642	-1.6122145593	 0.7505588835	 0.005861
O	 2.0709809258	-0.3589544332	 1.3353865626	-0.239326
C	 0.6840022239	-0.6536474049	 1.201312394	 0.014357
H	 1.1204356363	 1.8369216112	 0.0146726484	 0.159959
H	-0.4038828909	 1.9443382971	-0.8848566932	 0.106059
H	-0.4281161473	 1.920522353	 0.8917508847	 0.124016
H	-1.8642647879	 0.0274007994	-0.5966710822	 0.283905
H	 0.1584498926	-0.718791091	-2.1602242814	 0.091671
H	 2.0022946735	-2.4927355564	-1.3241376719	 0.10245
H	 1.9901007358	-2.5028419475	 1.3016304774	 0.102505
H	 0.1112626072	-0.7453173139	 2.121301244	 0.10475
147.9522	196.7937	236.2265	240.5281	323.8122	345.4961	370.8368	405.5455	552.2324	560.9533	599.2438	732.7453	813.8793	826.5547	860.463	886.3839	902.4123	940.151	968.9066	970.757	1032.208	1049.3886	1087.2062	1096.1964	1116.2099	1176.9914	1212.4886	1234.2463	1260.9197	1283.2877	1332.506	1365.8031	1398.4795	1426.3799	1433.8586	1491.1771	1496.7571	3029.4748	3099.4883	3118.4318	3140.3031	3143.1268	3157.958	3171.6659	3812.9725
CC1(O)C2OC2C2OC12	C[C@@]1(O)[C@H]2O[C@H]2[C@H]2O[C@@H]12	
InChI=1S/C6H8O3/c1-6(7)4-2(8-4)3-5(6)9-3/h2-5,7H,1H3	InChI=1S/C6H8O3/c1-6(7)4-2(8-4)3-5(6)9-3/h2-5,7H,1H3/t2-,3+,4-,5+,6+
