20
gdb 17310	2.57044	2.38093	1.64233	0.2874	78.4	-0.1996	0.0831	0.2827	901.7261	0.176767	-311.79557	-311.787664	-311.78672	-311.827226	31.265	
C	-0.2087482862	 1.6072291393	-0.0358145553	-0.437262
C	 0.1060666825	 0.1122229749	 0.041326592	-0.061161
C	 1.3556254603	-0.6704670804	-0.3196844667	-0.136422
C	 2.7139938443	-0.1384667364	 0.2061301082	-0.043782
C	 2.6517974068	 1.1547856844	 0.9664206687	-0.307111
C	 2.1586360818	-0.1114519722	 1.6207565864	-0.109376
C	 0.8045341878	-0.693963846	 1.1069157564	 0.325896
C	 0.1531166546	-1.8163875626	 1.8633368874	-0.489276
H	 0.3864708136	 2.1197236392	-0.7975535757	 0.127234
H	-1.2609358087	 1.7454641119	-0.3040203005	 0.108092
H	-0.0541771844	 2.1174055526	 0.9183487377	 0.129116
H	-0.7437211541	-0.4744881587	-0.309871468	 0.084117
H	 1.3131942841	-1.4622057961	-1.0592453961	 0.079099
H	 3.6527908147	-0.5600426291	-0.1296879764	 0.084672
H	 3.6175318473	 1.4774320732	 1.3481421797	 0.107386
H	 2.0104960691	 1.9757930012	 0.684167514	 0.111966
H	 2.619591574	-0.4946945216	 2.5228873058	 0.082681
H	-0.3139633091	-1.4569602525	 2.7896987958	 0.115715
H	-0.6263942194	-2.2974649025	 1.2635773555	 0.113732
H	 0.8830896709	-2.5859806286	 2.143284571	 0.114684
107.6754	199.5116	217.018	232.3223	278.0912	300.4941	390.4961	485.4309	561.7823	656.3206	684.8601	712.6116	758.4365	836.8996	864.1276	905.609	919.0553	937.972	963.771	991.9962	1027.146	1058.8012	1064.2556	1080.8506	1088.9607	1108.0839	1115.3047	1158.7084	1185.3089	1222.3519	1265.8193	1297.6964	1332.9703	1360.9716	1412.5651	1414.8014	1471.0228	1483.7285	1490.7397	1500.9058	1504.0094	1513.338	3010.6358	3037.079	3064.034	3085.0977	3093.5341	3104.3829	3112.1891	3133.0968	3166.8726	3179.8884	3192.8896	3249.3953
CC1C2C3CC3C12C	C[C@H]1[C@H]2[C@H]3C[C@H]3[C@@]12C	
InChI=1S/C8H12/c1-4-7-5-3-6(5)8(4,7)2/h4-7H,3H2,1-2H3	InChI=1S/C8H12/c1-4-7-5-3-6(5)8(4,7)2/h4-7H,3H2,1-2H3/t4-,5-,6+,7-,8+/m0/s1
