21
gdb 101041	2.67163	1.11399	0.8923	1.6618	74.87	-0.2316	0.0624	0.294	1365.0427	0.180114	-461.322945	-461.31273	-461.311786	-461.358397	37.76	
C	 0.6379137552	-0.5414033661	 1.1759468965	-0.250327
O	 0.2842683634	-0.0326148483	-0.087870735	-0.301322
C	 0.8256269433	-0.6434956672	-1.2339969438	 0.425589
C	 2.0685448841	-1.4864205561	-1.2191261371	-0.344111
C	 0.7117489542	-2.1214489208	-1.4898847852	-0.320265
C	 0.5988736352	 0.320487484	-2.3882554155	 0.056384
O	 1.189887046	-0.1977965337	-3.5636860777	-0.446841
C	-0.8934316516	 0.570409895	-2.6389424384	-0.099091
O	-1.0691454855	 1.3087021811	-3.8504024823	-0.426586
H	 0.3922778978	-1.6069936126	 1.2886250005	 0.111438
H	 1.7049706724	-0.4014632804	 1.3963262809	 0.114243
H	 0.054814196	 0.0226562931	 1.908068885	 0.128208
H	 2.7521220172	-1.3751757187	-2.0518826735	 0.136946
H	 2.5391498999	-1.7090359651	-0.2689459039	 0.109204
H	 0.2898914413	-2.7505478262	-0.7137084208	 0.108762
H	 0.4945823511	-2.4340163316	-2.504190964	 0.127606
H	 1.0712955201	 1.2812209008	-2.1123751381	 0.059168
H	 0.7089287134	 0.2196496781	-4.2915204703	 0.289171
H	-1.4010811894	-0.3855016332	-2.7999498137	 0.118444
H	-1.3541031314	 1.0707523489	-1.7808963131	 0.114683
H	-0.8031983225	 2.219220629	-3.6823408506	 0.288697
55.5564	75.7912	116.7144	160.7276	209.4182	261.2896	293.3697	320.4577	344.4862	358.2705	398.7003	470.3064	532.3694	553.8751	571.1977	723.4286	772.9471	867.1848	895.5783	914.7012	951.6885	998.5441	1030.6396	1047.466	1071.0621	1076.367	1105.9975	1152.6502	1178.2653	1189.6027	1196.6679	1214.0694	1258.7033	1303.0151	1330.544	1355.9819	1378.6684	1403.1665	1442.8641	1455.2184	1484.4208	1490.3336	1495.2578	1498.1058	1511.654	2931.2503	2991.9324	3044.3146	3048.2664	3104.5128	3112.8818	3139.7524	3149.0317	3226.5092	3239.9597	3747.1841	3808.0775
COC1(CC1)C(O)CO	COC1(CC1)[C@@H](O)CO	
InChI=1S/C6H12O3/c1-9-6(2-3-6)5(8)4-7/h5,7-8H,2-4H2,1H3	InChI=1S/C6H12O3/c1-9-6(2-3-6)5(8)4-7/h5,7-8H,2-4H2,1H3/t5-/m0/s1
