13
gdb 28659	5.92369	1.04557	0.88893	6.9355	79.27	-0.2436	-0.0638	0.1798	1197.5213	0.091799	-411.857444	-411.850092	-411.849148	-411.889289	27.431	
N	-0.0349864837	 1.3643380591	 0.1054745928	-0.563182
C	 0.0058894447	 0.0062153401	 0.0401210293	 0.403414
N	-1.1626367076	-0.6470358675	 0.0335408739	-0.313969
C	-1.1059291567	-1.9748066187	 0.010002589	-0.045007
C	 0.1038551494	-2.6717490878	-0.0136845602	 0.177858
N	 1.2820446332	-2.0159311782	-0.0137820523	-0.279987
C	 1.2348510185	-0.7022949109	 0.013919146	-0.074802
C	 0.120185301	-4.1032091837	-0.042053271	 0.229486
N	 0.0924820889	-5.260262087	-0.0648554809	-0.330858
H	 0.7855025224	 1.9022519724	-0.1140120112	 0.269617
H	-0.9300181918	 1.8013738692	-0.0445258452	 0.272417
H	-2.051074086	-2.5103987797	 0.0055710061	 0.139292
H	 2.1823267177	-0.1672596874	 0.0162594836	 0.115721
94.3687	156.862	251.9405	306.7538	379.1796	430.2532	451.3817	470.4999	515.5221	567.4296	602.1026	666.9469	739.4219	810.6165	886.6437	919.7387	975.2669	1030.3108	1051.2624	1247.5533	1278.4322	1328.3054	1362.5046	1424.0965	1519.6257	1570.3068	1611.094	1646.9261	2344.6839	3145.8309	3174.4002	3604.4515	3730.5159
NC1=NC=C(N=C1)C#N	Nc1ncc(nc1)C#N	
InChI=1S/C5H4N4/c6-1-4-2-9-5(7)3-8-4/h2-3H,(H2,7,9)	InChI=1S/C5H4N4/c6-1-4-2-9-5(7)3-8-4/h2-3H,(H2,7,9)
