19
gdb 124587	3.71477	0.99876	0.95242	4.1589	79.03	-0.2057	0.0115	0.2173	1335.4186	0.159966	-415.396146	-415.386918	-415.385974	-415.430567	34.039	
C	-0.083220724	 1.5925580478	 0.2039984993	-0.389018
C	-0.045494113	 0.0703117689	 0.0338643062	 0.055885
C	 0.9189100842	-0.6085668441	 1.0120235807	-0.388585
N	-1.3884823011	-0.5022517798	 0.1394831738	 0.080059
C	-2.250018929	-0.4980269114	 1.1951871703	-0.188207
C	-3.3561713463	-1.1754624728	 0.7236876036	 0.318938
N	-4.5344464119	-1.5390623527	 1.3745248346	-0.593353
N	-3.1171162971	-1.5501220688	-0.5606052682	-0.260996
N	-1.9200290398	-1.1434374357	-0.9062213576	-0.152083
H	 0.912329853	 2.0110123207	 0.0299558301	 0.125298
H	-0.778616213	 2.046127955	-0.5068698172	 0.136791
H	-0.3919601117	 1.8728563205	 1.2164302178	 0.120145
H	 0.2522919892	-0.1702930879	-0.9901296447	 0.120757
H	 0.6423539863	-0.4026253317	 2.0511382983	 0.121052
H	 0.9228637508	-1.6914742021	 0.8646112774	 0.139176
H	 1.9342558151	-0.2331938286	 0.8545705529	 0.124527
H	-2.0166843721	-0.044976441	 2.142644105	 0.130315
H	-4.924359535	-0.8053133576	 1.9506452958	 0.24528
H	-5.2225168446	-1.8602242088	 0.7047580619	 0.25402
39.0472	102.9153	184.541	222.7802	224.4544	258.7966	297.0423	314.8548	398.8113	453.6337	498.2581	613.5522	670.2937	702.7733	719.4588	747.8601	793.2504	896.9501	936.1778	952.8353	1040.5535	1050.4977	1094.2705	1120.1629	1146.0393	1147.5834	1198.404	1275.869	1287.0286	1353.9106	1396.0301	1400.5497	1401.4018	1421.6171	1485.2755	1486.9444	1494.8097	1501.8325	1510.3551	1615.0791	1649.6501	3039.8262	3043.5572	3082.4392	3108.6255	3119.1082	3125.3364	3127.8327	3287.8535	3541.2701	3634.8558
CC(C)N1C=C(N)N=N1	CC(C)n1cc(N)nn1	
InChI=1S/C5H10N4/c1-4(2)9-3-5(6)7-8-9/h3-4H,6H2,1-2H3	InChI=1S/C5H10N4/c1-4(2)9-3-5(6)7-8-9/h3-4H,6H2,1-2H3
