14
gdb 27678	2.93951	1.30585	0.90927	3.9588	73.29	-0.2269	-0.0203	0.2066	1188.8116	0.102154	-432.939118	-432.930933	-432.929989	-432.971994	29.759	
C	 0.0283566118	 1.490420522	 0.1041366512	-0.497691
C	 0.0462402834	 0.0043913764	 0.0025810094	 0.203184
C	-0.0649509391	-0.7710163577	-1.1347310969	 0.142853
N	 0.0111971475	-2.0979565206	-0.6891676431	-0.385961
C	 0.1585688778	-2.0308699618	 0.6490976489	 0.458244
O	 0.2607223703	-3.151329519	 1.367686826	-0.414956
N	 0.1852824232	-0.8014086651	 1.108973853	-0.398698
C	-0.2225526096	-0.4267730273	-2.4880476662	 0.20159
N	-0.3527998182	-0.1435525043	-3.6060699336	-0.355437
H	 0.9578336393	 1.8573598081	 0.5518764441	 0.145097
H	-0.0899136449	 1.9492651199	-0.879850828	 0.144741
H	-0.7931855738	 1.823070544	 0.7470208277	 0.145094
H	-0.0366900476	-2.9307462959	-1.2521029956	 0.288846
H	 0.3578121899	-2.8812201387	 2.2904004532	 0.323095
118.8974	135.5429	138.3937	221.5736	281.903	328.9557	433.1204	435.6865	477.5437	531.2839	552.6497	589.6518	648.311	693.112	738.3383	807.7969	1007.2846	1062.4745	1075.636	1159.2931	1186.5411	1246.9652	1326.63	1406.7711	1424.7401	1474.6929	1483.214	1547.157	1609.1939	1631.1328	2326.8528	3041.221	3097.2833	3133.4991	3670.4885	3796.5262
CC1=C(NC(O)=N1)C#N	Cc1c([nH]c(O)n1)C#N	
InChI=1S/C5H5N3O/c1-3-4(2-6)8-5(9)7-3/h1H3,(H2,7,8,9)	InChI=1S/C5H5N3O/c1-3-4(2-6)8-5(9)7-3/h1H3,(H2,7,8,9)
