20
gdb 55292	2.51672	1.43595	1.02248	3.0651	79.48	-0.2336	-0.0182	0.2154	1208.6196	0.169976	-403.130911	-403.121781	-403.120837	-403.165626	33.853	
C	 0.5028697983	 1.3199972722	 0.0814096036	-0.477443
C	-0.5114257636	 0.2914915762	-0.3782386502	 0.36109
O	-1.6780628018	 0.3501572589	-0.0510940878	-0.310915
C	-0.0244847174	-0.8063713976	-1.301905708	-0.162628
C	 1.3996128735	-1.4344402084	-1.1998622891	-0.2545
C	 0.7721308201	-2.818726936	-1.5406612328	-0.288285
C	-0.5969306259	-2.2303595893	-1.1843225758	 0.362627
C	-1.5560326441	-2.7335523493	-0.1767578063	-0.306074
N	-1.8847722189	-2.7363733874	-1.6228586181	-0.376883
H	 1.0806153235	 1.7016442992	-0.7676529294	 0.137157
H	-0.0045072004	 2.1393129372	 0.5921718663	 0.1431
H	 1.2210453962	 0.8555628326	 0.7668386987	 0.146727
H	-0.1826118287	-0.4348487479	-2.3257481853	 0.110122
H	 2.1638938893	-1.0483266995	-1.8764264165	 0.104633
H	 1.786219664	-1.4070165112	-0.177587378	 0.108218
H	 0.8444996761	-3.0537627053	-2.6067765376	 0.11207
H	 1.1143154826	-3.6795975782	-0.9623466663	 0.10642
H	-1.4045030081	-3.7209029278	 0.2526071182	 0.110155
H	-2.0585200951	-2.0152703142	 0.4608610246	 0.138237
H	-2.5054683696	-1.9523918042	-1.81589293	 0.236171
30.9426	99.7411	139.3162	168.1725	220.1702	280.2383	328.2845	382.1568	432.7112	481.1907	572.2689	616.5276	688.173	767.7379	838.3001	887.3907	902.3764	924.4466	944.9397	975.1591	981.9701	1000.1604	1037.2615	1046.9936	1104.0368	1106.3832	1131.1596	1190.0858	1211.2026	1239.4247	1250.1982	1254.2304	1271.7601	1305.2091	1336.6814	1382.7069	1410.3189	1459.8991	1475.0775	1480.7525	1496.3853	1508.8044	1789.8042	2998.5369	3036.6956	3058.2953	3064.9894	3096.8377	3110.0515	3113.3566	3125.5244	3151.689	3216.7843	3487.2173
CC(=O)C1CCC11CN1	CC(=O)[C@H]1CC[C@]21CN2	
InChI=1S/C7H11NO/c1-5(9)6-2-3-7(6)4-8-7/h6,8H,2-4H2,1H3	InChI=1S/C7H11NO/c1-5(9)6-2-3-7(6)4-8-7/h6,8H,2-4H2,1H3/t6-,7-/m1/s1
