16
gdb 48687	4.95657	0.99178	0.90996	2.6178	77.25	-0.2538	-0.0338	0.22	1248.761	0.122915	-400.682293	-400.674016	-400.673071	-400.715415	30.831	
O	-0.6078144404	 0.7156667265	 0.6247610687	-0.264381
C	 0.1669782811	 0.9634804061	-0.2677914269	 0.081901
C	 1.3434769355	 1.8384386232	-0.1094125068	 0.238945
C	 1.7801529045	 2.5550368027	 1.1699317876	-0.3218
C	 2.1770727596	 3.8138333715	 0.3072632922	-0.190214
C	 3.5619004137	 4.2445348224	 0.3326367884	 0.314904
C	 4.7238163102	 4.5555899753	 0.3462268884	-0.452066
C	 1.7224668921	 3.0459499759	-0.9622516476	-0.089918
N	 2.3988271659	 1.7888211485	-1.1217777954	-0.348996
H	 0.0441669355	 0.5587667911	-1.2952667913	 0.087232
H	 0.9443205617	 2.7590471784	 1.8396542954	 0.139692
H	 2.5888977544	 2.0788693352	 1.7289896517	 0.11709
H	 1.5069169882	 4.6507774325	 0.5213166558	 0.11968
H	 5.7437570597	 4.85166953	 0.3617275922	 0.204447
H	 1.2114968315	 3.478779437	-1.8147186893	 0.117535
H	 3.3340276469	 1.7792506038	-0.7167901832	 0.245949
75.9822	113.4638	145.704	222.1139	251.6432	336.3454	419.0854	484.1044	513.0397	597.3532	632.8072	644.7286	703.2277	761.5304	778.1964	836.3085	905.9273	974.7679	989.234	1031.6627	1044.1763	1066.1174	1111.5829	1119.7862	1138.3481	1193.0657	1239.5058	1277.4546	1308.5117	1323.4044	1389.5273	1445.7757	1485.3932	1808.0362	2231.6667	2909.3926	3073.016	3076.7457	3144.2215	3183.5197	3465.733	3501.2881
O=CC12CC(C#C)C1N2	O=C[C@]12C[C@@H](C#C)[C@H]1N2	
InChI=1S/C7H7NO/c1-2-5-3-7(4-9)6(5)8-7/h1,4-6,8H,3H2	InChI=1S/C7H7NO/c1-2-5-3-7(4-9)6(5)8-7/h1,4-6,8H,3H2/t5-,6-,7-/m1/s1
