16
gdb 98383	2.66579	1.25881	0.85968	3.3159	70.72	-0.2618	-0.0365	0.2253	1282.9135	0.124132	-471.271538	-471.262217	-471.261272	-471.306841	31.942	
C	 1.4749161748	 1.2822411752	 2.0410759732	-0.33738
N	 1.3577729826	-0.1545600616	 1.8805798111	-0.360341
C	 0.5809927512	-0.6884153576	 0.9249538532	 0.528436
O	-0.0881111694	-0.0768739717	 0.1147357241	-0.403327
N	 0.5737085316	-2.144741437	 0.8984629605	-0.219906
C	 1.2703707805	-3.0110709371	 1.7392588432	 0.137567
N	 2.0371390327	-2.6289187583	 2.680814949	-0.494555
C	-0.2335211105	-2.744644654	-0.0951502408	 0.179732
O	-0.3374836158	-3.9368390384	-0.2365860075	-0.313502
H	 0.8534015975	 1.7652259473	 1.2873735884	 0.170249
H	 1.1372890963	 1.5912504875	 3.0360821581	 0.132792
H	 2.513324776	 1.6048315933	 1.910091717	 0.132792
H	 1.861800253	-0.8000718169	 2.4886731233	 0.285456
H	 1.0609660447	-4.0470338256	 1.4708538188	 0.158117
H	 2.4397258135	-3.4283189601	 3.163077875	 0.244205
H	-0.7385114587	-1.9869940852	-0.7030545267	 0.159665
42.6879	63.186	122.2646	192.6141	212.9131	216.6123	299.0657	309.0711	357.5686	421.9984	467.2703	633.9055	727.9225	773.543	780.7306	833.1774	858.1235	1029.5395	1059.7406	1092.1067	1137.6383	1154.7033	1179.5433	1247.9132	1272.504	1323.4169	1410.7828	1424.4693	1443.8884	1500.0448	1502.6344	1617.1907	1712.2602	1812.9742	1818.0982	3034.6352	3087.4958	3103.9307	3136.772	3161.0381	3388.7446	3522.751
CNC(=O)N(C=N)C=O	CNC(=O)N(C=N)C=O	
InChI=1S/C4H7N3O2/c1-6-4(9)7(2-5)3-8/h2-3,5H,1H3,(H,6,9)	InChI=1S/C4H7N3O2/c1-6-4(9)7(2-5)3-8/h2-3,5H,1H3,(H,6,9)
