21
gdb 111681	2.43015	1.37358	1.26402	2.8743	76.99	-0.238	0.0711	0.3092	1139.8013	0.183843	-424.204649	-424.195881	-424.194937	-424.238436	33.48	
C	-0.5119376826	 1.0777907877	-0.5005888282	-0.411495
C	 0.0296033498	-0.3295711069	-0.234832547	 0.001766
C	 0.9958444304	-0.8553267583	-1.325482008	-0.107707
O	 2.0038008305	-1.6477104602	-0.6804640882	-0.272239
C	 1.934826744	-1.4645721897	 0.7197626594	 0.06819
C	 2.2614583473	-0.0875393911	 1.2354569151	-0.081927
C	 3.032171353	 0.8883148762	 0.3565468364	-0.08752
O	 4.2250376751	 0.3146614754	-0.1534324723	-0.429834
C	 0.8084863244	-0.5427807521	 1.0600031177	-0.116028
H	 0.2888803242	 1.8214872922	-0.5434356298	 0.127616
H	-1.0568990018	 1.1147825347	-1.4502506033	 0.117618
H	-1.2060358155	 1.3812568273	 0.2891990029	 0.12009
H	-0.8281734712	-1.0122122566	-0.1800115463	 0.084815
H	 0.4919258808	-1.485979115	-2.06573544	 0.109413
H	 1.4712508139	-0.0257644349	-1.8642007527	 0.106306
H	 2.19680745	-2.3655953516	 1.2625153849	 0.101658
H	 2.5723991648	-0.0785665374	 2.277458598	 0.094006
H	 2.4064484669	 1.2773243753	-0.4567286823	 0.08421
H	 3.3398190636	 1.7543962048	 0.9512130178	 0.107065
H	 3.9528165707	-0.4851039003	-0.6208915327	 0.293039
H	 0.2273346919	-0.6809483194	 1.9651111787	 0.09096
46.9539	129.5209	162.399	208.5253	228.3917	292.2152	335.1452	388.6449	503.8451	535.3692	614.3385	660.3154	730.3675	752.6857	781.042	865.9175	903.1478	944.2578	951.3067	963.1865	1024.8613	1047.1054	1053.4731	1075.0294	1087.0803	1104.8051	1130.7839	1149.7954	1177.5162	1206.6011	1236.2564	1245.059	1308.4499	1325.605	1346.5893	1360.1592	1386.5737	1401.1033	1418.431	1425.7895	1444.7138	1497.5958	1500.4084	1510.8143	1538.934	3012.4422	3017.1346	3024.5941	3036.9954	3064.6377	3071.5943	3100.0315	3115.1752	3134.8452	3164.7199	3179.336	3775.1681
CC1COC2C(CO)C12	C[C@H]1CO[C@H]2[C@@H](CO)[C@@H]12	
InChI=1S/C7H12O2/c1-4-3-9-7-5(2-8)6(4)7/h4-8H,2-3H2,1H3	InChI=1S/C7H12O2/c1-4-3-9-7-5(2-8)6(4)7/h4-8H,2-3H2,1H3/t4-,5-,6+,7-/m0/s1
