13
gdb 27473	2.59459	1.76956	1.18691	4.8915	67.82	-0.2583	-0.0928	0.1655	979.2035	0.090977	-452.792554	-452.78564	-452.784696	-452.824013	26.172	
O	-0.1141359563	 1.273140276	-0.4094999676	-0.3936
C	 0.0631606656	-0.0245452763	-0.098627252	 0.387637
N	 1.2238250411	-0.5522266619	-0.2212114365	-0.333388
C	 1.4454288126	-1.8591505805	 0.2271204703	 0.348446
O	 2.2440619125	-2.129991368	 1.0830297411	-0.295474
N	 0.7595678572	-2.8708434312	-0.4803967499	-0.206946
C	-0.5154472059	-2.9406283697	-0.3949859646	-0.005635
C	-1.4192641581	-1.9812132315	 0.2318517404	-0.087252
C	-1.1717945573	-0.6610817756	 0.3547997982	-0.1234
H	 0.7532469693	 1.617449862	-0.6691633238	 0.31161
H	-0.9961675755	-3.7982979414	-0.8721470261	 0.130893
H	-2.4047428889	-2.3507443661	 0.5019519622	 0.128322
H	-1.9496439866	 0.0085447341	 0.7068627484	 0.138787
122.9583	160.9421	261.7668	337.4639	392.5439	455.2131	477.3057	571.5467	591.1427	653.1835	711.9812	737.1633	821.8819	867.7512	892.4691	965.4888	978.5439	993.5985	1022.8364	1152.5603	1209.886	1264.7361	1370.7158	1418.1294	1466.0547	1615.0899	1676.812	1700.0256	1825.1462	3098.7095	3170.2643	3194.5972	3755.7945
OC1=NC(=O)N=CC=C1	Oc1nc(=O)nccc1	
InChI=1S/C5H4N2O2/c8-4-2-1-3-6-5(9)7-4/h1-3H,(H,7,8,9)	InChI=1S/C5H4N2O2/c8-4-2-1-3-6-5(9)7-4/h1-3H,(H,7,8,9)
