17
gdb 111480	2.79997	1.52003	1.10682	3.3728	68.38	-0.2329	-0.0283	0.2046	1096.8216	0.134727	-458.952659	-458.944427	-458.943482	-458.985876	30.264	
C	 0.1580198282	 1.2874233609	 0.1640230953	-0.243953
O	 0.0524353271	-0.1018033138	-0.1082288553	-0.24475
C	-1.244447792	-0.6159604197	-0.0105867873	 0.022229
C	-1.3615630086	-1.9777971443	-0.6532721952	 0.00904
O	-0.7578432465	-3.0256332461	 0.1139668959	-0.2476
C	-2.1775583711	-2.8621695436	 0.1970169371	 0.035036
C	-2.5932007592	-2.145013891	 1.4630486954	-0.347396
C	-1.7384688108	-0.870010595	 1.4423641179	 0.368439
O	-1.4777657903	-0.1784242196	 2.3895182686	-0.300676
H	 1.1990680967	 1.5613544856	-0.0207045197	 0.129343
H	-0.4880390864	 1.8715243692	-0.5106423999	 0.099461
H	-0.10456133	 1.5185626814	 1.2003385479	 0.144579
H	-1.9767199326	 0.063887415	-0.4905089831	 0.082986
H	-1.2954521319	-2.083798813	-1.7320533529	 0.107767
H	-2.7728565439	-3.6716824882	-0.2156124744	 0.106055
H	-3.6571879766	-1.8748983247	 1.4460253453	 0.13182
H	-2.4087044321	-2.718843303	 2.3749807644	 0.147619
70.8672	118.0975	167.4407	185.0116	261.2759	334.7381	370.2724	456.7577	480.0229	586.9683	659.4802	697.9011	759.6285	840.2022	868.9523	919.3569	958.2701	1001.7491	1046.2423	1063.4193	1085.2779	1124.7932	1169.3128	1180.3133	1187.0866	1231.8417	1253.7791	1279.3568	1291.4699	1326.1765	1378.4526	1431.4964	1446.0241	1476.1957	1482.2247	1517.9004	1857.0514	2910.6839	2981.5437	3038.3556	3085.1019	3105.3354	3131.2018	3154.0847	3166.6086
COC1C2OC2CC1=O	CO[C@H]1[C@H]2O[C@H]2CC1=O	
InChI=1S/C6H8O3/c1-8-5-3(7)2-4-6(5)9-4/h4-6H,2H2,1H3	InChI=1S/C6H8O3/c1-8-5-3(7)2-4-6(5)9-4/h4-6H,2H2,1H3/t4-,5+,6-/m0/s1
