17
gdb 53302	3.25299	0.76667	0.65756	4.8503	83.58	-0.2516	0.0226	0.2741	1681.81	0.134752	-380.83575	-380.825993	-380.825049	-380.872394	33.392	
C	 0.114966473	 1.518284328	 0.1205031664	-0.50053
C	 0.0565568871	 0.0645726481	 0.085272395	 0.096341
C	 0.0130288007	-1.1393364244	 0.0700012242	 0.12311
C	-0.0263875901	-2.5750935795	 0.0167886944	-0.265425
N	-0.6556032271	-3.2960606715	 1.1521746756	-0.310792
C	-1.3002373527	-3.3438430655	-0.1557879295	-0.004531
C	-2.6341092394	-2.6261300807	-0.2704143504	-0.346865
C	-3.7497988582	-3.4759034214	 0.1440777392	 0.262016
N	-4.6220916271	-4.1643454473	 0.4605771749	-0.306276
H	 1.1506083175	 1.8727860334	 0.0797425102	 0.154193
H	-0.4220158938	 1.9611391824	-0.7254644753	 0.151211
H	-0.3333395841	 1.907919386	 1.0408391778	 0.156628
H	 0.8520203567	-3.0367437574	-0.4303753601	 0.114371
H	-0.1510575706	-4.157826995	 1.3416925824	 0.243838
H	-1.2316473407	-4.2646345624	-0.7313316838	 0.109046
H	-2.6118967323	-1.7258039447	 0.3498820391	 0.170164
H	-2.800936809	-2.3068182981	-1.3057972001	 0.153502
35.7051	51.0117	65.9409	127.3172	153.9735	232.404	315.8276	373.7581	382.413	386.8903	499.5211	545.0538	586.9569	729.8077	827.9115	863.4216	913.8078	950.5009	965.2352	1006.2043	1051.6985	1052.7927	1083.7784	1152.2475	1185.2097	1211.2875	1256.8248	1272.1207	1316.5361	1405.2661	1413.9497	1451.0139	1459.5035	1476.2196	1477.1853	2363.6432	2370.4444	3029.504	3050.473	3090.8786	3093.4401	3104.0585	3120.0849	3135.1513	3512.2807
CC#CC1NC1CC#N	CC#C[C@H]1N[C@H]1CC#N	
InChI=1S/C7H8N2/c1-2-3-6-7(9-6)4-5-8/h6-7,9H,4H2,1H3	InChI=1S/C7H8N2/c1-2-3-6-7(9-6)4-5-8/h6-7,9H,4H2,1H3/t6-,7+/m1/s1
