17
gdb 77492	1.95098	1.89715	1.20658	0.7516	68.73	-0.2339	0.0003	0.2343	1059.2276	0.132889	-458.923569	-458.914042	-458.913097	-458.958018	34.225	
C	-0.1208539433	 1.5531183748	-0.0184335237	-0.443872
C	 0.0979082591	 0.0481974408	 0.0114306458	-0.071106
C	 1.3394322418	-0.6030109038	-0.7424905357	 0.268741
O	 1.6446866445	-0.5584332067	-2.0782811185	-0.466003
C	 2.2497388362	-0.086683115	 0.4171866908	-0.358676
C	 0.9487081907	-0.623011168	 1.1461278225	 0.266986
O	 0.631473905	-0.5941196786	 2.4789235769	-0.466254
C	 1.0776058462	-1.8037103404	 0.1737334121	 0.304994
O	 1.0181855401	-2.9974624592	 0.1412979825	-0.34348
H	 0.781608097	 2.1378768693	 0.1689575562	 0.126653
H	-0.510073494	 1.8500265724	-0.9975902563	 0.129869
H	-0.8615473912	 1.8364969843	 0.7359966027	 0.132965
H	-0.8497075263	-0.4674196464	-0.177816123	 0.084076
H	 1.3389904623	-1.3765941432	-2.4866625197	 0.301916
H	 3.1825733685	-0.6268741962	 0.5898683375	 0.111615
H	 2.3948435684	 0.9902949279	 0.4599587408	 0.120496
H	 0.962340935	-1.4001558219	 2.8913845991	 0.301079
66.9065	113.4036	148.3116	150.9132	181.7547	241.514	256.1432	295.2438	376.4826	456.8725	522.1841	595.2808	623.9732	661.9319	726.3922	738.672	824.9699	862.7855	881.0089	1014.5874	1021.903	1058.8731	1082.0883	1116.9307	1130.9405	1151.3997	1163.6605	1305.2362	1316.3456	1366.5648	1397.3319	1414.4571	1453.3651	1492.4711	1505.2779	1533.4417	1905.5662	3042.2842	3049.1281	3085.2669	3103.605	3128.3539	3170.7696	3796.9998	3800.1244	66.9068	113.4034	148.3117	150.9134	181.7547	241.5141	256.143	295.2438	376.4826	456.8725	522.1841	595.2807	623.9732	661.9319	726.3922	738.6719	824.9699	862.7856	881.0089	1014.5874	1021.9031	1058.8732	1082.0884	1116.9308	1130.9405	1151.3997	1163.6606	1305.2362	1316.3456	1366.5649	1397.3319	1414.4571	1453.3652	1492.471	1505.2779	1533.4418	1905.5662	3042.2842	3049.1281	3085.2669	3103.6049	3128.3539	3170.7696	3796.9999	3800.1243
CC1C2(O)CC1(O)C2=O	C[C@H]1[C@@]2(O)C[C@]1(O)C2=O	
InChI=1S/C6H8O3/c1-3-5(8)2-6(3,9)4(5)7/h3,8-9H,2H2,1H3	InChI=1S/C6H8O3/c1-3-5(8)2-6(3,9)4(5)7/h3,8-9H,2H2,1H3/t3-,5-,6+
