23
gdb 76637	2.78211	1.04056	0.87762	2.124	85.66	-0.2404	0.0746	0.3149	1428.3525	0.205191	-388.256702	-388.246751	-388.245807	-388.292339	36.168	
C	-0.4157785394	 0.9169431492	-1.649266937	-0.408401
C	-0.0017817201	-0.2455111356	-0.7701068015	-0.033143
C	 1.4444168136	-0.6080128797	-0.5035526305	-0.033143
C	 2.6121386683	 0.157976104	-1.0911768214	-0.408401
C	 0.5785419882	-0.0695063734	 0.6236578425	-0.047872
C	 0.798625715	 1.2758380427	 1.2592083109	-0.023729
C	-0.3141714723	 1.8347582009	 2.18105786	-0.088325
O	 0.6141123383	 2.0175904764	 3.2686112819	-0.27272
C	 1.6605225535	 1.3397291432	 2.5451200239	-0.088327
H	 0.2438984445	 1.7822862534	-1.5526486443	 0.116085
H	-0.4141178095	 0.6237644479	-2.7050823558	 0.117776
H	-1.4300753374	 1.2507043796	-1.403056713	 0.118142
H	-0.6689831035	-1.0986753894	-0.8691716963	 0.0817
H	 1.6371874883	-1.6767351206	-0.4441141881	 0.0817
H	 2.431869228	 1.2338126244	-1.1495407866	 0.116085
H	 3.5171577185	 0.0107985184	-0.4910985447	 0.118142
H	 2.8317398793	-0.1899364088	-2.1067723533	 0.117776
H	 0.2577408516	-0.8167273716	 1.3479726538	 0.07838
H	 1.119765896	 2.0205350578	 0.5299360184	 0.073405
H	-0.7867641225	 2.7767214026	 1.8786873452	 0.098987
H	-1.0995034529	 1.1066706652	 2.4296450611	 0.093448
H	 1.890804981	 0.3570409869	 2.9809499044	 0.093448
H	 2.5818993235	 1.9322429468	 2.4997471003	 0.098987
53.1419	74.0745	112.122	152.6856	169.0228	189.6855	251.1224	272.0558	345.0851	463.3084	468.9537	559.261	737.0641	754.6443	779.7588	862.616	893.8978	933.8745	945.0112	945.288	1003.2215	1030.2866	1040.6712	1052.8411	1053.5022	1100.1071	1110.0382	1136.6163	1159.7987	1161.1802	1162.9612	1187.7667	1213.187	1257.7633	1276.9886	1301.1521	1305.9631	1376.7618	1378.4633	1414.5782	1418.1289	1424.5674	1460.6427	1487.9138	1495.884	1501.8685	1511.0672	1517.08	1537.9299	2992.03	3003.4342	3030.4824	3033.7532	3048.9658	3049.8913	3084.5878	3086.1579	3095.0429	3106.1267	3111.9259	3119.3888	3125.0882	3139.865
CC1C(C)C1C1COC1	C[C@H]1[C@@H](C)[C@H]1C1COC1	
InChI=1S/C8H14O/c1-5-6(2)8(5)7-3-9-4-7/h5-8H,3-4H2,1-2H3	InChI=1S/C8H14O/c1-5-6(2)8(5)7-3-9-4-7/h5-8H,3-4H2,1-2H3/t5-,6+,8-
