25
gdb 59641	3.01568	1.02683	0.81565	1.1739	89.5	-0.246	0.0841	0.3301	1528.4211	0.228383	-389.520439	-389.510024	-389.50908	-389.556431	38.801	
C	 0.9024187453	-0.5346812049	-1.1158721085	-0.395558
C	 0.0507919103	 0.0007178264	 0.0433125135	 0.00666
C	 0.0249438979	 1.5347876219	 0.0463004541	-0.39156
C	-1.3654658857	-0.5751252234	-0.0068685533	 0.171766
C	-1.4791215563	-2.114034722	 0.1239634615	-0.248229
C	-2.7539598711	-2.3222222915	 0.9782609456	-0.241394
C	-3.2700346813	-0.8865717301	 1.2239770264	 0.162383
C	-3.8993387596	-0.6390784645	 2.5834239328	-0.409754
O	-2.1214145252	-0.0600220867	 1.0841797275	-0.277434
H	 1.9158761825	-0.1237256064	-1.0712147727	 0.112559
H	 0.9849397033	-1.625748901	-1.0981141797	 0.114193
H	 0.4731575848	-0.2468840558	-2.0832427784	 0.111942
H	 0.4943328501	-0.3384613153	 0.9901841293	 0.073016
H	-0.4032259655	 1.9190263	-0.8876728875	 0.105943
H	-0.5784733788	 1.9129594871	 0.8738549405	 0.132448
H	 1.0378900823	 1.9405639284	 0.1377101814	 0.103264
H	-1.8431852588	-0.2576693518	-0.9530304853	 0.052194
H	-1.5419517181	-2.5989020913	-0.8531520154	 0.101167
H	-0.5989550222	-2.5181695508	 0.6333078604	 0.102285
H	-3.5042073763	-2.9426499101	 0.4812144752	 0.098855
H	-2.5109369935	-2.8022746926	 1.9310907613	 0.100936
H	-3.9949773209	-0.6265185073	 0.4318599039	 0.057525
H	-3.1880166541	-0.879300033	 3.3800060931	 0.119974
H	-4.194301247	 0.4086883309	 2.6894689149	 0.123102
H	-4.7900077623	-1.2620363061	 2.7120213295	 0.113717
32.4602	81.3135	114.8584	169.3776	216.1906	229.6401	237.0862	298.2871	322.0509	355.2569	425.4448	463.4381	487.4075	606.7683	640.0073	816.6258	847.3539	856.1601	901.7095	923.5794	932.9531	961.1233	966.6066	995.0936	1015.144	1053.4222	1097.889	1125.0282	1140.6215	1167.6341	1182.0815	1197.6351	1227.6592	1261.2013	1278.0579	1305.3632	1319.489	1346.503	1348.3664	1378.2966	1387.9401	1397.7752	1404.5831	1416.8605	1429.9916	1482.666	1485.8536	1489.5833	1490.2209	1499.2217	1503.7473	1507.1748	1513.7149	2918.4443	2936.5443	3007.592	3025.8693	3030.9194	3038.5073	3047.7115	3059.8913	3088.2473	3090.1344	3094.9147	3105.0288	3109.5809	3113.0282	3116.7997	3130.9461
CC(C)C1CCC(C)O1	CC(C)[C@H]1CC[C@@H](C)O1	
InChI=1S/C8H16O/c1-6(2)8-5-4-7(3)9-8/h6-8H,4-5H2,1-3H3	InChI=1S/C8H16O/c1-6(2)8-5-4-7(3)9-8/h6-8H,4-5H2,1-3H3/t7-,8-/m1/s1
