20
gdb 40684	3.46448	1.02373	0.92233	1.6147	80.43	-0.2437	0.0724	0.3161	1342.9485	0.17108	-403.085069	-403.076575	-403.075631	-403.118995	32.081	
C	-0.0076516795	 1.531135659	 0.064978333	-0.184274
O	 1.1816299526	 0.7432169899	-0.009339222	-0.242709
C	-0.0798094908	 0.0650476793	 0.0321543869	 0.11368
C	-0.352921961	-0.7405223101	 1.2570218331	-0.137759
N	-1.5573666676	-1.5991994414	 1.1954887114	-0.398748
C	-0.2424380374	-2.2204673726	 1.2744154936	 0.373167
C	 0.3729358903	-3.1476121477	 0.2190164014	-0.289852
C	 1.2596548073	-3.7493065951	 1.3501941316	-0.205467
C	 0.3494107916	-3.0613385529	 2.4120975825	-0.307788
H	-0.1631520434	 2.0547310772	 1.0079425272	 0.110232
H	-0.2482074023	 2.1056223231	-0.8285508178	 0.115392
H	-0.3728887099	-0.4140990193	-0.9017432941	 0.099018
H	-0.1320933482	-0.2256204469	 2.1914967031	 0.083915
H	-2.0233475829	-1.62346853	 2.0995665065	 0.230838
H	-0.3608075991	-3.860069883	-0.169251838	 0.108168
H	 0.8888130522	-2.678811946	-0.6220502903	 0.110538
H	 1.3259139716	-4.8376289548	 1.3958104604	 0.101503
H	 2.2705031178	-3.335982727	 1.346113807	 0.113284
H	 0.8397341267	-2.5276265113	 3.2307253862	 0.103397
H	-0.3869391282	-3.7536190904	 2.8349081483	 0.103465
51.4415	99.303	139.3492	151.8716	303.9184	348.5126	369.0629	423.4279	503.5083	585.1212	713.4871	785.8682	807.6908	854.1956	862.5645	887.3955	923.6992	931.4507	950.9876	968.6528	1004.9651	1018.7239	1049.1991	1091.3145	1116.6046	1135.5122	1154.8495	1170.3311	1192.7701	1216.7158	1235.1668	1248.3582	1252.9684	1274.3216	1282.5366	1288.7109	1330.9874	1401.5152	1471.2761	1480.3011	1494.3804	1509.7029	1533.8325	3041.0758	3058.4819	3073.7875	3079.1996	3094.1896	3108.3958	3111.5852	3121.4752	3130.9896	3165.8854	3493.91
C1OC1C1NC11CCC1	C1O[C@H]1[C@H]1NC21CCC2	
InChI=1S/C7H11NO/c1-2-7(3-1)6(8-7)5-4-9-5/h5-6,8H,1-4H2	InChI=1S/C7H11NO/c1-2-7(3-1)6(8-7)5-4-9-5/h5-6,8H,1-4H2/t5-,6-/m1/s1
