16
gdb 64747	2.69944	1.29534	1.11559	2.8958	69.91	-0.2456	0.0013	0.2469	1124.8821	0.122954	-437.865428	-437.856502	-437.855558	-437.899252	32.635	
N	-0.1872235318	 1.4864886455	 0.115727787	-0.554552
C	-0.0450097569	 0.051284717	 0.040226891	 0.096091
C	 0.8752123233	-0.4474963002	 1.1723520528	-0.389104
C	 2.2100173328	 0.1351501801	 1.1162310382	 0.300844
C	 3.2982142258	 0.6425960092	 1.0676887767	-0.430779
C	-1.3623692088	-0.7491272832	-0.0884768687	-0.109988
O	-0.8981586021	-1.3519932839	-1.3355098655	-0.245415
C	 0.2631227321	-0.611767561	-1.3326592105	 0.411419
O	 1.0979514442	-0.5681353403	-2.1761868775	-0.318798
H	 0.7327668398	 1.9173960617	 0.1549789505	 0.251428
H	-0.6536157681	 1.8526893567	-0.7086396143	 0.240167
H	 0.3980888004	-0.1851356222	 2.1247418397	 0.148263
H	 0.9409238594	-1.5409493413	 1.13180023	 0.143712
H	 4.2690476577	 1.0706451092	 1.0187450182	 0.206198
H	-1.5559236439	-1.5119452635	 0.6688609891	 0.124705
H	-2.2512767339	-0.1370615838	-0.2552717268	 0.125811
70.394	101.3084	146.3573	191.454	269.7723	292.7696	334.0559	350.5805	381.592	487.1088	558.9006	631.6925	662.6499	724.3135	759.482	776.4107	863.2739	900.5694	922.589	962.7826	992.5145	1036.8592	1073.0679	1111.378	1153.2995	1213.8797	1282.5001	1306.3125	1343.8536	1390.2942	1460.4224	1516.6321	1660.5445	1934.4085	2240.2391	3029.1007	3068.3734	3070.372	3130.8378	3492.0472	3504.3393	3571.1547
NC1(CC#C)COC1=O	N[C@@]1(CC#C)COC1=O	
InChI=1S/C6H7NO2/c1-2-3-6(7)4-9-5(6)8/h1H,3-4,7H2	InChI=1S/C6H7NO2/c1-2-3-6(7)4-9-5(6)8/h1H,3-4,7H2/t6-/m0/s1
