14
gdb 130107	3.55955	1.73313	1.16932	5.3138	69.05	-0.1936	0.0121	0.2057	962.9644	0.104605	-429.06412	-429.057074	-429.05613	-429.095321	27.159	
N	 0.0147446057	 1.3905294722	 0.1913620295	-0.603444
C	 0.0126465466	 0.0000247185	 0.0752648627	 0.348195
N	-1.0284597825	-0.7986678496	 0.0834309547	-0.283628
N	-0.5972267316	-2.1276837865	 0.0570551202	-0.369641
C	 0.7053705847	-2.0434273361	 0.0134640723	 0.511529
N	 1.8111514308	-2.8566573672	-0.0361365903	-0.427749
C	 2.9430452038	-2.0470759928	-0.0404609133	-0.067788
C	 2.5652260661	-0.7442483478	 0.005694085	-0.147941
N	 1.1679443575	-0.7472855214	 0.0342227314	-0.054161
H	 0.380196485	 1.8517080922	-0.6370121381	 0.248557
H	-0.9387870953	 1.7031313355	 0.3383239092	 0.263177
H	 1.7908167146	-3.8584526356	-0.0855362726	 0.281875
H	 3.9330505733	-2.4700019765	-0.0712022716	 0.148897
H	 3.1524937614	 0.1556027951	 0.0356830209	 0.152122
180.4773	200.5303	226.7805	274.368	308.6832	403.1157	558.5356	590.9828	649.7091	659.5766	687.7553	717.8038	746.0971	789.4169	820.952	860.4292	939.4522	1042.2606	1072.617	1096.0919	1156.1321	1185.6014	1266.3887	1337.2884	1358.3753	1440.8907	1472.1042	1568.398	1605.2009	1647.3274	1665.2017	3280.4754	3307.7172	3493.4954	3593.8597	3712.0222
NC1=NN=C2NC=CN12	Nc1nnc2[nH]ccn12	
InChI=1S/C4H5N5/c5-3-7-8-4-6-1-2-9(3)4/h1-2H,(H2,5,7)(H,6,8)	InChI=1S/C4H5N5/c5-3-7-8-4-6-1-2-9(3)4/h1-2H,(H2,5,7)(H,6,8)
