18
gdb 7887	3.45299	1.64589	1.19133	2.7283	74.68	-0.2369	-0.0143	0.2226	1036.5263	0.152646	-347.851074	-347.842782	-347.841838	-347.883852	30.626	
C	-0.1507291305	 1.5957630124	 0.0498475887	-0.389431
C	 0.0117459801	 0.06957309	-0.0239753522	-0.139479
C	 0.7662208796	-0.4598376644	-1.2155803056	-0.171953
C	 1.8070460749	-1.2369056333	-0.8962943228	 0.309527
C	 2.7489715829	-1.9123048868	-1.8412192597	-0.48654
C	 1.9462255918	-1.382712967	 0.6000291672	-0.416602
C	 0.8368081901	-0.4800913073	 1.1570663437	 0.395528
O	 0.6509835578	-0.2200464002	 2.3170976578	-0.312979
H	 0.8179922877	 2.097384394	-0.0405663356	 0.118262
H	-0.7969539569	 1.9594697706	-0.7545850056	 0.11448
H	-0.5939927797	 1.8766349021	 1.0088829064	 0.138273
H	-0.9916000661	-0.379883992	 0.042205092	 0.105837
H	 0.4770922748	-0.2212072557	-2.2344109963	 0.090039
H	 2.4996583951	-1.6914069131	-2.8827637851	 0.124979
H	 3.7845323154	-1.5957668495	-1.6623513801	 0.127787
H	 2.7312115792	-3.0017593357	-1.7091312309	 0.127476
H	 1.7993591107	-2.4146873107	 0.948763422	 0.132728
H	 2.924596523	-1.0713902034	 0.9890804963	 0.132069
63.9766	141.6073	193.3479	210.8631	233.6959	289.5675	374.1211	446.6552	494.646	546.5155	584.2311	669.4934	743.1764	837.0114	887.395	916.5676	921.3167	1009.6412	1016.3493	1040.4238	1091.1535	1104.3285	1134.5539	1172.7253	1189.9386	1267.3642	1287.4132	1317.5567	1350.0881	1400.8955	1416.0323	1442.1163	1478.5247	1488.116	1494.1492	1499.7708	1713.6881	1848.8293	2984.3084	3015.0156	3018.5944	3038.721	3046.5713	3063.2032	3108.644	3110.1602	3123.293	3177.5435
CC1C=C(C)CC1=O	C[C@H]1C=C(C)CC1=O	
InChI=1S/C7H10O/c1-5-3-6(2)7(8)4-5/h3,6H,4H2,1-2H3	InChI=1S/C7H10O/c1-5-3-6(2)7(8)4-5/h3,6H,4H2,1-2H3/t6-/m0/s1
