13
gdb 99420	1.74243	1.50223	1.32607	3.9021	67.53	-0.3004	-0.058	0.2424	1076.144	0.087665	-411.775653	-411.766377	-411.765432	-411.809862	31.653	
C	 0.0646544939	 1.4834782082	 0.0043380399	-0.356033
N	-0.01849166	 0.0196902543	 0.0538160366	-0.288555
C	-1.3693760395	-0.5282328842	 0.0157045199	-0.177632
C	-1.2737975244	-2.0067235944	-0.0006928006	 0.327815
N	-1.1746008836	-3.1551845581	-0.0360960336	-0.293585
C	-2.1076611037	-0.1083154261	 1.2339312975	 0.359957
N	-2.6763554996	 0.2336276504	 2.1773275676	-0.302168
C	-2.1587602975	-0.0968524072	-1.1807837081	 0.31254
N	-2.6838581764	 0.286439263	-2.1352112308	-0.306124
H	 1.1216503307	 1.7546315753	 0.0222602318	 0.15235
H	-0.4026683072	 1.9246173687	-0.8871742532	 0.143736
H	-0.4081185586	 1.9036063535	 0.8959540276	 0.166857
H	 0.5219666959	-0.4055898933	-0.6925233946	 0.260843
104.2477	120.1337	129.4509	150.5305	175.9263	195.8086	268.6632	351.6643	363.0057	507.1069	517.2803	564.1782	568.4826	579.7731	659.3947	741.4436	984.3455	1039.4598	1062.5057	1134.5812	1167.8955	1231.2036	1460.4285	1483.6451	1494.2589	1519.5253	2353.6776	2376.3675	2382.3849	3010.4482	3102.2508	3142.5178	3537.9584
CNC(C#N)(C#N)C#N	CNC(C#N)(C#N)C#N	
InChI=1S/C5H4N4/c1-9-5(2-6,3-7)4-8/h9H,1H3	InChI=1S/C5H4N4/c1-9-5(2-6,3-7)4-8/h9H,1H3
