15
gdb 66901	2.39984	1.97347	1.49359	4.0347	69.51	-0.2215	-0.0161	0.2054	904.4509	0.112938	-420.608276	-420.601424	-420.60048	-420.639254	27.81	
O	-0.138997737	 1.3902197315	 0.0260271966	-0.449334
C	 0.0576761573	 0.0377970838	-0.0082627631	 0.385033
C	 0.0704890372	-0.8926746088	-1.1819845118	-0.166521
C	 1.2645187492	-1.7825312214	-1.0719878787	-0.090976
C	 1.7510896693	-1.7270010589	 0.1736795411	-0.097985
C	 0.8572518882	-0.8577960187	 1.0210244135	-0.296428
C	-0.5151400696	-1.5997618504	 1.1658342046	 0.454835
O	-1.0069038789	-2.2004307794	 2.0785184966	-0.328442
C	-1.0501714282	-1.0212429465	-0.0975013895	-0.249577
H	 0.6786434907	 1.8262572151	-0.2426742045	 0.298081
H	-0.3126423931	-0.549186073	-2.1364602243	 0.103469
H	 1.6453621401	-2.3749862776	-1.8933723224	 0.108512
H	 2.583094309	-2.2925089064	 0.5717116181	 0.114176
H	 1.2560120209	-0.4212714977	 1.9352337019	 0.09468
H	-2.0887187353	-0.9199921915	-0.3832430281	 0.120476
126.2598	257.5053	303.598	353.9616	377.1492	461.3226	504.3736	588.0733	601.2405	689.9072	725.1761	771.2848	801.8746	813.3846	837.3175	888.6742	930.2835	955.1848	982.759	1008.2295	1030.0805	1086.1053	1104.4984	1113.0252	1154.07	1177.4683	1246.7854	1292.9407	1309.6077	1351.7718	1453.314	1636.0109	1875.4888	3139.4603	3181.4402	3211.9421	3213.6375	3235.4444	3783.467
OC12C3C=CC1C(=O)C23	O[C@@]12[C@H]3C=C[C@@H]1C(=O)[C@@H]23	
InChI=1S/C7H6O2/c8-6-4-2-1-3-5(6)7(3,4)9/h1-5,9H	InChI=1S/C7H6O2/c8-6-4-2-1-3-5(6)7(3,4)9/h1-5,9H/t3-,4+,5-,7-/m0/s1
