18
gdb 17663	3.04301	1.94261	1.53982	1.5191	66.91	-0.261	0.0707	0.3317	892.1353	0.153047	-384.901625	-384.893778	-384.892834	-384.933693	29.936	
O	-0.3490099728	 1.6080843759	 0.237896033	-0.480561
C	 0.0164674636	 0.2546794626	 0.0629653058	 0.363529
C	 0.9977170195	-0.1143717293	-1.09045946	-0.279899
C	 1.7279822486	-1.0778800089	-0.1188749624	-0.205284
C	 1.0344838962	-0.3625913949	 1.0713100277	-0.281707
C	-1.3008743168	-0.4938878627	 0.0422317587	 0.081879
C	-2.0818977055	-0.7001049483	-1.1791037064	-0.183697
O	-1.3315004084	-1.7709761595	-0.5927257119	-0.237771
H	 0.4527068366	 2.1122626941	 0.4096250761	 0.277347
H	 0.5782776613	-0.5399834221	-2.0035942986	 0.109133
H	 1.6081794564	 0.7556287013	-1.352626711	 0.089226
H	 1.377222329	-2.1040633526	-0.2366903558	 0.126972
H	 2.8193377216	-1.0688152714	-0.1338088318	 0.09557
H	 1.6667944293	 0.4181954393	 1.5090391907	 0.088086
H	 0.6294035514	-0.9746166547	 1.8817640795	 0.104429
H	-1.8402119402	-0.4472100478	 0.9898150457	 0.096528
H	-3.1636403258	-0.8005608324	-1.1131735286	 0.118278
H	-1.7041314241	-0.3321807885	-2.1308761108	 0.117941
82.9216	141.2522	226.2774	246.2621	277.3503	336.3139	398.0177	475.7836	511.9014	614.9738	699.8279	780.2978	838.0041	880.9954	891.8848	935.7511	948.3641	970.6474	985.5342	1041.215	1077.0888	1095.0584	1144.592	1164.5167	1172.0068	1183.4079	1203.2479	1219.9575	1248.4583	1276.8073	1279.7187	1303.7142	1382.3893	1450.6186	1464.3257	1480.8491	1500.6803	1530.359	3039.2924	3056.149	3078.7114	3092.7231	3096.1781	3100.3311	3118.9005	3138.6795	3181.7268	3815.8343
OC1(CCC1)C1CO1	OC1(CCC1)[C@H]1CO1	
InChI=1S/C6H10O2/c7-6(2-1-3-6)5-4-8-5/h5,7H,1-4H2	InChI=1S/C6H10O2/c7-6(2-1-3-6)5-4-8-5/h5,7H,1-4H2/t5-/m1/s1
