18
gdb 43826	3.06321	1.4896	1.18217	2.3891	76.36	-0.2423	-0.0228	0.2196	1064.8767	0.148253	-401.934469	-401.92702	-401.926076	-401.966364	29.886	
O	 0.1093099425	 0.0174037108	 0.1872245575	-0.323106
C	 0.0167737507	 1.2028852508	 0.0012147389	 0.426743
C	-1.2812277662	 2.0007017059	-0.2178616029	-0.451131
C	-0.8013254181	 3.2808295992	-0.8899156815	 0.380577
C	-1.3024511224	 3.7043757034	-2.2412652287	-0.313039
C	-1.6200856399	 4.5298186041	-1.0117120169	-0.319381
N	 0.6467278726	 3.450264328	-0.6759867686	-0.132922
C	 1.0251822749	 3.398288267	 0.729625473	-0.249448
C	 1.1523124378	 2.1748622609	-0.1266141858	-0.145305
H	-1.9728153178	 1.41672784	-0.8282852087	 0.140444
H	-1.7690582816	 2.1677314489	 0.7503898647	 0.132886
H	-0.5684717473	 4.1013241006	-2.9327603792	 0.127531
H	-2.1003585091	 3.126165825	-2.6951575981	 0.114383
H	-2.6340224034	 4.5161126675	-0.6261609025	 0.115607
H	-1.1024418194	 5.4757446374	-0.8967646855	 0.123751
H	 1.9306794472	 3.9402775649	 0.9842710046	 0.131386
H	 0.2483603081	 3.4225636019	 1.4898330764	 0.124925
H	 2.1234740413	 1.8101987039	-0.4415125766	 0.116098
80.5351	181.5877	258.1615	301.1408	343.2898	443.2851	481.9863	503.5836	545.4123	652.1654	714.0113	778.1854	791.2191	835.3338	857.1002	885.5235	931.584	942.0244	971.9014	984.2216	1028.5732	1055.9554	1072.1805	1083.2883	1100.9335	1148.8706	1163.5671	1175.1785	1190.6908	1234.2749	1236.9259	1287.8434	1327.2198	1365.7677	1453.9099	1457.5247	1497.7552	1506.7682	1845.2927	3037.9502	3110.8598	3112.7049	3131.8781	3135.6725	3182.5288	3201.0193	3216.5679	3231.4427
O=C1CC2(CC2)N2CC12	O=C1CC2(CC2)N2C[C@@H]12	
InChI=1S/C7H9NO/c9-6-3-7(1-2-7)8-4-5(6)8/h5H,1-4H2	InChI=1S/C7H9NO/c9-6-3-7(1-2-7)8-4-5(6)8/h5H,1-4H2/t5-,8?/m0/s1
