18
gdb 18254	4.28031	1.56786	1.30059	1.4043	72.35	-0.2246	0.0235	0.2481	963.6647	0.155136	-347.792019	-347.784653	-347.783709	-347.823559	28.578	
O	-0.0749158462	 1.4938491306	-0.0092389269	-0.422876
C	 0.0552772679	 0.0800880704	 0.0695242215	-0.081203
C	-1.3472932133	-0.5204262517	-0.0339525166	-0.029954
C	-2.0462372657	-0.2408964978	-1.3525038544	-0.081799
C	-2.5503496549	-1.3489120736	-1.900655265	-0.085328
C	-2.2189478125	-2.5639167526	-1.0990669617	-0.075883
C	-0.7386497476	-2.8804312267	-1.0132542445	-0.280839
C	-1.3904676645	-2.0479676591	 0.066058127	-0.066358
H	 0.8059064958	 1.8788560701	 0.0042546858	 0.286414
H	 0.6887987046	-0.3070848011	-0.7423523628	 0.085859
H	 0.5148084301	-0.2241114747	 1.0235381453	 0.083735
H	-1.9289278354	-0.0792819834	 0.7888876503	 0.087356
H	-2.089825945	 0.7567722819	-1.771186112	 0.104193
H	-3.1008407466	-1.3947457739	-2.8339627089	 0.091364
H	-2.9377404754	-3.3687590584	-0.9911526751	 0.084236
H	-0.4543278641	-3.8906575477	-0.7362023606	 0.106721
H	-0.0820379741	-2.4089026929	-1.7366475435	 0.111267
H	-1.4831547629	-2.4964174892	 1.048256022	 0.083094
107.1936	157.2336	195.9598	257.0313	334.894	401.8804	450.544	564.9092	684.3882	752.1242	781.8263	789.217	813.1012	871.3506	921.6475	943.5383	975.3985	1014.1881	1024.808	1063.1055	1073.3926	1076.9829	1081.8365	1099.3434	1115.7555	1141.9422	1197.8006	1240.5581	1241.3851	1301.2562	1315.9911	1337.0806	1367.7193	1390.1761	1453.4529	1478.0651	1519.3863	1665.7306	2969.651	2991.0947	3012.7264	3124.8332	3164.9557	3175.2114	3188.3756	3213.1558	3221.9268	3832.5644
OCC1C=CC2CC12	OC[C@H]1C=C[C@H]2C[C@@H]12	
InChI=1S/C7H10O/c8-4-6-2-1-5-3-7(5)6/h1-2,5-8H,3-4H2	InChI=1S/C7H10O/c8-4-6-2-1-5-3-7(5)6/h1-2,5-8H,3-4H2/t5-,6+,7+/m0/s1
