25
gdb 119052	1.63131	1.30629	0.83572	1.3709	89.59	-0.2565	0.072	0.3284	1525.9816	0.226987	-389.483057	-389.471811	-389.470866	-389.519685	41.197	
C	-2.6489537652	 1.5457977558	 0.2306345773	-0.378483
C	-2.2627093217	 0.0913808892	-0.0539638008	-0.170598
C	-2.169448846	-0.7535320641	 1.2253212317	-0.257239
C	-1.8231768846	-2.2201322377	 1.0039637296	 0.362
C	-0.4386649232	-2.4684925958	 0.4429597551	-0.146889
O	 0.5213238546	-1.9183088649	 1.3389554016	-0.422807
C	-2.3274844514	-3.2396930837	 2.0025452768	-0.339391
C	-2.8837451291	-3.2284973735	 0.5987422252	-0.036537
C	-4.3277795009	-2.8654858098	 0.3248065293	-0.415297
H	-2.697263919	 2.1359792661	-0.6900419564	 0.107307
H	-3.628912868	 1.6079808055	 0.717373646	 0.110851
H	-1.9212502452	 2.024137501	 0.8957052418	 0.115128
H	-2.9934242854	-0.3571326573	-0.7384647516	 0.094926
H	-1.3004081363	 0.0734652907	-0.580006157	 0.096781
H	-1.4056880638	-0.3237850939	 1.8840559087	 0.113951
H	-3.1173348717	-0.679011524	 1.7704765421	 0.085156
H	-0.2851906618	-3.5523656749	 0.3193013643	 0.077108
H	-0.3454746657	-2.0119837112	-0.5551982233	 0.084901
H	 1.3851255768	-1.9693074617	 0.9197182696	 0.285079
H	-1.6650165905	-4.045331672	 2.3014783266	 0.107342
H	-2.9719767064	-2.879481291	 2.7987988308	 0.103806
H	-2.518984642	-4.028168962	-0.0434023583	 0.07416
H	-4.6855208989	-2.0705054074	 0.9846813781	 0.117561
H	-4.4709327867	-2.5303647329	-0.7086338727	 0.115553
H	-4.9767386678	-3.7345124807	 0.4818941754	 0.115632
56.0324	70.9451	106.3885	143.6867	190.7171	204.6983	235.6119	246.4852	266.6882	305.6808	331.8021	380.8616	416.2333	441.3055	571.4301	733.6148	746.5943	790.2022	865.8256	875.7825	905.748	931.7093	954.6745	990.483	1026.5151	1047.7289	1060.8236	1066.2816	1072.7324	1125.4272	1135.7739	1147.2483	1190.328	1232.3013	1245.7926	1260.2169	1292.0601	1312.9335	1335.3288	1357.1373	1396.519	1408.8209	1411.2028	1429.4638	1461.5358	1479.5442	1488.7232	1493.6947	1496.7393	1499.9968	1504.9297	1510.9953	1520.9256	2964.9144	2992.516	3023.626	3026.905	3029.0883	3036.4544	3049.9857	3074.0758	3083.989	3096.0425	3099.1944	3102.9453	3122.3431	3122.7234	3205.5574	3830.337
CCCC1(CO)CC1C	CCC[C@@]1(CO)C[C@H]1C	
InChI=1S/C8H16O/c1-3-4-8(6-9)5-7(8)2/h7,9H,3-6H2,1-2H3	InChI=1S/C8H16O/c1-3-4-8(6-9)5-7(8)2/h7,9H,3-6H2,1-2H3/t7-,8+/m1/s1
