18
gdb 51491	3.92901	1.06068	0.95509	3.7861	79.09	-0.2345	0.0047	0.2392	1249.8645	0.149282	-401.968201	-401.96025	-401.959306	-402.001814	30.15	
O	-0.0941003229	 0.0203144035	 0.6634095946	-0.324976
C	-0.0695152549	 1.1459123126	 0.2111178428	 0.154511
N	 1.0283418222	 1.7732686775	-0.2881430835	-0.279646
C	 2.3588128462	 1.1773141744	-0.2977453906	-0.013581
C	 2.9726482088	 1.0763869073	-1.6863419257	-0.107903
C	 4.2084411209	 1.576033834	-1.7257040063	-0.080033
C	 4.6096269218	 2.1628696568	-0.4105347986	-0.072799
C	 3.7775580078	 3.3549561313	 0.0210279595	-0.291044
C	 3.4097298483	 1.9672767938	 0.4914044926	-0.050535
H	-0.9687979876	 1.791484565	 0.1533748515	 0.072497
H	 0.9315216619	 2.7260366103	-0.6032308358	 0.24413
H	 2.2146152626	 0.1836577863	 0.1391481977	 0.130314
H	 2.4243766063	 0.650399151	-2.5182919354	 0.104452
H	 4.8502281023	 1.6007719898	-2.5991695749	 0.102443
H	 5.6278917384	 2.0680396941	-0.0519713188	 0.094133
H	 4.1959509742	 4.0221548419	 0.7673320885	 0.116205
H	 3.1787526157	 3.84804918	-0.7388733161	 0.104232
H	 3.526882068	 1.7457708202	 1.5448471785	 0.097599
28.18	118.8081	169.3694	227.1232	309.8591	396.3804	473.9996	533.0475	533.6086	672.6052	735.8392	754.2935	786.9506	810.6937	843.1504	933.8038	941.6067	959.6938	992.0865	1010.8728	1031.1898	1056.6575	1064.6653	1070.1699	1094.3018	1106.2366	1139.6887	1196.0893	1207.3688	1300.5519	1306.3337	1341.3856	1369.3089	1384.2143	1430.2466	1477.8226	1520.1765	1671.3312	1802.4922	2930.8573	3066.8221	3119.4318	3176.6695	3187.7683	3190.7701	3209.6954	3215.7489	3627.4146
O=CNC1C=CC2CC12	O=CN[C@H]1C=C[C@H]2C[C@@H]12	
InChI=1S/C7H9NO/c9-4-8-7-2-1-5-3-6(5)7/h1-2,4-7H,3H2,(H,8,9)	InChI=1S/C7H9NO/c9-4-8-7-2-1-5-3-6(5)7/h1-2,4-7H,3H2,(H,8,9)/t5-,6+,7-/m0/s1
