17
gdb 102979	2.69402	0.81257	0.6734	1.7524	66.27	-0.2583	-0.0495	0.2088	1607.5634	0.130749	-496.087836	-496.077418	-496.076473	-496.12565	34.267	
O	 0.1764844529	 1.2638313134	 0.1529921907	-0.420203
C	 0.0218725032	-0.1250650331	-0.0482109819	-0.082213
C	-1.4563822771	-0.5331965019	-0.028510925	 0.01167
O	-1.9631142588	-0.1466351047	 1.238489784	-0.273932
C	-3.2036866385	-0.7217930083	 1.5837598214	-0.158134
C	-3.565893256	-0.2608539075	 2.9867098509	 0.142037
O	-4.6014245175	-0.538087565	 3.5272205653	-0.227645
C	-2.2064135019	 0.1712926896	-1.1610626675	 0.150372
O	-2.1766770824	-0.2036106939	-2.3021894966	-0.237676
H	-0.2317762851	 1.4686383019	 1.0017677027	 0.294707
H	 0.4423097542	-0.3609790055	-1.0296191149	 0.137474
H	 0.5557108991	-0.7137437672	 0.712495019	 0.103615
H	-1.5360383665	-1.6203588747	-0.1793998585	 0.09954
H	-4.0120675147	-0.4317711072	 0.8948424996	 0.136192
H	-3.1524017035	-1.8229503704	 1.5778378083	 0.135093
H	-2.7771156107	 0.354874356	 3.4725607145	 0.096167
H	-2.7638727367	 1.0808002685	-0.844329272	 0.092937
43.8242	50.1269	59.384	87.4502	119.1436	157.8979	237.6951	264.9066	335.5887	375.1687	420.3398	508.3717	572.9555	656.8868	741.7057	861.904	914.7668	988.5882	1030.7872	1080.9764	1086.9777	1110.466	1112.6767	1160.2784	1231.1239	1241.3961	1276.8783	1317.6056	1365.3029	1385.6215	1404.6481	1413.7795	1420.3639	1482.509	1494.2733	1840.0072	1848.9057	2888.1278	2898.4147	2977.3447	2994.8405	3007.5342	3014.8463	3103.2186	3806.6955
OCC(OCC=O)C=O	OC[C@@H](OCC=O)C=O	
InChI=1S/C5H8O4/c6-1-2-9-5(3-7)4-8/h1,3,5,8H,2,4H2	InChI=1S/C5H8O4/c6-1-2-9-5(3-7)4-8/h1,3,5,8H,2,4H2/t5-/m0/s1
