16
gdb 30395	3.9387	1.11676	0.87484	4.0362	79.78	-0.2049	-0.0231	0.1818	1274.1044	0.124125	-437.910484	-437.902107	-437.901162	-437.943852	30.802	
C	-0.0467504854	 1.4458810956	-0.0363010403	-0.319993
N	-0.0112621502	-0.0054991823	-0.0274883735	-0.317497
C	 0.5724326871	-0.6052834113	 0.9490499839	 0.318583
C	 1.2359228176	 0.0200637362	 2.104491403	-0.238402
C	 1.8085873019	-0.7211948948	 3.0571490033	 0.049186
O	 1.8286146476	-2.0874908488	 3.0441215692	-0.244161
C	 1.22589463	-2.7078749994	 1.992176855	 0.476288
O	 1.3133717513	-4.0422220015	 2.0950243067	-0.409774
C	 0.6228979026	-2.0592722965	 0.9840578924	-0.331732
H	 0.95675699	 1.8981730263	-0.0737670135	 0.106202
H	-0.5874455251	 1.7834077508	-0.924918554	 0.117458
H	-0.5628606908	 1.8685748967	 0.8400580815	 0.105728
H	 1.2731271419	 1.0963485627	 2.2043380272	 0.116374
H	 2.3148141969	-0.3413252017	 3.9348020842	 0.140721
H	 1.7922864283	-4.2519787624	 2.9061971076	 0.308916
H	 0.1663066263	-2.6248506795	 0.1837262271	 0.122103
62.341	112.9093	177.9548	225.2	276.7741	310.147	381.2667	405.8033	452.2146	545.9382	602.1106	651.6706	714.1079	755.8318	823.8857	867.3262	907.2658	947.895	948.8054	1027.2448	1074.3674	1096.4882	1154.067	1189.3434	1250.3022	1294.7001	1308.6066	1409.3446	1422.8422	1433.8568	1488.6338	1506.1999	1647.9026	1690.1333	1758.0543	2964.9797	3011.401	3089.6111	3217.6888	3234.391	3236.5655	3808.2575
CN=C1C=COC(O)=C1	C[N]C1=C[C@H](OC=C1)O	
InChI=1S/C6H7NO2/c1-7-5-2-3-9-6(8)4-5/h2-4,8H,1H3	InChI=1S/C6H8NO2/c1-7-5-2-3-9-6(8)4-5/h2-4,6,8H,1H3/t6-/m0/s1
