17
gdb 66686	2.55352	1.98941	1.64089	0.9773	70.37	-0.2301	0.0678	0.2979	894.3601	0.135421	-421.738261	-421.730996	-421.730052	-421.769503	29.352	
C	-0.1100155998	 1.4289402274	 0.0009866037	-0.532442
C	 0.009094707	-0.0625753097	 0.0398397325	 0.247738
C	 0.2098192579	-1.072180835	-1.0869084304	-0.230319
C	 0.6263222838	-2.0986094777	 0.0090648056	-0.087188
C	 0.6267288242	-0.9969109977	 1.1157999415	 0.012013
O	-0.4653586909	-1.6236290514	 1.8383568705	-0.300587
C	-0.8377298406	-2.1865372738	 0.5577454837	-0.014207
C	-1.1298493443	-1.0025155202	-0.4056851844	 0.35656
O	-2.3181084761	-0.5642278093	-0.9399662794	-0.465054
H	 0.8621390541	 1.9160710246	-0.1305527534	 0.123541
H	-0.7552308626	 1.7399273639	-0.8274865127	 0.130719
H	-0.5503539433	 1.811312762	 0.9299979589	 0.123013
H	 0.4993791186	-0.9382851499	-2.1189846905	 0.099339
H	 1.3198142447	-2.9312137313	-0.070825385	 0.082988
H	 1.4534157233	-0.6777544619	 1.7503854925	 0.078292
H	-1.4850510923	-3.0610252662	 0.6101017663	 0.084307
H	-2.8127361735	-0.1058929139	-0.2497884592	 0.291284
171.3751	189.6997	217.5691	282.3339	316.2345	403.1549	541.441	563.1594	640.3639	669.9126	728.5978	799.9133	820.7259	827.9806	830.7699	876.8051	880.1472	905.8176	939.1337	963.5636	1038.0349	1043.3911	1093.0517	1115.7329	1128.2555	1156.7038	1170.7134	1196.523	1224.7378	1245.0572	1294.2297	1319.3529	1379.4384	1416.2327	1454.6854	1489.2001	1500.1066	3021.3892	3080.9941	3097.0075	3120.5657	3132.5605	3157.0847	3223.6462	3775.43
CC12C3C4C1OC4C23O	C[C@@]12[C@H]3[C@H]4[C@@H]1O[C@H]4[C@@]23O	
InChI=1S/C7H8O2/c1-6-3-2-4(6)9-5(2)7(3,6)8/h2-5,8H,1H3	InChI=1S/C7H8O2/c1-6-3-2-4(6)9-5(2)7(3,6)8/h2-5,8H,1H3/t2-,3+,4-,5+,6+,7+/m0/s1
