14
gdb 133132	2.54382	1.56501	0.97474	1.5402	66.57	-0.2663	-0.0563	0.21	1102.3153	0.101514	-478.013827	-478.006329	-478.005385	-478.046547	27.264	
O	 0.3050211948	 0.9454784341	 0.9910457983	-0.424617
C	 0.0142774571	 0.1875612848	-0.1474214715	-0.123938
C	-1.398215177	-0.3511957473	-0.1291673888	 0.175681
N	-2.1571124294	-0.049340207	 0.9241015056	-0.325732
C	-3.4060138218	-0.5221206109	 0.946571274	 0.068244
N	-3.9842354686	-1.2744792638	 0.0156183201	-0.249285
C	-3.2298846636	-1.5825379844	-1.0454438112	-0.072171
C	-1.9263562835	-1.1353769456	-1.1506010592	 0.20023
F	-1.1744598462	-1.4424740604	-2.2081801547	-0.061842
H	-0.5013897769	 0.9378393498	 1.5305105637	 0.296141
H	 0.1459819132	 0.7877447583	-1.0623317183	 0.122685
H	 0.7096718106	-0.6623178186	-0.2408917537	 0.122691
H	-4.006931825	-0.2642378596	 1.8138533075	 0.132214
H	-3.6684167637	-2.1963837794	-1.8277831317	 0.139699
55.1417	158.8363	192.7554	275.4797	324.0397	366.5043	475.1893	522.7759	550.1608	571.7362	629.2836	756.1091	794.0349	883.9851	947.9149	997.4113	1029.8772	1112.2884	1158.5094	1190.4639	1249.4976	1252.557	1281.8259	1320.9786	1336.7538	1442.102	1463.8212	1478.7231	1509.1376	1607.789	1623.7529	2976.7109	2988.3009	3172.0715	3181.9626	3681.2061
OCC1=NC=NC=C1F	OCc1ncncc1F	
InChI=1S/C5H5FN2O/c6-4-1-7-3-8-5(4)2-9/h1,3,9H,2H2	InChI=1S/C5H5FN2O/c6-4-1-7-3-8-5(4)2-9/h1,3,9H,2H2
