21
gdb 118907	3.66603	0.90025	0.87206	2.1343	79.1	-0.2493	0.0169	0.2661	1418.1578	0.181857	-424.232259	-424.222823	-424.221879	-424.266562	35.908	
O	 0.1159410352	 1.4481455352	-0.0101792386	-0.421717
C	 0.0891653345	 0.0278358343	 0.038772394	-0.0708
C	-1.3389153875	-0.5246728183	 0.0071251072	-0.238968
C	-1.4214587657	-2.0487661636	 0.0702581639	 0.371467
O	-0.7057577303	-2.5283796079	-1.074082319	-0.47694
C	-0.824386617	-2.6878295885	 1.3604306097	-0.294702
C	-1.6647784915	-3.9291156685	 1.5482943678	-0.082114
C	-2.7833731146	-3.8809860863	 0.8231732404	-0.077878
C	-2.8768858479	-2.5991918847	 0.0302067858	-0.298009
H	-0.2257225447	 1.7154367721	-0.8693343456	 0.279178
H	 0.6774591827	-0.4184126288	-0.7732320067	 0.109686
H	 0.5786880048	-0.2392436646	 0.981400657	 0.107025
H	-1.9061907884	-0.0942810313	 0.8395151614	 0.100692
H	-1.8260846853	-0.1947897936	-0.9207239987	 0.090139
H	-0.7362123854	-3.4915763537	-1.0460541909	 0.278894
H	 0.2444176497	-2.8889953843	 1.2322960953	 0.110168
H	-0.9216042376	-2.0190176202	 2.2271259203	 0.110218
H	-1.3869059582	-4.7317553891	 2.2224402932	 0.0946
H	-3.5591186132	-4.6386367358	 0.8144989867	 0.094401
H	-3.5863923661	-1.9023978086	 0.4979132879	 0.106349
H	-3.1989541737	-2.7345316437	-1.007874271	 0.108311
78.9642	98.5551	117.6774	163.8418	290.0529	321.1109	339.9246	364.5362	376.1252	396.2813	421.7845	478.172	682.9475	705.516	778.9345	789.3262	798.6175	909.6492	922.3038	950.371	975.0676	978.5709	997.4964	1012.2878	1073.7373	1076.6283	1100.1932	1112.3338	1131.7676	1157.8625	1191.9762	1250.5659	1282.631	1296.4252	1308.2295	1333.1294	1367.2208	1393.2804	1407.7692	1423.9324	1470.0465	1473.27	1480.5009	1517.0194	1675.8101	3010.7313	3011.5154	3017.9878	3024.794	3063.9646	3068.4157	3070.9986	3087.4518	3182.0039	3207.0041	3793.5231	3815.0228
OCCC1(O)CC=CC1	OCC[C@@]1(O)CC=CC1	
InChI=1S/C7H12O2/c8-6-5-7(9)3-1-2-4-7/h1-2,8-9H,3-6H2	InChI=1S/C7H12O2/c8-6-5-7(9)3-1-2-4-7/h1-2,8-9H,3-6H2
