14
gdb 24813	2.99272	1.50959	1.00344	8.7552	80.33	-0.2174	-0.0479	0.1694	1089.9258	0.10438	-395.780866	-395.773553	-395.772609	-395.812751	27.758	
N	-0.0819310886	 1.3203501803	-0.2467237874	-0.534348
C	 0.0090680176	 0.0545817116	-0.0439688751	 0.224525
C	 1.2355351236	-0.7201644464	 0.1568236235	-0.187672
C	 1.2247674391	-2.0511656473	 0.3630741578	 0.013822
N	 0.0402584384	-2.7560054205	 0.3950889321	-0.341766
C	-1.1498891689	-2.1158062276	 0.2175778795	-0.033645
C	-1.2130108011	-0.7730471128	 0.0046596277	 0.06051
C	-2.4927225631	-0.1708645275	-0.1728065054	 0.247066
N	-3.551174377	 0.2776352142	-0.3118835953	-0.340452
H	 0.8458342888	 1.748132018	-0.2524626415	 0.206085
H	 2.1840588851	-0.1956209136	 0.1373880763	 0.111898
H	 2.12207065	-2.6383012881	 0.5131405519	 0.141064
H	 0.05132048	-3.7493431875	 0.5502465852	 0.275697
H	-2.0379935139	-2.7333187727	 0.2554126207	 0.157217
99.3323	155.1594	204.9094	375.9476	403.9298	414.3858	458.353	500.7565	565.9508	576.8921	596.7184	721.9719	747.1552	813.5107	876.622	881.3153	918.6675	953.7245	1024.9936	1088.3144	1188.2654	1202.4553	1264.4577	1321.4097	1409.3586	1429.4141	1530.1071	1632.3401	1643.8977	1711.9742	2342.5723	3195.4966	3219.2467	3223.7966	3451.9397	3672.3664
N=C1C=CNC=C1C#N	[NH]C1=CCNC=C1C#N	
InChI=1S/C6H5N3/c7-3-5-4-9-2-1-6(5)8/h1-2,4H,(H2,8,9)	InChI=1S/C6H6N3/c7-3-5-4-9-2-1-6(5)8/h1,4,8-9H,2H2
