22
gdb 98411	2.19546	1.22671	1.02265	2.3862	83.06	-0.2327	-0.0113	0.2214	1339.0651	0.191258	-404.356813	-404.346094	-404.345149	-404.392842	38.757	
C	-0.2308170523	 1.5705149971	-0.2758089079	-0.380293
C	-0.3228887153	 0.0933498091	-0.6470052666	-0.276141
C	 1.0273288832	-0.5367323685	-0.9383682722	 0.326715
O	 2.068671584	 0.0638924911	-0.7797202929	-0.32144
C	 1.0667539514	-1.987871278	-1.3884669827	 0.207813
C	 2.0925227771	-2.8177687315	-0.6397741416	-0.467851
N	-0.2227948438	-2.5861748931	-1.7781598429	-0.374098
C	 0.7838488742	-2.3324996344	-2.8198283574	-0.009956
C	 0.4577346382	-1.3418520418	-3.91147607	-0.408548
H	 0.4221106452	 1.7174697764	 0.588097337	 0.130022
H	 0.1881340691	 2.1565999319	-1.0986368307	 0.12517
H	-1.2203120204	 1.9707011001	-0.0374368962	 0.107172
H	-0.7739394531	-0.4987236698	 0.1628819221	 0.124963
H	-0.9923556483	-0.0824303015	-1.4950002952	 0.137415
H	 1.8137334542	-2.9300551749	 0.414357862	 0.122007
H	 2.1805609072	-3.8172582931	-1.0772947728	 0.109034
H	 3.0678940866	-2.3273967763	-0.6761395823	 0.15273
H	-0.2444453895	-3.5712286577	-1.526041601	 0.229473
H	 1.3419662256	-3.199832499	-3.1736388977	 0.086066
H	-0.1002678136	-0.4830990285	-3.5334992561	 0.128046
H	 1.3761560223	-0.973755852	-4.3803917926	 0.128453
H	-0.1502882118	-1.8194372656	-4.6872676224	 0.123247
48.749	66.3016	156.536	163.0598	189.8839	205.5985	206.6163	242.2914	297.3001	307.3824	385.6942	465.2313	492.7621	526.0299	584.8245	716.0356	774.1021	808.848	828.0665	908.7562	973.6423	993.8462	1023.4974	1032.5743	1045.5507	1085.2349	1100.5974	1117.9538	1131.0858	1147.198	1241.1686	1260.7866	1300.0222	1342.1696	1387.5633	1402.7477	1410.8022	1414.3395	1437.8674	1454.7179	1483.569	1486.7097	1492.9841	1496.6624	1499.2382	1504.6223	1787.9657	3020.5944	3031.9464	3040.3174	3049.1389	3080.1969	3094.2843	3099.3685	3101.0825	3117.7392	3126.2816	3130.6712	3135.5322	3496.0205
CCC(=O)C1(C)NC1C	CCC(=O)[C@@]1(C)N[C@H]1C	
InChI=1S/C7H13NO/c1-4-6(9)7(3)5(2)8-7/h5,8H,4H2,1-3H3	InChI=1S/C7H13NO/c1-4-6(9)7(3)5(2)8-7/h5,8H,4H2,1-3H3/t5-,7-/m0/s1
