14
gdb 33490	2.27347	1.7364	1.18309	3.5431	69.99	-0.282	-0.0228	0.2592	1018.0264	0.101488	-395.691925	-395.684302	-395.683357	-395.724217	28.1	
N	 0.0694740918	-1.1692490126	-0.0109820639	-0.323127
C	 0.0227646174	-0.0151436969	-0.0333557371	 0.270103
C	 0.0024450499	 1.4468582921	 0.0076745999	-0.022816
C	-0.1789206178	 2.1281632129	 1.4262621598	-0.198038
N	 1.1299216516	 2.8414784014	 1.3253865044	-0.109899
C	 2.1559109237	 1.7899634091	 1.2084898314	-0.251401
C	 1.3833889199	 2.1484630176	 0.0071370213	-0.048826
C	-0.9177035454	 1.9844984531	-0.9906309254	 0.26209
N	-1.6366319096	 2.4383918733	-1.7722066094	-0.313857
H	-1.0090786962	 2.8331533404	 1.4327368077	 0.160708
H	-0.2598739579	 1.4342719579	 2.2664490481	 0.143313
H	 3.1667672092	 2.1785613528	 1.2706759092	 0.148293
H	 2.0001377423	 0.8297077195	 1.6947406416	 0.144717
H	 1.7869105409	 2.6544491895	-0.8618050876	 0.138738
125.512	132.9672	163.357	188.404	320.8088	438.3454	489.0959	501.6762	551.5596	576.7813	594.1625	755.9472	792.7462	843.2145	927.8924	941.2966	981.872	1032.8441	1067.9609	1099.666	1119.5186	1132.0979	1185.708	1223.2414	1240.9095	1292.4834	1351.1891	1488.1239	1505.9319	2359.6841	2367.6179	3077.1252	3115.9379	3156.0124	3191.4492	3214.976
N#CC1(CN2CC12)C#N	N#CC1(CN2C[C@@H]12)C#N	
InChI=1S/C6H5N3/c7-2-6(3-8)4-9-1-5(6)9/h5H,1,4H2	InChI=1S/C6H5N3/c7-2-6(3-8)4-9-1-5(6)9/h5H,1,4H2/t5-,9?/m0/s1
