21
gdb 88782	2.97072	1.07291	0.86347	2.7201	84.08	-0.2316	-0.0149	0.2168	1395.5017	0.181371	-387.089774	-387.080451	-387.079507	-387.124833	34.57	
C	 0.3097350819	 1.5388491961	-0.4799590016	-0.406812
C	 0.018331937	 0.0959268623	-0.1298953732	-0.005613
C	 1.1257969779	-0.9214409426	-0.0202272104	-0.295377
C	 0.3597733611	-0.5132668569	 1.2173836202	 0.000054
C	 1.0276509994	 0.2571346979	 2.3226412836	-0.100392
C	 0.1712744014	 0.982168706	 3.4154498836	-0.255948
C	 1.0813068234	 0.4010633144	 4.5379100985	-0.33858
C	 1.6774369607	-0.5413811278	 3.4773712345	 0.385206
O	 2.2944835235	-1.5649225997	 3.5280624444	-0.295056
H	 1.2654550494	 1.8761729145	-0.0678911427	 0.114057
H	 0.3638593561	 1.6685574072	-1.5664706791	 0.119315
H	-0.4709398494	 2.2099417594	-0.104008937	 0.116547
H	-0.9092918483	-0.2744195058	-0.5595006023	 0.084103
H	 0.9753358674	-1.9186578214	-0.4181324305	 0.11352
H	 2.145841608	-0.5604837222	-0.1120084647	 0.111464
H	-0.3561269726	-1.2460604495	 1.5830586239	 0.081055
H	 1.782499491	 0.944300933	 1.921199487	 0.095141
H	 0.1202786516	 2.0691594777	 3.3430434328	 0.107209
H	-0.8451495661	 0.5834053523	 3.4611051787	 0.112437
H	 1.8270890164	 1.1128276235	 4.9073029042	 0.129907
H	 0.6074600602	-0.0804013284	 5.39667121	 0.127761
37.9913	89.1112	107.7057	173.9694	186.5203	241.4662	339.7743	387.4447	436.7062	471.6963	571.3006	674.8396	713.9884	758.836	786.6303	852.5607	868.938	901.9257	927.4137	943.5976	1004.7611	1006.7101	1023.0757	1063.0539	1068.5563	1087.8591	1111.2018	1146.8883	1181.6598	1196.0193	1199.8354	1225.1017	1232.3807	1252.4575	1256.2767	1290.8614	1392.5265	1419.6067	1429.7491	1445.0363	1491.6702	1492.7467	1493.2909	1504.873	1888.1165	3028.2897	3038.5352	3057.5082	3073.6532	3087.1271	3100.5028	3113.1388	3123.913	3128.7646	3133.5534	3138.1309	3212.9249
CC1CC1C1CCC1=O	C[C@H]1C[C@H]1[C@H]1CCC1=O	
InChI=1S/C8H12O/c1-5-4-7(5)6-2-3-8(6)9/h5-7H,2-4H2,1H3	InChI=1S/C8H12O/c1-5-4-7(5)6-2-3-8(6)9/h5-7H,2-4H2,1H3/t5-,6+,7+/m0/s1
