21
gdb 100798	3.99612	0.72151	0.69889	1.8051	80.76	-0.2558	0.0478	0.3036	1664.6925	0.179374	-424.18888	-424.178048	-424.177104	-424.225	39.622	
C	-0.0747961554	 1.6339955648	-0.0350660258	-0.421263
C	-0.0406319713	 0.1003080516	 0.033677897	 0.006209
C	 0.6511846304	-0.501968952	-1.2165858998	-0.362479
C	 0.001363042	-0.1532635862	-2.4732283573	 0.296624
C	-0.5537705223	 0.1385444	-3.4992077919	-0.441421
C	 0.6406309732	-0.4479055437	 1.3014111032	 0.096008
O	 2.0145646221	-0.0504810458	 1.4103910752	-0.447852
C	-0.0746032372	-0.1227938493	 2.6154700879	-0.083125
O	 0.6003482719	-0.7155023041	 3.7052709708	-0.423369
H	 0.9363477259	 2.0603697184	-0.0364735921	 0.107569
H	-0.5544994865	 1.956908365	-0.9621002909	 0.143353
H	-0.6282306243	 2.0708540858	 0.8003701424	 0.122987
H	-1.0756889723	-0.2650715837	 0.0476495355	 0.091497
H	 1.6979769807	-0.174926153	-1.2305006756	 0.139249
H	 0.6786644785	-1.5946509068	-1.1177485375	 0.129625
H	-1.0331776911	 0.3879397383	-4.413151569	 0.194263
H	 0.6904165834	-1.5411037961	 1.2264232172	 0.095677
H	 2.0396617462	 0.9131153226	 1.4441071438	 0.285449
H	-0.1494741604	 0.9713220403	 2.7434268049	 0.07774
H	-1.0951807127	-0.5213328849	 2.6027223324	 0.108225
H	 1.5405405291	-0.5854605512	 3.5250705498	 0.285036
59.1023	65.6841	114.0622	134.3598	205.3402	228.7681	273.1945	300.6098	321.6895	349.3037	353.4706	394.2749	492.7421	519.0471	526.4949	615.9305	639.8318	661.02	827.7745	863.1953	889.7209	947.9223	974.4963	1009.728	1056.7754	1081.9764	1106.6454	1122.0777	1138.5815	1204.3267	1245.3201	1272.8093	1292.7222	1320.3683	1360.7915	1370.634	1391.8602	1413.1586	1429.0965	1443.2768	1471.673	1496.0618	1508.5869	1511.3728	2235.7847	2951.7429	3023.1999	3024.3927	3030.5484	3042.5158	3062.9704	3068.8108	3099.8909	3126.6352	3506.2466	3765.4481	3791.9175
CC(CC#C)C(O)CO	C[C@@H](CC#C)[C@@H](O)CO	
InChI=1S/C7H12O2/c1-3-4-6(2)7(9)5-8/h1,6-9H,4-5H2,2H3	InChI=1S/C7H12O2/c1-3-4-6(2)7(9)5-8/h1,6-9H,4-5H2,2H3/t6-,7-/m0/s1
