20
gdb 13262	5.82645	0.85511	0.77906	0.1819	84.1	-0.2389	0.062	0.3009	1511.8672	0.176301	-311.841017	-311.831754	-311.830809	-311.876964	32.475	
C	-0.0246231498	 1.4653883644	-0.1275975304	-0.496409
C	 0.0027049993	 0.0142205446	-0.0076556422	 0.075172
C	 0.0378225715	-1.18552973	 0.0925227579	 0.054706
C	 0.0390877383	-2.6412754624	 0.2045384073	-0.378677
C	-1.3584705673	-3.255473955	 0.0716852535	 0.071277
C	-2.0871419388	-3.1856198555	-1.2987057109	-0.210738
C	-2.5998553272	-4.6309273684	-1.0534642277	-0.210484
C	-1.4846662027	-4.803588779	 0.0133351729	-0.237271
H	 0.9730490446	 1.8961670556	 0.0138378911	 0.145285
H	-0.3812229419	 1.7784289586	-1.11537057	 0.144595
H	-0.686820498	 1.9166434839	 0.6198722241	 0.144328
H	 0.6918976563	-3.0705228196	-0.5686807124	 0.116431
H	 0.4765193551	-2.9396170329	 1.1676260308	 0.120895
H	-2.0046697807	-2.8521003183	 0.8584459377	 0.077913
H	-2.8247836071	-2.39359822	-1.4440077074	 0.098231
H	-1.3698800733	-3.1461232163	-2.1254039622	 0.098118
H	-3.5958652802	-4.6366097458	-0.6013653147	 0.101279
H	-2.6017881766	-5.3204227223	-1.9008213547	 0.094995
H	-0.5847530595	-5.2578475391	-0.4156504951	 0.095935
H	-1.731660462	-5.3319205924	 0.9376718425	 0.094421
19.5212	51.5832	80.8422	143.3652	210.3737	248.2052	325.0719	385.1969	386.287	469.8583	639.1714	749.5721	768.4473	795.5335	873.154	900.4941	932.6137	962.0341	972.3967	1049.5192	1053.7231	1053.9626	1106.0404	1131.3609	1165.6137	1198.1107	1216.0411	1255.926	1258.341	1267.1292	1273.9483	1297.1131	1333.3487	1376.8891	1415.7485	1470.6854	1478.6623	1479.605	1480.1866	1486.0386	1510.7447	2371.5225	3000.8309	3024.3462	3027.2	3043.7062	3047.8691	3055.9267	3057.7716	3083.553	3083.6613	3095.9486	3104.229	3118.1672
CC#CCC1CCC1	CC#CCC1CCC1	
InChI=1S/C8H12/c1-2-3-5-8-6-4-7-8/h8H,4-7H2,1H3	InChI=1S/C8H12/c1-2-3-5-8-6-4-7-8/h8H,4-7H2,1H3
