20
gdb 84104	2.54289	1.47181	1.13866	2.766	80.78	-0.2272	0.0106	0.2378	1163.2414	0.170865	-403.140646	-403.131777	-403.130833	-403.173632	34.443	
C	 0.0130706326	 1.5174159553	 0.0802083938	-0.49895
C	-0.0426749602	 0.0269057795	-0.0215025933	 0.368595
C	-0.0932739486	-0.7289866879	-1.1228485736	-0.23511
C	-0.0795389517	-2.2189749125	-0.8236948649	 0.057703
O	 1.0289390832	-2.898421241	-1.3915013598	-0.439664
C	-0.0582080656	-2.2623816821	 0.7182633117	 0.309129
C	-0.7247615994	-3.3997327019	 1.4404550338	-0.50485
N	 1.23795919	-1.7229400076	 1.1997499885	-0.384326
C	 0.0078881769	-0.8622792164	 1.1876496056	-0.200818
H	 0.937972498	 1.8417364352	 0.5737524555	 0.134043
H	-0.0333514888	 1.9895379438	-0.9045169871	 0.127349
H	-0.8168349251	 1.9072265108	 0.6833021974	 0.124266
H	-0.0683349115	-0.3583661703	-2.1419471233	 0.094459
H	-0.9668906878	-2.7278184464	-1.220101032	 0.080559
H	 1.7941116527	-2.562765423	-0.9026222276	 0.284143
H	-0.2613574758	-4.3531907222	 1.1623186044	 0.136542
H	-0.647128066	-3.2861889511	 2.5272697727	 0.11016
H	-1.7881132267	-3.45967636	 1.1840459893	 0.126864
H	 1.3924914485	-2.0634735035	 2.14856755	 0.224471
H	-0.4037066848	-0.5437725485	 2.1407726692	 0.085435
134.5319	145.3503	185.3027	204.2537	245.7552	252.2399	316.6211	381.3146	460.7242	507.9572	515.9169	591.8479	602.5062	650.0126	766.5843	836.0856	868.4013	871.5971	902.9922	972.3749	987.94	1020.4046	1033.5231	1059.082	1066.174	1071.0743	1121.3057	1158.3867	1187.067	1252.6878	1269.8576	1294.7329	1337.1764	1358.6723	1411.042	1412.8872	1437.9169	1455.0161	1479.3164	1483.2529	1487.8027	1500.8397	1709.0194	3018.2747	3023.7252	3034.2108	3065.0714	3091.4831	3094.6237	3114.0822	3157.5433	3192.4049	3463.5845	3738.366
CC1=CC(O)C2(C)NC12	CC1=C[C@@H](O)[C@@]2(C)N[C@@H]12	
InChI=1S/C7H11NO/c1-4-3-5(9)7(2)6(4)8-7/h3,5-6,8-9H,1-2H3	InChI=1S/C7H11NO/c1-4-3-5(9)7(2)6(4)8-7/h3,5-6,8-9H,1-2H3/t5-,6+,7-/m1/s1
