19
gdb 85662	2.41833	1.32298	0.97268	4.6145	82.88	-0.2357	0.0039	0.2396	1265.8285	0.159113	-382.094581	-382.085342	-382.084398	-382.128734	34.076	
C	 0.1818070811	 1.5533535521	-0.1453165194	-0.373513
C	 0.0508860232	 0.0343878536	 0.0121637418	-0.001311
N	 0.6799025038	-0.6838465269	-1.1147311821	-0.312946
C	 1.4329396168	-1.8331121172	-0.6136789155	-0.218837
C	 2.7445952964	-1.9611308806	-1.2858267275	 0.296796
N	 3.772067683	-2.0876320739	-1.7994351518	-0.335856
C	 1.5656693126	-1.5572247226	 0.8809854986	 0.335181
C	 2.4390209528	-2.3934739212	 1.756784266	-0.49834
C	 0.7808320864	-0.53203636	 1.200028032	-0.18284
H	 1.2355482195	 1.8370210009	-0.2110622424	 0.128635
H	-0.3206930569	 1.8887422268	-1.0578279052	 0.115786
H	-0.2759408864	 2.0734812447	 0.703206888	 0.109258
H	-1.0241978407	-0.2082163666	 0.0944695847	 0.07492
H	 0.0284706232	-0.9341451815	-1.8451941127	 0.228574
H	 0.918573342	-2.79976216	-0.7650968527	 0.112413
H	 3.4805405567	-2.3664504301	 1.4163478129	 0.155738
H	 2.4041754984	-2.0483493326	 2.7927050699	 0.131006
H	 2.1292154076	-3.4461453671	 1.7369087336	 0.131607
H	 0.6551661606	-0.1314536076	 2.1993016919	 0.103728
58.1545	136.3343	140.3475	183.2099	231.1875	250.4651	287.4546	359.5261	405.6787	473.4296	503.6632	556.3155	606.4977	632.9735	773.1301	827.4408	874.6576	902.1077	951.0632	990.9254	1018.9127	1030.9845	1065.4764	1086.5566	1109.3913	1145.2339	1196.1379	1251.2609	1302.3053	1326.2846	1353.3774	1374.9832	1403.1776	1418.2193	1440.2792	1477.0949	1488.516	1493.0587	1495.3723	1737.3671	2353.8883	2926.3606	2927.2055	3024.5794	3035.159	3076.5326	3104.6481	3122.772	3123.6212	3203.0257	3586.0968
CC1NC(C#N)C(C)=C1	C[C@H]1N[C@@H](C#N)C(=C1)C	
InChI=1S/C7H10N2/c1-5-3-6(2)9-7(5)4-8/h3,6-7,9H,1-2H3	InChI=1S/C7H10N2/c1-5-3-6(2)9-7(5)4-8/h3,6-7,9H,1-2H3/t6-,7+/m1/s1
