21
gdb 74793	2.57408	1.64724	1.48061	1.1352	82.96	-0.2223	0.0254	0.2477	1030.8607	0.185578	-387.10724	-387.099636	-387.098692	-387.138857	31.047	
C	-0.0439405963	 1.5024667541	 0.0503024324	-0.50874
C	-0.065481564	 0.0107372378	-0.015490406	 0.365807
C	-0.0844467324	-0.7767199054	-1.0947723875	-0.175577
C	 0.0256387218	-2.2357488926	-0.6741977533	-0.07262
C	-0.6210134203	-2.172779875	 0.7260503814	-0.221088
C	 0.0461762925	-0.876807701	 1.2267584632	-0.126442
C	 1.535473077	-1.2084266592	 1.486948604	-0.072314
O	 2.2048955233	-1.6329327382	 0.3080326507	-0.248289
C	 1.5144756701	-2.6052104801	-0.4659686246	-0.068657
H	 0.8755515878	 1.8653800099	 0.5279349435	 0.128884
H	-0.1031938852	 1.9506453099	-0.9454324341	 0.123672
H	-0.8781731738	 1.8888770771	 0.6501616979	 0.121887
H	-0.0750106149	-0.4408966627	-2.1257710353	 0.084663
H	-0.4415089645	-2.9517116454	-1.3569620793	 0.060718
H	-1.7063877665	-2.0588886639	 0.6556283923	 0.093683
H	-0.3971583108	-3.0458953947	 1.3492644991	 0.084223
H	-0.4020292297	-0.4524797665	 2.1311477071	 0.0578
H	 2.0898420634	-0.3304697205	 1.8345899508	 0.103448
H	 1.6001137377	-1.9808680381	 2.2723896963	 0.08337
H	 1.5788826186	-3.5981461757	 0.0112704334	 0.081873
H	 2.0524960762	-2.6527682098	-1.4180144221	 0.1037
142.9626	185.1523	240.8521	262.7929	335.7158	392.132	439.0908	447.316	581.9918	590.6858	675.1609	798.0299	822.5336	839.4413	848.1761	888.0266	920.3257	945.6927	962.3583	981.3113	1020.559	1036.7105	1049.602	1069.6175	1094.591	1118.2044	1151.8678	1198.7859	1230.0303	1258.6902	1265.4806	1274.8013	1310.1978	1325.2478	1333.8084	1342.7455	1386.9477	1412.2671	1416.266	1478.858	1486.9746	1495.1244	1497.5041	1513.6221	1708.7677	2954.7797	2960.9909	3013.4988	3038.916	3055.9392	3058.0703	3064.1509	3069.7089	3075.0309	3092.4263	3107.8054	3190.8413
CC1=CC2CC1COC2	CC1=C[C@@H]2C[C@H]1COC2	
InChI=1S/C8H12O/c1-6-2-7-3-8(6)5-9-4-7/h2,7-8H,3-5H2,1H3	InChI=1S/C8H12O/c1-6-2-7-3-8(6)5-9-4-7/h2,7-8H,3-5H2,1H3/t7-,8+/m1/s1
