16
gdb 69889	2.74619	1.72379	1.22419	0.4679	76.17	-0.2173	0.0112	0.2286	1006.1574	0.122293	-400.61667	-400.608762	-400.607818	-400.64862	31.642	
O	-0.1608512129	 1.3622115194	-0.0441326531	-0.446308
C	-0.0357285193	-0.0033852276	-0.0048800953	 0.366063
C	-0.846592369	-0.8377766042	 0.9191218986	-0.35003
C	 0.6684322276	-0.9680865549	 0.9245140559	-0.097957
N	 1.3136890339	-1.7221616467	-0.2255060557	-0.164217
C	 0.3000214693	-2.2713547953	-1.136075763	-0.27814
C	 0.5713064615	-0.8099182358	-1.1930569116	 0.017589
C	 1.2208090165	-0.1303722466	-2.2625545404	 0.232819
C	 1.7366456541	 0.5121540976	-3.1408339819	-0.39535
H	 0.6282315144	 1.7219909523	-0.4695734232	 0.292967
H	-1.1895882147	-0.2680433413	 1.7785465134	 0.132239
H	-1.5425558833	-1.6106614154	 0.6094746006	 0.116417
H	 1.26624614	-0.8394984405	 1.8167401006	 0.112947
H	 0.7417658045	-2.8720552701	-1.9263025298	 0.136111
H	-0.6448733828	-2.6493573332	-0.7631694106	 0.12683
H	 2.1987370202	 1.0538571023	-3.9288130447	 0.198021
120.4447	130.4231	254.2226	301.6635	371.456	413.7915	457.0504	482.2969	517.8189	527.8352	587.1211	595.434	649.1608	667.8866	721.1614	770.8631	839.4243	908.0432	927.5304	963.1567	972.7207	1013.0324	1058.9874	1078.4384	1115.846	1137.0973	1152.4105	1221.938	1250.4977	1321.6645	1335.218	1428.4829	1493.0109	1527.3308	2224.2818	3119.815	3131.6113	3199.0751	3205.8431	3215.6962	3500.2744	3770.2097
OC12CC1N1CC21C#C	O[C@]12C[C@H]1N1C[C@@]21C#C	
InChI=1S/C7H7NO/c1-2-6-4-8(6)5-3-7(5,6)9/h1,5,9H,3-4H2	InChI=1S/C7H7NO/c1-2-6-4-8(6)5-3-7(5,6)9/h1,5,9H,3-4H2/t5-,6+,7-,8?/m1/s1
