23
gdb 59051	3.02303	1.00965	0.91828	1.6172	88.08	-0.2314	0.0274	0.2587	1418.3508	0.206588	-388.315716	-388.306177	-388.305233	-388.350036	36.573	
C	 0.0889425159	 1.5228908269	-0.109310405	-0.406293
C	 0.0244615435	-0.0018849891	 0.0438977055	 0.022873
O	 0.7159039529	-0.425173784	 1.2225750114	-0.431857
C	-1.3944430189	-0.5403898536	 0.0035007803	 0.347812
C	-1.8616771625	-1.1744241752	-1.0743922885	-0.160865
C	-3.2517851871	-1.741704943	-1.2011853853	-0.242361
C	-3.9670375646	-1.8318315559	 0.1541770498	-0.193917
C	-3.7408595757	-0.5557217054	 0.9716179515	-0.202977
C	-2.2452526027	-0.3384668476	 1.2404560958	-0.30797
H	 1.1293891001	 1.8579778316	-0.064081646	 0.122057
H	-0.3424293232	 1.8369646138	-1.0643631514	 0.121277
H	-0.4665660578	 2.0290651858	 0.6894250278	 0.108636
H	 0.5858293333	-0.4554253968	-0.7801678051	 0.086669
H	 0.3799996432	 0.0924107154	 1.9618714863	 0.278859
H	-1.2069140253	-1.2990671043	-1.9361239249	 0.072593
H	-3.8374925653	-1.1206535838	-1.8964213849	 0.103996
H	-3.2034582709	-2.7324013532	-1.6708963193	 0.101243
H	-5.0369840178	-2.0144983731	 0.0078837915	 0.089794
H	-3.5732048345	-2.6899667019	 0.713986856	 0.099738
H	-4.13734789	 0.3042406206	 0.415931231	 0.096463
H	-4.2900232187	-0.5989777004	 1.9184593435	 0.090021
H	-1.9007122655	-1.0299678547	 2.0226222494	 0.114552
H	-2.0877492084	 0.6692207181	 1.6487533205	 0.089656
61.5304	96.5887	188.6591	217.8422	246.1351	262.5323	268.4638	320.6102	354.4302	448.6755	468.0584	542.2115	560.2842	645.0084	759.7739	820.8247	851.6663	862.6196	899.0577	923.5497	944.0508	964.709	1018.2507	1046.6455	1067.0517	1091.6836	1092.5893	1105.3272	1158.3085	1184.8665	1200.6092	1266.4218	1285.9436	1296.1594	1322.3148	1352.2646	1367.5183	1371.8509	1382.6843	1396.6583	1402.6951	1419.4644	1474.5886	1481.708	1489.9046	1490.8167	1494.5516	1502.4438	1734.8211	2990.3802	3002.7744	3015.446	3021.3464	3027.4857	3034.6076	3039.1381	3050.0626	3067.3474	3072.5121	3098.5717	3117.6576	3128.3093	3810.637
CC(O)C1=CCCCC1	C[C@@H](O)C1=CCCCC1	
InChI=1S/C8H14O/c1-7(9)8-5-3-2-4-6-8/h5,7,9H,2-4,6H2,1H3	InChI=1S/C8H14O/c1-7(9)8-5-3-2-4-6-8/h5,7,9H,2-4,6H2,1H3/t7-/m1/s1
