16
gdb 55329	2.09717	1.6297	1.16054	1.9076	70.54	-0.2449	0.0033	0.2482	1081.8311	0.123355	-437.854747	-437.84603	-437.845086	-437.88853	32.161	
N	 0.4708483332	 0.5161471736	-0.6613520649	-0.517363
C	-0.3439779417	 0.3228487654	 0.4205961557	 0.396415
O	-0.2505870856	 0.9665128474	 1.4460507845	-0.363219
C	-1.4286138874	-0.7347369046	 0.2354360755	-0.160871
C	-2.0944283347	-0.7631858434	-1.1582266034	-0.102765
O	-1.2584311251	-1.8728000671	-1.57392286	-0.289429
C	-0.9286905385	-2.1564558326	-0.1858154445	-0.071496
C	 0.4439898039	-2.5656269546	 0.0312057057	 0.328397
C	 1.5750465861	-2.9225977481	 0.2248843268	-0.428949
H	 1.282754957	 1.0949699822	-0.5141533156	 0.260881
H	 0.5169750111	-0.179934886	-1.3898294142	 0.26962
H	-2.0768063547	-0.6998476519	 1.1085761148	 0.10982
H	-3.1540125325	-1.0470671037	-1.1317772282	 0.113045
H	-1.9595948078	 0.1126481218	-1.7970420612	 0.12899
H	-1.6052276125	-2.9281495826	 0.2091738517	 0.117703
H	 2.5750437192	-3.236125196	 0.3998787772	 0.209219
63.0044	97.3	131.2006	194.3003	263.9065	303.3132	404.3463	454.158	490.0537	532.8051	554.5848	590.6487	632.4819	687.2812	739.4632	776.007	831.2069	896.5987	964.5934	985.6516	1008.8605	1055.4406	1099.7194	1127.5082	1173.5752	1210.2678	1249.3156	1321.1818	1326.991	1355.7568	1385.6236	1523.7951	1623.5812	1805.3451	2237.5355	2997.7758	3024.7259	3105.994	3142.9824	3500.102	3573.3887	3704.3827
NC(=O)C1COC1C#C	NC(=O)[C@H]1CO[C@H]1C#C	
InChI=1S/C6H7NO2/c1-2-5-4(3-9-5)6(7)8/h1,4-5H,3H2,(H2,7,8)	InChI=1S/C6H7NO2/c1-2-5-4(3-9-5)6(7)8/h1,4-5H,3H2,(H2,7,8)/t4-,5-/m0/s1
