18
gdb 5325	4.53829	1.55546	1.19755	1.4141	75.43	-0.1681	0.0554	0.2235	1012.9599	0.154907	-344.002867	-343.994683	-343.993738	-344.035572	30.586	
C	-0.2255315586	 1.3967858185	 0.0445479974	-0.328274
N	 0.3037533503	 0.043705924	 0.0059285932	-0.151889
C	 0.029499955	-0.7280509006	 1.2000269009	-0.321089
C	 0.1360562593	-0.6506031006	-1.2030089945	 0.332168
C	-0.1349301104	-1.9997089532	-1.3536607828	-0.192835
N	-0.1494042501	-2.2748001465	-2.7062468898	-0.250331
C	 0.0874006682	-1.1324397457	-3.4144198101	-0.063542
C	 0.2691373683	-0.1046567409	-2.5191054186	-0.261792
H	 0.1667976229	 1.9821367902	-0.7897601605	 0.126814
H	-1.3286500052	 1.4356135286	-0.0003575113	 0.099347
H	 0.0966841935	 1.882398303	 0.9708678116	 0.113673
H	-1.0257608768	-1.0491591034	 1.2819543809	 0.094974
H	 0.6572457711	-1.6248059525	 1.2131991931	 0.123102
H	 0.2734620797	-0.1310137075	 2.0832632599	 0.113387
H	-0.3130468297	-2.7749760482	-0.6292198628	 0.107741
H	-0.3192702975	-3.1802305997	-3.1042488584	 0.256997
H	 0.1116501551	-1.1367668095	-4.4922825285	 0.113603
H	 0.4854905549	 0.9191165343	-2.7784522795	 0.087948
44.8568	160.0787	200.4238	223.1565	269.6756	363.5011	391.7208	402.6755	482.6192	607.8989	614.1541	629.2481	683.4198	741.3994	798.4217	900.4845	919.0827	999.3956	1077.0576	1090.1689	1099.2262	1125.489	1170.7498	1175.3854	1223.6536	1235.6771	1308.2852	1360.7373	1412.0934	1444.1532	1471.7453	1482.1029	1484.9225	1492.5287	1498.7118	1516.2155	1535.3687	1620.6836	2930.5102	2946.9976	3060.0058	3071.4051	3106.6514	3120.0279	3251.4371	3271.0196	3282.4115	3698.6697
CN(C)C1=CNC=C1	CN(C)c1c[nH]cc1	
InChI=1S/C6H10N2/c1-8(2)6-3-4-7-5-6/h3-5,7H,1-2H3	InChI=1S/C6H10N2/c1-8(2)6-3-4-7-5-6/h3-5,7H,1-2H3
