17
gdb 124790	4.22149	1.01475	0.9224	3.3646	71.13	-0.2707	-0.0277	0.243	1303.5955	0.13589	-451.317034	-451.307954	-451.30701	-451.352048	31.695	
C	 0.0997487395	 1.5086264319	 0.1205899733	-0.397844
C	-0.0529415316	-0.0153695519	 0.0110800217	 0.041509
O	-1.4145932727	-0.4025505353	-0.0421312895	-0.429589
C	 0.6847981564	-0.5481053135	-1.1859400335	 0.390052
N	 1.952014643	-0.9447869967	-1.2106151536	-0.316743
N	 2.1005492547	-1.28090775	-2.4887408102	 0.151097
C	 3.3364955337	-1.8033673642	-3.0369995197	-0.318945
N	 1.008135667	-1.114025549	-3.2193945968	-0.12392
N	 0.0980771197	-0.6443983521	-2.4029791178	-0.280871
H	 1.1506577327	 1.7903081822	 0.2407125177	 0.122931
H	-0.2888851848	 1.9958509452	-0.7795508909	 0.124134
H	-0.4655134487	 1.8680630954	 0.9841757745	 0.128533
H	 0.3675832465	-0.4825459972	 0.9077356976	 0.109366
H	-1.7038285991	-0.3055971062	-0.9579733723	 0.297635
H	 3.6010959843	-2.7335703469	-2.5300327538	 0.164763
H	 3.1693760087	-1.9859269034	-4.0975869275	 0.174444
H	 4.1376741905	-1.0744650386	-2.899535239	 0.163447
26.9679	95.6422	124.3129	176.0758	228.8342	256.222	306.0965	339.2294	383.4471	456.1094	510.4417	685.1214	700.1076	751.7848	792.4095	909.5	1031.1834	1043.5319	1049.1292	1085.3186	1099.4088	1132.9357	1152.0801	1238.8645	1285.5022	1316.5991	1349.1185	1396.3634	1410.0129	1417.0693	1432.9288	1450.0531	1476.4225	1486.8609	1490.4428	1506.1584	1546.7782	3037.4009	3061.1643	3067.3058	3113.4632	3126.6129	3141.0443	3179.4305	3783.2896
CC(O)C1=NN(C)N=N1	C[C@@H](O)c1nn(C)nn1	
InChI=1S/C4H8N4O/c1-3(9)4-5-7-8(2)6-4/h3,9H,1-2H3	InChI=1S/C4H8N4O/c1-3(9)4-5-7-8(2)6-4/h3,9H,1-2H3/t3-/m1/s1
