17
gdb 88255	4.54023	0.61525	0.58129	1.7782	80.79	-0.247	-0.0339	0.2131	1865.8801	0.132225	-421.786204	-421.776072	-421.775128	-421.824476	34.15	
O	-0.1213081701	 1.3613101939	-0.2856763404	-0.425398
C	-0.0363619757	-0.0075949646	-0.0646139425	 0.143375
C	-0.2579013506	-0.5571165301	 1.3104208233	-0.3084
C	-1.3059009701	-0.8048925009	 0.221268313	-0.230906
C	-2.5431501433	-0.0860173666	 0.2388940868	 0.043068
C	-3.5578400799	 0.5684819561	 0.2263355735	 0.076008
C	-4.8111841884	 1.3075116548	 0.1779664196	-0.417478
C	-5.314701575	 1.516902792	-1.2532240876	 0.173575
O	-6.4730292472	 1.4724490683	-1.5633042513	-0.226894
H	-1.0485084533	 1.5792105123	-0.447646876	 0.285997
H	 0.7048759573	-0.4915285856	-0.6957634238	 0.105932
H	 0.3221626299	-1.4116591581	 1.6405925484	 0.121715
H	-0.5191703076	 0.157153529	 2.0820954241	 0.132735
H	-1.353108427	-1.8091101674	-0.1884913094	 0.118747
H	-5.6051057635	 0.8178592013	 0.7516256659	 0.158726
H	-4.6766526693	 2.3094294796	 0.6142616276	 0.15782
H	-4.512014846	 1.7300382362	-1.9926502613	 0.091378
12.2826	49.851	72.5618	87.5925	115.1196	179.5131	260.1722	387.7114	393.0335	446.0911	455.5968	525.4556	622.4423	709.1699	757.8628	782.481	838.8661	928.5292	994.8694	1031.0077	1039.8178	1047.9184	1057.8282	1115.2885	1150.3368	1186.0325	1211.6373	1230.7092	1290.4586	1362.9041	1374.8284	1408.88	1413.4959	1438.7506	1471.2881	1842.9825	2348.9969	2896.5424	3002.134	3078.6355	3136.9139	3141.4561	3154.5469	3238.6768	3748.9009
OC1CC1C#CCC=O	O[C@H]1C[C@H]1C#CCC=O	
InChI=1S/C7H8O2/c8-4-2-1-3-6-5-7(6)9/h4,6-7,9H,2,5H2	InChI=1S/C7H8O2/c8-4-2-1-3-6-5-7(6)9/h4,6-7,9H,2,5H2/t6-,7+/m1/s1
