21
gdb 119988	2.92342	0.90002	0.8737	3.6804	75.48	-0.2404	0.056	0.2964	1476.0228	0.180841	-461.32495	-461.31478	-461.313835	-461.360736	36.894	
C	-0.2267003363	 1.4614383056	 0.3151254562	-0.389727
C	-0.2406168627	-0.048781148	 0.4650875184	-0.048545
O	-1.2654887274	-0.5754796701	-0.3797765618	-0.262922
C	-1.3634082904	-1.9694340976	-0.3112288126	 0.046906
C	-2.452698606	-2.5037228161	 0.5857729682	 0.070212
O	-3.2540927739	-1.5616619356	 1.2521302972	-0.43526
C	-2.5901526833	-2.6104656417	-0.9219291118	-0.136833
C	-3.6746123142	-1.783809958	-1.5955130442	-0.090311
O	-4.9676627235	-2.1248646346	-1.1240183661	-0.427866
H	 0.56477442	 1.8943375625	 0.9337426914	 0.123285
H	-0.0475009305	 1.7418094139	-0.7264108706	 0.13443
H	-1.1819056267	 1.8942621543	 0.626922505	 0.12618
H	 0.7286035267	-0.4786675254	 0.1696721805	 0.101553
H	-0.4252146245	-0.3432326938	 1.5087652403	 0.104703
H	-0.4084236211	-2.4886063179	-0.383637271	 0.092293
H	-2.297194342	-3.3956582383	 1.1835690941	 0.104006
H	-2.9215372457	-0.6922995381	 0.9872685661	 0.295225
H	-2.4337420628	-3.600486901	-1.3405625137	 0.095347
H	-3.4667578365	-0.7136523636	-1.4669468346	 0.097403
H	-3.6756241859	-1.9797240194	-2.6721187635	 0.108561
H	-4.9468576432	-1.9560665172	-0.1734407175	 0.29136
69.4783	77.9927	84.0565	122.1361	193.6931	226.7061	255.1259	293.8788	335.5722	403.9989	442.4199	544.8923	587.4263	625.4191	676.1454	771.3747	804.1785	823.353	873.1384	920.0057	969.6842	1044.3666	1063.516	1081.7637	1085.3602	1118.1804	1120.0356	1140.6969	1166.0004	1187.7262	1225.8238	1237.7014	1295.9063	1312.7493	1346.0497	1364.1021	1399.218	1406.2603	1429.5829	1442.4996	1458.9628	1483.912	1498.779	1517.0014	1528.4318	2985.1491	3018.2847	3020.2527	3046.1748	3078.4583	3105.3833	3118.7154	3125.3919	3149.2967	3166.3433	3736.2561	3775.2154
CCOC1C(O)C1CO	CCO[C@H]1[C@@H](O)[C@H]1CO	
InChI=1S/C6H12O3/c1-2-9-6-4(3-7)5(6)8/h4-8H,2-3H2,1H3	InChI=1S/C6H12O3/c1-2-9-6-4(3-7)5(6)8/h4-8H,2-3H2,1H3/t4-,5+,6-/m1/s1
