16
gdb 5100	3.39478	2.12077	1.32706	3.5481	68.35	-0.1835	0.0369	0.2204	905.2485	0.130382	-379.952276	-379.944101	-379.943157	-379.985291	29.168	
C	 0.0327412889	 1.4292753787	 0.0164786197	-0.344756
N	 0.028163772	-0.0159538834	 0.0294626103	-0.138725
C	-0.0021553307	-0.778970874	-1.1223256571	 0.461595
N	-0.030017435	-0.3376056554	-2.3131579635	-0.620844
O	 0.003982294	-2.0942863795	-0.7180297564	-0.220641
C	 0.0380047666	-2.1140245063	 0.6684054531	-0.148033
C	 0.0531775548	-0.8633170347	 1.1455666764	 0.281247
C	 0.0890381467	-0.3566490626	 2.5433729624	-0.49829
H	 0.9367683189	 1.8314373163	 0.4870827231	 0.128996
H	 0.0079939438	 1.7371872644	-1.0294991262	 0.183042
H	-0.8443019375	 1.8374322372	 0.5309297839	 0.129001
H	-0.0484218247	-1.1024914275	-2.9810154897	 0.222635
H	 0.0463751176	-3.0797959701	 1.1407745316	 0.14472
H	 0.1043005554	-1.1952213702	 3.2428321625	 0.141373
H	 0.9784104207	 0.2564318629	 2.7303701087	 0.139337
H	-0.7869003615	 0.2608479042	 2.7741420013	 0.139343
47.2215	118.0153	167.6902	188.9733	255.8696	316.0475	326.0991	529.5376	588.2326	591.7101	665.6387	699.8334	713.7919	740.216	787.2508	975.7805	1004.3796	1021.715	1066.0395	1100.7217	1156.4356	1195.6816	1211.5898	1278.5008	1353.3937	1416.99	1430.5272	1468.7404	1473.6029	1498.3455	1498.4558	1511.4256	1715.8954	1772.6152	3024.3896	3029.5661	3075.9146	3080.5348	3128.3525	3151.996	3302.9169	3550.6394
CN1C(=N)OC=C1C	CN1[C@H]([NH])OC=C1C	
InChI=1S/C5H8N2O/c1-4-3-8-5(6)7(4)2/h3,6H,1-2H3	InChI=1S/C5H9N2O/c1-4-3-8-5(6)7(4)2/h3,5-6H,1-2H3/t5-/m0/s1
