18
gdb 80437	2.26764	1.7334	1.20696	1.6468	71.85	-0.2352	-0.0398	0.1955	1060.1781	0.145579	-439.035205	-439.026415	-439.025471	-439.068396	33.15	
C	-0.0840474202	 1.5313184034	 0.2296871221	-0.451633
C	 0.0912135939	 0.0593332955	-0.0679584209	 0.028383
C	 0.6398418565	-0.5803726801	-1.2864737382	-0.159689
N	 1.349419693	-0.7026743524	 0.0664334517	-0.156621
C	 2.4642815749	 0.1539525865	-0.4956639947	-0.245364
C	 1.8785256867	 0.0860663903	-1.9233718434	 0.323412
O	 2.556799817	-0.8001600293	-2.7940548174	-0.480767
C	 1.6853019156	 1.3450015825	-2.7492478904	 0.135993
O	 1.6832828381	 2.4655149227	-2.3085240719	-0.2487
H	 0.6442397819	 2.1720302165	-0.2646536136	 0.165002
H	-1.0790723821	 1.8480384406	-0.1002967522	 0.125757
H	-0.0273883083	 1.6962405878	 1.3112808249	 0.124989
H	-0.7116962041	-0.5419557517	 0.359590284	 0.102994
H	 0.1613153193	-1.4313123783	-1.7663436096	 0.099179
H	 2.5551329251	 1.1449081608	-0.0474209091	 0.127329
H	 3.4192108103	-0.3701359212	-0.4210919536	 0.116088
H	 2.6327611913	-1.6546833019	-2.3544481249	 0.293248
H	 1.542555951	 1.1390147083	-3.8317829327	 0.100398
90.4325	140.1333	172.6979	226.2386	246.0551	299.6799	309.4688	356.6391	409.7366	474.9117	553.8164	584.4189	669.5146	699.309	774.9263	861.1994	908.5152	914.3574	946.4577	976.1913	1028.4976	1063.2825	1091.5579	1116.2004	1120.3178	1147.2732	1189.5196	1199.6255	1250.9884	1276.6049	1340.6332	1376.81	1411.4681	1422.3331	1442.8361	1490.0234	1504.5828	1516.5893	1833.5965	2909.9514	3040.8212	3074.6302	3096.7879	3103.1002	3133.1216	3136.8418	3166.174	3803.0695
CC1C2N1CC2(O)C=O	C[C@H]1[C@@H]2N1C[C@]2(O)C=O	
InChI=1S/C6H9NO2/c1-4-5-6(9,3-8)2-7(4)5/h3-5,9H,2H2,1H3	InChI=1S/C6H9NO2/c1-4-5-6(9,3-8)2-7(4)5/h3-5,9H,2H2,1H3/t4-,5-,6-,7?/m0/s1
