23
gdb 62580	3.07083	1.39367	1.24623	0.1946	89.33	-0.2269	0.0822	0.3091	1147.6689	0.206535	-351.097344	-351.088908	-351.087964	-351.129603	34.723	
C	 0.0316952905	 1.4809132149	 0.1325199953	-0.42919
C	-0.0513987375	-0.0383024857	-0.0304355945	 0.316279
C	-1.4070827024	-0.4172254314	-0.6125111441	-0.471386
C	 1.3030171872	-0.6110081147	-0.3718795712	-0.110675
C	 0.720178003	-0.7334399056	 1.0652091806	-0.110701
C	 0.8886763092	-2.2712084528	 0.9994413907	-0.022712
C	-0.2209468074	-3.2357817494	 0.4775069503	-0.250506
C	 0.3669660357	-3.1123163277	-0.9718777764	-0.250499
C	 1.4694072534	-2.1492319698	-0.4323441118	-0.022723
H	 0.9940638543	 1.7920201886	 0.5496721996	 0.112106
H	-0.0944720111	 1.9819977627	-0.8339929951	 0.112317
H	-0.7580760613	 1.8429489345	 0.8005986557	 0.112307
H	-1.5442956959	 0.0794346564	-1.5807734203	 0.108914
H	-1.5593377504	-1.4798390993	-0.7649514693	 0.123368
H	-2.2053205467	-0.0596906426	 0.0493158096	 0.108918
H	 2.0838853249	 0.0582867724	-0.7201827275	 0.074539
H	 1.0012142192	-0.1692139781	 1.9493410164	 0.074536
H	 1.5096888835	-2.6499283591	 1.812545567	 0.065012
H	-0.1173548905	-4.2445005462	 0.8858786661	 0.094988
H	-1.2555636968	-2.9234733884	 0.6279020979	 0.102559
H	 0.7836449676	-4.0552814899	-1.3354920463	 0.094987
H	-0.2914168264	-2.721008637	-1.7490520821	 0.102555
H	 2.501286728	-2.4416385517	-0.6322057307	 0.065009
134.4165	170.5991	226.3219	227.559	303.656	305.7363	354.9982	382.6227	470.9483	557.9371	653.7256	655.5245	722.8834	731.5119	812.1846	859.0384	862.1778	877.9528	893.631	931.7476	962.0063	962.5367	970.6353	1036.2921	1040.1661	1044.6592	1079.639	1082.4164	1095.3393	1129.9348	1158.3586	1207.2459	1210.4228	1228.4727	1255.3199	1257.8451	1294.5664	1295.2618	1304.4803	1328.6255	1402.9911	1415.3103	1432.9684	1464.0194	1485.6728	1491.4998	1495.4196	1514.664	1517.3058	3022.6221	3028.1894	3059.3624	3066.6127	3072.5739	3085.6751	3086.8392	3096.8594	3103.5837	3108.465	3121.7388	3141.7813	3152.5663	3212.4485
CC1(C)C2C1C1CCC21	CC1(C)[C@H]2[C@@H]1[C@H]1CC[C@@H]21	
InChI=1S/C9H14/c1-9(2)7-5-3-4-6(5)8(7)9/h5-8H,3-4H2,1-2H3	InChI=1S/C9H14/c1-9(2)7-5-3-4-6(5)8(7)9/h5-8H,3-4H2,1-2H3/t5-,6+,7-,8+
