20
gdb 52996	3.04796	0.96271	0.83916	1.6856	91.	-0.2214	0.0278	0.2492	1486.0749	0.169654	-365.950268	-365.940609	-365.939665	-365.986394	34.928	
C	-0.0546029746	 1.4668170548	 0.0287406461	-0.508481
C	-0.0209452107	 0.0127406165	 0.0007593904	 0.239508
C	-0.0062343836	-1.1928908383	-0.0263538448	-0.145188
C	 0.063437063	-2.6161432992	-0.0330608425	 0.152689
C	-0.4552399848	-3.4553852152	-1.143204959	-0.274413
N	-1.1597801669	-3.5505909684	 0.1395079413	-0.165274
C	-0.293300779	-4.4386332624	 0.9934352018	-0.179793
C	 0.9055889962	-3.4532928751	 0.9463656302	-0.042955
C	 2.2885187241	-3.9236952187	 0.5182323029	-0.417504
H	 0.4495431871	 1.8597825785	 0.918614009	 0.148929
H	 0.4372304031	 1.8978958903	-0.8505580256	 0.14815
H	-1.0865425221	 1.8350577487	 0.0446980126	 0.153397
H	-1.0291697536	-2.9411175078	-1.9074794215	 0.126848
H	 0.1167161109	-4.3100789264	-1.501627303	 0.107561
H	-0.7358107383	-4.5595626502	 1.9835266713	 0.111422
H	-0.1286646522	-5.4287910776	 0.5525622969	 0.100348
H	 0.9779757326	-2.9179162969	 1.8967888732	 0.087883
H	 2.2594590124	-4.4642892129	-0.4330398893	 0.114647
H	 2.9690784363	-3.0736382362	 0.4006711114	 0.125138
H	 2.7200986201	-4.5953056134	 1.2684745186	 0.117087
15.4471	81.7196	101.6773	184.6226	208.3847	242.0545	291.0299	332.8817	420.1169	436.822	481.6708	534.4922	600.5644	691.25	746.7018	835.761	856.9267	889.4357	942.3429	974.1597	1039.6173	1050.6458	1054.179	1077.8808	1106.1157	1125.9392	1138.0134	1165.3746	1209.3608	1245.0702	1254.7042	1306.201	1355.217	1398.7541	1413.0088	1417.0326	1475.7672	1478.0398	1486.7789	1495.9153	1496.6037	1510.971	2359.3689	3025.3005	3030.0564	3037.4283	3068.146	3085.0247	3087.698	3094.0058	3097.0607	3104.1291	3114.7422	3197.428
CC#CC12CN1CC2C	CC#C[C@]12CN1C[C@H]2C	
InChI=1S/C8H11N/c1-3-4-8-6-9(8)5-7(8)2/h7H,5-6H2,1-2H3	InChI=1S/C8H11N/c1-3-4-8-6-9(8)5-7(8)2/h7H,5-6H2,1-2H3/t7-,8-,9?/m1/s1
