17
gdb 65703	4.82296	0.83881	0.79171	3.1141	76.88	-0.2429	-0.0232	0.2197	1421.0565	0.131382	-421.783533	-421.773728	-421.772783	-421.81898	35.08	
O	-0.0494628115	 1.4457864694	-0.0326369846	-0.473811
C	 0.008790852	 0.0535777218	 0.0338803196	 0.407687
C	 1.1344481739	-0.4969426099	-0.8217234563	-0.33046
C	 2.4942595317	-0.0155851321	-0.3453586011	 0.158586
O	 3.4347828973	-0.7423432544	-0.1514918247	-0.240519
C	-0.3599990388	-0.6228799357	 1.3226479763	-0.332005
C	-1.3057681539	-0.7229246943	 0.120386799	-0.287881
C	-2.5136302794	 0.0428948577	 0.0999539454	 0.27835
C	-3.4785998801	 0.7631522241	 0.0536515993	-0.416432
H	-0.9763958798	 1.7101615513	-0.1156459714	 0.290285
H	 1.1383580877	-1.5898287476	-0.8292969605	 0.120356
H	 0.9920836124	-0.1371362403	-1.8500323093	 0.130254
H	 2.5653669691	 1.0812461386	-0.1872084403	 0.101819
H	 0.1601577049	-1.5287493506	 1.6141165365	 0.130973
H	-0.6752629041	 0.0161369341	 2.1387743187	 0.134387
H	-1.3436376885	-1.6783145804	-0.3937203451	 0.122049
H	-4.357810863	 1.3587989783	 0.0324469183	 0.206361
45.9811	68.3938	103.427	140.4088	203.0798	225.7698	305.4011	347.0424	411.1953	416.3461	490.5511	532.4606	593.6786	648.5115	671.9933	705.5433	801.6893	830.2662	870.4067	920.2194	987.3086	1009.9019	1054.6926	1073.2195	1080.137	1122.0047	1190.8966	1219.0884	1284.9127	1327.1739	1356.8152	1415.4171	1423.739	1450.6595	1474.7375	1831.4624	2223.5089	2916.7834	3024.1936	3109.3346	3140.4654	3154.9141	3237.9181	3500.4141	3727.9992
OC1(CC=O)CC1C#C	O[C@@]1(CC=O)C[C@H]1C#C	
InChI=1S/C7H8O2/c1-2-6-5-7(6,9)3-4-8/h1,4,6,9H,3,5H2	InChI=1S/C7H8O2/c1-2-6-5-7(6,9)3-4-8/h1,4,6,9H,3,5H2/t6-,7+/m1/s1
