16
gdb 18359	3.46727	2.24289	1.68188	1.6752	65.24	-0.2332	0.0175	0.2507	789.5722	0.133042	-379.891127	-379.884495	-379.88355	-379.921683	26.148	
O	 0.0287526112	 1.4696270365	 0.0798249724	-0.433578
C	 0.0567585568	 0.0578037926	-0.0298760698	 0.089115
C	 0.4943238709	-0.6121357317	 1.3224663458	-0.199578
N	-0.74793922	-0.6698428129	 2.1559236043	-0.319618
C	-1.6670217955	-0.7312281954	 1.2785394101	 0.360865
N	-3.023210618	-0.4587545459	 1.1379446698	-0.364786
C	-2.736737211	 0.1246793611	-0.2252085439	-0.2109
C	-1.3452004943	-0.5875277345	-0.1779709859	-0.106533
H	-0.3044051044	 1.686625493	 0.9584562177	 0.289263
H	 0.7277590339	-0.1677847462	-0.8626578305	 0.087181
H	 0.9183427276	-1.6122036534	 1.1600540341	 0.106618
H	 1.2539432488	-0.0067147865	 1.8261231729	 0.112422
H	-3.5189256628	 0.063491367	 1.8518494268	 0.241638
H	-3.436878688	-0.205509177	-0.9944384565	 0.120243
H	-2.65318958	 1.215182414	-0.2198946984	 0.12573
H	-1.3158080751	-1.5127794406	-0.7568875991	 0.101919
129.0289	223.8368	280.5185	358.08	382.8471	438.3439	514.414	653.2167	715.8013	727.6176	806.6675	819.5196	839.6637	926.1867	939.473	971.8187	976.1881	1003.0802	1062.2518	1111.6847	1135.4763	1156.5252	1187.964	1215.0516	1246.0832	1278.233	1290.4109	1322.2857	1335.0272	1366.866	1427.2435	1489.9055	1506.1727	1752.4643	3018.3218	3058.9769	3082.5921	3087.0415	3097.7213	3126.3995	3546.0805	3791.4249
OC1CN=C2NCC12	O[C@H]1C[N][C]2NC[C@@H]12	
InChI=1S/C5H8N2O/c8-4-2-7-5-3(4)1-6-5/h3-4,8H,1-2H2,(H,6,7)	InChI=1S/C5H8N2O/c8-4-2-7-5-3(4)1-6-5/h3-4,8H,1-2H2,(H,6,7)/t3-,4-/m0/s1
