19
gdb 60664	2.99565	0.97526	0.81423	7.2138	75.39	-0.2407	0.0084	0.2491	1434.5452	0.157512	-456.402162	-456.391922	-456.390978	-456.437719	36.78	
C	 0.0088118655	 1.5301985507	-0.1690134603	-0.387997
C	 0.0603291154	-0.0034880305	-0.0492032141	-0.14118
N	 0.7546088718	-0.4563021845	 1.1458609335	-0.292328
H	-0.846564851	-1.1642876046	 1.6488364166	 0.30258
C	 2.0326358143	-0.5274614846	 1.1870912301	 0.372429
C	 2.7100528898	-1.0201060848	 2.4403662907	-0.463946
N	 2.8901154151	-0.1481757283	 0.1828789401	-0.534264
C	-1.3834652534	-0.5518366746	-0.0063578473	 0.430309
O	-2.1644551254	-0.3912596969	-0.9073983388	-0.356179
O	-1.679589529	-1.201867248	 1.1219679853	-0.367153
H	 1.0091563338	 1.949927619	-0.3058729928	 0.11288
H	-0.6180356426	 1.8080707531	-1.0188511734	 0.148242
H	-0.4187481143	 1.9621833778	 0.7403936459	 0.131632
H	 0.4967547185	-0.4188639959	-0.9727494385	 0.087457
H	 3.2864006917	-1.930192272	 2.2377132111	 0.135642
H	 3.4053735316	-0.2668951129	 2.8257305652	 0.142603
H	 1.9592555398	-1.2369952089	 3.1984339804	 0.152016
H	 2.5263864153	 0.0070198711	-0.7430154828	 0.265897
H	 3.843032493	-0.4692797852	 0.2221535592	 0.261359
65.9126	83.7599	113.6307	138.254	172.4006	231.8339	251.6598	323.9049	360.4621	380.3379	425.0774	463.7569	500.2489	597.9132	625.171	654.1763	741.0652	836.387	844.1524	871.5742	933.6675	1003.7343	1057.4008	1058.9384	1094.6023	1115.5558	1182.7258	1237.7101	1304.8058	1340.8898	1356.2018	1398.6645	1413.7789	1450.3165	1478.1372	1483.2604	1491.9893	1502.2064	1648.4383	1738.8958	1865.684	2961.9825	3039.2044	3048.4342	3096.5756	3118.9782	3140.5957	3167.8811	3411.5621	3601.1741	3714.0293
CC([NH+]=C(C)N)C([O-])=O	C[C@@H](N=C(C)N)C(=O)O	
InChI=1S/C5H10N2O2/c1-3(5(8)9)7-4(2)6/h3H,1-2H3,(H2,6,7)(H,8,9)	InChI=1S/C5H10N2O2/c1-3(5(8)9)7-4(2)6/h3H,1-2H3,(H2,6,7)(H,8,9)/t3-/m1/s1
