16
gdb 131609	4.2355	0.95655	0.87811	4.5843	66.65	-0.2508	-0.0169	0.234	1295.1893	0.125729	-471.192607	-471.184367	-471.183423	-471.226458	30.09	
O	 0.1156964772	 1.3979378844	-0.0284229227	-0.422555
C	 0.0250368656	 0.0181041646	 0.2356069172	-0.058509
C	-1.4090566645	-0.4810155203	-0.0212991524	-0.015682
O	-1.8001560902	-0.0789315653	-1.3304946349	-0.443731
C	-1.5227423486	-1.9673033262	 0.1359289107	 0.330689
C	-1.8063462418	-2.7694346579	 1.2154560537	-0.192194
N	-1.7158176223	-4.0262859105	 0.7171958656	-0.147885
N	-1.4029541289	-4.0240573266	-0.5880443003	-0.105854
N	-1.2815351771	-2.7762649637	-0.9371880149	-0.269708
H	-0.3385356847	 1.521941119	-0.8726653453	 0.288653
H	 0.7166984491	-0.5706498844	-0.3906030278	 0.090583
H	 0.3033010517	-0.1400378995	 1.2836997541	 0.100842
H	-2.0817894597	 0.0319058694	 0.6754898641	 0.096669
H	-1.5537563624	-0.8011209584	-1.9250415856	 0.302049
H	-2.0578248676	-2.5643572789	 2.2420756197	 0.157497
H	-1.862203716	-4.9065479156	 1.185967779	 0.289138
38.9745	115.3638	123.7451	234.191	295.6013	370.0121	400.5312	437.7764	532.5789	537.4145	591.4896	695.1013	744.8421	786.7354	805.988	887.3262	993.4913	1034.1936	1061.771	1076.4094	1081.4527	1102.7696	1134.4399	1207.5811	1241.8081	1270.8861	1313.5007	1325.3645	1364.2708	1383.3638	1434.2563	1443.3695	1489.5665	1502.1901	1592.9134	2965.3632	3048.3202	3069.193	3286.347	3654.2377	3750.185	3763.5464
OCC(O)C1=CNN=N1	OC[C@@H](O)c1c[nH]nn1	
InChI=1S/C4H7N3O2/c8-2-4(9)3-1-5-7-6-3/h1,4,8-9H,2H2,(H,5,6,7)	InChI=1S/C4H7N3O2/c8-2-4(9)3-1-5-7-6-3/h1,4,8-9H,2H2,(H,5,6,7)/t4-/m1/s1
