23
gdb 58574	2.57072	1.29074	1.1809	1.3473	87.21	-0.2288	0.0181	0.2468	1226.566	0.204051	-388.306	-388.296054	-388.29511	-388.340546	37.836	
C	-0.0269882999	 1.4770197288	-0.1987567679	-0.404311
C	-0.0799753802	-0.0372552147	 0.048856444	 0.03512
C	 0.8497103872	-0.4356638952	 1.2042807506	-0.407558
C	-1.53996933	-0.5535733336	 0.2207696746	 0.341035
C	-2.2617089646	 0.041094492	 1.4395262435	-0.422503
O	-2.2804758823	-0.1743351692	-0.9632161269	-0.31032
C	-2.7335316803	-1.3177836226	-1.6767028576	-0.130703
C	-2.2817920439	-2.492788506	-0.858023702	-0.104284
C	-1.6153879715	-2.0653301308	 0.2065040086	-0.120531
H	 0.9828354494	 1.7770552496	-0.4978459487	 0.104202
H	-0.7215683662	 1.7639423143	-0.991009357	 0.132767
H	-0.2797407422	 2.044449885	 0.703703737	 0.109071
H	 0.284785986	-0.5334432975	-0.860127433	 0.072008
H	 0.5586857997	 0.048075293	 2.1428868588	 0.116094
H	 0.8649188281	-1.5168770907	 1.3720717009	 0.109376
H	 1.8761956495	-0.1241908389	 0.9850305975	 0.11356
H	-2.3123586498	 1.1304683955	 1.3684465715	 0.125165
H	-3.2832861692	-0.34504714	 1.4840123683	 0.117323
H	-1.7560745456	-0.221746811	 2.3736277666	 0.111675
H	-3.8289323227	-1.2802190334	-1.788422358	 0.103101
H	-2.3090982982	-1.3268465269	-2.6937831744	 0.102256
H	-2.4912761483	-3.5206198037	-1.1271272971	 0.103796
H	-1.1809470252	-2.6804867842	 0.9836577208	 0.103663
63.0408	82.4564	195.9489	208.5605	233.5208	239.6095	268.8623	293.6053	327.2763	380.0567	444.513	453.4819	508.3422	639.1031	737.4957	773.4983	814.8576	862.185	900.4796	924.1438	930.7518	958.2529	963.2967	969.992	1010.7164	1047.5756	1081.6945	1108.4608	1120.5072	1156.9369	1182.9771	1196.0302	1218.1752	1228.6512	1345.5541	1346.9163	1370.276	1378.824	1394.9955	1400.9439	1418.9847	1482.7538	1486.4957	1490.4003	1503.036	1507.2888	1513.4975	1523.206	1693.1862	2968.815	2983.6572	3015.4301	3032.1749	3036.2173	3046.4486	3091.409	3099.152	3104.5376	3118.5804	3125.1705	3130.2245	3204.5458	3230.2845
CC(C)C1(C)OCC=C1	CC(C)[C@@]1(C)OCC=C1	
InChI=1S/C8H14O/c1-7(2)8(3)5-4-6-9-8/h4-5,7H,6H2,1-3H3	InChI=1S/C8H14O/c1-7(2)8(3)5-4-6-9-8/h4-5,7H,6H2,1-3H3/t8-/m0/s1
