17
gdb 83626	3.19065	1.52195	1.08803	4.427	77.12	-0.2234	-0.0156	0.2078	1081.466	0.137947	-418.010395	-418.002698	-418.001753	-418.042524	29.362	
C	 0.1157304351	 1.4903659507	 0.1042203401	-0.34904
N	 0.0064021874	 0.0837447368	-0.2162609846	-0.117785
C	-1.2007885251	-0.6663541667	-0.0696577275	-0.03562
C	-2.210334324	-1.1624228272	-1.1862457851	-0.212835
N	-1.9145320819	-2.5610356329	-0.7053124051	-0.36602
C	-0.7293144333	-2.0803261057	-0.149748915	 0.334617
C	 0.6044748717	-2.1862051617	-0.1014152517	-0.404807
C	 1.1180882678	-0.7851627535	-0.0387702503	 0.424585
O	 2.262637051	-0.401035179	 0.0582297817	-0.390531
H	 1.178783059	 1.7379944336	 0.1197691713	 0.163956
H	-0.3840344568	 2.1065634784	-0.6507398472	 0.119645
H	-0.3180547513	 1.7257719119	 1.0869628939	 0.11352
H	-1.7556580599	-0.4068838553	 0.839942325	 0.109363
H	-3.2584444119	-0.870195246	-1.0926900198	 0.119742
H	-1.8320029054	-0.9716552954	-2.1943342083	 0.127656
H	-1.8793818885	-3.3284180151	-1.3656748705	 0.247575
H	 1.252433266	-3.028106453	-0.2884518768	 0.115977
141.12	148.3049	166.5953	237.9499	286.8381	373.2668	398.0964	516.7467	594.0098	658.0016	710.0571	732.8616	736.9736	816.1284	844.2763	874.7068	946.6702	956.7991	1023.5141	1071.454	1098.9638	1133.8129	1156.4245	1171.4105	1176.7187	1224.2625	1277.6321	1304.5106	1331.5981	1351.9891	1397.1507	1446.9926	1495.5384	1498.8994	1514.6635	1701.9861	1806.9885	2997.86	3033.1359	3053.6803	3066.2473	3124.4777	3138.8604	3255.6557	3558.0386
CN1C2CNC2=CC1=O	CN1[C@H]2CN[C]2[CH]C1=O	
InChI=1S/C6H8N2O/c1-8-5-3-7-4(5)2-6(8)9/h2,5,7H,3H2,1H3	InChI=1S/C6H8N2O/c1-8-5-3-7-4(5)2-6(8)9/h2,5,7H,3H2,1H3/t5-/m0/s1
