16
gdb 23864	3.47606	1.31196	1.18105	2.3904	54.73	-0.226	0.0753	0.3012	1044.882	0.125782	-511.417726	-511.409076	-511.408132	-511.451642	30.49	
C	 0.3528383845	 1.3047965371	 0.1039204	-0.331301
N	 0.0583626482	-0.1151552674	-0.045159122	-0.054127
C	 0.8546704868	-0.9281088102	 0.8618779435	-0.319165
C	-1.3574120023	-0.4163591705	 0.0274237836	-0.289412
C	-2.0636922977	-0.2677608686	-1.3155435642	 0.29142
F	-1.5451804955	-1.0762484294	-2.2438984348	-0.070497
F	-3.3639166332	-0.5826881859	-1.177922615	-0.081442
F	-2.0097938825	 0.9859637469	-1.7989243348	-0.081879
H	 1.4185960411	 1.4749470069	-0.0747987146	 0.122572
H	-0.2118889807	 1.8847844142	-0.6261780288	 0.13813
H	 0.1105800197	 1.6865406451	 1.1143667607	 0.093104
H	 0.6415094411	-0.7340983227	 1.9302373339	 0.095564
H	 0.6810833971	-1.9900158349	 0.6647419511	 0.124331
H	 1.9161243111	-0.7237045531	 0.6921188029	 0.125186
H	-1.4964195065	-1.4618038145	 0.3153871844	 0.129133
H	-1.9084797513	 0.1999395769	 0.7593740043	 0.108383
41.1672	98.3905	175.5638	229.6459	242.0185	305.5074	336.2082	344.0665	415.0212	463.0952	534.3995	551.0522	670.7613	844.0653	875.983	957.8814	1068.8484	1079.3157	1122.2147	1130.4894	1169.6342	1196.3119	1266.7684	1287.7713	1316.0943	1347.986	1422.9172	1446.4827	1464.2947	1485.2772	1489.4982	1499.1402	1505.3028	1514.1457	2924.1861	2931.2712	2958.9017	3064.9242	3079.5912	3097.2882	3110.1591	3148.1651
CN(C)CC(F)(F)F	CN(C)CC(F)(F)F	
InChI=1S/C4H8F3N/c1-8(2)3-4(5,6)7/h3H2,1-2H3	InChI=1S/C4H8F3N/c1-8(2)3-4(5,6)7/h3H2,1-2H3
