20
gdb 29505	2.95118	1.49932	1.02291	1.5896	87.02	-0.1847	0.054	0.2387	1190.3585	0.173926	-366.067114	-366.05887	-366.057926	-366.099773	31.885	
C	-0.0131180336	 1.5363951612	-0.0091119037	-0.504769
C	-0.0155273975	 0.037761884	 0.0226793319	 0.09042
C	-0.0106362893	-0.8026640266	-1.0737106048	-0.16375
N	-0.0084091186	-2.1165470957	-0.6395437968	-0.386645
C	-0.0256302396	-2.1158057926	 0.7268883721	 0.301642
C	-0.026531517	-0.8186654129	 1.1645084317	 0.233471
C	 0.0285661269	-0.764520176	 2.6663427478	-0.350687
C	-0.2702510948	-2.2493941587	 3.0608154223	-0.18818
C	 0.0386702663	-3.1409507208	 1.8124927168	-0.345715
H	 0.8727497361	 1.9543372577	 0.4847850369	 0.119611
H	-0.0226071527	 1.9105066872	-1.037373028	 0.114953
H	-0.8874966988	 1.9567620786	 0.5026115753	 0.119758
H	-0.0237451021	-0.5699286447	-2.1275286413	 0.108263
H	-0.0256264747	-2.9219654099	-1.2394670746	 0.253625
H	 1.0172481362	-0.4489383757	 3.0286620608	 0.098237
H	-0.6970971218	-0.0802386068	 3.1209815134	 0.09717
H	 0.2909283161	-2.5689878092	 3.9429532395	 0.093762
H	-1.3329323545	-2.3444138406	 3.3038550437	 0.106726
H	-0.6825192877	-3.9608075593	 1.7116545696	 0.098723
H	 1.0329472412	-3.6051923193	 1.8846668373	 0.103384
117.3409	133.8708	165.5654	227.3592	232.6707	306.5843	427.7628	474.4818	563.2736	598.4342	633.3836	669.1625	699.0113	718.7205	774.2686	839.7149	899.5339	909.0825	992.115	1001.5313	1043.6569	1056.7747	1066.9015	1099.5083	1151.8822	1182.1891	1207.8977	1219.5559	1257.2639	1296.1852	1305.6068	1335.5043	1362.7362	1417.8049	1436.1559	1482.7918	1484.3163	1491.8679	1498.1758	1511.2532	1522.1876	1551.7824	1627.962	2995.5131	3001.2767	3018.1531	3037.2148	3043.9872	3060.0456	3062.9294	3099.0401	3100.4474	3248.0231	3684.163
CC1=CNC2=C1CCC2	Cc1c[nH]c2c1CCC2	
InChI=1S/C8H11N/c1-6-5-9-8-4-2-3-7(6)8/h5,9H,2-4H2,1H3	InChI=1S/C8H11N/c1-6-5-9-8-4-2-3-7(6)8/h5,9H,2-4H2,1H3
