19
gdb 124495	2.56932	1.24309	1.02128	3.878	78.35	-0.2098	0.0142	0.224	1251.2764	0.15897	-419.213357	-419.204006	-419.203062	-419.248478	34.475	
C	 0.0306462265	 1.5451876282	-0.0394518509	-0.375313
C	 0.0140987417	 0.008404404	 0.0694187612	-0.110247
C	 0.7803899495	-0.4632274413	 1.3184170387	-0.378013
C	-1.3882847592	-0.5369983318	 0.0336215194	 0.100388
C	-2.0083587962	-1.2559360013	-0.9562005232	 0.366151
N	-1.6076028703	-1.6649625211	-2.2091080792	-0.59559
O	-3.2723155545	-1.5468238552	-0.6229920226	-0.214202
N	-3.5444658964	-1.0045521768	 0.6525416346	-0.166901
C	-2.4243241008	-0.4241165883	 1.0020159631	-0.031516
H	 1.0575936378	 1.9257049455	-0.0546485796	 0.109537
H	-0.4756355716	 1.8815693635	-0.9486145641	 0.121638
H	-0.4823459901	 2.0000018144	 0.8151150855	 0.117484
H	 0.5452531472	-0.3846462854	-0.8093687125	 0.060423
H	 0.304124925	-0.0918837401	 2.2325755135	 0.118107
H	 0.8082057669	-1.5551188765	 1.3786832085	 0.116025
H	 1.8102910938	-0.0915576412	 1.3077707579	 0.111443
H	-0.612580123	-1.8085256081	-2.3015600014	 0.262505
H	-2.141445482	-2.4434595159	-2.5705715143	 0.266253
H	-2.3851200542	 0.0717453576	 1.9631687953	 0.121829
17.1534	132.7985	167.1999	232.1015	238.3924	258.0541	272.9601	288.5469	391.6932	444.0528	510.9897	598.4517	619.5557	646.2928	736.4265	755.0947	885.5501	899.331	919.6061	924.6217	949.6305	960.197	1059.0774	1080.9809	1125.9037	1161.9955	1209.8481	1227.1797	1330.2993	1335.3666	1382.6473	1398.013	1416.1972	1429.2465	1485.3341	1490.253	1501.3558	1509.2329	1540.6604	1634.5235	1684.0079	2994.0916	3028.9239	3033.242	3094.7908	3101.2588	3109.3264	3112.4573	3227.946	3562.3534	3664.5911
CC(C)C1=C(N)ON=C1	CC(C)c1c(N)onc1	
InChI=1S/C6H10N2O/c1-4(2)5-3-8-9-6(5)7/h3-4H,7H2,1-2H3	InChI=1S/C6H10N2O/c1-4(2)5-3-8-9-6(5)7/h3-4H,7H2,1-2H3
