19
gdb 8362	5.45958	1.19716	1.17316	1.8657	72.59	-0.2417	0.0802	0.3219	1112.6844	0.165771	-364.980955	-364.973148	-364.972203	-365.013792	29.185	
C	 0.0235450118	 1.5063313794	-0.0636944312	-0.385817
C	 0.0259950861	-0.0104407513	 0.0054475335	-0.066398
O	 0.6553645018	-0.5109275353	-1.1686265151	-0.290901
C	 0.7276777861	-1.8829363247	-1.2397370111	 0.395272
C	-0.3974687877	-2.9550956565	-1.2978741604	-0.235179
N	 0.8853276493	-3.7846029935	-1.4477722413	-0.138772
C	 1.3551194442	-2.6673291271	-2.3977040546	-0.222254
C	 1.45702457	-2.9077762757	-0.3250715479	-0.235173
H	 1.0461283084	 1.889376947	-0.123107855	 0.128836
H	-0.5224943221	 1.8492755874	-0.9469622688	 0.128836
H	-0.4545409066	 1.9269324776	 0.8261110329	 0.116133
H	 0.5674364883	-0.3575295443	 0.898864258	 0.095453
H	-1.0021701813	-0.3976384302	 0.0745431274	 0.09546
H	-0.9554038595	-3.1849396313	-0.3866737221	 0.100126
H	-1.0386929373	-2.9809307513	-2.1826850452	 0.103201
H	 0.8377112414	-2.6674482444	-3.3602361023	 0.103924
H	 2.4403236862	-2.6265627898	-2.5195606954	 0.103926
H	 2.5496245183	-2.8893621216	-0.3003761799	 0.103202
H	 1.0336181428	-3.1341892945	 0.6566974184	 0.100124
64.3365	71.2406	150.718	250.9002	339.6841	377.5867	407.1453	587.4769	593.7987	665.3992	788.326	798.4131	821.6267	869.9806	925.6854	960.2534	960.7262	992.6818	1023.5956	1023.636	1081.0294	1127.9463	1150.5216	1170.6012	1172.3831	1186.8586	1189.2675	1191.7064	1203.4362	1258.3333	1297.4763	1314.1823	1401.8518	1430.2416	1484.2435	1499.8044	1507.3797	1510.1976	1526.0838	1565.7671	2979.1164	3009.6634	3045.5284	3051.6649	3053.9933	3063.7506	3119.7717	3120.5809	3123.7364	3126.2451	3128.4183
CCOC12CN(C1)C2	CCO[C@@]12CN(C1)C2	
InChI=1S/C6H11NO/c1-2-8-6-3-7(4-6)5-6/h2-5H2,1H3	InChI=1S/C6H11NO/c1-2-8-6-3-7(4-6)5-6/h2-5H2,1H3
