15
gdb 105581	1.98331	1.59035	1.3025	5.076	65.64	-0.2628	-0.0233	0.2394	1047.9704	0.112884	-453.964139	-453.955505	-453.95456	-453.997703	30.565	
N	 0.1200343291	 1.5361127208	 0.0246013602	-0.4996
C	-0.0422935977	 0.0940299262	 0.032256443	-0.214455
C	 0.758041922	-0.5031738507	 1.2090202199	-0.07048
C	 1.006260291	-2.0325906758	 1.1660134874	-0.123431
O	 2.4239860571	-1.8079495275	 0.882118643	-0.231495
C	 2.2894880163	-0.4527956183	 0.9419953914	 0.468769
O	 3.1077167907	 0.3867085874	 0.7639015174	-0.31389
C	 0.3355964952	 0.0199090205	 2.4990230866	 0.28472
N	-0.0038202099	 0.3810256996	 3.5426781731	-0.326749
H	 1.0772432999	 1.7906440389	-0.1972322672	 0.254063
H	-0.4869655095	 1.9648829262	-0.6638387386	 0.242682
H	-1.1017959848	-0.1436590765	 0.1757389428	 0.13178
H	 0.2887168074	-0.4265870014	-0.8836321935	 0.10266
H	 0.875199528	-2.5609127217	 2.1099761698	 0.155453
H	 0.5261399252	-2.5626001978	 0.3417167246	 0.139971
107.3251	116.4807	129.1203	165.9112	209.399	281.9449	297.1242	394.1953	429.5759	543.9957	580.694	676.0413	748.5199	787.0043	824.0681	899.8351	934.9079	969.9473	1014.2317	1092.7229	1116.6728	1154.2476	1157.7571	1209.3343	1238.6246	1335.352	1354.1811	1421.5019	1509.0169	1511.4523	1660.595	1941.3944	2362.6089	2944.1812	3068.9868	3087.1863	3158.4543	3513.8072	3602.0367
NCC1(COC1=O)C#N	NC[C@]1(COC1=O)C#N	
InChI=1S/C5H6N2O2/c6-1-5(2-7)3-9-4(5)8/h1,3,6H2	InChI=1S/C5H6N2O2/c6-1-5(2-7)3-9-4(5)8/h1,3,6H2/t5-/m1/s1
