18
gdb 22225	2.28739	0.9948	0.83734	3.7597	73.3	-0.2618	-0.009	0.2528	1428.0138	0.143472	-476.210033	-476.199506	-476.198561	-476.246897	36.098	
C	-0.1966968202	 1.840303233	 0.2220377844	-0.406532
C	-0.0197776855	 0.3384683876	 0.0300061112	 0.018206
O	 0.8600960894	-0.1148229181	 1.0884047154	-0.193055
C	 1.675583011	-1.1537361007	 0.8168473632	 0.16959
O	 2.4051487003	-1.6275006203	 1.6348509589	-0.274922
C	-1.3188158215	-0.4341494763	 0.0927762745	 0.373118
C	-2.1338046812	-0.4274589017	 1.3541201842	-0.489001
N	-1.6165575576	-1.0556861175	-0.9841544046	-0.173171
O	-2.8403152378	-1.7229320991	-0.8885160652	-0.389718
H	 0.7745542336	 2.3394869044	 0.1774419933	 0.136128
H	-0.8379669942	 2.2433912628	-0.5665180926	 0.134077
H	-0.6509940521	 2.061631494	 1.1913928083	 0.13757
H	 0.442712643	 0.1343958833	-0.9413026727	 0.108001
H	 1.599867213	-1.5004891546	-0.2311783449	 0.090116
H	-2.9330237062	 0.3206992244	 1.2962968919	 0.145921
H	-2.612108153	-1.3978361758	 1.4995747042	 0.155903
H	-1.5043435656	-0.1957123495	 2.2153565954	 0.147031
H	-2.8994118954	-2.1679744859	-1.7408769849	 0.310739
42.8574	52.0334	90.6952	126.2397	183.4979	207.219	225.0066	285.6037	304.6667	349.8921	390.3803	433.1355	497.5375	575.3185	645.4263	668.8365	798.9638	932.52	969.5906	1005.1222	1037.8143	1046.1124	1058.137	1095.0113	1130.9567	1202.8265	1280.9597	1330.2898	1357.0485	1400.2356	1407.7299	1410.1852	1438.2446	1477.2973	1480.5517	1491.829	1499.3443	1729.6201	1864.4893	2962.2211	3043.1445	3050.7398	3060.391	3111.6347	3129.833	3130.1508	3149.0776	3816.6879
CC(OC=O)C(C)=NO	C[C@@H](OC=O)C(=NO)C	
InChI=1S/C5H9NO3/c1-4(6-8)5(2)9-3-7/h3,5,8H,1-2H3	InChI=1S/C5H9NO3/c1-4(6-8)5(2)9-3-7/h3,5,8H,1-2H3/t5-/m1/s1
