16
gdb 9504	2.79055	1.77485	1.61491	1.0519	60.91	-0.2455	-0.033	0.2125	885.222	0.127419	-420.862358	-420.853711	-420.852767	-420.896388	30.242	
C	-0.0103216966	 1.6784151557	-0.0131331549	-0.442144
C	 0.0534002129	 0.1576818855	-0.0122217901	 0.292809
O	 1.1342850575	-0.361623893	-0.8276002209	-0.326606
C	 1.8017057673	-0.9246575757	 0.3250597556	-0.087417
C	 0.6589444137	-0.5145274109	 1.2640958893	 0.017376
O	 1.0865056547	 0.3190835923	 2.3074419078	-0.416727
C	-1.2649221872	-0.4370042659	-0.4675868622	 0.105903
O	-2.2049004629	-0.6110344629	 0.2662569475	-0.259165
H	 0.9156412892	 2.0898680462	 0.3933346178	 0.141704
H	-0.1482535024	 2.0484787987	-1.0337401505	 0.130796
H	-0.8490208773	 2.0241770658	 0.5992191903	 0.130107
H	 1.9870057559	-1.9977413679	 0.2098209496	 0.111205
H	 2.7407707647	-0.4076661452	 0.5524641538	 0.117699
H	 0.0435079134	-1.3416262266	 1.6327040352	 0.095607
H	 0.3460551385	 0.4640583368	 2.9051831222	 0.29555
H	-1.2895153913	-0.7121413828	-1.5457940105	 0.093303
35.01	67.8773	175.7586	207.9224	245.2171	288.9501	317.0113	356.0301	414.5807	515.0523	543.205	699.0971	797.4172	886.6207	922.9889	942.3022	987.4244	1008.2698	1031.9335	1135.7851	1143.0015	1169.8676	1198.4078	1228.7492	1240.4842	1311.6125	1335.3122	1388.8018	1398.7166	1451.2726	1482.4701	1486.6502	1515.5364	1822.7149	2890.0897	3032.195	3043.0957	3051.699	3086.1776	3115.3997	3137.8204	3821.8288
CC1(OCC1O)C=O	C[C@]1(OC[C@H]1O)C=O	
InChI=1S/C5H8O3/c1-5(3-6)4(7)2-8-5/h3-4,7H,2H2,1H3	InChI=1S/C5H8O3/c1-5(3-6)4(7)2-8-5/h3-4,7H,2H2,1H3/t4-,5+/m1/s1
