21
gdb 112647	2.27377	1.36094	0.93436	1.5636	80.07	-0.219	0.0588	0.2778	1320.0867	0.183266	-420.446672	-420.437138	-420.436194	-420.481073	35.878	
C	-0.0367960909	 1.7155071915	-0.0544671853	-0.38758
C	-0.2957016791	 0.2142031868	-0.2169449345	-0.192893
C	 0.7518512339	-0.4803410572	-1.0736679094	 0.106629
O	 2.0563723809	-0.3527153034	-0.4431864242	-0.266609
C	 2.6700509176	-1.5467148701	-0.6605633582	 0.460044
N	 3.9648050576	-1.5897267513	-0.2153770386	-0.579523
N	 2.012365618	-2.5043878427	-1.1861773857	-0.355701
C	 0.6288393152	-2.019502085	-1.3181212537	 0.003631
C	-0.2951803128	-2.7869897385	-0.3666674757	-0.384368
H	 0.9313270471	 1.8921013277	 0.4219868908	 0.132761
H	-0.0305506882	 2.2241311823	-1.0250309795	 0.112764
H	-0.8105229845	 2.1825253428	 0.5622014091	 0.112218
H	-0.3342345213	-0.265501132	 0.7667002143	 0.108915
H	-1.2746302249	 0.0539291988	-0.6854419028	 0.102472
H	 0.8256817844	 0.0356446833	-2.0413758414	 0.079095
H	 4.4604656431	-0.7121956971	-0.2506279428	 0.259222
H	 4.48447881	-2.3822204087	-0.5592104317	 0.265687
H	 0.2807468824	-2.1920922457	-2.3432743157	 0.074627
H	 0.000437322	-2.643883531	 0.6772951591	 0.118334
H	-1.3406054151	-2.4813384968	-0.4789423852	 0.10505
H	-0.2240280256	-3.8551580337	-0.5876257989	 0.125225
61.8928	106.8053	161.4639	174.9771	239.5828	259.8109	289.3849	349.9119	409.3255	432.2584	467.4401	492.4719	560.197	678.5586	728.4413	739.7813	781.7731	819.1948	906.2209	949.5575	954.6299	992.6385	1038.1993	1060.579	1090.567	1107.1475	1149.9092	1172.1624	1190.7015	1282.9544	1302.0842	1318.447	1346.0064	1370.7987	1400.6797	1408.2246	1411.7674	1444.7828	1472.8873	1490.9602	1498.0708	1499.7706	1508.9949	1617.2433	1752.0316	2996.8384	3030.4328	3032.4675	3036.2709	3038.9225	3077.7491	3103.5447	3108.2915	3119.9323	3120.8744	3587.0765	3700.5949
CCC1OC(N)=NC1C	CC[C@H]1O[C](N)[N][C@H]1C	
InChI=1S/C6H12N2O/c1-3-5-4(2)8-6(7)9-5/h4-5H,3H2,1-2H3,(H2,7,8)	InChI=1S/C6H12N2O/c1-3-5-4(2)8-6(7)9-5/h4-5H,3H2,1-2H3,(H2,7,8)/t4-,5+/m0/s1
