18
gdb 117421	3.96108	0.7156	0.70822	3.5755	74.66	-0.252	0.013	0.265	1669.6114	0.14673	-435.286569	-435.276492	-435.275547	-435.323082	34.835	
C	-0.6812965379	 1.471577406	 0.1464268196	-0.391827
C	-0.5037463693	 0.0415735312	-0.3269320593	-0.027459
O	-1.4516983299	-0.7678188703	 0.3900780525	-0.265589
C	-1.4703082355	-2.0791109759	 0.0875127218	 0.494615
N	-0.687142209	-2.5916281074	-0.7718240075	-0.575871
N	-2.4244239683	-2.6929745335	 0.8935088584	-0.327347
C	-2.8718798655	-4.0375388278	 0.6302924484	-0.319494
C	-3.6905373603	-4.1924629514	-0.5913235249	 0.263709
N	-4.3439142422	-4.2989238615	-1.5379851174	-0.294109
H	 0.0250137305	 2.1233301515	-0.3761243502	 0.123835
H	-1.6947016103	 1.8289449681	-0.0577761112	 0.12737
H	-0.4964002541	 1.5548822107	 1.2212488855	 0.127119
H	-0.6870018695	-0.0638660037	-1.4005698237	 0.126612
H	 0.5048789002	-0.3348836108	-0.1303972068	 0.123121
H	-0.8461494234	-3.583578716	-0.9154746415	 0.220182
H	-3.1133650364	-2.0561617778	 1.2656803636	 0.258012
H	-2.007378627	-4.7063639293	 0.5584366737	 0.169176
H	-3.4601723321	-4.385153222	 1.4846344489	 0.167945
39.4412	59.3547	80.474	123.0828	166.7425	232.1517	254.9555	300.7124	368.2282	379.521	452.7389	499.1993	613.1941	680.8757	741.0228	754.712	811.9598	883.4137	896.2113	935.3131	1034.6964	1050.9224	1102.1163	1135.7319	1185.0624	1188.8743	1277.5418	1289.9417	1330.7158	1377.4852	1398.0381	1420.5755	1459.6813	1485.419	1497.4952	1514.7249	1530.6502	1736.116	2358.6322	3045.5264	3054.8628	3055.6844	3091.8432	3097.731	3121.0059	3124.8752	3552.4397	3615.2529
CCOC(=N)NCC#N	CCOC(=N)NCC#N	
InChI=1S/C5H9N3O/c1-2-9-5(7)8-4-3-6/h2,4H2,1H3,(H2,7,8)	InChI=1S/C5H9N3O/c1-2-9-5(7)8-4-3-6/h2,4H2,1H3,(H2,7,8)
