16
gdb 35852	3.32135	1.28533	0.96465	5.6594	71.86	-0.2683	-0.0045	0.2638	1167.6025	0.124689	-437.877275	-437.869325	-437.868381	-437.910202	29.204	
N	-0.3614262468	-0.9203024697	-0.6889817075	-0.31337
C	-0.1777958301	 0.1578649487	-0.3219486528	 0.299914
C	 0.0277470438	 1.5621358124	 0.0944635555	 0.059666
O	-0.6332100754	 1.7350460746	 1.3107012399	-0.228195
C	-1.0345955833	 3.0648726096	 1.6022048183	-0.138172
C	 0.0192937177	 4.1353944227	 1.5416488753	-0.065541
C	 1.188167601	 4.1535777057	 0.9033172422	-0.065575
C	 1.8339945713	 3.1093761612	 0.0356113467	-0.138194
O	 1.403731963	 1.7666959885	 0.1986711608	-0.228193
H	-0.4061244136	 2.2197389101	-0.6815925837	 0.10206
H	-1.867586298	 3.3554715303	 0.9365166518	 0.117565
H	-1.4505573706	 3.013931868	 2.6132390101	 0.13669
H	-0.2772155957	 5.0398637196	 2.0705013852	 0.103551
H	 1.7715449111	 5.0717244827	 0.9516553841	 0.10355
H	 1.7169097244	 3.4108783327	-1.0211994408	 0.11756
H	 2.9104182213	 3.0816511127	 0.2314437149	 0.136683
71.9763	129.2349	180.0057	197.0734	335.1391	352.7769	401.7706	421.6243	548.4178	591.7399	603.1286	677.8024	831.5216	834.8603	927.0775	972.7063	995.3041	1021.0288	1022.997	1048.25	1055.0439	1139.3683	1155.5768	1264.967	1272.8089	1295.2946	1373.7028	1395.4549	1409.4018	1412.9832	1422.3173	1483.2767	1483.6938	1747.5216	2380.1124	2938.5208	2946.5779	2948.1868	3078.2102	3078.7686	3132.0703	3153.9951
N#CC1OCC=CCO1	N#C[C@H]1OCC=CCO1	
InChI=1S/C6H7NO2/c7-5-6-8-3-1-2-4-9-6/h1-2,6H,3-4H2	InChI=1S/C6H7NO2/c7-5-6-8-3-1-2-4-9-6/h1-2,6H,3-4H2
