17
gdb 45003	2.40296	1.75386	1.1555	1.7481	75.36	-0.2546	-0.0144	0.2403	1053.1019	0.13906	-418.057278	-418.049893	-418.048949	-418.089247	29.05	
N	-0.0520012814	 1.3215970896	 0.4552055056	-0.509687
C	-0.0198509239	 0.1159376512	 0.0476753495	 0.358592
C	-1.3139337412	-0.636083144	-0.1806954839	-0.271225
C	-1.2466286053	-1.6792675813	-1.2762772986	-0.047873
C	-0.5482495535	-1.389656638	-2.565898291	-0.294017
C	 0.0945521388	-2.3287990615	-1.5477284166	-0.134463
C	 1.2912314251	-1.852062776	-0.806162733	 0.413743
O	 2.3505035429	-2.4411007818	-0.7804439015	-0.362136
N	 1.1446539254	-0.6316571726	-0.1469609491	-0.374686
H	 0.8876772973	 1.6946959824	 0.608584066	 0.207366
H	-1.567153722	-1.1318582974	 0.7660420217	 0.13433
H	-2.0940791735	 0.1040944709	-0.3707874765	 0.141621
H	-2.1075206918	-2.3381463443	-1.3245953481	 0.103814
H	-0.9228446752	-1.8458645424	-3.4745929262	 0.129251
H	-0.0955914744	-0.4137179321	-2.7057798763	 0.136866
H	 0.1454364846	-3.3806252147	-1.7976492659	 0.117288
H	 2.0131486082	-0.259182698	 0.2151063337	 0.251218
97.8409	130.4343	235.4548	332.3846	374.2333	466.6989	490.8902	512.6536	568.0174	619.8588	662.8056	749.8412	780.3209	821.239	865.5838	884.4929	901.8697	939.6986	1001.0094	1018.9746	1054.0323	1073.5986	1114.3667	1127.2286	1145.7142	1210.7214	1236.6794	1295.4823	1338.9224	1363.2201	1390.7562	1418.3439	1424.3851	1471.4502	1492.5783	1729.3635	1802.4108	3027.5735	3109.9267	3139.4734	3160.6485	3201.6272	3228.7636	3442.7204	3586.0018
N=C1CC2CC2C(=O)N1	[NH][C]1C[C@H]2C[C@H]2C(=O)N1	
InChI=1S/C6H8N2O/c7-5-2-3-1-4(3)6(9)8-5/h3-4H,1-2H2,(H2,7,8,9)	InChI=1S/C6H8N2O/c7-5-2-3-1-4(3)6(9)8-5/h3-4H,1-2H2,(H2,7,8,9)/t3-,4-/m1/s1
