17
gdb 51348	6.09604	0.85075	0.84191	0.9992	72.68	-0.2424	-0.027	0.2154	1347.7696	0.134505	-421.730636	-421.722995	-421.722051	-421.763994	28.483	
O	-0.3139767853	-0.0051854732	-0.2118174717	-0.236019
C	-0.014733751	 1.1469927766	-0.0331799048	 0.163642
C	 1.3732634052	 1.720609739	-0.2182229116	-0.302848
C	 1.39154768	 2.8286855046	-1.2765199583	-0.049386
C	 0.8064329355	 4.222113602	-0.9310438898	-0.102923
C	 2.1085232893	 4.6703125167	-0.188386663	 0.089793
O	 2.2546643608	 5.910589331	-0.9378005302	-0.325201
C	 1.7818153881	 4.9387078368	-1.9152507746	 0.086849
C	 2.6264183363	 3.7561443375	-1.3470211135	-0.107315
H	-0.7815263997	 1.8933359419	 0.2817493056	 0.07368
H	 1.6979562675	 2.1306864172	 0.748657523	 0.114616
H	 2.0500966305	 0.9047626942	-0.4897121036	 0.123215
H	 1.0706986454	 2.4339319152	-2.2471207523	 0.087433
H	-0.2144102299	 4.5237503628	-0.6971078168	 0.090442
H	 2.3529046706	 4.6752799033	 0.8728868131	 0.101632
H	 1.6269166979	 5.256035058	-2.9457087737	 0.102797
H	 3.6644214489	 3.5204073466	-1.581468068	 0.089591
51.1727	66.6904	166.1485	206.5224	347.134	441.627	550.3869	556.0956	747.9187	754.3731	798.3244	825.6897	836.0652	842.5223	891.2213	901.504	922.0646	969.0742	1026.6425	1031.4166	1069.2683	1095.2306	1113.1762	1135.5588	1149.7723	1164.4785	1174.2978	1183.1583	1213.5871	1243.7726	1280.4208	1303.4256	1336.7036	1399.7494	1430.1432	1461.9529	1835.5659	2856.2853	3015.7221	3045.8964	3094.0408	3116.4526	3121.6596	3127.4918	3140.5695
O=CCC1C2C3OC2C13	O=CC[C@H]1[C@H]2[C@@H]3O[C@H]2[C@H]13	
InChI=1S/C7H8O2/c8-2-1-3-4-6-5(3)7(4)9-6/h2-7H,1H2	InChI=1S/C7H8O2/c8-2-1-3-4-6-5(3)7(4)9-6/h2-7H,1H2/t3-,4-,5+,6-,7+
