16
gdb 65758	2.64847	1.246	1.10788	2.8614	66.96	-0.2679	-0.0152	0.2527	1150.0752	0.122687	-475.03841	-475.029593	-475.028649	-475.072397	31.206	
C	-0.0401700538	 1.6564714136	-0.0193129515	-0.447358
C	-0.0516239031	 0.136033705	-0.021533472	 0.18533
C	 0.7602546859	-0.573219931	-1.1221661979	-0.117823
O	 1.6993200894	-1.084495934	-0.1168458844	-0.236139
C	 0.9859101571	-0.5420006843	 0.9125970775	 0.429
O	 1.1860788588	-0.6310934515	 2.0815048977	-0.324948
O	-1.3681530296	-0.3882892516	 0.0553048627	-0.233934
C	-1.9929017256	-0.3372498327	 1.2638849759	 0.101902
N	-3.2167466577	-0.6282917822	 1.325748957	-0.433072
H	 0.974599922	 2.0402201252	-0.1581505138	 0.138335
H	-0.6765408696	 2.029868921	-0.8267497906	 0.146979
H	-0.4218354497	 2.0408331123	 0.9306423243	 0.144406
H	 0.2297563627	-1.3894359182	-1.6125807571	 0.149332
H	 1.2742096518	 0.0659144685	-1.8412448748	 0.131926
H	-1.3314737279	-0.0654160287	 2.0924557186	 0.129991
H	-3.5358314707	-0.5789279915	 2.2914047285	 0.236075
74.5009	120.2128	142.712	152.2998	225.1714	235.5442	309.9233	347.7573	409.1325	511.9972	590.9939	725.1117	771.8152	782.3061	829.707	914.8512	927.5384	961.0737	970.9589	1052.5617	1089.7169	1116.7659	1155.9362	1187.1461	1219.1671	1246.6242	1284.8281	1360.7129	1410.0918	1427.007	1483.4472	1489.6608	1509.6448	1743.9947	1929.9344	3044.7004	3082.595	3088.7294	3123.3062	3125.867	3160.0857	3517.1327
CC1(COC1=O)OC=N	C[C@]1(COC1=O)O[CH][NH]	
InChI=1S/C5H7NO3/c1-5(9-3-6)2-8-4(5)7/h3,6H,2H2,1H3	InChI=1S/C5H7NO3/c1-5(9-3-6)2-8-4(5)7/h3,6H,2H2,1H3/t5-/m1/s1
