18
gdb 55708	3.1048	1.0691	0.87309	3.6895	78.9	-0.2386	-0.0309	0.2077	1341.3906	0.144562	-401.905418	-401.895728	-401.894784	-401.940874	35.138	
C	 0.1024523814	 1.575544777	-0.5352885454	-0.480878
C	 0.5776424607	 0.1484623275	-0.3556598217	 0.384574
O	 1.7584792854	-0.1294367167	-0.3528953596	-0.303386
C	-0.5199185281	-0.8884451411	-0.1402697177	-0.392339
C	-0.2525868837	-2.3297329577	-0.5824247034	 0.090525
C	 0.5944355275	-2.628627716	-1.7789504251	-0.26625
N	 1.082613	-2.9513028623	-0.4356556771	-0.338977
C	-1.3694359366	-3.1988692576	-0.2890233166	 0.308556
C	-2.3312421103	-3.8766799406	-0.0419073846	-0.416291
H	 0.9521614411	 2.2585236309	-0.5130668708	 0.147771
H	-0.4182735405	 1.6697089885	-1.4957093283	 0.149932
H	-0.6203527645	 1.8442656006	 0.2428329087	 0.144254
H	-0.7248579746	-0.8856728947	 0.9411070798	 0.151313
H	-1.4467423548	-0.5379802258	-0.6077522736	 0.130235
H	 0.3397759373	-3.4815479649	-2.4004541093	 0.125322
H	 1.0415643554	-1.7885601005	-2.3030033228	 0.118615
H	 1.732656404	-2.2179554589	-0.1561034781	 0.253907
H	-3.1650413697	-4.4973459178	 0.1749987057	 0.193119
29.8983	76.8866	131.1439	152.4022	217.4447	237.943	316.0331	337.6374	370.3116	476.8715	538.8497	559.6974	588.4429	610.1681	655.7448	719.8755	800.5408	831.7094	891.4436	921.6447	949.6034	997.7486	1012.2538	1043.9382	1104.984	1133.7991	1179.9134	1237.4866	1295.3174	1312.5446	1338.8937	1382.3733	1400.707	1452.3199	1460.9724	1474.7868	1503.1605	1796.585	2237.6771	3010.0187	3035.8097	3067.6473	3096.7871	3114.9542	3155.362	3205.0306	3486.8977	3503.091
CC(=O)CC1(CN1)C#C	CC(=O)C[C@]1(CN1)C#C	
InChI=1S/C7H9NO/c1-3-7(5-8-7)4-6(2)9/h1,8H,4-5H2,2H3	InChI=1S/C7H9NO/c1-3-7(5-8-7)4-6(2)9/h1,8H,4-5H2,2H3/t7-/m0/s1
