15
gdb 61741	3.40901	0.947	0.82104	2.2309	68.87	-0.271	-0.1048	0.1662	1344.8115	0.110512	-453.989555	-453.980111	-453.979166	-454.024749	32.24	
C	-0.0115976559	 1.5925409957	 0.1534808847	-0.417439
C	 0.0613913554	 0.0559982484	 0.0132265801	-0.059172
N	 0.6991924271	-0.3726881173	-1.2105097307	-0.29442
C	 0.046241617	-0.3337912263	-2.4023915862	 0.155797
O	-1.0682204682	 0.1206619886	-2.5558529445	-0.322492
C	 0.8120980205	-0.560915266	 1.1773017822	 0.296068
O	 1.8289017431	-1.2014365024	 1.0690080738	-0.281654
C	 0.2211120431	-0.318736901	 2.5057803944	 0.253517
N	-0.2494987463	-0.1392848369	 3.5464256991	-0.296499
H	 0.9903238688	 2.0299219684	 0.1334630501	 0.134288
H	-0.5889963139	 1.9775597207	-0.6881447657	 0.173093
H	-0.5099290785	 1.8787934224	 1.0834258094	 0.149002
H	-0.9689810407	-0.3273676372	 0.0379516798	 0.148418
H	 1.5869290079	-0.8462241506	-1.1232169343	 0.267657
H	 0.6514808505	-0.7594918665	-3.224882002	 0.093835
49.4469	72.5499	120.6351	186.7613	211.9587	239.2654	273.2937	281.3317	336.5167	428.7139	485.3673	556.6203	593.7646	707.897	746.883	866.1898	898.1897	1033.7829	1051.7229	1072.1313	1089.5108	1158.2959	1222.4344	1301.0449	1355.2595	1397.5923	1423.2964	1478.1863	1503.4757	1518.9702	1783.4601	1800.0278	2341.6792	2959.8945	3016.1848	3052.6731	3131.3521	3153.1618	3609.7597
CC(NC=O)C(=O)C#N	C[C@@H](NC=O)C(=O)C#N	
InChI=1S/C5H6N2O2/c1-4(7-3-8)5(9)2-6/h3-4H,1H3,(H,7,8)	InChI=1S/C5H6N2O2/c1-4(7-3-8)5(9)2-6/h3-4H,1H3,(H,7,8)/t4-/m1/s1
