17
gdb 39162	3.17663	1.77031	1.29916	1.7197	74.92	-0.2088	0.0054	0.2142	966.2838	0.137237	-421.796004	-421.789079	-421.788135	-421.827244	27.723	
C	-0.0092465141	 1.5127631879	-0.0545206729	-0.389943
C	 1.3079403274	 0.7568032311	 0.0089673957	 0.02276
O	 1.9142554986	 0.597598657	 1.2772452803	-0.274848
C	 0.991649825	-0.0552525611	 2.1758509184	-0.195012
C	-0.0090914585	-0.7088891328	 1.276342673	 0.273317
C	-0.6778048466	-1.8477703924	 1.1393275391	-0.290261
C	-1.190602102	-1.9330535594	-0.2831915006	-0.127002
O	-0.60629401	-0.8108482331	-0.9736881596	-0.312979
C	 0.0025396609	 0.0039336449	-0.0173040132	 0.35561
H	-0.3581056517	 2.0962418379	 0.792775455	 0.115308
H	-0.2387129133	 1.9373617944	-1.0272755214	 0.1269
H	 2.0309964222	 0.8219838469	-0.7945765678	 0.115524
H	 1.5562499345	-0.7581121139	 2.7943743978	 0.129067
H	 0.5295096781	 0.6890550827	 2.8410196396	 0.114701
H	-0.7915984379	-2.6493851809	 1.8572104908	 0.109674
H	-0.8699224678	-2.8617063466	-0.775260813	 0.116544
H	-2.2877989447	-1.8799812026	-0.3631362611	 0.110639
111.2004	210.6051	250.0555	321.4009	385.9938	442.3494	543.2341	596.945	681.6306	730.2291	780.4042	812.7588	831.0477	859.9565	930.776	945.9933	962.9464	992.0096	1008.2507	1018.1707	1032.7647	1040.3959	1077.1372	1125.4683	1126.8191	1192.2071	1200.1556	1233.1703	1267.8274	1336.424	1363.4176	1366.8645	1400.964	1472.3511	1508.3693	1516.6528	1745.0489	2978.1833	2993.5566	3018.9867	3086.5651	3116.2821	3193.2017	3210.1627	3221.1975
C1C2OCC3=CCOC123	C1[C@H]2OCC3=CCO[C@]123	
InChI=1S/C7H8O2/c1-2-9-7-3-6(7)8-4-5(1)7/h1,6H,2-4H2	InChI=1S/C7H8O2/c1-2-9-7-3-6(7)8-4-5(1)7/h1,6H,2-4H2/t6-,7+/m1/s1
