19
gdb 104641	2.61842	1.22052	0.98759	2.8161	77.64	-0.2293	0.0168	0.246	1272.296	0.157381	-419.177239	-419.167641	-419.166697	-419.211706	34.465	
C	 0.0042095145	 1.4185978879	 0.1155606764	-0.266996
O	-0.0871620561	 0.0107708629	-0.0475119777	-0.279622
C	 0.5863999682	-0.5090381324	-1.1610280861	 0.275765
C	 2.1442538333	-0.5924031739	-1.0346536291	-0.225706
N	 2.0025762178	-1.9801186272	-0.5681854736	-0.068443
C	 2.9627850967	-2.9615509945	-1.0187053771	-0.325954
C	 0.6226946548	-2.0583617411	-1.0745708344	-0.210618
C	 0.0812525125	 0.059831571	-2.4193947129	 0.239632
N	-0.3139751158	 0.5178736579	-3.404463253	-0.34773
H	 1.0445964481	 1.7487387113	 0.2359273685	 0.116197
H	-0.4427699317	 1.9528457662	-0.7326995391	 0.137727
H	-0.5505680469	 1.6571773344	 1.0243806526	 0.141009
H	 2.6381442514	-0.4935826789	-2.013529688	 0.106555
H	 2.6110505991	 0.0938007677	-0.3207414952	 0.119261
H	 3.9515236366	-2.7240909646	-0.6128976666	 0.127381
H	 2.6794750339	-3.9523070138	-0.648954956	 0.128557
H	 3.0470734841	-3.0161625084	-2.1210353714	 0.096339
H	-0.1088042469	-2.487844513	-0.3840562006	 0.129479
H	 0.5301086563	-2.5310175514	-2.0638046367	 0.107166
73.9786	115.3704	167.4134	172.5256	190.4071	230.4209	255.4147	303.427	336.5687	391.8637	437.6036	504.9786	580.8972	631.9461	739.133	866.7593	933.9463	940.1584	1004.2478	1057.2879	1068.1092	1109.6598	1131.4708	1144.693	1183.165	1184.5576	1219.6587	1234.8044	1254.7272	1273.4209	1301.158	1347.1287	1452.2865	1478.8983	1484.4104	1486.4279	1490.2137	1498.5859	1506.3473	1514.2869	2349.4329	2925.4842	2983.3526	2995.78	3005.1958	3061.6826	3063.7817	3072.1888	3086.3556	3104.0024	3136.5027
COC1(CN(C)C1)C#N	COC1(CN(C)C1)C#N	
InChI=1S/C6H10N2O/c1-8-4-6(3-7,5-8)9-2/h4-5H2,1-2H3	InChI=1S/C6H10N2O/c1-8-4-6(3-7,5-8)9-2/h4-5H2,1-2H3
