17
gdb 109100	3.13978	1.25525	0.95883	5.8153	79.7	-0.2253	-0.0762	0.1491	1228.506	0.136134	-418.047702	-418.038857	-418.037913	-418.081617	32.128	
C	 0.0882785395	 1.5645389442	-0.1064956894	-0.376648
C	-0.0949914318	 0.0472807849	 0.0716485882	-0.296424
C	 0.637202367	-0.4952345179	 1.2597445228	 0.161583
C	 0.1378349187	-1.0542519002	 2.3848790964	-0.117883
N	 1.1203654239	-1.5053349309	 3.2651620207	-0.361199
C	 2.3807417055	-1.1638530226	 2.7732189841	 0.304687
N	 3.5314158247	-1.304579538	 3.2847498051	-0.483157
C	 2.1019529795	-0.5278380269	 1.3905639929	 0.278958
O	 2.9485917375	-0.1565433026	 0.6101891433	-0.313696
H	 1.147695259	 1.8090687713	-0.2164418871	 0.149016
H	-0.4397939748	 1.9156448023	-0.998283788	 0.111718
H	-0.3010512684	 2.1114582418	 0.7582286516	 0.110411
H	-1.1606646133	-0.1957363632	 0.1568772145	 0.09645
H	 0.2703970021	-0.4581096154	-0.8311602491	 0.120318
H	-0.9024265352	-1.2058833129	 2.6449890868	 0.139242
H	 0.9405370284	-1.7271523827	 4.2297992057	 0.258628
H	 3.4884991779	-1.7443441613	 4.2082019612	 0.217996
63.1615	91.4825	160.9481	194.9837	242.7489	284.8934	323.3845	368.7443	413.161	523.8657	561.9618	589.0982	700.1572	758.1797	802.019	829.7003	894.3209	915.7534	926.7385	994.3711	1040.814	1089.0968	1098.0142	1126.4074	1215.2948	1276.6608	1339.8433	1349.6885	1374.0044	1404.7402	1422.5265	1478.1	1496.9364	1511.0787	1671.7452	1751.2247	1803.4738	3023.8651	3039.8588	3060.9825	3107.6788	3128.6862	3214.7277	3432.6209	3658.0493
CCC1=CNC(=N)C1=O	CCC1=CN[C]([NH])C1=O	
InChI=1S/C6H8N2O/c1-2-4-3-8-6(7)5(4)9/h3H,2H2,1H3,(H2,7,8,9)	InChI=1S/C6H8N2O/c1-2-4-3-8-6(7)5(4)9/h3H,2H2,1H3,(H2,7,8,9)
