18
gdb 62148	4.85195	0.64836	0.6044	3.2888	76.49	-0.2515	0.0267	0.2782	1782.4429	0.144995	-439.073189	-439.062915	-439.06197	-439.109731	36.047	
O	-0.2831458266	 1.4025739751	-0.0282365147	-0.428187
C	 0.1297002089	 0.0407493635	-0.0647043311	 0.115563
C	 1.0526727296	-0.2041530499	-1.2640564071	-0.164095
N	 0.4286750073	 0.2760000953	-2.4793614818	-0.279841
C	 0.3950375184	-0.441568937	-3.6317780958	 0.153634
O	 0.9256075659	-1.5198758585	-3.8003625391	-0.325782
C	 0.7970726616	-0.4062965673	 1.2498791597	-0.396519
C	-0.0476506331	-0.2205603245	 2.4217408653	 0.305052
C	-0.7491029087	-0.0705395346	 3.3852715427	-0.426141
H	 0.4478241287	 1.9323089296	 0.3108021963	 0.28528
H	-0.796181476	-0.5261443349	-0.2078384792	 0.114747
H	 2.0145597178	 0.3043625126	-1.0923918332	 0.098902
H	 1.263272222	-1.2678795984	-1.4007152831	 0.147722
H	-0.0849803319	 1.1413828049	-2.4102751782	 0.254956
H	-0.1805042888	 0.079694472	-4.4220231243	 0.075972
H	 1.0819119767	-1.4621556984	 1.1573122967	 0.144826
H	 1.7387849682	 0.148452648	 1.3771268872	 0.12436
H	-1.3695585398	 0.0614908325	 4.2367576398	 0.199551
33.0983	65.4281	95.6731	111.3371	199.4485	235.0617	289.9141	311.5071	340.9254	350.8115	408.7405	459.235	589.1251	603.7377	625.5583	644.8901	772.8573	864.6145	910.6233	946.9056	1024.4665	1027.7631	1037.9711	1091.7653	1122.4662	1187.979	1215.2488	1237.6863	1282.852	1338.0226	1361.3286	1399.8581	1422.2364	1428.4882	1466.6364	1498.0888	1521.9527	1803.0309	2244.3282	2939.5538	2980.6373	3000.3231	3046.0953	3071.1522	3109.2556	3506.85	3626.7233	3793.2605
OC(CNC=O)CC#C	O[C@@H](CNC=O)CC#C	
InChI=1S/C6H9NO2/c1-2-3-6(9)4-7-5-8/h1,5-6,9H,3-4H2,(H,7,8)	InChI=1S/C6H9NO2/c1-2-3-6(9)4-7-5-8/h1,5-6,9H,3-4H2,(H,7,8)/t6-/m1/s1
