19
gdb 83780	2.73481	1.81573	1.6234	0.643	72.27	-0.2376	0.0563	0.294	916.1742	0.162202	-422.994742	-422.987779	-422.986835	-423.025704	28.946	
O	 0.0925903399	 1.4884544627	-0.1098229837	-0.443387
C	-0.0429851268	 0.0940130903	 0.0000490133	 0.164078
C	 0.235231413	-0.6555445078	 1.3406521395	-0.135698
C	-0.3571639922	 0.1235166433	 2.5268102481	-0.21586
C	-1.8255282535	 0.5211117546	 2.2071263061	-0.244645
C	-2.342368932	-0.4795334351	 1.1785972972	 0.101858
O	-1.9869170748	-1.8083520113	 1.6735669672	-0.302487
C	-0.8109988998	-1.7385475684	 0.8556990434	 0.12916
C	-1.3952794473	-0.6431085174	-0.0646590099	-0.150577
H	-0.4327014944	 1.9099435811	 0.5755100882	 0.283397
H	 0.5941761131	-0.3132651099	-0.7917636881	 0.092163
H	 1.2592487467	-0.9816259966	 1.5309235814	 0.067177
H	-0.3391032771	-0.5120879452	 3.4151918749	 0.119236
H	 0.2575053328	 1.0017632462	 2.7482726537	 0.10127
H	-2.4437689876	 0.4740208762	 3.108886325	 0.112963
H	-1.9206388956	 1.5455643591	 1.8245086912	 0.088617
H	-3.4128025197	-0.3998846181	 0.9741646475	 0.078839
H	-0.4347521784	-2.7124340525	 0.5410293898	 0.080295
H	-1.8914545962	-0.833587691	-1.0161519546	 0.073602
185.2533	206.4433	240.018	296.6743	397.3253	474.2808	538.6486	593.1076	625.0067	724.6637	764.1602	803.4455	810.3517	820.1883	853.0895	889.0313	948.0536	991.1686	1008.6611	1019.3452	1050.4536	1062.0797	1085.9484	1109.0594	1113.9273	1139.1789	1183.3951	1205.6349	1234.5806	1255.4116	1258.2699	1290.64	1310.2244	1321.225	1325.8023	1347.2459	1362.036	1376.6161	1446.0378	1483.6333	1501.018	3019.5484	3055.8005	3058.9311	3072.2099	3080.7902	3090.8651	3103.9888	3105.2835	3117.2003	3842.5138
OC1C2CCC3OC2C13	O[C@H]1[C@H]2CC[C@@H]3O[C@H]2[C@H]13	
InChI=1S/C7H10O2/c8-6-3-1-2-4-5(6)7(3)9-4/h3-8H,1-2H2	InChI=1S/C7H10O2/c8-6-3-1-2-4-5(6)7(3)9-4/h3-8H,1-2H2/t3-,4+,5+,6+,7-/m1/s1
