19
gdb 52325	4.3985	0.74039	0.71193	2.5086	72.73	-0.2524	-0.0314	0.221	1597.2575	0.157591	-460.158157	-460.148817	-460.147873	-460.194596	32.02	
O	-0.6998698642	 0.7151297385	 0.3256386171	-0.235798
C	-0.124072109	 1.4377161264	-0.4425646038	 0.140494
C	 1.2076709647	 2.1024002936	-0.1341335512	-0.156058
O	 1.5692879623	 2.8872890293	-1.2405101422	-0.266049
C	 2.8516656673	 3.4989590506	-1.1498119701	 0.102428
C	 3.1808603783	 4.0774222287	-2.528963948	-0.24333
C	 2.5008598691	 5.4456805007	-2.4552218248	-0.065258
O	 2.7184110837	 5.8908379579	-1.119753574	-0.258107
C	 2.8418357624	 4.7623302453	-0.2594824707	-0.07899
H	-0.5190865013	 1.6806182558	-1.4534189066	 0.097458
H	 1.0975589868	 2.6885215869	 0.7924373494	 0.125467
H	 1.953805359	 1.3155093763	 0.071422941	 0.122658
H	 3.5854585237	 2.7576473052	-0.8051141079	 0.072619
H	 4.2636505109	 4.1952260417	-2.632725531	 0.111123
H	 2.8113831984	 3.4355613751	-3.3304040012	 0.115723
H	 2.9284079242	 6.1902136004	-3.1323459391	 0.108827
H	 1.4251069802	 5.3553806106	-2.667312209	 0.101836
H	 2.0043388862	 4.7316318513	 0.4501262567	 0.10174
H	 3.7715016774	 4.8590019858	 0.3154184555	 0.103218
36.9601	51.7785	67.5504	121.555	131.8491	212.3149	308.8555	374.7379	457.1785	545.7585	653.657	738.1077	756.4025	857.9128	876.9564	923.0636	933.382	969.9661	1000.5053	1045.2585	1067.1864	1113.3641	1118.3085	1146.3769	1159.2684	1192.473	1231.589	1240.4482	1256.3839	1294.3307	1325.9253	1342.0517	1364.3815	1384.8208	1405.6313	1418.4879	1473.1619	1485.3307	1506.4775	1522.3537	1845.5671	2902.0892	2963.4186	2994.7644	2997.827	3006.5673	3017.4898	3047.2059	3065.9913	3090.3024	3131.2315
O=CCOC1CCOC1	O=CCO[C@H]1CCOC1	
InChI=1S/C6H10O3/c7-2-4-9-6-1-3-8-5-6/h2,6H,1,3-5H2	InChI=1S/C6H10O3/c7-2-4-9-6-1-3-8-5-6/h2,6H,1,3-5H2/t6-/m0/s1
