27
gdb 116157	2.80736	0.97072	0.7689	0.0818	96.42	-0.2845	0.0853	0.3698	1627.4463	0.253798	-353.597829	-353.58782	-353.586876	-353.632347	39.165	
C	-0.1307971046	 1.5673341122	 0.0996973696	-0.39112
C	 0.001717115	 0.0436702759	 0.0054272003	-0.179787
C	 0.7513414817	-0.4671619978	-1.2367759434	 0.041586
C	 2.2303046762	-0.0436879082	-1.2619713784	-0.183206
C	 2.9663947724	-0.5955606974	-2.491136935	-0.215494
C	 2.8341597142	-2.1203343571	-2.5918261067	-0.17442
C	 1.364007623	-2.5686675359	-2.583664217	 0.034475
C	 1.2351354068	-4.0931350117	-2.657571174	-0.402122
C	 0.6412082031	-1.9981316652	-1.352004585	-0.185261
H	 0.8417454345	 2.0597338672	 0.1957920207	 0.117776
H	-0.6228129498	 1.9767679744	-0.7900162349	 0.111357
H	-0.7290842286	 1.8546832039	 0.9702163183	 0.109675
H	 0.5027077088	-0.3374638783	 0.9063625705	 0.089827
H	-1.0026881213	-0.3998543906	 0.0105888628	 0.088004
H	 0.2642569178	-0.0307102486	-2.1237803166	 0.06103
H	 2.318216319	 1.0478873923	-1.2387671018	 0.088817
H	 2.7195507295	-0.4146864197	-0.3489042186	 0.086274
H	 2.5488920897	-0.1359631222	-3.3979650149	 0.090064
H	 4.0235154819	-0.3074744283	-2.458371174	 0.08687
H	 3.3324206641	-2.4873517887	-3.4974552653	 0.084302
H	 3.3529060889	-2.5878570717	-1.741815685	 0.086328
H	 0.882732171	-2.1432857103	-3.4779651004	 0.064595
H	 1.7026007331	-4.5684781759	-1.7867379302	 0.109894
H	 0.1852376153	-4.40488344	-2.6811001944	 0.106942
H	 1.7233930218	-4.4912248596	-3.5537855129	 0.106835
H	 1.0675331826	-2.4559971435	-0.4458559944	 0.08419
H	-0.4161686863	-2.2922361651	-1.3737888492	 0.082567
79.2415	125.6826	152.3808	195.6961	229.0142	243.9813	285.6607	295.4342	362.2498	411.1789	427.664	439.4886	482.2982	547.731	759.9204	787.877	831.8158	858.6701	879.6476	903.1793	916.3232	957.8362	984.0924	988.9629	1032.4359	1043.1829	1063.7468	1075.0816	1094.8212	1121.3469	1133.1851	1186.0198	1195.4192	1239.724	1269.6679	1290.	1296.9363	1308.3303	1336.0688	1341.1401	1358.9372	1375.3899	1382.1403	1389.5423	1391.7196	1399.784	1411.4207	1414.357	1477.8517	1483.7977	1487.7437	1489.2972	1497.2206	1499.9369	1500.815	1503.0299	1508.8142	2971.6529	2980.4101	2991.8922	2999.7912	3002.332	3009.2101	3011.9258	3022.57	3031.4501	3036.5677	3044.0795	3050.7229	3058.2726	3065.6736	3087.7952	3093.6575	3096.1697	3105.1567
CCC1CCCC(C)C1	CC[C@H]1CCC[C@@H](C)C1	
InChI=1S/C9H18/c1-3-9-6-4-5-8(2)7-9/h8-9H,3-7H2,1-2H3	InChI=1S/C9H18/c1-3-9-6-4-5-8(2)7-9/h8-9H,3-7H2,1-2H3/t8-,9+/m1/s1
