15
gdb 48920	3.27641	1.50508	1.30497	3.8357	66.36	-0.2518	-0.0407	0.2111	967.6859	0.112051	-457.692111	-457.685194	-457.68425	-457.72374	26.43	
O	 0.0815837523	-0.090372919	 0.041948814	-0.242293
C	 0.070556938	 1.1112909646	-0.0333879627	 0.018385
C	 1.2827567309	 1.9662690784	-0.0264060391	 0.325221
O	 2.6127397694	 1.3826037186	 0.0153978909	-0.324928
C	 2.8692812534	 2.8234330783	-0.0086723486	 0.020606
C	 1.7404064065	 3.0708073228	-1.0555104029	-0.134863
C	 1.0558711147	 4.3715035279	-0.6783059466	-0.116773
O	 1.0734274698	 4.2955107275	 0.7676788798	-0.263083
C	 1.7215302903	 3.0859220726	 1.0080301646	 0.052396
H	-0.8780087221	 1.6910329605	-0.1034566395	 0.085161
H	 3.9052225898	 3.1595176321	-0.0125849244	 0.106013
H	 1.8896255804	 2.7992155545	-2.098447019	 0.10611
H	 1.6070321032	 5.2593690258	-1.008347905	 0.122816
H	 0.0208388932	 4.4493409605	-1.0282435478	 0.12288
H	 1.8206495201	 2.8564158949	 2.0662950864	 0.122352
98.4787	151.4921	220.3852	316.016	357.3414	495.8504	535.8533	648.1264	715.0654	754.4889	759.3046	815.6234	900.8148	930.6211	938.7388	977.1022	984.8008	1013.896	1022.9537	1050.6745	1106.6217	1119.2175	1160.0361	1186.5653	1212.986	1223.7942	1263.7387	1297.0891	1330.2941	1388.1877	1427.4853	1518.0023	1819.2034	2872.2088	3036.5715	3078.2439	3131.559	3155.8713	3169.3331
O=CC12OC3C1COC23	O=C[C@@]12O[C@H]3[C@@H]1CO[C@@H]23	
InChI=1S/C6H6O3/c7-2-6-3-1-8-5(6)4(3)9-6/h2-5H,1H2	InChI=1S/C6H6O3/c7-2-6-3-1-8-5(6)4(3)9-6/h2-5H,1H2/t3-,4-,5+,6+/m0/s1
