12
gdb 13062	4.72358	1.24496	1.0375	4.289	52.97	-0.2905	-0.027	0.2635	1038.2551	0.082655	-455.644142	-455.636922	-455.635978	-455.677024	24.176	
O	-0.1465749119	 0.0311846935	-0.0769671957	-0.251331
C	-0.0712249729	 1.2159909387	-0.0197338049	 0.179398
O	 1.1088194717	 1.8750438442	-0.1671912196	-0.183425
C	 1.0997109959	 3.2790720452	-0.1052455541	-0.060461
C	 2.3178412305	 3.9281856971	 0.5724955106	-0.102935
O	 2.6265309299	 4.6451018218	-0.6659766807	-0.231895
C	 1.6250895995	 4.0156864838	-1.3608750544	 0.436937
O	 1.3562185692	 4.0939255026	-2.51156359	-0.299916
H	-0.9206134076	 1.9020206298	 0.1611459594	 0.093252
H	 0.1302444341	 3.6637134619	 0.2305149229	 0.130016
H	 2.1217219743	 4.6235896264	 1.3896003854	 0.138407
H	 3.1104439975	 3.2232906249	 0.8277264811	 0.151953
41.1421	123.3842	144.6493	233.2391	271.4562	402.0288	498.4506	583.8413	731.2423	768.1485	904.3475	928.2367	963.6496	1036.7813	1072.1768	1116.3277	1138.1069	1164.3723	1178.261	1219.4662	1330.0176	1386.1303	1437.9158	1509.6832	1886.1991	1956.7412	2960.1149	3055.1015	3085.938	3154.1505
O=COC1COC1=O	O=CO[C@H]1COC1=O	
InChI=1S/C4H4O4/c5-2-8-3-1-7-4(3)6/h2-3H,1H2	InChI=1S/C4H4O4/c5-2-8-3-1-7-4(3)6/h2-3H,1H2/t3-/m0/s1
