16
gdb 19024	4.66465	1.66031	1.64855	0.8307	63.15	-0.242	0.0624	0.3043	831.4035	0.131111	-383.661433	-383.654947	-383.654003	-383.691756	25.962	
O	-0.0250377316	 1.3048302101	 0.0762431092	-0.441306
C	-0.0123644246	-0.0919587784	-0.0134055841	 0.088868
C	-1.3888737906	-0.6762653904	-0.0120610006	-0.089028
C	-0.5328876062	-0.6746148081	-1.3022478237	-0.116135
C	-0.5002816071	-2.2127802431	-1.2539595606	 0.099078
O	 0.6012102753	-2.822912085	-0.5260664659	-0.30327
C	-0.2153160969	-2.9682884897	 0.6676096621	-0.10719
C	-1.3903107405	-2.2206014395	 0.0027892999	-0.082705
H	 0.7278352447	 1.6373797598	-0.4236634135	 0.288264
H	 0.8132349705	-0.5778110512	 0.5020226412	 0.104867
H	-2.2324464966	-0.0457753283	 0.2391908211	 0.100574
H	-0.6257319971	-0.0600847431	-2.1899952641	 0.085875
H	-0.7371535173	-2.7407073384	-2.1806716855	 0.080845
H	-0.4206539652	-4.0255363304	 0.8752612883	 0.102848
H	 0.2464285087	-2.5096951314	 1.5493581749	 0.105314
H	-2.3744899954	-2.685577153	 0.0157678012	 0.083099
195.7036	214.9269	293.5089	301.1255	391.8477	440.2785	561.997	694.675	780.1065	794.5278	843.9976	867.8579	885.6846	926.9057	961.156	967.5051	986.4487	1003.1989	1053.4298	1058.3625	1098.6774	1125.715	1159.9644	1167.0719	1185.2746	1217.962	1246.1188	1277.8464	1284.5121	1310.1975	1336.9721	1349.4688	1448.3867	1518.3922	3018.2735	3065.3108	3080.5018	3126.0585	3127.605	3179.9727	3196.4999	3807.1852
OC1C2C1C1OCC21	O[C@H]1[C@H]2[C@@H]1[C@H]1OC[C@@H]21	
InChI=1S/C6H8O2/c7-5-3-2-1-8-6(2)4(3)5/h2-7H,1H2	InChI=1S/C6H8O2/c7-5-3-2-1-8-6(2)4(3)5/h2-7H,1H2/t2-,3+,4-,5-,6-/m0/s1
