17
gdb 40548	3.91922	1.29644	1.0814	1.0463	74.88	-0.2378	0.0003	0.2381	1116.5519	0.137329	-417.963238	-417.955896	-417.954952	-417.995401	28.086	
C	-0.0707655334	 1.19506937	 0.3331857622	-0.240315
C	 1.1742736169	 0.4586161884	-0.0463562507	-0.214975
N	-0.1058120055	 0.0751112784	-0.6108066557	-0.1399
C	-0.6905031328	-1.1267520419	-0.2438989901	 0.382206
N	-0.0471891109	-2.1944299679	 0.0472106652	-0.288475
C	-1.0119197002	-3.2927466553	 0.2221693965	-0.186241
C	-2.4014028165	-2.6810300215	 0.097111374	 0.035055
O	-2.6503378723	-1.6635151853	 1.0726504571	-0.249761
C	-2.1875188353	-1.2652991518	-0.2336775631	-0.086215
H	-0.4700749965	 1.0229323291	 1.3291227184	 0.14026
H	-0.2823036673	 2.1713502061	-0.0922259253	 0.126129
H	 1.8730841015	 0.9104012042	-0.7435910911	 0.125204
H	 1.6080244627	-0.2200235167	 0.6815055881	 0.146051
H	-0.844247469	-4.0570216369	-0.5470891785	 0.114273
H	-0.8599061039	-3.7710095135	 1.1963035268	 0.124614
H	-3.2684036516	-3.2508033228	-0.2249452507	 0.103576
H	-2.850875606	-0.6306855324	-0.8119392432	 0.108512
84.2393	123.0925	203.1503	308.4043	318.81	409.8005	445.1873	572.1997	723.4135	772.5448	810.3012	822.3223	864.0112	870.0659	926.0538	926.4656	932.9143	977.888	1027.7669	1036.2074	1065.1151	1098.4002	1119.423	1134.5406	1165.2134	1181.337	1197.4268	1209.8217	1250.8051	1304.9327	1319.1682	1392.4853	1432.7919	1469.7482	1491.9598	1517.2061	1678.1739	3031.7761	3071.6921	3114.2845	3124.6745	3155.7709	3176.8336	3203.0033	3219.228
C1CN1C1=NCC2OC12	C1CN1C1=NC[C@H]2O[C@@H]12	
InChI=1S/C6H8N2O/c1-2-8(1)6-5-4(9-5)3-7-6/h4-5H,1-3H2	InChI=1S/C6H8N2O/c1-2-8(1)6-5-4(9-5)3-7-6/h4-5H,1-3H2/t4-,5-/m1/s1
