20
gdb 13133	3.87337	1.11644	0.94589	1.0289	71.34	-0.2427	0.0812	0.3239	1266.5188	0.176091	-386.118038	-386.108786	-386.107841	-386.152897	32.607	
C	-0.2267152696	 1.5594578128	-0.1274093648	-0.407473
C	 0.0201982754	 0.0580594002	-0.0588178672	-0.053335
C	 1.3365540583	-0.4615861425	-0.6796459057	-0.073757
O	 1.8028476295	-0.9599474885	 0.5891323682	-0.296099
C	 0.5766710324	-0.5647723034	 1.2557166268	 0.136625
C	 0.8323592173	 0.3108764776	 2.4694834042	-0.189305
C	 1.6118700642	-0.4303509951	 3.549769182	-0.076838
O	 1.7967213898	 0.4617097369	 4.6399850385	-0.424617
H	 0.6518505465	 2.1313374576	 0.1858635302	 0.124933
H	-0.4657820317	 1.8578998832	-1.1539484408	 0.11621
H	-1.0674500966	 1.858527624	 0.5070940819	 0.120666
H	-0.8622756237	-0.4752439406	-0.4221555973	 0.07777
H	 1.2311651984	-1.2627094315	-1.4224282416	 0.096551
H	 2.0029727463	 0.3108005996	-1.0862520255	 0.09715
H	 0.014710037	-1.4594724912	 1.565163317	 0.06701
H	 1.3970410959	 1.204504482	 2.1857085001	 0.107248
H	-0.1256398131	 0.6456135694	 2.8868889742	 0.103252
H	 1.0534941895	-1.3290468949	 3.861241253	 0.08029
H	 2.5725007682	-0.7663478759	 3.1341584493	 0.10894
H	 2.356021056	 0.0265801104	 5.2898054777	 0.284779
44.7058	91.601	103.0837	126.3909	223.7099	259.4128	265.9485	350.9348	362.4699	444.2938	527.1922	736.5965	799.09	855.5048	885.1559	918.6185	933.1198	1003.5438	1025.5547	1049.1395	1072.6171	1084.8551	1131.4217	1156.4937	1165.0767	1187.5966	1221.405	1239.5791	1273.7342	1288.1744	1314.3395	1323.0154	1359.9726	1383.6599	1406.8829	1417.6385	1459.4945	1476.783	1497.8672	1499.5458	1529.2761	1530.427	2960.6565	2977.6524	3004.0445	3016.6717	3032.2066	3037.6066	3041.9934	3068.9446	3089.8852	3096.9056	3111.7634	3830.7555
CC1COC1CCO	C[C@H]1CO[C@H]1CCO	
InChI=1S/C6H12O2/c1-5-4-8-6(5)2-3-7/h5-7H,2-4H2,1H3	InChI=1S/C6H12O2/c1-5-4-8-6(5)2-3-7/h5-7H,2-4H2,1H3/t5-,6-/m0/s1
