15
gdb 26884	3.04389	1.47962	1.00183	3.1022	76.89	-0.2107	-0.0574	0.1533	1121.6509	0.112044	-453.97638	-453.96815	-453.967206	-454.009408	30.365	
C	 0.0150062404	 1.5459294792	 0.0470218144	-0.47425
C	-0.0204367824	 0.0457794685	 0.0321545781	 0.142558
C	-1.1593728528	-0.6733747218	-0.1015457932	 0.397744
O	-2.3850164729	-0.1495296896	-0.2360462707	-0.398151
O	-1.1772218272	-2.0245259571	-0.1133327587	-0.265048
C	 0.0125987207	-2.755377043	 0.015608653	 0.349704
N	 0.0136436971	-4.0216389877	 0.0065811553	-0.520598
C	 1.1979820217	-1.9206936344	 0.1553600221	-0.051999
N	 1.1785336205	-0.6330947923	 0.1624873171	-0.261525
H	 0.6428612207	 1.9250904255	-0.7665080157	 0.135858
H	-0.985776148	 1.9673588871	-0.0626774441	 0.135375
H	 0.4455098856	 1.9123879309	 0.9851957708	 0.135859
H	-3.0171711863	-0.8758817601	-0.312482538	 0.311713
H	-0.927200976	-4.3997632848	-0.102286032	 0.224946
H	 2.1420284889	-2.4473442604	 0.2580421415	 0.137814
83.7062	93.2926	191.6663	284.3121	286.6988	338.0202	339.5865	441.2895	479.0442	508.7585	576.7871	668.2599	713.5473	738.5612	782.7616	838.0572	909.9689	918.6201	983.161	1066.0782	1069.7883	1125.0576	1229.1494	1278.9621	1292.718	1371.9507	1397.6739	1422.709	1480.6469	1494.7282	1591.924	1703.6638	1746.5122	3036.2038	3088.3191	3138.495	3179.6608	3497.1981	3794.1803
CC1=C(O)OC(=N)C=N1	CC1=C(O)OC(=C[N]1)[NH]	
InChI=1S/C5H6N2O2/c1-3-5(8)9-4(6)2-7-3/h2,6,8H,1H3	InChI=1S/C5H6N2O2/c1-3-5(8)9-4(6)2-7-3/h2,6,8H,1H3
