17
gdb 16024	3.94453	1.86479	1.5034	2.6577	64.05	-0.2454	0.0737	0.3191	861.9631	0.144642	-400.964944	-400.958212	-400.957268	-400.995731	26.267	
C	 0.0252632651	 1.5097472217	-0.0111308621	-0.297108
N	 1.2694285846	 0.7204129552	 0.0556972373	-0.336062
C	-0.0272619663	 0.0308359793	 0.0077630314	 0.315352
C	-0.3957153278	-0.7448764351	 1.2573820896	-0.139073
O	 0.0546951311	-2.0919308333	 1.1511707919	-0.233105
C	-0.4266152275	-2.7006642596	-0.0142391199	 0.022697
O	 0.0196034518	-2.065986455	-1.1870280401	-0.233727
C	-0.44382844	-0.7234358174	-1.2398370072	-0.162896
H	-0.2064566052	 2.0780387279	 0.8861934933	 0.11985
H	-0.2301940815	 2.0158530062	-0.9398951936	 0.11117
H	 1.7203053186	 0.6933191072	-0.8563123217	 0.231795
H	 0.0896831038	-0.3147522582	 2.1352502278	 0.123814
H	-1.4896805831	-0.7259493892	 1.4032497865	 0.086914
H	-0.0321360683	-3.7180612733	-0.0329353889	 0.120862
H	-1.5350191734	-2.7176249367	-0.0022060606	 0.071763
H	-1.5441207928	-0.7114826634	-1.3325185561	 0.094103
H	-0.0205058492	-0.2722773062	-2.1429633276	 0.10365
124.5973	214.3114	279.0353	327.2374	401.3608	438.104	484.7547	498.434	642.2441	782.8581	877.1656	916.4835	924.4316	942.0803	960.7682	974.921	1003.9568	1056.5299	1070.0922	1092.8647	1128.8392	1160.6	1198.8818	1238.385	1258.5941	1295.1208	1331.3036	1346.5127	1364.6462	1379.3402	1439.1326	1442.6348	1483.0799	1488.185	1508.132	1515.519	2903.9704	2952.0696	2964.0162	3075.1688	3098.366	3115.9706	3119.1843	3180.6635	3490.0826
C1NC11COCOC1	C1NC21COCOC2	
InChI=1S/C5H9NO2/c1-5(6-1)2-7-4-8-3-5/h6H,1-4H2	InChI=1S/C5H9NO2/c1-5(6-1)2-7-4-8-3-5/h6H,1-4H2
