14
gdb 20343	5.19707	2.24055	1.5811	2.6004	70.33	-0.2161	-0.026	0.1901	757.1159	0.111329	-341.613845	-341.608277	-341.607332	-341.643352	22.115	
C	-0.0711357586	 1.4160360038	 0.0104345298	-0.230466
C	 1.3801093862	 1.8549406967	-0.0010424993	-0.099613
C	 2.1976170911	 0.7862990419	-0.0147023896	-0.205063
C	 1.3863634204	-0.4220715538	-0.0135501328	 0.416486
C	 1.364436493	-1.8065710012	-0.0206935974	-0.385749
C	-0.0154722422	-2.1201107055	-0.0090719263	 0.012767
N	-0.7966181978	-1.0326672738	 0.0041359262	-0.294644
N	 0.0841424119	-0.02523637	 0.0010264322	 0.042942
H	-0.6096759681	 1.7550878183	 0.9035450217	 0.146149
H	-0.6266216264	 1.7648501908	-0.8684253756	 0.146143
H	 1.6709775681	 2.8957507426	 0.0018264162	 0.116734
H	 3.2781328274	 0.8028076805	-0.0249666085	 0.119642
H	 2.199200499	-2.4872808764	-0.0323509534	 0.104715
H	-0.4729775139	-3.098882544	-0.0098677333	 0.109959
174.2502	254.6179	441.5981	453.9074	648.5347	665.2119	674.9157	742.1867	758.3579	782.1827	875.0701	881.8191	934.591	944.9418	967.6623	983.815	1056.4123	1084.3468	1167.8117	1176.8343	1205.9398	1290.4354	1321.3134	1347.1079	1361.6646	1437.2987	1447.3838	1482.9333	1576.0792	1624.9162	3035.427	3068.1034	3229.893	3242.9992	3250.5392	3276.4864
C1C=CC2=CC=NN12	C1C=Cc2ccnn12	
InChI=1S/C6H6N2/c1-2-6-3-4-7-8(6)5-1/h1-4H,5H2	InChI=1S/C6H6N2/c1-2-6-3-4-7-8(6)5-1/h1-4H,5H2
