19
gdb 113587	2.73198	1.32882	1.10228	0.1805	72.05	-0.2225	0.0782	0.3006	1165.3871	0.158251	-460.124391	-460.115523	-460.114579	-460.158826	32.044	
C	 0.5508267468	 1.0128954665	-0.2362303595	-0.244949
O	-0.2448137518	 0.0388830092	 0.4197237404	-0.234509
C	 0.4790984112	-0.6858131383	 1.3612364549	 0.042069
C	-0.0865497927	-2.019704049	 1.7842335868	-0.399881
C	 1.1640630101	-1.9682278152	 0.9610384563	 0.383977
C	 1.2731449181	-2.427544008	-0.472821969	-0.177767
O	 2.6672264796	-2.2579188086	-0.7220162349	-0.246177
C	 3.3024242724	-2.5903217677	 0.4881834856	 0.019637
O	 2.3995128611	-2.3067300891	 1.5521314722	-0.297086
H	 1.4137689944	 0.557674868	-0.7414359166	 0.123204
H	-0.0866253084	 1.5040201501	-0.9748825125	 0.127774
H	 0.9221789371	 1.7675666013	 0.4728703971	 0.111306
H	 0.9756682278	-0.0906605151	 2.1297472259	 0.093285
H	-0.0007656003	-2.2926987911	 2.829866921	 0.129118
H	-0.9945546906	-2.3518135308	 1.2905785604	 0.128411
H	 0.9785790081	-3.4827122616	-0.5851770591	 0.100551
H	 0.7076441417	-1.8138826305	-1.1745417256	 0.133474
H	 3.5602475719	-3.6622684973	 0.5263485884	 0.093198
H	 4.2100096435	-1.9828973427	 0.5807900585	 0.114365
38.6318	111.9728	146.4617	163.7262	205.5624	254.997	312.6074	392.1769	443.7956	517.825	560.7843	742.8558	806.3732	815.9477	876.954	917.0304	966.131	999.2369	1026.3635	1039.2952	1070.4051	1095.5324	1116.1729	1116.7823	1156.12	1170.5424	1186.8752	1193.047	1230.7829	1244.7055	1253.7289	1319.6416	1373.3027	1401.1109	1434.436	1470.4243	1486.4838	1494.9658	1509.9575	1516.5455	1550.3858	2958.5554	2984.7467	2989.1398	3044.4359	3055.4039	3090.4474	3121.8574	3129.9784	3132.4986	3226.3357
COC1CC11COCO1	CO[C@H]1C[C@]21COCO2	
InChI=1S/C6H10O3/c1-7-5-2-6(5)3-8-4-9-6/h5H,2-4H2,1H3	InChI=1S/C6H10O3/c1-7-5-2-6(5)3-8-4-9-6/h5H,2-4H2,1H3/t5-,6+/m0/s1
