14
gdb 128893	4.30761	1.22642	1.04182	2.7946	73.14	-0.2597	0.0014	0.2612	1090.5526	0.103858	-395.719776	-395.712797	-395.711853	-395.751875	25.528	
N	-0.2601689979	-1.2059406551	-0.1740222503	-0.313015
C	-0.1386950988	-0.0598584781	-0.0925805671	 0.297068
C	 0.0043973595	 1.3859690425	 0.0105781597	-0.339902
C	-0.238934523	 2.006426137	 1.4621993268	-0.177575
N	 1.1516173361	 2.4580888045	 1.3636313361	 0.09382
N	 2.1322890812	 3.1708053173	 1.9217884006	-0.298213
C	 3.0900756906	 3.0803618117	 0.9799824422	 0.021242
C	 2.7084216639	 2.3314970136	-0.1685635364	-0.396675
C	 1.4199422255	 1.9540279069	 0.1519736826	 0.403192
H	-0.6020854611	 1.8686062684	-0.7607270483	 0.153019
H	-0.9768263572	 2.8110484782	 1.4940489234	 0.150672
H	-0.4238826059	 1.277362064	 2.2533297978	 0.160466
H	 4.0418466092	 3.560601406	 1.1552735132	 0.122712
H	 3.2956422979	 2.121885303	-1.0458052703	 0.123188
75.6829	116.3955	171.2935	296.0272	423.9341	495.1995	562.3678	647.1038	666.8241	759.6291	778.2779	792.3695	856.8097	881.5951	943.3491	994.4435	1036.8032	1055.4239	1105.3951	1137.2572	1170.7344	1192.2851	1270.7304	1301.9186	1314.6646	1366.2253	1408.5677	1484.2153	1519.1356	1570.9173	2364.4198	3073.6211	3080.4323	3138.4202	3247.9135	3287.9356
N#CC1CN2N=CC=C12	N#C[C@H]1Cn2nccc12	
InChI=1S/C6H5N3/c7-3-5-4-9-6(5)1-2-8-9/h1-2,5H,4H2	InChI=1S/C6H5N3/c7-3-5-4-9-6(5)1-2-8-9/h1-2,5H,4H2/t5-/m0/s1
