13
gdb 24762	3.48845	1.70651	1.14593	6.5201	71.81	-0.2166	-0.0863	0.1303	961.7895	0.092481	-415.649954	-415.643619	-415.642674	-415.680671	24.718	
O	 0.0004619004	-0.0188665031	 0.0042320287	-0.295361
C	 0.0319006179	 1.1857464606	 0.0096101964	 0.282278
C	-1.1969262597	 2.1096996695	 0.0308966783	-0.182013
C	-0.8108227863	 3.3971253412	 0.0318440224	-0.207933
C	 0.6633872739	 3.4032118201	 0.011701741	 0.313219
C	 1.1819684237	 2.1346598946	-0.0015227266	 0.157596
N	 2.5513168482	 2.1479498852	-0.0201726843	-0.329863
C	 2.8569975333	 3.4273061548	-0.0181328977	-0.014298
N	 1.7342688196	 4.241520107	 0.0010929211	-0.387045
H	-2.205183045	 1.7213875683	 0.0428039231	 0.126976
H	-1.4491098461	 4.271125252	 0.0447961672	 0.123371
H	 3.8534074132	 3.8426225758	-0.0297271809	 0.138941
H	 1.7342077967	 5.2485569041	 0.0059406013	 0.274132
152.5494	202.1416	305.4881	370.24	524.2595	553.4912	604.7415	657.3941	659.7849	677.8743	712.6742	736.7422	782.937	846.59	938.0482	955.561	1016.4923	1053.7605	1079.0495	1136.1718	1259.9697	1311.5289	1349.3913	1371.0546	1454.0048	1503.4877	1569.3541	1607.6438	1826.2296	3213.2684	3250.0826	3257.0155	3655.4877
O=C1C=CC2=C1N=CN2	O=C1C=Cc2c1nc[nH]2	
InChI=1S/C6H4N2O/c9-5-2-1-4-6(5)8-3-7-4/h1-3H,(H,7,8)	InChI=1S/C6H4N2O/c9-5-2-1-4-6(5)8-3-7-4/h1-3H,(H,7,8)
