13
gdb 53770	4.49126	0.74847	0.64408	0.9085	85.82	-0.2549	-0.111	0.1439	1630.4135	0.084508	-419.395701	-419.386069	-419.385125	-419.43169	32.503	
C	 0.3901362863	 1.3674421075	 0.1164689456	-0.487407
C	 0.2773157156	-0.1348285899	 0.1276877428	 0.316856
O	 0.111357432	-0.8088484418	 1.1141170633	-0.266668
C	 0.3892387282	-0.8181715651	-1.2569666641	-0.016752
O	 0.5553309399	-0.1628051522	-2.2649192602	-0.264495
C	 0.2830544607	-2.2541434527	-1.2539658421	 0.451556
C	 0.1990486119	-3.4639357558	-1.2985230363	-0.168251
C	 0.1032227854	-4.8158525639	-1.3378631441	 0.295481
C	 0.0175704454	-6.0201051289	-1.3747387771	-0.534012
H	 1.3484652038	 1.6681575214	-0.3189388995	 0.159877
H	-0.3843612439	 1.7970390513	-0.526874796	 0.159906
H	 0.2967770978	 1.7484358179	 1.1333960489	 0.144242
H	-0.0576413731	-7.0796092577	-1.4036336111	 0.209668
37.2359	61.1857	90.7864	115.5767	195.3612	263.3773	283.7893	358.0758	408.6347	450.2643	503.8808	583.1333	589.0047	603.5235	638.384	647.3126	731.3189	879.0735	995.4969	1035.2133	1162.7414	1284.7351	1384.579	1451.5486	1458.4847	1740.7086	1815.8028	2172.9103	2329.7071	3049.6071	3111.1045	3163.5846	3498.4401
CC(=O)C(=O)C#CC#C	CC(=O)C(=O)C#CC#C	
InChI=1S/C7H4O2/c1-3-4-5-7(9)6(2)8/h1H,2H3	InChI=1S/C7H4O2/c1-3-4-5-7(9)6(2)8/h1H,2H3
