15
gdb 66973	2.64247	1.71824	1.29534	4.5272	68.65	-0.2323	0.0212	0.2535	965.6358	0.113576	-416.73528	-416.728096	-416.727152	-416.766815	28.213	
O	-0.1676874254	 1.3512847186	 0.0617811947	-0.452241
C	-0.0033778678	-0.0077964026	 0.0367849035	 0.382731
C	-0.2231463187	-0.8669667291	-1.2175855309	-0.101241
N	 0.5552122011	-2.1067339781	-1.0125791794	-0.311646
C	 0.0347047368	-2.054753575	 0.3957459374	-0.061258
C	-1.1097038719	-1.0371645276	-0.0065157748	-0.170379
C	 0.8358922632	-0.8612511744	 1.0045288971	-0.20294
C	 2.2905473208	-0.8587317363	 0.9187582893	 0.272804
N	 3.4447401035	-0.8178928457	 0.8688617216	-0.332007
H	 0.5584290275	 1.7610629447	-0.4234685122	 0.301858
H	-0.4192347248	-0.4198064227	-2.1835109718	 0.109397
H	 0.0636111793	-2.8619005473	-1.4897686406	 0.224765
H	-0.0629080042	-2.9883091368	 0.9425235343	 0.098455
H	-2.1707343769	-0.9617456123	 0.1870841646	 0.112491
H	 0.5184821873	-0.6660349155	 2.0320496172	 0.129212
126.9521	141.7235	284.1701	336.5008	362.0291	400.1814	465.1303	545.0054	572.5785	668.3568	735.5653	772.7358	815.849	841.7683	890.3774	935.8622	943.379	960.3708	988.0541	1012.0245	1051.6853	1085.4046	1120.8375	1143.3639	1155.7106	1192.3378	1247.3489	1286.2746	1321.5598	1345.1411	1371.6884	1458.0961	2354.6719	3088.977	3163.5223	3203.8618	3217.3902	3461.382	3786.3538
OC12C3NC(C13)C2C#N	O[C@]12[C@H]3N[C@H]([C@@H]13)[C@H]2C#N	
InChI=1S/C6H6N2O/c7-1-2-4-3-5(8-4)6(2,3)9/h2-5,8-9H	InChI=1S/C6H6N2O/c7-1-2-4-3-5(8-4)6(2,3)9/h2-5,8-9H/t2-,3-,4+,5+,6+/m1/s1
