19
gdb 96765	2.28533	1.39596	0.92096	3.6247	82.27	-0.2468	-0.0216	0.2251	1290.4483	0.158239	-419.228084	-419.218494	-419.21755	-419.262994	33.911	
C	 0.1274713539	 1.3462531167	 0.5429333834	-0.367791
N	-0.0904981408	-0.0801251448	 0.3831731733	-0.309859
C	-1.1961733279	-0.6107754315	 0.1468844969	 0.418593
C	-1.5785963897	-2.0802901891	-0.0188660269	-0.098974
C	-1.2608750301	-2.9894147728	 1.1611298093	-0.400016
C	-3.0496848457	-1.5983773885	-0.1884198423	-0.196434
N	-2.5704223947	-0.2085714554	-0.0474920176	-0.135445
C	-3.3128344668	 0.9379270412	-0.1228642238	 0.150902
O	-2.915827954	 2.0760455005	-0.0164451711	-0.300435
H	 0.8908347203	 1.6616231586	-0.1777044583	 0.12541
H	-0.7693686867	 1.9586553488	 0.4153992123	 0.165366
H	 0.5517413101	 1.5210131798	 1.5386713143	 0.124815
H	-1.1720171709	-2.4955603174	-0.9454941608	 0.106707
H	-1.69276285	-2.5976181108	 2.087927181	 0.122179
H	-1.6534178283	-3.998339473	 0.9994635591	 0.118938
H	-0.1785308998	-3.0577731064	 1.2992165637	 0.144459
H	-3.5108853605	-1.8071151628	-1.1573809144	 0.123237
H	-3.7235476159	-1.9062310988	 0.6169436971	 0.121715
H	-4.3787140724	 0.6934335458	-0.3048316952	 0.086633
44.9803	130.2365	155.8774	170.0975	202.2605	217.577	249.1365	268.118	293.4622	387.5565	498.0989	544.792	664.9763	695.4142	766.4122	869.1969	923.8876	978.909	1026.8963	1042.1209	1095.5195	1110.6828	1133.408	1143.522	1148.1462	1180.3456	1194.607	1257.1084	1284.1666	1346.362	1368.9485	1409.6651	1434.3691	1446.6399	1494.6225	1496.762	1502.4895	1504.8505	1515.5831	1784.1459	1844.3559	2932.5338	3020.8987	3037.6109	3048.0822	3069.2637	3074.6533	3101.6611	3108.3876	3117.6438	3122.0187
CN=C1C(C)CN1C=O	CN=C1[C@@H](C)CN1C=O	
InChI=1S/C6H10N2O/c1-5-3-8(4-9)6(5)7-2/h4-5H,3H2,1-2H3	InChI=1S/C6H10N2O/c1-5-3-8(4-9)6(5)7-2/h4-5H,3H2,1-2H3/t5-/m0/s1
