14
gdb 132066	2.38725	1.83991	1.04012	1.8363	72.28	-0.1904	-0.0293	0.1611	1041.0363	0.101421	-478.002274	-477.99476	-477.993816	-478.034054	29.285	
N	 0.0141295995	 1.4079260786	 0.1512820584	-0.58904
C	-0.0263783123	 0.0352756203	 0.0534205895	 0.103546
C	-1.1584396476	-0.713159177	 0.0259233009	 0.218729
F	-2.3525625711	-0.0994584025	 0.0324598658	-0.086154
C	-1.1241208814	-2.1384633048	-0.0083937726	-0.284029
C	 0.0774834363	-2.7382220464	-0.0185240157	 0.047048
O	 1.2389124939	-2.0330958747	-0.0087753776	-0.23423
C	 1.2599228021	-0.6542161731	 0.0083048492	 0.36513
N	 2.3529331146	-0.0006276573	-0.0204326439	-0.561971
H	 0.907620875	 1.7950726846	-0.1205647177	 0.273135
H	-0.7981879567	 1.8992547589	-0.1873378002	 0.256061
H	-2.0405096946	-2.7117632764	-0.0204146267	 0.125886
H	 0.2557378285	-3.8037421276	-0.0364923329	 0.141223
H	 3.1584232138	-0.6226353425	-0.0604767263	 0.224666
128.5308	190.2666	276.4427	285.2923	346.9557	400.5104	480.2073	501.0897	523.1265	546.2997	580.9018	610.7661	706.1803	744.2417	751.4982	813.7542	852.0415	879.0113	964.6906	1029.7633	1087.9796	1235.4902	1249.4638	1261.9016	1301.5572	1412.2958	1457.7011	1599.0261	1640.7856	1703.0653	1724.4673	3229.9677	3249.3882	3512.9042	3558.0648	3682.9456
NC1=C(F)C=COC1=N	NC1=C(OCC=C1F)[NH]	
InChI=1S/C5H5FN2O/c6-3-1-2-9-5(8)4(3)7/h1-2,8H,7H2	InChI=1S/C5H6FN2O/c6-3-1-2-9-5(8)4(3)7/h1,8H,2,7H2
