15
gdb 30519	3.15446	1.51141	1.02829	3.8715	74.81	-0.2082	-0.0478	0.1604	1098.3068	0.112731	-453.979684	-453.971457	-453.970512	-454.013161	29.865	
C	 0.1020628986	 1.4139006649	 0.3574260725	-0.304373
N	-0.0215552476	-0.0072093844	 0.0921451307	-0.309304
C	-1.1270548033	-0.5880724196	-0.1387400368	 0.252768
N	-1.1199680035	-1.9560256114	-0.3796257848	-0.356023
C	-2.2584791713	-2.6885721709	-0.6410961631	-0.056194
C	-3.4483590136	-2.0908263623	-0.6730544451	-0.004001
O	-3.578203842	-0.7351811754	-0.4481393368	-0.214502
C	-2.4994685651	 0.0598332574	-0.1834770331	 0.37162
O	-2.6762789045	 1.2310796817	 0.0023665659	-0.308776
H	 1.1604723366	 1.6360359188	 0.5191191603	 0.112204
H	-0.2608603814	 2.0276069121	-0.4742517557	 0.134059
H	-0.459696555	 1.723803173	 1.2453830615	 0.134017
H	-0.2110595948	-2.3918809045	-0.3515872888	 0.262805
H	-2.1393204371	-3.7479670788	-0.8148460514	 0.141414
H	-4.3931384958	-2.5713511306	-0.8674682054	 0.144286
43.1239	115.1452	159.6492	240.6468	245.7229	396.4088	410.6472	477.8302	513.8662	528.3317	578.5612	595.478	699.5275	724.0171	803.2382	855.9627	927.2983	1028.5934	1072.0142	1082.9631	1104.1626	1145.3045	1168.7085	1246.5754	1354.6507	1405.669	1437.6509	1478.2263	1494.0856	1498.6175	1723.9392	1728.9103	1836.8518	3023.5808	3083.5141	3099.6619	3244.1422	3278.6437	3631.4593
CN=C1NC=COC1=O	CN=c1[nH]ccoc1=O	
InChI=1S/C5H6N2O2/c1-6-4-5(8)9-3-2-7-4/h2-3H,1H3,(H,6,7)	InChI=1S/C5H6N2O2/c1-6-4-5(8)9-3-2-7-4/h2-3H,1H3,(H,6,7)
