17
gdb 36277	4.66976	0.99537	0.93392	5.1203	76.91	-0.2346	0.028	0.2626	1253.7496	0.136109	-380.773524	-380.765841	-380.764896	-380.806206	29.642	
N	 0.3033468138	-1.0834487128	 1.224081753	-0.301871
C	 0.0896084341	-0.0738754718	 0.705324477	 0.280824
C	-0.2068958942	 1.2086284808	 0.0416803348	-0.310906
N	 1.0149749385	 1.9880215358	-0.1150816794	-0.064246
C	 1.5272705293	 2.7322959087	-1.2264406171	-0.06718
C	 0.5664378572	 3.7713829996	-1.9012112054	-0.066795
C	-0.820193618	 3.839497525	-1.3248019916	-0.309697
C	 0.3268260028	 4.419648234	-0.5455608378	-0.066849
C	 1.2902304392	 3.3745297503	 0.1160584699	-0.06708
H	-0.670193015	 0.9834559069	-0.9252830405	 0.161598
H	-0.9475283178	 1.7360549754	 0.6529408601	 0.161593
H	 2.4552092938	 2.4149974791	-1.6900446382	 0.108094
H	 0.828882267	 4.2578744344	-2.8312918665	 0.099276
H	-1.4439887628	 4.5942648649	-1.7961899521	 0.120849
H	-1.3841284814	 2.9738468829	-1.0103885993	 0.115039
H	 0.3807591611	 5.4707431928	-0.2947807667	 0.099263
H	 1.9997799727	 3.6487278441	 0.88937995	 0.108089
54.8794	126.3883	220.1073	234.4548	366.3649	392.8479	475.606	489.3653	655.0577	698.3175	717.8033	726.0848	766.0199	852.0704	884.3642	899.0596	930.1981	949.9671	955.5121	1018.1314	1021.3897	1048.5269	1055.399	1070.8182	1086.0095	1098.1554	1177.1899	1252.0182	1269.1548	1280.6149	1293.1377	1320.2729	1363.5933	1426.582	1459.191	1503.4809	2363.2113	3032.2043	3082.5226	3141.9855	3163.2009	3173.2726	3197.2623	3207.3786	3245.7602
N#CCN1C2C3CC3C12	N#CCN1[C@H]2[C@H]3C[C@H]3[C@@H]12	
InChI=1S/C7H8N2/c8-1-2-9-6-4-3-5(4)7(6)9/h4-7H,2-3H2	InChI=1S/C7H8N2/c8-1-2-9-6-4-3-5(4)7(6)9/h4-7H,2-3H2/t4-,5+,6-,7+,9?
