18
gdb 75815	3.20806	1.2854	1.08496	2.8643	72.78	-0.2511	0.0195	0.2706	1140.7008	0.147322	-439.09205	-439.083396	-439.082452	-439.125598	32.258	
O	-0.1721323828	 1.3569409196	-0.3834142586	-0.428829
C	-0.0871611932	-0.0246680454	-0.1622413529	-0.096858
C	 0.3286063484	-0.4478464548	 1.2666143952	 0.402615
O	 1.2294349209	-0.1468688991	 2.0067587263	-0.375562
N	-0.7908102283	-1.2263084232	 1.3885945225	-0.409372
C	-1.4242499382	-0.7908707705	 0.139289001	 0.386853
C	-2.7393525157	 0.0185772231	 0.1042823876	-0.273197
C	-3.0783738031	-0.6974898739	-1.2340553736	-0.209384
C	-2.0114559839	-1.7762762445	-0.8924620507	-0.292647
H	 0.4096563804	 1.7865626884	 0.2545343171	 0.303536
H	 0.4995260392	-0.5170311958	-0.9490454872	 0.098382
H	-1.1658986352	-1.7189231065	 2.1875444113	 0.247548
H	-3.4153243852	-0.2783074498	 0.912112076	 0.097754
H	-2.6327601006	 1.1043622718	 0.0979407532	 0.121713
H	-4.1050494751	-1.0405690262	-1.3707591039	 0.102721
H	-2.7907452884	-0.0959935612	-2.0995074539	 0.118257
H	-1.3474090133	-2.1267057859	-1.687391736	 0.103828
H	-2.4577246859	-2.646913656	-0.4016071435	 0.10264
69.6234	107.4376	159.1247	191.1663	238.5801	296.3471	362.5571	411.945	472.2176	526.8839	556.5738	695.1651	735.618	788.3478	800.643	850.4849	903.5243	914.8772	928.322	961.4219	1040.1411	1085.1073	1113.9048	1154.6058	1165.0576	1194.3399	1212.8474	1233.7203	1250.5006	1266.037	1272.5747	1306.213	1349.7608	1369.4056	1392.467	1469.0409	1482.1792	1504.2935	1888.5623	3020.3979	3049.8523	3059.543	3073.5728	3099.947	3123.076	3134.6107	3589.7253	3794.5135
OC1C(=O)NC11CCC1	O[C@H]1C(=O)NC21CCC2	
InChI=1S/C6H9NO2/c8-4-5(9)7-6(4)2-1-3-6/h4,8H,1-3H2,(H,7,9)	InChI=1S/C6H9NO2/c8-4-5(9)7-6(4)2-1-3-6/h4,8H,1-3H2,(H,7,9)/t4-/m0/s1
