23
gdb 108115	2.86779	1.46925	1.32898	0.1655	88.6	-0.2592	0.0888	0.3481	1114.7956	0.208383	-351.13394	-351.126124	-351.12518	-351.166034	32.429	
C	 0.0160689903	 1.5854483847	 0.0654501658	-0.379535
C	 0.0010120121	 0.0507008804	 0.0359684008	-0.302461
C	-1.3957651224	-0.5260692079	 0.0597149921	 0.396711
C	-2.3377535831	-0.4224415976	 1.2737803211	-0.289171
C	-3.1281139111	-1.5396313888	 0.5474288131	-0.04683
C	-3.6731551479	-0.7686797107	-0.6746042958	-0.205008
C	-2.2820600523	-0.483882631	-1.277750028	-0.079472
C	-1.792837722	-1.9242217185	-1.5887739989	-0.243829
C	-1.7494125119	-2.0518296851	-0.0608250763	-0.077629
H	 1.040161224	 1.970995571	 0.0512182712	 0.109928
H	-0.5105727644	 2.0045725657	-0.7984494258	 0.116661
H	-0.4718506748	 1.9686112208	 0.9678255631	 0.118138
H	 0.5344461759	-0.3004795678	-0.8569731142	 0.093718
H	 0.5633012074	-0.3336799962	 0.897588625	 0.091216
H	-1.8314475076	-0.7808848958	 2.1765127091	 0.08846
H	-2.8598501795	 0.5155621181	 1.4938553403	 0.082961
H	-3.8042873629	-2.2049094232	 1.0837109998	 0.056856
H	-4.3013060268	-1.3652419773	-1.3431668866	 0.088002
H	-4.2304323561	 0.1265916813	-0.3831154322	 0.08802
H	-2.1870815779	 0.3226172336	-2.0053158494	 0.055562
H	-2.4554127614	-2.5721531851	-2.1722822341	 0.084047
H	-0.7871401141	-1.9525317406	-2.0171974208	 0.09498
H	-1.2131144734	-2.8323639997	 0.4796214706	 0.058676
87.3737	156.3516	207.681	304.9507	320.6691	428.4479	446.0165	490.981	575.219	663.2694	692.7381	777.8717	800.3041	831.0366	873.1899	895.1153	901.7486	928.1588	941.2305	966.6534	979.5647	987.452	1003.6584	1006.5969	1041.7814	1073.8431	1083.4341	1096.6027	1136.026	1161.66	1170.6358	1200.392	1205.7151	1232.7747	1238.2653	1247.5245	1264.6937	1296.1974	1313.881	1324.979	1328.2657	1372.8339	1409.6363	1479.3512	1487.9474	1497.5301	1499.7042	1506.9601	1518.1952	3010.3515	3028.2694	3033.7778	3039.2247	3043.2004	3047.3292	3082.2683	3090.3956	3097.7679	3101.1216	3104.0952	3107.2741	3110.6638	3118.9177
CCC12CC3CC1CC23	CC[C@@]12C[C@H]3C[C@@H]1C[C@@H]23	
InChI=1S/C9H14/c1-2-9-5-6-3-7(9)4-8(6)9/h6-8H,2-5H2,1H3	InChI=1S/C9H14/c1-2-9-5-6-3-7(9)4-8(6)9/h6-8H,2-5H2,1H3/t6-,7-,8-,9-/m1/s1
