17
gdb 33774	3.70596	1.42926	1.2244	1.833	79.27	-0.2409	-0.0084	0.2325	1035.5773	0.136169	-384.638595	-384.631237	-384.630293	-384.669988	30.018	
C	 0.0226177014	-1.2058134985	-0.0492839287	-0.330593
C	-0.003973988	-0.0051114143	-0.0070894026	 0.110404
C	-0.020759159	 1.4388055637	 0.0688587247	 0.238741
C	-0.8655765782	 2.1529573643	 1.1668538972	-0.278345
C	-1.1054293339	 3.1529668817	 0.0185514401	 0.079897
C	 0.0352381095	 4.1731749709	-0.1128682808	-0.264472
C	 1.3558474664	 3.4323903799	-0.0881971307	-0.076054
C	 1.350120167	 2.1038007552	 0.0028170372	-0.081037
O	-0.8770568106	 2.0815482975	-0.943463892	-0.324835
H	 0.0364551111	-2.2668739047	-0.0930921295	 0.189691
H	-1.7683585326	 1.5897521379	 1.4046482754	 0.11974
H	-0.3486549423	 2.4794390544	 2.0701326702	 0.105993
H	-2.0965490851	 3.5987123771	-0.0925289473	 0.08067
H	-0.0713764998	 4.7335846665	-1.05074653	 0.120382
H	-0.0146557407	 4.9122390165	 0.6983978502	 0.10854
H	 2.2792415619	 3.9998497326	-0.155005915	 0.097992
H	 2.2448862628	 1.4937217394	 0.0329326115	 0.103286
141.7568	146.5792	275.9814	349.3957	414.1695	462.6801	465.1759	538.0374	543.7908	620.2409	641.5823	675.8417	693.0893	727.8322	833.2081	878.0521	925.2251	935.2453	935.5669	968.4552	986.8502	992.065	1027.9535	1082.2133	1148.2803	1175.703	1180.1131	1228.4582	1255.3375	1303.6207	1321.4151	1357.8508	1396.1936	1462.2377	1485.2366	1693.6451	2241.6665	3016.1849	3047.5951	3078.9169	3088.03	3150.8349	3169.9537	3207.2837	3501.7142
C#CC12CC(CC=C1)O2	C#C[C@@]12C[C@@H](CC=C1)O2	
InChI=1S/C8H8O/c1-2-8-5-3-4-7(6-8)9-8/h1,3,5,7H,4,6H2	InChI=1S/C8H8O/c1-2-8-5-3-4-7(6-8)9-8/h1,3,5,7H,4,6H2/t7-,8+/m1/s1
