19
gdb 61862	2.84356	0.95279	0.79806	5.3736	73.91	-0.2398	0.0104	0.2502	1450.2427	0.158614	-456.414087	-456.403973	-456.403029	-456.449998	36.004	
C	-0.1564187719	 1.5123374454	 0.1184720798	-0.395885
C	 0.003212313	-0.0109810965	 0.0531018382	 0.071138
C	 0.5610246567	-0.5518554573	 1.387010135	-0.331833
C	 0.6789094637	-2.0701688144	 1.4252206487	 0.410533
N	 1.9369277988	-2.5716145991	 1.5281606479	-0.511204
O	-0.3047264336	-2.7946022507	 1.3653195992	-0.371489
N	-1.265730985	-0.6744637821	-0.2437194376	-0.282031
C	-1.8714722034	-0.556936115	-1.4521819914	 0.148243
O	-1.5345313622	 0.2017282756	-2.3409765233	-0.334819
H	 0.8085593541	 1.9892942415	 0.320035073	 0.105039
H	-0.5398246122	 1.8808827013	-0.8332648019	 0.161711
H	-0.8555221519	 1.7906131722	 0.9140772713	 0.114231
H	 0.7154799859	-0.2454316954	-0.7512457972	 0.097671
H	 1.5216275906	-0.066533545	 1.5824191825	 0.103682
H	-0.1221601686	-0.2675139591	 2.1953167337	 0.139288
H	 2.7523117437	-1.9862443914	 1.5565533056	 0.265702
H	 2.0554886293	-3.5720439237	 1.5311644168	 0.267071
H	-1.4770179371	-1.4921020808	 0.3183820805	 0.26677
H	-2.7425686397	-1.2365125755	-1.5421896207	 0.076183
35.9285	86.4363	102.0872	175.4574	217.825	227.1631	255.6408	291.1617	327.9266	339.6679	447.2076	490.6229	551.5366	606.7012	655.6297	718.8532	801.3295	865.1629	875.0678	924.2574	965.2299	1035.8395	1059.1452	1109.4731	1124.6083	1145.0682	1215.4517	1265.8731	1292.3394	1351.9183	1376.7901	1400.4942	1404.9094	1430.6906	1473.1778	1482.2328	1513.6834	1545.1542	1620.8145	1770.6278	1794.3972	2933.7488	2999.5808	3037.367	3048.0098	3096.5382	3106.1283	3154.257	3528.9313	3603.1397	3742.4196
CC(CC(N)=O)NC=O	C[C@@H](CC(=O)N)NC=O	
InChI=1S/C5H10N2O2/c1-4(7-3-8)2-5(6)9/h3-4H,2H2,1H3,(H2,6,9)(H,7,8)	InChI=1S/C5H10N2O2/c1-4(7-3-8)2-5(6)9/h3-4H,2H2,1H3,(H2,6,9)(H,7,8)/t4-/m0/s1
