20
gdb 73453	2.23668	1.94164	1.53561	0.8696	77.99	-0.2261	0.0838	0.3099	993.5356	0.171248	-403.114482	-403.106299	-403.105355	-403.146579	32.247	
C	-0.0272368474	 1.4660169474	 0.0131111051	-0.484038
C	-0.028058532	-0.0354728853	-0.0932254786	 0.254481
C	 0.9999030126	-0.709309527	-0.9993300397	-0.149606
O	 0.4301104974	-1.9670427997	-1.3730573261	-0.26175
C	-0.5831519075	-2.2260202408	-0.4153201246	 0.019232
C	-0.0222786859	-2.1865539524	 1.0234449002	-0.18668
N	-0.411987559	-0.7437152225	 1.1784945818	-0.232552
C	-1.2509058405	-0.8642327268	-0.081990111	 0.298321
C	-2.6848355426	-0.4600531121	-0.2079867114	-0.526827
H	 0.9386773918	 1.8257714854	 0.3847034989	 0.125604
H	-0.2088746654	 1.9313080467	-0.9618634596	 0.11867
H	-0.793872432	 1.8032061827	 0.7139261499	 0.134702
H	 1.177836	-0.1190973904	-1.9056659543	 0.107652
H	 1.9665080564	-0.8522601081	-0.4944769152	 0.101148
H	-1.174467808	-3.0792090734	-0.7471354534	 0.085043
H	-0.604388722	-2.7776752684	 1.7352371202	 0.109143
H	 1.0421004967	-2.413403305	 1.1473079528	 0.102774
H	-2.8472184	 0.5431896386	 0.1961953758	 0.13106
H	-2.9935427776	-0.457457528	-1.2597306974	 0.12775
H	-3.3429778452	-1.148554341	 0.3331650268	 0.125872
172.2578	175.4008	201.9169	217.5765	249.0881	319.3943	327.9305	430.846	487.9806	559.7638	630.7419	673.2567	689.2287	784.8538	852.0825	862.1976	915.661	940.4598	978.0858	994.9086	1012.718	1056.7572	1086.9469	1115.0676	1122.8255	1148.8467	1164.8147	1188.348	1215.728	1242.4319	1279.5595	1298.0545	1339.0493	1371.9509	1410.9762	1416.1054	1452.1957	1479.8085	1488.715	1491.4405	1497.2113	1502.5405	1524.4672	2995.8358	3029.0321	3033.4917	3043.5101	3053.2245	3089.2849	3092.8306	3101.3294	3110.2082	3122.5894	3127.6674
CC12COC3CN1C23C	C[C@@]12CO[C@H]3CN1[C@@]23C	
InChI=1S/C7H11NO/c1-6-4-9-5-3-8(6)7(5,6)2/h5H,3-4H2,1-2H3	InChI=1S/C7H11NO/c1-6-4-9-5-3-8(6)7(5,6)2/h5H,3-4H2,1-2H3/t5-,6-,7+,8?/m0/s1
