16
gdb 129928	3.18876	1.41095	1.04749	2.7324	71.76	-0.1958	0.02	0.2159	1103.0186	0.126524	-434.053577	-434.045689	-434.044745	-434.086208	29.876	
N	 0.5349802892	 0.9489250424	-0.9863172397	-0.627818
C	 0.1855980728	-0.2013309682	-0.2607597364	 0.104217
C	-1.0192661853	-0.8800853508	-0.2773342128	-0.091237
N	-0.913878492	-1.8685280843	 0.6532648411	-0.186345
N	 0.2611632862	-1.8733979446	 1.2917378387	-0.304924
C	 0.9492768717	-0.8744972101	 0.7325646713	 0.301108
C	 2.3374153357	-0.6141087794	 1.1694344599	-0.015569
C	 3.4697717384	-0.5545035009	 0.2272237842	-0.184695
O	 2.9222838175	 0.6438643476	 0.7843454669	-0.240252
H	 1.4728303242	 1.2536779386	-0.7589458861	 0.257975
H	 0.4154157179	 0.8561458437	-1.9860779545	 0.238107
H	-1.9167164935	-0.7285783033	-0.8549495713	 0.126265
H	-1.6115261953	-2.5447749973	 0.9104114503	 0.273787
H	 2.5549062106	-0.9179965051	 2.1922209802	 0.112195
H	 4.4714544373	-0.8096998366	 0.5691478294	 0.123239
H	 3.2839908247	-0.7015492416	-0.8352657012	 0.113949
63.5681	164.2129	202.5385	258.9472	309.3127	363.3883	417.2624	446.8515	484.4479	651.1727	673.8159	702.4727	727.5538	747.4211	790.2321	846.109	906.7856	949.1889	997.4571	1074.4776	1095.6527	1122.1904	1151.298	1171.5559	1210.8332	1256.5591	1280.219	1344.6714	1376.4313	1424.5201	1489.1523	1518.6529	1538.8938	1627.3324	1646.6775	3087.5142	3126.9427	3178.9978	3266.372	3533.6275	3629.7883	3682.4966
NC1=CNN=C1C1CO1	Nc1c[nH]nc1[C@H]1CO1	
InChI=1S/C5H7N3O/c6-3-1-7-8-5(3)4-2-9-4/h1,4H,2,6H2,(H,7,8)	InChI=1S/C5H7N3O/c6-3-1-7-8-5(3)4-2-9-4/h1,4H,2,6H2,(H,7,8)/t4-/m1/s1
