20
gdb 81664	3.43854	1.2978	1.2146	3.369	80.01	-0.2467	0.0268	0.2735	1120.2039	0.172943	-403.159656	-403.151821	-403.150877	-403.191908	31.316	
C	-0.2524456985	 1.3934033263	 0.1027938431	-0.429514
C	 0.0567753791	-0.0968313371	 0.021285371	 0.01486
C	 0.8827164441	-0.5620596149	-1.2225391064	-0.0394
C	 2.1729452381	-0.2859727612	-0.3963414384	-0.258698
C	 1.2885885104	-0.5759510944	 0.8366572779	 0.116231
O	 1.2067377714	-1.9927894793	 1.0638032117	-0.261777
C	 0.9286006794	-2.781895349	-0.0205022938	 0.391569
N	 0.8456891292	-4.0402630407	 0.0779288206	-0.531008
C	 0.7224338828	-2.0774112313	-1.3585872852	-0.294645
H	 0.6290830362	 2.0153343038	-0.0818268019	 0.119193
H	-1.0094209708	 1.6688524812	-0.6390446963	 0.122865
H	-0.6439154786	 1.6578424602	 1.0909789854	 0.121922
H	-0.852205389	-0.6753272505	 0.2198306194	 0.078719
H	 0.7381492279	-0.0410736259	-2.171799765	 0.067597
H	 3.036294794	-0.9387143206	-0.5485095526	 0.108294
H	 2.4923916345	 0.7563820958	-0.4378847933	 0.11001
H	 1.516405503	-0.1327648668	 1.8071329345	 0.082343
H	 1.0129010776	-4.3286464176	 1.0441453253	 0.217148
H	-0.2740904973	-2.3404517438	-1.7287281909	 0.132188
H	 1.4408687564	-2.4928761041	-2.0728429752	 0.132104
70.9147	203.4684	234.124	251.8987	317.8746	405.7621	428.6083	439.4568	529.0346	546.4955	643.1649	767.2291	797.5212	857.2335	866.1105	870.8069	902.4517	924.9596	962.8793	976.9325	1042.804	1064.148	1070.991	1080.7572	1094.4112	1129.9333	1145.4696	1162.9692	1214.1724	1244.2817	1267.9827	1283.8495	1294.3121	1308.5189	1343.4002	1379.3419	1398.5359	1414.7671	1469.4925	1489.0143	1498.2836	1502.5141	1751.7732	3033.256	3044.0147	3049.7395	3068.3056	3081.735	3087.3224	3097.31	3103.671	3105.2151	3130.7268	3463.2692
CC1C2CC1OC(=N)C2	C[C@H]1[C@H]2C[C@@H]1O[C]([NH])C2	
InChI=1S/C7H11NO/c1-4-5-2-6(4)9-7(8)3-5/h4-6,8H,2-3H2,1H3	InChI=1S/C7H11NO/c1-4-5-2-6(4)9-7(8)3-5/h4-6,8H,2-3H2,1H3/t4-,5-,6-/m0/s1
