14
gdb 128677	5.06419	1.10305	0.91096	2.9906	68.52	-0.2367	-0.0823	0.1544	1198.8568	0.102242	-470.026013	-470.018423	-470.017479	-470.058387	27.699	
C	-0.0183700499	 1.4009120537	 0.0189961338	-0.229516
O	 0.0240083558	-0.0243654885	-0.0372123253	-0.238732
C	 0.6290136099	-0.5671759825	-1.0978397098	 0.500048
N	 1.1467708076	 0.1856358516	-2.0212399283	-0.30031
N	 1.732325628	-0.4841396308	-3.0452560071	-0.276446
C	 1.8275465565	-1.8525026496	-3.195315462	 0.409629
O	 2.3701878804	-2.3903280654	-4.1436982072	-0.385882
C	 1.1893537641	-2.5433068568	-2.0590532024	-0.075951
N	 0.62292703	-1.9435624699	-1.0681195266	-0.254541
H	 0.992097945	 1.8207280725	 0.0328832643	 0.138779
H	-0.5549497337	 1.8092437624	-0.8428874448	 0.138761
H	-0.5434617445	 1.6410850715	 0.9433968186	 0.140233
H	 2.1357827218	 0.1011901419	-3.7644379506	 0.279966
H	 1.2088978689	-3.6313740402	-2.0785762229	 0.153963
83.6834	150.2613	201.8299	229.2274	357.5263	384.838	402.1141	494.0184	551.2962	554.6431	638.8897	713.2368	796.8444	808.9145	831.0892	983.8473	994.8526	1074.5225	1180.2511	1196.3994	1248.0484	1269.5608	1337.7185	1395.3656	1437.5242	1479.8329	1493.0867	1499.5928	1576.2272	1656.8387	1791.4349	3039.411	3108.6048	3157.1767	3161.2617	3599.2452
COC1=NNC(=O)C=N1	COc1n[nH]c(=O)cn1	
InChI=1S/C4H5N3O2/c1-9-4-5-2-3(8)6-7-4/h2H,1H3,(H,6,8)	InChI=1S/C4H5N3O2/c1-9-4-5-2-3(8)6-7-4/h2H,1H3,(H,6,8)
