21
gdb 110888	2.82579	1.40222	1.13582	2.9201	82.28	-0.2288	-0.005	0.2238	1168.7132	0.184079	-387.106283	-387.098071	-387.097126	-387.139088	32.233	
C	 0.1396059651	 1.602437291	 0.0828870605	-0.387255
C	-0.0180096158	 0.0791194427	 0.0192183951	-0.20547
C	 0.6130384185	-0.5349722705	-1.2383798339	-0.076133
C	 0.6121579884	-2.0777024786	-1.3480562502	-0.042201
C	 1.0271611054	-2.2912290221	-2.8316406114	-0.244697
C	-0.3744948624	-1.6536628986	-3.117073719	-0.118733
C	-0.8382594182	-2.3981596913	-1.8189077697	-0.238776
C	-0.1588037537	-0.256750045	-2.5543555845	 0.436757
O	-0.5190961058	 0.8006853365	-3.003058095	-0.346965
H	 1.1981547204	 1.8846994135	 0.1124984671	 0.109737
H	-0.3064834175	 2.0747807212	-0.7953908003	 0.150353
H	-0.3386206026	 2.0085298622	 0.9795402142	 0.107155
H	 0.4495555613	-0.3800375437	 0.9001150776	 0.094599
H	-1.0821424477	-0.1813129142	 0.0691107747	 0.099869
H	 1.6353750036	-0.1460185078	-1.3421072069	 0.089658
H	 1.0847749352	-2.6302448964	-0.5358742615	 0.067851
H	 1.9162004544	-1.7730466736	-3.2027496352	 0.10204
H	 1.0544898001	-3.3447032141	-3.1189206136	 0.10713
H	-0.8914886374	-1.7297725892	-4.0712504416	 0.080266
H	-0.9924610645	-3.4636643868	-2.0030372282	 0.108047
H	-1.6826908665	-1.9893709952	-1.2588764481	 0.106769
87.4336	126.2086	181.047	213.7038	269.3953	340.6929	432.8381	464.7286	506.8932	606.5235	688.9582	746.7906	800.6589	822.5506	843.0582	861.4145	891.3177	896.5201	975.5231	993.1846	1004.4946	1024.5102	1039.1755	1067.1075	1086.6936	1099.9317	1111.7374	1146.0489	1169.4684	1222.9448	1226.9282	1241.8472	1252.2649	1278.6486	1300.4254	1305.2763	1351.691	1374.2367	1412.82	1487.1833	1492.6023	1498.0521	1513.6533	1521.6772	1854.5796	3013.9826	3017.6765	3035.2159	3052.7289	3054.9547	3064.9296	3099.0403	3111.5506	3118.0458	3122.788	3131.6629	3145.347
CCC1C2CC(C2)C1=O	CC[C@H]1[C@@H]2C[C@@H](C2)C1=O	
InChI=1S/C8H12O/c1-2-7-5-3-6(4-5)8(7)9/h5-7H,2-4H2,1H3	InChI=1S/C8H12O/c1-2-7-5-3-6(4-5)8(7)9/h5-7H,2-4H2,1H3/t5-,6+,7-/m0/s1
