17
gdb 125701	5.10464	1.0221	0.89094	3.5445	77.96	-0.2195	0.0099	0.2293	1307.8351	0.136145	-417.980467	-417.972285	-417.971341	-418.013913	29.96	
C	-0.1496641118	 1.4954316846	 0.0435448326	-0.493541
C	 0.0610760556	 0.0153997009	 0.0120916501	 0.409482
N	 0.5774814094	-0.5453812508	-1.05720906	-0.211737
O	 0.6420283292	-1.9208446752	-0.7661807908	-0.220195
C	 0.1603259583	-2.1233095995	 0.4698423127	 0.496843
C	-0.2322849206	-0.9402354084	 1.0255421913	-0.448622
N	 0.2275574969	-3.4140898591	 0.9550463031	-0.153884
C	-0.962567709	-4.0436163002	 1.5193845746	-0.226511
C	-0.4033633189	-4.5061024563	 0.2166282216	-0.221678
H	 0.4129228571	 1.9529935189	 0.8638777607	 0.136629
H	 0.1797211602	 1.9399139281	-0.8975222192	 0.148737
H	-1.206658877	 1.7376783592	 0.1954031096	 0.134212
H	-0.6487507718	-0.7761439285	 2.0047384264	 0.108836
H	-0.7945988899	-4.6190464889	 2.4241397717	 0.132363
H	-1.8881040127	-3.474064148	 1.4928107778	 0.132407
H	-0.9482128094	-4.249031658	-0.6870626399	 0.142161
H	 0.1792620044	-5.4199201388	 0.1644193878	 0.1345
52.1163	126.2402	138.3826	176.9958	259.4577	324.5402	401.5348	517.5893	527.9976	657.0563	698.6747	725.701	773.3084	820.1132	899.7209	908.0382	944.6161	986.7388	1027.295	1042.983	1044.6306	1066.0769	1120.3894	1137.819	1145.4686	1175.209	1186.0842	1262.3025	1358.4752	1405.212	1459.5416	1482.0242	1482.9271	1494.1176	1520.9492	1549.3352	1643.0852	3041.8813	3097.8051	3114.974	3124.5645	3139.2801	3203.3219	3218.8338	3277.2247
CC1=NOC(=C1)N1CC1	Cc1noc(c1)N1CC1	
InChI=1S/C6H8N2O/c1-5-4-6(9-7-5)8-2-3-8/h4H,2-3H2,1H3	InChI=1S/C6H8N2O/c1-5-4-6(9-7-5)8-2-3-8/h4H,2-3H2,1H3
