17
gdb 16004	3.91524	1.91991	1.5556	2.1795	68.36	-0.2442	0.029	0.2732	849.2246	0.144555	-363.861364	-363.854555	-363.853611	-363.892251	26.433	
C	-0.0371526082	 1.5157177177	 0.0101574497	-0.294994
C	 1.3002743333	 0.8121116762	-0.0017286065	-0.327304
C	 0.0301480355	 0.0087332224	 0.0030959024	 0.318762
C	-0.3706980968	-0.7367299269	 1.2494382532	-0.139671
O	-1.78164023	-1.0184618061	 1.2452045684	-0.22562
C	-2.3144244721	-1.3046788013	 0.0314415557	 0.13588
N	-1.7910543449	-1.2465045839	-1.1179331349	-0.271125
C	-0.4166562187	-0.7573661536	-1.2272971839	-0.22631
H	-0.3445926278	 2.012984872	 0.9242778025	 0.115829
H	-0.3606834829	 2.0131497623	-0.8979326223	 0.119803
H	 1.8816056925	 0.8305733297	-0.9180127174	 0.117105
H	 1.9003068649	 0.8354897343	 0.9026720448	 0.112122
H	 0.1661109976	-1.6925188948	 1.3243764526	 0.111409
H	-0.1816570495	-0.1618852288	 2.1595966239	 0.113908
H	-3.3488603369	-1.6213659204	 0.1543122011	 0.122036
H	-0.3497975297	-0.1274808384	-2.1219438832	 0.107992
H	 0.2439838336	-1.6175413904	-1.4093087459	 0.110178
123.1602	156.9478	267.7558	343.3203	368.2669	470.7461	509.2863	521.655	727.0471	781.936	843.4841	888.9979	926.1617	945.6781	960.655	971.0406	976.9172	1001.6201	1028.6215	1057.4373	1081.3515	1096.0492	1160.1584	1186.4127	1235.7578	1255.7939	1332.4894	1335.496	1369.4597	1407.0879	1427.1346	1469.0923	1483.7345	1501.6252	1514.2299	1734.7853	3000.9302	3013.8449	3049.1569	3094.908	3124.3479	3130.8909	3155.5933	3202.808	3218.5721
C1CC11COC=NC1	C1CC21COC=NC2	
InChI=1S/C6H9NO/c1-2-6(1)3-7-5-8-4-6/h5H,1-4H2	InChI=1S/C6H9NO/c1-2-6(1)3-7-5-8-4-6/h5H,1-4H2
