15
gdb 35833	2.07815	1.64483	1.03343	3.9513	79.27	-0.2558	-0.0498	0.206	1131.5467	0.113104	-379.643519	-379.635273	-379.634329	-379.676876	30.212	
C	 0.0369313057	-1.1716719935	 0.4342921175	-0.467136
C	-0.003678207	 0.0015277884	 0.180008399	 0.397334
C	-0.0210113191	 1.4306328695	-0.1472956219	-0.323653
N	-0.8098090186	 2.2317421702	 0.8145989484	-0.288354
C	 0.1385752756	 2.9342183999	 1.6992795851	-0.210716
C	 1.4685175752	 2.8584721183	 0.994358944	-0.179857
C	 1.3955057497	 2.0293547381	-0.0502450049	 0.222988
C	 2.442187399	 1.6708333078	-0.9363390235	 0.223732
N	 3.2709918493	 1.3712074414	-1.6883105381	-0.33337
H	 0.0661907692	-2.2089510631	 0.6612555934	 0.206532
H	-0.4338870147	 1.5491124534	-1.1559509922	 0.123748
H	-1.3389407252	 2.9182601776	 0.2915478105	 0.233806
H	-0.1894197272	 3.9625942853	 1.8862150567	 0.124453
H	 0.2041535539	 2.442921448	 2.6817641989	 0.137989
H	 2.3620337342	 3.371038429	 1.3278595671	 0.132504
62.0162	108.9596	164.1754	195.2323	235.6683	364.7568	461.2472	470.4847	558.2809	573.0546	638.6781	653.5775	664.8497	740.2782	761.3382	866.1162	882.9986	915.5369	943.2868	1009.8021	1059.4054	1106.4823	1159.6408	1212.4171	1260.9937	1282.5854	1330.4484	1363.0851	1466.5573	1493.4393	1684.0361	2239.0556	2339.4131	2997.7073	3039.1297	3063.3323	3222.6142	3502.0596	3554.0944
C#CC1NCC=C1C#N	C#C[C@H]1NCC=C1C#N	
InChI=1S/C7H6N2/c1-2-7-6(5-8)3-4-9-7/h1,3,7,9H,4H2	InChI=1S/C7H6N2/c1-2-7-6(5-8)3-4-9-7/h1,3,7,9H,4H2/t7-/m1/s1
