17
gdb 47245	2.69812	1.52768	1.0626	2.628	79.64	-0.2042	-0.0279	0.1763	1110.2485	0.139337	-418.046544	-418.038613	-418.037669	-418.079467	30.236	
O	 0.0467527295	-0.1301257902	-0.1285475621	-0.398848
C	-0.0262403099	 1.0863908689	-0.1092909121	 0.441823
N	-1.1723646864	 1.7466134483	 0.1930866382	-0.321836
C	-1.4547238532	 3.1714613513	 0.0383429469	-0.241515
C	-1.0597247082	 4.0144771936	 1.2204689654	-0.089197
C	 0.2028719481	 4.406185063	 1.4240153184	-0.074026
C	 1.3594768844	 4.1102388612	 0.5932040164	-0.112068
C	 1.6824118858	 3.0614931053	-0.1920620442	 0.004932
N	 1.1101679141	 1.8281860117	-0.4925322822	-0.367408
H	-1.9177925393	 1.1263347925	 0.463046713	 0.255578
H	-0.9316639079	 3.5292379672	-0.8551240908	 0.140356
H	-2.5254803979	 3.2651142912	-0.1616655883	 0.116006
H	-1.8349642041	 4.3008720661	 1.9246189976	 0.091223
H	 0.4109656611	 5.0503259116	 2.2765085209	 0.093873
H	 2.1368909268	 4.8694774633	 0.6186418031	 0.090272
H	 2.6409788084	 3.135930633	-0.6984381363	 0.11132
H	 1.7742392788	 1.1639792419	-0.8626700339	 0.259515
58.2919	96.5734	241.3507	275.712	310.8388	381.8587	451.4216	478.3278	542.8137	605.7739	620.2195	684.8245	750.1428	757.5976	769.7758	826.6691	874.4375	908.126	952.8663	971.501	998.5382	1074.6256	1107.6635	1167.9716	1242.5839	1287.0446	1336.6227	1369.347	1416.964	1428.6257	1459.0951	1480.7106	1486.9527	1503.731	1690.9869	1709.6317	1799.0038	3047.0152	3095.7937	3135.1345	3148.9692	3169.8068	3177.3767	3613.1635	3655.523
O=C1NCC=CC=CN1	O=C1NCC=CC=CN1	
InChI=1S/C6H8N2O/c9-6-7-4-2-1-3-5-8-6/h1-4H,5H2,(H2,7,8,9)/b3-1-,4-2-	InChI=1S/C6H8N2O/c9-6-7-4-2-1-3-5-8-6/h1-4H,5H2,(H2,7,8,9)/b3-1-,4-2-
