18
gdb 66795	3.38072	1.95034	1.95023	1.995	76.79	-0.2067	0.047	0.2537	829.2818	0.149605	-364.685406	-364.679346	-364.678402	-364.715401	26.115	
C	-0.02125724	 1.5395862874	 0.0193212837	-0.534303
C	 0.0024143549	 0.0398238559	 0.0009008376	 0.383007
C	 0.6507452542	-0.8537659962	-1.1303803684	-0.132189
C	 1.2731988142	-1.7660736108	-0.0315395023	-0.006882
C	 0.6702821564	-0.8801998469	 1.0992540499	-0.132013
C	-0.5795332896	-1.8092058678	 1.0592058341	-0.006808
C	-1.270051399	-0.8978138298	 0.0009429745	-0.132538
C	-0.5983188564	-1.7838188737	-1.0903437689	-0.00666
N	 0.0466441544	-2.6827410831	-0.0314566531	-0.182024
H	 0.99472452	 1.9525028777	 0.0156857753	 0.118615
H	-0.5462999379	 1.9390541891	-0.8567309223	 0.118599
H	-0.5309849705	 1.9172486134	 0.9139014709	 0.118622
H	 1.1501470958	-0.4700378378	-2.0194170671	 0.062504
H	 2.2666400082	-2.2154067599	-0.0456013804	 0.069028
H	 1.1851939236	-0.5176983296	 1.9883347443	 0.062479
H	-1.0576257622	-2.2929038662	 1.9115492868	 0.069008
H	-2.3023020479	-0.5494696697	 0.0141379095	 0.062559
H	-1.0912519483	-2.247377072	-1.9453954041	 0.068998
229.8695	240.9261	242.6117	517.963	632.8967	634.3212	747.089	747.8159	761.9141	843.3611	843.751	844.4489	845.7021	880.042	880.1541	892.6538	893.1039	934.2451	967.7079	967.8997	1038.1346	1117.4792	1117.9927	1123.245	1146.4659	1146.6278	1166.513	1170.9461	1173.2072	1173.3519	1215.2104	1215.3342	1241.5007	1268.6015	1268.8327	1350.4095	1410.5386	1487.2611	1487.416	3013.5552	3079.5743	3079.6994	3092.9146	3094.7007	3094.959	3111.7933	3112.0018	3122.105
CC12C3C4C1C1C2C3N41	C[C@@]12[C@H]3[C@H]4[C@@H]1[C@H]1[C@@H]2[C@@H]3N41	
InChI=1S/C8H9N/c1-8-2-5-3(8)7-4(8)6(2)9(5)7/h2-7H,1H3	InChI=1S/C8H9N/c1-8-2-5-3(8)7-4(8)6(2)9(5)7/h2-7H,1H3/t2-,3+,4-,5-,6+,7-,8+
