17
gdb 31282	1.98403	1.58469	0.93541	3.6724	70.91	-0.2324	0.0008	0.2332	1226.1736	0.137385	-455.160363	-455.15152	-455.150575	-455.194977	31.49	
N	-0.4739120015	 1.3227498329	 0.0884820674	-0.50068
C	 0.4756345648	 0.2426626147	-0.1920099003	-0.277582
C	 0.8570791158	-0.4625840774	 1.0689502225	 0.254268
C	 0.2446243816	-0.7657479589	 2.242950338	 0.169474
C	-1.1363040339	-0.4997941672	 2.7616533398	-0.165736
O	-1.731813478	-1.6829838408	 3.268953637	-0.419878
N	 1.1404553803	-1.4755345318	 3.0467111594	-0.319873
C	 2.213683192	-1.5643876019	 2.3363680275	 0.060156
O	 2.1354592531	-0.9714174335	 1.1267603352	-0.181391
H	-0.0099121615	 2.0675502336	 0.5995606132	 0.233715
H	-0.8055236428	 1.723567843	-0.7827912107	 0.235852
H	-0.0189561884	-0.4597740988	-0.8765622993	 0.13191
H	 1.4053369879	 0.5579059975	-0.6935215904	 0.108972
H	-1.0863967026	 0.27804739	 3.5422044624	 0.092723
H	-1.7716900758	-0.1189043053	 1.9606613019	 0.134332
H	-1.0639584349	-2.1033597832	 3.8238814142	 0.293306
H	 3.1481176041	-2.0428873427	 2.5848366119	 0.150434
50.9948	61.5487	156.3558	173.7476	229.9337	292.5381	307.3805	399.6901	419.154	482.829	641.9896	680.0089	682.0871	789.2813	836.0733	855.7124	958.4701	977.8369	989.5765	1060.809	1068.1764	1108.519	1145.9935	1168.8045	1188.3798	1250.0571	1297.2403	1311.0422	1355.9126	1368.8055	1435.7211	1442.0852	1503.4566	1510.3849	1562.7539	1649.8508	1675.5897	2959.5715	2967.4722	3024.8317	3123.1714	3273.4425	3496.7579	3580.477	3790.3583
NCC1=C(CO)N=CO1	NCc1c(CO)nco1	
InChI=1S/C5H8N2O2/c6-1-5-4(2-8)7-3-9-5/h3,8H,1-2,6H2	InChI=1S/C5H8N2O2/c6-1-5-4(2-8)7-3-9-5/h3,8H,1-2,6H2
