20
gdb 10610	2.56033	1.70219	1.22394	1.6266	71.33	-0.2499	0.0693	0.3192	1057.4447	0.175083	-386.117566	-386.107997	-386.107053	-386.151623	35.062	
C	-1.7644315478	-0.9933174423	-0.7382884152	-0.388137
C	-0.4359192898	-0.4296562395	-0.2178045265	-0.241224
C	 0.7371746066	-0.6301762401	-1.1681246378	 0.35043
C	 0.6720580767	 0.141394173	-2.4669761248	-0.150564
O	 0.7180625476	 1.5311789585	-2.1638602854	-0.420614
C	 2.1188685395	-0.8209667264	-0.5645811296	-0.371456
C	 1.4064265126	-1.9778753339	-1.2201541701	 0.04859
O	 0.8504906731	-2.9956836385	-0.436113277	-0.42037
H	-2.076653837	-0.514618338	-1.6723776018	 0.108606
H	-1.6835271258	-2.0694682802	-0.9162242774	 0.132412
H	-2.563666009	-0.8292790207	-0.0083572993	 0.106359
H	-0.5336063131	 0.6439294271	-0.0232507092	 0.109339
H	-0.20115349	-0.9098763671	 0.7359333058	 0.097449
H	 1.5177782635	-0.1482290333	-3.1113989486	 0.076976
H	-0.2511580087	-0.1111587207	-3.0109860446	 0.090025
H	 0.5490957432	 2.0195509727	-2.9747901274	 0.285954
H	 2.9748660497	-0.3811330604	-1.0654800617	 0.110271
H	 2.1821261166	-0.833627333	 0.518553541	 0.109999
H	 1.7811181338	-2.3142900298	-2.1880378529	 0.077898
H	 1.5732759784	-3.5043739874	-0.0547902776	 0.288057
61.9373	108.8935	167.2065	194.4951	247.4488	258.9751	279.264	286.7961	311.4495	383.7292	421.668	476.4468	608.087	699.5851	778.9923	824.4329	909.5519	924.6121	947.189	1020.8972	1032.3955	1037.4319	1051.9673	1082.774	1107.7887	1127.941	1181.0671	1237.5749	1243.1585	1270.4019	1290.265	1331.5574	1343.4812	1385.2799	1403.7565	1430.0147	1461.7214	1479.5679	1493.0195	1498.8067	1507.2888	1521.8856	2964.5726	2997.1735	3036.6787	3048.8408	3083.4394	3086.7752	3102.2723	3119.0584	3127.9632	3216.0851	3809.4643	3829.26
CCC1(CO)CC1O	CC[C@@]1(CO)C[C@H]1O	
InChI=1S/C6H12O2/c1-2-6(4-7)3-5(6)8/h5,7-8H,2-4H2,1H3	InChI=1S/C6H12O2/c1-2-6(4-7)3-5(6)8/h5,7-8H,2-4H2,1H3/t5-,6+/m1/s1
