19
gdb 72399	3.04376	1.47982	1.38456	2.8074	74.45	-0.2439	0.0156	0.2595	1009.4073	0.159642	-423.03001	-423.022046	-423.021102	-423.061635	32.859	
O	-0.0862948905	 1.3746695176	 0.0058927175	-0.503022
C	-0.0016890364	-0.0263987186	-0.0261197701	 0.384466
C	 0.6959647034	-0.6923932023	 1.2132026813	-0.265341
C	 0.1828048686	-2.1586370342	 1.1457786929	-0.265344
C	-0.7422047946	-2.1414657087	-0.1232036645	 0.38446
O	-1.6815862374	-3.1818259505	-0.2031258637	-0.503022
C	-1.3677195505	-0.7388925647	 0.0034718905	-0.267927
C	 0.1773456287	-1.9265243205	-1.3226476161	-0.148216
C	 0.6181187568	-0.6684297582	-1.264715121	-0.148228
H	 0.8056362231	 1.7296790108	 0.0803830245	 0.275402
H	 1.7858938879	-0.614769297	 1.1594991894	 0.088818
H	 0.363920088	-0.1860715791	 2.1243371349	 0.106143
H	 0.9885141972	-2.8930629232	 1.0546081361	 0.08883
H	-0.4179749192	-2.4206086385	 2.021684757	 0.106141
H	-1.2072244142	-4.0195107326	-0.1834442223	 0.275403
H	-1.9135802242	-0.5907771451	 0.9399232433	 0.096653
H	-1.9962219455	-0.4796813683	-0.8497991217	 0.109288
H	 0.4724338422	-2.7117465907	-2.0093958676	 0.092742
H	 1.3575823067	-0.1850982662	-1.8930955005	 0.092754
196.5954	213.9933	234.4902	265.3363	316.4873	367.2925	394.4797	431.5662	499.4172	502.9614	580.8832	647.529	661.9728	724.0175	788.2201	795.9714	845.5515	929.2768	939.402	942.3782	975.1298	980.6332	1017.3415	1061.3099	1082.7752	1092.343	1141.4369	1187.7434	1197.2559	1214.8081	1239.4347	1254.9284	1294.1266	1296.7632	1344.894	1380.4283	1392.6318	1486.8256	1490.9909	1515.1289	1647.3192	3044.9535	3054.2016	3065.7444	3087.2621	3105.7826	3134.6381	3181.4035	3208.1168	3810.1771	3810.2228
OC12CCC(O)(C1)C=C2	O[C@@]12CC[C@@](O)(C1)C=C2	
InChI=1S/C7H10O2/c8-6-1-2-7(9,5-6)4-3-6/h1-2,8-9H,3-5H2	InChI=1S/C7H10O2/c8-6-1-2-7(9,5-6)4-3-6/h1-2,8-9H,3-5H2/t6-,7+
