18
gdb 19188	3.42079	1.92703	1.71481	3.0395	71.04	-0.2294	-0.0018	0.2276	850.6981	0.155665	-347.813689	-347.80668	-347.805736	-347.84457	27.679	
C	-0.1550202784	 1.6089763784	-0.0107795476	-0.435157
C	 0.0250000076	 0.0976323351	 0.0186220257	 0.026149
C	 1.1632115893	-0.5989283987	-0.8171373844	-0.150739
C	 2.4494206366	 0.054212814	-0.2609032825	-0.225579
C	 2.1168931965	 0.0444442773	 1.275218805	-0.225583
C	 0.7175042787	-0.6119968404	 1.2417699607	-0.150742
C	 0.9708719803	-1.7286607154	 0.2117913062	 0.434175
O	 0.897287899	-2.9212118041	 0.1882929344	-0.328096
H	 0.7700069213	 2.1533967445	 0.1931943476	 0.122462
H	-0.5196209649	 1.9316422398	-0.9916405811	 0.12332
H	-0.893869021	 1.9206506822	 0.7349379325	 0.123319
H	-0.932458931	-0.3896808891	-0.1917383627	 0.09049
H	 1.0858106748	-0.7653336642	-1.8898937368	 0.07868
H	 3.3394776075	-0.5330651771	-0.5002778887	 0.11272
H	 2.6030625582	 1.0628260986	-0.6521061073	 0.106589
H	 2.8298063655	-0.548062267	 1.8540872177	 0.112721
H	 2.0923801474	 1.0478184884	 1.7071742493	 0.106589
H	 0.2038275826	-0.7911992025	 2.1843780019	 0.078681
150.9656	182.1557	263.4569	267.6902	289.8367	483.8355	502.8255	646.3	662.2205	714.3398	748.863	789.4008	856.9862	895.5877	903.6492	968.4381	972.0661	1011.4922	1027.1643	1044.7799	1093.295	1117.4283	1134.03	1136.7603	1185.0032	1209.2646	1247.4119	1248.9197	1261.1308	1318.1396	1327.5602	1401.3727	1417.8018	1485.7091	1497.3252	1509.4753	1518.5978	1902.085	3039.0373	3056.7587	3060.0116	3068.258	3096.1495	3098.4944	3112.5164	3122.6615	3139.3736	3142.4573
CC1C2CCC1C2=O	C[C@H]1[C@H]2CC[C@@H]1C2=O	
InChI=1S/C7H10O/c1-4-5-2-3-6(4)7(5)8/h4-6H,2-3H2,1H3	InChI=1S/C7H10O/c1-4-5-2-3-6(4)7(5)8/h4-6H,2-3H2,1H3/t4-,5+,6-
