23
gdb 122448	4.58086	0.64087	0.60855	2.3584	84.67	-0.2511	0.0874	0.3385	1961.6577	0.201661	-425.411536	-425.400356	-425.399412	-425.44874	39.49	
C	-0.1641376091	 1.5457971552	-0.2823298329	-0.384955
C	-0.0365373219	 0.0590391897	 0.0020220779	-0.023742
O	-1.3320773261	-0.5025918829	 0.0530501202	-0.245502
C	-1.3272588858	-1.8889946771	 0.3137820914	-0.090413
C	-2.7581771411	-2.360237148	 0.3464685196	-0.001631
O	-3.3360113154	-2.8460962308	-0.8706737555	-0.2935
C	-3.1856427812	-3.7659183495	 0.2247116641	 0.395085
C	-2.1969622049	-4.8926531783	 0.0037011397	-0.456601
C	-4.4901054676	-4.1870276081	 0.8703470613	-0.451218
H	 0.8248345686	 2.0114114732	-0.3293225978	 0.113751
H	-0.6724134256	 1.7102256605	-1.2364935183	 0.13035
H	-0.7435936398	 2.0387066304	 0.5034913196	 0.126055
H	 0.5613266464	-0.4351719883	-0.7827364557	 0.086615
H	 0.4888038622	-0.1101786928	 0.9581773853	 0.082628
H	-0.7627201896	-2.428550567	-0.4604018642	 0.095979
H	-0.8445102641	-2.0947604533	 1.2866669868	 0.085276
H	-3.4069719128	-1.6843395033	 0.9071755613	 0.089475
H	-1.3041673885	-4.5550030486	-0.5242996425	 0.127037
H	-1.892938386	-5.3338904049	 0.9592338924	 0.11991
H	-2.662094597	-5.6846900145	-0.5934244151	 0.125387
H	-4.9874260587	-4.9500625508	 0.2613684016	 0.123758
H	-4.3153074242	-4.6140673416	 1.8639385695	 0.117919
H	-5.1665250478	-3.3349409291	 0.9698720112	 0.128335
39.7855	71.8936	94.3433	127.8421	155.8644	190.0793	214.6696	244.7087	254.868	295.6126	370.2201	414.5107	429.2369	518.3359	529.6985	702.2466	820.7983	823.1341	896.6046	903.9691	943.6266	977.3503	1004.3058	1038.6596	1086.1903	1104.8128	1135.6791	1152.9335	1153.3118	1172.2826	1189.9013	1259.5645	1270.55	1296.0016	1337.9031	1377.2129	1402.5912	1408.1974	1417.8606	1436.6746	1470.7105	1474.4919	1483.478	1485.762	1497.1703	1499.1381	1502.544	1523.5733	1534.6342	2938.543	2951.8583	2973.817	3011.1193	3032.3465	3038.7081	3045.3771	3092.5584	3093.7115	3098.0525	3119.4722	3122.8352	3125.3217	3139.5024
CCOCC1OC1(C)C	CCOC[C@H]1OC1(C)C	
InChI=1S/C7H14O2/c1-4-8-5-6-7(2,3)9-6/h6H,4-5H2,1-3H3	InChI=1S/C7H14O2/c1-4-8-5-6-7(2,3)9-6/h6H,4-5H2,1-3H3/t6-/m1/s1
