17
gdb 52909	2.16659	1.19887	0.87938	5.2531	82.34	-0.2482	0.0008	0.249	1366.6337	0.135156	-380.831063	-380.821517	-380.820573	-380.867432	33.141	
C	 0.0224756698	 1.4910722684	-0.040301277	-0.500261
C	 0.0567504316	 0.0368400633	-0.0115211215	 0.051335
C	 0.0987115008	-1.1667176885	 0.0048770098	 0.075553
C	 0.0972225074	-2.6275901647	 0.0254465658	 0.00289
C	 0.2050074493	-3.2401584731	 1.4714253198	-0.264014
C	-1.327099659	-3.4251483974	 1.3948079995	-0.157645
N	-1.2496673738	-3.2605962615	-0.0776434103	-0.32274
C	 1.059076846	-3.1528257285	-0.9591768218	 0.260996
N	 1.8255472951	-3.5799289803	-1.7107659629	-0.342797
H	 0.6809038353	 1.8823143707	-0.8230048561	 0.162069
H	-0.9895543109	 1.8590203192	-0.2405726714	 0.154793
H	 0.3491546559	 1.9146313309	 0.9153990263	 0.155484
H	 0.7544060286	-4.1813991419	 1.4655977019	 0.139611
H	 0.604050688	-2.5717490341	 2.2316095215	 0.128183
H	-1.7292731967	-4.3916733876	 1.709425198	 0.117565
H	-1.8701574876	-2.6247825864	 1.9122314873	 0.108332
H	-1.9499787099	-2.6608450985	-0.5008340791	 0.230647
15.6197	75.3811	114.9188	123.0211	183.726	227.9262	303.8048	319.6068	449.2943	487.393	520.9082	564.1381	584.9559	685.0157	770.9105	854.934	924.8424	966.1095	1020.3164	1035.9201	1038.7448	1051.154	1054.2476	1126.1404	1174.291	1209.163	1227.816	1268.0444	1326.1723	1387.9497	1413.387	1475.0122	1475.793	1479.6341	1523.161	2358.0247	2365.2004	3024.9116	3031.6017	3086.9662	3094.2204	3097.095	3103.7245	3171.4671	3533.9581
CC#CC1(CCN1)C#N	CC#C[C@]1(CCN1)C#N	
InChI=1S/C7H8N2/c1-2-3-7(6-8)4-5-9-7/h9H,4-5H2,1H3	InChI=1S/C7H8N2/c1-2-3-7(6-8)4-5-9-7/h9H,4-5H2,1H3/t7-/m0/s1
