16
gdb 14628	8.31682	0.61525	0.59859	2.8057	64.46	-0.2633	-0.0339	0.2294	1738.8714	0.127601	-420.905809	-420.896687	-420.895743	-420.941842	29.579	
O	 0.1361959359	-0.1282198169	-0.5352455666	-0.22934
C	 0.1155942776	 1.0641055674	-0.380708985	 0.16211
C	 1.3352683594	 1.9247441022	-0.1277066621	-0.280578
C	 1.4479694975	 3.0634422908	-1.1546707091	-0.201875
C	 2.6071557034	 4.00256277	-0.8374241999	-0.085638
O	 2.6219255078	 5.1022521874	-1.7528780814	-0.175165
C	 3.596744323	 5.1440489331	-2.6825430289	 0.17143
O	 3.6676081615	 6.0040735163	-3.5060029223	-0.268316
H	-0.843227544	 1.6328694415	-0.4194682238	 0.077856
H	 1.2298693637	 2.3549904112	 0.8794521434	 0.12515
H	 2.2199178636	 1.2811061542	-0.1306331086	 0.127695
H	 1.5846428965	 2.6494501434	-2.1604907635	 0.12499
H	 0.5209935492	 3.6481757119	-1.176179571	 0.128216
H	 2.4990021855	 4.4311844409	 0.1640622126	 0.128677
H	 3.5660907874	 3.4686616062	-0.8734163927	 0.11636
H	 4.3143365321	 4.3045757003	-2.5877716813	 0.078428
33.3319	61.2452	86.3374	94.146	145.2621	203.7524	304.3568	369.9802	410.1079	522.2369	674.9422	754.2669	811.2694	920.4275	993.6485	1031.3057	1043.9885	1053.6404	1105.9192	1128.1556	1171.9298	1247.3171	1260.5693	1310.9596	1334.7411	1359.5702	1409.3523	1428.6563	1434.9265	1465.2429	1493.1238	1511.1976	1840.3686	1871.1084	2858.1681	2938.2343	3008.6061	3019.9351	3039.0562	3068.9768	3088.1419	3101.8356
O=CCCCOC=O	O=CCCCOC=O	
InChI=1S/C5H8O3/c6-3-1-2-4-8-5-7/h3,5H,1-2,4H2	InChI=1S/C5H8O3/c6-3-1-2-4-8-5-7/h3,5H,1-2,4H2
