19
gdb 18267	4.29635	1.56333	1.30766	1.873	70.92	-0.2299	0.0811	0.311	985.8062	0.166924	-365.030945	-365.023368	-365.022424	-365.062873	28.763	
C	 0.0689928767	 1.3187326329	 0.1247983973	-0.23574
O	-0.1562369214	-0.0540236364	-0.100814401	-0.245465
C	 0.5608858281	-0.5768910777	-1.2004749199	 0.147246
C	 2.0757114639	-0.7869559464	-0.94490844	-0.279636
C	 2.4113335244	-2.0560326644	-1.7561816346	-0.156647
N	 1.1739368267	-2.8522592116	-1.907972445	-0.099631
C	 0.4635093228	-3.075822303	-0.6419371609	-0.240945
C	 0.0529272009	-1.9680083904	-1.5408908135	-0.044876
H	 1.1109466427	 1.5306950393	 0.4078158784	 0.105768
H	-0.1749359603	 1.9217863657	-0.764440291	 0.103385
H	-0.5844246064	 1.6232866459	 0.9460623257	 0.127532
H	 0.4135328511	 0.081266556	-2.0734004368	 0.064492
H	 2.6841269034	 0.0680390892	-1.2480912092	 0.102552
H	 2.2294836137	-0.9338816868	 0.1284010417	 0.115404
H	 2.7473552607	-1.7926877869	-2.7650508372	 0.108495
H	 3.1971979671	-2.6642017569	-1.2971383189	 0.107991
H	-0.1263151327	-3.9868989929	-0.6127095993	 0.115764
H	 0.9530983186	-2.8259016201	 0.2954215091	 0.114834
H	-0.8530927697	-2.0494150455	-2.133394025	 0.089478
99.5132	121.1959	198.1826	238.3525	301.1436	389.739	432.547	496.428	640.4878	652.476	751.5656	832.4298	865.6033	884.0256	956.8421	983.4076	1003.0159	1012.4287	1022.9469	1103.0023	1110.3695	1134.473	1150.5718	1172.8757	1184.1926	1201.4575	1226.8449	1239.0611	1267.0628	1301.9105	1339.4559	1347.9937	1387.833	1399.9267	1479.7335	1486.8545	1493.4258	1500.302	1510.8752	1522.6911	2956.7051	2973.3696	3020.5957	3041.1098	3060.4014	3083.2841	3109.9698	3112.9511	3115.4168	3155.9483	3198.2124
COC1CCN2CC12	CO[C@H]1CCN2C[C@@H]12	
InChI=1S/C6H11NO/c1-8-6-2-3-7-4-5(6)7/h5-6H,2-4H2,1H3	InChI=1S/C6H11NO/c1-8-6-2-3-7-4-5(6)7/h5-6H,2-4H2,1H3/t5-,6-,7?/m0/s1
