21
gdb 91760	2.38582	1.77982	1.56763	0.7542	76.49	-0.2314	0.0797	0.3111	994.5142	0.186022	-424.24123	-424.233747	-424.232803	-424.272784	30.701	
C	-0.3095325761	 1.5462384564	-0.0431015911	-0.423658
C	 0.0005929164	 0.0493743791	-0.016800436	 0.04702
C	 0.8733790202	-0.4593644719	-1.2017426923	-0.248403
C	 1.9711906227	-1.2911245097	-0.4994869132	 0.078215
C	 3.1988186942	-0.4419327661	-0.1635171541	-0.082817
O	 2.8072384038	 0.7383788461	 0.5291292124	-0.259318
C	 1.9550830177	 0.4529904588	 1.633287513	-0.087309
C	 0.7998113814	-0.4588353232	 1.2115045788	 0.05071
O	 1.3719006361	-1.6871429483	 0.7437941109	-0.274009
H	 0.6084651643	 2.1367461557	-0.1115261115	 0.136973
H	-0.9348151081	 1.7960451582	-0.9062761774	 0.113869
H	-0.854223169	 1.858329195	 0.8552203935	 0.109755
H	-0.9441705537	-0.5039795072	-0.0199885728	 0.078695
H	 0.2929813733	-1.0810694848	-1.8871669917	 0.100452
H	 1.299286072	 0.3681472374	-1.7754449286	 0.105598
H	 2.2602378549	-2.198904668	-1.0359302752	 0.076551
H	 3.8905492861	-1.0394149455	 0.4506795521	 0.094207
H	 3.7227887908	-0.1110995241	-1.065972682	 0.104791
H	 2.5180999992	-0.0512827798	 2.4343848235	 0.095511
H	 1.6034618701	 1.4179536727	 2.0097314559	 0.10808
H	 0.1658090036	-0.6894498108	 2.0729756957	 0.075088
115.0588	228.2996	260.0142	315.4428	353.801	365.9105	434.4098	473.1734	496.3582	603.802	735.7145	784.2383	820.8743	840.8455	864.3742	903.4165	914.3477	937.6449	991.9981	1013.4801	1029.707	1051.772	1070.0152	1104.901	1120.4611	1150.3984	1164.3242	1207.0945	1235.7366	1262.6251	1292.6972	1304.4656	1322.7028	1337.4304	1351.0428	1365.8872	1377.58	1388.0774	1410.0269	1419.9669	1480.9177	1491.493	1494.4413	1501.9353	1515.5032	2984.4074	2989.9186	3032.1579	3041.8052	3062.0406	3071.1239	3075.9461	3082.7437	3087.8678	3093.0871	3109.7036	3118.7983
CC1CC2COCC1O2	C[C@H]1C[C@H]2COC[C@@H]1O2	
InChI=1S/C7H12O2/c1-5-2-6-3-8-4-7(5)9-6/h5-7H,2-4H2,1H3	InChI=1S/C7H12O2/c1-5-2-6-3-8-4-7(5)9-6/h5-7H,2-4H2,1H3/t5-,6-,7-/m0/s1
