20
gdb 73572	2.35875	1.90361	1.46051	3.0823	77.14	-0.2199	0.0781	0.298	988.801	0.173147	-403.101591	-403.09406	-403.093115	-403.133152	30.673	
C	-0.0882879671	 1.4585535513	 0.0185330893	-0.483561
C	 0.0146759436	-0.0569167217	-0.0492048827	 0.34361
C	-1.2690938708	-0.7627635126	-0.5260033213	-0.14142
O	-1.8661040118	-1.3090104178	 0.6500744274	-0.263009
C	-0.8183234173	-1.7712871786	 1.5053851354	-0.096818
C	 0.3296613862	-0.7712632779	 1.3173760935	-0.07662
C	 1.6785980537	-1.2274451263	 0.72640122	-0.063835
N	 1.3679231883	-2.0467028787	-0.4698016314	-0.340076
C	 1.3804307778	-0.569698171	-0.5730441158	-0.118082
H	 0.8053257888	 1.8992308152	 0.4748064564	 0.112418
H	-0.200187564	 1.894309951	-0.9814402828	 0.114676
H	-0.9563544428	 1.7569174116	 0.6156522342	 0.127126
H	-2.0002710283	-0.0783263209	-0.966794459	 0.095058
H	-1.033968026	-1.5550741822	-1.2481343437	 0.104602
H	-1.2212485773	-1.7924410635	 2.5218013204	 0.097709
H	-0.502569723	-2.7840025503	 1.2224275879	 0.103928
H	 0.4434254816	-0.0723276735	 2.1482566539	 0.073991
H	 2.6202828057	-1.3463073772	 1.2479065816	 0.091799
H	 2.2537076147	-2.3852614481	-0.8430424976	 0.230826
H	 2.0405595179	-0.0642286389	-1.2685058158	 0.087678
152.0908	179.0021	260.5572	275.1402	285.1748	352.5221	456.9528	519.403	613.8772	644.49	662.1217	786.5761	827.7148	844.9346	879.0733	917.6011	933.0297	941.0717	961.1956	978.6321	1012.3427	1032.9435	1075.0149	1080.4937	1086.0191	1101.3336	1155.643	1184.1249	1208.0705	1213.3116	1256.6103	1269.1538	1291.6224	1327.976	1336.0561	1363.3018	1373.0313	1396.182	1413.7717	1492.4593	1498.2479	1501.5853	1514.7019	3016.3604	3020.0781	3022.5097	3079.1552	3080.2228	3085.2362	3097.64	3098.9898	3174.932	3191.4798	3481.1218
CC12COCC1C1NC21	C[C@]12COC[C@H]1[C@H]1N[C@@H]21	
InChI=1S/C7H11NO/c1-7-3-9-2-4(7)5-6(7)8-5/h4-6,8H,2-3H2,1H3	InChI=1S/C7H11NO/c1-7-3-9-2-4(7)5-6(7)8-5/h4-6,8H,2-3H2,1H3/t4-,5+,6+,7-/m0/s1
