19
gdb 90544	4.18473	1.06029	0.95288	2.1905	75.66	-0.2423	-0.0317	0.2106	1266.0443	0.157943	-423.001909	-422.993302	-422.992357	-423.036	31.626	
C	 0.1462065373	 1.549016201	-0.0301220474	-0.403869
C	 0.1010292036	 0.0372731285	-0.1862400706	 0.021528
C	 1.2954116706	-0.6876971408	-0.8948049061	-0.274988
C	 1.4556208162	-1.6319304999	 0.3281586685	-0.080712
C	 2.378009582	-1.0813064213	 1.423782865	 0.041956
O	 1.3214316043	-0.272286275	 1.9911164842	-0.310983
C	 0.3471073846	-0.8324984204	 1.0731392306	 0.102589
C	 2.8790184143	-2.0823714739	 2.4483796423	 0.127805
O	 3.2912955833	-3.1795048208	 2.1750270411	-0.240738
H	 1.047003191	 1.8548822114	 0.5092489892	 0.12849
H	 0.1445520581	 2.0416479208	-1.0081382276	 0.114153
H	-0.7191456551	 1.9164937192	 0.53204403	 0.117264
H	-0.8454328414	-0.2675104858	-0.6470232124	 0.076786
H	 1.0230463946	-1.1963420053	-1.821761924	 0.107937
H	 2.1683120071	-0.0585150641	-1.0944622491	 0.100528
H	 1.4650722696	-2.7085498145	 0.1723814186	 0.097879
H	 3.2324969068	-0.4754124926	 1.0829364681	 0.103865
H	-0.5101241239	-1.2525792725	 1.6058029386	 0.078552
H	 2.8221020068	-1.708137404	 3.4955473911	 0.091958
45.8685	82.5604	149.2878	201.6071	224.9934	277.8798	347.5898	403.2223	515.8998	602.1873	656.722	770.7049	781.2553	836.0946	878.4719	883.7404	931.0609	960.3858	979.275	1014.1496	1035.3413	1066.0375	1086.8177	1110.5367	1131.1677	1168.2087	1196.294	1217.2743	1237.7709	1267.221	1288.6557	1292.5316	1324.5828	1349.0919	1362.01	1397.2049	1408.5713	1485.1126	1492.3554	1499.5677	1831.2926	2885.9522	2983.7221	3033.2809	3039.8902	3054.4352	3074.7265	3097.5409	3110.705	3116.6282	3141.3011
CC1CC2C(OC12)C=O	C[C@H]1C[C@H]2[C@@H](O[C@@H]12)C=O	
InChI=1S/C7H10O2/c1-4-2-5-6(3-8)9-7(4)5/h3-7H,2H2,1H3	InChI=1S/C7H10O2/c1-4-2-5-6(3-8)9-7(4)5/h3-7H,2H2,1H3/t4-,5-,6-,7-/m0/s1
