20
gdb 12851	2.81165	2.26747	1.75532	1.5041	73.61	-0.2472	0.0835	0.3307	863.195	0.178717	-349.006406	-348.998952	-348.998008	-349.038114	29.188	
C	-0.2403395243	 1.5134945163	 0.1057178971	-0.485107
C	 0.0358772388	 0.0230370812	-0.0052790559	 0.347234
C	-1.1770191464	-0.9217284734	 0.2683718174	-0.266354
C	-0.4134059978	-1.5830389909	 1.447636331	-0.214615
C	 0.824207294	-0.6898298988	 1.1606863874	-0.069468
C	 1.9826456141	-1.3803028968	 0.4391704042	-0.094717
O	 1.5429259487	-1.5629353828	-0.9037559706	-0.253599
C	 0.8503247317	-0.3696603554	-1.2463800539	-0.134607
H	 0.688753199	 2.0948338571	 0.0910474239	 0.113082
H	-0.8646741219	 1.8630604441	-0.7257145059	 0.116325
H	-0.7698817384	 1.751711951	 1.0340859705	 0.114862
H	-2.0931603245	-0.397084986	 0.552683794	 0.093512
H	-1.4101786077	-1.5989028913	-0.5576572829	 0.101284
H	-0.8659533634	-1.41210314	 2.4271986444	 0.096862
H	-0.2321525055	-2.6556662324	 1.3368089791	 0.101297
H	 1.158882559	-0.0609804789	 1.9886245899	 0.063644
H	 2.885364658	-0.7465040108	 0.4646459694	 0.082969
H	 2.238837667	-2.3644219876	 0.8428370387	 0.105001
H	 0.2371984377	-0.5794852309	-2.1281548508	 0.104175
H	 1.5659797818	 0.4319248163	-1.501065377	 0.078219
59.319	222.1058	228.8674	253.4182	326.1302	386.3623	398.0907	572.2674	604.409	698.4612	755.3095	816.9131	857.4934	870.6011	922.9252	945.487	955.8481	975.0331	1003.6537	1025.8939	1038.901	1095.6184	1142.9252	1170.3353	1179.0131	1204.0187	1229.0029	1242.6497	1263.3939	1278.8817	1288.1792	1296.398	1330.54	1361.7696	1400.6758	1413.2886	1470.8126	1489.5272	1494.1779	1494.6503	1501.4525	1513.2501	2947.7713	2961.4251	3019.3758	3051.1406	3058.6083	3077.6199	3081.0049	3082.9907	3083.3808	3092.918	3097.0689	3116.3236
CC12CCC1COC2	C[C@]12CC[C@H]1COC2	
InChI=1S/C7H12O/c1-7-3-2-6(7)4-8-5-7/h6H,2-5H2,1H3	InChI=1S/C7H12O/c1-7-3-2-6(7)4-8-5-7/h6H,2-5H2,1H3/t6-,7+/m0/s1
