20
gdb 109239	2.55305	1.37855	1.0238	1.9247	80.49	-0.2274	0.0214	0.2488	1215.8597	0.171182	-403.131464	-403.122639	-403.121695	-403.164742	33.908	
C	-0.0455124221	 1.5501744615	 0.0543150258	-0.499752
C	 0.0964816336	 0.0519287439	-0.0305047736	 0.22164
N	-0.8153560682	-0.8306704948	 0.7588728875	-0.370299
C	 0.6381128839	-0.8116456061	 1.05377772	-0.084156
C	 1.4128963548	-1.9614316277	 0.421604588	-0.26232
C	 1.2053030113	-1.7298723564	-1.0609489746	-0.185338
C	 0.4986381762	-0.6247229795	-1.3159268187	 0.270742
C	 0.0687006484	-0.115409549	-2.6596262099	-0.173242
O	 0.3789773282	-0.986408837	-3.7314265031	-0.408435
H	 0.8562097775	 2.0556593353	-0.3085455923	 0.128328
H	-0.891670287	 1.9090095353	-0.5431855662	 0.126574
H	-0.2121889271	 1.8671175939	 1.0891488847	 0.115238
H	-1.2824953103	-0.2584729932	 1.4624687569	 0.219308
H	 0.9641798004	-0.3923263163	 2.000327612	 0.083438
H	 2.4755026256	-1.9291454862	 0.6969946264	 0.104289
H	 1.0283735502	-2.9367947608	 0.7442052297	 0.116491
H	 1.5747582196	-2.4120418832	-1.8175716294	 0.093014
H	-1.0105255008	 0.1171114851	-2.6302458246	 0.099886
H	 0.5745110895	 0.8314668695	-2.8911943266	 0.120641
H	-0.0575923038	-1.8254239343	-3.5488540319	 0.283953
87.51	154.2855	176.3126	208.258	259.6428	281.1612	310.1995	355.8306	446.1919	457.9609	553.2771	605.2015	720.6634	732.158	818.7966	828.3331	851.2601	907.5742	941.2694	975.0149	995.1825	1019.7648	1051.3538	1066.3584	1069.7653	1115.3233	1139.207	1178.396	1192.3067	1212.4447	1247.4931	1304.2721	1329.2703	1354.1893	1390.7184	1413.5609	1420.3861	1432.1151	1467.8802	1484.1413	1491.158	1500.6824	1705.6949	2948.9834	3018.1861	3023.6489	3032.0938	3054.0626	3085.7929	3096.6641	3158.61	3202.8822	3458.4731	3808.2997
CC12NC1CC=C2CO	C[C@]12N[C@H]1CC=C2CO	
InChI=1S/C7H11NO/c1-7-5(4-9)2-3-6(7)8-7/h2,6,8-9H,3-4H2,1H3	InChI=1S/C7H11NO/c1-7-5(4-9)2-3-6(7)8-7/h2,6,8-9H,3-4H2,1H3/t6-,7+/m0/s1
