23
gdb 70721	2.49699	1.51235	1.11369	0.3904	92.15	-0.2235	0.0274	0.2509	1204.4002	0.208074	-351.161906	-351.153371	-351.152427	-351.194608	34.54	
C	-0.1372024187	 1.4816351088	-0.2161810275	-0.457392
C	-0.0566559331	-0.0130798456	 0.0684274769	 0.307832
C	-0.4035885218	-0.4477226961	 1.4920900287	-0.324408
C	 1.0307150714	-0.4534251778	 1.0270622631	-0.043352
C	 1.8836655963	-1.7061994105	 0.9346168478	-0.219058
C	 1.2321132521	-2.9714636484	 0.3731383896	-0.208277
C	 0.9402619037	-2.919993763	-1.1328567759	-0.245109
C	-0.1723125429	-2.0038871656	-1.5719099003	-0.079126
C	-0.5624385127	-0.8305551309	-1.0686766991	-0.101518
H	 0.5146465301	 1.76189838	-1.0513955864	 0.117813
H	-1.1596920965	 1.7773894213	-0.4796049639	 0.113989
H	 0.163944145	 2.0690034886	 0.6566211267	 0.109803
H	-0.7207277868	 0.3106676132	 2.2015859793	 0.102681
H	-0.9125258566	-1.3989915864	 1.5991308494	 0.113629
H	 1.6116172579	 0.3863597406	 1.4045127501	 0.077014
H	 2.7737194151	-1.4782635758	 0.3307080213	 0.09351
H	 2.2563057758	-1.9228042258	 1.9451011676	 0.094936
H	 1.9118800141	-3.8113411171	 0.5613162775	 0.091722
H	 0.3079850152	-3.2016316351	 0.9171965939	 0.099083
H	 1.8678147365	-2.6520593601	-1.663523688	 0.105875
H	 0.698058417	-3.9328015487	-1.4774119613	 0.096327
H	-0.7329808447	-2.362138666	-2.4338977897	 0.079623
H	-1.4048203063	-0.3539102696	-1.5717232198	 0.074403
81.0396	172.1734	233.6117	249.7233	302.6344	332.7661	351.2056	370.8514	452.4506	491.5329	581.994	633.453	717.5512	727.3487	790.4574	817.7643	875.3193	901.6365	912.4025	937.7807	963.8796	974.8235	1007.367	1019.9442	1052.1027	1083.8908	1102.0641	1113.3933	1126.1886	1157.6303	1192.4515	1226.6825	1263.0248	1284.3097	1298.1925	1345.1906	1378.9255	1387.8385	1396.2776	1414.8669	1430.3996	1445.3438	1474.1848	1488.2519	1490.2088	1492.8349	1499.9277	1506.5986	1732.9408	2983.6631	3000.0253	3020.7934	3021.9554	3033.7754	3044.8133	3063.3869	3082.6884	3099.3373	3105.7193	3114.1719	3125.7999	3138.7864	3215.4043
CC12CC1CCCC=C2	C[C@]12C[C@H]1CCCC=C2	
InChI=1S/C9H14/c1-9-6-4-2-3-5-8(9)7-9/h4,6,8H,2-3,5,7H2,1H3	InChI=1S/C9H14/c1-9-6-4-2-3-5-8(9)7-9/h4,6,8H,2-3,5,7H2,1H3/t8-,9+/m1/s1
