18
gdb 68979	2.77011	1.33662	1.07643	2.6566	75.71	-0.2451	0.0272	0.2722	1151.773	0.14656	-401.927099	-401.918341	-401.917397	-401.960822	32.407	
C	 0.9687243065	 1.1321280677	 0.1510940383	-0.502024
C	 0.1807041318	-0.1444841397	 0.1322325006	 0.210501
C	 0.7414135646	-1.4941521946	-0.3000391445	-0.385479
C	 0.1176397211	-1.345891394	 1.0530319957	 0.43673
C	 0.6991582957	-1.7122775468	 2.3957630694	-0.453045
C	 2.1356414999	-1.4624880799	 2.473870701	 0.272805
N	 3.2709029316	-1.2518784609	 2.5160426178	-0.316319
O	-1.3046243716	-1.4515064815	 0.9580448721	-0.332017
C	-1.3435718094	-0.2558629644	 0.1255972224	-0.128224
H	 2.0063222185	 0.9507189964	 0.4458250777	 0.147169
H	 0.9833967525	 1.599472273	-0.8406451276	 0.127081
H	 0.5408124618	 1.8554951455	 0.8540758126	 0.121133
H	 0.2389323692	-2.0989320716	-1.0507922578	 0.115222
H	 1.8262655553	-1.5355017503	-0.3190881835	 0.137426
H	 0.1912619517	-1.1468078447	 3.1855848345	 0.162237
H	 0.5112808133	-2.7752544438	 2.5954477714	 0.167359
H	-1.8451633709	 0.5613948981	 0.6569399615	 0.110114
H	-1.8408557217	-0.4359539785	-0.8345127115	 0.10933
54.7861	110.6954	179.9169	193.531	239.8989	319.8328	353.8248	391.1086	427.6268	449.359	512.6292	636.1262	704.4647	757.9088	845.0512	919.0288	951.4869	956.9815	973.2146	985.4598	1017.4002	1036.5805	1063.0675	1118.9002	1142.8052	1157.3559	1221.9091	1226.5187	1284.4302	1323.6367	1359.7882	1408.4406	1428.5059	1465.3046	1487.4584	1495.9908	1502.6579	1522.1846	2365.4962	3022.3225	3027.3109	3031.675	3070.7642	3074.5909	3084.2489	3109.9997	3112.089	3207.9962
CC12CC1(CC#N)OC2	C[C@@]12C[C@]1(CC#N)OC2	
InChI=1S/C7H9NO/c1-6-4-7(6,2-3-8)9-5-6/h2,4-5H2,1H3	InChI=1S/C7H9NO/c1-6-4-7(6,2-3-8)9-5-6/h2,4-5H2,1H3/t6-,7-/m0/s1
