16
gdb 97427	11.89615	0.44688	0.43354	2.8091	94.43	-0.2517	-0.0326	0.2191	2414.1662	0.120299	-400.677651	-400.667404	-400.66646	-400.716178	34.513	
C	-0.0745998964	 1.4403588637	-0.1705817381	-0.317621
N	 0.0570531838	 0.0010518971	-0.0909084737	-0.196054
C	-0.9944587415	-0.6742639235	 0.0234228738	 0.148223
O	-0.9390754892	-2.0252222124	 0.0822618218	-0.204935
C	-2.1938192478	-2.6719242683	 0.310138122	-0.25644
C	-2.0378307703	-4.1055827398	 0.1477880046	 0.335482
C	-1.9490654671	-5.3046598147	 0.023764989	-0.176933
C	-1.8414765836	-6.6533976247	-0.1167506965	 0.294038
C	-1.7481065015	-7.8504408135	-0.2412814788	-0.545734
H	 0.5018436115	 1.9056987085	 0.6367536025	 0.131455
H	 0.3553643283	 1.7959871604	-1.1137075225	 0.131907
H	-1.1144374246	 1.8012915419	-0.1064934625	 0.096329
H	-2.0126169461	-0.2551464767	 0.074872787	 0.07472
H	-2.5543606526	-2.4490280494	 1.32523293	 0.145191
H	-2.9492224451	-2.2977280105	-0.3967881578	 0.14262
H	-1.6615769278	-8.9031497881	-0.350801461	 0.197751
3.7628	56.1842	91.0494	140.0948	171.0365	205.5099	242.4168	304.0339	341.456	399.4841	418.3216	541.6386	543.8291	594.8234	612.2212	628.6221	771.6918	974.8087	1013.6991	1015.6021	1078.7305	1141.009	1153.0556	1190.3295	1231.1357	1255.1387	1384.1644	1426.8616	1450.503	1480.4135	1489.8619	1505.2526	1786.6689	2187.4568	2372.4903	2966.3676	2978.2579	2992.7675	3018.2789	3061.0311	3081.3459	3503.6686
CN=COCC#CC#C	CN=COCC#CC#C	
InChI=1S/C7H7NO/c1-3-4-5-6-9-7-8-2/h1,7H,6H2,2H3	InChI=1S/C7H7NO/c1-3-4-5-6-9-7-8-2/h1,7H,6H2,2H3
