18
gdb 49388	2.54469	1.83558	1.42891	2.6881	75.63	-0.2303	-0.0326	0.1978	961.9827	0.147791	-401.866922	-401.85945	-401.858506	-401.898894	29.184	
O	-0.3327208855	 0.0574562443	 0.2403461842	-0.250535
C	-0.0872389822	 1.2044367252	-0.0309329806	 0.127778
C	 1.2015598236	 1.9565916156	 0.1311374603	-0.068323
C	 1.5927664564	 3.0074966176	 1.0989538322	-0.072683
C	 1.3606292135	 2.7093214159	 2.5866446715	-0.027536
C	 0.1389554124	 1.8498340165	 3.0273423535	-0.259706
C	 1.0086768155	 0.5553269777	 2.8771912984	-0.238666
C	 2.1902756427	 1.42608753	 2.3796935227	 0.029927
N	 2.4306779428	 1.7358308665	 0.901250532	-0.179461
H	-0.8354075412	 1.8334039009	-0.5690143576	 0.084208
H	 1.484521749	 2.259095125	-0.8847255858	 0.125717
H	 1.9485320782	 3.9690859822	 0.7377763629	 0.101041
H	 1.6839445129	 3.5103059437	 3.2500776757	 0.077696
H	-0.1824428318	 2.0504134319	 4.0516772418	 0.105194
H	-0.7414443741	 1.9152928394	 2.382983165	 0.107392
H	 1.242267768	 0.0986492998	 3.8428221512	 0.099693
H	 0.6471626327	-0.2128443748	 2.1984740596	 0.151119
H	 3.164231217	 1.2710509126	 2.843012343	 0.087144
90.8592	172.0402	184.6615	250.2361	292.9223	399.4488	550.2251	632.2517	663.0167	680.9355	718.7056	766.5165	814.6163	846.1467	872.2546	886.4322	936.0746	956.4317	977.6278	1026.417	1043.0562	1068.3853	1078.9889	1119.1614	1130.2746	1176.6014	1213.512	1238.0694	1252.5614	1266.0084	1276.8595	1302.5503	1315.694	1358.3709	1419.6826	1431.6562	1472.3903	1492.1974	1821.6443	2852.8556	3040.0543	3063.9354	3068.893	3107.2551	3110.963	3121.3465	3140.7455	3171.2318
O=CC1C2C3CCC3N12	O=C[C@H]1[C@H]2[C@H]3CC[C@H]3N12	
InChI=1S/C7H9NO/c9-3-6-7-4-1-2-5(4)8(6)7/h3-7H,1-2H2	InChI=1S/C7H9NO/c9-3-6-7-4-1-2-5(4)8(6)7/h3-7H,1-2H2/t4-,5+,6-,7+,8?/m0/s1
