17
gdb 123829	3.57249	1.50772	1.09997	1.6117	73.71	-0.2294	0.0217	0.2511	1056.32	0.140569	-418.031337	-418.024432	-418.023488	-418.062646	27.195	
C	-0.0213863387	 1.4052500786	 0.0183008026	-0.077308
C	 1.4131796971	 1.9614167399	 0.0362015385	-0.344093
C	 2.1918746641	 1.263404319	-1.0382127771	 0.169486
C	 1.7272495096	 0.0927558386	-1.5981770453	 0.296692
C	 0.4418148896	-0.5725852682	-1.2135316379	-0.190822
O	-0.0399727093	-0.0186348475	-0.0022139254	-0.243437
N	 2.6337708129	-0.2776130767	-2.5344117168	-0.294077
N	 3.6765047029	 0.5798038524	-2.6207256788	-0.227682
C	 3.4085265394	 1.5148362062	-1.7132109336	-0.124208
H	-0.5703486942	 1.6944744127	 0.9183335555	 0.111109
H	-0.5622135509	 1.8017881622	-0.8563408603	 0.09303
H	 1.3833171503	 3.0466821831	-0.1177407586	 0.108121
H	 1.8603341778	 1.7923315677	 1.0241042194	 0.117404
H	-0.3109722789	-0.4638900175	-2.0151391814	 0.104921
H	 0.5716164201	-1.6454952319	-1.0296123377	 0.123492
H	 2.6203033762	-1.083725604	-3.1356297001	 0.269405
H	 4.0981867918	 2.3356330655	-1.577309673	 0.107968
112.7065	214.2343	281.9592	331.0754	367.611	455.5551	485.1991	519.775	662.4781	684.1907	703.5007	748.9462	859.3499	884.0955	947.0961	969.7702	982.2164	1026.9463	1090.5219	1109.5461	1126.6162	1185.2487	1210.6576	1230.085	1248.1591	1289.4095	1302.731	1335.8801	1381.135	1404.2857	1422.4261	1445.2351	1479.0474	1490.5685	1498.8914	1532.6192	1624.8767	2939.7291	2976.1588	3021.6674	3052.7078	3060.2862	3094.3773	3239.8304	3673.0893
C1CC2=C(CO1)NN=C2	C1Cc2c(CO1)[nH]nc2	
InChI=1S/C6H8N2O/c1-2-9-4-6-5(1)3-7-8-6/h3H,1-2,4H2,(H,7,8)	InChI=1S/C6H8N2O/c1-2-9-4-6-5(1)3-7-8-6/h3H,1-2,4H2,(H,7,8)
