23
gdb 41692	2.86093	1.68402	1.41832	0.11	87.32	-0.2632	0.0808	0.3439	1037.0612	0.210496	-351.148044	-351.140937	-351.139993	-351.179141	30.637	
C	-0.0132520831	 1.4830221333	-0.2827795469	-0.230186
C	 1.5051874034	 1.5716341853	 0.0367872209	-0.240233
C	 1.476177035	 0.1075653708	 0.5636385856	 0.005475
C	 1.5731140133	-0.0856570682	 2.0752525957	-0.015041
C	 0.3846627448	 0.5856456559	 2.8253944332	-0.234842
C	-0.4354276698	-0.6875215194	 2.4737333293	 0.004727
C	 0.9209639864	-1.4503770995	 2.441706927	-0.224425
C	-1.0243070935	-0.5967510574	 1.0584004965	-0.236258
C	 0.0005061656	-0.0425447193	 0.041752029	 0.023533
H	-0.6409900527	 2.0650229524	 0.3979828732	 0.097585
H	-0.3027663439	 1.7426760784	-1.3045122906	 0.09112
H	 2.1294616722	 1.6989499682	-0.8511789863	 0.095136
H	 1.7991759104	 2.3305070222	 0.7675573267	 0.094455
H	 2.1955338671	-0.5595723152	 0.0768303057	 0.059086
H	 2.5835539248	 0.1222750145	 2.440038231	 0.05358
H	 0.5844601801	 0.6459990143	 3.8989732578	 0.092638
H	 0.0196286116	 1.5572731195	 2.4831218017	 0.091012
H	-1.1880774315	-1.0233807083	 3.1917748197	 0.053855
H	 1.0294696968	-2.2749113361	 1.7289937531	 0.083352
H	 1.2180063129	-1.7929400144	 3.4367402763	 0.090714
H	-1.3597127778	-1.5969091243	 0.7565607574	 0.090272
H	-1.9189848127	 0.0396476075	 1.0633515761	 0.090195
H	-0.0383896395	-0.6268025198	-0.881011942	 0.064247
136.2316	200.5476	296.0032	366.3551	397.3257	427.5703	469.6171	595.7345	686.469	739.1167	772.986	822.1729	833.1336	846.8861	857.5472	912.4134	919.6825	939.0881	950.4224	961.5407	976.0567	1001.1283	1045.4203	1075.8987	1086.7173	1097.1533	1112.1674	1121.3119	1134.0696	1176.9686	1218.9248	1225.3031	1237.4766	1250.1618	1264.3495	1270.5826	1275.8245	1287.4079	1301.1824	1317.6667	1340.9221	1350.2451	1367.9168	1377.7225	1476.1271	1481.1225	1488.5316	1498.6515	1517.5128	3011.5003	3034.6418	3038.5313	3044.2025	3049.354	3051.6705	3056.0636	3060.251	3065.2185	3072.1376	3091.4515	3098.1351	3105.9584	3112.3621
C1CC2C3CC(C3)CC12	C1C[C@H]2[C@H]3C[C@H](C3)C[C@@H]12	
InChI=1S/C9H14/c1-2-9-7(1)3-6-4-8(9)5-6/h6-9H,1-5H2	InChI=1S/C9H14/c1-2-9-7(1)3-6-4-8(9)5-6/h6-9H,1-5H2/t6-,7-,8+,9-/m1/s1
