18
gdb 68380	2.99254	1.54474	1.2215	2.3382	72.8	-0.2529	0.0223	0.2751	1033.7474	0.148852	-439.09127	-439.083716	-439.082772	-439.123139	30.575	
O	-0.1400753172	 1.4129439705	-0.125587305	-0.481653
C	 0.0063199039	 0.033031717	 0.0519146766	 0.404661
C	 0.1547655721	-0.5746235373	 1.4833188685	-0.306804
C	-0.6203083623	-1.7767537719	 0.8960364898	 0.10494
C	-1.2907981133	-0.7965930086	-0.094760369	-0.278056
O	 0.2717907285	-2.6680468024	 0.2070205143	-0.256702
C	 1.1594948748	-2.1030777514	-0.6658952775	 0.392797
N	 2.0068750191	-2.7924214204	-1.3025632428	-0.529885
C	 1.0788604185	-0.5912336867	-0.8441318326	-0.357406
H	 0.7327895656	 1.8213857387	-0.1164039483	 0.279591
H	 1.1544513096	-0.7633117235	 1.8833540686	 0.105096
H	-0.4505024813	-0.0236085274	 2.2063910488	 0.114733
H	-1.2292334808	-2.4072119137	 1.5407877882	 0.094434
H	-2.1368384198	-0.2819357152	 0.3658222391	 0.118107
H	-1.5655473802	-1.1743759113	-1.0824173241	 0.110835
H	 1.9106416001	-3.7805419001	-1.0601657655	 0.220076
H	 0.8671837764	-0.3710818692	-1.8954332224	 0.141195
H	 2.0669090264	-0.170375137	-0.6211745964	 0.124041
76.0797	254.7612	258.2657	315.2355	403.8779	415.8959	436.3285	439.101	488.872	554.921	600.5742	671.713	806.1751	836.2081	885.251	901.0604	906.1142	915.8135	946.0543	977.4506	1016.8046	1048.2626	1069.6796	1082.9068	1156.2973	1176.7151	1182.5664	1216.5738	1232.9826	1255.2242	1267.6786	1296.5545	1342.0205	1390.6937	1398.2871	1466.4885	1468.5637	1503.6711	1753.8031	3038.0669	3062.2482	3070.3377	3085.733	3128.8727	3132.739	3138.2169	3466.8314	3799.9106
OC12CC(C1)OC(=N)C2	O[C@@]12C[C@@H](C1)O[C]([NH])C2	
InChI=1S/C6H9NO2/c7-5-3-6(8)1-4(2-6)9-5/h4,7-8H,1-3H2	InChI=1S/C6H9NO2/c7-5-3-6(8)1-4(2-6)9-5/h4,7-8H,1-3H2/t4-,6-
