19
gdb 68296	2.80575	1.46171	1.35866	3.1678	75.08	-0.24	0.0717	0.3116	1038.4069	0.159378	-422.949722	-422.941842	-422.940898	-422.982003	30.984	
O	 0.0192886985	 1.3366158454	 0.0128230827	-0.473247
C	 0.0867489493	-0.041455098	 0.0003741924	 0.332224
C	 0.6869707504	-0.9895129618	-1.0884472916	-0.298482
C	 0.0308838801	-1.9092540672	-0.0173645496	-0.127005
C	 0.6742319597	-1.0097110134	 1.0783166963	-0.29848
C	-1.1712293088	-0.9297518218	-0.0153014154	 0.338793
C	-2.3046323146	-0.886128305	 1.0216790234	-0.179971
O	-3.2951119284	-0.8518749819	-0.0270632271	-0.278626
C	-2.2923657777	-0.8666802776	-1.0645437373	-0.179971
H	 0.9140909549	 1.6930415431	 0.0213538203	 0.285976
H	 0.2212177049	-0.9654916505	-2.0765933381	 0.101887
H	 1.7778873173	-1.0301003014	-1.1574803173	 0.087597
H	-0.0116305687	-2.9958470532	-0.0277434435	 0.085978
H	 1.7642657399	-1.0516980888	 1.1594032248	 0.087596
H	 0.1968897468	-1.0040619951	 2.0611940333	 0.101887
H	-2.4137892313	-1.7724069071	 1.660818997	 0.097972
H	-2.3390351539	 0.0148998052	 1.6477782523	 0.108951
H	-2.3195027902	 0.0458675237	-1.674097313	 0.10895
H	-2.3939039681	-1.7408774346	-1.7213343597	 0.097972
89.0783	191.1163	214.3133	224.6224	254.0752	387.2364	410.2926	456.6539	569.6181	615.8899	655.0125	750.5103	805.7678	860.7018	905.4543	942.625	953.4589	957.8273	988.7294	989.6611	1036.6407	1047.5816	1058.7209	1109.7638	1125.421	1135.0392	1159.9475	1163.6383	1167.5531	1180.7486	1212.599	1219.4759	1260.9188	1299.2283	1306.0559	1367.9862	1415.6046	1496.221	1505.4878	1531.3434	1541.6015	2996.7978	3008.2521	3044.528	3045.0477	3049.2818	3054.2364	3118.059	3120.9838	3146.3648	3810.9289
OC12CC(C1)C21COC1	O[C@@]12C[C@@H](C1)C12COC1	
InChI=1S/C7H10O2/c8-7-1-5(2-7)6(7)3-9-4-6/h5,8H,1-4H2	InChI=1S/C7H10O2/c8-7-1-5(2-7)6(7)3-9-4-6/h5,8H,1-4H2/t5-,7-
