15
gdb 29140	3.15449	1.45101	1.00003	2.2749	74.24	-0.2125	-0.0491	0.1634	1127.1399	0.112492	-454.012946	-454.004406	-454.003462	-454.047418	30.841	
C	 0.0102805738	 1.5263553214	 0.2207332395	-0.46883
C	-0.0154878805	 0.0487720008	-0.0394455413	 0.25119
C	-1.1536964831	-0.6103164889	-0.3202104791	-0.041454
O	-1.1645720408	-1.9627254528	-0.5585620599	-0.198141
C	-0.0201215032	-2.6800916415	-0.5156795175	 0.399322
O	-0.0159546384	-3.8684499947	-0.7297305744	-0.360818
C	 1.2009085318	-1.8876585726	-0.1936336703	 0.259065
N	 2.3249109339	-2.633404183	-0.1436193781	-0.542773
N	 1.2016866292	-0.6081339134	 0.0249763907	-0.380375
H	 0.6639531059	 2.0291745182	-0.4998337753	 0.137378
H	-0.9882479928	 1.9647524652	 0.1514077787	 0.121731
H	 0.4134277668	 1.7317225827	 1.2180673467	 0.13765
H	-2.1433718114	-0.1834563894	-0.390467353	 0.133155
H	 2.2592066143	-3.6097288985	-0.3755528853	 0.283324
H	 3.2129010345	-2.1906205237	 0.0133717186	 0.269577
16.4715	123.2598	166.8237	209.1433	284.3262	341.4501	342.0672	454.3388	481.6129	529.291	579.0731	587.8093	618.4718	672.1164	786.234	810.1442	816.6465	968.2305	1011.1276	1065.0405	1114.7653	1156.7404	1179.3963	1306.013	1383.8517	1405.9552	1418.4058	1471.2228	1489.81	1568.5992	1661.3422	1676.4086	1812.2562	3037.0775	3094.5389	3124.5751	3242.8221	3615.0505	3755.8476
CC1=COC(=O)C(N)=N1	Cc1coc(=O)c(N)n1	
InChI=1S/C5H6N2O2/c1-3-2-9-5(8)4(6)7-3/h2H,1H3,(H2,6,7)	InChI=1S/C5H6N2O2/c1-3-2-9-5(8)4(6)7-3/h2H,1H3,(H2,6,7)
