23
gdb 57565	3.89077	0.58815	0.58125	3.3367	83.72	-0.2464	-0.0182	0.2282	1993.1644	0.201433	-425.44734	-425.435971	-425.435027	-425.484731	40.741	
C	-0.0296608806	 1.5589355517	-0.0125425574	-0.419777
C	 0.0345413835	 0.0276263774	 0.0717841884	 0.339943
C	 0.7623714945	-0.4031547589	 1.3484063525	-0.391604
O	-1.2919794405	-0.5037173802	 0.2022836409	-0.455451
C	 0.7037045566	-0.5379224814	-1.2024376249	-0.201354
C	 0.7610511842	-2.0676378575	-1.2731444185	-0.198662
C	 1.2556158817	-2.5772358411	-2.6380944485	-0.276643
C	 1.2084311021	-4.0851737034	-2.7240164914	 0.159748
O	 2.1420746084	-4.7955344779	-2.9944320612	-0.238459
H	 0.9715425034	 1.9999493124	-0.0511303681	 0.116788
H	-0.5669437893	 1.8790001168	-0.9137367824	 0.101716
H	-0.5529744291	 1.9624868494	 0.8589330193	 0.122719
H	 0.2909789372	 0.0584911168	 2.2202522903	 0.120628
H	 0.7154625365	-1.486792331	 1.4786349616	 0.125996
H	 1.8129443765	-0.0993139204	 1.3192489336	 0.111541
H	-1.8231374478	-0.1485752871	-0.5188711422	 0.274267
H	 0.1423381394	-0.1630514615	-2.071072762	 0.079908
H	 1.7142218856	-0.1194421995	-1.2940971094	 0.098139
H	 1.421699438	-2.4557479705	-0.4897644779	 0.112663
H	-0.2384900108	-2.465718344	-1.064136124	 0.115974
H	 0.5992639656	-2.1831235371	-3.4288230757	 0.113697
H	 2.2765630035	-2.2469184687	-2.8525358603	 0.118999
H	 0.2045336313	-4.5207160345	-2.5026336727	 0.069225
51.9048	54.4078	81.1316	122.2402	156.343	215.6504	252.5394	268.3111	278.0604	311.7856	345.4684	377.6526	422.4931	471.3235	496.7639	553.2602	745.7602	765.6256	810.412	891.9905	911.5688	935.9001	959.2459	998.3345	1010.5907	1050.4029	1071.0048	1095.8506	1141.9436	1174.5288	1218.0647	1239.1213	1257.3598	1288.9859	1328.2289	1342.2822	1376.5944	1393.3252	1404.3802	1421.7925	1429.4041	1464.2779	1470.2739	1483.1251	1489.5379	1498.1192	1507.1526	1511.2852	1836.9182	2846.2856	2997.2272	3003.9598	3025.1526	3039.8353	3044.7068	3047.8619	3077.4067	3092.1435	3097.7471	3114.2304	3121.4567	3127.3134	3800.652
CC(C)(O)CCCC=O	CC(C)(O)CCCC=O	
InChI=1S/C7H14O2/c1-7(2,9)5-3-4-6-8/h6,9H,3-5H2,1-2H3	InChI=1S/C7H14O2/c1-7(2,9)5-3-4-6-8/h6,9H,3-5H2,1-2H3
