20
gdb 117209	2.65208	1.20271	0.89723	3.3973	77.73	-0.2427	-0.024	0.2187	1343.5106	0.168728	-440.262685	-440.252527	-440.251583	-440.298691	35.898	
C	 1.1236032267	 0.796710337	-0.44412788	-0.236518
O	 1.20999942	-0.2795882138	 0.4674126138	-0.236258
C	-0.0496377727	-0.6882657617	 0.9531257363	-0.161821
C	-0.0219628946	-1.8488125304	 1.9619716107	 0.27739
O	-1.049687616	-2.0301192691	 2.5815607779	-0.309102
C	 1.1574277075	-2.7506476061	 2.1686390033	 0.221558
C	 0.9581345695	-3.7905049782	 3.2494578514	-0.436208
C	 2.0322219703	-3.0722132809	 0.989220679	-0.267848
N	 2.5401816236	-2.2204563131	 2.054365927	-0.348025
H	 0.6680787529	 1.6820133115	 0.0232862102	 0.118486
H	 2.1406585363	 1.0405125677	-0.7574808208	 0.138029
H	 0.5286595507	 0.5253867628	-1.3288549018	 0.115794
H	-0.5687852878	 0.1413649312	 1.4550848605	 0.129391
H	-0.6984308358	-1.0114975518	 0.1211755176	 0.125018
H	 0.1256985825	-4.455642293	 3.0054902543	 0.125852
H	 1.8715477722	-4.3789438429	 3.3602511119	 0.119892
H	 0.7312973566	-3.3149129156	 4.2074656897	 0.129817
H	 2.451743281	-4.0739903068	 0.9469652606	 0.121814
H	 1.8082198383	-2.6183587028	 0.0296657517	 0.122536
H	 2.5094420889	-1.2558159342	 1.7328986468	 0.250203
36.8951	72.135	99.7638	167.3667	186.0707	228.6212	257.7037	286.8474	330.2224	360.3299	382.9731	484.7104	562.6558	627.317	677.1027	809.1669	841.1901	940.8684	987.8418	1006.6588	1014.8574	1037.3262	1092.3158	1104.865	1119.5752	1153.8108	1184.6989	1217.7626	1228.8086	1261.5195	1292.4317	1348.6799	1370.0649	1392.3061	1419.6461	1468.6512	1478.195	1485.5197	1489.0558	1490.9977	1500.5575	1513.8449	1768.7211	2966.7559	2985.9098	3018.9119	3037.1877	3051.4441	3115.5656	3121.5097	3127.7993	3134.4867	3209.9697	3512.7794
COCC(=O)C1(C)CN1	COCC(=O)[C@@]1(C)CN1	
InChI=1S/C6H11NO2/c1-6(4-7-6)5(8)3-9-2/h7H,3-4H2,1-2H3	InChI=1S/C6H11NO2/c1-6(4-7-6)5(8)3-9-2/h7H,3-4H2,1-2H3/t6-/m1/s1
