23
gdb 122029	4.39374	0.64011	0.58183	1.9608	80.79	-0.249	0.0783	0.3273	1974.2643	0.203044	-462.540458	-462.52918	-462.528236	-462.577907	39.233	
C	 0.6693684612	 1.1331946778	-0.2489822034	-0.231776
O	 0.6882059655	-0.2698096233	-0.389372759	-0.23801
C	 0.0798721649	-0.7233440764	-1.5938177623	-0.075385
C	 0.2136572188	-2.2374032192	-1.6813183858	-0.232332
C	 1.6692096849	-2.7190602614	-1.7223511233	 0.120226
O	 2.3399338906	-2.5220138809	-0.490073083	-0.455445
C	 1.764979468	-4.2126436682	-2.0187678595	-0.062542
O	 1.2664680437	-4.4488819921	-3.3176901502	-0.23737
C	 1.2944428954	-5.8080940341	-3.6776204717	-0.222744
H	 1.2203112023	 1.6304069868	-1.0617545222	 0.111542
H	-0.360719656	 1.5200215602	-0.2422092775	 0.111776
H	 1.1451963014	 1.3746923575	 0.704120097	 0.132853
H	-0.97978504	-0.4221486028	-1.6077755537	 0.092607
H	 0.5689536114	-0.2439017965	-2.4586095257	 0.09356
H	-0.2882631366	-2.6984379006	-0.8216452908	 0.10647
H	-0.2933738291	-2.5802086846	-2.589132987	 0.118665
H	 2.1870738746	-2.1875119725	-2.5410628387	 0.062989
H	 2.0596022713	-1.6562850993	-0.1637519664	 0.290296
H	 2.8174430278	-4.5262211857	-1.9340865807	 0.095729
H	 1.1903749351	-4.7783749847	-1.2659882188	 0.087158
H	 0.6807719205	-6.4234737309	-3.0004592797	 0.103286
H	 0.8917565023	-5.8888534624	-4.6905158397	 0.123609
H	 2.319302682	-6.2118603468	-3.6694972179	 0.104836
44.3577	74.9017	94.389	105.8662	134.8411	188.5341	226.0812	230.6795	265.8774	286.2203	321.2077	411.0656	459.0082	486.4823	515.7419	586.9213	811.5856	864.2507	964.9791	979.8695	999.6401	1040.7111	1075.5398	1124.9477	1146.9802	1155.1883	1172.257	1182.5875	1192.0577	1210.4245	1227.4482	1235.199	1263.6815	1278.1082	1311.2655	1349.1128	1378.6139	1413.0792	1419.4545	1463.9063	1474.154	1480.3182	1484.3618	1484.6356	1486.0848	1503.1056	1503.6363	1525.8853	1528.5093	2937.5477	2959.8427	2961.1533	2972.8501	2982.0073	2994.1494	3003.6103	3012.922	3029.7668	3040.0267	3094.9417	3110.235	3120.7202	3742.3674
COCCC(O)COC	COCC[C@@H](O)COC	
InChI=1S/C6H14O3/c1-8-4-3-6(7)5-9-2/h6-7H,3-5H2,1-2H3	InChI=1S/C6H14O3/c1-8-4-3-6(7)5-9-2/h6-7H,3-5H2,1-2H3/t6-/m1/s1
