17
gdb 37651	3.22344	2.33538	2.08185	1.8154	71.72	-0.2233	0.07	0.2933	754.7958	0.139977	-384.621997	-384.61689	-384.615946	-384.651085	23.56	
O	-0.06688369	 1.4546047068	 0.07959566	-0.305232
C	 1.3935820082	 1.4689147063	-0.0140404448	 0.07232
C	 2.0059400354	 1.3054345616	 1.3651350077	-0.06809
C	 1.2908968334	 0.2488760719	 2.1898533202	-0.063172
C	 2.6515388316	-0.0418014269	 1.5666239703	-0.097902
C	 1.9497927323	-0.8993686214	 0.4827043437	-0.072948
C	 0.5746686389	-0.7040412742	 1.2090019317	-0.084197
C	-0.0209516011	 0.0272148963	-0.056836092	 0.109356
C	 1.4139002036	 0.036793699	-0.6377951597	-0.107551
H	 1.7498933029	 2.3256237314	-0.5893270595	 0.075079
H	 2.3914108717	 2.1644268571	 1.900986031	 0.087457
H	 1.0230254487	 0.4263294095	 3.2235163093	 0.087737
H	 3.6168131088	-0.2002793188	 2.0299249935	 0.086944
H	 2.3348610715	-1.882848949	 0.2238203853	 0.068299
H	 0.0311601946	-1.5384762987	 1.6498040449	 0.065339
H	-0.9130072166	-0.3925714125	-0.5254282811	 0.072925
H	 1.6692541861	-0.0808091883	-1.6897012206	 0.073636
375.1989	449.0538	594.0691	639.3873	680.9963	701.8466	733.3899	765.3516	794.5438	829.3189	841.3184	861.3602	888.5984	902.8311	930.6557	936.1155	962.4913	969.0475	981.17	1000.8063	1025.9965	1051.3961	1060.522	1087.4376	1112.1491	1145.0153	1185.587	1201.9546	1220.3726	1230.9261	1246.097	1263.496	1284.531	1293.9921	1325.0382	1338.2663	1390.9778	3090.2189	3091.7403	3119.5987	3123.2897	3143.7035	3184.6209	3186.6508	3201.4818
O1C2C3C4C3C3C4C1C23	O1[C@H]2[C@H]3[C@@H]4[C@H]3[C@H]3[C@@H]4[C@@H]1[C@@H]23	
InChI=1S/C8H8O/c9-7-4-1-2(4)5-3(1)6(7)8(5)9/h1-8H	InChI=1S/C8H8O/c9-7-4-1-2(4)5-3(1)6(7)8(5)9/h1-8H/t1-,2-,3-,4+,5+,6+,7-,8+/m0/s1
