15
gdb 49215	4.47181	1.05825	0.87242	0.9946	69.76	-0.2433	-0.0731	0.1702	1234.6171	0.112757	-453.98223	-453.974138	-453.973194	-454.015989	28.853	
O	-0.8910091323	 1.2884237094	 0.1257317545	-0.269667
C	 0.2311079442	 0.8425605857	 0.1218589031	 0.136181
C	 1.4483829486	 1.7142795264	 0.0836226709	 0.272993
N	 2.5872600561	 1.1256976625	 0.0595189909	-0.297108
C	 3.7615296632	 1.9782651914	 0.1135794777	-0.271253
C	 3.6038994428	 3.428216072	-0.3391231023	 0.362673
O	 4.5470492933	 4.1142202419	-0.6431709516	-0.295207
C	 2.1829075703	 3.9899216713	-0.4044636066	-0.268609
N	 1.1977037989	 3.056075547	 0.1063551781	-0.350064
H	 0.4630595444	-0.2378391982	 0.14780743	 0.116757
H	 4.1165292799	 2.020818228	 1.1568597702	 0.152713
H	 4.5832170701	 1.5314502394	-0.4553341408	 0.14866
H	 2.1612569231	 4.9284733189	 0.159870622	 0.151458
H	 2.0007208619	 4.2468351122	-1.4591376921	 0.14719
H	 0.2176592353	 3.2948248222	 0.0290763861	 0.263283
41.4923	98.1245	125.5894	208.6132	298.3044	398.3985	429.0937	479.5986	527.4613	597.8358	610.0207	645.1146	723.5537	783.2677	830.1851	955.0402	1021.8231	1037.6405	1070.6238	1150.5343	1189.4117	1215.9171	1254.9107	1282.1201	1299.2305	1353.2122	1374.8185	1435.8646	1470.4885	1544.9269	1719.9444	1805.9275	1829.4439	2981.8413	2983.9866	2996.0893	3067.9048	3076.862	3579.4258
O=CC1=NCC(=O)CN1	O=CC1=NCC(=O)CN1	
InChI=1S/C5H6N2O2/c8-3-5-6-1-4(9)2-7-5/h3H,1-2H2,(H,6,7)	InChI=1S/C5H6N2O2/c8-3-5-6-1-4(9)2-7-5/h3H,1-2H2,(H,6,7)
