20
gdb 113416	4.66903	0.821	0.77658	3.8758	81.55	-0.2361	0.0379	0.274	1525.1033	0.169803	-403.160653	-403.151349	-403.150405	-403.19519	34.687	
C	-0.0081889976	 1.5234658335	-0.3278452703	-0.370822
C	-0.0260929593	 0.1019612649	 0.2456026961	-0.198467
C	-1.4022873886	-0.5310815484	 0.2086906414	-0.06442
C	-1.9120670098	-1.2123520284	-1.0601862381	-0.357485
C	-1.5868458032	-2.0142058815	 0.1612987295	 0.40076
C	-0.561433718	-3.1461615136	 0.3488282285	-0.480994
C	-1.6788299476	-3.8479778933	 1.1696794237	 0.435259
O	-1.7991874029	-4.8826096133	 1.7673278443	-0.360999
N	-2.5295152183	-2.7887249509	 0.950731646	-0.383981
H	 0.9987792983	 1.9505800126	-0.2960520801	 0.113816
H	-0.3464638211	 1.5313670144	-1.3691784599	 0.119662
H	-0.6698672083	 2.1864951451	 0.2401249472	 0.115776
H	 0.6747363656	-0.5287082759	-0.3159150699	 0.098215
H	 0.3404016331	 0.1179752157	 1.2803661868	 0.102232
H	-2.16137624	 0.0110631115	 0.7708889796	 0.08364
H	-2.9551381989	-1.0831139934	-1.3308255053	 0.113704
H	-1.2364424314	-1.2792531442	-1.9083588012	 0.117886
H	-0.2711387582	-3.680106425	-0.5576830415	 0.133026
H	 0.3250484053	-2.8937144198	 0.9337094758	 0.134025
H	-3.478395749	-2.61438714	 1.2472524976	 0.249164
52.1599	90.0606	125.4525	184.7178	254.7215	289.8972	302.6562	339.7425	415.0364	482.1993	502.742	560.9526	591.174	768.4178	777.401	809.112	874.6437	903.4517	921.568	950.9308	986.5959	1026.9857	1033.9442	1048.2515	1090.1473	1125.1164	1136.9612	1140.0475	1188.4069	1191.7552	1265.3803	1270.7986	1303.9606	1342.0801	1392.3629	1412.074	1436.0528	1460.253	1484.9153	1499.0077	1507.0094	1507.6773	1898.7299	3017.5226	3033.4962	3049.3326	3084.4045	3101.0385	3107.2704	3118.0282	3119.3751	3142.1991	3205.2805	3611.2901
CCC1CC11CC(=O)N1	CC[C@H]1C[C@]21CC(=O)N2	
InChI=1S/C7H11NO/c1-2-5-3-7(5)4-6(9)8-7/h5H,2-4H2,1H3,(H,8,9)	InChI=1S/C7H11NO/c1-2-5-3-7(5)4-6(9)8-7/h5H,2-4H2,1H3,(H,8,9)/t5-,7+/m0/s1
