18
gdb 111372	2.05822	1.78271	1.15594	4.136	76.13	-0.2628	0.0245	0.2873	1101.5059	0.147614	-401.922237	-401.913697	-401.912753	-401.955649	31.444	
C	-0.1670501214	 1.3142961572	-0.0183796852	-0.251531
O	 0.3050566654	-0.0132605016	 0.1355607442	-0.231925
C	 0.7429222923	-0.6018568578	-1.0451204534	 0.132075
C	 1.3762929305	-1.9714653563	-0.8682083066	-0.082781
C	 0.3610818576	-2.962227659	-0.3716205189	-0.285344
C	 0.3615374287	-2.6023902138	-1.8267249097	-0.047995
C	-0.3332933169	-1.247982836	-2.0417849984	-0.240384
C	-1.7387675114	-1.1521864625	-1.6796039032	 0.311525
N	-2.8527520885	-1.0690379823	-1.3794042472	-0.348072
H	 0.6136984637	 1.9676667817	-0.4362220396	 0.106847
H	-1.0538250159	 1.3607983474	-0.6632463519	 0.130229
H	-0.4369693357	 1.6728066084	 0.9767168856	 0.137431
H	 1.381697236	 0.0864893817	-1.6161470306	 0.078921
H	 2.4415427979	-2.1466371638	-0.792054619	 0.097943
H	 0.7595664922	-3.9449052858	-0.1436683793	 0.12191
H	-0.4474896555	-2.6412976266	 0.2772543673	 0.145548
H	 0.5275795907	-3.3250356463	-2.6143718033	 0.104319
H	-0.1976821697	-0.8612171645	-3.0544517009	 0.121284
96.2076	113.6311	139.1137	178.4663	190.8406	293.9282	375.9285	396.8918	499.3094	577.3758	609.3347	737.1256	775.8249	800.3883	826.3123	926.074	979.2888	992.8904	1019.9925	1041.7082	1059.3838	1060.0946	1072.5735	1089.9536	1136.9699	1168.1949	1182.6956	1201.1317	1242.9071	1268.9932	1305.411	1334.9939	1367.9811	1391.6908	1480.8964	1491.8406	1495.2268	1505.5765	2348.1129	2988.3502	3003.5725	3056.1241	3086.3919	3130.4077	3133.4839	3194.8185	3204.8093	3221.6927
COC1C2CC2C1C#N	CO[C@H]1[C@H]2C[C@H]2[C@H]1C#N	
InChI=1S/C7H9NO/c1-9-7-5-2-4(5)6(7)3-8/h4-7H,2H2,1H3	InChI=1S/C7H9NO/c1-9-7-5-2-4(5)6(7)3-8/h4-7H,2H2,1H3/t4-,5+,6-,7+/m1/s1
