20
gdb 6373	4.59083	1.04378	0.95333	1.7317	72.44	-0.2641	0.0218	0.2858	1323.8277	0.174071	-386.197733	-386.187694	-386.18675	-386.233754	34.905	
C	-0.0871025829	 1.4636361281	 0.1310758109	-0.369894
C	 0.0104880467	-0.0422567921	-0.0990661602	-0.299548
C	 0.7797091877	-0.3977547749	-1.3568772376	 0.447703
O	 1.2727295144	 0.3980188889	-2.1187051163	-0.361798
O	 0.8373462655	-1.7354550449	-1.514867202	-0.262263
C	 1.5406278259	-2.2366270554	-2.6834697718	 0.149052
C	 3.0367800139	-2.2977771351	-2.3934910555	-0.396243
C	 0.927559044	-3.5941007853	-2.9943894704	-0.392387
H	 0.9059886605	 1.9108892186	 0.2215999722	 0.131249
H	-0.5903166406	 1.9556723862	-0.7050132363	 0.131679
H	-0.6473046095	 1.6757457885	 1.045986887	 0.110267
H	 0.5000491563	-0.5469754	 0.7423252479	 0.129903
H	-0.9815083833	-0.5032078147	-0.1747309473	 0.129952
H	 1.3574307311	-1.5336734486	-3.5009904697	 0.108179
H	 3.5713152266	-2.6979161435	-3.2607873231	 0.117921
H	 3.4265260652	-1.2997203678	-2.1823768586	 0.14049
H	 3.2366708362	-2.9483865305	-1.5359748714	 0.119015
H	-0.1468078576	-3.5029802876	-3.1753771357	 0.123053
H	 1.3934080677	-4.0209860334	-3.8875185323	 0.11959
H	 1.0787668523	-4.2887622665	-2.1621119199	 0.124079
25.7765	66.4361	94.1891	152.2146	203.4779	215.4287	250.8279	286.8488	306.8577	403.6272	432.3559	486.5552	587.1012	664.8244	809.5777	830.626	883.3806	932.2653	940.9099	951.3045	1021.0281	1097.8673	1106.5391	1140.9744	1162.7951	1203.4944	1218.48	1276.7266	1355.3362	1374.2478	1396.9967	1401.1951	1415.7336	1417.3381	1458.905	1481.5969	1486.1391	1493.2147	1496.0288	1500.3807	1511.2422	1809.979	3039.8959	3041.8587	3043.9187	3051.8104	3070.9673	3073.5913	3109.1609	3119.4351	3121.2268	3122.9276	3128.7586	3133.7913
CCC(=O)OC(C)C	CCC(=O)OC(C)C	
InChI=1S/C6H12O2/c1-4-6(7)8-5(2)3/h5H,4H2,1-3H3	InChI=1S/C6H12O2/c1-4-6(7)8-5(2)3/h5H,4H2,1-3H3
