23
gdb 100949	2.47279	0.97042	0.74464	3.2577	78.94	-0.2459	0.0652	0.3111	1575.5175	0.203054	-462.542903	-462.531476	-462.530531	-462.580251	40.529	
C	 0.0050902794	 1.4174950676	 0.0882037938	-0.23731
O	 0.2502842066	 0.0359556771	-0.0307664919	-0.250281
C	 0.6712111444	-0.6087114142	 1.1694681778	 0.126778
C	-0.5085286289	-0.7931469703	 2.1294419445	-0.407009
C	 1.3275724864	-1.9486627386	 0.7769677859	-0.033245
C	 2.1888234384	-1.7817636897	-0.479355195	-0.096174
O	 2.801301092	-3.0422636053	-0.7789235018	-0.431502
C	 2.1655822354	-2.5141124405	 1.9448877811	-0.055603
O	 2.4748472402	-3.8825602991	 1.8042925167	-0.433601
H	 0.873029233	 1.9490168915	 0.5096769367	 0.102976
H	-0.1838958202	 1.7973928055	-0.9192077081	 0.126811
H	-0.8713297188	 1.6430763123	 0.7122297285	 0.109714
H	 1.4372193021	 0.0249342486	 1.6529221972	 0.061065
H	-1.2968454548	-1.3734120672	 1.6402180943	 0.127759
H	-0.2079082605	-1.3165667892	 3.0403038759	 0.126927
H	-0.9282066641	 0.1701627253	 2.4320447573	 0.115549
H	 0.5388519831	-2.6789121612	 0.5548491639	 0.090692
H	 1.5734367791	-1.444844638	-1.3181769739	 0.116237
H	 2.9594659954	-1.0158839681	-0.2953779316	 0.085101
H	 3.3980596121	-2.9242312277	-1.5227687447	 0.292597
H	 3.0781335977	-1.8983629604	 2.0497946885	 0.074309
H	 1.616482857	-2.4231821586	 2.8875193179	 0.098613
H	 2.8442375951	-3.9776121398	 0.9159784271	 0.289595
39.2196	66.9146	89.787	134.7377	180.2955	193.8388	229.238	245.7341	263.0359	317.8387	354.8266	368.0828	387.006	423.5593	499.3605	559.0941	601.8484	851.9589	862.0654	911.8753	951.6536	1008.5987	1041.1025	1081.076	1101.4721	1111.7025	1124.6653	1142.1074	1170.031	1181.5423	1220.8937	1227.5192	1243.4797	1282.9047	1291.3098	1348.6596	1373.4741	1391.1842	1393.7416	1406.8087	1452.849	1475.0223	1477.4782	1483.1278	1491.5799	1504.1205	1510.5222	1512.5698	1522.4734	2928.3421	2937.4634	2975.735	2977.0813	3028.8569	3035.9213	3048.3487	3071.7818	3080.9917	3108.505	3117.7018	3128.0342	3746.7814	3840.7091
COC(C)C(CO)CO	CO[C@@H](C)C(CO)CO	
InChI=1S/C6H14O3/c1-5(9-2)6(3-7)4-8/h5-8H,3-4H2,1-2H3	InChI=1S/C6H14O3/c1-5(9-2)6(3-7)4-8/h5-8H,3-4H2,1-2H3/t5-/m0/s1
