13
gdb 12302	3.14531	2.43727	1.4452	4.436	56.05	-0.2796	-0.0596	0.22	803.6309	0.097145	-435.768878	-435.762312	-435.761368	-435.800005	23.95	
N	-0.1317689886	 1.184895353	-0.4825232654	-0.465748
C	-0.0553896614	 0.0123246231	-0.0242482594	 0.264678
O	-1.1893672925	-0.6264944994	 0.3525805669	-0.222819
C	-1.0143001698	-1.8404768496	 1.0786906505	-0.102858
C	-0.0038082004	-2.7175086218	 0.3803963687	-0.091344
O	 1.2688494129	-2.05267916	 0.3199922993	-0.222199
C	 1.2838282257	-0.7263074477	 0.0824933209	 0.345744
O	 2.3223872651	-0.1421989427	-0.0535881962	-0.315349
H	 0.810248613	 1.4994708853	-0.7201928269	 0.255795
H	-0.6915204313	-1.62447221	 2.1058736625	 0.131709
H	-1.9947201664	-2.3203556124	 1.1130421642	 0.141615
H	 0.1678497626	-3.6478411344	 0.9261486478	 0.141907
H	-0.3341597988	-2.9565389932	-0.6370730628	 0.138869
88.2862	133.5573	316.4119	362.6609	436.5012	477.6952	489.3429	565.8256	664.9397	724.4766	798.4285	919.8992	928.3081	969.4253	1010.2952	1102.0505	1129.5886	1164.4652	1200.5275	1263.0374	1290.6423	1371.879	1409.4798	1436.0498	1501.396	1503.4389	1736.8135	1842.1846	3026.3325	3049.0955	3117.4523	3119.7465	3491.2848
N=C1OCCOC1=O	[NH][C]1OCCOC1=O	
InChI=1S/C4H5NO3/c5-3-4(6)8-2-1-7-3/h5H,1-2H2	InChI=1S/C4H5NO3/c5-3-4(6)8-2-1-7-3/h5H,1-2H2
