19
gdb 90530	4.40799	1.03156	0.95923	1.7772	82.04	-0.2396	0.0457	0.2853	1276.7989	0.158279	-385.826505	-385.817977	-385.817033	-385.859827	32.806	
C	 0.5170073631	 1.5268764744	-0.3783757554	-0.4089
C	 0.0590434181	 0.1354434779	 0.0038133741	 0.152744
O	 0.7745087423	-0.9180114977	-0.7067452582	-0.310193
C	 1.0287823783	-1.6328013496	 0.5110400366	 0.111247
C	 2.4558212044	-1.3291651834	 1.0818043883	-0.186975
C	 1.814344428	-0.1868249513	 1.9572339604	-0.263
C	 0.4145210329	-0.4975950704	 1.3701439114	-0.100261
C	 3.0913757992	-2.4016737187	 1.8167961704	 0.300851
C	 3.5833343325	-3.3070846948	 2.4379334246	-0.447792
H	 1.5877671822	 1.6656643919	-0.2068924655	 0.122679
H	 0.3222166295	 1.7022341437	-1.4411026412	 0.131231
H	-0.0317670242	 2.2813170003	 0.19596079	 0.11884
H	-1.0174640544	 0.0371041571	-0.1974578556	 0.078084
H	 0.702087416	-2.6746205712	 0.4816629904	 0.087414
H	 3.1092340542	-0.9612033402	 0.2856364531	 0.11174
H	 1.8766821946	-0.4118802671	 3.0226859908	 0.120703
H	 2.2113841073	 0.8167599517	 1.7915146296	 0.108039
H	-0.4034087716	-0.6315899475	 2.0763124651	 0.078918
H	 4.0330171977	-4.1031370152	 2.9776893812	 0.19463
55.5677	132.1677	158.7602	215.3881	278.0312	341.5601	378.8243	451.1884	497.356	531.0136	621.2901	628.1627	655.1947	747.4232	817.7202	831.9414	871.5952	895.1509	943.5032	981.9254	1007.234	1020.7366	1053.4324	1093.6974	1095.8747	1128.1016	1171.189	1179.3405	1198.7168	1228.3385	1261.2617	1278.8052	1314.741	1321.6854	1348.511	1390.1829	1410.2145	1477.9847	1481.1428	1504.3436	2230.6086	2993.3119	3038.1515	3067.9289	3076.2134	3086.0245	3106.6365	3119.0306	3120.2252	3134.3792	3504.6241
CC1OC2C(CC12)C#C	C[C@H]1O[C@H]2[C@@H](C[C@@H]12)C#C	
InChI=1S/C8H10O/c1-3-6-4-7-5(2)9-8(6)7/h1,5-8H,4H2,2H3	InChI=1S/C8H10O/c1-3-6-4-7-5(2)9-8(6)7/h1,5-8H,4H2,2H3/t5-,6-,7+,8+/m1/s1
