15
gdb 32359	4.87896	1.04743	0.86707	4.914	72.8	-0.2207	-0.0574	0.1633	1262.3991	0.112728	-457.806093	-457.798336	-457.797392	-457.838644	28.823	
C	 0.0799425408	 1.4064401833	 0.006478023	-0.25225
O	 0.0193842948	-0.0082574383	 0.0026334142	-0.258307
C	-1.2172436396	-0.571119147	 0.0108788183	 0.262787
C	-2.4000089696	 0.0878657531	 0.0223825166	-0.044476
O	-3.5876919812	-0.5612314659	 0.0300010303	-0.220787
C	-3.6988098451	-1.9545126803	 0.0270331648	 0.431093
O	-4.8015083376	-2.4341405286	 0.0331152102	-0.349621
C	-2.4298927813	-2.6625890332	 0.0139647131	-0.255788
C	-1.2502765792	-2.0043983191	 0.0065588893	-0.110738
H	 1.1382013784	 1.6693362686	-0.0013434537	 0.14435
H	-0.407634504	 1.8288018906	-0.8823435954	 0.128824
H	-0.3930513553	 1.8233252496	 0.9057047313	 0.128821
H	-2.5270092209	 1.1608517524	 0.0266453519	 0.133535
H	-2.4917250451	-3.7432128564	 0.0107012847	 0.13198
H	-0.3019361351	-2.5320286687	-0.0029377983	 0.130577
80.2549	129.2641	223.2885	243.2608	339.6995	385.931	389.2545	491.3995	513.2324	530.2888	631.9197	749.2379	762.6887	793.6193	840.6899	857.4462	952.1593	1008.5874	1066.9891	1101.5695	1155.9198	1179.0893	1213.3399	1258.2673	1300.3387	1362.3244	1457.7242	1486.5657	1488.4565	1506.8808	1592.9869	1696.0758	1836.7143	3000.6651	3058.9958	3143.7711	3189.8591	3224.5219	3238.696
COC1=COC(=O)C=C1	COc1coc(=O)cc1	
InChI=1S/C6H6O3/c1-8-5-2-3-6(7)9-4-5/h2-4H,1H3	InChI=1S/C6H6O3/c1-8-5-2-3-6(7)9-4-5/h2-4H,1H3
