15
gdb 21999	2.59891	1.5584	0.97521	1.2408	76.71	-0.185	-0.0144	0.1706	1124.5873	0.113897	-453.923983	-453.916088	-453.915143	-453.956084	30.648	
N	 0.0962004372	 1.365292831	-0.002774279	-0.587031
C	 0.0286695817	-0.0201198368	 0.0253526724	 0.171462
C	-1.125502421	-0.7161814364	 0.1162491035	-0.037796
O	-1.1887121601	-2.0827945118	 0.2139900997	-0.200324
C	-0.0298951285	-2.7651491492	 0.213620322	 0.063406
C	 1.1805313112	-2.189615489	 0.113692365	-0.25885
C	 1.2959772576	-0.7522358008	 0.0003964411	 0.344178
N	 2.3771116236	-0.0527402739	-0.1296253591	-0.283898
O	 3.5178112734	-0.8788947152	-0.1640081426	-0.403537
H	 0.9753138757	 1.6948336628	-0.3788544498	 0.261959
H	-0.7081932326	 1.8380679498	-0.3865839622	 0.244493
H	-2.1115465593	-0.273219131	 0.1341166384	 0.118387
H	-0.1989388753	-3.8309239822	 0.3017706899	 0.134798
H	 2.0719479201	-2.7990422569	 0.1140648599	 0.129623
H	 4.2299606564	-0.2356424206	-0.2322696293	 0.30313
122.6148	223.8528	226.819	272.3532	332.7934	345.838	360.978	465.8444	490.0689	540.6817	560.1104	605.8945	630.3986	739.0668	800.0619	806.4362	830.257	854.7214	940.5861	1001.7596	1020.6602	1092.0039	1182.9602	1244.7265	1287.8984	1346.1033	1365.4521	1432.3407	1480.9927	1627.1009	1640.8578	1662.6351	1712.6498	3218.1537	3230.5318	3252.4432	3550.8884	3663.0913	3832.4451
NC1=COC=CC1=NO	Nc1coccc1=NO	
InChI=1S/C5H6N2O2/c6-4-3-9-2-1-5(4)7-8/h1-3,8H,6H2	InChI=1S/C5H6N2O2/c6-4-3-9-2-1-5(4)7-8/h1-3,8H,6H2
