16
gdb 60996	3.61411	1.03422	0.90333	4.1534	72.91	-0.2411	-0.0276	0.2136	1265.2756	0.121153	-437.816402	-437.807161	-437.806217	-437.851176	33.187	
O	-0.2950059639	 1.3036333149	-0.1696538765	-0.401644
C	-0.0375804189	-0.0639117752	-0.1543713852	 0.017517
C	 0.9042144362	-0.5005737136	-1.2828687587	 0.142293
O	 1.526869205	 0.2557104116	-1.9756831828	-0.229738
C	 0.579456768	-0.5396635531	 1.1641014047	-0.047807
N	 1.3583719411	 0.481584519	 1.8614745716	-0.3374
C	 0.1331908989	-0.0512047786	 2.5076143572	-0.248168
C	-0.9774149584	 0.8315945317	 2.732680162	 0.383014
C	-1.9249814931	 1.5224186089	 2.9943891871	-0.428735
H	 0.4664620114	 1.7322441241	 0.2463889314	 0.30072
H	-0.9914379074	-0.590739797	-0.3076376238	 0.113622
H	 0.9835233728	-1.6088634175	-1.4039890194	 0.066275
H	 0.9632239758	-1.5590466469	 1.1461128431	 0.099865
H	 2.1932130703	 0.1002640063	 2.296053403	 0.247826
H	 0.2934607765	-0.7626353238	 3.3163412327	 0.119338
H	-2.7589257242	 2.1492000392	 3.1931612637	 0.203022
40.8618	87.6985	115.399	203.8706	233.4939	260.2859	284.0802	330.3033	401.3241	533.2351	557.2665	628.2868	653.719	665.9293	732.5972	785.0656	824.17	859.6925	902.2861	970.3049	986.9175	1040.587	1072.888	1147.8882	1183.2838	1211.0433	1246.9937	1260.408	1327.3008	1392.0564	1416.1379	1433.3257	1446.8908	1850.0063	2244.9396	2830.4859	3010.0858	3111.5075	3121.8806	3503.7186	3523.6556	3748.3408
OC(C=O)C1NC1C#C	O[C@@H](C=O)[C@H]1N[C@H]1C#C	
InChI=1S/C6H7NO2/c1-2-4-6(7-4)5(9)3-8/h1,3-7,9H	InChI=1S/C6H7NO2/c1-2-4-6(7-4)5(9)3-8/h1,3-7,9H/t4-,5-,6-/m0/s1
