16
gdb 81614	4.07354	0.93357	0.89591	3.0871	69.01	-0.2708	0.0253	0.2961	1291.5269	0.124147	-437.819916	-437.812114	-437.81117	-437.85306	29.474	
O	-0.0440070565	 1.4607374002	-0.2093757705	-0.439426
C	-0.0355785528	 0.078078036	-0.1987457041	 0.187382
C	-0.0699935397	-0.648307428	 1.1813105108	-0.012808
O	-1.4587579244	-0.1268156347	 1.3406939729	-0.334312
C	-1.4013494064	-0.6635539414	-0.0472079974	-0.042362
C	-0.6848316451	-1.9102773261	 0.5276166394	 0.03138
C	 0.1168237412	-2.8763382875	-0.353191492	-0.397318
C	 0.9962329333	-3.7290140434	 0.4462340863	 0.264868
N	 1.6862621974	-4.3900490499	 1.0956841392	-0.299691
H	-0.6763821525	 1.7175478708	 0.4781452622	 0.291837
H	 0.6707376518	-0.263059931	-0.9561974816	 0.090407
H	 0.5960603247	-0.5655753576	 2.0397452681	 0.115095
H	-2.3111734176	-0.5966614781	-0.6445846008	 0.105773
H	-1.3209906948	-2.4477947903	 1.2322520591	 0.117116
H	-0.5758548368	-3.5185967953	-0.9095433121	 0.162299
H	 0.725557858	-2.3558929737	-1.0978588895	 0.159759
43.3225	116.2859	222.6054	281.2637	336.3376	377.341	389.8322	477.4326	592.2379	603.0479	675.7757	752.3633	785.9876	824.2656	856.4547	906.8055	920.7184	960.556	982.303	1060.668	1075.5886	1131.3595	1135.3431	1160.7302	1175.5833	1203.8772	1229.3594	1259.9207	1264.3671	1317.7336	1322.945	1398.4963	1456.814	1473.4569	2364.1391	3049.4429	3089.6537	3109.7488	3120.1578	3121.5384	3133.9287	3734.3615
OC1C2OC1C2CC#N	O[C@H]1[C@H]2O[C@@H]1[C@H]2CC#N	
InChI=1S/C6H7NO2/c7-2-1-3-5-4(8)6(3)9-5/h3-6,8H,1H2	InChI=1S/C6H7NO2/c7-2-1-3-5-4(8)6(3)9-5/h3-6,8H,1H2/t3-,4-,5-,6+
