16
gdb 127164	4.36195	1.12703	0.90077	1.7592	75.42	-0.2231	0.0002	0.2232	1227.7464	0.127159	-430.27402	-430.265817	-430.264873	-430.307253	29.454	
C	-1.3480500008	 0.6513411078	 0.311985133	-0.372224
N	-0.1283350334	-0.1004751119	 0.0550156482	-0.185292
C	 0.8709136946	-0.1794112692	 1.0172646907	 0.091207
N	 0.7527069207	 0.3972585867	 2.144533485	-0.486354
C	 0.0372777641	-0.7383339747	-1.1534856531	 0.562654
N	 1.0822116759	-1.4554185546	-1.5338072642	-0.36641
C	 0.7302402855	-1.8471741735	-2.791575099	 0.035889
N	-0.4442546466	-1.4308131682	-3.2177634724	-0.222638
N	-0.8864381341	-0.7087569888	-2.1418552619	-0.305108
H	-1.4632758793	 1.4682930787	-0.4099054979	 0.132989
H	-2.2274654674	-0.0014106296	 0.2634314994	 0.133039
H	-1.2661952554	 1.0679373464	 1.3144987081	 0.190666
H	 1.7146443364	-0.7763349743	 0.6688545221	 0.150717
H	 1.5793829274	 0.2280347475	 2.7122196924	 0.233398
H	 1.3695912456	-2.4616307991	-3.4078163494	 0.128813
H	-1.783978243	-0.2580063733	-2.1756211809	 0.278653
70.2509	119.8498	168.1474	192.26	256.355	332.567	340.1869	461.7388	463.7201	498.6507	678.6933	754.1536	769.5096	811.0674	914.0007	961.6651	981.0035	1052.1815	1069.684	1098.3628	1140.6032	1158.098	1216.1327	1240.7047	1305.4816	1318.9561	1362.7215	1407.8255	1429.6392	1458.6678	1505.1278	1508.6658	1555.4559	1626.5943	1717.077	3021.1562	3076.7302	3132.9444	3169.1394	3260.7545	3523.629	3686.2474
CN(C=N)C1=NC=NN1	CN(C=N)c1ncn[nH]1	
InChI=1S/C4H7N5/c1-9(2-5)4-6-3-7-8-4/h2-3,5H,1H3,(H,6,7,8)	InChI=1S/C4H7N5/c1-9(2-5)4-6-3-7-8-4/h2-3,5H,1H3,(H,6,7,8)
