20
gdb 108338	2.60522	1.63652	1.30135	2.9426	77.7	-0.2264	0.0693	0.2957	1063.6776	0.171323	-403.07203	-403.064013	-403.063069	-403.10441	31.782	
C	-0.2220759012	 1.4954996477	-0.0783007593	-0.388968
C	 0.1029803051	-0.0013393023	-0.0156037421	-0.281297
C	 0.7376800019	-0.4513708818	 1.2802467767	 0.486814
O	 0.8542169963	-1.8861841711	 1.3844004112	-0.332874
C	 0.2451284952	-1.8896340791	 2.7014577309	-0.094722
C	 0.0981979395	-0.3526293546	 2.6920721453	-0.153806
C	 1.3182875534	 0.4781435275	 3.153313979	-0.058583
N	 2.5183504447	-0.3647523994	 2.972329334	-0.327435
C	 1.9603958154	 0.3607837062	 1.8086626053	-0.115911
H	 0.6767978664	 2.1142042859	 0.0024743407	 0.118633
H	-0.7091055677	 1.7431920472	-1.0258351878	 0.118232
H	-0.9003963418	 1.7896455375	 0.7297254719	 0.118012
H	-0.8089219911	-0.5905129778	-0.1642685477	 0.106438
H	 0.782492042	-0.2738860337	-0.8347917646	 0.108833
H	-0.7075115172	-2.4327817504	 2.691160203	 0.091729
H	 0.9135238959	-2.306377943	 3.4590244936	 0.117384
H	-0.8828925447	 0.0894560598	 2.8589347371	 0.078798
H	 1.3151782472	 1.3015996249	 3.8567844774	 0.091838
H	 3.3190433348	 0.176177796	 3.2975680547	 0.230695
H	 2.5775131359	 1.0603952603	 1.2562958908	 0.08619
93.0963	153.4112	197.2571	257.2693	285.3754	321.2722	405.6665	471.8146	543.5977	625.4905	714.3285	773.6333	793.2903	811.6752	837.3196	894.4161	919.918	946.8605	953.4386	971.9617	990.0279	1009.2331	1026.2038	1059.6609	1074.7377	1106.6019	1121.6491	1141.584	1166.7594	1176.7113	1230.3491	1265.0772	1294.0502	1320.9462	1327.0013	1340.6569	1367.3234	1382.4577	1414.0399	1483.4181	1500.978	1501.7741	1506.5375	3020.3245	3024.7677	3038.8064	3063.8727	3098.1528	3104.854	3111.1366	3125.1688	3170.8735	3190.7746	3474.4958
CCC12OCC1C1NC21	CC[C@]12OC[C@H]1[C@H]1N[C@@H]21	
InChI=1S/C7H11NO/c1-2-7-4(3-9-7)5-6(7)8-5/h4-6,8H,2-3H2,1H3	InChI=1S/C7H11NO/c1-2-7-4(3-9-7)5-6(7)8-5/h4-6,8H,2-3H2,1H3/t4-,5+,6+,7-/m0/s1
