17
gdb 124321	4.21394	1.09159	0.87636	1.9355	78.8	-0.2498	-0.0387	0.2111	1307.6949	0.135783	-418.069975	-418.061172	-418.060227	-418.104064	31.281	
C	-0.0929037468	 1.5089355535	 0.0224874208	-0.484574
C	 0.055453457	 0.0098807658	-0.0184755366	 0.429055
O	 1.1048984333	-0.583560595	-0.070376161	-0.315802
N	-1.1559633267	-0.7185610997	 0.0078200379	-0.033841
C	-1.2752899813	-2.0864204133	-0.0202946758	-0.093295
C	-2.6125835189	-2.3780357212	 0.0209802241	 0.163715
C	-3.271437911	-3.7221125321	 0.0126670457	-0.503877
C	-3.2387852142	-1.0951745752	 0.073950014	-0.052461
N	-2.3700878203	-0.1034028953	 0.066239439	-0.259783
H	 0.9031963918	 1.9493230015	-0.0035803533	 0.143202
H	-0.6888381368	 1.8583378448	-0.8241894666	 0.161322
H	-0.6245262022	 1.8167606168	 0.9262202356	 0.16131
H	-0.3960072014	-2.7067808992	-0.0666379083	 0.161042
H	-3.8788210981	-3.8776042484	 0.9111976477	 0.135478
H	-3.9373080925	-3.8381116856	-0.8496852644	 0.135522
H	-2.5298912821	-4.5238476094	-0.0299777385	 0.132077
H	-4.2975735097	-0.877471738	 0.1173000295	 0.12091
83.6482	90.1058	116.7055	142.5432	182.4323	291.9244	321.659	392.6179	537.8599	573.5126	612.2279	635.7455	674.6774	703.2091	842.0631	899.8711	942.7349	997.1212	1004.7264	1026.0318	1057.7285	1067.3174	1096.3095	1213.9543	1241.2967	1296.9454	1380.1757	1390.9048	1418.1296	1425.017	1452.4565	1462.1437	1467.4289	1485.2395	1501.4602	1634.2785	1818.8711	3033.4657	3065.2946	3084.4693	3117.4399	3132.488	3171.4687	3229.5958	3286.577
CC(=O)N1C=C(C)C=N1	CC(=O)n1cc(C)cn1	
InChI=1S/C6H8N2O/c1-5-3-7-8(4-5)6(2)9/h3-4H,1-2H3	InChI=1S/C6H8N2O/c1-5-3-7-8(4-5)6(2)9/h3-4H,1-2H3
