21
gdb 124481	2.3972	1.29318	1.03202	2.6821	85.16	-0.2216	0.0296	0.2512	1282.6525	0.182923	-383.309935	-383.300056	-383.299111	-383.345853	35.698	
C	-0.0431625812	 1.6105402952	 0.1142063347	-0.384715
C	-0.0093748356	 0.0721826235	 0.0421322389	-0.088207
C	 0.7889179942	-0.5226391143	 1.2192002008	-0.379107
C	-1.387281539	-0.5212945729	-0.0527857176	 0.310651
C	-1.9637483786	-1.3723458616	-0.9844122055	 0.087126
C	-1.3412597664	-1.9673818604	-2.2116194495	-0.514179
C	-3.2812235707	-1.5715548282	-0.5066542083	-0.070636
N	-3.5199996698	-0.9108015639	 0.6205264925	-0.236068
N	-2.3551339538	-0.28407062	 0.8762875121	-0.258646
H	 0.9726837336	 2.0183388733	 0.1112290324	 0.11622
H	-0.5875072831	 2.0350413076	-0.7339037339	 0.126091
H	-0.530967588	 1.9590790149	 1.0319765275	 0.107262
H	 0.5093530945	-0.2057695384	-0.8824375146	 0.088679
H	 0.8440879894	-1.6124137627	 1.147834286	 0.125052
H	 1.8092520026	-0.1258189647	 1.2344704128	 0.11415
H	 0.3219074057	-0.2755681471	 2.1792694115	 0.109857
H	-0.9274569949	-2.9661743559	-2.0251415174	 0.1277
H	-2.0788234288	-2.0708432482	-3.0137542282	 0.127902
H	-0.5261891697	-1.3472047081	-2.597518235	 0.122136
H	-4.063472235	-2.1712682423	-0.9512237216	 0.103019
H	-2.2916856554	 0.3016866743	 1.6911287424	 0.265715
25.7159	52.5306	139.7312	177.9878	223.9522	245.2123	255.3162	275.1591	366.4219	401.7807	497.24	506.619	608.8225	691.4797	700.6301	728.1259	880.8337	885.2748	928.0156	954.378	961.7089	1000.2202	1062.5235	1076.1474	1121.723	1134.2697	1144.6294	1202.0649	1243.6983	1291.8378	1337.132	1359.2017	1378.2146	1399.0731	1418.5489	1422.5613	1451.5983	1484.5876	1486.7896	1490.37	1495.487	1503.2607	1504.8671	1520.3382	1623.0761	3023.8846	3028.7888	3031.9409	3041.5417	3077.5356	3092.1424	3100.2531	3102.4659	3113.6647	3115.6898	3232.5289	3674.1235
CC(C)C1=C(C)C=NN1	CC(C)c1c(C)cn[nH]1	
InChI=1S/C7H12N2/c1-5(2)7-6(3)4-8-9-7/h4-5H,1-3H3,(H,8,9)	InChI=1S/C7H12N2/c1-5(2)7-6(3)4-8-9-7/h4-5H,1-3H3,(H,8,9)
