17
gdb 55445	3.52131	1.20531	0.93597	2.2665	69.79	-0.2353	0.01	0.2453	1199.234	0.138021	-455.197117	-455.188914	-455.18797	-455.230549	30.522	
N	 0.5357675615	 0.2626964169	 0.8689340686	-0.523113
C	-0.180405309	 0.3572542639	-0.2745566987	 0.390391
O	 0.0716191845	 1.1174965993	-1.1920260308	-0.381547
C	-1.4069413156	-0.5709792219	-0.3361899903	-0.065888
C	-1.5311865698	-1.223217506	-1.7169722752	-0.227143
C	-2.6834509977	-2.2140887578	-1.6749512833	-0.087071
O	-2.5320522982	-3.1503533575	-0.5868986114	-0.224697
C	-1.9083815317	-2.6949974357	 0.5160419458	 0.13522
N	-1.394037517	-1.559192952	 0.7417323087	-0.294084
H	 1.3482587915	 0.8429753777	 0.9890590743	 0.257698
H	 0.2695404188	-0.4261162953	 1.5546037689	 0.271484
H	-2.2681386472	 0.0952302342	-0.1776735861	 0.117856
H	-1.691719505	-0.4675991104	-2.4880182753	 0.135765
H	-0.6006416368	-1.7481628369	-1.9596864071	 0.119794
H	-3.6433961141	-1.6996237999	-1.543747524	 0.119102
H	-2.7409579024	-2.8250687303	-2.5783717979	 0.125641
H	-1.8827516518	-3.4745892781	 1.2754932637	 0.130592
49.912	96.0619	203.7029	243.8564	301.9803	329.0453	388.9287	456.339	517.5251	555.158	575.9476	655.3049	727.3355	787.457	857.8952	860.0552	934.899	971.2273	981.8021	1047.8719	1082.3424	1102.1621	1126.7742	1187.1272	1229.0339	1256.4303	1299.3596	1318.0768	1364.8624	1373.0102	1399.7324	1417.7954	1480.1528	1509.2185	1580.9104	1725.5254	1796.7837	2997.0635	3033.2715	3055.8507	3108.1205	3125.5045	3157.7315	3583.4609	3731.7991
NC(=O)C1CCOC=N1	NC(=O)[C@H]1CCOC=N1	
InChI=1S/C5H8N2O2/c6-5(8)4-1-2-9-3-7-4/h3-4H,1-2H2,(H2,6,8)	InChI=1S/C5H8N2O2/c6-5(8)4-1-2-9-3-7-4/h3-4H,1-2H2,(H2,6,8)/t4-/m1/s1
