16
gdb 67204	2.86014	1.5308	1.22608	3.3517	72.25	-0.2521	0.0284	0.2804	1026.4148	0.124309	-400.695678	-400.688141	-400.687197	-400.727757	28.755	
C	-0.0072044637	 1.6082463168	-0.1890299451	-0.534661
C	 0.0245247991	 0.1231855999	-0.0485771818	 0.288662
C	 0.0774815922	-1.0400351107	-0.978837658	 0.011451
O	 1.1901147594	-1.6806764182	-0.3534006448	-0.28202
C	 0.8835229819	-0.8898473669	 0.813879138	 0.022114
C	-0.4473386384	-1.5413620098	 1.3344340463	-0.178205
C	-0.9476123674	-0.9210576064	 2.5503292723	 0.27119
N	-1.3285307004	-0.4222736388	 3.5217108606	-0.331578
C	-1.0607704948	-0.9507830309	 0.0586700091	-0.149984
H	 0.9694260488	 2.0008276813	-0.4915157299	 0.134546
H	-0.737942397	 1.9036760824	-0.9490811048	 0.132116
H	-0.2932991067	 2.089289256	 0.7520789543	 0.145089
H	-0.0676082544	-1.1465612827	-2.0456850637	 0.121742
H	 1.7286767208	-0.7003458179	 1.4709890878	 0.111862
H	-0.4161379103	-2.6300951679	 1.4419226264	 0.125504
H	-2.1082222091	-0.8842482361	-0.2044462367	 0.112173
99.1207	158.7496	204.1013	242.5056	275.5232	403.526	492.6145	536.5704	564.945	610.3206	775.1412	793.0494	845.9656	854.4963	887.7634	916.2763	970.2967	974.9023	1009.0628	1022.6126	1028.6777	1092.9928	1116.1112	1145.5772	1167.8242	1205.1876	1215.2281	1238.033	1286.9557	1334.9705	1413.4473	1466.7092	1483.6178	1496.5457	2353.3772	3031.3712	3067.8508	3098.4268	3102.386	3159.3748	3206.7955	3216.132
CC12C3OC1C(C#N)C23	C[C@@]12[C@H]3O[C@@H]1[C@@H](C#N)[C@@H]23	
InChI=1S/C7H7NO/c1-7-4-3(2-8)5(7)9-6(4)7/h3-6H,1H3	InChI=1S/C7H7NO/c1-7-4-3(2-8)5(7)9-6(4)7/h3-6H,1H3/t3-,4+,5+,6-,7-/m0/s1
