20
gdb 107992	2.82531	1.5729	1.34693	1.5684	78.6	-0.2381	0.0866	0.3246	1050.1717	0.172607	-403.085821	-403.078008	-403.077064	-403.118254	30.463	
C	 0.0138931967	 1.4072559063	-0.0209677147	-0.265333
O	-0.014318487	-0.0086529642	-0.0312733371	-0.290527
C	-1.2857640991	-0.5465545657	-0.0018508783	 0.39191
C	-2.4597008956	-0.4194352413	-0.9900677865	-0.244987
N	-2.9941108394	-1.4088989232	 0.0453271178	-0.162451
C	-1.586924415	-2.0558271745	 0.0471429928	-0.030956
C	-1.3566507226	-2.6158611684	 1.4429117581	-0.242946
C	-1.9452801778	-1.4430654767	 2.2762678323	-0.239258
C	-2.3559998447	-0.5228561176	 1.1361206052	-0.045276
H	 1.0633381553	 1.708147147	-0.0401668546	 0.130746
H	-0.4935711471	 1.8288455417	-0.8999794108	 0.114132
H	-0.4577307567	 1.8169293302	 0.8835312027	 0.11173
H	-3.0240398741	 0.5165299266	-1.0247722584	 0.097202
H	-2.3454311113	-0.8514854285	-1.9880823253	 0.100855
H	-1.3732011133	-2.6807772875	-0.8216587169	 0.072873
H	-1.8956130643	-3.55483362	 1.5939518448	 0.10908
H	-0.2957899406	-2.7940124675	 1.6378981397	 0.110209
H	-2.8029049388	-1.7441071711	 2.8837550283	 0.109192
H	-1.2097482478	-0.9716300834	 2.9341276991	 0.10518
H	-2.9136065269	 0.3885959875	 1.3591050719	 0.068627
76.9761	162.299	172.7513	232.4758	266.0266	395.4852	457.3756	489.5114	606.2016	699.9337	707.6743	797.8801	816.7945	835.3828	907.9132	910.4046	939.1104	985.2952	994.9944	1029.3423	1039.3506	1056.4873	1081.868	1122.7945	1133.6162	1143.7285	1157.1618	1181.1012	1203.1932	1223.6672	1252.2136	1257.35	1260.4843	1290.1233	1303.4972	1322.8876	1394.805	1474.8376	1485.0103	1489.6835	1496.9325	1505.9214	1530.6968	2991.7705	3043.8415	3051.4728	3057.2369	3065.9927	3096.496	3103.2953	3110.2356	3114.7773	3115.2476	3123.9965
COC12CN3C1CCC23	CO[C@@]12CN3[C@@H]1CC[C@@H]23	
InChI=1S/C7H11NO/c1-9-7-4-8-5(7)2-3-6(7)8/h5-6H,2-4H2,1H3	InChI=1S/C7H11NO/c1-9-7-4-8-5(7)2-3-6(7)8/h5-6H,2-4H2,1H3/t5-,6+,7+
