13
gdb 124019	3.82337	1.69954	1.18523	6.7458	66.75	-0.2246	-0.0474	0.1772	933.3083	0.092722	-448.91751	-448.911144	-448.9102	-448.948471	24.099	
C	-0.014928449	 1.4897750797	 0.1813008451	-0.280539
N	 1.3202570956	 1.9537412579	-0.2452335077	-0.291698
C	 2.3387263731	 1.1647214396	-0.6623765413	 0.113347
N	 2.3459694739	-0.1303356368	-0.7688554531	-0.359723
C	 1.1406335777	-0.6575583126	-0.3924869256	 0.404704
C	 0.0264800723	 0.0032478676	 0.0475812938	 0.197234
N	-0.9269389789	-0.9304707463	 0.3038236703	-0.200538
N	-0.4894702859	-2.0904430608	 0.058651461	-0.03959
O	 0.8839129321	-1.9564978918	-0.4075827731	-0.220859
H	-0.2105542623	 1.8143053311	 1.2134641043	 0.136866
H	-0.7888116376	 1.9479477387	-0.4512608849	 0.136865
H	 1.4886260694	 2.9462592146	-0.2240949357	 0.265992
H	 3.2407144296	 1.7105547191	-0.931886623	 0.137937
100.0968	238.5782	267.7731	416.2183	453.3683	498.5422	582.6197	612.3415	641.161	682.5263	766.4782	783.7638	932.4047	936.1362	976.258	1008.7388	1062.7454	1184.0662	1219.5416	1268.6528	1271.9548	1352.2983	1396.6335	1420.024	1474.3461	1533.3971	1546.6705	1620.996	1654.4698	2986.3777	3003.8741	3162.0397	3645.082
C1NC=NC2=C1N=NO2	C1NC=Nc2c1nno2	
InChI=1S/C4H4N4O/c1-3-4(6-2-5-1)9-8-7-3/h2H,1H2,(H,5,6)	InChI=1S/C4H4N4O/c1-3-4(6-2-5-1)9-8-7-3/h2H,1H2,(H,5,6)
