17
gdb 20535	4.38656	1.40348	1.38481	3.0222	70.33	-0.2509	-0.0055	0.2454	984.851	0.142326	-363.871271	-363.863428	-363.862483	-363.903891	28.607	
C	-0.0449604342	 1.5490450972	 0.0208978552	-0.386368
C	-0.0076886017	 0.0089276709	 0.032384447	-0.090979
C	 0.7327804625	-0.5250481904	 1.2733804115	-0.386358
C	-1.3876696217	-0.5652767119	-0.061448007	 0.461781
C	-2.0171418218	-1.3542474389	-0.9760355563	-0.361042
C	-3.3209719386	-1.5173817712	-0.4381732964	 0.035673
N	-3.4726411014	-0.8864683231	 0.6991358809	-0.142855
O	-2.2405374915	-0.2784585304	 0.9414508101	-0.220414
H	 0.9717161067	 1.9522135973	 0.0534175514	 0.115619
H	-0.5357014759	 1.927423401	-0.8804371373	 0.122179
H	-0.5919472346	 1.928953193	 0.8885902816	 0.137821
H	 0.5252226397	-0.33194021	-0.8628559582	 0.092205
H	 0.2151209285	-0.2274602934	 2.1897862044	 0.137832
H	 0.7946103603	-1.6169968875	 1.2590756018	 0.122164
H	 1.7501368942	-0.1237307095	 1.3086362165	 0.115609
H	-1.6135938761	-1.7558480597	-1.8903794833	 0.11643
H	-4.1553013744	-2.0739654035	-0.841862382	 0.130702
48.7333	141.2754	194.5176	218.4368	256.4586	319.9923	385.0032	479.7862	640.1159	648.2369	736.8024	809.1222	878.5686	916.5623	921.02	933.4714	944.6715	966.5865	1004.6118	1054.3823	1074.0582	1120.3721	1178.9727	1216.0606	1267.416	1323.64	1333.9757	1396.7948	1397.7041	1420.0698	1486.1954	1490.928	1499.6716	1503.4854	1522.0232	1631.8007	3039.5229	3041.759	3042.6849	3111.8147	3114.7907	3118.2236	3122.9901	3241.6192	3279.0333
CC(C)C1=CC=NO1	CC(C)c1ccno1	
InChI=1S/C6H9NO/c1-5(2)6-3-4-7-8-6/h3-5H,1-2H3	InChI=1S/C6H9NO/c1-5(2)6-3-4-7-8-6/h3-5H,1-2H3
