17
gdb 131319	4.65897	1.23467	0.99815	2.8276	75.5	-0.2069	0.0348	0.2417	1152.8421	0.139877	-418.046773	-418.039548	-418.038604	-418.078431	28.187	
O	 0.0734762839	 1.274660296	-0.0090492384	-0.42991
C	 0.0837775559	-0.0735234086	 0.0602944103	 0.45343
N	 0.1339984232	-0.8222662738	-1.0404657477	-0.409575
N	 0.1573301655	-2.0802277653	-0.542843226	 0.04518
C	 0.0788708625	-3.3543012505	-1.2262572277	-0.165073
C	 0.3854761158	-4.3330056326	-0.0633084459	-0.216131
C	 0.03196242	-3.563576079	 1.2480980027	-0.354169
C	 0.0974105719	-2.1347002372	 0.8040262016	 0.445382
C	 0.0546418211	-0.8290490245	 1.2569085008	-0.50834
H	 0.1042462146	 1.5061135121	-0.9457697954	 0.301237
H	-0.9215053124	-3.5067322204	-1.6517802855	 0.119162
H	 0.806272098	-3.4117271989	-2.0402869791	 0.127736
H	-0.1666170038	-5.2694869766	-0.1608559689	 0.113295
H	 1.4516426718	-4.5746100059	-0.0668317074	 0.122862
H	-0.9751447473	-3.8167810096	 1.6016613363	 0.12428
H	 0.7236078134	-3.7998998673	 2.0611866476	 0.12404
H	 0.019080156	-0.461033358	 2.2677487927	 0.106592
115.5044	170.0373	211.7012	311.1268	356.6012	411.1403	525.3408	533.3261	632.665	675.6072	713.927	742.0155	765.5173	815.2606	875.1682	901.7044	920.8088	1003.8264	1023.1908	1092.942	1121.2455	1152.7808	1185.7754	1201.9708	1225.5364	1252.4777	1301.0422	1322.0455	1333.6176	1363.3824	1454.2711	1484.613	1500.3628	1513.3991	1540.7658	1553.2822	1601.4789	3020.1346	3031.8236	3067.2097	3086.2003	3089.807	3122.6597	3280.8445	3794.8474
OC1=NN2CCCC2=C1	Oc1nn2CCCc2c1	
InChI=1S/C6H8N2O/c9-6-4-5-2-1-3-8(5)7-6/h4H,1-3H2,(H,7,9)	InChI=1S/C6H8N2O/c9-6-4-5-2-1-3-8(5)7-6/h4H,1-3H2,(H,7,9)
