14
gdb 123530	4.04636	1.78594	1.23906	3.866	79.06	-0.2273	-0.056	0.1714	922.8954	0.105877	-395.765837	-395.760088	-395.759144	-395.795828	23.415	
C	 0.0834326541	 1.36853689	 0.0090783185	 0.026547
N	 1.3559579839	 1.7941983637	-0.0007334479	-0.253592
N	 2.0745916893	 0.6692702154	-0.0139596675	 0.02831
N	 3.4099941217	 0.708262641	-0.0266109784	-0.193092
C	 3.9984648386	-0.4633098117	-0.0388348855	 0.009317
C	 3.3218025136	-1.7121536957	-0.0392890148	-0.12489
C	 1.9541538526	-1.7214824008	-0.0261604423	-0.214622
C	 1.2785323188	-0.4852089671	-0.0127409151	 0.470379
C	-0.0341580628	-0.0243809107	 0.0024994289	-0.360899
H	-0.709047587	 2.1025514699	 0.020786094	 0.123856
H	 5.0823522474	-0.4206419866	-0.0490349972	 0.132453
H	 3.8951050904	-2.630725874	-0.0499419952	 0.117356
H	 1.3824084441	-2.6423155163	-0.0257895242	 0.125608
H	-0.931301455	-0.621077767	 0.0078331388	 0.113269
221.3363	241.0939	430.7276	454.8606	580.484	604.1014	641.2798	652.7898	749.2005	771.1621	775.1459	819.858	902.0407	914.6102	929.796	949.6867	983.8862	1046.8922	1074.6463	1144.2677	1201.7771	1244.3875	1298.124	1322.7058	1332.3144	1383.6663	1439.3929	1457.7524	1541.938	1572.2598	1664.3102	3190.0683	3199.2023	3217.6982	3247.1384	3273.9844
C1=NN2N=CC=CC2=C1	c1nn2ncccc2c1	
InChI=1S/C6H5N3/c1-2-6-3-5-8-9(6)7-4-1/h1-5H	InChI=1S/C6H5N3/c1-2-6-3-5-8-9(6)7-4-1/h1-5H
