17
gdb 25752	2.6709	1.49796	0.97055	3.7621	77.99	-0.2094	0.0051	0.2145	1170.9384	0.13743	-418.092873	-418.084157	-418.083213	-418.126549	32.539	
C	 0.0603602183	 1.5078327202	 0.0843228557	-0.520295
C	 0.0184765588	 0.0202434167	-0.0366195421	 0.245903
C	-0.0654043756	-0.8127547197	-1.1467988054	 0.116357
C	-0.0596418436	-2.1641971904	-0.6664659494	-0.280839
C	 0.0284352523	-2.1176899392	 0.6976190136	-0.074753
N	 0.07949094	-0.7905000936	 1.0622974534	-0.295484
C	-0.1405542199	-0.3497763293	-2.5463486853	 0.308035
N	-0.016714944	-1.3390928528	-3.4993723896	-0.537285
O	-0.3282988885	 0.813303643	-2.8752580654	-0.378518
H	 1.0043076717	 1.8504667377	 0.5265073622	 0.121737
H	-0.0467889713	 1.9444786018	-0.9074624727	 0.188124
H	-0.7533786069	 1.8793630199	 0.7192598424	 0.123244
H	-0.1527868056	-3.063535477	-1.2558650977	 0.095908
H	 0.0496204512	-2.9002748944	 1.4383740585	 0.123536
H	 0.1486816672	-0.4542781822	 2.0079647341	 0.260423
H	 0.4581853923	-2.1956796735	-3.2685934109	 0.251488
H	 0.0921856737	-1.0049726173	-4.4444558115	 0.252418
60.7617	89.8295	175.9237	211.9642	253.9027	322.4999	390.2478	424.8279	492.2302	529.9631	532.7705	636.6188	651.4588	677.9972	695.3852	711.1974	794.4007	826.4695	914.1166	987.5741	1058.297	1067.005	1099.7709	1114.3306	1168.3826	1231.3002	1285.2356	1374.6959	1401.087	1426.9709	1465.3086	1495.1979	1502.0042	1527.9227	1606.317	1621.8583	1758.2741	3019.3875	3065.4626	3167.4776	3244.0339	3272.9956	3588.2866	3667.6253	3715.5299
CC1=C(C=CN1)C(N)=O	Cc1c(cc[nH]1)C(=O)N	
InChI=1S/C6H8N2O/c1-4-5(6(7)9)2-3-8-4/h2-3,8H,1H3,(H2,7,9)	InChI=1S/C6H8N2O/c1-4-5(6(7)9)2-3-8-4/h2-3,8H,1H3,(H2,7,9)
