19
gdb 41285	2.85122	2.052	1.83627	1.7605	78.01	-0.2375	0.0722	0.3096	859.4298	0.16236	-385.806973	-385.800835	-385.799891	-385.836918	27.194	
C	 0.0865013916	 1.5300809898	-0.1086098106	-0.201612
O	 1.5511424763	 1.5100960132	 0.0080833515	-0.3526
C	 1.5105669647	 0.1993758499	 0.5837129653	 0.428641
C	 1.7478063985	-0.2879384464	 1.9988052246	-0.30507
C	 0.9890719674	-1.5340401856	 1.4274331893	-0.044792
C	-0.4571350894	-0.9574364535	 1.2264798137	-0.300646
C	 0.0297755638	 0.0181841975	 0.1513385047	 0.210734
C	 0.5174297112	-0.9277898312	-0.992981106	-0.281443
C	 1.6526454547	-1.2338628205	-0.0131149467	-0.096436
H	-0.3562787926	 2.1569255628	 0.6758179387	 0.105048
H	-0.2308893343	 1.8872175951	-1.0932933326	 0.108665
H	 2.8016262568	-0.5043141693	 2.1981546118	 0.101161
H	 1.3010895241	 0.2410143692	 2.8464090008	 0.093646
H	 1.1121989888	-2.51371197	 1.8863839088	 0.072177
H	-1.1938407015	-1.6847368272	 0.8747646085	 0.095774
H	-0.8323872834	-0.4909122658	 2.1412525462	 0.100482
H	-0.1550140449	-1.7291852843	-1.3130068464	 0.088861
H	 0.8779781947	-0.3724138961	-1.8618981472	 0.111124
H	 2.5780723034	-1.7641438377	-0.2445216744	 0.066288
257.5093	326.134	370.2883	428.1135	465.4057	511.4944	591.6298	660.8931	716.792	762.5486	797.3211	849.9191	863.7133	887.2178	922.442	937.2844	944.5319	962.5784	968.6865	997.0105	1029.5549	1057.6655	1063.5624	1105.4243	1127.6244	1142.4371	1149.8434	1176.2305	1189.254	1222.0325	1236.3271	1248.7024	1253.5415	1290.7611	1295.5135	1307.1757	1345.2744	1482.9365	1494.8417	1507.0156	1514.8606	3017.6313	3044.5388	3051.3694	3057.3241	3082.2171	3097.0932	3100.7064	3106.0765	3116.1076	3132.6888
C1OC23CC4CC12CC34	C1O[C@@]23C[C@H]4C[C@@]12C[C@@H]34	
InChI=1S/C8H10O/c1-5-2-8-6(5)3-7(1,8)4-9-8/h5-6H,1-4H2	InChI=1S/C8H10O/c1-5-2-8-6(5)3-7(1,8)4-9-8/h5-6H,1-4H2/t5-,6-,7-,8-/m1/s1
