14
gdb 18415	3.43438	1.84429	1.55664	3.0683	67.82	-0.2445	-0.0168	0.2277	840.3325	0.106032	-345.357005	-345.350027	-345.349083	-345.388221	26.692	
O	 0.0171182681	 0.0343486991	-0.0999756158	-0.306051
C	 0.0180893723	 1.2222980514	 0.0374126745	 0.424442
C	-1.1139763391	 2.2820033469	 0.1387785993	-0.366471
C	-0.0229163698	 3.3498984681	-0.0305067118	-0.068401
C	 0.9646844836	 3.2670412605	 1.0957339689	-0.208724
C	 0.6200253527	 2.8734084809	 2.4344729597	 0.329635
C	 0.3363480574	 2.5584629788	 3.5596813652	-0.440286
C	 1.0873759112	 2.2767818458	-0.0743909061	-0.195562
H	-1.781259974	 2.1939593486	-0.7230324843	 0.133571
H	-1.7003358797	 2.313656514	 1.0595014732	 0.137468
H	-0.0974254353	 4.2309179921	-0.6537790004	 0.111728
H	 1.7448736803	 4.0231352566	 1.0447056875	 0.129221
H	 0.090463221	 2.2712623861	 4.5520749401	 0.20356
H	 2.0059587014	 2.2193893509	-0.6451549699	 0.115869
87.5538	156.7689	222.8306	350.8949	443.9966	470.1293	553.4981	608.6709	623.9549	654.0031	664.5514	748.8917	796.8075	845.7099	907.2811	938.1769	958.5236	991.3047	1022.6257	1071.3482	1098.5684	1139.5698	1158.0298	1214.582	1281.1795	1307.7006	1396.8802	1453.2115	1892.1263	2238.2782	3070.1662	3127.8127	3137.6542	3195.6951	3210.3982	3503.4579
O=C1CC2C(C#C)C12	O=C1C[C@H]2[C@@H](C#C)[C@@H]12	
InChI=1S/C7H6O/c1-2-4-5-3-6(8)7(4)5/h1,4-5,7H,3H2	InChI=1S/C7H6O/c1-2-4-5-3-6(8)7(4)5/h1,4-5,7H,3H2/t4-,5+,7-/m1/s1
