22
gdb 111500	2.77546	1.34771	1.15152	3.1462	81.12	-0.2442	0.069	0.3132	1183.6259	0.196339	-404.344572	-404.33603	-404.335086	-404.377516	34.041	
C	-0.0732246698	 1.5439376964	 0.0849666282	-0.388708
C	 0.0031444297	 0.0156304537	 0.0236668022	-0.172208
C	 0.6530041891	-0.516325739	-1.25738527	 0.005797
C	 0.7665799657	-2.0316512023	-1.3353341117	-0.050328
N	-0.4976326263	-2.6807018252	-1.7728050924	-0.358782
C	 0.6038426622	-2.4604921998	-2.7448014835	-0.034083
C	 0.3815987399	-1.2260147261	-3.5987041981	-0.23657
C	-0.0900228158	-0.1494733589	-2.5844918524	 0.094976
O	-1.4989968095	-0.1468072949	-2.4393341545	-0.438399
H	 0.9168434457	 1.9995059715	-0.0348601125	 0.103695
H	-0.7246327786	 1.9307018502	-0.7034782137	 0.137239
H	-0.4766026809	 1.8785379092	 1.0458730034	 0.106668
H	 0.5728120792	-0.3596930406	 0.884146304	 0.080931
H	-1.0045196653	-0.4027618009	 0.1089409035	 0.105141
H	 1.6754399322	-0.1148135208	-1.327886778	 0.067919
H	 1.4034710951	-2.5690734044	-0.6393039997	 0.083751
H	-0.5076575656	-3.6522676856	-1.4757134345	 0.234436
H	 1.1181262483	-3.3284113185	-3.144594552	 0.085939
H	 1.3297249147	-0.9354474978	-4.0673975449	 0.097527
H	-0.3632902447	-1.3606030613	-4.3879948046	 0.109356
H	 0.1748644145	 0.8561589676	-2.9200333379	 0.077698
H	-1.72245305	-1.0510349926	-2.1669904108	 0.288004
85.922	135.1073	196.4544	227.7893	280.7248	306.4105	375.2132	411.7635	483.4188	529.0405	621.4985	657.6994	729.808	795.9299	810.9024	837.9649	863.068	881.6787	893.8087	945.0682	961.5774	980.7918	1016.199	1050.0114	1069.5297	1084.6696	1109.8599	1134.3884	1154.5532	1161.7141	1205.8227	1254.2613	1256.2883	1265.8695	1302.4807	1312.4586	1331.1051	1357.127	1372.8049	1396.5445	1407.0457	1424.3775	1467.2525	1478.6182	1485.86	1498.7658	1511.7507	2992.9007	3020.3863	3030.7232	3037.0949	3077.2197	3080.5428	3096.2506	3097.5973	3117.8404	3153.6449	3166.6454	3513.0787	3678.0731
CCC1C2NC2CC1O	CC[C@H]1[C@H]2N[C@H]2C[C@H]1O	
InChI=1S/C7H13NO/c1-2-4-6(9)3-5-7(4)8-5/h4-9H,2-3H2,1H3	InChI=1S/C7H13NO/c1-2-4-6(9)3-5-7(4)8-5/h4-9H,2-3H2,1H3/t4-,5+,6-,7-/m1/s1
