20
gdb 89880	4.30345	0.87917	0.82194	3.9144	82.18	-0.2478	0.0038	0.2516	1456.7382	0.169936	-403.137637	-403.128626	-403.127682	-403.171745	33.534	
C	-1.0234688461	 1.0093283424	-0.1634658967	-0.407812
C	 0.0870012602	 0.0071401307	 0.1068946237	 0.057298
C	 1.2197760574	-0.1533218459	-0.9560736915	-0.316589
C	 2.2141879809	-0.2088038432	 0.2041772753	 0.354422
C	 3.1988640588	-1.2943090533	 0.5183233898	-0.305327
N	 3.635927803	 0.0361382484	 0.1425030004	-0.122386
C	 4.3665960336	 0.8726045452	 0.9661222868	 0.132531
O	 5.26557953	 0.5216703174	 1.6910448031	-0.287719
C	 1.1732733434	 0.3730922544	 1.1682096479	-0.316247
H	-0.6119116855	 1.9980619888	-0.3966736758	 0.114233
H	-1.6418132616	 0.6971907658	-1.0121363262	 0.119454
H	-1.6813690784	 1.1182732952	 0.7057188484	 0.11905
H	-0.3397039654	-0.9731956069	 0.3419255196	 0.080638
H	 1.1774708268	-1.0134475012	-1.6282562945	 0.107592
H	 1.3484979432	 0.7566645485	-1.5516767064	 0.109469
H	 3.341754343	-1.58042158	 1.5578570531	 0.135286
H	 3.3892840709	-2.0780739298	-0.2105724406	 0.125173
H	 4.075257239	 1.9325913617	 0.8333650263	 0.080044
H	 1.2718743127	 1.4587856329	 1.27378482	 0.108659
H	 1.0970608241	-0.072951161	 2.1626909973	 0.112232
62.614	85.5212	164.8121	215.2458	238.7313	276.8298	327.6394	346.5801	412.108	433.4894	484.3952	685.223	710.0334	823.7469	830.5036	882.1804	911.0223	915.7093	944.9044	970.4767	1033.3392	1046.6639	1071.479	1117.4007	1121.762	1132.2042	1156.5917	1197.2656	1214.9108	1228.0783	1257.7178	1273.0759	1288.4316	1371.1624	1413.9471	1416.7503	1436.2085	1468.7423	1492.6588	1496.6209	1498.9261	1514.3765	1797.9247	2945.9462	3025.4228	3046.0293	3048.76	3054.5643	3093.8558	3095.4343	3103.7049	3107.3278	3111.3275	3192.863
CC1CC2(CN2C=O)C1	C[C@H]1C[C@]2(CN2C=O)C1	
InChI=1S/C7H11NO/c1-6-2-7(3-6)4-8(7)5-9/h5-6H,2-4H2,1H3	InChI=1S/C7H11NO/c1-6-2-7(3-6)4-8(7)5-9/h5-6H,2-4H2,1H3/t6-,7+,8?
