13
gdb 131459	3.62122	1.1747	0.90761	2.1035	63.15	-0.2541	-0.0188	0.2353	1180.5074	0.088859	-489.855657	-489.847871	-489.846927	-489.888948	27.776	
O	 0.4989532664	 1.0057705649	 0.8330021599	-0.420279
C	 0.20147907	-0.202013962	 0.3317378547	 0.375577
N	 0.3384196036	-0.5014074408	-0.9348632685	-0.234737
O	-0.0765952666	-1.8299979307	-1.047470185	-0.170197
C	-0.4316692993	-2.286133496	 0.1635515114	 0.00871
C	-0.283589317	-1.3096918798	 1.094249729	 0.123102
O	-0.6285538998	-1.3721664421	 2.4098099597	-0.21747
C	 0.2565272448	-0.8719700423	 3.3245437834	 0.115335
N	-0.0716742602	-0.8674925602	 4.5370211081	-0.42671
H	 0.7859322348	 1.5701107311	 0.1020158634	 0.319419
H	-0.782137243	-3.3039424648	 0.2199159743	 0.170294
H	 1.1905933908	-0.5220188165	 2.8752612779	 0.116793
H	 0.6796635056	-0.4777963708	 5.1023123317	 0.240163
57.7435	87.7479	152.3348	277.6411	303.7644	395.2194	444.1208	465.064	532.5593	590.0676	716.6913	730.3413	810.2132	822.9822	844.2374	903.9609	956.3539	1036.6515	1041.1727	1155.6586	1212.973	1256.8302	1296.2652	1315.0544	1416.0151	1493.9274	1585.3904	1682.8182	1756.8518	3084.2321	3277.0807	3525.3724	3777.2394
OC1=NOC=C1OC=N	Oc1nocc1O[CH][NH]	
InChI=1S/C4H4N2O3/c5-2-8-3-1-9-6-4(3)7/h1-2,5H,(H,6,7)	InChI=1S/C4H4N2O3/c5-2-8-3-1-9-6-4(3)7/h1-2,5H,(H,6,7)
