18
gdb 64883	2.9581	1.05262	0.93097	4.2014	75.36	-0.2479	-0.0394	0.2084	1300.3453	0.145574	-439.104685	-439.09527	-439.094325	-439.140329	32.743	
C	-0.3951860242	 1.7821305241	 0.2204463748	-0.472713
C	 0.0188066919	 0.314570883	 0.1483450541	 0.202709
C	 1.1758806444	-0.0422732321	-0.8302317033	-0.233144
N	 1.9694380218	-0.4637037656	 0.3282044312	-0.03695
C	 0.946442118	-0.1721775187	 1.3251329291	-0.223874
C	 3.0928087014	-1.2041813644	 0.4650559065	 0.134455
O	 3.5088281273	-1.6224796695	 1.525861599	-0.32867
C	-1.1979024162	-0.5761210018	 0.0106597022	 0.121101
O	-1.3511122632	-1.4199634143	-0.8333511718	-0.242647
H	 0.4747885663	 2.4168894282	 0.4126869628	 0.136511
H	-0.8559280391	 2.1106107045	-0.7170631514	 0.136315
H	-1.1168921896	 1.9482294938	 1.0280060528	 0.131024
H	 0.9247640723	-0.8454005514	-1.5289277609	 0.144023
H	 1.5940957943	 0.8112357843	-1.3744746487	 0.114177
H	 1.2227589007	 0.6097970459	 2.0404519967	 0.125342
H	 0.6083070619	-1.0552170727	 1.8790657925	 0.133302
H	 3.5981284105	-1.37559424	-0.5073359178	 0.073924
H	-1.9743568984	-0.3948935332	 0.7898203321	 0.085114
25.8019	82.9913	102.7621	171.0119	219.0773	249.4453	287.6027	325.5214	348.3475	374.1253	507.5042	587.6653	720.5552	811.6084	874.284	912.0434	943.1793	948.6802	973.3619	1029.9468	1036.376	1139.4595	1158.1197	1162.2327	1186.9912	1224.4627	1279.9484	1291.2092	1327.0095	1397.0326	1408.5069	1425.3473	1448.2953	1491.6673	1495.9561	1506.0228	1522.1192	1791.1321	1830.6729	2866.7887	2928.046	3030.6893	3031.2685	3038.7242	3077.825	3097.1605	3100.3601	3110.8294
CC1(CN(C1)C=O)C=O	CC1(CN(C1)C=O)C=O	
InChI=1S/C6H9NO2/c1-6(4-8)2-7(3-6)5-9/h4-5H,2-3H2,1H3	InChI=1S/C6H9NO2/c1-6(4-8)2-7(3-6)5-9/h4-5H,2-3H2,1H3
