18
gdb 110431	2.69844	1.60741	1.22958	2.7541	75.3	-0.2124	0.0026	0.215	1058.029	0.14725	-401.895173	-401.88735	-401.886405	-401.927775	30.249	
C	 0.0128046803	 1.4939334787	 0.2107668769	-0.384991
C	 0.0408091626	-0.0074120079	-0.0633193751	-0.136574
N	-1.3064294797	-0.577593479	-0.0077393427	-0.086387
C	-1.4511614526	-2.0299579453	-0.1223278778	-0.024492
C	-2.5409140692	-2.0909114985	 0.8716791733	-0.107066
C	-1.1532719842	-2.700612792	 1.2408467985	-0.218465
C	-1.0037148985	-1.5661389145	 2.2026548934	 0.43676
O	-0.5605050927	-1.4527544778	 3.3111307279	-0.342356
C	-1.9613352863	-0.7009794545	 1.3290364398	-0.157544
H	 1.013065973	 1.9223043335	 0.1005026944	 0.118618
H	-0.6632246402	 2.0005057622	-0.484001711	 0.125868
H	-0.3248866446	 1.7035421878	 1.2310426485	 0.127577
H	 0.4228407899	-0.1967779855	-1.0737899087	 0.102682
H	 0.7338182155	-0.5030497932	 0.6387372845	 0.098356
H	-1.3152537876	-2.5729194574	-1.050433023	 0.111281
H	-3.5193237275	-2.5405828189	 0.9175267427	 0.12652
H	-0.8902448545	-3.7428613534	 1.3534386574	 0.113403
H	-2.4959203134	 0.1551406858	 1.732942841	 0.096811
67.1911	142.8382	176.2098	224.8761	298.942	410.7552	425.1328	550.185	632.1024	682.9723	742.6426	783.6161	808.1281	814.7048	825.9868	846.334	864.6632	913.2476	957.0989	1003.5335	1017.5004	1049.6148	1066.7571	1090.6335	1122.2389	1129.3379	1179.9154	1182.6129	1194.8507	1216.3673	1292.6983	1306.4813	1347.8549	1388.5743	1412.9028	1490.8044	1494.1859	1510.8781	1875.0006	2955.4034	3040.5617	3047.302	3109.4341	3120.7164	3154.8149	3183.1937	3226.3625	3257.2535
CCN1C2C3C2C(=O)C13	CCN1[C@@H]2[C@H]3[C@@H]2C(=O)[C@@H]13	
InChI=1S/C7H9NO/c1-2-8-5-3-4(5)7(9)6(3)8/h3-6H,2H2,1H3	InChI=1S/C7H9NO/c1-2-8-5-3-4(5)7(9)6(3)8/h3-6H,2H2,1H3/t3-,4+,5-,6+/m1/s1
