15
gdb 98826	3.02548	1.13096	0.91949	2.6128	63.82	-0.2709	-0.0632	0.2077	1235.4517	0.109315	-494.894825	-494.886009	-494.885065	-494.92957	30.575	
O	 0.0544700914	 1.4169345587	-0.0186469166	-0.41777
C	 0.0198694548	 0.0337454238	 0.1582656853	-0.138555
C	-1.3979651013	-0.5021493289	 0.0444079478	 0.323489
O	-2.331983529	 0.245692687	-0.1257742228	-0.302309
C	-1.5558617994	-2.0125431184	 0.0939717379	-0.09256
O	-2.9067976547	-2.4790752413	 0.1032632262	-0.264005
C	-2.8216834625	-3.1054542152	-1.1949800116	-0.179123
C	-1.3487376207	-2.7013774626	-1.2847472973	 0.332577
O	-0.443099362	-2.8319097711	-2.0430015185	-0.251298
H	-0.8713753419	 1.6895760991	-0.1157351106	 0.297392
H	 0.642861975	-0.4850390329	-0.5902765301	 0.139621
H	 0.4172288821	-0.2583819138	 1.1458942499	 0.119301
H	-0.943795412	-2.4415688404	 0.8991559226	 0.132938
H	-3.0138071342	-4.1844745964	-1.1657629676	 0.145883
H	-3.4730966757	-2.6313020975	-1.9394285548	 0.154419
52.3989	84.258	92.5372	142.4303	217.4333	323.493	373.7936	379.0634	424.9345	466.1183	579.5222	685.9226	711.1263	816.8112	906.9895	936.0328	991.1028	1014.5983	1041.7753	1050.3909	1120.4093	1132.7212	1148.9652	1169.2243	1249.743	1289.8456	1314.9855	1334.8128	1449.2934	1475.9264	1491.7155	1805.9232	1929.4826	2963.0133	2983.9213	3023.1919	3031.534	3079.9047	3698.502
OCC(=O)C1OCC1=O	OCC(=O)[C@H]1OCC1=O	
InChI=1S/C5H6O4/c6-1-3(7)5-4(8)2-9-5/h5-6H,1-2H2	InChI=1S/C5H6O4/c6-1-3(7)5-4(8)2-9-5/h5-6H,1-2H2/t5-/m1/s1
