23
gdb 95556	2.32696	1.4839	0.97553	0.6631	96.52	-0.2022	-0.0112	0.191	1292.256	0.207109	-351.179761	-351.170665	-351.169721	-351.213371	35.792	
C	-0.4582395898	 1.4072361626	 0.0313748451	-0.414479
C	 0.0299730495	-0.0495909311	 0.0399536976	-0.066272
C	 0.811905898	-0.3698671205	-1.2629863103	-0.198102
C	 0.6296764611	-1.8082605519	-1.7529574017	-0.260122
C	 0.9033839567	-2.9076004661	-0.768278315	-0.070561
C	 1.2197328429	-2.8315148625	 0.5343124383	-0.067467
C	 1.3425754557	-1.6775642178	 1.418165494	-0.145406
C	 0.8449504032	-0.4360495893	 1.2698374253	 0.281764
C	 1.0963382007	 0.5967469746	 2.3383600229	-0.483889
H	 0.3754526457	 2.1141663834	-0.0411093703	 0.115972
H	-1.1057093292	 1.5760807956	-0.8347204164	 0.110414
H	-1.0340058461	 1.6582543366	 0.9265403008	 0.113043
H	-0.864196848	-0.6912484146	 0.0392220638	 0.089878
H	 0.4797768241	 0.3038724744	-2.0617931911	 0.087953
H	 1.8749953257	-0.1596549737	-1.1028760492	 0.102318
H	-0.3939885416	-1.9365680175	-2.1376029518	 0.105888
H	 1.2736222696	-1.9658676591	-2.6311217273	 0.104201
H	 0.8546353006	-3.9063970512	-1.1998500115	 0.082207
H	 1.4286835902	-3.7796026346	 1.0280835603	 0.077602
H	 1.8856545417	-1.8827143936	 2.3391483125	 0.071861
H	 1.7128615608	 0.1851364654	 3.1412150359	 0.116215
H	 1.6098954037	 1.4808083444	 1.9401483394	 0.123164
H	 0.1628307547	 0.9611539566	 2.7851257385	 0.123818
50.7011	164.2261	200.5039	244.801	272.6595	302.1086	333.2875	347.6206	381.8532	426.8419	477.0787	578.1437	598.0596	700.1023	729.0334	804.9886	838.4383	885.1685	897.6152	926.9803	963.9754	988.3708	1013.0107	1034.1168	1056.6519	1075.4418	1087.3984	1111.1491	1131.4593	1198.6381	1218.5068	1251.5197	1296.1595	1313.2953	1336.8189	1365.3161	1389.4309	1401.3951	1407.4126	1418.7624	1448.8469	1467.8845	1476.5719	1484.716	1492.8352	1505.5132	1511.5004	1682.0078	1708.649	2981.9958	2988.2568	3007.1305	3016.9979	3030.0528	3036.6848	3060.7135	3071.7286	3099.4531	3109.7529	3112.6541	3117.4105	3132.7587	3147.3393
CC1CCC=CC=C1C	C[C@H]1CCC=CC=C1C	
InChI=1S/C9H14/c1-8-6-4-3-5-7-9(8)2/h3-4,6,9H,5,7H2,1-2H3	InChI=1S/C9H14/c1-8-6-4-3-5-7-9(8)2/h3-4,6,9H,5,7H2,1-2H3/t9-/m0/s1
