20
gdb 8033	3.39674	1.87434	1.49379	1.7694	74.56	-0.2386	0.0723	0.3109	939.1463	0.176844	-348.9808	-348.972759	-348.971815	-349.012874	30.858	
C	-0.7209633283	 1.2834974066	 0.0016404778	-0.406365
C	 0.0537544697	-0.0243552518	 0.0311433756	 0.031626
C	 1.2520823638	-0.2166351078	-0.9560338353	-0.31043
C	 2.1782250351	-0.6340323528	 0.2301419102	 0.312949
C	 2.8942685914	-1.9619584636	 0.1559698703	-0.503329
C	 2.8913441935	 0.573393716	 0.8650376136	-0.115331
O	 1.7202836947	 0.9227797531	 1.6385362244	-0.293841
C	 1.0216429795	-0.2682025739	 1.2137836622	 0.062855
H	-0.0499614537	 2.1268334616	 0.1865120196	 0.129568
H	-1.2061757137	 1.4309806838	-0.9692083981	 0.109217
H	-1.4999750972	 1.3019430591	 0.771827603	 0.112948
H	-0.6331592193	-0.8752908799	-0.048255168	 0.068813
H	 1.1005064133	-0.9975674769	-1.7055942822	 0.097505
H	 1.5707219357	 0.6951221773	-1.4709854007	 0.096012
H	 3.6859279593	-1.9384393701	-0.6031687864	 0.119895
H	 3.3587454801	-2.2211448006	 1.1137240188	 0.118553
H	 2.2072912263	-2.7713337716	-0.1144686569	 0.117573
H	 3.7332182773	 0.3079530756	 1.520327311	 0.092493
H	 3.2041452076	 1.3803845138	 0.1900198066	 0.09622
H	 0.6865887848	-0.8716726081	 2.0638668946	 0.063069
82.1715	209.5129	215.2546	228.427	233.9504	298.3068	378.5798	387.9774	510.1893	631.0333	640.2247	795.4903	838.5524	873.8173	887.1946	918.0894	938.2698	969.3948	984.6483	1012.8843	1032.5295	1080.9776	1118.2246	1152.8031	1165.6389	1192.2961	1199.9017	1235.2724	1261.0485	1280.252	1294.5768	1326.6978	1355.7275	1381.4577	1406.1665	1414.3641	1483.1513	1490.0716	1492.8423	1493.4215	1503.0083	1523.2752	2992.4736	3019.8579	3028.723	3033.2458	3042.4019	3047.8772	3054.7042	3081.9771	3092.9637	3093.4246	3102.5794	3117.5763
CC1CC2(C)COC12	C[C@H]1C[C@@]2(C)CO[C@@H]12	
InChI=1S/C7H12O/c1-5-3-7(2)4-8-6(5)7/h5-6H,3-4H2,1-2H3	InChI=1S/C7H12O/c1-5-3-7(2)4-8-6(5)7/h5-6H,3-4H2,1-2H3/t5-,6-,7-/m0/s1
