18
gdb 94359	3.49818	1.06558	0.92366	4.6138	74.88	-0.247	0.0033	0.2503	1274.1025	0.146328	-439.061641	-439.052748	-439.051804	-439.095548	32.448	
O	 0.1403794308	 1.2545152205	-0.4615325589	-0.427577
C	 0.1215175298	-0.0224257188	 0.1200041078	 0.063654
C	-0.1215778712	-0.164039298	 1.6564493505	-0.257794
C	-1.1441603413	-1.3023906334	 1.360606636	-0.315224
C	-1.1814349737	-0.7896484923	-0.0850594569	 0.333064
C	-2.3815207155	-0.2838322136	-0.8228318815	-0.293454
N	-1.627940275	-1.4300337277	-1.297283865	-0.131332
C	-2.1428394789	-2.7090393543	-1.4061170715	 0.131876
O	-3.2510245976	-2.9809191714	-1.7988624405	-0.286507
H	 1.0427040167	 1.5868185535	-0.4559619217	 0.290775
H	 0.9797579148	-0.6292234333	-0.2020845274	 0.078702
H	 0.7369065992	-0.4081776202	 2.2842795448	 0.102463
H	-0.6142827034	 0.7329375569	 2.0383893108	 0.119629
H	-0.6919737063	-2.2946982674	 1.4422359436	 0.115463
H	-2.0845382286	-1.2958224691	 1.9145190586	 0.120545
H	-3.365243815	-0.4832380595	-0.4046135914	 0.133786
H	-2.2889798525	 0.619404538	-1.417369474	 0.143113
H	-1.3853477023	-3.4762641197	-1.1531086736	 0.078818
81.7127	106.8846	137.0519	196.2654	217.2616	245.2249	292.2869	371.6339	437.5606	489.6703	556.9081	698.4035	712.8892	801.0586	848.3118	897.3309	920.6124	943.4364	973.5701	1029.4958	1058.113	1093.2208	1122.6275	1124.1968	1152.0094	1167.5541	1195.1044	1211.4559	1235.8288	1267.5633	1269.7512	1303.3867	1414.1605	1420.0956	1452.964	1476.402	1496.4352	1512.489	1798.8972	2944.145	3002.9183	3064.6977	3074.6341	3114.7545	3117.9551	3137.4816	3211.4874	3832.6866
OC1CCC11CN1C=O	O[C@H]1CC[C@]21CN2C=O	
InChI=1S/C6H9NO2/c8-4-7-3-6(7)2-1-5(6)9/h4-5,9H,1-3H2	InChI=1S/C6H9NO2/c8-4-7-3-6(7)2-1-5(6)9/h4-5,9H,1-3H2/t5-,6+,7?/m0/s1
