19
gdb 40190	3.37825	1.42231	1.19686	2.4468	74.25	-0.2284	0.0791	0.3076	1073.1307	0.160417	-422.986458	-422.978916	-422.977972	-423.018512	30.125	
C	-0.0094186067	 1.4912689802	 0.0143323032	-0.241419
O	 1.2020681225	 0.7341961395	 0.0206250181	-0.267276
C	-0.0485620782	 0.0260922643	 0.0001404063	 0.407987
C	-0.3529549099	-0.733845026	 1.270796184	-0.15049
O	 0.3589581516	-1.9583003083	 1.3382905332	-0.250081
C	 0.2803643532	-2.7775038345	 0.2070400439	 0.136516
C	-1.0221502615	-3.1437310327	-0.4507102108	-0.33286
C	-0.0371567371	-2.2210048754	-1.1570177419	-0.067914
C	-0.3579769449	-0.7313950574	-1.280605236	-0.312008
H	-0.2282617298	 2.0359533723	 0.9328589492	 0.110262
H	-0.217727917	 2.0396838259	-0.9044137332	 0.110202
H	-0.0312006471	-0.1561514363	 2.1403713809	 0.116701
H	-1.4394424527	-0.90304695	 1.3535441481	 0.092141
H	 1.0413246967	-3.5461291917	 0.2856018823	 0.103866
H	-1.1455246362	-4.1578557371	-0.8147125064	 0.111986
H	-1.9369600707	-2.6952804692	-0.0759771699	 0.112978
H	 0.5083890093	-2.6445877161	-1.993485182	 0.093227
H	-1.4139328503	-0.5885576139	-1.5440226626	 0.106583
H	 0.236057969	-0.2829650036	-2.0813054464	 0.119598
72.0939	169.3598	279.7384	298.0762	356.3985	384.5065	425.1235	496.4728	536.6184	643.7496	751.2041	779.2978	800.6982	839.6065	852.3246	897.5288	931.2651	967.0199	985.1872	1013.2638	1029.1621	1049.5491	1090.7894	1116.4002	1125.8427	1128.7943	1168.9646	1190.5556	1231.0037	1241.9811	1279.2525	1309.4385	1316.7344	1364.6884	1371.3279	1414.8711	1447.0231	1467.827	1484.0197	1492.576	1532.7155	2969.341	3021.5689	3072.4756	3091.586	3102.4418	3128.2605	3155.4049	3155.9045	3171.7974	3213.008
C1OC11COC2CC2C1	C1O[C@]21CO[C@H]1C[C@H]1C2	
InChI=1S/C7H10O2/c1-5-2-7(4-9-7)3-8-6(1)5/h5-6H,1-4H2	InChI=1S/C7H10O2/c1-5-2-7(4-9-7)3-8-6(1)5/h5-6H,1-4H2/t5-,6-,7-/m0/s1
