17
gdb 27156	3.07389	1.32509	0.99826	1.0309	76.81	-0.2222	-0.0021	0.2201	1182.8495	0.13747	-418.018225	-418.01013	-418.009185	-418.051549	29.541	
C	-0.356415524	 1.5242419527	 0.2367863066	-0.495457
C	-0.0523572299	 0.0780934689	 0.0351483017	 0.152767
C	 0.2183480625	-0.6099361844	-1.1073195307	 0.294478
O	 0.4271509859	-1.9272185786	-0.7612890756	-0.19683
C	 0.2706943651	-1.9513109123	 0.5828685689	 0.060468
N	-0.0085582004	-0.8105857573	 1.1129367569	-0.300195
C	 0.3115225168	-0.2588164228	-2.5270775548	-0.108825
C	 1.2226935359	-1.0006497259	-3.4440891795	-0.239008
N	-0.2326799456	-1.1608964653	-3.5669433571	-0.321344
H	 0.4032934071	 1.9992240226	 0.8668129866	 0.141252
H	-0.3960500872	 2.0620251092	-0.7135807809	 0.126708
H	-1.319510809	 1.6495063465	 0.742330133	 0.142861
H	 0.3911310484	-2.9079514752	 1.0667218568	 0.149803
H	 0.1251984265	 0.7930276072	-2.722300575	 0.101843
H	 1.6988634007	-0.4735458073	-4.2660373322	 0.124333
H	 1.8030799524	-1.813900997	-3.0186115005	 0.126135
H	-0.5123641652	-2.0354674309	-3.1275948941	 0.241011
64.2321	117.0931	163.4838	168.3176	262.3324	281.8589	430.8773	477.2337	616.3334	665.2576	711.3351	725.3189	815.2006	832.4205	880.7841	955.8605	966.1367	977.5045	995.626	1066.0044	1089.5925	1100.9495	1135.9019	1145.0603	1173.9012	1250.1905	1263.608	1290.8352	1301.7206	1363.5177	1410.8769	1429.0251	1474.4206	1490.5095	1503.8698	1565.4358	1675.22	3038.5011	3093.874	3114.1018	3123.0378	3156.0012	3204.6294	3274.5346	3499.63
CC1=C(OC=N1)C1CN1	Cc1c(ocn1)[C@H]1CN1	
InChI=1S/C6H8N2O/c1-4-6(5-2-7-5)9-3-8-4/h3,5,7H,2H2,1H3	InChI=1S/C6H8N2O/c1-4-6(5-2-7-5)9-3-8-4/h3,5,7H,2H2,1H3/t5-/m1/s1
