21
gdb 63160	2.97979	1.29466	1.18828	1.1057	84.25	-0.2186	0.021	0.2396	1155.5218	0.183331	-387.092574	-387.083999	-387.083055	-387.12516	34.318	
C	-0.1347759873	 1.5870850204	 0.0533064364	-0.456366
C	-0.0106365592	 0.0832778096	-0.0032204964	 0.387235
O	-1.1535868864	-0.5956067145	 0.4580189671	-0.467201
C	 0.6610146084	-0.6482820885	-1.1345457289	-0.081336
C	 1.3656420583	 0.0797266299	-2.2772739042	-0.239609
C	 2.9009158766	 0.0875396035	-2.1218293731	-0.245271
C	 3.3355894857	 0.4169012004	-0.7127882443	-0.057958
C	 2.6091091762	 0.087756539	 0.3579910997	-0.077328
C	 1.3179117769	-0.6298455828	 0.2388680522	-0.148816
H	 0.7927083655	 2.0860373654	-0.2329939538	 0.128321
H	-0.9422799943	 1.9346742504	-0.5997346876	 0.122882
H	-0.3731051626	 1.9052536447	 1.0762944312	 0.102411
H	-1.2708286795	-0.3738225279	 1.3888768979	 0.276101
H	 0.1631317468	-1.5756676169	-1.396775658	 0.093015
H	 1.0938110448	-0.3866966197	-3.2295964141	 0.097835
H	 1.0175691653	 1.1162697947	-2.339650408	 0.103994
H	 3.3080998789	-0.8951699945	-2.4022611929	 0.111353
H	 3.339552884	 0.8008900975	-2.8285695314	 0.097675
H	 4.2896827626	 0.9223416458	-0.5865139883	 0.084619
H	 2.9651227881	 0.3315914177	 1.3567184917	 0.080806
H	 1.2176251713	-1.5350626242	 0.8328663147	 0.087637
107.5515	170.991	213.5321	241.4338	281.73	330.4251	366.3726	389.6533	468.8897	486.3454	502.3824	545.9873	695.2307	735.7603	757.7143	802.0951	867.4899	884.1596	958.5376	973.158	978.2016	988.264	999.3905	1031.9261	1072.6513	1091.3363	1098.0744	1128.5022	1174.8465	1211.0534	1220.5346	1267.2943	1286.1092	1319.2887	1337.0147	1348.3695	1382.9333	1415.8436	1419.5485	1442.4451	1479.1176	1487.1693	1501.6799	1505.1201	1705.0702	2999.3807	3023.9725	3040.041	3057.2757	3077.4302	3083.3303	3130.1649	3133.6933	3139.7018	3163.7265	3165.7068	3787.3679
CC1(O)C2CCC=CC12	C[C@@]1(O)[C@H]2CCC=C[C@@H]12	
InChI=1S/C8H12O/c1-8(9)6-4-2-3-5-7(6)8/h2,4,6-7,9H,3,5H2,1H3	InChI=1S/C8H12O/c1-8(9)6-4-2-3-5-7(6)8/h2,4,6-7,9H,3,5H2,1H3/t6-,7+,8+/m1/s1
