20
gdb 96407	2.55913	1.41681	0.96944	4.2315	80.69	-0.2292	0.0268	0.256	1220.4778	0.173487	-399.330603	-399.322048	-399.321104	-399.363572	32.812	
C	-0.0539765372	 1.4889601782	-0.0107189965	-0.336859
N	-0.0085004186	 0.0321915091	 0.0073957909	-0.074527
C	-1.3504381677	-0.5440313371	-0.0822215342	-0.138343
C	-1.2904900985	-2.071544988	-0.1479572506	-0.176097
N	-0.5539971683	-2.6601113181	 0.9703581889	-0.285065
C	 0.757060074	-2.0521876823	 1.1083656918	-0.176212
C	 0.7075744559	-0.4980363908	 1.169700339	-0.10038
C	 2.0788367183	 0.0230788207	 1.2319944651	 0.284186
N	 3.1720689344	 0.3897281198	 1.3094660953	-0.332142
H	 0.9595571533	 1.8971522027	-0.0067122479	 0.150055
H	-0.552725263	 1.8199376236	-0.9261052734	 0.124865
H	-0.6028835038	 1.9128958551	 0.8511765939	 0.096686
H	-1.9775657403	-0.2385871392	 0.7818088199	 0.071111
H	-1.8290834534	-0.1439431503	-0.9828454007	 0.107448
H	-2.3027310311	-2.4866787856	-0.1674725177	 0.105756
H	-0.789823692	-2.3708365576	-1.0768131655	 0.119095
H	-1.0829075361	-2.5412299755	 1.8300416754	 0.217605
H	 1.2494850716	-2.4320135907	 2.0074670265	 0.121325
H	 1.3684972561	-2.333668078	 0.2438653003	 0.131796
H	 0.2082992863	-0.2072914259	 2.1184547096	 0.089697
98.5637	153.7916	175.8523	241.8192	279.4257	325.0378	355.5613	387.8633	422.3509	468.038	544.1128	557.9436	593.4128	778.1084	793.3748	860.4072	909.0267	970.3621	1003.7028	1007.4559	1064.7768	1083.3158	1118.2595	1148.0826	1170.0377	1183.9783	1204.1648	1261.073	1298.5414	1313.0289	1344.9693	1361.0119	1371.3618	1398.8213	1401.0425	1463.1954	1471.8355	1483.1876	1486.9971	1492.245	1500.3625	1506.3565	2356.4213	2873.8372	2887.0284	2936.4143	3035.5088	3048.8505	3062.3141	3077.527	3090.6055	3105.5867	3124.8444	3500.2343
CN1CCNCC1C#N	CN1CCNC[C@H]1C#N	
InChI=1S/C6H11N3/c1-9-3-2-8-5-6(9)4-7/h6,8H,2-3,5H2,1H3	InChI=1S/C6H11N3/c1-9-3-2-8-5-6(9)4-7/h6,8H,2-3,5H2,1H3/t6-/m1/s1
