16
gdb 75972	2.25631	1.93891	1.08813	2.6141	66.51	-0.2713	-0.0207	0.2506	1056.5863	0.125462	-475.108913	-475.100766	-475.099821	-475.142126	29.355	
C	-0.0048564813	 1.4544802608	-0.0480589045	-0.339579
N	-0.0229421924	-0.0123784089	-0.0698674455	-0.217559
C	-1.2558069606	-0.6711280014	-0.0595860615	 0.417559
O	-2.3069489545	-0.0742255282	-0.0927789891	-0.34655
C	-1.1512142186	-2.1809761728	 0.0121730477	-0.332357
C	 0.1353879045	-2.6459512615	-0.6407564255	-0.09818
O	 1.2593772094	-1.9823880735	-0.0480391668	-0.238531
C	 1.2236641361	-0.6411723998	 0.0899138914	 0.489256
O	 2.2198924726	-0.0203215583	 0.3411271112	-0.360429
H	 0.7175534068	 1.820353921	-0.7782488203	 0.149555
H	-1.0084821284	 1.7966550518	-0.2899292384	 0.164525
H	 0.287368375	 1.8186842093	 0.9397146332	 0.149476
H	-1.1679325139	-2.4786247594	 1.0675834146	 0.149591
H	-2.0336856462	-2.6067794685	-0.4690764211	 0.147057
H	 0.3157838823	-3.7113255323	-0.4905435955	 0.138078
H	 0.1268967291	-2.4434835783	-1.7192212297	 0.128087
84.373	109.8681	121.9381	207.2898	278.3814	346.1327	395.408	473.0504	481.4301	584.6784	602.0002	692.1555	716.5808	777.3414	897.6611	952.0893	972.8617	1080.6118	1085.7257	1130.2765	1157.2099	1162.5097	1224.0888	1271.617	1303.8426	1349.9113	1380.8419	1424.2465	1450.7837	1457.2057	1492.8657	1508.723	1514.6521	1799.2664	1851.4709	3033.1567	3051.3681	3069.8265	3122.6017	3126.2521	3139.8062	3189.567
CN1C(=O)CCOC1=O	CN1C(=O)CCOC1=O	
InChI=1S/C5H7NO3/c1-6-4(7)2-3-9-5(6)8/h2-3H2,1H3	InChI=1S/C5H7NO3/c1-6-4(7)2-3-9-5(6)8/h2-3H2,1H3
