15
gdb 20961	7.43886	1.16616	1.02099	1.7452	63.79	-0.2492	0.0002	0.2494	1118.2572	0.118981	-399.791933	-399.78456	-399.783616	-399.824189	26.414	
C	-0.076432987	 1.5092298014	 0.0114491905	-0.393467
C	-0.0004519002	-0.0045828949	 0.0033252801	-0.0453
O	-1.3499679366	-0.5069995961	 0.0115949053	-0.270459
C	-1.4842452446	-1.8336705591	 0.0065719051	 0.487683
N	-0.4647417601	-2.6647994553	-0.0055881249	-0.242186
O	-1.0416064006	-3.9395474095	-0.0067708328	-0.183727
C	-2.3759654346	-3.8124375981	 0.0047015023	 0.10023
C	-2.7418228174	-2.5092651269	 0.0136152787	-0.369159
H	 0.9335361152	 1.9297381244	 0.0053098877	 0.124414
H	-0.6095426352	 1.8772345714	-0.8695152577	 0.130902
H	-0.59512013	 1.8684684621	 0.9045561755	 0.130898
H	 0.5147929654	-0.3850285182	-0.8859328787	 0.125279
H	 0.5288898655	-0.3938365147	 0.8804015603	 0.125292
H	-2.9336844705	-4.7365262953	 0.0049962435	 0.152425
H	-3.7274444295	-2.0777054012	 0.0235862449	 0.127176
66.1223	112.3851	162.6924	250.4869	344.2437	352.5356	461.3873	594.1983	724.2578	739.2746	789.9269	813.438	872.2497	904.7586	915.754	946.9836	1028.22	1056.1828	1093.9464	1135.5417	1169.7726	1182.6813	1292.024	1323.3941	1390.9271	1416.3221	1457.3408	1485.1037	1497.716	1513.3321	1541.2642	1625.8644	3037.3197	3047.4784	3075.5408	3122.4284	3126.9443	3260.8742	3295.7518
CCOC1=NOC=C1	CCOc1nocc1	
InChI=1S/C5H7NO2/c1-2-7-5-3-4-8-6-5/h3-4H,2H2,1H3	InChI=1S/C5H7NO2/c1-2-7-5-3-4-8-6-5/h3-4H,2H2,1H3
