15
gdb 19540	4.57837	1.78614	1.69956	1.867	73.37	-0.2326	0.0191	0.2516	810.9969	0.119633	-325.413598	-325.407231	-325.406286	-325.443847	25.545	
C	-0.0303507915	-1.1943522066	 0.0011443439	-0.36463
C	-0.0320713196	 0.010012873	 0.004461712	 0.016915
C	-0.0334721287	 1.4166031954	 0.0090944903	 0.349574
C	-0.7755646748	 2.482483371	 0.7897395968	-0.137258
C	 0.5649410964	 3.0773026362	 1.1788369709	-0.177054
N	 1.2017086596	 2.3768071408	-0.0054096481	-0.207526
C	 0.5314303761	 3.0849401943	-1.1663929959	-0.177052
C	-0.7974758097	 2.4875033423	-0.7430203528	-0.137251
H	-0.0252401646	-2.2559560393	-0.0020929504	 0.183367
H	-1.6805035771	 2.3509351037	 1.3691699593	 0.105995
H	 0.6931940103	 4.1653582243	 1.1811023021	 0.10087
H	 0.9615504143	 2.6539113998	 2.1044182091	 0.1186
H	 0.6596834659	 4.172997229	-1.1652398938	 0.100862
H	 0.901382749	 2.667612882	-2.1056655126	 0.118598
H	-1.7186206154	 2.3596725341	-1.2971957005	 0.105992
140.6543	167.4322	399.6858	432.2148	500.905	528.9198	563.24	566.6198	681.5164	731.6562	774.6647	816.2502	882.1573	907.5837	915.3582	924.4593	969.4373	1007.3155	1009.7301	1084.5412	1088.4688	1098.012	1161.1162	1187.8498	1233.8289	1260.1765	1299.6463	1301.8234	1417.1743	1501.6174	1523.2179	2229.0207	3037.7196	3046.5919	3108.0287	3111.1446	3195.5084	3204.9208	3502.8032
C#CC12C3CN1CC23	C#C[C@@]12[C@H]3CN1C[C@@H]23	
InChI=1S/C7H7N/c1-2-7-5-3-8(7)4-6(5)7/h1,5-6H,3-4H2	InChI=1S/C7H7N/c1-2-7-5-3-8(7)4-6(5)7/h1,5-6H,3-4H2/t5-,6+,7-
