16
gdb 28646	5.6287	0.98545	0.83921	2.7133	94.24	-0.1972	-0.0098	0.1874	1314.2761	0.125676	-363.653576	-363.645621	-363.644677	-363.685645	31.512	
N	-0.0165592194	 1.4214323788	 0.1304670267	-0.590924
C	 0.0018170185	 0.0334820533	 0.0455765715	 0.318117
C	-1.1934782397	-0.7020682075	 0.0386573252	-0.168498
C	-1.1729150682	-2.0865430784	 0.0130261525	-0.186587
C	 0.0399631526	-2.7949443277	-0.0077438133	 0.136019
C	 1.2332933927	-2.0538264932	-0.0010210975	-0.186587
C	 1.2165061038	-0.6693005081	 0.0245866747	-0.168499
C	 0.0591284911	-4.2170417841	-0.0368228357	 0.219734
C	 0.0753655496	-5.4219396752	-0.0618520456	-0.432675
H	 0.811880177	 1.8874309164	-0.2083187803	 0.249404
H	-0.861248139	 1.8646846011	-0.1985775835	 0.249405
H	-2.1436585035	-0.1763245736	 0.056708435	 0.085035
H	-2.1059271955	-2.6388114621	 0.0059122379	 0.102907
H	 2.1808287301	-2.5805256504	-0.0191141433	 0.102907
H	 2.1521871618	-0.1179146556	 0.0316257702	 0.085035
H	 0.0896548582	-6.4829955238	-0.0839675945	 0.185207
103.5107	145.3967	253.2294	319.5363	376.2834	412.5949	422.8079	453.5979	527.9941	532.1864	555.0547	579.5945	639.6888	659.7968	720.1139	744.9262	831.3311	844.0307	851.2961	936.0235	959.1266	1024.4415	1079.834	1150.9776	1198.6282	1234.2063	1316.335	1320.5686	1354.8664	1462.781	1545.6364	1599.3751	1648.5192	1664.229	2221.2088	3166.3148	3166.9343	3196.9171	3198.601	3505.2917	3570.2077	3671.1808
NC1=CC=C(C=C1)C#C	Nc1ccc(cc1)C#C	
InChI=1S/C8H7N/c1-2-7-3-5-8(9)6-4-7/h1,3-6H,9H2	InChI=1S/C8H7N/c1-2-7-3-5-8(9)6-4-7/h1,3-6H,9H2
