23
gdb 109670	1.96945	1.22216	1.15842	2.3818	82.28	-0.2275	0.0752	0.3027	1308.7043	0.202818	-425.401137	-425.390198	-425.389254	-425.436689	40.029	
C	-0.3302878487	 1.2043100106	-0.0805773472	-0.386973
C	 0.3214543036	-0.1853456519	-0.0810203176	-0.236989
C	 0.877953828	-0.5926899285	 1.2748061248	 0.253966
C	 2.1187830444	 0.14526262	 1.7405666012	-0.462823
C	-0.1126522743	-1.0124690517	 2.3552597785	 0.0531
O	-1.4798825289	-1.0660388554	 2.0774093529	-0.433594
C	 0.7693354223	-2.0510464859	 1.7218835909	-0.019498
O	 0.0578485666	-2.9785947149	 0.9598525598	-0.253047
C	 0.8407206391	-3.6431304666	-0.0159139797	-0.235918
H	 0.3776286104	 1.9878033838	 0.2084510139	 0.109864
H	-0.7073330126	 1.4553950305	-1.0772658492	 0.105303
H	-1.1702468214	 1.2263461561	 0.618604319	 0.139472
H	-0.4191167449	-0.9215868623	-0.4042686272	 0.100746
H	 1.1331257429	-0.2132187675	-0.8208828964	 0.085112
H	 1.9349998393	 1.2210877079	 1.833645258	 0.123076
H	 2.4520784701	-0.2122038117	 2.7208427453	 0.111685
H	 2.9497808448	 0.0055427603	 1.0384828061	 0.112695
H	 0.0883516792	-0.7085286202	 3.3801702862	 0.090444
H	-1.6343745973	-1.900295121	 1.6154161681	 0.29899
H	 1.5981975931	-2.4827410797	 2.2856860247	 0.081754
H	 1.6696868042	-4.1935573053	 0.451533405	 0.113466
H	 0.1850787755	-4.3530862605	-0.5252431369	 0.130154
H	 1.2549608246	-2.940006676	-0.7497488601	 0.119015
85.1763	105.7605	139.053	152.0188	195.7531	202.7168	219.1119	257.7615	283.5282	284.0453	345.6057	375.0044	396.1229	519.8702	587.478	628.5186	703.6353	786.1958	821.1474	855.5558	953.9039	1003.058	1024.2982	1034.6183	1059.5096	1077.5531	1113.1155	1130.013	1165.6598	1183.0678	1197.5507	1222.2316	1251.772	1304.4167	1314.6049	1339.8542	1373.376	1383.7939	1401.6137	1416.9114	1452.4903	1479.8235	1486.7875	1488.17	1494.1225	1500.1421	1504.1579	1507.7776	1511.0195	2997.2913	3012.4551	3020.7628	3037.73	3057.134	3079.2087	3083.1686	3085.4534	3092.6398	3103.4644	3122.4101	3124.3386	3127.7727	3763.3933
CCC1(C)C(O)C1OC	CC[C@@]1(C)[C@@H](O)[C@H]1OC	
InChI=1S/C7H14O2/c1-4-7(2)5(8)6(7)9-3/h5-6,8H,4H2,1-3H3	InChI=1S/C7H14O2/c1-4-7(2)5(8)6(7)9-3/h5-6,8H,4H2,1-3H3/t5-,6+,7-/m0/s1
