17
gdb 62402	3.16157	1.52374	1.31254	2.6	72.38	-0.253	0.0086	0.2616	992.4794	0.137897	-417.990609	-417.982996	-417.982052	-418.022364	29.985	
O	-0.0034911713	 1.4519875449	-0.0867848988	-0.477183
C	 0.0079669159	 0.0525942367	 0.0097726171	 0.318834
C	 0.9338713416	-0.5379470496	-0.9652364229	 0.208315
N	 1.6994070727	-0.952981431	-1.7265173523	-0.338712
C	 0.076474312	-0.673615224	 1.4059001679	-0.079681
C	-0.9747106103	 0.0981639344	 2.2168455124	-0.205734
C	-2.1166866604	 0.1111452462	 1.1487517301	-0.209213
C	-1.3836192834	-0.6497182628	 0.0325033694	-0.05473
N	-0.7669974688	-1.7771713908	 0.8231082635	-0.331474
H	 0.9028345361	 1.7790517044	-0.1132466773	 0.297265
H	 1.0230890931	-0.9409839278	 1.8744248559	 0.085999
H	-1.2433998573	-0.449458059	 3.1212728677	 0.114636
H	-0.6363654023	 1.100082354	 2.4854044468	 0.109011
H	-3.0013798004	-0.4416386255	 1.4679741231	 0.115017
H	-2.4052454765	 1.1179589596	 0.8450437365	 0.120933
H	-1.9172534495	-0.8907187561	-0.8855161831	 0.091636
H	-0.1867286913	-2.3359817636	 0.1963241041	 0.23508
140.0343	156.1074	257.5327	272.3228	274.2705	369.7294	446.5184	511.0679	548.063	566.3385	664.7487	718.3843	831.2455	838.2051	861.8173	904.6137	918.1092	935.8566	994.132	1004.481	1037.5796	1059.2208	1086.5953	1140.2454	1175.1214	1186.7632	1192.8034	1252.898	1254.5364	1291.2736	1294.9201	1327.9301	1356.215	1366.5854	1469.9269	1492.1896	2344.2816	3082.8065	3090.1993	3129.8177	3132.1999	3139.1193	3147.9087	3459.1625	3805.6924
OC1(C#N)C2CCC1N2	O[C@@]1(C#N)[C@H]2CC[C@@H]1N2	
InChI=1S/C6H8N2O/c7-3-6(9)4-1-2-5(6)8-4/h4-5,8-9H,1-2H2	InChI=1S/C6H8N2O/c7-3-6(9)4-1-2-5(6)8-4/h4-5,8-9H,1-2H2/t4-,5+,6+
