19
gdb 80099	2.22834	1.80001	1.4073	2.2584	75.39	-0.24	0.0079	0.2479	1004.568	0.160836	-423.018319	-423.010274	-423.00933	-423.050813	32.087	
O	-0.103274558	 1.3335402395	-0.2194221721	-0.427997
C	-0.0728648056	-0.0575756732	-0.0794449863	 0.085436
C	-0.4201104908	-0.7210737581	 1.2529240079	-0.143564
C	-0.8424033216	 0.1349010432	 2.3816751824	-0.071649
C	-1.9003386528	 0.9507706058	 2.318603017	-0.096851
C	-2.7802788141	 1.0709482516	 1.1040653988	-0.291053
C	-2.6901275161	-0.1015038694	 0.0944257913	 0.127418
O	-3.0584550476	 0.334363128	-1.2100126027	-0.443006
C	-1.3550385583	-0.8275912348	 0.0571717598	-0.112989
H	-0.1356858795	 1.7185981023	 0.6667151062	 0.292068
H	 0.7318397914	-0.5058024741	-0.6567284301	 0.102704
H	 0.1713243196	-1.592812452	 1.5132289923	 0.090632
H	-0.2353852747	 0.1009874919	 3.2821632177	 0.093959
H	-2.1478789171	 1.5776847426	 3.171564558	 0.093937
H	-3.8254420116	 1.1983919872	 1.4076804102	 0.1116
H	-2.5238384343	 1.99030414	 0.560924388	 0.115155
H	-3.4532606386	-0.8394407548	 0.3647035847	 0.092772
H	-2.3451087824	 0.9116110319	-1.5088554181	 0.287521
H	-1.3962296879	-1.7875158475	-0.4489779649	 0.093907
60.071	185.4837	196.3363	316.2286	363.2592	383.1756	426.5676	442.9286	451.0909	518.4599	579.9724	717.2288	727.1824	743.8666	791.4974	811.4227	877.9885	936.0494	968.5974	980.1758	995.3941	1026.167	1060.3432	1068.608	1102.6803	1124.6501	1147.2046	1192.2862	1200.8756	1229.9039	1289.9506	1331.1969	1349.0374	1354.8662	1368.485	1383.8582	1423.6811	1435.8967	1437.6885	1472.1357	1702.1864	3019.282	3042.0801	3064.2672	3136.054	3147.5557	3151.5539	3161.8141	3175.6359	3739.8577	3785.9052
OC1C2C=CCC(O)C12	O[C@H]1[C@H]2C=CC[C@@H](O)[C@@H]12	
InChI=1S/C7H10O2/c8-5-3-1-2-4-6(5)7(4)9/h1-2,4-9H,3H2	InChI=1S/C7H10O2/c8-5-3-1-2-4-6(5)7(4)9/h1-2,4-9H,3H2/t4-,5+,6-,7-/m0/s1
