18
gdb 32072	2.84213	1.22457	0.87399	1.4878	82.04	-0.248	-0.0216	0.2264	1308.811	0.148643	-402.011831	-402.003142	-402.002198	-402.046131	31.651	
C	 0.2165331319	 1.4411760636	-0.0644113156	-0.465091
C	 0.1208936066	-0.0624175911	-0.0328157661	 0.336208
C	 0.1742976579	-0.8217419505	-1.2041072156	-0.24485
C	 0.0829489639	-2.2104785705	-1.135315044	 0.245699
C	 0.1134134263	-3.06265277	-2.388072376	-0.152698
O	 0.7411736943	-2.4421241374	-3.4942444014	-0.403098
C	-0.0568998883	-2.7870528014	 0.1259383928	-0.213087
C	-0.1047803023	-1.9528325366	 1.2376837323	 0.00083
N	-0.0178353366	-0.6233576945	 1.1776251469	-0.325881
H	 1.0733303646	 1.7804972406	 0.5266343642	 0.138598
H	 0.3218619871	 1.8200045649	-1.0838216009	 0.116947
H	-0.6758344669	 1.8880546903	 0.3853286362	 0.140174
H	 0.2854188925	-0.340189876	-2.1688781226	 0.105613
H	 0.5686759901	-4.0378554259	-2.1557106937	 0.101526
H	-0.9137764034	-3.2668116332	-2.7142854212	 0.135513
H	 1.659144362	-2.2747154642	-3.2554288083	 0.286574
H	-0.1232173748	-3.8639978443	 0.2462315665	 0.091504
H	-0.2124907749	-2.3788604039	 2.2331316464	 0.10552
51.3068	62.9595	160.5075	198.8176	218.2261	335.3628	361.9262	431.6741	453.3147	535.5569	559.2487	609.9303	754.9553	768.4468	844.3658	924.998	939.5688	984.3946	996.5617	1007.4255	1020.2455	1062.3553	1078.4784	1133.6398	1174.8616	1209.4872	1276.3098	1291.0124	1322.4785	1377.4502	1407.2021	1411.9623	1435.6548	1476.1905	1488.0915	1491.0655	1514.1022	1604.6117	1639.8798	2985.3524	3040.8986	3051.0629	3100.9293	3125.6239	3144.9695	3177.4261	3196.7239	3808.9584
CC1=CC(CO)=CC=N1	Cc1cc(CO)ccn1	
InChI=1S/C7H9NO/c1-6-4-7(5-9)2-3-8-6/h2-4,9H,5H2,1H3	InChI=1S/C7H9NO/c1-6-4-7(5-9)2-3-8-6/h2-4,9H,5H2,1H3
