16
gdb 66395	2.27609	1.57077	1.30821	3.3334	75.89	-0.2439	-0.0028	0.2411	1047.45	0.122705	-400.711205	-400.702682	-400.701738	-400.744217	31.938	
C	-0.0218036492	 1.6097900886	-0.031572745	-0.502661
C	 0.0766506528	 0.1146836451	-0.0310410612	 0.14357
C	 0.6920075085	-0.8830321928	-0.9919282686	-0.060671
N	 1.2660731066	-1.629185806	 0.1256624866	-0.344714
C	 0.6547472213	-0.7740805701	 1.0722279212	 0.372314
O	 0.6423129321	-0.7823300627	 2.2675947861	-0.330455
C	-0.8179343819	-0.8045288732	-0.9035921401	-0.27806
C	-1.6201705013	-1.8732893872	-0.382778657	 0.319526
C	-2.2820556741	-2.7792975989	 0.050303413	-0.424608
H	 0.9379563874	 2.0653058965	 0.2321138876	 0.138821
H	-0.3210687033	 1.990145931	-1.0129695669	 0.125291
H	-0.7636442545	 1.9451877493	 0.7002063573	 0.147334
H	 1.2568504236	-0.7054052118	-1.8980142114	 0.119863
H	 1.1922427208	-2.6384378567	 0.2008001073	 0.248591
H	-1.2760625357	-0.2463865683	-1.7190576412	 0.12268
H	-2.8735478629	-3.5697534831	 0.4416288823	 0.20318
102.4846	127.0914	156.195	193.5622	245.3822	288.6377	364.4436	477.3222	499.8274	570.3269	606.0082	648.5823	666.4229	684.6123	745.5247	768.0929	828.0849	868.0402	909.8999	964.8868	1006.2257	1051.9616	1093.8332	1103.1445	1137.1829	1240.5224	1258.1636	1322.9475	1338.1688	1415.1659	1440.7625	1483.7694	1494.7155	1904.6323	2236.2758	3036.8474	3104.7973	3108.0355	3123.315	3201.8161	3502.1092	3541.3582
CC12C(NC1=O)C2C#C	C[C@@]12[C@@H](NC1=O)[C@H]2C#C	
InChI=1S/C7H7NO/c1-3-4-5-7(4,2)6(9)8-5/h1,4-5H,2H3,(H,8,9)	InChI=1S/C7H7NO/c1-3-4-5-7(4,2)6(9)8-5/h1,4-5H,2H3,(H,8,9)/t4-,5+,7-/m1/s1
