19
gdb 68058	1.99295	1.79724	1.13207	1.8638	82.63	-0.2497	0.0475	0.2972	1130.9776	0.157146	-385.815852	-385.806891	-385.805947	-385.848841	35.106	
C	-0.0215863961	 1.4481959228	 0.0366766157	-0.509545
C	 0.0423635261	-0.0522352367	 0.0102634895	 0.328269
C	 0.6136014045	-0.9668954528	-1.1149374653	-0.334352
C	 0.0809038881	-1.9270518111	-0.0076526557	 0.395051
O	 0.0125679518	-3.3042442882	-0.020014418	-0.46731
C	 0.7461566027	-0.9890336433	 1.0426996158	-0.343645
C	-1.1944580201	-1.034865139	 0.0576834888	-0.246699
C	-2.0434313987	-1.0516267081	 1.2296482275	 0.310417
C	-2.7710573672	-1.0438025174	 2.1878789899	-0.446477
H	 0.9833327038	 1.88368419	 0.0254788363	 0.120599
H	-0.5660712934	 1.8356005436	-0.8310892344	 0.12109
H	-0.5324005451	 1.7977801525	 0.9398510477	 0.13211
H	 0.0806735432	-0.9686815894	-2.0700311805	 0.092419
H	 1.6979355525	-0.9353913345	-1.2529837043	 0.085312
H	 0.9087790749	-3.6557571635	 0.0137719324	 0.284653
H	 1.8399578527	-0.9580721507	 1.0467769575	 0.082375
H	 0.3319771479	-1.0079918728	 2.0519072991	 0.113339
H	-1.7911032579	-1.0438216497	-0.8604500566	 0.092175
H	-3.4117166795	-1.0506318017	 3.0345738246	 0.190218
110.7402	164.4988	199.4871	216.8477	234.6321	251.9475	353.7892	401.1982	444.5315	513.8691	529.6828	593.1989	610.8744	615.3743	640.0932	678.988	742.8532	810.5632	895.5602	946.8255	968.221	1016.1791	1029.5513	1052.0894	1097.4518	1110.9064	1123.427	1127.9296	1142.1623	1189.4132	1197.0053	1283.4135	1328.316	1353.6187	1397.6654	1414.8936	1488.2602	1492.1125	1492.4685	1544.2529	2229.3768	3029.7555	3046.0842	3050.9468	3057.397	3096.9037	3101.3435	3115.2458	3133.0016	3503.3075	3810.8705
CC12CC(O)(C1)C2C#C	C[C@@]12C[C@@](O)(C1)[C@H]2C#C	
InChI=1S/C8H10O/c1-3-6-7(2)4-8(6,9)5-7/h1,6,9H,4-5H2,2H3	InChI=1S/C8H10O/c1-3-6-7(2)4-8(6,9)5-7/h1,6,9H,4-5H2,2H3/t6-,7-,8-/m0/s1
