15
gdb 125235	3.29104	1.39006	0.9836	1.621	73.7	-0.2328	-0.0497	0.183	1142.0922	0.112226	-453.962643	-453.954359	-453.953414	-453.995469	30.839	
C	 0.0180332785	 1.5082755654	 0.0507775617	-0.468897
C	-0.0414786099	 0.0128179619	 0.0296707508	 0.429719
C	-1.1650334911	-0.7284073776	-0.1564560554	-0.357164
C	-1.077597457	-2.1552691676	-0.1534105406	 0.367202
O	-1.9844142113	-2.9611117349	-0.3316071867	-0.390458
C	 0.3161507156	-2.6503109957	 0.0912742528	 0.301802
N	 0.421727996	-3.9969137038	 0.1559232353	-0.54194
N	 1.3748713058	-1.909222103	 0.2458277314	-0.199096
O	 1.1666203657	-0.5218673073	 0.2155957248	-0.264472
H	 0.6966177596	 1.8733061071	-0.7264904289	 0.156256
H	-0.9735623189	 1.9321830545	-0.1127923635	 0.143676
H	 0.4030985369	 1.8599572885	 1.0131338342	 0.156782
H	-2.121913689	-0.2481677005	-0.313048065	 0.120134
H	-0.3992394093	-4.4987858467	-0.1479989823	 0.278529
H	 1.3267183683	-4.4328403002	 0.1188335313	 0.267928
98.3006	115.5879	179.5546	280.4665	305.6229	330.6844	340.304	463.6986	466.8315	516.8054	550.6179	585.7479	605.3618	700.1142	792.8618	799.5598	873.0675	906.8814	1015.0735	1042.5274	1062.2444	1141.8615	1191.8431	1247.8634	1384.5735	1411.6947	1455.5901	1469.7642	1482.3276	1578.605	1640.2451	1643.7903	1745.8971	3047.7053	3108.162	3148.7769	3220.2988	3583.6914	3727.0824
CC1=CC(=O)C(N)=NO1	Cc1cc(=O)c(N)no1	
InChI=1S/C5H6N2O2/c1-3-2-4(8)5(6)7-9-3/h2H,1H3,(H2,6,7)	InChI=1S/C5H6N2O2/c1-3-2-4(8)5(6)7-9-3/h2H,1H3,(H2,6,7)
