19
gdb 41265	3.49677	1.88649	1.5117	1.5859	78.26	-0.2098	0.0691	0.2789	910.4799	0.162294	-381.965187	-381.958815	-381.957871	-381.995466	27.354	
C	-0.0144579182	 1.371052774	-0.282813443	-0.17906
C	 1.4461714053	 1.6118949214	 0.1913270558	-0.353258
C	 1.2951586697	 0.2757142738	 0.9049969859	 0.357554
C	 2.1514104254	-0.9128001051	 1.3333529089	-0.26258
N	 1.0867092992	-1.3475057374	 2.3155176278	-0.159298
C	-0.0997082086	-1.9483692312	 1.5984503629	-0.168408
C	-0.6482566754	-0.5649455934	 1.1981624857	-0.023402
C	 0.4227992989	 0.0227159401	 2.1698341508	-0.066783
N	 0.1187924643	-0.098941758	 0.0063457967	-0.146494
H	-0.7500294374	 1.876067335	 0.3571663805	 0.098935
H	-0.2511478596	 1.5842130206	-1.3278260446	 0.108405
H	 2.1596436749	 1.5591013062	-0.6359320704	 0.116458
H	 1.6584188836	 2.4950685682	 0.7970876855	 0.106079
H	 2.4093760951	-1.6447538295	 0.5618430244	 0.109304
H	 3.0530826538	-0.6320460295	 1.8886695389	 0.107745
H	 0.1442155991	-2.6311205899	 0.7792342444	 0.109171
H	-0.7320241378	-2.4620987467	 2.3293095193	 0.107371
H	-1.7239267762	-0.3748472327	 1.1888265056	 0.067495
H	 0.3035845741	 0.655124734	 3.0502560648	 0.070765
203.9105	259.6192	344.5857	360.6565	432.2224	506.5166	622.0068	698.6865	732.4218	764.0145	817.1026	839.8058	865.8546	873.8711	903.0632	913.138	938.9451	953.8289	982.9573	1004.4789	1057.8899	1073.2178	1122.782	1137.4021	1164.2128	1170.4591	1193.1083	1198.8449	1201.9649	1212.3369	1221.01	1242.7961	1269.4454	1283.1442	1308.2178	1310.8453	1353.2063	1477.6027	1478.6487	1491.1846	1507.947	3016.5035	3034.6832	3042.5229	3061.6426	3079.5732	3092.5522	3093.3985	3101.2588	3102.506	3120.2116
C1CC23CN4CC(C24)N13	C1C[C@@]23CN4C[C@@H]([C@H]24)N13	
InChI=1S/C7H10N2/c1-2-9-5-3-8-4-7(1,9)6(5)8/h5-6H,1-4H2	InChI=1S/C7H10N2/c1-2-9-5-3-8-4-7(1,9)6(5)8/h5-6H,1-4H2/t5-,6+,7+/m0/s1
