17
gdb 69247	2.75018	1.57819	1.19251	2.795	74.11	-0.2417	-0.0319	0.2098	1059.6806	0.135275	-421.844054	-421.83615	-421.835206	-421.87633	30.536	
C	-0.0060587746	 1.5230999767	 0.0230336664	-0.480285
C	 0.0727963762	 0.017186419	-0.0226019101	 0.363129
O	-0.7233162689	-0.6688272858	 0.9611965683	-0.281267
C	 0.6994939243	-0.7275970428	 1.1061686425	-0.130486
C	 1.3571604083	-2.0394533231	 0.8014894146	 0.396467
O	 2.3176327512	-2.4232237027	 1.428756644	-0.314451
C	 0.76971166	-2.8135345936	-0.3728289397	-0.383536
C	 0.3799378862	-1.9210263009	-1.5244708749	-0.091482
C	 0.085066351	-0.6315724222	-1.3665541635	-0.080924
H	 0.8526661079	 1.9697487361	-0.4885556353	 0.132931
H	-0.9157773339	 1.8702477275	-0.4788329471	 0.133862
H	-0.0264926479	 1.8787593577	 1.055264923	 0.136273
H	 1.1185293933	-0.1853344732	 1.9516973996	 0.104886
H	 1.4916602111	-3.5782955222	-0.6698829112	 0.134696
H	-0.1231104607	-3.342613584	-0.0064005699	 0.155347
H	 0.3347186827	-2.3770495583	-2.5090845986	 0.109498
H	-0.1880247762	-0.0134290282	-2.2164143681	 0.095341
100.7139	148.0397	204.145	268.6521	316.7468	356.9915	441.7613	471.1919	491.9978	573.4244	594.4947	666.1517	717.3334	757.7214	825.1126	890.6858	912.5606	958.3428	982.1614	990.4191	1037.2389	1063.7607	1096.9753	1168.6617	1187.2436	1225.0975	1261.9458	1292.4191	1325.2545	1405.9849	1413.7938	1421.9118	1439.0671	1482.273	1494.729	1713.3212	1809.0357	3008.2084	3038.5506	3100.4141	3102.6488	3132.6049	3139.5086	3163.848	3185.5652
CC12OC1C(=O)CC=C2	C[C@]12O[C@H]1C(=O)CC=C2	
InChI=1S/C7H8O2/c1-7-4-2-3-5(8)6(7)9-7/h2,4,6H,3H2,1H3	InChI=1S/C7H8O2/c1-7-4-2-3-5(8)6(7)9-7/h2,4,6H,3H2,1H3/t6-,7+/m0/s1
