17
gdb 85291	2.48577	1.61052	1.18674	5.0312	68.27	-0.2609	0.0084	0.2693	1058.4927	0.135298	-458.995793	-458.987569	-458.986624	-459.0283	31.498	
C	 0.0983970707	 1.5411906681	-0.039851744	-0.411696
C	 0.0097294204	 0.0288019668	 0.0715788737	 0.067362
O	 0.5666235913	-0.580659964	-1.111365589	-0.245855
C	 1.2884345417	-1.7085907701	-0.8139347371	 0.450549
O	 1.6424989415	-2.477372375	-1.6586066049	-0.342612
C	 1.5226830307	-1.7571465161	 0.6618702428	-0.251911
C	 2.2412798239	-0.5322417596	 1.2290547619	-0.356796
C	 0.748541299	-0.6108283235	 1.2483932082	 0.377242
O	 0.0437926857	-0.7535089878	 2.4366888151	-0.465599
H	 1.1383486576	 1.8734609786	-0.1014088654	 0.127368
H	-0.4295756136	 1.8916924204	-0.9301449806	 0.140361
H	-0.36630352	 2.0053679742	 0.8363847206	 0.118298
H	-1.0413234277	-0.2796624232	 0.1434600072	 0.105249
H	 1.644669525	-2.7167708638	 1.1438042607	 0.129692
H	 2.7426109435	-0.7025819175	 2.1752846456	 0.130537
H	 2.7506873525	 0.1428140826	 0.5492900141	 0.134763
H	 0.1851342681	 0.0347706401	 2.971713501	 0.293049
125.8568	147.3152	225.6705	239.2075	253.2004	307.0905	347.9077	405.2703	504.4994	519.5524	579.6147	673.7221	690.3201	762.1999	802.71	892.626	925.0923	943.9239	980.8591	983.4788	1055.6323	1065.8198	1088.1167	1111.1059	1129.9931	1183.7571	1219.986	1292.8073	1323.7978	1341.7634	1383.0699	1409.5521	1413.7601	1483.481	1487.1575	1498.0307	1885.0879	3028.6963	3043.6344	3115.4036	3128.597	3132.1136	3221.5024	3228.6053	3807.3228
CC1OC(=O)C2CC12O	C[C@H]1OC(=O)[C@H]2C[C@@]12O	
InChI=1S/C6H8O3/c1-3-6(8)2-4(6)5(7)9-3/h3-4,8H,2H2,1H3	InChI=1S/C6H8O3/c1-3-6(8)2-4(6)5(7)9-3/h3-4,8H,2H2,1H3/t3-,4-,6-/m1/s1
