16
gdb 88275	3.30673	1.0858	0.93685	1.4527	68.5	-0.2459	-0.0695	0.1764	1245.3044	0.123325	-475.058074	-475.049296	-475.048352	-475.091936	32.665	
N	-0.1258616901	 1.2809118436	-0.0334005212	-0.520755
C	 0.0378276171	-0.0585538501	 0.0006102219	 0.335397
O	 1.0995282824	-0.6513747533	-0.0320678443	-0.348889
C	-1.3117617887	-0.8050749786	 0.0950268068	 0.320786
O	-2.3587693624	-0.1638421647	 0.1235255077	-0.394523
C	-1.2452276907	-2.258254386	 0.0937031525	-0.193373
C	-2.3625708067	-3.0350368728	 0.8082142368	-0.328473
C	-2.4175700606	-2.9748667654	-0.664938113	 0.153839
O	-3.3611941861	-2.2456835979	-1.3484579003	-0.410762
H	 0.6760576463	 1.8837075968	-0.1020783112	 0.270239
H	-1.0598704224	 1.6570298017	-0.0117623878	 0.280055
H	-0.2538265944	-2.685558928	 0.0449976416	 0.133203
H	-2.0609245305	-3.9550073161	 1.2962555137	 0.131803
H	-3.0749444515	-2.4254290539	 1.3553853175	 0.137353
H	-2.1085128566	-3.8434318598	-1.2366199154	 0.128005
H	-3.4801338251	-1.4032204355	-0.8782101455	 0.306095
68.0931	74.0583	181.8241	206.0378	278.0216	324.042	372.0483	443.9607	454.9796	498.0239	533.1514	554.9875	627.1913	668.7266	684.996	783.3574	821.3644	864.4868	912.2415	999.6703	1055.942	1076.8164	1090.6186	1111.9636	1129.1604	1143.2522	1236.1184	1345.6147	1361.6374	1425.6749	1452.5129	1485.4414	1586.3685	1721.9506	1803.3834	3131.8551	3178.4591	3222.1303	3231.026	3598.1123	3654.5662	3739.7288
NC(=O)C(=O)C1CC1O	NC(=O)C(=O)[C@H]1C[C@H]1O	
InChI=1S/C5H7NO3/c6-5(9)4(8)2-1-3(2)7/h2-3,7H,1H2,(H2,6,9)	InChI=1S/C5H7NO3/c6-5(9)4(8)2-1-3(2)7/h2-3,7H,1H2,(H2,6,9)/t2-,3+/m0/s1
