17
gdb 91285	2.98447	1.51477	1.3269	5.4761	67.35	-0.2606	0.02	0.2807	998.6979	0.136965	-458.992321	-458.984758	-458.983814	-459.024707	29.131	
O	-0.4314466315	 1.2406341595	 0.9109069632	-0.418887
C	-0.0788103823	 0.1143922301	 0.1401629125	 0.079423
C	 0.5535788049	-1.0440412528	 0.9690928842	-0.277145
C	-0.841060659	-1.7204985972	 1.0749781615	-0.047937
C	-1.7359974812	-1.306087094	 2.2481074187	-0.377739
C	-2.8409225134	-0.434615274	 1.6396861655	 0.435786
O	-3.812372431	 0.0019209472	 2.1783448137	-0.330572
O	-2.5833343436	-0.2170004969	 0.3129425136	-0.202643
C	-1.34520761	-0.7834336378	-0.0579342081	 0.105221
H	 0.3797958478	 1.6606139102	 1.2144996306	 0.290247
H	 0.4490290471	 0.4012929254	-0.7783380308	 0.073128
H	 1.2605728863	-1.6395041217	 0.3851928693	 0.109095
H	 1.031307687	-0.7458291491	 1.9066831442	 0.101983
H	-0.8750127166	-2.7935937109	 0.8845587843	 0.083732
H	-2.1998103282	-2.1456859079	 2.7699889624	 0.138886
H	-1.2145651883	-0.7046399879	 2.9974911663	 0.142619
H	-1.434768428	-1.2084809622	-1.0581830111	 0.094803
80.2391	91.9854	277.8396	286.3249	313.7393	400.7833	480.5745	531.5039	554.6457	619.6406	715.8229	768.6218	817.6039	839.6975	860.2713	901.7485	930.5999	936.398	1034.0885	1057.9256	1109.5387	1124.5936	1132.8067	1150.1736	1175.7242	1207.0448	1234.3986	1250.8728	1269.1198	1297.499	1316.1402	1341.5462	1376.2529	1414.1189	1454.5532	1472.2454	1891.7332	3015.2048	3054.3997	3075.2138	3094.9926	3108.3566	3112.2506	3122.9893	3818.8573
OC1CC2CC(=O)OC12	O[C@H]1C[C@H]2CC(=O)O[C@@H]12	
InChI=1S/C6H8O3/c7-4-1-3-2-5(8)9-6(3)4/h3-4,6-7H,1-2H2	InChI=1S/C6H8O3/c7-4-1-3-2-5(8)9-6(3)4/h3-4,6-7H,1-2H2/t3-,4-,6+/m0/s1
