15
gdb 54227	2.32077	1.46984	1.34592	3.1404	61.84	-0.2651	-0.0499	0.2152	1029.1942	0.109426	-494.932603	-494.923499	-494.922555	-494.967106	31.758	
C	 0.0177856165	 1.5498242693	 0.1516631901	-0.483712
C	 0.0961768002	 0.0588023155	-0.0588853536	 0.366537
O	 1.1293795638	-0.5555400256	-0.1664371345	-0.291172
C	-1.2558913875	-0.6855781168	-0.0736876907	 0.105791
O	-2.2236080869	 0.1284318153	-0.6685465371	-0.464964
C	-1.1428419287	-2.1796608825	-0.4464933003	-0.122121
O	-1.341989645	-2.55105379	 0.964449326	-0.232987
C	-1.5739582227	-1.2634880362	 1.3365627397	 0.388415
O	-1.9387434309	-0.8356413996	 2.3836255414	-0.320203
H	 1.0242398884	 1.9558663512	 0.2527782604	 0.144321
H	-0.5024839368	 2.0197225197	-0.6878121952	 0.162884
H	-0.5755366097	 1.7656765924	 1.0470661685	 0.161068
H	-3.0962852768	-0.1111541069	-0.3383231913	 0.303053
H	-1.9615436743	-2.5551976543	-1.0624037453	 0.126365
H	-0.1661344497	-2.5068710917	-0.7978258081	 0.156725
48.67	111.2304	131.4138	154.4821	178.6073	271.0406	280.0389	356.8533	418.3636	486.6334	529.7466	623.3817	657.0561	724.3049	789.0992	872.5566	918.2267	962.8639	988.5532	1061.687	1087.3523	1125.3809	1160.3591	1208.7698	1247.3564	1337.9443	1358.1366	1383.1654	1457.5393	1464.6415	1492.5251	1817.546	1927.8358	3047.6431	3089.5159	3114.2211	3163.3839	3175.7389	3808.7376
CC(=O)C1(O)COC1=O	CC(=O)[C@@]1(O)COC1=O	
InChI=1S/C5H6O4/c1-3(6)5(8)2-9-4(5)7/h8H,2H2,1H3	InChI=1S/C5H6O4/c1-3(6)5(8)2-9-4(5)7/h8H,2H2,1H3/t5-/m0/s1
