16
gdb 84753	2.64145	1.58346	1.20357	1.4488	66.11	-0.274	-0.0341	0.2399	1038.9639	0.124133	-475.060463	-475.052208	-475.051264	-475.093359	30.512	
C	-0.0060187015	 1.6011222595	 0.00220488	-0.397785
C	 0.1069968935	 0.0777642457	-0.0557929856	 0.029404
N	 0.8513191096	-0.3248452385	-1.2509666305	-0.243317
C	 1.4567087805	-1.4234467142	-1.2237573579	 0.142178
O	 1.4908323082	-2.3529024345	-0.1973438055	-0.21545
C	 0.9938552226	-2.0042200661	 1.0358176676	 0.41942
O	 0.8840436531	-2.8372892496	 1.8864556086	-0.314293
C	 0.7234058502	-0.5133214765	 1.2162047162	-0.037855
O	 1.9716210521	 0.1272787062	 1.4508755743	-0.426872
H	 0.9826205677	 2.050644561	 0.1094279598	 0.146352
H	-0.4606118394	 1.9686973393	-0.920345433	 0.12948
H	-0.6250821961	 1.9119793108	 0.8495068193	 0.112217
H	-0.9042307764	-0.3466851199	-0.1493313222	 0.104813
H	 2.026569836	-1.7999419078	-2.068021334	 0.145536
H	 0.0430197917	-0.3986258437	 2.0687107497	 0.103458
H	 2.3283483282	-0.2076773617	 2.2808410633	 0.302712
83.3168	126.7743	217.5864	232.6327	264.0816	305.2233	355.0322	412.0633	435.6487	516.7748	573.3807	697.025	756.1711	778.2251	854.135	909.3336	932.6828	952.4954	995.8308	1068.6024	1096.4918	1121.0434	1155.7432	1209.3282	1234.2958	1299.2805	1346.8428	1359.6049	1402.7046	1407.7711	1416.8936	1485.8281	1499.5526	1749.5597	1872.9406	2995.3248	3038.7714	3052.0079	3125.3168	3147.4242	3191.17	3813.2032
CC1N=COC(=O)C1O	C[C@H]1N=COC(=O)[C@H]1O	
InChI=1S/C5H7NO3/c1-3-4(7)5(8)9-2-6-3/h2-4,7H,1H3	InChI=1S/C5H7NO3/c1-3-4(7)5(8)9-2-6-3/h2-4,7H,1H3/t3-,4+/m1/s1
