22
gdb 59943	2.50736	1.00836	0.97209	4.773	83.27	-0.2666	0.0285	0.2951	1405.2774	0.189829	-404.366524	-404.355327	-404.354382	-404.403024	40.637	
C	-0.9208295173	 1.085182619	-0.7019879785	-0.381598
C	-0.2016832781	-0.1116968899	-0.0819104577	 0.13682
C	-1.174513568	-1.1485684659	 0.4773367331	-0.381592
O	 0.5878225178	-0.7415439513	-1.1059962306	-0.30302
C	 1.9988739024	-0.8142019823	-0.9339402763	 0.202083
C	 2.6611303222	 0.5784636147	-0.8946826135	-0.413496
C	 2.4019106586	-1.6648600759	 0.2881562489	-0.413563
C	 2.4695312104	-1.5119628668	-2.1539422264	 0.281032
N	 2.8773117377	-2.0522210018	-3.0895576674	-0.338475
H	-0.2055247367	 1.8221488565	-1.0765934962	 0.117466
H	-1.5407153243	 0.7556233054	-1.541338916	 0.131411
H	-1.5667379673	 1.5736596374	 0.0346379988	 0.113877
H	 0.4464961113	 0.2427347216	 0.7286680582	 0.075598
H	-1.8020995072	-1.5448603315	-0.3266934019	 0.131402
H	-0.6379838597	-1.9848676321	 0.93322482	 0.11744
H	-1.8249294825	-0.7007024358	 1.2354995564	 0.113885
H	 2.3570836703	 1.1186991925	 0.0057195223	 0.124517
H	 3.7499363877	 0.48281331	-0.8818692667	 0.13656
H	 2.3701461612	 1.1578733087	-1.7733348165	 0.144276
H	 1.9303407321	-2.64826007	 0.2336588246	 0.144283
H	 3.4865302776	-1.7967845964	 0.3199335896	 0.136575
H	 2.0925924219	-1.171533226	 1.2133386757	 0.124519
36.0536	66.4021	130.6159	193.8683	213.9362	228.161	235.1557	255.4923	266.0904	328.0424	335.1455	356.7358	421.1581	446.1937	478.7342	581.9449	586.0994	715.6292	814.643	886.4853	918.6795	924.8195	938.548	944.4448	1016.1547	1036.7288	1133.2026	1148.5042	1177.0008	1195.8498	1201.0491	1263.4584	1352.0175	1378.3353	1391.3377	1399.325	1413.8489	1416.3895	1475.225	1479.3559	1482.1821	1486.3103	1492.9338	1496.1783	1502.7291	1507.8453	2364.7456	3024.8651	3038.3446	3043.3411	3049.2595	3054.1466	3110.1341	3117.4264	3119.7774	3123.0252	3123.394	3129.3087	3138.4334	3139.9621
CC(C)OC(C)(C)C#N	CC(C)OC(C)(C)C#N	
InChI=1S/C7H13NO/c1-6(2)9-7(3,4)5-8/h6H,1-4H3	InChI=1S/C7H13NO/c1-6(2)9-7(3,4)5-8/h6H,1-4H3
