18
gdb 45133	2.85683	1.54368	1.08797	3.1669	78.81	-0.2349	-0.0551	0.1797	1095.7419	0.14958	-401.941997	-401.934556	-401.933612	-401.973864	29.452	
O	 0.0116043914	-0.0128174884	 0.4492372264	-0.322541
C	-0.0397861779	 1.1447123496	 0.0831768969	 0.36782
C	-1.3773016645	 1.8581619885	-0.1083878673	-0.348881
C	-1.5301583529	 2.4132942439	-1.513399041	 0.010118
C	-2.1269098595	 3.7561294907	-1.7617582285	-0.262734
N	-0.6969627557	 3.5246392694	-1.9648633667	-0.075623
C	 0.229082704	 4.1121293304	-0.9903504778	-0.223963
C	 1.3380660167	 3.1638957514	-0.6029710519	-0.047973
C	 1.2121471296	 1.9051534991	-0.160674726	-0.120654
H	-2.1686967706	 1.1368417856	 0.1096993101	 0.125689
H	-1.4512857348	 2.6648737318	 0.6304312753	 0.116575
H	-1.66003573	 1.6445133901	-2.2734852673	 0.103479
H	-2.7071911687	 3.953836713	-2.6588042931	 0.121224
H	-2.432347666	 4.3306055759	-0.8878776293	 0.10925
H	 0.6595557473	 5.0074142946	-1.4497354544	 0.117711
H	-0.2823640154	 4.4577634553	-0.0747239621	 0.107962
H	 2.3459225407	 3.5621842749	-0.6950424335	 0.113429
H	 2.1038937065	 1.3282178343	 0.0689114402	 0.109112
90.348	196.5792	275.0528	309.2966	327.6006	369.5499	434.3503	499.2776	567.6802	620.2243	681.4207	726.3663	812.527	840.5431	861.2255	922.6636	945.7078	977.1675	1019.5008	1035.6774	1053.1317	1084.8097	1113.6047	1121.4151	1165.6814	1198.5519	1227.1383	1252.363	1282.1524	1302.4033	1326.8318	1374.766	1410.4398	1416.5243	1465.1925	1501.5749	1517.8424	1687.1123	1769.2799	2943.2971	3040.3639	3065.6989	3091.1132	3103.8754	3119.8021	3151.5294	3178.5508	3180.355
O=C1CC2CN2CC=C1	O=C1C[C@H]2CN2CC=C1	
InChI=1S/C7H9NO/c9-7-2-1-3-8-5-6(8)4-7/h1-2,6H,3-5H2	InChI=1S/C7H9NO/c9-7-2-1-3-8-5-6(8)4-7/h1-2,6H,3-5H2/t6-,8?/m0/s1
