15
gdb 82439	2.54248	1.86174	1.26251	4.4837	60.67	-0.2749	-0.0015	0.2734	961.3104	0.112901	-494.910779	-494.903413	-494.902469	-494.942743	27.915	
O	 0.0678521551	 1.2707531728	 0.3542818536	-0.433004
C	-0.0886198311	-0.0672830112	-0.0215055711	-0.017508
C	-1.5408365922	-0.4742996248	-0.0970614424	 0.025257
O	-2.1719031899	-0.3551566025	-1.3823878712	-0.240941
C	-1.8373152063	-1.6546858168	-0.9036778738	 0.018413
C	-0.6919459611	-2.3489899503	-1.6067571916	-0.111107
O	 0.3495436789	-1.4585837339	-2.0256657601	-0.219608
C	 0.603600314	-0.3165286104	-1.3672411393	 0.407353
O	 1.3845182907	 0.4832954482	-1.8119205518	-0.342399
H	 0.7192713879	 1.6371501476	-0.2644920872	 0.302279
H	 0.3998585864	-0.7343047028	 0.7154770466	 0.102016
H	-2.1635411105	-0.1969960234	 0.7503979297	 0.119469
H	-2.6779954238	-2.301285878	-0.6537973791	 0.113936
H	-0.2728534222	-3.1220037732	-0.949272036	 0.129908
H	-1.033681026	-2.8346459413	-2.5247844463	 0.145937
93.8073	153.0732	237.01	316.0013	329.0698	405.5179	467.8363	482.2155	544.6017	580.4217	677.7219	745.4873	836.9065	863.4101	911.9513	930.8028	978.5712	1058.3919	1095.3247	1109.8712	1134.9398	1155.9443	1225.7666	1236.9936	1262.1582	1292.5601	1344.4316	1374.1666	1419.9084	1449.1042	1485.4359	1507.0058	1834.8835	2919.8043	3028.8167	3096.2112	3121.7728	3149.6616	3700.3143
OC1C2OC2COC1=O	O[C@H]1[C@H]2O[C@H]2COC1=O	
InChI=1S/C5H6O4/c6-3-4-2(9-4)1-8-5(3)7/h2-4,6H,1H2	InChI=1S/C5H6O4/c6-3-4-2(9-4)1-8-5(3)7/h2-4,6H,1H2/t2-,3-,4-/m0/s1
