12
gdb 132333	2.05415	1.88906	0.98407	2.0459	62.57	-0.2315	-0.0436	0.188	1062.4826	0.077696	-513.956257	-513.949269	-513.948324	-513.987923	26.435	
O	 0.0270419182	 1.3319554184	 0.0077579238	-0.401775
C	-0.0187487282	-0.0042287747	 0.0010946492	 0.435494
C	-1.194543007	-0.6769590852	 0.0036880473	-0.268355
C	-1.1962039967	-2.1099382184	-0.0037309069	 0.401494
N	-2.1894376935	-2.8853985121	-0.0026102985	-0.533896
O	 0.1347271504	-2.6874701818	-0.0135732836	-0.243596
C	 1.1807125833	-1.8926671215	-0.0147657123	 0.418912
F	 2.287484142	-2.5854447174	-0.0243116093	-0.029332
N	 1.2226980109	-0.6212533362	-0.008479965	-0.463741
H	 0.9603544792	 1.5841769728	 0.0042457747	 0.312381
H	-2.1461052887	-0.1675597553	 0.0112366216	 0.138274
H	-1.91384707	-3.8651824186	-0.009101891	 0.234141
140.7173	183.5616	209.9425	349.7481	358.9414	480.2638	492.6471	551.6789	598.7146	638.2896	671.4478	692.2933	763.0141	805.2752	847.1103	856.8257	980.8943	1050.1849	1100.7359	1206.6227	1213.9111	1313.2815	1402.7097	1451.9046	1670.9055	1725.0137	1787.8929	3254.8396	3524.8902	3780.4213
OC1=CC(=N)OC(F)=N1	O[C@@H]1C=C([NH])OC(=N1)F	
InChI=1S/C4H3FN2O2/c5-4-7-3(8)1-2(6)9-4/h1,6,8H	InChI=1S/C4H4FN2O2/c5-4-7-3(8)1-2(6)9-4/h1,3,6,8H/t3-/m1/s1
