17
gdb 8341	4.92536	1.38293	1.30078	1.5413	73.69	-0.2283	0.0483	0.2766	979.3547	0.142283	-326.611182	-326.603867	-326.602923	-326.643079	28.182	
C	-0.0356591624	-1.2099636442	 0.0304644278	-0.451434
C	-0.0389904485	-0.008100741	 0.0133904585	 0.298829
C	 0.0048820911	 1.4493245784	-0.0073331939	-0.487604
C	 1.427517695	 1.9934249075	 0.0012383183	 0.316263
C	 2.5675077701	 1.7769262872	-1.0200275285	-0.194904
N	 3.2350240305	 2.7043685315	 0.0118461383	-0.143617
C	 1.8991733064	 3.4665526211	-0.0148093819	-0.219643
C	 2.5434038118	 1.8072549125	 1.0545998767	-0.19491
H	-0.050216151	-2.271470987	 0.0460191217	 0.19778
H	-0.5180240142	 1.8245496623	-0.8971780141	 0.133203
H	-0.5383763611	 1.8500884435	 0.8588728768	 0.133193
H	 3.0235556004	 0.7855790013	-1.0774257335	 0.108181
H	 2.465504288	 2.2296340596	-2.0106432092	 0.098455
H	 1.746511005	 4.0478779905	-0.9288795775	 0.099788
H	 1.7255221194	 4.0742854455	 0.8780937154	 0.099789
H	 2.4185682874	 2.2886866033	 2.0289246664	 0.098454
H	 2.9976593222	 0.818163538	 1.1515267288	 0.108177
59.7521	107.4579	286.2605	297.7408	341.1491	439.6644	581.0751	586.0046	622.9355	635.0102	678.6056	770.4349	797.2934	882.0554	886.6832	938.1589	961.2905	977.3459	1009.7015	1022.9995	1025.766	1131.0696	1148.268	1166.8212	1168.9273	1198.342	1200.6321	1257.0602	1269.058	1316.5975	1337.6584	1461.7449	1511.16	1511.8064	1565.4622	2238.0027	3013.7973	3042.4536	3045.8784	3048.4386	3057.0779	3109.3779	3119.0869	3122.5587	3506.3576
C#CCC12CN(C1)C2	C#CC[C@@]12CN(C1)C2	
InChI=1S/C7H9N/c1-2-3-7-4-8(5-7)6-7/h1H,3-6H2	InChI=1S/C7H9N/c1-2-3-7-4-8(5-7)6-7/h1H,3-6H2
