21
gdb 83798	2.50696	1.67345	1.39728	1.2985	80.56	-0.2312	0.0755	0.3067	1034.0382	0.185795	-387.069947	-387.062308	-387.061364	-387.101497	31.863	
O	 0.3292935637	 1.3489545417	 0.0615800564	-0.413757
C	 0.0893789828	-0.0276442001	 0.0296610989	 0.067631
C	-0.437340176	-0.6852446463	 1.2793582189	-0.066675
C	-0.8661166564	 0.1487471764	 2.4788987637	-0.24415
C	-2.3935867194	 0.1253469913	 2.6940405844	-0.209698
C	-3.185277925	 0.5176718936	 1.4578262814	-0.006369
C	-2.7089217931	 1.6342576645	 0.5659789492	-0.325421
C	-2.5923438166	 0.1931691208	 0.0990930036	-0.037485
C	-1.3129021502	-0.5991918545	 0.0347895295	-0.086788
H	-0.0561649766	 1.7339876303	-0.7319778835	 0.292229
H	 0.8334198559	-0.5871973659	-0.5380612385	 0.081901
H	-0.0205650679	-1.6598111122	 1.5137377319	 0.080581
H	-0.3724533186	-0.2289757087	 3.3792222839	 0.094948
H	-0.5245305511	 1.1803394698	 2.3528853196	 0.123784
H	-2.6980662115	-0.8861593748	 2.9961998539	 0.091956
H	-2.6516651318	 0.7895634397	 3.5281385807	 0.093945
H	-4.2607704745	 0.4026671456	 1.5580151682	 0.075215
H	-3.4586316506	 2.2472138679	 0.0763624561	 0.101156
H	-1.8090902996	 2.1677452797	 0.840456849	 0.128397
H	-3.3016545062	-0.0869499857	-0.6734692147	 0.079377
H	-1.4202652673	-1.5192271029	-0.5330153226	 0.079224
157.8169	181.9923	263.4194	291.5516	332.9129	353.1975	460.8869	467.5972	584.4953	626.4465	676.463	719.2434	753.8916	779.4831	810.8802	843.9453	898.7135	923.4737	951.8551	974.6082	1016.0626	1027.1759	1046.8498	1068.6671	1110.6364	1122.9917	1128.5913	1135.0229	1138.632	1149.4388	1220.4245	1236.3377	1251.5514	1265.3513	1309.4135	1338.7536	1366.7096	1380.383	1388.5253	1395.0294	1413.9267	1448.1354	1486.4427	1491.2925	1511.0336	3010.0443	3043.9115	3057.4517	3087.7774	3092.0208	3130.9135	3136.6282	3141.2339	3149.7664	3155.8811	3236.054	3812.7651
OC1C2CCC3CC3C12	O[C@H]1[C@H]2CC[C@H]3C[C@H]3[C@@H]12	
InChI=1S/C8H12O/c9-8-5-2-1-4-3-6(4)7(5)8/h4-9H,1-3H2	InChI=1S/C8H12O/c9-8-5-2-1-4-3-6(4)7(5)8/h4-9H,1-3H2/t4-,5-,6+,7-,8-/m0/s1
