20
gdb 6399	4.21394	1.01793	0.92886	3.5297	72.33	-0.2377	-0.008	0.2297	1325.0861	0.173773	-386.167896	-386.15782	-386.156876	-386.203558	35.483	
C	 0.4384103089	 1.5798718758	 0.1188554709	-0.381773
C	 0.0032246783	 0.1310378734	-0.1150131001	-0.196204
C	 0.7549254133	-0.5441759995	-1.2677916081	 0.14342
O	 2.1673314774	-0.5254258357	-1.0572123246	-0.430483
C	 0.2475027701	-1.9789764257	-1.5298628132	-0.306153
C	 0.8591965646	-2.5502427332	-2.8082843677	 0.392888
C	 2.1230893774	-3.3698202899	-2.6581607315	-0.482587
O	 0.3622730212	-2.3104430234	-3.8850146174	-0.30681
H	 1.5143671399	 1.6385491786	 0.3027125401	 0.1255
H	 0.219051621	 2.2005168108	-0.7565228262	 0.121005
H	-0.0829763551	 2.0142703852	 0.9767865789	 0.112738
H	 0.1577469587	-0.4622828147	 0.7991042406	 0.086001
H	-1.0721658992	 0.088636773	-0.3249738776	 0.104983
H	 0.6064829761	 0.0388703458	-2.1847065744	 0.11089
H	 2.337632433	-0.9130872894	-0.1907040909	 0.277913
H	 0.4774587847	-2.6062968401	-0.6593428843	 0.087655
H	-0.8378233527	-1.9530529203	-1.6648519343	 0.122196
H	 1.9431645513	-4.2395020863	-2.0155188279	 0.12962
H	 2.4806044401	-3.6981605222	-3.6347781029	 0.137195
H	 2.8799778808	-2.750816062	-2.1641605294	 0.152003
36.3556	72.7635	119.2755	139.9187	173.8107	216.9455	253.8462	306.2814	335.2944	399.968	445.8857	463.9361	540.2505	610.8373	780.7446	801.7303	844.8777	900.9236	947.2844	993.6098	1025.5674	1032.8804	1080.733	1103.918	1133.3212	1158.4334	1241.3472	1264.9974	1281.6757	1338.8536	1356.6626	1375.7887	1379.6489	1408.6102	1423.3769	1461.6663	1472.3154	1476.8965	1484.6257	1495.2242	1508.0571	1811.6527	2996.7345	3026.3292	3035.4155	3040.5619	3048.1051	3059.574	3098.7055	3101.0694	3106.3094	3122.5451	3152.8639	3788.3266
CCC(O)CC(C)=O	CC[C@@H](O)CC(=O)C	
InChI=1S/C6H12O2/c1-3-6(8)4-5(2)7/h6,8H,3-4H2,1-2H3	InChI=1S/C6H12O2/c1-3-6(8)4-5(2)7/h6,8H,3-4H2,1-2H3/t6-/m1/s1
