18
gdb 106538	2.13579	1.63331	1.13551	1.5325	72.66	-0.2414	-0.0095	0.232	1122.5786	0.147118	-439.034513	-439.02593	-439.024986	-439.067909	32.367	
C	 0.0530336109	 1.5005451556	 0.0511727787	-0.39728
C	 0.0357757689	-0.0304896565	-0.0450226676	-0.323881
C	 0.6406933876	-0.5509696865	-1.3129637711	 0.148617
N	 2.1024137027	-0.2576132078	-1.7408771475	-0.387068
C	 1.5913993717	-1.1632589521	-2.8670305187	-0.211498
C	 0.9818626921	-2.0331159601	-1.7194935345	 0.170199
O	 1.8526726775	-2.7334167032	-0.8967933727	-0.451699
C	 0.3131546726	-0.3102075104	-2.7987726674	 0.421173
O	-0.4034787169	 0.3482119341	-3.4908533065	-0.332156
H	 1.0784306386	 1.8847944749	 0.0508302464	 0.120677
H	-0.4799861214	 1.9513284562	-0.7914350183	 0.141896
H	-0.4250811518	 1.8368555086	 0.9752604871	 0.122215
H	 0.5653541064	-0.477220394	 0.8053651818	 0.117605
H	-0.9969700429	-0.3970855138	 0.0049857858	 0.119659
H	 2.2140024503	 0.7074326278	-2.0608276792	 0.236691
H	 2.2279743638	-1.4592668676	-3.6978412847	 0.104645
H	 0.1443237594	-2.6820210603	-1.976628401	 0.105053
H	 2.5819215507	-2.1235257948	-0.7105977004	 0.295152
67.2376	133.6809	164.6615	215.4645	255.7891	277.0606	331.1535	415.5778	541.6486	567.7074	571.7122	646.9403	722.6994	744.8686	791.863	810.4414	846.0248	874.7947	928.5184	985.8979	1028.0425	1074.3639	1095.3553	1132.3415	1158.6435	1169.0958	1169.999	1214.7588	1249.9534	1296.029	1314.4655	1330.7465	1394.0528	1412.6632	1457.3044	1475.3376	1503.01	1509.3802	1898.886	3029.5952	3039.9429	3064.1185	3108.9987	3118.4565	3122.5977	3153.2754	3429.661	3732.6569
CCC12NC(C1O)C2=O	CC[C@@]12N[C@@H]([C@H]1O)C2=O	
InChI=1S/C6H9NO2/c1-2-6-4(8)3(7-6)5(6)9/h3-4,7-8H,2H2,1H3	InChI=1S/C6H9NO2/c1-2-6-4(8)3(7-6)5(6)9/h3-4,7-8H,2H2,1H3/t3-,4+,6+/m0/s1
