23
gdb 118685	2.13819	1.08592	0.9599	1.9409	82.2	-0.2271	0.0556	0.2827	1424.1674	0.203323	-425.409499	-425.398702	-425.397758	-425.445049	40.168	
C	-0.0854494152	 1.576946984	-0.1359283711	-0.38014
C	-0.2234652765	 0.0589876969	-0.2803461877	-0.166263
C	 0.9387303182	-0.5652128533	-1.0676103322	-0.245606
C	 0.8416322392	-2.0782410539	-1.2042409783	 0.253974
C	 1.130687889	-2.8749058492	 0.0557206341	-0.461589
C	-0.1916584815	-2.6673764951	-2.1559537834	 0.0576
O	-0.9885551948	-1.8351331789	-2.9449154521	-0.433235
C	 1.2810824016	-2.7368582611	-2.4974311921	-0.032597
O	 1.6960017042	-1.883989552	-3.539801685	-0.429668
H	 0.8342810272	 1.8444241586	 0.3969741035	 0.109301
H	-0.0510432229	 2.0661083907	-1.1160452519	 0.112111
H	-0.9270947106	 2.0038772589	 0.4186726767	 0.108419
H	-0.2880157098	-0.3935911873	 0.7169931801	 0.089728
H	-1.1592275931	-0.1844557142	-0.7950962163	 0.118111
H	 0.9848662426	-0.1043981179	-2.058155485	 0.104113
H	 1.8923236289	-0.3185830254	-0.5799585866	 0.087882
H	 0.4466243156	-2.6016747486	 0.8658298634	 0.123851
H	 1.0188496269	-3.9510607391	-0.1150947325	 0.109824
H	 2.155316891	-2.6998938815	 0.4049731599	 0.116758
H	-0.7233310108	-3.5662540353	-1.8553888027	 0.091892
H	-0.3870103241	-1.4037941763	-3.5679507325	 0.282998
H	 1.8260087844	-3.6775698341	-2.4393988562	 0.086423
H	 1.6748541005	-2.3928739057	-4.3578840622	 0.296117
81.3416	87.1381	119.4516	194.6164	212.3055	230.4609	245.5814	263.0111	285.8791	293.4735	334.1554	388.4412	498.8119	524.1129	547.9909	660.5206	736.2836	751.2678	832.1989	844.3325	876.2463	909.1256	990.0091	1020.6688	1047.3741	1057.2886	1077.411	1100.0203	1127.439	1156.9772	1177.2252	1222.2465	1247.7281	1278.6691	1307.039	1325.6989	1336.7203	1348.5392	1394.0838	1409.2006	1412.6199	1417.0613	1468.2599	1487.1609	1493.4301	1496.8127	1499.6394	1504.0146	1511.7575	3011.6067	3022.136	3026.5939	3029.9679	3068.1496	3085.2872	3086.9629	3094.9457	3099.2133	3100.3929	3110.6503	3142.9294	3736.8137	3800.8339
CCCC1(C)C(O)C1O	CCC[C@@]1(C)[C@@H](O)[C@H]1O	
InChI=1S/C7H14O2/c1-3-4-7(2)5(8)6(7)9/h5-6,8-9H,3-4H2,1-2H3	InChI=1S/C7H14O2/c1-3-4-7(2)5(8)6(7)9/h5-6,8-9H,3-4H2,1-2H3/t5-,6+,7-
