15
gdb 55485	4.90892	0.66891	0.59101	8.261	72.75	-0.2623	-0.0303	0.232	1755.3524	0.111349	-453.951226	-453.941594	-453.94065	-453.987998	33.309	
N	 0.407055307	 0.5701383138	-1.1182559133	-0.499453
C	 0.2306326747	-0.1579241232	-0.0877414072	 0.385482
N	 0.9131516013	-0.088907928	 1.111176848	-0.538292
H	 1.7878825681	 0.4127494813	 1.1151614866	 0.25442
H	 0.8957263494	-0.8924266471	 1.7198587517	 0.256956
C	-0.8863085027	-1.2035590654	-0.0661060162	-0.451987
C	-1.6394860923	-1.2569059086	-1.3026928855	 0.132931
C	-2.2301363446	-1.2566619446	-2.3510372445	-0.046694
C	-2.8149164387	-1.1077647788	-3.6675078177	 0.331909
O	-3.7268405201	-1.7486080175	-4.1107638021	-0.309337
O	-2.2107893574	-0.1326498862	-4.3910751186	-0.36302
H	 1.182044779	 1.2231088413	-0.9860264709	 0.206806
H	-1.5049435868	 0.259592782	-3.8560988615	 0.322052
H	-0.44979715	-2.1892474806	 0.149313691	 0.152798
H	-1.5554648971	-0.9842349485	 0.7768404201	 0.165429
26.5988	43.8897	55.1543	147.3924	180.162	327.7573	357.8328	380.9404	395.8362	445.8792	523.9356	540.3165	583.5816	604.9842	628.3701	767.2486	788.4571	857.4748	872.7734	963.5698	1079.4461	1099.7418	1131.942	1207.8139	1226.9182	1305.977	1335.7067	1419.9623	1453.109	1645.9604	1735.0914	1852.6368	2364.8834	3013.7432	3044.6481	3451.7081	3577.6655	3688.1058	3749.4086
NC(=[NH2+])CC#CC([O-])=O	N=C(N)CC#CC(=O)O	
InChI=1S/C5H6N2O2/c6-4(7)2-1-3-5(8)9/h2H2,(H3,6,7)(H,8,9)	InChI=1S/C5H6N2O2/c6-4(7)2-1-3-5(8)9/h2H2,(H3,6,7)(H,8,9)
