20
gdb 99332	6.699	0.52535	0.49451	5.7591	80.83	-0.2563	-0.0207	0.2356	2168.2015	0.168266	-403.196515	-403.185744	-403.1848	-403.234658	36.455	
C	 0.1531853252	 1.5334887173	 0.0080655004	-0.376014
C	-0.0321120214	 0.0181020257	 0.0019051635	-0.276111
C	-1.4914125529	-0.417179767	 0.0140608305	 0.371288
O	-2.4022037162	 0.3785449432	 0.027514855	-0.290497
C	-1.7472058339	-1.9232029642	 0.008422402	-0.309375
C	-3.2327163034	-2.2801951174	 0.0206893131	-0.172113
C	-3.4510110325	-3.8055732035	 0.0148413615	-0.349547
C	-4.8658778564	-4.1722386644	 0.0263594468	 0.259452
N	-5.9874794307	-4.4497643381	 0.0355484261	-0.30153
H	 1.2154455979	 1.7922854228	-0.0008898221	 0.112276
H	-0.3221371963	 1.9878138411	-0.8647843212	 0.133588
H	-0.3050730453	 1.9785602685	 0.8946952271	 0.133604
H	 0.4467853814	-0.4374903857	-0.8761005705	 0.121691
H	 0.4639379335	-0.4466369684	 0.8654857829	 0.121703
H	-1.2457827869	-2.3514500873	-0.8711582101	 0.123066
H	-1.2292034969	-2.360676096	 0.8737533328	 0.123086
H	-3.7112255813	-1.8421160838	 0.9007717645	 0.137524
H	-3.727842809	-1.8330622891	-0.8455462448	 0.137498
H	-2.9860473844	-4.2557441755	-0.8705856089	 0.150205
H	-2.9693896903	-4.2648595481	 0.8865746914	 0.150207
25.5891	48.5281	80.4982	85.1262	109.3157	184.4494	186.9395	273.2738	291.9402	399.1113	406.5311	470.6219	559.6895	645.3846	703.8523	762.7395	819.6679	850.8782	947.3639	985.058	1003.7277	1007.8135	1044.2029	1089.1853	1115.4328	1128.2744	1177.6119	1269.4834	1274.278	1302.3944	1325.8028	1349.8272	1374.9206	1395.5205	1415.3576	1447.2401	1460.0252	1469.4699	1492.0161	1495.2486	1497.5367	1808.768	2363.8406	3009.5177	3020.0443	3035.1316	3036.4078	3047.657	3053.1108	3069.2253	3073.4403	3116.924	3124.7501	3129.327
CCC(=O)CCCC#N	CCC(=O)CCCC#N	
InChI=1S/C7H11NO/c1-2-7(9)5-3-4-6-8/h2-5H2,1H3	InChI=1S/C7H11NO/c1-2-7(9)5-3-4-6-8/h2-5H2,1H3
