15
gdb 26440	3.80465	1.07996	0.97239	1.9717	69.17	-0.2257	-0.0443	0.1814	1197.5161	0.112009	-457.792492	-457.784551	-457.783607	-457.825951	28.882	
O	-1.0333083444	 0.2431867067	-0.0717717129	-0.420765
C	 0.1871079	-0.4231420883	-0.2022755977	-0.051262
C	 1.1767332187	 0.4436865846	-0.9822316461	 0.132283
O	 0.857242426	 1.5255592804	-1.4080516982	-0.254938
C	 0.7734500212	-0.7456422572	 1.14126787	 0.324429
C	 0.5304513855	-0.2744520653	 2.3921470491	-0.259041
C	 1.4388238981	-0.9678488244	 3.2590076861	-0.168149
C	 2.1646758014	-1.7958684801	 2.4658573414	-0.023421
O	 1.771201802	-1.6742211711	 1.1658864006	-0.188938
H	-0.9174879564	 1.084075918	-0.5443040975	 0.298976
H	 0.0751746746	-1.3641164611	-0.7716967835	 0.112651
H	 2.1928814261	 0.0265326663	-1.1160165928	 0.117403
H	-0.2141882119	 0.4574972203	 2.6574502679	 0.127121
H	 1.5302878424	-0.8621165733	 4.3285394713	 0.116399
H	 2.9532338467	-2.5063954455	 2.6494830323	 0.137252
49.4957	88.0947	162.0812	224.8968	306.7996	354.923	424.6134	491.5257	613.4905	656.3747	695.0707	746.4653	780.7578	818.3091	860.0034	863.0798	900.1476	966.438	1025.2755	1028.3681	1100.6067	1144.4194	1180.592	1220.593	1238.9747	1258.8097	1338.3621	1387.1645	1415.8382	1434.643	1536.4797	1634.8094	1814.8651	2939.4643	2964.3931	3256.9338	3279.2669	3289.0067	3674.8258
OC(C=O)C1=CC=CO1	O[C@@H](C=O)c1ccco1	
InChI=1S/C6H6O3/c7-4-5(8)6-2-1-3-9-6/h1-5,8H	InChI=1S/C6H6O3/c7-4-5(8)6-2-1-3-9-6/h1-5,8H/t5-/m0/s1
