19
gdb 84041	2.62784	1.5536	1.26179	2.4839	70.88	-0.2373	0.0759	0.3132	1052.3385	0.161229	-460.137322	-460.129626	-460.128681	-460.169342	30.667	
O	-0.0906536163	 1.4441143854	-0.1513832784	-0.422185
C	-0.0352795015	 0.0618999436	-0.0091853834	 0.087389
C	-1.3366192399	-0.7275563521	 0.0812052449	-0.115131
C	-2.6679900293	 0.0047934414	 0.1087762809	-0.232639
C	-3.6075450193	-0.3495455026	-1.0468921172	-0.076245
O	-3.2015635696	 0.21433952	-2.2910883442	-0.223852
C	-2.0928454574	-0.3716797067	-2.8892819965	 0.018405
O	-0.8571957571	-0.0098233114	-2.2932802857	-0.257916
C	-0.4835835296	-0.7704185338	-1.1762564798	 0.016374
H	-0.3199822021	 1.611610216	-1.076718737	 0.297666
H	 0.8160284631	-0.2634182655	 0.5814539924	 0.100148
H	-1.29189829	-1.6380468794	 0.6729639636	 0.088007
H	-3.1775935455	-0.2206482157	 1.0529352176	 0.1014
H	-2.4927174581	 1.0854761024	 0.095071118	 0.125938
H	-3.7047290548	-1.4426554801	-1.1483405281	 0.089097
H	-4.604633949	 0.0610900864	-0.8597944623	 0.10963
H	-2.1823168764	-1.4708299828	-2.8964924891	 0.082877
H	-2.0521253334	 0.0163314515	-3.9096367656	 0.117531
H	 0.0419968162	-1.6909950665	-1.4249980701	 0.093504
103.0797	174.6901	270.7381	276.3099	331.3076	381.1351	420.169	432.2123	555.3908	583.6529	630.5225	690.4076	754.6296	766.6115	835.2337	900.8554	966.4029	974.4376	1011.2627	1031.4057	1073.4209	1082.8816	1113.9545	1126.6747	1149.4675	1157.1269	1203.271	1250.4816	1254.1845	1296.271	1337.1422	1342.9456	1344.4766	1380.3729	1391.0971	1409.665	1448.3467	1451.4202	1480.4068	1489.1081	1505.365	2966.1122	2978.9876	3037.9558	3079.6503	3086.736	3107.7027	3109.4243	3138.3134	3153.1163	3734.9592
OC1C2CCOCOC12	O[C@H]1[C@H]2CCOCO[C@@H]12	
InChI=1S/C6H10O3/c7-5-4-1-2-8-3-9-6(4)5/h4-7H,1-3H2	InChI=1S/C6H10O3/c7-5-4-1-2-8-3-9-6(4)5/h4-7H,1-3H2/t4-,5+,6-/m1/s1
