22
gdb 100088	2.34855	1.18213	0.98349	2.3012	78.82	-0.2589	0.0579	0.3168	1340.1522	0.191509	-441.548881	-441.537975	-441.53703	-441.584382	40.464	
C	-0.0475649222	 1.572910005	-0.1743184734	-0.394777
C	-0.0862831729	 0.0469723213	-0.0541187467	-0.180931
C	-1.4840991548	-0.5779179069	 0.1209829743	 0.37652
C	-1.3629330437	-2.1048035838	 0.17290125	-0.426318
C	-2.2099405432	-0.0298046076	 1.3546127077	-0.426894
O	-2.1815667259	-0.1774589324	-1.1040518011	-0.311367
C	-3.464904293	-0.5381355155	-1.3237315956	 0.491907
N	-3.8947038796	 0.0184472198	-2.50052063	-0.551197
O	-4.1602959725	-1.2178043861	-0.6017328713	-0.407041
H	 0.9716885891	 1.9108759361	-0.3850682298	 0.110602
H	-0.69298321	 1.9163454099	-0.9868725362	 0.124841
H	-0.3716963052	 2.0660183199	 0.7467367549	 0.117867
H	 0.3636381818	-0.3979833727	-0.9494724222	 0.09751
H	 0.5268316352	-0.2764760866	 0.7953271524	 0.096482
H	-0.758101209	-2.397011999	 1.0371422771	 0.111051
H	-2.3448490642	-2.5700907122	 0.2571062599	 0.152008
H	-0.8684396519	-2.4792676246	-0.7289393639	 0.11086
H	-2.3847888215	 1.0449907959	 1.2616750796	 0.119431
H	-3.1705630686	-0.5261735913	 1.4882076279	 0.153356
H	-1.5950099401	-0.1991582082	 2.244530137	 0.109646
H	-3.2076951666	 0.3643572866	-3.1485289102	 0.260861
H	-4.747909321	-0.3583997878	-2.8762946606	 0.265583
73.8022	104.2765	108.6529	170.1443	219.1328	236.3005	244.2503	275.3177	324.8712	345.2933	361.476	375.0849	432.5629	480.6609	506.6254	521.7008	655.9838	759.104	777.1785	786.2211	839.927	930.5141	936.4805	1003.3862	1012.7585	1043.2611	1078.051	1093.2096	1114.7463	1199.0456	1224.6849	1266.6929	1324.5411	1369.8402	1377.3941	1394.919	1409.9881	1415.0747	1469.4191	1480.8519	1493.2456	1496.4108	1505.8873	1510.3573	1523.398	1608.7237	1814.2119	3030.9174	3043.3989	3045.4224	3051.1772	3068.2316	3106.7503	3109.0169	3118.2544	3124.8772	3154.7939	3160.1602	3612.1722	3741.8686
CCC(C)(C)OC(N)=O	CCC(C)(C)OC(=O)N	
InChI=1S/C6H13NO2/c1-4-6(2,3)9-5(7)8/h4H2,1-3H3,(H2,7,8)	InChI=1S/C6H13NO2/c1-4-6(2,3)9-5(7)8/h4H2,1-3H3,(H2,7,8)
