16
gdb 35467	3.30923	1.53944	1.4395	4.5558	72.05	-0.265	-0.0119	0.2531	940.8449	0.126856	-400.754443	-400.747735	-400.74679	-400.785547	26.885	
N	-0.0926049137	-1.161965458	-0.1519048916	-0.32733
C	-0.048820345	-0.0123483186	-0.045466935	 0.283605
C	 0.0046952401	 1.4543316123	 0.0381523006	-0.026442
O	-0.5598638317	 1.92332621	 1.2613655997	-0.282635
C	 0.4918428996	 2.7263493698	 1.9027993447	 0.063781
C	 1.1311981144	 3.4081205736	 0.6862545127	-0.229936
C	 1.4676670152	 2.0366736321	 0.0434007465	-0.103763
C	 2.1763158335	 1.3507792332	 1.1989421701	-0.079491
C	 1.5902330714	 1.7682168341	 2.327204131	-0.067437
H	-0.565343419	 1.8623899298	-0.806330165	 0.127044
H	 0.0090394636	 3.3345335709	 2.6641424132	 0.089879
H	 0.4221294029	 4.0137031212	 0.1150580955	 0.109827
H	 2.0259221101	 3.9839770521	 0.9236744447	 0.116473
H	 1.9514073408	 2.0200371224	-0.9312841867	 0.090633
H	 2.9287477634	 0.5820065438	 1.0858430506	 0.121307
H	 1.7581916746	 1.4148803313	 3.3354601288	 0.114484
112.9168	158.3516	317.1388	397.2615	458.6555	500.1763	522.1354	573.0215	685.7595	757.4571	793.4305	835.1467	845.6605	869.0796	917.1543	935.383	950.212	955.0972	980.1501	999.3678	1022.2736	1048.0056	1128.5943	1139.2081	1192.5166	1225.4118	1272.7565	1283.905	1293.2884	1319.0955	1356.9186	1363.1717	1490.8747	1634.7012	2359.4549	3025.7665	3069.8353	3140.6793	3142.6867	3154.6567	3216.16	3239.8676
N#CC1OC2CC1C=C2	N#C[C@H]1O[C@@H]2C[C@H]1C=C2	
InChI=1S/C7H7NO/c8-4-7-5-1-2-6(3-5)9-7/h1-2,5-7H,3H2	InChI=1S/C7H7NO/c8-4-7-5-1-2-6(3-5)9-7/h1-2,5-7H,3H2/t5-,6+,7-/m1/s1
