13
gdb 19249	3.33567	2.05382	1.61843	4.9247	57.58	-0.2765	0.0141	0.2906	785.832	0.09543	-398.563441	-398.556631	-398.555687	-398.594647	25.11	
O	 0.0288890047	 1.3863361072	 0.2086440293	-0.409717
C	 0.0254577443	 0.0120742363	 0.0397904517	 0.125223
C	-1.3378154425	-0.697786816	 0.0347349972	-0.020619
O	-2.0509624724	-0.1383525623	-1.0796191706	-0.239836
C	-1.1395261372	-1.2069974187	-1.3306794914	 0.030922
C	 0.26571763	-0.5879562638	-1.4346483871	-0.271416
C	 0.48688173	 0.3641969179	-2.506491405	 0.302341
N	 0.6525221843	 1.1422365522	-3.3451319579	-0.322942
H	-0.6670651615	 1.7481465481	-0.3565244527	 0.304129
H	 0.7419419045	-0.4136812357	 0.7448359806	 0.114538
H	-1.9250069856	-1.0802394977	 0.8605952522	 0.124866
H	-1.5190894292	-2.0941835085	-1.8210852191	 0.1303
H	 1.0589506604	-1.3396182488	-1.4212520371	 0.13221
103.3379	135.5745	204.8971	344.4256	396.8708	466.0076	543.4415	584.2752	678.5782	751.342	784.0564	865.9513	884.767	898.9025	925.9599	1023.031	1047.2417	1062.2035	1109.4583	1160.5198	1226.4775	1234.02	1266.2082	1305.4185	1327.824	1383.6694	1441.9853	2358.3445	3087.946	3107.3219	3196.7018	3213.2009	3768.7729
OC1C2OC2C1C#N	O[C@H]1[C@H]2O[C@H]2[C@H]1C#N	
InChI=1S/C5H5NO2/c6-1-2-3(7)5-4(2)8-5/h2-5,7H	InChI=1S/C5H5NO2/c6-1-2-3(7)5-4(2)8-5/h2-5,7H/t2-,3+,4-,5+/m0/s1
