14
gdb 127633	3.47614	1.7168	1.15771	1.3793	69.66	-0.2466	-0.0194	0.2271	978.6787	0.103426	-432.846224	-432.839192	-432.838248	-432.878594	25.574	
C	-0.0050163608	 1.4212763255	-0.0099020668	-0.33858
N	-0.0044679489	-0.0247191082	 0.0204963754	-0.129107
N	 0.1032756108	-0.7559046965	-1.1425125842	-0.257031
C	 0.1305222345	-2.0350749724	-0.7919966055	-0.150693
C	 0.0474215235	-2.1738236093	 0.6183753968	 0.083458
C	-0.0294667511	-0.8692481457	 1.0621430589	 0.563668
O	-0.1196870275	-0.7523658821	 2.3826956218	-0.260845
N	-0.1063156018	-2.1035655001	 2.8867691243	-0.139212
C	-0.0095752574	-2.8941346731	 1.8446194106	-0.116147
H	 1.0040927845	 1.8125215671	-0.1722485157	 0.15189
H	-0.6541983258	 1.7596371303	-0.8190479632	 0.16143
H	-0.3859634909	 1.7918458992	 0.9435242758	 0.15754
H	 0.2032500539	-2.7898627336	-1.560232121	 0.129365
H	 0.015191117	-3.9590685313	 2.0313527829	 0.144266
39.6069	147.4024	236.9687	252.2777	342.8003	525.0906	602.7716	628.5761	633.9161	690.6016	752.3956	799.9379	845.5799	868.4012	905.7136	958.1517	992.2537	1144.2536	1154.5278	1202.9638	1227.8598	1260.1397	1303.416	1428.3833	1452.4095	1464.3192	1481.238	1497.0559	1523.1807	1578.9673	1641.0485	3048.8707	3122.6824	3153.7614	3238.6151	3252.7388
CN1N=CC2=C1ON=C2	Cn1ncc2c1onc2	
InChI=1S/C5H5N3O/c1-8-5-4(2-6-8)3-7-9-5/h2-3H,1H3	InChI=1S/C5H5N3O/c1-8-5-4(2-6-8)3-7-9-5/h2-3H,1H3
