18
gdb 60683	1.90705	1.56697	1.25536	1.6492	72.97	-0.2491	-0.0599	0.1892	1109.5841	0.144415	-439.064898	-439.055265	-439.05432	-439.099856	34.138	
C	 0.2120551763	 1.6050059195	 0.1410572561	-0.450106
C	 0.0213949125	 0.0977048031	-0.0410977884	 0.037231
C	 0.3377202863	-0.6501455388	 1.2606581314	 0.133972
O	 0.7937291563	-0.1233918131	 2.2396562804	-0.243546
C	-1.4303545137	-0.242863536	-0.3877363661	 0.139658
O	-1.8410686567	-1.3746778569	-0.464494585	-0.259284
C	 0.9308851242	-0.4168212847	-1.1893031868	-0.01779
C	 1.9997361325	-1.4354859729	-0.9905899149	-0.247283
N	 0.800320826	-1.7470249908	-1.7769546303	-0.312441
H	 1.2526032017	 1.8345767158	 0.3786463735	 0.145413
H	-0.0614653829	 2.1378323881	-0.7750796899	 0.121885
H	-0.4038698475	 1.9829740545	 0.961144241	 0.1349
H	 0.0918122687	-1.7316731916	 1.241092243	 0.109449
H	-2.1025617094	 0.6270117206	-0.5520145677	 0.100762
H	 1.1057354693	 0.363980011	-1.9272838159	 0.105228
H	 2.9217617189	-1.3659913524	-1.5607762007	 0.125696
H	 2.1203994295	-1.881028113	-0.0070276704	 0.12477
H	 0.130195178	-2.3034846122	-1.2508249495	 0.251485
48.9652	90.8836	126.4104	191.462	205.7815	228.1428	248.2234	291.3721	343.8401	404.5194	451.1003	506.622	665.5062	733.3885	802.2017	865.1883	905.2579	911.7925	954.2393	971.3066	1028.8948	1037.8116	1108.4878	1150.2918	1157.7639	1168.373	1184.8485	1236.0075	1247.5161	1315.1415	1386.3319	1400.749	1415.7338	1426.0553	1487.6211	1491.5989	1516.6151	1794.3781	1834.0069	2897.5053	2923.4981	3047.7108	3113.1012	3116.5311	3120.9361	3137.6539	3195.166	3504.1867
CC(C=O)(C=O)C1CN1	CC(C=O)(C=O)[C@H]1CN1	
InChI=1S/C6H9NO2/c1-6(3-8,4-9)5-2-7-5/h3-5,7H,2H2,1H3	InChI=1S/C6H9NO2/c1-6(3-8,4-9)5-2-7-5/h3-5,7H,2H2,1H3/t5-/m1/s1
