19
gdb 116422	2.85499	1.31085	0.95042	5.0251	71.73	-0.2565	-0.0019	0.2545	1227.1576	0.161004	-460.208155	-460.199798	-460.198854	-460.241566	31.509	
O	 0.184691703	 1.3478244683	-0.046493936	-0.426006
C	 0.0900550732	-0.0515953579	 0.0263229955	-0.062878
C	-1.3650221713	-0.5636546498	 0.049117107	-0.158705
C	-1.4672434104	-2.07512025	-0.1874293389	-0.228263
C	-2.8992725859	-2.5397644959	 0.0689419196	-0.232985
C	-3.2800920479	-2.208690938	 1.5019913475	-0.060151
O	-3.0531027007	-0.8309935352	 1.8602081953	-0.225699
C	-2.0673697894	-0.088613482	 1.3210313345	 0.431639
O	-1.8102296254	 0.9740618825	 1.8392391727	-0.343358
H	-0.3392820898	 1.6776169515	 0.6989216481	 0.297124
H	 0.5838320415	-0.4546645265	-0.8653873366	 0.102183
H	 0.622826964	-0.457517435	 0.9036406991	 0.08655
H	-1.8933083174	-0.0443898706	-0.7639932218	 0.12401
H	-1.1483340896	-2.3087166	-1.2079663014	 0.112183
H	-0.7816381519	-2.6067899794	 0.4866231888	 0.108373
H	-3.587573089	-2.0435130482	-0.6258083086	 0.115565
H	-3.0074135946	-3.6191673731	-0.0809936549	 0.112753
H	-4.3417588811	-2.3790729178	 1.695415546	 0.127997
H	-2.7054392073	-2.8276073828	 2.202992924	 0.119668
57.7547	127.4196	165.169	233.1277	279.7004	345.3697	364.3375	434.2583	486.8814	548.3251	604.5729	618.2569	680.8215	758.9398	877.5798	902.0794	932.9958	955.3304	998.383	1060.5653	1099.9893	1106.3609	1116.4954	1140.6251	1182.2262	1207.5967	1225.1634	1264.1366	1284.5237	1302.3194	1362.6723	1376.8842	1381.2794	1392.9308	1433.4875	1468.4429	1484.7892	1495.8315	1509.5023	1517.669	1794.8763	2955.396	3010.2396	3021.9048	3027.4928	3037.8256	3057.6084	3078.7851	3085.697	3103.7978	3713.9812
OCC1CCCOC1=O	OC[C@H]1CCCOC1=O	
InChI=1S/C6H10O3/c7-4-5-2-1-3-9-6(5)8/h5,7H,1-4H2	InChI=1S/C6H10O3/c7-4-5-2-1-3-9-6(5)8/h5,7H,1-4H2/t5-/m1/s1
