17
gdb 87652	2.747	1.23494	1.05479	1.9512	69.25	-0.247	-0.0407	0.2063	1182.9484	0.13222	-458.943348	-458.934026	-458.933082	-458.978102	33.275	
C	-0.0406085516	 1.4645574709	-0.204373218	-0.419836
C	 0.0253212858	-0.0252143099	-0.0036136145	-0.016285
O	 1.3390975164	-0.6296851565	-0.0340146613	-0.294793
C	 0.6194547908	-0.6527479503	 1.1767511996	 0.367867
C	 1.0697744108	-0.0252486091	 2.5090839741	-0.44248
C	 0.2158540614	-1.1194038041	 3.1772853314	 0.338146
O	-0.4013673175	-1.1958399883	 4.2010143517	-0.298179
C	 0.1618048266	-1.9515399131	 1.8843523484	-0.023572
O	-1.0178164324	-2.6103696743	 1.5375533576	-0.425279
H	 0.7377677047	 1.9744426655	 0.3689106135	 0.128955
H	 0.0953865305	 1.7129062351	-1.261797433	 0.137298
H	-1.01770481	 1.8500265262	 0.1066570867	 0.126514
H	-0.72641729	-0.6114337576	-0.5333338821	 0.110425
H	 2.1417885696	-0.1475178344	 2.6960267253	 0.147426
H	 0.781034962	 1.0048005856	 2.7268334493	 0.142044
H	 0.9974984757	-2.667235638	 1.8575047018	 0.124132
H	-1.7097899226	-2.3108362777	 2.1391356893	 0.297617
53.4151	78.567	133.9278	186.6672	197.7602	216.3844	273.3394	388.2438	419.9483	456.5919	531.4611	561.9793	624.107	747.2332	752.9778	804.5664	868.4334	918.8354	996.8549	1024.4637	1047.435	1072.5508	1112.9196	1132.4254	1158.8422	1180.4231	1196.8528	1241.696	1326.9155	1347.9904	1398.7915	1410.8156	1435.1303	1475.1213	1490.1991	1525.4777	1888.3897	3005.2764	3038.5018	3061.1128	3103.5373	3106.8018	3124.7679	3128.9623	3791.1724
CC1OC11CC(=O)C1O	C[C@H]1O[C@]21CC(=O)[C@H]2O	
InChI=1S/C6H8O3/c1-3-6(9-3)2-4(7)5(6)8/h3,5,8H,2H2,1H3	InChI=1S/C6H8O3/c1-3-6(9-3)2-4(7)5(6)8/h3,5,8H,2H2,1H3/t3-,5-,6+/m1/s1
