23
gdb 80564	2.26827	1.45125	1.24552	1.4345	85.27	-0.2468	0.0715	0.3183	1177.0767	0.206107	-388.296785	-388.287404	-388.28646	-388.330239	36.766	
C	 0.2010178301	 1.6578240963	 0.1445172468	-0.44544
C	 0.1735962509	 0.1440972997	 0.116519102	-0.039548
C	 1.3232694544	-0.7420366257	-0.3228803859	-0.098809
C	 2.737303249	-0.1811909723	-0.3743473544	-0.262421
C	 3.1119769918	 0.2693425941	 1.0692461093	 0.108578
O	 3.2613880131	 1.6830028437	 1.2096337962	-0.416876
C	 1.9585424925	-0.1937186942	 1.99272953	-0.286956
C	 0.845175054	-0.7739098338	 1.1189889953	 0.330371
C	 0.0633619648	-1.9366825839	 1.6883258476	-0.48119
H	 1.1647340965	 2.0579181118	 0.4636823078	 0.149389
H	-0.0212986834	 2.0621471859	-0.8502786038	 0.105685
H	-0.5644329857	 2.0420234349	 0.8290394895	 0.108749
H	-0.7899768771	-0.245174636	-0.2097240999	 0.072741
H	 1.0901651398	-1.5624076352	-0.9954602854	 0.071498
H	 3.4254424679	-0.9612143239	-0.7182676136	 0.096271
H	 2.84252288	 0.6620942168	-1.0682726178	 0.094057
H	 4.0538725351	-0.2080417232	 1.3736219163	 0.071115
H	 3.9575283336	 1.9666232964	 0.6084419058	 0.280043
H	 2.3130347817	-0.9708776425	 2.6783633314	 0.093932
H	 1.6341920456	 0.6499457773	 2.6106485322	 0.115045
H	-0.5126164605	-1.6380024652	 2.5728606683	 0.114685
H	-0.6454152253	-2.3352191299	 0.9553402585	 0.111163
H	 0.7277561611	-2.7558737312	 1.9905368839	 0.107916
98.1411	153.7142	196.8263	211.2885	227.2814	244.5314	299.6652	326.5405	419.8696	422.4589	450.0598	516.593	582.3112	670.5553	696.3523	789.2226	803.8206	859.2301	906.8232	938.5427	955.4264	997.5042	1022.2737	1030.5161	1046.1438	1086.4145	1107.7344	1126.5473	1135.1232	1149.8894	1201.0269	1223.9852	1249.9172	1260.785	1292.74	1309.6011	1328.5635	1353.6543	1375.338	1416.5153	1422.3207	1427.5167	1456.0296	1478.3457	1488.971	1492.2113	1501.7904	1512.5884	1515.9829	2988.8816	3014.2333	3023.8275	3026.0523	3043.5287	3065.5761	3070.2803	3074.908	3083.0264	3093.229	3106.1122	3139.2899	3145.4286	3816.7026
CC1C2CC(O)CC12C	C[C@H]1[C@H]2C[C@@H](O)C[C@@]12C	
InChI=1S/C8H14O/c1-5-7-3-6(9)4-8(5,7)2/h5-7,9H,3-4H2,1-2H3	InChI=1S/C8H14O/c1-5-7-3-6(9)4-8(5,7)2/h5-7,9H,3-4H2,1-2H3/t5-,6+,7+,8-/m0/s1
