17
gdb 73769	2.12989	1.9683	1.10751	5.5331	78.34	-0.2115	-0.0248	0.1867	1079.4716	0.136737	-418.020942	-418.012492	-418.011548	-418.053891	31.941	
C	 0.0128440509	 1.5461343764	-0.0345451359	-0.533726
C	-0.017199882	 0.0521750792	 0.0487435154	 0.09151
C	-1.107832626	-0.7626019503	 0.0643426281	 0.328541
N	-2.4229145096	-0.4030594687	 0.0936501759	-0.595841
C	-0.7134078489	-2.2095369633	 0.0592157748	-0.165074
N	-0.0053431599	-2.578134853	-1.1988194597	-0.329875
C	 0.7592565057	-2.2248600688	 0.032430299	-0.167906
C	 1.2021002144	-0.7632882858	 0.0519714789	 0.384307
O	 2.3535105492	-0.3768952381	 0.0704727783	-0.365906
H	 1.0456812222	 1.8716668718	-0.184817347	 0.154949
H	-0.590291975	 1.9307518997	-0.867881629	 0.11265
H	-0.3551957536	 2.0224688888	 0.8829906785	 0.123102
H	-2.6527192879	 0.5547115001	-0.1236123329	 0.263057
H	-3.1025857084	-1.0773532844	-0.2206099976	 0.261077
H	-1.3088929631	-2.9486028889	 0.5844952573	 0.100581
H	-0.004424617	-3.596397136	-1.2799301028	 0.232139
H	 1.3609699092	-2.9804799988	 0.5228340588	 0.106415
86.4972	126.9798	211.3524	219.4213	232.733	316.8361	390.6012	424.8239	479.0965	504.0145	564.9226	649.4963	684.6274	701.9688	788.3503	835.7239	870.8889	888.5186	913.8402	998.5028	1018.4763	1057.2412	1089.164	1136.3573	1147.875	1215.5518	1268.1288	1278.8468	1349.0038	1364.8315	1399.2299	1444.8465	1488.3687	1495.6719	1641.3361	1687.7274	1793.1493	3008.5568	3054.3744	3115.3563	3170.0423	3193.6792	3445.851	3578.6878	3689.1741
CC1=C(N)C2NC2C1=O	CC1=C(N)[C@H]2N[C@H]2C1=O	
InChI=1S/C6H8N2O/c1-2-3(7)4-5(8-4)6(2)9/h4-5,8H,7H2,1H3	InChI=1S/C6H8N2O/c1-2-3(7)4-5(8-4)6(2)9/h4-5,8H,7H2,1H3/t4-,5-/m1/s1
