17
gdb 113600	3.48655	0.72053	0.63113	1.717	93.13	-0.2451	-0.0303	0.2148	1754.3478	0.132776	-384.618307	-384.608675	-384.607731	-384.653622	34.541	
C	 0.2998387605	 1.5397485166	 0.0944337708	-0.37808
C	-0.3192653677	 0.1900644805	-0.2889437371	-0.224575
C	 0.4778131555	-0.5069973245	-1.3618570948	 0.096293
O	 1.7200426224	-1.0934907979	-0.9778907633	-0.238512
C	 0.6715457093	-1.9769688032	-1.4171051822	-0.242036
C	 0.1023395517	-2.8685332072	-0.4484138681	 0.447027
C	-0.3844218879	-3.6538733523	 0.3347026652	-0.207512
C	-0.9296875202	-4.5294417375	 1.220204756	 0.295236
C	-1.4149062848	-5.3074224744	 2.006219784	-0.558704
H	 1.3188170459	 1.4026132521	 0.4680658427	 0.136689
H	 0.3449304067	 2.2171708687	-0.7653364622	 0.115945
H	-0.2870914999	 2.0302961088	 0.8759672734	 0.118541
H	-0.3833326214	-0.4615562437	 0.587650477	 0.122001
H	-1.3428241521	 0.3339407694	-0.6578652688	 0.106179
H	 0.5210419253	 0.0114190935	-2.3232650257	 0.095601
H	 0.8547949034	-2.4245925182	-2.3942227748	 0.120358
H	-1.8404256465	-5.9909712509	 2.698409788	 0.195548
56.3716	73.9367	104.8803	169.0939	210.6521	243.9992	261.6662	363.1411	437.1032	495.5249	516.4855	531.511	568.4047	599.8408	608.4208	722.8451	764.0124	833.8221	870.0863	932.4518	1009.1814	1049.9867	1087.0827	1133.0129	1175.3948	1198.8508	1283.5396	1290.1752	1341.964	1388.8264	1409.3113	1457.9881	1475.3096	1498.5141	1508.0211	2181.8737	2355.8093	3033.3952	3037.5307	3073.4101	3089.0093	3106.7117	3110.2157	3118.9624	3503.7578
CCC1OC1C#CC#C	CC[C@H]1O[C@H]1C#CC#C	
InChI=1S/C8H8O/c1-3-5-6-8-7(4-2)9-8/h1,7-8H,4H2,2H3	InChI=1S/C8H8O/c1-3-5-6-8-7(4-2)9-8/h1,7-8H,4H2,2H3/t7-,8+/m1/s1
