18
gdb 15007	4.40961	1.489	1.19011	1.2242	65.02	-0.2376	0.0933	0.3308	1021.3122	0.154413	-422.064151	-422.05635	-422.055406	-422.096388	28.678	
C	-0.0552480888	 1.3776552334	-0.0044792019	-0.240359
O	-0.025733287	-0.0403988011	-0.0526961222	-0.237235
C	 0.61879155	-0.5570563678	-1.1594881242	 0.213102
C	 0.7141593654	-2.0725713435	-0.9978321922	-0.113351
O	 1.2764320149	-2.6599785024	-2.1595102832	-0.251625
C	 0.5264563889	-2.3374533516	-3.3201803801	-0.075341
C	 0.4373239632	-0.8249721231	-3.4875531987	-0.08072
O	-0.133017405	-0.2410378169	-2.3252567855	-0.267838
H	 0.9623880032	 1.7951383935	-0.0223382751	 0.106938
H	-0.6245510473	 1.7947539627	-0.8415313342	 0.132865
H	-0.5364608157	 1.6507898885	 0.9366326726	 0.128758
H	 1.634483572	-0.1256653661	-1.2724115717	 0.054208
H	 1.3666719241	-2.32928729	-0.1599500826	 0.115003
H	-0.2969830059	-2.4609679557	-0.8005167561	 0.10356
H	 1.0427320621	-2.798422815	-4.1677210958	 0.108555
H	-0.4890787833	-2.7598653429	-3.2500189523	 0.096614
H	 1.4440638431	-0.4147901925	-3.6701338365	 0.096262
H	-0.2084523638	-0.5546275195	-4.3283297102	 0.110606
102.2046	131.0112	170.7855	249.7828	259.1867	370.3067	388.8345	463.494	502.7238	541.402	620.112	847.905	887.9715	927.8009	986.0529	1047.1961	1073.8068	1103.0922	1112.5015	1142.9258	1152.1038	1179.1727	1181.4484	1235.7606	1249.2002	1294.4491	1317.1561	1338.2077	1379.1038	1399.0472	1415.9697	1429.6866	1479.7718	1482.0182	1483.3518	1487.8401	1492.7062	1511.9548	2897.5321	2973.7224	2983.9233	2996.4266	2997.3556	3078.7141	3087.5288	3087.707	3107.2345	3131.4177
COC1COCCO1	CO[C@H]1COCCO1	
InChI=1S/C5H10O3/c1-6-5-4-7-2-3-8-5/h5H,2-4H2,1H3	InChI=1S/C5H10O3/c1-6-5-4-7-2-3-8-5/h5H,2-4H2,1H3/t5-/m1/s1
