18
gdb 66446	2.67605	1.69525	1.34719	1.1848	75.69	-0.2019	0.0638	0.2657	1023.6836	0.145384	-401.832069	-401.823596	-401.822652	-401.864519	32.696	
C	-0.1014428223	 1.4906837595	 0.0265386916	-0.527081
C	-0.0031536243	 0.0030981319	-0.0179228494	 0.282001
C	 0.8852793093	-0.9933446383	-0.8105729851	-0.174065
N	 0.8100196965	-2.0173657313	 0.2971052458	-0.212251
C	-0.0751279106	-1.0520200975	 1.0778994343	-0.170008
C	-1.1174055958	-1.0409924963	-0.0170686181	 0.261343
O	-2.4606778237	-0.7808420725	-0.0187108976	-0.448174
C	-0.1957406779	-2.0196554381	-0.8276009552	 0.269506
C	-0.4499540124	-3.2055648099	-1.6940136944	-0.526251
H	 0.8257094978	 1.9475210872	 0.3908766019	 0.123649
H	-0.3156988569	 1.9061141287	-0.9649698207	 0.125615
H	-0.9137002713	 1.7976061293	 0.693479426	 0.13181
H	 1.7698599455	-0.8699853271	-1.4279130642	 0.087903
H	-0.1186188432	-0.9826302791	 2.1585965927	 0.097185
H	-2.9088538431	-1.4560166349	 0.5041347664	 0.293898
H	-0.9839147712	-2.9211392656	-2.6070968238	 0.127338
H	 0.5001853823	-3.6675145815	-1.9802469651	 0.136251
H	-1.0463170788	-3.9615234645	-1.170566285	 0.121332
169.3865	173.2068	188.4925	192.6819	200.4979	304.4769	329.1134	391.8856	437.0484	553.8213	646.6052	656.4049	691.9682	755.5592	779.2007	815.7555	872.2171	888.4698	927.8422	951.1919	986.38	1014.7114	1044.078	1082.1219	1108.222	1144.5965	1178.7955	1203.9186	1255.2218	1291.0378	1363.1404	1393.809	1417.0572	1431.7625	1478.1967	1478.8951	1484.5995	1491.5076	1503.4587	3023.0431	3027.3521	3081.3867	3090.6341	3099.3658	3107.2084	3154.3656	3177.9631	3777.3787
CC12C3N4C1C2(O)C34C	C[C@@]12[C@H]3N4[C@@H]1[C@]2(O)[C@@]34C	
InChI=1S/C7H9NO/c1-5-3-6(2)7(5,9)4(5)8(3)6/h3-4,9H,1-2H3	InChI=1S/C7H9NO/c1-5-3-6(2)7(5,9)4(5)8(3)6/h3-4,9H,1-2H3/t3-,4+,5-,6-,7-,8?/m1/s1
