18
gdb 46691	2.85662	1.7627	1.39014	2.5485	75.07	-0.2319	-0.0134	0.2185	960.5558	0.15028	-401.927847	-401.920913	-401.919969	-401.959215	27.965	
O	 0.0635914559	-0.0659016217	-0.0232680688	-0.32833
C	-0.0304879861	 1.1405934117	-0.0142692855	 0.410998
C	-1.3640701191	 1.871484872	-0.0549208516	-0.338681
C	-1.357617348	 3.1180709314	-0.9884545468	-0.157782
N	-0.0751902616	 3.7679143884	-1.2469637155	-0.067779
C	 0.8884041626	 4.2202413725	-0.2663463607	-0.042594
C	 1.0224882161	 3.3172130398	 0.9707464827	-0.277168
C	 1.1582998813	 2.0676643459	 0.0328076774	-0.134277
C	 1.1655212918	 3.0540593281	-1.1843099669	-0.074827
H	-2.1427468778	 1.1665045461	-0.3545456804	 0.123143
H	-1.5890863625	 2.1786141112	 0.973666	 0.129024
H	-1.7331114586	 2.8088411412	-1.9701867115	 0.123931
H	-2.050705041	 3.877598655	-0.6132787647	 0.114391
H	 1.2225094149	 5.2500671628	-0.3323258417	 0.099382
H	 1.9652305783	 3.5011056772	 1.4913296089	 0.118789
H	 0.2132523003	 3.3321997066	 1.7051997701	 0.104386
H	 2.0796015449	 1.5015599817	 0.1646880453	 0.094703
H	 1.7938894687	 2.9591836901	-2.0630903405	 0.102691
109.9609	133.974	306.1974	374.67	436.4098	477.929	484.7738	584.9542	684.3227	699.7999	771.2045	812.1356	829.5245	877.0562	889.6838	910.8119	954.9472	979.1137	993.8517	1011.4961	1067.3697	1077.8992	1080.2166	1137.6731	1174.5053	1207.7978	1228.884	1250.6542	1256.7379	1268.3319	1284.9804	1302.9369	1330.4005	1383.5309	1407.5124	1466.9209	1490.51	1499.0752	1810.8326	3037.5745	3040.0198	3064.4584	3081.2799	3109.8001	3113.1367	3126.7469	3165.4382	3177.2836
O=C1CCN2C3CC1C23	O=C1CCN2[C@H]3C[C@@H]1[C@@H]23	
InChI=1S/C7H9NO/c9-6-1-2-8-5-3-4(6)7(5)8/h4-5,7H,1-3H2	InChI=1S/C7H9NO/c9-6-1-2-8-5-3-4(6)7(5)8/h4-5,7H,1-3H2/t4-,5-,7+,8?/m0/s1
