27
gdb 120480	3.32784	0.76852	0.69363	0.1395	96.64	-0.2729	0.0805	0.3534	1815.141	0.251377	-353.563679	-353.552753	-353.551809	-353.599669	41.137	
C	 0.1389312634	 1.5800863001	 0.0046235659	-0.380135
C	 0.0313845625	 0.0560155607	 0.1042647312	-0.162658
C	-1.3991701715	-0.4623838606	-0.0937056047	-0.197034
C	-1.5062381522	-1.9786631595	 0.0169699795	 0.045809
C	-1.2949744986	-2.6648285043	 1.3951268907	-0.246482
C	-2.3841248978	-3.7002239962	 1.0065744987	 0.048901
C	-3.3238497206	-4.2320636364	 2.0789783025	-0.413892
C	-2.8954815215	-2.6973409416	-0.0848386505	-0.03315
C	-4.1051607463	-1.8534980679	 0.3136337678	-0.395246
H	 1.1695926843	 1.9201542895	 0.1474730902	 0.108884
H	-0.1967565687	 1.9373161071	-0.9755249367	 0.11186
H	-0.4814571638	 2.0709960628	 0.7629356308	 0.112116
H	 0.6901114365	-0.408138512	-0.6418947968	 0.091805
H	 0.4043449812	-0.274018707	 1.0825883168	 0.098499
H	-2.0570014588	 0.0145355158	 0.6447779768	 0.088273
H	-1.7649059758	-0.1397560136	-1.0792429337	 0.087665
H	-0.8269439298	-2.4337321082	-0.7150060047	 0.063149
H	-0.2974711047	-3.0398136556	 1.6396594714	 0.089108
H	-1.6298571991	-2.021175776	 2.2172904252	 0.089803
H	-1.9049812872	-4.5460808309	 0.4999262681	 0.06697
H	-3.8278327447	-3.4215540649	 2.6153722258	 0.111779
H	-4.0974692481	-4.880681903	 1.6520258833	 0.110508
H	-2.7713684988	-4.8222933273	 2.8189838201	 0.110941
H	-3.0963245113	-3.1547012339	-1.059668103	 0.056413
H	-3.9777432999	-1.3687111729	 1.287199137	 0.113367
H	-4.2911398643	-1.0644984449	-0.422578998	 0.112286
H	-5.0082979945	-2.4703189792	 0.3712953765	 0.11046
68.2509	87.6177	110.2908	126.8546	218.0085	245.2943	247.2133	265.1869	272.2909	314.2041	339.1827	389.8562	490.4638	500.5172	641.18	745.7764	763.134	805.3341	850.0226	883.4992	899.7991	911.6294	944.118	985.3251	1012.0795	1033.3537	1043.2428	1049.9234	1080.3509	1118.4736	1155.4958	1171.2884	1177.448	1195.026	1240.8659	1260.3892	1271.5323	1277.5888	1293.0754	1315.6228	1329.9255	1362.8539	1371.4767	1383.2774	1402.0567	1412.0313	1413.3609	1415.5875	1480.9105	1491.007	1491.1655	1492.9015	1495.5179	1499.6819	1505.4419	1506.12	1511.4683	3001.473	3013.2097	3016.1569	3024.0967	3026.8512	3027.6523	3030.067	3034.7132	3036.9162	3043.4375	3056.3235	3085.7938	3091.2048	3093.8508	3095.5006	3096.2706	3099.0725	3103.5457
CCCC1CC(C)C1C	CCC[C@H]1C[C@@H](C)[C@H]1C	
InChI=1S/C9H18/c1-4-5-9-6-7(2)8(9)3/h7-9H,4-6H2,1-3H3	InChI=1S/C9H18/c1-4-5-9-6-7(2)8(9)3/h7-9H,4-6H2,1-3H3/t7-,8-,9+/m1/s1
