18
gdb 87427	3.49706	1.372	1.30767	2.0618	75.02	-0.2284	0.0705	0.2989	1031.8073	0.148472	-401.858289	-401.850934	-401.84999	-401.889956	29.483	
O	 0.0118041419	 1.3726435556	 0.121360151	-0.422398
C	-0.0004523291	-0.0245279833	 0.0268999256	 0.006766
C	-0.475772332	-0.7619666519	 1.2536300566	-0.38612
C	-1.3163545655	-0.7394710479	 0.0085764143	 0.406427
C	-2.7165061098	-0.2070338006	-0.0842535966	-0.145862
C	-3.2640539747	-0.5966218907	-1.4247763421	-0.046635
C	-2.2007748284	-1.3737965558	-2.1834783255	-0.2413
C	-1.8408863777	-1.9282639023	-0.7884892113	-0.11689
N	-3.2916536507	-1.5861158892	-0.2937953806	-0.157237
H	-0.2729223799	 1.7289113657	-0.7269420037	 0.287827
H	 0.8325858498	-0.4602642861	-0.5273329936	 0.08292
H	 0.0321719029	-1.6802318234	 1.5305464204	 0.115376
H	-0.8001610031	-0.1479790489	 2.0873609472	 0.128661
H	-3.205456716	 0.5138210278	 0.560581002	 0.10105
H	-4.1826579091	-0.1700000453	-1.8129584468	 0.096702
H	-2.6584825621	-2.1407396229	-2.8133517642	 0.11319
H	-1.428380933	-0.8394104311	-2.7471307387	 0.091837
H	-1.4460063434	-2.9327905597	-0.6476622641	 0.085686
124.5684	146.2242	215.7182	293.6719	373.6392	431.2366	466.2206	500.313	647.4346	747.0805	776.2292	809.2698	828.9907	841.1395	891.8204	914.281	923.2496	952.0216	1000.605	1018.652	1019.2657	1037.6777	1049.2189	1071.0824	1110.8364	1123.1698	1142.6105	1168.1764	1190.1434	1213.168	1245.5826	1261.4114	1285.4176	1305.536	1354.3131	1390.8539	1435.4804	1492.1515	1500.8764	3039.5743	3083.1664	3104.934	3127.4038	3135.6816	3172.3137	3188.7467	3217.4393	3802.9229
OC1CC11C2C3CC1N23	O[C@H]1C[C@]21[C@H]1[C@H]3C[C@@H]2N13	
InChI=1S/C7H9NO/c9-5-2-7(5)4-1-3-6(7)8(3)4/h3-6,9H,1-2H2	InChI=1S/C7H9NO/c9-5-2-7(5)4-1-3-6(7)8(3)4/h3-6,9H,1-2H2/t3-,4+,5+,6-,7+,8?/m1/s1
