15
gdb 25067	3.70753	1.03534	0.8522	3.8334	73.14	-0.1951	0.0282	0.2233	1292.7052	0.112796	-416.833109	-416.824688	-416.823744	-416.866736	31.192	
O	 0.1124402337	 0.0089609392	 0.3376719242	-0.429372
C	 0.0072961929	 1.2035463761	 0.1487137368	 0.444411
N	-1.1032827851	 1.9187178794	-0.2855046952	-0.3368
C	-0.8381808129	 3.2865493651	-0.3302410041	-0.193783
C	 0.4459652949	 3.4628243305	 0.0437509045	 0.344121
C	 1.2781973949	 4.7063205847	 0.1209079028	-0.463853
C	 2.0283060246	 4.8206218204	 1.3720390893	 0.292339
C	 2.6596556046	 4.8771867553	 2.3926630813	-0.442804
N	 0.9682475268	 2.1976654677	 0.3119855267	-0.395592
H	-1.9830597568	 1.4699641267	-0.4666903032	 0.268985
H	-1.5741907997	 4.0076715328	-0.6414552212	 0.138094
H	 1.9889851455	 4.7413396532	-0.7181148031	 0.148932
H	 0.6188907027	 5.5727372519	-0.0034014954	 0.149045
H	 3.2088231381	 4.9441071987	 3.2992680385	 0.205092
H	 1.8602644655	 2.0125257184	 0.7375820283	 0.271185
49.5731	91.7955	178.5303	265.4765	278.9533	339.4132	409.8141	447.4786	491.4476	507.4482	614.7009	634.5012	657.5522	688.8461	713.9154	759.5477	780.7019	933.8412	947.145	987.8065	1005.7144	1090.5641	1187.6622	1214.5875	1249.16	1325.68	1367.9142	1393.7104	1430.3719	1458.04	1689.8355	1847.0314	2240.9799	2996.1612	3064.0413	3283.2415	3504.5049	3683.0656	3701.0907
O=C1NC=C(CC#C)N1	O=c1[nH]cc(CC#C)[nH]1	
InChI=1S/C6H6N2O/c1-2-3-5-4-7-6(9)8-5/h1,4H,3H2,(H2,7,8,9)	InChI=1S/C6H6N2O/c1-2-3-5-4-7-6(9)8-5/h1,4H,3H2,(H2,7,8,9)
