21
gdb 100920	2.64678	0.96541	0.86018	2.4857	75.25	-0.2535	-0.0349	0.2187	1458.368	0.179659	-461.368733	-461.357884	-461.356939	-461.405186	38.256	
C	-0.1209445547	 1.5112136495	 0.0507046212	-0.381414
C	-0.2116479513	-0.00924213	-0.0968775271	-0.204232
C	 0.7479803348	-0.5507242439	-1.1691730321	 0.124489
O	 2.1009554359	-0.209665233	-0.9024052922	-0.444971
C	 0.5923665139	-2.0713981755	-1.3968473152	-0.106821
C	 1.3917031477	-2.5249219465	-2.631054512	-0.093357
O	 1.2086551286	-3.9255446691	-2.7827975316	-0.430533
C	 1.0331586497	-2.904603587	-0.2045584206	 0.167729
O	 1.7880054161	-2.5166084844	 0.6602207844	-0.271908
H	 0.9048865092	 1.8113492743	 0.2782255609	 0.133672
H	-0.417684499	 2.0165916595	-0.8753725713	 0.10997
H	-0.7738603781	 1.8704636889	 0.8515828523	 0.108566
H	 0.0149405237	-0.4901519505	 0.8622115646	 0.108357
H	-1.2365459127	-0.3013785556	-0.3612191923	 0.088712
H	 0.509439455	-0.0506456806	-2.1186112083	 0.079827
H	 2.3493846072	-0.7259778735	-0.1213930987	 0.291596
H	-0.4614095923	-2.3148024759	-1.5883696578	 0.095621
H	 1.0258479738	-1.9724854655	-3.5101426857	 0.09752
H	 2.4465154808	-2.2603869735	-2.4830244482	 0.119929
H	 1.7908049805	-4.2328700004	-3.4836539095	 0.293465
H	 0.6325115712	-3.9364323872	-0.1723249209	 0.113784
61.4788	86.0892	102.8563	104.5564	155.5206	219.7226	238.0096	257.3994	269.8336	306.999	333.0912	431.9142	478.5623	524.46	607.5483	772.8701	782.6639	841.609	888.001	930.2878	969.6716	999.8409	1020.6538	1061.9699	1077.4416	1120.0292	1136.1228	1147.6699	1226.3371	1247.6484	1268.5377	1293.4973	1307.1482	1347.8774	1380.6369	1393.7409	1409.1831	1424.6794	1443.0301	1459.339	1486.7388	1496.3102	1509.535	1529.086	1797.0439	2945.2635	2982.2139	3006.2756	3019.2768	3027.2469	3036.5232	3048.8551	3065.3426	3101.9026	3126.0751	3721.3355	3833.7764
CCC(O)C(CO)C=O	CC[C@@H](O)[C@@H](CO)C=O	
InChI=1S/C6H12O3/c1-2-6(9)5(3-7)4-8/h3,5-6,8-9H,2,4H2,1H3	InChI=1S/C6H12O3/c1-2-6(9)5(3-7)4-8/h3,5-6,8-9H,2,4H2,1H3/t5-,6-/m1/s1
