19
gdb 95594	2.24693	1.69865	1.01334	5.6123	78.62	-0.2325	-0.0441	0.1884	1175.0013	0.16058	-419.241122	-419.232393	-419.231448	-419.27484	32.82	
C	-0.1301664962	 1.5319141616	 0.0276719226	-0.404481
C	 0.0392232607	 0.0145424594	-0.015510735	-0.090866
C	 0.8393506913	-0.4842748277	-1.2301512965	-0.207042
C	 0.8613365434	-2.0074191593	-1.2629629182	-0.172296
N	 1.3675404675	-2.5384948207	-0.0035911892	-0.339298
C	 1.1303654786	-1.991837752	 1.2435573137	 0.264926
N	 1.2955254555	-2.5668561036	 2.372631179	-0.490806
C	 0.6777533965	-0.5245230019	 1.2628810803	 0.367178
O	 0.8197257448	 0.1467477028	 2.2520559986	-0.280408
H	 0.8437023306	 2.030890015	 0.0535719705	 0.126169
H	-0.6731407162	 1.8825743396	-0.8551872037	 0.107872
H	-0.675579563	 1.8373208606	 0.9224695706	 0.139531
H	-0.9559986764	-0.4590061573	-0.0674076088	 0.101763
H	 0.3923207973	-0.1062688392	-2.1551451518	 0.109585
H	 1.865022057	-0.0979814182	-1.1823238904	 0.116977
H	-0.1548759035	-2.3797570176	-1.4751397767	 0.104642
H	 1.5087598626	-2.3659131473	-2.0701518301	 0.113368
H	 1.569404668	-3.5284213401	 0.0038800209	 0.233832
H	 1.5915687913	-3.5397418242	 2.2538090842	 0.199355
52.3197	96.473	191.0164	236.3351	278.9716	308.1939	360.2017	392.6468	433.7472	469.7569	547.7521	590.7026	649.6504	705.9338	777.9806	858.1487	867.4779	927.509	955.3862	978.1371	1025.9409	1072.5153	1094.8985	1152.6707	1165.987	1187.7601	1198.7114	1261.9404	1316.8505	1332.3707	1359.6614	1382.8582	1413.2616	1424.0157	1477.145	1488.414	1491.4043	1496.7809	1523.145	1701.0305	1824.8062	2961.1092	2969.7997	3034.1015	3045.3335	3062.7889	3084.5324	3110.9237	3136.0459	3425.3832	3585.9026
CC1CCNC(=N)C1=O	C[C@H]1CCN[C]([NH])C1=O	
InChI=1S/C6H10N2O/c1-4-2-3-8-6(7)5(4)9/h4H,2-3H2,1H3,(H2,7,8)	InChI=1S/C6H10N2O/c1-4-2-3-8-6(7)5(4)9/h4H,2-3H2,1H3,(H2,7,8)/t4-/m0/s1
