16
gdb 16032	3.49142	1.77397	1.45876	1.8464	72.99	-0.2292	0.0163	0.2455	907.0782	0.128963	-346.526695	-346.519022	-346.518077	-346.558329	29.178	
C	 0.0008731587	 1.5634504529	-0.0068495884	-0.420398
C	 0.0533240222	 0.0544627081	-0.07922504	-0.070652
C	 0.6541267752	-0.7426759263	-1.2172149413	-0.204109
C	 1.9492463318	-0.0993459476	-1.6911582309	-0.100389
O	 2.4622697314	-0.0146542234	-0.3346993216	-0.319562
C	 1.3198449142	-0.7336275899	 0.1633253825	 0.272453
C	 1.5061529929	-1.7295299177	 1.1584914724	 0.242451
C	 1.6563335926	-2.5651174112	 2.011269826	-0.412855
H	 0.9709964494	 2.0022433461	-0.2497533842	 0.14021
H	-0.7481205717	 1.9657827386	-0.6971449776	 0.117897
H	-0.2645697585	 1.8877332702	 1.0042708463	 0.125341
H	-0.8139185013	-0.4555828471	 0.3345504684	 0.101628
H	 0.1308376312	-1.5481983139	-1.7142735295	 0.110184
H	 2.5720816041	-0.770817587	-2.2918112387	 0.11735
H	 1.8882385821	 0.8820429136	-2.1747461471	 0.10749
H	 1.7936492257	-3.3031043753	 2.7624161736	 0.192961
131.2873	157.3047	179.3563	251.362	264.1752	392.4213	489.431	511.2464	537.1473	568.0909	656.945	687.8112	751.9245	792.3539	887.8983	938.9413	970.5051	982.3208	987.2966	1036.8396	1090.4191	1118.839	1136.3526	1158.5298	1180.0133	1256.7085	1321.0527	1337.8599	1406.6368	1448.4942	1490.9064	1503.4649	1520.9752	2232.4221	3031.0996	3040.1945	3079.1927	3099.8639	3127.4738	3145.1459	3206.6	3501.3125
CC1C2COC12C#C	C[C@H]1[C@H]2CO[C@@]12C#C	
InChI=1S/C7H8O/c1-3-7-5(2)6(7)4-8-7/h1,5-6H,4H2,2H3	InChI=1S/C7H8O/c1-3-7-5(2)6(7)4-8-7/h1,5-6H,4H2,2H3/t5-,6+,7-/m0/s1
