19
gdb 91394	3.14403	1.39217	1.32547	2.1462	74.13	-0.2478	-0.0215	0.2264	1051.9844	0.160369	-423.03247	-423.024656	-423.023712	-423.064716	30.61	
C	-0.3444989731	 1.4583458838	 0.0359275348	-0.39331
C	 0.0721680847	-0.020808768	-0.0076994026	 0.041824
C	 0.7575524988	-0.3591610268	-1.3690702056	-0.252586
C	 2.2888571118	-0.2821534157	-1.2347480793	-0.034088
O	 2.6460741866	 0.7061661864	-0.2210755479	-0.293163
C	 2.4630859759	-0.293880976	 0.8269350573	-0.034088
C	 0.9759609979	-0.3738674992	 1.2154399799	-0.252587
C	 2.7450415911	-1.3570436477	-0.2411758659	 0.426887
O	 3.1730447766	-2.4693160836	-0.2836748746	-0.304534
H	 0.5317001482	 2.1076198939	-0.0344229678	 0.139691
H	-1.0187791291	 1.6980653756	-0.7932645589	 0.109174
H	-0.8698417612	 1.6880382864	 0.9691665987	 0.109174
H	-0.8397381816	-0.6221484801	 0.0659409049	 0.078942
H	 0.4893743242	-1.3649975669	-1.7135627848	 0.115861
H	 0.412143961	 0.3395539626	-2.1374061945	 0.110353
H	 2.8254104479	-0.1431431485	-2.1759143738	 0.103117
H	 3.1500947356	-0.1649966256	 1.6662294328	 0.103117
H	 0.7650518089	 0.3157900376	 2.0386894755	 0.110353
H	 0.768436726	-1.383788728	 1.5886613819	 0.115862
92.8968	153.0614	185.3114	260.2399	360.0812	388.4458	418.4629	449.4683	524.1885	566.5033	718.3089	755.9369	787.9293	844.8091	866.375	887.1415	908.669	944.4046	996.3408	1008.753	1009.5138	1059.7719	1086.545	1099.7974	1106.4389	1161.1179	1205.4384	1231.364	1272.8633	1281.593	1314.8312	1317.2734	1354.9568	1359.8082	1371.4683	1409.9825	1485.8692	1487.8908	1502.8506	1512.7876	1921.4787	3031.1207	3031.821	3035.7013	3050.9543	3076.6595	3079.6575	3094.5956	3096.8168	3098.2475	3127.4464
CC1CC2OC(C1)C2=O	C[C@H]1C[C@H]2O[C@@H](C1)C2=O	
InChI=1S/C7H10O2/c1-4-2-5-7(8)6(3-4)9-5/h4-6H,2-3H2,1H3	InChI=1S/C7H10O2/c1-4-2-5-7(8)6(3-4)9-5/h4-6H,2-3H2,1H3/t4-,5+,6-
