16
gdb 133806	3.13826	0.89404	0.8367	2.7442	54.98	-0.268	0.0704	0.3385	1367.8457	0.119301	-606.513834	-606.504433	-606.503489	-606.550494	32.527	
O	 0.0745322001	 0.9582697215	-1.1307083274	-0.419178
C	-0.217664739	 0.1419263744	-0.0161891385	-0.05435
C	-1.6953890126	-0.2087722999	 0.0389478963	-0.092532
O	-1.9662132274	-0.9455242456	-1.1576220659	-0.255198
C	-3.3169774371	-1.1074897419	-1.4886284387	-0.204702
C	-3.8465850922	 0.0535608331	-2.3278191541	 0.270513
F	-3.0821581407	 0.2616400968	-3.4052059719	-0.072143
F	-5.0927965472	-0.215346616	-2.7438141874	-0.073088
F	-3.8872918751	 1.2037252456	-1.6354522267	-0.077862
H	-0.3159631625	 0.5175320165	-1.8946981139	 0.290371
H	 0.3716249226	-0.7889702224	-0.0274293222	 0.096062
H	 0.0591916188	 0.7042467238	 0.8815467559	 0.112219
H	-1.9279472371	-0.8237592928	 0.9215220503	 0.096258
H	-2.2945431083	 0.7072423652	 0.0708364469	 0.120622
H	-3.4071774735	-2.0112787579	-2.0990609379	 0.139911
H	-3.9627081788	-1.2160558602	-0.6071745048	 0.123097
19.9825	35.0811	110.7361	165.2924	231.3273	257.5932	303.7464	371.0865	417.8327	439.2738	527.6716	530.0132	571.2199	672.7885	835.6671	842.8395	904.0497	975.4547	1032.0271	1088.3685	1132.7894	1165.9738	1194.9345	1199.2087	1243.8841	1262.9197	1290.5805	1335.2459	1387.3407	1403.4936	1429.3612	1441.3134	1477.8091	1499.3193	1507.7156	2981.5746	2996.8071	3027.7203	3077.2108	3086.4857	3097.7941	3795.5058
OCCOCC(F)(F)F	OCCOCC(F)(F)F	
InChI=1S/C4H7F3O2/c5-4(6,7)3-9-2-1-8/h8H,1-3H2	InChI=1S/C4H7F3O2/c5-4(6,7)3-9-2-1-8/h8H,1-3H2
