21
gdb 97056	3.68723	1.02977	0.98956	3.3787	82.82	-0.2146	0.0648	0.2794	1339.1187	0.181918	-420.436687	-420.426852	-420.425908	-420.471518	36.203	
C	 0.0707386539	 1.3785602083	-0.0968276642	-0.327641
N	-0.0823133456	-0.0205003065	 0.2572123262	-0.378131
C	-1.1805487401	-0.5989860198	 0.0427613033	 0.488193
N	-1.4755748318	-1.9121189806	 0.3910139098	-0.379215
C	-2.6249298341	-2.3883924803	-0.3847569363	 0.263528
C	-2.2024910161	-2.9711931969	-1.7452396554	-0.42301
C	-3.4606367047	-3.3914956467	 0.4114668472	-0.43487
C	-3.3392290159	-1.0291619575	-0.5536972588	-0.10411
O	-2.2915270592	-0.0557344656	-0.5572506389	-0.255827
H	 0.8399088471	 1.4823604312	-0.8727444906	 0.113558
H	-0.8473655883	 1.85610791	-0.4597977854	 0.116388
H	 0.4284919827	 1.9383958287	 0.7756524866	 0.115284
H	-0.6689893504	-2.511020038	 0.4908352817	 0.245992
H	-1.5549292328	-3.8434699581	-1.6061564208	 0.116139
H	-3.074993758	-3.291966394	-2.3242698986	 0.117762
H	-1.6536976445	-2.2289386347	-2.3326552158	 0.134422
H	-3.7092116504	-2.9891141585	 1.396814103	 0.127453
H	-4.3892775385	-3.6305692869	-0.1175473074	 0.11936
H	-2.9122294425	-4.3285158669	 0.5536266455	 0.119246
H	-3.8926193868	-0.9467648962	-1.4921580373	 0.116457
H	-4.016624344	-0.8311448711	 0.2859486859	 0.109021
52.7567	82.2491	161.9828	201.9313	223.9528	225.3326	265.5619	301.7374	337.2279	372.5145	443.5342	521.6063	569.1907	630.0861	707.905	725.9896	826.3171	894.7308	930.0124	940.8797	969.2014	990.7402	1037.0508	1058.5881	1087.6116	1138.5618	1155.8955	1196.8972	1235.814	1240.4585	1257.5489	1304.6397	1390.3779	1400.6004	1408.0188	1427.0167	1446.2467	1480.9554	1486.3688	1496.2669	1502.2272	1503.7445	1505.6112	1515.658	1816.455	3006.1754	3026.9948	3029.6022	3037.6198	3057.9551	3073.5849	3096.0096	3102.3154	3104.8507	3111.7433	3121.538	3616.2867
CN=C1NC(C)(C)CO1	CN=C1NC(C)(C)CO1	
InChI=1S/C6H12N2O/c1-6(2)4-9-5(7-3)8-6/h4H2,1-3H3,(H,7,8)	InChI=1S/C6H12N2O/c1-6(2)4-9-5(7-3)8-6/h4H2,1-3H3,(H,7,8)
