18
gdb 90647	3.85851	1.09862	1.06303	2.9584	80.43	-0.2183	0.0352	0.2535	1207.4328	0.145591	-401.852034	-401.84335	-401.842406	-401.884902	33.72	
C	-0.2723885852	 1.2927436884	-0.0459296458	-0.331244
N	 0.0963915946	-0.1000803091	 0.116007462	-0.127054
C	 1.1196179373	-0.6353300222	-0.8404612799	-0.203936
C	 1.9597883332	-1.154990522	 0.3270617966	-0.157467
C	 0.9878218911	-0.4264543062	 1.2452672109	-0.084571
C	 1.0551812655	-1.9376017933	 1.2877539984	 0.240125
O	-0.0287569219	-2.6796828541	 0.8253533965	-0.477669
C	 1.7310387602	-2.5178936562	 2.4166692413	 0.260134
C	 2.3171008779	-2.9902739804	 3.3541054311	-0.395677
H	 0.5952672354	 1.9746907464	-0.0885722677	 0.100636
H	-0.8445018636	 1.4098044661	-0.9716103992	 0.128719
H	-0.911693767	 1.6027748774	 0.7868619944	 0.128849
H	 0.7298561328	-1.3670581343	-1.5551093196	 0.117565
H	 1.630712861	 0.172791007	-1.3763039709	 0.108727
H	 3.0373330176	-1.2423255208	 0.3553436579	 0.108831
H	 1.1173028858	 0.2292209925	 2.0985878905	 0.106076
H	-0.652085057	-2.0101982071	 0.4931803918	 0.287641
H	 2.8235491223	-3.4170933422	 4.1839756216	 0.190315
118.5354	138.4691	158.5246	227.5557	255.2705	314.446	360.4452	452.7511	470.4539	528.2377	556.7101	573.657	603.1504	678.2948	682.0718	727.8552	835.5552	865.9484	898.1064	967.9808	974.9769	994.3524	1042.5848	1059.7825	1103.6329	1135.0188	1180.8323	1200.795	1223.1514	1244.8751	1267.736	1306.0943	1369.7705	1433.0766	1455.3545	1486.6647	1501.8459	1504.3937	2240.1754	2949.9367	3030.8881	3065.1803	3085.8445	3106.4087	3180.1196	3206.8302	3503.9939	3638.5581
CN1CC2C1C2(O)C#C	CN1C[C@H]2[C@@H]1[C@]2(O)C#C	
InChI=1S/C7H9NO/c1-3-7(9)5-4-8(2)6(5)7/h1,5-6,9H,4H2,2H3	InChI=1S/C7H9NO/c1-3-7(9)5-4-8(2)6(5)7/h1,5-6,9H,4H2,2H3/t5-,6+,7-/m0/s1
