21
gdb 69318	2.82344	1.35976	1.27794	1.2021	77.89	-0.2467	0.0728	0.3194	1120.1122	0.181013	-424.225502	-424.216411	-424.215466	-424.258335	36.061	
C	 0.0768284438	 1.5270236449	-0.0588131158	-0.418562
C	-0.024229455	 0.0092811696	 0.0648385603	 0.367748
C	-1.4891933047	-0.4507667008	 0.0468292175	-0.422262
O	 0.6836211044	-0.5437272201	-1.0706977987	-0.296526
C	 1.1911674716	-1.8251345493	-0.7304176396	-0.15597
C	 1.4744965486	-1.7696105229	 0.7649533601	 0.376525
O	 1.4949272651	-2.9651695686	 1.479199067	-0.471034
C	 2.2221560667	-0.5545183144	 1.2452099252	-0.373515
C	 0.7051678046	-0.5834677458	 1.2675244956	-0.113957
H	 1.1192359311	 1.8518447266	-0.0171761228	 0.117379
H	-0.3480869857	 1.8567991626	-1.0115685759	 0.121232
H	-0.4729175215	 2.0164863611	 0.7509631464	 0.111492
H	-1.9736744317	-0.1264540159	-0.8786687037	 0.11939
H	-1.5622893463	-1.540285654	 0.1122508433	 0.121801
H	-2.0413042385	-0.02687975	 0.8921608449	 0.111914
H	 0.4650297757	-2.6312413235	-0.9210757394	 0.097012
H	 2.0752458556	-2.0033608628	-1.3540701735	 0.096778
H	 2.3745926977	-3.3484169356	 1.3948339977	 0.285501
H	 2.711182055	-0.6410768161	 2.2093532707	 0.111702
H	 2.7311809841	 0.0715889957	 0.5188485024	 0.119741
H	 0.2010026794	-0.6238401507	 2.2256264882	 0.093611
136.1714	182.3109	201.3039	232.4983	263.8162	288.8759	326.1084	364.4518	374.0129	405.235	429.9061	507.5364	563.5707	627.6877	730.4184	765.206	849.0534	904.1714	928.5484	930.9662	943.2719	966.5906	1014.214	1029.7025	1053.4036	1069.0051	1083.34	1088.8198	1182.8089	1202.1063	1213.5386	1250.6961	1275.948	1288.8138	1338.6772	1358.4305	1395.6009	1408.6468	1417.6226	1474.0053	1480.6662	1481.8616	1496.9559	1504.6086	1519.808	2979.6739	3036.5406	3044.2457	3050.9957	3106.0978	3113.7255	3117.6965	3124.2911	3125.9853	3187.2447	3218.8416	3799.2397
CC1(C)OCC2(O)CC12	CC1(C)OC[C@@]2(O)C[C@@H]12	
InChI=1S/C7H12O2/c1-6(2)5-3-7(5,8)4-9-6/h5,8H,3-4H2,1-2H3	InChI=1S/C7H12O2/c1-6(2)5-3-7(5,8)4-9-6/h5,8H,3-4H2,1-2H3/t5-,7-/m0/s1
