18
gdb 55145	3.38103	1.4277	1.22558	10.1231	71.48	-0.1951	0.0343	0.2294	1035.4018	0.150788	-439.057642	-439.050451	-439.049507	-439.089798	28.192	
O	-0.0265669968	 0.35900768	 1.1215880827	-0.504274
C	 0.0167732181	 1.1449757564	 0.1408856246	 0.375766
O	 0.8675978374	 1.3920481523	-0.7104853613	-0.442251
C	-1.331777186	 1.9525076375	 0.0182983734	-0.132061
C	-1.9919600925	 2.181389896	-1.3655590923	-0.227349
C	-3.272161204	 1.3373880457	-1.1599653478	-0.042278
C	-2.6790921867	 0.0775042063	-0.4750359222	-0.179597
N	-2.3913529592	 1.0563040786	 0.6436987414	-0.039042
H	-2.0107295945	 0.6960857601	 1.5312256485	 0.288782
C	-3.6978492315	 1.7353317388	 0.288335092	-0.19661
H	-1.2764575999	 2.8594374905	 0.6250546926	 0.115475
H	-2.2171043739	 3.2314924882	-1.5644952932	 0.113116
H	-1.3482849138	 1.8034525812	-2.1620015402	 0.152412
H	-3.9993258035	 1.260968184	-1.9635098823	 0.102146
H	-3.415569028	-0.6553998714	-0.1441917811	 0.137991
H	-1.7844662177	-0.393461515	-0.8767521556	 0.187796
H	-3.7364222654	 2.7876525411	 0.5708686397	 0.146809
H	-4.548945772	 1.1773536298	 0.6813613411	 0.143168
61.2489	138.6206	200.1311	335.8229	420.5257	464.0713	548.0742	572.1186	676.7023	754.9189	790.748	828.7401	839.2887	846.3693	861.2201	926.7618	929.5988	961.7535	1005.9935	1026.5405	1061.0966	1080.559	1093.355	1114.0804	1143.8858	1196.3717	1230.6837	1243.3099	1250.6068	1259.5412	1289.9129	1297.4079	1326.7344	1340.5951	1371.7445	1496.6861	1509.3431	1538.9703	1795.9378	3076.1855	3086.4404	3090.7778	3105.1154	3131.1152	3161.9361	3165.3285	3188.8452	3352.4658
[O-]C(=O)C1CC2C[NH+]1C2	[O]C(=O)[C@H]1C[C@H]2C[N@@H]1C2	
InChI=1S/C6H9NO2/c8-6(9)5-1-4-2-7(5)3-4/h4-5H,1-3H2,(H,8,9)	InChI=1S/C6H9NO2/c8-6(9)5-1-4-2-7(5)3-4/h4-5,7H,1-3H2/t5-/m1/s1
