19
gdb 80832	2.5187	1.68485	1.30648	4.4193	74.72	-0.2567	0.0171	0.2739	1042.4122	0.159484	-423.054793	-423.046579	-423.045635	-423.087131	31.957	
C	-0.1873633351	 1.5357480467	-0.0381084889	-0.443131
C	 0.0114741033	 0.0278196964	 0.0021050044	-0.00964
C	 1.1744641082	-0.6052181148	-0.804297998	 0.085105
C	 2.1400623029	-0.2220633591	 0.3335638957	-0.291123
C	 0.8713323242	-0.5740962833	 1.1977809151	 0.132338
C	 0.690591199	-0.2305488795	 2.6524768609	-0.502179
C	 0.7519653279	-2.042929704	 0.8022850439	 0.445744
O	 0.5249718238	-3.0242958314	 1.4442364542	-0.361331
O	 0.9642319865	-2.0302190818	-0.556230976	-0.24824
H	 0.7336439217	 2.101872433	 0.1226465259	 0.122924
H	-0.5971566798	 1.8377841527	-1.0078940142	 0.127858
H	-0.9039258349	 1.8442092896	 0.7299865984	 0.131444
H	-0.9465780614	-0.4760296212	-0.1638066169	 0.092441
H	 1.3588590317	-0.446588646	-1.8646433147	 0.094647
H	 3.0307673671	-0.8426839307	 0.4548503409	 0.118883
H	 2.4028764555	 0.8347967215	 0.3673579257	 0.114345
H	 0.752418046	 0.8490080015	 2.8189452223	 0.117275
H	-0.2810685709	-0.5811695671	 3.0142735022	 0.136236
H	 1.4597418843	-0.7153341924	 3.2617362391	 0.136404
147.9231	173.827	186.8017	203.3443	253.4947	316.2212	339.819	474.0895	483.4664	548.9504	620.5645	669.6404	725.7391	792.5393	822.3442	852.0876	884.7651	938.9574	943.1203	1000.2618	1045.0753	1060.6155	1066.437	1096.6134	1109.3592	1127.6079	1198.7688	1217.1808	1245.8929	1253.8273	1307.4713	1347.1497	1389.7796	1414.9443	1419.6295	1486.4528	1488.1696	1494.1087	1496.4428	1511.0698	1904.3546	3038.6473	3040.1772	3054.1241	3079.312	3099.3717	3109.4899	3111.748	3117.2469	3147.1297	3149.1957
CC1C2CC1(C)C(=O)O2	C[C@H]1[C@H]2C[C@]1(C)C(=O)O2	
InChI=1S/C7H10O2/c1-4-5-3-7(4,2)6(8)9-5/h4-5H,3H2,1-2H3	InChI=1S/C7H10O2/c1-4-5-3-7(4,2)6(8)9-5/h4-5H,3H2,1-2H3/t4-,5+,7-/m0/s1
