16
gdb 124205	4.74496	0.99183	0.82477	13.7163	84.79	-0.1987	-0.0531	0.1456	1319.8832	0.125318	-430.218489	-430.209942	-430.208998	-430.252236	31.129	
C	 1.4384420894	-0.4829603986	 0.1466178086	-0.471014
C	 0.0407627508	 0.026435709	 0.0615782956	 0.437098
N	-0.179259717	 1.3646909088	 0.0795379614	-0.547831
H	-1.1150754787	 1.7323643773	 0.1474064596	 0.280318
H	 0.5598363901	 1.9722029215	 0.3871354554	 0.28621
N	-0.9569109081	-0.8070953522	-0.0723669513	-0.338912
C	-0.9935544337	-2.2028254408	-0.1737785247	 0.31824
C	-0.0580868325	-3.2375736077	-0.1939444172	-0.15925
N	-0.7646577794	-4.3717145922	-0.3126585151	-0.214187
N	-2.0687434797	-4.0404731355	-0.3629046372	-0.151391
N	-2.2312337349	-2.7313581629	-0.2804627459	-0.306562
H	 2.1515318705	 0.3308185783	 0.2842639901	 0.136572
H	 1.5247893983	-1.1926881542	 0.9759416277	 0.187474
H	 1.6897784454	-1.03066477	-0.7680786254	 0.188988
H	-1.9062590148	-0.4432461819	-0.1228839115	 0.274633
H	 1.0181143442	-3.2417647288	-0.1368121001	 0.079612
45.1462	116.6328	166.2861	217.4255	271.1906	321.8623	341.701	394.4431	434.6092	525.9414	527.1743	678.6247	722.6049	783.877	788.2314	822.8528	890.6661	986.019	1028.5112	1037.5325	1058.4395	1091.8454	1119.4468	1173.7827	1240.241	1271.8018	1359.3905	1413.9287	1427.5593	1460.8966	1481.3765	1510.5183	1529.0341	1655.5733	1721.1516	3042.1929	3102.5322	3147.3982	3260.3795	3507.3601	3604.8265	3727.3859
CC(=[NH2+])NC1=CN=N[N-]1	CC(=[NH2])Nc1cnnn1	
InChI=1S/C4H6N5/c1-3(5)7-4-2-6-9-8-4/h2H,1H3,(H2-,5,6,7,8,9)/q-1/p+1	InChI=1S/C4H8N5/c1-3(5)7-4-2-6-9-8-4/h2H,5H2,1H3,(H2,6,7,8,9)
