17
gdb 104144	3.18508	1.11775	1.07447	4.7491	63.95	-0.2643	0.0128	0.277	1166.1868	0.135421	-496.138918	-496.130322	-496.129378	-496.172215	32.195	
O	 0.007416767	 1.2974394276	-0.2022738282	-0.435476
C	-0.0503374176	-0.1240592195	-0.1504389114	-0.136297
C	-1.512824617	-0.4783808669	 0.1289706354	 0.388677
O	-1.9416653501	 0.1817481468	 1.3006834535	-0.485879
C	-2.4095399477	-0.1456811651	-1.0915101405	-0.137993
O	-2.4247945995	-1.3266885322	-1.9083799646	-0.217416
C	-2.0820409258	-2.4247268693	-1.1761385255	 0.432574
O	-2.0812314633	-3.5267973788	-1.6385036369	-0.334568
C	-1.7202991127	-1.9878256964	 0.2384271981	-0.428691
H	 0.9273508399	 1.574280052	-0.2288928374	 0.30183
H	 0.279975756	-0.5771729201	-1.0965528336	 0.111578
H	 0.5732286813	-0.5172764113	 0.6644597597	 0.106113
H	-1.5454355659	 1.0629189323	 1.2701820593	 0.291152
H	-3.4242201751	 0.0786623088	-0.746850253	 0.121982
H	-2.0337469165	 0.6835407744	-1.6929881123	 0.132187
H	-0.8628503058	-2.5523172354	 0.6091694798	 0.135201
H	-2.5678365072	-2.188145497	 0.9024366677	 0.155026
79.9295	133.4623	170.2555	245.2163	247.622	316.0078	351.8761	402.5412	439.2202	483.3082	550.87	558.803	654.3447	690.1968	797.2049	849.4898	917.2822	949.4598	984.6406	1064.2505	1066.0704	1098.6849	1128.1494	1147.9605	1185.8582	1198.9778	1228.6474	1259.4338	1293.7296	1312.2515	1364.3716	1424.0217	1451.3124	1462.3494	1508.8667	1523.5411	1889.1181	2993.271	3037.5269	3055.3425	3066.7353	3123.8416	3128.7056	3762.6306	3845.6221
OCC1(O)COC(=O)C1	OC[C@@]1(O)COC(=O)C1	
InChI=1S/C5H8O4/c6-2-5(8)1-4(7)9-3-5/h6,8H,1-3H2	InChI=1S/C5H8O4/c6-2-5(8)1-4(7)9-3-5/h6,8H,1-3H2/t5-/m1/s1
