17
gdb 102446	1.94182	1.2058	1.02574	4.1279	70.58	-0.2464	-0.0872	0.1592	1267.031	0.133688	-455.139063	-455.128742	-455.127798	-455.175599	34.957	
C	-0.185574402	-2.3059450329	-0.5504605212	-0.327747
N	-0.327030326	-0.8928769003	-0.2155140993	-0.291932
C	-1.639470545	-0.5173812587	 0.259455594	-0.061392
C	-1.5575111648	 0.8287140024	 1.0001544798	-0.113423
O	-0.6430846923	 0.6517665296	 2.0690709785	-0.418601
C	-2.6087761836	-0.3487647366	-0.9058739477	 0.293373
O	-3.7867124574	-0.5917829074	-0.8570008222	-0.267795
C	-2.0166190171	 0.1958833385	-2.1519698839	 0.250077
N	-1.6389045828	 0.6483573204	-3.1471115398	-0.314213
H	 0.8497005507	-2.5048002084	-0.8382625884	 0.132302
H	-0.4571437256	-2.9861448421	 0.2743641391	 0.108059
H	-0.816694644	-2.5549373838	-1.4107044471	 0.131564
H	 0.3492632235	-0.6224021541	 0.4893888491	 0.240276
H	-2.102187495	-1.2521674508	 0.940480677	 0.10114
H	-1.2116606137	 1.6052253892	 0.3027450772	 0.11893
H	-2.5592548535	 1.0992181806	 1.3608449147	 0.118922
H	-0.3986267316	 1.5177285845	 2.4082705901	 0.300458
24.6122	98.0219	110.1335	154.9107	166.0839	201.1901	229.3209	256.6371	293.2085	309.3501	367.7606	465.8891	524.9801	664.7082	706.0757	752.7538	795.8632	910.0701	1025.9492	1058.7924	1087.02	1127.1237	1159.1117	1172.2451	1225.8322	1239.274	1282.7558	1311.4546	1366.448	1448.1061	1466.2301	1487.6533	1494.5063	1514.6863	1519.9731	1798.3581	2334.2939	2962.2264	2965.5536	2996.2652	3042.5902	3064.08	3116.7787	3545.8006	3837.6905
CNC(CO)C(=O)C#N	CN[C@@H](CO)C(=O)C#N	
InChI=1S/C5H8N2O2/c1-7-4(3-8)5(9)2-6/h4,7-8H,3H2,1H3	InChI=1S/C5H8N2O2/c1-7-4(3-8)5(9)2-6/h4,7-8H,3H2,1H3/t4-/m0/s1
