21
gdb 118742	2.83612	0.97939	0.85312	3.0024	80.16	-0.2392	-0.0171	0.222	1441.633	0.179274	-424.229064	-424.21906	-424.218115	-424.264598	36.494	
C	-0.2082968738	 1.3170027148	-0.341621119	-0.227538
O	-0.1268753666	-0.0769930513	-0.160011917	-0.237717
C	 0.7321379093	-0.7079765659	-1.0830673722	-0.098012
C	 0.7429061048	-2.2075477981	-0.8032681988	 0.303716
C	 1.300275362	-2.5170448642	 0.5822654925	-0.460845
C	-0.6427363685	-2.8580077238	-1.143117523	-0.379747
C	-0.017475098	-3.415035429	-2.4280644166	 0.411381
O	-0.4585727388	-3.9334815689	-3.4123007631	-0.291628
C	 1.3947639263	-2.9875005974	-1.9957951757	-0.406225
H	 0.771274958	 1.8034594548	-0.2121273075	 0.105978
H	-0.5898278886	 1.5764995248	-1.3417117016	 0.107068
H	-0.8979743679	 1.7054580565	 0.411462836	 0.129663
H	 0.3894328208	-0.5150279481	-2.1155202068	 0.084309
H	 1.7559020687	-0.3015045921	-1.0014064606	 0.086806
H	 0.7151894928	-2.0099346552	 1.3539747746	 0.138041
H	 1.2791654494	-3.5932255358	 0.7836110656	 0.109108
H	 2.339645175	-2.1802117451	 0.6714242897	 0.113194
H	-0.9330227882	-3.6573789502	-0.4527157504	 0.125941
H	-1.4920796942	-2.1810876557	-1.262754596	 0.134983
H	 1.9708691241	-2.4143153086	-2.7288874436	 0.123595
H	 1.9992206933	-3.8427308014	-1.6748494866	 0.127932
39.3259	90.2512	110.9063	170.2436	228.433	236.7881	296.6777	314.4864	345.2408	384.423	401.4719	455.6824	510.4583	648.3167	681.0081	741.8608	872.5756	893.5621	930.4944	970.9693	987.7441	992.936	1041.8829	1071.8943	1132.4877	1152.1215	1167.0839	1173.7327	1192.8633	1210.8802	1231.4546	1247.0823	1298.9681	1325.9067	1403.8141	1421.1473	1428.1205	1447.991	1481.0344	1485.9997	1489.072	1502.2513	1504.0437	1524.5457	1891.9548	2936.3188	2966.1621	2972.5528	3016.7804	3028.5503	3046.5123	3054.6745	3091.1444	3100.1646	3115.0356	3115.7493	3118.4312
COCC1(C)CC(=O)C1	COCC1(C)CC(=O)C1	
InChI=1S/C7H12O2/c1-7(5-9-2)3-6(8)4-7/h3-5H2,1-2H3	InChI=1S/C7H12O2/c1-7(5-9-2)3-6(8)4-7/h3-5H2,1-2H3
