18
gdb 37682	3.28192	2.37619	1.97826	1.6771	77.81	-0.2209	0.0716	0.2925	777.0691	0.151346	-364.675226	-364.669851	-364.668907	-364.704455	24.723	
C	-0.0463199074	 1.5625097668	 0.2072917402	-0.355489
C	 1.5119296369	 1.482372995	-0.0793275235	-0.087042
C	 2.1940486131	 0.3264708704	 0.7905128787	-0.083675
C	 2.17651195	-0.7103950437	-0.4119354568	-0.034081
C	 1.2229945058	 0.3011383219	-1.0283807342	-0.005782
C	 0.0666245872	 0.0192521122	-0.0185921098	 0.220385
C	-0.1818686139	-1.5053471313	-0.2518255446	-0.277965
N	 1.2279773713	-1.7018131637	 0.3237504591	-0.188486
C	 0.9567236735	-0.4650384558	 1.1522382381	 0.034038
H	-0.4167170361	 1.8983598607	 1.1804020539	 0.100128
H	-0.533898826	 2.1264254127	-0.5930533891	 0.107597
H	 2.0891321402	 2.3669039886	-0.3458013869	 0.069858
H	 3.0284507491	 0.4890286262	 1.4682193011	 0.072657
H	 3.0428916393	-1.1388218582	-0.9104519592	 0.070913
H	 0.9432381627	 0.3952046937	-2.0769978179	 0.067753
H	-0.8800096029	-1.9903732201	 0.4347145334	 0.114903
H	-0.3498304917	-1.8485966154	-1.2769457154	 0.104775
H	 0.5038238389	-0.5783094899	 2.1382927029	 0.069512
375.5341	394.5707	463.3478	487.8913	689.4606	728.9061	738.0531	782.2031	792.1824	804.4542	837.4162	853.4024	871.498	882.6769	923.7682	932.6057	938.1256	957.053	960.536	992.9699	1033.4772	1052.8706	1105.8533	1125.0186	1128.3527	1149.4489	1163.6195	1169.8598	1177.2674	1191.2055	1195.6273	1217.8996	1235.814	1256.0644	1268.1212	1296.2596	1318.2937	1486.8172	1493.0523	3048.5327	3053.1698	3097.8332	3109.5161	3113.6575	3120.7387	3125.5061	3140.7445	3151.8916
C1C2C3C4C2C11CN4C31	C1[C@H]2[C@@H]3[C@@H]4[C@H]2[C@@]21CN4[C@@H]32	
InChI=1S/C8H9N/c1-3-4-6-5(3)8(1)2-9(6)7(4)8/h3-7H,1-2H2	InChI=1S/C8H9N/c1-3-4-6-5(3)8(1)2-9(6)7(4)8/h3-7H,1-2H2/t3-,4+,5-,6+,7-,8+/m0/s1
