19
gdb 40760	2.85159	1.28958	0.99952	1.8007	75.66	-0.2293	0.0761	0.3055	1213.3094	0.158347	-422.961356	-422.952928	-422.951984	-422.995382	31.405	
C	 0.2467544961	 1.467160651	 0.0578311449	-0.188921
O	 1.2889810016	 0.4903437237	 0.0611973171	-0.241114
C	-0.0672941836	 0.0328664471	 0.0291608266	 0.089274
C	-0.5466258593	-0.7088712668	 1.244117515	-0.171302
C	-2.0345967134	-1.1372780841	 1.2460204571	-0.095809
O	-1.6841297504	-2.5376079619	 1.2535922608	-0.306211
C	-0.2901591452	-2.2178573346	 1.2675572459	 0.463115
C	 0.7189555529	-3.0326277178	 0.5282317838	-0.341267
C	 0.6935415079	-3.0156782345	 2.0528643523	-0.335307
H	 0.1264610069	 2.0247447052	 0.9861723567	 0.114047
H	 0.1619057935	 2.0588314617	-0.8524685606	 0.117671
H	-0.3619492535	-0.4054366171	-0.92605013	 0.099485
H	-0.2217785721	-0.1889406152	 2.148650638	 0.087387
H	-2.6063335295	-0.8522250804	 2.1359536941	 0.107393
H	-2.6039925844	-0.8640192492	 0.3488165769	 0.102604
H	 0.3599254887	-3.9290218223	 0.0339983536	 0.123561
H	 1.5268993083	-2.5178112089	 0.0188557315	 0.13254
H	 1.4861796597	-2.4935015859	 2.579185882	 0.119608
H	 0.3156483856	-3.9003860201	 2.5542238143	 0.123246
52.9827	63.6037	142.7311	214.1961	279.7338	320.3971	360.5337	430.7096	507.2565	601.7534	759.2571	785.0637	851.005	874.6745	878.9845	899.7342	908.7843	961.5729	975.139	1014.769	1018.6196	1051.4681	1065.3502	1071.1698	1100.5165	1152.7139	1157.8263	1170.7244	1188.3933	1196.8423	1222.4216	1240.6108	1290.4785	1298.4469	1353.9114	1381.4113	1445.4366	1457.2283	1493.5458	1527.7654	1529.7565	3018.3686	3062.9829	3079.8434	3082.9441	3099.3551	3127.4481	3130.7407	3168.6558	3212.0737	3226.2362
C1OC1C1COC11CC1	C1O[C@H]1[C@H]1COC21CC2	
InChI=1S/C7H10O2/c1-2-7(1)5(3-9-7)6-4-8-6/h5-6H,1-4H2	InChI=1S/C7H10O2/c1-2-7(1)5(3-9-7)6-4-8-6/h5-6H,1-4H2/t5-,6-/m1/s1
