23
gdb 93695	3.15378	1.16187	1.05944	1.8329	81.74	-0.2434	0.0765	0.3199	1277.2217	0.205683	-425.452494	-425.443133	-425.442188	-425.485734	37.257	
C	 0.066635483	 1.5284391519	 0.0951263537	-0.402641
C	 0.0549140121	 0.0110106191	-0.0030253526	 0.147314
C	 0.7002524098	-0.5231367318	-1.2874835186	-0.222495
C	 0.8221812983	-2.0538819137	-1.2532593351	-0.231696
C	 1.4858320642	-2.5236696464	 0.059008435	 0.370211
C	 1.5392225764	-4.0429584406	 0.1579877376	-0.423162
O	 2.8349687639	-2.0544756525	 0.119991768	-0.48107
C	 0.7099577916	-1.9057119184	 1.2314282293	-0.118717
O	 0.748422342	-0.4879685504	 1.1466650866	-0.276646
H	 1.0937980397	 1.9055694054	 0.0623428996	 0.120871
H	-0.4902078216	 1.9710688879	-0.7361193809	 0.115705
H	-0.3882092198	 1.8550477786	 1.0340019489	 0.123904
H	-0.9878872989	-0.3508208077	 0.0453889503	 0.063953
H	 0.1147497326	-0.200885051	-2.155720848	 0.095279
H	 1.6975904759	-0.0781713382	-1.3916086531	 0.101924
H	-0.1742247535	-2.5083510036	-1.3340351809	 0.088267
H	 1.4128434516	-2.4117682349	-2.1026969776	 0.100922
H	 2.1339174764	-4.4503366753	-0.665079067	 0.124918
H	 2.0099571639	-4.348142163	 1.097187748	 0.118979
H	 0.5368615818	-4.4797061653	 0.107593054	 0.109043
H	 2.7878180141	-1.1440776556	 0.437834019	 0.281876
H	-0.3319933374	-2.2644108706	 1.2436652507	 0.085174
H	 1.1844771642	-2.1708553639	 2.1811196629	 0.108087
101.5538	206.0907	212.8135	230.4427	251.4964	256.7595	309.9073	332.6921	406.9774	442.4635	456.5572	480.84	493.7236	524.3821	634.3938	748.9524	805.2354	859.1503	880.3121	925.527	938.4576	964.8043	1013.4851	1027.2811	1043.2822	1084.4017	1105.6141	1128.2349	1151.6798	1201.6603	1223.2074	1235.6664	1274.2848	1302.7785	1337.8745	1354.1743	1360.4813	1388.6117	1396.3987	1410.5893	1411.811	1427.3065	1472.5124	1482.4712	1486.4783	1487.0325	1491.4327	1498.5958	1500.2958	2941.7633	2977.2506	3020.2961	3030.5987	3039.1899	3042.1326	3072.5151	3079.5478	3084.3064	3112.9666	3113.91	3114.2331	3122.4295	3772.087
CC1CCC(C)(O)CO1	C[C@H]1CC[C@@](C)(O)CO1	
InChI=1S/C7H14O2/c1-6-3-4-7(2,8)5-9-6/h6,8H,3-5H2,1-2H3	InChI=1S/C7H14O2/c1-6-3-4-7(2,8)5-9-6/h6,8H,3-5H2,1-2H3/t6-,7+/m0/s1
