16
gdb 25949	4.91302	1.01956	0.84882	3.8945	74.33	-0.2183	0.0004	0.2188	1312.6833	0.125511	-434.110858	-434.102599	-434.101655	-434.144349	30.073	
C	-0.1261207982	 1.39420148	-0.1064999227	-0.468014
C	 0.0889238174	-0.0944853623	 0.0038662189	 0.370173
N	 1.2530691485	-0.5939836173	 0.0552958879	-0.495492
N	-1.1273125617	-0.8076746506	 0.0393742772	-0.456562
C	-1.2685752382	-2.1627869349	 0.1352270289	 0.546128
N	-0.35698754	-3.084325651	 0.2139592493	-0.354484
C	-1.0916194533	-4.2678584769	 0.2894409404	-0.09742
C	-2.4091069085	-3.988344433	 0.2516649506	-0.05895
O	-2.5437346133	-2.6152228212	 0.150741747	-0.201177
H	 0.8450558301	 1.8857506463	-0.129304438	 0.159713
H	-0.6779895454	 1.6475461518	-1.0192526653	 0.131585
H	-0.7010683142	 1.7750389869	 0.7457080975	 0.131597
H	 1.220270325	-1.6126050154	 0.1284702021	 0.248405
H	-1.989098042	-0.2881336306	-0.0096487342	 0.263155
H	-0.604203344	-5.2265143475	 0.3651215333	 0.132139
H	-3.3219189722	-4.5553060145	 0.2803660371	 0.149205
67.7852	86.8331	156.9485	169.2755	306.0556	349.7713	384.1113	433.8714	556.2592	572.7607	614.3371	701.5392	754.0456	802.792	861.109	912.1437	946.3628	948.079	968.7354	1034.5922	1077.8084	1085.3218	1137.4706	1149.5123	1180.248	1245.6757	1326.9398	1381.342	1414.5449	1476.9966	1485.7763	1545.9266	1586.8898	1645.0573	1751.2731	3032.6681	3086.9178	3169.3174	3268.1823	3312.9409	3462.4304	3642.1179
CC(=N)NC1=NC=CO1	CC(=N)Nc1ncco1	
InChI=1S/C5H7N3O/c1-4(6)8-5-7-2-3-9-5/h2-3H,1H3,(H2,6,7,8)	InChI=1S/C5H7N3O/c1-4(6)8-5-7-2-3-9-5/h2-3H,1H3,(H2,6,7,8)
