17
gdb 127843	4.80027	1.0701	0.8847	4.7223	88.03	-0.2078	-0.0496	0.1583	1307.5531	0.135503	-414.156648	-414.147755	-414.146811	-414.191081	31.363	
C	-0.0062592535	 1.4291984287	-0.0098049074	-0.327789
N	-0.0052866234	-0.017894914	 0.0815563084	-0.309557
C	-1.1024885742	-0.6722576511	 0.0549580897	 0.398498
C	-1.1202462975	-2.1202380919	 0.1452671875	-0.227242
C	-2.3011188895	-2.7578932822	 0.1120490554	 0.057867
N	-3.4668825146	-2.0349385125	-0.0061521762	-0.023305
C	-4.7748171916	-2.6625656993	-0.047169365	-0.329357
N	-3.4660156071	-0.6767558927	-0.0913545052	-0.057584
N	-2.3838397439	-0.0343683277	-0.064571247	-0.2664
H	 0.6061652944	 1.7290534025	-0.8697418829	 0.118117
H	-0.9967574778	 1.8851632066	-0.1034343672	 0.129806
H	 0.4914237707	 1.8394938348	 0.8781869625	 0.11817
H	-0.1841631992	-2.6545220083	 0.2372392945	 0.125941
H	-2.4175101789	-3.8337055385	 0.1727222445	 0.137762
H	-4.9670520958	-3.2256849932	 0.8723501386	 0.143295
H	-5.5125955652	-1.8667173515	-0.144491376	 0.168487
H	-4.8562070629	-3.3401846597	-0.9037563044	 0.143292
56.7193	70.5084	108.5342	185.5967	219.795	226.3782	362.4426	447.0169	450.5948	464.3481	564.7636	665.5547	751.5936	762.4987	778.8602	829.5115	960.7577	968.7188	997.4654	1064.5601	1127.3513	1133.228	1152.8852	1171.5992	1237.3387	1283.0473	1321.6288	1424.9644	1438.3766	1457.8549	1485.4505	1488.8618	1495.7477	1508.063	1538.7136	1678.7229	1722.5536	3010.1285	3032.4924	3055.9335	3090.9727	3095.462	3163.6971	3197.4738	3230.3467
CN=C1C=CN(C)N=N1	C[N]c1ccn(C)nn1	
InChI=1S/C5H8N4/c1-6-5-3-4-9(2)8-7-5/h3-4H,1-2H3	InChI=1S/C5H13N4/c1-6-5-3-4-9(2)8-7-5/h5,7-8H,3-4H2,1-2H3
