17
gdb 54508	3.31958	1.39474	1.1115	2.4603	73.79	-0.2474	-0.0284	0.2191	1102.5753	0.134504	-421.837163	-421.828937	-421.827992	-421.870406	30.719	
C	 0.5598316173	 0.4080238833	 1.0455279879	-0.486341
C	-0.1408959224	 0.3596424846	-0.2948761063	 0.28467
O	 0.2885704399	 0.9097828878	-1.2854318261	-0.297476
C	-1.4361133823	-0.389819167	-0.3736924721	 0.295201
O	-2.1217447192	-0.6506155885	 0.8826184822	-0.287719
C	-1.6516424826	-1.7692074483	 0.1491594569	-0.027796
C	-2.6943902548	-2.4423237187	-0.7355319049	-0.294626
C	-3.0769815209	-1.3492181625	-1.7127103186	-0.082889
C	-2.3614581922	-0.2369116072	-1.5364314139	-0.12401
H	 1.5112715292	 0.9286274903	 0.9337916391	 0.139743
H	-0.0714273169	 0.925607172	 1.7745431965	 0.158134
H	 0.7290189297	-0.5984526327	 1.441709309	 0.138681
H	-0.8680639254	-2.3505727073	 0.6287205732	 0.103376
H	-2.2731581601	-3.3188182852	-1.2435164648	 0.120963
H	-3.5478522322	-2.7947064825	-0.1435970814	 0.132163
H	-3.8666472729	-1.4781706143	-2.443877285	 0.10819
H	-2.4197442043	 0.6746077859	-2.1145818919	 0.119737
58.3932	110.5179	159.2999	184.9332	301.8779	356.7414	415.2525	479.0641	516.4554	586.8333	626.8813	716.731	742.8183	795.6992	858.4642	896.7516	931.4635	945.7206	959.769	972.9759	995.124	1043.14	1050.9135	1123.2163	1133.8394	1184.9845	1265.9118	1297.9348	1325.3742	1358.3228	1385.9565	1414.9665	1455.7869	1456.9108	1470.2151	1665.0243	1795.5681	3032.0008	3047.7543	3066.9929	3109.7305	3144.7877	3157.9523	3200.1055	3241.2824
CC(=O)C12OC1CC=C2	CC(=O)[C@]12O[C@H]1CC=C2	
InChI=1S/C7H8O2/c1-5(8)7-4-2-3-6(7)9-7/h2,4,6H,3H2,1H3	InChI=1S/C7H8O2/c1-5(8)7-4-2-3-6(7)9-7/h2,4,6H,3H2,1H3/t6-,7-/m0/s1
