18
gdb 100604	2.54576	1.05788	0.89161	5.1709	71.2	-0.2445	-0.0331	0.2114	1361.4174	0.145098	-476.263963	-476.25382	-476.252875	-476.299874	34.741	
C	 0.0249597121	 1.0906346197	-1.6940214126	-0.253533
O	 0.0102540071	 0.2045879419	-0.5859266641	-0.251464
C	 1.0947822845	-0.71159472	-0.5719835448	 0.013947
C	 1.31487253	-1.1699823199	 0.8689682625	-0.402862
C	 0.8452036357	-1.9411861051	-1.4723021965	 0.382322
O	 1.7449460125	-2.62680806	-1.8839030919	-0.313097
N	-0.5147740252	-2.1737079027	-1.6876598247	-0.339735
C	-1.1119013664	-3.2172017185	-2.3874243924	 0.165791
O	-0.5492320637	-4.1146114527	-2.9499473813	-0.252267
H	 0.9415846175	 1.6959882312	-1.7035103833	 0.125874
H	-0.050503515	 0.5561343546	-2.651704107	 0.120906
H	-0.8378831062	 1.7514506582	-1.5866205989	 0.136554
H	 2.0076257992	-0.2355327422	-0.9535533677	 0.105507
H	 0.4083609915	-1.6369790195	 1.265645072	 0.128373
H	 2.1300826507	-1.8959645971	 0.9075448805	 0.14968
H	 1.5649915137	-0.3119261236	 1.497308503	 0.13124
H	-1.1243403677	-1.4823349609	-1.2685503131	 0.26686
H	-2.2159695704	-3.1110656134	-2.3592741895	 0.085904
56.0477	68.181	124.9833	163.1139	190.8653	202.8023	223.2228	249.5921	270.6104	293.9239	466.123	487.1316	547.7706	709.9538	743.7492	767.4562	871.2589	934.9152	1000.8745	1030.3951	1074.807	1118.1534	1136.2166	1142.8515	1183.1384	1202.9509	1237.065	1322.6987	1361.9231	1400.9165	1443.2813	1477.293	1486.2442	1491.102	1496.4792	1502.4028	1516.3303	1808.1694	1872.7907	2921.6604	2994.2324	3028.4443	3049.8049	3051.0498	3124.9047	3125.6204	3141.3746	3575.6131
COC(C)C(=O)NC=O	CO[C@@H](C)C(=O)NC=O	
InChI=1S/C5H9NO3/c1-4(9-2)5(8)6-3-7/h3-4H,1-2H3,(H,6,7,8)	InChI=1S/C5H9NO3/c1-4(9-2)5(8)6-3-7/h3-4H,1-2H3,(H,6,7,8)/t4-/m0/s1
