18
gdb 109753	1.95653	1.58419	1.19599	5.7471	69.07	-0.2457	0.0256	0.2713	1120.5307	0.147345	-476.225631	-476.216484	-476.21554	-476.259867	33.232	
C	-0.7743166601	 1.1314201262	 2.1188573346	-0.249345
O	-0.63716909	 0.5846174565	 0.8137394947	-0.238281
C	-1.6410454219	-0.3068922416	 0.4838993288	 0.105808
C	-1.2954765347	-1.345430624	-0.5304889735	-0.094625
N	 0.0761341022	-1.3616888853	-0.9912397721	-0.522637
H	 0.7901197816	-1.6417132686	 0.5995915153	 0.32073
H	 0.2467114226	-2.1482182893	-1.6074698917	 0.253923
H	 0.3089949748	-0.5044915645	-1.4808124434	 0.258496
C	-1.5611968909	-1.772441244	 0.918717782	-0.231859
C	-0.4899778534	-2.2502921811	 1.8665439386	 0.42786
O	-0.7793258245	-2.8107244482	 2.8947026748	-0.360513
O	 0.7773116027	-2.0018325811	 1.523725712	-0.384187
H	 0.0664852824	 1.8117439828	 2.2645825164	 0.13577
H	-1.7147380616	 1.6928226271	 2.2144169102	 0.111293
H	-0.7473588023	 0.348358269	 2.8856592616	 0.145627
H	-2.6426276894	 0.1251657497	 0.4544564318	 0.101186
H	-2.0677012611	-1.6047166621	-1.2524334274	 0.102845
H	-2.5120366864	-2.2506620415	 1.1195820773	 0.117909
72.4243	97.4267	136.6393	168.7983	207.4644	285.895	295.7528	349.3624	395.3637	472.6865	515.2066	595.6466	710.5512	756.3023	797.625	823.2971	877.6072	901.1116	932.0131	994.6488	1029.94	1045.1521	1094.524	1130.0504	1162.3451	1186.2058	1220.2727	1249.6425	1272.2716	1287.891	1350.0311	1373.6978	1443.3935	1486.6963	1489.8181	1504.6533	1507.6183	1644.92	1838.6005	3000.6639	3071.3193	3087.7166	3113.7898	3136.1674	3193.1869	3256.0997	3515.0148	3599.5097
COC1C([NH3+])C1C([O-])=O	CO[C@H]1[C@@H](N)[C@H]1C(=O)O	
InChI=1S/C5H9NO3/c1-9-4-2(3(4)6)5(7)8/h2-4H,6H2,1H3,(H,7,8)	InChI=1S/C5H9NO3/c1-9-4-2(3(4)6)5(7)8/h2-4H,6H2,1H3,(H,7,8)/t2-,3+,4-/m1/s1
