19
gdb 97929	3.57562	0.6949	0.67305	2.0243	80.66	-0.2509	0.028	0.2789	1742.4999	0.156822	-422.973027	-422.962878	-422.961933	-423.0099	36.439	
O	 0.3525932403	 0.1626251941	 1.0641003889	-0.40165
C	-0.2088126366	 0.3663217499	-0.2256254724	-0.193253
C	-1.4873060057	-0.3183951457	-0.4195078275	 0.083742
C	-2.5647583562	-0.8473890197	-0.5361508803	 0.010454
C	-3.8289167277	-1.5672897227	-0.6772785055	-0.410757
C	-3.7793561455	-2.9227313043	 0.0232785276	 0.439093
O	-2.7663311605	-3.7627854533	-0.4485655299	-0.466814
C	-4.1662123435	-3.0273664539	 1.4771598803	-0.312018
C	-5.049922831	-3.6173089357	 0.3896042433	-0.312819
H	-0.322830326	 0.3929957455	 1.7105960895	 0.287325
H	-0.3362324777	 1.4388911753	-0.4435622246	 0.119402
H	 0.5357065005	-0.011357368	-0.935191822	 0.140363
H	-4.6562594591	-0.9705768339	-0.2754176168	 0.124802
H	-4.0378760144	-1.7267509303	-1.7430908712	 0.13897
H	-1.9284357154	-3.3065107832	-0.2979328534	 0.286506
H	-3.5971904892	-3.7231150164	 2.0827783116	 0.118612
H	-4.5087706524	-2.1390436705	 1.9975180469	 0.109031
H	-5.9936089747	-3.1308804739	 0.1667893329	 0.111689
H	-5.0562525251	-4.6956624233	 0.2823284327	 0.127323
21.309	54.1915	74.4094	155.4291	219.8251	295.051	306.376	327.7601	369.3577	380.4386	405.0816	447.1222	480.8985	590.3659	740.7325	771.0834	782.7847	882.3453	919.3761	932.8201	977.1583	987.8621	1007.6757	1044.3285	1048.5432	1078.3517	1147.2964	1186.2682	1194.5418	1215.3791	1279.5083	1308.1081	1316.9127	1359.1738	1411.6329	1419.8952	1452.2717	1461.2786	1493.5394	1506.6208	2354.3742	2976.4457	3022.7625	3062.3028	3062.6239	3132.4237	3137.4319	3219.1497	3232.8796	3766.7211	3816.5222
OCC#CCC1(O)CC1	OCC#CCC1(O)CC1	
InChI=1S/C7H10O2/c8-6-2-1-3-7(9)4-5-7/h8-9H,3-6H2	InChI=1S/C7H10O2/c8-6-2-1-3-7(9)4-5-7/h8-9H,3-6H2
