16
gdb 24187	2.95551	2.45117	1.50551	1.858	82.65	-0.1777	-0.0301	0.1476	847.0821	0.127921	-363.565948	-363.559998	-363.559054	-363.595879	25.121	
C	-0.1887186011	 1.4985278555	-0.0988850639	-0.331834
C	 1.3629899087	 1.8129334932	 0.1177250602	-0.039074
C	 2.1519784819	 1.9436046736	 1.4149256552	-0.135983
C	 2.7320373931	 0.7575454102	 1.7362990017	-0.109597
C	 2.2131397518	-0.3117512791	 0.8686238272	 0.033159
C	 1.3980371581	-1.431605812	 1.0945967002	-0.164478
C	 0.1483309789	-1.2117699608	 0.4239285307	-0.182329
C	 0.2522267461	 0.007526766	-0.2399503722	 0.071227
N	 1.5671225251	 0.389178949	-0.1243170976	 0.088025
H	-0.7973725776	 1.6577883009	 0.7902168972	 0.140265
H	-0.6491450321	 1.9918980491	-0.9586900296	 0.118143
H	 1.7720521982	 2.4715568295	-0.6591437197	 0.10384
H	 2.3626284692	 2.890541254	 1.897362465	 0.102454
H	 3.392807557	 0.6024785334	 2.579886507	 0.111625
H	 1.6140643599	-2.2623820709	 1.7507634916	 0.098068
H	-0.7213820571	-1.8472670916	 0.509159977	 0.096491
208.6941	299.1479	316.9834	508.8285	541.6083	584.0035	661.5119	705.9104	728.4893	742.2029	773.219	795.8912	850.7023	859.0089	886.1649	945.568	979.6368	1005.7535	1006.5269	1041.0628	1074.2133	1105.6269	1156.6245	1199.591	1207.276	1249.5761	1274.1587	1302.1889	1318.6483	1369.6297	1374.5929	1412.9108	1467.335	1505.1609	1558.0289	3021.7319	3065.4925	3147.4731	3199.8574	3223.0137	3230.9323	3245.7749
C1C2C=CC3=CC=C1N23	C1[C@H]2C=C[C]3C=C[C]1N23	
InChI=1S/C8H7N/c1-3-7-5-8-4-2-6(1)9(7)8/h1-4,7H,5H2	InChI=1S/C8H7N/c1-3-7-5-8-4-2-6(1)9(7)8/h1-4,7H,5H2/t7-/m1/s1
