17
gdb 28210	4.67399	1.22844	0.99156	1.7131	76.68	-0.1785	0.0377	0.2162	1183.8814	0.137346	-421.851791	-421.843945	-421.843001	-421.884526	29.018	
C	 0.129184858	 1.4526080399	-0.0420595938	-0.487387
C	-0.0844829894	-0.0153503022	-0.0218041636	 0.355201
C	-1.1837032567	-0.8162635484	-0.1390746137	-0.457224
C	-0.7186039341	-2.1698551577	-0.0094994217	 0.165922
C	 0.6103671426	-2.0524111091	 0.1620947725	 0.418948
O	 1.3704852469	-3.1524157785	 0.2774140817	-0.284349
C	 0.3762075151	-4.233608245	 0.3058534392	-0.090097
C	-1.0349827281	-3.6383579854	-0.0585606988	-0.375101
O	 1.0624288283	-0.7984582061	 0.1683097789	-0.235813
H	 0.8142994163	 1.7566378644	-0.8427153919	 0.133998
H	-0.8273130021	 1.9548516486	-0.2064899941	 0.133263
H	 0.5477043586	 1.8214688723	 0.9024199138	 0.133649
H	-2.1917411933	-0.4607137326	-0.2901907032	 0.108027
H	 0.7169990555	-4.9974908308	-0.3948632802	 0.126146
H	 0.3854009273	-4.6469789963	 1.3182996204	 0.124761
H	-1.7870150761	-3.9712415767	 0.6648180841	 0.115176
H	-1.3688408586	-3.9769639765	-1.0475165497	 0.114881
76.0302	136.1695	141.4935	243.3125	266.9997	291.7951	478.8615	542.0189	612.7213	691.0655	704.9069	733.3244	800.6089	816.3093	838.7912	923.1332	931.6697	976.0306	1014.3233	1063.8183	1075.0542	1128.9479	1169.0119	1203.3914	1232.9397	1247.656	1279.4839	1360.3805	1393.945	1421.6625	1468.634	1475.0956	1496.4988	1504.9031	1522.9295	1617.8507	1692.2835	3017.3315	3020.0172	3050.9971	3065.2926	3066.2653	3122.4375	3124.2108	3247.3028
CC1=CC2=C(OCC2)O1	Cc1cc2c(OCC2)o1	
InChI=1S/C7H8O2/c1-5-4-6-2-3-8-7(6)9-5/h4H,2-3H2,1H3	InChI=1S/C7H8O2/c1-5-4-6-2-3-8-7(6)9-5/h4H,2-3H2,1H3
