19
gdb 115571	2.50685	1.11927	1.08402	2.6373	72.32	-0.2588	-0.0393	0.2195	1260.3338	0.15578	-460.150592	-460.140597	-460.139653	-460.186523	35.104	
C	-0.2003847476	 1.5314371564	 0.0067281666	-0.387395
C	-0.1822261469	 0.0498818087	 0.3988437971	-0.193143
C	-1.4272251846	-0.670696377	-0.0813984138	 0.09841
O	-1.5382088661	-0.7080257182	-1.5247435045	-0.289803
C	-1.6871299891	-2.1358756164	-1.5348806173	-0.117819
C	-1.4643558849	-2.2360437756	-0.001150523	 0.208019
O	-0.3196721272	-2.913922477	 0.4491258171	-0.476067
C	-2.6273853725	-2.8037116419	 0.7867442581	 0.131177
O	-3.7606920785	-2.416541756	 0.6676325395	-0.251667
H	 0.71828146	 2.0327095022	 0.3243823472	 0.115475
H	-0.2932892082	 1.6385204569	-1.0774417114	 0.141231
H	-1.0457225142	 2.0509780603	 0.4700551228	 0.121567
H	 0.7087807075	-0.428342117	-0.027594551	 0.080101
H	-0.112678264	-0.0622283124	 1.4877488788	 0.110937
H	-2.3301893942	-0.2250923287	 0.3561551726	 0.093991
H	-2.6802625524	-2.4490006808	-1.8758870579	 0.12263
H	-0.9136259837	-2.6399647588	-2.1289863236	 0.101578
H	 0.4451332039	-2.6071890224	-0.0477008651	 0.291854
H	-2.3410822471	-3.6149790121	 1.4899339577	 0.098922
48.3125	58.503	86.253	158.3255	202.5468	236.5786	263.536	269.8469	296.1399	390.1722	457.3044	520.9859	603.8047	683.351	764.3667	833.7307	879.7701	926.1776	940.9432	971.5493	1033.9039	1053.5583	1078.2021	1111.3554	1115.6426	1157.7177	1163.4614	1227.7753	1271.7574	1290.4175	1320.4888	1351.2521	1368.5238	1397.3683	1406.6656	1419.4261	1467.9853	1496.4315	1507.9412	1508.7468	1834.2669	2911.5002	3010.3913	3018.1532	3027.329	3040.4223	3064.1808	3071.6748	3108.4598	3122.9549	3829.3175
CCC1OCC1(O)C=O	CC[C@H]1OC[C@]1(O)C=O	
InChI=1S/C6H10O3/c1-2-5-6(8,3-7)4-9-5/h3,5,8H,2,4H2,1H3	InChI=1S/C6H10O3/c1-2-5-6(8,3-7)4-9-5/h3,5,8H,2,4H2,1H3/t5-,6-/m1/s1
