16
gdb 127238	2.53373	1.36675	0.89371	3.3424	77.63	-0.2185	-0.0331	0.1854	1246.2692	0.125277	-434.104553	-434.095874	-434.09493	-434.13811	31.191	
C	-0.0075515038	 1.4006608576	 0.1007436783	-0.317064
N	 0.011964797	-0.0401633767	-0.0131308459	 0.057093
C	-0.0843572755	-0.7871040955	-1.1158888239	-0.086459
C	-0.0101194462	-2.1225687771	-0.7225749079	 0.041127
C	-0.0474850284	-3.2818101701	-1.5883106547	 0.055075
O	-0.178347766	-3.2482241816	-2.7965116044	-0.300604
C	 0.1306985131	-2.0478243271	 0.6984349428	 0.317539
N	 0.3131376728	-3.0931987004	 1.5861696194	-0.5863
N	 0.1373720781	-0.7895584259	 1.124218512	-0.355838
H	 0.9267064775	 1.7544948397	 0.5449779425	 0.15439
H	-0.1251871501	 1.8326883862	-0.8940079678	 0.144528
H	-0.8395462466	 1.7152503484	 0.7364969517	 0.152918
H	-0.19278775	-0.3612095314	-2.1006327831	 0.162007
H	 0.0597893472	-4.258574009	-1.0619092333	 0.048147
H	-0.190904324	-3.9377207378	 1.3602259277	 0.255708
H	 0.1747923849	-2.8161969094	 2.5485125767	 0.257734
88.2065	144.2235	157.0995	178.186	222.0712	276.8375	301.1348	374.5909	403.8038	552.7927	617.355	622.5392	663.8165	689.7856	754.2514	844.21	883.7081	1009.3224	1035.5772	1076.815	1130.1564	1153.1059	1198.4508	1223.6979	1321.8152	1424.3179	1442.7911	1460.1312	1470.3966	1492.7313	1532.3406	1549.5663	1601.6057	1651.2188	1771.3204	2854.2959	3050.8405	3117.0569	3151.4491	3269.0411	3562.7681	3664.7294
CN1C=C(C=O)C(N)=N1	Cn1cc(C=O)c(N)n1	
InChI=1S/C5H7N3O/c1-8-2-4(3-9)5(6)7-8/h2-3H,1H3,(H2,6,7)	InChI=1S/C5H7N3O/c1-8-2-4(3-9)5(6)7-8/h2-3H,1H3,(H2,6,7)
