18
gdb 115182	2.55198	1.34311	1.05657	1.736	68.59	-0.2686	0.0189	0.2875	1161.1203	0.148234	-476.232575	-476.223806	-476.222862	-476.266182	32.591	
O	 0.102037148	 1.1605774029	-0.5666718532	-0.427784
C	-0.0009379232	-0.2420568155	-0.3598882581	-0.084786
C	-1.398225152	-0.5122222275	 0.1935498997	-0.061208
C	-2.5029676479	-0.1264482003	-0.804146857	-0.101854
O	-2.7061319716	-1.295627483	-1.6420682797	-0.238087
C	-2.1846246859	-2.382682632	-1.0325640006	 0.398343
N	-2.0673561914	-3.5472138505	-1.5069957456	-0.574588
C	-1.6808065666	-2.0161602901	 0.3517579175	 0.040464
O	-0.5838401256	-2.7983797448	 0.7395450101	-0.436286
H	 0.9770075971	 1.3493013916	-0.9172988778	 0.290803
H	 0.1469372932	-0.7967409651	-1.2998823008	 0.097825
H	 0.7456517317	-0.6074193889	 0.3555086765	 0.115424
H	-1.514778119	 0.0381870163	 1.1301997576	 0.095239
H	-3.4492766682	 0.1095685147	-0.3056609419	 0.115559
H	-2.2165032788	 0.7038180528	-1.4499215791	 0.143693
H	-2.4237414023	-3.6184422442	-2.4595694107	 0.230145
H	-2.5187680842	-2.1450543039	 1.058795628	 0.098826
H	-0.6351467235	-3.5975905026	 0.192379935	 0.298271
79.1299	120.0731	159.6742	201.2344	262.3373	281.7506	296.9309	402.4259	441.8219	477.7651	527.0354	613.5986	706.8412	757.958	818.5634	872.8092	879.4031	931.2144	964.7784	1018.2085	1059.1772	1079.3802	1106.4161	1149.9846	1165.1106	1195.2852	1229.2322	1244.9651	1267.2881	1280.4241	1317.3525	1353.9744	1377.6594	1414.4684	1435.082	1461.0798	1518.2397	1520.413	1780.9466	2951.765	2984.0778	3047.3834	3049.3993	3088.7745	3137.6147	3497.6212	3704.4025	3836.241
OCC1COC(=N)C1O	OC[C@H]1CO[C]([NH])[C@H]1O	
InChI=1S/C5H9NO3/c6-5-4(8)3(1-7)2-9-5/h3-4,6-8H,1-2H2	InChI=1S/C5H9NO3/c6-5-4(8)3(1-7)2-9-5/h3-4,6-8H,1-2H2/t3-,4-/m0/s1
