18
gdb 18589	4.10904	1.72742	1.35178	1.4344	74.88	-0.2217	0.02	0.2417	935.4721	0.155177	-347.784545	-347.777358	-347.776414	-347.815771	28.171	
O	-0.2173737374	 1.4291505497	-0.0769530749	-0.427042
C	 0.0033375053	 0.0452118837	 0.0007658017	 0.04085
C	 0.295054013	-0.6372763467	 1.4004015673	-0.289536
C	-0.687417163	-1.7895014492	 0.9903566818	-0.037583
C	-1.9468185768	-2.2197694977	 1.7722283389	-0.235682
C	-3.1242829811	-1.888546387	 0.7942173502	-0.236928
C	-2.5530697882	-0.7747025518	-0.080500278	-0.226178
C	-1.2271368785	-0.816285622	-0.0272017018	 0.283843
H	 0.6341855138	 1.8675498987	-0.1672084088	 0.284655
H	 0.7561335225	-0.2841736887	-0.7320490213	 0.075066
H	 1.3332421359	-0.8999140997	 1.6217208781	 0.090547
H	-0.1183809958	-0.0178182752	 2.2003732002	 0.111199
H	-0.1396655628	-2.6391586718	 0.5663495091	 0.070148
H	-1.9356216271	-3.2693411096	 2.080395654	 0.091969
H	-2.0511592935	-1.6126901298	 2.6785122141	 0.101732
H	-3.415884685	-2.7688615736	 0.2036512155	 0.103218
H	-4.0251512774	-1.5670790724	 1.3283338693	 0.101161
H	-3.1651886338	-0.0301068169	-0.5746242053	 0.098561
130.6745	146.6009	245.8115	268.8593	328.8588	417.5841	513.3148	590.0543	658.4448	659.8598	800.5204	817.7569	847.6633	869.4531	905.9354	940.9457	946.9972	975.8038	1016.3543	1065.8059	1086.5103	1104.0364	1148.4505	1172.8271	1196.6334	1206.7198	1229.9714	1237.8358	1267.8627	1290.098	1307.739	1331.8322	1340.2734	1437.5544	1471.3739	1483.5061	1497.7614	1743.1407	2977.4383	3004.4158	3030.2576	3039.7403	3053.244	3062.2825	3092.4896	3122.9193	3206.5775	3824.0463
OC1CC2CCC=C12	O[C@H]1C[C@H]2CC[CH][C]12	
InChI=1S/C7H10O/c8-7-4-5-2-1-3-6(5)7/h3,5,7-8H,1-2,4H2	InChI=1S/C7H10O/c8-7-4-5-2-1-3-6(5)7/h3,5,7-8H,1-2,4H2/t5-,7+/m1/s1
