19
gdb 87441	4.3387	1.28644	1.16975	1.5161	81.19	-0.2254	0.0745	0.3	1106.8879	0.159476	-381.925391	-381.917908	-381.916964	-381.957133	29.861	
C	-0.133844958	 1.4694193378	-0.1142704496	-0.316325
N	 0.0185806606	 0.0225265746	-0.0195922954	-0.162642
C	 1.3819468327	-0.5104605882	-0.2239406581	-0.340706
C	 0.744280697	-0.5025630132	 1.1046746883	 0.464139
C	 1.1356284222	 0.090145189	 2.4501342161	-0.133569
C	-0.1267030659	-0.4900611699	 3.1678356578	-0.058529
C	 0.7835438508	-1.1494995482	 4.1950244043	-0.188586
N	 1.6305798778	-1.3093240596	 2.9329748058	-0.162513
C	 0.3237721801	-1.5528182865	 2.1133189858	-0.128804
H	 0.7363263892	 2.0314028978	 0.2630913956	 0.100291
H	-0.2901321209	 1.7462055759	-1.1614842716	 0.125264
H	-1.0163353604	 1.7801645304	 0.454310009	 0.123155
H	 1.4497914112	-1.4208571094	-0.813178732	 0.120107
H	 2.1834569999	 0.2074291839	-0.3960897721	 0.109916
H	 1.6976575062	 0.988395141	 2.7093481722	 0.085845
H	-1.1127292474	-0.0260735589	 3.2734323376	 0.071726
H	 1.2524731852	-0.5175129977	 4.9564515058	 0.100934
H	 0.468689354	-2.1034106698	 4.6305451967	 0.102446
H	-0.0628486541	-2.5623655091	 1.9706055637	 0.08785
123.2309	167.595	201.8938	231.6766	341.7813	426.2945	480.9366	521.4474	589.4182	709.4999	788.0395	817.784	834.9945	838.3229	877.0285	885.5578	922.1992	974.0317	1028.3748	1037.0061	1044.2769	1063.2982	1089.7849	1096.5524	1116.2158	1126.6281	1156.4807	1164.8434	1171.3815	1179.9692	1199.4342	1225.984	1244.2431	1271.8399	1287.0422	1448.1387	1460.1076	1493.5861	1496.8089	1522.1539	1533.2387	2967.7611	3034.8423	3051.888	3067.2031	3089.4948	3094.9412	3102.9828	3107.4972	3117.2712	3178.8673
CN1CC11C2C3CN2C13	CN1C[C@]21[C@H]1[C@@H]3CN1[C@H]23	
InChI=1S/C7H10N2/c1-8-3-7(8)5-4-2-9(5)6(4)7/h4-6H,2-3H2,1H3	InChI=1S/C7H10N2/c1-8-3-7(8)5-4-2-9(5)6(4)7/h4-6H,2-3H2,1H3/t4-,5+,6-,7-,8?
