19
gdb 31049	2.42184	1.30687	0.87136	1.9506	82.36	-0.16	0.0504	0.2104	1342.7242	0.158921	-419.229388	-419.219487	-419.218543	-419.264513	35.695	
C	 0.0467041914	 1.4244541431	-0.0604243237	-0.322255
N	-0.0546532665	 0.0861812667	 0.5081412953	-0.392798
C	-1.2189674578	-0.6452510134	 0.2442266908	 0.203645
C	-1.3214277576	-1.9811189625	-0.0102711358	 0.249839
C	-0.3486975325	-3.0919322162	-0.1527967161	-0.50131
O	-2.669627533	-2.3146111573	-0.1223253459	-0.215893
C	-3.3786603994	-1.1806226716	 0.0392324706	 0.377383
N	-4.7596822877	-1.3349220073	 0.0196366418	-0.597109
C	-2.5623114781	-0.114495823	 0.2649447998	-0.346452
H	 1.0202343031	 1.8473442891	 0.2021153591	 0.118275
H	-0.0660757277	 1.4571467629	-1.1562469706	 0.105206
H	-0.7189634161	 2.073296539	 0.3753180514	 0.130944
H	 0.7765329412	-0.4592017967	 0.3235537516	 0.224532
H	 0.6660130321	-2.6932037573	-0.2541993255	 0.115759
H	-0.344960186	-3.7767458801	 0.7065010583	 0.128211
H	-0.5535687159	-3.6937983676	-1.0466907105	 0.128244
H	-5.0537206315	-2.0784726204	-0.601549314	 0.251981
H	-5.2432132703	-0.4755705032	-0.2020439041	 0.251851
H	-2.8660812576	 0.9048387257	 0.4370369774	 0.089947
46.5939	116.3305	148.8384	174.4018	186.8263	203.9249	243.3804	261.4977	344.8695	400.529	510.2908	574.2702	632.9236	640.8389	680.3707	683.4032	712.7083	749.4823	823.2201	951.559	1035.5709	1055.4701	1059.2523	1099.6725	1117.3472	1151.8161	1194.2794	1218.7795	1242.0213	1389.2345	1418.4669	1450.6058	1465.4624	1468.8127	1490.8493	1495.7439	1500.1622	1518.1742	1615.7594	1662.3255	1699.4711	2971.0221	3002.4743	3049.4844	3073.5036	3093.4337	3112.8599	3264.9265	3541.5359	3569.924	3643.3988
CNC1=C(C)OC(N)=C1	CNc1c(C)oc(N)c1	
InChI=1S/C6H10N2O/c1-4-5(8-2)3-6(7)9-4/h3,8H,7H2,1-2H3	InChI=1S/C6H10N2O/c1-4-5(8-2)3-6(7)9-4/h3,8H,7H2,1-2H3
