20
gdb 112890	2.3129	1.4467	1.12944	2.8228	76.23	-0.2271	0.0233	0.2504	1180.6702	0.17129	-440.326857	-440.317599	-440.316655	-440.360982	34.179	
C	 0.1402715972	 0.6909968709	-0.5709218455	-0.245141
O	 0.0219427384	-0.5353124372	 0.1341576827	-0.254931
C	 0.6328021223	-0.5273767118	 1.4161538165	 0.013473
C	 0.2664829475	-1.8188408757	 2.147697612	-0.254089
C	 1.3962637855	-2.8194405526	 1.7902048668	 0.032009
C	 1.0694062773	-3.7085117316	 0.5857749897	-0.390305
N	 2.510461786	-1.9127863216	 1.5290485173	-0.300336
C	 2.1682128038	-0.6198423209	 1.2567195007	 0.399279
O	 2.9189011697	 0.2681189231	 0.9062071606	-0.3894
H	 1.1858209873	 0.9564897664	-0.7588050414	 0.145178
H	-0.3848246672	 0.5566995445	-1.519507603	 0.122033
H	-0.3342378988	 1.5121027254	-0.0119522053	 0.104637
H	 0.3551677458	 0.3826289612	 1.9645599895	 0.082839
H	 0.2600773141	-1.637669329	 3.2259324099	 0.111834
H	-0.7202868252	-2.1771151452	 1.8494323148	 0.119644
H	 1.6343823002	-3.4515468922	 2.6534324188	 0.083412
H	 0.7648548549	-3.0917649137	-0.2639957832	 0.14465
H	 1.9374345876	-4.3086595279	 0.2928928558	 0.109928
H	 0.2530447931	-4.3962137996	 0.8299694497	 0.117487
H	 3.4424723906	-2.2392589624	 1.3221410932	 0.247799
77.7219	109.4029	120.3779	184.0006	240.7142	260.1752	305.1846	351.6515	394.122	438.7248	483.5026	537.7155	667.1847	735.1599	746.7761	789.202	868.9943	918.6389	950.5518	994.1036	1027.4408	1052.5605	1117.2401	1136.7137	1137.6503	1186.8221	1216.4287	1224.9819	1259.4335	1292.7378	1308.9684	1351.1205	1375.2446	1393.4719	1407.3609	1438.3488	1474.2675	1477.4993	1482.4126	1494.4304	1501.6277	1516.4168	1815.7104	2989.8231	3018.2455	3030.6701	3034.772	3071.3995	3075.2822	3101.0948	3124.6953	3126.9456	3128.9092	3623.0258
COC1CC(C)NC1=O	CO[C@H]1C[C@@H](C)NC1=O	
InChI=1S/C6H11NO2/c1-4-3-5(9-2)6(8)7-4/h4-5H,3H2,1-2H3,(H,7,8)	InChI=1S/C6H11NO2/c1-4-3-5(9-2)6(8)7-4/h4-5H,3H2,1-2H3,(H,7,8)/t4-,5+/m1/s1
