15
gdb 34283	3.62262	1.51413	1.36072	1.6949	70.77	-0.2533	-0.0083	0.245	948.7234	0.112608	-420.572533	-420.565609	-420.564665	-420.603604	28.028	
C	 0.0665880471	-1.1603886142	 0.0243580256	-0.311758
C	 0.0513130334	 0.0400727325	-0.0025178149	 0.065733
C	-0.0249295289	 1.4798152215	-0.0170832562	 0.222344
C	-0.6506388	 2.168757586	 1.257971132	-0.108981
O	-0.1139276503	 3.4864793497	 1.1765711365	-0.270062
C	 0.7350710292	 3.4426656302	 0.0023583815	 0.109626
O	 1.2647131508	 2.1388706678	 0.0240404175	-0.25261
C	-0.2009560402	 3.4135316798	-1.2019719484	-0.083539
C	-0.6934755157	 2.1758931163	-1.206100124	-0.140773
H	 0.0935177166	-2.222240592	 0.0402375677	 0.193402
H	-1.7441009222	 2.1829521976	 1.2332193544	 0.110962
H	-0.2959788497	 1.6724174482	 2.1659416843	 0.12176
H	 1.5060973054	 4.2050983529	 0.0823078248	 0.099023
H	-0.4885660636	 4.2660045095	-1.8005361389	 0.121588
H	-1.483154912	 1.7398392341	-1.8003536318	 0.123286
144.5945	157.4937	289.6364	400.1813	467.277	486.4964	515.3054	557.9683	633.5265	644.0359	688.09	719.2911	736.1706	813.854	839.4957	858.8299	908.9144	934.1934	939.0454	975.0582	1025.7281	1047.1662	1098.5376	1125.506	1199.8956	1251.9117	1278.1894	1311.5661	1327.5696	1354.0011	1511.0757	1636.5844	2252.3314	3047.8634	3103.395	3162.976	3229.6903	3255.401	3500.262
C#CC12COC(O1)C=C2	C#C[C@@]12CO[C@@H](O1)C=C2	
InChI=1S/C7H6O2/c1-2-7-4-3-6(9-7)8-5-7/h1,3-4,6H,5H2	InChI=1S/C7H6O2/c1-2-7-4-3-6(9-7)8-5-7/h1,3-4,6H,5H2/t6-,7+/m0/s1
