20
gdb 114521	2.99472	1.20821	1.01357	3.2475	75.73	-0.2153	0.0626	0.2779	1240.9888	0.170648	-440.223865	-440.215075	-440.214131	-440.257544	32.952	
C	-0.1649278767	 1.5465384849	 0.116571416	-0.32831
N	 0.1179280576	 0.129288926	 0.1159108597	-0.066112
C	-1.0285793119	-0.8086042519	 0.2070295499	-0.193776
C	-0.2835305673	-1.6061331582	 1.2927178992	 0.112578
O	 0.6965642574	-2.5393159536	 0.7964149663	-0.335653
C	 1.7810795234	-1.570070021	 0.9679184123	 0.12577
C	 2.6317184485	-1.4863237689	-0.2835613074	-0.080355
O	 3.1446065726	-2.7671788702	-0.6134180805	-0.424996
C	 0.7596537333	-0.4642772914	 1.3111889163	-0.088582
H	 0.7711993758	 2.1137813219	 0.1441249342	 0.123948
H	-0.6895990995	 1.8162101899	-0.8060300721	 0.126048
H	-0.7907635738	 1.8743016466	 0.9691626708	 0.089961
H	-1.9401781736	-0.336735283	 0.6069290894	 0.090948
H	-1.2689191403	-1.3384322072	-0.7204587253	 0.11167
H	-0.8443600555	-1.9983829319	 2.1427076012	 0.08725
H	 2.3944541918	-1.8641126063	 1.8305318016	 0.080118
H	 2.03292343	-1.0585210133	-1.097460051	 0.102552
H	 3.4939362084	-0.8323334494	-0.1096854987	 0.101278
H	 2.3793411188	-3.3520617824	-0.6676345638	 0.29234
H	 0.959435731	 0.2116259792	 2.1456086121	 0.073323
86.5973	101.0013	141.9947	208.5828	230.1687	293.1917	338.4668	387.7872	431.3164	481.3011	521.1301	689.573	746.1444	825.0239	838.0482	867.4449	942.0322	978.5506	995.4511	1027.3258	1035.0966	1063.9384	1077.2567	1121.4688	1140.2198	1168.1296	1185.9215	1194.7141	1210.2314	1226.2028	1247.749	1293.8048	1300.6021	1317.9409	1345.5027	1353.8595	1398.6502	1434.8534	1453.9379	1482.4892	1498.4262	1502.0773	1507.3822	2918.5466	2978.1692	3014.1838	3025.8255	3056.9077	3071.8027	3075.8256	3082.1787	3097.3795	3100.5407	3792.7103
CN1CC2OC(CO)C12	CN1C[C@H]2O[C@@H](CO)[C@@H]12	
InChI=1S/C6H11NO2/c1-7-2-4-6(7)5(3-8)9-4/h4-6,8H,2-3H2,1H3	InChI=1S/C6H11NO2/c1-7-2-4-6(7)5(3-8)9-4/h4-6,8H,2-3H2,1H3/t4-,5+,6+/m1/s1
