16
gdb 112230	1.86085	0.68816	0.56075	5.7668	74.77	-0.2742	-0.0599	0.2142	1911.3703	0.120672	-434.100705	-434.089729	-434.088785	-434.14218	35.163	
N	-0.4830782311	 1.5157355678	 0.0727818351	-0.495232
H	-0.7918962047	 0.6575373355	-0.3733049195	 0.25566
H	 0.4347334191	 1.7239562915	-0.3120290295	 0.25138
H	-1.465296361	 3.0281865987	-0.4814001588	 0.308564
C	-0.3948315442	 1.319473044	 1.5317872358	-0.246022
C	-0.2250207866	 2.6373775991	 2.232336338	 0.016235
N	-1.8550051662	 3.9339363807	-0.7857655485	-0.60713
C	-2.9909411528	 4.3352349063	-0.7141917773	 0.503345
O	-4.0538268877	 4.8314279226	-0.6986139454	-0.29751
C	-0.7799472267	 2.9741293713	 3.4018345588	-0.187644
C	-1.6380962987	 2.1058261294	 4.1375388107	 0.270612
N	-2.3327690987	 1.401163834	 4.7402161288	-0.330118
H	-1.3130948237	 0.8333934438	 1.8730331199	 0.153543
H	 0.4372111714	 0.6542156203	 1.816256354	 0.128273
H	 0.4158407219	 3.3664448909	 1.7420461557	 0.128299
H	-0.5887602603	 3.9443027742	 3.8481504323	 0.147742
9.0197	18.1302	38.7182	56.5278	115.4015	131.1485	179.6076	258.5227	299.3623	362.6542	414.2386	563.4488	599.2194	668.2888	691.5302	754.845	770.4005	888.4242	899.9414	972.3974	989.9367	1018.5169	1033.9733	1080.3727	1185.5139	1269.7853	1315.1285	1341.9214	1388.2534	1437.6593	1490.2698	1654.4	1693.9453	2337.8111	2359.1727	2968.4594	3092.2704	3165.355	3192.4094	3193.706	3494.4149	3573.6805
[NH3+]CC1[N-]C(=O)C1C#N	NCC=CC#N.N=C=O	
InChI=1S/C5H7N3O/c6-1-3-4(2-7)8-5(3)9/h3-4H,2,7H2,(H,8,9)	InChI=1S/C4H6N2.CHNO/c5-3-1-2-4-6;2-1-3/h1-2H,3,5H2;2H
