17
gdb 67822	2.59078	2.29732	1.60997	2.5639	70.89	-0.2356	0.0048	0.2404	858.138	0.13757	-421.794023	-421.787368	-421.786424	-421.824632	27.943	
O	-0.0267313902	 1.4019558727	-0.060489889	-0.496638
C	 0.0364641887	 0.0080765123	-0.1061334615	 0.403078
C	 0.5925552125	-0.6376569271	-1.3428691261	-0.175531
C	 0.0786267869	-1.8700715913	-1.4307936702	-0.084017
C	-0.7227097622	-2.142739488	-0.1772522578	-0.120675
C	 0.3272881584	-2.1974316957	 1.0038255193	-0.213932
C	 0.2820790447	-0.7004850661	 1.3160630819	-0.011501
O	-1.1393584465	-0.5361684037	 1.600192001	-0.296334
C	-1.2972220238	-0.7170043316	 0.1824567709	 0.059812
H	 0.840802881	 1.7413593475	 0.1807827983	 0.282263
H	 1.2791800622	-0.1529545801	-2.0257223328	 0.098984
H	 0.2906348534	-2.6113807292	-2.1919455266	 0.102614
H	-1.429156127	-2.9699325618	-0.2110776785	 0.073115
H	-0.0336915083	-2.7615642379	 1.8665774837	 0.11208
H	 1.2967632567	-2.5834942234	 0.6832358462	 0.098212
H	 0.9430234122	-0.2695099574	 2.0687267076	 0.077732
H	-2.2558898288	-0.4008043091	-0.2292009864	 0.090738
147.2484	274.7156	316.5855	378.1937	397.7247	502.5257	537.1884	623.7726	654.73	710.1174	741.3226	787.4753	842.7592	860.6162	887.1095	923.9556	943.4951	947.1108	959.7059	988.3209	1010.5946	1027.215	1078.4124	1086.5754	1140.0733	1150.5845	1198.5705	1219.8906	1236.3195	1263.4592	1265.9425	1297.8937	1318.363	1350.713	1389.4744	1477.5905	1640.4805	3072.0217	3119.4605	3123.5922	3130.1387	3134.7587	3193.3691	3218.8071	3817.4271
OC12C=CC3CC1OC23	O[C@@]12C=C[C@H]3C[C@@H]1O[C@@H]23	
InChI=1S/C7H8O2/c8-7-2-1-4-3-5(7)9-6(4)7/h1-2,4-6,8H,3H2	InChI=1S/C7H8O2/c8-7-2-1-4-3-5(7)9-6(4)7/h1-2,4-6,8H,3H2/t4-,5-,6+,7-/m0/s1
