17
gdb 37370	2.52458	2.03767	1.95167	1.7644	64.91	-0.2427	0.0651	0.3078	835.023	0.139051	-458.932886	-458.926577	-458.925633	-458.963312	26.137	
C	-0.0034972296	 1.387387317	 0.2641082768	-0.055516
C	 1.3875882735	 2.0102526333	-0.0255685027	-0.228374
C	 2.12378524	 1.2623377339	-1.146336201	 0.028889
O	 2.0822757691	-0.1357202319	-0.7909238558	-0.256507
C	 0.7332902787	-0.4791867298	-1.0720095209	 0.134866
O	-0.120633309	-0.0082279757	-0.0713002902	-0.26194
C	 0.5092802032	 0.1468858724	-2.4742803801	 0.025225
O	-0.0007056371	 1.4847258164	-2.4654631787	-0.244619
C	 1.4210232059	 1.2880027327	-2.5153734093	 0.014476
H	-0.2133961464	 1.4405114222	 1.3369964583	 0.101153
H	-0.7793933795	 1.9410322091	-0.2665058196	 0.123943
H	 1.2669799115	 3.0714497017	-0.2660248297	 0.108334
H	 2.0198862678	 1.9394728648	 0.8641899886	 0.114076
H	 3.1713758516	 1.5623662265	-1.2176329033	 0.08565
H	 0.6428175104	-1.5671518166	-1.0701696565	 0.09416
H	 0.2360986691	-0.4679613728	-3.3264298947	 0.10774
H	 1.9212816907	 1.6526493969	-3.4070478712	 0.108443
192.0688	225.4782	297.253	396.4971	473.5645	559.626	578.3168	653.4402	736.1928	778.0861	809.9612	830.4823	883.5665	890.5874	912.1326	919.301	952.9901	995.4559	1010.9492	1059.0162	1067.1776	1092.6943	1096.0737	1155.8096	1238.8495	1256.9259	1269.0343	1293.0789	1308.3679	1319.8434	1351.8714	1372.6723	1382.9918	1419.6351	1428.5758	1477.3164	1518.2941	3046.0075	3056.4789	3088.2658	3093.2627	3104.0714	3114.7911	3158.402	3170.904
C1CC2OC(O1)C1OC21	C1C[C@H]2O[C@@H](O1)[C@H]1O[C@@H]21	
InChI=1S/C6H8O3/c1-2-7-6-5-4(9-5)3(1)8-6/h3-6H,1-2H2	InChI=1S/C6H8O3/c1-2-7-6-5-4(9-5)3(1)8-6/h3-6H,1-2H2/t3-,4+,5+,6-/m1/s1
