18
gdb 45702	2.96056	1.63557	1.09261	3.9093	78.86	-0.2028	0.0039	0.2067	1088.3321	0.150442	-402.013931	-402.006487	-402.005543	-402.045944	28.904	
O	 0.0804110033	-0.0020080229	 0.0157631564	-0.383867
C	 0.0186553448	 1.2076666473	 0.0100547238	 0.382238
C	-1.2283767145	 2.1197273789	 0.0727690932	-0.388044
C	-0.6636471864	 3.5238372247	 0.0780314664	-0.308288
C	 0.666825322	 3.4257501435	 0.002021354	 0.409588
C	 1.8965429396	 4.2856877422	-0.0340156985	-0.346792
C	 3.0125182583	 3.3002220214	 0.413068935	-0.219456
C	 2.5211864574	 1.9071433914	-0.053373497	-0.175667
N	 1.0804612535	 2.081961449	-0.0506480527	-0.091895
H	-1.8696389576	 1.9062024687	-0.7911157897	 0.141524
H	-1.8174871476	 1.8724622133	 0.9636507818	 0.140305
H	-1.244628559	 4.4312838911	 0.1360800095	 0.101194
H	 2.081067662	 4.6373751865	-1.0567319431	 0.126784
H	 1.8227659842	 5.1679977565	 0.6051004203	 0.126225
H	 3.9924734991	 3.5547728293	 0.0047480961	 0.111772
H	 3.0924437306	 3.3097234908	 1.5043208445	 0.121058
H	 2.8851949431	 1.6626696494	-1.0597494261	 0.118237
H	 2.8173711573	 1.0950497889	 0.615218816	 0.135083
106.7274	145.2278	198.8308	249.4212	290.8362	504.1426	542.0511	582.2434	597.495	627.659	698.947	714.0032	753.5956	862.1879	887.6822	916.9274	945.1459	973.3106	986.2147	1027.606	1065.7923	1092.5848	1143.4746	1176.1874	1196.4513	1227.1069	1253.8758	1260.6808	1302.5533	1314.1923	1338.7231	1362.1994	1411.8628	1439.99	1479.4961	1496.3878	1526.2298	1720.731	1817.6238	3020.3078	3034.1324	3039.9722	3061.727	3071.2178	3096.711	3107.0858	3120.6262	3248.3364
O=C1CC=C2CCCN12	O=C1CC=C2CCCN12	
InChI=1S/C7H9NO/c9-7-4-3-6-2-1-5-8(6)7/h3H,1-2,4-5H2	InChI=1S/C7H9NO/c9-7-4-3-6-2-1-5-8(6)7/h3H,1-2,4-5H2
