25
gdb 116180	2.08948	1.32977	1.0263	1.2549	87.78	-0.2609	0.0731	0.334	1325.2094	0.228895	-389.509425	-389.499091	-389.498146	-389.544341	39.433	
C	 0.415316593	 1.3814086391	-0.4591769518	-0.423028
C	-0.0157053794	-0.0286347293	-0.0091429846	 0.270138
C	-1.5237176022	-0.0351374191	 0.2699219733	-0.439867
C	 0.3695244061	-1.0725815235	-1.0844477644	-0.220253
C	 1.8766933734	-1.3468166658	-0.88406455	-0.224094
C	 2.1681832924	-0.9973848614	 0.602263936	-0.215714
C	 0.8170772103	-0.5401153152	 1.2024037613	 0.049891
C	 0.9628363226	 0.4181624117	 2.3752746972	-0.116011
O	 1.6031852591	-0.2915243807	 3.4304814586	-0.425399
H	 1.4911215839	 1.4448219398	-0.6503492816	 0.113663
H	-0.100996495	 1.6579164102	-1.3850167827	 0.108674
H	 0.1664556085	 2.1390266726	 0.2912547409	 0.110114
H	-2.0901015392	 0.2351225373	-0.6286056359	 0.107902
H	-1.8614385703	-1.026423747	 0.5913604422	 0.109352
H	-1.7954130637	 0.6813801312	 1.0529663918	 0.107977
H	-0.2040946933	-1.9903565364	-0.9063890791	 0.089057
H	 0.1259069831	-0.7361671108	-2.0977311875	 0.085454
H	 2.1304201014	-2.3830677423	-1.1236861548	 0.094807
H	 2.4765730511	-0.7209349573	-1.5518255181	 0.096893
H	 2.5821436154	-1.8392820202	 1.1607504843	 0.107465
H	 2.9063107935	-0.190810229	 0.6746561583	 0.092034
H	 0.2980367633	-1.426689788	 1.5920577495	 0.072499
H	 1.5602555829	 1.2938542212	 2.0764459353	 0.08288
H	-0.0255311692	 0.7862207325	 2.6953541313	 0.081515
H	 1.7408194621	 0.3181293103	 4.1611614905	 0.284051
71.3463	100.7592	138.343	193.2892	229.7059	246.4716	266.9042	281.8744	314.6706	342.5533	363.0726	474.2923	483.509	554.171	633.1927	728.8399	800.8883	832.1722	883.3919	901.7178	947.1726	950.9743	984.5236	996.5146	1025.2359	1036.8323	1071.7507	1076.9758	1098.2211	1127.7298	1185.1715	1214.808	1241.1773	1245.4553	1259.068	1264.4163	1291.2185	1314.5399	1330.1755	1331.0717	1358.1581	1377.0482	1401.2724	1422.3471	1460.9104	1482.6007	1482.9924	1490.5843	1498.7174	1507.8369	1508.7706	1514.7199	1523.4436	2962.4517	2989.4172	3012.5231	3021.6149	3026.8036	3032.5967	3040.9051	3053.8959	3069.7194	3085.9727	3086.6673	3092.9388	3094.0128	3102.2367	3108.7461	3829.1382
CC1(C)CCCC1CO	CC1(C)CCC[C@H]1CO	
InChI=1S/C8H16O/c1-8(2)5-3-4-7(8)6-9/h7,9H,3-6H2,1-2H3	InChI=1S/C8H16O/c1-8(2)5-3-4-7(8)6-9/h7,9H,3-6H2,1-2H3/t7-/m0/s1
