17
gdb 45179	2.84601	1.88556	1.61865	3.7662	70.82	-0.2207	-0.0172	0.2035	879.6923	0.139759	-417.970943	-417.964618	-417.963674	-418.001519	26.51	
O	 0.0115597974	 0.0029106745	-0.1095004201	-0.327506
C	-0.0057266978	 1.201092324	 0.0157192729	 0.427374
C	-1.2864017078	 2.0476708054	 0.1017115527	-0.308321
C	-0.9013826099	 3.3623727619	 0.7745689467	-0.050448
N	-0.1088231495	 2.9694028298	 1.9989598435	-0.32731
C	 1.1125802139	 3.1673835915	 1.1831562578	-0.00495
C	 0.3989335652	 3.9906399646	 0.0963883905	-0.01025
N	 1.0418729674	 3.1946633381	-0.9540188618	-0.314723
C	 1.2367772843	 2.0863292424	 0.0352075164	-0.112073
H	-1.7021214688	 2.1989507809	-0.9023371949	 0.118099
H	-2.0282340761	 1.5011404038	 0.6887194281	 0.138196
H	-1.7478577836	 4.0260540146	 0.958480767	 0.076029
H	-0.1559345903	 3.7142360361	 2.6903673076	 0.222318
H	 2.0380837813	 3.4374016174	 1.6902523375	 0.087936
H	 0.4222267725	 5.0774345249	-0.0114704895	 0.077102
H	 0.4825615239	 2.9601704427	-1.7723085777	 0.219094
H	 2.158049648	 1.5118465875	-0.0695766565	 0.089433
111.7116	331.0479	376.8632	406.3552	451.7955	521.1888	592.3459	637.1112	707.7615	747.6879	779.6115	791.7453	832.4156	879.6718	914.693	950.5385	974.4618	999.6569	1009.3503	1038.549	1057.0648	1075.2043	1094.2792	1132.1315	1172.8454	1206.0605	1232.8987	1237.2283	1259.6161	1278.685	1311.5584	1333.1208	1353.5635	1361.9025	1382.3011	1446.9518	1835.6819	3040.1234	3079.874	3096.1525	3106.044	3112.6611	3123.8862	3470.7139	3491.9663
O=C1CC2NC3C2NC13	O=C1C[C@H]2N[C@@H]3[C@H]2N[C@H]13	
InChI=1S/C6H8N2O/c9-3-1-2-4-6(7-2)5(3)8-4/h2,4-8H,1H2	InChI=1S/C6H8N2O/c9-3-1-2-4-6(7-2)5(3)8-4/h2,4-8H,1H2/t2-,4+,5-,6-/m1/s1
