23
gdb 63057	3.03708	1.61527	1.38222	0.0845	88.6	-0.2662	0.0889	0.3551	1060.1399	0.207891	-351.129518	-351.1217	-351.120756	-351.161053	33.134	
C	-0.151131163	 1.593868389	 0.0070573817	-0.467324
C	-0.0075767689	 0.0702581943	 0.0063641738	 0.347184
C	-1.3959292709	-0.5569899335	-0.1785675369	-0.449109
C	 1.0786783992	-0.6232936848	-0.8965344509	-0.073826
C	 2.3659114904	 0.1389400425	-0.5388225068	-0.223974
C	 2.355146681	-0.2866609188	 0.951124463	-0.051465
C	 2.5870337491	-1.8121525061	 0.8016939032	-0.245539
C	 1.1785125495	-1.7894301011	 0.1922174249	-0.03398
C	 0.7994506684	-0.6035450845	 1.1352395835	-0.049833
H	 0.760756851	 2.1126791146	 0.309938456	 0.114455
H	-0.4382695761	 1.9657036417	-0.984114627	 0.110055
H	-0.9395202272	 1.8949394412	 0.7066503553	 0.108858
H	-1.851738089	-0.202780302	-1.1106294034	 0.108936
H	-1.3680438108	-1.6484036547	-0.2187765305	 0.11338
H	-2.0650942663	-0.2715347588	 0.6413069507	 0.108431
H	 0.8746932186	-0.8346583045	-1.9474761822	 0.050929
H	 3.2526115187	-0.2384205833	-1.0572149518	 0.088132
H	 2.3021154232	 1.2121416261	-0.7218227433	 0.091671
H	 2.9145510171	 0.3133324076	 1.668447223	 0.057072
H	 3.4442019429	-2.1442047542	 0.2059295945	 0.084478
H	 2.5783782111	-2.3387746742	 1.761010121	 0.092081
H	 0.5737653219	-2.6827786744	 0.0542381385	 0.065577
H	 0.4300758803	-0.7394664622	 2.1530960637	 0.053812
171.593	192.1938	221.5307	266.8022	317.5652	379.5738	447.6695	502.1881	506.5583	578.358	685.9886	730.7495	798.9986	830.0821	839.4184	869.6408	917.1298	924.586	931.6962	949.1048	964.5349	979.9983	984.2256	1009.7078	1014.3704	1039.3942	1070.4123	1083.2724	1142.7303	1149.6127	1179.6776	1184.5762	1201.6574	1215.2331	1226.4996	1241.4516	1248.9052	1281.6752	1293.2734	1319.1116	1338.5708	1400.5381	1420.0032	1483.1492	1484.714	1495.4907	1504.4219	1506.7811	1529.5995	3022.9278	3028.5323	3034.5571	3058.5754	3078.5248	3083.9679	3091.2299	3096.829	3098.7969	3108.1537	3114.2408	3116.6485	3126.048	3139.6125
CC1(C)C2CC3CC2C13	CC1(C)[C@H]2C[C@@H]3C[C@H]2[C@H]13	
InChI=1S/C9H14/c1-9(2)7-4-5-3-6(7)8(5)9/h5-8H,3-4H2,1-2H3	InChI=1S/C9H14/c1-9(2)7-4-5-3-6(7)8(5)9/h5-8H,3-4H2,1-2H3/t5-,6+,7-,8+/m0/s1
