18
gdb 88301	2.51607	1.10085	0.96845	2.435	77.91	-0.265	-0.0376	0.2273	1300.1561	0.146185	-401.975251	-401.96586	-401.964916	-402.01066	33.559	
C	 0.554992438	 1.9404695671	 0.1185117029	-0.42102
C	 0.011293429	 0.5784846746	 0.4818647769	 0.016343
C	 0.6330282422	-0.6797739624	-0.0103594962	-0.293281
C	 0.7291763616	-0.3622022115	 1.4756493821	-0.126866
C	 2.0447938798	 0.0163901714	 2.0339088997	 0.393904
O	 2.9718758055	 0.4415527384	 1.3819197821	-0.319613
C	 2.2452033887	-0.1930465663	 3.5572232252	-0.435418
C	 1.0985145193	 0.1794860205	 4.3756868582	 0.261181
N	 0.1773486269	 0.4805539951	 5.0054883545	-0.308479
H	 1.6440202751	 1.9307666865	 0.0485570694	 0.153998
H	 0.1516241275	 2.2530388038	-0.8506926575	 0.122448
H	 0.2629006862	 2.6918468053	 0.8593376918	 0.125426
H	-1.0669315863	 0.5480600834	 0.6142042994	 0.10682
H	 0.0031314512	-1.5153971817	-0.293534308	 0.122988
H	 1.5674478923	-0.5928914821	-0.5548835142	 0.141263
H	 0.0752917961	-0.900633083	 2.1516645464	 0.108554
H	 2.46307516	-1.2570299271	 3.719076996	 0.175178
H	 3.1313823169	 0.371685148	 3.8562967713	 0.176575
33.1179	57.3894	133.3557	177.0094	215.5725	249.068	321.8615	375.8347	382.7384	409.5441	484.51	586.8171	688.9873	745.5653	763.4457	862.6824	863.8457	943.1706	953.6304	972.061	1001.4799	1076.9392	1087.6734	1113.3538	1131.136	1146.7121	1207.9033	1212.9559	1242.4193	1284.7205	1394.0162	1417.7347	1427.4297	1441.4433	1478.5898	1501.3014	1505.1623	1793.1278	2360.2763	3038.7114	3039.7318	3097.3369	3113.899	3134.3749	3136.9087	3151.9919	3180.3373	3230.0681
CC1CC1C(=O)CC#N	C[C@H]1C[C@H]1C(=O)CC#N	
InChI=1S/C7H9NO/c1-5-4-6(5)7(9)2-3-8/h5-6H,2,4H2,1H3	InChI=1S/C7H9NO/c1-5-4-6(5)7(9)2-3-8/h5-6H,2,4H2,1H3/t5-,6+/m0/s1
