19
gdb 12482	3.15518	1.8499	1.29494	3.8603	71.58	-0.2342	0.0357	0.2699	969.7581	0.168745	-365.116724	-365.109196	-365.108252	-365.148586	29.098	
O	 0.0201064313	-0.0734184664	-0.1853797843	-0.369945
C	-0.0401046493	 1.138554469	-0.073483188	 0.370792
C	-1.3675320265	 1.8756639523	 0.0702008682	-0.296302
C	-1.5491053867	 2.6062902608	 1.4164242337	-0.192927
C	-0.8372922192	 3.9623735402	 1.517393253	-0.186944
C	 0.6911977829	 3.9165629011	 1.4000714614	-0.177811
C	 1.2033581074	 3.3499860527	 0.0675021016	-0.16391
N	 1.0938884738	 1.9042488953	-0.0583684657	-0.283668
H	-1.4867454068	 2.5907927327	-0.7551816945	 0.106312
H	-2.1339383838	 1.1081245974	-0.049033209	 0.125173
H	-2.6213913529	 2.7714318221	 1.5699269148	 0.102328
H	-1.2223985347	 1.9475674293	 2.2311044279	 0.108606
H	-1.2299800927	 4.6244033765	 0.7322637214	 0.094662
H	-1.10477632	 4.4318362953	 2.4713102488	 0.097966
H	 1.0817049136	 4.9359621172	 1.5079475758	 0.097069
H	 1.1193738336	 3.3242711304	 2.2184331512	 0.102753
H	 0.6883603765	 3.8497688031	-0.7659211232	 0.110138
H	 2.264815826	 3.5881021657	-0.042426255	 0.111612
H	 1.9427244676	 1.3657442353	-0.1415115981	 0.244093
72.6638	164.7818	235.5436	308.6216	327.071	383.7654	476.0861	481.5615	510.5841	590.7859	702.7402	741.268	815.3501	850.0808	875.7937	900.948	966.8426	990.712	1027.959	1086.5431	1100.9867	1136.9779	1183.8282	1215.5532	1256.7969	1281.6073	1315.1876	1334.263	1363.4497	1385.4503	1390.5855	1397.1272	1413.2142	1462.0819	1476.0081	1477.7222	1485.2691	1495.6731	1504.8982	1783.4477	2999.667	3006.3415	3020.8025	3023.2364	3027.737	3057.8465	3065.6002	3071.0949	3087.5099	3118.606	3622.0059
O=C1CCCCCN1	O=C1CCCCCN1	
InChI=1S/C6H11NO/c8-6-4-2-1-3-5-7-6/h1-5H2,(H,7,8)	InChI=1S/C6H11NO/c8-6-4-2-1-3-5-7-6/h1-5H2,(H,7,8)
