15
gdb 25235	3.33669	1.6241	1.10044	5.9788	73.2	-0.2187	0.0088	0.2275	1021.6163	0.116532	-416.880824	-416.873818	-416.872874	-416.91227	27.094	
O	-0.0616928218	-0.063078197	-0.0334311074	-0.383513
C	 0.0284686918	 1.1441518301	 0.0216332555	 0.331132
N	-1.0581513297	 2.0212104057	 0.1223841853	-0.350407
C	-0.720710492	 3.438761561	 0.0481880111	-0.289088
C	 0.7716868467	 3.3329274162	 0.0125694103	 0.296499
C	 1.2077906834	 2.0335904166	 0.0035501951	 0.173464
C	 2.6300521675	 2.0492699802	-0.021317382	-0.342102
C	 2.995446237	 3.3753581837	-0.0231689071	-0.061224
N	 1.8483514935	 4.1597004262	 0.0004480839	-0.378871
H	-1.9910434126	 1.6782773445	-0.0342485344	 0.248719
H	-1.1381752834	 3.9159588646	-0.8508299862	 0.1235
H	-1.0952579556	 3.9938263567	 0.9201295189	 0.124563
H	 3.3011769045	 1.2054109759	-0.0348890982	 0.11642
H	 3.9689733979	 3.8387589119	-0.0408251719	 0.125814
H	 1.8391740027	 5.1651781839	-0.0001576929	 0.265094
115.4587	181.0623	230.0647	304.1403	390.8298	481.4157	536.6782	621.8392	631.2763	645.31	661.3165	721.3674	776.0557	783.6763	845.754	933.0504	1015.5349	1043.0352	1055.2135	1073.6938	1127.7027	1165.5901	1177.838	1280.3069	1288.9439	1356.8247	1419.2068	1468.0416	1491.1671	1507.3033	1533.191	1598.7523	1822.7283	2990.0293	3012.5633	3254.9366	3273.1075	3664.0128	3672.5328
O=C1NCC2=C1C=CN2	O=C1NCc2c1cc[nH]2	
InChI=1S/C6H6N2O/c9-6-4-1-2-7-5(4)3-8-6/h1-2,7H,3H2,(H,8,9)	InChI=1S/C6H6N2O/c9-6-4-1-2-7-5(4)3-8-6/h1-2,7H,3H2,(H,8,9)
