17
gdb 70051	3.56305	1.22124	1.01687	3.0983	77.28	-0.2282	-0.0647	0.1635	1175.7878	0.13568	-418.020354	-418.012093	-418.011149	-418.053024	31.235	
C	 0.2756380005	 1.4964373649	-0.0498052244	-0.492443
C	 0.1196232912	 0.0015784139	 0.0001706233	 0.345067
C	-1.0049137758	-0.6935660177	 0.7108267873	-0.328944
C	 0.4100705412	-0.950815047	 1.2040849376	-0.057481
N	 1.1116849237	-2.0869712743	 0.6944474449	-0.279115
C	 1.2023362401	-1.9193926951	-0.5864383875	 0.249446
N	 0.6507759025	-0.7711885916	-1.0937478577	-0.370047
C	 1.9095284577	-2.8685674676	-1.4695366918	 0.108712
O	 2.0523113771	-2.680672015	-2.6558413457	-0.275346
H	 1.320720096	 1.7832891495	-0.2081988762	 0.127859
H	-0.3275080388	 1.9342871947	-0.8541188879	 0.130111
H	-0.0600912545	 1.9430261608	 0.8898522324	 0.132943
H	-1.616197575	-0.083801856	 1.3672359383	 0.118572
H	-1.5304618324	-1.495125779	 0.2024866964	 0.122821
H	 0.676956	-0.6204215831	 2.2021787724	 0.099751
H	 0.9817416886	-0.370948167	-1.9570950979	 0.260777
H	 2.3187065079	-3.7503083502	-0.9408357934	 0.107316
103.6451	167.0229	189.0883	199.8366	277.3724	336.0091	344.5816	437.2903	446.334	524.0724	612.0189	621.5955	702.7419	760.9336	826.174	878.7515	955.4331	981.132	1000.7817	1025.181	1039.2529	1049.8754	1096.8271	1104.1392	1153.7623	1212.4699	1283.9599	1317.068	1378.6181	1391.7253	1422.7159	1458.1453	1484.3107	1494.5932	1503.2214	1623.2289	1794.8924	2964.2398	3028.0547	3088.9651	3117.2716	3128.0438	3165.8567	3221.5267	3643.7012
CC12CC1N=C(N2)C=O	C[C@]12C[C@H]1N=C(N2)C=O	
InChI=1S/C6H8N2O/c1-6-2-4(6)7-5(3-9)8-6/h3-4H,2H2,1H3,(H,7,8)	InChI=1S/C6H8N2O/c1-6-2-4(6)7-5(3-9)8-6/h3-4H,2H2,1H3,(H,7,8)/t4-,6+/m1/s1
