15
gdb 25015	4.30847	1.08269	0.9184	3.6032	70.36	-0.1994	0.0078	0.2072	1219.5528	0.113379	-453.939312	-453.931705	-453.930761	-453.971857	28.579	
N	-0.156236646	 1.2588119743	 0.0938749766	-0.5992
C	-0.0400849096	-1.4948*^-6	 0.0700320486	 0.47393
N	-1.0508104969	-0.9294711117	 0.2438847164	-0.403927
C	-0.5396283357	-2.2138708476	 0.0363314663	 0.329115
C	 0.7758429176	-2.0726154549	-0.1722003999	-0.138294
O	 1.1195070237	-0.7336983341	-0.1282746545	-0.216844
C	-1.3891408761	-3.4068393451	 0.1206982253	-0.047701
C	-2.4661974661	-3.5336768844	 1.1196865978	-0.186634
O	-2.7661228534	-3.213001	-0.2400652262	-0.240931
H	 0.7402505795	 1.7074042533	-0.0735653954	 0.227423
H	-2.0171371736	-0.6886971324	 0.0981619355	 0.281855
H	 1.575272924	-2.7768238679	-0.320235511	 0.1525
H	-0.9375468087	-4.3190496199	-0.265049006	 0.111198
H	-2.7739369407	-4.5258622281	 1.4455053522	 0.128698
H	-2.625032628	-2.7315268066	 1.8376612644	 0.128812
89.6411	127.392	147.5464	238.1122	388.1834	438.4661	472.2515	488.0617	635.7038	641.3558	714.4496	721.3491	749.4747	765.3508	837.4465	891.9748	913.1472	983.5674	1031.2527	1063.6952	1092.2315	1101.0243	1153.5646	1166.3441	1225.0463	1251.8211	1281.0219	1341.0859	1423.3087	1440.2701	1522.1239	1713.4194	1796.8896	3091.2678	3132.983	3184.1302	3297.8523	3543.468	3671.4351
N=C1NC(=CO1)C1CO1	[NH][C@@H]1NC(=CO1)[C@H]1CO1	
InChI=1S/C5H6N2O2/c6-5-7-3(1-9-5)4-2-8-4/h1,4H,2H2,(H2,6,7)	InChI=1S/C5H7N2O2/c6-5-7-3(1-9-5)4-2-8-4/h1,4-7H,2H2/t4-,5-/m1/s1
