16
gdb 13084	4.46773	1.26752	1.07659	3.556	65.31	-0.2497	0.0345	0.2842	1067.6189	0.131246	-379.90668	-379.898744	-379.8978	-379.939652	28.621	
O	 0.1020589489	 1.4709598939	 0.0030586893	-0.426181
C	 0.0797236272	 0.0640383703	 0.0124794497	 0.123971
C	 0.2114231013	-0.5876168673	 1.4130274192	-0.207967
N	-1.2681318335	-0.6673915703	 1.4643097237	-0.322525
C	-1.3429286747	-0.5811480214	-0.0086526625	 0.008035
C	-2.5048759723	 0.2436863961	-0.5696747505	-0.335234
C	-3.7931777758	-0.382174622	-0.2842361106	 0.255766
N	-4.7968938614	-0.9038471892	-0.0471337863	-0.309639
H	-0.3502198035	 1.7793123381	 0.7968551807	 0.2941
H	 0.7710394967	-0.2619056559	-0.765251807	 0.097909
H	 0.7262224112	-1.5576542252	 1.3724933117	 0.102126
H	 0.6699732552	 0.0265272274	 2.1959213672	 0.107409
H	-1.6686323449	-1.4966477201	 1.8885786967	 0.232683
H	-1.3133792465	-1.5589284783	-0.5118908257	 0.08213
H	-2.489245932	 1.2483225624	-0.1381868304	 0.144012
H	-2.392850296	 0.3544174416	-1.6543169652	 0.153405
56.6351	114.0258	122.9684	226.0629	358.9968	386.833	393.7039	407.1787	516.8045	557.0324	708.3223	804.7787	859.1672	869.7538	945.444	981.9303	989.4882	1027.6298	1045.0555	1120.2537	1127.5017	1153.4524	1211.4061	1225.3467	1239.7099	1291.2894	1311.0534	1350.2192	1377.2126	1396.1983	1438.561	1451.0595	1516.9737	2360.6041	2991.3795	3004.5549	3053.608	3064.9995	3102.7867	3114.4517	3537.1609	3798.8325
OC1CNC1CC#N	O[C@H]1CN[C@H]1CC#N	
InChI=1S/C5H8N2O/c6-2-1-4-5(8)3-7-4/h4-5,7-8H,1,3H2	InChI=1S/C5H8N2O/c6-2-1-4-5(8)3-7-4/h4-5,7-8H,1,3H2/t4-,5-/m0/s1
