17
gdb 109079	3.60872	1.23103	1.17165	1.7217	68.68	-0.2368	0.0094	0.2462	1096.8341	0.136911	-458.940563	-458.932979	-458.932035	-458.972946	28.932	
O	 0.0023343126	 1.409423983	-0.0797884233	-0.412325
C	-0.0181612544	-0.0022242531	 0.0247876555	-0.205899
C	-1.425636905	-0.469704147	 0.1150371112	 0.363022
C	-2.5735833995	 0.2117137435	 0.1055272236	-0.201733
C	-3.6575453826	-0.8521919302	 0.0267995381	-0.028528
C	-3.5508442969	-1.4740538869	-1.4038089046	-0.077847
O	-2.2913675234	-2.1551908036	-1.330935502	-0.274464
C	-1.8663205071	-1.9339189237	 0.0370253279	 0.045808
O	-3.0671759627	-1.942465392	 0.7666728859	-0.229461
H	 0.9200173947	 1.696139607	-0.0833311177	 0.291607
H	 0.4572633848	-0.4823355341	-0.8491392583	 0.110419
H	 0.543384975	-0.3485126129	 0.9107572531	 0.101256
H	-2.7161449531	 1.2778832619	 0.0123589652	 0.121946
H	-4.6575766108	-0.6210923758	 0.3869455468	 0.092819
H	-4.3502751207	-2.2007931888	-1.5823044742	 0.109353
H	-3.5398395358	-0.7243265661	-2.2007374181	 0.106009
H	-1.1871816553	-2.7300732413	 0.337908031	 0.088018
79.2033	158.798	179.726	238.3459	306.8924	380.4542	449.2496	566.8662	640.7638	653.2328	786.591	809.8591	822.4787	863.467	872.2138	925.0076	929.745	971.3749	982.7627	1038.8389	1044.1177	1074.9067	1110.3105	1181.6177	1192.3515	1203.5249	1241.8361	1249.2703	1263.4435	1278.4433	1317.5046	1335.9572	1354.0165	1466.0115	1503.836	1512.736	1702.0057	2941.55	2955.8476	3039.5139	3091.4131	3142.5264	3151.7646	3250.8639	3835.7242
OCC1=CC2COC1O2	OCC1=C[C@H]2CO[C@@H]1O2	
InChI=1S/C6H8O3/c7-2-4-1-5-3-8-6(4)9-5/h1,5-7H,2-3H2	InChI=1S/C6H8O3/c7-2-4-1-5-3-8-6(4)9-5/h1,5-7H,2-3H2/t5-,6+/m0/s1
