19
gdb 77314	2.37226	1.30285	1.16341	2.4369	80.52	-0.238	-0.019	0.219	1174.9597	0.158135	-385.896005	-385.886973	-385.886029	-385.929972	34.072	
C	-0.0029796429	 1.5620192222	 0.0231081659	-0.411871
C	-0.0067727517	 0.0260462269	-0.0302041217	-0.08977
C	 0.7453017433	-0.5559218297	-1.2624174994	-0.205183
C	 2.1952934968	-0.7963905899	-0.7364751727	-0.230623
C	 1.9942206187	-1.2855961378	 0.7022198902	-0.315637
C	 0.7487148749	-0.5419564117	 1.1869099505	 0.412774
O	 0.4122823788	-0.387560977	 2.3323952402	-0.321931
C	 0.1393024233	-1.7990928919	-1.7295705765	 0.324666
C	-0.3568793276	-2.832646252	-2.0927177475	-0.462446
H	 1.011904834	 1.9667154077	-0.0564217783	 0.11932
H	-0.5977324734	 1.979206527	-0.7948155548	 0.122393
H	-0.4260863146	 1.9000353074	 0.9724295082	 0.143108
H	-1.0410550546	-0.3256633212	 0.0085479898	 0.114411
H	 0.7519373343	 0.1642195358	-2.0876964584	 0.10459
H	 2.7444632573	-1.4981650478	-1.3658095724	 0.117968
H	 2.7383652494	 0.154699464	-0.742810316	 0.108562
H	 1.7611754281	-2.3581514146	 0.7162258557	 0.143663
H	 2.8384634356	-1.1239317817	 1.3752497498	 0.127371
H	-0.7999947197	-3.7385411059	-2.4253958325	 0.198636
50.0545	122.0316	146.2323	224.1369	230.1515	249.1247	333.1462	447.7032	461.3719	486.2126	564.8666	627.6753	634.1437	641.1417	684.1583	761.3706	813.8861	850.6487	914.3233	950.9139	988.6782	1008.2785	1035.2412	1090.0352	1114.1254	1148.6431	1165.4098	1181.4216	1259.4273	1284.8077	1293.2412	1308.0886	1339.0967	1361.7901	1402.9865	1447.5617	1491.9376	1497.4033	1501.3062	1843.2489	2232.3112	3036.1428	3038.9049	3044.0523	3055.6164	3076.9485	3106.2055	3116.0414	3121.9261	3125.4904	3503.6984
CC1C(CCC1=O)C#C	C[C@H]1[C@@H](CCC1=O)C#C	
InChI=1S/C8H10O/c1-3-7-4-5-8(9)6(7)2/h1,6-7H,4-5H2,2H3	InChI=1S/C8H10O/c1-3-7-4-5-8(9)6(7)2/h1,6-7H,4-5H2,2H3/t6-,7+/m0/s1
