21
gdb 95313	2.63875	1.69963	1.47618	2.0683	76.76	-0.2385	0.0754	0.3139	1008.8309	0.185523	-424.239513	-424.231878	-424.230934	-424.271214	30.949	
C	-0.2647239412	 1.559898546	 0.0483695608	-0.41351
C	 0.0457409576	 0.0633412806	-0.0273402468	 0.12688
O	 0.5987936893	-0.3058585823	-1.2954629309	-0.270436
C	 2.0045933104	-0.1612531309	-1.4379766343	-0.083377
C	 2.7629481642	-0.7482973339	-0.2377894861	-0.057012
C	 2.197659064	-2.1312662772	 0.1380134169	-0.06728
O	 1.0794780984	-1.8736336208	 1.0011267039	-0.274261
C	 0.9294074492	-0.4576518067	 1.1245781217	 0.090805
C	 2.3638436332	 0.0649405798	 1.00515482	-0.243982
H	 0.6355689258	 2.17728619	-0.0218454818	 0.11671
H	-0.9295564071	 1.8398117531	-0.7729790202	 0.127697
H	-0.7651679701	 1.8022639093	 0.9922284499	 0.115386
H	-0.8973690326	-0.4925972582	 0.0195833634	 0.091032
H	 2.255358996	-0.692522494	-2.3622395903	 0.106888
H	 2.2900053768	 0.8950215922	-1.5744697067	 0.085079
H	 3.8374921204	-0.7674296774	-0.4368961492	 0.070612
H	 1.8612659524	-2.6975111815	-0.7376281928	 0.106299
H	 2.9347669008	-2.7341665178	 0.6839761744	 0.093192
H	 0.448734439	-0.2553808153	 2.0862021493	 0.075567
H	 2.9471346838	-0.2120211161	 1.888171402	 0.103154
H	 2.4421572197	 1.144549641	 0.8593528168	 0.100557
142.008	194.2161	207.2963	259.7617	350.9079	365.7438	425.2965	469.6796	527.816	592.3779	744.1502	792.5578	813.1448	845.5724	889.1698	905.7579	939.3436	953.8927	964.0644	992.4484	999.264	1064.1367	1081.1122	1094.4599	1112.5448	1122.0359	1144.2029	1189.222	1214.4023	1224.7431	1283.8452	1311.296	1315.179	1344.6441	1347.9773	1359.7019	1379.2333	1390.9393	1400.6321	1419.0352	1484.5428	1488.2512	1505.064	1511.1004	1523.9818	2965.8563	3015.025	3038.1116	3046.5242	3057.371	3060.9196	3067.0474	3073.588	3084.3403	3105.3718	3113.5635	3120.6631
CC1OCC2COC1C2	C[C@H]1OC[C@@H]2CO[C@H]1C2	
InChI=1S/C7H12O2/c1-5-7-2-6(3-8-5)4-9-7/h5-7H,2-4H2,1H3	InChI=1S/C7H12O2/c1-5-7-2-6(3-8-5)4-9-7/h5-7H,2-4H2,1H3/t5-,6-,7+/m1/s1
