17
gdb 131487	3.88027	1.13819	1.00009	2.0685	75.09	-0.2248	0.024	0.2489	1189.0001	0.137945	-418.008593	-418.000722	-417.999778	-418.04132	30.123	
O	 0.1003967724	 1.3181149056	 0.7978470591	-0.417186
C	 0.0311243978	 0.051438807	 0.2140382023	 0.099318
C	-0.5138223957	-1.0443154115	 1.0696161032	-0.314962
C	-1.3233157385	-0.5555295948	-0.1227314078	-0.142861
C	-2.5740609364	 0.2100541941	 0.0424351828	 0.351754
N	-3.5551873181	 0.0493472188	-0.8499144204	-0.304445
N	-4.534931268	 0.8745090394	-0.4309990761	-0.184225
C	-4.2129460843	 1.5541814735	 0.6943606407	-0.019108
C	-2.940629453	 1.1540191985	 1.0381279099	-0.309699
H	-0.2356943238	 1.9583130495	 0.1608513214	 0.290173
H	 0.8540804409	-0.1839120867	-0.4607148664	 0.089923
H	-0.0652380648	-2.0299342668	 1.0178997966	 0.115376
H	-0.8667769902	-0.7499869512	 2.0517297949	 0.126782
H	-1.3451185597	-1.2056326145	-0.9908011947	 0.097122
H	-5.3923035861	 0.9150566674	-0.9543956288	 0.273212
H	-4.8958890934	 2.2525884269	 1.1519377025	 0.131221
H	-2.3517488091	 1.4901064247	 1.8739600305	 0.117603
67.2711	133.9695	176.8445	256.7317	313.5408	374.0543	454.9798	494.7518	525.0072	656.7682	674.6621	753.6439	779.1451	782.4918	849.5168	854.8602	922.928	950.0197	990.7974	1013.599	1047.4204	1062.7334	1073.1858	1118.7318	1130.6488	1178.1342	1198.4077	1228.5505	1295.4383	1312.1938	1348.7387	1405.5081	1420.7938	1478.0862	1487.9577	1498.1455	1575.6465	3098.5782	3137.9587	3170.186	3229.7559	3259.0624	3290.9865	3680.3096	3798.2609
OC1CC1C1=NNC=C1	O[C@H]1C[C@H]1c1n[nH]cc1	
InChI=1S/C6H8N2O/c9-6-3-4(6)5-1-2-7-8-5/h1-2,4,6,9H,3H2,(H,7,8)	InChI=1S/C6H8N2O/c9-6-3-4(6)5-1-2-7-8-5/h1-2,4,6,9H,3H2,(H,7,8)/t4-,6-/m0/s1
