18
gdb 28796	3.01039	1.63279	1.08681	1.006	79.26	-0.1712	0.0658	0.237	1088.5963	0.150623	-401.994758	-401.987073	-401.986129	-402.026755	29.963	
O	 0.0109803537	 1.3295690085	 0.2699546076	-0.444057
C	-0.0039022296	-0.0125086465	 0.0433594317	 0.323387
C	-0.1484072775	-0.7829391868	-1.0911296448	-0.29489
C	-0.0827760328	-2.1559190782	-0.6762994304	-0.313329
C	 0.0936522105	-2.1612346328	 0.6826299509	 0.346
C	 0.3195471999	-3.064180922	 1.8585210906	-0.349095
C	 0.0755143204	-2.1075502602	 3.0616474093	-0.21102
C	 0.3896475254	-0.6867966871	 2.5297460241	-0.17568
N	 0.1316652944	-0.8451898867	 1.1104049714	-0.042025
H	-0.1240953223	 1.7751432924	-0.5718624829	 0.304843
H	-0.3025597978	-0.4124341226	-2.0937650999	 0.080693
H	-0.1623068183	-3.0191373949	-1.3192273365	 0.088141
H	-0.3506350829	-3.9283317028	 1.8834537908	 0.114169
H	 1.3456451271	-3.4568858958	 1.8779041981	 0.110196
H	-0.9771777136	-2.1538384488	 3.3557511586	 0.116865
H	 0.6777069932	-2.3595413952	 3.9372949401	 0.104999
H	-0.2464173369	 0.0861313151	 2.969200881	 0.125524
H	 1.4356347272	-0.4040106256	 2.7071887005	 0.115278
132.7289	162.9544	209.3089	233.0705	268.8725	323.1765	526.2754	586.2302	613.897	632.5014	650.5013	708.0376	725.7227	769.3266	779.2649	869.3704	897.885	920.1126	1002.927	1025.0689	1045.3014	1089.8981	1138.1152	1180.6779	1209.6321	1229.3488	1253.0922	1263.85	1310.4931	1313.5015	1335.6741	1346.3437	1422.9451	1489.5991	1501.4509	1524.0693	1549.954	1575.5969	1614.2464	3004.7455	3016.8247	3058.6653	3076.5266	3088.3679	3114.5073	3231.1898	3249.4389	3844.4508
OC1=CC=C2CCCN12	Oc1ccc2CCCn12	
InChI=1S/C7H9NO/c9-7-4-3-6-2-1-5-8(6)7/h3-4,9H,1-2,5H2	InChI=1S/C7H9NO/c9-7-4-3-6-2-1-5-8(6)7/h3-4,9H,1-2,5H2
