14
gdb 15038	2.66476	1.72771	1.11647	1.4478	58.7	-0.261	-0.0544	0.2066	1003.0681	0.103592	-419.659322	-419.651028	-419.650083	-419.693716	27.452	
O	 0.1069004375	 0.57502121	 0.7936661965	-0.232892
C	 0.7202269318	 0.9502332817	-0.1698226623	 0.145512
C	 1.4928129099	 2.2678888592	-0.2135728302	-0.220726
C	 1.1569026824	 3.0046531084	-1.5151470478	 0.139447
O	 1.2340858654	 2.4844347809	-2.5968549412	-0.242632
C	 1.2741383142	 3.1144433736	 1.0166584141	 0.086277
C	 2.2664891561	 3.2023391478	 2.0905863186	-0.17435
O	 2.1301710922	 4.2553250362	 1.1330978572	-0.246445
H	 0.7651571146	 0.3700962671	-1.112890011	 0.120801
H	 2.5551585331	 1.9973374189	-0.3068601312	 0.143865
H	 0.8269872254	 4.0571011771	-1.3897654385	 0.116248
H	 0.2315899306	 3.3041494755	 1.2697367309	 0.11642
H	 1.943954086	 3.4440886396	 3.1012275966	 0.129009
H	 3.1859242307	 2.622520624	 2.0213471783	 0.119468
39.6269	66.7114	112.9532	160.7162	193.01	270.0438	352.2374	447.9896	573.2733	647.1547	797.4793	866.8804	876.1747	906.109	953.1506	1041.3594	1096.2328	1103.3929	1154.1243	1162.6733	1179.3077	1208.299	1247.496	1295.8538	1399.5079	1415.5625	1454.7468	1531.6218	1807.6817	1839.4559	2917.5361	2944.615	3017.0533	3089.7421	3122.3997	3179.526
O=CC(C=O)C1CO1	O=CC(C=O)[C@H]1CO1	
InChI=1S/C5H6O3/c6-1-4(2-7)5-3-8-5/h1-2,4-5H,3H2	InChI=1S/C5H6O3/c6-1-4(2-7)5-3-8-5/h1-2,4-5H,3H2/t5-/m1/s1
