21
gdb 83375	2.60502	1.71304	1.50744	1.8192	81.5	-0.2452	0.068	0.3132	1005.4048	0.184975	-387.028678	-387.021349	-387.020405	-387.05984	30.817	
C	-0.1214344853	 1.6247175956	 0.0486188483	-0.446651
C	 0.0455642903	 0.1139178732	 0.0793776832	 0.029244
C	 1.1206440281	-0.6140220739	-0.7616830491	-0.106592
C	 2.4358493958	 0.0334799382	-0.1986205714	-0.21447
C	 2.1347365542	 0.0851801182	 1.3628280333	-0.333332
C	 0.7939548045	-0.6233903547	 1.2695536951	 0.272963
C	-0.1207589689	-1.6174804434	 1.9864943575	-0.20152
O	-0.1815000413	-2.4084755657	 0.7553366493	-0.312628
C	 1.0361866419	-1.763767518	 0.2700798355	 0.130471
H	 0.8136444294	 2.1716060146	 0.1961244161	 0.115157
H	-0.5361965085	 1.9412032401	-0.9151640725	 0.117896
H	-0.8209270579	 1.952557871	 0.8259689753	 0.115527
H	-0.9231574684	-0.3649659843	-0.0675997009	 0.092697
H	 1.0691113804	-0.7229406815	-1.8474216938	 0.057717
H	 3.316447501	-0.5776923498	-0.4174796682	 0.102056
H	 2.606947452	 1.0234875641	-0.6267873845	 0.105517
H	 2.8745592699	-0.4760587375	 1.939555388	 0.101505
H	 2.1012025941	 1.1058671434	 1.7523236944	 0.100336
H	 0.3555479687	-2.1901632994	 2.7938799467	 0.101438
H	-1.1122053724	-1.2776218891	 2.3035281475	 0.105327
H	 1.8874927224	-2.4494135613	 0.3451521501	 0.067341
185.4014	238.1458	264.2289	309.6277	318.4024	362.8026	432.6065	510.6057	592.6728	710.5734	731.6096	744.3313	823.1087	840.0601	853.0452	892.1666	910.3099	924.4698	953.5694	999.8405	1006.5307	1024.8825	1059.4242	1063.0592	1112.8314	1127.0792	1149.7918	1162.9258	1167.5874	1214.5118	1236.3067	1240.5802	1255.3993	1269.1327	1293.9371	1311.0852	1332.3678	1362.3489	1400.2112	1414.3295	1484.0649	1494.7969	1509.1812	1512.1323	1517.9099	3007.558	3031.4439	3041.7617	3056.2614	3063.4813	3074.9134	3085.6298	3087.3872	3096.3812	3097.336	3113.4033	3119.0176
CC1C2CCC11COC21	C[C@H]1[C@H]2CC[C@]31CO[C@@H]23	
InChI=1S/C8H12O/c1-5-6-2-3-8(5)4-9-7(6)8/h5-7H,2-4H2,1H3	InChI=1S/C8H12O/c1-5-6-2-3-8(5)4-9-7(6)8/h5-7H,2-4H2,1H3/t5-,6+,7-,8+/m0/s1
