15
gdb 31914	5.73015	0.85962	0.75874	5.6004	79.22	-0.2239	-0.0214	0.2025	1406.1962	0.11396	-416.854574	-416.846181	-416.845237	-416.888525	30.043	
O	 0.0810025255	 1.2819105726	 0.4675441518	-0.403052
C	-0.0070540812	-0.0284867623	-0.0600670999	-0.19717
C	-1.4417205494	-0.449746288	-0.0218087545	 0.312123
C	-2.5965945705	 0.3062992537	-0.1105673821	-0.185755
C	-3.6942525352	-0.579688909	-0.0628896243	-0.224782
C	-3.1864010531	-1.8642030541	 0.0521721318	 0.203291
N	-1.807378044	-1.7600354401	 0.077974258	-0.372233
C	-3.8360895427	-3.1118054573	 0.1409971486	 0.196805
N	-4.3548681989	-4.1468854999	 0.2138806784	-0.352252
H	 0.9417017026	 1.6411012582	 0.232756602	 0.295472
H	 0.3663424395	-0.0610442833	-1.0973068306	 0.113591
H	 0.6031693455	-0.7439945745	 0.5182959214	 0.096677
H	-2.6261830042	 1.3805956727	-0.1895244029	 0.120787
H	-4.7424044688	-0.328854625	-0.1023472296	 0.122039
H	-1.1810817152	-2.5419575136	 0.1743457018	 0.274459
34.5686	124.4432	143.3234	207.0268	242.725	281.2102	407.7596	489.4711	515.3488	565.325	597.9413	642.6951	672.9803	705.6197	808.0624	874.4576	984.5879	1008.1241	1029.0435	1067.4222	1094.2102	1189.9024	1238.1921	1244.1091	1280.243	1303.0793	1412.0111	1459.6029	1464.0574	1512.3977	1523.7907	1613.5017	2331.3502	2947.2566	2967.4752	3261.3758	3278.0788	3667.2389	3832.692
OCC1=CC=C(N1)C#N	OCc1ccc([nH]1)C#N	
InChI=1S/C6H6N2O/c7-3-5-1-2-6(4-9)8-5/h1-2,8-9H,4H2	InChI=1S/C6H6N2O/c7-3-5-1-2-6(4-9)8-5/h1-2,8-9H,4H2
