22
gdb 74332	4.0066	0.95943	0.81222	1.0033	90.64	-0.2238	0.0306	0.2544	1478.619	0.194624	-367.200937	-367.191949	-367.191004	-367.234938	34.192	
C	 0.0000425724	 1.6125453227	-0.3161160408	-0.488996
C	-0.0079753929	 0.1242255096	-0.1659510799	 0.328182
C	-0.3346419193	-0.7820062695	-1.088794703	-0.174835
C	-0.1732405219	-2.2012507092	-0.6001444904	 0.028595
C	-0.0038709847	-2.0177414381	 0.9284437917	-0.230673
C	 0.4250067026	-0.5451286913	 1.1234244702	-0.302431
N	-1.3307962557	-3.0431531934	-0.9153476803	-0.066658
C	-1.3130826781	-3.6966035043	-2.2205427757	-0.224247
C	-1.0762813645	-4.4800726696	-0.9780893467	-0.220506
H	 1.0040328692	 2.0231434737	-0.1466667482	 0.123093
H	-0.3295461925	 1.9222621571	-1.3115352041	 0.122218
H	-0.6563687143	 2.0863741764	 0.4249764496	 0.124921
H	-0.6482333272	-0.5554975718	-2.1025861406	 0.083277
H	 0.7428626603	-2.6452407846	-1.0417757303	 0.050949
H	-0.9837224909	-2.1847358616	 1.3854124442	 0.11594
H	 0.6959137796	-2.7325804349	 1.3688217029	 0.090625
H	 1.512274912	-0.4481242893	 1.25729368	 0.10084
H	-0.0299480555	-0.0844617681	 2.0089408954	 0.09913
H	-2.2674296624	-3.7503899749	-2.7365957949	 0.113873
H	-0.4542979531	-3.5244354436	-2.868248767	 0.106857
H	-0.0592871901	-4.8260808613	-0.7973690152	 0.106364
H	-1.8537235227	-5.1180941441	-0.5680024871	 0.113481
77.8768	83.8791	146.5229	183.8378	219.4921	299.7121	316.9456	384.8557	458.4419	479.3653	585.1416	643.3625	783.7814	833.8996	851.9667	870.1298	892.2284	900.2013	913.4146	975.7379	1011.6459	1022.3999	1024.6627	1047.1837	1068.4802	1105.167	1109.8797	1115.4024	1161.9756	1173.839	1184.0817	1201.6854	1248.8024	1282.7364	1299.2031	1318.4853	1324.5111	1351.5189	1381.8797	1413.184	1479.6157	1483.1499	1488.4415	1489.8659	1499.5939	1516.8656	1725.4545	2872.3592	3002.0656	3015.7848	3040.9601	3060.4428	3060.891	3089.7123	3094.0439	3106.2641	3110.0814	3173.7532	3185.3779	3188.001
CC1=CC(CC1)N1CC1	CC1=C[C@@H](CC1)N1CC1	
InChI=1S/C8H13N/c1-7-2-3-8(6-7)9-4-5-9/h6,8H,2-5H2,1H3	InChI=1S/C8H13N/c1-7-2-3-8(6-7)9-4-5-9/h6,8H,2-5H2,1H3/t8-/m1/s1
