19
gdb 73987	2.68639	1.9674	1.3815	0.8617	81.82	-0.2193	-0.0095	0.2097	975.9754	0.160272	-385.815377	-385.808021	-385.807076	-385.846738	29.987	
C	-0.0481444276	 1.3271845721	-0.1686731337	-0.476238
C	 0.0176688181	-0.1137102853	 0.2375142474	 0.218775
C	-1.0462804636	-0.92290543	 0.3438212552	 0.061776
C	-2.1831747671	-0.9762910062	-0.6726636615	-0.28335
C	-1.5936836036	-2.3677654096	-1.0329003768	-0.092144
C	-0.0520412837	-2.5941569252	-0.9253596512	 0.124853
O	 1.0244197302	-1.7205693811	-1.1577591202	-0.270319
C	 1.2923519585	-0.8905994267	 0.0077876336	-0.159362
C	-0.8552537581	-2.440610966	 0.3062395369	-0.20731
H	 0.5325290059	 1.9581871132	 0.5163488673	 0.12561
H	 0.3809853035	 1.4718892233	-1.1692828118	 0.133534
H	-1.0756085273	 1.7001903388	-0.1734215356	 0.125347
H	-3.1849224897	-1.1132058501	-0.2496397163	 0.106938
H	-2.21220273	-0.1957723649	-1.4395776102	 0.100642
H	-2.1779334558	-3.1565040962	-1.4985103841	 0.085883
H	 0.2078249955	-3.6041691704	-1.2374575431	 0.096013
H	 2.1372677951	-0.257170621	-0.2693404049	 0.110512
H	 1.5828505163	-1.5262834115	 0.8524837227	 0.108901
H	-0.9522915466	-3.1367208731	 1.1307316963	 0.08994
149.636	192.2668	226.4856	249.0941	374.1626	473.4394	484.6504	498.3717	569.3087	678.3657	706.1864	761.5123	784.9368	812.339	889.3957	916.8732	947.7896	960.9913	973.1131	988.6111	1011.0595	1044.2588	1053.9906	1067.1855	1073.6465	1112.868	1162.1146	1182.9445	1228.4793	1232.4215	1259.2132	1272.2762	1320.3985	1348.8827	1396.2095	1406.0101	1473.2167	1487.5717	1494.0889	1495.6245	1696.7049	3012.0019	3029.4485	3032.4085	3059.4138	3082.205	3112.786	3117.6127	3123.3386	3149.3449	3176.2034
CC1=C2CC3C(OC1)C23	C[C]1[C]2C[C@H]3[C@@H](OC1)[C@@H]23	
InChI=1S/C8H10O/c1-4-3-9-8-6-2-5(4)7(6)8/h6-8H,2-3H2,1H3	InChI=1S/C8H10O/c1-4-3-9-8-6-2-5(4)7(6)8/h6-8H,2-3H2,1H3/t6-,7+,8-/m1/s1
