19
gdb 9290	3.90603	1.03224	0.87673	3.9342	70.26	-0.2468	0.0366	0.2834	1330.716	0.163729	-402.220914	-402.211168	-402.210224	-402.256543	33.393	
C	-0.3219114641	 1.4683904216	 0.1253655191	-0.238779
O	-0.0804239962	 0.0796131158	 0.1698106548	-0.256473
C	-1.2415975253	-0.7388035647	 0.0440262103	 0.127284
C	-1.759469029	-0.8006567821	-1.3927865835	-0.404648
C	-0.8268702815	-2.1197262498	 0.5522655354	-0.160164
N	-0.304780414	-2.0497514492	 1.9023954627	-0.27409
C	-0.7879273542	-2.7924061261	 2.9304990579	 0.153342
O	-1.6625860095	-3.6298874365	 2.8442388399	-0.328341
H	 0.627405916	 1.9665107512	 0.3377960172	 0.129003
H	-0.6757708304	 1.803652096	-0.8595348963	 0.11264
H	-1.0612442331	 1.7755706013	 0.8811659185	 0.108432
H	-2.0290629412	-0.343153892	 0.7067075341	 0.075607
H	-2.0705506997	 0.1840734436	-1.7512205511	 0.120708
H	-0.9817367365	-1.1798965453	-2.0630604293	 0.126945
H	-2.6272108044	-1.4647840017	-1.4553982872	 0.126373
H	-1.6811858562	-2.798903875	 0.5710647372	 0.145997
H	-0.0718417188	-2.5351453724	-0.1284352548	 0.112625
H	 0.3879969007	-1.3403956908	 2.082791955	 0.252642
H	-0.2790980625	-2.548545464	 3.8845648901	 0.070897
35.7383	75.323	95.1145	168.6612	193.1271	222.8257	235.8539	303.009	306.6799	393.8927	483.1721	529.1379	588.5665	751.4543	833.9955	897.8667	946.7138	1009.0414	1033.3376	1100.9013	1118.5725	1132.2317	1172.2302	1184.1656	1209.745	1225.8038	1286.9037	1330.5663	1382.0577	1402.9018	1407.4698	1429.9794	1477.6942	1480.6044	1486.999	1494.0312	1501.5694	1511.97	1527.7004	1803.18	2932.7699	2969.8034	2983.1508	3021.9686	3034.5124	3042.9919	3111.9575	3113.5453	3118.1456	3129.0986	3639.8388
COC(C)CNC=O	CO[C@@H](C)CNC=O	
InChI=1S/C5H11NO2/c1-5(8-2)3-6-4-7/h4-5H,3H2,1-2H3,(H,6,7)	InChI=1S/C5H11NO2/c1-5(8-2)3-6-4-7/h4-5H,3H2,1-2H3,(H,6,7)/t5-/m0/s1
