16
gdb 7070	2.47144	1.58661	1.08611	5.6112	66.23	-0.2618	0.0187	0.2805	1084.4153	0.129528	-379.96706	-379.958086	-379.957142	-380.002489	30.648	
C	 0.0223817858	 1.6886449698	 0.1946780875	-0.398154
C	-0.0270179296	 0.1644963838	 0.0415795454	 0.03973
C	 0.7657290806	-0.5212127931	 1.1788802635	-0.356506
C	 0.7842088534	-1.9784556336	 1.0781150015	 0.269549
N	 0.7930617004	-3.1310729589	 1.0021899199	-0.2981
N	-1.3917854931	-0.3353031845	-0.0069844875	-0.277448
C	-1.9779301545	-0.7645473249	-1.162314324	 0.164494
O	-1.4439437854	-0.7756136548	-2.2491265293	-0.315608
H	 1.0557862029	 2.0493610388	 0.1927527943	 0.126156
H	-0.5083255004	 2.1636479515	-0.6335570119	 0.14469
H	-0.4469556275	 2.0092160901	 1.1319767891	 0.115223
H	 0.411415068	-0.1178181835	-0.9188122717	 0.147106
H	 1.7969975406	-0.1524635149	 1.1747968538	 0.160648
H	 0.3407535873	-0.2443289877	 2.1524752892	 0.1458
H	-1.9465617501	-0.3315519758	 0.8354071054	 0.248208
H	-3.0162858585	-1.1083374724	-0.9913729453	 0.084213
13.7662	75.2167	135.4407	193.0063	212.5349	248.0514	325.4423	395.0344	401.8985	446.1166	506.4362	565.424	761.4451	852.8998	898.8155	920.5166	977.0012	1030.4373	1085.7981	1117.1489	1147.0495	1192.1257	1254.5861	1314.7098	1363.25	1377.8958	1411.0877	1430.6808	1462.7721	1488.2922	1496.5958	1528.2375	1808.1015	2366.8403	2950.4347	3032.4622	3034.509	3080.4906	3092.4906	3110.7942	3129.9719	3620.5461
CC(CC#N)NC=O	C[C@@H](CC#N)NC=O	
InChI=1S/C5H8N2O/c1-5(2-3-6)7-4-8/h4-5H,2H2,1H3,(H,7,8)	InChI=1S/C5H8N2O/c1-5(2-3-6)7-4-8/h4-5H,2H2,1H3,(H,7,8)/t5-/m0/s1
