23
gdb 105050	2.56767	1.23808	1.09747	1.859	84.72	-0.2602	0.0885	0.3487	1270.4579	0.203878	-388.266133	-388.256171	-388.255227	-388.300964	37.907	
C	 0.1605699941	 1.5565782833	 0.247381069	-0.403773
C	 0.4507448712	 0.057977992	 0.1187564291	-0.251311
C	 0.7135780968	-0.4791126784	-1.2893888062	 0.284582
C	 0.1216421942	 0.1933727394	-2.5027562733	-0.31343
C	 1.6078298803	 0.2743454912	-2.2467345827	-0.306029
C	 0.8283494753	-1.9908421225	-1.3281908887	 0.353118
C	 1.9618319567	-2.6030201125	-0.5306489599	-0.468207
C	-0.365613988	-2.801540202	-1.6171863684	-0.2258
O	 0.6366944292	-2.591618329	-2.618149431	-0.279845
H	 0.973997142	 2.1698575751	-0.1527516667	 0.12113
H	-0.7617570657	 1.8410207445	-0.2672884874	 0.121967
H	 0.0415314072	 1.8233372492	 1.3019294066	 0.114983
H	 1.3146966196	-0.1820801049	 0.7515410098	 0.10179
H	-0.3950358109	-0.4999064587	 0.5440864372	 0.096394
H	-0.2026369123	-0.4459163736	-3.3146715658	 0.12794
H	-0.4691493506	 1.0902348672	-2.3602366938	 0.104766
H	 2.0273919189	 1.2240169225	-1.9336480739	 0.107209
H	 2.2545986104	-0.3100807092	-2.8925880202	 0.119606
H	 1.8276154389	-2.444170852	 0.5435097395	 0.123463
H	 2.0137743815	-3.6783214144	-0.7171059314	 0.124969
H	 2.9184951234	-2.1559472396	-0.8204054023	 0.126594
H	-0.4371236971	-3.8210946718	-1.2402097911	 0.109218
H	-1.317074495	-2.3060864557	-1.8050710081	 0.110665
59.4408	65.7216	184.5751	188.1423	221.7312	256.3002	283.9567	323.2453	330.6536	376.3995	440.9354	494.204	523.5026	608.7514	774.2626	782.0699	797.32	849.6064	893.8082	910.1891	922.4504	939.6637	961.5289	1029.967	1033.5192	1059.377	1080.6487	1092.3695	1107.2955	1135.8882	1145.0795	1162.0308	1185.4633	1197.0708	1291.3598	1317.4892	1337.7107	1376.7517	1399.6182	1411.9869	1416.8508	1453.0757	1482.7964	1488.9188	1495.7015	1496.7854	1506.3752	1511.713	1525.9398	3008.5959	3038.1696	3041.7065	3043.4035	3080.2691	3105.6409	3106.5025	3112.1039	3125.9444	3132.476	3148.089	3167.2393	3214.0862	3237.5556
CCC1(CC1)C1(C)CO1	CCC1(CC1)[C@@]1(C)CO1	
InChI=1S/C8H14O/c1-3-8(4-5-8)7(2)6-9-7/h3-6H2,1-2H3	InChI=1S/C8H14O/c1-3-8(4-5-8)7(2)6-9-7/h3-6H2,1-2H3/t7-/m1/s1
