19
gdb 73673	2.23117	2.00121	1.49236	1.5791	75.25	-0.2488	0.0119	0.2607	974.5593	0.160609	-423.046936	-423.039218	-423.038274	-423.079124	30.268	
C	-0.2057279968	 1.5387342486	 0.0348877574	-0.454021
C	-0.0002130939	 0.0309672249	 0.0016121409	 0.347808
O	-1.293799251	-0.5860186216	 0.1102566554	-0.28122
C	-1.0842713461	-1.7995280208	 0.7804585557	 0.007003
O	-0.0807841034	-1.5644307984	 1.7469198665	-0.262565
C	 0.7974866344	-0.5806694308	 1.2064796695	 0.041536
C	 2.0945183026	-1.183391427	 0.6162219219	-0.283416
C	 1.8789617923	-1.1173327282	-0.8761073084	-0.07717
C	 0.7685320176	-0.4612663293	-1.2053940815	-0.121195
H	 0.756169953	 2.0594035639	 0.0114976004	 0.119485
H	-0.7909146922	 1.86301953	-0.8308801331	 0.125987
H	-0.7460318135	 1.8259818337	 0.9413441629	 0.127324
H	-2.0085481724	-2.0925740952	 1.287035224	 0.115789
H	-0.7683527581	-2.5918279656	 0.0792896983	 0.083377
H	 0.9995392325	 0.1444516479	 1.999265396	 0.083078
H	 2.9788174063	-0.6071180824	 0.9183255773	 0.109182
H	 2.2445047225	-2.2032281981	 0.9865274631	 0.120836
H	 2.5808788897	-1.5481381245	-1.582853981	 0.099633
H	 0.4102089664	-0.2778864871	-2.2122299753	 0.098546
70.8264	200.4859	225.2574	250.6915	274.5239	375.2685	428.5848	490.2367	598.9754	618.8581	720.8063	762.6482	773.3722	837.2178	881.0964	902.7041	952.0371	955.809	981.9503	994.2478	1024.3123	1057.3223	1108.7697	1112.1927	1143.6458	1175.7236	1189.8964	1196.874	1225.0726	1249.9553	1277.3552	1325.0955	1361.6653	1389.1757	1404.6415	1427.9994	1472.1256	1482.1091	1494.4706	1541.57	1686.03	2947.3747	3023.7322	3040.2957	3068.1361	3073.7545	3084.6268	3114.7786	3120.0441	3178.6545	3206.0985
CC12OCOC1CC=C2	C[C@]12OCO[C@H]1CC=C2	
InChI=1S/C7H10O2/c1-7-4-2-3-6(7)8-5-9-7/h2,4,6H,3,5H2,1H3	InChI=1S/C7H10O2/c1-7-4-2-3-6(7)8-5-9-7/h2,4,6H,3,5H2,1H3/t6-,7+/m0/s1
