15
gdb 31595	3.22049	1.11261	0.88248	2.0855	66.84	-0.196	-0.0006	0.1953	1268.9233	0.112303	-491.10036	-491.091249	-491.090304	-491.135277	32.045	
N	 0.2638604462	 1.3777024313	-0.188355966	-0.607056
C	 0.0578868721	 0.01169806	-0.0383787591	 0.225096
C	-1.0290167078	-0.803220944	 0.0377246129	 0.254756
O	-2.3291493808	-0.4264979782	 0.0771344769	-0.444146
N	-0.6330959126	-2.1195565382	 0.0604543374	-0.379243
C	 0.6685841799	-2.0705911156	 0.0157151052	 0.345845
C	 1.6221073995	-3.2162912655	-0.0124438756	-0.164153
O	 2.0718458314	-3.5333461758	-1.3250013135	-0.408497
O	 1.1592453374	-0.8119141643	-0.0615094833	-0.176813
H	 0.6489898692	 1.8233998786	 0.6391015964	 0.253229
H	-0.5990551247	 1.8425386864	-0.4415338625	 0.261514
H	-2.8521015503	-1.2358645658	 0.1059767861	 0.305105
H	 2.5215841561	-2.9650899666	 0.5562152049	 0.130242
H	 1.1310474967	-4.0716491769	 0.4692910224	 0.116835
H	 1.2932888678	-3.7540811654	-1.8478686122	 0.287286
28.3892	110.9011	118.7586	236.528	250.6656	266.645	289.9119	314.0098	366.5423	426.6686	533.9473	633.2694	665.7262	694.7357	747.9104	780.3683	852.0461	956.911	1008.7826	1050.7012	1090.0062	1146.199	1197.8329	1266.6243	1348.6114	1358.6685	1370.9609	1425.6252	1441.04	1483.0354	1587.8698	1644.905	1741.6401	3026.4658	3101.4527	3496.7722	3608.0365	3808.0731	3818.2315
NC1=C(O)N=C(CO)O1	Nc1c(O)nc(CO)o1	
InChI=1S/C4H6N2O3/c5-3-4(8)6-2(1-7)9-3/h7-8H,1,5H2	InChI=1S/C4H6N2O3/c5-3-4(8)6-2(1-7)9-3/h7-8H,1,5H2
