15
gdb 27627	2.98824	1.31183	0.91763	2.5142	78.84	-0.2015	-0.0024	0.199	1214.2696	0.111956	-416.823702	-416.81507	-416.814125	-416.856703	32.094	
C	 0.1615549206	 1.468206605	 0.0646175877	-0.504923
C	-0.0189998901	 0.000828337	 0.0097763481	 0.248004
C	-1.0933921574	-0.83125168	-0.0658121068	 0.056703
N	-0.6582707843	-2.1687972979	-0.0760848465	-0.390662
C	 0.6287191549	-2.0660697949	-0.016998312	 0.443767
N	 1.5629312135	-3.0683917997	-0.0714009415	-0.599793
O	 1.1084264155	-0.7981763347	 0.0401386203	-0.209692
C	-2.4567741758	-0.4629916444	-0.1206334532	 0.220257
C	-3.6147444888	-0.1355498166	-0.1659623804	-0.422476
H	 0.7557497715	 1.835171525	-0.7804662556	 0.141287
H	-0.8190129032	 1.947655273	 0.031712375	 0.153483
H	 0.6693894666	 1.7807293399	 0.9847238832	 0.138959
H	 1.1749287226	-3.9760582627	 0.1391089736	 0.27325
H	 2.4242180681	-2.873214473	 0.4177098761	 0.264747
H	-4.6376344536	 0.145572024	-0.206864728	 0.18709
134.8662	139.64	151.7917	202.1279	262.3452	301.8268	326.9416	407.8919	475.0761	544.6281	548.0163	583.6001	605.9708	653.2071	667.2446	710.1571	757.0009	818.1494	960.9518	1013.6198	1064.2327	1119.242	1148.8277	1232.5314	1321.2893	1411.9469	1430.8622	1471.6904	1487.5375	1607.248	1649.7689	1698.4	2234.6181	3026.1085	3074.7706	3134.6626	3504.0899	3575.7163	3684.369
CC1=C(N=C(N)O1)C#C	Cc1c(nc(N)o1)C#C	
InChI=1S/C6H6N2O/c1-3-5-4(2)9-6(7)8-5/h1H,2H3,(H2,7,8)	InChI=1S/C6H6N2O/c1-3-5-4(2)9-6(7)8-5/h1H,2H3,(H2,7,8)
