23
gdb 115797	3.85603	1.02098	0.90474	1.7246	85.51	-0.2494	0.0895	0.3389	1408.0091	0.205662	-388.306673	-388.297314	-388.29637	-388.34055	35.991	
C	 0.131935234	 1.5099060367	-0.0768940414	-0.384611
C	 0.0153604562	-0.0150950545	 0.0046972437	-0.183451
C	-1.4302638298	-0.5272175764	 0.0280204688	 0.014098
C	-2.2526058185	-0.2087179508	-1.2509836093	-0.229402
C	-3.2985743266	-1.3400226545	-1.3768748097	-0.284195
C	-2.6480785155	-2.5350929409	-0.6951385896	 0.41944
C	-3.431016246	-3.7908105105	-0.428212124	-0.484607
O	-1.2777982999	-2.7172690458	-1.1089724366	-0.306404
C	-1.5412547733	-2.0387220025	 0.1324470344	-0.030168
H	 1.1794380958	 1.8266797184	-0.0649385652	 0.111765
H	-0.3203458506	 1.8996327658	-0.9946456415	 0.118859
H	-0.3704626943	 1.9916646921	 0.7699190906	 0.11039
H	 0.5321560967	-0.4766031472	-0.8458857508	 0.109999
H	 0.5324931015	-0.3684759949	 0.9065853317	 0.089558
H	-1.9403685791	-0.1035411089	 0.9069010774	 0.06548
H	-2.7133883207	 0.7812498398	-1.2175201666	 0.096272
H	-1.5853923002	-0.2305623662	-2.1170310722	 0.113937
H	-4.2232803641	-1.0905428047	-0.8410358093	 0.097772
H	-3.572649753	-1.5480395375	-2.416654817	 0.102586
H	-3.765326374	-4.2459286216	-1.3672794496	 0.125459
H	-2.817958052	-4.5229698836	 0.1032637421	 0.128075
H	-4.3208816121	-3.5743711306	 0.1727288994	 0.118697
H	-1.1969214447	-2.5581410019	 1.0253899649	 0.080453
81.7437	122.0914	174.2335	190.5524	215.7103	245.6472	293.5733	343.2147	402.6378	416.6588	505.2029	578.4393	660.6946	699.6215	772.4555	845.5555	851.7705	857.3811	918.7368	940.3036	966.1515	987.9954	1012.3297	1033.3544	1040.9605	1067.7495	1088.0864	1142.6966	1160.7408	1197.0811	1224.7683	1243.2639	1280.5513	1297.2144	1312.7438	1330.7832	1339.1824	1359.3774	1386.5292	1410.764	1413.5103	1457.308	1478.7024	1487.4739	1490.0649	1494.6552	1500.8047	1503.2497	1508.4355	2988.6813	3017.0899	3028.2053	3029.9903	3034.3605	3055.2977	3061.7419	3075.3287	3094.0064	3096.3651	3103.783	3109.7931	3121.176	3126.6204
CCC1CCC2(C)OC12	CC[C@H]1CC[C@@]2(C)O[C@@H]12	
InChI=1S/C8H14O/c1-3-6-4-5-8(2)7(6)9-8/h6-7H,3-5H2,1-2H3	InChI=1S/C8H14O/c1-3-6-4-5-8(2)7(6)9-8/h6-7H,3-5H2,1-2H3/t6-,7-,8+/m0/s1
