20
gdb 68412	2.52547	1.84391	1.41035	2.4252	77.94	-0.2368	0.0704	0.3072	999.5834	0.171941	-403.106036	-403.098253	-403.097309	-403.13783	31.704	
C	-0.0792150345	 1.5127190107	-0.0061316481	-0.522994
C	 0.040389411	 0.015618142	-0.0222992862	 0.328957
C	 0.4712550302	-0.8131411212	-1.2622083379	-0.269679
C	-0.4230053207	-1.8269945423	-0.5189251948	 0.0717
C	 0.3868335088	-2.1786034994	 0.7456093264	-0.299212
C	 0.753802468	-0.7300055629	 1.1207432958	 0.367813
C	 1.9982818907	-0.2668519101	 1.770585608	-0.318757
N	 0.721008257	-0.3043787542	 2.5160406442	-0.373593
O	-1.242752497	-0.7066615147	-0.05647213	-0.329506
H	 0.9084925221	 1.9824678918	-0.0516135883	 0.12662
H	-0.6623573366	 1.8555962811	-0.8642397132	 0.135528
H	-0.5868655272	 1.8579022089	 0.9010226088	 0.129865
H	 0.0039716919	-0.4416907149	-2.1754100741	 0.105887
H	 1.5307218419	-1.0384646607	-1.4110162404	 0.094837
H	-0.9872888453	-2.6114013556	-1.0220308239	 0.080187
H	-0.2337231134	-2.6438821467	 1.513910447	 0.122048
H	 1.2524242045	-2.8161985442	 0.5435694696	 0.099001
H	 2.7419082308	-0.9870878703	 2.1022885013	 0.116641
H	 2.4075342942	 0.6999382384	 1.4853414203	 0.106649
H	 0.3370617637	 0.6342092042	 2.6020089256	 0.228008
122.3426	176.8078	242.0012	264.9527	329.8713	384.5492	414.8138	464.5982	532.4446	597.1102	631.0023	754.5067	818.4273	834.1768	846.1138	864.0589	895.6696	927.0587	929.2599	970.2377	984.7837	999.4837	1026.2642	1046.5214	1083.1706	1118.8013	1132.4967	1154.9965	1195.9828	1200.0792	1235.4323	1256.0517	1275.7138	1291.6414	1299.1654	1349.9398	1404.5156	1417.1978	1475.9545	1478.9782	1492.1415	1494.8544	1516.6996	3037.831	3060.2193	3063.9963	3097.7258	3104.5386	3121.105	3122.0695	3127.5668	3137.6627	3180.2772	3489.3427
CC12CC(CC11CN1)O2	C[C@@]12C[C@@H](C[C@]31CN3)O2	
InChI=1S/C7H11NO/c1-6-2-5(9-6)3-7(6)4-8-7/h5,8H,2-4H2,1H3	InChI=1S/C7H11NO/c1-6-2-5(9-6)3-7(6)4-8-7/h5,8H,2-4H2,1H3/t5-,6+,7+/m0/s1
