21
gdb 106793	2.48955	1.5732	1.16744	0.928	84.09	-0.2248	0.0204	0.2452	1148.766	0.181527	-387.081071	-387.072019	-387.071075	-387.1144	34.809	
C	 0.0843912903	 1.2736392939	-0.3493119984	-0.253375
O	-0.0158007965	 0.0152006937	 0.2897954173	-0.293935
C	-1.2823533851	-0.5558802337	 0.221914463	 0.39929
C	-1.7803705248	-1.1385803283	-1.088530143	-0.387266
C	-1.440893983	-2.0581296226	 0.0724394075	 0.254619
C	-0.2492421787	-2.9761846923	-0.0488779916	-0.476325
C	-2.6083024369	-2.4663891293	 0.9783890557	-0.335993
C	-3.0929632186	-1.1596231168	 1.5712445393	-0.078208
C	-2.3503680429	-0.124103989	 1.177194945	-0.142455
H	 1.1260908659	 1.5921906493	-0.2647555564	 0.124867
H	-0.1894176959	 1.2110231606	-1.4118391343	 0.109461
H	-0.5548739047	 2.0301081228	 0.1282558932	 0.107859
H	-2.81600553	-0.9784152416	-1.3723114002	 0.105609
H	-1.0734636093	-1.1518101126	-1.913173447	 0.109148
H	 0.5741284964	-2.4773328352	-0.5666641843	 0.125122
H	 0.1158910766	-3.27846473	 0.9390851605	 0.116627
H	-0.5027937828	-3.8863703805	-0.6046955908	 0.112302
H	-3.4002848264	-2.9821435716	 0.4193871118	 0.108744
H	-2.2828132065	-3.1641989844	 1.7627220845	 0.105818
H	-3.9617096205	-1.1004744591	 2.2172163137	 0.09389
H	-2.4939894066	 0.9099827267	 1.4688145842	 0.094199
97.1239	158.6569	169.2771	181.3944	201.1353	276.4001	318.1268	369.4233	434.9032	469.2992	497.3454	575.9721	690.8468	723.6122	764.2873	808.1791	899.6974	932.1123	940.0944	947.0197	965.849	973.9914	997.74	1048.2652	1064.3691	1098.9993	1107.5389	1160.1457	1181.9289	1191.9678	1215.3359	1248.3423	1257.0531	1314.8445	1380.208	1383.2416	1418.0033	1464.436	1475.633	1483.9167	1490.0728	1491.3448	1500.7275	1507.6675	1670.2956	2990.0028	3007.9623	3026.672	3039.0071	3041.1747	3083.554	3112.5641	3116.2979	3116.8799	3185.2413	3204.6927	3210.0822
COC12CC1(C)CC=C2	CO[C@@]12C[C@]1(C)CC=C2	
InChI=1S/C8H12O/c1-7-4-3-5-8(7,6-7)9-2/h3,5H,4,6H2,1-2H3	InChI=1S/C8H12O/c1-7-4-3-5-8(7,6-7)9-2/h3,5H,4,6H2,1-2H3/t7-,8-/m0/s1
