18
gdb 45212	2.92494	1.83685	1.4204	2.359	73.69	-0.2217	-0.0244	0.1973	940.4841	0.15021	-401.938338	-401.931601	-401.930657	-401.969612	27.39	
O	-0.0122543191	-0.0235181703	-0.0074627265	-0.312054
C	-0.0357565972	 1.1791485254	 0.0241670539	 0.388812
C	-1.2809942801	 2.0711989791	 0.0826920637	-0.340919
C	-0.7468230611	 3.4429366903	 0.4733741792	 0.0128
C	-0.3311770156	 3.6504309671	 1.9590855983	-0.272553
C	 1.1385976064	 3.6426902556	 1.4808899206	 0.03988
C	 1.8436876463	 2.2721487363	 1.4262244213	-0.260936
C	 1.1850264216	 2.0952340931	 0.0229520698	-0.097621
N	 0.7079090862	 3.516569109	 0.0264285734	-0.149309
H	-1.7214816916	 2.0887382527	-0.9226296258	 0.13811
H	-2.0324957961	 1.659888349	 0.7612147851	 0.133911
H	-1.3378610035	 4.2615114219	 0.0583716451	 0.084159
H	-0.6580691309	 4.6032204437	 2.3801070284	 0.112933
H	-0.6111235236	 2.8527598438	 2.6544187676	 0.105541
H	 1.7499152583	 4.5057848674	 1.753877642	 0.078506
H	 2.9308558367	 2.3483762235	 1.3678674796	 0.119591
H	 1.5826682849	 1.536672789	 2.1915998811	 0.115961
H	 1.8626225983	 1.8352867234	-0.7939922268	 0.103187
74.9597	209.6995	305.7739	354.858	440.9759	534.4332	581.9839	630.2682	692.9407	746.5819	759.3796	821.5208	840.5518	870.098	912.187	930.8154	965.786	989.3941	1009.7202	1024.2586	1038.3574	1087.6077	1111.1503	1147.3018	1156.8467	1190.3931	1208.6344	1229.4744	1249.2486	1261.7936	1266.3772	1294.7963	1297.9322	1338.4186	1369.2781	1442.289	1479.5388	1491.4805	1844.4917	3035.8235	3052.5456	3063.6953	3075.9508	3077.984	3081.7032	3105.9778	3115.358	3124.134
O=C1CC2CC3CC1N23	O=C1C[C@H]2C[C@H]3C[C@@H]1N23	
InChI=1S/C7H9NO/c9-7-3-5-1-4-2-6(7)8(4)5/h4-6H,1-3H2	InChI=1S/C7H9NO/c9-7-3-5-1-4-2-6(7)8(4)5/h4-6H,1-3H2/t4-,5+,6-/m0/s1
