16
gdb 56065	4.99073	0.67545	0.65243	5.3766	71.05	-0.2624	-0.0333	0.2291	1697.5785	0.120172	-475.05838	-475.04849	-475.047546	-475.095055	32.81	
C	-0.2133992992	 1.3376309901	-0.2261493401	-0.477094
C	-0.4268055161	-0.1606811875	-0.2042172848	 0.383825
O	-1.0619796206	-0.7242125482	 0.6519359304	-0.280174
C	 0.2564243749	-0.9472815923	-1.3411377215	-0.274885
N	-0.3900824048	-2.2077813866	-1.611816757	-0.216197
C	-0.2066740785	-3.1380632345	-0.7840766928	 0.156105
O	-0.819145659	-4.3517573794	-0.8865713046	-0.192518
C	-2.0191034554	-4.431399238	-1.5611367167	 0.187119
O	-2.4989764195	-5.4862372022	-1.8266742471	-0.249104
H	 0.8348123182	 1.5822455765	-0.4293129456	 0.140591
H	-0.8055497985	 1.7747838193	-1.0390152182	 0.154377
H	-0.526551271	 1.7756684247	 0.7219574948	 0.151323
H	 0.2723402166	-0.340529879	-2.2515529625	 0.128598
H	 1.3079714625	-1.0617091055	-1.0241284117	 0.130517
H	 0.4681153686	-3.1337221512	 0.0753003083	 0.126606
H	-2.4406004782	-3.4409417961	-1.7742850309	 0.13091
40.2041	56.1814	82.346	111.8817	134.6271	205.2055	244.4359	296.8089	379.7809	405.2949	473.8241	524.7645	621.8969	775.1242	793.1411	869.3955	961.3985	994.3575	1026.004	1039.3718	1076.4203	1113.5596	1183.3326	1198.1774	1254.8554	1341.592	1383.2456	1395.5873	1404.1895	1461.7838	1473.3201	1477.7395	1737.9277	1826.1951	1878.4887	2962.8131	3035.8715	3074.1605	3078.5329	3097.1177	3103.0583	3155.3967
CC(=O)CN=COC=O	CC(=O)CN=COC=O	
InChI=1S/C5H7NO3/c1-5(8)2-6-3-9-4-7/h3-4H,2H2,1H3	InChI=1S/C5H7NO3/c1-5(8)2-6-3-9-4-7/h3-4H,2H2,1H3
