16
gdb 5641	3.40831	1.89817	1.33369	3.445	66.31	-0.1896	0.0406	0.2302	923.5031	0.131805	-379.984466	-379.976692	-379.975748	-380.017267	28.359	
C	-0.1270253408	 1.570020635	-0.0292064094	-0.374617
C	 0.0731447833	 0.0527514905	-0.0134320143	-0.156776
N	 0.6958710604	-0.4547613679	-1.2216902021	-0.086837
C	 0.0907880069	-0.6708420291	-2.4580174986	-0.110425
C	 1.0357715162	-1.1148426909	-3.3115569889	-0.095859
N	 2.2325418477	-1.1672725338	-2.6022625136	-0.361927
C	 2.0541040367	-0.7561350332	-1.2888318754	 0.463087
O	 2.8813289277	-0.6763110183	-0.3977461411	-0.449916
H	 0.8345954849	 2.0814405689	-0.1261254922	 0.140226
H	-0.7662124642	 1.87905521	-0.862480184	 0.117628
H	-0.5997392323	 1.8986566854	 0.9016239673	 0.119479
H	 0.7362807217	-0.2332973636	 0.8070654647	 0.147692
H	-0.8838201537	-0.4617320455	 0.1299791593	 0.109062
H	-0.9606570083	-0.4986552858	-2.6127538334	 0.133424
H	 0.9662249938	-1.3986329223	-4.3469147009	 0.13831
H	 3.1286370501	-1.4585265594	-2.9490304374	 0.267447
38.4958	107.2802	213.7373	224.4173	310.4657	367.6674	436.5645	523.0379	604.4306	650.439	657.3809	757.0539	765.0651	774.4214	796.224	904.1655	965.3088	1053.4371	1093.2831	1105.8235	1122.444	1185.7763	1255.2517	1286.5622	1373.3205	1387.8184	1403.464	1411.1379	1451.3814	1483.704	1491.7761	1502.7785	1633.3546	1820.0921	3039.5675	3041.4328	3099.3669	3115.3468	3126.2389	3275.663	3299.0305	3701.3752
CCN1C=CNC1=O	CCn1cc[nH]c1=O	
InChI=1S/C5H8N2O/c1-2-7-4-3-6-5(7)8/h3-4H,2H2,1H3,(H,6,8)	InChI=1S/C5H8N2O/c1-2-7-4-3-6-5(7)8/h3-4H,2H2,1H3,(H,6,8)
