16
gdb 18714	3.36388	2.19606	1.5265	1.4602	64.61	-0.2453	-0.0057	0.2396	826.5226	0.131759	-383.728672	-383.72187	-383.720925	-383.759456	26.714	
O	-0.0222849391	 1.4398758973	 0.057398719	-0.438954
C	 0.0282360087	 0.0209950605	-0.0213299924	 0.111324
C	 0.897534962	-0.5735085347	 1.1058712121	-0.288975
C	 0.7564322475	-2.0663293381	 1.2536590359	-0.08896
C	-0.3785990818	-2.700787193	 0.9572597367	-0.043781
C	-1.5541635179	-1.9545722542	 0.4417394127	 0.000141
O	-1.9920261387	-0.8027695182	 1.2064501606	-0.266026
C	-1.3587251813	-0.5838021608	-0.056552506	 0.011078
H	-0.5089991589	 1.6627597553	 0.8595676701	 0.285456
H	 0.4995303012	-0.1899669199	-0.9896399481	 0.097558
H	 1.9401424833	-0.2889354252	 0.9369696727	 0.113595
H	 0.59685167	-0.0955194982	 2.0486928011	 0.121288
H	 1.6036192536	-2.618051231	 1.6511965138	 0.099742
H	-0.4774822085	-3.7736035224	 1.0878741692	 0.094374
H	-2.3790224743	-2.5400607751	 0.0411527931	 0.094824
H	-2.0143243358	-0.1943488024	-0.8358682504	 0.097315
114.0453	218.135	294.9348	341.8146	381.5029	427.3504	514.0518	530.4131	655.649	713.3949	722.8325	817.3954	871.1994	908.8271	953.6095	958.0357	984.1868	1013.8612	1051.8368	1082.6684	1125.2717	1145.18	1185.8781	1199.9102	1266.0909	1294.1821	1334.8344	1355.7023	1369.6217	1413.9432	1429.3267	1453.7913	1469.663	1708.6279	3014.6137	3038.0394	3084.2455	3110.8516	3135.3912	3162.6356	3188.4108	3793.6599
OC1CC=CC2OC12	O[C@H]1CC=C[C@H]2O[C@@H]12	
InChI=1S/C6H8O2/c7-4-2-1-3-5-6(4)8-5/h1,3-7H,2H2	InChI=1S/C6H8O2/c7-4-2-1-3-5-6(4)8-5/h1,3-7H,2H2/t4-,5+,6-/m0/s1
