24
gdb 15424	4.56135	0.82818	0.7632	0.0956	86.57	-0.2612	0.0923	0.3535	1628.5479	0.222675	-314.271729	-314.261686	-314.260742	-314.307125	36.563	
C	 0.1272770792	 1.544871171	-0.2258394957	-0.381453
C	 0.2628168167	 0.0234841794	-0.1241718682	-0.154533
C	 0.4393749824	-0.4702991334	 1.3187450254	-0.189992
C	 0.5608092581	-1.9781633164	 1.4111290926	-0.009045
C	 1.8976532024	-2.6680456328	 1.2536477811	-0.291956
C	 1.1846800869	-2.69626533	 2.5867452809	 0.003863
C	 1.7545222414	-1.9841283638	 3.7977283146	-0.193149
C	 2.7680045366	-2.8458874125	 4.5605883269	-0.371843
H	 1.0159144452	 2.0491492846	 0.1703899494	 0.111803
H	-0.0023624016	 1.8673807763	-1.2637853993	 0.109734
H	-0.736373032	 1.9046933211	 0.344723795	 0.112237
H	-0.6236710291	-0.454174765	-0.5622193353	 0.092033
H	 1.1162496481	-0.3150342081	-0.7252416266	 0.097922
H	 1.3259929901	 0.0080978009	 1.7522281438	 0.091041
H	-0.4142119226	-0.1294760324	 1.9220486302	 0.090743
H	-0.2818773756	-2.5002681034	 0.9613487197	 0.075454
H	 1.9619973623	-3.5765809942	 0.6646386989	 0.104263
H	 2.774650025	-2.0304449034	 1.1776764696	 0.103202
H	 0.7133848041	-3.6454552053	 2.8361594992	 0.074902
H	 2.2358592801	-1.0484619626	 3.4919904584	 0.094397
H	 0.9375667902	-1.6985604407	 4.4741413081	 0.093999
H	 3.162915754	-2.3174300893	 5.434125159	 0.107453
H	 2.3086601403	-3.7760103475	 4.9134612072	 0.111897
H	 3.612770658	-3.1184030924	 3.919250495	 0.117029
60.208	86.1223	95.623	112.358	205.3991	232.9222	246.4554	285.2795	303.5022	396.3444	445.4926	551.0208	740.649	759.1191	797.026	819.9206	863.6408	869.9668	900.534	953.1993	958.7186	991.2558	1045.2221	1052.9979	1062.0569	1085.6761	1118.2055	1129.1711	1150.3679	1199.7178	1201.8506	1247.6373	1270.0377	1295.8664	1304.0464	1329.4872	1341.0889	1383.549	1405.6711	1412.0924	1414.4911	1435.6906	1479.7273	1484.3041	1493.083	1498.5315	1499.2763	1500.5699	1507.5492	1510.9119	3004.4701	3016.0755	3017.9379	3027.8848	3030.273	3040.6567	3055.3203	3064.5295	3094.423	3097.5893	3099.7644	3103.1836	3111.8068	3118.558	3124.1796	3202.9065
CCCC1CC1CC	CCC[C@H]1C[C@H]1CC	
InChI=1S/C8H16/c1-3-5-8-6-7(8)4-2/h7-8H,3-6H2,1-2H3	InChI=1S/C8H16/c1-3-5-8-6-7(8)4-2/h7-8H,3-6H2,1-2H3/t7-,8+/m1/s1
