19
gdb 37994	3.55188	1.59203	1.26543	0.3958	88.49	-0.1999	-0.0107	0.1892	1018.7772	0.16282	-348.761928	-348.755276	-348.754332	-348.792642	28.261	
C	 0.0851349188	 1.5525002781	 0.0900955322	-0.28182
C	 1.3805770541	 0.7585126205	-0.0309732266	-0.061594
C	 2.022858087	 0.4540212015	 1.2844262134	-0.261571
C	 1.2171886517	-0.3251915644	 2.0204986023	 0.324876
C	 0.9925489366	-0.6559013891	 3.417948446	-0.18391
C	-0.3109089297	-0.9407226409	 3.5993167889	-0.072275
C	-1.1170031572	-0.7973282732	 2.3171359098	-0.299483
C	-0.0012761975	-0.801100265	 1.2410428361	-0.044864
C	 0.0202249213	 0.0525351945	-0.0146337227	-0.082077
H	-0.117126042	 2.0352752682	 1.040500211	 0.110827
H	-0.2439011286	 2.1096399076	-0.7814968281	 0.106704
H	 1.9684272099	 0.8626125493	-0.9367224552	 0.082981
H	 2.9354930223	 0.9331087201	 1.6198242933	 0.08968
H	 1.7426100357	-0.6125147865	 4.198380873	 0.098466
H	-0.7675811983	-1.1800234845	 4.5535703262	 0.095419
H	-1.8621932166	-1.5878604228	 2.1823270056	 0.101054
H	-1.6621383897	 0.1582334409	 2.3190242974	 0.111909
H	 0.1648512607	-1.8499641318	 0.9537332132	 0.084562
H	-0.3789224285	-0.3624887524	-0.932649106	 0.081118
167.8293	181.8231	324.0478	425.3792	432.8341	500.6269	623.6138	636.4204	684.5971	754.5668	768.7333	796.8025	804.7455	843.0228	856.3788	910.937	934.4093	947.5451	966.1383	975.1296	1031.4442	1034.6426	1059.7607	1067.9137	1100.5024	1106.7508	1121.4201	1161.1841	1184.8891	1205.0424	1253.7102	1274.1001	1302.3308	1335.5159	1350.9198	1366.5257	1381.9941	1476.0723	1482.4554	1614.5127	1694.6345	2987.5661	3002.9208	3069.1341	3122.536	3162.2292	3175.9103	3186.9202	3195.5259	3211.9322	3213.155
C1C2C=C3C=CCC3C12	C1[C@H]2[CH][C]3C=CC[C@H]3[C@@H]12	
InChI=1S/C9H10/c1-2-6-4-7-5-9(7)8(6)3-1/h1-2,4,7-9H,3,5H2	InChI=1S/C9H10/c1-2-6-4-7-5-9(7)8(6)3-1/h1-2,4,7-9H,3,5H2/t7-,8-,9+/m1/s1
