20
gdb 89082	4.9922	0.62428	0.59102	3.8339	81.23	-0.2603	0.0322	0.2926	1875.1377	0.169352	-403.143924	-403.13395	-403.133006	-403.180071	35.194	
C	 0.31781466	 1.5859325898	-0.1341465235	-0.396714
C	 0.1946981091	 0.0799955372	-0.0636892684	-0.028265
C	 1.4169770351	-0.780677959	 0.2010535971	-0.323245
C	 0.3302813566	-0.6445845582	 1.2413299736	 0.121454
O	 0.5692253887	 0.1310314525	 2.3783721132	-0.249231
C	 1.2841104525	-0.5543593019	 3.3829071267	-0.053132
C	 1.4707430466	 0.4363832175	 4.5385947507	-0.34064
C	 2.1973719686	-0.1548739184	 5.6573224295	 0.247529
N	 2.7741441751	-0.6389214688	 6.5335925132	-0.301599
H	 1.0197214944	 1.9565076217	 0.6162372735	 0.123734
H	 0.6697765029	 1.9020041077	-1.1216121734	 0.117453
H	-0.6479965072	 2.0686543896	 0.0493378444	 0.120084
H	-0.5392611591	-0.3453828668	-0.7430861245	 0.090071
H	 1.5326496461	-1.7237293268	-0.3217444976	 0.114841
H	 2.3456312199	-0.2548596538	 0.3999158216	 0.117298
H	-0.3131999486	-1.5054849898	 1.4271654105	 0.088019
H	 0.7290860734	-1.4390995945	 3.7296041824	 0.112182
H	 2.2595886965	-0.8983749403	 3.0109682796	 0.115683
H	 2.0129584635	 1.3164957041	 4.1774715965	 0.161172
H	 0.4901545059	 0.7811714284	 4.882830995	 0.163305
46.3914	69.3909	87.4426	133.6186	163.8257	198.7096	273.1809	314.6046	361.8443	399.2277	480.7253	509.7043	595.6553	756.4093	795.3994	831.7656	873.4833	922.2103	958.184	985.5099	1024.6761	1055.6049	1073.0873	1093.055	1106.3136	1118.3471	1150.6187	1186.8744	1195.9231	1228.6689	1252.8889	1299.3579	1304.0894	1369.6516	1398.8185	1419.2427	1437.021	1470.9298	1484.9075	1494.0734	1504.5884	1527.3521	2366.5718	2990.5646	3029.0513	3037.6023	3056.9259	3091.0554	3096.1295	3100.0294	3122.3125	3129.9206	3145.2513	3217.9865
CC1CC1OCCC#N	C[C@H]1C[C@H]1OCCC#N	
InChI=1S/C7H11NO/c1-6-5-7(6)9-4-2-3-8/h6-7H,2,4-5H2,1H3	InChI=1S/C7H11NO/c1-6-5-7(6)9-4-2-3-8/h6-7H,2,4-5H2,1H3/t6-,7+/m0/s1
