17
gdb 57176	2.64579	1.33343	0.92182	4.8033	73.75	-0.2581	-0.0618	0.1963	1239.9312	0.13382	-455.184138	-455.174408	-455.173464	-455.219463	33.748	
C	-1.4042670241	 0.9992362934	 0.536926112	-0.336767
N	-0.3600824123	 0.1163004064	 0.0146686859	-0.141015
C	 0.5323045433	-0.5613645385	 0.8371116948	 0.406511
C	 0.6182061168	-0.1248678713	 2.2846790846	-0.505557
O	 1.2187133265	-1.4695522037	 0.4022092476	-0.347061
C	-0.4758971082	-0.2958806648	-1.3242564781	 0.282661
N	-1.5645947295	-0.1164695707	-1.9552475799	-0.490794
C	 0.7724532964	-0.8198013054	-2.0213376598	 0.122944
O	 0.6775937833	-1.5091463031	-3.003976277	-0.258802
H	-1.7225345533	 1.6656428145	-0.263681301	 0.165632
H	-2.2815269016	 0.4342101772	 0.8693720158	 0.146322
H	-1.0158165547	 1.5874442858	 1.3675194755	 0.133871
H	-0.3353969135	-0.2676805798	 2.8020410225	 0.152363
H	 1.3820575589	-0.7342469013	 2.7658339662	 0.158964
H	 0.8880017862	 0.9321600299	 2.3712292211	 0.150358
H	-1.4367694761	-0.4498640625	-2.9138524034	 0.247441
H	 1.7387949819	-0.4440906061	-1.6492237869	 0.112927
63.3753	80.3182	101.6408	117.1842	188.6872	212.8435	294.7159	366.6423	377.4601	393.446	433.1192	543.8327	598.2557	607.8917	645.2275	820.8519	908.4816	934.8344	1005.5917	1006.3104	1052.6806	1058.5862	1149.7666	1166.8366	1225.4815	1357.0332	1370.8137	1400.826	1434.6168	1456.9214	1473.854	1482.7023	1488.9412	1515.5828	1695.3922	1757.6829	1809.1585	3001.7338	3048.7025	3050.4734	3113.6276	3131.6513	3166.6591	3171.7365	3458.1659
CN(C(C)=O)C(=N)C=O	CN(C(=O)C)C(=N)C=O	
InChI=1S/C5H8N2O2/c1-4(9)7(2)5(6)3-8/h3,6H,1-2H3	InChI=1S/C5H8N2O2/c1-4(9)7(2)5(6)3-8/h3,6H,1-2H3
