17
gdb 35926	3.15139	1.4262	1.10158	3.8177	72.64	-0.2421	0.0062	0.2483	1083.5723	0.137936	-417.98067	-417.973109	-417.972164	-418.012935	28.815	
N	-0.072395566	-1.1378210117	-0.1977521437	-0.312515
C	-0.0501425154	 0.0091599777	-0.0658596534	 0.279246
C	 0.0169025024	 1.4726173816	 0.0567110639	-0.053379
O	-0.6394975338	 1.8528364273	 1.2489868834	-0.250052
C	-0.580277473	 3.2684172013	 1.4035025429	-0.085495
C	 0.843317586	 3.7167751129	 1.7225995057	-0.157322
N	 1.8588610545	 3.0984954015	 0.8493404861	-0.107057
C	 2.3240588271	 1.7593205662	 1.2161045262	-0.23804
C	 1.4683465642	 1.9525995753	 0.0218253869	-0.023417
H	-0.5158454191	 1.9023923124	-0.8094417769	 0.120024
H	-0.9460108408	 3.7525519377	 0.48407561	 0.103206
H	-1.26499858	 3.5217061634	 2.2163659095	 0.124799
H	 0.9132926172	 4.805284438	 1.6121707965	 0.114913
H	 1.0803065073	 3.4797131376	 2.7652313987	 0.118326
H	 3.3900811405	 1.5833351777	 1.1040407631	 0.123897
H	 1.8624437756	 1.2816902638	 2.0781192867	 0.130321
H	 1.9083332934	 1.9360528274	-0.9730205756	 0.112545
83.8715	141.5332	194.9858	289.1032	367.2707	381.9804	446.5475	463.898	549.8728	614.0187	687.2769	739.9691	830.7218	890.1011	900.0281	950.3834	964.0886	1026.6033	1054.0013	1076.481	1114.5345	1125.1139	1132.3493	1158.6334	1176.8677	1265.0379	1286.8603	1312.3241	1324.8873	1358.8385	1373.541	1403.1101	1417.6589	1490.8493	1500.0299	1512.4367	2367.2632	2956.047	2983.757	3032.5638	3073.443	3102.7399	3105.0148	3128.5582	3191.7959
N#CC1OCCN2CC12	N#C[C@H]1OCCN2C[C@@H]12	
InChI=1S/C6H8N2O/c7-3-6-5-4-8(5)1-2-9-6/h5-6H,1-2,4H2	InChI=1S/C6H8N2O/c7-3-6-5-4-8(5)1-2-9-6/h5-6H,1-2,4H2/t5-,6+,8?/m0/s1
