17
gdb 55558	2.43963	1.01362	0.87654	0.9265	70.31	-0.1981	0.0434	0.2416	1361.1831	0.132855	-455.170441	-455.159918	-455.158974	-455.20863	35.18	
O	 0.2496448216	-0.5766785163	-0.3969692067	-0.299365
C	 0.3634497194	 0.1482794307	 0.5053512985	 0.602769
O	 0.5124979412	 0.8638127005	 1.4099083844	-0.307563
C	-2.0294249051	 2.5336130007	-0.4548341724	-0.444002
C	-2.6898499853	 1.3949689994	-0.1982047256	 0.353477
N	-2.6183298972	 0.6951859478	 1.0168610985	-0.551223
H	-3.4933233267	 0.2428427744	 1.250366756	 0.248141
H	-2.2868670761	 1.2630299612	 1.7846628805	 0.252263
N	-3.5484238249	 0.7516339171	-1.1078908904	-0.103161
C	-3.2323759482	 0.709672023	-2.5229332434	-0.219209
C	-3.1519884811	-0.5302770134	-1.6963908737	-0.232432
H	-1.472260017	 3.0418395746	 0.3216603699	 0.094023
H	-2.065955145	 2.9928934087	-1.4320227419	 0.096729
H	-4.0702220962	 0.8714398122	-3.1947003948	 0.120448
H	-2.2901606	 1.1479067541	-2.8414665162	 0.125706
H	-2.1606702058	-0.9045954727	-1.4581769811	 0.146376
H	-3.9357256537	-1.280070892	-1.7532271518	 0.117025
32.4707	46.9732	60.8527	79.7174	96.1035	113.0025	248.8256	274.4905	337.6466	446.2556	536.4898	636.2325	676.3144	682.592	696.4711	724.3084	747.2869	788.7204	831.6521	923.3983	971.7276	995.926	1047.4285	1117.6014	1138.5067	1141.6831	1176.3693	1183.5405	1286.9634	1377.6979	1397.6488	1451.3797	1489.4398	1516.735	1637.2075	1707.0236	2431.6693	3111.7852	3116.8972	3179.4658	3196.1107	3212.5639	3268.133	3540.4498	3642.7848
[O-]C(=O)CC(=[NH2+])N1CC1	O=C=O.C=C(N)N1CC1	
InChI=1S/C5H8N2O2/c6-4(3-5(8)9)7-1-2-7/h6H,1-3H2,(H,8,9)	InChI=1S/C4H8N2.CO2/c1-4(5)6-2-3-6;2-1-3/h1-3,5H2;
