22
gdb 64327	2.36715	1.38772	1.10594	3.9904	82.82	-0.2325	0.037	0.2695	1217.9104	0.195244	-404.414555	-404.405406	-404.404461	-404.448133	35.883	
C	 0.0125035567	 1.532636819	-0.0219672276	-0.412557
C	-0.0308567445	-0.0041191733	-0.0281804879	 0.257427
C	-1.4967606064	-0.4726960611	 0.0824547998	-0.396566
C	 0.6300274084	-0.5415299431	-1.3127756915	-0.202269
C	 0.9919490264	-2.0247778242	-1.2084018156	-0.236793
C	 1.9788218323	-2.2388767897	-0.0576577768	-0.295954
C	 1.5729769842	-1.5588589781	 1.2444909064	 0.383872
O	 2.0108974203	-1.9136474978	 2.3244608807	-0.381728
N	 0.7278559248	-0.4868358109	 1.1348828465	-0.314058
H	 1.0453744909	 1.8903927909	-0.056045979	 0.122811
H	-0.5255494632	 1.937454321	-0.8849285017	 0.118486
H	-0.4588642176	 1.9348574665	 0.8819266036	 0.111738
H	-2.0975033643	-0.07357316	-0.7414488655	 0.115235
H	-1.5709780815	-1.5631686199	 0.0682311973	 0.122391
H	-1.9397876777	-0.1232721806	 1.0209164421	 0.11356
H	-0.0452010918	-0.3587084722	-2.1548856572	 0.098947
H	 1.5439310917	 0.0340212578	-1.5069783068	 0.099055
H	 0.0896807073	-2.6257628788	-1.0455952418	 0.107481
H	 1.4276019921	-2.3740566363	-2.1502158381	 0.100983
H	 2.1347382016	-3.2959364016	 0.1697142086	 0.126688
H	 2.9622359669	-1.831625998	-0.3276661228	 0.126587
H	 0.4832909732	-0.0899856896	 2.0330741274	 0.234665
72.7611	99.6527	234.4112	256.1542	263.3265	308.9782	332.7626	372.4306	436.9176	452.6709	467.4718	513.4148	535.0032	616.2421	671.2719	729.021	820.3783	867.2113	895.1823	928.1456	948.2393	978.4588	1006.7106	1017.2198	1064.3982	1070.649	1135.7208	1176.2979	1220.2394	1237.485	1274.9416	1299.9699	1339.2002	1358.8978	1378.3877	1389.5852	1399.6094	1421.7893	1451.3143	1466.6289	1477.9171	1481.2548	1494.3757	1500.321	1507.7001	1510.0154	1782.542	3025.6737	3029.6248	3031.0063	3036.4306	3039.3166	3075.3932	3080.7673	3096.6618	3104.1221	3107.7002	3116.1156	3118.2364	3577.9351
CC1(C)CCCC(=O)N1	CC1(C)CCCC(=O)N1	
InChI=1S/C7H13NO/c1-7(2)5-3-4-6(9)8-7/h3-5H2,1-2H3,(H,8,9)	InChI=1S/C7H13NO/c1-7(2)5-3-4-6(9)8-7/h3-5H2,1-2H3,(H,8,9)
