14
gdb 133099	3.00652	1.26198	0.89382	3.3736	65.81	-0.2678	-0.0349	0.2329	1186.5103	0.101494	-478.024074	-478.016444	-478.0155	-478.056881	27.521	
O	 0.0198418041	 1.4242257693	 0.0078863145	-0.415461
C	-0.0046216847	 0.0127138956	 0.0036628056	-0.152616
C	-1.4315603008	-0.4700825	 0.0142289788	 0.321011
N	-1.5942244437	-1.8035265178	 0.0125468955	-0.308547
C	-2.8469418524	-2.239626197	 0.0217215	 0.06545
N	-3.9605490153	-1.4973603691	 0.0323870908	-0.305765
C	-3.7593312807	-0.1988602935	 0.0336661273	 0.36327
F	-4.8406102522	 0.5657502317	 0.044216146	-0.058016
C	-2.5079196266	 0.4057542998	 0.0249192739	-0.32643
H	 0.9361755263	 1.7129768956	 0.0003269263	 0.298931
H	 0.4884486467	-0.4108593103	-0.8851872696	 0.12289
H	 0.5034662323	-0.4164697222	 0.8812755708	 0.122904
H	-2.9909693249	-3.3170297629	 0.0204051493	 0.12781
H	-2.3794801982	 1.4780184609	 0.0263478408	 0.144567
68.7178	172.3441	192.5953	206.4381	241.7857	409.1622	462.8113	482.3456	563.6248	592.8569	628.8929	793.1124	809.5716	892.0486	977.8902	996.6348	1007.1899	1038.8475	1101.7747	1150.4467	1217.9724	1244.6911	1275.3218	1300.5592	1347.1386	1416.796	1457.3963	1495.0049	1504.5985	1607.9608	1631.9169	2981.5284	3007.6474	3171.8326	3251.285	3849.8533
OCC1=NC=NC(F)=C1	OCc1ncnc(F)c1	
InChI=1S/C5H5FN2O/c6-5-1-4(2-9)7-3-8-5/h1,3,9H,2H2	InChI=1S/C5H5FN2O/c6-5-1-4(2-9)7-3-8-5/h1,3,9H,2H2
