14
gdb 24840	2.66789	1.66833	1.02645	8.4922	76.48	-0.2289	-0.0616	0.1673	1066.397	0.103478	-436.730853	-436.723579	-436.722635	-436.763272	27.256	
O	 0.0238231501	 0.4424658906	 1.2906497444	-0.307248
C	-0.0017913188	 1.2606074059	 0.3931024167	 0.240894
C	-1.2894041641	 1.7289879427	-0.1234003724	-0.171942
C	-1.624926372	 2.6093819736	-1.0894316465	 0.008855
N	-0.8251027399	 3.3593204662	-1.9099097787	-0.32133
C	 0.5422587283	 3.4113353472	-1.9640141165	 0.008855
C	 1.4626607592	 2.7472827349	-1.2340968076	-0.171942
C	 1.3564290001	 1.7629082722	-0.1552897204	 0.240894
O	 2.3658109956	 1.3082968953	 0.3447896445	-0.307248
H	-2.1230511854	 1.2600428524	 0.3890571104	 0.120738
H	-2.6789038521	 2.7825819673	-1.2815814111	 0.133417
H	-1.3085911861	 3.9538814779	-2.5627914616	 0.271901
H	 0.8921112054	 4.1040105511	-2.7226923088	 0.133417
H	 2.4969812598	 2.9694446228	-1.4755811824	 0.120738
48.7335	127.2446	340.3326	368.1449	374.2357	376.6874	428.1952	539.7685	543.8497	624.1163	634.7298	761.3952	782.4634	832.1923	881.9547	905.9144	958.8647	992.3574	993.4066	1042.3258	1225.2064	1236.6711	1330.9594	1351.1309	1438.6547	1462.2655	1558.3584	1669.9567	1700.6804	1744.3461	1749.2004	3178.0912	3178.2097	3195.8322	3196.475	3648.4425
O=C1C=CNC=CC1=O	O=c1cc[nH]ccc1=O	
InChI=1S/C6H5NO2/c8-5-1-3-7-4-2-6(5)9/h1-4,7H	InChI=1S/C6H5NO2/c8-5-1-3-7-4-2-6(5)9/h1-4,7H
