18
gdb 16724	3.5908	1.70042	1.67045	0.8015	76.03	-0.256	0.0522	0.3082	883.6491	0.155275	-310.637168	-310.630005	-310.629061	-310.668214	28.69	
C	 0.5746496945	-0.9052243774	 0.839514877	-0.514086
C	 0.2801317586	 0.1835717577	 0.4207999141	 0.366283
C	-0.0891407612	 1.4939128999	-0.1049507745	-0.183012
C	-0.9149457359	 2.3494925449	 0.9121685688	-0.22773
C	 0.0833480424	 3.2904990488	 1.5667678816	-0.018124
C	 1.361922914	 2.7016865998	 2.1115280388	-0.293232
C	 1.3443689442	 3.3103275501	 0.7304151975	-0.018126
C	 1.1500860616	 2.3819378536	-0.4574154985	-0.22774
H	 0.8344567622	-1.8661537896	 1.2089277816	 0.194879
H	-0.6851766955	 1.3226154736	-1.0076944326	 0.10706
H	-1.6614816849	 2.9362065682	 0.3649543133	 0.098595
H	-1.4527956549	 1.7139686416	 1.6213180894	 0.111299
H	-0.2993826644	 4.1977391169	 2.0214259967	 0.079078
H	 1.8680923848	 3.265265825	 2.8881121811	 0.105601
H	 1.4476487052	 1.6256721967	 2.2152705074	 0.130286
H	 1.8921187298	 4.2321993584	 0.5679240645	 0.079079
H	 2.0262428415	 1.7686327501	-0.686048452	 0.111297
H	 0.923509108	 2.9768001916	-1.3494909139	 0.098594
118.2001	162.7018	256.0126	294.1697	380.7246	454.6542	528.2034	614.2009	623.5447	637.7946	748.0357	761.1241	768.1521	825.8171	875.9818	888.5741	943.027	967.4594	982.7779	1048.4234	1067.5575	1075.044	1092.0515	1110.1967	1123.9826	1190.8244	1204.5845	1219.952	1238.7021	1319.4401	1324.3088	1352.2304	1353.7801	1400.5413	1488.4768	1489.7374	1503.3082	2228.9851	3033.7631	3038.8378	3052.3449	3089.5867	3091.2568	3133.6654	3161.2717	3170.6094	3219.8174	3503.3105
C#CC1CC2CC2C1	C#C[C@H]1C[C@H]2C[C@H]2C1	
InChI=1S/C8H10/c1-2-6-3-7-5-8(7)4-6/h1,6-8H,3-5H2	InChI=1S/C8H10/c1-2-6-3-7-5-8(7)4-6/h1,6-8H,3-5H2/t6-,7-,8+
