21
gdb 98896	3.79684	1.01414	0.83115	3.8861	81.2	-0.223	0.0693	0.2923	1427.251	0.184368	-420.460094	-420.450419	-420.449475	-420.495701	34.286	
C	-0.0173282049	 1.4432463881	 0.0806272078	-0.322245
N	 0.1310492637	 0.0013660764	 0.0208562996	-0.367337
C	 0.5816662335	-0.6888273835	 1.131305247	 0.488144
O	 1.036802982	-0.1272466614	 2.1182365802	-0.429473
N	 0.506637738	-2.0589632015	 1.0339721898	-0.128386
C	 0.2050065453	-2.8090927481	-0.1843030647	-0.169156
C	 0.4386615809	-4.2741880596	 0.2222620858	-0.221785
C	 1.5139087459	-4.1698942838	 1.3161217456	-0.215663
C	 1.1156482285	-2.8960869426	 2.0722888889	-0.146808
H	 0.7075728424	 1.8214722481	 0.80132702	 0.166787
H	 0.1834539163	 1.8822680509	-0.9013835509	 0.115442
H	-1.0189514812	 1.7559687567	 0.4065967172	 0.114998
H	-0.4511666679	-0.4892851664	-0.6367732027	 0.236264
H	-0.8286683443	-2.6480862022	-0.5197882358	 0.101454
H	 0.8704680375	-2.510261697	-1.0075748976	 0.109496
H	-0.4826204763	-4.6943251782	 0.6399989223	 0.111106
H	 0.7337201761	-4.8964708003	-0.6257247449	 0.106275
H	 1.5544845968	-5.049471366	 1.9626544937	 0.104369
H	 2.5022377167	-4.0414884843	 0.860911586	 0.109092
H	 1.9534922084	-2.3670717627	 2.5291832047	 0.134714
H	 0.3921119326	-3.1170354229	 2.8692566879	 0.102711
48.9737	60.845	109.6758	142.0489	181.1329	194.1097	256.3852	322.3865	389.1949	443.0257	528.205	581.5259	723.1279	764.9491	823.5143	878.1189	881.88	922.6925	932.8859	977.0593	1006.0085	1047.8886	1147.7824	1150.9461	1163.9113	1170.4969	1187.478	1210.6074	1216.7929	1252.4254	1278.421	1323.807	1346.3297	1359.1242	1378.0555	1387.1806	1439.661	1490.5687	1491.1842	1499.4171	1505.2528	1526.7152	1535.6575	1560.3647	1758.4129	2987.3519	3005.6218	3008.0685	3014.3441	3047.0928	3053.8029	3079.0202	3104.3696	3110.6156	3116.828	3157.9053	3646.7374
CNC(=O)N1CCCC1	CNC(=O)N1CCCC1	
InChI=1S/C6H12N2O/c1-7-6(9)8-4-2-3-5-8/h2-5H2,1H3,(H,7,9)	InChI=1S/C6H12N2O/c1-7-6(9)8-4-2-3-5-8/h2-5H2,1H3,(H,7,9)
