16
gdb 28748	3.36341	1.05129	0.84538	2.3249	75.35	-0.1878	-0.0235	0.1643	1309.6621	0.123756	-437.928283	-437.919544	-437.9186	-437.963079	31.463	
O	 0.3131578551	 1.2637880156	 0.3142894739	-0.43164
C	 0.1375755147	-0.0473002556	 0.0187229249	 0.372882
C	-0.1234467474	-0.7274590775	-1.1479311466	-0.290392
C	-0.1962145419	-2.1107424247	-0.7968613585	-0.218011
C	 0.0102262262	-2.2249363592	 0.555729616	 0.276822
C	 0.068684337	-3.4081098671	 1.4705599015	-0.379427
C	 1.4753717958	-3.495973538	 2.0415858401	 0.152158
O	 1.7830251738	-3.0925997663	 3.1354175744	-0.251551
N	 0.2186517961	-0.940703472	 1.0443924043	-0.330025
H	 0.2416241876	 1.7702653649	-0.500294384	 0.309314
H	-0.2561096101	-0.2918029479	-2.1259440752	 0.089496
H	-0.394725073	-2.9314610721	-1.4696210077	 0.094893
H	-0.6397410985	-3.3281539282	 2.3035245925	 0.121981
H	-0.1575559492	-4.3096650237	 0.8931879866	 0.124233
H	 2.2360988645	-3.9003922291	 1.3373016515	 0.08398
H	 0.4464716694	-0.703193989	 1.9957821665	 0.275287
27.9075	67.7565	138.2494	245.8434	250.9658	278.6658	359.5203	441.8704	470.1601	494.2524	615.378	645.3436	678.4706	709.5739	736.0991	806.7458	872.5099	984.1493	1001.4835	1026.5388	1052.6158	1062.1652	1172.9873	1185.1685	1213.7002	1285.8643	1290.0491	1319.1427	1415.098	1427.7182	1459.6974	1529.7285	1568.786	1641.2096	1817.5015	2887.1821	3032.1488	3100.0859	3240.7616	3255.1716	3665.861	3848.6701
OC1=CC=C(CC=O)N1	Oc1ccc(CC=O)[nH]1	
InChI=1S/C6H7NO2/c8-4-3-5-1-2-6(9)7-5/h1-2,4,7,9H,3H2	InChI=1S/C6H7NO2/c8-4-3-5-1-2-6(9)7-5/h1-2,4,7,9H,3H2
