15
gdb 29525	3.20581	1.62616	1.0935	1.2879	68.43	-0.1666	0.0478	0.2144	1034.3093	0.114598	-453.927928	-453.920209	-453.919265	-453.959835	29.385	
N	-0.0051280422	 1.4457805417	 0.1561247728	-0.613188
C	 0.0227904955	 0.0440788364	 0.0473582672	 0.097067
C	-1.0560484629	-0.8213097791	-0.0761892905	-0.161817
N	-0.592285787	-2.1507670837	-0.1205930987	-0.391464
C	 0.7477860097	-2.090392887	 0.0643965387	 0.331541
C	 1.1576019535	-0.8015778341	 0.147495648	 0.209359
O	 2.5397576841	-0.748428875	-0.0214750692	-0.286509
C	 2.9050657474	-2.1109172959	 0.1988735569	 0.00311
O	 1.7836702902	-2.9581376122	-0.1589769393	-0.282161
H	 0.8202956517	 1.8729658467	-0.2453868795	 0.248229
H	-0.8243242625	 1.8466780873	-0.2823820735	 0.240872
H	-2.1122250762	-0.6187035484	-0.0074956235	 0.107086
H	-1.1772625848	-2.9557032775	 0.0221348618	 0.264763
H	 3.7596629965	-2.3712455136	-0.4267352951	 0.13048
H	 3.1159027872	-2.2643456256	 1.269474034	 0.102632
148.4654	185.5687	215.3848	251.57	277.4897	325.6692	392.3112	518.6846	556.8318	606.93	615.6429	650.6995	657.5134	765.3784	778.9132	817.5134	899.2913	1049.8992	1062.8377	1076.7307	1120.5885	1141.2432	1213.6244	1243.101	1294.8068	1348.5836	1416.5479	1484.7077	1515.1913	1561.6036	1591.4124	1652.6889	1672.9199	2971.3577	3128.4045	3265.0535	3532.6521	3621.6162	3673.1653
NC1=CNC2=C1OCO2	Nc1c[nH]c2c1OCO2	
InChI=1S/C5H6N2O2/c6-3-1-7-5-4(3)8-2-9-5/h1,7H,2,6H2	InChI=1S/C5H6N2O2/c6-3-1-7-5-4(3)8-2-9-5/h1,7H,2,6H2
