18
gdb 85208	2.4042	1.19306	0.86247	3.1232	75.05	-0.2477	-0.0365	0.2111	1325.0029	0.145488	-439.11969	-439.1103	-439.109356	-439.155153	32.879	
C	 0.0084924665	 1.631767886	-0.0367738983	-0.409765
C	 0.034676628	 0.1117561007	 0.0056978266	 0.05709
C	 1.0230216093	-0.6268583036	-0.948390867	-0.400805
C	 1.6517287486	-1.2152139117	 0.3317176789	 0.414763
O	 2.5150481411	-2.0039450319	 0.6111643936	-0.366794
N	 0.7905199437	-0.4877327683	 1.1255992543	-0.091238
C	 0.5378271564	-0.5679159746	 2.5393715914	-0.263524
C	 0.8720080889	 0.7249810283	 3.2749628141	 0.157369
O	 0.218167669	 1.1758172849	 4.1767597612	-0.230162
H	 1.0237135122	 2.0402695415	-0.010194851	 0.124783
H	-0.4792425356	 1.9762805758	-0.9542905327	 0.130001
H	-0.5503172749	 2.0443670205	 0.8099074623	 0.134021
H	-0.9852317888	-0.2897131971	-0.0507916696	 0.089159
H	 0.5787957119	-1.37170344	-1.610633044	 0.136367
H	 1.6878344645	 0.0236931135	-1.5204975958	 0.133608
H	-0.4983802509	-0.8474998864	 2.7640760898	 0.132742
H	 1.1997477428	-1.3547412905	 2.9281150262	 0.164322
H	 1.7946588573	 1.2255045831	 2.9029314999	 0.088063
49.277	62.2954	109.9641	119.4791	219.5594	245.6102	297.937	321.0843	436.3004	441.9342	538.6786	576.3474	685.9283	726.7408	798.9148	855.3032	911.0212	956.8303	1047.3437	1054.6073	1059.8062	1080.0734	1106.2102	1154.6515	1185.8944	1215.3614	1253.7538	1317.2811	1334.2262	1381.5296	1402.0226	1410.2797	1414.9514	1440.4707	1464.2181	1490.6377	1497.4639	1840.4861	1879.12	2882.2362	3018.6853	3023.1857	3034.0864	3074.5131	3084.9831	3104.3008	3112.6071	3143.4789
CC1CC(=O)N1CC=O	C[C@H]1CC(=O)N1CC=O	
InChI=1S/C6H9NO2/c1-5-4-6(9)7(5)2-3-8/h3,5H,2,4H2,1H3	InChI=1S/C6H9NO2/c1-5-4-6(9)7(5)2-3-8/h3,5H,2,4H2,1H3/t5-/m0/s1
