23
gdb 102578	1.98702	1.25284	0.99431	2.4114	81.88	-0.2557	0.0707	0.3265	1349.5218	0.204323	-425.39539	-425.384852	-425.383908	-425.431055	38.617	
C	-0.3693765398	 0.2380583761	 0.1792577384	-0.238155
O	-0.1467084157	-1.1055065528	 0.5443787629	-0.256247
C	 0.8916801754	-1.2904713412	 1.5130680379	 0.078998
C	 0.6570137007	-2.6969273076	 2.0676406277	-0.081837
O	-0.6510432002	-2.8152677514	 2.5857318255	-0.4273
C	 2.2858445545	-0.9907130753	 0.9678009166	-0.046535
C	 3.4021648481	-2.0158421837	 0.8904918886	-0.309147
C	 2.8094903776	-1.4639705368	-0.3771503039	 0.024671
C	 2.0272583314	-2.3441020945	-1.3284493365	-0.402386
H	 0.5013901744	 0.6765463643	-0.3271836045	 0.11369
H	-1.2183252676	 0.2507659566	-0.5089811205	 0.126317
H	-0.6120809311	 0.8598511667	 1.0551353108	 0.106707
H	 0.7016868102	-0.5948397696	 2.3469767594	 0.0744
H	 0.842837018	-3.4510655492	 1.2870424392	 0.091104
H	 1.3551107689	-2.8867175131	 2.8883470519	 0.110948
H	-1.2235305895	-2.4375513011	 1.9061430452	 0.285121
H	 2.6275882111	 0.0055311471	 1.2338606054	 0.085619
H	 4.3975038365	-1.7110619288	 1.1950406282	 0.109304
H	 3.1657968419	-3.0456404532	 1.1356207579	 0.117023
H	 3.4209358098	-0.7227205811	-0.8866881993	 0.081511
H	 1.4462077463	-3.1060964833	-0.8043910888	 0.12508
H	 1.325974727	-1.7588265454	-1.930716561	 0.119823
H	 2.7115567323	-2.8594158927	-2.0121121113	 0.111292
56.3332	99.4579	125.9541	170.5443	179.2868	206.7793	217.9069	264.9743	309.6671	358.9419	375.908	462.6579	486.9022	519.4654	653.535	766.1895	784.8303	843.4118	868.1043	925.3019	963.1305	1040.2495	1047.7699	1056.224	1073.8829	1088.0742	1114.3232	1142.488	1153.827	1164.1686	1184.4902	1199.1115	1204.6138	1249.0877	1276.5741	1320.8818	1371.806	1388.7938	1399.5605	1415.8446	1428.7623	1442.1871	1478.6283	1484.1241	1488.7054	1496.7142	1501.1294	1508.9597	1511.2415	2962.6748	2981.1174	2987.4174	3036.1011	3038.1896	3086.8744	3095.9803	3111.6838	3115.7171	3130.3873	3134.2241	3140.7336	3216.7281	3777.963
COC(CO)C1CC1C	CO[C@@H](CO)[C@H]1C[C@H]1C	
InChI=1S/C7H14O2/c1-5-3-6(5)7(4-8)9-2/h5-8H,3-4H2,1-2H3	InChI=1S/C7H14O2/c1-5-3-6(5)7(4-8)9-2/h5-8H,3-4H2,1-2H3/t5-,6+,7+/m1/s1
