18
gdb 31256	1.90379	1.69454	0.94033	1.6193	76.85	-0.1828	0.0178	0.2006	1238.2884	0.148156	-439.095661	-439.08663	-439.085686	-439.12984	32.933	
C	 0.0512128705	 1.3286174729	 0.2970240813	-0.324948
N	 0.0045461317	-0.0603879188	-0.123078055	-0.39455
C	-1.207879327	-0.7388616794	-0.0621386853	 0.201183
C	-1.3653070755	-2.1011577928	-0.0158229807	 0.220078
C	-0.3656190552	-3.2003368796	 0.0357201495	-0.191567
O	 0.6779119038	-2.9289630347	 0.9812561724	-0.413297
O	-2.7036883866	-2.4149825555	-0.0074814806	-0.179458
C	-3.3837332557	-1.24928025	-0.0547639539	-0.020024
C	-2.5344655534	-0.1866572406	-0.0840617869	-0.257493
H	 1.0808060056	 1.686605663	 0.2203808176	 0.124971
H	-0.5599817692	 1.9456437476	-0.370118924	 0.12975
H	-0.2994081493	 1.4972796986	 1.3286175445	 0.106365
H	 0.7582952789	-0.6246683581	 0.2467537649	 0.24244
H	-0.8794772558	-4.1481473155	 0.2499424604	 0.112795
H	 0.1636507095	-3.3228163475	-0.9173241286	 0.123808
H	 0.2492838259	-2.7740851562	 1.8307289478	 0.281524
H	-4.4585073068	-1.3299294034	-0.0569714976	 0.13087
H	-2.8140864414	 0.8540994601	-0.1162066358	 0.107553
65.3491	111.7958	144.5839	172.6409	194.352	262.7897	327.8718	372.0978	438.7506	474.1392	605.2194	619.1833	694.0482	704.9558	743.8271	789.4957	806.5143	907.6655	950.1336	1021.433	1049.6367	1097.449	1112.9855	1152.0121	1163.8925	1198.7889	1215.7744	1267.492	1330.0095	1365.2423	1412.7995	1455.9355	1473.1869	1490.2905	1497.889	1508.6204	1522.3624	1533.0387	1670.4093	2966.9893	3006.6443	3047.4446	3064.3098	3115.7182	3257.4623	3281.2063	3572.069	3796.6478
CNC1=C(CO)OC=C1	CNc1c(CO)occ1	
InChI=1S/C6H9NO2/c1-7-5-2-3-9-6(5)4-8/h2-3,7-8H,4H2,1H3	InChI=1S/C6H9NO2/c1-7-5-2-3-9-6(5)4-8/h2-3,7-8H,4H2,1H3
