17
gdb 78734	4.8111	1.13345	1.05756	4.716	74.74	-0.2438	-0.0262	0.2176	1155.5716	0.134614	-421.766762	-421.759032	-421.758087	-421.798979	29.621	
C	-0.1669289096	 1.433629615	 0.0348559597	-0.411546
C	 0.0501703216	-0.0737648471	-0.0007477391	 0.005365
C	 0.8989710499	-0.5587410336	-1.1816503815	-0.161856
C	 2.1775839207	-0.4410774461	-0.3933098331	-0.192901
C	 1.2416403307	-0.5759878176	 0.8679461716	 0.054899
O	 1.1850490743	-2.0224408866	 0.7234395246	-0.309329
C	 1.6233760064	-1.826954259	-0.6082699701	 0.38592
C	 2.1086286185	-2.9088432258	-1.4663760551	 0.04653
O	 2.1129432233	-4.0791962799	-1.1772974136	-0.262455
H	 0.7725579198	 1.9763225764	-0.116457434	 0.119616
H	-0.8641216258	 1.7505586778	-0.7471176794	 0.124948
H	-0.5869085361	 1.7412038866	 0.9984001985	 0.122726
H	-0.882240962	-0.6170925875	 0.1850733088	 0.087675
H	 0.7430805612	-0.4218118047	-2.2444853557	 0.105168
H	 3.1531916098	-0.020640416	-0.5936586788	 0.11528
H	 1.424751194	-0.2421503926	 1.887031977	 0.097325
H	 2.4849669732	-2.5381604394	-2.4487054498	 0.072634
96.122	154.2196	230.9558	234.6343	272.3988	308.7094	422.3648	519.9793	576.9397	705.952	738.137	785.2545	801.0462	835.8378	883.4872	904.0804	917.9387	956.8532	1024.5865	1028.5478	1034.1151	1052.9002	1075.9858	1111.4428	1127.9235	1156.0957	1189.749	1244.6772	1279.7924	1302.5396	1357.0583	1378.208	1414.0995	1444.9222	1494.179	1501.062	1816.2168	2856.1704	3031.6178	3056.5319	3100.4879	3103.217	3149.3229	3197.596	3214.7021
CC1C2C3C1OC23C=O	C[C@H]1[C@H]2[C@H]3[C@@H]1O[C@@]23C=O	
InChI=1S/C7H8O2/c1-3-4-5-6(3)9-7(4,5)2-8/h2-6H,1H3	InChI=1S/C7H8O2/c1-3-4-5-6(3)9-7(4,5)2-8/h2-6H,1H3/t3-,4-,5-,6+,7-/m0/s1
