21
gdb 101771	4.22956	0.65929	0.60493	1.2428	76.46	-0.2668	0.0182	0.285	1858.0215	0.179003	-461.40114	-461.389833	-461.388889	-461.439395	38.46	
C	-0.1279460202	 1.5140261241	 0.0325843592	-0.389908
C	 0.0414432374	-0.0096379876	 0.0261623198	 0.00839
C	 0.7300465339	-0.4940595818	-1.2516640949	-0.080014
O	-0.0884941373	-0.1358131685	-2.3541883968	-0.422204
C	 0.8176678051	-0.506713767	 1.2408198938	-0.067865
O	 0.0575108386	-0.1791961047	 2.4183379825	-0.243393
C	 0.6230480661	-0.5168349696	 3.5966390048	 0.427654
C	-0.2690153852	-0.1194170896	 4.7485197752	-0.478878
O	 1.6941776244	-1.0605478073	 3.6913421741	-0.349978
H	 0.8494846972	 2.01238779	 0.0182717599	 0.105876
H	-0.6845724611	 1.8377882187	-0.8489344711	 0.134691
H	-0.6607550896	 1.8424697592	 0.9280071489	 0.121297
H	-0.9521017376	-0.4759932052	 0.0504896163	 0.093788
H	 1.7289431496	-0.0330227821	-1.3314212872	 0.086738
H	 0.8745382997	-1.5856399621	-1.2058975916	 0.086461
H	 0.3703939143	-0.3808502421	-3.1625373867	 0.288485
H	 0.9715500987	-1.5908399581	 1.210448158	 0.115049
H	 1.8050186132	-0.0362436554	 1.3121671791	 0.117522
H	-0.4379909192	 0.9611264613	 4.736203467	 0.149391
H	-1.2457564777	-0.6016290267	 4.6513659126	 0.149278
H	 0.1994506898	-0.4116147855	 5.6874250574	 0.147623
33.6429	53.2524	69.1669	98.1302	120.095	184.6101	229.0254	245.1818	254.7202	268.0355	321.2193	413.4077	474.3902	514.1334	607.4899	649.4066	837.7788	917.1188	923.7922	934.9593	956.4397	991.3346	1057.1467	1064.741	1090.821	1118.4334	1171.3616	1175.8212	1242.8849	1265.0733	1269.1213	1284.5568	1319.7287	1382.5827	1390.6247	1398.0796	1421.5138	1463.3466	1469.8377	1476.3369	1498.0765	1499.7023	1510.323	1524.0631	1824.7366	2956.2234	2985.0429	3027.9992	3033.5443	3039.7136	3057.3104	3082.0279	3108.4532	3122.033	3139.2607	3169.2394	3836.1873
CC(CO)COC(C)=O	C[C@@H](CO)COC(=O)C	
InChI=1S/C6H12O3/c1-5(3-7)4-9-6(2)8/h5,7H,3-4H2,1-2H3	InChI=1S/C6H12O3/c1-5(3-7)4-9-6(2)8/h5,7H,3-4H2,1-2H3/t5-/m0/s1
