18
gdb 50700	3.08195	1.2969	1.01164	3.5414	72.28	-0.2377	-0.0268	0.2109	1160.8062	0.149134	-439.064605	-439.05667	-439.055726	-439.097835	29.709	
O	-0.0539668448	-0.0035698441	-0.195169609	-0.249385
C	 0.021192674	 1.1748481263	 0.0450905505	 0.141846
C	 1.3080103829	 1.9759530559	 0.0271067423	-0.08208
C	 1.3734420928	 2.8433815966	-1.2545738736	-0.111224
O	 2.487025877	 3.710388057	-1.2134046712	-0.245032
C	 2.3370860087	 4.7528795739	-0.2634530117	-0.079887
C	 1.9229016382	 4.2534655068	 1.1133331501	-0.058991
N	 0.4824833927	 4.0021456265	 1.3084527764	-0.334511
C	 1.4147830193	 2.8630284672	 1.2579712704	-0.053921
H	-0.8829458635	 1.7758951183	 0.2887017063	 0.091433
H	 2.1456441567	 1.2719497023	 0.0099309314	 0.100817
H	 1.5077235078	 2.1997637592	-2.1271544539	 0.124791
H	 0.4390967763	 3.4119169098	-1.3763036918	 0.11064
H	 3.3139576116	 5.2414516163	-0.2075997787	 0.112173
H	 1.5995534959	 5.4898984964	-0.6184061047	 0.103161
H	 2.4735384741	 4.6716231398	 1.9520488621	 0.096253
H	 0.2111794697	 4.196902363	 2.2680900031	 0.236747
H	 1.6309571605	 2.3425881487	 2.1883059519	 0.097171
53.2906	91.9594	192.1515	276.3487	312.2218	357.725	408.4954	456.2093	479.4116	625.7981	711.2994	781.6113	826.0597	893.6378	901.8127	937.1452	958.7266	981.911	1025.3063	1053.3147	1094.1995	1103.6255	1125.4889	1145.5319	1190.434	1222.634	1251.9558	1260.3469	1274.0733	1323.5238	1351.381	1370.5977	1406.6977	1416.8293	1422.1736	1453.3228	1485.313	1499.583	1825.8325	2889.9457	2982.9517	2997.068	3071.4761	3086.7529	3103.6407	3128.7296	3142.4866	3511.1576
O=CC1COCC2NC12	O=C[C@H]1COC[C@H]2N[C@@H]12	
InChI=1S/C6H9NO2/c8-1-4-2-9-3-5-6(4)7-5/h1,4-7H,2-3H2	InChI=1S/C6H9NO2/c8-1-4-2-9-3-5-6(4)7-5/h1,4-7H,2-3H2/t4-,5+,6-/m0/s1
