21
gdb 41003	2.93831	1.93769	1.44057	0.1486	86.71	-0.2556	0.0936	0.3493	972.1826	0.185966	-349.886523	-349.879963	-349.879019	-349.916953	28.84	
C	-0.0295066377	 1.5022573833	 0.2774324214	-0.259236
C	 1.5051198806	 1.5576728774	-0.0831337418	-0.364365
C	 1.2215617658	 0.3001733255	-0.9251916593	 0.429221
C	 0.0144693657	-0.0239207008	-0.0671763905	-0.001982
C	-0.7958154263	-0.9212275992	-1.0282163042	-0.303917
C	 0.2664159747	-1.0440861128	-2.1487509833	 0.002738
C	 0.76791161	 0.3940636673	-2.4298742704	-0.081367
C	 2.1454460157	-0.1536824684	-2.8674459553	-0.25068
C	 1.7734500487	-0.9742541815	-1.6098520806	-0.185276
H	-0.3164748856	 1.7843716832	 1.2928842003	 0.094112
H	-0.6255117226	 2.0787378863	-0.4353886697	 0.104154
H	 1.8858560917	 2.4464424669	-0.592177188	 0.098059
H	 2.1222404461	 1.3574118122	 0.7981841364	 0.103098
H	 0.3073299762	-0.5732056174	 0.835230729	 0.067398
H	-1.0843046953	-1.8774024061	-0.5812449618	 0.092577
H	-1.7054594249	-0.4528828898	-1.4217066651	 0.098051
H	 0.0659283985	-1.7060736347	-2.9946469147	 0.060635
H	 0.1893157211	 1.1984002643	-2.8908738326	 0.060625
H	 2.1763569458	-0.688229518	-3.8218510232	 0.084169
H	 3.0019464971	 0.5191673906	-2.7704780252	 0.089244
H	 2.337193255	-1.7842963485	-1.1421269817	 0.062743
192.4566	284.6614	301.2044	348.9964	438.8364	540.1265	631.4324	663.8765	685.6782	738.0387	772.158	828.0481	863.8158	873.6973	888.3713	912.3393	917.7016	947.8589	960.3654	1007.3925	1029.3799	1037.3393	1059.378	1071.191	1092.4797	1116.3058	1126.5323	1148.4144	1169.2109	1178.1331	1203.3163	1211.1117	1227.2265	1233.3445	1242.8712	1254.9797	1262.4342	1283.0476	1301.9942	1337.7332	1366.6674	1479.3377	1490.8097	1495.441	1518.2668	3030.7319	3038.7233	3042.6989	3052.2991	3060.9353	3077.6562	3083.5919	3085.5461	3096.2242	3102.0324	3104.316	3120.9553
C1CC23C1CC1C2CC31	C1C[C@@]23[C@@H]1C[C@H]1[C@@H]2C[C@@H]31	
InChI=1S/C9H12/c1-2-9-5(1)3-6-7(9)4-8(6)9/h5-8H,1-4H2	InChI=1S/C9H12/c1-2-9-5(1)3-6-7(9)4-8(6)9/h5-8H,1-4H2/t5-,6-,7-,8+,9+/m0/s1
