14
gdb 80821	2.03864	1.69609	1.23459	3.7823	63.97	-0.2634	-0.0117	0.2517	1023.9795	0.099195	-473.744615	-473.736507	-473.735563	-473.777182	30.15	
O	 0.034143803	 1.4562064015	 0.099444838	-0.416281
C	 0.0591599715	 0.0757161355	 0.0282561061	 0.111289
C	-0.1093638852	-0.6548182025	 1.3793323959	-0.027201
O	-1.5418293992	-0.2672235854	 1.4058808063	-0.320365
C	-1.3111487508	-0.7071082698	 0.0221727041	 0.237419
C	-2.385029337	-0.6735457696	-0.9306723864	 0.144006
N	-3.2060618465	-0.6689710382	-1.7454082833	-0.34029
C	-0.5435365023	-1.9390066792	 0.6377843018	 0.077276
O	 0.4215428505	-2.6298760093	-0.0824384707	-0.417788
H	 0.1716334844	 1.8157490261	-0.7822129397	 0.300943
H	 0.8198566107	-0.3257985492	-0.6466852875	 0.110269
H	 0.4581852285	-0.5428754597	 2.3004287427	 0.118718
H	-1.2113605592	-2.566072235	 1.2342306284	 0.117035
H	 0.0103623618	-3.3909164852	-0.5049523755	 0.30497
115.1912	145.392	218.5848	246.1961	283.42	304.5519	346.5067	370.8232	518.4806	544.893	569.6748	618.8274	710.7573	793.8013	823.8109	910.3229	927.5637	958.7192	980.1241	1114.8933	1150.6459	1170.6098	1190.8037	1216.4064	1235.3907	1276.767	1283.4291	1293.5134	1419.029	1470.0489	2347.4751	3081.5426	3089.9396	3157.8097	3822.6624	3832.9132
OC1C2OC1(C#N)C2O	O[C@H]1[C@H]2O[C@]1(C#N)[C@H]2O	
InChI=1S/C5H5NO3/c6-1-5-3(7)2(9-5)4(5)8/h2-4,7-8H	InChI=1S/C5H5NO3/c6-1-5-3(7)2(9-5)4(5)8/h2-4,7-8H/t2-,3-,4-,5+/m0/s1
