15
gdb 45740	2.95193	1.63283	1.23948	4.0841	66.11	-0.2533	-0.0341	0.2193	979.71	0.114231	-453.964235	-453.956856	-453.955912	-453.996601	27.14	
O	-0.1293418601	-0.0171185716	 0.007431839	-0.357896
C	-0.0787337985	 1.1874323793	 0.0121904592	 0.375327
N	-1.1515127125	 2.074498651	 0.0304613755	-0.351075
C	-0.6518942706	 3.3717738802	 0.0300124324	 0.048694
N	 0.6219099548	 3.4778297951	 0.0134639511	-0.285779
C	 1.1379232717	 2.1142451484	 0.0004961702	 0.123966
C	 2.2669710069	 1.7893074206	 1.0149347673	-0.093205
O	 3.2232797597	 1.548117535	-0.0294680824	-0.265965
C	 2.2399080318	 1.7987094587	-1.0461573114	-0.093221
H	-2.1196894924	 1.7973285132	 0.0419316907	 0.273453
H	-1.3364109858	 4.2134417572	 0.0428673658	 0.146368
H	 2.5388782058	 2.6380606281	 1.6503170571	 0.119598
H	 2.0807223798	 0.8946742931	 1.6200546139	 0.120072
H	 2.0377153827	 0.9096085277	-1.6543064519	 0.120069
H	 2.4951412569	 2.653250464	-1.6806972565	 0.119596
84.18	101.2495	198.7382	273.7893	284.3961	438.4165	497.4915	551.3495	610.7413	706.3362	740.5053	820.7486	851.3641	914.8951	937.5773	963.7439	989.5679	1054.219	1061.8496	1064.8336	1120.9718	1162.5151	1170.6507	1223.4787	1276.3799	1309.6509	1346.5526	1369.043	1397.9308	1490.3521	1518.0035	1665.9582	1851.9264	3024.3141	3034.2939	3089.4216	3090.5963	3198.4536	3655.0557
O=C1NC=NC11COC1	O=C1NC=NC21COC2	
InChI=1S/C5H6N2O2/c8-4-5(1-9-2-5)7-3-6-4/h3H,1-2H2,(H,6,7,8)	InChI=1S/C5H6N2O2/c8-4-5(1-9-2-5)7-3-6-4/h3H,1-2H2,(H,6,7,8)
