16
gdb 45154	2.96757	1.57489	1.20323	4.7795	69.5	-0.2479	0.0202	0.2681	1017.2171	0.124672	-437.863187	-437.855888	-437.854944	-437.89517	28.293	
O	-0.002220402	 0.0275490401	 0.1123239682	-0.345325
C	 0.0209701309	 1.2224637657	 0.0337011864	 0.432312
N	-0.9795413333	 2.1816127763	 0.0218155139	-0.323627
C	-0.0806359056	 3.3348417822	-0.0011541733	 0.021519
C	 0.395032112	 3.8311512224	 1.3964221779	-0.34075
C	 1.5619038026	 2.8342737913	 1.3062562776	 0.459019
C	 2.9250758105	 2.9646724753	 1.8234054454	-0.26494
O	 2.0021617202	 2.0065853362	 2.3597557565	-0.252041
C	 1.1132630853	 2.3175300769	-0.0712298723	-0.309434
H	-1.9273346632	 2.1087893535	 0.3672820574	 0.248822
H	-0.2863716611	 4.0720235771	-0.7761842424	 0.094815
H	 0.7141624088	 4.876513139	 1.4136589239	 0.115865
H	-0.3101205506	 3.6557090902	 2.2118766527	 0.119703
H	 3.7594809636	 2.5445422196	 1.263298459	 0.122631
H	 3.1741971275	 3.7946058818	 2.4838484072	 0.118657
H	 1.8376788042	 2.2489266925	-0.880369018	 0.102775
83.2287	128.628	263.3031	348.7876	367.8323	400.7145	473.4564	499.8826	554.6905	685.2789	762.3895	818.7337	835.0555	863.3423	874.7845	906.3342	949.7391	980.2175	1008.2797	1059.1481	1114.6473	1122.8025	1133.958	1146.6642	1168.5961	1174.3727	1205.5313	1243.965	1246.121	1331.166	1365.2134	1427.1497	1465.7588	1532.5513	1900.6427	3064.8391	3079.4791	3117.2009	3125.1925	3142.5867	3168.2603	3583.9751
O=C1NC2CC3(CO3)C12	O=C1N[C@H]2C[C@]3(CO3)[C@@H]12	
InChI=1S/C6H7NO2/c8-5-4-3(7-5)1-6(4)2-9-6/h3-4H,1-2H2,(H,7,8)	InChI=1S/C6H7NO2/c8-5-4-3(7-5)1-6(4)2-9-6/h3-4H,1-2H2,(H,7,8)/t3-,4+,6-/m0/s1
