20
gdb 56178	3.60525	0.83406	0.78736	2.4938	76.22	-0.2626	0.0587	0.3213	1531.2332	0.169761	-440.324169	-440.314208	-440.313264	-440.360238	36.333	
C	-0.1124881309	 1.5463146829	 0.2814710076	-0.462997
C	-0.0549035852	 0.0533753894	 0.0213573704	 0.358165
C	-1.3472493632	-0.5636644968	-0.4460972289	-0.126328
O	-1.6816570507	 0.0130618552	-1.7242332922	-0.266419
C	-2.866325438	-0.3887953066	-2.2433373429	 0.497836
N	-3.1060342377	 0.2683585819	-3.419863498	-0.563579
O	-3.6123190767	-1.1871632408	-1.7258826827	-0.398276
C	 1.2282368944	-0.5422987995	-0.5074238559	-0.290966
C	 0.8061024615	-0.8058977295	 0.9175143172	-0.313338
H	 0.8591995925	 1.9262013296	 0.6108206938	 0.111666
H	-0.400231584	 2.0888747899	-0.6242117555	 0.127249
H	-0.8462661949	 1.7827640144	 1.0612579213	 0.115664
H	-1.2583870512	-1.6491202516	-0.5560104253	 0.110995
H	-2.1662665336	-0.3669068917	 0.2540447042	 0.119912
H	-2.3378245962	 0.7262812791	-3.8803189049	 0.262502
H	-3.8379452545	-0.1124822261	-3.9945221861	 0.266911
H	 1.1606314465	-1.358045348	-1.2192682192	 0.113014
H	 2.0646290958	 0.1267644363	-0.6780752121	 0.110948
H	 1.3492235229	-0.3102689205	 1.714934655	 0.112719
H	 0.4581162433	-1.8015819575	 1.1724001043	 0.114322
24.5663	61.6157	127.421	170.888	219.3277	239.3884	311.3651	347.677	357.6787	369.7567	423.4601	495.6701	544.2838	648.4455	744.7344	784.588	788.7992	871.3895	906.3329	941.7749	955.1682	960.2806	1014.6108	1048.8311	1078.002	1082.3644	1086.9301	1117.6619	1133.9653	1189.3995	1250.5482	1324.123	1351.2697	1362.2973	1412.381	1432.9399	1470.727	1487.7273	1501.4832	1507.6609	1515.466	1611.4742	1831.6402	3028.343	3042.6207	3087.5162	3092.7919	3110.1882	3129.6752	3134.7096	3207.7873	3221.9772	3612.8094	3741.7491
CC1(COC(N)=O)CC1	CC1(COC(=O)N)CC1	
InChI=1S/C6H11NO2/c1-6(2-3-6)4-9-5(7)8/h2-4H2,1H3,(H2,7,8)	InChI=1S/C6H11NO2/c1-6(2-3-6)4-9-5(7)8/h2-4H2,1H3,(H2,7,8)
