17
gdb 17646	3.47204	1.55387	1.13452	4.0738	64.62	-0.2547	0.0185	0.2732	1031.2634	0.141734	-401.019662	-401.01122	-401.010276	-401.052873	31.276	
N	-0.1818317268	 1.2521525383	-0.0071110426	-0.514729
C	-0.0089470855	-0.0893385679	-0.0825611506	 0.367677
O	 1.0690040191	-0.6177242357	-0.3029383793	-0.379913
C	-1.2726596784	-0.96000865	 0.080032246	 0.030844
O	-0.8770902252	-2.3048103334	 0.0877309303	-0.438634
C	-2.0614192841	-0.620406188	 1.3292034685	 0.009478
C	-3.1787468227	 0.402247701	 1.281723743	-0.28642
C	-3.4926743419	-1.0648572603	 1.4349747652	-0.268182
H	 0.6325304933	 1.842727973	-0.0553378071	 0.265983
H	-1.0474247338	 1.6405492303	 0.3258316329	 0.271306
H	-1.915142922	-0.7534702084	-0.7962043589	 0.081808
H	 0.0725800578	-2.2811014864	-0.1237728739	 0.29261
H	-1.4757815852	-0.6602383194	 2.2435292286	 0.093753
H	-3.3168598078	 1.0536841336	 2.1375478719	 0.116756
H	-3.416580739	 0.8655520647	 0.328259611	 0.112608
H	-3.9220161047	-1.5821095422	 0.5839588767	 0.125994
H	-3.8481706733	-1.4164275694	 2.3964816584	 0.119058
57.4339	93.7551	161.7315	275.183	288.7394	304.9798	357.6247	404.484	490.3532	535.7294	552.9789	638.6752	702.4528	781.8535	828.3562	869.5564	888.8501	939.1181	978.5212	1054.8719	1082.352	1099.1317	1134.9497	1147.5975	1169.2274	1198.2546	1225.109	1268.6838	1331.0514	1351.2935	1414.5228	1463.712	1471.5578	1505.0493	1613.5733	1785.3847	2929.9517	3122.4888	3140.6838	3148.3938	3205.3531	3228.1441	3598.6012	3641.1728	3732.6613
NC(=O)C(O)C1CC1	NC(=O)[C@@H](O)C1CC1	
InChI=1S/C5H9NO2/c6-5(8)4(7)3-1-2-3/h3-4,7H,1-2H2,(H2,6,8)	InChI=1S/C5H9NO2/c6-5(8)4(7)3-1-2-3/h3-4,7H,1-2H2,(H2,6,8)/t4-/m0/s1
