20
gdb 90229	2.62565	1.68056	1.52947	1.2293	78.44	-0.2098	0.0498	0.2596	1000.0889	0.170777	-403.050251	-403.042239	-403.041294	-403.082407	31.654	
C	-0.0838675206	 1.6203741828	 0.0944844539	-0.332455
N	 0.0091692109	 0.1791355759	 0.1215474635	-0.115083
C	-1.2188544644	-0.6557856641	 0.3169172804	-0.252292
C	-0.3975561669	-1.5377860668	 1.2907560023	 0.370665
C	 0.5338139925	-2.7042298215	 0.8706214311	-0.295941
C	 1.7235012794	-1.6643592841	 0.7824845901	-0.279798
C	 0.7224109962	-0.540461393	 1.1898688375	 0.196802
C	 0.4294359993	-0.2747428961	 2.6873983941	-0.151274
O	-0.6098342414	-1.30851477	 2.6979766931	-0.332144
H	 0.9209755292	 2.051036059	 0.027827252	 0.121852
H	-0.6431746395	 1.9376734653	-0.7926403984	 0.121695
H	-0.585975849	 2.0561680862	 0.9784261441	 0.09446
H	-2.0429092283	-0.1467397443	 0.8377266235	 0.101143
H	-1.5990630497	-1.1046963008	-0.6079734824	 0.101844
H	 0.6416007009	-3.4664865905	 1.6444240873	 0.116746
H	 0.2738583003	-3.1904165406	-0.0726020628	 0.10836
H	 2.5449600903	-1.8410861368	 1.4818036558	 0.101349
H	 2.1291865248	-1.529291982	-0.2209677393	 0.112939
H	 1.2391696659	-0.5109712771	 3.3878388474	 0.105671
H	 0.0210138101	 0.7137638187	 2.9295810569	 0.105463
100.5479	192.5362	201.4255	245.7076	310.6343	317.8025	360.2475	400.9738	567.376	614.454	703.527	711.0387	715.4566	807.9283	872.3971	886.746	902.7279	914.3718	944.5606	965.1986	1001.0102	1103.816	1137.1587	1147.9047	1156.8061	1176.0866	1177.091	1187.4482	1221.8744	1233.752	1240.287	1254.492	1272.5831	1297.4611	1316.8628	1339.9831	1447.4259	1453.1933	1466.7414	1480.9521	1499.3925	1501.332	1515.7141	2929.7697	2994.0504	3016.6399	3050.453	3054.3073	3062.1687	3066.1855	3069.1165	3095.0248	3121.7466	3138.1467
CN1CC23CCC12CO3	CN1C[C@@]23CC[C@@]12CO3	
InChI=1S/C7H11NO/c1-8-4-7-3-2-6(7,8)5-9-7/h2-5H2,1H3	InChI=1S/C7H11NO/c1-8-4-7-3-2-6(7,8)5-9-7/h2-5H2,1H3/t6-,7-/m0/s1
