18
gdb 125521	4.7088	0.82607	0.75158	1.5901	75.61	-0.2465	0.0031	0.2495	1525.9532	0.148087	-435.272907	-435.263508	-435.262564	-435.308929	32.172	
C	-0.0137449475	 1.4700576772	-0.0457155547	-0.497069
C	 0.014884294	-0.0226921993	 0.0179107534	 0.305809
N	-0.0143247535	-0.7790575357	-1.0838751015	-0.292935
N	 0.005752616	-2.0281266205	-0.6227802997	 0.136519
C	 0.061427382	-3.1751684403	-1.5070957801	-0.133031
C	 1.4995799079	-3.5340865706	-1.8823688894	-0.076984
O	 1.4164305809	-4.6538433119	-2.7445947533	-0.414892
N	 0.0588895321	-2.1492969094	 0.6987093862	-0.226322
C	 0.0611983293	-0.8867857156	 1.1269643643	-0.131628
H	 0.8511027097	 1.9087793501	 0.4628390432	 0.133269
H	-0.0038535814	 1.7988045357	-1.0867943801	 0.143884
H	-0.9122483617	 1.8746067252	 0.4325644471	 0.135376
H	-0.4107359975	-4.0145973242	-0.9944534039	 0.145448
H	-0.50826942	-2.9349027885	-2.4062606833	 0.144532
H	 1.9707701488	-2.6686117106	-2.3713090969	 0.107952
H	 2.0655995248	-3.7580763973	-0.9659890425	 0.107501
H	 2.3078150738	-4.9080056048	-2.9989499108	 0.293856
H	 0.0869831923	-0.6596464296	 2.1812939021	 0.118716
38.4333	55.2917	87.329	92.093	219.0385	259.7529	272.9135	329.4005	384.6622	424.6445	660.2073	696.1361	698.3711	806.4739	810.3286	867.6761	995.8204	1012.1789	1020.4586	1053.5052	1068.5344	1090.3623	1100.0057	1195.2583	1221.5311	1246.3618	1295.9541	1353.253	1363.8661	1381.5176	1405.6929	1418.9289	1438.6325	1462.2908	1477.2266	1485.34	1498.9818	1530.1701	1560.9903	2987.1664	3024.6366	3039.3903	3091.6881	3091.8765	3134.5772	3152.1064	3262.8053	3838.9848
CC1=NN(CCO)N=C1	Cc1nn(CCO)nc1	
InChI=1S/C5H9N3O/c1-5-4-6-8(7-5)2-3-9/h4,9H,2-3H2,1H3	InChI=1S/C5H9N3O/c1-5-4-6-8(7-5)2-3-9/h4,9H,2-3H2,1H3
