23
gdb 122235	2.67194	0.82161	0.69712	0.6878	92.78	-0.2394	0.0565	0.2958	1738.4529	0.203386	-351.121055	-351.110449	-351.109505	-351.157205	39.297	
C	 0.153167013	 1.5085627656	 0.2949574714	-0.380932
C	-0.090294284	 0.0300745438	-0.0198687815	-0.163028
C	 0.7953176386	-0.4953262506	-1.1543695744	-0.156768
C	 0.5536100595	-1.9751735914	-1.4727084585	-0.279712
C	 1.417162512	-2.5072143316	-2.6141113564	 0.171491
C	 2.835804698	-2.9595554607	-2.2924709014	-0.287657
C	 1.7865544921	-3.9839474656	-2.6135241013	-0.307892
C	 1.1958082072	-1.8905066994	-3.8965190797	 0.296156
C	 0.9927486076	-1.3690727421	-4.9621331675	-0.482227
H	 1.1911869463	 1.6826670343	 0.5998435298	 0.112703
H	-0.0416847906	 2.1363138826	-0.5816302244	 0.115226
H	-0.494542601	 1.8575943394	 1.105354643	 0.109711
H	 0.0805354731	-0.5698202343	 0.8843460334	 0.090823
H	-1.1453627969	-0.1188956424	-0.2856526621	 0.094927
H	 0.6223537137	 0.0982818661	-2.0606845062	 0.109398
H	 1.8520994399	-0.3498871755	-0.8920688583	 0.091334
H	 0.7516367962	-2.5814018793	-0.5794116255	 0.08977
H	-0.5033414271	-2.1293935037	-1.7251560295	 0.103311
H	 3.6056267144	-2.764756472	-3.0292740601	 0.12549
H	 3.1590375561	-2.857996587	-1.2617588653	 0.11626
H	 1.3889600461	-4.5886210937	-1.8053280408	 0.116286
H	 1.8378882764	-4.4862048443	-3.5720990456	 0.125493
H	 0.8196619895	-0.9110260382	-5.9040252791	 0.189837
57.4912	71.1391	106.7746	133.6827	170.265	217.4202	248.5676	281.0418	304.448	367.3635	436.9674	538.5688	561.9628	583.5957	642.7749	697.9784	736.8414	788.0209	793.3021	869.5226	905.6781	929.1582	933.4963	951.4163	982.4505	1030.4643	1058.5242	1069.2694	1082.0675	1117.2739	1134.8148	1193.9578	1234.9189	1273.015	1287.674	1301.9749	1328.3668	1351.0494	1369.3072	1398.5688	1413.1939	1463.498	1479.0026	1485.8965	1495.5839	1499.7868	1500.2877	1512.7795	2230.0972	3008.7755	3012.325	3020.8991	3029.1826	3035.7786	3048.3122	3070.9377	3095.9828	3100.7494	3134.5917	3138.9491	3220.1488	3234.5381	3503.8501
CCCCC1(CC1)C#C	CCCCC1(CC1)C#C	
InChI=1S/C9H14/c1-3-5-6-9(4-2)7-8-9/h2H,3,5-8H2,1H3	InChI=1S/C9H14/c1-3-5-6-9(4-2)7-8-9/h2H,3,5-8H2,1H3
