15
gdb 124267	2.77341	1.5007	0.9807	2.326	69.76	-0.2342	-0.0534	0.1808	1131.3733	0.112324	-453.96957	-453.961238	-453.960294	-454.002764	30.555	
C	 0.008555631	 1.4696947724	-0.0206763816	-0.494481
C	 0.0207927183	-0.046894252	-0.0045209299	 0.308912
O	 1.070882741	-0.6726840232	 0.0207717046	-0.343243
C	-1.2616127485	-0.747223524	-0.0136593623	 0.001433
C	-2.5436527745	-0.2790182513	 0.041683869	 0.010958
O	-3.4174388604	-1.2707589921	 0.0586278279	-0.168584
N	-2.7254733009	-2.5080181874	 0.0113689936	-0.241348
C	-1.4500095755	-2.1802659184	-0.0376798444	 0.376729
N	-0.4504087171	-3.0938911443	-0.1471874171	-0.589714
H	 1.0347687526	 1.8371227823	 0.0021417224	 0.148937
H	-0.4929158417	 1.8398143364	-0.9214211038	 0.14434
H	-0.5387402234	 1.8611165769	 0.8437456981	 0.141673
H	-2.9569488913	 0.7184352325	 0.0788005294	 0.159638
H	-0.663284814	-4.0478463865	 0.0936867236	 0.264176
H	 0.4737741845	-2.7399924613	 0.0528361604	 0.280575
76.9173	114.7888	175.3015	189.6507	311.28	315.1829	412.8258	424.9799	499.0399	535.6509	584.2144	603.4227	635.3125	742.4029	758.1355	869.6331	889.3666	913.6803	950.8171	1045.6088	1097.6998	1133.6279	1197.374	1312.1925	1344.8985	1388.0928	1461.6529	1467.3405	1476.7619	1530.2379	1618.7068	1657.7478	1745.9397	3039.8415	3102.5104	3156.2894	3252.0117	3568.7658	3704.6822
CC(=O)C1=CON=C1N	CC(=O)c1conc1N	
InChI=1S/C5H6N2O2/c1-3(8)4-2-9-7-5(4)6/h2H,1H3,(H2,6,7)	InChI=1S/C5H6N2O2/c1-3(8)4-2-9-7-5(4)6/h2H,1H3,(H2,6,7)
