14
gdb 11716	6.08	1.37355	1.25757	2.0725	63.49	-0.2634	0.0022	0.2656	926.4887	0.108207	-378.685611	-378.67869	-378.677745	-378.716731	26.177	
O	-0.0112108777	 1.4197108769	-0.1044991568	-0.427885
C	 0.0319985613	 0.0291037936	-0.0206986227	 0.159851
C	 0.3699369702	-0.6376553429	 1.3727043282	-0.324823
C	-1.0057375627	-1.3120898626	 1.3268391775	 0.240939
N	-1.9978137741	-0.2043152259	 1.2073427836	-0.377063
C	-1.3244747061	-0.7001020313	-0.0061549853	-0.136946
C	-1.3781611445	-2.5890848396	 1.8374022196	 0.172619
N	-1.6708810749	-3.6270209462	 2.2583265546	-0.338835
H	-0.7008919009	 1.7055627342	 0.5097713	 0.294998
H	 0.6960487376	-0.3265410217	-0.8103627246	 0.107898
H	 1.1995725043	-1.343266748	 1.3108600332	 0.130632
H	 0.516717338	 0.0493776563	 2.2079307596	 0.122654
H	-2.9340573627	-0.6061857152	 1.2405345598	 0.255112
H	-1.8913624179	-1.1113419876	-0.8321893969	 0.120849
107.7778	151.1495	227.8456	343.923	427.8389	476.9557	507.0951	556.7851	578.1235	646.2543	690.2773	816.8036	864.4389	906.7182	969.8183	980.0824	993.8462	1056.767	1109.2753	1124.9761	1148.5542	1210.6732	1228.4246	1287.8013	1292.6798	1350.3977	1392.6205	1442.4031	1473.4565	2347.4393	3081.8048	3104.8837	3147.9634	3200.3944	3490.3831	3760.7636
OC1CC2(NC12)C#N	O[C@H]1C[C@]2(N[C@@H]12)C#N	
InChI=1S/C5H6N2O/c6-2-5-1-3(8)4(5)7-5/h3-4,7-8H,1H2	InChI=1S/C5H6N2O/c6-2-5-1-3(8)4(5)7-5/h3-4,7-8H,1H2/t3-,4-,5-/m0/s1
