23
gdb 102614	1.67098	1.27933	0.86035	3.3897	82.97	-0.2412	0.0596	0.3008	1482.7549	0.204757	-421.664031	-421.652764	-421.651819	-421.701209	40.575	
C	-0.1095701514	 1.5637246262	 0.0335628751	-0.38271
C	-0.0678662992	 0.0348003952	-0.0010310542	-0.175614
C	-1.4553651151	-0.6284915531	 0.0337631145	 0.04628
C	-1.3576958821	-2.1527094954	-0.1604165549	-0.180768
C	-2.7099694413	-2.8679969507	-0.2176885811	-0.385864
N	-2.1597649562	-0.2819900515	 1.2660531588	-0.332657
C	-3.4643904433	 0.1564072631	 1.2610376552	 0.455461
N	-4.0254894181	 0.2593155354	 2.533777868	-0.570917
O	-4.09330091	 0.4126084755	 0.2504406262	-0.394725
H	 0.8998727032	 1.9860137271	 0.0165304599	 0.108625
H	-0.6550974903	 1.962551433	-0.8283589935	 0.122585
H	-0.6120936996	 1.9223127205	 0.9364545255	 0.116113
H	 0.4478870471	-0.3009492292	-0.9087213203	 0.097741
H	 0.5296541242	-0.3418538839	 0.8418087739	 0.082874
H	-2.0753441689	-0.2099131576	-0.7652767597	 0.119874
H	-0.8017973131	-2.3399758181	-1.0872797349	 0.098343
H	-0.7445383052	-2.5777763156	 0.6481576907	 0.08234
H	-3.3389779542	-2.4602209949	-1.0148290435	 0.13235
H	-2.5765850024	-3.938554063	-0.4015504122	 0.106709
H	-3.2608882563	-2.7574399295	 0.7210235083	 0.120459
H	-1.8101815691	-0.6929975938	 2.118723767	 0.231697
H	-3.408329404	 0.5135826692	 3.2913623086	 0.24334
H	-4.8840216946	 0.789673281	 2.5214992225	 0.258464
42.6998	64.3026	89.3818	114.1757	154.9311	199.0182	237.9589	247.3011	304.9025	359.9672	370.2699	430.196	451.3891	497.3638	519.8184	572.9356	645.2767	774.9906	778.6289	793.8119	880.6537	933.305	945.5364	1022.1277	1040.7604	1043.9182	1084.2118	1100.5849	1124.8128	1175.6822	1190.2641	1278.7854	1285.597	1311.892	1327.8649	1375.3239	1386.8541	1390.8135	1410.4602	1417.4933	1477.6065	1484.4764	1496.9543	1497.2763	1506.4818	1509.1197	1538.7871	1626.455	1798.3675	2999.7667	3007.1001	3037.9309	3041.0892	3046.754	3054.5695	3082.9439	3104.0489	3108.1327	3113.6698	3114.9192	3567.01	3608.2024	3679.98
CCC(CC)NC(N)=O	CCC(CC)NC(=O)N	
InChI=1S/C6H14N2O/c1-3-5(4-2)8-6(7)9/h5H,3-4H2,1-2H3,(H3,7,8,9)	InChI=1S/C6H14N2O/c1-3-5(4-2)8-6(7)9/h5H,3-4H2,1-2H3,(H3,7,8,9)
