15
gdb 8245	6.00339	1.1337	1.01136	2.4602	68.76	-0.2625	0.0237	0.2862	1121.2901	0.117745	-362.629031	-362.621286	-362.620342	-362.661617	28.357	
N	 0.1050069888	 1.2228017044	 0.6843160696	-0.53699
C	 0.0295883297	 0.1116283193	 0.1113293502	 0.442523
C	-1.0867510675	-0.8704156989	-0.1759985081	-0.387122
C	 0.0364195584	-1.7063395567	-0.8261293459	 0.138035
C	-0.0525448399	-1.9498853579	-2.3299680282	-0.367606
C	 1.1517163516	-2.5565314015	-2.8824924353	 0.298267
C	 2.148827274	-3.0649520231	-3.3183864986	-0.429307
O	 1.0054910142	-0.658680489	-0.491570424	-0.255916
H	 1.0627522284	 1.5779998739	 0.6805364837	 0.23055
H	-1.5608209273	-1.30117944	 0.7067466634	 0.141091
H	-1.854652839	-0.5001840305	-0.8586782274	 0.137163
H	 0.2958801052	-2.6270538076	-0.2973151341	 0.108004
H	-0.918254439	-2.5997791845	-2.5166691798	 0.139192
H	-0.260847923	-0.9957344978	-2.8301467935	 0.140483
H	 3.0313772656	-3.5064661302	-3.7104743319	 0.201632
64.8107	96.8597	143.8781	296.0436	342.654	384.2995	451.197	496.3624	527.2626	626.7144	650.3068	719.5746	825.7594	865.3621	874.2416	933.6263	976.4525	991.7423	1024.6636	1043.4051	1091.4083	1142.3135	1218.513	1238.1759	1249.7613	1292.6949	1355.4854	1395.4155	1455.9742	1465.5807	1829.4665	2244.8479	3018.8551	3055.0359	3084.1126	3085.6801	3141.8902	3477.2698	3506.3025
N=C1CC(CC#C)O1	[NH][C]1C[C@@H](CC#C)O1	
InChI=1S/C6H7NO/c1-2-3-5-4-6(7)8-5/h1,5,7H,3-4H2	InChI=1S/C6H7NO/c1-2-3-5-4-6(7)8-5/h1,5,7H,3-4H2/t5-/m1/s1
