23
gdb 120640	3.62377	0.77748	0.74999	1.8254	83.2	-0.2372	0.0673	0.3045	1651.9609	0.20283	-425.403878	-425.39291	-425.391966	-425.440329	39.597	
C	-0.1483703882	 1.3827952161	 0.0490879986	-0.386769
C	-0.3133613526	-0.0802234213	-0.3232190774	-0.036729
O	-1.3127460608	-0.6459390369	 0.5135853785	-0.244454
C	-1.5219402897	-2.0013825317	 0.2800234081	 0.077692
C	-2.801072807	-2.5852755483	 0.7895857906	-0.355508
C	-2.5828357547	-2.4589322097	-0.7084473184	 0.289744
C	-3.3871657702	-1.4114273422	-1.4525687408	-0.480239
C	-2.2974703236	-3.732442504	-1.4791682006	-0.133813
O	-3.4481057256	-4.5372912255	-1.7054354101	-0.417192
H	 0.6249184093	 1.8483107002	-0.5692493108	 0.115421
H	-1.0856264313	 1.9265293142	-0.1003490566	 0.126173
H	 0.1398613124	 1.4807618113	 1.0994877364	 0.128816
H	-0.599181957	-0.1857160334	-1.3810151192	 0.090567
H	 0.6357794875	-0.6242214916	-0.1880140373	 0.089787
H	-0.6150507222	-2.6058714442	 0.3528722469	 0.078011
H	-2.7842941753	-3.572190406	 1.2388159131	 0.11728
H	-3.4942449197	-1.8887671385	 1.2490967054	 0.119098
H	-3.4199641879	-0.4754594104	-0.8903886944	 0.135132
H	-2.9503426212	-1.1988062079	-2.4363286297	 0.109531
H	-4.4219781838	-1.7393240705	-1.6098053849	 0.109734
H	-1.8007146556	-3.4824179533	-2.4317428415	 0.082362
H	-1.6091616177	-4.3687290102	-0.9123559053	 0.101888
H	-4.0565464452	-4.0336737463	-2.2547567206	 0.283469
58.1806	73.6473	103.0089	111.6974	209.0978	224.0633	236.4252	259.3915	275.7816	318.3149	342.8511	370.5858	447.7664	491.0599	608.2553	729.8331	812.0328	823.4919	871.3751	911.515	927.8941	977.2678	991.3215	1026.0134	1056.6316	1071.0229	1091.3991	1117.2719	1125.5018	1156.11	1185.4809	1190.1799	1221.7628	1278.8538	1295.4651	1345.6931	1375.4224	1383.9899	1405.4798	1411.3714	1429.314	1441.4092	1483.4351	1485.1096	1494.8644	1498.7363	1503.926	1507.6328	1527.5584	2962.2884	2969.9107	3002.4337	3018.2717	3044.9755	3063.1136	3070.4676	3073.6854	3119.018	3121.8492	3122.038	3134.2238	3221.6778	3823.7436
CCOC1CC1(C)CO	CCO[C@H]1C[C@]1(C)CO	
InChI=1S/C7H14O2/c1-3-9-6-4-7(6,2)5-8/h6,8H,3-5H2,1-2H3	InChI=1S/C7H14O2/c1-3-9-6-4-7(6,2)5-8/h6,8H,3-5H2,1-2H3/t6-,7+/m0/s1
