17
gdb 34758	4.90831	1.22209	1.11333	3.721	76.66	-0.2549	0.0225	0.2773	1085.7888	0.138834	-380.827017	-380.820262	-380.819317	-380.858184	26.979	
N	-0.1132375547	-1.1990359922	-0.1511615737	-0.338146
C	-0.0632787417	-0.0463085104	-0.0765087002	 0.268753
C	-0.0107825104	 1.4013422032	 0.0072737787	-0.151975
C	 0.0911539035	 2.072228728	 1.3997574551	-0.02892
C	 1.572508073	 1.6039278863	 1.5577323165	-0.026815
C	 2.3145560054	 2.7017580073	 2.306924797	-0.265204
C	 1.6098349693	 3.919578992	 1.6462046337	-0.16728
N	 0.6499961895	 3.3067083931	 0.6952592507	-0.135109
C	 1.3683402316	 2.1016176186	 0.0916858685	-0.028921
H	-0.7195472427	 1.8745870598	-0.6741233223	 0.13268
H	-0.6906557502	 2.1464446875	 2.1573065449	 0.09642
H	 1.8084904411	 0.5593002402	 1.7646727623	 0.100638
H	 2.1574235804	 2.6471464339	 3.3880924491	 0.110043
H	 3.3925685647	 2.6755679731	 2.1230783122	 0.110043
H	 1.059391712	 4.5394383684	 2.3591491253	 0.113687
H	 2.2951836201	 4.5678753107	 1.093472929	 0.113687
H	 2.104936399	 2.2107731306	-0.7058892668	 0.09642
134.3701	150.4586	257.4456	362.0553	382.1153	504.9614	565.7658	720.006	738.2795	738.4271	807.6531	816.5339	829.6534	916.6229	926.752	941.5532	967.4417	1000.171	1017.1773	1042.1615	1066.2782	1071.11	1115.7878	1122.0754	1173.9247	1196.2847	1221.5897	1235.3081	1243.887	1257.04	1273.7773	1318.7	1345.2448	1356.6824	1492.6087	1509.6914	2356.7888	3054.7259	3064.5843	3092.2807	3103.0443	3104.8025	3111.5797	3113.263	3120.3587
N#CC1C2C3CCN2C13	N#C[C@H]1[C@H]2[C@@H]3CCN2[C@H]13	
InChI=1S/C7H8N2/c8-3-5-6-4-1-2-9(6)7(4)5/h4-7H,1-2H2	InChI=1S/C7H8N2/c8-3-5-6-4-1-2-9(6)7(4)5/h4-7H,1-2H2/t4-,5-,6+,7-
