18
gdb 6827	2.75726	1.8619	1.46332	1.6468	68.09	-0.2464	-0.0266	0.2198	930.1078	0.151381	-384.942583	-384.933998	-384.933054	-384.975647	31.744	
C	-0.1551531705	 1.5124215546	 0.1159525814	-0.453439
C	-0.0068999419	-0.0024542781	 0.0064099659	 0.398732
O	-1.2298904414	-0.613237982	-0.3397098567	-0.471574
C	 1.1483762748	-0.4456009674	-0.9277031972	-0.247885
C	 2.0645166163	-0.6549287301	 0.3088346282	-0.262625
C	 0.7846096799	-0.6747726121	 1.1878061311	-0.116734
C	 0.791997279	-0.0651636703	 2.5598543268	 0.128852
O	-0.1474244488	 0.5111108697	 3.0538308382	-0.257512
H	 0.8054758849	 1.999308441	 0.3140102512	 0.113829
H	-0.5506165911	 1.9036307818	-0.8263842554	 0.121601
H	-0.8324971112	 1.7819934972	 0.9311838282	 0.136785
H	-1.9112037002	-0.2685493407	 0.2486107018	 0.282062
H	 0.8920311286	-1.3938140824	-1.4056479055	 0.117508
H	 1.4720508232	 0.2678629338	-1.6888681791	 0.101346
H	 2.6941851886	-1.5457900405	 0.3200705162	 0.108593
H	 2.6925206737	 0.2169765489	 0.5154467733	 0.108252
H	 0.4171581953	-1.7040852081	 1.2875012398	 0.116828
H	 1.747415521	-0.1811025254	 3.1248198019	 0.075383
59.812	118.8354	172.2658	232.7647	276.2242	311.594	340.9721	361.188	430.6527	446.4846	564.296	666.756	698.5105	803.3499	882.8622	898.2175	929.4479	948.7186	978.8514	1006.8393	1081.3944	1111.0111	1124.1508	1166.9783	1172.567	1230.4567	1252.915	1258.7835	1285.515	1330.9451	1376.8432	1406.1995	1420.0539	1477.7386	1491.5794	1495.8212	1503.25	1810.0579	2848.8686	3036.1505	3038.0152	3060.8248	3068.0356	3106.7192	3115.2713	3119.9969	3130.8265	3799.0026
CC1(O)CCC1C=O	C[C@@]1(O)CC[C@H]1C=O	
InChI=1S/C6H10O2/c1-6(8)3-2-5(6)4-7/h4-5,8H,2-3H2,1H3	InChI=1S/C6H10O2/c1-6(8)3-2-5(6)4-7/h4-5,8H,2-3H2,1H3/t5-,6+/m0/s1
