18
gdb 102941	2.06687	1.17829	0.8832	4.1294	74.83	-0.2475	0.0101	0.2576	1366.0848	0.146604	-435.254152	-435.244097	-435.243152	-435.290393	34.444	
C	-0.6077243953	 0.9999674481	 0.0021132074	-0.326259
N	 0.5527310416	 0.1311658976	-0.1674599113	-0.273058
C	 0.9912295879	-0.5376462026	 1.0480104335	-0.128419
C	 0.0526730581	-1.6641064178	 1.5572458701	-0.108136
O	-0.2446528505	-2.5742840371	 0.5119078862	-0.190566
C	 0.4719482911	-3.7257522288	 0.4468097513	 0.133921
N	 0.2937859405	-4.507308568	-0.5231690629	-0.436528
C	 2.3463649193	-1.0834552962	 0.8489227935	 0.292812
N	 3.3936363068	-1.5528364955	 0.7164459462	-0.321298
H	-0.3577524346	 1.807495222	 0.6992104354	 0.128605
H	-0.8446059859	 1.4566320726	-0.9620447262	 0.138211
H	-1.5180696573	 0.5002423742	 0.3706073938	 0.110041
H	 0.3718344618	-0.5707861484	-0.8781202565	 0.247862
H	 1.0593660622	 0.2148794042	 1.8454160704	 0.131442
H	 0.4964553784	-2.1744648908	 2.4210478965	 0.124572
H	-0.8989622867	-1.2248931679	 1.8668504939	 0.13254
H	 1.1553488703	-3.8621941281	 1.2939607893	 0.10647
H	 0.8862292025	-5.3287733674	-0.4238790209	 0.237789
52.2693	60.0394	96.1774	137.4375	157.6406	191.9607	221.1342	268.9351	373.0162	383.2011	441.9277	558.6013	592.2192	709.9769	735.3964	818.4404	848.9018	916.4184	969.3998	1010.8166	1037.5051	1083.2897	1132.3717	1149.1022	1162.4696	1201.7499	1244.5306	1291.8092	1321.9557	1356.7711	1391.8085	1419.5829	1460.6323	1485.6912	1498.8623	1503.6088	1524.5403	1748.8741	2360.8599	2977.0239	3026.6955	3035.3981	3049.3003	3065.055	3105.6233	3116.6061	3525.0439	3531.0726
CNC(COC=N)C#N	CN[C@@H](CO[CH][NH])C#N	
InChI=1S/C5H9N3O/c1-8-5(2-6)3-9-4-7/h4-5,7-8H,3H2,1H3	InChI=1S/C5H9N3O/c1-8-5(2-6)3-9-4-7/h4-5,7-8H,3H2,1H3/t5-/m1/s1
