23
gdb 110316	2.06142	1.49191	1.03238	1.3942	86.56	-0.2259	0.0841	0.31	1294.176	0.204074	-388.265215	-388.255307	-388.254363	-388.299458	37.592	
C	-0.7382239485	 1.924336082	 1.1148822568	-0.370868
C	 0.1637187043	 0.7469524841	 0.7280634071	-0.221561
C	 0.5775763255	-0.1101326257	 1.9078156784	-0.051371
C	-0.2829403875	-1.0884311947	 2.7091812494	-0.234683
C	-1.1405468449	-1.9895645031	 1.8229642645	 0.157222
C	-2.4088649389	-1.5270811905	 1.1323990644	-0.420448
O	-0.0119823925	-2.2354931927	 0.9321617752	-0.340904
C	 0.8784752596	-1.5737202897	 1.8517960934	 0.431536
C	 2.1774132891	-2.254851776	 2.1399583492	-0.487923
H	-0.2439692008	 2.5809222769	 1.8397137477	 0.109623
H	-0.9962486864	 2.5301916738	 0.2403403014	 0.109781
H	-1.6707620169	 1.5774835856	 1.5720335241	 0.117221
H	-0.3202524668	 0.1188385518	-0.0241150688	 0.115579
H	 1.0758259115	 1.133122052	 0.25373576	 0.092125
H	 1.256289441	 0.4005974244	 2.5923884541	 0.081735
H	-0.3688958739	-1.0254243353	 3.7867750324	 0.088549
H	-1.3526840146	-2.9235866284	 2.3638673752	 0.078676
H	-2.729320141	-2.2765973262	 0.4010034925	 0.124824
H	-3.2094063111	-1.4174246766	 1.8723152076	 0.115838
H	-2.2846491749	-0.5740176404	 0.6171033282	 0.128856
H	 2.798424839	-2.2945366263	 1.2374357025	 0.13044
H	 2.7345367429	-1.7110974339	 2.9083889315	 0.120593
H	 2.0170491758	-3.2820842012	 2.4828277334	 0.12516
98.3243	146.6257	177.8903	183.3443	197.0177	219.1228	228.7115	275.5668	294.9057	381.7329	420.717	546.275	601.9883	665.5774	692.604	771.4604	816.9361	862.2846	876.3193	905.0347	934.1405	968.5257	985.2403	1033.1391	1058.4299	1080.0718	1094.0744	1111.8978	1120.5588	1151.8364	1176.3526	1210.1043	1263.429	1296.5214	1313.4179	1332.1721	1363.9282	1396.4286	1408.1613	1410.4328	1411.2112	1474.6225	1479.9928	1486.8832	1492.8794	1498.2154	1499.7775	1502.7096	1512.6462	2989.3345	3021.1755	3029.8996	3030.4532	3041.1097	3083.2885	3092.0453	3098.2172	3100.9511	3103.1855	3109.595	3114.7483	3147.4413	3186.4767
CCC1C2C(C)OC12C	CC[C@H]1[C@H]2[C@@H](C)O[C@@]12C	
InChI=1S/C8H14O/c1-4-6-7-5(2)9-8(6,7)3/h5-7H,4H2,1-3H3	InChI=1S/C8H14O/c1-4-6-7-5(2)9-8(6,7)3/h5-7H,4H2,1-3H3/t5-,6+,7-,8+/m1/s1
