23
gdb 115289	2.57915	1.21005	0.86977	1.2416	89.87	-0.213	0.0403	0.2534	1397.4468	0.204871	-388.315857	-388.305543	-388.304599	-388.351012	38.028	
C	 0.130532056	 1.5548097121	-0.0161824038	-0.494759
C	 0.0073228561	 0.0633078765	-0.0738120546	 0.212296
C	-1.1026262767	-0.6875427123	-0.0162494406	 0.227015
C	-2.5170949734	-0.2180361738	 0.1448475849	-0.484202
C	-0.7690831583	-2.174169271	-0.0462461237	-0.045852
C	-1.6224300168	-3.0302570742	-0.9823441682	-0.092708
O	-2.9226307117	-3.1778183632	-0.4270204444	-0.420549
C	 0.7230904644	-2.1986113584	-0.4581016565	-0.239892
C	 1.2586138868	-0.786610503	-0.1456484317	-0.294851
H	 0.7467149462	 1.8638252447	 0.838903867	 0.12069
H	 0.6332885977	 1.9422812242	-0.9121934421	 0.119886
H	-0.834970693	 2.0584984915	 0.0693849147	 0.121344
H	-2.5884103704	 0.8716388173	 0.1855227899	 0.107108
H	-3.1547732616	-0.5760404017	-0.6698403684	 0.1263
H	-2.958039339	-0.6243108367	 1.0634709863	 0.126942
H	-0.9045621604	-2.5963416491	 0.9618006729	 0.079228
H	-1.6622244914	-2.5558523099	-1.9768258358	 0.082301
H	-1.1377210272	-4.0125530944	-1.1060411101	 0.083809
H	-3.4555131301	-3.6914489323	-1.0408911262	 0.284931
H	 1.2840107276	-2.9947226084	 0.0387530113	 0.094632
H	 0.7926288266	-2.3834298229	-1.5371352689	 0.095485
H	 1.9708871613	-0.4286039209	-0.8998301717	 0.092898
H	 1.7963683276	-0.755703364	 0.8140568598	 0.097947
61.7739	130.8902	149.298	156.3436	172.361	203.2869	261.5194	263.6685	308.2425	348.577	389.6687	441.3197	555.6394	594.5817	622.683	689.3573	846.2937	877.4551	935.9772	967.744	981.3338	999.2286	1032.7515	1050.2853	1069.1544	1081.7935	1108.116	1133.0547	1170.708	1193.8585	1236.1202	1249.4732	1251.0202	1262.8056	1308.6337	1340.0636	1345.2299	1369.5097	1408.696	1423.182	1452.8438	1476.9204	1479.5083	1481.2307	1485.3692	1491.1666	1502.1248	1519.648	1735.5007	2956.5054	2976.7131	2992.1734	2994.3941	3012.0036	3025.281	3030.247	3041.3081	3052.1765	3079.9996	3089.9736	3112.2886	3119.8543	3828.8476
CC1=C(C)C(CO)CC1	CC1=C(C)[C@@H](CO)CC1	
InChI=1S/C8H14O/c1-6-3-4-8(5-9)7(6)2/h8-9H,3-5H2,1-2H3	InChI=1S/C8H14O/c1-6-3-4-8(5-9)7(6)2/h8-9H,3-5H2,1-2H3/t8-/m1/s1
