16
gdb 76851	2.59379	1.70291	1.4217	2.0727	64.77	-0.2593	0.0046	0.2639	947.5948	0.124674	-474.993001	-474.985299	-474.984355	-475.025401	29.607	
O	-0.4034730903	 1.4331484852	 0.2777752255	-0.426581
C	-0.1085748002	 0.0969687752	 0.0505650753	 0.127327
C	 0.3429495742	-0.726894472	 1.3125105131	 0.059021
O	 0.2332878924	 0.009852085	 2.5094277178	-0.43898
C	-0.7849073513	-1.7699815753	 1.0184378484	-0.223276
C	-1.2839901372	-0.9011610069	-0.1726811351	 0.048358
O	-2.4773215699	-0.5429729954	 0.5975633935	-0.248879
C	-2.0723266552	-1.3152214502	 1.6586585364	 0.421373
N	-2.5695758706	-1.4736894306	 2.8030219057	-0.552488
H	-0.4425129899	 1.5291951775	 1.2414953789	 0.294413
H	 0.6144295736	 0.0059014713	-0.7692149967	 0.088691
H	 1.352212086	-1.1403238067	 1.2324045289	 0.095836
H	-0.4850467486	-0.3589696552	 3.0435018021	 0.309174
H	-0.5460398535	-2.8297232739	 0.9997509421	 0.108919
H	-1.5441147666	-1.254820847	-1.168740366	 0.100493
H	-3.437677653	-0.945602691	 2.9121735601	 0.2366
63.4396	154.4586	229.3123	251.72	315.4375	401.6167	466.231	498.0847	563.2153	577.3076	666.9947	740.6366	794.15	796.6949	865.8794	880.2343	899.9722	940.3478	1009.4366	1019.0651	1032.0327	1106.5687	1138.7442	1161.5975	1183.1822	1201.5392	1242.4115	1255.0879	1286.644	1326.843	1352.3548	1360.654	1402.3408	1434.726	1801.7899	3033.6374	3066.5927	3134.2786	3160.0524	3472.6809	3711.2077	3726.5668
OC1C(O)C2C1OC2=N	O[C@H]1[C@@H](O)[C@@H]2[C@H]1O[C]2[NH]	
InChI=1S/C5H7NO3/c6-5-1-2(7)3(8)4(1)9-5/h1-4,6-8H	InChI=1S/C5H7NO3/c6-5-1-2(7)3(8)4(1)9-5/h1-4,6-8H/t1-,2+,3+,4-/m1/s1
