17
gdb 45061	2.58102	1.87294	1.28902	4.1954	72.03	-0.2695	0.009	0.2784	987.2761	0.137106	-421.845235	-421.838036	-421.837092	-421.87684	28.614	
O	 0.0284000826	 0.0793515071	-0.4622480296	-0.354102
C	 0.0291661755	 1.2110911578	-0.0704584538	 0.399947
O	-1.0993869549	 1.8253105769	 0.4045864967	-0.229732
C	-0.8117071301	 3.1498814014	 0.8162272029	 0.09363
C	 0.0633189486	 3.3108328085	 2.0222526401	-0.327276
C	 0.6563356283	 3.4264617642	 0.6257935921	-0.179413
C	 1.1857657471	 2.1674276556	 0.0145655181	 0.195576
C	 2.5614114	 1.5765717071	 0.2496483102	-0.293475
C	 2.2122805659	 2.1227417037	-1.0990361245	-0.311264
H	-1.6103160081	 3.8391800841	 0.5751224253	 0.117578
H	-0.0422744223	 4.2274064127	 2.5922560782	 0.123637
H	 0.2870487876	 2.4264589436	 2.6100755548	 0.131935
H	 1.0112061383	 4.3874687937	 0.2739860137	 0.103183
H	 3.2348879352	 2.1441960678	 0.8818517578	 0.123346
H	 2.6074728334	 0.4990423487	 0.3612199594	 0.141728
H	 2.0258842224	 1.4167147769	-1.9002352934	 0.142841
H	 2.6442750304	 3.0698056303	-1.4038595779	 0.12186
101.3484	195.5254	239.2646	249.817	376.9305	465.4191	488.0872	561.5113	700.0984	723.3285	747.4897	777.7266	805.1266	815.7132	900.9632	918.6318	956.8608	971.2336	998.038	1019.8658	1055.6236	1064.3798	1066.1857	1086.8505	1095.3237	1119.6369	1150.8306	1199.7362	1202.2443	1276.2395	1307.5011	1376.8787	1402.497	1454.0693	1472.7755	1489.4859	1873.5039	3132.0125	3136.0493	3138.7346	3182.1931	3200.0977	3223.6911	3224.9964	3237.9074
O=C1OC2CC2C11CC1	O=C1O[C@H]2C[C@H]2C21CC2	
InChI=1S/C7H8O2/c8-6-7(1-2-7)4-3-5(4)9-6/h4-5H,1-3H2	InChI=1S/C7H8O2/c8-6-7(1-2-7)4-3-5(4)9-6/h4-5H,1-3H2/t4-,5+/m1/s1
