19
gdb 32563	1.98082	1.85788	1.04076	3.4571	79.15	-0.1835	0.0378	0.2213	1176.9423	0.159182	-419.243317	-419.23413	-419.233186	-419.277513	33.923	
C	-0.1169845624	 1.5787379724	-0.074222109	-0.380812
C	 0.0664488501	 0.0594553049	-0.0267931372	-0.148437
N	 0.7585045472	-0.4684990869	-1.1901666195	-0.138548
C	 0.1180000041	-0.6779962721	-2.3948674041	 0.462218
N	-1.1171712261	-0.4813389518	-2.6237573955	-0.624943
O	 1.0721391424	-1.1328429078	-3.2760057542	-0.222753
C	 2.2823122944	-1.1785801253	-2.600411964	-0.150074
C	 2.1191211595	-0.7756166365	-1.3337694133	 0.280467
C	 3.1048743693	-0.6612999928	-0.2255995257	-0.502827
H	 0.847489493	 2.0957066993	-0.1038716681	 0.113857
H	-0.6909695698	 1.854858298	-0.9617157388	 0.156003
H	-0.6618985005	 1.9203464268	 0.81147629	 0.116372
H	 0.6260545705	-0.239383515	 0.864165464	 0.108497
H	-0.9113298165	-0.4296309224	 0.0110562235	 0.143945
H	-1.3473898761	-0.7248446549	-3.5830376986	 0.221766
H	 3.1380075526	-1.51628705	-3.1570041321	 0.144146
H	 4.097494557	-0.9419199267	-0.5845488667	 0.140654
H	 3.1628731329	 0.3608825412	 0.165880983	 0.139696
H	 2.8520644885	-1.3199302403	 0.6136329564	 0.140773
60.3734	89.234	155.8318	200.7251	216.2525	277.1674	315.446	317.5651	398.6398	525.7805	586.6886	594.1744	664.683	695.7897	712.2465	746.3451	775.0904	790.6499	953.6959	993.3679	1010.979	1041.4001	1067.496	1098.8454	1105.0102	1190.3469	1206.4253	1267.9445	1303.5494	1388.4299	1392.0343	1408.0923	1422.9261	1446.8499	1475.284	1476.5315	1489.4968	1501.2395	1507.6178	1711.5987	1766.7276	3027.598	3040.8513	3058.093	3076.6825	3099.085	3112.907	3127.3907	3136.6647	3301.7775	3543.2044
CCN1C(=N)OC=C1C	CCN1[C@@H]([NH])OC=C1C	
InChI=1S/C6H10N2O/c1-3-8-5(2)4-9-6(8)7/h4,7H,3H2,1-2H3	InChI=1S/C6H11N2O/c1-3-8-5(2)4-9-6(8)7/h4,6-7H,3H2,1-2H3/t6-/m1/s1
