21
gdb 69003	2.86071	1.3017	1.07354	0.9982	83.28	-0.2312	0.082	0.3133	1210.6204	0.182353	-387.045107	-387.036356	-387.035411	-387.078691	34.249	
O	-0.2822758746	 1.3100531968	-0.3296302941	-0.463495
C	-0.1170371516	-0.0353700442	-0.0489160325	 0.354805
C	-0.3528234037	-1.1045000753	-1.0836215117	-0.40926
C	-1.2110919376	-1.0826226515	 0.1664193281	 0.326768
C	-0.3835123266	-1.6898521741	 1.3154696931	-0.282724
C	 0.7040343282	-0.5812079004	 1.1205113292	-0.285969
C	-2.6934929187	-0.9886714385	 0.1886630663	-0.109393
C	-3.5285969101	-0.7145254472	-1.0363442704	-0.267892
C	-3.5539885293	-2.0834195696	-0.4098637294	-0.264709
H	 0.3818687625	 1.5706331182	-0.9772310835	 0.283249
H	-0.8387333672	-0.7374329555	-1.98185481	 0.111432
H	 0.3660749401	-1.9054229249	-1.252122321	 0.095804
H	-0.8853914517	-1.6183644922	 2.2835893229	 0.101934
H	-0.0551488639	-2.7237039554	 1.1664160604	 0.093153
H	 1.7251297902	-0.910404074	 0.8977558794	 0.086924
H	 0.7311103853	 0.1177850433	 1.9596768032	 0.106973
H	-3.0802078619	-0.556703022	 1.1093849624	 0.081255
H	-4.3960114222	-0.0750233338	-0.9165677389	 0.111127
H	-3.0322747925	-0.6042157562	-1.9934568557	 0.110464
H	-3.0434451353	-2.8833489662	-0.935188496	 0.11118
H	-4.4422819995	-2.394868747	 0.1284483381	 0.108374
49.0682	122.9463	183.1836	229.4259	257.3998	293.0895	372.9239	393.5087	453.8942	558.3876	586.2696	678.136	725.4339	790.7848	793.465	826.2339	867.6243	906.4928	911.3899	936.952	948.8088	982.6245	1025.2426	1057.495	1066.7268	1078.5725	1084.1551	1110.2335	1137.18	1172.5746	1193.8793	1198.7202	1213.2776	1223.8904	1236.4795	1252.7012	1292.6129	1339.5635	1391.9462	1437.675	1466.0543	1480.5745	1484.5503	1504.5509	1525.7334	3037.0194	3047.5137	3090.0335	3093.7433	3112.5463	3121.6712	3132.8189	3139.8644	3197.3532	3211.9667	3226.6161	3790.2514
OC12CC1(CC2)C1CC1	O[C@]12C[C@]1(CC2)C1CC1	
InChI=1S/C8H12O/c9-8-4-3-7(8,5-8)6-1-2-6/h6,9H,1-5H2	InChI=1S/C8H12O/c9-8-4-3-7(8,5-8)6-1-2-6/h6,9H,1-5H2/t7-,8-/m1/s1
