21
gdb 68021	2.58808	1.73098	1.31328	1.818	81.45	-0.2486	0.0849	0.3335	1062.2423	0.182508	-387.057335	-387.049293	-387.048348	-387.089093	33.2	
C	-0.0561201411	 1.5277180158	 0.049537867	-0.507245
C	 0.0313599785	 0.0189715257	 0.0426858945	 0.291382
C	 0.9254352277	-0.7863300222	-0.9724322013	-0.288189
C	 0.7451249057	-1.9336002392	 0.0903978691	 0.291382
C	 1.6506610635	-3.1413490229	 0.163627681	-0.507245
C	 0.7716053944	-0.7907909732	 1.1463350304	-0.292531
C	-0.7790570711	-2.1641413143	-0.0804847701	 0.003155
O	-1.6172468078	-1.668145022	 0.9780319935	-0.262085
C	-1.2795905949	-0.7948787941	-0.113950205	 0.003156
H	 0.9378453593	 1.9835722888	 0.1046022274	 0.114172
H	-0.5435657059	 1.9028553345	-0.8582357325	 0.113908
H	-0.6358808498	 1.8844808944	 0.9081835511	 0.124082
H	 0.5284765208	-0.9560427512	-1.9793463453	 0.085187
H	 1.9524777523	-0.4123210488	-1.0309216632	 0.090972
H	 2.7033900894	-2.8462471769	 0.2226120377	 0.114172
H	 1.4239519926	-3.7503757707	 1.0458771169	 0.124082
H	 1.5341697298	-3.781015055	-0.7193452511	 0.113908
H	 1.7867038255	-0.4159891028	 1.299057849	 0.086791
H	 0.2647028661	-0.9528740245	 2.0964393581	 0.112841
H	-1.1722451924	-2.9976116065	-0.6546556786	 0.094052
H	-2.1083271226	-0.436860665	-0.7172416787	 0.094052
205.5494	209.5198	224.3349	236.3956	258.135	335.4523	403.1204	453.4771	517.7719	572.2656	594.4539	598.8788	701.4161	802.9502	814.06	857.3846	876.4495	884.5205	897.3038	937.1059	982.7778	986.0876	1032.7796	1036.2693	1049.2713	1079.7631	1120.4625	1145.6951	1187.346	1202.1998	1238.205	1238.4372	1243.7819	1254.3524	1303.1637	1341.617	1405.7473	1414.122	1418.4536	1474.5543	1492.0363	1492.7278	1494.1035	1494.979	1514.8842	3023.5386	3023.5698	3035.2121	3073.3516	3085.954	3086.0874	3094.5031	3096.2014	3098.3112	3148.1909	3155.0316	3167.648
CC12CC(C)(C1)C1OC21	C[C@@]12C[C@@](C)(C1)[C@H]1O[C@@H]21	
InChI=1S/C8H12O/c1-7-3-8(2,4-7)6-5(7)9-6/h5-6H,3-4H2,1-2H3	InChI=1S/C8H12O/c1-7-3-8(2,4-7)6-5(7)9-6/h5-6H,3-4H2,1-2H3/t5-,6+,7-,8+
