19
gdb 8914	3.56726	1.23731	0.982	4.0153	72.52	-0.2481	0.0367	0.2848	1205.1281	0.165372	-361.246633	-361.236838	-361.235894	-361.281193	34.988	
C	-0.0444411889	 1.5701735345	 0.0895823458	-0.395344
C	-0.0214507429	 0.042253431	-0.0001156712	-0.171107
C	 0.7323061566	-0.4809298746	-1.2353658405	 0.037529
N	 2.1563137529	-0.1469757959	-1.2857195663	-0.50328
C	 0.6046088695	-2.0224665976	-1.354317419	-0.130493
N	-0.7980363089	-2.4467255347	-1.3641168125	-0.500219
C	 1.3463948986	-2.5168360296	-2.5351153432	 0.280304
N	 1.833099745	-2.9648793433	-3.4835043915	-0.333722
H	 0.9655075692	 1.9893762381	 0.1483569771	 0.1066
H	-0.5377696879	 2.0109018309	-0.7844282758	 0.116519
H	-0.5894447813	 1.9015252801	 0.9781912664	 0.120106
H	 0.455646664	-0.3758856067	 0.8985014542	 0.0858
H	-1.0418941096	-0.3504596276	-0.0144538649	 0.123086
H	 0.2748256664	-0.0501661517	-2.1370987928	 0.089386
H	 2.2884998174	 0.8336278312	-1.5044055859	 0.238845
H	 2.5896268918	-0.3054837775	-0.3795196492	 0.226032
H	 1.0754227332	-2.4625801723	-0.4653824305	 0.12229
H	-1.2332503438	-2.159021316	-2.2370273324	 0.241436
H	-0.8518702815	-3.4605395785	-1.3439420277	 0.246233
58.6399	92.2065	139.3192	211.9978	222.2518	236.8668	247.511	279.6923	299.8448	398.2054	414.6646	465.7079	571.5181	605.5011	779.1186	820.7831	854.5761	881.2584	935.5251	997.767	1004.6314	1063.5054	1099.0947	1122.0619	1135.9107	1169.4938	1254.9467	1283.3689	1317.3634	1346.8301	1377.913	1390.2823	1404.4758	1417.1257	1487.8896	1501.0595	1509.1387	1659.5406	1664.5639	2346.6409	3002.1135	3015.7482	3031.609	3036.0738	3084.3429	3101.9243	3109.2577	3491.3197	3491.9154	3570.0623	3586.6137
CCC(N)C(N)C#N	CC[C@@H](N)[C@@H](N)C#N	
InChI=1S/C5H11N3/c1-2-4(7)5(8)3-6/h4-5H,2,7-8H2,1H3	InChI=1S/C5H11N3/c1-2-4(7)5(8)3-6/h4-5H,2,7-8H2,1H3/t4-,5+/m1/s1
