18
gdb 75890	2.38857	1.56473	1.2017	2.6903	66.9	-0.2457	0.0056	0.2513	1071.2731	0.147373	-476.260966	-476.251888	-476.250944	-476.294379	34.087	
C	 0.2966790448	 1.5616814334	-0.185805923	-0.453497
C	 0.0092673588	 0.0620625178	-0.0720466286	 0.363119
O	-1.3823167385	-0.1921649663	-0.0988117715	-0.480455
C	 0.6637056425	-0.7368013512	-1.2131817855	-0.110446
O	 2.0125660526	-1.0076519075	-0.7799112406	-0.224577
C	 2.1039924179	-0.9007807624	 0.572620605	 0.419123
O	 3.1354491333	-1.0196486018	 1.1682929142	-0.345841
C	 0.7158089081	-0.5855481956	 1.1389194966	-0.177644
N	 0.659954027	 0.1695071598	 2.3768025978	-0.532482
H	 1.3691254083	 1.7617622723	-0.2860836063	 0.130782
H	-0.2137762623	 1.9656899947	-1.0638517899	 0.131549
H	-0.0667785935	 2.0877755192	 0.7020632592	 0.129713
H	-1.7622203261	 0.2312497412	 0.6800032341	 0.28907
H	 0.1266440515	-1.678637053	-1.3670125488	 0.126984
H	 0.7215892966	-0.1931869824	-2.1578563338	 0.125779
H	 0.2115145888	-1.5475694409	 1.299044253	 0.120155
H	 0.9159654466	-0.4343308511	 3.151707497	 0.247162
H	 1.3633137137	 0.9031503138	 2.366326641	 0.241506
83.6254	165.7897	182.3868	213.2862	257.5302	273.6857	296.2538	346.1218	365.1327	412.4136	495.6922	550.4707	581.4384	643.5957	712.1755	788.3416	853.8922	926.6394	957.7612	966.1182	990.4375	1050.7931	1093.4157	1135.4898	1141.2217	1180.9685	1206.501	1243.2854	1261.5499	1299.5891	1372.0557	1394.0807	1405.2013	1432.5994	1491.2917	1501.9817	1520.6351	1670.3756	1881.9739	3033.164	3036.4241	3054.7384	3107.368	3119.9585	3123.9405	3500.0748	3571.3754	3796.3456
CC1(O)COC(=O)C1N	C[C@@]1(O)COC(=O)[C@H]1N	
InChI=1S/C5H9NO3/c1-5(8)2-9-4(7)3(5)6/h3,8H,2,6H2,1H3	InChI=1S/C5H9NO3/c1-5(8)2-9-4(7)3(5)6/h3,8H,2,6H2,1H3/t3-,5-/m1/s1
