13
gdb 12760	3.45328	1.82532	1.53399	3.7305	58.21	-0.2597	-0.0069	0.2528	826.8148	0.094556	-398.551247	-398.544253	-398.543309	-398.582422	26.04	
O	-0.0330994764	 1.4365911329	 0.0560781389	-0.446703
C	-0.0182540061	 0.0673333404	 0.0134534567	 0.313432
C	-0.307970211	-0.7785886316	-1.2056624244	-0.365495
C	-1.1435211423	-0.932735851	 0.0366347327	 0.049945
O	-0.4750051588	-1.7765865261	 0.9867769001	-0.282653
C	 0.6038463857	-0.8153535476	 1.1137009135	-0.073114
C	 1.9300385015	-1.3857218846	 0.8789770985	 0.277573
N	 2.9852478778	-1.8080037826	 0.6692600278	-0.319435
H	 0.6298058744	 1.7745919302	-0.5570365824	 0.30214
H	-0.7937413154	-0.2188065349	-1.9995639554	 0.131143
H	 0.3574774554	-1.5756750654	-1.5249686946	 0.142282
H	-2.2200037665	-0.84587854	 0.1030997388	 0.129729
H	 0.5690580116	-0.32550444	 2.0927917396	 0.141157
124.7263	140.074	280.0297	322.1608	351.0613	397.3843	447.3064	535.3309	565.6947	680.8357	730.2405	861.083	903.5778	946.6679	978.1853	994.2144	1017.1314	1031.5877	1078.9493	1105.4404	1188.2081	1225.9621	1258.7021	1326.5455	1346.5637	1418.9302	1495.9529	2355.6224	3060.9046	3119.0618	3208.9024	3216.7812	3791.4095
OC12CC1OC2C#N	O[C@]12C[C@H]1O[C@H]2C#N	
InChI=1S/C5H5NO2/c6-2-4-5(7)1-3(5)8-4/h3-4,7H,1H2	InChI=1S/C5H5NO2/c6-2-4-5(7)1-3(5)8-4/h3-4,7H,1H2/t3-,4+,5-/m1/s1
