17
gdb 70012	3.78686	1.42224	1.21182	2.3724	74.83	-0.2356	-0.0077	0.2278	1047.7454	0.135357	-421.754729	-421.747213	-421.746269	-421.786539	29.108	
C	-0.1996228846	 1.5380136435	 0.0991461018	-0.509782
C	 0.1829992551	 0.1030304851	-0.035576596	 0.317065
O	-0.7100962673	-0.914931558	 0.4666467533	-0.263984
C	 0.6366701867	-0.928322058	 0.9431349596	-0.106107
C	 1.595885105	-1.5288194931	-0.1291074636	 0.084053
O	 1.5844494962	-2.8311533225	-0.6640175422	-0.276908
C	 1.4195285113	-2.6750822389	-2.0897104097	-0.106365
C	 0.7955519578	-1.2944936331	-2.2909244504	-0.238765
C	 0.9170562442	-0.6497974299	-1.1395822961	 0.171521
H	 0.670299179	 2.1855258807	-0.046510027	 0.132274
H	-0.9514421141	 1.8087512089	-0.6502095962	 0.137429
H	-0.6210387024	 1.7252853129	 1.0898680273	 0.139457
H	 0.7862051642	-0.857834488	 2.0148819412	 0.102978
H	 2.6186693617	-1.203777075	 0.129741665	 0.077706
H	 2.3905185404	-2.7944118876	-2.5973717989	 0.104881
H	 0.7546532854	-3.4690591645	-2.4516104271	 0.121793
H	 0.2551750612	-1.0193487324	-3.187473401	 0.112755
145.3885	158.8568	200.1813	225.0252	300.2702	339.003	490.5919	561.6763	588.486	706.5106	724.1891	788.6884	816.9457	839.7987	854.2839	914.666	926.698	972.097	998.7744	1012.0739	1038.496	1061.8647	1094.5886	1121.4792	1181.6594	1203.5461	1222.5086	1246.1491	1293.1251	1331.6395	1367.4458	1399.9682	1445.0933	1479.7436	1491.4696	1507.805	1726.1019	2952.1999	2971.8935	3039.2118	3045.4553	3102.8819	3127.8234	3181.7018	3216.7636
CC12OC1C1OCC=C21	C[C@]12O[C@H]1[C@H]1OC[CH][C]21	
InChI=1S/C7H8O2/c1-7-4-2-3-8-5(4)6(7)9-7/h2,5-6H,3H2,1H3	InChI=1S/C7H8O2/c1-7-4-2-3-8-5(4)6(7)9-7/h2,5-6H,3H2,1H3/t5-,6-,7+/m0/s1
