20
gdb 75616	1.87281	1.73879	1.16617	2.9873	76.48	-0.2436	0.0247	0.2683	1155.1546	0.167944	-440.313823	-440.303263	-440.302319	-440.349134	37.481	
C	-0.0026187336	 1.3816815824	 0.0155850918	-0.354535
N	-0.0331057257	-0.0591740715	 0.0071466738	-0.094817
C	 0.0458516774	-0.9506294221	-1.0214352981	 0.378034
O	 0.1714208614	-0.8284418932	-2.2170677665	-0.399259
C	-0.0031921748	-2.1485179521	-0.0507049032	-0.069193
O	 1.0852212268	-3.0330209609	-0.1237662313	-0.430399
C	 0.0345296485	-1.0709526016	 1.096853622	 0.274555
C	 1.3452782662	-1.0283476385	 1.8760911516	-0.419475
C	-1.187314643	-1.0544822568	 2.0114867419	-0.439383
H	 0.8900520882	 1.7631789755	 0.5258146355	 0.131506
H	 0.0181480683	 1.7186674797	-1.0235627145	 0.162805
H	-0.8890385846	 1.8016000386	 0.5050738106	 0.130823
H	-0.9587705856	-2.6899804415	-0.0764068206	 0.088913
H	 1.3812686273	-3.0419809056	-1.0414773555	 0.301972
H	 2.2032601807	-1.0749545018	 1.2028556701	 0.127472
H	 1.4109374602	-0.1129419439	 2.4741049088	 0.111177
H	 1.4082048272	-1.8808489251	 2.5584920182	 0.130695
H	-1.1655829465	-1.9109768354	 2.6925012503	 0.12941
H	-1.2109756923	-0.1455582409	 2.6225115918	 0.118927
H	-2.1139357161	-1.0983661553	 1.4311113831	 0.120772
77.9152	106.3196	132.7452	165.2516	180.411	212.1639	223.1275	239.3346	259.6087	310.5802	343.3896	421.3848	482.1213	592.6631	604.8942	666.1133	799.0029	826.3895	914.4553	945.2859	981.1527	1004.5415	1042.1563	1128.6483	1140.6148	1149.9022	1204.7576	1219.0332	1255.4987	1284.5162	1356.4096	1377.2062	1403.1402	1416.2544	1420.0979	1447.54	1475.8254	1478.7721	1486.6035	1498.5783	1501.9197	1517.8265	1866.4108	3011.5587	3018.0995	3032.9518	3042.0203	3071.1877	3100.7039	3108.5506	3113.0914	3129.4935	3135.4697	3795.0912
CN1C(=O)C(O)C1(C)C	CN1C(=O)[C@@H](O)C1(C)C	
InChI=1S/C6H11NO2/c1-6(2)4(8)5(9)7(6)3/h4,8H,1-3H3	InChI=1S/C6H11NO2/c1-6(2)4(8)5(9)7(6)3/h4,8H,1-3H3/t4-/m1/s1
