21
gdb 88667	2.7307	1.23502	1.13325	1.4807	79.04	-0.2478	0.0814	0.3292	1220.5608	0.181334	-424.198124	-424.188908	-424.187964	-424.232367	34.439	
C	 0.6120956319	 1.5181940213	-0.2197928834	-0.433959
C	 0.3647036999	 0.0629492052	 0.0818252534	 0.07984
O	 1.5030487174	-0.7851086893	 0.3209443487	-0.259786
C	 0.5661950627	-0.5993384136	 1.3822951063	 0.036673
C	 1.0647514215	 0.0161375351	 2.6679188643	 0.10186
C	 2.2176316179	-0.7525326126	 3.3591424513	-0.317013
C	 3.030863095	 0.5431776583	 3.1394005928	 0.16775
C	 4.2161175623	 0.475806623	 2.1978711906	-0.405023
O	 1.8819670145	 1.193576806	 2.5286735855	-0.296913
H	 1.3428048208	 1.9423534387	 0.4660051438	 0.162131
H	 0.9687204384	 1.6267238986	-1.2499238753	 0.119674
H	-0.3256829279	 2.0787949634	-0.1344956295	 0.115375
H	-0.3736440818	-0.409590309	-0.571411076	 0.085735
H	-0.0522017554	-1.4802754252	 1.5863443945	 0.084707
H	 0.1973555337	 0.2119217855	 3.3145469956	 0.077763
H	 2.0391788229	-1.028078539	 4.3990757967	 0.107983
H	 2.5827745065	-1.6191120508	 2.8049006145	 0.121143
H	 3.3004736152	 1.060916164	 4.0689204365	 0.074819
H	 3.9273740916	-0.0245995005	 1.2696137562	 0.14564
H	 4.5708648714	 1.4830706261	 1.9567140349	 0.120747
H	 5.0418776314	-0.0741049953	 2.6633642884	 0.110855
67.7037	72.7286	175.9766	210.6103	221.4487	251.2394	295.6746	338.6784	394.6924	433.2339	506.6343	657.8613	702.8821	777.5313	788.1043	870.3245	900.1556	910.5954	926.5903	967.7601	990.3476	1032.1056	1067.9567	1077.007	1101.6801	1126.5315	1131.6169	1180.516	1187.1943	1206.9602	1258.778	1267.6479	1300.7644	1322.9904	1369.2098	1387.1372	1397.5387	1411.3425	1419.1702	1468.8214	1482.8364	1489.1099	1501.695	1505.8394	1510.8597	2999.5977	3017.7654	3033.5074	3037.4379	3049.1176	3073.6707	3080.4167	3092.735	3102.2112	3126.2198	3139.0266	3178.429
CC1OC1C1CC(C)O1	C[C@H]1O[C@H]1[C@H]1C[C@@H](C)O1	
InChI=1S/C7H12O2/c1-4-3-6(8-4)7-5(2)9-7/h4-7H,3H2,1-2H3	InChI=1S/C7H12O2/c1-4-3-6(8-4)7-5(2)9-7/h4-7H,3H2,1-2H3/t4-,5-,6-,7-/m1/s1
