18
gdb 42951	2.48158	1.99347	1.34341	2.5813	74.85	-0.2182	-0.0221	0.1961	971.3031	0.149787	-401.930415	-401.923358	-401.922414	-401.962016	28.222	
O	-0.0700988124	 0.082211377	-0.7109550243	-0.325268
C	-0.0773123332	 1.1913850478	-0.2397364041	 0.383568
C	-1.2767787483	 2.0719722657	-0.0173531449	-0.15034
C	-1.5723163446	 2.4204373408	 1.4367563956	-0.304524
C	-0.772236706	 3.3661473898	 0.5843440276	-0.021845
N	 0.6776086042	 3.3220631977	 0.6584637118	-0.102783
C	 1.3411565033	 3.1089879243	 1.9793728988	-0.166972
C	 1.8738305968	 1.7255226961	 1.5174366368	-0.257796
C	 1.1557197784	 2.0057487372	 0.1675621765	-0.078141
H	-2.0992261103	 2.0020307252	-0.7179313783	 0.113488
H	-2.6022590384	 2.679778555	 1.6577714666	 0.127173
H	-1.0823114267	 1.8527943712	 2.2200105574	 0.125595
H	-1.2152578985	 4.3175390972	 0.3060438654	 0.099721
H	 2.1124441105	 3.8590742673	 2.178339407	 0.109854
H	 0.6519733251	 3.0896474969	 2.8301465571	 0.105036
H	 2.9585976597	 1.6365959839	 1.4477628988	 0.117127
H	 1.4870399491	 0.8659180029	 2.0690701098	 0.117673
H	 1.8224083811	 2.070091244	-0.7012446875	 0.108434
81.953	187.753	228.2409	289.9356	446.785	474.8886	567.076	592.7804	672.5035	714.2371	762.2127	791.8036	830.5809	843.8637	903.6811	931.5388	945.9964	981.3767	1026.001	1036.1229	1053.8805	1078.9142	1090.8731	1112.6252	1138.3944	1170.9111	1191.2338	1209.9715	1222.4326	1242.2059	1257.2379	1302.3359	1315.1747	1323.9647	1349.7416	1482.9432	1490.7523	1517.2314	1834.3206	3025.7518	3038.7366	3076.3936	3080.469	3133.3385	3134.8708	3147.9068	3197.3537	3219.4101
O=C1C2CC2N2CCC12	O=C1[C@H]2C[C@H]2N2CC[C@@H]12	
InChI=1S/C7H9NO/c9-7-4-3-6(4)8-2-1-5(7)8/h4-6H,1-3H2	InChI=1S/C7H9NO/c9-7-4-3-6(4)8-2-1-5(7)8/h4-6H,1-3H2/t4-,5-,6+/m0/s1
