16
gdb 12892	2.78067	2.266	1.80659	1.0183	59.41	-0.2334	0.063	0.2964	793.2714	0.131144	-420.850724	-420.843612	-420.842668	-420.88157	27.873	
O	 0.1351449868	 1.3680857613	-0.1041404719	-0.434157
C	-0.0209844112	-0.0151785506	-0.0197507184	 0.059839
C	-0.4593099958	-0.73927738	 1.2398794701	-0.165389
C	-1.1651796538	 0.1061587161	 2.2787805144	-0.110269
O	-2.0929117363	 0.9190113505	 1.5397588641	-0.273713
C	-2.5418803962	 0.1594887615	 0.4157404151	-0.161317
C	-1.3575666976	-0.709768489	 0.0132178904	 0.293817
O	-1.6138391456	-1.8708506699	-0.7120966953	-0.461254
H	-0.5655241103	 1.7659393983	 0.432004261	 0.298801
H	 0.7478794337	-0.5203133569	-0.5964313227	 0.110054
H	 0.0474462341	-1.6494540016	 1.5382044484	 0.103108
H	-1.6935643402	-0.5279033784	 3.0057659671	 0.10879
H	-0.5117149815	 0.793460233	 2.8249795417	 0.120306
H	-3.3922948596	-0.4899848549	 0.6717402772	 0.110607
H	-2.861272334	 0.8769444365	-0.3477961655	 0.111569
H	-1.6168530928	-1.6454083159	-1.6488523957	 0.289206
194.1181	225.1232	245.82	270.4418	324.8544	348.6769	507.5585	529.5358	550.3912	584.1481	719.9789	734.321	850.6572	904.4842	922.5954	941.8715	1009.0677	1037.2074	1081.2466	1088.1589	1093.2051	1145.246	1196.5306	1228.6043	1246.1299	1268.5541	1316.1313	1331.8129	1337.5829	1363.2046	1425.1162	1479.9285	1508.8057	1522.397	2997.04	3001.703	3070.9128	3078.7793	3164.6241	3188.186	3732.7113	3798.2991
OC1C2COCC12O	O[C@H]1[C@H]2COC[C@@]12O	
InChI=1S/C5H8O3/c6-4-3-1-8-2-5(3,4)7/h3-4,6-7H,1-2H2	InChI=1S/C5H8O3/c6-4-3-1-8-2-5(3,4)7/h3-4,6-7H,1-2H2/t3-,4+,5+/m1/s1
