16
gdb 28803	3.27246	1.62887	1.11267	3.3319	70.72	-0.1821	0.0576	0.2397	1032.7038	0.128593	-434.097062	-434.08992	-434.088976	-434.128621	27.675	
O	 0.019028558	 1.3021906931	 0.2002248915	-0.431606
C	 0.0245618489	-0.0369240931	 0.0537141379	 0.423167
N	-0.0117795625	-0.7075491401	-1.0653576637	-0.385042
C	-0.0139708527	-2.0564524309	-0.6940612317	-0.206524
C	 0.0361364718	-2.148583061	 0.6630753301	 0.299397
N	 0.0695118929	-3.0744585256	 1.7293869701	-0.411061
C	-0.1919070276	-2.2604721585	 2.9412630359	-0.178771
C	 0.1720298521	-0.7845253662	 2.587013144	-0.194356
N	 0.0462331162	-0.8447361401	 1.1434849438	-0.074619
H	-0.0326014613	 1.6647366807	-0.6932866715	 0.310828
H	-0.044704861	-2.8410490839	-1.4317543046	 0.105306
H	 0.9662690557	-3.5457332679	 1.7895547447	 0.239266
H	-1.2592272256	-2.3182239547	 3.1794370866	 0.130375
H	 0.3683170842	-2.6413954942	 3.7969104242	 0.117327
H	-0.5214802984	-0.0679586453	 3.032344964	 0.135176
H	 1.1930752193	-0.5141051423	 2.8835489288	 0.121136
130.1915	166.9877	222.8591	282.1875	364.9155	409.5206	555.9175	609.6418	629.0958	651.5375	699.1747	747.5356	760.5541	792.1153	829.8855	912.1948	930.3017	1005.5357	1053.0159	1119.6066	1134.5042	1197.9083	1206.5643	1260.9277	1266.4747	1302.6094	1313.0688	1366.4548	1389.1765	1421.756	1499.7987	1520.3822	1570.8887	1601.3945	1639.9542	3027.5574	3049.5721	3104.7756	3121.8319	3268.7901	3506.8572	3801.9926
OC1=NC=C2NCCN12	Oc1ncc2NCCn12	
InChI=1S/C5H7N3O/c9-5-7-3-4-6-1-2-8(4)5/h3,6H,1-2H2,(H,7,9)	InChI=1S/C5H7N3O/c9-5-7-3-4-6-1-2-8(4)5/h3,6H,1-2H2,(H,7,9)
