19
gdb 101382	3.65701	0.99218	0.88982	1.4855	71.13	-0.2394	0.0547	0.2941	1333.7605	0.158417	-460.103453	-460.094669	-460.093725	-460.137371	33.195	
O	 0.0610130941	 1.3162822515	-0.332702121	-0.424858
C	-0.0687516034	-0.0277229208	 0.1322574272	-0.101199
C	-1.4970043702	-0.5275613076	-0.1025914217	 0.087955
O	-1.8759449519	-0.2894178269	-1.4453059159	-0.446347
C	-1.6199127487	-2.023231192	 0.1371587347	 0.13623
O	-1.2379726006	-2.4243740972	 1.4855284005	-0.314139
C	-2.4587824787	-3.1641490904	 1.6189014975	 0.108349
C	-3.6386600854	-2.2503922956	 1.5880365851	-0.298656
C	-2.9885029298	-2.6844691465	 0.2877798459	-0.14226
H	-0.3878035578	 1.8916115112	 0.2961769062	 0.289174
H	 0.6314566208	-0.6151794114	-0.4708924103	 0.117207
H	 0.210197899	-0.1298804256	 1.1874565322	 0.117312
H	-2.1701936662	 0.0079822438	 0.5906509768	 0.051927
H	-1.4534026763	 0.5470390058	-1.6840911615	 0.288961
H	-0.9992377343	-2.5526593434	-0.597171993	 0.088052
H	-2.4105194488	-4.1380661675	 2.091118282	 0.104841
H	-4.5990723307	-2.7204444105	 1.7763560639	 0.116773
H	-3.5444986178	-1.2353550266	 1.9626664449	 0.114972
H	-3.5218445833	-3.2064539701	-0.4935131334	 0.105704
61.7572	104.8907	135.2286	188.2202	268.093	337.1601	371.8556	403.7066	439.4275	500.4231	531.0905	599.7437	750.1071	773.6827	815.8816	894.5174	948.8446	964.9035	973.5503	995.6811	1019.2145	1042.2741	1049.6096	1068.8028	1074.4838	1084.2288	1120.7823	1134.846	1188.7883	1208.5647	1253.2162	1278.3448	1292.2155	1342.3064	1350.2617	1362.526	1379.696	1412.0986	1461.5146	1475.2611	1495.2221	2938.8647	3027.4209	3036.0534	3092.2949	3119.4505	3184.4906	3207.2112	3219.9288	3749.2651	3809.0442
OCC(O)C1OC2CC12	OC[C@@H](O)[C@H]1O[C@H]2C[C@@H]12	
InChI=1S/C6H10O3/c7-2-4(8)6-3-1-5(3)9-6/h3-8H,1-2H2	InChI=1S/C6H10O3/c7-2-4(8)6-3-1-5(3)9-6/h3-8H,1-2H2/t3-,4-,5+,6+/m1/s1
