19
gdb 98576	3.95514	0.92757	0.7679	4.169	80.34	-0.2386	-0.0436	0.195	1467.7513	0.158628	-423.049928	-423.040749	-423.039805	-423.084611	33.103	
O	-0.0015850454	 1.4149887439	 0.038470556	-0.394834
C	-0.0220160564	 0.0147827197	-0.0256926323	-0.183529
C	-1.4659042506	-0.4811271453	-0.0340346656	 0.27528
O	-2.4020482536	 0.2874419123	-0.0279588876	-0.298963
C	-1.6432796817	-1.9579038094	-0.0537273073	 0.234329
C	-2.8492789268	-2.5414081995	-0.0278835454	-0.120933
C	-2.766024437	-4.0417759406	-0.0075169068	-0.256561
C	-1.2809699942	-4.318163416	-0.3572256678	-0.214013
C	-0.5318369645	-2.9958160545	-0.046439451	-0.328335
H	 0.917062861	 1.6986468929	 0.0328663436	 0.290898
H	 0.4695427913	-0.3768047036	-0.9344799284	 0.107237
H	 0.4926223885	-0.4599183662	 0.8289601455	 0.105679
H	-3.7783077074	-1.9845861461	 0.0103293029	 0.123062
H	-3.0336455869	-4.4197341615	 0.9902081635	 0.117235
H	-3.4643087916	-4.5163432657	-0.7058756402	 0.113576
H	-0.8684622994	-5.1737528299	 0.1824828247	 0.102612
H	-1.1969239951	-4.5390692716	-1.4257618065	 0.111086
H	 0.2601601459	-2.7926755375	-0.7752718277	 0.105666
H	-0.0423373161	-3.0311445216	 0.9370292504	 0.110508
52.7807	99.2773	126.8557	154.5768	201.9061	246.193	293.7977	360.1752	403.2591	466.3841	578.3818	642.363	737.4499	813.6438	834.2257	872.8051	912.723	915.1941	954.7318	998.5635	1015.311	1042.5884	1070.0256	1128.0517	1154.5172	1187.3241	1227.5123	1232.185	1253.2207	1266.5359	1274.1296	1322.1071	1329.3405	1357.4551	1440.5014	1476.5912	1485.3082	1493.3584	1505.6465	1669.3374	1789.8818	2942.455	2962.6297	3003.896	3007.8006	3048.248	3057.7002	3066.8446	3106.0729	3211.4529	3836.3511
OCC(=O)C1=CCCC1	OCC(=O)C1=CCCC1	
InChI=1S/C7H10O2/c8-5-7(9)6-3-1-2-4-6/h3,8H,1-2,4-5H2	InChI=1S/C7H10O2/c8-5-7(9)6-3-1-2-4-6/h3,8H,1-2,4-5H2
