16
gdb 34936	2.85114	1.51552	1.23328	5.6695	73.15	-0.2745	0.0268	0.3013	1027.0527	0.124475	-400.706511	-400.699024	-400.69808	-400.738661	28.706	
N	 0.0495365256	-1.1627793517	 0.0654226196	-0.343446
C	 0.0838291858	-0.006834971	 0.0550813845	 0.309993
C	 0.0933404594	 1.4336964172	 0.0586596274	-0.190409
C	 0.5072784107	 2.2450543777	 1.2648955622	-0.064593
C	 1.6240443815	 1.5266743785	 2.0407079981	-0.351486
C	 2.4825996148	 1.6209095486	 0.7603270954	 0.466087
C	 3.9163039055	 1.8796893075	 0.6418561607	-0.269663
O	 3.340908974	 0.6228141892	 0.2546621178	-0.255894
C	 1.3586216995	 2.2736496438	-0.0084022238	-0.162376
H	-0.7303633445	 1.8663189166	-0.5020837141	 0.139271
H	-0.1412096302	 3.0167866286	 1.6572734323	 0.111211
H	 2.0272624386	 2.1162523505	 2.8665442064	 0.120055
H	 1.3902726672	 0.5179862527	 2.3901029333	 0.141821
H	 4.2943675963	 2.4911809483	-0.1768439086	 0.120214
H	 4.544025302	 1.8537925045	 1.5317394672	 0.121037
H	 1.456458334	 3.041906039	-0.7655827284	 0.108177
82.0532	138.6298	210.136	284.587	349.6333	392.2828	441.769	533.866	597.3871	643.2079	755.4477	791.0957	823.7163	865.8008	893.2438	914.8011	940.2935	974.816	984.9191	1015.9459	1069.982	1086.2764	1122.1745	1147.7215	1165.4462	1169.5639	1184.1397	1240.6649	1286.1295	1309.165	1401.2842	1444.0634	1482.4663	1538.7993	2355.4963	3070.4599	3079.2532	3126.4128	3157.7693	3166.2914	3190.8023	3210.0548
N#CC1C2CC3(CO3)C12	N#C[C@H]1[C@H]2C[C@]3(CO3)[C@@H]12	
InChI=1S/C7H7NO/c8-2-5-4-1-7(3-9-7)6(4)5/h4-6H,1,3H2	InChI=1S/C7H7NO/c8-2-5-4-1-7(3-9-7)6(4)5/h4-6H,1,3H2/t4-,5+,6-,7+/m1/s1
