17
gdb 39834	2.93891	1.76982	1.39889	3.2445	70.82	-0.2537	0.0543	0.308	946.3304	0.136932	-421.771	-421.764228	-421.763284	-421.802011	27.71	
C	-0.0711189031	 1.4399789296	 0.0341193294	-0.292653
C	 1.3079658334	 0.8306019791	 0.0242427388	-0.068934
C	 1.9457513	 0.6042097386	 1.3850478816	 0.027505
O	 1.1174809428	 0.9797487191	 2.4918116483	-0.249766
C	 1.17863828	-0.4083437582	 2.1263905495	-0.074509
C	 0.0422908999	-0.8673565276	 1.243657065	 0.474689
C	-0.4437768858	-2.2534081123	 1.289613428	-0.258139
O	-1.2109270379	-1.1912217655	 1.8544654619	-0.276623
C	 0.0796377043	-0.0610682162	-0.0350341091	-0.152992
H	-0.415295179	 1.8880761334	 0.9568258154	 0.148217
H	-0.4017252983	 1.9293839847	-0.8752520329	 0.111973
H	 1.9612158562	 0.963297391	-0.8292655652	 0.090112
H	 3.0114535681	 0.7619775959	 1.5225550274	 0.100415
H	 1.5859657013	-1.071362532	 2.8854038016	 0.101226
H	-0.8537793864	-2.7028506524	 0.3855213295	 0.115064
H	-0.0182208921	-2.9591894756	 2.0030449903	 0.114047
H	-0.2101950933	-0.5610879416	-0.9520179894	 0.090369
123.5803	215.7579	308.42	331.9055	414.6371	475.0136	539.9213	589.5929	685.8344	762.2455	799.9658	806.2111	853.5327	880.0661	893.594	908.6307	951.1653	966.1715	993.4596	1032.209	1053.2835	1080.21	1092.155	1102.3459	1108.3786	1129.4904	1166.1107	1193.8129	1254.6112	1257.5705	1312.1075	1320.8049	1349.1892	1403.8329	1452.4405	1475.7916	1530.9231	3073.4284	3144.8256	3146.4635	3157.9282	3160.191	3172.5189	3190.7965	3245.0465
C1C2C3OC3C3(CO3)C12	C1[C@H]2[C@H]3O[C@H]3[C@]3(CO3)[C@@H]12	
InChI=1S/C7H8O2/c1-3-4(1)7(2-8-7)6-5(3)9-6/h3-6H,1-2H2	InChI=1S/C7H8O2/c1-3-4(1)7(2-8-7)6-5(3)9-6/h3-6H,1-2H2/t3-,4+,5-,6-,7+/m1/s1
