21
gdb 122905	3.41894	0.64065	0.56183	1.8135	81.88	-0.2572	0.0306	0.2878	2002.6414	0.178455	-424.178388	-424.167096	-424.166152	-424.216167	39.22	
C	-0.4698115124	 1.3737897642	 0.5138285515	-0.38313
C	-0.4085490808	-0.1314610315	 0.783523484	-0.18319
C	 1.0110192924	-0.6187754883	 1.0371197118	-0.026982
O	 0.9776121787	-2.0108503358	 1.2804746814	-0.245214
C	 2.2421155827	-2.5698364939	 1.5214859584	-0.068402
C	 2.0658145771	-4.0674034715	 1.8213000837	-0.052877
O	 3.3359247807	-4.7107465944	 1.8580212888	-0.417561
C	 1.3026502416	-4.2938410174	 3.0492730855	 0.315311
C	 0.7341804064	-4.4780868056	 4.0922204505	-0.474422
H	 0.1221843266	 1.6471558161	-0.3666894032	 0.116459
H	-1.4986460994	 1.6985836368	 0.3345281537	 0.118261
H	-0.0841727283	 1.9485559563	 1.3632170553	 0.116421
H	-1.0237869716	-0.3888777355	 1.6530797698	 0.109877
H	-0.8203288292	-0.687833553	-0.0662166206	 0.107477
H	 1.6546491119	-0.3985958444	 0.1675231655	 0.084276
H	 1.4499149393	-0.0922224998	 1.9024324945	 0.085057
H	 2.9023115079	-2.4768649516	 0.6446459573	 0.097597
H	 2.7422412407	-2.0796131462	 2.3743250332	 0.082585
H	 1.5302700033	-4.5121231971	 0.9746472072	 0.128595
H	 3.7124241262	-4.5589456821	 2.7316604442	 0.288089
H	 0.2120517962	-4.6476350154	 5.0014331571	 0.201772
41.9587	51.1892	89.706	118.062	150.0329	184.7013	221.4555	234.06	250.4359	281.2592	314.3894	407.8362	499.8775	569.2824	597.8603	634.4574	671.3797	764.8284	829.6012	900.4818	911.7678	1015.7841	1030.5665	1057.9254	1091.7556	1098.3287	1156.6907	1171.0689	1190.7475	1234.2528	1261.6463	1268.808	1314.2011	1331.3075	1340.0726	1389.028	1413.684	1415.9713	1445.9642	1492.3786	1500.7843	1505.4511	1512.6675	1533.1382	2234.7464	2943.8888	2959.9024	2972.2457	3000.6989	3032.091	3040.6942	3054.0308	3073.0259	3100.305	3108.9325	3503.0753	3812.2068
CCCOCC(O)C#C	CCCOC[C@@H](O)C#C	
InChI=1S/C7H12O2/c1-3-5-9-6-7(8)4-2/h2,7-8H,3,5-6H2,1H3	InChI=1S/C7H12O2/c1-3-5-9-6-7(8)4-2/h2,7-8H,3,5-6H2,1H3/t7-/m0/s1
