17
gdb 56801	3.25848	1.17175	0.90337	1.8924	75.38	-0.2199	0.0106	0.2305	1265.7917	0.136049	-417.973374	-417.96453	-417.963586	-418.007402	32.532	
O	-0.4926580449	 1.0536181764	 0.1947428024	-0.420709
C	 0.0231511462	-0.2686068236	-0.0096045743	-0.188246
C	 0.7859684573	-0.374781626	-1.2492434827	 0.349854
C	 1.3869504846	-0.3978120738	-2.2884298156	-0.444777
C	 0.8025938817	-0.718022625	 1.2134706995	 0.368212
N	 1.8949576329	-1.3776956685	 1.199206327	-0.301267
C	 2.2243686121	-1.6384664183	 2.6136081588	-0.160531
C	 1.2806601184	-0.7228260779	 3.4428244611	-0.18575
N	 0.234456342	-0.4420419597	 2.4507531787	-0.337914
H	 0.2211456823	 1.6689336543	-0.0096517598	 0.291872
H	-0.8715808829	-0.9017450993	-0.0759131647	 0.142563
H	 1.9299415551	-0.4400148623	-3.2002704624	 0.203305
H	 2.0406977861	-2.6985773932	 2.8316104115	 0.113095
H	 3.2835096676	-1.4467215238	 2.8058652459	 0.111166
H	 0.8724528545	-1.2145610655	 4.3296314983	 0.112424
H	 1.7883730405	 0.1978838346	 3.7636792127	 0.100645
H	-0.2885072236	 0.4198178716	 2.5145845537	 0.246059
46.1159	124.5717	152.0022	188.7285	226.2777	288.6109	330.3938	395.0666	458.3003	554.2525	596.071	629.1031	639.3589	680.2862	743.7275	819.7335	863.642	912.0135	944.1311	992.479	1022.1492	1046.4871	1070.3441	1110.6623	1200.3003	1219.4239	1246.7626	1253.0471	1309.18	1314.4013	1355.6344	1411.2389	1461.9219	1496.6046	1528.3187	1713.0754	2245.9623	2999.11	3023.1608	3028.845	3079.6474	3089.5755	3504.3496	3603.5674	3799.9784
OC(C#C)C1=NCCN1	O[C@@H](C#C)[C]1[N]CCN1	
InChI=1S/C6H8N2O/c1-2-5(9)6-7-3-4-8-6/h1,5,9H,3-4H2,(H,7,8)	InChI=1S/C6H8N2O/c1-2-5(9)6-7-3-4-8-6/h1,5,9H,3-4H2,(H,7,8)/t5-/m0/s1
