15
gdb 127998	2.6445	1.67007	1.03017	2.9415	75.02	-0.2323	-0.0553	0.177	1097.2436	0.112982	-450.118358	-450.11001	-450.109066	-450.15172	30.12	
C	 0.0097461793	 1.3819942151	-0.1634717865	-0.32776
N	-0.0206275273	-0.0712743151	-0.2344133621	-0.33564
C	-1.08594509	-0.671994245	 0.1048647197	 0.405882
O	-2.1998107376	-0.0269648181	 0.5303964788	-0.289449
N	-3.3757102351	-0.7342323581	 0.9048545349	-0.116314
C	-3.2846825443	-2.0165642295	 0.8021738886	 0.100653
N	-2.2402386939	-2.8024526261	 0.3914733029	-0.354701
C	-1.1652939257	-2.1488506876	 0.0503392331	 0.361458
N	-0.0590287818	-2.7663773699	-0.372738414	-0.53546
H	 0.9939322087	 1.7348676734	-0.4777269452	 0.121627
H	-0.7508984234	 1.8333612007	-0.8134333226	 0.134797
H	-0.1861570076	 1.7413636689	 0.8549181685	 0.134816
H	-4.1943887333	-2.5349756248	 1.0931136309	 0.138696
H	-0.036734309	-3.7697217314	-0.4358226709	 0.27506
H	 0.7327573811	-2.1924112024	-0.6180185961	 0.286334
61.5716	115.5648	196.417	204.9471	212.5449	322.9897	340.7486	515.1519	530.7634	552.4552	569.2076	589.5862	653.4143	727.3554	798.8401	922.6972	956.8567	962.4377	1018.3769	1054.8544	1108.4091	1173.8802	1215.8278	1266.3763	1351.6231	1437.9446	1456.6499	1487.3168	1495.2762	1566.5349	1625.105	1674.163	1732.5949	3011.1972	3063.459	3118.3103	3180.239	3587.0609	3734.7584
CN=C1ON=CN=C1N	C[N]C1=C([N]C=NO1)N	
InChI=1S/C4H6N4O/c1-6-4-3(5)7-2-8-9-4/h2H,1H3,(H2,5,7,8)	InChI=1S/C4H6N4O/c1-6-4-3(5)7-2-8-9-4/h2H,1H3,(H2,5,7,8)
