27
gdb 60388	3.48231	0.63703	0.58469	0.0978	97.35	-0.2603	0.0863	0.3466	2073.6723	0.250492	-353.560132	-353.548733	-353.547789	-353.597505	42.085	
C	-0.04076044	 1.4956180093	-0.3234810515	-0.387975
C	 0.0542920677	 0.0118087979	 0.0579653113	 0.04112
C	 0.7752440691	-0.151835363	 1.4038775947	-0.380215
C	-1.342790501	-0.6345853714	 0.0527819018	-0.153446
C	-1.3608093488	-2.1612504119	 0.2208863755	-0.224257
C	-2.761654582	-2.7321461601	 0.1182482371	 0.016105
C	-3.372273704	-3.0707646214	-1.2234422016	-0.291412
C	-3.0542867376	-4.1726453729	-0.2393882877	-0.005986
C	-1.9727928111	-5.1924809381	-0.524451744	-0.403255
H	 0.9497878282	 1.9609713561	-0.3646941448	 0.106562
H	-0.5152863194	 1.6271504342	-1.301759775	 0.107836
H	-0.6365938982	 2.0507853754	 0.4112206907	 0.109883
H	 0.6575288681	-0.4936629359	-0.7110569446	 0.067321
H	 0.9254117738	-1.2029880207	 1.6665444599	 0.113259
H	 1.7605674825	 0.3258790493	 1.3816245468	 0.107662
H	 0.1998927074	 0.3154352699	 2.2127567012	 0.108916
H	-1.9517661887	-0.1743903709	 0.844877443	 0.085741
H	-1.8427394473	-0.3866586978	-0.8926665858	 0.091955
H	-0.7137939462	-2.6105729527	-0.5424859955	 0.089714
H	-0.9274030812	-2.4375453943	 1.1905002212	 0.095856
H	-3.4506962888	-2.2984079156	 0.8407164194	 0.075554
H	-4.408612873	-2.8150163212	-1.4166363344	 0.104434
H	-2.7281296458	-2.9866455726	-2.0946840366	 0.103117
H	-3.9166374903	-4.5943561922	 0.2720076753	 0.078271
H	-1.1364701815	-4.7606906183	-1.0815302314	 0.115143
H	-1.5691097381	-5.6190413476	 0.40106213	 0.113862
H	-2.3697188435	-6.0193993335	-1.124027035	 0.114235
36.2384	65.3855	96.8191	116.8385	183.221	216.895	224.9862	248.4024	253.7492	323.1039	371.4565	402.7905	426.723	444.7037	528.9671	749.5576	771.4593	810.6376	840.9346	874.8746	894.3397	923.6227	937.0278	946.0083	965.7143	990.648	1029.8234	1051.6833	1066.734	1097.4794	1113.3952	1142.5984	1154.1238	1192.8177	1199.4491	1200.3066	1241.1473	1252.9495	1284.1857	1322.5774	1347.1898	1369.2256	1386.8366	1397.4184	1399.8489	1419.0865	1421.2171	1430.6778	1474.8017	1487.321	1489.4338	1494.2842	1496.133	1501.2813	1504.9435	1507.0481	1511.2012	2988.7879	3001.8315	3018.6357	3021.6112	3026.8573	3028.4679	3037.3439	3062.3789	3083.6315	3084.9462	3091.2165	3096.124	3102.9584	3105.043	3116.5701	3119.0272	3132.6253	3202.7517
CC(C)CCC1CC1C	CC(C)CC[C@H]1C[C@H]1C	
InChI=1S/C9H18/c1-7(2)4-5-9-6-8(9)3/h7-9H,4-6H2,1-3H3	InChI=1S/C9H18/c1-7(2)4-5-9-6-8(9)3/h7-9H,4-6H2,1-3H3/t8-,9+/m1/s1
