20
gdb 78293	2.77351	1.35112	1.11537	2.2962	80.14	-0.2141	0.0724	0.2865	1188.5363	0.168687	-403.066213	-403.057126	-403.056182	-403.09922	35.4	
C	-0.0372782198	 1.4887853713	-0.000460272	-0.417603
C	-0.0254585619	-0.0198416944	-0.0776690253	 0.010393
C	 0.7476170882	-0.6888818097	-1.1470500282	-0.129136
N	 1.284608297	-0.622182637	 0.2606626479	-0.189941
C	 1.2295970415	-2.1481189175	 0.3046276926	 0.301033
C	 2.3351610192	-2.8221676562	 1.0530036248	-0.472908
C	-0.1156791014	-2.7850365284	 0.0013390399	-0.426046
C	 0.736065807	-2.2318370165	-1.113150633	 0.338306
O	 1.2317641961	-2.9929011138	-2.1544318295	-0.456194
H	 0.8995363123	 1.9038780447	-0.3816459232	 0.129417
H	-0.8658028199	 1.8987207231	-0.5877783518	 0.115692
H	-0.1556032722	 1.8190617721	 1.0364536848	 0.124911
H	-0.9279896878	-0.4880040896	 0.3009286359	 0.084537
H	 1.2476681362	-0.1480055809	-1.9460604966	 0.096816
H	 2.2007054549	-2.7062041526	 2.1348121423	 0.122473
H	 2.3639786754	-3.8912958517	 0.8240706441	 0.1221
H	 3.3009396608	-2.3827526108	 0.7857877661	 0.131798
H	-0.0572141931	-3.8688304734	 0.0550566068	 0.116834
H	-1.081779658	-2.3896946226	 0.2971824761	 0.110961
H	 0.4973011255	-3.2384751361	-2.7285264218	 0.286557
159.1511	175.7721	183.8858	212.9025	216.4592	246.2333	287.6287	355.3549	399.2456	438.0248	510.1795	538.3008	560.293	727.1727	733.7221	786.1883	808.7733	855.8027	914.6443	952.954	971.0875	998.1082	1025.0976	1032.8289	1044.0344	1104.3197	1138.8244	1149.6931	1170.7436	1188.8957	1220.3508	1254.1197	1293.873	1322.0887	1398.3465	1410.3988	1421.7675	1446.9311	1474.6811	1489.5976	1493.9778	1497.353	1526.9211	3030.5276	3036.8106	3094.4111	3102.9632	3115.5396	3117.1328	3119.7756	3146.6169	3162.4437	3199.0036	3783.0712
CC1C2N1C1(C)CC21O	C[C@H]1[C@H]2N1[C@@]1(C)C[C@@]21O	
InChI=1S/C7H11NO/c1-4-5-7(9)3-6(7,2)8(4)5/h4-5,9H,3H2,1-2H3	InChI=1S/C7H11NO/c1-4-5-7(9)3-6(7,2)8(4)5/h4-5,9H,3H2,1-2H3/t4-,5+,6-,7+,8?/m0/s1
