20
gdb 89286	2.15461	1.81522	1.17341	2.9086	80.3	-0.2546	0.0273	0.2819	1120.2012	0.170396	-403.150176	-403.141448	-403.140504	-403.183299	33.679	
C	-0.581642775	 1.3789485427	 0.0684553854	-0.404013
C	 0.0745146601	 0.0079930723	 0.0128504713	 0.027798
C	 1.4080745289	-0.1605007759	-0.7876304317	-0.305314
C	 2.0797121664	-0.7755301351	 0.4634243776	 0.446625
C	 2.9012379246	-2.0303489119	 0.3859651958	-0.482883
O	 2.746237609	 0.2795076691	 1.2498278887	-0.298329
C	 1.6211231433	 0.4643422728	 2.0326414591	 0.430973
N	 1.4329465777	 1.2297936762	 3.0101252972	-0.556586
C	 0.781505187	-0.5486973802	 1.296902027	-0.237806
H	 0.1161397322	 2.1418746007	 0.4261039174	 0.131893
H	-0.9324550401	 1.6775891807	-0.9254060011	 0.113282
H	-1.4427053334	 1.3783180219	 0.7446400513	 0.124991
H	-0.6534966822	-0.7352221004	-0.3254054682	 0.082211
H	 1.3365351965	-0.8371673538	-1.6427278672	 0.10477
H	 1.8849273115	 0.7684768908	-1.1087558338	 0.113677
H	 3.8205855339	-1.8510170341	-0.1822803506	 0.134273
H	 3.1780992827	-2.3788431884	 1.3851872168	 0.131927
H	 2.3406362647	-2.8235086619	-0.1184199666	 0.124239
H	 2.2710637102	 1.7783005081	 3.2133321273	 0.223776
H	 0.2673134022	-1.3026071635	 1.8905439041	 0.094495
81.4955	139.5303	212.9985	218.7338	223.5109	292.5506	366.4346	378.2166	409.2395	470.7695	595.2388	620.7801	692.0647	780.5922	830.6207	866.5458	870.0027	887.6614	911.6483	926.3406	969.6233	999.9469	1010.2867	1068.0238	1106.6384	1135.8093	1162.8301	1165.8549	1204.7558	1231.6996	1247.6641	1280.0992	1322.8541	1332.4038	1365.2	1414.5606	1417.2787	1471.1305	1481.5963	1489.966	1493.0642	1493.9578	1812.7686	3033.867	3035.4024	3054.3553	3064.988	3099.9804	3104.4067	3112.0388	3116.1971	3122.4782	3131.538	3466.8165
CC1CC2(C)OC(=N)C12	C[C@H]1C[C@@]2(C)O[C]([NH])[C@@H]12	
InChI=1S/C7H11NO/c1-4-3-7(2)5(4)6(8)9-7/h4-5,8H,3H2,1-2H3	InChI=1S/C7H11NO/c1-4-3-7(2)5(4)6(8)9-7/h4-5,8H,3H2,1-2H3/t4-,5+,7+/m0/s1
