19
gdb 52715	3.97839	0.65989	0.60387	3.2727	81.63	-0.2506	0.0356	0.2861	1867.8177	0.156145	-422.9733	-422.962753	-422.961809	-423.011449	36.069	
C	-0.0066188184	 1.4603923813	 0.0246712776	-0.500202
C	 0.0351172251	 0.0057411832	-0.0117269524	 0.104876
C	 0.0807244901	-1.1981496948	-0.0223598589	 0.021539
C	 0.0926398469	-2.6603621754	-0.0816448382	-0.054298
O	-1.1833523749	-3.2164113134	 0.2441138133	-0.424218
C	 0.5839058303	-3.1652947771	-1.4559674731	-0.227358
C	 0.6926949034	-4.669224963	-1.4873994085	 0.093485
C	 1.7238704069	-5.357086642	-2.2719373257	-0.184025
O	 1.8528586837	-5.2262990236	-0.8556775396	-0.239942
H	 1.0045980476	 1.8817874851	 0.0272508971	 0.153508
H	-0.5328432525	 1.8684059877	-0.845220859	 0.148424
H	-0.5179145229	 1.8209524205	 0.9238484754	 0.152926
H	 0.7730098902	-3.0541890945	 0.6830316042	 0.131574
H	-1.8473817338	-2.6939810505	-0.2190464275	 0.282046
H	-0.1174821978	-2.8232330075	-2.2279623416	 0.098551
H	 1.5603009801	-2.7210920299	-1.6755499215	 0.113245
H	-0.2290195403	-5.2043393158	-1.2629022067	 0.106047
H	 1.5463571379	-6.3684107941	-2.6355335058	 0.113702
H	 2.4285509286	-4.7711764861	-2.8616717691	 0.110117
14.0612	60.8005	75.7363	83.3946	154.84	184.5531	277.9016	290.6203	334.0427	349.1091	405.1666	465.295	536.8607	556.802	770.5241	809.3435	849.7591	900.8468	956.4521	992.7194	1051.6976	1054.3376	1068.8189	1098.8271	1106.3957	1158.4642	1167.6764	1173.5456	1220.7028	1270.7357	1296.5289	1300.4384	1361.4724	1413.0248	1420.3866	1443.2926	1462.4304	1476.4543	1478.5587	1530.7194	2366.2362	3027.3101	3028.8085	3045.8136	3079.2135	3086.9759	3089.9975	3091.4738	3127.9463	3165.0963	3807.4996
CC#CC(O)CC1CO1	CC#C[C@@H](O)C[C@H]1CO1	
InChI=1S/C7H10O2/c1-2-3-6(8)4-7-5-9-7/h6-8H,4-5H2,1H3	InChI=1S/C7H10O2/c1-2-3-6(8)4-7-5-9-7/h6-8H,4-5H2,1H3/t6-,7+/m1/s1
