19
gdb 80363	2.26861	1.69201	1.18851	2.9917	79.54	-0.2649	0.0297	0.2946	1093.5374	0.15984	-382.049668	-382.040902	-382.039958	-382.082615	33.762	
C	-0.0672634907	 1.5472231478	-0.1158812282	-0.426721
C	 0.0777610014	 0.0475603866	 0.0424115446	-0.01115
C	 1.3267340106	-0.7575831034	-0.1877250669	-0.064095
C	 2.5728642972	-0.0356827385	 0.3382424588	-0.275032
C	 1.9547665359	-0.0547007425	 1.782121747	 0.154633
N	 2.6648150246	-1.0233549873	 2.6195436399	-0.540208
C	 1.804543472	 1.2440407541	 2.4630229929	 0.228999
N	 1.7169006952	 2.2445483273	 3.0380908443	-0.357976
C	 0.6819429331	-0.699717294	 1.2030298956	-0.087599
H	 0.8187621872	 2.10141225	 0.1987170949	 0.13699
H	-0.2611194668	 1.7961469359	-1.1648224273	 0.116384
H	-0.9076755282	 1.9202425172	 0.4781764407	 0.129201
H	-0.7979263485	-0.4918206957	-0.3169615446	 0.094649
H	 1.3558003564	-1.5921969734	-0.8767183599	 0.092704
H	 3.4705981402	-0.6544265947	 0.3222065658	 0.123921
H	 2.7941478205	 0.9445341009	-0.0905461505	 0.112737
H	 3.5731061301	-0.6472923459	 2.8817319401	 0.239657
H	 2.1538032959	-1.1625339152	 3.4883376696	 0.239323
H	 0.1419182739	-1.4679370794	 1.7441054531	 0.093583
115.741	135.5269	191.7943	216.8868	250.606	266.4911	308.2618	392.6841	451.5597	499.9365	549.6111	592.9472	650.6787	721.3234	782.8235	824.9383	883.0973	891.6091	925.8408	969.4666	982.4116	1000.1016	1009.2723	1068.4461	1084.1751	1111.349	1142.3168	1181.2206	1211.5078	1218.6939	1260.2565	1284.9629	1316.2856	1347.4801	1419.5847	1444.7878	1474.3461	1495.1398	1503.6372	1657.7011	2333.2779	3040.0321	3070.7534	3098.6141	3114.1322	3134.3238	3136.7317	3176.9764	3193.048	3474.8979	3553.3429
CC1C2CC(N)(C#N)C12	C[C@H]1[C@H]2C[C@@](N)(C#N)[C@@H]12	
InChI=1S/C7H10N2/c1-4-5-2-7(9,3-8)6(4)5/h4-6H,2,9H2,1H3	InChI=1S/C7H10N2/c1-4-5-2-7(9,3-8)6(4)5/h4-6H,2,9H2,1H3/t4-,5+,6-,7+/m0/s1
