17
gdb 12470	3.39825	1.89209	1.29391	4.4033	71.8	-0.2373	-0.0247	0.2126	936.1724	0.145096	-363.907963	-363.900712	-363.899768	-363.939689	27.498	
O	 0.01210068	-0.1414396101	 0.1303916043	-0.382829
C	-0.0250409886	 1.0708728747	-0.0310070125	 0.36231
N	-1.2182138204	 1.7392676992	 0.0198586159	-0.319016
C	-1.4984445911	 3.1376306195	-0.2488536606	-0.159371
C	-0.6670916095	 4.0972970981	 0.6097252599	-0.202474
C	 0.7471042077	 4.3201002392	 0.0715954477	-0.253164
C	 1.5669265392	 3.1041246976	-0.2461096214	-0.057665
C	 1.2433686219	 1.8075177718	-0.2951230839	-0.123426
H	-1.9990041834	 1.1181597973	 0.1678292412	 0.244751
H	-1.3562951889	 3.3758283019	-1.3140037235	 0.110512
H	-2.5607576203	 3.2840399694	-0.0355829184	 0.113308
H	-1.1745998572	 5.0672224989	 0.6574023419	 0.101753
H	-0.630655395	 3.7033037087	 1.6311524235	 0.11567
H	 0.6976579878	 4.9309256197	-0.8433093028	 0.119094
H	 1.3139068482	 4.9362767421	 0.7829103096	 0.116673
H	 2.605125463	 3.3399541343	-0.4793305325	 0.10143
H	 2.0297538266	 1.0962707476	-0.5292227186	 0.112445
73.593	129.0111	261.3496	343.3923	349.5433	387.9051	487.7652	528.7163	585.7181	649.0923	713.2981	795.3273	828.2282	860.4936	897.4432	911.5619	987.76	1035.9325	1080.6222	1087.7347	1139.1055	1215.6379	1242.8994	1271.1936	1305.1381	1351.837	1386.9309	1400.6673	1407.8225	1434.5963	1463.7823	1469.1478	1483.9094	1507.5383	1705.5836	1754.7284	2988.8427	2994.1805	3026.9383	3041.7682	3084.095	3086.6691	3126.8086	3181.9661	3623.5199
O=C1NCCCC=C1	O=C1NCCCC=C1	
InChI=1S/C6H9NO/c8-6-4-2-1-3-5-7-6/h2,4H,1,3,5H2,(H,7,8)	InChI=1S/C6H9NO/c8-6-4-2-1-3-5-7-6/h2,4H,1,3,5H2,(H,7,8)
