18
gdb 26186	3.9633	0.97082	0.93977	1.198	74.62	-0.2126	0.0101	0.2227	1329.2418	0.147223	-439.131419	-439.122428	-439.121484	-439.165714	33.129	
C	-0.0637586828	 1.5151224132	-0.0463196623	-0.39123
C	-0.0480073357	-0.0229878632	 0.0335227885	-0.076824
C	 0.7079755835	-0.51232492	 1.2831715263	-0.391216
C	-1.4350165448	-0.5804287991	-0.0110958813	 0.408939
N	-1.9568949117	-1.3700741904	-0.9047850328	-0.396388
C	-3.25158952	-1.5774247973	-0.471619474	 0.317122
O	-4.1056342951	-2.3578589687	-1.1599323098	-0.43022
C	-3.4682470724	-0.8984200063	 0.680845371	-0.157935
O	-2.2872888005	-0.2497480066	 0.9811579753	-0.183687
H	 0.9593216689	 1.9032631007	-0.0512203338	 0.116414
H	-0.5652856287	 1.8599370283	-0.9551121032	 0.125196
H	-0.58655	 1.9430697283	 0.8142747988	 0.130883
H	 0.4480221962	-0.4190303398	-0.8581937111	 0.107211
H	 0.7534572181	-1.6046334062	 1.3165990141	 0.125256
H	 1.7319914546	-0.1266369932	 1.2798517728	 0.11643
H	 0.2154221177	-0.16398691	 2.1959639878	 0.130822
H	-3.620239471	-2.6810497421	-1.9286279342	 0.305918
H	-4.2940045364	-0.7680108675	 1.354425228	 0.143309
31.5812	126.0936	179.9118	218.5269	254.0621	292.2398	299.662	365.0515	403.8154	417.1854	518.8416	635.3937	655.648	708.2562	728.9016	775.1787	884.1364	934.6302	966.787	978.3163	1027.2077	1065.1112	1118.8949	1128.1331	1172.6757	1195.6561	1268.7274	1335.806	1339.1874	1352.1934	1395.8789	1404.1292	1422.8872	1487.3886	1490.4254	1500.5606	1510.5647	1603.738	1700.8345	3037.9183	3041.2565	3065.416	3109.9715	3114.2403	3115.8269	3120.8585	3317.1172	3806.6243
CC(C)C1=NC(O)=CO1	CC(C)c1nc(O)co1	
InChI=1S/C6H9NO2/c1-4(2)6-7-5(8)3-9-6/h3-4,8H,1-2H3	InChI=1S/C6H9NO2/c1-4(2)6-7-5(8)3-9-6/h3-4,8H,1-2H3
