21
gdb 72747	2.47009	1.6802	1.50461	1.1872	81.93	-0.2379	0.0773	0.3153	1021.97	0.182851	-387.050924	-387.042684	-387.041739	-387.083593	32.934	
O	-0.0734587919	 1.4432006024	 0.0591005015	-0.484592
C	-0.040293965	 0.044372536	-0.0109895022	 0.362152
C	 0.3997575462	-0.7077386434	 1.2900127847	-0.281124
C	-1.0431420826	-1.2890479665	 1.445813075	-0.3364
C	-1.3854139992	-0.7481235901	 0.0561412035	 0.359803
C	-2.6860067107	-0.2515363571	-0.5775477413	-0.332828
C	-2.1944455019	-0.7909709252	-1.9588004667	-0.220914
C	-0.956614335	-1.4562932197	-1.2804650064	-0.056657
C	 0.360797521	-0.6350822192	-1.3492059042	-0.31745
H	 0.832988134	 1.7704493993	 0.0352217939	 0.275311
H	 1.1858825937	-1.4535405824	 1.1441018633	 0.093079
H	 0.7005000772	-0.0251742732	 2.0880615909	 0.100166
H	-1.1308168813	-2.3704005355	 1.5866642957	 0.093302
H	-1.6038404626	-0.7918281024	 2.2436383483	 0.104257
H	-3.5671386253	-0.7868549519	-0.2095848843	 0.096415
H	-2.8762719802	 0.8224411115	-0.4993830482	 0.108705
H	-2.8782973558	-1.4933015711	-2.4409154298	 0.098735
H	-1.9350737534	-0.0149996726	-2.6842435729	 0.100647
H	-0.885135389	-2.5419749695	-1.369937454	 0.056602
H	 0.4032924254	 0.0576120898	-2.1957737134	 0.093728
H	 1.2905041863	-1.2121851791	-1.3187444734	 0.087061
62.6067	169.1081	191.5483	206.1363	319.6902	381.8428	392.1645	463.2881	499.6094	582.7026	661.0119	707.8139	747.4387	787.7464	812.2749	839.2971	880.6997	917.9309	930.2723	943.7316	955.159	1001.4176	1021.4143	1037.4874	1120.7274	1149.3463	1164.4704	1178.3924	1181.825	1206.6306	1214.3601	1234.2898	1241.924	1247.3156	1259.8596	1273.5477	1284.9747	1300.9444	1324.5906	1365.5727	1462.3396	1468.8086	1475.7857	1486.4301	1492.6025	3035.5543	3043.1499	3045.984	3056.1605	3057.5822	3081.0447	3088.8883	3090.2937	3094.4587	3114.3052	3118.2657	3789.4281
OC12CCC11CCC1C2	O[C@@]12CC[C@]31CC[C@H]3C2	
InChI=1S/C8H12O/c9-8-4-3-7(8)2-1-6(7)5-8/h6,9H,1-5H2	InChI=1S/C8H12O/c9-8-4-3-7(8)2-1-6(7)5-8/h6,9H,1-5H2/t6-,7+,8+/m0/s1
