23
gdb 105511	2.02291	1.31498	1.12856	3.2933	80.93	-0.2347	0.0678	0.3025	1267.5417	0.204088	-425.400779	-425.390376	-425.389432	-425.435929	38.403	
C	 0.0531280722	 1.5277540392	 0.159366217	-0.406436
C	-0.0941408827	 0.0123083369	-0.0539224915	-0.03443
C	-1.5775313717	-0.3913026103	-0.0739102326	-0.406426
C	 0.6903213298	-0.5052067721	-1.2800084222	 0.303582
C	 0.1977590298	 0.0747311543	-2.6025423567	-0.164703
O	 0.9838005041	-0.4652599668	-3.6570151066	-0.417291
C	 2.2313282306	-0.4738969425	-1.0878334192	-0.118296
O	 2.2973688265	-1.9080757072	-0.9793556703	-0.277552
C	 0.8958073736	-2.0448206432	-1.279239361	-0.118312
H	 1.102728935	 1.8388535426	 0.1607345804	 0.117429
H	-0.465402031	 2.1008646574	-0.6167944243	 0.114749
H	-0.3792548747	 1.8211908271	 1.1213347715	 0.114759
H	 0.3651065962	-0.4832830869	 0.8126036788	 0.084278
H	-2.1334220626	 0.1379187019	-0.8553567506	 0.114746
H	-1.7051800724	-1.4656524348	-0.2410273305	 0.117437
H	-2.0519305637	-0.1474155283	 0.8820757961	 0.114759
H	-0.8648371645	-0.173627418	-2.7459117998	 0.090233
H	 0.2795679727	 1.1721042582	-2.5819681548	 0.090232
H	 0.669618066	-0.0957653744	-4.4868030278	 0.289999
H	 2.7918080534	-0.1041520116	-1.9532784777	 0.107796
H	 2.5909679076	 0.021895264	-0.1771468455	 0.087807
H	 0.3625248695	-2.5993036537	-0.4965127898	 0.087813
H	 0.7313995164	-2.5277523718	-2.248559223	 0.107829
83.8057	94.1519	110.5235	205.5773	210.4399	240.2772	250.6157	255.7291	314.0463	319.3964	322.9795	453.7274	461.3807	534.4146	642.1349	811.4045	866.2315	890.6689	927.5471	929.8384	963.1106	985.9511	993.1088	1047.6456	1052.029	1099.6465	1109.433	1132.8728	1170.4039	1173.9057	1175.1739	1197.9947	1260.3442	1285.7156	1288.4913	1314.1808	1356.5851	1371.1325	1394.0586	1401.9319	1423.5479	1454.9235	1485.7084	1497.0803	1501.5732	1506.6806	1510.1607	1516.4557	1530.4793	2976.2448	3004.8581	3006.2669	3009.0174	3020.1732	3031.0333	3034.9008	3068.1576	3069.7384	3095.3137	3100.946	3101.1793	3102.587	3838.4365
CC(C)C1(CO)COC1	CC(C)C1(CO)COC1	
InChI=1S/C7H14O2/c1-6(2)7(3-8)4-9-5-7/h6,8H,3-5H2,1-2H3	InChI=1S/C7H14O2/c1-6(2)7(3-8)4-9-5-7/h6,8H,3-5H2,1-2H3
