21
gdb 40823	3.86912	1.0353	0.87435	1.8034	78.84	-0.2566	0.091	0.3476	1359.5482	0.184336	-424.216636	-424.208408	-424.207464	-424.249818	31.918	
C	-0.1452090544	 1.4121997124	-0.146540365	-0.273409
C	 1.2717652232	 0.9758469197	 0.1263584232	-0.270223
C	 0.1739288917	-0.0503306878	 0.0434351101	 0.016812
C	-0.2889746116	-0.7606685901	 1.2860718006	 0.114803
C	-1.6972495863	-1.3595463288	 1.1618133113	-0.210747
C	-1.9950519277	-2.2198608805	 2.3921959028	-0.095505
O	-0.9582922681	-3.1700045535	 2.5982654788	-0.232575
C	 0.2855933943	-2.5321998384	 2.7143703949	 0.018271
O	 0.6434789553	-1.8086277152	 1.56832855	-0.254148
H	-0.6789680045	 1.9246011755	 0.6476234086	 0.109981
H	-0.4015998373	 1.755081485	-1.1424823569	 0.113329
H	 1.9920660507	 1.0204217653	-0.6824846418	 0.114287
H	 1.6896990999	 1.1866426538	 1.1049400352	 0.114916
H	 0.1577900037	-0.6731855697	-0.846611929	 0.088488
H	-0.280484848	-0.0473508478	 2.1316289608	 0.054313
H	-2.4420230576	-0.5628969938	 1.0583741151	 0.099504
H	-1.7387665306	-1.9848172249	 0.263089608	 0.109771
H	-2.096398421	-1.5789447024	 3.2855670545	 0.086067
H	-2.9220104149	-2.7876498975	 2.2775010929	 0.111298
H	 0.2758617011	-1.857094881	 3.5936986322	 0.068948
H	 1.0358793922	-3.3141678401	 2.8480534637	 0.115816
71.2183	112.8386	162.1533	258.0219	273.8973	363.4768	425.812	437.9245	500.986	507.3237	662.0835	771.604	829.4524	845.1433	868.1431	907.3416	916.3018	951.9307	984.8963	1002.8112	1052.5911	1057.8856	1064.6952	1078.2158	1117.1765	1124.9738	1135.4026	1190.8259	1196.9126	1224.1428	1231.4699	1236.5402	1270.804	1299.9337	1334.8721	1353.5866	1381.3924	1399.2305	1437.9845	1449.0584	1468.5601	1470.8601	1496.2485	1506.2944	1510.148	2901.0578	2926.9594	2957.4686	3041.227	3089.1007	3094.2929	3110.7141	3130.1175	3137.2168	3148.2979	3209.2994	3225.145
C1CC1C1CCOCO1	C1CC1[C@H]1CCOCO1	
InChI=1S/C7H12O2/c1-2-6(1)7-3-4-8-5-9-7/h6-7H,1-5H2	InChI=1S/C7H12O2/c1-2-6(1)7-3-4-8-5-9-7/h6-7H,1-5H2/t7-/m1/s1
