15
gdb 49463	2.9846	1.28592	1.14064	3.6016	66.49	-0.2487	-0.0312	0.2175	1076.0565	0.11378	-453.979225	-453.971577	-453.970633	-454.011776	28.585	
O	-0.0631338009	 0.0565544427	-0.4976170753	-0.271157
C	-0.0212532383	 1.1732902506	-0.035690179	 0.145011
C	 1.2173240616	 1.9758377544	 0.0268617317	-0.157278
C	 1.247749056	 3.5103356661	-0.1586259248	-0.039483
N	 0.0601678644	 4.2783881907	 0.0261521144	-0.331014
C	-0.4701058592	 4.1101971601	 1.3051156598	 0.414782
O	-1.552798216	 4.470131442	 1.6984596455	-0.391377
N	 0.5065551964	 3.4297624804	 2.0312852461	-0.330803
C	 1.5480089181	 2.9409148526	 1.1883962588	-0.039291
H	-0.9365638555	 1.652192397	 0.370459597	 0.094212
H	 2.0849307576	 1.4675316992	-0.381530656	 0.116769
H	 2.0115932377	 3.9238678103	-0.8062850648	 0.128691
H	-0.572351441	 4.5079605908	-0.7226129705	 0.266067
H	 0.234920933	 2.9842870702	 2.8921406646	 0.266158
H	 2.5483236461	 2.9057762827	 1.6031787526	 0.128713
98.2003	101.8469	183.2578	229.0178	408.3345	431.2228	451.5268	481.9611	497.7384	609.0311	711.2749	752.173	760.1544	776.7827	836.913	953.7056	982.5911	993.7706	1006.6819	1052.7954	1081.4952	1148.6247	1150.2679	1215.5829	1242.8068	1335.5463	1367.8216	1374.4033	1396.3349	1426.4917	1458.653	1800.7273	1861.9331	2911.4602	3171.9885	3176.4046	3186.5426	3657.8967	3659.8822
O=CC1C2NC(=O)NC12	O=C[C@H]1[C@H]2NC(=O)N[C@@H]12	
InChI=1S/C5H6N2O2/c8-1-2-3-4(2)7-5(9)6-3/h1-4H,(H2,6,7,9)	InChI=1S/C5H6N2O2/c8-1-2-3-4(2)7-5(9)6-3/h1-4H,(H2,6,7,9)/t2-,3+,4-
