18
gdb 72672	2.39193	1.491	1.43909	2.1749	78.49	-0.2278	0.0186	0.2464	1042.4552	0.14605	-401.871196	-401.862518	-401.861574	-401.904208	33.212	
C	-0.1593288019	 1.550465995	-0.0261105073	-0.4771
C	 0.0131875937	 0.0591593709	 0.0327903199	 0.372754
C	-1.2121912392	-0.8765661361	 0.1337368954	-0.207305
N	-0.4844174932	-1.7568891819	 1.0969553836	-0.367858
C	 0.6511623225	-0.7897222747	 1.1953714694	 0.094087
C	 1.7361587023	-1.1271637437	 0.1506298592	-0.102961
O	 1.0059130365	-0.4376934861	-0.8908430609	-0.331051
C	 1.0106057314	-0.3105087738	 2.4994217369	 0.212277
C	 1.2972066891	 0.0899099021	 3.5977295627	-0.433834
H	 0.8030673144	 2.0558173767	 0.0925457276	 0.131396
H	-0.5783109463	 1.8394967457	-0.9968294716	 0.133019
H	-0.8376864975	 1.8972274315	 0.7589735572	 0.123929
H	-2.0935427019	-0.379254	 0.5572500521	 0.099218
H	-1.4904154454	-1.3780688786	-0.7978673453	 0.113661
H	-0.9672286271	-1.8650786917	 1.9813343581	 0.225983
H	 2.7089608041	-0.6561328037	 0.3350434171	 0.10467
H	 1.8542015923	-2.1959170487	-0.0508895305	 0.113566
H	 1.5572929261	 0.4440908571	 4.5646318865	 0.195549
106.2262	115.4417	171.4786	189.3234	256.5736	336.7721	374.2032	380.5793	513.6873	537.6989	552.3076	624.3902	646.6042	654.237	699.2925	747.4222	852.4555	927.4137	928.6992	951.888	1008.0073	1009.252	1034.4275	1099.324	1137.7369	1170.8529	1181.3042	1204.7391	1231.3285	1257.4818	1324.6874	1349.9212	1396.448	1409.8583	1478.74	1484.1998	1495.8273	1504.2877	2227.9613	3021.7871	3025.1467	3035.7095	3086.3899	3094.4144	3104.4741	3121.2212	3499.7098	3546.6526
CC12CNC1(CO2)C#C	C[C@]12CN[C@]1(CO2)C#C	
InChI=1S/C7H9NO/c1-3-7-5-9-6(7,2)4-8-7/h1,8H,4-5H2,2H3	InChI=1S/C7H9NO/c1-3-7-5-9-6(7,2)4-8-7/h1,8H,4-5H2,2H3/t6-,7-/m0/s1
