13
gdb 21090	3.5516	2.42679	1.45475	1.8251	63.31	-0.2491	-0.0813	0.1678	794.1113	0.097195	-394.807853	-394.801174	-394.80023	-394.838952	24.006	
C	-0.0293164952	 1.4502772638	-0.0039366465	-0.320132
N	-0.0067135942	-0.0082533101	 0.0030990203	-0.036993
N	-0.0445913735	-0.6242835497	-1.1866791223	-0.197715
C	-0.0237207995	-1.9264196215	-1.172739583	 0.078518
N	 0.0333133819	-2.7256389891	-0.0627159958	-0.231433
C	 0.0696964948	-2.1173899249	 1.0810029838	-0.057953
C	 0.0529124787	-0.6623911815	 1.237425216	 0.390311
O	 0.0873326838	-0.0484176678	 2.2897484971	-0.387851
H	 0.8715374218	 1.8364313059	 0.4796969473	 0.159671
H	-0.0817163936	 1.7718396142	-1.0419864487	 0.154344
H	-0.8934845423	 1.8088422689	 0.5608721061	 0.159884
H	-0.0546993727	-2.4158339899	-2.1382546027	 0.141496
H	 0.11567988	-2.7025935883	 1.9971139182	 0.147851
98.4062	139.0389	231.761	315.1453	415.656	465.9462	554.204	578.6353	639.6655	752.5171	769.7266	899.7493	911.4876	974.2763	1010.4379	1134.8871	1148.1485	1172.9251	1284.5708	1311.8189	1366.6264	1407.6033	1437.2081	1470.7329	1498.806	1524.468	1627.3932	1770.9407	3059.9929	3124.4307	3162.68	3184.9935	3218.763
CN1N=CN=CC1=O	Cn1ncncc1=O	
InChI=1S/C4H5N3O/c1-7-4(8)2-5-3-6-7/h2-3H,1H3	InChI=1S/C4H5N3O/c1-7-4(8)2-5-3-6-7/h2-3H,1H3
