21
gdb 37034	2.8423	1.71816	1.36951	0.3142	86.65	-0.2273	0.0307	0.258	1027.9939	0.18544	-349.945216	-349.937873	-349.936929	-349.97653	30.809	
C	 0.1040810522	 1.3196845047	-0.1480621603	-0.366449
C	 1.4342024469	 0.6254399028	-0.020661966	 0.316539
C	 1.6879054878	 0.2693249973	 1.4516076896	-0.297498
C	 0.3547435696	-0.5575242631	 1.4594883237	-0.297488
C	 0.1358229473	-0.1797171078	-0.0129638267	 0.316523
C	-0.2455416188	-1.0778874084	-1.1607688454	-0.372854
C	 0.6394605942	-0.8318945839	-2.3648163293	-0.049511
C	 1.77440862	-0.1281093295	-2.3715390225	-0.049515
C	 2.3984316827	 0.5616603333	-1.1764295428	-0.37286
H	-0.2713541133	 1.9329116077	 0.6684076527	 0.09756
H	-0.1343309978	 1.69474042	-1.1381693681	 0.112601
H	 2.5659669454	-0.3674682383	 1.5900395745	 0.097851
H	 1.7575698084	 1.1101864377	 2.1504549651	 0.091358
H	 0.5362002278	-1.6263683269	 1.6020074122	 0.097856
H	-0.4234709514	-0.2425628873	 2.1633798969	 0.091354
H	-0.1415289136	-2.1299847661	-0.855612118	 0.106991
H	-1.3003282973	-0.9635743972	-1.4493623467	 0.102707
H	 0.3073975523	-1.2897700504	-3.2940407409	 0.082568
H	 2.3241921815	-0.0391407292	-3.3059889753	 0.082569
H	 2.762412845	 1.5557589301	-1.4734345611	 0.102707
H	 3.2972151909	 0.0024099943	-0.8759695116	 0.106991
119.7351	196.5379	309.957	321.5275	385.2212	403.2436	487.155	508.916	549.4503	682.0785	718.9073	719.4906	779.8048	851.3234	866.4693	888.1523	917.8119	929.0634	959.0417	975.1119	977.4608	983.9567	1010.2499	1046.7916	1078.8619	1117.4271	1133.7629	1178.5678	1204.9209	1218.6174	1232.88	1239.4331	1252.3653	1283.3842	1302.0905	1361.4022	1384.0023	1404.4724	1409.9031	1477.1464	1477.5457	1480.0677	1483.9789	1513.0017	1711.792	2991.8704	2992.0707	3012.4261	3012.46	3032.8654	3041.1356	3082.2058	3101.481	3102.8064	3137.3491	3161.0504	3198.1211
C1C23CCC12CC=CC3	C1[C@@]23CC[C@@]12CC=CC3	
InChI=1S/C9H12/c1-2-4-9-6-5-8(9,3-1)7-9/h1-2H,3-7H2	InChI=1S/C9H12/c1-2-4-9-6-5-8(9,3-1)7-9/h1-2H,3-7H2/t8-,9+
