14
gdb 45532	3.08458	1.66915	1.32792	4.5845	61.9	-0.2632	-0.0097	0.2535	928.6008	0.103141	-473.850255	-473.843512	-473.842568	-473.881904	25.037	
O	-0.0522092202	 0.1528162616	 0.4429330039	-0.30485
C	 0.018520956	 1.2812429463	 0.0910308932	 0.457753
O	-0.9926208767	 2.0848542488	-0.3831307766	-0.256124
C	-0.0797777563	 3.2078205653	-0.6096470318	 0.092477
C	-0.4224403464	 4.441218446	 0.191721786	-0.105815
O	-0.1160743814	 4.3238333869	 1.5881553932	-0.220031
C	 1.0116319262	 3.650889946	 1.9118396824	 0.13445
N	 1.6532526855	 2.7931380316	 1.2349227135	-0.250414
C	 1.0972881847	 2.3874350586	-0.0355268858	-0.195298
H	-0.034374285	 3.4381690395	-1.6771555695	 0.109107
H	 0.1428515807	 5.289470344	-0.2167383406	 0.126785
H	-1.488886725	 4.6689288451	 0.1343988903	 0.147171
H	 1.3432833436	 3.9243835432	 2.9111912702	 0.141097
H	 1.8963793843	 2.1379968471	-0.7361501085	 0.123691
86.0275	144.4402	218.6106	322.686	427.5082	504.6407	555.1311	611.6998	720.1805	747.0135	813.6034	868.4368	896.6237	911.1345	978.6366	1003.5397	1025.9975	1044.0252	1103.2743	1133.5168	1184.9154	1217.5471	1259.5963	1324.5495	1327.5002	1371.6114	1402.1313	1417.0556	1486.6572	1718.6458	1952.1708	3026.4596	3083.7411	3098.6327	3115.5176	3170.2452
O=C1OC2COC=NC12	O=C1O[C@H]2COC=N[C@@H]12	
InChI=1S/C5H5NO3/c7-5-4-3(9-5)1-8-2-6-4/h2-4H,1H2	InChI=1S/C5H5NO3/c7-5-4-3(9-5)1-8-2-6-4/h2-4H,1H2/t3-,4+/m0/s1
