16
gdb 22472	3.82836	0.77166	0.65794	8.4782	78.21	-0.2252	-0.0653	0.1599	1616.996	0.122453	-471.152062	-471.142488	-471.141544	-471.187384	33.044	
N	-0.117030649	 1.3023051608	 0.0015771809	-0.49478
C	 0.074664471	-0.0409773526	-0.0989023115	 0.11624
N	 1.0615777917	-0.6435849321	 0.4354148067	-0.246461
H	 3.0820339907	-0.6954853572	 0.1801014573	 0.262364
C	 1.1114250307	-2.0875575397	 0.3403448989	-0.234656
C	 2.5135242497	-2.5609569789	 0.0071089158	 0.179171
C	 2.7696276618	-3.975865086	-0.2342579995	 0.093357
O	 3.8324250032	-4.4921321498	-0.5007749538	-0.266314
N	 3.4605838223	-1.6385833939	-0.0291040497	 0.070837
O	 4.6797093174	-1.7441197023	-0.2627734009	-0.412918
H	 0.6372955879	 1.8545085212	 0.3795356549	 0.26653
H	-0.7323466911	 1.7587850667	-0.6491912502	 0.268281
H	-0.7238911452	-0.5595652285	-0.6465258349	 0.103199
H	 0.8120199098	-2.5246740633	 1.3062737756	 0.130029
H	 0.4037831646	-2.4903696873	-0.4062991306	 0.104899
H	 1.8397653048	-4.5883576969	-0.151256889	 0.060223
50.8321	75.2657	141.6071	163.6952	207.0684	261.7532	290.3411	304.3622	351.2334	373.1726	407.5435	507.2752	573.5527	607.6918	738.5276	939.9358	947.6764	985.7118	1029.144	1043.4461	1044.8579	1161.4309	1203.0912	1238.0409	1302.1684	1355.1146	1410.1358	1430.0356	1446.5573	1490.0036	1505.098	1629.6901	1641.8693	1764.7096	1788.9455	2836.9547	2939.9673	2980.5921	3034.971	3224.4702	3596.4504	3725.8546
NC=[NH+]CC(C=O)=N[O-]	NC=NC[C](C=O)N[O]	
InChI=1S/C4H7N3O2/c5-3-6-1-4(2-8)7-9/h2-3,9H,1H2,(H2,5,6)	InChI=1S/C4H7N3O2/c5-3-6-1-4(2-8)7-9/h2-3,7H,1H2,(H2,5,6)
