18
gdb 71332	3.04635	1.57438	1.21788	1.2577	76.77	-0.2384	-0.0339	0.2044	1037.8991	0.146502	-401.858024	-401.850069	-401.849125	-401.890575	30.229	
C	 0.2608524396	 1.5415918318	 0.0791641292	-0.532229
C	 0.1507528485	 0.0398564397	 0.0335602392	 0.311723
C	 0.6049629746	-0.9151665562	-1.0697476035	-0.219065
N	 0.0303607023	-1.9175398052	-0.0783327739	-0.162782
C	 0.5687012076	-1.0458136127	 1.0898261799	-0.054912
C	-0.7934103411	-1.1165577233	 1.7880256718	-0.097376
C	-1.2230479719	-0.0913718842	 2.7927683447	 0.122987
O	-0.5560323721	 0.8437235241	 3.1644638476	-0.249761
C	-1.0802713057	-0.9022311799	 0.2798698596	-0.074441
H	 1.3070444226	 1.8462946823	-0.0365893519	 0.122885
H	-0.307448031	 1.9930589875	-0.7419773916	 0.116769
H	-0.1033859485	 1.9475479963	 1.0242674639	 0.152921
H	 0.0720417586	-0.8930639273	-2.0269720255	 0.099145
H	 1.681343023	-1.0362702103	-1.2345459829	 0.101345
H	 1.5619000478	-1.2271794463	 1.5029639732	 0.090542
H	-1.0863344733	-2.1213285665	 2.117702921	 0.102896
H	-2.2468871298	-0.2545315567	 3.2019494595	 0.081798
H	-2.0385289112	-0.918825233	-0.2434415303	 0.087554
86.7034	144.3393	179.1834	208.3234	277.7267	313.4731	411.4689	449.3678	613.7621	687.5936	707.964	787.1866	840.9685	854.0732	860.8359	897.0216	925.4463	947.0706	1001.9094	1011.0489	1025.3364	1066.6018	1091.6052	1105.1844	1147.0629	1155.5841	1185.5749	1209.857	1213.5919	1251.7199	1269.4881	1349.3486	1377.0258	1411.0004	1427.9611	1486.8283	1495.7316	1520.0891	1815.4923	2865.4837	3029.1509	3033.9214	3041.5827	3087.4536	3090.8464	3095.7186	3110.122	3142.2957
CC12CN3C1C(C=O)C23	C[C@@]12CN3[C@@H]1[C@@H](C=O)[C@@H]23	
InChI=1S/C7H9NO/c1-7-3-8-5(7)4(2-9)6(7)8/h2,4-6H,3H2,1H3	InChI=1S/C7H9NO/c1-7-3-8-5(7)4(2-9)6(7)8/h2,4-6H,3H2,1H3/t4-,5-,6+,7-
