18
gdb 29908	5.63831	0.98669	0.90337	3.1913	81.04	-0.2101	0.0321	0.2422	1320.8592	0.149295	-398.132941	-398.124643	-398.123699	-398.166768	30.35	
C	 0.2385718653	 1.4701347402	 0.0000305984	-0.335664
N	 0.0373561155	 0.0367674506	 0.0244780409	 0.018534
C	-0.2696729959	-0.7616676186	-1.0349711724	-0.00028
N	-0.386517896	-2.0244595995	-0.6915607764	-0.329737
C	-0.142649781	-2.052980333	 0.6631449305	 0.330053
C	 0.1217863339	-0.7898897836	 1.1270322399	-0.222075
N	-0.1647560273	-3.2218855873	 1.4524688288	-0.196886
C	-1.1491843046	-4.2494122513	 1.0721394876	-0.22071
C	 0.2920081585	-4.4607017887	 0.800148728	-0.220636
H	 1.2501451013	 1.7293078694	 0.3278124626	 0.145333
H	 0.1008894147	 1.8294089254	-1.0217479033	 0.144432
H	-0.4822170441	 1.9778145908	 0.6485606095	 0.14531
H	-0.3942671568	-0.3585583633	-2.0300981818	 0.124495
H	 0.3542795532	-0.4194905747	 2.1108074695	 0.128022
H	-1.6316972148	-4.7486330471	 1.9076864545	 0.11059
H	-1.783332607	-4.0298640253	 0.2184651397	 0.134159
H	 0.6137783035	-4.3814887762	-0.2338963729	 0.134534
H	 0.8820269516	-5.1172122477	 1.4334427669	 0.110526
39.9942	91.869	146.186	187.3321	236.7201	315.2046	447.1006	458.2148	605.9638	638.216	706.8662	714.8199	759.9618	812.3042	824.4007	850.9978	903.7099	1007.0384	1043.5514	1055.7171	1081.2138	1111.0341	1132.8332	1151.9585	1152.6467	1183.3299	1185.1072	1249.8698	1266.21	1332.9207	1394.6295	1426.5944	1457.6416	1477.7647	1481.4559	1505.3338	1519.6814	1545.0436	1602.2377	3038.5408	3099.1431	3111.348	3114.1925	3134.9273	3200.2193	3214.5506	3235.6922	3280.8118
CN1C=NC(=C1)N1CC1	Cn1cnc(c1)N1CC1	
InChI=1S/C6H9N3/c1-8-4-6(7-5-8)9-2-3-9/h4-5H,2-3H2,1H3	InChI=1S/C6H9N3/c1-8-4-6(7-5-8)9-2-3-9/h4-5H,2-3H2,1H3
