17
gdb 30366	3.10397	1.6523	1.207	2.8405	73.98	-0.2207	0.0256	0.2463	1015.6946	0.139876	-418.052269	-418.045042	-418.044098	-418.084035	27.993	
O	-0.4494837579	 1.3963999244	-0.4126477708	-0.436708
C	 0.0405044899	 0.1080921914	-0.0368058501	-0.009712
C	-1.1733530551	-0.8263936002	 0.179104423	-0.22733
C	-1.401908342	-1.5518628952	-1.1752682453	-0.185651
N	-0.0797760955	-1.4683987052	-1.7781759394	 0.014292
C	 0.5829833035	-1.9517458709	-2.8777343413	-0.15747
C	 1.8015471896	-1.3080947952	-2.8602915838	-0.09596
N	 1.8949876534	-0.4413017207	-1.7919304761	-0.368464
C	 0.7424238149	-0.5711476567	-1.173417021	 0.345712
H	 0.2819632669	 1.8676707232	-0.8271710269	 0.292634
H	 0.6633686129	 0.1856364913	 0.862803481	 0.088992
H	-0.9337119822	-1.5608325624	 0.9525555975	 0.118801
H	-2.046413068	-0.2568405155	 0.5005421171	 0.127825
H	-1.7211324021	-2.5897671019	-1.0490978657	 0.124211
H	-2.13937898	-1.0368525606	-1.8000336174	 0.134318
H	 0.1616326102	-2.6914313049	-3.5377235831	 0.127545
H	 2.6193037513	-1.4329188208	-3.5544452978	 0.106965
107.2122	145.7982	201.7372	307.9154	362.4797	433.5504	464.6497	631.4727	638.808	726.268	732.8546	736.1881	808.7994	844.8638	849.2254	922.9396	948.9628	990.1676	1005.9192	1082.2854	1112.5705	1125.4904	1176.833	1209.0434	1224.4016	1253.2166	1297.5512	1317.0668	1337.9122	1345.4707	1391.9232	1426.8214	1447.8598	1476.9491	1499.3821	1533.2062	1570.2447	3027.2487	3047.6964	3074.1273	3095.2789	3136.0981	3244.4092	3279.3651	3806.2541
OC1CCN2C=CN=C12	O[C@H]1CCn2ccnc12	
InChI=1S/C6H8N2O/c9-5-1-3-8-4-2-7-6(5)8/h2,4-5,9H,1,3H2	InChI=1S/C6H8N2O/c9-5-1-3-8-4-2-7-6(5)8/h2,4-5,9H,1,3H2/t5-/m0/s1
