17
gdb 103401	2.29713	1.578	1.39844	2.5108	68.49	-0.2306	-0.036	0.1945	1028.9974	0.132389	-458.916496	-458.90741	-458.906465	-458.950599	32.552	
C	-0.1718393973	 1.3156879749	 0.0850856895	-0.258657
O	 0.2036966999	-0.0531914955	 0.094563441	-0.283399
C	 0.7307965754	-0.5445044827	-1.1056434033	 0.267694
C	 2.1062062202	 0.0296063718	-1.454442232	-0.46218
C	 0.6725782855	-2.080577112	-1.1732433249	-0.010551
O	-0.6917866946	-2.4556335645	-1.1155758749	-0.226151
C	-0.1573315185	-2.0928567508	-2.4078248367	-0.115049
C	-0.1873164043	-0.5711334571	-2.4005084889	 0.370836
O	-0.59726904	 0.2735434218	-3.1402907255	-0.312615
H	 0.6963730772	 1.9848308516	 0.0107363951	 0.109888
H	-0.8616478574	 1.5417871449	-0.7364821324	 0.137133
H	-0.6737202837	 1.5015277032	 1.0369583733	 0.133029
H	 2.7744506398	-0.0744730495	-0.5941144107	 0.132708
H	 2.5492991406	-0.4945259134	-2.3070240805	 0.125942
H	 2.0328201961	 1.0874015285	-1.7186186748	 0.14307
H	 1.4217310211	-2.8002290854	-0.8646683067	 0.120666
H	-0.2296814498	-2.817338516	-3.2098025577	 0.127636
58.3633	111.2124	149.501	194.4071	212.9229	226.3741	277.2519	313.0211	391.8443	506.2719	547.8414	666.5641	673.4691	796.7263	838.7851	852.5265	882.195	926.0782	951.5472	1013.715	1055.8137	1081.0756	1131.9988	1146.7162	1181.0015	1198.586	1221.0625	1238.325	1300.8452	1343.6951	1397.6431	1476.5243	1483.2284	1487.4213	1501.9668	1510.9398	1890.6467	3004.2106	3041.4357	3069.4975	3112.8994	3125.1717	3126.9712	3190.3163	3203.6554
COC1(C)C2OC2C1=O	CO[C@@]1(C)[C@H]2O[C@H]2C1=O	
InChI=1S/C6H8O3/c1-6(8-2)4(7)3-5(6)9-3/h3,5H,1-2H3	InChI=1S/C6H8O3/c1-6(8-2)4(7)3-5(6)9-3/h3,5H,1-2H3/t3-,5-,6+/m0/s1
