19
gdb 59417	2.69896	1.07538	0.97164	3.2983	73.41	-0.254	-0.0312	0.2227	1303.2162	0.155857	-460.15787	-460.147951	-460.147006	-460.192608	36.488	
C	 0.0882146443	 1.5493824738	-0.0705420143	-0.388919
C	-0.0257990591	 0.0293880784	-0.0756250555	 0.128597
O	-1.4044765327	-0.2900193422	-0.1932255504	-0.444185
C	 0.7776148779	-0.5835164257	-1.2148946273	-0.03836
C	 2.0829276448	-1.2665247888	-0.9470976354	-0.349025
C	 0.860033335	-2.1022079023	-1.2871214853	 0.237689
O	 0.1702271043	-2.7990818473	-0.2840769094	-0.468826
C	 0.7949140253	-2.7228593922	-2.6387579884	 0.108768
O	 1.3462320359	-2.2835639543	-3.6187705011	-0.267714
H	 1.1322657054	 1.8611773546	 0.0249317687	 0.115444
H	-0.3169597162	 1.961772334	-0.9997609747	 0.126734
H	-0.4828535136	 1.9638887978	 0.7641397053	 0.124458
H	 0.3701910975	-0.3628995765	 0.8734974352	 0.063699
H	-1.4700948845	-1.2478366915	-0.1018901513	 0.293962
H	 0.6671385052	-0.1017687591	-2.182319525	 0.116554
H	 2.8592174202	-1.2290035935	-1.7029836357	 0.142023
H	 2.4195923791	-1.3150258039	 0.0838884725	 0.120195
H	 0.7441670475	-3.4773224108	 0.086563336	 0.297125
H	 0.1712166037	-3.6442263003	-2.6704404339	 0.081782
77.8728	97.6799	131.3189	181.6549	231.1496	240.4908	269.1547	304.5066	367.1021	389.1081	414.2381	474.6578	515.6677	531.422	650.7798	739.1289	797.9325	848.7532	915.5969	941.9688	983.4637	1031.0484	1042.3591	1067.5258	1078.1549	1106.4413	1145.287	1190.9211	1231.2759	1262.7762	1296.394	1320.4889	1339.0932	1397.9329	1409.1827	1416.0138	1438.6909	1460.8997	1483.5423	1500.3001	1812.1802	2887.7883	2981.4162	3043.9806	3118.0747	3125.6828	3129.2697	3157.5599	3228.167	3796.9928	3810.061
CC(O)C1CC1(O)C=O	C[C@@H](O)[C@H]1C[C@]1(O)C=O	
InChI=1S/C6H10O3/c1-4(8)5-2-6(5,9)3-7/h3-5,8-9H,2H2,1H3	InChI=1S/C6H10O3/c1-4(8)5-2-6(5,9)3-7/h3-5,8-9H,2H2,1H3/t4-,5-,6+/m1/s1
