23
gdb 77902	2.0433	1.49695	1.34706	1.5403	85.78	-0.2356	0.0717	0.3072	1170.1966	0.204408	-388.268014	-388.25805	-388.257105	-388.301744	38.476	
C	-0.4463273277	 1.6124380268	 0.1213592498	-0.414464
C	-0.1080217108	 0.1273496424	 0.0205660206	 0.017321
C	 0.4388670623	-0.434664715	-1.2998957805	-0.161698
C	 1.8315783372	-0.0020723508	-1.6013998742	 0.052943
O	 2.2581946849	 1.319248791	-1.3792060302	-0.415228
C	 1.6593437189	-1.0596694797	-0.5501147905	 0.266447
C	 2.2745866471	-2.4279400953	-0.6649284651	-0.497297
C	 1.1327184393	-0.4817339519	 0.7790156155	-0.039086
C	 2.0428207534	 0.3979969279	 1.6332555528	-0.422169
H	 0.3991017405	 2.2400104444	-0.1614167279	 0.14311
H	-1.2823205375	 1.8555964073	-0.5445886248	 0.106199
H	-0.7539383242	 1.8738355199	 1.1405713212	 0.101886
H	-0.9949596274	-0.449019782	 0.3042491275	 0.067983
H	-0.1813894007	-0.8742733471	-2.0748142596	 0.077815
H	 2.1989874715	-0.4131663547	-2.5446453283	 0.081173
H	 3.2082247892	 1.297999933	-1.2225646369	 0.283774
H	 2.4164437111	-2.7192238421	-1.7110840862	 0.115334
H	 3.2568060487	-2.467211444	-0.176543774	 0.115921
H	 1.644422205	-3.1895903379	-0.1904257789	 0.116371
H	 0.7820074271	-1.3147304646	 1.3991047962	 0.066279
H	 2.3765899749	 1.2833308837	 1.0903809032	 0.123397
H	 1.5246947638	 0.7306178092	 2.5396791709	 0.109871
H	 2.9296758532	-0.1617447206	 1.9536232695	 0.104119
139.8553	185.1662	187.36	200.682	221.9969	227.373	240.7088	253.9531	315.2789	345.8643	357.4496	463.0054	550.4355	592.5807	660.237	717.16	741.9174	776.4865	866.3943	917.3684	959.916	980.1139	1005.845	1031.0086	1045.2845	1067.7091	1088.7811	1107.437	1154.8148	1164.3572	1178.7082	1224.3063	1249.3706	1274.1257	1292.993	1326.5543	1357.1659	1371.9351	1386.0719	1401.2172	1410.7586	1415.3141	1480.0676	1486.5097	1487.5486	1498.7691	1501.5632	1505.8455	1518.8605	3013.6602	3020.9597	3029.4716	3030.4172	3046.4759	3069.1881	3073.0134	3081.7562	3084.9145	3090.995	3139.4778	3150.3675	3155.2334	3804.5255
CC1C2C(O)C2(C)C1C	C[C@H]1[C@H]2[C@@H](O)[C@@]2(C)[C@H]1C	
InChI=1S/C8H14O/c1-4-5(2)8(3)6(4)7(8)9/h4-7,9H,1-3H3	InChI=1S/C8H14O/c1-4-5(2)8(3)6(4)7(8)9/h4-7,9H,1-3H3/t4-,5+,6+,7-,8+/m1/s1
