21
gdb 108168	2.56983	1.37734	1.20363	1.5046	82.85	-0.2223	0.0114	0.2336	1162.5503	0.182619	-387.089274	-387.080493	-387.079549	-387.122313	34.456	
C	 0.1671434605	 1.5113208034	 0.1834324255	-0.375337
C	-0.1057709328	 0.0260796416	-0.0889150562	-0.283182
C	 0.6245626019	-0.502200363	-1.3044734792	 0.303299
C	 0.2675682008	 0.0516630555	-2.6921331281	-0.327471
C	 0.3950104699	-1.1372087347	-3.6203657656	-0.109064
C	 0.714997787	-2.2557210722	-2.9585649341	-0.084801
C	 0.9173472108	-2.0030893679	-1.5064588716	-0.206922
C	 2.0326916783	-1.021141884	-1.1729014504	 0.087497
O	 3.0518120334	-0.6971936264	-2.0656179606	-0.430714
H	 1.2361742914	 1.6912815873	 0.3369702829	 0.122983
H	-0.1562413551	 2.1361849102	-0.6556913519	 0.117565
H	-0.3662400489	 1.8529085684	 1.0759464178	 0.109792
H	 0.1875383653	-0.5638284522	 0.7887146799	 0.093231
H	-1.1858026264	-0.1335557068	-0.213419247	 0.093692
H	-0.7489437343	 0.4678430029	-2.7105465288	 0.107472
H	 0.9429645077	 0.8666268247	-2.9847955233	 0.120519
H	 0.2471712146	-1.0607798804	-4.691981654	 0.097786
H	 0.8511778991	-3.2328997702	-3.4086883731	 0.100284
H	 0.644329061	-2.7569109644	-0.7748050154	 0.082285
H	 2.4285714606	-1.0823776974	-0.1627471331	 0.098784
H	 2.7768994254	-1.0014235046	-2.9409367438	 0.282302
95.5496	147.2001	201.8255	212.2859	226.3863	315.7902	341.0829	361.9256	409.2618	524.6608	596.4325	607.1923	734.4039	756.3531	772.9292	789.0914	844.651	886.3286	940.2527	957.4563	963.1038	979.2419	994.8019	1037.4528	1048.7447	1074.397	1099.1358	1130.985	1148.2787	1178.4467	1215.0159	1249.7138	1287.9065	1306.3861	1334.8712	1357.7579	1376.0892	1383.5741	1413.1567	1448.6666	1472.2646	1487.895	1499.2896	1506.9332	1657.7716	3008.1002	3011.4836	3034.5306	3040.0002	3044.6978	3103.3482	3105.8577	3145.5499	3158.6077	3182.9925	3207.2795	3744.9239
CCC12CC=CC1C2O	CC[C@]12CC=C[C@H]1[C@H]2O	
InChI=1S/C8H12O/c1-2-8-5-3-4-6(8)7(8)9/h3-4,6-7,9H,2,5H2,1H3	InChI=1S/C8H12O/c1-2-8-5-3-4-6(8)7(8)9/h3-4,6-7,9H,2,5H2,1H3/t6-,7+,8-/m0/s1
