17
gdb 97696	2.87173	0.82321	0.69535	2.0137	86.01	-0.2503	0.0021	0.2524	1660.0501	0.132141	-384.602376	-384.592444	-384.5915	-384.639845	35.033	
C	 0.2450292319	 1.2224727199	 0.6074190892	-0.36597
C	-0.2067207181	 0.3631180624	-0.5878062432	-0.322858
C	-1.5158478064	-0.2480781093	-0.3907616708	 0.122477
C	-2.5965659078	-0.7448985678	-0.2016332049	-0.019099
C	-3.8985700069	-1.3268947958	 0.0149933754	 0.121093
C	-4.2356605227	-2.6337399877	-0.6113898927	-0.205505
O	-3.9238552288	-2.5655667496	 0.767871718	-0.256664
C	-4.9673050112	-0.4022976963	 0.3178462151	 0.272238
C	-5.8521329098	 0.3732722945	 0.5594621842	-0.454231
H	 1.2290419684	 1.6577925757	 0.4104715104	 0.116792
H	-0.4625500889	 2.03530508	 0.7905095577	 0.132568
H	 0.3090923885	 0.6192491253	 1.5167085522	 0.133887
H	-0.2310670074	 0.977795053	-1.4968006434	 0.134716
H	 0.532784165	-0.4253076987	-0.7771083373	 0.135123
H	-5.2765642515	-2.8397723639	-0.8552166333	 0.127169
H	-3.4884712463	-3.1069929108	-1.2462157006	 0.125995
H	-6.6327533678	 1.0588733193	 0.7799110539	 0.202268
6.5191	71.2394	98.7886	176.5723	200.4623	218.2123	231.8907	340.159	428.4719	449.338	507.502	563.7263	583.177	596.9347	624.8677	660.7202	784.0134	800.3793	847.1236	925.9112	962.8103	1051.249	1088.5591	1103.5187	1136.3048	1166.8968	1275.8329	1285.3661	1325.0421	1353.0883	1409.8188	1471.1602	1494.7049	1505.1348	1511.1886	2244.2852	2366.4855	3022.0001	3046.4532	3050.4321	3084.6742	3120.5466	3127.32	3182.0119	3502.3038
CCC#CC1(CO1)C#C	CCC#C[C@]1(CO1)C#C	
InChI=1S/C8H8O/c1-3-5-6-8(4-2)7-9-8/h2H,3,7H2,1H3	InChI=1S/C8H8O/c1-3-5-6-8(4-2)7-9-8/h2H,3,7H2,1H3/t8-/m0/s1
