20
gdb 127470	2.33918	1.57765	0.96085	1.9742	84.71	-0.1886	0.039	0.2276	1252.4238	0.170636	-399.366414	-399.356079	-399.355135	-399.401909	36.499	
C	-0.0380755702	 1.3814618018	-0.0620014746	-0.321547
N	 0.0417437184	-0.056056189	 0.0300987398	-0.026094
N	-0.0143614939	-0.7969727321	-1.1117449989	-0.359139
C	-0.0278216154	-2.0546733585	-0.6887810118	 0.295108
N	-0.1476545653	-3.1205673615	-1.5876963019	-0.590752
C	 0.0200559662	-2.1490948524	 0.725956292	 0.068729
C	 0.0179223961	-3.4067264869	 1.5365988991	-0.525562
C	 0.060961159	-0.829461693	 1.1489322413	 0.296161
C	 0.1093730196	-0.2476268428	 2.5240647228	-0.508189
H	 0.6018996124	 1.8484359021	 0.6915029712	 0.130335
H	 0.3074236342	 1.6716765188	-1.0546107425	 0.153778
H	-1.0641117065	 1.7472404047	 0.0739316427	 0.129768
H	-0.0061539659	-2.8072326937	-2.5403483835	 0.245524
H	 0.4835573827	-3.8843016508	-1.3804570178	 0.240881
H	 0.9770299023	-3.9408156513	 1.4899664381	 0.116743
H	-0.1840635169	-3.2081450651	 2.5932522782	 0.119688
H	-0.7517455708	-4.1014490893	 1.1804459401	 0.132835
H	 1.0228307666	 0.3357444162	 2.6927597316	 0.13313
H	-0.7411707652	 0.4154776411	 2.7213066218	 0.132903
H	 0.087714403	-1.0439517881	 3.2709885021	 0.135698
72.3775	76.387	120.604	130.5665	169.5202	239.5838	245.4787	279.2591	288.194	312.7612	359.3319	556.2921	570.939	624.6396	632.5266	699.7454	724.0587	799.2532	862.8409	956.0848	1049.1791	1057.0419	1065.4947	1104.5522	1144.1046	1158.3605	1176.1972	1260.2929	1345.423	1412.6658	1420.3503	1429.8339	1456.5773	1479.6648	1482.7159	1487.8025	1490.5322	1497.9179	1506.3367	1533.8885	1544.1354	1626.4101	1650.757	3007.4611	3017.9517	3023.9634	3059.0551	3070.4329	3092.4513	3100.112	3125.5985	3151.1273	3529.0524	3622.6183
CN1N=C(N)C(C)=C1C	Cn1nc(N)c(C)c1C	
InChI=1S/C6H11N3/c1-4-5(2)9(3)8-6(4)7/h1-3H3,(H2,7,8)	InChI=1S/C6H11N3/c1-4-5(2)9(3)8-6(4)7/h1-3H3,(H2,7,8)
