16
gdb 55734	2.47103	1.30667	1.05823	4.6378	66.28	-0.2517	-0.0258	0.2259	1163.6363	0.121187	-475.040687	-475.031202	-475.030258	-475.075943	33.144	
N	-0.2323682446	 1.4035441019	-0.4121321165	-0.532693
C	-0.0019553775	 0.0683258987	-0.2626526369	 0.45156
O	 1.0567229376	-0.4547329643	-0.5460097195	-0.348634
C	-1.1899518526	-0.7288560146	 0.2879651863	-0.43958
C	-0.9325841331	-2.2066540691	 0.1416872685	 0.349456
C	-2.0054700986	-3.1502379717	-0.2470379795	-0.23139
O	-1.0061919846	-2.7571878437	-1.1740160929	-0.255999
C	 0.1661842159	-2.7787363311	 0.9930236089	 0.128517
O	 0.4882231409	-2.3228482291	 2.0591993521	-0.26544
H	 0.5422552591	 1.9897487816	-0.6775606049	 0.265333
H	-1.0733857529	 1.84186943	-0.0798539295	 0.260551
H	-1.3030385872	-0.4939381694	 1.3527166587	 0.152418
H	-2.1141073985	-0.4420812355	-0.2227571252	 0.121396
H	-1.9637880546	-4.1888425276	 0.0797526544	 0.126346
H	-3.0062718635	-2.7568374507	-0.4211966371	 0.12399
H	 0.6256361743	-3.6930730155	 0.5592756632	 0.094168
36.7347	87.4178	133.4417	137.5575	191.7963	228.9575	309.5794	339.3775	388.9558	437.7507	485.4829	552.4826	622.8137	642.4709	814.1103	844.8493	875.5208	891.7561	959.7771	982.6601	1040.7662	1094.3473	1132.0331	1160.85	1194.2849	1264.1169	1321.8669	1350.0677	1389.7694	1420.6004	1446.2217	1526.6941	1620.2634	1799.5252	1828.9567	2908.6109	3048.666	3080.0938	3098.0988	3167.8701	3601.69	3736.1596
NC(=O)CC1(CO1)C=O	NC(=O)C[C@]1(CO1)C=O	
InChI=1S/C5H7NO3/c6-4(8)1-5(2-7)3-9-5/h2H,1,3H2,(H2,6,8)	InChI=1S/C5H7NO3/c6-4(8)1-5(2-7)3-9-5/h2H,1,3H2,(H2,6,8)/t5-/m1/s1
