22
gdb 104583	2.13315	1.28774	0.98487	3.482	81.86	-0.2388	0.0293	0.2681	1311.7533	0.193335	-404.379721	-404.369504	-404.368559	-404.415515	38.095	
C	 0.7173827429	 0.2957840143	 1.2985181878	-0.39147
C	 0.0063244448	-0.026764198	-0.0216636776	-0.254078
C	-1.3852415545	-0.6260752975	 0.1518730143	 0.380385
C	-2.3776694869	 0.2170784237	 0.946745503	-0.373382
C	-2.539288859	 1.6500649594	 0.433880643	 0.376384
N	-2.9570256919	 1.7536862307	-0.8661394087	-0.505398
O	-2.3427237557	 2.6241410121	 1.1339637295	-0.361568
C	-1.9225782003	-1.4754101495	-0.9836331315	-0.326117
C	-1.4836564131	-2.123090958	 0.3092617121	-0.311516
H	 1.7393894775	 0.6392864954	 1.1118782931	 0.112051
H	 0.1984103894	 1.0880468896	 1.8455619501	 0.14376
H	 0.772291841	-0.5869221717	 1.9447847444	 0.113595
H	-0.0658083567	 0.8873256405	-0.6255180566	 0.102044
H	 0.6151151068	-0.7284427796	-0.6047036182	 0.089043
H	-3.3592969652	-0.2718026861	 0.9375477384	 0.111061
H	-2.0680570781	 0.3040721213	 1.990589929	 0.129355
H	-2.9176807348	 0.9584163499	-1.4809662128	 0.261448
H	-2.9602417314	 2.6733306061	-1.2777131762	 0.257172
H	-2.9876196073	-1.4555961937	-1.1965984034	 0.107223
H	-1.2987882664	-1.6132511842	-1.8608757018	 0.113041
H	-0.5629462763	-2.6970015625	 0.3022164737	 0.114133
H	-2.2512490252	-2.5259235222	 0.9614862386	 0.112833
34.5369	67.8192	119.8371	153.5193	219.4675	264.8484	306.6029	318.5502	335.208	375.0427	432.1723	492.9915	534.26	569.2336	670.6118	748.5817	785.152	804.7462	856.332	889.0121	915.4111	938.3246	955.0791	989.8113	1018.4039	1049.4392	1082.6453	1084.3494	1110.3531	1126.2668	1188.9778	1190.3055	1270.4556	1308.3527	1313.6381	1355.13	1362.2037	1392.8445	1410.7557	1466.0288	1475.5599	1490.1	1502.0083	1505.1046	1514.5088	1615.8423	1798.8648	3017.5829	3036.725	3040.3111	3051.9465	3104.0415	3108.2917	3117.3984	3117.9513	3130.1952	3198.0711	3215.9614	3591.4886	3725.0187
CCC1(CC(N)=O)CC1	CCC1(CC(=O)N)CC1	
InChI=1S/C7H13NO/c1-2-7(3-4-7)5-6(8)9/h2-5H2,1H3,(H2,8,9)	InChI=1S/C7H13NO/c1-2-7(3-4-7)5-6(8)9/h2-5H2,1H3,(H2,8,9)
