20
gdb 97847	3.41561	0.69599	0.64114	2.2161	86.79	-0.2204	0.0325	0.2529	1815.5878	0.169456	-403.084422	-403.074294	-403.07335	-403.121498	35.573	
C	 0.069805242	 1.6378532677	 0.4431241317	-0.326566
N	 0.0752937098	 0.2201263861	 0.1648070077	-0.046861
C	-1.194694464	-0.5286895149	 0.1952412686	-0.166999
C	-0.4327102881	-1.7328900255	 0.793899739	-0.246311
C	 0.6630811056	-0.6926346447	 1.1744740744	-0.164401
C	 2.0709507808	-1.0168137247	 1.022142124	 0.053267
C	 3.2436530335	-1.2738131113	 0.9089482387	 0.111781
C	 4.6483142514	-1.6353502172	 0.7286112183	-0.191164
O	 4.9863291434	-1.961659602	-0.6125657058	-0.402164
H	 1.0998264035	 2.0062654968	 0.4862397853	 0.130187
H	-0.4452814422	 2.171645558	-0.3624418868	 0.122127
H	-0.4296004022	 1.8921141014	 1.398184963	 0.087734
H	-1.926573113	-0.1115236539	 0.9080754189	 0.083151
H	-1.680321087	-0.6510912824	-0.7779259457	 0.105175
H	-0.8993743425	-2.2753280767	 1.6156093171	 0.10954
H	-0.0809361847	-2.4317459108	 0.0344302731	 0.118801
H	 0.4869350028	-0.3298055271	 2.2039980484	 0.079832
H	 5.2941186299	-0.792908549	 1.0012472982	 0.139053
H	 4.8986439125	-2.4595034012	 1.4166652709	 0.116735
H	 4.3252931787	-2.5850048885	-0.9311449291	 0.287083
16.7981	69.312	81.3475	147.7718	218.8783	229.9264	248.0704	298.9051	338.7602	342.4755	413.9847	508.6181	605.8168	623.3896	760.8	805.1566	900.2606	947.4227	966.6545	986.2163	994.7073	1050.7718	1074.6427	1128.3891	1160.2485	1176.349	1193.939	1216.1499	1229.6867	1235.9469	1249.7902	1281.3393	1326.0761	1353.211	1372.5538	1420.4535	1448.2652	1484.5787	1486.7921	1492.0925	1496.9946	1521.6784	2353.005	2918.5564	2924.1598	2957.37	2969.9059	3058.5086	3059.9319	3065.9142	3093.7477	3103.4293	3154.4753	3818.1643
CN1CCC1C#CCO	CN1CC[C@H]1C#CCO	
InChI=1S/C7H11NO/c1-8-5-4-7(8)3-2-6-9/h7,9H,4-6H2,1H3	InChI=1S/C7H11NO/c1-8-5-4-7(8)3-2-6-9/h7,9H,4-6H2,1H3/t7-/m1/s1
