22
gdb 89719	3.41152	1.03396	0.94665	2.3825	83.94	-0.2122	0.0821	0.2943	1377.5356	0.191136	-404.314116	-404.304127	-404.303183	-404.348645	37.25	
C	-0.0269626906	 1.4945300114	 0.0111698333	-0.319047
N	 0.0664993949	 0.0531553288	 0.0214833096	-0.074009
C	 1.0488749094	-0.5903097752	-0.8799635907	-0.256353
C	 1.4563993132	-1.5007448983	 0.281514375	 0.378918
C	 0.6439479419	-0.6015640614	 1.2171434598	-0.256359
O	 1.3267840197	-2.9105675948	 0.2489192072	-0.324182
C	 2.6346663671	-2.3412146877	 0.504530365	 0.288949
C	 3.6391234298	-2.5438313203	-0.6084542666	-0.457541
C	 3.1529452659	-2.5570553318	 1.9093610727	-0.457549
H	 0.9417261743	 1.9982357241	 0.2009183552	 0.085834
H	-0.4006675219	 1.8361207699	-0.9598219101	 0.121925
H	-0.7359785139	 1.8268040884	 0.7767121573	 0.121925
H	 0.6118970912	-1.0798238096	-1.756854439	 0.114042
H	 1.8623289963	 0.0790983085	-1.2066944057	 0.085405
H	 1.2759566957	 0.0627981145	 1.8301326869	 0.085405
H	-0.0870932699	-1.0992490557	 1.8632089889	 0.114041
H	 3.177668863	-2.3889870856	-1.5862539328	 0.129456
H	 4.4795089168	-1.8487026177	-0.5042073221	 0.11907
H	 4.0425562365	-3.5619410346	-0.5785426256	 0.125776
H	 3.5428288166	-3.5747735583	 2.0209047246	 0.125731
H	 3.968654893	-1.8608161996	 2.1334035171	 0.119081
H	 2.3596428407	-2.413614775	 2.6463152598	 0.129482
68.6465	143.8231	166.0298	174.9569	188.063	232.5657	263.788	316.1329	318.8569	356.6094	435.5777	464.1987	485.0125	532.5904	692.847	735.0576	877.1525	923.3072	925.9776	947.8934	964.997	988.9009	997.4144	1087.1541	1123.7276	1128.0697	1130.5304	1135.5623	1176.8291	1197.8115	1218.7383	1247.817	1251.8531	1301.4198	1332.4319	1406.5053	1416.3758	1452.2531	1472.597	1474.2521	1484.6646	1486.3882	1488.6374	1497.5072	1498.5207	1516.0106	1546.5821	2910.3299	2957.214	2966.7065	3032.0351	3036.892	3056.2253	3060.5919	3061.7479	3093.0764	3097.8899	3099.0235	3126.5005	3128.1212
CN1CC2(C1)OC2(C)C	CN1CC2(C1)OC2(C)C	
InChI=1S/C7H13NO/c1-6(2)7(9-6)4-8(3)5-7/h4-5H2,1-3H3	InChI=1S/C7H13NO/c1-6(2)7(9-6)4-8(3)5-7/h4-5H2,1-3H3
