15
gdb 18683	3.20424	2.4848	1.60495	3.6458	61.57	-0.2402	-0.0105	0.2297	783.8221	0.120558	-399.790041	-399.783525	-399.782581	-399.820856	24.703	
O	-0.0327272306	 0.0171196677	 0.4148619659	-0.309251
C	-0.0466458618	 1.1735383137	 0.077546968	 0.366886
C	-1.3166665517	 1.9793630809	-0.1633218469	-0.190397
O	-1.2452788337	 3.1546200631	 0.6409598683	-0.245231
C	-0.2637185007	 4.0524067606	 0.1619610851	-0.106939
C	 1.0922059096	 3.3843359615	 0.0088670338	-0.027605
C	 1.7222524659	 2.5769020534	 1.0959376204	-0.244829
N	 1.1359053794	 1.9261159097	-0.0798460964	-0.106157
H	-1.4414954433	 2.2331948246	-1.2282134858	 0.111344
H	-2.1767049417	 1.4012446823	 0.174834887	 0.142909
H	-0.5690846081	 4.4596549112	-0.8165573861	 0.101996
H	-0.2221184696	 4.8813828777	 0.8749623594	 0.126621
H	 1.7579796878	 3.8805780882	-0.6953795567	 0.106552
H	 2.803722555	 2.5209427628	 1.1774048011	 0.1319
H	 1.1786415232	 2.4739989924	 2.0313325029	 0.142202
85.5195	228.9935	263.1472	356.0712	425.4658	449.0998	523.2499	663.8285	692.9824	755.7429	816.2661	913.7406	937.5281	960.3519	986.018	1056.6469	1073.9487	1115.695	1129.1516	1142.2965	1165.5321	1184.433	1248.215	1308.0571	1346.8394	1357.5617	1394.6918	1419.1144	1474.1424	1495.9244	1506.8065	1828.2896	2967.0696	2982.518	3083.475	3113.8031	3121.779	3139.5796	3205.4027
O=C1COCC2CN12	O=C1COC[C@H]2CN12	
InChI=1S/C5H7NO2/c7-5-3-8-2-4-1-6(4)5/h4H,1-3H2	InChI=1S/C5H7NO2/c7-5-3-8-2-4-1-6(4)5/h4H,1-3H2/t4-,6?/m1/s1
