18
gdb 24129	3.73382	1.13426	1.08747	1.5349	78.24	-0.2212	0.0095	0.2307	1177.3593	0.149052	-401.939133	-401.931304	-401.93036	-401.97235	29.58	
C	-0.2149311029	 1.6279984685	-0.726078709	-0.250252
N	-0.8291585547	 0.3667420863	-0.277348366	-0.075401
C	 0.011714307	-0.8108531843	-0.1029948365	-0.223745
C	-0.5731251009	-0.1113940317	 1.0763933312	-0.224334
C	 1.176248613	 1.9508079354	-0.2835726953	 0.327144
C	 2.4009371843	 1.8069346393	-0.8650341766	-0.261693
C	 3.3662190064	 2.3071852895	 0.0679145613	-0.171022
C	 2.6580491206	 2.7182809852	 1.1505108153	-0.019764
O	 1.3286257926	 2.5108477208	 0.9577774087	-0.170048
H	-0.2219705453	 1.6096824639	-1.8209418522	 0.120633
H	-0.8854218085	 2.4346200555	-0.4094344151	 0.12346
H	-0.4142006484	-1.743585841	-0.462629225	 0.112247
H	 1.0847704512	-0.707008283	-0.249665101	 0.115315
H	 0.1103307359	 0.4512012995	 1.7068598983	 0.126044
H	-1.4361615476	-0.5243648349	 1.5918966376	 0.112536
H	 2.5900544033	 1.4028055381	-1.8476739397	 0.1115
H	 4.4364820053	 2.3569833114	-0.0565364499	 0.112818
H	 2.9299628888	 3.1631901214	 2.0935478841	 0.134564
48.4345	108.326	123.364	278.8504	309.8085	367.9389	447.1259	615.9888	638.2204	739.8466	750.3071	779.1234	818.1066	831.685	857.5603	872.1864	902.0434	932.492	972.4812	1022.8994	1034.0527	1053.0795	1110.3785	1115.6542	1124.7925	1172.8921	1181.0373	1187.1165	1222.0864	1244.6016	1310.1472	1315.115	1371.3117	1419.0749	1466.6037	1491.2979	1519.2201	1531.4337	1626.095	3041.6827	3086.5013	3100.7199	3109.08	3181.9908	3197.8022	3249.5504	3261.0893	3284.9243
C(N1CC1)C1=CC=CO1	C(N1CC1)c1ccco1	
InChI=1S/C7H9NO/c1-2-7(9-5-1)6-8-3-4-8/h1-2,5H,3-4,6H2	InChI=1S/C7H9NO/c1-2-7(9-5-1)6-8-3-4-8/h1-2,5H,3-4,6H2
