19
gdb 59857	2.93246	1.05949	0.87737	2.9166	75.2	-0.2467	-0.0623	0.1845	1364.8201	0.157942	-456.376711	-456.366749	-456.365805	-456.412176	36.679	
C	-0.0350698945	 1.4361169767	 0.2770945218	-0.388591
C	-0.1810796097	-0.0874352741	 0.2717700681	 0.151231
O	-0.4765735319	-0.5696193569	 1.5664156983	-0.451396
C	-1.2306778213	-0.530439538	-0.7828469815	-0.338875
C	-1.4253886878	-2.0266553024	-0.8141537307	 0.396166
O	-0.8199087399	-2.7624046309	-1.5643380324	-0.326676
C	-2.4355655679	-2.6402466202	 0.1584347085	 0.289557
N	-2.6518255903	-3.9555801238	-0.0893321135	-0.528687
N	-2.9599158712	-1.8807330587	 1.0522726656	-0.536962
H	 0.6995354171	 1.7280059368	 1.0323758743	 0.124109
H	 0.29685798	 1.8131971594	-0.6964620113	 0.105311
H	-0.9885801764	 1.9130535457	 0.5288338896	 0.114115
H	 0.781520404	-0.5324048331	-0.0191616583	 0.087849
H	-1.4287576531	-0.766029643	 1.6154483139	 0.295922
H	-2.1824523156	-0.0392884214	-0.5626708263	 0.133025
H	-0.8834774045	-0.2260293182	-1.7734881026	 0.123412
H	-2.018639642	-4.3912142433	-0.7441516769	 0.276867
H	-3.1312024503	-4.5336159766	 0.5791595494	 0.258933
H	-3.5953066147	-2.3856350979	 1.671590204	 0.214689
38.08	73.1377	107.8556	192.7618	241.046	273.3639	309.7867	330.8666	386.2109	421.6659	459.3472	486.4964	523.6397	567.2459	570.9639	617.3937	711.0807	809.6738	858.7057	879.5385	913.666	940.5454	1044.9314	1088.9395	1106.0491	1125.556	1151.7276	1167.5118	1245.0757	1304.6681	1346.0869	1388.1167	1402.2725	1435.0223	1458.593	1467.9617	1494.2766	1495.7186	1598.8652	1711.3723	1792.0808	3000.3448	3030.6509	3064.1443	3100.9878	3118.1884	3124.5239	3462.8702	3576.2771	3596.9298	3715.757
CC(O)CC(=O)C(N)=N	C[C@@H](O)CC(=O)C(=N)N	
InChI=1S/C5H10N2O2/c1-3(8)2-4(9)5(6)7/h3,8H,2H2,1H3,(H3,6,7)	InChI=1S/C5H10N2O2/c1-3(8)2-4(9)5(6)7/h3,8H,2H2,1H3,(H3,6,7)/t3-/m1/s1
