13
gdb 25227	3.47625	1.67799	1.13987	4.2778	66.78	-0.2495	-0.0261	0.2234	968.0625	0.092236	-452.769753	-452.763453	-452.762509	-452.800595	24.035	
N	-0.021671211	 1.3205184101	 0.0104733473	-0.532107
C	-0.0716661748	 0.061851088	 0.0037850928	 0.354658
O	 1.0549682356	-0.7705643765	-0.0067588799	-0.277451
C	 0.716522978	-2.1751787203	-0.0127323374	-0.196622
C	-0.7660859452	-2.1087656471	-0.0045597874	 0.295132
C	-1.2164566236	-0.8424303281	 0.0048093298	 0.152431
N	-2.6042021353	-0.8411142989	 0.0121334927	-0.322897
C	-2.8918463352	-2.1009939967	 0.0066644722	 0.035969
O	-1.809082844	-2.9617097328	-0.0037410512	-0.194779
H	 0.946415715	 1.6447386791	 0.0071663839	 0.229346
H	 1.1429169277	-2.6435135571	-0.9079039796	 0.146077
H	 1.1522850662	-2.6533401145	 0.8726798576	 0.146077
H	-3.8620867536	-2.571736515	 0.0091724593	 0.164166
161.7007	203.6722	242.6769	309.1586	526.5567	609.3494	625.4172	639.9374	645.0372	768.9244	779.072	829.0329	874.3863	930.5653	949.087	1014.2532	1031.5061	1046.1099	1103.0653	1177.6869	1211.4711	1288.9433	1320.7475	1413.7185	1445.4244	1503.2592	1534.7485	1644.9991	1794.3081	3028.2567	3063.5179	3284.4881	3485.7926
N=C1OCC2=C1N=CO2	[NH][C]1OCc2c1nco2	
InChI=1S/C5H4N2O2/c6-5-4-3(1-8-5)9-2-7-4/h2,6H,1H2	InChI=1S/C5H4N2O2/c6-5-4-3(1-8-5)9-2-7-4/h2,6H,1H2
