21
gdb 70883	2.41323	1.58075	1.37921	0.8517	83.13	-0.225	0.0786	0.3036	1083.1142	0.181081	-387.054179	-387.045025	-387.044081	-387.087233	35.526	
C	-0.1238019855	 1.4411929751	 0.0026268336	-0.50466
C	 0.0228273501	-0.0512251285	-0.021310814	 0.30483
C	 0.974876282	-0.8715288395	-0.8947882802	-0.353918
C	 0.1263808821	-2.100179593	-0.4617788133	 0.341966
O	-0.0664984378	-3.1938934571	-1.2938779727	-0.481728
C	 0.429376189	-2.2559149063	 1.0556895503	-0.304497
C	-0.3090793788	-0.9276761386	 1.2077035622	-0.1587
C	-1.0568813593	-1.1102269759	-0.0970224889	 0.261057
C	-2.5029298985	-1.090201605	-0.4660909721	-0.529349
H	 0.7688627561	 1.9239683445	 0.4182241666	 0.118416
H	-0.2807905115	 1.8444073351	-1.004519809	 0.116134
H	-0.9773903515	 1.7456259856	 0.6183917531	 0.115703
H	 0.8250510767	-0.6495844632	-1.9560456534	 0.094978
H	 2.0473798511	-0.8772608751	-0.6593938613	 0.075894
H	 0.7745689236	-3.654188436	-1.3933327772	 0.279066
H	-0.1439761285	-3.0833923881	 1.4837577451	 0.099287
H	 1.4797166031	-2.3249858153	 1.3655664916	 0.078757
H	-0.6829093174	-0.4750241962	 2.1183250375	 0.078704
H	-3.0025478171	-0.2167053843	-0.0325947222	 0.118361
H	-2.6401244186	-1.0464343096	-1.5525883565	 0.124526
H	-3.0245552195	-1.9836202787	-0.1044163591	 0.125173
166.8234	167.3581	176.0857	185.2532	204.8269	210.6527	288.0662	366.3437	399.0316	466.6198	517.3062	561.7546	631.3703	666.8455	732.4072	754.3472	856.1481	885.2626	917.777	931.2953	963.3562	982.0839	1035.1944	1068.377	1080.0606	1113.2259	1127.6396	1141.2781	1162.4401	1189.3202	1211.1697	1242.3065	1249.0242	1283.7795	1341.8035	1371.9585	1411.7318	1417.1988	1466.7344	1480.5429	1487.9583	1490.42	1496.2536	1501.9963	1518.9811	3009.7163	3018.1947	3020.1668	3023.497	3077.1261	3080.624	3085.6201	3087.3723	3090.0698	3092.6981	3184.1393	3795.5605
CC12CC3(O)CC1C23C	C[C@@]12C[C@@]3(O)C[C@@H]1[C@@]23C	
InChI=1S/C8H12O/c1-6-4-8(9)3-5(6)7(6,8)2/h5,9H,3-4H2,1-2H3	InChI=1S/C8H12O/c1-6-4-8(9)3-5(6)7(6,8)2/h5,9H,3-4H2,1-2H3/t5-,6+,7-,8-/m0/s1
