18
gdb 12845	2.90548	2.40263	1.78643	1.6665	72.31	-0.2411	0.0199	0.261	822.0994	0.154822	-347.802543	-347.795474	-347.794529	-347.833478	27.727	
C	-0.1481196694	 1.5521219069	 0.0012829142	-0.479465
C	 0.0040914916	 0.038074619	-0.0257974983	 0.245768
C	-1.2076428034	-0.8100787414	 0.4465607273	-0.106503
O	-0.3792980662	-1.5630832617	 1.3538422229	-0.29657
C	 0.7595104701	-0.7031549672	 1.1197047779	 0.093972
C	 1.9503806458	-1.4518070339	 0.5059158387	-0.281706
C	 1.7082157355	-1.3063403666	-0.9800861524	-0.066156
C	 0.6773411439	-0.5088395197	-1.2602851988	-0.129009
H	 0.8189033647	 2.0481388711	-0.1327204314	 0.121259
H	-0.8084114404	 1.894696148	-0.8040091375	 0.11792
H	-0.5770789216	 1.8909057915	 0.950128974	 0.118072
H	-1.9778362415	-0.2343783721	 0.9796297104	 0.089152
H	-1.6883906075	-1.4501842794	-0.3024268479	 0.099509
H	 1.0099340611	-0.1232468845	 2.015903795	 0.066055
H	 2.9166937994	-1.0252802206	 0.8072035044	 0.101655
H	 1.9441913505	-2.4963553345	 0.839439446	 0.121438
H	 2.3240882378	-1.8055250086	-1.7207925954	 0.094544
H	 0.3297888597	-0.2637564762	-2.2591144093	 0.090065
127.1372	214.5206	233.2436	254.069	336.5975	406.787	471.4822	613.608	667.0676	755.3373	766.618	854.1157	879.229	897.9705	925.4264	955.3166	972.2329	990.0455	1012.7518	1025.4477	1052.4188	1109.7128	1154.8325	1170.9714	1182.2572	1205.8494	1248.2308	1272.5401	1312.1585	1328.5316	1359.2679	1393.4114	1410.5726	1465.1245	1492.3734	1495.2437	1519.5582	1678.6176	2993.913	3014.0018	3025.0094	3037.1652	3054.7445	3061.1751	3090.356	3100.3132	3172.4819	3198.9578
CC12COC1CC=C2	C[C@]12CO[C@H]1CC=C2	
InChI=1S/C7H10O/c1-7-4-2-3-6(7)8-5-7/h2,4,6H,3,5H2,1H3	InChI=1S/C7H10O/c1-7-4-2-3-6(7)8-5-7/h2,4,6H,3,5H2,1H3/t6-,7-/m0/s1
