18
gdb 68946	2.32604	1.68516	1.3209	3.3366	76.92	-0.2468	-0.0267	0.2201	1036.3979	0.147104	-401.906544	-401.89838	-401.897435	-401.939161	31.267	
C	-0.1112918211	 1.5671110243	 0.1390383228	-0.471508
C	-0.068948262	 0.0704048567	 0.0318471006	 0.264765
N	 1.1182052012	-0.5720653126	-0.4970810327	-0.407127
C	 0.7089085013	-0.9741180463	 0.8612937744	 0.171384
C	 1.6456861728	-0.7300298084	 1.9733846643	 0.088898
O	 1.5493156912	-1.248191213	 3.0606023246	-0.265613
C	-0.4976335218	-1.8840662728	 0.8690648988	-0.123276
C	-1.6907195119	-1.1768928494	 1.4531196866	-0.283337
C	-1.2752892708	-0.8544131217	 0.0402846924	-0.121084
H	 0.8836158752	 1.974533322	 0.3306347189	 0.137706
H	-0.4743804799	 2.0003172291	-0.8005221587	 0.129169
H	-0.7882756949	 1.8859164567	 0.9372202963	 0.128429
H	 0.9062938033	-1.3070612522	-1.1690064817	 0.233659
H	 2.4596519897	-0.0136284952	 1.7302000689	 0.079982
H	-0.4683664561	-2.9586739482	 0.7353982292	 0.099857
H	-2.5907913256	-1.7765674044	 1.5532957404	 0.118149
H	-1.5508088306	-0.4491941396	 2.2466389853	 0.125042
H	-1.9231672901	-1.037498935	-0.8097635002	 0.094904
94.2272	150.9934	195.6844	218.7563	228.0338	307.6967	428.7295	483.9163	500.8598	577.228	621.7168	722.8203	763.3059	769.4628	820.1458	888.5024	940.6437	955.6385	1010.2278	1037.6951	1040.1578	1063.0138	1079.7072	1094.288	1098.4722	1104.5836	1134.7342	1180.3032	1252.7101	1268.9552	1329.7497	1359.427	1388.9541	1411.191	1445.829	1483.728	1489.9847	1494.1966	1804.1244	2903.4022	3034.8174	3096.8488	3121.5502	3131.5877	3172.8336	3188.0531	3206.7618	3474.7542
CC12NC1(C=O)C1CC21	C[C@@]12N[C@]1(C=O)[C@H]1C[C@@H]21	
InChI=1S/C7H9NO/c1-6-4-2-5(4)7(6,3-9)8-6/h3-5,8H,2H2,1H3	InChI=1S/C7H9NO/c1-6-4-2-5(4)7(6,3-9)8-6/h3-5,8H,2H2,1H3/t4-,5+,6+,7-/m1/s1
