25
gdb 112967	3.71101	0.79283	0.7118	0.99	90.36	-0.2427	0.0854	0.3281	1723.392	0.226983	-389.48084	-389.470118	-389.469174	-389.516835	39.597	
C	-0.0839942617	 1.3492604038	-0.2379379006	-0.234939
O	-0.049830241	 0.0428229679	 0.2864853518	-0.247457
C	-1.2959808382	-0.6187562694	 0.2255649841	 0.135898
C	-1.6228579487	-1.2286278081	-1.1701648325	-0.282641
C	-1.045595588	-2.5885079349	-0.6765765947	 0.084411
C	-1.1377871417	-2.0501788144	 0.7818881899	-0.273817
C	-1.7843618876	-3.8762369816	-1.0343088872	 0.017621
C	-1.7691911805	-4.1238979584	-2.5490153219	-0.389606
C	-1.2050482547	-5.0770187373	-0.2736701141	-0.389511
H	 0.9176404751	 1.7716153106	-0.1248765166	 0.124818
H	-0.3538696313	 1.3663570128	-1.304686513	 0.103952
H	-0.801396804	 1.9851986545	 0.3052699687	 0.101717
H	-2.075641182	 0.0129384458	 0.6766894477	 0.055811
H	-2.7027519014	-1.2814931253	-1.3463624531	 0.093706
H	-1.1493189716	-0.7556834368	-2.0340541774	 0.099583
H	 0.0056283672	-2.6780000997	-0.9743984754	 0.07189
H	-0.2795721604	-2.1960889723	 1.4409673204	 0.107619
H	-2.0450919812	-2.391545024	 1.2907230431	 0.094549
H	-2.8328407579	-3.751355986	-0.7218785549	 0.06135
H	-2.3356687799	-5.0242885285	-2.8092567692	 0.107777
H	-2.2054452338	-3.283644695	-3.0988078237	 0.11311
H	-0.7431473362	-4.2618852527	-2.9110477363	 0.110781
H	-1.2332281048	-4.919258806	 0.809289203	 0.114747
H	-1.7645350071	-5.9924859133	-0.4932306102	 0.107481
H	-0.1600732386	-5.2510335115	-0.5574259479	 0.111149
51.1539	92.0183	110.8052	151.9834	202.1342	221.435	234.4702	270.2964	275.817	329.771	388.1415	419.6392	466.2101	485.098	674.8448	796.5398	826.5394	861.1662	901.0157	927.0229	936.3188	959.5387	974.3067	1001.3338	1008.4003	1074.0283	1087.149	1142.1557	1143.469	1169.5258	1185.1299	1193.585	1220.6662	1231.7942	1254.7831	1270.6052	1278.1973	1292.0642	1320.0055	1350.8358	1382.396	1392.6584	1398.6578	1419.757	1456.2865	1479.288	1481.9203	1486.9362	1487.1117	1491.6346	1504.1087	1509.9599	1510.7397	2970.6676	2980.8774	2984.3862	3018.7422	3022.5312	3026.1551	3038.3198	3044.3117	3055.1255	3086.6124	3092.308	3098.1591	3100.349	3104.8649	3111.2073	3117.9269
COC1CC(C1)C(C)C	CO[C@H]1C[C@@H](C1)C(C)C	
InChI=1S/C8H16O/c1-6(2)7-4-8(5-7)9-3/h6-8H,4-5H2,1-3H3	InChI=1S/C8H16O/c1-6(2)7-4-8(5-7)9-3/h6-8H,4-5H2,1-3H3/t7-,8-
