20
gdb 37360	2.45182	1.93875	1.88974	1.4028	76.7	-0.2236	0.0826	0.3062	897.3662	0.175524	-403.119172	-403.112575	-403.111631	-403.149674	28.198	
C	 0.0410311932	 1.4487652205	-0.1337260828	-0.262603
C	 1.302870741	 0.6663378493	-0.0335201219	-0.021817
C	 1.9800616528	 0.3523251012	 1.3096724447	-0.051624
C	 1.3490849416	-1.0290695467	 1.6042465657	-0.216203
C	-0.1137796366	-0.6468987055	 1.3203462447	 0.000278
C	-0.5977166052	 0.2493689924	 2.468728005	-0.087167
O	 0.2094671463	 1.4008643805	 2.6930207418	-0.261154
C	 1.6115206783	 1.2775313621	 2.4783963835	-0.079795
N	-0.0114525963	-0.0242799924	-0.0338262068	-0.113179
H	-0.2725683148	 2.063227711	 0.6987769657	 0.147187
H	-0.2572060239	 1.8165300557	-1.113123452	 0.10749
H	 1.9108479025	 0.5235692902	-0.924637682	 0.086104
H	 3.0690888831	 0.3283096463	 1.2154343994	 0.069962
H	 1.6957865584	-1.7874083565	 0.897034686	 0.105502
H	 1.5235650356	-1.389447666	 2.6233396735	 0.092237
H	-0.7890820565	-1.5050921566	 1.2529986497	 0.079463
H	-1.6040250047	 0.633432752	 2.2701276135	 0.113025
H	-0.6506166204	-0.3683408443	 3.3807441653	 0.092669
H	 2.1041805974	 0.9000497313	 3.3899582802	 0.090371
H	 1.9678841982	 2.2983783155	 2.3055322268	 0.109256
218.0353	231.662	318.3154	352.0412	411.9062	490.4781	551.0836	589.2323	688.2135	743.852	790.2604	821.12	833.0703	863.6581	885.7239	938.6077	953.4051	972.7176	1003.8525	1014.0649	1064.3117	1086.321	1098.5585	1109.9842	1118.6864	1142.0748	1162.3892	1202.9249	1216.2876	1252.6626	1273.0145	1281.9597	1313.9827	1325.8004	1344.6306	1347.6563	1376.619	1396.8026	1423.8283	1491.2311	1499.2559	1501.8252	1514.0051	2963.2108	2969.2959	3047.3305	3063.9511	3067.6575	3069.6405	3076.5424	3101.0763	3112.8995	3122.6921	3235.7932
C1C2C3CC(COC3)N12	C1[C@H]2[C@@H]3C[C@@H](COC3)N12	
InChI=1S/C7H11NO/c1-5-3-9-4-6(1)8-2-7(5)8/h5-7H,1-4H2	InChI=1S/C7H11NO/c1-5-3-9-4-6(1)8-2-7(5)8/h5-7H,1-4H2/t5-,6+,7+,8?/m1/s1
