20
gdb 41958	2.31394	1.965	1.66111	2.0136	73.83	-0.2124	0.0656	0.278	938.9934	0.175601	-440.27574	-440.268754	-440.26781	-440.306746	28.876	
C	-0.0130298065	 1.5668541485	-0.0075539623	-0.075072
O	 1.2728975209	 2.1551107196	-0.0890190512	-0.235845
C	 2.0711324588	 1.6161918513	-1.1276138505	-0.075072
C	 2.1297557854	 0.0800568584	-1.0944397208	-0.026643
C	 2.8076497238	-0.4921875834	 0.1583933672	-0.055805
O	 2.0998964528	-0.1865261509	 1.3466867121	-0.244778
C	 0.7304840633	-0.5413625021	 1.2746898596	-0.055805
C	 0.0387189768	 0.0305570439	 0.0293120837	-0.026643
N	 0.7722743691	-0.4959165427	-1.137334263	-0.314819
H	-0.4777531233	 1.9773080592	 0.8953197347	 0.106571
H	-0.6286673849	 1.8730556527	-0.8743728916	 0.073681
H	 1.6766048025	 1.927624964	-2.1132613889	 0.073681
H	 3.0648276034	 2.0611712711	-1.0085170957	 0.106571
H	 2.6906826201	-0.2678742343	-1.9708433349	 0.074923
H	 2.8927539264	-1.5838312138	 0.0311997738	 0.091251
H	 3.8111846835	-0.0750358018	 0.2858027437	 0.103664
H	 0.6176366333	-1.6376921143	 1.2538729078	 0.091251
H	 0.2682848347	-0.1589129065	 2.1898048983	 0.103664
H	-0.9882286879	-0.3549618545	 0.0062529534	 0.074923
H	 0.3058894779	-0.2002766343	-1.9921451752	 0.210301
166.5699	240.1296	268.2476	349.8552	406.7058	419.1542	427.7219	473.3592	591.6773	731.1816	782.7034	795.218	825.6839	880.9839	914.4559	928.3973	956.6402	980.4252	991.8636	1012.437	1047.7299	1123.4015	1134.0252	1147.3719	1150.0886	1166.3875	1239.7923	1244.4242	1292.7805	1300.8994	1311.9883	1326.5707	1359.9677	1370.7307	1391.9372	1398.427	1412.3767	1436.1943	1471.3472	1479.1747	1490.012	1495.0299	1498.9476	2923.2928	2931.1249	2969.9109	2975.0917	3034.2785	3034.8343	3066.8418	3068.761	3082.5435	3085.0474	3475.0144
C1OCC2COCC1N2	C1OC[C@H]2COC[C@@H]1N2	
InChI=1S/C6H11NO2/c1-5-2-9-4-6(7-5)3-8-1/h5-7H,1-4H2	InChI=1S/C6H11NO2/c1-5-2-9-4-6(7-5)3-8-1/h5-7H,1-4H2/t5-,6+
