14
gdb 61324	7.01281	0.58595	0.55256	6.0937	83.48	-0.2808	-0.0429	0.2379	1848.2518	0.098217	-399.493054	-399.483519	-399.482575	-399.52831	33.158	
O	-0.0895446251	 1.438050565	 0.0140774995	-0.402342
C	 0.0035961533	 0.02673116	 0.037249971	-0.043251
C	 0.6534579258	-0.5305750579	-1.2654777882	-0.391307
C	-0.0645695912	-0.1262629461	-2.4597719962	 0.082622
C	-0.6733199781	 0.2043525985	-3.4491267262	 0.067963
C	-1.3573853472	 0.5767420528	-4.5701705048	 0.207824
N	-1.9385397467	 0.891531532	-5.5255925376	-0.336622
C	 0.7351143342	-0.4673716735	 1.2052547149	 0.28644
C	 1.3796455452	-0.8469286172	 2.1458970605	-0.427037
H	 0.7797556862	 1.7998471354	 0.2206696853	 0.292536
H	-1.0320393879	-0.3288704735	 0.0755114292	 0.140504
H	 1.6920414443	-0.1809233689	-1.3169375497	 0.150379
H	 0.6921343946	-1.6247915783	-1.2050243729	 0.160756
H	 1.9274642225	-1.1857057582	 2.9911255652	 0.211536
45.97	62.8165	152.443	158.2514	196.7636	232.7972	297.2469	357.4631	369.6024	446.5166	531.3006	567.7664	579.4286	583.3217	656.8104	686.3963	739.9505	848.4766	945.1308	1022.1231	1081.605	1174.2807	1193.2133	1273.6785	1307.7759	1351.7993	1421.9019	1452.5834	2235.9562	2268.1865	2403.7735	3031.555	3055.0143	3075.6313	3499.9115	3804.7571
OC(CC#CC#N)C#C	O[C@@H](CC#CC#N)C#C	
InChI=1S/C7H5NO/c1-2-7(9)5-3-4-6-8/h1,7,9H,5H2	InChI=1S/C7H5NO/c1-2-7(9)5-3-4-6-8/h1,7,9H,5H2/t7-/m1/s1
