13
gdb 11628	3.49096	1.90349	1.51835	4.9793	64.45	-0.2688	-0.0156	0.2532	823.4271	0.096407	-361.442045	-361.435583	-361.434639	-361.472771	24.201	
O	-0.0255683139	-0.0120327732	 0.0045395595	-0.294701
C	-0.0373679107	 1.1722919123	 0.0114323858	 0.438915
C	-0.9919977379	 2.3706480009	 0.0273596894	-0.182762
C	-0.0117625677	 2.9714470088	 1.0938741971	-0.258506
C	 0.9581470058	 2.3818887298	 0.0083104194	 0.080269
C	-0.0327873608	 2.9832795239	-1.0514689255	-0.258504
C	 2.3902503675	 2.4085125676	-0.0055823037	 0.167485
N	 3.5467832224	 2.4137841513	-0.0168920243	-0.341728
H	-2.0774971862	 2.3862914783	 0.0380783969	 0.116773
H	-0.0096087678	 4.0620229459	 1.1393835252	 0.129729
H	 0.0119828559	 2.5154422563	 2.0838748033	 0.136642
H	-0.0284973524	 2.5382220054	-2.046713099	 0.136646
H	-0.0314066442	 4.0742912927	-1.0849878942	 0.12974
135.259	174.6025	196.8514	378.8535	506.7721	525.6023	531.9807	621.2392	743.1398	754.5972	790.7874	805.5476	926.3682	943.7802	989.8629	1013.6996	1035.9476	1076.1749	1136.2863	1137.0271	1188.7393	1199.5757	1236.97	1301.7308	1495.459	1530.6483	1940.3073	2352.0426	3078.5009	3079.4136	3156.3946	3156.8208	3176.8058
O=C1C2CC1(C2)C#N	O=C1[C@H]2C[C@@]1(C2)C#N	
InChI=1S/C6H5NO/c7-3-6-1-4(2-6)5(6)8/h4H,1-2H2	InChI=1S/C6H5NO/c7-3-6-1-4(2-6)5(6)8/h4H,1-2H2/t4-,6+
