20
gdb 59851	3.1363	0.88335	0.81136	1.276	79.47	-0.2368	-0.016	0.2208	1523.8688	0.170183	-436.525542	-436.515027	-436.514082	-436.562325	37.905	
C	-0.0354671534	 1.3200123154	-0.3071177379	-0.381217
C	 0.0495306982	-0.1310248573	 0.1823550934	 0.045622
C	 0.6896844643	-0.2311629048	 1.5721038991	-0.382009
N	-1.2689062869	-0.7507859425	 0.1819216151	-0.314549
C	-1.6112169599	-1.7942457505	-0.5930585286	 0.420323
O	-0.8811764484	-2.3741665238	-1.3883267419	-0.413939
C	-3.0662438147	-2.2344646891	-0.4079171499	 0.267059
N	-3.3363319145	-3.3404440462	-1.1466588019	-0.530113
N	-3.816441906	-1.564918456	 0.3861646572	-0.546038
H	 0.9603476411	 1.7727555247	-0.3413042558	 0.118073
H	-0.4714663435	 1.3684400291	-1.3085385482	 0.126591
H	-0.6553357298	 1.9248454331	 0.3650176895	 0.113946
H	 0.6390389309	-0.7162558896	-0.5291006825	 0.120709
H	 0.0975066068	 0.313550888	 2.3167748296	 0.113844
H	 0.7643488665	-1.2737132841	 1.8926576	 0.126654
H	 1.6950403335	 0.2011670771	 1.5637605591	 0.118199
H	-2.0149936769	-0.3933774848	 0.7672959398	 0.26287
H	-2.6128828922	-3.625158625	-1.7908533431	 0.275052
H	-4.2791432089	-3.6602524419	-1.2799741559	 0.253227
H	-4.7638851762	-1.9406886217	 0.4375896528	 0.205694
20.8681	72.7174	84.5043	143.8581	228.0608	250.5098	259.2872	276.0546	347.5987	408.4982	417.457	448.918	504.9053	546.18	586.8307	627.5742	664.8596	820.8476	848.0452	853.542	895.479	932.4246	948.976	989.1413	1088.3358	1142.5956	1144.3031	1186.5773	1192.8754	1240.5367	1361.929	1372.4273	1399.4742	1419.3094	1428.8651	1484.2406	1488.0589	1498.122	1507.393	1564.9613	1591.322	1723.8448	1773.0864	3030.1082	3034.0091	3077.5789	3096.8616	3109.7744	3117.9994	3120.7366	3465.2017	3559.83	3577.3588	3726.646
CC(C)NC(=O)C(N)=N	CC(C)NC(=O)C(=N)N	
InChI=1S/C5H11N3O/c1-3(2)8-5(9)4(6)7/h3H,1-2H3,(H3,6,7)(H,8,9)	InChI=1S/C5H11N3O/c1-3(2)8-5(9)4(6)7/h3H,1-2H3,(H3,6,7)(H,8,9)
