12
gdb 9986	2.81269	1.46204	0.96245	10.2428	77.88	-0.1882	-0.0529	0.1353	1102.9778	0.084039	-373.693699	-373.68533	-373.684386	-373.726962	28.631	
N	 0.0304469065	 0.8724628804	 0.1114939854	-0.520007
H	 0.0345507143	-0.1188211699	-0.0766265525	 0.276742
H	 0.8677439342	 1.3547415773	-0.1720753942	 0.290895
C	-1.1349770658	 1.5701791818	 0.0273952151	 0.133082
N	-2.317184927	 1.0189241393	 0.0323366561	-0.268785
C	-3.5845865843	 1.6488466033	 0.0339845579	-0.004285
C	-3.6019090628	 3.0421348927	 0.0397518156	 0.205099
N	-3.4980166225	 4.2039901904	 0.0436289099	-0.387357
C	-4.6982032133	 0.8082225396	 0.0132512122	 0.163056
N	-5.5908639144	 0.058650165	-0.003117834	-0.372252
H	-1.0850061911	 2.6519099328	 0.0179690361	 0.197145
H	-2.3759267338	 0.0061635772	 0.0485422224	 0.286668
100.572	114.925	125.8041	137.5589	282.8207	324.8994	363.1921	419.4358	479.6935	501.3431	562.6505	568.6736	600.6477	763.8506	821.3306	936.2426	1073.861	1225.8257	1246.0328	1346.6102	1393.3041	1468.8887	1653.9148	1745.076	2262.4815	2294.1299	3228.3649	3558.7217	3586.7003	3701.3314
[NH2+]=CN[C-](C#N)C#N	[NH2]=C[NH]=C(C#N)C#N	
InChI=1S/C4H3N4/c5-1-4(2-6)8-3-7/h3H,(H2,7,8)/q-1/p+1	InChI=1S/C4H4N4/c5-1-4(2-6)8-3-7/h3,8H,7H2
