15
gdb 129209	2.61722	1.75412	1.06424	3.265	84.57	-0.2276	-0.077	0.1507	1059.8341	0.115532	-412.965867	-412.958384	-412.95744	-412.999532	27.943	
N	-0.0254839984	 1.1792920939	-0.6473054149	-0.459254
C	-0.0162542804	 0.0424580244	-0.0729625698	 0.347609
N	 1.1979889139	-0.5299560373	 0.3664626546	-0.302755
N	 1.6065865723	-1.5543581342	 1.1264057581	-0.199031
C	 0.8197167758	-2.389040027	 1.7188444363	 0.004274
C	-0.614201225	-2.4868504235	 1.7270282393	-0.095765
C	-1.5213655565	-1.7706051771	 1.0327236894	-0.138861
C	-1.3323095552	-0.6891931934	 0.0713893703	 0.253851
N	-2.2792074027	-0.265817481	-0.6808965444	-0.438181
H	 0.9079287348	 1.5960246516	-0.684939685	 0.210241
H	 1.9963246795	 0.0119238596	 0.0658986327	 0.260793
H	 1.3573065043	-3.132424353	 2.3013734288	 0.119676
H	-1.0009033199	-3.2749181266	 2.3682748781	 0.108989
H	-2.5669683082	-2.0381237596	 1.1686842492	 0.106701
H	-3.1305840244	-0.8048167468	-0.5003486526	 0.221715
20.4701	61.509	317.2711	365.8504	375.6173	413.8952	460.1057	513.4465	600.5258	651.9908	659.5142	739.0435	767.7452	820.0811	863.656	898.1819	913.8652	940.4469	989.7994	1017.2163	1027.5915	1135.0837	1199.2846	1269.1568	1293.6233	1405.3483	1427.185	1457.7359	1508.5073	1629.4576	1645.3894	1685.4052	1703.6573	3144.856	3159.287	3174.1906	3430.9882	3439.9695	3585.7531
N=C1NN=CC=CC1=N	[NH][C]1NN=C[CH]C=C1[NH]	
InChI=1S/C5H6N4/c6-4-2-1-3-8-9-5(4)7/h1-3H,(H3,6,7,9)	InChI=1S/C5H6N4/c6-4-2-1-3-8-9-5(4)7/h1-3H,(H3,6,7,9)
