15
gdb 17052	5.30587	1.29981	1.24096	1.5954	62.47	-0.2548	-0.004	0.2508	973.6521	0.119275	-399.728159	-399.720947	-399.720003	-399.759921	26.647	
O	 0.0541421379	 1.4198475983	-0.124451318	-0.417032
C	 0.0517811748	 0.0270747495	 0.1601488405	-0.117309
C	-1.358586539	-0.5465923848	 0.1118408757	 0.028375
C	-2.0057382414	-0.8286588827	-1.2843456703	-0.177123
N	-1.0357732097	-2.002692073	-1.4014799222	-0.316205
C	-1.5321453238	-2.0965104842	 0.0433710028	-0.180361
C	-2.9345427136	-1.8280117085	-0.55407878	 0.444974
O	-4.0389155127	-2.2710392355	-0.5833313084	-0.320968
H	-0.0975863046	 1.5260615861	-1.0686336381	 0.285095
H	 0.7180298168	-0.5299734714	-0.5063299618	 0.120349
H	 0.4379852586	-0.0669067774	 1.1808419018	 0.113261
H	-2.0119572702	-0.0319165096	 0.8204427515	 0.097888
H	-2.1918622588	-0.1466837544	-2.112610159	 0.099721
H	-1.4330127838	-2.7512099963	-1.9758010239	 0.234411
H	-1.1697959007	-2.8598802959	 0.7293467695	 0.104923
87.6837	137.1522	181.4767	292.8154	329.1756	395.4062	486.3189	555.8651	691.8194	756.7655	783.2728	806.0968	851.3492	888.5248	986.6684	1009.7561	1063.5356	1068.25	1088.1294	1109.21	1129.4658	1162.3582	1183.7188	1187.575	1231.7433	1265.5059	1279.1966	1364.5139	1405.4683	1418.955	1505.2556	1910.5897	3043.9298	3082.0532	3098.0101	3136.527	3145.2189	3413.7621	3822.5597
OCC1C2NC1C2=O	OC[C@H]1[C@H]2N[C@@H]1C2=O	
InChI=1S/C5H7NO2/c7-1-2-3-5(8)4(2)6-3/h2-4,6-7H,1H2	InChI=1S/C5H7NO2/c7-1-2-3-5(8)4(2)6-3/h2-4,6-7H,1H2/t2-,3+,4-
