18
gdb 47866	2.22465	1.78294	1.16045	4.8808	73.91	-0.2491	-0.0573	0.1918	1078.1847	0.148783	-439.105098	-439.096784	-439.09584	-439.138803	30.784	
N	 0.0263349039	 1.0838085755	 0.5054935179	-0.459578
C	-0.0484740519	-0.0159518965	-0.1142452854	 0.282426
O	 0.8983600701	-0.4242808251	-1.0108530081	-0.258787
C	 1.4413453197	-1.7601457088	-1.0084293124	-0.067022
C	 0.5836489638	-2.8430950704	-0.3636875698	-0.241251
C	-0.781593696	-3.0707430851	-1.0288522261	-0.200253
C	-1.5953348247	-1.7633933682	-1.2057447437	-0.297849
C	-1.3456527099	-0.8309775643	-0.0345662241	 0.324986
O	-2.0951900961	-0.7163932871	 0.9007237959	-0.279188
H	 0.9243749331	 1.5318364637	 0.3042271856	 0.228567
H	 1.6293598514	-1.9930159566	-2.0621220935	 0.119975
H	 2.4115169008	-1.7115672732	-0.4985612133	 0.118464
H	 1.1684763909	-3.769511865	-0.3926785179	 0.11298
H	 0.4467928744	-2.6106384731	 0.7003638852	 0.132877
H	-0.6509856251	-3.5488851918	-2.005563014	 0.109311
H	-1.3564790982	-3.7656274562	-0.408941662	 0.122944
H	-1.2929763753	-1.2617491501	-2.130345169	 0.124944
H	-2.6646451109	-1.9774881077	-1.2532424453	 0.126455
51.6793	69.6629	154.1559	258.8476	301.8709	328.6399	387.0578	433.5316	517.7773	568.4255	590.7103	699.4231	790.512	813.7527	820.696	882.6871	932.882	946.4514	975.0032	999.6736	1064.4882	1099.2048	1117.8951	1169.1227	1212.8865	1221.0372	1278.4365	1292.717	1314.2526	1333.8878	1373.1269	1396.8349	1430.7727	1475.779	1487.586	1494.9098	1513.7812	1716.3319	1824.4358	3024.4973	3030.0549	3042.1775	3058.2849	3067.7529	3077.7153	3089.8565	3125.3494	3451.7763
N=C1OCCCCC1=O	[NH][C]1OCCCCC1=O	
InChI=1S/C6H9NO2/c7-6-5(8)3-1-2-4-9-6/h7H,1-4H2	InChI=1S/C6H9NO2/c7-6-5(8)3-1-2-4-9-6/h7H,1-4H2
