21
gdb 109588	2.08913	1.48454	1.09128	3.3697	73.88	-0.2422	0.0397	0.2819	1203.1558	0.181955	-461.347378	-461.337832	-461.336888	-461.381587	36.568	
C	 0.109191866	 1.6678675639	 0.0565828729	-0.393217
C	 0.15193542	 0.1400030022	-0.0515083005	-0.168321
C	 0.7425028563	-0.5131464008	 1.1990784721	-0.067894
C	-0.2202417247	-0.6252410334	 2.4425081762	 0.128752
O	-1.425912945	 0.0845123467	 2.4342593003	-0.430232
C	-0.3658728404	-2.1558956881	 2.1786511494	 0.047314
O	-1.5753299552	-2.4207336305	 1.4926506295	-0.450053
C	 0.8326242323	-2.0670272901	 1.1845775261	 0.046846
O	 0.5777130004	-2.6567905193	-0.0827990327	-0.423598
H	 1.1139461943	 2.0806962875	 0.203636843	 0.105276
H	-0.3022955934	 2.113950874	-0.8545083642	 0.105576
H	-0.5130651783	 1.9752971363	 0.9005582521	 0.141341
H	-0.8587887154	-0.2417398016	-0.2315804073	 0.087791
H	 0.7486586728	-0.1622977481	-0.9192087946	 0.101626
H	 1.7002233248	-0.035694797	 1.431305104	 0.065699
H	 0.2984724762	-0.4061841706	 3.3809121014	 0.076554
H	-2.0454411241	-0.4803934083	 1.9478822445	 0.292179
H	-0.2757561744	-2.829927882	 3.0377991614	 0.06774
H	-1.3152615502	-2.6522773737	 0.5865461047	 0.293864
H	 1.7688918476	-2.4438075885	 1.6091870809	 0.076461
H	 0.8591464802	-3.5770321287	-0.0552258289	 0.296295
57.1319	126.0642	172.0939	216.617	264.0958	276.2434	291.5088	297.281	315.8224	487.6586	493.7522	533.7098	562.9176	614.4231	657.4885	756.2639	790.998	806.957	856.6232	892.7798	923.678	985.3732	1050.3779	1061.7709	1119.7589	1126.5824	1134.0634	1160.3884	1167.7809	1225.172	1244.1155	1255.9748	1288.5039	1296.0901	1326.0202	1328.3668	1353.5666	1386.4612	1407.9844	1411.3084	1418.5586	1450.5056	1488.6237	1498.1466	1516.3628	3031.7067	3032.4966	3039.4851	3042.9959	3049.5191	3065.8163	3075.3703	3096.6267	3127.2807	3679.6182	3713.1884	3818.7642
CCC1C(O)C(O)C1O	CC[C@H]1[C@@H](O)[C@@H](O)[C@H]1O	
InChI=1S/C6H12O3/c1-2-3-4(7)6(9)5(3)8/h3-9H,2H2,1H3	InChI=1S/C6H12O3/c1-2-3-4(7)6(9)5(3)8/h3-9H,2H2,1H3/t3-,4+,5-,6+
