19
gdb 98851	3.08011	1.13667	0.97316	2.716	72.41	-0.2537	0.0011	0.2548	1275.7622	0.15889	-460.186056	-460.176883	-460.175939	-460.220848	33.235	
C	 0.0038958273	 1.4129008849	-0.1860992059	-0.242903
O	 0.2478378446	 0.0033584154	-0.0682750258	-0.231635
C	 0.4875431566	-0.6434898499	-1.2199622072	 0.480596
O	 0.505960567	-0.0832573241	-2.2982535499	-0.394002
C	 0.6986195127	-2.1156074002	-1.0042261921	-0.208452
C	-0.5749017166	-2.949228987	-1.3883453816	-0.231026
C	 0.0381292519	-3.2179531243	-2.7861474992	-0.254353
C	 1.4242721282	-2.8112991841	-2.2139419381	 0.167674
O	 2.3229305111	-2.0875021222	-2.9931836211	-0.43484
H	 0.8652256786	 1.9151196738	-0.6328800934	 0.145055
H	-0.8746654924	 1.6012007968	-0.807975038	 0.142276
H	-0.1628879803	 1.7690198745	 0.8302036959	 0.136898
H	 1.1011096536	-2.2846930342	-0.0048190911	 0.094259
H	-0.6414394139	-3.8484665234	-0.7722000256	 0.113086
H	-1.5337499125	-2.4292800658	-1.3498575703	 0.112515
H	-0.0637903052	-4.219282524	-3.209817154	 0.099427
H	-0.3018470145	-2.4815447821	-3.5184477117	 0.118303
H	 1.9636605514	-3.6886745834	-1.8439018909	 0.091982
H	 1.8757419526	-1.2590111107	-3.2207234599	 0.295138
36.6661	118.1619	132.5621	150.5667	193.6793	267.93	280.5001	360.9907	426.2912	503.0714	584.3006	624.2098	722.013	756.4232	772.0347	859.1495	889.8045	923.8265	964.431	980.7013	1043.5375	1064.4169	1103.2187	1157.9054	1176.9662	1179.9361	1203.2731	1224.1051	1232.5042	1255.2783	1259.896	1271.2798	1344.8002	1386.0868	1460.0842	1474.9433	1481.3372	1482.4053	1496.2359	1497.1266	1771.0862	3054.5478	3062.8114	3068.411	3073.5722	3105.0853	3117.9509	3130.6406	3133.6106	3162.8909	3721.3269
COC(=O)C1CCC1O	COC(=O)[C@H]1CC[C@H]1O	
InChI=1S/C6H10O3/c1-9-6(8)4-2-3-5(4)7/h4-5,7H,2-3H2,1H3	InChI=1S/C6H10O3/c1-9-6(8)4-2-3-5(4)7/h4-5,7H,2-3H2,1H3/t4-,5+/m0/s1
