13
gdb 5043	3.73173	2.24083	1.52544	2.3072	71.06	-0.2438	-0.0947	0.1491	787.5476	0.097735	-357.644244	-357.638002	-357.637058	-357.674729	23.494	
N	-0.001864854	 1.1659691138	 0.5761822887	-0.489134
C	-0.0258133385	 0.0235440836	 0.0136982466	 0.288176
C	-1.3044770564	-0.6634478411	-0.2252053947	-0.079027
C	-1.5151174908	-1.9852429567	-0.0629841207	 0.005075
N	-0.63630789	-2.9495619602	 0.3969871167	-0.213434
C	 0.6424885143	-2.8575639055	 0.3062267984	 0.003097
C	 1.424803605	-1.8081828044	-0.3561699986	-0.012293
N	 1.1321828316	-0.5751300563	-0.5284831159	-0.232893
H	 0.9593150526	 1.5170837761	 0.5997445654	 0.223954
H	-2.1436572786	-0.0255173644	-0.4856239948	 0.131864
H	-2.519235017	-2.3723168748	-0.2169160852	 0.123773
H	 1.2194848454	-3.7044519138	 0.6848611405	 0.123686
H	 2.3809524365	-2.1445552862	-0.7688561462	 0.127156
90.9869	258.5882	306.5211	391.5226	412.5523	473.5355	614.596	633.7441	767.7816	808.3314	862.8347	875.1088	898.9021	927.9156	962.979	991.745	1003.1144	1018.227	1116.3538	1254.6332	1333.8113	1414.5204	1425.4331	1441.3971	1580.9572	1648.8186	1697.1813	1712.539	3078.4271	3104.9081	3159.9687	3187.1347	3445.8268
N=C1C=CN=CC=N1	[NH][C]1C=CN=CC=N1	
InChI=1S/C5H5N3/c6-5-1-2-7-3-4-8-5/h1-4,6H	InChI=1S/C5H5N3/c6-5-1-2-7-3-4-8-5/h1-4,6H
