16
gdb 50128	5.01769	0.96906	0.88566	3.5957	79.99	-0.2394	0.0105	0.2499	1278.5441	0.123114	-400.698691	-400.690449	-400.689505	-400.731836	30.787	
O	-0.0383381511	 0.0811831011	-0.3703773261	-0.319769
C	 0.0172790473	 1.2677184057	-0.1300483269	 0.133083
N	 1.143058997	 1.9195884365	 0.2656206101	-0.038397
C	 2.539781523	 1.4670490622	 0.1543642504	-0.229721
C	 2.9729371823	 2.94951243	 0.0602407298	 0.135435
C	 2.2229217424	 3.6344033209	-1.0713251131	-0.325072
C	 1.4833936265	 3.3296461618	 0.1952776213	-0.078322
C	 4.1147912655	 3.5040959398	 0.6966921659	 0.177661
C	 5.0949074555	 3.9516381855	 1.2323695083	-0.389841
H	-0.859157269	 1.9470585117	-0.1680455763	 0.074192
H	 2.8911272732	 0.9768949937	 1.0654507789	 0.137943
H	 2.7427882141	 0.8337871744	-0.7140059358	 0.133747
H	 2.4951577489	 4.6745582151	-1.2145501668	 0.139688
H	 1.9937596932	 3.0837900762	-1.9797335336	 0.127386
H	 1.0172998189	 4.0656995815	 0.8383145245	 0.128806
H	 5.9572499223	 4.3502146541	 1.7067320594	 0.193181
60.1865	122.8483	162.9669	222.9427	282.4252	356.1124	448.6508	462.7676	511.0861	556.0692	588.7599	611.6524	660.0063	757.0427	812.263	870.8128	919.2312	965.9324	983.9608	1033.2213	1036.6782	1077.6767	1080.685	1150.7217	1179.0547	1204.9557	1266.0045	1279.9072	1385.4656	1394.3618	1438.1886	1475.0926	1509.6004	1795.9569	2238.6298	2924.4018	3059.518	3116.1677	3119.4729	3196.2067	3220.5891	3502.5363
O=CN1CC2(CC12)C#C	O=CN1C[C@]2(C[C@@H]12)C#C	
InChI=1S/C7H7NO/c1-2-7-3-6(7)8(4-7)5-9/h1,5-6H,3-4H2	InChI=1S/C7H7NO/c1-2-7-3-6(7)8(4-7)5-9/h1,5-6H,3-4H2/t6-,7-/m1/s1
