21
gdb 68540	2.1131	1.85652	1.59888	1.1145	82.29	-0.225	0.0113	0.2363	1008.4575	0.18143	-387.057056	-387.048257	-387.047313	-387.089504	35.613	
C	-0.1393874391	 1.5116158973	 0.0242011428	-0.458933
C	-0.0273089575	-0.0187548158	 0.0117039177	 0.3223
C	-1.4353337465	-0.5803796825	-0.1941209057	-0.46094
C	 1.1801201852	-0.6141903545	-0.8444363041	-0.119027
C	 2.1256155362	-0.1785638735	 0.3283463	-0.294922
C	 0.8707000486	-0.6306331775	 1.1627887655	 0.352959
O	 0.6173246866	-0.2324407429	 2.4728779062	-0.498161
C	 0.8625687346	-2.126218525	 0.7933578586	-0.172166
C	 1.0680995615	-2.110236827	-0.5260036486	-0.083472
H	 0.8104820654	 2.0380037335	 0.115748593	 0.113954
H	-0.6215460069	 1.8571531418	-0.8971479243	 0.109853
H	-0.7704420564	 1.827240628	 0.8616804015	 0.127649
H	-1.860070116	-0.2062636113	-1.1326674544	 0.106313
H	-1.4574837486	-1.6697136711	-0.2210111102	 0.115357
H	-2.0942610073	-0.2462474419	 0.6150208484	 0.117942
H	 1.3571593057	-0.3040893398	-1.8733839889	 0.060159
H	 3.0338492092	-0.770978336	 0.4553508756	 0.086478
H	 2.3513313108	 0.8861517589	 0.3789949332	 0.099117
H	 1.2453606885	-0.6714183493	 3.0562747827	 0.279142
H	 0.6894984647	-2.9480270281	 1.475079549	 0.096242
H	 1.1215662514	-2.9267739633	-1.2325706583	 0.100157
145.9285	172.0205	194.8452	216.8714	257.1463	306.0691	373.974	389.4819	443.824	507.9309	538.8573	563.0203	634.5353	642.5042	710.9675	728.1187	821.2834	862.1336	901.915	916.8558	922.4165	952.4236	963.7074	1001.5411	1017.983	1044.963	1062.0527	1099.869	1134.5029	1184.2763	1188.6361	1208.1867	1245.53	1255.8559	1274.1195	1321.6644	1353.9899	1400.4599	1419.6855	1478.5008	1486.2581	1498.3711	1514.5592	1520.0712	1624.9216	3031.6953	3040.0505	3077.3348	3086.3271	3095.6867	3125.8391	3131.6875	3140.8358	3153.5284	3208.928	3236.8341	3806.8242
CC1(C)C2CC1(O)C=C2	CC1(C)[C@H]2C[C@]1(O)C=C2	
InChI=1S/C8H12O/c1-7(2)6-3-4-8(7,9)5-6/h3-4,6,9H,5H2,1-2H3	InChI=1S/C8H12O/c1-7(2)6-3-4-8(7,9)5-6/h3-4,6,9H,5H2,1-2H3/t6-,8-/m1/s1
