18
gdb 127006	6.83831	0.80515	0.73024	2.8987	77.25	-0.218	0.0035	0.2215	1568.5914	0.147467	-435.264027	-435.254877	-435.253932	-435.298846	32.041	
C	-0.0308203377	 1.4744759593	 0.0248659519	-0.391818
C	 0.0218668591	-0.0408891419	-0.0045370076	-0.041206
O	 0.6749193566	-0.4706710125	 1.1998446602	-0.280477
C	 0.8149818233	-1.7947277093	 1.3519397738	 0.407759
C	 1.4066583558	-2.4387899523	 2.4197713034	-0.231484
N	 1.2949124639	-3.7527524034	 2.0939259962	 0.091361
C	 1.7400076056	-4.9123140014	 2.8379210038	-0.327907
N	 0.6804381475	-3.9119651643	 0.9154992046	-0.161213
N	 0.3857105283	-2.7170818763	 0.4578650869	-0.284518
H	 0.976584432	 1.8980157634	 0.0698762275	 0.127411
H	-0.5228821081	 1.8470760581	-0.8783680788	 0.120664
H	-0.591556603	 1.8274814707	 0.8950607727	 0.127419
H	-0.9807152116	-0.4813240871	-0.0508975029	 0.119154
H	 0.5799955597	-0.4111461071	-0.8721220538	 0.119139
H	 1.8679579761	-2.0876424636	 3.3254353127	 0.141472
H	 1.247448281	-4.9570985607	 3.8133429822	 0.147102
H	 1.4714085761	-5.7912659331	 2.2521818862	 0.170029
H	 2.8237083155	-4.8851539485	 2.982585241	 0.147114
55.6452	78.4779	105.8931	144.3471	185.4369	251.985	326.2152	345.2224	374.3643	491.5053	667.9927	679.1626	701.8962	751.4283	780.8708	811.8701	919.429	1038.9567	1048.6712	1064.8779	1074.2322	1131.2835	1151.7387	1182.9481	1189.9596	1270.775	1291.7814	1315.8408	1389.8043	1408.9059	1419.1307	1444.0355	1483.3272	1484.5921	1489.967	1498.3196	1518.7493	1522.0879	1623.0031	3033.841	3045.6667	3048.6611	3070.6513	3113.2632	3121.1296	3123.2492	3164.6272	3294.7407
CCOC1=CN(C)N=N1	CCOc1cn(C)nn1	
InChI=1S/C5H9N3O/c1-3-9-5-4-8(2)7-6-5/h4H,3H2,1-2H3	InChI=1S/C5H9N3O/c1-3-9-5-4-8(2)7-6-5/h4H,3H2,1-2H3
