23
gdb 114261	3.99691	1.08226	1.02783	0.3273	91.95	-0.2276	0.0776	0.3052	1301.8747	0.206759	-351.038597	-351.030303	-351.029359	-351.071329	33.623	
C	-0.0381359694	 1.6975687566	 0.1728907974	-0.379666
C	 0.085257644	 0.1705296948	 0.0884318906	-0.199552
C	-1.2803418156	-0.5130186119	 0.0162079289	-0.004173
C	-2.0754682503	-0.4859340729	-1.3729072867	-0.360113
C	-1.8259511106	-2.0066273061	-1.4416250792	 0.307433
C	-2.264810188	-3.5050660058	-1.3977121061	-0.307178
C	-0.9006155236	-3.3878269737	-0.574083289	-0.080036
C	-0.3779309939	-2.5263918952	-1.7354586076	-0.239457
C	-1.5257753034	-2.0907148563	 0.0553952268	-0.041738
H	 0.9466371087	 2.1725650696	 0.2246294475	 0.110787
H	-0.5567984115	 2.1029280039	-0.7027908032	 0.118185
H	-0.6031269406	 2.0008553619	 1.0613239998	 0.113295
H	 0.7063295984	-0.0827909363	-0.7758934733	 0.101556
H	 0.6191079838	-0.2027974452	 0.9715979519	 0.099677
H	-1.891853571	-0.0799288831	 0.8149495998	 0.074974
H	-3.1228361417	-0.2048773183	-1.2323365951	 0.103649
H	-1.6521473337	 0.1169046608	-2.1828680645	 0.097456
H	-3.1649792097	-3.7287576015	-0.8190015395	 0.093849
H	-2.21750332	-4.0994908378	-2.3166196206	 0.088535
H	-0.386598937	-4.220043412	-0.0830918185	 0.064398
H	-0.2400467526	-3.0260070615	-2.6991228367	 0.082831
H	 0.4596259422	-1.8669981674	-1.5187323675	 0.094065
H	-2.3861402944	-2.2979559824	 0.6995505348	 0.061224
78.2084	156.7614	161.9724	247.0087	298.6123	345.5742	388.6241	446.6778	546.9464	621.9328	685.8001	746.8209	770.0165	785.1195	820.0906	841.357	872.5189	895.1435	927.8806	967.7755	978.4806	996.3543	1012.8451	1026.0583	1056.7595	1075.7963	1086.165	1110.8773	1127.7445	1146.9396	1175.3195	1186.1431	1204.0338	1207.2988	1224.5948	1230.5493	1255.3365	1275.1828	1295.8345	1329.9418	1365.1521	1396.2045	1410.8879	1472.8854	1486.4568	1495.6661	1498.9036	1506.011	1536.829	3028.3159	3029.6551	3030.9063	3033.933	3043.1544	3048.9111	3052.2719	3066.3478	3073.2419	3099.2143	3101.5997	3103.7256	3109.9192	3159.264
CCC1CC23CC(C2)C13	CC[C@H]1C[C@@]23C[C@@H](C2)[C@@H]13	
InChI=1S/C9H14/c1-2-6-3-9-4-7(5-9)8(6)9/h6-8H,2-5H2,1H3	InChI=1S/C9H14/c1-2-6-3-9-4-7(5-9)8(6)9/h6-8H,2-5H2,1H3/t6-,7-,8+,9+/m0/s1
