17
gdb 111203	2.74977	1.27604	1.00456	1.917	69.92	-0.2438	-0.0431	0.2007	1196.421	0.133224	-458.872211	-458.863602	-458.862658	-458.906447	30.667	
C	-0.0486328356	 1.3180628863	-0.0111118168	-0.245243
O	-0.3548564771	-0.022706203	-0.3360994463	-0.24188
C	 0.4872789536	-0.5620009987	-1.2927283433	 0.174418
C	 1.7797114696	-1.3113786619	-0.8247402669	-0.026388
O	 0.9307033226	-2.3418992261	-0.2103077073	-0.303271
C	 0.3153525504	-2.076346771	-1.5372134489	-0.013678
C	 1.7366591187	-2.1515387138	-2.1548177029	-0.08252
C	 2.1098215375	-1.5758193589	-3.4928669499	 0.119061
O	 1.3907180006	-0.9199217874	-4.2065356257	-0.248306
H	 0.9388949531	 1.4093070089	 0.4645398787	 0.10909
H	-0.0671247728	 1.9650615851	-0.9012093763	 0.11239
H	-0.8106409595	 1.659384526	 0.6924081471	 0.13507
H	 0.5763962829	 0.0736249683	-2.1798648121	 0.101826
H	 2.6550313412	-0.9733808917	-0.2699518366	 0.104418
H	-0.5779165634	-2.6383253143	-1.8059031299	 0.109512
H	 2.2121944173	-3.1218574493	-1.9947117129	 0.109365
H	 3.1538921208	-1.8100193086	-3.80315581	 0.086134
54.2658	82.2464	150.0873	168.638	199.8617	283.7902	319.0247	407.3156	470.4663	618.6741	697.4172	745.3839	793.9445	845.7119	881.5921	914.2125	964.0844	1000.386	1016.086	1061.4947	1088.7784	1124.3087	1129.3236	1165.6984	1181.7785	1189.3809	1214.2536	1226.7413	1246.5395	1280.388	1364.2348	1423.4529	1432.4268	1485.2774	1492.0276	1508.8757	1815.4644	2870.9526	2981.7691	3032.0454	3065.8602	3098.522	3121.7367	3125.6721	3138.3686
COC1C2OC1C2C=O	CO[C@H]1[C@H]2O[C@@H]1[C@H]2C=O	
InChI=1S/C6H8O3/c1-8-6-4-3(2-7)5(6)9-4/h2-6H,1H3	InChI=1S/C6H8O3/c1-8-6-4-3(2-7)5(6)9-4/h2-6H,1H3/t3-,4-,5+,6-
