23
gdb 79740	2.29854	1.66677	1.30707	0.2186	88.37	-0.2314	0.0792	0.3106	1122.8786	0.207239	-351.137621	-351.129068	-351.128124	-351.170012	34.841	
C	-0.2899634849	 1.5378963146	-0.0240130749	-0.430315
C	 0.0565141784	 0.059488126	 0.0037858872	-0.049533
C	 1.3720368284	-0.6421957008	-0.3165526076	-0.107362
C	 2.7421239291	 0.002217064	-0.3044115441	-0.029
C	 2.9394980878	 1.4726484945	-0.0199083796	-0.305076
C	 3.0253279258	 0.4734797531	 1.1082698141	-0.02515
C	 1.7965873082	 0.1455182864	 1.9691479415	-0.31618
C	 0.8108297585	-0.6645578018	 1.0994895552	 0.33006
C	 0.2050249459	-1.8997804035	 1.7293142891	-0.479119
H	-0.1305141427	 1.9797473016	-1.0136030151	 0.121609
H	-1.3501228835	 1.6637984809	 0.2216492185	 0.110245
H	 0.2714450623	 2.1291660408	 0.7021328564	 0.124745
H	-0.7787711978	-0.5360907076	-0.3634854024	 0.076174
H	 1.282882427	-1.5231454048	-0.9454564271	 0.073269
H	 3.5048018555	-0.5006172147	-0.888991174	 0.077547
H	 3.8815118576	 1.9024965218	-0.3470728636	 0.103333
H	 2.1095340686	 2.159234609	-0.0886836771	 0.113122
H	 4.0001716028	 0.3254001958	 1.5610751747	 0.078989
H	 2.1086563916	-0.4777077332	 2.813759916	 0.098831
H	 1.3358012765	 1.0398808664	 2.4062651218	 0.100058
H	-0.4400089265	-1.6434399679	 2.5791377076	 0.112988
H	-0.4078490304	-2.4507683354	 1.0083907658	 0.110202
H	 0.9804648617	-2.5819224451	 2.0990884375	 0.110562
153.2187	173.9465	199.3608	219.9964	262.1058	287.6298	345.1939	381.8161	465.5521	555.7271	628.9853	660.477	686.1677	759.9667	772.3864	805.0633	846.185	879.1763	926.6046	937.2778	970.1281	981.0849	1023.185	1044.7162	1062.8676	1069.9505	1083.7863	1100.1883	1109.1822	1123.7001	1136.9124	1169.8397	1195.2262	1228.7121	1245.1585	1296.7223	1315.9167	1344.4504	1375.0062	1384.4921	1415.7807	1419.886	1453.4204	1482.2532	1487.8972	1494.672	1502.2055	1508.4066	1515.2219	3013.5833	3030.5007	3033.779	3067.9726	3070.4082	3084.2655	3091.4107	3099.0668	3122.779	3140.2772	3143.5685	3155.2128	3169.0235	3257.6456
CC1C2C3CC3CC12C	C[C@H]1[C@H]2[C@H]3C[C@H]3C[C@@]12C	
InChI=1S/C9H14/c1-5-8-7-3-6(7)4-9(5,8)2/h5-8H,3-4H2,1-2H3	InChI=1S/C9H14/c1-5-8-7-3-6(7)4-9(5,8)2/h5-8H,3-4H2,1-2H3/t5-,6-,7-,8-,9-/m0/s1
