21
gdb 6768	7.14391	0.65003	0.61155	3.3671	76.28	-0.2425	0.0362	0.2788	1842.9776	0.187074	-366.313858	-366.303407	-366.302463	-366.350902	35.934	
C	 0.0153149508	 1.5896692073	 0.001733064	-0.379693
C	-0.0050040713	 0.0606693894	-0.0724299084	-0.16328
C	-1.4129187878	-0.5318248672	 0.0523100394	-0.166949
C	-1.4314510419	-2.0613233673	-0.0150380501	-0.162709
C	-2.8380753959	-2.6514283784	 0.1057523117	-0.316356
C	-2.8278573484	-4.1769473557	 0.1960406818	 0.406584
N	-3.9755554062	-4.7844644576	-0.2328019031	-0.522465
O	-1.8814613537	-4.8107523847	 0.6207963258	-0.357798
H	 1.0330770608	 1.9815628915	-0.0908398756	 0.111015
H	-0.5861103933	 2.0335391433	-0.7997058874	 0.111268
H	-0.3926000014	 1.94556721	 0.9545387016	 0.112322
H	 0.4414983269	-0.2669174264	-1.0205753996	 0.094927
H	 0.6314951379	-0.3546843005	 0.7197795055	 0.098008
H	-1.8617627323	-0.2023403909	 1.0004570449	 0.089206
H	-2.050964125	-0.1174606372	-0.7416517631	 0.086474
H	-0.9803644013	-2.3957294355	-0.9578766347	 0.10013
H	-0.811398576	-2.4873731979	 0.7801997497	 0.123452
H	-3.3206683451	-2.2775152947	 1.0201676624	 0.123954
H	-3.4734216793	-2.3268321206	-0.7278301324	 0.098767
H	-4.7907209454	-4.2601156577	-0.4972774134	 0.255075
H	-4.0655462722	-5.7777095794	-0.093382349	 0.25807
26.5655	54.3109	95.5559	115.7747	135.3834	168.7247	227.4783	247.0288	304.8367	402.1134	473.5702	518.8792	615.0969	665.0965	732.1101	763.8424	841.6451	859.0066	911.3574	971.5934	1014.6788	1058.412	1069.575	1080.8111	1126.6111	1138.3771	1227.3094	1242.8143	1290.8215	1303.0144	1323.2537	1332.3659	1362.9006	1399.6715	1407.0023	1413.3949	1464.3109	1483.667	1488.8849	1499.8867	1502.2822	1513.4912	1616.4273	1797.8347	2996.4455	3011.058	3016.0957	3021.131	3027.4696	3034.4984	3049.628	3051.44	3089.3675	3093.9945	3099.93	3600.1323	3737.1322
CCCCCC(N)=O	CCCCCC(=O)N	
InChI=1S/C6H13NO/c1-2-3-4-5-6(7)8/h2-5H2,1H3,(H2,7,8)	InChI=1S/C6H13NO/c1-2-3-4-5-6(7)8/h2-5H2,1H3,(H2,7,8)
