21
gdb 59369	2.75551	1.29587	1.15094	2.4119	79.71	-0.2441	0.002	0.2461	1180.5104	0.182765	-424.238472	-424.229445	-424.228501	-424.271786	35.242	
C	 0.2507720994	 1.3550066279	 0.219671492	-0.388714
C	-0.0664192339	-0.1377912493	 0.2495974044	 0.142838
O	 0.3069212975	-0.6123188259	 1.5271115199	-0.453787
C	-1.5502638681	-0.4420991219	-0.0998766736	-0.074249
C	-1.8532268268	-1.9598485191	-0.2432855144	-0.257362
C	-2.4822833649	-2.3834676701	 1.09331216	 0.077189
O	-1.4222004604	-2.8980734196	 1.9345256221	-0.429326
C	-3.039549721	-1.0826671573	 1.6256573294	-0.117836
C	-2.5170186286	-0.0343266331	 0.9897144703	-0.035148
H	 1.3025913193	 1.5123902096	 0.4730581833	 0.123826
H	 0.0655232619	 1.7786237305	-0.7723886265	 0.103824
H	-0.3535147997	 1.8970662322	 0.9535528883	 0.116138
H	 0.5380217178	-0.6313294661	-0.5335198329	 0.056653
H	-0.0949251348	-1.4826657408	 1.6796325311	 0.28608
H	-1.7633110199	 0.0787110238	-1.0415592251	 0.073611
H	-2.5808841515	-2.1149874751	-1.0447930207	 0.104993
H	-0.9710341496	-2.5640908466	-0.4724227113	 0.113474
H	-3.237438449	-3.1707287052	 0.9745058561	 0.075354
H	-1.7159621202	-2.8500692141	 2.8510238104	 0.285952
H	-3.7303545667	-1.039366604	 2.4614150869	 0.092546
H	-2.7191798809	 1.0026903842	 1.2339611004	 0.103945
87.8644	150.0736	177.0821	228.8704	235.436	286.6244	331.4466	357.9158	414.1095	463.354	498.9446	582.8182	633.5434	726.4539	763.7161	800.9962	824.7688	862.9995	918.8684	956.161	973.3454	976.969	988.8026	1034.0206	1051.4709	1059.6975	1121.5647	1134.1729	1157.9057	1199.8104	1218.0163	1269.9571	1291.291	1320.7772	1337.0311	1344.4524	1372.4606	1387.0311	1400.7793	1401.8414	1467.9351	1483.3966	1486.5413	1502.5573	1675.8748	2924.8531	3020.5961	3027.1769	3040.7713	3063.5461	3107.4287	3112.4805	3118.6359	3176.9822	3204.4921	3659.6171	3808.3099
CC(O)C1CC(O)C=C1	C[C@@H](O)[C@H]1C[C@@H](O)C=C1	
InChI=1S/C7H12O2/c1-5(8)6-2-3-7(9)4-6/h2-3,5-9H,4H2,1H3	InChI=1S/C7H12O2/c1-5(8)6-2-3-7(9)4-6/h2-3,5-9H,4H2,1H3/t5-,6-,7+/m1/s1
