20
gdb 94103	4.20654	0.88571	0.82831	2.6938	76.84	-0.2467	0.0307	0.2773	1438.2475	0.171538	-440.322262	-440.313094	-440.312149	-440.35778	33.24	
C	-0.0049770963	 1.3738531229	 0.055861609	-0.394927
C	 0.0028184648	-0.1099076292	-0.2938935298	 0.146164
C	 1.2127495165	-0.5503602931	-1.1566029465	-0.26461
C	 1.7195377741	-1.8268083991	-0.45200985	 0.030403
C	 1.350089377	-1.5000440128	 0.9968163541	-0.109225
O	 0.0580367424	-0.9142935724	 0.9033078121	-0.279417
N	 1.0239843164	-3.0274882429	-0.8922025957	-0.280129
C	 1.6133684496	-4.0000418603	-1.6359822837	 0.153547
O	 2.7587435353	-3.9792900354	-2.0358682338	-0.326891
H	 0.916871386	 1.6551190074	 0.5761225605	 0.118283
H	-0.0827051576	 1.9818842413	-0.8520430675	 0.116486
H	-0.8520957841	 1.6124628748	 0.7045727209	 0.126003
H	-0.9420603271	-0.3667493116	-0.7886857415	 0.079208
H	 0.9487810147	-0.7332015144	-2.1993782308	 0.117676
H	 1.9955607534	 0.2149911831	-1.1360077011	 0.109441
H	 2.7831250483	-2.0030204329	-0.6127601865	 0.11965
H	 1.2813211763	-2.3805610546	 1.64062601	 0.114161
H	 2.0826737261	-0.8022068238	 1.4318843881	 0.096153
H	 0.0664200906	-3.1503796499	-0.6000009273	 0.254117
H	 0.9164959633	-4.8371108571	-1.8414808705	 0.073906
24.1744	58.159	115.0346	213.2938	224.394	248.8757	311.5949	389.5734	424.9375	477.6571	561.8742	681.6591	719.372	770.7814	815.7825	870.5734	895.9531	924.3665	968.0367	987.6547	1018.115	1030.6559	1085.4477	1105.4039	1122.5975	1151.5966	1199.4481	1216.4685	1255.9806	1265.2748	1313.8174	1344.1525	1360.961	1378.0328	1394.0933	1407.3576	1430.163	1484.1156	1487.124	1496.1538	1515.4458	1523.9591	1802.9647	2933.2568	2981.3988	3022.198	3033.6968	3055.1463	3097.8835	3103.4406	3117.7548	3123.686	3130.0537	3624.7753
CC1CC(CO1)NC=O	C[C@H]1C[C@@H](CO1)NC=O	
InChI=1S/C6H11NO2/c1-5-2-6(3-9-5)7-4-8/h4-6H,2-3H2,1H3,(H,7,8)	InChI=1S/C6H11NO2/c1-5-2-6(3-9-5)7-4-8/h4-6H,2-3H2,1H3,(H,7,8)/t5-,6-/m0/s1
