20
gdb 95089	2.34446	1.55979	1.15423	4.3936	83.23	-0.2746	0.0344	0.309	1135.7662	0.1728	-366.04381	-366.035481	-366.034537	-366.076421	32.594	
C	-0.0215502085	 1.5774161084	 0.0061250082	-0.409734
C	 0.0445143506	 0.0504558117	 0.0186669512	-0.031322
C	 0.7891357764	-0.5684535265	-1.1881964668	-0.249038
C	 1.2951015463	-1.9469265942	-0.7104339044	-0.227185
C	 1.5545247717	-1.7721073206	 0.778764248	-0.077073
C	 2.2878866974	-0.5423873818	 1.2279027407	-0.327573
C	 0.7644942797	-0.5481081454	 1.2381155089	 0.208503
C	 0.0866884567	-0.5221390196	 2.5013918246	 0.204295
N	-0.4769447235	-0.488258879	 3.5120679414	-0.35591
H	 0.9825045056	 2.0155045056	 0.0156762033	 0.115879
H	-0.5363062884	 1.9366703297	-0.8907003939	 0.11815
H	-0.5627152495	 1.9568853356	 0.8782790238	 0.134681
H	-0.9797886199	-0.3436075915	 0.0375280346	 0.091646
H	 0.1440531276	-0.6415500331	-2.0672968751	 0.108141
H	 1.6311665489	 0.0721870833	-1.4724500232	 0.10713
H	 0.5213719222	-2.710485217	-0.8500615973	 0.111841
H	 2.1821803184	-2.2803426811	-1.2588577219	 0.107901
H	 1.6003076257	-2.6498478733	 1.4128528255	 0.108862
H	 2.7759294658	-0.5789381556	 2.1944624894	 0.136926
H	 2.7874586069	 0.0853880044	 0.4981171931	 0.123881
113.6767	147.2913	183.9822	236.2421	257.2885	316.9105	382.3657	462.9456	483.1454	564.7993	583.0174	632.1362	638.2919	818.2922	833.1407	860.3178	905.2949	932.9431	944.47	970.3288	993.9116	1043.4163	1065.5802	1080.5371	1093.929	1135.1024	1138.3707	1196.6067	1222.8837	1249.9547	1272.7678	1310.866	1335.5319	1345.7772	1368.4578	1399.915	1414.1589	1481.356	1490.8219	1495.843	1500.8726	1512.6323	2345.2273	3021.8829	3033.2883	3039.8291	3047.6111	3079.6256	3099.2044	3103.957	3108.6958	3141.6616	3183.2528	3230.0149
CC1CCC2CC12C#N	C[C@H]1CC[C@H]2C[C@@]12C#N	
InChI=1S/C8H11N/c1-6-2-3-7-4-8(6,7)5-9/h6-7H,2-4H2,1H3	InChI=1S/C8H11N/c1-6-2-3-7-4-8(6,7)5-9/h6-7H,2-4H2,1H3/t6-,7-,8+/m0/s1
