16
gdb 101962	1.75721	1.45501	1.2759	2.3363	77.94	-0.248	-0.0386	0.2094	1143.0772	0.119305	-400.657234	-400.646996	-400.646052	-400.692692	36.19	
C	-0.0760345359	 1.4780863528	 0.1580904535	-0.327875
N	 0.0302106785	 0.0252264657	 0.0038571206	-0.30758
C	 0.6237612774	-0.4287296108	-1.268556223	-0.246464
C	 0.3800614252	-1.9738842399	-1.256072977	 0.160496
O	 1.2399078086	-2.8036952318	-1.2549225987	-0.233902
C	-0.1455089562	 0.0797651423	-2.410497835	 0.359302
C	-0.7882203367	 0.4192399512	-3.3668515858	-0.462811
C	 2.0489449197	-0.103226182	-1.4089391296	 0.371795
C	 3.2161843698	 0.176211606	-1.4581913454	-0.462253
H	 0.883070517	 2.0059492765	 0.0490892554	 0.117787
H	-0.773325236	 1.8704688725	-0.5859627397	 0.142816
H	-0.4824668345	 1.6880996775	 1.150763714	 0.126192
H	 0.6125485467	-0.3471210779	 0.7487431521	 0.234377
H	-0.7025482965	-2.2050797068	-1.2117148506	 0.112577
H	-1.3449306221	 0.7422016169	-4.212280616	 0.210753
H	 4.2502200652	 0.4122209278	-1.5182602647	 0.204788
47.779	104.4261	123.6595	144.1527	155.189	196.9246	249.7957	288.4116	373.4036	394.9414	481.5817	487.5942	553.5363	647.4106	651.4069	653.8271	658.4945	662.8953	727.6331	796.8174	946.6208	988.1821	1056.7246	1122.1114	1128.3271	1169.113	1229.1395	1390.7501	1451.3204	1483.2457	1493.2592	1521.0851	1850.891	2233.3292	2237.0805	2945.8287	2995.757	3090.5508	3129.119	3497.8308	3499.5995	3509.1745
CNC(C=O)(C#C)C#C	CNC(C=O)(C#C)C#C	
InChI=1S/C7H7NO/c1-4-7(5-2,6-9)8-3/h1-2,6,8H,3H3	InChI=1S/C7H7NO/c1-4-7(5-2,6-9)8-3/h1-2,6,8H,3H3
