18
gdb 40347	3.55679	1.36406	1.31219	2.4599	75.72	-0.2304	0.0772	0.3075	1037.1828	0.148993	-401.842399	-401.835253	-401.834309	-401.87433	28.083	
C	-0.3905890106	 1.2573103485	-0.3218802115	-0.177421
O	 0.8154774153	 1.3825644846	 0.4351155463	-0.236414
C	 0.3114577992	 0.0649897105	 0.1729124607	-0.123674
C	-0.1880054375	-0.6912189769	 1.3283331715	 0.434044
C	 0.4489568534	-1.4425512053	 2.468138237	-0.144376
C	-0.3245923915	-0.5572583165	 3.4296927649	-0.173997
N	-1.2961752733	-0.2332131102	 2.3103844062	-0.207599
C	-1.9481841778	-1.584034195	 2.0782888519	-0.17519
C	-0.6157062049	-2.1124611619	 1.5772199172	-0.154663
H	-1.293510268	 1.5765345103	 0.1941276854	 0.133871
H	-0.3160459869	 1.5293759343	-1.3740211932	 0.111539
H	 0.9166090611	-0.5142613971	-0.526187698	 0.094286
H	 1.4590903462	-1.8283699952	 2.5267945197	 0.09654
H	-0.7902408084	-0.994270793	 4.3202426241	 0.09639
H	 0.2245453977	 0.3472227113	 3.6997168419	 0.122978
H	-2.4075589809	-2.0249124141	 2.9701282707	 0.099397
H	-2.6941435256	-1.4949948972	 1.2845790706	 0.110033
H	-0.3856571574	-2.9922684273	 0.9884838148	 0.094255
83.1291	132.9982	166.4409	369.7871	407.0797	460.4591	508.1491	622.2902	739.1745	788.7556	812.5138	834.6041	868.322	906.6945	913.9014	928.0241	943.7095	968.0205	995.0463	1020.0998	1027.3282	1084.7185	1094.9425	1099.1557	1124.5009	1159.2845	1160.3442	1166.3606	1190.9912	1232.4728	1258.3553	1279.7483	1298.8475	1308.2929	1367.3693	1483.9543	1501.073	1520.6258	1527.9251	3033.683	3043.3078	3086.4301	3099.8898	3101.9796	3113.1013	3183.9776	3185.7635	3196.8519
C1OC1C12C3CN1CC23	C1O[C@H]1[C@@]12[C@H]3CN1C[C@@H]23	
InChI=1S/C7H9NO/c1-4-5-2-8(1)7(4,5)6-3-9-6/h4-6H,1-3H2	InChI=1S/C7H9NO/c1-4-5-2-8(1)7(4,5)6-3-9-6/h4-6H,1-3H2/t4-,5+,6-,7-/m1/s1
