18
gdb 75265	2.23003	1.61345	1.35155	4.1012	81.35	-0.2373	0.007	0.2443	1057.177	0.148606	-364.836896	-364.828794	-364.82785	-364.869537	30.927	
C	-0.0140808872	 1.4953057589	 0.0628194914	-0.501472
C	-0.0278065693	 0.0013481128	-0.0051395273	 0.332603
C	-0.0150628922	-0.7740049134	-1.0950386888	-0.162185
C	-0.0204747299	-2.2506627128	-0.7686667529	-0.284153
C	 0.0345765994	-2.2760001728	 0.7578168209	-0.066539
C	 1.2568537	-1.6873082371	 1.4519833638	-0.192557
C	 2.4744791543	-1.4231834188	 0.7395579984	 0.30396
N	 3.466437485	-1.2278916475	 0.1763651556	-0.353628
C	-0.0065287535	-0.8447624769	 1.2314466075	-0.145673
H	 0.8930804739	 1.8589813989	 0.5608949831	 0.140158
H	-0.0561647174	 1.9402174589	-0.9343745128	 0.129667
H	-0.865628975	 1.8744870642	 0.6417203927	 0.124623
H	 0.0363062625	-0.406291498	-2.1135706529	 0.09844
H	-0.9305208302	-2.7462052636	-1.130730715	 0.114049
H	 0.8257346818	-2.7782692665	-1.2262984546	 0.132245
H	-0.4749567443	-3.0663191653	 1.2952548213	 0.10193
H	 1.4178536376	-2.0337573587	 2.4681782766	 0.131065
H	-0.5366647457	-0.5289018422	 2.1238355329	 0.097468
93.3154	127.2579	175.9091	230.3557	278.22	327.2317	363.8069	489.2733	566.8955	610.6515	660.3677	730.3079	768.5008	784.3428	826.534	859.4237	942.5466	944.5363	981.5701	1000.9544	1013.3582	1045.8409	1057.444	1073.1199	1107.09	1184.2225	1184.3015	1192.0577	1269.8641	1315.8861	1350.9831	1371.1322	1390.0227	1415.5805	1475.4246	1478.615	1488.5118	1709.2169	2349.4656	3021.1671	3022.3681	3052.9185	3069.0693	3118.3877	3157.5571	3167.0071	3188.6154	3199.0538
CC1=CCC2C(C#N)C12	CC1=CC[C@H]2[C@@H](C#N)[C@@H]12	
InChI=1S/C8H9N/c1-5-2-3-6-7(4-9)8(5)6/h2,6-8H,3H2,1H3	InChI=1S/C8H9N/c1-5-2-3-6-7(4-9)8(5)6/h2,6-8H,3H2,1H3/t6-,7+,8-/m0/s1
