25
gdb 119082	2.15076	1.09028	0.8618	1.3389	88.97	-0.262	0.0719	0.3338	1511.3668	0.228041	-389.483568	-389.472887	-389.471943	-389.519618	39.577	
C	-0.5844447151	 1.4822082861	 2.6279941262	-0.377791
C	-0.376546613	-0.0313762724	 2.5165855585	-0.176896
C	 0.6134871656	-0.4107102482	 1.4079048969	-0.241965
C	 0.9847050135	-1.8953124025	 1.336337898	 0.355052
C	-0.2260347076	-2.7873711952	 1.0724270001	-0.127848
O	-0.8282990644	-2.3818311344	-0.1499747767	-0.427373
C	 2.1605058496	-2.2451950913	 0.3682785222	-0.260126
C	 2.8051143956	-3.1142832673	 1.4817407918	-0.214414
C	 1.8397925385	-2.4685714768	 2.5130302922	-0.267184
H	-0.9666322718	 1.8979326966	 1.6890006531	 0.115001
H	-1.2997254826	 1.7319145554	 3.4182533857	 0.106724
H	 0.3565111886	 1.995678451	 2.8557852965	 0.110797
H	-0.0202349354	-0.4216999321	 3.4794054342	 0.092385
H	-1.3442035345	-0.5116996323	 2.3290525849	 0.100078
H	 0.204907873	-0.1046348395	 0.4372980573	 0.11074
H	 1.5395683963	 0.1632182695	 1.5502651809	 0.0789
H	 0.0989293429	-3.8390233988	 1.0199959653	 0.078873
H	-0.9369977987	-2.7112226843	 1.9103384996	 0.084563
H	-1.5765470194	-2.95948637	-0.3246320721	 0.286614
H	 1.8814937727	-2.7391056568	-0.5651860111	 0.103023
H	 2.7623426048	-1.3647563051	 0.1252990899	 0.091864
H	 2.6210461011	-4.1832910108	 1.3454313862	 0.099268
H	 3.8745934904	-2.9776436532	 1.6576583492	 0.094893
H	 2.3158544637	-1.6720918676	 3.0924380938	 0.095924
H	 1.3332655165	-3.1410797499	 3.2126696072	 0.088897
63.0722	74.7729	107.0942	136.6536	176.8507	230.7523	245.8064	251.0383	318.9054	337.4011	382.5721	390.0825	512.9992	668.0792	730.4232	748.8799	796.7346	856.0562	861.8923	899.7996	911.3155	945.1719	948.6414	982.8947	1027.2597	1047.5414	1061.4404	1075.2365	1091.8277	1145.1432	1184.6569	1203.5951	1212.3269	1240.8208	1254.7607	1262.063	1267.4228	1279.5257	1304.2159	1322.4951	1335.2667	1348.7264	1393.6957	1410.6414	1455.2187	1476.5442	1481.538	1484.9748	1491.5431	1499.6317	1506.901	1509.8261	1521.9973	2965.8134	2992.6463	3007.4298	3017.9311	3027.5121	3043.2916	3047.6677	3055.7072	3061.395	3066.5713	3087.7484	3095.6823	3098.4162	3103.7797	3118.2682	3833.6811
CCCC1(CO)CCC1	CCCC1(CO)CCC1	
InChI=1S/C8H16O/c1-2-4-8(7-9)5-3-6-8/h9H,2-7H2,1H3	InChI=1S/C8H16O/c1-2-4-8(7-9)5-3-6-8/h9H,2-7H2,1H3
