15
gdb 8027	3.40644	1.99109	1.54659	3.5705	61.16	-0.2245	-0.0229	0.2015	827.0839	0.117987	-399.763364	-399.75608	-399.755136	-399.794824	27.611	
O	 0.0989268318	 1.4549967241	-0.1728755408	-0.474258
C	 0.0247421	 0.0744423403	-0.0042956151	 0.390481
C	 0.3835092338	-0.8563342341	-1.1868880073	-0.226056
N	-0.7936463183	-1.6973848307	-0.8512918615	-0.320258
C	-1.3700970924	-0.6414402957	 0.0330969942	-0.187665
C	-1.0917416901	-1.0515326295	 1.490076607	 0.462911
O	-1.7332980436	-1.5566137253	 2.3615873043	-0.299146
C	 0.3513393183	-0.4900683532	 1.4161359737	-0.424578
H	 0.9968850943	 1.7421570481	 0.0260503935	 0.285342
H	 0.294994991	-0.3127239826	-2.1361990836	 0.104501
H	 1.3425382819	-1.3865176987	-1.1581774379	 0.100399
H	-1.3843320223	-1.9535669884	-1.6316910963	 0.234142
H	-2.3181302362	-0.1858211074	-0.2594629842	 0.091464
H	 1.1507607492	-1.2317666474	 1.486664131	 0.131338
H	 0.5178149326	 0.2974617505	 2.158063593	 0.131384
83.1083	199.8467	216.08	306.0096	350.3035	378.1036	439.9075	513.8843	593.6763	622.9898	673.5267	771.7968	870.5063	879.4468	938.2231	981.513	1013.6205	1028.4051	1050.8063	1086.2084	1130.9588	1137.8787	1172.1313	1219.8595	1223.9484	1283.2313	1314.5336	1371.6236	1382.6921	1424.2206	1511.735	1901.1202	3013.3604	3057.5008	3064.4702	3098.6495	3120.0575	3564.3808	3799.8648
OC12CNC1C(=O)C2	O[C@]12CN[C@H]1C(=O)C2	
InChI=1S/C5H7NO2/c7-3-1-5(8)2-6-4(3)5/h4,6,8H,1-2H2	InChI=1S/C5H7NO2/c7-3-1-5(8)2-6-4(3)5/h4,6,8H,1-2H2/t4-,5+/m0/s1
