17
gdb 101543	3.20705	0.86473	0.75661	3.802	72.19	-0.2631	-0.0673	0.1958	1481.3304	0.132374	-458.928684	-458.918589	-458.917645	-458.964958	35.57	
O	-0.0757791703	 1.2318790855	-0.8102590821	-0.41972
C	-0.0387848274	 0.082581987	 0.0026496221	-0.063305
C	-1.4137904684	-0.5890094851	 0.0524175499	 0.105184
O	-1.8764847951	-0.8149178122	-1.2811870148	-0.437956
C	-1.4130838404	-1.8745595623	 0.895827663	-0.347219
C	-2.7968198287	-2.5096253683	 0.9138011666	 0.279052
O	-3.6486864316	-2.1828908691	 1.7095538915	-0.281782
C	-3.0444568432	-3.5209747099	-0.1003781282	 0.276137
C	-3.2258180682	-4.3747153191	-0.9299994594	-0.460439
H	-0.6023771966	 0.9855848696	-1.582140642	 0.28749
H	 0.7043705068	-0.6514429838	-0.3621658713	 0.07285
H	 0.2728630195	 0.3946991897	 1.0054242056	 0.112842
H	-2.1355326052	 0.1168069651	 0.4771847803	 0.122405
H	-1.3914384924	-1.563624459	-1.6491011203	 0.285978
H	-0.6729742639	-2.5800974509	 0.4994543505	 0.109482
H	-1.1461873379	-1.6260481058	 1.9274268999	 0.138357
H	-3.4132053471	-5.1274957716	-1.6571347912	 0.220644
38.4417	48.5986	117.4915	141.1198	176.252	238.1962	271.5103	324.9039	348.7559	429.5675	460.4992	496.2184	527.8609	619.9322	651.6927	705.9988	716.5484	802.5389	866.6207	907.8733	1007.2592	1078.6544	1083.5795	1093.9915	1125.4709	1205.2888	1230.1814	1269.9213	1321.4728	1348.2614	1382.9813	1422.5411	1442.7901	1466.4035	1503.7221	1773.5609	2208.5867	2927.0014	3036.0436	3064.8938	3074.0562	3104.3091	3492.9664	3765.0724	3786.0256
OCC(O)CC(=O)C#C	OC[C@@H](O)CC(=O)C#C	
InChI=1S/C6H8O3/c1-2-5(8)3-6(9)4-7/h1,6-7,9H,3-4H2	InChI=1S/C6H8O3/c1-2-5(8)3-6(9)4-7/h1,6-7,9H,3-4H2/t6-/m0/s1
