15
gdb 108463	2.28854	1.75337	1.30283	3.0908	60.63	-0.2638	-0.0176	0.2462	989.2456	0.111946	-494.884124	-494.876234	-494.87529	-494.917002	28.718	
O	 0.5561661419	 0.4036228671	-0.7138749419	-0.41296
C	-0.2304702398	 0.2992036563	 0.4571273551	-0.182304
C	-1.5021714788	-0.4656091744	 0.1891117538	 0.236615
O	-2.4076764202	-0.5574838019	 1.3097014874	-0.322392
C	-2.6191354394	-1.9796528377	 1.0868558775	-0.107495
C	-1.7442021152	-1.9483056142	-0.1671905169	 0.010139
O	-2.4961997589	-1.5519316673	-1.3543084055	-0.25692
C	-2.2624694452	-0.2105733629	-1.1331884942	 0.427151
O	-2.575649709	 0.7106063379	-1.8149431854	-0.332072
H	 0.1130195556	 1.0128145582	-1.3155344124	 0.305019
H	 0.3720876174	-0.2234237644	 1.2061488143	 0.128055
H	-0.502409601	 1.2783091482	 0.8792794472	 0.123919
H	-2.2093129366	-2.5677799261	 1.9149688113	 0.124346
H	-3.6704298774	-2.2318094698	 0.9219470736	 0.133283
H	-1.0012377434	-2.708984459	-0.389282414	 0.125619
74.2239	136.0857	148.9602	229.7508	264.1359	379.2182	396.5348	444.3497	501.0455	659.2032	707.8181	769.8901	822.5211	847.9353	907.8544	972.0225	985.5465	1044.9684	1053.0906	1073.4982	1093.7624	1126.3984	1157.822	1177.2078	1243.5862	1311.5266	1323.3107	1360.0338	1383.206	1411.6682	1491.2846	1499.9078	1929.8865	3002.8241	3043.4765	3088.0647	3105.7256	3166.0113	3804.4474
OCC12OCC1OC2=O	OC[C@]12OC[C@H]1OC2=O	
InChI=1S/C5H6O4/c6-2-5-3(1-8-5)9-4(5)7/h3,6H,1-2H2	InChI=1S/C5H6O4/c6-2-5-3(1-8-5)9-4(5)7/h3,6H,1-2H2/t3-,5+/m1/s1
