16
gdb 12455	3.28015	2.024	1.43644	2.3983	66.5	-0.2337	-0.0159	0.2177	870.1036	0.131245	-383.754927	-383.74785	-383.746906	-383.786455	26.714	
O	 0.2399394883	 1.1668722233	-1.6658543338	-0.295541
C	 0.1189159194	 1.4744873948	-0.5065711133	 0.356962
C	-1.2075376209	 2.0445255921	 0.0154733268	-0.180888
O	-1.2104117322	 2.3440815751	 1.3908603913	-0.231232
C	-0.6142292844	 3.5834114705	 1.7188895166	-0.134684
C	 0.873999723	 3.6524913472	 1.5162315692	-0.038307
C	 1.6667524888	 2.6973504582	 1.031062025	-0.088587
C	 1.2317341681	 1.3344935036	 0.5275016067	-0.342009
H	-1.4782913355	 2.9170267765	-0.5993040871	 0.123011
H	-1.97533027	 1.2804894914	-0.1499833261	 0.141664
H	-1.1005397338	 4.4009641175	 1.1550197827	 0.102929
H	-0.8507175823	 3.7551803526	 2.7766028537	 0.125448
H	 1.3186399988	 4.5995800944	 1.8173655586	 0.095065
H	 2.7283148542	 2.9096513587	 0.9423134697	 0.104378
H	 0.8609896042	 0.7200603675	 1.356454762	 0.139462
H	 2.0639124247	 0.8128782864	 0.0521927579	 0.122326
75.3409	133.8462	289.3667	334.9989	389.6705	414.8009	463.0606	509.3347	588.1869	679.0377	746.3142	820.7207	863.4064	921.524	952.0611	993.1337	1017.4462	1026.0463	1058.5875	1119.2884	1189.0544	1233.0427	1245.9095	1274.0807	1308.0069	1317.816	1356.0304	1403.5789	1412.056	1450.5901	1461.8895	1481.9993	1725.4477	1826.544	2937.1285	2994.5002	3041.9067	3043.9544	3074.9143	3121.524	3141.1487	3172.5314
O=C1COCC=CC1	O=C1COCC=CC1	
InChI=1S/C6H8O2/c7-6-3-1-2-4-8-5-6/h1-2H,3-5H2	InChI=1S/C6H8O2/c7-6-3-1-2-4-8-5-6/h1-2H,3-5H2
