20
gdb 13390	5.71427	0.98723	0.88207	1.3192	76.1	-0.2354	0.0295	0.2649	1309.7737	0.177715	-349.012732	-349.00428	-349.003335	-349.046174	31.159	
O	-0.0549735175	 1.4505739733	-0.0980039448	-0.421637
C	 0.0335003685	 0.0372839155	 0.0143071037	-0.076118
C	-1.382031121	-0.5251406406	-0.023299355	-0.188725
C	-1.4388126276	-2.0521877551	 0.0481122506	 0.034964
C	-0.9114408937	-2.6766132725	 1.3724306537	-0.259169
C	-1.7963977329	-3.8851981855	 1.5663979858	-0.063991
C	-2.8553449561	-3.8625113309	 0.7593553213	-0.061118
C	-2.8702981157	-2.6347068796	-0.1186107638	-0.273948
H	 0.8350235306	 1.8116890473	-0.0539549743	 0.28399
H	 0.6234796327	-0.391719776	-0.8131865697	 0.08164
H	 0.5319111402	-0.2542594106	 0.952646796	 0.086515
H	-1.9540684443	-0.0906889457	 0.8067375601	 0.101563
H	-1.8604050802	-0.1762541483	-0.9468279337	 0.102446
H	-0.8275986386	-2.4604420214	-0.7676738213	 0.072781
H	 0.1539736134	-2.9294650832	 1.3224016839	 0.098793
H	-1.0203775304	-1.9785603008	 2.2169214573	 0.102144
H	-1.5910119042	-4.6469345214	 2.3107891417	 0.088009
H	-3.647823585	-4.6029285442	 0.7440182963	 0.088691
H	-3.6350196163	-1.9221693737	 0.2263707465	 0.102879
H	-3.1087929619	-2.8530454664	-1.1660465246	 0.100292
69.3937	106.4116	110.604	172.3157	268.422	331.5492	364.0168	396.0524	454.8604	632.3278	717.8342	776.4976	798.1528	842.1903	919.3198	939.0405	972.942	975.4833	982.2369	1011.0579	1055.7623	1073.934	1106.5974	1118.0915	1133.9123	1154.0738	1202.3998	1242.245	1254.3086	1290.3634	1302.8433	1313.2709	1331.2962	1339.2413	1377.448	1384.2528	1462.4404	1483.7758	1487.7396	1496.7343	1527.2404	1689.1295	2956.1899	2984.5146	2989.3991	2993.7481	3009.478	3025.1213	3048.0463	3053.0245	3067.6939	3178.2024	3204.0397	3830.477
OCCC1CC=CC1	OCC[C@H]1CC=CC1	
InChI=1S/C7H12O/c8-6-5-7-3-1-2-4-7/h1-2,7-8H,3-6H2	InChI=1S/C7H12O/c8-6-5-7-3-1-2-4-7/h1-2,7-8H,3-6H2
