16
gdb 97168	2.24205	1.54902	0.92665	2.5814	85.37	-0.2335	-0.0454	0.1881	1226.1141	0.122947	-400.736315	-400.727515	-400.72657	-400.770925	31.453	
C	-0.0327071235	 1.4272997455	 0.0751629935	-0.339512
N	-0.0126230254	-0.0243153466	 0.0769065175	-0.332605
C	-1.09202463	-0.6690036855	 0.0147122356	 0.375473
O	-2.357358887	-0.125811846	-0.0586875019	-0.258908
C	-3.3319178252	-1.1664337789	-0.1148710698	-0.130017
C	-2.5442691424	-2.4379348855	-0.0688136821	-0.238528
C	-1.2363813367	-2.1463525486	 0.0068740155	 0.09047
C	-0.139266933	-3.0343085167	 0.0707130303	 0.271838
C	 0.7943591738	-3.7910919164	 0.1250433623	-0.402272
H	 0.5644084349	 1.7900677691	-0.7696000685	 0.127182
H	-1.0334043372	 1.8694513053	 0.0150155161	 0.123237
H	 0.4591473406	 1.7907842043	 0.9849855893	 0.127203
H	-4.0232053871	-1.0618548871	 0.7332055175	 0.131887
H	-3.9205800204	-1.0624295415	-1.0372125158	 0.131885
H	-2.9892467568	-3.4225548496	-0.0943053235	 0.126532
H	 1.6267590754	-4.4486114019	 0.173473534	 0.196134
27.6904	123.8363	134.6649	154.798	239.908	246.3303	362.0527	410.4318	533.3322	538.1018	615.5069	622.0489	645.3693	738.8903	759.7669	800.6429	832.8017	956.5671	1028.8995	1041.4409	1062.8338	1089.8326	1130.3765	1169.2842	1196.5064	1228.967	1329.4166	1375.4148	1436.5705	1493.9119	1494.0917	1500.983	1667.0671	1786.8892	2240.2723	3002.8622	3015.4359	3028.3714	3073.2196	3087.4994	3240.7396	3503.71
CN=C1OCC=C1C#C	CN=C1OCC=C1C#C	
InChI=1S/C7H7NO/c1-3-6-4-5-9-7(6)8-2/h1,4H,5H2,2H3	InChI=1S/C7H7NO/c1-3-6-4-5-9-7(6)8-2/h1,4H,5H2,2H3
