15
gdb 10278	2.65509	1.69087	1.09139	1.6031	61.86	-0.2705	-0.0421	0.2284	1041.8644	0.116114	-399.825893	-399.816797	-399.815853	-399.860683	30.85	
C	 0.0111799345	 1.3652449851	 0.5047295427	-0.486846
C	 0.0523323833	 0.0191118046	-0.1779956123	 0.391526
O	 1.0193103315	-0.3985966443	-0.7635118819	-0.279863
C	-1.2433602423	-0.8361096429	-0.1471220184	-0.271561
C	-0.9736690029	-2.3169708231	-0.5173112136	-0.063014
O	-2.1655980236	-3.0553950906	-0.6407010159	-0.41817
C	-1.9496012971	-0.7506412088	 1.1288479999	 0.255727
N	-2.4981871689	-0.7316937027	 2.146864527	-0.325012
H	 0.9247602124	 1.9164415309	 0.2812973378	 0.152564
H	-0.8657825904	 1.9372048724	 0.1825980308	 0.149669
H	-0.0845468564	 1.2293327084	 1.5874912697	 0.172963
H	-1.9085460102	-0.4162729106	-0.9158429465	 0.161044
H	-0.4780041595	-2.3338471193	-1.4884992269	 0.14412
H	-0.2826120105	-2.7512036957	 0.2171959917	 0.117567
H	-2.54975118	-3.1661554435	 0.2361815259	 0.299285
31.9071	94.6627	130.4835	145.0916	180.8371	227.897	348.1317	372.3914	390.1705	468.1059	523.102	580.2539	610.988	786.1578	869.2249	945.9283	1018.5428	1051.9149	1078.4258	1097.6576	1175.9762	1206.0411	1241.5281	1315.8339	1388.2169	1391.615	1407.4034	1457.5711	1471.1943	1499.5926	1822.669	2348.1442	3015.6046	3028.9433	3043.0696	3104.7817	3133.9424	3159.6896	3804.2782
CC(=O)C(CO)C#N	CC(=O)[C@@H](CO)C#N	
InChI=1S/C5H7NO2/c1-4(8)5(2-6)3-7/h5,7H,3H2,1H3	InChI=1S/C5H7NO2/c1-4(8)5(2-6)3-7/h5,7H,3H2,1H3/t5-/m1/s1
