16
gdb 123795	5.37721	1.01046	0.88694	3.3538	71.6	-0.234	0.0069	0.241	1273.6761	0.126008	-434.052796	-434.045119	-434.044175	-434.085971	28.223	
C	-0.3831472038	 1.0784568292	-0.2154682481	-0.241735
C	 1.0544182649	 1.1164790269	 0.233498807	-0.285907
C	 0.3749277453	-0.2052601811	-0.0030695937	 0.028932
N	 0.0655941287	-1.0005440619	 1.1490185035	-0.395203
C	-1.0280947327	-1.7919095296	 1.2283861378	 0.545611
N	-1.2701383987	-2.7104975101	 2.133144229	-0.378708
C	-2.5078687588	-3.1389032078	 1.7411844999	 0.051351
N	-3.0203299189	-2.565929193	 0.6880558392	-0.141192
O	-2.0022001381	-1.6355214766	 0.3266207165	-0.210981
H	-1.1453789278	 1.3257044598	 0.5129949866	 0.133812
H	-0.6212254947	 1.3543901315	-1.2357420618	 0.127788
H	 1.8177070097	 1.4229916195	-0.4719775548	 0.125042
H	 1.2490874161	 1.395014849	 1.263058985	 0.124577
H	 0.6601017168	-0.7628885541	-0.8930019093	 0.108539
H	 0.8208942663	-1.2860308515	 1.7536542828	 0.268146
H	-3.0535739442	-3.9137581702	 2.2617488802	 0.139931
61.0413	75.3191	133.2099	281.8678	338.799	369.7599	486.9206	537.3509	633.2701	747.346	773.2691	773.8066	847.0356	852.0464	881.965	938.327	966.691	979.8899	1002.8964	1043.1768	1066.5866	1083.1746	1129.726	1192.9987	1194.8094	1212.1129	1251.1671	1281.3914	1359.275	1400.1223	1451.6305	1462.4738	1499.3459	1574.112	1667.7446	3118.1901	3142.7386	3153.2523	3227.5149	3244.9098	3249.8488	3623.9828
C1CC1NC1=NC=NO1	C1CC1Nc1ncno1	
InChI=1S/C5H7N3O/c1-2-4(1)8-5-6-3-7-9-5/h3-4H,1-2H2,(H,6,7,8)	InChI=1S/C5H7N3O/c1-2-4(1)8-5-6-3-7-9-5/h3-4H,1-2H2,(H,6,7,8)
