20
gdb 14438	3.97806	1.98469	1.71046	0.1874	77.86	-0.2429	0.0934	0.3363	861.6046	0.179579	-311.862091	-311.855226	-311.854282	-311.892552	28.328	
C	-0.0513628894	 1.5158100918	 0.0281770816	-0.503994
C	 0.0187946932	 0.0158718843	-0.010637263	 0.362317
C	 0.8347353672	-0.796752128	-1.0217835241	-0.287756
C	-0.1598927859	-1.9864464322	-0.8227134368	-0.030605
C	 0.3654780903	-2.9706556872	 0.2314346508	-0.1999
C	 0.5609290591	-2.0849279466	 1.4937310147	-0.237665
C	-0.2916436637	-0.8472049422	 1.2072054326	-0.075509
C	-1.0998075919	-1.0167999956	-0.0529647798	-0.127995
H	 0.8923318083	 1.9515346901	 0.379434973	 0.115917
H	-0.2557052092	 1.9299038403	-0.9664957175	 0.112709
H	-0.843700052	 1.8606139603	 0.7013767939	 0.114211
H	 0.7532252852	-0.3651111788	-2.0240722637	 0.092464
H	 1.8943668347	-0.9844097726	-0.8063735191	 0.080855
H	-0.5334642828	-2.4512443828	-1.7353609579	 0.061224
H	-0.3816022284	-3.749478469	 0.4234264963	 0.092924
H	 1.2882818623	-3.4687610664	-0.0843571752	 0.090831
H	 0.223319606	-2.5935968408	 2.4020026179	 0.094287
H	 1.6142225404	-1.8264097925	 1.6495522046	 0.097006
H	-0.7410624251	-0.3112103772	 2.0369629811	 0.073631
H	-2.1721129279	-0.8988838747	-0.1450005192	 0.075047
201.1398	203.3797	238.9908	286.0548	385.1807	426.564	545.909	678.456	691.4959	722.9165	816.6282	839.195	853.1011	876.1265	906.8804	914.0848	951.4931	966.2793	992.4557	1016.9215	1026.7737	1057.2838	1071.4247	1110.2721	1146.254	1173.7976	1203.1849	1218.9831	1233.1673	1241.3153	1274.1722	1280.8639	1316.8842	1325.8636	1343.1183	1412.4392	1436.007	1486.1099	1486.6365	1494.009	1499.4178	1511.1171	3014.673	3019.1142	3031.7358	3040.7177	3069.3896	3072.1686	3078.0862	3086.5456	3089.5315	3107.9942	3163.6986	3189.9485
CC12CC3CCC1C23	C[C@@]12C[C@H]3CC[C@@H]1[C@@H]23	
InChI=1S/C8H12/c1-8-4-5-2-3-6(8)7(5)8/h5-7H,2-4H2,1H3	InChI=1S/C8H12/c1-8-4-5-2-3-6(8)7(5)8/h5-7H,2-4H2,1H3/t5-,6-,7+,8-/m1/s1
