19
gdb 124488	2.52028	1.27515	1.04485	4.0128	78.39	-0.2547	-0.0299	0.2248	1244.5663	0.157408	-419.209778	-419.200301	-419.199357	-419.244591	34.068	
C	-0.0646934055	 1.5870638659	 0.0424386564	-0.382692
C	 0.0091630206	 0.0491955035	 0.0514679123	-0.094822
C	 0.7746809576	-0.4633171675	 1.2851182584	-0.382678
C	-1.3617912318	-0.5555337432	-0.0202530236	 0.199015
C	-1.9568980343	-1.3616787638	-0.946577791	 0.293942
C	-1.5082592985	-1.9582146149	-2.2317293829	-0.494997
O	-3.2036050819	-1.624263688	-0.5384059645	-0.213933
N	-3.3800637626	-0.9415015533	 0.7051174232	-0.020215
N	-2.306638686	-0.3441313502	 0.9651818288	-0.175239
H	 0.9397507662	 2.0200989867	 0.0811864253	 0.112564
H	-0.5629542301	 1.9560345188	-0.859030412	 0.115117
H	-0.6271508019	 1.9472290152	 0.9090524109	 0.139688
H	 0.5524320172	-0.2723474017	-0.8460540925	 0.07842
H	 0.2469964497	-0.1880655955	 2.2032105691	 0.139668
H	 0.873455094	-1.5528068747	 1.2675968368	 0.115105
H	 1.7782573015	-0.0281594925	 1.3225790076	 0.112571
H	-1.5610311118	-3.0510246907	-2.1936700549	 0.156465
H	-2.1443057436	-1.6261802722	-3.0585770374	 0.156466
H	-0.4784847489	-1.6682263119	-2.4484901199	 0.145556
41.5141	107.5911	147.7554	172.3848	227.8061	246.9976	250.7886	280.2771	364.5696	437.0597	496.9278	618.2788	668.421	675.9171	711.7551	757.8334	889.9029	931.1465	965.7162	993.7777	1027.2964	1065.3804	1070.8054	1125.7621	1144.05	1200.5636	1249.6869	1331.6983	1368.1329	1378.5632	1397.4032	1417.1055	1424.98	1465.8224	1474.624	1485.1023	1486.1638	1491.702	1501.0232	1513.0317	1650.9776	3026.0237	3035.9145	3039.477	3044.629	3102.1461	3107.3809	3110.7779	3114.7286	3119.1916	3137.6561
CC(C)C1=C(C)ON=N1	CC(C)c1c(C)onn1	
InChI=1S/C6H10N2O/c1-4(2)6-5(3)9-8-7-6/h4H,1-3H3	InChI=1S/C6H10N2O/c1-4(2)6-5(3)9-8-7-6/h4H,1-3H3
