15
gdb 132086	2.9839	1.37559	0.94711	3.3048	73.59	-0.211	-0.0451	0.1658	1146.4369	0.112813	-461.986302	-461.978495	-461.97755	-462.018747	29.349	
C	-0.0272912575	 1.5335436878	 0.0448105804	-0.502216
C	 0.0061285314	 0.0398088094	-0.0462469616	 0.265542
C	 0.170391568	-0.6585065767	-1.2034801957	 0.165248
F	 0.3166137403	-0.0076628583	-2.3696646871	-0.087325
C	 0.1903888031	-2.0744528318	-1.2020248397	-0.143679
C	 0.0453237971	-2.7683344456	-0.0399197964	-0.257749
C	-0.1339675935	-2.0916273376	 1.2323060271	 0.427022
O	-0.2728245639	-2.6089797323	 2.3289847859	-0.402919
N	-0.1371639399	-0.6881866247	 1.1062103961	-0.427095
H	 0.0982697645	 1.9725734921	-0.9446458939	 0.159853
H	-0.9801593073	 1.8802862155	 0.4609100766	 0.147031
H	 0.7733556787	 1.905266082	 0.694512891	 0.147036
H	 0.3242030042	-2.5836285863	-2.1511105304	 0.125612
H	 0.0571630977	-3.8502320073	-0.0130139053	 0.124828
H	-0.2611337397	-0.2009238162	 1.9837659819	 0.258811
114.6445	130.0483	183.8098	276.072	333.8311	354.0371	440.2079	469.9482	500.7495	575.9797	586.4722	680.6673	734.723	752.5044	786.2432	848.6756	904.507	988.2024	1027.9477	1062.7035	1113.9973	1190.982	1217.5926	1276.1245	1313.4711	1410.6512	1452.6066	1460.2936	1486.6207	1490.8174	1603.1768	1686.9523	1782.1386	3032.8885	3084.604	3156.8736	3186.6146	3223.5449	3597.0811
CC1=C(F)C=CC(=O)N1	Cc1c(F)ccc(=O)[nH]1	
InChI=1S/C6H6FNO/c1-4-5(7)2-3-6(9)8-4/h2-3H,1H3,(H,8,9)	InChI=1S/C6H6FNO/c1-4-5(7)2-3-6(9)8-4/h2-3H,1H3,(H,8,9)
