16
gdb 127016	3.37815	1.05381	0.81144	2.7136	67.99	-0.2283	0.0037	0.232	1367.0844	0.123492	-475.003513	-474.995	-474.994056	-475.037299	30.856	
C	-0.081550615	 1.5348300388	-0.000393223	-0.391634
C	-0.0124245577	 0.0202068261	-0.0201700399	-0.058337
O	-1.3451647919	-0.4862359217	 0.0394243645	-0.263456
C	-1.449104675	-1.8275910307	 0.0303488186	 0.164137
C	-0.5290413952	-2.8282697006	-0.0254828035	-0.046281
O	-1.1483328503	-4.0303173686	-0.007749436	-0.184126
N	-2.5254041456	-3.8306062966	 0.0620508845	-0.241995
C	-2.6916264931	-2.5335086452	 0.0839492973	 0.364746
O	-3.8975103096	-1.9513358633	 0.1493872649	-0.415133
H	 0.9269282879	 1.9559991617	-0.0452620155	 0.123166
H	-0.651763357	 1.9051362086	-0.8564645118	 0.136701
H	-0.5649639142	 1.886001033	 0.9150924881	 0.136697
H	 0.472969498	-0.3446860784	-0.9374663008	 0.107376
H	 0.5596308808	-0.3639377445	 0.8373651431	 0.107379
H	 0.5462800892	-2.8494748925	-0.078559541	 0.14773
H	-4.5591232111	-2.6558126562	 0.1744346106	 0.313031
70.9432	97.7907	129.5561	241.6382	275.4836	294.4945	349.5296	378.7326	463.488	547.4764	576.5318	658.8928	728.8016	778.397	802.0619	829.4785	902.3996	927.9357	968.312	1076.9351	1138.7748	1146.8519	1186.8132	1218.1197	1297.3444	1302.6927	1306.9307	1403.1107	1429.0579	1483.4154	1500.1271	1507.7606	1525.0155	1594.989	1690.3117	2987.7011	3022.5697	3050.0211	3125.241	3129.6759	3281.4707	3779.721
CCOC1=CON=C1O	CCOc1conc1O	
InChI=1S/C5H7NO3/c1-2-8-4-3-9-6-5(4)7/h3H,2H2,1H3,(H,6,7)	InChI=1S/C5H7NO3/c1-2-8-4-3-9-6-5(4)7/h3H,2H2,1H3,(H,6,7)
