20
gdb 122247	2.70944	0.92277	0.77688	4.5387	81.31	-0.2661	0.0363	0.3024	1551.9136	0.169354	-403.146128	-403.136143	-403.135198	-403.18212	35.343	
C	 0.3568726681	 1.4466075317	 0.1926782354	-0.385737
C	-0.0443165249	 0.0123379982	-0.1039689218	-0.028124
O	 0.8284752778	-0.5015666865	-1.094199322	-0.24267
C	 0.5393802786	-1.8265046878	-1.4623282156	-0.130703
C	 1.4308297321	-2.2095862128	-2.6259661529	 0.168722
C	 2.8729890583	-2.5943972611	-2.3379990329	-0.275799
C	 1.89674352	-3.6541050137	-2.7464621637	-0.30399
C	 1.1680575899	-1.4975768899	-3.8524037299	 0.243438
N	 0.9505958869	-0.939007608	-4.8417182756	-0.346521
H	 1.3861900365	 1.4897037298	 0.5595613375	 0.127378
H	 0.2891962246	 2.0566384494	-0.712124626	 0.136037
H	-0.3018946191	 1.8756273554	 0.9534096493	 0.116739
H	 0.0134963912	-0.6049238353	 0.8087463435	 0.085588
H	-1.0867318329	-0.0348580274	-0.4600358588	 0.093343
H	 0.724210736	-2.5207180392	-0.6246034271	 0.086677
H	-0.519846056	-1.9318333294	-1.7485155378	 0.104563
H	 3.6242461683	-2.2837776827	-3.0534193525	 0.143612
H	 3.1815824119	-2.5384554281	-1.3004836261	 0.134601
H	 1.5313008255	-4.3455214105	-1.9952873735	 0.12941
H	 1.9717639071	-4.0678149621	-3.7445480994	 0.143438
45.6161	67.8052	108.3131	129.968	185.7215	229.0867	248.0455	288.6173	316.9447	392.3298	471.067	572.6936	593.964	712.7428	788.0815	822.0206	877.1201	903.2576	949.843	958.3583	971.8964	1047.8421	1057.5753	1076.0395	1095.7884	1148.8529	1161.8235	1187.3908	1193.6722	1248.2259	1296.8565	1301.1704	1344.5437	1385.0935	1407.6878	1450.0392	1469.4485	1483.6723	1496.5529	1499.6078	1511.9311	1533.4548	2353.4338	2949.9789	2961.6491	2984.7662	2990.4007	3047.1995	3121.4533	3126.0136	3145.5266	3150.3102	3231.3274	3245.1715
CCOCC1(CC1)C#N	CCOCC1(CC1)C#N	
InChI=1S/C7H11NO/c1-2-9-6-7(5-8)3-4-7/h2-4,6H2,1H3	InChI=1S/C7H11NO/c1-2-9-6-7(5-8)3-4-7/h2-4,6H2,1H3
