17
gdb 125690	2.95431	1.4645	1.03877	1.2991	75.26	-0.2192	0.0069	0.2262	1135.9523	0.137621	-414.167697	-414.159421	-414.158476	-414.201479	29.914	
C	-0.2349586817	 1.4392368582	 0.0472272237	-0.50179
C	-0.0528777222	-0.0404671095	 0.0111423643	 0.247286
N	-0.0252861141	-0.7439334794	-1.1213321811	-0.258176
N	 0.1608921445	-1.9922811861	-0.7128913169	-0.089756
N	 0.2617085182	-2.1796679712	 0.6018574824	-0.280802
C	 0.1271307428	-0.9449516561	 1.0860535676	 0.276053
N	 0.2320752876	-0.6219736954	 2.44159425	-0.155635
C	-0.9998878054	-0.5051255387	 3.2367904828	-0.233086
C	-0.071984136	-1.6536870347	 3.4252768213	-0.218328
H	 0.5413952873	 1.9112607183	 0.658029344	 0.140505
H	-0.1871927028	 1.8486718942	-0.9637534104	 0.14209
H	-1.2010851218	 1.7180863849	 0.483654034	 0.130145
H	 0.2577456194	-2.7536343638	-1.363050573	 0.288667
H	-1.0152548529	 0.3161321131	 3.9465729999	 0.123247
H	-1.9422654131	-0.703756621	 2.7324074926	 0.124887
H	-0.385302864	-2.6224752559	 3.0484859164	 0.142107
H	 0.5938576946	-1.6798444068	 4.2823632524	 0.122585
40.5331	99.2447	164.3733	182.2902	266.4124	300.38	405.1744	440.3703	525.3999	578.5651	707.7054	709.3581	767.9497	824.587	898.9213	926.4634	977.2187	1020.5135	1040.2987	1069.7429	1112.6116	1133.5447	1163.3456	1175.1656	1191.7036	1193.2347	1240.4914	1314.4637	1376.1769	1413.6713	1464.0376	1479.8682	1489.3199	1490.8403	1516.9406	1549.2165	1571.7153	3034.5959	3087.5213	3110.648	3122.9922	3135.1476	3198.9089	3215.7569	3681.2999
CC1=NNN=C1N1CC1	Cc1n[nH]nc1N1CC1	
InChI=1S/C5H8N4/c1-4-5(7-8-6-4)9-2-3-9/h2-3H2,1H3,(H,6,7,8)	InChI=1S/C5H8N4/c1-4-5(7-8-6-4)9-2-3-9/h2-3H2,1H3,(H,6,7,8)
