23
gdb 108865	2.31772	1.19635	0.83306	1.4819	89.1	-0.2237	0.0349	0.2586	1447.1846	0.206388	-388.313016	-388.303367	-388.302423	-388.347474	36.577	
C	-0.0705271763	 1.5784495798	-0.0438300423	-0.395544
C	-0.0056384009	 0.043315372	-0.0275474668	-0.010122
C	 0.6862036372	-0.5072183694	-1.2850832174	-0.192801
C	 1.0063778274	-1.9977423013	-1.1379845143	-0.216936
C	 1.9591329231	-2.2332907349	 0.0413672944	-0.282487
C	 1.5455810474	-1.4587791054	 1.2727697193	 0.250033
C	 2.2034655126	-1.902882179	 2.5518294296	-0.148711
O	 1.8385767104	-1.063708426	 3.6310808839	-0.414406
C	 0.6630014042	-0.4599112993	 1.2299417394	-0.118418
H	 0.9360303093	 2.0112644996	-0.0337620752	 0.114756
H	-0.5855395127	 1.9402223954	-0.9404535787	 0.105799
H	-0.6066909902	 1.9619384607	 0.8305339188	 0.11104
H	-1.0458574164	-0.3226863035	-0.0247486651	 0.07597
H	 0.0580438091	-0.3299596366	-2.1657580282	 0.086238
H	 1.6204273081	 0.0479872193	-1.449539527	 0.090817
H	 0.0747440453	-2.55271846	-0.9675216027	 0.096794
H	 1.4442592955	-2.3940367238	-2.060653685	 0.088119
H	 2.0118305975	-3.3055047277	 0.2764730369	 0.093215
H	 2.9840682753	-1.9480916511	-0.2419360067	 0.103348
H	 1.9199494365	-2.9524553838	 2.7508309798	 0.089874
H	 3.2991252275	-1.9081701145	 2.4035154362	 0.088498
H	 2.2297227372	-1.4221707842	 4.4321596518	 0.288066
H	 0.403680153	 0.0424541038	 2.1575748492	 0.096857
71.9771	116.1091	143.4067	199.1761	221.1034	247.2457	274.8888	325.7615	383.8526	414.0444	450.8161	494.0871	547.2637	623.6321	774.384	834.5743	865.0481	897.1412	902.1702	954.4882	990.4412	994.3266	1027.0803	1041.0731	1079.3759	1093.7448	1123.1499	1152.0372	1166.3927	1189.2338	1231.592	1236.9843	1256.8612	1286.6722	1318.9226	1334.5264	1357.0303	1373.6592	1384.1939	1395.582	1410.0796	1459.5375	1476.6608	1488.3448	1495.8747	1498.4334	1500.5861	1509.0393	1744.1223	2929.9498	2942.3124	2959.9915	2989.0176	3009.5445	3014.7556	3025.952	3029.4352	3059.4013	3068.2875	3095.3283	3097.6704	3172.8289	3842.7709
CC1CCCC(CO)=C1	C[C@H]1CCCC(=C1)CO	
InChI=1S/C8H14O/c1-7-3-2-4-8(5-7)6-9/h5,7,9H,2-4,6H2,1H3	InChI=1S/C8H14O/c1-7-3-2-4-8(5-7)6-9/h5,7,9H,2-4,6H2,1H3/t7-/m0/s1
