26
gdb 121932	2.74352	0.77763	0.63394	0.9445	94.01	-0.229	0.0894	0.3184	1885.7365	0.239187	-369.594731	-369.583707	-369.582763	-369.631373	40.482	
C	 0.0025264081	 1.5888149445	 0.0501202826	-0.380391
C	 0.0397626723	 0.0592431775	-0.0050605858	-0.162075
C	 0.7014310178	-0.4827447407	-1.2777082165	-0.172396
C	 0.7252721531	-2.0141432059	-1.3283711989	-0.171511
C	 1.4575801386	-2.634676038	-2.5278660594	 0.048509
C	 1.4973540011	-4.1603337985	-2.4045206806	-0.389432
N	 0.7783865884	-2.2805700132	-3.7791318238	-0.059706
C	 1.2377229	-1.0896806692	-4.485963727	-0.218053
C	 1.546318067	-2.4471646131	-5.008284245	-0.226761
H	 1.0131397231	 2.0110830361	 0.0131042709	 0.111194
H	-0.5574943141	 2.0017551974	-0.7964040397	 0.112927
H	-0.4730776931	 1.9457312913	 0.9691439858	 0.109587
H	 0.5731513496	-0.3267465813	 0.8740216584	 0.09148
H	-0.9825984926	-0.335216063	 0.0655378337	 0.095223
H	 0.1689017433	-0.0906116132	-2.1519847323	 0.10703
H	 1.7283593238	-0.0949465361	-1.3418674451	 0.083577
H	 1.2018538998	-2.3924793444	-0.4140336844	 0.086065
H	-0.3040419614	-2.3954376767	-1.3242184557	 0.099965
H	 2.499458868	-2.256917341	-2.5361931579	 0.048615
H	 0.4810278739	-4.567025517	-2.3994026785	 0.123087
H	 2.0369257766	-4.611591975	-3.2424488287	 0.110824
H	 1.9960498879	-4.4613593721	-1.4783056468	 0.109812
H	 0.4639060145	-0.4796638256	-4.9439682173	 0.113325
H	 2.0657215399	-0.5272891058	-4.0577629398	 0.109457
H	 2.57981466	-2.7822853653	-4.9265201991	 0.106348
H	 1.0043155643	-2.8544287217	-5.8571994391	 0.113302
59.8939	82.2398	96.9857	127.1605	156.9801	215.8055	226.6818	251.363	282.5336	312.6558	319.7357	412.1532	511.0888	527.0659	708.3545	742.1976	795.9864	831.81	896.4099	902.1936	908.4745	933.7362	976.9219	1017.5627	1030.6983	1036.6824	1068.0789	1080.0443	1114.3401	1121.5979	1124.0411	1142.7319	1172.7687	1184.2706	1208.4064	1252.3733	1279.0632	1312.1967	1322.4278	1333.7017	1339.1481	1377.6147	1385.5548	1399.3426	1408.4471	1414.4552	1472.4628	1485.9373	1489.2189	1492.0018	1498.6898	1500.64	1501.403	1512.8122	1520.9399	2896.0501	3003.09	3010.4947	3016.9613	3027.8014	3037.9759	3039.1136	3049.1315	3072.5954	3089.4193	3094.4099	3096.4259	3099.7209	3109.7878	3112.0126	3171.6189	3186.4706
CCCCC(C)N1CC1	CCCC[C@@H](C)N1CC1	
InChI=1S/C8H17N/c1-3-4-5-8(2)9-6-7-9/h8H,3-7H2,1-2H3	InChI=1S/C8H17N/c1-3-4-5-8(2)9-6-7-9/h8H,3-7H2,1-2H3/t8-/m1/s1
