21
gdb 57903	2.95886	1.21209	0.94093	3.1223	81.82	-0.2299	0.0473	0.2773	1318.4886	0.181016	-420.415382	-420.40498	-420.404036	-420.450997	36.755	
C	-0.2593528927	 1.3265678661	 0.5181322211	-0.39777
C	 0.1254106128	-0.0283565942	-0.0300416084	 0.029439
C	 1.5566704552	-0.4677206816	-0.0653432083	-0.259312
N	 0.5870769052	-1.12149383	 0.8084547701	-0.148072
C	 0.6114944835	-1.0435604994	 2.214185658	 0.446279
O	-0.2457317305	-0.455939269	 2.8525562074	-0.40899
N	 1.6366339113	-1.7476320486	 2.7991631443	-0.101357
C	 1.7779027193	-1.7077175074	 4.2424735011	-0.338146
C	 2.5450994923	-2.6168237912	 2.077024218	-0.331915
H	 0.4416726709	 1.6709582577	 1.2812491986	 0.125368
H	-0.2710579721	 2.0545874151	-0.3005274213	 0.109931
H	-1.2504327422	 1.2954248688	 0.9752732775	 0.146597
H	-0.5103080572	-0.3757663554	-0.8437082445	 0.095619
H	 1.9441779644	-1.068333038	-0.8849386268	 0.116632
H	 2.2844631911	 0.1961257333	 0.3978044303	 0.122236
H	 1.6111406392	-2.7003818894	 4.6816370176	 0.118116
H	 2.7859094588	-1.3766434418	 4.5238250728	 0.114761
H	 1.0403929766	-1.013480164	 4.6414009514	 0.167638
H	 2.1259597244	-2.8782144163	 1.1065757397	 0.155191
H	 3.5327605973	-2.1576452367	 1.9269689611	 0.115081
H	 2.691139832	-3.5418513578	 2.6471210903	 0.122674
64.4899	103.334	105.2818	142.449	174.8584	194.6198	215.6789	234.42	313.3111	376.1454	388.0038	430.1931	508.7995	604.0249	714.7948	778.2952	829.8986	884.9195	912.3792	990.8868	1041.6026	1058.7788	1085.5444	1120.702	1135.0047	1138.0645	1163.4037	1175.0157	1182.751	1194.8508	1293.5255	1354.1403	1405.8175	1414.6746	1425.6941	1432.821	1469.3732	1481.1727	1487.8104	1494.5736	1498.0201	1507.2228	1513.8773	1540.6535	1753.9336	2998.3952	3008.5235	3043.4949	3050.1339	3057.5864	3092.1478	3106.6194	3119.5711	3139.4231	3157.2446	3169.5127	3178.3925
CC1CN1C(=O)N(C)C	C[C@H]1CN1C(=O)N(C)C	
InChI=1S/C6H12N2O/c1-5-4-8(5)6(9)7(2)3/h5H,4H2,1-3H3	InChI=1S/C6H12N2O/c1-5-4-8(5)6(9)7(2)3/h5H,4H2,1-3H3/t5-,8?/m0/s1
