18
gdb 30365	3.12166	1.58594	1.18391	1.063	78.92	-0.2043	0.0356	0.2398	1048.3238	0.15096	-401.992604	-401.98511	-401.984166	-402.0245	29.424	
O	-0.6332686667	 1.389740989	-0.4459514239	-0.44099
C	-0.0329380854	 0.1455726352	-0.0578589838	-0.014372
C	-1.1754327328	-0.8671331686	 0.1900078866	-0.221733
C	-1.4016273822	-1.5587088151	-1.1759500614	-0.183099
N	-0.0856737836	-1.4375857553	-1.7872085157	 0.01082
C	 0.5518744626	-1.9710892089	-2.8699707405	-0.135959
C	 1.7951661519	-1.3703886518	-2.9489204251	-0.138449
C	 1.9024424614	-0.4382170312	-1.8771210942	-0.341125
C	 0.7146730527	-0.5050178888	-1.1790199784	 0.325498
H	-0.0089024361	 1.8382994515	-1.0251586578	 0.280852
H	 0.57903775	 0.2978035971	 0.8405343855	 0.076225
H	-0.8533983004	-1.6059567108	 0.9294285313	 0.112566
H	-2.0691072673	-0.3644954206	 0.5633668996	 0.120183
H	-1.7013943917	-2.6059072204	-1.0801884363	 0.118787
H	-2.1557713445	-1.0367485208	-1.7758074039	 0.128032
H	 0.0929119367	-2.7323101984	-3.4804638681	 0.115229
H	 2.5525829451	-1.5922500615	-3.6857164028	 0.093392
H	 2.7532052602	 0.1847419592	-1.6460853111	 0.094141
122.4994	143.4539	202.7157	228.6232	356.9923	429.8356	451.0084	614.2683	630.0239	688.667	716.3438	725.766	769.5372	798.247	832.1813	846.8706	922.2077	925.0185	981.8762	1002.4732	1034.0749	1078.4637	1106.1681	1138.0663	1194.5764	1216.713	1246.7451	1255.0585	1312.3377	1329.5422	1339.4474	1355.7851	1375.8026	1436.367	1444.0395	1476.8726	1499.0715	1529.7449	1585.7217	3016.505	3039.4341	3067.8515	3090.6364	3131.081	3236.9592	3250.3258	3267.0871	3820.5029
OC1CCN2C=CC=C12	O[C@H]1CCn2cccc12	
InChI=1S/C7H9NO/c9-7-3-5-8-4-1-2-6(7)8/h1-2,4,7,9H,3,5H2	InChI=1S/C7H9NO/c9-7-3-5-8-4-1-2-6(7)8/h1-2,4,7,9H,3,5H2/t7-/m0/s1
