15
gdb 106999	2.96822	1.33799	1.05535	1.9295	61.52	-0.2402	-0.0459	0.1943	1107.574	0.110376	-494.854373	-494.845809	-494.844865	-494.888163	30.886	
O	 0.4946397808	 0.7026323254	-0.7624781017	-0.410263
C	-0.1164442695	 0.163045815	 0.3941152238	-0.21075
C	-1.3994562201	-0.5245664634	 0.0320056721	 0.289366
O	-2.1270688856	-1.2976415653	 1.019050138	-0.293802
C	-1.7959911817	-1.9375172193	-0.2189642344	-0.097906
C	-2.9476242457	-1.5548185981	-1.1683424475	 0.015231
O	-4.2362133197	-1.9478096511	-0.812975776	-0.421238
C	-2.4678231977	-0.061618538	-0.9472924209	 0.331687
O	-2.6969936244	 0.9858237806	-1.4789004801	-0.309689
H	-0.0926356153	 1.3826016405	-1.113303812	 0.304189
H	 0.5874745387	-0.5496709628	 0.8339659194	 0.133174
H	-0.3220524474	 0.9331627745	 1.1529194683	 0.117099
H	-1.173451676	-2.8232609905	-0.1849178124	 0.131904
H	-2.7810086071	-1.8433953671	-2.2112198959	 0.124287
H	-4.3409789994	-1.7415566405	 0.1247144591	 0.296712
61.1074	100.6254	130.674	218.2171	249.6656	264.2951	405.6717	447.2108	463.4261	498.422	568.9556	618.3935	704.3011	806.0449	827.0743	860.5313	913.5756	955.3083	993.7643	1034.2201	1075.9507	1129.7178	1148.2791	1193.4322	1243.6326	1268.1542	1284.2869	1376.976	1402.7173	1426.3975	1455.0681	1498.9368	1883.4281	2995.7464	3077.3183	3088.1406	3203.0136	3779.1162	3797.6988
OCC12OC1C(O)C2=O	OC[C@]12O[C@H]1[C@@H](O)C2=O	
InChI=1S/C5H6O4/c6-1-5-3(8)2(7)4(5)9-5/h2,4,6-7H,1H2	InChI=1S/C5H6O4/c6-1-5-3(8)2(7)4(5)9-5/h2,4,6-7H,1H2/t2-,4-,5+/m0/s1
