15
gdb 34650	3.65756	1.23601	0.96278	2.851	75.54	-0.2583	-0.0616	0.1966	1155.901	0.115293	-413.008128	-413.000425	-412.999481	-413.040635	28.347	
N	 0.119547634	-1.1599455344	-0.2979511594	-0.314879
C	-0.0018265765	-0.0215348898	-0.1388888488	 0.267831
C	-0.1083642259	 1.4103962059	 0.0866025798	 0.278483
N	-1.2308565826	 1.9595929539	-0.1316882961	-0.266468
C	-1.4502307422	 3.3647026476	 0.1362032564	-0.186879
C	-0.3713099896	 4.3331780227	-0.3987193925	-0.178021
N	 0.8830453857	 4.3525528851	 0.3238284725	-0.221034
C	 1.4683316534	 3.2915801061	 0.6812694058	 0.088746
N	 1.0958024915	 1.9517168373	 0.5379937369	-0.368295
H	-2.4146214453	 3.6355819575	-0.3049411163	 0.121504
H	-1.54398809	 3.5147595494	 1.2202825854	 0.133439
H	-0.1840998812	 4.0960295803	-1.4542538796	 0.1297
H	-0.7841981945	 5.3474269164	-0.3758444387	 0.11786
H	 2.4338117502	 3.3688769658	 1.1832744713	 0.126159
H	 1.8057295231	 1.2766098161	 0.7848841535	 0.271854
93.4122	134.4579	162.8618	228.2255	351.7944	375.0329	445.302	499.2104	549.7697	571.9116	617.2621	717.6607	745.7665	823.3132	903.6227	937.7569	946.3407	1025.3619	1066.0987	1086.0429	1143.6091	1211.174	1248.4743	1303.1377	1336.9363	1379.7606	1442.769	1487.2546	1491.3205	1527.1131	1729.0849	1761.2589	2356.4536	3019.2803	3025.5017	3066.8061	3075.491	3123.5816	3597.713
N#CC1=NCCN=CN1	N#CC1=NCCN=CN1	
InChI=1S/C5H6N4/c6-3-5-8-2-1-7-4-9-5/h4H,1-2H2,(H,7,8,9)	InChI=1S/C5H6N4/c6-3-5-8-2-1-7-4-9-5/h4H,1-2H2,(H,7,8,9)
