18
gdb 78175	2.35535	1.65681	1.30713	3.7517	71.77	-0.2421	0.0119	0.254	1035.8023	0.149034	-439.114412	-439.106417	-439.105473	-439.146617	31.5	
C	-0.259807335	 1.591817193	 0.0574609472	-0.403578
C	 0.0821960447	 0.1031322938	-0.0205752905	 0.018179
N	 1.0345096696	-0.2214090942	-1.0918609416	-0.357139
C	 1.8684866742	-1.2919938499	-0.775588939	 0.405447
O	 2.4585430696	-1.9785654584	-1.5758870481	-0.368615
C	 1.9002268066	-1.3827452216	 0.7226101161	-0.232531
C	 2.2186168407	-0.0773217238	 1.4343615012	 0.127585
O	 2.855727094	 1.0050263948	 0.8333549763	-0.420953
C	 0.78455906	-0.4547313069	 1.219388446	-0.115713
H	 0.6297449009	 2.1876055637	 0.272212482	 0.142232
H	-0.70621028	 1.9420255081	-0.8791577504	 0.114801
H	-0.9885890319	 1.7627095054	 0.8559530484	 0.124446
H	-0.8488317749	-0.4631228619	-0.175157479	 0.091011
H	 0.7581903132	-0.1286980857	-2.0592623376	 0.249743
H	 2.1650065156	-2.3350454496	 1.1620822054	 0.11214
H	 2.5914713509	-0.1969692385	 2.4461965417	 0.119675
H	 2.6196455103	 1.0103154111	-0.103926954	 0.294947
H	 0.1639055714	-0.7092150794	 2.0707014757	 0.098319
132.527	159.5047	188.9823	243.1188	283.18	401.8287	449.6957	466.9917	486.8261	549.9957	614.2434	654.6621	724.5402	759.654	785.5053	792.3966	865.5943	934.8572	966.4463	1005.624	1022.8438	1042.7581	1055.9208	1108.1285	1129.8495	1151.6316	1195.3086	1241.2944	1289.9064	1311.6139	1336.2325	1372.658	1393.9245	1409.1818	1419.0316	1462.4118	1494.3841	1502.9947	1836.4149	2979.4792	3040.4398	3105.3334	3136.5702	3170.3351	3179.7806	3208.8517	3607.0622	3747.705
CC1NC(=O)C2C(O)C12	C[C@H]1NC(=O)[C@H]2[C@@H](O)[C@@H]12	
InChI=1S/C6H9NO2/c1-2-3-4(5(3)8)6(9)7-2/h2-5,8H,1H3,(H,7,9)	InChI=1S/C6H9NO2/c1-2-3-4(5(3)8)6(9)7-2/h2-5,8H,1H3,(H,7,9)/t2-,3+,4-,5+/m1/s1
