16
gdb 123893	3.71488	1.67082	1.18459	3.6733	77.5	-0.2307	-0.0376	0.1931	990.3482	0.12942	-396.978338	-396.971861	-396.970916	-397.00921	25.44	
C	-0.0057491801	 1.5035201809	 0.0807139009	-0.282962
C	 1.3945169359	 2.121481478	-0.0692619678	-0.155518
N	 2.1322288499	 1.3966744867	-1.0895939822	-0.008688
N	 3.1861729972	 1.894337842	-1.7741190791	-0.259429
C	 3.6184406004	 0.8215830021	-2.4262870155	 0.018696
N	 2.9286851455	-0.3259857072	-2.1916194193	-0.345463
C	 1.9975723922	 0.0716043119	-1.3316218358	 0.382156
C	 0.9430693377	-0.6719146091	-0.6707056641	-0.144692
C	 0.0077542528	-0.0078634326	 0.0199967511	-0.087907
H	-0.4433264377	 1.850190647	 1.0217074594	 0.123054
H	-0.6627837913	 1.8786624606	-0.7177852853	 0.134298
H	 1.3435928808	 3.17247991	-0.358676746	 0.141576
H	 1.9466374525	 2.0581388248	 0.8776383604	 0.129248
H	 4.4606800871	 0.8751650986	-3.1000023543	 0.124329
H	 0.9463667529	-1.7499111096	-0.7747235438	 0.121556
H	-0.8048383058	-0.5409942443	 0.5026394315	 0.109744
138.4539	203.5415	240.1209	401.0809	436.577	498.621	597.1011	673.109	693.0126	725.0914	772.6552	820.5145	881.7971	903.3575	939.1043	992.4103	993.5721	1024.7953	1066.8265	1159.1605	1164.4393	1202.7508	1231.6875	1259.0557	1302.976	1320.444	1356.2788	1368.9303	1379.8783	1446.4481	1470.7211	1488.5998	1517.8772	1559.1875	1690.6242	3003.7703	3023.7666	3082.71	3118.2068	3183.1299	3217.3759	3258.973
C1CN2N=CN=C2C=C1	C1Cn2ncnc2C=C1	
InChI=1S/C6H7N3/c1-2-4-9-6(3-1)7-5-8-9/h1,3,5H,2,4H2	InChI=1S/C6H7N3/c1-2-4-9-6(3-1)7-5-8-9/h1,3,5H,2,4H2
