18
gdb 27926	2.40881	1.31793	0.861	5.805	85.37	-0.2107	-0.021	0.1897	1328.3574	0.14711	-402.02012	-402.010804	-402.00986	-402.054664	33.273	
C	 0.0223670589	 1.4908723409	 0.0749313296	-0.503133
C	 0.0160649345	 0.0039236844	-0.0490178454	 0.330482
C	-0.0450479863	-0.8182094022	-1.1385351058	-0.335356
C	-0.0185643603	-2.1741601556	-0.6720489861	 0.119783
C	-0.065104415	-3.3611488502	-1.5065544265	 0.070172
O	-0.1332117329	-3.3560632532	-2.7196178155	-0.300526
C	 0.0595159098	-2.1354008638	 0.7171406368	 0.232859
C	 0.1176343951	-3.2168891173	 1.7456913552	-0.50959
N	 0.0792686405	-0.8165505135	 1.0703726059	-0.351045
H	 0.9329973291	 1.8613863276	 0.5621509259	 0.128706
H	-0.0296641105	 1.9437634666	-0.9172632788	 0.146341
H	-0.8324329979	 1.8612929488	 0.6546413335	 0.128834
H	-0.1031044295	-0.5172963378	-2.1725052083	 0.118821
H	-0.0337586109	-4.3276625764	-0.9529239707	 0.044806
H	 1.0361404232	-3.1589735071	 2.3425346238	 0.135676
H	-0.7290910054	-3.1605637406	 2.4407740335	 0.135687
H	 0.0922708898	-4.2005333043	 1.2749167591	 0.151426
H	 0.1318118877	-0.4827776563	 2.0189886939	 0.256055
60.3183	115.8064	139.7265	172.6499	190.5148	216.1429	256.3105	354.5373	375.7382	523.042	526.8487	613.6898	649.3491	652.4556	666.765	838.9336	844.712	972.025	1017.6826	1023.5494	1027.3653	1056.4963	1065.8199	1142.6378	1167.9622	1247.1733	1345.0872	1405.6117	1413.6965	1421.1154	1440.326	1470.6623	1479.4874	1481.0722	1496.9029	1502.0664	1568.364	1642.7668	1774.2705	2857.0749	3018.0686	3022.3721	3062.8671	3067.7864	3128.9428	3139.68	3265.0506	3652.092
CC1=CC(C=O)=C(C)N1	Cc1cc(C=O)c(C)[nH]1	
InChI=1S/C7H9NO/c1-5-3-7(4-9)6(2)8-5/h3-4,8H,1-2H3	InChI=1S/C7H9NO/c1-5-3-7(4-9)6(2)8-5/h3-4,8H,1-2H3
