18
gdb 17290	3.1004	2.44482	1.86042	1.9178	70.26	-0.2434	0.0662	0.3096	796.008	0.154455	-347.745296	-347.738503	-347.737558	-347.77572	27.562	
C	-0.0016891115	 1.5353406815	-0.0304482684	-0.497073
C	-0.0038336833	 0.0251246992	-0.0026826939	 0.313821
C	-1.347158652	-0.7358776304	 0.0837623716	-0.147149
O	-0.865942721	-1.5389236605	 1.1934950796	-0.3011
C	 0.3851362408	-0.8070892881	 1.236817196	 0.066706
C	 1.5791323334	-1.4298130072	 0.4836994377	-0.057593
C	 1.1014427431	-2.1627219715	-0.7347790408	-0.300976
C	 1.1525618813	-0.662246187	-0.7810788871	-0.114245
H	 0.9999068293	 1.9298214069	 0.1739897146	 0.120945
H	-0.3079165719	 1.9118714195	-1.0140330327	 0.12033
H	-0.6876463127	 1.9491771303	 0.7160785928	 0.119163
H	-2.1955522983	-0.1096323654	 0.3898509091	 0.096019
H	-1.6427048306	-1.3470316573	-0.7771163964	 0.099729
H	 0.591644185	-0.3740536513	 2.2192549252	 0.072534
H	 2.5679653817	-1.5791579275	 0.9003286548	 0.083639
H	 1.8818266284	-2.6574202542	-1.30425717	 0.110692
H	 0.1624794242	-2.7038472419	-0.7017906057	 0.130557
H	 1.7760816241	-0.1400824852	-1.4980658162	 0.084
197.5272	225.6795	248.5316	288.7538	344.6322	442.8811	519.0391	630.6421	683.849	761.0916	801.9463	855.3507	887.892	906.1257	924.2353	958.1284	976.7443	988.4424	989.5119	1024.9288	1046.6183	1056.6579	1083.3096	1151.2495	1163.4557	1184.5827	1192.9867	1235.456	1253.689	1294.3292	1301.8858	1340.8205	1386.5741	1413.9186	1486.8569	1492.3826	1495.621	1518.9185	3006.9311	3022.2989	3056.6311	3073.2637	3084.2472	3097.5195	3133.6476	3169.0162	3182.6657	3216.3117
CC12COC1C1CC21	C[C@]12CO[C@H]1[C@H]1C[C@@H]21	
InChI=1S/C7H10O/c1-7-3-8-6(7)4-2-5(4)7/h4-6H,2-3H2,1H3	InChI=1S/C7H10O/c1-7-3-8-6(7)4-2-5(4)7/h4-6H,2-3H2,1H3/t4-,5+,6-,7+/m0/s1
