21
gdb 74408	2.86641	1.53914	1.28942	0.282	87.56	-0.2104	0.0033	0.2136	1098.823	0.183156	-349.959349	-349.951205	-349.95026	-349.991296	33.386	
C	-0.037610779	 1.5064844509	 0.0547527859	-0.509565
C	-0.0441137194	 0.017951893	-0.0268182649	 0.350142
C	-0.0539166434	-0.7893539802	-1.0888314964	-0.230092
C	 0.0288967885	-2.2505206852	-0.5899880805	 0.262397
C	-0.3623754274	-3.3342058394	-1.5797430313	-0.501087
C	-0.8320111113	-2.0775617641	 0.7029373312	-0.220808
C	 0.0493967474	-0.9032296096	 1.2158990387	-0.168843
C	 1.418970853	-1.610003537	 1.1669603376	-0.092924
C	 1.4085096679	-2.4020860176	 0.0960776926	-0.099705
H	 0.8817798583	 1.8716208193	 0.5326347569	 0.124476
H	-0.1078811462	 1.9653913032	-0.9356497492	 0.122661
H	-0.8714003605	 1.8802302279	 0.6631496934	 0.122741
H	-0.0564066096	-0.5087823761	-2.1352046023	 0.085947
H	 0.3149619622	-3.3488072317	-2.4412210404	 0.113826
H	-0.3289006629	-4.3254065898	-1.1150562826	 0.113912
H	-1.3770718704	-3.1743454651	-1.9593037798	 0.114737
H	-1.8650197309	-1.7860756733	 0.4894983073	 0.086454
H	-0.8063821264	-2.955653901	 1.3558566609	 0.086726
H	-0.2160997629	-0.438683798	 2.1665057773	 0.053022
H	 2.2291591961	-1.4291013965	 1.8608324284	 0.094513
H	 2.2090941669	-3.0195670698	-0.291599323	 0.091469
154.2122	187.4485	201.8348	235.9623	286.1713	329.509	453.4493	467.1039	529.1537	550.3477	601.9574	619.1487	721.5476	753.9732	808.4709	809.8149	869.26	886.9343	894.8973	910.1504	931.0681	949.0787	1010.3597	1027.5202	1063.4883	1079.7294	1104.6189	1124.6649	1150.3879	1190.4391	1216.2307	1236.3066	1268.2713	1274.3373	1286.3628	1350.9094	1410.2748	1412.7177	1478.039	1485.6252	1491.5122	1494.417	1494.7412	1634.1322	1704.1484	3008.7035	3026.3433	3042.2303	3052.807	3090.3821	3097.0083	3102.3956	3103.5345	3105.0251	3198.9615	3200.7523	3227.3931
CC1=CC2(C)CC1C=C2	CC1=C[C@]2(C)C[C@H]1C=C2	
InChI=1S/C9H12/c1-7-5-9(2)4-3-8(7)6-9/h3-5,8H,6H2,1-2H3	InChI=1S/C9H12/c1-7-5-9(2)4-3-8(7)6-9/h3-5,8H,6H2,1-2H3/t8-,9-/m1/s1
