14
gdb 50389	3.24204	1.21302	0.99244	2.325	72.13	-0.2542	-0.0422	0.212	1160.5072	0.099232	-436.663823	-436.655658	-436.654714	-436.69747	28.879	
O	-0.2970598253	 0.1042178036	-0.0711596778	-0.222088
C	-0.0405174384	 1.2703074007	-0.185689613	 0.14837
C	 1.338842177	 1.8813906048	-0.0015620073	-0.033365
C	 1.4453932358	 2.652770526	 1.3566511048	-0.216798
N	 2.3412177019	 1.8264255417	 2.166544915	-0.312166
C	 2.7683148595	 0.9009909218	 1.4031768784	 0.272964
O	 2.3361150797	 0.8623195663	 0.1061246282	-0.234316
C	 3.6927728991	-0.1160011582	 1.7684525667	 0.270879
C	 4.4751442217	-0.977005347	 2.0661394778	-0.347445
H	-0.8244783191	 2.0318315665	-0.4089854944	 0.082459
H	 1.5685249184	 2.5149244624	-0.8648079713	 0.11562
H	 1.8695589576	 3.6551108411	 1.2344901324	 0.132901
H	 0.4759091401	 2.7667974176	 1.8537126738	 0.13126
H	 5.1657300519	-1.7378539973	 2.3370740366	 0.211725
54.5454	99.3086	149.9854	164.7428	252.9307	331.8223	378.8919	523.373	575.5793	659.9702	676.4424	701.9021	716.0963	753.2452	843.2801	902.9874	944.1611	980.0247	1022.8231	1075.1635	1102.1894	1194.223	1231.9134	1275.6248	1331.165	1367.3726	1416.1287	1498.1787	1695.0941	1849.1818	2255.4204	2859.3743	3039.5323	3058.7223	3076.1456	3500.2878
O=CC1CN=C(O1)C#C	O=C[C@H]1CN=C(O1)C#C	
InChI=1S/C6H5NO2/c1-2-6-7-3-5(4-8)9-6/h1,4-5H,3H2	InChI=1S/C6H5NO2/c1-2-6-7-3-5(4-8)9-6/h1,4-5H,3H2/t5-/m1/s1
