19
gdb 34656	3.2268	1.16216	0.90467	1.6608	87.87	-0.2269	-0.0237	0.2033	1293.8112	0.159612	-385.861504	-385.852938	-385.851994	-385.894888	32.854	
C	 0.079506675	-1.2093514758	-0.3106487091	-0.432432
C	-0.001374124	-0.0202059057	-0.1285373095	 0.241799
C	-0.0219529214	 1.3868756143	 0.0873163974	 0.121288
C	-1.1817091399	 2.0659296268	 0.0522537642	-0.131456
C	-1.3620081919	 3.5550062302	 0.1995526078	-0.260611
C	-0.6240066832	 4.2177135357	 1.374503938	-0.193283
C	 0.9001245118	 4.1749605985	 1.2736352059	-0.065284
O	 1.4464785902	 2.8800154429	 1.4307963324	-0.228571
C	 1.3469302084	 2.036613226	 0.3051902886	-0.184367
H	 0.1300605623	-2.2576309222	-0.4707389822	 0.194484
H	-2.0855346033	 1.4902196628	-0.1279852668	 0.097874
H	-1.047305629	 4.0468933225	-0.7350709057	 0.115056
H	-2.432087655	 3.7658117379	 0.2933233704	 0.106962
H	-0.9296661738	 5.2703206974	 1.4299777298	 0.094808
H	-0.9245677269	 3.7433341049	 2.315320787	 0.112871
H	 1.2279828681	 4.6097581021	 0.3130046087	 0.08219
H	 1.339134039	 4.7785643311	 2.0749461714	 0.106423
H	 2.087553006	 1.2477935703	 0.4545191572	 0.121677
H	 1.6309030477	 2.5878823104	-0.6085416954	 0.10057
53.757	145.0255	166.7667	223.836	304.4242	352.4553	383.9903	406.0478	499.5328	531.9244	561.9517	575.6811	599.1868	637.3889	785.4113	823.6106	864.6784	900.6558	923.1117	968.283	1000.2126	1040.0435	1102.1011	1106.586	1127.9706	1193.1348	1216.1807	1273.9356	1287.809	1334.8445	1359.5035	1369.9392	1390.8262	1401.6811	1422.6523	1470.5424	1477.3679	1481.5108	1496.775	1687.907	2213.2884	2949.7292	2955.8865	2982.7926	3026.0365	3067.82	3069.9596	3078.963	3100.418	3163.6972	3503.7028
C#CC1=CCCCOC1	C#CC1=CCCCOC1	
InChI=1S/C8H10O/c1-2-8-5-3-4-6-9-7-8/h1,5H,3-4,6-7H2	InChI=1S/C8H10O/c1-2-8-5-3-4-6-9-7-8/h1,5H,3-4,6-7H2
