17
gdb 18499	4.70851	1.32278	1.16462	3.5665	68.25	-0.2391	-0.0211	0.218	1032.8257	0.141851	-363.819401	-363.811873	-363.810929	-363.85201	27.614	
O	-0.2664649474	-0.0870660596	 0.1466039258	-0.238909
C	-0.1127145537	 1.0929686101	-0.0283862579	 0.177048
C	 1.2291230985	 1.7983207334	-0.0206310555	-0.302806
C	 1.3700292146	 2.7700039643	-1.1871957444	 0.058366
C	 2.7202689828	 3.4916713253	-1.4614210603	-0.290717
C	 2.6549962246	 2.8668777686	-2.8540847123	-0.005361
C	 2.569551435	 1.3996208449	-2.7648675398	-0.238551
N	 1.3273613306	 2.1763828843	-2.5773529241	-0.138256
H	-0.9839837209	 1.7673463642	-0.2003439218	 0.075558
H	 1.2870649233	 2.3787353789	 0.9126835319	 0.126012
H	 2.0200256177	 1.044567676	 0.0134760551	 0.122055
H	 0.5521376026	 3.4959827802	-1.1387610683	 0.091626
H	 2.6301055889	 4.5789872247	-1.4502841341	 0.115051
H	 3.582446497	 3.2038208344	-0.8516931149	 0.106476
H	 2.835979331	 3.3896591167	-3.7872706551	 0.09953
H	 2.5585681968	 0.8333413118	-3.690641952	 0.127306
H	 3.0235767386	 0.8774635418	-1.9263858626	 0.115571
56.7059	89.8226	170.2048	232.285	350.7356	394.6936	475.7258	553.8769	683.5016	748.3382	763.6088	795.7552	858.1271	923.2187	945.4328	972.3016	1004.5679	1059.1435	1079.1283	1091.4989	1107.0605	1123.4332	1132.1378	1185.121	1214.5213	1235.8309	1269.3619	1271.5725	1303.6591	1366.6716	1396.8066	1430.1007	1455.2816	1489.3618	1508.7381	1838.7912	2860.7664	3011.3804	3050.2195	3053.3685	3103.7687	3116.7179	3119.6661	3168.4112	3203.8105
O=CCC1CC2CN12	O=CC[C@H]1C[C@H]2CN12	
InChI=1S/C6H9NO/c8-2-1-5-3-6-4-7(5)6/h2,5-6H,1,3-4H2	InChI=1S/C6H9NO/c8-2-1-5-3-6-4-7(5)6/h2,5-6H,1,3-4H2/t5-,6-,7?/m0/s1
