18
gdb 63607	2.44303	1.32948	1.07208	3.2431	80.49	-0.2587	-0.0523	0.2064	1191.826	0.146122	-398.125903	-398.116434	-398.11549	-398.160216	34.48	
C	-0.2973830676	 1.5206165281	-0.1129934795	-0.446211
C	 0.1442900738	 0.0749583776	-0.0401033022	 0.302083
C	-0.793975012	-0.8554475721	 0.7021190958	-0.463532
C	 0.994146728	-0.4964457939	-1.1394123597	-0.27828
N	 1.599960292	-0.1099501976	 0.1213335325	-0.102398
C	 2.1909602288	-1.0426153557	 0.9521361978	 0.228952
N	 2.8064330985	-2.0751273587	 0.521160294	-0.486249
C	 2.1141609994	-0.6887139924	 2.362640508	 0.263903
N	 2.0555541653	-0.4538257071	 3.4935976508	-0.331233
H	 0.4431097727	 2.1288444063	-0.637231575	 0.132046
H	-1.2538523292	 1.6003858256	-0.6402571152	 0.124523
H	-0.4306550626	 1.9347505881	 0.8918921317	 0.134317
H	-1.7735618237	-0.8609714096	 0.2136674002	 0.131382
H	-0.4176500897	-1.8818215433	 0.7178006887	 0.13536
H	-0.9393103597	-0.5251272652	 1.73589091	 0.143537
H	 0.9319472854	-1.5621912159	-1.3423098867	 0.141923
H	 1.2638466845	 0.1217299003	-1.9912287055	 0.126783
H	 3.2586857662	-2.5782287644	 1.2831797443	 0.243096
67.0515	104.0614	136.3989	194.2406	224.0268	251.0597	312.1077	331.4789	372.3734	402.3175	433.3523	529.0867	577.2766	672.7516	727.2518	762.6706	868.9471	911.3431	922.5764	962.9962	966.8311	1031.3053	1044.1129	1116.2069	1141.1738	1142.8929	1203.2467	1288.8623	1339.8549	1409.7643	1415.1199	1431.0054	1477.2712	1487.4095	1494.8809	1506.0737	1513.834	1666.2138	2344.9638	3036.6934	3040.983	3102.084	3106.408	3113.5314	3119.701	3128.4794	3202.867	3504.8954
CC1(C)CN1C(=N)C#N	CC1(C)CN1[C]([NH])C#N	
InChI=1S/C6H9N3/c1-6(2)4-9(6)5(8)3-7/h8H,4H2,1-2H3	InChI=1S/C6H9N3/c1-6(2)4-9(6)5(8)3-7/h8H,4H2,1-2H3
