14
gdb 7401	3.3114	1.5662	1.33058	4.2108	60.7	-0.2373	-0.0685	0.1688	952.4436	0.10439	-415.890828	-415.881829	-415.880885	-415.925151	30.775	
C	 0.7132217197	 0.9043066005	 0.3321627251	-0.5002
C	-0.4646775833	 0.0644309782	-0.0842549689	 0.348884
O	-1.5443426935	 0.0626309423	 0.4529536821	-0.284996
C	-0.2973884974	-0.8030343792	-1.3471880688	 0.313954
O	-0.5587116706	-0.370288883	-2.4465857618	-0.318568
C	 0.1722261126	-2.2248237947	-1.1366287518	 0.277481
N	 0.0562570563	-2.9955405821	-2.2506043308	-0.543143
N	 0.612752525	-2.4977195513	 0.0354227538	-0.506686
H	 1.0583323615	 1.512443042	-0.5114994465	 0.149839
H	 0.4355807467	 1.5452320426	 1.1705399568	 0.146812
H	 1.5338915055	 0.2388387768	 0.6201673496	 0.167155
H	-0.1719752947	-2.5155635028	-3.1084681384	 0.274976
H	 0.5139441328	-3.8888867599	-2.3094376907	 0.259726
H	 0.9450667094	-3.4609505195	 0.1139798903	 0.214766
38.5737	79.6562	146.4152	163.8856	203.1581	287.6197	317.7052	342.2083	431.5659	472.3814	541.1693	568.1127	617.2709	692.4327	802.6505	880.5729	959.173	1005.5942	1069.4019	1091.0306	1143.4435	1246.3117	1371.7627	1433.136	1461.4872	1468.0208	1606.5889	1719.0099	1793.812	1817.1107	3038.8055	3108.3862	3150.2186	3454.9522	3582.3019	3716.1758
CC(=O)C(=O)C(N)=N	CC(=O)C(=O)C(=N)N	
InChI=1S/C4H6N2O2/c1-2(7)3(8)4(5)6/h1H3,(H3,5,6)	InChI=1S/C4H6N2O2/c1-2(7)3(8)4(5)6/h1H3,(H3,5,6)
