19
gdb 93141	2.45908	1.62171	1.12083	1.3707	76.39	-0.2447	0.0216	0.2663	1108.8584	0.160545	-423.011199	-423.003144	-423.0022	-423.043858	31.453	
O	 0.061816455	 1.518345471	 0.1289396139	-0.428906
C	 0.1471326583	 0.0948843937	 0.084321443	 0.083794
C	 0.5816656454	-0.4583566229	 1.4471227124	-0.278217
C	 1.0022819093	-1.902850746	 1.4811081313	-0.069152
C	 0.4567630075	-2.9573646133	 0.8771446802	-0.040303
C	-0.7403648965	-3.0824749005	-0.0244561993	-0.298281
C	-1.5635953407	-1.8838614786	-0.4320780973	 0.06667
O	-2.0834164982	-0.994951154	 0.5631856871	-0.260029
C	-1.169608012	-0.4702932535	-0.4156936365	 0.010033
H	-0.6042773063	 1.7479066099	 0.7873919893	 0.283209
H	 0.9235822106	-0.1104272674	-0.6619636193	 0.098212
H	 1.4136957613	 0.1672309899	 1.7834763538	 0.107763
H	-0.243631722	-0.2983491059	 2.1547692964	 0.121244
H	 1.8719676387	-2.1024646757	 2.1035463737	 0.087571
H	 0.9323389614	-3.9207003725	 1.0571036874	 0.087875
H	-0.4183751334	-3.5691949273	-0.9582880052	 0.118045
H	-1.4315679085	-3.8087946333	 0.4306266082	 0.125665
H	-2.3099757939	-2.1513923461	-1.1845532036	 0.089715
H	-1.6394751562	 0.1849578527	-1.1517845955	 0.095091
67.3824	145.5662	248.3118	282.9249	310.5526	352.7523	396.4809	422.6841	432.531	598.5252	601.6216	690.6652	737.6063	808.7557	851.3143	874.4466	895.054	936.697	988.4754	1004.4745	1021.7941	1060.1594	1077.6232	1088.8235	1149.4122	1158.5126	1206.5089	1252.947	1265.5203	1289.4476	1308.1478	1349.9129	1375.8861	1389.8787	1410.1085	1422.3095	1437.85	1457.0812	1472.0614	1499.6782	1745.8072	2990.6911	3008.3826	3017.2046	3049.4007	3070.9999	3082.4467	3096.1038	3124.5184	3152.0701	3793.0528
OC1CC=CCC2OC12	O[C@H]1CC=CC[C@H]2O[C@@H]12	
InChI=1S/C7H10O2/c8-5-3-1-2-4-6-7(5)9-6/h1-2,5-8H,3-4H2	InChI=1S/C7H10O2/c8-5-3-1-2-4-6-7(5)9-6/h1-2,5-8H,3-4H2/t5-,6+,7-/m0/s1
