20
gdb 75799	3.0636	1.26298	1.06019	3.7451	79.76	-0.2418	0.0375	0.2793	1197.0143	0.170998	-403.169893	-403.161122	-403.160177	-403.203414	33.473	
C	-0.1271045863	 1.5462284216	 0.1815959603	-0.407649
C	 0.0067804459	 0.0315685272	 0.1270142418	-0.248652
C	 0.9940736946	-0.5161367367	-0.9346919775	 0.449465
O	 1.1069342489	-0.4417741941	-2.1294401076	-0.373529
N	 1.7385194214	-1.1321634368	 0.041627065	-0.408372
C	 0.9148029088	-0.7129249451	 1.1707152924	 0.416597
C	 1.5046035367	 0.0362923291	 2.3928738843	-0.280558
C	 0.4701877331	-0.7014052561	 3.2865087867	-0.209474
C	 0.2741218527	-1.7351057093	 2.1438330381	-0.282865
H	 0.8493716437	 2.0336622326	 0.2609264473	 0.125391
H	-0.6025793793	 1.9072523758	-0.7351847212	 0.138556
H	-0.740224868	 1.8672011854	 1.0301092309	 0.11756
H	-0.9758715016	-0.4419594893	 0.0362820024	 0.098361
H	 2.5575848115	-1.7211231023	-0.0121963009	 0.241296
H	 2.5264728465	-0.2989995852	 2.5966141916	 0.1015
H	 1.4951062779	 1.1283501379	 2.3796297136	 0.105159
H	 0.8192757897	-1.0793479958	 4.2488485066	 0.103325
H	-0.4276224512	-0.1006067961	 3.4534847229	 0.109101
H	-0.7384969117	-2.0800804936	 1.9186922249	 0.102875
H	 0.9186926765	-2.609894259	 2.2771809784	 0.101914
63.1958	117.1382	183.5211	208.2252	244.8304	301.9022	336.2308	401.8685	457.9766	494.2165	536.3289	688.7851	701.1491	759.9274	786.6954	833.0047	850.4571	906.8165	929.637	966.6794	992.4125	1036.6179	1068.2461	1099.2934	1110.8368	1151.3122	1174.8614	1194.6694	1212.8989	1236.4361	1250.6035	1268.1342	1274.4107	1308.3774	1345.5934	1387.9398	1410.5992	1470.8345	1484.9244	1494.7694	1497.3554	1507.4155	1891.3516	3036.4901	3048.4898	3055.7905	3063.4938	3067.8106	3100.1757	3105.0743	3107.9566	3114.4095	3126.3766	3594.8541
CC1C(=O)NC11CCC1	C[C@H]1C(=O)NC21CCC2	
InChI=1S/C7H11NO/c1-5-6(9)8-7(5)3-2-4-7/h5H,2-4H2,1H3,(H,8,9)	InChI=1S/C7H11NO/c1-5-6(9)8-7(5)3-2-4-7/h5H,2-4H2,1H3,(H,8,9)/t5-/m0/s1
