16
gdb 75844	2.66036	1.63795	1.22968	2.5723	64.41	-0.2506	0.0071	0.2577	1003.7777	0.124604	-475.038746	-475.030822	-475.029878	-475.070922	30.973	
O	 0.1072078841	 1.3845011337	-0.213529734	-0.441097
C	 0.001099327	-0.0120628563	-0.0638147441	-0.060971
C	 0.6190977196	-0.4413388219	 1.282415907	 0.36995
O	 1.6319826947	 0.0380357768	 1.7458725215	-0.382881
N	-0.204370562	-1.3736030853	 1.8518751965	-0.310421
C	-1.4938296925	-1.4253966881	 1.209483012	-0.069942
C	-2.2864595855	-0.1295768678	 1.170341216	-0.352242
C	-1.4188218162	-0.5378307795	-0.0006570096	 0.397053
O	-2.0202638923	-0.9768235014	-1.1763907323	-0.472014
H	 0.9276441004	 1.6307414772	 0.2385897064	 0.295128
H	 0.5180492732	-0.5429409729	-0.8803224008	 0.101309
H	-0.0849315223	-1.5986475558	 2.8295649668	 0.256224
H	-1.9906207944	-2.3864740587	 1.1678274969	 0.121603
H	-3.35421224	-0.2183215178	 1.0045189331	 0.125192
H	-1.9720323161	 0.6921491848	 1.8047639628	 0.12998
H	-2.2935133877	-0.1973876768	-1.6736282681	 0.293129
91.1852	201.0194	236.7678	293.1744	307.4187	364.1146	425.4429	453.2544	491.2379	514.238	549.1206	599.8114	712.5861	725.7637	751.9543	885.1039	905.8567	920.4338	967.9079	1001.7168	1036.0422	1067.583	1119.8453	1131.4109	1188.6181	1247.4709	1275.8017	1294.8695	1341.3421	1374.9604	1386.387	1413.6887	1435.8765	1486.9979	1827.9667	2973.6656	3135.3222	3197.2974	3233.1456	3602.9463	3730.0203	3795.6382
OC1C(=O)NC2CC12O	O[C@H]1C(=O)N[C@H]2C[C@@]12O	
InChI=1S/C5H7NO3/c7-3-4(8)6-2-1-5(2,3)9/h2-3,7,9H,1H2,(H,6,8)	InChI=1S/C5H7NO3/c7-3-4(8)6-2-1-5(2,3)9/h2-3,7,9H,1H2,(H,6,8)/t2-,3-,5-/m0/s1
