21
gdb 39631	3.81104	1.12747	1.07312	1.8042	82.23	-0.2429	0.0809	0.3237	1212.0934	0.184318	-387.016334	-387.00847	-387.007526	-387.04984	30.366	
C	-0.0381889924	 1.4393109781	-0.197803058	-0.07968
O	 1.2925973668	 1.6076741438	 0.3288864588	-0.272117
C	 1.4295389003	 0.1938743381	 0.5721194118	-0.079676
C	 0.0062281941	-0.0912437502	 0.0329515343	-0.195801
C	-0.9903830414	-0.6708202318	 0.99548339	 0.368607
C	-1.3324403122	-0.179195003	 2.4414079412	-0.251207
C	-2.2457686341	-1.4108915547	 2.1919939926	-0.043642
C	-2.5301388248	-0.8315905749	 0.7782438526	-0.260254
C	-1.008248578	-2.1218390362	 1.5769874688	-0.260233
H	-0.786456839	 1.9803506749	 0.3954934417	 0.097482
H	-0.1106702489	 1.7635404942	-1.2432583615	 0.097544
H	 2.2552384091	-0.2440393628	-0.0021684611	 0.097546
H	 1.5795530794	-0.0273285382	 1.6366366935	 0.097479
H	 0.0019657767	-0.670077534	-0.8952860005	 0.07676
H	-0.5511432985	-0.2934539321	 3.1983303176	 0.091293
H	-1.8302668047	 0.7909860629	 2.5270183256	 0.091288
H	-2.9712245634	-1.8378936349	 2.8844848468	 0.072687
H	-3.1181215839	 0.0899961666	 0.7331069926	 0.088605
H	-2.8423108353	-1.5425969644	 0.0073959564	 0.087356
H	-1.2061313443	-2.9297460022	 0.8661324664	 0.087356
H	-0.1991880355	-2.3846255093	 2.2650617105	 0.088608
45.2497	65.8623	164.7233	211.6814	351.1024	405.9357	536.46	553.156	604.2971	793.3021	797.4952	825.748	876.3433	886.8296	919.0635	939.6137	944.9785	959.6076	975.9609	998.6501	1029.1154	1042.4453	1047.5876	1079.5719	1099.9567	1105.5656	1144.9849	1146.0051	1155.3783	1164.8204	1167.1312	1177.1963	1230.2856	1235.5602	1243.083	1255.1452	1306.2313	1311.7883	1372.3876	1394.2846	1496.445	1498.2998	1509.931	1537.0253	1554.7444	3004.3044	3015.4226	3038.4778	3041.0696	3044.7925	3049.8668	3050.5793	3069.1456	3102.1981	3107.5513	3110.2791	3111.6493
C1OCC1C12CC(C1)C2	C1OCC1[C@@]12C[C@@H](C1)C2	
InChI=1S/C8H12O/c1-6-2-8(1,3-6)7-4-9-5-7/h6-7H,1-5H2	InChI=1S/C8H12O/c1-6-2-8(1,3-6)7-4-9-5-7/h6-7H,1-5H2/t6-,8-
