20
gdb 112788	2.0786	1.34147	0.92973	4.831	77.61	-0.2375	0.0246	0.2622	1307.8218	0.169996	-440.297003	-440.287268	-440.286324	-440.332161	34.925	
C	 0.4083860265	 1.6421082119	-0.0988468253	-0.403221
C	 0.1255792721	 0.1538879705	 0.0282948719	 0.071598
C	 0.5070085263	-0.7810582064	-1.1603002265	-0.30199
C	 1.3542371115	-1.6250144531	-0.1633991808	 0.022352
C	 2.824717548	-1.8381349338	-0.4945415426	-0.071604
O	 3.5438263488	-2.4261952673	 0.5773048044	-0.409249
N	 1.072092669	-0.6088914689	 0.858180976	-0.049351
C	 1.2279445774	-0.5979043309	 2.2046968824	 0.120802
O	 0.7103090546	 0.2163771557	 2.9444829274	-0.337796
H	 1.4320157172	 1.8171181489	-0.4455197	 0.113238
H	-0.2838820963	 2.0990354153	-0.814136529	 0.115465
H	 0.2833970713	 2.1294264841	 0.8708959117	 0.155266
H	-0.9058131535	 0.0011364975	 0.3705806142	 0.093062
H	-0.3162458717	-1.3041748601	-1.6463102304	 0.115314
H	 1.1143298126	-0.2815146917	-1.9195910622	 0.112379
H	 0.8926516353	-2.5956563505	 0.0739390152	 0.076265
H	 2.9029100442	-2.4349694326	-1.4175679287	 0.093509
H	 3.300382901	-0.8697760251	-0.6802001799	 0.117325
H	 3.2351538846	-3.3320075562	 0.6841758971	 0.285593
H	 1.9024103912	-1.4040245775	 2.5511796551	 0.081043
60.4076	79.776	117.7752	160.1112	211.8002	248.5214	280.2633	319.518	340.2786	393.7903	420.5125	471.0944	584.7296	703.8166	794.2583	860.9561	887.2808	947.4758	970.6904	1021.1392	1041.521	1084.9194	1092.0829	1106.2394	1125.8794	1175.5712	1199.5898	1227.4305	1257.4733	1274.7408	1299.4663	1359.2493	1381.1932	1388.8229	1399.0514	1405.7054	1419.3016	1431.7118	1483.8136	1487.432	1493.5931	1503.8954	1778.5234	2957.6872	2978.3905	2985.7899	3023.9674	3036.4695	3072.4052	3084.1072	3106.0735	3131.6841	3138.8296	3812.7792
CC1CC(CO)N1C=O	C[C@H]1C[C@@H](CO)N1C=O	
InChI=1S/C6H11NO2/c1-5-2-6(3-8)7(5)4-9/h4-6,8H,2-3H2,1H3	InChI=1S/C6H11NO2/c1-5-2-6(3-8)7(5)4-9/h4-6,8H,2-3H2,1H3/t5-,6-/m0/s1
