26
gdb 6414	3.71946	0.88556	0.86583	0.0392	89.05	-0.2943	0.0792	0.3736	1551.254	0.244501	-315.492776	-315.481721	-315.480777	-315.528973	40.391	
C	-0.1204173802	 1.5298008656	 0.1959486133	-0.392435
C	 0.0473548345	 0.0152824949	 0.035376075	-0.162676
C	 0.7694709478	-0.429497669	-1.2529259344	 0.033101
C	 2.224980925	 0.0585573698	-1.2886307674	-0.390029
C	 0.6720188754	-1.9618921058	-1.3941811005	-0.164158
C	 1.2220877045	-2.5915516005	-2.6886243286	 0.028087
C	 1.1449130466	-4.1226985814	-2.6017736612	-0.385619
C	 0.4932287421	-2.0880405609	-3.9427202819	-0.380405
H	 0.8402532741	 2.0443028957	 0.2939577229	 0.117026
H	-0.6421711073	 1.9627276727	-0.6653691588	 0.111601
H	-0.7073983419	 1.7644802343	 1.0897201929	 0.110253
H	 0.5861724626	-0.3886052436	 0.904128266	 0.089627
H	-0.9456988147	-0.4518302818	 0.0541609818	 0.08929
H	 0.2356306255	 0.0307261483	-2.0965564648	 0.069176
H	 2.8037009556	-0.3852140415	-0.4688404854	 0.108503
H	 2.7202204347	-0.209259182	-2.2263466495	 0.11402
H	 2.2888135834	 1.1458708867	-1.1900507194	 0.111851
H	 1.1894036741	-2.4189074292	-0.5380273375	 0.083531
H	-0.3836225868	-2.2543001604	-1.2962078943	 0.082992
H	 2.28268246	-2.3228661787	-2.7830256327	 0.072987
H	 0.1048579512	-4.4588604759	-2.5095787139	 0.109496
H	 1.5664040777	-4.5932688858	-3.4964043627	 0.10628
H	 1.6934081459	-4.5016082302	-1.7327885101	 0.107653
H	 0.88191623	-2.5755442003	-4.8431374125	 0.107433
H	-0.5798626765	-2.3084958573	-3.8844274784	 0.108935
H	 0.6030912467	-1.008260594	-4.0803947478	 0.113482
43.9954	74.3416	106.797	145.5164	210.5108	220.7845	238.3197	259.5058	279.1528	308.9137	345.7093	407.7657	416.366	447.4614	508.9683	774.0001	803.3235	828.1369	870.4296	909.9634	928.7252	964.2547	968.3013	975.1244	1007.4979	1049.667	1060.2226	1100.4519	1169.1202	1182.8759	1192.312	1198.4315	1264.727	1294.9232	1307.7742	1338.229	1364.8281	1376.8896	1385.4126	1390.7201	1400.4053	1410.3213	1414.292	1422.1912	1475.0381	1484.3059	1488.8065	1494.6021	1496.3248	1498.8647	1504.8971	1507.0453	1510.7913	1514.8275	2992.1778	2999.4555	3007.3968	3012.0831	3020.8656	3026.3267	3028.0735	3031.1909	3033.9476	3046.0658	3084.7041	3091.2297	3095.3384	3095.6415	3096.8814	3103.2307	3103.9232	3111.9225
CCC(C)CC(C)C	CC[C@@H](C)CC(C)C	
InChI=1S/C8H18/c1-5-8(4)6-7(2)3/h7-8H,5-6H2,1-4H3	InChI=1S/C8H18/c1-5-8(4)6-7(2)3/h7-8H,5-6H2,1-4H3/t8-/m1/s1
