18
gdb 11281	5.26947	1.24131	1.07488	0.8997	74.12	-0.2514	0.0516	0.303	1112.7093	0.153535	-347.78253	-347.774333	-347.773389	-347.815898	30.504	
C	 0.538120997	 1.7470533652	-0.0976387645	-0.408251
C	 0.1906785994	 0.2886501146	 0.1427189413	 0.160757
C	 0.217798785	-0.6170081798	-1.1180640916	-0.267911
C	 1.0135694025	-1.8786277225	-0.6607957898	-0.156807
C	 1.0838490691	-1.6720438493	 0.875074309	-0.098132
O	 1.149504671	-0.2734621241	 1.0401941222	-0.25377
C	 0.4367213193	-3.1508045458	-1.0611110663	 0.309104
C	-0.0509494909	-4.2045605411	-1.3737440315	-0.466557
H	 1.524593317	 1.8318926265	-0.5642957332	 0.121471
H	-0.2009700434	 2.2121893664	-0.7571058263	 0.117447
H	 0.5540767039	 2.2991212529	 0.8461615897	 0.127485
H	-0.8066686892	 0.2200078282	 0.6079786529	 0.06875
H	-0.7898170718	-0.8812777646	-1.443949493	 0.117135
H	 0.7214037526	-0.1241679886	-1.9536252849	 0.110123
H	 2.0342344082	-1.8110137067	-1.0526187153	 0.110171
H	 0.1848318757	-2.0951290675	 1.3511308548	 0.097359
H	 1.9689621658	-2.1194582251	 1.3322647863	 0.116306
H	-0.4747632012	-5.1366162987	-1.6546409797	 0.195318
24.972	142.3748	178.6194	233.8296	268.2348	319.5442	439.5029	501.4705	515.7584	570.7107	627.6979	631.1366	643.6776	831.7098	848.576	897.8243	914.3106	1004.1623	1025.5642	1061.6349	1086.0095	1109.9127	1138.9789	1149.5853	1223.552	1245.2414	1292.9936	1301.8219	1326.8667	1355.4781	1384.6559	1396.4598	1413.0243	1484.1895	1493.9469	1499.5826	1514.0391	2236.0918	2958.6146	2980.7858	3039.9882	3043.6305	3069.3928	3108.0855	3113.9344	3118.5043	3122.3735	3505.1476
CC1CC(CO1)C#C	C[C@H]1C[C@@H](CO1)C#C	
InChI=1S/C7H10O/c1-3-7-4-6(2)8-5-7/h1,6-7H,4-5H2,2H3	InChI=1S/C7H10O/c1-3-7-4-6(2)8-5-7/h1,6-7H,4-5H2,2H3/t6-,7-/m0/s1
