18
gdb 51619	5.74384	0.74311	0.71186	2.6435	74.31	-0.2331	-0.0289	0.2043	1557.6482	0.145147	-439.03281	-439.023994	-439.023049	-439.067522	31.574	
O	-0.3080516448	 0.0368167435	 0.3556681117	-0.234776
C	-0.0793414258	 1.1705269246	 0.0260765964	 0.157772
C	 1.3161481875	 1.7573884205	-0.1277600265	-0.24073
N	 1.3608529217	 2.7253976381	-1.1965518802	-0.095916
C	 1.4548531046	 2.236680737	-2.5959134797	-0.257703
C	 2.4990334975	 3.3233040704	-2.8551218106	 0.431852
C	 3.4776789666	 3.5040668051	-3.9209289691	-0.26344
O	 2.3250036995	 4.3549837456	-3.8027071927	-0.260101
C	 2.568290375	 3.5733257589	-1.3472852506	-0.248741
H	-0.8907242878	 1.9028312314	-0.185324212	 0.087954
H	 1.5357353131	 2.2759550421	 0.8174546386	 0.132547
H	 2.0410934237	 0.9289116491	-0.2250715177	 0.103789
H	 1.858594824	 1.2155043329	-2.6819021697	 0.101787
H	 0.5265042453	 2.3093987	-3.171330675	 0.124833
H	 4.4334089721	 3.9804750578	-3.7055461932	 0.119675
H	 3.4761492836	 2.8326837806	-4.7787992501	 0.120639
H	 2.4394200774	 4.6106218995	-1.0209957231	 0.12264
H	 3.4723186267	 3.152684653	-0.8809060864	 0.097919
51.0668	64.523	95.1839	183.7363	290.7815	300.705	329.0149	390.9351	423.8507	463.624	574.3734	726.757	808.5276	829.4987	867.7414	929.3249	948.4198	977.8331	1012.7007	1061.4963	1103.2068	1121.4297	1128.203	1136.3768	1160.18	1189.0705	1191.4164	1221.7198	1246.886	1289.7099	1321.3122	1349.1919	1404.7174	1454.0493	1459.3948	1489.3179	1512.4086	1547.2454	1839.1835	2887.8927	2945.1551	2979.704	2988.5873	3025.2317	3069.2295	3073.1538	3080.9456	3167.0979
O=CCN1CC2(CO2)C1	O=CCN1CC2(CO2)C1	
InChI=1S/C6H9NO2/c8-2-1-7-3-6(4-7)5-9-6/h2H,1,3-5H2	InChI=1S/C6H9NO2/c8-2-1-7-3-6(4-7)5-9-6/h2H,1,3-5H2
