18
gdb 6269	4.6144	1.04338	0.94587	3.6937	72.06	-0.2352	-0.0672	0.168	1261.3938	0.1519	-381.141691	-381.132291	-381.131346	-381.175997	33.283	
C	-0.0091891562	 1.5446836315	-0.0054934092	-0.386184
C	 0.0236613169	 0.009856918	 0.0258859561	 0.07484
C	 0.6902418066	-0.5337049758	 1.2895714379	-0.404787
N	-1.3147706287	-0.5646665565	-0.096000711	-0.322652
C	-1.9885878483	-0.61462481	-1.2818314201	 0.286981
N	-1.4764245012	-0.2707699433	-2.4034983903	-0.519819
C	-3.3975122128	-1.1573714489	-1.158939564	 0.109197
O	-4.1266451137	-1.2946202668	-2.1046351838	-0.234763
H	 1.007478337	 1.9495272848	 0.0258595688	 0.115776
H	-0.4894394201	 1.8929117219	-0.9224318721	 0.147588
H	-0.5594027387	 1.9415586831	 0.8555327708	 0.103207
H	 0.5722994567	-0.3365904581	-0.8560405601	 0.121557
H	 0.1433168704	-0.2223959103	 2.1886650931	 0.110999
H	 0.7330773136	-1.626471514	 1.2752241782	 0.124315
H	 1.7097975079	-0.1489600743	 1.3780096011	 0.127165
H	-1.8536046165	-0.660673582	 0.7510078013	 0.236717
H	-2.1643408455	-0.454299134	-3.1361442203	 0.232937
H	-3.7274532874	-1.4275638553	-0.1289812965	 0.076926
68.6122	73.799	148.7639	175.9819	230.5976	259.6384	279.6742	336.2944	355.6544	400.29	441.6489	482.1106	586.6397	744.3664	841.506	864.6638	931.005	935.2071	955.3907	971.9328	1022.8183	1145.3313	1160.4277	1183.4412	1198.306	1301.9101	1354.2721	1388.2497	1395.0611	1417.8533	1434.1754	1483.5945	1489.8184	1497.404	1510.7346	1552.0894	1695.2669	1835.0151	2863.665	3026.3994	3032.216	3062.8263	3095.1596	3104.5473	3122.3174	3132.1169	3469.1516	3618.4708
CC(C)NC(=N)C=O	CC(C)NC(=N)C=O	
InChI=1S/C5H10N2O/c1-4(2)7-5(6)3-8/h3-4H,1-2H3,(H2,6,7)	InChI=1S/C5H10N2O/c1-4(2)7-5(6)3-8/h3-4H,1-2H3,(H2,6,7)
