15
gdb 45946	2.31028	1.98236	1.16343	3.2193	67.42	-0.2482	-0.0504	0.1978	1000.8323	0.113908	-453.976806	-453.969107	-453.968163	-454.009266	28.493	
O	 0.0564192346	 0.0341503887	-0.1467321566	-0.324256
C	 0.0211305396	 1.2350087822	-0.0394830029	 0.3299
C	-1.2451056979	 2.0987102041	 0.0388533362	-0.279676
N	-0.7189204277	 3.4498678914	 0.0055284439	-0.352528
C	 0.6499907728	 3.5716161042	-0.0376533529	 0.377282
O	 1.2772471742	 4.6043403795	-0.0505119427	-0.366465
C	 1.1850658412	 2.1626160601	-0.0145821178	 0.097228
C	 2.4339538294	 1.7900165045	 0.7312176584	-0.25632
N	 2.4307005138	 1.8057445195	-0.7170218641	-0.327206
H	-1.9044809492	 1.8688411508	-0.8070208269	 0.147639
H	-1.7931791788	 1.8727127549	 0.96315558	 0.145373
H	-1.2972479967	 4.2735441462	 0.0546448629	 0.261134
H	 2.9802619132	 2.6050366392	 1.1966346911	 0.155169
H	 2.4234820627	 0.8379691495	 1.2551266073	 0.139535
H	 2.3096190188	 0.851969245	-1.062579606	 0.253192
80.767	145.0427	218.6454	234.5387	245.9845	344.9309	488.46	526.7322	581.8412	603.6527	646.4659	707.9591	734.8876	864.2859	874.5624	951.0686	1002.5699	1003.8218	1059.6577	1066.8911	1110.7466	1147.7747	1195.7664	1224.3585	1288.3001	1308.6099	1326.1563	1407.4926	1433.932	1488.4903	1499.4017	1827.2035	1858.7812	3019.0054	3055.6901	3113.2129	3215.9208	3453.8888	3642.5395
O=C1CNC(=O)C11CN1	O=C1CNC(=O)[C@]21CN2	
InChI=1S/C5H6N2O2/c8-3-1-6-4(9)5(3)2-7-5/h7H,1-2H2,(H,6,9)	InChI=1S/C5H6N2O2/c8-3-1-6-4(9)5(3)2-7-5/h7H,1-2H2,(H,6,9)/t5-/m1/s1
