15
gdb 33812	2.2889	1.55481	1.13768	3.5157	79.65	-0.2366	-0.0184	0.2182	1082.771	0.112301	-379.601173	-379.593089	-379.592145	-379.633832	30.612	
C	 0.0096207436	-1.2245461835	-0.0603859838	-0.398047
C	 0.0026524214	-0.0213061291	-0.0354351905	 0.209438
C	-0.0124469922	 1.3951516	 0.0179568884	 0.065734
C	 0.269305381	 2.2803985704	-1.178167044	-0.333012
C	 1.1558761422	 2.4386652876	 0.0186527877	 0.18819
N	 0.456881985	 3.2851933574	 1.0052480724	-0.361907
C	-0.6101974389	 2.2390192196	 1.1574169456	-0.215476
C	 2.5646807499	 2.2392229232	 0.0251710915	 0.206483
N	 3.7113086528	 2.0810949992	 0.0581958832	-0.343173
H	 0.0204589511	-2.2862356763	-0.0868038449	 0.198912
H	 0.7030337538	 1.7565892551	-2.0220005917	 0.153007
H	-0.3990204685	 3.1028709551	-1.4168473994	 0.135695
H	 0.9994297789	 3.3711507476	 1.8584145642	 0.242768
H	-1.6249231857	 2.6175557796	 1.0022575781	 0.121354
H	-0.5551537845	 1.7107283043	 2.1121328233	 0.130034
85.8167	146.1464	170.9637	212.3327	310.0016	411.1205	423.6162	502.6828	536.0882	568.7058	590.9687	627.5744	662.966	669.2943	761.2058	792.9167	816.3337	949.6528	973.1389	1006.9268	1024.2427	1099.1451	1138.0946	1153.7662	1217.8301	1262.6164	1284.3841	1361.2333	1411.987	1477.721	1510.5764	2233.5199	2341.2196	3053.8424	3111.7158	3125.5993	3233.1812	3500.8159	3534.4117
C#CC12CC1(NC2)C#N	C#C[C@]12C[C@]1(NC2)C#N	
InChI=1S/C7H6N2/c1-2-6-3-7(6,4-8)9-5-6/h1,9H,3,5H2	InChI=1S/C7H6N2/c1-2-6-3-7(6,4-8)9-5-6/h1,9H,3,5H2/t6-,7+/m1/s1
