22
gdb 100140	3.8134	0.71619	0.69383	4.0617	83.37	-0.2804	0.0408	0.3212	1708.007	0.19161	-404.377887	-404.366956	-404.366011	-404.414041	39.78	
C	-0.2666539777	 1.5146739192	-0.0170985228	-0.394851
C	 0.0619507262	 0.018948272	 0.0008392019	-0.207361
C	 0.8516257155	-0.4656239831	 1.2375931414	 0.340483
C	 2.1990252121	 0.2491635587	 1.3701461741	-0.407543
O	 0.1362118908	-0.1447811139	 2.4390030963	-0.456723
C	 1.0253700376	-1.9993602763	 1.1359218237	-0.211665
C	 1.6836428334	-2.6266804054	 2.3811850701	-0.35515
C	 1.6219097194	-4.0852111683	 2.3630825744	 0.2571
N	 1.5632111213	-5.2391450505	 2.3328225924	-0.309101
H	 0.6271625469	 2.1285297362	-0.160138519	 0.12186
H	-0.9557779314	 1.7448823825	-0.8348357938	 0.114935
H	-0.7355138928	 1.8198476397	 0.9224422459	 0.126566
H	-0.8746829336	-0.5556126332	-0.0398028647	 0.088021
H	 0.6182544232	-0.2561713837	-0.9036864567	 0.101654
H	 2.0536337592	 1.3287349618	 1.4408695707	 0.131263
H	 2.7214823548	-0.0667269326	 2.27631045	 0.124679
H	 2.837396712	 0.0377479001	 0.5072029148	 0.116158
H	-0.7624723072	-0.48207432	 2.3489438931	 0.279516
H	 0.0361861427	-2.4532542232	 0.9992479508	 0.108242
H	 1.6063104246	-2.2508636593	 0.2421928697	 0.117578
H	 2.7344111308	-2.3307087813	 2.4624858993	 0.151655
H	 1.1785681922	-2.2552856493	 3.2787814682	 0.162681
55.9798	99.5257	107.5766	116.3705	197.0579	217.6458	239.7128	292.4806	332.6497	359.1396	362.6117	391.579	408.7349	444.1481	523.9072	603.712	757.3768	766.4997	788.7198	898.3704	935.3407	957.5934	967.4702	1003.1765	1025.621	1063.5569	1077.4441	1139.5628	1169.1967	1187.9044	1226.6438	1283.7812	1290.7165	1315.0387	1369.6903	1379.3474	1391.8749	1408.3273	1429.7316	1467.9872	1478.8511	1487.4879	1491.0788	1496.3895	1509.6814	1516.8361	2360.8698	3004.4108	3032.8248	3046.0944	3050.9876	3053.962	3057.1087	3076.6303	3101.2275	3111.5603	3121.5957	3125.1782	3136.1744	3794.2191
CCC(C)(O)CCC#N	CC[C@@](C)(O)CCC#N	
InChI=1S/C7H13NO/c1-3-7(2,9)5-4-6-8/h9H,3-5H2,1-2H3	InChI=1S/C7H13NO/c1-3-7(2,9)5-4-6-8/h9H,3-5H2,1-2H3/t7-/m1/s1
