23
gdb 74395	2.71852	1.46347	1.13727	0.2586	91.81	-0.2207	0.0277	0.2483	1199.4679	0.206821	-351.171124	-351.162591	-351.161647	-351.203418	34.96	
C	-0.0085733886	 1.5088536372	 0.043296014	-0.479066
C	-0.0031312822	 0.0092256097	-0.0176920378	 0.301722
C	-0.0064087842	-0.6998220851	-1.150006121	-0.189595
C	-0.0000401705	-2.2186934022	-1.0929351047	 0.311438
C	-0.0047608258	-2.879378757	-2.4589587716	-0.49398
C	-1.0603914615	-2.645091796	-0.0246804636	-0.245016
C	 0.0116476853	-2.2743307101	 1.038942445	-0.029291
C	 1.0751083785	-2.6365714112	-0.0361649815	-0.245018
C	 0.0069468851	-0.758396672	 1.2917051297	-0.290328
H	 0.8722496943	 1.8896193987	 0.5772041015	 0.11916
H	-0.0169875498	 1.9525475877	-0.9562516964	 0.118148
H	-0.8850463598	 1.8827894553	 0.5890324307	 0.119126
H	-0.0136178694	-0.2136489522	-2.1231486866	 0.070308
H	 0.8752494285	-2.5858401857	-3.0436789169	 0.113067
H	 0.0001429257	-3.9706386627	-2.369549827	 0.10656
H	-0.8934066479	-2.5930036697	-3.0340927126	 0.113068
H	-2.0133645229	-2.108726665	-0.0147116795	 0.086579
H	-1.2422632802	-3.7243060469	-0.0471748684	 0.086722
H	 0.0189290743	-2.8346329827	 1.9770584566	 0.05575
H	 1.2653300139	-3.7143013481	-0.0606605966	 0.086723
H	 2.023826292	-2.0926232228	-0.0364218218	 0.086577
H	 0.8852646232	-0.4683836735	 1.887506016	 0.09867
H	-0.8672600983	-0.4753818057	 1.8968428623	 0.098674
154.1684	188.5181	223.885	243.4859	244.7173	353.9676	369.2872	414.207	415.7554	472.8745	500.4985	576.9531	646.9073	804.45	826.4541	840.7533	867.7519	871.6248	908.7456	925.7258	938.7354	1010.0539	1013.9671	1025.0031	1039.0807	1052.0808	1097.7782	1118.043	1123.3862	1137.4936	1189.3439	1226.4935	1240.8474	1263.4833	1275.9154	1284.2164	1330.4488	1351.4601	1386.5783	1410.048	1412.6231	1471.1742	1476.0092	1478.0051	1490.039	1492.3303	1493.0544	1508.6389	1722.7156	2991.5616	3010.2942	3015.8647	3019.0759	3037.8593	3044.3458	3053.6192	3073.7718	3081.5467	3093.926	3098.3847	3102.022	3105.7539	3146.2625
CC1=CC2(C)CC(C2)C1	CC1=C[C@]2(C)C[C@@H](C2)C1	
InChI=1S/C9H14/c1-7-3-8-5-9(2,4-7)6-8/h4,8H,3,5-6H2,1-2H3	InChI=1S/C9H14/c1-7-3-8-5-9(2,4-7)6-8/h4,8H,3,5-6H2,1-2H3/t8-,9+
