15
gdb 87106	2.88914	1.22438	1.01109	3.0029	71.71	-0.2432	-0.069	0.1742	1164.8939	0.108508	-457.714023	-457.704815	-457.703871	-457.748053	33.853	
O	-0.1332355773	 1.3642839559	-0.1335028973	-0.421177
C	 0.0087048076	-0.0052260798	-0.0185827831	 0.105108
C	-0.2672463955	-0.7198477565	 1.2653628676	-0.361283
C	-1.294211727	-0.8241754893	 0.1589954946	 0.234761
O	-2.4407831581	-0.0420998862	 0.3454626258	-0.480527
C	-1.4047652455	-2.0920065519	-0.6050800524	 0.200141
O	-0.5038462562	-2.9064623657	-0.6608018405	-0.314741
C	-2.6485815186	-2.2649017712	-1.3445389525	 0.214696
C	-3.6761257424	-2.3850196272	-1.9614768523	-0.394171
H	-1.0299534618	 1.5745933685	 0.1660676015	 0.291062
H	 0.764562155	-0.4060634611	-0.6850385963	 0.13142
H	 0.287983972	-1.6272632303	 1.4747266998	 0.148135
H	-0.5682394026	-0.1240148523	 2.120399285	 0.132825
H	-2.9339276758	-0.0311768913	-0.485556028	 0.292284
H	-4.5754187438	-2.5212302616	-2.512735082	 0.221467
54.4021	129.1014	155.4461	226.6883	250.1277	252.346	284.4407	366.4208	440.1221	471.8199	487.2436	510.7164	628.0514	660.8156	696.4318	703.4149	718.2787	826.6815	833.743	913.9123	1009.9376	1029.1834	1073.2736	1105.5596	1170.6848	1224.8004	1309.4246	1337.9014	1391.1829	1421.2596	1458.2949	1741.7285	2205.7328	3136.3053	3182.4782	3238.4136	3488.9737	3728.7215	3765.4385
OC1CC1(O)C(=O)C#C	O[C@H]1C[C@]1(O)C(=O)C#C	
InChI=1S/C6H6O3/c1-2-4(7)6(9)3-5(6)8/h1,5,8-9H,3H2	InChI=1S/C6H6O3/c1-2-4(7)6(9)3-5(6)8/h1,5,8-9H,3H2/t5-,6-/m0/s1
