19
gdb 91675	3.30593	1.26083	1.12163	4.8578	79.46	-0.2491	0.0169	0.2659	1145.5794	0.161678	-382.049473	-382.041726	-382.040781	-382.081534	30.52	
C	-0.0993662275	 1.5368316385	 0.0283351155	-0.421985
C	 0.0590064866	 0.0178941158	 0.0416872421	 0.010461
C	 1.0442221239	-0.572505969	-1.0351668385	-0.189417
N	 2.019474584	-1.3601498145	-0.2206539324	-0.120591
C	 1.0599437202	-2.0193987474	 0.7607130862	-0.205191
C	 0.768573332	-0.5880319124	 1.2711791807	-0.029183
C	 2.2657743505	-0.3475124152	 0.8928573498	-0.128322
C	 3.2500078677	-0.7946603501	 1.8697804998	 0.290164
N	 4.0255309327	-1.1118763046	 2.665913709	-0.329386
H	 0.8591968783	 2.054954252	 0.1408384913	 0.11879
H	-0.5397392457	 1.8712834366	-0.9168369566	 0.124159
H	-0.7563553948	 1.8740626145	 0.8366466034	 0.122793
H	-0.9326447837	-0.4374931662	-0.0561586661	 0.080789
H	 0.5574109777	-1.2393737079	-1.7498009787	 0.115256
H	 1.5734858829	 0.2045433095	-1.5939854678	 0.112758
H	 0.2479155994	-2.5840111777	 0.2952642062	 0.107825
H	 1.6113814658	-2.6493345834	 1.4598435474	 0.139337
H	 0.3702309122	-0.365096464	 2.261706779	 0.08444
H	 2.5542964179	 0.6443636256	 0.5352076396	 0.117304
132.9631	157.7989	207.8456	225.3432	291.2647	409.7931	463.2707	483.227	531.1878	541.0274	656.5271	797.1122	840.5362	849.4633	867.7881	903.83	918.3028	947.0831	973.9817	1002.1518	1032.1085	1058.7826	1072.2527	1120.5657	1122.7162	1165.9803	1189.9181	1221.5603	1247.684	1255.6712	1267.2402	1304.246	1319.1222	1359.3822	1379.1018	1418.4845	1494.5991	1499.4619	1503.0852	1523.3649	2358.2506	3032.0321	3039.3325	3062.8061	3069.4777	3080.4238	3098.9494	3101.0685	3113.6019	3117.3881	3139.0954
CC1CN2CC1C2C#N	C[C@H]1CN2C[C@H]1[C@H]2C#N	
InChI=1S/C7H10N2/c1-5-3-9-4-6(5)7(9)2-8/h5-7H,3-4H2,1H3	InChI=1S/C7H10N2/c1-5-3-9-4-6(5)7(9)2-8/h5-7H,3-4H2,1H3/t5-,6+,7+/m0/s1
