19
gdb 96505	2.44019	1.56143	1.05127	4.1649	71.49	-0.264	0.0094	0.2734	1151.9392	0.160302	-460.202819	-460.194465	-460.193521	-460.235817	31.658	
C	-0.530751891	 1.213062493	 0.0944361247	-0.398591
C	 0.3609746992	-0.0296176845	 0.1763894002	-0.140721
C	 1.0393429794	-0.335830398	-1.1797631447	-0.204713
C	 1.5418603306	-1.7694423933	-1.3252706635	-0.093153
O	 2.5487595634	-2.1260313439	-0.3857244865	-0.221391
C	 2.1302772338	-2.1550949089	 0.9340361689	 0.018208
O	 2.2117543015	-0.8932381447	 1.5972274862	-0.226648
C	 1.3941559014	 0.1509387592	 1.2918723199	 0.42712
O	 1.5286989745	 1.1741383449	 1.9049460408	-0.31334
H	 0.0527249565	 2.0901235089	-0.1973379017	 0.135633
H	-1.3233063439	 1.0587242824	-0.6440804009	 0.10636
H	-0.9884091715	 1.433217922	 1.060825272	 0.133235
H	-0.2675337253	-0.8925291797	 0.4414133363	 0.095874
H	 0.3065191154	-0.1628862348	-1.9767966951	 0.109439
H	 1.8637963609	 0.3662784902	-1.34919123	 0.125147
H	 0.6955748914	-2.4702840485	-1.2373904592	 0.096485
H	 1.996017494	-1.916576832	-2.3087252197	 0.120864
H	 1.1116757666	-2.5618150148	 1.0250502185	 0.096637
H	 2.8332055831	-2.7821707373	 1.4842404038	 0.133554
80.3688	136.4256	217.3993	246.3492	275.5702	306.7329	349.2214	397.3302	423.1299	524.4116	565.1893	632.5389	725.9476	764.1445	851.7742	869.958	972.6576	980.5123	1041.0527	1047.9862	1065.9338	1100.502	1119.6564	1141.8196	1177.9289	1219.5008	1236.4733	1291.5907	1316.7583	1340.315	1363.3219	1384.8213	1414.075	1417.9221	1453.1525	1477.1061	1489.7112	1494.5798	1495.7943	1510.5957	1839.7402	2975.7762	2985.9532	3003.1726	3034.8887	3048.6777	3079.7507	3096.0779	3120.6859	3124.0417	3135.5595
CC1CCOCOC1=O	C[C@H]1CCOCOC1=O	
InChI=1S/C6H10O3/c1-5-2-3-8-4-9-6(5)7/h5H,2-4H2,1H3	InChI=1S/C6H10O3/c1-5-2-3-8-4-9-6(5)7/h5H,2-4H2,1H3/t5-/m0/s1
