13
gdb 129992	6.94914	0.87039	0.78411	7.1499	62.5	-0.2392	-0.0068	0.2324	1341.6805	0.090438	-486.107375	-486.099408	-486.098464	-486.140409	28.232	
N	-0.0116269292	 1.3006526551	 0.277908515	-0.59734
C	-0.0239432919	-0.050384635	 0.0303120664	 0.445755
N	-1.1040249747	-0.816574267	 0.0028469899	-0.371289
C	-0.5712372814	-2.045384028	-0.2015879011	 0.439335
O	-1.3876006606	-3.1218007696	-0.3144707729	-0.210372
C	-0.9249959932	-4.3295633846	 0.1444325673	 0.169176
O	-1.5351306681	-5.3331159785	-0.0406133649	-0.253881
N	 0.7375222629	-2.1218188877	-0.3186823742	-0.308237
N	 1.0843036738	-0.80102781	-0.1483668763	-0.256656
H	 0.6859660652	 1.8370100019	-0.2172266526	 0.262049
H	-0.9337820808	 1.7072182203	 0.2084476881	 0.278544
H	 0.0285476263	-4.2314963128	 0.68438698	 0.121973
H	 2.0544290417	-0.536436634	-0.1444506848	 0.280945
63.6648	125.2789	172.2885	255.2773	276.4986	335.4723	375.3882	444.6541	470.8818	555.6567	613.0658	734.5664	740.1513	782.3323	867.117	1031.6673	1041.6634	1060.6815	1094.2002	1138.8922	1170.0345	1330.9129	1405.2031	1421.903	1493.2837	1579.6061	1609.1483	1668.2335	1881.1978	3040.6047	3570.0092	3671.3555	3676.6694
NC1=NC(OC=O)=NN1	Nc1nc(OC=O)n[nH]1	
InChI=1S/C3H4N4O2/c4-2-5-3(7-6-2)9-1-8/h1H,(H3,4,5,6,7)	InChI=1S/C3H4N4O2/c4-2-5-3(7-6-2)9-1-8/h1H,(H3,4,5,6,7)
