16
gdb 19314	7.03674	0.81195	0.80782	2.1101	77.47	-0.2301	0.0245	0.2546	1430.9986	0.13153	-342.692151	-342.684197	-342.683253	-342.726303	28.088	
C	-0.3260451223	 1.2523540801	-0.3335828098	-0.221674
N	 0.9252934826	 1.2982085389	 0.4253093664	-0.294467
C	 0.297055291	-0.01853247	 0.1472027856	-0.223426
C	-0.231919145	-0.7571108527	 1.2591341214	 0.125678
C	-0.680066717	-1.3981691161	 2.1777005433	 0.107686
C	-1.2180866467	-2.1700067911	 3.2608099712	-0.161401
C	-1.8853677388	-1.4799656489	 4.4061790018	-0.225232
N	-2.6881076991	-2.2591778376	 3.4595845037	-0.307964
H	-1.1907389638	 1.6447113943	 0.1923466125	 0.128431
H	-0.3117445603	 1.4451445649	-1.4032731791	 0.117971
H	 1.7120960929	 1.4282343976	-0.2060201233	 0.236645
H	 0.7650856846	-0.6312969522	-0.6207644022	 0.111281
H	-0.7074370938	-3.1081857296	 3.4627333823	 0.116504
H	-1.8021952848	-1.9093799071	 5.4005119788	 0.125212
H	-1.9323971111	-0.3956994664	 4.3735181615	 0.126092
H	-3.1420965783	-1.6310043442	 2.8003654359	 0.238665
23.2561	84.2253	105.4617	223.1353	233.0495	394.8293	486.3698	549.3161	565.5979	686.843	808.8694	828.1076	840.4362	900.9823	912.1466	959.2255	971.3541	996.7427	1064.4584	1108.0684	1121.412	1122.9171	1151.0236	1193.2305	1218.36	1241.8559	1262.0334	1289.6771	1299.1379	1391.4107	1430.1119	1505.6169	1507.9482	2356.6054	3111.5556	3115.4279	3123.4776	3137.8894	3203.5788	3206.3856	3500.6318	3502.261
C1NC1C#CC1CN1	C1N[C@H]1C#C[C@H]1CN1	
InChI=1S/C6H8N2/c1(5-3-7-5)2-6-4-8-6/h5-8H,3-4H2	InChI=1S/C6H8N2/c1(5-3-7-5)2-6-4-8-6/h5-8H,3-4H2/t5-,6-/m0/s1
