21
gdb 99577	2.23136	1.13801	0.79601	2.8586	85.36	-0.2456	-0.0202	0.2254	1469.7399	0.178133	-387.073082	-387.06201	-387.061066	-387.110027	39.13	
C	-0.1145245171	 1.6081114819	-0.0468538614	-0.391271
C	-0.0313402531	 0.0801928705	-0.0270661751	-0.184852
C	 0.7126971808	-0.480069284	 1.2083401324	-0.170847
C	 0.0479338496	-0.0766152741	 2.449351628	 0.323959
C	-0.514824749	 0.2204443931	 3.4698505503	-0.45431
C	 0.8628077004	-2.0271726926	 1.1756254956	-0.059626
C	 1.7448315404	-2.5269174861	 0.0148040722	-0.423423
C	 1.4912580058	-2.5252533812	 2.4691368451	 0.163108
O	 1.171511314	-3.5349186583	 3.038812752	-0.253469
H	 0.8842715903	 2.0586485519	-0.060869689	 0.114415
H	-0.6486001097	 1.9550558072	-0.9363699416	 0.115786
H	-0.639566532	 1.9860357699	 0.8346693157	 0.135395
H	-1.0395830508	-0.3500336257	-0.0501484341	 0.109732
H	 0.4817491532	-0.2656554634	-0.9298859461	 0.101907
H	 1.7257723223	-0.0485440862	 1.2126283809	 0.103112
H	-1.0007363221	 0.485369359	 4.376378814	 0.200718
H	-0.1285196877	-2.4869896681	 1.1057410815	 0.104654
H	 1.8364576483	-3.6157635263	 0.054774697	 0.138429
H	 1.319482765	-2.2622495217	-0.955963437	 0.1316
H	 2.7525751	-2.099006952	 0.0704867368	 0.121365
H	 2.3346652512	-1.8967186338	 2.8419589829	 0.073614
42.7306	64.2058	87.2059	136.5017	173.2905	185.3295	214.7996	260.3339	306.904	326.1177	350.3613	376.9346	493.4217	536.0029	600.9044	635.2838	649.3489	766.8742	853.9514	883.052	927.9532	953.6869	969.8273	1038.7724	1066.9994	1100.8767	1127.446	1144.9735	1164.2811	1249.3926	1284.2042	1305.0187	1336.6308	1361.9821	1364.6208	1402.5068	1413.4451	1428.571	1484.6355	1496.3414	1497.7143	1502.4221	1508.4468	1837.4996	2229.8376	2849.9809	2985.9419	3034.9186	3036.4638	3039.1317	3063.9712	3079.2044	3103.7961	3108.3684	3120.6003	3124.6728	3502.4875
CCC(C#C)C(C)C=O	CC[C@@H](C#C)[C@@H](C)C=O	
InChI=1S/C8H12O/c1-4-8(5-2)7(3)6-9/h1,6-8H,5H2,2-3H3	InChI=1S/C8H12O/c1-4-8(5-2)7(3)6-9/h1,6-8H,5H2,2-3H3/t7-,8+/m0/s1
