19
gdb 33455	2.47827	1.33578	1.07844	2.2677	81.12	-0.2406	0.0463	0.2869	1190.3519	0.1582	-385.816971	-385.808134	-385.80719	-385.850892	33.187	
C	 0.1353841768	-1.1797050156	-0.1317254362	-0.456022
C	 0.0898588883	 0.0210589092	-0.0659799514	 0.259715
C	 0.0210571798	 1.4579053741	 0.0012694016	 0.146158
C	 0.4284200284	 2.114597827	 1.3164159701	-0.297248
C	 1.3397112327	 2.2137667809	 0.1301811638	-0.297243
C	-1.0906642047	 2.1094741904	-0.7983002943	-0.090095
C	-1.2799236508	 1.7226924689	-2.284228759	-0.091993
O	-2.6785950091	 1.4413211078	-2.0739905972	-0.274289
C	-2.5383894696	 1.5857405582	-0.6460073493	-0.091992
H	 0.177594812	-2.2391739415	-0.1881144976	 0.19527
H	-0.1277572456	 2.9960601448	 1.6169567143	 0.120375
H	 0.7146702993	 1.4594873933	 2.1300737335	 0.131146
H	 2.2498330739	 1.6265501442	 0.1317365752	 0.131147
H	 1.412782131	 3.1637063374	-0.388383829	 0.120377
H	-1.031430946	 3.1925614918	-0.6622587742	 0.076647
H	-1.1249035599	 2.5149564448	-3.0256105953	 0.098965
H	-0.722905945	 0.8267086557	-2.5864365071	 0.110059
H	-2.6116528234	 0.6211663704	-0.1277289257	 0.110057
H	-3.2748320982	 2.2809910081	-0.2269112121	 0.098966
72.8975	77.0219	154.8613	178.629	231.0579	268.4786	358.4184	413.3864	547.484	567.3955	591.7611	616.5671	656.0436	774.5116	815.9848	873.5081	885.6152	904.7092	945.0366	960.8396	983.9699	1036.7533	1045.8308	1056.893	1065.9657	1088.1244	1118.1365	1161.9897	1172.873	1194.8621	1254.2364	1262.2619	1310.5834	1319.2555	1362.6256	1402.9149	1466.7558	1496.0629	1507.4993	1534.4072	2230.9399	3011.0198	3021.5856	3054.6095	3062.3668	3078.233	3138.6429	3142.6101	3224.5266	3238.5789	3502.3362
C#CC1(CC1)C1COC1	C#CC1(CC1)C1COC1	
InChI=1S/C8H10O/c1-2-8(3-4-8)7-5-9-6-7/h1,7H,3-6H2	InChI=1S/C8H10O/c1-2-8(3-4-8)7-5-9-6-7/h1,7H,3-6H2
