15
gdb 43681	2.45597	1.56496	1.25114	4.2617	73.85	-0.2675	-0.05	0.2175	1028.0631	0.114183	-416.836181	-416.8286	-416.827656	-416.86861	28.306	
N	-0.0967622277	 1.2936112085	 0.3814137647	-0.505855
C	-0.0524719987	 0.0707485417	 0.052396737	 0.382951
O	 1.1557184464	-0.5553733862	-0.1833963234	-0.26268
C	 1.1444852916	-1.7842036273	-0.9114153335	-0.048166
C	 0.1029649779	-2.7740409192	-0.3700346429	-0.284556
C	-1.2127517657	-2.0739641441	-0.1844196925	-0.090116
C	-1.2634282512	-0.7509833916	-0.0170039274	-0.071728
C	 0.9415491167	-1.5279538814	-2.3530046394	 0.276274
N	 0.8008621997	-1.3447921872	-3.4847365584	-0.308511
H	 0.8423990514	 1.696487433	 0.3852513136	 0.230281
H	 2.1536240423	-2.1882126639	-0.7909079751	 0.14684
H	 0.0126312211	-3.6187443438	-1.0600111206	 0.143138
H	 0.4626258663	-3.1805451373	 0.5841444362	 0.140188
H	-2.1183897276	-2.6716732899	-0.1785591828	 0.120691
H	-2.1909658424	-0.2100082912	 0.1208641946	 0.13125
85.5523	105.6026	199.3447	289.4625	331.0417	408.433	440.0958	487.6087	599.0189	617.6982	649.8338	788.796	796.4612	827.1831	909.3795	910.5	933.5849	972.8334	1014.8385	1044.7298	1077.3584	1093.4804	1188.4874	1225.475	1290.9981	1322.5853	1360.3415	1393.3673	1417.5421	1466.8199	1690.7378	1742.4963	2359.797	3029.3932	3080.2167	3085.7174	3185.2959	3224.5136	3473.8055
N=C1OC(CC=C1)C#N	[NH]C1=C[CH]C[C@H](O1)C#N	
InChI=1S/C6H6N2O/c7-4-5-2-1-3-6(8)9-5/h1,3,5,8H,2H2	InChI=1S/C6H6N2O/c7-4-5-2-1-3-6(8)9-5/h1,3,5,8H,2H2/t5-/m0/s1
