18
gdb 72778	2.56854	1.78922	1.30804	3.0143	78.79	-0.2057	-0.0038	0.2019	1007.7466	0.148769	-401.96554	-401.95761	-401.956666	-401.99759	31.067	
C	-0.2184137672	 1.5773948505	-0.2385594488	-0.448645
C	-0.0288526632	 0.0821353364	 0.0115585859	 0.153922
C	 0.8900992174	-0.6140366326	-1.0715407344	-0.261253
C	 2.0976963513	-0.5719981783	-0.0669327387	-0.291075
C	 1.0256286015	-0.4033115298	 0.9875812603	 0.083062
C	 0.447925145	-1.2164987042	 1.8828711108	-0.109452
N	-0.9493865467	-1.18627107	 1.717817953	-0.316489
C	-1.3315830343	-0.5290975748	 0.5503527238	 0.35739
O	-2.4687836822	-0.3840821787	 0.1632588163	-0.378081
H	 0.7162544392	 2.0443405453	-0.5633431328	 0.112885
H	-0.9745169971	 1.7236351233	-1.0160166285	 0.138888
H	-0.5612610134	 2.0908096907	 0.6645591062	 0.126522
H	 0.5811396874	-1.6385270631	-1.2851343432	 0.120675
H	 1.0001337064	-0.0569546552	-2.0056388634	 0.109482
H	 2.7345754077	-1.4567842844	-0.007046776	 0.108459
H	 2.7254891525	 0.310954115	-0.2197201352	 0.113067
H	 0.8902450508	-1.9509872633	 2.5430928436	 0.121956
H	-1.6252976651	-1.595973527	 2.3420483711	 0.258687
112.3207	212.3315	216.9018	226.0081	294.5785	301.6542	376.857	498.9636	546.1864	591.0342	642.8445	713.43	740.6963	761.0766	815.6629	832.3203	868.5119	896.4433	932.4794	982.2562	1028.9643	1091.5174	1110.9132	1120.4919	1141.24	1176.0658	1225.8206	1242.6708	1259.5989	1263.3191	1341.9306	1389.8593	1405.2457	1472.6683	1486.0312	1493.3323	1496.6875	1678.7713	1822.9684	3037.1893	3053.689	3062.6285	3109.313	3111.1017	3114.102	3134.2136	3216.7441	3652.4133
CC12CCC1=CNC2=O	C[C@@]12CC[C]1[CH]NC2=O	
InChI=1S/C7H9NO/c1-7-3-2-5(7)4-8-6(7)9/h4H,2-3H2,1H3,(H,8,9)	InChI=1S/C7H9NO/c1-7-3-2-5(7)4-8-6(7)9/h4H,2-3H2,1H3,(H,8,9)/t7-/m1/s1
