25
gdb 92533	2.12786	1.62851	1.31883	0.2332	90.61	-0.2753	0.0702	0.3455	1160.8176	0.231174	-352.366737	-352.357821	-352.356877	-352.399664	36.036	
C	 0.5606459649	 1.5256571571	-0.4002513937	-0.400999
C	 0.0777236772	 0.1202297516	-0.007680005	 0.010577
C	 0.3488758911	-0.9507199433	-1.0975261834	-0.238225
C	 1.6919975464	-1.6183247855	-0.7456835324	 0.001546
C	 2.9979177687	-0.869382474	-1.145346509	-0.22296
C	 3.2549752209	-0.5038209602	 0.3444704186	-0.231145
C	 1.9678680334	-1.2819383956	 0.7597528646	-0.004732
C	 0.7384533161	-0.4972420477	 1.2619449995	 0.025776
C	 0.9971906597	 0.4570745809	 2.4286210362	-0.415933
H	 1.6321575216	 1.5675897997	-0.6126059477	 0.120407
H	 0.0376640616	 1.8619775312	-1.3020783683	 0.108504
H	 0.3523284786	 2.2550128628	 0.3888769931	 0.110995
H	-1.002575212	 0.2004310082	 0.1642375178	 0.063696
H	-0.4457504761	-1.7053095829	-1.0666174885	 0.090132
H	 0.3426360564	-0.5281232918	-2.1085967389	 0.088338
H	 1.6954224559	-2.6766561055	-1.0163965687	 0.057342
H	 3.7630879997	-1.5178344839	-1.5798602561	 0.093577
H	 2.855801294	-0.0233333215	-1.8239041833	 0.093547
H	 4.1769825973	-0.9216133868	 0.7564657374	 0.093474
H	 3.2503248482	 0.5650803781	 0.5700144697	 0.096445
H	 2.1794447522	-2.1332338296	 1.4121275533	 0.056154
H	 0.0308908612	-1.2596284493	 1.6190160384	 0.066974
H	 1.7302629055	 1.2291900198	 2.1763375936	 0.118113
H	 0.07679331	 0.9643540751	 2.7382933504	 0.109667
H	 1.3809304776	-0.0881519569	 3.2977683125	 0.10873
110.758	141.8277	215.5509	234.0458	251.5393	266.344	320.793	368.9726	378.5296	498.5788	575.7211	685.9315	710.5355	732.3656	759.3607	825.6217	832.7811	878.3132	899.6302	934.6246	953.9653	967.6373	999.1152	1017.6478	1036.9698	1053.5442	1089.9371	1092.1581	1131.3397	1161.9402	1173.7183	1185.2004	1223.6984	1244.4082	1258.1012	1263.4831	1271.8931	1282.4781	1315.2262	1336.3858	1346.9767	1360.0332	1368.9475	1385.9355	1408.6584	1413.6701	1474.7018	1484.4067	1492.8925	1496.2568	1499.1545	1507.7475	1511.4404	2987.8027	3017.8636	3030.4169	3032.2367	3038.7145	3051.0566	3057.1386	3063.2745	3068.6545	3077.0672	3090.7911	3094.0816	3095.0771	3104.7418	3112.3716	3120.8891
CC1CC2CCC2C1C	C[C@H]1C[C@H]2CC[C@H]2[C@H]1C	
InChI=1S/C9H16/c1-6-5-8-3-4-9(8)7(6)2/h6-9H,3-5H2,1-2H3	InChI=1S/C9H16/c1-6-5-8-3-4-9(8)7(6)2/h6-9H,3-5H2,1-2H3/t6-,7-,8+,9-/m0/s1
