15
gdb 28898	2.42365	1.86442	1.06069	0.2185	70.61	-0.2446	-0.0148	0.2298	1054.6918	0.114522	-454.035626	-454.027767	-454.026823	-454.069016	29.039	
C	-0.0048092272	 1.5903168671	 0.0109473608	-0.501437
C	 0.0395937286	 0.0881694319	 0.0024192647	 0.069951
C	 0.0561853722	-0.6734789725	-1.1670985384	 0.381311
O	 0.0364758049	-0.040207587	-2.3531526705	-0.406756
N	 0.0890369885	-2.0089706158	-1.1971829542	-0.364388
C	 0.110253044	-2.6113322309	-0.0128093017	 0.063524
N	 0.1041604937	-2.0219761999	 1.1782657538	-0.364389
C	 0.0710211252	-0.6862410595	 1.1632209945	 0.381316
O	 0.0664543425	-0.0659811469	 2.3562844524	-0.406753
H	 1.0030930385	 2.0223363659	 0.0071596518	 0.138204
H	-0.5242809346	 1.9650547712	-0.8734707159	 0.141907
H	-0.5133804628	 1.9552754711	 0.9057328284	 0.141903
H	 0.0380700388	-0.7359689076	-3.0258019464	 0.302203
H	 0.1358242362	-3.6981026307	-0.0189221138	 0.1212
H	 0.0765710615	-0.7690546762	 3.0212123444	 0.302203
26.0438	132.9784	240.8753	279.6592	280.2191	354.7911	522.9255	538.6498	540.7244	559.7614	566.221	574.3609	710.0286	721.0716	821.5992	894.6428	959.1513	992.4115	1064.2131	1106.3026	1124.5321	1258.4561	1274.5675	1347.2158	1361.3775	1362.569	1414.8997	1472.6501	1483.0591	1502.2512	1502.3649	1647.303	1660.6496	3036.778	3101.607	3139.6334	3167.2845	3762.1342	3763.1994
CC1=C(O)N=CN=C1O	Cc1c(O)ncnc1O	
InChI=1S/C5H6N2O2/c1-3-4(8)6-2-7-5(3)9/h2H,1H3,(H2,6,7,8,9)	InChI=1S/C5H6N2O2/c1-3-4(8)6-2-7-5(3)9/h2H,1H3,(H2,6,7,8,9)
