21
gdb 94875	2.52624	1.77756	1.40019	2.0039	80.83	-0.2394	0.0805	0.3199	1032.772	0.183867	-387.065354	-387.057471	-387.056527	-387.097204	32.132	
C	 0.4147148875	 1.5261085853	-0.3046317047	-0.398442
C	-0.0687291	 0.1189275097	 0.0697998067	-0.094632
C	 0.0874042745	-0.9136714155	-1.1034819142	-0.218628
C	 1.4826527122	-1.6025631956	-0.939368832	-0.318214
C	 1.7060913557	-1.5052704812	 0.5461945536	 0.32853
C	 2.8413993401	-1.1348115814	 1.5201911004	-0.298678
C	 1.8731673454	-0.0655719779	 2.1558576929	-0.305792
C	 0.8048045999	-0.508773476	 1.1332685293	 0.34149
O	 0.5788476814	-1.9093717301	 1.3366372553	-0.318688
H	 1.4530197938	 1.5148121132	-0.6556012337	 0.11323
H	-0.2020147336	 1.943395963	-1.1063446555	 0.11703
H	 0.3597196333	 2.2085023919	 0.5496362449	 0.118863
H	-1.1198527384	 0.1777335493	 0.3748936139	 0.079271
H	-0.6948497222	-1.6706193397	-1.025127155	 0.118446
H	-0.0182027415	-0.4306739236	-2.0792579656	 0.094296
H	 1.4830435626	-2.6216764767	-1.3386014408	 0.107366
H	 2.2697373633	-1.0460181951	-1.4617817147	 0.103421
H	 3.188512645	-1.9425260323	 2.168462099	 0.109076
H	 3.6994861769	-0.6744652111	 1.024425727	 0.105497
H	 1.6011044283	-0.2003679888	 3.205089419	 0.108485
H	 2.2263609959	 0.9561902126	 2.0011764743	 0.108071
129.5564	185.1711	238.5947	242.3793	302.7995	354.8132	423.4952	481.3181	507.0634	622.1848	670.2488	737.2267	753.0643	768.5113	779.5181	860.2491	905.194	925.6198	934.494	950.6739	961.1933	1013.257	1041.3147	1066.2162	1110.7786	1140.2022	1176.5972	1191.6188	1210.6247	1222.7602	1225.6737	1243.7356	1270.6759	1300.9772	1336.9707	1345.975	1357.2931	1408.8676	1425.4337	1465.3262	1480.2558	1489.8329	1495.3525	1499.8161	1501.2045	3029.6743	3036.0409	3039.7079	3063.5121	3067.1097	3071.1236	3078.9573	3096.7194	3105.9833	3114.3147	3119.567	3131.5182
CC1CCC23CCC12O3	C[C@H]1CC[C@@]23CC[C@@]12O3	
InChI=1S/C8H12O/c1-6-2-3-7-4-5-8(6,7)9-7/h6H,2-5H2,1H3	InChI=1S/C8H12O/c1-6-2-3-7-4-5-8(6,7)9-7/h6H,2-5H2,1H3/t6-,7+,8+/m0/s1
