20
gdb 116800	5.98757	0.49864	0.48298	3.0343	82.11	-0.2382	-0.0082	0.23	2283.9553	0.166658	-440.300413	-440.28918	-440.288236	-440.33953	36.99	
C	-0.1394097026	 1.3363013143	 0.030972761	-0.249203
O	-0.0690428288	-0.0839556805	 0.0506488135	-0.192415
C	 0.5384863716	-0.6504021444	-1.0104222362	 0.127443
N	 0.6459011415	-1.9005157467	-1.0983220338	-0.215437
C	 1.3154387285	-2.4327055033	-2.2702117292	-0.157396
C	 2.4981428923	-3.3066513989	-1.8480597374	-0.285422
C	 3.1781689195	-4.0088764642	-3.0132649644	 0.377466
C	 4.3872465441	-4.8623942514	-2.6703232704	-0.471964
O	 2.7786993158	-3.8955319216	-4.1505769432	-0.293675
H	 0.8596118215	 1.789074215	 0.0128866686	 0.126126
H	-0.7154224731	 1.6987734355	-0.8291778117	 0.128461
H	-0.6474000643	 1.6314632833	 0.9497484298	 0.146788
H	 0.911805917	 0.0663902071	-1.759854436	 0.073427
H	 0.6082485459	-3.0538742315	-2.8308155162	 0.123546
H	 1.6624123644	-1.6493697826	-2.9634572897	 0.092786
H	 3.2467209543	-2.7113734323	-1.3076922758	 0.1165
H	 2.1620590263	-4.0627734727	-1.1263320696	 0.135135
H	 5.1694158478	-4.2464660038	-2.2122195935	 0.13741
H	 4.1184669481	-5.6297965531	-1.9359469735	 0.138835
H	 4.7753886002	-5.3353829881	-3.5731271122	 0.141589
31.3216	42.5203	53.8721	76.8206	116.3169	139.8721	160.7597	219.262	266.0134	314.2702	413.273	470.2047	486.0673	553.8891	627.8331	755.4597	843.4748	931.521	938.1819	987.2504	1038.0602	1065.063	1085.0153	1121.7461	1175.7819	1177.133	1180.1498	1210.0401	1279.1463	1305.3047	1326.1837	1381.8292	1390.7341	1416.6091	1449.627	1465.2878	1477.2807	1485.4259	1493.4561	1494.9191	1501.1564	1775.0135	1807.1501	2972.3603	2983.6809	3014.8554	3023.794	3038.009	3051.1506	3069.2194	3076.0683	3098.0546	3144.9565	3151.8195
COC=NCCC(C)=O	COC=NCCC(=O)C	
InChI=1S/C6H11NO2/c1-6(8)3-4-7-5-9-2/h5H,3-4H2,1-2H3	InChI=1S/C6H11NO2/c1-6(8)3-4-7-5-9-2/h5H,3-4H2,1-2H3
