14
gdb 26612	2.46102	1.91905	1.07905	1.8163	72.37	-0.191	-0.0322	0.1588	1023.0539	0.102664	-470.047873	-470.040281	-470.039337	-470.07964	29.492	
N	 0.0243017529	 1.3799357314	-0.1505013445	-0.570173
C	-0.0243740112	 0.0097343254	-0.0661182009	 0.263938
C	-1.1878681842	-0.6991887895	-0.0395099679	 0.243302
O	-2.4048633378	-0.0942159438	-0.0349444134	-0.456573
C	-1.1644856107	-2.1312340711	-0.0082913311	 0.323656
N	-2.2405950151	-2.814227239	 0.0224115255	-0.600771
O	 0.0994500689	-2.7120254791	-0.0083456655	-0.211082
C	 1.1894459699	-1.9153262984	-0.0243706862	 0.113666
N	 1.2008435448	-0.6422085508	-0.0521921783	-0.31892
H	 0.8862486423	 1.7932883397	 0.1702247022	 0.260697
H	-0.8167048562	 1.8659550176	 0.1208387491	 0.269821
H	-3.0477652296	-0.823528621	-0.0004410584	 0.307868
H	-2.0733192784	-3.8164740529	 0.0482323845	 0.228002
H	 2.1031135143	-2.4989705284	-0.009817875	 0.146569
129.4247	185.9565	271.6946	299.5921	321.1225	407.3624	491.6418	504.8719	528.0186	538.568	549.8689	552.2664	670.3135	707.8178	750.6102	764.0041	889.5574	914.7182	981.0467	1020.8514	1149.1827	1162.2021	1258.1068	1342.6379	1379.8065	1425.4852	1450.7687	1623.3023	1647.759	1721.5896	1733.6995	3208.8703	3538.2129	3580.4415	3664.3472	3698.6941
NC1=C(O)C(=N)OC=N1	N[C@H]1C(=C([NH])OC=N1)O	
InChI=1S/C4H5N3O2/c5-3-2(8)4(6)9-1-7-3/h1,6,8H,5H2	InChI=1S/C4H6N3O2/c5-3-2(8)4(6)9-1-7-3/h1,3,6,8H,5H2/t3-/m1/s1
