12
gdb 23638	3.88792	1.97484	1.30962	4.2705	60.91	-0.2187	-0.0486	0.1701	830.8239	0.086211	-418.855207	-418.849123	-418.848179	-418.885595	23.157	
F	-0.0073178007	 0.0679031767	 0.003545233	-0.063303
C	-0.0372892952	 1.3946614693	 0.0113419874	 0.343834
N	-1.1929986201	 1.9508150822	 0.0297728063	-0.364285
C	-1.2698580955	 3.3388900629	 0.0383594848	 0.427585
N	-2.3287303929	 4.0484972614	 0.0566794378	-0.568787
N	-0.033922316	 4.026947144	 0.0257210557	-0.308619
C	 1.1621852337	 3.4058033246	 0.0063952241	 0.07041
C	 1.2307163171	 2.0474488177	-0.0020038808	-0.318269
H	-3.1398209054	 3.4334430389	 0.0642753289	 0.227905
H	-0.1063794633	 5.0334666073	 0.0322749501	 0.276806
H	 2.0372172783	 4.0448647703	-0.0017357455	 0.150159
H	 2.16027376	 1.5010322948	-0.0174091417	 0.126564
125.1295	223.0497	365.8383	412.474	513.84	542.4708	562.1843	633.7653	722.2428	752.7395	766.8305	774.0987	840.8331	941.7175	971.4487	994.1457	1102.5329	1153.0136	1221.8053	1289.6117	1333.8146	1433.3684	1511.7232	1594.1613	1695.3332	1740.2293	3211.5264	3262.0738	3522.105	3628.3283
FC1=NC(=N)NC=C1	FC1=CCNC(=N1)[NH]	
InChI=1S/C4H4FN3/c5-3-1-2-7-4(6)8-3/h1-2H,(H2,6,7,8)	InChI=1S/C4H5FN3/c5-3-1-2-7-4(6)8-3/h1,6H,2H2,(H,7,8)
