17
gdb 44509	4.39877	1.42201	1.23153	3.8014	72.72	-0.2158	0.0238	0.2395	1000.9817	0.138704	-417.975613	-417.968913	-417.967969	-418.006704	27.402	
O	 0.0126485958	-0.0827140516	 0.0895194073	-0.375968
C	-0.0079729675	 1.1301349962	 0.0284977571	 0.393294
C	-1.2943754127	 1.958207692	-0.0182720976	-0.299575
N	-1.1583127072	 3.4189640645	-0.0912126042	-0.135052
C	-0.073370453	 3.9377242319	-1.0337844336	-0.0406
C	-0.0686779859	 5.2224300145	-0.1775706087	-0.221625
C	-0.0807192951	 4.030126517	 0.8031749317	-0.040597
C	 1.0098442016	 3.3489656013	-0.0790154151	 0.051681
N	 1.1072364091	 1.9148588809	-0.0064819159	-0.340397
H	-1.8784225289	 1.6183061066	-0.8806827088	 0.139444
H	-1.8853730939	 1.7063408187	 0.8692426247	 0.139443
H	-0.1562329576	 3.8314559582	-2.1170198264	 0.088861
H	 0.8313866772	 5.8388444097	-0.2049768195	 0.098608
H	-0.9919857059	 5.7985109476	-0.2102418487	 0.117965
H	-0.1722692464	 4.033061907	 1.890910101	 0.08886
H	 2.0077898964	 3.7945782101	-0.0974371393	 0.086302
H	 2.0038676441	 1.4544354253	 0.0201985461	 0.249355
82.3023	264.8625	368.325	382.8338	432.3991	460.5454	489.9382	603.8889	618.1555	761.8938	771.1185	778.5074	802.473	829.3653	885.2201	906.3841	981.0247	1006.2104	1020.0043	1040.4759	1099.577	1119.8938	1122.3199	1134.5137	1182.755	1184.6385	1211.9495	1245.4557	1265.7321	1266.2539	1319.0004	1331.4565	1398.6127	1448.6241	1467.1969	1495.1521	1810.9612	3048.4233	3072.4864	3082.7322	3086.5589	3099.7665	3108.4701	3167.9781	3627.5763
O=C1CN2C3CC2C3N1	O=C1CN2[C@H]3C[C@@H]2[C@H]3N1	
InChI=1S/C6H8N2O/c9-5-2-8-3-1-4(8)6(3)7-5/h3-4,6H,1-2H2,(H,7,9)	InChI=1S/C6H8N2O/c9-5-2-8-3-1-4(8)6(3)7-5/h3-4,6H,1-2H2,(H,7,9)/t3-,4+,6-
