16
gdb 14366	4.27186	2.25373	1.97693	0.9	63.94	-0.2492	0.0748	0.324	725.8308	0.132381	-383.651842	-383.645916	-383.644971	-383.681976	23.857	
C	-0.0271415448	 1.5973491682	 0.0752251789	-0.284632
C	 1.4779841079	 1.2626748463	 0.0324000452	-0.121309
C	 1.1695067477	 0.0433446698	 1.0090786468	-0.302955
C	 0.0822228017	 0.0450297492	-0.0984245316	 0.412027
O	-0.8987652973	-0.7482947636	-0.6861904531	-0.331246
C	-0.7525049686	-0.4165693857	-2.0909928533	 0.00251
O	 0.4060267919	 0.4202341028	-2.2920972878	-0.294002
C	 1.1721664097	 0.2321145549	-1.1140514911	 0.102905
H	-0.4205743579	 1.9552860115	 1.0284995764	 0.092455
H	-0.425353182	 2.1522026818	-0.7733252031	 0.112022
H	 2.3183658471	 1.9471024682	 0.122486425	 0.090081
H	 1.8822245618	-0.7844390491	 1.0075900835	 0.107201
H	 0.8624871012	 0.3217184644	 2.0184674677	 0.109338
H	-0.6509473308	-1.3599725701	-2.6423620926	 0.113893
H	-1.6276402178	 0.1426372773	-2.4393002516	 0.119235
H	 1.9117487403	-0.566495546	-1.2403175495	 0.072477
79.385	321.3363	372.1498	458.1985	516.8516	577.9391	717.8558	737.5423	764.5902	839.5107	862.6845	900.6457	932.0773	952.5143	990.5477	1013.305	1023.3282	1063.6676	1073.6211	1083.5404	1118.985	1126.7134	1158.1715	1174.5727	1192.7173	1204.8707	1225.2183	1256.4559	1281.7012	1389.6197	1418.3935	1489.8413	1529.053	1537.8779	3016.9121	3042.2965	3069.3916	3072.7811	3078.9145	3142.0452	3144.8982	3155.6468
C1C2CC11OCOC21	C1[C@H]2C[C@]31OCO[C@@H]23	
InChI=1S/C6H8O2/c1-4-2-6(1)5(4)7-3-8-6/h4-5H,1-3H2	InChI=1S/C6H8O2/c1-4-2-6(1)5(4)7-3-8-6/h4-5H,1-3H2/t4-,5-,6-/m0/s1
