16
gdb 51700	4.0158	0.91344	0.87001	6.0903	67.86	-0.273	0.0004	0.2734	1336.1721	0.124281	-475.05967	-475.051386	-475.050442	-475.094099	29.234	
N	-0.4160399229	 1.3053975794	 0.1677749146	-0.429442
C	-0.1982333042	 0.0690076967	 0.0641007901	 0.125059
O	-1.2308578472	-0.7853415404	-0.1102601025	-0.191861
C	-0.9402331803	-2.1802232174	-0.0403695978	 0.075066
C	-1.0790315267	-2.7078453118	 1.401474882	-0.091212
O	-2.4470766124	-3.0926764154	 1.5581829687	-0.213573
C	-3.0602444155	-3.2501467598	 0.3484707564	 0.445494
O	-4.1935804604	-3.6084035002	 0.2452720715	-0.325528
C	-2.0600777164	-2.923410897	-0.7577468283	-0.382962
H	 0.4630766571	 1.810458796	 0.2571569941	 0.234856
H	 0.7825448957	-0.4280684564	 0.0791098314	 0.086941
H	 0.0555210781	-2.3762834372	-0.4517262743	 0.097139
H	-0.4368045384	-3.5811323569	 1.56815781	 0.119686
H	-0.8479603957	-1.9426166182	 2.1454581897	 0.139717
H	-2.5248449771	-2.3336898304	-1.5472651873	 0.164475
H	-1.7051394336	-3.864671721	-1.1892275783	 0.146145
46.1102	71.3732	98.4768	174.9932	246.9964	347.7065	409.4187	511.0098	543.5164	597.4919	693.7304	774.6513	821.8869	845.7073	884.3838	896.2595	969.4235	1037.5111	1045.5448	1068.9416	1093.8448	1120.6578	1165.6338	1197.2487	1246.1131	1270.0813	1288.1751	1314.8217	1377.4551	1404.5523	1427.2177	1445.5795	1505.0683	1750.0837	1898.142	3010.4858	3034.2024	3054.9993	3075.5416	3115.4527	3151.0076	3521.5656
N=COC1COC(=O)C1	[NH][CH]O[C@H]1COC(=O)C1	
InChI=1S/C5H7NO3/c6-3-9-4-1-5(7)8-2-4/h3-4,6H,1-2H2	InChI=1S/C5H7NO3/c6-3-9-4-1-5(7)8-2-4/h3-4,6H,1-2H2/t4-/m1/s1
