17
gdb 28283	4.9815	1.27885	1.15782	3.046	79.54	-0.2109	0.008	0.2189	1088.1764	0.137791	-380.846452	-380.839248	-380.838304	-380.878052	28.163	
C	-0.0437514529	 1.474541569	 0.0930710995	-0.483633
C	 0.1101585049	-0.0050228577	-0.0498600522	 0.286544
C	-0.0964434378	-0.7725486406	-1.1802480445	-0.246264
N	-0.0290272324	-2.0808630059	-0.7318812475	 0.001757
C	 0.645945042	-3.3839970544	-0.9266596406	-0.018262
C	 2.0945193104	-3.3077662629	-0.5241669702	-0.270788
C	 1.0160983509	-3.3762419565	 0.5529396654	-0.186537
C	 0.3633766719	-2.0112369375	 0.5807633693	 0.276447
N	 0.469805665	-0.7934963842	 1.0450043017	-0.370509
H	 0.8355399523	 1.9077611913	 0.5804704955	 0.134499
H	-0.1732445148	 1.9533760026	-0.8813883958	 0.116666
H	-0.9115961743	 1.7269602585	 0.7131359735	 0.133322
H	-0.4100361848	-0.4951081658	-2.1733501041	 0.123127
H	 0.1985053086	-4.163364054	-1.5281192854	 0.120193
H	 2.6761762927	-4.2141072983	-0.6749015821	 0.124014
H	 2.6432894585	-2.3835031665	-0.6736994292	 0.142391
H	 0.9433254096	-4.1791012871	 1.2721829666	 0.117033
116.5443	126.3678	262.7848	273.3548	306.1172	506.0568	509.6997	594.9945	655.0342	728.5482	755.1236	768.4444	784.7387	852.0941	870.7682	947.9909	974.738	999.1123	1012.3453	1017.8085	1048.7063	1062.7746	1089.6096	1102.8	1165.0788	1184.3541	1242.5938	1272.3038	1289.1678	1355.9017	1365.5631	1412.7666	1474.349	1475.3131	1487.1446	1549.4684	1574.5034	3032.9161	3088.6109	3116.8794	3117.3584	3207.098	3211.8102	3225.9003	3267.7791
CC1=CN2C3CC3C2=N1	CC1=N[C]2N([CH]1)[C@H]1C[C@@H]21	
InChI=1S/C7H8N2/c1-4-3-9-6-2-5(6)7(9)8-4/h3,5-6H,2H2,1H3	InChI=1S/C7H8N2/c1-4-3-9-6-2-5(6)7(9)8-4/h3,5-6H,2H2,1H3/t5-,6+/m1/s1
