19
gdb 93406	2.78871	1.34518	0.94285	5.4617	79.63	-0.257	-0.0391	0.2179	1243.0382	0.159423	-423.084968	-423.076255	-423.075311	-423.118227	32.841	
C	-0.2204785448	 1.5156662075	-0.0328222881	-0.410027
C	 0.0432703697	 0.0034460315	 0.0264053394	-0.110727
C	 0.803721129	-0.433554212	-1.2249160825	-0.07655
O	 1.1703784268	-1.8149592017	-1.2195031559	-0.242336
C	 1.7716260014	-2.3040358126	-0.0993714237	 0.420764
O	 2.3144150904	-3.3783702897	-0.1389580178	-0.343666
C	 1.6504852144	-1.4959462367	 1.1303852746	-0.308991
C	 0.8186269685	-0.4513014003	 1.249406806	 0.320265
C	 0.5894393664	 0.2363133385	 2.5635851558	-0.487628
H	 0.7159891663	 2.0838236261	-0.0208335373	 0.12656
H	-0.7548102926	 1.7711147046	-0.9532110885	 0.12546
H	-0.8316538475	 1.8528814825	 0.8076273505	 0.127576
H	-0.9304999796	-0.5105314806	 0.0425855304	 0.106658
H	 0.1968794036	-0.2969538109	-2.1232892814	 0.121348
H	 1.7117595455	 0.177430466	-1.3296828656	 0.108064
H	 2.2086594543	-1.8842905286	 1.9750583607	 0.112236
H	 1.1574367433	-0.2414120557	 3.3647893333	 0.134306
H	 0.8748749147	 1.2935381717	 2.5205273243	 0.139161
H	-0.4738844098	 0.2120512703	 2.8345059758	 0.137527
79.8172	158.1816	208.5958	221.14	233.05	293.2987	325.4686	336.1125	424.0988	482.0252	525.6735	572.1819	711.1501	740.3276	754.3332	863.8847	900.3974	915.4713	962.4141	1020.9173	1038.9565	1087.6815	1112.0646	1120.7653	1139.0993	1189.3159	1239.519	1277.9244	1314.7164	1333.0217	1373.4507	1408.4852	1410.5412	1431.4388	1476.9596	1480.4503	1498.8911	1505.1325	1506.672	1696.6235	1824.725	2986.5968	3010.8456	3025.0861	3038.2509	3076.7254	3098.1582	3105.6622	3120.4367	3125.9276	3196.0732
CC1COC(=O)C=C1C	C[C@H]1COC(=O)C=C1C	
InChI=1S/C7H10O2/c1-5-3-7(8)9-4-6(5)2/h3,6H,4H2,1-2H3	InChI=1S/C7H10O2/c1-5-3-7(8)9-4-6(5)2/h3,6H,4H2,1-2H3/t6-/m0/s1
