21
gdb 86294	1.75475	1.56658	1.18903	3.085	79.09	-0.2429	-0.0229	0.2199	1193.4969	0.179718	-424.231624	-424.221477	-424.220532	-424.266561	37.392	
C	-0.8771141499	 1.0836572893	-0.1528991172	-0.418952
C	 0.0972896543	-0.0845577988	-0.1358389513	 0.007562
C	 1.4849628207	 0.0808614774	-0.8110480151	-0.299397
C	 2.0998418898	-0.7862977818	 0.3090707159	 0.122811
O	 3.3706195104	-0.5002544788	 0.8175349318	-0.421955
C	 0.8064924901	-0.4921059057	 1.1958182238	 0.16523
C	 1.043843104	 0.6210152576	 2.2147660336	-0.483377
C	 0.2811302186	-1.7342844444	 1.8670819021	 0.099941
O	-0.4756914347	-2.5255426252	 1.3587648711	-0.264746
H	-0.4270890709	 2.0013534179	 0.2403364183	 0.109114
H	-1.2055178403	 1.2916687554	-1.1770147435	 0.120155
H	-1.7709310818	 0.8651246155	 0.4412986323	 0.12342
H	-0.3991053289	-0.9796092399	-0.5213310939	 0.103188
H	 1.6097801757	-0.2598424933	-1.8415131329	 0.107562
H	 1.841483986	 1.116189116	-0.744062621	 0.089237
H	 2.1184362277	-1.8422091717	 0.0270563396	 0.109224
H	 3.4447917254	 0.4522309993	 0.9362893112	 0.283759
H	 1.4797774494	 1.5137714622	 1.754853954	 0.111539
H	 0.1093648008	 0.931502006	 2.6929089969	 0.130424
H	 1.7300590979	 0.2837771	 2.998529473	 0.132343
H	 0.6809765157	-1.9143964869	 2.8927491912	 0.07292
55.9692	101.2971	172.3495	197.3143	218.827	230.4926	250.5856	258.4565	313.3941	338.3913	422.2045	472.074	502.7975	539.2072	660.4488	702.4137	800.0155	867.344	906.6482	929.4721	953.9773	988.2997	1017.3895	1073.0743	1089.2018	1141.3135	1163.0678	1169.6699	1197.1626	1229.7613	1245.2404	1266.7894	1315.6112	1323.1392	1385.6082	1406.0788	1409.3493	1427.9442	1435.9913	1488.7049	1490.4797	1492.6368	1500.7235	1505.4807	1811.7059	2853.8213	3027.7236	3031.4404	3036.5395	3070.4461	3079.0783	3095.2807	3096.3325	3099.5124	3104.5804	3107.9417	3816.207
CC1CC(O)C1(C)C=O	C[C@H]1C[C@@H](O)[C@]1(C)C=O	
InChI=1S/C7H12O2/c1-5-3-6(9)7(5,2)4-8/h4-6,9H,3H2,1-2H3	InChI=1S/C7H12O2/c1-5-3-6(9)7(5,2)4-8/h4-6,9H,3H2,1-2H3/t5-,6+,7+/m0/s1
