18
gdb 50584	3.66437	1.18931	0.99723	2.3731	71.45	-0.2214	-0.0365	0.1849	1179.2996	0.148219	-439.055851	-439.047832	-439.046888	-439.088831	30.409	
O	-0.5117613893	 0.6408014176	-0.6861477477	-0.2434
C	 0.1085202512	 1.0682430413	 0.2531385897	 0.135838
C	 1.3465340888	 1.9360328216	 0.1389472931	-0.065882
C	 1.4717673162	 2.6290870526	-1.2174866416	-0.086928
O	 2.7146591018	 3.3103255375	-1.3101173683	-0.25811
C	 3.0919531206	 4.060765084	-0.1929859947	 0.132819
C	 2.2360369009	 5.1410357234	 0.4095645483	-0.345006
C	 2.4696644395	 3.8340051724	 1.1638079992	-0.037134
N	 1.3986813841	 2.8657437869	 1.2657422423	-0.332453
H	-0.1863328727	 0.8457304187	 1.3035998546	 0.094276
H	 2.204013747	 1.2485408924	 0.2385141528	 0.120771
H	 1.4564684385	 1.9058004779	-2.0348987783	 0.130766
H	 0.6255802606	 3.3190454934	-1.3626882379	 0.093357
H	 4.1613127348	 4.2370916839	-0.2336790416	 0.108312
H	 2.7242631907	 6.0429929137	 0.7622170896	 0.117108
H	 1.2409662762	 5.2972326391	 0.0062357667	 0.116138
H	 3.1241250081	 3.8724897833	 2.0319664235	 0.096472
H	 0.5052797029	 3.3318760802	 1.3841151802	 0.223056
67.0154	115.2452	196.5942	200.841	325.6045	374.3338	424.4227	442.7986	511.0422	614.8412	698.2785	735.8771	752.4462	812.0818	847.4616	868.6586	941.2918	986.2311	1011.5609	1041.3509	1063.8135	1084.3649	1125.4482	1132.8759	1167.7443	1175.4701	1214.6739	1257.6553	1267.7047	1299.1333	1325.4671	1367.7886	1383.5855	1406.7539	1423.0662	1471.3142	1481.4454	1503.6265	1831.5875	2883.9514	2968.8877	2988.7474	3115.1617	3116.4237	3132.5124	3170.8881	3220.0332	3512.5255
O=CC1COC2CC2N1	O=C[C@H]1CO[C@H]2C[C@H]2N1	
InChI=1S/C6H9NO2/c8-2-4-3-9-6-1-5(6)7-4/h2,4-7H,1,3H2	InChI=1S/C6H9NO2/c8-2-4-3-9-6-1-5(6)7-4/h2,4-7H,1,3H2/t4-,5+,6-/m0/s1
