16
gdb 10839	4.63991	1.56993	1.23291	2.1722	61.27	-0.2377	-0.0317	0.206	956.9103	0.129657	-420.893566	-420.885974	-420.885029	-420.925646	27.848	
C	-0.1188712649	 1.496420157	 0.0115664122	-0.410114
C	 0.0283806886	-0.0085440156	 0.0014927784	 0.220035
O	 0.719077542	-0.3782913414	-1.1699054417	-0.23951
C	 0.8466361267	-1.7809555164	-1.3103448009	-0.189789
C	 1.2732049315	-2.4923050487	-0.0290432042	 0.344742
O	 1.8062398337	-3.5743409682	-0.0422366929	-0.288127
C	 0.8822468773	-1.7947884899	 1.2710681995	-0.189816
O	 0.7514593173	-0.3906923543	 1.1491315034	-0.239499
H	 0.8717498539	 1.9570304248	-0.0001686135	 0.141386
H	-0.6748804381	 1.8225485477	-0.8698144094	 0.130176
H	-0.6494053802	 1.8130953769	 0.9118919332	 0.13018
H	-0.9588310793	-0.5130805046	 0.0125932138	 0.054664
H	-0.1118129672	-2.2346914741	-1.6232114077	 0.121648
H	 1.5793992318	-1.9794492158	-2.0955051857	 0.146196
H	-0.0674684701	-2.2517212677	 1.6052026236	 0.121639
H	 1.6361719271	-2.0017487195	 2.0336788318	 0.14619
68.8364	170.2215	207.0214	224.5022	300.5971	404.8718	416.5868	484.9946	499.4975	578.8333	687.5345	808.7141	818.4337	856.9899	890.7021	1065.5177	1075.7442	1082.2202	1122.7137	1168.175	1182.1901	1218.1022	1251.2583	1276.4862	1349.4855	1372.3533	1393.2865	1398.8016	1433.6163	1460.0794	1463.8267	1482.6547	1490.2319	1834.0222	2901.8885	2944.9189	2950.5139	3061.5523	3112.139	3113.1288	3143.85	3145.6324
CC1OCC(=O)CO1	CC1OCC(=O)CO1	
InChI=1S/C5H8O3/c1-4-7-2-5(6)3-8-4/h4H,2-3H2,1H3	InChI=1S/C5H8O3/c1-4-7-2-5(6)3-8-4/h4H,2-3H2,1H3
