17
gdb 85762	3.35063	1.23007	1.05541	4.6903	71.9	-0.2555	0.0192	0.2747	1134.426	0.137369	-417.992295	-417.98434	-417.983396	-418.024919	30.274	
O	-0.0478751281	 1.4347632651	 0.1529208988	-0.427883
C	-0.0058143098	 0.0255545402	 0.0231111569	 0.107678
C	 0.6898002386	-0.6953515168	 1.2031324899	-0.299945
C	-0.1051265765	-2.020428446	 1.335509645	-0.118789
C	-0.1350100546	-2.543183779	 2.7037053544	 0.295953
N	-0.1401772032	-2.9379050327	 3.7895349213	-0.320747
N	-1.4725808374	-1.7986566467	 0.8018085643	-0.102341
C	-2.1225269879	-0.5889769105	 1.3353871323	-0.243824
C	-1.4167614907	-0.5389077132	 0.0321107371	-0.020171
H	 0.8347176463	 1.7817852047	-0.0108396503	 0.289768
H	 0.4758667097	-0.2565499543	-0.9252468436	 0.079132
H	 1.7533659655	-0.8760960455	 1.0344213773	 0.119408
H	 0.5941977727	-0.0800419762	 2.1003034571	 0.138709
H	 0.3483816622	-2.7890053616	 0.6989288222	 0.134163
H	-3.2055668567	-0.646254655	 1.3543937705	 0.131211
H	-1.6833873174	-0.0813760882	 2.1887877617	 0.134876
H	-1.9801525626	-0.5154220943	-0.895023985	 0.102803
85.9905	138.5793	171.327	276.7855	292.5311	350.4508	409.9376	471.4617	542.2264	573.0292	618.4101	640.511	758.5463	832.6907	878.9533	901.3762	982.3487	987.7126	1019.3987	1042.8052	1069.0015	1103.311	1111.6708	1120.6466	1166.2242	1190.6425	1236.2897	1254.2858	1276.1817	1316.7365	1354.1979	1357.8222	1391.8927	1438.5061	1490.518	1519.1176	2361.9713	2986.4712	3043.5029	3078.0216	3125.9119	3130.4718	3164.8011	3214.3463	3820.2016
OC1CC(C#N)N2CC12	O[C@H]1C[C@@H](C#N)N2C[C@@H]12	
InChI=1S/C6H8N2O/c7-2-4-1-6(9)5-3-8(4)5/h4-6,9H,1,3H2	InChI=1S/C6H8N2O/c7-2-4-1-6(9)5-3-8(4)5/h4-6,9H,1,3H2/t4-,5-,6-,8?/m0/s1
