22
gdb 118197	2.3778	0.94701	0.86032	4.131	80.19	-0.2267	-0.017	0.2097	1507.2022	0.191008	-441.483623	-441.472594	-441.47165	-441.521402	38.631	
C	 0.2918162933	 1.4612169458	 0.027435982	-0.335606
N	 0.1147895745	 0.0161311706	 0.0673140343	-0.053015
C	 0.7456605903	-0.6330945343	 1.2178896341	-0.163847
C	 1.1610932014	-2.0618083735	 0.8478525323	-0.05176
O	 1.9187464022	-2.0675282472	-0.3393362066	-0.42059
C	-1.2607345256	-0.3769335135	-0.1481765775	-0.263557
C	-1.7171425684	-0.2643919993	-1.6065487349	 0.379606
C	-3.1935435576	-0.5291804842	-1.8444714275	-0.476111
O	-0.9579494814	 0.0160941105	-2.5024146622	-0.285454
H	 1.3548393384	 1.7029030231	 0.1077630537	 0.127347
H	-0.0688829303	 1.8465735707	-0.9286730579	 0.141377
H	-0.2431116239	 1.9821050505	 0.8433054665	 0.091079
H	 1.650740477	-0.0654299676	 1.4546934742	 0.110701
H	 0.1091919398	-0.6302282166	 2.1212004384	 0.079061
H	 1.7781109995	-2.4839592912	 1.6491001102	 0.103213
H	 0.2705891787	-2.7102700546	 0.7604674611	 0.076626
H	 1.492041023	-1.4059921342	-0.9057927448	 0.284862
H	-1.3927706995	-1.4285983968	 0.1349415177	 0.129416
H	-1.975715629	 0.1884768596	 0.4837698987	 0.097816
H	-3.7870401164	 0.2973967847	-1.4360916182	 0.144985
H	-3.3848506722	-0.6102031296	-2.9148613508	 0.147998
H	-3.5225865336	-1.4402630731	-1.3334303726	 0.135855
29.4659	48.5626	83.7201	99.5799	145.0863	185.4419	218.9337	259.8779	341.6595	360.404	385.8274	436.0814	475.8944	544.6405	569.3011	604.5487	807.9407	828.5215	852.2012	885.9591	947.7341	982.0282	1061.7486	1075.2401	1086.6314	1107.9246	1152.7744	1173.7821	1198.5551	1212.4888	1252.8225	1306.5171	1329.3984	1375.6645	1380.91	1390.6174	1393.6046	1447.122	1448.7096	1461.1449	1469.5525	1477.2032	1489.4279	1499.1088	1506.7437	1519.0789	1821.9137	2902.8966	2932.8624	2935.9209	2948.3379	3036.5981	3051.5177	3059.5079	3078.4726	3084.4109	3097.7078	3130.3064	3154.4907	3697.7773
CN(CCO)CC(C)=O	CN(CCO)CC(=O)C	
InChI=1S/C6H13NO2/c1-6(9)5-7(2)3-4-8/h8H,3-5H2,1-2H3	InChI=1S/C6H13NO2/c1-6(9)5-7(2)3-4-8/h8H,3-5H2,1-2H3
