16
gdb 129931	2.99926	1.34685	1.02048	2.364	73.16	-0.196	-0.0307	0.1653	1132.0561	0.125614	-434.092068	-434.083662	-434.082717	-434.125298	30.926	
N	 0.2335367038	 1.4366448529	-0.0638762793	-0.623998
C	 0.1078462801	 0.0438888425	-0.0602839734	 0.143837
C	-1.0284021936	-0.7429814206	-0.0468987956	-0.110992
N	-0.5941340231	-2.0344445516	 0.0354037025	-0.188008
N	 0.7379871948	-2.1457010776	 0.0754949789	-0.288275
C	 1.1791229366	-0.8874380719	 0.0268156508	 0.290895
C	 2.6451910971	-0.5573408499	 0.0394721613	-0.381462
C	 3.0116463935	-0.0273855451	-1.335223541	 0.143112
O	 2.8879011274	 1.1298933787	-1.6623079874	-0.246796
H	 1.0606905147	 1.7473407407	-0.563292976	 0.264431
H	-0.5849562162	 1.9133477573	-0.416782179	 0.240217
H	-2.0764963553	-0.4937903023	-0.0873381284	 0.122879
H	-1.1551504276	-2.8670785569	 0.0791655303	 0.273882
H	 2.8596983216	 0.2206931396	 0.7804665054	 0.13356
H	 3.2168665507	-1.4593720728	 0.2707487527	 0.129916
H	 3.3529266256	-0.7895758929	-2.0682763018	 0.096801
84.6715	111.2694	142.5278	233.9261	278.3995	314.3919	368.3166	430.519	449.4665	517.8069	633.7441	655.854	712.4416	728.0491	741.6343	792.1805	908.4073	943.2276	988.2968	1052.0418	1073.8946	1116.6893	1178.0483	1233.347	1251.4528	1295.7265	1344.8217	1415.5299	1427.2494	1461.1677	1469.9737	1529.0512	1629.5233	1672.1305	1804.7666	2904.9769	3045.0398	3118.8919	3263.7316	3510.8666	3620.3769	3683.6375
NC1=CNN=C1CC=O	Nc1c[nH]nc1CC=O	
InChI=1S/C5H7N3O/c6-4-3-7-8-5(4)1-2-9/h2-3H,1,6H2,(H,7,8)	InChI=1S/C5H7N3O/c6-4-3-7-8-5(4)1-2-9/h2-3H,1,6H2,(H,7,8)
