19
gdb 121331	2.99036	1.02983	0.83025	1.7891	72.88	-0.2461	-0.0299	0.2162	1413.5255	0.157845	-460.168362	-460.159104	-460.15816	-460.203454	32.678	
C	-0.1059446995	 1.3023739089	 0.0238931562	-0.22895
O	 0.1725067191	-0.0772186608	 0.0657630433	-0.231048
C	 0.5283015379	-0.599787431	-1.1899251996	-0.061643
C	 0.7690118801	-2.0998515025	-1.0372874647	-0.008986
O	-0.4136147414	-2.8510016863	-0.815177471	-0.258611
C	-0.8181302433	-3.4657323103	-2.0422969527	-0.092055
C	 0.4799320359	-3.8051053146	-2.7772002154	-0.334343
C	 1.4097630685	-2.6911427815	-2.3030219002	 0.363936
O	 2.4309426398	-2.3144670282	-2.813893686	-0.306211
H	 0.7630813692	 1.8851506867	-0.320568912	 0.10594
H	-0.9548505784	 1.527567536	-0.6410488138	 0.104973
H	-0.3609589923	 1.6137931011	 1.03951143	 0.130363
H	-0.2674857833	-0.4161091215	-1.9325680669	 0.085749
H	 1.4541665533	-0.1371653543	-1.5699257399	 0.109123
H	 1.4351574907	-2.2454332703	-0.1778165469	 0.121414
H	-1.4271657038	-4.3349309402	-1.7858650412	 0.120725
H	-1.4363402727	-2.7777701145	-2.6394019522	 0.101417
H	 0.8906029851	-4.7615627289	-2.4319095716	 0.142896
H	 0.412734505	-3.833375198	-3.8659714854	 0.135311
56.8826	90.9007	101.1108	140.8094	177.0853	233.7328	281.9085	345.1633	431.8574	529.3683	536.2673	642.765	653.029	832.0745	842.5691	879.2978	946.5883	984.1626	1001.3619	1049.674	1104.4164	1115.3743	1150.4341	1170.3321	1186.0742	1205.5967	1221.9686	1237.6494	1259.7359	1268.2845	1284.972	1349.9908	1393.6888	1412.884	1446.7759	1478.2186	1485.7194	1497.8296	1520.0875	1523.7424	1853.9839	2951.6781	2971.7697	2986.658	2994.3328	3014.8274	3043.3494	3048.8016	3105.3073	3117.2629	3127.419
COCC1OCCC1=O	COC[C@H]1OCCC1=O	
InChI=1S/C6H10O3/c1-8-4-6-5(7)2-3-9-6/h6H,2-4H2,1H3	InChI=1S/C6H10O3/c1-8-4-6-5(7)2-3-9-6/h6H,2-4H2,1H3/t6-/m1/s1
