12
gdb 130479	4.17524	1.71083	1.21357	1.1792	70.48	-0.2753	-0.0941	0.1812	901.1942	0.081154	-431.666044	-431.660391	-431.659447	-431.696096	22.036	
O	-0.013795934	 1.2715402116	 0.0091398725	-0.202961
C	 1.099725632	 2.0010241626	 0.0021891462	 0.04548
C	 2.3244448822	 1.4088794909	-0.0128535507	 0.18872
N	 3.6036741342	 1.890170073	-0.0227103457	-0.333976
C	 4.3123911504	 0.7644956174	-0.0356536537	 0.020269
N	 3.6309460268	-0.4346033266	-0.0353110408	-0.345133
C	 2.3682104199	-0.0302310213	-0.0209175666	 0.263365
C	 1.1349046497	-0.7198207128	-0.0125876606	-0.03686
N	-0.0246387405	-0.1195112912	 0.0018668081	-0.073062
H	 0.8842291258	 3.0636025079	 0.009928281	 0.180087
H	 5.3955030092	 0.7763891183	-0.0460704654	 0.129662
H	 1.0642981043	-1.8034437397	-0.0176403842	 0.164409
213.3658	243.8954	399.3745	415.0566	576.9082	590.7551	631.682	649.9083	785.327	801.878	845.8712	913.4328	940.8879	947.8224	965.1842	969.9808	1128.8644	1202.4846	1226.3881	1265.9318	1300.5736	1335.8598	1399.7869	1458.2956	1509.7773	1615.484	1657.261	3190.8962	3212.2229	3227.201
O1C=C2N=CN=C2C=N1	O1[CH]c2ncnc2C=N1	
InChI=1S/C5H3N3O/c1-4-5(2-9-8-1)7-3-6-4/h1-3H	InChI=1S/C5H4N3O/c1-4-5(2-9-8-1)7-3-6-4/h1-3H,(H,6,7)
