23
gdb 101229	3.77875	0.79159	0.71331	2.4119	82.31	-0.2544	0.0646	0.3189	1659.9994	0.204845	-425.414467	-425.404322	-425.403378	-425.449783	38.05	
C	-0.8116319319	 0.9846329766	-0.1672261034	-0.409284
C	 0.2763002221	-0.0456616853	 0.0917089708	 0.068762
C	 1.5251977733	-0.0614667394	-0.8369150366	-0.250207
C	 2.4312554489	-0.2645277938	 0.4116821703	-0.023474
C	 1.2277859711	 0.1658106815	 1.3049307661	-0.251593
C	 2.889470147	-1.7038209956	 0.6158305226	 0.095948
O	 3.6720093384	-2.1779744346	-0.4906882499	-0.444258
C	 3.6943092491	-1.9130664574	 1.9017259567	-0.062783
O	 4.1401846121	-3.2475226553	 2.006526691	-0.425452
H	-0.3905415123	 1.9957290232	-0.21757264	 0.109475
H	-1.3257364169	 0.7909350779	-1.115430249	 0.115526
H	-1.5663209156	 0.9774868177	 0.6273954286	 0.114505
H	-0.1703988186	-1.0449233714	 0.1361718771	 0.075058
H	 1.5814720402	-0.8347975181	-1.6062642841	 0.110127
H	 1.6891920466	 0.9132112788	-1.3070564776	 0.09184
H	 3.3078902957	 0.3938813843	 0.465808305	 0.055146
H	 1.291996759	 1.2200542722	 1.590677838	 0.098026
H	 1.0341852499	-0.4219537424	 2.206965351	 0.099309
H	 2.0236766419	-2.377130556	 0.6376933108	 0.092984
H	 4.3672854487	-1.5286865177	-0.6524714505	 0.280344
H	 4.5418596849	-1.2015981435	 1.9086874675	 0.067938
H	 3.0827347967	-1.6985940628	 2.784348455	 0.108479
H	 4.4154007799	-3.4904525389	 1.1124633906	 0.283585
64.2497	81.3333	122.3273	152.244	234.307	249.6758	264.4552	308.7074	340.9187	406.021	423.8505	464.3882	513.8065	544.9161	670.2859	808.7812	839.3876	870.9559	900.0209	910.7228	955.0556	961.9238	979.9168	1035.0319	1068.9637	1090.1257	1112.5618	1125.9342	1140.6173	1154.1151	1209.6073	1222.3297	1227.4371	1264.4027	1275.2057	1286.3432	1289.4632	1303.2096	1369.6357	1381.5716	1390.1564	1411.6457	1421.199	1444.0482	1476.2959	1493.599	1495.961	1500.4643	1505.7009	2925.0608	3011.4759	3020.8091	3037.9343	3045.8593	3048.3373	3055.7715	3073.1093	3088.0413	3090.0012	3100.9424	3113.1814	3759.1792	3783.0309
CC1CC(C1)C(O)CO	C[C@H]1C[C@@H](C1)[C@@H](O)CO	
InChI=1S/C7H14O2/c1-5-2-6(3-5)7(9)4-8/h5-9H,2-4H2,1H3	InChI=1S/C7H14O2/c1-5-2-6(3-5)7(9)4-8/h5-9H,2-4H2,1H3/t5-,6-,7-/m0/s1
