17
gdb 88048	2.37487	1.37918	1.10167	4.772	73.22	-0.2462	0.0132	0.2594	1141.1143	0.135911	-417.966548	-417.957988	-417.957044	-417.999924	31.804	
O	-0.0453674035	 1.375237457	-0.0891520465	-0.417515
C	 0.01020215	-0.011958486	 0.0441774593	 0.046754
C	-0.4990551242	-0.6614123824	 1.3142592709	-0.398274
C	-1.3090430232	-0.7048173848	 0.0516736438	 0.318438
C	-2.6528093112	-0.0610582054	-0.2856932059	-0.235635
N	-2.8261269301	-1.0793512291	-1.3611597007	-0.308196
C	-1.7321243334	-1.9121023076	-0.8059958583	-0.214568
C	-0.7716023982	-2.4257157607	-1.7866408483	 0.315909
N	 0.0145339815	-2.8340554269	-2.5290444196	-0.33496
H	 0.6889133693	 1.7547201164	 0.4047280953	 0.294004
H	 0.8292261997	-0.5039058157	-0.4808104683	 0.113596
H	-0.0187190939	-1.5721385703	 1.6589163613	 0.122633
H	-0.8540420588	-0.0012411647	 2.099688335	 0.122142
H	-3.3847829739	-0.1311791061	 0.5300759061	 0.099088
H	-2.6147696983	 0.9676544531	-0.6525745493	 0.136724
H	-3.7277585781	-1.5417247034	-1.3844323721	 0.229258
H	-2.0679854737	-2.7551218335	-0.1847287026	 0.110602
87.5137	106.3562	163.5017	207.1948	257.3197	280.7512	347.9995	430.1826	478.6867	523.0516	570.4966	582.8576	698.308	815.0149	838.8783	884.7833	938.8957	977.3751	1001.6223	1018.2329	1038.1228	1050.1068	1098.9778	1111.7651	1138.8301	1174.9349	1211.2874	1225.5642	1285.3731	1308.9575	1348.7416	1367.1268	1391.0939	1428.6101	1500.5027	1521.1	2355.2065	2994.1611	3010.8172	3094.4123	3106.7292	3121.6748	3212.144	3541.7048	3810.8531
OC1CC11CNC1C#N	O[C@H]1C[C@]21CN[C@H]2C#N	
InChI=1S/C6H8N2O/c7-2-4-6(3-8-4)1-5(6)9/h4-5,8-9H,1,3H2	InChI=1S/C6H8N2O/c7-2-4-6(3-8-4)1-5(6)9/h4-5,8-9H,1,3H2/t4-,5-,6-/m0/s1
