19
gdb 94774	3.71347	1.15955	1.02556	4.4369	77.17	-0.2423	-0.017	0.2253	1209.9097	0.158704	-423.027954	-423.019532	-423.018588	-423.060934	32.038	
C	 0.0341878027	 1.5848263486	-0.0356374884	-0.402638
C	 0.0394152052	 0.0579840466	 0.0547865559	-0.00268
C	 0.7586072779	-0.6243011763	-1.1339256251	-0.110495
O	 1.2929430756	-1.8595297537	-0.6587781015	-0.283684
C	 1.4856776901	-1.7560397284	 0.7165142098	 0.356972
C	 2.2685902693	-0.55826488	 1.2468006823	-0.363677
C	 0.7667451714	-0.5288986313	 1.2596193075	-0.123135
C	 1.5208934044	-3.0280764371	 1.467246887	 0.093572
O	 1.3914763581	-4.1266726715	 0.9927103103	-0.265042
H	 1.0544828857	 1.9825347037	-0.0297116762	 0.120109
H	-0.4536116458	 1.9218301661	-0.9565057271	 0.121882
H	-0.5043219388	 2.0295599394	 0.8065622972	 0.122315
H	-0.9957578101	-0.3015258742	 0.0967049627	 0.090433
H	 0.092826803	-0.8472530476	-1.9717734677	 0.120142
H	 1.5678719535	 0.0192029867	-1.5099603896	 0.097645
H	 2.7737749431	-0.6771798007	 2.199476258	 0.127517
H	 2.8186713806	 0.0258849634	 0.5174396478	 0.132435
H	 0.2516133954	-0.56568448	 2.2130193133	 0.102655
H	 1.6865893687	-2.8736670538	 2.5599062139	 0.065674
83.8907	160.7108	175.4926	216.8339	241.6805	289.6308	363.2009	396.4685	486.5679	527.6239	604.489	685.4194	758.2468	804.9243	819.672	905.1274	931.2121	955.2703	986.4357	992.2384	1030.9889	1044.5339	1057.7071	1085.5661	1098.1482	1137.1379	1173.1222	1224.9302	1246.3882	1291.1564	1339.7499	1351.8492	1369.984	1403.3205	1416.5954	1441.6035	1473.9879	1494.7957	1500.3951	1528.9978	1827.4185	2850.2628	2992.0588	3032.8137	3034.3864	3090.9469	3101.5227	3108.2842	3134.8152	3172.1671	3222.407
CC1COC2(CC12)C=O	C[C@H]1CO[C@]2(C[C@@H]12)C=O	
InChI=1S/C7H10O2/c1-5-3-9-7(4-8)2-6(5)7/h4-6H,2-3H2,1H3	InChI=1S/C7H10O2/c1-5-3-9-7(4-8)2-6(5)7/h4-6H,2-3H2,1H3/t5-,6-,7+/m0/s1
