16
gdb 29479	3.13798	1.66778	1.10383	1.8801	77.99	-0.2044	-0.0187	0.1857	1054.4952	0.125984	-400.788274	-400.781073	-400.780128	-400.819831	27.739	
C	-0.0193004077	 1.5293741331	 0.0560194374	-0.506295
C	-0.0069674332	 0.0351881592	 0.0268898576	 0.185229
C	-0.0261469535	-0.7921325599	-1.0474120213	-0.17585
C	-0.0033237285	-2.2682418321	-0.6557214612	-0.416566
C	 0.032625549	-2.1619470168	 0.8366300752	 0.227756
C	 0.0294394022	-0.8523698565	 1.1795031561	 0.277908
O	 0.0620394931	-0.7504080537	 2.5327572393	-0.205351
C	 0.0833277102	-2.0656346442	 2.9330009317	 0.023778
N	 0.0677943144	-2.9433880157	 1.9748154589	-0.337906
H	 0.8716041116	 1.9229586287	 0.5589974816	 0.136982
H	-0.0515804518	 1.9407870924	-0.9556443023	 0.129893
H	-0.8869425248	 1.9074884	 0.6089792407	 0.136928
H	-0.0546741989	-0.4646087765	-2.0789650194	 0.099804
H	-0.8875348509	-2.7977172549	-1.0326386232	 0.138745
H	 0.8705053832	-2.7820300309	-1.0760601727	 0.138748
H	 0.1110298157	-2.2351485922	 3.9973150715	 0.146197
150.4789	177.2945	214.0526	231.6468	295.1562	495.6846	505.683	583.8779	642.5002	643.4851	724.8522	742.3372	771.2704	791.3338	930.6661	934.9717	942.8111	1012.5264	1064.5554	1066.2468	1089.1633	1123.8444	1144.4602	1237.2719	1247.5609	1311.907	1378.0731	1416.0169	1433.9613	1450.5643	1478.2131	1495.2402	1507.608	1575.5264	1659.3861	3029.7481	3035.7741	3065.6506	3079.8784	3121.629	3215.3605	3282.3257
CC1=CCC2=C1OC=N2	CC1=CCc2c1ocn2	
InChI=1S/C7H7NO/c1-5-2-3-6-7(5)9-4-8-6/h2,4H,3H2,1H3	InChI=1S/C7H7NO/c1-5-2-3-6-7(5)9-4-8-6/h2,4H,3H2,1H3
