18
gdb 83606	2.37994	1.69348	1.25263	4.225	73.7	-0.2343	0.0178	0.2521	1066.385	0.146623	-439.085258	-439.076424	-439.07548	-439.118711	32.016	
C	-0.0320649474	 1.4324705041	 0.1831601876	-0.350438
N	-0.03483732	 0.0176338289	-0.0977554366	-0.077214
C	-1.1082734815	-0.9698448256	-0.0750064783	-0.103758
C	-1.4411737896	-1.5350486327	 1.3207831157	-0.104079
O	-0.344379086	-2.4727247516	 1.2543074754	-0.318031
C	-0.0086016193	-2.0777275176	-0.1048375936	 0.285602
C	 0.1631136265	-3.2245296982	-1.0549748284	-0.48534
C	 1.0045632681	-0.8944111022	-0.080912025	 0.377468
O	 2.1969395934	-0.7537807536	-0.0200692744	-0.374436
H	 1.0097184964	 1.7616544389	 0.1995972945	 0.164584
H	-0.5698690333	 1.9936166952	-0.5890712299	 0.130708
H	-0.4861119585	 1.6559523176	 1.1569468251	 0.12878
H	-1.8995315493	-0.8358144309	-0.8131298065	 0.095472
H	-1.3545440216	-0.8406443112	 2.1638819823	 0.1096
H	-2.4035260322	-2.0585274371	 1.3715712724	 0.110215
H	-0.7091206956	-3.8836952243	-1.0373296422	 0.127157
H	 0.320042551	-2.8613003113	-2.0751702717	 0.131366
H	 1.043612769	-3.8065496085	-0.7643567261	 0.152346
105.3474	141.6722	146.245	189.2792	205.0879	233.2128	278.1879	305.3991	407.9314	519.9556	603.3504	699.8018	749.9429	782.6329	864.3086	865.3997	924.2261	966.3092	1002.9287	1033.9121	1070.3827	1097.9175	1135.2584	1147.6353	1166.6025	1172.5562	1272.5933	1296.3733	1319.9909	1350.5106	1400.1142	1411.7746	1447.987	1477.2261	1483.709	1485.889	1509.4238	1513.5785	1875.6357	3015.5513	3022.79	3041.1595	3071.8305	3074.1712	3109.0774	3114.0746	3121.0859	3129.8971
CN1C2COC2(C)C1=O	CN1[C@@H]2CO[C@]2(C)C1=O	
InChI=1S/C6H9NO2/c1-6-4(3-9-6)7(2)5(6)8/h4H,3H2,1-2H3	InChI=1S/C6H9NO2/c1-6-4(3-9-6)7(2)5(6)8/h4H,3H2,1-2H3/t4-,6+/m1/s1
