18
gdb 38588	3.45941	1.68375	1.49328	2.3068	74.74	-0.2311	0.0558	0.2869	922.0249	0.149851	-401.820957	-401.814609	-401.813664	-401.85125	27.513	
C	-0.1087914795	 1.558961539	 0.1209988728	-0.252482
C	 1.3930096094	 1.2543189822	 0.0625064106	-0.019116
O	 1.1413873514	 0.0444464998	 0.9313910709	-0.38272
C	 0.1045097844	 0.0397239212	-0.130092077	 0.496195
C	-0.8787409848	-0.9405065271	-0.7307091712	-0.251223
N	-1.9133058022	-0.1974884518	-1.4771815515	-0.325631
C	-0.7297478005	-0.7004381947	-2.2082495981	-0.009013
C	 0.3754911649	 0.3665663738	-2.4909646494	-0.31073
C	 1.1778003303	 0.3156447579	-1.1734714185	 0.016321
H	-0.4912152577	 1.8084238346	 1.1108880903	 0.103218
H	-0.555746262	 2.1582318726	-0.6707992755	 0.110794
H	 2.2507807107	 1.8633040223	 0.3485647521	 0.092605
H	-1.0869831827	-1.9135810175	-0.3011415157	 0.100156
H	-2.7103460703	-0.8042093802	-1.657859579	 0.234604
H	-0.8768127831	-1.5028016936	-2.9247017788	 0.090782
H	 0.9785528558	 0.0846185641	-3.3574240706	 0.103272
H	-0.0884967997	 1.3325889843	-2.7034263143	 0.120659
H	 1.9286010756	-0.4788424068	-1.193671847	 0.082307
210.8019	252.7107	362.7072	421.7544	474.0542	535.3383	561.9495	653.0154	682.2034	724.5995	792.3157	823.874	836.6929	888.1574	893.7809	907.1106	923.8043	961.2986	971.0289	995.5311	1035.8011	1060.3479	1090.2394	1103.115	1127.7373	1144.9309	1158.7738	1183.7771	1186.7477	1210.7952	1211.7153	1247.85	1256.4994	1305.4092	1361.7716	1374.6943	1395.3473	1478.1523	1505.676	3068.0328	3075.9778	3091.8795	3116.2116	3117.5873	3155.3942	3168.1847	3181.1404	3490.3478
C1C2OC11C3NC3CC21	C1[C@H]2O[C@]31[C@H]1N[C@H]1C[C@@H]23	
InChI=1S/C7H9NO/c1-3-5-2-7(3,9-5)6-4(1)8-6/h3-6,8H,1-2H2	InChI=1S/C7H9NO/c1-3-5-2-7(3,9-5)6-4(1)8-6/h3-6,8H,1-2H2/t3-,4-,5+,6-,7-/m0/s1
