14
gdb 48906	4.01157	1.30657	1.13502	3.3603	67.34	-0.2626	-0.0605	0.2021	1029.496	0.100281	-436.644511	-436.637352	-436.636408	-436.676489	26.553	
O	 0.1158868916	-0.0363173895	-0.0208718547	-0.240152
C	 0.0940985495	 1.1650239144	-0.0943340225	 0.075094
C	 1.2976466044	 2.0283125102	 0.0709660333	 0.223313
C	 1.3958160635	 3.5484094993	-0.0052501349	-0.314439
C	 2.8754496631	 3.2814994447	-0.3412318005	-0.144922
N	 2.5048729618	 1.8235645219	-0.8072881716	-0.155236
C	 2.5640503797	 1.4507788851	 0.657352861	-0.224922
C	 3.4529397236	 2.6277976647	 0.9222912695	 0.485829
O	 4.3641260384	 2.8638181112	 1.6575984886	-0.31938
H	-0.8442292633	 1.7243099478	-0.3038061351	 0.090569
H	 0.8444294783	 3.9241021249	-0.8714484043	 0.129911
H	 1.1691313294	 4.1535678823	 0.8766816811	 0.127119
H	 3.4680440428	 3.9276291955	-0.9830866361	 0.119739
H	 2.6023006672	 0.4214831774	 0.9882212562	 0.147477
93.2354	145.5665	169.6433	251.3893	406.7281	453.1534	473.4767	598.4301	691.4712	706.6411	752.3295	798.7672	819.4345	899.5741	944.2467	959.2529	1007.0117	1031.0794	1047.6677	1085.5043	1120.9271	1158.3321	1184.55	1236.3034	1241.1186	1285.1895	1349.4628	1424.916	1499.0992	1819.8638	1904.6743	2893.0871	3057.4822	3113.5822	3169.6772	3225.6177
O=CC12CC3N1C2C3=O	O=C[C@]12C[C@@H]3N1[C@H]2C3=O	
InChI=1S/C6H5NO2/c8-2-6-1-3-4(9)5(6)7(3)6/h2-3,5H,1H2	InChI=1S/C6H5NO2/c8-2-6-1-3-4(9)5(6)7(3)6/h2-3,5H,1H2/t3-,5-,6-,7?/m0/s1
