21
gdb 123201	4.51425	0.6305	0.57658	1.1029	82.53	-0.244	0.0288	0.2728	1941.5643	0.178776	-424.168749	-424.157769	-424.156825	-424.206753	37.944	
C	-0.7715830198	 1.1168108455	-0.5334484021	-0.380391
C	 0.496030174	 0.2825169032	-0.609920937	-0.036467
O	 0.1255652543	-1.0470181595	-0.9482529085	-0.249416
C	 1.1699476003	-1.9931474774	-0.9158969317	-0.079456
C	 2.0115287789	-2.0476097248	-2.183624421	-0.06706
O	 2.8669374163	-0.9156150995	-2.2350507804	-0.229206
C	 3.6557101283	-0.8455319855	-3.4066240748	-0.212565
C	 4.6708903736	-1.8992138538	-3.5011850361	 0.311698
C	 5.4992226613	-2.7672732472	-3.5717243861	-0.46428
H	-1.2897624852	 1.1179452007	-1.4969386586	 0.122763
H	-1.4542727151	 0.7136886382	 0.2201953767	 0.122013
H	-0.5307589823	 2.1510526449	-0.2691369317	 0.111305
H	 1.1920459375	 0.6912374723	-1.3529180991	 0.105187
H	 1.0197859215	 0.2860485875	 0.3606423045	 0.082597
H	 1.8321156148	-1.8243502633	-0.0520746509	 0.097122
H	 0.6928151079	-2.9722694119	-0.7898269931	 0.10473
H	 2.606016871	-2.9741389428	-2.1864215529	 0.100913
H	 1.3478144596	-2.0648137097	-3.0630595847	 0.095457
H	 3.0183908551	-0.8733703333	-4.3058727253	 0.120773
H	 4.1429904428	 0.1349016618	-3.382404279	 0.140708
H	 6.2362554751	-3.5292513355	-3.6375323782	 0.203576
31.3563	45.5152	69.7034	96.9439	125.7927	226.6299	235.2944	245.0356	296.5153	332.0203	350.2109	435.2843	523.4085	614.1195	618.3294	683.4953	811.705	819.3711	871.2743	928.99	939.4084	1017.1609	1042.138	1055.283	1110.0972	1132.6996	1150.4602	1168.6386	1187.8997	1266.1306	1290.6773	1294.0302	1328.6009	1384.328	1394.3266	1408.6323	1425.5698	1432.5497	1474.1621	1476.5006	1482.9462	1500.549	1505.8268	1532.9835	2233.1051	2967.2765	2970.9809	2975.9749	2986.5971	3019.5517	3042.2512	3043.5008	3062.9237	3070.1063	3116.2717	3118.7956	3503.8626
CCOCCOCC#C	CCOCCOCC#C	
InChI=1S/C7H12O2/c1-3-5-9-7-6-8-4-2/h1H,4-7H2,2H3	InChI=1S/C7H12O2/c1-3-5-9-7-6-8-4-2/h1H,4-7H2,2H3
