18
gdb 11765	4.49714	1.66037	1.51417	0.7728	78.15	-0.2521	0.049	0.3011	896.4829	0.15565	-310.632209	-310.625375	-310.62443	-310.662794	28.134	
C	 0.0118365905	-1.1907099943	-0.0216472428	-0.360198
C	 0.0144758858	 0.0124709577	-0.0043163945	 0.063538
C	 0.01595031	 1.4526021978	 0.0154018798	 0.274649
C	-0.2872235646	 2.2731198789	 1.3160510332	-0.253278
C	 0.4316774729	 3.4064749046	 0.5329112857	-0.040395
C	 1.3390375118	 2.2901133068	-0.0545007316	-0.253271
C	-0.5484561885	 3.6683873816	-0.6268440151	-0.215765
C	-0.8683479042	 2.1910614479	-1.0246970948	-0.260207
H	 0.011060037	-2.2521391905	-0.0349691682	 0.177271
H	-1.3367690506	 2.4115485241	 1.5913427962	 0.093286
H	 0.2871746315	 1.9103503324	 2.1703788915	 0.105473
H	 0.8518610291	 4.2731887952	 1.0422303312	 0.063103
H	 2.0881248046	 1.929170453	 0.6526054764	 0.105471
H	 1.7863682921	 2.4441692407	-1.0407332185	 0.093286
H	-1.4376840188	 4.2167096913	-0.3029934289	 0.097952
H	-0.0854139807	 4.2308139786	-1.4426450091	 0.097953
H	-0.5718943053	 1.9478381588	-2.0480849893	 0.105567
H	-1.9241126026	 1.9337334354	-0.9084618212	 0.105567
152.4118	156.9875	303.0685	422.1826	466.931	516.1709	516.5314	543.3964	618.8566	629.2547	662.7354	829.5105	830.3722	839.0089	891.3634	903.4101	936.4662	973.8309	978.6304	999.2449	1002.7577	1085.1827	1112.404	1146.0682	1150.4031	1201.4664	1215.4921	1238.4117	1239.7657	1266.3315	1276.8838	1317.4346	1335.5294	1485.1779	1496.512	1502.1574	1531.9989	2232.9553	3052.3962	3054.645	3058.9274	3066.6533	3091.1675	3113.3105	3119.1804	3124.7553	3129.6979	3504.5885
C#CC12CC(C1)CC2	C#C[C@@]12C[C@@H](C1)CC2	
InChI=1S/C8H10/c1-2-8-4-3-7(5-8)6-8/h1,7H,3-6H2	InChI=1S/C8H10/c1-2-8-4-3-7(5-8)6-8/h1,7H,3-6H2/t7-,8+
