21
gdb 121567	6.48885	0.41459	0.40404	1.0359	88.22	-0.2498	0.0352	0.285	2767.0171	0.178569	-424.170272	-424.158792	-424.157848	-424.209378	37.997	
C	-0.4533010783	 1.4072901754	 0.4091512614	-0.386513
C	 0.0298299809	 0.0051930877	 0.0816034232	-0.016261
O	 0.72349306	-0.5020004183	 1.2052969162	-0.240518
C	 1.2147291396	-1.8099599285	 0.9906552448	-0.210363
C	 1.9112044516	-2.2919659115	 2.1746060752	 0.074613
C	 2.4840913178	-2.7189843055	 3.1422144856	 0.080847
C	 3.2018180049	-3.2110504568	 4.3087820358	-0.205048
O	 2.3739763518	-4.0679303051	 5.0713668552	-0.227426
C	 3.0339606781	-4.5602522852	 6.2139378445	-0.218201
H	 0.3931609908	 2.0594347421	 0.641632102	 0.128904
H	-0.9968988071	 1.8310389559	-0.4405407239	 0.114505
H	-1.1200287359	 1.3894751208	 1.275701858	 0.130258
H	-0.8219426114	-0.650809448	-0.1679943066	 0.086522
H	 0.6926340298	 0.0188257168	-0.8009608069	 0.08523
H	 0.3868690164	-2.4990239102	 0.7471434677	 0.118043
H	 1.8983374445	-1.8269328467	 0.1233644826	 0.113435
H	 4.1143320064	-3.7444839387	 3.9882618167	 0.113762
H	 3.5395802604	-2.3563376605	 4.9210576477	 0.118085
H	 2.3290954868	-5.2077856065	 6.7399672259	 0.131274
H	 3.928765176	-5.1471341575	 5.9506167957	 0.103838
H	 3.3448414468	-3.7481108497	 6.8907067692	 0.105015
25.6903	58.6127	61.4067	99.2653	104.7397	121.7469	227.8391	232.6705	242.4258	292.9438	310.0158	368.5612	418.1538	498.9439	561.5387	822.2402	830.8601	908.9495	978.2261	1021.086	1028.4628	1033.1722	1128.4193	1138.7091	1156.5034	1182.6358	1186.3262	1188.37	1221.0037	1250.8162	1261.1053	1295.1683	1378.2038	1405.1702	1412.0866	1448.4705	1477.3987	1482.7983	1484.2206	1493.6785	1494.4871	1500.9356	1515.7484	1531.448	2377.8836	2941.6176	2943.6942	2953.3587	2960.9349	2961.5887	2967.7642	2973.8208	3009.8323	3046.0982	3120.3132	3120.5998	3124.0516
CCOCC#CCOC	CCOCC#CCOC	
InChI=1S/C7H12O2/c1-3-9-7-5-4-6-8-2/h3,6-7H2,1-2H3	InChI=1S/C7H12O2/c1-3-9-7-5-4-6-8-2/h3,6-7H2,1-2H3
