19
gdb 110042	1.9966	1.72056	1.05844	0.5021	71.69	-0.234	-0.0341	0.1999	1161.753	0.158471	-460.178582	-460.169481	-460.168537	-460.212615	33.592	
C	-0.2649473978	 1.192708724	 0.067529978	-0.245816
O	 0.0741416395	-0.185469869	 0.0275785572	-0.272967
C	 0.8108836953	-0.5761806788	-1.1284902542	-0.024656
C	 1.3332863291	-1.9937518158	-0.8436333158	 0.122954
O	 1.8613131219	-2.1458742857	 0.4491122129	-0.441662
C	 0.1225057702	-2.9029377109	-1.1680744428	-0.24655
C	-0.5090964678	-2.2580928862	-2.4117921919	-0.326914
C	-0.186883544	-0.7663756315	-2.2921929286	 0.404557
O	-0.6561162063	 0.1251842522	-2.9533197144	-0.318195
H	 0.6390010394	 1.8185935233	 0.0673440365	 0.11553
H	-0.8914709244	 1.479164067	-0.7841707503	 0.144558
H	-0.8146683431	 1.3531777182	 0.9976095718	 0.130532
H	 1.5904990644	 0.1603933221	-1.3593262696	 0.083948
H	 2.145917123	-2.2107594798	-1.5485331708	 0.091402
H	 1.2932925539	-1.6166746472	 1.0247892973	 0.288697
H	 0.4192925041	-3.9434176106	-1.3135135858	 0.10837
H	-0.5740301444	-2.8665757584	-0.324243426	 0.115454
H	-0.0395715466	-2.6160178431	-3.3380548059	 0.135265
H	-1.5840587962	-2.4185026698	-2.5240525976	 0.135493
65.9788	116.1099	167.3375	170.4896	216.5766	248.3711	322.5821	389.0852	443.0141	466.1121	517.1189	533.4142	616.3543	658.3139	796.9475	830.8689	880.0566	933.0483	988.3539	1020.8451	1082.6817	1102.4317	1132.4201	1136.8703	1163.3582	1187.5867	1208.2853	1224.9264	1253.6481	1282.5471	1301.1689	1323.4854	1357.0262	1367.5755	1444.582	1451.0929	1477.6903	1483.7299	1494.4715	1513.9572	1838.5341	3001.052	3027.309	3031.5843	3040.0298	3060.6993	3077.4032	3104.1883	3117.7115	3127.6192	3763.9096
COC1C(O)CCC1=O	CO[C@H]1[C@@H](O)CCC1=O	
InChI=1S/C6H10O3/c1-9-6-4(7)2-3-5(6)8/h4,6-7H,2-3H2,1H3	InChI=1S/C6H10O3/c1-9-6-4(7)2-3-5(6)8/h4,6-7H,2-3H2,1H3/t4-,6-/m0/s1
