16
gdb 10947	4.88343	1.28626	1.19402	3.6649	65.98	-0.2452	-0.0214	0.2238	1010.994	0.129111	-383.712347	-383.704705	-383.703761	-383.744526	28.466	
O	-0.1407958086	 1.4440900066	 0.0094645085	-0.459389
C	-0.0807724473	 0.0643473983	 0.026268711	 0.41265
C	-0.327467228	-0.7774853653	-1.190757224	-0.347095
C	-1.2478090292	-0.9133315806	 0.0044687726	-0.120889
C	-0.56688502	-1.7905152442	 1.0732698316	-0.069089
C	 0.6140542677	-0.7458176782	 1.1236544285	-0.327991
C	-1.3200202373	-1.8515425624	 2.3744645983	 0.155782
O	-1.5722335863	-2.8606205779	 2.9810195161	-0.256924
H	 0.5608575392	 1.7751131876	-0.5617577426	 0.289069
H	-0.7661413601	-0.2330177283	-2.0211092616	 0.119508
H	 0.3399794011	-1.5882606289	-1.475546675	 0.109439
H	-2.3119982881	-0.7290549162	-0.0745705562	 0.10433
H	-0.3026243019	-2.8040841499	 0.761269821	 0.090022
H	 1.6158410282	-1.1335143806	 0.9150790895	 0.104085
H	 0.6300083052	-0.2028551408	 2.0729785989	 0.119805
H	-1.6387665548	-0.8531456593	 2.7590528137	 0.076688
80.6625	100.0859	233.2388	296.2389	341.8995	385.0452	398.8416	404.6766	478.8749	643.0321	750.9937	841.7871	853.1609	877.4933	928.0496	964.6486	1005.4086	1018.2756	1026.2366	1071.5601	1082.7572	1114.6059	1170.7163	1220.2176	1224.8476	1244.5557	1278.0896	1284.0462	1329.8986	1403.5292	1431.8388	1474.9232	1502.8115	1831.6333	2848.8073	3048.0033	3081.9587	3102.4589	3105.4033	3191.2783	3203.5529	3797.0206
OC12CC1C(C2)C=O	O[C@]12C[C@H]1[C@@H](C2)C=O	
InChI=1S/C6H8O2/c7-3-4-1-6(8)2-5(4)6/h3-5,8H,1-2H2	InChI=1S/C6H8O2/c7-3-4-1-6(8)2-5(4)6/h3-5,8H,1-2H2/t4-,5-,6+/m0/s1
