17
gdb 80345	2.1979	1.55304	1.39818	5.1106	72.67	-0.2345	0.0278	0.2623	1029.3167	0.136288	-417.980618	-417.972024	-417.97108	-418.013458	32.664	
N	 0.2633567557	 1.3904321016	-0.1010577909	-0.599343
C	 0.0009505253	 0.0005260822	-0.0155670001	 0.259461
C	-0.3501953723	-0.8490125745	-1.1946646992	 0.077043
O	 0.359271472	-1.9822524768	-1.5930812094	-0.418558
C	-1.2689151903	-0.9267672549	-0.0120247182	-0.160198
C	-0.6310505659	-1.8137389321	 1.0568960509	-0.245966
C	 0.6161194194	-0.8588579864	 1.1031451146	-0.169714
C	 1.9465910215	-1.4045092352	 0.8546715225	 0.270763
N	 3.0026581359	-1.8205683666	 0.6314603993	-0.345929
H	-0.0084376763	 1.7812827877	-0.994821028	 0.238636
H	-0.1944673524	 1.9208551409	 0.6328776451	 0.237258
H	-0.7594490382	-0.2637836993	-2.0220999257	 0.087774
H	 1.2808943782	-1.7446116374	-1.7444049483	 0.303642
H	-2.3221369765	-0.6839911465	-0.0830382664	 0.094595
H	-1.1682910398	-1.8200314414	 2.0059166966	 0.112329
H	-0.4144507038	-2.8366259455	 0.7469169826	 0.136219
H	 0.6373669977	-0.3027351459	 2.0441712745	 0.121988
111.147	130.8662	212.8794	237.2044	270.6042	278.6771	306.6289	354.6569	470.4374	510.3843	539.1692	607.115	659.1349	749.3184	801.1336	805.3489	821.7205	906.323	954.0267	1007.8408	1028.8742	1048.8765	1070.4369	1087.7973	1146.5987	1177.4329	1205.3781	1262.7041	1273.2283	1310.3991	1320.0365	1348.1077	1354.9993	1466.6853	1497.816	1655.3373	2346.5006	3074.3048	3076.165	3087.2663	3143.9514	3190.1684	3509.2246	3599.4411	3807.1855
NC12C(O)C1CC2C#N	N[C@]12[C@@H](O)[C@H]1C[C@H]2C#N	
InChI=1S/C6H8N2O/c7-2-3-1-4-5(9)6(3,4)8/h3-5,9H,1,8H2	InChI=1S/C6H8N2O/c7-2-3-1-4-5(9)6(3,4)8/h3-5,9H,1,8H2/t3-,4+,5-,6-/m0/s1
