21
gdb 89422	2.57568	1.51421	1.26432	1.0984	84.21	-0.229	0.0083	0.2373	1107.5512	0.183535	-387.096215	-387.087678	-387.086734	-387.128628	34.255	
C	 0.0343644756	 1.5434293402	 0.0023692073	-0.466776
C	-0.0271182586	 0.0297191827	 0.0506059079	 0.337097
C	-0.8326336548	-0.6050668808	 1.1455352287	-0.320767
C	 0.6960433015	-0.677861866	 1.1883907407	-0.110512
C	 1.3725699179	-1.9560460663	 0.8887322049	-0.029795
C	 1.1726664253	-2.6422873563	-0.2402513875	-0.14019
C	 0.2199483382	-2.1663449299	-1.3062339004	 0.056888
O	-1.0972375907	-2.7291109404	-1.1423693003	-0.429556
C	 0.0630674264	-0.6394637976	-1.3138987459	-0.266639
H	 0.9532799994	 1.8907643041	-0.4846606531	 0.113215
H	-0.8139886608	 1.9530771302	-0.5591099298	 0.116665
H	 0.0045093423	 1.9748638678	 1.0079956563	 0.110943
H	-1.3141757934	 0.0511808922	 1.8638521303	 0.100822
H	-1.3605690754	-1.5241300034	 0.9257530482	 0.132219
H	 1.1788743695	-0.0538213632	 1.9342549031	 0.076589
H	 2.0647812112	-2.3358331662	 1.6367646695	 0.089505
H	 1.6892034484	-3.5835505657	-0.4102648444	 0.082097
H	 0.602665615	-2.4709990856	-2.2925049924	 0.066498
H	-0.9876002508	-3.6514540114	-0.8883319165	 0.27675
H	-0.8233253621	-0.3979306183	-1.9124365252	 0.109385
H	 0.927727836	-0.2201740761	-1.8442750314	 0.095562
145.893	156.2608	221.6932	246.5844	281.9696	308.9494	355.5957	368.7831	423.5784	460.9274	585.7193	609.0194	674.6804	750.6945	800.0469	819.67	868.0857	888.2342	925.1168	949.4998	965.6435	987.741	1011.518	1052.2475	1054.7509	1073.3508	1099.0725	1118.4973	1127.6884	1198.3789	1229.0989	1257.2661	1261.4527	1325.5565	1358.7886	1369.2205	1414.9729	1416.0037	1419.0541	1437.9018	1469.7128	1485.2001	1490.8471	1505.0309	1702.1755	2972.0692	3017.7644	3025.1678	3063.56	3078.699	3095.3546	3131.0962	3139.5959	3151.3858	3167.5358	3236.5465	3811.7257
CC12CC1C=CC(O)C2	C[C@]12C[C@H]1C=C[C@@H](O)C2	
InChI=1S/C8H12O/c1-8-4-6(8)2-3-7(9)5-8/h2-3,6-7,9H,4-5H2,1H3	InChI=1S/C8H12O/c1-8-4-6(8)2-3-7(9)5-8/h2-3,6-7,9H,4-5H2,1H3/t6-,7-,8-/m1/s1
