16
gdb 87346	1.88149	1.50734	0.97405	3.4982	74.44	-0.2527	0.0051	0.2578	1219.2197	0.120663	-437.817194	-437.807778	-437.806833	-437.851859	34.082	
O	-0.0971348931	 1.3601596252	 0.0104772704	-0.426014
C	-0.0441976499	-0.018733817	 0.1100750706	 0.104556
C	-0.6493263277	-0.7435486402	 1.2834865532	-0.373559
C	-1.3219330828	-0.8186734067	-0.0873786325	 0.124962
O	-2.4260296017	 0.045480919	-0.2829370299	-0.240242
C	-3.6218915786	-0.3601439294	 0.2228809483	 0.116481
N	-4.6053023489	 0.4226965365	 0.1655040862	-0.431868
C	-1.3406471698	-2.0382230879	-0.8394388413	 0.320891
C	-1.3533248389	-3.0682418005	-1.4605048606	-0.452088
H	-1.0211296982	 1.607308057	-0.1313304957	 0.307347
H	 0.8583436128	-0.4309403212	-0.3288503957	 0.124683
H	-0.169489242	-1.640976562	 1.6565134604	 0.133831
H	-1.1596487649	-0.1355799888	 2.022858017	 0.135732
H	-3.5954106235	-1.3752445928	 0.6328550969	 0.11281
H	-5.4301837098	-0.0199607343	 0.5652766276	 0.237035
H	-1.3620850731	-3.9712189968	-2.0198074049	 0.205445
64.1856	92.9322	139.2575	149.6466	161.001	291.6129	317.6555	370.9568	430.2748	484.2364	499.5547	550.0173	585.6552	627.2561	690.7314	760.7906	824.7861	832.5977	893.9579	956.5751	1001.1837	1039.3761	1044.2691	1084.5679	1105.2239	1151.2924	1241.9893	1262.2363	1276.8895	1355.327	1413.0085	1424.3973	1464.8513	1748.1872	2232.7837	3070.9025	3136.9336	3172.1025	3236.3148	3499.8117	3520.805	3758.7395
OC1CC1(OC=N)C#C	O[C@H]1C[C@]1(O[CH][NH])C#C	
InChI=1S/C6H7NO2/c1-2-6(9-4-7)3-5(6)8/h1,4-5,7-8H,3H2	InChI=1S/C6H7NO2/c1-2-6(9-4-7)3-5(6)8/h1,4-5,7-8H,3H2/t5-,6+/m0/s1
