24
gdb 8710	2.15753	1.66484	1.34397	1.0471	81.22	-0.2455	0.0777	0.3232	1139.7971	0.220584	-351.408853	-351.398121	-351.397176	-351.443925	39.293	
C	-0.143425576	 1.5582769214	-0.0596393382	-0.39237
C	 0.0660309032	 0.0408934028	-0.0696759414	-0.201501
C	 0.7481351747	-0.5436131982	 1.1920572133	 0.374337
C	 0.8064828259	-2.0758629369	 1.0693213612	-0.43662
C	 2.1603729083	 0.0504131796	 1.3719257527	-0.184606
C	 2.945906924	-0.4931653559	 2.5696315783	-0.393984
O	 0.0516979657	-0.1373547181	 2.3833244832	-0.276173
C	-1.249658285	-0.6353509744	 2.5911505324	-0.243245
H	 0.8026543411	 2.103886093	-0.1189258406	 0.117522
H	-0.7528979387	 1.8675073646	-0.9144063921	 0.106204
H	-0.6518860522	 1.8744396684	 0.8553578077	 0.12809
H	-0.9032346307	-0.4549784856	-0.2018819649	 0.090275
H	 0.6641657844	-0.2507638492	-0.9417308339	 0.093005
H	 1.510192551	-2.3631545307	 0.2817817391	 0.114461
H	 1.1355240301	-2.5348219855	 2.0050667987	 0.123044
H	-0.1672942763	-2.4992865362	 0.8061586181	 0.110957
H	 2.7240107116	-0.1146157295	 0.4453762997	 0.086557
H	 2.0517586935	 1.1330766558	 1.4874755159	 0.103921
H	 2.3595491545	-0.3934430026	 3.4863515749	 0.131196
H	 3.2099611213	-1.5480611831	 2.4466568396	 0.110041
H	 3.8792663899	 0.0636906487	 2.6983728156	 0.105942
H	-1.9477056302	-0.3574072801	 1.788537245	 0.103729
H	-1.2735136134	-1.7278325559	 2.7057749177	 0.10546
H	-1.6062603068	-0.1864841222	 3.5224296782	 0.123757
74.982	101.4379	114.1801	176.0466	200.175	213.1269	245.2649	271.6764	301.3119	305.5177	363.722	375.4192	420.3941	502.8903	556.6697	693.6345	773.8777	778.9291	871.1595	891.9115	975.8034	1006.782	1008.6319	1042.3473	1080.1291	1087.8118	1126.0738	1182.1913	1190.096	1195.9465	1215.857	1251.5814	1312.5675	1328.2979	1374.4945	1376.8488	1401.2221	1405.0736	1411.2291	1471.4572	1473.4014	1481.0277	1487.7851	1499.6662	1499.9613	1505.5008	1508.6839	1510.9925	1514.7722	1517.068	2989.8276	3025.8712	3032.744	3039.628	3041.9047	3043.8762	3045.6631	3056.709	3079.8503	3101.6105	3104.2432	3107.4432	3108.7903	3120.9319	3122.6177	3127.7359
CCC(C)(CC)OC	CCC(C)(CC)OC	
InChI=1S/C7H16O/c1-5-7(3,6-2)8-4/h5-6H2,1-4H3	InChI=1S/C7H16O/c1-5-7(3,6-2)8-4/h5-6H2,1-4H3
