21
gdb 76183	1.96575	1.47509	1.24211	2.1539	80.93	-0.2419	-0.0206	0.2213	1172.2565	0.178613	-424.231068	-424.2205	-424.219555	-424.26565	39.102	
C	-0.0827262053	 1.4612268083	-0.0165616416	-0.445376
C	 0.0408942761	-0.0529079837	 0.0064005484	 0.235305
C	-1.1674424151	-0.7591515289	-0.5819585353	-0.469292
C	 1.3819844758	-0.6567565119	-0.1755622215	 0.038553
O	 2.4517607887	 0.1887009545	-0.4496375782	-0.414768
C	 0.7701415858	-0.6714593034	 1.2502419109	 0.132169
C	 1.3333741527	 0.2568263434	 2.3126274869	-0.495961
C	 0.369174938	-2.0120731668	 1.7381651126	 0.089192
O	 0.07078941	-2.9662614114	 1.0518969969	-0.285337
H	 0.836096554	 1.9662220827	 0.2784050475	 0.135793
H	-0.3262718518	 1.7877012842	-1.0333907392	 0.123369
H	-0.8951595264	 1.7935667503	 0.6387893751	 0.116581
H	-1.2963094062	-0.4510456313	-1.6258217251	 0.11503
H	-1.0676852412	-1.8434950881	-0.5473273716	 0.159045
H	-2.0786535202	-0.4816691307	-0.0398862558	 0.11266
H	 1.4241288218	-1.6409115453	-0.6410649521	 0.111716
H	 3.2658711077	-0.2684053968	-0.2128567073	 0.294326
H	 2.1294491533	 0.8835901718	 1.904886379	 0.134804
H	 0.5714168392	 0.9158609387	 2.7410804065	 0.12578
H	 1.7629679149	-0.3253930869	 3.1350871413	 0.116391
H	 0.3887048683	-2.1109599788	 2.8478646327	 0.07002
121.8445	142.5138	157.1702	182.0571	203.224	227.3432	236.949	249.6054	290.2707	322.8065	339.3884	381.72	415.8282	517.6682	550.2368	604.6624	670.1565	720.124	817.9779	949.8538	975.7873	1002.8531	1010.6239	1020.8164	1073.0283	1098.5176	1142.5255	1153.698	1187.5879	1204.3438	1258.855	1300.9792	1334.9865	1405.9399	1412.2784	1421.8518	1440.4139	1471.0571	1480.8476	1488.1469	1493.42	1509.5573	1513.5603	1522.23	1782.9107	2862.9483	3030.461	3034.6252	3039.3754	3085.4678	3090.9154	3093.1241	3115.2871	3121.4172	3155.6044	3157.2888	3807.4677
CC1(C)C(O)C1(C)C=O	CC1(C)[C@@H](O)[C@]1(C)C=O	
InChI=1S/C7H12O2/c1-6(2)5(9)7(6,3)4-8/h4-5,9H,1-3H3	InChI=1S/C7H12O2/c1-6(2)5(9)7(6,3)4-8/h4-5,9H,1-3H3/t5-,7+/m1/s1
