19
gdb 38414	3.68007	1.35103	1.23812	1.7661	79.09	-0.2393	0.0248	0.2641	1063.7214	0.160257	-385.860261	-385.852964	-385.85202	-385.891936	29.533	
C	 0.2459324825	 1.713804935	-0.0264740087	-0.344308
C	 1.7102709234	 1.2645318139	-0.1027744797	 0.039202
O	 1.9720767086	 0.4619589471	 1.0579012059	-0.252757
C	 1.329143591	-0.153349101	-0.0616267097	-0.021128
C	-0.1761763351	 0.1995101492	 0.0133345443	 0.346208
C	-0.9158602537	-0.367979462	 1.2437679103	-0.327654
C	-1.651435783	-1.5597519334	 0.6782707829	-0.058677
C	-1.6750903272	-1.5412831586	-0.6539257595	-0.066227
C	-0.9646639073	-0.3278673552	-1.2085437715	-0.336052
H	-0.0074230011	 2.320473354	 0.8470078481	 0.106577
H	-0.099636793	 2.2163962548	-0.9341171985	 0.103826
H	 2.5591225467	 1.7596715389	-0.5596887292	 0.102045
H	 1.7957987512	-1.0371789649	-0.484125284	 0.098421
H	-0.2186319723	-0.6105564174	 2.0522911177	 0.119814
H	-1.6242729131	 0.3648331116	 1.6582057675	 0.103063
H	-2.1256684112	-2.3082937918	 1.3034802955	 0.091384
H	-2.1722029939	-2.2684461937	-1.286314338	 0.090579
H	-1.6891297424	 0.4168201146	-1.5699127317	 0.105792
H	-0.3094731902	-0.5532168512	-2.0598884517	 0.099892
99.6429	156.4226	230.9305	339.3933	384.209	413.8063	454.4311	548.2005	683.554	755.478	787.5149	798.3458	838.057	860.7919	866.5275	903.1414	940.8241	954.1054	974.4901	976.6565	984.9349	1001.9058	1047.8444	1075.8985	1104.2865	1120.6485	1136.9899	1158.9834	1214.5012	1220.8308	1234.552	1250.5228	1287.5988	1293.2521	1341.3575	1365.8281	1385.9212	1471.283	1483.0335	1492.4777	1683.8893	2997.3524	2998.6114	3036.1057	3055.8795	3071.0212	3112.6919	3169.8641	3181.7857	3190.9605	3207.2114
C1C2OC2C11CC=CC1	C1[C@H]2O[C@H]2[C@]21CC=CC2	
InChI=1S/C8H10O/c1-2-4-8(3-1)5-6-7(8)9-6/h1-2,6-7H,3-5H2	InChI=1S/C8H10O/c1-2-4-8(3-1)5-6-7(8)9-6/h1-2,6-7H,3-5H2/t6-,7-/m1/s1
