16
gdb 26532	2.3978	1.84965	1.05249	7.1098	76.68	-0.2003	-0.0136	0.1867	1082.7966	0.126403	-434.135098	-434.126913	-434.125969	-434.167678	30.964	
C	 0.0811368008	 1.5570766684	 0.0254401745	-0.513556
C	-0.0124764942	 0.0621668737	 0.0033704243	 0.273105
C	-1.1694434677	-0.6504079298	 0.0626567106	 0.118143
N	-2.434356033	-0.0977968244	 0.1841255998	-0.589398
C	-1.1335096463	-2.1322691132	 0.0619280423	 0.364703
O	-2.179782211	-2.7639621471	 0.127087297	-0.391867
N	 0.1110464406	-2.7525679854	-0.021958567	-0.326367
C	 1.1692973528	-2.0126954041	-0.0906907537	 0.083907
N	 1.171688476	-0.659993853	-0.0840635183	-0.34601
H	 1.0045702173	 1.8916071571	 0.511143529	 0.128517
H	 0.0616419024	 1.9943271976	-0.9813888246	 0.141884
H	-0.7589113689	 1.9735060863	 0.5879222641	 0.155919
H	-2.6293621731	 0.7196917547	-0.3739538001	 0.244083
H	-3.1302777661	-0.8304587761	 0.0837857162	 0.265608
H	 2.1513997768	-2.4763999366	-0.1637875148	 0.12871
H	 2.0472267137	-0.1635582881	-0.1358498993	 0.262621
108.0912	127.0447	187.2618	276.0932	308.3969	346.1707	370.7184	476.0424	500.2084	535.7335	544.786	570.377	602.819	704.9914	724.4186	818.9644	876.0996	942.3542	958.4775	1019.8522	1056.5827	1134.0833	1207.3199	1231.2248	1295.7022	1367.2594	1420.4448	1426.0566	1481.8042	1495.7476	1542.7702	1607.7741	1633.9692	1698.4452	1739.0442	3018.1928	3074.4621	3115.1375	3148.5724	3512.4511	3634.7376	3643.8026
CC1=C(N)C(=O)N=CN1	Cc1c(N)c(=O)nc[nH]1	
InChI=1S/C5H7N3O/c1-3-4(6)5(9)8-2-7-3/h2H,6H2,1H3,(H,7,8,9)	InChI=1S/C5H7N3O/c1-3-4(6)5(9)8-2-7-3/h2H,6H2,1H3,(H,7,8,9)
