19
gdb 65287	2.57579	1.37227	1.11518	3.1721	81.01	-0.2598	0.016	0.2758	1165.3601	0.158997	-382.057145	-382.048213	-382.047269	-382.09079	33.406	
C	-0.1294813479	 1.5299906568	 0.1208099353	-0.455893
C	-0.0374461548	 0.0180229961	 0.1005371171	 0.090169
N	 1.2693056543	-0.5503708974	-0.322785878	-0.410313
C	 0.8389480444	-0.7500608502	 1.048941248	 0.33753
C	 1.5461072405	-0.2088159571	 2.2966941055	-0.291622
C	 0.8977905714	-1.3742430524	 3.1026639998	-0.20973
C	 0.4851945599	-2.0587971139	 1.7645747837	-0.315665
C	-1.2290655634	-0.667585118	-0.3476008228	 0.251592
N	-2.182563129	-1.2189911776	-0.7035236809	-0.351989
H	 0.822466088	 1.9490055295	 0.451835984	 0.140544
H	-0.3437006292	 1.9154129507	-0.8801747979	 0.141405
H	-0.9224966976	 1.865423239	 0.7959359526	 0.133751
H	 1.1330182138	-1.3972218353	-0.8721266129	 0.245754
H	 2.632493853	-0.298647834	 2.2097336777	 0.118717
H	 1.3029490565	 0.8094470141	 2.608000533	 0.108961
H	 1.5637170479	-1.9432363816	 3.7528223568	 0.108972
H	 0.0334955986	-1.0488152246	 3.6853208138	 0.1146
H	-0.5439196786	-2.4125683997	 1.6694932671	 0.130906
H	 1.1632945924	-2.8706333843	 1.482711558	 0.112311
82.2866	125.0823	143.4309	175.8817	220.5083	238.8994	369.4635	391.6516	438.0538	521.0538	585.3752	613.3076	652.8166	719.2198	780.2655	809.4791	879.9285	927.9894	933.4988	967.3779	997.2515	1040.0734	1079.9964	1098.436	1128.6045	1140.5418	1191.9781	1223.9914	1248.9577	1249.5197	1272.2456	1277.4639	1313.1424	1412.3864	1425.687	1468.9045	1479.2377	1483.9174	1493.6084	1504.3699	2341.7715	3047.4448	3053.1218	3063.1693	3077.4832	3107.9324	3113.7871	3116.0683	3135.5584	3140.6831	3488.5848
CC1(NC11CCC1)C#N	C[C@]1(NC21CCC2)C#N	
InChI=1S/C7H10N2/c1-6(5-8)7(9-6)3-2-4-7/h9H,2-4H2,1H3	InChI=1S/C7H10N2/c1-6(5-8)7(9-6)3-2-4-7/h9H,2-4H2,1H3/t6-/m0/s1
