19
gdb 107521	2.10382	1.61153	1.11789	0.488	81.64	-0.241	0.0459	0.2869	1155.9607	0.157331	-385.814253	-385.805181	-385.804236	-385.84812	34.135	
C	 0.0297705916	 1.3337836411	 0.2842963795	-0.260005
O	-0.0177046195	 0.016061444	-0.2472323549	-0.283482
C	-1.2491457489	-0.5798353032	-0.126013447	 0.451271
C	-1.7652067321	-1.137592045	 1.169317708	-0.345566
C	-1.5591545338	-2.0589152987	-0.0175632165	-0.142985
C	-2.7345594773	-1.9126968326	-0.9878920308	-0.242972
C	-2.3960908492	-0.3784269095	-1.1493457463	-0.247525
C	-3.4258313233	 0.6019011114	-0.8621339384	 0.322136
C	-4.2840025522	 1.4040421123	-0.6004340015	-0.473251
H	 1.0511125438	 1.6944529518	 0.1450382288	 0.126258
H	-0.664297363	 2.0048952587	-0.2381026094	 0.125045
H	-0.216628649	 1.339851795	 1.3545654562	 0.113949
H	-1.0050223379	-1.2232950326	 1.9390530017	 0.117078
H	-2.7649368563	-0.9112188554	 1.5320750952	 0.116119
H	-0.8735705435	-2.8954186785	 0.0249863401	 0.09846
H	-2.6106630302	-2.4560342665	-1.926205364	 0.11189
H	-3.7230731026	-2.1282261561	-0.574016479	 0.108685
H	-1.9647539302	-0.2003408663	-2.1389578818	 0.110611
H	-5.0397363562	 2.1159695301	-0.3783344799	 0.194283
80.0191	97.9952	135.0498	172.9281	223.0334	293.9316	362.4595	387.6732	439.1361	513.4257	539.8685	618.4082	622.8773	658.056	716.0688	803.4484	859.7579	904.2121	947.4347	987.6709	1013.0971	1021.0427	1054.913	1060.7892	1084.7356	1087.8551	1157.015	1181.4568	1190.7654	1205.7227	1229.2968	1258.5156	1284.6047	1334.4726	1385.6703	1472.1737	1485.0428	1489.1464	1504.7787	1509.6947	2226.9594	3002.3335	3060.4334	3062.9253	3065.3885	3111.1002	3123.3045	3125.0464	3196.2752	3208.7859	3503.3441
COC12CC1CC2C#C	CO[C@]12C[C@H]1C[C@H]2C#C	
InChI=1S/C8H10O/c1-3-6-4-7-5-8(6,7)9-2/h1,6-7H,4-5H2,2H3	InChI=1S/C8H10O/c1-3-6-4-7-5-8(6,7)9-2/h1,6-7H,4-5H2,2H3/t6-,7-,8+/m1/s1
