16
gdb 124410	3.2538	1.19925	1.1022	0.4526	76.45	-0.2615	-0.0051	0.2564	1152.4983	0.124705	-396.897548	-396.889238	-396.888293	-396.931382	30.168	
C	-0.0270661114	 1.5579265602	 0.040480861	-0.391615
C	-0.0337988686	 0.0217402011	 0.054735925	-0.124895
C	 0.7163268473	-0.5199974472	 1.1882607044	 0.362238
C	 1.3570129877	-0.9399911239	 2.1124988719	-0.471443
N	-1.4095460116	-0.4908890774	 0.0355376856	 0.150862
N	-2.3111517755	-0.1515027045	 0.9473503603	-0.221097
C	-3.396678306	-0.8357133584	 0.5810390276	-0.051894
C	-3.090649426	-1.5783461521	-0.5669134089	-0.066235
N	-1.8181584542	-1.3455309389	-0.896124858	-0.217264
H	 1.0041098057	 1.9176660662	 0.0214826984	 0.134966
H	-0.5509366094	 1.9248996993	-0.8458722486	 0.130849
H	-0.5217557276	 1.94361375	 0.9332787324	 0.158093
H	 0.3967986084	-0.3595244397	-0.8755886575	 0.146667
H	 1.9157361564	-1.3221772995	 2.9309976659	 0.20693
H	-4.314853927	-0.7608754574	 1.1413748474	 0.12648
H	-3.7026813381	-2.2439540777	-1.154016747	 0.127358
35.4645	97.8972	187.5385	192.1137	233.6005	316.4445	395.2223	471.5264	552.4481	632.1169	671.7288	681.0337	698.5831	740.1824	847.3804	874.281	895.9813	980.6147	986.8877	1016.6858	1094.9666	1100.2205	1121.0015	1189.6306	1268.7368	1296.7274	1326.5672	1371.076	1400.4551	1405.5694	1445.9103	1485.4116	1497.5351	1505.5666	2245.9006	3056.9668	3081.6899	3135.5065	3152.8941	3264.1519	3281.646	3503.4864
CC(C#C)N1N=CC=N1	C[C@@H](C#C)n1nccn1	
InChI=1S/C6H7N3/c1-3-6(2)9-7-4-5-8-9/h1,4-6H,2H3	InChI=1S/C6H7N3/c1-3-6(2)9-7-4-5-8-9/h1,4-6H,2H3/t6-/m0/s1
