14
gdb 42499	6.47473	0.63205	0.58002	6.7068	71.34	-0.2815	-0.0721	0.2094	1757.0953	0.096987	-436.646499	-436.636942	-436.635998	-436.682531	31.811	
O	-0.0462667855	-0.123202876	-0.0000283922	-0.24551
C	-0.0142544358	 1.081517613	 0.0045725385	 0.232201
C	 1.2771950253	 1.8932255173	-0.0027763815	-0.167464
O	 2.3769723469	 1.0272075345	-0.0156177872	-0.218166
C	 3.6025265388	 1.7190030647	-0.0227270322	-0.184335
C	 4.7028183761	 0.7513264268	-0.0361553467	 0.271861
N	 5.5987920867	 0.023903438	-0.0468240352	-0.285195
C	-1.2116993773	 1.9055861025	 0.0179475975	 0.245873
C	-2.1940084692	 2.6007804537	 0.0292749965	-0.419546
H	 1.2614819671	 2.5577569952	-0.8847144708	 0.128699
H	 1.2762145766	 2.5502312293	 0.8849320361	 0.128699
H	 3.6959450741	 2.3692228	-0.9078429942	 0.144648
H	 3.7106721651	 2.3613559129	 0.8664470017	 0.144651
H	-3.0726851789	 3.1997984881	 0.0402790496	 0.223584
35.6549	80.8199	84.3396	118.1871	147.5199	248.6143	251.1703	333.4938	384.8051	441.4173	583.3545	592.3827	607.0503	668.779	714.2559	846.3029	966.8224	1004.9737	1035.6962	1042.0512	1113.2643	1189.1605	1245.2191	1260.5408	1375.865	1429.5374	1476.9074	1504.7772	1798.6405	2214.3234	2377.1633	2952.4485	2974.4843	2979.3536	3000.7587	3492.0546
O=C(COCC#N)C#C	O=C(COCC#N)C#C	
InChI=1S/C6H5NO2/c1-2-6(8)5-9-4-3-7/h1H,4-5H2	InChI=1S/C6H5NO2/c1-2-6(8)5-9-4-3-7/h1H,4-5H2
