18
gdb 77285	2.74006	1.02423	0.936	2.7207	75.6	-0.2436	-0.0495	0.1941	1310.4007	0.144435	-439.063167	-439.053585	-439.05264	-439.098337	33.532	
C	-1.8933570782	 0.4941660709	-0.5274794134	-0.336589
N	-0.7568578417	-0.4238620602	-0.4825872382	-0.092092
C	 0.3920691878	-0.2830773573	-1.3393615762	-0.02369
C	 0.5875362479	 0.8182544117	-2.3674044403	-0.320787
C	-0.1793137583	 0.5391359554	-3.6463545717	 0.162662
O	 0.3100416929	 0.5383343314	-4.7453314733	-0.233978
C	 0.5074928583	-0.0335536632	 0.1603532564	-0.128337
C	 0.782212625	 1.33185656	 0.6768135477	 0.152579
O	 0.3268055437	 2.3696798862	 0.2462738003	-0.276092
H	-1.6389185451	 1.5470717501	-0.6795954389	 0.148346
H	-2.563030395	 0.1570357926	-1.3243954566	 0.13078
H	-2.4323392988	 0.4077797985	 0.4205080427	 0.132597
H	 0.7983249834	-1.2436754836	-1.6580301089	 0.116445
H	 0.2533219042	 1.7797280623	-1.9631619514	 0.162612
H	 1.6478581961	 0.9084351896	-2.6219986197	 0.129003
H	-1.2649937679	 0.3353447016	-3.5034664728	 0.080934
H	 0.9525957902	-0.8192434432	 0.7682609345	 0.104539
H	 1.4756590153	 1.340179207	 1.5461671597	 0.091067
54.2686	82.075	136.168	168.2036	193.5385	213.5078	245.5986	269.8817	367.4028	422.0422	484.0762	531.9634	697.7733	759.6363	808.5781	840.892	856.6001	974.1945	1007.5057	1039.7565	1063.7278	1086.5798	1128.9986	1151.932	1164.9831	1177.2647	1228.9787	1291.8052	1348.2018	1384.3474	1410.1807	1428.2539	1431.9651	1450.0485	1464.4408	1485.1239	1516.1437	1786.9506	1835.9656	2874.5023	2892.7559	3035.8014	3053.6406	3094.6803	3108.6095	3111.3272	3113.2035	3125.4407
CN1C(CC=O)C1C=O	CN1[C@@H](CC=O)[C@H]1C=O	
InChI=1S/C6H9NO2/c1-7-5(2-3-8)6(7)4-9/h3-6H,2H2,1H3	InChI=1S/C6H9NO2/c1-7-5(2-3-8)6(7)4-9/h3-6H,2H2,1H3/t5-,6+,7?/m0/s1
