21
gdb 94465	3.00975	1.24956	1.09451	1.7025	77.47	-0.2454	0.0677	0.3131	1195.9993	0.183284	-424.212776	-424.204099	-424.203155	-424.247412	32.383	
C	-0.2287429828	 1.4710289347	-0.2326214197	-0.406207
C	 0.1489970507	 0.0059274765	-0.1299490854	 0.10135
O	 1.4129572005	-0.2778423537	-0.7756432182	-0.293928
C	 1.9908671617	-0.7635742408	 0.4493216695	-0.119915
C	 0.6644919678	-0.5714295967	 1.2202660491	 0.275065
C	 0.6987572082	 0.2822619295	 2.5104017495	-0.332098
C	 0.1485838861	-0.666274083	 3.60066532	-0.075577
O	 0.2710437753	-1.9785319854	 3.0710045853	-0.241412
C	-0.0345218071	-1.8563948904	 1.6953607199	-0.154007
H	 0.5414111566	 2.1134825831	 0.2040950918	 0.121585
H	-0.3443232284	 1.7458613572	-1.2857651291	 0.128971
H	-1.1802551813	 1.6671403426	 0.2742129743	 0.114455
H	-0.6498131816	-0.610187082	-0.5705679562	 0.069758
H	 2.3491037595	-1.7975320744	 0.3606094926	 0.100788
H	 2.8217435821	-0.129141746	 0.7864136944	 0.095006
H	 1.7225878992	 0.592276088	 2.7371181096	 0.111167
H	 0.0962874208	 1.1901668393	 2.427346411	 0.108474
H	 0.7030282244	-0.6285442105	 4.5413808155	 0.110827
H	-0.9086543704	-0.4389551203	 3.8139530562	 0.08924
H	-1.1255331374	-1.7627871999	 1.543436762	 0.082599
H	 0.306627216	-2.760598328	 1.1843379979	 0.113859
26.6916	58.913	189.6816	227.7649	248.9454	295.893	356.458	398.0555	462.6976	496.0929	665.4077	736.793	791.7376	836.6807	885.0368	928.5018	935.4369	974.2513	980.606	986.232	1025.357	1061.2845	1075.7931	1096.2097	1122.3171	1157.8498	1164.3404	1186.6716	1216.4458	1246.0023	1251.3508	1279.1905	1293.2404	1319.5856	1358.6815	1367.1646	1386.6592	1401.6542	1407.3816	1482.6564	1489.592	1494.8897	1502.4316	1520.6582	1528.7548	2935.3586	2970.9347	2979.7438	2999.5276	3033.2216	3041.3194	3060.4986	3091.1653	3094.8214	3103.6343	3108.7123	3115.4625
CC1OCC11CCOC1	C[C@H]1OC[C@]21CCOC2	
InChI=1S/C7H12O2/c1-6-7(5-9-6)2-3-8-4-7/h6H,2-5H2,1H3	InChI=1S/C7H12O2/c1-6-7(5-9-6)2-3-8-4-7/h6H,2-5H2,1H3/t6-,7+/m1/s1
