21
gdb 106147	2.4051	1.50731	1.18591	1.9997	82.42	-0.2199	0.0807	0.3006	1167.6699	0.181662	-387.034648	-387.025802	-387.024858	-387.068153	33.859	
C	-0.3286332537	 1.4556778368	-0.0016261834	-0.369075
C	 0.0914641988	-0.0198899078	 0.0533800012	-0.339355
C	 0.8092417815	-0.4796184453	-1.1762575021	 0.271448
C	 0.4171459609	-0.7389533595	-2.5952418767	-0.002129
O	 1.4181033465	 0.0905204986	-3.1836784065	-0.298045
C	 2.1357759163	-0.0390027036	-1.9238891376	 0.018443
C	 2.600822958	-1.51526815	-1.9170109579	-0.28372
C	 1.1146380471	-1.8556642025	-1.7860875926	 0.219996
C	 0.4830614579	-3.1837078737	-1.4946802023	-0.50867
H	 0.5423922277	 2.1090681387	-0.1153572908	 0.120046
H	-0.9947470293	 1.6417026991	-0.8496997961	 0.12357
H	-0.8508505069	 1.7495360006	 0.914109478	 0.110479
H	 0.7234051714	-0.1898147777	 0.9359102814	 0.100585
H	-0.7956216124	-0.650964516	 0.1958456912	 0.103325
H	-0.5424999246	-0.8414257962	-3.08721335	 0.098955
H	 2.7958272397	 0.7998694915	-1.7105038648	 0.081922
H	 3.1532846548	-1.8532869945	-2.8006077976	 0.094832
H	 3.1477884711	-1.7668632959	-1.003391775	 0.09633
H	 0.8777137518	-3.6264260781	-0.5727240474	 0.119072
H	-0.6026197624	-3.0921042805	-1.3765739721	 0.11696
H	 0.6653260259	-3.8944543338	-2.3092924189	 0.125029
73.6529	117.6245	179.1201	197.7181	228.891	266.0987	303.154	391.7136	471.6837	551.948	596.6062	628.1012	735.3789	780.3958	816.9527	844.039	900.0688	924.206	928.0793	957.0893	972.1617	993.3835	1017.3772	1040.15	1094.1964	1100.9307	1138.0517	1158.7592	1171.9332	1201.4286	1227.8427	1237.6762	1292.3175	1306.3719	1343.2316	1357.1238	1408.6863	1415.5145	1457.8789	1477.156	1486.3305	1491.1307	1496.741	1501.3398	1507.9549	3008.8554	3019.1642	3036.5211	3037.5048	3041.089	3079.175	3085.8639	3098.3152	3105.7822	3110.617	3136.7173	3192.532
CCC12C3OC1CC23C	CC[C@@]12[C@H]3O[C@@H]1C[C@@]23C	
InChI=1S/C8H12O/c1-3-8-5-4-7(8,2)6(8)9-5/h5-6H,3-4H2,1-2H3	InChI=1S/C8H12O/c1-3-8-5-4-7(8,2)6(8)9-5/h5-6H,3-4H2,1-2H3/t5-,6+,7-,8+/m1/s1
