21
gdb 100977	2.48162	1.11819	0.99074	2.6138	74.62	-0.2525	0.0596	0.3121	1327.9212	0.179957	-461.342318	-461.332028	-461.331084	-461.377463	38.698	
C	 0.0547176776	 1.5744649445	 0.01193257	-0.385401
C	-0.0213556037	 0.0479655841	-0.0641453641	-0.206923
C	 0.7780707887	-0.530000907	-1.2372915968	 0.082305
O	 2.1649222038	-0.1669405271	-1.1645426988	-0.449093
C	 0.6797529124	-2.040090226	-1.3494130102	 0.318757
O	 1.0637418951	-2.7287218654	-0.1822075304	-0.478311
C	-0.306996887	-2.6859820522	-2.2974528262	-0.37738
C	 1.1705261335	-2.6579762919	-2.6228341921	 0.07772
O	 1.6053432659	-1.827214621	-3.6545688886	-0.429154
H	 1.0952815599	 1.9020983445	 0.0777304699	 0.133058
H	-0.3841086282	 2.0355809583	-0.8797340246	 0.115677
H	-0.4840535265	 1.9550734153	 0.8846857706	 0.10959
H	 0.357019521	-0.3887387673	 0.8696853173	 0.088314
H	-1.0660138358	-0.2757300144	-0.1637268727	 0.096333
H	 0.4205911169	-0.0864234673	-2.1713758329	 0.097031
H	 2.5478830209	-0.715010797	-0.4676624547	 0.288173
H	 0.3195839581	-2.7211414526	 0.4302485981	 0.287347
H	-0.7329524587	-3.6403278781	-2.0078910294	 0.114977
H	-0.9566068679	-2.0382208969	-2.8762103644	 0.12305
H	 1.7063811926	-3.6005084383	-2.515777358	 0.097048
H	 2.2754581414	-1.2442069243	-3.273025422	 0.296879
55.9093	95.162	131.0388	201.0896	226.2822	236.5107	260.5961	310.6558	367.4799	401.9952	422.2044	449.7008	482.7325	511.593	537.6588	596.8798	768.6739	815.9692	850.4918	884.8962	935.2386	943.6101	974.2807	991.1647	1030.1198	1060.1764	1102.1267	1110.0452	1128.2318	1172.5232	1226.7385	1262.9411	1280.3041	1315.5924	1328.6068	1337.298	1363.2564	1389.5646	1404.7548	1413.9197	1436.0475	1479.8638	1485.7958	1497.6226	1509.6284	3012.7119	3038.1439	3047.2651	3076.6142	3103.5443	3111.6823	3124.7001	3134.301	3228.5064	3755.7717	3777.7963	3793.8804
CCC(O)C1(O)CC1O	CC[C@@H](O)[C@@]1(O)C[C@H]1O	
InChI=1S/C6H12O3/c1-2-4(7)6(9)3-5(6)8/h4-5,7-9H,2-3H2,1H3	InChI=1S/C6H12O3/c1-2-4(7)6(9)3-5(6)8/h4-5,7-9H,2-3H2,1H3/t4-,5-,6+/m1/s1
