14
gdb 66673	4.50496	1.21633	1.16384	3.5662	70.92	-0.2471	0.0088	0.2559	1034.6796	0.100336	-399.445236	-399.438245	-399.437301	-399.476512	27.65	
O	 0.2908827698	 1.3387904047	 0.2279126816	-0.444276
C	 0.1537743097	-0.0094213826	 0.0906167873	 0.399023
C	 0.9041336692	-1.0869328481	 0.837215902	-0.140878
C	-0.3438874912	-2.0126041669	 0.7602446282	-0.130079
C	-1.1136654696	-0.9434142082	 0.0215078312	-0.243674
C	-0.2787663252	-1.9613945217	-0.7737806634	 0.303451
C	-0.7064856168	-2.9042822406	-1.7394629822	 0.127244
N	-1.0470590534	-3.6733208932	-2.5363759192	-0.356487
C	 0.9675367927	-1.0303065383	-0.696224195	-0.270122
H	 0.13169419	 1.7590359906	-0.6259320793	 0.297322
H	 1.7084393715	-1.0048376123	 1.5535545808	 0.111599
H	-0.7023903514	-2.8187786275	 1.38567652	 0.115814
H	-2.1795652395	-0.7719054887	-0.0443720182	 0.117912
H	 1.8224786343	-0.9149596472	-1.3469761439	 0.113152
127.3933	154.9796	295.573	338.8548	388.5593	483.8173	517.9107	531.2555	616.065	671.6974	750.6101	789.7641	815.3007	846.5599	871.3784	884.6761	894.6583	918.2866	969.2493	991.603	1024.7624	1080.465	1113.5355	1122.9511	1209.1751	1226.936	1248.8447	1306.7346	1378.3681	1478.4761	2338.2324	3206.5474	3217.582	3222.602	3231.8777	3777.2286
OC12C3C4C1C4(C#N)C23	O[C@@]12[C@H]3[C@H]4[C@@H]1[C@@]4(C#N)[C@@H]23	
InChI=1S/C7H5NO/c8-1-6-2-3-5(6)7(3,9)4(2)6/h2-5,9H	InChI=1S/C7H5NO/c8-1-6-2-3-5(6)7(3,9)4(2)6/h2-5,9H/t2-,3-,4+,5-,6-,7-/m0/s1
