14
gdb 34185	4.56521	1.51262	1.36013	4.9966	68.46	-0.2608	0.0098	0.2706	906.5661	0.102425	-399.496482	-399.490411	-399.489467	-399.526869	24.797	
N	 0.0713941675	-1.0522428137	-0.0133353976	-0.335374
C	 0.014132467	 0.1024477539	-0.0193696256	 0.207746
C	-0.0165308641	 1.5325266564	 0.003413959	 0.354356
O	-1.0382335282	 2.1431362835	-0.7271932548	-0.265174
C	-0.7672038346	 3.4950845086	-0.4854884071	 0.049879
C	-0.1898624617	 3.7283075705	 0.8958975385	-0.131642
C	 0.715988472	 3.7677167537	-0.3379608687	-0.131598
C	 1.2635499211	 2.3773308039	 0.0289749035	-0.164739
C	 0.3673908987	 2.338630794	 1.2507364383	-0.164692
H	-1.4518411104	 4.1793112055	-0.966348048	 0.123667
H	-0.497707589	 4.5046214219	 1.5809585463	 0.109181
H	 1.2531872075	 4.5808000283	-0.8038464984	 0.109181
H	 2.2513302627	 1.9756106899	-0.1430783379	 0.1196
H	 0.5127285815	 1.9005314137	 2.2272759723	 0.119608
153.7333	166.1432	481.2567	500.6997	534.5306	575.7955	635.5671	721.106	752.5645	760.6426	764.1013	814.535	835.581	869.1081	901.1554	955.4448	958.1011	998.2946	1012.8201	1030.2214	1037.6979	1051.3228	1112.0576	1155.8867	1192.0074	1195.159	1254.27	1314.1188	1347.3883	1378.9192	2363.0651	3216.512	3223.2121	3226.6126	3231.5906	3238.135
N#CC12OC3C4C3C1C24	N#C[C@]12O[C@H]3[C@@H]4[C@H]3[C@H]1[C@H]24	
InChI=1S/C7H5NO/c8-1-7-4-2-3(5(4)7)6(2)9-7/h2-6H	InChI=1S/C7H5NO/c8-1-7-4-2-3(5(4)7)6(2)9-7/h2-6H/t2-,3+,4-,5+,6+,7-
