17
gdb 98143	2.27917	1.18768	0.85871	2.4099	80.74	-0.2483	-0.0245	0.2238	1367.428	0.13065	-384.633881	-384.623451	-384.622506	-384.670429	36.658	
C	-0.3135035475	 1.4858654378	-0.0382720361	-0.384014
C	-0.067194811	-0.0172796736	-0.1401990426	-0.28255
C	 0.8695468428	-0.3973914638	-1.2730408922	 0.385357
O	 1.4959164048	 0.3968263789	-1.9188105938	-0.271976
C	 0.9787059744	-1.9436975876	-1.5437011537	-0.469979
C	-0.2801237181	-2.4049432572	-2.1359102084	 0.339051
C	-1.325759888	-2.7492901093	-2.6164248416	-0.460037
C	 2.1381195153	-2.2813248712	-2.3635755662	 0.355892
C	 3.101256197	-2.5632956788	-3.0208964835	-0.416953
H	 0.6273783995	 2.0272962504	 0.0845156077	 0.137379
H	-0.7928696769	 1.8646032049	-0.9448516734	 0.133867
H	-0.9604031738	 1.7117026435	 0.8136777237	 0.114329
H	 0.3819330807	-0.4056676215	 0.7860342502	 0.127681
H	-1.0015748986	-0.5770916536	-0.2645537289	 0.13914
H	 1.0855557294	-2.4224127299	-0.5584835944	 0.144086
H	-2.2414570276	-3.0680038566	-3.0501661603	 0.207284
H	 3.9511061576	-2.8056659123	-3.6097998266	 0.201444
33.5429	50.6331	124.3992	130.4704	150.6665	201.0238	242.7881	331.5716	347.2051	393.225	416.1417	549.9596	561.6306	624.572	639.1762	653.77	657.5445	672.3459	776.3933	840.1477	911.9878	989.4285	1014.8396	1059.1475	1100.0816	1117.0339	1224.6963	1284.8327	1302.9872	1368.6669	1414.4719	1452.3427	1493.1112	1499.1333	1840.3547	2237.2187	2252.0755	2993.6807	3014.087	3053.0253	3066.4339	3123.7005	3131.6165	3501.7063	3504.8465
CCC(=O)C(C#C)C#C	CCC(=O)C(C#C)C#C	
InChI=1S/C8H8O/c1-4-7(5-2)8(9)6-3/h1-2,7H,6H2,3H3	InChI=1S/C8H8O/c1-4-7(5-2)8(9)6-3/h1-2,7H,6H2,3H3
