19
gdb 57215	2.55507	1.38614	1.04124	2.0741	71.64	-0.2305	0.0316	0.2621	1179.9331	0.159267	-456.356199	-456.346937	-456.345993	-456.3904	35.279	
C	 0.7589365605	 1.401924354	 0.1567355583	-0.463573
C	 0.1480187339	 0.0238744361	 0.0257574127	 0.295708
C	 0.7668157153	-0.9254994291	-0.9366974706	-0.274872
N	 0.8947947851	-1.1494676092	 0.5177030746	-0.370415
C	-1.3632911334	-0.138984055	 0.2866850349	-0.013651
O	-1.7015222598	-1.5130380784	 0.3308652791	-0.449839
C	-1.8392683119	 0.6136491211	 1.5512402277	 0.349878
N	-2.4022474483	-0.1889363287	 2.4878963549	-0.511168
O	-1.717291995	 1.8207212586	 1.665647119	-0.376599
H	 1.8147406433	 1.3710544168	-0.1332508951	 0.098023
H	 0.2462521987	 2.1157702425	-0.4945701204	 0.135347
H	 0.6739328818	 1.7865766968	 1.1739853672	 0.151528
H	 0.1590565972	-1.6624659137	-1.4517685359	 0.131815
H	 1.6411241084	-0.5831928079	-1.4831221949	 0.11773
H	 1.81368251	-0.8908164604	 0.8633055608	 0.23884
H	-1.9095618908	 0.3185405967	-0.5478799988	 0.117973
H	-0.8967205015	-1.9440713844	 0.676331101	 0.296304
H	-2.6102860777	-1.1416249989	 2.2372144317	 0.268592
H	-2.8456422557	 0.2407567931	 3.2827076838	 0.258381
49.4362	79.9622	194.6266	231.0991	279.9944	316.179	358.8952	375.7803	388.7785	401.0433	489.5802	518.7732	575.5597	630.2237	671.1013	739.0398	783.0784	841.3924	893.2147	943.3834	953.1522	980.8453	1001.4718	1054.0479	1093.2564	1100.5241	1125.5665	1150.3777	1247.4516	1262.7232	1314.8346	1328.8274	1360.6591	1365.7068	1427.2578	1446.0064	1480.8268	1491.9602	1508.128	1582.1312	1791.0839	3037.4255	3039.6155	3107.7641	3118.0083	3140.5825	3208.1452	3525.081	3583.3929	3591.3974	3730.8499
CC1(CN1)C(O)C(N)=O	C[C@]1(CN1)[C@@H](O)C(=O)N	
InChI=1S/C5H10N2O2/c1-5(2-7-5)3(8)4(6)9/h3,7-8H,2H2,1H3,(H2,6,9)	InChI=1S/C5H10N2O2/c1-5(2-7-5)3(8)4(6)9/h3,7-8H,2H2,1H3,(H2,6,9)/t3-,5-/m0/s1
