20
gdb 87782	3.7209	1.09637	1.08084	1.6572	80.24	-0.2223	0.0784	0.3007	1221.7075	0.169722	-403.079084	-403.070386	-403.069442	-403.111956	34.16	
C	-0.2123439	 1.398685849	-0.0054786561	-0.313128
N	 0.0044152735	-0.0389095917	 0.0677364847	-0.130533
C	 1.3782521104	-0.5015295468	-0.1578232842	-0.330703
C	 0.766085431	-0.560482984	 1.1903462892	 0.400697
C	 1.2695449991	 0.1714063879	 2.4618970113	-0.396991
C	 0.8548899853	-1.0770697465	 3.2606463705	 0.401053
O	 1.6159615213	-1.6260007192	 4.2762807871	-0.461421
C	-0.6044664451	-1.3779788035	 3.077868175	-0.344024
C	 0.3800861092	-1.7809497769	 1.9951351524	-0.192143
H	 0.6285648765	 1.998203043	 0.3811045728	 0.099677
H	-0.3785353415	 1.6822433181	-1.0498633419	 0.12198
H	-1.1101714901	 1.663178301	 0.5627917598	 0.119309
H	 1.4832837644	-1.3986609273	-0.7635757961	 0.113506
H	 2.1503827271	 0.2507945246	-0.3210550408	 0.102639
H	 2.3528957279	 0.3139778571	 2.4623571921	 0.114271
H	 0.7800250478	 1.1131376694	 2.7332318112	 0.093783
H	 1.3176461533	-1.2536059613	 5.1133507645	 0.285793
H	-0.96299985	-2.2084588792	 3.6781784269	 0.112967
H	-1.3359591046	-0.5934584379	 2.8980766789	 0.107517
H	 0.5023174745	-2.8123863657	 1.6892850728	 0.09575
95.7634	157.4315	216.8234	224.0153	248.9141	307.5532	387.8349	404.1729	427.2319	454.7248	487.605	541.0346	673.3302	763.8272	797.5532	838.9707	890.0572	901.9589	943.9983	958.597	991.3599	1021.7458	1045.3068	1065.4326	1090.7655	1101.2609	1121.0417	1141.6138	1165.9409	1194.9496	1208.7722	1226.8052	1242.329	1274.1542	1306.8718	1403.389	1424.5811	1451.0792	1475.3789	1493.7452	1496.7507	1500.8783	1518.7293	2965.6717	3040.9624	3063.0028	3079.6841	3097.5969	3105.4332	3106.3509	3166.4711	3193.3213	3203.2709	3793.1024
CN1CC11CC2(O)CC12	CN1C[C@]21C[C@@]1(O)C[C@@H]21	
InChI=1S/C7H11NO/c1-8-4-6(8)3-7(9)2-5(6)7/h5,9H,2-4H2,1H3	InChI=1S/C7H11NO/c1-8-4-6(8)3-7(9)2-5(6)7/h5,9H,2-4H2,1H3/t5-,6+,7-,8?/m0/s1
