17
gdb 65431	4.355	0.79418	0.75051	1.804	75.92	-0.2714	-0.046	0.2254	1486.3291	0.134123	-418.010992	-418.001571	-418.000627	-418.046076	33.075	
C	 0.0359133324	 1.5913373237	-0.1674614667	-0.459663
C	-0.0008098702	 0.0931893318	 0.0142627426	 0.200836
N	 1.2823001657	-0.6475416291	-0.0474704778	-0.342768
C	 0.5589581461	-0.6289214269	 1.2094010429	-0.054922
C	 1.1981702229	 0.1150825359	 2.3735051359	-0.349092
C	 2.0678659168	-0.7649658079	 3.1547849667	 0.262563
N	 2.7409553694	-1.4779349662	 3.7656210826	-0.296882
C	-1.1712774458	-0.6083184394	-0.5970779777	 0.121809
O	-2.0829682036	-0.0585026381	-1.1576086089	-0.249093
H	 0.9735147289	 2.012803068	 0.1971034864	 0.128964
H	-0.0588683926	 1.8368546227	-1.2285032615	 0.145476
H	-0.8011864826	 2.0642204568	 0.3537038414	 0.13698
H	 1.1795071379	-1.5414448862	-0.5255872666	 0.245247
H	 0.0392251718	-1.5384700661	 1.5087283853	 0.113613
H	 1.7900617415	 0.9558577226	 2.0041041526	 0.166687
H	 0.4230135067	 0.5183528982	 3.0351931139	 0.161765
H	-1.1257174155	-1.7214523299	-0.5056115708	 0.068482
48.2147	99.709	105.6524	131.7035	218.2745	263.095	279.2255	363.3875	385.1374	441.5736	445.0597	524.7509	606.8436	758.1112	814.4739	867.2846	934.2078	954.0761	986.0868	998.4651	1057.5233	1079.7926	1105.6924	1128.5501	1209.6571	1259.998	1276.6481	1320.1083	1359.6412	1412.6124	1431.6999	1451.246	1460.3694	1483.2544	1496.3575	1826.7077	2365.5763	2833.7812	3053.4658	3057.4521	3107.9373	3121.6202	3122.4619	3147.6585	3477.9953
CC1(NC1CC#N)C=O	C[C@]1(N[C@H]1CC#N)C=O	
InChI=1S/C6H8N2O/c1-6(4-9)5(8-6)2-3-7/h4-5,8H,2H2,1H3	InChI=1S/C6H8N2O/c1-6(4-9)5(8-6)2-3-7/h4-5,8H,2H2,1H3/t5-,6-/m0/s1
