17
gdb 67379	2.54894	1.75447	1.67556	0.821	71.76	-0.2152	0.0037	0.2189	916.7161	0.137197	-421.783973	-421.776973	-421.776029	-421.814969	28.709	
O	 0.0277277723	 1.4317344841	-0.1369201465	-0.453269
C	 0.033886203	 0.0624319346	 0.002099892	 0.295921
C	-1.1998466891	-0.7701754355	-0.1602276122	-0.110773
C	-1.3176498764	-1.8262418569	-1.260149862	-0.284996
C	-0.0483078015	-2.0090281375	-2.053903077	-0.053112
C	 1.1369636362	-1.5776988751	-1.6223678735	-0.054279
C	 1.2145794406	-0.8872046502	-0.2942969573	-0.016671
O	 0.7959671428	-1.7560589107	 0.8221242285	-0.30129
C	-0.3294739327	-0.9203761796	 1.0833301122	-0.009186
H	 0.7186147708	 1.7987994224	 0.4268489628	 0.287684
H	-2.1053903978	-0.2068754027	 0.0528081973	 0.097953
H	-1.6170333274	-2.7891509172	-0.8235771106	 0.12577
H	-2.1286369959	-1.550027149	-1.9459386686	 0.110906
H	-0.1366553657	-2.5178751101	-3.010180207	 0.095103
H	 2.0416580597	-1.7218844551	-2.203652463	 0.090732
H	 2.1997078814	-0.4643366633	-0.0753984573	 0.074126
H	-0.6871438104	-0.8440788082	 2.103148512	 0.105383
162.5771	203.0537	310.4652	329.8264	366.9967	454.2706	489.2962	527.2658	611.1732	668.8773	709.898	731.1102	792.4228	884.8933	904.5348	915.8056	932.6719	969.9956	976.4867	993.3551	1002.5166	1038.8137	1075.9021	1091.9892	1177.4348	1184.4225	1226.4043	1232.2404	1260.5855	1298.8429	1330.1056	1345.698	1361.5952	1406.7141	1466.4322	1501.2781	1704.3414	3011.9513	3040.3315	3063.0978	3147.5091	3158.6381	3187.0121	3188.6971	3784.8938
OC12C3CC=CC1OC23	O[C@@]12[C@H]3CC=C[C@@H]1O[C@@H]23	
InChI=1S/C7H8O2/c8-7-4-2-1-3-5(7)9-6(4)7/h1,3-6,8H,2H2	InChI=1S/C7H8O2/c8-7-4-2-1-3-5(7)9-6(4)7/h1,3-6,8H,2H2/t4-,5-,6+,7-/m0/s1
