15
gdb 42532	3.42641	1.2809	1.07186	2.6633	68.18	-0.2461	-0.0609	0.1852	1105.1284	0.110375	-457.709761	-457.701888	-457.700944	-457.742714	28.904	
O	 0.012324648	 0.116058783	-0.5483036851	-0.295944
C	 0.0097005505	 1.2797540941	-0.2770963764	 0.281546
C	-1.0672516876	 2.3463660125	-0.0641301762	 0.320959
C	-2.3820693785	 2.4426100412	-0.7145771372	-0.244349
O	-2.2556792972	 2.1469186743	 0.6752050865	-0.250934
C	 0.0048741715	 3.4179958398	 0.2211380572	-0.447818
C	 1.0818633938	 2.3352447918	 0.0044113653	 0.320964
C	 2.3968724215	 2.1396750945	 0.6317852615	-0.244347
O	 2.2704297953	 2.4882293192	-0.7456870701	-0.250935
H	-2.7761259355	 3.4293767279	-0.9528884591	 0.129773
H	-2.7277556364	 1.6205366111	-1.338703914	 0.141
H	 0.0435930589	 4.2324879294	-0.5053235133	 0.134657
H	-0.0366078954	 3.8273454621	 1.2327474729	 0.134657
H	 2.7869110198	 2.9211377555	 1.2821439205	 0.129773
H	 2.7466813511	 1.1278776135	 0.8286026274	 0.141
47.3586	188.0963	220.996	231.65	246.8863	288.9329	364.2911	448.9869	540.4305	710.0934	734.8781	773.7105	827.2596	854.6501	875.1711	899.472	959.9439	973.7225	1069.1638	1111.801	1113.7714	1132.3025	1140.4996	1153.7922	1165.6893	1182.1921	1215.2004	1400.459	1428.1153	1467.6649	1514.6641	1524.3389	1894.5221	3074.3406	3087.7415	3087.7707	3130.1578	3183.9456	3184.162
O=C1C2(CO2)CC11CO1	O=C1[C@]2(CO2)C[C@]21CO2	
InChI=1S/C6H6O3/c7-4-5(2-8-5)1-6(4)3-9-6/h1-3H2	InChI=1S/C6H6O3/c7-4-5(2-8-5)1-6(4)3-9-6/h1-3H2/t5-,6-/m1/s1
