16
gdb 7759	3.2385	1.98007	1.33204	4.2083	67.19	-0.2599	0.0035	0.2634	917.6335	0.130601	-383.789235	-383.781686	-383.780742	-383.822283	27.532	
C	 0.1775013463	 1.4882726343	-0.1582373859	-0.38519
C	-0.0327286213	-0.000285268	 0.1313667866	 0.090394
O	 0.2283983095	-0.718381035	-1.0921727227	-0.24263
C	 1.145819465	-1.698357085	-1.2470338005	 0.40951
O	 1.27350034	-2.2086820821	-2.3267248955	-0.325889
C	 1.9856319341	-2.1237094325	-0.0523690942	-0.402193
C	 1.6745440388	-1.4290419932	 1.2355246768	-0.077778
C	 0.7581015502	-0.4734379918	 1.3095429887	-0.070195
H	 1.2325182613	 1.6924611798	-0.3618482386	 0.12907
H	-0.4137846548	 1.7873086155	-1.0270862036	 0.137202
H	-0.1338683298	 2.0896052008	 0.7014001645	 0.120289
H	-1.1015636419	-0.1644704143	 0.3301759507	 0.108091
H	 1.8699488591	-3.2108495018	 0.0405905616	 0.150681
H	 3.0350880454	-1.9788191	-0.3403330569	 0.150967
H	 2.227656435	-1.7383113873	 2.1179265715	 0.103935
H	 0.535062103	 0.0259333805	 2.2479649175	 0.103735
27.6273	78.7715	240.8876	258.0861	357.115	455.8803	474.0853	525.6872	547.2588	583.6909	709.5916	745.4618	855.6213	898.0406	961.1601	970.9754	1002.4425	1007.3391	1065.3387	1108.2428	1145.2045	1187.7669	1213.4384	1241.2463	1342.6774	1351.6121	1397.6431	1402.2528	1421.835	1448.9176	1486.2853	1495.3535	1752.5785	1840.2462	3001.9194	3031.6708	3044.2472	3054.8437	3119.9512	3131.4586	3160.0267	3182.7262
CC1OC(=O)CC=C1	C[C@H]1OC(=O)CC=C1	
InChI=1S/C6H8O2/c1-5-3-2-4-6(7)8-5/h2-3,5H,4H2,1H3	InChI=1S/C6H8O2/c1-5-3-2-4-6(7)8-5/h2-3,5H,4H2,1H3/t5-/m1/s1
