12
gdb 130867	7.46008	0.86139	0.77222	4.9971	67.23	-0.2816	-0.1052	0.1764	1332.2117	0.076143	-472.621412	-472.613818	-472.612874	-472.654337	25.956	
O	-0.009650826	-0.0355796825	-0.0013844919	-0.239782
C	-0.0037434887	 1.1687971185	 0.00844448	 0.084613
C	 1.2126478566	 1.9976119726	 0.0025764784	 0.353401
C	 1.3842811579	 3.3505835624	 0.011920784	-0.399566
C	 2.7960667759	 3.5094799562	-0.0014611466	 0.290807
C	 3.5572122689	 4.7871994482	 0.0011469318	 0.101165
O	 4.7560872415	 4.8717280829	-0.0108047873	-0.225069
N	 3.4072314278	 2.3367317035	-0.0175634274	-0.1397
O	 2.4208466212	 1.3931009681	-0.0149823806	-0.172318
H	-0.9356686354	 1.7714279393	 0.0231146548	 0.101393
H	 0.6243701391	 4.1152007711	 0.0261339964	 0.153298
H	 2.9034324712	 5.6859427298	 0.0156167884	 0.09176
71.1006	119.7101	141.1544	238.0844	245.2827	321.0717	388.0152	577.7055	664.4982	672.6635	742.2776	792.5675	848.7305	989.7888	1015.7969	1021.0206	1032.1749	1063.3525	1128.9301	1288.0422	1383.4699	1410.0465	1465.299	1471.0287	1603.9104	1807.4929	1827.169	2900.1131	2918.5635	3273.8228
O=CC1=CC(C=O)=NO1	O=Cc1cc(C=O)no1	
InChI=1S/C5H3NO3/c7-2-4-1-5(3-8)9-6-4/h1-3H	InChI=1S/C5H3NO3/c7-2-4-1-5(3-8)9-6-4/h1-3H
