17
gdb 96627	3.49349	0.84561	0.69501	4.8287	74.21	-0.2508	-0.0657	0.1851	1568.1093	0.132331	-455.174599	-455.164335	-455.163391	-455.211204	35.128	
C	 0.0556034778	 1.3889286431	 0.1268560664	-0.344299
N	 0.0223764148	-0.0563426557	 0.0069750467	-0.276186
C	-1.1262023707	-0.6119701879	-0.1004173187	 0.279736
N	-2.3598452397	-0.027485612	-0.1449594606	-0.55183
C	-1.1836306741	-2.1204488666	-0.2237309799	 0.343812
O	-2.255840208	-2.6895321852	-0.1910735274	-0.322446
C	 0.1240335139	-2.8633837963	-0.3898939121	-0.387242
C	 0.0119873486	-4.3233926268	 0.002773238	 0.174895
O	 0.5126619746	-5.2252487606	-0.6152647193	-0.24172
H	 1.0918459487	 1.7310659832	 0.1676580148	 0.132399
H	-0.4363709379	 1.8845883655	-0.7244981292	 0.122576
H	-0.4464496013	 1.7390200897	 1.043736495	 0.115071
H	-2.4820020789	 0.9142054478	 0.1844467708	 0.262289
H	-3.1429226574	-0.6589226324	-0.0634587972	 0.273928
H	 0.4555351392	-2.7924075656	-1.4319736748	 0.160726
H	 0.8960353466	-2.3635462964	 0.2067173917	 0.169291
H	-0.5553201662	-4.509204544	 0.9400335555	 0.088998
38.8023	60.715	84.3661	147.0547	152.9266	198.9131	246.9915	313.3012	330.7733	372.4088	442.2152	497.4147	527.1732	570.8893	680.1536	705.6445	765.6465	846.4226	991.502	1022.3629	1053.0729	1091.9603	1099.249	1115.0081	1180.6516	1203.2384	1298.5278	1384.3811	1415.0475	1431.259	1433.9973	1490.0667	1502.0401	1602.794	1724.8903	1778.8859	1839.1895	2902.8197	2966.305	3014.1677	3053.5086	3093.4211	3111.0679	3586.1648	3719.1709
CN=C(N)C(=O)CC=O	CN=C(N)C(=O)CC=O	
InChI=1S/C5H8N2O2/c1-7-5(6)4(9)2-3-8/h3H,2H2,1H3,(H2,6,7)	InChI=1S/C5H8N2O2/c1-7-5(6)4(9)2-3-8/h3H,2H2,1H3,(H2,6,7)
