17
gdb 63596	4.73598	0.69417	0.65893	6.3037	90.79	-0.2636	-0.0428	0.2208	1688.3532	0.134606	-380.842902	-380.8335	-380.832555	-380.877413	34.013	
C	-0.1224123396	 1.5344834775	-0.1035184774	-0.43909
C	-0.032391561	 0.0276281257	-0.0002516349	 0.326557
C	-1.2277666106	-0.7320770329	-0.5385852006	-0.457697
N	 1.3071030378	-0.5245680511	-0.2170029174	-0.337705
C	 0.7183908087	-0.6049167603	 1.1465443743	-0.355385
C	 1.3477378389	 0.1540139948	 2.1832444281	 0.163721
C	 1.850680133	 0.7843726431	 3.0848263326	 0.095299
C	 2.4211471815	 1.4962432278	 4.0988329583	 0.200329
N	 2.9049286596	 2.1021295756	 4.9646655684	-0.338516
H	 0.7848968898	 2.0080234346	 0.2747209272	 0.144215
H	-0.2510416779	 1.8303135245	-1.1501066863	 0.125871
H	-0.9787811444	 1.9129150885	 0.4639255857	 0.125277
H	-1.3451128558	-0.5419204632	-1.611425714	 0.13312
H	-1.1187326671	-1.8119553361	-0.3945405547	 0.118375
H	-2.1514255745	-0.4154458198	-0.0434667855	 0.13605
H	 1.2544932383	-1.4454783176	-0.6483638489	 0.238171
H	 0.3468766333	-1.5733759213	 1.4755957749	 0.121406
69.8689	78.9514	182.0688	194.9425	203.3412	244.3537	311.3559	350.2805	387.7829	400.0123	483.1209	537.7159	578.3087	593.5484	705.5394	746.8351	827.1059	900.3673	958.1965	964.7591	1009.2064	1059.9223	1080.9624	1148.9664	1161.8773	1233.0471	1298.1147	1348.0885	1415.316	1425.7729	1429.6892	1475.9868	1487.3468	1496.3888	1509.2269	2262.2816	2392.4672	3029.2185	3041.45	3096.4871	3103.5973	3105.9303	3125.7035	3141.4842	3488.1456
CC1(C)NC1C#CC#N	CC1(C)N[C@H]1C#CC#N	
InChI=1S/C7H8N2/c1-7(2)6(9-7)4-3-5-8/h6,9H,1-2H3	InChI=1S/C7H8N2/c1-7(2)6(9-7)4-3-5-8/h6,9H,1-2H3/t6-/m0/s1
