19
gdb 61665	3.69287	0.81534	0.77104	3.5842	76.7	-0.2525	0.028	0.2805	1521.5396	0.159817	-419.194503	-419.185071	-419.184127	-419.22992	33.481	
N	 0.0834978686	 1.5068266584	-0.0120031643	-0.497053
C	-0.0836910897	 0.0512429916	-0.0248012137	-0.131279
C	-1.5771579811	-0.3257948625	 0.04917863	-0.20352
C	-2.1729567616	 0.0616230113	 1.3930304989	 0.158231
C	-3.5479185791	-0.5364988922	 1.7657890367	-0.306798
C	-2.7885042564	-1.1840109374	 2.9411318875	-0.057932
O	-1.5282730172	-0.6486208243	 2.4817567385	-0.297983
C	 0.555896905	-0.5931819424	-1.1915778112	 0.253514
N	 1.0592230391	-1.0537968381	-2.1254527602	-0.325144
H	 1.0645501405	 1.746478386	 0.0918656492	 0.246317
H	-0.216965065	 1.897188552	-0.9011033906	 0.240011
H	 0.3932674543	-0.3486680818	 0.8772321551	 0.155718
H	-2.1242628616	 0.1734592015	-0.7607468408	 0.108521
H	-1.6812074068	-1.4056330603	-0.099600494	 0.118803
H	-2.0893065276	 1.1442354462	 1.5395905682	 0.097906
H	-4.3224928488	 0.1827674777	 2.0341878172	 0.114977
H	-3.949026569	-1.240113375	 1.0331807346	 0.112043
H	-3.0524409052	-0.8019603684	 3.9348216861	 0.106005
H	-2.7812501782	-2.2795781022	 2.9741237228	 0.107664
54.2228	70.9823	95.2269	124.2657	200.066	254.2278	281.8584	332.0502	400.1179	468.5252	565.0494	588.776	748.6647	798.6881	838.9207	872.9885	887.6436	923.7599	966.4998	981.7369	1011.8209	1028.4213	1088.1449	1111.1244	1140.9045	1164.3487	1186.776	1219.0657	1256.4597	1268.8148	1301.2022	1306.0177	1342.9058	1373.6112	1399.6623	1405.6804	1466.9702	1492.2694	1532.3535	1663.795	2343.5797	3019.8581	3032.2452	3046.5888	3060.728	3061.4025	3078.2902	3088.716	3135.0574	3494.8499	3575.6302
NC(CC1CCO1)C#N	N[C@@H](C[C@H]1CCO1)C#N	
InChI=1S/C6H10N2O/c7-4-5(8)3-6-1-2-9-6/h5-6H,1-3,8H2	InChI=1S/C6H10N2O/c7-4-5(8)3-6-1-2-9-6/h5-6H,1-3,8H2/t5-,6+/m0/s1
