14
gdb 12618	3.6796	2.09118	1.345	4.4056	67.84	-0.2253	-0.0796	0.1457	862.0707	0.108099	-378.760395	-378.752961	-378.752017	-378.792894	26.214	
C	 0.0186946511	 1.4640647435	 0.0261408957	-0.33993
N	-0.0337564667	 0.017523503	 0.0113821234	-0.07026
C	-0.0161918827	-0.7958227997	-1.1017519655	 0.002072
C	 0.0269051026	-2.124625348	-0.816455419	-0.305985
C	 0.0511547439	-2.2445861571	 0.6323588836	 0.340213
O	 0.0828164675	-3.2019021506	 1.3769181408	-0.34066
C	 0.0258384431	-0.7864758792	 1.1455629158	 0.269328
N	 0.0573770065	-0.357921796	 2.3369180044	-0.51787
H	 1.0500110909	 1.8360786408	 0.0509644294	 0.140578
H	-0.4813749838	 1.8585632007	-0.8619219881	 0.134724
H	-0.4963614546	 1.8219971358	 0.9193499897	 0.170267
H	-0.0447161735	-0.3279749232	-2.0781170528	 0.144107
H	 0.0279031509	-2.9348667262	-1.5269559532	 0.124685
H	 0.0916529848	-1.1706199637	 2.9604142957	 0.24873
41.5291	116.2555	166.467	282.5909	307.6227	341.8773	541.0825	548.8669	585.4157	727.8479	733.1611	793.2748	823.5226	923.8647	933.2205	963.9695	1025.4124	1112.3148	1151.2835	1153.9309	1250.5748	1304.8432	1375.1275	1427.5508	1462.4569	1486.3318	1516.5582	1609.7346	1745.2791	1799.1623	3028.7832	3100.7702	3144.5847	3218.2657	3271.2372	3435.1851
CN1C=CC(=O)C1=N	CN1C=CC(=O)[C]1[NH]	
InChI=1S/C5H6N2O/c1-7-3-2-4(8)5(7)6/h2-3,6H,1H3	InChI=1S/C5H6N2O/c1-7-3-2-4(8)5(7)6/h2-3,6H,1H3
