22
gdb 85417	2.18038	1.5131	1.22768	3.3672	83.	-0.2496	0.0347	0.2842	1170.1752	0.19366	-404.392146	-404.382761	-404.381817	-404.425685	36.724	
C	 0.1319517592	 1.6921157365	-0.1777751401	-0.415653
C	 0.0206659167	 0.1801681831	 0.0504520628	-0.019843
C	 0.7306803711	-0.6059307118	-1.0679146383	-0.318167
C	 2.121937897	-0.8276119748	-0.5167120311	 0.408679
N	 3.1458214445	-1.1308886939	-1.1920421885	-0.549329
O	 2.1071745912	-0.642791344	 0.8344629905	-0.270015
C	 0.7627236806	-0.3496811636	 1.3156306849	 0.358795
C	 0.9156163975	 0.6421475719	 2.4640679297	-0.432124
C	 0.1418963523	-1.65886657	 1.81852081	-0.418766
H	 1.1766000807	 2.0110886432	-0.2594232868	 0.132408
H	-0.368651966	 1.9638802321	-1.1123031936	 0.118551
H	-0.33524333	 2.2648439595	 0.6278119442	 0.11832
H	-1.0379221076	-0.0893646735	 0.1152686153	 0.075045
H	 0.259617159	-1.5772235987	-1.2507560195	 0.127987
H	 0.7691360498	-0.0804402251	-2.0232341327	 0.130512
H	 3.9556989285	-1.2393800682	-0.5784556019	 0.216883
H	 1.456315514	 1.5366717465	 2.1497312426	 0.12803
H	-0.0652157119	 0.9421682599	 2.8458457897	 0.118031
H	 1.4720081327	 0.1800553298	 3.2845011034	 0.124903
H	 0.7863766628	-2.1135302694	 2.5758585699	 0.127189
H	-0.8386426086	-1.4706724121	 2.2672029245	 0.117749
H	 0.0117886865	-2.3801525173	 1.0067009052	 0.120816
89.3178	110.4383	219.9947	242.6182	264.2185	291.0397	325.0687	336.7706	351.9014	396.4966	480.4894	495.9735	538.8397	601.4179	662.8198	748.3463	847.9941	871.778	895.7462	923.525	930.2358	948.6997	960.0517	1006.6262	1030.027	1079.8151	1099.927	1105.9677	1165.5302	1202.2724	1229.9257	1250.3588	1277.9427	1312.6724	1353.789	1370.1251	1399.049	1410.697	1418.9102	1473.612	1475.2761	1485.4399	1494.1505	1500.7319	1506.1735	1514.4849	1773.3001	3037.6415	3039.1043	3047.8529	3052.6926	3065.8552	3104.6754	3110.6506	3113.2507	3116.4826	3120.9336	3124.3386	3136.5373	3466.1458
CC1CC(=N)OC1(C)C	C[C@H]1C[C]([NH])OC1(C)C	
InChI=1S/C7H13NO/c1-5-4-6(8)9-7(5,2)3/h5,8H,4H2,1-3H3	InChI=1S/C7H13NO/c1-5-4-6(8)9-7(5,2)3/h5,8H,4H2,1-3H3/t5-/m0/s1
