23
gdb 76232	2.38237	1.38399	1.15171	1.0849	87.35	-0.2263	0.0347	0.2611	1228.3101	0.203951	-388.317911	-388.307906	-388.306961	-388.351909	38.936	
C	 0.7533571873	 1.7454603498	-0.1682664158	-0.41387
C	 0.2394918103	 0.3042030912	-0.014923743	-0.084619
C	 0.6374030162	-0.5639101355	-1.1988330777	 0.348391
C	 0.0306430057	-0.3750754294	-2.5538882994	-0.502584
C	 1.5745023113	-1.4490388244	-0.8560454874	-0.173928
C	 1.9424189918	-1.3611126107	 0.6007994291	-0.291963
C	 0.8055100545	-0.4879312006	 1.2048981407	 0.37983
C	 1.2538824205	 0.3505834712	 2.4011566477	-0.451573
O	-0.2871426585	-1.3288807187	 1.6003804991	-0.477971
H	 1.8444453855	 1.7753034855	-0.2600409995	 0.115182
H	 0.3359777525	 2.206828864	-1.0687329248	 0.113728
H	 0.4636141023	 2.3696101321	 0.6821564393	 0.115654
H	-0.8510485914	 0.3386181418	 0.0993355818	 0.083556
H	 0.1938045098	 0.6404499661	-2.9359597802	 0.122689
H	 0.4474523888	-1.0775787234	-3.2809890719	 0.120497
H	-1.0564546997	-0.5239229268	-2.5213901753	 0.126713
H	 2.0349867028	-2.1566734468	-1.5380345097	 0.079673
H	 1.9829368939	-2.3388487453	 1.0991058417	 0.086494
H	 2.9301305857	-0.9003839717	 0.7451713785	 0.097533
H	 2.0582202773	 1.0442622452	 2.1408106522	 0.115834
H	 0.4141608272	 0.922839991	 2.8065040888	 0.121101
H	 1.6297562262	-0.3037491001	 3.1974035919	 0.099893
H	 0.0336097001	-1.9181844646	 2.2916320139	 0.269741
70.273	164.3959	209.1704	239.0101	255.9102	260.1975	272.7983	293.6727	306.3941	353.4305	372.499	440.3146	488.5785	553.3398	588.6885	664.4163	756.1637	808.5819	829.3579	878.9306	929.3681	954.4547	978.4662	1020.8073	1039.4218	1044.8204	1057.8655	1096.471	1126.8202	1134.9863	1159.7895	1199.0517	1232.136	1283.0593	1311.0973	1333.9481	1347.3643	1375.9207	1401.3735	1408.4289	1414.5494	1476.6665	1479.0911	1487.5997	1488.9882	1490.5774	1504.6849	1507.4455	1725.5262	3001.3569	3016.3338	3026.1818	3030.2351	3032.7333	3033.7065	3062.1325	3091.0166	3100.2562	3106.7646	3107.1934	3117.9336	3180.0286	3801.1574
CC1C(C)=CCC1(C)O	C[C@H]1C(=CC[C@]1(C)O)C	
InChI=1S/C8H14O/c1-6-4-5-8(3,9)7(6)2/h4,7,9H,5H2,1-3H3	InChI=1S/C8H14O/c1-6-4-5-8(3,9)7(6)2/h4,7,9H,5H2,1-3H3/t7-,8-/m0/s1
