23
gdb 84374	1.77661	1.68783	1.42545	1.3261	86.13	-0.2375	0.0287	0.2661	1142.1713	0.204499	-388.309281	-388.299536	-388.298591	-388.342813	38.59	
C	-0.3015713863	 1.5338207883	-0.1134067162	-0.408143
C	-0.0512659564	 0.01990272	 0.0044382466	-0.057764
C	 0.7717303317	-0.5030180957	-1.1489687536	-0.071753
C	 1.9820700732	-0.9027495272	-0.7695858325	-0.071803
C	 2.2119239103	-0.7366056368	 0.7135705794	-0.029595
C	 3.2726948176	 0.335172236	 1.0148454348	-0.413126
C	 0.7684267039	-0.4689584204	 1.2515033594	 0.364633
C	 0.6845522965	 0.4374141032	 2.4790035744	-0.457017
O	 0.3029111107	-1.778443689	 1.6148569136	-0.478253
H	 0.6369613546	 2.0967264513	-0.124595336	 0.121102
H	-0.8261454224	 1.7563523321	-1.0486756542	 0.112863
H	-0.9179533804	 1.910863788	 0.7087322571	 0.111602
H	-1.0329384906	-0.4748173578	 0.0390587256	 0.060446
H	 0.3983205623	-0.5070251071	-2.1679851804	 0.085681
H	 2.7535240759	-1.2835621209	-1.431133019	 0.085966
H	 2.5439719642	-1.6779188049	 1.1678148829	 0.0908
H	 2.9831256943	 1.3152895487	 0.622394038	 0.117172
H	 3.4551412033	 0.4349903697	 2.0891275862	 0.115159
H	 4.2227104734	 0.0634816072	 0.5427698568	 0.112895
H	 1.0754380043	 1.4406666354	 2.2929255885	 0.118736
H	-0.357808978	 0.5443127312	 2.8035151468	 0.099937
H	 1.2461745347	-0.0069694781	 3.3056747726	 0.121716
H	-0.6204824867	-1.6965765231	 1.8770245293	 0.268746
80.2546	189.7949	237.1406	244.359	263.1417	271.7977	289.5361	303.2636	323.7111	359.1105	392.4337	438.0793	518.1118	564.4295	612.8012	701.2772	757.2234	777.813	836.2867	904.9386	933.7543	936.0797	976.1423	1018.5476	1019.3388	1061.2605	1085.5412	1092.3905	1096.5109	1135.4902	1140.0591	1183.7163	1202.1137	1277.4858	1310.0924	1319.3026	1336.2162	1366.1571	1385.1774	1402.771	1408.3994	1414.281	1484.096	1490.1903	1497.3184	1499.9866	1507.9795	1509.0214	1692.8491	2990.3968	3028.5273	3031.5993	3033.9342	3034.4053	3094.3858	3097.3742	3099.1704	3106.896	3109.5416	3124.1321	3170.3332	3196.3734	3799.9624
CC1C=CC(C)C1(C)O	C[C@H]1C=C[C@@H](C)[C@]1(C)O	
InChI=1S/C8H14O/c1-6-4-5-7(2)8(6,3)9/h4-7,9H,1-3H3	InChI=1S/C8H14O/c1-6-4-5-7(2)8(6,3)9/h4-7,9H,1-3H3/t6-,7+,8+
