17
gdb 72785	2.49601	1.77095	1.32288	1.8434	75.32	-0.2364	-0.0256	0.2107	998.0506	0.135548	-421.819462	-421.811554	-421.81061	-421.851912	30.574	
O	 0.2549484385	 1.4477884404	 0.0765105689	-0.480573
C	 0.0774149002	 0.0418038055	 0.0451527555	 0.277015
C	 0.1412130175	-0.6361179171	 1.4627086081	-0.291561
C	-1.4386629212	-0.6227157623	 1.4919939023	-0.314873
C	-1.3413403315	-0.4384261205	-0.0043669234	 0.235393
C	-1.6533101052	-1.0571269125	-1.1438223962	-0.208808
C	-0.5237089164	-0.9313650108	-2.1493436091	-0.364519
C	 0.6788090759	-0.5027166711	-1.2689897536	 0.321578
O	 1.8417692342	-0.5287976065	-1.5697797042	-0.312429
H	 1.2069860709	 1.6065400305	 0.0437813968	 0.289654
H	 0.5492729709	-1.6486267845	 1.4398783465	 0.117343
H	 0.6458096241	-0.0414600218	 2.227353403	 0.110841
H	-1.9561350344	-1.5104664014	 1.861742136	 0.111887
H	-1.8081421061	 0.2597760371	 2.0214232698	 0.127439
H	-2.5051916424	-1.708380346	-1.3061990973	 0.103554
H	-0.3026270608	-1.8699525759	-2.6699077269	 0.132986
H	-0.6843059042	-0.1749199334	-2.929043556	 0.145072
63.3237	195.6546	205.4104	253.3378	276.746	377.2285	383.0149	517.637	556.0266	602.4586	622.5001	672.57	747.2283	791.727	815.4259	877.8985	907.7826	923.4079	958.4998	1001.6116	1035.566	1067.9564	1113.0136	1133.4207	1156.9204	1183.0225	1207.5339	1234.9015	1248.1352	1271.629	1294.9649	1399.7037	1447.3422	1458.9671	1482.3287	1714.6171	1852.585	3026.0846	3062.4359	3068.8081	3071.6708	3115.1495	3137.5945	3189.5641	3775.1158
OC12CCC1=CCC2=O	O[C@@]12CC[C]1[CH]CC2=O	
InChI=1S/C7H8O2/c8-6-2-1-5-3-4-7(5,6)9/h1,9H,2-4H2	InChI=1S/C7H8O2/c8-6-2-1-5-3-4-7(5,6)9/h1,9H,2-4H2/t7-/m0/s1
