21
gdb 63379	2.79107	1.22273	0.99725	4.9832	83.22	-0.2425	0.0302	0.2727	1273.2734	0.180737	-383.279217	-383.269334	-383.268389	-383.313371	37.618	
C	-0.1292075422	 1.4417942886	 0.9973931863	-0.450026
C	 0.1939344994	 0.0082151212	 0.5750279367	 0.360998
C	-0.8455817448	-0.9690450589	 1.1177565566	-0.421738
C	 0.5276985464	-0.1562413133	-0.9392558973	-0.342741
C	 2.0146610958	-0.383177494	-0.5167919057	 0.182201
C	 2.9827940337	 0.7440065464	-0.8935722473	-0.454138
N	 1.5878415911	-0.4294520549	 0.9040409497	-0.372903
C	 2.5766548234	-1.6716659344	-0.9605604401	 0.271991
N	 3.0129859961	-2.6768390139	-1.3285968433	-0.347474
H	 0.5899280577	 2.1599841839	 0.5916840332	 0.114282
H	-1.1268906674	 1.7345058046	 0.6523264996	 0.124285
H	-0.1185949359	 1.5313522563	 2.0900146022	 0.121835
H	-1.8421295193	-0.7389225919	 0.7242070232	 0.111271
H	-0.5877372657	-1.9947565879	 0.8422486178	 0.128466
H	-0.8912879319	-0.9160225241	 2.2109698766	 0.116265
H	 0.0610891746	-1.0212527028	-1.411240886	 0.125628
H	 0.3692764109	 0.7255715643	-1.5626758278	 0.111964
H	 2.5592292722	 1.7136655809	-0.6187757765	 0.124995
H	 3.9388104788	 0.6190972351	-0.3752253213	 0.138608
H	 3.1801357893	 0.7431306381	-1.969882489	 0.141357
H	 2.1113475878	 0.1903607468	 1.5141515727	 0.214875
66.8292	145.1981	190.68	213.6894	234.683	247.6824	274.0092	323.179	337.1019	364.9385	405.4488	444.3633	518.9407	583.4135	593.954	705.1822	717.8146	867.4757	881.3564	917.5582	930.7272	938.4189	973.4495	986.805	1003.8386	1037.7132	1147.3118	1151.674	1212.509	1221.5009	1255.6414	1274.4842	1289.8234	1383.3072	1402.3487	1409.8919	1419.3595	1476.9776	1479.5975	1482.9926	1486.7149	1491.9419	1501.4864	1506.0012	2351.2684	3025.0504	3031.7687	3039.3916	3079.1189	3091.0463	3099.0212	3103.3918	3112.9415	3120.1882	3123.4819	3141.1477	3518.5885
CC1(C)CC(C)(N1)C#N	CC1(C)C[C@@](C)(N1)C#N	
InChI=1S/C7H12N2/c1-6(2)4-7(3,5-8)9-6/h9H,4H2,1-3H3	InChI=1S/C7H12N2/c1-6(2)4-7(3,5-8)9-6/h9H,4H2,1-3H3/t7-/m1/s1
