20
gdb 14305	2.88476	1.93818	1.71653	1.4825	73.8	-0.2532	0.0703	0.3235	893.9957	0.178524	-349.003652	-348.995773	-348.994829	-349.035596	30.725	
C	 0.2038922655	 1.7063574321	 0.1204917692	-0.43952
C	 0.1463682601	 0.1943680677	 0.0708642615	 0.007036
C	 1.2882657139	-0.7095140159	-0.3422348024	-0.062683
C	 2.7193632246	-0.1859111332	-0.3386851211	-0.227545
C	 3.066335987	 0.2302653294	 1.1134085386	 0.107488
O	 3.2846035817	 1.641848511	 1.1341224634	-0.416106
C	 1.8773791744	-0.2318930333	 2.0079680274	-0.255179
C	 0.7747481514	-0.7368432715	 1.0856186515	-0.058363
H	 1.1706025596	 2.0802855488	 0.4616576142	 0.149088
H	 0.0131738521	 2.1287946926	-0.8729929525	 0.109155
H	-0.5682821952	 2.0970660095	 0.7939589689	 0.105485
H	-0.8163234267	-0.1733819265	-0.2804273566	 0.076675
H	 1.0616076888	-1.5190338594	-1.0284001918	 0.074353
H	 3.3945757667	-0.9785192697	-0.6760368078	 0.097359
H	 2.8773144084	 0.6712787452	-1.0009868919	 0.116542
H	 3.9913083078	-0.265990498	 1.4389017031	 0.071162
H	 3.4636139151	 1.8989117533	 2.0442462853	 0.279992
H	 2.1960951736	-1.0466453917	 2.6673171383	 0.096504
H	 1.5546238392	 0.5920620491	 2.6564619606	 0.094053
H	 0.1727170122	-1.5653567194	 1.4446175024	 0.074504
88.4888	156.2174	194.1388	225.0622	320.346	403.7499	416.9875	422.9561	520.2805	665.0724	678.4641	745.4819	764.6725	805.7848	891.3109	897.637	966.3386	977.2924	981.9894	1029.9086	1033.9694	1093.8536	1097.4811	1106.566	1140.2298	1144.4698	1195.3303	1233.0722	1241.6641	1260.2185	1292.3682	1324.0111	1327.4603	1368.8178	1376.9594	1422.2641	1425.713	1444.2528	1477.1593	1488.7545	1508.2871	1511.2093	2989.6153	3024.6401	3028.6776	3049.8629	3067.0947	3076.631	3087.626	3110.0363	3136.7481	3148.8229	3161.0566	3815.7715
CC1C2CC(O)CC12	C[C@H]1[C@H]2C[C@@H](O)C[C@@H]12	
InChI=1S/C7H12O/c1-4-6-2-5(8)3-7(4)6/h4-8H,2-3H2,1H3	InChI=1S/C7H12O/c1-4-6-2-5(8)3-7(4)6/h4-8H,2-3H2,1H3/t4-,5+,6+,7-
