17
gdb 87942	4.11035	1.08285	0.97677	4.5835	69.51	-0.2307	0.0622	0.2929	1201.4113	0.137056	-455.168522	-455.160301	-455.159356	-455.201263	31.565	
O	-0.0125209808	 1.4254002055	 0.0730446639	-0.417814
C	 0.029216852	 0.0294817892	 0.0383533855	 0.032637
C	-0.5132759294	-0.7734149509	 1.2110493137	-0.387097
C	-1.2856553942	-0.6590314993	-0.0874134522	 0.364195
C	-2.589823656	 0.1373644227	-0.1887013336	-0.215672
N	-3.5195384603	-0.8993077806	-0.6128710668	-0.352075
C	-2.8660025501	-1.9827171947	-1.1800775236	 0.426771
O	-3.3702217347	-2.9235304303	-1.7489978974	-0.407903
N	-1.5027946689	-1.7746411435	-0.968193463	-0.411329
H	 0.6534366125	 1.7321794229	 0.697695174	 0.292259
H	 0.8704712056	-0.3983772233	-0.5089409039	 0.092764
H	-0.0285877088	-1.7154898119	 1.4490576739	 0.114652
H	-0.8894419225	-0.2199398011	 2.0659085303	 0.121334
H	-2.8781208165	 0.5813150123	 0.7674666466	 0.118404
H	-2.4888818122	 0.9456128136	-0.9255730805	 0.1249
H	-4.430009064	-0.6699523113	-0.9767007834	 0.254107
H	-0.9214521215	-2.5966385292	-0.9240789036	 0.249866
86.1696	148.5395	183.5103	252.2092	294.836	352.1269	430.0106	450.7715	470.5805	515.3097	530.274	595.7007	713.6434	760.9782	784.8201	864.0682	917.6476	921.5329	982.1539	997.8782	1020.9925	1066.512	1091.0092	1097.0885	1169.3767	1210.3113	1236.4057	1268.9878	1288.3406	1312.0477	1370.1833	1398.9361	1426.9699	1446.7904	1506.7567	1528.4495	1853.6619	3013.29	3081.7164	3091.4856	3119.4567	3212.8182	3641.3449	3653.1431	3801.824
OC1CC11CNC(=O)N1	O[C@H]1C[C@]21CNC(=O)N2	
InChI=1S/C5H8N2O2/c8-3-1-5(3)2-6-4(9)7-5/h3,8H,1-2H2,(H2,6,7,9)	InChI=1S/C5H8N2O2/c8-3-1-5(3)2-6-4(9)7-5/h3,8H,1-2H2,(H2,6,7,9)/t3-,5+/m0/s1
