14
gdb 5370	5.32811	1.65889	1.27494	6.1921	70.7	-0.2195	-0.0347	0.1848	911.9296	0.109027	-374.926722	-374.919523	-374.918579	-374.959006	25.523	
C	-0.1471909412	 1.4328217086	-0.0187880858	-0.324674
N	-0.1004029529	-0.0113337792	-0.0752149656	-0.284522
C	 0.6138987029	-0.5934424709	-0.9506594145	 0.376886
N	 1.4004650876	 0.1005703959	-1.9152486502	-0.285211
C	 2.0798371001	-0.584663313	-2.747721871	 0.093797
N	 2.0973451468	-1.9612732271	-2.7684565519	-0.303469
C	 1.3260672112	-2.6128084859	-1.8226066908	 0.086687
N	 0.6161076952	-2.0126789844	-0.9525478394	-0.260641
H	 0.4678960364	 1.9431688021	-0.7681540731	 0.121226
H	-1.1891501928	 1.7574824547	-0.132981855	 0.118576
H	 0.1672546187	 1.7577995345	 0.9809898941	 0.118547
H	 2.6955035379	-0.0960820745	-3.5027256552	 0.134339
H	 2.6462217518	-2.470068893	-3.4412714879	 0.2724
H	 1.3582163184	-3.700529748	-1.8614476936	 0.136059
43.2996	91.2481	235.6341	263.7034	367.1204	463.2689	500.2143	531.0728	593.3909	654.458	782.0414	801.1497	954.6387	961.4685	984.1815	1044.4183	1059.1197	1093.421	1130.9493	1161.5142	1213.1811	1404.399	1427.9381	1430.1305	1467.3601	1487.2589	1496.5516	1651.8013	1722.8582	1751.3134	3008.9711	3059.0741	3084.7502	3133.8819	3147.1663	3654.3287
CN=C1N=CNC=N1	C[N]C1=NCNC=N1	
InChI=1S/C4H6N4/c1-5-4-7-2-6-3-8-4/h2-3H,1H3,(H,5,6,7,8)	InChI=1S/C4H7N4/c1-5-4-7-2-6-3-8-4/h2H,3H2,1H3,(H,6,7,8)
