19
gdb 52165	3.16361	1.16736	1.00223	3.2188	75.79	-0.2302	0.0257	0.2559	1222.828	0.160882	-419.179133	-419.170734	-419.169789	-419.212911	31.292	
O	 0.9741762057	-0.2316690396	-1.7324715852	-0.322297
C	 0.5705608843	 0.8625384149	-1.3919786213	 0.163063
N	 1.1494435544	 1.6582042622	-0.4559902121	-0.263786
C	 2.3952674506	 1.3151346937	 0.2179477656	-0.209526
C	 3.5631248842	 2.1715540059	-0.2305458155	 0.004745
C	 4.9794333173	 1.7495869193	-0.2424220417	-0.04369
C	 5.1661239897	 0.2837079163	-0.6303278663	-0.253577
C	 4.3443408357	 0.6110471702	-1.9025261117	-0.17759
N	 4.2418009779	 2.0767156976	-1.5384622476	-0.150593
H	-0.3439354928	 1.3224804431	-1.8144041345	 0.082994
H	 0.7548947742	 2.573957291	-0.3089126674	 0.248936
H	 2.2652049942	 1.4443513457	 1.2995332797	 0.114032
H	 2.5577293648	 0.2539207201	 0.0320627099	 0.151469
H	 3.4256631252	 3.2237942279	 0.0211299332	 0.087099
H	 5.7649496606	 2.3935796247	 0.1429339309	 0.091718
H	 6.2063779059	 0.0406883434	-0.8530957658	 0.11189
H	 4.7779607108	-0.4680590588	 0.0636036152	 0.105635
H	 4.9233239784	 0.5216357836	-2.82318588	 0.110382
H	 3.3823541291	 0.1106474188	-2.0356391955	 0.149097
52.2595	88.0695	149.4489	229.0746	244.4628	317.3043	358.4406	480.9226	531.4881	549.956	708.0139	758.5532	781.7164	791.6792	797.6825	896.5688	947.4541	983.6474	996.1329	997.3454	1025.2185	1039.9333	1076.5215	1110.5704	1145.7463	1182.3677	1212.2351	1231.6342	1250.7151	1266.2534	1286.7229	1308.1424	1356.185	1377.7294	1429.4655	1452.6558	1475.1978	1497.7281	1523.9248	1538.5786	1794.9457	2945.4613	3033.5978	3055.0101	3073.2677	3099.0561	3111.1948	3131.3893	3146.2811	3149.8973	3631.2586
O=CNCC1C2CCN12	O=CNC[C@H]1[C@H]2CCN12	
InChI=1S/C6H10N2O/c9-4-7-3-6-5-1-2-8(5)6/h4-6H,1-3H2,(H,7,9)	InChI=1S/C6H10N2O/c9-4-7-3-6-5-1-2-8(5)6/h4-6H,1-3H2,(H,7,9)/t5-,6+,8?/m1/s1
