16
gdb 125411	3.02324	1.27868	0.90368	5.5062	75.57	-0.2274	-0.0044	0.223	1238.4355	0.124619	-434.060429	-434.05185	-434.050906	-434.094341	30.744	
C	-0.1121913245	 1.483047061	 0.1723797547	-0.530746
C	-0.1088100631	-0.0005807987	-0.0081401656	 0.062575
C	-0.1537708101	-0.7405543636	-1.1420935287	 0.014509
O	-0.1315942254	-2.0502528792	-0.8699728983	-0.175514
N	-0.0681102469	-2.2331853357	 0.5185854164	-0.203076
C	-0.0555178892	-1.0134385599	 1.0109948282	 0.425774
N	 0.0023791046	-0.7111340876	 2.3614581176	-0.385429
C	 0.0574587503	-1.5607667004	 3.4516358364	 0.070938
N	 0.0630660931	-2.8256739366	 3.3659129645	-0.402648
H	 0.7932471545	 1.834957871	 0.6826551277	 0.133368
H	-0.1594526608	 1.9937553783	-0.7925015721	 0.140204
H	-0.9736204412	 1.8212562491	 0.7619489119	 0.133357
H	-0.2025015032	-0.4731032763	-2.1870807342	 0.147451
H	 0.0041945689	 0.2719051645	 2.5741926401	 0.255128
H	 0.0947830427	-0.9788441941	 4.3816802103	 0.087856
H	 0.1078599502	-3.2368747718	 4.2961078713	 0.226254
47.7948	135.9049	154.5766	172.9164	227.7962	253.4043	361.3542	418.7542	448.5016	587.9045	592.7556	669.4257	725.0949	808.2761	828.5315	838.616	914.0803	953.2459	1011.9981	1047.8489	1068.0127	1082.8537	1162.4657	1212.9823	1255.1349	1304.2678	1389.6323	1420.4003	1423.0603	1484.1123	1501.25	1539.6921	1583.5073	1678.73	1742.3206	3017.3924	3031.4302	3063.1248	3116.4001	3255.9586	3507.9575	3662.0481
CC1=CON=C1NC=N	Cc1conc1NC=N	
InChI=1S/C5H7N3O/c1-4-2-9-8-5(4)7-3-6/h2-3H,1H3,(H2,6,7,8)	InChI=1S/C5H7N3O/c1-4-2-9-8-5(4)7-3-6/h2-3H,1H3,(H2,6,7,8)
