18
gdb 80334	2.14979	1.48325	1.31502	0.8341	77.96	-0.2181	0.0321	0.2502	1092.1207	0.145645	-401.856317	-401.847253	-401.846309	-401.889591	34.679	
C	-0.1107025105	 1.4653968859	-0.2111023163	-0.418702
C	 0.0378340233	-0.021016888	 0.0286546154	-0.070923
C	 1.320889521	-0.7996053456	-0.152532455	-0.104792
N	 2.4608469935	 0.0527559005	 0.2586338006	-0.32295
C	 1.9727311406	-0.0016871323	 1.689506936	-0.245025
C	 1.9138389537	 1.2534255589	 2.4220983827	 0.344272
C	 1.8576452375	 2.2697372775	 3.0626963345	-0.447736
C	 0.6782717533	-0.7017032506	 1.2174155257	 0.330256
O	 0.0498952742	-1.6649428992	 1.9802394067	-0.455707
H	 0.8242306803	 1.9900343066	-0.0093010932	 0.151986
H	-0.3844861834	 1.6524188247	-1.2552270739	 0.111273
H	-0.8922884094	 1.8970158738	 0.4228477794	 0.110118
H	-0.8107649123	-0.6236221468	-0.2951608393	 0.089983
H	 1.4387442558	-1.6288574346	-0.8390534261	 0.101306
H	 3.3402652387	-0.4477850917	 0.1788123027	 0.226632
H	 2.5452674635	-0.7355837685	 2.268932876	 0.112802
H	 1.8083109479	 3.1750208528	 3.6156750991	 0.196498
H	-0.7318661178	-1.2718848834	 2.384428155	 0.290708
110.5372	126.4943	174.5595	207.6992	246.4512	275.2647	313.5484	344.8838	415.3601	502.9769	551.0692	580.9176	614.7814	652.0553	660.1123	739.3652	768.857	829.7389	911.8865	928.4648	973.0344	980.8181	1039.8978	1064.868	1078.2281	1125.0881	1140.1913	1178.7875	1225.7987	1239.5123	1313.4908	1339.5201	1354.6544	1370.805	1414.2233	1479.9777	1495.3445	1505.942	2230.716	3035.7745	3036.5949	3091.8983	3116.0013	3142.5616	3191.2561	3502.45	3520.2765	3787.8907
CC1C2NC(C#C)C12O	C[C@H]1[C@H]2N[C@@H](C#C)[C@@]12O	
InChI=1S/C7H9NO/c1-3-5-7(9)4(2)6(7)8-5/h1,4-6,8-9H,2H3	InChI=1S/C7H9NO/c1-3-5-7(9)4(2)6(7)8-5/h1,4-6,8-9H,2H3/t4-,5-,6+,7-/m0/s1
