21
gdb 90670	4.12743	1.03043	1.01129	1.6656	82.83	-0.2407	0.0779	0.3186	1278.9112	0.183019	-387.042992	-387.034639	-387.033695	-387.076028	32.947	
O	 0.1941516271	 1.2998451495	-0.1587136602	-0.438405
C	 0.0127035206	-0.0947611965	-0.0551775883	 0.158377
C	 0.2923231289	-0.7041977403	 1.3606036175	-0.280746
C	-1.1673116721	-1.1724767919	 1.4364954199	-0.134512
C	-1.4461430898	-0.5691246745	 0.0470745437	-0.201748
C	-1.5009132453	-2.0484077686	 0.267184388	 0.390018
C	-0.6772144074	-3.2034893104	-0.3327560316	-0.299622
C	-1.8875800752	-4.1438604846	-0.0558498969	-0.206322
C	-2.7810459251	-2.8991299245	 0.2197068295	-0.309497
H	-0.3418220698	 1.717066543	 0.52532736	 0.275663
H	 0.5900447762	-0.5211715255	-0.8816470858	 0.086177
H	 1.0664659602	-1.4749763839	 1.4419905471	 0.095387
H	 0.5251458752	 0.0973628554	 2.0674005156	 0.098625
H	-1.7879464811	-1.1647386133	 2.3264141105	 0.079462
H	-2.3023417111	-0.0118225791	-0.3200873327	 0.080761
H	-0.4799197551	-3.0728982397	-1.4015920161	 0.102589
H	 0.2635322183	-3.4554308966	 0.1637774183	 0.100089
H	-2.197705505	-4.7964571847	-0.8744456134	 0.098802
H	-1.7410373328	-4.7549442598	 0.8379925246	 0.104674
H	-3.3953750362	-2.9192811835	 1.1244284301	 0.098722
H	-3.4250736801	-2.6469354804	-0.6288217699	 0.101507
73.995	109.7914	190.0827	221.4209	291.152	359.7134	387.344	428.7804	472.6713	591.5402	702.3841	732.0505	791.7189	829.3702	851.2961	866.3554	877.0572	940.0571	943.55	954.1338	972.7309	990.9196	1012.7681	1035.3234	1059.2043	1098.1661	1113.8774	1146.363	1161.0565	1202.3896	1220.118	1229.7143	1232.2104	1249.1305	1255.4008	1277.9824	1280.2963	1290.8952	1310.8784	1426.1332	1432.3812	1475.279	1481.0995	1484.2591	1506.6712	3038.9046	3043.5035	3047.6857	3059.5247	3067.2834	3089.2119	3095.167	3098.057	3122.9351	3154.9952	3165.9138	3793.0382
OC1CC2C1C21CCC1	O[C@H]1C[C@H]2[C@@H]1C12CCC1	
InChI=1S/C8H12O/c9-6-4-5-7(6)8(5)2-1-3-8/h5-7,9H,1-4H2	InChI=1S/C8H12O/c9-6-4-5-7(6)8(5)2-1-3-8/h5-7,9H,1-4H2/t5-,6-,7-/m0/s1
