15
gdb 21116	5.10389	1.58599	1.21924	3.4065	76.	-0.1998	-0.0328	0.1669	954.067	0.120967	-358.842925	-358.835792	-358.834848	-358.874311	26.473	
C	-0.0394218803	 1.4455062279	-0.0249722329	-0.32286
N	-0.0141750753	-0.0065619252	-0.0327175892	-0.317958
C	 0.5679091966	-0.6216281296	 0.9382713785	 0.283592
C	 0.6172571986	-2.0730528126	 0.9724868309	-0.182251
C	 1.2294443689	-2.7056008019	 1.9949458667	 0.032562
N	 1.8098672482	-1.9909225579	 3.0093736241	-0.229711
N	 1.8186165881	-0.648745077	 3.0688642629	-0.183217
C	 1.2376306968	-0.0100064894	 2.1000066254	-0.062541
H	 0.9668494565	 1.8929959135	-0.0510392362	 0.107654
H	-0.5730930448	 1.7958163898	-0.9128992686	 0.116619
H	-0.5573697927	 1.8626234301	 0.8532296275	 0.107509
H	 0.1557403267	-2.6284092593	 0.1663235973	 0.117356
H	 1.3038559072	-3.7829243904	 2.0850406695	 0.133007
H	 2.2711710831	-2.4439779626	 3.7794760624	 0.276997
H	 1.2732655726	 1.0690993447	 2.195811852	 0.123243
103.8984	143.3883	239.7733	240.902	393.7158	460.1832	465.7234	538.4162	560.4981	635.6032	742.2275	793.3263	835.287	932.7164	964.4735	993.4062	1019.5151	1060.514	1096.3515	1100.1005	1167.7054	1248.5709	1294.9883	1385.9766	1429.4219	1435.2845	1483.306	1502.8136	1507.4769	1620.6939	1653.0397	1694.1381	2963.7032	3008.8753	3088.7997	3199.0764	3201.7313	3225.4762	3667.3163
CN=C1C=CNN=C1	C[N]C1=CCNN=C1	
InChI=1S/C5H7N3/c1-6-5-2-3-7-8-4-5/h2-4H,1H3,(H,6,7)	InChI=1S/C5H8N3/c1-6-5-2-3-7-8-4-5/h2,4,7H,3H2,1H3
