22
gdb 22285	3.94289	0.83577	0.74682	0.5832	86.34	-0.2357	0.0188	0.2544	1591.8807	0.192196	-404.309309	-404.299035	-404.298091	-404.345264	37.572	
C	-0.186635964	 1.5254288135	-0.0406533705	-0.391388
C	-0.0093894129	 0.014288171	 0.0748825082	 0.027947
C	 1.0630997856	-0.5860692876	-0.8818504525	-0.247582
C	 2.0654148132	-0.6382039017	 0.2990537493	-0.043995
C	 0.8633796524	-0.4385394375	 1.2838549033	-0.240323
C	 2.9365807152	-1.840841683	 0.5009846611	 0.342445
C	 3.8400977695	-1.8843402667	 1.7062308291	-0.472106
N	 2.8615302875	-2.7811510125	-0.3615960471	-0.174184
O	 3.7223251326	-3.8476523702	-0.0406701156	-0.402703
H	 0.7758383867	 2.0483371069	 0.0102078853	 0.111454
H	-0.6571444273	 1.7944673831	-0.9928533104	 0.113607
H	-0.8170415658	 1.9138395352	 0.7670182193	 0.111425
H	-0.9883470022	-0.4709065591	 0.0210391297	 0.067138
H	 0.8102124965	-1.5889793128	-1.2284276697	 0.116992
H	 1.3510343509	 0.0206434293	-1.744581256	 0.092226
H	 2.7042256108	 0.2533957695	 0.3177384015	 0.080544
H	 0.9962490369	 0.2804942212	 2.097156151	 0.093066
H	 0.5269677013	-1.3895548808	 1.70565337	 0.102481
H	 3.6427262889	-2.7805662748	 2.3022555997	 0.146499
H	 4.8881141092	-1.9449489678	 1.3941405492	 0.145664
H	 3.7071460553	-1.0005887517	 2.3335424754	 0.117183
H	 3.5587659996	-4.4606691235	-0.7646912606	 0.303612
56.7483	67.6441	73.8601	133.7834	194.8213	251.6172	294.0055	325.1942	328.0809	383.5133	434.2206	445.2495	534.6256	589.1638	708.7809	790.9369	820.3276	860.0341	901.9926	919.5184	947.5908	968.8936	1007.8871	1016.7047	1025.2867	1068.9569	1082.2232	1139.7218	1145.6556	1221.961	1229.7333	1241.2328	1262.7177	1277.3581	1279.1485	1359.4074	1375.4195	1398.2377	1404.6801	1410.4146	1473.6124	1475.245	1484.9234	1494.7479	1497.7274	1500.4302	1725.1942	3020.9718	3025.4475	3042.9828	3047.5656	3054.5693	3067.2434	3088.8942	3091.6578	3101.7084	3106.9363	3131.046	3132.3182	3823.6219
CC1CC(C1)C(C)=NO	C[C@H]1C[C@@H](C1)C(=NO)C	
InChI=1S/C7H13NO/c1-5-3-7(4-5)6(2)8-9/h5,7,9H,3-4H2,1-2H3	InChI=1S/C7H13NO/c1-5-3-7(4-5)6(2)8-9/h5,7,9H,3-4H2,1-2H3/t5-,7-
