16
gdb 69177	2.20934	1.89905	1.26556	4.0091	70.32	-0.2367	-0.033	0.2037	1011.0069	0.122568	-437.825366	-437.817224	-437.81628	-437.857996	30.427	
C	-0.0087544225	 1.5367834483	 0.0155935469	-0.509101
C	 0.0840523867	 0.0455576468	 0.0004265697	 0.222705
N	-0.8249374323	-0.8651374195	 0.7149700028	-0.368131
C	 0.651041961	-0.9225177582	 1.015355139	-0.276086
C	 1.2543002454	-1.7539006479	-0.10227491	 0.410697
O	 2.0618504599	-2.6314351313	-0.1633788543	-0.305188
C	 0.6131151345	-0.8140460205	-1.1492363268	 0.318392
C	 0.1563207557	-1.0126396136	-2.5206877666	-0.255507
O	 1.3655760734	-0.2929692682	-2.2248095737	-0.272245
H	 0.9013282981	 1.9797194348	-0.3983792901	 0.151721
H	-0.8545396791	 1.8817894127	-0.5898487007	 0.137933
H	-0.1478606931	 1.9136946888	 1.0339505708	 0.126196
H	-1.238534536	-0.3398490299	 1.4879010139	 0.238447
H	 1.0240666883	-0.7532710848	 2.017113807	 0.119158
H	 0.2998194219	-1.9805669406	-2.9965285384	 0.136806
H	-0.6646553819	-0.4085780468	-2.9029667895	 0.124205
96.7859	171.3676	192.9658	207.1252	231.6679	279.3927	364.9153	467.0067	517.3077	595.3338	637.5262	688.7777	752.9884	813.818	824.9104	908.1475	938.7864	973.9558	988.9148	1004.0317	1048.0134	1103.3037	1109.6983	1121.6544	1133.6568	1163.2683	1281.2899	1322.7015	1390.9642	1425.9123	1456.2746	1479.7914	1497.9986	1531.2196	1900.8346	3033.6701	3092.1241	3096.2225	3118.1165	3185.6553	3207.7862	3445.4382
CC12NC1C(=O)C21CO1	C[C@]12N[C@H]1C(=O)[C@]12CO1	
InChI=1S/C6H7NO2/c1-5-3(7-5)4(8)6(5)2-9-6/h3,7H,2H2,1H3	InChI=1S/C6H7NO2/c1-5-3(7-5)4(8)6(5)2-9-6/h3,7H,2H2,1H3/t3-,5-,6-/m0/s1
