21
gdb 96131	2.17354	1.72783	1.18893	1.9354	77.69	-0.2423	0.0692	0.3115	1112.9073	0.183667	-424.226747	-424.218179	-424.217235	-424.259294	34.554	
O	-0.0773364525	 1.4165193546	-0.0728235232	-0.456546
C	-0.0086611428	-0.0092868197	 0.0265540741	 0.050152
C	 0.804132227	-0.4928353514	 1.2300869786	-0.246842
C	 0.692160075	-2.0181803766	 1.3565262234	-0.200636
C	-0.7506608167	-2.4666883983	 1.6519822736	-0.220742
C	-1.8033404648	-1.7245066151	 0.8266856138	-0.083243
C	-2.2889287031	-0.3547774193	 1.2723989605	-0.341557
C	-1.4370533549	-0.4992478472	 0.0377648435	 0.448407
O	-2.0765162189	-0.357972129	-1.2023521907	-0.486927
H	 0.805227805	 1.7438875368	-0.2736316858	 0.280758
H	 0.4505334728	-0.4187371609	-0.8882295721	 0.070061
H	 1.851395162	-0.1930720646	 1.1000023112	 0.08451
H	 0.4466749887	 0.0046126306	 2.1397230543	 0.106031
H	 1.0282032202	-2.4714665201	 0.4145390021	 0.100263
H	 1.3651400334	-2.3892340971	 2.1367470013	 0.094031
H	-0.8367959707	-3.5424773516	 1.4679007322	 0.100569
H	-0.9629733204	-2.3243124194	 2.7192384001	 0.101004
H	-2.5589807712	-2.3428255112	 0.3529868784	 0.095732
H	-3.3322578483	-0.1132401857	 1.1050269337	 0.11073
H	-1.8576838755	 0.0750584894	 2.1708063834	 0.109572
H	-2.0398402042	 0.583582216	-1.4116062624	 0.284674
103.3891	201.2458	239.7825	244.5512	288.5978	336.1314	354.4156	403.6876	441.8148	458.3182	489.8633	530.1302	635.536	691.6251	783.5052	849.3906	878.1406	902.8905	913.9482	937.2026	968.5275	992.5208	1038.5122	1059.3892	1083.1483	1104.6959	1115.2929	1127.2258	1175.8543	1205.9089	1219.6288	1247.2805	1284.1563	1293.9665	1337.2538	1353.1157	1364.192	1382.3062	1389.6504	1416.2524	1444.2329	1482.3248	1494.1181	1496.009	1506.8294	2966.5275	3019.1725	3023.0652	3026.0045	3065.4068	3067.1705	3076.3833	3128.8497	3161.567	3220.5101	3782.2406	3817.2479
OC1CCCC2CC12O	O[C@H]1CCC[C@H]2C[C@@]12O	
InChI=1S/C7H12O2/c8-6-3-1-2-5-4-7(5,6)9/h5-6,8-9H,1-4H2	InChI=1S/C7H12O2/c8-6-3-1-2-5-4-7(5,6)9/h5-6,8-9H,1-4H2/t5-,6-,7-/m0/s1
