16
gdb 18280	4.3504	1.63264	1.35218	2.8936	60.13	-0.2524	0.0844	0.3368	906.0261	0.131066	-420.850028	-420.842906	-420.841962	-420.881609	26.609	
O	 0.1153353038	 1.3225438559	-0.1538665642	-0.424709
C	 0.069310137	-0.0813523128	 0.0034168709	-0.067951
C	-1.3680812482	-0.5785289179	 0.1197548774	 0.086976
O	-2.0565670424	-0.1363703517	-1.0597410694	-0.288191
C	-3.0232270034	-1.0992451684	-1.4668922954	-0.106742
C	-2.5740510711	-2.4073289082	-0.8549031519	 0.029507
O	-1.1967943551	-2.6990361035	-1.1098518116	-0.246623
C	-1.5472151276	-2.0823262697	 0.1365151248	-0.005124
H	-0.4569405703	 1.5234371769	-0.9036018931	 0.29337
H	 0.5494294152	-0.6057642878	-0.8351669147	 0.10673
H	 0.6202973535	-0.3178539604	 0.9201355354	 0.104283
H	-1.838662291	-0.146558638	 1.0181297125	 0.079608
H	-4.0295653582	-0.8446270199	-1.0975774685	 0.100428
H	-3.0453972674	-1.1135844757	-2.5615214273	 0.1229
H	-3.24667022	-3.2570499105	-0.7786521667	 0.107405
H	-1.3635263748	-2.6628328383	 1.0360604117	 0.108133
98.6032	139.1716	183.9925	294.3452	378.4285	436.5843	450.2954	513.0249	693.2104	778.2637	832.9078	837.715	885.3433	924.7355	970.4145	1005.3126	1033.705	1067.9084	1080.2208	1107.6861	1115.6766	1123.4188	1221.755	1233.9147	1257.8282	1302.6023	1325.5706	1340.2944	1374.5987	1398.5393	1434.3618	1445.4421	1499.5843	1506.4883	2975.3836	2984.1213	3008.0187	3073.8826	3076.3569	3154.8063	3167.3889	3799.5273
OCC1OCC2OC12	OC[C@H]1OC[C@H]2O[C@@H]12	
InChI=1S/C5H8O3/c6-1-3-5-4(8-5)2-7-3/h3-6H,1-2H2	InChI=1S/C5H8O3/c6-1-3-5-4(8-5)2-7-3/h3-6H,1-2H2/t3-,4-,5+/m1/s1
