14
gdb 9154	7.909	0.77824	0.71472	2.8982	83.32	-0.2621	-0.077	0.1851	1511.522	0.103631	-345.369809	-345.36086	-345.359916	-345.404113	30.729	
C	-0.0635683432	 1.5131599674	 0.1008849763	-0.387311
C	 0.0364002354	-0.0018312595	-0.0558502313	-0.279761
C	 0.7617236138	-0.4267846735	-1.3211492319	 0.139417
O	 1.216306189	 0.3568353285	-2.1276215355	-0.279717
C	 0.8829488275	-1.8611993891	-1.5152094876	 0.346365
C	 0.9859350064	-3.0587518119	-1.6800657387	-0.142313
C	 1.0997674478	-4.3993946952	-1.8621004964	 0.290846
C	 1.2002714846	-5.5921248205	-2.0227494894	-0.544996
H	 0.9289479553	 1.9693499581	 0.1336976645	 0.135462
H	-0.5994082202	 1.9589229508	-0.7407969073	 0.135508
H	-0.5930013077	 1.7664554784	 1.0232429427	 0.113045
H	 0.5572032997	-0.4637194539	 0.7940735087	 0.134451
H	-0.9554137918	-0.474140376	-0.0695936706	 0.134469
H	 1.2895014733	-6.6409862836	-2.1655742933	 0.204535
53.1689	69.2418	114.1594	190.9057	207.1076	268.8468	298.9275	395.8645	488.4046	537.8022	553.8355	592.4335	596.9779	634.9771	717.7882	806.6281	935.1004	1014.3341	1088.8763	1090.5303	1197.1464	1271.9974	1370.1847	1413.5719	1447.3062	1491.3245	1497.2739	1757.4101	2172.5379	2333.217	3022.4167	3049.3825	3053.3028	3125.9991	3129.252	3500.6093
CCC(=O)C#CC#C	CCC(=O)C#CC#C	
InChI=1S/C7H6O/c1-3-5-6-7(8)4-2/h1H,4H2,2H3	InChI=1S/C7H6O/c1-3-5-6-7(8)4-2/h1H,4H2,2H3
