23
gdb 120978	3.66904	0.87665	0.8182	1.6647	85.61	-0.2387	0.0745	0.3132	1540.1135	0.206087	-388.262537	-388.253344	-388.2524	-388.297218	34.501	
C	-0.0956611911	 1.562592093	-0.1866600794	-0.377956
C	-0.0714489138	 0.0318342141	-0.159142875	-0.165993
C	 0.8194584315	-0.5719337725	-1.2516123532	-0.18195
C	 0.837181637	-2.0945879035	-1.2475325876	 0.012671
C	-0.4658159434	-2.8785797436	-1.627536882	-0.256397
C	 0.330189083	-3.7042262601	-2.6781959018	-0.078806
C	 0.3679912719	-3.0652489217	-4.0726841171	-0.073265
O	 1.4352490495	-2.1676268514	-3.6836179304	-0.29243
C	 1.5776430686	-2.8178854491	-2.3995088429	 0.093226
H	 0.9088936573	 1.9763755333	-0.0442442197	 0.113391
H	-0.4703539391	 1.9338446053	-1.1469919867	 0.114377
H	-0.7379184803	 1.9683427088	 0.6014693712	 0.108513
H	 0.2749711935	-0.3122246104	 0.8247399813	 0.090291
H	-1.0944167013	-0.3514687722	-0.2695768016	 0.096027
H	 0.4901519429	-0.2255821329	-2.2384751376	 0.105419
H	 1.846474839	-0.1999987135	-1.1290281564	 0.09069
H	 1.2248327078	-2.4622720507	-0.2889793246	 0.066284
H	-0.89425696	-3.4669820707	-0.8135203168	 0.101259
H	-1.2625089808	-2.2642681659	-2.059882939	 0.097076
H	 0.3083293205	-4.7903371537	-2.6039267046	 0.074521
H	 0.6929790401	-3.7378407814	-4.8777967662	 0.097684
H	-0.5334281368	-2.5290697519	-4.3960385733	 0.098141
H	 2.6001368539	-3.1706342395	-2.2336587968	 0.067226
63.5842	93.3202	103.7251	130.95	240.7641	259.5983	310.9011	361.1505	407.7372	520.9408	680.4703	745.3811	768.4293	804.8063	840.7343	851.189	898.79	915.4915	924.6561	948.6752	997.3306	1009.8082	1020.1009	1039.9507	1061.1275	1094.4469	1128.8097	1145.9068	1149.7512	1185.1989	1200.5347	1219.8825	1248.7999	1265.2258	1273.0975	1298.4491	1304.2849	1320.6808	1333.9767	1360.2659	1367.188	1395.5578	1413.2293	1479.049	1487.447	1496.0502	1498.3931	1511.7809	1522.324	3001.5364	3008.0735	3015.1951	3021.8545	3028.935	3039.1358	3045.877	3049.0528	3059.6288	3068.0064	3096.0823	3099.787	3104.967	3123.5459
CCCC1CC2COC12	CCC[C@H]1C[C@H]2CO[C@@H]12	
InChI=1S/C8H14O/c1-2-3-6-4-7-5-9-8(6)7/h6-8H,2-5H2,1H3	InChI=1S/C8H14O/c1-2-3-6-4-7-5-9-8(6)7/h6-8H,2-5H2,1H3/t6-,7-,8-/m0/s1
