17
gdb 50115	3.30564	0.79216	0.69595	4.0117	74.95	-0.2654	-0.0127	0.2527	1566.1572	0.135246	-418.01422	-418.005129	-418.004184	-418.049311	31.663	
O	-0.0877165679	 0.5515131181	-0.5929024152	-0.280012
C	 0.0714513992	 1.6479807895	-0.1170127853	 0.134151
N	 1.2217991844	 2.0720992393	 0.5255536117	-0.060519
C	 2.5579987195	 1.7151960014	 0.1148751654	-0.253777
C	 2.1162751728	 3.1520689568	 0.1312527383	-0.01772
C	 1.9236539411	 3.9059464383	-1.1663646682	-0.214769
C	 0.9432716921	 5.0907756331	-1.0191388415	-0.342648
C	 0.8334049527	 5.874333778	-2.2472178621	 0.26055
N	 0.7622602476	 6.4827057243	-3.2267868786	-0.295209
H	-0.7290693085	 2.4120343704	-0.0757024883	 0.085151
H	 3.2168106931	 1.3447214504	 0.8947852756	 0.13587
H	 2.6585825905	 1.2247723338	-0.850423094	 0.14362
H	 2.4506016692	 3.7670523631	 0.966898614	 0.109068
H	 2.8953209954	 4.2903155975	-1.4956368909	 0.138585
H	 1.5674615426	 3.2265021289	-1.9475976317	 0.139356
H	-0.054275836	 4.732052133	-0.7424891144	 0.159999
H	 1.2731471822	 5.7546782641	-0.2115046848	 0.158304
50.615	92.6066	117.8442	122.3154	218.0016	221.4382	318.7575	379.7413	399.2037	485.1653	544.7374	617.5421	776.1702	806.7497	879.7906	933.0803	956.7337	1020.1696	1029.5269	1038.8382	1097.3403	1098.1814	1136.0742	1150.5979	1169.1012	1225.2901	1285.9423	1317.4792	1370.3793	1380.7728	1418.3883	1435.9015	1467.053	1485.8516	1514.0448	1800.8882	2365.7935	2943.9887	3041.0973	3051.2233	3076.5499	3095.8459	3112.1711	3113.9425	3203.1613
O=CN1CC1CCC#N	O=CN1C[C@H]1CCC#N	
InChI=1S/C6H8N2O/c7-3-1-2-6-4-8(6)5-9/h5-6H,1-2,4H2	InChI=1S/C6H8N2O/c7-3-1-2-6-4-8(6)5-9/h5-6H,1-2,4H2/t6-,8?/m1/s1
