19
gdb 68303	3.14004	1.22254	1.04628	2.4972	76.23	-0.2375	0.0794	0.3169	1199.6449	0.15789	-422.93784	-422.929568	-422.928624	-422.970943	31.666	
C	-0.4919327678	 1.3786902933	-0.0843896133	-0.512023
C	-0.0892263405	-0.0624319129	-0.0770768817	 0.39136
C	 0.7330094597	-0.8738945049	-1.1142937962	-0.262321
C	 0.5606984398	-1.7225511727	 0.161946314	 0.032988
O	 0.8734688974	-0.5213001863	 0.9706149912	-0.348893
C	-0.9436030761	-1.3415242147	 0.2077398021	-0.039299
C	-1.665924581	-1.4421998131	 1.5156205101	 0.056326
C	-3.1324332406	-1.3782881768	 1.5896309453	-0.187604
O	-2.4543824424	-2.6274456183	 1.7033808162	-0.240873
H	 0.3882359235	 2.0195582707	-0.19230054	 0.137407
H	-1.1694703135	 1.5778159455	-0.9207913608	 0.128321
H	-1.00344764	 1.6448120525	 0.8454826387	 0.134696
H	 0.2317119761	-1.2008721755	-2.0290778457	 0.095123
H	 1.7440613831	-0.5025266386	-1.2855051828	 0.107127
H	 1.042381721	-2.656830804	 0.4474820434	 0.100798
H	-1.5589762778	-1.7067355015	-0.6204136573	 0.074364
H	-1.0897634477	-1.1413611494	 2.3875453037	 0.110072
H	-3.6125478074	-1.018750665	 2.4989788136	 0.115012
H	-3.7123193957	-1.2425101881	 0.6767434293	 0.107419
69.3021	141.0312	172.75	207.6069	273.9542	313.8102	348.7192	473.4377	511.0963	636.0211	643.9675	742.1588	768.5327	850.7196	866.882	878.3064	911.6016	922.557	955.6623	1014.3852	1022.9354	1033.9769	1093.7218	1113.7772	1133.4009	1152.0361	1162.9024	1174.8029	1192.8201	1202.4816	1225.9971	1245.2611	1275.9332	1312.4517	1341.9065	1411.504	1457.5998	1477.1414	1487.914	1495.6004	1529.7091	3039.8312	3058.1173	3069.2754	3076.8148	3113.5409	3116.2409	3130.2829	3143.9313	3147.532	3163.6794
CC12CC(O1)C2C1CO1	C[C@@]12C[C@@H](O1)[C@H]2[C@H]1CO1	
InChI=1S/C7H10O2/c1-7-2-4(9-7)6(7)5-3-8-5/h4-6H,2-3H2,1H3	InChI=1S/C7H10O2/c1-7-2-4(9-7)6(7)5-3-8-5/h4-6H,2-3H2,1H3/t4-,5-,6+,7+/m1/s1
