19
gdb 15908	2.50914	1.94219	1.22763	1.8601	68.02	-0.2264	0.0676	0.294	1012.8916	0.16494	-402.160095	-402.151297	-402.150353	-402.193777	32.237	
C	 0.0963866937	 1.5326883357	 0.1639480372	-0.330485
N	 0.0972515305	 0.0812986493	 0.1416086542	-0.10877
C	-1.1967901138	-0.596536936	 0.3777708283	-0.205692
C	-0.468077681	-1.6583567929	 1.2350029804	 0.109031
O	-0.2112268852	-2.8879033249	 0.5967899021	-0.427536
C	 0.7122006648	-0.6343503922	 1.2901800816	 0.004876
C	 2.1383565277	-1.11337647	 1.0289147133	-0.081413
O	 2.9257960553	-0.0939157968	 0.4316375034	-0.419118
H	 1.1246504788	 1.9031734053	 0.1633129505	 0.130362
H	-0.4144658921	 1.9207811953	-0.7239524682	 0.118914
H	-0.4118448052	 1.9422598792	 1.0572811763	 0.095083
H	-1.8998894331	 0.0107843463	 0.9700059623	 0.091513
H	-1.7114596873	-0.9556838305	-0.5213738384	 0.100281
H	-0.9239406882	-1.9089365094	 2.1931573148	 0.096297
H	 0.068302248	-2.7037178539	-0.3066725451	 0.287111
H	 0.6688111758	-0.034277529	 2.2133816085	 0.060833
H	 2.6304494773	-1.3834347866	 1.9683711227	 0.110959
H	 2.1181196924	-2.0150043934	 0.4009223546	 0.08078
H	 2.4990805915	 0.1040177645	-0.4101604784	 0.286974
55.4922	75.664	180.8196	224.8402	268.7492	294.7457	339.4678	361.9253	401.0478	470.5054	510.8502	542.9811	734.8132	807.0651	863.158	886.8596	975.7036	1012.8655	1020.817	1068.8477	1100.6524	1114.8093	1147.1807	1167.1059	1193.1127	1211.1866	1228.3298	1246.4091	1279.0846	1305.3569	1323.4955	1358.8733	1392.4344	1424.5289	1439.4499	1449.7522	1488.7617	1503.0667	1507.1831	1512.3845	2931.8578	2967.7697	2977.6389	3007.4463	3049.8524	3061.8189	3083.3722	3112.7855	3116.8245	3794.6965	3805.6702
CN1CC(O)C1CO	CN1C[C@@H](O)[C@H]1CO	
InChI=1S/C5H11NO2/c1-6-2-5(8)4(6)3-7/h4-5,7-8H,2-3H2,1H3	InChI=1S/C5H11NO2/c1-6-2-5(8)4(6)3-7/h4-5,7-8H,2-3H2,1H3/t4-,5-/m1/s1
