23
gdb 89978	3.12773	1.15698	1.00933	1.2614	85.39	-0.2473	0.0734	0.3207	1289.6305	0.205432	-388.270599	-388.261204	-388.26026	-388.304457	36.414	
C	-0.0779591353	 1.5507242995	-0.2608842495	-0.388994
C	-0.0130282314	 0.0265403584	-0.1856727808	-0.110334
C	 1.2411395143	-0.5931759381	-0.8587671382	 0.144288
O	 1.8336453634	 0.2165313915	-1.8494501644	-0.432579
C	 1.9137576223	-0.6960171877	 0.5355320211	-0.341183
C	 0.5030281626	-0.5398494606	 1.1689029495	 0.395821
C	 0.343477208	 0.1388813357	 2.5525260895	-0.28744
C	 0.1934562167	-1.2692654278	 3.1897894377	-0.211121
C	-0.1179334398	-1.8294495371	 1.7767299513	-0.281238
H	 0.8467700195	 2.0170104912	 0.0916296888	 0.116459
H	-0.2362124204	 1.8799187293	-1.2913846509	 0.124624
H	-0.9022239318	 1.9314592693	 0.3510574627	 0.105931
H	-0.9660554031	-0.3972656442	-0.5214334077	 0.058597
H	 1.0123581375	-1.5926072597	-1.2559219353	 0.063543
H	 2.6330799561	-0.2211908187	-2.1581239816	 0.281382
H	 2.4835025437	-1.6005202968	 0.7695837235	 0.087839
H	 2.5418516384	 0.1811367847	 0.7207889146	 0.100973
H	 1.1660055879	 0.7717438573	 2.8975824203	 0.092079
H	-0.5860736979	 0.7137608327	 2.6173841842	 0.098593
H	 1.1455126651	-1.6438787961	 3.5758179986	 0.10163
H	-0.567162416	-1.3972658211	 3.9634310038	 0.094198
H	-1.1958310196	-1.8800400755	 1.5888654968	 0.095939
H	 0.3279481397	-2.7884545962	 1.496095846	 0.090992
79.5489	117.0594	180.4275	211.6809	234.6716	237.2226	288.164	328.5988	378.0283	431.9808	476.0624	585.9581	666.7898	719.8483	793.1024	807.9517	866.1156	887.3571	897.3059	933.3787	938.9342	960.1838	997.1698	1021.9111	1048.9406	1075.3275	1099.7817	1156.1792	1174.621	1186.0199	1191.9233	1203.6589	1233.8371	1240.2046	1255.2085	1256.8016	1277.5642	1287.2417	1310.8473	1329.5715	1358.8628	1405.9337	1427.3729	1472.5255	1480.3446	1487.0998	1492.622	1497.8041	1506.4795	2988.371	3035.1336	3037.6019	3038.7109	3042.371	3046.4294	3059.7109	3085.4856	3091.7746	3097.366	3105.6658	3115.0045	3116.5124	3817.6916
CC1C(O)CC11CCC1	C[C@H]1[C@@H](O)CC21CCC2	
InChI=1S/C8H14O/c1-6-7(9)5-8(6)3-2-4-8/h6-7,9H,2-5H2,1H3	InChI=1S/C8H14O/c1-6-7(9)5-8(6)3-2-4-8/h6-7,9H,2-5H2,1H3/t6-,7-/m0/s1
