17
gdb 113280	2.69554	1.08301	0.86587	2.717	77.39	-0.2611	-0.0447	0.2164	1364.9308	0.1315	-421.778572	-421.768831	-421.767886	-421.813715	34.599	
C	-0.0556833897	 1.4538747222	-0.5081586961	-0.380061
C	 0.0562770486	 0.011719797	 0.0042409684	-0.229578
C	-1.3093020404	-0.5793302232	 0.2665636136	 0.049174
O	-2.0787325334	-1.0320152136	-0.8338979033	-0.271525
C	-1.6836079526	-2.0256348319	 0.1392629687	 0.04779
C	-0.6591518797	-3.0023473126	-0.3840356787	 0.103177
O	-0.450885191	-4.0833489665	 0.0947900134	-0.232309
C	-2.7168873695	-2.5608240661	 0.9850732553	 0.285334
C	-3.5784507563	-3.0100226909	 1.6907951658	-0.400556
H	 0.935328752	 1.8826518794	-0.6798213322	 0.123235
H	-0.6105034343	 1.4882634204	-1.4503721923	 0.137976
H	-0.5773433317	 2.0917349187	 0.2132691523	 0.12338
H	 0.6058919625	-0.5966607813	-0.7185037896	 0.11185
H	 0.6242737134	-0.0118837574	 0.9423544745	 0.118957
H	-1.8983415081	-0.0406943617	 1.0126491211	 0.111311
H	-0.1192432411	-2.6267851531	-1.2774532922	 0.096884
H	-4.3384875986	-3.4147568094	 2.3128797711	 0.20496
63.5071	80.4651	128.1144	134.1401	196.0166	226.5333	290.0805	298.9225	368.9294	441.5344	471.0659	579.5077	591.4633	631.0559	676.028	757.2608	757.7624	833.7664	889.3363	936.5184	1022.0929	1041.3828	1066.6916	1127.273	1156.2377	1253.3905	1295.668	1306.1336	1347.5892	1399.7398	1410.8686	1457.3603	1475.9882	1498.0107	1507.1997	1834.46	2246.2071	2925.3731	3039.5494	3041.955	3083.3634	3096.2672	3115.5287	3120.7881	3500.7273
CCC1OC1(C=O)C#C	CC[C@H]1O[C@]1(C=O)C#C	
InChI=1S/C7H8O2/c1-3-6-7(4-2,5-8)9-6/h2,5-6H,3H2,1H3	InChI=1S/C7H8O2/c1-3-6-7(4-2,5-8)9-6/h2,5-6H,3H2,1H3/t6-,7+/m1/s1
