14
gdb 125532	5.44239	1.37562	1.10564	2.8776	69.9	-0.227	-0.0128	0.2142	1033.4521	0.103377	-432.894133	-432.88737	-432.886426	-432.925351	25.556	
C	 0.0357232419	 1.4212850235	-0.0000612229	-0.492979
C	-0.0473441172	-0.0565207458	-0.008096741	 0.393241
N	-1.0948937736	-0.7794596382	-0.258876992	-0.289069
N	-0.6130337573	-2.0627904729	-0.1306669865	 0.025429
C	-1.0069333016	-3.3843330071	-0.2164893746	-0.145849
C	 0.1499429045	-4.0758581781	 0.0724574731	-0.088662
N	 1.2352821364	-3.241272228	 0.331599107	-0.395209
C	 0.7003089068	-2.0663050705	 0.1910810104	 0.467915
O	 1.095460146	-0.7673493034	 0.2775175666	-0.228088
H	 0.7682909811	 1.7711863777	-0.7340834014	 0.160722
H	-0.9436246875	 1.8341713191	-0.2426968989	 0.16712
H	 0.3490182308	 1.7854789527	 0.9833188015	 0.16071
H	-2.0096401492	-3.6857904371	-0.4596775316	 0.14544
H	 0.2698686191	-5.1476126719	 0.1104539002	 0.119281
135.2362	139.2985	283.3922	289.553	344.9451	531.3022	596.9918	618.8441	655.3569	696.8157	741.0095	786.4276	822.5087	840.5737	947.9021	963.1262	1036.6662	1067.4533	1076.1213	1153.7963	1179.6521	1270.8541	1302.8721	1404.2411	1433.6324	1458.7378	1469.9077	1480.0679	1496.4729	1619.0139	1652.9725	3049.5494	3107.895	3160.8406	3256.5417	3306.7372
CC1=NN2C=CN=C2O1	Cc1nn2ccnc2o1	
InChI=1S/C5H5N3O/c1-4-7-8-3-2-6-5(8)9-4/h2-3H,1H3	InChI=1S/C5H5N3O/c1-4-7-8-3-2-6-5(8)9-4/h2-3H,1H3
