24
gdb 118133	3.33642	0.78448	0.70901	1.3677	87.37	-0.2224	0.0847	0.307	1716.5328	0.215049	-405.505826	-405.494836	-405.493892	-405.542365	39.358	
C	-0.0370286756	-4.0644915491	 2.8236279082	-0.22746
O	 1.1063885863	-3.9480029803	 2.0130922761	-0.234862
C	 0.7982980781	-3.8109900366	 0.6422028526	-0.050647
C	 2.1026254987	-3.7282071015	-0.1559468605	-0.026353
C	 2.9512035834	-4.9934906601	 0.0358027908	-0.398341
C	 1.7748391407	-3.4961366037	-1.6218750394	 0.024124
C	 1.4663158677	-2.1353216634	-2.1530128839	-0.264115
N	 2.6714851869	-2.8378487004	-2.5753888773	-0.091649
C	 3.9507723127	-2.2995879419	-2.1393676647	-0.315102
H	-0.6873720937	-3.1785604298	 2.7441724141	 0.102503
H	-0.6363684665	-4.9511834261	 2.5616444826	 0.103391
H	 0.3017713187	-4.1609994107	 3.8581458665	 0.126185
H	 0.1964407904	-4.6716638266	 0.2978274848	 0.081076
H	 0.1923903802	-2.9048450634	 0.4750202303	 0.086233
H	 2.6544876376	-2.8674750161	 0.2383930819	 0.082187
H	 3.9171147001	-4.9035688073	-0.4692124029	 0.115057
H	 3.1267301061	-5.1785729783	 1.0975934573	 0.131994
H	 2.4384697999	-5.8687664309	-0.3811534514	 0.109932
H	 1.2491608021	-4.3382376986	-2.0755801518	 0.084566
H	 0.7033290848	-1.9837651243	-2.912715695	 0.110984
H	 1.5843149006	-1.3017356472	-1.4593652171	 0.101832
H	 4.2713594285	-1.5442198209	-2.864230207	 0.122243
H	 3.9403982468	-1.8248056934	-1.1457374541	 0.102354
H	 4.7005101253	-3.0972888394	-2.13184466	 0.123868
54.9847	90.5591	94.4182	122.2556	200.3484	212.4718	221.2303	232.1777	246.6274	332.241	369.4576	387.3828	408.2269	492.8776	573.8231	746.5597	825.6113	889.1776	932.8329	934.8629	975.2802	997.1119	1035.5241	1077.9028	1115.1865	1129.6651	1143.7628	1156.0885	1164.4347	1171.4222	1189.0221	1199.9941	1207.0073	1229.471	1266.3856	1291.5189	1340.9698	1353.7356	1398.742	1422.106	1428.5972	1448.1416	1480.4721	1485.3212	1489.1968	1493.7965	1499.8873	1502.8362	1504.7704	1513.0044	1526.7361	2938.9105	2967.9643	2975.5368	2978.7537	3010.5476	3033.0169	3047.4547	3065.4542	3077.0394	3085.1399	3098.5802	3102.4299	3112.0766	3132.2333	3164.3804
COCC(C)C1CN1C	COC[C@@H](C)[C@H]1CN1C	
InChI=1S/C7H15NO/c1-6(5-9-3)7-4-8(7)2/h6-7H,4-5H2,1-3H3	InChI=1S/C7H15NO/c1-6(5-9-3)7-4-8(7)2/h6-7H,4-5H2,1-3H3/t6-,7-,8?/m1/s1
