18
gdb 55877	3.31238	0.92408	0.79494	2.4224	79.84	-0.2372	-0.0124	0.2248	1442.9873	0.143881	-401.897548	-401.887741	-401.886796	-401.933575	34.928	
C	 0.8681993558	 0.3933341595	-0.3231270967	-0.462208
C	-0.3912373126	 0.4634218548	 0.5138492375	 0.373212
O	-0.5034237439	 1.202097716	 1.4639682928	-0.291874
C	-1.5733923298	-0.4142286578	 0.0880052851	-0.249775
N	-1.1446967011	-1.6525077939	-0.5493835658	-0.094351
C	-1.0727139486	-2.8404436893	 0.2865967311	-0.248325
C	-2.1499502709	-2.7137838186	-0.7507189544	-0.17313
C	-3.5204920981	-2.5384945372	-0.3553862651	 0.3394
C	-4.6783645612	-2.387172219	-0.0668250941	-0.463171
H	 1.3301727101	-0.5939206312	-0.2207545704	 0.148216
H	 0.6324719349	 0.5086144237	-1.3859936076	 0.140908
H	 1.5651205686	 1.1664167484	 0.002465006	 0.134707
H	-2.2233203748	-0.5540992711	 0.9618861631	 0.125858
H	-2.146065457	 0.1653657988	-0.6494475625	 0.135955
H	-0.2322849662	-3.5050839666	 0.1062991353	 0.125375
H	-1.385811492	-2.7559789827	 1.3254471195	 0.131514
H	-2.0173218203	-3.2499811913	-1.6877544098	 0.122292
H	-5.6986690929	-2.2592144026	 0.1989743561	 0.205399
34.0964	60.9936	98.5231	128.3761	178.1638	208.5206	310.6854	371.3664	422.6664	494.6826	523.7957	529.3022	606.1411	621.919	671.7572	764.2564	786.4992	839.0891	862.9622	919.3604	1004.1097	1033.8358	1037.4793	1089.1343	1118.444	1136.506	1155.196	1229.4301	1265.2633	1318.5386	1345.2264	1373.1415	1383.7078	1452.2677	1461.2025	1470.5168	1503.1876	1817.0695	2234.5253	3009.7835	3046.1444	3054.1588	3099.4219	3107.697	3129.5651	3155.279	3190.9798	3501.4915
CC(=O)CN1CC1C#C	CC(=O)CN1C[C@H]1C#C	
InChI=1S/C7H9NO/c1-3-7-5-8(7)4-6(2)9/h1,7H,4-5H2,2H3	InChI=1S/C7H9NO/c1-3-7-5-8(7)4-6(2)9/h1,7H,4-5H2,2H3/t7-,8?/m1/s1
