27
gdb 101817	3.79768	0.56939	0.55551	1.4177	93.73	-0.2612	0.0738	0.335	2194.9713	0.249359	-390.707909	-390.695741	-390.694797	-390.746212	44.047	
C	-0.1580111382	 1.5426267372	 0.1080566775	-0.391499
C	 0.0174668312	 0.0247207345	-0.0066968313	-0.164532
C	 0.8070597813	-0.4514602275	-1.2417474428	 0.042087
C	 2.2588056925	 0.0505621809	-1.2183472802	-0.388629
C	 0.7320559214	-1.9861499706	-1.3524255756	-0.179129
C	 1.2847679718	-2.5717125822	-2.6568744113	-0.181456
C	 1.118225552	-4.0882521349	-2.7557558237	 0.13213
C	 1.5965063231	-4.6408554471	-4.0990465611	-0.402758
O	 1.8624209851	-4.6532945228	-1.6763669276	-0.433721
H	 0.7963887301	 2.0597247873	 0.2456515646	 0.117057
H	-0.6317238076	 1.9546647015	-0.7905508991	 0.110368
H	-0.7927014408	 1.7982308189	 0.9626281222	 0.109458
H	 0.5092513489	-0.3573870927	 0.8988578012	 0.091347
H	-0.9754342613	-0.4428586452	-0.0293174798	 0.087878
H	 0.3155109663	-0.02597869	-2.1310614346	 0.060591
H	 2.7936093191	-0.3535231887	-0.3498875333	 0.111657
H	 2.8078079961	-0.2517885215	-2.1145970732	 0.112134
H	 2.3090945595	 1.1417231998	-1.1629010205	 0.110515
H	 1.2605729968	-2.4422575647	-0.5070103842	 0.111243
H	-0.3193094629	-2.2911898946	-1.2544573742	 0.079908
H	 0.7782600249	-2.1111908096	-3.5151252759	 0.08663
H	 2.3531815792	-2.3475047219	-2.7596808058	 0.103171
H	 0.0476492602	-4.3299488378	-2.6341059838	 0.059192
H	 1.0226040834	-4.2153522362	-4.9288740539	 0.113495
H	 2.6555826368	-4.409251662	-4.2514257973	 0.122845
H	 1.4776129397	-5.7301830227	-4.1385540886	 0.100679
H	 1.7617163316	-5.6093628377	-1.7145234677	 0.279337
36.8552	57.4666	89.3487	107.497	133.6243	212.1266	238.1381	247.7201	257.6397	265.6542	287.5405	327.6284	399.203	426.9232	441.4149	497.1156	519.7326	765.0853	777.0994	817.4484	861.9274	911.1126	931.7194	947.4245	975.9252	1006.9466	1029.9952	1046.8409	1067.1215	1092.5761	1106.3109	1163.138	1166.7686	1181.0159	1218.1045	1268.649	1298.0796	1301.4133	1329.8479	1331.1344	1372.4923	1380.8746	1384.5171	1394.6306	1407.139	1412.6227	1416.7468	1427.865	1471.6367	1482.3765	1493.6494	1494.5193	1498.1329	1499.6631	1500.3989	1508.5858	1514.2644	2943.7261	2977.1672	3005.6563	3011.1766	3021.4639	3026.8419	3029.7011	3031.931	3042.2416	3056.4959	3076.7473	3091.1331	3095.1102	3097.231	3104.0864	3110.8192	3111.8948	3821.0156
CCC(C)CCC(C)O	CC[C@@H](C)CC[C@@H](C)O	
InChI=1S/C8H18O/c1-4-7(2)5-6-8(3)9/h7-9H,4-6H2,1-3H3	InChI=1S/C8H18O/c1-4-7(2)5-6-8(3)9/h7-9H,4-6H2,1-3H3/t7-,8-/m1/s1
