17
gdb 93611	2.38202	1.41303	1.17348	1.9693	73.76	-0.2447	-0.0332	0.2115	1124.9128	0.134091	-421.810303	-421.801454	-421.80051	-421.844273	32.471	
C	-0.0715547426	 1.6108066954	 0.1187736226	-0.408815
C	 0.1716173286	 0.1116538209	-0.0361054871	-0.108008
C	 1.2222509919	-0.3335668249	-1.0595102336	-0.108393
O	 1.6637565492	-1.6195929944	-0.6100324295	-0.24162
C	 1.7838675443	-1.5619840033	 0.8041953426	-0.196895
C	 3.1021412115	-1.1101897807	 1.248663527	 0.35034
C	 4.178377292	-0.705785212	 1.5988134182	-0.458679
C	 0.6882695568	-0.5473261869	 1.2457036124	 0.387812
O	 0.3319324091	-0.3354517398	 2.3699000808	-0.302843
H	 0.8682207728	 2.1431363245	 0.2972514352	 0.128843
H	-0.536705484	 2.0310615759	-0.7774770983	 0.121561
H	-0.729786238	 1.7960127187	 0.971497909	 0.144767
H	-0.7748296869	-0.3977280566	-0.2668550779	 0.118898
H	 0.834506325	-0.4620805712	-2.0715335592	 0.121272
H	 2.063379969	 0.3754783306	-1.0901211353	 0.108189
H	 1.5610950195	-2.5546471211	 1.2091565338	 0.136948
H	 5.1335593819	-0.3658891752	 1.9159306593	 0.206623
45.994	123.876	151.5612	194.5596	233.8204	262.2883	342.7005	395.6017	471.9664	553.0589	568.3979	631.6466	643.6166	675.3555	682.632	821.0113	900.0012	928.9464	951.4398	976.1885	1032.5648	1076.0441	1102.9859	1155.6589	1160.302	1228.0164	1242.2758	1296.4517	1307.9226	1331.0716	1387.3716	1410.3497	1495.8554	1497.8932	1513.2644	1865.7562	2230.8285	2995.1389	3017.1563	3042.6616	3061.4861	3111.2163	3115.6254	3125.0423	3501.4054
CC1COC(C#C)C1=O	C[C@H]1CO[C@@H](C#C)C1=O	
InChI=1S/C7H8O2/c1-3-6-7(8)5(2)4-9-6/h1,5-6H,4H2,2H3	InChI=1S/C7H8O2/c1-3-6-7(8)5(2)4-9-6/h1,5-6H,4H2,2H3/t5-,6-/m0/s1
