21
gdb 52941	4.3734	0.89248	0.84836	0.1246	93.13	-0.2354	0.0557	0.2912	1476.2806	0.184019	-349.931904	-349.923215	-349.922271	-349.96645	33.12	
C	 0.0019022886	 1.4678900068	-0.0043446937	-0.512995
C	-0.0001864043	 0.0122474798	-0.0032121118	 0.345996
C	-0.003810413	-1.1931979914	-0.0002577585	-0.380581
C	-0.0044906482	-2.6343859521	-0.0006821232	 0.301838
C	 0.2405900195	-3.4770392069	 1.2989419607	-0.252796
C	-0.4383855713	-4.5994598935	 0.4665565254	-0.046618
C	-1.3198537426	-3.4758669444	-0.1452047905	-0.252794
C	 0.5950871509	-4.8415901171	-0.6503521372	-0.215215
C	 0.9282331731	-3.3578007895	-1.0090980951	-0.261722
H	 0.6949876401	 1.8666050179	-0.753770925	 0.14565
H	-0.9932088691	 1.8681896797	-0.2293419451	 0.145874
H	 0.3045410835	 1.8672526311	 0.9703454388	 0.145875
H	 1.2764952538	-3.6189010943	 1.6213984198	 0.08975
H	-0.3737627771	-3.1294368543	 2.1316931502	 0.101612
H	-0.8791948494	-5.4752893593	 0.9421514501	 0.059792
H	-2.1023472415	-3.1281424887	 0.531937861	 0.101611
H	-1.7215291016	-3.6166474365	-1.153193289	 0.08975
H	 1.4695937194	-5.3936615312	-0.2939145556	 0.095597
H	 0.1716591593	-5.3926670251	-1.4951103753	 0.095598
H	 0.679278689	-3.0992905772	-2.0415436007	 0.10189
H	 1.9770435108	-3.1002821236	-0.8404806054	 0.10189
25.7892	91.9087	98.826	265.9347	288.8038	330.1665	423.9809	427.191	478.5741	522.7146	544.5443	652.0853	829.1022	829.5943	838.3169	875.0704	901.3281	926.382	969.3539	972.5818	977.3178	1001.3856	1017.9013	1054.012	1054.7524	1085.3709	1111.7022	1145.0349	1170.2631	1200.0227	1229.4041	1237.5592	1241.245	1266.2931	1296.2918	1317.7533	1349.0943	1414.9617	1478.4248	1479.1169	1485.4236	1496.1013	1502.0715	1532.3454	2365.0852	3023.3709	3050.1761	3051.3863	3055.7992	3064.1098	3082.7581	3082.9722	3088.4364	3110.3011	3115.9432	3121.712	3126.8206
CC#CC12CC(C1)CC2	CC#C[C@@]12C[C@@H](C1)CC2	
InChI=1S/C9H12/c1-2-4-9-5-3-8(6-9)7-9/h8H,3,5-7H2,1H3	InChI=1S/C9H12/c1-2-4-9-5-3-8(6-9)7-9/h8H,3,5-7H2,1H3/t8-,9+
