17
gdb 127015	3.32108	1.0614	0.81322	4.0601	71.75	-0.2174	0.0125	0.2299	1380.1866	0.13575	-455.127887	-455.119016	-455.118072	-455.161961	32.327	
C	 0.0462148579	 1.5360467787	-0.0842470351	-0.392737
C	 0.024544206	 0.020663982	-0.0308073529	-0.057618
O	 0.708888651	-0.4775719139	-1.1790165188	-0.278985
C	 0.7734227253	-1.8236643127	-1.2738222735	 0.183003
C	 0.3127976656	-2.8374440079	-0.4966132177	-0.050242
O	 0.6377157536	-4.0232079325	-1.0531410685	-0.186593
N	 1.3322295885	-3.795240342	-2.2469597751	-0.225369
C	 1.4157175056	-2.4905694623	-2.366231455	 0.32984
N	 2.0970041686	-1.8653404997	-3.3914927154	-0.593525
H	 1.0748135016	 1.9066976709	-0.0853115181	 0.135693
H	-0.4533148822	 1.8976549442	-0.9872476836	 0.131886
H	-0.4707900576	 1.94903096	 0.7866008488	 0.124883
H	 0.5228167551	-0.3527681689	 0.8756672269	 0.109363
H	-1.0060900549	-0.3637770596	-0.0289987647	 0.107149
H	-0.2317355681	-2.8782668318	 0.4318169151	 0.141856
H	 2.2329802236	-2.4500896869	-4.2043037054	 0.261449
H	 1.7304662504	-0.9533437176	-3.623422917	 0.259948
68.7556	94.6538	124.4886	242.0886	258.0593	273.7658	317.1987	347.8747	408.7495	528.5254	569.5461	623.8019	668.6477	745.8372	774.8758	801.2057	828.2341	903.8108	926.4852	943.4514	1077.2054	1126.385	1139.301	1164.0048	1187.3187	1277.3762	1296.7276	1305.4042	1402.0519	1426.2596	1483.891	1489.7777	1500.6134	1525.3786	1584.6285	1638.62	1690.7989	2990.1087	3024.9622	3048.9993	3124.6174	3127.2399	3277.6725	3561.6397	3666.1425
CCOC1=CON=C1N	CCOc1conc1N	
InChI=1S/C5H8N2O2/c1-2-8-4-3-9-7-5(4)6/h3H,2H2,1H3,(H2,6,7)	InChI=1S/C5H8N2O2/c1-2-8-4-3-9-7-5(4)6/h3H,2H2,1H3,(H2,6,7)
