27
gdb 100016	2.31247	1.16888	1.10842	0.1253	95.	-0.2604	0.0778	0.3382	1364.4615	0.250222	-353.553108	-353.542086	-353.541142	-353.588275	43.251	
C	-0.3101937762	 1.5166264143	 0.0272920361	-0.404745
C	-0.2325436371	 0.0078211223	-0.2384799836	-0.174511
C	 0.7997157332	-0.4717800586	-1.2989020092	 0.204052
C	 0.4322701475	 0.1141053889	-2.6768469103	-0.436655
C	 2.21793872	 0.02779562	-0.9465566467	-0.423941
C	 0.7870922643	-2.0265979536	-1.302147448	 0.385529
C	 1.427187992	-2.6989264855	-0.0923722006	-0.47054
C	-0.4019410937	-2.7616103716	-1.8805902532	-0.310105
C	 0.9304494024	-2.8098366945	-2.5898001231	-0.323947
H	 0.640921775	 1.919051735	 0.3893037264	 0.116172
H	-0.595163309	 2.0841194113	-0.863772108	 0.115319
H	-1.0630045962	 1.7229877933	 0.7950460661	 0.110605
H	-0.015337101	-0.4910069692	 0.7128210539	 0.091576
H	-1.2228325258	-0.3511070252	-0.5447285158	 0.09179
H	 0.3878564131	 1.2052413288	-2.6251760105	 0.113217
H	 1.1837670497	-0.1359863323	-3.4310608942	 0.11414
H	-0.5412330882	-0.2341408378	-3.0355253172	 0.110327
H	 2.4879360653	-0.1927271176	 0.0903278111	 0.110587
H	 2.9644840375	-0.4422700604	-1.5958986082	 0.111499
H	 2.2989457376	 1.1101623374	-1.0844191383	 0.109024
H	 0.9873824882	-2.3648656661	 0.852961807	 0.115035
H	 1.2890199229	-3.7831979252	-0.1463549404	 0.108646
H	 2.5042749248	-2.5110928005	-0.0439599563	 0.116479
H	-0.7501016969	-3.6509219111	-1.3653338309	 0.103703
H	-1.1971817024	-2.1922392012	-2.3484437912	 0.107381
H	 1.0143494663	-2.2851555125	-3.5331211928	 0.107821
H	 1.4994970867	-3.7332520286	-2.5523117622	 0.101542
66.4332	80.193	195.3042	210.9524	227.7854	258.1039	279.0095	291.8919	324.7752	337.8253	368.0894	377.6355	387.963	434.8385	470.7325	492.4092	643.1509	773.2363	782.1417	790.9257	868.5872	877.9252	921.1556	938.5736	947.3811	955.2573	995.617	1025.0896	1029.5743	1051.1266	1075.1033	1080.1214	1083.9777	1123.6357	1185.4739	1187.8848	1210.2415	1236.5273	1297.6262	1326.3782	1334.1181	1370.0219	1397.1735	1408.0713	1419.2119	1425.3321	1464.4341	1480.2809	1484.5993	1489.9332	1497.0008	1501.5484	1508.4416	1509.9017	1512.3141	1518.3063	1520.567	3027.4544	3031.8328	3036.2237	3038.3775	3043.7964	3062.8761	3096.88	3098.3386	3099.8302	3100.8602	3107.3313	3108.7021	3110.4212	3115.1966	3131.165	3138.6404	3208.2277	3226.6833
CCC(C)(C)C1(C)CC1	CCC(C)(C)C1(C)CC1	
InChI=1S/C9H18/c1-5-8(2,3)9(4)6-7-9/h5-7H2,1-4H3	InChI=1S/C9H18/c1-5-8(2,3)9(4)6-7-9/h5-7H2,1-4H3
