17
gdb 44657	2.68064	1.78428	1.75642	2.8221	75.87	-0.2255	-0.0113	0.2142	888.7733	0.138786	-384.722647	-384.716142	-384.715197	-384.753239	27.487	
O	 0.0351751688	-0.012193754	 0.0040912686	-0.3282
C	 0.0015666682	 1.1903590533	 0.0104712758	 0.432358
C	-1.279858564	 2.0328800088	 0.0317145358	-0.311489
C	-0.8691021737	 3.536055695	 0.0335646503	-0.120546
C	 0.0241603498	 3.7114119956	 1.256815463	-0.070884
C	 1.1161911299	 2.9487185829	 1.2467465408	-0.082593
C	 1.269263258	 2.0928470832	-0.0020315146	-0.197251
C	 1.0830035247	 2.9608405637	-1.237879492	-0.082596
C	-0.0088136603	 3.7234435391	-1.2113456635	-0.070881
H	-1.8823557242	 1.7780547187	-0.8448462294	 0.128942
H	-1.8587429081	 1.7694316727	 0.9215383172	 0.12894
H	-1.7418556391	 4.1891216324	 0.0484070715	 0.071863
H	-0.2547949984	 4.3786840185	 2.0633052057	 0.101893
H	 1.8414621573	 2.8849584733	 2.0483095895	 0.108336
H	 2.1648970767	 1.4754826327	-0.0170111061	 0.081878
H	 1.7865942475	 2.9049847693	-2.0591141414	 0.108336
H	-0.309128943	 4.3985050549	-2.0035555712	 0.101893
114.0885	346.7849	376.8898	410.7543	468.6408	472.3372	582.6174	593.2795	657.0317	671.8743	710.0775	722.8327	783.2891	852.723	907.0245	926.0838	949.5995	953.3267	962.4049	978.8476	1011.0494	1032.9227	1052.3529	1117.4017	1162.7788	1168.6388	1218.7147	1230.0207	1284.4131	1308.7237	1327.3023	1332.106	1372.4866	1457.3936	1647.3754	1689.0072	1831.8662	3059.9485	3105.0201	3106.1977	3139.1201	3193.4268	3194.973	3216.6911	3219.3626
O=C1CC2C=CC1C=C2	O=C1C[C@H]2C=C[C@@H]1C=C2	
InChI=1S/C8H8O/c9-8-5-6-1-3-7(8)4-2-6/h1-4,6-7H,5H2	InChI=1S/C8H8O/c9-8-5-6-1-3-7(8)4-2-6/h1-4,6-7H,5H2/t6-,7+
