19
gdb 87414	3.90688	1.35116	1.21766	2.7471	79.04	-0.2312	0.0749	0.3062	1080.3947	0.160389	-381.972265	-381.964778	-381.963834	-382.004	30.054	
C	 0.0257006299	 1.4818747222	-0.1207703252	-0.391012
C	 0.0288128152	-0.0150180195	 0.0746887739	-0.113273
N	 1.3484046146	-0.6946106414	-0.0306010645	-0.405056
C	 0.6379944341	-0.6837371615	 1.240753273	 0.443197
C	 1.0952868799	-0.0876049465	 2.5500593516	-0.142069
C	 0.0898914034	-0.8869741992	 3.2955897463	-0.038658
C	 0.0629869165	-1.8571819673	 2.0473973084	-0.213226
C	 1.339255416	-2.4604883515	 2.6630660339	-0.149138
N	 1.5311529089	-1.2050497108	 3.4689447982	-0.153637
H	 0.9162192346	 1.9312244326	 0.325838323	 0.127614
H	 0.0225538337	 1.7326024159	-1.1868812773	 0.121252
H	-0.8607334836	 1.9354838183	 0.3359049614	 0.116193
H	-0.8190817897	-0.5335864248	-0.3733938367	 0.082395
H	 1.2536881742	-1.5989886639	-0.4886362016	 0.225853
H	 1.4992148121	 0.8923374232	 2.7628106548	 0.102405
H	-0.5999210278	-0.650131183	 4.0940751494	 0.100684
H	-0.7647500441	-2.4545784731	 1.6678741573	 0.073956
H	 1.1463271515	-3.2824231616	 3.356688115	 0.10798
H	 2.1660005307	-2.7180332581	 1.9909380191	 0.104539
134.0226	153.9906	190.8349	245.3801	349.0546	435.689	488.419	513.368	609.197	751.4929	768.9058	795.7885	825.6731	831.5441	877.7146	905.419	935.1759	951.9184	965.0726	1003.1025	1016.335	1030.8934	1034.0186	1067.0843	1087.5366	1114.7203	1144.104	1162.5153	1184.3382	1195.5891	1224.0751	1231.7922	1265.3872	1288.9197	1318.64	1370.1838	1411.5885	1478.3631	1492.1301	1504.1147	1514.4321	3034.4965	3037.4477	3096.6434	3098.3271	3106.1459	3124.7002	3126.7271	3205.5516	3220.9336	3483.0452
CC1NC11C2C3C1CN23	C[C@H]1N[C@]21[C@H]1[C@H]3[C@@H]2CN13	
InChI=1S/C7H10N2/c1-3-7(8-3)4-2-9-5(4)6(7)9/h3-6,8H,2H2,1H3	InChI=1S/C7H10N2/c1-3-7(8-3)4-2-9-5(4)6(7)9/h3-6,8H,2H2,1H3/t3-,4+,5-,6-,7+,9?/m1/s1
