13
gdb 18190	4.40881	1.88863	1.55453	3.6031	61.61	-0.2716	-0.0276	0.244	788.0647	0.097741	-357.628177	-357.621973	-357.621029	-357.658664	23.139	
N	-0.0597804041	-1.1873823698	-0.1346888327	-0.320733
C	-0.0467083193	-0.0359596236	-0.044271063	 0.300585
C	 0.0111551469	 1.4268465872	 0.0517562322	-0.143171
N	-0.5688204894	 1.9026309122	 1.333151588	-0.194883
C	 0.3069716652	 2.6536453566	 1.8693644245	 0.046114
N	 1.5384454476	 2.8987666502	 1.1943328749	-0.118168
C	 2.3542953857	 1.6509089317	 1.1299722272	-0.241872
C	 1.4384640597	 2.001102203	 0.0220697218	-0.039062
H	-0.5801433913	 1.8390260539	-0.7748089278	 0.146261
H	 0.1473266802	 3.1459727996	 2.8239652744	 0.146183
H	 3.4199558117	 1.8172610262	 1.0163304932	 0.14201
H	 2.0733879402	 0.8380785733	 1.7938640677	 0.151965
H	 1.8286780768	 2.3784665595	-0.9156088403	 0.12477
114.9126	163.1063	317.5325	360.1645	489.1904	539.1593	572.265	711.9887	785.1617	805.6946	866.8358	897.5351	969.2439	974.7754	1016.7068	1039.272	1064.4615	1092.6137	1118.6503	1160.9938	1248.2034	1275.3126	1313.5031	1325.0615	1373.4444	1498.1966	1674.2923	2365.2843	3041.5751	3123.8194	3185.8882	3197.0427	3221.2927
N#CC1N=CN2CC12	N#C[C@H]1N=CN2C[C@@H]12	
InChI=1S/C5H5N3/c6-1-4-5-2-8(5)3-7-4/h3-5H,2H2	InChI=1S/C5H5N3/c6-1-4-5-2-8(5)3-7-4/h3-5H,2H2/t4-,5+,8?/m1/s1
