21
gdb 61816	2.87511	0.89266	0.83966	3.4329	79.59	-0.2424	-0.0193	0.2231	1479.04	0.179242	-424.221535	-424.211179	-424.210235	-424.257485	37.571	
C	 0.0090851375	 1.5032062387	 0.432264786	-0.491453
C	 0.0013712075	 0.0301907588	 0.0665309591	 0.383719
C	 1.2414426393	-0.5527039711	-0.5700382275	-0.304109
C	 0.8913990853	-0.8964891596	 0.8575846947	-0.31229
C	-1.3342003729	-0.5461471099	-0.3891185532	 0.032506
O	-2.3181876914	-0.5336842274	 0.6422877049	-0.436649
C	-1.8745628706	 0.1269813434	-1.6687384102	-0.302679
C	-3.085196222	-0.5919985901	-2.2248767332	 0.154041
O	-3.2348468179	-0.8711978671	-3.387622528	-0.244482
H	 0.9997933518	 1.8074858611	 0.7818536902	 0.124825
H	-0.2472979815	 2.1432382706	-0.4193490937	 0.123332
H	-0.6935908754	 1.7236930344	 1.2459519197	 0.10991
H	 1.1205130571	-1.3227454536	-1.3252644146	 0.115543
H	 2.0804082369	 0.1112778457	-0.7492717754	 0.1123
H	 1.495605774	-0.4679708134	 1.6500700469	 0.111666
H	 0.5256284603	-1.8950102202	 1.0710064996	 0.120118
H	-1.1817431894	-1.611974182	-0.5987673683	 0.093313
H	-2.4602316875	 0.3810937656	 0.9089133607	 0.280267
H	-2.1826690929	 1.1546233884	-1.4250238717	 0.112688
H	-1.1091228437	 0.1842887629	-2.4477909306	 0.125327
H	-3.8493011947	-0.8569553451	-1.4628404753	 0.092109
52.7634	75.9013	81.9368	157.6014	224.1624	242.5593	270.7982	281.6189	299.1933	335.3616	431.8063	436.9988	515.0594	548.2934	744.6907	783.8061	818.2387	875.8039	877.129	937.6954	954.8307	968.2967	1025.7498	1047.4567	1067.3972	1078.2723	1081.821	1106.3865	1130.0211	1187.2042	1189.4482	1241.7322	1288.4728	1322.4127	1336.794	1383.3962	1416.5317	1421.3579	1427.9911	1453.1849	1471.8187	1497.7284	1499.5651	1509.766	1829.2906	2907.4442	3007.3841	3019.6926	3037.2889	3077.9705	3101.4693	3104.2882	3128.1227	3133.84	3205.9363	3220.5078	3805.8906
CC1(CC1)C(O)CC=O	CC1(CC1)[C@@H](O)CC=O	
InChI=1S/C7H12O2/c1-7(3-4-7)6(9)2-5-8/h5-6,9H,2-4H2,1H3	InChI=1S/C7H12O2/c1-7(3-4-7)6(9)2-5-8/h5-6,9H,2-4H2,1H3/t6-/m0/s1
