21
gdb 91823	3.39161	1.22731	1.02983	2.0106	84.12	-0.2397	0.0058	0.2455	1247.5481	0.182401	-387.096499	-387.087756	-387.086812	-387.1296	34.216	
C	 0.2429707737	 1.6349985629	-0.0344867486	-0.398866
C	-0.0240922195	 0.1237715316	-0.0165443589	-0.039616
C	 0.545783019	-0.5537482146	-1.2819115855	-0.233933
C	 0.645736714	-2.0697403512	-1.1737042923	-0.043976
O	 1.9277702299	-2.5957866192	-0.7983977248	-0.297503
C	 0.8319364786	-2.702649997	 0.1414644142	 0.39124
C	 0.3694872704	-4.1149736745	 0.4109790243	-0.474945
C	 0.9044199331	-1.7888753772	 1.3170488797	-0.144228
C	 0.5067669014	-0.5193845392	 1.2462131858	-0.041477
H	 1.3187101412	 1.8408705962	-0.0063000732	 0.122298
H	-0.1632046953	 2.0939307722	-0.9417565212	 0.113552
H	-0.2168852678	 2.1300562622	 0.8272135998	 0.112758
H	-1.1170859705	-0.0149251406	-0.0174699318	 0.087052
H	-0.0646286111	-0.2793489254	-2.1491201659	 0.096076
H	 1.5557926987	-0.1707454911	-1.4685389279	 0.117238
H	 0.1517945654	-2.6479565806	-1.9553031547	 0.083296
H	 0.3543553423	-4.6969061843	-0.5139514431	 0.126817
H	 1.045709114	-4.6114409026	 1.1161267298	 0.124889
H	-0.6339846942	-4.120798457	 0.8498018684	 0.122827
H	 1.272864298	-2.2063582137	 2.251013836	 0.087434
H	 0.5466169488	 0.1084987731	 2.1342595502	 0.089067
67.5752	176.3611	201.9131	241.6201	255.8682	290.2475	353.826	395.5341	404.6675	481.7389	544.4665	590.1279	660.1817	732.2699	758.9638	797.3264	871.2957	886.8391	914.5286	968.5293	996.4495	998.7084	1055.1378	1066.5728	1073.9075	1097.4319	1135.4587	1158.4693	1203.4922	1238.7201	1254.2182	1310.0387	1331.0191	1355.8306	1360.0971	1407.0176	1409.7819	1426.2392	1457.1818	1474.753	1485.6819	1498.0029	1500.0372	1500.8864	1713.3438	2971.5876	3028.5219	3032.4205	3034.567	3075.5025	3095.2226	3098.8608	3100.667	3101.5969	3122.1272	3138.115	3163.1126
CC1CC2OC2(C)C=C1	C[C@H]1C[C@H]2O[C@@]2(C)C=C1	
InChI=1S/C8H12O/c1-6-3-4-8(2)7(5-6)9-8/h3-4,6-7H,5H2,1-2H3	InChI=1S/C8H12O/c1-6-3-4-8(2)7(5-6)9-8/h3-4,6-7H,5H2,1-2H3/t6-,7-,8+/m1/s1
