21
gdb 75491	2.84687	1.365	1.06265	1.2838	85.	-0.233	0.0292	0.2622	1213.7369	0.182633	-387.091411	-387.082879	-387.081935	-387.124224	33.7	
C	-0.0132282024	 1.5210242968	 0.0562740038	-0.477047
C	-0.0084466496	 0.0207755128	-0.0248223657	 0.312363
C	-0.0542560752	-0.6502497924	-1.175879464	-0.159833
C	-0.00647305	-2.1510508376	-1.2485495999	-0.13311
O	 0.391045591	-2.7560224389	-0.0274490106	-0.289548
C	-0.2702634662	-2.2012949984	 1.0783651744	 0.441934
C	-1.6494926756	-2.7331437333	 1.3896675807	-0.322802
C	-0.4487218449	-3.1322570863	 2.2305596681	-0.331818
C	 0.0640061192	-0.737806711	 1.2831723791	-0.358783
H	 0.8783428504	 1.8906329555	 0.5797572517	 0.123428
H	-0.0379320949	 1.9801425098	-0.9357800592	 0.119694
H	-0.8790752551	 1.8854910615	 0.624302219	 0.121137
H	-0.128211232	-0.1230485753	-2.1244342778	 0.080008
H	-0.9872492889	-2.5462915425	-1.5701302216	 0.094538
H	 0.7265606419	-2.4772952824	-1.9958435906	 0.112582
H	-2.3875028411	-2.0638720351	 1.8189861755	 0.108726
H	-2.0513154064	-3.4845174943	 0.7189810709	 0.115871
H	-0.0667581922	-4.13897131	 2.1058654358	 0.12244
H	-0.3596531371	-2.7299660922	 3.2342105371	 0.109105
H	 1.0717056831	-0.6376841021	 1.7136628355	 0.111727
H	-0.6235092241	-0.2935255145	 2.0142373077	 0.099387
92.7622	153.6754	195.3105	251.4715	267.7512	321.3595	359.3952	425.7256	430.7864	478.7928	513.7429	685.6956	749.4089	778.091	807.5129	861.8106	867.5096	912.1637	939.955	965.2995	987.4705	1006.897	1040.1281	1045.533	1059.9557	1073.5703	1080.3531	1119.7418	1180.9393	1186.5708	1215.8149	1266.4002	1284.2162	1303.1184	1348.1699	1392.6816	1403.0823	1416.1326	1451.3771	1471.2774	1478.5999	1487.5283	1491.1025	1501.2229	1748.6278	2938.0219	2995.9969	3013.0159	3040.9986	3049.7534	3058.3499	3108.8045	3131.0168	3135.3101	3151.7897	3215.1491	3229.4786
CC1=CCOC2(CC2)C1	CC1=CCOC2(CC2)C1	
InChI=1S/C8H12O/c1-7-2-5-9-8(6-7)3-4-8/h2H,3-6H2,1H3	InChI=1S/C8H12O/c1-7-2-5-9-8(6-7)3-4-8/h2H,3-6H2,1H3
