25
gdb 120847	3.22934	0.62402	0.56852	1.5665	90.98	-0.2559	0.0939	0.3498	2121.642	0.227074	-389.488436	-389.477286	-389.476342	-389.525944	39.805	
C	 0.3299074717	 1.4715818059	-0.3158699693	-0.383173
C	 0.4315790665	-0.0393551306	-0.0953160807	-0.154858
C	 0.2057158184	-0.4491045465	 1.3674257613	-0.212835
C	 0.303755734	-1.9437815001	 1.5558579615	 0.058239
O	 1.6109343232	-2.5318179454	 1.4865594742	-0.270058
C	 0.8872873064	-2.6294012373	 2.7219214516	 0.058235
C	 1.4892455459	-1.9571821598	 3.932273433	-0.21284
C	 2.7126046536	-2.7192509947	 4.4625277473	-0.154854
C	 3.3381969609	-2.0628330988	 5.6952730112	-0.383173
H	 1.0732942989	 2.010259233	 0.2823517888	 0.114797
H	 0.4962587622	 1.7326334129	-1.3655775188	 0.113155
H	-0.658600857	 1.849828765	-0.0313798033	 0.111953
H	-0.2990346794	-0.5548175183	-0.7325989507	 0.09405
H	 1.4186892051	-0.3982819023	-0.4091597857	 0.115442
H	 0.9347977806	 0.060959328	 2.0048700135	 0.101663
H	-0.7902213551	-0.1193007826	 1.6947345163	 0.095648
H	-0.4464728469	-2.5060754443	 0.9921194896	 0.080952
H	 0.5186409748	-3.6400432692	 2.9207185498	 0.080952
H	 1.7777916805	-0.9295939177	 3.6896537948	 0.10166
H	 0.7222168808	-1.8964039138	 4.7169799713	 0.095648
H	 2.4209147793	-3.750345775	 4.702085046	 0.09405
H	 3.4543963563	-2.7898646655	 3.6584943879	 0.115443
H	 3.6716920602	-1.0426405729	 5.474693519	 0.114796
H	 2.620978206	-2.0034210357	 6.5218450661	 0.111953
H	 4.2068864432	-2.6268366645	 6.0488058451	 0.113155
53.2479	74.014	79.2294	92.1346	126.32	166.6842	243.0598	245.5558	273.8048	314.5195	332.1967	474.8883	493.3807	546.449	736.4325	747.8168	785.634	839.021	871.8458	892.5832	900.9912	913.7857	974.3238	1030.5098	1052.9737	1061.2768	1080.8063	1099.6519	1140.526	1144.9248	1182.6277	1189.6678	1260.3997	1267.2933	1295.8158	1300.5205	1316.3584	1327.1613	1335.1681	1382.5598	1394.5056	1411.4691	1412.0601	1420.2466	1466.6335	1476.6477	1492.3452	1492.8122	1497.8025	1500.0271	1502.3335	1509.2321	1510.1828	3014.5626	3017.1295	3022.5202	3022.855	3028.5433	3028.8121	3052.7837	3058.8274	3059.6269	3067.9757	3078.3425	3089.1084	3096.8029	3099.2455	3101.9574	3102.1947
CCCC1OC1CCC	CCC[C@H]1O[C@H]1CCC	
InChI=1S/C8H16O/c1-3-5-7-8(9-7)6-4-2/h7-8H,3-6H2,1-2H3	InChI=1S/C8H16O/c1-3-5-7-8(9-7)6-4-2/h7-8H,3-6H2,1-2H3/t7-,8+
