18
gdb 16344	3.13583	1.84485	1.44125	2.0771	67.79	-0.2296	0.0769	0.3065	935.4159	0.151746	-384.883885	-384.875602	-384.874658	-384.916516	30.535	
C	-0.3534424492	 1.3132172312	-0.0493035534	-0.254582
O	 0.2297621089	 0.0292397748	 0.1195364077	-0.276508
C	 0.7318232165	-0.5112236155	-1.0392387467	 0.339452
C	-0.1399148008	-1.0617757967	-2.153236254	-0.364027
C	 0.8488552169	-1.9504905365	-1.4443670444	 0.018514
O	 2.1610203604	-1.7692005474	-1.9814914192	-0.307796
C	 2.1920320136	-0.3862759989	-1.5043219016	 0.09303
C	 2.6194434736	 0.608662033	-2.5619165354	-0.413367
H	 0.3877832652	 2.0593490172	-0.367125196	 0.112937
H	-1.1654075496	 1.2891631902	-0.7883879171	 0.115035
H	-0.7572393113	 1.6072520888	 0.9217923071	 0.130154
H	-1.1718146844	-1.2095431995	-1.8478767113	 0.119022
H	 0.0086503393	-0.8055851101	-3.1982802557	 0.114007
H	 0.6178914143	-2.8820989464	-0.9426818264	 0.113876
H	 2.8481269916	-0.3305357302	-0.6255995914	 0.088779
H	 1.9301857864	 0.6150327595	-3.4105547893	 0.121843
H	 2.6628793081	 1.6175145071	-2.1372500971	 0.118381
H	 3.6174952504	 0.3573162492	-2.9349605056	 0.13125
82.4635	145.9311	167.0387	210.7174	216.4116	298.3685	375.9431	409.0342	471.6402	519.8592	670.5328	701.2237	847.7712	871.844	885.1201	945.8487	988.8682	1009.0022	1037.0301	1065.6945	1075.9323	1083.6655	1124.6409	1142.4279	1178.619	1214.11	1230.0231	1267.295	1281.57	1374.03	1394.4775	1410.8825	1464.3045	1482.6273	1487.2093	1492.4962	1501.0528	1506.8068	2997.498	3021.5339	3037.0861	3053.4549	3104.8261	3114.7694	3119.7191	3125.2154	3192.1565	3209.9936
COC12CC1OC2C	CO[C@]12C[C@H]1O[C@H]2C	
InChI=1S/C6H10O2/c1-4-6(7-2)3-5(6)8-4/h4-5H,3H2,1-2H3	InChI=1S/C6H10O2/c1-4-6(7-2)3-5(6)8-4/h4-5H,3H2,1-2H3/t4-,5+,6-/m0/s1
