18
gdb 58853	2.5811	1.46682	1.07463	2.9437	72.26	-0.2451	0.0075	0.2527	1134.0522	0.146858	-439.077601	-439.068819	-439.067875	-439.11108	33.132	
C	 0.039099583	 1.5086924238	 0.0512834334	-0.420728
C	 0.0406463309	-0.0193151184	 0.0075589242	 0.00423
O	 0.7593519985	-0.5931830969	 1.0955403556	-0.42691
C	-1.3689209966	-0.5595554834	-0.0705008106	 0.184508
C	-2.1928655055	-1.0375476873	 1.1311098331	-0.337906
C	-1.91341817	-1.9728061043	-0.005713669	-0.058389
N	-2.7753389118	-1.6935316049	-1.1612110925	-0.3465
C	-2.3586439336	-0.3508370683	-1.2154951721	 0.369795
O	-2.6855308044	 0.5661111036	-1.9166866368	-0.348773
H	 1.0634253377	 1.8911552926	 0.0461287545	 0.121486
H	-0.5031336562	 1.9141477203	-0.807637934	 0.156385
H	-0.4648928879	 1.8654735253	 0.958477948	 0.109022
H	 0.5805122064	-0.3481477303	-0.8892909715	 0.102531
H	 0.5546470317	-0.0782759775	 1.8834988499	 0.281854
H	-1.6040738738	-1.2008217357	 2.0291439789	 0.121944
H	-3.1995280171	-0.6651457516	 1.2985688328	 0.119994
H	-1.3604227043	-2.8992707377	 0.0668823885	 0.125254
H	-3.7489382868	-1.9716023393	-1.2225008222	 0.242205
63.9648	129.1969	195.7123	217.6915	269.0835	288.8817	309.617	352.0032	434.8052	484.8142	578.2189	607.6797	674.8429	715.6911	773.9921	861.0422	877.7582	922.3356	939.3153	970.8669	1008.9057	1057.1923	1063.2309	1083.327	1092.4186	1122.6599	1145.6103	1227.1405	1275.0521	1305.2537	1324.0423	1354.1545	1393.3521	1405.3218	1418.3918	1474.7978	1491.5211	1498.0594	1884.8428	3024.3864	3034.1059	3100.4566	3114.9537	3128.4506	3205.9974	3216.7744	3539.6244	3805.8866
CC(O)C12CC1NC2=O	C[C@@H](O)[C@]12C[C@H]1NC2=O	
InChI=1S/C6H9NO2/c1-3(8)6-2-4(6)7-5(6)9/h3-4,8H,2H2,1H3,(H,7,9)	InChI=1S/C6H9NO2/c1-3(8)6-2-4(6)7-5(6)9/h3-4,8H,2H2,1H3,(H,7,9)/t3-,4-,6-/m1/s1
