17
gdb 71504	3.01585	1.57619	1.40461	2.403	72.15	-0.2278	0.0081	0.2358	971.9219	0.137667	-417.978658	-417.971427	-417.970482	-418.01003	29.003	
C	 0.0151216765	 1.4856037078	-0.0562934936	-0.526133
C	 0.0060343172	-0.012411948	-0.0098482331	 0.323284
N	 0.6414534227	-0.8801541141	-1.0700670211	-0.367287
C	 0.0478940393	-1.8517157904	-0.0828880108	-0.032922
C	 0.6047671773	-0.9856194324	 1.0713364792	-0.018053
N	-0.3095685488	-1.1217966167	 2.1907351399	-0.343572
C	-1.5793935842	-1.0152559991	 1.6269553482	 0.412341
O	-2.6389489886	-0.9230235438	 2.1960504266	-0.368974
C	-1.239613729	-0.988500292	 0.1402088973	-0.220534
H	 1.0391886769	 1.8546383469	-0.169929948	 0.137595
H	-0.5792016046	 1.860319238	-0.8963298958	 0.130056
H	-0.4065834026	 1.9005506747	 0.8651809998	 0.133605
H	 0.0591831592	-0.8620894519	-1.9122343927	 0.209913
H	 0.112484554	-2.9338104611	-0.2027218118	 0.092556
H	 1.6676115564	-0.9829568178	 1.3003707233	 0.10084
H	-0.1225600292	-0.742910994	 3.1061931492	 0.252421
H	-2.0502214626	-0.9778188562	-0.5862985967	 0.084866
136.1012	199.9417	228.9522	307.317	382.7929	415.0865	460.4206	536.8171	613.5607	628.2443	721.7194	740.5288	779.9678	841.3634	873.9088	901.7463	918.2365	953.5264	1006.8452	1013.6306	1036.4706	1103.1459	1120.3702	1136.4287	1161.8357	1185.7947	1210.5633	1232.8071	1269.8387	1308.2657	1325.3815	1341.8307	1397.7399	1413.8684	1480.044	1488.683	1856.1135	3033.6266	3102.1758	3111.5419	3112.6408	3146.1998	3160.5724	3397.0715	3635.0704
CC12NC3C1NC(=O)C23	C[C@@]12N[C@H]3[C@@H]1NC(=O)[C@@H]23	
InChI=1S/C6H8N2O/c1-6-2-3(8-6)4(6)7-5(2)9/h2-4,8H,1H3,(H,7,9)	InChI=1S/C6H8N2O/c1-6-2-3(8-6)4(6)7-5(2)9/h2-4,8H,1H3,(H,7,9)/t2-,3+,4-,6-/m0/s1
