17
gdb 56353	5.01055	0.84524	0.74851	4.9511	77.77	-0.2563	-0.0357	0.2205	1457.6572	0.136756	-414.163542	-414.154548	-414.153604	-414.197735	32.696	
N	 0.243123412	 0.8831808138	 1.2408282195	-0.569312
C	 0.1951639021	-0.0733576953	 0.2521784624	 0.255827
N	 1.1090273671	-0.6303252258	-0.4423146593	-0.287286
C	 2.52707438	-0.3444095043	-0.2954817526	-0.177228
C	 3.0647324836	-0.1238123469	 1.1046834919	-0.008863
C	 4.3767282465	 0.5170687039	 1.337897864	-0.251522
N	 3.135824054	 1.2393564169	 1.6871788604	-0.328592
C	-1.1714587272	-0.4666350742	-0.0746279092	 0.279585
N	-2.264362951	-0.7634797724	-0.3050843127	-0.321309
H	 1.1099667332	 1.0554440161	 1.7345131778	 0.295909
H	-0.6018326525	 1.0403820461	 1.7662244199	 0.270945
H	 3.0595156628	-1.1920236141	-0.74343218	 0.12691
H	 2.7812917292	 0.5309444791	-0.9161837103	 0.108924
H	 2.7429432709	-0.869446384	 1.8293727781	 0.113818
H	 4.988728468	 0.2130120837	 2.1813610689	 0.131665
H	 4.935848954	 0.8689437966	 0.4746019699	 0.123471
H	 2.9486770174	 1.9215107607	 0.9530472312	 0.237059
56.1417	111.6247	132.7902	170.3794	219.2879	287.556	351.7675	391.595	428.2988	457.3124	576.0251	605.7276	611.0257	723.3363	770.3122	828.1555	845.1529	930.2609	946.8349	998.358	1011.5207	1065.3794	1130.1362	1154.5994	1176.0297	1205.7768	1263.0779	1285.5203	1312.5244	1329.7851	1368.9254	1419.7732	1474.7868	1511.1788	1655.0602	1732.074	2357.5859	2975.0059	3044.9052	3114.3762	3130.7788	3202.367	3468.8473	3521.7912	3675.2899
NC(=NCC1CN1)C#N	NC(=NC[C@H]1CN1)C#N	
InChI=1S/C5H8N4/c6-1-5(7)9-3-4-2-8-4/h4,8H,2-3H2,(H2,7,9)	InChI=1S/C5H8N4/c6-1-5(7)9-3-4-2-8-4/h4,8H,2-3H2,(H2,7,9)/t4-/m1/s1
