21
gdb 89486	2.75765	1.52828	1.34835	1.032	76.82	-0.2424	0.0653	0.3077	1058.5156	0.184007	-424.241254	-424.233161	-424.232217	-424.273251	33.024	
C	-0.1705654758	 1.5405839478	 0.0025422582	-0.409674
C	 0.0264046912	 0.0269196309	-0.0061219865	 0.032266
C	 0.8806651407	-0.5217504264	-1.1986525432	-0.256437
C	 2.0061978362	-1.3036442483	-0.4924740362	 0.37957
O	 2.6727352806	-2.1560428021	-1.3838303228	-0.49739
C	 2.8980963116	-0.2785251221	 0.2392755524	-0.117111
O	 2.0723415172	 0.2051794487	 1.3060298638	-0.277686
C	 0.8245371102	-0.5135182798	 1.2065011137	 0.096218
C	 1.2588421949	-1.9008939012	 0.7280532643	-0.298873
H	 0.7921582937	 2.0542437867	 0.0727279093	 0.129709
H	-0.6769056577	 1.8766538555	-0.9080906132	 0.110255
H	-0.7781720801	 1.8549948999	 0.8584211166	 0.109566
H	-0.9562436754	-0.4597847523	-0.0075676437	 0.070982
H	 0.3116800962	-1.1982257126	-1.8421236068	 0.104101
H	 1.2826523376	 0.2774821057	-1.8285803947	 0.100107
H	 3.3738439816	-2.6099391772	-0.9033062423	 0.277808
H	 3.802028811	-0.7547002626	 0.6509723717	 0.079937
H	 3.2099192598	 0.5480266276	-0.4104329623	 0.101
H	 0.3187170917	-0.431982328	 2.1695589959	 0.071847
H	 0.431111601	-2.5542411541	 0.4420678742	 0.102308
H	 1.9153305439	-2.4149716362	 1.4364474515	 0.091497
122.3487	224.0332	242.699	273.3862	290.4308	339.3519	400.5296	432.0908	465.3959	484.5472	563.9516	622.616	729.7218	807.6821	820.4234	888.484	913.1086	919.4863	944.5445	968.4451	978.1008	1025.485	1033.3394	1042.1512	1075.2199	1133.1749	1159.2579	1178.88	1180.0716	1196.4592	1239.347	1254.4464	1273.4407	1292.1175	1314.5498	1341.6972	1365.6035	1381.8915	1398.1043	1409.6808	1482.3645	1493.8242	1498.8898	1501.4183	1529.5784	2974.8963	3027.1371	3034.3242	3045.5927	3054.1878	3058.2471	3094.9071	3101.1595	3109.5795	3117.101	3120.0916	3799.9978
CC1CC2(O)COC1C2	C[C@H]1C[C@@]2(O)CO[C@@H]1C2	
InChI=1S/C7H12O2/c1-5-2-7(8)3-6(5)9-4-7/h5-6,8H,2-4H2,1H3	InChI=1S/C7H12O2/c1-5-2-7(8)3-6(5)9-4-7/h5-6,8H,2-4H2,1H3/t5-,6+,7-/m0/s1
