18
gdb 20167	3.26986	2.77466	1.99847	1.6074	69.85	-0.236	0.0775	0.3134	740.6251	0.15701	-347.783848	-347.777838	-347.776894	-347.813882	24.709	
C	 0.0035130049	 1.5672951455	 0.1367949068	-0.239943
C	 1.5466656624	 1.5728832082	-0.0524140205	-0.026556
C	 2.3546362439	 1.3713015725	 1.2519271427	-0.240684
C	 2.0733181646	-0.1584175086	 1.1862119786	 0.115658
O	 1.024082072	-0.5798556198	 2.0509375818	-0.274767
C	-0.1832064581	-0.7720060591	 1.3147030735	-0.083581
C	-0.0305608394	 0.0098508954	 0.0159686386	-0.034295
C	 1.498702992	 0.014500931	-0.2487621566	-0.068459
H	-0.3686690817	 1.987681874	 1.0766284912	 0.097775
H	-0.5205502285	 2.0543376453	-0.6891507881	 0.100516
H	 1.9469432953	 2.2658025384	-0.7925382237	 0.063874
H	 3.4169813431	 1.5879440221	 1.1041416484	 0.095922
H	 2.0069643554	 1.8790605242	 2.1558861587	 0.098897
H	 2.9377134015	-0.8143369059	 1.32475629	 0.073842
H	-0.3355103143	-1.8432513456	 1.1071569191	 0.08741
H	-1.0191380848	-0.424810084	 1.933372585	 0.10269
H	-0.6738457613	-0.37081797	-0.7792090174	 0.071119
H	 1.932047203	-0.5392752835	-1.079798318	 0.060582
101.4177	296.682	331.9452	399.1974	597.5751	633.8314	712.4498	750.2104	802.793	818.6354	865.4491	878.2354	911.3101	937.6172	943.5636	965.5085	987.4471	1022.8522	1047.6696	1086.2738	1112.0373	1130.2016	1140.9926	1173.3882	1191.4529	1217.7474	1229.3288	1247.034	1255.2742	1282.8813	1295.7139	1302.6389	1331.3608	1345.2088	1393.2796	1465.8756	1482.3349	1519.6673	2975.0312	3046.2963	3047.0813	3052.9604	3060.1126	3089.3978	3098.5694	3104.8981	3110.8196	3127.2099
C1C2CC3OCC1C23	C1[C@H]2C[C@H]3OC[C@@H]1[C@@H]23	
InChI=1S/C7H10O/c1-4-2-6-7(4)5(1)3-8-6/h4-7H,1-3H2	InChI=1S/C7H10O/c1-4-2-6-7(4)5(1)3-8-6/h4-7H,1-3H2/t4-,5+,6+,7+/m0/s1
