18
gdb 56302	7.40004	0.5312	0.5022	4.1678	76.16	-0.2496	0.0249	0.2745	2089.7662	0.144043	-439.068697	-439.057984	-439.05704	-439.10657	36.537	
N	-0.0574509452	 1.3031910593	-0.0820158243	-0.524104
C	 0.0625496003	-0.0406542872	 0.1517189321	 0.372146
O	 1.1115226361	-0.5753425092	 0.4265912473	-0.327261
C	-1.2782045906	-0.7848928255	 0.1055984134	-0.159799
O	-1.0352883742	-2.1536019121	-0.024300125	-0.218793
C	-2.2067121209	-2.9361075561	 0.035297917	-0.046781
C	-1.7821284436	-4.4027468416	-0.0923900142	-0.349768
C	-2.9209117588	-5.3093128413	-0.0460454408	 0.28626
C	-3.8795406911	-6.0329102884	-0.0048776893	-0.449276
H	 0.791101098	 1.8450375893	-0.1131923083	 0.26388
H	-0.8841048132	 1.698740786	-0.4958511109	 0.257182
H	-1.8250684829	-0.5581140484	 1.0382116245	 0.116117
H	-1.8977288038	-0.4038804357	-0.7259942985	 0.091524
H	-2.7376531665	-2.776543785	 0.9873477663	 0.101831
H	-2.9021020315	-2.6716509329	-0.7775797093	 0.09885
H	-1.2323025379	-4.5265767371	-1.0326588651	 0.14377
H	-1.0754186856	-4.6323395589	 0.7134040827	 0.147875
H	-4.7158464086	-6.6859730954	 0.0305917925	 0.196347
26.7064	39.6718	78.337	113.0002	125.0709	164.975	228.9247	312.7537	322.1616	354.496	472.637	505.4012	516.5784	615.0496	622.4295	649.8126	670.4354	798.9922	854.7201	967.7326	1020.5027	1045.0365	1072.3092	1090.5096	1104.7074	1195.047	1226.7678	1262.3027	1294.3877	1301.4461	1310.9996	1402.3145	1443.3979	1476.3297	1496.1543	1530.5393	1618.9146	1828.3972	2242.0742	2940.0202	2965.7065	2970.4357	3000.9468	3038.8216	3076.5513	3507.6155	3596.705	3728.6065
NC(=O)COCCC#C	NC(=O)COCCC#C	
InChI=1S/C6H9NO2/c1-2-3-4-9-5-6(7)8/h1H,3-5H2,(H2,7,8)	InChI=1S/C6H9NO2/c1-2-3-4-9-5-6(7)8/h1H,3-5H2,(H2,7,8)
