18
gdb 54853	3.04644	1.35568	1.24693	3.57	71.43	-0.2358	0.0271	0.2628	1065.2245	0.149791	-439.10511	-439.097218	-439.096274	-439.137949	30.425	
N	 0.7234712274	 0.2317974477	 0.9079928883	-0.538876
C	-0.1187001788	 0.1775656878	-0.1652705251	 0.38359
O	 0.031580452	 0.8615792595	-1.1604983827	-0.373026
C	-1.2696180314	-0.7956839223	-0.0761810626	-0.140541
C	-1.1290596288	-2.3207684707	-0.105617615	-0.092912
C	 0.1946361995	-2.9576455568	 0.3215770695	-0.256406
C	 0.128368599	-2.8758681645	 1.8596689514	-0.075131
O	-0.749303029	-1.7757837127	 2.1686659085	-0.270269
C	-1.6747664939	-1.6428837498	 1.1117179669	 0.044408
H	 1.4090163706	 0.9702659814	 0.9034951416	 0.252544
H	 0.4370459973	-0.1888281561	 1.7805869934	 0.271942
H	-2.0963401139	-0.4365107097	-0.6807248785	 0.115562
H	-1.7688386969	-2.8599818975	-0.7929894634	 0.104508
H	 0.2597795941	-3.9925602923	-0.0228129488	 0.112155
H	 1.0606010793	-2.4178476836	-0.0697711678	 0.131085
H	-0.2866698832	-3.7978532845	 2.2892439758	 0.10858
H	 1.0920178846	-2.6726473802	 2.333812034	 0.114902
H	-2.7127367179	-1.6850364858	 1.4261168246	 0.107887
58.6363	122.1952	168.5917	261.5617	330.8821	377.1609	476.9117	495.62	626.5407	640.7519	675.7378	712.6431	764.6358	776.1018	798.613	858.347	895.8655	941.6487	962.8022	986.7353	1033.9845	1060.404	1087.3321	1114.6843	1134.7583	1146.4233	1187.6347	1226.7394	1246.778	1302.7864	1321.7091	1326.6039	1376.9109	1398.1003	1402.7793	1494.5763	1516.8749	1605.3434	1788.574	3012.6852	3067.9616	3095.8239	3115.0464	3156.5932	3168.2102	3189.0535	3543.7219	3696.3671
NC(=O)C1C2CCOC12	NC(=O)[C@H]1[C@H]2CCO[C@@H]12	
InChI=1S/C6H9NO2/c7-6(8)4-3-1-2-9-5(3)4/h3-5H,1-2H2,(H2,7,8)	InChI=1S/C6H9NO2/c7-6(8)4-3-1-2-9-5(3)4/h3-5H,1-2H2,(H2,7,8)/t3-,4+,5-/m1/s1
