19
gdb 37048	2.82937	1.72886	1.45289	0.723	73.92	-0.2285	0.0681	0.2966	966.1609	0.161444	-422.981195	-422.974064	-422.973119	-423.012467	29.166	
C	 0.0261434932	 1.4852118269	 0.1007556168	-0.375972
C	 1.3743866104	 0.8041418925	-0.0492943046	 0.151554
C	 1.6876758725	 0.036163198	 1.2332313688	-0.145369
O	 0.3945013105	-0.6347074626	 1.210710244	-0.329146
C	 0.0914979897	-0.0017271547	-0.0408232978	 0.435242
C	-0.3769704425	-0.79015502	-1.2334436692	-0.31918
C	 0.7738441449	-0.8175384876	-2.2644357876	-0.073487
O	 1.3696191294	 0.4626537848	-2.4343661468	-0.251098
C	 2.1749034064	 0.8601413646	-1.3222970469	-0.176594
H	-0.2573693193	 1.9199724836	 1.0549716698	 0.112382
H	-0.3101866051	 2.021889124	-0.7805836219	 0.126794
H	 2.5005708925	-0.6908712298	 1.1150429097	 0.1048
H	 1.838104967	 0.6120463808	 2.1540137352	 0.105216
H	-0.6346888947	-1.8081644151	-0.925990263	 0.120311
H	-1.268473354	-0.3397052425	-1.6807286142	 0.112254
H	 1.5383402885	-1.5463824722	-1.9495184219	 0.091806
H	 0.4081217464	-1.1127020197	-3.2515347272	 0.110669
H	 2.5350729779	 1.8630164985	-1.5718598515	 0.111168
H	 3.0499633565	 0.1931722804	-1.2363206215	 0.08865
113.7837	224.8748	313.0886	345.4343	371.3102	388.585	465.1896	499.6217	561.8943	669.4799	745.2406	789.893	835.722	860.6564	910.2467	923.9987	958.8791	973.6825	979.0691	999.7634	1041.287	1050.2464	1083.1391	1099.1347	1154.3589	1162.1875	1193.0355	1253.4246	1270.7464	1292.3817	1314.6985	1329.1815	1366.9673	1387.2877	1401.6135	1416.8444	1467.8801	1479.6885	1491.7513	1498.0088	1518.1274	2958.0687	2975.1965	3016.2853	3049.8543	3065.9472	3071.599	3090.8052	3102.308	3117.5742	3215.5827
C1C23COC12CCOC3	C1[C@@]23CO[C@@]12CCOC3	
InChI=1S/C7H10O2/c1-2-8-4-6-3-7(1,6)9-5-6/h1-5H2	InChI=1S/C7H10O2/c1-2-8-4-6-3-7(1,6)9-5-6/h1-5H2/t6-,7+/m1/s1
