19
gdb 79018	3.64207	1.71966	1.5551	1.6986	76.27	-0.2466	0.0867	0.3333	907.3159	0.163459	-385.878789	-385.872598	-385.871654	-385.908903	27.364	
O	 0.1521494581	 1.4144740098	-0.1846629324	-0.447815
C	 0.0287046713	 0.0305957006	-0.0174389697	 0.173713
C	 0.1997397969	-0.6273286172	 1.3864564016	-0.102909
C	-0.8953688951	 0.0477448466	 2.2316664046	-0.084803
C	-2.0525654564	-0.9141437392	 2.4228994147	-0.070403
C	-1.6157924199	-2.282047427	 1.9372845818	-0.241305
C	-0.6770209091	-1.8064397597	 0.8357153489	-0.040599
C	-1.3737010938	-0.6502001299	 0.035670135	-0.10291
C	-2.0547208555	 0.0308819135	 1.2363818448	-0.084802
H	-0.4175693204	 1.8312541325	 0.4719157636	 0.28124
H	 0.6788424593	-0.4288866535	-0.7669576032	 0.083083
H	 1.1768525709	-0.7839881535	 1.8429894887	 0.059748
H	-0.7003510795	 0.8662009847	 2.9119638397	 0.084895
H	-2.753855105	-0.7785938653	 3.2374997912	 0.081299
H	-1.0979658291	-2.8614105815	 2.7100268659	 0.098261
H	-2.4481694729	-2.8810360817	 1.5508932556	 0.098261
H	-0.1554065663	-2.5538521878	 0.2407752012	 0.070404
H	-1.9700949974	-0.8297319356	-0.8586433085	 0.059748
H	-2.7703026655	 0.8360903642	 1.134948117	 0.084895
209.5026	267.8409	387.8793	420.0713	517.4656	547.9387	710.2427	714.4211	733.2959	777.3679	799.5162	806.3137	813.8621	857.3706	904.2808	941.8861	949.0061	964.2626	967.1974	992.1137	1006.8056	1018.284	1050.5813	1073.294	1073.8867	1100.7133	1126.8802	1141.7163	1180.3054	1220.2179	1220.2249	1242.2663	1245.7349	1263.4034	1285.1519	1292.7517	1311.9207	1353.5025	1377.7258	1446.4114	1490.6718	3036.2192	3079.1673	3082.1645	3115.14	3116.3668	3137.4685	3185.2909	3192.871	3204.9764	3796.4354
OC1C2C3C4CC2C1C34	O[C@H]1[C@H]2[C@@H]3[C@@H]4C[C@H]2[C@H]1[C@H]34	
InChI=1S/C8H10O/c9-8-6-3-1-2-4(6)5(2)7(3)8/h2-9H,1H2	InChI=1S/C8H10O/c9-8-6-3-1-2-4(6)5(2)7(3)8/h2-9H,1H2/t2-,3+,4+,5-,6+,7-,8-
