15
gdb 7100	8.05611	0.8924	0.8156	5.6532	62.99	-0.2933	-0.0066	0.2868	1347.2193	0.116846	-399.850285	-399.841382	-399.840438	-399.885499	29.572	
C	 0.0626451097	 1.5344067723	 0.180427525	-0.393108
C	-0.0023106879	 0.0301448243	 0.0090553811	-0.047928
O	 0.679221489	-0.5682143292	 1.1381650003	-0.246588
C	 0.721558838	-1.9078905616	 1.1502844653	 0.469674
O	 0.2478436715	-2.6273053163	 0.3151886844	-0.328723
C	 1.4723733695	-2.366803885	 2.4025747056	-0.481748
C	 1.574577394	-3.8163122438	 2.5121958796	 0.294006
N	 1.6739427007	-4.9600103614	 2.6304391938	-0.295236
H	 1.0992356682	 1.8816201193	 0.2042850007	 0.133588
H	-0.4445994985	 2.0216317156	-0.6572654352	 0.130996
H	-0.4275928434	 1.8446280013	 1.1072914252	 0.133597
H	-1.0314326053	-0.3403065328	-0.0119594389	 0.131558
H	 0.4882544313	-0.3037631585	-0.9099453484	 0.131646
H	 2.4729285777	-1.9210462486	 2.3948130407	 0.184135
H	 0.9654918854	-1.9600566156	 3.2843307409	 0.184131
23.7442	61.171	112.0543	136.9628	207.0213	256.2008	345.3838	372.96	400.4945	458.9341	584.0078	732.5394	808.3159	875.5928	924.8616	957.7987	989.8904	1053.573	1134.9284	1182.3045	1213.2733	1215.4658	1293.4192	1346.5018	1401.0405	1425.0029	1438.2214	1485.8696	1496.1209	1519.2303	1841.6021	2380.4434	3048.8261	3057.8045	3059.6019	3094.5592	3099.0246	3124.1805	3130.3502
CCOC(=O)CC#N	CCOC(=O)CC#N	
InChI=1S/C5H7NO2/c1-2-8-5(7)3-4-6/h2-3H2,1H3	InChI=1S/C5H7NO2/c1-2-8-5(7)3-4-6/h2-3H2,1H3
