23
gdb 102376	1.67737	1.47589	1.0444	1.1956	87.37	-0.2599	0.0502	0.3101	1324.845	0.202275	-388.25986	-388.248346	-388.247402	-388.29648	41.938	
C	-0.0977352225	 1.5342682856	 0.1705274833	-0.406247
C	 0.0052909508	 0.0186183433	-0.0136868563	-0.186978
C	 0.7316764577	-0.4624125405	-1.3051578677	 0.045366
C	 0.7475775114	-2.0201060956	-1.2903399711	-0.186982
C	 1.4420255477	-2.6931435703	-2.4763053212	-0.406233
C	 0.014466042	 0.0670085458	-2.5676229238	-0.093809
O	-1.3181016069	-0.4229114756	-2.5579330228	-0.428839
C	 2.1046586813	 0.0506104302	-1.3260449938	 0.344134
C	 3.2315764883	 0.4717559247	-1.343245382	-0.4906
H	 0.8858179464	 2.0106563919	 0.1158490004	 0.126165
H	-0.7423965478	 1.9929161825	-0.585421206	 0.117218
H	-0.5304023742	 1.7667157503	 1.1485759647	 0.111037
H	 0.5360174399	-0.4154140508	 0.8410501913	 0.097517
H	-0.9974982683	-0.4190298314	-0.0247561307	 0.114496
H	 1.2338573073	-2.3334623953	-0.3597628682	 0.097522
H	-0.2932136593	-2.3534368945	-1.2366908481	 0.114467
H	 0.9030547782	-2.5229199531	-3.4132965962	 0.117124
H	 2.4658462775	-2.327154657	-2.5993833813	 0.126191
H	 1.487837264	-3.7756500819	-2.3217287383	 0.111049
H	 0.0388412637	 1.1650479197	-2.563305832	 0.097613
H	 0.5594381175	-0.2684728839	-3.4602197107	 0.097621
H	-1.7644905023	-0.096401386	-3.3440458437	 0.290534
H	 4.2270402075	 0.841451442	-1.3548378358	 0.191634
41.7953	88.7027	135.5766	136.7098	163.9837	214.6723	218.9337	220.7572	269.1907	295.8612	333.3233	392.7608	416.574	471.652	533.4239	592.1477	624.2773	634.1865	691.9177	778.5363	784.2163	885.5222	955.9258	972.0011	1006.4453	1054.9533	1069.7479	1081.0642	1097.9068	1151.7692	1172.7963	1214.9289	1268.9129	1273.5108	1296.9917	1350.948	1354.8263	1377.7039	1408.7864	1413.8725	1452.1572	1473.1929	1486.3545	1499.4581	1501.0208	1506.4774	1506.9733	1534.1246	2225.1356	3003.8208	3033.821	3037.8174	3040.5893	3040.6547	3044.7679	3083.4919	3089.282	3104.4083	3104.9775	3115.7966	3117.5395	3500.7379	3837.9172
CCC(CC)(CO)C#C	CCC(CC)(CO)C#C	
InChI=1S/C8H14O/c1-4-8(5-2,6-3)7-9/h1,9H,5-7H2,2-3H3	InChI=1S/C8H14O/c1-4-8(5-2,6-3)7-9/h1,9H,5-7H2,2-3H3
