22
gdb 117558	2.2709	0.96466	0.71613	3.9381	87.01	-0.296	0.0362	0.3322	1644.6171	0.193458	-367.225867	-367.215633	-367.214688	-367.2619	36.868	
C	-0.1547489338	 1.5332184229	 0.106872363	-0.382662
C	-0.0096138531	 0.0126105312	 0.0037543456	-0.185068
C	 0.7061174638	-0.5938043082	 1.2144568436	-0.172434
C	 0.8667241604	-2.1304169504	 1.1530061517	-0.177136
C	 1.6711391989	-2.5265835148	-0.0121911584	 0.288516
N	 2.3166901814	-2.8277257616	-0.9227449341	-0.336781
C	 1.4746407194	-2.6997344019	 2.4291095541	 0.031009
C	 0.5838770074	-3.0048284422	 3.6059838077	-0.279783
C	 1.2213122239	-4.1289568432	 2.8262911026	-0.269765
H	 0.8243767259	 2.0204491747	 0.1701190929	 0.119316
H	-0.6726475629	 1.9409295316	-0.7663044718	 0.11796
H	-0.7254151622	 1.819859728	 0.9972846549	 0.113989
H	-1.0026795902	-0.4456106712	-0.0962336161	 0.096142
H	 0.5396212287	-0.2444055564	-0.909664599	 0.125179
H	 1.698811774	-0.1402425764	 1.3262524448	 0.110876
H	 0.1519170153	-0.3640400458	 2.1321213592	 0.106311
H	-0.1281562089	-2.5768077283	 1.0168302633	 0.116274
H	 2.460126851	-2.3024871159	 2.6547643714	 0.100479
H	 0.9561012246	-2.7860695933	 4.6003211842	 0.119992
H	-0.4843312677	-2.8504808537	 3.4899946085	 0.114632
H	 0.5822239223	-4.7271814456	 2.1852466914	 0.120609
H	 2.0318921922	-4.6837632995	 3.2842479405	 0.122343
65.9798	81.0364	90.7463	125.5363	142.9426	219.3149	247.3514	290.5823	315.2184	394.7083	422.4614	531.836	599.2756	745.0132	768.9029	821.1108	834.9512	866.806	902.9299	920.2356	950.763	987.2869	1038.5179	1061.267	1070.4907	1084.3264	1102.1869	1134.3997	1141.15	1180.7078	1196.3446	1227.4716	1249.3844	1275.4958	1323.1587	1328.1416	1347.1709	1395.0995	1410.5698	1414.9043	1472.1605	1483.2445	1493.6898	1500.3907	1507.3731	1510.6798	2352.8553	3015.2876	3017.8674	3029.5534	3033.4136	3054.709	3076.8493	3099.2474	3106.8424	3131.2748	3138.2591	3150.6248	3211.1822	3226.7953
CCCC(C#N)C1CC1	CCC[C@@H](C#N)C1CC1	
InChI=1S/C8H13N/c1-2-3-8(6-9)7-4-5-7/h7-8H,2-5H2,1H3	InChI=1S/C8H13N/c1-2-3-8(6-9)7-4-5-7/h7-8H,2-5H2,1H3/t8-/m0/s1
