19
gdb 88574	3.58509	1.08335	0.98027	2.0532	78.21	-0.2369	0.0187	0.2556	1282.841	0.160591	-419.199557	-419.190912	-419.189967	-419.233954	31.301	
C	-0.9234350721	 1.0320970834	 0.4124620372	-0.405006
C	 0.0267600163	-0.0771274423	 0.0398324003	 0.010627
N	 1.3314081451	 0.3103146497	-0.4948724203	-0.315473
C	 1.2853534545	-0.3818556996	 0.8032949289	-0.145086
C	 1.7100744636	 0.3614975751	 2.0114981825	 0.449119
N	 1.7320559188	 1.6169287595	 2.2013400493	-0.310951
C	 2.2172340582	 1.826919143	 3.5720755635	-0.184643
C	 2.447622983	 0.3988259374	 4.1328712427	-0.113014
O	 2.1022729388	-0.4642878226	 3.0286051168	-0.263556
H	-0.3814072493	 1.8538855433	 0.8829109543	 0.164898
H	-1.4287084047	 1.4092079607	-0.4830944683	 0.117083
H	-1.6898610374	 0.6665593321	 1.1045269036	 0.110051
H	-0.4442816035	-0.9578704262	-0.3976200927	 0.086461
H	 1.6430063243	-0.3377849035	-1.2132407342	 0.235332
H	 1.5807911369	-1.4266415559	 0.8426391959	 0.097131
H	 3.13537402	 2.4241351425	 3.5550766175	 0.11701
H	 1.4771317309	 2.3894506247	 4.1512000679	 0.115286
H	 3.485453195	 0.1987083612	 4.4134029827	 0.118073
H	 1.7992795016	 0.1510605674	 4.9785450724	 0.116657
40.5808	88.1571	126.6549	179.7409	204.4225	269.463	367.8802	424.622	457.0545	674.5443	736.9664	761.2005	792.0305	830.3769	857.9086	914.2135	939.7149	973.597	992.9435	1009.2117	1026.2008	1032.004	1085.9215	1120.7042	1148.874	1195.1026	1201.2496	1215.3128	1245.8585	1246.1539	1260.5874	1329.2575	1371.3047	1399.6142	1438.9676	1475.9294	1496.8714	1500.0052	1504.5494	1527.6448	1738.6954	3036.1433	3037.908	3052.8427	3064.6252	3096.4843	3099.0969	3099.9436	3147.1937	3149.8718	3505.2993
CC1NC1C1=NCCO1	C[C@H]1N[C@H]1C1=NCCO1	
InChI=1S/C6H10N2O/c1-4-5(8-4)6-7-2-3-9-6/h4-5,8H,2-3H2,1H3	InChI=1S/C6H10N2O/c1-4-5(8-4)6-7-2-3-9-6/h4-5,8H,2-3H2,1H3/t4-,5-/m1/s1
