19
gdb 29785	2.39791	1.52337	0.94724	2.2226	80.81	-0.1762	0.053	0.2292	1236.6225	0.158273	-419.235991	-419.22561	-419.224666	-419.271536	36.795	
C	-0.0363647435	 1.4675867622	 0.0027688825	-0.340227
N	 0.0053274293	 0.0221438627	-0.0084141301	-0.004873
C	-0.0172656824	-0.7588632452	-1.146002407	-0.203312
C	 0.0314381292	-2.0728220181	-0.746630442	 0.232751
O	 0.0312160694	-3.1399087257	-1.6032924588	-0.451739
C	 0.0771553029	-2.1129981811	 0.6749428566	 0.103847
C	 0.1331255445	-3.3387238439	 1.5329104367	-0.533504
C	 0.0582659346	-0.7922256124	 1.0991791439	 0.158571
N	 0.1004441802	-0.2170460537	 2.3917814653	-0.611318
H	 0.1042589815	 1.8021776138	 1.0304938958	 0.156768
H	 0.7605338719	 1.8802194325	-0.6248188982	 0.128412
H	-0.9981882378	 1.8416772568	-0.3673729711	 0.126017
H	-0.0658584319	-0.3237620876	-2.129824579	 0.111473
H	 0.0707208697	-3.9452661151	-1.0797172451	 0.292105
H	 1.0538780205	-3.9195887502	 1.383967059	 0.120805
H	 0.0934424912	-3.0704321872	 2.5932078541	 0.110334
H	-0.7094319874	-4.0187984536	 1.346222001	 0.119509
H	 0.8695024456	-0.5812747488	 2.9427027995	 0.242753
H	-0.7543830375	-0.3752606153	 2.9158264368	 0.241629
47.7169	99.4401	125.7452	167.8574	188.0067	200.0047	236.2734	265.7258	299.4076	324.7644	355.7727	557.9001	585.7343	609.5046	613.1518	657.0397	700.9387	732.537	783.4847	877.7822	1027.4395	1059.0971	1092.5111	1151.1731	1155.0093	1182.6087	1203.919	1227.0244	1285.6282	1402.5807	1416.4261	1431.6462	1452.4766	1487.7899	1491.6912	1497.2653	1506.9288	1525.2343	1567.6026	1644.8602	1667.9886	2999.6075	3025.4723	3037.8994	3078.437	3092.7789	3154.6643	3272.7986	3497.8447	3568.0977	3840.6083
CN1C=C(O)C(C)=C1N	Cn1cc(O)c(C)c1N	
InChI=1S/C6H10N2O/c1-4-5(9)3-8(2)6(4)7/h3,9H,7H2,1-2H3	InChI=1S/C6H10N2O/c1-4-5(9)3-8(2)6(4)7/h3,9H,7H2,1-2H3
