16
gdb 14663	13.3441	0.52909	0.51378	1.3482	90.02	-0.2278	-0.0136	0.2142	2114.2247	0.128317	-346.553095	-346.543426	-346.542481	-346.589053	32.287	
C	-0.0347433602	 1.5584985123	-0.0254693809	-0.366966
C	 0.0094070957	 0.0186812704	 0.018140785	-0.343375
C	 0.7073325787	-0.4986781439	 1.1857820859	 0.296481
C	 1.2905643166	-0.9146528669	 2.1621848053	-0.227812
C	 1.9451482078	-1.3832022263	 3.2579233651	-0.210716
C	 2.5268479179	-1.8039357535	 4.2320576727	 0.3134
C	 3.2322215596	-2.2704587056	 5.4156797978	-0.244913
O	 3.2726053924	-3.6921971889	 5.423838143	-0.407975
H	 0.9754241459	 1.9754675778	-0.0478499308	 0.13263
H	-0.5683928166	 1.8948946507	-0.9190232294	 0.118456
H	-0.5464556686	 1.9573298488	 0.8542305435	 0.132621
H	-1.0139041504	-0.3788859179	 0.0029906799	 0.137004
H	 0.4945169835	-0.3609755204	-0.890684001	 0.137031
H	 4.2482601946	-1.8415430005	 5.4173922057	 0.121523
H	 2.7219128195	-1.8797707128	 6.3119483157	 0.121528
H	 3.7469476836	-3.9599264734	 6.2177979427	 0.291083
27.1879	62.041	89.0435	132.9761	197.1589	220.6039	263.5563	279.1774	387.0945	403.8525	537.6773	562.5758	569.1794	653.0943	786.7353	881.8949	996.7536	1021.4114	1057.0518	1080.8182	1102.0563	1239.265	1242.6455	1281.2133	1283.4801	1352.5021	1410.4813	1460.4907	1471.4663	1495.1055	1498.4102	1505.408	2278.1464	2385.2343	2957.7572	2975.3034	3017.3857	3045.3991	3047.2849	3121.8246	3127.9644	3816.0195
CCC#CC#CCO	CCC#CC#CCO	
InChI=1S/C7H8O/c1-2-3-4-5-6-7-8/h8H,2,7H2,1H3	InChI=1S/C7H8O/c1-2-3-4-5-6-7-8/h8H,2,7H2,1H3
