18
gdb 121512	7.79868	0.46252	0.45045	2.8643	75.69	-0.2555	-0.046	0.2095	2327.1335	0.143915	-476.209849	-476.199441	-476.198496	-476.248347	34.495	
O	 0.1621115007	 1.3193245604	 0.0219992402	-0.420347
C	-0.0516521305	-0.0542983936	 0.2581922854	-0.037005
C	-1.5028859829	-0.4491100341	-0.0338112391	-0.159833
N	-1.8117057899	-0.0832636074	-1.4060218034	-0.230306
C	-2.3443226992	-0.940738217	-2.1517869375	 0.133683
O	-2.6572550053	-0.6380067409	-3.4306557877	-0.204812
C	-3.133820027	-1.6873256852	-4.2550843847	-0.165085
C	-4.1831219997	-1.1239285971	-5.2036409526	 0.140679
O	-4.6165615738	-1.7405698817	-6.1379505866	-0.225576
H	-0.2511081344	 1.5029017506	-0.831776211	 0.292812
H	 0.6199639725	-0.6811873627	-0.3525587722	 0.081707
H	 0.1814343229	-0.2452045552	 1.3113177495	 0.104388
H	-1.6599781539	-1.5203745656	 0.1760270731	 0.082704
H	-2.1569707228	 0.1289844234	 0.6307488874	 0.119569
H	-2.6100637428	-1.9655136381	-1.8499490429	 0.086508
H	-2.3174023017	-2.1304266994	-4.8384944857	 0.150861
H	-3.5986140536	-2.4884701249	-3.6622325976	 0.140745
H	-4.5168691885	-0.0957440913	-4.9454835248	 0.109311
16.0892	45.7937	63.9689	85.8258	127.7691	184.7372	222.1455	284.3103	348.8647	399.9901	468.7919	473.928	551.3431	639.993	734.5741	888.7214	898.2641	984.0798	1032.2945	1054.6154	1089.7033	1094.8103	1118.9516	1129.3254	1221.4475	1225.7934	1260.065	1284.4227	1341.823	1369.3467	1384.2619	1400.2382	1415.9436	1440.7123	1469.8577	1480.9104	1509.6664	1780.4602	1847.5262	2912.2891	2959.0207	2968.3229	2999.3588	3009.7624	3049.4419	3062.768	3071.5595	3767.2941
OCCN=COCC=O	OCCN=COCC=O	
InChI=1S/C5H9NO3/c7-2-1-6-5-9-4-3-8/h3,5,7H,1-2,4H2	InChI=1S/C5H9NO3/c7-2-1-6-5-9-4-3-8/h3,5,7H,1-2,4H2
