20
gdb 92287	2.95326	1.53425	1.21971	2.28	78.91	-0.2447	0.0316	0.2763	1082.9599	0.173208	-403.156312	-403.14837	-403.147425	-403.188889	30.831	
C	 0.0848472134	 1.6209958534	-0.0253934321	-0.409355
C	 0.0849905607	 0.1022542713	 0.0169946667	 0.028687
C	 1.0077261745	-0.7028112504	-0.9426802329	-0.262304
C	 1.2612515954	-1.7140143262	 0.2128241778	-0.030908
C	 2.6632875037	-2.2480472266	 0.4709822333	-0.186837
N	 3.5909135404	-1.2658198157	 1.0215746637	-0.265903
C	 3.1162387243	-0.2383198583	 1.580570671	 0.128961
O	 1.8300900969	 0.1568815552	 1.7577869444	-0.242
C	 0.7665055559	-0.6334529615	 1.2074856226	 0.094109
H	 1.0935906829	 2.0174846857	 0.1162896277	 0.125222
H	-0.2898636614	 1.9773231197	-0.9908573782	 0.114448
H	-0.5532586653	 2.0436874615	 0.7582171156	 0.116145
H	-0.9398778682	-0.2782851665	-0.0639151349	 0.076292
H	 0.568175173	-1.0933317801	-1.863126305	 0.098016
H	 1.9145786299	-0.1445286205	-1.1962449387	 0.113357
H	 0.5364625275	-2.5320892533	 0.1673083536	 0.078377
H	 2.6196008728	-3.0936063808	 1.1715169022	 0.112304
H	 3.0978929769	-2.6462265214	-0.4540336001	 0.110628
H	 3.7774907891	 0.5063317975	 2.0213045629	 0.120547
H	 0.1390297775	-0.9398700029	 2.0486928704	 0.080214
77.3525	127.4064	200.3729	233.6172	311.3259	346.0856	455.7011	477.0085	530.5419	598.8962	657.5249	761.1277	819.8278	860.5666	886.2931	901.9305	935.4018	954.7098	964.7512	973.7199	1020.3811	1070.4561	1118.3388	1129.084	1141.102	1165.8772	1179.4507	1234.0571	1244.6641	1272.1342	1279.7057	1307.6786	1335.2002	1364.0105	1374.7959	1390.3725	1410.5749	1419.41	1481.6907	1490.9463	1492.9228	1500.4292	1737.7932	3009.6214	3033.6658	3039.041	3043.8776	3054.0522	3060.1923	3072.458	3096.777	3111.8238	3120.317	3152.3097
CC1CC2CN=COC12	C[C@H]1C[C@H]2CN=CO[C@@H]12	
InChI=1S/C7H11NO/c1-5-2-6-3-8-4-9-7(5)6/h4-7H,2-3H2,1H3	InChI=1S/C7H11NO/c1-5-2-6-3-8-4-9-7(5)6/h4-7H,2-3H2,1H3/t5-,6-,7-/m0/s1
