23
gdb 106514	2.98491	1.3249	1.15769	1.3794	84.91	-0.2442	0.0804	0.3246	1191.7522	0.207662	-388.28703	-388.278538	-388.277594	-388.319873	33.812	
C	 0.1097830317	 1.538556817	-0.2062967963	-0.387075
C	-0.0215209001	 0.0544085204	 0.1580476078	-0.275887
C	-1.4336894187	-0.5100945916	 0.0467783874	 0.324323
C	-2.1988916953	-0.4584930182	-1.3143336709	-0.257304
C	-2.8877165732	-1.7691120128	-0.8408788894	-0.04437
C	-1.6140185207	-2.055131489	-0.0068364536	-0.268353
C	-4.0309459434	-1.4027483933	 0.1117922549	-0.067285
O	-3.7565047127	-0.1956419416	 0.8100836862	-0.26096
C	-2.389552422	 0.0146461779	 1.1381218018	-0.107482
H	 1.1551963014	 1.8584580964	-0.158560721	 0.113132
H	-0.2498809349	 1.7274664891	-1.2232792214	 0.121062
H	-0.4602566528	 2.1822792141	 0.4705688385	 0.119947
H	 0.6314139544	-0.5325674728	-0.5007234351	 0.091664
H	 0.3545630045	-0.1106397719	 1.1777323956	 0.09339
H	-2.8318093645	 0.4083431098	-1.5184161677	 0.102551
H	-1.5243719616	-0.6357931139	-2.1566670755	 0.091028
H	-3.2097995021	-2.5060883246	-1.5804294262	 0.062297
H	-0.8283993709	-2.5338769049	-0.5995866917	 0.088973
H	-1.7306387636	-2.5914964182	 0.9416551524	 0.086019
H	-4.9618174	-1.2199446468	-0.4369920541	 0.102947
H	-4.2125093022	-2.2323560498	 0.8161375832	 0.08464
H	-2.1368647178	-0.4641194183	 2.1001574031	 0.084323
H	-2.2899107254	 1.0971985528	 1.2695761719	 0.102419
85.8478	156.7916	185.8659	216.6867	282.4846	314.8894	404.2352	423.3071	436.8968	493.5058	602.2368	648.8875	779.205	826.3882	863.8377	884.6364	889.7446	915.1579	927.6304	951.7558	972.6151	1009.6931	1022.534	1066.5476	1077.1962	1079.0531	1109.4171	1142.515	1169.1471	1200.772	1210.5824	1239.2612	1254.1398	1268.9973	1281.7259	1299.9172	1337.6125	1341.954	1370.7118	1385.4346	1411.7172	1418.4195	1474.8898	1483.8075	1500.0285	1503.686	1505.2942	1508.4606	1517.8554	2951.5469	2961.3075	3007.3294	3030.9146	3036.9467	3040.3442	3054.2387	3056.1354	3066.2973	3079.4809	3088.4573	3103.8314	3107.1505	3115.0089
CCC12CC(C1)COC2	CC[C@@]12C[C@@H](C1)COC2	
InChI=1S/C8H14O/c1-2-8-3-7(4-8)5-9-6-8/h7H,2-6H2,1H3	InChI=1S/C8H14O/c1-2-8-3-7(4-8)5-9-6-8/h7H,2-6H2,1H3/t7-,8+
