18
gdb 77411	2.59277	1.62555	1.3509	2.0287	71.7	-0.2286	0.0626	0.2912	1010.9446	0.146921	-439.013082	-439.004637	-439.003693	-439.045467	33.069	
C	 0.0933227338	 1.5521666668	 0.058357188	-0.499051
C	 0.0463563137	 0.0559457315	-0.016750427	 0.217315
C	 0.6176147846	-0.8054418889	-1.1133105321	-0.122061
N	 2.0817856611	-0.9279900447	-0.8824577409	-0.351639
C	 1.1421403239	-1.8160060856	-0.1403346594	-0.164369
C	 0.5715532199	-1.0200666944	 0.9911085142	 0.325221
O	 1.0918198091	-0.853817004	 2.2625758035	-0.471193
C	-0.9051713996	-0.7944664805	 0.8253456489	 0.030515
O	-1.5300310622	-0.1614449539	 1.8963478288	-0.444595
H	 1.1142612095	 1.9243677144	-0.0742205349	 0.124861
H	-0.5319289177	 2.0019861547	-0.7220878425	 0.12121
H	-0.2899832342	 1.8975743866	 1.0218746395	 0.127175
H	 0.1910785729	-1.0080136757	-2.0890757984	 0.095358
H	 2.4589980477	-1.4821498763	-1.6534686734	 0.225223
H	 1.1896563185	-2.8935801492	-0.2457115454	 0.09788
H	 1.9379757881	-0.3980892679	 2.1848539594	 0.302908
H	-1.5437601716	-1.5433193836	 0.3575405543	 0.089553
H	-0.8971009576	-0.1625904491	 2.6274213475	 0.295689
155.2856	166.2586	209.7115	217.9583	262.3337	273.037	366.9659	408.6227	462.0156	518.5767	537.5946	621.9467	672.8422	708.6725	760.9231	838.2792	849.496	861.0352	914.7431	942.2515	1040.778	1069.3622	1076.3022	1100.6535	1118.6488	1133.8052	1170.1787	1201.7093	1238.2818	1265.1789	1296.7605	1331.0742	1368.1656	1370.7331	1405.7864	1414.4359	1452.6975	1489.3	1499.0693	3029.3768	3087.2016	3100.8326	3120.9454	3175.5595	3187.3187	3451.3903	3750.3506	3796.4331
CC12C3NC3C1(O)C2O	C[C@@]12[C@H]3N[C@H]3[C@]1(O)[C@H]2O	
InChI=1S/C6H9NO2/c1-5-2-3(7-2)6(5,9)4(5)8/h2-4,7-9H,1H3	InChI=1S/C6H9NO2/c1-5-2-3(7-2)6(5,9)4(5)8/h2-4,7-9H,1H3/t2-,3+,4-,5-,6-/m0/s1
