19
gdb 112032	3.3924	1.21525	1.00946	2.044	75.71	-0.2404	0.0115	0.2519	1191.2621	0.16055	-423.004456	-422.996332	-422.995388	-423.037499	30.773	
O	-0.0591370201	 1.4877847572	-0.0424326173	-0.421721
C	 0.0579657567	 0.0716825267	-0.070682659	-0.094338
C	-1.3598009663	-0.4982301122	-0.0078871484	-0.032439
C	-2.1950621339	-0.2005797054	-1.2379552302	-0.063307
C	-2.8540825363	-1.2646584374	-1.6972314703	-0.101503
C	-2.5674827241	-2.4940003927	-0.8778786131	 0.088623
O	-1.6665299276	-3.4348575314	-1.5221091354	-0.294152
C	-0.5532396229	-2.9472294761	-0.7454221276	-0.085537
C	-1.4664039981	-2.0338184793	 0.1124684722	-0.120797
H	 0.8142723727	 1.8661337856	-0.1782390045	 0.288505
H	 0.5643840089	-0.2624124388	-0.9881269084	 0.09107
H	 0.6436295276	-0.2968228067	 0.7872939305	 0.08629
H	-1.8239984852	-0.028430701	 0.8711648018	 0.093223
H	-2.2294988551	 0.7969852534	-1.6611543883	 0.110051
H	-3.5110071922	-1.2788338632	-2.5596331637	 0.099025
H	-3.4605598342	-3.0086564037	-0.5055265587	 0.077284
H	-0.0541156601	-3.7597033731	-0.2048214172	 0.101979
H	 0.1876702626	-2.4333426969	-1.3702851717	 0.09818
H	-1.5685779823	-2.3767157449	 1.1422390193	 0.079565
83.3133	103.8768	177.7939	223.9648	267.6651	300.1604	391.4502	438.4748	558.0851	675.0656	726.5289	782.142	803.0386	869.2089	890.1347	901.9567	972.5904	987.0154	1000.972	1015.6001	1018.438	1068.2066	1071.9042	1090.9491	1115.772	1149.8105	1167.7109	1219.0823	1239.6375	1247.8147	1267.2571	1302.5158	1315.7983	1332.1279	1349.1264	1358.6378	1388.1466	1452.6224	1518.8821	1522.6225	1673.8045	2966.0328	2994.8284	3012.2429	3020.0774	3040.7395	3057.6884	3106.8333	3188.737	3213.4289	3832.6424
OCC1C=CC2OCC12	OC[C@H]1C=C[C@H]2OC[C@@H]12	
InChI=1S/C7H10O2/c8-3-5-1-2-7-6(5)4-9-7/h1-2,5-8H,3-4H2	InChI=1S/C7H10O2/c8-3-5-1-2-7-6(5)4-9-7/h1-2,5-8H,3-4H2/t5-,6+,7-/m1/s1
