22
gdb 90034	3.17977	1.13297	0.98224	2.4302	83.27	-0.2097	0.0817	0.2914	1320.2506	0.193003	-404.306919	-404.297542	-404.296598	-404.341425	34.992	
C	-0.3621639394	 1.4326421926	 0.0143343206	-0.412605
C	 0.0495829334	-0.0272751693	-0.101331326	-0.111719
C	 1.389513025	-0.3454286027	-0.7978595713	-0.08658
O	 1.8738914385	-1.0471511899	 0.3645973106	-0.317969
C	 0.6936438944	-0.7190292586	 1.120119975	 0.435902
C	 0.9374848386	-0.0542054861	 2.4963595575	-0.230691
N	 0.6572206713	-1.3488267062	 3.1459331905	-0.067835
C	-0.1253312434	-1.3575846769	 4.3587954388	-0.318495
C	 0.0528070543	-1.8793970432	 1.909938902	-0.227708
H	 0.4520648986	 2.0452385613	 0.4163174146	 0.122829
H	-0.6317121346	 1.8381652208	-0.9667651397	 0.118714
H	-1.2298646357	 1.553872345	 0.6714165704	 0.120401
H	-0.7774075835	-0.6217469153	-0.5026273362	 0.079826
H	 1.3456822349	-0.9932062274	-1.6812170082	 0.100918
H	 2.0059120899	 0.5334564201	-1.0311357348	 0.096051
H	 1.942474953	 0.3446055869	 2.6707540552	 0.109399
H	 0.1903550886	 0.7252902361	 2.723482091	 0.07904
H	-1.1041200768	-0.8482466415	 4.2508956289	 0.082661
H	-0.3148681128	-2.3894699493	 4.6732763595	 0.12056
H	 0.4271541749	-0.8598130224	 5.1628904151	 0.120511
H	-1.0502312762	-1.8244152226	 1.8942890688	 0.077099
H	 0.369847017	-2.8902445017	 1.6317214376	 0.109693
53.5225	73.2525	173.0107	228.8994	233.6418	262.9795	287.9836	309.3319	385.0107	394.8422	467.7302	511.6927	715.9292	747.2415	871.3441	898.4667	899.5203	919.0778	947.2307	987.8286	1003.3771	1028.2467	1080.8148	1109.5996	1128.6166	1136.5515	1156.4319	1166.8219	1178.2305	1193.0413	1218.7939	1225.0129	1268.7273	1296.8237	1298.8613	1341.3734	1353.5514	1388.2645	1411.1422	1450.7574	1479.5718	1483.8488	1494.7738	1496.5569	1497.3528	1510.6384	1527.5112	2904.5846	2944.4829	2960.227	3005.9793	3029.2339	3044.9475	3053.8038	3061.4576	3062.1191	3063.1738	3096.7789	3097.0343	3100.7883
CC1COC11CN(C)C1	C[C@H]1COC21CN(C)C2	
InChI=1S/C7H13NO/c1-6-3-9-7(6)4-8(2)5-7/h6H,3-5H2,1-2H3	InChI=1S/C7H13NO/c1-6-3-9-7(6)4-8(2)5-7/h6H,3-5H2,1-2H3/t6-/m0/s1
