18
gdb 38498	3.20619	1.75003	1.59497	2.6869	73.64	-0.2394	0.0656	0.305	910.4381	0.149614	-401.873857	-401.86719	-401.866245	-401.904503	27.905	
C	 0.0009331222	 1.4340775814	 0.0808326255	-0.244873
C	 1.2785512048	 0.6756491291	 0.0315438409	-0.132362
N	-0.0410153147	-0.0320001663	 0.0668701882	-0.091145
C	-0.325940475	-0.6029274452	-1.2888719685	-0.260745
C	 0.8844010131	-0.2652476343	-2.1335955776	 0.292689
C	 1.2262203789	 0.5465708461	-3.4017852303	-0.293339
C	 2.2677270154	 1.3538113102	-2.5387546573	-0.295636
C	 1.8501640463	 0.4885393008	-1.3296531311	 0.306416
O	 2.0938446782	-0.8811337878	-1.6723193097	-0.300598
H	-0.3162306171	 1.8947942275	 1.0118299509	 0.122435
H	-0.307639081	 1.9712148552	-0.8154118308	 0.105588
H	 1.8939912516	 0.5682409272	 0.9192503991	 0.103678
H	-0.4680501601	-1.6817806227	-1.1806784481	 0.124337
H	-1.2475376301	-0.1731852118	-1.6950354993	 0.110488
H	 1.6150462157	-0.0362567883	-4.2391377591	 0.115557
H	 0.3982612464	 1.1707565213	-3.7462691299	 0.109317
H	 3.3181919673	 1.2736533678	-2.8246299072	 0.11598
H	 1.9979878182	 2.4060290898	-2.4299438258	 0.112214
167.7441	220.1351	303.9013	376.9919	448.2446	478.8638	517.4225	637.0039	682.3252	736.9497	751.8113	765.6026	800.23	838.7009	890.0082	927.7724	932.4597	964.5794	976.8538	1018.4755	1071.5552	1087.994	1113.5396	1126.4496	1153.4661	1178.5929	1216.2908	1216.884	1223.8852	1244.7299	1269.359	1279.4926	1331.4794	1372.5246	1424.0498	1465.0937	1484.9499	1488.9856	1505.4412	3050.0276	3067.6735	3076.7407	3092.1119	3095.4325	3120.4496	3138.029	3157.3088	3184.2457
C1C2N1CC13CCC21O3	C1[C@H]2N1C[C@@]13CC[C@@]21O3	
InChI=1S/C7H9NO/c1-2-7-5-3-8(5)4-6(1,7)9-7/h5H,1-4H2	InChI=1S/C7H9NO/c1-2-7-5-3-8(5)4-6(1,7)9-7/h5H,1-4H2/t5-,6+,7-,8?/m1/s1
