17
gdb 56509	2.60236	1.25982	1.05231	1.3115	72.68	-0.3155	-0.004	0.3116	1172.2577	0.133152	-418.035524	-418.025481	-418.024537	-418.070204	35.996	
C	-0.0727745099	 1.5722315115	 0.0482042765	-0.435575
C	-0.0119677676	 0.0335925782	-0.0010168762	-0.149612
C	-1.3614540851	-0.5311217467	 0.0874336405	 0.281425
N	-2.4293196174	-0.9634411475	 0.1740824584	-0.320525
C	 0.7131865922	-0.5124062927	-1.2828286695	 0.195328
C	 0.7190712839	-2.0442137502	-1.3267697135	-0.414846
O	 0.0718831225	-0.08084534	-2.4663987703	-0.43408
C	 2.1109410982	-0.0141895277	-1.2494360909	 0.255677
N	 3.1896820258	 0.3997646353	-1.2289720166	-0.331946
H	 0.9349970278	 1.9918877642	-0.0044906273	 0.156533
H	-0.6738090515	 1.96661134	-0.7757232321	 0.139999
H	-0.5363928057	 1.9020577334	 0.9800338913	 0.153088
H	 0.5545977679	-0.3264163166	 0.8661637468	 0.146249
H	-0.310890119	-2.401647971	-1.3858205924	 0.167153
H	 1.2632563994	-2.3816728942	-2.2104030416	 0.151605
H	 1.1952325051	-2.4581169575	-0.4348577014	 0.138219
H	 0.1893400734	 0.8703043317	-2.5685572816	 0.301309
59.5098	129.2232	172.5274	185.26	212.7952	237.6543	245.3653	270.3674	326.6131	359.8651	393.2318	421.608	506.57	567.128	593.1742	615.496	743.5038	841.1029	912.4763	954.4861	1021.1522	1038.1828	1108.9033	1110.4593	1167.2061	1197.9389	1307.2861	1334.5305	1362.133	1408.6464	1413.7143	1480.0148	1493.2572	1495.57	1506.3589	2351.7048	2361.8922	3047.2591	3053.5059	3062.0344	3129.9415	3138.9268	3145.0223	3152.0861	3811.1249
CC(C#N)C(C)(O)C#N	C[C@@H](C#N)[C@@](C)(O)C#N	
InChI=1S/C6H8N2O/c1-5(3-7)6(2,9)4-8/h5,9H,1-2H3	InChI=1S/C6H8N2O/c1-5(3-7)6(2,9)4-8/h5,9H,1-2H3/t5-,6-/m0/s1
