19
gdb 115660	3.16321	1.1118	0.95495	1.4527	70.79	-0.2536	0.0463	0.2999	1258.1634	0.158968	-460.107144	-460.098444	-460.0975	-460.141404	31.592	
O	-0.0761246224	 1.4648299532	-0.51045749	-0.419615
C	 0.0909966845	 0.1091451216	-0.1517731478	-0.070181
C	-1.2477921387	-0.4902714171	 0.2502298006	 0.047881
O	-2.1954459428	-0.3275758343	-0.8399761468	-0.308939
C	-2.3440437488	-1.75788631	-0.9763319653	-0.132513
C	-1.4149199939	-2.0226663963	 0.2191113834	 0.206358
C	-0.2510528783	-3.0315769858	 0.1759848138	-0.139305
O	-0.7643029508	-3.7443143957	 1.317920127	-0.271653
C	-1.8702566656	-2.829684842	 1.4472671516	-0.13175
H	-0.8000993958	 1.478572225	-1.1495190356	 0.294571
H	 0.5241892014	-0.4767037573	-0.9799497314	 0.082769
H	 0.7964555778	 0.0779197504	 0.686011139	 0.112009
H	-1.6209500884	-0.001021845	 1.1598088873	 0.086432
H	-3.3866545955	-2.0743752648	-0.8479056289	 0.11
H	-1.9765681103	-2.1211977774	-1.9449612995	 0.107214
H	-0.2131609808	-3.6615859185	-0.7225749488	 0.104927
H	 0.749865744	-2.6225285987	 0.3633433183	 0.110065
H	-1.8461260223	-2.2840696193	 2.4000883027	 0.106608
H	-2.8405005133	-3.3345725581	 1.3497021705	 0.105121
65.4653	77.5626	122.9143	153.6233	252.0786	294.0752	335.4787	442.0321	475.3931	480.5671	560.2836	819.2546	856.8728	875.5436	896.3251	918.4326	970.5506	989.0556	1019.5084	1043.6183	1049.8296	1075.6286	1098.7934	1147.4165	1152.1381	1161.1786	1184.2343	1218.2619	1225.8389	1240.6343	1286.2988	1310.5912	1335.7264	1366.2897	1388.984	1398.0738	1437.6455	1498.6446	1508.0347	1518.0772	1533.855	2962.1445	2997.3932	3006.4488	3011.056	3021.7094	3044.2349	3048.5862	3054.5585	3069.9633	3777.798
OCC1OCC11COC1	OC[C@H]1OCC21COC2	
InChI=1S/C6H10O3/c7-1-5-6(4-9-5)2-8-3-6/h5,7H,1-4H2	InChI=1S/C6H10O3/c7-1-5-6(4-9-5)2-8-3-6/h5,7H,1-4H2/t5-/m1/s1
