20
gdb 23046	3.00676	1.15781	0.97488	0.712	83.63	-0.2376	0.004	0.2416	1278.6315	0.170362	-403.087814	-403.07891	-403.077965	-403.122524	33.486	
O	-0.3981995852	 1.5517796735	 0.037159306	-0.391668
N	-0.1341699102	 0.1861513448	 0.2588942586	-0.249136
C	-1.1548843352	-0.5229072878	 0.0134921888	 0.347564
C	-2.5749816056	-0.2827532433	-0.4533808854	-0.325849
C	-2.7995013696	-1.827076579	-0.3660774981	-0.303688
C	-1.3216010813	-2.0199159079	 0.1144345055	 0.296523
C	-0.3959142686	-3.0237488334	-0.6336739107	-0.27788
C	-0.5230523017	-3.9995223306	 0.5658280765	-0.211997
C	-1.0374699018	-2.8134612037	 1.4235763731	-0.27786
H	 0.445905236	 1.9593912008	 0.258323798	 0.304862
H	-3.1769661548	 0.3259014702	 0.2276503514	 0.126309
H	-2.6534856449	 0.1548927265	-1.4528533198	 0.12631
H	-3.552384114	-2.1324722021	 0.3644793398	 0.104832
H	-3.026179266	-2.3042234274	-1.3225097002	 0.104843
H	-0.7359777451	-3.3673866313	-1.6145517742	 0.095698
H	 0.6149884207	-2.6189171775	-0.7310847208	 0.116669
H	-1.2976377646	-4.7535770201	 0.4013513705	 0.102704
H	 0.3853350045	-4.5047806995	 0.9007612458	 0.099403
H	-0.2356163353	-2.3401098222	 1.9965261346	 0.116661
H	-1.8898912673	-2.9891574499	 2.0856644006	 0.095699
26.3604	93.1327	120.4028	191.0971	282.7868	314.3561	356.204	427.9429	429.7038	503.081	594.7618	686.8217	747.1473	765.3424	789.9065	861.697	888.034	889.0524	937.6081	941.0196	952.4851	983.2484	1038.5691	1082.9784	1087.9777	1152.4146	1178.188	1203.1354	1204.9652	1223.0428	1232.85	1253.741	1266.02	1274.2767	1284.1285	1294.8466	1405.1111	1456.8164	1470.5777	1479.3465	1487.7309	1503.6377	1772.2668	3050.9988	3053.6007	3055.1872	3061.8774	3064.1345	3095.5409	3098.424	3108.1852	3118.2863	3122.0939	3817.0694
ON=C1CCC11CCC1	ON=C1CCC21CCC2	
InChI=1S/C7H11NO/c9-8-6-2-5-7(6)3-1-4-7/h9H,1-5H2	InChI=1S/C7H11NO/c9-8-6-2-5-7(6)3-1-4-7/h9H,1-5H2
