21
gdb 99994	2.11279	1.28068	1.15782	3.5438	79.07	-0.2614	0.0352	0.2966	1234.5245	0.180004	-420.41003	-420.399036	-420.398092	-420.446051	39.669	
C	 0.1136075299	 1.3721690826	-0.0181640315	-0.246986
O	-0.0390574345	-0.031053421	-0.0356690132	-0.286284
C	-1.3654906925	-0.5688807335	-0.0006914091	 0.363066
C	-2.1043134531	-0.177789811	 1.2865221647	-0.443974
C	-2.1765428016	-0.1696679304	-1.241863901	-0.427923
C	-1.104210952	-2.1030480096	-0.0289597003	-0.132781
N	-0.3620518917	-2.4671619974	-1.2345168148	-0.508006
C	-0.4249112814	-2.5474297755	 1.2103474599	 0.276774
N	 0.1212916109	-2.9520547805	 2.1458237535	-0.341945
H	 1.1895142772	 1.561891907	-0.0309873555	 0.13451
H	-0.3344266455	 1.8556596221	-0.8964638413	 0.112367
H	-0.3064708396	 1.8282222012	 0.8876969393	 0.114758
H	-2.3701300311	 0.8824567677	 1.2791471421	 0.120413
H	-3.0361962769	-0.7446652286	 1.3771159022	 0.121666
H	-1.490067382	-0.3785895824	 2.1674519533	 0.15103
H	-1.6462961191	-0.4480203406	-2.1531364683	 0.14428
H	-3.1462295201	-0.6769617244	-1.2380407938	 0.116955
H	-2.3724125324	 0.9058161363	-1.2486040701	 0.115463
H	-2.0788323831	-2.6036037682	-0.0582132721	 0.12306
H	 0.5176868504	-1.9589849273	-1.2274147544	 0.251244
H	-0.1428630617	-3.4580261264	-1.2241832897	 0.242312
43.4345	77.6818	145.3447	168.252	190.6276	245.7354	249.1199	261.9539	301.422	312.6029	354.6659	366.0342	404.0192	435.5378	487.1327	602.8325	632.9404	741.1447	843.6004	887.0365	927.9936	941.8599	971.3505	1021.98	1097.7167	1119.2952	1165.7073	1180.0528	1197.7978	1212.1405	1250.7284	1264.1247	1334.4008	1390.5551	1395.3973	1416.3185	1473.7503	1477.3063	1481.2428	1498.545	1502.0737	1509.0195	1514.7899	1644.1483	2344.2698	3003.1725	3044.7876	3048.9989	3054.9924	3059.1406	3110.7174	3115.2392	3118.4317	3132.9992	3151.8504	3502.969	3585.8017
COC(C)(C)C(N)C#N	COC(C)(C)[C@@H](N)C#N	
InChI=1S/C6H12N2O/c1-6(2,9-3)5(8)4-7/h5H,8H2,1-3H3	InChI=1S/C6H12N2O/c1-6(2,9-3)5(8)4-7/h5H,8H2,1-3H3/t5-/m0/s1
