19
gdb 40265	2.88722	1.49415	1.15241	1.6307	76.64	-0.2413	0.0197	0.261	1091.3709	0.161816	-419.18419	-419.176276	-419.175332	-419.216908	30.457	
C	-0.03714722	 1.5310307903	 0.0394050103	-0.294907
N	 1.2317138895	 0.7940596552	 0.187458854	-0.349546
C	-0.0253891279	 0.0475130614	-0.0188634991	 0.313484
C	-0.4477244199	-0.7735311336	 1.1810357703	-0.272387
C	 0.4805448242	-1.9610068201	 1.3949030209	-0.066292
O	 0.3628250649	-3.0263288665	 0.4422953282	-0.230992
C	 0.5603766084	-2.8364630625	-0.8885919719	 0.129136
N	 0.3622058363	-1.8702734865	-1.6732669698	-0.2554
C	-0.2735110408	-0.6017987497	-1.3681234974	-0.228398
H	-0.3816029198	 2.0354390426	 0.9383921261	 0.115995
H	-0.2160544132	 2.081657573	-0.8810056296	 0.112323
H	 1.7588366791	 0.835541324	-0.6818879131	 0.233953
H	-0.3973424751	-0.1544118515	 2.0831084104	 0.110051
H	-1.4836945186	-1.1164309717	 1.0710843062	 0.105394
H	 1.5173744071	-1.6039885289	 1.3986175874	 0.129235
H	 0.2748245418	-2.4433690253	 2.3533089778	 0.114413
H	 0.9304620961	-3.7732599584	-1.3092392682	 0.117111
H	-1.3581143386	-0.74661853	-1.4921323092	 0.118337
H	 0.0230590466	 0.1041943483	-2.1541077532	 0.098492
76.9391	93.727	233.4956	290.3157	315.9379	355.8534	415.6299	437.0813	494.4809	557.4613	698.0168	788.8352	824.1223	860.4179	903.025	917.658	947.4864	975.5953	977.7955	996.1429	1017.9147	1041.7948	1089.3071	1102.9948	1144.8506	1162.7173	1215.696	1260.9328	1263.5683	1302.5268	1343.1072	1349.7371	1382.1123	1406.7111	1431.6778	1442.5823	1461.9362	1476.7809	1499.9992	1515.1954	1763.3174	2988.2033	3034.9159	3035.1523	3040.4709	3085.3652	3103.0398	3106.5227	3121.167	3186.3112	3492.4456
C1NC11CCOC=NC1	C1N[C@]21CCOC=NC2	
InChI=1S/C6H10N2O/c1-2-9-5-7-3-6(1)4-8-6/h5,8H,1-4H2	InChI=1S/C6H10N2O/c1-2-9-5-7-3-6(1)4-8-6/h5,8H,1-4H2/t6-/m1/s1
