16
gdb 23085	3.14771	1.30391	1.17475	2.5103	73.09	-0.2297	0.0135	0.2432	1093.0436	0.122911	-437.766222	-437.75833	-437.757386	-437.798561	30.225	
C	-0.0730111809	 1.5459855368	-0.0351666255	-0.527571
C	 0.0264120084	 0.0581607943	 0.0064322495	 0.280253
C	 0.0839981325	-1.058753562	-0.9646692183	 0.046155
O	 1.2105409391	-1.713902638	-0.3841359072	-0.289795
C	 0.9047464528	-0.9771706863	 0.8360494247	-0.098455
C	-0.4187418083	-1.5862322959	 1.2912750872	 0.511822
N	-0.8912181018	-2.1118700487	 2.3406648084	-0.300069
O	 0.1193525618	-2.278132632	 3.3179476854	-0.402785
C	-1.0665217935	-1.0547786779	 0.0714830021	-0.270098
H	 0.8862069863	 2.0000619801	-0.306120138	 0.136271
H	-0.8156031898	 1.86020101	-0.7756673317	 0.132689
H	-0.3791884736	 1.9506112452	 0.9354097774	 0.137236
H	-0.0729475164	-1.1143689693	-2.0345058087	 0.118974
H	 1.7521201078	-0.803739606	 1.4910826882	 0.110906
H	-0.3691804979	-2.691515661	 4.0372255937	 0.305442
H	-2.1137949564	-0.9902364192	-0.1875768472	 0.109027
98.3466	183.9371	202.0928	230.4675	297.0887	301.9998	384.1652	495.8703	556.2317	599.2941	667.5421	733.8556	741.4212	803.3318	834.694	893.5041	911.9379	946.4052	964.6176	1001.6417	1009.1193	1082.837	1091.8163	1130.3545	1152.0342	1183.1539	1198.3782	1233.5258	1292.0372	1412.013	1413.1196	1458.3537	1483.8406	1494.6027	1799.2694	3030.04	3094.9964	3102.3381	3188.1668	3201.4872	3227.7123	3824.2232
CC12C3OC1C(=NO)C23	C[C@@]12[C@H]3O[C@@H]1C(=NO)[C@@H]23	
InChI=1S/C6H7NO2/c1-6-2-3(7-8)5(6)9-4(2)6/h2,4-5,8H,1H3	InChI=1S/C6H7NO2/c1-6-2-3(7-8)5(6)9-4(2)6/h2,4-5,8H,1H3/t2-,4+,5-,6-/m1/s1
