21
gdb 112851	2.79364	1.33308	1.04621	1.2311	79.07	-0.2545	0.0901	0.3445	1231.393	0.182434	-424.220811	-424.211878	-424.210934	-424.254491	33.731	
C	-0.1915328281	 1.3483948637	 0.0859280743	-0.23897
O	-0.0536697481	-0.0599417799	 0.0249046107	-0.237441
C	 0.6824003054	-0.5979417418	 1.0729671335	 0.222742
O	-0.0355114003	-0.4400388367	 2.2972169341	-0.295794
C	 0.2624162613	-1.5283176218	 3.1751721922	 0.128096
C	-0.9059523251	-1.7219959812	 4.1295633427	-0.396768
C	 0.5858028623	-2.6965637966	 2.2509494889	-0.058702
C	-0.3566852355	-2.9201644612	 1.0976796481	-0.286313
C	 0.8852500868	-2.0893306513	 0.9051512223	-0.088329
H	 0.7904103717	 1.8440493402	 0.1309385451	 0.102709
H	-0.703032578	 1.6581939048	-0.8280619568	 0.124487
H	-0.7815113676	 1.6576457741	 0.9562437659	 0.128427
H	 1.6528982226	-0.0704823264	 1.1519923953	 0.052085
H	 1.168025246	-1.290846531	 3.7593596984	 0.066617
H	-1.8120108159	-1.9954325145	 3.5820122775	 0.123892
H	-0.6793981934	-2.5153883441	 4.8488433511	 0.112824
H	-1.1012211162	-0.8004904869	 4.6852597439	 0.123472
H	 1.1644784536	-3.5233159941	 2.6458711797	 0.086251
H	-0.365272911	-3.9062257958	 0.6479144534	 0.109107
H	-1.3112318665	-2.4061458511	 1.091866407	 0.131207
H	 1.6905210058	-2.4334953484	 0.2686599128	 0.0904
86.0031	114.0668	164.4856	186.5825	220.4716	232.4464	327.8135	362.7264	465.3976	495.8651	565.9492	628.3732	732.8444	778.5472	839.0774	859.2381	929.6085	949.0733	961.2097	1015.3111	1034.9175	1037.8275	1075.6179	1085.3264	1102.654	1111.5049	1127.275	1157.6438	1171.0175	1181.2974	1198.8352	1234.6863	1327.1546	1344.3532	1359.7177	1382.6736	1400.126	1407.3983	1417.2943	1480.0861	1482.4392	1485.4582	1486.5512	1496.8068	1512.4148	2910.3805	2951.1732	2989.3152	3042.612	3065.7863	3114.406	3123.0445	3123.0788	3141.3877	3178.5975	3193.7761	3229.7127
COC1OC(C)C2CC12	CO[C@H]1O[C@@H](C)[C@H]2C[C@@H]12	
InChI=1S/C7H12O2/c1-4-5-3-6(5)7(8-2)9-4/h4-7H,3H2,1-2H3	InChI=1S/C7H12O2/c1-4-5-3-6(5)7(8-2)9-4/h4-7H,3H2,1-2H3/t4-,5+,6+,7-/m0/s1
