13
gdb 126081	2.99999	1.36199	0.96789	3.8016	68.63	-0.2232	-0.0875	0.1357	1131.8883	0.087504	-489.879187	-489.871099	-489.870155	-489.912508	28.316	
C	-0.4333935645	 1.5003304932	 0.0802636176	-0.403355
C	 0.2416161485	 0.1580807608	-0.0397241739	 0.225428
O	 0.9876786751	 0.0609431347	-1.2529711297	-0.246135
C	 2.197173351	-0.553527383	-1.0086873858	 0.375447
C	 2.2553316984	-0.6393912326	 0.4425918406	 0.246872
O	 1.17931533	-0.018624547	 1.0359096595	-0.272202
N	 3.2006538396	-1.1688874172	 1.139102166	 0.106057
N	 4.0513043219	-1.6450823048	 1.7355526841	-0.224673
O	 2.9667566913	-0.8903143209	-1.8592115425	-0.346846
H	 0.3115357883	 2.29770307	 0.0313741295	 0.144478
H	-1.1518668962	 1.6258399371	-0.7332743221	 0.145659
H	-0.9643157476	 1.5590011443	 1.0337551402	 0.143127
H	-0.477282126	-0.6743109347	-0.0160442335	 0.106143
65.9329	127.2339	145.5761	217.6477	243.621	307.1606	426.9454	453.1492	468.7548	557.1782	643.8348	697.79	718.762	761.0881	897.4029	925.8455	1013.6226	1127.3189	1151.5043	1154.1839	1294.1024	1360.4867	1395.5698	1422.949	1467.3894	1483.5009	1485.8485	1880.688	2172.0442	2999.9257	3057.5708	3139.4738	3145.6901
CC1OC2=C(O1)N=NO2	C[C@H]1OC(=O)[C](O1)[N][N]	
InChI=1S/C4H4N2O3/c1-2-7-3-4(8-2)9-6-5-3/h2H,1H3	InChI=1S/C4H4N2O3/c1-2-8-3(6-5)4(7)9-2/h2H,1H3/t2-/m1/s1
