20
gdb 38831	2.61862	1.94608	1.69905	1.4635	76.6	-0.2192	0.0846	0.3038	912.7999	0.175576	-403.129866	-403.123253	-403.122309	-403.160456	28.2	
C	-0.050955841	 1.4029428208	-0.2327546773	-0.248795
C	 1.2566056422	 0.7208659238	-0.0173262527	-0.016087
C	 2.0535158634	 0.8256047811	 1.2872757387	-0.05444
C	 1.4442622842	 1.7761803265	 2.3212428793	-0.087289
O	 0.319748058	 1.069287401	 2.8534782412	-0.281478
C	 0.4093145523	-0.3107322529	 2.4519623991	 0.109423
C	 1.8761126079	-0.5046944669	 2.0499461445	-0.240787
C	-0.4947073748	-0.5878728253	 1.2394853583	-0.168025
N	-0.0078828605	-0.0441786519	-0.0387019722	-0.097268
H	-0.4542410034	 2.0114654331	 0.5719663022	 0.127187
H	-0.3353603526	 1.7286247574	-1.2311064236	 0.106019
H	 1.8762451437	 0.5294999036	-0.8920039801	 0.088394
H	 3.0945917603	 1.0733103449	 1.0686755874	 0.070245
H	 2.1658475748	 1.9930193458	 3.1223548103	 0.092282
H	 1.1066515368	 2.7275409123	 1.8994136364	 0.103463
H	 0.0911427903	-0.9261321413	 3.2990785665	 0.076128
H	 2.0371704161	-1.3890828747	 1.4294793187	 0.109699
H	 2.5291866183	-0.5564187567	 2.9258234744	 0.10148
H	-0.5721166399	-1.6768699162	 1.1218649095	 0.100481
H	-1.5026907261	-0.2074149345	 1.4355498193	 0.109368
160.7441	287.7815	313.8324	382.6191	410.6711	474.3131	510.4133	590.4895	709.383	761.5377	761.6712	815.3183	874.4987	879.7585	895.4938	932.6815	951.7086	978.0941	1004.2594	1025.1884	1035.9568	1071.6776	1088.9299	1097.5485	1133.7084	1143.0726	1170.1376	1178.2939	1203.0086	1225.7399	1267.0524	1303.8337	1319.326	1327.3018	1346.5645	1359.1734	1368.7077	1392.3097	1409.0241	1482.2477	1492.9026	1513.1351	1532.347	2996.9013	3016.868	3056.0367	3068.1527	3073.4334	3074.7938	3085.1647	3099.0474	3112.2431	3117.1488	3186.7583
C1C2C3COC(C3)CN12	C1[C@H]2[C@H]3CO[C@H](C3)CN12	
InChI=1S/C7H11NO/c1-5-4-9-6(1)2-8-3-7(5)8/h5-7H,1-4H2	InChI=1S/C7H11NO/c1-5-4-9-6(1)2-8-3-7(5)8/h5-7H,1-4H2/t5-,6-,7+,8?/m1/s1
