18
gdb 51284	3.50344	1.05741	0.92643	2.1102	79.25	-0.2341	-0.0314	0.2027	1282.518	0.147947	-401.939007	-401.930825	-401.929881	-401.973166	30.289	
O	 0.1311623876	-0.1241012756	-0.5877751109	-0.237645
C	 0.0626974514	 1.0197363412	-0.2203232676	 0.155825
C	 1.2571596582	 1.9464987256	-0.0421048753	-0.384356
C	 1.2724148105	 2.9526773917	-1.1591292477	 0.356451
C	 1.0020249831	 4.2613581041	-1.0894877363	-0.189805
C	 1.0857842211	 4.949382017	-2.4366498479	-0.252697
C	 1.5321554695	 3.8261845944	-3.3683153226	-0.035351
N	 2.8596680518	 3.2699149398	-3.0318664224	-0.333906
C	 1.6234753884	 2.5765496701	-2.5665095017	-0.153506
H	-0.9193438164	 1.5052892387	-0.018304327	 0.080356
H	 1.1586798403	 2.4596404418	 0.9215071037	 0.117483
H	 2.1672956887	 1.3383482949	-0.0400880191	 0.130664
H	 0.7858650079	 4.8008955028	-0.1733586841	 0.093363
H	 0.1146092576	 5.3618718552	-2.7408289924	 0.107868
H	 1.8001345544	 5.7812404263	-2.4311057985	 0.122508
H	 1.2132825194	 3.8219944551	-4.4048070368	 0.090292
H	 3.2133661108	 2.7788577717	-3.8518625964	 0.228987
H	 1.3944043856	 1.5911650754	-2.9584275069	 0.103469
37.7502	56.412	146.9553	257.6214	294.87	322.0358	406.7774	486.3449	595.1901	633.2569	737.3897	814.6981	819.1784	833.7285	857.2472	881.7729	916.8798	933.3143	970.3898	1001.9835	1020.0589	1061.9085	1078.4509	1133.287	1164.893	1167.7545	1189.8731	1203.0672	1247.3764	1279.0574	1295.8795	1331.3913	1387.5655	1414.0253	1418.222	1463.0194	1465.7298	1693.1104	1829.8843	2872.7895	3021.1017	3036.1589	3060.3386	3098.4057	3166.097	3175.529	3188.4631	3473.9406
O=CCC1=CCC2NC12	O=CCC1=CC[C@H]2N[C@@H]12	
InChI=1S/C7H9NO/c9-4-3-5-1-2-6-7(5)8-6/h1,4,6-8H,2-3H2	InChI=1S/C7H9NO/c9-4-3-5-1-2-6-7(5)8-6/h1,4,6-8H,2-3H2/t6-,7+/m1/s1
