22
gdb 5816	3.34829	1.55499	1.31467	1.321	78.32	-0.2511	0.0706	0.3218	1059.121	0.197859	-350.210567	-350.201259	-350.200315	-350.243425	36.524	
C	-0.2353604133	 1.5350544228	-0.0029672967	-0.443981
C	-0.0431566629	 0.016877425	 0.0089242531	 0.363739
C	-1.3627896885	-0.7067771799	-0.2418777273	-0.451484
C	 1.1558152272	-0.4379980426	-0.8867724857	-0.283953
C	 2.045650553	-0.5854498834	 0.3737862804	 0.416271
C	 2.8851750111	-1.8470215152	 0.5122415349	-0.447998
O	 2.8672680763	 0.5779666996	 0.4576635191	-0.473809
C	 0.76490128	-0.4711685654	 1.2566549438	-0.312777
H	 0.7135986155	 2.0477247161	 0.1740413017	 0.13087
H	-0.6300029121	 1.8712670588	-0.9691437013	 0.105212
H	-0.9444897233	 1.8453710765	 0.7739099037	 0.102559
H	-1.7863019597	-0.4295397194	-1.2146926357	 0.110664
H	-1.2313705394	-1.7945291238	-0.2338134213	 0.10309
H	-2.1044811042	-0.4546715639	 0.5255132271	 0.109559
H	 0.9737025278	-1.3956854973	-1.3825812818	 0.087383
H	 1.5257390122	 0.281868228	-1.6205177938	 0.104041
H	 3.6758496854	-1.8627769525	-0.2446687039	 0.12301
H	 3.3596779859	-1.8926091559	 1.5011066811	 0.102423
H	 2.2734424617	-2.7471943526	 0.3972571891	 0.111572
H	 3.2745929011	 0.5849594254	 1.3312388595	 0.27158
H	 0.8348701641	 0.2248411117	 2.0982016353	 0.085448
H	 0.4215068421	-1.441765762	 1.6279427588	 0.086583
81.6329	209.8211	228.0621	246.0475	278.1458	307.089	309.1699	321.3994	341.9634	394.6175	404.9545	444.0369	471.9025	582.7283	720.975	834.2738	853.7876	879.2095	914.371	920.3557	943.2856	959.423	988.8591	1007.9337	1021.0149	1096.6599	1113.9278	1154.9282	1212.2547	1236.6885	1254.0408	1270.5066	1293.905	1318.0572	1372.1791	1400.1664	1404.8842	1418.1736	1459.632	1479.3545	1488.0986	1489.2752	1491.2709	1492.1416	1502.3221	1515.0474	3015.0488	3018.696	3021.4207	3040.6759	3056.4891	3078.5461	3083.8346	3085.7792	3085.9785	3096.7973	3110.1594	3115.9562	3118.843	3793.251
CC1(C)CC(C)(O)C1	CC1(C)CC(C)(O)C1	
InChI=1S/C7H14O/c1-6(2)4-7(3,8)5-6/h8H,4-5H2,1-3H3	InChI=1S/C7H14O/c1-6(2)4-7(3,8)5-6/h8H,4-5H2,1-3H3
