20
gdb 119499	3.71376	1.05967	0.95639	1.3676	79.76	-0.2044	0.0778	0.2822	1310.4491	0.17026	-403.044641	-403.036061	-403.035117	-403.07826	32.701	
C	 0.5272961524	 1.386898414	 0.114230107	-0.218857
O	 0.8815643653	 0.0310713023	 0.2317690072	-0.23676
C	-0.035727598	-0.7097904472	 1.0185375375	-0.188615
C	 0.3677576362	-2.1451288289	 1.0201323583	 0.351017
C	 0.1273404999	-3.0901507505	 2.1685734686	-0.353657
C	 1.5402557909	-2.8293409316	 1.7166275225	-0.106177
C	 1.8745322015	-3.5585746153	 0.383226321	-0.043072
N	 0.7009770241	-4.3726804451	-0.035717739	-0.346779
C	 0.7387646268	-2.9095289516	-0.2914691655	-0.108333
H	 0.5070629352	 1.8922272614	 1.0934815622	 0.101594
H	 1.2792476446	 1.8700046198	-0.5147004312	 0.125059
H	-0.4624907405	 1.5144435006	-0.3535322055	 0.101586
H	-0.0618910084	-0.3212505097	 2.0511872195	 0.085092
H	-1.0550959411	-0.5936573801	 0.6061846814	 0.085423
H	-0.139800386	-2.6031704321	 3.1020075754	 0.10396
H	-0.336937977	-4.0525908992	 1.997476086	 0.142159
H	 2.2909946759	-2.380842043	 2.3539429598	 0.090923
H	 2.869693904	-3.7790358484	 0.0206706628	 0.092845
H	 0.9578254741	-4.8316428384	-0.909340388	 0.227889
H	 0.6583078801	-2.498078227	-1.2885703899	 0.094704
76.9731	93.8229	114.9186	227.1637	266.4774	328.4352	349.6451	424.409	468.7862	589.076	648.3284	737.869	770.6263	828.0539	838.6734	863.3684	910.9539	921.3952	956.1328	965.4269	990.9513	1016.5461	1033.6056	1062.7148	1099.2366	1103.7009	1129.7438	1150.1504	1180.6781	1204.9684	1223.6477	1229.8541	1264.5728	1298.1071	1321.1211	1344.3897	1385.1336	1429.9779	1474.2423	1480.5682	1485.4024	1499.3118	1519.0849	2930.5931	2964.0009	2969.0701	3006.4239	3111.258	3134.3917	3193.6726	3201.6373	3211.5835	3231.4358	3473.3076
COCC12CC1C1NC21	COC[C@]12C[C@H]1[C@H]1N[C@@H]21	
InChI=1S/C7H11NO/c1-9-3-7-2-4(7)5-6(7)8-5/h4-6,8H,2-3H2,1H3	InChI=1S/C7H11NO/c1-9-3-7-2-4(7)5-6(7)8-5/h4-6,8H,2-3H2,1H3/t4-,5+,6+,7+/m0/s1
