20
gdb 81096	1.98954	1.55871	1.16599	2.0633	80.72	-0.2224	-0.0354	0.187	1172.9993	0.169462	-403.077445	-403.068217	-403.067273	-403.111672	34.087	
C	-0.0968967786	 1.5915352691	 0.265453029	-0.443965
C	 0.0557977448	 0.0833221769	 0.2037684803	 0.038728
N	 1.1571520724	-0.5169695924	-0.707279208	-0.177508
C	 2.1328404831	-0.1685301538	 0.4375906794	-0.218427
C	 0.9292562581	-0.7346944174	 1.2117527786	 0.192326
C	 0.7542185879	-0.9074776015	 2.68492424	 0.024315
O	 1.5822073555	-0.5970577382	 3.5064045413	-0.246555
C	 0.9334571439	-1.8278003357	 0.0891273121	 0.050894
C	-0.2350700202	-2.7268866314	-0.2681782547	-0.451459
H	-0.3612918872	 1.9678529879	-0.7285585309	 0.136871
H	-0.9153044018	 1.8496325917	 0.9458499576	 0.124448
H	 0.7940717978	 2.1240880094	 0.6017091922	 0.129886
H	-0.9181833657	-0.3501669554	-0.0266520836	 0.075649
H	 3.0476367291	-0.7649636354	 0.4221516937	 0.109288
H	 2.3650419406	 0.8907268374	 0.5226639267	 0.111155
H	-0.2199658669	-1.3564320085	 2.9928612528	 0.068576
H	 1.851302021	-2.4250845791	 0.0836067015	 0.083483
H	-0.1223740502	-3.0658056297	-1.303486155	 0.140029
H	-0.2224920325	-3.6139520582	 0.3736106717	 0.126498
H	-1.2186500811	-2.2631486257	-0.1738701548	 0.125768
56.0538	142.2624	147.2377	160.6115	191.9528	247.7164	271.1053	364.5788	417.5427	470.5695	572.8853	597.7339	688.409	724.0094	765.0508	805.8846	835.8955	885.6666	998.4838	1011.8999	1017.3605	1060.831	1067.9911	1091.2342	1142.6686	1147.1722	1155.7376	1169.2835	1193.5139	1203.4977	1262.9472	1301.3375	1400.897	1410.4765	1420.8396	1430.6754	1432.5401	1490.7407	1493.1992	1494.849	1499.8682	1545.7985	1812.174	2847.6862	3040.348	3041.9924	3048.8194	3082.144	3094.4008	3101.7161	3102.9576	3125.2708	3135.3193	3163.3044
CC1N2CC1(C=O)C2C	C[C@H]1N2C[C@]1(C=O)[C@H]2C	
InChI=1S/C7H11NO/c1-5-7(4-9)3-8(5)6(7)2/h4-6H,3H2,1-2H3	InChI=1S/C7H11NO/c1-5-7(4-9)3-8(5)6(7)2/h4-6H,3H2,1-2H3/t5-,6-/m1/s1
