15
gdb 61131	6.01661	0.60332	0.55982	3.0109	88.96	-0.2574	-0.0315	0.2259	1845.6971	0.110891	-379.621093	-379.611467	-379.610522	-379.656205	34.16	
N	-0.1066778126	 1.5080828195	 0.0541380196	-0.498662
C	-0.007501164	 0.0523476998	 0.0243787667	-0.230844
C	 0.6926428789	-0.5447769263	-1.2472576921	-0.338918
C	 0.0325548656	-0.0941858546	-2.4678706436	 0.252471
N	-0.5180825108	 0.295372736	-3.4065885664	-0.302328
C	 0.687894463	-0.4383745048	 1.2110562469	 0.421808
C	 1.2915696847	-0.8634540245	 2.1691521111	-0.194553
C	 1.9668054651	-1.3349851515	 3.2525160288	 0.285893
C	 2.5671232477	-1.7553800889	 4.2117083506	-0.547695
H	 0.8181937776	 1.9278730133	 0.0501471436	 0.23749
H	-0.5990159536	 1.836613272	-0.7719700795	 0.251848
H	-1.0336691366	-0.3381081332	 0.0362152576	 0.141646
H	 1.7411987682	-0.229256827	-1.2650034555	 0.158813
H	 0.6810164032	-1.6388884286	-1.2061682195	 0.164747
H	 3.0931860735	-2.1225099611	 5.0580231018	 0.198286
58.6853	65.1677	123.4309	157.5634	226.1497	256.8167	324.38	352.5267	399.0638	453.3837	493.2937	526.4104	552.3111	562.9977	603.1097	613.0112	753.2456	834.5234	866.8029	954.0968	998.5796	1076.9171	1159.1475	1197.2635	1247.2894	1285.774	1342.8903	1416.5697	1459.5488	1653.9938	2184.8265	2358.6561	2367.9311	3024.7739	3053.5628	3098.853	3490.1101	3503.2729	3578.7419
NC(CC#N)C#CC#C	N[C@@H](CC#N)C#CC#C	
InChI=1S/C7H6N2/c1-2-3-4-7(9)5-6-8/h1,7H,5,9H2	InChI=1S/C7H6N2/c1-2-3-4-7(9)5-6-8/h1,7H,5,9H2/t7-/m1/s1
