23
gdb 36766	5.71412	0.55492	0.52481	0.822	92.82	-0.2568	0.0583	0.315	2120.6358	0.204646	-351.11847	-351.108338	-351.107394	-351.15468	37.26	
C	-0.0151095331	-1.2496509749	-0.1048040341	-0.43816
C	-0.0308268587	-0.052036745	-0.001097009	 0.292375
C	-0.0153682625	 1.400619489	 0.1208663518	-0.354981
C	 1.3996460468	 2.0034833355	 0.0077579187	-0.172222
C	 1.4023947455	 3.5299012173	 0.1418907724	-0.212249
C	 2.7914280214	 4.1417112409	 0.0193931977	 0.057795
C	 3.5142507416	 4.1316134265	-1.3606004503	-0.216201
C	 4.0477825025	 5.5554184713	-1.0480776168	-0.210365
C	 2.9392974336	 5.6902015753	 0.0301311441	-0.236601
H	-0.0135005094	-2.307328196	-0.1952540669	 0.191577
H	-0.6606712786	 1.8382872455	-0.6524650257	 0.127787
H	-0.4593125376	 1.6908228748	 1.0825160794	 0.127676
H	 2.0377773868	 1.5596232777	 0.7811791207	 0.107424
H	 1.8336488023	 1.7104691542	-0.9552472134	 0.112924
H	 0.748370629	 3.9666613251	-0.626723659	 0.088435
H	 0.9648742381	 3.8121833407	 1.1103902847	 0.092319
H	 3.4517443184	 3.7058791552	 0.7798058384	 0.067691
H	 4.2436302055	 3.3415522815	-1.5555476844	 0.094844
H	 2.7906388717	 4.1457893528	-2.1832797762	 0.095298
H	 5.0453247652	 5.5235965278	-0.6003917388	 0.101062
H	 4.0580923352	 6.2846955179	-1.8614380325	 0.094838
H	 2.0429981727	 6.1737145758	-0.3733918326	 0.095685
H	 3.1961611735	 6.1730604312	 0.9765126918	 0.093048
46.3853	74.9044	78.1046	126.3779	151.2447	203.4503	283.3887	349.3308	361.0635	422.4994	533.5865	613.5624	631.1168	634.7392	739.6795	763.4642	785.4692	835.9074	896.2719	933.4005	943.9771	951.7893	978.6619	993.691	1010.0459	1044.0321	1089.9002	1118.4695	1137.7741	1195.7194	1205.6576	1244.6699	1254.2727	1255.7101	1265.3408	1281.4403	1292.3196	1305.7761	1326.1794	1344.2203	1379.8581	1396.759	1473.0715	1476.8644	1482.2408	1487.2996	1503.1068	1510.9848	2238.088	2996.4553	3013.0964	3017.4364	3032.032	3036.9842	3040.1796	3041.2646	3046.63	3057.5229	3080.2243	3094.0663	3098.1256	3115.4144	3507.9848
C#CCCCC1CCC1	C#CCCCC1CCC1	
InChI=1S/C9H14/c1-2-3-4-6-9-7-5-8-9/h1,9H,3-8H2	InChI=1S/C9H14/c1-2-3-4-6-9-7-5-8-9/h1,9H,3-8H2
