18
gdb 34859	3.80697	1.23285	1.1459	2.9224	75.72	-0.2681	0.0297	0.2978	1095.45	0.150509	-401.950978	-401.943656	-401.942711	-401.982743	28.646	
N	-0.0355597166	-1.1337522114	-0.0617449784	-0.328882
C	-0.0191939877	 0.0220493035	-0.0211230052	 0.262947
C	 0.0039749676	 1.4741410207	 0.0327642326	-0.161058
C	-0.1092630489	 2.0707431115	 1.4770002792	-0.043011
C	 1.4345769595	 1.9318980857	 1.5906778134	-0.237083
C	 1.4405642127	 2.0991387315	 0.0454795844	-0.043012
C	 1.3014673301	 3.5895775937	-0.2896149889	-0.080716
O	 0.5889834239	 4.2887757212	 0.7219522553	-0.25732
C	-0.4617156179	 3.5572720845	 1.3389736139	-0.080716
H	-0.6921497471	 1.8731112385	-0.7129767515	 0.11217
H	-0.7592868879	 1.5621008254	 2.1902205208	 0.092964
H	 1.9663427807	 2.6796015624	 2.1812222649	 0.116561
H	 1.7324799494	 0.9267617582	 1.893263294	 0.127267
H	 2.2128499312	 1.6165565883	-0.5550369644	 0.092963
H	 2.2867605778	 4.0647691284	-0.3404160169	 0.117553
H	 0.8167387879	 3.7117271837	-1.2724226117	 0.095909
H	-1.4053540559	 3.6710128157	 0.7800438768	 0.095909
H	-0.5996260889	 4.0118852884	 2.3256336318	 0.117554
129.2742	146.0116	203.2825	305.1366	353.7591	395.0146	477.7037	510.3994	567.7378	653.7852	829.7469	854.9493	867.1161	872.589	881.1212	925.0481	964.3544	993.287	1023.8051	1070.3889	1085.1188	1092.7027	1106.6246	1124.4964	1160.8483	1217.7464	1242.3584	1257.722	1271.6447	1283.8873	1311.5046	1312.9451	1362.6383	1377.4762	1419.5165	1485.6308	1505.1886	1513.3667	2350.9165	2965.8483	2972.8284	3050.3189	3067.5654	3070.1218	3079.3733	3105.8404	3106.4203	3140.4581
N#CC1C2CC1COC2	N#C[C@H]1[C@H]2C[C@@H]1COC2	
InChI=1S/C7H9NO/c8-2-7-5-1-6(7)4-9-3-5/h5-7H,1,3-4H2	InChI=1S/C7H9NO/c8-2-7-5-1-6(7)4-9-3-5/h5-7H,1,3-4H2/t5-,6+,7-
