20
gdb 82520	3.24636	1.42256	1.32722	1.9691	78.21	-0.2129	0.0663	0.2792	1068.2741	0.170541	-403.106194	-403.097811	-403.096867	-403.138811	32.657	
C	-0.4541542278	 1.3954437438	-0.2601766986	-0.309341
N	 0.0246762126	 0.0527881966	 0.0418054264	-0.084696
C	 1.3548768285	-0.4486432468	-0.2167956738	-0.04458
C	 2.5823819918	 0.470936453	-0.3031255334	-0.318649
C	 2.7885338166	 1.0731567221	 1.0929395415	 0.400318
C	 4.1644031741	 1.4753707868	 1.5502048891	-0.478537
O	 1.7204827709	 1.944789699	 1.5015256285	-0.288152
C	 1.6995096132	 0.5854253742	 1.9624170655	-0.040103
C	 0.8052746905	-0.3658286162	 1.1887198771	-0.061876
H	 0.3198946437	 2.1629271913	-0.3290054754	 0.126356
H	-1.0021698588	 1.3465024061	-1.2080035368	 0.110247
H	-1.1589383611	 1.7016093641	 0.5182382987	 0.122759
H	 1.399200339	-1.3782119673	-0.7819118182	 0.08731
H	 3.4549884557	-0.1337064209	-0.5731973114	 0.106859
H	 2.4879852514	 1.2531691166	-1.0649151684	 0.11675
H	 4.5716005286	 2.2647499243	 0.9082240826	 0.128172
H	 4.1285893722	 1.8568382738	 2.5736930491	 0.130886
H	 4.8536458724	 0.6252667893	 1.513932243	 0.121936
H	 1.8092692896	 0.4576114154	 3.036894909	 0.090202
H	 0.4202709869	-1.224094255	 1.7355086056	 0.084137
96.5517	155.901	188.6349	202.2755	287.0042	315.667	370.2778	402.9267	451.0042	560.6578	648.0967	707.1725	711.8253	759.0357	818.8685	854.8088	868.6519	911.2008	952.6947	990.0037	1016.3093	1035.181	1064.7631	1075.9993	1096.6245	1132.586	1146.2982	1183.5341	1214.5825	1227.1703	1277.6015	1314.1446	1325.3417	1344.4473	1397.61	1412.4576	1438.5151	1462.1281	1471.0392	1486.0344	1490.2044	1494.8589	1500.6168	3029.2139	3033.2573	3043.8375	3080.9882	3095.3163	3095.8427	3111.9445	3116.1433	3123.1406	3123.955	3143.8585
CN1C2CC3(C)OC3C12	CN1[C@H]2C[C@@]3(C)O[C@H]3[C@@H]12	
InChI=1S/C7H11NO/c1-7-3-4-5(8(4)2)6(7)9-7/h4-6H,3H2,1-2H3	InChI=1S/C7H11NO/c1-7-3-4-5(8(4)2)6(7)9-7/h4-6H,3H2,1-2H3/t4-,5-,6-,7+,8?/m0/s1
