21
gdb 122372	5.23142	0.63572	0.62774	3.102	79.41	-0.2338	0.076	0.3097	1812.4048	0.181816	-424.144299	-424.135135	-424.134191	-424.179404	33.807	
O	-0.0991316455	 1.4927610587	 0.1269224436	-0.421181
C	 0.0411874383	 0.0876512876	 0.2687547817	-0.07417
C	-1.3332564478	-0.5418833069	 0.085660417	-0.157245
C	-1.31243689	-2.0707947349	 0.2132145143	-0.261691
C	-2.7035669189	-2.6764177183	 0.0943964937	 0.055836
C	-3.4597401743	-2.8598978292	-1.2569893361	 0.041402
C	-2.5381630137	-4.042139491	-1.6409032532	-0.229259
C	-2.9724000601	-4.1875242722	-0.1624034204	 0.018891
O	-4.350430416	-3.8273683943	-0.5729814294	-0.309606
H	 0.7651836305	 1.8960403169	 0.248494482	 0.285617
H	 0.7406743899	-0.3210887625	-0.479568368	 0.082899
H	 0.4403147916	-0.1760832252	 1.2623552706	 0.083904
H	-2.014506413	-0.1098944578	 0.8287019815	 0.109074
H	-1.7205319328	-0.2491706117	-0.897785232	 0.107883
H	-0.6298063682	-2.4907641818	-0.5341977032	 0.09744
H	-0.8981651872	-2.3484973707	 1.192373424	 0.100612
H	-3.376375217	-2.2859640583	 0.8639777116	 0.082432
H	-3.9320912561	-2.1141040449	-1.8974920973	 0.092619
H	-2.9897715995	-4.7666180206	-2.31928315	 0.108633
H	-1.4892283833	-3.8478883958	-1.872107588	 0.096179
H	-2.8573538469	-5.0361956173	 0.5134968077	 0.089729
50.4461	79.9525	101.2581	128.6721	257.9599	262.877	291.4631	343.5476	470.7346	556.1887	628.7059	722.3973	752.7862	798.4454	831.7515	877.456	895.5993	911.5784	927.0554	1008.7793	1018.7064	1034.2407	1044.8502	1079.6295	1083.4558	1105.4871	1145.5532	1164.7981	1171.1482	1202.3988	1207.8947	1216.5808	1243.6686	1264.1566	1283.4732	1300.2409	1309.3824	1318.4691	1372.014	1410.668	1464.3512	1480.5728	1494.7474	1503.7178	1529.1131	2955.5001	2980.0642	3013.4867	3033.4239	3048.4626	3069.9593	3074.109	3084.3018	3106.1939	3114.245	3150.3328	3831.0861
OCCCC1C2CC1O2	OCCC[C@H]1[C@H]2C[C@@H]1O2	
InChI=1S/C7H12O2/c8-3-1-2-5-6-4-7(5)9-6/h5-8H,1-4H2	InChI=1S/C7H12O2/c8-3-1-2-5-6-4-7(5)9-6/h5-8H,1-4H2/t5-,6+,7-
