21
gdb 123114	6.49076	0.47361	0.45628	2.7849	78.17	-0.2439	0.0592	0.3031	2378.407	0.181436	-457.573525	-457.562427	-457.561483	-457.611873	38.062	
C	 0.0111500882	 1.3384667853	-0.204994106	-0.228526
O	-0.0224488574	-0.067759251	-0.2138174663	-0.231175
C	-1.2951148985	-0.588064366	 0.1006286015	-0.04703
C	-1.2238997436	-2.1080192231	 0.0419777462	-0.203287
C	-2.5531454597	-2.7650531989	 0.4211865392	-0.153709
N	-2.4802977782	-4.2145996532	 0.3578313821	-0.341753
C	-3.4863386571	-4.9554822227	-0.2203106085	 0.448777
N	-3.3371563424	-6.3303337907	-0.047120645	-0.565343
O	-4.4330966327	-4.4700160015	-0.8113083255	-0.38922
H	 1.0296793785	 1.6440643794	-0.4568457317	 0.126239
H	-0.6822987162	 1.7696839282	-0.9447200929	 0.10425
H	-0.2482614503	 1.7487437962	 0.7843874137	 0.101941
H	-1.6081886485	-0.2540060086	 1.1062472354	 0.082674
H	-2.0521372525	-0.2116294762	-0.6095051782	 0.090432
H	-0.9357496506	-2.4187991051	-0.9677095498	 0.115747
H	-0.4270257596	-2.4432884021	 0.7180198569	 0.097648
H	-2.8617917228	-2.4362181931	 1.4249334296	 0.100012
H	-3.3487323989	-2.4746505993	-0.2690099778	 0.151274
H	-1.8859753964	-4.6762206371	 1.0279947243	 0.236992
H	-2.394863487	-6.6914855705	-0.0147208954	 0.24462
H	-3.9455022444	-6.8526601299	-0.6598738417	 0.259438
25.7221	54.0946	68.4731	94.8275	126.8779	165.5109	232.9745	259.2488	282.3433	361.1879	373.0878	441.7428	489.2553	544.661	574.7592	664.4421	768.6401	778.004	871.6764	955.1599	982.0544	1052.2995	1082.8107	1095.6785	1148.7958	1166.3033	1168.8786	1188.6293	1227.1195	1234.4227	1288.4527	1305.2766	1318.5937	1332.0284	1409.5809	1430.6562	1481.5847	1485.067	1493.75	1502.7741	1510.7721	1533.1604	1545.7079	1628.1103	1803.4957	2939.0052	2965.6513	2968.5571	2991.335	3009.2564	3031.6117	3083.292	3112.7068	3115.0707	3568.2485	3626.531	3681.1079
COCCCNC(N)=O	COCCCNC(=O)N	
InChI=1S/C5H12N2O2/c1-9-4-2-3-7-5(6)8/h2-4H2,1H3,(H3,6,7,8)	InChI=1S/C5H12N2O2/c1-9-4-2-3-7-5(6)8/h2-4H2,1H3,(H3,6,7,8)
