19
gdb 75563	2.30455	1.5099	1.06417	2.7161	79.1	-0.2354	-0.0284	0.2069	1168.8508	0.158687	-423.044876	-423.036084	-423.03514	-423.078519	32.454	
C	-0.0530716594	 1.5147720988	 0.1414312833	-0.482999
C	-0.0118013458	 0.0180033423	 0.0246772435	 0.287125
C	 0.0388367824	-0.6405050812	-1.1349313216	-0.166641
C	 0.0889429512	-2.1390571967	-1.2318039664	-0.121661
O	 0.3183191067	-2.7805208705	 0.008940625	-0.247557
C	-0.4401121709	-2.21855858	 1.0634559357	-0.123389
C	-0.0149837444	-0.76896988	 1.3282615572	-0.162909
C	 1.3932063876	-0.7017102351	 1.9080020876	 0.155166
O	 1.7788681499	 0.15603001	 2.6613380268	-0.258378
H	 0.7435229506	 1.8759142152	 0.8021211766	 0.150313
H	 0.0540230741	 1.9973511701	-0.8334970172	 0.120697
H	-0.9994865719	 1.8462072259	 0.5877212107	 0.126546
H	 0.0145489627	-0.099194931	-2.0779306308	 0.092175
H	-0.8478315639	-2.5115229532	-1.6863166199	 0.102482
H	 0.9050377708	-2.4565888694	-1.8914598684	 0.123125
H	-1.5173268135	-2.2479390935	 0.8353591043	 0.0997
H	-0.2619719906	-2.8540823572	 1.9366808273	 0.11425
H	-0.6912209065	-0.2894648482	 2.0457609135	 0.094661
H	 2.0695867009	-1.5038741565	 1.5406266228	 0.097293
78.5937	99.5307	190.1359	213.7232	220.8975	278.0043	317.7644	357.8094	421.9667	455.0142	550.1887	627.8585	709.6032	814.8206	846.7083	896.9519	919.4818	959.7684	1016.949	1032.1764	1046.8313	1060.3826	1093.6098	1130.3522	1161.5731	1178.9455	1236.7555	1268.4347	1297.5587	1323.1657	1337.3059	1380.1455	1406.8837	1418.2599	1424.4545	1477.4318	1487.271	1492.8467	1500.3111	1737.2648	1819.4274	2902.6298	2935.9206	2982.5853	3021.7108	3046.7796	3052.1458	3075.7484	3077.6279	3117.0415	3156.0133
CC1=CCOCC1C=O	CC1=CCOC[C@H]1C=O	
InChI=1S/C7H10O2/c1-6-2-3-9-5-7(6)4-8/h2,4,7H,3,5H2,1H3	InChI=1S/C7H10O2/c1-6-2-3-9-5-7(6)4-8/h2,4,7H,3,5H2,1H3/t7-/m1/s1
