20
gdb 113864	3.07846	1.03592	0.93829	3.634	76.03	-0.2269	0.0566	0.2835	1323.6041	0.170398	-440.212224	-440.202979	-440.202035	-440.247247	33.215	
O	 0.0052804995	 1.5045516551	 0.3560012724	-0.401145
C	 0.0115019556	 0.0847053079	 0.3966688133	-0.12212
C	-1.349952161	-0.4790276671	 0.0390358786	 0.00633
C	-2.5621624717	 0.3814156595	-0.0234062138	-0.253491
N	-2.0337883289	-0.2484878591	-1.2360403338	-0.102224
C	-1.427835804	 0.606167212	-2.239946011	-0.003955
C	-0.659018092	-0.1412144886	-3.3515435302	-0.081653
O	-1.5075037217	 0.4149011737	-4.3757490719	-0.274593
C	-2.3754990666	 1.0121249438	-3.38901984	-0.081699
H	 0.9077537609	 1.8125626444	 0.4820614258	 0.292282
H	 0.7702252041	-0.3259713216	-0.2893934011	 0.100097
H	 0.2628841001	-0.2759865646	 1.4067923097	 0.100732
H	-1.4627448792	-1.5033212789	 0.3925194727	 0.094192
H	-3.5230369279	 0.0100024152	 0.3227251746	 0.111419
H	-2.4010599617	 1.4483423323	 0.1068195353	 0.1327
H	-0.8699659428	 1.4473100561	-1.8164386143	 0.092883
H	 0.3931798575	 0.1323473265	-3.4976108874	 0.091217
H	-0.7502595449	-1.2329571312	-3.2841385029	 0.100031
H	-3.3524220971	 0.5150026697	-3.3405773459	 0.102614
H	-2.514418448	 2.0857736248	-3.5612370301	 0.096383
58.0653	69.5731	107.2688	148.7407	207.9253	243.2888	269.8437	349.4578	411.1214	471.0592	625.6351	683.9367	768.3168	837.7095	890.8808	908.3503	950.9854	966.3249	1001.1736	1031.6478	1038.3086	1064.2375	1091.3606	1105.0827	1118.0918	1122.0165	1162.7308	1166.8905	1172.9706	1200.6829	1234.5085	1276.5471	1296.3174	1307.463	1340.5062	1359.1647	1405.4059	1417.1682	1458.2499	1501.5544	1507.5285	1513.8864	1528.4473	2965.8235	2991.7976	3005.947	3018.8343	3048.7855	3059.5412	3072.3772	3106.0778	3112.3292	3195.2936	3829.0507
OCC1CN1C1COC1	OC[C@H]1CN1C1COC1	
InChI=1S/C6H11NO2/c8-2-5-1-7(5)6-3-9-4-6/h5-6,8H,1-4H2	InChI=1S/C6H11NO2/c8-2-5-1-7(5)6-3-9-4-6/h5-6,8H,1-4H2/t5-,7?/m1/s1
