15
gdb 54894	2.84369	1.54156	1.04222	3.1627	69.39	-0.2452	-0.0171	0.2282	1086.6754	0.114457	-450.177228	-450.169297	-450.168352	-450.210258	29.296	
N	-0.0842641465	 1.3714014384	 0.1256769706	-0.554897
C	 0.066672665	 0.0453606863	-0.2388643437	 0.450002
O	 1.0809766254	-0.4217017382	-0.6845932591	-0.325304
N	-1.137337916	-0.6938484172	-0.0909014854	-0.173176
C	-2.437248842	-0.1787987787	-0.2074889012	 0.073486
N	-3.393659866	-1.0163393911	-0.1583607784	-0.258047
C	-2.7678212859	-2.3306616412	 0.0133264616	-0.271661
C	-1.2545065911	-2.0999947381	 0.0556457709	 0.346474
N	-0.2773154879	-2.88331184	 0.2217895302	-0.493384
H	 0.7874041578	 1.8800354363	 0.1138998639	 0.272102
H	-0.6906979034	 1.5901367017	 0.9013847036	 0.262744
H	-2.5644146057	 0.8866316505	-0.3590413406	 0.151036
H	-3.1188189535	-2.8054304985	 0.9364627849	 0.145278
H	-3.0461595278	-2.9926703984	-0.8149121321	 0.148569
H	-0.6111603324	-3.8415173218	 0.3284514048	 0.226778
62.2348	105.5323	173.0486	208.7127	364.572	444.0018	459.6631	466.651	512.8381	561.6314	593.4571	673.8372	699.1447	773.187	859.5271	885.8611	943.0439	961.1971	1005.8555	1015.7036	1093.2574	1149.3849	1198.032	1244.7651	1292.8346	1296.8396	1354.106	1391.308	1455.4499	1621.4921	1692.6403	1750.6277	1851.4338	3042.2046	3075.0043	3216.4089	3479.0051	3575.214	3691.1804
NC(=O)N1C=NCC1=N	NC(=O)N1C=NC[C]1[NH]	
InChI=1S/C4H6N4O/c5-3-1-7-2-8(3)4(6)9/h2,5H,1H2,(H2,6,9)	InChI=1S/C4H6N4O/c5-3-1-7-2-8(3)4(6)9/h2,5H,1H2,(H2,6,9)
