16
gdb 50451	3.08173	1.38836	0.97124	5.5684	75.4	-0.2401	-0.0709	0.1692	1153.6101	0.125492	-434.094627	-434.086378	-434.085434	-434.128228	29.602	
N	 0.1544565147	 1.2742723322	 0.1261236408	-0.408547
C	 0.001301281	 0.0163365348	 0.0726645395	 0.079516
N	-1.229888067	-0.6221119021	 0.0173286946	-0.093282
C	-1.2613376722	-2.0894919773	-0.1230085294	-0.189596
C	-2.7247091057	-2.4905426405	 0.1096720498	-0.352754
C	-3.4954364628	-1.1874608183	-0.0215173525	 0.344264
O	-4.6856383658	-1.0366721224	-0.0984349058	-0.300011
C	-2.4959114517	-0.0439559607	-0.0168537164	 0.28251
N	-2.7902652927	 1.1910916787	-0.0326474575	-0.484159
H	 1.1482730702	 1.4943325919	 0.1749965639	 0.229515
H	 0.8149905867	-0.7214368621	 0.0713671526	 0.088648
H	-0.9273106864	-2.3830994001	-1.1256717489	 0.131008
H	-0.5821931279	-2.5479489668	 0.6009194603	 0.130129
H	-3.0927917485	-3.2442856616	-0.5884353207	 0.1499
H	-2.882166095	-2.875519029	 1.1232163633	 0.155872
H	-3.8137703669	 1.2516369433	-0.0499124236	 0.236987
64.7784	87.9178	138.8056	209.0668	219.8972	334.8029	414.7409	459.7792	535.5393	596.9867	655.0747	705.0263	732.8567	813.4757	846.539	902.912	957.6389	1012.0228	1051.702	1062.6012	1106.0781	1170.6631	1187.3811	1212.6797	1241.7402	1283.9633	1321.9685	1355.4371	1437.298	1449.0389	1459.9947	1529.4812	1695.0479	1745.8924	1853.1151	3018.1745	3028.5506	3058.4614	3082.5524	3124.6307	3423.3931	3496.8805
N=CN1CCC(=O)C1=N	[NH][CH]N1CCC(=O)[C]1[NH]	
InChI=1S/C5H7N3O/c6-3-8-2-1-4(9)5(8)7/h3,6-7H,1-2H2	InChI=1S/C5H7N3O/c6-3-8-2-1-4(9)5(8)7/h3,6-7H,1-2H2
