16
gdb 8849	4.64735	1.29343	1.04718	2.5757	64.83	-0.2565	-0.0108	0.2456	1095.4424	0.129611	-417.087611	-417.078739	-417.077795	-417.121463	30.368	
C	 0.0471218183	 1.3290037017	 0.2392842649	-0.22601
O	-0.0918427599	-0.0946828258	 0.2445898468	-0.237325
C	-1.3133928615	-0.5674201029	-0.0523637636	 0.492477
N	-2.2970847682	 0.206758148	-0.2631153415	-0.571234
N	-1.2746419031	-1.975301063	-0.0749502351	-0.153733
C	-0.0052676096	-2.6818836094	-0.266445959	-0.345249
C	-2.4127762809	-2.7146756648	 0.1820592281	 0.15842
O	-2.4639430923	-3.9218357875	 0.1688347379	-0.317783
H	 1.1027260002	 1.517762778	 0.436750855	 0.131961
H	-0.2478918607	 1.7409125996	-0.7288271181	 0.144293
H	-0.5771036647	 1.7793569992	 1.0147272141	 0.145329
H	-3.1313173642	-0.2871022026	-0.5614448669	 0.229822
H	 0.647548628	-2.5568086576	 0.6003928784	 0.146016
H	-0.2477535448	-3.7355147074	-0.396856858	 0.167261
H	 0.5074672058	-2.3011460894	-1.1515393174	 0.139489
H	-3.2806045423	-2.0788738262	 0.4229317045	 0.096265
60.9735	120.3844	133.6935	175.7645	184.4418	243.1607	302.4708	347.1859	368.3966	451.3254	522.7647	738.8663	761.437	796.9919	857.2025	967.8546	1037.8546	1071.5944	1102.5203	1156.4484	1182.652	1212.1806	1238.6602	1325.0446	1373.2446	1443.0646	1448.5352	1475.8797	1483.3658	1495.3767	1499.8406	1513.452	1725.8248	1806.61	2997.7649	3053.4859	3063.0979	3130.3738	3131.157	3157.1593	3173.1926	3561.271
COC(=N)N(C)C=O	COC(=N)N(C)C=O	
InChI=1S/C4H8N2O2/c1-6(3-7)4(5)8-2/h3,5H,1-2H3	InChI=1S/C4H8N2O2/c1-6(3-7)4(5)8-2/h3,5H,1-2H3
