20
gdb 9382	4.9091	0.81744	0.73104	4.4692	76.93	-0.2404	0.0309	0.2713	1569.9113	0.176047	-345.195347	-345.185465	-345.184521	-345.230665	34.572	
C	-0.0140586384	 1.5445861789	 0.1063162234	-0.381586
C	-0.0824966239	 0.0250385622	-0.0622053757	-0.180478
C	 0.8097524699	-0.4844028585	-1.1947826385	-0.114498
N	 0.681830423	-1.9323413669	-1.3382728415	-0.29269
C	 1.4112202858	-2.517356065	-2.4599266781	-0.097037
C	 2.9531617104	-2.4900079503	-2.3663325893	-0.395307
C	 0.9524670918	-3.906349278	-2.6465171075	 0.276447
N	 0.6233580547	-5.0051745424	-2.7839625347	-0.320221
H	 1.0060888897	 1.8776178204	 0.3272928829	 0.116034
H	-0.3408290276	 2.0601032129	-0.8034768945	 0.118025
H	-0.6567357323	 1.8791699695	 0.9256940466	 0.119205
H	 0.2173855334	-0.4619893499	 0.8757743865	 0.095117
H	-1.1118123784	-0.2937839477	-0.259271592	 0.115143
H	 0.493187685	-0.0284656003	-2.1427330369	 0.104927
H	 1.8465734576	-0.1458343992	-1.0174531118	 0.083608
H	 0.944071702	-2.4001771734	-0.4758923843	 0.222637
H	 1.1088146863	-1.9626151567	-3.3582933093	 0.131217
H	 3.4061222221	-2.9400285046	-3.2542390911	 0.13879
H	 3.3065438711	-1.4592820043	-2.2845711108	 0.129601
H	 3.2929389879	-3.0485507367	-1.4889182936	 0.131066
58.3732	74.8192	105.1258	148.8053	190.8014	225.1148	238.573	273.4766	337.2587	387.1207	426.5781	563.9429	590.7819	731.9692	760.9799	830.6301	898.7979	915.2931	921.096	1039.928	1059.2149	1072.299	1103.1451	1142.1544	1158.092	1209.0813	1265.723	1306.5665	1327.8188	1331.3232	1355.444	1401.9234	1412.9731	1419.799	1486.1073	1490.002	1491.9755	1500.6581	1503.6121	1505.5459	1521.7152	2361.6465	2936.7897	3015.2114	3026.8023	3030.079	3033.6301	3045.2752	3069.6274	3099.4726	3108.8199	3120.6083	3128.9332	3514.2078
CCCNC(C)C#N	CCCN[C@@H](C)C#N	
InChI=1S/C6H12N2/c1-3-4-8-6(2)5-7/h6,8H,3-4H2,1-2H3	InChI=1S/C6H12N2/c1-3-4-8-6(2)5-7/h6,8H,3-4H2,1-2H3/t6-/m0/s1
