22
gdb 118139	3.57145	0.77204	0.70883	1.7846	80.38	-0.2451	0.0759	0.321	1695.6937	0.192469	-441.44576	-441.43511	-441.434166	-441.482431	37.902	
C	 0.1050926	 1.3498896179	 0.0351400822	-0.228349
O	-0.0836890442	-0.0406705203	-0.0862602008	-0.251355
C	 0.8194206324	-0.6561991834	-0.9872468361	-0.084952
C	 0.4066876664	-2.1224371244	-1.0902242186	 0.121271
O	-0.9556301632	-2.2193160051	-1.4760890322	-0.452326
C	 1.2301540455	-2.8486206563	-2.1254397576	-0.025064
N	 2.5872178917	-3.2569030396	-1.7200647395	-0.34879
C	 1.587014849	-4.290363037	-2.0447077745	 0.003101
C	 1.1563203935	-5.2208568596	-0.9372555334	-0.394278
H	 1.108391691	 1.5900905852	 0.4185251075	 0.109839
H	-0.0268539113	 1.8642446064	-0.9295005652	 0.107549
H	-0.6413553237	 1.7221974887	 0.7410075722	 0.128876
H	 0.7533903648	-0.1749646339	-1.9778551502	 0.083107
H	 1.856224116	-0.5745050434	-0.6282956502	 0.105745
H	 0.5669705673	-2.5801386625	-0.1031704968	 0.074845
H	-1.417253003	-1.545587984	-0.9613476113	 0.28905
H	 1.0981084692	-2.445819814	-3.1294857219	 0.080762
H	 3.2404802613	-3.1308470683	-2.4876866118	 0.229917
H	 1.6963271959	-4.7787159986	-3.0128242624	 0.08166
H	 1.1304426473	-4.7087370449	 0.0266586796	 0.129155
H	 0.1606822905	-5.6281785564	-1.1410695904	 0.125064
H	 1.8565333535	-6.0584608266	-0.8491123185	 0.115173
36.3234	85.1502	101.5063	118.0277	161.4441	204.7883	228.4473	242.3271	361.883	387.641	407.1446	410.9769	465.038	536.2406	597.2323	789.0264	839.006	892.6138	941.3244	967.3843	995.5915	1014.0531	1041.0907	1083.6622	1100.4747	1126.0778	1152.3433	1164.1136	1182.5609	1204.3594	1227.9106	1250.1354	1263.3807	1271.6837	1291.5283	1353.0332	1372.5766	1402.4229	1420.0549	1446.5675	1478.505	1480.9642	1485.8244	1494.0154	1499.7934	1510.8276	1522.1647	2959.7824	2978.2726	2998.7391	3021.4188	3025.0334	3039.1209	3098.8536	3101.2572	3112.5204	3114.8492	3133.5378	3510.3741	3781.2365
COCC(O)C1NC1C	COC[C@@H](O)[C@H]1N[C@H]1C	
InChI=1S/C6H13NO2/c1-4-6(7-4)5(8)3-9-2/h4-8H,3H2,1-2H3	InChI=1S/C6H13NO2/c1-4-6(7-4)5(8)3-9-2/h4-8H,3H2,1-2H3/t4-,5+,6-/m0/s1
