17
gdb 111269	3.00753	1.33896	1.03194	1.659	70.71	-0.2301	-0.0161	0.214	1155.5756	0.133921	-458.932161	-458.92331	-458.922365	-458.966023	32.289	
C	 0.126998941	 1.2026031838	 0.3143509223	-0.244161
O	-0.0079379852	-0.0444677651	-0.342953751	-0.245796
C	-1.2986136901	-0.5844857607	-0.2340479979	 0.009507
C	-1.4387286952	-1.9743119994	-0.8272184597	-0.171096
C	-0.4508472886	-2.8981209273	-0.1888065129	-0.322308
C	-1.6562739007	-2.6105208764	 0.6494622574	 0.322049
O	-2.4390096718	-3.6236325621	 1.1132412533	-0.438836
C	-1.7515398296	-1.2130328803	 1.1263125768	 0.280312
O	-2.373104939	-0.764903759	 2.0602782491	-0.350974
H	 1.1560303274	 1.5345181525	 0.160804145	 0.129642
H	-0.5584141799	 1.9537897124	-0.1068200416	 0.110234
H	-0.0706343806	 1.1205328833	 1.3914698901	 0.130278
H	-2.060162027	 0.131538515	-0.5792533335	 0.087716
H	-2.0006182209	-2.2229937571	-1.7166666798	 0.120331
H	-0.4611415001	-3.9143996357	-0.572151685	 0.136853
H	 0.5296183178	-2.5285914356	 0.0911164644	 0.141735
H	-3.1871815174	-3.2159139882	 1.5711561827	 0.304517
67.7868	99.4825	159.5749	170.6118	231.843	290.1159	343.6298	410.4755	421.8288	469.2678	529.9431	632.3113	656.8931	723.4896	829.1315	890.7927	891.1351	956.5635	967.6731	1036.7579	1040.7839	1093.6864	1127.5991	1150.7198	1174.1862	1185.2035	1230.9209	1245.227	1290.3043	1370.2255	1394.3799	1426.4037	1481.0351	1487.2278	1498.4766	1510.3177	1823.9122	2986.4397	2995.2191	3047.2084	3123.8547	3129.4435	3213.3504	3223.1603	3755.8373
COC1C2CC2(O)C1=O	CO[C@H]1[C@H]2C[C@@]2(O)C1=O	
InChI=1S/C6H8O3/c1-9-4-3-2-6(3,8)5(4)7/h3-4,8H,2H2,1H3	InChI=1S/C6H8O3/c1-9-4-3-2-6(3,8)5(4)7/h3-4,8H,2H2,1H3/t3-,4+,6+/m1/s1
