16
gdb 127891	2.53361	1.64145	1.00839	1.9211	80.31	-0.2296	-0.0596	0.17	1139.8664	0.123746	-430.200154	-430.191367	-430.190423	-430.234855	30.913	
C	 0.0231643516	 1.4092969298	 0.0410485801	-0.335128
N	-0.0151148702	-0.0414885632	 0.0423537036	-0.293145
C	-1.1330421948	-0.6577643117	 0.009294766	 0.318395
N	-2.394903518	-0.0008471314	-0.0302792909	-0.266477
N	-3.4616713701	-0.6819769141	-0.0618555331	-0.0519
N	-3.3806953135	-2.0135139756	-0.0573317807	-0.109356
N	-2.2669549013	-2.7827337447	-0.0218608785	-0.255001
C	-1.1504325237	-2.1273231136	 0.0112722403	 0.327923
C	 0.1308384786	-2.8897925152	 0.0518596065	-0.463715
H	 0.615876527	 1.7417204976	-0.8198312477	 0.126545
H	-0.956877564	 1.8939392803	 0.0109505035	 0.139104
H	 0.5635130483	 1.7446607592	 0.934617622	 0.126534
H	-4.2629343853	-2.4983947009	-0.0834448077	 0.295079
H	-0.0655250364	-3.962860246	 0.0478366084	 0.134138
H	 0.7559040444	-2.6147584646	-0.8036355713	 0.153503
H	 0.7025048572	-2.6115113759	 0.9429120594	 0.1535
34.9606	55.3738	161.7964	192.5628	219.8559	305.704	328.3429	396.5517	504.1716	515.0788	550.4325	610.5339	614.7859	742.2511	801.5804	922.1474	965.8766	1035.2192	1050.6078	1086.0441	1121.3259	1125.4259	1156.4431	1214.0803	1357.1551	1407.3996	1427.3701	1431.6644	1458.9209	1460.8223	1485.2228	1494.317	1566.6256	1655.9761	1706.0941	3018.1399	3047.5827	3067.8383	3103.9897	3106.152	3151.2363	3660.3416
CN=C1N=NNN=C1C	C[N]c1nn[nH]nc1C	
InChI=1S/C4H7N5/c1-3-4(5-2)7-9-8-6-3/h1-2H3,(H,5,7,8)	InChI=1S/C4H12N5/c1-3-4(5-2)7-9-8-6-3/h3-4,6-9H,1-2H3
