21
gdb 56910	2.94891	0.9941	0.88391	1.3357	85.72	-0.2578	0.0337	0.2915	1416.7082	0.178877	-387.043241	-387.032635	-387.031691	-387.078733	39.351	
C	 0.0470292302	 1.5434947097	-0.1791620788	-0.449536
C	 0.011999498	 0.0338906597	-0.0237352013	 0.327775
C	-1.2290093515	-0.6086662214	-0.6170508344	-0.450845
C	 1.3086192589	-0.7406824724	-0.1031604078	-0.329882
C	 0.5812316481	-0.6197748491	 1.2174781931	-0.038198
C	 1.1695460088	 0.1838842409	 2.364958667	-0.087868
O	 0.1625470083	 0.8392999604	 3.1373879733	-0.418445
C	 2.0234003736	-0.6606346608	 3.2100688208	 0.308902
C	 2.6806664651	-1.3770845103	 3.9174708389	-0.446146
H	 0.9857799597	 1.9795267456	 0.1714792143	 0.113224
H	-0.0640888356	 1.8178635057	-1.2345339069	 0.108988
H	-0.7674951115	 2.0153211376	 0.380550281	 0.127667
H	-1.3004303185	-0.4042540852	-1.6919469922	 0.114754
H	-1.2228414348	-1.6952871855	-0.4847605875	 0.11112
H	-2.1380407338	-0.2185052095	-0.1443702798	 0.116924
H	 1.3188811478	-1.7061224751	-0.5979262843	 0.108737
H	 2.2294474728	-0.1764909994	-0.2185344834	 0.109649
H	 0.06347874	-1.514529983	 1.5571494465	 0.079685
H	 1.7782967606	 1.0006990412	 1.9631483494	 0.114111
H	-0.3168098599	 0.1582777211	 3.622377861	 0.281981
H	 3.2774020337	-1.9963532701	 4.540646281	 0.197403
49.0587	98.1151	147.9412	163.0068	190.0232	229.3444	249.754	291.9983	345.4452	357.4201	374.6749	407.4249	503.3409	520.613	587.6798	630.021	665.7863	712.1636	842.4291	867.8356	914.0952	938.4034	973.9498	976.4848	1032.6633	1051.3073	1066.8665	1081.0245	1119.1961	1152.8293	1166.4069	1244.3674	1272.3979	1309.7628	1338.5083	1411.7852	1413.1189	1425.4787	1427.9576	1481.1284	1491.2198	1493.726	1501.5985	1513.9349	2230.7334	3020.2265	3031.0578	3056.417	3081.2202	3090.8373	3096.5479	3113.9332	3123.4276	3125.7509	3207.0895	3503.0688	3805.4154
CC1(C)CC1C(O)C#C	CC1(C)C[C@H]1[C@@H](O)C#C	
InChI=1S/C8H12O/c1-4-7(9)6-5-8(6,2)3/h1,6-7,9H,5H2,2-3H3	InChI=1S/C8H12O/c1-4-7(9)6-5-8(6,2)3/h1,6-7,9H,5H2,2-3H3/t6-,7-/m0/s1
