16
gdb 7091	5.05596	0.87383	0.75559	2.3544	73.24	-0.2622	-0.0282	0.234	1506.5802	0.127548	-383.752982	-383.743325	-383.742381	-383.792102	31.452	
C	 0.0220189698	 1.5083872178	-0.1470370741	-0.393388
C	 0.0333088204	-0.0030302906	-0.0264429679	-0.042608
O	 0.6842026536	-0.5270608926	-1.2026290297	-0.231082
C	 0.7811802805	-1.8691312028	-1.2594434231	 0.259944
O	 0.3664984301	-2.6189464167	-0.4083044933	-0.361473
C	 1.4446842739	-2.2898486615	-2.4695583163	-0.072453
C	 1.9901954061	-2.7083336342	-3.4587189648	 0.229824
C	 2.6504886393	-3.2082873409	-4.6518672021	-0.508618
H	 1.0400797783	 1.9027445964	-0.2089134812	 0.131484
H	-0.5243445854	 1.824754128	-1.0398937236	 0.131482
H	-0.4652985312	 1.9458547029	 0.7293363611	 0.123263
H	 0.5787339953	-0.3416112573	 0.8601427233	 0.124345
H	-0.977318807	-0.4191857477	 0.0335982751	 0.124358
H	 2.4498521976	-4.2744489326	-4.7993314347	 0.161677
H	 2.3120678187	-2.6699876452	-5.543490441	 0.160729
H	 3.73544233	-3.077220533	-4.5759358678	 0.162516
1.3736	59.6875	78.8528	93.1755	191.4794	214.0613	263.6215	326.7695	378.9381	399.0555	459.4899	589.1817	772.341	808.9549	849.7487	886.6497	1035.082	1047.4985	1053.9712	1104.4897	1135.9925	1181.526	1280.2772	1290.5328	1396.6615	1410.668	1421.9956	1470.3449	1474.0147	1485.6011	1496.1024	1518.7699	1784.6261	2362.1358	3032.5943	3046.7066	3050.7009	3088.766	3096.3021	3100.1886	3121.0336	3127.0442
CCOC(=O)C#CC	CCOC(=O)C#CC	
InChI=1S/C6H8O2/c1-3-5-6(7)8-4-2/h4H2,1-2H3	InChI=1S/C6H8O2/c1-3-5-6(7)8-4-2/h4H2,1-2H3
