22
gdb 78294	2.75019	1.35686	1.11741	1.289	87.9	-0.1937	0.0837	0.2774	1226.0888	0.192012	-367.133566	-367.124222	-367.123278	-367.166764	36.541	
C	-0.1730453047	 1.3393729176	-0.060937167	-0.320745
N	 0.0668065432	-0.0967757204	 0.0417565583	-0.103021
C	 1.4907090394	-0.4544551334	-0.118828172	-0.093595
C	 0.8716731197	-0.4617358396	 1.2250607671	-0.093592
C	 1.0339011462	-2.011496452	 1.3194499188	 0.276847
C	 1.4589736194	-2.6946273177	 2.5864615395	-0.495712
C	 0.3523070781	-2.6972664055	 0.159161163	-0.386157
C	 1.6742771097	-2.0039618544	-0.0707125744	 0.276848
C	 2.9162893438	-2.6774675366	-0.5771406067	-0.495713
H	 0.6544588377	 1.9605579822	 0.323610505	 0.095044
H	-0.3358648607	 1.6012573324	-1.1113161669	 0.122902
H	-1.078223531	 1.5925178275	 0.5002759951	 0.122903
H	 2.1895395174	 0.247123676	-0.5592225223	 0.083904
H	 0.9882814734	 0.2329915307	 2.0486386637	 0.083904
H	 0.6381023976	-2.7349495467	 3.3136850393	 0.119711
H	 1.7762381005	-3.724341098	 2.3927407786	 0.117508
H	 2.2973579441	-2.1733456076	 3.0648178655	 0.112737
H	 0.4237782832	-3.7816553829	 0.1862038852	 0.096774
H	-0.5652431044	-2.305812814	-0.2613861583	 0.129498
H	 2.935712765	-2.7077867357	-1.6739601516	 0.119711
H	 3.8225646563	-2.1554493249	-0.2460670286	 0.112738
H	 2.979443726	-3.710211897	-0.2194462112	 0.117508
160.0174	180.5791	185.9214	200.2958	203.1495	223.0954	273.3289	336.1738	349.3694	430.5677	508.8693	509.3303	558.5107	712.7796	774.6075	780.4	837.8042	849.04	869.2194	882.5711	966.1875	968.4114	980.8549	1008.4421	1082.9545	1084.3951	1113.5242	1121.4425	1132.0643	1140.1938	1198.6708	1199.0643	1220.7143	1278.6534	1327.0021	1332.8168	1396.7433	1410.3115	1424.2199	1452.2006	1481.0059	1481.7563	1487.7848	1493.2112	1495.3471	1499.7234	1505.5228	2952.664	3012.3115	3014.8874	3063.5892	3066.0357	3067.0208	3092.3405	3095.1207	3101.5751	3125.9509	3173.2471	3186.8906	3223.0518
CN1C2C1C1(C)CC21C	CN1[C@H]2[C@@H]1[C@@]1(C)C[C@@]21C	
InChI=1S/C8H13N/c1-7-4-8(7,2)6-5(7)9(6)3/h5-6H,4H2,1-3H3	InChI=1S/C8H13N/c1-7-4-8(7,2)6-5(7)9(6)3/h5-6H,4H2,1-3H3/t5-,6+,7-,8+,9?
