17
gdb 128427	4.13318	0.90827	0.8767	6.7273	72.92	-0.2302	-0.0243	0.2059	1362.8506	0.136621	-455.134156	-455.125639	-455.124695	-455.168038	31.125	
C	-0.5699551589	 0.9336264106	-0.8060887731	-0.323684
N	 0.089227065	 0.3687834803	 0.3699120764	-0.294039
H	 0.784566915	-1.9849046079	-0.2731799175	 0.278784
H	 0.5247573336	 1.1090641183	 0.9067923559	 0.232233
C	-0.8141251095	-0.3905214441	 1.2360636654	-0.277224
C	-1.013791864	-1.7720995897	 0.6864600527	 0.46447
N	 0.1137023308	-2.4740056985	 0.3118437612	-0.210251
O	-0.3024087747	-3.6623648955	-0.3054269848	-0.252617
C	-1.7014849942	-3.7677948986	-0.135751402	 0.497016
O	-2.28165555	-4.7515822266	-0.5012897167	-0.365185
C	-2.1158120117	-2.5300672526	 0.5027542833	-0.499278
H	 0.1562702924	 1.5022042908	-1.3927284105	 0.129905
H	-0.9521942986	 0.1249465032	-1.4374881674	 0.138229
H	-1.4190263187	 1.5944171966	-0.5628603921	 0.107856
H	-0.3484030676	-0.4735153626	 2.2246241235	 0.135853
H	-1.7994189005	 0.0837041323	 1.373954457	 0.109461
H	-3.1340966385	-2.299733786	 0.7666889587	 0.128473
60.3171	86.5205	153.8496	198.157	241.7452	314.3316	359.0806	417.9764	528.1582	573.1457	654.247	667.49	708.823	752.7849	794.6693	821.3896	881.1328	929.7754	996.1059	1008.8929	1075.0173	1130.1926	1134.4302	1155.5627	1163.1691	1195.0263	1283.8301	1330.4705	1372.8264	1438.2636	1461.4695	1480.0196	1485.9249	1495.0264	1519.0445	1663.2885	1875.1461	2966.487	2975.1328	3062.9714	3070.9623	3117.1362	3281.5488	3541.9632	3546.1757
C[NH2+]CC1=NOC([O-])=C1	CNCc1[nH]oc(=O)c1	
InChI=1S/C5H8N2O2/c1-6-3-4-2-5(8)9-7-4/h2,6,8H,3H2,1H3	InChI=1S/C5H8N2O2/c1-6-3-4-2-5(8)9-7-4/h2,6-7H,3H2,1H3
