21
gdb 58377	2.26881	1.1174	0.79384	2.7709	85.44	-0.2471	-0.0224	0.2247	1470.8294	0.178206	-387.072097	-387.061182	-387.060237	-387.108775	39.014	
C	-0.1471473222	 1.5004167807	-0.0810452055	-0.402775
C	 0.0376944149	-0.0237029663	-0.0265726781	 0.018814
C	 0.7691183229	-0.5098466156	-1.287427535	-0.401052
C	 0.7808854957	-0.4896100782	 1.2601071348	-0.049242
C	 0.170404189	 0.0974131102	 2.5571049584	-0.406108
C	 0.8149803657	-0.4137484325	 3.761595361	 0.28123
C	 1.3666731273	-0.8542429315	 4.7342420499	-0.409938
C	 0.7267121979	-2.0070862826	 1.3330667504	 0.168758
O	 1.6108730117	-2.7522991131	 1.002043946	-0.25277
H	 0.8180592724	 2.0156030824	-0.0110894164	 0.120134
H	-0.6058943719	 1.7871648065	-1.0325604448	 0.117526
H	-0.7919002464	 1.8771065454	 0.7173690235	 0.11918
H	-0.9631405977	-0.4817796965	-0.0114312874	 0.077483
H	 1.7534248576	-0.0346986212	-1.3693124	 0.11974
H	 0.9263974289	-1.5909093399	-1.2854576839	 0.137097
H	 0.1976214837	-0.2489238538	-2.1835878369	 0.112834
H	 1.8355327631	-0.201845986	 1.1893804644	 0.101765
H	 0.2495022313	 1.1884393432	 2.5384306873	 0.14245
H	-0.9040042475	-0.1315754051	 2.5893296405	 0.132377
H	 1.8488463453	-1.2399832118	 5.598113919	 0.199606
H	-0.2509139716	-2.4046171145	 1.6990041429	 0.072892
45.0174	70.508	76.3923	118.9112	206.8537	224.5992	255.1745	296.4138	302.8949	344.2797	366.1808	374.3391	453.5766	499.7199	577.3753	630.987	645.7026	811.9147	855.8059	934.0772	935.7192	958.6822	969.3979	982.5088	1046.8319	1083.3156	1139.0905	1161.0063	1189.3128	1218.9205	1262.7698	1314.4084	1345.5681	1349.1004	1371.594	1405.0613	1427.3423	1429.1933	1471.7472	1488.1379	1493.6032	1506.5049	1513.7915	1835.1558	2239.4459	2839.8152	2988.1677	3016.0513	3031.5676	3037.3502	3059.5198	3078.6507	3096.2829	3102.3795	3112.5384	3126.003	3506.0193
CC(C)C(CC#C)C=O	CC(C)[C@@H](CC#C)C=O	
InChI=1S/C8H12O/c1-4-5-8(6-9)7(2)3/h1,6-8H,5H2,2-3H3	InChI=1S/C8H12O/c1-4-5-8(6-9)7(2)3/h1,6-8H,5H2,2-3H3/t8-/m0/s1
