19
gdb 32867	5.72476	0.79121	0.7262	1.6923	79.86	-0.225	0.0096	0.2346	1613.2229	0.159504	-419.236178	-419.226843	-419.225899	-419.27121	33.045	
C	-0.2395009887	 1.4619195979	 0.2725953191	-0.306504
N	-0.1569178845	 0.0128120176	 0.1578610419	-0.289022
C	 0.8705869969	-0.5613985325	 1.021440193	-0.248585
C	 0.8610936971	-2.0509945177	 0.9576544689	 0.391496
N	 1.8371873312	-2.8610224948	 0.70345202	-0.346135
C	 1.2820137202	-4.1389463792	 0.7961893065	 0.248545
C	 2.0938624656	-5.3681351257	 0.5669312682	-0.492017
C	-0.0296879092	-4.009893996	 1.1050228923	-0.12127
O	-0.31755075	-2.6741078457	 1.2180327539	-0.182996
H	 0.6847986767	 1.9123811549	-0.106997744	 0.125102
H	-1.0654087495	 1.8298347721	-0.3424123733	 0.121348
H	-0.3863499144	 1.8278857357	 1.3054445658	 0.093849
H	-1.0515982992	-0.4030130634	 0.3936221616	 0.227906
H	 1.8574557134	-0.2300040746	 0.6849354835	 0.13907
H	 0.7679897521	-0.2439441972	 2.0787523374	 0.097223
H	 2.924792784	-5.4253081943	 1.277932152	 0.13879
H	 1.4842729048	-6.2687516724	 0.6765840073	 0.122734
H	 2.5286098602	-5.3658185408	-0.4380791943	 0.140466
H	-0.8448605667	-4.6937516541	 1.2672510701	 0.139999
45.8592	89.6926	109.4976	135.9634	227.7124	249.8656	273.1351	328.6004	357.0181	434.0787	635.3989	657.4386	715.982	748.4087	776.1255	803.4779	948.4458	979.8822	983.3586	1021.654	1028.7037	1067.8298	1126.2918	1134.475	1152.7898	1188.5074	1227.1527	1266.7734	1290.0494	1352.4403	1382.9492	1418.1653	1459.4353	1475.0232	1484.6608	1490.7748	1491.5715	1503.5432	1518.2168	1625.7358	1645.7431	2898.0567	2938.4947	3038.2879	3055.774	3085.8405	3094.6621	3108.0421	3121.4334	3291.1843	3529.9895
CNCC1=NC(C)=CO1	CNCc1nc(C)co1	
InChI=1S/C6H10N2O/c1-5-4-9-6(8-5)3-7-2/h4,7H,3H2,1-2H3	InChI=1S/C6H10N2O/c1-5-4-9-6(8-5)3-7-2/h4,7H,3H2,1-2H3
