25
gdb 122641	3.83023	0.67268	0.61116	0.9748	90.41	-0.2493	0.0827	0.332	1937.3746	0.227913	-389.47484	-389.464162	-389.463218	-389.511399	38.651	
C	 0.013242415	 1.451566877	-0.008053808	-0.226824
O	-0.077194796	 0.0494750155	-0.0455194859	-0.229928
C	 0.6443104209	-0.5202248593	-1.1170475942	-0.050214
C	 0.4811054145	-2.0343845124	-1.0668449955	-0.23204
C	 1.233341774	-2.7394215559	-2.1883566524	 0.045422
C	 2.7886886599	-2.7710168479	-2.1782425807	-0.225988
C	 2.7271043649	-4.2188850574	-2.7325414408	-0.222513
C	 1.2386739349	-4.3047566017	-2.278069565	-0.006053
C	 1.0441066191	-5.0513468364	-0.9600764103	-0.391537
H	 1.0540377391	 1.7934921798	 0.1133082947	 0.10043
H	-0.3911831166	 1.91411654	-0.9231927434	 0.100307
H	-0.5720830113	 1.7967121832	 0.8480883639	 0.124362
H	 0.2740506483	-0.1256215775	-2.0802407318	 0.079794
H	 1.7112625398	-0.2441000857	-1.0488272119	 0.085918
H	 0.827951203	-2.3859537013	-0.0884786118	 0.102496
H	-0.5895690845	-2.268184908	-1.1235138176	 0.101764
H	 0.8918803408	-2.3419678564	-3.1526297235	 0.065708
H	 3.3172347412	-2.0220864164	-2.7734625778	 0.092099
H	 3.1864729375	-2.7393574515	-1.1585817007	 0.098353
H	 2.8295366191	-4.2465046229	-3.8209597346	 0.096375
H	 3.4156487316	-4.951776953	-2.3024274903	 0.091453
H	 0.5489152414	-4.7130133668	-3.0238272372	 0.061402
H	 1.7420313288	-4.7079648769	-0.1885311285	 0.113597
H	 0.0289137917	-4.9263433585	-0.5689214315	 0.115509
H	 1.2167824729	-6.1237633095	-1.102531345	 0.110107
57.5579	76.5616	93.9761	120.0857	134.9642	216.9799	238.936	265.2191	289.4952	350.5758	378.0371	425.1866	533.419	674.812	761.3215	802.8096	809.9309	884.8212	911.1414	927.6557	956.0527	987.6691	1001.0215	1027.5391	1062.3341	1095.3838	1129.1758	1163.6077	1165.4902	1174.4911	1191.7406	1211.8949	1228.9604	1239.4736	1262.2427	1264.5843	1279.6439	1284.2746	1309.5265	1322.3174	1369.1424	1389.241	1411.7533	1425.6611	1479.086	1481.8752	1485.7206	1488.6313	1497.3284	1500.8208	1501.7713	1506.1828	1531.5151	2938.5719	2964.2579	2965.7753	3005.1792	3016.3391	3025.7388	3029.8146	3042.3449	3046.1294	3055.4669	3073.2443	3091.0309	3093.2674	3096.6065	3109.1535	3109.6104
COCCC1CCC1C	COCC[C@H]1CC[C@H]1C	
InChI=1S/C8H16O/c1-7-3-4-8(7)5-6-9-2/h7-8H,3-6H2,1-2H3	InChI=1S/C8H16O/c1-7-3-4-8(7)5-6-9-2/h7-8H,3-6H2,1-2H3/t7-,8-/m1/s1
