17
gdb 38089	2.67142	2.39809	1.6111	1.8967	75.2	-0.2389	-0.0144	0.2245	850.1085	0.139703	-384.686581	-384.680596	-384.679652	-384.71664	25.485	
O	-0.0563499669	 1.4322525222	-0.0334893177	-0.328275
C	 1.4058186849	 1.5169521685	-0.0066244117	 0.091427
C	 1.992904962	 1.987737521	 1.3002040465	-0.079743
C	 2.3004433287	 0.9606934587	 2.0929009867	-0.07093
C	 1.9168925086	-0.3859916411	 1.4895717726	-0.122893
C	 0.6039061203	-0.8996434629	 2.0700079989	-0.07093
C	-0.4372823494	-0.6770830069	 1.2674113531	-0.079744
C	-0.0065183226	-0.0317443601	-0.0256823582	 0.091427
C	 1.5325493062	-0.0175419337	 0.0311212599	-0.129107
H	 1.7661424201	 2.0565972272	-0.8886424018	 0.073734
H	 2.113534287	 3.0350525675	 1.5525473681	 0.09925
H	 2.7129972699	 1.0436998424	 3.0932177642	 0.099257
H	 2.7235696124	-1.1227096993	 1.576334608	 0.076683
H	 0.5469491748	-1.3314783704	 3.0639893947	 0.099257
H	-1.4720743683	-0.8967455949	 1.5041627111	 0.09925
H	-0.4998837401	-0.428212272	-0.9192200737	 0.073734
H	 2.0997392626	-0.5252214861	-0.7466484607	 0.077603
194.1708	242.9405	373.422	495.0784	525.4306	628.3523	647.3495	742.1242	774.6531	812.3843	815.582	849.9935	860.5173	898.8671	931.5673	951.3577	960.595	968.5789	984.1094	988.9424	1003.0372	1009.59	1056.2272	1115.6018	1137.1808	1223.6197	1239.2631	1244.8533	1270.8294	1290.9277	1308.1802	1313.2698	1350.7929	1351.5255	1377.1848	1662.6604	1677.8995	3037.917	3048.6689	3052.9046	3130.2172	3178.1406	3180.3044	3207.2923	3208.4153
O1C2C=CC3C=CC1C23	O1[C@H]2C=C[C@H]3C=C[C@@H]1[C@@H]23	
InChI=1S/C8H8O/c1-3-6-8-5(1)2-4-7(8)9-6/h1-8H	InChI=1S/C8H8O/c1-3-6-8-5(1)2-4-7(8)9-6/h1-8H/t5-,6-,7+,8+
