21
gdb 89965	3.18756	1.209	1.05482	2.5533	83.47	-0.2294	-0.0162	0.2132	1246.0495	0.181921	-387.096759	-387.087665	-387.086721	-387.131033	34.012	
C	-0.9066651858	 1.0713417251	 0.4814053336	-0.406087
C	 0.0490201245	-0.0370572577	 0.0600526499	-0.086705
C	 0.76514417	 0.0185199625	-1.3300991457	-0.357526
C	 2.1305358943	-0.2960422916	-0.6614913547	 0.249499
C	 2.8442855672	-1.6781473315	-0.799640537	-0.271396
C	 4.1968855507	-0.9506829354	-0.5847523838	-0.201839
C	 3.4935674634	 0.3863220384	-0.9397240396	-0.283467
C	 1.4538092101	-0.0477430991	 0.6904774642	 0.34838
O	 1.869095955	 0.1751853076	 1.7940250628	-0.316409
H	-0.4594707969	 2.0578360677	 0.3198176777	 0.119339
H	-1.8412420382	 1.0268179027	-0.0867096328	 0.118438
H	-1.1482663871	 0.9858543867	 1.5450881994	 0.134627
H	-0.4168495376	-1.0191563739	 0.2126391343	 0.101857
H	 0.4246626713	-0.6990988837	-2.0796904674	 0.101984
H	 0.7393059202	 1.022722013	-1.7646465543	 0.106884
H	 2.5648136775	-2.4651258527	-0.0943337606	 0.105402
H	 2.7393944287	-2.0627085624	-1.8190707207	 0.103483
H	 4.4989956607	-0.9725582311	 0.4646494118	 0.123762
H	 5.0397886933	-1.2620014099	-1.2051447923	 0.097229
H	 3.5993489336	 0.6424978358	-1.9984108278	 0.102009
H	 3.731275545	 1.2627771994	-0.3320774271	 0.110535
44.4016	107.1491	155.6264	192.4153	207.6316	261.0844	264.3226	343.5668	462.5399	522.8465	651.3455	707.2314	713.5144	769.0793	798.8452	855.6029	877.9887	904.8909	929.3681	939.8471	959.2644	976.7138	1029.7802	1087.1515	1114.3325	1147.1612	1157.8464	1186.853	1188.3401	1214.6278	1234.3673	1251.0647	1251.7596	1279.7729	1284.3758	1298.4373	1334.5053	1406.8136	1468.1228	1480.2535	1482.0986	1494.6828	1495.6254	1500.3868	1870.5908	3029.0552	3034.6165	3046.9297	3051.8719	3055.1534	3070.0808	3098.8867	3102.2878	3107.2244	3110.958	3113.1705	3129.4303
CC1CC2(CCC2)C1=O	C[C@H]1CC2(CCC2)C1=O	
InChI=1S/C8H12O/c1-6-5-8(7(6)9)3-2-4-8/h6H,2-5H2,1H3	InChI=1S/C8H12O/c1-6-5-8(7(6)9)3-2-4-8/h6H,2-5H2,1H3/t6-/m0/s1
