20
gdb 35894	2.99029	1.38674	1.06287	1.7024	84.27	-0.2234	0.049	0.2724	1166.9674	0.172284	-365.958898	-365.950709	-365.949765	-365.991469	32.573	
C	 0.0071164304	-1.2263269819	 0.0173144822	-0.447013
C	 0.0061639861	-0.0246606997	 0.007280057	 0.339426
C	-0.0165495943	 1.436914257	 0.0308538933	-0.154283
C	-0.9211433963	 1.9681705811	 1.1697266929	-0.210564
C	-0.7991225635	 3.4905636547	 1.2565893476	-0.205112
C	 0.6352840405	 3.8876640769	 1.6348934476	-0.227655
C	 1.6868304235	 3.1638954785	 0.7913471923	-0.002325
C	 2.186885979	 1.8198428398	 1.2044492947	-0.241095
N	 1.3641587943	 1.9565857149	 0.0102892328	-0.089018
H	 0.0132667494	-2.2881352726	 0.0096489306	 0.193484
H	-0.4643137468	 1.785824415	-0.9111432457	 0.110152
H	-1.9498335327	 1.6586937697	 0.9607181516	 0.10885
H	-0.6415292832	 1.5062796984	 2.1241901024	 0.106009
H	-1.0656553873	 3.9294917265	 0.2857995673	 0.100337
H	-1.5043970079	 3.8940516181	 1.9901466907	 0.095225
H	 0.7675931128	 4.9677697606	 1.5207549539	 0.102438
H	 0.7966731292	 3.6683379635	 2.6973390025	 0.105791
H	 2.3785738456	 3.8175097007	 0.2640127841	 0.091533
H	 3.2169074755	 1.5213288804	 1.026407568	 0.112838
H	 1.7441459456	 1.3876384481	 2.1001866042	 0.110981
85.0384	140.1318	187.564	269.9675	328.3959	374.4099	427.6167	438.0143	513.3229	568.3275	620.8141	625.8897	653.7629	728.2198	783.1327	840.2246	884.5663	911.7267	927.8299	955.0956	987.4335	1044.5415	1069.2227	1079.1221	1114.3432	1120.7683	1133.0789	1165.9274	1186.6684	1217.803	1281.9418	1316.699	1326.5846	1353.8333	1364.3742	1369.2847	1379.4817	1402.0089	1487.2971	1489.2343	1498.948	1516.8775	2238.826	2993.9906	3019.1782	3029.7871	3038.6518	3073.3272	3079.1387	3085.9804	3093.8345	3121.0689	3175.6974	3504.9139
C#CC1CCCC2CN12	C#C[C@H]1CCC[C@H]2CN12	
InChI=1S/C8H11N/c1-2-7-4-3-5-8-6-9(7)8/h1,7-8H,3-6H2	InChI=1S/C8H11N/c1-2-7-4-3-5-8-6-9(7)8/h1,7-8H,3-6H2/t7-,8-,9?/m0/s1
