19
gdb 113498	3.49829	0.96649	0.87455	4.479	76.89	-0.268	0.0103	0.2783	1389.4855	0.158779	-423.04495	-423.036066	-423.035121	-423.07903	32.516	
C	-0.0111272079	 1.5383139862	-0.3088134232	-0.373407
C	-0.0451628863	 0.1064759859	 0.2381741534	-0.202931
C	-1.4240911881	-0.515305467	 0.1541165676	-0.049876
C	-1.8810313885	-1.2151502533	-1.0949148805	-0.34268
C	-1.5866055465	-2.0147345396	 0.1473024153	 0.096937
C	-0.6020705714	-3.1433014589	 0.4216065282	-0.151577
O	-1.6406549594	-3.8278612736	 1.1996941775	-0.255898
C	-2.5549145874	-2.8210048001	 0.9587213901	 0.433697
O	-3.6818160753	-2.7498038461	 1.3329659058	-0.344514
H	 0.9937806167	 1.9642028521	-0.2331689119	 0.117192
H	-0.3126812023	 1.5657342842	-1.3608027077	 0.121967
H	-0.6928464895	 2.1887996479	 0.249155831	 0.122212
H	 0.6691285327	-0.5162271474	-0.3158167027	 0.096408
H	 0.2917296451	 0.1041135807	 1.2825778261	 0.108278
H	-2.1994294314	 0.0102669124	 0.7074462368	 0.111125
H	-2.9204649976	-1.1369388061	-1.3945024203	 0.138996
H	-1.1734277932	-1.306950786	-1.9136234953	 0.122459
H	-0.2986713005	-3.7502611733	-0.4346288985	 0.125554
H	 0.2579300407	-2.9053886683	 1.0522125083	 0.126057
77.2925	102.7212	131.5997	168.3103	232.2452	251.2768	283.596	384.5083	415.3914	565.9045	625.6174	723.3909	774.4474	794.8545	823.8628	871.3141	912.7343	942.3884	953.0793	984.4868	1045.8476	1062.3062	1084.8713	1090.427	1115.2777	1134.0246	1146.8246	1191.382	1217.3459	1295.2718	1310.1176	1341.464	1373.1563	1412.1869	1435.2838	1484.721	1493.2479	1498.1373	1507.6918	1515.656	1933.9822	3018.776	3036.3932	3050.9395	3063.3546	3105.4699	3110.5019	3121.458	3126.4031	3137.1737	3217.3691
CCC1CC11COC1=O	CC[C@H]1C[C@]21COC2=O	
InChI=1S/C7H10O2/c1-2-5-3-7(5)4-9-6(7)8/h5H,2-4H2,1H3	InChI=1S/C7H10O2/c1-2-5-3-7(5)4-9-6(7)8/h5H,2-4H2,1H3/t5-,7+/m0/s1
