22
gdb 118204	2.79638	0.83901	0.7217	3.799	81.38	-0.2361	0.0411	0.2772	1669.5116	0.191363	-441.518613	-441.507155	-441.50621	-441.557392	39.125	
C	 0.0234878659	 1.3081021184	 0.2487571566	-0.227129
O	 0.0408355809	-0.0949746109	 0.1269608568	-0.24391
C	-1.2471088761	-0.6570146508	-0.0467982126	-0.077768
C	-1.096639746	-2.174200725	-0.1263326528	 0.032347
C	-0.3413214901	-2.6245295347	-1.3843937786	-0.390347
N	-0.447046365	-2.6375234628	 1.0924215231	-0.315636
C	-0.7619756892	-3.821411619	 1.6889449581	 0.413702
C	 0.0590998492	-4.1650546773	 2.9234114564	-0.482309
O	-1.6391357523	-4.5580433535	 1.2696886767	-0.3855
H	 1.0559137716	 1.6387432318	 0.3852575817	 0.129334
H	-0.3876396447	 1.7881078196	-0.6525928817	 0.109871
H	-0.5739851432	 1.6346586299	 1.1142368289	 0.108175
H	-1.8960505061	-0.3851093372	 0.801299824	 0.093865
H	-1.7153580344	-0.2734724487	-0.9676406197	 0.092343
H	-2.0941264888	-2.6229603866	-0.1306703476	 0.115841
H	-0.2519763606	-3.7133874703	-1.3932430425	 0.134749
H	-0.8791497531	-2.3171936877	-2.2876329296	 0.110722
H	 0.6588893881	-2.1839375821	-1.4142937455	 0.124264
H	 0.3153074176	-2.0759916784	 1.4358476387	 0.248174
H	-0.6234157698	-4.4114063836	 3.7403152479	 0.14976
H	 0.65313263	-5.0594915604	 2.7143901736	 0.149436
H	 0.7289899762	-3.3627522706	 3.2434724879	 0.110018
26.7016	39.2588	69.2791	106.2532	112.6816	158.8727	220.4239	230.3009	250.6663	322.3578	337.2065	430.7766	462.2071	500.0853	593.249	639.3917	651.0663	851.2422	920.8482	937.1427	966.2566	987.3735	1034.6125	1051.1067	1098.0058	1137.6009	1159.1184	1180.8791	1194.7716	1223.9831	1255.9577	1276.7551	1345.7516	1380.5618	1394.6168	1396.3612	1418.1019	1470.293	1478.9696	1483.9905	1486.2481	1492.6348	1495.927	1502.5478	1522.8976	1528.554	1771.5605	2964.4447	2978.2314	3002.6104	3022.2588	3041.5028	3048.8822	3082.3253	3113.0518	3115.7856	3122.8414	3132.7326	3133.1093	3645.2444
COCC(C)NC(C)=O	COC[C@@H](C)NC(=O)C	
InChI=1S/C6H13NO2/c1-5(4-9-3)7-6(2)8/h5H,4H2,1-3H3,(H,7,8)	InChI=1S/C6H13NO2/c1-5(4-9-3)7-6(2)8/h5H,4H2,1-3H3,(H,7,8)/t5-/m1/s1
