21
gdb 100460	3.44212	0.61931	0.55163	2.5659	84.76	-0.2504	0.0395	0.2899	2025.8201	0.178972	-424.195444	-424.183841	-424.182897	-424.235072	40.265	
C	-0.0470353936	 1.5136508529	 0.5100292199	-0.381555
C	-0.0900623969	 0.1670844778	-0.2272184844	-0.016283
O	 0.9237624668	-0.7186346312	 0.2470362811	-0.414772
C	-1.4220287575	-0.4435035603	-0.1591320939	 0.07873
C	-2.5098173537	-0.9553066486	-0.0677598909	 0.021313
C	-3.8250690425	-1.5817228267	 0.0511528568	-0.142647
C	-3.7182243877	-3.0523471832	 0.4994495473	-0.38228
C	-4.719089643	-0.7651219347	 0.9995437401	-0.066429
O	-6.0164230651	-1.3366891128	 0.9633346847	-0.419274
H	 0.9606115422	 1.932397305	 0.4443476562	 0.12394
H	-0.7585490588	 2.2205363561	 0.0731073867	 0.122391
H	-0.3048842451	 1.3797368299	 1.5656570944	 0.113596
H	 0.1701550362	 0.3368590469	-1.2793344443	 0.115953
H	 0.639443272	-1.0418113401	 1.1091330742	 0.280615
H	-4.3136950901	-1.5589092624	-0.9327363304	 0.114976
H	-4.7175693733	-3.4823242293	 0.5902977533	 0.13596
H	-3.1405728435	-3.6358606773	-0.2215422518	 0.123322
H	-3.2179598195	-3.121769315	 1.4708166682	 0.114892
H	-4.2904658512	-0.7937276992	 2.0136520926	 0.091431
H	-4.7317826627	 0.2844205653	 0.6712850894	 0.096078
H	-6.573557833	-0.8635707232	 1.5875563906	 0.290043
4.777	66.211	77.2725	131.4078	173.6738	213.1833	226.0324	236.5531	255.7402	275.5226	316.2525	338.5567	423.4705	471.737	489.7457	571.0641	598.5716	732.9306	848.1851	901.1011	931.6624	986.0772	1031.8602	1069.5864	1079.8634	1094.804	1113.0963	1144.7337	1188.9022	1237.6731	1261.7452	1280.0553	1328.1253	1339.8874	1346.0477	1397.5619	1397.7263	1417.2287	1451.6464	1487.5861	1491.1763	1493.3676	1500.2725	1520.6678	2355.379	2976.0072	3006.8644	3023.1966	3033.3986	3038.2485	3045.5819	3112.5066	3116.5528	3125.3191	3140.3474	3805.1834	3837.783
CC(O)C#CC(C)CO	C[C@@H](O)C#C[C@@H](C)CO	
InChI=1S/C7H12O2/c1-6(5-8)3-4-7(2)9/h6-9H,5H2,1-2H3	InChI=1S/C7H12O2/c1-6(5-8)3-4-7(2)9/h6-9H,5H2,1-2H3/t6-,7-/m1/s1
