16
gdb 37687	3.26244	2.49301	2.03305	1.0338	70.03	-0.2279	0.0339	0.2618	734.9455	0.126738	-400.581648	-400.57643	-400.575486	-400.610797	23.622	
C	-0.0684122146	 1.4908850256	-0.1750509067	-0.345196
C	 1.5117374033	 1.3769930978	 0.0694881346	-0.032696
C	 1.2485555472	 0.2027154423	 1.012759155	-0.037474
C	 2.1672659162	-0.7617335713	 0.3229897986	-0.065696
C	 1.0507093065	-1.6765279638	-0.4212447789	 0.020397
O	-0.2918887606	-1.4426908993	 0.163893832	-0.383495
C	 0.0932646507	-0.0385932025	-0.0046779867	 0.379869
C	 0.9489211248	-0.4114446217	-1.2365711719	-0.015471
N	 2.1945295148	 0.2826316288	-0.8492608373	-0.19193
H	-0.4915707396	 2.0284371551	 0.6782994494	 0.122574
H	-0.4753433922	 1.8677150538	-1.1162143475	 0.115875
H	 2.1131652708	 2.2615929471	 0.2647705947	 0.091641
H	 0.9741727154	 0.2605193683	 2.0639761013	 0.082435
H	 3.1139777042	-1.1432307311	 0.6965888253	 0.081751
H	 1.2168993235	-2.7064457837	-0.7260456266	 0.096618
H	 0.5067982796	-0.3064159154	-2.2272118355	 0.080798
380.4477	429.5825	496.39	513.0878	701.9439	715.898	734.4163	763.4457	795.4884	807.0792	809.3778	833.5294	869.3915	895.6374	920.4199	939.6764	958.3289	973.2417	1009.5959	1029.1293	1056.6406	1085.753	1105.7543	1139.7506	1156.4355	1160.9986	1165.7522	1184.9015	1227.5384	1233.38	1251.4443	1264.5044	1307.8145	1327.5409	1482.0609	3060.248	3113.8803	3128.5571	3133.1544	3149.3707	3155.1969	3164.6015
C1C2C3C4C5OC13C5N24	C1[C@H]2[C@@H]3[C@H]4[C@H]5O[C@@]13[C@H]5N24	
InChI=1S/C7H7NO/c1-2-3-4-5-6(8(2)4)7(1,3)9-5/h2-6H,1H2	InChI=1S/C7H7NO/c1-2-3-4-5-6(8(2)4)7(1,3)9-5/h2-6H,1H2/t2-,3+,4-,5+,6-,7-/m0/s1
