16
gdb 128023	4.78818	0.91226	0.76991	4.6031	76.88	-0.2146	-0.0076	0.2071	1425.7655	0.124776	-434.053998	-434.045646	-434.044702	-434.087485	30.092	
C	 0.0313462591	 1.5919545924	-0.1676836636	-0.314307
N	-0.0392847508	 0.1556311897	-0.0035744257	-0.217601
C	 0.5995986412	-0.5611705319	-0.8333168941	 0.09509
N	 0.6158437826	-1.9337028027	-0.7890455299	-0.440485
C	-0.0464346706	-2.7228984789	 0.1435303695	 0.212931
C	-0.8395293406	-2.3777788005	 1.1994902537	 0.019026
O	-1.2637796078	-3.4943341219	 1.825775928	-0.167734
N	-0.7531945462	-4.6080139266	 1.1880378111	-0.125983
C	-0.0348279727	-4.1462147292	 0.1949556894	-0.052776
H	 0.6512441535	 1.9111980467	-1.0218061034	 0.094742
H	-0.9762752039	 2.0018622767	-0.3057171966	 0.126721
H	 0.4391490998	 2.0518980203	 0.7403448844	 0.126721
H	 1.1991255315	-0.161532566	-1.6626978888	 0.085609
H	 1.1533056023	-2.409194974	-1.4927951239	 0.258469
H	-1.1614864267	-1.4308154022	 1.5899085613	 0.174856
H	 0.4738006993	-4.840514502	-0.4599980115	 0.124721
66.0425	132.121	144.4183	207.9615	266.7543	307.3331	327.783	362.4038	463.1751	612.835	647.9375	669.1989	795.7927	821.1492	881.5966	923.2131	935.4537	971.9396	1011.2685	1062.3152	1128.9774	1140.422	1149.9445	1193.7017	1227.2524	1285.8472	1365.818	1408.369	1449.5631	1480.1516	1481.976	1505.6367	1567.6329	1671.8027	1754.7079	2966.1134	3024.45	3052.4907	3069.7199	3234.4508	3330.486	3670.2547
CN=CNC1=CON=C1	CN=CNc1conc1	
InChI=1S/C5H7N3O/c1-6-4-7-5-2-8-9-3-5/h2-4H,1H3,(H,6,7)	InChI=1S/C5H7N3O/c1-6-4-7-5-2-8-9-3-5/h2-4H,1H3,(H,6,7)
