18
gdb 76728	3.59176	0.75357	0.73027	1.8422	69.62	-0.2435	-0.0367	0.2068	1567.1619	0.1457	-476.182562	-476.17314	-476.172196	-476.218198	33.675	
O	-0.1838101567	 1.3464412716	 0.1460532621	-0.432778
C	-0.0143926349	-0.0344125045	 0.0420808269	 0.045586
C	-0.3955884009	-0.8060230498	 1.283353551	 0.058898
O	-0.8127696925	-0.0647788382	 2.3850657572	-0.431934
C	-1.3026084968	-0.8525173116	 0.0642795867	-0.078648
N	-2.5060237579	-0.0615510988	 0.1256744484	-0.327475
C	-3.4677681719	-0.2939903867	-0.9402240724	-0.225788
C	-4.5157908799	 0.8073191345	-0.9831787678	 0.148465
O	-5.6486860881	 0.648702159	-1.3511392517	-0.22853
H	-1.1431569063	 1.4818302614	 0.0224559006	 0.282189
H	 0.8298319047	-0.3311379066	-0.5717893918	 0.104247
H	 0.1450952632	-1.7108226584	 1.5462828617	 0.104034
H	-0.5523187885	 0.8499607319	 2.1927350232	 0.291934
H	-1.3483042008	-1.784226028	-0.4957165739	 0.092489
H	-2.9283319541	-0.1449079029	 1.0453499146	 0.245872
H	-2.9331807991	-0.249516925	-1.9001333682	 0.143593
H	-3.9783462478	-1.2677408019	-0.9006749306	 0.124816
H	-4.1335832817	 1.8003876242	-0.652857456	 0.083031
51.1212	65.616	85.8821	120.2351	225.533	259.4349	286.7621	357.3895	450.5685	495.9805	568.9776	659.0759	675.4427	693.9804	754.646	763.5592	784.6845	861.8674	953.7249	1030.9729	1038.7742	1057.9618	1087.7599	1102.1006	1146.4029	1148.9139	1174.841	1225.8328	1256.4974	1322.9904	1332.647	1348.0135	1383.5174	1406.6769	1412.8683	1455.232	1468.0913	1477.5975	1843.4482	2876.4568	2994.4584	3039.2083	3120.9055	3146.7282	3163.4233	3513.057	3570.3591	3694.5632
OC1C(O)C1NCC=O	O[C@H]1[C@@H](O)[C@H]1NCC=O	
InChI=1S/C5H9NO3/c7-2-1-6-3-4(8)5(3)9/h2-6,8-9H,1H2	InChI=1S/C5H9NO3/c7-2-1-6-3-4(8)5(3)9/h2-6,8-9H,1H2/t3-,4+,5-
