17
gdb 19924	4.33617	2.11952	1.73138	1.0975	73.97	-0.2235	0.0138	0.2373	789.7101	0.145215	-326.676214	-326.67018	-326.669236	-326.706025	25.082	
C	 0.0354815865	 1.5663751371	 0.0486905718	-0.242411
C	 1.5979296783	 1.3628005062	 0.0444014412	-0.307263
C	 1.2751060764	-0.0431503205	 0.4936238041	 0.255297
C	 1.4330288554	-0.8562844956	 1.5405292732	-0.200671
C	 0.1166209294	-1.5079112571	 1.8405458535	-0.067564
N	-0.8550510303	-0.4887444785	 2.3459136766	-0.334498
C	-0.9053479683	-0.8892473706	 0.9263258363	-0.080111
C	-0.1417901642	 0.0042245943	-0.031951172	-0.029684
H	-0.3124884179	 1.9441652316	 1.0109778759	 0.132421
H	-0.385478434	 2.153262267	-0.7705631056	 0.097562
H	 1.9970793692	 1.4178195069	-0.9740464355	 0.107752
H	 2.205148505	 1.9856496754	 0.7043239046	 0.110684
H	 2.2771323449	-0.8905873573	 2.2189614709	 0.093342
H	 0.0292227469	-2.5242349819	 2.211430749	 0.085596
H	-1.6087227044	-0.9714177293	 2.8326253522	 0.225856
H	-1.7612853132	-1.4596841504	 0.5819354183	 0.080806
H	-0.2565103597	-0.3214537475	-1.0719755747	 0.072886
192.7553	207.2956	350.3674	445.744	514.1378	668.7018	681.4915	685.8417	780.387	812.819	820.344	840.5263	864.1056	885.1572	909.4118	927.5979	971.9157	1018.0272	1048.8909	1072.767	1084.3155	1096.4078	1134.1611	1159.9303	1178.4572	1218.3689	1225.8234	1237.812	1253.896	1278.3482	1346.9156	1364.543	1396.0989	1469.4057	1483.6205	1700.8397	3039.5343	3047.1226	3070.6864	3110.7807	3144.791	3156.3106	3167.6564	3201.1566	3476.9442
C1CC2=CC3NC3C12	C1C[C]2[CH][C@H]3N[C@H]3[C@@H]12	
InChI=1S/C7H9N/c1-2-5-4(1)3-6-7(5)8-6/h3,5-8H,1-2H2	InChI=1S/C7H9N/c1-2-5-4(1)3-6-7(5)8-6/h3,5-8H,1-2H2/t5-,6+,7-/m0/s1
