13
gdb 130477	4.00347	1.7136	1.19997	2.0522	73.77	-0.243	-0.0794	0.1637	927.0443	0.093189	-415.632356	-415.626656	-415.625712	-415.662367	22.923	
O	-0.0037149132	 1.2805619223	 0.0089659598	-0.143538
C	 1.2478999257	 1.7343818204	-0.0004909112	-0.007771
C	 2.1170028393	 0.6690246945	-0.0145738506	 0.154797
N	 3.477855213	 0.6048244598	-0.027879119	-0.331825
C	 3.9619550694	-0.610121333	-0.0391135033	-0.031922
C	 3.17631982	-1.8158977832	-0.0382172555	-0.098404
C	 1.8129283617	-1.7685669908	-0.0249778292	-0.187156
C	 1.2372766117	-0.467509043	-0.0123974475	 0.359996
N	-0.0382227826	-0.1120567719	 0.0016808078	-0.247733
H	 1.3751815008	 2.8049230138	 0.0041370044	 0.169853
H	 5.0462335733	-0.7007509205	-0.0499406097	 0.116968
H	 3.6972208431	-2.7670868262	-0.0483704867	 0.115469
H	 1.1931130678	-2.6574945222	-0.0239291393	 0.131266
221.9247	259.2367	432.5124	454.9609	550.7757	583.0899	620.6658	629.9286	762.7259	772.0129	830.0818	846.4345	903.7467	928.2312	937.3938	970.2758	1003.3999	1014.5764	1151.1985	1162.8211	1246.3414	1304.7885	1383.1644	1412.2768	1429.3262	1448.1481	1558.26	1596.1271	1659.6446	3151.0394	3191.8424	3211.3203	3276.8049
O1C=C2N=CC=CC2=N1	o1cc2ncccc2n1	
InChI=1S/C6H4N2O/c1-2-5-6(7-3-1)4-9-8-5/h1-4H	InChI=1S/C6H4N2O/c1-2-5-6(7-3-1)4-9-8-5/h1-4H
