16
gdb 16599	3.57709	1.73145	1.47588	0.7991	60.16	-0.241	0.0609	0.3019	875.7284	0.130226	-420.827422	-420.819889	-420.818944	-420.858887	29.164	
O	-0.1745835659	 1.38437069	 0.0043548738	-0.423381
C	-0.0981456234	-0.0159401837	 0.0512727803	 0.090294
C	-0.4369422177	-0.8082533632	 1.2787101201	-0.17425
C	-1.3555299907	-0.8120836399	 0.030357545	-0.105425
C	-2.4537939369	-0.0940192999	 0.8106388967	 0.071555
O	-3.5532609649	-0.9749588988	 0.9871817495	-0.438217
C	-1.5234483131	-0.0751307656	 2.0902011823	 0.124715
O	-2.0617463365	-0.7976614016	 3.1633963344	-0.444503
H	 0.5688963921	 1.7393875566	 0.5030735618	 0.289034
H	 0.7045113085	-0.4406463068	-0.5527215004	 0.094979
H	 0.2071729276	-1.5837948771	 1.677530129	 0.089725
H	-1.5500559384	-1.5850006337	-0.7036154697	 0.096403
H	-2.7815587814	 0.8737067744	 0.4166199671	 0.082139
H	-4.2507647716	-0.4839608689	 1.4347339804	 0.29321
H	-1.2402975042	 0.911008206	 2.4681739249	 0.07541
H	-2.6343279336	-1.4686799278	 2.7627049148	 0.278314
120.8227	190.3394	242.0589	290.9844	311.6999	340.4564	386.0082	479.4342	566.2874	611.3372	635.3337	723.347	810.438	825.8733	888.6448	947.5614	980.8582	998.8542	1036.6437	1045.4679	1081.3036	1122.4255	1138.9119	1196.1022	1213.5964	1230.3886	1257.9372	1290.2171	1299.9241	1322.4725	1335.5041	1421.9752	1446.761	1455.6695	3047.0737	3071.5107	3098.4886	3175.3701	3188.2813	3716.7573	3806.6806	3812.6291
OC1C2C1C(O)C2O	O[C@H]1[C@@H]2[C@H]1[C@@H](O)[C@H]2O	
InChI=1S/C5H8O3/c6-3-1-2(3)5(8)4(1)7/h1-8H	InChI=1S/C5H8O3/c6-3-1-2(3)5(8)4(1)7/h1-8H/t1-,2+,3-,4-,5+
