17
gdb 44226	3.94607	1.19766	1.10397	1.3776	72.42	-0.2457	-0.0272	0.2185	1109.5884	0.134997	-421.79337	-421.785794	-421.78485	-421.825937	29.292	
O	-0.3207997732	 0.3552064301	-0.7799961166	-0.29168
C	-0.1559246462	 1.3889395079	-0.2014167008	 0.407084
C	-1.105732299	 2.3709763595	 0.517379742	-0.359847
C	 0.1253077864	 3.2646048707	 0.8433328906	-0.141941
C	 1.0868381127	 2.2200028196	 0.1441149941	-0.155782
C	 1.439480319	 3.2844463967	-0.9475919674	-0.332291
C	 0.48292596	 4.267174602	-0.2586290633	 0.458921
C	-0.2982940916	 5.3796962162	-0.8025352045	-0.264792
O	 0.8581507717	 5.6027075503	 0.0188676645	-0.269268
H	-1.9087820006	 2.8068198967	-0.0836791248	 0.128383
H	-1.5513279883	 1.9035159594	 1.4020525399	 0.137369
H	 0.2503826611	 3.6026664631	 1.8706271368	 0.093314
H	 1.9175492063	 1.7059103594	 0.6268177531	 0.099897
H	 2.4764411681	 3.6218789652	-0.8788987659	 0.132227
H	 1.2240771405	 3.0091078943	-1.9829932436	 0.122031
H	-0.1868967672	 5.6593309233	-1.8494889128	 0.119165
H	-1.2512668098	 5.6489239857	-0.3480390512	 0.117211
47.7981	145.517	214.413	325.3888	330.6528	420.2121	438.8273	510.1618	546.9503	662.1023	722.5354	816.7113	835.8488	844.7759	880.2855	908.6268	935.8249	943.4488	994.0976	1022.7612	1072.9874	1077.0219	1113.1179	1127.3368	1155.0701	1163.6091	1176.6717	1212.5559	1224.2554	1242.0796	1268.8056	1276.117	1425.8277	1435.2952	1473.6084	1533.1544	1889.9201	3051.828	3064.8288	3079.143	3105.6258	3116.5889	3123.9843	3134.6604	3165.9688
O=C1CC2C1CC21CO1	O=C1C[C@H]2[C@@H]1C[C@]12CO1	
InChI=1S/C7H8O2/c8-6-1-5-4(6)2-7(5)3-9-7/h4-5H,1-3H2	InChI=1S/C7H8O2/c8-6-1-5-4(6)2-7(5)3-9-7/h4-5H,1-3H2/t4-,5-,7+/m0/s1
