17
gdb 66140	3.06497	1.35204	1.24556	3.1187	67.79	-0.2589	-0.0462	0.2127	1048.4706	0.135298	-458.961168	-458.953274	-458.95233	-458.993543	30.405	
O	-0.0217874726	 1.4113465145	 0.0801184635	-0.4819
C	 0.0105534365	 0.013414742	 0.0342952622	 0.308192
C	 0.6629926799	-0.6133165133	 1.3110896539	-0.288941
C	-0.0142683571	-1.9841304847	 1.5260688224	-0.253077
C	-1.3848061137	-1.8084720853	 0.8979474585	 0.052217
O	-2.0252610324	-0.589995691	 1.2962179317	-0.252268
C	-1.3811557778	-0.6300490268	 0.0227294064	-0.009967
C	 0.7731065711	-0.4371160298	-1.1995295196	 0.11369
O	 1.2478673748	 0.3509928506	-1.981422549	-0.271867
H	 0.4517977854	 1.7154707417	-0.7104218055	 0.292266
H	 1.7513251044	-0.6776517077	 1.2347568242	 0.110057
H	 0.4244792323	 0.0703302428	 2.1268235506	 0.147325
H	 0.5205917535	-2.7901819881	 1.0092396507	 0.106977
H	-0.0716981517	-2.2592826744	 2.5836767795	 0.120456
H	-2.0467595023	-2.6558761629	 0.7397166874	 0.100006
H	-2.031633744	-0.5045899069	-0.8392383419	 0.106222
H	 0.8842684739	-1.5315770208	-1.3396299748	 0.100612
99.7364	127.7477	222.1461	293.5771	321.8605	360.4318	374.4244	437.5183	488.9396	526.7854	672.6897	724.2277	807.7166	839.0089	842.7591	873.9692	929.7805	936.7596	973.2539	1010.8498	1039.0824	1075.22	1109.1588	1138.4919	1168.4657	1226.8745	1234.8972	1266.4111	1297.7611	1327.7358	1350.8137	1385.4396	1425.2328	1443.1639	1478.8897	1490.7977	1810.0162	2929.9906	3039.4292	3076.948	3085.2565	3134.4453	3143.9235	3156.5455	3689.9922
OC1(CCC2OC12)C=O	O[C@]1(CC[C@H]2O[C@@H]12)C=O	
InChI=1S/C6H8O3/c7-3-6(8)2-1-4-5(6)9-4/h3-5,8H,1-2H2	InChI=1S/C6H8O3/c7-3-6(8)2-1-4-5(6)9-4/h3-5,8H,1-2H2/t4-,5-,6-/m1/s1
