13
gdb 19219	3.16047	2.05223	1.46206	5.0522	63.22	-0.2667	-0.0369	0.2298	830.3047	0.095857	-361.462993	-361.45632	-361.455375	-361.494103	24.617	
O	-0.0648086981	 0.023307299	-0.1218174662	-0.287087
C	-0.0994498578	 1.2042616277	 0.0280890519	 0.416081
C	-1.1554448776	 2.2531105863	-0.0402365414	-0.167525
C	-0.9913691311	 3.2188897215	 1.1320193453	-0.287344
C	-0.0573039519	 3.3494669952	-0.0116757886	-0.048836
C	 1.0580254279	 2.2926482264	 0.1020050507	-0.290283
C	 1.9291550958	 2.33293693	 1.2615199181	 0.287295
N	 2.5948605107	 2.3583258921	 2.2068950462	-0.326726
H	-2.0795110518	 2.1936241123	-0.6001065887	 0.127836
H	-1.7831593986	 3.9575916447	 1.1915957963	 0.142163
H	-0.6380720812	 2.8611506843	 2.0940065026	 0.15472
H	 0.001732759	 4.2223387621	-0.6464633439	 0.126143
H	 1.6500297048	 2.1984283685	-0.8136958223	 0.153562
110.4782	140.7437	192.1986	379.4789	396.291	521.4674	556.4115	608.4701	689.4679	765.2274	828.0085	851.3428	908.8106	945.141	978.7411	1000.5583	1052.1886	1064.3488	1094.0721	1114.3827	1140.9793	1184.4121	1288.714	1308.297	1338.0272	1495.4713	1906.1353	2351.415	3077.6466	3133.9747	3208.7479	3217.7097	3226.8293
O=C1C2CC2C1C#N	O=C1[C@H]2C[C@H]2[C@H]1C#N	
InChI=1S/C6H5NO/c7-2-5-3-1-4(3)6(5)8/h3-5H,1H2	InChI=1S/C6H5NO/c7-2-5-3-1-4(3)6(5)8/h3-5H,1H2/t3-,4+,5-/m1/s1
