19
gdb 39088	3.45108	1.73693	1.48095	1.3631	79.27	-0.2306	0.0137	0.2444	936.0444	0.162488	-385.863126	-385.856771	-385.855827	-385.893338	27.742	
C	-0.051949579	 1.6075750364	 0.2064894439	-0.278735
C	 1.4745282663	 1.4026996397	 0.0391037178	-0.120668
C	 1.7112679004	 0.4371069552	 1.2324483903	-0.083372
O	 0.5616386625	-0.4566439964	 1.120376107	-0.354151
C	-0.0322243092	 0.0677009913	-0.0598262001	 0.499282
C	-1.1523992775	-0.606763063	-0.8216648337	-0.399232
C	-0.8368681182	-0.0831126243	-2.2231042084	-0.043393
C	 0.3775200066	 0.4771634276	-2.3266985767	-0.148024
C	 1.147557324	 0.3199132508	-1.0420152915	-0.037847
H	-0.4216245204	 1.9195424245	 1.1862918675	 0.09251
H	-0.5070038658	 2.1899509661	-0.5920742696	 0.109302
H	 2.1920086158	 2.2150028495	-0.0811502848	 0.067951
H	 2.636188633	-0.1455946512	 1.1480488436	 0.10036
H	 1.6914666067	 0.9452481622	 2.2025645733	 0.102804
H	-1.0856286513	-1.7019128339	-0.7729072434	 0.119414
H	-2.1532268511	-0.323407422	-0.4777043878	 0.110027
H	-1.5494478867	-0.1665870589	-3.0374076584	 0.094896
H	 0.7861195448	 0.8915590788	-3.2421903512	 0.091449
H	 1.9004882792	-0.4744718823	-1.1264838677	 0.077427
249.4477	269.3259	346.0479	421.875	438.2836	486.7356	554.6304	649.9933	689.9947	728.0411	787.1078	841.0737	857.9125	898.1869	902.8729	918.7129	940.6383	949.5301	969.5855	994.9959	1024.6297	1050.1082	1065.1281	1084.1673	1091.1142	1137.8585	1146.6995	1182.2642	1197.9774	1216.4598	1242.6431	1258.9287	1278.0211	1321.0933	1331.7771	1365.0239	1377.7466	1479.7169	1490.4909	1521.829	1641.4805	3017.5368	3022.5387	3027.1501	3067.3567	3072.4616	3075.6134	3111.0761	3158.2272	3173.8633	3197.8695
C1C2COC11CC=CC21	C1[C@H]2CO[C@]31CC=C[C@@H]23	
InChI=1S/C8H10O/c1-2-7-6-4-8(7,3-1)9-5-6/h1-2,6-7H,3-5H2	InChI=1S/C8H10O/c1-2-7-6-4-8(7,3-1)9-5-6/h1-2,6-7H,3-5H2/t6-,7-,8-/m0/s1
