15
gdb 21291	3.42536	1.9408	1.25834	1.005	63.61	-0.224	0.0081	0.2321	935.9244	0.119654	-395.984047	-395.976083	-395.975138	-396.016715	27.643	
C	-0.0693333239	 1.4193912999	-0.031535517	-0.239622
O	-0.0157813688	-0.0050143797	-0.0251922037	-0.262809
C	-1.2006359757	-0.6311887219	 0.0062950781	 0.341824
N	-2.380032883	-0.0212856958	 0.030096119	-0.308658
N	-3.230878161	-1.0528358033	 0.0561671672	-0.100967
N	-2.6917250221	-2.2633753853	 0.0510552504	-0.255317
C	-1.3787118725	-2.0350546099	 0.0189786655	 0.219864
C	-0.3535381965	-3.117636441	 0.0014387072	-0.498935
H	 0.9665719524	 1.7594772326	-0.0576147372	 0.131176
H	-0.6098477272	 1.7865752749	-0.9103773239	 0.134985
H	-0.5682070577	 1.7960542405	 0.8676867198	 0.134961
H	-4.2261432584	-0.9134469981	 0.0790303982	 0.288738
H	 0.2676316487	-3.0632567268	-0.8990852771	 0.136344
H	 0.320479397	-3.0410565455	 0.8613384043	 0.136352
H	-0.8421262513	-4.0935210106	 0.0281240392	 0.142064
82.0965	105.4236	184.2458	189.5127	259.6752	303.6112	340.0013	396.1796	533.6969	637.915	700.5862	750.9044	773.2656	970.9681	1017.2518	1056.2841	1069.1817	1181.694	1186.258	1209.9618	1216.3231	1276.0358	1386.6615	1414.3176	1455.7521	1469.5952	1479.8549	1481.2583	1492.3584	1502.1726	1574.583	1595.7885	3031.08	3038.2419	3089.062	3097.1953	3136.1937	3146.7674	3689.9425
COC1=NNN=C1C	COc1n[nH]nc1C	
InChI=1S/C4H7N3O/c1-3-4(8-2)6-7-5-3/h1-2H3,(H,5,6,7)	InChI=1S/C4H7N3O/c1-3-4(8-2)6-7-5-3/h1-2H3,(H,5,6,7)
