21
gdb 68925	2.2652	1.76978	1.25497	1.9066	78.52	-0.2351	0.0775	0.3126	1086.809	0.182205	-424.221717	-424.212916	-424.211972	-424.254427	34.994	
C	-0.1081046992	 1.4975810087	 0.0251315281	-0.441136
C	 0.052814997	-0.002426068	 0.0133951781	 0.37353
C	 1.416614815	-0.6377721861	-0.2008839401	-0.393673
C	 0.7321134858	-0.7297905554	 1.1483093912	 0.330965
O	 1.2363243534	 0.1057263421	 2.1624532339	-0.46584
C	 0.1466924684	-2.0317570053	 1.670778403	-0.272678
C	-0.8718647667	-2.6546489506	 0.7055641146	-0.221149
C	-1.7652993099	-1.5537524022	 0.1398427496	-0.070201
O	-1.0155827022	-0.6421418062	-0.6473040065	-0.299165
H	 0.7315128288	 1.9768420577	 0.5303705726	 0.127642
H	-0.1732101319	 1.8730693865	-1.0010274153	 0.119157
H	-1.0284546046	 1.7792560923	 0.5476825536	 0.11667
H	 1.4486661222	-1.5173205704	-0.834980859	 0.111549
H	 2.2787372923	 0.0178641948	-0.2662973422	 0.106267
H	 2.0825333833	-0.2582191573	 2.4458489871	 0.280795
H	 0.9471428506	-2.742247793	 1.9150532449	 0.089478
H	-0.3572959898	-1.7851930607	 2.6132558991	 0.110155
H	-0.370458286	-3.1619876772	-0.1269037415	 0.10641
H	-1.4747548198	-3.4063922625	 1.2264200947	 0.098062
H	-2.5285152178	-1.9600033343	-0.530162131	 0.10412
H	-2.2805734688	-1.0286361927	 0.9614224151	 0.089041
120.6156	161.9942	196.4458	251.9494	275.9196	306.9664	363.9145	396.9771	415.9644	440.2674	490.8627	516.7565	580.306	675.0705	712.4797	850.4542	888.4708	899.1511	917.017	941.2418	943.0803	962.1943	1024.3502	1036.7745	1099.7817	1116.0477	1123.2724	1157.8616	1204.6911	1217.9366	1245.456	1265.7166	1294.1158	1317.0703	1365.6312	1373.934	1398.3861	1409.5162	1414.5954	1472.2251	1482.0124	1483.5629	1491.8109	1504.0169	1506.8986	2968.4201	3015.3197	3036.2561	3039.519	3055.6018	3081.9736	3085.3328	3099.8692	3126.2663	3143.8493	3220.8929	3791.7044
CC12CC1(O)CCCO2	C[C@@]12C[C@]1(O)CCCO2	
InChI=1S/C7H12O2/c1-6-5-7(6,8)3-2-4-9-6/h8H,2-5H2,1H3	InChI=1S/C7H12O2/c1-6-5-7(6,8)3-2-4-9-6/h8H,2-5H2,1H3/t6-,7-/m1/s1
