16
gdb 49274	2.46472	1.72863	1.10218	6.0428	75.97	-0.2142	-0.0332	0.1809	1061.2873	0.124305	-437.885329	-437.87728	-437.876335	-437.91813	29.718	
O	-0.1713003191	-0.0361049548	 0.1458007383	-0.310702
C	-0.0456885539	 1.1650621764	-0.012204108	 0.060146
C	 1.2006683845	 1.8882028055	-0.0229324182	 0.09126
C	 1.3185541314	 3.2408133171	-0.1200268966	-0.066025
N	 2.5947152914	 3.6813236722	 0.0187012282	-0.302262
C	 3.517425792	 2.547248671	 0.1488106569	-0.254582
C	 2.5818769606	 1.3236895576	 0.0765066752	 0.330403
C	 2.9398977422	-0.0037123329	 0.5877217985	-0.247449
O	 2.9733673769	 0.2759545514	-0.8184368997	-0.273548
H	-0.9417806169	 1.8132495173	-0.158565872	 0.052001
H	 0.5166291947	 3.9569642676	-0.2568416374	 0.144101
H	 2.8959733849	 4.5850297202	-0.3029589162	 0.260939
H	 4.240792832	 2.5118983904	-0.6720755045	 0.138492
H	 4.0641137422	 2.6051396001	 1.0965470485	 0.126791
H	 3.9138057995	-0.1498434776	 1.0567394906	 0.102404
H	 2.1439395876	-0.6728025715	 0.9025599865	 0.148032
75.3701	147.2081	176.8551	248.3715	276.6846	330.738	377.1612	425.2971	443.9624	596.5204	608.2027	717.5288	810.5668	818.8064	908.2003	926.1327	956.5949	991.1507	1022.6841	1053.3022	1122.1824	1132.1771	1175.031	1191.0535	1211.4694	1267.1796	1313.4926	1366.5554	1418.0707	1438.1648	1474.0194	1512.9364	1515.8657	1643.9623	1759.4894	2845.3108	3035.7159	3077.6564	3082.7932	3193.7989	3210.4296	3665.0838
O=CC1=CNCC11CO1	O=CC1=CNC[C@]21CO2	
InChI=1S/C6H7NO2/c8-2-5-1-7-3-6(5)4-9-6/h1-2,7H,3-4H2	InChI=1S/C6H7NO2/c8-2-5-1-7-3-6(5)4-9-6/h1-2,7H,3-4H2/t6-/m1/s1
