20
gdb 92513	2.87032	1.51951	1.11467	3.6802	79.28	-0.2362	0.0209	0.2572	1134.9859	0.173029	-403.182564	-403.174401	-403.173456	-403.215387	31.251	
C	-0.4683414954	 1.5058938967	-0.0879737803	-0.39342
C	-0.0284317454	 0.0477037752	-0.0318544371	-0.09736
C	 0.7277329517	-0.4898446815	-1.272085177	-0.25731
C	 1.5700971382	-1.6449426004	-0.6927693418	 0.03352
C	 3.1272131375	-1.6619826459	-0.7729556473	-0.255101
C	 3.1439443069	-1.5054698407	 0.7779476692	-0.179755
N	 1.670524318	-1.3629782641	 0.7556451323	-0.085827
C	 0.9876527571	-0.2163399256	 1.1025106932	 0.369817
O	 1.1916769662	 0.471612808	 2.0775772627	-0.370729
H	 0.3761659143	 2.1600846865	-0.3281414438	 0.118756
H	-1.2436343913	 1.6570187886	-0.845044484	 0.108903
H	-0.8597487767	 1.8195443276	 0.8831152055	 0.138306
H	-0.9034999233	-0.589428091	 0.1575664708	 0.101196
H	 0.0639411901	-0.8053829728	-2.0804713237	 0.106542
H	 1.3821606114	 0.2969874529	-1.6671930025	 0.104409
H	 1.1154907045	-2.6210615712	-0.8973109104	 0.082659
H	 3.5761126103	-2.5753957287	-1.1661770809	 0.111948
H	 3.542467194	-0.8018419516	-1.3037549114	 0.113506
H	 3.4751986118	-2.3932866758	 1.3236340819	 0.11809
H	 3.6467339903	-0.6257345164	 1.1883003245	 0.13185
95.4422	113.7945	185.0455	202.3073	260.4896	328.9435	384.9411	496.5475	524.6719	614.81	667.4814	736.3861	754.6051	811.1595	877.6918	893.7739	934.4879	943.9583	972.4275	1009.2767	1047.9756	1078.989	1113.2382	1143.4134	1148.7022	1183.4364	1194.121	1222.0331	1254.5196	1266.821	1286.7669	1295.269	1310.4284	1331.2873	1357.6362	1381.2712	1411.6793	1482.2072	1490.8986	1495.0978	1497.8185	1516.9529	1815.1198	3012.5189	3029.5726	3035.5339	3040.9541	3056.5226	3071.4405	3100.9608	3104.6599	3107.87	3123.9449	3133.0275
CC1CC2CCN2C1=O	C[C@H]1C[C@H]2CCN2C1=O	
InChI=1S/C7H11NO/c1-5-4-6-2-3-8(6)7(5)9/h5-6H,2-4H2,1H3	InChI=1S/C7H11NO/c1-5-4-6-2-3-8(6)7(5)9/h5-6H,2-4H2,1H3/t5-,6+/m0/s1
