17
gdb 27270	3.20693	1.50912	1.04705	1.2799	75.58	-0.1625	0.0655	0.228	1098.1349	0.138863	-418.029322	-418.021362	-418.020418	-418.061464	30.724	
O	-0.089102725	 1.338619667	 0.2091709218	-0.433985
C	-0.0031793964	-0.0010939254	-0.0123874326	 0.235557
C	 0.0790251585	-0.7779823216	-1.1382492721	 0.114186
C	 0.2170739568	-0.7440867744	-2.6337732147	-0.370997
C	-0.0915855483	-2.2321825457	-2.9830955934	-0.155875
N	 0.3057486267	-3.0066047626	-1.7813042451	-0.409008
C	 0.1268199638	-2.1299180496	-0.6932616189	 0.288817
C	 0.0598019345	-2.1671088335	 0.6713654512	-0.261759
N	-0.0062123639	-0.8233824084	 1.0786853596	-0.302675
H	-0.0713063063	 1.7837854586	-0.6427857703	 0.305492
H	-0.4702496139	-0.0704365663	-3.1564430279	 0.09744
H	 1.2353480759	-0.4804222665	-2.9513723652	 0.109044
H	-1.1682326635	-2.3354609068	-3.1886644701	 0.092457
H	 0.4570117191	-2.5798015169	-3.8632753927	 0.10084
H	-0.1760246613	-3.8929784959	-1.7036829825	 0.225986
H	 0.0682676575	-2.9646169043	 1.3934074827	 0.105934
H	-0.1851563442	-0.502352148	 2.0134973904	 0.258547
153.0073	164.9042	207.8936	235.1948	265.8109	279.0668	417.1006	540.6497	559.0529	583.0507	591.0553	629.1649	678.1159	705.8639	775.4982	827.0851	881.3664	938.6925	1033.8552	1057.5381	1068.0496	1080.5995	1153.1739	1192.7707	1211.9495	1234.6541	1273.6215	1315.9192	1323.493	1358.0325	1413.1135	1440.0075	1494.5546	1515.6469	1545.1489	1620.0824	1684.9619	2977.7532	3004.2246	3058.9179	3078.2858	3280.2441	3560.7823	3690.4907	3853.3551
OC1=C2CCNC2=CN1	Oc1c2CCNc2c[nH]1	
InChI=1S/C6H8N2O/c9-6-4-1-2-7-5(4)3-8-6/h3,7-9H,1-2H2	InChI=1S/C6H8N2O/c9-6-4-1-2-7-5(4)3-8-6/h3,7-9H,1-2H2
