17
gdb 19010	5.26682	1.83313	1.62755	1.6932	73.58	-0.2096	0.0025	0.2121	838.5183	0.143737	-326.648852	-326.642506	-326.641561	-326.678993	25.696	
C	-0.0212711148	 1.4875240316	 0.0435976347	-0.510887
C	-0.035305103	-0.0000884626	-0.026340066	 0.343418
C	-0.0765535532	-0.8474269642	-1.0599351391	-0.211829
C	-0.0180495498	-2.2053011037	-0.4002804041	-0.021934
C	-0.8862140483	-2.1734606244	 0.8964976495	-0.062031
C	 0.1959710953	-3.0345876971	 1.5523780133	-0.18593
N	 1.0502772277	-2.0615912769	 0.7355844422	-0.146401
C	 0.0411478379	-0.9472135963	 1.1609593396	-0.08844
H	 0.8934647307	 1.8527882521	 0.5272958853	 0.135617
H	-0.0797557376	 1.9347544509	-0.9523639797	 0.128414
H	-0.8615259919	 1.8694897287	 0.6373830624	 0.128221
H	-0.1063383353	-0.6423217388	-2.1208385232	 0.104149
H	 0.0607374272	-3.1133881523	-0.9996872641	 0.069454
H	-1.9797024387	-2.2264159588	 0.9813458587	 0.059741
H	 0.3448191749	-2.9448608002	 2.6324235778	 0.095819
H	 0.2935310481	-4.075697933	 1.2307880685	 0.096489
H	 0.1794179208	-0.552579205	 2.1696530642	 0.066131
168.5696	187.3307	269.5762	443.3325	469.3397	531.7789	573.9071	716.6526	741.0751	775.0866	816.3445	853.5251	871.7149	911.3762	926.4858	977.7162	987.3051	1016.5409	1049.0063	1060.8764	1102.6565	1106.6671	1129.1858	1172.8938	1201.5442	1212.5207	1244.1797	1251.9784	1259.513	1324.8432	1331.4432	1413.9386	1478.1447	1486.1732	1528.6674	1696.3531	3014.7354	3017.6657	3047.4977	3063.3212	3100.7209	3105.1843	3111.4079	3112.7571	3231.6767
CC1=CC2C3CN2C13	CC1=C[C@@H]2[C@H]3CN2[C@@H]13	
InChI=1S/C7H9N/c1-4-2-6-5-3-8(6)7(4)5/h2,5-7H,3H2,1H3	InChI=1S/C7H9N/c1-4-2-6-5-3-8(6)7(4)5/h2,5-7H,3H2,1H3/t5-,6-,7+/m1/s1
