19
gdb 77728	2.68729	1.59975	1.48091	1.4904	74.13	-0.2278	0.0661	0.294	989.8756	0.160907	-422.980548	-422.972938	-422.971994	-423.012116	30.563	
O	-0.1903742155	 1.3393308559	-0.073837806	-0.430014
C	-0.1651083099	-0.0521644742	 0.033064602	 0.044302
C	-0.5386861555	-0.7581291449	 1.3106276974	 0.130329
C	-1.6196570737	 0.0109128833	 2.0980306372	-0.275149
C	-2.5479066858	-0.0155016126	 0.8441823322	-0.278406
C	-1.4629197048	-0.7861859564	 0.0659301855	 0.17622
C	-1.4649363316	-2.2212048252	-0.4014389497	-0.156582
O	-0.3191315514	-2.8234100283	 0.2254081598	-0.262074
C	-0.0603764447	-2.1794010368	 1.4851053941	-0.154683
H	 0.5705343499	 1.6864672278	 0.4036756483	 0.288137
H	 0.6184820561	-0.5480483506	-0.5406212337	 0.100524
H	-2.0143921899	-0.5721011955	 2.9331569208	 0.103557
H	-1.324888962	 0.996660731	 2.4663549825	 0.098632
H	-3.4488869254	-0.6139708028	 0.9962715548	 0.101863
H	-2.8281345213	 0.9512210128	 0.4220408256	 0.11651
H	-2.3990505009	-2.7157755803	-0.0900180593	 0.090388
H	-1.3356427342	-2.3733260748	-1.4779931421	 0.110686
H	 1.011540909	-2.3056238343	 1.6722197759	 0.105775
H	-0.6133654584	-2.6642495241	 2.3061122847	 0.089987
195.8964	197.9354	235.4706	250.18	305.8336	314.7237	371.3333	495.212	550.402	656.8664	692.6713	749.312	767.2508	796.1657	830.9812	901.8675	953.4949	954.9118	983.0803	1019.3705	1033.2012	1050.3774	1095.1256	1150.7213	1174.1496	1207.5659	1226.2201	1232.0553	1244.0292	1259.8178	1265.7387	1296.6598	1306.9587	1315.1786	1352.7495	1390.4665	1464.8447	1468.9754	1496.673	1509.6767	1519.7623	2969.8665	2977.2009	3058.9972	3059.8451	3067.2697	3069.6955	3102.7087	3106.7229	3127.2376	3806.4171
OC1C23CCC12COC3	O[C@H]1[C@@]23CC[C@@]12COC3	
InChI=1S/C7H10O2/c8-5-6-1-2-7(5,6)4-9-3-6/h5,8H,1-4H2	InChI=1S/C7H10O2/c8-5-6-1-2-7(5,6)4-9-3-6/h5,8H,1-4H2/t5-,6-,7+
