20
gdb 109056	3.44171	1.12849	0.91592	2.4479	81.93	-0.2093	0.024	0.2333	1296.075	0.172119	-403.122236	-403.113749	-403.112804	-403.155451	32.473	
O	 0.0756584151	 1.4144495344	 0.0190746124	-0.413091
C	 0.014190219	 0.0021910291	 0.0166977847	-0.162835
C	-1.4115102534	-0.4668675221	 0.0135593637	 0.273581
C	-2.458021252	 0.3573577587	-0.0543425142	-0.155934
C	-3.8423197211	-0.1714977222	 0.013357606	-0.053234
C	-4.5969561243	-0.605490054	-1.1987991631	-0.243581
N	-4.0762727392	-1.5962144617	-0.2539451254	-0.098769
C	-2.8937772523	-2.3612404486	-0.6889024088	-0.153355
C	-1.6345648774	-1.9616810211	 0.0892077356	-0.297341
H	 1.0004561729	 1.6743674238	-0.0040385993	 0.290365
H	 0.5296971687	-0.4205052512	-0.8653037522	 0.093301
H	 0.5249558945	-0.4249501809	 0.8991588374	 0.094805
H	-2.3131823363	 1.4314906844	-0.0961935713	 0.107117
H	-4.4321804166	 0.2109943763	 0.8477778603	 0.094104
H	-5.6795403055	-0.5111339253	-1.2381999385	 0.10888
H	-4.0918505271	-0.5089620302	-2.1583538512	 0.106612
H	-3.1114653157	-3.4256941778	-0.5441616115	 0.100347
H	-2.6973169565	-2.2141735326	-1.7602854022	 0.092256
H	-0.7731944065	-2.5040542594	-0.3200550718	 0.09722
H	-1.7238111963	-2.2767421696	 1.1380182493	 0.119553
83.1272	136.1084	160.3306	208.3374	228.8146	334.0207	378.1209	440.6106	485.4713	522.7191	546.7685	683.264	759.6388	782.5674	843.3279	861.3451	910.3042	968.9006	996.3171	1015.32	1047.5207	1067.7783	1083.1056	1102.0157	1105.9715	1119.9378	1155.1724	1180.684	1221.1907	1232.3464	1258.2087	1271.3586	1310.9168	1323.6305	1362.2159	1392.5415	1403.8104	1461.1875	1474.1389	1496.0115	1506.5232	1518.4716	1737.5895	2930.8515	2943.0374	2997.6141	3013.1715	3048.1585	3053.6163	3085.0302	3090.4569	3177.2844	3191.4949	3842.8328
OCC1=CC2CN2CC1	OCC1=C[C@H]2CN2CC1	
InChI=1S/C7H11NO/c9-5-6-1-2-8-4-7(8)3-6/h3,7,9H,1-2,4-5H2	InChI=1S/C7H11NO/c9-5-6-1-2-8-4-7(8)3-6/h3,7,9H,1-2,4-5H2/t7-,8?/m0/s1
