19
gdb 126435	2.08911	1.40877	0.90018	1.8623	78.03	-0.2266	0.0319	0.2585	1308.252	0.15988	-419.228803	-419.219307	-419.218363	-419.264522	33.798	
C	 0.0483758566	 1.5124191292	-0.0686173926	-0.373449
C	-0.0385309315	-0.0138274738	 0.1048258715	-0.287401
C	-1.4374759813	-0.5446376527	 0.0003070639	 0.257124
N	-2.1260699173	-0.8539997142	 1.0989173365	-0.294391
N	-3.3251341612	-1.266405309	 0.6449880409	-0.195083
C	-3.4231076779	-1.2337793144	-0.7054695741	-0.101295
C	-2.212766116	-0.7661846895	-1.1702917927	 0.15586
C	-1.831304645	-0.5520916492	-2.5996134584	-0.208626
O	-2.7778634477	-1.2209649867	-3.4227648281	-0.419659
H	 1.0841058936	 1.8570463186	 0.0142949283	 0.110315
H	-0.3319319817	 1.8267555811	-1.0463202195	 0.113829
H	-0.5442398821	 2.0210601347	 0.6974972589	 0.127615
H	 0.5957935379	-0.5006732726	-0.6471158209	 0.098226
H	 0.3584473516	-0.2944887652	 1.085076563	 0.118402
H	-4.0148209117	-1.5800105289	 1.3056341021	 0.270557
H	-4.3088631789	-1.5475943383	-1.2321333591	 0.144616
H	-1.8071357035	 0.5254583525	-2.8353126275	 0.098218
H	-0.8108359551	-0.9322610096	-2.7762749315	 0.09644
H	-2.5896298087	-0.9928664922	-4.3375358408	 0.288703
36.3792	41.4626	146.7185	170.0404	215.0751	229.9824	274.7539	309.4526	401.8653	487.4579	493.8729	623.2953	662.3625	728.8842	757.6246	788.2732	803.8435	956.6852	972.9683	1043.6731	1056.6071	1065.1402	1077.6566	1087.867	1158.2754	1213.7372	1234.3496	1248.3477	1280.2994	1322.3285	1352.3269	1404.2532	1415.3337	1450.3429	1473.5911	1480.4814	1495.4708	1501.8643	1518.0852	1522.8782	1613.4921	2948.6729	2962.6756	3023.0279	3034.3293	3080.5285	3103.9734	3113.8249	3279.1713	3681.0833	3834.3616
CCC1=NNC=C1CO	CCc1n[nH]cc1CO	
InChI=1S/C6H10N2O/c1-2-6-5(4-9)3-7-8-6/h3,9H,2,4H2,1H3,(H,7,8)	InChI=1S/C6H10N2O/c1-2-6-5(4-9)3-7-8-6/h3,9H,2,4H2,1H3,(H,7,8)
