14
gdb 51992	6.87308	0.67767	0.63175	3.3823	63.14	-0.2885	-0.045	0.2435	1642.9675	0.098141	-511.00043	-510.991237	-510.990293	-511.036188	30.145	
N	-0.1571642188	 1.1242434294	 0.0047643964	-0.408431
C	-0.1324339333	-0.1204495984	 0.1590188002	 0.119048
O	-1.2231575221	-0.8390604509	-0.2914373105	-0.203495
C	-1.2212574726	-2.1903346498	-0.1135800858	 0.455749
O	-0.3456965667	-2.8271189232	 0.3980586033	-0.31864
C	-2.5322277276	-2.7592710111	-0.6364251229	-0.227912
O	-2.4666751138	-4.1608067009	-0.7893247455	-0.163021
C	-2.5248069315	-4.9086418279	 0.3424037079	 0.19293
O	-2.4241240575	-6.094154905	 0.3226656782	-0.260376
H	 0.698156722	 1.5390872022	 0.3720038246	 0.248574
H	 0.634942338	-0.7534223898	 0.6038653307	 0.153804
H	-3.3361111882	-2.4520385502	 0.0470296551	 0.154025
H	-2.7554880741	-2.3347058885	-1.6165857783	 0.172471
H	-2.6972352039	-4.3019562158	 1.2508238167	 0.085275
38.3877	68.7123	105.5813	127.2431	155.889	186.3187	299.462	338.8735	388.7929	528.85	559.445	659.6486	772.6781	854.8198	946.1661	984.4507	1015.0596	1033.6414	1069.2256	1084.6366	1152.8697	1213.4421	1253.1758	1289.4587	1384.2059	1397.6353	1429.2049	1469.5119	1751.9187	1855.2831	1884.6797	2966.896	3026.3739	3128.6765	3146.214	3511.2996
N=COC(=O)COC=O	[NH][CH]OC(=O)COC=O	
InChI=1S/C4H5NO4/c5-2-9-4(7)1-8-3-6/h2-3,5H,1H2	InChI=1S/C4H5NO4/c5-2-9-4(7)1-8-3-6/h2-3,5H,1H2
