15
gdb 46641	2.47958	1.60892	1.43754	5.1074	70.73	-0.2698	-0.0029	0.2669	965.2783	0.114695	-416.825644	-416.818338	-416.817394	-416.857734	27.423	
N	-0.0894169743	 1.2371754131	 0.2804312206	-0.541684
C	-0.0183905937	 0.0137824568	-0.0134826383	 0.428323
O	 1.1262427931	-0.6581193975	-0.3526664844	-0.240178
C	 0.8338954377	-1.950863914	-0.9064267756	-0.110328
C	-0.6380277234	-2.2108029437	-0.6329424775	-0.094643
C	-1.0665747604	-2.1754463063	 0.8197728846	-0.199319
C	-0.1082809758	-2.2897366566	 1.8848843917	 0.317363
N	 0.6629160822	-2.4111678544	 2.738087391	-0.340786
C	-1.1723416524	-0.9278598749	-0.0603149588	-0.128842
H	 0.8267587834	 1.6816526513	 0.2056893945	 0.232503
H	 1.0278081007	-1.9304369286	-1.9846552457	 0.126864
H	 1.5029538607	-2.6770533517	-0.4357690596	 0.144616
H	-1.200929744	-2.8284295721	-1.3208126937	 0.122503
H	-2.0187023094	-2.6478229386	 1.037593845	 0.148186
H	-2.1564555943	-0.5259314627	-0.2542270639	 0.135421
95.722	128.1646	166.8773	271.7357	355.9864	430.145	518.4459	574.5036	664.4512	718.5346	743.8014	781.1641	808.6506	867.2646	897.9244	950.3595	966.4728	990.8075	998.3788	1052.0542	1083.2654	1108.3349	1127.2438	1179.0609	1231.7248	1266.9726	1339.5113	1345.3171	1378.0614	1424.3146	1515.6418	1784.8668	2357.1851	3043.0247	3094.7267	3171.0899	3200.7464	3228.7861	3484.167
N=C1OCC2C(C#N)C12	[NH][C]1OC[C@H]2[C@@H](C#N)[C@@H]12	
InChI=1S/C6H6N2O/c7-1-3-4-2-9-6(8)5(3)4/h3-5,8H,2H2	InChI=1S/C6H6N2O/c7-1-3-4-2-9-6(8)5(3)4/h3-5,8H,2H2/t3-,4+,5-/m1/s1
