23
gdb 100809	2.09149	1.0563	0.88181	4.3445	86.68	-0.2282	0.0287	0.2569	1473.5201	0.203656	-384.475122	-384.464026	-384.463082	-384.511653	39.767	
C	 0.3706831369	 1.8149384673	-0.2580701995	-0.381357
C	 0.2099391584	 0.3074366312	-0.0517261088	-0.18506
C	 0.58048925	-0.5326068289	-1.2869762925	 0.058804
C	 0.5699335425	-2.0393329427	-0.9669981069	-0.409277
N	-0.226165605	-0.1505910146	-2.4627190816	-0.052788
C	 0.4025918091	-0.444343768	-3.7422945615	-0.343298
C	-1.6100937813	-0.5952816051	-2.4179681778	-0.298678
C	-2.4664596575	 0.2128722843	-3.2990574224	 0.282544
N	-3.1452010831	 0.83430088	-3.9973513742	-0.310746
H	 1.4126684818	 2.0711875949	-0.4803842958	 0.111319
H	-0.2399674954	 2.1611636125	-1.0952964603	 0.135023
H	 0.0764985982	 2.3683262037	 0.6386769193	 0.111353
H	 0.8455439338	-0.0271644619	 0.7772090777	 0.098654
H	-0.8176294448	 0.0798009533	 0.2624052544	 0.093797
H	 1.6069856443	-0.2584776867	-1.5610148485	 0.082237
H	 1.3080560809	-2.2680704009	-0.1922834101	 0.120289
H	-0.4063675654	-2.3675971716	-0.5934133194	 0.115619
H	 0.8160868098	-2.6413017122	-1.847191313	 0.119595
H	 0.4991044543	-1.5247530199	-3.9551081686	 0.098403
H	-0.1846640404	 0.0028139288	-4.5500745579	 0.144875
H	 1.4010690208	 0.000138547	-3.7680852321	 0.126984
H	-1.7485016548	-1.6549607359	-2.7034847254	 0.129566
H	-1.9973400434	-0.4928025143	-1.4000957949	 0.152143
48.9698	69.9164	120.395	149.0112	194.9318	212.8777	228.2484	245.2025	260.5329	288.0243	384.9849	391.7146	410.134	488.237	515.0086	566.1331	756.2187	810.7386	864.3331	926.3191	959.7996	981.4567	992.5821	1020.1074	1045.4866	1111.3369	1122.8444	1152.9357	1160.1075	1203.5743	1245.3899	1297.3236	1315.7269	1325.2234	1378.9239	1384.0383	1398.9316	1408.8426	1414.4747	1464.2195	1469.9662	1487.4594	1490.5465	1493.3658	1499.2201	1499.92	1510.2041	1511.2334	2363.2216	2930.3695	2940.2012	3015.096	3027.47	3035.8357	3037.5826	3054.5299	3070.4552	3087.1529	3101.0668	3103.0564	3108.6402	3115.4089	3127.1818
CCC(C)N(C)CC#N	CC[C@@H](C)N(C)CC#N	
InChI=1S/C7H14N2/c1-4-7(2)9(3)6-5-8/h7H,4,6H2,1-3H3	InChI=1S/C7H14N2/c1-4-7(2)9(3)6-5-8/h7H,4,6H2,1-3H3/t7-/m1/s1
