15
gdb 15858	2.79847	1.98077	1.24698	5.8999	64.37	-0.2564	-0.0371	0.2193	948.2066	0.117817	-399.847124	-399.839264	-399.83832	-399.879674	27.702	
C	-0.0551152877	 1.567683421	 0.0513230642	-0.40388
C	 0.0164595674	 0.0496966418	 0.0010342395	 0.046104
C	 0.7052043471	-0.5850752404	-1.2421680563	-0.400469
C	 1.7491967455	-1.1616099959	-0.2703031717	 0.440719
O	 2.7219647698	-1.8452504913	-0.348223378	-0.308347
N	 1.0905032551	-0.5601376672	 0.8291021584	-0.130021
C	 1.2766605386	-0.5786263098	 2.1986966039	 0.150995
O	 2.1806194993	-1.1278235082	 2.7713751337	-0.268123
H	 0.9197493121	 2.0111476958	-0.1741834226	 0.133209
H	-0.7805691533	 1.9330145571	-0.6823601989	 0.133936
H	-0.3720837151	 1.9206200556	 1.0376127252	 0.131677
H	-0.9588751254	-0.3953531743	 0.2222276907	 0.103638
H	 0.1284613091	-1.3434114944	-1.7742983939	 0.144677
H	 1.1154827834	 0.1303395035	-1.9581099866	 0.142372
H	 0.4733950841	-0.0155016034	 2.7172417925	 0.083511
91.5754	117.4901	168.1339	209.0126	232.4166	299.4394	431.3115	491.3707	516.5587	547.9998	715.16	774.9645	878.4532	908.6902	1004.1903	1032.7802	1049.0556	1066.259	1111.1557	1146.0838	1189.9122	1233.1563	1274.4759	1356.2891	1380.5915	1414.5464	1434.5777	1457.6386	1489.2251	1496.2858	1808.9015	1918.6923	2919.9949	3037.9468	3056.6565	3085.4999	3109.8711	3116.4115	3143.022
CC1CC(=O)N1C=O	C[C@H]1CC(=O)N1C=O	
InChI=1S/C5H7NO2/c1-4-2-5(8)6(4)3-7/h3-4H,2H2,1H3	InChI=1S/C5H7NO2/c1-4-2-5(8)6(4)3-7/h3-4H,2H2,1H3/t4-/m0/s1
