19
gdb 53327	3.06731	0.95408	0.86911	1.3504	84.85	-0.2339	0.0531	0.287	1435.3879	0.157558	-385.83522	-385.825713	-385.824769	-385.870845	34.653	
C	 0.0158641891	 1.5352274308	-0.0578796322	-0.497483
C	 0.0268504043	 0.0802326911	 0.0001190495	 0.051776
C	 0.0467704387	-1.1243988471	 0.0441968408	 0.069134
C	 0.0394660996	-2.574137355	 0.1167977491	-0.23614
C	 0.189700404	-3.280141688	 1.5225324552	-0.241279
C	-1.122783742	-4.0274527597	 1.2729724248	-0.105415
C	-2.2429416431	-3.0241061948	 1.0770771502	-0.344869
C	-1.3059718876	-3.3186236574	-0.0562932015	 0.402629
O	-1.7199751564	-3.8609296379	-1.256867752	-0.461502
H	 0.6903118427	 1.9094041833	-0.8362793247	 0.146677
H	-0.986701807	 1.919599987	-0.2772977469	 0.14464
H	 0.3351448564	 1.9744410735	 0.8940164732	 0.146638
H	 0.7678644594	-2.9988744433	-0.5809443262	 0.105015
H	 1.0707825246	-3.9230514347	 1.5648335877	 0.108224
H	 0.1945290984	-2.6044336002	 2.3819665589	 0.10391
H	-1.3246357111	-5.0595526654	 1.5297022003	 0.094394
H	-3.2259707211	-3.4682549506	 0.9569679525	 0.112023
H	-2.2285802825	-2.0656771885	 1.591064795	 0.112996
H	-2.2599003564	-3.2059682731	-1.7134773037	 0.288632
24.0089	82.5275	86.0031	195.5963	250.5192	269.5441	313.1494	349.6987	393.8011	437.3868	479.4293	525.8382	629.9097	708.4627	753.2212	850.9813	883.2025	933.0475	942.6193	979.5003	1010.4045	1026.4976	1051.0148	1053.2194	1067.8364	1084.2484	1148.2776	1173.8139	1196.9493	1215.6651	1241.1837	1283.5467	1318.7966	1341.7352	1408.5025	1415.2608	1478.9986	1479.2597	1479.6854	1505.653	2361.5121	3024.0172	3057.5492	3062.0797	3083.0212	3084.0745	3107.2537	3120.2555	3193.6584	3206.0336	3791.4687
CC#CC1CC2CC12O	CC#C[C@H]1C[C@H]2C[C@@]12O	
InChI=1S/C8H10O/c1-2-3-6-4-7-5-8(6,7)9/h6-7,9H,4-5H2,1H3	InChI=1S/C8H10O/c1-2-3-6-4-7-5-8(6,7)9/h6-7,9H,4-5H2,1H3/t6-,7-,8+/m0/s1
