21
gdb 107302	2.747	1.23277	1.03092	1.3181	84.46	-0.2193	0.0245	0.2438	1262.1609	0.182622	-387.094313	-387.085391	-387.084447	-387.127646	34.678	
C	-0.0789058016	 1.4422732949	 0.0576761396	-0.487797
C	-0.0647820277	-0.0509603178	-0.0273815621	 0.313755
C	-0.0052420405	-0.8024789918	-1.1333874919	-0.179423
C	 0.0682255751	-2.2588063557	-0.8259899291	-0.119877
C	 1.2884414039	-2.704180765	-0.0414500889	-0.333317
C	 0.0241166822	-2.353689099	 0.6989328114	 0.316073
C	-0.7450716979	-3.4450971147	 1.40195735	-0.153497
O	-2.1379361695	-3.1739178356	 1.4881822823	-0.415557
C	-0.109898497	-0.9195653764	 1.2191202137	-0.379357
H	 0.7950879681	 1.8210357296	 0.6032509346	 0.123954
H	-0.0815008722	 1.9024175079	-0.9343721036	 0.121644
H	-0.9619742797	 1.7999234236	 0.6030673073	 0.124055
H	 0.0266590348	-0.4134946237	-2.1457396466	 0.085126
H	-0.4253442784	-2.9837373986	-1.4669287024	 0.078161
H	 1.5559890594	-3.7560325721	-0.0856140652	 0.10628
H	 2.1332039297	-2.0242319257	 0.0080098302	 0.108859
H	-0.5559812713	-4.4095234815	 0.903614784	 0.080593
H	-0.4077615559	-3.5473716028	 2.4403270171	 0.108601
H	-2.4510313116	-3.0107751414	 0.5918114514	 0.281688
H	 0.6846056715	-0.6566932963	 1.9304176073	 0.102721
H	-1.0621240214	-0.7971601177	 1.7528182011	 0.117315
106.8386	108.6201	177.9827	216.2652	243.6802	314.9599	340.2106	383.7175	402.816	485.2786	507.9287	557.0198	650.3766	750.1781	824.3373	853.367	867.3808	883.8201	928.1273	974.4437	985.9692	1002.5644	1013.0644	1046.6944	1063.2346	1073.5654	1074.1224	1098.148	1177.6144	1191.3484	1205.8508	1254.9485	1277.655	1315.722	1343.7782	1373.2821	1398.6943	1413.3109	1426.2963	1470.5081	1477.7095	1483.4437	1490.585	1502.736	1707.2869	2972.2167	3010.7397	3015.8952	3042.4969	3054.2683	3058.3972	3107.5757	3115.6276	3145.7649	3185.7608	3203.6708	3803.6878
CC1=CC2CC2(CO)C1	CC1=C[C@H]2C[C@@]2(CO)C1	
InChI=1S/C8H12O/c1-6-2-7-4-8(7,3-6)5-9/h2,7,9H,3-5H2,1H3	InChI=1S/C8H12O/c1-6-2-7-4-8(7,3-6)5-9/h2,7,9H,3-5H2,1H3/t7-,8+/m0/s1
