18
gdb 29284	3.91482	1.08095	0.90868	2.7059	81.27	-0.175	0.0416	0.2166	1297.064	0.150048	-398.158443	-398.150065	-398.149121	-398.191825	32.006	
N	-0.2149466192	 1.0651480467	-0.8954239387	-0.59896
C	-0.1675468901	-0.1724391667	-0.2459061199	 0.288088
C	-0.8816016933	-0.6142418254	 0.8410581258	-0.200678
N	-0.4860512266	-1.9389443306	 1.0019147265	-0.301531
C	 0.4194830051	-2.2249026713	 0.0328971332	 0.39073
N	 0.6347061953	-1.1720642908	-0.7375188431	-0.366322
C	 1.0588352921	-3.5432816949	-0.1094048743	-0.118104
C	 1.3745192768	-4.0679759741	-1.497199164	-0.254731
C	 2.4916269129	-3.6246017053	-0.6000937219	-0.255199
H	 0.6183362406	 1.2036219486	-1.4526842319	 0.245371
H	-0.3475195962	 1.845303488	-0.2660543854	 0.238376
H	-1.6083643096	-0.1491789211	 1.4838350093	 0.111142
H	-0.8128047741	-2.5702517124	 1.7130083627	 0.257026
H	 0.7535007958	-4.274948171	 0.632368218	 0.073171
H	 1.2406515841	-5.128649285	-1.6787914028	 0.109157
H	 1.1060542846	-3.4169068754	-2.3207038209	 0.13818
H	 2.9684219318	-2.6781515424	-0.8259991056	 0.135511
H	 3.13518418	-4.376721447	-0.1572450171	 0.108773
48.3475	144.1483	153.2037	212.8287	299.1874	362.5666	390.0127	443.9523	489.1747	611.5598	620.9998	667.0095	722.2309	740.9603	783.7961	798.0143	819.4719	910.5953	916.0247	1006.0646	1019.9	1066.3188	1088.0209	1088.8015	1100.8231	1120.4145	1136.5991	1206.8872	1217.7373	1238.9682	1303.2533	1388.199	1427.0577	1457.6312	1476.6905	1511.0179	1573.9872	1622.3362	1649.0457	3137.0789	3139.5156	3152.9728	3225.914	3240.2361	3282.7197	3542.5114	3638.2755	3670.5834
NC1=CNC(=N1)C1CC1	Nc1c[nH]c(n1)C1CC1	
InChI=1S/C6H9N3/c7-5-3-8-6(9-5)4-1-2-4/h3-4H,1-2,7H2,(H,8,9)	InChI=1S/C6H9N3/c7-5-3-8-6(9-5)4-1-2-4/h3-4H,1-2,7H2,(H,8,9)
