24
gdb 118123	3.32017	0.74023	0.6764	2.1717	86.76	-0.2426	0.0715	0.3141	1808.3836	0.215654	-405.530082	-405.51896	-405.518016	-405.567079	40.15	
C	-0.2703105868	 1.5458720446	 0.1746562247	-0.382453
C	-0.0340378341	 0.043224121	 0.0041030748	-0.165863
C	 0.5950833871	-0.6102429506	 1.2384113862	-0.186263
C	 0.9023030184	-2.1008981877	 1.0539294372	 0.127086
O	 1.7931011993	-2.3343707963	-0.038240103	-0.433765
C	 1.4444837756	-2.7158422155	 2.3288585906	-0.047947
N	 0.4611894498	-3.1105024747	 3.3524198078	-0.34246
C	 1.2879394124	-4.1463069949	 2.7031254591	 0.001141
C	 0.5809954856	-5.1791335502	 1.8591163085	-0.392559
H	 0.6702742379	 2.0773565787	 0.3597713465	 0.109088
H	-0.7265128623	 1.9819260913	-0.7196835578	 0.11111
H	-0.9351705131	 1.7511051837	 1.0212959493	 0.112557
H	-0.986798601	-0.4557146741	-0.2170310702	 0.095695
H	 0.6119878558	-0.1413782929	-0.8610687963	 0.105909
H	 1.5294024902	-0.0869174224	 1.4987986016	 0.072775
H	-0.0685737169	-0.5023116325	 2.1056399282	 0.109382
H	-0.0216991687	-2.6176587534	 0.7771502708	 0.091524
H	 2.6186222513	-1.8765821668	 0.1566045099	 0.273957
H	 2.3585213393	-2.2314920023	 2.6814384115	 0.065861
H	 0.8074313726	-2.9004286236	 4.2841895302	 0.228987
H	 2.1066378253	-4.5509491174	 3.2984534155	 0.078461
H	-0.2787571114	-4.7503060422	 1.340609836	 0.129101
H	 1.2616097311	-5.5986800521	 1.1111911608	 0.123799
H	 0.2148402725	-5.9990438998	 2.4863168082	 0.114877
40.8193	89.1271	98.3241	102.8557	160.0656	204.4767	223.9127	249.4104	273.5493	335.1138	384.989	401.0251	404.4536	528.2324	588.1384	750.2826	787.9774	836.9647	851.6302	909.542	915.0717	955.9687	979.5415	1013.8325	1037.3072	1051.6647	1086.7329	1091.7345	1115.8232	1125.1321	1158.7744	1193.6384	1240.5267	1251.6469	1274.1474	1289.3726	1297.2353	1331.9583	1355.6699	1393.5356	1402.7895	1411.386	1414.6758	1432.0801	1471.2742	1479.2284	1492.3736	1494.4208	1499.995	1504.042	1511.422	2982.3445	3024.088	3027.3696	3038.9223	3047.2589	3064.6872	3069.6663	3080.1065	3095.2574	3098.7426	3100.1659	3101.4565	3133.8892	3507.4741	3795.925
CCCC(O)C1NC1C	CCC[C@@H](O)[C@H]1N[C@H]1C	
InChI=1S/C7H15NO/c1-3-4-6(9)7-5(2)8-7/h5-9H,3-4H2,1-2H3	InChI=1S/C7H15NO/c1-3-4-6(9)7-5(2)8-7/h5-9H,3-4H2,1-2H3/t5-,6+,7-/m0/s1
