15
gdb 28982	3.07936	1.52524	1.02048	1.2789	86.83	-0.2092	-0.0339	0.1754	1097.6746	0.114281	-379.712178	-379.704453	-379.703509	-379.744055	30.298	
N	-0.0252849177	 1.3559708467	-0.1191657674	-0.581486
C	 0.0125803483	-0.0085948087	-0.0494915758	 0.334378
N	-1.1647310729	-0.6431810364	-0.0313252254	-0.333981
C	-1.1606093246	-1.9764021799	-0.0123069926	 0.000311
C	-0.0075807531	-2.7542181905	-0.003707956	-0.141441
C	 1.21638598	-2.0957609146	-0.0103280951	-0.160193
C	 1.257744839	-0.7013010857	-0.0325155165	 0.063007
C	 2.4788963043	 0.022558949	-0.0332023849	 0.194157
C	 3.4944203886	 0.6735123893	-0.025830172	-0.401993
H	 0.8064046904	 1.8672222938	 0.1268291803	 0.260576
H	-0.9130600638	 1.7796126593	 0.0960317872	 0.257888
H	-2.140568598	-2.4485374604	 0.0002270692	 0.107996
H	-0.0670657986	-3.8352916634	 0.013507156	 0.097609
H	 2.1495294903	-2.6481362315	 0.0034728897	 0.109762
H	 4.400472698	 1.2271633729	-0.0297885367	 0.193411
123.9495	145.5767	221.9389	378.692	388.3255	392.3961	464.6948	477.6902	523.6834	549.2913	564.3434	592.535	597.3237	659.7643	740.0812	791.6117	823.6654	896.5018	971.8205	979.5313	1032.4715	1097.3182	1150.4292	1213.1569	1291.795	1325.4782	1359.3094	1482.5443	1491.114	1595.9446	1616.634	1644.1733	2212.493	3150.5345	3190.6657	3211.6313	3500.7442	3594.0056	3719.7981
NC1=NC=CC=C1C#C	Nc1ncccc1C#C	
InChI=1S/C7H6N2/c1-2-6-4-3-5-9-7(6)8/h1,3-5H,(H2,8,9)	InChI=1S/C7H6N2/c1-2-6-4-3-5-9-7(6)8/h1,3-5H,(H2,8,9)
