18
gdb 108783	2.69569	1.21503	0.8605	5.6501	76.55	-0.233	-0.0237	0.2093	1306.3813	0.148902	-439.128863	-439.120173	-439.119229	-439.162497	32.08	
O	 0.0372381354	 1.4196784425	-0.131354541	-0.406807
C	 0.0004514644	 0.0147618795	-0.0216295974	-0.154128
C	-1.4158820169	-0.4755893773	 0.0594731783	 0.261006
C	-2.4743796383	 0.3415165653	 0.0811595572	-0.240392
C	-3.8698328915	-0.1602176496	 0.0856248754	 0.393273
O	-4.8355607554	 0.570984164	-0.0545653637	-0.380318
N	-4.0008443066	-1.5270154797	 0.218882004	-0.333539
C	-2.9228817107	-2.348436502	 0.7484001335	-0.169857
C	-1.6061070042	-1.973701598	 0.0668726218	-0.290053
H	 0.9566419399	 1.6986186532	-0.1513133981	 0.294219
H	 0.4893930088	-0.4760320412	-0.8833244429	 0.102045
H	 0.5420329177	-0.3375717666	 0.8751016153	 0.101839
H	-2.3625910368	 1.4168480614	 0.0412345739	 0.12811
H	-4.9524585602	-1.8274659027	 0.3727982265	 0.242883
H	-2.815593925	-2.2179561831	 1.837470234	 0.105648
H	-3.159990781	-3.4009418122	 0.5675490625	 0.112075
H	-1.6008135377	-2.342602911	-0.968727997	 0.127018
H	-0.7742063619	-2.4703270425	 0.5799495373	 0.106976
80.0024	140.1903	157.7449	189.7192	216.1949	245.8485	376.7801	427.7037	477.5066	493.5374	535.4967	586.3206	686.1977	741.6037	801.7681	902.5464	910.1271	934.3056	1003.3689	1019.9719	1079.069	1090.176	1123.1435	1155.4724	1212.0136	1228.2934	1260.7044	1262.609	1296.2699	1349.3875	1378.5648	1402.2771	1460.6816	1463.3326	1476.671	1500.3161	1515.4654	1709.6433	1781.3276	2934.3804	2947.9632	2970.0742	3011.0264	3060.268	3077.2521	3232.1622	3610.5016	3844.2834
OCC1=CC(=O)NCC1	OCC1=CC(=O)NCC1	
InChI=1S/C6H9NO2/c8-4-5-1-2-7-6(9)3-5/h3,8H,1-2,4H2,(H,7,9)	InChI=1S/C6H9NO2/c8-4-5-1-2-7-6(9)3-5/h3,8H,1-2,4H2,(H,7,9)
