16
gdb 94921	2.13907	1.8558	1.46193	3.8614	67.66	-0.2598	0.0134	0.2732	952.7804	0.125512	-437.877532	-437.869846	-437.868902	-437.909829	29.153	
O	 0.314953322	 1.155072129	-0.6133451579	-0.431459
C	 0.021420623	-0.0842338049	-0.0151395487	 0.09277
C	 0.4141646853	-0.1688857684	 1.4893332902	-0.132459
O	-0.6184909448	-0.8852072422	 2.1798773199	-0.248478
C	-1.7306791455	-1.0005473112	 1.3572859758	 0.10432
C	-2.4282974069	 0.2704183222	 0.8523374963	-0.249719
C	-2.0953358388	 1.5703514979	 1.3533013218	 0.308993
N	-1.8023306272	 2.6226500606	 1.7393133931	-0.357056
C	-1.4450411597	-0.5215614675	-0.021453459	-0.133617
H	-0.1145566931	 1.8546004197	-0.1047239852	 0.299736
H	 0.5862965968	-0.8186319746	-0.5970977937	 0.108303
H	 1.3552427397	-0.7009309393	 1.6516922115	 0.122738
H	 0.5100516329	 0.8415453861	 1.9009183625	 0.133147
H	-2.3510259812	-1.8547548389	 1.6023117454	 0.125948
H	-3.4748994182	 0.1555012001	 0.588973425	 0.141668
H	-1.8461203745	-0.9927309986	-0.9099251971	 0.115167
107.1347	126.1292	155.866	249.6313	360.7339	398.6907	429.1836	490.8758	586.0024	633.4802	706.0228	716.9075	743.6675	785.1027	874.3359	939.4813	965.7679	997.6604	1002.1611	1048.7213	1075.872	1106.9143	1124.2803	1155.1169	1196.5466	1218.7419	1283.8515	1304.3237	1318.9231	1351.4683	1380.3714	1415.9477	1447.4889	1518.9169	2337.8525	3049.6133	3066.8562	3101.1587	3164.4365	3184.7096	3196.7414	3775.8611
OC1COC2C(C#N)C12	O[C@H]1CO[C@H]2[C@@H](C#N)[C@@H]12	
InChI=1S/C6H7NO2/c7-1-3-5-4(8)2-9-6(3)5/h3-6,8H,2H2	InChI=1S/C6H7NO2/c7-1-3-5-4(8)2-9-6(3)5/h3-6,8H,2H2/t3-,4-,5-,6-/m0/s1
