22
gdb 63262	2.04996	1.4731	1.34777	3.7456	82.39	-0.2365	0.0435	0.2801	1154.9733	0.191268	-404.390784	-404.380225	-404.379281	-404.425949	39.521	
C	-0.0688960135	 1.5427528896	-0.0822099906	-0.426978
C	-0.0253028652	 0.0139487231	-0.0076728139	 0.306878
C	-1.4018905671	-0.5603804569	-0.3535049472	-0.427027
N	 1.0654434673	-0.5732487799	-0.812124746	-0.380748
C	 1.7535936716	-1.1384896533	 0.2271510552	 0.449162
O	 2.7689616735	-1.7837355427	 0.2856942987	-0.386981
C	 0.7179073305	-0.6200034128	 1.2596113441	 0.062983
C	 1.3183096048	 0.3604157755	 2.2691089196	-0.443926
C	-0.0110089796	-1.7478871547	 1.9927688686	-0.443838
H	 0.9177305555	 1.9874833186	 0.0581601644	 0.123137
H	-0.4423075284	 1.8611580147	-1.0619586849	 0.112618
H	-0.7453305869	 1.9525849748	 0.675094351	 0.121526
H	-1.7354413766	-0.1791564261	-1.3251727888	 0.112609
H	-1.3880224949	-1.6500551733	-0.4107984881	 0.123132
H	-2.1486296345	-0.2613515432	 0.3894762079	 0.121461
H	 1.2521806424	-0.5579239994	-1.8049744226	 0.238819
H	 1.9232179666	 1.1372984166	 1.7964523652	 0.12222
H	 0.5355205218	 0.8475408405	 2.8612071052	 0.113153
H	 1.9706789823	-0.1845814807	 2.9580179574	 0.133205
H	 0.679588532	-2.2308495673	 2.6906395499	 0.133129
H	-0.8581235874	-1.361732687	 2.5706226775	 0.113151
H	-0.3820618344	-2.521393486	 1.3168285074	 0.122316
34.0823	158.0977	173.2984	193.7758	206.3906	222.9419	266.0193	298.0345	311.4398	333.0569	370.1163	398.4007	414.403	489.3607	579.5425	617.8462	673.4679	744.5526	770.7392	863.9661	932.3468	961.1121	961.9743	995.5305	1001.0595	1021.0108	1126.0384	1155.2207	1175.515	1201.2447	1252.3323	1268.3473	1293.6057	1372.1649	1395.3289	1404.6207	1411.0776	1429.8763	1470.3494	1476.8646	1486.2173	1489.4233	1498.8989	1500.4908	1509.3316	1521.4813	1881.9503	3031.511	3035.2531	3036.0312	3041.2353	3091.9678	3098.9894	3100.8202	3105.4134	3118.3118	3120.8269	3134.5926	3135.988	3593.1183
CC1(C)NC(=O)C1(C)C	CC1(C)NC(=O)C1(C)C	
InChI=1S/C7H13NO/c1-6(2)5(9)8-7(6,3)4/h1-4H3,(H,8,9)	InChI=1S/C7H13NO/c1-6(2)5(9)8-7(6,3)4/h1-4H3,(H,8,9)
