20
gdb 100261	2.18569	1.4229	1.07709	6.2429	70.82	-0.2554	0.0173	0.2727	1189.1622	0.170961	-477.459333	-477.449726	-477.448782	-477.493363	36.174	
C	 0.0639648202	 1.5673048591	 0.0100026342	-0.423811
C	-0.0113088175	 0.0251208486	 0.0097409276	 0.052713
C	 0.6489258922	-0.5622146243	 1.2768983771	-0.21109
N	 2.078139708	-0.202689231	 1.3754123934	-0.532446
H	 2.1892604905	 0.7600992965	 1.6764133924	 0.25244
H	 2.5512617738	-0.7871452126	 2.0559061836	 0.25259
H	 2.310158791	-0.4459117851	-0.3123953001	 0.320341
C	-1.4958772597	-0.4235578757	-0.0034090847	-0.070088
O	-2.2355768192	 0.1152700621	-1.0688955803	-0.427176
C	 0.6722495329	-0.4891420726	-1.2800748971	 0.425313
O	 1.9943635136	-0.626431548	-1.2427761076	-0.377689
O	 0.0495009968	-0.7287098823	-2.2931059898	-0.363608
H	 1.0874908497	 1.9319776514	-0.1181963625	 0.116275
H	-0.5473467282	 1.9622412122	-0.8031385599	 0.156823
H	-0.3329668995	 1.9635733374	 0.9521086317	 0.112751
H	 0.0733711606	-0.2332244027	 2.1539582951	 0.109186
H	 0.5909558513	-1.655736133	 1.2450552933	 0.125663
H	-1.5298850006	-1.5259607178	-0.001702745	 0.087157
H	-1.9740104863	-0.0803980748	 0.9224520015	 0.095882
H	-1.7605028697	-0.1733088474	-1.8651379131	 0.298774
75.3389	153.0223	175.0854	210.3314	243.9342	269.1582	296.9649	315.5298	337.555	363.3384	411.4049	431.122	567.6222	621.9671	669.9514	767.7975	772.5762	854.6108	889.507	921.1041	969.9946	1011.3506	1025.9676	1047.5243	1097.2398	1108.9131	1172.3662	1193.9999	1229.8326	1270.9993	1291.9435	1358.3396	1389.1479	1399.4635	1425.3696	1470.1125	1491.114	1497.6297	1502.0166	1507.3528	1523.116	1649.6744	1808.0216	2962.2425	2997.5778	3031.7135	3045.8387	3070.578	3099.935	3124.5381	3140.7609	3511.6409	3590.6349	3678.1164
CC(C[NH3+])(CO)C([O-])=O	C[C@@](CN)(CO)C(=O)O	
InChI=1S/C5H11NO3/c1-5(2-6,3-7)4(8)9/h7H,2-3,6H2,1H3,(H,8,9)	InChI=1S/C5H11NO3/c1-5(2-6,3-7)4(8)9/h7H,2-3,6H2,1H3,(H,8,9)/t5-/m1/s1
