14
gdb 16940	3.80353	2.22846	2.02063	3.7223	55.45	-0.2638	0.0038	0.2676	709.5193	0.110102	-419.722311	-419.716645	-419.715701	-419.752074	22.349	
O	-0.0248447147	 0.0076802635	-0.0005493248	-0.339062
C	 0.0096651457	 1.2001100588	-0.0116269702	 0.461153
O	-1.0952252656	 2.0102823884	 0.0161648796	-0.242075
C	-0.5596014969	 3.3568935449	 0.0612358815	 0.190016
C	-0.0399566327	 3.5993735401	 1.4909928295	-0.239694
C	 1.2606324227	 2.7406638163	 1.4537564789	-0.236953
C	 1.1848349025	 2.1846522547	 0.0046672534	-0.095152
O	 0.6093272402	 3.2839030502	-0.7202385769	-0.239901
H	-1.2870806624	 4.0458160867	-0.3611683864	 0.113389
H	 0.1711161888	 4.6591753891	 1.6463553286	 0.121844
H	-0.7619522801	 3.2692910279	 2.2391534222	 0.129194
H	 2.1549506857	 3.3556550974	 1.565745013	 0.124837
H	 1.2846318162	 1.9485285168	 2.2042108742	 0.133441
H	 2.1015288807	 1.8299105252	-0.4565281626	 0.118963
158.7632	239.7793	411.3568	455.9956	555.5287	639.0549	705.8196	766.2996	833.5329	845.6642	861.1431	894.6116	907.1904	931.0707	978.889	1015.0361	1033.5891	1090.7422	1127.588	1167.1935	1220.074	1231.6234	1262.3604	1302.0872	1313.5634	1340.781	1365.9644	1479.1466	1498.5851	1910.784	3080.1471	3087.6691	3128.1887	3144.2781	3164.0161	3180.8573
O=C1OC2CCC1O2	O=C1O[C@H]2CC[C@@H]1O2	
InChI=1S/C5H6O3/c6-5-3-1-2-4(7-3)8-5/h3-4H,1-2H2	InChI=1S/C5H6O3/c6-5-3-1-2-4(7-3)8-5/h3-4H,1-2H2/t3-,4-/m0/s1
