17
gdb 57028	2.4382	1.31103	1.06952	4.2382	74.1	-0.2619	0.0046	0.2665	1179.7093	0.135691	-418.042025	-418.033019	-418.032074	-418.076864	31.785	
C	-0.0358029992	 1.641070102	 0.4209185864	-0.395029
C	-0.0571617593	 0.1600721164	 0.0074239285	-0.122645
C	 0.8062514084	-0.6580614725	 0.8898208161	 0.274601
N	 1.4686358272	-1.3208706674	 1.5660175703	-0.318799
N	-1.4026300971	-0.3772321897	-0.0294194653	-0.083524
C	-1.8917517731	-1.6406149315	-0.6047699323	-0.176781
C	-3.2307239947	-1.38495566	 0.1389788551	-0.366211
C	-2.5360164094	-0.14385988	 0.7384178116	 0.421792
O	-2.8085968016	 0.7023054824	 1.5453595088	-0.359667
H	 0.9936001645	 2.0062174938	 0.4179958071	 0.136918
H	-0.6238427618	 2.2218228963	-0.293135837	 0.137783
H	-0.4680455381	 1.7720758863	 1.4123467763	 0.176341
H	 0.3612666384	 0.0713523049	-1.0038921177	 0.13843
H	-1.936677643	-1.6366679449	-1.6980467623	 0.118554
H	-1.3395956526	-2.5210188456	-0.2601889019	 0.132978
H	-4.0885877567	-1.1582135687	-0.4957191172	 0.140038
H	-3.5085199117	-2.134270392	 0.8815330034	 0.145219
33.4934	73.9969	175.151	179.9231	212.1104	227.2454	286.0344	365.6571	443.804	540.6589	555.9385	585.6443	736.6004	777.8267	819.078	830.1307	941.6536	994.4604	1044.3459	1047.6149	1072.9749	1112.139	1156.8459	1176.4162	1191.2908	1233.3644	1269.3738	1320.5867	1347.4237	1408.0215	1417.3734	1460.7951	1486.094	1495.9397	1527.6126	1878.1295	2353.8252	3023.0777	3043.9463	3064.8243	3091.941	3094.0925	3140.3677	3152.6954	3170.8994
CC(C#N)N1CCC1=O	C[C@@H](C#N)N1CCC1=O	
InChI=1S/C6H8N2O/c1-5(4-7)8-3-2-6(8)9/h5H,2-3H2,1H3	InChI=1S/C6H8N2O/c1-5(4-7)8-3-2-6(8)9/h5H,2-3H2,1H3/t5-/m0/s1
