20
gdb 106876	2.85071	1.1551	0.98434	3.3022	81.74	-0.2446	-0.0266	0.2179	1287.7661	0.170052	-403.130842	-403.121695	-403.120751	-403.165021	33.892	
C	 0.0648775273	 1.461393546	-0.2896464395	-0.382184
C	 0.0048512146	 0.0081270096	 0.2037280012	-0.26882
C	-1.4031541245	-0.5177691799	 0.2271059904	 0.291617
C	-2.4976974811	-0.1302369562	 1.2411998492	-0.285958
C	-3.0439628254	-1.5934313839	 1.1976810594	-0.302004
C	-1.9585863594	-1.9526468341	 0.180354669	 0.175021
N	-1.9778627427	-1.0598455392	-0.9842368097	-0.390605
C	-1.2205899226	-3.2225454818	 0.09148823	 0.083973
O	-1.3702130963	-4.1420420192	 0.8623803882	-0.270692
H	 1.0953578191	 1.8280410505	-0.2953666497	 0.118782
H	-0.3294475366	 1.5408124455	-1.3073842726	 0.129339
H	-0.521832078	 2.1264237616	 0.3530518822	 0.118722
H	 0.6098272233	-0.6280825804	-0.4497377414	 0.113912
H	 0.432601378	-0.0612938258	 1.2112245741	 0.104282
H	-2.0970071635	 0.1365417341	 2.2218544024	 0.115218
H	-3.1745085784	 0.665323851	 0.9125099198	 0.102183
H	-2.9138738752	-2.1242757003	 2.1416202303	 0.133615
H	-4.073318181	-1.7330219435	 0.8527880886	 0.102885
H	-2.9190081738	-0.7231531153	-1.1822364219	 0.231538
H	-0.4910497839	-3.2657402985	-0.7459674201	 0.079176
72.1505	88.6007	155.536	198.7738	212.3996	235.6133	282.6571	355.2609	458.6338	474.7446	509.628	650.8995	734.6029	768.3981	789.0671	793.8343	805.6319	945.2354	969.8393	978.1267	1016.1978	1043.8571	1078.732	1080.8365	1103.5602	1133.7239	1150.5766	1207.3584	1223.3053	1243.2887	1253.7633	1318.0418	1337.7348	1369.815	1394.5826	1408.5794	1456.5011	1476.7665	1479.7784	1499.4096	1500.1395	1508.7749	1799.9787	2900.5743	3035.0531	3037.2833	3047.0367	3057.5352	3080.9276	3106.4501	3108.2246	3114.9142	3132.4644	3458.6428
CCC12CCC1(N2)C=O	CC[C@]12CC[C@]1(N2)C=O	
InChI=1S/C7H11NO/c1-2-6-3-4-7(6,5-9)8-6/h5,8H,2-4H2,1H3	InChI=1S/C7H11NO/c1-2-6-3-4-7(6,5-9)8-6/h5,8H,2-4H2,1H3/t6-,7-/m0/s1
