20
gdb 97452	3.80265	0.7892	0.68474	4.1075	80.27	-0.2383	0.0338	0.2721	1676.77	0.169385	-440.255299	-440.245494	-440.24455	-440.291723	33.842	
C	 0.3929185466	 0.4870128241	 0.6378636921	-0.312614
N	-0.0496913132	-0.0567147221	-0.628982599	-0.209082
C	 0.6715141384	-0.9398318984	-1.1570527113	 0.136133
O	 0.3260153795	-1.4730971884	-2.3535928631	-0.208863
C	 1.1581682875	-2.5131707713	-2.8513268076	-0.109153
C	 0.8129127883	-3.8655294081	-2.255849817	 0.152027
C	 1.707178105	-5.053941367	-2.6716149262	-0.301813
C	 2.0082710404	-5.1671336484	-1.1635603738	-0.058317
O	 1.2275263961	-3.9865736155	-0.8732491397	-0.292294
H	 1.3371272608	 0.0543507615	 1.0075996219	 0.095418
H	 0.5244440797	 1.5716568592	 0.547591198	 0.123524
H	-0.3790613184	 0.3236072898	 1.3986742222	 0.125988
H	 1.5999368236	-1.344182335	-0.7314329631	 0.08818
H	 0.9916717002	-2.5385503676	-3.9334556831	 0.120523
H	 2.2179251709	-2.2872630607	-2.6690157723	 0.105783
H	-0.2661254654	-4.0401114547	-2.3554413859	 0.094411
H	 1.1953943501	-5.9007967138	-3.1291896002	 0.119602
H	 2.5652118767	-4.7768659686	-3.2889026115	 0.11309
H	 1.5949532283	-6.0558765362	-0.6715659082	 0.109121
H	 3.0558661451	-5.0508111286	-0.8636146421	 0.108338
51.8176	55.2735	74.6199	93.1738	195.3932	213.7335	244.7548	302.3925	364.9588	416.6897	478.3376	602.2425	742.2404	813.9884	874.1686	901.1868	969.3764	971.5898	1007.4655	1036.0486	1050.8852	1071.3061	1102.7119	1141.4065	1146.3087	1157.3474	1169.3703	1211.4131	1223.2387	1257.4599	1284.6986	1312.0994	1345.5852	1379.8899	1400.0519	1420.7097	1449.6866	1481.0773	1483.1151	1490.2572	1504.8484	1531.5882	1778.1282	2966.9692	3010.1877	3021.2528	3028.5575	3032.0628	3055.607	3062.8935	3074.2395	3075.545	3085.3165	3136.3303
CN=COCC1CCO1	CN=COC[C@H]1CCO1	
InChI=1S/C6H11NO2/c1-7-5-8-4-6-2-3-9-6/h5-6H,2-4H2,1H3	InChI=1S/C6H11NO2/c1-7-5-8-4-6-2-3-9-6/h5-6H,2-4H2,1H3/t6-/m1/s1
