23
gdb 122151	2.19754	0.69184	0.55393	1.4209	78.99	-0.2547	0.0717	0.3264	1996.0297	0.203342	-462.544814	-462.533101	-462.532157	-462.582814	40.822	
O	 1.1713042199	-1.9033167755	-2.7940618857	-0.422666
C	 0.656409622	-1.6795354116	-1.4893053026	-0.073561
C	-0.7579182164	-2.2424462061	-1.437533545	-0.177551
C	-1.4119866299	-2.0597215178	-0.0637178898	-0.203515
C	-2.8650611243	-2.5544545746	 0.0346277566	 0.005174
C	-2.9620265446	-4.0803382164	 0.0434663591	-0.090166
O	-4.3355421428	-4.4420362656	-0.0375324649	-0.424395
C	-3.5607435589	-1.9709571001	 1.2754532761	-0.07948
O	-3.6168612522	-0.5499566066	 1.2652535277	-0.421352
H	 2.0602083107	-1.538891123	-2.8325741808	 0.284413
H	 1.2807796443	-2.1722528279	-0.7253655886	 0.081894
H	 0.6368428365	-0.6044177644	-1.2464112912	 0.085626
H	-1.3574060711	-1.7423166504	-2.2083483779	 0.104287
H	-0.7102982785	-3.3005970772	-1.7196398851	 0.104775
H	-0.8082438844	-2.5643722187	 0.7051407053	 0.087028
H	-1.4131369407	-0.9960699925	 0.1995511193	 0.114366
H	-3.4188595135	-2.2052949777	-0.8503194819	 0.07069
H	-2.3980569814	-4.4988845284	-0.8024467561	 0.091623
H	-2.5025376389	-4.4697677586	 0.9681068618	 0.084318
H	-4.3972025026	-5.4010167507	-0.011504561	 0.287568
H	-4.5600445576	-2.4114148625	 1.3754866109	 0.10924
H	-2.9901205432	-2.2350522675	 2.1746193014	 0.100632
H	-4.2193305323	-0.2888045962	 0.5614962626	 0.281049
58.0507	69.4749	83.5968	118.9172	135.6816	155.4434	210.6399	256.3824	260.2621	267.8779	290.732	311.5249	375.2659	473.0147	500.4258	547.4463	754.8003	836.7046	874.2259	907.2587	988.6969	1010.5702	1047.1866	1057.5372	1065.6717	1078.9357	1102.4368	1128.9487	1138.4416	1189.694	1208.6859	1242.6661	1261.2582	1269.5649	1308.1929	1311.616	1319.6065	1344.2454	1361.3429	1396.9909	1403.7909	1413.6746	1456.2259	1462.1032	1489.8506	1502.8227	1509.3214	1520.0636	1529.345	2957.1515	2957.2755	2983.0535	2991.3492	3003.2783	3010.9662	3023.6607	3033.3684	3059.5168	3068.3513	3082.012	3815.5417	3829.7164	3834.1644
OCCCC(CO)CO	OCCCC(CO)CO	
InChI=1S/C6H14O3/c7-3-1-2-6(4-8)5-9/h6-9H,1-5H2	InChI=1S/C6H14O3/c7-3-1-2-6(4-8)5-9/h6-9H,1-5H2
