18
gdb 133876	3.59419	2.11325	1.87425	1.5614	77.39	-0.2346	0.0878	0.3224	802.5517	0.152397	-364.732075	-364.726719	-364.725775	-364.761334	24.517	
C	-1.3899714335	 1.4649762298	 0.4829230776	-0.339328
C	-1.0118297733	 0.2118254737	 1.3514508739	-0.101598
C	-1.0305791571	-0.6563968004	 0.0498234287	-0.033313
C	 0.1612109316	-1.5787751516	-0.1232218494	-0.074065
C	 1.2370773747	-0.8009328285	 0.5306693469	-0.074066
C	 0.4889609164	 0.4422183921	 0.9733761547	-0.033313
C	-0.3263983118	 0.6819750288	-0.3355735061	 0.27673
C	 0.5971826826	 0.3791375754	-1.4949091165	-0.279604
N	 1.194464441	-0.8896709879	-0.9683211211	-0.143182
H	-1.0938761083	 2.4413020094	 0.875497525	 0.0974
H	-2.4051803059	 1.4932374757	 0.0785073502	 0.0974
H	-1.4246881846	-0.0402554211	 2.3305950331	 0.073076
H	-1.98401917	-0.9037004035	-0.4185427424	 0.066713
H	 0.1143694876	-2.6584232291	-0.1839380757	 0.090323
H	 2.1038369604	-1.2200521154	 1.0252272732	 0.090323
H	 1.033210871	 1.2777338803	 1.4152805516	 0.066713
H	 1.3927093826	 1.1122873436	-1.653277225	 0.109896
H	 0.0932881067	 0.1728123288	-2.4430500085	 0.109896
385.3611	416.8626	429.877	496.4705	658.1055	727.7758	744.4117	763.5412	769.6131	789.7007	823.5341	829.4099	881.4084	896.0159	949.2803	961.325	976.8797	983.8226	1014.5335	1027.0368	1040.9794	1053.9675	1064.6307	1091.9162	1131.9791	1136.221	1181.503	1197.9382	1199.3849	1213.9713	1214.9795	1257.058	1261.3643	1293.6176	1300.5809	1303.7561	1378.2764	1491.3751	1516.248	3052.6994	3060.5002	3085.8027	3107.3083	3111.8953	3113.5052	3116.5028	3190.5726	3201.1789
C1C2C3C4C5C2C13CN45	C1[C@H]2[C@@H]3[C@@H]4[C@@H]5[C@H]2[C@]13CN45	
InChI=1S/C8H9N/c1-3-4-6-7-5(3)8(1,4)2-9(6)7/h3-7H,1-2H2	InChI=1S/C8H9N/c1-3-4-6-7-5(3)8(1,4)2-9(6)7/h3-7H,1-2H2/t3-,4+,5-,6+,7-,8-,9?
