18
gdb 62274	3.27226	1.55476	1.34703	1.835	80.89	-0.2393	0.0428	0.2821	1002.5714	0.14683	-364.707805	-364.699968	-364.699024	-364.739633	31.496	
C	-0.0321484915	 1.550404204	-0.0005925359	-0.463508
C	 0.0402838445	 0.0262469674	-0.065553421	 0.121589
C	-1.2761318217	-0.5534791916	 0.1869084623	 0.326848
C	-2.374907426	-1.0069481258	 0.3648856682	-0.443264
C	 0.74429133	-0.7056844402	-1.2513365961	-0.101771
C	 2.1534346352	-0.0651466937	-1.303358682	-0.271752
C	 2.3434127136	-0.6556882967	 0.0929228486	-0.047803
C	 1.2977070067	-1.6776836178	-0.1398651688	-0.036834
N	 1.047294772	-0.6183758951	 0.8715969378	-0.159721
H	 0.9552759792	 2.0051991676	-0.0958254642	 0.122632
H	-0.6791099221	 1.9379712361	-0.7935518465	 0.126384
H	-0.4536385895	 1.8537584178	 0.9615994963	 0.13879
H	-3.3421326044	-1.4112818414	 0.5344833118	 0.192441
H	 0.1985744767	-0.9604568955	-2.1570948698	 0.082528
H	 2.789577279	-0.5914474994	-2.0202510469	 0.109618
H	 2.2401747426	 1.012745235	-1.4653703179	 0.09962
H	 3.2413403184	-0.7149585125	 0.6934779208	 0.101322
H	 1.226191847	-2.7393524179	 0.0510909534	 0.102881
143.5704	152.1729	178.2894	251.493	310.9717	451.9952	484.0309	505.3329	515.6682	624.5822	638.5925	649.4571	745.3591	783.8178	790.862	840.1372	868.7384	913.9585	925.8088	945.6319	974.3131	991.4165	1012.7401	1064.4129	1109.7978	1118.9137	1141.4117	1159.6547	1190.813	1206.3583	1229.0623	1257.9969	1286.3131	1331.2964	1404.1411	1481.2255	1486.4054	1515.7675	2235.7264	3048.06	3056.4969	3104.8592	3119.6682	3137.1759	3143.3944	3203.0105	3218.6018	3501.3891
CC1(C#C)C2CC3C2N13	C[C@@]1(C#C)[C@H]2C[C@@H]3[C@H]2N13	
InChI=1S/C8H9N/c1-3-8(2)5-4-6-7(5)9(6)8/h1,5-7H,4H2,2H3	InChI=1S/C8H9N/c1-3-8(2)5-4-6-7(5)9(6)8/h1,5-7H,4H2,2H3/t5-,6+,7-,8+,9?/m0/s1
