22
gdb 15265	3.53552	1.18865	1.06997	1.2983	78.79	-0.2441	0.0608	0.3049	1247.2647	0.198828	-350.195377	-350.185477	-350.184533	-350.230396	35.879	
C	-0.0186540434	 1.5548962494	-0.3713023323	-0.376579
C	 0.0152011053	 0.1406722078	 0.2211428069	-0.188536
C	-1.3457254441	-0.5275430261	 0.1777985047	-0.050837
C	-1.8065232883	-1.2806362109	-1.040830654	 0.076076
O	-0.8864205449	-1.3661101075	-2.0951190499	-0.417346
C	-1.5389689094	-2.034989613	 0.2479644466	-0.064457
C	-0.3849742224	-3.0123500571	 0.3563370241	-0.199466
C	-0.8052530942	-4.4475913415	 0.0134884835	-0.374574
H	 0.9627279755	 2.0354548024	-0.3050844819	 0.10548
H	-0.3108773538	 1.5236120537	-1.4253447123	 0.130009
H	-0.73730551	 2.1913046447	 0.1576074942	 0.10674
H	 0.7447808512	-0.4583315618	-0.3289136351	 0.111332
H	 0.3619921996	 0.1837360381	 1.2617914947	 0.089871
H	-2.1230031513	 0.0533081342	 0.6708137695	 0.077697
H	-2.8411475128	-1.1569280998	-1.360966707	 0.077881
H	-1.0026794907	-2.2195569851	-2.5254112102	 0.288655
H	-2.4301135401	-2.357715421	 0.7839121943	 0.074475
H	 0.4257788317	-2.7043998643	-0.3100865903	 0.108412
H	 0.0241107017	-2.9880158914	 1.3743756448	 0.096821
H	-1.6048632907	-4.7965388944	 0.6762792902	 0.114847
H	-1.1808690287	-4.5178448495	-1.0139070684	 0.102044
H	 0.0348478299	-5.1426147069	 0.1093352077	 0.111457
54.6287	67.3585	116.4726	169.1361	212.0109	254.9316	276.4541	290.083	300.6111	304.7609	533.2487	564.9884	592.7958	740.1235	770.2748	800.0524	814.6772	859.2277	949.6046	982.4464	1009.1674	1028.3131	1059.2944	1062.8219	1111.4475	1121.303	1154.9302	1187.3633	1191.7992	1251.4192	1286.4635	1293.093	1307.5113	1335.6854	1341.956	1396.7836	1405.2227	1409.224	1413.6857	1464.9959	1479.1893	1490.3023	1497.6942	1498.769	1504.5299	1507.2542	3022.1245	3025.0755	3027.8909	3030.058	3074.7968	3085.6602	3089.4185	3094.6962	3100.5618	3104.629	3110.5527	3113.5214	3127.7392	3804.7152
CCC1C(O)C1CC	CC[C@H]1[C@@H](O)[C@H]1CC	
InChI=1S/C7H14O/c1-3-5-6(4-2)7(5)8/h5-8H,3-4H2,1-2H3	InChI=1S/C7H14O/c1-3-5-6(4-2)7(5)8/h5-8H,3-4H2,1-2H3/t5-,6+,7-
