19
gdb 107937	4.01576	1.17841	1.09446	0.5329	74.6	-0.2166	0.0729	0.2895	1170.788	0.157739	-422.959795	-422.951406	-422.950462	-422.992535	32.914	
C	-0.1197855227	 1.5216949377	 0.0457385059	-0.383622
C	-0.0042090601	-0.0063324371	-0.01826344	-0.305551
C	 0.8034809121	-0.5662788295	 1.1151012514	 0.443209
C	 2.3197799687	-0.2788663562	 1.3386625727	-0.338239
C	 2.2792890189	-1.5390228452	 2.2040352831	 0.331452
O	 3.3285427481	-2.2959127742	 2.6759680044	-0.456407
C	 0.880191835	-1.5136945768	 2.8568148299	 0.018996
O	 0.2253588973	-0.317955658	 2.4461005598	-0.333484
C	 1.0572191424	-2.0810955232	 1.4860941683	-0.263844
H	 0.862148727	 1.9982194084	-0.0395315921	 0.119536
H	-0.7474213577	 1.8982647378	-0.7668826122	 0.113084
H	-0.564221025	 1.8329656972	 0.9949400102	 0.141074
H	-1.001937346	-0.4595010765	 0.0111896049	 0.110864
H	 0.4604288894	-0.3175096256	-0.9618778104	 0.102987
H	 2.900804283	-0.4464954585	 0.4277793764	 0.105916
H	 2.5739022955	 0.6829583115	 1.7959187885	 0.094127
H	 3.6558185469	-1.8912921837	 3.4874405452	 0.289349
H	 0.6333705085	-1.9701410734	 3.8068242266	 0.107297
H	 0.8215136487	-3.0272943646	 1.0195834074	 0.103257
80.0639	148.2738	194.335	253.7521	312.4155	316.4399	378.8383	395.0264	459.1946	535.1251	591.9972	658.2763	752.3625	774.0143	797.6153	828.9674	863.7201	918.5064	928.1966	956.2431	986.3423	1007.1559	1025.1957	1037.7309	1078.7336	1111.7641	1129.2091	1153.0967	1185.2069	1224.1923	1290.852	1293.683	1307.4507	1324.1569	1390.1017	1407.9172	1430.5225	1474.2725	1494.2199	1498.1631	1508.6091	3031.5647	3041.7395	3044.6242	3068.3912	3109.9299	3111.4966	3123.2881	3200.7066	3216.5824	3789.356
CCC12CC3(O)C(O1)C23	CC[C@@]12C[C@@]3(O)[C@@H](O1)[C@@H]23	
InChI=1S/C7H10O2/c1-2-6-3-7(8)4(6)5(7)9-6/h4-5,8H,2-3H2,1H3	InChI=1S/C7H10O2/c1-2-6-3-7(8)4(6)5(7)9-6/h4-5,8H,2-3H2,1H3/t4-,5-,6-,7-/m0/s1
