18
gdb 72550	2.38041	1.99513	1.49948	5.0088	70.44	-0.2365	0.015	0.2515	944.6931	0.1499	-439.127433	-439.120031	-439.119086	-439.158897	29.65	
C	 0.0102209429	 1.5057084411	 0.0593117925	-0.489808
C	 0.0311934688	 0.0000758089	-0.0327842748	 0.136904
C	 0.6633672846	-0.7158106012	-1.2482644283	-0.273472
C	 0.2826256592	-2.0906196579	-0.6843504116	 0.081488
C	 0.9225155695	-2.0627477167	 0.7130108158	-0.178466
N	 0.6802058964	-0.6584265214	 1.1418660622	-0.325258
O	-1.1520974754	-1.9526944992	-0.4797115573	-0.248154
C	-1.3609495707	-0.6609123409	-0.0709695016	 0.485597
O	-2.4370513404	-0.2163442315	 0.1913161468	-0.355275
H	 1.0275821685	 1.9099161486	 0.0986620375	 0.110594
H	-0.4969993761	 1.938822117	-0.8065163115	 0.133824
H	-0.5275920192	 1.8181289639	 0.9578241042	 0.150912
H	 0.1749554624	-0.5036841412	-2.2027291969	 0.11906
H	 1.7415191977	-0.5539652275	-1.3310816485	 0.102248
H	 0.4567997934	-2.9801399548	-1.2856610214	 0.097273
H	 0.4259620589	-2.7726614112	 1.381328513	 0.125739
H	 1.9883044938	-2.3126369724	 0.6694709683	 0.104363
H	 1.5582508656	-0.1863908936	 1.3307461516	 0.222432
153.7996	194.8716	226.1661	273.536	320.8385	412.5029	445.6431	521.3719	583.4567	635.2904	720.7768	741.072	748.7754	845.1322	875.3174	882.0913	905.8649	961.1928	968.9348	991.4001	1029.454	1056.5514	1084.5558	1112.7302	1160.2791	1189.7175	1213.2626	1237.323	1297.4234	1306.7095	1348.5167	1359.8647	1417.7214	1432.3554	1486.2331	1487.3227	1492.8383	1506.0924	1902.0557	3039.567	3041.7435	3062.805	3086.1204	3112.2199	3121.8688	3132.1133	3151.4975	3521.4301
CC12CC(CN1)OC2=O	C[C@@]12C[C@@H](CN1)OC2=O	
InChI=1S/C6H9NO2/c1-6-2-4(3-7-6)9-5(6)8/h4,7H,2-3H2,1H3	InChI=1S/C6H9NO2/c1-6-2-4(3-7-6)9-5(6)8/h4,7H,2-3H2,1H3/t4-,6-/m0/s1
