19
gdb 41905	2.23549	2.00205	1.77918	0.6772	69.47	-0.2507	0.0745	0.3252	907.9536	0.162656	-460.160067	-460.152978	-460.152033	-460.191402	28.536	
C	 0.0670567651	 1.4730966087	 0.1752127575	-0.081934
O	 1.3185084274	 2.033576198	-0.2220992113	-0.260413
C	 2.3623440039	 1.0931088167	-0.2696597901	 0.202294
C	 2.6390375672	 0.4274672325	 1.1000951807	-0.265693
C	 1.8637033299	-0.8742461501	 1.3020929236	-0.072389
O	 0.4564229839	-0.7467212725	 1.1447128328	-0.2715
C	 0.0247214064	-0.0499635521	-0.0182701772	 0.051053
C	 0.8094410946	-0.3996588544	-1.2867643286	-0.094079
O	 2.1413175531	 0.1184011346	-1.274494835	-0.269631
H	-0.1475034541	 1.7073432033	 1.226262711	 0.106183
H	-0.6971954525	 1.9485054566	-0.449605982	 0.110134
H	 3.237980416	 1.6579904943	-0.5985073095	 0.093076
H	 3.7069295246	 0.1897403629	 1.1612183623	 0.108781
H	 2.4205751616	 1.152322605	 1.8913334494	 0.115662
H	 2.2571495907	-1.6302513989	 0.6084022563	 0.105647
H	 2.00895889	-1.2508410858	 2.3187129728	 0.108814
H	-1.0176098297	-0.3565783761	-0.1553897207	 0.091344
H	 0.8702273996	-1.4856579458	-1.4171533992	 0.115729
H	 0.2684314224	 0.0169447233	-2.1480826429	 0.106923
105.8513	240.847	264.2712	311.4575	359.241	424.5613	471.4361	537.9153	561.1859	696.2645	770.0102	805.1161	858.7189	863.2763	919.8405	937.3225	970.2688	982.0247	1000.7346	1047.6369	1087.4838	1100.1703	1123.1677	1140.6821	1195.3141	1236.2546	1243.2615	1288.0306	1295.633	1326.1389	1347.6636	1366.4061	1370.9212	1387.5005	1409.2819	1413.4813	1421.4159	1470.7655	1499.6945	1505.342	1514.6717	3005.8633	3008.0301	3015.6482	3042.5819	3056.3765	3064.4669	3070.4953	3081.3992	3087.7704	3093.7268
C1OC2CCOC1CO2	C1O[C@H]2CCO[C@@H]1CO2	
InChI=1S/C6H10O3/c1-2-7-5-3-8-6(1)9-4-5/h5-6H,1-4H2	InChI=1S/C6H10O3/c1-2-7-5-3-8-6(1)9-4-5/h5-6H,1-4H2/t5-,6+
