20
gdb 88093	3.25419	1.25715	1.18001	2.0229	78.64	-0.2239	0.0765	0.3004	1135.0132	0.172236	-403.108383	-403.100376	-403.099432	-403.140688	32.06	
O	-0.1551489	 1.4276597469	-0.0495330356	-0.421076
C	-0.0716293942	 0.0311801853	-0.0252657803	 0.036847
C	-0.4428309582	-0.7243423421	 1.2290013808	-0.391454
C	-1.3713890397	-0.7088328934	 0.0280457044	 0.374663
C	-2.7137786314	 0.0211062111	 0.0657065648	-0.321916
C	-3.7363575707	-1.1267675624	-0.1239838631	-0.157378
N	-3.0653937747	-2.2445757835	-0.8205618492	-0.09946
C	-2.3550098828	-1.8392928089	-2.0411391282	-0.257193
C	-1.6160711195	-1.9708128209	-0.7565713749	-0.103396
H	 0.5878230945	 1.77906385	 0.4523827741	 0.288152
H	 0.7202633207	-0.3885255542	-0.6472858364	 0.084615
H	 0.0968316291	-1.6370438786	 1.4639370374	 0.110011
H	-0.7404586845	-0.1325674307	 2.0888279339	 0.112762
H	-2.8738571644	 0.5683989243	 0.9965360586	 0.105728
H	-2.7717589853	 0.7547075804	-0.7437763292	 0.118261
H	-4.0663751005	-1.5101729352	 0.8474160649	 0.107489
H	-4.6277632264	-0.8182680273	-0.6788083523	 0.103714
H	-2.2756650022	-2.6181289825	-2.7942194636	 0.112894
H	-2.515803761	-0.8409055856	-2.44157311	 0.111694
H	-0.9633010088	-2.8228046628	-0.584118066	 0.085043
101.1403	155.4415	203.4167	291.5943	295.2566	371.5008	392.6196	456.4289	481.9232	591.4568	651.4663	712.4813	782.3294	827.4659	839.0976	869.281	913.094	931.6081	952.4016	979.423	1007.2203	1019.7999	1047.8322	1091.2325	1095.7494	1106.5785	1109.5859	1157.9757	1172.5724	1200.139	1235.4234	1259.7876	1267.3902	1282.1896	1307.2029	1321.4815	1347.3406	1390.3484	1432.961	1489.3845	1491.739	1499.258	1518.9428	3043.0295	3061.8512	3086.7392	3088.0811	3104.1964	3111.6812	3118.7773	3135.6206	3188.273	3209.9108	3803.1787
OC1CC11CCN2CC12	O[C@H]1C[C@]21CCN1C[C@@H]21	
InChI=1S/C7H11NO/c9-6-3-7(6)1-2-8-4-5(7)8/h5-6,9H,1-4H2	InChI=1S/C7H11NO/c9-6-3-7(6)1-2-8-4-5(7)8/h5-6,9H,1-4H2/t5-,6-,7+,8?/m0/s1
