21
gdb 78207	2.22901	1.51717	1.35252	3.0565	83.07	-0.2317	-0.0096	0.2222	1118.996	0.180788	-387.090156	-387.080707	-387.079762	-387.123729	36.042	
C	-0.4845047088	 1.291862702	 0.2295948393	-0.423716
C	-0.1863024442	-0.1771155568	 0.4666499305	-0.023082
C	 1.0237107075	-0.9080831706	-0.1014909158	-0.203492
C	 0.7734082503	-0.8008706487	 1.4297703743	-0.099119
C	 2.0921217282	-0.0205534029	 1.6364032195	 0.17337
C	 2.0964024251	 1.3113203763	 2.3837551629	-0.457124
C	 3.1811305884	-0.9470670113	 2.2102600148	-0.422466
C	 2.2538039062	-0.0628803804	 0.0852383028	 0.38072
O	 3.1322568533	 0.305753013	-0.6440141147	-0.334433
H	 0.4181908689	 1.8958489095	 0.1228681499	 0.138172
H	-1.0568676129	 1.4042287127	-0.6973160858	 0.122074
H	-1.0856469013	 1.7113936899	 1.0436847854	 0.121217
H	-1.0774354216	-0.7949008745	 0.3595919174	 0.097827
H	 0.9186182607	-1.7426571435	-0.7841219912	 0.105494
H	 0.4644467411	-1.614421122	 2.0763764753	 0.092728
H	 1.9864784642	 1.1452501877	 3.4615527223	 0.114457
H	 3.0497311113	 1.8265643472	 2.2242461721	 0.130359
H	 1.2954609135	 1.9805755466	 2.0684929078	 0.12054
H	 3.2031232551	-1.9127252741	 1.6952891894	 0.119503
H	 4.1667155962	-0.4847223442	 2.1049053175	 0.132606
H	 2.9996846288	-1.133746806	 3.2744410363	 0.114364
109.3665	153.8219	158.8398	178.421	231.9855	253.687	287.7743	296.3119	350.3789	386.3367	486.159	579.96	644.9237	659.9843	717.3377	770.0523	821.887	881.2717	905.461	940.2113	954.7036	982.9521	990.9068	1015.5764	1048.6885	1067.5141	1093.5978	1123.4964	1189.1678	1205.446	1212.6594	1246.9092	1293.2203	1341.5186	1395.1068	1415.3047	1419.9278	1435.6529	1481.8481	1483.5145	1495.5641	1500.0209	1505.7199	1513.987	1872.3849	3029.9865	3035.7398	3036.976	3093.5393	3093.6715	3099.3797	3110.5794	3114.6446	3131.7987	3144.2509	3176.0316	3190.4582
CC1C2C1C(C)(C)C2=O	C[C@H]1[C@@H]2[C@H]1C(C)(C)C2=O	
InChI=1S/C8H12O/c1-4-5-6(4)8(2,3)7(5)9/h4-6H,1-3H3	InChI=1S/C8H12O/c1-4-5-6(4)8(2,3)7(5)9/h4-6H,1-3H3/t4-,5+,6-/m0/s1
