15
gdb 132626	3.19503	1.34399	0.94778	3.9215	74.02	-0.197	-0.01	0.187	1147.9519	0.114186	-458.15443	-458.14661	-458.145666	-458.186317	30.743	
N	-0.0147701211	 1.4106935123	 0.1710039979	-0.595198
C	 0.0122822136	 0.0179627108	 0.0489154723	 0.28847
C	-1.1664222447	-0.7325641333	 0.0439051993	-0.089694
N	-1.1692698755	-2.0701511487	-0.0031097441	-0.309886
C	-0.0272182271	-2.6878783536	-0.0538793143	 0.274526
F	-0.0423269887	-4.0345921452	-0.0955912299	-0.098686
C	 1.2341688537	-2.068343881	-0.0648696923	 0.174523
N	 2.389341137	-2.8303095786	-0.183731009	-0.598213
C	 1.2273956979	-0.6781789523	-0.0070452146	-0.230121
H	 0.7657530487	 1.8840247952	-0.261739592	 0.246582
H	-0.888877042	 1.8301552933	-0.1134763422	 0.249006
H	-2.1354960694	-0.2421624443	 0.0863105927	 0.094503
H	 2.2662898238	-3.7985279846	 0.0733032684	 0.259426
H	 3.2196909799	-2.423444952	 0.2204896308	 0.249938
H	 2.168157244	-0.1343873981	-0.0043039332	 0.084824
145.5321	222.4827	268.6958	292.5291	326.3564	335.3119	397.0846	473.6895	483.561	507.1484	583.0152	610.2247	624.7602	671.2488	744.958	756.7475	796.5049	872.5992	880.4641	1007.0742	1092.4157	1124.9573	1215.9432	1271.1211	1302.9283	1345.8684	1385.8922	1499.1738	1528.2882	1624.7643	1636.7451	1660.1175	1663.3028	3155.8232	3162.8926	3556.3845	3569.7867	3651.3888	3674.2175
NC1=CN=C(F)C(N)=C1	Nc1cnc(F)c(N)c1	
InChI=1S/C5H6FN3/c6-5-4(8)1-3(7)2-9-5/h1-2H,7-8H2	InChI=1S/C5H6FN3/c6-5-4(8)1-3(7)2-9-5/h1-2H,7-8H2
