17
gdb 35403	3.01334	1.59414	1.31247	4.5294	74.97	-0.24	0.0193	0.2593	984.968	0.137907	-380.807282	-380.800207	-380.799263	-380.838736	28.146	
N	-0.3758259095	-1.1706602215	-0.4188346552	-0.337985
C	-0.2151743477	-0.0408931392	-0.2292628684	 0.294662
C	-0.025105017	 1.3763298199	 0.0226411425	-0.172419
C	-0.2555449196	 1.9390210545	 1.4766599515	-0.277332
C	 1.1414558392	 2.6203879047	 1.4178570193	-0.033846
C	 2.3574744385	 1.8216119658	 1.9166008981	-0.031591
C	 2.260372867	 0.376614008	 1.661011453	-0.249422
N	 2.6286522729	 1.2409339887	 0.5208911084	-0.147244
C	 1.4177718774	 2.0006643822	 0.0322214416	 0.015456
H	-0.6364921253	 1.9273797571	-0.69809848	 0.133184
H	-1.0954994055	 2.6335532483	 1.5260721695	 0.121005
H	-0.3810686381	 1.1833970727	 2.2537484441	 0.127665
H	 1.1860617729	 3.6943469334	 1.587827462	 0.086232
H	 3.1627855931	 2.2519767744	 2.5034243825	 0.103304
H	 3.1015066699	-0.2329832333	 1.9775453418	 0.132373
H	 1.3145505149	-0.1524062165	 1.6764744641	 0.137815
H	 1.6817710271	 2.5811251108	-0.8507887748	 0.098142
120.5189	142.4975	261.1836	314.9933	364.7568	480.2158	535.9038	589.116	670.3385	700.3021	718.8556	736.9534	865.4396	872.5654	881.8535	913.0624	957.3095	1005.1541	1016.902	1051.8837	1063.7692	1073.5981	1112.0829	1116.8086	1144.895	1168.8336	1215.0447	1231.3579	1238.9822	1266.4852	1296.2941	1318.5226	1335.376	1368.8069	1479.8734	1511.1117	2348.7792	3066.6618	3080.2248	3116.82	3128.3888	3133.8148	3139.7514	3161.8769	3216.4189
N#CC1CC2C3CN3C12	N#C[C@H]1C[C@H]2[C@H]3CN3[C@@H]12	
InChI=1S/C7H8N2/c8-2-4-1-5-6-3-9(6)7(4)5/h4-7H,1,3H2	InChI=1S/C7H8N2/c8-2-4-1-5-6-3-9(6)7(4)5/h4-7H,1,3H2/t4-,5+,6-,7+,9?/m1/s1
