19
gdb 60028	2.21975	1.09885	0.78835	2.701	79.65	-0.25	-0.0357	0.2143	1466.9683	0.153643	-422.989583	-422.97878	-422.977836	-423.026737	37.671	
C	-0.6737174011	 1.5163785811	 0.336172729	-0.391477
C	-0.0115240956	 0.1425119631	 0.2250897099	 0.149506
C	 0.7648738584	-0.2331111182	 1.4812819148	-0.392281
O	-0.9713249197	-0.9052880117	 0.0295181363	-0.259478
C	-1.5375056986	-1.0067238271	-1.2623703637	-0.143179
C	-1.7865523463	-2.5126337845	-1.4752125076	 0.162202
O	-1.594435281	-3.0864766038	-2.5097431938	-0.235751
C	-2.8132042286	-0.2999136367	-1.4092922303	 0.332512
C	-3.8939412383	 0.2129919624	-1.530993137	-0.464817
H	 0.0867462293	 2.2862068506	 0.5022568205	 0.114573
H	-1.2253009127	 1.7735998299	-0.5712451279	 0.128349
H	-1.3746713992	 1.5322402088	 1.1765085429	 0.126403
H	 0.6753103583	 0.1427433248	-0.6371075804	 0.074961
H	 0.0957260956	-0.2621464523	 2.3468532428	 0.127661
H	 1.2253216223	-1.2179377794	 1.3689873005	 0.123977
H	 1.5511981826	 0.5015313108	 1.6772249365	 0.117696
H	-0.8324460435	-0.6784299502	-2.039355547	 0.117386
H	-2.1526274484	-3.0167004504	-0.5565078182	 0.103218
H	-4.8388677532	 0.686098683	-1.6408676173	 0.208538
30.8481	54.422	86.9838	148.5102	166.3151	204.9097	225.6361	261.6725	295.7731	343.5457	426.4747	433.7006	496.0826	507.3987	620.6948	639.7833	677.3631	823.5713	908.7636	929.9087	936.5999	946.464	1039.1945	1061.4544	1094.2571	1148.3085	1167.2065	1200.7695	1254.5647	1325.182	1367.0347	1389.3191	1398.9145	1403.8392	1418.2023	1478.7581	1484.7357	1493.8295	1508.9456	1847.8774	2225.3869	2922.5644	2968.3226	3009.6825	3040.1548	3045.3912	3111.132	3119.2905	3124.9568	3126.2024	3500.6038
CC(C)OC(C=O)C#C	CC(C)O[C@@H](C=O)C#C	
InChI=1S/C7H10O2/c1-4-7(5-8)9-6(2)3/h1,5-7H,2-3H3	InChI=1S/C7H10O2/c1-4-7(5-8)9-6(2)3/h1,5-7H,2-3H3/t7-/m1/s1
