15
gdb 127893	1.56237	1.09375	0.6547	2.3445	72.72	-0.2496	-0.0271	0.2225	1639.222	0.105578	-450.194637	-450.182013	-450.181069	-450.238512	36.248	
C	-0.0390429001	 1.286777109	 0.1001070029	-0.329257
N	-0.3615087389	-0.0085430059	-0.431767242	-0.285243
C	 0.1288143221	-1.0844111328	-0.5987629443	 0.529179
N	 1.9505155035	 1.0985404177	-2.9918160826	-0.011257
N	 2.4113479376	 0.9648297934	-3.9798390129	 0.01127
O	 1.7331800386	-2.0185273019	-2.6508008395	-0.312796
C	 1.250563525	-2.7375776834	-1.8071934393	 0.358022
C	 1.421219223	-4.2367421307	-1.7768141384	-0.464692
N	 0.468627007	-2.2712008059	-0.7246932826	-0.39759
H	 0.5048416246	 1.8666066178	-0.6510915066	 0.167061
H	-0.9619205515	 1.8154655936	 0.3477995643	 0.150597
H	 0.5764583441	 1.2057646334	 1.0018294924	 0.148056
H	 1.8836106595	-4.5375817755	-0.8315759093	 0.147864
H	 0.4411278257	-4.7222725762	-1.8182138156	 0.148457
H	 2.0360771399	-4.5587044425	-2.6166963465	 0.14033
14.0182	34.602	47.7155	53.5297	57.2504	64.8471	76.456	98.7774	117.6666	159.3313	183.9257	373.4739	521.0243	575.4904	636.8169	643.8454	809.1639	923.282	1010.9624	1053.4172	1133.8661	1155.0001	1210.9577	1389.3175	1454.0893	1464.639	1472.1677	1483.0898	1497.5402	1512.7335	1781.1871	2298.4465	2434.7053	3038.2236	3049.6877	3110.2074	3112.0654	3125.2546	3164.5458	14.0184	34.6008	47.7151	53.5294	57.2501	64.844	76.4558	98.7774	117.6668	159.3313	183.9257	373.4739	521.0244	575.4903	636.8169	643.8454	809.164	923.282	1010.9622	1053.417	1133.866	1155.0001	1210.9575	1389.3174	1454.0893	1464.6388	1472.1675	1483.0899	1497.5404	1512.7336	1781.1866	2298.4464	2434.7052	3038.2237	3049.6878	3110.2074	3112.0654	3125.2546	3164.5458
CN=C1N=NOC(C)=N1	C[N][C][N]C(=O)C.N#N	
InChI=1S/C4H6N4O/c1-3-6-4(5-2)7-8-9-3/h1-2H3	InChI=1S/C4H6N2O.N2/c1-4(7)6-3-5-2;1-2/h1-2H3;
