20
gdb 85630	3.24789	1.04866	0.86772	4.6918	88.19	-0.2586	-0.0391	0.2195	1369.082	0.171524	-366.056279	-366.047234	-366.046289	-366.089927	34.115	
C	-0.80985424	 1.2434490615	 0.0063235504	-0.415264
C	 0.0949065603	 0.0147595687	-0.0591176184	 0.019229
C	 1.2646229565	 0.1359357704	-1.0688077556	-0.323962
C	 2.3065155518	-0.798041363	-0.4788246824	 0.198671
C	 2.019038482	-1.1195161666	 0.7900931204	-0.151953
C	 0.7682012981	-0.4319486524	 1.2803376873	-0.044707
C	 1.1229654077	 0.7033965034	 2.2606493021	-0.393114
C	 3.4528791435	-1.227623323	-1.2010034132	 0.194573
N	 4.3748090639	-1.5617713701	-1.8183822451	-0.338242
H	-0.2575598183	 2.140124018	 0.3048339696	 0.121192
H	-1.2579322242	 1.4430801191	-0.9725650792	 0.119339
H	-1.6285405812	 1.099831174	 0.7193506476	 0.117518
H	-0.5114507253	-0.8379376089	-0.3881556219	 0.086776
H	 0.9730229194	-0.1436884712	-2.0856574756	 0.122733
H	 1.658920089	 1.1597093028	-1.1254693695	 0.119348
H	 2.6388075169	-1.7459671408	 1.4217367346	 0.117188
H	 0.1171874695	-1.1368789622	 1.8121965952	 0.083802
H	 1.7587291843	 1.4583752399	 1.7873087776	 0.123777
H	 0.221570165	 1.1985894785	 2.6330171209	 0.123051
H	 1.6670288512	 0.3078812221	 3.1241736949	 0.120047
96.8208	110.5859	148.0123	236.0963	245.7554	272.6357	294.9618	336.5969	446.0327	471.0767	524.0472	571.97	580.6698	661.7002	749.2524	867.3127	894.4711	908.9077	930.5255	952.8949	997.0126	1026.5373	1081.8467	1088.4669	1125.9572	1147.3091	1184.7927	1214.3459	1275.9181	1302.4159	1314.0402	1340.9041	1358.4747	1373.7111	1404.2252	1415.5	1489.0623	1490.5478	1494.3315	1503.9606	1506.5287	1673.5786	2335.7422	3014.2653	3021.8734	3032.3973	3033.7626	3037.3984	3080.6826	3098.5529	3102.5559	3107.4549	3113.5196	3202.4782
CC1CC(=CC1C)C#N	C[C@H]1CC(=C[C@H]1C)C#N	
InChI=1S/C8H11N/c1-6-3-8(5-9)4-7(6)2/h3,6-7H,4H2,1-2H3	InChI=1S/C8H11N/c1-6-3-8(5-9)4-7(6)2/h3,6-7H,4H2,1-2H3/t6-,7+/m1/s1
