18
gdb 5637	3.16065	1.91649	1.31994	3.8212	73.85	-0.2099	0.0359	0.2458	967.1907	0.154956	-344.035469	-344.027302	-344.026358	-344.068408	29.636	
C	-0.1256573609	 1.5874691916	-0.0479399583	-0.373541
C	 0.0492179049	 0.0671283097	-0.0000367442	-0.162893
N	 0.7103300052	-0.4699299922	-1.1797139957	-0.015913
C	 0.0926549841	-0.7877760579	-2.3739994921	-0.136155
C	 1.0937933892	-1.190280496	-3.2132581734	-0.102469
N	 2.3100394169	-1.126932336	-2.5755065661	-0.307947
C	 2.053103089	-0.6887687391	-1.3592457367	 0.335308
C	 3.0789723477	-0.4656938888	-0.2975453224	-0.504624
H	 0.8427556476	 2.0915986825	-0.1146619577	 0.132846
H	-0.7210191079	 1.8829679125	-0.9165519022	 0.13272
H	-0.6349038697	 1.9389838868	 0.8547324597	 0.121951
H	 0.6344334095	-0.221003831	 0.877704775	 0.124749
H	-0.9244713396	-0.4242710618	 0.0933139914	 0.123178
H	-0.9753359089	-0.7038373601	-2.494198571	 0.117376
H	 1.0099819589	-1.5280897433	-4.2351295463	 0.102001
H	 3.1231891983	 0.5795410222	 0.0304613717	 0.127985
H	 2.8983321002	-1.0816444006	 0.5916584676	 0.129405
H	 4.0523826455	-0.7364665484	-0.7081586793	 0.156023
57.9786	119.6367	139.3975	213.5093	249.2348	294.8335	390.6421	431.4441	632.4421	651.4033	691.0057	716.1396	730.2943	795.1329	845.0199	930.5896	964.5901	996.6059	1061.6006	1080.833	1101.4942	1113.5443	1177.3201	1213.649	1288.2107	1309.3681	1388.3827	1403.5804	1409.2642	1413.3346	1454.9854	1481.8571	1483.3696	1490.3825	1494.1395	1506.8858	1533.4452	1570.1521	3024.7939	3043.0607	3054.4304	3071.576	3094.0044	3117.6876	3125.7303	3147.0191	3243.528	3270.2246
CCN1C=CN=C1C	CCn1ccnc1C	
InChI=1S/C6H10N2/c1-3-8-5-4-7-6(8)2/h4-5H,3H2,1-2H3	InChI=1S/C6H10N2/c1-3-8-5-4-7-6(8)2/h4-5H,3H2,1-2H3
