19
gdb 94950	3.50032	1.35649	1.17372	2.1283	75.97	-0.2304	0.0237	0.2541	1099.0767	0.161756	-419.213603	-419.205715	-419.204771	-419.245996	30.644	
C	 0.1705492932	 1.4447069508	-0.1763163066	-0.40434
C	-0.071976728	-0.0300120769	 0.1687169683	 0.00241
C	 0.4432354487	-0.9868385914	-0.930582864	-0.194927
N	 1.8820360398	-1.0829266099	-0.6333815407	-0.297227
C	 2.0091790726	-1.1773715895	 0.8131004351	-0.136345
C	 0.7590610528	-0.4582099901	 1.378382242	 0.117479
O	 0.2973092035	-1.7228767359	 1.9691200868	-0.277401
C	 1.4048692961	-2.4017415405	 1.500799739	 0.421156
N	 1.7299853949	-3.6082072079	 1.6046292921	-0.555678
H	 1.2231742674	 1.6203084371	-0.4173138036	 0.137568
H	-0.426277113	 1.7400258814	-1.0444475302	 0.11947
H	-0.1049779314	 2.0985806986	 0.6576329497	 0.115068
H	-1.1338902161	-0.1981046292	 0.3705055398	 0.089435
H	-0.0807350143	-1.9526651864	-0.8598237707	 0.102457
H	 0.2904010406	-0.5927905975	-1.9397179881	 0.103784
H	 2.3283867557	-1.8613041574	-1.106195879	 0.235441
H	 3.0026565413	-0.8911742055	 1.1621895045	 0.103342
H	 0.8805996785	 0.2989883962	 2.1540851913	 0.091816
H	 1.0333674277	-4.141066446	 2.1294382642	 0.226491
91.3395	142.1841	206.9042	254.4489	271.2216	330.1639	426.6596	458.9799	576.0292	675.7026	693.8153	767.4335	827.9885	844.764	865.2315	877.3565	924.3236	962.9077	969.2734	980.7172	1003.2047	1028.6452	1038.7432	1108.2526	1131.7159	1149.3606	1206.5599	1221.7203	1232.2864	1274.9954	1303.432	1308.6858	1322.9159	1364.8325	1376.665	1405.1684	1438.8211	1494.6447	1504.4942	1520.504	1818.2237	2980.3012	3036.8681	3070.5335	3076.198	3098.0841	3104.4201	3111.2785	3116.0626	3465.7977	3541.6295
CC1CNC2C1OC2=N	C[C@H]1CN[C@H]2[C@@H]1O[C]2[NH]	
InChI=1S/C6H10N2O/c1-3-2-8-4-5(3)9-6(4)7/h3-5,7-8H,2H2,1H3	InChI=1S/C6H10N2O/c1-3-2-8-4-5(3)9-6(4)7/h3-5,7-8H,2H2,1H3/t3-,4-,5+/m0/s1
