19
gdb 104534	2.50319	1.30581	1.09462	2.9692	76.69	-0.2385	0.0458	0.2843	1188.9626	0.157015	-422.966705	-422.957139	-422.956195	-423.001844	35.001	
O	 0.4036063939	 1.2767091891	 0.3035032429	-0.411525
C	 0.2391925496	-0.0452786518	-0.1484316322	-0.09005
C	-1.2255091553	-0.4947623283	-0.0716340534	 0.393322
C	-2.1435192227	 0.116129403	-1.1423762111	-0.415971
C	-2.2636772084	 1.5690392615	-1.1305499635	 0.331707
C	-2.4206152571	 2.7597935316	-1.1487170416	-0.450727
C	-1.4136834157	-2.0160797165	 0.1489436205	-0.346126
C	-1.804114403	-1.6196997006	 1.5857909416	-0.064847
O	-1.7179331457	-0.2104883365	 1.27134513	-0.325501
H	-0.1309444605	 1.3471325301	 1.1055174409	 0.293645
H	 0.6019978767	-0.0906364989	-1.1819630504	 0.106629
H	 0.8471480379	-0.748372611	 0.4463392364	 0.076684
H	-1.7837832538	-0.2216010369	-2.1242831582	 0.129992
H	-3.1417471596	-0.3198350732	-1.0119853915	 0.128888
H	-2.5288782616	 3.8158176296	-1.1531209322	 0.194431
H	-2.2202724794	-2.4606899007	-0.4365670206	 0.113007
H	-0.5136638694	-2.6239405769	 0.0415376976	 0.11445
H	-2.8119061761	-1.8986419986	 1.9113041332	 0.112459
H	-1.0873315999	-1.9093055748	 2.3630612816	 0.109532
35.7876	91.866	108.5207	134.2353	234.4664	301.1949	323.0919	349.4591	376.7148	471.3132	475.8494	523.5031	616.8074	637.7699	733.3753	782.5581	853.9859	882.0196	928.0698	953.9542	983.2606	991.4932	1018.0742	1067.6678	1091.1975	1150.8808	1164.6058	1190.6377	1213.832	1250.2896	1277.6178	1301.71	1336.4495	1353.3548	1391.778	1441.2726	1456.1351	1491.1565	1504.0022	1530.9171	2241.8304	2953.316	3012.6912	3027.3917	3049.694	3060.2454	3070.8577	3077.7954	3132.1554	3507.3048	3767.3213
OCC1(CC#C)CCO1	OC[C@@]1(CC#C)CCO1	
InChI=1S/C7H10O2/c1-2-3-7(6-8)4-5-9-7/h1,8H,3-6H2	InChI=1S/C7H10O2/c1-2-3-7(6-8)4-5-9-7/h1,8H,3-6H2/t7-/m1/s1
