20
gdb 91193	2.41835	1.75571	1.41197	2.1019	78.27	-0.2398	0.0269	0.2667	1018.008	0.173388	-403.153288	-403.145347	-403.144403	-403.186162	30.752	
C	 0.73037386	 1.5374470913	-0.1364460653	-0.412511
C	 0.1517998477	 0.1320458117	 0.0018590472	 0.016139
C	 0.7671536508	-0.9648679788	-0.9174984068	-0.230022
C	 1.3320967988	-1.714499312	 0.33109631	 0.007105
N	 2.7804037576	-1.6618864258	 0.3890315058	-0.260984
C	 3.3365047245	-0.7941935789	 1.1211672738	 0.118431
O	 2.7804144155	 0.1124990578	 1.9617615077	-0.223919
C	 1.4205171763	-0.1366408163	 2.3587613889	-0.10246
C	 0.5598594157	-0.7205454574	 1.2530236688	-0.049243
H	 1.8182569805	 1.5483041277	-0.0243702445	 0.131794
H	 0.4894990681	 1.949684205	-1.1223586634	 0.114836
H	 0.3129045086	 2.218149531	 0.6142715371	 0.110216
H	-0.936429947	 0.1928771936	-0.0952258865	 0.069944
H	 0.0290161478	-1.5420100599	-1.4793302254	 0.098714
H	 1.5447688336	-0.6245060562	-1.6052832482	 0.107116
H	 1.0253638722	-2.7609121282	 0.4072946819	 0.078758
H	 4.4197611847	-0.6809618255	 1.1215994214	 0.120668
H	 1.4503702872	-0.8344537365	 3.2061587976	 0.112714
H	 1.0434385623	 0.8229249409	 2.7227041624	 0.118705
H	-0.316733715	-1.1807712736	 1.7188558775	 0.074001
42.3426	151.0244	221.6775	228.9297	315.0558	349.3328	407.5003	492.6228	543.5018	616.2528	721.9597	746.6701	811.3895	826.1279	878.9496	891.9805	935.1411	962.0739	967.1339	992.9	1023.6636	1064.5418	1103.3014	1118.1827	1143.6878	1175.4788	1190.5222	1228.0337	1247.031	1267.956	1289.1489	1309.739	1340.263	1348.1583	1369.7442	1405.9656	1413.0288	1421.4953	1479.6128	1492.9798	1496.5734	1504.917	1728.6998	3017.4033	3029.5086	3043.0087	3056.7797	3060.9052	3071.5815	3087.4296	3091.8591	3114.061	3120.8903	3149.6455
CC1CC2N=COCC12	C[C@H]1C[C@H]2N=COC[C@@H]12	
InChI=1S/C7H11NO/c1-5-2-7-6(5)3-9-4-8-7/h4-7H,2-3H2,1H3	InChI=1S/C7H11NO/c1-5-2-7-6(5)3-9-4-8-7/h4-7H,2-3H2,1H3/t5-,6-,7+/m0/s1
