21
gdb 92372	2.10907	1.96185	1.52219	1.7746	76.5	-0.2435	0.0783	0.3218	1013.2641	0.183605	-424.253622	-424.24543	-424.244486	-424.285825	32.816	
C	-0.2464181055	 1.5612237165	-0.0674499793	-0.41721
C	 0.0270332688	 0.068347379	 0.0102430841	 0.128952
O	 0.7584565975	-0.3788984525	-1.1501193377	-0.30017
C	 1.8151561091	-1.180033039	-0.6211453235	 0.184227
C	 2.9320558894	-0.2453815683	-0.122924976	-0.236072
C	 2.2729529155	 0.2719370006	 1.1892986383	-0.261861
C	 0.9136115946	-0.4726487923	 1.1653662761	 0.339907
C	 0.2246723448	-0.6826050831	 2.49189531	-0.487637
O	 1.2940655363	-1.7364169987	 0.5669406369	-0.280196
H	 0.6756978878	 2.1412048732	-0.154898106	 0.122641
H	-0.8617632253	 1.7792896348	-0.9448476744	 0.130186
H	-0.7938483963	 1.9007102188	 0.8186767153	 0.114933
H	-0.9308611602	-0.4712317732	 0.0440373921	 0.075211
H	 2.0842285605	-1.9569596013	-1.3369086449	 0.085988
H	 3.8539275203	-0.7993540901	 0.0721119879	 0.103126
H	 3.1422929827	 0.5408033153	-0.8503133658	 0.108071
H	 2.8390978079	-0.0370527761	 2.0713756615	 0.104178
H	 2.1681097119	 1.3575859588	 1.2254909789	 0.104299
H	-0.0608671836	 0.2782375593	 2.931325642	 0.123217
H	-0.6779332461	-1.2882569795	 2.3696062861	 0.1294
H	 0.8911430198	-1.1931829723	 3.1926810184	 0.128809
119.0049	190.8924	206.0488	232.0908	291.2676	313.3588	386.2006	419.2875	506.4815	555.5679	607.936	645.5612	747.2496	826.1424	836.3261	856.2386	874.0499	897.5902	908.0513	945.2212	984.2249	1018.346	1054.5484	1092.6334	1098.3554	1115.8968	1133.2403	1173.4084	1206.8785	1228.3264	1264.335	1290.4704	1311.545	1333.8238	1340.0359	1371.288	1392.2295	1409.3844	1416.1486	1475.3044	1482.9653	1486.4444	1493.2663	1495.2173	1511.5529	2990.1612	3040.469	3042.7084	3064.6953	3075.3639	3108.5495	3111.8647	3114.7322	3118.6667	3123.5	3127.0491	3130.9892
CC1OC2CCC1(C)O2	C[C@H]1O[C@H]2CC[C@]1(C)O2	
InChI=1S/C7H12O2/c1-5-7(2)4-3-6(8-5)9-7/h5-6H,3-4H2,1-2H3	InChI=1S/C7H12O2/c1-5-7(2)4-3-6(8-5)9-7/h5-6H,3-4H2,1-2H3/t5-,6-,7+/m1/s1
