17
gdb 78202	3.07782	1.28251	1.06935	3.8266	73.66	-0.2545	0.018	0.2725	1140.5261	0.135207	-417.960551	-417.95195	-417.951006	-417.993725	31.828	
C	-0.1241025921	 1.5249355823	 0.0017917661	-0.324123
N	 0.1228999176	 0.0922139772	 0.0568801728	-0.077966
C	 1.3943386319	-0.528455922	-0.206615136	-0.048663
C	 0.7483367794	-0.5924916336	 1.1543923693	-0.049453
C	 1.9065636381	 0.2406740689	 1.7802414663	-0.253089
C	 2.6947203988	-0.4416399931	 2.7854847455	 0.278349
N	 3.3415398059	-0.9689257859	 3.586342456	-0.326806
C	 2.5991019989	 0.2533928611	 0.3496530662	 0.095681
O	 3.7347293703	-0.5554552463	 0.2365193185	-0.412055
H	 0.6832137506	 2.1605486203	 0.3930119067	 0.109738
H	-0.2958633898	 1.8056724096	-1.0410847689	 0.13616
H	-1.0343937549	 1.7443664528	 0.5671114069	 0.135162
H	 1.4844798339	-1.2808334934	-0.9820385255	 0.115682
H	 0.2281510628	-1.3977407177	 1.6599700648	 0.118533
H	 1.6044600092	 1.2178573237	 2.1707356731	 0.121556
H	 2.7698002368	 1.2604799918	-0.0552605077	 0.081282
H	 4.4262461126	-0.2225652357	 0.819592726	 0.300013
104.6499	130.5447	164.5768	184.281	251.4018	283.5484	321.8776	379.5744	451.9099	506.0008	556.9851	604.3093	734.8931	795.623	844.1975	908.5805	915.8138	952.6823	1000.9866	1050.2862	1076.2529	1080.4211	1124.9158	1155.7806	1180.4483	1188.7863	1209.9095	1234.0974	1262.5886	1316.7835	1329.6691	1391.4979	1417.699	1458.2936	1496.2781	1499.8832	2352.1983	2995.3594	3005.7253	3060.1515	3080.7398	3116.854	3177.8708	3188.5119	3805.7311
CN1C2C1C(C#N)C2O	CN1[C@@H]2[C@H]1[C@@H](C#N)[C@H]2O	
InChI=1S/C6H8N2O/c1-8-4-3(2-7)6(9)5(4)8/h3-6,9H,1H3	InChI=1S/C6H8N2O/c1-8-4-3(2-7)6(9)5(4)8/h3-6,9H,1H3/t3-,4-,5-,6-,8?/m1/s1
