18
gdb 69864	2.68198	1.69128	1.20004	1.6876	83.12	-0.217	0.018	0.235	1057.5684	0.145718	-364.694184	-364.685877	-364.684933	-364.726506	33.04	
C	-0.1043781984	 1.5145113484	-0.0070255662	-0.508437
C	-0.0558111483	 0.0157141094	-0.0076440835	 0.305953
C	-0.8788074621	-0.8730759562	 0.8858092768	-0.360378
C	 0.6256105891	-0.96296886	 0.9152076119	-0.045544
N	 1.3177434041	-1.703985537	-0.2126329011	-0.169205
C	 0.3286198127	-2.2545240698	-1.1444548382	-0.280501
C	 0.5771173303	-0.7876675125	-1.1876201509	 0.043014
C	 1.2290470083	-0.1424050712	-2.2781057201	 0.253517
C	 1.7455591599	 0.428860908	-3.2033121777	-0.40355
H	 0.8397811604	 1.9415336166	-0.3590177702	 0.135209
H	-0.9013083618	 1.8867439432	-0.6616324537	 0.125392
H	-0.2970733176	 1.8929515618	 1.0015275518	 0.118005
H	-1.2779690939	-0.3507143922	 1.7511168776	 0.11821
H	-1.5358240629	-1.6576368698	 0.5282089835	 0.114663
H	 1.2116170251	-0.8016806391	 1.8109936322	 0.105326
H	 0.7973197411	-2.8312080101	-1.9365135329	 0.134665
H	-0.6108916012	-2.6654007819	-0.7941237876	 0.122347
H	 2.2128294054	 0.9246172023	-4.0177728218	 0.191313
120.1859	136.4915	197.3246	238.2498	299.3427	368.9281	459.6763	476.4676	509.6082	518.3693	580.1634	589.9009	634.3427	662.454	714.9606	769.3005	832.4222	873.9186	917.5557	930.1397	977.6528	987.1479	1031.5155	1067.8541	1078.3243	1112.9896	1123.0234	1138.2727	1163.9193	1256.0933	1274.9323	1315.9137	1387.984	1422.8999	1475.5259	1481.914	1499.6716	1516.2688	2227.6559	3028.344	3090.1125	3109.2629	3121.0815	3135.3435	3190.6542	3199.1373	3217.1904	3502.2181
CC12CC1N1CC21C#C	C[C@]12C[C@H]1N1C[C@@]21C#C	
InChI=1S/C8H9N/c1-3-8-5-9(8)6-4-7(6,8)2/h1,6H,4-5H2,2H3	InChI=1S/C8H9N/c1-3-8-5-9(8)6-4-7(6,8)2/h1,6H,4-5H2,2H3/t6-,7+,8+,9?/m1/s1
