19
gdb 104652	2.32853	1.27424	0.99969	2.9138	72.16	-0.2469	-0.0343	0.2125	1244.5665	0.156073	-460.14412	-460.134483	-460.133539	-460.178725	35.099	
C	 0.1426976229	 1.544482795	-0.4109027315	-0.261322
O	 0.3163766312	 0.1395659232	-0.4685364309	-0.287166
C	 0.5687309916	-0.459035547	 0.7797894589	 0.319949
C	-0.5273608988	-0.4019568763	 1.8854009314	-0.335879
C	-0.3161675288	-1.9238291435	 2.1098212028	 0.179939
O	-1.4186129131	-2.7521692145	 2.3621804596	-0.429898
C	 0.4001174378	-2.0086861605	 0.7359035813	-0.338183
C	 1.9618004296	-0.1030253477	 1.2721134425	 0.098355
O	 2.3080193903	-0.1043967213	 2.4258503186	-0.248119
H	 1.0329707342	 2.0590741726	-0.020256198	 0.115254
H	-0.0368656541	 1.8839701656	-1.4331031315	 0.135436
H	-0.7172950211	 1.8220901125	 0.2141487963	 0.117906
H	-0.3586048472	 0.2635927497	 2.732585049	 0.121672
H	-1.503019668	-0.2008588779	 1.4316792174	 0.100697
H	 0.3840408556	-2.0958388376	 2.9294362032	 0.117349
H	-2.0579822962	-2.6279724587	 1.6525340486	 0.277409
H	-0.2969593169	-2.2511343598	-0.0723218519	 0.112097
H	 1.2932518236	-2.6304112525	 0.644524466	 0.115098
H	 2.6703958173	 0.1247043388	 0.4427451284	 0.089405
80.2274	87.4202	143.6563	182.2028	210.2236	243.5584	271.1018	317.8326	379.7366	394.2948	446.6051	486.1174	573.1527	590.5427	750.0959	816.7354	876.4563	919.4792	938.4246	1011.5912	1045.8681	1059.6033	1090.6157	1114.0628	1124.8724	1182.1674	1197.1023	1214.7804	1225.9252	1258.329	1272.4049	1287.6437	1336.9916	1396.8067	1434.3803	1450.7898	1476.5864	1485.5695	1489.8485	1506.7467	1824.9746	2874.2721	2989.1097	3041.7657	3055.8783	3061.1143	3100.309	3123.0561	3124.927	3137.4704	3804.6399
COC1(CC(O)C1)C=O	CO[C@]1(C[C@@H](O)C1)C=O	
InChI=1S/C6H10O3/c1-9-6(4-7)2-5(8)3-6/h4-5,8H,2-3H2,1H3	InChI=1S/C6H10O3/c1-9-6(4-7)2-5(8)3-6/h4-5,8H,2-3H2,1H3/t5-,6+
