19
gdb 128416	3.36083	1.04976	0.884	3.8549	77.68	-0.2149	0.0103	0.2252	1368.6248	0.161101	-415.403708	-415.394447	-415.393502	-415.438938	32.389	
C	-0.4841050528	 0.6380411163	 1.0721070827	-0.310437
N	 0.0810442117	 0.1225703361	-0.1714105813	-0.265813
C	 1.2602840607	-0.7086935298	 0.0161318264	-0.275446
C	 1.0358721715	-2.0413083831	 0.6892615885	 0.346749
N	-0.1383034682	-2.6591206623	 0.6682349903	-0.320489
N	 0.1157789576	-3.8116003243	 1.3368805102	 0.065657
C	-0.9280739675	-4.787253522	 1.5586133679	-0.321029
C	 1.4070067581	-3.8305605201	 1.7201605088	-0.001254
N	 2.0238686576	-2.7305300102	 1.3323703349	-0.31773
H	 0.2430482188	 1.3054930818	 1.5489414246	 0.117422
H	-1.3752165909	 1.2300893015	 0.8428688371	 0.113956
H	-0.7648600238	-0.1368532006	 1.8031950904	 0.102827
H	-0.6253764741	-0.4201321809	-0.657579284	 0.226693
H	 1.7188095036	-0.8905772225	-0.9651135072	 0.11945
H	 2.0043338944	-0.1549395411	 0.5992290737	 0.126133
H	-1.332815789	-5.1300875723	 0.6030861911	 0.155038
H	-0.5057163366	-5.6371858516	 2.0977159815	 0.1438
H	-1.736891437	-4.3496980876	 2.1496033098	 0.154482
H	 1.8403518059	-4.6517053074	 2.2725239246	 0.139992
38.1913	94.0042	102.8145	146.5233	181.4525	230.0244	296.7899	323.6873	394.1984	488.9201	645.7797	650.5314	712.049	748.2927	811.5958	854.8394	946.5554	996.3357	1028.2258	1049.4257	1078.5395	1145.3619	1153.7385	1156.3872	1190.9042	1226.9793	1289.8098	1312.7363	1338.0797	1384.4157	1447.7562	1449.5875	1453.6462	1469.544	1473.2489	1485.9551	1488.0958	1501.9551	1523.9242	1526.0546	1558.0072	2976.7662	3019.3148	3052.4555	3056.6533	3073.2389	3099.8951	3121.9235	3145.7078	3248.5391	3525.9093
CNCC1=NN(C)C=N1	CNCc1nn(C)cn1	
InChI=1S/C5H10N4/c1-6-3-5-7-4-9(2)8-5/h4,6H,3H2,1-2H3	InChI=1S/C5H10N4/c1-6-3-5-7-4-9(2)8-5/h4,6H,3H2,1-2H3
