15
gdb 28749	5.87448	0.84502	0.75769	3.3095	72.15	-0.1866	0.0149	0.2015	1421.0275	0.112522	-453.964569	-453.956054	-453.955109	-453.998336	30.939	
O	-0.1333876221	 1.4491826968	-0.2663938886	-0.434744
C	 0.0011316149	 0.1077176427	-0.1149906316	 0.379529
C	 0.4774890157	-0.8961117338	-0.9176208719	-0.287898
C	 0.3378866119	-2.1217082647	-0.1788666282	-0.257432
C	-0.2028763152	-1.7940207723	 1.0322272505	 0.363736
N	-0.407348858	-0.4308055806	 1.0763473844	-0.351574
O	-0.5834828156	-2.5295621533	 2.1165352358	-0.213651
C	 0.3267059263	-3.4107695081	 2.6201174462	 0.108229
N	-0.0343428236	-4.2261058904	 3.5079127642	-0.430311
H	 0.149105969	 1.6824923138	-1.1558153121	 0.309082
H	 0.8702860715	-0.785275815	-1.9160474378	 0.092707
H	 0.5855455614	-3.1146707174	-0.5177323056	 0.105715
H	-0.8088803259	 0.0774525985	 1.8454934702	 0.276148
H	 1.3162509368	-3.2927171533	 2.1639391227	 0.105138
H	 0.7573044028	-4.7974420029	 3.7959206618	 0.235329
47.6401	114.1824	149.6957	217.6856	256.1289	319.5646	386.7119	408.4409	458.6487	505.762	623.3334	669.2594	690.372	727.5054	782.0735	795.4042	826.0726	992.747	1016.0111	1050.169	1054.9562	1061.98	1163.7043	1232.4311	1260.7066	1291.1562	1302.3986	1397.5741	1452.4984	1526.6885	1592.3181	1642.9833	1746.2764	3061.1408	3248.7086	3265.2015	3522.0189	3683.3267	3848.0675
OC1=CC=C(N1)OC=N	Oc1ccc([nH]1)O[CH][NH]	
InChI=1S/C5H6N2O2/c6-3-9-5-2-1-4(8)7-5/h1-3,6-8H	InChI=1S/C5H6N2O2/c6-3-9-5-2-1-4(8)7-5/h1-3,6-8H
