17
gdb 52559	4.48479	0.70946	0.64587	2.3413	81.66	-0.2637	-0.0306	0.2331	1759.6154	0.133169	-421.814224	-421.804377	-421.803433	-421.854162	33.256	
C	 0.1108081479	 1.3942236586	 0.0617472154	-0.50882
C	 0.0956304058	-0.0569346636	 0.004994124	 0.231371
C	 0.0840170772	-1.2607431606	-0.0389807333	-0.076689
C	-0.0086665713	-2.6968106414	-0.1242877238	 0.260088
O	-0.9824488361	-3.3027979437	-0.4972357748	-0.357712
O	 1.145155885	-3.2744787848	 0.2840180775	-0.235303
C	 1.1757682331	-4.6908324498	 0.2297578209	 0.154406
C	 1.9610989282	-5.3283938958	-0.8763509247	-0.278862
C	 2.4991979426	-5.3047500255	 0.5420964482	-0.302521
H	 1.1327003932	 1.7835259532	 0.0074198179	 0.160134
H	-0.4649795873	 1.8261675381	-0.7634490663	 0.16266
H	-0.3335058551	 1.7470197561	 0.9989021972	 0.163747
H	 0.255725471	-5.1515472307	 0.5660744632	 0.123996
H	 1.5955521753	-6.2611743721	-1.2902559651	 0.12428
H	 2.4290100279	-4.6621689475	-1.5918534934	 0.127219
H	 3.3167221625	-4.6239077794	 0.7492691427	 0.130174
H	 2.5135314898	-6.2232075414	 1.1174925446	 0.121831
1.3764	43.3117	68.7349	81.5425	176.4693	207.6148	313.9783	369.2405	388.4449	418.9806	469.2077	586.0932	753.4671	769.2262	809.5369	829.8217	856.6859	957.7197	989.8818	1046.9385	1054.0818	1056.3842	1075.0639	1092.3454	1118.1882	1175.2995	1192.0957	1238.2726	1276.0612	1396.6652	1410.5176	1456.0844	1470.0295	1473.7102	1498.8925	1791.0375	2362.2349	3033.2775	3097.2143	3101.015	3141.7582	3144.5622	3196.4218	3225.4707	3239.5162
CC#CC(=O)OC1CC1	CC#CC(=O)OC1CC1	
InChI=1S/C7H8O2/c1-2-3-7(8)9-6-4-5-6/h6H,4-5H2,1H3	InChI=1S/C7H8O2/c1-2-3-7(8)9-6-4-5-6/h6H,4-5H2,1H3
