17
gdb 74201	2.78167	1.38638	0.95416	0.7376	78.36	-0.2526	-0.0885	0.1641	1191.5648	0.135789	-421.893078	-421.884694	-421.88375	-421.9264	30.952	
C	-0.0322599824	 1.4960413513	 0.0441772461	-0.476633
C	-0.0345266811	-0.0017604558	-0.0085698068	 0.218663
C	-0.0723927617	-0.7087103929	-1.1547074771	-0.252493
C	-0.0117802308	-2.1871476248	-1.2236586768	 0.382157
O	-0.170140187	-2.7714929459	-2.2760186883	-0.321829
C	 0.3123019039	-2.9121035329	 0.0730841529	-0.332296
C	-0.269268215	-2.2028698487	 1.3034855112	-0.331232
C	 0.0080841368	-0.7092882618	 1.3127052406	 0.327532
O	 0.2072676817	-0.0924154958	 2.3383639314	-0.306448
H	 0.8491931901	 1.8512298446	 0.5873786389	 0.156143
H	-0.0413008701	 1.931838566	-0.956751995	 0.127258
H	-0.8985251071	 1.8641231449	 0.6043387043	 0.148511
H	-0.1413791074	-0.2108038545	-2.1187965031	 0.116446
H	-0.0313574389	-3.9456104674	-0.008566123	 0.133252
H	 1.4077219036	-2.9438586081	 0.152217593	 0.138503
H	-1.3621893815	-2.3185507099	 1.3080860043	 0.138976
H	 0.1002304267	-2.6272648183	 2.2395838175	 0.13349
68.8546	130.0877	161.1663	179.4427	289.2983	340.3676	393.409	425.3759	458.5135	531.9739	577.7622	642.9372	691.985	742.5093	784.7586	886.8183	929.7955	990.7656	1017.2406	1034.4154	1068.536	1111.7646	1162.0746	1193.1206	1232.0186	1285.996	1317.8826	1350.7229	1366.9815	1411.427	1463.9297	1466.9631	1468.6493	1475.4545	1675.963	1778.6994	1780.495	3020.3803	3030.3356	3043.4555	3099.4826	3108.9276	3110.1315	3136.1832	3167.6026
CC1=CC(=O)CCC1=O	CC1=CC(=O)CCC1=O	
InChI=1S/C7H8O2/c1-5-4-6(8)2-3-7(5)9/h4H,2-3H2,1H3	InChI=1S/C7H8O2/c1-5-4-6(8)2-3-7(5)9/h4H,2-3H2,1H3
