20
gdb 104353	2.50612	1.48225	1.19393	3.7606	75.54	-0.2526	0.019	0.2717	1114.8209	0.172072	-440.314006	-440.30524	-440.304296	-440.347112	33.623	
C	 0.0169309797	 1.5272206402	-0.0082030678	-0.424148
C	-0.0456243863	-0.0125958366	-0.0218018455	 0.140585
C	-1.5138970403	-0.4927095964	-0.0176569997	-0.091236
O	-2.2459864365	 0.0001463105	 1.0754565047	-0.426058
C	 0.7830469842	-0.6209966173	-1.171651899	-0.277665
C	 2.1719963873	-0.7825159967	-0.544189548	-0.098174
O	 1.9327741577	-0.9864143323	 0.8637398287	-0.238668
C	 0.6869229785	-0.5640105502	 1.1944187142	 0.428534
N	 0.1947744635	-0.6285782845	 2.3610263791	-0.568422
H	 1.0455191714	 1.8952020632	 0.0620243009	 0.112328
H	-0.4255296753	 1.9244625365	-0.9278745555	 0.116367
H	-0.5502317228	 1.9130795543	 0.8401560829	 0.150945
H	-2.0103072298	-0.1349297416	-0.9282105519	 0.09942
H	-1.5204999364	-1.5958402605	-0.0517161268	 0.079632
H	-1.7259565766	-0.2316864054	 1.8653779321	 0.298638
H	 0.3817801996	-1.6014136527	-1.4513797233	 0.113722
H	 0.8007338584	 0.0065330771	-2.0653045414	 0.113761
H	 2.7301546957	-1.6460532371	-0.9119035276	 0.125004
H	 2.791721378	 0.1130905187	-0.6672181759	 0.119455
H	 0.8513200799	-1.034518079	 3.0278790098	 0.225982
95.3827	171.2615	192.467	209.5439	224.2108	276.3705	312.1827	354.0897	409.8719	494.541	624.4829	667.3773	679.8033	707.6358	716.6563	839.9376	878.8517	920.0873	951.2668	960.4288	971.3387	1008.7173	1041.5441	1087.5954	1104.5158	1177.1001	1190.4812	1200.1503	1225.1599	1246.5753	1271.0782	1319.9939	1350.4725	1385.5621	1404.42	1419.7414	1479.0854	1485.9813	1490.9148	1500.5574	1506.0657	1528.1022	1753.9827	2953.3003	3035.8865	3041.4317	3046.6112	3047.6785	3100.6765	3105.7184	3115.5362	3142.5082	3485.9439	3619.7887
CC1(CO)CCOC1=N	C[C@@]1(CO)CCO[C]1[NH]	
InChI=1S/C6H11NO2/c1-6(4-8)2-3-9-5(6)7/h7-8H,2-4H2,1H3	InChI=1S/C6H11NO2/c1-6(4-8)2-3-9-5(6)7/h7-8H,2-4H2,1H3/t6-/m0/s1
