21
gdb 96100	2.70841	1.45572	1.09416	1.4899	78.97	-0.2484	0.0893	0.3377	1178.5047	0.182879	-424.22743	-424.21903	-424.218085	-424.260015	33.421	
C	 0.0213931956	 1.4582424344	 0.0643022354	-0.408716
C	 0.0520863489	-0.0532305471	 0.0173885189	 0.213801
O	 0.6558972375	-0.4494131359	-1.1912891059	-0.249546
C	 0.730042031	-1.8639151272	-1.3059759657	-0.087002
C	 1.5015474174	-2.4526495339	-0.1204187811	-0.269874
C	 0.8902624979	-1.918446477	 1.1582366157	 0.44731
C	-0.1963149591	-2.6782381822	 1.8856370011	-0.323658
C	 1.183708731	-2.5054411685	 2.4968444209	-0.33619
O	 0.783035906	-0.5142928956	 1.1397039612	-0.29477
H	 1.0426826048	 1.8445320324	 0.0230164081	 0.134603
H	-0.541374195	 1.8462209148	-0.7875986545	 0.125058
H	-0.4492085514	 1.7938411008	 0.9911670569	 0.12346
H	-0.9666834803	-0.4837335954	 0.0634453457	 0.052851
H	-0.2859623368	-2.2914462673	-1.3428758997	 0.089742
H	 1.2241295276	-2.0733949677	-2.2582118786	 0.108348
H	 1.4701538159	-3.5467177592	-0.1450653101	 0.096449
H	 2.5498645584	-2.1381193819	-0.1800621817	 0.111963
H	-1.0024993686	-2.095854367	 2.3166709927	 0.118336
H	-0.4841979747	-3.6596264473	 1.5236329812	 0.110273
H	 1.8420297127	-3.3660522479	 2.5482025081	 0.112327
H	 1.2778743512	-1.8074917212	 3.3208820611	 0.125236
132.5162	139.8793	202.3747	239.3945	272.8142	338.7065	373.337	391.8985	475.3349	495.6895	557.9991	654.1295	715.4235	773.9311	840.3643	864.8942	885.418	912.0919	940.7247	964.6786	981.2774	1006.2248	1046.7358	1067.5801	1076.5688	1106.3878	1127.4181	1138.6794	1179.6613	1188.5766	1210.6792	1276.8595	1294.7232	1334.8113	1377.1859	1389.488	1392.0155	1416.7184	1430.9253	1450.882	1469.9317	1481.3293	1488.5825	1497.4002	1506.1365	2918.9101	2970.5335	3038.1259	3058.1783	3088.6239	3093.9925	3131.7112	3136.8068	3139.8132	3140.9926	3217.2949	3231.126
CC1OCCC2(CC2)O1	C[C@H]1OCCC2(CC2)O1	
InChI=1S/C7H12O2/c1-6-8-5-4-7(9-6)2-3-7/h6H,2-5H2,1H3	InChI=1S/C7H12O2/c1-6-8-5-4-7(9-6)2-3-7/h6H,2-5H2,1H3/t6-/m0/s1
