19
gdb 83216	2.65388	1.50691	1.27204	1.2238	80.03	-0.2512	0.0507	0.302	1065.6285	0.160021	-385.851873	-385.843579	-385.842635	-385.884458	32.751	
O	 0.1955177072	 1.4394641204	 0.6750334153	-0.424671
C	 0.0719051085	 0.1157406342	 0.2403536602	 0.102126
C	-0.4452612536	-0.9404689393	 1.1807638353	-0.087832
C	-1.1735584816	-0.5067975635	 2.4455582758	-0.220199
C	-2.233863563	 0.5261435098	 2.0012952728	-0.224254
C	-2.5080831342	 0.2374017877	 0.4899409581	-0.168345
C	-2.8015865988	 1.4421607688	-0.283776646	 0.316007
C	-3.0090786166	 2.4396187382	-0.9249991259	-0.475267
C	-1.2724244995	-0.514189708	-0.0203927711	-0.109027
H	-0.29170865	 1.9987690602	 0.0579397279	 0.293263
H	 0.8741261141	-0.2042422725	-0.4249965736	 0.086414
H	 0.0710364918	-1.8945433688	 1.1928047053	 0.08493
H	-1.6490659117	-1.3866755312	 2.8937288249	 0.09868
H	-0.498696505	-0.0857300786	 3.1971984052	 0.11142
H	-3.154702942	 0.4611019227	 2.5864187342	 0.099382
H	-1.8386770636	 1.5349458858	 2.1077000319	 0.127183
H	-3.3652044903	-0.4425224171	 0.4047682963	 0.104889
H	-3.2180006899	 3.3136491555	-1.4908413679	 0.196397
H	-1.3959399817	-1.1360216742	-0.9000549188	 0.088904
91.8016	146.3465	179.1486	248.9681	260.3304	360.3049	441.4638	497.5652	506.6868	535.3037	622.9149	631.9295	688.4497	717.3664	772.0078	782.2484	823.8392	863.7726	947.2787	963.5551	1015.7785	1025.1257	1043.7134	1053.2854	1091.6854	1103.1489	1127.8017	1191.6103	1226.1526	1236.496	1285.2803	1300.8609	1321.8993	1329.911	1342.9269	1361.524	1369.8424	1443.7854	1486.2902	1503.9244	2224.2575	3020.8718	3038.1387	3076.8508	3080.3304	3094.9404	3148.3963	3160.9879	3172.4211	3502.4905	3779.2471
OC1C2CCC(C#C)C12	O[C@H]1[C@H]2CC[C@@H](C#C)[C@@H]12	
InChI=1S/C8H10O/c1-2-5-3-4-6-7(5)8(6)9/h1,5-9H,3-4H2	InChI=1S/C8H10O/c1-2-5-3-4-6-7(5)8(6)9/h1,5-9H,3-4H2/t5-,6+,7-,8+/m1/s1
