18
gdb 77581	2.87675	1.42892	1.21944	3.1046	72.55	-0.2363	0.0716	0.3079	1086.6031	0.146194	-439.016047	-439.007408	-439.006464	-439.049227	32.721	
C	-0.1328092113	 1.5431041175	 0.0688714835	-0.513324
C	 0.1669972062	 0.0842957288	-0.0270264382	 0.393146
O	-0.7047909782	-0.8444042692	 0.6448408455	-0.301414
C	 0.7099687642	-0.8930588331	 0.9407777048	-0.168767
C	 1.323468796	-1.7201271541	-0.1631328741	 0.315644
C	 2.5768295778	-2.4978340135	-0.1640539284	-0.321629
N	 1.2686083486	-3.1670653227	-0.3182671554	-0.354373
C	 0.766119076	-0.7126344511	-1.2160536303	 0.005973
O	-0.1108769639	-1.1848666288	-2.1911174265	-0.428958
H	 0.7421438943	 2.1374163809	-0.2131984151	 0.127534
H	-0.9516801614	 1.8087153767	-0.6084195393	 0.141498
H	-0.4289114226	 1.8106959785	 1.0866400255	 0.134199
H	 1.0058104385	-0.7704131724	 1.977001044	 0.107158
H	 3.2040932335	-2.5118910363	-1.0515631933	 0.126238
H	 3.1160586981	-2.609125822	 0.7742066738	 0.11395
H	 0.9871762223	-3.6073875984	 0.5549924329	 0.235915
H	 1.5622815049	-0.1627728195	-1.7275347465	 0.094501
H	-0.745175583	-1.7515734315	-1.7349833528	 0.292709
67.1006	182.4994	191.6487	211.1253	222.3136	267.1553	325.721	370.6745	486.8115	502.0145	575.0715	622.9604	722.2924	787.5292	838.1924	855.1232	893.6856	917.7976	955.6314	972.3993	988.4848	1025.0294	1056.9642	1097.4178	1133.5302	1137.9334	1193.8813	1204.3784	1223.8923	1263.5091	1281.055	1303.9799	1399.8783	1423.2901	1434.9977	1463.7831	1482.372	1493.0908	1515.9152	3037.2824	3071.948	3100.0068	3101.8231	3121.1566	3179.4504	3184.6685	3492.1087	3791.9773
CC12OC1C1(CN1)C2O	C[C@]12O[C@H]1[C@]1(CN1)[C@H]2O	
InChI=1S/C6H9NO2/c1-5-3(8)6(2-7-6)4(5)9-5/h3-4,7-8H,2H2,1H3	InChI=1S/C6H9NO2/c1-5-3(8)6(2-7-6)4(5)9-5/h3-4,7-8H,2H2,1H3/t3-,4+,5+,6-/m0/s1
