18
gdb 87926	3.58687	1.08302	1.00873	3.7866	72.27	-0.2566	0.0107	0.2672	1230.176	0.148165	-439.10913	-439.100856	-439.099912	-439.142357	31.081	
C	-0.1954282886	 1.5302582622	 0.1372795068	-0.400272
C	-0.0698388578	 0.0272921988	 0.1493608048	-0.048793
N	 1.2258231137	-0.5414232631	-0.2792782622	-0.385701
C	 0.7837824387	-0.7391990402	 1.0990268271	 0.301886
C	 1.6096372145	-0.1045421316	 2.2139606813	-0.133377
O	 1.1693162247	-0.7333293359	 3.4292833635	-0.218746
C	 0.4627113678	-1.869271396	 3.1795821765	 0.440961
O	 0.0229117853	-2.5553472515	 4.0537666972	-0.332259
C	 0.362041046	-2.0784450768	 1.6708423545	-0.468739
H	 0.7493538728	 2.0074882302	 0.4084180384	 0.129843
H	-0.4655675978	 1.8806767279	-0.8642017203	 0.128136
H	-0.9717882801	 1.8655836501	 0.8332934612	 0.124752
H	-0.9640755548	-0.5014960362	-0.1809309435	 0.089212
H	 1.0924425134	-1.3886868915	-0.8260413886	 0.234498
H	 2.678493156	-0.3017108326	 2.0732581876	 0.125357
H	 1.4613822037	 0.9715212516	 2.3207748296	 0.1274
H	-0.6418983847	-2.4083496409	 1.3983932087	 0.143324
H	 1.0638712871	-2.8771465145	 1.3963201274	 0.142518
60.4485	142.7951	183.3892	213.5554	230.6879	331.8253	427.8264	458.3112	493.7792	534.7466	568.2083	690.3565	756.9434	812.2358	847.4718	888.4037	936.2286	967.6148	1025.8769	1061.6792	1064.4083	1070.4324	1090.8187	1130.8696	1167.3365	1184.0532	1219.5735	1234.684	1262.9165	1308.6313	1355.1672	1397.607	1410.4615	1458.9394	1470.6124	1491.0972	1503.409	1519.3101	1888.2761	3032.0937	3038.2666	3044.926	3100.7411	3102.7002	3113.2353	3118.7796	3128.3154	3497.0852
CC1NC11COC(=O)C1	C[C@H]1N[C@]21COC(=O)C2	
InChI=1S/C6H9NO2/c1-4-6(7-4)2-5(8)9-3-6/h4,7H,2-3H2,1H3	InChI=1S/C6H9NO2/c1-4-6(7-4)2-5(8)9-3-6/h4,7H,2-3H2,1H3/t4-,6+/m1/s1
