18
gdb 15049	2.28904	1.98641	1.12648	4.2103	72.67	-0.2561	0.0275	0.2836	1063.2497	0.153151	-343.967019	-343.95839	-343.957446	-344.000407	31.034	
C	 0.0193432347	 1.5527888989	 0.0110885567	-0.399932
C	-0.0068176483	 0.0240519499	-0.0355862435	-0.172907
C	 0.6965869913	-0.5677798675	-1.2742258669	-0.123146
C	 0.7283816215	-2.0370535604	-1.1755536085	 0.3051
N	 0.7675041552	-3.1879983874	-1.0848569407	-0.325665
N	 0.0044872455	-0.1906317972	-2.5097612181	-0.067976
C	 0.5628108022	 0.9454744353	-3.2455840159	-0.22134
C	 0.7289318755	-0.4396549444	-3.7561263836	-0.218325
H	 1.045204129	 1.9377010605	-0.0102872332	 0.114431
H	-0.5263693462	 1.9892722198	-0.8291095007	 0.13685
H	-0.4477237179	 1.9096948044	 0.9334532249	 0.123735
H	 0.4809714433	-0.386648368	 0.8551475029	 0.116992
H	-1.0394001366	-0.3385919939	-0.0324581133	 0.128772
H	 1.7505760221	-0.2306559268	-1.2801265371	 0.102357
H	-0.1667441022	 1.6171894018	-3.6876260561	 0.127293
H	 1.4450302017	 1.4353686524	-2.8376070558	 0.118223
H	 1.72146062	-0.8810909908	-3.6903631456	 0.124873
H	 0.1227000093	-0.8055287465	-4.5785439156	 0.130666
81.8824	100.701	150.8341	169.4251	222.5417	283.8234	325.366	369.7482	457.8151	528.6596	560.0756	722.871	796.7503	861.4868	894.3534	899.1975	972.0829	1002.0543	1042.0851	1065.4746	1113.5124	1120.737	1123.9307	1128.5135	1176.9623	1196.7604	1285.0608	1306.3847	1320.6181	1356.5078	1384.3012	1412.6986	1479.1339	1493.3509	1498.2585	1507.7144	1520.8684	2362.0751	2921.371	3037.9648	3049.0898	3089.3223	3100.7249	3107.8822	3108.7771	3125.4785	3187.2457	3202.8631
CCC(C#N)N1CC1	CC[C@@H](C#N)N1CC1	
InChI=1S/C6H10N2/c1-2-6(5-7)8-3-4-8/h6H,2-4H2,1H3	InChI=1S/C6H10N2/c1-2-6(5-7)8-3-4-8/h6H,2-4H2,1H3/t6-/m0/s1
