20
gdb 13788	3.83296	1.20246	1.09704	2.5445	76.89	-0.2398	-0.0098	0.23	1196.7228	0.175288	-349.025291	-349.016008	-349.015064	-349.059572	33.432	
C	-0.0316509765	 1.5568294937	-0.162019227	-0.373841
C	-0.0015803001	 0.0978672478	 0.3100441778	-0.208343
C	-1.3624503906	-0.5578269704	 0.1967330285	 0.022316
C	-1.8393398396	-1.1735311743	-1.0755493247	-0.284104
C	-1.5561137421	-2.0806558179	 0.110874934	-0.144963
C	-0.3808132161	-2.9976699433	 0.0486399914	 0.39146
C	-0.4417207724	-4.2121147408	 0.9585222725	-0.482286
O	 0.5707119846	-2.7982581266	-0.6803164577	-0.326803
H	 0.9539670984	 2.0216010732	-0.0617633401	 0.112735
H	-0.3298043441	 1.6238139842	-1.213466468	 0.11909
H	-0.741852886	 2.1530197199	 0.4222541858	 0.108809
H	 0.7260001465	-0.4714073756	-0.273405062	 0.136772
H	 0.333315756	 0.059373804	 1.3549192157	 0.09161
H	-2.1323253296	-0.0770670392	 0.7973981148	 0.088238
H	-2.873100392	-1.051802161	-1.3787840702	 0.113076
H	-1.1207356927	-1.2541779922	-1.8848588595	 0.137349
H	-2.4098370695	-2.4680294713	 0.6572876591	 0.082872
H	-1.3077363121	-4.8330229271	 0.7008269392	 0.138668
H	 0.4722107148	-4.7985142254	 0.8591982154	 0.139242
H	-0.5743826369	-3.9013444879	 2.0011914948	 0.138103
59.6869	91.9972	134.4528	150.1084	197.5615	239.0848	263.161	347.42	399.8614	447.1897	595.5289	635.1065	755.5566	765.4026	801.5364	858.5428	902.4556	932.9676	962.1369	996.4532	1035.5443	1052.4253	1078.2349	1097.8865	1122.4014	1143.6159	1184.7406	1204.8677	1239.7466	1298.9778	1348.3678	1375.3536	1404.8806	1409.8161	1426.4331	1463.5757	1475.1165	1477.3631	1495.233	1497.8683	1510.1875	1784.3914	3024.1379	3030.2314	3032.9861	3087.6094	3092.6828	3106.0533	3108.9261	3127.3338	3132.0997	3152.3175	3160.1869	3224.9138
CCC1CC1C(C)=O	CC[C@H]1C[C@H]1C(=O)C	
InChI=1S/C7H12O/c1-3-6-4-7(6)5(2)8/h6-7H,3-4H2,1-2H3	InChI=1S/C7H12O/c1-3-6-4-7(6)5(2)8/h6-7H,3-4H2,1-2H3/t6-,7-/m0/s1
