22
gdb 60588	3.04009	1.12557	0.88047	1.9004	82.64	-0.2352	0.0822	0.3174	1368.2356	0.193742	-404.297166	-404.287823	-404.286878	-404.331799	34.613	
C	 0.6809720091	 1.6205076985	 0.7568388205	-0.398202
C	 0.3496127255	 0.2900102236	 0.079984908	 0.02225
C	 1.1827243102	 0.1206690643	-1.1890169114	 0.173909
C	 0.7639528675	-0.9268424729	-2.2462291421	-0.297054
C	 0.7058187041	 0.2771058996	-3.2052971415	-0.064344
O	 0.9614440906	 1.2021388634	-2.1278851161	-0.295839
N	 0.6533226868	-0.8197744109	 0.9841848971	-0.065288
C	-0.3076394343	-1.083858575	 2.0476900349	-0.221772
C	-0.1788319633	-2.015902559	 0.8950564966	-0.223014
H	 1.7227296327	 1.6257579674	 1.0930445574	 0.121898
H	 0.5332777831	 2.4431887696	 0.0537195079	 0.138514
H	 0.0413455279	 1.7851717556	 1.6289847557	 0.109061
H	-0.7187996198	 0.2926522951	-0.2095777528	 0.050067
H	 2.242425858	 0.0559958799	-0.9053741041	 0.079091
H	 1.4970186929	-1.7004943276	-2.4768687884	 0.111041
H	-0.203612747	-1.3941617785	-2.0548865483	 0.106402
H	 1.500506121	 0.3051400884	-3.9621811956	 0.100147
H	-0.2549010897	 0.4739019449	-3.6950905388	 0.102775
H	 0.1133927222	-1.3353257559	 3.0169690193	 0.116215
H	-1.2082635361	-0.4726152352	 2.0871245166	 0.110207
H	-0.9972022347	-2.0215547978	 0.1769569545	 0.108455
H	 0.339417023	-2.9647691276	 1.0008061005	 0.115481
74.2803	86.0618	106.1962	157.6123	228.5112	247.2267	268.3849	354.8427	388.1582	443.0916	516.2869	747.5718	757.8806	820.3105	836.5863	873.222	905.3569	954.8464	956.6977	995.666	1008.8314	1025.4732	1035.4501	1071.9561	1088.6876	1113.4263	1120.6515	1134.6872	1164.5182	1174.4188	1194.5856	1200.2633	1224.4574	1256.0019	1279.7703	1312.6678	1318.2025	1351.5675	1363.0671	1400.7031	1407.4473	1488.5907	1492.315	1494.3881	1498.3375	1519.9847	1532.638	2913.0121	3006.7897	3014.4759	3042.5432	3054.9548	3081.7606	3092.4534	3098.3212	3109.9678	3134.5006	3137.6735	3175.0955	3189.5218
CC(C1CCO1)N1CC1	C[C@@H]([C@H]1CCO1)N1CC1	
InChI=1S/C7H13NO/c1-6(8-3-4-8)7-2-5-9-7/h6-7H,2-5H2,1H3	InChI=1S/C7H13NO/c1-6(8-3-4-8)7-2-5-9-7/h6-7H,2-5H2,1H3/t6-,7+/m0/s1
