22
gdb 19206	2.42716	2.3378	2.33759	0.0001	79.14	-0.2763	0.0677	0.344	835.4928	0.205965	-313.107632	-313.100788	-313.099844	-313.138587	28.266	
C	-0.0343101088	 1.5285110752	 0.0105825413	-0.199186
C	 1.4267726797	 2.067601967	-0.0004827256	-0.199187
C	 2.4156145087	 0.886379123	-0.0162844414	 0.017932
C	 2.191868939	 0.0196085599	 1.237508636	-0.199231
C	 0.7306377751	-0.5195436868	 1.2485646452	-0.199232
C	-0.0191224051	-0.0119554517	 0.0021417795	 0.017932
C	 0.7065651847	-0.5059314994	-1.2637660186	-0.199194
C	 2.1678638094	 0.0332370359	-1.2748252978	-0.199194
H	-0.5729354714	 1.8862078716	 0.8951187976	 0.088122
H	-0.5896353083	 1.895668886	-0.8596280865	 0.088123
H	 1.5989072597	 2.7031573262	-0.8762088788	 0.088123
H	 1.6157424752	 2.6937665826	 0.8785377836	 0.088122
H	 3.4432573366	 1.2655979171	-0.0240813385	 0.050936
H	 2.9105729743	-0.8073774547	 1.2465287749	 0.088128
H	 2.3926809216	 0.6135204013	 2.1361049604	 0.088133
H	 0.7214728846	-1.6150928241	 1.2630781305	 0.088128
H	 0.2042039556	-0.1939781803	 2.1526703171	 0.088133
H	-1.0467985252	-0.3910853433	 0.0098992435	 0.050936
H	 0.6971772102	-1.6012647411	-1.2895258594	 0.088116
H	 0.1629345116	-0.1707593593	-2.1540677439	 0.088119
H	 2.3516181287	 0.6367947237	-2.1706287006	 0.08812
H	 2.886051614	-0.7936458389	-1.3060973687	 0.088116
65.5738	266.6864	274.2224	366.5765	372.2582	504.2802	506.0786	634.4898	791.8964	793.8665	799.8044	826.2667	827.1119	875.6938	879.2589	925.1525	965.6168	968.8762	990.3349	1033.4929	1064.862	1066.7556	1118.0595	1119.3574	1132.4122	1160.5316	1161.0484	1259.1681	1259.7452	1264.4644	1294.8937	1297.354	1338.511	1339.0495	1351.5808	1354.7981	1356.5557	1380.5263	1387.8522	1388.7416	1483.1484	1484.2172	1497.1085	1499.4598	1500.7961	1520.5579	3020.5675	3022.8032	3023.2398	3029.0865	3035.5628	3035.9172	3044.866	3050.7982	3053.9025	3054.4033	3054.9576	3073.0445	3079.7948	3080.2762
C1CC2CCC1CC2	C1C[C@H]2CC[C@@H]1CC2	
InChI=1S/C8H14/c1-2-8-5-3-7(1)4-6-8/h7-8H,1-6H2	InChI=1S/C8H14/c1-2-8-5-3-7(1)4-6-8/h7-8H,1-6H2/t7-,8+
