20
gdb 58788	3.35945	1.14253	1.01454	3.1334	81.31	-0.2563	0.0232	0.2795	1260.5247	0.169826	-403.133087	-403.124063	-403.123119	-403.166803	34.409	
C	-0.1143516291	 1.5297897329	 0.1339606517	-0.391709
C	-0.0588799101	-0.0017924563	 0.0052948517	-0.083422
C	 0.8728065796	-0.6275544764	 1.0509927075	-0.404121
C	-1.4435313527	-0.5764349264	 0.0734906243	 0.488254
C	-2.2817146198	-0.9737911131	 1.2359045513	-0.335727
C	-2.0240786941	-1.9779982722	 0.1001154674	-0.27918
C	-2.8045390565	-1.5297949981	-1.0862453136	 0.446061
N	-3.5598709478	-2.0835336376	-1.9189189878	-0.559838
O	-2.3483944151	-0.2124991043	-1.0219349157	-0.31453
H	 0.8810525073	 1.9623530313	-0.0058602354	 0.113827
H	-0.7842502413	 1.9605968646	-0.6147408681	 0.137295
H	-0.4762039208	 1.825346959	 1.1248246216	 0.117713
H	 0.3287592851	-0.245814836	-0.9927756061	 0.092532
H	 0.9137800869	-1.7172372518	 0.9561993349	 0.120532
H	 1.8888151778	-0.2421507239	 0.9265669423	 0.122857
H	 0.5507760421	-0.383597711	 2.0690234891	 0.121538
H	-1.7537106075	-1.2128461043	 2.1535637243	 0.127855
H	-3.2689877314	-0.5423912436	 1.3672212715	 0.130437
H	-1.5755103317	-2.9473472078	 0.2589919295	 0.121695
H	-3.8729570809	-1.418811015	-2.6283772504	 0.227932
64.5567	117.1342	167.799	220.1229	243.9605	277.8758	310.2222	380.5769	434.0486	456.0358	495.5317	644.3046	653.1029	738.4355	845.3279	857.5127	869.9841	904.1018	933.0377	940.6025	966.1051	972.6865	991.3148	1000.3451	1047.7963	1081.7263	1103.8213	1140.1591	1142.5548	1186.4185	1220.2096	1293.6027	1346.3652	1364.1577	1397.6481	1402.7547	1424.0589	1488.0338	1489.3879	1496.1449	1503.0174	1515.6947	1831.0232	3019.142	3033.7284	3037.8119	3101.4368	3105.8546	3111.4725	3121.2492	3127.1339	3218.4794	3231.1443	3478.2797
CC(C)C12CC1C(=N)O2	CC(C)[C@]12C[C@H]1[C]([NH])O2	
InChI=1S/C7H11NO/c1-4(2)7-3-5(7)6(8)9-7/h4-5,8H,3H2,1-2H3	InChI=1S/C7H11NO/c1-4(2)7-3-5(7)6(8)9-7/h4-5,8H,3H2,1-2H3/t5-,7+/m0/s1
