17
gdb 103033	2.38561	1.78644	1.20434	3.1277	73.32	-0.2577	0.0126	0.2703	1039.7705	0.136005	-417.931139	-417.922954	-417.92201	-417.964	30.513	
C	 0.0287276854	 1.3968798443	-0.1081170223	-0.270951
O	-0.0228486392	 0.0089996854	 0.2045652636	-0.291556
C	-1.2775607557	-0.5789912787	 0.0671109122	 0.335434
C	-2.2402820025	-0.0060064455	 1.0272211164	 0.224207
N	-2.9627976588	 0.4845543832	 1.785434137	-0.34913
C	-1.8687524514	-0.9306881353	-1.3554612584	-0.09344
C	-0.7188976726	-1.9585764779	-1.5115991222	-0.224845
C	-1.3026499485	-2.1321382519	-0.085733832	-0.08257
N	-2.6723830937	-2.0483780338	-0.7278348602	-0.327409
H	 1.0636974217	 1.7083483408	 0.0401672625	 0.142127
H	-0.2587736142	 1.5829285193	-1.1515128794	 0.118774
H	-0.6233076771	 1.9813973868	 0.5529611532	 0.141813
H	-2.2983061909	-0.2516894471	-2.0919888592	 0.099574
H	-0.9404304514	-2.7798065948	-2.1914641048	 0.119824
H	 0.295230986	-1.5751427888	-1.5918484134	 0.123075
H	-1.0570555766	-2.8678911395	 0.6795325267	 0.104242
H	-3.3582083204	-1.6722480266	-0.0649182198	 0.230831
88.7765	154.9594	160.4515	176.5906	223.8342	342.2624	414.6924	500.8519	502.948	539.34	630.9497	653.9176	804.6055	821.737	882.2547	916.531	964.3068	1013.4379	1018.4911	1058.7125	1087.7665	1092.1336	1151.8355	1167.1427	1176.3531	1182.6304	1200.5334	1212.4407	1233.0691	1262.2368	1299.4393	1304.2149	1477.8997	1487.6685	1489.7661	1504.6862	2341.9549	3006.5351	3069.5326	3107.1299	3120.8807	3129.4656	3139.2003	3193.2241	3391.6999
COC1(C#N)C2CC1N2	CO[C@@]1(C#N)[C@H]2C[C@@H]1N2	
InChI=1S/C6H8N2O/c1-9-6(3-7)4-2-5(6)8-4/h4-5,8H,2H2,1H3	InChI=1S/C6H8N2O/c1-9-6(3-7)4-2-5(6)8-4/h4-5,8H,2H2,1H3/t4-,5+,6+
