16
gdb 35484	3.34449	1.55314	1.47556	0.6984	72.3	-0.2395	0.0303	0.2698	934.2222	0.125148	-400.653813	-400.646922	-400.645978	-400.685012	27.732	
C	-0.1274360566	-1.2527363598	-0.2887303241	-0.454362
C	-0.0733641411	-0.0660068342	-0.1078342147	 0.3543
C	-0.0200562272	 1.3858251339	 0.0672092271	-0.119817
O	-0.6250543919	 1.8120711082	 1.3030074699	-0.25819
C	 0.4356462563	 2.2562194109	 2.1383089058	 0.060285
C	 1.4887527681	 1.1453546272	 2.3563519238	-0.180145
N	 2.3239073147	 1.6643938607	 1.2131581974	-0.157784
C	 1.4845981188	 2.9222773558	 1.2180446354	-0.07019
C	 1.3932324354	 1.9798192105	 0.0945346953	-0.040788
H	-0.1717722691	-2.303047612	-0.4408451503	 0.202441
H	-0.5827225019	 1.8534832336	-0.7520762647	 0.117081
H	 0.0104104071	 2.7810730725	 2.992181188	 0.091365
H	 2.0633186062	 1.2733355626	 3.2769699806	 0.113262
H	 1.1491471034	 0.1109893598	 2.2633128735	 0.125097
H	 1.8903407806	 3.9260546095	 1.2131920797	 0.101908
H	 1.8978798872	 2.1541384708	-0.8481272126	 0.115536
118.601	146.4865	281.8962	371.2905	439.2292	509.843	559.5416	626.1376	656.8154	671.9389	696.5878	777.6387	811.0774	844.8912	863.6529	907.2911	915.4811	967.1342	986.8795	1010.6359	1040.5381	1051.3656	1072.0959	1120.5601	1180.6956	1190.9582	1231.7549	1267.8913	1290.8835	1302.3991	1339.2694	1346.0743	1380.9123	1495.0109	2236.0091	3014.0392	3063.6711	3123.7282	3135.1996	3187.1782	3199.0855	3501.158
C#CC1OC2CN3C2C13	C#C[C@H]1O[C@H]2CN3[C@H]2[C@H]13	
InChI=1S/C7H7NO/c1-2-4-6-7-5(9-4)3-8(6)7/h1,4-7H,3H2	InChI=1S/C7H7NO/c1-2-4-6-7-5(9-4)3-8(6)7/h1,4-7H,3H2/t4-,5+,6+,7-,8?/m1/s1
