23
gdb 58476	2.40089	1.2188	1.12584	2.1045	82.11	-0.2475	0.0599	0.3074	1275.8825	0.202254	-425.420078	-425.409182	-425.408237	-425.455201	41.439	
C	-0.4294218883	 1.4426862544	 0.1066008075	-0.41211
C	 0.071045689	 0.0098754635	-0.1162955346	 0.104932
O	 0.9368489374	-0.0578920987	-1.2426608549	-0.44431
C	 0.7877174063	-0.5492292416	 1.10426317	 0.337903
O	 1.9952437675	 0.1515377008	 1.34075087	-0.477284
C	 0.0375576864	-1.0885868301	 2.2968339619	-0.406614
C	 0.842314932	-2.029232373	 1.4070432599	 0.284109
C	 0.0945260292	-3.0113150618	 0.5220887873	-0.453755
C	 2.1355181828	-2.5940693349	 1.9683951985	-0.441713
H	 0.4029188427	 2.1156774887	 0.3423657181	 0.100169
H	-0.9039063515	 1.8140884141	-0.8050314205	 0.126242
H	-1.1561035555	 1.4895401739	 0.9247475783	 0.111878
H	-0.787256404	-0.623106242	-0.3585208052	 0.081064
H	 1.7977138253	 0.2421907968	-0.9235749334	 0.282967
H	 1.7792423566	 0.9678492923	 1.8043635446	 0.287091
H	 0.4376828313	-0.8586043011	 3.2796043116	 0.106667
H	-1.04680152	-1.1305932413	 2.249636484	 0.106983
H	-0.9006018782	-2.6570007377	 0.242767148	 0.114339
H	 0.6503501299	-3.2093421873	-0.4006886867	 0.129856
H	-0.0366787325	-3.9638307225	 1.0479627823	 0.111934
H	 1.9264201335	-3.4649078388	 2.6001615623	 0.1088
H	 2.7978721334	-2.9225507845	 1.1592349027	 0.116695
H	 2.6769657668	-1.8552182993	 2.5599276781	 0.124158
63.2663	117.4907	153.5101	195.8878	221.2503	244.9182	261.0312	292.3427	310.7452	330.755	366.0277	378.0832	446.2445	454.9191	474.5601	540.6784	552.4712	715.4456	746.8061	868.1809	911.5627	914.7701	926.6862	972.9448	987.014	1021.0487	1038.6329	1046.7752	1091.7362	1108.045	1153.6142	1169.7356	1217.7505	1284.1099	1302.3016	1308.2165	1353.0384	1393.6709	1398.0014	1408.1733	1420.605	1436.6977	1478.9752	1487.0075	1487.9679	1492.9935	1502.8725	1505.1423	1513.5442	3028.3548	3030.9715	3033.1661	3071.285	3084.3635	3091.6789	3100.263	3113.7256	3116.9389	3121.8803	3140.8928	3203.2526	3773.0031	3801.2142
CC(O)C1(O)CC1(C)C	C[C@@H](O)[C@@]1(O)CC1(C)C	
InChI=1S/C7H14O2/c1-5(8)7(9)4-6(7,2)3/h5,8-9H,4H2,1-3H3	InChI=1S/C7H14O2/c1-5(8)7(9)4-6(7,2)3/h5,8-9H,4H2,1-3H3/t5-,7+/m1/s1
