22
gdb 12411	2.73389	1.91786	1.38704	1.6231	77.16	-0.2561	0.0624	0.3185	1001.5931	0.202174	-350.233783	-350.225464	-350.22452	-350.265782	32.963	
C	-0.0136207599	 1.5654514129	 0.0109925207	-0.402568
C	 0.050159122	 0.0360001611	 0.0039624927	 0.030451
C	 0.7364584697	-0.5109520589	-1.2616577641	-0.199163
C	 0.7854244613	-2.0456527613	-1.2746985189	-0.194785
C	 1.4575060049	-2.5950852297	-0.008168429	-0.200939
C	 0.7840273196	-2.050412587	 1.2611036629	-0.21599
C	 0.7344698556	-0.514363872	 1.2763600146	 0.139497
O	 2.0305635791	 0.0511820598	 1.4796861114	-0.443085
H	 0.9918535447	 1.9924851176	 0.0625488047	 0.123526
H	-0.5048797172	 1.943843687	-0.8915371976	 0.103025
H	-0.5724557495	 1.9338578187	 0.8780874465	 0.107872
H	-0.9783665672	-0.3547470287	 0.0144561344	 0.066195
H	 0.2170551704	-0.1382322642	-2.1518969105	 0.092878
H	 1.759060542	-0.1089872364	-1.3253959498	 0.082829
H	-0.2397141096	-2.4367821834	-1.3344497062	 0.094222
H	 1.3069663494	-2.4029834387	-2.1698297153	 0.090478
H	 1.4348888981	-3.6901287383	-0.0039653307	 0.095674
H	 2.523169014	-2.3215814538	-0.0113486888	 0.085297
H	-0.2431797028	-2.4343924087	 1.31760627	 0.091993
H	 1.3075488128	-2.3974776221	 2.1581068463	 0.098553
H	 0.1629728864	-0.1830746208	 2.1513062097	 0.074987
H	 2.6067008963	-0.2543606632	 0.7720609569	 0.279053
136.2581	188.9732	216.0659	260.8203	268.7785	308.7721	324.0721	392.3577	414.9505	492.4669	569.136	642.0031	750.5157	815.3544	848.8847	859.4808	898.4893	950.8559	972.7814	998.1868	1006.4627	1039.8705	1085.5365	1098.2953	1103.5709	1142.1391	1162.608	1229.6865	1242.7282	1276.4769	1291.7713	1333.3358	1336.8378	1359.336	1370.2257	1375.7802	1385.3963	1396.88	1409.6571	1431.4739	1475.749	1490.0101	1492.6921	1495.4625	1502.9246	1507.0764	2989.9846	2998.3085	3000.7025	3014.6538	3021.0319	3032.7896	3042.9708	3056.2458	3062.0752	3065.3853	3075.7994	3095.8783	3115.9027	3821.3282
CC1CCCCC1O	C[C@H]1CCCC[C@H]1O	
InChI=1S/C7H14O/c1-6-4-2-3-5-7(6)8/h6-8H,2-5H2,1H3	InChI=1S/C7H14O/c1-6-4-2-3-5-7(6)8/h6-8H,2-5H2,1H3/t6-,7+/m0/s1
