17
gdb 54029	2.19243	1.29012	0.93655	1.9644	69.81	-0.257	-0.0546	0.2024	1264.1748	0.131741	-458.961823	-458.952073	-458.951129	-458.998068	33.133	
C	-0.4493420959	 1.4113943854	 0.1268464144	-0.485872
C	-0.1531120866	-0.0687466993	 0.1270402342	 0.374798
O	 0.9349607037	-0.5353255887	 0.3646701781	-0.289249
C	-1.3451989273	-0.9920606285	-0.215913091	-0.229349
C	-1.5636839381	-0.9497419423	-1.734641577	 0.153696
O	-1.9815441494	 0.0113276099	-2.3250112099	-0.241659
C	-1.1098358388	-2.4057428055	 0.261168865	 0.082501
C	-1.753039929	-2.9348235697	 1.4671059325	-0.179258
O	-2.2367891979	-3.2824148264	 0.1678428456	-0.244984
H	 0.4789931755	 1.9801758916	 0.189454248	 0.144822
H	-1.0188387732	 1.6801746122	-0.7681142807	 0.17231
H	-1.0808730786	 1.6516780551	 0.9909684989	 0.145082
H	-2.2530776001	-0.5720983812	 0.2311742313	 0.120895
H	-1.2880462532	-1.8838210913	-2.26805461	 0.110858
H	-0.163285584	-2.8430931018	-0.0504745659	 0.121941
H	-1.2769269886	-3.7419177052	 2.0206979865	 0.127155
H	-2.4090299885	-2.2927846044	 2.0538082301	 0.116312
42.2191	58.4879	71.4646	162.3101	172.4506	193.9617	200.5971	337.844	372.8987	438.2148	516.479	583.4454	602.65	788.2366	856.6701	883.1248	930.8267	960.4755	972.3785	1023.6792	1086.3776	1101.4245	1144.937	1163.7421	1166.0907	1181.1347	1223.1759	1269.3726	1289.7725	1386.9654	1423.0207	1448.4818	1466.4626	1473.846	1530.8655	1801.1308	1829.6765	2914.0245	3036.7995	3060.1089	3086.4775	3104.4968	3137.2115	3157.9543	3175.5108
CC(=O)C(C=O)C1CO1	CC(=O)[C@@H](C=O)[C@H]1CO1	
InChI=1S/C6H8O3/c1-4(8)5(2-7)6-3-9-6/h2,5-6H,3H2,1H3	InChI=1S/C6H8O3/c1-4(8)5(2-7)6-3-9-6/h2,5-6H,3H2,1H3/t5-,6-/m1/s1
