17
gdb 31004	3.15865	1.19042	0.88955	2.7767	72.61	-0.1988	0.0273	0.226	1272.473	0.136259	-455.184539	-455.175486	-455.174542	-455.218321	33.195	
C	 0.0470260876	 1.4268983036	-0.2411665004	-0.506257
C	-0.1092375166	-0.0417535653	-0.1056365251	 0.253948
C	-1.1449800225	-0.9124450051	-0.0313113038	 0.119243
C	-2.6220152434	-0.6550250901	-0.0819128439	-0.174893
O	-2.9758161753	 0.4962524504	-0.8387084525	-0.406874
N	-0.6605596535	-2.2193340008	 0.1100316729	-0.3864
C	 0.6259432406	-2.0690084376	 0.1248439245	 0.43639
N	 1.5877345645	-3.030540046	 0.3155270082	-0.589848
O	 1.0584000778	-0.7978712502	-0.0060759464	-0.21568
H	 0.6544023864	 1.6922291057	-1.1150403647	 0.127324
H	-0.9414943272	 1.8747404113	-0.352483469	 0.157935
H	 0.5344673256	 1.8649469425	 0.6382652618	 0.133343
H	-3.1151220224	-1.5624031721	-0.4594025436	 0.111416
H	-3.0208060483	-0.4736408333	 0.9231520872	 0.12612
H	-2.6396421986	 0.3621832142	-1.7313591892	 0.281748
H	 1.2464051374	-3.9638976733	 0.1397437506	 0.269668
H	 2.4734168179	-2.835787674	-0.1281275767	 0.262816
63.6884	165.7647	192.6258	195.9904	224.2573	272.2542	303.0951	330.6657	379.2615	395.8665	501.821	599.8211	638.8603	646.4132	731.2585	756.3699	807.696	961.2817	979.039	1024.7904	1066.0396	1071.9098	1131.5155	1154.2122	1199.9163	1226.4302	1308.0405	1382.6951	1409.946	1421.6807	1443.4217	1486.9592	1492.7671	1502.264	1604.7959	1676.2287	1699.2549	3004.9385	3022.1492	3055.3098	3067.212	3146.4918	3574.8385	3683.4517	3807.5126
CC1=C(CO)N=C(N)O1	Cc1c(CO)nc(N)o1	
InChI=1S/C5H8N2O2/c1-3-4(2-8)7-5(6)9-3/h8H,2H2,1H3,(H2,6,7)	InChI=1S/C5H8N2O2/c1-3-4(2-8)7-5(6)9-3/h8H,2H2,1H3,(H2,6,7)
