16
gdb 44222	4.105	1.24493	1.14745	1.0316	70.12	-0.263	0.0175	0.2805	1070.8648	0.124493	-437.83941	-437.832179	-437.831235	-437.871383	27.992	
N	 0.3074061904	 0.9368434135	-0.5481183656	-0.541495
C	 0.0722015426	-0.1936969127	-0.0641153253	 0.435799
O	 0.9259075787	-1.1132064136	 0.532237013	-0.266921
C	-0.1804810182	-2.0357903149	 0.7849742688	-0.004544
C	-1.1658104998	-1.046478356	 0.0985409376	-0.169898
C	-1.3825274588	-2.0730270081	-1.0610326187	-0.339746
C	-0.3748730466	-3.012418527	-0.3764449171	 0.436285
C	 0.5654681471	-3.9945646158	-0.9102212394	-0.252959
O	-0.6121764274	-4.3928601215	-0.1892447243	-0.264505
H	 1.2979765143	 1.1765378329	-0.4794396297	 0.231209
H	-0.2073548875	-2.3874938855	 1.8153975302	 0.107263
H	-2.0374044559	-0.5969412634	 0.5666672681	 0.113217
H	-2.3887199911	-2.4985405524	-1.0531455288	 0.133362
H	-1.1459190886	-1.7211343369	-2.0666639581	 0.129836
H	 0.5552820416	-4.2194826639	-1.975440671	 0.124512
H	 1.5105107691	-4.1723455847	-0.4000953098	 0.128585
69.9898	171.2988	226.9627	327.7004	339.1067	416.2727	463.6369	558.5126	648.7333	748.0977	785.8886	853.0034	856.5144	873.2695	886.7235	913.237	946.5183	954.3817	1001.0197	1002.3617	1056.7404	1119.559	1141.0942	1144.5	1158.3642	1182.8734	1197.3692	1241.6705	1253.0076	1275.524	1318.932	1435.3612	1472.5823	1534.1814	1826.6311	3074.5723	3089.2952	3132.142	3133.9431	3157.3554	3179.5955	3477.5014
N=C1OC2C1CC21CO1	[NH][C]1O[C@H]2[C@@H]1C[C@]12CO1	
InChI=1S/C6H7NO2/c7-5-3-1-6(2-8-6)4(3)9-5/h3-4,7H,1-2H2	InChI=1S/C6H7NO2/c7-5-3-1-6(2-8-6)4(3)9-5/h3-4,7H,1-2H2/t3-,4-,6+/m0/s1
