19
gdb 103382	2.59993	1.49429	1.24099	3.7876	75.54	-0.2438	-0.0196	0.2242	1082.1349	0.158535	-423.01666	-423.007955	-423.007011	-423.049596	33.402	
C	-0.0938303244	 1.62818672	-0.1199847169	-0.45269
C	-0.0142331705	 0.1051356238	-0.0990247936	 0.13933
C	-1.3954294144	-0.5136987933	 0.212373913	-0.094422
O	-1.86971309	-0.1228801791	 1.481771058	-0.426446
C	 0.7216975435	-0.6262701562	-1.2460839278	-0.090886
C	 2.1525535848	-0.2403115146	-1.2946324455	-0.302482
C	 1.7363131074	-1.2677448556	-0.248177432	-0.164144
C	 0.9863157735	-0.6075361764	 0.8554882094	 0.396562
O	 0.9452420165	-0.7752136114	 2.0499842681	-0.356433
H	 0.886704778	 2.1012311246	-0.215327864	 0.11316
H	-0.7146070521	 1.9638163262	-0.958742835	 0.11832
H	-0.5585583701	 1.9817489272	 0.8032465725	 0.146908
H	-2.1301215606	-0.1624440795	-0.5221845589	 0.106309
H	-1.3350224145	-1.6109211995	 0.1191497884	 0.087117
H	-1.183577427	-0.3664809356	 2.1196433156	 0.297524
H	 0.2279149298	-1.1475253166	-2.0566897364	 0.108992
H	 2.7374318317	-0.6666968362	-2.1033759183	 0.130915
H	 2.4807542846	 0.748094393	-0.990773971	 0.12832
H	 2.1723838938	-2.2585241607	-0.2257753857	 0.114044
122.9332	153.2788	174.2686	192.236	248.1808	260.6933	318.0172	386.0451	472.9306	504.4213	540.1372	642.8659	692.5425	738.3013	790.0437	842.9819	898.8869	917.9952	937.1383	953.6945	984.4183	1018.6747	1050.3267	1083.8964	1090.0438	1112.3681	1156.299	1170.3992	1192.3878	1210.836	1265.7255	1298.0744	1340.084	1378.5624	1407.369	1450.012	1486.4155	1490.0518	1508.293	1509.1308	1837.9348	2963.6856	3036.5272	3051.1496	3104.5989	3129.8022	3132.331	3192.9966	3199.6823	3213.799	3735.1553
CC1(CO)C2CC2C1=O	C[C@@]1(CO)[C@H]2C[C@H]2C1=O	
InChI=1S/C7H10O2/c1-7(3-8)5-2-4(5)6(7)9/h4-5,8H,2-3H2,1H3	InChI=1S/C7H10O2/c1-7(3-8)5-2-4(5)6(7)9/h4-5,8H,2-3H2,1H3/t4-,5+,7-/m1/s1
