14
gdb 125658	3.44199	1.64927	1.12277	2.6557	69.95	-0.2456	-0.034	0.2115	1005.3661	0.103382	-432.851509	-432.844492	-432.843547	-432.883037	26.315	
C	-0.0155909426	 1.4912903421	-0.0185945019	-0.500536
C	-0.0065537008	-0.0001683749	 0.0435573193	 0.193749
N	-0.0387229676	-0.7463084898	-1.0640281627	-0.259743
N	-0.0203217093	-2.0508147472	-0.6870166405	-0.367441
C	 0.0238889989	-2.1645002906	 0.6662845809	 0.263232
C	 0.0335626224	-0.8766847159	 1.1534991678	 0.297404
O	 0.0771558125	-0.8808390819	 2.4996974143	-0.243357
N	 0.0965631403	-2.2247163977	 2.9085336061	-0.125747
C	 0.0652085507	-2.9759527713	 1.8283006649	-0.105062
H	 0.881121832	 1.9140619151	 0.4467490244	 0.139548
H	-0.0533799965	 1.8140880454	-1.060553957	 0.147463
H	-0.8815262141	 1.9058920949	 0.5082771599	 0.139523
H	-0.0400997397	-2.7599070857	-1.3975649298	 0.279612
H	 0.0740856737	-4.0491916525	 1.9473783642	 0.141356
111.636	180.6105	244.6052	273.6282	330.9756	420.6592	520.5687	616.7129	620.139	672.1932	680.5507	753.1238	841.6999	876.2495	885.0491	964.6672	1001.759	1066.5782	1122.7557	1156.1228	1213.7095	1263.9698	1363.0658	1414.5418	1425.2067	1431.0159	1481.3696	1495.0293	1522.8906	1595.3871	1610.6342	3039.9599	3092.8035	3140.1021	3252.8337	3696.7016
CC1=NNC2=C1ON=C2	Cc1n[nH]c2c1onc2	
InChI=1S/C5H5N3O/c1-3-5-4(8-7-3)2-6-9-5/h2H,1H3,(H,7,8)	InChI=1S/C5H5N3O/c1-3-5-4(8-7-3)2-6-9-5/h2H,1H3,(H,7,8)
