18
gdb 90498	3.48284	1.16945	0.97034	3.7922	74.97	-0.2381	0.0054	0.2435	1212.2894	0.145735	-439.059174	-439.05019	-439.049246	-439.092744	33.152	
C	-0.2313135296	 1.3983916791	-0.1108713614	-0.514487
C	 0.011287639	-0.0702336049	 0.0303797378	 0.312413
C	 0.4787015189	-1.1263287373	-0.9476681191	-0.087027
C	 1.2990056209	-1.8324179324	 0.1362854201	-0.279607
C	 0.7920352086	-0.7586630692	 1.1700997779	 0.075006
O	 1.7919960534	 0.1143488973	 1.6433885276	-0.436367
N	-0.8968699706	-1.0983215042	-0.4765592976	-0.113156
C	-1.9859954855	-0.8754982879	-1.2943581828	 0.131357
O	-2.1341047028	-1.3411264496	-2.4001218232	-0.300676
H	 0.6902536135	 1.9421261159	 0.1102247107	 0.152976
H	-0.5559147299	 1.6482853282	-1.1256177634	 0.135149
H	-1.0000441022	 1.7445859914	 0.5893291992	 0.131754
H	 0.6729223042	-1.0467990614	-2.0102637618	 0.120901
H	 1.0488477513	-2.879261289	 0.3225364821	 0.111139
H	 2.3746737043	-1.7165937716	-0.0142376917	 0.111784
H	 0.1629512019	-1.1429280911	 1.9834788225	 0.076899
H	 2.3551343151	-0.371737307	 2.2539469884	 0.290507
H	-2.7648526804	-0.2787484862	-0.7815949955	 0.081436
87.1474	133.9276	176.5011	218.566	234.2109	254.1376	261.2215	333.0445	371.5556	447.6358	513.5041	611.1384	702.407	738.5432	823.6485	863.8659	908.5258	934.2029	971.9475	1013.8944	1032.1491	1051.9347	1078.5031	1131.7685	1167.8507	1189.775	1208.836	1246.7837	1263.769	1286.1818	1334.6768	1403.5696	1418.9029	1419.5575	1447.5183	1473.0226	1478.6485	1499.8551	1788.0404	2947.5015	3017.8793	3035.6059	3067.2391	3099.1274	3128.7214	3131.2168	3200.7022	3821.437
CC12C(CC1O)N2C=O	C[C@@]12[C@@H](C[C@H]1O)N2C=O	
InChI=1S/C6H9NO2/c1-6-4(2-5(6)9)7(6)3-8/h3-5,9H,2H2,1H3	InChI=1S/C6H9NO2/c1-6-4(2-5(6)9)7(6)3-8/h3-5,9H,2H2,1H3/t4-,5-,6-,7?/m1/s1
