20
gdb 15192	8.99711	0.64755	0.63244	2.4686	73.18	-0.2526	0.0894	0.342	1781.0536	0.175173	-386.106283	-386.096807	-386.095863	-386.141724	32.438	
C	 0.0122851312	 1.3374607616	-0.1722285855	-0.22701
O	-0.0183543821	-0.0682600602	-0.1670011522	-0.229656
C	-1.307832783	-0.589155627	 0.0670433091	-0.051485
C	-1.2315123142	-2.1091498973	 0.0416489533	-0.19144
C	-2.5880363342	-2.7727900975	 0.3100256329	-0.224325
C	-2.5050236488	-4.2788358123	 0.2603537081	 0.100929
C	-3.5941274117	-5.1141781768	-0.258469908	-0.181914
O	-2.4230599559	-4.8707775368	-1.040059762	-0.235505
H	 1.0446435999	 1.6430412296	-0.3596672391	 0.126264
H	-0.6313434559	 1.7590854407	-0.9611971227	 0.102013
H	-0.3127540419	 1.7588089823	 0.792965742	 0.100737
H	-1.6920591053	-0.2381093822	 1.0420495402	 0.079533
H	-2.0139942422	-0.2272886124	-0.7015543676	 0.083483
H	-0.8535587436	-2.4314196898	-0.9345150274	 0.125332
H	-0.4978447871	-2.4345182009	 0.7892305999	 0.105316
H	-2.9653828124	-2.4722317542	 1.2972341616	 0.099936
H	-3.324582092	-2.4374935631	-0.4302719256	 0.103479
H	-1.8267541001	-4.7309121491	 0.9876700771	 0.090217
H	-3.7157925897	-6.1359611035	 0.0989241598	 0.113276
H	-4.5053293008	-4.640036821	-0.6220378138	 0.11082
52.4459	69.4277	104.1885	115.8842	138.8156	232.6421	235.3741	312.0467	402.8978	443.2845	520.3074	753.5526	796.3762	857.9848	888.3354	947.7629	986.9507	1029.8803	1057.2847	1068.291	1109.9354	1157.988	1160.3013	1166.8204	1175.3482	1190.2392	1223.99	1232.1734	1276.8201	1296.41	1304.63	1317.373	1370.2027	1428.7483	1449.426	1472.5147	1481.538	1484.9718	1497.6672	1506.7284	1530.5845	1532.8605	2934.5169	2959.9039	2966.4593	3007.1193	3015.147	3037.4714	3056.5653	3079.1331	3084.7458	3092.8049	3112.1131	3165.0236
COCCCC1CO1	COCCC[C@H]1CO1	
InChI=1S/C6H12O2/c1-7-4-2-3-6-5-8-6/h6H,2-5H2,1H3	InChI=1S/C6H12O2/c1-7-4-2-3-6-5-8-6/h6H,2-5H2,1H3/t6-/m0/s1
