19
gdb 97884	4.80138	0.57049	0.52184	3.4821	82.28	-0.2383	-0.0109	0.2273	2111.645	0.155013	-423.008314	-422.997146	-422.996202	-423.048265	37.322	
C	 0.0925187846	 0.9650755931	-0.767188026	-0.363172
C	-0.2621375623	 0.5186831191	 0.6632498503	-0.316238
C	-1.5077225362	-0.2381958219	 0.7279591731	 0.13683
C	-2.5365849704	-0.8620300427	 0.7468129111	 0.040059
C	-3.7700616054	-1.6283940577	 0.7683812895	-0.492397
C	-3.8989220511	-2.6616273082	-0.3676023195	 0.386172
O	-3.2360426774	-2.6356516792	-1.3673539326	-0.258288
C	-4.966187733	-3.7223237296	-0.1068395527	-0.172742
O	-5.1699504558	-4.4843521041	-1.2651861609	-0.393891
H	 1.0354422904	 1.5201281226	-0.7704348989	 0.111206
H	 0.1953121017	 0.1002766429	-1.4275957572	 0.137484
H	-0.689612337	 1.6094240076	-1.1774433454	 0.127878
H	 0.5551795553	-0.0905934909	 1.0701631548	 0.127902
H	-0.3347088387	 1.3984497742	 1.3158144119	 0.125776
H	-3.9015556471	-2.1416953671	 1.7311427537	 0.137672
H	-4.6422579791	-0.9626706859	 0.6783156815	 0.153731
H	-4.6109746375	-4.3285802845	 0.7461028479	 0.113078
H	-5.8822511379	-3.2109163337	 0.2382459868	 0.105094
H	-5.8122222131	-5.1707255441	-1.0627447374	 0.293847
7.8438	29.5932	57.6533	96.4072	140.2773	192.007	225.0567	249.4229	271.3678	327.2065	354.9263	401.5712	456.4293	524.3302	674.0652	751.0164	786.1109	796.4265	871.7239	960.1303	1017.8188	1045.6387	1080.4955	1105.2134	1147.7573	1172.0046	1206.5849	1235.6799	1268.3887	1285.4181	1337.0521	1352.5133	1409.0913	1439.7412	1444.6924	1475.8582	1493.8136	1493.8544	1505.5849	1850.1527	2376.8845	2943.7716	2965.4597	2998.3327	3017.8668	3029.5118	3044.4325	3045.0045	3117.795	3126.9487	3835.718
CCC#CCC(=O)CO	CCC#CCC(=O)CO	
InChI=1S/C7H10O2/c1-2-3-4-5-7(9)6-8/h8H,2,5-6H2,1H3	InChI=1S/C7H10O2/c1-2-3-4-5-7(9)6-8/h8H,2,5-6H2,1H3
