18
gdb 34860	3.7153	1.25695	1.15954	4.2799	75.8	-0.2587	0.0309	0.2896	1092.5823	0.150618	-401.950397	-401.943114	-401.94217	-401.98204	28.817	
N	-0.0079724045	-1.1341444175	-0.047162398	-0.332052
C	-0.0116134583	 0.0221432408	-0.0067702957	 0.267732
C	 0.0032365239	 1.4710106423	 0.0507418439	-0.173591
C	-0.1211281875	 2.0667280457	 1.4995142266	-0.023796
C	 1.4242389818	 1.922099454	 1.6175369367	-0.278978
C	 1.4456017799	 2.1090123011	 0.0776246855	 0.130181
O	 1.3459744075	 3.4579933387	-0.3222570908	-0.272084
C	 0.6536078828	 4.2883439422	 0.6146330478	-0.070204
C	-0.488931956	 3.5511841	 1.3474131814	-0.249301
H	-0.6615985443	 1.8868643758	-0.7105410881	 0.117149
H	-0.7609419258	 1.5397868935	 2.2080198957	 0.091372
H	 1.9787215254	 2.63103043	 2.23495278	 0.109911
H	 1.7155771528	 0.9041607119	 1.8828818125	 0.133856
H	 2.2291955908	 1.6456291426	-0.5222214241	 0.102416
H	 1.372006036	 4.6711816594	 1.3515161489	 0.106782
H	 0.2840247851	 5.1452694911	 0.0462273678	 0.117866
H	-1.4363215571	 3.6406476243	 0.8042244441	 0.112437
H	-0.6350170525	 4.013674554	 2.329563396	 0.110305
135.3664	145.1337	236.7242	304.655	371.476	430.1392	473.1169	494.4237	544.9817	622.9968	805.7199	823.1391	852.5361	880.1995	905.4861	922.0925	936.8312	958.6749	1031.0691	1036.414	1079.7715	1090.3042	1107.854	1124.2027	1172.3017	1214.5727	1232.9786	1246.7603	1272.9068	1288.8469	1292.9236	1332.2204	1350.6566	1381.7616	1413.1462	1488.4975	1492.5198	1526.5132	2347.4404	3012.4211	3037.6452	3077.904	3079.7767	3083.0918	3097.9974	3106.6289	3114.9262	3135.9734
N#CC1C2CC1OCC2	N#C[C@H]1[C@H]2C[C@@H]1OCC2	
InChI=1S/C7H9NO/c8-4-6-5-1-2-9-7(6)3-5/h5-7H,1-3H2	InChI=1S/C7H9NO/c8-4-6-5-1-2-9-7(6)3-5/h5-7H,1-3H2/t5-,6+,7+/m1/s1
