20
gdb 88513	2.49508	1.30775	1.13229	2.4292	80.75	-0.2229	-0.0251	0.1978	1191.3644	0.168789	-403.109801	-403.100517	-403.099573	-403.144036	34.694	
C	-1.7939211295	 0.8254901299	 1.2366148218	-0.420225
C	-0.9549437502	-0.4072292707	 0.9828055879	 0.022594
C	 0.1093292578	-0.4280920551	-0.0679835532	-0.276189
N	 0.4586155772	-0.5039003971	 1.345444691	-0.159477
C	 1.1708092029	 0.5200539788	 2.0625947732	 0.255775
C	 1.1985707489	 0.3370745139	 3.5735443629	-0.279529
C	 2.4248511274	 0.0147775454	 2.7965089995	-0.272737
C	 1.3022802172	 1.924418295	 1.5796226684	 0.095425
O	 1.7965178549	 2.8193160757	 2.2275414542	-0.279978
H	-1.2921852225	 1.7493552639	 0.9378052211	 0.122705
H	-2.7286768499	 0.7616319834	 0.6696403944	 0.12721
H	-2.0559103002	 0.9112608529	 2.2966927831	 0.131062
H	-1.4897660527	-1.3388068469	 1.1669570036	 0.092813
H	 0.3106686988	-1.3269899232	-0.6466915554	 0.11669
H	 0.2736637476	 0.4955425911	-0.6182588838	 0.117663
H	 1.1928640737	 1.2504189266	 4.1565055249	 0.140288
H	 0.5999865675	-0.4830868782	 3.9508213321	 0.125756
H	 2.6622073112	-1.0260321949	 2.6152551848	 0.129295
H	 3.2588752258	 0.7043021662	 2.8507661792	 0.13606
H	 0.9461850141	 2.1162008633	 0.5462018304	 0.074799
56.5834	93.6086	166.2454	198.8872	236.5325	265.1673	299.3194	323.9809	377.3883	429.108	520.6157	575.6562	701.7496	789.7341	794.0885	816.9809	826.1315	899.9334	937.7736	977.0442	987.0585	1036.5951	1047.7594	1058.6808	1066.7797	1099.0296	1115.7039	1136.4995	1156.2398	1189.3685	1209.2296	1234.1742	1298.4664	1364.1177	1405.6181	1422.4898	1438.6047	1439.9072	1472.5305	1489.3525	1499.3038	1518.9055	1792.6236	2907.0361	3038.2325	3095.0799	3097.3813	3099.6825	3123.8414	3146.7054	3147.7214	3174.7866	3239.905	3254.0664
CC1CN1C1(CC1)C=O	C[C@H]1CN1C1(CC1)C=O	
InChI=1S/C7H11NO/c1-6-4-8(6)7(5-9)2-3-7/h5-6H,2-4H2,1H3	InChI=1S/C7H11NO/c1-6-4-8(6)7(5-9)2-3-7/h5-6H,2-4H2,1H3/t6-,8?/m0/s1
