23
gdb 96176	2.269	1.71819	1.1313	1.2666	85.32	-0.2382	0.0818	0.3201	1167.2877	0.208059	-388.295734	-388.287452	-388.286508	-388.328151	33.477	
C	-0.1088770858	 1.5869479967	-0.030026511	-0.401405
C	 0.0223804175	 0.0610050902	-0.0213152368	-0.000716
C	 0.6180576953	-0.4880115154	-1.3286341776	-0.203515
C	 0.8981944452	-1.984610221	-1.2010190801	-0.078079
O	 1.8471497868	-2.2365973058	-0.1775759631	-0.266623
C	 1.3839529559	-1.8952047662	 1.1191734822	 0.102632
C	 2.5935330953	-1.4125178218	 1.9469872105	-0.232321
C	 2.2571014535	 0.0434083919	 1.5173245918	-0.238473
C	 0.8136545722	-0.4471889423	 1.1878622561	 0.01848
H	 0.8735523112	 2.0658751795	-0.1071437334	 0.117676
H	-0.7118038085	 1.9265727718	-0.87922665	 0.108937
H	-0.585554701	 1.9507809885	 0.8867542952	 0.109346
H	-0.9894642818	-0.3644557965	 0.065107995	 0.06666
H	-0.0700708994	-0.3025016343	-2.1623497087	 0.089271
H	 1.5586154333	 0.0239011854	-1.5688905754	 0.100644
H	-0.0400593012	-2.5327822921	-1.0040772876	 0.079624
H	 1.3324342154	-2.3888672658	-2.1203636025	 0.102211
H	 0.7570747219	-2.7060249883	 1.5187105643	 0.052865
H	 2.4394882224	-1.5710246203	 3.0178276988	 0.097513
H	 3.5587213581	-1.8284029896	 1.6522550324	 0.106074
H	 2.3580858457	 0.8320298819	 2.2660547973	 0.092934
H	 2.813359125	 0.3342578852	 0.6232254063	 0.108889
H	 0.2010567531	-0.3529606916	 2.0920080163	 0.067376
125.0556	159.0055	214.7901	241.4871	281.4743	329.876	374.9477	406.9445	466.0118	543.7315	597.991	691.2398	738.6747	815.5382	849.786	899.1882	901.4258	933.0594	939.046	971.7834	979.9031	999.7262	1025.2252	1054.1129	1097.3112	1104.1343	1140.8697	1153.8803	1200.5883	1220.5526	1223.7228	1248.2838	1257.8885	1270.2671	1284.6407	1296.4777	1334.587	1350.3258	1357.5175	1371.5799	1395.0843	1408.9562	1413.9901	1469.4676	1478.9151	1492.9108	1496.3745	1498.52	1501.2673	2951.8386	2979.2165	2986.3575	3022.8482	3027.0174	3037.3551	3064.2723	3066.1364	3069.3231	3079.725	3094.0632	3095.9266	3114.8015	3130.2202
CC1CCOC2CCC12	C[C@H]1CCO[C@H]2CC[C@@H]12	
InChI=1S/C8H14O/c1-6-4-5-9-8-3-2-7(6)8/h6-8H,2-5H2,1H3	InChI=1S/C8H14O/c1-6-4-5-9-8-3-2-7(6)8/h6-8H,2-5H2,1H3/t6-,7-,8-/m0/s1
