13
gdb 132109	3.14489	1.46141	0.99803	4.4302	69.13	-0.2083	-0.051	0.1573	1066.6868	0.089061	-494.053424	-494.045726	-494.044782	-494.085817	28.725	
N	 0.0746929601	 1.3378657982	 0.1129078466	-0.571118
C	-0.0160722107	-0.0066482626	 0.0419605418	 0.381675
C	-1.18259048	-0.7232841375	 0.0209534701	 0.07706
F	-2.3635729052	-0.0722772754	 0.0302465462	-0.092717
C	-1.0910202156	-2.1222364997	-0.0157111934	-0.062005
N	 0.039628258	-2.7775335102	-0.0295372252	-0.334864
C	 1.2168104446	-2.0672404244	-0.0099314746	 0.426291
N	 2.4029520534	-2.506786778	-0.0189430303	-0.53228
O	 1.1524916849	-0.6390601873	 0.0211014298	-0.230499
H	 0.9668838154	 1.7613058156	-0.0826848652	 0.284877
H	-0.7585024872	 1.8770545082	-0.0505726237	 0.285389
H	-2.0133816435	-2.7025288703	-0.0354308214	 0.132589
H	 2.3610090558	-3.5238751767	-0.0436389107	 0.235602
70.5858	175.5916	261.4859	286.7069	322.6267	358.6321	432.8335	459.1635	478.0525	523.9389	592.708	701.6926	732.6809	748.5619	795.7308	843.2191	886.3393	986.2329	992.0967	1087.7497	1227.849	1262.2409	1316.0794	1436.3573	1452.1024	1567.9168	1637.371	1697.5358	1747.8359	3137.3778	3526.4072	3609.911	3737.7505
NC1=C(F)C=NC(=N)O1	N[C@@H]1C(=CN=C([NH])O1)F	
InChI=1S/C4H4FN3O/c5-2-1-8-4(7)9-3(2)6/h1,7H,6H2	InChI=1S/C4H5FN3O/c5-2-1-8-4(7)9-3(2)6/h1,3,7H,6H2/t3-/m0/s1
