19
gdb 95011	2.98158	1.69891	1.38693	1.4814	74.11	-0.2402	0.0774	0.3176	977.1836	0.161975	-422.976314	-422.969297	-422.968353	-423.007528	28.947	
O	 0.1140419807	 1.424038698	-0.171850608	-0.439745
C	 0.0677127493	 0.0099240152	-0.0111209395	 0.082519
C	 0.7492790487	-0.4626940697	 1.2729988538	-0.113212
O	-0.1223879322	-0.3264996314	 2.3905027536	-0.289016
C	-1.4272293942	-0.7730674528	 2.1190657825	 0.163989
C	-1.6939573866	-1.7373472752	 0.9147116649	-0.121135
C	-3.1595755369	-1.2354639757	 0.9565829675	-0.242825
C	-2.3027727062	 0.0446125846	 1.1244312972	-0.097332
C	-1.3717381949	-0.5079412305	-0.0067372783	-0.011945
H	-0.2851093597	 1.812834622	 0.6146386752	 0.285381
H	 0.6152686506	-0.3900339811	-0.8716426039	 0.086576
H	 1.0529079344	-1.5150456293	 1.1628622603	 0.093082
H	 1.6386102576	 0.1361640613	 1.484916224	 0.113918
H	-1.8872528532	-1.0334017468	 3.075859368	 0.079715
H	-1.3546928425	-2.7667677055	 0.7904466658	 0.07564
H	-3.7185250599	-1.3187373386	 0.0218809275	 0.099474
H	-3.7643556323	-1.5417091145	 1.8150916085	 0.09362
H	-2.6605227852	 1.0690290847	 1.2427483755	 0.071169
H	-1.8198556076	-0.5261168846	-1.0041525046	 0.070127
120.6754	192.7608	325.1563	355.3491	379.6288	429.444	459.097	548.4484	606.1592	754.7833	778.7585	829.5979	839.6024	871.6818	899.7078	905.5384	958.4105	975.0296	1012.5738	1022.2011	1054.9793	1070.9286	1089.6081	1106.3467	1113.0509	1148.4035	1162.3916	1173.4664	1208.6342	1239.3266	1244.5831	1253.3255	1267.1561	1293.3584	1329.7596	1359.9229	1394.3392	1416.0705	1434.6557	1495.6472	1516.167	2987.111	3052.2201	3052.548	3071.3694	3078.8833	3094.8527	3099.8559	3104.5304	3120.0681	3800.8178
OC1COC2C3CC2C13	O[C@H]1CO[C@@H]2[C@H]3C[C@@H]2[C@@H]13	
InChI=1S/C7H10O2/c8-5-2-9-7-3-1-4(7)6(3)5/h3-8H,1-2H2	InChI=1S/C7H10O2/c8-5-2-9-7-3-1-4(7)6(3)5/h3-8H,1-2H2/t3-,4+,5-,6-,7+/m0/s1
