17
gdb 6322	4.40772	1.10139	1.06971	5.2768	67.1	-0.2403	-0.0282	0.212	1166.1797	0.139276	-401.042325	-401.03286	-401.031916	-401.07785	31.743	
C	-0.1382371911	 1.4561411876	 0.0445500425	-0.352808
N	 0.0397629057	 0.0133041295	-0.0069080068	-0.007617
C	-0.0680371865	-0.7419553204	 1.2113388051	-0.300722
C	-1.4976852404	-0.8449199519	 1.7714644744	 0.381255
C	-1.6194868615	-1.5123064404	 3.127936963	-0.478208
O	-2.4471372766	-0.4167086566	 1.1631699864	-0.275749
C	 0.2324137513	-0.6097413886	-1.2071146959	 0.162701
O	 0.3038755662	-0.0609747815	-2.2842271114	-0.336625
H	 0.5930244522	 1.907045498	 0.7263846174	 0.116661
H	 0.0189505394	 1.8414299959	-0.9627416779	 0.169871
H	-1.1479384467	 1.7101253759	 0.3789526008	 0.14851
H	 0.2927684063	-1.7639706597	 1.0369375261	 0.139449
H	 0.5848089011	-0.3209419074	 1.9905844939	 0.125867
H	-1.0883965166	-2.470251273	 3.1460741679	 0.139801
H	-1.1599049552	-0.8790571708	 3.8960467144	 0.147531
H	-2.6714434236	-1.6643424449	 3.3707662356	 0.152761
H	 0.3329725261	-1.7071317016	-1.0840659556	 0.067322
39.3692	53.0953	98.6766	128.3095	155.5261	273.4835	298.4628	340.5774	371.399	385.2511	468.3891	572.8504	731.562	804.9551	844.8826	881.6973	967.4221	1026.051	1066.3398	1102.1506	1155.3162	1184.2003	1231.6056	1291.7379	1373.4431	1384.0551	1421.3488	1439.3353	1442.3069	1455.8328	1465.0849	1476.2708	1495.7343	1521.7147	1803.7125	1828.814	2924.5854	2999.2662	3027.5664	3037.0307	3052.6272	3097.0292	3098.4377	3156.3572	3161.2804
CN(CC(C)=O)C=O	CN(CC(=O)C)C=O	
InChI=1S/C5H9NO2/c1-5(8)3-6(2)4-7/h4H,3H2,1-2H3	InChI=1S/C5H9NO2/c1-5(8)3-6(2)4-7/h4H,3H2,1-2H3
