20
gdb 107574	3.20861	1.29047	1.0653	1.7118	79.71	-0.2265	0.0213	0.2478	1174.8921	0.172023	-403.126131	-403.117725	-403.11678	-403.159103	32.69	
O	 0.2006868858	 1.3700449227	 0.4392064563	-0.415008
C	 0.1068156567	-0.0077883125	 0.1033797805	-0.132557
C	-1.3262659704	-0.4480202817	-0.1307350133	 0.272729
C	-2.1079519016	-0.9872005715	 1.0234784844	-0.295532
N	-1.5328107102	-1.8915925642	 0.0271132494	-0.130785
C	-2.4692474198	-2.5769776174	-0.8701373596	-0.202375
C	-3.4458433758	-1.7016577222	-1.6096827135	-0.065303
C	-3.2658469123	-0.3919890803	-1.759170661	-0.067577
C	-2.0661905954	 0.32927835	-1.2140751251	-0.309374
H	-0.2842924072	 1.4993380711	 1.2611872743	 0.282699
H	 0.6889045376	-0.1263732253	-0.8177939941	 0.107747
H	 0.5615199675	-0.6535112344	 0.8679487047	 0.09563
H	-1.6656553959	-1.049250561	 2.0159765248	 0.103623
H	-3.1844741435	-0.8295162987	 1.0112394141	 0.114616
H	-1.8677535222	-3.1454847062	-1.594325479	 0.118866
H	-3.0057673051	-3.328377461	-0.2764397694	 0.112041
H	-4.3138966841	-2.1934612911	-2.0416982862	 0.088589
H	-3.9875981126	 0.200417992	-2.315235319	 0.089872
H	-2.3469574982	 1.3166402224	-0.8292742532	 0.115114
H	-1.3641971334	 0.5374439893	-2.0356767749	 0.116984
84.0646	114.9118	162.4063	277.2644	307.6166	361.2597	382.5382	406.1927	412.4249	529.1534	582.9354	673.445	687.9898	776.3303	849.4361	900.546	919.5835	933.5489	959.6232	984.8798	1000.6724	1012.4953	1036.3871	1063.558	1096.7838	1121.2464	1161.52	1176.7749	1199.3721	1243.416	1254.8022	1284.3929	1348.5662	1363.1295	1378.2886	1395.704	1412.2181	1421.4385	1475.2692	1479.5459	1497.848	1508.8055	1729.822	2997.852	3000.657	3005.4087	3036.7813	3048.7873	3066.5182	3087.2744	3147.5187	3170.9647	3172.011	3807.3712
OCC12CN1CC=CC2	OC[C@]12CN1CC=CC2	
InChI=1S/C7H11NO/c9-6-7-3-1-2-4-8(7)5-7/h1-2,9H,3-6H2	InChI=1S/C7H11NO/c9-6-7-3-1-2-4-8(7)5-7/h1-2,9H,3-6H2/t7-,8?/m0/s1
