20
gdb 58387	1.85638	1.35621	0.88996	3.335	82.78	-0.2533	0.0191	0.2724	1359.5422	0.167955	-403.146716	-403.136066	-403.135122	-403.18302	38.15	
C	 0.3295845023	 1.5177118076	-0.0320335812	-0.395152
C	 0.1844290346	-0.0066620624	 0.0407468267	 0.030615
C	 0.8384378707	-0.5617039226	 1.3125071632	-0.395363
C	-1.3117128872	-0.4291734815	-0.0321714043	-0.148336
N	-1.9977137458	 0.1169404521	-1.2049939885	-0.281677
C	-2.9412174424	 1.0933260303	-1.1119805212	 0.157302
O	-3.2418109601	 1.6793872841	-0.0938539615	-0.322819
C	-1.474149132	-1.8845641807	-0.0147956234	 0.303088
C	-1.5931553955	-3.0803423078	-0.0466838155	-0.426582
H	 1.3855967652	 1.7987675074	 0.0264914885	 0.110321
H	-0.0750247835	 1.9200232471	-0.963720249	 0.11764
H	-0.1968319908	 2.0023877888	 0.7970774387	 0.132075
H	 0.6869235316	-0.4513286517	-0.8293740966	 0.074519
H	 0.3605338172	-0.1475130202	 2.2082561181	 0.119135
H	 0.7654865665	-1.6508346068	 1.3633485761	 0.129541
H	 1.897374868	-0.2884039278	 1.3462140506	 0.114705
H	-1.8309478668	 0.0099894057	 0.8282225622	 0.147112
H	-1.8825665639	-0.3622739676	-2.0844319062	 0.252562
H	-3.4066894215	 1.3075676759	-2.0940139075	 0.080772
H	-1.7110192268	-4.1359446699	-0.0516176494	 0.200541
40.938	57.1785	139.6743	151.4363	180.9997	212.1585	233.4631	280.4676	311.2397	356.4767	407.7233	459.1306	520.8354	528.3941	551.7323	630.0887	657.9782	743.2857	865.7301	922.1229	934.2273	964.9256	1012.1817	1033.0283	1036.2669	1137.9775	1153.9511	1191.0953	1199.3386	1301.3505	1326.0519	1350.6978	1374.776	1402.2078	1423.4725	1426.8925	1485.7535	1491.0765	1501.6248	1511.9915	1514.7687	1800.8559	2234.5245	2941.8614	3009.5387	3032.8567	3040.9151	3054.005	3098.1872	3108.165	3122.113	3122.9349	3501.3407	3631.6522
CC(C)C(NC=O)C#C	CC(C)[C@@H](NC=O)C#C	
InChI=1S/C7H11NO/c1-4-7(6(2)3)8-5-9/h1,5-7H,2-3H3,(H,8,9)	InChI=1S/C7H11NO/c1-4-7(6(2)3)8-5-9/h1,5-7H,2-3H3,(H,8,9)/t7-/m0/s1
