16
gdb 123723	3.57399	1.62119	1.1306	0.5566	74.69	-0.2405	-0.0017	0.2388	1019.0377	0.128969	-396.957987	-396.951349	-396.950404	-396.989138	26.148	
C	-0.0204906972	 1.4880801975	-0.1282311994	-0.393495
C	 1.3614152649	 2.0511688049	 0.1067256742	-0.050048
C	 2.4585246412	 1.3346089107	 0.3561562231	-0.050049
C	 2.5209446476	-0.1718173302	 0.4495435425	-0.393495
C	 1.1667155425	-0.7558682196	 0.2206755599	 0.285171
N	 0.8432520206	-2.0499124156	 0.2280325227	-0.293224
N	-0.4612747567	-2.0265773494	-0.0239655274	-0.089785
N	-1.0198302866	-0.8330758365	-0.1954503082	-0.293224
C	 0.0117648764	-0.0015304188	-0.0419036209	 0.28517
H	-0.7260487209	 1.9065268883	 0.60335759	 0.130385
H	-0.3976956635	 1.8144891109	-1.1076652623	 0.130383
H	 1.4402713699	 3.1344089826	 0.0633562296	 0.090665
H	 3.4012346794	 1.8536364646	 0.50918254	 0.090665
H	 3.2437354009	-0.5638442513	-0.2798450033	 0.130384
H	 2.914730708	-0.4713948052	 1.4310302763	 0.130384
H	-1.0014981965	-2.8739947028	-0.0822658967	 0.290112
89.397	238.3372	303.4481	397.3616	408.7416	478.8362	498.2991	599.4034	680.4946	715.5537	717.7068	732.2585	883.7773	907.326	980.3151	981.631	983.6653	1008.83	1017.1939	1182.3505	1186.3419	1199.7107	1203.7194	1205.0437	1230.7388	1316.6498	1342.9706	1405.3378	1412.0449	1455.5413	1472.3858	1475.546	1543.4801	1572.1569	1726.2355	3006.6016	3007.6344	3023.3563	3023.7501	3149.8024	3172.3693	3674.6088
C1C=CCC2=NNN=C12	C1C=CCc2n[nH]nc12	
InChI=1S/C6H7N3/c1-2-4-6-5(3-1)7-9-8-6/h1-2H,3-4H2,(H,7,8,9)	InChI=1S/C6H7N3/c1-2-4-6-5(3-1)7-9-8-6/h1-2H,3-4H2,(H,7,8,9)
