13
gdb 24890	3.49983	1.2817	0.93814	4.034	80.98	-0.233	-0.0795	0.1534	1142.812	0.090363	-415.631432	-415.624155	-415.623211	-415.663296	27.548	
O	-0.0651378291	-0.0668214676	 0.0032947964	-0.385761
C	-0.0092666543	 1.147791814	 0.0093103348	 0.392783
N	-1.1630212403	 1.940050493	 0.0293289293	-0.426773
C	-1.1544811887	 3.3139827369	 0.0369142963	 0.233943
C	 0.058359963	 3.9519444553	 0.0241096273	-0.123972
N	 1.2372463345	 3.2637758035	 0.0043400256	-0.214058
C	 1.2096185617	 1.9652406644	-0.0025572154	-0.092669
C	-2.4006259754	 3.9894233743	 0.0575219415	 0.260215
C	-3.4679361558	 4.5456614333	 0.0750548539	-0.403924
H	-2.0439683603	 1.4425847083	 0.0384426344	 0.272445
H	 0.1085690635	 5.0324629307	 0.0294845821	 0.130632
H	 2.1492811466	 1.4183403332	-0.0183031534	 0.139802
H	-4.4049399754	 5.0468816308	 0.0905326272	 0.217337
132.044	141.2687	168.8741	355.4795	412.8828	462.2065	476.7541	543.5268	571.3581	612.7263	648.6456	687.1992	697.0611	717.4857	764.2843	869.5989	938.4084	944.4061	1046.4376	1134.3498	1224.0002	1237.7566	1346.079	1390.3441	1455.8287	1556.0236	1622.6514	1791.4917	2231.0318	3167.6221	3223.6625	3495.7609	3597.3043
O=C1NC(=CN=C1)C#C	O=c1[nH]c(cnc1)C#C	
InChI=1S/C6H4N2O/c1-2-5-3-7-4-6(9)8-5/h1,3-4H,(H,8,9)	InChI=1S/C6H4N2O/c1-2-5-3-7-4-6(9)8-5/h1,3-4H,(H,8,9)
