18
gdb 11305	3.71112	1.47058	1.38529	3.1893	68.03	-0.2389	-0.0226	0.2162	985.0686	0.153266	-384.956558	-384.948399	-384.947455	-384.989804	29.233	
C	-0.2780239164	 1.3075856168	-0.0534216158	-0.417547
C	 0.1305566192	-0.1562696217	 0.0889300277	 0.013825
C	 0.9369206625	-0.7045679733	-1.1003952304	-0.063946
O	 1.7957820384	-1.7294775099	-0.5939361066	-0.252548
C	 1.7111322499	-1.7901186163	 0.8122999045	 0.022952
C	 1.0770784157	-0.4574389509	 1.2654556252	-0.262396
C	 0.8526326214	-2.9583890807	 1.2849988014	 0.153059
O	 0.089225888	-3.5750772339	 0.5915163607	-0.239899
H	 0.6018268888	 1.9530573245	-0.1554231477	 0.117872
H	-0.9070371024	 1.4581135336	-0.9370508418	 0.122578
H	-0.8463870493	 1.6485186259	 0.8176095721	 0.119918
H	-0.7685961068	-0.7722626329	 0.2062891009	 0.098159
H	 0.2975635756	-1.1302927033	-1.8807079607	 0.113992
H	 1.5551794642	 0.0843129766	-1.5543368913	 0.091559
H	 2.7188240988	-1.928006995	 1.228964151	 0.093291
H	 1.8525789437	 0.3115649205	 1.3476316876	 0.1108
H	 0.5645504726	-0.5241123288	 2.229511621	 0.110455
H	 0.969644846	-3.1848991014	 2.3728929325	 0.067875
59.3384	76.3531	150.7925	237.2086	253.2681	288.0166	342.8465	426.6888	567.4993	653.6794	773.7733	806.258	845.9934	892.9413	923.7845	957.734	977.4093	991.0649	1014.9653	1078.8255	1139.9431	1148.4259	1170.316	1197.6652	1251.0949	1259.3079	1301.3184	1340.0389	1356.7324	1373.6684	1400.9313	1413.5099	1421.4383	1489.4635	1497.5757	1501.6952	1524.7925	1842.2324	2836.9535	2991.791	3013.4196	3029.7095	3036.9724	3050.4736	3068.8594	3095.2943	3100.7372	3103.3387
CC1COC(C1)C=O	C[C@H]1CO[C@@H](C1)C=O	
InChI=1S/C6H10O2/c1-5-2-6(3-7)8-4-5/h3,5-6H,2,4H2,1H3	InChI=1S/C6H10O2/c1-5-2-6(3-7)8-4-5/h3,5-6H,2,4H2,1H3/t5-,6+/m1/s1
