19
gdb 79003	3.73927	1.64792	1.39977	0.2406	83.56	-0.2158	0.006	0.2217	975.2971	0.160408	-348.648637	-348.641886	-348.640942	-348.679262	28.822	
C	-0.2024668627	 1.6232331126	-0.1198344586	-0.417287
C	-0.0393031282	 0.1161164506	-0.0036681924	-0.104638
C	 1.1830322694	-0.5899884667	-0.6996017092	-0.119214
C	 2.1592463758	-0.1816102977	 0.4454081115	-0.030097
C	 2.545398633	-1.5987822809	 0.9669937003	-0.157906
C	 2.2413659857	-1.528616923	 2.4835043273	-0.082169
C	 1.111079968	-0.8147983689	 2.6083256123	-0.256041
C	 0.7944079929	-0.4891960409	 1.1579843257	 0.314212
C	 1.1400351362	-1.765802698	 0.316041209	-0.022482
H	 0.7440874693	 2.1471824357	 0.0470036416	 0.115712
H	-0.5668044281	 1.899010246	-1.1155176197	 0.115283
H	-0.9262480295	 1.9994227154	 0.611553343	 0.116168
H	-0.9950621656	-0.39544707	-0.1754643876	 0.066672
H	 1.395390535	-0.6420819633	-1.7679946154	 0.065335
H	 2.7303863617	 0.7438979666	 0.5448225641	 0.069505
H	 3.4330371191	-2.1427512272	 0.6393844489	 0.054335
H	 2.8382152997	-1.9752178532	 3.2673155555	 0.099839
H	 0.5675103577	-0.5399129383	 3.5003159651	 0.106247
H	 0.5152810508	-2.6613811088	 0.2666927091	 0.066526
200.7919	211.1501	227.418	396.7779	469.1737	490.5616	553.6588	662.1591	692.9583	732.948	781.8624	785.1455	821.7876	858.3931	887.1582	889.4175	889.8563	908.3037	932.5858	954.2143	1030.8126	1042.7581	1050.2483	1065.5044	1115.9544	1120.323	1126.3389	1149.1757	1170.3615	1179.3579	1194.7626	1212.8829	1256.2118	1269.4833	1297.2415	1318.0021	1391.8268	1412.0977	1493.6365	1497.6821	1586.3787	3024.0491	3030.0029	3079.3528	3084.7868	3091.803	3096.9865	3103.3218	3108.8895	3217.3403	3247.242
CC1C2C3C4C=CC13C24	C[C@H]1[C@H]2[C@@H]3[C@H]4C=C[C@@]13[C@@H]24	
InChI=1S/C9H10/c1-4-6-7-5-2-3-9(4,7)8(5)6/h2-8H,1H3	InChI=1S/C9H10/c1-4-6-7-5-2-3-9(4,7)8(5)6/h2-8H,1H3/t4-,5-,6+,7+,8-,9-/m0/s1
