16
gdb 44612	2.94077	1.95784	1.54526	3.496	66.75	-0.2318	0.0205	0.2523	868.2169	0.127752	-437.906362	-437.900017	-437.899073	-437.936986	25.96	
O	 0.0008339951	-0.0303236392	 0.079101541	-0.379829
C	-0.0119163422	 1.1750884519	-0.0148850403	 0.417066
N	-1.1256180609	 1.9823686176	-0.01889012	-0.299037
C	-0.8222625239	 3.3805920717	-0.040611319	-0.053435
C	 0.1315327951	 3.951867731	 1.0118827347	 0.076835
O	 0.5945909841	 3.0967871213	 2.0222184332	-0.262476
C	 1.6226158875	 2.2665190969	 1.4601465954	-0.077694
C	 1.214983628	 2.1148450972	-0.019560592	-0.193732
C	 0.6556265703	 3.5117091344	-0.327125104	-0.138121
H	-2.0043881436	 1.6168803466	 0.3133438856	 0.256653
H	-1.5521966578	 4.0304598896	-0.509970465	 0.10673
H	 0.0470197146	 4.9941696821	 1.3016537287	 0.105625
H	 2.6044733197	 2.7527141421	 1.5536447997	 0.098422
H	 1.630802299	 1.3187930453	 2.0036145192	 0.137236
H	 2.0142452436	 1.7551426235	-0.6660540954	 0.102915
H	 1.0762713913	 4.160781338	-1.0830368316	 0.102844
127.1433	262.172	282.0376	459.1622	469.6494	553.9228	583.7721	677.3728	733.6453	756.9937	769.8115	790.3569	816.2319	857.852	929.552	946.9927	965.9267	1014.9041	1034.3011	1056.6376	1073.7074	1095.2371	1111.6113	1159.6396	1208.3105	1230.6245	1240.3927	1270.7023	1286.099	1350.3047	1376.6569	1389.179	1427.4575	1513.7218	1833.6519	3000.4253	3110.6194	3131.9433	3163.2727	3175.2305	3202.4052	3637.2343
O=C1NC2C3OCC1C23	O=C1N[C@H]2[C@H]3OC[C@@H]1[C@@H]23	
InChI=1S/C6H7NO2/c8-6-2-1-9-5-3(2)4(5)7-6/h2-5H,1H2,(H,7,8)	InChI=1S/C6H7NO2/c8-6-2-1-9-5-3(2)4(5)7-6/h2-5H,1H2,(H,7,8)/t2-,3+,4-,5+/m1/s1
