23
gdb 117848	2.25935	1.04556	0.91058	1.897	78.3	-0.2437	0.0554	0.2991	1447.9535	0.201823	-462.547252	-462.535508	-462.534564	-462.584414	41.856	
C	 0.1271226869	 1.5364942278	-0.1145587881	-0.382916
C	-0.1611564157	 0.0438616687	-0.1518246666	-0.049035
O	 0.707193707	-0.5329466124	-1.1138484769	-0.291305
C	 0.7391899375	-1.9522515728	-1.2337826312	 0.324053
C	 1.5842456516	-2.5760540964	-0.1123147841	-0.439744
C	-0.6605669632	-2.5990844405	-1.2377006493	-0.104051
O	-1.5649644047	-2.0048467625	-2.151472039	-0.425018
C	 1.4206318704	-2.1459120639	-2.6047430231	-0.120678
O	 1.522219621	-3.5030937903	-3.0069140499	-0.420978
H	 1.1650067888	 1.7232412027	 0.1760384204	 0.119381
H	-0.0367323388	 1.9795067661	-1.1010137291	 0.127103
H	-0.5317915583	 2.0343370443	 0.6033997127	 0.111436
H	 0.0034744383	-0.394658445	 0.8447956562	 0.080648
H	-1.2084084887	-0.1337924317	-0.4290402187	 0.114881
H	 1.1188371973	-2.4344297125	 0.8675680128	 0.122557
H	 1.7038366313	-3.6549277662	-0.2590691808	 0.108753
H	 2.5745366196	-2.1114067927	-0.0881872431	 0.121587
H	-0.5327450576	-3.6714157421	-1.4339851826	 0.104252
H	-1.1186387228	-2.4969428101	-0.2489734324	 0.105061
H	-1.3248339579	-2.2893398993	-3.0382171521	 0.292701
H	 0.8173610762	-1.6377180228	-3.3629599038	 0.111214
H	 2.3982574281	-1.645788419	-2.5845001292	 0.100634
H	 2.2303798937	-3.9149119996	-2.5035213421	 0.289467
52.8365	71.34	96.7252	136.1409	160.2379	201.479	241.1243	248.3221	271.6396	300.3763	300.9427	337.5687	358.1652	376.0915	420.3964	552.6884	586.1204	772.7712	829.7923	847.13	875.8733	952.4954	953.4284	991.1647	1072.0299	1074.9905	1096.8255	1121.1206	1140.4847	1159.9143	1185.427	1203.5326	1262.2349	1295.8975	1302.8678	1370.5008	1391.3075	1392.5919	1399.4256	1402.4169	1420.7616	1430.6659	1483.1646	1487.9089	1492.3159	1498.2406	1502.2382	1510.4717	1528.2634	2978.7404	3017.2814	3024.829	3036.0206	3037.406	3043.0047	3084.4815	3087.5878	3103.6694	3114.261	3117.1369	3120.6666	3831.4865	3833.0148
CCOC(C)(CO)CO	CCOC(C)(CO)CO	
InChI=1S/C6H14O3/c1-3-9-6(2,4-7)5-8/h7-8H,3-5H2,1-2H3	InChI=1S/C6H14O3/c1-3-9-6(2,4-7)5-8/h7-8H,3-5H2,1-2H3
