13
gdb 43269	4.01257	1.27887	1.13598	4.0917	69.46	-0.2804	-0.0817	0.1986	1027.6892	0.090051	-415.620379	-415.613388	-415.612444	-415.651937	26.343	
O	 0.0234079075	-0.0232807787	 0.1234695699	-0.300261
C	-0.0430111987	 1.1681219855	 0.0187748634	 0.371612
C	-1.2437744826	 2.0450346952	 0.0091661734	-0.190923
C	-0.8659668139	 3.3267715366	 0.0072511225	-0.131651
C	 0.627609214	 3.4080991077	-0.0310429511	 0.131187
C	 1.3856208623	 2.8084819456	 1.126544997	-0.258014
N	 1.1362286536	 2.0275876992	-0.0901142903	-0.145426
C	 1.2487511401	 4.4123696104	-0.8606245805	 0.234782
N	 1.7209437712	 5.2504661616	-1.5006061328	-0.321424
H	-2.2475124205	 1.6495576479	 0.0750682141	 0.147282
H	-1.4970738529	 4.2055440214	 0.0069618983	 0.152104
H	 2.4192558207	 3.1007036471	 1.2846044396	 0.16082
H	 0.8098997195	 2.5740405804	 2.0181017565	 0.149912
113.4124	152.99	210.58	326.7502	416.5451	447.483	510.8156	553.396	601.8368	686.7817	759.7126	775.645	808.0521	863.218	880.6787	938.0797	961.8666	983.0784	1076.6574	1107.5722	1126.0754	1155.7531	1242.0589	1309.9557	1353.993	1492.1259	1639.8297	1856.9661	2365.6293	3115.1299	3217.042	3226.6096	3251.2844
O=C1C=CC2(CN12)C#N	O=C1C=C[C@]2(CN12)C#N	
InChI=1S/C6H4N2O/c7-3-6-2-1-5(9)8(6)4-6/h1-2H,4H2	InChI=1S/C6H4N2O/c7-3-6-2-1-5(9)8(6)4-6/h1-2H,4H2/t6-,8?/m1/s1
