14
gdb 24074	7.45397	0.77133	0.71432	1.8795	69.8	-0.2229	-0.003	0.2199	1460.4931	0.102422	-432.890957	-432.883043	-432.882099	-432.92498	27.631	
N	-0.2541853011	-1.0292873529	 0.3355385368	-0.286709
C	-0.0947814797	 0.084584168	 0.0769657103	 0.254558
C	 0.1182839277	 1.4878082104	-0.2816826482	-0.278991
N	 1.3908165171	 1.9682619679	 0.2629834617	-0.416751
C	 1.6757010808	 3.3132071455	 0.1010203705	 0.406889
C	 2.7802063928	 4.0308314876	-0.2350155153	-0.205002
N	 2.4860530684	 5.3868155114	-0.1081801429	-0.242265
C	 1.2562463021	 5.4206125421	 0.2667528228	 0.070843
O	 0.6822339083	 4.1891831907	 0.4258774957	-0.180106
H	 0.0480705195	 1.5826938129	-1.3770204385	 0.153811
H	-0.6887413421	 2.0890724084	 0.1462861367	 0.186241
H	 2.1738011776	 1.3846290078	 0.0005289939	 0.261879
H	 3.7496364044	 3.6800628681	-0.5483176149	 0.121327
H	 0.6223152843	 6.2712002321	 0.4564807616	 0.154276
42.0346	62.1402	109.9524	212.0671	329.0526	381.2041	416.6552	502.9962	641.4787	677.3409	695.384	771.8929	794.9688	798.5057	937.0969	955.1557	981.2096	997.6337	1092.5441	1107.7785	1121.6466	1233.9266	1261.5674	1291.6629	1354.4046	1389.1386	1475.714	1489.3189	1573.1162	1658.426	2373.5472	2983.2796	3096.462	3270.6723	3287.4604	3590.5635
N#CCNC1=CN=CO1	N#CCNc1cnco1	
InChI=1S/C5H5N3O/c6-1-2-8-5-3-7-4-9-5/h3-4,8H,2H2	InChI=1S/C5H5N3O/c6-1-2-8-5-3-7-4-9-5/h3-4,8H,2H2
