17
gdb 27297	3.25812	1.32618	0.94906	5.9383	82.22	-0.1856	-0.0059	0.1797	1204.7378	0.137786	-418.078636	-418.0702	-418.069256	-418.111475	32.393	
C	-0.0043909258	 1.5186565724	 0.045516066	-0.493841
C	-0.0060281838	 0.0178047612	-0.0211866335	 0.39597
C	-0.0858113932	-0.7017756167	-1.1800689837	-0.331966
C	-0.0787651779	-2.1440752336	-1.2010548595	 0.365568
O	-0.118661007	-2.8417641797	-2.2205888606	-0.432135
C	-0.0022830111	-2.7870484813	 0.1290100502	 0.155945
N	-0.0633579365	-4.1681163855	 0.1004111618	-0.582649
C	 0.0811134991	-2.0219471102	 1.2499002492	-0.093824
N	 0.0812692023	-0.6429210987	 1.165497934	-0.375512
H	 0.905785701	 1.8968126151	 0.526272423	 0.135295
H	-0.0576191055	 1.9429144867	-0.9577321565	 0.149954
H	-0.8611519285	 1.8938106846	 0.6180432533	 0.137248
H	-0.1422416542	-0.1862307031	-2.1310427072	 0.099263
H	 0.0901054909	-4.4957777513	-0.848267677	 0.260688
H	 0.459211848	-4.6676677204	 0.8032448462	 0.240084
H	 0.1462008677	-2.4301369512	 2.2508824984	 0.112342
H	 0.1401529645	-0.1107764581	 2.0175211158	 0.257571
85.1007	128.6265	197.4863	296.0703	326.4192	335.1845	383.6314	426.581	451.1476	478.2504	514.3713	590.3759	610.6156	667.5757	736.2117	781.2678	789.8959	817.3655	873.3212	956.0721	1034.972	1061.2294	1110.1392	1188.2045	1224.9842	1238.63	1316.2167	1385.3188	1415.5002	1433.0617	1481.6552	1482.8525	1564.0648	1596.8039	1635.9911	1686.7875	1704.2808	3027.0157	3077.7112	3143.463	3201.342	3206.5735	3510.9069	3653.3606	3654.3707
CC1=CC(=O)C(N)=CN1	Cc1cc(=O)c(N)c[nH]1	
InChI=1S/C6H8N2O/c1-4-2-6(9)5(7)3-8-4/h2-3H,7H2,1H3,(H,8,9)	InChI=1S/C6H8N2O/c1-4-2-6(9)5(7)3-8-4/h2-3H,7H2,1H3,(H,8,9)
