15
gdb 26045	3.42459	1.20956	0.9229	5.2518	71.41	-0.2358	0.0014	0.2372	1188.4163	0.115759	-413.027572	-413.019611	-413.018667	-413.060716	29.049	
N	-0.850685936	 0.7600500412	 0.1676675437	-0.511453
C	 0.1038590025	-0.3172585888	-0.135169461	-0.279815
C	 1.02271794	-0.0044686871	-1.2519605658	 0.28987
N	 1.7007820976	 0.2796497006	-2.1435020988	-0.323522
C	 0.8795145026	-0.6720410938	 1.099419575	 0.346183
C	 2.1783617364	-1.0377690755	 1.3436637523	-0.172729
N	 2.3597037965	-1.3101155379	 2.679754127	-0.256134
C	 1.1875020291	-1.1090430463	 3.2373563414	 0.018297
N	 0.2512257682	-0.7282290189	 2.3244975126	-0.302867
H	-0.3426115696	 1.6191234141	 0.3623158884	 0.251136
H	-1.4383923921	 0.9405555783	-0.6412428516	 0.250481
H	-0.4976903757	-1.1794999552	-0.4579512187	 0.148002
H	 2.9860882871	-1.1190045158	 0.6324659438	 0.131421
H	 0.9575826168	-1.2169214732	 4.2868775876	 0.135813
H	-0.7024663234	-0.4464873819	 2.4857189041	 0.275317
58.4349	118.5643	162.7079	223.8741	302.0117	340.3138	430.5669	471.9711	578.0257	589.1026	655.4006	689.3693	766.8727	823.3942	865.2895	869.3189	932.4885	981.9499	1014.6846	1084.3337	1117.464	1147.6982	1189.4386	1231.0657	1279.6721	1327.3951	1383.3599	1399.5197	1431.8166	1500.958	1605.2109	1657.7925	2354.8801	3001.3696	3252.4154	3256.7225	3488.7501	3572.3861	3655.67
NC(C#N)C1=CN=CN1	N[C@@H](C#N)c1cnc[nH]1	
InChI=1S/C5H6N4/c6-1-4(7)5-2-8-3-9-5/h2-4H,7H2,(H,8,9)	InChI=1S/C5H6N4/c6-1-4(7)5-2-8-3-9-5/h2-4H,7H2,(H,8,9)/t4-/m0/s1
