19
gdb 127074	2.56337	1.31769	1.06093	3.1736	78.7	-0.2257	-0.0049	0.2208	1217.8784	0.158087	-419.192462	-419.183042	-419.182097	-419.227693	33.657	
C	 0.0141731862	 1.4831795086	-0.0338724362	-0.329198
N	-0.0206397532	 0.0267496844	 0.0643667747	-0.16945
C	 0.7484075417	-0.473816628	 1.200106635	-0.329228
C	-1.3234567749	-0.5196881483	-0.0272777032	 0.05124
C	-1.7949030335	-1.3196855593	-1.029767494	 0.385334
C	-1.1544460755	-1.844697446	-2.2617050736	-0.493565
O	-3.0733692043	-1.6478645234	-0.7858086034	-0.217365
N	-3.4890626252	-1.0584251991	 0.4147727581	-0.146144
C	-2.4480533795	-0.3975844509	 0.8490144365	-0.016249
H	 1.0539217794	 1.8151722783	-0.122999975	 0.119992
H	-0.5284247101	 1.8043091874	-0.9263548147	 0.127454
H	-0.4289972028	 1.9925317994	 0.8408746666	 0.099146
H	 0.3667594248	-0.1246533424	 2.1765599482	 0.099105
H	 0.7351857722	-1.5664671509	 1.1997511324	 0.127553
H	 1.7875021473	-0.1404154327	 1.1086902453	 0.12005
H	-1.1564317033	-2.9395582698	-2.2735598984	 0.146837
H	-1.6816025449	-1.5037555655	-3.1588554117	 0.146787
H	-0.1229237614	-1.488583747	-2.2968482102	 0.149331
H	-2.5291053631	 0.1491738052	 1.7784515337	 0.128367
20.4983	142.0687	155.6546	158.3899	233.7134	235.539	240.0426	282.6842	368.4412	461.4868	478.5946	604.2547	645.9733	702.8904	736.2816	890.7748	918.522	937.4492	967.0707	1006.8617	1061.4778	1069.464	1120.8534	1150.896	1175.3588	1185.2924	1233.3133	1261.8859	1311.0998	1393.0106	1423.5195	1442.1898	1469.2608	1478.758	1481.5945	1481.9577	1496.8115	1499.5104	1510.1376	1521.2019	1669.369	2942.5373	2948.3901	3040.596	3062.1358	3064.0821	3097.575	3116.1143	3118.6638	3139.9995	3237.9905
CN(C)C1=C(C)ON=C1	CN(C)c1c(C)onc1	
InChI=1S/C6H10N2O/c1-5-6(8(2)3)4-7-9-5/h4H,1-3H3	InChI=1S/C6H10N2O/c1-5-6(8(2)3)4-7-9-5/h4H,1-3H3
