16
gdb 123835	3.64328	1.56391	1.12335	3.8327	78.36	-0.2194	-0.0404	0.179	1031.7785	0.127624	-400.765479	-400.758876	-400.757932	-400.796449	26.238	
C	-0.0318348331	 1.4807258814	 0.0989922867	-0.264973
C	 1.3588207036	 2.1534071721	-0.0146421533	-0.347637
C	 2.1942405896	 1.4283847257	-1.028575876	 0.109817
C	 1.9815304301	 0.102600956	-1.2787996275	 0.392403
O	 2.8793449076	-0.3673170511	-2.1566807919	-0.230149
N	 3.7351840226	 0.6784664502	-2.5175616896	-0.149195
C	 3.3173884813	 1.7242784705	-1.8364335691	-0.090936
C	 0.9403423852	-0.6927951184	-0.6709721134	-0.173244
C	-0.0012544821	-0.0323176042	 0.0207103571	-0.069092
H	-0.5214074543	 1.8003971988	 1.024011059	 0.112435
H	-0.6756462903	 1.8398052988	-0.7193991011	 0.125228
H	 1.2360223249	 3.211503237	-0.264400338	 0.115587
H	 1.8630168455	 2.1240936301	 0.9623098644	 0.119316
H	 3.8437550278	 2.6612915309	-1.9578146804	 0.12832
H	 0.9423111014	-1.7703364256	-0.7847644559	 0.114868
H	-0.8155539197	-0.5768847023	 0.4886887691	 0.107251
135.9121	199.0645	275.7911	378.0494	419.3945	485.5158	583.4897	638.0613	673.1412	687.3856	754.838	807.0713	867.827	899.6188	911.5396	925.7887	968.089	982.1095	1017.994	1042.1902	1163.7063	1178.1274	1202.9121	1206.784	1251.2805	1286.7699	1333.9315	1360.5235	1414.6073	1427.6443	1468.3651	1488.3198	1509.7967	1636.8742	1676.2394	2986.2047	3001.8433	3074.9171	3077.6163	3176.4663	3208.4535	3236.324
C1CC2=C(ON=C2)C=C1	C1Cc2c(onc2)C=C1	
InChI=1S/C7H7NO/c1-2-4-7-6(3-1)5-8-9-7/h2,4-5H,1,3H2	InChI=1S/C7H7NO/c1-2-4-7-6(3-1)5-8-9-7/h2,4-5H,1,3H2
