16
gdb 12043	3.96481	1.70954	1.53121	1.147	70.44	-0.252	0.0339	0.286	875.0489	0.129024	-346.533467	-346.525863	-346.524919	-346.564885	29.672	
O	-0.1179067831	 1.4155618713	-0.0746597773	-0.466191
C	-0.0378052197	 0.0020249819	-0.002744499	 0.22175
C	 0.2401183889	-0.6306566378	 1.4246608391	-0.302702
C	-1.1408147574	-1.2883743841	 1.372583395	-0.023726
C	-2.1973276064	-0.2353078634	 1.2187184604	-0.294755
C	-1.420132258	-0.6626447515	 0.0042067002	-0.059642
C	 0.8556177574	-0.5266943463	-1.0290482662	 0.275209
C	 1.6163753225	-0.9318280028	-1.8678572102	-0.462147
H	 0.7752804994	 1.7572027254	-0.1922887706	 0.282361
H	 1.074335454	-1.333062498	 1.4065468456	 0.11551
H	 0.3937095977	 0.1067919593	 2.2186285907	 0.100302
H	-1.3646766599	-2.2937572517	 1.7042446509	 0.087239
H	-3.2227480075	-0.589844615	 1.2392879959	 0.111809
H	-2.0535049862	 0.7568093715	 1.6356793815	 0.12429
H	-1.8921664473	-1.0863878577	-0.8726725242	 0.093317
H	 2.2796437954	-1.2943604513	-2.6140247117	 0.197376
121.2282	157.2741	203.7756	279.7907	327.8637	415.3982	460.8146	506.5137	538.8419	618.9567	649.1587	660.6219	748.3762	793.861	849.5715	893.2611	940.6099	950.7648	980.8518	1008.5656	1062.4459	1072.7293	1085.7887	1091.2405	1141.1409	1190.6235	1227.7019	1240.1154	1280.6895	1341.341	1381.3848	1471.3528	1493.2788	2229.585	3052.6361	3124.6646	3127.9897	3192.6631	3199.8187	3214.0789	3499.9207	3807.5941
OC1(CC2CC12)C#C	O[C@]1(C[C@H]2C[C@@H]12)C#C	
InChI=1S/C7H8O/c1-2-7(8)4-5-3-6(5)7/h1,5-6,8H,3-4H2	InChI=1S/C7H8O/c1-2-7(8)4-5-3-6(5)7/h1,5-6,8H,3-4H2/t5-,6-,7+/m1/s1
