19
gdb 89350	2.50905	1.50634	1.15441	2.7336	77.83	-0.2275	-0.0234	0.204	1120.2915	0.157434	-423.014927	-423.00602	-423.005075	-423.048179	33.997	
C	-0.1104332587	 1.6527815141	-0.1771825079	-0.405733
C	 0.0303801271	 0.143102769	-0.0177292386	-0.047803
C	 1.1073142109	-0.6023775266	-0.8894580481	-0.297714
C	 1.77455043	-1.1497444421	 0.3655853113	 0.42067
O	 2.1251010319	-2.4646650017	 0.4684672126	-0.451256
C	 2.1776177971	-0.0999745115	 1.3120736673	-0.393038
C	 0.6781077017	-0.4018271581	 1.2650760562	 0.129415
C	 0.0685769776	-1.192755315	 2.3134707659	 0.052569
O	 0.7101215838	-1.912711367	 3.0660965734	-0.322326
H	 0.8442972403	 2.1687416531	-0.0317788138	 0.117681
H	-0.4737620637	 1.9064105468	-1.1787099049	 0.119043
H	-0.8211354463	 2.0578224702	 0.550855226	 0.121589
H	-0.9455794479	-0.3309778802	-0.1642204381	 0.08532
H	 0.6768390568	-1.3975434762	-1.4996363045	 0.123786
H	 1.7460898459	 0.0268886913	-1.5177817844	 0.106985
H	 2.1273720494	-2.6937897339	 1.4116672769	 0.306534
H	 2.6526700179	-0.4535865653	 2.2213260073	 0.141047
H	 2.5119462235	 0.8756061202	 0.9680599079	 0.11857
H	-1.0424932774	-1.1845948872	 2.3487770156	 0.074663
83.9089	150.9025	192.6874	221.8234	229.7949	258.9017	362.1244	390.3744	417.0296	461.3636	479.2514	586.2257	635.2689	652.9154	731.3301	818.6905	839.7578	890.8147	944.7199	956.9847	1021.9677	1039.0456	1073.7898	1091.362	1104.7103	1155.769	1167.8532	1219.5425	1235.8511	1254.6568	1320.1133	1366.971	1394.7001	1414.7696	1428.1774	1443.4862	1467.6794	1490.5295	1495.6021	1497.1916	1731.0985	2892.3528	3032.2983	3049.7618	3052.0092	3099.9877	3102.4455	3112.5006	3128.4705	3211.8855	3703.9809
CC1CC2(O)CC12C=O	C[C@H]1C[C@@]2(O)C[C@@]12C=O	
InChI=1S/C7H10O2/c1-5-2-7(9)3-6(5,7)4-8/h4-5,9H,2-3H2,1H3	InChI=1S/C7H10O2/c1-5-2-7(9)3-6(5,7)4-8/h4-5,9H,2-3H2,1H3/t5-,6+,7+/m0/s1
