19
gdb 80965	2.38075	1.37493	1.31161	0.8433	76.5	-0.2384	-0.0359	0.2025	1113.5894	0.156318	-422.974382	-422.96534	-422.964396	-423.008021	33.677	
C	-0.2032362918	 1.538564807	 0.1199416415	-0.435558
C	-0.0670109414	 0.0312780242	 0.0162032381	-0.016614
C	 1.218615283	-0.5589855441	-0.6118755075	 0.010468
O	 1.9942478139	-0.1152953145	 0.5563228421	-0.343823
C	 0.7468811708	-0.7296040169	 1.1170058121	 0.399905
C	 0.5603276627	-0.7568515097	 2.5997044324	-0.526524
C	 0.9730694956	-1.9154727454	 0.137522911	-0.12026
C	-0.1178178303	-2.8684944641	-0.2547335339	 0.120285
O	-1.2463181559	-2.8564632494	 0.17574544	-0.254537
H	 0.7439891748	 1.9952026553	 0.4133463563	 0.136932
H	-0.5148853302	 1.9657205279	-0.8392944662	 0.116142
H	-0.9664952474	 1.8081781652	 0.85794046	 0.118584
H	-1.0012340619	-0.4547728213	-0.2707531	 0.098723
H	 1.660328499	-0.4062571204	-1.5971641816	 0.096674
H	 0.4919755375	 0.2593883776	 2.9992206008	 0.135569
H	-0.3633438867	-1.2921557664	 2.8388883356	 0.147269
H	 1.3975461167	-1.2667010463	 3.0857242826	 0.133621
H	 1.9168813081	-2.4462673818	 0.2965691488	 0.100029
H	 0.1956484235	-3.6371939767	-0.9984718919	 0.083115
76.0722	146.6725	192.7358	198.0297	202.9129	211.3016	304.0774	337.1886	381.7151	460.8969	622.8349	630.3777	694.3532	721.5528	774.8009	809.4761	867.9459	872.4801	949.8292	1003.3942	1027.2837	1033.1027	1083.3357	1095.6672	1117.975	1143.39	1169.8288	1205.4624	1212.0032	1250.4228	1294.8771	1374.8286	1398.6725	1410.0111	1423.4137	1436.1315	1478.933	1486.5758	1496.2572	1506.0798	1810.1358	2864.6708	3037.2451	3041.5149	3074.4724	3093.1964	3101.6945	3115.6378	3115.9733	3121.9565	3136.4557
CC1C2OC1(C)C2C=O	C[C@H]1[C@H]2O[C@]1(C)[C@H]2C=O	
InChI=1S/C7H10O2/c1-4-6-5(3-8)7(4,2)9-6/h3-6H,1-2H3	InChI=1S/C7H10O2/c1-4-6-5(3-8)7(4,2)9-6/h3-6H,1-2H3/t4-,5-,6+,7-/m0/s1
