15
gdb 13473	3.23763	1.87782	1.275	1.7488	62.48	-0.2464	-0.0371	0.2093	919.2016	0.11848	-399.846588	-399.838893	-399.837948	-399.879192	28.161	
N	-0.0131139431	 1.2409065549	 0.3755620234	-0.520327
C	 0.1084957324	-0.0394176266	-0.0791841072	 0.376432
O	 1.1406178135	-0.5282708831	-0.4893815228	-0.352306
C	-1.2119368277	-0.8098740547	-0.0557157371	-0.216858
C	-1.1599875598	-2.3579494752	 0.0554872014	-0.239946
C	-2.1016108457	-2.3146236157	 1.3016130476	-0.334275
C	-1.9918035258	-0.7866567271	 1.2705586726	 0.390845
O	-2.2943970456	 0.1047138594	 2.0154629058	-0.307626
H	 0.8395074109	 1.7645656716	 0.5001283803	 0.2608
H	-0.8085264351	 1.4815484574	 0.9512195365	 0.27472
H	-1.8363373717	-0.4424501343	-0.8782581484	 0.135067
H	-1.5469830271	-2.9021648916	-0.8054989418	 0.115293
H	-0.1511248338	-2.7092243107	 0.2738768353	 0.140215
H	-3.1238023141	-2.6591577029	 1.1148365816	 0.13844
H	-1.7456139673	-2.7841649014	 2.222679553	 0.139527
65.0131	82.4152	168.9243	241.6422	399.0415	412.5175	474.453	503.5196	573.7099	595.4853	671.8646	700.5967	724.5769	781.834	896.8288	937.6385	1002.7109	1041.4471	1071.8114	1090.8012	1138.7089	1176.0089	1206.6021	1224.3752	1249.2859	1275.2226	1344.2208	1436.9182	1497.7746	1630.8681	1807.1895	1867.3005	3055.2978	3059.7234	3098.6692	3110.0489	3154.4468	3549.0417	3688.0103
NC(=O)C1CCC1=O	NC(=O)[C@H]1CCC1=O	
InChI=1S/C5H7NO2/c6-5(8)3-1-2-4(3)7/h3H,1-2H2,(H2,6,8)	InChI=1S/C5H7NO2/c6-5(8)3-1-2-4(3)7/h3H,1-2H2,(H2,6,8)/t3-/m0/s1
