15
gdb 8232	5.49466	1.22739	1.09625	3.2831	57.51	-0.251	0.0474	0.2985	1051.4704	0.118633	-436.953113	-436.945075	-436.944131	-436.986731	27.858	
N	-0.086401792	 1.2834858103	 0.0162995904	-0.564394
C	 0.0067353971	-0.0664529509	 0.1780493369	 0.495972
O	 0.9216085893	-0.6531129485	 0.7075613528	-0.398469
O	-1.1077105289	-0.671775306	-0.3155552825	-0.267395
C	-1.1096916006	-2.08908561	-0.1850965594	 0.101633
C	-1.4315864486	-2.6675409123	 1.2029328442	-0.084298
O	-2.5920462192	-3.3532303736	 0.6779337494	-0.274829
C	-2.4450235442	-2.715386343	-0.6069154401	-0.102483
H	 0.7482578572	 1.8170056816	 0.1852115561	 0.272046
H	-0.7810081533	 1.6601492377	-0.6052007381	 0.267695
H	-0.2155776547	-2.5036846825	-0.6517009779	 0.110017
H	-0.6964479538	-3.3570225391	 1.6284107984	 0.118375
H	-1.6973788873	-1.9055293151	 1.9456763329	 0.109024
H	-3.2284039538	-1.9713423597	-0.7991779309	 0.108584
H	-2.4147208073	-3.4386964987	-1.4290529522	 0.108522
50.1327	67.5444	115.4441	185.1521	289.9149	357.3617	384.9236	488.5525	526.3308	641.4025	769.1821	785.6767	879.5134	886.3318	942.0676	1014.1826	1026.8596	1058.5624	1109.8202	1127.9481	1152.5649	1153.9174	1192.3303	1263.2593	1305.1803	1336.9765	1374.1305	1424.6715	1500.5627	1527.1755	1610.9585	1832.9624	3017.9899	3031.8781	3070.5252	3087.4418	3112.081	3620.4539	3751.9359
NC(=O)OC1COC1	NC(=O)OC1COC1	
InChI=1S/C4H7NO3/c5-4(6)8-3-1-7-2-3/h3H,1-2H2,(H2,5,6)	InChI=1S/C4H7NO3/c5-4(6)8-3-1-7-2-3/h3H,1-2H2,(H2,5,6)
