14
gdb 43289	2.43336	1.77902	1.50976	4.2369	73.66	-0.2567	-0.0659	0.1908	917.2716	0.102649	-395.720644	-395.713623	-395.712679	-395.752273	26.689	
N	-0.1104202632	 1.2829569947	 0.0431710232	-0.482166
C	 0.0335899013	 0.0261104119	-0.0216937949	 0.31741
C	 1.2346048326	-0.8354972306	-0.0747515689	-0.132006
C	 0.8686715084	-2.1228218764	-0.059141817	-0.090346
C	-0.6159933836	-2.2084420934	-0.0219872265	-0.085145
C	-1.3406210883	-1.6427017159	 1.1764708445	-0.182854
C	-0.6435086079	-1.3476436389	 2.4028794344	 0.323797
N	-0.1199394845	-1.116462977	 3.4074254872	-0.329832
N	-1.1312708311	-0.8388022261	-0.0525288373	-0.109047
H	 0.8001839341	 1.7441725989	 0.0652074088	 0.230816
H	 2.2429594393	-0.4432144934	-0.0632249766	 0.128154
H	 1.5165640369	-2.988977558	-0.0762480558	 0.133456
H	-1.1371921776	-2.9536099686	-0.616488217	 0.124926
H	-2.3782753663	-1.9293624371	 1.3255066359	 0.152839
99.461	135.1566	223.7112	308.7537	401.0783	452.5214	551.8396	601.3721	667.8352	735.1429	753.8546	778.0444	827.2724	834.2219	898.31	905.4978	960.3784	974.1176	1008.9618	1030.7908	1087.0398	1110.1308	1119.4521	1239.4322	1309.2528	1340.1978	1365.9184	1370.392	1636.0828	1733.6815	2356.9133	3149.0051	3157.0518	3218.3865	3239.9904	3476.3965
N=C1C=CC2C(C#N)N12	[NH]C1=C[CH][C@H]2[C@@H](C#N)N12	
InChI=1S/C6H5N3/c7-3-5-4-1-2-6(8)9(4)5/h1-2,4-5,8H	InChI=1S/C6H5N3/c7-3-5-4-1-2-6(8)9(4)5/h1-2,4-5,8H/t4-,5+,9?/m0/s1
