24
gdb 119039	1.91793	1.11397	0.80927	1.2826	86.43	-0.2214	0.0858	0.3072	1543.4552	0.215262	-405.514346	-405.503282	-405.502338	-405.550688	40.263	
C	-1.6471490172	-0.0712596587	 0.3960877962	-0.38398
C	-0.1455024523	 0.0830799508	 0.1181894459	-0.246574
C	 0.7388920582	-0.3964907187	 1.2640760252	 0.324688
C	 0.5355129044	 0.380891998	 2.5617737789	-0.239552
C	 1.637649613	 0.2272058342	 3.6034896891	-0.085437
O	 1.2196880141	 0.9565297371	 4.7527944286	-0.425416
C	 1.1124579559	-1.8463277483	 1.2938154057	-0.290886
N	 2.1208111368	-0.831931956	 1.013363602	-0.113967
C	 2.7143793551	-0.7885514529	-0.3127911331	-0.317245
H	-1.9661064394	 0.5267982041	 1.2544117555	 0.126207
H	-2.2348114184	 0.2523494313	-0.4685230713	 0.111953
H	-1.9020268659	-1.115876067	 0.6040665192	 0.117456
H	 0.0981032946	-0.4664205887	-0.7955763375	 0.095475
H	 0.0787624625	 1.1390949942	-0.0851597862	 0.097384
H	 0.4385267236	 1.4500788313	 2.3308926335	 0.100273
H	-0.4128916062	 0.0829278561	 3.0243344606	 0.11151
H	 1.7944805937	-0.8343182732	 3.8480741946	 0.085168
H	 2.5853332213	 0.6084417508	 3.2034249736	 0.099891
H	 1.928828329	 0.91752823	 5.4006452228	 0.283035
H	 1.2206386218	-2.3905055452	 2.2293907102	 0.107985
H	 0.763879603	-2.4581742942	 0.4604471056	 0.097958
H	 2.0624445094	-1.1438128246	-1.1254380715	 0.100701
H	 3.0232327127	 0.2362533978	-0.5436671751	 0.121407
H	 3.6109840004	-1.4174784982	-0.3111514625	 0.121965
69.0728	87.7498	94.2716	157.0568	160.3998	220.1531	236.6786	242.9473	267.8109	307.7119	336.0385	393.8145	454.8487	506.2171	523.933	717.5703	742.0524	790.0382	828.7382	895.9099	932.5491	992.6176	1016.3492	1045.8238	1066.0198	1070.6304	1085.6714	1110.4903	1120.7245	1155.9264	1179.2603	1205.3889	1222.4883	1229.0652	1267.7759	1292.9365	1315.6628	1358.2655	1368.1844	1405.2227	1413.3238	1450.3387	1461.0297	1481.8611	1488.5572	1491.9477	1501.8327	1507.4927	1509.604	1517.5161	1521.5513	2983.2319	2984.465	3016.5609	3022.052	3035.6086	3037.7752	3062.1516	3067.0965	3073.1759	3081.215	3096.9426	3103.7698	3115.5794	3158.109	3832.3691
CCC1(CCO)CN1C	CC[C@@]1(CCO)CN1C	
InChI=1S/C7H15NO/c1-3-7(4-5-9)6-8(7)2/h9H,3-6H2,1-2H3	InChI=1S/C7H15NO/c1-3-7(4-5-9)6-8(7)2/h9H,3-6H2,1-2H3/t7-,8?/m1/s1
