18
gdb 105359	2.82401	1.35402	1.13881	4.2056	72.12	-0.2413	-0.0355	0.2058	1109.5884	0.147351	-439.037513	-439.029143	-439.028199	-439.070503	31.75	
O	 0.1867196367	 1.3183704874	-0.1785418399	-0.431042
C	 0.1177493994	-0.0727967035	 0.0678424897	-0.138238
C	-1.3212720701	-0.5842843969	 0.0626368042	 0.21756
C	-2.1286846882	-0.4856323354	-1.305966354	-0.278598
C	-2.3056371496	-2.0035808405	-1.2748483194	-0.03591
N	-0.9415579922	-2.5766823262	-1.2749090621	-0.328706
C	-1.5421151138	-2.1143580237	-0.0019364487	-0.128744
C	-2.1538357589	 0.0411625874	 1.1489785903	 0.120462
O	-1.7988487915	 0.9610968635	 1.849653722	-0.279975
H	-0.2422299999	 1.7388987412	 0.5772648579	 0.294287
H	 0.671301314	-0.5719036397	-0.7303334398	 0.129077
H	 0.591907978	-0.3397557101	 1.0258372077	 0.087489
H	-3.0660974487	 0.067257867	-1.2089401623	 0.114005
H	-1.5494924889	-0.0822435617	-2.1379577675	 0.135315
H	-3.1504472222	-2.5799567734	-1.6298930179	 0.10155
H	-1.0382881791	-3.5918292764	-1.2912327659	 0.234796
H	-1.6570561809	-2.792943881	 0.8348375381	 0.10087
H	-3.1722498841	-0.3945352779	 1.2684745374	 0.085802
103.0077	124.7141	156.2184	202.7943	263.2106	322.9339	401.1489	408.7529	482.0183	539.039	563.1577	730.3286	780.1692	817.4676	839.4335	897.0116	907.9596	945.4087	972.0153	979.3045	1014.0538	1072.7262	1077.5038	1092.4353	1114.1301	1136.7932	1146.0771	1218.9189	1239.4818	1281.5511	1311.992	1325.8862	1375.2412	1386.2159	1428.6151	1439.7347	1473.6976	1505.6662	1802.735	2870.6064	2979.3794	3072.2378	3110.0652	3134.7386	3181.9565	3199.3501	3474.043	3777.6983
OCC1(CC2NC12)C=O	OC[C@]1(C[C@H]2N[C@@H]12)C=O	
InChI=1S/C6H9NO2/c8-2-6(3-9)1-4-5(6)7-4/h2,4-5,7,9H,1,3H2	InChI=1S/C6H9NO2/c8-2-6(3-9)1-4-5(6)7-4/h2,4-5,7,9H,1,3H2/t4-,5-,6+/m1/s1
