19
gdb 83311	2.49987	1.55794	1.32313	3.7136	75.27	-0.243	-0.0202	0.2228	1050.6011	0.159129	-423.022831	-423.014482	-423.013538	-423.055811	31.369	
C	-0.2229861816	 1.5254739237	-0.0992391426	-0.43274
C	 0.0125821906	 0.0305590247	-0.0019832708	-0.009692
C	 1.3499478255	-0.6365709508	-0.2231742578	-0.080929
C	 2.6034999334	 0.2033603657	-0.0581841764	-0.096534
O	 2.4831747703	 0.8727243176	 1.1987322553	-0.248978
C	 1.639102987	 0.1280898283	 2.0475441882	 0.016234
C	 0.9090180717	 1.0317203917	 3.0264013762	 0.156581
O	 0.9371932336	 2.2319399792	 3.037352255	-0.238825
C	 0.7037040865	-0.6790466072	 1.1453386802	-0.11073
H	 0.5969894444	 2.1052248025	 0.3256100288	 0.163201
H	-0.3497971987	 1.8183931444	-1.147384675	 0.112111
H	-1.1384071026	 1.8058162848	 0.4324096499	 0.119483
H	-0.8133783716	-0.5555796564	-0.4000679225	 0.08881
H	 1.413418505	-1.5223073448	-0.8451723772	 0.092378
H	 3.4933179055	-0.4445819546	-0.0700464092	 0.099177
H	 2.7342916456	 0.9780141322	-0.8211282968	 0.115957
H	 2.2152263624	-0.5885596379	 2.6662347492	 0.087235
H	 0.3146920675	 0.4522691746	 3.7723993461	 0.073435
H	 0.2776191255	-1.5899657375	 1.5491398493	 0.09383
89.8717	130.765	190.635	213.4962	226.0951	257.198	314.5196	445.1647	503.4849	657.056	704.0419	726.0358	767.3054	780.5628	826.7518	906.209	963.6026	981.0308	999.6003	1027.512	1032.1308	1065.8885	1081.1237	1113.6982	1131.0061	1136.7046	1164.2157	1223.0085	1239.1804	1289.8078	1324.2156	1345.8284	1366.9482	1379.5404	1420.4321	1428.3202	1448.4018	1503.4867	1507.016	1521.6513	1846.5029	2849.9281	2908.9981	2988.5291	3036.6918	3067.9046	3090.7847	3121.428	3152.3376	3171.0233	3181.9228
CC1C2COC(C=O)C12	C[C@H]1[C@H]2CO[C@@H](C=O)[C@@H]12	
InChI=1S/C7H10O2/c1-4-5-3-9-6(2-8)7(4)5/h2,4-7H,3H2,1H3	InChI=1S/C7H10O2/c1-4-5-3-9-6(2-8)7(4)5/h2,4-7H,3H2,1H3/t4-,5+,6-,7-/m0/s1
