21
gdb 113669	3.71349	0.83191	0.76244	4.4743	82.64	-0.2392	0.0249	0.2641	1604.5593	0.181851	-420.416625	-420.406149	-420.405204	-420.453277	36.825	
C	-0.3517040681	 1.7669791132	-0.7706744245	-0.378756
C	 0.0024849826	 0.5130505389	 0.0366426095	-0.192166
C	-1.2207762708	-0.3294264747	 0.3177684185	 0.00664
N	-1.6884546885	-1.2101205323	-0.7520829606	-0.31083
C	-1.2005944631	-1.8197595569	 0.4964311177	-0.173288
C	 0.0657899437	-2.6345568561	 0.4111519728	 0.454014
O	 0.9468462885	-2.4345360847	-0.4055132064	-0.374871
N	 0.1420533614	-3.6152591362	 1.3623023772	-0.325568
C	 1.2861193494	-4.495926995	 1.4829884824	-0.332393
H	 0.5385846836	 2.3719403015	-0.966688833	 0.112208
H	-0.7913731511	 1.4910995832	-1.7342327172	 0.129416
H	-1.0732220549	 2.3996167559	-0.2399795238	 0.102192
H	 0.7283030028	-0.0984158809	-0.5024339791	 0.149342
H	 0.4599016668	 0.7992452325	 0.9928331753	 0.087695
H	-1.9884999329	 0.1753871875	 0.9076662858	 0.079134
H	-2.703454214	-1.2532495889	-0.7794527905	 0.23295
H	-1.9501555144	-2.2167960326	 1.1807557232	 0.069804
H	-0.6267948252	-3.733370447	 2.0002377802	 0.24288
H	 1.0053492212	-5.5427795237	 1.320392637	 0.124685
H	 2.00421227	-4.1981281029	 0.7180723135	 0.173549
H	 1.755499413	-4.408814421	 2.469489662	 0.123363
37.6151	73.9127	84.7557	125.1811	142.0968	213.7808	238.5889	254.357	325.2391	382.5532	419.3668	469.2893	494.769	687.1363	770.8695	778.3539	816.7293	863.7808	903.8682	930.283	957.3799	1031.4559	1040.1617	1074.2338	1101.663	1146.5859	1153.8873	1166.3015	1195.3083	1225.9819	1236.7554	1266.3274	1310.1829	1345.5052	1406.0412	1429.7365	1440.1712	1475.6684	1486.7903	1493.6789	1499.7021	1500.2818	1509.0412	1560.4297	1779.7813	3025.0857	3026.9419	3028.6492	3075.9176	3079.7222	3090.136	3100.7808	3111.0144	3128.8013	3153.0206	3506.1886	3651.5902
CCC1NC1C(=O)NC	CC[C@H]1N[C@H]1C(=O)NC	
InChI=1S/C6H12N2O/c1-3-4-5(8-4)6(9)7-2/h4-5,8H,3H2,1-2H3,(H,7,9)	InChI=1S/C6H12N2O/c1-3-4-5(8-4)6(9)7-2/h4-5,8H,3H2,1-2H3,(H,7,9)/t4-,5-/m1/s1
