17
gdb 39740	3.85035	1.55445	1.35498	2.4336	79.39	-0.2239	-0.0425	0.1814	963.2465	0.136177	-384.561647	-384.555008	-384.554064	-384.59234	27.629	
C	-0.2349526073	 1.3882999901	-0.2838589976	-0.2873
O	 1.0571142253	 0.8640807985	 0.1104542655	-0.278318
C	-0.0003147041	-0.0367240298	-0.0943434146	 0.44238
C	-0.3563475347	-1.0393571436	 1.0378955282	-0.140279
C	-1.2218143937	-2.3102410522	 0.6770373211	-0.058995
C	-2.0964228609	-2.398860169	-0.586951954	-0.265642
C	-1.2914054178	-1.4820505729	-1.4974754262	-0.071414
C	-0.0554874361	-1.2743318819	-0.9898527237	-0.084779
C	 0.1873757195	-2.1903060289	 0.2282046889	-0.10605
H	-0.7537564758	 1.9646534326	 0.4808500286	 0.116008
H	-0.2720200989	 1.8068848146	-1.2887030931	 0.11935
H	-0.147929537	-0.8315832361	 2.0840064875	 0.099697
H	-1.476000106	-2.9087875901	 1.5502136624	 0.084688
H	-2.2039278861	-3.4473174132	-0.898117	 0.115781
H	-3.1087642733	-1.9914070177	-0.4777445837	 0.112723
H	-1.7994103633	-0.7374661902	-2.1041994749	 0.104038
H	 1.0425070801	-2.8224793001	 0.4227010754	 0.098112
145.251	257.1131	288.9035	363.1619	407.068	476.7559	569.0214	675.9092	723.719	752.7335	796.4327	802.8237	834.2192	852.5143	879.204	899.6003	945.315	953.4446	978.8891	987.5037	1026.0889	1049.3048	1065.0278	1086.8567	1112.4707	1133.7081	1158.236	1178.5007	1217.559	1253.7598	1271.6418	1290.3934	1368.8275	1423.7031	1471.7635	1533.9046	1569.1531	3008.3467	3054.4925	3082.4664	3132.0494	3152.2919	3165.7642	3169.2277	3209.6923
C1OC11C2C3CC=C1C23	C1O[C@]21[C@H]1[C@H]3C[CH][C]2[C@@H]13	
InChI=1S/C8H8O/c1-2-5-6-4(1)7(6)8(5)3-9-8/h2,4,6-7H,1,3H2	InChI=1S/C8H8O/c1-2-5-6-4(1)7(6)8(5)3-9-8/h2,4,6-7H,1,3H2/t4-,6-,7-,8-/m0/s1
