22
gdb 58608	2.29046	1.36543	1.07777	2.438	82.08	-0.2346	-0.0117	0.223	1253.3817	0.191803	-404.351025	-404.34066	-404.339716	-404.386298	38.389	
C	 0.5363292975	 1.6129087368	-0.3108048697	-0.393586
C	 0.0617431857	 0.1857343681	 0.01799782	-0.037075
C	 0.1225462148	-0.7091202155	-1.2252715606	-0.422787
C	 0.8294232315	-0.3475921318	 1.2321383484	 0.204041
C	 1.3098711032	-1.7668721663	 1.302975778	-0.283364
N	 2.2696153301	-0.674351673	 1.141805733	-0.347545
C	 0.4167728091	 0.2867293017	 2.5478982176	 0.362978
C	 1.4186222961	 0.2912855734	 3.6850787149	-0.476618
O	-0.6846932651	 0.7792955196	 2.6682538671	-0.318533
H	 1.5873111985	 1.6221601616	-0.6236064314	 0.107009
H	-0.0560981068	 2.0378119762	-1.1268536469	 0.113822
H	 0.4341151889	 2.2722385356	 0.5550057818	 0.131242
H	-0.9814975924	 0.2531353629	 0.3418905254	 0.107937
H	 1.1524740074	-0.8921670078	-1.5586910867	 0.104869
H	-0.3581959123	-1.6773918328	-1.0607792478	 0.12109
H	-0.3953122179	-0.2220282932	-2.0568971698	 0.120932
H	 1.3506454388	-2.281892898	 2.258823348	 0.119999
H	 1.0974601003	-2.4115563267	 0.4568915617	 0.123192
H	 2.568015712	-0.6158650207	 0.1705590333	 0.234714
H	 1.8252072952	-0.7046146213	 3.8809456581	 0.140082
H	 2.27355614	 0.9175323905	 3.4116150335	 0.154024
H	 0.9351312556	 0.6832374106	 4.580416412	 0.133576
62.5645	71.3765	128.9841	189.2499	217.2293	234.7342	259.2359	293.3912	311.6277	339.7379	410.5215	463.4941	480.6921	564.8696	616.4947	649.1781	803.0526	841.0168	889.8049	927.8605	939.3792	960.3074	977.5876	986.8045	1028.6092	1053.1252	1107.7452	1129.9591	1149.2574	1158.6961	1195.3168	1258.3517	1305.0744	1335.6537	1351.6661	1382.4267	1392.6636	1400.8593	1422.4121	1451.1604	1469.9268	1485.9549	1495.3765	1504.6627	1509.7623	1520.1423	1790.235	3019.8387	3030.1674	3053.1388	3062.657	3088.1755	3099.4509	3110.0872	3115.6528	3119.383	3120.1582	3157.3647	3205.9989	3491.6478
CC(C)C1(CN1)C(C)=O	CC(C)[C@]1(CN1)C(=O)C	
InChI=1S/C7H13NO/c1-5(2)7(4-8-7)6(3)9/h5,8H,4H2,1-3H3	InChI=1S/C7H13NO/c1-5(2)7(4-8-7)6(3)9/h5,8H,4H2,1-3H3/t7-/m1/s1
