17
gdb 87080	4.43357	0.71095	0.66943	1.9215	93.95	-0.2426	-0.0252	0.2174	1694.7172	0.131672	-384.624314	-384.614358	-384.613414	-384.659306	35.95	
C	-0.0462002993	 1.5396901274	-0.1020393414	-0.428223
C	-0.0125010936	 0.0449278057	 0.0821207545	 0.049457
O	 1.2270628605	-0.6318317116	-0.1230623506	-0.273783
C	 0.6616672097	-0.6602320853	 1.2057898346	 0.088125
C	 1.4500293315	 0.0566694085	 2.2837045634	-0.472944
C	 0.1241322067	-1.9391119982	 1.6071108163	 0.4313
C	-0.31947253	-3.0026252068	 1.9794840333	-0.213474
C	-0.8231600561	-4.1977985291	 2.388138761	 0.291721
C	-1.2708565378	-5.2586592936	 2.7523283533	-0.572182
H	 0.8145696621	 2.0339101962	 0.3509612652	 0.130483
H	-0.0474374692	 1.7777691087	-1.1709816222	 0.137141
H	-0.9614685854	 1.9541554103	 0.3334742462	 0.129562
H	-0.8654146728	-0.4800129869	-0.3522088816	 0.099448
H	 1.8624467699	 0.9947259173	 1.9105366848	 0.132318
H	 0.813325285	 0.2632710017	 3.1491752271	 0.134908
H	 2.2792365974	-0.5741315707	 2.6164285507	 0.142622
H	-1.6638373085	-6.1922353635	 3.0705292455	 0.193519
72.6366	80.6407	151.6931	159.1103	198.5472	222.1748	277.5912	325.5365	347.888	462.4807	486.5296	507.6344	527.8566	553.1808	592.5076	603.4724	625.049	762.7527	834.6335	907.633	986.8195	1054.3142	1064.8922	1100.1999	1133.906	1183.158	1283.0145	1331.2802	1401.0097	1415.6056	1445.7986	1474.038	1484.5134	1492.2872	1509.6688	2180.8118	2355.7615	3042.3177	3051.4087	3092.6442	3103.1799	3117.0381	3138.86	3150.7579	3504.4426
CC1OC1(C)C#CC#C	C[C@H]1O[C@]1(C)C#CC#C	
InChI=1S/C8H8O/c1-4-5-6-8(3)7(2)9-8/h1,7H,2-3H3	InChI=1S/C8H8O/c1-4-5-6-8(3)7(2)9-8/h1,7H,2-3H3/t7-,8-/m1/s1
