17
gdb 111134	3.5605	1.28837	1.19056	1.4536	66.3	-0.2412	0.0655	0.3067	1066.7936	0.136268	-458.881754	-458.874414	-458.87347	-458.913734	28.763	
O	-0.076189573	 1.4007115583	-0.2687187547	-0.427031
C	 0.0004725389	 0.0328999458	 0.1164569259	-0.127056
C	-1.4157621866	-0.5061838322	 0.1118430113	 0.037883
C	-2.0078152431	-0.7387605693	-1.3012726878	 0.023789
O	-1.2185428271	-1.9842989856	-1.3793696706	-0.308172
C	-1.526696857	-2.0504668636	 0.0595256846	-0.006645
C	-3.0565642799	-2.3092958591	 0.000103189	 0.033186
O	-3.8794272039	-1.180731867	 0.3307144152	-0.240558
C	-3.4151353906	-1.3274054594	-1.0218350437	 0.031542
H	 0.8187338885	 1.7492360447	-0.3154265975	 0.288673
H	 0.6254047643	-0.5464180856	-0.5753899997	 0.104936
H	 0.4233758447	-0.0712146148	 1.1290881523	 0.084542
H	-2.0416761252	 0.0209221707	 0.8297719392	 0.108001
H	-1.8595382366	-0.0619928863	-2.14006377	 0.090916
H	-0.8918649598	-2.7375493632	 0.6188222276	 0.079674
H	-3.4952551696	-3.2926904901	 0.1230992952	 0.113032
H	-4.1703059739	-1.4529476433	-1.7889136664	 0.113287
89.4338	157.4499	225.2863	276.533	360.7677	395.553	472.9453	597.139	615.9981	706.7482	783.4053	820.6844	853.8837	863.9075	883.3436	893.4636	924.6503	961.4672	984.8996	1041.7882	1063.0231	1075.442	1085.9044	1106.6639	1171.314	1186.4571	1216.7527	1239.6951	1245.8203	1267.3014	1278.1089	1289.2388	1299.3135	1367.0416	1409.5763	1457.0483	1524.435	2968.4298	3035.5563	3124.1059	3134.1969	3151.279	3182.2626	3194.5943	3831.9614
OCC1C2OC1C1OC21	OC[C@H]1[C@H]2O[C@@H]1[C@H]1O[C@@H]21	
InChI=1S/C6H8O3/c7-1-2-3-5-6(9-5)4(2)8-3/h2-7H,1H2	InChI=1S/C6H8O3/c7-1-2-3-5-6(9-5)4(2)8-3/h2-7H,1H2/t2-,3+,4-,5-,6+
