15
gdb 47954	4.98403	0.64107	0.60724	3.4556	81.65	-0.2758	-0.0802	0.1956	1780.9496	0.110133	-420.602458	-420.593257	-420.592313	-420.638402	30.935	
O	-0.4259155223	 0.3909898353	-0.6077038597	-0.216055
C	 0.0810684005	 1.0345458387	 0.2798673382	 0.020816
C	 1.2858277064	 1.8142570379	 0.1258634737	 0.087645
C	 2.2907810602	 2.4816687866	 0.0258383562	 0.029035
C	 3.4921910292	 3.2919668317	-0.1080865311	 0.237959
O	 3.4107888356	 4.4860110457	-0.3229766575	-0.313535
C	 4.778092815	 2.5651698502	 0.034355388	-0.118527
C	 5.9487212008	 3.0650522929	-0.8064295363	-0.246444
C	 5.9397128727	 3.3333520608	 0.6559915537	-0.247948
H	-0.3510179587	 1.0729693735	 1.2997586687	 0.113354
H	 4.7085292327	 1.5014724724	 0.2268444139	 0.106321
H	 6.6180289952	 2.3105101329	-1.202316922	 0.127703
H	 5.7258683801	 3.8928750294	-1.4695050697	 0.146959
H	 5.7103543658	 4.3424028022	 0.9783159389	 0.146028
H	 6.6037386767	 2.7708561898	 1.3015873649	 0.126689
43.3357	49.9092	88.9293	110.8199	232.4879	237.5724	277.3894	297.3685	385.874	570.8886	663.9695	747.8602	755.6211	808.4312	825.0959	888.7014	898.0387	996.4753	1017.2696	1064.0703	1096.8634	1112.1295	1123.105	1161.9809	1210.3261	1218.7347	1401.8618	1417.4665	1454.7504	1485.2113	1743.9192	1771.4837	2293.6993	2930.266	3145.0164	3146.4753	3188.0447	3233.4089	3247.8084
O=CC#CC(=O)C1CC1	O=CC#CC(=O)C1CC1	
InChI=1S/C7H6O2/c8-5-1-2-7(9)6-3-4-6/h5-6H,3-4H2	InChI=1S/C7H6O2/c8-5-1-2-7(9)6-3-4-6/h5-6H,3-4H2
