17
gdb 23505	5.07122	1.18035	1.07852	0.9817	77.08	-0.2346	0.0092	0.2438	1112.9272	0.137485	-417.902948	-417.895992	-417.895047	-417.934225	28.169	
O	-0.159287817	 1.3337574308	 0.0506362846	-0.39566
N	 0.0283986402	-0.0643770894	 0.018213274	-0.270199
C	-1.0908090064	-0.6628708338	-0.0010597622	 0.426704
C	-2.5199507733	-0.1531716817	 0.0046427701	-0.268507
N	-3.2967710842	-1.4168545004	-0.0289405346	-0.136866
C	-2.5481341255	-2.4120960077	 0.8633850711	-0.019789
C	-3.0007541385	-3.5401414881	-0.0781601132	-0.238935
C	-2.5399260862	-2.3686658179	-0.960850079	-0.019789
C	-1.2904668795	-2.1348064492	-0.0370064055	-0.120695
H	 0.7467137522	 1.6601431865	 0.0624601978	 0.305642
H	-2.7589269069	 0.4253444351	 0.9023254492	 0.130694
H	-2.7509635731	 0.4674673386	-0.8666003147	 0.130694
H	-2.6086518422	-2.3515280914	 1.9520914677	 0.088319
H	-2.3899949047	-4.4436942251	-0.0969239961	 0.101587
H	-4.0707993633	-3.7506059584	-0.087983687	 0.113233
H	-2.5906586985	-2.2563439567	-2.0459408463	 0.088319
H	-0.4252588431	-2.7961757812	-0.048860506	 0.085248
110.1399	198.2245	279.3803	371.9966	398.7679	434.5494	486.6668	557.5749	696.286	718.406	723.7565	800.3606	830.6677	875.7831	881.7223	925.8599	950.5355	971.2296	1015.0723	1017.8334	1053.8095	1073.8471	1107.5461	1116.4951	1131.0076	1174.1186	1207.1343	1217.354	1221.2629	1250.2732	1254.6789	1293.8571	1305.7827	1411.5628	1475.4052	1496.3026	1780.8588	3057.4448	3078.56	3092.1114	3098.99	3099.1809	3134.3447	3153.8541	3818.3043
ON=C1CN2C3CC2C13	ON=C1CN2[C@H]3C[C@@H]2[C@@H]13	
InChI=1S/C6H8N2O/c9-7-3-2-8-4-1-5(8)6(3)4/h4-6,9H,1-2H2	InChI=1S/C6H8N2O/c9-7-3-2-8-4-1-5(8)6(3)4/h4-6,9H,1-2H2/t4-,5+,6-
