20
gdb 105805	2.35093	1.50961	1.25959	2.3662	79.29	-0.2156	0.0635	0.2791	1120.8117	0.170118	-403.054367	-403.045631	-403.044687	-403.087481	33.91	
C	-0.105905874	 1.5072360649	 0.0054350292	-0.377052
C	 0.0612130771	-0.0183760838	-0.0138924902	-0.265693
C	 0.6949810459	-0.4914302426	-1.2907192965	 0.33702
C	-0.0709253561	-0.9404611226	-2.492563005	 0.039954
O	-0.0513437253	-0.3452479315	-3.7632206511	-0.418307
C	 0.9250276776	-1.8981110148	-1.8952888583	-0.231405
C	 2.3932751937	-1.4800793658	-2.0483931615	-0.039594
C	 2.6509085835	-0.2449913871	-2.821064803	-0.260451
N	 2.167551283	-0.1357452328	-1.4217370876	-0.183421
H	 0.8614877712	 1.9957344415	-0.1425546125	 0.13838
H	-0.7786756677	 1.8405799406	-0.7913835514	 0.118526
H	-0.5164309489	 1.8449961831	 0.9617397755	 0.107999
H	 0.6920431863	-0.3292723622	 0.8274458936	 0.106839
H	-0.9096982964	-0.5116682281	 0.1131986644	 0.092607
H	-1.0813986811	-1.2234551341	-2.1837880991	 0.093824
H	-0.1570222909	-1.0478206424	-4.4146850334	 0.28677
H	 0.6330907702	-2.8689434127	-1.5124964395	 0.088933
H	 3.1934496665	-2.1176538723	-1.6852931572	 0.097987
H	 3.6921170417	 0.0612363846	-2.8899379394	 0.114394
H	 2.0146353535	 0.0545813282	-3.6393812668	 0.15269
85.6995	136.2267	194.6762	211.2427	276.5719	293.475	316.4149	363.7482	427.5214	512.5271	584.2164	676.3768	716.9765	769.6421	779.1456	786.7879	848.2198	903.161	944.5205	975.2021	980.6129	1000.7097	1018.921	1060.8869	1069.8601	1097.5531	1124.8412	1143.1532	1175.3016	1205.5448	1238.2294	1265.4459	1291.3334	1299.8147	1352.4638	1362.9343	1374.3971	1406.4524	1474.9567	1477.0348	1497.3857	1501.0222	1510.3917	3028.8821	3038.7153	3060.0375	3067.9952	3107.8912	3118.5031	3124.6765	3153.5176	3180.142	3265.5586	3795.8061
CCC12C(O)C1C1CN21	CC[C@]12[C@@H](O)[C@H]1[C@H]1CN21	
InChI=1S/C7H11NO/c1-2-7-5(6(7)9)4-3-8(4)7/h4-6,9H,2-3H2,1H3	InChI=1S/C7H11NO/c1-2-7-5(6(7)9)4-3-8(4)7/h4-6,9H,2-3H2,1H3/t4-,5-,6+,7-,8?/m1/s1
