18
gdb 6338	5.18038	1.06264	0.89641	4.9072	70.93	-0.2435	-0.0097	0.2338	1299.6406	0.152498	-381.175161	-381.165605	-381.164661	-381.210983	32.764	
C	-0.0577108111	 1.6680684966	 0.0748327659	-0.366246
C	 0.0915561068	 0.1565674152	-0.0741874195	-0.272589
C	 0.7905521705	-0.2645822508	-1.351972979	 0.389257
N	 1.2030296378	 0.5796634639	-2.2012807882	-0.49944
N	 0.9085635715	-1.6737690552	-1.4517144009	-0.374174
C	 1.487562313	-2.3940971599	-2.4783983801	 0.418764
C	 1.4480447825	-3.8998899205	-2.2729275219	-0.497698
O	 1.985071259	-1.8769356855	-3.4592847166	-0.34252
H	 0.9188630112	 2.1568271842	 0.0694855037	 0.137
H	-0.6319548273	 2.0849930047	-0.7552449522	 0.137002
H	-0.5674471807	 1.9086531683	 1.0123786858	 0.103516
H	 0.6503575334	-0.2579038804	 0.7775117075	 0.112222
H	-0.8944957769	-0.3294643384	-0.0439592286	 0.112221
H	 1.6446555215	 0.1073419153	-2.9907864296	 0.25005
H	 0.5259168595	-2.2070764215	-0.6858552955	 0.248422
H	 0.4160416612	-4.2557265491	-2.1847811849	 0.142869
H	 1.9225028459	-4.3798400592	-3.1278321996	 0.158336
H	 1.9789687222	-4.1836443478	-1.3580253164	 0.143009
27.774	59.4344	92.4236	120.2945	165.6541	221.0701	300.379	342.133	406.0476	531.8136	547.6622	548.8282	625.082	680.1252	811.9002	867.3447	930.3573	977.2214	996.0241	1034.3987	1051.176	1087.7488	1107.835	1117.9116	1252.3037	1291.7826	1311.3118	1386.0117	1404.9709	1415.387	1465.2158	1472.3472	1482.6787	1488.7862	1499.492	1510.654	1740.9465	1799.9715	3002.8365	3028.946	3042.3608	3053.7272	3104.8719	3125.9054	3138.4524	3166.6434	3485.3421	3617.1689
CCC(=N)NC(C)=O	CCC(=N)NC(=O)C	
InChI=1S/C5H10N2O/c1-3-5(6)7-4(2)8/h3H2,1-2H3,(H2,6,7,8)	InChI=1S/C5H10N2O/c1-3-5(6)7-4(2)8/h3H2,1-2H3,(H2,6,7,8)
