18
gdb 39955	4.25701	1.13077	1.02753	1.8311	80.66	-0.2273	-0.0023	0.225	1188.1233	0.148353	-401.911215	-401.903584	-401.902639	-401.943745	30.123	
C	-0.2113756395	 1.5021788111	 0.0344991382	-0.288387
N	 1.1567572345	 0.9710346926	-0.070607427	-0.352961
C	 0.0134270666	 0.0332708182	 0.0069547652	 0.311944
C	-0.088029545	-0.8864925269	 1.2293727607	-0.386386
C	-0.3943196505	-2.2693016362	 0.6407957765	 0.411222
C	 0.0307831571	-3.5439269718	 1.2405182489	-0.245067
O	-1.326865433	-3.1128744699	 1.3377857891	-0.279583
C	-0.5848520878	-2.0707005722	-0.821394859	-0.161405
C	-0.365581568	-0.7996121769	-1.1647518494	-0.154634
H	-0.4393810475	 1.9882459419	 0.9798863798	 0.120932
H	-0.6660497536	 1.9714773095	-0.8350779144	 0.110989
H	 1.4856645434	 1.0400409378	-1.0316734552	 0.22912
H	 0.8384365803	-0.8633205389	 1.8069023879	 0.124034
H	-0.9098895474	-0.5941294464	 1.8895149054	 0.125641
H	 0.2041409342	-4.4153996281	 0.6088199137	 0.109979
H	 0.5975896689	-3.529400032	 2.1715251958	 0.113291
H	-0.8704801849	-2.880027597	-1.4819772732	 0.109095
H	-0.4287243279	-0.3900209449	-2.1677005229	 0.102176
41.916	188.1132	256.7906	327.885	331.0623	397.9057	404.7831	434.2219	590.0189	617.2845	770.4426	801.9158	816.6466	822.8879	833.2539	904.4393	922.797	947.3388	957.3887	959.0486	983.4788	1033.1756	1074.207	1108.7307	1128.2556	1132.5449	1160.3146	1194.1058	1227.1596	1255.9062	1270.7395	1313.7149	1343.2899	1385.2061	1433.0732	1477.1083	1509.4866	1526.5501	1665.8739	3064.0968	3069.9924	3098.625	3115.7154	3155.7063	3181.3704	3183.9991	3216.7384	3484.2611
C1NC11CC2(CO2)C=C1	C1N[C@]21C[C@]1(CO1)C=C2	
InChI=1S/C7H9NO/c1-2-7(5-9-7)3-6(1)4-8-6/h1-2,8H,3-5H2	InChI=1S/C7H9NO/c1-2-7(5-9-7)3-6(1)4-8-6/h1-2,8H,3-5H2/t6-,7-/m0/s1
