19
gdb 64939	3.70299	0.70935	0.62962	0.7096	91.16	-0.2316	0.0399	0.2714	1796.9789	0.156341	-348.682077	-348.671964	-348.67102	-348.718891	36.658	
C	-0.0390807314	 1.5225191372	-0.0075293869	-0.455987
C	 0.0236515671	 0.00206244	 0.0048472227	 0.184407
C	 1.3754944896	-0.6633043611	-0.2115068931	-0.28739
C	 0.752137763	-0.6779868266	 1.1554513137	-0.287425
C	-1.1373480094	-0.6613374817	-0.5315408917	 0.02186
C	-2.1181163279	-1.1941268889	-0.9840888215	 0.088292
C	-3.3087338179	-1.8469423419	-1.533321489	-0.494697
C	-3.2227808363	-3.3091436988	-1.5394108214	 0.319177
C	-3.1648098805	-4.5082931632	-1.5497885959	-0.447583
H	 0.8762929609	 1.9483518927	 0.4149337319	 0.112417
H	-0.1518246437	 1.9011510111	-1.0282965911	 0.125437
H	-0.8871725821	 1.8839099121	 0.5825332901	 0.12541
H	 1.3943802131	-1.588458077	-0.7748376047	 0.126135
H	 2.2223042936	-0.0081153011	-0.386485762	 0.114587
H	 1.1700402234	-0.0330698672	 1.9212308359	 0.114577
H	 0.3466174703	-1.6131452635	 1.5223851567	 0.126033
H	-4.1964648536	-1.5426845866	-0.9609898209	 0.158024
H	-3.4855277279	-1.494188795	-2.5592296427	 0.158073
H	-3.1090975303	-5.5685097706	-1.5570282802	 0.198655
12.9266	61.5412	127.0765	145.3412	222.2244	283.8206	303.9268	318.486	322.8065	345.5222	473.1019	539.8015	555.633	619.517	638.7648	654.0565	787.1085	840.7518	845.867	935.9363	941.5121	942.1156	954.7376	1045.2039	1070.9144	1077.9757	1087.4128	1117.7161	1194.6925	1229.8827	1293.9931	1325.8008	1357.9487	1414.1782	1456.324	1465.884	1486.9769	1497.0224	1503.5976	2246.4766	2368.4887	3003.2537	3025.8434	3033.5915	3104.1501	3107.4453	3135.1566	3139.6544	3221.0454	3235.4403	3507.0656
CC1(CC1)C#CCC#C	CC1(CC1)C#CCC#C	
InChI=1S/C9H10/c1-3-4-5-6-9(2)7-8-9/h1H,4,7-8H2,2H3	InChI=1S/C9H10/c1-3-4-5-6-9(2)7-8-9/h1H,4,7-8H2,2H3
