18
gdb 97038	3.13596	1.31143	0.94233	2.8455	77.61	-0.2309	0.0041	0.235	1229.2881	0.148205	-435.324977	-435.315661	-435.314717	-435.359403	32.861	
C	-0.0222067096	 1.4178864573	 0.0496116989	-0.335931
N	-0.0500050521	-0.033427498	 0.0115390918	-0.351347
C	 0.5685346558	-0.6010427594	-0.9389041622	 0.478246
N	 1.3102560449	-0.0650580431	-1.9885139832	-0.376194
C	 1.679952846	-1.1044351079	-2.9368528084	-0.29745
C	 1.2800310236	-2.3925936878	-2.2133767257	 0.409411
O	 1.4861678167	-3.5281872391	-2.5718206189	-0.373926
N	 0.6329927661	-1.9941750267	-1.066197378	-0.151666
C	 0.0789877698	-2.9049547083	-0.0860585072	-0.339753
H	 0.9938116606	 1.8294184475	-0.0544085166	 0.111553
H	-0.6441815346	 1.8681337896	-0.7410172882	 0.105796
H	-0.4256172217	 1.7611675577	 1.005505129	 0.12763
H	 1.0319987074	 0.840336828	-2.330420701	 0.256422
H	 1.1369987428	-1.0408341385	-3.8883323066	 0.14053
H	 2.7521640849	-1.1165059507	-3.1584947436	 0.145653
H	 0.3149533022	-3.9171829999	-0.4162988694	 0.158581
H	 0.5155399395	-2.7132867751	 0.8972034676	 0.146721
H	-1.0036749322	-2.7744282856	-0.0113617783	 0.145725
85.0239	97.8066	113.7487	171.5917	196.8466	208.746	286.5244	293.4504	399.8292	450.6524	562.1781	588.5831	631.9716	718.222	726.1411	768.4718	951.9515	1009.6704	1058.9575	1089.8752	1117.3545	1118.5232	1161.881	1172.2096	1191.1367	1198.5012	1301.3404	1357.3459	1411.6478	1424.6642	1443.6962	1471.7686	1483.5672	1497.4999	1500.0413	1506.1011	1515.7838	1769.9452	1844.7274	2965.2748	3010.2199	3029.6179	3054.8205	3073.8444	3099.3868	3119.4004	3159.6848	3644.2828
CN=C1NCC(=O)N1C	CN=C1NCC(=O)N1C	
InChI=1S/C5H9N3O/c1-6-5-7-3-4(9)8(5)2/h3H2,1-2H3,(H,6,7)	InChI=1S/C5H9N3O/c1-6-5-7-3-4(9)8(5)2/h3H2,1-2H3,(H,6,7)
