15
gdb 64904	2.04433	1.71681	1.10754	4.6554	73.75	-0.2409	0.0048	0.2457	1086.0789	0.109748	-416.752425	-416.743016	-416.742072	-416.786139	34.74	
N	 0.0627193359	 1.4316129343	 0.0094054598	-0.556871
C	 0.0317365916	-0.0071621475	 0.0152729633	 0.123874
C	-0.5074289648	-0.7225768041	 1.2323897871	-0.362999
C	-1.3260488698	-0.7622862978	-0.0467682104	 0.138167
O	-2.3961562143	 0.1378807231	-0.1351056789	-0.448664
C	-1.46839052	-1.988409306	-0.776158	 0.321558
C	-1.6075554279	-3.0186771014	-1.3805299506	-0.459134
C	 1.1514613066	-0.607671866	-0.6707837303	 0.288874
N	 2.0447707642	-1.077503934	-1.233982232	-0.340075
H	 0.1458670023	 1.7649812858	-0.9476173017	 0.249485
H	-0.8282564215	 1.7759370787	 0.3553949798	 0.251491
H	-0.0111286605	-1.629603381	 1.5545079351	 0.152936
H	-0.886996257	-0.0844564578	 2.023726456	 0.135188
H	-3.1675736479	-0.2788617727	 0.2658847061	 0.298563
H	-1.713442477	-3.9236031736	-1.9267378431	 0.207607
101.9054	115.6285	177.7545	194.6753	210.125	267.4833	286.574	333.807	419.5031	432.4024	466.3698	551.7122	585.4078	606.0081	633.1545	675.1833	690.9704	753.4859	836.5377	891.2788	922.6611	979.2848	1045.8291	1077.7329	1188.2785	1225.1488	1296.0462	1349.4473	1393.56	1460.0287	1665.2385	2233.4584	2361.6773	3139.0502	3241.2651	3492.4392	3499.1452	3573.7426	3799.7226
NC1(CC1(O)C#C)C#N	N[C@]1(C[C@]1(O)C#C)C#N	
InChI=1S/C6H6N2O/c1-2-6(9)3-5(6,8)4-7/h1,9H,3,8H2	InChI=1S/C6H6N2O/c1-2-6(9)3-5(6,8)4-7/h1,9H,3,8H2/t5-,6-/m1/s1
