13
gdb 130868	3.23506	1.47665	1.01387	5.0247	71.36	-0.2507	-0.1027	0.1479	1061.2586	0.090648	-452.787928	-452.780761	-452.779816	-452.820064	26.098	
O	-0.200086073	 0.0178246479	 0.0019023412	-0.229981
C	-0.0324803017	 1.2094670219	 0.0089514094	 0.095003
C	 1.272259188	 1.9140789385	 0.0003357701	 0.070967
C	 1.2814762585	 3.280387558	 0.0112693418	-0.173883
C	 2.4991978407	 4.0078126666	 0.0040356402	-0.001427
N	 3.6645020995	 3.4129282256	-0.0133871356	-0.160626
N	 3.6511104243	 2.0871885781	-0.0240312156	-0.2538
C	 2.5506874699	 1.1934681841	-0.0193731106	 0.366903
O	 2.7550509582	 0.0010438137	-0.0316333296	-0.338502
H	-0.8947797855	 1.9174086863	 0.023444317	 0.073487
H	 0.3381557565	 3.8219812038	 0.025826109	 0.129814
H	 2.520299287	 5.0904621944	 0.0126033909	 0.139716
H	 4.5622795678	 1.6437016309	-0.0375493181	 0.282329
76.9481	151.9751	200.4297	267.5778	413.0983	416.9979	454.6929	570.2169	593.2776	666.159	727.3325	763.2098	792.4408	872.8782	929.9423	970.3751	1038.1628	1062.5161	1109.3486	1192.6267	1238.687	1361.9003	1407.9166	1437.6338	1454.7295	1565.9644	1636.6704	1783.2778	1838.984	2849.6116	3157.0543	3214.1568	3573.2967
O=CC1=CC=NNC1=O	O=Cc1ccn[nH]c1=O	
InChI=1S/C5H4N2O2/c8-3-4-1-2-6-7-5(4)9/h1-3H,(H,7,9)	InChI=1S/C5H4N2O2/c8-3-4-1-2-6-7-5(4)9/h1-3H,(H,7,9)
