22
gdb 100734	2.7275	1.00641	0.81952	14.7487	82.3	-0.1686	-0.0066	0.162	1464.3525	0.192626	-441.457007	-441.44623	-441.445286	-441.493376	38.827	
C	-0.2061067406	 1.5531691456	-0.082634099	-0.351895
N	 0.0103798255	 0.0790351569	-0.0673184684	-0.251724
H	 0.4301211778	-0.2077479904	 0.8193445513	 0.29786
H	-0.8861802584	-0.4102386962	-0.1274760826	 0.302822
C	 0.8924968342	-0.507286565	-1.2122147362	 0.03674
C	 2.3404494817	-0.1199890674	-0.9612961155	-0.420672
C	 0.6530068587	-2.007057987	-1.3125253939	-0.157655
C	-0.8128361656	-2.4367780026	-1.1909914571	-0.440284
C	 1.2116628779	-2.5145999514	-2.7522800241	 0.379604
O	 1.7993395844	-1.6350670221	-3.4141203672	-0.471524
O	 0.9560244652	-3.6991465106	-2.9788306757	-0.449997
H	 0.7538227724	 2.0552238268	 0.0262599524	 0.18619
H	-0.6534703875	 1.8205661647	-1.0401992587	 0.188969
H	-0.8715026699	 1.8368860452	 0.7346578878	 0.165782
H	 0.5194612934	-0.0267700764	-2.1202830993	 0.135928
H	 2.5043646039	 0.962461454	-0.9419975794	 0.105077
H	 2.7143563378	-0.5559120269	-0.0260780544	 0.106165
H	 2.8927053416	-0.5411906057	-1.803670373	 0.213957
H	 1.2457194914	-2.5251695626	-0.5465612184	 0.073751
H	-1.4656612764	-1.8495219619	-1.8530778858	 0.106753
H	-0.8570454918	-3.4717370594	-1.5383613821	 0.177244
H	-1.2301323456	-2.4073587276	-0.1701514706	 0.06691
53.0464	63.6002	79.5935	177.6492	204.5461	240.7771	253.7635	279.2028	287.1965	331.559	347.8225	368.5608	462.0631	515.64	602.4748	714.4291	769.3035	788.0294	807.6707	850.7974	976.5151	995.5734	1007.2365	1017.6414	1049.7064	1103.7391	1128.6566	1158.211	1198.9523	1229.2734	1283.3342	1314.3376	1320.3182	1346.0942	1370.5972	1378.2965	1396.4233	1401.9709	1453.5462	1474.7536	1486.1347	1494.0216	1501.4148	1510.2596	1521.2873	1642.9714	1795.6167	2952.935	3013.6039	3019.4666	3034.3353	3077.393	3084.8045	3105.0026	3121.1045	3139.5279	3165.145	3185.8301	3418.8793	3480.5852
C[NH2+]C(C)C(C)C([O-])=O	C[NH2][C@@H](C)[C@@H](C)C(=O)[O]	
InChI=1S/C6H13NO2/c1-4(6(8)9)5(2)7-3/h4-5,7H,1-3H3,(H,8,9)	InChI=1S/C6H13NO2/c1-4(6(8)9)5(2)7-3/h4-5H,7H2,1-3H3/t4-,5+/m1/s1
