23
gdb 122537	4.15316	0.57818	0.54657	1.0214	83.85	-0.2428	0.0819	0.3247	2083.6461	0.203547	-425.394352	-425.383433	-425.382489	-425.431546	38.534	
C	 0.4619494854	 1.0378598598	 0.4768334316	-0.229422
O	-0.3077037427	 0.1930122958	-0.3534335147	-0.235301
C	 0.4501855847	-0.4394712705	-1.3358453889	 0.109678
C	 1.2181818379	-1.6931483025	-0.9855110618	-0.323523
C	-0.0407351315	-1.7642609559	-1.8339561904	-0.040716
C	-1.3031171175	-2.3909670831	-1.2782185164	-0.20861
C	-1.3047364203	-3.9195629313	-1.3929519204	-0.158843
C	-2.5768229707	-4.5498018621	-0.8428980796	-0.0741
O	-2.4739996488	-5.9583626131	-0.9957196381	-0.422691
H	 1.2466241838	 0.4802938369	 1.0081852035	 0.108348
H	 0.9418903972	 1.8436887691	-0.0994667009	 0.104808
H	-0.2197054982	 1.4830138984	 1.2055728875	 0.125061
H	 0.900048442	 0.2468798949	-2.0560336793	 0.080691
H	 2.1847734884	-1.8711165365	-1.4441500765	 0.108445
H	 1.130780833	-2.0398973892	 0.0396098941	 0.115147
H	 0.1177565282	-1.9431391888	-2.8950453895	 0.084201
H	-1.4213466382	-2.0895216872	-0.2320126366	 0.106851
H	-2.1722017729	-1.9805623229	-1.8104077915	 0.095741
H	-1.1926422034	-4.2224881714	-2.4414804303	 0.10044
H	-0.4454901776	-4.3374081018	-0.855196458	 0.105907
H	-2.699819209	-4.271956065	 0.2171952502	 0.082236
H	-3.452412502	-4.1538159887	-1.3839357402	 0.081991
H	-3.2762120477	-6.3570852049	-0.6466192838	 0.283662
48.5141	73.7793	92.833	107.791	143.1532	181.6352	197.1922	263.6685	275.9916	286.5163	399.9262	439.7725	480.4308	612.1632	754.6334	773.1739	826.4213	860.2264	883.8647	968.6599	1006.2844	1015.7085	1042.8482	1055.3553	1058.9199	1084.9345	1113.2762	1136.8717	1170.1106	1183.6683	1185.4927	1218.0618	1228.9316	1239.2701	1261.1102	1294.4589	1306.5494	1315.3764	1365.3503	1392.0071	1419.9297	1461.7884	1472.6594	1485.1579	1487.8761	1493.7224	1503.1922	1509.5211	1528.9415	2955.3951	2979.7382	2981.2584	3016.0424	3031.395	3032.301	3063.2333	3076.8571	3083.0381	3116.3273	3126.0305	3132.2004	3214.4266	3830.6374
COC1CC1CCCO	CO[C@H]1C[C@H]1CCCO	
InChI=1S/C7H14O2/c1-9-7-5-6(7)3-2-4-8/h6-8H,2-5H2,1H3	InChI=1S/C7H14O2/c1-9-7-5-6(7)3-2-4-8/h6-8H,2-5H2,1H3/t6-,7+/m1/s1
