20
gdb 87828	2.85209	1.34199	1.14856	2.4975	79.73	-0.2255	0.0622	0.2877	1161.0127	0.170182	-403.091477	-403.082673	-403.081729	-403.124513	34.293	
C	-0.1169099919	 1.426462957	-0.131760203	-0.391018
C	-0.0066960135	-0.0624584805	 0.0891764759	-0.090003
N	 1.355766939	-0.6424100051	 0.0061245189	-0.389839
C	 0.6433789136	-0.657502551	 1.2776390181	 0.300127
C	 1.2602628013	-0.077575749	 2.5696721645	-0.313025
C	 0.9350773193	-1.407553556	 3.274126746	-0.109351
C	-0.5548114497	-1.6748768201	 3.2076365454	-0.349799
C	 0.2941358202	-1.9465759836	 1.9983846143	 0.323813
O	 0.4205574814	-3.1910529102	 1.4039644295	-0.459154
H	 0.7225867194	 1.9470299507	 0.3366282192	 0.126285
H	-0.1059051931	 1.6657924412	-1.2007371428	 0.118842
H	-1.0481340101	 1.8176878694	 0.2928848142	 0.110987
H	-0.8138309422	-0.6509574514	-0.3498252817	 0.068456
H	 1.3213576973	-1.5779635968	-0.396853905	 0.231831
H	 2.3299772644	 0.1041888041	 2.4471823992	 0.119166
H	 0.7838431182	 0.8125013306	 2.9933818763	 0.096491
H	 1.5674134363	-1.9161363845	 3.9901756605	 0.097063
H	-0.8718567304	-2.5680972006	 3.7386512124	 0.111385
H	-1.2724788298	-0.8570777946	 3.2247588827	 0.106979
H	-0.4601327098	-3.5279673997	 1.2090104554	 0.290763
109.919	139.9197	183.9153	202.8298	240.1382	281.5697	356.3414	413.9776	440.0075	471.291	514.7566	571.2465	669.819	784.9719	798.348	844.7587	868.4364	910.0089	930.6169	950.0065	1001.6557	1010.2409	1022.4971	1041.5648	1071.7703	1084.1768	1096.9607	1129.1659	1159.6939	1201.1528	1231.7846	1238.7071	1253.3871	1292.2645	1308.2046	1355.9831	1397.3067	1409.5563	1470.6078	1476.3729	1490.7262	1498.0957	1511.0525	3031.1563	3048.9655	3087.4094	3092.5408	3098.9916	3115.3078	3120.5519	3189.6518	3200.7512	3474.8989	3805.0772
CC1NC11CC2CC12O	C[C@H]1N[C@]21C[C@H]1C[C@@]21O	
InChI=1S/C7H11NO/c1-4-6(8-4)2-5-3-7(5,6)9/h4-5,8-9H,2-3H2,1H3	InChI=1S/C7H11NO/c1-4-6(8-4)2-5-3-7(5,6)9/h4-5,8-9H,2-3H2,1H3/t4-,5+,6+,7+/m1/s1
