19
gdb 105785	2.11167	1.59707	1.17211	2.3283	71.98	-0.2413	-0.0313	0.21	1135.1305	0.157733	-460.170564	-460.161308	-460.160364	-460.205436	33.093	
C	-0.1589517456	 1.6697629872	-0.1980902866	-0.264287
O	-0.1676032442	 0.2504227873	-0.0875947429	-0.283667
C	 0.5445946116	-0.4647707974	-1.0724067064	 0.395438
C	 0.2874889611	-1.9621719844	-0.8395480922	-0.309109
C	-0.1650559805	-2.4752899809	-2.2177564287	-0.216001
C	-0.7526629648	-1.2103545155	-2.8459244826	-0.090143
O	 0.0991998776	-0.1560650439	-2.3846162391	-0.289112
C	 2.0305401506	-0.0696779409	-1.0824896726	 0.123745
O	 2.9164522484	-0.7426313673	-0.6257408386	-0.248961
H	 0.7876197924	 2.1063912338	 0.1465051457	 0.116655
H	-0.3550596391	 1.9894608587	-1.2267608667	 0.132949
H	-0.9604777687	 2.0315121309	 0.4495772565	 0.132158
H	 1.1836971594	-2.4537512027	-0.4602174164	 0.13847
H	-0.50616991	-2.0526708357	-0.0949746593	 0.12232
H	 0.6915144958	-2.8205624359	-2.8050411916	 0.116493
H	-0.8862478398	-3.2933263329	-2.154208935	 0.108818
H	-0.734565375	-1.1954464927	-3.9382436782	 0.113429
H	-1.7844072297	-1.0377752529	-2.5082254601	 0.10508
H	 2.2331839905	 0.8994804751	-1.5858756952	 0.095723
51.9334	64.1518	120.6064	181.4956	215.4207	260.0519	279.4855	317.2227	430.7388	434.5736	590.0989	598.3036	672.562	776.3209	854.9952	890.4836	927.1034	932.4553	986.4872	1010.0653	1040.9182	1072.7543	1092.1768	1166.0142	1176.481	1183.6973	1210.9651	1223.9679	1263.1291	1285.6894	1327.8378	1344.9715	1384.2412	1415.6117	1469.5738	1482.7792	1495.029	1499.91	1509.766	1521.2754	1838.4362	2906.3522	3007.412	3010.8969	3058.2452	3083.8988	3084.7479	3101.2328	3114.3791	3125.7785	3144.1908
COC1(CCCO1)C=O	CO[C@]1(CCCO1)C=O	
InChI=1S/C6H10O3/c1-8-6(5-7)3-2-4-9-6/h5H,2-4H2,1H3	InChI=1S/C6H10O3/c1-8-6(5-7)3-2-4-9-6/h5H,2-4H2,1H3/t6-/m0/s1
