18
gdb 128807	5.29411	0.82352	0.75747	2.6745	76.41	-0.2486	0.009	0.2576	1542.7527	0.148111	-435.278402	-435.269171	-435.268226	-435.313828	31.436	
C	 0.0964670202	 1.3342324522	-0.1125474842	-0.218828
O	 0.1089446548	-0.0723772758	-0.1340121534	-0.232164
C	 0.5259857761	-0.6247651321	 1.0999384774	-0.16257
C	 0.5797127224	-2.1115963222	 0.9751710782	 0.345713
N	-0.3500815186	-2.8980466968	 1.5023154717	-0.302865
N	 0.0713875365	-4.1343379668	 1.1510720223	 0.061412
C	-0.6755795118	-5.3115186083	 1.5370103233	-0.320658
C	 1.216096055	-4.0348109454	 0.442808418	-0.000278
N	 1.5727481235	-2.7729474149	 0.3131687134	-0.303154
H	 1.0959294362	 1.7499312751	 0.0940353452	 0.103264
H	-0.2288427985	 1.6717231894	-1.0995321584	 0.126999
H	-0.6001991751	 1.7281877867	 0.6452460512	 0.101399
H	 1.524833039	-0.2456607715	 1.3689081275	 0.100966
H	-0.1724168943	-0.3559151965	 1.9068132726	 0.103614
H	-1.6841112352	-5.2721276083	 1.1181630828	 0.157798
H	-0.1596861661	-6.1946375167	 1.1559177017	 0.143938
H	-0.7451211918	-5.3740678153	 2.6258127715	 0.155735
H	 1.7413231377	-4.8962191927	 0.0568984192	 0.139679
41.2904	80.3342	96.5672	112.1135	209.8916	228.732	272.5679	343.6172	386.3346	427.7864	653.7064	678.3421	747.8513	831.0493	855.2364	984.6637	996.4548	1037.4297	1056.3086	1081.5257	1153.157	1154.1072	1182.6906	1223.09	1229.3716	1255.2227	1321.4986	1365.6365	1398.693	1448.902	1459.2442	1473.6752	1476.2146	1484.5492	1495.5934	1507.3661	1518.229	1527.2137	1559.5187	2962.5473	2978.2496	3006.9318	3016.8822	3054.5222	3114.5634	3125.4031	3147.2372	3251.1729
COCC1=NN(C)C=N1	COCc1nn(C)cn1	
InChI=1S/C5H9N3O/c1-8-4-6-5(7-8)3-9-2/h4H,3H2,1-2H3	InChI=1S/C5H9N3O/c1-8-4-6-5(7-8)3-9-2/h4H,3H2,1-2H3
