23
gdb 121228	3.00176	0.78857	0.67092	2.2109	82.49	-0.2407	0.0754	0.3161	1739.9956	0.204469	-425.406074	-425.395464	-425.39452	-425.443106	37.475	
C	-0.162393492	 1.6351779467	 0.162824012	-0.387561
C	 0.317411823	 0.2072157116	-0.1185213808	-0.18444
C	 0.712284602	-0.5138913237	 1.1595578772	 0.141278
O	-0.4076101282	-0.6828178033	 2.0657860649	-0.29311
C	-0.1774863167	-2.0996281306	 2.1720432763	-0.077472
C	 0.9864840718	-2.046761667	 1.1556997383	-0.073294
C	 0.8128321525	-2.8271125622	-0.1427163054	-0.191635
C	 1.0128766826	-4.3257340825	 0.053093569	-0.078926
O	 0.8122771214	-4.9588472651	-1.2006199583	-0.420548
H	 0.6320453539	 2.2382827851	 0.6164585703	 0.111553
H	-0.47857453	 2.1349557254	-0.7574764199	 0.109935
H	-1.0094785328	 1.6217649158	 0.854320234	 0.138343
H	-0.4742415709	-0.3547465	-0.62583101	 0.100895
H	 1.1829803536	 0.2238167409	-0.7937598351	 0.094856
H	 1.5146748727	 0.0519345019	 1.6578595514	 0.06578
H	 0.0938174666	-2.3963673306	 3.1934395965	 0.095731
H	-1.0550218963	-2.6816299133	 1.8587826899	 0.096881
H	 1.9553200496	-2.291846469	 1.6021415117	 0.072934
H	-0.1869073721	-2.6670341136	-0.5616634388	 0.112382
H	 1.5302654904	-2.4803617344	-0.8959095035	 0.10824
H	 2.0276545277	-4.5167272283	 0.4402474753	 0.084462
H	 0.3024690557	-4.7025287142	 0.8076568019	 0.087653
H	 0.9245848554	-5.9063893298	-1.0818033269	 0.286063
36.5183	81.3967	98.7915	108.4826	115.9589	205.2098	231.8049	262.4626	284.0605	340.9268	423.0935	473.2887	508.2352	746.6144	794.4156	829.5018	841.9802	888.4501	937.2381	964.3618	983.4076	1018.3468	1033.069	1050.6941	1080.6966	1106.3834	1123.2855	1157.1104	1164.7643	1185.0167	1227.53	1233.3821	1268.7082	1277.1597	1304.0492	1313.3437	1320.1363	1340.0741	1368.4479	1397.041	1406.5156	1417.1982	1462.6222	1473.1976	1492.7784	1497.8583	1509.8104	1526.3964	1528.4149	2956.0924	2976.1817	2980.9429	3000.6601	3024.5591	3035.6537	3035.827	3036.7697	3055.6869	3070.2014	3084.5483	3103.5634	3120.0672	3830.5185
CCC1OCC1CCO	CC[C@H]1OC[C@H]1CCO	
InChI=1S/C7H14O2/c1-2-7-6(3-4-8)5-9-7/h6-8H,2-5H2,1H3	InChI=1S/C7H14O2/c1-2-7-6(3-4-8)5-9-7/h6-8H,2-5H2,1H3/t6-,7-/m1/s1
