19
gdb 41277	2.85689	2.04482	1.86331	1.4886	78.26	-0.2305	0.0789	0.3094	859.6176	0.16165	-385.805732	-385.799489	-385.798545	-385.835753	27.673	
C	-0.0036203918	 1.5376396626	-0.038487529	-0.334477
C	 1.5770988516	 1.5852670281	 0.0140218615	-0.354949
C	 1.5884968341	 0.150607976	 0.6196284657	 0.256932
C	 1.6018615666	-0.3669156264	 2.0530718175	-0.300261
C	 0.7885529012	-1.5175286858	 1.4044312255	 0.078791
O	-0.4729496056	-0.8696853645	 1.0824983639	-0.320359
C	 0.1146748598	 0.0181843418	 0.1313304795	 0.39502
C	 0.574247327	-0.9381997954	-1.0049945569	-0.291584
C	 1.625743405	-1.3150574837	 0.0441066668	-0.124122
H	-0.4470207327	 2.0070042079	 0.8434483927	 0.119515
H	-0.4996414583	 1.9167304955	-0.9354608713	 0.103156
H	 2.0388957947	 1.6573727563	-0.9737921577	 0.113921
H	 2.0081067285	 2.3603626144	 0.6506935528	 0.11234
H	 2.5982350624	-0.6864833339	 2.3744897649	 0.097249
H	 1.0995232828	 0.1945699624	 2.8461644877	 0.099037
H	 0.6246523824	-2.4882082468	 1.8701661073	 0.081293
H	-0.1499668647	-1.6838351953	-1.3409865795	 0.099439
H	 1.0154735366	-0.4178469227	-1.8583333842	 0.102564
H	 2.5064235703	-1.9399707405	-0.1167647772	 0.066493
233.734	298.4052	376.6738	429.2529	483.103	538.0543	590.4596	670.3228	688.5295	739.9244	770.4449	795.5508	850.6656	872.7869	879.0182	895.2811	920.9388	944.0468	946.8944	983.574	1023.4	1047.7911	1069.9627	1111.4107	1115.8006	1148.8095	1174.7034	1182.5586	1203.4723	1225.7473	1237.5555	1240.4957	1248.1426	1269.4769	1276.8071	1301.0798	1315.3459	1464.6118	1474.8882	1484.5365	1490.5011	3046.6334	3060.8745	3063.0436	3068.5436	3094.2768	3106.2292	3111.9505	3123.7119	3128.4395	3137.6292
C1CC23CC4OC12CC34	C1C[C@@]23C[C@H]4O[C@@]12C[C@@H]34	
InChI=1S/C8H10O/c1-2-8-3-5-6(9-8)4-7(1,5)8/h5-6H,1-4H2	InChI=1S/C8H10O/c1-2-8-3-5-6(9-8)4-7(1,5)8/h5-6H,1-4H2/t5-,6-,7+,8-/m1/s1
