19
gdb 91980	2.53772	1.58515	1.20117	0.921	79.66	-0.2324	0.05	0.2824	1084.1959	0.158444	-385.842992	-385.83444	-385.833496	-385.876211	33.169	
C	 0.5561444317	 1.3744233307	-0.4160904922	-0.398709
C	 0.0453753281	 0.0364591267	 0.1068029936	 0.115334
O	 0.0222995257	-0.940051836	-0.9447857619	-0.27104
C	 0.9387173369	-1.9681653189	-0.6932859656	 0.104647
C	 2.3989248948	-1.6204686884	-0.5555490668	-0.327097
C	 1.5327268711	-1.8305035386	 0.6718147414	-0.069642
C	 0.8637115037	-0.6039994556	 1.2957021034	-0.236471
C	 1.7765694093	 0.3052002556	 1.9773037119	 0.351769
C	 2.5320062544	 1.0400482306	 2.556066956	-0.476935
H	 1.6087282114	 1.3300795445	-0.7064494359	 0.12596
H	-0.0322894719	 1.6629852099	-1.2913876893	 0.122273
H	 0.4497790564	 2.148862762	 0.3484461665	 0.123848
H	-0.9946693794	 0.1700389535	 0.4283595261	 0.089221
H	 0.6259609528	-2.9126413603	-1.1240973023	 0.101115
H	 3.1227591814	-2.3974059427	-0.7787386591	 0.114437
H	 2.7245014392	-0.6180187538	-0.807791585	 0.126035
H	 1.721131974	-2.6796811386	 1.3172822057	 0.099008
H	 0.1426410903	-0.9721219253	 2.0354822105	 0.110566
H	 3.2002756499	 1.6896742846	 3.0648510532	 0.19568
54.7061	142.2496	164.1584	217.1333	281.8448	341.2927	402.4207	422.7934	494.6387	539.6005	624.0683	635.3505	672.6829	724.0055	754.9491	780.6882	821.2771	893.9243	928.0075	971.0154	1004.5821	1025.2457	1050.4051	1079.6589	1088.6119	1098.2323	1107.3933	1141.5511	1165.5014	1208.5121	1266.3334	1311.4731	1330.9617	1355.4523	1382.8459	1394.2651	1412.5327	1474.8271	1485.0942	1492.026	2233.5344	3015.9583	3034.9945	3048.6342	3123.7525	3127.2385	3136.4254	3172.532	3183.8101	3226.1236	3503.5135
CC1OC2CC2C1C#C	C[C@H]1O[C@H]2C[C@H]2[C@H]1C#C	
InChI=1S/C8H10O/c1-3-6-5(2)9-8-4-7(6)8/h1,5-8H,4H2,2H3	InChI=1S/C8H10O/c1-3-6-5(2)9-8-4-7(6)8/h1,5-8H,4H2,2H3/t5-,6+,7+,8+/m1/s1
