16
gdb 33710	3.77377	1.50885	1.26048	4.5726	77.93	-0.2446	-0.0094	0.2352	982.8999	0.126572	-363.598669	-363.59205	-363.591105	-363.629483	27.072	
N	 0.1161032532	-1.0886150547	-0.0226430291	-0.344496
C	 0.0410903674	 0.0661530913	-0.0286165046	 0.180682
C	-0.0542553164	 1.496608755	-0.0206824599	 0.195758
C	-1.216389893	 2.1871414507	 0.6209102498	-0.157908
C	-1.3164879498	 3.4247153821	 0.1302328499	-0.087034
C	-0.1443410525	 3.6968526549	-0.7834874175	-0.129831
C	 1.1483782724	 3.7478425105	 0.1317249295	-0.237589
C	 1.3216855168	 2.256467578	-0.1101057497	-0.095614
C	 0.3493884456	 2.2871506267	-1.2530796649	-0.092167
H	-1.8239018246	 1.7246358035	 1.3867651471	 0.119231
H	-2.013989832	 4.1866321855	 0.4545167507	 0.110684
H	-0.2574587977	 4.4926600151	-1.5166191579	 0.085126
H	 1.952267355	 4.2936604164	-0.3681571465	 0.117936
H	 1.0246313851	 4.116266133	 1.1539632167	 0.106326
H	 2.2280528053	 1.6759420301	 0.0070699521	 0.115437
H	 0.4009439652	 1.874969912	-2.2529366256	 0.113458
152.8195	160.7769	354.9693	375.3752	487.7069	515.3616	545.4708	581.4052	687.5506	721.4164	750.4854	807.5025	851.0786	863.462	878.4777	897.3775	934.9458	940.0257	994.8134	1011.5778	1027.2727	1073.3656	1087.0103	1117.3778	1181.8817	1186.5132	1229.6378	1233.0208	1264.5246	1309.4755	1330.474	1372.465	1485.7537	1647.9113	2350.9484	3055.9807	3114.9435	3136.3541	3191.3909	3203.1752	3209.3648	3237.278
N#CC12C=CC3CC1C23	N#C[C@@]12C=C[C@H]3C[C@@H]1[C@@H]23	
InChI=1S/C8H7N/c9-4-8-2-1-5-3-6(8)7(5)8/h1-2,5-7H,3H2	InChI=1S/C8H7N/c9-4-8-2-1-5-3-6(8)7(5)8/h1-2,5-7H,3H2/t5-,6+,7-,8-/m0/s1
