15
gdb 24046	3.72227	1.19262	0.95364	3.9557	73.43	-0.188	0.0323	0.2203	1172.861	0.114122	-413.021242	-413.01303	-413.012086	-413.054552	29.921	
N	-0.015091165	-0.5202774589	-1.1747824014	-0.331629
C	 0.0595739241	 0.3359897814	-0.3994267993	 0.238125
C	 0.1980151731	 1.5040720825	 0.5000736751	-0.278071
N	 1.4209466298	 2.2552776752	 0.3511953517	-0.402175
C	 1.7504350452	 2.6726836584	-0.8244485254	 0.500745
N	 1.1983052208	 2.4772007292	-2.0831285692	-0.344745
C	 1.9876054558	 3.0987662341	-3.0583889817	-0.095974
C	 2.9871095356	 3.7369131566	-2.4228417432	-0.074708
N	 2.836676841	 3.4892914572	-1.0613324822	-0.341238
H	-0.7046131772	 2.1209264616	 0.3425988556	 0.135887
H	 0.1362919406	 1.1347994127	 1.5294305023	 0.151994
H	 0.560666245	 1.7203806097	-2.2711341367	 0.28366
H	 1.7400765743	 3.0473700792	-4.104037814	 0.142561
H	 3.7765046812	 4.3599917348	-2.8046949288	 0.1433
H	 3.4334974657	 3.8003643263	-0.3163075127	 0.272267
60.7162	102.2149	164.3927	213.6241	271.4057	369.1851	406.0607	446.8356	473.6101	599.6877	643.7597	673.5903	702.8944	741.0287	784.3697	884.91	911.4388	946.5751	998.9251	1071.3744	1094.5112	1137.0245	1154.1652	1254.8357	1273.546	1338.3495	1393.7497	1416.1264	1434.9549	1465.2496	1646.2112	1736.8214	2331.7332	2947.3811	3062.0672	3285.2233	3306.9545	3645.6495	3702.4001
N#CCN=C1NC=CN1	N#CCN=c1[nH]cc[nH]1	
InChI=1S/C5H6N4/c6-1-2-7-5-8-3-4-9-5/h3-4H,2H2,(H2,7,8,9)	InChI=1S/C5H6N4/c6-1-2-7-5-8-3-4-9-5/h3-4H,2H2,(H2,7,8,9)
