20
gdb 18400	3.18155	2.04164	1.40466	1.2168	74.47	-0.2354	0.0854	0.3209	928.7057	0.179936	-348.996889	-348.989792	-348.988848	-349.027832	28.703	
C	-0.0380311432	 1.5576301568	 0.0813195005	-0.316639
C	 1.2826632169	 0.8283664671	 0.0193692549	 0.003442
C	 2.2285843748	 0.7643137513	 1.2070110173	-0.232156
C	 2.7141678026	-0.6595858652	 1.5201660706	-0.058199
O	 1.7783776319	-1.4369300033	 2.2454817342	-0.244349
C	 0.6462180112	-1.9039279423	 1.5340183482	-0.058199
C	-0.3874977754	-0.8098547433	 1.22453346	-0.232155
C	-0.0127954572	 0.0488490438	 0.0280427942	 0.00344
H	-0.3085525822	 2.0177226129	 1.0273095034	 0.109744
H	-0.3750416147	 2.108000526	-0.7906301296	 0.107933
H	 1.7913448564	 0.8594813198	-0.9410989196	 0.079574
H	 3.1003912399	 1.4019980911	 1.0121561734	 0.094118
H	 1.7541522447	 1.1594834966	 2.1123832352	 0.104193
H	 3.0010771138	-1.1745707253	 0.5875165251	 0.081113
H	 3.6013867046	-0.6155777767	 2.1613202176	 0.099571
H	 0.9576825957	-2.4041412351	 0.6012065225	 0.081113
H	 0.1981578228	-2.6633896165	 2.1841201557	 0.099571
H	-1.3610866132	-1.2825902033	 1.0420426293	 0.094118
H	-0.5055513692	-0.2002420019	 2.1275171665	 0.104193
H	-0.28794346	-0.3916962427	-0.9271730894	 0.079574
149.2083	187.9421	304.75	305.528	371.0126	385.131	421.6928	548.3235	558.4094	745.9941	750.2193	821.0394	863.4235	882.951	931.0235	956.1755	976.7357	983.8507	1033.5334	1057.3595	1077.2943	1085.0961	1133.8607	1140.0173	1156.6195	1175.1851	1237.7548	1250.823	1252.1871	1296.9837	1327.4564	1341.7153	1365.171	1391.2038	1407.4023	1421.5348	1429.772	1469.848	1477.9774	1484.2808	1493.3019	1499.6146	2960.4788	2966.1699	3022.2598	3024.8294	3063.2592	3065.8183	3066.6097	3072.0957	3122.1953	3125.4604	3137.0169	3207.0635
C1C2CCOCCC12	C1[C@H]2CCOCC[C@@H]12	
InChI=1S/C7H12O/c1-3-8-4-2-7-5-6(1)7/h6-7H,1-5H2	InChI=1S/C7H12O/c1-3-8-4-2-7-5-6(1)7/h6-7H,1-5H2/t6-,7+
