23
gdb 114358	2.85822	1.10246	1.06903	1.5141	85.44	-0.2362	0.0803	0.3165	1321.7852	0.205696	-388.269151	-388.259939	-388.258995	-388.30326	35.32	
C	 0.1419421337	 1.3531610473	-0.354025296	-0.381415
C	 0.0191203844	-0.1500417442	-0.0850465454	-0.188927
C	-1.4222242916	-0.6110201082	 0.0890746672	 0.032491
C	-2.4012312865	-0.5530409142	-1.1336672595	-0.266286
C	-2.7922459118	-2.0414769826	-0.8993792448	-0.107122
C	-1.9376904509	-3.0978056452	-1.6293716467	 0.167328
C	-1.4897235861	-2.9347143547	-3.0660007736	-0.411706
O	-0.860301109	-2.9321257423	-0.6654844138	-0.317128
C	-1.6965083638	-2.1289336633	 0.1988735135	 0.095102
H	 1.1870154073	 1.647508029	-0.4922289532	 0.111614
H	-0.4055427085	 1.6423920536	-1.2578904088	 0.114971
H	-0.2623563161	 1.9419364675	 0.4773397173	 0.110147
H	 0.4733316322	-0.7204936274	-0.9023459199	 0.108657
H	 0.588281904	-0.4092967612	 0.8176166569	 0.09314
H	-1.8745929873	-0.1033466247	 0.9505521301	 0.06491
H	-3.2305048823	 0.1476353512	-1.0167534896	 0.101051
H	-1.9234327999	-0.3482432879	-2.0954167336	 0.099607
H	-3.846739462	-2.2643694611	-0.7420402361	 0.070504
H	-2.3832638995	-4.096955983	-1.502431452	 0.070334
H	-1.0422250615	-1.954249253	-3.2466903132	 0.123025
H	-0.7417123377	-3.6960408474	-3.3096746248	 0.128314
H	-2.3386378236	-3.0638996017	-3.7463203263	 0.116164
H	-1.8150852334	-2.5800488965	 1.1890833324	 0.065225
61.9499	103.0602	157.6574	198.8904	224.6901	268.0232	291.0445	359.8952	402.0513	499.8724	516.2701	639.1101	753.3415	760.5144	790.2703	828.2564	880.228	896.1335	920.1829	949.5008	963.3234	973.0937	1026.7306	1043.9009	1079.5591	1100.2284	1116.833	1133.2551	1156.812	1168.1137	1200.1866	1216.6378	1256.422	1277.2653	1283.7012	1305.8781	1309.0085	1333.288	1353.0278	1385.9112	1393.1405	1411.1666	1411.3144	1477.0774	1482.8943	1492.2062	1500.6014	1504.8867	1509.0914	2972.5703	3019.5173	3023.2523	3028.0315	3038.85	3054.7304	3063.7588	3069.2946	3095.8317	3100.5357	3104.9683	3107.9313	3119.4484	3125.0546
CCC1CC2C(C)OC12	CC[C@H]1C[C@H]2[C@@H](C)O[C@@H]12	
InChI=1S/C8H14O/c1-3-6-4-7-5(2)9-8(6)7/h5-8H,3-4H2,1-2H3	InChI=1S/C8H14O/c1-3-6-4-7-5(2)9-8(6)7/h5-8H,3-4H2,1-2H3/t5-,6+,7+,8+/m1/s1
