18
gdb 102424	2.89055	0.75155	0.61431	4.5512	87.75	-0.2844	-0.0478	0.2366	1773.2811	0.145241	-401.92949	-401.919141	-401.918197	-401.965757	35.481	
C	-0.7993596756	 1.0892873119	-0.4676053825	-0.392981
C	-0.2621741363	-0.3146800307	-0.1854055215	-0.183707
C	 0.7109780686	-0.3381865729	 1.005292548	-0.10082
O	-0.0024913394	 0.0641304634	 2.1575586786	-0.223542
C	 0.8120045494	 0.3482219036	 3.2800169163	-0.243499
C	 1.3067183566	-1.6716710162	 1.1776111375	 0.133274
C	 1.7846363414	-2.7725718104	 1.321526567	 0.0439
C	 2.3265598108	-4.0156772918	 1.4813548327	 0.203204
N	 2.7896493579	-5.0723572754	 1.617456788	-0.333747
H	 0.0098020479	 1.7772455723	-0.7367399689	 0.115841
H	-1.5087210503	 1.0675877135	-1.2995289613	 0.120053
H	-1.3093867817	 1.4918108964	 0.4102277491	 0.140532
H	-1.0825584901	-1.0037824527	 0.0407402293	 0.125717
H	 0.261245205	-0.7133988517	-1.0606534018	 0.116024
H	 1.534438762	 0.3718658779	 0.808313554	 0.104045
H	 1.3619602347	-0.5391088103	 3.6210098832	 0.125243
H	 1.5348240998	 1.1477253906	 3.0587716892	 0.111887
H	 0.1441539992	 0.6812181223	 4.076784853	 0.138576
63.5343	72.2723	105.6675	124.9087	186.4528	208.6054	211.5366	253.8685	300.4398	320.6332	427.0244	509.1335	532.922	575.2917	599.8303	749.3033	794.4684	901.211	944.4872	1044.2111	1098.3259	1120.8504	1147.3605	1158.2699	1183.4767	1224.2254	1287.0853	1314.7113	1359.6123	1377.1505	1407.9863	1475.6673	1479.4815	1486.6319	1494.6756	1507.7651	1508.8164	2259.5733	2397.7302	2943.0743	2990.0629	3040.6893	3049.5146	3050.5507	3089.6898	3110.035	3129.8966	3134.7134
CCC(OC)C#CC#N	CC[C@@H](OC)C#CC#N	
InChI=1S/C7H9NO/c1-3-7(9-2)5-4-6-8/h7H,3H2,1-2H3	InChI=1S/C7H9NO/c1-3-7(9-2)5-4-6-8/h7H,3H2,1-2H3/t7-/m1/s1
