18
gdb 56604	3.14625	0.9339	0.92879	1.9295	73.84	-0.2554	0.0355	0.2908	1351.0066	0.145469	-439.005515	-438.995794	-438.994849	-439.040308	35.675	
O	-0.5704432599	 1.0879575758	-0.2553413969	-0.421856
C	 0.0593096642	-0.1377505218	 0.0743746249	-0.076854
C	 0.6536170286	-0.7937953001	-1.0973932441	 0.326139
C	 1.140951275	-1.3309787982	-2.0553942103	-0.436471
C	 1.1159190511	 0.0954621187	 1.1804519285	 0.090198
O	 1.9822958383	 1.1037696516	 0.6628715023	-0.452957
C	 0.4794797611	 0.5333540178	 2.476400438	-0.016908
C	 0.1766494152	-0.4519626051	 3.5399281341	-0.244844
N	 1.2786183365	 0.5116804714	 3.7207036011	-0.338845
H	 0.1539802184	 1.7018444424	-0.4385475638	 0.292271
H	-0.7262316323	-0.7831546132	 0.4837401128	 0.119263
H	 1.5670311867	-1.8021068745	-2.9065534433	 0.197177
H	 1.6727336056	-0.8412665489	 1.3445882388	 0.075746
H	 2.3905999406	 1.5596645668	 1.4058188019	 0.297359
H	-0.1575679057	 1.4085384616	 2.381675098	 0.114746
H	-0.6796070906	-0.2976120576	 4.1892030949	 0.129169
H	 0.4268610477	-1.4946627672	 3.3601988986	 0.116982
H	 2.1625986297	 0.0322653204	 3.5541307944	 0.229685
69.4707	84.3428	120.7265	184.4148	228.8232	257.1922	268.3681	331.7205	343.9688	441.7528	467.0595	508.191	568.5435	629.2054	668.9425	748.1193	824.8689	847.0626	885.5861	928.7129	972.0485	997.5541	1053.8374	1063.1132	1089.9191	1132.4343	1169.7912	1181.9281	1230.5615	1259.3835	1282.8326	1307.3945	1313.4965	1342.7966	1382.6772	1433.6223	1440.8399	1511.5636	2235.0408	2974.9992	3051.4106	3110.937	3153.0333	3198.3144	3468.8576	3503.4382	3762.1032	3822.3536
OC(C#C)C(O)C1CN1	O[C@@H](C#C)[C@@H](O)[C@H]1CN1	
InChI=1S/C6H9NO2/c1-2-5(8)6(9)4-3-7-4/h1,4-9H,3H2	InChI=1S/C6H9NO2/c1-2-5(8)6(9)4-3-7-4/h1,4-9H,3H2/t4-,5+,6+/m1/s1
