17
gdb 40996	3.95211	1.57687	1.49302	2.0644	71.83	-0.2331	0.0565	0.2896	915.189	0.13744	-421.689747	-421.683567	-421.682623	-421.719957	26.227	
C	 0.01020243	 1.5519164732	 0.1300999183	-0.160288
O	 1.4530000985	 1.4652785107	-0.2211209857	-0.368022
C	 1.1226116252	 0.1840327614	-0.7688868714	 0.410694
C	-0.1498919663	-0.0023145659	 0.0101944307	-0.112699
C	-0.2726417185	-0.9566695425	-1.2069686262	-0.13196
C	 0.3784522788	 0.0718565556	-2.1573603953	-0.113183
C	 1.3117388838	-0.6774641258	-3.0989707526	-0.113403
O	 1.8673773407	-1.6762719776	-2.2145492869	-0.263426
C	 1.2963634557	-1.3536322446	-0.9879609075	 0.034137
H	-0.113764344	 1.9425633977	 1.1418049206	 0.121544
H	-0.5236387336	 2.1769577893	-0.5906604932	 0.117462
H	-0.0474290595	-0.4884377625	 0.9825249784	 0.084871
H	-1.0500839833	-1.6800316505	-1.457305271	 0.085728
H	-0.1957418269	 0.9100346285	-2.5460414583	 0.081212
H	 0.8047031648	-1.1768171926	-3.9328272143	 0.108158
H	 2.1141248063	-0.0444253169	-3.4972979902	 0.113452
H	 1.6088464684	-2.0279042576	-0.1924104455	 0.105724
252.4144	255.7687	283.843	400.0087	484.5488	558.5083	619.484	682.1565	739.3726	757.012	791.0829	850.7848	871.0451	922.3671	948.287	959.1661	984.623	995.7048	1022.0767	1043.1891	1054.8342	1091.4117	1102.7799	1129.7706	1136.8283	1149.8768	1161.3788	1185.6577	1219.1321	1229.9992	1280.6142	1303.9908	1327.4294	1355.1527	1402.5759	1499.8606	1519.4213	3023.9459	3058.9919	3064.5449	3081.8687	3100.8992	3127.0504	3146.9459	3152.8834
C1OC23C1C1C2COC31	C1O[C@@]23[C@@H]1[C@H]1[C@@H]2CO[C@@H]31	
InChI=1S/C7H8O2/c1-3-5-4-2-9-7(3,4)6(5)8-1/h3-6H,1-2H2	InChI=1S/C7H8O2/c1-3-5-4-2-9-7(3,4)6(5)8-1/h3-6H,1-2H2/t3-,4-,5+,6+,7+/m0/s1
