17
gdb 56055	1.80766	1.21223	0.76933	0.9814	83.07	-0.1423	0.0166	0.1589	1452.0035	0.130858	-455.111004	-455.100106	-455.099161	-455.149355	36.118	
O	-0.3240327077	 0.1691279308	-0.3543372117	-0.305191
C	-0.8132605751	-0.6892051171	 0.2647629412	 0.591071
O	-1.2376542251	-1.5773864478	 0.8808121486	-0.289871
C	-2.4217598032	 3.5220479659	-1.5821055967	-0.372206
N	-2.5755197248	 2.3830301706	-0.9076812235	-0.069001
H	-1.7391653106	 1.8059904523	-0.8401787442	 0.288432
C	-3.6026290102	 1.8114457987	-0.2845176779	-0.086683
N	-3.3663404732	 0.566124756	 0.3302181727	-0.107116
C	-4.0563337694	 0.2496702865	 1.5879882741	-0.216497
C	-4.4324738841	-0.4447024441	 0.3265263195	-0.216552
H	-3.2616538901	 4.1888622445	-1.6978204258	 0.107973
H	-1.4509102963	 3.7387829861	-1.9913729314	 0.108238
H	-4.5661481511	 2.3100850358	-0.2714607812	 0.094712
H	-3.4600189704	-0.2647084428	 2.3364573879	 0.121356
H	-4.7438713151	 0.9966805261	 1.9777432759	 0.115003
H	-5.3753106208	-0.1690479091	-0.14007031	 0.114996
H	-4.1117187929	-1.4677644925	 0.1508474925	 0.121337
34.0279	57.3374	70.9455	72.895	93.5963	142.0625	189.2778	210.0535	353.2089	404.7857	433.2951	492.0939	525.6658	613.9076	650.9269	688.8143	787.1211	812.6779	880.0221	990.3153	1017.1487	1022.2868	1102.8689	1116.4472	1122.4225	1177.8428	1205.4133	1287.335	1304.8815	1370.3853	1374.406	1431.9745	1482.6061	1502.9077	1509.8761	1672.7023	2423.901	3101.0595	3104.2738	3168.3089	3184.7425	3200.8287	3206.657	3332.1799	3513.6575
[O-]C(=O)C[NH+]=CN1CC1	O=C=O.C=[NH][CH]N1CC1	
InChI=1S/C5H8N2O2/c8-5(9)3-6-4-7-1-2-7/h4H,1-3H2,(H,8,9)	InChI=1S/C4H8N2.CO2/c1-5-4-6-2-3-6;2-1-3/h4-5H,1-3H2;
