16
gdb 32244	2.64484	1.58394	0.99717	3.6133	76.66	-0.2096	-0.0083	0.2013	1138.0683	0.126061	-434.125167	-434.116699	-434.115754	-434.158661	30.61	
C	-0.0040017352	 1.4692226771	 0.0665362237	-0.31392
N	-0.0485616985	 0.0289381676	-0.0838216957	-0.360832
C	-1.2048251804	-0.6792286933	-0.0344224684	 0.376485
N	-2.372580746	-0.0382841193	 0.036080142	-0.345961
C	-3.47838814	-0.7915449828	 0.0569843201	 0.056243
N	-3.5570497978	-2.1130934013	 0.0251706286	-0.273959
C	-2.3732849116	-2.755632223	-0.0386095942	-0.09717
C	-1.1683471865	-2.0969723217	-0.0722556006	 0.246566
O	 0.0646858561	-2.686665083	-0.1354219385	-0.459804
H	 1.0065940972	 1.813122275	-0.1630834015	 0.122383
H	-0.7073477153	 1.9414841505	-0.6231248148	 0.152945
H	-0.2671179641	 1.7913570556	 1.0822938375	 0.130576
H	 0.8040132857	-0.4997728211	-0.0169594456	 0.262059
H	-4.4187252995	-0.2478308759	 0.1102485133	 0.107827
H	-2.4037875439	-3.8455331857	-0.0628289943	 0.093938
H	-0.0383505304	-3.6444470088	-0.1411008917	 0.302623
65.0949	100.6791	172.423	197.9575	300.2199	317.1976	328.5271	395.9828	475.2143	528.1877	551.906	618.1383	635.3646	794.998	801.774	895.631	921.3162	983.3243	1091.5347	1129.3976	1157.151	1172.3067	1179.0565	1256.0022	1297.881	1357.1764	1376.116	1443.517	1453.9801	1478.0661	1493.6295	1519.7435	1563.8479	1615.1239	1648.7424	3021.3484	3095.6252	3119.0655	3137.1678	3160.9551	3669.7896	3813.3889
CNC1=NC=NC=C1O	CNc1ncncc1O	
InChI=1S/C5H7N3O/c1-6-5-4(9)2-7-3-8-5/h2-3,9H,1H3,(H,6,7,8)	InChI=1S/C5H7N3O/c1-6-5-4(9)2-7-3-8-5/h2-3,9H,1H3,(H,6,7,8)
