23
gdb 117836	2.36116	0.96007	0.83516	1.379	78.05	-0.256	0.0672	0.3232	1513.801	0.202173	-462.551711	-462.539902	-462.538957	-462.589041	42.148	
C	 0.1400833662	 1.49992673	 0.1441437021	-0.397899
C	-0.0189399289	-0.0164505567	 0.0013271592	-0.196054
C	-1.4770809272	-0.5214815478	-0.0611603297	 0.318002
O	-2.2264062231	-0.0464781351	 1.0654712954	-0.471851
C	-2.2308110285	 0.0733682394	-1.2587133457	-0.098487
O	-1.6062448821	-0.3845926784	-2.4486866634	-0.422982
C	-1.4721502021	-2.0618746919	-0.0966766838	-0.191249
C	-2.8487347816	-2.714050876	-0.1526330777	-0.096117
O	-2.6658619317	-4.1040024129	 0.0940746612	-0.425685
H	 1.1827787411	 1.7580381782	 0.3527437665	 0.108445
H	-0.1470158054	 2.0266381384	-0.7709678932	 0.11852
H	-0.4779436466	 1.8824228814	 0.9612801583	 0.121278
H	 0.5028495904	-0.3661989445	-0.8952201011	 0.116747
H	 0.4645514399	-0.5141965775	 0.8536843709	 0.080706
H	-1.8012276872	-0.385517808	 1.8605656659	 0.278158
H	-3.2832430393	-0.2378974936	-1.2043713173	 0.095166
H	-2.2115944208	 1.1686037249	-1.1835115848	 0.096304
H	-2.0582160398	 0.0122761649	-3.1980889069	 0.291525
H	-0.8763252029	-2.4042753896	-0.9475610418	 0.120923
H	-0.9690222363	-2.4264707292	 0.8090980494	 0.089831
H	-3.505054053	-2.2556353433	 0.6014136776	 0.092792
H	-3.3046711716	-2.5504896934	-1.1405593562	 0.089265
H	-3.5252329694	-4.5312104992	 0.0353120654	 0.282662
46.0639	77.101	95.0579	141.0876	149.9607	216.1947	228.4993	250.6611	267.6655	286.0104	298.7774	336.6278	347.022	387.4973	439.8572	517.2062	599.7319	765.4217	775.2623	802.0537	907.4476	967.0572	991.4589	1014.9133	1063.1921	1068.846	1081.0277	1088.1681	1143.1903	1154.4515	1162.6487	1225.9645	1238.6353	1257.3799	1266.4101	1296.1198	1314.3824	1357.1231	1371.6904	1394.9595	1407.1377	1456.3834	1462.6559	1471.6585	1490.9222	1495.5871	1508.5291	1531.2066	1537.5153	2981.4879	3004.13	3008.7469	3015.6144	3026.7247	3036.1272	3042.1614	3076.8574	3097.0066	3104.7533	3118.6277	3807.5042	3828.5092	3841.0365
CCC(O)(CO)CCO	CC[C@@](O)(CO)CCO	
InChI=1S/C6H14O3/c1-2-6(9,5-8)3-4-7/h7-9H,2-5H2,1H3	InChI=1S/C6H14O3/c1-2-6(9,5-8)3-4-7/h7-9H,2-5H2,1H3/t6-/m0/s1
