19
gdb 20126	4.39574	1.26026	1.11334	2.8341	71.3	-0.2371	0.063	0.3001	1114.3696	0.165739	-365.014844	-365.006386	-365.005442	-365.04813	31.204	
O	-0.7161276808	 1.0789924981	 0.2904742838	-0.439928
C	-0.315399054	-0.2508019991	-0.0461460125	 0.073642
C	 0.6833428981	-0.2828060529	-1.1801254635	-0.004762
C	 0.6536445704	-1.405174028	-2.1894147107	-0.264986
C	 0.2284555655	-0.017821138	-2.5933396269	-0.276332
C	 0.2032428443	-0.9925325668	 1.1798858426	 0.02354
C	 0.98982227	-0.2887744942	 2.2209731644	-0.243157
N	-0.3914402093	-0.7309822697	 2.4939654179	-0.332314
H	 0.0366529402	 1.6611675278	 0.1477387959	 0.285583
H	-1.2384376956	-0.7466847655	-0.3780055005	 0.085444
H	 1.6708484674	 0.0843552374	-0.9058741658	 0.082879
H	 1.5994536635	-1.7862883232	-2.5572037117	 0.116106
H	-0.1171642799	-2.1613944976	-2.0828602871	 0.11837
H	-0.829187543	 0.1649781157	-2.750336434	 0.123004
H	 0.8807769716	 0.5519610199	-3.245415949	 0.113666
H	 0.4192383843	-2.0424111319	 0.9904086678	 0.091342
H	 1.7637004095	-0.8161669306	 2.7712004356	 0.115005
H	 1.1655007456	 0.7770493374	 2.100264727	 0.094619
H	-0.9991698276	 0.0816276012	 2.3948531965	 0.238277
73.0044	84.7641	160.2432	194.4704	257.7138	276.9142	302.5644	434.1222	472.5392	629.0404	766.1645	801.5014	837.5008	855.9307	865.9972	928.0237	942.1289	974.2884	979.888	1017.0146	1056.1211	1070.0506	1082.4502	1113.6931	1137.5422	1140.2538	1165.2516	1197.3277	1211.4862	1224.8866	1276.8338	1283.7757	1313.487	1331.8841	1396.4316	1411.0794	1435.649	1471.5631	1500.8125	1506.0044	3010.5982	3108.3615	3121.3395	3125.6094	3133.5806	3138.3105	3191.8199	3212.2407	3226.7857	3477.5529	3824.4594
OC(C1CC1)C1CN1	O[C@@H](C1CC1)[C@H]1CN1	
InChI=1S/C6H11NO/c8-6(4-1-2-4)5-3-7-5/h4-8H,1-3H2	InChI=1S/C6H11NO/c8-6(4-1-2-4)5-3-7-5/h4-8H,1-3H2/t5-,6+/m1/s1
