18
gdb 41258	3.4587	1.89396	1.50322	2.6316	74.19	-0.2282	0.0655	0.2938	896.3371	0.150379	-401.860001	-401.853724	-401.85278	-401.890276	26.47	
C	-0.0448753574	 1.4827352561	-0.0821655801	-0.252864
C	 1.4963132885	 1.5464795441	 0.0582423212	 0.012255
C	 2.0783411694	 1.457392795	 1.4915642246	-0.35859
C	 1.6625918023	-0.0048985932	 1.4391084254	 0.314483
C	 1.9950373165	-1.3579727271	 2.0372298612	-0.174885
O	 0.6317192003	-1.7987687789	 1.769843411	-0.304803
C	 0.1854519591	-0.4474363544	 1.5070315183	 0.087725
C	 0.057346738	-0.0585787798	 0.0385285092	-0.040656
N	 1.5897805876	 0.0233384708	-0.0925904062	-0.179031
H	-0.6580029509	 2.0108440457	 0.6555006658	 0.101349
H	-0.3636408011	 1.789312783	-1.0807292222	 0.117864
H	 2.032420075	 2.1669907576	-0.6617554006	 0.079175
H	 3.1652673198	 1.5831365394	 1.4687400559	 0.118046
H	 1.6583249754	 2.0831481189	 2.2832308669	 0.106569
H	 2.7398246873	-1.9549010755	 1.5019456451	 0.118646
H	 2.209147702	-1.3589632926	 3.1152194161	 0.09925
H	-0.5708022074	-0.1137213227	 2.2263146228	 0.072571
H	-0.5090195644	-0.6886957364	-0.6498993943	 0.082896
216.013	252.524	341.069	351.844	397.983	520.238	634.7529	710.3255	744.194	834.7745	838.7754	874.0904	893.7554	911.1845	924.1254	956.0647	970.8089	985.575	997.5092	1026.2728	1035.4544	1082.5567	1110.7498	1135.9587	1166.0387	1182.4159	1206.2352	1217.6756	1235.3184	1252.148	1267.5747	1282.724	1296.0263	1327.4868	1351.4529	1387.8887	1473.5157	1484.3465	1503.8934	3003.4828	3039.9004	3047.531	3051.8115	3084.5313	3088.2039	3092.3259	3106.306	3113.401
C1C2CC34COC3C1N24	C1[C@H]2C[C@@]34CO[C@@H]3[C@@H]1N24	
InChI=1S/C7H9NO/c1-4-2-7-3-9-6(7)5(1)8(4)7/h4-6H,1-3H2	InChI=1S/C7H9NO/c1-4-2-7-3-9-6(7)5(1)8(4)7/h4-6H,1-3H2/t4-,5+,6+,7+/m0/s1
