15
gdb 99466	2.44203	1.1909	0.87558	3.1815	74.06	-0.263	-0.0703	0.1927	1283.7234	0.108131	-420.556846	-420.546979	-420.546035	-420.59252	34.696	
O	 0.2072103542	 1.4664382231	-0.6897626459	-0.423683
C	 0.2709114441	 0.0612408622	-0.5994202523	-0.063237
C	-0.947323345	-0.5151945657	 0.1611423028	-0.27976
C	-2.1940081682	-0.1671402519	-0.5126649249	 0.302452
C	-3.1826626358	 0.1434375789	-1.1228109709	-0.465053
C	-0.8208248013	-2.0385893653	 0.3510278973	 0.227384
O	 0.1393696882	-2.655682791	-0.0488303313	-0.285151
C	-1.9052657673	-2.6777155057	 1.0693898969	 0.2741
C	-2.795483222	-3.1975347347	 1.6902532334	-0.387122
H	-0.5942407493	 1.6891558787	-1.1778709608	 0.287666
H	 0.3376561826	-0.4203611226	-1.5837324046	 0.112599
H	 1.1816721885	-0.1821442552	-0.0483804513	 0.128813
H	-0.9621442445	-0.0731785424	 1.168473116	 0.142665
H	-4.0729256413	 0.4046842048	-1.6402668707	 0.208918
H	-3.5801262828	-3.6667981431	 2.2330286361	 0.219408
29.9423	101.4931	116.3246	136.6345	195.417	225.0232	250.5765	362.6706	403.0997	429.2632	439.4972	538.0611	620.0955	629.5036	650.2891	667.5415	696.3422	714.7395	839.3214	888.3967	1028.0598	1060.6516	1079.7953	1138.7663	1202.087	1258.9968	1311.4519	1383.8508	1418.7238	1499.623	1771.714	2214.2214	2229.7599	3006.7408	3025.9311	3115.0568	3493.8546	3500.8342	3789.6532
OCC(C#C)C(=O)C#C	OC[C@@H](C#C)C(=O)C#C	
InChI=1S/C7H6O2/c1-3-6(5-8)7(9)4-2/h1-2,6,8H,5H2	InChI=1S/C7H6O2/c1-3-6(5-8)7(9)4-2/h1-2,6,8H,5H2/t6-/m1/s1
