21
gdb 121390	4.04783	0.83856	0.73932	2.2081	81.44	-0.245	0.0194	0.2645	1561.043	0.183142	-424.227852	-424.218702	-424.217758	-424.262281	34.146	
O	 0.100064118	 1.4190204528	-0.0691059038	-0.420672
C	 0.0637979637	-0.0005461507	-0.0224222882	-0.06757
C	-1.3657836096	-0.5465422232	-0.0120587794	-0.215941
C	-1.4257656687	-2.0763046206	-0.0388858089	 0.083117
O	-0.7515437393	-2.5399423293	 1.1247230631	-0.267548
C	-0.9543233051	-3.919793736	 1.3784803914	-0.074336
C	-2.4199742128	-4.2065427156	 1.7113432623	-0.255344
C	-3.3069424856	-3.5349643967	 0.6962910104	-0.07627
C	-2.842432194	-2.5882901418	-0.1154013471	-0.064608
H	-0.2555721641	 1.7467335258	 0.7629036637	 0.279936
H	 0.5833628687	-0.3384444878	-0.9265533236	 0.10553
H	 0.6194210021	-0.3931015143	 0.8390508822	 0.108982
H	-1.8921810577	-0.1964087759	 0.8854869696	 0.095577
H	-1.9026629122	-0.1493459523	-0.8809980416	 0.102919
H	-0.8759883869	-2.4265322878	-0.9355666087	 0.071904
H	-0.6487600591	-4.516687265	 0.5034889677	 0.090613
H	-0.2930486222	-4.1782951897	 2.210345599	 0.104737
H	-2.5946574755	-5.2900849977	 1.7177030394	 0.10335
H	-2.6569672102	-3.8503629002	 2.7232214755	 0.114834
H	-4.3434887728	-3.8552446492	 0.6312430111	 0.089998
H	-3.4761808065	-2.1363316149	-0.8741870343	 0.090794
71.2609	92.1552	108.7315	165.9724	283.2601	299.0243	308.6512	349.4843	383.2166	492.6398	529.1436	586.2793	693.4492	773.1038	782.5167	859.5873	898.325	935.2615	974.6745	998.9138	1020.9585	1033.2209	1073.9894	1077.1116	1091.3576	1114.4064	1120.413	1181.3947	1209.5612	1236.1474	1274.3659	1293.7766	1316.2058	1347.4693	1363.6813	1367.6109	1397.194	1403.5373	1418.8965	1427.9293	1470.9755	1474.2247	1500.4572	1514.6197	1723.7986	2898.2159	2973.2226	3014.2004	3019.2201	3026.3261	3048.7632	3060.5211	3085.0506	3086.0206	3149.4523	3172.4305	3817.5527
OCCC1OCCC=C1	OCC[C@H]1OCCC=C1	
InChI=1S/C7H12O2/c8-5-4-7-3-1-2-6-9-7/h1,3,7-8H,2,4-6H2	InChI=1S/C7H12O2/c8-5-4-7-3-1-2-6-9-7/h1,3,7-8H,2,4-6H2/t7-/m0/s1
