20
gdb 119286	2.10488	1.27083	0.9309	3.5469	80.27	-0.2367	0.0263	0.263	1341.6591	0.171492	-399.304619	-399.295105	-399.294161	-399.339308	34.718	
C	-0.1957518717	 1.5677477284	 0.1789370628	-0.39081
C	-0.0120816298	 0.0544903292	 0.1222040664	-0.132482
N	-1.3004903086	-0.6056204293	-0.1027494445	-0.334223
C	-1.2678637473	-2.0561194361	-0.1428976789	 0.156382
C	-1.0270065208	-2.8120825674	 1.219797386	-0.208913
N	-2.4955651809	-2.8710036096	 1.3901500233	-0.319391
C	-2.7044076401	-2.6584634647	-0.0586958674	-0.209933
C	-0.4468431773	-2.5199951604	-1.2617276058	 0.280551
N	 0.2038022081	-2.9187533515	-2.129798845	-0.351237
H	 0.7682065801	 2.0672049215	 0.3106205746	 0.121279
H	-0.6575469134	 1.9342616318	-0.7419031185	 0.133071
H	-0.8371999049	 1.8576011548	 1.0193814196	 0.114126
H	 0.6475420627	-0.2087276215	-0.7124098567	 0.132081
H	 0.4899726475	-0.2930427847	 1.0423165549	 0.085771
H	-1.9604051333	-0.330440693	 0.6193414761	 0.232733
H	-0.5373583456	-3.783162361	 1.0709401443	 0.111402
H	-0.4948698566	-2.2526766642	 1.9955295097	 0.114604
H	-2.8555784633	-3.7436317963	 1.7588873451	 0.228349
H	-3.5103461358	-1.9651189937	-0.3190575965	 0.120203
H	-2.801459799	-3.5731223724	-0.6566207395	 0.116438
71.2515	107.305	128.5024	154.8967	187.9456	227.0278	263.3976	343.9221	395.0891	419.225	541.2783	560.668	643.9776	697.1094	755.9453	821.3468	899.8904	916.358	940.3444	968.477	1006.7635	1017.2008	1053.8416	1086.2403	1106.741	1121.9085	1151.0976	1174.819	1215.4054	1254.3929	1282.8115	1314.5481	1349.1553	1373.0222	1389.789	1415.4376	1484.3047	1496.903	1500.4877	1507.5039	1524.5331	1527.0505	2357.0551	2946.2489	3014.3459	3023.3071	3035.0567	3060.0778	3078.9819	3081.9808	3103.6717	3124.6756	3511.9908	3540.7785
CCNC1(CNC1)C#N	CCNC1(CNC1)C#N	
InChI=1S/C6H11N3/c1-2-9-6(3-7)4-8-5-6/h8-9H,2,4-5H2,1H3	InChI=1S/C6H11N3/c1-2-9-6(3-7)4-8-5-6/h8-9H,2,4-5H2,1H3
