12
gdb 133192	3.09288	1.4648	1.00009	2.9764	60.19	-0.2788	-0.1131	0.1657	1056.638	0.07538	-513.908345	-513.900889	-513.899945	-513.94074	26.804	
C	 0.0707888619	 1.4558488935	-0.0039524992	-0.47202
C	 0.029121345	-0.032157778	-0.0273620913	 0.20465
N	-0.0040281698	-0.6892921865	-1.1370762056	-0.317141
C	-0.0399687099	-2.0522714101	-1.0226947915	 0.391933
F	-0.0731418332	-2.6862204491	-2.172435232	-0.038873
N	-0.0463746264	-2.7968344254	 0.02292105	-0.142162
O	-0.0108658484	-2.0976520459	 1.2294810018	-0.241134
C	 0.0274832523	-0.7299635454	 1.288031252	 0.42737
O	 0.0577262327	-0.1797850954	 2.3545848539	-0.309451
H	 0.963809884	 1.7942796185	 0.5327749714	 0.170219
H	 0.0653400984	 1.8511464791	-1.0193238224	 0.156396
H	-0.7837128865	 1.8429755848	 0.5616591029	 0.170212
84.796	135.298	206.0305	281.7156	352.9739	389.1548	394.5612	497.9984	523.8035	598.1305	673.7498	677.3848	792.4177	805.823	944.4631	1012.6595	1042.3761	1068.6546	1134.4937	1311.2843	1396.6837	1412.9706	1453.0074	1459.219	1610.7757	1680.4146	1835.1212	3045.9825	3100.2388	3165.9686
CC1=NC(F)=NOC1=O	Cc1nc(F)noc1=O	
InChI=1S/C4H3FN2O2/c1-2-3(8)9-7-4(5)6-2/h1H3	InChI=1S/C4H3FN2O2/c1-2-3(8)9-7-4(5)6-2/h1H3
