19
gdb 44541	3.13681	1.4488	1.38894	3.0129	77.33	-0.2356	-0.0138	0.2218	1014.2199	0.161008	-385.892026	-385.884844	-385.8839	-385.923795	29.284	
O	 0.0099071795	 0.5408549991	 1.0897202895	-0.314607
C	-0.0136706201	 1.4298881427	 0.2793430421	 0.383042
C	-1.2885932418	 2.0677439231	-0.3050251906	-0.337098
C	-0.8485476658	 3.3778157425	-0.9614931247	-0.034265
C	-0.8305594381	 4.6733408149	-0.130444037	-0.053428
C	-0.0439360103	 4.5108908084	 1.1394463418	-0.298878
C	 0.7020075364	 4.6944026202	-0.1519404509	-0.053428
C	 0.7322714531	 3.3995364798	-0.9836616825	-0.034265
C	 1.2263702521	 2.1023062967	-0.3402784807	-0.337099
H	-1.6945865922	 1.3630169738	-1.0418610905	 0.126683
H	-2.0417633133	 2.1756058013	 0.4800313335	 0.131667
H	-1.2933670608	 3.5320751408	-1.945063036	 0.075869
H	-1.5231668079	 5.4958251583	-0.2630196033	 0.085764
H	-0.0467868878	 5.3808105502	 1.7885783939	 0.115605
H	-0.0233600625	 3.5721269716	 1.6865688912	 0.124454
H	 1.3677659189	 5.5355539087	-0.3035712573	 0.085764
H	 1.1449372713	 3.5655673611	-1.9792571408	 0.075869
H	 1.9979839219	 2.2311382219	 0.4234154842	 0.131668
H	 1.6307826274	 1.4087128849	-1.0884595019	 0.126683
70.0615	149.9144	270.641	366.5079	433.7695	466.3529	506.3142	622.8741	631.1765	699.1184	756.4625	762.7125	767.3601	818.8008	842.87	898.6053	934.1933	971.3738	1006.8421	1016.9799	1042.4083	1052.0453	1064.9229	1089.3137	1096.059	1125.3461	1129.7118	1152.64	1184.0022	1213.4578	1256.0832	1268.2379	1277.1885	1305.0067	1338.7405	1342.6299	1370.2567	1440.4105	1447.2505	1500.672	1839.2332	3034.9951	3037.6531	3090.9078	3099.6164	3101.3323	3105.7398	3117.6613	3174.5335	3182.7905	3200.6288
O=C1CC2C3CC3C2C1	O=C1C[C@H]2[C@H]3C[C@H]3[C@H]2C1	
InChI=1S/C8H10O/c9-4-1-5-6(2-4)8-3-7(5)8/h5-8H,1-3H2	InChI=1S/C8H10O/c9-4-1-5-6(2-4)8-3-7(5)8/h5-8H,1-3H2/t5-,6+,7-,8+
