14
gdb 123393	7.68932	0.81641	0.74144	3.2876	69.84	-0.2414	0.0077	0.2491	1426.9513	0.101495	-432.841723	-432.833755	-432.832811	-432.87513	28.49	
C	 0.0257932763	-1.135193846	-0.0047483301	-0.401486
C	 0.0460148517	 0.0649242693	 0.0024634138	 0.299906
C	 0.0235576437	 1.5180277992	 0.0117511028	-0.243478
O	 1.3731557141	 2.0050182543	-0.0012074761	-0.247923
C	 1.4887592612	 3.3346182774	 0.005599644	 0.461824
N	 0.4592862096	 4.1701384261	 0.0229536628	-0.305395
N	 1.1002354526	 5.3748838507	 0.0227622844	-0.205857
C	 2.431761561	 5.1933033292	 0.0058468251	 0.03565
N	 2.7223614821	 3.9068222327	-0.0055159326	-0.328106
H	 0.0153187345	-2.1971702453	-0.0112200095	 0.203213
H	-0.5149122711	 1.9083622202	-0.8609713396	 0.148283
H	-0.4940367955	 1.8974150415	 0.901761085	 0.148281
H	 0.5643441333	 6.226139811	 0.0343504738	 0.282681
H	 3.1412799266	 6.0071523896	 0.0024362961	 0.152406
47.5615	114.3015	116.0777	236.6816	323.04	352.2277	434.7676	474.1654	532.3083	611.6213	666.8415	685.1271	775.0209	795.2592	862.1722	979.531	991.5488	1001.2341	1018.442	1076.1465	1103.7422	1185.2414	1253.0151	1302.2601	1353.5228	1402.0595	1477.1045	1489.9062	1535.331	1582.4217	2252.6639	3023.8877	3055.2139	3259.8988	3505.88	3674.7204
C#CCOC1=NNC=N1	C#CCOc1n[nH]cn1	
InChI=1S/C5H5N3O/c1-2-3-9-5-6-4-7-8-5/h1,4H,3H2,(H,6,7,8)	InChI=1S/C5H5N3O/c1-2-3-9-5-6-4-7-8-5/h1,4H,3H2,(H,6,7,8)
