19
gdb 110643	2.43306	1.55018	1.16906	0.7468	75.47	-0.2073	0.0771	0.2844	1117.9997	0.157426	-422.9271	-422.918408	-422.917464	-422.960257	33.385	
C	 0.2602940178	 1.2287630809	 0.2512719834	-0.240753
O	-0.4435255431	 0.1249055175	-0.2875871904	-0.238146
C	 0.3218902088	-0.5925560327	-1.207368675	 0.042641
C	 1.4065699951	-1.6183889697	-0.9313376032	-0.185986
C	 1.096542095	-2.6818484505	 0.1563612441	-0.051115
C	-0.2280604679	-2.5275028171	 0.8637756447	-0.310072
C	-0.1940449898	-3.0583188846	-0.544256726	-0.123602
C	 0.098825463	-1.9979022196	-1.6459205054	 0.30591
O	-0.0504896346	-2.3337904801	-2.9813092098	-0.452445
H	 1.1599495857	 0.9082244912	 0.7947440532	 0.117052
H	 0.5634389285	 1.9345390973	-0.5371416816	 0.107811
H	-0.4167615372	 1.7374755415	 0.9410511278	 0.127019
H	 0.6141632248	 0.0148074126	-2.0708542905	 0.092792
H	 2.3979717119	-1.4990572296	-1.3509611537	 0.093695
H	 1.8664222802	-3.3494786129	 0.5204107451	 0.090089
H	-0.4099908066	-3.2952369608	 1.611948401	 0.104846
H	-0.649159048	-1.5593203727	 1.0893051566	 0.141542
H	-0.5334025326	-4.0474707775	-0.822753901	 0.092215
H	-0.9645169609	-2.1553856031	-3.2334614192	 0.286509
79.17	157.7521	181.245	212.5905	257.2769	282.4371	323.8778	372.0353	409.7704	523.842	621.5958	652.7048	705.6825	764.2755	781.762	850.218	899.1615	919.2155	947.232	976.7896	997.8682	1028.8795	1054.5779	1063.8128	1097.7851	1113.0436	1132.1727	1181.2212	1182.2792	1211.9702	1219.5268	1241.3698	1295.358	1309.9885	1330.9038	1358.8273	1457.1769	1482.4601	1484.7704	1497.0039	1511.8875	2983.7838	3038.8352	3050.2739	3120.728	3129.9226	3184.2601	3193.0107	3201.9365	3253.5401	3774.0084
COC1C2C3CC3C12O	CO[C@H]1[C@H]2[C@H]3C[C@H]3[C@@]12O	
InChI=1S/C7H10O2/c1-9-6-5-3-2-4(3)7(5,6)8/h3-6,8H,2H2,1H3	InChI=1S/C7H10O2/c1-9-6-5-3-2-4(3)7(5,6)8/h3-6,8H,2H2,1H3/t3-,4+,5+,6-,7-/m0/s1
