18
gdb 52905	1.72171	1.2351	0.78798	3.4642	82.37	-0.2338	-0.0193	0.2145	1475.6258	0.144642	-401.907084	-401.896869	-401.895925	-401.944619	34.764	
C	-0.1163577179	 1.5491879147	 0.1946677658	-0.501797
C	-0.0447355794	 0.0960432836	 0.1625357675	 0.107833
C	 0.014331783	-1.1077639672	 0.1401183086	 0.024953
C	 0.1181727973	-2.5438367115	 0.0684971637	 0.103949
C	 1.4033748824	-3.0808958945	-0.5464835063	-0.337764
C	 1.5519268557	-2.6726592655	-2.0003380785	 0.169038
O	 2.5847305742	-2.3182383243	-2.5063648782	-0.24454
C	-0.6181342764	-3.3583356475	 1.0833340226	-0.273278
N	-1.0972960379	-3.3197646524	-0.3026744075	-0.345743
H	 0.8083490394	 1.9939688335	-0.1883104296	 0.158904
H	-0.9425041143	 1.9206301713	-0.4215515668	 0.152378
H	-0.2672163791	 1.9197119283	 1.2145044172	 0.151441
H	 2.2861789971	-2.7526567218	 0.0084618403	 0.12446
H	 1.3620548942	-4.1775507934	-0.5203891051	 0.131733
H	 0.6110950407	-2.7451349394	-2.589706865	 0.088476
H	-0.1993739339	-4.3101456369	 1.3993434642	 0.123422
H	-1.1739200079	-2.8235130732	 1.8471406805	 0.125153
H	-1.8883422671	-2.6849232037	-0.3753597035	 0.241384
23.6509	45.7226	76.7147	105.6392	127.4878	206.5407	298.1382	310.0202	314.2261	414.3678	460.2691	527.393	562.7492	634.0626	777.3421	809.0714	875.5063	943.6684	987.3325	1024.6806	1050.9755	1052.9885	1057.2486	1073.8385	1097.6502	1148.5091	1207.7558	1263.2702	1287.0918	1345.1283	1371.0037	1414.6537	1422.2615	1441.9961	1475.8403	1477.2548	1504.5778	1835.2765	2363.859	2892.212	3029.2748	3034.1227	3089.8743	3094.196	3108.8856	3112.212	3204.2087	3509.5516
CC#CC1(CC=O)CN1	CC#C[C@@]1(CC=O)CN1	
InChI=1S/C7H9NO/c1-2-3-7(4-5-9)6-8-7/h5,8H,4,6H2,1H3	InChI=1S/C7H9NO/c1-2-3-7(4-5-9)6-8-7/h5,8H,4,6H2,1H3/t7-/m1/s1
