17
gdb 42950	2.50506	1.97172	1.35379	1.9537	70.84	-0.2415	-0.0257	0.2157	950.6792	0.137834	-421.818343	-421.81142	-421.810476	-421.849886	27.345	
O	-0.0719162217	 0.0695820984	-0.6387309062	-0.325908
C	-0.0601207536	 1.1874720488	-0.1861588317	 0.391968
C	-1.2651087958	 2.0445527127	 0.0772592079	-0.148701
C	-1.478231585	 2.5234659953	 1.5053559336	-0.285456
C	-0.7923170805	 3.4217893948	 0.5297993695	-0.058263
C	 0.7381987089	 3.3939449252	 0.5827878324	 0.096851
O	 1.3054991486	 3.1840928391	 1.9040678394	-0.287877
C	 1.8375123314	 1.8958040017	 1.526653142	-0.093754
C	 1.2039581763	 2.0012182773	 0.1197789537	-0.187694
H	-2.1378026026	 1.8828459658	-0.5433571679	 0.110474
H	-2.5044258181	 2.7513456379	 1.7696509149	 0.127193
H	-0.8898782955	 2.1014426382	 2.3107953214	 0.142089
H	-1.2890032698	 4.3217886005	 0.1880191523	 0.096409
H	 1.1789832515	 4.270218723	 0.0986744277	 0.084799
H	 2.933325388	 1.8939952443	 1.5262375938	 0.113927
H	 1.4779543043	 1.0850532009	 2.171040701	 0.114237
H	 1.8992240537	 1.929906586	-0.7169879239	 0.109705
87.0724	174.5543	229.4571	300.6524	443.7767	501.6468	559.1425	624.0619	684.6008	766.992	797.7857	817.4946	873.2377	889.472	914.5791	933.2333	981.613	997.3781	1004.392	1039.4965	1056.0826	1066.0479	1103.6862	1105.3774	1157.1279	1185.051	1192.3704	1211.6844	1256.9349	1283.6413	1320.5972	1337.2478	1351.2107	1374.8209	1494.4456	1526.5957	1828.5038	3023.3833	3063.6433	3068.0657	3114.9082	3147.5904	3182.1167	3195.0632	3235.4146
O=C1C2CC2C2OCC12	O=C1[C@H]2C[C@H]2[C@H]2OC[C@@H]12	
InChI=1S/C7H8O2/c8-6-3-1-4(3)7-5(6)2-9-7/h3-5,7H,1-2H2	InChI=1S/C7H8O2/c8-6-3-1-4(3)7-5(6)2-9-7/h3-5,7H,1-2H2/t3-,4+,5-,7+/m0/s1
