22
gdb 112421	2.50274	1.20161	0.89624	3.4132	83.54	-0.2514	0.0348	0.2863	1374.0273	0.194723	-404.387424	-404.378023	-404.377079	-404.421643	35.584	
C	-0.2632595333	 1.7634416444	 0.285753764	-0.387452
C	-0.1063465448	 0.2467629045	 0.4402597128	-0.204019
C	-1.2522656787	-0.5438071621	-0.1948463874	 0.012776
C	-1.3683249423	-0.4589182861	-1.725228554	-0.31733
C	-2.1272108349	-1.7173565426	-2.0797519364	 0.407186
N	-2.7539347967	-1.9288129792	-3.1553993901	-0.546769
O	-2.0428191164	-2.6049481719	-1.042842609	-0.246089
C	-1.2258200977	-2.0768147507	 0.0281043227	 0.092259
C	 0.1456012071	-2.7438103735	-0.0117012618	-0.397853
H	 0.5600006815	 2.2943262334	 0.772937873	 0.11636
H	-0.2714260613	 2.0601546255	-0.7679665684	 0.124446
H	-1.1987172772	 2.1129697744	 0.7361482671	 0.11824
H	 0.8473126235	-0.0661361477	-0.0019623326	 0.101651
H	-0.047001768	-0.0023526736	 1.5078978354	 0.09837
H	-2.197030469	-0.181310601	 0.2317972522	 0.084761
H	-1.8872876003	 0.424472542	-2.097011874	 0.135956
H	-0.3799239987	-0.4839830566	-2.2013571436	 0.124806
H	-3.1721071677	-2.8611628934	-3.1446917198	 0.217963
H	-1.7327411208	-2.3474805608	 0.959839554	 0.089341
H	 0.6985650789	-2.4784497673	-0.91824227	 0.123304
H	 0.7454919104	-2.4540493406	 0.8559450293	 0.121689
H	 0.0237890166	-3.8301014968	 0.0037216465	 0.130406
99.4122	101.0478	119.0045	174.7637	233.1048	264.1197	289.1423	355.8777	407.9084	458.3873	484.5087	529.3279	631.5341	693.985	784.2426	798.7737	846.4509	896.3983	926.8598	935.8356	967.2228	979.1464	1038.6887	1054.674	1083.6837	1093.1997	1120.844	1144.7306	1176.9731	1199.8363	1262.8838	1289.0751	1310.2749	1320.0744	1347.7801	1386.8241	1387.8965	1402.6719	1412.8672	1416.5923	1474.6815	1483.4787	1492.8229	1499.2956	1501.4269	1508.2285	1776.4918	3012.3053	3018.4348	3035.0185	3038.7692	3043.7037	3054.8388	3059.2365	3103.2956	3108.2123	3116.321	3122.3317	3132.1172	3466.0924
CCC1CC(=N)OC1C	CC[C@H]1C[C]([NH])O[C@H]1C	
InChI=1S/C7H13NO/c1-3-6-4-7(8)9-5(6)2/h5-6,8H,3-4H2,1-2H3	InChI=1S/C7H13NO/c1-3-6-4-7(8)9-5(6)2/h5-6,8H,3-4H2,1-2H3/t5-,6-/m0/s1
