16
gdb 42575	3.03758	2.12317	1.63905	2.818	70.61	-0.2292	-0.017	0.2122	832.4693	0.127336	-400.708507	-400.702632	-400.701688	-400.738578	24.755	
O	-0.0124724742	 0.0286297569	 0.1404415415	-0.338307
C	-0.010551788	 1.2286568288	 0.0317712478	 0.437361
C	-1.1832146255	 2.1471527973	-0.048963603	-0.185416
C	-1.0350771607	 3.5300876858	 0.6332777807	-0.114641
C	-0.7649252629	 3.3585448889	-0.8333679106	-0.032541
N	 0.7175233314	 3.4731774924	-0.5969156856	-0.148748
C	 0.4448618948	 3.8679896407	 0.8437979831	 0.013845
C	 1.4009009375	 2.7764967346	 1.3561425739	-0.25498
C	 1.2100791903	 2.1440391171	-0.0547036172	-0.136736
H	-2.1860038948	 1.7480876446	-0.1264885092	 0.113969
H	-1.8920782069	 3.9579012868	 1.1388557737	 0.105199
H	-1.2451938519	 3.735752049	-1.7270994894	 0.109683
H	 0.6293642923	 4.911775959	 1.1101632948	 0.087223
H	 2.4129483737	 3.1597559936	 1.5019991945	 0.121211
H	 1.1048756972	 2.1789509614	 2.2206489009	 0.121562
H	 2.0626433977	 1.6968265833	-0.5650664959	 0.101316
150.8462	297.4419	423.308	445.1523	561.637	654.4129	693.0228	737.0074	753.4754	779.7473	806.9189	854.7301	891.9353	921.0381	939.4952	963.8518	980.1699	989.5276	1021.2104	1032.4496	1052.1142	1062.6745	1091.9698	1110.163	1177.9085	1185.7552	1216.6797	1238.6566	1259.7699	1287.1857	1304.9819	1327.1155	1361.9714	1484.8357	1841.3608	3069.0959	3078.8832	3119.565	3129.9786	3185.1024	3196.3248	3214.396
O=C1C2C3C2N2C3CC12	O=C1[C@H]2[C@@H]3[C@H]2N2[C@@H]3C[C@@H]12	
InChI=1S/C7H7NO/c9-7-3-1-2-4-5(7)6(4)8(2)3/h2-6H,1H2	InChI=1S/C7H7NO/c9-7-3-1-2-4-5(7)6(4)8(2)3/h2-6H,1H2/t2-,3+,4-,5+,6-/m1/s1
