13
gdb 43551	2.54407	1.52167	1.09747	3.1099	63.85	-0.2948	-0.0323	0.2625	1048.6769	0.089398	-452.740324	-452.732748	-452.731803	-452.772887	27.164	
O	 0.0232510659	 0.0747373066	-0.6269864805	-0.320086
C	 0.0521772065	 1.1538038762	-0.1377826452	 0.441888
O	-0.9809220197	 1.85082698	 0.4708894779	-0.261574
C	-0.1517117154	 3.0436523231	 0.6660927045	-0.065182
C	-0.0510479984	 3.4325357768	 2.0663734383	 0.296543
N	 0.0633443293	 3.7602230243	 3.1679755668	-0.307396
C	 1.0341978108	 2.2778345906	 0.0601026991	 0.108833
C	 2.4683367208	 2.180813391	 0.4153365431	-0.28276
N	 2.0364016401	 2.7810227727	-0.8515378363	-0.347747
H	-0.517392999	 3.8717134742	 0.0550120921	 0.16226
H	 2.8753694524	 2.8801150638	 1.1393691966	 0.158802
H	 2.9097293198	 1.1881267099	 0.4136503873	 0.152557
H	 2.1543700569	 2.1369519907	-1.6316359538	 0.263863
93.0471	119.359	217.0215	228.4118	235.286	348.499	441.0556	521.189	617.3848	630.7967	736.4529	778.1417	848.9727	904.9374	931.4416	960.8647	1000.7673	1028.417	1066.1706	1099.4113	1138.6004	1230.0818	1246.4905	1276.2773	1356.2089	1423.4049	1509.487	1953.908	2367.4602	3101.1907	3119.8419	3215.307	3495.1338
O=C1OC(C#N)C11CN1	O=C1O[C@@H](C#N)[C@]21CN2	
InChI=1S/C5H4N2O2/c6-1-3-5(2-7-5)4(8)9-3/h3,7H,2H2	InChI=1S/C5H4N2O2/c6-1-3-5(2-7-5)4(8)9-3/h3,7H,2H2/t3-,5-/m0/s1
