19
gdb 104707	2.73744	1.11179	0.98406	4.6447	72.18	-0.2431	-0.0208	0.2223	1256.3937	0.157138	-460.161307	-460.151931	-460.150987	-460.195996	34.959	
O	-0.0333596608	 1.5550612191	 0.1174603499	-0.425069
C	 0.0922620928	 0.1404941973	 0.2777541854	-0.151249
C	-1.2640995896	-0.4995997006	 0.0216329747	 0.28807
C	-2.3295372361	-0.0012563538	 1.0089475897	-0.10473
O	-2.7301849152	 1.3311111027	 0.7746986419	-0.426834
C	-1.761970045	-0.43688036	-1.4603439006	-0.386498
C	-1.8549698758	-1.9673762148	-1.4481528458	 0.415871
O	-2.2838606704	-2.7831869302	-2.209981384	-0.287371
C	-1.2083072595	-2.0615889623	-0.052527171	-0.422521
H	 0.7940806047	 1.9736152493	 0.3726145997	 0.297779
H	 0.8369326247	-0.2595528163	-0.4275957606	 0.093428
H	 0.4291385076	-0.1072523709	 1.2965173913	 0.098726
H	-3.232756441	-0.6158119017	 0.9117871688	 0.102573
H	-1.9550501968	-0.1434850313	 2.0385881948	 0.08071
H	-1.9180488544	 1.8471938641	 0.6813873858	 0.291763
H	-2.6976715199	 0.1034176991	-1.6238854892	 0.148918
H	-1.0214725221	-0.0642921303	-2.1758807649	 0.129664
H	-0.1972273559	-2.4824146292	-0.0932109767	 0.12544
H	-1.7783498472	-2.6119468202	 0.7019189608	 0.131331
35.139	106.5526	141.2614	236.4679	247.4811	282.8451	325.8499	352.9739	410.8255	417.6242	448.6092	510.9992	553.2353	676.5635	682.7795	743.8795	868.5525	910.0137	949.2333	961.781	1015.1105	1029.0758	1057.5246	1092.3632	1114.1753	1130.3176	1162.0332	1195.986	1221.8461	1231.1649	1246.9014	1320.2279	1329.2644	1374.6949	1428.69	1444.475	1456.2039	1468.8527	1504.153	1520.652	1895.4577	2944.0163	2972.305	3007.2932	3044.5778	3048.2479	3058.0398	3101.6208	3116.9415	3748.7739	3831.9749
OCC1(CO)CC(=O)C1	OCC1(CO)CC(=O)C1	
InChI=1S/C6H10O3/c7-3-6(4-8)1-5(9)2-6/h7-8H,1-4H2	InChI=1S/C6H10O3/c7-3-6(4-8)1-5(9)2-6/h7-8H,1-4H2
