18
gdb 33101	4.81095	0.78391	0.70599	4.4091	75.53	-0.2348	-0.0114	0.2233	1586.8563	0.147606	-439.117313	-439.108502	-439.107558	-439.15159	31.867	
C	-0.0955045102	 1.599987974	 0.019304843	-0.307322
N	-0.063951804	 0.1444152501	-0.0445366255	-0.281741
H	 0.2441939288	-0.2297021903	 0.8475077669	 0.217577
H	-1.2492908016	-2.5248015951	-0.613358367	 0.164336
C	 0.8146541818	-0.3667982553	-1.0965675969	-0.259622
C	 0.7620414913	-1.8573706466	-1.1566426614	 0.214855
C	 1.7686394259	-2.7172657623	-1.0119981553	-0.034169
O	 1.4090513608	-4.0505720094	-1.1118217228	-0.202337
C	 0.0401095274	-4.1077455288	-1.3348106292	 0.435989
O	-0.5345247132	-5.144785737	-1.4564247872	-0.316498
C	-0.4823213599	-2.6741043275	-1.3799836006	-0.461227
H	 0.8971337838	 2.071555226	 0.1332574891	 0.095909
H	-0.5441850399	 1.99531122	-0.8991583013	 0.124691
H	-0.7220777564	 1.9157038467	 0.8581390209	 0.12257
H	 0.4579067678	 0.05728913	-2.0468412569	 0.111346
H	 1.8659255185	-0.0392768232	-0.989151378	 0.085496
H	 2.8215019688	-2.5513378758	-0.8349888136	 0.138161
H	-0.9671100096	-2.4896605355	-2.3459924442	 0.151986
71.3938	88.7785	107.7246	173.2208	241.2417	302.2108	323.8913	390.422	464.3475	506.4428	570.2041	648.2783	756.3179	796.4655	824.0955	876.016	910.157	953.8012	978.4764	994.7994	1072.7049	1128.7142	1135.6855	1145.8219	1164.2737	1183.7378	1209.1414	1270.1187	1297.2306	1357.6073	1387.5293	1438.9043	1458.4515	1482.5355	1490.8588	1503.4663	1517.8484	1722.8173	1905.7544	2924.4759	2945.5577	3007.2816	3049.5076	3056.9866	3088.4088	3107.5622	3247.6691	3512.7635
C[NH2+]CC1=COC([O-])=C1	CNCC1=COC(=O)C1	
InChI=1S/C6H9NO2/c1-7-3-5-2-6(8)9-4-5/h2,4,7-8H,3H2,1H3	InChI=1S/C6H9NO2/c1-7-3-5-2-6(8)9-4-5/h4,7H,2-3H2,1H3
