18
gdb 24434	3.42653	1.58309	1.12461	1.6583	78.66	-0.1658	0.056	0.2218	1059.8905	0.152846	-398.153569	-398.146342	-398.145398	-398.184884	29.551	
C	-0.0309024628	 1.4232470663	 0.0884425002	-0.173177
C	 1.421336954	 1.9552903366	 0.0031874623	-0.166315
N	 2.2897014086	 1.4552069961	 1.0718848825	-0.402567
C	 1.9948043574	 0.1080938721	 1.3993497766	 0.252306
C	 0.9306811921	-0.5750060999	 0.852982301	 0.27959
N	 0.9633775114	-1.8653234225	 1.3280548986	-0.341984
C	 2.0379674274	-2.0068982742	 2.1778582023	-0.080114
C	 2.6979024443	-0.8016981006	 2.2436364178	-0.272162
N	-0.095555673	-0.0455911338	 0.0462604296	-0.401725
H	-0.4839203803	 1.7565242799	 1.0302621509	 0.109094
H	-0.6333209774	 1.8245051224	-0.731849291	 0.099346
H	 1.8448385346	 1.6446490457	-0.9621517593	 0.101836
H	 1.4277885975	 3.0493848205	 0.0232405197	 0.098182
H	 2.2513402869	 2.0557960776	 1.8879995118	 0.223098
H	 0.2716512307	-2.5654087883	 1.1279723603	 0.253858
H	 2.2510089955	-2.9532313288	 2.6471800241	 0.111324
H	 3.5903985901	-0.5954368597	 2.8142397124	 0.085432
H	-0.0281261569	-0.3689903894	-0.9155992899	 0.22398
118.6671	223.852	316.7574	332.3132	369.6161	414.7862	468.5704	521.5477	619.7942	633.9659	669.7027	694.5904	703.1628	761.0782	801.9547	820.5931	867.6295	917.8182	953.693	1031.3995	1042.4332	1087.0777	1116.2318	1135.9147	1196.5993	1259.9805	1269.6574	1279.284	1322.5593	1369.8597	1385.9398	1421.7812	1451.1539	1459.0939	1478.1592	1481.1833	1512.1477	1533.7161	1648.6355	3007.8477	3031.7861	3082.9084	3090.997	3245.4261	3272.5945	3464.3301	3513.6644	3689.0814
C1CNC2=C(NC=C2)N1	C1CNc2c([nH]cc2)N1	
InChI=1S/C6H9N3/c1-2-8-6-5(1)7-3-4-9-6/h1-2,7-9H,3-4H2	InChI=1S/C6H9N3/c1-2-8-6-5(1)7-3-4-9-6/h1-2,7-9H,3-4H2
