18
gdb 11046	3.88634	1.6895	1.4049	1.8092	67.09	-0.2512	0.0751	0.3263	916.4203	0.15436	-384.933617	-384.926005	-384.925061	-384.964967	30.171	
O	-0.0557197425	 1.461487991	 0.0363329659	-0.436832
C	 0.0001241283	 0.0420795213	-0.0161372304	 0.129375
C	 0.6730812024	-0.5972558477	 1.2270146078	-0.272885
C	-0.0139371015	-1.9658032181	 1.4078856266	-0.278722
C	-1.4119462417	-1.7688127523	 0.8313317796	 0.402465
O	-2.1058999956	-2.9021632194	 0.4024516588	-0.473613
C	-2.180026313	-0.5448960982	 1.2568404532	-0.348574
C	-1.3946198335	-0.5462455752	-0.0442845497	-0.069573
H	 0.8468506171	 1.7944005646	 0.0024893831	 0.279149
H	 0.5276202744	-0.2780454115	-0.9291933322	 0.065747
H	 1.7586791651	-0.6793409876	 1.1203288167	 0.093149
H	 0.4803876238	 0.0546952576	 2.0851741466	 0.111772
H	 0.4847036106	-2.7402997824	 0.8140716375	 0.10844
H	-0.0151277867	-2.3033412024	 2.4511838129	 0.09035
H	-2.4920852771	-3.3244084692	 1.1773916549	 0.280876
H	-3.2569034057	-0.6053492008	 1.145775618	 0.11155
H	-1.8419152157	 0.0617643036	 2.0899527828	 0.114498
H	-1.9550382987	-0.5282994531	-0.971090632	 0.092829
129.4489	216.5466	266.6301	275.4379	286.7161	384.0125	409.1463	428.7944	538.9908	549.6393	604.903	694.4475	816.1988	861.2072	913.4773	920.8284	957.5372	969.8723	986.4921	1028.9021	1047.9516	1063.082	1094.3508	1118.3568	1175.4848	1210.9303	1242.5767	1253.1076	1264.4947	1306.6126	1333.7572	1338.0212	1358.4152	1412.0136	1431.9219	1484.7269	1494.5269	1514.4821	2966.1009	3030.2508	3052.1795	3069.1424	3097.3524	3134.4826	3187.4197	3223.2154	3797.7554	3814.0615
OC1CCC2(O)CC12	O[C@H]1CC[C@@]2(O)C[C@@H]12	
InChI=1S/C6H10O2/c7-5-1-2-6(8)3-4(5)6/h4-5,7-8H,1-3H2	InChI=1S/C6H10O2/c7-5-1-2-6(8)3-4(5)6/h4-5,7-8H,1-3H2/t4-,5-,6+/m0/s1
