19
gdb 17586	2.67134	2.41108	1.78475	1.4388	74.85	-0.2449	0.0987	0.3436	852.7955	0.16569	-327.88121	-327.873531	-327.872586	-327.912509	30.288	
C	 0.013898924	 1.5211810864	 0.007501035	-0.479057
C	-0.0544994057	 0.0237549192	 0.0745959923	 0.283874
N	 1.1408301406	-0.7598695072	-0.2695923353	-0.418011
C	 0.5445780812	-0.9607045875	 1.0591792146	 0.283846
C	 1.3949987173	-0.7481718121	 2.276992032	-0.479013
C	-0.7087506888	-1.8155899811	 0.9793823483	-0.117647
C	-1.9250197331	-1.0051345886	 1.3497682172	-0.290532
C	-1.3139043691	-0.820888831	-0.0161578347	-0.117608
H	 0.9902527296	 1.8795591759	 0.3438188304	 0.129208
H	-0.1312068931	 1.8732487663	-1.0207894645	 0.120208
H	-0.7624782367	 1.9790801294	 0.6295587005	 0.115588
H	 0.9254660434	-1.5262314563	-0.9048389012	 0.217583
H	 2.0777007203	 0.0928024386	 2.1304171879	 0.129199
H	 0.7769756426	-0.5501568369	 3.1591626422	 0.115584
H	 2.0038898452	-1.6353559237	 2.4880575425	 0.120206
H	-0.733919363	-2.8990678807	 0.9278008944	 0.083586
H	-2.8661725215	-1.5476666401	 1.3795138678	 0.109439
H	-1.8467750719	-0.2147856817	 2.0918495071	 0.109945
H	-1.860493761	-1.0471535791	-0.9257045665	 0.083602
183.4964	193.3539	196.8788	218.4808	236.0692	371.2274	440.8918	505.1796	568.9517	598.4086	682.8921	750.7854	790.1557	823.1161	842.1838	940.8264	948.4538	957.8002	1013.0386	1034.106	1070.982	1071.3723	1091.8685	1094.7877	1116.5234	1157.9811	1164.2105	1185.5614	1249.6131	1257.4302	1330.207	1344.3121	1408.1782	1415.1868	1457.8286	1480.8344	1488.9887	1490.7849	1491.9921	1499.6085	3028.2154	3029.6545	3086.8322	3087.7498	3109.9782	3117.073	3118.9514	3160.1396	3169.6019	3194.2989	3462.6563
CC12NC1(C)C1CC21	C[C@@]12N[C@]1(C)[C@H]1C[C@@H]21	
InChI=1S/C7H11N/c1-6-4-3-5(4)7(6,2)8-6/h4-5,8H,3H2,1-2H3	InChI=1S/C7H11N/c1-6-4-3-5(4)7(6,2)8-6/h4-5,8H,3H2,1-2H3/t4-,5+,6+,7-
