14
gdb 123376	4.12213	0.98559	0.94	2.9904	69.2	-0.2419	-0.001	0.2408	1243.7125	0.101312	-432.826986	-432.818976	-432.818032	-432.861012	28.594	
C	 0.1948884045	-0.3685603743	-1.0925805571	-0.44469
C	 0.0961010422	 0.4341461251	-0.20456865	 0.311848
C	 0.0086612946	 1.4035260389	 0.8886016178	-0.329396
N	 1.2430004045	 2.1529963194	 1.1183472885	-0.379983
C	 1.5598536664	 3.2505929166	 0.3892032055	 0.55407
N	 2.7398298627	 3.8081784268	 0.2793931794	-0.372358
C	 2.4418020241	 4.892473193	-0.5001159738	 0.055134
N	 1.1981976976	 5.0252867074	-0.8677046306	-0.136395
O	 0.583150901	 3.8927892933	-0.2583580582	-0.215758
H	 0.2727969621	-1.0709408891	-1.8857378212	 0.211149
H	-0.7879660118	 2.1259707959	 0.6923284317	 0.178652
H	-0.250998075	 0.8921581555	 1.8214734222	 0.151524
H	 2.0505237579	 1.6216332429	 1.4087855087	 0.2727
H	 3.1839274293	 5.6145823387	-0.811120513	 0.143503
31.9875	62.9161	200.1422	212.38	302.5896	323.5454	438.9189	549.0302	597.3917	632.8492	633.7332	677.9028	725.4563	773.2103	880.2271	935.5319	939.0577	975.3388	987.506	1019.0915	1107.6564	1205.6668	1265.0349	1278.9486	1372.3963	1389.2813	1461.2267	1471.1577	1574.4272	1666.7998	2240.9761	3055.0116	3104.8865	3251.4068	3502.9651	3623.9635
C#CCNC1=NC=NO1	C#CCNc1ncno1	
InChI=1S/C5H5N3O/c1-2-3-6-5-7-4-8-9-5/h1,4H,3H2,(H,6,7,8)	InChI=1S/C5H5N3O/c1-2-3-6-5-7-4-8-9-5/h1,4H,3H2,(H,6,7,8)
