19
gdb 98179	2.85569	1.11342	0.98894	3.771	72.57	-0.2522	-0.0211	0.2311	1283.0721	0.154908	-460.209871	-460.199066	-460.198122	-460.246696	36.922	
C	-0.1519612573	 1.3762992863	 0.0345432036	-0.243285
O	-0.070481833	-0.0532032217	-0.0661275591	-0.240125
C	 0.7080571146	-0.5199353143	-1.0584432514	 0.456853
O	 1.2995903449	 0.1915836459	-1.8337805166	-0.367858
C	 0.766991484	-2.0460838482	-1.0648466575	 0.011576
C	 1.5093019969	-2.5494213986	 0.1835511303	-0.418918
C	-0.659145344	-2.6406827718	-1.1456544036	-0.431308
C	 1.5014060145	-2.4584456488	-2.3448043235	 0.164018
O	 2.4105827815	-3.2438909666	-2.378092813	-0.252964
H	 0.8381105644	 1.8056371289	 0.2054643032	 0.146034
H	-0.5668636659	 1.8024650462	-0.8819923887	 0.14453
H	-0.8080279528	 1.5757647282	 0.8814908652	 0.137063
H	 0.9596610445	-2.2804292778	 1.0881302429	 0.125576
H	 1.6152325135	-3.6353997361	 0.135412502	 0.136301
H	 2.5144768332	-2.1234439431	 0.2410066603	 0.135339
H	-1.1750404471	-2.3264663285	-2.059087209	 0.126466
H	-0.6077695889	-3.733460581	-1.140875635	 0.133793
H	-1.2529710609	-2.3128527354	-0.2902411757	 0.143834
H	 1.0932734178	-2.0017266235	-3.2706669943	 0.093074
30.3294	70.0715	107.349	128.3426	177.3094	206.9575	232.6186	264.4545	280.4777	314.8755	337.0536	343.3755	416.3041	534.3768	699.9752	773.4457	796.9847	864.2705	923.7736	962.5132	1004.8134	1024.6895	1043.0632	1169.2337	1177.8803	1180.0143	1212.9954	1255.6689	1295.5008	1391.8003	1409.8469	1430.23	1471.8227	1480.8096	1480.8726	1485.3289	1495.499	1500.0578	1509.7985	1801.3489	1839.013	2915.79	3039.7625	3054.6617	3055.0686	3108.5929	3128.3752	3131.4832	3134.7054	3139.8748	3163.275
COC(=O)C(C)(C)C=O	COC(=O)C(C)(C)C=O	
InChI=1S/C6H10O3/c1-6(2,4-7)5(8)9-3/h4H,1-3H3	InChI=1S/C6H10O3/c1-6(2,4-7)5(8)9-3/h4H,1-3H3
