15
gdb 94499	4.39888	0.76357	0.69156	5.8663	81.28	-0.2612	-0.0487	0.2125	1556.2912	0.112827	-416.758985	-416.750386	-416.749442	-416.793158	30.693	
O	 0.1873279146	 1.4111066722	-0.1188936583	-0.414882
C	 0.0890348548	 0.0262185198	 0.0065789498	 0.158954
C	 0.1931399908	-0.5433505409	 1.4455602401	-0.215421
N	-1.2868762046	-0.5946683785	 1.5034583238	-0.30332
C	-1.3788236398	-0.5671766809	 0.0228269291	-0.290949
C	-2.4509510636	 0.2347123875	-0.5295444197	 0.127891
C	-3.330088849	 0.9202512439	-0.9970365343	 0.10309
C	-4.327416395	 1.6905697112	-1.5211866355	 0.203402
N	-5.1775322532	 2.3455852358	-1.9663261159	-0.335292
H	-0.4014676994	 1.820243607	 0.5268101561	 0.297246
H	 0.7500483461	-0.4039082099	-0.7457641911	 0.110232
H	 0.692300566	-1.5219123164	 1.469542977	 0.103172
H	 0.6545626517	 0.1138245859	 2.1892228156	 0.116899
H	-1.700293003	-1.4050918298	 1.9512984227	 0.23157
H	-1.3853203863	-1.5611021268	-0.4499713395	 0.107406
64.7413	76.1568	127.8851	189.4455	248.5191	346.1797	376.1617	400.6308	471.8434	519.4571	570.826	589.4114	692.7949	752.8882	842.022	877.4457	940.3252	991.8274	1009.8993	1057.825	1130.0365	1134.3184	1183.6291	1198.5146	1241.8053	1287.368	1327.3267	1358.6797	1385.0744	1441.5021	1513.1317	2261.916	2396.6729	2984.9571	3007.0825	3078.5554	3121.3662	3535.654	3791.2995
OC1CNC1C#CC#N	O[C@H]1CN[C@H]1C#CC#N	
InChI=1S/C6H6N2O/c7-3-1-2-5-6(9)4-8-5/h5-6,8-9H,4H2	InChI=1S/C6H6N2O/c7-3-1-2-5-6(9)4-8-5/h5-6,8-9H,4H2/t5-,6-/m0/s1
