19
gdb 90373	2.32028	1.51955	1.25245	3.882	75.65	-0.2317	-0.0318	0.2	1104.3939	0.157241	-423.015573	-423.006821	-423.005877	-423.048903	33.224	
C	-0.7468082077	 1.3258089689	 0.0521145108	-0.415052
C	 0.004237449	 0.0161199994	-0.0492194956	 0.124169
O	 1.1552143108	 0.0863151751	-0.9384000618	-0.312984
C	 2.0003785324	-0.5992779552	 0.0126875182	-0.049863
C	 2.8095365282	 0.4460111235	 0.8091532566	 0.426928
O	 3.885540646	 0.9482051237	 0.6764986364	-0.29284
C	 1.6944282801	 0.5629553138	 1.8703344211	-0.429686
C	 0.8784259295	-0.528311751	 1.1094540129	 0.262634
C	 0.3698824881	-1.7063061135	 1.9093441782	-0.499412
H	-0.0966175155	 2.1436620784	 0.3719060543	 0.127895
H	-1.1620981238	 1.591140884	-0.9252048208	 0.135001
H	-1.5787790337	 1.2361574804	 0.7591905705	 0.120607
H	-0.6769391319	-0.7705596463	-0.407577035	 0.076045
H	 2.4767413069	-1.4979817447	-0.3895560231	 0.088305
H	 2.0513288451	 0.2179709709	 2.8473110143	 0.133886
H	 1.2468193042	 1.5502412158	 2.0050708903	 0.131265
H	-0.4414527183	-1.4030888561	 2.5818248958	 0.125978
H	-0.0161024932	-2.4956351282	 1.2560940705	 0.124681
H	 1.1622803537	-2.1407011088	 2.5283228766	 0.122442
62.6262	157.2522	195.775	218.5602	258.5483	278.8983	311.0927	386.9768	425.6829	519.12	527.6442	578.0479	629.4039	747.5711	804.8672	863.0342	885.409	899.6417	952.2588	997.3965	1037.5194	1067.6967	1087.3066	1099.7818	1135.082	1157.8473	1164.7027	1202.4308	1251.3024	1263.1663	1270.7173	1343.6959	1392.7983	1412.813	1417.4602	1437.8821	1480.6749	1494.0488	1496.0583	1501.3662	1895.6432	2983.5908	3025.2476	3040.287	3052.8263	3074.2793	3088.166	3099.5333	3107.1732	3112.5422	3127.5369
CC1OC2C(=O)CC12C	C[C@H]1O[C@H]2C(=O)C[C@@]12C	
InChI=1S/C7H10O2/c1-4-7(2)3-5(8)6(7)9-4/h4,6H,3H2,1-2H3	InChI=1S/C7H10O2/c1-4-7(2)3-5(8)6(7)9-4/h4,6H,3H2,1-2H3/t4-,6+,7+/m1/s1
