17
gdb 42530	3.40038	1.28403	1.08336	0.4453	76.89	-0.2454	-0.0424	0.2029	1130.8838	0.136505	-417.957094	-417.949075	-417.948131	-417.989953	30.108	
O	 0.0073776664	 0.1740486621	-0.5965284356	-0.33696
C	-0.0016602392	 1.3398471886	-0.300871967	 0.286627
C	-1.0804953994	 2.3685459523	-0.0481360456	 0.232953
C	-2.3895307537	 2.4224021424	-0.7541184829	-0.285904
N	-2.3294746544	 2.1405176029	 0.6801966162	-0.352134
C	-0.0180270789	 3.4510013344	 0.2344364704	-0.420515
C	 1.0611345721	 2.3803109594	-0.0290544008	 0.232953
C	 2.3719062212	 2.1103743393	 0.6220163448	-0.28591
N	 2.3105379867	 2.5451070597	-0.7735366073	-0.352129
H	-2.8003224808	 3.3942696532	-1.0133715566	 0.132983
H	-2.6187564578	 1.6148890724	-1.4449096413	 0.134278
H	-2.4399529577	 1.1407234552	 0.8451574739	 0.248566
H	-0.0081345713	 4.2794594832	-0.4768910932	 0.124682
H	-0.0373600488	 3.840130602	 1.2545505602	 0.124682
H	 2.7694900647	 2.8471815381	 1.3144978952	 0.132982
H	 2.615461776	 1.0747175429	 0.8454217538	 0.134278
H	 2.4349212148	 1.746426802	-1.3945394343	 0.248567
59.1237	182.5064	213.4986	225.492	229.0909	284.2179	366.9633	449.6602	533.3973	725.4035	743.0142	765.6695	799.5338	820.2794	885.4429	929.1778	964.9784	965.8737	993.0019	997.3335	1050.7667	1066.2273	1075.9703	1127.1284	1129.1906	1136.2117	1203.1093	1254.0983	1259.1407	1277.3053	1290.1063	1380.3303	1418.2585	1477.9589	1498.886	1505.7277	1863.9701	3073.3341	3107.8004	3107.8494	3128.9091	3200.2099	3200.4266	3475.7973	3476.2734
O=C1C2(CN2)CC11CN1	O=C1[C@]2(CN2)C[C@]21CN2	
InChI=1S/C6H8N2O/c9-4-5(2-7-5)1-6(4)3-8-6/h7-8H,1-3H2	InChI=1S/C6H8N2O/c9-4-5(2-7-5)1-6(4)3-8-6/h7-8H,1-3H2/t5-,6-/m1/s1
