20
gdb 67839	2.24822	2.09886	1.53172	1.6182	82.43	-0.2224	0.0179	0.2403	970.2944	0.17263	-365.977633	-365.970197	-365.969253	-366.008877	30.841	
C	-0.0391624033	 1.4993353385	-0.0285310494	-0.478631
C	 0.0014167214	-0.0233891716	-0.0313754973	 0.301287
C	-1.2593286014	-0.6902009772	-0.516493439	-0.1355
C	-1.7121294513	-1.6015454828	 0.3484713854	-0.075588
C	-0.8392678397	-1.7433159691	 1.5802232467	-0.291599
C	 0.301555314	-0.7414705289	 1.3166529394	-0.010616
N	 1.6419506092	-1.2547027732	 0.8252164446	-0.147758
C	 1.4191960511	-2.0729541087	-0.3837013729	-0.255931
C	 1.3512031115	-0.6098391344	-0.5223961344	-0.073472
H	 0.8755371935	 1.9146888735	 0.4078608229	 0.122879
H	-0.1303107216	 1.892532005	-1.0479430773	 0.114993
H	-0.8929482245	 1.8681102834	 0.5492404399	 0.118512
H	-1.7296052128	-0.4441618106	-1.4634326605	 0.090572
H	-2.6097216073	-2.1956069793	 0.2071802376	 0.094509
H	-1.3915870638	-1.5080141395	 2.4987747903	 0.106851
H	-0.4588568334	-2.765641994	 1.7073113447	 0.116525
H	 0.4921220623	-0.0779550871	 2.1619429748	 0.079678
H	 2.331373138	-2.5629776868	-0.7114939989	 0.117245
H	 0.5211453153	-2.6744531571	-0.4870637214	 0.119137
H	 2.1085213629	-0.0312765103	-1.0445646453	 0.086908
183.3727	229.1887	232.5468	261.8982	298.4882	397.2024	459.74	530.423	605.5699	643.9545	730.51	754.1504	767.5669	778.3281	856.8811	896.6814	922.4708	940.2953	953.3083	974.2504	993.0414	1029.6826	1039.9964	1058.2638	1107.8897	1116.4038	1139.3799	1157.4311	1181.8197	1197.357	1220.9987	1246.2729	1253.9485	1314.4637	1323.074	1346.2097	1391.3003	1409.938	1478.5168	1492.825	1495.7892	1501.5172	1668.6086	3018.549	3023.976	3043.9458	3087.6645	3091.584	3101.5291	3118.0556	3143.9737	3168.9506	3193.8826	3202.1105
CC12C=CCC1N1CC21	C[C@]12C=CC[C@H]1N1C[C@@H]21	
InChI=1S/C8H11N/c1-8-4-2-3-6(8)9-5-7(8)9/h2,4,6-7H,3,5H2,1H3	InChI=1S/C8H11N/c1-8-4-2-3-6(8)9-5-7(8)9/h2,4,6-7H,3,5H2,1H3/t6-,7+,8+,9?/m1/s1
