15
gdb 7743	3.64608	1.82137	1.25623	6.8232	66.52	-0.225	-0.0155	0.2095	919.0063	0.120748	-399.853997	-399.846868	-399.845923	-399.885189	27.222	
N	 0.0537100462	 1.3941221779	-0.0830163096	-0.567699
C	-0.01648312	 0.0272478355	-0.0678559856	 0.377419
C	-1.1688307674	-0.6794610434	-0.1184892186	-0.336743
C	-1.2014125428	-2.1361947482	-0.0313874613	 0.420764
O	-2.2008519361	-2.7862872324	 0.1496426637	-0.358087
O	 0.0027561806	-2.7979189472	-0.1172397379	-0.241705
C	 1.1106621341	-2.0866005029	-0.6602489933	-0.07608
C	 1.2914973168	-0.717669225	-0.0132442414	-0.318332
H	 0.9069524	 1.8303174056	 0.2256903372	 0.25955
H	-0.7852607738	 1.9159024859	 0.1173729306	 0.263017
H	-2.1389387781	-0.1962480819	-0.1243953525	 0.094199
H	 1.9841860164	-2.7219386743	-0.4961098655	 0.119836
H	 0.9714953485	-1.9644236723	-1.7431300166	 0.11306
H	 2.0749649454	-0.1622882133	-0.5416224772	 0.116599
H	 1.6119886803	-0.823583964	 1.0316510682	 0.134203
133.6079	166.4637	251.861	334.1114	366.2991	436.1226	467.5007	493.508	518.6487	579.4016	681.932	747.7802	805.7409	860.5876	877.0118	926.397	1006.5458	1084.287	1091.9495	1114.8534	1218.9882	1228.488	1279.5518	1300.7782	1350.7405	1420.6235	1435.6803	1464.2523	1506.0344	1647.3789	1691.2693	1816.8659	3014.1921	3024.0731	3070.8189	3101.2411	3196.7519	3588.3284	3701.3871
NC1=CC(=O)OCC1	NC1=CC(=O)OCC1	
InChI=1S/C5H7NO2/c6-4-1-2-8-5(7)3-4/h3H,1-2,6H2	InChI=1S/C5H7NO2/c6-4-1-2-8-5(7)3-4/h3H,1-2,6H2
