19
gdb 38796	3.05627	2.11544	1.75807	1.6276	76.43	-0.2301	0.078	0.3081	849.8226	0.163686	-385.841188	-385.835428	-385.834484	-385.870897	25.819	
C	-0.0264455103	 1.554881231	 0.0747027946	-0.237643
C	 1.5258312293	 1.4665297615	-0.0193026558	-0.037065
C	 2.0868389093	 1.3478640847	 1.4097384132	-0.210619
C	 1.840941743	-0.0874978267	 1.8618123092	 0.086127
O	 2.8158184667	-0.9082982011	 1.1451104518	-0.305351
C	 1.8057989998	-1.1743905451	 0.1710523396	 0.124712
C	 1.3673184034	 0.0411874913	-0.7108084225	-0.078314
C	-0.0453601721	 0.0264608064	-0.0347320026	-0.028041
C	 0.6439010287	-0.7891286065	 1.1059343043	-0.112573
H	-0.4456960088	 2.0354058329	 0.9654607664	 0.086673
H	-0.4712840723	 2.0081146989	-0.8163367542	 0.096824
H	 2.0315699276	 2.2341274003	-0.6070480506	 0.06756
H	 3.1663995712	 1.5206321627	 1.4540232882	 0.108575
H	 1.6016305315	 2.0823475554	 2.0633533091	 0.090705
H	 1.9088093442	-0.242851087	 2.9415535909	 0.075833
H	 1.9249113965	-2.1319278517	-0.3419675855	 0.074538
H	 1.5189532815	 0.0264509003	-1.7900977807	 0.062182
H	-0.9045429216	-0.4894572078	-0.468091712	 0.063467
H	 0.0739841122	-1.5063419793	 1.6958506367	 0.072412
245.6719	361.2208	418.0224	469.2718	586.9307	634.9605	655.6007	714.7367	781.8149	798.2893	814.9885	847.4953	859.2436	896.3137	907.1579	957.587	969.9536	981.8489	1008.6505	1027.1356	1051.1627	1071.7794	1073.549	1084.182	1109.759	1131.7195	1184.196	1199.2437	1210.7791	1239.8791	1253.2991	1269.9586	1278.4779	1288.0277	1300.2736	1317.0128	1352.4821	1359.0979	1369.333	1480.6764	1497.325	3030.3391	3035.4637	3074.2715	3078.4916	3081.3114	3082.0364	3087.4534	3094.0454	3110.5291	3116.9937
C1C2CC3OC4C2C1C34	C1[C@H]2C[C@@H]3O[C@@H]4[C@H]2[C@H]1[C@H]34	
InChI=1S/C8H10O/c1-3-2-5-7-4(1)6(3)8(7)9-5/h3-8H,1-2H2	InChI=1S/C8H10O/c1-3-2-5-7-4(1)6(3)8(7)9-5/h3-8H,1-2H2/t3-,4-,5-,6+,7+,8+/m0/s1
