16
gdb 22538	2.04998	1.27259	0.89302	3.1735	70.13	-0.2504	-0.0459	0.2046	1285.2142	0.11929	-474.994766	-474.984624	-474.98368	-475.031256	34.166	
C	-0.1538907697	 1.5380120955	-0.0357408828	-0.49489
C	-0.0179754439	 0.0447871453	 0.0097374628	 0.326988
N	 0.3104422488	-0.6672045325	 1.0214872716	-0.151017
O	 0.5162825924	 0.0864196605	 2.1750741204	-0.390398
C	-0.2362933443	-0.7465893086	-1.2652722717	-0.254729
C	 1.0412198177	-0.6566518086	-2.1060210029	 0.169054
O	 1.249388298	 0.2260914293	-2.8957493111	-0.2505
C	-0.6341625306	-2.1900197391	-0.98383762	 0.167734
O	-0.1389279055	-3.1350729781	-1.5398437774	-0.247619
H	 0.3598814492	 2.0042579494	 0.8044223215	 0.160042
H	 0.2499042548	 1.9182394233	-0.9787734984	 0.158787
H	-1.2122654894	 1.8233500534	 0.0056424244	 0.144483
H	 0.7807049949	-0.5833696093	 2.8153881832	 0.313493
H	-1.0449150267	-0.272497267	-1.8383816945	 0.130257
H	 1.7839672629	-1.4484507435	-1.8898231341	 0.119232
H	-1.4461338685	-2.3065850399	-0.2376504908	 0.099084
50.6175	55.823	81.5498	114.8498	159.2764	219.8984	231.9735	315.4072	340.8614	393.9827	412.8768	456.8729	556.3264	647.4202	669.1306	793.2389	879.9466	973.1789	993.2076	1035.2383	1055.7786	1081.1817	1098.412	1200.4187	1250.1738	1299.2744	1395.5086	1402.0705	1409.4689	1421.6099	1481.0922	1485.5876	1721.0351	1822.0783	1828.7661	2927.5512	2956.1439	3030.3529	3037.9162	3100.2037	3161.0938	3814.9001
CC(=NO)C(C=O)C=O	CC(=NO)C(C=O)C=O	
InChI=1S/C5H7NO3/c1-4(6-9)5(2-7)3-8/h2-3,5,9H,1H3	InChI=1S/C5H7NO3/c1-4(6-9)5(2-7)3-8/h2-3,5,9H,1H3
