27
gdb 101676	1.81121	1.14517	0.80227	0.9299	93.34	-0.2413	0.0831	0.3244	1617.947	0.24873	-390.707033	-390.694957	-390.694013	-390.744538	43.97	
C	-0.0431825665	 1.529757155	-0.3337784444	-0.385449
C	-0.2408466625	 0.0798363525	 0.1120760099	-0.172273
C	 0.6370664881	-0.33475	 1.2960658591	 0.152647
C	 0.3315973224	-1.7694206824	 1.7395971416	-0.401283
O	 1.9887265582	-0.1675648618	 0.8824094904	-0.280057
C	 2.9996410598	-0.2502731453	 1.8890201295	 0.142182
C	 3.8269806191	-1.5205098469	 1.6794269452	-0.392292
C	 3.8697806693	 1.0101900834	 1.8131570136	-0.158596
C	 3.1276080037	 2.2973196842	 2.177049263	-0.395839
H	 0.9920232665	 1.7009396809	-0.6376635118	 0.134258
H	-0.6934050128	 1.772159197	-1.1801593678	 0.105493
H	-0.2787434419	 2.23004139	 0.475923053	 0.10869
H	-1.2881248228	-0.0880256013	 0.391084044	 0.090582
H	-0.0260958598	-0.5984643891	-0.7233665921	 0.100567
H	 0.4345736129	 0.3455991425	 2.1419253318	 0.060717
H	 0.5280128983	-2.4712618758	 0.9224385813	 0.119904
H	 0.9384680352	-2.0654472842	 2.5999622723	 0.114116
H	-0.7201589819	-1.8617908386	 2.0300758883	 0.109977
H	 2.5233661052	-0.2861061361	 2.8812577684	 0.064703
H	 4.6155915749	-1.6034289333	 2.4346399707	 0.107308
H	 3.1999395725	-2.4136586032	 1.7366926356	 0.114163
H	 4.2976130484	-1.5016273063	 0.6910939268	 0.120993
H	 4.7321895097	 0.8769029677	 2.4781642849	 0.088741
H	 4.2683276502	 1.0825721296	 0.7934262277	 0.101239
H	 3.7818361155	 3.1698590159	 2.0852170105	 0.109054
H	 2.2680081812	 2.4509579291	 1.5196460426	 0.13377
H	 2.7614596469	 2.2662460565	 3.2098608457	 0.106686
48.0107	73.3101	110.1978	117.0171	174.8561	202.9224	218.9536	221.5125	239.8517	260.1626	276.4109	344.4977	373.7061	450.4214	474.739	493.5997	508.0784	744.3706	786.6423	826.9665	838.0745	884.269	949.0257	975.6841	984.4843	998.293	1023.0582	1036.9947	1067.1154	1123.2933	1127.3228	1146.9844	1168.8174	1186.5198	1208.1368	1295.6552	1307.0237	1324.7891	1332.9942	1362.5867	1389.7257	1396.4414	1401.2553	1402.7522	1403.8812	1407.0766	1421.3328	1473.4164	1473.8676	1488.0256	1490.4596	1494.7434	1496.4472	1498.9987	1501.7352	1508.85	1511.0208	2946.5809	2982.5106	3023.7303	3025.5847	3033.2265	3033.712	3035.5699	3038.5155	3061.378	3063.3653	3096.2705	3096.5271	3105.6357	3107.3603	3112.0151	3121.3741	3122.2155	3126.9513
CCC(C)OC(C)CC	CC[C@@H](C)O[C@@H](C)CC	
InChI=1S/C8H18O/c1-5-7(3)9-8(4)6-2/h7-8H,5-6H2,1-4H3	InChI=1S/C8H18O/c1-5-7(3)9-8(4)6-2/h7-8H,5-6H2,1-4H3/t7-,8+
