19
gdb 52882	2.93029	0.99852	0.8197	1.8903	85.27	-0.2441	0.0341	0.2782	1468.2191	0.157046	-385.83064	-385.82098	-385.820035	-385.866841	34.483	
C	 0.0517600554	 1.5984175565	 0.4258531688	-0.504877
C	 0.0489027835	 0.1576435129	 0.2227152351	 0.177067
C	 0.0320372401	-1.0347491186	 0.0540590992	-0.005418
C	 0.06350882	-2.4636692615	-0.1594857423	 0.174718
C	-0.7115506139	-3.3432936617	 0.7419508955	-0.212627
O	-1.1823193298	-3.0612821627	-0.5741499807	-0.266987
C	 1.2885127978	-2.9843155398	-0.8631696539	-0.083594
C	 1.2512219203	-4.3088583671	-1.5765878963	-0.279456
C	 1.3160654349	-3.026983618	-2.3697971358	-0.253007
H	 0.9318702578	 2.0621408825	-0.0327814504	 0.150944
H	-0.836343558	 2.0592417982	-0.0204195758	 0.154496
H	 0.0577605983	 1.8524062314	 1.4915867834	 0.149616
H	-0.3614154732	-4.3614387991	 0.9058724598	 0.11521
H	-1.2932510482	-2.9020224338	 1.5488651518	 0.118686
H	 2.2142316252	-2.7100942634	-0.3663099554	 0.092272
H	 2.1333265644	-4.9372484786	-1.5275979686	 0.106822
H	 0.3069649223	-4.8406495242	-1.5848599303	 0.128629
H	 0.4143667648	-2.7236100573	-2.8897943483	 0.126883
H	 2.2403861681	-2.7680091658	-2.8734819758	 0.110622
22.4994	65.0705	90.204	136.4584	218.8547	236.4719	299.4974	327.9807	406.1894	434.5347	534.8666	571.0421	623.8676	786.0902	802.2567	826.1554	846.2256	916.4535	946.3601	982.9988	1037.132	1051.0126	1054.5141	1064.0808	1090.4666	1107.7288	1130.7884	1136.0724	1170.6442	1201.3274	1220.938	1255.6412	1360.4723	1407.7667	1413.9975	1459.4656	1476.3079	1477.5769	1498.2651	1514.568	2369.8516	3028.1387	3085.5927	3089.1357	3091.1028	3137.6034	3140.228	3155.5966	3179.9377	3220.4874	3234.6375
CC#CC1(CO1)C1CC1	CC#C[C@]1(CO1)C1CC1	
InChI=1S/C8H10O/c1-2-5-8(6-9-8)7-3-4-7/h7H,3-4,6H2,1H3	InChI=1S/C8H10O/c1-2-5-8(6-9-8)7-3-4-7/h7H,3-4,6H2,1H3/t8-/m0/s1
