24
gdb 102574	2.23011	1.13004	0.86339	2.2083	86.44	-0.2207	0.0816	0.3023	1475.7901	0.214695	-405.503159	-405.492054	-405.49111	-405.540057	39.634	
C	-2.6687636311	 1.2353079949	-1.8384551087	-0.391392
C	-1.8889657512	-0.0130526258	-1.409738478	-0.198955
C	-0.6488833301	-0.3457150673	-2.2773224891	 0.114193
O	 0.5771023373	 0.1028645933	-1.7050550087	-0.248609
C	 0.75198647	 1.4989933981	-1.6602158919	-0.234255
C	-0.4959011296	-1.8450101186	-2.430225845	 0.007937
C	-1.0919764695	-2.5534863047	-3.6002989282	-0.263361
N	 0.353235855	-2.469399654	-3.4372472984	-0.085298
C	 1.1067190155	-1.6440157743	-4.3700015514	-0.30879
H	-2.0571505404	 2.1412796103	-1.8011020886	 0.11801
H	-3.0382283946	 1.1310971978	-2.8646989219	 0.116129
H	-3.5369518391	 1.3948282867	-1.1911499054	 0.115705
H	-1.5499621203	 0.077842586	-0.3710869192	 0.111033
H	-2.5683189883	-0.8727841659	-1.434584084	 0.106145
H	-0.7715441302	 0.1244717935	-3.2665186248	 0.059382
H	 1.7875394553	 1.6827764886	-1.3612867867	 0.125572
H	 0.5807009733	 1.9650972914	-2.6438232051	 0.100513
H	 0.0912339191	 1.9861028188	-0.9288111749	 0.107954
H	-0.4682539345	-2.361161326	-1.4704265192	 0.091497
H	-1.535979745	-3.5399907554	-3.492280238	 0.111922
H	-1.5543226116	-1.9326171054	-4.3689432253	 0.099708
H	 0.5385024295	-0.8059972301	-4.8037428225	 0.094208
H	 1.9816564515	-1.235189723	-3.8579264008	 0.13361
H	 1.447954359	-2.276105709	-5.1961583841	 0.117144
46.6714	65.9917	91.3252	132.1605	179.0864	196.4557	210.5936	240.095	270.8717	336.5801	346.9925	395.2452	435.0037	496.0201	563.4811	754.2327	761.7092	871.8947	883.5217	928.8243	957.3812	1030.7089	1038.7574	1083.6201	1090.0471	1113.0799	1117.541	1128.2271	1154.6984	1164.9635	1179.4622	1195.5608	1203.5915	1229.913	1279.9128	1294.5291	1341.1516	1358.197	1378.1799	1412.9721	1435.6595	1448.0826	1475.3608	1477.0205	1486.7576	1493.1718	1500.5797	1503.6824	1504.8288	1511.2829	1515.569	2961.9494	2972.6639	2982.1141	3025.7238	3033.9007	3035.9144	3068.2901	3068.9557	3077.0768	3099.5408	3103.6093	3104.0953	3114.1112	3115.9015	3165.304
CCC(OC)C1CN1C	CC[C@@H](OC)[C@H]1CN1C	
InChI=1S/C7H15NO/c1-4-7(9-3)6-5-8(6)2/h6-7H,4-5H2,1-3H3	InChI=1S/C7H15NO/c1-4-7(9-3)6-5-8(6)2/h6-7H,4-5H2,1-3H3/t6-,7-,8?/m1/s1
