15
gdb 78125	2.81316	1.35631	1.11345	5.8105	71.49	-0.2691	-0.0538	0.2153	1100.5214	0.11172	-416.782528	-416.774445	-416.773501	-416.815404	29.579	
C	-0.0835125277	 1.5644615333	 0.0004170567	-0.435145
C	 0.080646883	 0.0611480712	-0.0624445943	 0.019208
C	 0.5947096086	-0.720632191	-1.2299079699	-0.183427
N	 1.3306875227	-0.6832620314	 0.125776377	-0.126679
C	 2.4354881814	 0.1498567769	-0.4881936933	-0.270642
C	 3.7281495117	-0.5089026826	-0.4140744802	 0.31346
N	 4.7635901004	-1.0202054621	-0.3785255249	-0.306424
C	 1.7349805193	-0.0130890645	-1.8866822253	 0.423394
O	 2.090381375	 0.1614027784	-3.009362712	-0.277182
H	 0.6015176201	 2.1141252848	-0.6473597628	 0.141783
H	-1.099848908	 1.8223266709	-0.3116320733	 0.143945
H	 0.0480413651	 1.9180833224	 1.0282712692	 0.144431
H	-0.7189367844	-0.4697800807	 0.4516384644	 0.126905
H	 0.0946727871	-1.6010581161	-1.6171648545	 0.138161
H	 2.5142291955	 1.1620206907	-0.0846143467	 0.148212
95.4031	131.1736	153.2114	183.7089	283.6574	349.8586	402.5139	466.5894	497.7402	548.7972	637.9648	684.3725	749.9561	837.0039	885.6232	902.1742	911.3405	986.2469	1048.3091	1063.9612	1086.0048	1119.6033	1155.9298	1171.4638	1253.9847	1301.8168	1324.4317	1412.4244	1426.4683	1492.4578	1501.5874	1908.4497	2363.2533	3047.3162	3091.7324	3111.1243	3121.6607	3139.8292	3190.1577
CC1C2N1C(C#N)C2=O	C[C@H]1[C@@H]2N1[C@@H](C#N)C2=O	
InChI=1S/C6H6N2O/c1-3-5-6(9)4(2-7)8(3)5/h3-5H,1H3	InChI=1S/C6H6N2O/c1-3-5-6(9)4(2-7)8(3)5/h3-5H,1H3/t3-,4-,5-,8?/m0/s1
