18
gdb 114726	2.79104	1.42256	1.13936	4.7557	71.3	-0.2417	-0.0323	0.2094	1100.5987	0.149074	-439.08232	-439.074286	-439.073342	-439.115217	30.731	
O	 0.3529892467	 1.0951732809	 0.432564292	-0.42899
C	 0.0544872564	-0.2757202289	 0.297899564	-0.065386
C	-1.4221021164	-0.505286856	-0.0911724751	-0.128886
C	-1.8212936915	-1.9693294039	-0.4061165898	-0.253663
C	-2.7781993662	-2.391071537	 0.7041202329	-0.034728
N	-2.1590919477	-2.2704571336	 2.0271742608	-0.327101
C	-3.118463101	-1.22014968	 1.5548894033	-0.162591
C	-2.33181059	-0.0443236297	 1.0546506415	 0.446957
O	-2.3775236466	 1.0841856819	 1.4909809479	-0.351504
H	-0.345367282	 1.4882679289	 0.9740928143	 0.295542
H	 0.7001156599	-0.666065981	-0.4969217949	 0.104046
H	 0.2760117767	-0.8434373032	 1.2149420181	 0.10874
H	-1.624003297	 0.1507575881	-0.9446395077	 0.114366
H	-2.3236595595	-2.0324564972	-1.3757590565	 0.110546
H	-0.9533259483	-2.6357625607	-0.4394136712	 0.117805
H	-3.4999673769	-3.1820015585	 0.5287065847	 0.099458
H	-2.6508249671	-2.8563829521	 2.6985750487	 0.244796
H	-4.0577811197	-1.0771765178	 2.0746383571	 0.110593
60.4943	149.3433	197.6152	198.9358	327.1711	375.2757	409.8537	459.4367	487.1343	587.4761	665.6239	714.3581	792.8058	810.7612	856.5967	884.508	925.3248	939.6846	975.6114	1041.6671	1054.8967	1091.4642	1101.2956	1120.0642	1148.3168	1185.3467	1202.1535	1225.4272	1249.0967	1280.1805	1299.983	1346.1331	1360.3336	1376.24	1406.4302	1453.5359	1484.2304	1520.4985	1814.3605	2988.2144	3049.0308	3053.0518	3064.936	3095.0343	3167.6499	3198.1247	3496.8949	3743.1174
OCC1CC2NC2C1=O	OC[C@H]1C[C@H]2N[C@H]2C1=O	
InChI=1S/C6H9NO2/c8-2-3-1-4-5(7-4)6(3)9/h3-5,7-8H,1-2H2	InChI=1S/C6H9NO2/c8-2-3-1-4-5(7-4)6(3)9/h3-5,7-8H,1-2H2/t3-,4-,5-/m1/s1
