14
gdb 9575	4.59704	1.30788	1.25273	1.7684	72.61	-0.2406	0.0193	0.26	990.6015	0.103401	-345.3118	-345.303453	-345.302509	-345.344115	31.279	
O	-0.0137573144	 1.391080383	-0.0367304869	-0.432665
C	 0.0283586319	-0.0037143274	 0.0092003267	 0.209762
C	-0.4390314421	-0.6847558297	 1.277876851	-0.339476
C	-1.3440018359	-0.6802793287	 0.0559707664	-0.265809
C	-2.53680007	 0.1107360127	 0.0278208552	 0.348199
C	-3.5564314627	 0.7465643559	-0.0058599437	-0.436288
C	 1.0650414181	-0.6234681461	-0.7761269359	 0.285456
C	 1.9532103561	-1.119898744	-1.4175136129	-0.45538
H	 0.8097689733	 1.7208983896	 0.3405736807	 0.291253
H	 0.0196391441	-1.6228610283	 1.5667038549	 0.13008
H	-0.7188277183	-0.0190907337	 2.0856857987	 0.135685
H	-1.3971521001	-1.6150710764	-0.4928604301	 0.132703
H	-4.448724535	 1.3208125058	-0.0387160943	 0.195853
H	 2.7290656749	-1.5578607726	-1.9956158399	 0.200625
104.0752	124.3308	180.3695	237.9392	273.3306	339.1806	377.2239	462.5983	527.2677	553.752	591.498	601.4161	613.9437	651.6064	680.608	712.6525	796.4287	867.2668	920.7862	1002.029	1053.8544	1070.3766	1130.0776	1231.6535	1253.0491	1338.5495	1396.837	1464.0904	2231.7297	2243.0342	3144.273	3160.7732	3245.4609	3500.7207	3505.9873	3799.2341
OC1(CC1C#C)C#C	O[C@]1(C[C@H]1C#C)C#C	
InChI=1S/C7H6O/c1-3-6-5-7(6,8)4-2/h1-2,6,8H,5H2	InChI=1S/C7H6O/c1-3-6-5-7(6,8)4-2/h1-2,6,8H,5H2/t6-,7+/m1/s1
