21
gdb 55352	3.0472	1.2239	1.11764	2.6115	81.95	-0.2352	-0.0066	0.2286	1206.5058	0.183194	-387.118163	-387.109442	-387.108498	-387.152042	33.227	
C	-0.7979943726	 1.0831397419	 0.2182147457	-0.479333
C	 0.2665221733	 0.017598621	 0.0309730689	 0.394532
O	 1.0446988743	-0.2660846498	 0.9140550996	-0.310364
C	 0.2725132044	-0.7022209	-1.3183356092	-0.097061
C	 1.6332468844	-1.3459757364	-1.6718690002	-0.248865
C	 1.3065537874	-2.6188028778	-2.4839950207	-0.222139
C	-0.0710658595	-3.0503867859	-2.0046884608	-0.026688
C	-0.3252926675	-3.0961740594	-0.5185202429	-0.286432
C	-0.7231783711	-1.8742188837	-1.3113537981	-0.043277
H	-0.5825362329	 1.9356255757	-0.4373817477	 0.139615
H	-1.7839692998	 0.7038994308	-0.0712199824	 0.136931
H	-0.8157989644	 1.4200227465	 1.2553313872	 0.139961
H	-0.0456283963	 0.003069523	-2.0962645065	 0.072327
H	 2.2786682561	-0.655497552	-2.2210134639	 0.097733
H	 2.150932599	-1.5894765527	-0.7414354541	 0.133584
H	 1.2554957785	-2.3906255256	-3.5554884516	 0.096465
H	 2.0710995189	-3.3931166643	-2.3576139933	 0.100403
H	-0.6581032368	-3.7043661551	-2.6405944126	 0.080695
H	-1.126142201	-3.7411380321	-0.1738751285	 0.108988
H	 0.5070322079	-3.018388936	 0.1730241559	 0.130852
H	-1.7771921121	-1.6546600082	-1.4409859749	 0.082074
50.9669	100.7056	139.114	176.6734	262.6008	318.5664	352.5729	396.6378	559.094	593.0014	614.722	643.1646	761.8794	812.6813	833.3176	859.3245	896.8971	920.3189	962.7023	964.4692	977.4967	990.4948	1036.4685	1058.7868	1064.7863	1092.2053	1108.1829	1134.6026	1173.0452	1203.7446	1209.9865	1228.0288	1285.9701	1301.8368	1324.7093	1351.9517	1366.3768	1381.311	1394.2676	1462.5249	1476.3675	1486.7664	1494.8451	1513.3207	1804.7647	3024.6483	3030.5001	3034.7416	3066.3643	3072.2037	3094.7755	3114.9826	3133.9438	3151.433	3160.1328	3169.7711	3217.2546
CC(=O)C1CCC2CC12	CC(=O)[C@H]1CC[C@H]2C[C@@H]12	
InChI=1S/C8H12O/c1-5(9)7-3-2-6-4-8(6)7/h6-8H,2-4H2,1H3	InChI=1S/C8H12O/c1-5(9)7-3-2-6-4-8(6)7/h6-8H,2-4H2,1H3/t6-,7+,8+/m0/s1
