17
gdb 124994	2.97223	1.21613	0.92111	1.8055	71.83	-0.2389	-0.0016	0.2373	1254.842	0.136182	-455.143157	-455.134018	-455.133074	-455.177692	32.79	
C	-0.1764759929	 1.6019338407	 0.1686126377	-0.511014
C	 0.0196289746	 0.1278813978	 0.0198354072	-0.036909
C	 0.0711450185	-0.6570151119	-1.0933116466	 0.359157
C	 0.0052025358	-0.3771652337	-2.5633928513	-0.264691
N	 1.2496766592	-0.6180152748	-3.3060499742	-0.493374
O	 0.2637182757	-1.950077722	-0.7508434725	-0.233507
N	 0.3500080844	-2.0514827742	 0.641933927	-0.265879
C	 0.2006298736	-0.823472201	 1.0687984708	 0.414118
O	 0.2215020168	-0.5108937463	 2.3753482729	-0.418131
H	 0.6605288047	 2.0626528054	 0.7043399286	 0.140214
H	-0.2627171483	 2.0921052771	-0.8043870575	 0.128059
H	-1.0836607891	 1.8283000043	 0.7393553714	 0.141788
H	-0.7788109409	-0.9981151953	-3.0116720953	 0.134393
H	-0.2954003956	 0.6647005417	-2.7094034516	 0.123355
H	 1.9981514465	-0.0642111759	-2.8976495542	 0.229462
H	 1.5255373179	-1.5882467788	-3.1810259679	 0.241514
H	 0.3560219192	-1.3295255232	 2.8714119155	 0.311443
48.1219	97.9697	116.3203	218.115	231.1513	252.6492	321.6398	329.7343	414.1191	463.0005	521.0778	579.0041	668.3361	716.5605	758.8471	779.665	874.3962	908.1196	958.491	993.0546	1067.643	1092.8902	1112.467	1162.0391	1219.2406	1249.5053	1324.6298	1368.9009	1392.8884	1424.1999	1471.7762	1480.0005	1489.3159	1533.5707	1565.8672	1668.4803	1693.8211	3035.633	3045.5229	3087.0369	3092.8383	3118.2381	3485.9126	3563.0923	3780.9697
CC1=C(CN)ON=C1O	Cc1c(CN)onc1O	
InChI=1S/C5H8N2O2/c1-3-4(2-6)9-7-5(3)8/h2,6H2,1H3,(H,7,8)	InChI=1S/C5H8N2O2/c1-3-4(2-6)9-7-5(3)8/h2,6H2,1H3,(H,7,8)
