18
gdb 116027	2.58503	1.47034	1.08767	6.2457	75.97	-0.2246	-0.0398	0.1848	1121.889	0.14983	-439.117562	-439.109319	-439.108374	-439.150475	31.359	
O	-0.0176058984	 1.5046097528	-0.1235962801	-0.431765
C	 0.0739111227	 0.1078100524	 0.0115110028	-0.043305
C	-1.3231646472	-0.5576652929	 0.0380040966	-0.130315
C	-1.2991352334	-2.0844074908	-0.1005126085	-0.210312
N	-0.9600877009	-2.7315450293	 1.1632527875	-0.277825
C	-1.5281372999	-2.2607917641	 2.3014521563	 0.027491
C	-2.1087106327	-1.0348304011	 2.4060294289	-0.220829
C	-2.027844401	-0.0859682879	 1.3176487338	 0.361742
O	-2.3751140958	 1.0892827505	 1.4107487796	-0.388333
H	-0.7692361574	 1.7903722591	 0.4198212736	 0.296949
H	 0.633872942	-0.2686706743	-0.8542783281	 0.095148
H	 0.637873803	-0.182234095	 0.9148124842	 0.091492
H	-1.8761985749	-0.1456963723	-0.8119489806	 0.110941
H	-2.2920320294	-2.4269772374	-0.4313614812	 0.115203
H	-0.5723420238	-2.3915122148	-0.8594403998	 0.117577
H	-0.7279088846	-3.7105468766	 1.1295099162	 0.256261
H	-1.4636827683	-2.9253295739	 3.1584764222	 0.127138
H	-2.51604638	-0.6995960944	 3.3506909264	 0.102743
78.44	149.7308	165.3945	227.2765	288.5042	375.7624	405.3863	448.0678	492.3314	522.8117	531.7282	609.7706	727.8713	748.681	828.1866	856.222	928.7186	932.5402	985.7493	1035.4282	1052.7255	1092.5271	1113.662	1132.4697	1210.2646	1244.7561	1254.0002	1280.9642	1300.5516	1330.537	1370.1801	1392.1524	1430.5209	1471.9519	1494.3462	1518.2887	1540.2591	1657.855	1714.2402	2956.0201	2980.1239	3032.4864	3069.5389	3070.8119	3175.2854	3222.8859	3641.9597	3677.7815
OCC1CNC=CC1=O	OC[C@H]1CNC=CC1=O	
InChI=1S/C6H9NO2/c8-4-5-3-7-2-1-6(5)9/h1-2,5,7-8H,3-4H2	InChI=1S/C6H9NO2/c8-4-5-3-7-2-1-6(5)9/h1-2,5,7-8H,3-4H2/t5-/m1/s1
