15
gdb 128224	2.7359	1.38467	0.92619	7.0251	71.87	-0.2355	-0.0596	0.1759	1194.0981	0.112815	-450.122499	-450.114162	-450.113218	-450.155863	29.438	
C	-0.1017163102	 1.4276585205	 0.0077566078	-0.332656
N	-0.0454465347	-0.0290663288	 0.009534267	-0.396642
C	 0.6365258612	-0.63380139	 1.0388652749	 0.431194
C	 1.2442107413	-0.134985614	 2.1641667373	-0.161824
N	 1.7340658049	-1.1872764322	 2.8984305065	-0.153255
N	 1.4874057664	-2.3018846611	 2.3204269937	-0.116079
N	 0.7866892692	-2.0019432994	 1.1536726022	-0.114773
C	 0.2512554789	-3.0006636385	 0.3283840873	 0.184116
O	 0.4404025404	-4.1736413174	 0.463468138	-0.247031
H	 0.8905506304	 1.89777082	-0.0452456959	 0.132038
H	-0.6943049991	 1.7546669074	-0.8484646841	 0.140728
H	-0.5997026097	 1.7713487756	 0.9186648931	 0.152847
H	 0.1219398441	-0.4275094594	-0.9031618729	 0.253924
H	 1.3664499639	 0.8849639402	 2.485259413	 0.128526
H	-0.3853299369	-2.5639211029	-0.4627379679	 0.098888
87.4917	144.8589	159.3967	181.3749	216.8062	247.7648	329.5204	380.687	507.189	592.4806	682.1579	707.5866	722.9269	787.7154	794.5874	974.6468	1026.4432	1034.2832	1115.7927	1119.4943	1153.2788	1176.7936	1271.0777	1299.4521	1390.3235	1418.4047	1449.1014	1462.1456	1486.458	1509.2793	1530.4195	1631.3029	1849.8543	2968.0744	3004.8531	3091.0669	3137.4634	3286.6595	3591.0216
CNC1=CN=NN1C=O	CNc1cnnn1C=O	
InChI=1S/C4H6N4O/c1-5-4-2-6-7-8(4)3-9/h2-3,5H,1H3	InChI=1S/C4H6N4O/c1-5-4-2-6-7-8(4)3-9/h2-3,5H,1H3
