20
gdb 26384	3.99786	0.92566	0.8819	1.4186	81.07	-0.2357	0.0077	0.2434	1415.7594	0.171044	-403.196567	-403.18746	-403.186516	-403.231515	33.305	
C	-0.0859757326	 1.5295752329	-0.0813563414	-0.393698
C	-0.0036294821	 0.0008649738	 0.001646403	 0.040741
C	 0.8903289317	-0.4450380174	 1.165166237	-0.383879
C	-1.4251623881	-0.6029577529	 0.1119139271	-0.301188
C	-1.460533779	-2.0881273013	 0.0146052715	 0.387112
N	-1.750551334	-2.9598114257	 0.9305928815	-0.303567
C	-1.6131878203	-4.1924251229	 0.3019925682	-0.116353
C	-1.2396548516	-3.9952199447	-0.9816595337	-0.04398
O	-1.1365258885	-2.646836778	-1.1848242948	-0.174926
H	 0.9104739831	 1.9705608268	-0.1854366711	 0.113447
H	-0.6884124865	 1.8538398028	-0.9365354632	 0.111295
H	-0.5401145025	 1.9469961788	 0.8252606155	 0.115165
H	 0.4353606144	-0.3703867947	-0.9336496191	 0.087373
H	 0.5005078577	-0.0727119127	 2.119972846	 0.115929
H	 0.9495545371	-1.5348655213	 1.236951444	 0.126979
H	 1.9070076858	-0.0571442182	 1.0457094201	 0.110897
H	-1.8757393438	-0.3309753204	 1.071145915	 0.128419
H	-2.0548387012	-0.1805789577	-0.680741438	 0.116156
H	-1.7945317817	-5.1196791941	 0.8217264457	 0.122021
H	-1.022959618	-4.6284531932	-1.8243935832	 0.142055
35.3668	69.2577	108.3439	217.2509	245.1821	278.8544	316.4034	355.0436	417.3553	424.4308	631.6259	695.799	757.3801	781.7342	830.3316	864.1965	882.9178	931.6937	933.4061	950.89	955.1033	969.4596	1084.7436	1116.6858	1136.3817	1153.3089	1166.415	1191.1121	1229.1441	1272.4587	1313.6933	1367.3049	1370.1392	1390.7954	1403.0773	1424.2926	1466.5126	1485.2167	1493.4377	1504.0234	1507.8656	1558.0735	1617.276	3021.0516	3024.9422	3030.7679	3035.1482	3090.4712	3094.6033	3100.9923	3102.1462	3110.9235	3263.7769	3300.7735
CC(C)CC1=NC=CO1	CC(C)Cc1ncco1	
InChI=1S/C7H11NO/c1-6(2)5-7-8-3-4-9-7/h3-4,6H,5H2,1-2H3	InChI=1S/C7H11NO/c1-6(2)5-7-8-3-4-9-7/h3-4,6H,5H2,1-2H3
