16
gdb 25811	4.17318	1.06054	0.85925	5.5036	75.76	-0.2297	-0.0246	0.2051	1297.9136	0.125902	-434.150003	-434.141448	-434.140504	-434.183873	31.023	
C	 0.0853030718	 1.4710975157	 0.0592261087	-0.501139
C	-0.0083555929	-0.0153459889	-0.0201847107	 0.349052
N	-0.2225761608	-0.717108377	-1.119496146	-0.292056
C	-0.1970268413	-2.0302928309	-0.7359082834	-0.141484
C	 0.022051415	-2.1438675696	 0.6167910952	 0.229173
N	 0.1257926135	-0.832918447	 1.0630867353	-0.373287
C	 0.1058510238	-3.3374374472	 1.4672236736	 0.287933
N	-0.0164492137	-3.0967044649	 2.8326020366	-0.558725
O	 0.307239966	-4.4498031725	 1.0201403959	-0.345018
H	 1.0700848231	 1.7977503407	 0.4127592667	 0.137496
H	-0.0766036022	 1.8827794131	-0.9373193164	 0.16444
H	-0.6664075354	 1.8912034129	 0.7368543769	 0.135336
H	-0.3526549661	-2.8366197308	-1.4354748202	 0.13524
H	 0.419654438	-0.5537938832	 1.9849165638	 0.265165
H	-0.6560082859	-2.3704685898	 3.1210564082	 0.248071
H	-0.0893407229	-3.9459478507	 3.3763678159	 0.259802
60.3392	90.2293	136.7442	155.3039	285.095	338.4631	391.8477	437.1096	516.7341	563.4293	580.5239	645.3455	673.0171	698.7127	713.3751	785.038	897.9696	983.1018	1002.3955	1032.4134	1062.5013	1091.5166	1150.6819	1197.931	1263.0159	1353.9721	1383.8216	1412.8476	1423.3583	1483.1863	1495.7638	1531.6241	1603.9309	1625.751	1785.4098	3033.2521	3083.8519	3153.0394	3264.0238	3554.3258	3654.3265	3669.3413
CC1=NC=C(N1)C(N)=O	Cc1ncc([nH]1)C(=O)N	
InChI=1S/C5H7N3O/c1-3-7-2-4(8-3)5(6)9/h2H,1H3,(H2,6,9)(H,7,8)	InChI=1S/C5H7N3O/c1-3-7-2-4(8-3)5(6)9/h2H,1H3,(H2,6,9)(H,7,8)
