19
gdb 41933	3.29578	1.52869	1.10401	2.6129	76.54	-0.2358	0.0124	0.2482	1093.5093	0.162006	-423.027522	-423.020184	-423.01924	-423.059454	28.892	
C	-0.035153905	 1.385673787	 0.1214402818	-0.074035
C	 1.4080269852	 1.9551118889	-0.0100496391	-0.299063
C	 2.2202794537	 0.7365924156	 0.4303772978	-0.012085
C	 3.6588157766	 0.487466012	 0.0817277661	-0.13619
C	 4.0258709999	-0.7753497799	-0.1464383978	-0.06298
C	 3.0668349788	-1.9458365988	-0.1050702061	-0.130193
O	 1.7376741188	-1.6222914559	 0.3028305216	-0.258919
C	 1.3873315335	-0.3698557017	-0.2071329208	 0.245452
O	 0.0578671719	-0.0523803319	 0.0893431218	-0.27746
H	-0.4980567079	 1.6706321566	 1.0728789226	 0.111066
H	-0.6871984383	 1.7267052644	-0.6905484946	 0.105902
H	 1.6290699041	 2.2266262526	-1.0478138123	 0.110162
H	 1.5574628807	 2.8421210629	 0.6096276689	 0.107708
H	 2.0861771481	 0.6205154049	 1.515516016	 0.102948
H	 4.3766774607	 1.301830282	 0.0457176426	 0.092105
H	 5.0534924177	-1.0294902617	-0.3941346697	 0.096572
H	 3.0478877229	-2.4243201309	-1.1008344436	 0.107208
H	 3.4221185947	-2.7046912399	 0.6015428287	 0.125199
H	 1.5451901539	-0.3718826461	-1.306554594	 0.046605
90.7087	157.1103	209.572	297.1654	372.0426	443.1334	489.9778	540.1936	569.8418	672.484	696.7856	804.4314	849.7574	885.9773	900.4968	933.401	982.1961	989.4852	1020.4032	1056.1816	1094.8239	1114.8575	1136.7406	1140.727	1150.9911	1195.1668	1208.334	1225.0837	1265.3142	1284.4189	1295.3794	1345.6813	1370.6414	1385.9771	1400.8007	1416.5725	1439.9458	1489.1544	1499.5129	1527.1496	1698.4548	2871.6417	2946.9011	3003.4798	3030.3123	3050.0497	3055.4714	3067.4824	3109.5744	3154.0243	3176.4383
C1CC2C=CCOC2O1	C1C[C@@H]2C=CCO[C@H]2O1	
InChI=1S/C7H10O2/c1-2-6-3-5-9-7(6)8-4-1/h1-2,6-7H,3-5H2	InChI=1S/C7H10O2/c1-2-6-3-5-9-7(6)8-4-1/h1-2,6-7H,3-5H2/t6-,7-/m0/s1
