18
gdb 29444	3.1004	1.59269	1.06603	1.8602	85.56	-0.1781	0.0181	0.1961	1113.4333	0.150049	-364.862927	-364.855307	-364.854363	-364.894653	30.329	
C	-0.0200786769	 1.5238136202	 0.0106403691	-0.503226
C	-0.0072556875	 0.0279094499	 0.0142870804	 0.215148
C	-0.0251764929	-0.7920288034	-1.0592147247	-0.192871
C	-0.0029383644	-2.2621885415	-0.6536749849	-0.422285
C	 0.0305138345	-2.1241547416	 0.8356137442	 0.282394
C	 0.028161879	-0.8026769168	 1.2262555279	 0.257764
C	 0.0608509625	-0.7715319147	 2.648630321	-0.350535
C	 0.0822128379	-2.0876220778	 3.064396796	-0.069992
N	 0.0630294376	-2.9087082298	 1.9495020498	-0.372636
H	 0.8690654722	 1.9277227551	 0.5103561571	 0.126286
H	-0.0496965708	 1.9224672295	-1.0069592084	 0.119744
H	-0.8889451936	 1.9127783501	 0.5557687905	 0.126235
H	-0.052136011	-0.4769896668	-2.0946512956	 0.082775
H	-0.8874124122	-2.7984476064	-1.0246123456	 0.12112
H	 0.8725210386	-2.7831287764	-1.0655783607	 0.121126
H	 0.0685511805	 0.0883386701	 3.3010518512	 0.088249
H	 0.1091230443	-2.512449128	 4.0551603817	 0.11324
H	 0.0722323621	-3.9131888117	 1.9771383408	 0.257463
160.5786	178.727	200.5148	236.3997	285.8097	455.7907	482.2985	526.4769	580.5888	623.0198	645.6651	681.7476	722.0771	742.5592	761.1864	812.623	925.9433	932.1836	945.7755	1005.4954	1046.3003	1065.0924	1079.5731	1127.2059	1134.1615	1168.2851	1236.0485	1254.376	1302.4757	1376.874	1412.2314	1440.4452	1464.5588	1478.2017	1478.9581	1491.9371	1525.4448	1568.795	1656.7926	3013.3633	3020.8286	3038.1273	3068.0219	3111.0956	3211.4327	3242.196	3266.5135	3679.0314
CC1=CCC2=C1C=CN2	CC1=CCc2c1cc[nH]2	
InChI=1S/C8H9N/c1-6-2-3-8-7(6)4-5-9-8/h2,4-5,9H,3H2,1H3	InChI=1S/C8H9N/c1-6-2-3-8-7(6)4-5-9-8/h2,4-5,9H,3H2,1H3
