21
gdb 91759	2.42166	1.76173	1.53791	2.0255	75.96	-0.2496	0.0753	0.3249	1002.2058	0.185975	-424.248447	-424.24088	-424.239935	-424.280034	30.898	
C	-0.1159703868	 1.5600490247	-0.0173931037	-0.414071
C	 0.026236326	 0.0395484453	-0.0172473709	 0.008804
C	 0.7381109183	-0.6025072197	-1.2428739999	-0.273077
C	 1.6969142354	-1.6322237886	-0.5892021989	 0.091008
C	 3.1020022074	-1.0725652369	-0.338379011	-0.218938
C	 2.9764378945	 0.2266405408	 0.4726885117	-0.077391
O	 1.9979749432	 0.1412132328	 1.5093090637	-0.265084
C	 0.8239500438	-0.5658296282	 1.1623986013	 0.177088
O	 1.1258261298	-1.8680990255	 0.7107131967	-0.252714
H	 0.850208913	 2.0663069541	-0.0865654963	 0.126114
H	-0.7305809854	 1.8918593234	-0.8604334942	 0.114145
H	-0.6003993852	 1.9055756353	 0.9017940653	 0.119537
H	-0.9750342941	-0.3981296248	 0.0584178081	 0.084724
H	 0.0247838344	-1.0973422359	-1.9055165207	 0.104925
H	 1.2809011144	 0.1367364147	-1.8396786771	 0.100401
H	 1.7303736918	-2.5889212146	-1.1143487696	 0.077211
H	 3.6678931005	-1.8205546772	 0.2251276069	 0.112764
H	 3.6348723614	-0.8742717682	-1.2752993973	 0.095193
H	 3.9179910903	 0.4748324439	 0.9703447901	 0.11194
H	 2.7364079446	 1.060841015	-0.2021095363	 0.091758
H	 0.2526168528	-0.6451038507	 2.089387932	 0.085663
151.6067	202.1639	224.4419	258.5443	351.3161	358.3202	449.2785	478.7277	539.7594	612.9369	710.7675	767.5155	810.2214	833.1039	863.0992	908.3803	924.3474	956.4403	961.9629	979.1156	1017.9898	1042.0201	1059.0135	1094.5558	1130.0775	1135.7657	1171.3215	1212.7411	1230.3058	1270.7863	1281.6048	1292.9308	1328.2374	1340.8299	1353.2395	1368.4841	1379.301	1392.9096	1418.7394	1421.898	1471.7819	1492.972	1496.3474	1499.2748	1517.1455	2997.2554	3038.9279	3041.3613	3042.0259	3057.8349	3081.0646	3087.0098	3095.3163	3100.2518	3102.5798	3107.2467	3120.2915
CC1CC2CCOC1O2	C[C@H]1C[C@H]2CCO[C@@H]1O2	
InChI=1S/C7H12O2/c1-5-4-6-2-3-8-7(5)9-6/h5-7H,2-4H2,1H3	InChI=1S/C7H12O2/c1-5-4-6-2-3-8-7(5)9-6/h5-7H,2-4H2,1H3/t5-,6+,7+/m0/s1
