15
gdb 49359	1.86812	1.77328	1.36201	2.5839	75.35	-0.243	-0.0505	0.1924	1023.944	0.109809	-416.74004	-416.731136	-416.730192	-416.773911	31.609	
N	-0.2932511999	 1.0380970719	 0.4572587986	-0.426617
C	-0.2513950814	-0.1921615906	 0.1595805946	 0.086069
N	-1.3309759393	-0.8221209531	-0.4685233745	-0.062947
C	-1.9222223825	-2.0758654227	-0.0798185139	-0.124339
C	-1.5963901414	-2.7452712937	 1.2158315199	 0.149511
O	-0.9145396966	-2.2651836433	 2.0855244561	-0.24812
C	-2.7098639233	-0.750243256	-0.0478936726	-0.224221
C	-3.1135905204	-0.1627002344	 1.1973399508	 0.404017
C	-3.517031606	 0.3281033314	 2.2164906017	-0.44657
H	 0.6072818442	 1.3389211367	 0.8262123358	 0.229614
H	 0.6104843803	-0.8584495656	 0.2567324073	 0.108879
H	-2.1553736304	-2.7607121918	-0.8942720605	 0.117245
H	-2.0448864591	-3.757522518	 1.3180653446	 0.093264
H	-3.413943011	-0.6106132702	-0.8659567588	 0.135443
H	-3.8455548832	 0.7758295893	 3.1219171508	 0.208772
86.0122	113.6107	120.5295	147.7145	212.8717	252.9212	291.4945	354.8193	497.8896	528.4395	620.5462	639.5687	672.6636	736.3152	802.2364	835.6807	860.4287	875.3777	978.7033	1006.9732	1050.5	1081.7719	1089.3771	1134.6936	1228.5791	1355.605	1362.052	1404.8899	1418.1041	1434.951	1712.8086	1817.4432	2245.1008	2896.205	3080.944	3118.2968	3128.4746	3502.6845	3503.423
N=CN1C(C=O)C1C#C	[NH][CH]N1[C@@H](C=O)[C@H]1C#C	
InChI=1S/C6H6N2O/c1-2-5-6(3-9)8(5)4-7/h1,3-7H	InChI=1S/C6H6N2O/c1-2-5-6(3-9)8(5)4-7/h1,3-7H/t5-,6+,8?/m1/s1
