18
gdb 113345	2.60162	1.00621	0.83023	4.0935	73.78	-0.2806	0.0235	0.3041	1396.2597	0.146084	-439.070143	-439.060179	-439.059235	-439.105617	35.152	
O	-0.1426266289	 1.3394236683	-0.4853395956	-0.41443
C	-0.0138305309	 0.0661237415	 0.1278634877	-0.110354
C	-1.371583999	-0.5890797444	 0.0505803291	-0.026644
C	-1.8092781603	-1.3634297604	-1.1548212296	-0.297484
C	-1.5549476903	-2.1022681206	 0.1514344931	 0.110029
C	-0.381271145	-3.0773640878	 0.2582100705	-0.13482
O	-0.6930018011	-4.3502003872	-0.2660490138	-0.41197
C	-2.7073665718	-2.5639953551	 0.8863204411	 0.232695
N	-3.6027199828	-2.9853648985	 1.4871639828	-0.348942
H	 0.6820245923	 1.8186590795	-0.3600568809	 0.291721
H	 0.7442553143	-0.5444936731	-0.3847171454	 0.091068
H	 0.2940908271	 0.1594535422	 1.180985239	 0.100738
H	-2.144058069	-0.0074457885	 0.5443381891	 0.1205
H	-2.8316412096	-1.263590275	-1.497912881	 0.14083
H	-1.0805528401	-1.5411120298	-1.9386820638	 0.134704
H	 0.4576587331	-2.7060438733	-0.3345597955	 0.115513
H	-0.0512231377	-3.1404121218	 1.3058216077	 0.107532
H	-1.3885110903	-4.737157456	 0.2780614257	 0.299315
65.0361	78.2457	135.4188	141.89	152.8637	242.1715	254.5177	317.2194	324.5602	364.6708	425.5147	479.9694	574.8528	644.8873	697.7305	839.9612	889.5057	932.7331	947.8427	961.6187	1052.1522	1071.7402	1078.2444	1080.0657	1101.5752	1169.344	1189.23	1249.8993	1270.8149	1288.8996	1305.3271	1384.8754	1406.6741	1422.6369	1473.4797	1488.0281	1501.9118	1521.6748	2342.303	2976.2723	2996.0727	3007.5089	3105.1693	3142.9415	3163.003	3235.5356	3799.7366	3827.0088
OCC1CC1(CO)C#N	OC[C@H]1C[C@]1(CO)C#N	
InChI=1S/C6H9NO2/c7-3-6(4-9)1-5(6)2-8/h5,8-9H,1-2,4H2	InChI=1S/C6H9NO2/c7-3-6(4-9)1-5(6)2-8/h5,8-9H,1-2,4H2/t5-,6-/m1/s1
