16
gdb 68645	2.47449	2.11239	1.58469	2.2721	68.91	-0.2622	-0.0249	0.2373	889.3886	0.125053	-437.891393	-437.884288	-437.883343	-437.922588	28.474	
C	 0.0187650175	 1.5161527614	-0.0565619129	-0.492876
C	-0.0220611808	 0.0159212348	 0.0058086633	 0.224918
O	 0.6820658276	-0.6369049955	-1.0888845631	-0.250327
C	 0.4315379275	-1.9375915144	-0.6433219827	 0.116303
O	 1.0158183818	-1.9295792056	 0.7130695203	-0.270592
C	 0.7286285817	-0.6714177063	 1.162338456	 0.43948
N	 1.0066312224	-0.1654571967	 2.2819149173	-0.56336
C	-1.0858797223	-1.954850919	-0.4545481348	-0.08691
C	-1.3691856378	-0.7253450971	-0.0286294126	-0.126262
H	 1.0515724884	 1.8612702297	-0.140666868	 0.14373
H	-0.5537281523	 1.8842539794	-0.911633602	 0.128481
H	-0.401214736	 1.9283718239	 0.8641225681	 0.148775
H	 0.9316135434	-2.700134338	-1.2340384294	 0.107784
H	 1.5039717441	-0.8338930211	 2.8733142137	 0.227783
H	-1.7227922641	-2.8223742486	-0.5464452634	 0.12426
H	-2.3016004911	-0.3162260268	 0.3329131602	 0.128814
150.1994	172.1449	244.8002	311.3476	386.5764	438.9818	509.2795	612.4592	636.3427	680.5008	701.2856	751.9518	780.9748	828.5428	842.3821	870.8679	893.7573	906.2515	926.5191	943.2644	1005.1046	1053.7056	1126.4299	1149.4505	1165.1715	1239.5527	1267.745	1325.711	1327.6922	1364.655	1417.4594	1477.4358	1488.98	1637.3692	1795.6676	3056.7204	3134.9712	3138.7874	3173.0904	3231.8815	3257.0616	3468.6888
CC12OC(OC1=N)C=C2	C[C@@]12O[C@@H](O[C]1[NH])C=C2	
InChI=1S/C6H7NO2/c1-6-3-2-4(9-6)8-5(6)7/h2-4,7H,1H3	InChI=1S/C6H7NO2/c1-6-3-2-4(9-6)8-5(6)7/h2-4,7H,1H3/t4-,6+/m1/s1
