19
gdb 102934	2.8017	0.82846	0.67141	3.4609	79.51	-0.2758	0.0032	0.2791	1644.3156	0.155908	-423.018471	-423.00803	-423.007086	-423.055292	36.227	
C	-1.3569550808	-0.1613437421	 0.0189420354	-0.389626
C	 0.1662418622	-0.0328553393	-0.0318841418	-0.182643
C	 0.790337593	-0.6466938914	-1.305531687	-0.157001
C	 2.3055628794	-0.3866896244	-1.3949695045	-0.099667
O	 2.5492635072	 1.0187993305	-1.5019664212	-0.17946
C	 3.4010267523	 1.5941118093	-0.6301287194	 0.171858
O	 3.674075961	 2.7549556941	-0.6660346939	-0.271015
C	 0.5601808978	-2.0871154181	-1.3937676595	 0.320874
C	 0.4059854349	-3.278194023	-1.446939412	-0.465809
H	-1.8241384779	 0.3468208751	-0.8316874423	 0.119458
H	-1.6661449147	-1.2102865803	-0.0053533045	 0.132384
H	-1.7532998453	 0.288839528	 0.933618637	 0.118747
H	 0.449806814	 1.023940374	 0.0036276343	 0.119475
H	 0.6125829087	-0.5176152322	 0.8453427091	 0.102826
H	 0.3311105958	-0.1634486976	-2.1791158322	 0.123025
H	 2.8138692033	-0.7981267325	-0.513751975	 0.119917
H	 2.7182046343	-0.8667741986	-2.286561625	 0.133686
H	 3.8074719836	 0.8753456701	 0.1081795551	 0.080755
H	 0.2537109014	-4.3277633117	-1.5047249824	 0.202216
36.2827	64.534	98.853	126.6314	160.2304	195.1356	230.327	267.1495	305.7477	367.7892	437.0878	513.13	548.4985	637.6872	658.1512	684.5113	765.8807	827.0801	944.4697	982.1791	1033.5021	1044.5088	1046.4342	1088.3726	1126.6649	1130.6583	1192.8902	1275.1292	1284.2028	1329.8366	1347.8943	1369.6606	1399.0191	1414.8155	1433.205	1488.7859	1498.3297	1501.5161	1507.7344	1868.5273	2234.8971	2946.7716	3014.2558	3028.6505	3035.036	3038.8682	3080.2942	3096.1796	3106.8644	3118.7898	3502.1905
CCC(COC=O)C#C	CC[C@@H](COC=O)C#C	
InChI=1S/C7H10O2/c1-3-7(4-2)5-9-6-8/h1,6-7H,4-5H2,2H3	InChI=1S/C7H10O2/c1-3-7(4-2)5-9-6-8/h1,6-7H,4-5H2,2H3/t7-/m0/s1
