17
gdb 40982	4.06745	1.30422	1.29196	1.3861	76.5	-0.249	0.0013	0.2503	1041.8919	0.136801	-421.836029	-421.82879	-421.827846	-421.867888	28.229	
C	 0.0314703473	 1.6154141897	 0.0792540127	-0.133116
O	 1.381373215	 1.8299936406	-0.3148421308	-0.287145
C	 2.0002867963	 0.5997804712	-0.6872180921	 0.426772
O	 2.2084973735	 0.5307986275	-2.0968397092	-0.287145
C	 3.5911995417	 0.6526409459	-2.4080993419	-0.133116
C	 4.2946661519	 0.598881857	-1.0823892257	-0.10318
C	 3.39482354	 0.5421253397	-0.1099526311	-0.132848
C	 0.9980646059	-0.4518034885	-0.2736798395	-0.132848
C	-0.1251037283	 0.1228765303	 0.1347399441	-0.10318
H	-0.1352506699	 2.0973647486	 1.0528234516	 0.110695
H	-0.6638662774	 2.076110591	-0.6393637867	 0.112795
H	 3.8788350546	-0.171183913	-3.0762970093	 0.110695
H	 3.7904842796	 1.5944933139	-2.9422769008	 0.112795
H	 5.372105578	 0.6251299265	-0.9796559563	 0.11019
H	 3.5663593386	 0.5171105739	 0.9574474382	 0.109223
H	 1.208768627	-1.5075424473	-0.3757203143	 0.109223
H	-1.0382664137	-0.367850617	 0.4468930311	 0.11019
99.5734	113.172	214.2212	309.3255	412.5347	446.8638	501.501	513.5204	726.4195	756.1304	773.1284	788.1394	801.1694	847.6163	948.5863	952.3485	956.6869	960.1864	965.5386	1034.7166	1040.8218	1042.0308	1067.1861	1112.673	1133.008	1135.2209	1199.2306	1202.9324	1214.1479	1343.0559	1368.2823	1372.8933	1373.709	1511.3435	1511.7393	1687.4971	1692.8904	2987.6282	2988.7372	3020.0162	3020.1523	3211.1559	3211.4337	3239.4587	3240.0348
C1OC2(OCC=C2)C=C1	C1O[C@]2(OCC=C2)C=C1	
InChI=1S/C7H8O2/c1-3-7(8-5-1)4-2-6-9-7/h1-4H,5-6H2	InChI=1S/C7H8O2/c1-3-7(8-5-1)4-2-6-9-7/h1-4H,5-6H2
