19
gdb 49303	3.1407	1.17098	0.88346	3.937	88.08	-0.2296	-0.0564	0.1732	1305.8333	0.160772	-385.926174	-385.917971	-385.917027	-385.959492	31.132	
O	-0.1435728772	-0.0522343384	 0.0439172719	-0.27436
C	-0.0444107965	 1.1522887092	 0.0235443909	 0.103414
C	 1.2361696416	 1.9081097644	-0.0085074817	 0.181873
C	 1.1072775154	 3.2509611163	-0.0310181027	-0.139648
C	 2.179768522	 4.2955751568	-0.0550859462	-0.258739
C	 3.5025303372	 3.921510328	 0.6282706015	-0.211574
C	 4.3280394156	 2.8361655944	-0.0727133955	-0.256972
C	 3.7343709574	 1.4555236395	-0.0987005225	-0.07061
C	 2.4480422763	 1.0878690956	-0.0482533891	-0.117977
H	-0.9501175733	 1.8000994638	 0.0292023021	 0.068112
H	 0.086994927	 3.635059745	-0.03363855	 0.095679
H	 2.36972533	 4.5797937365	-1.101967964	 0.125401
H	 1.7814321192	 5.2034926271	 0.4146483391	 0.112432
H	 4.114994149	 4.8275573353	 0.6967617825	 0.100231
H	 3.2955588589	 3.6064448393	 1.6573955488	 0.112758
H	 4.5570354259	 3.150650261	-1.1024649346	 0.114612
H	 5.3048419689	 2.7742901707	 0.4239783849	 0.108625
H	 4.4649315069	 0.6512761175	-0.1651792741	 0.094582
H	 2.2242301558	 0.0248502381	-0.0644637714	 0.112163
49.7693	112.3667	230.383	245.916	292.8555	346.94	355.2648	393.3118	536.3829	569.3812	620.3846	738.3275	778.4834	792.0687	822.8154	872.0912	903.4331	925.7077	965.7945	1031.8491	1040.3558	1065.6828	1077.3907	1101.0187	1164.263	1177.0311	1261.6302	1281.9094	1285.5908	1362.3176	1376.8184	1392.8856	1396.6395	1432.7597	1459.4525	1461.4502	1471.7763	1489.3735	1684.7384	1713.1735	1797.9034	2873.0392	2991.2256	2997.4555	3028.3755	3039.5925	3049.2108	3076.5293	3123.2093	3139.0948	3175.4915
O=CC1=CCCCC=C1	O=CC1=CCCCC=C1	
InChI=1S/C8H10O/c9-7-8-5-3-1-2-4-6-8/h3,5-7H,1-2,4H2	InChI=1S/C8H10O/c9-7-8-5-3-1-2-4-6-8/h3,5-7H,1-2,4H2
