18
gdb 13299	4.92013	1.27834	1.12496	0.6754	78.04	-0.2377	0.0272	0.265	1078.1791	0.153974	-310.649979	-310.642164	-310.64122	-310.682343	29.742	
C	-0.2266964414	-1.0735978385	-0.346467361	-0.44582
C	-0.1034978668	 0.1172230588	-0.2331541887	 0.299823
C	 0.0727841466	 1.5567223436	-0.0845629269	-0.359948
C	 1.5367297537	 1.9791360405	 0.187974332	 0.016661
C	 2.4589256539	 1.6422019403	-1.017856061	-0.259315
C	 2.5882274247	 2.9608167581	-1.7413934069	-0.054277
C	 2.1406786551	 3.9793929088	-1.0095633069	-0.056748
C	 1.6302663538	 3.5249032696	 0.3373820846	-0.272377
H	-0.3480174617	-2.1233323231	-0.4484660291	 0.192529
H	-0.2793544352	 2.0665329387	-0.9915154729	 0.133404
H	-0.5623737386	 1.9151104724	 0.7354448999	 0.126025
H	 1.8701527247	 1.4696248762	 1.0954084694	 0.080454
H	 3.4429784372	 1.2848744725	-0.6845005732	 0.104173
H	 2.0417877299	 0.8418641801	-1.6392376703	 0.114365
H	 3.026618128	 3.0441089151	-2.7299015018	 0.089959
H	 2.1578996696	 5.0224884688	-1.3057908247	 0.089804
H	 0.664880378	 3.9737216989	 0.6037571113	 0.097788
H	 2.3284176185	 3.8112685191	 1.136068846	 0.1035
72.417	107.6894	147.6998	315.1289	348.1967	364.233	400.0202	507.8263	613.5337	635.4778	686.9798	728.5855	778.9553	836.319	888.2394	905.3876	937.2534	969.2788	976.97	982.1017	1004.1987	1070.3377	1076.9372	1130.926	1172.2797	1186.9239	1232.9296	1264.8226	1306.8468	1319.0093	1333.7313	1368.7145	1380.4513	1470.9567	1487.733	1495.3048	1686.7677	2235.0837	3008.8477	3012.6134	3016.0714	3039.8768	3048.2816	3061.09	3079.6798	3180.7523	3206.448	3506.7594
C#CCC1CC=CC1	C#CC[C@H]1CC=CC1	
InChI=1S/C8H10/c1-2-5-8-6-3-4-7-8/h1,3-4,8H,5-7H2	InChI=1S/C8H10/c1-2-5-8-6-3-4-7-8/h1,3-4,8H,5-7H2
