18
gdb 111745	2.35433	1.30157	1.02166	4.2004	74.08	-0.2418	-0.0307	0.2111	1209.9123	0.146519	-439.035366	-439.026453	-439.025509	-439.06969	32.292	
O	 0.1473192347	 0.7849472695	 0.9295860853	-0.415872
C	-0.0880803476	 0.2355583081	-0.3571287609	-0.117498
C	-1.390884142	-0.5253794744	-0.2558875811	-0.021893
N	-1.9474643793	-1.4053981921	-1.2774184444	-0.20062
C	-0.8153784064	-2.2136351342	-1.8771964667	-0.150701
C	-0.3997485619	-2.8162074942	-0.5146475766	-0.330236
C	-1.5005688321	-1.966313372	 0.106175173	 0.253723
C	-2.5079334166	-2.4575819734	 1.0643247078	 0.076556
O	-2.3986847525	-3.4872903248	 1.6856481524	-0.263048
H	 0.9354020884	 1.3341841361	 0.883612502	 0.293265
H	-0.2027281823	 1.022755338	-1.1196345224	 0.102398
H	 0.7404273346	-0.4113252197	-0.6724321691	 0.09563
H	-2.1748957713	 0.0981397856	 0.1717112623	 0.112414
H	-1.239432553	-2.9440108165	-2.5673244461	 0.123304
H	-0.0787228046	-1.6097327027	-2.4146473822	 0.111251
H	-0.6154286498	-3.8812827721	-0.4282671156	 0.137113
H	 0.6167465121	-2.633886361	-0.1570426393	 0.11448
H	-3.4002242503	-1.8003165203	 1.1658085215	 0.079734
48.7498	88.7173	178.9507	200.3101	229.0114	244.7529	279.959	366.701	440.9032	489.4463	538.4643	710.972	721.9386	790.4972	793.8606	872.6024	966.2163	971.3245	994.4731	1023.992	1063.1847	1080.4274	1115.4836	1128.7686	1179.2104	1214.9309	1237.6259	1245.7524	1258.9975	1284.152	1304.7236	1345.6146	1406.5287	1431.6365	1483.2987	1489.5862	1513.3062	1525.0028	1805.9488	2886.5092	2976.2632	3032.5134	3062.2788	3072.0096	3119.4919	3126.6016	3140.5072	3832.345
OCC1N2CCC12C=O	OC[C@H]1N2CC[C@@]12C=O	
InChI=1S/C6H9NO2/c8-3-5-6(4-9)1-2-7(5)6/h4-5,8H,1-3H2	InChI=1S/C6H9NO2/c8-3-5-6(4-9)1-2-7(5)6/h4-5,8H,1-3H2/t5-,6-,7?/m1/s1
