22
gdb 60925	2.25297	1.24692	0.95505	2.7847	83.34	-0.2285	-0.0205	0.208	1333.9357	0.19066	-404.331662	-404.320883	-404.319939	-404.367969	38.455	
C	-4.3871086488	 2.9669656885	-0.2803365874	-0.405057
C	-3.5029118002	 2.2631966076	 0.7628966429	-0.03106
C	-4.2152108744	 2.3315963096	 2.1090407425	 0.171115
O	-3.9798880313	 3.1425721251	 2.9662925849	-0.25629
N	-3.3655586874	 0.8557324698	 0.4124033871	-0.118699
C	-2.3396737743	 0.3937987238	-0.532098409	-0.004843
C	-1.3610331878	 1.31158834	-1.2345221805	-0.416894
C	-2.2421024739	 0.0551690156	 0.9229701805	-0.006294
C	-1.1676806978	 0.6057685818	 1.8376704536	-0.419962
H	-4.5363299886	 4.0162371353	-0.0110508855	 0.130833
H	-3.9167003365	 2.9247642598	-1.2663449679	 0.126422
H	-5.360975794	 2.4730046782	-0.3501130723	 0.130552
H	-2.5618888855	 2.8187357601	 0.8707281126	 0.078586
H	-5.0098727368	 1.5601414178	 2.2260465333	 0.084584
H	-2.7158149328	-0.3910938754	-1.1889262641	 0.088841
H	-0.9919017459	 2.12074282	-0.6021818757	 0.124358
H	-0.4939716232	 0.7347941477	-1.5744592609	 0.124957
H	-1.818929594	 1.7627596856	-2.1210959923	 0.126026
H	-2.5580178476	-0.9479087507	 1.2103790033	 0.089043
H	-0.7562051223	 1.5602399277	 1.5056459185	 0.124325
H	-1.5547335992	 0.7468160502	 2.8526431474	 0.135653
H	-0.3388964579	-0.1075116283	 1.898611899	 0.123803
50.2754	58.0991	135.2383	156.9766	176.1054	188.8474	217.5241	263.0585	279.8005	291.2349	377.5039	467.1977	488.0132	534.5949	571.4142	747.9407	777.4528	825.2223	895.2492	931.5128	961.3228	1013.5035	1022.0389	1056.998	1083.9968	1107.1426	1133.6804	1158.8352	1164.452	1188.8371	1201.3156	1298.7323	1330.7489	1350.5718	1381.894	1393.1199	1406.8711	1416.7775	1423.3025	1439.4355	1485.6178	1486.8139	1492.4457	1498.0188	1500.7919	1514.1791	1836.2719	2881.9423	3013.8044	3038.4645	3042.1084	3043.7791	3087.2716	3093.7438	3096.2349	3098.4964	3119.5635	3125.0588	3128.3626	3140.0932
CC(C=O)N1C(C)C1C	C[C@@H](C=O)N1[C@@H](C)[C@H]1C	
InChI=1S/C7H13NO/c1-5(4-9)8-6(2)7(8)3/h4-7H,1-3H3	InChI=1S/C7H13NO/c1-5(4-9)8-6(2)7(8)3/h4-7H,1-3H3/t5-,6-,7+,8?/m0/s1
