14
gdb 123651	4.04475	1.60642	1.25119	5.3819	66.54	-0.2703	-0.0417	0.2286	932.6238	0.103822	-432.798886	-432.792878	-432.791934	-432.829235	24.184	
C	-0.0596677778	 1.5227313718	 0.0165582544	-0.348833
C	 1.4339830458	 1.9042361035	-0.0443373152	-0.032342
N	 2.1897501179	 1.4907321419	 1.1450085637	-0.319654
C	 2.3049714486	 0.6768831229	-0.0941203085	-0.213845
C	 1.3546781349	-0.4540166998	-0.0493772886	 0.40919
N	 1.3630092366	-1.7494210117	-0.0746184465	-0.220925
O	 0.0257587418	-2.0984477221	 0.0225976398	-0.162081
N	-0.7957836	-0.9851284619	 0.1049679473	-0.197721
C	 0.018499146	 0.0215146122	 0.054002909	 0.327111
H	-0.5442173286	 1.9465703401	 0.9002990177	 0.150798
H	-0.5976199602	 1.8760209138	-0.8689864027	 0.138117
H	 1.722588658	 2.812518467	-0.5618648752	 0.106283
H	 3.0238742937	 2.0660274376	 1.2399656507	 0.244456
H	 3.2420402232	 0.6319784947	-0.6338157759	 0.119447
165.0542	245.4361	368.8448	446.5891	454.7953	610.9364	616.8049	706.0259	750.2307	788.9689	817.7917	826.4699	849.0061	882.7934	891.9278	937.1698	991.8929	1055.6369	1059.254	1131.3345	1141.4651	1191.8281	1192.9925	1226.5158	1302.1018	1355.2487	1394.0315	1410.8373	1464.7656	1576.8729	1673.7333	3060.2748	3106.086	3175.0538	3203.993	3499.9557
C1C2NC2C2=NON=C12	C1[C@H]2N[C@H]2c2nonc12	
InChI=1S/C5H5N3O/c1-2-4(6-2)5-3(1)7-9-8-5/h2,4,6H,1H2	InChI=1S/C5H5N3O/c1-2-4(6-2)5-3(1)7-9-8-5/h2,4,6H,1H2/t2-,4-/m1/s1
