17
gdb 106612	2.62456	1.56123	1.32111	2.5831	67.62	-0.235	-0.0291	0.2059	1010.3841	0.136255	-458.939208	-458.931335	-458.930391	-458.971773	29.949	
O	 0.0185409861	 1.3916906349	-0.2189169087	-0.41991
C	 0.0309419928	 0.0190205396	 0.1393846452	-0.189906
C	-1.3694135973	-0.547748006	 0.1059143887	 0.136589
C	-1.7681385347	-2.0693533837	 0.0436184075	-0.315081
C	-3.1130447646	-1.5022358876	-0.5022487591	-0.015757
O	-3.6221818314	-0.7454762338	 0.6035374056	-0.280549
C	-2.4410932287	-0.0386987177	 1.0843543028	-0.109229
C	-2.2020048134	-0.4672637791	-1.1965343661	 0.427544
O	-2.0479014377	 0.0501496972	-2.2641655656	-0.340618
H	-0.318474545	 1.4420962584	-1.1220908693	 0.300043
H	 0.680690415	-0.568396073	-0.5277085275	 0.099042
H	 0.4618433484	-0.0369734394	 1.1452851705	 0.115095
H	-1.1949178435	-2.6408287717	-0.6895107112	 0.124141
H	-1.8419899238	-2.5943375365	 0.998064175	 0.123706
H	-3.8987081648	-2.0891282355	-0.9697846513	 0.105482
H	-2.2442397277	-0.3190026843	 2.1256606018	 0.10986
H	-2.5925317798	 1.042791628	 1.0212244517	 0.129548
81.4242	142.1939	171.8631	237.5276	301.7028	399.9359	451.2119	472.5849	480.8393	604.77	670.687	752.1794	786.399	837.8683	875.8888	906.196	937.3282	966.3683	1002.053	1028.5745	1052.7924	1060.949	1112.1949	1144.4302	1172.3765	1182.9133	1207.185	1254.3169	1272.4115	1301.2493	1377.3444	1388.463	1432.4416	1475.3757	1505.5316	1532.0707	1889.9657	2985.5514	3030.6971	3063.6605	3071.9903	3088.8785	3143.1754	3171.9834	3783.3478
OCC12CC(OC1)C2=O	OC[C@@]12C[C@@H](OC1)C2=O	
InChI=1S/C6H8O3/c7-2-6-1-4(5(6)8)9-3-6/h4,7H,1-3H2	InChI=1S/C6H8O3/c7-2-6-1-4(5(6)8)9-3-6/h4,7H,1-3H2/t4-,6+/m1/s1
