15
gdb 48320	2.80071	1.5429	1.16337	3.6006	71.79	-0.2727	-0.0655	0.2072	1034.4335	0.111891	-416.769325	-416.76144	-416.760495	-416.801798	29.045	
O	-0.4882714784	 0.440869006	 0.6654069808	-0.260234
C	 0.0721479959	 1.0654416579	-0.1998721795	 0.099462
C	 1.2880174601	 1.932424307	-0.0096238624	 0.058453
C	 1.7797798543	 2.4736705691	-1.2588040902	 0.255905
N	 2.1216466154	 2.9045659497	-2.2752427004	-0.323691
C	 1.5096769787	 2.8185435573	 1.1984662318	-0.046596
C	 0.9572605448	 2.2279780799	 2.4911008195	-0.264174
C	 1.8762444585	 1.0152039744	 2.1950850588	-0.157495
N	 2.4263745323	 1.6766188995	 0.9457338042	-0.158566
H	-0.2880386384	 1.0543593775	-1.2489995148	 0.118197
H	 1.8075870335	 3.8480197115	 1.023674699	 0.129986
H	 1.2663315153	 2.8050363542	 3.3642371559	 0.126736
H	-0.1156618636	 2.0431640093	 2.5325037725	 0.142982
H	 2.7082557317	 0.9103289678	 2.8929200161	 0.130655
H	 1.4012865	 0.0508851587	 2.0292844787	 0.148382
111.7192	153.2799	158.9217	221.315	245.968	356.593	372.1304	505.7136	538.6196	557.199	683.4364	729.0302	785.4148	844.2737	892.0697	935.2178	963.3805	991.1906	1028.085	1045.1612	1097.5096	1143.5032	1205.4635	1211.2467	1261.9179	1271.5405	1286.9321	1348.4025	1440.4938	1472.2041	1493.5387	1807.6757	2360.4943	2926.4741	3088.9904	3096.0148	3147.1623	3164.8592	3171.2959
O=CC1(C#N)C2CCN12	O=C[C@@]1(C#N)[C@H]2CCN12	
InChI=1S/C6H6N2O/c7-3-6(4-9)5-1-2-8(5)6/h4-5H,1-2H2	InChI=1S/C6H6N2O/c7-3-6(4-9)5-1-2-8(5)6/h4-5H,1-2H2/t5-,6+,8?/m1/s1
