22
gdb 89252	2.3877	1.74068	1.27793	1.6585	85.03	-0.2172	0.0731	0.2903	1100.4302	0.19454	-367.145855	-367.137358	-367.136413	-367.178221	34.199	
C	-0.111428368	 1.6247422833	-0.0224176967	-0.422317
C	 0.0647783049	 0.1108974496	 0.0091016747	 0.044285
C	 1.0247333884	-0.6368679963	-0.9823182441	-0.342755
C	 1.5652745262	-1.4952920847	 0.2098390258	 0.371924
C	 1.4401494728	-2.9993757193	 0.1241464793	-0.499835
C	 2.8194072956	-0.9606530319	 0.9327465909	-0.080971
C	 2.9240845614	 0.5044483106	 0.9468245334	-0.250937
N	 1.988809552	-0.1214612118	 1.9053441698	-0.15656
C	 0.7422328646	-0.6313094908	 1.1977894738	-0.041943
H	 0.826775389	 2.1714234418	 0.095823504	 0.123205
H	-0.5616137313	 1.938971262	-0.9707497806	 0.115094
H	-0.7783751553	 1.9495089833	 0.7836407824	 0.120947
H	-0.9307669575	-0.3384690077	-0.0905705573	 0.079277
H	 0.5078843753	-1.2182722685	-1.7506755412	 0.095784
H	 1.7724304361	-0.0135904363	-1.4800169494	 0.098852
H	 2.1429705167	-3.4133717428	-0.6097005504	 0.117201
H	 1.6529695998	-3.4701384296	 1.0905319275	 0.121492
H	 0.4310113757	-3.2975952142	-0.1800412893	 0.114453
H	 3.618954851	-1.6026479806	 1.294696348	 0.087965
H	 3.7824160641	 0.9329822686	 1.4576589243	 0.118934
H	 2.569302477	 1.1010078942	 0.1162785107	 0.11338
H	 0.0810730215	-1.0678453888	 1.9490913144	 0.072526
159.2154	171.6894	206.7595	223.4339	234.5451	292.1137	334.2628	407.7925	465.7226	524.4118	614.3291	643.7992	707.7126	730.6484	816.6751	855.1953	878.2349	899.6385	926.4469	944.9087	952.5221	990.8341	1016.5154	1052.7614	1083.7187	1112.5489	1127.2033	1131.38	1167.0206	1178.0393	1194.6875	1222.161	1227.4997	1255.3911	1277.8021	1287.8541	1322.1904	1370.8943	1385.908	1412.9986	1414.4421	1484.4808	1492.3096	1494.0978	1495.2394	1498.5793	1517.6832	3018.2444	3022.238	3035.3502	3053.696	3080.4382	3084.6904	3092.4748	3093.0283	3103.4032	3119.4123	3127.0689	3137.1169	3221.8774
CC1CC2(C)C3CN3C12	C[C@H]1C[C@@]2(C)[C@H]3CN3[C@@H]12	
InChI=1S/C8H13N/c1-5-3-8(2)6-4-9(6)7(5)8/h5-7H,3-4H2,1-2H3	InChI=1S/C8H13N/c1-5-3-8(2)6-4-9(6)7(5)8/h5-7H,3-4H2,1-2H3/t5-,6+,7-,8-,9?/m0/s1
