17
gdb 24285	3.95472	1.5295	1.19726	1.6781	78.96	-0.198	0.044	0.2419	1011.2561	0.140561	-380.881586	-380.875027	-380.874083	-380.91223	27.386	
C	-0.0422158179	 1.5373679267	-0.0047768768	-0.36739
C	 1.4463455528	 1.9219328811	-0.0347277855	-0.018074
N	 2.2001934389	 1.5123502901	 1.1674681052	-0.332933
C	 2.2970287373	 0.6908146992	-0.0773594343	-0.249045
C	 1.3536734689	-0.4486758329	-0.0613479791	 0.349376
C	 1.320423593	-1.8193523099	-0.0598109918	-0.255912
N	-0.0072779772	-2.1798875478	 0.0225865213	-0.240241
C	-0.8147695656	-1.0609841489	 0.0773177223	-0.234303
C	 0.013889335	 0.0291651199	 0.0191250772	 0.251905
H	-0.5390714243	 1.9677885558	 0.871812988	 0.117037
H	-0.5545990244	 1.9254849908	-0.8941057072	 0.102271
H	 1.7430418344	 2.8339562578	-0.5429405342	 0.081037
H	 3.0334790446	 2.0948298661	 1.2359564545	 0.222853
H	 3.2424362974	 0.6588928087	-0.6080538259	 0.082502
H	 2.0952736554	-2.5676538059	-0.1022008119	 0.11752
H	-0.3430393989	-3.1267560775	 0.0236119639	 0.257282
H	-1.8867913096	-1.1599892834	 0.1384487245	 0.116114
155.8202	229.6805	352.2401	429.2501	431.9595	461.6223	607.5783	625.6474	681.2577	693.714	720.2734	755.3025	779.047	810.6422	848.1078	887.4273	934.4207	939.2993	993.4784	1047.9401	1067.7292	1089.3983	1127.4578	1158.7602	1184.7048	1190.6546	1212.0367	1249.0101	1308.278	1311.9809	1352.2869	1387.6724	1429.0162	1463.2727	1477.2847	1569.6031	1642.765	3024.995	3064.6035	3156.3933	3169.9062	3257.3714	3261.0672	3472.4178	3685.7917
C1C2NC2C2=CNC=C12	C1[C@H]2N[C@H]2c2c[nH]cc12	
InChI=1S/C7H8N2/c1-4-2-8-3-5(4)7-6(1)9-7/h2-3,6-9H,1H2	InChI=1S/C7H8N2/c1-4-2-8-3-5(4)7-6(1)9-7/h2-3,6-9H,1H2/t6-,7+/m1/s1
