18
gdb 90845	3.127	1.89294	1.45235	1.5403	75.08	-0.2144	0.0682	0.2826	918.8201	0.14944	-401.831927	-401.825244	-401.8243	-401.862653	27.936	
O	 0.0619519902	 1.3840878438	-0.0989965341	-0.438951
C	-0.042147283	-0.0268292933	-0.0033831941	-0.057536
C	 0.3517875276	-0.6052093586	 1.4340143118	-0.199266
N	-0.9083722129	-1.1642092563	 2.0259040506	-0.166931
C	-1.5448158917	-1.8156694766	 0.8197683841	-0.021599
C	-2.9712426364	-1.2324042073	 0.9868662722	-0.101429
C	-2.9317456509	-0.5900402304	-0.4426684667	-0.364845
C	-1.4815434711	-0.4517936295	 0.081289639	 0.345562
C	-1.9602313439	-0.1955346864	 1.5404475868	-0.005227
H	 0.9949261345	 1.6177883962	-0.074041667	 0.284825
H	 0.5225040211	-0.5174208802	-0.8080491538	 0.068793
H	 1.1038649743	-1.3979301999	 1.3718386386	 0.101037
H	 0.7374518246	 0.2031564029	 2.0629512746	 0.102989
H	-1.2408661793	-2.7940388872	 0.4408888507	 0.075029
H	-3.8195393888	-1.6813468519	 1.5027336344	 0.081919
H	-3.092349647	-1.2665511289	-1.2871162251	 0.100994
H	-3.495949222	 0.3362252783	-0.5787521717	 0.109435
H	-2.1481599652	 0.7700584951	 2.0107622996	 0.0852
150.4497	247.4036	272.0804	367.5034	412.5444	478.9201	511.0069	675.9721	753.3354	771.3837	796.0579	835.4218	855.1057	860.1144	890.064	896.5618	928.9271	971.621	991.4505	1008.3003	1031.9056	1065.9403	1092.7893	1117.4997	1120.9616	1143.1686	1163.5367	1182.9978	1199.2936	1213.1949	1235.7641	1244.8587	1270.7077	1290.2729	1326.7727	1330.5013	1436.8237	1480.0171	1508.6519	3005.9098	3048.178	3051.3289	3088.7601	3103.0651	3110.6766	3112.8603	3124.3521	3821.5798
OC1CN2C3C4CC13C24	O[C@H]1CN2[C@H]3[C@@H]4C[C@]13[C@H]24	
InChI=1S/C7H9NO/c9-4-2-8-5-3-1-7(4,5)6(3)8/h3-6,9H,1-2H2	InChI=1S/C7H9NO/c9-4-2-8-5-3-1-7(4,5)6(3)8/h3-6,9H,1-2H2/t3-,4-,5-,6+,7-/m0/s1
