19
gdb 92092	2.59891	1.57501	1.29732	2.7466	69.67	-0.254	0.0769	0.331	1032.9899	0.161336	-460.159945	-460.152222	-460.151278	-460.191854	31.258	
O	 0.1015669711	 1.3809877754	 0.1139051965	-0.458723
C	 0.0189910025	-0.0406694066	 0.0379923678	 0.077777
C	-1.4275208575	-0.5526353531	 0.0636960658	-0.281588
C	-2.1571042588	-0.2717679123	-1.229069694	 0.055849
O	-1.9825701322	 1.0556398468	-1.7616136186	-0.269704
C	-1.4097830665	-0.059848506	-2.4803975953	 0.039373
C	 0.1044830159	-0.109443797	-2.5261882936	-0.263053
C	 0.7809213053	-0.5368145881	-1.201657386	 0.130486
O	 2.1191252205	-0.0810258384	-1.154850981	-0.446332
H	-0.5542871646	 1.720572215	-0.5142088306	 0.294033
H	 0.5503896069	-0.4112556875	 0.9208846292	 0.092033
H	-1.4331247669	-1.6354962413	 0.2421961139	 0.112253
H	-1.9602749899	-0.0874890434	 0.9010857249	 0.12142
H	-3.1830477386	-0.6347670771	-1.2922541492	 0.098127
H	-1.9243172132	-0.2546441272	-3.420701569	 0.099639
H	 0.4238574793	-0.7841584145	-3.3264400416	 0.113213
H	 0.4720516223	 0.8854399808	-2.8034218316	 0.119765
H	 0.8256662631	-1.6324741538	-1.1603904718	 0.081231
H	 2.0590228213	 0.8346728783	-0.8473903058	 0.284201
105.8927	197.5865	251.4548	328.9083	352.3865	371.3242	395.9212	474.5187	491.6025	586.2861	614.8502	666.0456	735.5711	764.4674	812.1783	871.925	882.4963	922.7742	952.2239	1015.4304	1045.0961	1049.1954	1075.1797	1098.0355	1136.9394	1169.88	1210.7974	1244.0593	1256.3195	1276.6254	1302.2937	1337.5698	1350.247	1368.6392	1380.9541	1398.9078	1443.6835	1458.1723	1466.115	1473.7654	1484.1093	3027.3487	3031.1327	3044.5631	3059.948	3072.326	3087.6909	3107.9979	3121.6567	3701.1409	3744.1522
OC1CC2OC2CC1O	O[C@H]1C[C@H]2O[C@H]2C[C@H]1O	
InChI=1S/C6H10O3/c7-3-1-5-6(9-5)2-4(3)8/h3-8H,1-2H2	InChI=1S/C6H10O3/c7-3-1-5-6(9-5)2-4(3)8/h3-8H,1-2H2/t3-,4+,5+,6-
