17
gdb 49310	3.30153	1.18355	0.90227	3.3065	73.74	-0.2539	-0.0621	0.1917	1236.2723	0.136239	-458.966233	-458.958158	-458.957214	-458.999519	29.542	
O	-0.0793042428	 0.0097173682	-0.2657445745	-0.276213
C	 0.0646196671	 1.2107034323	-0.2548873482	 0.114341
C	 1.3163319995	 1.9012079963	 0.1297265592	 0.166121
C	 1.3151996826	 3.2400733418	 0.0523573759	-0.132071
C	 2.4308433492	 4.2150676854	 0.298626117	-0.14781
O	 3.4236374546	 3.8485148086	 1.2285117444	-0.219628
C	 4.1118946206	 2.6547822649	 0.9655799196	 0.012732
O	 3.424414544	 1.5179894134	 1.394050597	-0.218559
C	 2.4718410597	 0.9963434585	 0.4907766938	-0.185394
H	-0.7640679577	 1.894405224	-0.5469795161	 0.07504
H	 0.392440871	 3.7114418749	-0.2898747182	 0.106943
H	 2.8873820663	 4.4507279479	-0.6827309724	 0.116509
H	 2.0113478242	 5.1544090762	 0.6736747464	 0.132694
H	 4.3609193161	 2.5797155601	-0.1095072047	 0.074546
H	 5.0265037019	 2.7040995125	 1.5605114553	 0.12185
H	 2.0736108992	 0.0887128566	 0.9493603489	 0.145624
H	 2.9678348146	 0.6819661885	-0.4445322235	 0.113277
58.0386	118.3309	191.9585	216.47	295.0331	345.8855	376.2232	423.7458	475.2399	545.9185	641.8186	723.8912	825.4165	831.6489	936.1221	974.733	993.716	1019.9875	1039.8228	1058.1546	1102.8125	1155.8399	1198.7494	1226.7223	1264.7102	1306.3007	1344.8003	1364.6004	1403.7418	1410.9184	1435.3058	1447.0039	1470.3043	1480.1772	1500.8313	1715.3477	1790.9743	2876.2893	2920.1222	2932.2704	2955.2459	3071.078	3107.5781	3111.2331	3116.8278
O=CC1=CCOCOC1	O=CC1=CCOCOC1	
InChI=1S/C6H8O3/c7-3-6-1-2-8-5-9-4-6/h1,3H,2,4-5H2	InChI=1S/C6H8O3/c7-3-6-1-2-8-5-9-4-6/h1,3H,2,4-5H2
