16
gdb 31110	3.837	0.86568	0.70917	2.8671	74.88	-0.2258	-0.0549	0.1708	1553.3212	0.121365	-471.256713	-471.246129	-471.245185	-471.293028	36.636	
N	 0.6746031032	 1.4775805537	 0.6020768175	-0.580026
C	 0.1306247604	 0.2682276522	 0.3459791227	 0.48423
N	-0.8246442066	-0.3133831161	 0.9822029612	-0.393313
C	-1.0474594062	-1.507950846	 0.2807361037	 0.204452
C	-1.9469191977	-2.4604274012	 0.549864481	-0.425972
N	-1.6663254141	-4.9736273162	-1.7764678109	-0.725915
H	-1.154172159	-5.845348505	-1.6728301821	 0.232141
H	-2.2368012468	-5.0811798844	-2.6106969317	 0.232354
H	-0.974847469	-4.2571034621	-1.9911852634	 0.268781
C	-0.0848438047	-1.5626711907	-0.8582638576	 0.388153
O	 0.1371226316	-2.3485168743	-1.7303556719	-0.321703
O	 0.6504622339	-0.3697693456	-0.7516549476	-0.235922
H	 1.577416951	 1.6798548762	 0.2061771464	 0.278842
H	 0.4570922379	 1.8827215191	 1.4978535259	 0.281929
H	-2.0231354403	-3.3502130211	-0.0691116654	 0.18462
H	-2.6133489736	-2.3483455483	 1.3972054921	 0.127348
38.1566	98.1628	113.9888	138.4512	157.9828	190.388	204.8454	302.4515	333.6854	343.9242	376.8657	424.0396	475.4874	586.5795	653.7224	663.1554	733.0347	774.4632	812.6039	824.9993	930.7985	988.2308	991.9736	1058.6378	1115.6507	1150.4021	1277.8906	1426.5857	1451.9326	1606.4135	1674.4988	1683.0149	1700.0151	1754.5922	1886.8656	3134.7879	3245.301	3455.6095	3570.3379	3583.7633	3607.6844	3731.0473	38.1568	98.1628	113.9888	138.4518	157.9831	190.388	204.8458	302.4516	333.6855	343.9243	376.8655	424.0398	475.4873	586.5795	653.7224	663.1554	733.0349	774.4633	812.6039	824.9994	930.7987	988.2309	991.9734	1058.6379	1115.6508	1150.4023	1277.8909	1426.5859	1451.9322	1606.4141	1674.4987	1683.015	1700.0151	1754.5923	1886.8655	3134.7879	3245.301	3455.6095	3570.3379	3583.7633	3607.6843	3731.0472
NC1=NC(C[NH3+])=C([O-])O1	NC1=NC(=C)C(=O)O1.N	
InChI=1S/C4H7N3O2/c5-1-2-3(8)9-4(6)7-2/h8H,1,5H2,(H2,6,7)	InChI=1S/C4H4N2O2.H3N/c1-2-3(7)8-4(5)6-2;/h1H2,(H2,5,6);1H3
