19
gdb 34022	3.05653	1.32559	1.14118	1.1392	81.89	-0.2388	0.0503	0.2891	1133.897	0.159692	-385.847922	-385.839761	-385.838816	-385.880319	32.413	
C	 0.0288536026	-1.1638825662	 0.0453321498	-0.423361
C	 0.0074938924	 0.0386507101	 0.0036415153	 0.250389
C	-0.029620979	 1.475301745	-0.0364159993	 0.081949
C	 0.5175299936	 2.1346651851	-1.3024549244	-0.334302
C	 1.3181512888	 2.1995337599	-0.0356521817	 0.077978
O	 1.4562877957	 3.4365565704	 0.5944546558	-0.259822
C	 0.5252380795	 3.6984763555	 1.637705981	-0.061192
C	-0.9087691387	 3.5683562664	 1.1344947231	-0.23033
C	-1.1900472403	 2.1123676801	 0.7339430923	-0.276081
H	 0.0506511756	-2.2247440469	 0.0791649096	 0.188793
H	 0.8458331958	 1.4812923025	-2.1019589003	 0.122902
H	 0.0499147297	 3.0601457988	-1.6205467375	 0.120592
H	 2.2088169502	 1.5817873398	 0.0459709766	 0.106123
H	 0.6931981437	 3.0159131015	 2.4867226148	 0.093214
H	 0.7449630461	 4.7159059738	 1.9718488027	 0.10961
H	-1.6133932541	 3.8787824353	 1.9134466842	 0.101123
H	-1.0453981019	 4.2496225724	 0.2867420237	 0.108726
H	-2.1155813919	 2.0315847662	 0.1536437855	 0.109726
H	-1.3389296178	 1.5220031203	 1.6451233289	 0.113964
112.5322	142.9047	167.8587	269.8237	329.5049	401.4579	423.0246	483.1518	508.9315	549.1186	567.5947	585.8659	643.3197	681.4943	788.029	861.6249	878.6079	910.2434	930.7798	951.2144	980.7317	1039.3397	1053.7172	1063.7537	1112.5622	1118.4398	1186.7173	1198.6289	1252.0659	1259.0636	1291.7963	1313.1739	1353.7108	1373.714	1397.91	1419.6703	1465.3558	1482.3137	1496.3534	1506.1417	2231.8712	2976.1891	3034.9098	3039.7244	3070.2284	3086.486	3093.1897	3136.5549	3139.6325	3232.1436	3503.5901
C#CC12CC1OCCC2	C#C[C@]12C[C@H]1OCCC2	
InChI=1S/C8H10O/c1-2-8-4-3-5-9-7(8)6-8/h1,7H,3-6H2	InChI=1S/C8H10O/c1-2-8-4-3-5-9-7(8)6-8/h1,7H,3-6H2/t7-,8+/m1/s1
