16
gdb 42424	3.8601	0.98381	0.90221	12.9644	74.76	-0.2063	-0.0107	0.1956	1285.4783	0.12613	-434.016751	-434.008559	-434.007615	-434.050254	29.631	
O	 0.0673419024	 0.0358982034	-0.5944064567	-0.450967
C	 0.1751284257	 1.2182847949	-0.2377482463	 0.253997
N	 1.2662711328	 1.8884019581	 0.1279202382	-0.423388
C	 2.4269312033	 1.0407948808	 0.0758258279	 0.046602
C	 2.8027421055	 0.7542056333	-1.4136836324	-0.186684
N	 3.4337416322	 2.1572382531	-1.3995275604	-0.254212
H	 4.2112466589	 2.386782008	-2.0157885363	 0.298847
H	 2.6509826055	 2.8155136359	-1.4907696925	 0.308852
C	 3.6511085816	 1.9878440749	 0.1029671046	-0.197315
C	-1.0443145534	 2.0684521786	-0.2232068837	 0.226859
N	-2.0187890952	 2.6912730156	-0.2481799303	-0.355294
H	 2.4340836403	 0.17473425	 0.7432366783	 0.102166
H	 3.6028046658	 0.0290985169	-1.5765146917	 0.138808
H	 1.9889914083	 0.6430408095	-2.1241168005	 0.18542
H	 3.5515655719	 2.9211897954	 0.6538940495	 0.16537
H	 4.6178343144	 1.5051597118	 0.2544380923	 0.14094
79.3127	93.0189	127.3163	203.6894	241.2469	355.9976	382.9607	449.2547	545.1669	609.4677	675.4664	774.2584	792.4815	831.5893	864.8156	904.4136	927.6079	951.2794	992.8039	1022.378	1076.7225	1131.2638	1155.4367	1227.6228	1249.0026	1282.4359	1316.0062	1319.0137	1338.7107	1352.6329	1474.8064	1501.3528	1557.0637	1670.7556	2335.961	3068.0836	3090.7917	3097.7266	3184.152	3206.0959	3378.5728	3525.7519
O=C([N-]C1C[NH2+]C1)C#N	O=C([N]C1C[NH2]C1)C#N	
InChI=1S/C5H7N3O/c6-1-5(9)8-4-2-7-3-4/h4,7H,2-3H2,(H,8,9)	InChI=1S/C5H7N3O/c6-1-5(9)8-4-2-7-3-4/h4H,2-3,7H2
