18
gdb 54228	2.24742	1.52207	1.26946	1.6507	72.79	-0.2416	-0.0362	0.2054	1082.6027	0.146286	-439.137462	-439.128199	-439.127255	-439.171763	34.163	
C	-0.139071173	 1.5714409542	-0.0829520129	-0.443093
C	-0.0252749901	 0.0371509542	-0.0591598103	 0.099676
C	 0.8440192932	-0.5741204509	-1.201256471	-0.279215
C	 1.9764308519	-0.9161308074	-0.1823715942	-0.338608
C	 1.0322089261	-0.4739835317	 0.9379533449	 0.368476
O	 1.0383894575	-0.5604331927	 2.1367963982	-0.32135
C	-1.4190363756	-0.5809896505	 0.1117083598	 0.342673
N	-1.8589155587	-0.5855964205	 1.4012839848	-0.523921
O	-2.0687159504	-0.9802712713	-0.8339375459	-0.364455
H	 0.843024096	 2.0339772163	-0.2242174122	 0.120837
H	-0.7852192001	 1.8786328809	-0.9107554105	 0.144433
H	-0.5663064856	 1.9475331311	 0.8502831929	 0.13686
H	 0.3718278512	-1.4460540648	-1.653707906	 0.136564
H	 1.1217339271	 0.1278764921	-1.9884757574	 0.109592
H	 2.3025057542	-1.9578323567	-0.1198677564	 0.1386
H	 2.867307356	-0.2843102432	-0.2546873715	 0.137412
H	-1.1953183924	-0.4676245904	 2.1543291734	 0.275654
H	-2.7315406675	-1.0523710687	 1.5920755643	 0.259867
56.5895	75.2831	162.1092	216.8372	231.0301	233.3418	308.4782	388.6898	426.5159	463.2376	516.241	580.4406	609.3861	659.3266	726.3689	741.4445	780.3022	875.8277	904.5174	927.1388	976.5132	1043.0233	1078.5701	1120.8996	1159.1073	1169.0167	1190.9684	1222.5696	1223.4405	1273.8588	1339.6184	1405.16	1436.6399	1487.5228	1495.3312	1496.9488	1627.2095	1799.0085	1860.1779	3036.7989	3059.8174	3091.3667	3108.2945	3109.988	3123.7252	3150.5324	3550.1517	3692.9855
CC1(CCC1=O)C(N)=O	C[C@]1(CCC1=O)C(=O)N	
InChI=1S/C6H9NO2/c1-6(5(7)9)3-2-4(6)8/h2-3H2,1H3,(H2,7,9)	InChI=1S/C6H9NO2/c1-6(5(7)9)3-2-4(6)8/h2-3H2,1H3,(H2,7,9)/t6-/m1/s1
