20
gdb 41262	3.31559	1.87921	1.47211	1.5068	81.7	-0.2006	0.0749	0.2755	941.5769	0.174096	-365.92968	-365.923176	-365.922232	-365.960054	28.171	
C	-0.025076856	 1.4755656604	 0.1927627877	-0.250486
C	 1.4729146094	 1.6512578572	-0.2360664132	-0.351317
C	 1.4162717598	 0.2198883323	-0.7685463323	 0.365067
C	 2.3682940434	-0.9433955216	-1.0811098999	-0.352947
C	 1.2614480548	-1.539961575	-2.0065115895	-0.045603
C	-0.0006153019	-2.0722786754	-1.2825071973	-0.170999
N	-0.5978903909	-0.6934701422	-1.1086281814	-0.158625
C	 0.1241141733	-0.0690442425	 0.0371889308	 0.003137
C	 0.532569911	-0.1647806302	-2.0043723127	-0.046194
H	-0.2897963885	 1.8340062815	 1.1891880896	 0.101491
H	-0.7342740439	 1.8881361677	-0.5287844891	 0.115757
H	 1.7174196909	 2.4531094983	-0.9389514871	 0.09591
H	 2.1297607031	 1.7410275112	 0.6359001383	 0.102318
H	 3.2304782658	-0.6300725737	-1.6814269946	 0.101889
H	 2.7266201661	-1.5464543897	-0.2401082952	 0.092928
H	 1.5832287699	-2.0654967655	-2.9053396163	 0.070402
H	-0.6359599	-2.6596908877	-1.952239877	 0.106171
H	 0.1342422076	-2.6315375116	-0.3492621193	 0.095679
H	 0.1039282897	-0.6403776873	 0.9703763309	 0.059392
H	 0.3096750364	 0.4595031538	-2.8692077623	 0.066028
203.2018	264.5234	328.934	343.7045	402.8827	509.2134	625.9636	660.8906	728.5637	771.4408	809.8174	843.0375	860.9785	882.7868	888.7402	911.9219	922.4595	940.7863	961.6603	988.2086	1014.8122	1043.5897	1102.8458	1114.2545	1125.6172	1152.5579	1166.0597	1180.1614	1197.7265	1209.174	1212.6696	1229.0315	1236.7996	1252.8878	1287.1811	1292.9614	1310.9417	1328.8827	1337.1567	1475.6815	1481.6943	1493.2175	1496.5234	3027.6343	3029.2714	3041.0728	3056.7948	3071.4149	3079.2769	3082.3081	3089.274	3103.4412	3117.653	3128.8449
C1CC23CC4CN(C12)C34	C1C[C@@]23C[C@H]4CN([C@H]12)[C@@H]34	
InChI=1S/C8H11N/c1-2-8-3-5-4-9(6(1)8)7(5)8/h5-7H,1-4H2	InChI=1S/C8H11N/c1-2-8-3-5-4-9(6(1)8)7(5)8/h5-7H,1-4H2/t5-,6+,7+,8+/m0/s1
