19
gdb 73747	2.61211	1.49559	1.1199	1.0636	92.61	-0.2045	-0.0153	0.1893	1145.6034	0.159295	-348.706982	-348.698766	-348.697822	-348.739476	32.436	
C	-0.0284989326	 1.4721793876	 0.0903798265	-0.525472
C	 0.0120582008	-0.011667679	 0.0224921793	 0.228781
C	 0.0077345896	-0.8465709037	-1.0394094729	 0.169249
C	-0.0366083739	-0.5735301117	-2.4164824578	 0.06654
C	-0.073947143	-0.3707740152	-3.6059259913	-0.37634
C	 0.0650554791	-2.2453698736	-0.3821823453	-0.120535
C	-0.9774531819	-2.0517037693	 0.7675098959	-0.211427
C	 0.0712363514	-0.9746612935	 1.2156728987	-0.110527
C	 1.1543325192	-1.9909017903	 0.7108996033	-0.211428
H	 0.8534147205	 1.8721185325	 0.6079287519	 0.12993
H	-0.0677792422	 1.9094092202	-0.9106274709	 0.139484
H	-0.9028377246	 1.8219672615	 0.6549629	 0.129924
H	-0.1069386512	-0.1837088221	-4.6501314112	 0.177635
H	 0.0724678104	-3.1150307225	-1.037122634	 0.069491
H	-1.975521519	-1.7029287621	 0.4921607096	 0.09702
H	-1.0361122993	-2.9059038198	 1.4494624727	 0.094455
H	 0.0857383609	-0.5489298653	 2.2190958129	 0.061745
H	 1.2976318164	-2.8393471963	 1.3874818762	 0.094454
H	 2.1149071895	-1.5862608477	 0.3835403463	 0.09702
129.812	132.7675	171.4639	185.9813	290.8414	407.592	463.9858	499.0885	534.7475	549.0174	588.1466	638.7879	663.6364	684.1116	819.112	842.5559	851.8632	877.4116	896.4332	997.2435	1006.8603	1023.4673	1052.6677	1066.5388	1083.9113	1110.8304	1119.5675	1190.6578	1208.9552	1225.377	1237.4958	1252.6781	1265.5695	1336.8921	1410.1421	1477.4208	1479.5096	1480.0137	1516.5947	1676.0645	2211.7779	3011.7731	3043.7788	3052.7845	3054.405	3114.5791	3115.4647	3116.4898	3119.2187	3132.6742	3503.7772
CC1=C(C#C)C2CC1C2	CC1=C(C#C)[C@@H]2C[C@H]1C2	
InChI=1S/C9H10/c1-3-9-6(2)7-4-8(9)5-7/h1,7-8H,4-5H2,2H3	InChI=1S/C9H10/c1-3-9-6(2)7-4-8(9)5-7/h1,7-8H,4-5H2,2H3/t7-,8+
