13
gdb 20664	3.41256	2.31072	1.38945	2.6271	65.42	-0.2602	-0.0928	0.1675	826.3724	0.094693	-394.745897	-394.738844	-394.737899	-394.77721	25.727	
C	 0.0979889967	 1.4958187739	 0.0442742136	-0.477534
C	 0.0014729676	 0.0071141812	 0.0013775681	 0.213888
C	-0.1555219904	-0.7047971821	-1.1276507563	-0.070925
N	-0.2427223108	-2.0998048295	-1.1355293577	-0.103313
N	-0.1840062234	-2.7856087275	-0.1233891782	 0.046503
O	-0.0123729903	-2.098413099	 1.1674810698	-0.291082
C	 0.0816232929	-0.7347047721	 1.2625369018	 0.377198
N	 0.2297084462	-0.1447337694	 2.3778343643	-0.522572
H	 1.0427085255	 1.7978940529	 0.5070700609	 0.163972
H	 0.0248598797	 1.9293596608	-0.9554048627	 0.12696
H	-0.6927015973	 1.9054044691	 0.6806475168	 0.163972
H	-0.225831391	-0.2546732259	-2.1096575868	 0.139935
H	 0.2645438247	-0.8189212225	 3.1438736465	 0.232999
100.552	159.8798	216.5159	289.877	368.221	372.1568	521.7594	573.2374	595.9784	611.123	755.2732	796.1298	875.4445	905.8411	917.4166	1014.9897	1044.6564	1063.242	1100.9885	1209.8106	1303.4844	1405.4345	1423.8947	1462.1726	1471.982	1613.5883	1677.2688	1723.244	3046.8811	3106.6523	3136.016	3217.4207	3484.1174
CC1=CN=NOC1=N	CC1=C(O[N]N=C1)[NH]	
InChI=1S/C4H5N3O/c1-3-2-6-7-8-4(3)5/h2,5H,1H3	InChI=1S/C4H5N3O/c1-3-2-6-7-8-4(3)5/h2,5H,1H3
