18
gdb 94763	3.86462	1.15053	1.00754	1.5852	78.72	-0.2344	0.0315	0.2659	1190.6441	0.148198	-401.902635	-401.894361	-401.893417	-401.935258	32.559	
O	 0.0107224354	 1.4152482317	-0.0535127144	-0.439269
C	 0.0469084002	 0.0018111641	-0.0703313496	 0.157505
C	 0.7422919005	-0.6238359962	 1.1699741859	-0.264622
C	 0.0668115561	-1.9899793985	 1.4057586278	-0.285986
C	-1.3345301901	-1.8221729115	 0.8199341893	 0.210504
N	-1.9754695087	-0.5374744854	 1.2406054839	-0.39332
C	-1.3335909568	-0.6371305379	-0.0850700607	-0.127599
C	-2.1636499621	-2.9670469637	 0.5929708455	 0.158497
C	-2.8475721604	-3.9432811867	 0.4283664751	-0.372107
H	-0.5462596431	 1.6605965505	 0.6957882353	 0.286918
H	 0.5769949702	-0.2655708564	-0.9911863413	 0.091391
H	 1.8229388536	-0.7040817736	 1.0348395938	 0.105075
H	 0.5667105261	 0.034841031	 2.0242317701	 0.114549
H	 0.5752881973	-2.7898414846	 0.8571665666	 0.113316
H	 0.0407206263	-2.2767071583	 2.4608817376	 0.113742
H	-2.9822800728	-0.6366343915	 1.1320904221	 0.241156
H	-1.9481705567	-0.5994178676	-0.9778767764	 0.099426
H	-3.4532789449	-4.8019440053	 0.2754198594	 0.190825
99.1829	139.1346	154.2417	258.6373	340.0552	395.7386	428.9212	448.835	526.4525	539.29	579.1418	601.5954	632.515	662.3786	684.0692	839.1587	841.6127	874.8652	945.608	971.9708	1006.4299	1022.2583	1063.1345	1067.0601	1099.9481	1135.9632	1185.5352	1225.2678	1272.1222	1278.5496	1285.1393	1333.8381	1339.8186	1352.3279	1414.3674	1438.5254	1481.8149	1495.6316	2235.3203	3050.7935	3053.8925	3071.5305	3094.6703	3120.3098	3176.6762	3502.1432	3504.4816	3780.6512
OC1CCC2(NC12)C#C	O[C@H]1CC[C@]2(N[C@@H]12)C#C	
InChI=1S/C7H9NO/c1-2-7-4-3-5(9)6(7)8-7/h1,5-6,8-9H,3-4H2	InChI=1S/C7H9NO/c1-2-7-4-3-5(9)6(7)8-7/h1,5-6,8-9H,3-4H2/t5-,6-,7+/m0/s1
