16
gdb 114932	3.34277	1.12274	0.90167	2.1319	75.31	-0.2542	-0.0314	0.2229	1275.2778	0.123029	-437.859378	-437.850758	-437.849814	-437.893132	31.034	
C	 0.0757735336	 1.4223585761	 0.0707471897	-0.246857
O	 0.0702045341	 0.0029356474	 0.0220372346	-0.223652
C	 0.5576114026	-0.5278528496	-1.1594563417	 0.170005
C	 0.5266363467	-2.0659728039	-1.0815869989	-0.215088
N	-0.5777975979	-2.4784941176	-1.9518322554	-0.319276
C	-0.9683853612	-1.4195159522	-2.541285441	 0.258714
O	-0.3318431309	-0.2384699653	-2.2663151254	-0.262575
C	-2.0203631518	-1.3406887288	-3.4969290911	 0.26322
C	-2.9024280294	-1.2621629884	-4.3085727447	-0.355783
H	 1.0882093048	 1.8195951519	-0.0930298675	 0.111605
H	-0.5991760784	 1.8502979991	-0.6785616988	 0.134871
H	-0.26244557	 1.7050340324	 1.069182069	 0.13517
H	 1.5254120851	-0.0821440067	-1.4236573524	 0.080617
H	 1.4606219966	-2.5198877347	-1.4297023094	 0.124368
H	 0.3526769296	-2.38612144	-0.0507857656	 0.137368
H	-3.6856301333	-1.2015720496	-5.0239400616	 0.207294
70.4864	122.6471	152.317	171.4493	190.6292	271.2868	369.85	422.0489	489.7242	557.68	616.7626	654.4377	671.8775	718.8541	798.4692	853.5406	939.9453	944.6465	1015.6721	1027.5101	1071.4583	1144.5565	1179.6545	1195.8833	1221.7316	1261.1619	1332.6035	1348.1097	1403.185	1474.4318	1481.0557	1486.4168	1510.7064	1690.8179	2251.8158	2999.0597	3024.6591	3052.5459	3075.2846	3102.2044	3134.9668	3501.1345
COC1CN=C(O1)C#C	CO[C@H]1C[N][C](O1)C#C	
InChI=1S/C6H7NO2/c1-3-5-7-4-6(8-2)9-5/h1,6H,4H2,2H3	InChI=1S/C6H7NO2/c1-3-5-7-4-6(8-2)9-5/h1,6H,4H2,2H3/t6-/m1/s1
