17
gdb 48434	2.8579	0.95898	0.78695	2.4315	75.45	-0.2618	-0.0442	0.2176	1432.6115	0.132299	-421.779692	-421.770235	-421.769291	-421.814774	33.716	
O	-0.8926001872	 0.868901039	-0.3551222842	-0.253285
C	 0.1639416633	 0.8915796139	 0.2225285908	 0.125165
C	 1.2022665926	 1.959227074	 0.0424441826	 0.300756
C	 1.0402200297	 2.9244983625	-1.1073947311	-0.28048
C	 1.2645646084	 2.2421721179	-2.4758676881	-0.357473
C	 1.1750286082	 3.1841841467	-3.583456664	 0.290214
C	 1.0979132378	 3.9836632593	-4.4775176436	-0.435372
C	 1.951284191	 2.3276956365	 1.2666083689	-0.224138
O	 2.5322108242	 1.4658387376	 0.3047101357	-0.262748
H	 0.4658657554	 0.1038839047	 0.9479142182	 0.091902
H	 0.0307668027	 3.3448433353	-1.0723335362	 0.135912
H	 1.7492778343	 3.7487707521	-0.9926863352	 0.118545
H	 2.2510203256	 1.7627163449	-2.4758877188	 0.144641
H	 0.5231421171	 1.4462527766	-2.6080253948	 0.152428
H	 1.0301537703	 4.6769924218	-5.2786770622	 0.195009
H	 2.3656831412	 3.3329998331	 1.3220087926	 0.133093
H	 1.7038719454	 1.868150904	 2.2231666394	 0.125829
59.9411	77.9947	119.7669	134.4792	189.038	264.1804	336.4603	354.1979	376.1838	472.5954	499.1809	549.0628	616.978	643.3882	751.3884	809.6576	852.0169	883.1767	946.7177	977.9186	1028.6182	1038.1915	1054.7588	1134.0405	1162.8568	1188.6453	1282.5722	1292.4248	1333.3137	1348.1003	1382.1506	1429.8706	1468.1554	1483.3732	1520.8828	1824.5497	2240.9765	2895.7546	3034.4614	3063.459	3073.1327	3082.8711	3113.6976	3173.8201	3507.6184
O=CC1(CCC#C)CO1	O=C[C@@]1(CCC#C)CO1	
InChI=1S/C7H8O2/c1-2-3-4-7(5-8)6-9-7/h1,5H,3-4,6H2	InChI=1S/C7H8O2/c1-2-3-4-7(5-8)6-9-7/h1,5H,3-4,6H2/t7-/m0/s1
