23
gdb 101430	2.61418	1.04378	0.8214	2.32	81.42	-0.2405	0.071	0.3115	1459.7864	0.204071	-425.406135	-425.395635	-425.394691	-425.441951	38.195	
C	-0.8570388641	 1.4278304315	 0.7323776748	-0.399086
C	-0.3133529147	 0.0505265659	 0.3228151195	 0.006933
C	 0.3074994266	 0.1123365406	-1.0748589089	-0.079935
O	-0.711977376	 0.4581181669	-2.0013116113	-0.422783
C	 0.6989658363	-0.4645975073	 1.344564678	-0.040047
C	 0.2397962474	-0.6744238945	 2.8028711512	-0.101082
O	 0.8074652793	-1.996700327	 2.8434781703	-0.291267
C	 1.107239048	-1.9702758184	 1.4252177779	 0.129345
C	 0.3021536276	-3.0176887302	 0.6740639829	-0.40386
H	-0.0415585919	 2.1547475842	 0.8324678472	 0.106837
H	-1.5513962245	 1.8011951365	-0.0230477154	 0.135753
H	-1.3828070233	 1.3816136267	 1.6909785968	 0.112874
H	-1.1588856142	-0.6470197808	 0.2669440944	 0.08384
H	 1.1189196516	 0.8600857136	-1.0778920932	 0.082391
H	 0.7577009357	-0.8585070518	-1.3327796872	 0.087012
H	-0.3121395954	 0.5510086904	-2.8705377511	 0.287151
H	 1.593513888	 0.16732942	 1.3078233475	 0.073933
H	 0.6753207933	-0.0130246356	 3.5605874902	 0.100776
H	-0.8510944884	-0.6950996957	 2.9398280818	 0.094168
H	 2.178913394	-2.1446404799	 1.2602362418	 0.072671
H	-0.7741512445	-2.8648109101	 0.7932512945	 0.123077
H	 0.5395668536	-3.0153969533	-0.3948336743	 0.11499
H	 0.5465346355	-4.0076460516	 1.0720958726	 0.126311
54.3937	94.057	104.8348	160.8248	212.3235	235.3173	243.9079	249.559	276.3443	342.9975	379.9133	421.0506	450.5083	550.4776	752.7295	788.7768	878.3906	883.6981	929.2693	939.7853	969.9395	1007.56	1035.5046	1046.7699	1074.3671	1094.2155	1110.0767	1148.6814	1164.9544	1171.8277	1191.2199	1240.6321	1268.2764	1270.2577	1287.9775	1307.6168	1356.2588	1361.7295	1385.2065	1398.9893	1403.3862	1410.429	1458.3949	1484.1492	1494.0943	1495.1607	1506.9557	1521.1312	1528.6214	2956.5384	2993.4827	2995.7644	3005.9639	3025.0989	3030.3288	3039.1954	3040.9755	3057.7867	3095.7866	3107.7462	3118.2476	3131.2084	3834.9962
CC(CO)C1COC1C	C[C@@H](CO)[C@H]1CO[C@H]1C	
InChI=1S/C7H14O2/c1-5(3-8)7-4-9-6(7)2/h5-8H,3-4H2,1-2H3	InChI=1S/C7H14O2/c1-5(3-8)7-4-9-6(7)2/h5-8H,3-4H2,1-2H3/t5-,6-,7+/m0/s1
