16
gdb 5745	4.79633	1.83083	1.43156	4.2829	71.1	-0.2134	0.0425	0.256	870.783	0.13315	-342.792718	-342.786031	-342.785087	-342.823667	25.375	
C	-0.3446146518	 1.6169063585	-0.2240844595	-0.398138
C	 0.0011122365	 0.151974478	-0.0358838424	 0.05334
C	 0.7759711543	-0.5782010975	-1.2028770423	-0.40449
C	 1.8917125108	-0.7652508882	-0.1856324643	 0.295321
C	 3.0786855828	-1.1717606744	 0.3702579557	-0.224633
N	 3.1004910348	-0.762047288	 1.6900005082	-0.26434
C	 1.9620650205	-0.1349919127	 1.9332041672	-0.036393
N	 1.206849477	-0.117202555	 0.8005985619	-0.005662
H	 0.5232949423	 2.179605137	-0.5802512187	 0.134976
H	-1.1510956258	 1.7189789677	-0.9573346474	 0.129476
H	-0.6844295239	 2.0647784182	 0.7149782793	 0.13074
H	-0.8633376377	-0.4142370161	 0.3238055481	 0.106074
H	 0.2979119693	-1.4906719392	-1.567344971	 0.126064
H	 1.00668501	 0.0684711612	-2.0538649358	 0.123478
H	 3.9054616367	-1.7134173284	-0.0605832987	 0.10558
H	 1.6701703742	 0.3062446187	 2.8729379496	 0.128608
87.8917	187.3539	237.1283	293.0914	419.0103	479.1035	660.5466	665.5575	692.4078	739.4631	780.3087	824.6742	850.0144	915.5944	967.118	1015.3319	1066.4277	1099.049	1106.5584	1121.1801	1183.1724	1208.5902	1234.8425	1245.8354	1285.9235	1363.012	1374.8472	1391.6046	1412.4108	1467.0894	1487.6308	1492.4415	1497.0103	1565.7979	3038.565	3061.3523	3064.0985	3109.0251	3110.9552	3120.2827	3259.7831	3263.9002
CC1CC2=CN=CN12	C[C@H]1Cc2cncn12	
InChI=1S/C6H8N2/c1-5-2-6-3-7-4-8(5)6/h3-5H,2H2,1H3	InChI=1S/C6H8N2/c1-5-2-6-3-7-4-8(5)6/h3-5H,2H2,1H3/t5-/m0/s1
