19
gdb 106121	2.64219	1.50382	1.21733	1.0608	75.1	-0.2247	0.079	0.3036	1107.087	0.158001	-422.941746	-422.933358	-422.932414	-422.974723	31.929	
C	 0.2550148608	 1.4272088835	-0.2619331788	-0.256427
O	-0.0958598699	 0.073286587	 0.0071296355	-0.279573
C	 0.5431578116	-0.4486433137	 1.0859340833	 0.365435
C	 1.9512700035	-0.8034388723	 1.4379780847	-0.031523
O	 1.9508665961	-0.1688054695	 2.7125251474	-0.282393
C	 0.5021034983	-0.2247991693	 2.6772197342	-0.025396
C	 0.1750495586	-1.7377739299	 2.8285667148	 0.011411
C	-1.3156017208	-2.0513524282	 2.8545164289	-0.412307
C	 0.8245705015	-1.8862020109	 1.4508654836	-0.184233
H	 1.3314238511	 1.5257116652	-0.4502462094	 0.12159
H	-0.3019978577	 1.7265008451	-1.1517254404	 0.131266
H	-0.0194390624	 2.0824800154	 0.5748530467	 0.120852
H	 2.8739915939	-0.8875671025	 0.8799090184	 0.11113
H	 0.0163650351	 0.5472482068	 3.2719262032	 0.084579
H	 0.697830773	-2.2094051484	 3.668439955	 0.073244
H	-1.8402599113	-1.5439633932	 2.0374926219	 0.127047
H	-1.4948387334	-3.1260287241	 2.7474150214	 0.11847
H	-1.7663299741	-1.731333358	 3.800557297	 0.113265
H	 0.8590253162	-2.747295463	 0.7949044724	 0.093562
90.6505	136.8191	165.7661	215.0403	240.7488	276.6106	373.3538	433.7941	498.909	568.0498	604.8099	749.5854	769.8011	808.8632	863.5679	910.0461	920.6818	951.7298	980.4928	1013.9839	1047.4266	1057.5552	1068.8623	1084.9683	1102.5279	1130.8376	1152.692	1178.8527	1203.7205	1211.3696	1238.7679	1278.8063	1290.5007	1364.6578	1413.3643	1437.1652	1486.5466	1496.3274	1500.5935	1502.9267	1509.3878	3008.0251	3027.9341	3043.0848	3068.6032	3094.6964	3101.1182	3132.2351	3135.5031	3197.2227	3214.94
COC12C3OC1C(C)C23	CO[C@@]12[C@H]3O[C@@H]1[C@@H](C)[C@@H]23	
InChI=1S/C7H10O2/c1-3-4-6-7(4,8-2)5(3)9-6/h3-6H,1-2H3	InChI=1S/C7H10O2/c1-3-4-6-7(4,8-2)5(3)9-6/h3-6H,1-2H3/t3-,4+,5+,6-,7+/m0/s1
