16
gdb 9169	7.96176	0.8089	0.74446	1.3441	70.19	-0.248	0.0156	0.2636	1510.4035	0.12726	-383.750595	-383.740759	-383.739815	-383.787845	31.697	
C	-0.0322146807	 1.3410157841	 0.2418024359	-0.239112
O	-0.0409443421	-0.0622667459	-0.0494610507	-0.232742
C	 0.6767564795	-0.4290814872	-1.1321978546	 0.464557
O	 1.2903720828	 0.335958399	-1.8246554648	-0.339265
C	 0.5710123709	-1.9426073211	-1.311619038	-0.513732
C	 1.3070484389	-2.459743855	-2.4526682089	 0.086574
C	 1.9107782235	-2.9038965651	-3.392902656	 0.090123
C	 2.6466972532	-3.4257862155	-4.5347577515	-0.497796
H	 0.9863469916	 1.688930248	 0.4315439019	 0.141986
H	-0.4469861179	 1.9106379071	-0.5936670498	 0.141987
H	-0.6497542677	 1.4633983426	 1.1316420907	 0.133548
H	 0.9096230064	-2.4055626357	-0.3757941507	 0.158044
H	-0.4965112928	-2.1881330228	-1.3813547607	 0.158042
H	 3.4055703995	-4.1518346281	-4.2228976491	 0.146749
H	 1.9795890862	-3.9269754779	-5.2447347718	 0.146755
H	 3.1589348386	-2.6204287265	-5.0723426821	 0.154281
21.3953	25.3893	78.763	114.7359	161.2462	199.1345	234.6176	300.9553	378.6169	379.7204	438.6554	580.9121	700.6466	793.558	895.9545	956.2516	1025.7116	1052.4895	1055.411	1172.0915	1179.8277	1201.2174	1217.7233	1219.681	1359.7046	1414.6258	1443.0659	1472.7704	1478.151	1478.37	1481.5026	1498.1196	1839.85	2387.1498	3027.248	3027.4889	3051.4397	3054.1806	3087.4903	3090.3536	3126.0564	3158.5047
COC(=O)CC#CC	COC(=O)CC#CC	
InChI=1S/C6H8O2/c1-3-4-5-6(7)8-2/h5H2,1-2H3	InChI=1S/C6H8O2/c1-3-4-5-6(7)8-2/h5H2,1-2H3
