20
gdb 94909	2.10951	1.68776	1.38143	1.3842	84.1	-0.224	0.0326	0.2567	1069.2718	0.171448	-365.965354	-365.956851	-365.955907	-365.998045	33.435	
C	-0.0872896244	 1.5509170512	-0.0521783637	-0.409238
C	-0.0316274554	 0.0229779137	 0.0270868323	 0.020896
C	 0.5456763368	-0.675486274	-1.2282805121	-0.254211
C	 1.2386228764	-1.9468598797	-0.6818847783	-0.159908
N	 1.5084501645	-1.7600901081	 0.7622169296	-0.125161
C	 2.3116396051	-0.550518155	 1.0940096099	-0.205004
C	 3.1068635812	 0.1625650408	 0.1352904461	 0.357126
C	 3.8517899281	 0.7389801326	-0.6148709842	-0.468927
C	 0.8125207911	-0.5330089281	 1.167109337	-0.040778
H	 0.9107718369	 1.9696410113	-0.2098687375	 0.133063
H	-0.7273470645	 1.8750704833	-0.8792404641	 0.113496
H	-0.4950040675	 1.9809363682	 0.8689170792	 0.111984
H	-1.0501928089	-0.3503937837	 0.1992595958	 0.078591
H	-0.234977951	-0.9169000004	-1.9548325563	 0.096691
H	 1.2658725117	-0.0228794945	-1.7247092881	 0.120787
H	 0.5815570664	-2.819120603	-0.7576122565	 0.108675
H	 2.1672319958	-2.1835637954	-1.2087914287	 0.115732
H	 2.8249065518	-0.6734461024	 2.0461682073	 0.116651
H	 4.4938805188	 1.2561400046	-1.2843172296	 0.199164
H	 0.3721600572	-0.5352251916	 2.1621220419	 0.09037
104.5291	145.3922	184.0021	233.9739	241.5039	322.457	351.6732	436.4419	546.4521	559.7686	596.5182	657.3382	663.03	703.7432	717.8484	785.4225	836.7077	870.5177	916.8036	946.1358	971.8919	999.4274	1036.3477	1064.9053	1086.2928	1128.7739	1151.5145	1174.2649	1207.6471	1245.2056	1279.1333	1311.3958	1332.792	1340.559	1355.3847	1380.0173	1402.184	1414.7836	1490.2047	1499.2308	1502.4352	1505.6156	2223.9974	3009.6997	3034.2317	3049.4718	3068.4878	3093.2805	3096.8711	3114.4889	3115.5357	3122.3113	3128.4125	3500.12
CC1CCN2C(C#C)C12	C[C@H]1CCN2[C@@H](C#C)[C@@H]12	
InChI=1S/C8H11N/c1-3-7-8-6(2)4-5-9(7)8/h1,6-8H,4-5H2,2H3	InChI=1S/C8H11N/c1-3-7-8-6(2)4-5-9(7)8/h1,6-8H,4-5H2,2H3/t6-,7-,8+,9?/m0/s1
