18
gdb 16179	4.33165	1.62253	1.40968	2.1408	67.12	-0.2272	0.0885	0.3157	932.5023	0.153931	-384.911696	-384.904092	-384.903148	-384.943476	28.793	
C	-0.3829775339	 1.3687505134	-0.2280264549	-0.252505
O	 0.0800742921	 0.0630527963	 0.0670243194	-0.28479
C	 0.7996261616	-0.5207280729	-0.9665373853	 0.40863
C	 0.064979448	-1.1141857106	-2.1591280803	-0.390698
C	 0.7819121706	-2.0013136678	-1.15470387	 0.046401
O	 2.0626476737	-2.48203841	-1.4567157637	-0.258334
C	 2.8683240046	-1.3636154461	-1.8410077	-0.091905
C	 2.2542574214	-0.113179717	-1.1768721255	-0.30642
H	 0.4466456496	 2.0759413203	-0.369672707	 0.109393
H	-1.0083532507	 1.3798089768	-1.1318067953	 0.110001
H	-0.9809780455	 1.6948557037	 0.6259253005	 0.127452
H	-1.0178597732	-1.1183631533	-2.0925444432	 0.119306
H	 0.4604830227	-0.9958606088	-3.1626596996	 0.114433
H	 0.2158557767	-2.6713215137	-0.519437623	 0.113498
H	 3.8942985659	-1.5648794769	-1.5221866915	 0.11453
H	 2.8693055807	-1.2621758859	-2.9351975586	 0.100232
H	 2.3953669197	 0.7797277459	-1.7928319023	 0.103581
H	 2.6918353562	 0.0745667866	-0.1907178496	 0.117195
100.3466	169.6475	187.2703	223.6504	300.3836	384.7717	397.364	456.1927	608.1969	695.8998	697.0509	839.1688	862.2837	910.604	928.3077	973.6135	997.4699	1003.5029	1017.4548	1044.3156	1093.5822	1123.6876	1164.1644	1183.4299	1206.69	1216.7801	1236.1887	1260.9205	1277.0132	1312.5209	1374.6888	1408.4616	1465.7269	1483.1144	1488.9234	1499.2399	1508.5234	1527.9975	2991.151	3004.4049	3042.8422	3048.8853	3086.8384	3099.5284	3120.3149	3129.6198	3194.4412	3220.7004
COC12CC1OCC2	CO[C@]12C[C@H]1OCC2	
InChI=1S/C6H10O2/c1-7-6-2-3-8-5(6)4-6/h5H,2-4H2,1H3	InChI=1S/C6H10O2/c1-7-6-2-3-8-5(6)4-6/h5H,2-4H2,1H3/t5-,6-/m1/s1
