17
gdb 38765	2.49368	2.34045	1.88341	1.2746	65.47	-0.2534	0.0795	0.3329	815.7411	0.139562	-458.958451	-458.952434	-458.95149	-458.988612	25.256	
C	 0.018873656	 1.5513650698	 0.1016534314	-0.251177
C	 1.5100953658	 1.8797734604	 0.0121759343	 0.073698
O	 2.203511967	 1.6564364463	 1.2623721256	-0.304704
C	 2.5807802716	 0.3189316727	 0.8639398	 0.059492
C	 1.7195926582	-0.7562293825	 1.5166668042	-0.084803
O	 0.3284290175	-0.5921532643	 1.248354246	-0.275507
C	 0.0249252499	 0.0101690054	 0.0026531022	 0.182067
O	 1.0270619818	-0.2691599937	-0.961710591	-0.251985
C	 2.1000940306	 0.575477705	-0.5875304644	 0.038023
H	-0.4309570738	 1.9057233763	 1.0301617923	 0.125922
H	-0.5210329227	 1.9721070669	-0.7527975869	 0.106855
H	 1.748615151	 2.8547509928	-0.4170817577	 0.085524
H	 3.6457390364	 0.1274535099	 1.0355791223	 0.083671
H	 2.0634222138	-1.7366287415	 1.1551980083	 0.104369
H	 1.8324610096	-0.7305642604	 2.6047902289	 0.119181
H	-0.9151308072	-0.4265108208	-0.3400868127	 0.094779
H	 2.8383724345	 0.6083424374	-1.3859692028	 0.094596
171.7353	328.2255	342.5839	420.227	486.5314	537.8121	635.4987	686.1711	804.0017	815.8184	828.6842	860.8992	899.8824	904.9131	942.7082	972.8714	976.7317	1008.7287	1032.1749	1043.6809	1072.3108	1097.5578	1151.5521	1173.9375	1205.6904	1236.7034	1245.9172	1281.8944	1305.712	1324.8917	1332.8418	1348.2165	1369.454	1387.4029	1412.2312	1456.0308	1491.8763	3000.2412	3051.1263	3058.7967	3082.8051	3093.8265	3101.6013	3135.721	3142.3333
C1C2OC3COC1OC23	C1[C@H]2O[C@H]3CO[C@@H]1O[C@@H]23	
InChI=1S/C6H8O3/c1-3-6-4(8-3)2-7-5(1)9-6/h3-6H,1-2H2	InChI=1S/C6H8O3/c1-3-6-4(8-3)2-7-5(1)9-6/h3-6H,1-2H2/t3-,4+,5-,6+/m1/s1
