23
gdb 103214	3.33371	1.27808	1.10988	0.1001	89.72	-0.2783	0.0853	0.3636	1220.5105	0.20566	-351.086202	-351.077548	-351.076603	-351.119173	34.636	
C	-0.2528913519	 1.544048341	 0.0169201337	-0.384095
C	 0.1769435645	 0.0731896216	-0.0681519116	-0.241915
C	 0.8495959071	-0.4709698193	 1.1995181376	 0.334904
C	 2.1876502968	 0.2167051689	 1.4732301792	-0.468076
C	-0.0686280554	-0.7292554712	 2.4291163583	-0.06846
C	-0.6889574621	-2.0304989598	 1.8063601495	-0.048591
C	-0.400798746	-2.8629458178	 3.0678289989	-0.281094
C	 0.8116033515	-1.9240310398	 2.9438893083	-0.052089
C	 0.8218708823	-2.0153648749	 1.3766181413	-0.085015
H	 0.6018950667	 2.2151019261	 0.1441111059	 0.116553
H	-0.7759040151	 1.8502363441	-0.8945832889	 0.110169
H	-0.9330326068	 1.7094462685	 0.8597523072	 0.114719
H	-0.7026411508	-0.5359151772	-0.3038794748	 0.092449
H	 0.8668200109	-0.0538811488	-0.9138278536	 0.087909
H	 2.0591640828	 1.286662223	 1.6676376177	 0.114881
H	 2.699777849	-0.2121234806	 2.3386584244	 0.11205
H	 2.8572348927	 0.1203300914	 0.6100459815	 0.109305
H	-0.5951959715	-0.0098972893	 3.0613898452	 0.060122
H	-1.5525511196	-2.084665019	 1.143436214	 0.070207
H	-1.0624165593	-2.7030373094	 3.9257998429	 0.088587
H	-0.2140524387	-3.9321683233	 2.9218999278	 0.088515
H	 1.6826836269	-1.8530807139	 3.5953372792	 0.069522
H	 1.3263034158	-2.7827573404	 0.7835155161	 0.059443
73.0907	173.6415	190.7836	208.9471	258.9298	297.276	348.7798	371.1549	478.1775	528.3319	617.7589	746.5475	781.5743	809.919	838.5998	850.3522	873.1624	886.6683	908.5533	925.4676	962.9067	1000.4803	1007.5743	1015.5015	1027.7761	1050.145	1077.8798	1102.2135	1143.3114	1147.1977	1154.9406	1158.846	1173.2531	1195.7994	1211.4474	1235.9406	1250.7817	1291.4456	1315.0371	1347.1934	1374.005	1408.5727	1414.9298	1480.2462	1494.1685	1498.9985	1506.0403	1511.146	1513.0941	3014.4049	3029.7204	3032.4519	3034.5663	3060.1576	3074.6879	3077.4498	3087.7977	3088.622	3098.7153	3102.2294	3108.7498	3110.2565	3115.7623
CCC1(C)C2C3CC2C13	CC[C@@]1(C)[C@H]2[C@@H]3C[C@H]2[C@H]13	
InChI=1S/C9H14/c1-3-9(2)7-5-4-6(7)8(5)9/h5-8H,3-4H2,1-2H3	InChI=1S/C9H14/c1-3-9(2)7-5-4-6(7)8(5)9/h5-8H,3-4H2,1-2H3/t5-,6+,7-,8+,9-
