19
gdb 68796	2.8147	1.2942	1.0748	5.266	80.74	-0.2298	0.019	0.2488	1188.1007	0.158579	-382.048097	-382.038985	-382.038041	-382.081646	34.159	
C	-0.0446394533	 1.5569518372	 0.0441468578	-0.508463
C	 0.0224374748	 0.0628035204	 0.0653344474	 0.318995
C	 1.1863736697	-0.7787965371	-0.3638839686	-0.360284
C	 0.6303889989	-0.9511937508	 1.0353042453	 0.262265
C	 1.4440448325	-0.8418992863	 2.2906445777	-0.500332
C	-0.7104190803	-1.704927401	 0.9383685925	-0.188747
N	-1.1974781492	-0.7675273131	-0.1307991924	-0.353232
C	-0.6813125735	-3.1197448766	 0.5556715318	 0.302577
N	-0.6332051105	-4.2390241375	 0.2714546262	-0.33077
H	 0.9306975178	 1.9937083331	 0.2768223917	 0.1308
H	-0.3420016604	 1.915577693	-0.9482512388	 0.139394
H	-0.7696551295	 1.9394826785	 0.7725259512	 0.117523
H	 1.0496061967	-1.5448064383	-1.122459036	 0.131996
H	 2.1464403555	-0.2721098108	-0.3900461046	 0.114102
H	 2.212608295	-0.06914464	 2.1898128418	 0.125538
H	 0.8231162526	-0.5849258997	 3.1565339174	 0.118175
H	 1.9562089012	-1.7854712995	 2.5138626827	 0.138054
H	-1.2774270684	-1.609510803	 1.8708062809	 0.11777
H	-2.0266608397	-0.2825612687	 0.200737346	 0.224641
100.4495	128.2938	171.5199	175.9817	208.3926	258.8306	315.4741	353.4415	413.0524	464.7157	529.8918	565.2751	612.586	698.377	726.4496	825.7826	837.963	930.1516	952.0574	969.9619	988.2348	1006.0703	1058.352	1065.467	1101.0549	1114.1285	1186.2469	1221.5119	1245.6966	1268.9412	1346.9809	1370.9591	1409.2434	1416.3873	1441.7492	1480.9822	1484.6341	1495.5546	1496.2542	1519.6698	2355.3302	3021.8417	3024.1621	3048.1557	3081.1825	3082.1479	3099.865	3110.4679	3115.0538	3206.0058	3507.2424
CC12CC1(C)C(N2)C#N	C[C@@]12C[C@]1(C)[C@@H](N2)C#N	
InChI=1S/C7H10N2/c1-6-4-7(6,2)9-5(6)3-8/h5,9H,4H2,1-2H3	InChI=1S/C7H10N2/c1-6-4-7(6,2)9-5(6)3-8/h5,9H,4H2,1-2H3/t5-,6+,7+/m0/s1
