20
gdb 15910	2.53716	1.95542	1.26501	1.2762	71.3	-0.2392	0.0692	0.3084	1026.3187	0.176022	-386.120331	-386.111385	-386.11044	-386.153716	33.047	
C	 0.2164389499	 1.3886316457	-0.1007768725	-0.249001
O	 0.0419480742	-0.0138003229	 0.0058981803	-0.260198
C	 0.6384225995	-0.5682415659	 1.1648214114	 0.071589
C	 0.1288816242	-2.0153904823	 1.4185913874	 0.006598
C	-1.2627103341	-2.396271799	 0.9369388862	-0.402006
C	 1.3713251217	-2.5589493632	 0.6559427781	-0.283166
C	 2.0449782332	-1.1685290639	 0.8263758807	 0.145412
O	 2.7306233947	-0.6062137839	-0.2597312479	-0.436695
H	 1.277139493	 1.6665822342	-0.1436940502	 0.124958
H	-0.2768269997	 1.7036115552	-1.0240118187	 0.12562
H	-0.2503817429	 1.9109511376	 0.7474426026	 0.111201
H	 0.5695201255	 0.1410213946	 2.0001329395	 0.055065
H	 0.226463648	-2.229082797	 2.4886995085	 0.073805
H	-1.3997068791	-2.1233801847	-0.1123700317	 0.127503
H	-1.4227450348	-3.475186656	 1.0371696538	 0.111039
H	-2.0398246508	-1.8873510951	 1.5174057546	 0.111981
H	 1.888298808	-3.430332724	 1.0644156229	 0.097234
H	 1.1419257378	-2.7487685652	-0.3979443502	 0.099096
H	 2.7235093288	-1.1380757422	 1.6833738194	 0.086522
H	 2.0716469929	-0.5019648321	-0.9578225742	 0.283442
78.5352	109.7494	179.6781	203.0618	206.6123	253.9321	305.6292	376.7991	410.6912	473.0877	493.5934	594.7556	673.8792	773.8922	841.0478	895.885	932.3969	958.0568	980.249	1062.9811	1085.5698	1108.9656	1145.5046	1153.365	1174.1279	1183.2318	1212.4938	1226.6992	1249.2701	1267.8708	1299.4275	1323.7006	1365.5748	1379.9367	1410.2255	1438.7358	1478.9796	1483.3769	1487.6948	1492.2387	1500.4068	1515.9381	2989.916	3010.1654	3033.5363	3045.0336	3050.9822	3054.1401	3075.0854	3094.8391	3111.2361	3114.2152	3122.4744	3775.248
COC1C(C)CC1O	CO[C@H]1[C@@H](C)C[C@H]1O	
InChI=1S/C6H12O2/c1-4-3-5(7)6(4)8-2/h4-7H,3H2,1-2H3	InChI=1S/C6H12O2/c1-4-3-5(7)6(4)8-2/h4-7H,3H2,1-2H3/t4-,5+,6-/m0/s1
