16
gdb 10743	2.55869	1.93917	1.57529	3.3436	64.49	-0.2758	0.0256	0.3014	893.0991	0.129444	-379.903489	-379.894993	-379.894048	-379.936208	30.849	
C	-0.0857235735	 1.4643201741	-0.1924070787	-0.405337
C	 0.0113266139	-0.052593049	 0.0477001972	 0.045133
N	 0.7452251243	-0.2980302903	 1.2938266275	-0.520363
C	-1.3571347175	-0.6251333134	 0.0867408483	 0.271116
N	-2.4109269523	-1.0902459161	 0.1880424997	-0.354729
C	 0.8195744728	-0.6883499524	-1.0853344517	 0.114087
C	 0.514011628	-1.9944472503	-1.6808037165	-0.204084
O	 0.1961142879	-0.7693368583	-2.3551022626	-0.234072
H	 0.9211995726	 1.8892783885	-0.186226614	 0.136308
H	-0.5606538939	 1.6647256024	-1.1548278014	 0.156464
H	-0.674672211	 1.9446392512	 0.5942065861	 0.130443
H	 0.2905622842	 0.1818531262	 2.0652216332	 0.243825
H	 0.736447606	-1.2889713059	 1.5188630386	 0.243373
H	 1.8510593696	-0.3348022524	-1.0881913447	 0.111024
H	 1.318232626	-2.5751860436	-2.128667668	 0.124384
H	-0.3459203972	-2.5618952806	-1.3320159431	 0.142427
81.8869	143.6802	194.5602	212.8599	243.8913	282.8657	321.7129	351.6803	430.0919	472.0741	596.8917	635.3699	663.1084	835.8634	883.9254	891.3518	940.8434	987.2866	1021.7713	1038.7585	1100.532	1163.355	1176.0978	1186.948	1227.004	1290.719	1323.8995	1401.2662	1422.2323	1489.0294	1491.8282	1525.3332	1659.5606	2343.9404	3049.5784	3096.1013	3114.086	3125.1688	3145.2382	3190.1488	3492.9702	3573.8873
CC(N)(C#N)C1CO1	C[C@@](N)(C#N)[C@H]1CO1	
InChI=1S/C5H8N2O/c1-5(7,3-6)4-2-8-4/h4H,2,7H2,1H3	InChI=1S/C5H8N2O/c1-5(7,3-6)4-2-8-4/h4H,2,7H2,1H3/t4-,5-/m1/s1
