19
gdb 70976	3.45305	1.28798	1.10001	2.9361	80.84	-0.2469	-0.0277	0.2191	1147.3113	0.158578	-385.855515	-385.847369	-385.846425	-385.888235	31.516	
C	-0.1032259611	 1.4671640832	-0.0092602115	-0.504678
C	 0.0463889742	-0.0250022802	-0.0079439874	 0.348872
C	 0.9989976641	-0.8608078947	-0.8664279694	-0.328769
C	 0.1496554363	-2.083997087	-0.4489059597	 0.238656
C	 0.401785661	-2.2241176116	 1.0863197572	-0.288387
C	-0.309844288	-0.8839194192	 1.2242050177	-0.103665
C	-1.0385002154	-1.0731136108	-0.0856706018	-0.176616
C	 0.0060648272	-3.2845955552	-1.3140555226	 0.036618
O	 0.5299507588	-3.4226450342	-2.3926522742	-0.249432
H	 0.7834429889	 1.9545773593	 0.4127388074	 0.123312
H	-0.2423201881	 1.8510236586	-1.0260122109	 0.122494
H	-0.9676499289	 1.7803872339	 0.5862312457	 0.11892
H	 0.8789658034	-0.6416988963	-1.9304120605	 0.114031
H	 2.0647751705	-0.8831259015	-0.6117719795	 0.091813
H	-0.1900915469	-3.0368977563	 1.518509876	 0.104263
H	 1.4470061302	-2.3165619179	 1.4025137545	 0.099372
H	-0.6889167862	-0.421687597	 2.1272296819	 0.087896
H	-2.0822423255	-1.0339662617	-0.3632412851	 0.097049
H	-0.6517335344	-4.0805596912	-0.8922420177	 0.068252
68.7318	164.5649	201.498	212.2322	299.5479	309.7757	425.0832	440.6471	462.1857	582.2221	700.0061	739.0083	776.4402	816.0474	833.7635	878.8041	909.1125	956.4576	969.2449	991.7996	1025.706	1036.8716	1043.591	1082.5222	1117.413	1127.7426	1151.8383	1171.2387	1199.2492	1244.8572	1251.0291	1289.1344	1336.3994	1403.9709	1424.4087	1428.6569	1486.3601	1492.2921	1498.4587	1511.5713	1812.6202	2855.3975	3023.1733	3031.3145	3038.919	3084.5562	3091.0471	3093.5078	3107.6461	3190.7648	3218.4498
CC12CC3(CC1C23)C=O	C[C@@]12C[C@]3(C[C@@H]1[C@@H]23)C=O	
InChI=1S/C8H10O/c1-7-3-8(4-9)2-5(7)6(7)8/h4-6H,2-3H2,1H3	InChI=1S/C8H10O/c1-7-3-8(4-9)2-5(7)6(7)8/h4-6H,2-3H2,1H3/t5-,6+,7-,8-/m1/s1
