16
gdb 29925	2.0408	1.93376	0.99917	2.3611	83.84	-0.1885	0.004	0.1926	1134.6096	0.12327	-400.75373	-400.74466	-400.743715	-400.788412	33.038	
C	-0.0559585076	 1.4376273787	 0.0385449004	-0.338313
N	-0.0262988294	-0.0079451218	-0.004589793	-0.064442
C	-0.0474178098	-0.7828534836	-1.1221142312	-0.091219
C	 0.0196007341	-2.1168370021	-0.7639041155	-0.251049
C	 0.0862855827	-2.1479863138	 0.6438913446	 0.243001
O	 0.1608509095	-3.273460277	 1.3929472321	-0.442351
C	 0.0588256918	-0.8351812171	 1.1134826701	 0.072122
C	 0.1024715982	-0.3853250222	 2.4393713053	 0.198557
C	 0.1428088698	-0.0463575986	 3.5990956259	-0.473821
H	 0.8770119508	 1.8405078201	 0.4463878914	 0.145072
H	-0.190430888	 1.8167924785	-0.975922048	 0.138332
H	-0.8842299207	 1.7902159445	 0.6605274236	 0.147763
H	-0.1088893897	-0.328583145	-2.0987175163	 0.121646
H	 0.0173037171	-2.9661493289	-1.4273045039	 0.108707
H	 0.1941115638	-3.0123856185	 2.3216720482	 0.298073
H	 0.1777971275	 0.2588520968	 4.6151060863	 0.187921
22.4804	119.6557	133.6012	171.8712	282.892	320.0474	367.4339	396.6096	397.5795	480.6156	545.381	577.2324	604.9822	686.8631	689.6137	701.588	740.1893	771.7674	797.5432	1026.8322	1078.1221	1103.2358	1152.9857	1161.525	1267.3656	1300.7371	1396.2178	1420.1533	1456.4599	1477.2187	1492.9722	1529.782	1557.8018	1592.8675	2202.5594	3037.7945	3096.5619	3139.4881	3252.5806	3272.8839	3500.9448	3784.4047
CN1C=CC(O)=C1C#C	Cn1ccc(O)c1C#C	
InChI=1S/C7H7NO/c1-3-6-7(9)4-5-8(6)2/h1,4-5,9H,2H3	InChI=1S/C7H7NO/c1-3-6-7(9)4-5-8(6)2/h1,4-5,9H,2H3
