14
gdb 42858	3.38273	1.08272	0.97262	2.989	66.23	-0.278	-0.0333	0.2447	1181.9601	0.099868	-436.631864	-436.624189	-436.623245	-436.664964	27.832	
O	-0.1706955857	-0.0454374832	 0.1522077714	-0.297144
C	-0.0961667712	 1.1288299441	 0.0258425008	 0.447636
C	-0.9480176036	 2.4317834992	-0.0501436808	-0.069682
O	-0.0294689549	 2.9120050454	 1.0148130952	-0.294281
C	 0.9109231245	 2.3199030945	 0.0316059966	-0.096456
C	 0.0657412416	 2.9837222501	-1.0888046642	 0.015389
C	 0.1096190008	 2.448376271	-2.522378831	-0.395711
C	-0.9907535503	 2.9713926505	-3.3306141771	 0.265941
N	-1.8687613788	 3.3973427833	-3.9488306678	-0.295111
H	-2.0107989137	 2.6296569782	 0.0649054675	 0.133022
H	 1.9760034801	 2.3882394435	 0.2418878025	 0.123873
H	 0.1240811409	 4.0721849102	-1.0317669667	 0.125052
H	 1.0571979716	 2.7304073863	-2.9952059808	 0.166412
H	 0.0639705784	 1.3528669868	-2.5334995957	 0.171062
55.7877	111.0889	143.1424	294.4155	308.0212	389.4522	431.7767	471.9468	591.0377	653.9319	768.7007	800.5814	806.1665	883.0775	892.5057	936.077	963.7776	992.1475	1032.2024	1085.9391	1135.4772	1138.508	1202.4528	1211.1499	1242.863	1252.0694	1319.3233	1386.8624	1464.7188	1942.9595	2366.1915	3042.1853	3080.3519	3114.801	3157.5817	3167.8036
O=C1C2OC1C2CC#N	O=C1[C@H]2O[C@@H]1[C@H]2CC#N	
InChI=1S/C6H5NO2/c7-2-1-3-5-4(8)6(3)9-5/h3,5-6H,1H2	InChI=1S/C6H5NO2/c7-2-1-3-5-4(8)6(3)9-5/h3,5-6H,1H2/t3-,5-,6+
