16
gdb 47687	2.28893	1.72423	1.11216	2.0303	67.17	-0.2752	-0.0322	0.243	1063.4287	0.124858	-475.047882	-475.039952	-475.039008	-475.081119	29.11	
N	-0.2294657096	 1.38829665	-0.1478632322	-0.469869
C	-0.0628650952	 0.1677769339	 0.1181308878	 0.361237
C	-1.1619893139	-0.8503863014	-0.0941562396	-0.137081
O	-1.7794082535	-1.2934356591	 1.1011852051	-0.247266
C	-0.8989304827	-1.4873992876	 2.1914440847	-0.085502
C	 0.3563968188	-2.2782315404	 1.8327146375	-0.353622
C	 1.449272359	-1.5438705754	 1.068341611	 0.399213
O	 2.5646212979	-1.9583936942	 0.9661646532	-0.287604
O	 1.1749474546	-0.2965667564	 0.5356835765	-0.234457
H	 0.6265741992	 1.9185739161	 0.0309277718	 0.236531
H	-1.9394976435	-0.374938024	-0.6917820184	 0.154141
H	-0.7523647627	-1.700218269	-0.6631816197	 0.110714
H	-0.6180075305	-0.5210569656	 2.6384635232	 0.114398
H	-1.4753012607	-2.0380665163	 2.9394212485	 0.126667
H	 0.842878558	-2.6399215155	 2.7437089521	 0.155177
H	 0.089045295	-3.1735355651	 1.2590629184	 0.157324
57.0034	86.7048	180.7461	262.5537	329.7237	358.6739	408.7337	488.1904	535.0125	559.1368	640.2737	651.6137	798.066	865.4398	911.3369	932.5266	973.7183	1001.4055	1026.5091	1086.1714	1110.6711	1134.8197	1199.5859	1230.1002	1262.2357	1308.6946	1333.1799	1354.4162	1396.4303	1423.1911	1443.1268	1502.9157	1510.8681	1757.0652	1865.6944	2980.4416	2990.95	3053.1663	3094.6041	3099.3508	3137.5486	3463.7418
N=C1COCCC(=O)O1	[NH][C]1COCCC(=O)O1	
InChI=1S/C5H7NO3/c6-4-3-8-2-1-5(7)9-4/h6H,1-3H2	InChI=1S/C5H7NO3/c6-4-3-8-2-1-5(7)9-4/h6H,1-3H2
