12
gdb 129012	4.23474	1.75037	1.23847	1.8741	67.3	-0.2691	-0.077	0.1921	885.3946	0.08269	-427.883929	-427.878344	-427.8774	-427.913876	21.817	
N	 0.006138934	 1.3019804431	 0.0094149098	-0.320583
N	 1.2880876003	 1.7773987924	-0.0002804371	-0.076728
N	 2.1097283241	 0.785101504	-0.0138477727	-0.26853
C	 1.3721532405	-0.3796388933	-0.0133228677	 0.231156
C	 0.0071314964	-0.0530748072	 0.0017221086	 0.44626
N	-1.0039137049	-0.9207487672	 0.0065734233	-0.345816
C	-0.574432907	-2.181330775	-0.0047249785	 0.068738
N	 0.6974441716	-2.6335531548	-0.0195834423	-0.257718
C	 1.6811349282	-1.7396928812	-0.024023024	-0.047382
H	-0.766490482	 1.9487008624	 0.0205615595	 0.292863
H	-1.344706273	-2.9475103667	-0.0016231027	 0.13252
H	 2.7046506516	-2.1052763065	-0.0359920263	 0.145221
231.2487	251.9911	429.0326	437.6071	543.4913	564.5192	627.6549	667.4863	712.3683	809.5318	839.3633	929.0726	961.6961	996.4899	1006.6168	1015.6984	1132.0736	1234.5202	1283.7925	1302.9444	1323.0926	1372.1159	1421.8572	1435.4514	1495.01	1612.2355	1645.9586	3171.5207	3180.8756	3661.4178
N1N=NC2=C1N=CN=C2	[nH]1nnc2c1ncnc2	
InChI=1S/C4H3N5/c1-3-4(6-2-5-1)8-9-7-3/h1-2H,(H,5,6,7,8,9)	InChI=1S/C4H3N5/c1-3-4(6-2-5-1)8-9-7-3/h1-2H,(H,5,6,7,8,9)
