21
gdb 8401	3.63414	1.61401	1.40254	2.0136	77.98	-0.2227	0.0705	0.2933	996.8438	0.18907	-329.055911	-329.047734	-329.04679	-329.088509	31.501	
C	-0.0103490564	 1.547344273	 0.0234148357	-0.392652
C	-0.0194108301	 0.0117036341	 0.038626238	-0.111295
C	 0.7832369957	-0.5406132804	 1.2257266304	-0.39265
C	-1.4371194783	-0.5277628261	 0.03757634	 0.351092
C	-2.5780193635	-0.2900877152	-0.984672608	-0.220556
N	-3.2596432404	-1.2274104507	 0.0255928619	-0.145863
C	-1.9291059681	-1.9972557951	-0.0035501842	-0.220548
C	-2.5695980874	-0.3545925049	 1.087930436	-0.206741
H	 1.0134848736	 1.9321405964	-0.0191180784	 0.112476
H	-0.5540315985	 1.9438286549	-0.8399351578	 0.115206
H	-0.4792130341	 1.9512459119	 0.9281832476	 0.115653
H	 0.4581358211	-0.3403046951	-0.8878809171	 0.072899
H	 0.3459861576	-0.2192960874	 2.1781653602	 0.115662
H	 0.8059721576	-1.6349750226	 1.2210110311	 0.115197
H	 1.817516992	-0.1833326998	 1.198776079	 0.112477
H	-3.0352949238	 0.7025483254	-1.0321804037	 0.097158
H	-2.4747579649	-0.7266090626	-1.9828942782	 0.095327
H	-1.7753610964	-2.5665567913	-0.9254618386	 0.095329
H	-1.7710310725	-2.6235197253	 0.8793379864	 0.097157
H	-2.4608489725	-0.8538697097	 2.0550555634	 0.097337
H	-3.0260628608	 0.6330280606	 1.2005609862	 0.097335
53.9247	172.1851	185.8397	209.3199	250.9344	311.8373	408.6543	451.3934	574.7844	593.133	614.6248	790.4165	799.1891	851.8011	909.9404	924.9348	936.19	960.0209	961.4401	971.7243	994.5466	1025.428	1073.1354	1107.7976	1160.9332	1166.1065	1168.4855	1180.7387	1193.5539	1197.1643	1200.4619	1267.3276	1318.1943	1343.0756	1371.5791	1397.467	1419.792	1486.8239	1490.9115	1502.124	1508.5318	1510.699	1512.0041	1563.446	2994.4168	3026.9376	3030.9867	3037.7027	3039.7728	3050.5131	3092.653	3098.2688	3100.7296	3103.3902	3104.0226	3108.7887	3111.3676
CC(C)C12CN(C1)C2	CC(C)[C@@]12CN(C1)C2	
InChI=1S/C7H13N/c1-6(2)7-3-8(4-7)5-7/h6H,3-5H2,1-2H3	InChI=1S/C7H13N/c1-6(2)7-3-8(4-7)5-7/h6H,3-5H2,1-2H3
