20
gdb 122844	3.35122	0.90018	0.76265	4.4644	75.17	-0.2327	0.0086	0.2413	1532.8005	0.17004	-477.437534	-477.42721	-477.426266	-477.474279	35.867	
C	 0.1551716088	 1.2982379067	-0.6941930894	-0.336352
N	 0.0908451271	-0.1414922703	-0.5204552628	-0.300318
C	 0.8356685792	-1.0079748636	-1.2462183549	 0.429663
O	 1.6240924497	-0.6422491258	-2.1113957879	-0.3889
C	 0.6347150202	-2.490746424	-0.902576175	-0.193568
O	 0.1917201396	-3.1994426526	-2.0349732628	-0.245394
C	 1.0691655647	-4.1930527562	-2.5578149193	-0.077088
C	 2.1692849403	-3.6324189005	-3.4565762571	-0.067307
O	 3.1237675693	-2.8737576648	-2.7512415684	-0.437018
H	 0.9527756746	 1.5073641837	-1.4071380026	 0.17681
H	-0.7874203666	 1.6931821224	-1.0884466595	 0.135123
H	 0.3767313412	 1.7959364415	 0.2552552273	 0.132459
H	-0.5779102942	-0.518871608	 0.1303177418	 0.253742
H	 1.5947517339	-2.8712663487	-0.5337509214	 0.137193
H	-0.1109972438	-2.603072621	-0.1012840602	 0.087986
H	 1.5240227978	-4.7660011794	-1.7361769064	 0.09538
H	 0.4293828435	-4.8697510419	-3.1365157078	 0.099968
H	 2.6917368103	-4.4820428169	-3.9170473584	 0.093489
H	 1.7031163824	-3.052346496	-4.267378179	 0.094476
H	 2.7336883421	-1.9921921047	-2.606091586	 0.309655
31.806	76.7728	91.8461	102.885	162.927	196.9055	249.8819	295.1527	333.2953	358.5333	442.0923	504.9237	514.7979	629.9248	755.4155	764.4001	830.7689	893.8655	913.4706	980.1548	1014.7914	1077.5566	1098.9138	1131.0572	1154.1233	1162.6345	1174.9547	1246.6909	1264.3278	1301.1017	1322.568	1396.1524	1409.2875	1417.3371	1440.9032	1470.8858	1475.0151	1482.502	1486.9309	1493.9346	1500.6011	1574.1556	1752.837	2984.4228	2989.8172	2996.904	3035.7888	3043.4678	3060.6148	3067.405	3091.8429	3161.2253	3579.2037	3649.3212
CNC(=O)COCCO	CNC(=O)COCCO	
InChI=1S/C5H11NO3/c1-6-5(8)4-9-3-2-7/h7H,2-4H2,1H3,(H,6,8)	InChI=1S/C5H11NO3/c1-6-5(8)4-9-3-2-7/h7H,2-4H2,1H3,(H,6,8)
