14
gdb 9054	3.19291	1.33197	1.13623	2.6305	62.35	-0.3212	-0.0165	0.3046	1056.081	0.105671	-378.732572	-378.724057	-378.723113	-378.766427	28.895	
C	 1.7588616994	 1.2647607371	 0.0050731577	-0.400132
C	 0.6399827247	 0.3351377604	-0.4563292537	-0.013204
O	 1.2337075117	-0.6825347506	-1.2534782992	-0.228154
C	 0.3242018092	-1.5477857624	-1.9013842858	-0.203023
C	-0.4632052789	-0.8605900935	-2.9417001303	 0.255873
N	-1.0766273568	-0.2988613155	-3.7433985364	-0.296898
C	-0.0822225252	-0.2615387085	 0.6891166233	 0.267646
N	-0.6509408627	-0.749126417	 1.5688700684	-0.315315
H	 2.4964943083	 0.7081470436	 0.5870678705	 0.152471
H	 2.2463242771	 1.6956127794	-0.8718543234	 0.146873
H	 1.3518357534	 2.0690893824	 0.6219058372	 0.146992
H	-0.0932508859	 0.898970184	-1.051492492	 0.144847
H	 0.9260537369	-2.3330693873	-2.3659282782	 0.172926
H	-0.3656101311	-2.0227460621	-1.1896423081	 0.169097
44.8872	92.502	150.3596	214.4022	229.5856	278.9139	287.7171	374.4637	406.7454	552.2257	599.2799	636.2152	799.2199	875.3847	912.3787	1032.5609	1039.6693	1102.0107	1133.7567	1152.776	1291.2626	1350.3461	1365.1598	1394.3392	1410.0458	1473.9359	1481.5247	1495.1388	2355.307	2360.031	3009.597	3022.4568	3061.0546	3106.6225	3144.9662	3147.4801
CC(OCC#N)C#N	C[C@@H](OCC#N)C#N	
InChI=1S/C5H6N2O/c1-5(4-7)8-3-2-6/h5H,3H2,1H3	InChI=1S/C5H6N2O/c1-5(4-7)8-3-2-6/h5H,3H2,1H3/t5-/m1/s1
