21
gdb 19967	3.67128	1.52539	1.23026	1.0284	79.24	-0.229	0.0796	0.3086	1064.7643	0.189004	-329.086617	-329.078323	-329.077379	-329.119463	31.468	
C	-0.1961234351	 1.5066935652	 0.0691082168	-0.380847
C	-0.0011746798	-0.006175235	 0.0299825666	-0.0121
C	 1.142553172	-0.4753422488	-0.9205501472	-0.223886
C	 2.0797491989	-0.6104570545	 0.3105204679	-0.242115
C	 0.8251346756	-0.5984623861	 1.2180033635	 0.082914
N	 0.9087297997	 0.1870875545	 2.432989184	-0.060024
C	-0.0470850816	-0.1444051403	 3.4874102039	-0.225018
C	 1.3871609624	-0.517068532	 3.6200067358	-0.22474
H	 0.7496101677	 2.0327929357	 0.2288002538	 0.120871
H	-0.6249930279	 1.8571315133	-0.8763302029	 0.10377
H	-0.8708107135	 1.8007375866	 0.8787678469	 0.115439
H	-0.9672437769	-0.4943922114	-0.1325506045	 0.059896
H	 0.9286610652	-1.4399866345	-1.3886452298	 0.096271
H	 1.4456402706	 0.2273762327	-1.7010090069	 0.095443
H	 2.7339952665	-1.4837992898	 0.3642141038	 0.0911
H	 2.6793548595	 0.2886886681	 0.4731603246	 0.11054
H	 0.4940645455	-1.6320034615	 1.4240910284	 0.04614
H	-0.4527906898	 0.6979173006	 4.0404174452	 0.114702
H	-0.7550638309	-0.9504134634	 3.2996004621	 0.108471
H	 1.638002334	-1.5722335764	 3.5205922958	 0.108328
H	 2.0475266081	 0.0477782071	 4.2717900423	 0.114845
75.5728	102.7288	162.7383	225.1697	253.116	294.5736	366.8933	433.7593	505.5747	659.6017	743.0895	787.9854	819.1325	884.9615	893.2011	897.2293	920.2033	954.7835	969.5006	1015.8725	1035.9228	1076.5981	1099.8907	1113.7506	1116.106	1127.5249	1168.5961	1177.2458	1205.7839	1218.445	1250.7895	1262.9524	1285.3306	1293.8445	1322.8859	1364.0896	1381.4011	1414.0273	1479.2323	1489.8054	1491.5448	1494.7324	1499.3871	1516.3463	2927.7912	3033.0228	3044.8389	3056.9596	3065.3064	3091.1028	3095.9706	3098.9228	3101.2077	3110.7619	3121.5443	3174.6558	3189.11
CC1CCC1N1CC1	C[C@H]1CC[C@H]1N1CC1	
InChI=1S/C7H13N/c1-6-2-3-7(6)8-4-5-8/h6-7H,2-5H2,1H3	InChI=1S/C7H13N/c1-6-2-3-7(6)8-4-5-8/h6-7H,2-5H2,1H3/t6-,7+/m0/s1
