21
gdb 77669	2.18415	1.60832	1.33851	0.2892	78.03	-0.2129	0.0698	0.2827	1098.4221	0.181305	-424.219334	-424.20989	-424.208946	-424.252737	36.034	
C	-0.2139233481	 1.5754611764	 0.0405544742	-0.48027
C	 0.0939074241	 0.0974167142	 0.015766495	 0.225784
C	 0.6279421244	-0.5087162112	-1.2781453446	-0.293015
C	 1.3524456312	-1.7915886397	-0.8192869088	-0.097609
O	 1.6804686321	-1.6140551319	 0.5585920999	-0.298104
C	 0.8149334264	-0.6493336307	 1.1186903086	 0.354366
C	 1.366546839	-0.0560112806	 2.3824138551	-0.478643
C	-0.673690589	-0.8701857542	 0.9040728952	-0.036297
O	-1.5895049626	-0.2850088904	 1.7881798477	-0.423224
H	 0.6843409195	 2.1659628529	-0.173219049	 0.111618
H	-0.9652061283	 1.8285034898	-0.7165037933	 0.117831
H	-0.6116764239	 1.8832142019	 1.0089460485	 0.136096
H	-0.1532351258	-0.7233248442	-2.0148165011	 0.103495
H	 1.3300270821	 0.1977464776	-1.7353050503	 0.105998
H	 0.7078260625	-2.6726905916	-0.9425849378	 0.098508
H	 2.281658182	-1.9822510874	-1.3647317915	 0.107569
H	 2.286760199	 0.5019574624	 2.183085778	 0.124391
H	 0.6403010374	 0.617992584	 2.8411005949	 0.127703
H	 1.6055541895	-0.848364409	 3.100237024	 0.123312
H	-1.0010555306	-1.818954476	 0.475505622	 0.080574
H	-1.580782961	-0.7962047823	 2.6043704134	 0.289917
154.2755	169.3726	178.4161	183.0143	193.5619	244.6893	275.2492	307.8035	340.7458	379.2313	455.237	508.2513	607.7778	672.6754	706.7976	715.6126	855.1731	889.2482	925.2823	946.7781	988.4145	1005.8844	1042.5636	1063.9466	1103.7152	1127.3298	1152.4592	1185.7985	1213.2458	1231.1969	1241.1239	1253.7256	1292.4295	1340.8614	1363.0812	1388.7514	1408.5424	1420.3487	1452.9141	1481.7976	1490.3045	1494.0753	1499.3803	1513.5069	1529.2726	3001.3204	3028.0396	3036.791	3038.3513	3070.3649	3080.0931	3081.3657	3085.8182	3097.2781	3131.7337	3135.9489	3802.811
CC12CCOC1(C)C2O	C[C@@]12CCO[C@]1(C)[C@H]2O	
InChI=1S/C7H12O2/c1-6-3-4-9-7(6,2)5(6)8/h5,8H,3-4H2,1-2H3	InChI=1S/C7H12O2/c1-6-3-4-9-7(6,2)5(6)8/h5,8H,3-4H2,1-2H3/t5-,6-,7+/m0/s1
