17
gdb 74802	2.72425	1.63008	1.15574	2.7027	75.38	-0.2439	-0.0561	0.1878	1068.3923	0.135041	-421.848496	-421.840103	-421.839158	-421.88124	31.842	
C	 0.051334262	 1.4866277466	 0.0611552168	-0.492458
C	-0.0073678218	-0.002036916	-0.0441295849	 0.188912
C	-0.0143253341	-0.7881561419	-1.1367570489	-0.165359
C	-0.023964618	-2.2496462845	-0.8090257868	-0.167305
C	 1.2341481265	-2.7146498787	-0.0758462381	-0.336021
C	-0.0201769926	-2.3123526722	 0.6859238869	 0.348948
O	-0.7088273438	-3.2422817262	 1.4435373096	-0.473201
C	-0.0925529726	-0.8794487994	 1.1561062966	 0.265683
O	-0.2649446092	-0.5608294791	 2.3141885461	-0.355306
H	 0.9692025932	 1.8102746854	 0.565402521	 0.139921
H	 0.0125807575	 1.9618580297	-0.9221996527	 0.124204
H	-0.7815457551	 1.8605850616	 0.6659552519	 0.146697
H	 0.0482564027	-0.4262033836	-2.1581321461	 0.114295
H	-0.5727140676	-2.9571002655	-1.4182263206	 0.113143
H	 1.4292239032	-3.7825492857	-0.0652883707	 0.131165
H	 2.1094268117	-2.0735092174	-0.0875436374	 0.120341
H	-0.7734781819	-2.8496918429	 2.3266340373	 0.296339
107.3606	122.6407	186.6255	247.7831	273.2205	331.6302	338.8766	385.8392	456.6058	512.8294	566.9433	650.1239	697.3105	791.3996	850.1153	858.2718	902.7349	909.8885	960.9943	984.1642	1012.9518	1056.7582	1065.0246	1068.871	1074.2302	1178.484	1224.0088	1265.2949	1340.7275	1384.1874	1414.4367	1430.8158	1474.5272	1483.7619	1492.6766	1674.4991	1797.7669	3034.4931	3088.2651	3121.1979	3123.4697	3183.234	3196.8585	3222.3028	3731.8546
CC1=CC2CC2(O)C1=O	CC1=C[C@H]2C[C@@]2(O)C1=O	
InChI=1S/C7H8O2/c1-4-2-5-3-7(5,9)6(4)8/h2,5,9H,3H2,1H3	InChI=1S/C7H8O2/c1-4-2-5-3-7(5,9)6(4)8/h2,5,9H,3H2,1H3/t5-,7-/m0/s1
