15
gdb 27347	2.07545	1.85527	0.98558	2.9294	73.19	-0.2316	-0.0202	0.2115	1137.3289	0.113801	-454.000137	-453.992376	-453.991432	-454.03248	29.219	
C	 0.0977234738	 1.450534877	 0.0088238442	-0.475068
C	-0.0566852161	-0.0299114067	-0.0042196429	 0.364629
C	-1.1776170508	-0.7480746681	-0.1087712767	-0.21802
C	-1.1360770232	-2.2091529861	-0.103077106	 0.333777
N	-2.208180194	-2.8971896908	-0.2034111773	-0.533219
N	 0.1477276544	-2.7847543004	 0.0186593359	-0.446794
C	 1.1523886611	-2.0070950608	 0.1120869326	 0.487807
O	 2.4013998072	-2.4545706284	 0.2303090913	-0.38243
O	 1.1725749635	-0.6624877676	 0.1120558886	-0.234604
H	 0.7382496463	 1.7792375546	-0.816885269	 0.15013
H	-0.8757811923	 1.9339756195	-0.0833457281	 0.145531
H	 0.5726668901	 1.7807596448	 0.9392065629	 0.150131
H	-2.1381496782	-0.2595513275	-0.1995869693	 0.123632
H	-1.9677633449	-3.8904139789	-0.1795549994	 0.213808
H	 2.3390266531	-3.4200177007	 0.2255480333	 0.320691
127.6277	161.2786	180.6498	216.3804	289.1702	363.9592	503.1382	540.158	547.4281	556.1991	561.3786	639.0621	709.4832	765.7381	883.3621	920.4254	921.5637	941.5318	994.0352	1069.3583	1072.0368	1138.0871	1186.7188	1259.1234	1281.8546	1396.9381	1421.8485	1457.5867	1468.7872	1483.7884	1669.062	1714.0856	1753.8111	3039.3263	3093.9073	3147.1367	3232.1096	3459.9753	3784.9506
CC1=CC(=N)N=C(O)O1	C[C@@H]1C=C([NH])N=C(O)O1	
InChI=1S/C5H6N2O2/c1-3-2-4(6)7-5(8)9-3/h2H,1H3,(H2,6,7,8)	InChI=1S/C5H7N2O2/c1-3-2-4(6)7-5(8)9-3/h2-3,6H,1H3,(H,7,8)/t3-/m1/s1
