14
gdb 128002	2.69939	1.63407	1.02439	2.3172	70.68	-0.2646	-0.0574	0.2072	1090.253	0.099576	-469.964079	-469.95579	-469.954846	-469.999118	28.646	
C	-0.1412892798	 1.4237453218	 0.1099659832	-0.326376
N	-0.1991571217	-0.0288477519	 0.1533804699	-0.246573
C	 0.625525893	-0.6536828966	 0.8672307486	 0.367358
O	 1.5750894755	 0.0254571667	 1.6068133514	-0.289374
N	 2.5245620747	-0.6453023427	 2.3947628273	-0.122101
C	 2.4521020641	-1.9125682596	 2.404204158	 0.151095
O	 1.5810808511	-2.7152692321	 1.7562534058	-0.215192
C	 0.6074392685	-2.1425459268	 0.9450833074	 0.32191
N	-0.22002977	-2.8585734411	 0.3296233986	-0.459738
H	 0.8451253867	 1.7808361901	-0.2107535238	 0.137506
H	-0.8969072883	 1.7864849335	-0.588748694	 0.131175
H	-0.3341064645	 1.8595011351	 1.0983004638	 0.138297
H	 3.1689055359	-2.4615224397	 3.0020084023	 0.170498
H	-0.0540811552	-3.8480526068	 0.5230390015	 0.241515
15.5272	73.8366	120.7458	199.3423	201.4177	359.1211	494.4093	511.9533	537.2031	558.903	566.0025	718.3363	754.31	899.7996	915.2877	934.0494	954.0758	981.0615	1045.2237	1099.4381	1114.9261	1170.7015	1220.5792	1310.7394	1367.3051	1432.3283	1482.6371	1496.7991	1715.6696	1757.7422	1773.7766	3016.296	3071.2029	3125.177	3232.0653	3480.8947
CN=C1ON=COC1=N	C[N]C1=C(OC=NO1)[NH]	
InChI=1S/C4H5N3O2/c1-6-4-3(5)8-2-7-9-4/h2,5H,1H3	InChI=1S/C4H5N3O2/c1-6-4-3(5)8-2-7-9-4/h2,5H,1H3
