17
gdb 74947	3.57024	1.44761	1.22316	1.1544	73.71	-0.2196	0.0133	0.2329	1033.991	0.139432	-418.048906	-418.041745	-418.040801	-418.080519	28.504	
N	-0.0277122864	 1.4052448108	 0.0727350638	-0.575124
C	-0.0746883103	 0.0387914369	-0.001913989	 0.460659
N	-1.1128530485	-0.691936918	 0.1291972924	-0.354078
C	-0.682426106	-2.0719204795	-0.1052992652	-0.010712
C	-1.373124219	-2.7300431938	-1.3297184505	-0.264524
C	-0.302066258	-2.7357176651	-2.3901918451	-0.0527
C	 0.8828215667	-2.3212539242	-1.9442563801	-0.093802
C	 0.8293749621	-1.9443173268	-0.4904766505	 0.041224
O	 1.1264482731	-0.5356366768	-0.2788259208	-0.265152
H	 0.8693371259	 1.7907957822	 0.3234386943	 0.260929
H	-0.8146234197	 1.8156660431	 0.5505156804	 0.266013
H	-0.8447884226	-2.667754455	 0.7991537136	 0.074539
H	-1.7138286753	-3.7496097089	-1.1066822334	 0.10356
H	-2.2583461409	-2.158484668	-1.6268177598	 0.123505
H	-0.4974429419	-3.0636301588	-3.4061393446	 0.098834
H	 1.7934922166	-2.2477558005	-2.5270849133	 0.099358
H	 1.5283383441	-2.5041719779	 0.1372751577	 0.087469
95.5033	149.0122	292.528	332.1888	391.0347	456.3047	490.8787	544.5841	618.2199	671.398	731.9417	763.1299	784.8159	833.355	868.2696	903.1139	952.1522	959.1081	982.3949	1003.5355	1028.2716	1049.0243	1057.2538	1130.0198	1161.4652	1204.1629	1245.7244	1293.3362	1318.0659	1322.7563	1334.7232	1386.7366	1426.6342	1476.4475	1617.7808	1683.7285	1748.1527	3021.2273	3040.8206	3069.1098	3076.6538	3181.0988	3210.5537	3591.3814	3704.8103
NC1=NC2CC=CC2O1	NC1=N[C@H]2CC=C[C@H]2O1	
InChI=1S/C6H8N2O/c7-6-8-4-2-1-3-5(4)9-6/h1,3-5H,2H2,(H2,7,8)	InChI=1S/C6H8N2O/c7-6-8-4-2-1-3-5(4)9-6/h1,3-5H,2H2,(H2,7,8)/t4-,5+/m0/s1
