19
gdb 41307	3.08554	2.05817	1.74338	1.8747	77.48	-0.2251	0.0719	0.2971	860.4942	0.162111	-385.792457	-385.786292	-385.785348	-385.822376	27.469	
C	-0.0053329002	 1.5601985384	-0.2604639291	-0.308275
C	 1.5068057044	 1.597939078	 0.1808938489	-0.308275
C	 1.3155107066	 0.2029013918	 0.8309770861	 0.212937
C	 0.4773408155	 0.083834575	 2.1329987882	-0.283321
C	-0.3907738756	-0.8260267655	 1.2447103336	 0.027126
O	 0.5247378538	-1.9329589141	 1.0348177033	-0.282444
C	 1.5555895465	-1.2475251051	 0.2765027816	 0.027126
C	 0.7688306763	-0.8931290855	-0.9986206082	-0.28332
C	-0.0023516361	 0.0288161046	-0.0151263421	 0.212937
H	-0.6589090727	 2.1141966285	 0.4173944787	 0.113194
H	-0.232911643	 1.8764318181	-1.2815541442	 0.104796
H	 2.1960847031	 1.5987617591	-0.6667272328	 0.113194
H	 1.8063702683	 2.4003800679	 0.8596944789	 0.104796
H	 0.9141187766	-0.3785503957	 3.0207244233	 0.102461
H	 0.0120034284	 1.037329757	 2.3910772096	 0.099795
H	-1.3768869172	-1.2157506826	 1.500688637	 0.072509
H	 2.4793897599	-1.8261411729	 0.3168153968	 0.072509
H	 1.333186796	-0.3078866153	-1.7275171426	 0.099795
H	 0.2492957993	-1.7168185715	-1.4928379271	 0.102461
280.1834	319.691	350.8314	437.2297	498.5291	526.5817	533.2083	674.986	708.9791	782.3582	784.7453	819.008	835.9693	870.1571	907.7491	910.1152	924.3049	939.7543	951.9865	973.7117	991.3783	997.6465	1070.0637	1127.3875	1168.0395	1170.6303	1199.3384	1209.2346	1220.0934	1229.8235	1232.9234	1248.012	1250.6663	1259.5686	1279.6191	1282.5511	1318.8101	1467.7041	1470.9898	1484.882	1496.0821	3059.1347	3062.0985	3068.2721	3070.2666	3103.4798	3104.4433	3107.5963	3117.6002	3129.78	3130.2704
C1CC23CC4OC2CC134	C1C[C@]23C[C@@H]4O[C@H]2C[C@]134	
InChI=1S/C8H10O/c1-2-8-4-5-7(1,8)3-6(8)9-5/h5-6H,1-4H2	InChI=1S/C8H10O/c1-2-8-4-5-7(1,8)3-6(8)9-5/h5-6H,1-4H2/t5-,6-,7-,8-/m0/s1
