16
gdb 88149	2.65693	1.58955	1.18073	2.2898	66.73	-0.2453	0.0115	0.2568	1037.7332	0.124129	-475.008216	-475.000241	-474.999297	-475.04086	29.948	
O	-0.0844661446	 1.3815042734	-0.0782334493	-0.427599
C	 0.0194381482	-0.0009404871	 0.0065454017	 0.07849
C	-0.3727247654	-0.7282748539	 1.271931802	-0.380468
C	-1.2706422107	-0.7988947879	 0.0739622017	 0.281655
O	-2.4746323857	-0.056863004	 0.0814351212	-0.297418
C	-3.1627020164	-0.4708350292	-1.0814104388	 0.008755
O	-2.7451188833	-1.804608442	-1.3580179226	-0.246739
C	-1.5415867944	-2.0112649469	-0.7328414352	 0.347958
N	-0.8099207754	-3.032035515	-0.8275004223	-0.553474
H	-1.0210858169	 1.6011509737	 0.01684968	 0.293231
H	 0.8363447334	-0.3975952266	-0.5871008201	 0.128875
H	 0.1485961146	-1.6436219925	 1.530647791	 0.149861
H	-0.7238641085	-0.1220161339	 2.100426194	 0.132056
H	-4.2371574444	-0.4605613379	-0.8845246394	 0.137079
H	-2.9152508519	 0.1670265766	-1.9430977461	 0.115792
H	-1.2049318787	-3.7167234868	-1.4717546076	 0.231946
92.8874	152.4629	174.0313	211.6605	258.5973	351.1076	409.6036	467.383	554.8589	577.5065	683.0547	723.8003	758.3409	834.8832	859.8737	891.7249	915.3632	991.6649	1001.8449	1025.7993	1049.1574	1096.8853	1113.9403	1156.9389	1163.7289	1194.4609	1233.8222	1290.362	1319.1092	1365.1573	1417.5929	1442.9794	1470.7635	1542.0935	1797.5084	2993.779	3107.3827	3132.5852	3174.561	3232.916	3498.1519	3755.8922
OC1CC11OCOC1=N	O[C@H]1C[C@]21OCO[C]2[NH]	
InChI=1S/C5H7NO3/c6-4-5(1-3(5)7)9-2-8-4/h3,6-7H,1-2H2	InChI=1S/C5H7NO3/c6-4-5(1-3(5)7)9-2-8-4/h3,6-7H,1-2H2/t3-,5+/m0/s1
