21
gdb 68923	2.26086	1.78836	1.25972	1.6346	77.87	-0.2329	0.0809	0.3137	1087.9264	0.182474	-424.215011	-424.206284	-424.20534	-424.247764	34.229	
C	-0.046410536	 1.5322672656	-0.0932980784	-0.477589
C	 0.0298981095	 0.0195706216	-0.0179216231	 0.243789
C	 1.3759856	-0.6719074753	-0.2237408058	-0.403484
C	 0.7174418429	-0.6863981806	 1.1336831907	 0.407747
C	 1.3257017464	 0.0549758489	 2.29779513	-0.4488
O	 0.1540387164	-1.8817976245	 1.6311757704	-0.287379
C	-0.7775532188	-2.5166518322	 0.7914752512	-0.002822
O	-1.7614977395	-1.6439707343	 0.3288144444	-0.223974
C	-1.2125241645	-0.6893437602	-0.5719715506	-0.156939
H	 0.875872103	 2.0114867566	 0.2437771472	 0.117691
H	-0.218719306	 1.8539881412	-1.1278927565	 0.118328
H	-0.8706709996	 1.9206169679	 0.5160464287	 0.123972
H	 1.393888703	-1.5856963006	-0.8097744986	 0.11072
H	 2.2561316996	-0.0491767637	-0.3494436303	 0.108327
H	 1.8524869701	 0.9551805411	 1.9763235147	 0.114786
H	 0.5531760965	 0.337968446	 3.0195783298	 0.126195
H	 2.0426206383	-0.5955170482	 2.8087505128	 0.128477
H	-0.2658042368	-3.0027452787	-0.0606259378	 0.076303
H	-1.2693224672	-3.275606904	 1.4036151583	 0.117871
H	-2.0090458149	 0.0388379278	-0.7453726919	 0.112674
H	-0.9878881524	-1.1772379744	-1.5345107949	 0.094109
126.2798	160.3328	182.9997	202.0637	280.1419	329.0998	375.4028	382.417	410.9002	453.2126	492.7327	521.6494	651.5511	671.8655	784.3718	876.2423	895.3932	928.4149	937.5481	964.2112	998.1089	1010.6431	1041.8207	1075.6628	1110.6501	1111.1639	1121.4386	1169.7156	1217.2629	1231.9633	1273.1128	1300.2331	1329.662	1377.4415	1410.7757	1414.7305	1422.1636	1446.9376	1476.7212	1484.7859	1491.5253	1498.9102	1500.935	1512.0737	1522.6913	2923.3788	2968.2825	3021.9962	3043.9427	3078.3754	3088.7639	3106.2961	3107.0239	3113.2214	3122.8526	3137.4512	3207.3327
CC12CC1(C)OCOC2	C[C@@]12C[C@]1(C)OCOC2	
InChI=1S/C7H12O2/c1-6-3-7(6,2)9-5-8-4-6/h3-5H2,1-2H3	InChI=1S/C7H12O2/c1-6-3-7(6,2)9-5-8-4-6/h3-5H2,1-2H3/t6-,7-/m0/s1
