15
gdb 22768	2.48984	1.28094	0.94942	4.0419	69.55	-0.2747	-0.0304	0.2442	1197.5096	0.111274	-453.893169	-453.884415	-453.883471	-453.927023	31.673	
O	-0.1635785059	 1.3489268325	 0.0130646901	-0.398954
N	 0.0277461098	-0.0478228471	 0.0305258213	-0.223518
C	-1.0868037988	-0.6379605658	 0.10188076	 0.381178
C	-2.5456522125	-0.2205837494	 0.0083168567	 0.061131
O	-2.8716315433	 0.7547547806	-0.9419034947	-0.430664
C	-2.8611336579	-1.6824799073	-0.4238992947	-0.256061
C	-1.4231015338	-2.1231661831	 0.0434323851	-0.255323
C	-0.6470283585	-2.9800143079	-0.8370023552	 0.298142
N	-0.0442463189	-3.6647814747	-1.5462999063	-0.321775
H	 0.7318987863	 1.6818709818	-0.112815199	 0.320298
H	-2.963547096	 0.0108409378	 1.0011668428	 0.096112
H	-2.2473075631	 1.4814273623	-0.8245108899	 0.302878
H	-3.6961354275	-2.1840153322	 0.0634531085	 0.126854
H	-2.9628309599	-1.7375913172	-1.5078633093	 0.151969
H	-1.4451109499	-2.5646425301	 1.0457664446	 0.147732
61.5794	105.409	161.8627	198.9836	298.2272	308.2687	325.1405	407.0569	419.4206	433.0986	505.8895	558.089	641.3262	686.1491	805.4905	851.6083	952.4805	985.9914	996.0745	1030.4152	1087.166	1137.5067	1168.0721	1214.9338	1234.5386	1257.0387	1327.1459	1352.5393	1398.8433	1403.0233	1477.4167	1784.8875	2362.8027	2973.4352	3054.8355	3099.5091	3167.9168	3791.9343	3817.6408
ON=C1C(O)CC1C#N	ON=C1[C@@H](O)C[C@H]1C#N	
InChI=1S/C5H6N2O2/c6-2-3-1-4(8)5(3)7-9/h3-4,8-9H,1H2	InChI=1S/C5H6N2O2/c6-2-3-1-4(8)5(3)7-9/h3-4,8-9H,1H2/t3-,4-/m0/s1
