19
gdb 76058	2.73494	1.2397	1.11432	1.1199	83.	-0.2427	0.0374	0.28	1190.1822	0.157257	-385.827323	-385.818115	-385.81717	-385.861339	34.667	
O	-0.0107685703	 1.4047595453	-0.0569914906	-0.423818
C	-0.0332819597	 0.015762414	-0.0256292302	 0.059722
C	-0.4882099032	-0.7107946445	 1.2423417595	-0.359844
C	-0.8842329651	 0.0982826594	 2.3517574302	 0.3049
C	-1.1966330342	 0.849787877	 3.2410144993	-0.43816
C	-1.3380049481	-0.7138236231	-0.0275729632	 0.31347
C	-2.693978473	-0.0443905095	-0.2532836133	-0.291156
C	-2.961290183	-1.0904211198	-1.3789501456	-0.20501
C	-1.724372852	-1.9114782023	-0.9013709743	-0.304485
H	-0.1534739536	 1.7292147735	 0.8425134615	 0.291391
H	 0.8037338801	-0.4284121786	-0.5613891548	 0.101253
H	 0.0282645922	-1.6354065089	 1.4857854221	 0.111958
H	-1.4923427011	 1.475221667	 4.0466822189	 0.200467
H	-3.3708604677	-0.1416284723	 0.6003017862	 0.108018
H	-2.6505708762	 1.0053944654	-0.5518098895	 0.114721
H	-3.9236542267	-1.604682937	-1.3455307229	 0.101122
H	-2.8247416878	-0.6723929647	-2.378683006	 0.109726
H	-1.0019499244	-2.2118381786	-1.6660617972	 0.101566
H	-2.0005473661	-2.7948985223	-0.31719309	 0.10416
70.2712	110.9046	125.2561	189.9665	217.0603	244.5203	325.1469	383.5086	445.2558	510.7908	579.0076	631.4158	646.3851	663.7712	718.4309	784.3385	809.8169	843.685	869.3831	934.9656	945.2371	957.2468	1032.7924	1070.0218	1093.1619	1133.5745	1138.2635	1173.2761	1212.9503	1223.5533	1248.7336	1260.5873	1277.0975	1314.5831	1337.7737	1376.3428	1436.2376	1476.8493	1481.6946	1504.4156	2219.772	3044.57	3059.1333	3071.1595	3090.255	3109.3022	3122.1302	3128.3637	3143.1118	3501.2326	3740.5789
OC1C(C#C)C11CCC1	O[C@H]1[C@@H](C#C)C21CCC2	
InChI=1S/C8H10O/c1-2-6-7(9)8(6)4-3-5-8/h1,6-7,9H,3-5H2	InChI=1S/C8H10O/c1-2-6-7(9)8(6)4-3-5-8/h1,6-7,9H,3-5H2/t6-,7+/m1/s1
