16
gdb 133110	2.62462	1.52787	0.97362	3.5966	76.95	-0.2053	-0.0117	0.1936	1155.384	0.125604	-442.093682	-442.085794	-442.08485	-442.126202	29.652	
C	 0.002272356	 1.4532299813	-0.1002207932	-0.326846
N	-0.1165223051	 0.0257818062	 0.101121562	-0.378582
C	 0.5788337109	-0.6259856991	 1.0954163709	 0.198915
C	 1.2107910567	-0.006143592	 2.1748707112	-0.180996
C	 1.8444539586	-0.7910484613	 3.1413621497	-0.110151
C	 1.8445434966	-2.1683390112	 3.0056349819	-0.031584
N	 1.2528343053	-2.7830829475	 1.9644797439	-0.311502
C	 0.6653068309	-2.0347973973	 1.0819398288	 0.283059
F	 0.0839310541	-2.6515905517	 0.0373020209	-0.093735
H	 1.0421605409	 1.7851934902	-0.2447313164	 0.121212
H	-0.5755803072	 1.7335545414	-0.9829341462	 0.133059
H	-0.411353139	 2.0022552427	 0.7536824044	 0.1359
H	-0.2926977588	-0.5347121242	-0.7162449768	 0.251152
H	 1.2068105142	 1.0735353185	 2.2627670015	 0.103178
H	 2.335815928	-0.3241422851	 3.9874315497	 0.098094
H	 2.3265662381	-2.812650711	 3.7333839476	 0.108827
99.2922	159.418	196.1913	213.9062	321.3128	335.2606	433.6811	482.0995	531.6678	573.1155	590.8299	597.1196	767.7446	786.4142	813.7421	868.7768	909.6559	963.502	1070.2797	1097.9283	1123.8124	1154.747	1184.09	1226.3641	1288.7719	1326.334	1383.9233	1457.8371	1464.5197	1483.6403	1498.1305	1520.3683	1542.248	1618.765	1651.2239	2983.5757	3055.558	3127.473	3177.953	3195.8239	3210.5691	3646.0396
CNC1=CC=CN=C1F	CNc1cccnc1F	
InChI=1S/C6H7FN2/c1-8-5-3-2-4-9-6(5)7/h2-4,8H,1H3	InChI=1S/C6H7FN2/c1-8-5-3-2-4-9-6(5)7/h2-4,8H,1H3
