20
gdb 107329	2.6291	1.53011	1.19242	2.4649	78.91	-0.232	0.0026	0.2346	1112.2081	0.171717	-403.132115	-403.123567	-403.122623	-403.165075	33.387	
C	 0.0207011162	 1.4743328842	 0.3434442674	-0.376064
C	-0.0166892692	 0.0242293338	-0.1615596932	-0.310535
C	-1.411753166	-0.5478892618	-0.1988049314	 0.325852
N	-2.0994934355	-0.9329749212	 1.0598922104	-0.384922
C	-1.7623648847	-1.9681690079	 0.0262130725	-0.151258
C	-2.9281595919	-2.2811353012	-0.855942113	-0.053281
C	-3.3072513202	-1.1920761878	-1.5257026119	-0.11915
C	-2.4513197782	 0.0213958582	-1.1880373545	 0.051415
O	-3.2034761399	 1.0877839222	-0.6298201277	-0.439211
H	 1.0365507964	 1.8776437063	 0.2978102969	 0.109663
H	-0.6354249069	 2.1154209659	-0.2512968689	 0.143315
H	-0.3207049972	 1.5368210005	 1.3820341051	 0.115554
H	 0.4116267549	-0.0257214994	-1.1710757866	 0.105292
H	 0.619146597	-0.6089983288	 0.471583276	 0.089179
H	-1.4040289335	-0.9736262963	 1.8050463902	 0.225838
H	-1.0182871976	-2.7168668021	 0.2773174931	 0.091234
H	-3.4035233843	-3.2543519367	-0.8918236109	 0.102802
H	-4.1646536733	-1.1102370656	-2.1837078824	 0.103564
H	-1.9640517567	 0.4395994576	-2.0773935893	 0.08406
H	-3.4640889394	 0.7675475199	 0.2461776483	 0.286653
88.991	125.3734	194.7053	200.7117	281.4789	313.8498	349.3663	451.4195	496.0294	517.3104	584.9872	644.1719	710.5683	773.7082	783.9542	827.1448	893.1953	904.0979	910.6969	957.2569	964.2029	993.0484	1024.2728	1054.8723	1071.8299	1089.3307	1117.2571	1127.4734	1168.1551	1241.6433	1256.4791	1289.8103	1299.0415	1344.9063	1366.6428	1375.0862	1415.0434	1434.4534	1451.516	1479.6928	1496.234	1506.6955	1668.555	3011.8708	3035.2311	3040.149	3047.2163	3106.1982	3123.4341	3167.0271	3190.9611	3215.4613	3460.0037	3732.3529
CCC12NC1C=CC2O	CC[C@]12N[C@H]1C=C[C@H]2O	
InChI=1S/C7H11NO/c1-2-7-5(8-7)3-4-6(7)9/h3-6,8-9H,2H2,1H3	InChI=1S/C7H11NO/c1-2-7-5(8-7)3-4-6(7)9/h3-6,8-9H,2H2,1H3/t5-,6+,7-/m0/s1
