22
gdb 96565	2.43869	1.45362	1.06381	2.1619	83.54	-0.2506	0.0097	0.2603	1221.2746	0.195733	-404.35846	-404.349671	-404.348727	-404.391472	34.249	
C	 0.1688217757	 1.6640407256	 0.0533507499	-0.391453
C	 0.0136151526	 0.1425091181	 0.0420658311	 0.053238
C	 0.6662307085	-0.4748348776	-1.2124038157	-0.17587
C	 0.7298690233	-2.0119653553	-1.27353526	-0.209496
C	-0.5919763864	-2.7668838943	-1.0166172932	-0.195244
C	-0.8494441851	-3.1713432452	 0.43811168	-0.072901
O	-1.0213547764	-2.0638480522	 1.3310449449	-0.231534
C	 0.134057922	-1.4477994884	 1.7478695271	 0.085456
N	 0.6403126971	-0.4111155603	 1.2446677268	-0.210109
H	 1.2266152129	 1.94211937	 0.0932036632	 0.120181
H	-0.2756420794	 2.1062814085	-0.8444748847	 0.104706
H	-0.3260722911	 2.0964781676	 0.9276791011	 0.115729
H	-1.0554544735	-0.1045571784	 0.0254316918	 0.084215
H	 0.1097868418	-0.1012557537	-2.0817086047	 0.095955
H	 1.6879003396	-0.0860515781	-1.3071512061	 0.100528
H	 1.0977296991	-2.277809266	-2.2710093569	 0.096158
H	 1.4913390302	-2.3755594226	-0.5728916496	 0.104113
H	-1.4460521227	-2.1847322214	-1.3840151389	 0.107006
H	-0.590400985	-3.7022706692	-1.5911173668	 0.09885
H	-1.7792988725	-3.7432964324	 0.5089311515	 0.113799
H	-0.0318062647	-3.8122022403	 0.8008380879	 0.098903
H	 0.589479174	-1.9144160145	 2.6253649913	 0.107768
111.1465	171.5299	200.1341	220.3663	232.3539	280.8404	328.7569	341.3063	422.6683	462.4087	510.666	594.2429	703.0177	737.9349	812.755	841.2165	878.6573	919.5274	952.6495	968.5454	974.0436	1020.8488	1038.7411	1093.9471	1104.2277	1129.0575	1147.1232	1165.7768	1220.3817	1247.9977	1286.5496	1315.5843	1350.2238	1365.6959	1378.3189	1385.6148	1389.5497	1402.0966	1409.759	1419.2071	1472.1308	1479.0057	1488.5886	1491.8472	1498.5003	1499.2261	1730.1647	2995.9662	3017.6008	3020.2357	3022.3725	3031.2238	3035.6702	3057.139	3064.2579	3070.4737	3086.6464	3099.0535	3107.5475	3113.5348
CC1CCCCOC=N1	C[C@H]1CCCCOC=N1	
InChI=1S/C7H13NO/c1-7-4-2-3-5-9-6-8-7/h6-7H,2-5H2,1H3/b8-6-	InChI=1S/C7H13NO/c1-7-4-2-3-5-9-6-8-7/h6-7H,2-5H2,1H3/b8-6-/t7-/m0/s1
