18
gdb 37371	2.95973	1.84359	1.6269	2.0678	69.45	-0.22	0.0768	0.2968	887.3388	0.151392	-439.053025	-439.046653	-439.045709	-439.083417	26.857	
C	-0.0089610781	 1.5400877035	 0.0261123043	-0.086873
O	 1.3010980494	 2.0915268304	-0.0582864134	-0.252985
C	 2.1402534892	 1.5130741289	-1.0526055164	-0.086873
C	 2.0803245596	-0.0263732406	-1.0154863368	-0.072655
N	 0.6859938784	-0.469332634	-1.2196708715	-0.299579
C	 0.0256906901	-0.0005488928	 0.0157641872	-0.072654
C	 1.0214482152	-0.4616743037	 1.0793436791	 0.078494
O	 1.6817715492	-1.6953412776	 0.794992551	-0.252691
C	 2.3289567554	-0.4781095003	 0.4230848829	 0.078495
H	-0.4386124009	 1.9426269322	 0.9504162515	 0.10989
H	-0.6341456976	 1.8857511686	-0.8153637669	 0.086571
H	 1.84601295	 1.8545851401	-2.0601841369	 0.086571
H	 3.1460315458	 1.8975664016	-0.8487594915	 0.10989
H	 2.7493752345	-0.4687174052	-1.7607992856	 0.080621
H	 0.2819382835	-0.0176514202	-2.0360095943	 0.212455
H	-0.9803856305	-0.4218411141	 0.1112278321	 0.080621
H	 0.8712489737	-0.214505316	 2.1257224905	 0.100351
H	 3.262556383	-0.2445651508	 0.9254892846	 0.100351
235.0369	247.9792	332.3073	346.6305	441.7217	467.2694	534.0393	638.0517	785.242	786.6154	823.5547	847.9806	860.2322	881.3609	887.3565	938.0755	972.7168	1000.0099	1000.2094	1018.1327	1065.2268	1079.9474	1111.7165	1125.9166	1133.9831	1208.8434	1244.6749	1262.019	1278.7702	1283.2974	1306.4419	1319.1238	1364.6651	1366.7591	1408.1895	1434.5583	1438.6159	1491.7202	1497.6399	2953.2752	2960.26	3056.6433	3057.8978	3062.2109	3064.5909	3159.8419	3172.0032	3499.9861
C1OCC2NC1C1OC21	C1OC[C@@H]2N[C@H]1[C@H]1O[C@@H]21	
InChI=1S/C6H9NO2/c1-3-5-6(9-5)4(7-3)2-8-1/h3-7H,1-2H2	InChI=1S/C6H9NO2/c1-3-5-6(9-5)4(7-3)2-8-1/h3-7H,1-2H2/t3-,4+,5-,6+
