18
gdb 60319	3.78223	0.75133	0.64175	4.617	77.6	-0.2461	-0.0355	0.2106	1692.4766	0.146477	-435.2822	-435.27202	-435.271076	-435.318302	35.91	
C	 0.0395095586	 1.53528564	 0.0645703971	-0.401687
C	-0.0610261697	 0.0155823105	-0.0288076075	 0.100346
O	 0.7096104093	-0.6301940374	 0.9881643765	-0.440251
C	-1.4917066109	-0.476713912	 0.1680219998	-0.122259
N	-1.5077797516	-1.9267702554	 0.1577843866	-0.325822
C	-2.6583741562	-2.6293099978	-0.0238934956	 0.303892
N	-3.7766593443	-2.0773275276	-0.3223857032	-0.529629
C	-2.4961019999	-4.0702088865	 0.1222429121	 0.226309
N	-2.4136161342	-5.2179540563	 0.2362404945	-0.324458
H	 1.0752967743	 1.8624941064	-0.0749002185	 0.112742
H	-0.568500858	 2.016341293	-0.7082946281	 0.126307
H	-0.299158887	 1.882508819	 1.0452839686	 0.132434
H	 0.2825586896	-0.3183470948	-1.0203917614	 0.081694
H	 1.639395557	-0.4354678034	 0.8366527883	 0.290893
H	-1.8908493208	-0.0838429336	 1.1147237798	 0.118195
H	-2.1387921309	-0.1139446099	-0.6337618789	 0.143035
H	-0.7231021084	-2.3744501834	 0.6059590906	 0.270352
H	-4.5010579468	-2.7752406309	-0.4685369409	 0.23791
43.9581	64.3394	92.3863	173.5204	208.6278	231.8137	268.6493	288.5326	340.9594	352.3018	463.5608	467.5554	503.7422	549.24	617.746	726.6916	818.0247	838.3586	904.753	930.6352	957.109	1066.3873	1087.5041	1134.8537	1155.7524	1182.3994	1219.1561	1284.048	1318.4271	1353.5904	1393.6237	1409.006	1432.8238	1490.4247	1495.6444	1504.7133	1538.4257	1684.1758	2347.7338	2980.9013	3006.6211	3035.6612	3103.8542	3110.2845	3119.5289	3535.2082	3634.0001	3828.9166
CC(O)CNC(=N)C#N	C[C@@H](O)CNC(=N)C#N	
InChI=1S/C5H9N3O/c1-4(9)3-8-5(7)2-6/h4,9H,3H2,1H3,(H2,7,8)	InChI=1S/C5H9N3O/c1-4(9)3-8-5(7)2-6/h4,9H,3H2,1H3,(H2,7,8)/t4-/m1/s1
