19
gdb 83344	2.11868	1.64998	1.53386	2.6881	69.76	-0.2355	0.0573	0.2928	1006.1857	0.159534	-460.144626	-460.136129	-460.135185	-460.176904	33.804	
O	 0.1889269426	 1.4591687098	-0.1304772269	-0.448915
C	 0.044099459	 0.0732818037	 0.0015469779	 0.101221
C	 0.1534144914	-0.6366799145	 1.3877217501	-0.133488
C	-0.9483972101	 0.0711021539	 2.2049384094	-0.242845
C	-2.0956439507	 0.0892705856	 1.1369639703	-0.282462
C	-1.3666924979	-0.6214331856	-0.007702308	 0.377234
O	-2.1247538862	-0.8320261947	-1.1476961545	-0.493673
C	-0.6665424505	-1.7924089988	 0.7432889845	 0.075042
O	-0.0011564193	-2.6129192294	-0.1954793049	-0.457201
H	-0.4812666993	 1.9005453955	 0.4003256541	 0.283791
H	 0.7105153366	-0.3794526708	-0.730804033	 0.097111
H	 1.114623368	-0.8139818284	 1.8697194638	 0.062415
H	-1.2249136259	-0.4877068309	 3.103040455	 0.103878
H	-0.6445029786	 1.0722461717	 2.5238928788	 0.101777
H	-2.9851636124	-0.4628537873	 1.4497061586	 0.110726
H	-2.4216714652	 1.0959168704	 0.8546311647	 0.100718
H	-1.6205387955	-1.424815948	-1.7177804266	 0.290958
H	-1.29138999	-2.3861385521	 1.423975403	 0.064303
H	 0.6097815139	-3.1885767402	 0.2739784538	 0.289412
180.8652	203.7205	233.113	244.6879	260.1403	283.7757	300.9701	374.4459	408.5079	475.3452	509.4568	621.6027	656.6097	733.7899	792.1455	811.8679	843.7889	890.3587	927.4565	961.4281	990.3928	1029.5292	1058.4394	1105.941	1121.3387	1155.8201	1171.5154	1179.8063	1198.8292	1236.6913	1243.0343	1260.7419	1292.2563	1296.2859	1320.2697	1342.4509	1404.3767	1418.504	1455.7242	1498.6681	1520.3499	3010.224	3047.0498	3058.6803	3088.5604	3106.3329	3117.6868	3138.3961	3793.1516	3825.1269	3827.2055
OC1C2CCC1(O)C2O	O[C@H]1[C@H]2CC[C@]1(O)[C@H]2O	
InChI=1S/C6H10O3/c7-4-3-1-2-6(4,9)5(3)8/h3-5,7-9H,1-2H2	InChI=1S/C6H10O3/c7-4-3-1-2-6(4,9)5(3)8/h3-5,7-9H,1-2H2/t3-,4-,5-,6-/m0/s1
