19
gdb 37945	3.20549	1.75172	1.35218	1.169	80.67	-0.2381	0.0072	0.2453	979.5193	0.162509	-385.832731	-385.826061	-385.825117	-385.86349	27.993	
C	-0.0308863803	 1.6078956374	 0.0426882008	-0.239995
C	 1.4677926083	 1.2090273805	-0.0500680841	-0.092765
C	 1.1405652646	 0.1892187822	 1.0870941697	 0.175181
O	 2.0225774007	-0.8453632197	 1.4252544645	-0.276581
C	 1.9148758903	-2.0873440071	 0.7528185844	-0.139766
C	 2.2625797015	-2.0244337753	-0.7107436911	-0.083171
C	 1.8806292624	-1.0246728307	-1.5022570464	-0.08341
C	 1.021485436	 0.1354212661	-1.1089551528	-0.006573
C	-0.0281483647	 0.0518528953	 0.0614377233	-0.122284
H	-0.3545213108	 2.110856488	 0.957187981	 0.093922
H	-0.4616809117	 2.0718643411	-0.8463123584	 0.097766
H	 2.3313353441	 1.8717367952	-0.1155520105	 0.074121
H	 0.858085191	 0.6631201735	 2.0335467325	 0.074072
H	 2.606470713	-2.7541946444	 1.276957928	 0.111953
H	 0.9043014602	-2.5078775759	 0.8875626045	 0.102592
H	 2.8585590287	-2.8395587021	-1.1132832201	 0.090768
H	 2.1893794825	-1.038762631	-2.5453304777	 0.086338
H	 0.6053358596	 0.5966990938	-2.0109975448	 0.063714
H	-0.9009422955	-0.6007542272	 0.1143923272	 0.07412
175.4601	178.4916	342.6919	382.5807	400.5209	490.1898	527.6787	640.2995	690.5391	751.8113	760.922	840.6129	864.3784	889.1416	902.6389	916.6952	959.3094	983.7157	994.5672	1020.7917	1042.3482	1062.6754	1083.1627	1086.8523	1092.0458	1144.2972	1168.8031	1178.1769	1216.2185	1226.7281	1241.2495	1253.0404	1277.7324	1291.2531	1398.7403	1408.2965	1424.525	1449.272	1487.7052	1521.0836	1730.6871	2964.7844	3039.4839	3044.1739	3062.8524	3074.8486	3099.1915	3111.2693	3130.2411	3141.2252	3167.313
C1C2C3OCC=CC2C13	C1[C@H]2[C@@H]3OCC=C[C@H]2[C@H]13	
InChI=1S/C8H10O/c1-2-5-6-4-7(5)8(6)9-3-1/h1-2,5-8H,3-4H2	InChI=1S/C8H10O/c1-2-5-6-4-7(5)8(6)9-3-1/h1-2,5-8H,3-4H2/t5-,6-,7+,8+
