22
gdb 120787	4.31866	0.6195	0.58238	4.3384	87.85	-0.2867	0.0385	0.3252	1953.8646	0.19352	-367.225207	-367.214964	-367.21402	-367.261569	36.748	
C	-0.3097095632	 1.5368732533	-0.0329772143	-0.383478
C	-0.2554351979	 0.0155021353	-0.1913522489	-0.160384
C	 0.9374923469	-0.4586680856	-1.0339634179	-0.194197
C	 0.9839051376	-1.9672002941	-1.1760464167	-0.016152
C	 0.2287705936	-2.67513071	-2.2773456159	-0.283969
C	 1.7371612079	-2.688004411	-2.2716442498	-0.015317
C	 2.5287137906	-1.9394758108	-3.3350026332	-0.366003
C	 2.7123995595	-2.7373842874	-4.5492483172	 0.264256
N	 2.8556335965	-3.3779004064	-5.500296112	-0.307175
H	 0.5954252732	 1.9179144641	 0.4530405483	 0.11491
H	-0.3956271852	 2.0341500723	-1.0056578364	 0.114496
H	-1.1670245718	 1.8440854915	 0.5736697241	 0.115127
H	-0.2053940372	-0.4563973689	 0.7985972659	 0.09721
H	-1.1835408097	-0.3448082815	-0.652297515	 0.10261
H	 0.8816055937	 0.0169079867	-2.021196001	 0.090828
H	 1.8688929615	-0.0998443226	-0.5738630179	 0.096628
H	 1.0006121134	-2.4849154781	-0.2192563349	 0.089481
H	-0.3008190549	-3.5954397404	-2.0592941286	 0.119949
H	-0.2579188669	-2.0515508397	-3.0220709725	 0.115673
H	 2.204513499	-3.6244046331	-1.9818280846	 0.104022
H	 2.0287773789	-1.0068733665	-3.6146015617	 0.149744
H	 3.5195783343	-1.660714987	-2.9557695696	 0.151739
45.5412	78.7848	88.6266	106.5961	160.113	237.3496	243.4108	290.271	357.5155	390.2912	438.8814	484.7811	562.4331	745.0354	791.9181	829.8441	853.3827	887.3506	891.2959	915.826	935.7639	979.7463	1031.84	1047.583	1064.5286	1085.8136	1126.3894	1147.7773	1153.8402	1198.249	1246.1508	1253.2144	1271.2615	1305.0715	1317.8918	1332.4397	1383.3581	1403.4751	1414.5528	1435.2772	1461.4833	1481.2935	1492.6765	1498.1536	1500.3419	1510.3142	2361.7298	3006.215	3021.7513	3029.9241	3037.7565	3040.9755	3060.718	3086.8277	3096.2833	3103.7704	3127.1446	3127.5067	3153.1672	3214.0019
CCCC1CC1CC#N	CCC[C@H]1C[C@H]1CC#N	
InChI=1S/C8H13N/c1-2-3-7-6-8(7)4-5-9/h7-8H,2-4,6H2,1H3	InChI=1S/C8H13N/c1-2-3-7-6-8(7)4-5-9/h7-8H,2-4,6H2,1H3/t7-,8+/m0/s1
