17
gdb 34001	3.39997	1.34016	1.11853	5.2443	77.83	-0.2633	-0.001	0.2623	1092.4218	0.138434	-380.876719	-380.869163	-380.868219	-380.908728	29.263	
N	 0.0121253283	-1.1290561934	 0.5625535847	-0.341105
C	 0.0218114053	-0.0073154346	 0.2831162598	 0.268873
C	 0.0308076722	 1.3842738677	-0.1201093718	 0.132997
C	-0.9851722459	 1.724797215	-1.2059956517	-0.334013
C	-0.7454915423	 3.0622863122	-1.8507868025	-0.062411
C	 0.4027196992	 3.733562453	-1.7802059269	-0.075616
C	 1.615295305	 3.2429207462	-1.0376396643	-0.285737
C	 1.3129168889	 2.1548008419	-0.0262185896	-0.041639
N	 0.2705020794	 2.3380269514	 0.9869621318	-0.347435
H	-0.9601849647	 0.9345695707	-1.9687968912	 0.141954
H	-1.9953769433	 1.6828377371	-0.7778667258	 0.131521
H	-1.5767562202	 3.4730605682	-2.4170469732	 0.101256
H	 0.4977853094	 4.6885953699	-2.2893716188	 0.100755
H	 2.3596520265	 2.861569578	-1.7512644889	 0.131578
H	 2.1087548577	 4.0797534017	-0.5244362357	 0.123824
H	 2.1839025066	 1.6266769191	 0.3533808334	 0.115407
H	-0.254848592	 3.1889785858	 0.7881107206	 0.239791
110.1681	147.9062	174.3729	314.4651	358.9185	399.8348	422.3578	549.6358	565.3034	590.2391	653.2015	688.3882	790.9808	858.7982	873.1844	932.0608	940.1614	969.9376	988.3181	1014.7919	1039.6796	1075.0955	1136.728	1183.8056	1204.4786	1216.291	1247.7453	1301.4483	1333.1598	1358.4177	1376.9572	1412.416	1443.1351	1475.1169	1479.6149	1728.9516	2357.3118	3008.3766	3016.357	3032.0277	3041.142	3143.8911	3157.1853	3178.8775	3474.2986
N#CC12CC=CCC1N2	N#C[C@]12CC=CC[C@H]1N2	
InChI=1S/C7H8N2/c8-5-7-4-2-1-3-6(7)9-7/h1-2,6,9H,3-4H2	InChI=1S/C7H8N2/c8-5-7-4-2-1-3-6(7)9-7/h1-2,6,9H,3-4H2/t6-,7-/m1/s1
