22
gdb 111545	2.61105	1.44242	1.11541	1.7816	85.02	-0.2349	0.0773	0.3121	1203.7167	0.194721	-367.169155	-367.16041	-367.159466	-367.202434	33.95	
C	 0.147226728	 1.5603664883	 0.195721779	-0.378567
C	-0.0887760018	 0.0510434571	 0.0678971887	-0.221688
C	 0.6305567309	-0.5619136895	-1.1294649494	-0.008806
C	 2.1723848969	-0.669883256	-1.2039044343	-0.030359
C	 2.636183188	-1.4953908004	 0.0110022669	-0.245179
C	 1.8786450972	-2.6196058071	-0.6684854579	-0.08152
N	 2.0225447928	-1.988651013	-2.0325168552	-0.204029
C	 0.6723636183	-2.0674711555	-1.3684967373	 0.314447
C	-0.4257807348	-2.9354885437	-1.9025223775	-0.506202
H	 1.2104652489	 1.78649212	 0.3320801823	 0.118308
H	-0.1893371153	 2.0907699772	-0.7020446391	 0.115974
H	-0.3927086235	 1.9774491814	 1.0511316255	 0.113146
H	 0.2212915261	-0.4517517798	 0.9911899831	 0.098182
H	-1.1646022693	-0.1439620867	-0.0325896895	 0.097293
H	 0.2809014193	-0.0860994252	-2.055467743	 0.075549
H	 2.7794883292	 0.1406310398	-1.6026851864	 0.077446
H	 3.7135390384	-1.6766615594	-0.0313973532	 0.110279
H	 2.3568537386	-1.1736980625	 1.0192441979	 0.095045
H	 2.0116814478	-3.6878980507	-0.5331487961	 0.088439
H	-1.1962119039	-3.1101944232	-1.142776063	 0.120513
H	-0.9037042374	-2.4713709258	-2.7718543118	 0.122775
H	-0.0330442245	-3.9081942053	-2.2148062495	 0.128954
75.1477	148.3572	181.3967	196.9938	242.687	265.2821	306.3092	380.0261	498.8389	543.4435	605.1293	711.5937	756.6251	778.6938	805.0472	846.1507	860.0353	932.0844	947.2845	963.6098	994.0833	1000.5903	1028.114	1035.1826	1058.4876	1100.8784	1108.4371	1135.3396	1161.6085	1180.6858	1221.3143	1247.929	1265.8752	1271.0895	1294.7346	1335.2982	1345.9612	1390.0249	1408.6169	1414.0067	1440.8542	1483.226	1484.8527	1493.7195	1500.1698	1501.6797	1512.8108	3019.2037	3023.5263	3028.3802	3031.0586	3045.9487	3062.3362	3091.7072	3097.0366	3101.087	3104.2704	3105.3374	3133.2169	3169.3431
CCC1C2CC3N2C13C	CC[C@H]1[C@H]2C[C@@H]3N2[C@]13C	
InChI=1S/C8H13N/c1-3-5-6-4-7-8(5,2)9(6)7/h5-7H,3-4H2,1-2H3	InChI=1S/C8H13N/c1-3-5-6-4-7-8(5,2)9(6)7/h5-7H,3-4H2,1-2H3/t5-,6+,7-,8+,9?/m0/s1
