15
gdb 131492	3.932	1.2124	1.0608	1.8687	67.49	-0.2474	-0.0353	0.2121	1108.0625	0.11362	-453.926124	-453.918849	-453.917905	-453.958374	27.468	
O	 0.124958742	 1.403219123	 0.1628676385	-0.419075
C	 0.0255522078	 0.0303008362	 0.0497132733	 0.14742
C	-0.4384533372	-0.844791323	 1.1641931953	-0.333063
C	-1.3374693116	-0.6763586371	-0.064437006	-0.199433
C	-2.5482621052	 0.1380951632	 0.0238665594	 0.42027
N	-2.6401817429	 1.2043069442	 0.7883535608	-0.230735
O	-3.9231205128	 1.7002236297	 0.5250740776	-0.151293
C	-4.4564432544	 0.8658671386	-0.3656768579	 0.109345
N	-3.6858939376	-0.10921573	-0.724333566	-0.317567
H	-0.680747208	 1.7454464593	 0.5821993217	 0.305275
H	 0.8004805069	-0.3502391619	-0.6076077989	 0.118622
H	 0.022766376	-1.8158326499	 1.3075744742	 0.124123
H	-0.778241849	-0.3566502617	 2.0716198597	 0.139355
H	-1.4274093758	-1.5070038991	-0.7529329462	 0.115164
H	-5.4633744481	 1.0784738283	-0.6942005755	 0.17159
67.5516	147.0373	188.4687	320.4531	381.5321	432.5079	461.925	531.7518	625.3933	689.6872	755.9791	790.1291	833.5134	907.571	920.3952	930.5462	986.0507	997.9119	1025.0119	1062.9264	1087.6562	1118.9163	1145.0774	1153.3106	1233.6579	1248.4811	1318.0535	1365.5634	1423.7667	1456.3848	1483.5456	1525.34	1590.1763	3132.9923	3170.6286	3195.5411	3227.7556	3267.1474	3673.2893
OC1CC1C1=NOC=N1	O[C@H]1C[C@H]1c1nocn1	
InChI=1S/C5H6N2O2/c8-4-1-3(4)5-6-2-9-7-5/h2-4,8H,1H2	InChI=1S/C5H6N2O2/c8-4-1-3(4)5-6-2-9-7-5/h2-4,8H,1H2/t3-,4+/m1/s1
