21
gdb 53446	4.24195	0.78442	0.69647	1.4051	88.34	-0.2356	0.06	0.2956	1670.6795	0.183273	-387.081786	-387.072345	-387.071401	-387.117926	34.346	
C	-0.0456064903	 1.4920223483	-0.0075871959	-0.499612
C	 0.0128158289	 0.0370255615	 0.006286332	 0.118019
C	 0.0703450866	-1.1663283145	 0.0094686148	 0.014397
C	 0.1058942757	-2.6238253067	 0.0349884327	-0.178235
C	 0.767764107	-3.1786108402	 1.3181879598	-0.19575
C	 0.6720661708	-4.7096856964	 1.3465436377	-0.215677
C	-0.7733175123	-5.1558287386	 1.1192762883	-0.064606
O	-1.298561724	-4.6275697829	-0.0881266082	-0.24382
C	-1.3170516901	-3.2147709648	-0.0942306769	-0.07644
H	 0.4853497576	 1.9043778246	-0.8728353248	 0.147198
H	-1.080551612	 1.8488018287	-0.0547766526	 0.14702
H	 0.409427613	 1.918431652	 0.893394405	 0.146541
H	 0.6797069292	-2.9872076291	-0.8292613213	 0.102832
H	 1.8082411187	-2.8452030078	 1.3774028725	 0.104019
H	 0.2490841453	-2.7557030314	 2.1882016481	 0.103267
H	 1.3022455313	-5.1381541541	 0.5574522801	 0.104191
H	 1.035806883	-5.1021785053	 2.3030258211	 0.094174
H	-0.8469653371	-6.2437244035	 1.0327902827	 0.104845
H	-1.4009779243	-4.8402354341	 1.9713982265	 0.083825
H	-1.9418446602	-2.8290323257	 0.729144002	 0.090284
H	-1.7740424368	-2.9110229501	-1.0393269537	 0.113527
13.7151	81.4705	86.9561	199.7789	242.9787	286.733	316.4916	359.6114	401.3292	446.159	494.2607	518.184	548.762	788.9558	843.2675	865.058	883.0847	924.6475	975.9696	1002.915	1039.826	1053.4553	1053.7571	1093.4653	1130.9697	1154.5012	1186.9475	1195.7294	1235.6885	1292.7963	1305.8488	1320.9475	1335.2154	1357.0894	1375.2553	1398.9715	1415.0655	1418.7439	1477.3484	1478.967	1479.1256	1489.5394	1490.9717	1505.1443	2368.5576	2951.9072	2966.0273	3005.7281	3025.1175	3027.9507	3029.7161	3072.3954	3081.974	3085.0732	3085.3673	3085.4403	3096.6278
CC#CC1CCCOC1	CC#C[C@H]1CCCOC1	
InChI=1S/C8H12O/c1-2-4-8-5-3-6-9-7-8/h8H,3,5-7H2,1H3	InChI=1S/C8H12O/c1-2-4-8-5-3-6-9-7-8/h8H,3,5-7H2,1H3/t8-/m0/s1
