19
gdb 8365	5.43905	1.17723	1.15016	2.6434	72.72	-0.2257	0.0802	0.3059	1121.6822	0.165846	-364.966417	-364.958539	-364.957595	-364.999293	28.961	
C	-0.0119114056	 1.362717118	-0.0085664424	-0.218457
O	-0.0024946186	-0.0445731925	-0.0255767009	-0.238118
C	-1.2970305944	-0.6061659998	 0.0196611342	-0.2197
C	-1.1583748478	-2.1048214602	-0.0038742461	 0.32116
C	-0.4262649085	-3.0322411499	 0.9941594956	-0.19442
N	-0.9725155086	-4.0409652244	-0.0344242633	-0.147555
C	-2.2559101447	-3.1907970563	 0.0272967165	-0.218263
C	-0.5096379507	-3.0075416383	-1.0792323498	-0.19443
H	 1.0275671825	 1.6975989904	-0.0463101308	 0.128205
H	-0.5514610004	 1.7787373148	-0.8743556222	 0.104009
H	-0.4799845082	 1.7576893189	 0.9072300336	 0.104008
H	-1.8291368473	-0.2868690045	 0.933479596	 0.085904
H	-1.900377308	-0.2655392794	-0.8406242371	 0.085902
H	 0.6647512443	-2.988768235	 1.0281845493	 0.107309
H	-0.8546070816	-3.1554239798	 1.9933353617	 0.095364
H	-2.8237066378	-3.3254452261	 0.9527039791	 0.098206
H	-2.8962626024	-3.3039291534	-0.8525067994	 0.098207
H	-1.0169192834	-3.107325133	-2.0434499751	 0.095363
H	 0.5751674212	-2.9622270593	-1.1996915488	 0.107305
69.9269	87.154	126.1162	222.2692	314.1094	342.2991	386.1381	584.6152	586.3512	697.2826	774.3954	797.5068	899.2808	914.309	941.9039	970.0747	976.3591	1022.5021	1023.6904	1051.0111	1145.7864	1162.3309	1164.8396	1168.5612	1172.7064	1195.1018	1195.6458	1201.1572	1230.0776	1270.0353	1278.0435	1334.692	1422.3404	1478.8605	1484.1787	1499.9828	1511.2683	1511.3748	1521.2336	1565.6213	2938.6439	2966.3922	2969.5018	3012.1125	3042.2644	3047.2592	3056.1607	3108.5762	3113.7736	3118.7114	3123.3135
COCC12CN(C1)C2	COC[C@@]12CN(C1)C2	
InChI=1S/C6H11NO/c1-8-5-6-2-7(3-6)4-6/h2-5H2,1H3	InChI=1S/C6H11NO/c1-8-5-6-2-7(3-6)4-6/h2-5H2,1H3
