18
gdb 16948	3.69955	2.01005	1.84722	1.3496	72.31	-0.2308	0.0183	0.2491	821.0543	0.156105	-347.809943	-347.803296	-347.802352	-347.840405	26.786	
C	-0.0175714607	 1.5031533905	 0.0473613276	-0.515917
C	-0.0815671399	 0.014467058	-0.0198602622	 0.356899
C	-0.0801915479	-0.802456202	-1.0826625932	-0.188676
C	 0.0237271039	-2.2300704127	-0.5713612623	-0.092482
C	 1.4391693798	-2.3376298876	 0.0739706783	-0.066875
O	 1.3703946209	-1.4539445353	 1.2010569635	-0.279659
C	 0.0170839215	-0.909477347	 1.1936481793	 0.011723
C	-0.808520797	-2.1170831152	 0.7343153458	-0.220544
H	 0.9111124765	 1.8300796509	 0.5321620022	 0.137229
H	-0.0564279403	 1.9530247069	-0.9488770557	 0.123017
H	-0.8429374294	 1.9167255436	 0.6406547298	 0.123591
H	-0.0256984903	-0.51516569	-2.1261388203	 0.089912
H	-0.2212523532	-3.0311303305	-1.2680282735	 0.065987
H	 1.6522991062	-3.3570258015	 0.4213538292	 0.09484
H	 2.2370105514	-2.0207074215	-0.6073850951	 0.095268
H	-0.1712782493	-0.4776592745	 2.1761895016	 0.067709
H	-1.8585904337	-1.8880876974	 0.5480554238	 0.100809
H	-0.7129379886	-2.9756756147	 1.4055084011	 0.09717
162.2268	181.0775	267.4291	329.4296	438.8367	487.5803	556.7615	593.8896	725.5907	812.6973	827.4348	857.3565	861.2257	904.1595	928.6196	938.9548	962.3096	987.7798	1001.464	1041.6954	1061.2251	1071.1768	1130.0693	1159.2184	1202.4206	1230.3317	1256.5956	1276.131	1288.2689	1296.6721	1341.916	1364.0538	1411.0902	1478.9379	1486.7486	1488.415	1523.2243	1690.2213	3011.7578	3016.5331	3056.9967	3062.5765	3064.048	3106.001	3121.7661	3127.7788	3133.005	3198.6479
CC1=CC2COC1C2	CC1=C[C@H]2CO[C@@H]1C2	
InChI=1S/C7H10O/c1-5-2-6-3-7(5)8-4-6/h2,6-7H,3-4H2,1H3	InChI=1S/C7H10O/c1-5-2-6-3-7(5)8-4-6/h2,6-7H,3-4H2,1H3/t6-,7-/m1/s1
