17
gdb 62519	1.67457	1.57013	1.02419	3.9583	77.12	-0.2418	-0.0276	0.2141	1214.5357	0.131415	-421.787038	-421.77728	-421.776336	-421.821471	35.755	
C	-0.1268168156	 1.5910927772	 0.067547217	-0.461893
C	 0.0059009551	 0.0890936937	-0.01719083	 0.375867
O	-1.1094924742	-0.6180466467	 0.4438527095	-0.449386
C	 0.6443147503	-0.6032732667	-1.2003948779	-0.166967
C	 1.2159640007	 0.1428119569	-2.3495743074	 0.156209
O	 1.0732814154	-0.2017284704	-3.4972301386	-0.264728
C	 1.346566918	-0.5950305754	 0.1824058015	-0.317983
C	 2.5544347431	 0.1427213162	 0.4025805532	 0.338372
C	 3.5658887826	 0.7590571964	 0.615446382	-0.445162
H	 0.7782155232	 2.1028408679	-0.263585171	 0.141068
H	-0.9731354305	 1.9306254853	-0.536115923	 0.139811
H	-0.3062141164	 1.8887491071	 1.1076615762	 0.119091
H	-1.2521308655	-0.3791527507	 1.3674884413	 0.287106
H	 0.1796093625	-1.5437747736	-1.4736352543	 0.128829
H	 1.8045684785	 1.0477566732	-2.0908621693	 0.087638
H	 1.2853732159	-1.5528544454	 0.6904494776	 0.129526
H	 4.4631859968	 1.2967969949	 0.798268083	 0.202603
77.2235	121.8059	144.0053	180.9746	201.047	249.7053	289.8055	340.3963	371.7743	392.8122	434.1875	491.8606	548.3696	577.8615	598.2167	664.7994	696.342	826.8943	891.841	931.8393	998.8219	1018.3886	1064.299	1086.9989	1094.1232	1142.7729	1202.8417	1271.3629	1318.0068	1324.1528	1414.2392	1416.7769	1446.522	1485.0249	1500.01	1813.5162	2231.5116	2911.2172	3034.7695	3102.3652	3140.8419	3154.8695	3190.6473	3502.7091	3785.8927
CC1(O)C(C=O)C1C#C	C[C@@]1(O)[C@@H](C=O)[C@H]1C#C	
InChI=1S/C7H8O2/c1-3-5-6(4-8)7(5,2)9/h1,4-6,9H,2H3	InChI=1S/C7H8O2/c1-3-5-6(4-8)7(5,2)9/h1,4-6,9H,2H3/t5-,6+,7+/m1/s1
