23
gdb 100052	2.91228	1.07769	0.97931	1.9473	80.92	-0.2448	0.0657	0.3105	1336.2699	0.204003	-425.407619	-425.397198	-425.396254	-425.442881	38.533	
C	-0.051462095	 1.5988496905	 0.0771819627	-0.420427
C	 0.0220631889	 0.0638772642	 0.0344965785	 0.214041
C	 0.7481834404	-0.4780779751	 1.27637166	-0.443559
C	-1.4113000605	-0.5203445776	-0.0237131046	-0.090318
O	-2.2089764949	-0.1954256565	 1.1067496797	-0.428611
C	 0.72249681	-0.3671365528	-1.2611591621	 0.15865
C	 2.2277916353	-0.0852889247	-1.4802811636	-0.310173
C	 2.3346666046	-1.6082424672	-1.6891412529	-0.062832
O	 0.9467402603	-1.799364738	-1.3452141377	-0.302097
H	 0.940742304	 2.0459775701	 0.1979115499	 0.106794
H	-0.4934273814	 2.0011746972	-0.8418849636	 0.108019
H	-0.6779672958	 1.917660482	 0.9140321711	 0.132597
H	 0.1947941118	-0.2201746394	 2.1847770127	 0.107294
H	 0.8528847865	-1.5653264209	 1.2207667478	 0.126663
H	 1.7474731422	-0.0451075599	 1.3847273263	 0.111365
H	-1.9363804071	-0.0959121486	-0.8873658734	 0.10163
H	-1.3547808434	-1.6071339973	-0.1728339472	 0.10968
H	-1.9510141974	-0.7760249766	 1.827988179	 0.285622
H	 0.1104203871	-0.0348160865	-2.1141820084	 0.068012
H	 2.4738622665	 0.5393306053	-2.3398581061	 0.110078
H	 2.7569243674	 0.2906020956	-0.6035599622	 0.111872
H	 2.5440627428	-1.9210942996	-2.720060663	 0.101664
H	 3.0023179977	-2.1521940442	-1.0110972329	 0.104036
76.2236	83.6333	121.3328	175.4524	204.5251	240.7024	253.4276	275.3383	318.9386	334.7217	368.9137	382.5696	459.8612	590.9025	715.6522	780.5398	819.1809	871.4285	913.1802	946.2264	952.8602	969.5323	979.3351	1019.389	1034.2473	1059.4606	1064.5806	1105.5926	1148.8079	1167.3142	1213.5046	1224.7251	1256.5573	1261.1048	1280.8492	1303.1924	1360.0499	1376.4577	1391.712	1394.2072	1409.3571	1429.6673	1485.4752	1487.0633	1496.0865	1500.989	1513.6857	1515.6558	1530.6623	2974.1565	3012.4399	3014.9475	3028.8689	3038.7967	3057.5286	3066.322	3084.891	3091.38	3098.868	3117.5429	3120.4415	3138.1929	3837.7525
CC(C)(CO)C1CCO1	CC(C)(CO)[C@H]1CCO1	
InChI=1S/C7H14O2/c1-7(2,5-8)6-3-4-9-6/h6,8H,3-5H2,1-2H3	InChI=1S/C7H14O2/c1-7(2,5-8)6-3-4-9-6/h6,8H,3-5H2,1-2H3/t6-/m1/s1
