16
gdb 10433	2.53934	2.05416	1.45862	2.6889	61.18	-0.2516	-0.0423	0.2094	903.1618	0.127901	-420.84146	-420.833104	-420.83216	-420.874743	28.892	
C	 0.6250076506	-0.3303312353	-1.3840653853	-0.264193
O	-0.0946993668	-0.1197537541	-0.1796387592	-0.281405
C	 0.5322480657	-0.6396331539	 0.962996743	 0.248017
C	-0.4483377887	-0.7290484381	 2.161385432	-0.114409
O	-0.2010938254	-2.1334547591	 2.3171944709	-0.26581
C	 0.6285564014	-2.1746115146	 1.1377463985	-0.123703
C	 1.7939610511	 0.1423105973	 1.2946570353	 0.096706
O	 2.7682909399	-0.3170223073	 1.830437657	-0.237893
H	 0.7371073478	-1.4000609405	-1.6079511828	 0.120856
H	 0.0474547553	 0.1394658229	-2.1822909193	 0.141051
H	 1.6254693533	 0.1249410412	-1.3555277115	 0.119935
H	-0.1933310568	-0.1562919804	 3.0603409698	 0.114963
H	-1.4758416402	-0.504841982	 1.8503668549	 0.119321
H	 0.1644126188	-2.7448308251	 0.3244122765	 0.104979
H	 1.6312819363	-2.5539689081	 1.3546840755	 0.129178
H	 1.7210302976	 1.2192763872	 1.0183926947	 0.092407
79.0659	93.047	142.4812	182.8037	221.6655	271.9579	299.7437	397.1827	465.0516	572.1686	666.7077	839.8118	892.7849	918.9324	974.1239	995.7206	1046.3943	1088.8043	1120.5411	1158.2521	1169.1259	1181.7234	1210.2596	1226.9436	1266.2137	1306.2751	1362.6716	1403.9431	1482.129	1489.6368	1491.2542	1506.273	1518.0861	1831.897	2876.0371	2992.5931	3018.3879	3031.7341	3046.8158	3075.0352	3096.9251	3130.9345
COC1(COC1)C=O	COC1(COC1)C=O	
InChI=1S/C5H8O3/c1-7-5(2-6)3-8-4-5/h2H,3-4H2,1H3	InChI=1S/C5H8O3/c1-7-5(2-6)3-8-4-5/h2H,3-4H2,1H3
