18
gdb 109337	1.90726	1.72503	0.92377	2.2101	77.66	-0.206	0.0033	0.2093	1230.6376	0.147836	-439.114848	-439.1058	-439.104856	-439.149272	32.222	
O	-0.0197161906	 1.4517632184	-0.0995220838	-0.419385
C	 0.0200134976	 0.0359813981	-0.0335107181	-0.178599
C	-1.3953504633	-0.4541048966	 0.0036453498	 0.369167
C	-2.5142904256	 0.2736357219	 0.0194433542	-0.200074
C	-3.7365266101	-0.6084912816	 0.1034539917	-0.275235
C	-3.1503113822	-2.0293755405	-0.0934578315	-0.182136
N	-1.6896169617	-1.8405004508	 0.0276360921	-0.124182
C	-0.8117762998	-2.8739388489	 0.1177993136	 0.133678
O	 0.3991179002	-2.7829200961	 0.1929021055	-0.342501
H	 0.8869284745	 1.7686037902	-0.0697049238	 0.292336
H	 0.5390106493	-0.4034905905	-0.8975599289	 0.120028
H	 0.5565037691	-0.3232786019	 0.8551774358	 0.125921
H	-2.5318814001	 1.3518693656	 0.0142012775	 0.122842
H	-4.2400465301	-0.5069976432	 1.0740388868	 0.11654
H	-4.4858547078	-0.3789055251	-0.660937983	 0.116484
H	-3.5053692975	-2.748131801	 0.6487585243	 0.124987
H	-3.3906011073	-2.4206203434	-1.0883875326	 0.123728
H	-1.3380829845	-3.8487403247	 0.1180521102	 0.076401
50.5934	119.05	151.9701	194.1963	203.0351	234.6421	260.7653	283.2658	421.3684	502.8367	564.11	676.7314	738.1884	784.0194	841.4796	860.5877	938.9984	1014.3716	1021.7789	1038.1018	1058.3657	1068.442	1116.6483	1194.0129	1207.4176	1240.5163	1248.5629	1258.8446	1282.8066	1321.358	1348.1241	1430.2531	1443.7545	1474.4898	1491.1398	1496.8323	1519.7574	1720.1578	1781.8212	2937.2075	3002.0035	3014.1361	3029.252	3033.9032	3063.7181	3096.9373	3266.277	3845.8713
OCC1=CCCN1C=O	OCC1=CCCN1C=O	
InChI=1S/C6H9NO2/c8-4-6-2-1-3-7(6)5-9/h2,5,8H,1,3-4H2	InChI=1S/C6H9NO2/c8-4-6-2-1-3-7(6)5-9/h2,5,8H,1,3-4H2
