15
gdb 46859	2.5285	1.84665	1.2713	5.7197	68.09	-0.2549	-0.0596	0.1953	970.6301	0.11418	-453.934711	-453.927442	-453.926497	-453.966743	27.578	
N	-0.2348707177	 1.2456637143	-0.343556499	-0.476995
C	-0.0376714185	 0.0664089438	 0.0640709326	 0.303927
O	 1.0150476851	-0.2579229852	 0.8706219962	-0.248546
C	 1.3501568186	-1.6218636689	 1.1231115016	-0.092629
C	 0.1420015358	-2.4864248588	 1.4012849509	-0.056186
N	-0.955297161	-1.8256037924	 2.0876946147	-0.318387
C	-1.108967645	-2.1728293115	 0.6495672148	-0.148215
C	-1.0342122538	-1.0297314536	-0.3048761255	 0.366419
O	-1.6835261478	-0.9864228832	-1.3192550607	-0.291111
H	 0.5036578782	 1.8644078887	 0.0010018314	 0.229767
H	 1.9106102252	-2.0360805281	 0.2732930367	 0.122003
H	 2.0175425023	-1.5929789732	 1.9891006803	 0.134205
H	 0.3592995276	-3.5318431027	 1.609330354	 0.110856
H	-1.4876131461	-2.4886748542	 2.6445205484	 0.251091
H	-1.7863854628	-2.969360995	 0.3602744837	 0.113802
71.8148	150.0305	244.4136	329.4618	349.4113	433.3431	447.5297	497.6815	593.4032	651.55	727.27	791.0342	825.3427	899.3372	907.728	921.9113	951.2744	1001.3347	1024.0746	1081.3984	1126.3497	1139.439	1182.0925	1224.537	1234.0244	1282.0209	1326.9435	1378.1823	1423.6766	1449.3341	1504.7972	1731.4923	1819.6789	3014.2613	3090.7137	3138.3936	3177.3299	3457.7011	3518.9574
N=C1OCC2NC2C1=O	[NH][C]1OC[C@H]2N[C@H]2C1=O	
InChI=1S/C5H6N2O2/c6-5-4(8)3-2(7-3)1-9-5/h2-3,6-7H,1H2	InChI=1S/C5H6N2O2/c6-5-4(8)3-2(7-3)1-9-5/h2-3,6-7H,1H2/t2-,3-/m1/s1
