20
gdb 14761	11.18004	0.54257	0.52585	1.8487	78.3	-0.2585	0.058	0.3166	2030.5733	0.174626	-348.971421	-348.961295	-348.960351	-349.007181	35.314	
O	-0.0392762348	 1.4658145005	 0.0102612159	-0.42105
C	 0.0455598716	 0.048729018	 0.0018860942	-0.072947
C	-1.372130629	-0.5074022351	 0.012408121	-0.171235
C	-1.4146576122	-2.0380814444	 0.004624366	-0.184377
C	-2.841291188	-2.5950229613	 0.0152121251	-0.172193
C	-2.8746217042	-4.1366744008	 0.0072522136	-0.356501
C	-4.2273655724	-4.6801945698	 0.017139745	 0.292889
C	-5.3529959789	-5.1020571734	 0.025654325	-0.437162
H	 0.8541294174	 1.8211044092	 0.0037320321	 0.285023
H	 0.5802083361	-0.3135879527	-0.8920044135	 0.082741
H	 0.5970864046	-0.3230600551	 0.881518345	 0.082741
H	-1.8902041568	-0.1197634227	 0.8981337394	 0.10661
H	-1.906932319	-0.1103614733	-0.8590965881	 0.106611
H	-0.8838472337	-2.416637712	-0.8802969674	 0.09481
H	-0.8671517352	-2.4260320504	 0.8751880619	 0.09481
H	-3.3777804299	-2.2319601412	 0.8995951826	 0.110618
H	-3.3944659174	-2.2225541441	-0.8548638996	 0.110619
H	-2.3388939955	-4.5085137471	-0.8764148084	 0.127837
H	-2.3222642904	-4.5179288473	 0.8765583319	 0.127841
H	-6.3427604225	-5.485597907	 0.0332324709	 0.192316
57.2936	78.7178	78.7512	133.6002	153.8277	177.5816	268.5075	284.5871	347.0797	350.7376	485.1717	535.403	614.5536	634.1126	736.9324	766.3181	844.0796	946.5771	967.146	993.0335	1035.2452	1055.1653	1065.2382	1092.1917	1134.8262	1199.8459	1221.287	1264.7481	1276.2773	1309.199	1325.0519	1326.238	1331.0645	1376.3546	1401.4799	1463.3847	1473.6649	1487.0257	1494.7166	1509.5383	1529.2503	2238.6567	2955.3069	2979.8262	3002.7419	3013.3581	3030.1508	3030.3503	3038.8432	3040.4093	3072.1622	3084.7793	3508.5632	3831.0175
OCCCCCC#C	OCCCCCC#C	
InChI=1S/C7H12O/c1-2-3-4-5-6-7-8/h1,8H,3-7H2	InChI=1S/C7H12O/c1-2-3-4-5-6-7-8/h1,8H,3-7H2
