17
gdb 46504	3.90157	1.26212	1.09288	5.4601	70.9	-0.2462	0.0423	0.2884	1110.741	0.1377	-455.122059	-455.114264	-455.11332	-455.155043	29.218	
N	-0.0470296831	 1.1582665759	 0.5583198163	-0.540539
C	 0.0004909963	 0.031743021	-0.0075239022	 0.47156
O	 1.1819150223	-0.6044895035	-0.2711863473	-0.269046
C	 1.2380687981	-1.661117158	-1.236389516	-0.150996
C	 0.0282546335	-2.5429411974	-1.1219157596	 0.276157
C	 0.0692249276	-3.944790629	-1.5939899959	-0.294313
N	-0.0077848668	-3.646971217	-0.1535391599	-0.333532
C	-1.2121414141	-1.6986362619	-1.203303192	-0.113549
O	-1.1559319616	-0.6072774701	-0.2781473767	-0.240704
H	 0.89969546	 1.4852230372	 0.7392716816	 0.225141
H	 1.3051627034	-1.2254140614	-2.2436256271	 0.118611
H	 2.167016739	-2.2022011357	-1.03461174	 0.115855
H	-0.8207780363	-4.4026202778	-2.0174528081	 0.12916
H	 1.0046484589	-4.3131078516	-2.0094304062	 0.119419
H	 0.9018810582	-3.7693604129	 0.2858152633	 0.237897
H	-1.341155915	-1.2988047879	-2.2190490195	 0.112335
H	-2.0992507304	-2.27188357	-0.9302398007	 0.136543
59.1541	92.9934	162.9189	268.0645	361.7526	372.3662	453.3748	467.139	566.4577	667.2001	712.2792	802.402	805.047	825.8374	890.9074	930.7889	951.703	953.5411	984.4942	1006.2745	1085.1348	1097.5899	1112.687	1147.0153	1164.8481	1246.3814	1259.5422	1271.4107	1278.6217	1362.9035	1375.8777	1430.8212	1451.0223	1499.3384	1507.7849	1518.7478	1759.3048	3002.5063	3012.3944	3086.5883	3104.0198	3123.1512	3187.8466	3495.8849	3527.2604
N=C1OCC2(CN2)CO1	[NH][C]1OC[C@]2(CN2)CO1	
InChI=1S/C5H8N2O2/c6-4-8-2-5(1-7-5)3-9-4/h6-7H,1-3H2	InChI=1S/C5H8N2O2/c6-4-8-2-5(1-7-5)3-9-4/h6-7H,1-3H2/t5-
