16
gdb 69760	3.06791	1.51165	1.29317	2.7461	68.01	-0.2357	0.0228	0.2585	987.7224	0.124635	-437.854468	-437.847112	-437.846168	-437.886032	29.332	
O	-0.0913997982	 1.4304660113	 0.0496128171	-0.459839
C	-0.0107283078	 0.0535415764	 0.0417333372	 0.41103
C	-0.2475509081	-0.7752205853	-1.1827902402	-0.375692
C	-1.162477151	-0.943554916	 0.0121720329	-0.124096
C	-0.481284033	-1.7636065686	 1.14339111	 0.015906
N	 0.5041995411	-2.7961134036	 0.8057355725	-0.324
C	 1.5944143682	-1.9366101697	 0.7664406413	 0.39717
O	 2.7483876481	-2.1095777749	 0.4835221438	-0.357281
C	 0.6878961647	-0.7475437325	 1.1830741318	-0.273645
H	 0.6406568748	 1.7808390604	-0.4708770516	 0.292347
H	-0.7035534844	-0.2195445544	-1.9960282587	 0.121108
H	 0.4321243241	-1.5625914459	-1.4964649255	 0.126807
H	-2.2280119469	-0.7657494103	-0.0584193159	 0.099809
H	-1.0955173181	-1.9729715236	 2.01852813	 0.095724
H	 0.3984962874	-3.7128480137	 0.3941925108	 0.248635
H	 0.9275374889	-0.1752932897	 2.0761228446	 0.106017
130.9246	161.9795	273.3138	296.6132	390.8484	415.9372	456.1736	488.4538	539.3623	608.1351	696.5935	748.13	777.9848	811.6097	888.4442	893.2544	918.3962	962.5683	978.8794	998.4832	1029.0886	1066.7366	1087.7641	1131.3848	1143.9318	1162.5028	1192.5958	1246.9214	1258.5793	1312.2366	1321.2385	1350.9516	1409.0723	1495.7624	1885.1963	3116.8077	3119.0223	3155.5952	3194.1317	3208.9792	3595.9794	3788.0269
OC12CC1C1NC(=O)C21	O[C@]12C[C@H]1[C@H]1NC(=O)[C@@H]21	
InChI=1S/C6H7NO2/c8-5-3-4(7-5)2-1-6(2,3)9/h2-4,9H,1H2,(H,7,8)	InChI=1S/C6H7NO2/c8-5-3-4(7-5)2-1-6(2,3)9/h2-4,9H,1H2,(H,7,8)/t2-,3-,4+,6+/m0/s1
