17
gdb 81322	3.91217	1.13311	1.04779	1.6417	84.83	-0.216	-0.0231	0.193	1169.92	0.135864	-384.625739	-384.617959	-384.617015	-384.657704	31.195	
O	-0.0132071219	 1.3664491747	-0.136453669	-0.43903
C	 0.0121494225	-0.0297842284	-0.0092339932	 0.16151
C	 0.0313184125	-0.616957538	 1.4718575166	-0.121488
C	-1.4762490842	-0.1946651603	 1.5242547821	-0.218261
C	-1.4277075189	-0.6458302975	 0.029012866	-0.146093
C	-1.0434504459	-2.1286265381	 0.182334279	 0.259036
C	-0.0865062854	-2.0911869613	 1.1344712167	-0.207805
C	-1.5715472725	-3.201631264	-0.5560197544	 0.070392
C	-2.0531504326	-4.09621428	-1.206140531	-0.362842
H	 0.8924388215	 1.6900462898	-0.1046393387	 0.287282
H	 0.7176844526	-0.4952595471	-0.7092910174	 0.071245
H	 0.7616190916	-0.299630246	 2.2157626531	 0.062283
H	-2.1287272181	-0.7551301449	 2.1969974236	 0.096332
H	-1.6101293786	 0.8822279475	 1.6353387929	 0.115744
H	-2.1873840288	-0.3797001264	-0.7034363343	 0.077328
H	 0.5010369749	-2.9051926775	 1.5339219262	 0.11187
H	-2.4690396786	-4.8923590624	-1.7718969582	 0.182495
113.6632	148.8717	257.9615	302.4522	326.4205	408.8149	465.4139	486.614	546.6858	570.6974	592.0411	626.9901	633.2427	789.4746	810.3893	858.0137	865.6344	891.549	925.4387	952.8353	1000.4093	1047.4364	1080.3657	1103.8255	1114.1002	1167.2302	1192.8269	1221.0272	1231.3593	1242.8308	1251.0053	1282.8882	1308.93	1416.0149	1491.0101	1624.3656	2218.9229	3025.1304	3074.1617	3121.3215	3141.3373	3145.996	3237.0926	3503.06	3821.5362
OC1C2CC1C(=C2)C#C	O[C@H]1[C@H]2C[C@@H]1C(=C2)C#C	
InChI=1S/C8H8O/c1-2-5-3-6-4-7(5)8(6)9/h1,3,6-9H,4H2	InChI=1S/C8H8O/c1-2-5-3-6-4-7(5)8(6)9/h1,3,6-9H,4H2/t6-,7-,8+/m1/s1
