18
gdb 103010	2.13203	1.39891	1.17726	4.2441	74.35	-0.229	0.0083	0.2373	1150.5249	0.14707	-435.228839	-435.21886	-435.217916	-435.263416	35.859	
C	-0.3129410785	 1.2727254597	 0.1454998076	-0.264377
O	 0.0957683047	-0.0878715793	 0.0175198364	-0.287765
C	 0.7328675917	-0.6037398936	 1.1433659692	 0.231962
C	 1.8991267393	 0.1057023414	 1.6001174233	 0.246818
N	 2.8238323973	 0.6821182625	 1.9928903779	-0.355899
C	-0.154557192	-1.3522604673	 2.1605640761	-0.072956
N	-1.5743506936	-1.4028295278	 1.9584720128	-0.517128
C	 0.7250213008	-2.1416702171	 1.2271994599	-0.066418
N	 0.140288933	-2.9205534007	 0.178857673	-0.530119
H	 0.5515657776	 1.9352938213	 0.2702687072	 0.14799
H	-0.8326739441	 1.5259144554	-0.7802753667	 0.137974
H	-0.9912659684	 1.4085669627	 0.9973102506	 0.113053
H	 0.1399007814	-1.3068060083	 3.203196797	 0.117243
H	-2.0468229985	-0.7787498454	 2.603460186	 0.244168
H	-1.8017214672	-1.096215759	 1.0173495592	 0.244376
H	 1.6314447397	-2.5548515026	 1.6641490608	 0.118501
H	-0.841335399	-3.093071884	 0.3719508495	 0.244398
H	 0.2076957259	-2.4527834481	-0.7177750597	 0.248179
107.5189	126.214	147.3175	153.9585	174.7301	195.7831	230.5946	280.419	321.5305	354.1734	462.394	475.7059	578.3908	610.7375	654.5596	703.2721	813.8939	840.8264	873.3715	901.3839	993.1514	1077.1013	1092.102	1120.2781	1137.3523	1180.8465	1208.4949	1242.2068	1254.2165	1288.8172	1290.9795	1370.1557	1453.7775	1476.2426	1488.2571	1507.0578	1652.4312	1664.1394	2330.7301	3013.5166	3078.8059	3125.454	3135.9526	3178.0741	3503.8049	3507.3149	3587.3678	3590.9103
COC1(C#N)C(N)C1N	CO[C@@]1(C#N)[C@@H](N)[C@H]1N	
InChI=1S/C5H9N3O/c1-9-5(2-6)3(7)4(5)8/h3-4H,7-8H2,1H3	InChI=1S/C5H9N3O/c1-9-5(2-6)3(7)4(5)8/h3-4H,7-8H2,1H3/t3-,4+,5-
