14
gdb 24864	2.36291	1.75433	1.00682	4.1898	75.02	-0.2621	-0.0989	0.1632	1083.484	0.103616	-436.76316	-436.755993	-436.755049	-436.795322	26.79	
O	 0.0124155857	-0.0886966054	 0.0029943391	-0.34979
C	 0.0349988594	 1.1284898721	 0.0082873496	 0.391636
N	-1.1806706754	 1.8136692916	 0.0286086188	-0.412911
C	-1.6272838683	 3.1358254472	 0.0418672126	 0.391636
O	-2.8272634383	 3.3404153659	 0.0583698588	-0.34979
C	-0.6844780286	 4.2666043153	 0.0338991476	-0.143793
C	 0.6592216039	 4.2769716271	 0.0156119357	-0.083159
C	 1.5820783514	 3.1625609741	-0.002131321	-0.083159
C	 1.3215402749	 1.8441978608	-0.0051264594	-0.143793
H	-1.9622331574	 1.1663297967	 0.0359666563	 0.267359
H	-1.2176054545	 5.2110583996	 0.0455150142	 0.135668
H	 1.1330619951	 5.2553394241	 0.0137604299	 0.122215
H	 2.6315109958	 3.4458653598	-0.014830889	 0.122215
H	 2.1500420462	 1.1443921611	-0.0196217332	 0.135668
74.542	125.9544	251.7792	351.4908	375.96	435.8661	450.2112	540.7685	599.8138	646.5545	756.5308	784.2335	820.7017	828.1173	847.1533	896.272	987.0578	987.7227	1029.7722	1039.0952	1224.039	1254.3055	1321.0174	1373.4606	1417.7028	1437.8812	1462.4304	1659.0705	1695.1498	1756.2134	1764.6838	3153.9703	3169.2751	3201.3534	3202.6058	3559.5861
O=C1NC(=O)C=CC=C1	O=c1[nH]c(=O)cccc1	
InChI=1S/C6H5NO2/c8-5-3-1-2-4-6(9)7-5/h1-4H,(H,7,8,9)	InChI=1S/C6H5NO2/c8-5-3-1-2-4-6(9)7-5/h1-4H,(H,7,8,9)
