16
gdb 102264	2.43532	1.07321	0.88846	4.4173	66.36	-0.2666	0.0195	0.2861	1323.9439	0.123935	-471.248378	-471.238634	-471.23769	-471.28431	34.251	
N	-0.0853137236	 1.3371998646	-0.161851477	-0.565224
C	 0.0515699308	-0.0256114012	 0.0132432526	 0.476017
O	 1.1257491085	-0.5832278681	 0.1277012835	-0.38771
N	-1.1517814283	-0.7126707019	 0.0381651776	-0.33275
C	-1.1477217681	-2.1578135957	 0.0047646025	-0.115426
C	-2.4363647877	-2.6883580927	 0.6627851801	-0.091176
O	-3.5867636171	-2.1814294128	 0.013486901	-0.421594
C	-1.0726314148	-2.687547164	-1.3766377325	 0.26494
N	-1.0980668774	-3.1062240239	-2.4538093561	-0.321849
H	 0.7576178596	 1.8526299894	 0.0382571392	 0.267895
H	-0.9383062406	 1.7836375523	 0.1373278956	 0.254528
H	-1.9902828356	-0.2808996976	-0.3211352189	 0.254673
H	-0.2631018849	-2.4969665112	 0.551057564	 0.16241
H	-2.4192118407	-3.7856616537	 0.6807727074	 0.119466
H	-2.4690193765	-2.3185985256	 1.6908648598	 0.131789
H	-3.6716561635	-2.6293383479	-0.8365837588	 0.304011
27.7441	77.9023	106.5087	130.5219	215.267	248.9796	315.4943	379.925	404.1338	428.4599	443.7537	500.8403	549.7102	593.6819	662.787	699.9583	774.1132	842.4039	916.9748	995.9052	1027.2284	1089.3123	1108.608	1160.7528	1230.7078	1248.7965	1319.2524	1374.8469	1393.1751	1416.2516	1491.2709	1517.1721	1627.5213	1805.4237	2349.1327	3026.6095	3093.5623	3108.2444	3584.2173	3617.1141	3701.7968	3795.0677
NC(=O)NC(CO)C#N	NC(=O)N[C@@H](CO)C#N	
InChI=1S/C4H7N3O2/c5-1-3(2-8)7-4(6)9/h3,8H,2H2,(H3,6,7,9)	InChI=1S/C4H7N3O2/c5-1-3(2-8)7-4(6)9/h3,8H,2H2,(H3,6,7,9)/t3-/m1/s1
