25
gdb 73870	2.12021	1.4762	0.96533	0.0764	95.73	-0.213	0.0355	0.2485	1346.4123	0.230234	-352.385551	-352.37586	-352.374915	-352.419489	37.821	
C	-0.0724885486	 1.5683728714	 0.1313153929	-0.487645
C	-0.0150245118	 0.0688928018	-0.0262333086	 0.227869
C	-0.0693202036	-0.5870510147	-1.1958550706	 0.227888
C	-0.1965978283	 0.0641654653	-2.5509514357	-0.487638
C	 0.0161015124	-2.1057939652	-1.2570686525	-0.287351
C	 1.3701837522	-2.6911938955	-0.8046060599	-0.173619
C	 1.5501423735	-2.7600225818	 0.7175678288	-0.176442
C	 1.475671673	-1.420139352	 1.4614349226	-0.173629
C	 0.1346384577	-0.6755521775	 1.293269382	-0.287353
H	 0.8205136738	 1.9355352521	 0.655208644	 0.119715
H	-0.1501469753	 2.1127514811	-0.8100851547	 0.116595
H	-0.9299043326	 1.8562633418	 0.7545616115	 0.120487
H	-0.2289630597	 1.1534882345	-2.5206278139	 0.116595
H	 0.6423704041	-0.2256922754	-3.1981858974	 0.119717
H	-1.1062343013	-0.2825021037	-3.0596917227	 0.120479
H	-0.7819256429	-2.5585782694	-0.6510227723	 0.098364
H	-0.1762725416	-2.4246770415	-2.2870001088	 0.087915
H	 1.4666815536	-3.7080717371	-1.2052240236	 0.086559
H	 2.1826918268	-2.1041944639	-1.2522437964	 0.09117
H	 0.7780170792	-3.427268202	 1.1278262277	 0.088978
H	 2.5114855944	-3.2392176894	 0.9415334232	 0.087339
H	 1.6406727987	-1.6135700176	 2.5287649326	 0.086559
H	 2.2937308483	-0.7644034304	 1.1360273135	 0.091173
H	 0.0280724408	 0.0428367683	 2.1130337835	 0.087912
H	-0.6854854228	-1.396857169	 1.4208073648	 0.098363
110.6828	113.4173	173.1736	179.0373	212.8659	267.0701	324.4258	325.7321	375.4073	412.1968	426.6189	494.8546	508.0776	639.32	666.2947	796.7032	814.9924	839.5639	862.285	930.1346	971.7656	983.9043	990.0598	1023.7204	1049.5781	1057.9355	1078.5962	1101.425	1112.8422	1156.2146	1170.2748	1236.8142	1243.573	1261.7246	1289.7831	1306.9084	1359.0211	1367.6269	1378.3839	1390.854	1397.4242	1403.1856	1422.2215	1479.9643	1481.189	1482.3891	1482.9812	1486.9627	1487.4559	1490.0152	1498.3945	1505.9458	1737.9524	2999.3677	3002.276	3002.6966	3008.9532	3012.1501	3013.491	3014.6	3044.4931	3048.3689	3048.7834	3051.9226	3059.0418	3060.3472	3062.913	3127.3078	3144.2062
CC1=C(C)CCCCC1	CC1=C(C)CCCCC1	
InChI=1S/C9H16/c1-8-6-4-3-5-7-9(8)2/h3-7H2,1-2H3	InChI=1S/C9H16/c1-8-6-4-3-5-7-9(8)2/h3-7H2,1-2H3
