19
gdb 69541	3.09809	1.53637	1.37664	2.5948	74.02	-0.2476	0.0718	0.3195	1012.0875	0.159244	-422.98629	-422.9786	-422.977656	-423.017763	31.761	
C	-0.0482506292	 1.465213843	 0.0525681078	-0.492171
C	 0.0809516529	-0.0253266454	-0.0317952829	 0.436468
O	-0.5369583743	-0.8057357108	 1.0126707941	-0.301474
C	 0.8819189214	-0.9134834867	 0.8085932368	-0.065503
C	 1.3267887483	-1.9839963968	-0.2103589525	 0.379293
O	 2.1421573112	-2.9693079704	 0.3330623725	-0.487899
C	 0.0191442274	-2.254635994	-1.0064697963	-0.2847
C	 0.1977878052	-0.7606821349	-1.3965950178	-0.119684
C	 1.7392917251	-1.0424205824	-1.4067107364	-0.289944
H	 0.6973988552	 1.9550438341	-0.5827992841	 0.124488
H	-1.0387837767	 1.7880210149	-0.2874714646	 0.128325
H	 0.0871227251	 1.8076559649	 1.081469847	 0.132132
H	 1.524874022	-0.6224225381	 1.6328203334	 0.101008
H	 2.3836335064	-3.5856486806	-0.3658259283	 0.280574
H	 0.1982281746	-2.9124384476	-1.860864052	 0.084367
H	-0.871952543	-2.5462895893	-0.4550456035	 0.122687
H	-0.3118989411	-0.3280343525	-2.2559092527	 0.067372
H	 2.4178703574	-0.2109537193	-1.1936853678	 0.096029
H	 2.0740486619	-1.590900128	-2.2927191026	 0.088633
179.0951	203.9807	251.5504	276.9064	326.0572	380.9206	445.2281	471.0908	522.4251	554.1448	598.1058	638.9988	721.6224	815.271	852.3045	857.6582	896.3771	921.3463	946.2569	974.7573	1001.0865	1020.9185	1025.9578	1055.7955	1088.1928	1111.1149	1135.5557	1158.2585	1191.3935	1222.3721	1227.604	1234.1765	1289.7499	1314.9633	1392.9404	1408.9536	1457.6419	1471.9925	1487.0416	1497.2336	1516.3239	3033.1517	3044.9276	3074.1354	3093.5478	3106.3208	3122.3529	3129.1613	3162.655	3173.9661	3816.5578
CC12OC1C1(O)CC2C1	C[C@]12O[C@H]1[C@@]1(O)C[C@@H]2C1	
InChI=1S/C7H10O2/c1-6-4-2-7(8,3-4)5(6)9-6/h4-5,8H,2-3H2,1H3	InChI=1S/C7H10O2/c1-6-4-2-7(8,3-4)5(6)9-6/h4-5,8H,2-3H2,1H3/t4-,5-,6-,7-/m1/s1
