19
gdb 72243	2.4194	1.71561	1.47057	1.4253	74.65	-0.2349	0.0771	0.312	998.2635	0.15949	-422.999684	-422.991634	-422.99069	-423.031721	31.777	
C	-0.1178771929	 1.4989517413	-0.0169795223	-0.524845
C	-0.0154518913	 0.0054072792	 0.0210999897	 0.289088
C	 0.004010498	-0.9513898601	-1.1487198644	-0.207276
C	 1.2724011873	-1.7918886326	-1.0781242942	-0.103341
O	 1.831279099	-1.5203698474	 0.2130325163	-0.264814
C	 0.8075606554	-0.9009831618	 0.9777822875	 0.031676
C	-0.4444362505	-1.826204879	 1.1580844911	-0.322201
C	-1.0447824542	-1.103688579	-0.0468712	 0.33626
O	-2.3943772716	-0.9384267967	-0.2994071281	-0.464927
H	 0.8366276559	 1.9574097548	-0.2995980598	 0.124448
H	-0.8720550502	 1.8157201477	-0.7441266664	 0.129691
H	-0.4085809419	 1.9064045105	 0.9578045165	 0.121431
H	-0.3690402481	-0.6022298319	-2.104945831	 0.090884
H	 1.0792084663	-2.8686274177	-1.1868048857	 0.092804
H	 2.0004933174	-1.5000454729	-1.8444663496	 0.104625
H	 1.2538426802	-0.4749680288	 1.8756020675	 0.084892
H	-0.2649054452	-2.9058775466	 1.1083560461	 0.090653
H	-0.9983535435	-1.5853982968	 2.070027436	 0.105825
H	-2.7165429004	-1.7162895421	-0.768208779	 0.285129
167.1969	183.9672	209.2955	224.4651	254.1796	311.0959	353.3036	446.0702	506.1198	583.4551	640.8985	697.5739	746.4404	769.824	839.3893	878.9648	914.5575	941.8318	946.9056	989.8273	1028.5204	1062.3397	1073.1217	1112.4415	1139.9005	1164.6453	1169.4474	1215.7704	1219.0587	1231.5803	1248.9672	1294.5601	1321.3722	1342.1121	1377.6579	1413.3169	1471.3765	1486.9701	1495.8883	1513.2651	1526.4904	2997.3079	3025.4418	3036.9122	3045.8407	3084.4736	3097.5772	3101.4028	3126.8802	3185.1778	3792.6369
CC12C3COC1CC23O	C[C@@]12[C@H]3CO[C@@H]1C[C@@]23O	
InChI=1S/C7H10O2/c1-6-4-3-9-5(6)2-7(4,6)8/h4-5,8H,2-3H2,1H3	InChI=1S/C7H10O2/c1-6-4-3-9-5(6)2-7(4,6)8/h4-5,8H,2-3H2,1H3/t4-,5-,6-,7+/m1/s1
