15
gdb 8260	7.39555	0.96533	0.89264	1.5863	63.32	-0.2482	-0.0383	0.2099	1210.1744	0.116143	-399.787467	-399.77953	-399.778586	-399.82088	27.567	
O	-0.1834317684	-0.0504231907	 0.2907304053	-0.23079
C	-0.014892823	 1.1028697574	-0.0034275911	 0.157929
C	 1.3501477419	 1.7587205684	-0.1559034253	-0.241655
N	 1.3285816089	 2.7772301059	-1.1812411403	-0.099181
C	 1.3908951307	 2.3420087237	-2.5997699617	-0.293828
C	 2.4235113527	 3.4553354099	-2.8344370071	 0.395577
O	 2.9349299767	 3.9521106162	-3.7893706616	-0.270542
C	 2.5048869548	 3.6703626712	-1.3145480001	-0.284722
H	-0.8631196301	 1.8024551358	-0.177247051	 0.089148
H	 1.5681318665	 2.2415617216	 0.8077750678	 0.137084
H	 2.1085501029	 0.9700995184	-0.3087639821	 0.109353
H	 1.8308891004	 1.3424234573	-2.7502430009	 0.128046
H	 0.4495117711	 2.4039681742	-3.1549027131	 0.140817
H	 2.3632019423	 4.6900840616	-0.9415829661	 0.138719
H	 3.4416411825	 3.263320679	-0.9011640927	 0.124048
55.5039	78.7949	103.0731	197.6624	331.0162	353.064	429.9173	466.4452	494.2534	666.595	740.383	769.3517	806.3751	953.4582	1002.6146	1046.0192	1062.184	1080.4859	1099.5908	1135.5149	1162.5126	1220.9436	1235.1478	1274.8019	1305.0988	1346.7946	1405.0499	1454.7893	1459.4416	1487.5903	1841.2655	1926.6019	2888.7346	2951.035	2979.0287	2988.1512	3031.4277	3073.0723	3076.9376
O=CCN1CC(=O)C1	O=CCN1CC(=O)C1	
InChI=1S/C5H7NO2/c7-2-1-6-3-5(8)4-6/h2H,1,3-4H2	InChI=1S/C5H7NO2/c7-2-1-6-3-5(8)4-6/h2H,1,3-4H2
