17
gdb 60715	3.2438	1.00881	0.87652	4.6282	71.59	-0.2522	-0.0676	0.1846	1328.8051	0.133274	-455.179832	-455.169786	-455.168842	-455.215672	35.08	
C	 0.0242224546	 1.3961788415	 0.19631722	-0.401748
C	 0.0300195012	-0.1270603926	-0.0256426378	-0.178835
C	-1.3731608897	-0.7170947436	-0.0402168645	 0.166297
O	-2.355934547	-0.1322323964	 0.3316623911	-0.245028
C	 0.7483493614	-0.4802718018	-1.3132940029	 0.369982
O	 0.1610550482	-0.6493436009	-2.3620153818	-0.328616
C	 2.2666277554	-0.6104507045	-1.2714543407	 0.270385
N	 2.8057091558	-0.7407647222	-2.5149457041	-0.535788
N	 2.8403202192	-0.5705164478	-0.126307868	-0.509451
H	 1.0426810867	 1.7632399627	 0.3354468231	 0.136631
H	-0.4322672773	 1.909836051	-0.6542284037	 0.135319
H	-0.5681423914	 1.6280172179	 1.0833902334	 0.144407
H	 0.5838325633	-0.5985988941	 0.7968393039	 0.145092
H	-1.430675304	-1.7675473021	-0.3991546923	 0.087241
H	 2.1585795588	-0.9088066008	-3.2704105056	 0.274877
H	 3.7616592798	-1.0307052592	-2.627846994	 0.257363
H	 3.8539481252	-0.6787630472	-0.2018065062	 0.21187
45.3377	74.7466	78.7969	175.3627	202.9679	224.1338	253.5824	304.6	316.7038	370.6323	468.2582	509.937	552.1614	606.6413	653.5275	755.9843	809.3207	853.3934	881.4518	927.5274	1039.1484	1072.9201	1094.5551	1118.3397	1132.8012	1142.9066	1299.6689	1318.1355	1397.0722	1430.1503	1433.8387	1490.8765	1499.5077	1601.9569	1715.6654	1779.8822	1835.9019	2897.7332	3041.219	3057.6341	3133.1745	3147.7422	3449.3169	3585.7084	3719.8034
CC(C=O)C(=O)C(N)=N	C[C@@H](C=O)C(=O)C(=N)N	
InChI=1S/C5H8N2O2/c1-3(2-8)4(9)5(6)7/h2-3H,1H3,(H3,6,7)	InChI=1S/C5H8N2O2/c1-3(2-8)4(9)5(6)7/h2-3H,1H3,(H3,6,7)/t3-/m0/s1
