17
gdb 71703	3.66479	1.51424	1.4331	0.7675	70.05	-0.2207	0.0736	0.2942	960.4974	0.135465	-421.765518	-421.758278	-421.757334	-421.79663	29.715	
C	-0.0347714834	 1.4237232964	-0.0407220764	-0.491923
C	 0.0213822863	-0.0722223693	 0.005211651	 0.446264
O	-0.2988849477	-0.7087476121	-1.2103496318	-0.265027
C	-0.1720418322	-2.0572102413	-0.8648424059	-0.033887
C	-0.5664156389	-2.3196952729	 0.591504862	-0.185805
C	-0.4286480105	-0.9107570564	 1.1937333581	-0.156663
C	 1.0464721353	-0.8699067858	 0.7918821312	-0.269381
C	 0.8959707361	-2.2888202512	 0.183232597	 0.354406
O	 1.8211873698	-3.3065650137	 0.2053556489	-0.460717
H	 0.6808861601	 1.8179728979	-0.768732042	 0.130227
H	-1.035688319	 1.763709691	-0.3239255583	 0.132505
H	 0.2065171756	 1.8433097109	 0.9395780898	 0.125296
H	-0.3796784286	-2.7628351056	-1.658099135	 0.108333
H	-1.2060043149	-3.1272698434	 0.9177534166	 0.097666
H	-0.9253717409	-0.5200703442	 2.0709635083	 0.089777
H	 1.9071990408	-0.4661981357	 1.3076812711	 0.091063
H	 2.4102462721	-3.1986228045	-0.5507201245	 0.287865
192.2372	202.6648	243.4612	291.4285	338.527	371.1959	531.908	573.6026	628.153	637.329	731.0017	753.8817	785.2684	811.9231	826.1102	867.1147	903.8814	912.6952	924.2747	943.3519	987.4401	1028.202	1060.4291	1093.9029	1106.3351	1123.9387	1152.9275	1181.6071	1200.0968	1274.7478	1307.3453	1314.0457	1387.7424	1428.7045	1465.4089	1478.6071	1500.5593	3041.3974	3107.7519	3120.8457	3202.0376	3211.0011	3215.7	3223.7986	3777.7887
CC12OC3C4C1C2C34O	C[C@]12O[C@@H]3[C@@H]4[C@H]1[C@H]2[C@]34O	
InChI=1S/C7H8O2/c1-6-2-3-5(9-6)7(3,8)4(2)6/h2-5,8H,1H3	InChI=1S/C7H8O2/c1-6-2-3-5(9-6)7(3,8)4(2)6/h2-5,8H,1H3/t2-,3-,4+,5+,6-,7-/m0/s1
