20
gdb 93813	2.88892	1.25459	0.9126	2.5943	76.59	-0.2358	0.0295	0.2653	1277.2461	0.171988	-440.332029	-440.322924	-440.32198	-440.365857	33.892	
C	-0.0641524466	 1.453427173	 0.0034331545	-0.344248
N	 0.0321173893	 0.0056053153	-0.0803896339	-0.094457
C	-1.2369356463	-0.7126708443	-0.0129945084	-0.158016
C	-1.1215386159	-2.1846432579	-0.3973010187	-0.219061
C	 0.0444292141	-2.8250699331	 0.3377515815	 0.120164
O	 0.0707731412	-4.202835846	-0.0037880893	-0.438133
C	 1.3280052157	-2.1037883589	-0.0710641266	-0.337883
C	 1.2728702503	-0.5779362293	-0.0045862517	 0.396328
O	 2.3022266325	 0.0723628583	 0.06838672	-0.386743
H	 0.9427951323	 1.8653015454	-0.03353071	 0.169798
H	-0.6577878258	 1.8442705909	-0.8314522424	 0.119814
H	-0.5474780717	 1.7621543707	 0.9402259997	 0.118623
H	-1.653948772	-0.6230770875	 1.0033813143	 0.106658
H	-1.9465585482	-0.2098375308	-0.6811105374	 0.112191
H	-2.055957756	-2.6995417359	-0.1563503237	 0.11337
H	-0.9558072222	-2.2888425265	-1.4758110988	 0.114085
H	-0.1120587181	-2.706055281	 1.4238536191	 0.069861
H	 0.8367747376	-4.6027894712	 0.4207106444	 0.283656
H	 2.1859263165	-2.4084803964	 0.5355697794	 0.118946
H	 1.5591436934	-2.3775667647	-1.108449382	 0.135049
91.6702	105.6399	146.4774	223.0611	238.2315	278.4019	305.8331	362.3358	385.1505	429.4606	490.3314	539.1296	617.3834	674.895	726.4359	842.6094	915.2128	948.8738	978.9383	1050.0943	1091.8859	1096.1763	1102.4849	1146.1898	1154.6773	1182.4109	1226.8903	1260.9032	1267.7041	1298.8682	1307.4282	1352.7132	1357.4958	1390.5658	1428.5264	1443.6346	1459.497	1470.8522	1495.9896	1501.1602	1507.0035	1543.5522	1758.916	2950.6562	2971.4022	3010.9625	3036.1449	3039.0972	3051.1881	3061.6077	3093.1861	3099.136	3170.4261	3814.4947
CN1CCC(O)CC1=O	CN1CC[C@@H](O)CC1=O	
InChI=1S/C6H11NO2/c1-7-3-2-5(8)4-6(7)9/h5,8H,2-4H2,1H3	InChI=1S/C6H11NO2/c1-7-3-2-5(8)4-6(7)9/h5,8H,2-4H2,1H3/t5-/m1/s1
