17
gdb 49534	3.6696	1.13652	0.98403	2.1112	80.25	-0.2505	-0.0295	0.221	1197.8267	0.134874	-384.607784	-384.599787	-384.598843	-384.640518	30.536	
O	-0.8224621363	 0.8511761224	 0.5649394364	-0.246634
C	 0.0068765662	 1.050596216	-0.2891299089	 0.11453
C	 1.2308748456	 1.9057103041	-0.1415749225	-0.068721
C	 1.1723137523	 3.4243882686	-0.5632805832	-0.069051
C	 0.3546561235	 3.6928238129	 0.7301807066	-0.247513
C	 1.4957536772	 2.7209029726	 1.156121309	-0.052861
C	 2.4612891386	 3.6296673938	 0.3092040424	-0.174316
C	 3.7399164009	 3.121492746	-0.1419523881	 0.2989
C	 4.8154460386	 2.7257548611	-0.508133761	-0.434613
H	-0.0874562991	 0.572419936	-1.2925052494	 0.076696
H	 2.0924239537	 1.3754921281	-0.5623212463	 0.099904
H	 1.0034285937	 3.8163698045	-1.5666363194	 0.088736
H	 0.4119091216	 4.708908664	 1.1285961626	 0.09624
H	-0.6576263091	 3.297567075	 0.774528305	 0.13001
H	 1.6945166351	 2.3188352134	 2.1486934605	 0.092061
H	 2.5623096347	 4.6464542414	 0.7009656478	 0.100874
H	 5.7646448129	 2.3749372602	-0.8302558214	 0.19576
85.0885	134.3726	167.4331	203.3344	276.4079	370.9462	494.978	497.9495	551.2965	620.9926	647.8754	717.3333	773.6831	775.0442	840.8648	876.6551	902.8483	921.1254	1007.4872	1017.0289	1029.8359	1048.5218	1087.9915	1093.8237	1117.4684	1133.9396	1187.3883	1196.0019	1221.5478	1227.3703	1253.8363	1371.7851	1390.2878	1426.9566	1528.608	1816.5568	2230.124	2856.3964	3056.0067	3060.2393	3072.75	3112.744	3127.5322	3169.6508	3502.8132
O=CC1C2CC1C2C#C	O=C[C@H]1[C@H]2C[C@@H]1[C@H]2C#C	
InChI=1S/C8H8O/c1-2-5-6-3-7(5)8(6)4-9/h1,4-8H,3H2	InChI=1S/C8H8O/c1-2-5-6-3-7(5)8(6)4-9/h1,4-8H,3H2/t5-,6-,7+,8-
