12
gdb 21264	5.62771	1.68469	1.30725	4.9722	59.06	-0.2591	-0.0843	0.1747	859.6829	0.083473	-410.782488	-410.775771	-410.774827	-410.813662	23.5	
C	-0.0036029242	 1.4172010547	 0.0087709397	-0.245801
O	-0.0241972628	-0.0219494204	 0.0044563986	-0.247106
C	-1.2096376639	-0.6144889673	 0.0119407333	 0.471155
C	-1.2653453429	-2.0205291347	 0.0080212976	-0.027403
N	-2.4288766216	-2.6237893319	 0.0152854167	-0.16051
N	-3.549196581	-1.8720873786	 0.0264038319	-0.066398
N	-3.4901434285	-0.5737961112	 0.0299456318	-0.062165
N	-2.3261537908	 0.0892821972	 0.0228616161	-0.275388
H	 1.0520277073	 1.68569239	 0.0014510358	 0.147028
H	-0.5101153047	 1.8104887228	-0.8754775762	 0.15644
H	-0.4963877606	 1.8049655406	 0.9031547237	 0.156446
H	-0.3667968963	-2.6306586912	-0.000927029	 0.153702
113.6866	154.0927	196.9521	234.3917	361.4275	455.1806	565.9511	620.6717	666.2221	827.0243	841.6589	953.173	959.579	1036.124	1062.4884	1110.7064	1174.5837	1179.192	1246.4427	1320.2114	1416.0948	1480.7622	1491.0607	1493.1711	1537.8489	1595.946	3058.069	3137.9478	3170.758	3178.9423
COC1=CN=NN=N1	COc1cnnnn1	
InChI=1S/C3H4N4O/c1-8-3-2-4-6-7-5-3/h2H,1H3	InChI=1S/C3H4N4O/c1-8-3-2-4-6-7-5-3/h2H,1H3
