15
gdb 17040	6.32578	1.32948	1.31957	3.4445	63.5	-0.2383	0.0138	0.2522	930.7434	0.118732	-399.739085	-399.732084	-399.73114	-399.7703	26.308	
O	-0.1878633844	 1.5544703508	 0.0479763391	-0.427243
C	 0.0153504393	 0.1793977185	-0.0603385577	 0.15685
C	 0.1079879404	-0.708279299	 1.2359109645	-0.07909
C	-1.3882571152	-0.3591054237	 1.5086514968	-0.230737
C	-1.2706030078	-0.6887752436	-0.0114578203	-0.071838
N	-0.3421991671	-1.8241038116	 0.3383184796	-0.078434
C	-0.697361738	-3.0821977968	 0.7521997228	 0.13275
O	-0.1827914545	-3.6836181048	 1.6688239025	-0.315602
H	 0.6697608191	 1.9854003804	 0.1141504188	 0.295344
H	 0.7223949721	-0.099759689	-0.8484340254	 0.09068
H	 0.929005592	-0.8379178502	 1.9378811488	 0.109835
H	-1.9377937673	-1.0802499688	 2.1148807931	 0.118383
H	-1.6123166173	 0.6753062297	 1.7675216616	 0.124838
H	-2.0505041191	-0.7896072849	-0.7658976727	 0.100524
H	-1.458097912	-3.532956127	 0.0818591087	 0.073738
105.8484	161.7699	258.7481	277.9751	342.048	369.1247	488.3375	601.0238	675.2353	752.6806	806.1635	832.1493	889.609	908.0336	977.4954	1019.1188	1031.9508	1058.6181	1097.2247	1122.4355	1142.3506	1171.5495	1191.9677	1211.8243	1230.6015	1255.1243	1301.0518	1360.7713	1417.2075	1430.1154	1498.4953	1789.3736	2921.8114	3061.0798	3087.3667	3127.6347	3150.0844	3165.8213	3827.4053
OC1C2CC1N2C=O	O[C@H]1[C@H]2C[C@@H]1N2C=O	
InChI=1S/C5H7NO2/c7-2-6-3-1-4(6)5(3)8/h2-5,8H,1H2	InChI=1S/C5H7NO2/c7-2-6-3-1-4(6)5(3)8/h2-5,8H,1H2/t3-,4+,5+
