17
gdb 57139	4.2667	0.7075	0.65296	1.1639	91.09	-0.2483	-0.0256	0.2227	1701.5151	0.133378	-384.61375	-384.604188	-384.603244	-384.648774	34.977	
O	-0.3278211449	 1.345463141	 0.0334043417	-0.414492
C	-0.1131758441	-0.0635970415	 0.0313062987	-0.108902
C	 0.6211672707	-0.4928472486	-1.1612030934	 0.412003
C	 1.2521201643	-0.8312828896	-2.1377008558	-0.282363
C	 1.9593789648	-1.2115618639	-3.2359926852	 0.290899
C	 2.5877775189	-1.5486026106	-4.2104519155	-0.550472
C	 0.573857319	-0.5587367275	 1.3052040956	 0.02103
C	 1.6227284685	 0.2721031941	 1.9925740799	-0.262217
C	 0.2619880062	 0.0931298944	 2.6236405582	-0.275867
H	 0.4869612675	 1.7659483348	-0.2618282219	 0.292131
H	-1.1208415165	-0.4990289088	-0.0047852769	 0.125675
H	 3.1391953425	-1.8458266212	-5.0677406379	 0.194308
H	 0.725750343	-1.6340033658	 1.3079311983	 0.097925
H	 2.4752839556	-0.2382417468	 2.4255622582	 0.115313
H	 1.8506170187	 1.2517851535	 1.5867822399	 0.103625
H	-0.401306776	 0.9500067465	 2.6040984148	 0.129615
H	 0.1716972017	-0.5393664701	 3.4994685515	 0.111789
49.1104	75.1214	121.618	200.2406	239.0099	258.9683	297.6192	323.3322	401.2689	491.4502	512.52	552.9839	588.8358	604.1243	612.1508	738.1573	780.5162	809.7786	839.6207	944.558	973.7129	1026.0696	1059.5399	1085.2318	1122.881	1138.319	1171.104	1197.2621	1228.8573	1263.8017	1315.7746	1383.7691	1416.9274	1457.4562	1502.1642	2179.8617	2357.6038	3020.5855	3136.7389	3141.2252	3155.2755	3216.8834	3234.233	3504.6661	3815.3906
OC(C#CC#C)C1CC1	O[C@@H](C#CC#C)C1CC1	
InChI=1S/C8H8O/c1-2-3-4-8(9)7-5-6-7/h1,7-9H,5-6H2	InChI=1S/C8H8O/c1-2-3-4-8(9)7-5-6-7/h1,7-9H,5-6H2/t8-/m0/s1
