20
gdb 18580	3.62529	1.90885	1.5391	0.1574	79.44	-0.2328	0.0267	0.2595	911.1883	0.179259	-311.877633	-311.870483	-311.869539	-311.908744	28.771	
C	-1.0163645674	 1.1698116801	-0.0061481182	-0.409177
C	-0.0865010889	-0.0340461499	-0.0276562343	 0.049915
C	 1.179518145	 0.0133753474	-0.9312728243	-0.2467
C	 2.0270653382	-0.6147185874	 0.2134899936	 0.001792
C	 3.2431752295	 0.1961220156	 0.7011117989	-0.2722
C	 2.6296373904	 1.1454564179	 1.7071171522	-0.06419
C	 1.3518342841	 0.8655433778	 1.9709702448	-0.070055
C	 0.8438920246	-0.3231177966	 1.1987024194	-0.077416
H	-0.4678513664	 2.0883631913	 0.2283376994	 0.115897
H	-1.4996217907	 1.3088061207	-0.9799419694	 0.110457
H	-1.8084543918	 1.0526624425	 0.7425451199	 0.10889
H	-0.6651033193	-0.9378644923	-0.2498205984	 0.06566
H	 1.1308881786	-0.5408539048	-1.8721351939	 0.092088
H	 1.4913526484	 1.0391552434	-1.1537082628	 0.09582
H	 2.2475511966	-1.6709026804	 0.049663539	 0.061808
H	 4.0109842073	-0.4345013402	 1.171036874	 0.099539
H	 3.7427506648	 0.7226793105	-0.1231554669	 0.099953
H	 3.1957964801	 1.9496313324	 2.1662042315	 0.087384
H	 0.7343617017	 1.4119986162	 2.6766012974	 0.087945
H	 0.4973637851	-1.1244012839	 1.861411948	 0.06259
97.6847	198.5354	240.827	298.9896	365.0188	403.0288	500.2439	600.8483	696.829	742.9129	782.6223	789.5663	856.1741	884.7928	906.4686	925.5738	944.6185	972.2009	975.7142	991.4839	1035.2424	1085.8623	1109.8794	1125.8329	1134.144	1158.1468	1198.7633	1211.4917	1247.8376	1263.5939	1266.9173	1307.189	1310.4909	1337.0152	1362.5792	1390.4312	1410.4269	1481.2109	1487.5193	1496.4372	1499.9813	1674.3605	3004.5432	3023.1065	3026.3444	3032.9198	3040.5036	3046.2595	3085.9849	3086.6197	3096.4246	3105.4959	3171.2257	3196.806
CC1CC2CC=CC12	C[C@H]1C[C@H]2CC=C[C@@H]12	
InChI=1S/C8H12/c1-6-5-7-3-2-4-8(6)7/h2,4,6-8H,3,5H2,1H3	InChI=1S/C8H12/c1-6-5-7-3-2-4-8(6)7/h2,4,6-8H,3,5H2,1H3/t6-,7+,8-/m0/s1
