14
gdb 130967	7.58403	0.71845	0.65897	1.8072	66.94	-0.2306	-0.0311	0.1995	1551.4111	0.099676	-466.150764	-466.142069	-466.141125	-466.186319	29.147	
O	 0.2570251883	-0.1982153188	 0.3634403149	-0.246061
C	 0.2903097365	 0.7618124269	-0.3591425235	 0.156128
C	 0.8148521488	 2.1280336517	 0.0674783651	-0.248587
N	 0.7181250072	 3.0626958288	-1.0300896554	-0.392643
C	 1.1194360605	 4.2519639856	-0.8281931947	 0.573343
N	 1.6637509907	 4.9104517183	 0.265578765	-0.314277
N	 1.9426407996	 6.2216617181	-0.0104969104	-0.078531
N	 1.6114884956	 6.4436739658	-1.2106665944	-0.054979
N	 1.1152930742	 5.2956376733	-1.7372874738	-0.320159
H	-0.0633280893	 0.7337894838	-1.4133371924	 0.093069
H	 0.2302815509	 2.4318445529	 0.9541847369	 0.12117
H	 1.8495214741	 1.9759419403	 0.4232883081	 0.121154
H	 1.860161546	 4.5433030557	 1.1794699195	 0.294507
H	 0.7939852268	 5.2639240376	-2.6892356948	 0.295866
22.8451	53.3654	104.7517	152.9358	207.1166	298.2678	349.1062	398.1077	441.932	582.3139	701.0497	706.1375	730.5593	781.394	987.554	1019.507	1022.9343	1046.4972	1087.9421	1098.2591	1107.306	1236.5781	1302.4836	1335.4047	1373.5126	1386.2744	1402.9095	1447.5387	1523.4167	1792.613	1842.9213	2900.8006	2939.3165	2966.8707	3696.3134	3705.7268
O=CCN=C1NN=NN1	O=CCN=c1[nH]nn[nH]1	
InChI=1S/C3H5N5O/c9-2-1-4-3-5-7-8-6-3/h2H,1H2,(H2,4,5,6,7,8)	InChI=1S/C3H5N5O/c9-2-1-4-3-5-7-8-6-3/h2H,1H2,(H2,4,5,6,7,8)
