20
gdb 99616	2.18953	1.30501	1.0514	3.2265	79.89	-0.2836	0.0191	0.3027	1261.2883	0.168796	-403.140242	-403.130198	-403.129254	-403.175283	36.207	
C	 0.1274341913	 1.4427024621	-0.093527495	-0.249014
O	-0.2271373168	 0.0879431406	-0.3093562538	-0.236437
C	 0.6244731342	-0.6030406701	-1.1935146706	-0.0771
C	 1.9933196879	-0.7294626632	-0.6269752248	 0.278943
N	 3.0562142625	-0.8161392798	-0.1816441497	-0.336447
C	 0.0267885209	-1.9707376645	-1.4822522131	 0.362661
C	-0.1781413011	-2.8505077722	-0.26541434	-0.475677
C	-0.971804191	-2.0262162981	-2.6116717341	-0.31559
C	 0.4103875295	-2.6017139073	-2.7990228187	-0.306653
H	 1.1147311901	 1.5355218773	 0.3781683688	 0.135767
H	 0.1312186984	 2.0096576459	-1.0365651268	 0.111171
H	-0.6289813111	 1.8620653622	 0.5722437321	 0.138537
H	 0.7257638246	-0.045545364	-2.1397448921	 0.103002
H	-0.8399190522	-2.3643844321	 0.4565793942	 0.13841
H	-0.6267122541	-3.8051513512	-0.5541935081	 0.11493
H	 0.7736347705	-3.06285017	 0.2334112783	 0.137404
H	-1.8056282013	-2.7113693859	-2.5064141552	 0.119923
H	-1.2188275038	-1.1049312113	-3.1283077417	 0.116216
H	 1.1020955867	-2.0743168333	-3.4477412536	 0.118653
H	 0.5241020548	-3.6798076251	-2.8185118863	 0.1213
64.8516	102.1728	134.2945	171.8503	179.3407	214.3869	250.503	307.9173	325.3791	350.5329	392.6936	477.8865	528.1565	609.8404	778.9644	786.6481	883.2152	894.1477	931.7008	959.4291	988.309	1014.0682	1047.9027	1077.8579	1083.537	1131.6478	1142.8324	1184.3243	1186.0548	1214.9103	1275.913	1328.1506	1354.5736	1383.9099	1422.7565	1471.5525	1479.4893	1487.6074	1489.8076	1503.3734	1508.6796	1512.2145	2350.1287	2965.5948	2990.0658	3038.9914	3051.6738	3106.035	3119.5753	3132.2848	3132.5502	3136.6951	3211.2678	3224.8484
COC(C#N)C1(C)CC1	CO[C@@H](C#N)C1(C)CC1	
InChI=1S/C7H11NO/c1-7(3-4-7)6(5-8)9-2/h6H,3-4H2,1-2H3	InChI=1S/C7H11NO/c1-7(3-4-7)6(5-8)9-2/h6H,3-4H2,1-2H3/t6-/m0/s1
