20
gdb 101773	3.27126	0.81115	0.73003	5.7422	71.93	-0.2411	0.0251	0.2662	1572.2681	0.169753	-477.446755	-477.436496	-477.435552	-477.483128	36.474	
C	 0.4781494578	 1.2952431091	-0.3291573235	-0.393139
C	-0.2210480538	-0.0085086222	 0.0869842455	 0.043254
C	 0.4243053509	-0.6046303544	 1.3382589236	-0.085298
O	 0.2176649276	 0.3175436515	 2.4018764669	-0.424892
N	-1.6620847126	 0.1334446199	 0.3561865347	-0.317801
H	-2.4970338305	-1.5545453571	 0.0997246911	 0.29958
H	-1.7889131427	 0.7510272366	 1.1486285103	 0.242292
C	-2.5124094392	 0.4912817715	-0.7748585509	-0.318825
C	-3.0825587237	-0.7637935528	-1.461009675	 0.421468
O	-2.9641340997	-1.8673764153	-0.709198631	-0.363898
O	-3.6005523895	-0.7482088485	-2.5441883411	-0.335282
H	 1.527534642	 1.1037383981	-0.5758054257	 0.119269
H	 0.0112913811	 1.74212385	-1.2106557865	 0.122132
H	 0.4484363466	 2.0206521226	 0.4881808997	 0.135646
H	-0.1144404739	-0.7481773691	-0.7170447239	 0.095302
H	-0.0430566868	-1.5745148153	 1.560190444	 0.095833
H	 1.4964327395	-0.7711040172	 1.1558034542	 0.094406
H	 0.5214727509	-0.0831383329	 3.2207192773	 0.296265
H	-3.3706608353	 1.0688781883	-0.415645544	 0.140375
H	-2.0248124085	 1.1002994772	-1.5444221757	 0.133314
43.8999	60.2	98.5901	126.9515	204.7164	228.5657	247.6305	270.039	330.5277	365.7371	452.9052	516.6879	556.4055	617.2231	677.2011	758.9356	822.2859	876.0754	896.5456	916.1762	938.1606	984.6165	1023.092	1113.4417	1118.0901	1134.5546	1166.4308	1212.9773	1219.8916	1262.3829	1289.6315	1337.0612	1357.5564	1363.4747	1403.3066	1434.8657	1454.9956	1464.8215	1479.7857	1492.1656	1503.8323	1514.822	1878.6417	2986.1848	3025.2791	3032.8314	3040.78	3047.141	3088.4337	3110.1678	3128.0373	3433.3756	3560.2944	3844.6984
CC(CO)[NH2+]CC([O-])=O	C[C@@H](CO)NCC(=O)O	
InChI=1S/C5H11NO3/c1-4(3-7)6-2-5(8)9/h4,6-7H,2-3H2,1H3,(H,8,9)	InChI=1S/C5H11NO3/c1-4(3-7)6-2-5(8)9/h4,6-7H,2-3H2,1H3,(H,8,9)/t4-/m0/s1
