17
gdb 64731	3.33777	1.16758	1.09141	2.9509	72.06	-0.2648	0.0088	0.2736	1147.5021	0.136062	-418.043932	-418.035408	-418.034464	-418.077732	31.006	
C	-0.1012215192	 1.6790275975	-0.1351706049	-0.44383
C	 0.0493006236	 0.1665331376	-0.0560599297	 0.346537
C	-1.3080520446	-0.5680169134	 0.0157085233	-0.380655
C	-2.1490292739	-0.1390834352	 1.1309350776	 0.277802
N	-2.8174893615	 0.2104144239	 2.0059197418	-0.307685
C	 0.9545415206	-0.4455097766	-1.1693254545	-0.233979
N	 2.0290043044	-1.1517914541	-0.4581619193	-0.25732
C	 1.8341415114	-0.9207547201	 0.771654814	 0.113607
O	 0.7803220101	-0.1639837101	 1.1619074714	-0.243194
H	 0.8845079606	 2.1511686137	-0.1415963823	 0.135586
H	-0.6231752165	 1.9600113252	-1.0557541752	 0.126303
H	-0.6675027546	 2.0645682387	 0.7162657972	 0.15754
H	-1.854247042	-0.4044595688	-0.920449915	 0.15667
H	-1.1282076349	-1.6449410806	 0.1009251078	 0.162476
H	 0.408794845	-1.1409968027	-1.8164379293	 0.118733
H	 1.3829256429	 0.3297160249	-1.8139713385	 0.122788
H	 2.4535071387	-1.2785248901	 1.5865564057	 0.148621
50.8736	88.6084	140.2373	233.0227	289.4409	318.267	381.3095	397.8272	410.1628	487.675	547.704	696.9928	788.7668	850.8932	898.7073	906.7484	946.8317	958.9367	980.2366	987.2784	1003.1779	1105.701	1151.1173	1172.6936	1194.1643	1251.378	1292.0874	1318.5585	1339.8536	1346.5498	1417.1278	1454.8663	1485.7855	1494.501	1501.6811	1708.4472	2365.2106	3036.3761	3043.7488	3048.4296	3071.133	3090.3935	3118.0671	3132.7819	3219.8394
CC1(CC#N)CN=CO1	C[C@@]1(CC#N)CN=CO1	
InChI=1S/C6H8N2O/c1-6(2-3-7)4-8-5-9-6/h5H,2,4H2,1H3	InChI=1S/C6H8N2O/c1-6(2-3-7)4-8-5-9-6/h5H,2,4H2,1H3/t6-/m1/s1
