23
gdb 53527	3.30075	0.76636	0.71326	0.0638	95.34	-0.2397	0.0633	0.303	1744.8248	0.202882	-351.130916	-351.119708	-351.118764	-351.16852	40.043	
C	 0.079914785	 1.45404293	-0.4145881452	-0.496946
C	 0.0289723288	 0.0321753034	-0.1031301258	 0.070439
C	-0.0037847905	-1.1438546989	 0.1546505405	 0.075418
C	-0.0600842531	-2.5729820579	 0.459527037	-0.439989
C	-1.430117298	-3.1969761596	 0.1832352586	 0.36762
C	-2.5447778708	-2.6281885542	 1.0408001219	-0.456237
C	-1.7610409718	-3.5898519811	-1.2378304094	-0.3211
C	-1.5250632471	-4.6621220552	-0.1966698419	-0.043015
C	-0.3449397041	-5.6062327513	-0.2883862034	-0.413155
H	 1.0268519643	 1.7236021937	-0.8957924165	 0.144811
H	-0.7287176859	 1.7424921728	-1.095549445	 0.145274
H	-0.0163538249	 2.0661886286	 0.4892181472	 0.144358
H	 0.7133029725	-3.0901522912	-0.1185076476	 0.120058
H	 0.200315887	-2.7291934652	 1.5163591303	 0.119712
H	-2.6338572447	-1.5462078515	 0.8981646406	 0.127549
H	-3.5075353164	-3.0839186037	 0.7900208645	 0.108463
H	-2.356504083	-2.8102001546	 2.1061802637	 0.109037
H	-2.7685607921	-3.4200342383	-1.6035923588	 0.104093
H	-0.9902250039	-3.4488943985	-1.9898634231	 0.106859
H	-2.4264040919	-5.14679972	 0.1732735179	 0.078823
H	 0.5331621117	-5.1333077125	-0.7372765755	 0.116135
H	-0.0521912183	-5.9856419605	 0.6974287946	 0.115317
H	-0.5968240427	-6.4706349044	-0.9128664646	 0.116476
24.0828	48.8882	81.8493	163.7724	195.4979	209.6224	225.1453	242.4045	259.9393	350.4696	374.6908	382.972	432.6799	445.7952	505.1102	718.1042	762.2533	793.6449	875.7849	902.952	914.5824	958.6925	987.3875	1025.6412	1053.4409	1053.8512	1059.0155	1117.8171	1123.5465	1135.0774	1164.3304	1185.372	1216.022	1298.2366	1319.7859	1354.1159	1409.9602	1413.7041	1415.8863	1431.3706	1465.266	1479.6893	1480.0599	1488.5867	1494.7043	1496.1795	1502.3926	1510.5901	2370.8121	3004.3438	3022.5386	3024.377	3027.8995	3059.9879	3083.4152	3084.0219	3084.2026	3085.4469	3101.1999	3104.3115	3121.4564	3125.9466	3203.8528
CC#CCC1(C)CC1C	CC#CC[C@@]1(C)C[C@H]1C	
InChI=1S/C9H14/c1-4-5-6-9(3)7-8(9)2/h8H,6-7H2,1-3H3	InChI=1S/C9H14/c1-4-5-6-9(3)7-8(9)2/h8H,6-7H2,1-3H3/t8-,9+/m1/s1
