17
gdb 8299	4.85266	1.21074	1.03577	1.4872	66.5	-0.2547	0.0244	0.2791	1127.53	0.141438	-400.985177	-400.976907	-400.975963	-401.018726	29.224	
C	 0.3947886214	 0.8853968414	 0.36995003	-0.242305
O	-0.4943471502	 0.2694718454	-0.5459521245	-0.235658
C	 0.1314805968	-0.4836524391	-1.555496071	-0.084469
C	 0.5937348637	-1.859469101	-1.1084420019	 0.11448
C	 1.313858748	-2.730872423	-2.1589644561	-0.382303
C	 2.4940986946	-2.6210050455	-1.2165572166	 0.442741
N	 3.6650391901	-3.0655603181	-1.2105894954	-0.537519
O	 1.8273629099	-1.827423573	-0.303129255	-0.264203
H	 0.9499104309	 0.1550656152	 0.9699776125	 0.132169
H	 1.120391019	 1.528654781	-0.1508619621	 0.106462
H	-0.216640863	 1.5055549693	 1.0296388381	 0.126904
H	-0.6195851909	-0.6254222071	-2.3429609446	 0.115154
H	 0.9851236225	 0.0600929781	-1.9937888681	 0.094621
H	-0.1956695588	-2.3610815931	-0.5417815692	 0.105073
H	 0.9261191478	-3.7401309559	-2.3013398992	 0.142258
H	 1.4693892111	-2.2600611055	-3.1325715707	 0.137695
H	 4.172145857	-2.7671550291	-0.375677226	 0.228899
61.8577	81.5176	118.955	177.9249	237.7837	358.5424	388.2901	446.2251	495.6175	513.0527	723.025	822.6847	866.4731	880.2057	936.1136	957.0868	1012.8117	1026.9275	1058.008	1086.9247	1141.849	1172.9014	1186.0168	1220.0373	1225.684	1247.5928	1306.9475	1311.6481	1373.2129	1416.4354	1463.8618	1467.1227	1483.9866	1492.9479	1512.4467	1828.3719	2970.1201	2991.0599	3053.2372	3064.5992	3081.1922	3083.1564	3120.7197	3141.1642	3477.9388
COCC1CC(=N)O1	COC[C@H]1C[C]([NH])O1	
InChI=1S/C5H9NO2/c1-7-3-4-2-5(6)8-4/h4,6H,2-3H2,1H3	InChI=1S/C5H9NO2/c1-7-3-4-2-5(6)8-4/h4,6H,2-3H2,1H3/t4-/m1/s1
