17
gdb 94932	2.55211	1.51352	1.24755	4.2897	68.85	-0.2341	-0.0134	0.2207	1041.0938	0.135758	-458.946919	-458.938875	-458.937931	-458.979886	30.144	
O	 0.1869042064	 1.4227157349	-0.0851094081	-0.42007
C	 0.0718143809	 0.0146259383	 0.0584142632	 0.07028
C	 0.5229455089	-0.3716344207	 1.4784095865	-0.084346
O	-0.6611594791	-0.5619999319	 2.2619397257	-0.257074
C	-1.7118345309	-0.91877214	 1.4047409914	 0.068846
C	-2.4631269507	 0.2323202354	 0.7637082299	-0.150622
C	-2.316900455	 1.6304510282	 1.26354729	 0.159734
O	-3.1163959048	 2.497594415	 0.9988350484	-0.286324
C	-1.3572999212	-0.5307773937	 0.0093012198	-0.144451
H	-0.2251158567	 1.680401085	-0.9167627893	 0.293468
H	 0.6877056499	-0.4934152642	-0.696156277	 0.084197
H	 1.1045405983	-1.3033704084	 1.4569968555	 0.103514
H	 1.121822033	 0.41875633	 1.9363333926	 0.132234
H	-2.230602796	-1.8335113094	 1.6746359339	 0.110952
H	-3.4628736373	 0.0236956127	 0.3950164972	 0.111444
H	-1.4555214561	 1.8168638058	 1.9277492391	 0.101527
H	-1.6714416695	-1.1126052171	-0.8485090288	 0.106691
75.0712	101.8798	191.6366	226.2079	299.1278	346.8644	392.529	431.0757	512.8676	611.6291	704.8569	754.8873	787.091	833.0508	861.2537	923.6434	967.6377	991.4081	1009.5357	1034.3861	1049.2114	1068.4964	1107.6919	1140.4507	1149.163	1198.2563	1226.0065	1248.8122	1309.5669	1324.4301	1328.0185	1373.8428	1403.613	1413.6022	1445.3853	1504.4962	1801.478	2984.5299	3002.6865	3020.7488	3113.068	3154.129	3164.6293	3187.2695	3814.6179
OC1COC2C(C=O)C12	O[C@H]1CO[C@H]2[C@@H](C=O)[C@@H]12	
InChI=1S/C6H8O3/c7-1-3-5-4(8)2-9-6(3)5/h1,3-6,8H,2H2	InChI=1S/C6H8O3/c7-1-3-5-4(8)2-9-6(3)5/h1,3-6,8H,2H2/t3-,4-,5-,6-/m0/s1
