16
gdb 102342	1.85052	1.45706	1.21166	3.9781	69.64	-0.2774	-0.0206	0.2568	1138.772	0.122624	-434.05896	-434.048998	-434.048054	-434.093858	34.62	
C	 0.0607030268	 1.4800899719	 0.0604395917	-0.349178
N	-0.0316168442	 0.0173072089	 0.0266078972	-0.299481
C	-1.3785803152	-0.5337262813	-0.0175294752	-0.082791
C	-1.2771264368	-2.0985750092	-0.0450359756	-0.092419
O	-2.5255259935	-2.7251151654	-0.0561791838	-0.399941
C	-2.1104642314	-0.1693757963	 1.2137616554	 0.322753
N	-2.688186411	 0.0415598181	 2.1911781023	-0.328974
C	-2.1626189622	-0.0731561945	-1.195274094	 0.303937
N	-2.6744260617	 0.3089145876	-2.1581110343	-0.328114
H	 1.1176261306	 1.7550114998	 0.0638787555	 0.139269
H	-0.4324727158	 1.9756172604	-0.7882694303	 0.136821
H	-0.3864600804	 1.8493317052	 0.987591672	 0.157397
H	 0.482946646	-0.3457446081	-0.7697713021	 0.242959
H	-0.769575713	-2.3794714686	-0.9729988889	 0.135305
H	-0.6452862167	-2.3839734663	 0.8049133934	 0.134669
H	-2.9284962312	-2.6340382521	 0.8151765067	 0.30779
96.625	105.2825	122.308	145.4492	180.9932	197.2381	220.1949	277.2881	376.5119	390.3315	406.3862	493.2768	516.1971	580.6771	661.0569	686.0281	765.1291	900.4183	999.0562	1040.9948	1088.666	1123.8166	1152.252	1167.6809	1208.4973	1269.4879	1379.7524	1414.1058	1460.2552	1486.7403	1494.4858	1496.5094	1521.3631	2349.8962	2364.7845	3004.0734	3032.2668	3093.3751	3098.3848	3131.7845	3525.5785	3800.7316
CNC(CO)(C#N)C#N	CNC(CO)(C#N)C#N	
InChI=1S/C5H7N3O/c1-8-5(2-6,3-7)4-9/h8-9H,4H2,1H3	InChI=1S/C5H7N3O/c1-8-5(2-6,3-7)4-9/h8-9H,4H2,1H3
