20
gdb 113478	4.25816	0.94097	0.93005	2.6303	79.51	-0.2344	0.0769	0.3113	1340.3741	0.171714	-403.08365	-403.075254	-403.074309	-403.116945	32.651	
O	 0.0662012617	 1.2553597944	-0.6083477467	-0.42229
C	 0.0337300668	 0.1551477866	 0.284903467	-0.060148
C	-1.3402643336	-0.4691303319	 0.3384011259	-0.124886
N	-1.7266583611	-1.1514547348	-0.9275507832	-0.408957
C	-1.5645647849	-1.931461926	 0.2982447547	 0.369073
C	-0.5939068364	-3.1315225332	 0.3725134146	-0.309738
C	-1.7123016837	-3.9371100689	 1.0557352747	-0.042085
C	-2.1714362206	-3.2386013274	 2.3028231224	-0.276072
C	-2.660605328	-2.7356940851	 0.96830221	-0.143031
H	-0.2657156277	 0.915259066	-1.4481586976	 0.289275
H	 0.7717431138	-0.6105857578	 0.0011788029	 0.088648
H	 0.3170770183	 0.5442653068	 1.2687540048	 0.104955
H	-2.1051371333	 0.1362750687	 0.8225602319	 0.086901
H	-2.7152001794	-1.0024040174	-1.1181719593	 0.230176
H	-0.3486541507	-3.4899991477	-0.6295119373	 0.118592
H	 0.3295083289	-3.0050691432	 0.9473162579	 0.099279
H	-1.9308222723	-4.980912018	 0.8697702408	 0.091293
H	-2.9098468438	-3.7717015761	 2.8934687088	 0.113232
H	-1.4759327467	-2.6427585942	 2.8895485173	 0.109357
H	-3.7133011172	-2.7021438608	 0.7099845703	 0.086425
66.1989	116.573	155.273	197.2929	321.6908	378.3374	425.5562	446.7974	459.675	486.3338	630.9463	749.5576	784.4243	828.5001	834.8329	887.3831	922.5314	945.4487	959.7145	977.522	1008.2444	1009.9917	1047.2284	1056.8875	1066.8952	1083.763	1089.1235	1104.2633	1154.0431	1178.5317	1197.1123	1244.2054	1258.0105	1265.7497	1300.4033	1321.3262	1355.7501	1384.9544	1427.4398	1474.5016	1483.7685	1497.2402	1500.4624	2990.7841	3047.3065	3071.9214	3107.4936	3113.8809	3122.1984	3169.7272	3190.1149	3202.5181	3487.8785	3785.6039
OCC1NC11CC2CC12	OC[C@H]1N[C@]21C[C@H]1C[C@@H]21	
InChI=1S/C7H11NO/c9-3-6-7(8-6)2-4-1-5(4)7/h4-6,8-9H,1-3H2	InChI=1S/C7H11NO/c9-3-6-7(8-6)2-4-1-5(4)7/h4-6,8-9H,1-3H2/t4-,5-,6-,7-/m1/s1
