14
gdb 27862	2.10143	1.88426	0.99372	5.3596	71.38	-0.2036	-0.0155	0.188	1098.6036	0.102333	-470.06621	-470.05848	-470.057535	-470.098272	29.793	
N	 0.0435082019	 1.3036912444	-0.0970594076	-0.558422
C	-0.0514928593	-0.044144509	-0.0371339166	 0.509944
N	-1.2010923487	-0.641130463	-0.0158945127	-0.453379
C	-1.1507962724	-2.0132033432	-0.0038336906	 0.423285
O	-2.3513222651	-2.6139125864	 0.0121986171	-0.410797
C	-0.0054868602	-2.7431629233	-0.0050473264	-0.27884
C	 1.253998685	-2.0673801006	-0.0183068969	 0.384587
N	 2.4093851057	-2.5849705687	-0.0170936753	-0.549633
O	 1.1474379752	-0.6356332936	-0.0333170414	-0.263021
H	 0.9322228363	 1.732340156	 0.095621921	 0.277074
H	-0.7964894921	 1.8313087589	 0.0670436246	 0.279331
H	-3.0096102376	-1.9064030402	 0.0055716945	 0.300695
H	-0.0106029211	-3.8221825179	 0.0058693672	 0.122359
H	 3.1361617424	-1.8717808734	-0.0308168569	 0.216816
139.5044	173.9324	198.1369	298.9833	327.4513	361.232	487.2769	490.3834	499.6174	555.3291	570.0282	646.876	675.1567	692.5057	768.9006	797.8737	828.7577	853.8841	978.3771	1031.4865	1086.893	1136.9479	1214.0472	1239.3134	1310.7999	1432.9995	1467.4569	1595.5881	1666.2019	1699.7722	1773.2558	3253.8952	3512.9562	3620.5164	3750.834	3781.7424
NC1=NC(O)=CC(=N)O1	NC1=N[C@H](O)C=C([NH])O1	
InChI=1S/C4H5N3O2/c5-2-1-3(8)7-4(6)9-2/h1,5,8H,(H2,6,7)	InChI=1S/C4H6N3O2/c5-2-1-3(8)7-4(6)9-2/h1,3,5,8H,(H2,6,7)/t3-/m1/s1
