27
gdb 58622	2.16531	1.16687	1.09064	0.2326	94.92	-0.2597	0.0784	0.3381	1392.7985	0.25049	-353.554388	-353.543396	-353.542452	-353.589461	42.85	
C	 0.6132393067	-0.5221941009	 1.359922872	-0.380975
C	 0.0207403359	-0.0986552115	 0.0037362798	-0.033523
C	 1.0054950599	-0.4311017168	-1.1258172013	-0.411591
C	-1.4015735334	-0.6712525536	-0.1739851708	 0.397231
C	-1.8152925071	-1.3145831249	-1.4798732174	-0.321792
C	-1.5356541373	-2.1752744622	-0.2755948354	-0.321792
C	-2.4648027777	 0.1636971664	 0.5708821561	-0.033523
C	-2.8468451014	 1.4122052929	-0.2445662531	-0.380976
C	-3.7300115059	-0.6032084902	 0.9798573974	-0.411592
H	 1.5577810227	-0.0023815786	 1.5525145992	 0.105689
H	-0.0629185885	-0.2998916659	 2.1910523374	 0.112433
H	 0.815517559	-1.5987073673	 1.3782657832	 0.112024
H	-0.0784324607	 0.9950793786	 0.0203680797	 0.069882
H	 1.1338342203	-1.512184959	-1.2527980435	 0.114477
H	 0.6842373186	-0.0130751298	-2.0838377113	 0.115414
H	 1.9919717967	-0.0145173812	-0.8972996123	 0.108869
H	-2.8497948655	-1.2054777321	-1.7898421314	 0.103314
H	-1.1159698308	-1.3431380027	-2.3064530336	 0.107162
H	-0.6233485974	-2.7633747771	-0.2795810461	 0.103314
H	-2.3687696257	-2.6711562556	 0.2072339397	 0.107162
H	-1.9971919656	 0.5141638976	 1.5008712676	 0.069883
H	-1.9677195548	 1.9854465555	-0.5542693584	 0.112433
H	-3.3949271658	 1.1334380462	-1.1512244712	 0.112024
H	-3.4885520583	 2.0792845427	 0.3408162092	 0.10569
H	-3.508374851	-1.4117577567	 1.681913955	 0.115414
H	-4.4372781332	 0.0747682053	 1.4687543426	 0.108868
H	-4.2445925397	-1.0362649694	 0.1144089268	 0.114478
81.2633	88.7066	203.848	222.023	227.0018	237.4932	255.5524	263.5298	285.1048	320.6975	334.5874	390.5101	394.2731	463.8095	477.5889	569.2429	641.7001	777.2757	811.8719	887.6317	906.0731	922.0635	924.5773	937.3217	938.6739	957.8198	971.046	983.96	1056.7955	1085.7518	1101.9172	1112.0719	1133.606	1135.3536	1172.0298	1193.426	1200.2763	1246.9672	1314.8888	1346.0135	1349.9161	1376.9029	1381.0787	1400.6545	1402.2454	1419.9642	1421.4407	1464.511	1487.4626	1488.351	1492.9977	1493.5284	1502.0618	1506.4048	1509.8416	1513.2498	1514.7639	3007.6574	3012.2543	3028.9487	3029.2195	3033.532	3033.7867	3091.42	3091.5803	3097.7629	3098.848	3102.76	3103.4287	3107.6507	3107.9531	3134.2853	3135.6514	3211.5218	3224.5818
CC(C)C1(CC1)C(C)C	CC(C)C1(CC1)C(C)C	
InChI=1S/C9H18/c1-7(2)9(5-6-9)8(3)4/h7-8H,5-6H2,1-4H3	InChI=1S/C9H18/c1-7(2)9(5-6-9)8(3)4/h7-8H,5-6H2,1-4H3
