17
gdb 9642	4.27514	1.17827	1.09117	3.7935	70.33	-0.2773	0.0165	0.2938	1135.8668	0.140644	-363.863538	-363.85479	-363.853846	-363.896889	31.697	
C	 0.0567387	 1.4557541611	-0.2696536619	-0.378147
C	-0.0235653566	 0.023704915	 0.2716452254	-0.20015
C	-1.4259632993	-0.5425240184	 0.1796281523	-0.027904
C	-1.9353992279	-1.1729945768	-1.0917091939	-0.340569
C	-1.6441557577	-2.0409767359	 0.1242934364	 0.228237
O	-0.4957618771	-2.8348759903	 0.1324112812	-0.441788
C	-2.7669434445	-2.6008713688	 0.8476662274	 0.244568
N	-3.6624691939	-3.0665375817	 1.4131041464	-0.344691
H	 1.0754970132	 1.8460582755	-0.1883923003	 0.118569
H	-0.2375992457	 1.4979197386	-1.3235123444	 0.119009
H	-0.6039056465	 2.1296246835	 0.2863894791	 0.118651
H	 0.6656716495	-0.6275113594	-0.2731837147	 0.116415
H	 0.3003945455	 0.0047753492	 1.3191057829	 0.111704
H	-2.1709802686	-0.0064675459	 0.7614043165	 0.113559
H	-2.9671213391	-1.0249825276	-1.38840237	 0.136276
H	-1.2279916839	-1.2908045896	-1.9062611717	 0.128298
H	-0.6682307473	-3.6228320985	-0.3957741708	 0.297963
67.8737	131.6869	133.6237	211.4319	234.7904	288.4145	319.3516	359.7874	430.6183	460.9671	580.9017	612.6376	702.0103	779.4652	807.2345	894.8783	918.262	950.8211	983.035	1056.2133	1063.5008	1090.5188	1130.1549	1196.652	1241.6363	1256.7045	1293.7056	1336.5589	1364.5295	1409.2189	1421.9057	1476.3587	1489.9599	1498.3721	1508.5463	2345.8582	3034.0683	3040.299	3084.4561	3107.2918	3109.6733	3135.1527	3149.9202	3230.7189	3795.7416
CCC1CC1(O)C#N	CC[C@H]1C[C@]1(O)C#N	
InChI=1S/C6H9NO/c1-2-5-3-6(5,8)4-7/h5,8H,2-3H2,1H3	InChI=1S/C6H9NO/c1-2-5-3-6(5,8)4-7/h5,8H,2-3H2,1H3/t5-,6-/m0/s1
