24
gdb 88689	3.08964	0.9473	0.87358	1.3457	91.41	-0.215	0.0855	0.3005	1497.3881	0.215642	-368.373507	-368.363177	-368.362233	-368.408933	38.976	
C	 2.7428689576	-0.2827419692	-0.0043765128	-0.306686
N	 1.628476704	-1.1730983199	 0.2818353685	-0.089224
C	 1.8608476348	-2.2801997749	 1.2017683504	-0.263368
C	 0.9828579519	-1.1398382077	 1.6007064798	 0.002419
C	 1.3938845894	-0.1921737534	 2.6837445331	-0.038301
C	 0.6211353645	 1.0907475948	 2.9302059711	-0.340682
C	 0.5969783959	-0.0079637846	 3.9656194698	 0.327392
C	-0.6968509163	-0.7697247318	 4.1897228999	-0.45222
C	 1.3987898678	 0.2061203389	 5.2369750008	-0.446412
H	 3.467757479	-0.1671906251	 0.8167047746	 0.096818
H	 3.2841583896	-0.6722393136	-0.8728402542	 0.119822
H	 2.3586916014	 0.7094898347	-0.2616032747	 0.123107
H	 1.4434815194	-3.2428942067	 0.9157582904	 0.109285
H	 2.8344328978	-2.3388599571	 1.6899094957	 0.099534
H	-0.0919307019	-1.2905520671	 1.5237381446	 0.082952
H	 2.4682462497	-0.1162887762	 2.8221585647	 0.077077
H	 1.1786622014	 1.9981916163	 3.1391151202	 0.105086
H	-0.2777716969	 1.2487156513	 2.3416801177	 0.108829
H	-1.3000594686	-0.8490123361	 3.2822799665	 0.118021
H	-0.5034115452	-1.7856055215	 4.5540875541	 0.115498
H	-1.3086807659	-0.2605259028	 4.9436455915	 0.113119
H	 0.8161238153	 0.7667159861	 5.9779537559	 0.113156
H	 1.6810660141	-0.7503214742	 5.6931323798	 0.114156
H	 2.3180400014	 0.7677114697	 5.0428667929	 0.110622
35.4062	113.2741	150.5859	180.3429	207.4405	227.508	250.3653	321.8578	354.3387	364.1259	389.2195	429.8167	443.7069	540.4779	700.9591	734.1646	827.9274	865.5762	895.0326	920.916	930.6861	971.0211	972.5718	1031.6703	1032.5544	1059.4346	1081.7932	1089.5112	1118.5996	1130.0875	1134.0689	1155.5299	1164.7417	1202.5374	1218.273	1268.9393	1326.8871	1340.8022	1355.9225	1412.1728	1426.0312	1450.5633	1455.33	1482.1369	1489.0871	1491.386	1494.0713	1500.467	1501.9939	1510.9495	1517.5651	2976.1947	3018.0818	3026.0726	3064.058	3076.5413	3077.0481	3080.9137	3096.4914	3100.1466	3110.408	3119.3085	3125.4081	3147.1551	3163.5313	3204.3141
CN1CC1C1CC1(C)C	CN1C[C@H]1[C@H]1CC1(C)C	
InChI=1S/C8H15N/c1-8(2)4-6(8)7-5-9(7)3/h6-7H,4-5H2,1-3H3	InChI=1S/C8H15N/c1-8(2)4-6(8)7-5-9(7)3/h6-7H,4-5H2,1-3H3/t6-,7+,9?/m1/s1
