17
gdb 49977	3.86366	1.14077	1.02802	2.9914	74.82	-0.2584	-0.038	0.2203	1174.0579	0.1352	-421.756154	-421.748635	-421.747691	-421.788508	28.884	
O	-0.6172105528	 0.6515099904	 0.7516752406	-0.251728
C	 0.1902929697	 0.9461417024	-0.0924678221	 0.15788
C	 1.2110520277	 2.019531575	 0.0739981925	-0.226544
O	 2.3907558767	 1.8710014514	-0.7708277165	-0.308409
C	 1.5133443212	 2.9169688455	-1.050105137	 0.559022
C	 0.860798494	 3.2871041207	-2.3914819073	-0.153065
C	 0.3385743377	 4.5578189516	-1.6501574569	-0.220707
C	 1.8201003018	 4.4146806396	-1.1804801117	-0.148614
C	 2.1726358833	 4.0922014998	-2.6709903675	-0.226975
H	 0.2359046583	 0.4395097666	-1.0817945193	 0.08862
H	 1.4021242354	 2.3443790829	 1.0949821101	 0.121446
H	 0.3144548199	 2.643078631	-3.0788605908	 0.089916
H	 0.1324264471	 5.4188214586	-2.2888961	 0.104826
H	-0.4408066683	 4.4132232979	-0.8982671816	 0.106943
H	 2.3667041933	 5.0497711782	-0.4849802117	 0.089661
H	 3.0797446902	 3.5121062759	-2.848986997	 0.117329
H	 2.0760269949	 4.9259076523	-3.3706196637	 0.1004
82.3065	131.3464	195.0403	248.4317	375.6451	396.3515	468.4667	508.7604	615.9225	641.9306	780.9219	793.7233	883.942	893.2038	916.8477	940.2227	951.426	1014.0033	1019.7672	1046.3281	1062.1193	1078.4385	1089.241	1118.134	1122.4455	1131.6988	1185.5942	1194.3061	1226.5216	1237.3762	1249.7101	1285.5077	1399.4773	1491.9724	1496.057	1544.6509	1823.5717	2895.8634	3064.9718	3065.574	3129.4999	3132.4096	3134.8412	3138.0346	3143.3822
O=CC1OC11C2CC1C2	O=C[C@H]1O[C@]21[C@H]1C[C@@H]2C1	
InChI=1S/C7H8O2/c8-3-6-7(9-6)4-1-5(7)2-4/h3-6H,1-2H2	InChI=1S/C7H8O2/c8-3-6-7(9-6)4-1-5(7)2-4/h3-6H,1-2H2/t4-,5+,6-,7-/m1/s1
