22
gdb 114991	3.54129	1.02211	0.83741	2.1835	84.07	-0.2441	0.0273	0.2714	1449.1835	0.19479	-404.381363	-404.372026	-404.371081	-404.415519	35.123	
C	-0.0090807928	 1.5792839753	-0.0219558371	-0.388396
C	 0.0261997302	 0.0486630736	-0.0064274101	-0.189935
C	 0.6823451179	-0.5347336729	 1.2395414006	 0.139444
C	 0.6813350586	-2.0591667919	 1.2936166698	-0.234448
C	 1.4760894048	-2.5394674573	 2.5158047277	 0.047993
C	 1.725656437	-4.0483029545	 2.4935585885	-0.384856
N	 2.7636264174	-1.8474843977	 2.6356180373	-0.278198
C	 2.9205353879	-0.7527278767	 2.024572258	 0.125293
O	 2.0421304108	-0.0448412253	 1.2753429139	-0.242459
H	 1.0012539795	 1.9915314765	 0.0357322103	 0.136065
H	-0.4781198209	 1.9497325874	-0.9381205708	 0.113595
H	-0.580577787	 1.9701751997	 0.8272662037	 0.113207
H	-0.993064575	-0.3528351214	-0.0642797512	 0.098994
H	 0.5634877045	-0.3257706254	-0.8863021087	 0.105883
H	 0.1796771714	-0.1396528108	 2.1354140232	 0.082747
H	-0.3498663893	-2.4271961086	 1.3240827766	 0.101223
H	 1.1425518293	-2.4515544321	 0.3780821935	 0.104865
H	 0.8986386675	-2.3074528768	 3.4230264994	 0.0836
H	 2.310391424	-4.3270874212	 1.6106976888	 0.116349
H	 2.2905668128	-4.3494799698	 3.3793500163	 0.124966
H	 0.7812269184	-4.6022955196	 2.4717501424	 0.104104
H	 3.8782572927	-0.2345031605	 2.0501834276	 0.119967
86.1972	100.3535	133.6559	189.5493	234.5685	250.8738	294.4733	367.6357	388.8216	453.3517	474.265	540.5004	589.9479	759.0614	788.1081	830.1399	882.567	920.3306	929.2699	966.0216	969.0572	1018.4522	1037.5456	1073.6654	1120.3313	1139.169	1155.2822	1169.599	1188.3374	1238.8832	1280.4591	1301.8425	1345.7858	1346.7201	1374.1206	1385.7191	1401.8194	1409.2133	1413.4259	1415.7527	1471.5577	1480.4499	1487.2387	1498.2031	1498.3252	1509.4343	1729.2871	2986.7612	2993.644	3024.9072	3031.0056	3035.9574	3038.7166	3065.794	3079.8043	3104.3705	3104.8108	3121.8835	3126.6035	3149.3388
CCC1CC(C)N=CO1	CC[C@H]1C[C@@H](C)N=CO1	
InChI=1S/C7H13NO/c1-3-7-4-6(2)8-5-9-7/h5-7H,3-4H2,1-2H3	InChI=1S/C7H13NO/c1-3-7-4-6(2)8-5-9-7/h5-7H,3-4H2,1-2H3/t6-,7+/m1/s1
