17
gdb 8671	2.67064	1.62126	1.3081	2.1519	64.07	-0.2802	0.0203	0.3005	994.1397	0.140337	-401.006425	-400.99705	-400.996105	-401.040163	33.349	
C	-0.0306325195	 1.5897687922	 0.0296661429	-0.40239
C	-0.0216340072	 0.0495471497	 0.0429372661	 0.036245
C	 0.7429807007	-0.490691823	 1.2817335901	-0.083678
O	 2.0830198127	-0.0580394918	 1.3380752551	-0.415048
C	-1.4683863504	-0.5143347512	 0.0349584007	-0.083679
O	-2.2169991143	-0.1041159013	-1.0863667915	-0.415047
C	 0.6616210291	-0.4537943885	-1.1593779062	 0.247479
N	 1.1937441427	-0.8777372005	-2.095180065	-0.34753
H	 0.9886231641	 1.9787427545	 0.0315636597	 0.143847
H	-0.5661483432	 1.9620787604	-0.8448590385	 0.14385
H	-0.5408666645	 1.9520139963	 0.9279525769	 0.122363
H	 0.255325168	-0.0976574946	 2.1798700468	 0.12187
H	 0.6673115254	-1.5877717898	 1.3086838689	 0.10555
H	 2.5677591957	-0.4855358089	 0.6226135823	 0.299373
H	-1.4344915253	-1.6102351509	 0.1237666425	 0.105549
H	-1.9908448001	-0.1216043406	 0.9134415693	 0.121872
H	-1.848761974	-0.532932702	-1.8674738601	 0.299374
97.7569	107.5047	158.317	170.3115	225.3211	226.208	293.149	341.0397	369.5967	393.0346	409.7626	457.6152	584.7293	672.1671	699.1416	887.8654	901.0965	978.8913	982.8125	1067.5703	1100.4646	1148.8867	1167.3431	1189.1731	1215.2002	1310.7506	1382.1183	1390.6745	1410.6744	1414.1992	1433.317	1489.7893	1490.6092	1498.5102	1506.5534	2340.5091	2992.2968	3001.3011	3051.2683	3076.54	3083.8506	3128.8493	3156.192	3798.3551	3799.4332
CC(CO)(CO)C#N	CC(CO)(CO)C#N	
InChI=1S/C5H9NO2/c1-5(2-6,3-7)4-8/h7-8H,3-4H2,1H3	InChI=1S/C5H9NO2/c1-5(2-6,3-7)4-8/h7-8H,3-4H2,1H3
