19
gdb 68754	2.37447	1.72854	1.23891	2.7053	76.41	-0.237	-0.019	0.218	1062.7909	0.15856	-423.055427	-423.046796	-423.045852	-423.088218	33.499	
C	-0.0075965871	 1.5193592586	 0.0155673649	-0.47842
C	 0.004372789	 0.0126989985	 0.008904194	 0.25503
C	 1.275205808	-0.7341597361	-0.3007330584	-0.392169
C	 0.7150462751	-0.7898413769	 1.1069144001	 0.325153
O	 1.4344675538	-0.2429213978	 2.1509177602	-0.479489
C	-0.1774727577	-1.9272090994	 1.4444867339	 0.346412
O	-0.15925666	-2.4719907905	 2.5270483195	-0.354256
C	-1.1695660137	-2.138328014	 0.3059869689	-0.347709
C	-1.2795953178	-0.7437676233	-0.3574975651	-0.272642
H	 0.9203649068	 1.9148952151	 0.4375706295	 0.136523
H	-0.1185766753	 1.9178135172	-0.999566116	 0.120043
H	-0.8382736148	 1.9025201757	 0.6184206533	 0.120491
H	 1.2654508845	-1.6142783554	-0.9373863865	 0.112171
H	 2.1785963683	-0.1368389292	-0.3699055312	 0.131337
H	 1.2120622205	-0.7916902055	 2.9192948284	 0.294893
H	-0.7733694029	-2.8947241843	-0.3819480601	 0.133065
H	-2.1159724446	-2.5205225388	 0.691905183	 0.133381
H	-2.1420170608	-0.2074348816	 0.0537750237	 0.111295
H	-1.4221847612	-0.8033193722	-1.4421470523	 0.104892
98.5505	172.9332	185.2837	203.8669	282.7406	323.5161	341.1527	399.3972	463.13	487.035	533.8469	564.3566	664.2797	692.344	703.3363	824.9257	874.4036	887.0358	937.0621	966.0148	998.765	1028.2463	1053.3372	1085.5503	1090.8392	1105.8735	1188.2347	1234.6707	1255.7511	1265.8698	1308.9185	1353.502	1379.8797	1416.9437	1439.6763	1463.1351	1485.6078	1486.8047	1496.0603	1508.7968	1807.6684	3027.1678	3036.2826	3045.6864	3075.2901	3087.2895	3113.4929	3116.975	3122.2582	3209.8502	3706.335
CC12CC1(O)C(=O)CC2	C[C@@]12C[C@]1(O)C(=O)CC2	
InChI=1S/C7H10O2/c1-6-3-2-5(8)7(6,9)4-6/h9H,2-4H2,1H3	InChI=1S/C7H10O2/c1-6-3-2-5(8)7(6,9)4-6/h9H,2-4H2,1H3/t6-,7+/m1/s1
