17
gdb 44937	2.57855	1.86078	1.5533	2.006	71.61	-0.2362	-0.0226	0.2135	918.5119	0.138228	-421.859617	-421.852838	-421.851894	-421.890698	27.531	
O	-0.0388916299	 0.0256212846	 0.2161515614	-0.31183
C	-0.0592278093	 1.2179183073	 0.0739674277	 0.401988
C	-1.288075752	 2.1314596642	-0.0549106457	-0.333429
C	-0.6249365781	 3.5068738698	 0.1592331521	 0.01885
O	 0.6260851595	 3.3584617634	-0.5342368413	-0.261816
C	 1.1654983701	 2.1555263641	 0.0058676701	-0.030333
C	 1.721084616	 2.4226767891	 1.4174290349	-0.268562
C	 0.7359114803	 3.25886449	 2.1999343126	-0.062562
C	-0.3581758292	 3.7619124622	 1.6286548508	-0.059676
H	-1.7021989999	 2.0453950957	-1.0659559042	 0.133675
H	-2.0587271697	 1.8574479305	 0.6675121207	 0.132266
H	-1.1604144171	 4.3338505346	-0.310132345	 0.09179
H	 1.9281514856	 1.7674028805	-0.6723555509	 0.104947
H	 1.9120218051	 1.4695531955	 1.9255765972	 0.130066
H	 2.6876274062	 2.9380250456	 1.3443947858	 0.120784
H	 0.9523793236	 3.4407940808	 3.2489854632	 0.098138
H	-1.0865684512	 4.336728462	 2.1924508108	 0.095704
104.5721	230.9688	267.2718	429.1237	440.8512	470.817	522.3576	565.1864	632.27	674.3602	739.7453	799.5269	834.9224	862.6386	895.8001	932.5546	972.2398	990.063	999.2627	1008.127	1019.0654	1067.5372	1142.3584	1147.1059	1183.9029	1195.6977	1240.5741	1274.6417	1292.4873	1319.0624	1351.0467	1378.2118	1404.2486	1445.5034	1465.2653	1708.6794	1862.695	3023.0294	3051.6351	3060.7322	3097.5417	3101.4483	3127.0176	3159.6206	3183.3695
O=C1CC2OC1CC=C2	O=C1C[C@@H]2O[C@H]1CC=C2	
InChI=1S/C7H8O2/c8-6-4-5-2-1-3-7(6)9-5/h1-2,5,7H,3-4H2	InChI=1S/C7H8O2/c8-6-4-5-2-1-3-7(6)9-5/h1-2,5,7H,3-4H2/t5-,7+/m1/s1
