19
gdb 100423	3.0096	0.98655	0.84434	1.072	75.61	-0.2201	-0.0185	0.2016	1421.4802	0.157464	-456.374305	-456.364105	-456.363161	-456.409962	36.197	
C	 0.4014872015	 1.5535568794	-0.0073762632	-0.222766
O	-0.1294147162	 0.2725457981	-0.341795408	-0.250383
C	 0.4464646469	-0.3620182451	-1.3839981535	 0.47395
N	-0.0580838965	-1.6308437023	-1.5171515834	-0.566283
N	 1.3687657728	 0.2037991018	-2.0701881255	-0.364666
C	 2.0026650061	-0.5918630292	-3.1174984016	-0.256821
C	 1.0697098758	-0.6559031795	-4.3292525501	 0.390188
C	 1.1838958358	 0.4627590158	-5.3377355422	-0.469422
O	 0.2335422029	-1.534756061	-4.4261252359	-0.315947
H	 1.4688860312	 1.486421728	 0.2187124109	 0.135221
H	 0.265855888	 2.2592077001	-0.8311592091	 0.132936
H	-0.1572545731	 1.8804223176	 0.8709483226	 0.124107
H	-0.8786417771	-1.8190814443	-0.9625202515	 0.255568
H	-0.0776205722	-1.9942236719	-2.4636427082	 0.280392
H	 2.9458983166	-0.1067565086	-3.3888502488	 0.102427
H	 2.2184175291	-1.6218321711	-2.798152351	 0.113759
H	 0.386345254	 0.397293981	-6.0785615145	 0.138424
H	 1.144534632	 1.4250491239	-4.8159682443	 0.157424
H	 2.1585585822	 0.4124061773	-5.8376341226	 0.141893
55.2407	79.7396	141.6607	160.7932	171.0766	185.2209	218.5405	270.256	346.4627	386.6495	505.1493	511.7792	529.8376	580.6561	636.5224	686.7497	743.8668	797.1469	861.2266	923.2543	1009.8232	1047.5622	1074.7638	1120.9876	1174.4515	1183.292	1209.1304	1230.1613	1271.9231	1347.3503	1378.629	1396.8317	1461.2477	1473.9818	1475.409	1484.5494	1496.3522	1503.6741	1642.2173	1718.0843	1784.8611	2997.2986	3035.9173	3047.1868	3067.883	3098.9718	3120.4624	3146.7496	3153.5785	3508.9203	3664.6543
COC(N)=NCC(C)=O	COC(=NCC(=O)C)N	
InChI=1S/C5H10N2O2/c1-4(8)3-7-5(6)9-2/h3H2,1-2H3,(H2,6,7)	InChI=1S/C5H10N2O2/c1-4(8)3-7-5(6)9-2/h3H2,1-2H3,(H2,6,7)
