20
gdb 95984	2.23835	1.54603	1.23368	5.8335	74.45	-0.2473	0.0275	0.2748	1110.6623	0.173328	-440.334477	-440.325962	-440.325018	-440.367758	32.301	
C	-0.5198003145	 1.4396541615	-0.1971387933	-0.425386
C	 0.0060511658	 0.0145578254	-0.0695697749	 0.031923
N	 1.1850667248	-0.2401259371	-0.920418336	-0.323643
H	 0.9940781441	-0.1173417824	-1.9088975642	 0.229678
H	 2.2396969258	 0.799347843	 0.1750052744	 0.306507
C	 1.6265896875	-1.6052742066	-0.5842942263	-0.168179
C	 1.3668575113	-1.7053953819	 0.944550985	-0.233025
C	 0.5737178281	-0.4110641188	 1.3049268254	-0.126208
C	 1.503767492	 0.6402647248	 1.9211220432	 0.40322
O	 2.4213477719	 1.1552723931	 1.0804338495	-0.384498
O	 1.4507690955	 0.9673463597	 3.0772260312	-0.340226
H	 0.254778496	 2.1765364268	 0.029144996	 0.145747
H	-0.8857611781	 1.627333932	-1.2122502344	 0.114191
H	-1.3566296935	 1.5964596431	 0.4896382995	 0.133149
H	-0.8134476699	-0.6845576488	-0.3142730926	 0.071976
H	 1.04317441	-2.368330328	-1.1194570754	 0.101252
H	 2.6782435298	-1.7416144165	-0.8499693077	 0.116832
H	 0.7716895976	-2.5907867202	 1.1773423443	 0.11515
H	 2.2950320787	-1.7811613222	 1.514309221	 0.132112
H	-0.2113069029	-0.6014058868	 2.0360944452	 0.099429
77.3545	118.285	188.5801	227.7518	240.5096	271.222	309.6139	416.1452	500.0833	565.3727	636.8145	722.6091	763.7049	797.6971	824.1665	880.3698	908.0265	927.4355	945.1143	953.5066	1012.4241	1044.6028	1064.4175	1079.5283	1136.1318	1156.6086	1192.5445	1234.4825	1252.1306	1267.8232	1281.825	1314.0878	1340.0435	1382.1511	1387.2964	1419.8551	1425.8147	1478.5771	1496.1348	1497.7224	1505.2349	1529.8674	1858.6705	2935.0678	2995.3104	3041.5214	3076.2701	3083.2865	3106.928	3117.9697	3125.985	3130.2165	3300.9116	3536.2339
CC1[NH2+]CCC1C([O-])=O	C[C@H]1NCC[C@H]1C(=O)O	
InChI=1S/C6H11NO2/c1-4-5(6(8)9)2-3-7-4/h4-5,7H,2-3H2,1H3,(H,8,9)	InChI=1S/C6H11NO2/c1-4-5(6(8)9)2-3-7-4/h4-5,7H,2-3H2,1H3,(H,8,9)/t4-,5-/m1/s1
