19
gdb 113253	3.99484	0.89874	0.85889	1.395	78.4	-0.2374	0.041	0.2784	1406.9665	0.155297	-422.957518	-422.947423	-422.946479	-422.992602	36.945	
C	 0.0021861065	 1.0106358494	 0.4187214386	-0.236796
O	-0.2349049114	 0.0136930465	-0.5613558903	-0.231064
C	-1.3938418658	-0.7077896391	-0.3302039298	 0.066163
C	-1.4004034794	-2.1353438782	-0.8114703	-0.37559
C	-1.3957792309	-1.8337321008	 0.6748559858	 0.369865
O	-0.204433091	-2.0118244402	 1.3783166753	-0.460837
C	-2.6496088268	-2.0997500767	 1.5022422344	-0.406547
C	-2.6949226812	-3.4848017927	 1.9646049775	 0.281599
C	-2.6632736087	-4.6296609564	 2.3315583472	-0.440519
H	 0.9127156237	 1.5360907376	 0.1216119354	 0.126014
H	-0.8256238889	 1.7351161662	 0.4635702977	 0.098906
H	 0.144845009	 0.5670722432	 1.4110369269	 0.130412
H	-2.3165600014	-0.1277588138	-0.420168078	 0.078639
H	-2.2922262397	-2.5353731075	-1.2814444092	 0.113404
H	-0.4574773056	-2.481165537	-1.2193531291	 0.130086
H	-0.1536891128	-2.9440487473	 1.6240487111	 0.289579
H	-2.6561642921	-1.4241289009	 2.3671724462	 0.137329
H	-3.5437817036	-1.8715444957	 0.9102230067	 0.129446
H	-2.6691681301	-5.6394636767	 2.6601672734	 0.19991
57.6438	95.5452	124.2028	165.9356	182.6116	241.6204	319.9945	334.6867	351.5668	364.1286	411.3041	451.2379	482.5561	624.5632	653.3744	666.465	739.9817	826.8062	882.6129	899.2914	955.9329	974.9223	1022.5365	1063.1495	1070.0108	1127.0663	1170.6022	1182.3046	1210.5117	1233.1211	1256.8701	1292.8305	1320.9893	1370.0909	1412.3921	1459.71	1471.4766	1487.598	1500.2979	1508.5576	2232.686	2985.7761	3024.3896	3057.7878	3064.4192	3066.1543	3122.6336	3136.2734	3232.9249	3505.1509	3772.4259
COC1CC1(O)CC#C	CO[C@H]1C[C@]1(O)CC#C	
InChI=1S/C7H10O2/c1-3-4-7(8)5-6(7)9-2/h1,6,8H,4-5H2,2H3	InChI=1S/C7H10O2/c1-3-4-7(8)5-6(7)9-2/h1,6,8H,4-5H2,2H3/t6-,7+/m0/s1
