20
gdb 13719	4.81629	0.95159	0.86994	1.7726	72.31	-0.2273	0.0752	0.3024	1390.3122	0.175154	-386.111635	-386.102346	-386.101402	-386.146251	33.533	
C	-0.4291374042	 1.1957483064	-0.1072378753	-0.382884
C	 0.2560970468	-0.1668185704	 0.024560657	-0.185763
C	 0.6816120919	-0.7312225003	-1.3227015043	-0.050783
O	 1.3311217084	-1.9838115276	-1.1068877764	-0.267243
C	 1.7618965283	-2.5793436491	-2.2976005159	 0.076555
C	 2.0661421759	-4.0519526913	-2.2134790833	-0.363968
C	 0.8055676935	-3.5756774662	-2.9056597507	 0.12173
O	-0.4348608729	-3.747453364	-2.2911174595	-0.433157
H	 0.237924644	 1.9353695448	-0.5634016443	 0.118094
H	-1.3285248571	 1.1321091531	-0.7294413584	 0.119803
H	-0.729555336	 1.5794406185	 0.8717646178	 0.119803
H	 1.1420667826	-0.0885851263	 0.6647731979	 0.110548
H	-0.4174548817	-0.882671057	 0.5106462776	 0.103528
H	-0.1863509772	-0.8652884769	-1.9854394937	 0.104275
H	 1.3762791824	-0.0399200253	-1.8266708619	 0.09305
H	 2.375816155	-1.9371612556	-2.9290014123	 0.086195
H	 2.8872437874	-4.4430392415	-2.8044293165	 0.114868
H	 1.9398107517	-4.5140552263	-1.2397570758	 0.124742
H	 0.7278198052	-3.6668589307	-3.9839033609	 0.103018
H	-0.3576902341	-3.3372761343	-1.4190511509	 0.28759
56.884	71.3105	126.2637	142.3296	233.962	250.4957	285.3187	369.9994	397.3118	435.6602	506.3698	661.1042	765.6732	771.434	791.7979	869.9489	902.3849	911.8055	985.5145	1035.9788	1048.9622	1071.5866	1084.5651	1111.295	1125.0212	1144.5413	1181.9165	1192.866	1225.6761	1268.9592	1316.1002	1329.4699	1331.8079	1367.2452	1413.2861	1430.5769	1439.1203	1482.13	1491.8925	1501.5056	1508.0881	1526.4119	2973.6177	3012.9115	3033.2877	3037.0112	3071.898	3100.2694	3101.8582	3110.8129	3131.1951	3168.0899	3223.2115	3754.8609
CCCOC1CC1O	CCCO[C@H]1C[C@H]1O	
InChI=1S/C6H12O2/c1-2-3-8-6-4-5(6)7/h5-7H,2-4H2,1H3	InChI=1S/C6H12O2/c1-2-3-8-6-4-5(6)7/h5-7H,2-4H2,1H3/t5-,6+/m1/s1
