18
gdb 86832	2.82694	1.25178	1.0373	2.7493	79.01	-0.2615	0.0229	0.2844	1205.9599	0.147245	-401.941121	-401.932393	-401.931449	-401.974687	32.902	
C	-0.2003469364	 1.5305161343	-0.015303197	-0.402394
C	 0.0836121089	 0.032742415	 0.0358650575	-0.073763
C	 0.9362125771	-0.5399238708	-1.1067162567	-0.24688
C	 1.5489610349	-1.7979126643	-0.4547222304	-0.093086
O	 1.6982281106	-1.4424632867	 0.9400818678	-0.237108
C	 0.8701964848	-0.3974048211	 1.2604779707	 0.424499
N	 0.7933307209	 0.1213467424	 2.4073278477	-0.542734
C	 0.7141460275	-2.989535021	-0.595756095	 0.359741
C	 0.0243016971	-3.9642417535	-0.7281581716	-0.477052
H	 0.7303031609	 2.1019726611	-0.0910151813	 0.120311
H	-0.8284189169	 1.780384151	-0.8757049501	 0.112099
H	-0.7103183119	 1.845613568	 0.8976762766	 0.148253
H	-0.8681443156	-0.5151464585	 0.0679630787	 0.116276
H	 0.3709876249	-0.7742369119	-2.0092623747	 0.124072
H	 1.7390605003	 0.1579247775	-1.3667476572	 0.114018
H	 2.5547163424	-2.0098740195	-0.8287854815	 0.121546
H	 1.4129216156	-0.3553708256	 3.0644921748	 0.223974
H	-0.580512595	-4.8306446464	-0.8383563783	 0.208227
78.9647	84.0814	185.6274	217.6317	254.9236	265.0648	357.2826	434.8689	461.27	550.5291	594.3427	636.7927	670.5496	676.2642	770.5499	777.8684	832.973	893.2436	924.8596	942.708	978.9153	1029.7664	1042.6083	1098.3754	1130.315	1140.5826	1208.1626	1261.1205	1279.155	1323.2683	1324.5479	1369.4097	1386.1964	1412.7951	1488.8299	1494.4831	1498.1799	1779.0312	2238.2255	3018.6278	3042.2318	3055.3369	3071.5279	3109.1894	3131.7374	3133.18	3475.3481	3501.3456
CC1CC(OC1=N)C#C	C[C@H]1C[C@@H](O[C]1[NH])C#C	
InChI=1S/C7H9NO/c1-3-6-4-5(2)7(8)9-6/h1,5-6,8H,4H2,2H3	InChI=1S/C7H9NO/c1-3-6-4-5(2)7(8)9-6/h1,5-6,8H,4H2,2H3/t5-,6-/m0/s1
