19
gdb 71297	2.78586	1.88408	1.45233	1.6597	73.65	-0.215	0.0738	0.2888	955.8219	0.16042	-422.988518	-422.981226	-422.980282	-423.019695	30.027	
C	-0.0176825341	 1.4679219252	 0.0567018075	-0.45789
C	-0.0349789948	-0.0403513428	-0.0420788985	 0.395479
C	 0.9079262692	-0.6290711432	-1.0946799021	-0.263425
C	 1.0563877799	-2.1386708099	-0.8702729536	-0.064718
O	-0.189069797	-2.8221318404	-0.7408501945	-0.272773
C	-1.1776424941	-2.176235388	 0.0002262025	 0.103068
C	-0.9947552637	-1.3353340572	 1.2405953284	 0.029856
O	 0.2523732474	-0.6477247088	 1.2705966319	-0.33012
C	-1.4282266776	-0.6986988958	-0.0749897116	-0.23307
H	 0.9804751679	 1.8174604873	 0.3392342591	 0.125837
H	-0.2809039072	 1.9179024433	-0.9070419186	 0.117103
H	-0.7321764781	 1.8135719183	 0.8090023342	 0.124741
H	 0.503639021	-0.4147588918	-2.0910749447	 0.107341
H	 1.900593966	-0.167918429	-1.0317332041	 0.10228
H	 1.5596672726	-2.6086594469	-1.720291489	 0.101849
H	 1.6626124792	-2.3056413813	 0.0273548132	 0.115003
H	-2.0718789884	-2.7930221678	 0.0186332998	 0.10789
H	-1.5008106998	-1.4955979385	 2.1869139434	 0.10096
H	-2.3430838585	-0.2193378325	-0.4011046632	 0.090589
174.6696	228.1291	256.1082	281.1556	349.7717	378.1462	434.5784	532.2772	615.5796	647.7179	691.3152	749.8181	798.2555	827.0059	860.1286	886.0151	913.8852	959.5973	981.8194	1006.0785	1026.2152	1054.6642	1062.1887	1079.0877	1103.5963	1147.2429	1168.6279	1206.4659	1232.4719	1255.2638	1279.4493	1324.3824	1333.459	1372.0889	1400.7978	1409.4093	1444.4674	1469.5057	1484.0744	1490.0694	1507.0651	3029.6726	3034.6895	3036.6285	3074.8765	3090.5188	3104.5706	3116.8392	3155.9611	3165.1861	3184.4505
CC12CCOC3C(O1)C23	C[C@@]12CCO[C@H]3[C@@H](O1)[C@@H]23	
InChI=1S/C7H10O2/c1-7-2-3-8-5-4(7)6(5)9-7/h4-6H,2-3H2,1H3	InChI=1S/C7H10O2/c1-7-2-3-8-5-4(7)6(5)9-7/h4-6H,2-3H2,1H3/t4-,5+,6-,7-/m0/s1
