14
gdb 33870	4.40765	1.30808	1.16584	3.8449	65.28	-0.2884	-0.0075	0.2809	1006.4969	0.101261	-436.654576	-436.647762	-436.646818	-436.685824	26.314	
N	-0.0055982244	-1.1398394947	 0.0462485194	-0.327861
C	 0.0334377636	 0.0147925245	 0.0097251319	 0.236587
C	 0.0590968368	 1.4562359297	-0.0745437338	 0.264189
C	-0.9644232875	 2.1809831103	-0.9542126038	-0.331663
C	-0.2690311764	 3.4696685432	-1.3868394483	 0.032264
O	 0.0712726853	 4.3622075398	-0.327876134	-0.225197
C	 1.0979628986	 3.512130517	-0.8331818144	 0.006079
C	 1.3095605287	 2.2582657578	-0.0034331143	-0.047562
O	 0.4393801733	 2.147332819	 1.1169714124	-0.247503
H	-1.1986685529	 1.5674617558	-1.829791819	 0.135517
H	-1.8942801993	 2.3713638464	-0.4110877395	 0.15064
H	-0.5492999653	 3.9431364591	-2.3244855478	 0.113649
H	 1.9424282938	 3.9952037359	-1.3146356044	 0.113531
H	 2.2935730658	 1.8122316062	 0.1024219458	 0.12733
134.2831	153.7558	284.3079	305.3152	402.7608	458.9531	550.1505	591.7697	629.3858	715.0883	737.7659	820.7442	852.7299	892.0541	906.1479	949.0853	962.6035	1014.2658	1037.0653	1071.9473	1104.9926	1180.2008	1213.2864	1243.3621	1274.5975	1316.3133	1330.9566	1394.3923	1431.5403	1460.9416	2359.3097	3064.3519	3113.1831	3146.9924	3165.7077	3178.1865
N#CC12CC3OC3C1O2	N#C[C@]12C[C@H]3O[C@H]3[C@H]1O2	
InChI=1S/C6H5NO2/c7-2-6-1-3-4(8-3)5(6)9-6/h3-5H,1H2	InChI=1S/C6H5NO2/c7-2-6-1-3-4(8-3)5(6)9-6/h3-5H,1H2/t3-,4-,5-,6-/m1/s1
