23
gdb 106816	2.35532	1.53424	1.12739	0.9596	85.8	-0.2414	0.0875	0.3289	1205.6466	0.205724	-388.292144	-388.282795	-388.28185	-388.325706	36.226	
C	 0.2277493518	 1.2715797232	 0.2333522395	-0.252393
O	-0.1998245598	-0.0123435447	-0.1784422783	-0.294448
C	 0.5261794703	-0.539864057	-1.2434396648	 0.432511
C	 1.8964885435	-1.1218986753	-0.9726174554	-0.407541
C	 0.7262265834	-2.0347274728	-1.3168690397	 0.280603
C	 0.1880084075	-2.9681110827	-0.2603084966	-0.476102
C	 0.6051394674	-2.4342416602	-2.7842064107	-0.263589
C	 0.7607410715	-1.1189098567	-3.5845092611	-0.23134
C	 0.2470598567	-0.0075402111	-2.6434137264	-0.27489
H	 1.2908833181	 1.2732060189	 0.513384416	 0.107307
H	 0.0743662593	 2.0279760325	-0.549462529	 0.10843
H	-0.3720593505	 1.5435665414	 1.1052987973	 0.123343
H	 2.7078016265	-0.9735151057	-1.6788462445	 0.102566
H	 2.2060215931	-1.1322787548	 0.0674158684	 0.109392
H	 0.1643682246	-2.4775670677	 0.7162120574	 0.124512
H	-0.8353365591	-3.2811579208	-0.4984833004	 0.112118
H	 0.8015385309	-3.8726054443	-0.1769311035	 0.110432
H	 1.337184467	-3.1922282764	-3.0854085187	 0.093226
H	-0.389942732	-2.8674775174	-2.9484522878	 0.096391
H	 1.8137600614	-0.9468523916	-3.8288339714	 0.10426
H	 0.2202029733	-1.1428007792	-4.5341982003	 0.09852
H	-0.8374612184	 0.1241001114	-2.7420296938	 0.104039
H	 0.7162242635	 0.960140441	-2.8517455563	 0.092652
100.1558	157.394	175.5377	193.3244	203.3869	233.6667	295.9226	351.1385	377.6743	449.615	484.3085	552.7466	601.8342	676.8186	735.0398	820.4913	889.0195	904.9349	912.7115	931.499	956.8939	970.449	1022.9194	1031.4829	1048.5849	1071.9339	1125.8279	1131.6398	1182.3267	1186.7044	1212.5979	1231.0705	1246.8583	1260.6413	1272.4926	1313.565	1339.5633	1357.4008	1394.7759	1415.1455	1473.215	1485.7168	1487.3507	1488.3592	1493.0514	1494.8433	1502.0386	1508.7803	1519.7081	2989.0311	3020.5548	3025.7403	3029.7527	3040.9255	3048.4824	3063.8232	3071.3639	3080.843	3099.1733	3114.6771	3115.0147	3121.6104	3208.0608
COC12CC1(C)CCC2	CO[C@@]12C[C@]1(C)CCC2	
InChI=1S/C8H14O/c1-7-4-3-5-8(7,6-7)9-2/h3-6H2,1-2H3	InChI=1S/C8H14O/c1-7-4-3-5-8(7,6-7)9-2/h3-6H2,1-2H3/t7-,8-/m0/s1
