16
gdb 7811	3.46296	1.7202	1.20612	3.4681	61.03	-0.2603	0.0092	0.2695	954.5165	0.131346	-420.917961	-420.910518	-420.909574	-420.949865	27.679	
O	-0.0884506233	 1.4655056384	-0.0213565006	-0.434938
C	-0.0255253431	 0.0512160027	 0.051377854	 0.117545
C	-1.4399488261	-0.4933673452	-0.0615430945	-0.22318
C	-1.3998980631	-2.0119175394	 0.0242782904	-0.075647
O	-0.5052916402	-2.631693002	-0.916633051	-0.226073
C	 0.651967794	-2.0448290355	-1.3094463846	 0.402164
O	 1.4759911035	-2.7007114248	-1.8844839787	-0.318845
C	 0.8090009648	-0.5438144904	-1.0855343604	-0.363104
H	 0.8073567517	 1.8131652715	 0.0411143227	 0.285768
H	 0.3975609299	-0.2630735618	 1.0205813834	 0.075585
H	-2.0704248023	-0.1017318046	 0.7425542164	 0.119108
H	-1.8752177314	-0.16979766	-1.0139618211	 0.119698
H	-1.0977635608	-2.3300792222	 1.0307323983	 0.117499
H	-2.3790770385	-2.4489907077	-0.1829846993	 0.129567
H	 0.4933997414	-0.0595206302	-2.0190306853	 0.147373
H	 1.8783614337	-0.3466600688	-0.9708409097	 0.12748
94.8081	126.9927	237.8342	281.1905	317.4034	402.4183	429.9684	481.967	520.5714	601.4758	663.2257	795.14	849.1432	909.2568	953.9463	978.0356	1079.989	1092.5836	1104.1666	1117.0592	1164.7825	1216.1115	1248.6022	1268.0529	1297.1618	1308.1781	1353.1222	1387.4338	1426.3749	1445.8568	1463.5251	1490.2661	1516.0156	1845.6948	2957.1162	3023.9468	3037.6302	3048.3489	3098.1434	3101.3671	3106.808	3812.6354
OC1CCOC(=O)C1	O[C@H]1CCOC(=O)C1	
InChI=1S/C5H8O3/c6-4-1-2-8-5(7)3-4/h4,6H,1-3H2	InChI=1S/C5H8O3/c6-4-1-2-8-5(7)3-4/h4,6H,1-3H2/t4-/m0/s1
