16
gdb 11933	3.27469	1.80514	1.47379	1.1959	73.51	-0.2147	0.0401	0.2548	898.0695	0.128762	-346.540753	-346.532868	-346.531924	-346.572568	30.228	
O	 0.054970503	 1.409140727	 0.1248533365	-0.447411
C	-0.0027633035	 0.0364685131	 0.0733483237	 0.374101
C	-0.292645465	-0.7694623955	-1.1419467727	-0.397437
C	-1.207082913	-0.9697461273	 0.0703262778	 0.135872
C	-0.4608408071	-1.8277279869	 1.1055888297	-0.285561
C	 0.7042122795	-0.7861197157	 1.1391768148	-0.267888
C	-2.6069541511	-0.7523910633	 0.0100499218	 0.160484
C	-3.7950665181	-0.5525213929	-0.01837293	-0.412969
H	-0.2284035731	 1.772805026	-0.7197681898	 0.291885
H	-0.7694946958	-0.2256693872	-1.9534197875	 0.118226
H	 0.3628117977	-1.5756022459	-1.47129865	 0.110475
H	-0.9916695409	-1.8984129545	 2.0558227011	 0.118873
H	-0.1974011503	-2.835413594	 0.7685663544	 0.099455
H	 1.709485906	-1.1389137399	 0.8863633777	 0.099911
H	 0.7437030957	-0.2525787281	 2.0908698768	 0.119897
H	-4.8424449939	-0.3832650048	-0.0461939544	 0.182087
113.0711	149.0493	183.0608	236.1975	333.1705	386.8407	423.7793	521.0125	531.3285	547.2819	605.8493	643.9402	691.0132	722.0598	789.156	825.9439	934.8697	941.918	973.3601	1036.2189	1080.7342	1103.2845	1127.0794	1164.5666	1207.6982	1240.7578	1251.8896	1319.2784	1387.387	1410.7408	1478.3318	1483.5276	1515.3355	2223.1081	3046.6861	3054.4181	3082.3375	3111.0185	3128.8335	3181.1919	3504.2243	3828.3099
OC12CC1(CC2)C#C	O[C@]12C[C@]1(CC2)C#C	
InChI=1S/C7H8O/c1-2-6-3-4-7(6,8)5-6/h1,8H,3-5H2	InChI=1S/C7H8O/c1-2-6-3-4-7(6,8)5-6/h1,8H,3-5H2/t6-,7-/m1/s1
