19
gdb 92396	2.20869	1.74341	1.25286	3.5492	80.76	-0.2272	0.0125	0.2397	1076.3764	0.159737	-382.0453	-382.036814	-382.03587	-382.078271	32.047	
C	-0.0830363966	 1.5485866594	-0.0264975417	-0.337419
N	-0.0182795057	 0.1101379925	 0.1203800607	-0.116085
C	-1.2590999249	-0.6495965741	 0.3777495937	-0.178374
C	-0.4806725372	-1.5802069426	 1.3240933734	-0.091523
C	 0.4898635487	-2.593119092	 0.6481378597	-0.229612
C	 1.6829190823	-1.6067316154	 0.8397495989	-0.258221
C	 0.6748454927	-0.5129410549	 1.28052808	 0.228106
C	 1.0035207542	 0.3555654923	 2.3942067776	 0.198701
N	 1.2649631848	 1.0571237139	 3.2767762159	-0.350721
H	 0.9256751847	 1.957805398	-0.1382822396	 0.133393
H	-0.6438103208	 1.7837542424	-0.9369059755	 0.125635
H	-0.5694030413	 2.0609026595	 0.8213515645	 0.114274
H	-2.0225619361	-0.0650656675	 0.9158282847	 0.098366
H	-1.714387178	-1.0925772583	-0.5157795948	 0.104576
H	-0.9562193923	-1.8875444005	 2.2525084274	 0.097143
H	 0.5980277906	-3.5410468888	 1.1777873093	 0.112094
H	 0.2395502636	-2.8038031396	-0.3938553625	 0.115173
H	 2.3474454331	-1.9067014473	 1.6539005012	 0.118902
H	 2.2726129183	-1.349223767	-0.0412985231	 0.115592
100.4546	134.4034	158.4242	204.0104	239.3151	298.911	357.6345	386.8488	511.4537	542.2657	591.624	636.6694	718.9041	792.5064	831.5468	865.4034	939.5599	970.8671	981.2619	1031.708	1068.7657	1098.4444	1112.0611	1124.4319	1161.9371	1182.9567	1193.7595	1226.6179	1241.7778	1248.5158	1272.6174	1291.5372	1317.3221	1334.2957	1452.0326	1463.8924	1484.9601	1488.2125	1501.3812	1516.1384	2337.312	2960.0279	2973.7832	3050.7492	3066.0477	3068.2801	3075.1428	3107.7933	3119.9921	3137.1073	3144.9163
CN1CC2CCC12C#N	CN1C[C@H]2CC[C@@]12C#N	
InChI=1S/C7H10N2/c1-9-4-6-2-3-7(6,9)5-8/h6H,2-4H2,1H3	InChI=1S/C7H10N2/c1-9-4-6-2-3-7(6,9)5-8/h6H,2-4H2,1H3/t6-,7+/m1/s1
