14
gdb 43257	2.37695	2.03273	1.18845	2.3973	70.53	-0.2504	-0.0994	0.1509	971.5786	0.101893	-436.705625	-436.698355	-436.697411	-436.737525	27.114	
O	 0.0719271349	 0.0062120888	-0.0947616287	-0.334003
C	 0.0244837997	 1.2129979581	-0.0154403446	 0.326917
C	-1.1961137877	 2.0705343379	 0.0362981837	-0.178215
C	-0.8583929994	 3.3703958186	 0.023378071	-0.172388
C	 0.6302344372	 3.5396349442	-0.025363786	 0.332996
O	 1.2333438011	 4.5833749787	-0.0473082841	-0.306059
C	 1.1981810651	 2.1462679395	 0.0001660924	 0.093928
C	 2.4554077744	 1.7765439397	 0.7236528301	-0.261022
N	 2.4328958315	 1.8033143155	-0.7279261038	-0.334419
H	-2.1933751831	 1.6490958773	 0.0683791673	 0.144521
H	-1.5268584938	 4.2224882053	 0.0492723505	 0.145195
H	 3.0156559729	 2.5831696734	 1.1872997296	 0.149171
H	 2.4569830397	 0.8193863206	 1.2382017753	 0.140367
H	 2.3137779577	 0.8507663623	-1.0772299726	 0.253009
87.7575	214.338	228.9996	237.9521	284.1322	340.9154	530.3436	572.3935	653.447	667.3616	696.1128	769.0794	836.5867	866.3984	920.781	944.9869	1000.7034	1013.0304	1052.2992	1055.5483	1122.184	1137.1775	1179.7791	1290.4406	1309.1623	1338.1207	1403.034	1490.1504	1616.4387	1805.3031	1841.8708	3113.0474	3208.4124	3213.2485	3229.785	3454.6364
O=C1C=CC(=O)C11CN1	O=C1C=CC(=O)[C@]21CN2	
InChI=1S/C6H5NO2/c8-4-1-2-5(9)6(4)3-7-6/h1-2,7H,3H2	InChI=1S/C6H5NO2/c8-4-1-2-5(9)6(4)3-7-6/h1-2,7H,3H2
