23
gdb 109933	1.99771	1.42632	1.0957	0.8118	82.2	-0.2424	0.0756	0.318	1268.72	0.202789	-425.412288	-425.401623	-425.400678	-425.447358	39.625	
C	-0.546979692	 1.636450064	 0.0288174124	-0.240502
O	-0.3089189702	 0.2848026141	 0.3547861919	-0.239725
C	-1.3768855315	-0.5705391976	 0.0462490288	 0.117816
C	-1.4587127049	-1.2131001372	-1.3817427772	-0.034143
C	-0.1919396133	-1.1245822082	-2.2278812394	-0.397332
C	-1.7072348201	-2.5883148214	-0.6900824148	-0.296984
C	-1.2926775291	-1.9761268619	 0.6881784154	 0.365022
C	 0.0891929726	-2.381404765	 1.1853889194	-0.448082
O	-2.2531862461	-2.0919263599	 1.7270474604	-0.481151
H	 0.3336665583	 2.2053092831	 0.3375562129	 0.125277
H	-0.7008585653	 1.7844809352	-1.0501791718	 0.106963
H	-1.4286482228	 2.0282758629	 0.5589252047	 0.109064
H	-2.3345708331	-0.1112979244	 0.3289893223	 0.073966
H	-2.3093803295	-0.8560879071	-1.9690752535	 0.067521
H	 0.696808078	-1.4442821518	-1.6768605676	 0.124854
H	-0.2834870636	-1.7608696935	-3.1148914818	 0.110664
H	-0.0098482082	-0.1006801075	-2.5699166784	 0.11476
H	-2.7580505608	-2.885022662	-0.6846181327	 0.100722
H	-1.0991611627	-3.4228540583	-1.0516761402	 0.090565
H	 0.8557049738	-2.2593286479	 0.4173146404	 0.127699
H	 0.3719201005	-1.7726107918	 2.0475593196	 0.133087
H	 0.0816332816	-3.4380720283	 1.4831651437	 0.097834
H	-2.1427623416	-2.9544260156	 2.1416578154	 0.272103
91.436	100.2548	160.3213	189.9325	201.7049	224.4085	240.6368	250.0349	277.7798	319.2687	351.3096	369.9678	427.977	537.9363	547.578	668.3976	803.0792	817.0143	848.9782	905.6636	916.8559	969.6588	982.2563	1021.9398	1054.4157	1094.8246	1119.2039	1162.1024	1177.3334	1185.0337	1195.6191	1201.8239	1224.538	1249.3482	1276.3798	1298.0655	1358.098	1376.8291	1398.4817	1405.8778	1417.8992	1474.8752	1480.855	1483.1778	1487.8043	1489.1473	1496.4761	1501.5416	1510.2176	2978.986	3005.03	3024.0869	3027.8075	3035.7861	3051.8851	3059.0031	3097.0928	3104.9533	3112.035	3114.2761	3118.4473	3137.6152	3802.5247
COC1C(C)CC1(C)O	CO[C@H]1[C@@H](C)C[C@]1(C)O	
InChI=1S/C7H14O2/c1-5-4-7(2,8)6(5)9-3/h5-6,8H,4H2,1-3H3	InChI=1S/C7H14O2/c1-5-4-7(2,8)6(5)9-3/h5-6,8H,4H2,1-3H3/t5-,6-,7-/m0/s1
