19
gdb 111994	4.03939	1.0578	0.94039	2.3218	76.45	-0.2277	0.0195	0.2472	1263.5182	0.158884	-423.007069	-422.998373	-422.997429	-423.04015	33.582	
O	-0.0615878324	 1.4726826379	 0.0252605039	-0.422475
C	 0.048670897	 0.0567570234	 0.0884061532	-0.080275
C	-1.3619939894	-0.5218485877	-0.0295636243	-0.045182
C	-2.0484416448	-0.2028284218	-1.3465863182	-0.070572
C	-2.5441607073	-1.2932863498	-1.9332116181	-0.167393
C	-2.2316565792	-2.5313123283	-1.1493523971	 0.376359
O	-3.202781993	-3.5215148825	-0.9962571455	-0.472491
C	-0.762218755	-2.8762155672	-1.0586472937	-0.347143
C	-1.4247137453	-2.0477290655	 0.0335225429	-0.119248
H	 0.8237950285	 1.8459728905	 0.0574183319	 0.286963
H	 0.6814010913	-0.3296761102	-0.7245047711	 0.085949
H	 0.4980315562	-0.2653738881	 1.0410478979	 0.086458
H	-1.9408513589	-0.088995042	 0.7989102014	 0.092721
H	-2.0820111283	 0.8062422177	-1.7378937292	 0.10915
H	-3.086931187	-1.3240732865	-2.8718796646	 0.090543
H	-3.1415410038	-4.1180384004	-1.7497307087	 0.282213
H	-0.5218476763	-3.8960757558	-0.7739372502	 0.109054
H	-0.0725862139	-2.4181582407	-1.7595555961	 0.110381
H	-1.5502633186	-2.533299153	 0.9936371656	 0.094987
96.8626	139.3541	176.3336	239.0298	260.564	295.9854	321.0608	389.0695	407.7503	501.2551	559.6809	628.4212	720.8825	748.3975	790.9571	843.9966	884.5984	933.4007	941.6002	959.9684	972.931	1039.7493	1050.6292	1064.0756	1073.0492	1078.3283	1110.6397	1137.0047	1232.181	1236.0985	1240.5809	1253.3684	1316.2836	1322.4099	1346.7295	1356.0574	1407.6884	1454.0378	1474.4242	1519.557	1667.3225	2972.579	2997.1492	3016.5466	3121.1687	3185.3429	3185.9615	3213.3291	3221.5003	3803.3577	3832.7983
OCC1C=CC2(O)CC12	OC[C@H]1C=C[C@@]2(O)C[C@@H]12	
InChI=1S/C7H10O2/c8-4-5-1-2-7(9)3-6(5)7/h1-2,5-6,8-9H,3-4H2	InChI=1S/C7H10O2/c8-4-5-1-2-7(9)3-6(5)7/h1-2,5-6,8-9H,3-4H2/t5-,6+,7-/m1/s1
