16
gdb 29237	3.18458	1.39652	0.9766	2.2625	76.5	-0.2232	-0.0224	0.2008	1152.0527	0.126926	-434.152933	-434.14494	-434.143996	-434.185425	30.363	
C	-0.0293024696	 1.5266781948	 0.0439776976	-0.473189
C	-0.0066658568	 0.0279604817	 0.0101169529	 0.222705
C	-0.0307503327	-0.6842857182	-1.1309256789	-0.059465
N	-0.0094851906	-2.066089841	-1.1522743478	-0.386282
C	 0.0381795685	-2.8464406237	-0.0117763544	 0.481944
O	 0.0573067452	-4.0587851337	-0.0296910524	-0.398425
N	 0.0624957937	-2.0965464946	 1.1505606509	-0.440809
C	 0.0443806459	-0.6960414144	 1.2825474948	 0.324575
N	 0.0692061526	-0.0721520697	 2.3999399457	-0.535006
H	 0.8572177378	 1.9177386853	 0.5530883705	 0.144248
H	-0.0688621238	 1.9422056157	-0.966653954	 0.108706
H	-0.8926460023	 1.8898845834	 0.6102818147	 0.144332
H	-0.0684783489	-0.211856071	-2.1054175144	 0.130821
H	-0.0281731424	-2.5758154068	-2.0202268387	 0.271902
H	 0.0976147386	-2.6550947827	 1.9914346892	 0.259511
H	 0.1040490847	-0.7123495552	 3.1947179843	 0.204432
107.743	143.3854	162.0756	291.631	296.2973	380.9809	398.4606	462.7242	529.8808	539.8714	596.1237	617.0914	741.2643	749.8728	763.3132	801.6746	837.8347	903.6383	965.4768	1020.6163	1073.601	1111.5662	1187.1295	1222.6578	1265.0237	1385.5222	1408.3976	1418.4487	1436.955	1465.354	1485.1081	1495.3292	1692.5431	1725.7872	1830.3307	3039.5635	3098.2636	3118.4503	3203.1561	3461.7185	3616.6145	3662.3853
CC1=CNC(=O)NC1=N	CC1=C(NC(=O)N[CH]1)[NH]	
InChI=1S/C5H7N3O/c1-3-2-7-5(9)8-4(3)6/h2H,1H3,(H3,6,7,8,9)	InChI=1S/C5H7N3O/c1-3-2-7-5(9)8-4(3)6/h2H,1H3,(H3,6,7,8,9)
