22
gdb 99665	2.51442	1.07105	0.7947	3.9789	86.73	-0.2994	0.0375	0.3369	1495.1527	0.194288	-367.229096	-367.2193	-367.218356	-367.264307	35.807	
C	-0.0543712734	 1.5830813202	 0.0502979883	-0.398648
C	-0.0443126342	 0.0575592946	-0.063974047	-0.181802
C	 0.7825215909	-0.4754130039	-1.2564489424	-0.166112
C	 2.1915117763	-0.0816620832	-1.135285345	 0.284329
N	 3.304484573	 0.2128049579	-1.0275954902	-0.338865
C	 0.6751330337	-2.0002873104	-1.4087898097	 0.055857
C	-0.6973856241	-2.604299621	-1.8209646121	-0.239481
C	 0.068431138	-3.623100172	-2.7082229969	-0.219137
C	 1.3057418658	-2.6865803578	-2.6515483173	-0.236384
H	 0.9577577061	 1.9764695174	 0.1847821316	 0.14431
H	-0.4772776221	 2.0454789294	-0.8483236357	 0.117424
H	-0.6568433428	 1.9036257869	 0.9050574594	 0.119952
H	 0.3460987449	-0.3865174547	 0.8590668493	 0.114661
H	-1.0668730788	-0.3168759585	-0.1852423513	 0.110885
H	 0.4010233875	-0.0119608617	-2.1776198683	 0.11415
H	 1.0388184658	-2.4750740782	-0.4910180197	 0.087099
H	-1.343481847	-2.9925737873	-1.0304590394	 0.102776
H	-1.2753367928	-1.8983693474	-2.4274758765	 0.100639
H	 0.2475580761	-4.5639029371	-2.1806189832	 0.108274
H	-0.3501189926	-3.8509974807	-3.6905807591	 0.102436
H	 1.3359109261	-2.0057919925	-3.5086317988	 0.104718
H	 2.2925536935	-3.1380408898	-2.5341251159	 0.112919
70.1555	91.6076	120.1348	128.6392	162.6109	215.5929	271.899	318.8	365.8819	414.1537	502.128	572.044	665.8427	760.2558	783.822	799.6316	875.3728	902.9069	932.5464	941.8617	964.0163	977.3944	1039.7672	1043.9889	1083.7709	1112.7277	1132.0408	1171.4799	1203.5568	1228.0504	1255.3724	1262.052	1268.8719	1278.637	1292.7619	1299.5452	1344.927	1367.5917	1382.6262	1418.7765	1478.7964	1487.1551	1487.4542	1500.7608	1507.2983	1510.4535	2350.7322	3008.9761	3036.1741	3038.5304	3044.6245	3048.6091	3056.8121	3063.594	3075.6459	3102.6454	3106.8259	3111.7362	3117.0389	3124.7158
CCC(C#N)C1CCC1	CC[C@@H](C#N)C1CCC1	
InChI=1S/C8H13N/c1-2-7(6-9)8-4-3-5-8/h7-8H,2-5H2,1H3	InChI=1S/C8H13N/c1-2-7(6-9)8-4-3-5-8/h7-8H,2-5H2,1H3/t7-/m0/s1
