23
gdb 70832	2.37054	1.81927	1.35876	0.0821	89.58	-0.2673	0.0839	0.3512	1083.9763	0.206655	-351.143536	-351.135016	-351.134072	-351.175893	34.386	
C	 0.0109476614	 1.5071715531	-0.0356238161	-0.519719
C	 0.0206151532	 0.0008467716	-0.0384658118	 0.334909
C	 0.6093100187	-0.9433037591	-1.1155946894	-0.324433
C	 0.0307550982	-1.8935365875	-0.0383201967	 0.334909
C	 0.0372183463	-3.3998781311	-0.0352443148	-0.519719
C	 0.6035801636	-0.9431659288	 1.0682534979	-0.068809
C	-0.3403684304	-0.9481328141	 2.2718133934	-0.247026
C	-1.7096342026	-0.9555067464	 1.5299277646	-0.247027
C	-1.2169462925	-0.9529876892	 0.0818699306	-0.068811
H	 1.0300779025	 1.9091752924	-0.0629010944	 0.116243
H	-0.525662322	 1.9007785779	-0.906313534	 0.116244
H	-0.4779978419	 1.9020647504	 0.8623390353	 0.115914
H	 0.113401545	-0.9460303916	-2.0926442345	 0.078284
H	 1.6986034685	-0.9374851456	-1.233765178	 0.078284
H	 1.060588988	-3.790948203	-0.0627061481	 0.116244
H	-0.4472524018	-3.7998440221	 0.8628987756	 0.115914
H	-0.4953546845	-3.7993467359	-0.9057431416	 0.116244
H	 1.682244009	-0.9373763685	 1.2473080746	 0.049211
H	-0.1988407357	-1.8284331438	 2.9075422866	 0.093483
H	-0.208265491	-0.0662892509	 2.9074309863	 0.093483
H	-2.3121460354	-1.8398012322	 1.7625471697	 0.093483
H	-2.3215539884	-0.0776578402	 1.7624046697	 0.093483
H	-1.9560308982	-0.9570078055	-0.7239508446	 0.049212
182.3939	187.5342	203.8847	204.726	211.1074	211.6462	385.6613	424.3703	455.2912	582.0197	649.4131	667.4246	719.028	730.8285	802.4621	843.1465	872.332	916.3434	928.7216	968.5513	978.0461	990.9401	1014.5878	1028.459	1046.9382	1053.0936	1113.4896	1119.8899	1148.4409	1180.8856	1183.4725	1189.2852	1203.3191	1247.8516	1251.9378	1282.8711	1312.6326	1314.5437	1317.4142	1396.7033	1405.7695	1414.1615	1482.3916	1488.0354	1489.2863	1489.6697	1493.6377	1510.0079	1520.5397	3020.5295	3020.7882	3025.7117	3037.2216	3046.3116	3067.907	3075.9996	3081.6151	3083.0652	3084.5857	3086.4909	3088.4475	3088.6265	3088.7845
CC12CC3(C)C1CCC23	C[C@@]12C[C@@]3(C)[C@@H]1CC[C@@H]23	
InChI=1S/C9H14/c1-8-5-9(2)6(8)3-4-7(8)9/h6-7H,3-5H2,1-2H3	InChI=1S/C9H14/c1-8-5-9(2)6(8)3-4-7(8)9/h6-7H,3-5H2,1-2H3/t6-,7+,8-,9+
