25
gdb 110900	2.30474	1.44548	1.09177	0.0523	91.86	-0.287	0.0859	0.3729	1267.7341	0.231176	-352.355378	-352.346472	-352.345528	-352.388595	35.863	
C	 1.2284419773	 0.133095694	 1.2598497121	-0.387987
C	 0.2741551716	 0.3574625893	 0.0807165895	-0.193421
C	 0.7937852749	-0.2346439237	-1.2350696757	 0.037299
C	 0.8321615375	-1.7823706814	-1.3006044945	-0.015797
C	 1.1411783212	-2.0311399645	-2.8042385042	-0.238809
C	-0.2806767986	-1.4303488285	-2.9864503323	-0.007565
C	-0.6371763029	-2.1530597262	-1.6558752551	-0.228009
C	-0.0665177748	 0.0350809701	-2.5392211346	 0.009067
C	-1.3556810898	 0.8437049638	-2.3843334788	-0.412368
H	 1.370127078	-0.9319972879	 1.4691346375	 0.117269
H	 2.2158814123	 0.5625681157	 1.0552887797	 0.112049
H	 0.8454856333	 0.6004433275	 2.1726045452	 0.108621
H	-0.7097402598	-0.059715739	 0.326576712	 0.093339
H	 0.1193437819	 1.4357446531	-0.047456734	 0.092725
H	 1.8082974927	 0.1559517795	-1.3878987772	 0.059079
H	 1.3804077459	-2.3015794369	-0.5137224146	 0.054546
H	 1.9866378255	-1.4979946445	-3.2515462339	 0.082208
H	 1.1890122642	-3.0934123138	-3.05634272	 0.090135
H	-0.8602984381	-1.5838848297	-3.8986295927	 0.050734
H	-0.7718447113	-3.2291098654	-1.7908345595	 0.092478
H	-1.4479938919	-1.7578125533	-1.038568427	 0.087238
H	 0.5576933244	 0.5491231755	-3.2800324063	 0.063413
H	-2.0610872616	 0.3819556534	-1.687007233	 0.113892
H	-1.1565781838	 1.8595099371	-2.0282647855	 0.1125
H	-1.8618939581	 0.9314104458	-3.3520507869	 0.107361
86.619	146.7142	186.6053	226.9019	243.722	285.5251	301.1122	408.6754	468.8713	485.9416	524.9298	664.7457	743.0028	795.5291	812.1276	837.1284	854.7735	871.174	893.6356	949.9997	958.5839	980.9379	1017.7049	1033.5353	1046.009	1051.0269	1071.6294	1077.611	1088.8947	1114.9126	1138.1854	1155.6895	1174.2429	1224.4799	1226.6583	1246.8658	1268.6406	1291.9282	1295.5166	1317.5439	1331.6754	1356.9042	1378.799	1397.5808	1411.324	1416.2588	1482.5616	1487.7006	1499.569	1501.8299	1505.9167	1507.1812	1524.4082	3004.7103	3024.8404	3026.926	3030.1236	3035.3207	3042.9867	3056.8093	3060.5485	3092.572	3095.5169	3096.3284	3100.0369	3105.6035	3106.9129	3110.9391	3114.3938
CCC1C2CC(C2)C1C	CC[C@H]1[C@@H]2C[C@@H](C2)[C@H]1C	
InChI=1S/C9H16/c1-3-9-6(2)7-4-8(9)5-7/h6-9H,3-5H2,1-2H3	InChI=1S/C9H16/c1-3-9-6(2)7-4-8(9)5-7/h6-9H,3-5H2,1-2H3/t6-,7-,8+,9-/m1/s1
