14
gdb 69024	2.78407	1.41741	1.17943	3.7651	70.74	-0.2591	-0.026	0.2331	1045.6512	0.100936	-432.839174	-432.83123	-432.830286	-432.871653	29.812	
N	-0.0859261312	 1.475941552	-0.1957314815	-0.585276
C	-0.0090431423	 0.0836662603	-0.0557669279	 0.13504
C	-0.2919115593	-0.8446478033	-1.2269575104	-0.358876
C	-1.1237306884	-0.9966221813	 0.005176368	 0.297344
O	-0.3703457392	-1.7442309461	 0.9928491136	-0.295118
C	 0.5947979895	-0.7312654631	 1.0549447102	 0.395317
N	 1.5537201174	-0.5632306786	 1.8370942921	-0.546603
C	-2.5327783114	-0.8997254489	 0.1347738663	 0.234663
N	-3.682201543	-0.806455284	 0.232456573	-0.340178
H	-0.0421413975	 1.9495427947	 0.6993147398	 0.259156
H	 0.6452436872	 1.8407612565	-0.7954475517	 0.255351
H	-0.7783538237	-0.3396118079	-2.0554241581	 0.159575
H	 0.3913338286	-1.6462816757	-1.4886552061	 0.145553
H	 1.6346346036	-1.3205419045	 2.5169834528	 0.244052
105.2251	121.7993	188.6148	278.4995	292.3897	348.6536	423.3224	463.3475	534.1409	570.5676	637.1118	652.5271	688.4309	728.2106	786.84	861.7913	872.9439	926.0289	963.6876	975.483	1068.825	1096.992	1133.5518	1224.6728	1276.1263	1357.9474	1414.8428	1484.4101	1665.4561	1840.6307	2349.799	3129.7082	3229.2441	3488.8401	3521.9652	3603.3429
NC12CC1(OC2=N)C#N	N[C@]12C[C@]1(O[C]2[NH])C#N	
InChI=1S/C5H5N3O/c6-2-4-1-5(4,8)3(7)9-4/h7H,1,8H2	InChI=1S/C5H5N3O/c6-2-4-1-5(4,8)3(7)9-4/h7H,1,8H2/t4-,5-/m0/s1
