21
gdb 122271	3.11348	0.83094	0.73709	3.4315	81.25	-0.2461	-0.0192	0.2269	1628.6247	0.179598	-424.221511	-424.211174	-424.21023	-424.258017	36.262	
C	-0.0173512625	 1.5079037249	-0.5444103121	-0.384882
C	 0.0500721257	 0.0445058055	-0.1430171336	-0.024427
O	-1.2603900887	-0.4886362274	-0.1596623527	-0.249713
C	-1.3179811904	-1.8484401627	 0.2167971095	-0.16903
C	-2.7628795873	-2.2716602985	 0.2525161461	 0.253702
C	-3.4700038751	-2.6217138648	-1.0502534972	-0.273544
C	-3.1329075397	-3.7112883889	-0.0940403197	-0.30265
C	-3.6051718571	-1.6189545176	 1.29360309	 0.100595
O	-4.7875297046	-1.8212485309	 1.4414445702	-0.276389
H	 0.9830601854	 1.9506456516	-0.5401567267	 0.116224
H	-0.4394349494	 1.6116048163	-1.5479112644	 0.128589
H	-0.6483867707	 2.067534634	 0.1517427216	 0.128837
H	 0.6967006741	-0.5190988202	-0.8369930981	 0.086196
H	 0.4903820421	-0.0628023402	 0.8629559887	 0.086946
H	-0.7528302805	-2.4763090143	-0.4920405569	 0.087105
H	-0.8525985598	-1.9868571577	 1.2092240337	 0.089412
H	-4.5070238573	-2.3142262133	-1.1176627375	 0.14108
H	-2.8874091529	-2.518988989	-1.9586944205	 0.123717
H	-2.316502248	-4.3852539974	-0.3296045225	 0.119551
H	-3.9399331353	-4.1392622683	 0.4892834229	 0.140251
H	-3.0584799679	-0.9104653709	 1.9533654093	 0.078431
44.1802	78.2536	90.4656	119.4127	137.2305	231.3557	243.6508	279.8884	304.8134	324.5973	384.107	498.1759	652.2014	755.2962	793.6322	820.6061	834.3844	899.4906	928.0379	962.1545	983.7768	1044.2213	1053.4888	1066.1215	1071.7644	1101.1634	1143.0433	1158.9585	1187.9865	1203.9143	1247.3865	1296.1378	1308.0924	1344.5349	1386.8761	1407.8123	1435.7629	1451.1991	1455.094	1483.0755	1485.5905	1498.9876	1510.2529	1534.2801	1808.6082	2894.4885	2940.908	2956.7035	2975.6847	2978.7195	3046.0931	3120.6544	3122.9424	3137.7257	3142.2003	3226.8468	3241.1867
CCOCC1(CC1)C=O	CCOCC1(CC1)C=O	
InChI=1S/C7H12O2/c1-2-9-6-7(5-8)3-4-7/h5H,2-4,6H2,1H3	InChI=1S/C7H12O2/c1-2-9-6-7(5-8)3-4-7/h5H,2-4,6H2,1H3
