18
gdb 86966	2.58309	1.38309	1.13257	1.951	78.01	-0.2495	0.0182	0.2677	1146.5212	0.14756	-401.930039	-401.921533	-401.920588	-401.963198	32.315	
C	-0.0101715544	 1.5869935766	 0.0123624419	-0.387731
C	 0.0820968556	 0.0617454288	 0.0569273332	 0.05593
C	 0.678906412	-0.5229735308	-1.2286040491	-0.241749
C	 0.9524224441	-2.0210447509	-1.0352353219	-0.074803
O	 1.7741307381	-2.2307226062	 0.1332838847	-0.227339
C	 1.5858307507	-1.3635712009	 1.1648646484	 0.128677
N	 0.8548918097	-0.3375978945	 1.2370952545	-0.272966
C	-0.274418408	-2.8122388271	-0.936166966	 0.362388
C	-1.2889283115	-3.4525349763	-0.872222195	-0.47858
H	 0.9838323357	 2.0306227137	-0.1072439095	 0.116829
H	-0.6390127642	 1.9171586832	-0.8209330135	 0.106735
H	-0.4357460802	 1.9636308994	 0.9458146482	 0.127226
H	-0.9324847289	-0.3407120155	 0.1831421922	 0.100629
H	 0.0152606537	-0.3788358329	-2.0857193886	 0.116227
H	 1.6313946523	-0.0284968905	-1.4518888516	 0.111077
H	 1.5557538888	-2.405033815	-1.8640232563	 0.123211
H	 2.2018159258	-1.6741913475	 2.007105153	 0.126395
H	-2.1813105992	-4.0257319535	-0.8114545845	 0.207843
82.9984	100.6908	189.9782	237.158	277.3216	314.8841	371.3679	424.3586	444.6412	550.1603	603.9674	634.4606	670.0655	678.0814	789.1089	806.3814	884.0693	893.9326	948.9443	964.8034	976.155	1039.7639	1107.8443	1124.4669	1134.5804	1166.0968	1246.5804	1287.7801	1331.5652	1349.8406	1366.6524	1384.8366	1405.2438	1414.3406	1475.6924	1487.5642	1499.4483	1732.2358	2238.3455	3010.4084	3035.517	3042.5526	3059.9056	3098.3843	3106.6863	3123.4509	3156.2751	3501.6734
CC1CC(OC=N1)C#C	C[C@H]1C[C@@H](OC=N1)C#C	
InChI=1S/C7H9NO/c1-3-7-4-6(2)8-5-9-7/h1,5-7H,4H2,2H3	InChI=1S/C7H9NO/c1-3-7-4-6(2)8-5-9-7/h1,5-7H,4H2,2H3/t6-,7-/m0/s1
