21
gdb 104826	1.80245	1.55117	1.29775	1.5209	79.48	-0.228	0.0268	0.2548	1173.3673	0.182133	-420.397095	-420.387241	-420.386297	-420.431723	36.209	
C	-0.0631631591	 1.6139759225	-0.0450202039	-0.407413
C	 0.1030418479	 0.0899398396	-0.0114712865	-0.237321
C	 0.7535288135	-0.5098737613	-1.2686363271	 0.19136
C	 0.5376508009	-2.0450902332	-1.3886848341	-0.118271
O	-0.4076123625	-1.839857616	-2.4841697341	-0.259377
C	-0.1895583648	-0.479018875	-2.4867168859	 0.398035
N	-0.6261004316	 0.4150643481	-3.2526052981	-0.557039
N	 2.1164198013	-0.0497674572	-1.4042962823	-0.337077
C	 2.7766952164	-0.3056656564	-2.6835423245	-0.339447
H	 0.897651038	 2.1381191202	-0.0015158943	 0.114746
H	-0.583364514	 1.9301334552	-0.9532400852	 0.156913
H	-0.6428765319	 1.9492966036	 0.8201060496	 0.116632
H	 0.7090079737	-0.2096297436	 0.8522110362	 0.107723
H	-0.8818880256	-0.3742220613	 0.1119551754	 0.108242
H	 1.4034203188	-2.6206084773	-1.7215549072	 0.120533
H	 0.057113772	-2.5357987365	-0.5389522445	 0.116333
H	-1.2417661422	 0.0268125172	-3.9704423425	 0.225343
H	 2.1541541478	 0.9418406964	-1.2035806581	 0.228523
H	 2.9138206007	-1.3819312659	-2.8309790176	 0.122956
H	 2.2347269144	 0.0915980122	-3.5545216319	 0.127059
H	 3.7726302262	 0.1445253288	-2.6574583434	 0.121548
94.6374	111.2262	115.5272	150.2269	192.6965	214.2054	279.8993	285.7158	327.3845	386.3282	466.232	524.5557	659.113	694.8303	719.9176	756.0259	796.6998	864.8422	902.5446	944.1268	969.4577	1001.8708	1011.0843	1032.8512	1100.7438	1123.282	1148.7646	1150.9302	1161.3127	1232.1854	1242.9989	1260.9055	1314.3742	1366.905	1381.2465	1414.8715	1461.9576	1477.6183	1485.236	1493.4055	1506.4818	1510.2269	1517.2195	1529.1072	1806.1473	2996.864	3030.4726	3037.6642	3066.6961	3069.8818	3073.9134	3099.7988	3109.9724	3126.0376	3129.2491	3461.3354	3557.5503
CCC1(COC1=N)NC	CC[C@]1(CO[C]1[NH])NC	
InChI=1S/C6H12N2O/c1-3-6(8-2)4-9-5(6)7/h7-8H,3-4H2,1-2H3	InChI=1S/C6H12N2O/c1-3-6(8-2)4-9-5(6)7/h7-8H,3-4H2,1-2H3/t6-/m1/s1
