19
gdb 72923	2.53418	2.04002	1.54167	1.2744	73.07	-0.243	0.0682	0.3112	929.0106	0.160935	-422.980656	-422.973606	-422.972662	-423.011651	29.136	
C	-0.0222596667	 1.5018238382	-0.0383536319	-0.491043
C	 0.0077422164	-0.0137601394	-0.0206283293	 0.312963
C	-1.259462622	-0.7715601193	 0.4387529703	-0.151871
O	-0.5157629336	-1.5183536018	 1.4309594154	-0.302815
C	 0.6988796608	-0.7945941389	 1.1314462529	 0.08374
C	 1.7639760332	-1.5520199815	 0.2997034369	 0.053338
C	 0.9628783471	-2.1430415529	-0.8738626179	-0.250985
C	 0.8514329307	-0.6303384236	-1.1668072404	 0.00899
O	 2.199605958	-0.4713538375	-0.5947168513	-0.304764
H	 0.9855384971	 1.8984064605	-0.1908080964	 0.138262
H	-0.6629499812	 1.8741825107	-0.8468460675	 0.114598
H	-0.4087729053	 1.9044718267	 0.9035650629	 0.118336
H	-2.0132229387	-0.1289560622	 0.9103040214	 0.102215
H	-1.7526804697	-1.4237848447	-0.2924092618	 0.099603
H	 1.0989638237	-0.2626153721	 1.9990086724	 0.079136
H	 2.5779794133	-2.0695059178	 0.8058752545	 0.081281
H	 1.6184098821	-2.6339415963	-1.5929181424	 0.112158
H	 0.0731888161	-2.7368315858	-0.6662938364	 0.118167
H	 0.7457348587	-0.2181847123	-2.1709552314	 0.078693
194.0534	226.8562	248.9829	281.1812	347.0778	424.405	501.2139	549.7497	609.0746	679.5517	803.8526	837.5597	863.4681	872.1352	906.3906	912.8355	941.362	964.6992	984.2332	1004.7945	1014.0085	1026.9398	1059.0806	1082.57	1154.745	1167.0121	1176.7684	1195.9974	1231.7008	1238.5615	1248.8288	1281.35	1298.0253	1301.3666	1344.5588	1378.3333	1407.9399	1484.7618	1491.0719	1501.9017	1522.8581	3012.7823	3026.9371	3057.2727	3073.9829	3089.6462	3094.2737	3114.888	3117.0913	3132.0028	3161.7132
CC12COC1C1CC2O1	C[C@]12CO[C@H]1[C@H]1C[C@@H]2O1	
InChI=1S/C7H10O2/c1-7-3-8-6(7)4-2-5(7)9-4/h4-6H,2-3H2,1H3	InChI=1S/C7H10O2/c1-7-3-8-6(7)4-2-5(7)9-4/h4-6H,2-3H2,1H3/t4-,5+,6+,7-/m1/s1
