14
gdb 130625	5.10742	1.27279	1.02537	1.5352	68.55	-0.2105	-0.0024	0.2081	1060.53	0.104679	-432.914897	-432.908101	-432.907157	-432.946182	26.167	
O	-0.0182042346	-0.004508298	 0.0040510327	-0.359751
C	-0.0260559322	 1.2012324811	 0.0103034909	 0.414662
C	-1.2898735943	 2.1263012299	 0.0326678766	-0.500592
C	-0.6578482229	 3.4769321193	 0.0304501551	 0.341258
C	 0.7122129165	 3.3785683496	 0.0107237493	 0.27097
N	 1.0884415048	 2.0272697154	-0.0011478181	-0.457424
C	 1.2010474875	 4.6935717086	 0.0102617269	-0.13184
N	 0.1763335114	 5.5589193795	 0.028921763	-0.222875
N	-0.9392733813	 4.7996886213	 0.040939699	-0.320851
H	-1.908415483	 1.9004052539	-0.8422028736	 0.154927
H	-1.8834668962	 1.8917068252	 0.9224121364	 0.154925
H	 2.0231695059	 1.6564588507	-0.0164278373	 0.264626
H	 2.213597097	 5.0651257176	-0.0021702661	 0.115316
H	-1.8338390486	 5.2586301056	 0.0557862452	 0.27665
99.2963	194.089	290.5569	347.2191	418.1471	498.2204	541.7777	543.8974	567.4612	678.583	698.3259	732.7416	828.0194	844.5428	853.8463	957.9026	982.0615	1106.9304	1131.5086	1149.9582	1210.1606	1236.6874	1258.7405	1314.7427	1337.6292	1407.4796	1445.4998	1482.4771	1585.5126	1601.9201	1844.8815	3054.2844	3090.9622	3260.0462	3674.6117	3678.0619
O=C1CC2=C(N1)C=NN2	O=C1Cc2c(N1)cn[nH]2	
InChI=1S/C5H5N3O/c9-5-1-3-4(7-5)2-6-8-3/h2H,1H2,(H,6,8)(H,7,9)	InChI=1S/C5H5N3O/c9-5-1-3-4(7-5)2-6-8-3/h2H,1H2,(H,6,8)(H,7,9)
