12
gdb 130568	3.71821	1.2517	0.93645	6.9025	68.78	-0.285	-0.091	0.1941	1126.5303	0.079546	-431.706805	-431.699548	-431.698604	-431.739242	25.738	
O	 0.0526897477	-0.0374047811	 0.003081469	-0.290127
C	-0.0507700688	 1.1688972493	 0.0067744346	 0.215666
C	 1.1621974801	 2.0151550691	 0.0007117451	 0.25932
N	 2.1461313876	 2.6213765441	-0.0043978434	-0.322842
C	-1.3295954112	 1.8792129247	 0.0170212556	 0.274499
N	-1.3761389922	 3.2174634895	 0.0206457875	-0.273134
N	-2.6761388881	 3.4957563006	 0.0299279739	-0.17045
C	-3.4717247006	 2.3883385998	 0.0324806453	-0.012015
C	-2.6256134339	 1.3072645458	 0.0242597602	-0.275064
H	-2.9655912123	 4.4611925832	 0.0342056024	 0.293187
H	-4.5470511856	 2.4660265096	 0.0397912213	 0.156248
H	-2.8774327227	 0.2607039654	 0.0233827186	 0.14471
75.0853	122.8772	182.3643	241.9257	318.8223	458.0287	485.6184	592.8865	640.6116	677.3881	702.1559	779.1585	817.4979	885.5733	941.8548	949.4927	1038.4437	1087.3111	1117.6681	1222.5087	1329.6181	1403.8743	1462.3601	1495.5547	1560.414	1762.2802	2345.9389	3269.9564	3296.118	3653.0898
O=C(C#N)C1=NNC=C1	O=C(C#N)c1n[nH]cc1	
InChI=1S/C5H3N3O/c6-3-5(9)4-1-2-7-8-4/h1-2H,(H,7,8)	InChI=1S/C5H3N3O/c6-3-5(9)4-1-2-7-8-4/h1-2H,(H,7,8)
