23
gdb 92239	2.49152	1.61381	1.28539	0.1522	88.94	-0.2477	0.0868	0.3345	1123.1942	0.20709	-351.121302	-351.113027	-351.112082	-351.153997	33.42	
C	-0.209395017	 1.5591096051	-0.0415016875	-0.411898
C	 0.03635542	 0.05698972	-0.0105334301	-0.063945
C	 1.1765295091	-0.5482063628	-0.8925711329	-0.25086
C	 1.666172755	-1.4138606057	 0.3098078135	-0.068646
C	 2.9118486736	-0.8655620253	 1.0541189565	-0.244368
C	 1.9761977319	-0.0121003486	 1.9520830245	-0.070692
C	 1.4672396403	-0.7196801836	 3.2465547452	-0.220037
C	 0.1165779557	-1.0701013273	 2.5465678067	-0.336399
C	 0.7007077725	-0.5762907894	 1.2198027522	 0.400033
H	 0.7132769283	 2.114052053	 0.1618080163	 0.111949
H	-0.5810412828	 1.8807434623	-1.0208678397	 0.112137
H	-0.950673297	 1.8588199941	 0.7082974344	 0.111283
H	-0.9032410566	-0.4718911253	-0.2186297237	 0.06602
H	 0.8452283446	-1.1033893625	-1.7732219775	 0.09638
H	 1.9159474352	 0.1924033922	-1.2152830745	 0.092565
H	 1.5654387599	-2.4942882495	 0.1840784622	 0.055134
H	 3.4956427021	-1.6109946363	 1.6042146389	 0.090694
H	 3.6002711106	-0.2996666738	 0.4180642863	 0.090822
H	 2.1871059283	 1.0548359941	 2.051146033	 0.056379
H	 2.067109401	-1.5881493288	 3.5338004447	 0.096545
H	 1.3740180051	-0.0687651233	 4.11882238	 0.098732
H	-0.2177644872	-2.1119387115	 2.5842891414	 0.091227
H	-0.7050737825	-0.4380083671	 2.9011471002	 0.096947
74.4412	136.4335	199.8185	219.4571	306.4533	356.6618	414.7408	450.9266	503.7993	608.2611	657.6064	742.8734	784.6725	812.8323	831.6055	855.4731	870.0341	899.6655	929.1368	956.8107	960.4374	1001.9267	1014.488	1023.7493	1084.2938	1116.5498	1133.0588	1143.8943	1148.6631	1174.3377	1204.422	1212.0981	1224.32	1235.4636	1247.2727	1269.2339	1274.8567	1286.4629	1294.0336	1308.9068	1317.0486	1372.7852	1406.9435	1471.7403	1477.5695	1487.6839	1494.7886	1495.43	1497.3256	3011.9438	3022.638	3033.6258	3034.6852	3045.0172	3054.5087	3070.488	3076.1548	3079.9515	3085.7384	3087.8897	3092.0148	3104.9424	3110.8976
CC1CC2CC3CCC123	C[C@H]1C[C@H]2C[C@@H]3CC[C@]123	
InChI=1S/C9H14/c1-6-4-8-5-7-2-3-9(6,7)8/h6-8H,2-5H2,1H3	InChI=1S/C9H14/c1-6-4-8-5-7-2-3-9(6,7)8/h6-8H,2-5H2,1H3/t6-,7-,8-,9+/m0/s1
