20
gdb 104513	2.27464	1.1713	1.04285	1.6904	81.04	-0.2219	0.0504	0.2723	1281.3248	0.168098	-403.073502	-403.063356	-403.062412	-403.108485	37.555	
C	 0.0253617706	 1.3818771866	 0.0264418638	-0.335843
N	 0.1713214662	-0.0640052502	 0.1714397279	-0.102476
C	 1.4976276388	-0.6451869035	-0.0086698931	-0.301841
C	 0.8539384284	-0.6168533223	 1.3385359469	 0.287675
C	 1.4188477751	 0.2778159088	 2.4453218492	-0.150261
O	 2.429683801	 1.1877889504	 2.0424812427	-0.404061
C	 0.2102420847	-1.9023461392	 1.8679133852	-0.411378
C	-0.8427249986	-1.6557916087	 2.849272706	 0.31512
C	-1.7008307042	-1.4345520528	 3.6615582901	-0.459218
H	 0.885392858	 1.9597441913	 0.3868992165	 0.133784
H	-0.1335267051	 1.6063525221	-1.0330187497	 0.119235
H	-0.8679710503	 1.7018040395	 0.5723234892	 0.124007
H	 1.543658384	-1.5703713024	-0.5802293289	 0.107003
H	 2.3274430061	 0.0378035667	-0.18020183	 0.102862
H	 0.6144860516	 0.8914854367	 2.8625965926	 0.133206
H	 1.7746881701	-0.368306848	 3.2615519904	 0.099377
H	 3.2092660022	 0.6755795064	 1.8051616007	 0.283367
H	-0.2043092503	-2.4501330333	 1.0154727704	 0.1401
H	 0.9842647216	-2.5403977652	 2.3159783879	 0.123137
H	-2.4650651897	-1.247419993	 4.3744445721	 0.196204
58.471	104.456	121.8587	192.5197	223.583	228.7461	287.2334	326.2478	353.5477	360.8485	414.5048	437.9913	464.9818	615.3026	617.8323	641.5166	719.4539	771.1456	875.1809	896.1523	944.0555	976.3634	1027.376	1057.7537	1080.6047	1124.5559	1145.052	1154.3174	1200.1547	1209.0163	1243.2508	1284.1752	1318.0019	1384.3845	1400.1061	1419.6225	1448.1984	1457.7286	1488.6835	1497.844	1507.6797	1512.2808	2236.0818	2994.8102	3016.9445	3017.8571	3075.3195	3083.1713	3087.576	3088.0762	3100.7469	3170.0165	3505.5	3817.6323
CN1CC1(CO)CC#C	CN1C[C@]1(CO)CC#C	
InChI=1S/C7H11NO/c1-3-4-7(6-9)5-8(7)2/h1,9H,4-6H2,2H3	InChI=1S/C7H11NO/c1-3-4-7(6-9)5-8(7)2/h1,9H,4-6H2,2H3/t7-,8?/m0/s1
