20
gdb 86274	1.84061	1.59461	1.15989	2.2875	80.29	-0.237	0.0274	0.2644	1185.5174	0.17058	-399.322908	-399.313071	-399.312126	-399.357147	36.651	
C	-0.5568874379	 1.0862192766	-1.4151233053	-0.412109
C	 0.28926957	-0.0877131089	-0.9594743597	 0.051945
N	 1.736680883	 0.0202347191	-1.2503969414	-0.335138
C	 2.0935236583	-0.5678289533	 0.0603470123	 0.051928
C	 3.2845247572	 0.0639626226	 0.7561266591	-0.412109
C	 0.6427567105	-0.2328942307	 0.5656467985	 0.094116
N	 0.569292692	 1.0294203003	 1.2892848275	-0.536432
C	-0.0414573838	-1.3293396995	 1.2598699897	 0.220856
N	-0.5898689063	-2.1709789238	 1.8345140909	-0.349588
H	-0.1512071753	 2.022916647	-1.0284366291	 0.143153
H	-0.5581669732	 1.1376190038	-2.5089686638	 0.122103
H	-1.5969236624	 0.9748167016	-1.0878675571	 0.115219
H	-0.1529449808	-1.0317928099	-1.3088323919	 0.079746
H	 2.0537875902	-0.5045014014	-2.0584567738	 0.219122
H	 2.2101987336	-1.6606002345	 0.0267336088	 0.079758
H	 3.1508798873	 1.144216361	 0.8378558192	 0.143138
H	 3.4318310979	-0.3633834448	 1.7545540231	 0.115232
H	 4.1941809525	-0.1271642084	 0.1772171266	 0.122112
H	-0.4018263724	 1.2920566731	 1.431889905	 0.243481
H	 0.9796344495	 0.9246672502	 2.2128762814	 0.243468
84.9573	122.2484	171.2519	200.7653	210.9474	242.8647	256.6155	277.4741	335.4391	373.578	477.5193	504.3481	535.3398	577.7618	593.2237	690.3099	813.2911	859.2418	872.6355	924.3695	958.2118	997.5117	1028.3523	1084.5759	1101.8434	1116.4766	1126.2391	1192.7671	1233.3121	1239.2774	1284.1659	1349.8241	1357.7103	1376.3886	1393.8072	1404.513	1423.1353	1485.6033	1486.3142	1497.2678	1498.974	1656.3384	2336.2835	2992.1275	2996.5504	3035.5152	3036.0149	3098.0528	3098.1756	3138.8685	3139.2383	3492.4998	3525.9138	3569.9606
CC1NC(C)C1(N)C#N	C[C@H]1N[C@@H](C)[C@]1(N)C#N	
InChI=1S/C6H11N3/c1-4-6(8,3-7)5(2)9-4/h4-5,9H,8H2,1-2H3	InChI=1S/C6H11N3/c1-4-6(8,3-7)5(2)9-4/h4-5,9H,8H2,1-2H3/t4-,5+,6+
