13
gdb 20471	6.37307	1.38805	1.22636	2.8055	59.42	-0.2577	-0.0182	0.2395	928.0532	0.096413	-398.561931	-398.55557	-398.554626	-398.59316	22.935	
C	 0.0704078107	 1.5380487078	 0.0055181046	-0.167565
O	 1.1988808829	 0.6658052121	-0.0411989349	-0.226984
C	-0.0990635614	 0.0721368866	 0.0199017564	-0.064594
C	-0.41095426	-0.6699792423	 1.2572831921	 0.148637
C	 0.3507763203	-0.7899720131	 2.378656218	 0.00042
O	-0.2698120697	-1.5484883877	 3.2922438245	-0.160926
N	-1.4931353722	-1.9656143794	 2.7807279857	-0.128308
C	-1.5623789642	-1.4445387652	 1.5813685145	-0.057507
H	-0.0564803849	 2.090281436	 0.9347775345	 0.122314
H	-0.1287029546	 2.0947886222	-0.9090496163	 0.123555
H	-0.4206894872	-0.4025119406	-0.9076512261	 0.107606
H	 1.3250878892	-0.4127266956	 2.6439876548	 0.167998
H	-2.438393459	-1.6355627608	 0.9770891422	 0.135354
67.9715	165.307	178.958	401.1737	454.5821	624.5784	656.2915	684.9923	857.4244	863.9623	896.0695	902.2843	910.1551	939.8609	992.3559	1050.2854	1096.2231	1148.3005	1151.99	1169.5746	1196.8503	1269.4689	1295.4886	1343.8744	1449.3653	1481.727	1522.0536	1653.4867	3086.7283	3105.7507	3181.1207	3241.4951	3280.8098
C1OC1C1=CON=C1	C1O[C@H]1c1conc1	
InChI=1S/C5H5NO2/c1-4(2-8-6-1)5-3-7-5/h1-2,5H,3H2	InChI=1S/C5H5NO2/c1-4(2-8-6-1)5-3-7-5/h1-2,5H,3H2/t5-/m1/s1
