17
gdb 97732	6.2797	0.61117	0.56285	2.192	86.37	-0.2223	-0.0187	0.2036	1898.4138	0.134772	-421.790247	-421.780827	-421.779883	-421.826678	32.028	
O	 0.0371070105	 1.4176105897	 0.052618992	-0.406899
C	-0.0059483545	-0.0024735306	 0.0077509991	-0.225566
C	-1.3908061533	-0.4526100434	 0.0037317485	 0.235799
C	-2.5357591424	-0.8345743511	 0.0001398216	-0.121267
C	-3.8532452711	-1.3399369399	-0.0059528392	 0.200071
C	-5.0118822937	-0.672284283	 0.0239757144	-0.231465
C	-6.1594061822	-1.6359845364	 0.0020097223	-0.103975
O	-5.5662688425	-2.9307634728	-0.043575282	-0.266067
C	-4.1496830765	-2.8273637031	-0.0509373355	-0.168379
H	 0.9643758738	 1.6763903578	 0.053786864	 0.291555
H	 0.4982002384	-0.3903976395	-0.8931760762	 0.120578
H	 0.5113615475	-0.4466536717	 0.8745952879	 0.12058
H	-5.1295769408	 0.4022906638	 0.0589727128	 0.112757
H	-6.7986484981	-1.5473297664	 0.895482616	 0.109619
H	-6.8119843861	-1.491131806	-0.8743141658	 0.109621
H	-3.7374667886	-3.2972242117	-0.9566099979	 0.11152
H	-3.7241269903	-3.3535184558	 0.8168180582	 0.11152
22.5067	71.4674	85.0186	104.7804	189.0107	218.2128	258.7799	391.6259	403.07	500.9392	537.2307	603.9529	769.4371	834.5324	860.9505	921.6247	968.2751	979.5412	1021.7922	1023.6209	1061.649	1062.8489	1120.1608	1170.7692	1222.4096	1239.1408	1244.2254	1269.9982	1283.171	1358.0432	1391.5001	1460.2919	1499.9753	1515.0614	1529.1621	1691.1304	2349.4567	2958.3346	2967.0204	2975.0049	2981.0219	2984.8925	3006.4005	3231.1969	3818.7023
OCC#CC1=CCOC1	OCC#CC1=CCOC1	
InChI=1S/C7H8O2/c8-4-1-2-7-3-5-9-6-7/h3,8H,4-6H2	InChI=1S/C7H8O2/c8-4-1-2-7-3-5-9-6-7/h3,8H,4-6H2
