15
gdb 18950	5.76254	1.67862	1.56959	2.2243	65.83	-0.2456	-0.0355	0.2101	819.6491	0.118824	-362.561835	-362.55547	-362.554526	-362.592646	24.065	
O	-0.6219272507	 0.4806211815	 0.6694408375	-0.245208
C	 0.1410926218	 0.8611819404	-0.1837742701	 0.139455
C	 1.2014015882	 1.907581898	 0.0372751848	-0.052017
C	 1.4863361975	 2.4380319274	 1.4351079941	-0.068629
C	 2.245103218	 1.1223149159	 1.7888058212	 0.000093
C	 3.5222213798	 1.8437748277	 2.2258896487	-0.25653
C	 2.9797727189	 2.6311508563	 1.0316626451	 0.000769
N	 2.6077311183	 1.3186747691	 0.2820193075	-0.183072
H	 0.1182879093	 0.4326668195	-1.2111680039	 0.085805
H	 1.2093542363	 2.6215778794	-0.7974122561	 0.087103
H	 0.8742516279	 3.0605760744	 2.0926247941	 0.079741
H	 1.8162184646	 0.1840865319	 2.1369546756	 0.105018
H	 3.4971806621	 2.3425389282	 3.1975744364	 0.106259
H	 4.4611359403	 1.3076634571	 2.0656538501	 0.113909
H	 3.4149681877	 3.4650113932	 0.4778047649	 0.087304
77.4989	172.5545	226.9513	380.0104	435.9646	688.3975	717.4318	747.013	818.7857	845.2786	850.2656	872.8501	905.4746	928.3932	1005.308	1021.7121	1023.3076	1040.7993	1059.1159	1117.3153	1139.0046	1153.9132	1173.8756	1183.095	1233.3582	1233.6182	1264.7744	1316.899	1387.724	1419.9291	1490.5309	1819.9614	2880.8221	3024.0218	3060.9538	3074.8071	3102.3093	3127.7744	3135.8174
O=CC1C2C3CC2N13	O=C[C@H]1[C@H]2[C@@H]3C[C@H]2N13	
InChI=1S/C6H7NO/c8-2-5-6-3-1-4(6)7(3)5/h2-6H,1H2	InChI=1S/C6H7NO/c8-2-5-6-3-1-4(6)7(3)5/h2-6H,1H2/t3-,4+,5-,6-/m0/s1
