16
gdb 109143	4.53086	0.98957	0.83177	5.2386	68.97	-0.2185	0.0054	0.2239	1310.5376	0.124866	-475.062777	-475.054188	-475.053243	-475.09675	30.636	
O	 0.0481118752	 1.4341880348	-0.0097803046	-0.412957
C	 0.0278644538	 0.0224995766	 0.0808037143	-0.165624
C	-1.3881765815	-0.458860706	 0.0166573872	 0.193064
C	-2.4499036972	 0.3414300142	-0.0416992249	-0.054928
N	-3.7340011528	-0.2104634114	-0.0722715878	-0.389929
C	-4.012485204	-1.4914955247	 0.3687903654	 0.470317
O	-5.1262689908	-1.8892204529	 0.5892608896	-0.380657
O	-2.9287362425	-2.2746735519	 0.5824888603	-0.241046
C	-1.6589052808	-1.9357292556	-0.0075170181	-0.167927
H	 0.9591262066	 1.7289433247	 0.0716160173	 0.294817
H	 0.6129382398	-0.4379316539	-0.736746295	 0.097343
H	 0.4911041877	-0.3261906735	 1.0216662361	 0.10135
H	-2.3848441708	 1.4203600162	-0.0599438222	 0.140624
H	-4.5400934618	 0.3917478941	-0.1033919633	 0.267058
H	-1.6392751722	-2.3318332581	-1.0351528906	 0.121664
H	-0.9198070986	-2.4977676125	 0.5723115563	 0.126832
57.7308	95.7133	144.9347	194.9841	213.9931	273.0362	368.5209	440.6573	469.953	544.2398	576.0376	605.1291	768.1765	784.3471	834.4054	878.0071	934.1229	1015.9005	1041.1632	1068.9527	1103.8662	1143.9889	1208.8704	1234.3347	1238.5422	1247.9556	1274.4651	1375.1979	1435.3287	1459.2129	1470.9381	1505.3609	1516.81	1766.0846	1855.518	2929.0562	2941.1173	2978.4276	3070.972	3238.9813	3660.1433	3844.4523
OCC1=CNC(=O)OC1	OCC1=CNC(=O)OC1	
InChI=1S/C5H7NO3/c7-2-4-1-6-5(8)9-3-4/h1,7H,2-3H2,(H,6,8)	InChI=1S/C5H7NO3/c7-2-4-1-6-5(8)9-3-4/h1,7H,2-3H2,(H,6,8)
