19
gdb 121680	7.58271	0.55538	0.52418	1.7353	79.44	-0.2515	-0.0187	0.2328	2061.3709	0.154361	-422.996641	-422.985686	-422.984742	-423.035636	36.866	
C	-0.1101845429	 1.3331681977	-0.1491947499	-0.229208
O	-0.015452076	-0.0675424526	-0.043694773	-0.236287
C	 0.6659666258	-0.4813868195	 1.1202620424	-0.057029
C	 0.7011732159	-2.0025511721	 1.1171425983	-0.312849
C	 1.4146016399	-2.5825412312	 2.3266760468	 0.371348
O	 1.9008415532	-1.8917637364	 3.1865590722	-0.2756
C	 1.4676087485	-4.1218267784	 2.3688536507	-0.480947
C	 2.1574830787	-4.673821214	 3.5211708296	 0.326
C	 2.7264123597	-5.1376051549	 4.4710337032	-0.422278
H	 0.8828295711	 1.8079298421	-0.1916826561	 0.106129
H	-0.6483124429	 1.5561813394	-1.0736681245	 0.126784
H	-0.6614795679	 1.7705318569	 0.6982022017	 0.106097
H	 1.6896993647	-0.0767874367	 1.1439690381	 0.103433
H	 0.1597135654	-0.1138495785	 2.0263708573	 0.103139
H	-0.3208583822	-2.4013897748	 1.0763349193	 0.132775
H	 1.19098432	-2.3640761343	 0.203488166	 0.133141
H	 0.4335681256	-4.4911834162	 2.3215445459	 0.153212
H	 1.9344974733	-4.4651109283	 1.4350918414	 0.152889
H	 3.2310099902	-5.5397617581	 5.3142295005	 0.199251
10.9651	39.5557	80.0374	85.4936	117.2612	165.0522	229.7259	281.6701	311.4322	319.6757	395.3319	461.9468	489.5069	625.2754	646.6031	698.7101	746.4017	859.0682	889.3296	956.7071	995.4324	1048.8102	1073.7764	1100.1514	1165.0884	1176.986	1206.1901	1231.0175	1244.693	1302.152	1314.6706	1346.975	1423.7739	1436.8752	1459.2813	1482.8401	1484.7546	1505.1563	1526.692	1821.5763	2250.7258	2968.4851	2983.9078	3008.2938	3013.4874	3015.9814	3031.5587	3040.1154	3065.1269	3114.5555	3507.6495
COCCC(=O)CC#C	COCCC(=O)CC#C	
InChI=1S/C7H10O2/c1-3-4-7(8)5-6-9-2/h1H,4-6H2,2H3	InChI=1S/C7H10O2/c1-3-4-7(8)5-6-9-2/h1H,4-6H2,2H3
