18
gdb 85401	1.86943	1.67676	0.91574	3.6656	76.13	-0.2205	-0.01	0.2106	1248.5194	0.147873	-439.140703	-439.13192	-439.130975	-439.174118	33.213	
C	 0.0329344598	 1.5118504844	 0.0699742515	-0.488045
C	-0.0665774717	 0.0168487547	 0.004984042	 0.394033
C	-1.2018083015	-0.6820460058	 0.1184536936	-0.255298
C	-1.2055843748	-2.188371896	 0.111199593	 0.087841
O	-2.4279695072	-2.7291105449	-0.3772419771	-0.431789
C	-0.0015870195	-2.7224742189	-0.6829756541	-0.34557
C	 1.3089958498	-1.9921660904	-0.4224828327	 0.387552
O	 2.4028364944	-2.5107209986	-0.4914827896	-0.356426
N	 1.161114954	-0.6429152377	-0.1702066778	-0.389878
H	 0.6771051201	 1.8278917413	 0.9002160153	 0.135638
H	 0.4684948534	 1.9186105073	-0.8506542772	 0.136975
H	-0.9515136934	 1.9588005867	 0.2155845308	 0.141352
H	-2.1448702782	-0.1724959674	 0.2764812942	 0.095312
H	-1.1497047864	-2.562090847	 1.1438387781	 0.107195
H	-2.5807894103	-2.3494292083	-1.2502890531	 0.274255
H	 0.1557104025	-3.7885400135	-0.5160090575	 0.137525
H	-0.2140372292	-2.5871271212	-1.7540848343	 0.119296
H	 2.023268718	-0.1262688847	-0.074981815	 0.250035
105.5254	117.0937	156.5463	200.6762	284.8393	305.9311	350.3271	422.881	449.0936	500.4684	529.2362	550.8304	588.3873	607.9511	676.8221	795.0167	874.1891	916.2332	967.3644	1018.6612	1031.8525	1067.6261	1072.4076	1127.9737	1161.0796	1199.3924	1245.899	1286.2828	1329.6462	1344.1169	1359.6717	1414.3336	1422.618	1456.9552	1463.1351	1477.1635	1496.2114	1735.7713	1808.1863	2998.0559	3015.3408	3023.8593	3073.3171	3131.8592	3139.755	3201.4053	3615.8915	3790.8776
CC1=CC(O)CC(=O)N1	CC1=C[C@@H](O)CC(=O)N1	
InChI=1S/C6H9NO2/c1-4-2-5(8)3-6(9)7-4/h2,5,8H,3H2,1H3,(H,7,9)	InChI=1S/C6H9NO2/c1-4-2-5(8)3-6(9)7-4/h2,5,8H,3H2,1H3,(H,7,9)/t5-/m1/s1
