22
gdb 59486	2.35295	1.10462	0.82701	3.8824	86.49	-0.2868	0.0353	0.3221	1450.2348	0.193232	-367.226719	-367.216623	-367.215678	-367.262047	37.314	
C	 0.3367669729	 0.7667320498	 1.7347036149	-0.381384
C	-0.223564704	-0.6624332604	 1.6693274189	 0.005234
C	-0.6137174464	-1.1678695598	 3.0665141799	-0.399938
C	-1.4047664839	-0.7220008092	 0.7133744295	 0.043886
C	-1.2086733917	-0.751426519	-0.7834793151	-0.33256
C	-1.8049642819	-1.9466881625	-0.0800071618	-0.018862
C	-1.0340970365	-3.2591756917	-0.0440234832	-0.365855
C	-1.4813117813	-4.153954764	 1.0258838182	 0.278072
N	-1.8481071169	-4.8529013059	 1.8702272939	-0.319113
H	 1.2032677855	 0.8183906326	 2.4018102491	 0.111766
H	 0.6457947773	 1.1200105529	 0.7460407473	 0.112973
H	-0.4181133421	 1.4638627879	 2.1171014246	 0.113566
H	 0.57536496	-1.3091997978	 1.2814184885	 0.064615
H	-0.9840013733	-2.1963264712	 3.0375023353	 0.141114
H	 0.2424672512	-1.1336213145	 3.7481085413	 0.110774
H	-1.4037652885	-0.5408874598	 3.4968740034	 0.112343
H	-2.2500791153	-0.1276053688	 1.0560617952	 0.086552
H	-1.8464123884	-0.1495775669	-1.4212169154	 0.11718
H	-0.1884725564	-0.8482768774	-1.1451783797	 0.111567
H	-2.8737971876	-2.0924966084	-0.2050513167	 0.10363
H	-1.1525129564	-3.7860960855	-0.9987484107	 0.153388
H	 0.0393528438	-3.0838986303	 0.0789363029	 0.15105
53.9725	76.6906	139.3565	166.6217	230.0074	234.714	256.8555	333.9147	336.8598	367.035	394.7362	467.5583	510.8803	561.9023	757.314	804.8037	855.6622	886.0546	910.1701	931.5145	948.4219	965.2169	1004.0904	1016.182	1037.6331	1073.9781	1134.8956	1146.8183	1154.527	1188.4412	1208.7372	1249.6215	1252.482	1309.8025	1324.9046	1339.6935	1400.7808	1402.4318	1423.7143	1436.0848	1464.8479	1488.1551	1492.3695	1496.8326	1505.5475	1512.6186	2358.7748	3005.6416	3026.8088	3031.3922	3041.094	3084.6212	3091.0906	3096.9637	3104.9825	3117.2194	3119.9833	3123.6079	3152.3558	3208.9503
CC(C)C1CC1CC#N	CC(C)[C@H]1C[C@H]1CC#N	
InChI=1S/C8H13N/c1-6(2)8-5-7(8)3-4-9/h6-8H,3,5H2,1-2H3	InChI=1S/C8H13N/c1-6(2)8-5-7(8)3-4-9/h6-8H,3,5H2,1-2H3/t7-,8-/m1/s1
