12
gdb 21127	1.83185	1.55005	0.85152	3.165	60.9	-0.2599	-0.0361	0.2238	1236.9877	0.078033	-410.89334	-410.882274	-410.88133	-410.934945	30.441	
C	 0.1066587355	 1.3562976838	 0.1385835107	-0.328656
N	 0.6530766371	 0.031115336	 0.1282827314	-0.273421
C	 0.5039139191	-1.0680857295	-0.3008582235	 0.541795
N	 0.4038853414	-2.2788844302	-0.5745205071	-0.374071
C	 0.7971825372	-2.8228380892	-1.799792446	 0.122934
O	 1.201327975	-2.2114966786	-2.7582688364	-0.271112
N	 1.563123793	 0.7099825505	-4.3664535109	 0.013516
N	 1.1403011904	 0.8780497148	-3.3666867776	-0.012839
H	 0.5869013435	 1.9406983274	 0.9260248016	 0.154891
H	 0.2945681206	 1.8400090459	-0.8240846853	 0.170454
H	-0.9720629087	 1.3329031712	 0.3232364697	 0.1536
H	 0.6823871661	-3.9182062821	-1.7955224165	 0.102911
11.644	38.4051	48.5798	56.394	64.6268	78.0392	96.0446	120.6629	161.3335	234.3805	526.6457	623.7799	769.6019	813.4238	1043.6444	1085.4628	1133.9816	1157.5712	1419.5202	1453.4732	1485.2799	1498.6346	1518.0604	1767.297	2314.7529	2434.3244	3015.8314	3040.3322	3112.5521	3128.2187	11.6492	38.4029	48.5794	56.3939	64.6232	78.0392	96.0447	120.6632	161.3333	234.3809	526.6458	623.7802	769.6019	813.4238	1043.6443	1085.4628	1133.982	1157.5716	1419.5197	1453.4737	1485.2805	1498.6352	1518.0605	1767.2975	2314.7532	2434.3245	3015.8315	3040.3322	3112.5521	3128.2187
CN=C1N=CON=N1	C[N][C][N]C=O.N#N	
InChI=1S/C3H4N4O/c1-4-3-5-2-8-7-6-3/h2H,1H3	InChI=1S/C3H4N2O.N2/c1-4-2-5-3-6;1-2/h3H,1H3;
