18
gdb 22529	1.93715	1.5956	1.11858	0.6405	82.96	-0.2376	-0.0327	0.2049	1163.2653	0.144487	-401.860136	-401.85057	-401.849626	-401.894343	35.984	
C	 0.3290418991	 1.3359581281	-0.7382880241	-0.461906
C	 0.0391987788	-0.0003814623	-0.0723640855	 0.285188
C	 1.1980972827	-0.8902503222	 0.3009253285	-0.32235
C	 0.4154614581	-0.1870610492	 1.3806720373	-0.278925
C	-1.2299154079	-0.6567583253	-0.5459958832	 0.103889
N	-2.4221987343	-0.2717191746	-0.2395640095	-0.173199
O	-2.4074548723	 0.821843311	 0.6208942534	-0.381848
C	-1.1489324231	-1.7696743611	-1.4350448961	 0.301703
C	-1.0126261009	-2.7052993794	-2.1807397482	-0.427005
H	 1.2547617414	 1.7642790643	-0.3409618829	 0.11312
H	 0.4512354047	 1.2179822971	-1.8204533128	 0.122476
H	-0.4823834806	 2.0453908979	-0.5574184165	 0.137069
H	 1.0717983421	-1.9620281718	 0.1950740282	 0.122932
H	 2.1955639505	-0.5335985418	 0.0670105594	 0.11062
H	 0.8679807904	 0.6580688842	 1.8885898349	 0.112753
H	-0.240252089	-0.7824258243	 2.0053195598	 0.121627
H	-3.3476129714	 0.9854850626	 0.7552116699	 0.312912
H	-0.9127493183	-3.5299082832	-2.8424783426	 0.200943
50.7829	142.6491	168.3187	191.9021	227.3813	259.9276	310.4517	329.3154	404.3403	417.0932	486.1244	535.3145	569.8323	610.0373	644.94	654.7681	696.9627	782.2969	863.9702	886.2008	947.5868	955.5037	1014.2113	1044.2647	1073.5793	1081.6034	1126.697	1174.4729	1188.743	1305.7272	1347.4897	1394.2918	1409.431	1469.2209	1489.2995	1502.2089	1508.2581	1656.9493	2223.7876	3033.9182	3098.4644	3120.7578	3132.7073	3137.1985	3213.0615	3227.4127	3502.0109	3811.0468
CC1(CC1)C(=NO)C#C	CC1(CC1)C(=NO)C#C	
InChI=1S/C7H9NO/c1-3-6(8-9)7(2)4-5-7/h1,9H,4-5H2,2H3	InChI=1S/C7H9NO/c1-3-6(8-9)7(2)4-5-7/h1,9H,4-5H2,2H3
