14
gdb 24941	4.97033	1.29952	1.03677	2.483	69.03	-0.197	0.0014	0.1985	1056.9541	0.102712	-436.740991	-436.733957	-436.733012	-436.772855	26.616	
O	 0.0579468632	 0.0121676459	 0.0030355152	-0.35017
C	-0.0140948024	 1.2141221821	 0.0102169216	 0.414567
C	-1.3025472071	 2.0951310052	 0.0327704164	-0.498987
C	-0.7473610334	 3.4898476814	 0.0318917317	 0.1925
C	 0.6004793579	 3.3868029286	 0.0122942568	 0.442883
N	 1.081151274	 2.088661763	-0.0010049852	-0.452777
O	 1.2438164068	 4.5538313682	 0.0087790737	-0.206754
C	 0.222666753	 5.5029200941	 0.0281003835	-0.033944
C	-0.9999141256	 4.9009709813	 0.0421607575	-0.339522
H	-1.9124740662	 1.8375661991	-0.8400158543	 0.149999
H	-1.8876492574	 1.8287502913	 0.919790705	 0.149985
H	 2.0383514642	 1.7800220078	-0.016197051	 0.274253
H	 0.5573997687	 6.5248257418	 0.0285749752	 0.13916
H	-1.9484464258	 5.4150662002	 0.0580172039	 0.118808
70.94	125.045	271.0788	345.8742	381.9	539.6958	545.8288	560.273	596.6212	640.1176	718.1052	718.2185	822.7662	827.7006	831.5608	926.2176	957.6014	1015.2441	1088.0802	1138.1645	1154.3558	1205.9171	1238.2142	1266.8242	1292.0018	1416.5862	1450.985	1512.764	1552.1561	1655.0455	1849.8262	3049.4584	3083.0654	3255.4294	3305.8266	3675.7642
O=C1CC2=C(N1)OC=C2	O=C1Cc2c(N1)occ2	
InChI=1S/C6H5NO2/c8-5-3-4-1-2-9-6(4)7-5/h1-2H,3H2,(H,7,8)	InChI=1S/C6H5NO2/c8-5-3-4-1-2-9-6(4)7-5/h1-2H,3H2,(H,7,8)
