15
gdb 77238	3.86753	0.99629	0.84938	1.716	62.76	-0.253	-0.048	0.2051	1281.0194	0.108373	-494.878053	-494.868794	-494.86785	-494.91369	31.147	
O	 0.0467500799	 0.7704060755	-0.6586571865	-0.412522
C	-0.3016997341	-0.4702686141	-0.117769511	 0.041093
C	-0.0117494756	-0.7020267937	 1.3903957236	 0.022662
O	-1.4153751848	-0.8422191884	 1.6855676269	-0.308012
C	-1.7907267228	-0.5511673328	 0.3205676191	 0.010276
C	-2.5564632568	 0.7577479611	 0.2042753853	 0.156657
O	-3.3175409213	 0.9968744153	-0.6935324184	-0.233236
C	 0.7865303605	-1.9335537758	 1.7556396389	 0.116456
O	 1.8464407235	-2.1943007884	 1.2466208453	-0.240295
H	 0.927939046	 0.7100220608	-1.040392072	 0.303659
H	 0.0213630133	-1.3036780213	-0.7492907936	 0.108937
H	 0.4314164512	 0.1808957406	 1.8730872875	 0.121991
H	-2.3762957781	-1.3568605832	-0.1333682008	 0.116136
H	-2.3572725688	 1.4712393544	 1.0328993041	 0.093962
H	 0.3092734577	-2.58469109	 2.5203491416	 0.102236
40.2036	67.5912	75.3446	154.7136	199.217	237.2087	264.9655	329.1785	397.4184	477.1894	543.6117	588.7258	787.0217	834.0412	861.6818	981.0622	1006.0861	1046.8074	1059.0766	1085.1392	1090.6962	1151.211	1187.8895	1228.8714	1267.3374	1276.8359	1312.0156	1328.475	1394.1974	1405.4777	1445.9969	1825.3762	1839.3549	2902.6494	2904.9952	3012.2485	3057.7286	3072.1808	3830.5177
OC1C(OC1C=O)C=O	O[C@H]1[C@@H](O[C@H]1C=O)C=O	
InChI=1S/C5H6O4/c6-1-3-5(8)4(2-7)9-3/h1-5,8H	InChI=1S/C5H6O4/c6-1-3-5(8)4(2-7)9-3/h1-5,8H/t3-,4-/m0/s1
