20
gdb 110600	3.89963	1.0261	0.9832	1.5201	79.03	-0.2171	0.063	0.2802	1293.211	0.17012	-403.043499	-403.034736	-403.033792	-403.076962	33.904	
C	-0.0194465988	 1.5507025742	-0.0778522345	-0.497604
C	 0.0158003356	 0.0533219733	 0.0058742544	 0.35218
C	-0.8873355451	-0.7876233906	 0.8557918074	-0.35889
C	 0.6163615065	-0.8793471437	 1.0316791657	-0.064083
N	 1.4569003183	-1.6215270322	 0.0094265922	-0.167108
C	 0.6278159283	-2.2757051323	-1.027988446	-0.018585
C	-0.534917513	-3.2509964628	-0.8253426106	-0.115652
O	-0.2557804628	-4.4939393742	-1.4536502458	-0.424892
C	 0.7545347614	-0.7949108434	-1.0507847839	-0.130028
H	 0.9653875401	 1.9603567487	-0.3301148821	 0.123825
H	-0.7269858996	 1.8905790741	-0.8443862787	 0.12182
H	-0.3302508114	 1.9879531738	 0.8761064804	 0.120268
H	-1.3502403525	-0.2335261813	 1.6692697691	 0.112923
H	-1.5237799811	-1.566680507	 0.4610680307	 0.117697
H	 1.0933278889	-0.6735614643	 1.9817861969	 0.101379
H	 1.3028214266	-2.7149936854	-1.7649234177	 0.106855
H	-0.7429595994	-3.3956877255	 0.2412621848	 0.112539
H	-1.4475285286	-2.8814048597	-1.303851349	 0.126596
H	 0.4685393059	-4.9082191141	-0.9732440601	 0.286159
H	 1.3389678206	-0.3066079675	-1.827405913	 0.0946
51.8808	163.9491	191.5142	205.6447	280.7654	288.2264	340.859	373.9794	422.5672	487.2292	591.7985	634.4102	676.2476	761.2645	796.6026	819.2403	871.6912	923.6424	959.7884	970.6525	998.6194	1016.3466	1030.9367	1059.1913	1073.8431	1077.7739	1094.8747	1116.8081	1152.7721	1221.909	1236.307	1256.4404	1265.6001	1337.7812	1353.5554	1406.4332	1412.7987	1421.1371	1438.52	1485.061	1497.4388	1500.9948	1513.5065	3019.8271	3023.2273	3076.861	3081.5877	3092.5685	3101.0002	3130.6093	3131.9842	3187.771	3234.3829	3813.6308
CC12CC1N1C(CO)C21	C[C@]12C[C@H]1N1[C@@H](CO)[C@@H]21	
InChI=1S/C7H11NO/c1-7-2-5(7)8-4(3-9)6(7)8/h4-6,9H,2-3H2,1H3	InChI=1S/C7H11NO/c1-7-2-5(7)8-4(3-9)6(7)8/h4-6,9H,2-3H2,1H3/t4-,5+,6-,7-,8?/m0/s1
