21
gdb 40093	3.21819	1.40947	1.21943	1.3672	81.41	-0.2407	0.0785	0.3192	1102.9418	0.184511	-387.073557	-387.065854	-387.06491	-387.10595	31.088	
C	-0.4807371764	 1.3245107113	 0.1530095259	-0.324498
C	 0.9903148387	 0.9968116756	 0.0417207401	-0.330697
C	-0.0294445676	-0.1033053614	 0.0340364011	 0.382392
C	-0.1755818538	-1.216549437	 1.0824109299	-0.338113
C	-0.4612248656	-2.2281818115	-0.0704737749	 0.122333
O	-1.7856149961	-2.7177652133	-0.1549852444	-0.257525
C	-2.5924711532	-1.7096639328	-0.7565871879	-0.086798
C	-1.687359654	-1.0205560578	-1.7909094818	-0.230978
C	-0.3063283459	-1.0806130489	-1.1251697096	-0.132474
H	-0.8612598356	 1.659309995	 1.113132541	 0.111451
H	-0.9635678289	 1.7885718082	-0.7015209099	 0.110406
H	 1.495321695	 1.2335718514	-0.8900663465	 0.109497
H	 1.6100771439	 1.1129739386	 0.9256340213	 0.110539
H	 0.7324019156	-1.4321869331	 1.653371446	 0.098639
H	-1.0115651587	-1.1095647694	 1.7801014265	 0.104727
H	 0.2139416831	-3.0842313879	-0.1251479338	 0.077653
H	-3.4690990829	-2.1990571079	-1.1890498679	 0.106717
H	-2.9414086956	-0.9862344098	-0.0032517623	 0.094357
H	-1.6766206311	-1.593986536	-2.7232251185	 0.104435
H	-2.015761002	-0.0032188493	-2.0210405621	 0.099765
H	 0.508968511	-1.1787109041	-1.8451600422	 0.068171
53.4527	184.9607	230.5975	259.9475	313.778	394.0265	445.774	521.6422	634.9386	685.0134	763.9985	781.3801	846.7598	853.6657	864.636	893.6358	904.4348	930.2456	944.0353	975.8737	992.0005	1026.4762	1045.2355	1050.6907	1074.8117	1077.8691	1128.7141	1144.6272	1187.5111	1188.4818	1218.7025	1229.1629	1242.8246	1263.1974	1273.8003	1290.1133	1329.8521	1348.5007	1380.96	1393.6743	1463.0319	1471.8155	1479.3072	1501.479	1520.3151	2982.9316	3045.9975	3050.4957	3078.9958	3088.5118	3091.7723	3101.4699	3103.598	3116.8254	3121.2074	3193.9697	3209.2893
C1CC11CC2OCCC12	C1CC21C[C@H]1OCC[C@@H]21	
InChI=1S/C8H12O/c1-4-9-7-5-8(2-3-8)6(1)7/h6-7H,1-5H2	InChI=1S/C8H12O/c1-4-9-7-5-8(2-3-8)6(1)7/h6-7H,1-5H2/t6-,7-/m1/s1
