17
gdb 24579	3.60755	1.64611	1.14615	3.5856	79.02	-0.2119	0.0127	0.2246	1025.8002	0.140261	-380.928108	-380.921272	-380.920328	-380.959538	26.894	
C	-0.0006725334	 1.450546496	-0.1377123746	-0.208702
C	 1.3566535613	 2.037851561	 0.1149292682	-0.066835
C	 2.44278161	 1.3201437958	 0.3875683185	-0.051971
C	 2.4557228744	-0.1795838744	 0.4792766094	-0.377927
C	 1.1091894074	-0.7764700056	 0.2293856551	 0.361057
N	 0.8021457398	-2.0567430179	 0.2402024013	-0.336307
C	-0.5419732137	-2.1117724017	-0.0413263834	-0.103515
C	-1.0486593901	-0.8529569425	-0.2232645254	-0.136551
N	 0.0197384918	 0.0014757274	-0.047548694	-0.040088
H	-0.7264010633	 1.8511271684	 0.5845371877	 0.130539
H	-0.3629626821	 1.7494450881	-1.131789832	 0.130537
H	 1.4074294626	 3.1211037907	 0.0614258409	 0.100116
H	 3.3898092261	 1.8240859138	 0.5582676922	 0.098983
H	 3.1816534137	-0.5947535062	-0.2334875895	 0.138936
H	 2.8214622748	-0.4939062777	 1.4666010564	 0.138935
H	-1.0682342319	-3.0528816238	-0.0970616312	 0.103746
H	-2.0356058073	-0.4863651413	-0.4540920698	 0.119044
81.2113	174.1681	258.6826	390.5514	394.5686	494.1807	596.5668	634.0177	668.1535	694.5492	721.8881	725.4196	851.6472	895.7151	930.4564	941.0819	969.0339	990.5446	1007.4409	1026.4833	1100.7449	1162.8046	1184.7569	1197.0449	1211.2547	1248.2376	1292.6199	1333.9341	1345.4173	1406.0571	1427.091	1464.1644	1480.5119	1504.1019	1531.1318	1572.1264	1740.5959	2997.6822	3013.8323	3015.8167	3028.7452	3162.6683	3184.8644	3243.2514	3271.7945
C1C=CCC2=NC=CN12	C1C=CCc2nccn12	
InChI=1S/C7H8N2/c1-2-5-9-6-4-8-7(9)3-1/h1-2,4,6H,3,5H2	InChI=1S/C7H8N2/c1-2-5-9-6-4-8-7(9)3-1/h1-2,4,6H,3,5H2
