21
gdb 109698	2.86349	1.07756	0.96222	0.846	79.22	-0.2216	0.0673	0.2889	1326.8573	0.180997	-424.184628	-424.174772	-424.173827	-424.219848	35.676	
C	-0.0957976343	 0.914098013	-2.1047793607	-0.405501
C	 0.0047942466	-0.2140331818	-1.1000875618	-0.09738
C	 1.3034942239	-0.53408446	-0.3534039485	-0.151009
C	 2.5687738331	 0.2618224678	-0.5738551465	-0.082707
O	 3.145885996	 0.0610996653	-1.8602023944	-0.414246
C	 0.1165249491	 0.0350984563	 0.3685004071	 0.429668
C	-0.0314087568	 1.3273936243	 1.1691589253	-0.359445
C	-0.8046024774	 0.4310961185	 2.1604035299	-0.074293
O	-0.6131529317	-0.7348101699	 1.3268366659	-0.30754
H	 0.3935573672	 1.8250464551	-1.7480384854	 0.115765
H	 0.3800149238	 0.6420236967	-3.0516154951	 0.131109
H	-1.1438566995	 1.1616909243	-2.3050916464	 0.113734
H	-0.5815337012	-1.0959028817	-1.3480860582	 0.093481
H	 1.4630542573	-1.5944664964	-0.1636758152	 0.08785
H	 2.3689812187	 1.3360765716	-0.5147304838	 0.105395
H	 3.293609069	 0.0295982412	 0.2228377464	 0.089797
H	 3.2813786263	-0.8852323332	-1.9725457338	 0.280868
H	 0.8944022054	 1.7597403209	 1.5535327444	 0.115431
H	-0.6209306627	 2.1102115629	 0.6875410433	 0.116453
H	-0.3423553053	 0.3051568271	 3.1461015793	 0.105939
H	-1.8667165576	 0.6684420083	 2.2886162184	 0.106629
66.0542	79.678	118.3038	157.1116	171.8687	234.5752	243.992	276.4305	338.3978	419.6342	466.0398	545.3467	639.4154	777.6689	795.6602	841.9516	877.6366	913.7251	966.7008	983.7875	1005.2608	1011.6291	1025.4745	1059.4555	1098.8848	1125.031	1134.4942	1145.3661	1164.4062	1187.1089	1215.1133	1234.238	1245.5674	1311.7833	1347.4226	1361.3279	1378.1424	1416.2004	1425.7274	1460.0362	1490.3929	1493.2505	1499.2371	1510.8919	1533.1152	2975.3101	3025.2733	3035.9318	3067.2516	3071.6074	3075.3285	3099.5	3108.2294	3119.1638	3123.8653	3138.797	3814.7177
CC1C(CO)C11CCO1	C[C@H]1[C@@H](CO)[C@]21CCO2	
InChI=1S/C7H12O2/c1-5-6(4-8)7(5)2-3-9-7/h5-6,8H,2-4H2,1H3	InChI=1S/C7H12O2/c1-5-6(4-8)7(5)2-3-9-7/h5-6,8H,2-4H2,1H3/t5-,6+,7+/m0/s1
