21
gdb 71884	2.73491	1.67503	1.28329	1.1693	81.9	-0.2408	0.0802	0.321	1061.0201	0.182524	-387.059394	-387.05124	-387.050295	-387.091295	33.432	
C	 0.0612153493	 1.534968448	 0.0233172252	-0.495673
C	-0.0197137492	 0.0253595344	 0.0010299985	 0.368225
C	 0.4574032371	-0.7209498629	-1.2757769566	-0.274061
C	-0.6960869102	-1.7427995506	-1.1289085751	-0.032692
C	-0.4386961681	-2.8072059953	-0.0303338828	-0.295585
C	-0.7713070749	-1.7526006509	 1.0551685005	 0.421723
O	-1.5500225858	-2.1424331389	 2.1504253545	-0.486108
C	 0.379356708	-0.7427090673	 1.2947403609	-0.346386
C	-1.3579985676	-0.8113224262	-0.0491876466	-0.14444
H	 1.1051631711	 1.8713505119	 0.0634596789	 0.113838
H	-0.3929925684	 1.972490197	-0.8730168643	 0.111372
H	-0.4539305078	 1.9497329667	 0.8969748131	 0.113899
H	 0.3084806604	-0.0937388644	-2.1609487183	 0.094267
H	 1.4838894769	-1.1049127067	-1.2908595652	 0.084842
H	-1.1927901907	-2.0777481487	-2.0391891188	 0.065751
H	-1.2261953104	-3.566796643	-0.0403926013	 0.102847
H	 0.5407649276	-3.2982124892	-0.0028291059	 0.0813
H	-1.0077652985	-2.6973258808	 2.7229933905	 0.273545
H	 1.4037342076	-1.124376036	 1.3730784622	 0.080963
H	 0.1478863332	-0.1414995794	 2.1800829787	 0.098205
H	-2.3690056697	-0.4116223277	-0.063325978	 0.064167
176.0156	203.2813	220.0995	227.7203	287.5078	356.1025	381.5193	415.463	420.432	552.7756	577.5514	683.1046	736.6917	816.7784	841.6014	849.5463	894.8651	905.1617	932.2299	938.2968	967.8707	980.3106	1025.9319	1030.4693	1051.9048	1105.6653	1127.627	1134.7163	1167.911	1185.1709	1210.9205	1230.6209	1235.9919	1250.4185	1266.8979	1290.0399	1318.9882	1342.0622	1366.3148	1412.4577	1472.9577	1476.2609	1491.4408	1491.5783	1496.5244	3014.8794	3026.1924	3028.724	3033.9857	3077.1831	3079.5619	3087.2877	3090.6997	3093.3648	3105.3952	3147.3483	3786.5218
CC12CC3CC(O)(C1)C23	C[C@@]12C[C@H]3C[C@@](O)(C1)[C@@H]23	
InChI=1S/C8H12O/c1-7-2-5-3-8(9,4-7)6(5)7/h5-6,9H,2-4H2,1H3	InChI=1S/C8H12O/c1-7-2-5-3-8(9,4-7)6(5)7/h5-6,9H,2-4H2,1H3/t5-,6+,7+,8+/m0/s1
