18
gdb 125698	5.65809	0.94456	0.86922	2.9062	81.5	-0.2343	0.0003	0.2346	1371.3704	0.147979	-401.947126	-401.938824	-401.93788	-401.980587	30.843	
C	-0.1644285715	 1.4941220437	-0.0540655652	-0.493516
C	-0.0062176982	 0.0102127277	 0.0395685253	 0.398768
N	 0.216827667	-0.6952113599	-1.0444555997	-0.207091
O	 0.3132043875	-2.0243902647	-0.6153797461	-0.231709
C	 0.1444229431	-2.0761198056	 0.7197113764	 0.48142
C	-0.0626663988	-0.8181810082	 1.1981386126	-0.454423
C	 0.2115905735	-3.3912652968	 1.3631893323	-0.115572
C	-0.3105557273	-4.6253728382	 0.6475644702	-0.262237
C	 1.1651942887	-4.4537607945	 0.8437438084	-0.262186
H	 0.5943266219	 2.0071468406	 0.5459814037	 0.136145
H	-0.0663181339	 1.816871477	-1.0922510698	 0.148848
H	-1.1448095364	 1.8074557906	 0.3195970168	 0.136128
H	-0.2305147692	-0.521727163	 2.2203097232	 0.10969
H	 0.0641360858	-3.3493034712	 2.4362682249	 0.098362
H	-0.835172407	-5.3604454622	 1.2471013182	 0.119664
H	-0.707321139	-4.478871696	-0.3499849721	 0.139047
H	 1.7620747055	-4.1916269662	-0.0217113784	 0.138985
H	 1.6693349685	-5.0691510231	 1.5800415293	 0.119676
55.7997	127.5597	140.9794	158.8553	272.7955	298.0535	421.8722	437.1432	597.0632	661.7657	714.4374	720.2747	793.7104	797.1308	825.68	901.4518	911.3398	937.771	985.1213	1018.8168	1046.4222	1063.3531	1066.6863	1073.7411	1089.4433	1125.9717	1151.6603	1205.5962	1220.7275	1313.3495	1361.8457	1406.7497	1452.6106	1465.0394	1480.2981	1482.2106	1499.192	1543.2902	1645.9302	3041.7084	3097.4025	3139.2458	3141.9727	3145.0036	3177.0063	3227.7764	3242.6045	3270.913
CC1=NOC(=C1)C1CC1	Cc1noc(c1)C1CC1	
InChI=1S/C7H9NO/c1-5-4-7(9-8-5)6-2-3-6/h4,6H,2-3H2,1H3	InChI=1S/C7H9NO/c1-5-4-7(9-8-5)6-2-3-6/h4,6H,2-3H2,1H3
