17
gdb 31886	4.41061	0.92745	0.8147	3.0569	88.14	-0.2106	-0.0075	0.2031	1417.124	0.136269	-380.893139	-380.884301	-380.883357	-380.927806	32.36	
C	-0.0334188663	 1.4313200542	-0.5137404953	-0.37208
C	-0.0775885605	 0.0623117775	 0.1899920782	-0.300173
C	-1.4499542204	-0.5291832978	 0.2337833441	 0.347658
N	-2.3108534941	-0.4118316307	 1.2294434886	-0.288669
C	-3.4437095258	-1.062366747	 0.8280604888	-0.19015
C	-3.2866670568	-1.5935136848	-0.4367391078	 0.16416
N	-1.9944263305	-1.234626531	-0.7971626827	-0.354689
C	-4.1362013105	-2.3408277587	-1.2707406889	 0.247031
C	-4.8598866441	-2.9808796045	-1.9917822456	-0.444916
H	 0.9828780988	 1.8362969328	-0.5058344937	 0.118749
H	-0.3586979541	 1.3545045704	-1.5562604232	 0.113937
H	-0.6921132809	 2.1426390712	-0.0081791451	 0.139828
H	 0.6110349247	-0.6324404658	-0.3064331887	 0.104135
H	 0.2613530353	 0.1678574539	 1.2237781528	 0.13763
H	-4.3186620181	-1.1288675368	 1.4560901656	 0.117117
H	-1.5512463226	-1.4747490498	-1.6686295377	 0.26864
H	-5.5051519639	-3.5441385132	-2.6190430494	 0.191791
22.4929	108.525	138.6449	187.7338	216.5919	342.7307	374.0074	471.2894	517.7916	534.9034	544.9421	560.3781	676.7773	678.7369	685.4815	753.2852	786.7237	863.1447	959.5425	1012.0223	1039.8371	1069.2228	1082.1326	1186.1426	1211.2369	1269.9788	1306.9561	1344.9419	1367.1758	1406.6737	1452.9982	1477.8774	1495.1507	1499.5744	1518.3947	1597.2274	2226.9081	3034.7896	3039.3174	3095.5261	3113.6695	3124.1253	3256.5971	3502.887	3660.1584
CCC1=NC=C(N1)C#C	CCc1ncc([nH]1)C#C	
InChI=1S/C7H8N2/c1-3-6-5-8-7(4-2)9-6/h1,5H,4H2,2H3,(H,8,9)	InChI=1S/C7H8N2/c1-3-6-5-8-7(4-2)9-6/h1,5H,4H2,2H3,(H,8,9)
