18
gdb 108967	4.08837	1.23277	1.10498	2.9969	76.6	-0.2167	0.0112	0.2279	1119.5694	0.148868	-401.890769	-401.883216	-401.882272	-401.92301	29.491	
O	 0.0049520905	 1.3934254062	 0.1487133326	-0.411203
C	-0.0140497635	-0.0109351282	-0.0246793792	-0.188523
C	-1.4245882168	-0.4852756201	-0.124685195	 0.300244
C	-2.5511530704	 0.2369962401	-0.0447166031	-0.174685
C	-3.7234228079	-0.6722831437	-0.0843129909	-0.056596
C	-3.2816324623	-2.0009107256	-0.5517184611	-0.045654
C	-1.7933831597	-1.9516284184	-0.0940493198	-0.182668
C	-2.410231454	-2.2047934864	 1.3285410818	-0.140651
N	-3.7878944077	-1.8972718149	 0.8528102242	-0.163394
H	 0.9207036648	 1.685259157	 0.134353685	 0.290505
H	 0.5336838892	-0.3107525842	-0.9364475523	 0.096937
H	 0.4877974615	-0.5285819222	 0.8135509718	 0.096953
H	-2.6115708616	 1.307573202	 0.0890639571	 0.11324
H	-4.7235418844	-0.3099093272	-0.2869529792	 0.094617
H	-3.7418059335	-2.6232442809	-1.3130433627	 0.090241
H	-1.0636531201	-2.6666521467	-0.4731714013	 0.067811
H	-2.391584897	-3.2631227604	 1.599372149	 0.112044
H	-2.0389444172	-1.5946372062	 2.1589684732	 0.100781
72.6937	164.245	189.9931	236.7003	356.0064	404.6971	471.0311	566.4011	632.9466	671.6592	769.1566	801.2982	815.6764	847.2431	852.5922	900.7756	917.4075	981.2913	987.4857	1004.4203	1039.8834	1064.5763	1079.3876	1080.832	1155.2756	1169.5645	1192.2166	1202.1161	1211.6372	1246.1769	1261.7049	1283.4979	1290.6397	1341.0358	1365.853	1465.2823	1489.9885	1505.5094	1687.5996	2932.2661	2943.3128	3040.79	3106.3054	3116.3125	3154.876	3196.1534	3240.9468	3838.2091
OCC1=CC2C3C1CN23	OCC1=C[C@H]2[C@H]3[C@@H]1CN23	
InChI=1S/C7H9NO/c9-3-4-1-6-7-5(4)2-8(6)7/h1,5-7,9H,2-3H2	InChI=1S/C7H9NO/c9-3-4-1-6-7-5(4)2-8(6)7/h1,5-7,9H,2-3H2/t5-,6+,7-,8?/m1/s1
