25
gdb 104391	2.11922	1.36423	1.06576	1.3561	87.9	-0.2625	0.0713	0.3338	1296.6889	0.229078	-389.509859	-389.499717	-389.498772	-389.544663	39.266	
C	-0.526786601	 1.4184941346	 0.0346609747	-0.416681
C	 0.1396939236	 0.0434229216	-0.0334211535	 0.001568
C	 1.1827833121	-0.0986599068	-1.1558533375	-0.208548
C	 1.912896385	-1.3967848976	-0.7943271407	-0.212833
C	 2.0917189049	-1.2865122804	 0.7308108201	-0.240921
C	 0.8763781167	-0.4557328418	 1.2643678355	 0.332787
C	 1.3703153308	 0.6868250934	 2.166036022	-0.44081
C	-0.0838106852	-1.3517065953	 2.0565333434	-0.123112
O	 0.5689163411	-1.820464402	 3.2286943352	-0.425965
H	 0.2036262508	 2.2188818225	 0.188743053	 0.115942
H	-1.0543312116	 1.6308325629	-0.9015321965	 0.108246
H	-1.2619187671	 1.4776725816	 0.8444937698	 0.110282
H	-0.6523645543	-0.689739652	-0.2486372646	 0.061961
H	 0.728916973	-0.1097198675	-2.1520842347	 0.087464
H	 1.8816376854	 0.7487829009	-1.1274577227	 0.09116
H	 1.2803682949	-2.2567959346	-1.0482971764	 0.091299
H	 2.8608403467	-1.5288388052	-1.3241405549	 0.089424
H	 2.1651777623	-2.25536681	 1.2311446087	 0.103777
H	 3.0220937787	-0.7525155453	 0.952729698	 0.091026
H	 2.0285055608	 1.3683640801	 1.6173164111	 0.103924
H	 0.541421348	 1.2743298705	 2.5748935567	 0.103366
H	 1.9322604684	 0.2773534894	 3.0087702022	 0.13057
H	-0.9914965945	-0.7802859565	 2.3144604335	 0.080406
H	-0.396809658	-2.1963168739	 1.4211159932	 0.079562
H	-0.0435324416	-2.3833212688	 3.7103285242	 0.286107
39.574	127.3288	204.2112	217.8055	245.1172	255.104	283.8233	289.6915	308.6625	350.3741	386.106	443.8138	512.9653	550.3878	580.9024	710.1421	822.821	850.55	881.9492	914.908	941.5141	958.8236	970.6608	977.0504	1025.4479	1049.4066	1059.2093	1078.0601	1115.4374	1144.3097	1176.4466	1201.7873	1215.5144	1232.0078	1263.9836	1279.269	1288.7371	1317.895	1341.7715	1347.9093	1369.2685	1378.607	1405.6028	1413.3255	1453.6468	1487.092	1490.4988	1492.5591	1494.8438	1503.6395	1508.9494	1512.5698	1518.9974	2950.4184	2977.5788	2984.9696	3014.962	3026.4365	3028.6846	3034.0611	3042.812	3074.7688	3083.1487	3090.1859	3095.5011	3099.2844	3103.1173	3121.493	3834.9939
CC1CCCC1(C)CO	C[C@H]1CCC[C@]1(C)CO	
InChI=1S/C8H16O/c1-7-4-3-5-8(7,2)6-9/h7,9H,3-6H2,1-2H3	InChI=1S/C8H16O/c1-7-4-3-5-8(7,2)6-9/h7,9H,3-6H2,1-2H3/t7-,8+/m0/s1
