18
gdb 52816	2.96471	1.07313	0.91487	1.4437	81.47	-0.2271	0.0437	0.2709	1345.2532	0.145834	-401.86956	-401.86021	-401.859266	-401.905356	33.987	
C	-0.0032887666	 1.5119537026	-0.0666937007	-0.49993
C	 0.0176283188	 0.0582762391	-0.000717162	 0.012588
C	 0.02851453	-1.1441503608	 0.0742020801	 0.094374
C	 0.0553378207	-2.5989278194	 0.1009072742	 0.250322
O	 1.0217099395	-3.124346623	-0.8015439752	-0.471044
C	 0.2501071448	-3.3318618288	 1.4815079882	-0.263809
C	-1.0855506709	-4.0440603746	 1.2536746761	-0.042954
N	-2.105911549	-2.9705318336	 1.158991021	-0.330292
C	-1.3049187214	-3.3338781672	-0.0304659694	-0.123176
H	 1.0007361336	 1.9179388171	-0.2325738046	 0.148465
H	-0.6445036691	 1.8665618826	-0.8813087902	 0.147006
H	-0.3850639573	 1.9417315782	 0.8659443859	 0.153676
H	 0.9569148696	-2.6143904362	-1.6164872527	 0.278491
H	 1.1194049399	-3.9870478248	 1.4111515922	 0.122223
H	 0.3065422748	-2.6980128453	 2.3674958163	 0.110801
H	-1.3599951224	-5.0489843854	 1.5476906472	 0.093905
H	-3.0149622803	-3.4205201547	 1.0510013268	 0.2291
H	-1.7639796647	-3.6572103258	-0.9571757333	 0.090252
14.5268	82.3276	107.5055	179.0038	267.4134	273.0963	328.7008	361.0414	410.3421	450.1878	503.7235	543.6816	606.2846	760.4786	821.5512	837.0458	895.2218	927.4752	968.288	976.739	979.7523	1019.58	1051.4487	1054.3509	1074.411	1108.5363	1135.6178	1158.9569	1219.3201	1246.2289	1294.6777	1317.7932	1357.1141	1389.5225	1413.7102	1462.5508	1477.0138	1478.0934	2364.6497	3026.9776	3082.17	3087.1719	3089.471	3150.8061	3183.048	3200.2183	3468.7303	3806.9917
CC#CC1(O)CC2NC12	CC#C[C@@]1(O)C[C@H]2N[C@@H]12	
InChI=1S/C7H9NO/c1-2-3-7(9)4-5-6(7)8-5/h5-6,8-9H,4H2,1H3	InChI=1S/C7H9NO/c1-2-3-7(9)4-5-6(7)8-5/h5-6,8-9H,4H2,1H3/t5-,6-,7-/m1/s1
