22
gdb 88874	3.58389	0.97997	0.85144	0.724	82.47	-0.2245	0.0751	0.2996	1418.089	0.19514	-404.316449	-404.307256	-404.306312	-404.351769	33.678	
C	-0.4723698052	 1.3196415251	-0.0152226342	-0.314021
N	 0.024487466	-0.0467755089	 0.0361428573	-0.086647
C	 1.4086420196	-0.2808808303	-0.354494308	-0.26375
C	 0.9836098564	-0.4461830516	 1.0677565991	 0.002452
C	 1.4947405726	 0.4708757551	 2.1560222995	 0.00699
C	 0.576140322	 0.5707647243	 3.399701665	-0.262584
C	 1.5665220237	 0.686877722	 4.5868740365	-0.07368
O	 2.8821325305	 0.65155972	 4.0381548767	-0.247173
C	 2.8084269822	-0.014348411	 2.7920855304	-0.099841
H	 0.2825886626	 2.0950174262	 0.189757803	 0.100915
H	-0.8742532915	 1.5048358866	-1.0165970165	 0.124483
H	-1.2904112387	 1.4371683842	 0.7030016262	 0.122894
H	 1.5922969035	-1.1422038657	-0.9919851302	 0.113379
H	 2.0253389956	 0.5894258902	-0.5821673953	 0.102653
H	 0.8052789804	-1.4630639628	 1.4219076196	 0.086269
H	 1.6731815183	 1.47328849	 1.7563649899	 0.077895
H	-0.1045289131	 1.4228307278	 3.3392203216	 0.109461
H	-0.0381201436	-0.3305272535	 3.4915887178	 0.107432
H	 1.4670568963	 1.6240574169	 5.1427962926	 0.107085
H	 1.4269661773	-0.1425117682	 5.2958665603	 0.092925
H	 2.789778643	-1.1111133861	 2.9239672086	 0.082468
H	 3.6997670722	 0.2460841295	 2.21536307	 0.110395
30.9754	63.0797	127.0209	164.5316	207.4187	243.0166	341.5352	371.8414	400.9449	508.5865	618.4199	698.9316	753.2056	813.9383	860.3389	899.2562	934.129	950.6578	968.1349	984.0398	1033.6166	1061.996	1075.8198	1109.1442	1124.0973	1132.8258	1134.5745	1162.8338	1191.0483	1204.2872	1230.3638	1235.0186	1269.3182	1280.5742	1304.4675	1327.8912	1341.0732	1365.7638	1403.3818	1436.2182	1450.1429	1490.6069	1496.6149	1500.9444	1510.2645	1513.8336	1529.9202	2946.2749	2973.9197	2991.9603	3055.89	3059.8656	3066.3812	3071.1409	3079.0519	3085.6977	3093.8611	3099.5465	3109.6072	3166.9019
CN1CC1C1CCOC1	CN1C[C@H]1[C@H]1CCOC1	
InChI=1S/C7H13NO/c1-8-4-7(8)6-2-3-9-5-6/h6-7H,2-5H2,1H3	InChI=1S/C7H13NO/c1-8-4-7(8)6-2-3-9-5-6/h6-7H,2-5H2,1H3/t6-,7-,8?/m0/s1
