14
gdb 11583	6.59515	0.84132	0.78813	3.1397	71.47	-0.2504	-0.0275	0.2229	1392.0447	0.106991	-378.692978	-378.684447	-378.683503	-378.727517	28.924	
N	-0.0057233973	 1.3043770413	 0.2560604049	-0.521424
C	 0.0397953213	-0.0242271897	-0.0560920338	 0.262815
O	 1.070011266	-0.6181371991	-0.3119417556	-0.336291
C	-1.2620972995	-0.6724615846	-0.0711338165	 0.049439
C	-2.3068351273	-1.2772168616	-0.1057513096	 0.064504
C	-3.5343767546	-2.0139218983	-0.1263232446	-0.170261
C	-3.7450346881	-3.0529207735	-1.1849021342	-0.222597
N	-3.529075748	-3.4623975378	 0.2007105309	-0.300442
H	 0.8664686146	 1.7989111035	 0.348688307	 0.266747
H	-0.8590858048	 1.7464041069	 0.5497471106	 0.266287
H	-4.4057090801	-1.4907598329	 0.2580064174	 0.122755
H	-4.7514361469	-3.2118496785	-1.5611399216	 0.131901
H	-2.949265235	-3.1927729261	-1.9100585165	 0.136098
H	-2.5665226604	-3.7684327196	 0.3250366917	 0.250466
34.5365	81.2138	108.2369	139.7487	198.5677	264.0621	405.5619	506.2766	531.6772	567.4285	617.5895	690.444	769.2702	811.4119	852.3762	955.6767	982.0305	1053.9067	1088.7762	1115.7401	1147.0548	1202.0107	1254.9962	1298.4272	1348.7963	1396.5476	1505.016	1608.1352	1770.8265	2333.8831	3118.1243	3145.1761	3210.9573	3504.6947	3601.488	3742.809
NC(=O)C#CC1CN1	NC(=O)C#C[C@H]1CN1	
InChI=1S/C5H6N2O/c6-5(8)2-1-4-3-7-4/h4,7H,3H2,(H2,6,8)	InChI=1S/C5H6N2O/c6-5(8)2-1-4-3-7-4/h4,7H,3H2,(H2,6,8)/t4-/m0/s1
