19
gdb 94021	4.44176	1.00488	0.8763	1.5646	84.37	-0.25	0.0107	0.2607	1347.965	0.1584	-385.857639	-385.848859	-385.847915	-385.891049	33.621	
C	-0.1163245175	 1.5312740564	-0.012061343	-0.402139
C	 0.0032497092	 0.0013451563	 0.0122005529	-0.038552
C	 0.7327598352	-0.5212389867	-1.2304190842	-0.075084
O	 1.010434077	-1.9085022961	-1.132354262	-0.268284
C	 1.9405963275	-2.2075292294	-0.1002056858	-0.071553
C	 1.6331988348	-1.4672148784	 1.1883080213	-0.092664
C	 0.7361093479	-0.48769546	 1.2369163985	-0.062661
C	 1.9398603441	-3.655956901	 0.1124692694	 0.305825
C	 1.9705895634	-4.8386595813	 0.317808787	-0.441373
H	 0.8716900366	 2.0047886466	-0.0118030486	 0.120315
H	-0.65393347	 1.8707254308	-0.9037240988	 0.116782
H	-0.6608467319	 1.8952471921	 0.8649607501	 0.118572
H	-1.0119820949	-0.421571605	 0.016187675	 0.095053
H	 0.1231141035	-0.4009938399	-2.1305541016	 0.108259
H	 1.6667283867	 0.0489436879	-1.3739065539	 0.087264
H	 2.9559286331	-1.9165990415	-0.4339201365	 0.103937
H	 2.1834092751	-1.7904789889	 2.0662122271	 0.107067
H	 0.5237706965	 0.009141342	 2.1812977451	 0.091191
H	 1.9878690035	-5.886424704	 0.4902233681	 0.198045
59.6171	133.6725	182.4925	228.3399	284.2153	293.9829	332.6879	414.3308	455.7057	484.0434	566.1651	611.8787	620.94	672.4661	704.6747	764.019	852.8442	899.4199	933.289	962.7912	994.2701	1025.3218	1044.6704	1093.7962	1108.9166	1127.2139	1163.0438	1220.2396	1280.7879	1302.4731	1313.6596	1346.9142	1355.6131	1385.8963	1405.0065	1427.9351	1492.6207	1498.3629	1501.0187	1721.6496	2244.4458	2905.7406	2960.6215	2999.7715	3029.9299	3085.2727	3099.6476	3102.6331	3144.3815	3185.7307	3504.1919
CC1COC(C=C1)C#C	C[C@H]1CO[C@@H](C=C1)C#C	
InChI=1S/C8H10O/c1-3-8-5-4-7(2)6-9-8/h1,4-5,7-8H,6H2,2H3	InChI=1S/C8H10O/c1-3-8-5-4-7(2)6-9-8/h1,4-5,7-8H,6H2,2H3/t7-,8-/m1/s1
