15
gdb 28751	3.41479	1.1938	0.88456	2.8058	74.08	-0.1731	0.0055	0.1786	1221.944	0.113696	-454.00333	-453.995166	-453.994222	-454.036216	30.49	
O	 1.2153286929	 0.7601679852	 0.1686273348	-0.433563
C	 0.3275438155	-0.2310900636	-0.0942607184	 0.37629
C	-0.8085743666	-0.3045905905	-0.8628933542	-0.291719
C	-1.3086502453	-1.641237868	-0.7312913621	-0.26164
C	-0.4512835657	-2.3063799695	 0.1081193944	 0.417393
N	-0.4762026319	-3.6283245505	 0.5665757482	-0.395833
C	 0.4264758744	-4.205534872	 1.402717341	 0.142355
O	 1.4011009038	-3.6485397685	 1.8811950387	-0.345426
N	 0.5480051181	-1.4425309735	 0.4970148652	-0.339267
H	 0.9330682241	 1.5494954603	-0.3028416037	 0.306975
H	-1.2374834896	 0.4920096491	-1.4499581114	 0.08903
H	-2.1899930149	-2.0502309562	-1.200283628	 0.089768
H	-1.2410468431	-4.1964809489	 0.2381093876	 0.264115
H	 0.1771619718	-5.2616002627	 1.6088355266	 0.089217
H	 1.2969926965	-1.7162490307	 1.1166192312	 0.292305
79.1966	167.9669	175.6782	218.1506	289.2186	327.6357	388.0955	455.2928	543.1708	580.2227	581.9659	633.4237	684.2891	699.8386	730.127	756.888	863.9626	992.5569	1007.5903	1015.8616	1052.6421	1152.0979	1166.9772	1229.0613	1284.9761	1308.7589	1422.2034	1457.5359	1490.8581	1538.6784	1607.5714	1652.9324	1769.1654	2975.854	3244.4945	3258.4089	3613.8695	3640.2491	3849.142
OC1=CC=C(NC=O)N1	Oc1ccc(NC=O)[nH]1	
InChI=1S/C5H6N2O2/c8-3-6-4-1-2-5(9)7-4/h1-3,7,9H,(H,6,8)	InChI=1S/C5H6N2O2/c8-3-6-4-1-2-5(9)7-4/h1-3,7,9H,(H,6,8)
