21
gdb 72798	2.58523	1.64604	1.25588	1.4658	85.24	-0.2329	0.0234	0.2563	1087.6769	0.184171	-387.093918	-387.085852	-387.084908	-387.125894	33.01	
O	 0.0405336157	 1.3903267078	-0.0506817226	-0.489668
C	 0.0364651677	-0.0391211389	-0.0316147742	 0.358689
C	 0.1764458602	-0.5860176535	 1.4300317325	-0.293569
C	-1.3896719001	-0.6144477797	 1.5287800668	-0.321976
C	-1.391849315	-0.5429663941	 0.0163150363	 0.342351
C	-2.0402686763	-1.093306595	-1.000520786	-0.231025
C	-1.431057879	-1.1144464906	-2.3829803155	-0.234612
C	-0.0738915865	-0.3834366188	-2.4712264681	-0.204472
C	 0.8006803367	-0.6109670841	-1.2217705913	-0.275455
H	 0.9435013978	 1.6742792207	 0.1328746348	 0.272801
H	 0.6069614721	-1.5900230478	 1.4604836078	 0.10198
H	 0.7062101355	 0.0637039061	 2.131742341	 0.090579
H	-1.8540875315	-1.4855434804	 1.9975381404	 0.103516
H	-1.775740095	 0.2935366976	 2.0017060664	 0.118651
H	-2.9853467721	-1.6140602771	-0.8571174677	 0.080758
H	-1.3082935392	-2.1671101327	-2.681203952	 0.102694
H	-2.1273030801	-0.6885027697	-3.117332417	 0.105737
H	 0.4531080784	-0.6988923425	-3.3772988123	 0.086135
H	-0.2479061831	 0.6943894293	-2.5577121038	 0.117219
H	 1.7780261441	-0.125510797	-1.3398013498	 0.078033
H	 0.9847149998	-1.6815017096	-1.0692941657	 0.091634
122.62	218.4608	226.5243	276.2461	306.1756	341.3727	383.1131	443.5303	472.9857	523.9507	604.0989	671.4748	733.1725	770.321	815.7485	851.8171	888.746	900.9012	918.9662	936.1952	963.8439	1008.6653	1029.6374	1070.0157	1090.1002	1104.1387	1127.9549	1175.1409	1184.428	1202.4694	1222.4865	1245.1231	1263.3242	1272.48	1317.9419	1359.026	1364.1475	1374.5553	1405.0778	1461.6337	1473.0242	1476.4467	1482.6099	1495.0818	1772.831	2991.5049	3016.4357	3029.2902	3046.0571	3052.2307	3057.1169	3060.9435	3088.923	3101.4562	3120.6039	3141.4546	3787.0313
OC12CCC1=CCCC2	O[C@@]12CC[C]1[CH]CCC2	
InChI=1S/C8H12O/c9-8-5-2-1-3-7(8)4-6-8/h3,9H,1-2,4-6H2	InChI=1S/C8H12O/c9-8-5-2-1-3-7(8)4-6-8/h3,9H,1-2,4-6H2/t8-/m0/s1
