14
gdb 5495	3.62651	1.90838	1.25242	2.4633	73.84	-0.1842	0.0189	0.2031	908.7508	0.108095	-341.586507	-341.578925	-341.577981	-341.617871	29.126	
N	 0.0679489089	 1.3847918259	 0.1652979825	-0.621839
C	 0.0150736875	-0.0092665015	 0.0513670353	 0.13735
C	-1.094204692	-0.8231017336	 0.0336394748	-0.145262
N	-0.6499772138	-2.1337252159	-0.0184208592	-0.238019
C	 0.706108276	-2.1729079487	-0.0302973464	-0.196332
C	 1.1711550699	-0.865746665	 0.0075391969	 0.132681
C	 2.5105594964	-0.4224296668	-0.0053753586	 0.211954
C	 3.636520056	 0.0107128075	-0.0267419218	-0.452084
H	 0.96537886	 1.7493646884	-0.1295238797	 0.247008
H	-0.6757194379	 1.8597196156	-0.3284526231	 0.239799
H	-2.1450785506	-0.588532983	 0.0618817413	 0.112752
H	-1.2484606196	-2.939516126	-0.0396005303	 0.265112
H	 1.2515497343	-3.1008648578	-0.0724810297	 0.126997
H	 4.6345066248	 0.3715620007	-0.0309140919	 0.179883
133.5705	161.3075	214.6089	296.1736	356.9928	415.0716	475.7142	512.3079	525.1396	593.1174	614.7904	629.09	661.8261	688.3994	721.4652	748.8038	776.5053	903.622	1080.0357	1083.5549	1148.8905	1221.5777	1273.4934	1349.313	1411.229	1489.0777	1552.7379	1627.744	1651.97	2219.6379	3270.3175	3275.386	3505.0737	3534.7397	3628.0828	3696.8121
NC1=CNC=C1C#C	Nc1c[nH]cc1C#C	
InChI=1S/C6H6N2/c1-2-5-3-8-4-6(5)7/h1,3-4,8H,7H2	InChI=1S/C6H6N2/c1-2-5-3-8-4-6(5)7/h1,3-4,8H,7H2
