25
gdb 57842	2.29026	1.09812	1.09495	2.4208	88.68	-0.2335	-0.0096	0.2239	1383.23	0.224884	-389.529379	-389.517581	-389.516636	-389.566196	43.279	
C	 0.1126266125	 1.2904039869	-0.4293059986	-0.39025
C	 0.0831146279	-0.1241693241	 0.1750153303	-0.049703
C	 0.6490475104	-0.1264224483	 1.6056773966	-0.390253
C	-1.3694670908	-0.6277546496	 0.2072714418	 0.391547
O	-2.193787486	-0.0158230945	 0.8507626125	-0.339159
C	-1.7497256534	-1.8987946797	-0.5776792146	 0.140286
C	-3.2452555159	-2.1884954425	-0.3854128394	-0.395988
C	-1.4521301911	-1.6777609794	-2.07751179	-0.417126
C	-0.918091121	-3.0893030822	-0.0504232565	-0.417121
H	 1.130322147	 1.6929104829	-0.412750955	 0.111295
H	-0.2346646345	 1.2944265535	-1.4675021605	 0.114321
H	-0.5358718525	 1.9556240503	 0.1472782991	 0.139274
H	 0.6935621444	-0.7859125016	-0.4466302223	 0.07288
H	 1.665143704	 0.2803028237	 1.6163596699	 0.111291
H	 0.0199856768	 0.4871743653	 2.2562887018	 0.139276
H	 0.6860330238	-1.1370873391	 2.0248056944	 0.114318
H	-3.8572623671	-1.3563419845	-0.7418616869	 0.121741
H	-3.5276613786	-3.0901532745	-0.9388594456	 0.100413
H	-3.4853350637	-2.3393771803	 0.6698977346	 0.121749
H	-0.3926189118	-1.4847378841	-2.2696398581	 0.118391
H	-1.7316199155	-2.5723921558	-2.64413869	 0.118528
H	-2.029791399	-0.837566658	-2.4764229089	 0.123684
H	-1.1106738767	-3.267184694	 1.012599847	 0.123687
H	-1.1916394406	-3.9994104051	-0.5948694769	 0.118529
H	 0.1574950914	-2.9387022752	-0.1814565946	 0.118391
34.6479	64.9248	186.6382	190.3383	198.7046	212.1349	241.3336	249.8718	250.1517	281.8305	282.5327	321.382	354.3251	375.6109	393.9782	476.5069	575.9854	710.6213	772.24	819.8871	880.8521	934.2721	938.6945	942.6614	960.9006	975.0703	1005.8008	1027.466	1073.5475	1111.459	1111.6035	1196.9791	1223.875	1244.7887	1278.2808	1344.3285	1366.774	1389.8129	1394.5225	1397.1118	1413.6853	1426.6659	1475.7294	1480.2556	1482.7838	1487.9295	1492.4877	1497.2392	1500.0551	1502.8337	1512.0001	1518.3109	1790.4164	3030.313	3032.2509	3034.8824	3037.3737	3042.6436	3059.2746	3097.1542	3099.0807	3101.6728	3103.9353	3106.8987	3110.2456	3113.283	3119.5812	3125.3408	3125.6806
CC(C)C(=O)C(C)(C)C	CC(C)C(=O)C(C)(C)C	
InChI=1S/C8H16O/c1-6(2)7(9)8(3,4)5/h6H,1-5H3	InChI=1S/C8H16O/c1-6(2)7(9)8(3,4)5/h6H,1-5H3
