16
gdb 131498	3.75929	1.24782	1.05638	5.5417	68.9	-0.251	0.009	0.26	1111.9068	0.125466	-434.048495	-434.040694	-434.03975	-434.081532	28.751	
O	-0.0194613382	 1.2297240634	 1.1555615271	-0.413918
C	 0.0441074426	 0.1314248527	 0.3072821734	 0.140063
C	-0.5518946096	-1.2021771422	 0.6512110569	-0.357483
C	-1.1692300249	-0.3602328731	-0.4565527896	-0.056137
N	-2.4232166904	 0.2805844214	-0.1917686296	-0.020747
C	-2.7387483886	 1.6062648995	-0.357577175	 0.011317
N	-3.9955596063	 1.8261732411	-0.0755620169	-0.222775
N	-4.5528233828	 0.6116011241	 0.2852286315	-0.219962
C	-3.6073327322	-0.2858219884	 0.2047052323	 0.017652
H	-0.8390335236	 1.1992102114	 1.6610251383	 0.298417
H	 0.9819583473	 0.1447931185	-0.2364870655	 0.12778
H	-0.0283503789	-2.1098212485	 0.3735909953	 0.135501
H	-1.1134312925	-1.2711200869	 1.5775871526	 0.133921
H	-1.0383571716	-0.6844032597	-1.4844314321	 0.125018
H	-2.0136377781	 2.3419992806	-0.6672346055	 0.156438
H	-3.7082221423	-1.3389855039	 0.415815517	 0.144917
57.428	109.9958	164.4725	216.7792	274.2594	366.9258	452.4173	566.7513	642.7503	694.3473	700.7723	792.4992	818.1899	826.2726	854.0283	945.2325	955.5063	1014.6912	1030.3742	1046.9499	1068.7309	1092.9233	1121.9655	1134.7936	1207.9878	1228.2878	1245.8797	1309.4309	1336.4493	1360.1509	1415.3889	1439.1562	1482.5768	1501.0753	1544.9274	3134.9188	3148.8598	3183.5796	3225.4749	3267.2692	3276.483	3816.2753
OC1CC1N1C=NN=C1	O[C@H]1C[C@H]1n1cnnc1	
InChI=1S/C5H7N3O/c9-5-1-4(5)8-2-6-7-3-8/h2-5,9H,1H2	InChI=1S/C5H7N3O/c9-5-1-4(5)8-2-6-7-3-8/h2-5,9H,1H2/t4-,5+/m1/s1
