20
gdb 96432	1.91351	1.82056	1.20614	3.3075	75.45	-0.2155	-0.0225	0.193	1115.5425	0.171405	-440.28502	-440.276306	-440.275362	-440.318306	33.098	
C	 0.0089224726	 1.5276962981	-0.08274325	-0.420357
C	 0.0863348648	 0.0083598555	-0.0004433922	 0.130681
O	 0.7379275661	-0.4478834029	-1.1740617683	-0.253481
C	 0.7320203314	-1.8661372036	-1.2851048196	-0.075012
C	 1.4361940346	-2.5076643545	-0.0903779348	-0.173218
N	 0.9011935256	-2.0344551127	 1.1949628533	-0.288769
C	 0.7994774709	-0.5765197414	 1.2561310309	-0.12032
C	 2.157147709	 0.0738960138	 1.4869690754	 0.180766
O	 3.2203206466	-0.4851415031	 1.4285536902	-0.23929
H	 1.0004590511	 1.9660498816	-0.2219590729	 0.136046
H	-0.6060584532	 1.8176891641	-0.9386720392	 0.13044
H	-0.4383741306	 1.9485442678	 0.8231540313	 0.116114
H	-0.9404702861	-0.4020625912	 0.0224218015	 0.059878
H	-0.309885064	-2.2268620626	-1.3524815243	 0.076334
H	 1.237948278	-2.1035680403	-2.2261650682	 0.108476
H	 1.3359097437	-3.5975449004	-0.1294296933	 0.098758
H	 2.5017937237	-2.266742395	-0.1174315055	 0.143391
H	-0.0260366973	-2.4254770129	 1.3352485608	 0.215532
H	 0.1933064755	-0.3078932119	 2.1338117338	 0.09283
H	 2.0975292675	 1.1570651613	 1.736123631	 0.0812
90.3447	108.0228	202.7765	217.6504	281.0976	290.984	314.0261	355.7974	444.5526	459.3786	565.3368	590.187	725.8587	743.0824	824.9768	847.8614	880.969	933.0029	933.7201	989.0494	1014.6127	1073.1751	1109.4273	1125.263	1142.2943	1166.6492	1177.3838	1249.3611	1262.0862	1291.1806	1337.501	1371.8441	1379.3471	1398.0011	1409.6216	1412.2795	1429.5327	1480.2152	1481.313	1487.1743	1498.4798	1507.1085	1836.3333	2877.877	2923.2234	2949.066	3009.1677	3046.0961	3053.3874	3079.7481	3114.8496	3118.4571	3126.0292	3501.3013
CC1OCCNC1C=O	C[C@H]1OCCN[C@H]1C=O	
InChI=1S/C6H11NO2/c1-5-6(4-8)7-2-3-9-5/h4-7H,2-3H2,1H3	InChI=1S/C6H11NO2/c1-5-6(4-8)7-2-3-9-5/h4-7H,2-3H2,1H3/t5-,6+/m1/s1
