20
gdb 113302	2.50661	1.01378	0.82921	4.8122	80.8	-0.2774	0.0337	0.3111	1446.5457	0.169398	-403.149528	-403.13929	-403.138346	-403.185133	36.571	
C	 0.3123834705	 1.5681657586	 0.2141448029	-0.389024
C	-0.1398082913	 0.1326339074	-0.0755759225	-0.259923
C	 0.5938218403	-0.4939669594	-1.2612347509	 0.145153
C	 1.9542921303	-1.1523554427	-1.0544943711	-0.303194
C	 0.7760456318	-2.0037006976	-1.4194204861	-0.030619
C	 0.1835391334	-2.9978328317	-0.4522652157	-0.112231
O	 0.9409770998	-4.1927857403	-0.5766973751	-0.415374
C	 0.4141542186	 0.2256312033	-2.50089522	 0.253382
N	 0.2547506357	 0.8100904225	-3.4870506798	-0.356403
H	 1.3812353955	 1.6044291925	 0.4481347718	 0.12173
H	 0.1354052809	 2.2194156882	-0.6468624655	 0.145911
H	-0.2354858399	 1.9792505473	 1.0668937098	 0.118062
H	 0.0281780478	-0.4874719083	 0.8095469995	 0.105331
H	-1.2183687992	 0.1158435272	-0.2716130197	 0.116308
H	 2.7285737789	-0.9843908398	-1.7929311534	 0.138279
H	 2.3045207184	-1.1908580575	-0.0279274144	 0.125682
H	 0.7512761381	-2.3553847704	-2.446227773	 0.119574
H	 0.2221391468	-2.6123193067	 0.5769892921	 0.088117
H	-0.8756005733	-3.169753277	-0.7002312191	 0.099069
H	 0.5171090969	-4.8730748056	-0.0448262999	 0.290169
63.5451	87.2748	134.9198	143.5151	157.7861	214.5036	247.7608	268.9706	315.2866	337.2705	422.979	472.0352	575.142	639.4183	657.0726	788.308	840.8568	884.2978	917.1141	929.5501	995.1477	1015.4998	1056.852	1075.6969	1089.1761	1099.3885	1133.2548	1171.1072	1238.0635	1250.799	1284.0543	1290.0322	1322.7907	1362.0215	1406.6836	1413.5298	1469.9555	1482.7702	1490.1204	1497.0637	1506.5962	1521.1169	2345.3701	2976.2975	3008.1171	3039.3565	3041.5726	3085.89	3112.0619	3119.296	3138.3453	3163.3656	3231.7632	3826.5092
CCC1(CC1CO)C#N	CC[C@]1(C[C@H]1CO)C#N	
InChI=1S/C7H11NO/c1-2-7(5-8)3-6(7)4-9/h6,9H,2-4H2,1H3	InChI=1S/C7H11NO/c1-2-7(5-8)3-6(7)4-9/h6,9H,2-4H2,1H3/t6-,7-/m0/s1
