22
gdb 106107	2.72204	1.37808	1.17345	1.7215	85.59	-0.2287	0.0884	0.3171	1193.6277	0.194607	-367.158629	-367.149917	-367.148973	-367.191865	33.922	
C	-0.4666387883	 1.5961160846	 0.2225611201	-0.381952
C	-0.0315292033	 0.1463831554	-0.0302965973	-0.336684
C	 0.830096829	-0.4096790848	 1.055053477	 0.381686
C	 1.1236197157	-1.7737538566	 1.5559785069	-0.104575
C	 2.6232550063	-1.4937563376	 1.6692587078	 0.013379
C	 3.4078959134	-1.8900033404	 0.4241424104	-0.413726
C	 2.2104315849	 0.0060348269	 1.7282450814	-0.13316
C	 1.4045896565	 0.0706113643	 3.0315073898	-0.163227
N	 0.3490924575	-0.8005543292	 2.4155449696	-0.199457
H	 0.3997262898	 2.261301532	 0.3029484206	 0.115563
H	-1.0957126819	 1.9645120424	-0.5932342073	 0.112659
H	-1.037727255	 1.6706598536	 1.1528346978	 0.132518
H	-0.9156366614	-0.4969063688	-0.1189107719	 0.112721
H	 0.5012176834	 0.0785682337	-0.9880029476	 0.101761
H	 0.6237445336	-2.7090319382	 1.3333745422	 0.09021
H	 3.1264780376	-1.8696250316	 2.5696884091	 0.062533
H	 2.9363895612	-1.4975921053	-0.4836370094	 0.116505
H	 4.4322153788	-1.5045447216	 0.4670877713	 0.114481
H	 3.4672093064	-2.979258584	 0.3233170134	 0.115918
H	 2.9055398407	 0.7849240903	 1.4157261362	 0.067034
H	 1.8675055127	-0.3245903172	 3.944275891	 0.09144
H	 0.9649515325	 1.0501009022	 3.2362182292	 0.104373
74.4229	132.3253	177.797	227.1155	244.732	280.3114	335.0506	374.981	464.2844	520.4705	603.6949	726.4803	761.4758	770.7326	808.675	855.9166	911.1727	930.2312	936.5579	974.1808	977.4127	1007.8341	1027.6567	1050.588	1079.3683	1098.7755	1111.1392	1126.3883	1152.9363	1177.6474	1191.7262	1210.5459	1253.5863	1274.181	1289.7721	1320.5959	1345.2134	1377.6281	1405.363	1412.2751	1445.1892	1469.5374	1495.0707	1497.7828	1500.2012	1507.7117	1513.7051	3014.5924	3018.0756	3026.9925	3028.1937	3036.4349	3056.7656	3092.9483	3096.9053	3098.163	3104.6357	3114.2768	3117.4747	3186.6117
CCC12C3C(C)C1CN23	CC[C@@]12[C@H]3[C@@H](C)[C@@H]1CN23	
InChI=1S/C8H13N/c1-3-8-6-4-9(8)7(8)5(6)2/h5-7H,3-4H2,1-2H3	InChI=1S/C8H13N/c1-3-8-6-4-9(8)7(8)5(6)2/h5-7H,3-4H2,1-2H3/t5-,6-,7+,8-,9?/m0/s1
