18
gdb 118603	1.78482	1.05121	0.69024	4.4572	75.04	-0.2985	-0.0198	0.2787	1607.2062	0.144982	-439.120926	-439.110718	-439.109773	-439.157856	34.464	
C	 0.0078308026	 1.5515824951	 0.0113483906	-0.387314
C	-0.0125368443	 0.0209995791	-0.0026447731	-0.188103
C	-1.4371272893	-0.5395606392	 0.0561248307	-0.181147
C	-1.4729856051	-2.0719356877	 0.0426782787	-0.066377
O	-0.8321179642	-2.5525851594	 1.2322108935	-0.180849
C	-0.1642720325	-3.7319075774	 1.1573920559	 0.180806
O	 0.3862500456	-4.2079003087	 2.0988121612	-0.253271
C	-2.8537599169	-2.5824305974	-0.0175910784	 0.292062
N	-3.9381487757	-2.9747228564	-0.0817104528	-0.302983
H	 1.032987243	 1.9300007045	-0.0323913769	 0.123586
H	-0.5385980693	 1.9656470756	-0.8429374404	 0.120089
H	-0.4537970101	 1.9446040099	 0.9233926953	 0.125494
H	 0.4841671527	-0.3462181625	-0.9107914833	 0.099317
H	 0.5610332182	-0.3665769803	 0.8456279812	 0.128003
H	-1.9501048561	-0.1949680371	 0.9605581951	 0.136444
H	-2.0246735842	-0.1850497834	-0.798525013	 0.126189
H	-0.9367705712	-2.4474432021	-0.8399701926	 0.133734
H	-0.1844258432	-4.1755604426	 0.1437767483	 0.094322
32.8552	80.2599	94.5633	115.5863	129.6799	230.4319	236.1917	250.5941	306.6687	331.2952	456.4188	520.0058	580.3097	664.2041	755.9607	872.0374	906.239	944.9921	1005.7885	1038.2359	1042.7229	1070.5196	1124.792	1133.4379	1185.9913	1258.7334	1287.8739	1329.7928	1349.55	1362.126	1398.8136	1417.6685	1435.6261	1476.0542	1494.0949	1500.492	1510.4302	1880.2996	2363.039	2960.3705	3018.3564	3021.1592	3035.0794	3046.3411	3071.7549	3092.9851	3106.9492	3112.3341
CCCC(OC=O)C#N	CCC[C@@H](OC=O)C#N	
InChI=1S/C6H9NO2/c1-2-3-6(4-7)9-5-8/h5-6H,2-3H2,1H3	InChI=1S/C6H9NO2/c1-2-3-6(4-7)9-5-8/h5-6H,2-3H2,1H3/t6-/m1/s1
