18
gdb 105121	2.35986	1.21447	0.96024	3.7582	84.39	-0.264	0.005	0.2689	1277.9347	0.145626	-364.788874	-364.779327	-364.778383	-364.823216	35.149	
C	 0.0815528877	 1.512282559	-0.3088538439	-0.386433
C	-0.0223397362	 0.074518447	 0.2081592011	-0.253139
C	-1.4335314146	-0.4955564371	 0.0852834353	 0.125153
C	-1.8631929968	-1.0915772391	-1.2365445019	-0.303393
C	-1.620492632	-2.0210725528	-0.0652169692	-0.2302
C	-0.4783335306	-2.889766556	-0.0542604059	 0.298133
N	 0.4427645323	-3.5902367484	-0.0415078519	-0.341316
C	-2.4418342783	 0.1628010534	 0.8750427528	 0.276756
C	-3.2704538652	 0.7215653782	 1.5440808597	-0.432988
H	 1.1019459158	 1.888131893	-0.1927460602	 0.121237
H	-0.1809758055	 1.5720513885	-1.3702724815	 0.117948
H	-0.590711765	 2.1770482009	 0.2412124517	 0.133899
H	 0.6670152765	-0.5744556138	-0.3414410933	 0.122489
H	 0.2812078019	 0.0311446002	 1.2599466408	 0.119856
H	-2.890405536	-0.9632521228	-1.5542035747	 0.140418
H	-1.127449123	-1.097635976	-2.0325751648	 0.142664
H	-2.4972515967	-2.4343316017	 0.4199391622	 0.147209
H	-4.0034620643	 1.2148514575	 2.1334211936	 0.201705
91.7176	107.8678	121.1767	150.7665	214.5013	253.7655	264.4572	349.1195	389.3829	483.0349	533.6007	559.6068	604.2726	633.9384	658.4361	666.1704	786.4955	806.8483	872.0593	912.8957	962.6862	1011.1461	1016.6342	1084.4151	1094.0238	1113.1812	1130.7365	1243.9087	1277.1121	1321.3223	1366.3567	1395.6545	1412.8799	1474.5727	1487.8887	1497.8235	1508.4358	2235.6203	2350.9659	3040.2086	3045.8872	3083.8719	3111.3688	3120.108	3147.9855	3182.8847	3244.0724	3500.5951
CCC1(CC1C#N)C#C	CC[C@]1(C[C@H]1C#N)C#C	
InChI=1S/C8H9N/c1-3-8(4-2)5-7(8)6-9/h1,7H,4-5H2,2H3	InChI=1S/C8H9N/c1-3-8(4-2)5-7(8)6-9/h1,7H,4-5H2,2H3/t7-,8-/m0/s1
