14
gdb 16616	3.50477	2.17201	1.48211	3.1295	63.23	-0.2447	-0.0683	0.1764	825.7705	0.106741	-382.544915	-382.53795	-382.537006	-382.576177	25.639	
C	 0.038774349	 1.5043829853	 0.0337512643	-0.490136
C	-0.026855858	 0.0161308155	-0.0417696047	 0.189896
C	-0.1096277825	-0.7865872615	-1.1147153391	-0.180247
C	-0.0485773768	-2.2341465515	-0.7196499315	 0.001797
O	 1.1945295843	-2.5803697032	-0.0740428511	-0.24634
C	 0.0456878285	-2.2806855902	 0.7403015046	-0.08719
C	 0.0217770482	-0.8260873846	 1.2018682399	 0.351867
O	 0.0060543808	-0.4270253394	 2.340565588	-0.312928
H	 0.9987301812	 1.8259560115	 0.4538675513	 0.148862
H	-0.0818504561	 1.9654211324	-0.9493577215	 0.126042
H	-0.7353004252	 1.8893207385	 0.705793317	 0.147768
H	-0.1567702381	-0.459286712	-2.1470014897	 0.12003
H	-0.5044624271	-3.0174055826	-1.3158575771	 0.112285
H	-0.3265765583	-3.0774332582	 1.3756552996	 0.118295
102.9515	150.4108	218.9837	254.8207	376.006	451.9024	479.6902	622.0877	664.409	749.2087	799.7163	822.072	867.663	890.9102	942.5356	985.6151	1030.7963	1065.0652	1082.4688	1115.4059	1223.5435	1236.0245	1299.275	1334.2124	1396.9655	1414.828	1471.9188	1481.7779	1684.7164	1825.7682	3036.9446	3091.4845	3125.8659	3172.5401	3182.8249	3202.5976
CC1=CC2OC2C1=O	CC1=C[C@H]2O[C@H]2C1=O	
InChI=1S/C6H6O2/c1-3-2-4-6(8-4)5(3)7/h2,4,6H,1H3	InChI=1S/C6H6O2/c1-3-2-4-6(8-4)5(3)7/h2,4,6H,1H3/t4-,6-/m1/s1
