14
gdb 42787	2.60158	1.73458	1.45948	3.0451	63.77	-0.2713	-0.0485	0.2229	917.5788	0.101651	-473.814666	-473.807701	-473.806757	-473.84636	26.251	
N	-0.09082905	 1.2651670003	-0.2718780707	-0.521268
C	-0.0455140958	 0.0422880005	 0.0316128767	 0.451687
O	 1.0962785612	-0.5923092177	 0.4382897971	-0.271806
C	 1.0774104098	-2.0047631561	 0.7259821372	-0.083789
C	-0.3343643695	-2.56809729	 0.6360267017	-0.067603
O	-0.8988900046	-2.1052462579	-0.6224248972	-0.28416
C	-1.2699472436	-0.839934673	 0.0042626449	-0.138645
C	-1.3214555509	-1.6175772371	 1.3400513102	 0.435273
O	-1.9292353219	-1.5812668938	 2.359548636	-0.285968
H	 0.830164094	 1.6984593861	-0.1753956413	 0.230986
H	 1.7210498919	-2.5002895323	-0.008505683	 0.137782
H	 1.4981277072	-2.144921419	 1.7272264638	 0.13692
H	-0.3855601539	-3.6490496778	 0.7815427109	 0.122623
H	-2.1400596141	-0.3514134523	-0.4286702762	 0.137966
108.2205	131.054	192.773	372.0864	406.9579	466.346	517.2395	526.689	638.6613	714.0102	784.6632	828.0528	885.5244	894.6036	909.9069	932.4302	1000.9315	1036.5559	1060.554	1078.7952	1131.2036	1171.5087	1210.0546	1242.4154	1276.0821	1304.2896	1305.3705	1417.7757	1499.1556	1765.472	1935.4057	3043.7732	3093.4217	3108.907	3161.559	3467.1176
N=C1OCC2OC1C2=O	[NH][C]1OC[C@@H]2O[C@H]1C2=O	
InChI=1S/C5H5NO3/c6-5-4-3(7)2(9-4)1-8-5/h2,4,6H,1H2	InChI=1S/C5H5NO3/c6-5-4-3(7)2(9-4)1-8-5/h2,4,6H,1H2/t2-,4-/m0/s1
