23
gdb 107389	3.00093	1.13989	0.93835	0.261	92.56	-0.2144	0.0289	0.2434	1380.729	0.205677	-351.171338	-351.162004	-351.16106	-351.205132	36.232	
C	 0.1802937436	 1.473750733	 0.3581382935	-0.375019
C	 0.0425029764	 0.0246183276	-0.1270832391	-0.276263
C	-1.385997515	-0.4792836788	-0.1276240998	 0.36699
C	-2.0178659388	-0.9906593467	 1.1568583931	-0.318451
C	-1.7677881175	-1.9462741556	 0.0154624749	-0.111176
C	-2.9115732698	-2.2321775929	-0.9534726072	-0.322073
C	-3.2346677439	-0.8717815242	-1.5513916424	 0.316007
C	-4.3864441477	-0.6807159225	-2.4868140638	-0.486643
C	-2.379707708	 0.0578464082	-1.1107040604	-0.255159
H	 1.2278850334	 1.7910727997	 0.3605122998	 0.108007
H	-0.3724661276	 2.1665214426	-0.2851365058	 0.116074
H	-0.2094876637	 1.5851647495	 1.3752935589	 0.117136
H	 0.4605370435	-0.0645281456	-1.1384843725	 0.09461
H	 0.6478440108	-0.6289815157	 0.5133819947	 0.091371
H	-1.3735093222	-1.0936841873	 2.0255421604	 0.101662
H	-3.0372927379	-0.6945303131	 1.3841907105	 0.103728
H	-0.9991908871	-2.6988323743	 0.1534141627	 0.07885
H	-2.6122116203	-2.9438612314	-1.7362853147	 0.100696
H	-3.7847219626	-2.6774895459	-0.4568251369	 0.103204
H	-5.3405479975	-0.9292040415	-2.0039406714	 0.122726
H	-4.4492025335	 0.3508948049	-2.8442354264	 0.120988
H	-4.3021800524	-1.3401830782	-3.3606586555	 0.120871
H	-2.4066228722	 1.1033978484	-1.4009891329	 0.081865
81.8683	139.9212	155.096	190.95	209.1913	275.3147	310.3845	370.2164	391.0892	419.0601	484.9893	578.6879	642.7367	746.5781	789.4652	827.9084	850.8305	865.0798	889.9538	928.7364	941.3228	986.3764	992.2926	1011.8201	1038.8802	1059.0565	1070.3284	1092.6394	1099.4598	1123.5961	1171.515	1195.6482	1244.3007	1255.8484	1295.2145	1329.6255	1354.6792	1364.9746	1397.9705	1410.0628	1412.0808	1472.2978	1478.0412	1480.2158	1485.7098	1492.8698	1497.8057	1506.7957	1709.0668	3001.4729	3012.8998	3014.4692	3028.8154	3033.0743	3048.2943	3056.0112	3100.5353	3103.8708	3107.025	3112.5551	3165.5896	3178.3274	3200.4132
CCC12CC1CC(C)=C2	CC[C@]12C[C@H]1CC(=C2)C	
InChI=1S/C9H14/c1-3-9-5-7(2)4-8(9)6-9/h5,8H,3-4,6H2,1-2H3	InChI=1S/C9H14/c1-3-9-5-7(2)4-8(9)6-9/h5,8H,3-4,6H2,1-2H3/t8-,9+/m1/s1
