18
gdb 69690	3.56905	1.28638	1.16807	3.2006	76.87	-0.2279	-0.0313	0.1966	1106.4986	0.145423	-401.857286	-401.848885	-401.847941	-401.890549	31.557	
C	 0.0603530308	 1.6128048788	-0.0174645222	-0.499985
C	-0.0167967095	 0.116429231	 0.0504865702	 0.342508
C	-0.8891017583	-0.6716200229	 0.9781558567	-0.355707
C	 0.6043471746	-0.88481774	 1.0037599595	-0.042139
N	 1.2648194165	-1.676625061	-0.1129365894	-0.152496
C	 0.2834800771	-2.2363834014	-1.0410811974	-0.079858
C	-0.9355726263	-3.0628283983	-0.7446919853	 0.115926
O	-1.0679662312	-3.7942062	 0.2019888174	-0.241687
C	 0.5389881336	-0.770159658	-1.0844195133	-0.126047
H	 1.0421222255	 1.947921236	-0.3711600538	 0.124872
H	-0.6965588472	 2.0206504209	-0.6987963647	 0.123292
H	-0.1094379651	 2.055425928	 0.9687361054	 0.12463
H	-1.2294892917	-0.1036163095	 1.8404611837	 0.11819
H	-1.6117427132	-1.4048964006	 0.6457302506	 0.130364
H	 1.197400216	-0.7428063181	 1.8977869359	 0.10803
H	 0.8079887027	-2.7383932331	-1.8628535814	 0.128156
H	-1.6968941475	-3.0199342632	-1.5584685911	 0.080578
H	 1.0762119032	-0.3320363585	-1.9217669009	 0.101373
65.6191	98.5806	190.2086	198.3414	261.5363	283.4934	355.8207	453.8317	573.4952	584.8044	668.4931	690.9786	735.7282	796.1335	815.7535	871.3156	918.3446	960.8989	972.2562	1001.7427	1019.9014	1035.8769	1058.5182	1072.1185	1083.0137	1112.4931	1137.8256	1230.0529	1237.0798	1257.5781	1331.6398	1388.8377	1415.5198	1417.2215	1434.4195	1484.1745	1497.7596	1505.6891	1818.6309	2856.6141	3020.9761	3047.2841	3078.1238	3103.7675	3132.0003	3141.0343	3197.21	3220.6384
CC12CC1N1C(C=O)C21	C[C@]12C[C@H]1N1[C@@H](C=O)[C@@H]21	
InChI=1S/C7H9NO/c1-7-2-5(7)8-4(3-9)6(7)8/h3-6H,2H2,1H3	InChI=1S/C7H9NO/c1-7-2-5(7)8-4(3-9)6(7)8/h3-6H,2H2,1H3/t4-,5+,6-,7-,8?/m0/s1
