16
gdb 37001	3.35693	2.44808	2.15785	2.1827	74.99	-0.212	-0.0374	0.1746	722.358	0.127675	-363.50375	-363.498564	-363.497619	-363.532784	23.654	
C	 0.0228607959	 1.4666599295	-0.0080942585	-0.083828
C	 1.3256126322	 1.8205166925	 0.1244399862	-0.013865
C	 2.2095112014	 1.8370845363	-1.100274227	-0.092031
C	 2.0707059319	 0.375825414	-1.5654092389	-0.044223
C	 1.0560957064	-0.5542284731	-0.9320791201	-0.069137
C	-0.0417590545	 0.0115067091	 0.0990477414	-0.09591
C	 1.3042131904	-0.531200583	 0.5506511121	-0.073684
C	 2.2061920198	 0.6792506797	 0.6730260825	-0.045706
N	 3.1092300019	 0.7774541621	-0.5661151188	-0.15029
H	-0.6912568735	 2.0172639323	-0.6138621398	 0.10433
H	 2.5604688283	 2.6338117142	-1.7482827654	 0.09707
H	 2.4517578739	 0.1146964543	-2.5470840636	 0.093994
H	 0.7909500918	-1.469102673	-1.445795377	 0.100419
H	-0.9490067169	-0.5744445524	 0.2022658506	 0.093974
H	 1.3870257776	-1.4208200896	 1.1609728063	 0.095612
H	 2.7629898634	 0.837344027	 1.5948254301	 0.083274
382.9114	452.1913	542.5542	607.929	634.0622	698.0329	706.384	754.3478	759.6813	773.5721	818.1634	830.7776	847.0148	894.5554	915.7358	922.5244	955.7114	974.8522	1005.9862	1034.9114	1040.6071	1055.9377	1066.6559	1081.8288	1108.5459	1150.8388	1185.8958	1243.1729	1255.1448	1262.6083	1298.3772	1312.5527	1340.5405	1362.9938	1564.518	3128.6673	3159.6713	3161.5825	3171.5413	3173.1319	3197.5628	3208.7424
C1=C2C3C4C5C1C5C2N34	[CH]1[C]2[C@@H]3[C@@H]4[C@@H]5[C@H]1[C@@H]5[C@H]2N34	
InChI=1S/C8H7N/c1-2-4-5(2)8-7-3(1)6(4)9(7)8/h1-2,4-8H	InChI=1S/C8H7N/c1-2-4-5(2)8-7-3(1)6(4)9(7)8/h1-2,4-8H/t2-,4+,5-,6+,7-,8+,9?/m1/s1
