17
gdb 110596	3.36029	1.38913	1.164	3.8515	67.48	-0.2303	0.0519	0.2822	1054.4119	0.135066	-458.854143	-458.846415	-458.845471	-458.886259	30.404	
O	 0.4735322466	 0.3007920091	 0.9452428393	-0.418405
C	-0.0618612807	 0.328096603	-0.3874224659	-0.11158
C	-1.4600107183	-0.2658035637	-0.4031251999	-0.130086
C	-1.9853818123	-1.0545061935	-1.6247458974	-0.121617
C	-1.149765116	-2.3290653285	-1.2989744697	-0.000709
O	-2.2909884445	-3.2318740123	-1.3460933377	-0.323311
C	-2.8202208418	-2.0297249658	-0.7253764358	 0.022406
C	-1.5450697094	-1.7160215681	 0.1154952308	 0.396896
O	-1.2457686163	-2.1537913065	 1.3756702706	-0.470949
H	-0.0122277747	 0.9467298232	 1.469274344	 0.290277
H	-0.0363322594	 1.3475459091	-0.7962421632	 0.100236
H	 0.6247702896	-0.2815020477	-0.9837945783	 0.119133
H	-2.1903571506	 0.4186914116	 0.0481632275	 0.068054
H	-2.2653525848	-0.7046706948	-2.6149482762	 0.092319
H	-0.1984761943	-2.6735677095	-1.701502889	 0.098168
H	-3.8738929973	-1.9909526201	-0.4508599217	 0.097804
H	-0.4762812557	-1.6376380956	 1.6566791626	 0.291363
105.3319	149.2023	219.9483	286.4473	329.3511	360.6663	397.5099	517.9567	533.8254	617.5202	685.4667	748.952	755.6596	847.0268	855.3618	890.9362	911.3	948.0369	952.2081	997.121	1018.6088	1057.3419	1078.1855	1103.7529	1122.3108	1136.2475	1170.2557	1201.103	1214.2444	1233.5755	1296.4909	1314.9469	1371.7768	1403.8986	1422.1959	1443.4722	1504.7188	3009.0497	3022.6307	3082.3994	3126.956	3132.2764	3161.3926	3738.2758	3811.0121
OCC1C2C3OC2C13O	OC[C@H]1[C@H]2[C@@H]3O[C@H]2[C@]13O	
InChI=1S/C6H8O3/c7-1-2-3-4-6(2,8)5(3)9-4/h2-5,7-8H,1H2	InChI=1S/C6H8O3/c7-1-2-3-4-6(2,8)5(3)9-4/h2-5,7-8H,1H2/t2-,3-,4-,5+,6-/m0/s1
