21
gdb 85845	2.27105	1.41178	1.14359	2.7788	80.29	-0.2431	0.011	0.254	1188.1638	0.180485	-424.244048	-424.234085	-424.233141	-424.278336	37.88	
C	-0.3574393531	 1.4585392731	-0.0064997288	-0.516218
C	-0.1483603726	-0.022015726	-0.0595798042	 0.310588
C	-0.1058002354	-0.7962350316	-1.1458579282	-0.238262
C	 0.1441334916	-2.2469846345	-0.8176263061	 0.098822
O	 1.4533859555	-2.6735804555	-1.211926707	-0.439934
C	-0.1033999226	-2.2969509518	 0.708506105	-0.280397
C	 0.019125518	-0.8450274717	 1.2223880339	 0.306378
C	 1.3550344195	-0.5642418664	 1.9248431231	-0.448087
O	-1.0600308928	-0.6171600256	 2.1373343265	-0.472361
H	 0.4918179185	 1.9743957618	 0.4593817716	 0.125753
H	-0.4997252092	 1.8809551495	-1.0041865095	 0.130164
H	-1.2440181001	 1.6978321003	 0.5933175481	 0.132257
H	-0.1828373488	-0.4422282232	-2.1692397993	 0.091268
H	-0.5263429779	-2.926773284	-1.3531103026	 0.08495
H	 2.062994251	-1.9580473937	-1.0022014371	 0.272698
H	-1.1255917836	-2.626520717	 0.9122286937	 0.117504
H	 0.5831212647	-2.9924203644	 1.1971017045	 0.101585
H	 2.203560402	-0.8169102941	 1.2815105151	 0.111881
H	 1.4517527086	 0.4929823514	 2.2008603656	 0.106267
H	 1.4246438598	-1.1631927873	 2.8378679839	 0.129664
H	-0.8909814431	 0.209608221	 2.6013642116	 0.27548
66.0845	130.3037	178.4665	212.0251	255.2274	261.485	268.3084	295.6213	330.9041	353.7479	408.5076	451.0472	496.2311	579.9324	606.6605	674.1234	755.5856	845.7096	879.6396	911.1085	924.4367	951.6994	999.9649	1017.7898	1052.165	1063.0887	1094.4864	1118.9988	1134.7587	1226.1414	1232.6462	1265.3015	1285.4672	1323.0561	1345.5854	1371.6009	1402.3822	1406.7527	1428.1161	1472.1245	1478.8636	1487.3393	1491.8895	1497.6635	1716.7425	3019.4224	3026.5409	3054.5279	3068.8899	3069.4994	3093.0175	3114.0311	3116.1621	3118.098	3179.9865	3806.2045	3807.6234
CC1=CC(O)CC1(C)O	CC1=C[C@@H](O)C[C@]1(C)O	
InChI=1S/C7H12O2/c1-5-3-6(8)4-7(5,2)9/h3,6,8-9H,4H2,1-2H3	InChI=1S/C7H12O2/c1-5-3-6(8)4-7(5,2)9/h3,6,8-9H,4H2,1-2H3/t6-,7+/m1/s1
