20
gdb 114287	2.28543	1.40269	1.06412	4.1168	82.74	-0.2815	0.0308	0.3122	1215.7672	0.171518	-366.004743	-365.995976	-365.995032	-366.038357	33.08	
C	 0.0197079495	 1.638230524	 0.0333758348	-0.381097
C	 0.196382014	 0.1242040747	-0.127188982	-0.215196
C	 0.6898074492	-0.5400433898	 1.1544792061	 0.0394
C	-0.2340492463	-0.6515281737	 2.4226358197	-0.274165
C	 0.1131268464	-2.1433947643	 2.5136085707	-0.065171
C	-0.3627420561	-2.876322332	 1.2779314186	-0.169911
C	-1.595065071	-2.5575967374	 0.6055871717	 0.303302
N	-2.599751341	-2.318727353	 0.0828652538	-0.35806
C	 0.9171433679	-2.0586316308	 1.2219183975	-0.105857
H	 0.9628065513	 2.1225391689	 0.3116956292	 0.109788
H	-0.3290991044	 2.0965224434	-0.8966523627	 0.117538
H	-0.7148333215	 1.8713966778	 0.8119330047	 0.120876
H	-0.7490305131	-0.3231130539	-0.4472481573	 0.132988
H	 0.9215868602	-0.0786115034	-0.9265669435	 0.094818
H	 1.6237873342	-0.0562499024	 1.4634976265	 0.081431
H	 0.128503516	-0.0678955093	 3.2699572865	 0.110935
H	-1.2952317872	-0.4323023467	 2.2717132128	 0.124153
H	 0.3240425622	-2.6965076519	 3.4205144524	 0.1025
H	-0.1700544037	-3.9452964212	 1.3059773402	 0.134018
H	 1.8375812232	-2.565543139	 0.9548344804	 0.097709
81.3266	127.0686	132.4994	178.1863	215.6644	278.8137	354.7279	408.9399	453.17	562.7294	603.0628	716.7562	760.8231	777.9504	795.2343	828.0908	901.757	937.8659	961.2871	966.7332	1005.1707	1006.6465	1019.8774	1072.9445	1083.8675	1129.4978	1136.0308	1177.0536	1196.7045	1242.2941	1264.4563	1292.7961	1297.5988	1327.3028	1353.8672	1397.1746	1410.839	1415.3281	1486.2915	1494.0515	1499.3762	1507.0234	2345.6965	3023.0772	3029.2727	3033.2126	3061.7975	3082.6288	3103.8445	3107.5468	3123.35	3153.1459	3173.5255	3191.8461
CCC1CC2C(C#N)C12	CC[C@H]1C[C@H]2[C@@H](C#N)[C@@H]12	
InChI=1S/C8H11N/c1-2-5-3-6-7(4-9)8(5)6/h5-8H,2-3H2,1H3	InChI=1S/C8H11N/c1-2-5-3-6-7(4-9)8(5)6/h5-8H,2-3H2,1H3/t5-,6-,7+,8-/m0/s1
