16
gdb 25896	2.72853	1.52929	0.98602	5.0706	74.9	-0.2006	-0.0327	0.168	1140.5772	0.124905	-437.953775	-437.945538	-437.944594	-437.986863	30.866	
C	 0.051632817	 1.4318294527	 0.0056866451	-0.489811
C	-0.003528532	-0.0829331941	-0.0304204018	 0.325953
O	 1.0363506145	-0.7435544015	-0.0786465049	-0.384956
C	-1.2892463882	-0.7489168341	-0.0076792855	 0.045645
C	-2.5807444747	-0.2311174442	 0.0446834317	-0.164562
N	-3.4398014212	-1.2737051546	 0.0450242637	-0.238745
C	-2.7587080854	-2.4845143934	-0.0060407459	-0.184665
C	-1.4196201701	-2.1834434581	-0.039420076	 0.261669
O	-0.3914227607	-3.0456949583	-0.0923097173	-0.436799
H	 1.0924631328	 1.7561018874	-0.0182296329	 0.143212
H	-0.4833741117	 1.8561567071	-0.8505834166	 0.138289
H	-0.4290996169	 1.8121145272	 0.9133048555	 0.138302
H	-2.9314189575	 0.7875892006	 0.0807890365	 0.134105
H	-4.4408899479	-1.1906189035	 0.077827614	 0.270156
H	-3.2782949299	-3.4266153603	-0.0136635515	 0.131344
H	 0.410201492	-2.4816968628	-0.1027087242	 0.310862
73.7054	114.5297	170.4856	201.4791	324.3028	328.5653	463.991	492.4073	510.424	581.8772	624.7639	643.6008	653.9043	718.0156	722.3251	748.2366	757.8202	900.1613	950.5161	1044.7789	1071.6371	1078.6366	1174.1524	1211.9067	1294.4503	1325.6973	1370.0558	1410.358	1467.5054	1476.3951	1481.3632	1499.4767	1544.9645	1643.1349	1718.313	3040.5385	3103.1324	3153.7176	3265.343	3286.5753	3500.4964	3683.0289
CC(=O)C1=CNC=C1O	CC(=O)c1c[nH]cc1O	
InChI=1S/C6H7NO2/c1-4(8)5-2-7-3-6(5)9/h2-3,7,9H,1H3	InChI=1S/C6H7NO2/c1-4(8)5-2-7-3-6(5)9/h2-3,7,9H,1H3
