17
gdb 17103	5.0377	1.59869	1.50437	2.5133	71.39	-0.2421	0.0359	0.278	904.2151	0.143857	-363.850781	-363.843825	-363.84288	-363.882411	26.406	
C	-0.0585949619	 1.3910645514	-0.0969739482	-0.337106
N	-0.0859318018	-0.0644420833	-0.0963482337	-0.369925
C	 0.5287527105	-0.6899483386	-0.9937559468	 0.492377
O	 1.2700485456	-0.1550753382	-2.0418630861	-0.278194
C	 1.720992254	-1.3631347344	-2.7199828558	 0.103128
C	 0.4346401234	-2.2182972754	-2.7698885628	-0.235073
C	 0.6555623358	-2.1760859293	-1.2150081399	-0.149958
C	 2.1897861217	-2.2508136441	-1.5449171301	-0.23508
H	 0.5211537406	 1.8324526557	-0.9154317725	 0.123956
H	-1.0866942922	 1.7667270873	-0.1510189986	 0.1235
H	 0.3551678691	 1.7401411729	 0.8559093728	 0.123493
H	 2.3267807749	-1.0890516362	-3.5807227065	 0.091734
H	-0.46355101	-1.7503797311	-3.1777608853	 0.115223
H	 0.5904573014	-3.2131078114	-3.1900599761	 0.110152
H	 0.1504533362	-2.8278191658	-0.5085573336	 0.096392
H	 2.5055977033	-3.2485971379	-1.8533974854	 0.110154
H	 2.8936920495	-1.8125559017	-0.8346382213	 0.115226
56.388	128.3881	230.5238	294.9937	440.8796	483.1347	540.0617	643.9605	730.7811	796.446	831.3663	853.8681	869.3151	890.2612	952.332	993.0436	1021.4447	1035.1611	1051.8143	1056.657	1103.2496	1128.6413	1134.4081	1143.3427	1186.9722	1216.5587	1243.0094	1255.6362	1295.489	1336.5589	1439.0384	1476.4097	1495.0167	1495.9469	1512.2384	1834.2397	3017.3119	3073.9187	3077.9718	3078.6166	3088.5508	3141.8357	3146.4604	3151.1548	3172.4531
CN=C1OC2CC1C2	CN=C1O[C@@H]2C[C@H]1C2	
InChI=1S/C6H9NO/c1-7-6-4-2-5(3-4)8-6/h4-5H,2-3H2,1H3	InChI=1S/C6H9NO/c1-7-6-4-2-5(3-4)8-6/h4-5H,2-3H2,1H3/t4-,5+
