18
gdb 72425	2.79959	1.66444	1.37185	4.5543	71.39	-0.2298	0.0197	0.2495	989.5808	0.149588	-439.126218	-439.118784	-439.11784	-439.157645	30.019	
C	-0.0488899096	 1.4972607168	 0.0169035299	-0.488996
C	 0.0291848053	-0.0136443608	 0.0201716639	 0.262104
C	 0.7790141052	-0.6772563445	-1.1604617043	-0.088027
O	 0.9689585976	-2.0308762754	-0.722635869	-0.278987
C	 0.423770527	-2.1068302911	 0.6182476101	-0.034376
C	 0.7477942718	-0.7289433615	 1.1942401423	-0.256525
C	-1.1051240495	-2.017944011	 0.4170031831	 0.431665
O	-1.9418665538	-2.8871568054	 0.4323669185	-0.381434
N	-1.2848660872	-0.676190863	 0.1190020923	-0.334544
H	 0.9550831245	 1.9317859579	 0.0262813661	 0.130151
H	-0.5640551434	 1.8678179475	-0.8765422197	 0.123518
H	-0.5907653809	 1.8586834571	 0.895306059	 0.135473
H	 0.1873574099	-0.6606237516	-2.0832687958	 0.101955
H	 1.7524451072	-0.207674284	-1.352462343	 0.102512
H	 0.7849108929	-3.0112345386	 1.1000817296	 0.100038
H	 1.820268502	-0.5256661857	 1.234959725	 0.111195
H	 0.2765840787	-0.5218519845	 2.1566621174	 0.118231
H	-2.0783916477	-0.3837000221	-0.4335120455	 0.246047
157.8628	219.5302	266.8613	282.3457	289.4506	433.6269	466.4415	488.1744	502.8307	594.4671	621.2079	716.0105	762.6683	835.6486	866.8287	892.1888	923.1523	944.7524	977.2788	988.2848	1013.9162	1043.611	1102.5536	1169.4458	1185.205	1206.2643	1221.023	1267.8316	1271.1217	1292.1369	1314.5611	1350.6718	1404.0112	1418.3582	1485.2326	1490.1956	1498.168	1519.2627	1854.6678	3013.8556	3036.4287	3060.3765	3075.5264	3101.7801	3120.2129	3138.6287	3169.2496	3607.4926
CC12COC(C1)C(=O)N2	C[C@@]12CO[C@@H](C1)C(=O)N2	
InChI=1S/C6H9NO2/c1-6-2-4(9-3-6)5(8)7-6/h4H,2-3H2,1H3,(H,7,8)	InChI=1S/C6H9NO2/c1-6-2-4(9-3-6)5(8)7-6/h4H,2-3H2,1H3,(H,7,8)/t4-,6-/m0/s1
