22
gdb 10514	2.60092	1.33768	1.03025	1.3994	78.05	-0.2608	0.079	0.3398	1237.9119	0.199128	-350.192332	-350.18265	-350.181706	-350.227012	35.561	
C	 0.8732376729	-0.1271514232	-1.2009521373	-0.381824
C	-0.0693121208	-0.2119312932	 0.0060084893	-0.254171
C	 0.5954597486	-0.7069525982	 1.2861730682	 0.395271
C	 1.7316599233	 0.1365752163	 1.8461887625	-0.258821
C	 1.3134120014	 1.5400377474	 2.2757575028	-0.074695
O	 2.4477218953	 2.1626031436	 2.8635609255	-0.420579
C	-0.2858091427	-1.4205565077	 2.2867804347	-0.314102
C	 0.7051527584	-2.2042674114	 1.4588974438	-0.312788
H	 1.3446346176	-1.0953213594	-1.4004718947	 0.117943
H	 0.3278262926	 0.1732802636	-2.1010677927	 0.109715
H	 1.6725430959	 0.6038093184	-1.0429499761	 0.11967
H	-0.5291642687	 0.7698458869	 0.1795779105	 0.094503
H	-0.8982655263	-0.8886841166	-0.2350036826	 0.090521
H	 2.1591946237	-0.3640173497	 2.7225080663	 0.100892
H	 2.5455967494	 0.2242142487	 1.1166980766	 0.104903
H	 0.9553246989	 2.1163492539	 1.4082488917	 0.084898
H	 0.4773852282	 1.474012593	 2.9904650966	 0.086341
H	 2.2001377519	 3.055176863	 3.1212060379	 0.284016
H	-0.0730107178	-1.2885777301	 3.3427757815	 0.108044
H	-1.3413340242	-1.5287372468	 2.0590371527	 0.105481
H	 0.3177420354	-2.8385542212	 0.6679085521	 0.106262
H	 1.5833529872	-2.6037256173	 1.9552528207	 0.108523
58.7304	82.9102	126.6594	173.2951	217.4954	251.4237	264.4785	324.1544	352.3812	393.1144	423.8222	517.8409	718.2975	775.1173	795.7035	804.6521	899.3584	912.777	931.0988	959.3706	1016.46	1028.7102	1051.7277	1057.5098	1077.4083	1080.7461	1114.74	1121.1754	1189.2196	1218.3515	1242.6369	1270.8695	1299.5117	1325.2932	1333.7609	1365.8144	1397.0173	1408.0779	1457.5376	1469.0844	1485.6637	1490.654	1502.3657	1505.8581	1512.5649	1527.7519	2966.4593	2992.6558	3017.924	3032.6648	3036.3542	3048.942	3073.494	3102.7131	3105.9382	3123.2159	3127.8284	3200.2973	3214.6487	3830.9617
CCC1(CCO)CC1	CCC1(CCO)CC1	
InChI=1S/C7H14O/c1-2-7(3-4-7)5-6-8/h8H,2-6H2,1H3	InChI=1S/C7H14O/c1-2-7(3-4-7)5-6-8/h8H,2-6H2,1H3
