18
gdb 116266	2.23774	1.56597	1.08563	3.4098	70.65	-0.2764	0.0073	0.2838	1129.5006	0.148547	-439.093761	-439.084908	-439.083964	-439.12899	31.862	
O	 0.2664197919	 1.3084793272	 0.1189369768	-0.430619
C	 0.0763129175	-0.0850605995	-0.0513379113	-0.093682
C	-1.4068277371	-0.4732563786	-0.0946603488	-0.023225
C	-1.6414207268	-2.0031199514	-0.2153863411	-0.252932
C	-2.4205080899	-2.3624809239	 1.059507678	-0.090915
O	-3.1148722378	-1.1685237185	 1.425456747	-0.23454
C	-2.2354556002	-0.092003734	 1.1775014973	-0.044875
C	-1.3769582577	 0.1674251097	 2.3590368213	 0.272916
N	-0.6922782871	 0.3819532533	 3.2661329161	-0.341331
H	 0.3092691939	 1.4883711786	 1.0638527101	 0.300683
H	 0.5331386859	-0.3569711993	-1.0094209559	 0.113038
H	 0.5932448602	-0.66013135	 0.7296616331	 0.110062
H	-1.8618020433	 0.0511854321	-0.9380673073	 0.104155
H	-2.2290891569	-2.2337007363	-1.1064627738	 0.120645
H	-0.7003231637	-2.5568179573	-0.2848302898	 0.113375
H	-3.1704481636	-3.1435892372	 0.9217522425	 0.123587
H	-1.7417391468	-2.6678336505	 1.8691281278	 0.113546
H	-2.8428785685	 0.8023106855	 1.0173057679	 0.140114
12.7509	128.3904	143.6981	176.9444	208.9941	287.8412	343.4712	372.8105	410.7422	530.0125	599.9978	656.4701	710.4775	835.4682	837.8161	915.1107	936.4242	959.3688	1002.064	1026.536	1077.2354	1082.3428	1112.1147	1125.8544	1197.3189	1237.7718	1249.542	1266.0392	1306.5839	1325.3219	1346.0868	1369.5266	1387.5747	1407.4232	1413.9701	1493.7582	1499.7482	1517.9923	2341.8881	3002.415	3008.4539	3062.3428	3063.4877	3078.976	3091.0213	3105.9051	3120.3044	3818.1021
OCC1CCOC1C#N	OC[C@H]1CCO[C@H]1C#N	
InChI=1S/C6H9NO2/c7-3-6-5(4-8)1-2-9-6/h5-6,8H,1-2,4H2	InChI=1S/C6H9NO2/c7-3-6-5(4-8)1-2-9-6/h5-6,8H,1-2,4H2/t5-,6+/m1/s1
