18
gdb 31264	2.38678	1.40348	0.9324	0.7949	77.26	-0.1757	0.0346	0.2103	1271.0738	0.147097	-439.084674	-439.075308	-439.074364	-439.119857	33.063	
C	-0.0645819401	 1.310346011	 0.0121963276	-0.329538
N	 0.499444656	-0.0311798197	 0.1762072394	-0.391648
C	 0.8271426022	-0.7326056541	-0.9711679608	 0.323076
C	 0.5851646115	-2.0206437334	-1.3594353996	 0.181538
O	-0.2075966941	-2.893520768	-0.6642323681	-0.282908
C	 0.4430892263	-4.0905982219	-0.2583366276	-0.247815
C	 1.2500857214	-2.2000191562	-2.6216218806	-0.280892
C	 1.826755888	-1.0075394017	-2.9082951214	-0.023064
O	 1.5782002266	-0.10135515	-1.9083293003	-0.180066
H	 0.6521255833	 1.9377776952	-0.5214560127	 0.147975
H	-1.0149525665	 1.3229739519	-0.5428812644	 0.113168
H	-0.2267748352	 1.7457267936	 1.001074911	 0.12374
H	-0.0727766792	-0.621321173	 0.7671576253	 0.244433
H	 0.7747119379	-4.6825345276	-1.1213489362	 0.117134
H	 1.3134841813	-3.8769867452	 0.3758988859	 0.116132
H	-0.2890713438	-4.6705014123	 0.3083265778	 0.127354
H	 1.2727916827	-3.0893708014	-3.231493063	 0.111088
H	 2.4078021118	-0.6361642871	-3.7345180623	 0.130295
43.1116	70.9741	152.5213	156.9989	170.6979	200.6061	279.6745	336.2437	418.6838	539.8828	602.5277	636.6537	654.7974	685.401	729.9435	784.3235	807.6284	899.045	1018.6345	1050.1338	1061.6376	1106.6887	1150.5561	1173.6821	1180.7088	1188.9354	1211.5343	1294.7926	1317.2224	1435.8038	1451.2217	1479.9043	1486.4371	1489.7815	1499.211	1505.123	1515.3448	1566.1502	1691.0448	2987.7929	3002.1574	3060.9286	3094.0535	3121.8849	3135.7555	3255.6041	3293.7859	3572.0609
CNC1=C(OC)C=CO1	CNc1c(OC)cco1	
InChI=1S/C6H9NO2/c1-7-6-5(8-2)3-4-9-6/h3-4,7H,1-2H3	InChI=1S/C6H9NO2/c1-7-6-5(8-2)3-4-9-6/h3-4,7H,1-2H3
