22
gdb 62674	3.16269	1.31043	1.15374	1.4467	86.67	-0.21	0.067	0.277	1197.691	0.192689	-367.126983	-367.117889	-367.116945	-367.159938	36.229	
C	-0.098418351	 1.5605044428	-0.1779075739	-0.49244
C	-0.0292245965	 0.0639109458	-0.0883119676	 0.332795
C	-0.9369762236	-0.7845771212	 0.753930347	-0.361913
C	 0.560883833	-0.8464471682	 0.9669419754	-0.061707
N	 1.4535657965	-1.568869045	-0.018430875	-0.182697
C	 0.7886201707	-0.7568550191	-1.1106345113	-0.146311
C	 0.7265728045	-2.2457223782	-1.1282195679	 0.340253
C	 1.7621234755	-2.8485174002	-2.0714745921	-0.438776
C	-0.4863121626	-3.1636471416	-0.9654786958	-0.496642
H	 0.8836319086	 1.99321203	-0.4015297662	 0.121361
H	-0.7901389316	 1.8823911161	-0.9666073003	 0.119096
H	-0.4484173501	 1.9924675412	 0.7650040317	 0.118442
H	-1.4202716931	-0.2142925467	 1.5446477522	 0.108964
H	-1.5530062024	-1.5841052512	 0.3749077975	 0.111876
H	 1.0082800345	-0.6161368705	 1.9263331965	 0.098422
H	 1.4054929283	-0.2294383393	-1.8365708807	 0.083268
H	 2.644233086	-2.2092343474	-2.1518648664	 0.125291
H	 2.0855369614	-3.8257031626	-1.6980190877	 0.12086
H	 1.3329824419	-2.9888110986	-3.0698721161	 0.112088
H	-1.4059248804	-2.7237551177	-1.3601019054	 0.132089
H	-0.3100769861	-4.0911661434	-1.5176383968	 0.114905
H	-0.6519911136	-3.4381698651	 0.0782259527	 0.140777
98.3072	196.4615	211.9415	224.6621	243.0212	274.3438	316.3965	367.6479	389.3463	406.6903	497.0746	560.5745	628.5511	654.2943	712.3361	794.5598	818.5083	871.2972	883.1021	951.7753	973.5236	978.9424	993.6697	1018.4383	1030.7928	1036.2352	1067.6808	1086.2858	1093.1384	1122.6974	1138.1607	1204.2607	1246.2604	1253.417	1313.783	1360.6549	1404.0028	1408.8051	1417.6461	1432.296	1484.231	1487.2222	1494.965	1496.535	1501.3154	1507.9044	1517.83	3017.487	3031.6585	3046.839	3074.0757	3097.616	3098.4029	3105.8232	3114.0313	3126.398	3127.8238	3129.9126	3181.12	3257.831
CC12CC1N1C2C1(C)C	C[C@]12C[C@H]1N1[C@H]2C1(C)C	
InChI=1S/C8H13N/c1-7(2)6-8(3)4-5(8)9(6)7/h5-6H,4H2,1-3H3	InChI=1S/C8H13N/c1-7(2)6-8(3)4-5(8)9(6)7/h5-6H,4H2,1-3H3/t5-,6+,8+,9?/m1/s1
