22
gdb 121434	2.32025	0.86118	0.6499	2.7206	83.2	-0.2437	0.0223	0.266	1771.3374	0.191443	-441.495622	-441.484446	-441.483501	-441.53356	38.789	
C	 0.0062671885	 1.4519962892	-0.0260020316	-0.390927
C	 0.0290031617	-0.052164443	-0.2249485555	-0.033994
O	-1.2898438596	-0.5434872117	 0.0525809187	-0.249225
C	-1.4987389331	-1.8677905728	-0.0951488019	 0.416321
C	-2.9269541646	-2.229330266	 0.2268834794	-0.491353
N	-0.5651484746	-2.6449391834	-0.4599863968	-0.321616
C	-0.8166471132	-4.0702306146	-0.612947451	-0.156552
C	 0.3496168926	-4.6718635256	-1.4000853152	-0.044637
O	 1.5829418201	-4.366360622	-0.7854983542	-0.423217
H	 0.9979158404	 1.8686140961	-0.2258517479	 0.121472
H	-0.7094603703	 1.924832338	-0.7045256223	 0.127713
H	-0.2739590537	 1.7061635378	 1.0001974839	 0.127947
H	 0.3067060515	-0.3278900102	-1.2479006261	 0.115359
H	 0.7424890818	-0.5423651822	 0.4466715379	 0.112479
H	-3.4765658234	-1.350283683	 0.5628186415	 0.142802
H	-3.4247277006	-2.6442394799	-0.6555709648	 0.14735
H	-2.9587300998	-2.9959720662	 1.0070810799	 0.145987
H	-0.8597537724	-4.5516364515	 0.3753799535	 0.106228
H	-1.76527807	-4.2874164927	-1.1270312334	 0.087721
H	 0.2608198817	-5.7630614894	-1.4374330666	 0.097121
H	 0.3129857743	-4.2957460087	-2.4363877773	 0.079678
H	 1.518999213	-3.4248168083	-0.5738988604	 0.283342
32.8466	65.8763	87.9866	91.8637	134.4967	163.2203	218.9759	247.947	260.9952	325.5826	359.727	449.9031	502.5315	541.8646	584.5995	624.6372	798.8373	813.0923	889.1359	907.155	959.4342	1014.9926	1052.9888	1074.4637	1089.4859	1101.7855	1111.2111	1154.7693	1185.0437	1223.8595	1260.3916	1287.1228	1304.5372	1379.2333	1385.745	1390.0312	1405.5887	1422.5298	1445.1594	1468.4976	1481.1239	1484.3644	1485.6343	1496.6645	1508.5954	1521.7548	1740.5479	2962.2032	2978.7094	3021.4786	3040.6639	3045.7409	3048.1848	3069.3642	3077.2551	3106.3881	3120.2605	3123.7679	3155.6873	3747.1981
CCOC(C)=NCCO	CCOC(=NCCO)C	
InChI=1S/C6H13NO2/c1-3-9-6(2)7-4-5-8/h8H,3-5H2,1-2H3	InChI=1S/C6H13NO2/c1-3-9-6(2)7-4-5-8/h8H,3-5H2,1-2H3
