17
gdb 17337	3.5676	2.19133	1.77292	3.1668	67.1	-0.2374	0.073	0.3104	802.2935	0.143098	-363.826284	-363.819536	-363.818592	-363.856747	27.045	
C	-0.0598150915	 1.5390726204	 0.0436076133	-0.498764
C	 0.1430297364	 0.0515703782	-0.036983085	 0.448759
O	-0.5513533337	-0.7513702297	 0.9241266228	-0.277256
C	 0.8794865943	-0.774946252	 0.9417244402	-0.029273
C	 1.5147088541	-1.9754426895	 0.2463466569	-0.247421
C	 1.1100976588	-1.8483380137	-1.2241654984	-0.038078
N	-0.3366121223	-1.9594710284	-1.4832005368	-0.31284
C	 0.284838505	-0.6210468669	-1.3971356407	-0.13388
H	 0.714989736	 2.070658015	-0.5198368582	 0.119512
H	-1.0324822004	 1.8209157893	-0.3747639394	 0.13089
H	-0.0272225593	 1.8753725856	 1.0827704896	 0.130568
H	 1.336145432	-0.3665501908	 1.8421999683	 0.086994
H	 2.6052951805	-1.9164946357	 0.3393618761	 0.100883
H	 1.1879233593	-2.922191148	 0.6874774154	 0.123963
H	 1.8020513073	-2.1871285118	-1.9893859493	 0.086262
H	-0.476431388	-2.1902333171	-2.465051666	 0.228614
H	 0.3400144114	 0.0023302449	-2.2833399986	 0.081066
183.1064	205.6265	259.7186	306.23	369.6373	440.5441	547.3917	594.4784	704.4004	734.9918	805.4954	835.1146	854.3846	875.6383	898.1776	933.2426	957.6773	996.1397	1036.8987	1044.848	1102.6504	1113.6533	1144.9814	1169.2056	1209.0042	1223.9368	1237.9645	1297.2548	1323.5757	1363.5864	1410.905	1421.0398	1457.0113	1464.55	1484.9382	1496.2531	3032.637	3044.5886	3092.3002	3093.4704	3119.8982	3122.8407	3150.339	3168.582	3483.6534
CC12OC1CC1NC21	C[C@]12O[C@H]1C[C@H]1N[C@@H]21	
InChI=1S/C6H9NO/c1-6-4(8-6)2-3-5(6)7-3/h3-5,7H,2H2,1H3	InChI=1S/C6H9NO/c1-6-4(8-6)2-3-5(6)7-3/h3-5,7H,2H2,1H3/t3-,4+,5-,6+/m1/s1
