12
gdb 42804	3.49614	1.27542	1.14755	3.0605	68.44	-0.2846	-0.076	0.2086	1026.109	0.077679	-435.465984	-435.459159	-435.458215	-435.497623	25.403	
O	 0.03888924	-0.0178377194	-0.0866857649	-0.264684
C	 0.0084713453	 1.1571764075	-0.0855664422	 0.429059
C	-1.0344535272	 2.3752695215	 0.0612909384	-0.09259
O	-0.0208874985	 2.9248049944	 0.9462273303	-0.247469
C	 0.9750132535	 2.4272003002	 0.0242679134	-0.167123
C	 0.5924833058	 3.1135334154	-1.277988459	 0.253184
C	-0.7618411453	 3.0698304396	-1.2434657725	-0.183402
C	 1.4733100974	 3.5628883076	-2.2835597207	 0.191359
N	 2.2230301036	 3.9302734354	-3.086976038	-0.33128
H	-2.0325533003	 2.3016310055	 0.4819041015	 0.125619
H	 1.9987169804	 2.4232759926	 0.3858667144	 0.131498
H	-1.4761194447	 3.3610522796	-1.9982742706	 0.155829
95.46	167.0995	190.26	356.7316	477.6703	511.7371	523.4271	556.8805	573.2478	671.834	767.3475	836.8479	852.671	877.0593	913.4939	949.3545	963.3556	1038.1722	1099.66	1141.1003	1183.5978	1238.4598	1282.8263	1297.5052	1602.6838	1951.5017	2340.4733	3186.5064	3189.4839	3260.9079
O=C1C2OC1C(=C2)C#N	O=C1[C@H]2O[C@@H]1C(=C2)C#N	
InChI=1S/C6H3NO2/c7-2-3-1-4-5(8)6(3)9-4/h1,4,6H	InChI=1S/C6H3NO2/c7-2-3-1-4-5(8)6(3)9-4/h1,4,6H/t4-,6+/m0/s1
