18
gdb 107519	2.09183	1.60164	1.09826	4.769	76.85	-0.229	0.0152	0.2442	1145.6024	0.14821	-398.076753	-398.068031	-398.067087	-398.110354	32.44	
C	 0.0972091552	 1.4238031711	 0.3250070586	-0.337132
N	-0.002368263	 0.0435425807	-0.1546660419	-0.374638
C	-1.2884876481	-0.5261442308	-0.1143297383	 0.337036
C	-1.878416349	-1.042926002	 1.1785781607	-0.292234
C	-1.7499791232	-1.9717443458	 0.0114008066	-0.091681
N	-2.9202535663	-1.7531094015	-0.8716627786	-0.316295
C	-2.4346084639	-0.3611006019	-1.1628853815	-0.208066
C	-3.4230848827	 0.6975902038	-0.9603652328	 0.305015
N	-4.1765149841	 1.5566410266	-0.7831256109	-0.332872
H	 1.1444851155	 1.737407697	 0.2989623933	 0.121634
H	-0.4967331871	 2.1477285674	-0.2538559413	 0.118689
H	-0.2439185684	 1.4656118394	 1.3634774764	 0.137077
H	 0.4236203306	-0.05512253	-1.0693810676	 0.220193
H	-1.13194541	-1.1706429209	 1.9548351949	 0.126901
H	-2.866082353	-0.7378954471	 1.5115318956	 0.134219
H	-1.1964274976	-2.9019870211	 0.0216585211	 0.108831
H	-2.8610834473	-2.3166868532	-1.7138225388	 0.230431
H	-2.0150164877	-0.2665690217	-2.1708240955	 0.112892
90.9127	99.4411	133.3724	187.4371	225.4247	318.7147	357.117	402.2174	454.8417	537.608	551.3167	660.1249	723.2452	743.7089	814.2114	866.0587	907.1503	933.9306	975.9214	995.8874	1027.7844	1055.1146	1072.7723	1079.6017	1097.3673	1151.7227	1177.1507	1194.2109	1199.8419	1269.9556	1341.0167	1378.0178	1410.8197	1456.3874	1478.5963	1491.0931	1499.2409	1520.9317	2349.9836	2986.9573	3043.9379	3077.2136	3118.0686	3125.6652	3199.3939	3225.6747	3521.6898	3527.6663
CNC12CC1NC2C#N	CN[C@]12C[C@H]1N[C@H]2C#N	
InChI=1S/C6H9N3/c1-8-6-2-4(6)9-5(6)3-7/h4-5,8-9H,2H2,1H3	InChI=1S/C6H9N3/c1-8-6-2-4(6)9-5(6)3-7/h4-5,8-9H,2H2,1H3/t4-,5+,6-/m1/s1
