17
gdb 105424	2.21173	1.30431	0.96677	1.9246	65.24	-0.2705	-0.013	0.2575	1220.9142	0.133818	-496.083985	-496.074912	-496.073968	-496.118412	32.003	
O	-0.2085330533	 1.5507794923	-0.5281593168	-0.41432
C	-0.0466521828	 0.1989958408	-0.1625686297	-0.100602
C	-1.3885194048	-0.487016683	 0.0654603986	 0.299297
C	-2.2394348267	-0.6427894574	-1.2032531152	-0.116007
O	-1.8810041678	-2.0425199774	-1.2895081593	-0.269773
C	-1.3603429212	-2.0325489923	 0.0510143048	-0.13414
O	-2.0908564064	 0.1861266169	 1.1223475873	-0.244832
C	-1.7960216125	-0.1484797618	 2.3976807126	 0.15199
O	-2.2830454323	 0.4082569366	 3.3340062928	-0.264975
H	-0.7248307212	 1.9787296447	 0.1649245148	 0.297376
H	 0.4705032395	-0.2957190001	-0.990672992	 0.131952
H	 0.5806356246	 0.0862078066	 0.7378445856	 0.093918
H	-3.3106769374	-0.4993407859	-1.0191971026	 0.118878
H	-1.9238658189	-0.0701777095	-2.0791003184	 0.131135
H	-0.3814364994	-2.5196657422	 0.1247062148	 0.117096
H	-2.0544289518	-2.4910946088	 0.7684457903	 0.111465
H	-1.0747959479	-0.9830844694	 2.4755066523	 0.091541
79.3369	102.1467	136.4972	167.9669	177.994	214.5515	330.879	360.4264	403.9033	421.5691	497.5609	585.8797	788.3158	830.5107	909.5273	947.7574	969.085	998.3923	1028.6937	1041.412	1088.1357	1127.9635	1148.5424	1150.9268	1170.4176	1179.8534	1261.7666	1275.3857	1302.7255	1370.8434	1386.7222	1426.1731	1431.4661	1495.9203	1503.5414	1527.9893	1866.2418	2960.5968	2970.2277	3007.5179	3035.8878	3066.3791	3087.0791	3106.0251	3798.4099
OCC1(COC1)OC=O	OCC1(COC1)OC=O	
InChI=1S/C5H8O4/c6-1-5(9-4-7)2-8-3-5/h4,6H,1-3H2	InChI=1S/C5H8O4/c6-1-5(9-4-7)2-8-3-5/h4,6H,1-3H2
