18
gdb 116982	5.05535	0.45714	0.44047	2.6661	79.84	-0.2481	0.0245	0.2727	2404.5683	0.145747	-439.074342	-439.063626	-439.062682	-439.113637	35.497	
O	-0.0506156618	 1.2530459241	-0.459183967	-0.414802
C	-0.1020050138	-0.1624177356	-0.4295600055	-0.063784
C	-1.2451382286	-0.544348191	 0.5179626905	-0.324786
C	-1.4157085591	-1.9859394095	 0.6397824705	 0.038701
C	-1.5247623538	-3.1824860124	 0.7212582837	 0.066463
C	-1.6898957852	-4.6272609842	 0.8395625903	-0.290175
N	-2.7416987386	-5.1414518991	-0.032985314	-0.268138
C	-2.5452810045	-6.2054923904	-0.8556559857	 0.161002
O	-1.5304082058	-6.8672182026	-0.9112077238	-0.321756
H	 0.6664739426	 1.5178848447	-1.0422362542	 0.290713
H	-0.2968264677	-0.586102174	-1.4259503726	 0.100324
H	 0.8382757511	-0.5987229058	-0.0613293438	 0.101086
H	-1.046246727	-0.0985646739	 1.5000894995	 0.140405
H	-2.1686698134	-0.0803611201	 0.1505563226	 0.138276
H	-0.776879634	-5.1591007866	 0.553165532	 0.173976
H	-1.8980125956	-4.8945257676	 1.8847634341	 0.139281
H	-3.6037288059	-4.6242930088	-0.0978232182	 0.253982
H	-3.4374854188	-6.4102601572	-1.4794336385	 0.079231
15.3732	22.4748	71.8528	100.0162	123.8945	235.5938	241.5202	249.5717	279.814	332.3824	380.1433	482.4216	524.7352	547.0905	742.9574	792.4474	841.7568	969.2208	1001.9241	1032.0081	1040.5449	1082.1064	1087.4501	1165.7966	1204.1513	1221.5725	1238.6104	1258.0486	1304.1012	1332.5665	1374.7837	1426.3482	1455.1907	1475.4767	1487.6536	1519.3772	1527.9984	1804.0427	2370.8064	2941.1609	2984.8333	3009.4101	3015.9413	3031.1773	3068.5913	3083.0727	3642.2068	3835.3669
OCCC#CCNC=O	OCCC#CCNC=O	
InChI=1S/C6H9NO2/c8-5-3-1-2-4-7-6-9/h6,8H,3-5H2,(H,7,9)	InChI=1S/C6H9NO2/c8-5-3-1-2-4-7-6-9/h6,8H,3-5H2,(H,7,9)
