19
gdb 37782	2.62585	2.02431	1.47177	1.4685	79.25	-0.2363	0.0076	0.2439	940.1668	0.162463	-385.856586	-385.849784	-385.84884	-385.887369	28.528	
C	 0.0073223877	 1.4963190394	-0.1813879727	-0.268157
C	 1.529481634	 1.5157222154	-0.0384128712	-0.066734
C	 1.9442262567	 1.0255650004	 1.3344881369	-0.062101
C	 1.1586009275	 1.2885051921	 2.5647591504	-0.051977
C	 0.1510539318	 0.5345055116	 3.0057669039	-0.095701
C	-0.2858619506	-0.7563588782	 2.3437696339	-0.120398
O	-0.8070872744	-0.6291627757	 1.0265973215	-0.267398
C	 0.0441416487	-0.0539591868	 0.0615497044	 0.142205
C	 1.5620906075	 0.0154411236	 0.2755574954	-0.153271
H	-0.5538330489	 2.0748919785	 0.555882831	 0.104322
H	-0.345752398	 1.749302407	-1.1831680488	 0.099416
H	 2.215879255	 2.0763228141	-0.6606698742	 0.087839
H	 3.0221750611	 1.0998185037	 1.4712759642	 0.092568
H	 1.4298049176	 2.1887539563	 3.1145061833	 0.085783
H	-0.3879069793	 0.8373128481	 3.8997162664	 0.09121
H	 0.5559864527	-1.4652949853	 2.3427047358	 0.102707
H	-1.0944035785	-1.2164716162	 2.9176386911	 0.107105
H	-0.181816498	-0.5737948537	-0.874360935	 0.088925
H	 2.2705157275	-0.7339091544	-0.0581895063	 0.083657
172.9312	210.375	317.3092	334.7871	402.7545	439.9273	525.9809	614.4462	699.5116	724.7454	770.5282	788.9307	821.0652	838.0573	905.7841	926.2662	969.5807	980.9735	998.3135	1005.0568	1013.2017	1029.8863	1057.0112	1071.3146	1105.7724	1128.497	1158.4391	1185.8678	1225.0086	1244.3996	1262.7362	1298.3988	1308.5055	1339.4137	1380.8573	1403.4141	1413.8421	1439.7596	1485.3679	1495.6847	1716.3393	2986.2065	3057.1935	3069.5517	3090.2575	3116.5177	3122.6876	3131.9764	3165.7347	3171.5683	3190.3548
C1C2C3C=CCOC1C23	C1[C@H]2[C@H]3C=CCO[C@@H]1[C@@H]23	
InChI=1S/C8H10O/c1-2-5-6-4-7(8(5)6)9-3-1/h1-2,5-8H,3-4H2	InChI=1S/C8H10O/c1-2-5-6-4-7(8(5)6)9-3-1/h1-2,5-8H,3-4H2/t5-,6+,7+,8-/m1/s1
