18
gdb 26023	4.45531	0.9445	0.94008	3.8212	79.16	-0.2012	-0.0209	0.1803	1331.3054	0.146921	-401.998574	-401.989593	-401.988649	-402.035057	31.993	
C	-0.0782248619	 1.5166832958	 0.0120875905	-0.478452
C	 0.099669561	 0.0092057047	 0.0040437051	 0.376138
O	 1.1787039834	-0.5246813647	-0.0054327067	-0.263382
C	-1.2108377	-0.8002817769	 0.0087995029	-0.299929
N	-1.0285454011	-2.2245798009	-0.0005250707	 0.060704
C	-0.8779031005	-3.0017909494	-1.1252145261	-0.089637
C	-0.6320906083	-4.2933262441	-0.7267212839	-0.165319
C	-0.620902215	-4.3012396575	 0.6962643454	-0.165318
C	-0.860284967	-3.0142367948	 1.1129220048	-0.089578
H	 0.8982612798	 2.0014298243	 0.0099751459	 0.151309
H	-0.6514126288	 1.8404365914	-0.8641837751	 0.141639
H	-0.6438032084	 1.832281714	 0.8962239631	 0.141526
H	-1.794689184	-0.5085035467	 0.8905391642	 0.137741
H	-1.8072286406	-0.4986830004	-0.8611316505	 0.137698
H	-0.9615558992	-2.5637809483	-2.1073620626	 0.10986
H	-0.4851319803	-5.1387628739	-1.3810146708	 0.092561
H	-0.4637062404	-5.1538768193	 1.3387274699	 0.092561
H	-0.9282264286	-2.5871582032	 2.1010784844	 0.10988
10.9368	49.3813	86.7889	96.4416	272.2313	333.0458	340.2508	464.5724	563.9722	621.3674	629.5258	673.0228	736.1624	760.5333	789.5733	805.9127	844.8581	848.0454	884.3525	960.2179	994.942	1058.3211	1083.3046	1100.1327	1117.0652	1179.6566	1212.8487	1302.0112	1327.2383	1371.177	1382.8055	1425.186	1428.368	1450.295	1465.3938	1476.9585	1535.2181	1566.3901	1837.0915	3028.2716	3037.9958	3069.517	3096.0915	3155.93	3239.0106	3248.6552	3260.4029	3269.5815
CC(=O)CN1C=CC=C1	CC(=O)Cn1cccc1	
InChI=1S/C7H9NO/c1-7(9)6-8-4-2-3-5-8/h2-5H,6H2,1H3	InChI=1S/C7H9NO/c1-7(9)6-8-4-2-3-5-8/h2-5H,6H2,1H3
