19
gdb 32994	4.92338	0.89611	0.76674	3.4841	88.43	-0.2018	-0.0107	0.1911	1493.0016	0.161699	-382.128807	-382.120347	-382.119402	-382.162289	31.776	
C	-0.0167725644	 1.5610893502	-0.0314373922	-0.408172
C	-0.0608312821	 0.0364628768	-0.0392242699	-0.1063
N	 0.7880530155	-0.4899719993	-1.0954576416	-0.389299
C	 0.8666437716	-1.8437997025	-1.3744785336	 0.325828
C	 0.4049456409	-2.8325104928	-0.4856420171	-0.069099
N	 0.508457169	-4.1424610897	-0.7098910894	-0.257978
C	 1.0760119439	-4.5473410642	-1.8460029118	-0.023
C	 1.5596558455	-3.655207273	-2.802093317	-0.102117
C	 1.4551796044	-2.2948939736	-2.5664808575	-0.174325
H	 1.0067456647	 1.9207222817	 0.110701995	 0.131345
H	-0.3962562149	 1.971730634	-0.9743680464	 0.118852
H	-0.6374115272	 1.9577060036	 0.7761227772	 0.127803
H	 0.2979707817	-0.3431369212	 0.9253944289	 0.119925
H	-1.1025850449	-0.3096610076	-0.1446040653	 0.101666
H	 0.8558866392	 0.1063753123	-1.9070049676	 0.230853
H	-0.0673982624	-2.5475195283	 0.4496957771	 0.094884
H	 1.1442436909	-5.6207028507	-2.0010034553	 0.098036
H	 2.0111342376	-4.0231303569	-3.7173979295	 0.094298
H	 1.8263967511	-1.5747304587	-3.2908584039	 0.0868
65.5069	105.5973	150.0764	228.286	263.2234	332.0076	384.9115	425.0254	473.4217	535.5483	615.6806	647.0436	734.0522	821.1557	828.3553	843.9797	911.4107	935.5642	943.1786	978.2173	1023.0524	1064.4124	1078.3345	1140.1297	1161.0305	1176.6901	1228.7942	1281.4597	1297.5706	1328.3259	1371.5238	1389.4522	1414.4437	1452.6358	1490.5965	1499.761	1504.0103	1531.149	1538.3376	1609.1909	1636.5101	2963.5832	3032.9908	3039.0932	3103.1346	3123.9681	3156.8788	3161.0117	3169.37	3192.1067	3595.8994
CCNC1=CN=CC=C1	CCNc1cnccc1	
InChI=1S/C7H10N2/c1-2-9-7-4-3-5-8-6-7/h3-6,9H,2H2,1H3	InChI=1S/C7H10N2/c1-2-9-7-4-3-5-8-6-7/h3-6,9H,2H2,1H3
