19
gdb 40198	3.1967	1.54022	1.27176	2.1147	74.73	-0.2403	0.0787	0.319	1034.0123	0.160629	-422.995192	-422.987822	-422.986878	-423.026998	29.376	
C	-0.0807052468	 1.4958674836	 0.051294762	-0.340945
C	 1.2210191488	 0.712931617	 0.1346034446	-0.34366
C	-0.1021396364	 0.0090839845	-0.0397672151	 0.468356
O	-0.6402641847	-0.6860068671	 1.0639092997	-0.28895
C	-0.4590487096	-2.0746037449	 0.7893082801	-0.121015
C	-0.6838758005	-2.2239123622	-0.7136170722	 0.120361
O	-2.075220213	-2.1786470056	-1.0849332195	-0.291128
C	-1.9341582269	-0.8595977195	-1.6544314754	-0.079229
C	-0.4377774245	-0.795753743	-1.275397351	-0.180392
H	-0.4576057696	 1.9339877408	 0.968454614	 0.129408
H	-0.2845927049	 2.0723555526	-0.8447618098	 0.115485
H	 1.9085015931	 0.7598801439	-0.703737594	 0.110327
H	 1.6886823743	 0.6392267861	 1.1099224865	 0.122813
H	 0.5613964752	-2.3972590115	 1.0512053921	 0.088884
H	-1.1830217061	-2.6379547306	 1.3824371782	 0.120967
H	-0.1668385488	-3.0820995508	-1.1546144411	 0.077664
H	-2.1434369958	-0.8601499962	-2.7311034929	 0.097255
H	-2.5770730391	-0.1238679242	-1.1575847616	 0.1102
H	 0.2670165052	-0.6675300228	-2.0957903146	 0.083599
100.0409	173.6566	207.8613	290.4252	335.2965	381.5268	472.5426	564.5128	695.0701	750.7733	768.2975	840.7831	861.4657	871.0581	887.8887	912.0878	955.4874	965.8475	989.413	1018.6443	1032.9495	1045.7237	1066.7775	1073.0934	1080.39	1101.5259	1163.5188	1187.0301	1189.3041	1233.7889	1241.9045	1278.2629	1280.9039	1327.2485	1365.6466	1378.9252	1394.3778	1451.6592	1485.2077	1501.848	1519.5185	2979.4752	3017.2202	3060.0393	3065.8232	3109.5718	3123.4089	3128.7681	3135.7223	3215.9564	3229.8336
C1CC11OCC2OCC12	C1CC21OC[C@H]1OC[C@@H]21	
InChI=1S/C7H10O2/c1-2-7(1)5-3-8-6(5)4-9-7/h5-6H,1-4H2	InChI=1S/C7H10O2/c1-2-7(1)5-3-8-6(5)4-9-7/h5-6H,1-4H2/t5-,6-/m1/s1
