16
gdb 89215	2.65418	1.58057	1.21775	1.3575	65.92	-0.2658	0.0055	0.2713	1022.8441	0.123663	-474.995772	-474.987715	-474.986771	-475.02831	30.867	
O	 0.484513747	 1.0073504902	-0.7169344533	-0.432487
C	 0.072695495	-0.1915303797	-0.1287062466	 0.1529
C	 0.2832787706	-0.4045040596	 1.4111387256	-0.327313
C	-1.2368274894	-0.6693154006	 1.6030063041	 0.295406
O	-1.5548960118	-1.7924276835	 2.33663823	-0.461492
C	-1.4475404641	-0.3770897754	 0.0615642674	-0.028601
O	-2.0510385201	 0.9125816803	 0.4265744181	-0.287951
C	-2.0383956246	 0.5988264767	 1.7798603877	 0.357368
N	-2.5945942465	 1.1482047994	 2.7574229086	-0.545985
H	-0.1279023013	 1.6909090383	-0.4156543573	 0.29102
H	 0.5127388325	-1.007027716	-0.7088749434	 0.103358
H	 0.8634714177	-1.2986212075	 1.6476614247	 0.128032
H	 0.6901087038	 0.4459315851	 1.9612239649	 0.121026
H	-2.4472805712	-1.687921613	 2.6869244794	 0.299244
H	-2.0737171905	-0.9238636233	-0.6419390553	 0.098956
H	-3.1213444971	 1.9797014688	 2.4851025055	 0.23652
88.1757	147.6013	213.0057	251.7266	315.9492	332.2215	399.1583	424.821	460.7257	567.4233	625.974	686.7073	728.9787	798.8201	848.2897	869.6313	877.296	929.7017	954.6459	1002.1312	1017.3933	1043.767	1113.1468	1136.1974	1161.5752	1211.3722	1223.9476	1267.1079	1303.2037	1322.1923	1370.8878	1380.8784	1438.1406	1470.4733	1826.0159	3074.793	3079.2264	3130.746	3138.4096	3481.5946	3769.719	3798.1452
OC1CC2(O)C1OC2=N	O[C@H]1C[C@]2(O)[C@H]1O[C]2[NH]	
InChI=1S/C5H7NO3/c6-4-5(8)1-2(7)3(5)9-4/h2-3,6-8H,1H2	InChI=1S/C5H7NO3/c6-4-5(8)1-2(7)3(5)9-4/h2-3,6-8H,1H2/t2-,3-,5-/m0/s1
