21
gdb 67241	2.98857	1.5197	1.2769	0.5649	87.25	-0.2289	0.0999	0.3287	1093.5019	0.183155	-349.893409	-349.885516	-349.884572	-349.925302	32.297	
C	-0.0435359315	 1.572073882	-0.1128290271	-0.530758
C	 0.0137960521	 0.0852670828	-0.001464335	 0.372488
C	 0.0080854785	-1.0344515144	-1.0155825345	-0.127546
C	 1.2609476871	-1.670903824	-0.4161372006	-0.230451
C	 0.8944219206	-0.9066431996	 0.8875065812	-0.213956
C	-0.4172932374	-1.5657518582	 1.3368556426	 0.454922
C	-0.6396850483	-2.8623272851	 2.0497999123	-0.346481
C	-0.9882388008	-1.5395304135	 2.7185441543	-0.354503
C	-1.0580021572	-0.9793152906	 0.1021731422	-0.215411
H	 0.9165155667	 1.992457305	-0.4355489234	 0.118649
H	-0.7992439484	 1.8752512336	-0.8462161049	 0.120624
H	-0.3055879348	 2.0386586385	 0.8440971423	 0.121503
H	-0.2838467817	-0.9779274256	-2.0574366848	 0.078701
H	 1.3247127611	-2.7630923184	-0.3512014917	 0.087974
H	 2.1680365662	-1.2736624791	-0.8810366944	 0.092064
H	 1.6556715323	-0.6239651608	 1.6132847783	 0.06439
H	-1.4572691986	-3.4992959978	 1.7273263305	 0.108295
H	 0.224944185	-3.404209224	 2.4214083401	 0.106516
H	-0.356110872	-1.2033922248	 3.5349467436	 0.10688
H	-2.038417701	-1.2933871318	 2.8429595786	 0.107774
H	-2.112067348	-0.8837529942	-0.1293551595	 0.078327
123.6529	211.1483	214.4235	247.4189	265.6309	307.5428	462.5753	482.3796	563.4391	634.5693	733.9682	761.9159	784.917	838.5186	865.7275	885.5217	906.4285	913.6074	946.3157	957.9986	982.8947	989.2538	1008.5453	1020.6036	1047.0597	1070.339	1073.6601	1099.9352	1126.6378	1149.3695	1164.7513	1181.6517	1186.3537	1211.6061	1243.3543	1275.2106	1288.8795	1408.1937	1414.3501	1455.2053	1462.5721	1483.5911	1495.6075	1499.575	1511.2521	3016.7277	3032.7994	3074.4642	3086.3911	3091.339	3116.4664	3121.2044	3124.5739	3180.6687	3190.7837	3193.4648	3208.5892
CC12C3CC1C1(CC1)C23	C[C@@]12[C@H]3C[C@@H]1C1(CC1)[C@@H]23	
InChI=1S/C9H12/c1-8-5-4-6(8)9(2-3-9)7(5)8/h5-7H,2-4H2,1H3	InChI=1S/C9H12/c1-8-5-4-6(8)9(2-3-9)7(5)8/h5-7H,2-4H2,1H3/t5-,6-,7+,8+/m0/s1
