18
gdb 20186	3.25728	2.60537	1.96938	1.4446	69.7	-0.224	0.0842	0.3083	755.0977	0.15748	-347.77256	-347.766533	-347.765589	-347.802366	25.181	
C	 0.0058047894	 1.5898256432	-0.0611708277	-0.250992
C	 1.5353375075	 1.5994438576	-0.0823175682	-0.107974
C	 2.1733412303	 0.7131299684	 0.9611597959	 0.140303
O	 1.7862942801	 0.4983324825	 2.2890997626	-0.269201
C	 0.4040239145	 0.2713525551	 2.5369898948	-0.062605
C	-0.29941274	-0.5405541049	 1.4435695224	-0.228192
C	 0.02284363	 0.0282681914	 0.0583133177	-0.028641
C	 1.5439199405	 0.0498705639	-0.2096939794	-0.119505
H	-0.504212158	 2.1699999504	 0.7137472319	 0.095189
H	-0.3965921998	 1.8903812756	-1.0321393808	 0.101163
H	 2.1352935037	 2.3252871964	-0.6208654485	 0.081227
H	 3.2582419923	 0.757683173	 0.9371109711	 0.100246
H	 0.3588471826	-0.2525851634	 3.4967711068	 0.102393
H	-0.1086502365	 1.235027039	 2.670717144	 0.095946
H	 0.0228540077	-1.5882641815	 1.4859650521	 0.103181
H	-1.3780082798	-0.5223512884	 1.6408127723	 0.095483
H	-0.5610903515	-0.4656949553	-0.7197618897	 0.071397
H	 2.0724187869	-0.5968970831	-0.9005988773	 0.08058
161.5274	284.8456	352.4788	437.7438	499.2629	539.2774	679.513	728.4978	754.0068	784.6239	823.5681	847.0646	904.6652	946.4219	963.6456	972.8853	1003.2698	1031.908	1042.4389	1065.6806	1085.1924	1106.6693	1121.9601	1168.6346	1182.1681	1220.3896	1259.4771	1265.6502	1274.7722	1307.3299	1332.7573	1352.9911	1378.1422	1406.4136	1451.7064	1476.2043	1498.7003	1522.4208	2996.2751	3024.505	3048.6962	3065.7059	3075.1428	3085.6679	3099.1066	3155.9679	3162.4364	3177.1796
C1C2C3OCCC1C23	C1[C@H]2[C@H]3OCC[C@@H]1[C@@H]23	
InChI=1S/C7H10O/c1-2-8-7-5-3-4(1)6(5)7/h4-7H,1-3H2	InChI=1S/C7H10O/c1-2-8-7-5-3-4(1)6(5)7/h4-7H,1-3H2/t4-,5+,6-,7+/m0/s1
