14
gdb 130252	3.24	1.42382	0.99072	5.9129	70.68	-0.2215	-0.0491	0.1724	1104.4477	0.101753	-470.024034	-470.016095	-470.015151	-470.056172	30.453	
N	 0.0352111004	 1.3375268277	-0.0034594816	-0.573987
C	-0.0542931303	-0.0114685309	-0.0177099319	 0.224316
C	-1.174230482	-0.7769977382	-0.0797589423	-0.280934
C	-1.024930755	-2.2001529508	-0.0320353877	 0.413594
N	-2.1611345352	-2.9926399572	-0.1491442011	-0.56278
N	 0.1051934045	-2.8398502984	 0.0694811547	-0.207139
O	 1.2649184186	-2.0340458648	 0.0661727116	-0.253388
C	 1.262505322	-0.6881773549	 0.0448554842	 0.44957
O	 2.3069855245	-0.0745249867	 0.0596180024	-0.370556
H	 0.965924461	 1.7157036638	-0.0988556771	 0.282886
H	-0.755170849	 1.9146020041	-0.230405556	 0.265122
H	-2.1652077933	-0.3460239702	-0.1745343722	 0.097852
H	-2.9641500422	-2.6512875605	 0.3603659748	 0.253543
H	-1.972108824	-3.967486433	 0.0460961522	 0.2619
116.0219	173.717	263.9211	298.4052	326.7361	352.2409	377.5681	443.8827	481.1046	505.6303	548.0334	601.0252	630.8808	696.5116	731.2064	793.2577	811.8228	849.1201	960.7018	1026.3244	1107.8893	1161.391	1210.109	1258.1451	1421.0255	1475.4954	1586.4543	1616.5531	1646.2658	1705.833	1792.6295	3180.2466	3548.8764	3585.8101	3652.4761	3726.8888
NC1=CC(N)=NOC1=O	Nc1cc(N)noc1=O	
InChI=1S/C4H5N3O2/c5-2-1-3(6)7-9-4(2)8/h1H,5H2,(H2,6,7)	InChI=1S/C4H5N3O2/c5-2-1-3(6)7-9-4(2)8/h1H,5H2,(H2,6,7)
