21
gdb 81227	2.43518	1.83088	1.42078	1.4772	82.	-0.2426	0.0733	0.316	1012.1664	0.185024	-387.038074	-387.030595	-387.029651	-387.069411	31.496	
O	 0.1903624664	 1.3904722038	-0.119959243	-0.4675
C	 0.086322547	-0.0082441947	 0.0105183377	 0.176024
C	 0.089490389	-0.6349847767	 1.4369767751	-0.058542
C	-1.4432964544	-0.2407395309	 1.4926252915	-0.371461
C	-1.3515431466	-0.6092795315	-0.0146901309	 0.298934
C	-2.0875761045	-0.8120354193	-1.3547323015	-0.353068
C	-1.2183169917	-2.1181541892	-1.5185148504	-0.274054
C	-1.05822488	-2.1091577	 0.0372224895	 0.039411
C	 0.1369453384	-2.1390820546	 1.0364829303	-0.276544
H	-0.5494554421	 1.8072389862	 0.3325511949	 0.280395
H	 0.8237100736	-0.4128525809	-0.6880624357	 0.073524
H	 0.781650506	-0.2853924517	 2.2039118726	 0.065189
H	-2.1178613529	-0.8440564031	 2.1064334715	 0.095738
H	-1.5811113508	 0.8136281573	 1.7486529229	 0.086551
H	-3.1472930246	-1.0560830383	-1.2343924781	 0.103559
H	-1.9839196773	-0.0248024207	-2.1055307225	 0.104084
H	-1.7067798071	-2.9892741901	-1.9600580043	 0.096123
H	-0.2897221659	-1.9238989199	-2.0594901607	 0.111147
H	-1.9161491833	-2.646506292	 0.4566144715	 0.071717
H	 1.1039831617	-2.3944024781	 0.5912243608	 0.103285
H	-0.0369809309	-2.8225479356	 1.8717402888	 0.095488
182.3659	197.4227	235.2546	293.2491	357.5039	414.5117	429.824	527.7487	562.8359	603.7277	677.2115	767.3421	809.6042	830.5212	856.9105	871.6202	889.6949	906.767	950.1801	972.5408	989.457	1028.4736	1057.1275	1061.7356	1096.0419	1113.5102	1154.1669	1160.9285	1176.9019	1186.5796	1210.4447	1229.1732	1232.3785	1243.2606	1259.3806	1275.929	1283.597	1298.5848	1308.4216	1375.6767	1445.6083	1480.2719	1493.1482	1500.3074	1516.9312	3030.532	3050.3072	3052.224	3055.205	3067.0848	3077.2466	3096.0828	3102.4145	3106.5825	3113.4133	3127.9489	3822.0548
OC1C2CC11CCC1C2	O[C@H]1[C@H]2C[C@]31CC[C@H]3C2	
InChI=1S/C8H12O/c9-7-5-3-6-1-2-8(6,7)4-5/h5-7,9H,1-4H2	InChI=1S/C8H12O/c9-7-5-3-6-1-2-8(6,7)4-5/h5-7,9H,1-4H2/t5-,6+,7+,8-/m1/s1
