21
gdb 89737	2.423	1.42461	1.20797	2.0369	78.61	-0.2491	0.0686	0.3177	1155.912	0.179754	-424.20184	-424.192138	-424.191194	-424.235647	37.026	
C	-0.7901665745	 1.1419621297	-0.1201490257	-0.42449
C	 0.1835299642	-0.0256162233	-0.0767253687	-0.002496
C	 1.5969634655	 0.134545336	-0.7179004007	-0.361936
C	 2.1433295942	-0.6890643604	 0.446105856	 0.445801
C	 2.9665589631	-1.8946976775	 0.4334940984	-0.260089
O	 3.4584378398	-0.6505048876	 0.9646921377	-0.286714
C	 0.8737694177	-0.4562405223	 1.2724421591	 0.291153
C	 1.0464646084	 0.6489635849	 2.308452498	-0.455225
O	 0.3863535351	-1.6442066453	 1.8673990863	-0.4801
H	-0.3390768127	 2.0644547223	 0.2598835316	 0.115209
H	-1.1183730092	 1.3360360556	-1.1470283488	 0.119116
H	-1.6868435852	 0.9373267796	 0.4760659614	 0.11243
H	-0.292147438	-0.9266573549	-0.4767190333	 0.083473
H	 1.7434926994	-0.2549700965	-1.7273143629	 0.106867
H	 1.9528326102	 1.1695863103	-0.682468341	 0.109462
H	 2.7795639749	-2.6727261068	 1.1700058835	 0.129138
H	 3.4338617348	-2.2187091034	-0.4957436876	 0.110693
H	 1.4669652932	 1.5577614481	 1.8694554294	 0.127031
H	 0.0839468098	 0.9136507618	 2.7630201756	 0.106376
H	 1.7287246164	 0.3096574037	 3.0925423	 0.137269
H	-0.2519494769	-1.4059341539	 2.5475720817	 0.277034
83.8407	181.0601	207.9562	212.2372	222.2974	239.2343	243.7103	272.1336	342.1515	400.2183	407.7858	493.0056	524.3985	575.0773	672.9677	774.0648	847.5717	870.459	889.7634	919.6158	932.9428	963.4735	1009.2941	1071.1123	1105.8812	1115.4152	1130.5746	1150.3036	1159.5087	1178.3316	1197.5578	1210.9803	1245.3664	1279.9647	1358.2603	1377.9766	1405.7217	1414.0448	1444.4348	1483.569	1485.5668	1491.6247	1499.6376	1503.1182	1535.6084	3025.881	3029.584	3051.0469	3058.0991	3087.1602	3089.2528	3099.0383	3101.613	3112.9214	3123.6196	3182.9943	3811.9275
CC1CC2(CO2)C1(C)O	C[C@H]1C[C@]2(CO2)[C@]1(C)O	
InChI=1S/C7H12O2/c1-5-3-7(4-9-7)6(5,2)8/h5,8H,3-4H2,1-2H3	InChI=1S/C7H12O2/c1-5-3-7(4-9-7)6(5,2)8/h5,8H,3-4H2,1-2H3/t5-,6+,7-/m0/s1
