21
gdb 115951	2.989	1.32576	1.07833	1.5463	77.59	-0.2473	0.0711	0.3184	1200.2981	0.183771	-424.213219	-424.204707	-424.203763	-424.246948	31.973	
C	-0.2331520501	 1.4480973854	 0.1050583969	-0.388259
C	-0.1519501751	-0.0785399045	 0.1701360362	-0.170346
C	 0.8835645629	-0.5614762557	 1.1883035689	 0.097112
O	 0.580571416	-0.1146676573	 2.5192840115	-0.267605
C	-0.0522515497	-1.164554432	 3.2374228358	-0.098774
C	 0.5715267001	-2.4740335146	 2.7251483113	-0.088462
C	-0.3847598361	-3.4509639333	 2.0184137181	-0.087347
O	-0.0961264462	-2.8607774983	 0.731867512	-0.290313
C	 1.0010800534	-2.0958595819	 1.2925293066	 0.09492
H	 0.7188446106	 1.8840199384	-0.2190860969	 0.109016
H	-1.0053609669	 1.7726064079	-0.5989218098	 0.108184
H	-0.4693885782	 1.860960771	 1.0895633432	 0.130501
H	-1.1271556968	-0.5057050813	 0.4233549866	 0.105215
H	 0.1110871854	-0.4922724478	-0.811374282	 0.100522
H	 1.8608760665	-0.1251777217	 0.944704724	 0.074078
H	 0.122173891	-0.9858065434	 4.3019350671	 0.10907
H	-1.1404214563	-1.1626905794	 3.0656530959	 0.092775
H	 1.3180585693	-2.8936983667	 3.3989393725	 0.084615
H	-0.0690417048	-4.5012485238	 2.0558862641	 0.101959
H	-1.4480010126	-3.3841971196	 2.2784449269	 0.105223
H	 1.9625777576	-2.4741086515	 0.9290666111	 0.077917
62.5476	97.3799	133.5701	191.7713	232.3847	303.7993	368.6268	449.7623	471.9415	647.7722	727.3943	770.2253	789.3712	862.6385	866.4074	879.5569	925.3851	957.2093	975.0043	1010.0505	1028.2979	1047.0459	1071.779	1095.6364	1120.1408	1129.8163	1158.6007	1174.7957	1216.1855	1244.5175	1264.1603	1282.0348	1308.4627	1327.2455	1334.4857	1358.6145	1361.6082	1394.039	1398.5694	1410.0768	1473.754	1497.7739	1510.2668	1516.8342	1526.4428	2975.3806	3013.6136	3018.9253	3034.1243	3037.9682	3049.7141	3059.6821	3080.1348	3082.971	3102.4313	3117.2282	3120.1587
CCC1OCC2COC12	CC[C@H]1OC[C@H]2CO[C@@H]12	
InChI=1S/C7H12O2/c1-2-6-7-5(3-8-6)4-9-7/h5-7H,2-4H2,1H3	InChI=1S/C7H12O2/c1-2-6-7-5(3-8-6)4-9-7/h5-7H,2-4H2,1H3/t5-,6+,7+/m0/s1
