19
gdb 82507	3.2151	1.45111	1.3472	3.2958	73.75	-0.2306	0.0706	0.3011	1034.8028	0.159881	-423.005945	-422.998252	-422.997308	-423.037648	31.317	
C	-0.0598791888	 1.5403453591	 0.0140977046	-0.478508
C	-0.0617410962	 0.0399223226	 0.1117862372	 0.397185
C	-1.2998428515	-0.7638605044	-0.2970746921	-0.310005
C	-1.2744748033	-2.067286215	 0.508283494	-0.116159
C	-0.1814030889	-3.0745312256	 0.2656362395	 0.131899
O	 0.5982631252	-3.1384741074	-0.8776044241	-0.431084
C	-0.0067726997	-2.058462503	 1.3832943853	-0.144195
C	 0.6982221518	-0.7604789808	 1.0912861284	-0.028625
O	 1.1803751109	-0.5984879031	-0.27196134	-0.317265
H	 0.8943133286	 1.9458505783	 0.3591461245	 0.132645
H	-0.2116549891	 1.8623078399	-1.0219694895	 0.13204
H	-0.8650905646	 1.9682556229	 0.6201015701	 0.125654
H	-2.1996146198	-0.1906521284	-0.0524221986	 0.10812
H	-1.3090575998	-0.937921593	-1.3796929812	 0.123016
H	-2.2199649589	-2.4287995672	 0.8992959799	 0.085857
H	-0.4162987603	-4.0789388314	 0.6088430331	 0.101965
H	 0.9961319186	-2.2608356591	-0.9906898794	 0.300356
H	-0.0056976977	-2.3946075476	 2.4141186274	 0.085529
H	 1.3449528839	-0.3150172165	 1.8420201509	 0.101576
147.4891	182.2401	203.7419	279.0245	323.6893	387.6897	444.4851	531.163	583.3092	614.9748	654.6233	686.8595	744.5958	763.4151	772.0096	834.3429	869.3889	908.3445	939.8406	982.573	1013.6091	1034.9271	1051.7133	1076.7505	1093.0853	1114.1422	1116.5684	1213.2994	1223.6982	1233.6854	1282.4189	1319.2221	1337.6472	1355.5533	1369.383	1413.5455	1449.867	1475.077	1486.0323	1487.0471	1497.2014	3036.2314	3042.1552	3084.4876	3100.3043	3125.496	3139.1079	3153.0168	3157.3297	3175.1744	3668.0183
CC12CC3C(O)C3C1O2	C[C@]12C[C@H]3[C@@H](O)[C@H]3[C@H]1O2	
InChI=1S/C7H10O2/c1-7-2-3-4(5(3)8)6(7)9-7/h3-6,8H,2H2,1H3	InChI=1S/C7H10O2/c1-7-2-3-4(5(3)8)6(7)9-7/h3-6,8H,2H2,1H3/t3-,4+,5-,6-,7+/m1/s1
