22
gdb 99862	2.0118	1.36606	1.03394	4.739	82.18	-0.2817	0.0474	0.3291	1291.438	0.191264	-404.371912	-404.360762	-404.359818	-404.407582	40.647	
C	 0.0408257433	 1.5910583284	 0.1325103539	-0.407706
C	-0.0437857429	 0.0731320579	-0.053289145	-0.211469
C	 0.6603058973	-0.4808016847	-1.3244449917	 0.089003
C	-0.0075426989	 0.0355331408	-2.6192819467	-0.423776
C	 2.0656924051	-0.0321149066	-1.3080048743	 0.302036
N	 3.1557960915	 0.349452963	-1.2609258737	-0.36355
C	 0.6917496637	-2.040501945	-1.28732069	 0.117258
C	-0.6827799781	-2.7090004225	-1.2236412886	-0.425297
O	 1.3955321981	-2.4432982378	-2.4547241229	-0.43137
H	 1.0796955493	 1.9289303514	 0.1816831252	 0.148903
H	-0.4529209669	 2.1293198567	-0.6817617183	 0.122465
H	-0.4528997037	 1.8812198207	 1.0645272963	 0.118342
H	 0.3875916347	-0.4224589358	 0.8247865081	 0.109485
H	-1.0956560581	-0.2269463076	-0.1010325215	 0.106747
H	 0.1265584549	 1.1138639222	-2.7232741675	 0.133664
H	 0.4299853774	-0.453877828	-3.4901030516	 0.154792
H	-1.08089613	-0.1730725601	-2.5984127655	 0.117312
H	 1.262177537	-2.3218669909	-0.388471704	 0.083611
H	-0.5534605665	-3.7969826741	-1.2288583492	 0.112967
H	-1.2251433097	-2.4520451434	-0.3099856279	 0.125407
H	-1.2955298296	-2.4432970994	-2.08880101	 0.132352
H	 1.556549462	-3.390025375	-2.401407075	 0.288823
75.4824	94.2103	152.4673	159.6786	209.7465	217.9209	230.0134	242.9975	270.7165	296.5486	324.7059	361.5598	410.5113	430.134	514.8068	578.3572	616.2466	689.289	792.7927	867.5458	905.9198	928.696	976.7889	1018.224	1054.6765	1069.7542	1105.6614	1126.0025	1164.1979	1186.6543	1225.832	1273.4691	1323.0196	1364.9073	1379.8781	1395.9982	1411.7936	1416.1165	1421.9707	1480.6653	1490.3745	1498.2729	1499.8446	1504.7337	1509.2476	1510.2458	2351.792	2978.7661	3032.7104	3042.0439	3045.8142	3058.1062	3077.0517	3105.8285	3112.3593	3123.7128	3129.3223	3134.3853	3153.0224	3831.4724
CCC(C)(C#N)C(C)O	CC[C@@](C)(C#N)[C@@H](C)O	
InChI=1S/C7H13NO/c1-4-7(3,5-8)6(2)9/h6,9H,4H2,1-3H3	InChI=1S/C7H13NO/c1-4-7(3,5-8)6(2)9/h6,9H,4H2,1-3H3/t6-,7+/m1/s1
