15
gdb 30469	3.80816	1.08526	0.84904	2.791	83.45	-0.1918	-0.0188	0.173	1301.5914	0.111056	-416.793835	-416.784864	-416.78392	-416.82868	31.809	
C	 0.0122077374	 1.4395957599	 0.0613913317	-0.3219
N	 0.0124433982	-0.0132475504	 0.0023288404	-0.391324
C	 0.5743817571	-0.6425263396	 0.9378284568	 0.501866
N	 0.6797975155	-2.0202440482	 1.0611054939	-0.351978
C	 1.3653303121	-2.3374804761	 2.2136957415	-0.194066
C	 1.692374556	-1.1782003366	 2.8211916438	 0.189057
O	 1.2097727776	-0.1168424807	 2.0459763113	-0.255738
C	 2.3807757346	-0.8990506688	 4.0067253581	 0.261334
C	 2.9730023818	-0.6501486804	 5.0265062447	-0.426065
H	 1.0272932696	 1.8580001571	 0.1080755365	 0.116634
H	-0.4742987775	 1.8302480283	-0.8357408146	 0.116831
H	-0.5341395896	 1.8201960784	 0.9357219919	 0.116683
H	 0.3004722206	-2.6516888759	 0.3790779911	 0.279105
H	 1.5680723004	-3.3502372592	 2.5154223697	 0.160895
H	 3.4953345362	-0.433586238	 5.9252550933	 0.198667
24.2892	122.0254	123.7136	159.5075	216.2661	254.1494	355.8077	461.8016	476.5744	516.3248	540.57	578.592	633.9233	702.6445	724.1361	751.862	790.2525	918.7906	955.9116	1070.4978	1089.0063	1122.9921	1141.2728	1191.3821	1268.9884	1344.021	1425.4957	1447.9136	1490.7904	1501.751	1666.7403	1814.3435	2227.1499	2993.7293	3040.2139	3101.9511	3294.1457	3502.995	3705.3771
CN=C1NC=C(O1)C#C	CN=c1[nH]cc(o1)C#C	
InChI=1S/C6H6N2O/c1-3-5-4-8-6(7-2)9-5/h1,4H,2H3,(H,7,8)	InChI=1S/C6H6N2O/c1-3-5-4-8-6(7-2)9-5/h1,4H,2H3,(H,7,8)
