21
gdb 116373	3.03147	1.16125	0.88698	2.2944	80.59	-0.2392	0.0144	0.2536	1328.7468	0.183784	-424.227018	-424.218194	-424.21725	-424.260676	33.767	
O	 0.0336080962	 1.4010115139	 0.3420056286	-0.427908
C	 0.0556905993	 0.0393648215	-0.0252668035	-0.061359
C	-1.3560846828	-0.5503228999	-0.0616248113	 0.089946
C	-1.3476534509	-2.0416979995	-0.4083828986	-0.252629
C	-2.6980828739	-2.695577896	-0.5821443249	-0.066765
C	-3.7832470339	-2.5418661399	 0.1779338417	-0.053612
C	-3.9323884719	-1.6724715508	 1.4035006628	-0.252007
C	-3.3097477261	-0.2776921933	 1.3185456596	-0.072572
O	-1.8951800906	-0.2850778902	 1.2320331011	-0.273318
H	-0.5500237087	 1.4409932862	 1.1103071915	 0.284817
H	 0.5102807917	-0.0240763613	-1.0192139725	 0.105039
H	 0.6735086409	-0.5571944116	 0.6670905729	 0.085869
H	-1.9473164983	-0.0003047223	-0.8109584038	 0.075517
H	-0.7717043739	-2.1660114577	-1.3333547305	 0.103819
H	-0.7818611033	-2.5686328635	 0.374084583	 0.118989
H	-2.7657640975	-3.3990693261	-1.4092772375	 0.087605
H	-4.659814368	-3.1316016617	-0.081953935	 0.087306
H	-4.9983015902	-1.5431008925	 1.6267638015	 0.102337
H	-3.5017594281	-2.1859880903	 2.2755996871	 0.120642
H	-3.7359481903	 0.2726927955	 0.4656880472	 0.095663
H	-3.5469849996	 0.2778183795	 2.2323787909	 0.102619
83.1886	104.5487	142.1407	192.6636	299.0551	333.9645	353.9556	402.3985	443.8688	480.0499	499.1175	562.5078	694.6375	721.8906	784.1393	851.8166	879.9914	928.5967	976.1045	1000.7676	1037.9035	1069.176	1070.0976	1083.7647	1093.1629	1111.3229	1142.7543	1214.2294	1236.2601	1248.5323	1266.4206	1297.5037	1321.9619	1372.3123	1372.9257	1387.7714	1390.4315	1420.5114	1433.4316	1446.3188	1460.8203	1465.7527	1491.3689	1501.5265	1726.7419	2962.8001	2981.8639	2988.9268	3006.4519	3007.6699	3054.1537	3056.6342	3068.2782	3078.5712	3133.9328	3158.2826	3775.7302
OCC1CC=CCCO1	OC[C@H]1CC=CCCO1	
InChI=1S/C7H12O2/c8-6-7-4-2-1-3-5-9-7/h1-2,7-8H,3-6H2	InChI=1S/C7H12O2/c8-6-7-4-2-1-3-5-9-7/h1-2,7-8H,3-6H2/t7-/m1/s1
