13
gdb 33355	5.7865	0.71605	0.68716	5.0154	76.87	-0.2806	-0.0514	0.2292	1538.8179	0.090575	-415.598872	-415.59109	-415.590146	-415.632636	26.851	
N	 0.0857449013	-3.6946885315	 0.0357737053	-0.332231
C	 0.0653455266	-2.5334995426	 0.0164232418	 0.214959
C	 0.0357253987	-1.1684353397	-0.0031922524	-0.016216
C	 0.0106586609	 0.0387942942	-0.0188434742	 0.192096
C	-0.0473745576	 1.4946472462	-0.0216197583	-0.199761
C	-0.6302157962	 2.0926210843	 1.3031447131	-0.120133
O	 0.4277720461	 2.9497127591	 1.78426273	-0.208596
C	 1.4292181547	 2.8411303398	 0.8861717475	 0.138179
N	 1.3066490251	 2.0949353167	-0.1318337329	-0.252271
H	-0.6396509332	 1.8105165287	-0.8888336087	 0.140115
H	-1.5205366498	 2.701506844	 1.1348146051	 0.138655
H	-0.8379679689	 1.3355022454	 2.061198554	 0.144934
H	 2.3055185322	 3.4362404953	 1.1172534295	 0.160269
48.2627	83.5111	119.8448	228.7317	251.4987	421.0618	466.6441	522.1681	574.8901	589.8441	722.4958	759.6942	873.9355	934.1758	965.3963	968.8288	985.4447	1047.0823	1137.4593	1185.4292	1220.1557	1258.8308	1312.8187	1348.374	1374.1086	1516.4615	1700.1527	2267.8231	2404.0108	3033.8175	3077.2498	3133.692	3223.9724
N#CC#CC1COC=N1	N#CC#C[C@H]1COC=N1	
InChI=1S/C6H4N2O/c7-3-1-2-6-4-9-5-8-6/h5-6H,4H2	InChI=1S/C6H4N2O/c7-3-1-2-6-4-9-5-8-6/h5-6H,4H2/t6-/m0/s1
