15
gdb 131493	3.95287	1.15035	0.99427	5.4766	67.43	-0.2718	-0.0348	0.237	1154.0503	0.112802	-453.882883	-453.875355	-453.874411	-453.91553	28.049	
O	 0.0388538028	 1.4151422806	 0.5242067684	-0.414604
C	 0.0484913041	 0.0802703414	 0.1145468992	 0.099229
C	-0.4847031218	-0.977805404	 1.0357706335	-0.336464
C	-1.2911034121	-0.5459812354	-0.1864628103	-0.146352
C	-2.5502027296	 0.201424252	-0.0401192505	 0.369523
N	-3.5990515627	-0.1047327964	-0.762878126	-0.168656
O	-4.5884601034	 0.7586640048	-0.3816485854	-0.151564
N	-4.1533543117	 1.6142121129	 0.589489919	-0.067707
C	-2.9113243907	 1.2912211874	 0.8103193318	-0.110239
H	 0.7658735065	 1.5425124223	 1.143002183	 0.296312
H	 0.8639753877	-0.1863584212	-0.5565925567	 0.105156
H	-0.0436772771	-1.9681189063	 1.0286838746	 0.12891
H	-0.850233359	-0.6431037746	 2.0006183895	 0.128433
H	-1.3150954491	-1.2431448376	-1.0158910171	 0.119846
H	-2.3074272338	 1.8249632541	 1.5236142469	 0.148175
58.9726	143.8838	173.6973	285.6555	317.9761	371.195	453.4379	527.1907	646.0792	670.721	748.432	789.5402	845.7043	897.0518	904.5261	928.1617	948.3857	1002.2822	1030.0541	1052.5814	1057.4166	1065.561	1133.0892	1173.6319	1205.7314	1237.2141	1289.3712	1359.1115	1420.3026	1431.906	1474.1042	1490.0627	1613.0422	3110.535	3137.0324	3183.1054	3229.8621	3300.4133	3807.2336
OC1CC1C1=NON=C1	O[C@H]1C[C@H]1c1nonc1	
InChI=1S/C5H6N2O2/c8-5-1-3(5)4-2-6-9-7-4/h2-3,5,8H,1H2	InChI=1S/C5H6N2O2/c8-5-1-3(5)4-2-6-9-7-4/h2-3,5,8H,1H2/t3-,5-/m0/s1
