18
gdb 23062	3.5722	1.14395	0.9571	1.5231	77.35	-0.2246	-0.0061	0.2185	1237.9281	0.145673	-439.00263	-438.993731	-438.992787	-439.036738	33.019	
C	 0.9770621966	 1.0073708815	 0.1161781361	-0.489684
C	-0.0832113689	-0.056558983	 0.040657733	 0.254109
N	-0.869012757	-0.3743445325	 1.0026566205	-0.184882
O	-0.5769705817	 0.3521478143	 2.1634156816	-0.393308
C	-0.2311003039	-0.8341111462	-1.2030864696	 0.425678
C	-1.114958469	-2.014340484	-1.435740413	-0.334432
C	 0.3712921798	-2.1638815403	-1.6709799472	-0.171622
C	 0.7628607085	-1.3919178297	-2.9215851796	-0.095991
O	 0.0897576915	-0.1929619674	-2.4491499686	-0.326054
H	 1.8084656492	 0.6735372148	 0.7476336755	 0.141171
H	 1.3523195812	 1.2381491069	-0.8804881315	 0.141665
H	 0.5716332459	 1.9098664954	 0.5802603906	 0.147884
H	-1.2579043206	 0.0449748305	 2.7713203847	 0.307389
H	-1.4849744994	-2.4905187086	-0.5354070507	 0.137024
H	-1.8053949685	-1.9908421557	-2.2746146469	 0.115373
H	 0.9889873691	-2.8696254903	-1.132704519	 0.107917
H	 1.8401782917	-1.2149466303	-3.0144214223	 0.110572
H	 0.3608827855	-1.7395451556	-3.8806296436	 0.107193
55.6968	80.3932	146.2515	175.1237	291.1373	325.3223	365.8264	387.6135	432.0911	452.3387	515.9307	569.2315	731.3522	755.7481	833.4029	853.529	928.1489	957.03	978.325	986.8589	997.4819	1014.2291	1041.8989	1054.6894	1078.4277	1125.3783	1157.4082	1160.8372	1194.3745	1295.9453	1340.8836	1371.4326	1395.5398	1428.1402	1472.334	1484.7513	1495.5395	1519.2541	1704.8118	3024.763	3044.5427	3073.233	3107.607	3122.1991	3160.212	3207.8137	3228.9768	3818.8292
CC(=NO)C12CC1CO2	CC(=NO)[C@]12C[C@H]1CO2	
InChI=1S/C6H9NO2/c1-4(7-8)6-2-5(6)3-9-6/h5,8H,2-3H2,1H3	InChI=1S/C6H9NO2/c1-4(7-8)6-2-5(6)3-9-6/h5,8H,2-3H2,1H3/t5-,6+/m0/s1
