19
gdb 56745	2.87181	1.29983	1.06924	3.5528	79.35	-0.2415	0.0298	0.2712	1171.2431	0.160122	-382.008577	-382.000163	-381.999219	-382.042151	31.666	
C	 0.0051015735	 1.5672230124	 0.0352837659	-0.399227
C	-0.0198469764	 0.0257593752	 0.0305830776	-0.286816
C	 0.7325920007	-0.515910602	 1.1672574285	 0.267994
N	 1.3024517887	-0.9476601935	 2.0756480788	-0.325856
C	-1.4442904201	-0.5305682836	 0.0416950073	 0.331637
C	-2.576128376	-0.3001972438	-0.988206109	-0.226901
N	-3.2513726332	-1.2310802129	 0.0333401058	-0.139499
C	-1.9179791455	-2.0005903268	 0.0115798095	-0.216765
C	-2.566573341	-0.3473578114	 1.0918364309	-0.205126
H	 1.0304981802	 1.9420408105	 0.0036685671	 0.140804
H	-0.5309182432	 1.9472850391	-0.8385264958	 0.130579
H	-0.4756225921	 1.9597662446	 0.9351956068	 0.141729
H	 0.4735814836	-0.3334907827	-0.8825243637	 0.128442
H	-3.0346447006	 0.6907218091	-1.0420085859	 0.105921
H	-2.4679118227	-0.7463977034	-1.9808269509	 0.10524
H	-1.7609681527	-2.5733695466	-0.9066093716	 0.10425
H	-1.7496816907	-2.6122996044	 0.9009224819	 0.119697
H	-2.4467919452	-0.8378621049	 2.0605982736	 0.118951
H	-3.0257398374	 0.6394454053	 1.1939601332	 0.104944
48.0328	110.8367	179.5641	208.168	223.9118	327.4812	379.6198	458.4325	562.6272	582.6657	596.778	675.9614	792.2873	796.4672	834.5653	896.6422	932.3275	966.1329	979.5742	994.0355	1023.2592	1034.8069	1080.0642	1103.2154	1152.9585	1166.9994	1168.058	1183.7551	1200.6172	1201.3464	1256.0494	1304.1245	1319.2297	1329.4623	1410.3445	1493.8244	1499.3062	1510.3001	1511.7526	1564.2305	2354.2877	3024.3857	3048.2448	3051.263	3053.8448	3061.7938	3116.8455	3125.3197	3127.6477	3128.8798	3133.2574
CC(C#N)C12CN(C1)C2	C[C@@H](C#N)[C@@]12CN(C1)C2	
InChI=1S/C7H10N2/c1-6(2-8)7-3-9(4-7)5-7/h6H,3-5H2,1H3	InChI=1S/C7H10N2/c1-6(2-8)7-3-9(4-7)5-7/h6H,3-5H2,1H3/t6-/m0/s1
