19
gdb 51161	3.8123	1.04492	0.92296	2.9227	81.29	-0.2353	-0.0213	0.2141	1290.3724	0.15903	-385.898024	-385.889742	-385.888798	-385.931748	31.375	
O	-0.6687028347	 0.5675794645	 0.5278416454	-0.241635
C	 0.1948296398	 0.8883673903	-0.2474358725	 0.164662
C	 1.2216541554	 1.9767414003	-0.003027363	-0.375108
C	 1.2197960584	 3.0073464992	-1.1162111493	 0.318667
C	 1.9596126465	 2.7457024941	-2.419817663	-0.317825
C	 2.4300014059	 3.8481097738	-1.5061890952	-0.103418
C	 1.9449516263	 5.2715701132	-1.7776405253	-0.277128
C	 0.4398490173	 5.1616611337	-1.64358992	-0.079577
C	 0.0576641113	 3.9422416558	-1.259963318	-0.137088
H	 0.2898524906	 0.389368755	-1.2398598688	 0.075897
H	 1.0230603532	 2.4291602698	 0.9734723831	 0.120919
H	 2.2075078061	 1.4927062027	 0.0371215841	 0.115885
H	 2.5859735013	 1.8601077029	-2.4752465716	 0.107791
H	 1.4608922139	 3.0043393835	-3.3482571338	 0.115161
H	 3.3770154448	 3.7067665805	-0.9977964346	 0.086845
H	 2.3593107559	 5.9848425152	-1.052487123	 0.110491
H	 2.2467634991	 5.6324551828	-2.769552527	 0.112521
H	-0.2267636075	 5.9886863424	-1.8599477699	 0.097442
H	-0.9651820037	 3.6263415703	-1.0853202875	 0.105497
46.0843	76.2598	159.5967	268.4508	274.2304	322.8031	424.6385	459.1889	501.3303	644.9086	722.8749	749.7431	768.5382	800.0794	858.2883	888.9398	921.7558	938.6211	959.0102	970.635	989.7985	1035.4544	1057.6868	1074.8366	1088.737	1094.046	1137.7756	1182.6715	1198.4716	1247.6133	1285.7694	1306.5564	1318.787	1358.8233	1404.5931	1426.7532	1456.4848	1473.8856	1485.9328	1671.112	1832.8339	2864.4826	3015.0312	3017.4942	3042.3273	3090.4274	3118.3895	3172.8644	3184.1001	3207.0051	3209.4248
O=CCC12CC1CC=C2	O=CC[C@]12C[C@H]1CC=C2	
InChI=1S/C8H10O/c9-5-4-8-3-1-2-7(8)6-8/h1,3,5,7H,2,4,6H2	InChI=1S/C8H10O/c9-5-4-8-3-1-2-7(8)6-8/h1,3,5,7H,2,4,6H2/t7-,8-/m1/s1
