19
gdb 107686	3.3621	1.23399	1.04682	0.9435	70.76	-0.2542	0.0698	0.3241	1171.908	0.160078	-460.14437	-460.136102	-460.135158	-460.177392	31.621	
O	 0.084477403	 1.3061177064	-0.4432687916	-0.41569
C	 0.0524209057	 0.0367676031	 0.1876394272	-0.134574
C	-1.355289775	-0.515152124	 0.2335713864	 0.357253
C	-2.3790583298	 0.2569046267	 1.0420504001	-0.268929
C	-3.7287859267	-0.4633315621	 1.0342351921	-0.094819
O	-3.5769066793	-1.8110610761	 1.4543390345	-0.250673
C	-2.8619708543	-2.6040715492	 0.5268765461	-0.103162
C	-1.6141653485	-1.9392087916	-0.030143584	-0.034564
O	-1.8252227721	-0.9565838754	-1.0591530365	-0.304946
H	-0.2618922499	 1.1783280589	-1.334101349	 0.29369
H	 0.7082461743	-0.6840104216	-0.3228973001	 0.091408
H	 0.4376891026	 0.1876382091	 1.201759642	 0.113132
H	-2.0171822523	 0.3416552683	 2.0737506267	 0.110305
H	-2.4721125264	 1.2724305738	 0.6425823336	 0.115841
H	-4.4198348908	 0.0005876822	 1.7427303641	 0.109378
H	-4.1765490533	-0.4182055822	 0.0307139296	 0.104815
H	-2.5810735434	-3.5167682355	 1.0622897243	 0.113587
H	-3.5063968926	-2.8925708499	-0.3204279253	 0.104536
H	-0.7745068513	-2.6063191609	-0.2284373701	 0.093412
70.391	129.6974	176.3297	265.6373	315.1158	333.7129	394.8127	400.4137	439.3263	535.3397	581.0133	691.1279	703.1983	807.1285	869.8097	889.5143	925.0095	972.7114	980.1525	1027.6348	1049.4513	1077.1491	1088.5635	1128.4879	1160.6665	1188.2658	1231.9619	1258.0522	1276.4014	1311.6606	1322.0809	1373.5305	1382.153	1396.2383	1418.7053	1424.9967	1464.9931	1483.4076	1488.8302	1490.1623	1500.0849	2969.2852	2994.6031	3003.6043	3038.6901	3074.3328	3076.664	3085.7406	3096.7731	3105.3221	3797.1653
OCC12CCOCC1O2	OC[C@]12CCOC[C@H]1O2	
InChI=1S/C6H10O3/c7-4-6-1-2-8-3-5(6)9-6/h5,7H,1-4H2	InChI=1S/C6H10O3/c7-4-6-1-2-8-3-5(6)9-6/h5,7H,1-4H2/t5-,6-/m1/s1
