15
gdb 61705	2.36451	1.20569	0.98594	2.0795	69.22	-0.2891	-0.071	0.2181	1220.0325	0.108565	-453.948987	-453.9392	-453.938256	-453.984463	33.112	
C	-0.0114742585	 1.6853711824	 0.0450339907	-0.416053
C	 0.0404357484	 0.1577257473	 0.0939622153	 0.113961
O	 0.6887476995	-0.3364638614	 1.2637177238	-0.225832
C	 2.0456203018	-0.2351398308	 1.3515404012	 0.124551
N	 2.596237356	-0.4508346006	 2.4602803169	-0.425821
C	-1.3893869454	-0.4501073613	 0.2020129838	 0.151613
O	-2.3726344448	 0.1183579238	-0.1697649147	-0.217196
C	 0.6425741002	-0.4007159582	-1.1351379066	 0.254143
N	 1.0932529689	-0.8448885096	-2.1025769931	-0.316036
H	 0.9841487711	 2.1047683793	-0.1139211906	 0.139226
H	-0.6715255307	 2.0034707049	-0.7639006447	 0.166232
H	-0.4112931004	 2.0524242505	 0.9927854924	 0.154829
H	 2.5331713083	 0.0071166771	 0.4009240132	 0.122138
H	 3.6079800672	-0.3787861242	 2.3729360147	 0.242874
H	-1.3907496417	-1.4551559092	 0.6667335576	 0.13137
64.3307	73.6807	119.3693	139.1215	168.1106	200.1659	236.0669	270.2081	377.0355	401.8656	455.4957	519.9981	563.5198	720.0246	739.7768	825.0945	912.2038	927.5268	1004.2504	1043.1682	1065.1596	1152.0021	1183.1092	1184.2679	1270.8941	1383.2605	1408.0453	1420.7171	1478.6512	1484.6744	1750.5217	1857.0828	2346.3838	2958.4363	3061.7933	3066.7325	3145.7514	3154.0797	3521.9046
CC(OC=N)(C=O)C#N	C[C@@](O[CH][NH])(C=O)C#N	
InChI=1S/C5H6N2O2/c1-5(2-6,3-8)9-4-7/h3-4,7H,1H3	InChI=1S/C5H6N2O2/c1-5(2-6,3-8)9-4-7/h3-4,7H,1H3/t5-/m0/s1
