25
gdb 84367	2.44063	1.361	1.14444	0.1607	93.57	-0.233	0.0267	0.2596	1262.2994	0.228447	-352.379199	-352.369327	-352.368383	-352.412785	39.612	
C	-0.2164836871	 1.5705256831	-0.0478548361	-0.412255
C	 0.0513271057	 0.0617830557	-0.0020468573	-0.018103
C	 0.8657238665	-0.4686963614	-1.1628553252	-0.08153
C	 1.6750463536	-1.4555971486	-0.7904142617	-0.095636
C	 1.5453375672	-1.7845613416	 0.6875404824	 0.264052
C	 0.6128489612	-3.0058767437	 0.8620764057	-0.4168
C	 2.9025358294	-2.114311622	 1.3290304991	-0.440328
C	 0.8387682794	-0.4867950135	 1.2373486654	-0.030945
C	 1.8137044823	 0.5435769448	 1.8207323003	-0.408374
H	 0.708881166	 2.1522908937	-0.0870189081	 0.118921
H	-0.8012628357	 1.821340216	-0.9395567467	 0.108871
H	-0.7896534335	 1.9030964471	 0.8241544957	 0.111504
H	-0.9337004766	-0.4304870485	-0.0254091761	 0.078406
H	 0.7465268686	-0.0962205653	-2.1755524991	 0.084654
H	 2.3249965203	-2.0246266394	-1.4483642511	 0.082816
H	 1.0154591369	-3.8846919597	 0.3463492111	 0.106853
H	 0.5026112182	-3.2630873814	 1.922031528	 0.107064
H	-0.3831163968	-2.8091864164	 0.4539364757	 0.113912
H	 3.6335601225	-1.3147425678	 1.1851630301	 0.115297
H	 2.8048987436	-2.2970143528	 2.4051033336	 0.109252
H	 3.3162861554	-3.0246977399	 0.880525423	 0.105985
H	 0.135322224	-0.7644404031	 2.0313783015	 0.057923
H	 2.5482570953	 0.8756136252	 1.0793958696	 0.117987
H	 1.2789929682	 1.4280871706	 2.1782529214	 0.109917
H	 2.3611745955	 0.1305862389	 2.672087909	 0.110556
80.6251	195.9245	234.9891	246.5715	264.2823	277.6392	291.0109	307.9868	337.6446	354.9645	364.5685	423.2348	477.122	553.7755	620.983	700.4896	749.4909	779.6734	802.9137	867.2017	921.825	937.7815	964.6582	972.877	995.5534	1020.6399	1026.7787	1062.7955	1075.506	1111.6666	1142.2928	1149.1939	1200.2243	1223.1552	1242.9071	1274.6788	1303.3577	1348.6677	1366.5566	1380.6702	1395.0526	1407.1679	1415.4696	1421.5072	1482.3456	1486.7925	1492.9702	1497.9757	1501.643	1505.5054	1517.7664	1520.2021	1686.891	2968.6964	3021.3406	3027.0092	3030.4077	3032.4931	3040.2243	3083.8449	3089.6877	3092.8548	3103.3517	3106.9223	3109.2708	3113.6349	3115.8689	3165.1267	3191.8584
CC1C=CC(C)(C)C1C	C[C@H]1C=CC(C)(C)[C@H]1C	
InChI=1S/C9H16/c1-7-5-6-9(3,4)8(7)2/h5-8H,1-4H3	InChI=1S/C9H16/c1-7-5-6-9(3,4)8(7)2/h5-8H,1-4H3/t7-,8-/m0/s1
