19
gdb 72393	3.16349	1.50596	1.40358	1.3046	75.12	-0.2393	0.007	0.2463	1008.6916	0.159093	-423.026056	-423.018128	-423.017184	-423.057638	32.529	
C	 0.0383438425	 1.4852505461	 0.0702811766	-0.485865
C	-0.0308519223	-0.0138994906	-0.0754186101	 0.377214
C	 0.681878571	-0.7119384609	-1.2492647865	-0.278362
C	 0.300068779	-2.1111721876	-0.7217831881	 0.329741
O	 0.764568513	-3.1844394732	-1.4914560464	-0.495446
C	 0.9110711439	-1.9802724847	 0.7154036228	-0.118445
O	 0.658903173	-0.6254749439	 1.0744709696	-0.3038
C	-1.2010761825	-1.938048116	-0.5342175629	-0.166531
C	-1.4035136639	-0.677563623	-0.1406104731	-0.105011
H	 1.0782269086	 1.8209813811	 0.1056463697	 0.125665
H	-0.4615713806	 1.9750943796	-0.7705621845	 0.119904
H	-0.453227288	 1.8012813979	 0.99557787	 0.127522
H	 0.2385812692	-0.5012885088	-2.223081132	 0.107138
H	 1.7595403329	-0.5267676476	-1.2620887177	 0.101429
H	 0.4710226513	-4.0049476625	-1.0817213259	 0.280549
H	 0.4441245305	-2.6639305096	 1.4366738659	 0.085216
H	 1.990700585	-2.1752327753	 0.6811550511	 0.101443
H	-1.9196897832	-2.7472331831	-0.5966476629	 0.096149
H	-2.3249956394	-0.2214501078	 0.2002206442	 0.101488
203.209	216.9766	240.2369	262.9419	290.9174	353.5779	409.4843	417.6512	504.6538	523.1874	581.736	652.53	669.5083	735.7242	794.5805	814.3537	841.415	915.9608	936.2541	948.0069	963.5241	1023.951	1038.6405	1070.3221	1089.5606	1124.9994	1163.9219	1172.0659	1211.871	1220.0082	1264.5434	1296.5757	1334.2668	1364.9218	1387.43	1416.2494	1482.1919	1490.175	1493.8705	1521.9969	1638.7955	3004.5361	3042.721	3048.0524	3068.6274	3113.4727	3121.3434	3139.9184	3187.4521	3214.5746	3810.0531
CC12CC(O)(CO1)C=C2	C[C@@]12C[C@@](O)(CO1)C=C2	
InChI=1S/C7H10O2/c1-6-2-3-7(8,4-6)5-9-6/h2-3,8H,4-5H2,1H3	InChI=1S/C7H10O2/c1-6-2-3-7(8,4-6)5-9-6/h2-3,8H,4-5H2,1H3/t6-,7-/m1/s1
