15
gdb 21222	5.49863	1.34952	1.10213	3.2931	65.44	-0.2014	0.0307	0.2321	1043.093	0.119888	-395.972302	-395.964448	-395.963504	-396.004543	28.712	
C	 0.0638140084	 1.4155977547	 0.1406020257	-0.326026
N	-0.0481409425	 0.0247914537	-0.265182406	-0.374298
C	-1.2366698257	-0.6476792199	-0.0773274448	 0.470095
N	-1.2306074441	-1.9539605466	 0.1105689518	-0.271862
O	-2.6062452867	-2.307705291	 0.1834129112	-0.218529
C	-3.3436802836	-1.2023104974	 0.0598237206	 0.499626
N	-4.7035811247	-1.3705070505	 0.1810268178	-0.595798
C	-2.5538852848	-0.1006491528	-0.1091387134	-0.439445
H	 1.0693983287	 1.7705518578	-0.0970890338	 0.128775
H	-0.6418916831	 2.0296511427	-0.427210903	 0.133904
H	-0.1215284955	 1.5831762407	 1.2124279535	 0.118382
H	 0.7490558084	-0.5486861018	-0.02650285	 0.246399
H	-5.0136734993	-2.3122514544	-0.014276962	 0.265274
H	-5.2578893823	-0.6741503224	-0.2938751614	 0.262741
H	-2.8611154233	 0.9222207772	-0.237456186	 0.100761
81.7281	140.1066	193.9192	225.5265	267.8084	364.0199	392.7948	487.2354	567.3445	594.4096	670.8949	690.4863	701.7378	757.2941	775.8738	920.0757	998.7551	1037.0241	1082.7036	1098.7673	1153.4815	1183.0496	1217.7685	1382.3206	1439.3967	1457.3357	1489.9644	1514.5332	1534.4513	1583.94	1635.4973	1678.973	2988.6039	3076.3019	3120.0927	3284.5452	3569.5672	3592.1254	3674.2585
CNC1=NOC(N)=C1	CNc1noc(N)c1	
InChI=1S/C4H7N3O/c1-6-4-2-3(5)8-7-4/h2H,5H2,1H3,(H,6,7)	InChI=1S/C4H7N3O/c1-6-4-2-3(5)8-7-4/h2H,5H2,1H3,(H,6,7)
