16
gdb 67185	3.02004	1.51874	1.46924	3.1169	67.92	-0.2295	0.0263	0.2559	946.8586	0.125834	-437.883353	-437.876238	-437.875294	-437.91454	28.721	
O	-0.0932426925	 1.4273533722	-0.0111787509	-0.461465
C	 0.0224589916	 0.0587976537	-0.01346153	 0.384756
C	-1.0618678464	-0.9921511355	 0.0851263934	-0.13547
C	-0.5069206044	-1.7124891026	-1.138651427	-0.228534
C	 0.8068134089	-0.8446874397	-1.0247410845	-0.258043
C	 1.7802598417	-1.6711846818	-0.1843985788	 0.406132
O	 2.7665645639	-2.2753212575	-0.5408594848	-0.383604
N	 1.226601316	-1.6801605259	 1.0835813384	-0.313439
C	 0.0485178569	-0.8647612915	 1.1589438839	-0.09594
H	 0.7076928952	 1.8054878608	 0.371034535	 0.292436
H	-2.1030100723	-0.8820236855	 0.3635182825	 0.097532
H	-0.3850423511	-2.7991713899	-1.0943626364	 0.111559
H	-1.0610016407	-1.442688494	-2.0395472062	 0.121376
H	 1.2208153745	-0.4324727727	-1.9403845375	 0.098419
H	 1.4665009663	-2.398548056	 1.7476619283	 0.252938
H	-0.2492591075	-0.500700434	 2.1341100744	 0.111345
137.4953	238.8739	305.2117	317.1519	337.3999	419.7928	463.59	509.6144	581.3512	619.8334	729.9298	741.3702	790.8146	824.5999	857.4692	919.3235	924.6597	963.6296	973.4712	1025.7053	1060.6157	1082.5372	1106.2941	1144.6409	1156.3591	1213.1898	1226.1025	1266.9668	1292.1239	1313.1794	1335.766	1387.2324	1474.2151	1505.1463	1830.1302	3055.1367	3119.9792	3165.5745	3188.4615	3203.3107	3644.8642	3781.782
OC12C3CC1C(=O)NC23	O[C@@]12[C@H]3C[C@@H]1C(=O)N[C@@H]23	
InChI=1S/C6H7NO2/c8-5-3-1-2-4(7-5)6(2,3)9/h2-4,9H,1H2,(H,7,8)	InChI=1S/C6H7NO2/c8-5-3-1-2-4(7-5)6(2,3)9/h2-4,9H,1H2,(H,7,8)/t2-,3+,4+,6-/m0/s1
