19
gdb 35229	3.16796	1.18342	1.00469	0.9773	82.06	-0.2453	0.0418	0.2871	1220.5742	0.159119	-385.846826	-385.838275	-385.837331	-385.880946	32.493	
C	-0.0302208253	-1.1917183529	-0.1025598293	-0.456071
C	-0.0009325104	 0.0104530836	-0.0482072472	 0.326211
C	 0.0443775425	 1.4408234879	 0.0022050627	-0.245489
C	 0.4995104282	 2.1596632723	 1.267144669	-0.350199
C	 1.375743323	 2.190796918	 0.0567072191	 0.309328
C	 2.7110097824	 1.4614734998	-0.0254862755	-0.305919
C	 3.2958090334	 2.0508683475	-1.3131763344	-0.078455
O	 2.8766684225	 3.4107991639	-1.3139747434	-0.251294
C	 1.5569186852	 3.461360615	-0.7902026126	-0.134514
H	-0.0673510232	-2.2518770004	-0.1450672706	 0.196161
H	-0.7405914163	 1.9390922699	-0.562010934	 0.111033
H	-0.0399216883	 3.060342062	 1.543585965	 0.117944
H	 0.8032550928	 1.5385150137	 2.1028945919	 0.127023
H	 3.3445391268	 1.7228438192	 0.8289791324	 0.108184
H	 2.5974602814	 0.3755383448	-0.0568553365	 0.121008
H	 4.387751045	 2.0387520943	-1.3549649222	 0.109117
H	 2.9063155267	 1.5190088623	-2.1966045062	 0.094063
H	 0.8157790631	 3.5022412175	-1.6041455949	 0.093737
H	 1.4663427707	 4.3808179116	-0.2006326434	 0.108132
25.1109	130.6767	134.7911	229.0719	298.3631	317.6498	371.2025	481.5197	521.4581	556.6603	585.754	649.7691	666.3733	764.1472	792.3626	863.9035	876.4585	925.5348	953.6686	958.9168	988.4425	1049.2111	1058.1712	1079.9461	1107.2797	1120.7054	1135.091	1196.7469	1224.9131	1248.7745	1262.4884	1297.5392	1326.4643	1359.9043	1393.1596	1417.626	1483.462	1486.8352	1514.1909	1526.7774	2231.7957	2970.4236	2976.7261	3047.1885	3051.7882	3097.2906	3112.9197	3125.1418	3129.5478	3216.573	3504.4751
C#CC1CC11CCOC1	C#C[C@H]1C[C@]21CCOC2	
InChI=1S/C8H10O/c1-2-7-5-8(7)3-4-9-6-8/h1,7H,3-6H2	InChI=1S/C8H10O/c1-2-7-5-8(7)3-4-9-6-8/h1,7H,3-6H2/t7-,8+/m0/s1
