20
gdb 100637	2.47516	1.10894	0.95956	2.0865	75.49	-0.2582	0.0233	0.2815	1306.3613	0.170376	-436.463341	-436.452823	-436.451879	-436.498382	38.95	
C	-0.0015582452	 1.5781741702	 0.1887407199	-0.411656
C	 0.0322791674	 0.0458074617	 0.0550142697	 0.059613
N	 0.6806683714	-0.5125234736	 1.2465832053	-0.510511
C	-1.3628414272	-0.4482146181	-0.086158911	 0.249279
N	-2.4354889992	-0.8709408977	-0.1846170851	-0.346089
C	 0.8189075898	-0.4508639462	-1.2075776994	 0.004791
N	 0.2116381452	-0.1369947482	-2.4985212815	-0.535716
C	 2.276658744	 0.0322709563	-1.2529861393	-0.058236
O	 2.9611105385	-0.6054102311	-2.3078735263	-0.424543
H	 1.005686726	 1.9524131249	 0.3799194769	 0.146753
H	-0.3995490576	 2.0489011389	-0.7136392041	 0.126943
H	-0.6444879274	 1.8729161902	 1.0231397127	 0.134275
H	 0.1901170852	-0.2183895509	 2.0861433908	 0.241952
H	 0.6426542954	-1.5279912501	 1.2266059312	 0.244399
H	 0.8538248303	-1.5457390928	-1.1391951085	 0.099293
H	-0.6836287658	-0.6001207463	-2.6152262721	 0.25367
H	 0.0557881521	 0.8616142136	-2.6010808152	 0.234053
H	 2.297366163	 1.1296077425	-1.3705804245	 0.076632
H	 2.7871511497	-0.2123979556	-0.3195888964	 0.127748
H	 2.3477197144	-0.5817884376	-3.0559679132	 0.287349
71.7326	120.2195	130.5997	186.0716	234.233	240.8289	268.1701	290.2582	309.5975	324.9505	374.6801	425.7937	438.2533	499.7989	542.3194	598.6645	622.5153	740.3133	843.8234	880.6828	897.0792	918.6657	986.9183	1013.156	1046.8791	1084.1192	1129.774	1151.1302	1188.5749	1195.4655	1285.2275	1302.1412	1341.6122	1382.5419	1406.815	1419.7834	1441.313	1484.7464	1497.411	1518.2624	1656.333	1661.3453	2333.6634	2953.1509	3032.9783	3052.3333	3114.9514	3119.8722	3144.4831	3491.3254	3498.0265	3571.22	3583.8876	3737.8489
CC(N)(C#N)C(N)CO	C[C@@](N)(C#N)[C@@H](N)CO	
InChI=1S/C5H11N3O/c1-5(8,3-6)4(7)2-9/h4,9H,2,7-8H2,1H3	InChI=1S/C5H11N3O/c1-5(8,3-6)4(7)2-9/h4,9H,2,7-8H2,1H3/t4-,5+/m0/s1
