17
gdb 70269	3.81338	1.11017	0.97983	4.2461	72.43	-0.2334	0.0193	0.2527	1192.6687	0.137317	-417.995303	-417.987334	-417.98639	-418.027702	30.994	
O	 0.0857709229	 1.3490658155	-0.7232666409	-0.463921
C	-0.0045101563	 0.0732366941	-0.1739710202	 0.378388
C	-0.1880647708	-1.136038086	-1.0692928469	-0.356804
C	-1.3162183134	-0.6648961971	-0.1770456278	-0.035886
N	-1.5261509195	-1.3774155404	 1.0740582499	-0.310963
C	-0.2028105956	-1.3752361334	 1.7513317954	-0.11485
C	 0.6096990318	-0.1620954109	 1.1994008605	-0.307073
C	-0.3450669128	-1.358937602	 3.2050546085	 0.265025
N	-0.4554510432	-1.3282902577	 4.35486184	-0.314979
H	 0.9482519405	 1.4392330544	-1.1436854256	 0.286827
H	-0.3138980005	-0.9212144502	-2.1247286659	 0.122726
H	 0.3271229526	-2.0676230922	-0.8569718924	 0.11802
H	-2.2060655926	-0.2522973436	-0.6358102136	 0.112268
H	-2.1825761211	-0.8447585557	 1.6385010538	 0.238347
H	 0.3164771923	-2.3035492377	 1.4871057197	 0.137149
H	 1.6823133064	-0.376547997	 1.1906124134	 0.114282
H	 0.4416918292	 0.7330768401	 1.8061428919	 0.131444
92.5625	154.8476	230.1609	280.4103	310.0453	365.1364	389.3191	431.3398	520.2443	547.2026	581.0806	636.5431	718.213	782.883	864.2883	890.9839	912.9125	927.8058	980.3326	1012.9942	1029.0878	1055.5661	1065.5211	1110.1384	1141.2044	1167.3444	1238.6339	1265.6287	1289.0934	1317.6526	1334.8145	1361.0115	1410.6602	1461.9245	1489.0862	1505.0642	2362.7384	3038.2817	3054.7797	3104.6406	3130.2733	3197.5574	3221.0079	3503.6643	3790.6592
OC12CC1NC(C2)C#N	O[C@]12C[C@H]1N[C@@H](C2)C#N	
InChI=1S/C6H8N2O/c7-3-4-1-6(9)2-5(6)8-4/h4-5,8-9H,1-2H2	InChI=1S/C6H8N2O/c7-3-4-1-6(9)2-5(6)8-4/h4-5,8-9H,1-2H2/t4-,5+,6+/m0/s1
