19
gdb 55684	3.0789	1.06309	0.96023	3.4328	71.52	-0.2473	-0.0338	0.2135	1298.0715	0.15665	-460.16268	-460.153247	-460.152303	-460.197825	34.148	
C	-0.3489503922	 1.4181692378	-0.0792507617	-0.473919
C	 0.0264034273	-0.0384891981	 0.0792636133	 0.395572
O	 0.192606497	-0.5355744027	 1.1765954725	-0.316555
C	 0.1991408317	-0.8488268218	-1.198851108	-0.374948
C	 0.1143576246	-2.3631134492	-0.9793101097	 0.360354
O	 1.101026648	-2.823633794	-0.1003936357	-0.482791
C	-1.3382568348	-2.8827926026	-0.7745899095	-0.121273
O	-1.3879440123	-3.3500095674	-2.1388668149	-0.276738
C	 0.0364669316	-3.1750074288	-2.286858956	-0.117342
H	 0.3053778344	 1.9084484994	-0.8081647319	 0.144253
H	-1.3698157174	 1.4914837149	-0.4726893568	 0.151378
H	-0.2929746102	 1.9291381759	 0.8824271266	 0.148776
H	-0.534214653	-0.5232835807	-1.9457125684	 0.127687
H	 1.1887175318	-0.5961663553	-1.6073113004	 0.138612
H	 1.0133005378	-2.2826660425	 0.6994951218	 0.291974
H	-1.3833692842	-3.7055897791	-0.0501192642	 0.105894
H	-2.1289317321	-2.1544320234	-0.5591745315	 0.092057
H	 0.297516599	-2.666927101	-3.2224560895	 0.096782
H	 0.5856663531	-4.1220096313	-2.211635046	 0.11023
45.89	82.6482	105.5498	131.7774	195.7652	310.7326	321.7899	339.2044	432.4731	455.814	487.5878	587.8168	612.1485	714.555	803.4085	835.2261	864.2942	930.594	958.7443	973.9765	992.0398	1005.5705	1024.4667	1081.6094	1149.7979	1152.1197	1167.5493	1191.7563	1243.3844	1285.733	1299.4691	1346.4333	1367.8297	1387.353	1432.5894	1447.1637	1460.5034	1474.3377	1501.4231	1528.2942	1785.4989	3010.0207	3014.8808	3022.0949	3037.1828	3065.7658	3068.6808	3072.157	3097.9912	3155.2788	3702.4769
CC(=O)CC1(O)COC1	CC(=O)CC1(O)COC1	
InChI=1S/C6H10O3/c1-5(7)2-6(8)3-9-4-6/h8H,2-4H2,1H3	InChI=1S/C6H10O3/c1-5(7)2-6(8)3-9-4-6/h8H,2-4H2,1H3
