14
gdb 29149	3.04518	1.46388	0.99463	2.9105	69.68	-0.2281	-0.076	0.1521	1105.854	0.099991	-473.871549	-473.863643	-473.862699	-473.904024	29.385	
C	-0.0343750149	 1.4848903565	-0.0293488922	-0.461773
C	-0.0036220864	-0.0103289259	-0.0493567803	 0.177379
N	-0.0241629466	-0.6582762827	-1.1684386818	-0.287848
C	 0.0049990566	-2.026311202	-1.1413352501	 0.312353
O	-0.0209939122	-2.5873886825	-2.3768568794	-0.406201
C	 0.0544821216	-2.7105858293	 0.021714194	-0.086677
O	 0.0772270756	-2.0566740681	 1.2129922507	-0.192241
C	 0.050746141	-0.6831345745	 1.2702303316	 0.388644
O	 0.0707303564	-0.1288490676	 2.3381364039	-0.332416
H	 0.8470739063	 1.8758525878	 0.490104744	 0.153324
H	-0.070464264	 1.8700985186	-1.0483645498	 0.143463
H	-0.9020411944	 1.8391305861	 0.5376133513	 0.153304
H	 0.0011543404	-3.5471859648	-2.2965672078	 0.304616
H	 0.0801498208	-3.7867286515	 0.1352421959	 0.134074
94.3696	141.4009	218.9479	280.9623	316.3636	373.2584	377.2307	417.6545	480.6796	529.0281	601.8855	629.1089	663.4167	784.666	792.9541	814.0847	963.7939	1027.1444	1047.7536	1053.5932	1205.8285	1220.4217	1292.3326	1331.3141	1404.3098	1446.3047	1463.5584	1465.5687	1612.2388	1682.949	1821.4155	3043.5089	3096.6305	3159.0413	3212.1426	3825.0938
CC1=NC(O)=COC1=O	Cc1nc(O)coc1=O	
InChI=1S/C5H5NO3/c1-3-5(8)9-2-4(7)6-3/h2,7H,1H3	InChI=1S/C5H5NO3/c1-3-5(8)9-2-4(7)6-3/h2,7H,1H3
