15
gdb 28259	4.81087	1.27075	1.02319	1.3916	67.72	-0.1839	0.029	0.2129	1098.0555	0.116081	-453.964097	-453.957159	-453.956215	-453.99544	26.8	
O	-0.0936817608	 1.2339498964	 0.0897889784	-0.39482
C	 0.0584147124	-0.0863008785	 0.0353568864	 0.444244
N	 1.1712976101	-0.7524903281	-0.0986621928	-0.471833
C	 0.7115316797	-2.0579211542	-0.0279718386	 0.302288
C	-0.6152770437	-2.1030025762	 0.1748946066	 0.207908
C	-1.1827319243	-3.4573264233	-0.0630822378	-0.33475
C	 0.1690021298	-4.2584446808	 0.0355176762	-0.164275
N	 1.2693007887	-3.3050115992	-0.3210181716	-0.395944
O	-1.0797895383	-0.7898721003	 0.1677942215	-0.209793
H	 0.7882318752	 1.6164439083	-0.0041422955	 0.322609
H	-1.9093187912	-3.822286481	 0.6694058095	 0.115126
H	-1.6354522663	-3.5608670237	-1.0599964285	 0.116194
H	 0.289136352	-4.6113295011	 1.0679257439	 0.109903
H	 0.1873813079	-5.1234196748	-0.6307695618	 0.116221
H	 2.1410972887	-3.5143774832	 0.151704104	 0.236922
130.4209	181.5107	280.8962	315.8119	326.7144	434.2785	526.4718	554.2281	671.1698	683.8687	726.5143	748.228	804.7016	836.4372	868.6841	935.8644	1002.268	1016.1491	1079.0219	1115.6428	1180.2196	1191.5259	1241.094	1265.8431	1306.447	1349.1311	1353.4471	1460.7764	1486.5315	1506.1842	1517.5579	1626.9923	1703.6213	2994.7972	3017.6279	3064.8862	3102.8488	3537.7336	3807.7369
OC1=NC2=C(CCN2)O1	Oc1nc2c(CCN2)o1	
InChI=1S/C5H6N2O2/c8-5-7-4-3(9-5)1-2-6-4/h6H,1-2H2,(H,7,8)	InChI=1S/C5H6N2O2/c8-5-7-4-3(9-5)1-2-6-4/h6H,1-2H2,(H,7,8)
