16
gdb 22001	3.51089	1.23681	0.91461	1.237	90.77	-0.1925	-0.0664	0.1261	1212.7176	0.126654	-400.735151	-400.727601	-400.726657	-400.767432	29.239	
O	-0.0379047965	 1.3537462322	 0.007374676	-0.398683
N	 0.0564732024	-0.04447549	 0.0026911402	-0.211582
C	-1.1122943022	-0.6207486898	 0.0091467352	 0.266117
C	-2.3711448106	 0.1194836378	 0.0196607076	-0.138046
C	-3.6413642377	-0.3430390631	 0.0279580853	-0.083947
C	-4.1454697403	-1.6935098899	 0.0290214744	-0.097774
C	-3.4360842014	-2.8461785735	 0.0208939248	-0.087394
C	-2.0050877351	-3.0093295923	 0.0092846249	-0.10094
C	-1.0301838886	-2.0729963954	 0.0043647058	-0.08545
H	 0.888261729	 1.6151488771	 0.001507997	 0.30672
H	-2.241083541	 1.1946768939	 0.0207883401	 0.125278
H	-4.415376553	 0.4215021264	 0.0350582051	 0.100359
H	-5.2285482714	-1.7806637127	 0.0372606598	 0.098212
H	-4.0048196171	-3.7725552613	 0.0232288297	 0.100004
H	-1.666385787	-4.0421719744	 0.0038100953	 0.097917
H	-0.0014772996	-2.423868085	-0.0045058613	 0.109209
58.1879	223.8518	258.1576	301.1304	349.9862	366.2764	437.657	452.5685	552.4872	566.2648	615.1662	742.9219	793.6327	836.8621	841.3062	900.3085	900.6677	939.5595	988.0457	1008.1177	1030.1854	1042.5566	1046.6833	1250.5614	1263.352	1279.0424	1334.2962	1372.9911	1435.8411	1472.0595	1498.1338	1599.3638	1629.4899	1659.7512	1702.3421	3142.6538	3148.954	3159.4374	3172.3661	3179.5124	3213.799	3828.3449
ON=C1C=CC=CC=C1	ON=c1cccccc1	
InChI=1S/C7H7NO/c9-8-7-5-3-1-2-4-6-7/h1-6,9H	InChI=1S/C7H7NO/c9-8-7-5-3-1-2-4-6-7/h1-6,9H
