21
gdb 95042	2.06436	1.91769	1.1876	2.7686	81.6	-0.2337	-0.0199	0.2138	1107.8784	0.183446	-387.123628	-387.115325	-387.114381	-387.156604	32.648	
C	-0.0615800508	 1.5714076986	-0.1090366039	-0.407474
C	 0.1132621608	 0.0536279129	-0.0724508892	 0.034285
C	 0.9827134297	-0.5361749392	-1.201990263	-0.224411
C	 1.3187404827	-1.9600999449	-0.7194614683	-0.221229
C	 1.5298607798	-1.8241332191	 0.7995077329	-0.021421
C	 2.8892137771	-1.1971671307	 1.2416384262	-0.359468
C	 2.1373435682	 0.0941723864	 1.5961672343	 0.41285
O	 2.4811270251	 1.163558837	 2.0142558073	-0.307145
C	 0.7718685928	-0.5066386843	 1.2122038766	-0.152866
H	 0.8994019483	 2.0858260436	-0.0182218936	 0.135326
H	-0.5299817712	 1.8835365219	-1.048489094	 0.109191
H	-0.697451273	 1.9175837696	 0.7120809219	 0.116114
H	-0.8794202344	-0.4136167605	-0.1404508037	 0.07516
H	 0.4760409504	-0.523261659	-2.1713530287	 0.097655
H	 1.8981619506	 0.0601012593	-1.3136255627	 0.103024
H	 0.4667596392	-2.6226956777	-0.9123758841	 0.09876
H	 2.1852314801	-2.39502823	-1.2278627823	 0.097173
H	 1.2671516492	-2.7290053907	 1.3482430609	 0.071778
H	 3.3576439981	-1.6686838242	 2.1114320868	 0.128821
H	 3.6531675166	-1.0837845637	 0.4647377726	 0.124567
H	 0.0774362909	-0.5523629655	 2.0559746239	 0.089308
56.842	151.4765	188.8291	228.7133	297.2507	341.1144	423.4555	430.446	513.181	555.5536	572.1664	717.1734	731.9986	808.7871	831.9398	864.1338	919.6296	929.3402	943.6355	970.5523	984.2068	1008.9703	1065.1685	1073.7319	1076.4974	1145.8205	1157.8214	1164.2564	1176.7159	1216.6943	1231.6434	1259.5078	1266.4378	1307.9997	1327.2479	1348.4022	1354.2014	1372.1612	1418.9604	1432.1012	1488.5146	1496.5789	1499.2266	1502.401	1877.2818	2997.9588	3024.5881	3034.3425	3036.0828	3045.6594	3072.5985	3079.3256	3088.3855	3093.5271	3099.6543	3106.728	3115.923
CC1CCC2CC(=O)C12	C[C@H]1CC[C@H]2CC(=O)[C@@H]12	
InChI=1S/C8H12O/c1-5-2-3-6-4-7(9)8(5)6/h5-6,8H,2-4H2,1H3	InChI=1S/C8H12O/c1-5-2-3-6-4-7(9)8(5)6/h5-6,8H,2-4H2,1H3/t5-,6-,8-/m0/s1
