16
gdb 80197	2.14299	1.59064	1.20792	5.645	75.92	-0.2654	-0.0364	0.229	1081.1974	0.123607	-400.757901	-400.749604	-400.74866	-400.790896	30.684	
C	-0.0070006779	 1.540905927	 0.0109408265	-0.424314
C	 0.0970705495	 0.0339746398	-0.0922716485	-0.050314
C	 0.7068984418	-0.734848853	-1.2068425802	-0.114767
C	 1.9154902183	-0.0090638247	-1.8130616229	-0.360213
C	 2.5790301595	-0.0456713233	-0.4159141781	 0.351698
O	 3.6706702411	 0.2190847633	-0.0144121464	-0.282679
C	 1.3891130408	-0.7527718755	 0.2096954041	 0.068526
C	 1.4342182316	-1.7664972029	 1.2076520241	 0.195933
N	 1.478607306	-2.5948385306	 2.0151436311	-0.344094
H	 0.8603381471	 2.0577220798	-0.4051986074	 0.137525
H	-0.8968632628	 1.891267355	-0.522431861	 0.13445
H	-0.1023806359	 1.8419195273	 1.0582006298	 0.144434
H	-0.7512969623	-0.4843432955	 0.3499328255	 0.12804
H	 0.2166178704	-1.587169218	-1.6580349031	 0.130213
H	 2.4934440757	-0.6351995326	-2.4987998024	 0.150269
H	 1.7447825072	 0.964378634	-2.278371651	 0.135295
97.7864	132.092	149.8644	181.4046	257.3514	334.997	392.5317	476.8633	506.4932	531.1364	598.1592	646.3188	664.9961	751.4848	834.9971	877.9775	945.9753	980.2382	997.1812	1026.1021	1056.0683	1101.0403	1109.8918	1145.0095	1220.6019	1243.2382	1281.477	1332.7512	1417.4534	1440.4551	1462.8703	1491.5559	1501.443	1895.6268	2345.283	3045.4669	3068.6189	3110.0189	3119.9236	3126.2911	3144.9074	3213.0516
CC1C2CC(=O)C12C#N	C[C@H]1[C@H]2CC(=O)[C@@]12C#N	
InChI=1S/C7H7NO/c1-4-5-2-6(9)7(4,5)3-8/h4-5H,2H2,1H3	InChI=1S/C7H7NO/c1-4-5-2-6(9)7(4,5)3-8/h4-5H,2H2,1H3/t4-,5+,7-/m0/s1
