19
gdb 114229	3.27745	1.21752	1.10542	1.7826	78.79	-0.2197	0.0118	0.2315	1177.2835	0.158811	-423.010108	-423.001722	-423.000777	-423.043372	32.42	
O	-0.1379469117	 1.4818777008	 0.3584295292	-0.420053
C	 0.0040427569	 0.1063949279	 0.0862316605	-0.069798
C	-1.3499626247	-0.5807470911	-0.1183608603	 0.029665
O	-2.1319257707	-0.366465628	 1.0721819562	-0.330043
C	-3.4276752847	 0.0810630489	 0.713248479	 0.425283
C	-4.612936918	-0.5208150495	 1.4282805354	-0.322718
C	-4.1794367312	 0.9036904329	 1.7208835158	-0.329795
C	-3.3893028771	 0.3426564987	-0.7418101512	-0.162934
C	-2.2084274351	-0.026512005	-1.226527374	-0.092714
H	-0.7992830994	 1.538701426	 1.0590754542	 0.287458
H	 0.6052247932	 0.0113007191	-0.8249594144	 0.105435
H	 0.5390535878	-0.4155645521	 0.8958994087	 0.09261
H	-1.1718293896	-1.6618912581	-0.2535091153	 0.081621
H	-5.5289202454	-0.6871895631	 0.8713353267	 0.114932
H	-4.3893208911	-1.2706033515	 2.1787072915	 0.127207
H	-3.6779701908	 1.0834063247	 2.6657457462	 0.124239
H	-4.7937198499	 1.7250337636	 1.3673950026	 0.117817
H	-4.2259371665	 0.758591499	-1.2876558147	 0.111792
H	-1.877267672	 0.0272402969	-2.255153536	 0.109996
57.7306	113.0613	181.3654	237.6235	267.4693	353.9918	374.2824	441.5246	519.2463	536.7218	664.3711	730.1599	764.5652	803.0218	851.4792	874.367	878.0303	895.3021	925.8562	931.8622	945.9917	992.2798	1030.5333	1054.0785	1067.421	1077.3429	1093.4451	1135.8847	1190.8789	1215.0235	1247.3218	1294.5873	1330.1486	1343.1038	1395.1063	1407.3662	1428.3586	1449.5331	1491.1822	1498.478	1681.5015	2946.5834	2980.6532	3069.5552	3129.8324	3133.1379	3212.4127	3215.0781	3230.5551	3236.1429	3784.3911
OCC1OC2(CC2)C=C1	OC[C@H]1OC2(CC2)C=C1	
InChI=1S/C7H10O2/c8-5-6-1-2-7(9-6)3-4-7/h1-2,6,8H,3-5H2	InChI=1S/C7H10O2/c8-5-6-1-2-7(9-6)3-4-7/h1-2,6,8H,3-5H2/t6-/m0/s1
