17
gdb 60502	3.12008	1.01088	0.88621	2.3703	73.8	-0.26	-0.0907	0.1693	1322.991	0.134507	-417.996714	-417.98729	-417.986346	-418.032057	32.891	
C	 0.1131293821	 1.2966380993	 0.1863246945	-0.41542
C	 0.0067242594	-0.2232461133	-0.074966303	-0.144237
C	-1.4290977542	-0.7024312471	-0.1129824274	 0.037444
C	-1.7823383948	-2.0708954906	 0.3303072279	-0.244949
N	-2.1669096116	-0.900939526	 1.1431348085	-0.329815
C	 0.7263016075	-0.5704388428	-1.3686608171	 0.301777
O	 0.2017062694	-0.9709531662	-2.3753638099	-0.266228
C	 2.1954411108	-0.3650042453	-1.3325522873	 0.237163
N	 3.3405844517	-0.2111691314	-1.283130396	-0.300702
H	 1.1544194883	 1.6279880131	 0.2225452779	 0.14763
H	-0.4031220538	 1.8590174153	-0.5974829113	 0.141886
H	-0.3573291092	 1.5375053427	 1.142734308	 0.14234
H	 0.5449441902	-0.7437438651	 0.7314247222	 0.106681
H	-2.0271906203	-0.2495253414	-0.8995202488	 0.111723
H	-2.6083372839	-2.5967298529	-0.1382540431	 0.131788
H	-0.9829869225	-2.7146625615	 0.6897280299	 0.113387
H	-1.538132569	-0.8145986069	 1.9393386449	 0.229531
35.4075	76.4787	123.9988	180.7093	203.7515	224.9223	272.3403	296.4671	383.3516	447.7347	463.8205	608.2829	726.484	787.8437	795.2785	866.2363	913.2907	958.763	973.6247	1031.3628	1045.1943	1088.2328	1108.5039	1138.5127	1161.0321	1235.1628	1255.1306	1284.2163	1298.0483	1331.2641	1410.9801	1434.2465	1495.7332	1499.9673	1514.7661	1798.3649	2334.3751	3002.9313	3046.688	3110.84	3122.6874	3128.5286	3144.5855	3199.0437	3482.6255
CC(C1CN1)C(=O)C#N	C[C@@H]([C@H]1CN1)C(=O)C#N	
InChI=1S/C6H8N2O/c1-4(5-3-8-5)6(9)2-7/h4-5,8H,3H2,1H3	InChI=1S/C6H8N2O/c1-4(5-3-8-5)6(9)2-7/h4-5,8H,3H2,1H3/t4-,5+/m0/s1
