15
gdb 54903	3.66065	1.21908	0.99974	1.2987	70.18	-0.2462	-0.0409	0.2053	1139.9288	0.113581	-454.001956	-453.993995	-453.993051	-454.035009	29.649	
N	 0.6781305835	-0.1755033099	-0.5690113322	-0.51476
C	-0.2183698409	 0.3923960061	 0.2687803895	 0.370034
O	-0.0962537969	 1.4746810424	 0.8051936308	-0.365698
C	-1.4786120026	-0.4534256095	 0.5386886642	-0.040163
O	-1.5023693286	-1.6835199212	-0.1948661312	-0.266745
C	-1.6124379327	-2.7504533498	 0.6850363019	 0.389344
N	-1.6649681761	-3.9657324942	 0.3424275099	-0.539394
C	-1.6503641639	-2.1994752452	 2.0442057401	-0.138626
C	-1.5742395557	-0.8707900707	 1.9797725295	-0.088348
H	 1.5166338916	 0.3305481936	-0.8010328701	 0.268779
H	 0.4765816175	-1.0573878444	-1.0078704126	 0.277175
H	-2.3351097703	 0.160495448	 0.231051023	 0.138332
H	-1.6221855576	-4.0622171905	-0.6728507804	 0.224069
H	-1.7250371042	-2.8296441291	 2.9174754609	 0.137959
H	-1.559577623	-0.1503468957	 2.7845948266	 0.148041
61.4873	97.0099	178.8168	279.0078	311.0445	379.3216	395.1922	486.6541	532.6664	610.9311	680.3792	711.0894	713.8349	809.0204	826.7323	874.7736	895.9962	919.3805	977.9481	985.4299	1040.5986	1079.8966	1098.4209	1117.4918	1238.3413	1288.8775	1323.9059	1361.6883	1369.599	1600.148	1658.1042	1766.4214	1809.4648	3032.0004	3245.8692	3268.3443	3484.73	3603.3078	3742.4264
NC(=O)C1OC(=N)C=C1	NC(=O)[C@H]1OC(=C[CH]1)[NH]	
InChI=1S/C5H6N2O2/c6-4-2-1-3(9-4)5(7)8/h1-3,6H,(H2,7,8)	InChI=1S/C5H6N2O2/c6-4-2-1-3(9-4)5(7)8/h1-3,6H,(H2,7,8)/t3-/m0/s1
