21
gdb 40768	2.83283	1.3267	1.0806	2.1893	82.95	-0.2311	0.0807	0.3118	1197.2905	0.183699	-383.194475	-383.186042	-383.185098	-383.227811	32.707	
C	-0.1601513199	 1.0923094502	-0.4545000934	-0.225097
C	 1.2081533459	 0.9633202461	 0.1208940978	-0.220748
N	 0.290190625	-0.1685010817	 0.1197626413	-0.087166
C	-0.2390150458	-0.6318215345	 1.3864737415	-0.01825
C	-0.8822410069	 0.2746038167	 2.4965473794	-0.26343
C	-1.960848603	-0.8298942536	 2.7110287068	-0.2979
C	-1.5523379546	-1.4196046682	 1.359627708	 0.359624
C	-2.3901955718	-1.6507197097	 0.1637794622	-0.301689
N	-1.782694886	-2.7803826321	 0.90259212	-0.379867
H	-0.8762996732	 1.7003990283	 0.0922324763	 0.114834
H	-0.305225847	 1.085910107	-1.5312745682	 0.115922
H	 2.0773445906	 0.8741367509	-0.525204954	 0.116531
H	 1.3922072121	 1.4701064411	 1.0666721131	 0.11376
H	 0.5474800048	-1.2447711141	 1.8455727335	 0.085
H	-0.2511243315	 0.5317224967	 3.3491896507	 0.099416
H	-1.322987176	 1.1899982034	 2.0952597671	 0.106514
H	-1.7142514889	-1.5012691808	 3.5384880133	 0.11079
H	-2.9959140973	-0.4996419778	 2.8208773991	 0.104329
H	-3.473152828	-1.5885850689	 0.2382209367	 0.112151
H	-1.9760887925	-1.3849571121	-0.8045708412	 0.122176
H	-0.963865576	-3.1132497872	 0.3965199399	 0.233101
71.7522	97.5291	149.7664	243.8551	275.3341	306.6106	358.8941	459.6725	523.7567	555.2152	699.0089	764.7143	812.2983	836.7982	862.8022	895.9835	907.7692	914.1231	955.6276	965.9766	982.3597	1031.9656	1034.9195	1066.7437	1101.2377	1103.8116	1120.7709	1122.728	1139.4912	1173.2381	1185.2225	1188.6719	1239.5075	1246.0716	1266.8366	1283.4582	1305.3364	1337.7566	1384.2297	1415.31	1476.5141	1490.798	1499.1811	1511.013	1522.5765	3020.7603	3060.9501	3071.4549	3096.515	3105.0995	3107.5218	3110.4974	3128.5868	3177.1164	3192.7934	3194.8735	3481.1876
C1CN1C1CCC11CN1	C1CN1[C@H]1CC[C@]21CN2	
InChI=1S/C7H12N2/c1-2-7(5-8-7)6(1)9-3-4-9/h6,8H,1-5H2	InChI=1S/C7H12N2/c1-2-7(5-8-7)6(1)9-3-4-9/h6,8H,1-5H2/t6-,7+/m0/s1
