23
gdb 64434	2.4793	1.43294	1.1495	1.6091	86.49	-0.2416	0.0098	0.2514	1194.7992	0.206717	-388.311313	-388.302192	-388.301248	-388.344439	36.568	
C	-0.0192346843	 1.5943793229	-0.0171860487	-0.403532
C	-0.0302552271	 0.0642958892	 0.0142692509	 0.351915
O	-1.4102691729	-0.3063125201	-0.0137042236	-0.471889
C	 0.6980874372	-0.4739490245	-1.2405158784	-0.192781
C	 0.6053831198	-1.9836636333	-1.4941467694	-0.213109
C	 1.3118376156	-2.8746023897	-0.4554940006	-0.241926
C	 0.6467184077	-2.9270744268	 0.9005890008	-0.051732
C	 0.3573197697	-1.8755680951	 1.6704328493	-0.089976
C	 0.624606466	-0.4264316678	 1.3323666897	-0.265532
H	 1.0048887298	 1.9801659055	 0.0036880925	 0.107399
H	-0.507565828	 1.957912259	-0.925947672	 0.118903
H	-0.5619242008	 1.994972172	 0.8435741951	 0.1162
H	-1.4601671161	-1.233428763	 0.2481941359	 0.27549
H	 0.2741182885	 0.0436465784	-2.1088262293	 0.095498
H	 1.7551365311	-0.1790555315	-1.1865101509	 0.084255
H	-0.4492269528	-2.2747895093	-1.5699731034	 0.09908
H	 1.0473302736	-2.1873623322	-2.4766796483	 0.09335
H	 1.3832775759	-3.8916642282	-0.8542337206	 0.098812
H	 2.3493450736	-2.5247892079	-0.3404493823	 0.107621
H	 0.4037000461	-3.9177578864	 1.2790883192	 0.088614
H	-0.1110545607	-2.0628455347	 2.6339010763	 0.089362
H	 1.7069674006	-0.2450957303	 1.2740483366	 0.10412
H	 0.2500857176	 0.1992270537	 2.1482164712	 0.09986
98.8084	129.9784	217.0736	258.2351	272.2849	304.3042	370.3784	385.387	399.1398	416.2044	449.6335	494.1717	548.1295	657.3509	713.3408	769.6247	827.5792	865.3863	888.9445	900.6337	935.078	967.2342	988.4305	1004.3669	1034.3291	1050.4203	1075.2748	1101.6622	1138.7513	1168.577	1218.7955	1243.6253	1274.9163	1280.9397	1306.7744	1335.3779	1358.9982	1365.7475	1382.637	1408.5813	1418.5892	1424.6159	1464.8377	1478.883	1485.0191	1487.9118	1494.7331	1499.4776	1716.9276	2992.2942	3008.9146	3016.4132	3027.8334	3040.0046	3059.7259	3066.8704	3068.6181	3075.3482	3113.9763	3116.9975	3136.8109	3161.3867	3774.9786
CC1(O)CCCC=CC1	C[C@@]1(O)CCCC=CC1	
InChI=1S/C8H14O/c1-8(9)6-4-2-3-5-7-8/h2,4,9H,3,5-7H2,1H3	InChI=1S/C8H14O/c1-8(9)6-4-2-3-5-7-8/h2,4,9H,3,5-7H2,1H3/t8-/m0/s1
