17
gdb 14832	2.74995	1.81981	1.16581	2.3169	67.44	-0.2566	0.0201	0.2767	1027.6703	0.142051	-400.98842	-400.980016	-400.979072	-401.02183	29.477	
C	-0.0010193199	 1.223545275	-0.1204421442	-0.343495
N	 0.2327058244	-0.2145358711	-0.0748106063	-0.34408
C	 0.6146431557	-0.7487287307	 0.9929944664	 0.481035
O	 0.8548885993	-0.2207466569	 2.2472398675	-0.26533
C	 1.056453768	-1.562941542	 2.8010076047	-0.111069
C	 0.851633583	-2.1835486781	 1.4007942544	-0.180081
C	-0.355930297	-3.0815816202	 1.1216796457	-0.068441
O	-0.5780918682	-3.1826545142	-0.2661483566	-0.420597
H	 0.6869584484	 1.6772184396	-0.8420901197	 0.132825
H	-1.0167895729	 1.4091737303	-0.4847130815	 0.130563
H	 0.1247650052	 1.7227662084	 0.8468499272	 0.130233
H	 2.0509804329	-1.6593054693	 3.2409897126	 0.126083
H	 0.2859568308	-1.7912243333	 3.5425057732	 0.124495
H	 1.7532642791	-2.6181270782	 0.9628814029	 0.115806
H	-0.1818061418	-4.0961336421	 1.4962118332	 0.109201
H	-1.2360073438	-2.6797036656	 1.6528095588	 0.086074
H	-0.5819693931	-2.2783595817	-0.6159131084	 0.296776
82.3312	112.5752	116.5955	168.9949	205.7793	246.0544	367.1975	407.1281	536.191	547.174	693.8039	734.1256	821.631	897.1838	957.1781	1000.975	1042.85	1079.5108	1091.3228	1121.662	1131.085	1140.9863	1163.8025	1189.9551	1202.8941	1262.8027	1314.77	1364.6645	1389.5038	1439.4554	1462.1012	1493.8812	1497.8111	1511.4527	1516.4401	1835.2598	2955.8645	3021.8079	3062.7966	3064.2427	3088.0395	3092.0905	3094.4767	3125.5403	3701.2906
CN=C1OCC1CO	CN=C1OC[C@H]1CO	
InChI=1S/C5H9NO2/c1-6-5-4(2-7)3-8-5/h4,7H,2-3H2,1H3	InChI=1S/C5H9NO2/c1-6-5-4(2-7)3-8-5/h4,7H,2-3H2,1H3/t4-/m1/s1
