18
gdb 69169	2.14959	1.87221	1.26733	4.787	77.46	-0.2315	-0.0139	0.2176	1046.3494	0.147008	-401.91056	-401.902258	-401.901314	-401.943215	31.786	
C	 0.0058227915	 1.5425113276	 0.0351008768	-0.508018
C	 0.0255154269	 0.0431688104	-0.0034353638	 0.268227
C	-0.8828618434	-0.8491126599	 0.77177889	-0.330613
C	 0.6163968857	-0.9521098899	 1.0379677288	-0.246778
C	 1.2718580505	-1.7107390082	-0.0858123963	 0.40291
O	 2.0931642298	-2.5799934669	-0.1403467388	-0.318066
C	 0.6347591454	-0.7913214014	-1.134446253	 0.165129
C	 0.1374670479	-1.0390758781	-2.5070900398	-0.307102
N	 1.3942738152	-0.3007978042	-2.2830961324	-0.362494
H	 0.9925113301	 1.9623923528	-0.1885886091	 0.132277
H	-0.7076280283	 1.9497262488	-0.6919895073	 0.12695
H	-0.2956701532	 1.9045863296	 1.0225718589	 0.131194
H	-1.4368778808	-0.383286214	 1.5819453366	 0.123039
H	-1.409063241	-1.6664201297	 0.2866055112	 0.124891
H	 1.0295889569	-0.7700983291	 2.0222075829	 0.111924
H	 0.2641187555	-2.0200867788	-2.9561771076	 0.135679
H	-0.7451612153	-0.4919150298	-2.8306708527	 0.1151
H	 1.2368949367	 0.6990575606	-2.3969648741	 0.23575
98.9173	178.8283	190.3934	209.795	224.8542	279.475	356.3766	457.0481	495.6531	590.3266	624.7556	698.0893	729.7839	780.5242	845.7042	892.5745	918.483	944.7907	970.9626	982.946	991.3637	1028.0331	1044.7555	1072.4929	1102.8878	1119.9374	1130.7564	1203.7125	1243.4489	1258.5672	1272.5036	1382.6624	1408.2095	1424.2569	1486.1906	1496.0483	1498.305	1506.5269	1888.7796	3023.776	3083.0987	3103.1934	3105.8545	3113.0292	3193.3132	3194.2389	3201.5226	3481.1963
CC12CC1C(=O)C21CN1	C[C@]12C[C@H]1C(=O)[C@]12CN1	
InChI=1S/C7H9NO/c1-6-2-4(6)5(9)7(6)3-8-7/h4,8H,2-3H2,1H3	InChI=1S/C7H9NO/c1-6-2-4(6)5(9)7(6)3-8-7/h4,8H,2-3H2,1H3/t4-,6-,7-/m0/s1
