18
gdb 68436	2.70214	1.60679	1.25285	1.181	77.05	-0.228	0.0473	0.2753	1034.4899	0.148226	-401.874458	-401.866609	-401.865664	-401.906402	31.696	
O	-0.1087694023	 1.3865381051	 0.0729171332	-0.47763
C	 0.0397004282	 0.0092278756	 0.0529716794	 0.378082
C	 0.8807566942	-0.7972262999	-0.9778742261	-0.240659
N	 0.7931262505	-1.9254247091	 0.0263902876	-0.12129
C	 0.8232832523	-0.8470229549	 1.0895986092	-0.246738
C	-0.6716580039	-2.2024750562	-0.0258351421	-0.188645
C	-1.3070520447	-0.7569245345	-0.0133843228	-0.214317
C	-2.208449694	-0.4975432907	 1.0946417569	 0.325108
C	-2.9518140096	-0.3123708087	 2.0217599584	-0.457674
H	 0.7620838074	 1.7889154709	 0.154221375	 0.284987
H	 0.4634153357	-1.0139171557	-1.9657656236	 0.103255
H	 1.913308283	-0.4488885445	-1.067232432	 0.100829
H	 1.8503128746	-0.5082652535	 1.250544806	 0.100292
H	 0.3470262842	-1.1051794296	 2.0381689542	 0.119078
H	-0.9136903895	-2.7572438427	-0.9349618483	 0.112085
H	-0.9744031539	-2.7912419629	 0.8413536004	 0.123721
H	-1.8146851777	-0.5295564948	-0.9568177292	 0.10643
H	-3.6118895947	-0.1330371438	 2.8337970138	 0.193086
121.4681	136.6134	268.5885	306.7163	332.1556	402.621	446.3225	478.892	509.4893	584.07	610.8177	634.9726	637.1745	687.7312	817.5177	835.1608	865.6877	889.3253	959.4004	970.7246	1005.7753	1022.0106	1056.4106	1064.7425	1116.184	1128.0557	1200.4825	1213.3126	1214.2011	1239.4111	1249.2412	1313.8638	1321.2985	1348.2973	1391.806	1493.4177	1499.0938	1532.6571	2233.087	3048.2678	3049.1532	3060.3806	3076.0588	3112.4065	3125.2676	3133.2037	3504.5405	3815.5347
OC12CN(C1)CC2C#C	O[C@@]12CN(C1)C[C@H]2C#C	
InChI=1S/C7H9NO/c1-2-6-3-8-4-7(6,9)5-8/h1,6,9H,3-5H2	InChI=1S/C7H9NO/c1-2-6-3-8-4-7(6,9)5-8/h1,6,9H,3-5H2/t6-/m1/s1
