17
gdb 34875	2.2701	1.75018	1.21122	2.0017	78.33	-0.2484	0.0403	0.2886	1055.828	0.1342	-384.593121	-384.585126	-384.584182	-384.625585	31.18	
C	-0.0963295756	-1.2378007233	-0.0589348425	-0.461111
C	-0.0549647285	-0.0372486945	-0.0050330915	 0.354879
C	 0.0139220455	 1.4084401456	 0.0368750581	-0.330437
C	-0.2240315099	 2.1184976149	 1.3981058751	 0.027791
O	 0.8194644254	 1.7434542693	 2.2893349047	-0.233981
C	 1.0860855576	 2.7833878615	 1.3322892269	-0.082717
C	 1.4175449838	 2.1043077879	 0.0207647616	 0.372923
C	 2.7259104058	 1.5483488579	-0.4350399189	-0.320972
C	 2.0883693386	 2.702678048	-1.1781847401	-0.338037
H	-0.1378713172	-2.2983581912	-0.0883817745	 0.196343
H	-0.6295019589	 1.8501352081	-0.7325805415	 0.108684
H	-1.1709090109	 2.4301306975	 1.82260318	 0.111934
H	 1.415926368	 3.7423652262	 1.7143097583	 0.110801
H	 3.6055377323	 1.7430286982	 0.1692508829	 0.119479
H	 2.7078737042	 0.5688977515	-0.9016374737	 0.129496
H	 1.6557304454	 2.5104651075	-2.1549323958	 0.118834
H	 2.5325891744	 3.6879545448	-1.075307949	 0.116091
96.6341	127.2621	180.7731	253.8554	290.0906	357.9442	476.8869	499.6335	559.3434	619.6777	631.7425	663.55	768.8942	776.0409	847.1315	862.2771	883.0821	889.3382	940.9163	971.818	996.0043	1010.7645	1050.3781	1058.3325	1065.0339	1079.4565	1170.1588	1185.2091	1205.513	1227.6513	1259.475	1320.0818	1378.1875	1396.257	1463.0382	1503.6783	2235.3789	3045.3747	3123.0442	3131.3227	3182.7915	3197.3632	3202.5925	3219.8797	3503.2904
C#CC1C2OC2C11CC1	C#C[C@H]1[C@H]2O[C@H]2C21CC2	
InChI=1S/C8H8O/c1-2-5-6-7(9-6)8(5)3-4-8/h1,5-7H,3-4H2	InChI=1S/C8H8O/c1-2-5-6-7(9-6)8(5)3-4-8/h1,5-7H,3-4H2/t5-,6+,7+/m0/s1
