21
gdb 108088	2.5778	1.4639	1.20582	1.7448	82.63	-0.2209	0.0891	0.31	1161.0831	0.18171	-387.03932	-387.030484	-387.02954	-387.072756	33.872	
C	 0.2346043791	 1.4360479814	 0.146280433	-0.373745
C	-0.1103119394	-0.0169214912	-0.2084608136	-0.312547
C	 0.6825562171	-0.5274691795	-1.366814411	 0.457796
O	 0.5112636081	 0.0894714561	-2.6503096622	-0.336999
C	 1.2640833793	-1.0264678741	-3.1999017665	 0.024259
C	 2.708837374	-0.7767633265	-2.7002783671	-0.237472
C	 2.1344883103	-1.0641923187	-1.3147711212	-0.207256
C	 0.9820117233	-1.8885159455	-1.9037103857	 0.210386
C	 0.4691361485	-3.2676264937	-1.6485848276	-0.53282
H	 1.2836615568	 1.5281109781	 0.4445954397	 0.117497
H	 0.0739222322	 2.0891858764	-0.7159270857	 0.137716
H	-0.3881701462	 1.7966266366	 0.9702218072	 0.108274
H	 0.0726515748	-0.6721925334	 0.6519546202	 0.101721
H	-1.1785609601	-0.098611508	-0.4447842582	 0.108326
H	 1.0152322024	-1.2515480036	-4.2356120096	 0.081453
H	 3.393252096	-1.565767386	-3.024282286	 0.098885
H	 3.1307822775	 0.2105756749	-2.913898918	 0.097203
H	 2.6580227224	-1.2272201399	-0.3800929693	 0.083404
H	 0.3733277648	-3.449207758	-0.572460646	 0.124537
H	-0.5175574868	-3.4203919735	-2.1005324112	 0.126786
H	 1.1442428558	-4.0321323517	-2.0506341513	 0.122596
76.2799	119.4461	191.1085	204.1334	209.2995	253.4445	323.3974	366.163	481.2028	573.1518	587.2027	676.3937	735.7699	780.9428	804.2961	833.1557	888.9825	913.6807	933.2954	942.9048	972.6371	989.7844	1001.7193	1061.0111	1095.3877	1105.8941	1127.2394	1135.5045	1155.3324	1181.7907	1222.6216	1265.007	1267.6469	1311.0575	1320.9651	1368.6027	1406.5392	1413.2279	1472.0115	1480.0305	1486.2276	1492.0226	1495.7364	1502.7314	1515.4112	3020.3436	3025.7501	3041.0102	3044.5518	3061.1054	3080.0669	3090.6142	3105.0405	3110.6377	3120.1501	3135.7328	3186.2558
CCC12OC3CC1C23C	CC[C@@]12O[C@H]3C[C@@H]1[C@@]23C	
InChI=1S/C8H12O/c1-3-8-5-4-6(9-8)7(5,8)2/h5-6H,3-4H2,1-2H3	InChI=1S/C8H12O/c1-3-8-5-4-6(9-8)7(5,8)2/h5-6H,3-4H2,1-2H3/t5-,6+,7-,8-/m1/s1
