16
gdb 31601	3.38555	1.04384	0.83161	1.9734	69.89	-0.1772	0.0381	0.2154	1324.0511	0.123753	-475.039452	-475.030283	-475.029339	-475.073495	33.67	
O	 0.6325406988	 0.2164826679	-0.7871796835	-0.419248
C	-0.1243583807	 0.3150685167	 0.4226053564	-0.18035
C	-1.5045660887	-0.2248207274	 0.2873048466	 0.275084
C	-2.7362230155	 0.3070793114	 0.600309845	-0.364564
C	-3.72024603	-0.6705581784	 0.2697034746	 0.156657
O	-5.0897356284	-0.6543365453	 0.4465370653	-0.463114
C	-3.0558868942	-1.7628965247	-0.2356898174	 0.31621
O	-3.5157227532	-2.9464058351	-0.705418687	-0.441145
N	-1.7176738376	-1.5035611403	-0.2065158884	-0.345963
H	 0.1209671854	 0.659586276	-1.4732995991	 0.278128
H	 0.4657497746	-0.2502770439	 1.1550846524	 0.114449
H	-0.1859635969	 1.3506571062	 0.787090391	 0.100355
H	-2.9124290077	 1.2781615128	 1.0384078657	 0.096277
H	-5.4541516439	 0.1035345806	-0.0223741195	 0.295952
H	-4.4766054398	-2.917155819	-0.6190389064	 0.30999
H	-1.0046079623	-2.0939379476	-0.5997736455	 0.271283
56.334	119.4405	198.9181	237.2926	251.055	268.9707	304.8425	358.5233	373.2464	405.7446	456.1063	525.2391	608.8385	662.953	664.8755	702.5845	779.092	830.1588	967.8629	999.6286	1036.3588	1140.1669	1154.3229	1190.5548	1200.5716	1257.1227	1292.5533	1352.1045	1392.0581	1423.2963	1433.6696	1500.5874	1558.1639	1572.1068	1685.67	3001.3325	3041.5543	3242.7016	3676.7752	3798.3371	3798.5213	3800.9504
OCC1=CC(O)=C(O)N1	OCc1cc(O)c(O)[nH]1	
InChI=1S/C5H7NO3/c7-2-3-1-4(8)5(9)6-3/h1,6-9H,2H2	InChI=1S/C5H7NO3/c7-2-3-1-4(8)5(9)6-3/h1,6-9H,2H2
