19
gdb 120803	5.1904	0.63925	0.6083	2.6256	79.59	-0.2591	0.0463	0.3054	1842.1209	0.155457	-422.952352	-422.942118	-422.941174	-422.988999	35.584	
C	 0.0834023761	 1.3119350495	 0.4693597391	-0.227262
O	-0.0185464118	-0.0871198606	 0.3510887039	-0.234139
C	-1.2466232646	-0.5015881254	-0.202925112	-0.080645
C	-1.2309901692	-2.005932613	-0.2840502172	 0.041624
O	-1.7657171366	-2.7462639385	 0.8192712403	-0.246141
C	-2.4313060907	-2.8406949308	-0.4371014795	 0.061028
C	-3.8464813627	-2.2859872004	-0.5308964976	-0.387497
C	-4.8496877594	-3.2542937717	-0.1008797982	 0.294913
C	-5.6621781658	-4.0684662478	 0.2457146704	-0.429431
H	 1.064233021	 1.5319899841	 0.896963963	 0.131836
H	 0.000632729	 1.8117738464	-0.5092336848	 0.103172
H	-0.6941381027	 1.7241465797	 1.1315727804	 0.107613
H	-2.0900827744	-0.1582331326	 0.4149091276	 0.096995
H	-1.375568743	-0.0751261189	-1.2146629687	 0.088512
H	-0.2891179274	-2.399284824	-0.6694724593	 0.102252
H	-2.3098638904	-3.8045213762	-0.9338694746	 0.102566
H	-3.926556281	-1.3766904805	 0.0730208151	 0.139791
H	-4.0419645233	-1.9957439165	-1.5723008836	 0.136007
H	-6.3833841532	-4.7809589127	 0.5611350756	 0.198808
38.9106	71.0228	78.2248	97.1685	157.6814	229.7889	249.1054	323.727	332.7978	372.6515	486.2489	489.2835	562.698	621.1681	646.1033	796.304	852.4403	899.6171	969.0769	980.4396	1000.3223	1060.6725	1084.3719	1143.7972	1156.7177	1172.4605	1187.3332	1228.0255	1239.978	1268.6883	1298.8032	1321.3635	1368.8201	1421.572	1453.4674	1475.2588	1485.0727	1494.3811	1500.0772	1520.9451	2243.0383	2939.5695	2969.1673	3002.0526	3013.756	3020.9536	3078.013	3098.1322	3110.7259	3118.6527	3507.2476
COCC1OC1CC#C	COC[C@H]1O[C@H]1CC#C	
InChI=1S/C7H10O2/c1-3-4-6-7(9-6)5-8-2/h1,6-7H,4-5H2,2H3	InChI=1S/C7H10O2/c1-3-4-6-7(9-6)5-8-2/h1,6-7H,4-5H2,2H3/t6-,7+/m0/s1
