18
gdb 66913	2.59076	1.78948	1.31846	2.6645	76.53	-0.2396	-0.0067	0.2329	1021.7125	0.146531	-401.92774	-401.919284	-401.91834	-401.960454	31.851	
C	 0.0529082676	 1.5004611342	-0.0113027072	-0.509169
C	-0.0980372816	 0.0140603611	 0.0119658577	 0.186815
C	 0.0127827069	-0.8490553146	 1.2353956995	-0.062654
C	-0.5498543997	-2.235617104	 0.9666933564	-0.297473
C	 0.117278565	-2.0691789855	-0.4176528219	 0.196151
C	 0.652790341	-3.2010263142	-1.2384852293	-0.499386
N	 1.0763199364	-0.9681135521	 0.2033905627	-0.214881
C	-0.6197749891	-0.8882536335	-1.0566304456	 0.384578
O	-1.1369799274	-0.7096241329	-2.1247618174	-0.342429
H	 0.7810367192	 1.8294234731	 0.7354264587	 0.135153
H	 0.3888424989	 1.837213405	-0.9960778145	 0.145122
H	-0.9038803534	 1.9864358314	 0.2059119624	 0.136466
H	 0.2207588141	-0.3880913433	 2.1958781682	 0.105403
H	-0.0315238249	-2.9860603597	 1.570857631	 0.116731
H	-1.630102602	-2.4064443233	 1.0048238157	 0.111876
H	-0.1743289196	-3.8276288347	-1.5888998298	 0.137913
H	 1.1856277511	-2.8258150937	-2.1168229041	 0.141497
H	 1.3349738173	-3.8257088931	-0.6544772625	 0.128287
127.3585	148.4277	160.955	209.6574	225.8213	259.0934	320.372	414.8533	500.2947	569.4265	643.9922	672.6863	700.9252	744.3166	824.1821	854.5605	884.8934	949.8608	981.3692	1009.0306	1019.3793	1027.5276	1075.7648	1107.2019	1127.9074	1200.0421	1238.0675	1267.3569	1290.6431	1347.8887	1402.4125	1411.8078	1437.9186	1477.7923	1480.3051	1486.6628	1489.9289	1498.2537	1876.9788	3039.5376	3041.6199	3046.6493	3100.9684	3109.5089	3109.917	3118.6873	3121.3463	3165.4616
CC12C3CC(C)(N13)C2=O	C[C@]12[C@H]3C[C@](C)(N13)C2=O	
InChI=1S/C7H9NO/c1-6-3-4-7(2,5(6)9)8(4)6/h4H,3H2,1-2H3	InChI=1S/C7H9NO/c1-6-3-4-7(2,5(6)9)8(4)6/h4H,3H2,1-2H3/t4-,6+,7-,8?/m1/s1
