20
gdb 68608	2.32647	1.85164	1.49588	2.4627	78.26	-0.2333	0.0666	0.2999	989.5672	0.172779	-403.108586	-403.100739	-403.099795	-403.140343	31.946	
O	-0.1651313835	 1.3672353116	 0.0566608652	-0.495633
C	-0.0244170674	-0.0166488653	 0.0054014042	 0.325664
C	 0.3323515108	-0.8151389736	-1.2969983117	-0.297333
C	-0.4126902009	-1.9600993777	-0.544053121	-0.110488
C	 0.5251475617	-2.216696453	 0.6589407565	-0.213019
C	 0.8233336485	-0.7360483795	 1.0749901191	-0.274176
C	-1.3121560217	-0.8461253085	 0.0135614309	 0.419741
C	-2.4989628095	-0.7741405442	 0.8762983232	-0.356521
N	-2.5672847025	-0.4169549509	-0.5708090257	-0.40941
H	 0.7065863157	 1.7703550341	 0.1215565533	 0.283271
H	-0.2237019152	-0.4502359392	-2.1614683294	 0.113199
H	 1.3890707048	-0.965006652	-1.53945315	 0.080173
H	-0.8275921095	-2.8172793944	-1.0702493228	 0.074472
H	 0.0324432775	-2.7801154533	 1.4558167751	 0.10173
H	 1.4284466575	-2.7599443816	 0.3680176637	 0.09821
H	 1.8859918983	-0.4796901358	 1.0009636967	 0.086812
H	 0.482749197	-0.4980857612	 2.0863805687	 0.102591
H	-3.0485283801	-1.6724264394	 1.1451292619	 0.115698
H	-2.5545253144	 0.0307349719	 1.6054488651	 0.115478
H	-2.5613148572	 0.5982442219	-0.6624796331	 0.239541
166.0718	196.6093	202.6536	244.8787	276.0964	380.9671	410.6613	442.5459	583.2691	606.9363	613.3014	690.4747	804.5659	841.6802	865.7218	889.7124	923.0491	934.4358	941.0301	969.3688	974.9867	983.3062	1030.9374	1057.7946	1082.9113	1112.5896	1129.1628	1153.3603	1172.6823	1206.1279	1225.2112	1249.606	1262.8313	1267.7798	1276.7312	1305.976	1321.4062	1365.3832	1453.3657	1487.461	1492.0276	1510.9837	1533.3819	3038.8849	3051.8906	3058.9464	3087.6352	3102.41	3107.0772	3135.1841	3141.4012	3187.1881	3473.2642	3817.22
OC12CC(CC1)C21CN1	O[C@@]12C[C@@H](CC1)[C@]12CN1	
InChI=1S/C7H11NO/c9-6-2-1-5(3-6)7(6)4-8-7/h5,8-9H,1-4H2	InChI=1S/C7H11NO/c9-6-2-1-5(3-6)7(6)4-8-7/h5,8-9H,1-4H2/t5-,6-,7+/m1/s1
