16
gdb 34098	3.38831	1.5699	1.33991	5.0541	72.06	-0.2636	0.0143	0.2779	959.0629	0.12616	-400.728679	-400.721882	-400.720938	-400.759763	27.142	
N	 0.0872915175	-1.1148265538	 0.0132255737	-0.335357
C	 0.0588011742	 0.0397421097	-0.001610762	 0.220861
C	-0.0382705485	 1.4901290977	-0.0188883406	 0.296197
C	-1.0198834267	 2.1682386299	 1.0061809714	-0.280726
C	-1.4798677597	 3.07976608	-0.1332453153	-0.080539
C	-0.2824568993	 3.5664228602	-0.9350963579	-0.079259
C	 1.1023292517	 3.4538757069	-0.3110717175	-0.113302
O	 1.2555516615	 2.0674114613	 0.0342727263	-0.301486
C	-0.8177356193	 2.1887730868	-1.1729278718	-0.12295
H	-1.8105071027	 1.4818442566	 1.3163221232	 0.130311
H	-0.5411852941	 2.6053929399	 1.8872414652	 0.113801
H	-2.4376981436	 3.5803237102	-0.1954674457	 0.101043
H	-0.4686606805	 4.3352470154	-1.6751539475	 0.107125
H	 1.8934230732	 3.7198390403	-1.0200331732	 0.120038
H	 1.2162335407	 4.0760249394	 0.5858238159	 0.1109
H	-1.1591507745	 1.7609303696	-2.1042624141	 0.113342
149.5598	159.3808	239.7399	393.3248	416.1518	500.2281	542.1803	557.3051	664.9217	731.6948	750.4183	787.938	832.4661	916.1515	937.0268	954.5767	980.4203	997.6373	1021.5568	1034.5102	1050.6607	1071.6921	1084.5796	1135.3433	1155.6113	1206.9456	1220.8119	1244.9402	1297.7781	1310.0117	1361.9578	1399.374	1488.0355	1525.0923	2368.4911	3021.409	3058.6539	3070.5605	3122.2565	3191.5818	3198.9343	3225.9737
N#CC12CC3C(CO1)C23	N#C[C@@]12C[C@H]3[C@@H](CO1)[C@@H]23	
InChI=1S/C7H7NO/c8-3-7-1-4-5(2-9-7)6(4)7/h4-6H,1-2H2	InChI=1S/C7H7NO/c8-3-7-1-4-5(2-9-7)6(4)7/h4-6H,1-2H2/t4-,5+,6-,7+/m0/s1
