23
gdb 108194	2.99738	1.3266	1.22253	1.6687	83.83	-0.2347	0.0762	0.3109	1166.0144	0.208362	-388.313435	-388.305151	-388.304207	-388.346005	33.395	
C	 0.0453929989	 1.5493176225	 0.0382355709	-0.390542
C	-0.0567798355	 0.0185994451	 0.0019078199	-0.276057
C	-1.4791746971	-0.5305695312	 0.0035338703	 0.309996
C	-2.364949012	-0.1510537563	-1.2169113146	-0.246388
C	-3.5406190964	-1.1777828345	-1.1426427466	-0.221984
C	-3.1578115772	-2.0036370501	 0.0999612494	 0.103279
C	-1.6312537364	-2.0726888271	 0.0028047835	-0.269797
O	-3.3707444563	-1.1868365619	 1.2621220985	-0.283167
C	-2.3099885603	-0.2155738443	 1.2668461615	-0.096409
H	 1.0924147338	 1.8673124935	 0.0269372261	 0.113644
H	-0.4480337301	 2.0055890102	-0.8257232134	 0.119912
H	-0.4144637608	 1.9649974919	 0.9410548244	 0.119888
H	 0.4610300547	-0.3543647364	-0.891602654	 0.093805
H	 0.4831238868	-0.3987485743	 0.862277438	 0.093712
H	-2.7111976782	 0.884961002	-1.1676468878	 0.098753
H	-1.7958310553	-0.2605890464	-2.1462170634	 0.092057
H	-4.514486194	-0.7039317354	-1.0009841493	 0.105392
H	-3.5956650888	-1.8025571905	-2.0398441021	 0.093626
H	-3.7074958835	-2.9356887973	 0.2370069983	 0.068956
H	-1.2669687936	-2.5388235787	-0.9175373517	 0.092283
H	-1.1708173782	-2.5570812874	 0.8684367467	 0.09746
H	-1.715386847	-0.3275910635	 2.1851923458	 0.088195
H	-2.7357191235	 0.79548488	 1.2560255897	 0.093384
93.3924	165.1214	183.6779	226.4808	321.0069	330.2943	402.9602	421.5709	472.7395	581.5418	591.2136	778.6355	783.8854	785.7278	820.6751	874.5516	917.5718	923.5134	950.154	960.7295	972.362	975.7458	1009.6871	1028.8147	1049.2227	1076.2961	1110.2711	1147.3944	1163.3542	1186.5076	1215.774	1246.2775	1256.1724	1266.026	1277.315	1308.1725	1319.8861	1342.4795	1346.0742	1374.703	1393.1814	1413.8417	1478.9071	1484.42	1487.8453	1501.3457	1505.5329	1507.5293	1529.9934	2991.3855	3011.9508	3034.162	3038.1308	3040.6296	3044.0683	3052.656	3058.0568	3084.8372	3102.9389	3105.8886	3108.8651	3112.4682	3113.5728
CCC12CCC(C1)OC2	CC[C@@]12CC[C@@H](C1)OC2	
InChI=1S/C8H14O/c1-2-8-4-3-7(5-8)9-6-8/h7H,2-6H2,1H3	InChI=1S/C8H14O/c1-2-8-4-3-7(5-8)9-6-8/h7H,2-6H2,1H3/t7-,8+/m0/s1
