20
gdb 63783	3.17245	1.28056	1.24561	3.8175	78.94	-0.2371	0.0008	0.2378	1120.8916	0.170513	-403.148063	-403.139503	-403.138558	-403.180967	33.28	
C	 0.0331781007	 1.526018826	-0.0642020447	-0.453302
C	-0.0031974213	-0.000355296	-0.0090609101	 0.311535
C	-1.4225412769	-0.5249627682	-0.2111813586	-0.452417
C	 1.0791843771	-0.68946935	-0.9165128061	-0.237308
N	 1.8037735074	-1.1761278668	 0.2989247935	-0.12744
C	 0.7316053543	-0.6600186321	 1.2181371698	-0.020088
C	 1.800062213	 0.0990903998	 2.0376630729	-0.39875
C	 2.751035834	-0.289937413	 0.8799266509	 0.381699
O	 3.8249238711	 0.066870213	 0.4914115094	-0.321135
H	 1.0500451681	 1.9207151688	 0.0214705125	 0.129691
H	-0.3736191667	 1.8803533466	-1.0177949704	 0.120838
H	-0.5695939172	 1.9646268283	 0.7389629715	 0.118632
H	-1.819384118	-0.2160261079	-1.1845806001	 0.119034
H	-1.4540647512	-1.6186751761	-0.1680253066	 0.120109
H	-2.0970847762	-0.1384465389	 0.5613008276	 0.118891
H	 0.7011925681	-1.5185195532	-1.5209076289	 0.113122
H	 1.6882176171	-0.0335212447	-1.5448196787	 0.126016
H	 0.1459965363	-1.4117976727	 1.7525575029	 0.079126
H	 1.6833231675	 1.1747415166	 2.1791942264	 0.13617
H	 2.0347978727	-0.3621056296	 3.0005325568	 0.135575
71.216	162.506	214.655	240.9479	271.9399	319.7582	342.6251	382.5678	436.5185	485.4248	534.7817	604.6018	699.6225	771.4362	820.6996	844.1918	927.3725	948.0318	960.3522	965.5424	986.8265	1006.7893	1029.042	1052.9732	1100.4616	1129.8146	1174.1888	1201.7615	1214.3808	1233.1356	1248.0333	1268.9873	1307.1313	1348.4952	1403.7507	1423.4468	1446.9683	1484.3516	1487.7489	1499.2191	1505.4447	1512.307	1885.4703	3023.6247	3028.9403	3052.7379	3072.0515	3081.6275	3090.8527	3095.5955	3097.6301	3103.3667	3109.1821	3135.6085
CC1(C)CN2C1CC2=O	CC1(C)CN2[C@H]1CC2=O	
InChI=1S/C7H11NO/c1-7(2)4-8-5(7)3-6(8)9/h5H,3-4H2,1-2H3	InChI=1S/C7H11NO/c1-7(2)4-8-5(7)3-6(8)9/h5H,3-4H2,1-2H3/t5-/m0/s1
