14
gdb 12907	3.37213	1.84614	1.52432	4.3926	62.3	-0.2404	0.0305	0.2709	839.6159	0.107546	-378.674276	-378.667121	-378.666177	-378.705531	26.851	
O	-0.0151024556	 1.4427640912	 0.0105970808	-0.446947
C	-0.0124214448	 0.0700735945	-0.0458143182	 0.34741
C	 0.6173271753	-0.7786340884	-1.1599024817	-0.253983
N	-0.4902089098	-1.7917845322	-1.0122576972	-0.313681
C	-1.1599814393	-0.9054150272	-0.0487957956	-0.074984
C	-0.2817178336	-0.7868677436	 1.19179798	-0.262696
C	 0.5965067708	-1.8303547427	 1.6448978954	 0.311125
N	 1.3260393457	-2.647519298	 2.0167696809	-0.345621
H	 0.7668538299	 1.7378891799	 0.4926847907	 0.296787
H	 0.5801721812	-0.2438721819	-2.1127948401	 0.122642
H	 1.6182432311	-1.187076743	-0.9938549056	 0.129872
H	-1.0265768391	-1.8587234866	-1.8708643614	 0.233964
H	-2.2345991273	-0.7838129285	 0.0075889905	 0.118734
H	-0.7500292245	-0.2074419336	 1.9823556815	 0.137378
136.353	136.9358	248.5745	299.8699	360.963	381.6323	399.1911	552.0678	602.891	634.2894	765.3606	797.5682	826.8496	905.4987	946.6833	992.365	1008.4245	1024.2799	1047.0772	1093.9261	1139.3236	1200.3225	1257.6038	1262.9439	1317.7008	1336.2073	1362.1387	1477.9944	1502.9503	2351.9399	3054.7174	3112.993	3163.0469	3197.8888	3530.	3778.6552
OC12CNC1C2C#N	O[C@]12CN[C@H]1[C@H]2C#N	
InChI=1S/C5H6N2O/c6-1-3-4-5(3,8)2-7-4/h3-4,7-8H,2H2	InChI=1S/C5H6N2O/c6-1-3-4-5(3,8)2-7-4/h3-4,7-8H,2H2/t3-,4+,5+/m1/s1
