17
gdb 13544	3.6796	1.35809	1.09807	3.822	69.07	-0.2907	0.0135	0.3042	1084.3106	0.140995	-363.857735	-363.848934	-363.84799	-363.891429	31.429	
C	 0.0844686768	 1.5711977251	-0.220805487	-0.405055
C	 0.0442115146	 0.0705298356	-0.0259879074	-0.011301
C	 1.295782026	-0.768003072	-0.0917540127	-0.294354
C	 0.5630826653	-0.6088597405	 1.221105914	-0.02031
C	 1.1751003251	 0.1906022254	 2.354447475	-0.032461
O	 0.2166886338	 0.8629767677	 3.1546293019	-0.410948
C	 2.0329211167	-0.6828657152	 3.1889645953	 0.262355
N	 2.6723643417	-1.3811550427	 3.8515148304	-0.319167
H	 1.0313426062	 2.0062375609	 0.1121707736	 0.1172
H	-0.0276159609	 1.8199065322	-1.2811695613	 0.121184
H	-0.7200933402	 2.0657806808	 0.332209123	 0.132748
H	-0.8475618493	-0.3967375042	-0.4358063205	 0.09404
H	 1.2695605062	-1.7353152668	-0.5798646417	 0.122927
H	 2.2412506465	-0.2445914464	-0.2003288307	 0.1199
H	 0.0051835899	-1.4755945702	 1.5677511469	 0.095666
H	 1.8125134188	 0.9828257344	 1.9506102756	 0.135211
H	-0.3818219971	 0.2032795158	 3.5237671456	 0.292364
52.3108	107.5341	164.7566	182.9713	234.5211	254.2201	316.1003	362.8064	406.3385	513.6516	537.7213	611.6826	777.0784	837.3546	865.591	890.5138	927.4762	1013.4682	1032.1099	1063.0855	1075.1293	1109.0187	1147.2269	1154.6649	1196.1308	1238.8579	1270.161	1299.1961	1392.4639	1415.6317	1419.3827	1429.6743	1491.2065	1494.2857	1502.9932	2353.7128	3037.561	3076.6448	3100.8847	3107.3813	3130.4536	3132.1885	3144.2252	3217.2576	3801.918
CC1CC1C(O)C#N	C[C@H]1C[C@H]1[C@@H](O)C#N	
InChI=1S/C6H9NO/c1-4-2-5(4)6(8)3-7/h4-6,8H,2H2,1H3	InChI=1S/C6H9NO/c1-4-2-5(4)6(8)3-7/h4-6,8H,2H2,1H3/t4-,5+,6-/m0/s1
