18
gdb 116696	6.37301	0.70331	0.68241	3.5432	79.48	-0.234	0.0088	0.2428	1664.3014	0.146147	-438.999715	-438.991048	-438.990104	-439.034323	31.033	
C	-0.0702976253	 1.4548509008	 0.0690627578	-0.251939
O	 0.0926786417	 0.0518870711	-0.1126845106	-0.19476
C	 0.6386117389	-0.6102426184	 0.9208554028	 0.128551
N	 0.8256051095	-1.8550840938	 0.8603892975	-0.237437
C	 1.4107278913	-2.4834490069	 2.0013212066	 0.078429
C	 0.8641534391	-3.8645221046	 2.4780515543	 0.023929
C	 1.4276823731	-4.5367631891	 1.2050970419	-0.224792
C	 2.4945650443	-3.5862889685	 1.7952294795	 0.02393
O	 2.1647831885	-4.0857247386	 3.1487964019	-0.312926
H	 0.8934191079	 1.9526776348	 0.2294062405	 0.130746
H	-0.5189201453	 1.8322152772	-0.8502276292	 0.149864
H	-0.7371990069	 1.6749135722	 0.9111516798	 0.130751
H	 0.8942640214	 0.0195877004	 1.787570566	 0.081257
H	 1.6486875038	-1.8158938765	 2.8414996313	 0.067846
H	-0.0407429836	-4.0845470304	 3.0457059419	 0.090391
H	 1.6535861056	-5.5980584846	 1.3120445739	 0.101479
H	 0.9811661716	-4.2682082658	 0.2483979639	 0.124297
H	 3.5492407142	-3.4718443892	 1.5421636103	 0.090385
45.6055	75.3689	120.6928	153.6131	222.2338	273.088	390.8584	416.4195	467.0678	569.7694	707.5428	732.1928	824.902	883.0547	883.128	916.4503	943.3854	994.2507	1013.2668	1045.2606	1063.4817	1100.3426	1126.8683	1152.0461	1173.7923	1176.9411	1195.0317	1198.4388	1218.1727	1259.4907	1274.5736	1287.5366	1362.1954	1422.7399	1476.5549	1487.4649	1495.519	1500.2049	1764.4715	2991.8123	3009.5788	3019.4788	3082.3851	3087.2006	3109.1109	3117.4348	3148.9002	3171.3187
COC=NC1C2CC1O2	COC=N[C@H]1[C@H]2C[C@@H]1O2	
InChI=1S/C6H9NO2/c1-8-3-7-6-4-2-5(6)9-4/h3-6H,2H2,1H3	InChI=1S/C6H9NO2/c1-8-3-7-6-4-2-5(6)9-4/h3-6H,2H2,1H3/t4-,5+,6+
