23
gdb 108167	2.42759	1.38207	1.17985	0.2021	90.23	-0.221	0.024	0.245	1216.025	0.206053	-351.164708	-351.155551	-351.154607	-351.198179	35.848	
C	-0.2801339837	 1.4920302991	 0.1180843479	-0.37491
C	 0.142636714	 0.023470244	-0.0215381686	-0.278272
C	 0.8670366458	-0.5129485748	 1.1957937984	 0.349797
C	 2.2680186568	 0.0425135901	 1.5047981884	-0.333526
C	 3.0477654173	-1.1576086233	 1.9981522089	-0.082614
C	 2.3091648334	-2.270312599	 1.9813739376	-0.069474
C	 0.9198835896	-2.0058117871	 1.5173810109	-0.164215
C	 0.062597085	-1.0567738893	 2.3557734591	-0.040879
C	 0.3214649149	-0.7398674421	 3.8109461538	-0.421407
H	 0.5866524507	 2.1433351999	 0.27314203	 0.116722
H	-0.8003678847	 1.8412388744	-0.7794422144	 0.108723
H	-0.952698115	 1.627031288	 0.9718532995	 0.11573
H	-0.745249191	-0.5925251927	-0.2117504742	 0.090753
H	 0.7863605739	-0.0884467307	-0.9049540786	 0.092415
H	 2.7246239964	 0.4763063435	 0.6037397855	 0.101456
H	 2.2463349723	 0.849028687	 2.2500620393	 0.107546
H	 4.0736259483	-1.0858633752	 2.3425995763	 0.089665
H	 2.6494143129	-3.253013959	 2.2891358863	 0.090779
H	 0.408952017	-2.740743785	 0.9024345722	 0.076867
H	-0.9975482053	-1.1429221927	 2.1212021402	 0.076483
H	 1.3861293096	-0.774166138	 4.0530616535	 0.124251
H	-0.0517392543	 0.2587744295	 4.0660262043	 0.111789
H	-0.1897547738	-1.4589553765	 4.4607372036	 0.112322
81.7315	144.9654	186.5588	210.0707	227.9835	235.8007	307.5838	360.1444	393.7321	474.5921	555.0517	605.5397	712.2833	739.5092	761.8835	784.271	831.0178	872.8725	929.5317	951.4548	958.1947	969.7728	978.9427	1002.9873	1045.1335	1054.388	1090.0502	1097.1123	1120.6314	1130.3653	1146.968	1179.9431	1235.4554	1252.6775	1297.5924	1328.4302	1351.7219	1362.2616	1377.7835	1407.7798	1412.0657	1443.8789	1474.1657	1484.8291	1499.0555	1499.4728	1504.3787	1506.9889	1667.1719	3002.2429	3009.2724	3029.0738	3029.8401	3032.2359	3044.907	3082.9155	3100.0592	3102.3621	3107.1681	3125.6922	3149.0108	3180.0543	3205.1942
CCC12CC=CC1C2C	CC[C@]12CC=C[C@H]1[C@H]2C	
InChI=1S/C9H14/c1-3-9-6-4-5-8(9)7(9)2/h4-5,7-8H,3,6H2,1-2H3	InChI=1S/C9H14/c1-3-9-6-4-5-8(9)7(9)2/h4-5,7-8H,3,6H2,1-2H3/t7-,8+,9-/m1/s1
