22
gdb 12811	3.14167	1.88617	1.49822	0.1701	81.2	-0.2525	0.0846	0.337	966.9501	0.202962	-313.084929	-313.077248	-313.076304	-313.116259	31.315	
C	-0.0333758149	 1.5305025878	 0.0081056848	-0.461189
C	-0.0185476714	 0.01450412	 0.0246847441	 0.360563
C	-0.8568597362	-0.6733844348	 1.0727049164	-0.325014
C	 0.6533912633	-0.6795234033	 1.1975420857	-0.048118
C	 1.4324907983	-1.9833700672	 1.0133916138	-0.221362
C	 1.7191572754	-2.326217305	-0.4581095985	-0.179543
C	 0.4870220383	-2.1028730899	-1.3411838931	-0.213165
C	 0.1019797927	-0.6165043322	-1.3576115651	-0.251033
H	 0.8877367526	 1.9321679549	-0.4314253654	 0.110104
H	-0.8747787968	 1.9111427404	-0.5843116462	 0.110907
H	-0.1276142783	 1.9415428319	 1.0184265559	 0.108614
H	-1.431800421	-0.0547771558	 1.7545761239	 0.099465
H	-1.3385973967	-1.6135458274	 0.8206457535	 0.102436
H	 1.0544777166	-0.0168687288	 1.959570123	 0.073997
H	 2.3793209817	-1.9194684354	 1.5602798715	 0.093721
H	 0.8752657468	-2.8100683508	 1.4732344392	 0.096332
H	 2.5347640494	-1.6912760564	-0.8300068076	 0.09159
H	 2.0696027806	-3.3615237611	-0.5344642456	 0.087593
H	 0.6839533879	-2.4357945436	-2.3661467556	 0.090874
H	-0.3485475131	-2.7149139894	-0.9758469706	 0.094294
H	-0.8333881649	-0.4675937909	-1.9133830976	 0.089037
H	 0.8766692595	-0.0701518132	-1.9146531665	 0.089898
129.6127	200.5099	241.4123	312.0836	325.4192	370.128	386.9482	449.7075	495.6349	570.4619	681.9651	760.9773	814.6549	846.3639	888.0787	899.5246	914.1249	940.2618	955.5085	1007.5334	1024.1369	1053.7102	1070.5093	1076.9006	1124.137	1130.4008	1144.8698	1188.0068	1206.5875	1247.1758	1286.2734	1302.9807	1326.2316	1366.4653	1373.7119	1375.2992	1387.1931	1415.3144	1419.3762	1480.5386	1488.3222	1490.6707	1492.9094	1496.239	1502.4669	1513.5184	2999.2219	3012.2194	3015.6978	3016.5227	3018.6311	3036.8254	3059.5935	3064.845	3068.9529	3073.5162	3093.3465	3118.8526	3136.2443	3200.661
CC12CC1CCCC2	C[C@]12C[C@H]1CCCC2	
InChI=1S/C8H14/c1-8-5-3-2-4-7(8)6-8/h7H,2-6H2,1H3	InChI=1S/C8H14/c1-8-5-3-2-4-7(8)6-8/h7H,2-6H2,1H3/t7-,8+/m1/s1
