14
gdb 20955	7.61238	1.16169	1.02076	3.0915	60.66	-0.241	-0.0393	0.2018	1100.478	0.106315	-415.826098	-415.818689	-415.817745	-415.85878	25.843	
C	-0.00664292	 1.4857076819	-0.0116732495	-0.392273
C	 0.000988681	-0.0297310583	 0.0045734234	-0.050777
O	 0.6799916546	-0.4675275378	-1.1880664099	-0.275986
C	 0.7918404462	-1.7859852324	-1.3588002468	 0.346736
C	 1.3812487752	-2.4603955642	-2.3858041527	-0.073365
O	 1.2540711697	-3.7692689606	-2.1348265158	-0.152608
N	 0.5658151705	-3.8942299881	-0.9173408127	-0.008732
N	 0.3088034171	-2.7291719237	-0.4871135209	-0.206211
H	 1.0134274881	 1.8793935266	-0.0211267448	 0.133156
H	-0.5309986916	 1.8622495147	-0.89422011	 0.133166
H	-0.5151948073	 1.8620646734	 0.8805088759	 0.126979
H	 0.5250807405	-0.4243438318	 0.8823155494	 0.124923
H	-1.0145319741	-0.441412832	 0.0120322509	 0.12495
H	 1.88790459	-2.1624738476	-3.2862413063	 0.170043
59.7055	70.5343	162.0063	250.569	343.5004	350.1721	468.433	644.0715	714.5871	729.6487	735.6397	783.7916	814.515	915.4392	989.2278	1038.159	1079.6026	1124.7488	1136.4193	1181.3511	1295.5608	1307.4891	1336.9294	1395.658	1420.3714	1435.2374	1484.5561	1498.0012	1520.7563	1661.4162	3035.6785	3049.03	3075.7416	3125.3464	3128.1299	3305.0539
CCOC1=CON=N1	CCOc1conn1	
InChI=1S/C4H6N2O2/c1-2-7-4-3-8-6-5-4/h3H,2H2,1H3	InChI=1S/C4H6N2O2/c1-2-7-4-3-8-6-5-4/h3H,2H2,1H3
