19
gdb 77041	3.01648	1.01242	0.84654	2.4626	81.73	-0.2404	-0.0201	0.2203	1383.9525	0.156415	-385.869519	-385.85993	-385.858986	-385.904438	35.186	
C	-0.5079813334	 1.4512137882	 0.1336131647	-0.414907
C	 0.0205290452	 0.0254657019	 0.0566529865	-0.10579
C	 0.5804894278	-0.6128974024	-1.2681886652	-0.024774
C	 1.0395083574	 0.4009255091	-2.3294514216	-0.376225
C	 1.7061603922	-0.2412620632	-3.4562424891	 0.293825
C	 2.2535471197	-0.7972985187	-4.3706114902	-0.424802
C	 1.7614314419	-1.2387451376	-0.461722179	-0.347123
C	 1.3773206575	-0.3088460467	 0.7003047602	 0.387906
O	 1.9495102062	 0.09901364	 1.6694288218	-0.297098
H	 0.203382361	 2.173698634	-0.2765320135	 0.125323
H	-1.45359634	 1.5582930227	-0.4072764017	 0.121004
H	-0.683357699	 1.7246246597	 1.1781381033	 0.136313
H	-0.719452542	-0.66549978	 0.4828495353	 0.106142
H	-0.0887167096	-1.3390722128	-1.7322826002	 0.086965
H	 0.1767641099	 0.9742791074	-2.6909250056	 0.134404
H	 1.7220477243	 1.1326587243	-1.8759351849	 0.134466
H	 2.7381007231	-1.2751672846	-5.1856014404	 0.19695
H	 1.6061968267	-2.2914882621	-0.2058603599	 0.130817
H	 2.7684991411	-1.1254612794	-0.8708019206	 0.136605
56.1791	80.5816	121.524	176.5539	193.1059	221.8011	331.474	359.4054	403.4968	466.6289	503.2028	544.0262	624.3509	640.5912	695.6676	730.7594	824.8642	836.3078	885.88	940.5357	969.1885	1011.5942	1022.2223	1067.8733	1106.0339	1138.0357	1161.2896	1189.8345	1219.4106	1244.4637	1278.3553	1318.3731	1341.8449	1380.1516	1407.6515	1442.8834	1472.0114	1493.9874	1498.7438	1888.1339	2238.6986	3014.328	3021.3611	3040.137	3049.681	3061.056	3096.1995	3108.567	3114.1877	3118.3814	3506.5788
CC1C(CC#C)CC1=O	C[C@H]1[C@@H](CC#C)CC1=O	
InChI=1S/C8H10O/c1-3-4-7-5-8(9)6(7)2/h1,6-7H,4-5H2,2H3	InChI=1S/C8H10O/c1-3-4-7-5-8(9)6(7)2/h1,6-7H,4-5H2,2H3/t6-,7-/m0/s1
