20
gdb 8294	6.74441	0.85232	0.80153	2.9834	76.2	-0.2389	-0.0159	0.223	1450.1795	0.175438	-349.023962	-349.015074	-349.014129	-349.058197	32.342	
C	-0.0802691748	 1.5783658959	 0.1512539741	-0.380091
C	-0.0423073811	 0.0487700665	 0.0959148632	-0.164837
C	-1.4273974065	-0.5809573291	-0.0915432129	-0.187132
C	-1.4053244024	-2.1040581212	-0.1405763904	 0.028723
C	-1.0755697904	-2.8676410153	 1.1852647478	-0.353594
C	-2.3131054388	-3.7421292002	 0.9292290334	 0.403278
O	-2.7136373918	-4.769104592	 1.3943279011	-0.290048
C	-2.7823860699	-2.8386666902	-0.2218704922	-0.370114
H	 0.9215462141	 1.9983380174	 0.2835655595	 0.113677
H	-0.4981570198	 1.9973693975	-0.7708792994	 0.115011
H	-0.700956915	 1.9293070764	 0.9832241355	 0.114788
H	 0.6132259587	-0.2732180914	-0.7240880707	 0.096239
H	 0.411685771	-0.3405764269	 1.0165485532	 0.099942
H	-2.0896566961	-0.25797343	 0.7251665192	 0.08991
H	-1.8786097244	-0.1970118972	-1.0169253982	 0.097057
H	-0.7450577854	-2.4410202477	-0.9463819434	 0.079434
H	-0.1216400579	-3.395010145	 1.264382336	 0.127366
H	-1.2027708128	-2.2476866834	 2.0811574399	 0.126598
H	-3.6247088009	-2.2054222992	 0.0814933283	 0.126952
H	-3.0490934258	-3.3446767048	-1.153327674	 0.12684
45.5206	93.5393	101.8866	158.093	248.7924	298.7564	342.1825	409.3923	425.9164	489.6004	654.9816	671.7546	744.9477	765.8061	857.1085	895.0153	926.2635	930.9817	983.2571	1011.1196	1045.3923	1082.3069	1095.9161	1137.5463	1142.0651	1193.3427	1216.3496	1238.4154	1258.5531	1276.372	1310.214	1332.7934	1370.6265	1399.7431	1415.2026	1426.9772	1447.401	1481.727	1493.3894	1500.9394	1510.1432	1893.148	2997.3503	3016.3934	3027.0215	3030.4624	3041.3727	3045.9092	3048.7428	3059.718	3096.6427	3103.501	3108.3327	3109.4476
CCCC1CC(=O)C1	CCCC1CC(=O)C1	
InChI=1S/C7H12O/c1-2-3-6-4-7(8)5-6/h6H,2-5H2,1H3	InChI=1S/C7H12O/c1-2-3-6-4-7(8)5-6/h6H,2-5H2,1H3
