16
gdb 123435	4.85342	0.96625	0.90556	2.5532	70.04	-0.2559	-0.0272	0.2287	1281.5048	0.126151	-434.038878	-434.031213	-434.030269	-434.07287	27.369	
C	-0.0786785193	 1.6048115472	 0.298104548	-0.365505
C	-0.1790800581	 0.0851649019	 0.3123462179	 0.025263
C	-1.3510577654	-0.5792510962	-0.3081933638	-0.243032
N	-0.0215070627	-0.6706422137	-0.9345285395	-0.304506
C	 1.3168031527	 2.0639098262	 0.0384425818	 0.447333
N	 1.8647867869	 2.3480809389	-1.1078264501	-0.31496
C	 3.1524418353	 2.6470104766	-0.7359230637	 0.042999
N	 3.399747919	 2.5627276642	 0.5414688362	-0.113544
O	 2.1627017305	 2.1681707048	 1.0708616823	-0.195829
H	-0.7110421894	 2.0129742296	-0.4954009409	 0.136734
H	-0.4230626062	 2.0110992118	 1.2546281597	 0.140918
H	 0.2988237133	-0.3851241347	 1.1690524154	 0.111632
H	-1.7309933343	-1.5109655177	 0.1006203537	 0.126247
H	-2.1065047703	 0.054366069	-0.766978526	 0.114636
H	 0.0494813977	-0.0316061439	-1.7237768422	 0.241998
H	 3.9220418303	 2.9382201163	-1.4358808089	 0.149614
36.0287	55.265	115.8979	282.8574	321.8208	370.0078	438.6046	657.0078	693.0083	785.3021	814.8351	828.8396	906.3759	928.8847	932.5895	939.3988	971.817	981.0626	1030.4336	1052.6624	1118.7344	1131.8213	1162.5764	1195.5751	1236.8843	1250.9663	1270.4652	1310.5485	1314.0507	1357.4914	1417.9954	1463.0984	1512.2655	1515.953	1619.3235	3055.1515	3105.9672	3107.9271	3136.0028	3193.1848	3262.4276	3492.7494
C(C1CN1)C1=NC=NO1	C([C@H]1CN1)c1ncno1	
InChI=1S/C5H7N3O/c1(4-2-6-4)5-7-3-8-9-5/h3-4,6H,1-2H2	InChI=1S/C5H7N3O/c1(4-2-6-4)5-7-3-8-9-5/h3-4,6H,1-2H2/t4-/m0/s1
