18
gdb 7519	5.00796	1.17871	1.10383	2.0368	74.03	-0.2541	0.0498	0.3039	1132.29	0.150067	-347.761991	-347.752725	-347.751781	-347.795742	33.68	
C	 0.0696254958	 1.4124478864	-0.3537281213	-0.425992
C	 0.0676258374	-0.027061869	 0.0931029645	 0.028983
O	 1.3293304595	-0.7065949925	 0.1654878684	-0.289548
C	 0.5876693607	-0.5301209133	 1.3794354175	 0.383934
C	 1.2122818406	 0.3706454941	 2.4205957563	-0.464817
C	-0.0281380863	-1.8231477971	 1.9246725233	-0.415872
C	 0.9162700431	-2.6536174485	 2.6647385875	 0.313949
C	 1.7005169155	-3.3277961633	 3.2769217877	-0.448371
H	 0.853001009	 1.9944325797	 0.1342611508	 0.128647
H	 0.2333689432	 1.4666927809	-1.4351751606	 0.132486
H	-0.8985693581	 1.8782559923	-0.1396026493	 0.12186
H	-0.7165015107	-0.6286163285	-0.3749813614	 0.080905
H	 1.6910356806	 1.2373699961	 1.9642227568	 0.127718
H	 0.4560537903	 0.7204053391	 3.1322113799	 0.118221
H	 1.9702066984	-0.1827681599	 2.9824508771	 0.144298
H	-0.8751296874	-1.5653186594	 2.5750694658	 0.130145
H	-0.4370372624	-2.39429775	 1.0839481001	 0.136575
H	 2.3916089007	-3.9319956772	 3.8104070971	 0.196878
58.5813	125.8865	142.3576	161.8908	229.6555	263.3843	336.3762	348.0996	393.4286	403.7958	478.9675	574.3957	617.666	641.5386	724.5363	796.4506	880.3551	912.992	940.9967	981.2141	1004.5143	1064.5732	1104.0386	1137.3496	1174.4721	1213.6017	1264.3476	1318.5349	1371.5553	1410.6338	1418.3003	1453.4416	1463.0106	1476.3292	1487.2298	1498.9521	1522.5934	2238.6713	3018.5836	3039.3539	3043.7126	3065.2937	3069.6578	3099.1077	3108.6337	3137.0812	3149.0678	3506.7372
CC1OC1(C)CC#C	C[C@H]1O[C@]1(C)CC#C	
InChI=1S/C7H10O/c1-4-5-7(3)6(2)8-7/h1,6H,5H2,2-3H3	InChI=1S/C7H10O/c1-4-5-7(3)6(2)8-7/h1,6H,5H2,2-3H3/t6-,7-/m1/s1
