14
gdb 62424	2.55553	1.5371	1.37715	4.2946	67.94	-0.2705	-0.0378	0.2327	976.3744	0.100212	-432.816728	-432.80876	-432.807816	-432.849218	29.489	
O	 0.0763351491	 1.4368444991	-0.0717525582	-0.449501
C	 0.0012762148	 0.0375236091	-0.019603518	 0.14662
C	 0.8860691258	-0.5134379408	 1.0143445895	 0.232263
N	 1.5776782739	-0.9071854424	 1.8525831485	-0.319768
C	-1.3730214789	-0.6595894674	-0.0483067332	-0.071263
C	-2.0937922236	-0.3218765553	-1.2829538443	-0.257215
N	-1.0379006405	-1.3722561334	-1.3640549911	-0.131888
C	 0.2064865601	-0.6413477082	-1.4057354139	 0.359411
N	 1.0834686299	-0.6676949327	-2.2954280157	-0.493185
H	-0.0087781331	 1.7948383576	 0.8202688314	 0.302302
H	-1.8036091422	-1.2068872299	 0.780831442	 0.13141
H	-3.0902698968	-0.731211279	-1.406905069	 0.148291
H	-1.9173763275	 0.6329130668	-1.7686823945	 0.153303
H	 1.8755937589	-0.0694485134	-2.0552210335	 0.24922
104.9063	134.187	184.9464	238.028	267.7718	301.0536	408.4125	483.0036	519.7672	574.8169	659.4308	703.912	736.4227	781.9568	843.5949	870.9628	924.6793	970.4993	1024.4049	1055.4056	1096.1526	1119.5332	1133.0454	1169.3524	1212.2859	1273.7498	1326.6579	1366.229	1500.1932	1816.9706	2351.4682	3131.6031	3201.8489	3227.3372	3481.7116	3791.7057
OC1(C#N)C2CN2C1=N	O[C@@]1(C#N)[C@H]2CN2[C]1[NH]	
InChI=1S/C5H5N3O/c6-2-5(9)3-1-8(3)4(5)7/h3,7,9H,1H2	InChI=1S/C5H5N3O/c6-2-5(9)3-1-8(3)4(5)7/h3,7,9H,1H2/t3-,5+,8?/m1/s1
