15
gdb 67800	3.24553	2.00435	1.56566	1.621	67.92	-0.2103	-0.0128	0.1975	836.3673	0.114064	-416.76399	-416.757555	-416.756611	-416.794286	26.737	
O	-0.0972891877	 1.4180747831	-0.1004394011	-0.463307
C	-0.0753358065	 0.0323065433	-0.1061592091	 0.343746
C	 0.7439357262	-0.7315325371	-1.078028456	-0.154553
C	 0.1408386158	-1.8979313717	-1.3255695787	-0.078508
N	-1.0764889333	-2.077421656	-0.5195833674	-0.172529
C	-0.4488629242	-2.7293291491	 0.6312909235	 0.016303
N	-0.1083831416	-1.9887553795	 1.6108335696	-0.189211
C	-0.5271503018	-0.6639497094	 1.2626221039	-0.085473
C	-1.3647993895	-0.7148042406	 0.0222149631	-0.099488
H	 0.6768648411	 1.7350286193	 0.3769317017	 0.294188
H	 1.6683544268	-0.3755291322	-1.5124476819	 0.112267
H	 0.4705227335	-2.7200307433	-1.9456468087	 0.125969
H	-0.2400543564	-3.7912990259	 0.5672475951	 0.133806
H	-0.7168116563	 0.036782849	 2.0654894657	 0.110474
H	-2.3540220862	-0.29421992	-0.1198970096	 0.106315
232.4091	290.7923	315.0993	330.5476	372.106	496.9697	581.3389	617.3188	716.7074	732.3505	765.5596	805.2433	827.8037	852.183	895.8579	900.3305	921.4651	942.5498	962.4635	986.0254	1040.2013	1073.2521	1090.8054	1140.0457	1169.4842	1253.7591	1259.4109	1279.1094	1314.5613	1359.8667	1415.6408	1633.0992	1642.5085	3168.7137	3203.6792	3210.3126	3218.3498	3244.238	3806.3347
OC12C=CN3C=NC1C23	O[C@@]12C=CN3[CH][N][C@@H]1[C@@H]23	
InChI=1S/C6H6N2O/c9-6-1-2-8-3-7-4(6)5(6)8/h1-5,9H	InChI=1S/C6H6N2O/c9-6-1-2-8-3-7-4(6)5(6)8/h1-5,9H/t4-,5+,6+/m1/s1
