20
gdb 71157	2.50859	1.89846	1.48063	1.8105	82.32	-0.2329	0.0844	0.3173	987.4506	0.171064	-365.934668	-365.926963	-365.926019	-365.96623	31.642	
C	-0.0568753114	 1.5923320154	 0.0715001792	-0.517597
C	 0.0291389533	 0.0913046441	 0.0665835188	 0.198454
C	-1.2259751306	-0.8091819051	-0.1559642109	-0.278946
C	-0.4598517952	-1.8834431009	 0.6124932385	-0.04084
C	 0.4256658183	-0.8877469367	 1.2543264966	-0.099506
N	 1.0049052344	-1.8195098501	 0.2432249287	-0.19378
C	 1.080028745	-0.694052064	-0.7162765897	 0.418804
C	 1.3552161798	-0.8320934752	-2.1753584067	-0.345644
C	 2.3995913381	-0.2403403712	-1.2344293853	-0.355686
H	 0.9069382173	 2.0459775661	 0.3263391829	 0.123669
H	-0.3545609838	 1.9689467193	-0.9145072987	 0.122126
H	-0.7974980673	 1.9465301975	 0.7962253744	 0.120475
H	-2.0853481565	-0.458097975	 0.4227327917	 0.098785
H	-1.5241043062	-1.0050533073	-1.1915545119	 0.095781
H	-0.8117202079	-2.8342669461	 0.9905492042	 0.096567
H	 0.8149451282	-0.7574507714	 2.2556524173	 0.094969
H	 1.5351849369	-1.8304031821	-2.5598475352	 0.120639
H	 0.8534005454	-0.1636890947	-2.8685751595	 0.108727
H	 2.5971869459	 0.8249723501	-1.2994381751	 0.109975
H	 3.2649687463	-0.8494235128	-0.9962813394	 0.12303
168.5809	190.0982	222.6559	229.5334	301.9958	345.9258	450.5832	528.2212	596.8435	622.2661	732.8583	765.3729	783.334	803.3038	842.038	860.5825	897.2307	924.7344	947.1996	963.522	980.3444	991.9354	1022.2215	1034.3397	1045.0772	1075.4631	1104.4626	1129.4759	1149.1417	1184.9335	1186.3424	1207.4539	1222.9948	1257.1758	1313.0049	1337.2555	1396.9333	1415.1862	1450.2125	1487.6157	1491.1718	1494.9287	1508.246	3024.2486	3039.753	3087.6932	3095.6358	3098.9233	3123.4321	3127.802	3193.4861	3205.8859	3208.77	3219.9583
CC12CC3C1N3C21CC1	C[C@]12C[C@@H]3[C@H]1N3C12CC1	
InChI=1S/C8H11N/c1-7-4-5-6(7)9(5)8(7)2-3-8/h5-6H,2-4H2,1H3	InChI=1S/C8H11N/c1-7-4-5-6(7)9(5)8(7)2-3-8/h5-6H,2-4H2,1H3/t5-,6-,7+,9?/m1/s1
