20
gdb 95474	2.46967	1.74424	1.27098	3.7072	78.72	-0.2405	0.0296	0.2701	1055.5966	0.173556	-403.151563	-403.143703	-403.142759	-403.183632	30.97	
C	-0.1568609192	 1.6253321816	-0.109944034	-0.406488
C	-0.063959951	 0.0963443911	-0.0482948902	-0.025224
C	 0.7536786333	-0.5107245768	-1.2217179155	-0.223683
C	 2.2640754905	-0.1341830927	-1.218837544	-0.154058
N	 2.9086350003	 0.0672085533	 0.0886608792	-0.30436
C	 2.1378859789	-0.1059815031	 1.0598013186	 0.443639
O	 2.3167102607	 0.2356562012	 2.3796180943	-0.272019
C	 0.8589233356	 0.2084326618	 2.5835075578	-0.136287
C	 0.6756366897	-0.4348244104	 1.1867072184	-0.13922
H	 0.8263806973	 2.0991041415	-0.0244899667	 0.13866
H	-0.597880786	 1.9420724953	-1.0604519527	 0.117401
H	-0.7894420004	 2.0186441843	 0.692379165	 0.114879
H	-1.0799648303	-0.3123513821	-0.0908005757	 0.072994
H	 0.6532451343	-1.6016421633	-1.1705283577	 0.100262
H	 0.3213553965	-0.2048887224	-2.1806581904	 0.098224
H	 2.8230631896	-0.8946795099	-1.776210671	 0.111504
H	 2.4119013166	 0.8020849977	-1.7719439121	 0.113849
H	 0.5901080093	-0.4010623909	 3.4485527913	 0.119678
H	 0.4793627166	 1.2270537668	 2.6981212323	 0.124046
H	 0.5081471578	-1.5112687132	 1.287832093	 0.106204
129.559	164.3036	218.5405	247.7938	272.7255	345.0189	413.9013	451.3747	521.3593	582.4384	705.8472	730.1651	750.2025	828.5586	858.4555	912.0818	940.596	971.4739	978.2226	1019.546	1030.9394	1070.1358	1110.3926	1118.4395	1152.5448	1163.2688	1182.5603	1211.2071	1247.3893	1258.9248	1313.4869	1332.8572	1357.7432	1363.0531	1373.3268	1396.9508	1420.3889	1482.6368	1494.7789	1500.1683	1506.2754	1517.5225	1829.164	3022.8001	3023.53	3033.8933	3036.0659	3052.8863	3062.6585	3065.4888	3075.4476	3100.6964	3106.674	3125.8023
CC1CCN=C2OCC12	C[C@H]1CC[N][C]2OC[C@@H]12	
InChI=1S/C7H11NO/c1-5-2-3-8-7-6(5)4-9-7/h5-6H,2-4H2,1H3	InChI=1S/C7H11NO/c1-5-2-3-8-7-6(5)4-9-7/h5-6H,2-4H2,1H3/t5-,6-/m0/s1
