17
gdb 71968	2.82461	1.70776	1.22692	4.7154	77.6	-0.2644	0.0025	0.2669	1017.5857	0.136825	-380.837196	-380.829537	-380.828593	-380.869104	29.674	
C	-0.0400430086	 1.4818092508	 0.0201867318	-0.507116
C	 0.1005125281	-0.006214881	-0.0536210886	 0.294088
C	 0.0215250332	-0.8934975486	-1.2873031329	-0.288166
C	-0.2677691899	-2.0163297373	-0.2756775026	-0.013285
C	 1.0337620673	-2.2285202965	 0.5146516523	-0.295009
C	 0.7556217555	-0.8268995992	 1.038349718	 0.174997
C	 1.2777425619	-0.2384005665	 2.2317426544	 0.200637
N	 1.7331318011	 0.2323332075	 3.1857620588	-0.351952
N	-0.7364430674	-0.941876835	 0.7655520144	-0.20867
H	 0.8340985084	 1.9740035049	-0.4192591094	 0.134077
H	-0.9294975908	 1.807715188	-0.5277735273	 0.132285
H	-0.133521074	 1.816552088	 1.0565928258	 0.153659
H	-0.8657043218	-0.6397012964	-1.8734765825	 0.121153
H	 0.8897700561	-0.9902007383	-1.9464899203	 0.107002
H	-0.9302907394	-2.8459233743	-0.5082500327	 0.099301
H	 0.9110936112	-2.9654006916	 1.3110135933	 0.133416
H	 1.9596890491	-2.4154688744	-0.0366422223	 0.113583
135.2495	150.9082	181.6739	263.5742	312.6474	412.9245	423.0686	508.5735	544.3313	580.7152	651.4254	733.907	744.2108	813.2296	881.5728	906.8062	947.9038	962.7546	997.0809	1033.5782	1035.7433	1090.5259	1145.1733	1152.3122	1181.5967	1221.8616	1259.2127	1272.1696	1283.4494	1349.0333	1372.7052	1424.2328	1481.5587	1488.6724	1490.5099	1507.1335	2348.1314	3039.5325	3050.1745	3059.6066	3105.7074	3109.5749	3123.8603	3124.5906	3156.1069
CC12CC3CC1(C#N)N23	C[C@@]12C[C@H]3C[C@]1(C#N)N23	
InChI=1S/C7H8N2/c1-6-2-5-3-7(6,4-8)9(5)6/h5H,2-3H2,1H3	InChI=1S/C7H8N2/c1-6-2-5-3-7(6,4-8)9(5)6/h5H,2-3H2,1H3/t5-,6+,7+,9?/m0/s1
