16
gdb 28681	3.65672	1.0248	0.87238	1.2827	77.29	-0.2331	0.0045	0.2376	1328.963	0.12322	-400.75774	-400.749031	-400.748087	-400.791998	31.207	
C	 0.1658651035	 1.3845233467	 0.1529945821	-0.488987
C	-0.0292439417	-0.0729377451	-0.0571215434	 0.382226
N	-0.4113907539	-0.6924313577	-1.1287508656	-0.297857
C	-0.4194327552	-2.0358453577	-0.7706326834	-0.20338
C	-0.036513029	-2.1616919428	 0.5208561257	 0.338491
C	 0.1356317034	-3.312340962	 1.4582900159	-0.468151
C	 1.5132545685	-3.5040705941	 1.9126047894	 0.312776
C	 2.6436239207	-3.6591049798	 2.2870378289	-0.449634
O	 0.2171180885	-0.900541821	 0.9950905832	-0.202232
H	 1.2002712118	 1.6067564973	 0.4348197094	 0.147703
H	-0.0724370515	 1.9088940119	-0.7725220519	 0.157554
H	-0.481112503	 1.7582617918	 0.9534024363	 0.145143
H	-0.6978116583	-2.8098696443	-1.4684023268	 0.122397
H	-0.5185623807	-3.1821331278	 2.3313463039	 0.150873
H	-0.2148186581	-4.2147789307	 0.944435547	 0.151973
H	 3.6441300751	-3.7950229146	 2.6156491793	 0.201107
48.4415	88.5413	110.4954	202.7054	247.2792	311.447	331.2885	391.7163	454.0733	624.4613	628.7803	651.9377	687.9753	695.3884	774.2293	856.5263	911.3359	950.4742	987.2054	987.5721	1039.0622	1066.6087	1155.0396	1203.6045	1238.6161	1251.1898	1338.5229	1370.0355	1414.9525	1451.6128	1475.7472	1481.5151	1615.553	1646.9565	2244.6426	3015.0792	3044.4756	3066.7235	3098.7387	3158.1422	3262.0865	3506.679
CC1=NC=C(CC#C)O1	Cc1ncc(CC#C)o1	
InChI=1S/C7H7NO/c1-3-4-7-5-8-6(2)9-7/h1,5H,4H2,2H3	InChI=1S/C7H7NO/c1-3-4-7-5-8-6(2)9-7/h1,5H,4H2,2H3
