19
gdb 117414	5.57913	0.58251	0.55647	5.1868	78.69	-0.263	0.0145	0.2775	1974.8772	0.158061	-419.26643	-419.255894	-419.25495	-419.304925	35.631	
C	 0.4626296422	 1.2902828545	-0.2277714795	-0.373502
C	-0.4032608977	 0.1522084549	 0.3147805718	-0.147616
N	 0.2110799744	-0.5356383301	 1.4419944331	-0.323508
C	 0.6447098597	-1.8242697504	 1.3820251504	 0.429817
O	 0.556210084	-2.5208698156	 0.3852138131	-0.373147
C	 1.2385731891	-2.3557597551	 2.6894098761	-0.329359
C	 2.0338744074	-3.6458728632	 2.4335487114	-0.328775
C	 2.515150249	-4.2502722422	 3.6723841858	 0.252637
N	 2.8900606938	-4.7150758778	 4.6617815268	-0.307002
H	 1.4251687185	 0.9106324576	-0.5821991723	 0.133207
H	-0.0413945402	 1.7855638865	-1.0634212542	 0.125104
H	 0.6561034172	 2.047216096	 0.5403941599	 0.113063
H	-1.3857578171	 0.5341555989	 0.6182296069	 0.110593
H	-0.5645121044	-0.6100828947	-0.4497865188	 0.154073
H	 0.3489745215	-0.0209876888	 2.2972498372	 0.24536
H	 1.8725707434	-1.5989254314	 3.1631903962	 0.129613
H	 0.4184202308	-2.5582856542	 3.3880756692	 0.150479
H	 1.4027415952	-4.356884055	 1.8935354177	 0.17763
H	 2.8883420134	-3.44143669	 1.7805874994	 0.161331
23.2795	31.8797	44.4878	107.9399	113.3217	205.5016	250.6367	314.3942	356.6076	392.2157	434.2547	468.1559	535.3292	617.1279	696.5338	787.1851	794.3516	895.5995	935.7196	959.446	1031.5141	1041.0247	1083.0992	1120.5786	1169.0725	1179.6394	1224.6652	1286.4703	1315.3864	1322.3865	1379.9727	1396.847	1412.5515	1459.6441	1472.7535	1486.1691	1492.9652	1502.8204	1550.7057	1774.849	2363.4173	3031.1696	3034.9839	3043.3694	3067.4463	3082.4475	3098.1805	3112.4377	3118.2872	3129.9499	3631.7882
CCNC(=O)CCC#N	CCNC(=O)CCC#N	
InChI=1S/C6H10N2O/c1-2-8-6(9)4-3-5-7/h2-4H2,1H3,(H,8,9)	InChI=1S/C6H10N2O/c1-2-8-6(9)4-3-5-7/h2-4H2,1H3,(H,8,9)
