21
gdb 119707	3.21582	0.93065	0.84691	1.8401	78.45	-0.2328	0.058	0.2907	1468.9858	0.181418	-424.180416	-424.171014	-424.17007	-424.215117	35.022	
C	 0.015511905	 1.6028220873	 0.0611281438	-0.383142
C	-0.0122019935	 0.0742371966	 0.1310432498	-0.155747
C	-1.4124543775	-0.5110430513	-0.1154703237	-0.318428
C	-1.4422051026	-2.011174089	-0.0452567005	 0.25132
C	-0.8955124912	-2.9705159771	-1.100216562	-0.143775
O	-1.9543904331	-3.9404546172	-0.8390152332	-0.30845
C	-2.576456383	-3.0293055467	 0.0805763675	-0.047275
C	-1.6467846745	-2.8222284531	 1.2290600768	 0.074162
O	-0.7883362156	-3.8332329306	 1.6531777131	-0.438757
H	 1.0224146499	 1.9918685135	 0.2405589828	 0.114251
H	-0.3101495653	 1.9614794344	-0.9217424555	 0.11423
H	-0.6507672155	 2.0451911198	 0.8103009237	 0.114718
H	 0.6877725874	-0.3399806457	-0.606343826	 0.098277
H	 0.3471466734	-0.2619257837	 1.1112586281	 0.108709
H	-2.1120910654	-0.100327729	 0.6246027012	 0.097913
H	-1.7802150272	-0.1773776462	-1.0964138801	 0.096094
H	-0.978903649	-2.5911933071	-2.1247459899	 0.111301
H	 0.1018596294	-3.3923293914	-0.9339272978	 0.112879
H	-3.6594736888	-2.9640959324	 0.069784508	 0.103254
H	-2.0407218386	-2.2399974676	 2.0586533703	 0.102799
H	-0.9236160445	-4.5676909135	 1.0383618337	 0.295668
63.6956	83.5698	107.8333	228.5633	239.8624	255.6159	297.9382	315.4791	334.25	446.6312	506.658	646.2226	704.9185	743.2014	795.7229	825.7116	865.9241	900.9644	926.2793	955.4106	992.3757	1017.628	1031.1983	1046.8458	1053.095	1082.3949	1123.	1157.0223	1175.8642	1221.6695	1262.888	1264.1821	1306.2092	1308.8633	1322.6152	1341.699	1388.6062	1400.9537	1412.4585	1468.187	1480.1592	1491.6809	1499.113	1508.6057	1512.6183	3001.7381	3021.1259	3029.1544	3029.212	3036.4282	3060.7506	3081.2252	3095.9156	3103.7468	3145.9063	3167.1188	3746.7674
CCCC12COC1C2O	CCC[C@]12CO[C@H]1[C@H]2O	
InChI=1S/C7H12O2/c1-2-3-7-4-9-6(7)5(7)8/h5-6,8H,2-4H2,1H3	InChI=1S/C7H12O2/c1-2-3-7-4-9-6(7)5(7)8/h5-6,8H,2-4H2,1H3/t5-,6+,7-/m1/s1
