17
gdb 6496	3.68453	1.44409	1.22299	4.1195	64.47	-0.2318	0.0392	0.271	1012.4928	0.140852	-401.017758	-401.009085	-401.00814	-401.051402	32.108	
N	-1.852771643	-0.6152002644	-2.3731543068	-0.507209
C	-2.7081113734	-0.684013937	-1.3141431264	 0.377419
O	-3.9075808498	-0.5063982877	-1.4109991475	-0.365271
C	-2.0327054833	-0.959278948	 0.0355916471	-0.343443
C	-1.1435600166	-2.185544127	 0.0622408097	 0.41325
O	 0.0435174864	-1.9366606697	-0.6694513456	-0.467023
C	-1.0681379145	-3.0348685565	 1.3002436281	-0.320663
C	-1.7516299462	-3.5595960781	 0.0447136298	-0.328928
H	-2.253711059	-0.5238961547	-3.2923738461	 0.252209
H	-0.9014913138	-0.9330899571	-2.266026074	 0.263249
H	-1.4310305432	-0.0872093936	 0.3200891194	 0.128943
H	-2.8371516786	-1.0644017146	 0.7643298709	 0.127616
H	 0.4737646505	-2.7763075151	-0.8582342539	 0.287107
H	-0.1000734042	-3.4550009729	 1.55388224	 0.113081
H	-1.6801672225	-2.7743486299	 2.1568893239	 0.124206
H	-2.8327811182	-3.6455101357	 0.0347422602	 0.137339
H	-1.2431331208	-4.3387500179	-0.5162058987	 0.108118
40.4077	83.6284	194.5679	196.2842	313.9396	324.9979	358.751	402.4916	445.9985	482.4692	546.7001	603.0259	688.5624	756.9949	780.2282	846.9709	901.4619	934.8471	940.7771	972.0889	1002.2754	1051.7134	1069.8061	1109.9949	1167.8629	1182.5697	1194.0632	1312.2562	1326.9097	1365.6592	1425.4306	1458.7861	1464.7318	1504.0684	1617.7864	1800.2777	3042.7474	3122.3548	3129.1635	3133.1897	3205.7404	3220.8457	3565.7801	3710.4855	3827.0962
NC(=O)CC1(O)CC1	NC(=O)CC1(O)CC1	
InChI=1S/C5H9NO2/c6-4(7)3-5(8)1-2-5/h8H,1-3H2,(H2,6,7)	InChI=1S/C5H9NO2/c6-4(7)3-5(8)1-2-5/h8H,1-3H2,(H2,6,7)
