20
gdb 57814	4.72159	0.52285	0.4987	3.9687	87.44	-0.2454	0.0256	0.271	2233.9073	0.168843	-403.154572	-403.143618	-403.142674	-403.193855	37.371	
C	 0.245509199	 1.3003240389	 0.2993970605	-0.374158
C	-0.1578420492	-0.1356579182	-0.0905929598	-0.124224
C	-1.6873814215	-0.2732848518	-0.2273602972	-0.374059
C	 0.5202276776	-0.5609178568	-1.3160886026	 0.118065
C	 1.0572652204	-0.8982424158	-2.340477892	-0.003953
C	 1.7350869195	-1.3070405225	-3.5661678054	-0.285996
N	 2.5815799825	-2.480030747	-3.3641444261	-0.268483
C	 2.5732255727	-3.5362478452	-4.2187569537	 0.160966
O	 1.9301439069	-3.5984972462	-5.2452982562	-0.322564
H	 1.3282752188	 1.3864347946	 0.4227725771	 0.121649
H	-0.0652296026	 2.0105721535	-0.4730243248	 0.125663
H	-0.2342051966	 1.5858664687	 1.2408888785	 0.114132
H	 0.1674096116	-0.8060881223	 0.7174973166	 0.105421
H	-2.0634780929	 0.3831003061	-1.0180446447	 0.125899
H	-1.9694989873	-1.2993743477	-0.4765370466	 0.126433
H	-2.1779098534	 0.003692868	 0.711216596	 0.113364
H	 1.0202310134	-1.5815446044	-4.3486235645	 0.172567
H	 2.3296026618	-0.4714486167	-3.9612307441	 0.137819
H	 3.11461738	-2.5419461148	-2.5117413143	 0.253272
H	 3.2377443892	-4.3508351204	-3.8690963865	 0.078188
10.3124	24.0127	81.5975	110.0105	175.8485	226.4331	241.9216	256.8543	274.3929	288.8104	353.971	502.8348	516.8431	523.8245	536.7593	694.3421	792.3716	889.1195	931.1733	963.8528	971.0581	1031.7506	1038.4463	1069.6065	1121.1951	1151.8507	1203.9265	1210.2709	1255.0049	1322.5019	1348.81	1373.8935	1396.4698	1418.637	1426.6931	1485.3543	1489.2021	1491.3443	1498.7429	1510.1338	1518.2369	1804.0722	2364.4824	2939.869	3004.401	3006.657	3037.1753	3040.6737	3081.2844	3108.4332	3113.5453	3118.9341	3122.2121	3643.3711
CC(C)C#CCNC=O	CC(C)C#CCNC=O	
InChI=1S/C7H11NO/c1-7(2)4-3-5-8-6-9/h6-7H,5H2,1-2H3,(H,8,9)	InChI=1S/C7H11NO/c1-7(2)4-3-5-8-6-9/h6-7H,5H2,1-2H3,(H,8,9)
