22
gdb 68895	2.34818	1.75961	1.20389	1.4817	87.58	-0.219	0.02	0.2389	1126.6731	0.195016	-367.216332	-367.207527	-367.206582	-367.248932	35.276	
C	-0.0582163449	 1.5191021834	-0.0454991983	-0.47627
C	 0.0204073671	 0.0080801402	 0.0333118508	 0.273556
C	 0.062640148	-0.6625710647	-1.3341130643	-0.246814
C	 0.1031235567	-2.198846328	-1.2752896316	-0.268874
C	 1.1029998612	-2.6912147549	-0.2643503186	-0.090218
C	 1.3799761349	-1.9985953942	 0.8392401469	-0.051674
C	 0.7246398689	-0.6943767044	 1.1571408032	 0.253045
C	 1.3651963405	 0.0538217398	 2.3084464667	-0.49301
N	-0.7710941674	-0.7099097155	 1.0509982319	-0.407545
H	 0.7926480185	 1.929009708	-0.6013632554	 0.122139
H	-0.9699827531	 1.8200040544	-0.5753229592	 0.121656
H	-0.0762817487	 1.9945280794	 0.9376974321	 0.112063
H	-0.8022158831	-0.3372498427	-1.9253428295	 0.094055
H	 0.9560071888	-0.2959582118	-1.8572539148	 0.096844
H	-0.8920521365	-2.5760773719	-1.0104731406	 0.130482
H	 0.3323586181	-2.5980724857	-2.2695184811	 0.092934
H	 1.5870431452	-3.6474862065	-0.4433774898	 0.084787
H	 2.0988715247	-2.3747950021	 1.5630235489	 0.076082
H	 2.4134141581	 0.2876075677	 2.0904604373	 0.124701
H	 0.8544903938	 0.9904370418	 2.5417284087	 0.112177
H	 1.3492200708	-0.5656469363	 3.2129871588	 0.12424
H	-1.1540835417	-0.038316096	 1.7151211381	 0.215645
159.9742	169.5968	179.0515	191.9985	294.2203	315.0158	330.1566	393.4372	427.1399	443.805	514.56	576.4562	648.1529	676.3375	712.8034	764.7763	846.0367	882.5886	895.2414	941.4405	983.5865	983.9865	998.5914	1034.6563	1053.0613	1064.9182	1104.7218	1110.2444	1159.9373	1190.4985	1222.7263	1258.8788	1282.3688	1296.7431	1355.4272	1389.3539	1408.0923	1418.3289	1420.8477	1431.6193	1470.1102	1480.8406	1482.9551	1490.5033	1498.1872	1515.5323	1718.1936	3014.3258	3026.7989	3030.8391	3031.1507	3052.2369	3068.1206	3083.3795	3084.6819	3112.1491	3127.7573	3145.5564	3170.8929	3466.5151
CC12CCC=CC1(C)N2	C[C@@]12CCC=C[C@]1(C)N2	
InChI=1S/C8H13N/c1-7-5-3-4-6-8(7,2)9-7/h3,5,9H,4,6H2,1-2H3	InChI=1S/C8H13N/c1-7-5-3-4-6-8(7,2)9-7/h3,5,9H,4,6H2,1-2H3/t7-,8+/m0/s1
