15
gdb 44309	3.64714	1.87281	1.45449	1.2783	70.18	-0.2407	0.0123	0.253	865.769	0.114802	-416.6846	-416.678726	-416.677782	-416.714652	24.596	
N	-0.0026928019	 1.2405923545	-0.1852800549	-0.562578
C	-0.0309278314	-0.0017255925	 0.0040092263	 0.344236
O	 1.0653598132	-0.8655576371	 0.0497091839	-0.282845
C	 0.5071796449	-2.2037608076	 0.2942501764	 0.054789
C	-0.7667696055	-2.2780139967	-0.5376026788	-0.029198
N	-1.7221702573	-2.8151443499	 0.5580065795	-0.192241
C	-2.5554828584	-1.520917077	 0.4272439351	-0.264091
C	-1.1368792244	-0.9745087289	 0.2356958879	 0.174929
C	-0.6258591709	-2.0023919119	 1.2923027286	-0.029197
H	 0.957945111	 1.5672050899	-0.3084414535	 0.229872
H	 1.3232402575	-2.9217311402	 0.33955239	 0.102368
H	-0.9254633918	-2.4853966308	-1.5952221072	 0.103101
H	-3.2248968456	-1.5187993471	-0.4364592603	 0.123876
H	-3.0879006264	-1.2508509552	 1.3425027247	 0.123877
H	-0.6196941731	-1.8873098695	 2.3755701823	 0.103101
175.7323	307.6795	366.8862	465.1044	532.5574	624.6188	679.7854	696.7196	781.7932	820.2625	843.4573	863.5772	872.1554	892.494	896.4576	916.7581	935.9508	967.2698	1015.0141	1039.5385	1092.2853	1108.9018	1129.0535	1177.3013	1184.3685	1202.0355	1207.2152	1249.4588	1281.849	1317.5362	1357.4688	1515.0796	1809.2662	3062.4139	3127.6012	3128.7083	3130.5953	3151.693	3465.4917
N=C1OC2C3N4CC13C24	[NH][C]1O[C@@H]2[C@H]3N4C[C@]13[C@H]24	
InChI=1S/C6H6N2O/c7-5-6-1-8-3(6)2(9-5)4(6)8/h2-4,7H,1H2	InChI=1S/C6H6N2O/c7-5-6-1-8-3(6)2(9-5)4(6)8/h2-4,7H,1H2/t2-,3-,4+,6+
