19
gdb 57770	3.02148	0.68603	0.59042	1.4587	82.65	-0.2496	-0.0316	0.218	1877.4408	0.155033	-423.007318	-422.996254	-422.995309	-423.045789	37.779	
C	-0.0312927989	 1.5502583031	 0.5067350894	-0.385669
C	-0.0332719001	 0.1424745838	-0.1059346263	-0.021647
O	 0.9280997115	-0.7047284813	 0.5189677674	-0.411134
C	-1.3760416166	-0.4506707312	-0.0890293928	 0.067832
C	-2.4748877768	-0.9454509954	-0.0523561558	 0.036953
C	-3.8127859716	-1.5234427021	 0.0180949231	-0.217853
C	-3.7844891615	-2.9960055798	 0.4946600479	-0.397181
C	-4.6744079517	-0.7096904596	 0.9886190162	 0.175088
O	-5.7825180369	-0.3182771063	 0.7434651681	-0.240547
H	 0.9829765472	 1.9565891226	 0.4785189671	 0.127709
H	-0.7008368652	 2.2167970604	-0.0444326132	 0.128527
H	-0.368582207	 1.5153142493	 1.5478759801	 0.115959
H	 0.3045626838	 0.2124850296	-1.1470398419	 0.122051
H	 0.6132299348	-0.889215821	 1.4109614215	 0.281539
H	-4.3032219557	-1.4693643731	-0.9602463539	 0.127288
H	-3.3745883498	-3.0694632277	 1.5064561821	 0.130177
H	-4.7955250293	-3.4122658791	 0.4936550368	 0.13501
H	-3.1544186399	-3.591513846	-0.1697470793	 0.142274
H	-4.1872189264	-0.524063976	 1.9725282534	 0.083622
16.4442	45.8805	89.056	91.3567	178.6371	217.3049	225.5127	258.5063	287.1777	301.3424	361.0937	443.647	465.5447	472.7005	564.3723	605.1282	739.065	872.1555	897.8665	929.1155	999.34	1044.3082	1077.4535	1087.3948	1103.6969	1131.3009	1179.8065	1268.0152	1283.6228	1323.5843	1338.0979	1398.1862	1400.186	1416.4556	1416.7577	1488.3706	1491.6442	1491.9741	1496.7446	1840.674	2352.3775	2880.1507	3037.9026	3042.0119	3045.1202	3053.5726	3114.5074	3121.3563	3128.7562	3132.7148	3803.7393
CC(O)C#CC(C)C=O	C[C@@H](O)C#C[C@@H](C)C=O	
InChI=1S/C7H10O2/c1-6(5-8)3-4-7(2)9/h5-7,9H,1-2H3	InChI=1S/C7H10O2/c1-6(5-8)3-4-7(2)9/h5-7,9H,1-2H3/t6-,7-/m1/s1
