19
gdb 72708	2.64328	2.07409	1.61272	1.8482	79.61	-0.2261	0.0057	0.2318	910.15	0.159073	-385.752957	-385.745838	-385.744894	-385.783658	30.687	
C	-0.0987957471	 1.5141652148	-0.065964024	-0.454141
C	-0.0663737866	-0.0177020115	-0.0629822206	 0.287292
C	-1.2828678401	-0.5082368367	 0.8026961911	-0.193697
O	-0.3760255801	-0.5522557533	 1.9892015796	-0.370764
C	 0.6889464124	-0.754101716	 1.0136653962	 0.361226
C	 2.0408552305	-0.2394531331	 0.3772432271	-0.315926
C	 1.1453976128	-0.6058161905	-0.9402060655	-0.174888
C	 1.0053384266	-2.1107946848	-0.7651154623	-0.072798
C	 0.7252082914	-2.2188941299	 0.5326065846	-0.1622
H	 0.8090537318	 1.9718335179	-0.464255425	 0.114607
H	-0.9273568972	 1.8417808877	-0.7055413369	 0.115913
H	-0.2783552455	 1.9139426711	 0.9371582129	 0.135397
H	-2.0906304046	 0.2109452982	 0.9579578408	 0.110173
H	-1.6732693174	-1.5053378067	 0.5857544162	 0.117636
H	 2.2571397207	 0.8212957475	 0.5000937464	 0.114692
H	 2.9364285283	-0.8470900066	 0.5232429058	 0.104631
H	 1.4060858344	-0.1907381412	-1.9141520797	 0.07273
H	 1.130564491	-2.8637262239	-1.5302490625	 0.104873
H	 0.5306665588	-3.073761713	 1.1645680758	 0.105245
215.1734	248.5968	311.3945	321.7342	402.513	463.2047	472.6652	517.6562	543.3824	618.1798	689.7319	719.5663	753.0098	806.3769	823.114	860.7937	895.2506	913.4358	920.7139	937.7511	968.1365	1015.0837	1027.053	1039.8049	1090.2805	1103.6592	1115.1063	1136.7048	1161.2945	1185.395	1200.3525	1226.3555	1260.1859	1289.0048	1317.5373	1403.1372	1479.7152	1485.9182	1504.1788	1513.3493	1634.154	3029.6451	3056.3262	3076.2006	3088.9666	3114.1199	3120.5392	3125.879	3156.3474	3218.8598	3247.4696
CC12COC11CC2C=C1	C[C@]12CO[C@@]31C[C@H]2C=C3	
InChI=1S/C8H10O/c1-7-5-9-8(7)3-2-6(7)4-8/h2-3,6H,4-5H2,1H3	InChI=1S/C8H10O/c1-7-5-9-8(7)3-2-6(7)4-8/h2-3,6H,4-5H2,1H3/t6-,7-,8-/m1/s1
