20
gdb 81495	3.4675	1.25099	1.04371	4.2805	84.38	-0.2961	0.0325	0.3286	1199.2796	0.170948	-365.979496	-365.970761	-365.969817	-366.012429	33.757	
C	-0.1613275298	 1.6297301909	 0.1569672296	-0.449088
C	 0.0197811274	 0.1186055516	 0.118234106	 0.041158
C	 1.1714149979	-0.5528264092	-0.7031478933	-0.083658
C	 2.1573731735	-0.0773084307	 0.4042846933	-0.259107
C	 0.9146731265	-0.6314055705	 1.1614662961	-0.083594
C	 0.9426029474	-1.855410224	 0.1621143201	 0.203801
C	-0.2820411677	-2.7567820168	-0.0444617525	-0.485375
C	 2.1101319132	-2.7333662484	 0.286020125	 0.223786
N	 2.9931835815	-3.4751637747	 0.3764862005	-0.356186
H	 0.7629436597	 2.1907317327	 0.3075781205	 0.123691
H	-0.6092779656	 1.9766841584	-0.7806631768	 0.123221
H	-0.8490972683	 1.9032160896	 0.9646599107	 0.123225
H	-0.9611199501	-0.3325849629	-0.0357797499	 0.068558
H	 1.3227534611	-0.5316629114	-1.7837272294	 0.082468
H	 3.0886358949	-0.6345813874	 0.5090168062	 0.13261
H	 2.3392247637	 0.9927537139	 0.4744246849	 0.10052
H	 0.7686162399	-0.7012880817	 2.2407213051	 0.082461
H	-1.211854141	-2.1990764454	-0.1515386904	 0.130847
H	-0.1486646795	-3.3684782564	-0.9416754116	 0.140351
H	-0.3916395247	-3.4386119676	 0.8041128561	 0.140312
128.466	153.7443	167.5648	168.1874	250.3401	283.4174	316.4198	397.1936	478.7553	523.4892	556.8423	608.6836	665.1763	741.9101	797.545	812.4985	866.4809	898.8365	913.8863	1015.9554	1021.4762	1021.7195	1049.6181	1083.9151	1091.9927	1129.5579	1129.8991	1163.7118	1175.8613	1203.4839	1225.3995	1233.787	1248.9103	1265.8917	1403.6776	1417.0647	1434.7742	1490.1597	1495.2885	1496.4564	1503.4311	1535.9705	2342.6814	3038.0401	3051.2408	3089.74	3092.9532	3093.2992	3099.7047	3109.7616	3111.8246	3127.5405	3149.3607	3163.9641
CC1C2CC1C2(C)C#N	C[C@H]1[C@H]2C[C@@H]1[C@]2(C)C#N	
InChI=1S/C8H11N/c1-5-6-3-7(5)8(6,2)4-9/h5-7H,3H2,1-2H3	InChI=1S/C8H11N/c1-5-6-3-7(5)8(6,2)4-9/h5-7H,3H2,1-2H3/t5-,6+,7-,8+
