21
gdb 57768	2.84283	0.67555	0.62061	2.8422	90.2	-0.242	-0.0255	0.2166	1918.3619	0.178708	-387.085469	-387.074181	-387.073237	-387.124112	38.949	
C	-0.1432564048	 1.5287510244	 0.0051535425	-0.37391
C	 0.0400452016	-0.0013341752	-0.0392354091	-0.126019
C	 0.7939756534	-0.4400931515	-1.310658051	-0.374338
C	 0.714671262	-0.4873042261	 1.1654771953	 0.098047
C	 1.2703745983	-0.8779302252	 2.1616199082	 0.01782
C	 1.9923756	-1.345022225	 3.3411834427	-0.211505
C	 1.983871711	-2.8881981198	 3.4580820118	-0.396523
C	 3.4454490381	-0.8673265273	 3.2657948874	 0.174876
O	 4.0258439097	-0.316573489	 4.1613627796	-0.24402
H	 0.8280073936	 2.0325007207	 0.0255464433	 0.125427
H	-0.6890155775	 1.87029859	-0.880118165	 0.113211
H	-0.701077086	 1.832775629	 0.8945829758	 0.125202
H	-0.9593013461	-0.4580014804	-0.0688421051	 0.106433
H	 1.7973694412	-0.0036471176	-1.3331268962	 0.124251
H	 0.8960344323	-1.5276224727	-1.3532617144	 0.122694
H	 0.2553201171	-0.1074258921	-2.2035573587	 0.114086
H	 1.5662095742	-0.9107123237	 4.2524879633	 0.121689
H	 0.9552164668	-3.2549946029	 3.485897151	 0.136852
H	 2.4827679668	-3.3449840015	 2.5980343474	 0.130206
H	 2.4971064986	-3.2028112655	 4.371105835	 0.131608
H	 3.9398858595	-1.0947654187	 2.2943892162	 0.08391
15.3901	46.9643	83.8206	99.5449	184.8231	207.7043	227.8427	228.3708	273.7669	297.6988	339.5293	427.1553	440.7304	497.2238	547.6712	564.9669	719.8229	862.5047	893.1563	929.7028	930.3232	966.3183	1021.1365	1083.6476	1095.2713	1120.3002	1130.6725	1160.2599	1208.7573	1270.9443	1323.8048	1326.9422	1349.6499	1394.9772	1399.055	1417.231	1417.4045	1485.8607	1488.8886	1492.4597	1497.4741	1498.41	1510.6528	1839.2547	2355.2512	2880.7676	3004.9182	3037.0788	3040.3072	3043.7687	3051.5347	3108.4134	3113.4531	3118.8675	3120.376	3121.4001	3129.3858
CC(C)C#CC(C)C=O	CC(C)C#C[C@@H](C)C=O	
InChI=1S/C8H12O/c1-7(2)4-5-8(3)6-9/h6-8H,1-3H3	InChI=1S/C8H12O/c1-7(2)4-5-8(3)6-9/h6-8H,1-3H3/t8-/m1/s1
