18
gdb 79541	2.44221	1.7217	1.21493	4.3198	80.87	-0.2756	0.0202	0.2958	1054.7204	0.148608	-364.788599	-364.780725	-364.77978	-364.820826	30.686	
C	-0.0611472313	 1.5331712147	 0.0057153409	-0.42577
C	 0.1069217647	 0.0302771181	 0.0651960736	-0.004926
C	 1.3888379037	-0.717883571	-0.2004262525	-0.084453
C	 2.6017612811	-0.0211169052	 0.3665353438	-0.106868
C	 3.2157252031	-0.8230209527	 1.4728344592	-0.323877
C	 1.9481583278	-0.0446821967	 1.775991358	 0.212095
C	 1.9279260194	 0.9964207587	 2.7547480131	 0.206823
N	 1.9010480906	 1.8360560324	 3.5517051014	-0.358957
C	 0.7344386121	-0.7423729101	 1.1995669955	-0.162966
H	 0.8007387029	 2.0657762444	 0.4130259684	 0.136284
H	-0.2003066184	 1.8613665961	-1.0300020959	 0.119109
H	-0.9414530938	 1.845357912	 0.5768795878	 0.128361
H	-0.7499017455	-0.5095573101	-0.3372215503	 0.093717
H	 1.4394205919	-1.537242705	-0.9084023438	 0.098189
H	 3.1219769307	 0.8210776838	-0.0743325635	 0.114
H	 3.1655673463	-1.9078494376	 1.4574282126	 0.123135
H	 4.1219406997	-0.4136124496	 1.9079729101	 0.13661
H	 0.2302522852	-1.5707319024	 1.6838281315	 0.099492
111.1051	151.4844	187.163	228.5676	270.6423	385.3452	448.7956	521.5568	559.1832	581.1464	657.1804	728.8151	757.0271	824.9344	830.2644	895.994	915.3597	968.1505	984.9608	1015.5037	1026.6829	1052.8809	1066.3432	1082.2257	1101.2252	1113.291	1141.0578	1203.3714	1213.773	1276.7125	1287.4127	1336.4522	1356.6524	1418.1783	1440.5563	1487.1786	1493.2526	1502.1584	2342.9363	3039.4933	3098.1332	3113.4886	3122.8805	3133.6871	3172.7742	3183.0991	3187.2022	3215.2484
CC1C2C3CC3(C#N)C12	C[C@H]1[C@H]2[C@@H]3C[C@]3(C#N)[C@@H]12	
InChI=1S/C8H9N/c1-4-6-5-2-8(5,3-9)7(4)6/h4-7H,2H2,1H3	InChI=1S/C8H9N/c1-4-6-5-2-8(5,3-9)7(4)6/h4-7H,2H2,1H3/t4-,5-,6-,7-,8+/m0/s1
