23
gdb 122178	2.88778	0.7959	0.70239	1.006	83.73	-0.2508	0.0903	0.3411	1732.8357	0.202168	-425.407118	-425.39596	-425.395016	-425.444381	39.309	
C	 0.1566054392	 1.2168185581	-0.4426251702	-0.228599
O	-0.0299945527	-0.0024766381	 0.2330134681	-0.231679
C	-1.237827286	-0.6440243041	-0.1174768454	-0.045742
C	-1.3075897916	-1.9630193479	 0.6493312203	-0.288135
C	-2.5478510029	-2.7724578672	 0.311200556	 0.387113
C	-3.8473447783	-2.2625711791	 0.9048304814	-0.460566
O	-2.6535516047	-3.1828533015	-1.0683609916	-0.303667
C	-2.4724438547	-4.1979296141	-0.0732576119	 0.028246
C	-1.2227206136	-5.0364947945	-0.1515766748	-0.426161
H	 1.112643645	 1.6317244727	-0.1134742596	 0.124889
H	 0.1859536492	 1.0796549719	-1.5353983345	 0.104268
H	-0.6420609145	 1.9403929732	-0.2119857605	 0.101221
H	-2.0960206197	 0.0057717244	 0.1236450457	 0.082603
H	-1.2747832672	-0.8449829368	-1.1999493682	 0.10529
H	-0.39883147	-2.5237621485	 0.4204074068	 0.111151
H	-1.2916177884	-1.7531442396	 1.7251276004	 0.105609
H	-4.0472565437	-1.2312246917	 0.5967548181	 0.126627
H	-4.6867606054	-2.8797621568	 0.5755958619	 0.126136
H	-3.8072401171	-2.2816010744	 1.9994448467	 0.120215
H	-3.378030795	-4.7820903926	 0.1126134701	 0.079199
H	-0.3373809963	-4.4364633395	-0.3684699398	 0.131486
H	-1.0623600699	-5.5745400311	 0.7891947251	 0.121499
H	-1.3251322418	-5.7811254631	-0.948149284	 0.128996
38.3293	69.6059	112.3749	115.5519	161.4303	170.8982	228.393	243.7689	251.4509	288.9605	369.0162	416.9487	464.243	485.8108	541.3715	723.827	778.2742	802.6606	894.7999	957.0178	984.4954	994.8712	1009.1325	1058.0573	1099.4288	1116.6134	1137.161	1162.5841	1172.259	1187.2702	1227.5741	1231.1777	1270.0923	1304.3312	1321.2344	1367.6094	1407.2747	1413.0013	1423.9286	1459.7793	1480.0757	1481.1145	1484.78	1484.9857	1490.8414	1496.2603	1505.9385	1515.7557	1535.034	2956.0763	2969.8972	2997.2748	3009.9109	3036.0344	3038.3375	3049.9465	3066.6787	3097.8976	3099.5936	3109.8543	3110.9732	3122.8313	3138.7637
COCCC1(C)OC1C	COCC[C@@]1(C)O[C@H]1C	
InChI=1S/C7H14O2/c1-6-7(2,9-6)4-5-8-3/h6H,4-5H2,1-3H3	InChI=1S/C7H14O2/c1-6-7(2,9-6)4-5-8-3/h6H,4-5H2,1-3H3/t6-,7+/m0/s1
