16
gdb 9534	2.82786	1.92103	1.61577	3.3113	60.55	-0.2522	0.0015	0.2537	875.8489	0.128693	-420.889445	-420.881094	-420.880149	-420.922292	29.428	
C	-0.0604566418	 1.4361450177	 0.0002788291	-0.263912
O	 0.1450651709	 0.0289435238	 0.0426037787	-0.284591
C	 0.727509648	-0.5373460183	-1.106115345	 0.220189
C	 2.148250083	-0.0631365531	-1.3865379948	-0.464765
C	 0.485928161	-2.0603985868	-1.1312849407	-0.117554
O	-0.3368927986	-1.9277747379	-2.3374851231	-0.240052
C	-0.2091227067	-0.5645694506	-2.3448996974	 0.418314
O	-0.7131369151	 0.2145699522	-3.0897652374	-0.332087
H	 0.8857752495	 1.991483405	 0.0354350945	 0.114288
H	-0.6186381894	 1.7350832035	-0.8941963241	 0.145226
H	-0.6435150222	 1.6837686949	 0.8895513749	 0.134977
H	 2.7691218786	-0.2032502039	-0.4963108649	 0.133731
H	 2.5867119247	-0.6276368468	-2.2145036803	 0.133657
H	 2.1633259066	 0.9940327167	-1.6629532149	 0.142571
H	 1.3525605433	-2.6955822706	-1.3216263383	 0.12323
H	-0.1069406017	-2.4266751359	-0.2927458963	 0.136777
94.5416	125.8462	147.1304	195.5315	219.6658	276.4022	321.624	366.6271	426.7188	564.178	692.2684	741.4853	778.6177	894.6466	911.826	952.0403	965.9584	1092.4723	1106.2975	1155.6903	1172.1985	1181.8322	1203.2801	1243.974	1259.6869	1356.4168	1404.7802	1473.9419	1482.7528	1488.4926	1501.2958	1507.7461	1512.8977	1925.4824	3011.262	3044.5877	3079.2421	3081.907	3118.8427	3126.5403	3130.412	3152.7001
COC1(C)COC1=O	CO[C@@]1(C)COC1=O	
InChI=1S/C5H8O3/c1-5(7-2)3-8-4(5)6/h3H2,1-2H3	InChI=1S/C5H8O3/c1-5(7-2)3-8-4(5)6/h3H2,1-2H3/t5-/m0/s1
