20
gdb 109657	2.79606	1.01006	0.93476	2.112	77.66	-0.2338	-0.0238	0.21	1348.0261	0.167248	-440.256298	-440.245598	-440.244654	-440.292585	37.414	
C	-0.5844541165	 0.6335881406	-2.0784634411	-0.316734
N	-0.1350582255	-0.3111311594	-1.0625926075	-0.126977
C	 1.2658290644	-0.4127336819	-0.7120015368	-0.073633
C	 2.3599210868	 0.4141661211	-1.3556653043	-0.090697
O	 2.6358225005	-0.0235600723	-2.6795948526	-0.412251
C	 0.2692111518	 0.1634765188	 0.275216867	 0.169958
C	 0.2673729275	 1.6167372433	 0.6989285266	-0.477866
C	-0.1791123765	-0.7915499817	 1.3421199913	 0.145261
O	-0.3435615744	-0.497730936	 2.4992597789	-0.26457
H	-0.127379188	 1.630254258	-2.0345958257	 0.108091
H	-0.3630230361	 0.2063845036	-3.0598458757	 0.142555
H	-1.6678318588	 0.7529812067	-1.9861180199	 0.127671
H	 1.5846511261	-1.4458153185	-0.5420681953	 0.083329
H	 2.0834803911	 1.4649699876	-1.4512800779	 0.114536
H	 3.2581676566	 0.3706172502	-0.7203865836	 0.101421
H	 2.9121205025	-0.9452462586	-2.6376231142	 0.286072
H	 0.715145815	 2.2860168463	-0.0350579005	 0.121247
H	-0.7572847056	 1.952919851	 0.887016925	 0.135862
H	 0.8137067484	 1.7172050539	 1.6399813955	 0.146697
H	-0.3507911092	-1.8227302825	 0.9611425107	 0.08003
56.8411	75.5625	96.5144	130.2785	159.2006	209.0862	244.7084	282.8644	293.3049	310.9917	338.8726	412.5048	480.7903	563.7616	603.6658	730.7383	752.0493	832.5649	943.3709	999.004	1015.9491	1047.4956	1090.5746	1101.733	1114.7938	1144.3301	1147.0497	1169.2169	1218.736	1304.7795	1346.1579	1368.3736	1398.171	1412.5076	1419.1199	1437.8487	1456.0305	1478.2401	1487.1106	1497.6779	1499.0996	1516.0105	1821.9201	2893.1919	2988.2126	3016.4217	3048.3199	3054.924	3084.8298	3115.8218	3120.5268	3121.3969	3151.169	3809.1621
CN1C(CO)C1(C)C=O	CN1[C@@H](CO)[C@]1(C)C=O	
InChI=1S/C6H11NO2/c1-6(4-9)5(3-8)7(6)2/h4-5,8H,3H2,1-2H3	InChI=1S/C6H11NO2/c1-6(4-9)5(3-8)7(6)2/h4-5,8H,3H2,1-2H3/t5-,6-,7?/m0/s1
