17
gdb 24643	4.52552	1.13403	0.97648	2.8417	81.84	-0.2465	-0.0318	0.2147	1203.6514	0.139156	-380.914634	-380.907412	-380.906467	-380.946811	27.676	
C	-0.2272120004	 1.2874830105	-0.3539157606	-0.267951
C	 1.1617828763	 1.1839788757	 0.1897167325	-0.26797
C	 0.2940977865	-0.0611522281	 0.1135375067	-0.077166
C	-0.2332347795	-0.7053871875	 1.3379534593	 0.356639
N	-0.3214351987	-2.0448203018	 1.3073043724	-0.314386
C	-0.7937436146	-2.6441264711	 2.3999084856	 0.069293
N	-1.194607073	-2.0699693736	 3.5336686842	-0.255849
C	-1.1025356397	-0.7354280354	 3.5535292325	 0.023168
C	-0.6276559898	 0.001135313	 2.4809614832	-0.20273
H	-0.9868961917	 1.7656943843	 0.254773152	 0.122239
H	-0.3609159918	 1.421226956	-1.421312929	 0.125586
H	 1.9971112594	 1.2455069741	-0.4984284463	 0.125583
H	 1.3636758892	 1.59058323	 1.1747151581	 0.122237
H	 0.540886996	-0.7838782152	-0.654658969	 0.10549
H	-0.8591872342	-3.7295123188	 2.3589038751	 0.116689
H	-1.4233976094	-0.2409737784	 4.4679408922	 0.116038
H	-0.5685314147	 1.0820220362	 2.5365558811	 0.103088
65.7091	144.5105	188.7091	318.5851	384.2221	394.9951	548.9549	573.4243	688.9115	763.5541	800.3183	803.8006	830.3547	857.6328	920.3791	936.928	989.8166	1005.1593	1023.9623	1055.2493	1063.9129	1080.309	1104.3039	1140.1487	1188.955	1203.8351	1217.8123	1233.6785	1284.7724	1334.538	1403.8302	1422.6752	1471.8462	1498.887	1510.8041	1588.2865	1622.8104	3136.2566	3138.9719	3152.4002	3157.7407	3188.6473	3194.39	3215.9696	3231.4848
C1CC1C1=NC=NC=C1	C1CC1c1ncncc1	
InChI=1S/C7H8N2/c1-2-6(1)7-3-4-8-5-9-7/h3-6H,1-2H2	InChI=1S/C7H8N2/c1-2-6(1)7-3-4-8-5-9-7/h3-6H,1-2H2
