21
gdb 90322	2.40585	1.71489	1.20927	1.5425	84.97	-0.2219	0.0255	0.2474	1100.692	0.183178	-387.068939	-387.060432	-387.059488	-387.101839	33.626	
C	-0.147904593	 1.5732382103	-0.2539469458	-0.375734
C	-0.0047285889	 0.0586043979	-0.0730107832	-0.02137
C	 0.9499357246	-0.5533742708	-1.1680404093	-0.250363
C	 2.291899672	-0.7186561724	-0.4632235671	-0.247695
C	 2.0933132664	-0.7096200897	 0.8484097794	 0.338228
C	 2.6559049612	-0.3553612327	 2.2043693691	-0.370599
C	 1.2842587122	 0.391299473	 2.4603142326	 0.08445
O	 1.3414716639	 1.7799091793	 2.2298020098	-0.419534
C	 0.676352571	-0.4143638278	 1.2433629889	-0.048647
H	 0.8260021877	 2.0671815026	-0.2332919248	 0.126167
H	-0.6267938976	 1.7864457303	-1.2161822466	 0.095925
H	-0.754830194	 2.0175526561	 0.5389368463	 0.113956
H	-1.0005951302	-0.3895651804	-0.1562844729	 0.062546
H	 0.5651823719	-1.5124398129	-1.5429928007	 0.097668
H	 1.026634878	 0.1068523132	-2.0405245697	 0.097082
H	 3.2379535112	-0.761516935	-0.9908325315	 0.087371
H	 2.7825662698	-1.2124287236	 2.8748152929	 0.106965
H	 3.5585631397	 0.2621179517	 2.2371838638	 0.104685
H	 0.8158630767	 0.1728642433	 3.4299131705	 0.063466
H	 1.8995315874	 2.1688587614	 2.910917408	 0.284245
H	 0.15402895	-1.285665444	 1.6601067004	 0.071188
59.4204	194.196	210.119	274.0397	278.7878	296.8484	319.5475	385.8913	407.6374	528.7001	648.4293	691.6268	720.0074	772.2674	804.315	826.8644	854.6845	912.0199	938.3194	943.8872	973.906	998.1799	1047.481	1064.0068	1084.7577	1102.0262	1136.0742	1142.3273	1194.5074	1221.9348	1225.3169	1231.5474	1246.5676	1300.1795	1306.8237	1324.476	1343.8134	1370.4224	1412.1405	1417.5778	1459.0927	1486.1797	1493.3904	1495.4672	1745.9802	2992.8263	3001.9102	3011.133	3035.1482	3039.8903	3045.9336	3049.3869	3093.8103	3107.3113	3131.2318	3194.0613	3811.494
CC1CC=C2CC(O)C12	C[C@H]1C[CH][C]2C[C@@H](O)[C@@H]12	
InChI=1S/C8H12O/c1-5-2-3-6-4-7(9)8(5)6/h3,5,7-9H,2,4H2,1H3	InChI=1S/C8H12O/c1-5-2-3-6-4-7(9)8(5)6/h3,5,7-9H,2,4H2,1H3/t5-,7+,8-/m0/s1
