17
gdb 80742	4.11295	1.13693	1.11655	1.5517	71.55	-0.2427	0.0181	0.2607	1112.6931	0.138232	-417.996576	-417.988907	-417.987963	-418.028928	29.739	
O	-0.059616064	 1.460638378	-0.0727041648	-0.426065
C	 0.0150659856	 0.0796281982	 0.0337066298	 0.12221
C	-1.2524177551	-0.7636371694	 0.1154943008	-0.092942
C	-2.5652242655	-0.0620862573	-0.2270895287	-0.250222
C	-2.5836257383	-0.0353399412	-1.7814637129	-0.119663
N	-1.1499380238	 0.0271477078	-2.1313555895	-0.329042
C	-0.4143336296	-0.7598156393	-1.1438989177	-0.083022
C	-3.2432576883	-1.2323251356	-2.3409286971	 0.266295
N	-3.7295496346	-2.1728417165	-2.8058210019	-0.320635
H	-0.3285892112	 1.6308413722	-0.9908892883	 0.288753
H	 0.8644517164	-0.2523404311	 0.6234789581	 0.104006
H	-1.2687466365	-1.62562964	 0.7707334392	 0.10093
H	-3.4338102634	-0.5830228331	 0.176213295	 0.129774
H	-2.5670288642	 0.9658828859	 0.1463500099	 0.1322
H	-3.1054265301	 0.8458645732	-2.1682337891	 0.128428
H	-0.9608609068	-0.2600783799	-3.0829053435	 0.246332
H	 0.1503022594	-1.6177260721	-1.4914316492	 0.102662
79.0524	137.3472	191.6412	253.7886	317.7849	446.6973	517.5135	523.5228	573.883	635.6468	707.4888	734.3787	763.1137	782.0283	813.1786	836.8726	921.0187	963.261	988.9437	1001.1119	1043.7131	1062.2558	1094.5786	1099.3588	1119.4608	1199.0749	1222.0164	1229.389	1303.6632	1327.4755	1338.3076	1355.8837	1376.2182	1417.9921	1459.7364	1482.0374	2345.5221	3059.9178	3071.8078	3134.6074	3153.4325	3167.9391	3189.1771	3576.9976	3657.8415
OC1C2CC(NC12)C#N	O[C@H]1[C@H]2C[C@@H](N[C@@H]12)C#N	
InChI=1S/C6H8N2O/c7-2-3-1-4-5(8-3)6(4)9/h3-6,8-9H,1H2	InChI=1S/C6H8N2O/c7-2-3-1-4-5(8-3)6(4)9/h3-6,8-9H,1H2/t3-,4+,5-,6+/m1/s1
