19
gdb 121513	8.29883	0.38024	0.36689	1.2399	101.31	-0.2257	0.0016	0.2273	2898.6867	0.15631	-385.848383	-385.837121	-385.836177	-385.888246	37.425	
C	-0.0022281311	 1.498211556	 0.0196668747	-0.518115
C	 0.0111693112	 0.0464285263	 0.0011562847	 0.249939
C	 0.0217794945	-1.1638284928	-0.0141796998	-0.214428
C	 0.0328523716	-2.5239974724	-0.0313685835	-0.097733
C	 0.043757013	-3.7347406426	-0.0467193396	 0.197135
C	 0.0372880516	-5.1894616644	-0.0641588977	-0.394187
C	-1.3814232826	-5.7897404674	 0.0011721426	-0.1572
C	-1.3589052977	-7.3126429397	-0.018586183	-0.073349
O	-2.7010869439	-7.76504876	 0.0446311319	-0.421358
H	 0.9903971123	 1.9016123932	 0.2504276525	 0.154258
H	-0.3087170704	 1.9052976422	-0.9506983554	 0.154423
H	-0.6991732744	 1.8793768753	 0.7748130652	 0.154609
H	 0.5443302659	-5.5438283616	-0.9726252181	 0.132517
H	 0.6340375081	-5.5652228503	 0.7788549125	 0.132517
H	-1.8856199667	-5.4508323505	 0.9116630259	 0.121855
H	-1.9755702229	-5.4293767238	-0.844519212	 0.121861
H	-0.8598039133	-7.6655955541	-0.9367010593	 0.085327
H	-0.7690674277	-7.6872388658	 0.8348667574	 0.085328
H	-2.6967559376	-8.7264806475	 0.0326579209	 0.286601
7.6408	46.1249	59.5226	108.5789	119.2375	134.2912	242.9902	253.3837	258.9584	308.7403	381.7821	385.2154	492.625	555.8595	557.9886	629.5756	754.6925	864.0269	957.8387	1016.1798	1033.7198	1048.638	1048.8571	1086.5187	1114.1128	1211.8628	1229.6239	1280.7066	1296.6929	1310.7451	1311.2075	1374.0491	1413.2803	1464.782	1471.0524	1472.7684	1472.898	1498.8015	1528.17	2279.3241	2387.7894	2953.061	2978.0454	3002.6024	3021.9131	3029.943	3056.1436	3083.1743	3083.2686	3102.4085	3830.8844
CC#CC#CCCCO	CC#CC#CCCCO	
InChI=1S/C8H10O/c1-2-3-4-5-6-7-8-9/h9H,6-8H2,1H3	InChI=1S/C8H10O/c1-2-3-4-5-6-7-8-9/h9H,6-8H2,1H3
