21
gdb 108164	2.45804	1.39971	1.19213	1.2619	83.57	-0.223	0.0232	0.2463	1160.3868	0.182748	-387.085425	-387.076508	-387.075563	-387.118735	34.475	
C	-0.116774772	 1.540925299	 0.0662589912	-0.422212
C	 0.035762336	 0.038504038	 0.1125162428	-0.034041
C	 1.3232531959	-0.7102810575	-0.2251422155	-0.164952
C	 2.6039886575	 0.0472259498	-0.1494392141	-0.072691
C	 2.8474208274	 0.4932541037	 1.0858449692	-0.081859
C	 1.7714813692	 0.0688100361	 2.0625907185	-0.328593
C	 0.770587722	-0.7119061743	 1.1991688012	 0.351971
C	 0.13714375	-1.9358289701	 1.7954550662	-0.183844
O	-0.726829035	-1.5215435636	 2.8502049246	-0.423551
H	 0.8184729519	 2.0550652095	 0.298824896	 0.123565
H	-0.4361017353	 1.866035591	-0.9301070663	 0.111518
H	-0.8752830143	 1.8732555351	 0.7836879754	 0.120206
H	-0.8531893802	-0.4905329111	-0.226765871	 0.080493
H	 1.2515493372	-1.5808435945	-0.8704941119	 0.077628
H	 3.2297573875	 0.2268495795	-1.0166015756	 0.091838
H	 3.6900955078	 1.1108574158	 1.3770300166	 0.090422
H	 2.1752737719	-0.5644129706	 2.8643118283	 0.102844
H	 1.3066186862	 0.9270402642	 2.5639270748	 0.116051
H	-0.4196130531	-2.4833702389	 1.0175222865	 0.078743
H	 0.9197076365	-2.6126091825	 2.1769635918	 0.081822
H	-1.0406563269	-2.3086592287	 3.3055340712	 0.284642
81.7972	148.1701	190.3052	216.9876	231.6935	262.111	312.3616	374.6244	394.732	475.809	557.9255	640.0835	717.4418	750.8012	768.6843	831.7936	888.8153	927.1975	954.3423	960.7191	963.585	1008.6245	1030.5832	1042.4791	1065.4449	1090.7488	1114.3276	1122.6853	1146.0707	1173.7189	1219.9527	1233.275	1262.7246	1292.197	1328.8	1352.4438	1379.3594	1413.8215	1435.9736	1467.7707	1478.0498	1500.5067	1503.572	1517.0542	1666.9945	2954.9699	2984.2528	3014.0155	3032.8093	3044.4307	3088.1489	3112.9961	3129.3717	3148.9196	3181.0189	3206.161	3822.8376
CC1C2C=CCC12CO	C[C@H]1[C@H]2C=CC[C@@]12CO	
InChI=1S/C8H12O/c1-6-7-3-2-4-8(6,7)5-9/h2-3,6-7,9H,4-5H2,1H3	InChI=1S/C8H12O/c1-6-7-3-2-4-8(6,7)5-9/h2-3,6-7,9H,4-5H2,1H3/t6-,7+,8+/m0/s1
