15
gdb 44110	3.42135	1.71994	1.48602	2.7423	70.92	-0.2286	-0.0386	0.19	884.2573	0.114825	-416.748654	-416.742347	-416.741403	-416.779199	25.752	
O	-0.2199054579	 0.1004305772	 0.304996343	-0.329484
C	-0.1256298908	 1.2719467228	 0.0659875993	 0.395046
N	-1.2269892589	 2.1238360629	-0.3172608805	-0.366354
C	-0.6634297638	 3.3854153532	 0.061020009	 0.121336
C	-0.6211833695	 3.9346678399	 1.2822565889	-0.145653
C	 0.8418078925	 4.1312722	 1.6338868449	-0.180667
N	 1.6095320733	 3.4710456689	 0.5465829481	-0.127685
C	 1.1664609118	 2.1055156974	-0.0565672055	-0.146626
C	 0.7130662609	 3.4135462628	-0.5787076723	-0.08051
H	-2.1077008435	 1.8419744904	 0.098108491	 0.251028
H	-1.3986933547	 3.8584116849	 2.0322295202	 0.109777
H	 1.2126479836	 5.1639615673	 1.6872565076	 0.126213
H	 1.0430188737	 3.6624554641	 2.6037807281	 0.134675
H	 2.0335944602	 1.5638074401	-0.4141899748	 0.129935
H	 0.9356586331	 3.8524351383	-1.546452907	 0.108969
128.329	251.9177	373.3911	414.7757	451.5346	556.3155	575.2454	670.4661	733.632	751.3176	771.0497	799.6598	820.5351	852.3303	872.6688	903.0162	930.2127	982.4809	1003.7582	1044.9011	1071.0449	1121.1487	1187.496	1203.9095	1227.2432	1255.603	1277.5412	1304.8733	1332.214	1354.3302	1471.9746	1642.9438	1852.6577	3016.6889	3069.644	3158.4841	3198.8855	3206.8524	3561.2598
O=C1NC2=CCN3C1C23	O=C1N[C]2[CH]CN3[C@@H]1[C@@H]23	
InChI=1S/C6H6N2O/c9-6-5-4-3(7-6)1-2-8(4)5/h1,4-5H,2H2,(H,7,9)	InChI=1S/C6H6N2O/c9-6-5-4-3(7-6)1-2-8(4)5/h1,4-5H,2H2,(H,7,9)/t4-,5-,8?/m1/s1
