25
gdb 62508	1.57059	1.54865	1.51281	1.2596	89.43	-0.233	0.0664	0.2994	1216.2585	0.22425	-389.490756	-389.478877	-389.477933	-389.526423	44.42	
C	-0.1012853038	 1.5280677238	 0.1267664001	-0.453168
C	 0.0175673139	 0.0125526673	 0.0491423062	 0.203639
C	-1.1040514437	-0.6640555644	 0.8244705618	-0.456514
C	 0.5572779457	-0.6599447705	-1.2278993046	 0.220968
C	-0.0536006041	-1.9752119889	-1.6929896154	-0.444288
C	 0.9783871098	 0.1903230336	-2.4185344063	-0.452788
C	 1.3923691876	-0.6578886723	 0.038746567	 0.308738
C	 2.6850720326	 0.1212158396	 0.1737057002	-0.452535
O	 1.4954770703	-1.9253983986	 0.6544353502	-0.459051
H	 0.6806640155	 2.0636351911	-0.4120384235	 0.110745
H	-1.0638550644	 1.8571773346	-0.2834217919	 0.113917
H	-0.0653331409	 1.8612212041	 1.1711589583	 0.109204
H	-2.0694769124	-0.5183364525	 0.3257212684	 0.111946
H	-0.9409225009	-1.7340840608	 0.9483316671	 0.127589
H	-1.1907550799	-0.2234460183	 1.8256469405	 0.102531
H	-1.0090496175	-1.7983996463	-2.2011242651	 0.105228
H	 0.6132384603	-2.4628432235	-2.4135565023	 0.109383
H	-0.2168917044	-2.6773035567	-0.8778733357	 0.134204
H	 1.4316972184	 1.1442262734	-2.1478162975	 0.10944
H	 1.7040449519	-0.3532765975	-3.034936452	 0.114707
H	 0.1119782462	 0.4084265425	-3.0542195013	 0.113639
H	 2.6626340858	 1.0884318676	-0.3290013444	 0.116474
H	 2.9069800027	 0.3098338995	 1.2323233362	 0.103108
H	 3.5149347596	-0.4610369386	-0.2398405126	 0.124945
H	 1.6005086416	-1.7828741585	 1.6018906865	 0.277942
103.7589	135.4699	153.7603	158.7501	164.6736	195.7323	215.0945	232.608	276.8217	302.077	308.7847	310.6183	388.553	408.42	417.6154	465.3986	499.4448	575.5628	650.9178	673.184	701.1718	940.4301	947.9165	962.4257	977.3014	1003.4204	1013.3629	1019.3907	1078.9001	1130.3365	1140.9164	1142.8498	1182.7729	1230.8332	1246.8929	1263.3312	1315.8039	1398.7593	1406.6768	1410.9321	1415.6596	1424.6538	1447.6582	1471.7299	1481.2771	1487.4289	1489.2091	1494.3129	1497.5787	1502.2316	1502.7883	1516.5635	1532.2351	3020.0845	3021.8029	3024.8436	3025.77	3032.0535	3069.8444	3073.357	3076.025	3079.9629	3084.917	3127.9979	3134.6204	3144.6118	3149.3229	3165.5971	3788.438
CC1(C)C(C)(C)C1(C)O	CC1(C)C(C)(C)C1(C)O	
InChI=1S/C8H16O/c1-6(2)7(3,4)8(6,5)9/h9H,1-5H3	InChI=1S/C8H16O/c1-6(2)7(3,4)8(6,5)9/h9H,1-5H3
