19
gdb 10630	2.46893	1.8814	1.33458	1.5214	78.69	-0.2289	0.0445	0.2734	1016.5293	0.162675	-327.862682	-327.853478	-327.852534	-327.895947	34.193	
C	 0.0406666466	 1.4679488147	-0.2114281461	-0.384738
C	-0.223855636	-0.0008093799	 0.1378940685	-0.256195
C	 0.6588871257	-0.5340754557	 1.2656695834	 0.099156
C	 0.9973243013	-1.999768665	 1.2960492885	-0.283486
N	 2.0364493898	-1.0226974952	 1.0351002406	-0.099155
C	 2.6233665546	-0.9803997264	-0.2955044115	-0.316653
C	 0.4885822375	 0.1574442936	 2.5251747139	 0.31642
C	 0.306342752	 0.7352249284	 3.5640247611	-0.432569
H	 1.05820016	 1.6139027896	-0.5870746091	 0.119143
H	-0.654436399	 1.8122927751	-0.9830128115	 0.112721
H	-0.0846565138	 2.1047578847	 0.6687770562	 0.136169
H	-1.2668262794	-0.1198992361	 0.4542660901	 0.112833
H	-0.1024018179	-0.628850095	-0.7495746942	 0.099226
H	 1.0589801725	-2.5278554951	 2.2435987885	 0.121281
H	 0.6250970769	-2.5936582299	 0.4602572962	 0.104605
H	 1.933472843	-1.2256644584	-1.1170885431	 0.101839
H	 3.0420585148	 0.0138918356	-0.4774615301	 0.130055
H	 3.4457480905	-1.7026074932	-0.3253596425	 0.128019
H	 0.163893271	 1.2417170582	 4.4862704113	 0.191329
98.8055	139.124	152.5824	178.7643	208.5508	245.2435	305.6403	351.9228	397.3995	466.8359	539.6136	566.0616	606.6952	644.968	657.5293	759.8458	807.5636	890.0151	902.7715	996.3296	1040.428	1067.3478	1108.6794	1121.3637	1144.1768	1160.1506	1198.8954	1253.8464	1288.5908	1347.0857	1379.5616	1409.0982	1445.2007	1475.7711	1487.1418	1496.9008	1501.502	1505.3504	1511.1037	2234.2218	2986.1007	3040.2947	3042.5031	3068.6476	3077.4531	3082.7916	3103.9427	3111.0799	3120.9625	3176.6779	3503.1336
CCC1(CN1C)C#C	CC[C@]1(CN1C)C#C	
InChI=1S/C7H11N/c1-4-7(5-2)6-8(7)3/h1H,5-6H2,2-3H3	InChI=1S/C7H11N/c1-4-7(5-2)6-8(7)3/h1H,5-6H2,2-3H3/t7-,8?/m0/s1
