20
gdb 54148	2.38893	1.38898	1.15907	2.1952	75.62	-0.2401	0.025	0.2651	1174.6761	0.167447	-440.321554	-440.311017	-440.310073	-440.356536	38.659	
C	 0.0320103641	 1.431261164	-0.1904769158	-0.457512
C	 0.0615747057	-0.0597634658	 0.0795903489	 0.362414
C	-0.9547623595	-0.8357601402	-0.7342729876	-0.46539
O	 1.3859698166	-0.6373264111	 0.1494212561	-0.341395
C	 0.6027727398	-0.5981739812	 1.3562527356	 0.228895
C	 1.0994033642	 0.2663611577	 2.4945030173	-0.473034
C	 0.1239056908	-1.9578300698	 1.8571473934	 0.311477
N	 0.6497333659	-3.0133710518	 1.1843052626	-0.50962
O	-0.6367972933	-2.0546184829	 2.8022034051	-0.372492
H	 0.8707052483	 1.949554958	 0.2735681177	 0.13314
H	 0.0836614947	 1.6101721457	-1.2698258708	 0.125977
H	-0.9021280687	 1.8707021734	 0.1748318473	 0.129345
H	-0.7703124883	-0.6785670895	-1.8025633877	 0.122353
H	-0.9186330879	-1.9060558589	-0.5318633726	 0.134189
H	-1.9651563961	-0.4755256923	-0.5145813409	 0.131157
H	 1.3443538947	 1.2783483859	 2.1741396763	 0.120581
H	 0.3321831552	 0.3028964074	 3.270971839	 0.154978
H	 1.9986216314	-0.1797240099	 2.9326445092	 0.129744
H	 1.2936395178	-2.8500508807	 0.4285878359	 0.273224
H	 0.4174166047	-3.9474436981	 1.4769159909	 0.261967
77.4375	128.1384	142.9931	151.3821	178.4232	195.6275	266.2418	298.007	317.5146	346.9995	383.966	425.5661	489.6352	523.8943	544.6742	644.588	666.8777	706.7336	783.5612	854.2007	893.3803	946.5762	991.0354	1007.8974	1081.9296	1098.8622	1147.1498	1168.4486	1176.1984	1247.0522	1368.6434	1398.4852	1407.2432	1418.2881	1425.9965	1472.4444	1480.5335	1482.8219	1495.4211	1505.6255	1519.5573	1587.4557	1793.7402	3039.1305	3044.4608	3052.2063	3098.0114	3103.6227	3121.6353	3148.1187	3151.0377	3162.7017	3597.7795	3740.6453
CC1(C)OC1(C)C(N)=O	CC1(C)O[C@]1(C)C(=O)N	
InChI=1S/C6H11NO2/c1-5(2)6(3,9-5)4(7)8/h1-3H3,(H2,7,8)	InChI=1S/C6H11NO2/c1-5(2)6(3,9-5)4(7)8/h1-3H3,(H2,7,8)/t6-/m1/s1
