17
gdb 90601	2.68264	1.42956	1.12814	2.3581	68.74	-0.2357	-0.0461	0.1896	1105.1586	0.134114	-458.931184	-458.92256	-458.921616	-458.965232	31.474	
C	 0.2470524176	 1.5001628275	-0.3128682532	-0.415572
C	 0.0800992496	 0.0483215095	 0.0772986674	 0.15207
O	 0.8676299979	-0.8656847835	-0.7462088688	-0.312755
C	 1.262365806	-1.6427821117	 0.4060959533	-0.018697
C	 0.694077367	-0.5382137343	 1.3630950206	-0.132329
C	 2.1324342625	-0.0632107104	 1.7102195697	 0.015509
O	 2.4155096512	-0.225782893	 3.084181224	-0.437084
C	 2.6773587814	-1.2573880203	 0.8720157392	 0.37886
O	 3.7577628011	-1.7684282139	 0.8269968094	-0.29653
H	 1.2924643247	 1.8164536043	-0.2851073749	 0.129363
H	-0.1233760307	 1.6529763893	-1.33138687	 0.135814
H	-0.3331860799	 2.1413279737	 0.3591307301	 0.127184
H	-0.9803949186	-0.2320320366	 0.0020428355	 0.084779
H	 0.9658525989	-2.6934841136	 0.3505586582	 0.096773
H	 0.0612207261	-0.7368965911	 2.2244133072	 0.102967
H	 2.403515384	 0.9386218481	 1.3532475935	 0.090892
H	 3.3618824612	-0.396043094	 3.1634609989	 0.298757
30.5938	148.9784	163.7814	214.7022	236.6025	285.9177	316.1435	385.719	401.7	524.8462	601.3194	740.0407	774.5583	800.8436	847.6336	891.2326	933.9679	951.1362	996.386	1053.8926	1076.9581	1094.7199	1129.14	1140.4327	1164.3079	1199.226	1206.1798	1262.1313	1268.5958	1319.9225	1327.1504	1382.5633	1402.2214	1411.8193	1478.9211	1498.0851	1887.5775	2997.1409	3017.3681	3042.4211	3081.2974	3110.1652	3126.2	3152.6666	3791.823
CC1OC2C1C(O)C2=O	C[C@H]1O[C@@H]2[C@H]1[C@@H](O)C2=O	
InChI=1S/C6H8O3/c1-2-3-4(7)5(8)6(3)9-2/h2-4,6-7H,1H3	InChI=1S/C6H8O3/c1-2-3-4(7)5(8)6(3)9-2/h2-4,6-7H,1H3/t2-,3-,4-,6-/m1/s1
