19
gdb 66316	4.75823	0.6458	0.62031	3.4365	73.57	-0.2591	-0.0302	0.2289	1790.981	0.154718	-460.136277	-460.126062	-460.125118	-460.173199	34.909	
C	-0.0218883541	 1.564594501	-0.2119558925	-0.46183
C	-0.0459239267	 0.0656693	-0.0204843627	 0.405152
C	-1.3649389446	-0.5342799678	 0.4112680573	-0.114737
O	-1.8271022282	 0.1509078003	 1.5585153664	-0.251596
C	-3.054257185	-0.3260921714	 2.0433517457	-0.138761
C	-3.427389766	 0.485624288	 3.2723660741	 0.139821
O	-4.4535546689	 0.3381187834	 3.8799548719	-0.236439
C	 0.8961308753	-0.799855631	-0.7443676582	-0.231845
O	 1.1035288757	-0.4910772602	 0.6339631481	-0.266097
H	 0.9788573081	 1.8941938155	-0.4998175729	 0.127162
H	-0.7297383357	 1.8683144618	-0.990991791	 0.119037
H	-0.3058265123	 2.0671124023	 0.7157580905	 0.144545
H	-2.1019336511	-0.4458311778	-0.4058200978	 0.093439
H	-1.226177536	-1.6039499221	 0.6289642326	 0.100221
H	-3.8615570308	-0.234052673	 1.2968548447	 0.121633
H	-3.0002940441	-1.390955177	 2.3281173321	 0.125325
H	-2.6566988805	 1.2331075804	 3.562455785	 0.099414
H	 0.6368249324	-1.8366439251	-0.9587676066	 0.110713
H	 1.6020764125	-0.3493975871	-1.4409840064	 0.114841
40.4026	56.0385	92.7252	98.0302	130.6871	196.3969	243.1062	304.4607	366.0628	373.5416	447.5614	465.6118	583.6903	741.5785	750.4293	844.4026	905.788	936.4733	972.1709	1015.5677	1061.7328	1081.599	1113.5092	1124.0232	1134.8641	1167.2619	1178.8569	1236.1365	1261.5531	1302.5751	1340.2299	1381.4445	1404.6972	1413.8928	1444.4696	1476.0725	1481.5081	1500.4074	1510.658	1534.6707	1846.0155	2902.0586	2954.1077	2962.9235	2988.5229	3011.2469	3044.0564	3077.2874	3114.2028	3136.4623	3161.7003
CC1(COCC=O)CO1	C[C@@]1(COCC=O)CO1	
InChI=1S/C6H10O3/c1-6(5-9-6)4-8-3-2-7/h2H,3-5H2,1H3	InChI=1S/C6H10O3/c1-6(5-9-6)4-8-3-2-7/h2H,3-5H2,1H3/t6-/m1/s1
