19
gdb 15767	2.92675	1.37057	1.05416	1.6137	80.2	-0.231	0.0497	0.2807	1193.9295	0.163535	-327.873147	-327.863654	-327.862709	-327.909256	33.156	
C	 0.954526749	 0.9598599932	 0.4977443986	-0.498343
C	 0.4572101892	-0.3986680613	 0.3274051626	 0.001122
C	 0.0322216719	-1.5197216313	 0.1996679145	 0.110763
C	-0.474750309	-2.8891731766	 0.0238754863	-0.10098
C	-1.8247255773	-2.8910647435	-0.7095883645	-0.374512
N	 0.4336400658	-3.8214141647	-0.6705862366	-0.072933
C	 1.2611940662	-3.3162346315	-1.7612839524	-0.222146
C	 1.8703000722	-3.7027854185	-0.4576769198	-0.224431
H	 2.0455129332	 0.9754163148	 0.595617096	 0.149195
H	 0.6889167617	 1.594124825	-0.3551429636	 0.14856
H	 0.5363066131	 1.4230933809	 1.3982379879	 0.150457
H	-0.6267790102	-3.3231094901	 1.021277182	 0.10787
H	-2.188519397	-3.9175203638	-0.8007079789	 0.123512
H	-2.5598338304	-2.2928415721	-0.1652539557	 0.119116
H	-1.7141369263	-2.4692732366	-1.7127404277	 0.122891
H	 1.3387856625	-3.9674649001	-2.6272509936	 0.111519
H	 1.2251563164	-2.2514228612	-1.9803989533	 0.118369
H	 2.2302611263	-2.8890118558	 0.1679579131	 0.118384
H	 2.4029724027	-4.6434872967	-0.3491214249	 0.111589
11.2317	89.3669	91.321	139.2532	231.9569	249.9353	282.5192	302.7088	377.3049	432.6588	537.3436	557.6533	722.8551	745.3773	830.5466	897.2174	951.55	1018.6586	1026.8378	1052.1894	1054.7746	1086.5557	1114.0212	1116.3418	1125.2397	1168.8665	1178.6095	1192.4834	1308.2137	1330.8979	1347.1814	1400.0799	1415.1562	1477.5987	1479.7327	1482.4181	1486.0621	1495.6584	1510.8088	2355.789	3014.5219	3027.7511	3046.8498	3088.2929	3089.2022	3102.4336	3105.0116	3122.991	3131.3705	3183.3175	3196.9202
CC#CC(C)N1CC1	CC#C[C@@H](C)N1CC1	
InChI=1S/C7H11N/c1-3-4-7(2)8-5-6-8/h7H,5-6H2,1-2H3	InChI=1S/C7H11N/c1-3-4-7(2)8-5-6-8/h7H,5-6H2,1-2H3/t7-/m1/s1
