17
gdb 28233	4.69436	1.19973	0.97351	0.7591	76.01	-0.1648	0.0607	0.2255	1182.8445	0.138754	-418.025619	-418.017556	-418.016612	-418.058429	30.254	
N	 0.2038055321	 1.3959239275	-0.0474551079	-0.609957
C	-0.0121712764	-0.0010964968	-0.0291839905	 0.257536
C	-1.1376519311	-0.8022753837	-0.0468974589	-0.397972
C	-0.6901190626	-2.1559397824	 0.0245313349	 0.202839
C	 0.6687997065	-2.1113922871	 0.0715382914	 0.428249
N	 1.1144206467	-0.8339746339	 0.0399325921	-0.39882
O	 1.3533421737	-3.279750005	 0.0894968697	-0.294643
C	 0.3000819131	-4.2837087342	 0.24872911	-0.089227
C	-1.0862795559	-3.6069485786	-0.0310692595	-0.374235
H	-0.1559073581	 1.8272436586	-0.8922934143	 0.24069
H	-0.233593379	 1.8612568125	 0.7407426433	 0.240627
H	-2.153005382	-0.4376188893	-0.0970560717	 0.08282
H	 2.0602768101	-0.4969541055	 0.0849574854	 0.263108
H	 0.5324140336	-5.1035180819	-0.4336005879	 0.117513
H	 0.3558332543	-4.6508682239	 1.2789784304	 0.115105
H	-1.8178405503	-3.9164124589	 0.7233272191	 0.108439
H	-1.4889730247	-3.9055523774	-1.0082789559	 0.10793
93.0556	99.959	152.8982	245.1311	294.2334	304.6812	454.6786	494.8462	546.5421	620.1985	683.4052	705.9751	737.387	779.4338	789.0133	825.4868	848.6835	932.0758	976.7272	1001.7372	1073.7106	1127.2613	1171.2131	1201.6553	1206.0083	1217.5437	1241.1162	1284.847	1363.4986	1374.6431	1425.7193	1498.0894	1513.7113	1538.4653	1574.2782	1646.5449	1662.365	3006.0533	3040.1783	3056.3268	3114.6667	3237.2276	3499.0437	3560.879	3684.7415
NC1=CC2=C(N1)OCC2	Nc1cc2c([nH]1)OCC2	
InChI=1S/C6H8N2O/c7-5-3-4-1-2-9-6(4)8-5/h3,8H,1-2,7H2	InChI=1S/C6H8N2O/c7-5-3-4-1-2-9-6(4)8-5/h3,8H,1-2,7H2
