16
gdb 30905	2.31525	1.31958	0.8768	3.3507	69.5	-0.1758	0.0485	0.2243	1261.5996	0.123377	-475.042058	-475.032602	-475.031658	-475.076545	34.167	
O	 0.1906160431	 1.2864776537	 0.3956663054	-0.424131
C	-0.0586289829	 0.145613815	-0.4374751552	-0.189017
C	-1.3708886427	-0.4932885463	-0.173426626	 0.166237
C	-1.7175468019	-1.7759100847	 0.1784653918	 0.26838
O	-0.8121416845	-2.7862416052	 0.3409435928	-0.45188
C	-3.1389373802	-1.8601870348	 0.3113351453	-0.442582
C	-3.6125608021	-0.5944953528	 0.0364397857	 0.397641
O	-4.8591758972	-0.0622681384	 0.0286203859	-0.432101
N	-2.5734619371	 0.2173807888	-0.2722966094	-0.345304
H	 0.0916264907	 0.9873745992	 1.3063606188	 0.275121
H	 0.0080405082	 0.5426144809	-1.4584861168	 0.107549
H	 0.7240766978	-0.6176331398	-0.33209139	 0.112748
H	-1.2832265214	-3.5773192236	 0.615598189	 0.296058
H	-3.7268799294	-2.732030922	 0.5559069216	 0.083278
H	-5.4823802451	-0.742398761	 0.3005500996	 0.307941
H	-2.6379790355	 1.2154766009	-0.3767745386	 0.270063
56.6583	117.4201	148.4282	220.5008	228.8976	241.6456	288.2547	319.249	381.1145	390.9069	461.8198	545.7432	609.0457	636.2391	657.2046	684.846	704.0235	824.7984	962.6286	1007.0342	1044.2013	1102.7927	1172.429	1191.4501	1199.1804	1246.9566	1288.3285	1356.9096	1367.4119	1417.6228	1481.1285	1498.4918	1547.034	1599.2955	1682.5688	3011.5241	3046.8356	3235.5911	3679.4354	3798.9018	3849.5891	3852.03
OCC1=C(O)C=C(O)N1	OCc1c(O)cc(O)[nH]1	
InChI=1S/C5H7NO3/c7-2-3-4(8)1-5(9)6-3/h1,6-9H,2H2	InChI=1S/C5H7NO3/c7-2-3-4(8)1-5(9)6-3/h1,6-9H,2H2
