19
gdb 96693	2.58023	1.20472	0.99706	2.5021	81.71	-0.2337	-0.0712	0.1625	1274.6678	0.156208	-419.184037	-419.174049	-419.173105	-419.219684	35.044	
C	-0.522918117	 1.0892089695	-0.1582945039	-0.310232
N	-0.1026143862	-0.3016727216	-0.1240978563	-0.271376
C	 0.773934596	-0.7640585971	-0.9222883055	 0.23959
C	 1.4817945614	-0.034290162	-2.0388914121	 0.115432
O	 1.2186846569	 1.0840249267	-2.4042229839	-0.247604
N	 1.2737969207	-2.067285178	-0.7801291445	-0.110164
C	 0.4574692939	-3.1097406716	-0.1940947544	-0.240341
C	 0.8400349359	-3.185628394	-1.6377291017	 0.004351
C	-0.1930425023	-2.9900390054	-2.7227786102	-0.41793
H	 0.3155630641	 1.7931905208	-0.1841433793	 0.135429
H	-1.1337681702	 1.2987155369	-1.0447112303	 0.133436
H	-1.1289102837	 1.2860554017	 0.730269146	 0.115743
H	 2.2883771188	-0.6311331746	-2.5173267932	 0.093261
H	 0.9553007531	-3.7404113518	 0.5371621091	 0.123052
H	-0.567115387	-2.8384037701	 0.046900982	 0.137032
H	 1.660799489	-3.8491842302	-1.9041412943	 0.100861
H	-0.9871056013	-2.3111964914	-2.399552845	 0.138887
H	 0.2561463419	-2.5855618022	-3.6363301812	 0.128481
H	-0.6507811641	-3.9511083557	-2.9787875711	 0.13209
42.5593	80.0766	110.63	163.6686	182.1635	225.0466	240.9222	259.8381	367.7631	393.9446	417.8483	492.8627	557.5327	611.0821	800.9612	847.0762	870.7373	905.8452	1003.608	1025.3313	1037.7201	1062.2392	1100.7572	1129.1476	1139.6578	1145.5079	1156.9903	1192.7712	1205.3912	1361.6644	1397.3561	1420.0346	1424.5601	1433.5477	1475.4594	1487.1192	1498.5174	1498.787	1506.6415	1687.9951	1817.8467	2899.6113	3020.3475	3035.5256	3079.2215	3097.4745	3101.6695	3110.7998	3112.7772	3130.8072	3199.8452
CN=C(C=O)N1CC1C	CN=C(C=O)N1C[C@H]1C	
InChI=1S/C6H10N2O/c1-5-3-8(5)6(4-9)7-2/h4-5H,3H2,1-2H3	InChI=1S/C6H10N2O/c1-5-3-8(5)6(4-9)7-2/h4-5H,3H2,1-2H3/t5-,8?/m1/s1
