19
gdb 22059	3.9506	0.74343	0.71351	3.0254	77.38	-0.2431	0.0046	0.2477	1630.2493	0.156238	-456.34554	-456.334617	-456.333673	-456.38398	37.315	
C	 0.2937715036	 1.0322474453	 0.6316170272	-0.479174
C	 0.0032023841	-0.3819718521	 0.1548795601	 0.41816
O	 0.7522444701	-1.3130614105	 0.3968211083	-0.380129
N	-1.1455199153	-0.5291224106	-0.5707415592	-0.309972
C	-1.5669890141	-1.8098379258	-1.1231250755	-0.246452
C	-2.6728147536	-2.4510328902	-0.3187425079	 0.354604
C	-2.4104747425	-2.869434711	 1.1019475855	-0.484541
N	-3.78661055	-2.592512093	-0.9300789003	-0.166863
O	-4.7522411958	-3.1966988728	-0.1109931988	-0.396042
H	 1.2308046813	 1.367861504	 0.178848394	 0.15542
H	-0.4932785635	 1.7512643042	 0.3901837918	 0.111716
H	 0.4432216498	 1.013855195	 1.7139581316	 0.154058
H	-1.7575982397	 0.2609139669	-0.6903635695	 0.248632
H	-1.9055817471	-1.6778142454	-2.1539224713	 0.120401
H	-0.6782181161	-2.4476068315	-1.1143192799	 0.152149
H	-1.3695880726	-2.6910357527	 1.3745846492	 0.1533
H	-3.0662033851	-2.3278859001	 1.7918965925	 0.14066
H	-2.6430959428	-3.9319373655	 1.226584112	 0.147675
H	-5.5113428708	-3.2545355943	-0.7007304999	 0.306402
20.3977	47.4183	60.0569	79.5482	110.6414	224.9661	238.0406	284.8438	345.6919	365.9463	405.4584	450.4431	488.2739	549.147	626.3973	630.2829	671.7131	816.3054	859.4918	978.7941	979.3667	1009.3026	1046.6066	1051.7639	1089.1885	1098.2779	1243.3036	1269.3363	1294.9263	1371.7063	1397.0558	1401.561	1404.7388	1460.5556	1470.6221	1482.483	1485.5373	1486.3933	1532.072	1731.3443	1771.4948	3043.2848	3050.9704	3061.4826	3098.4035	3117.137	3127.1613	3132.7307	3149.6618	3648.3002	3819.9865
CC(=O)NCC(C)=NO	CC(=O)NCC(=NO)C	
InChI=1S/C5H10N2O2/c1-4(7-9)3-6-5(2)8/h9H,3H2,1-2H3,(H,6,8)	InChI=1S/C5H10N2O2/c1-4(7-9)3-6-5(2)8/h9H,3H2,1-2H3,(H,6,8)
