15
gdb 24564	2.23884	2.13914	1.2606	4.2362	79.7	-0.1982	-0.03	0.1682	966.164	0.115149	-412.985625	-412.978258	-412.977314	-413.017414	27.798	
N	-0.0456422585	 1.3183719679	-0.0510886176	-0.297435
C	 0.9607854917	 2.2957292919	-0.0134216659	 0.062296
N	 2.1360997846	 2.2855702961	-0.4834594431	-0.197697
C	 2.8226519588	 1.2526612904	-1.0907709725	-0.064701
C	 3.2409481917	 0.0807510412	-0.5619643611	-0.038545
N	 3.0697826264	-0.3813521127	 0.7221102017	-0.227696
C	 1.9416294197	-0.6757473418	 1.2535251583	 0.051683
N	 0.7237147618	-0.8543466344	 0.6587666679	-0.214165
C	-0.052759376	-0.0595021029	 0.0456127441	 0.088018
H	-0.9682561912	 1.7106339561	-0.1781465922	 0.260182
H	 0.5849615392	 3.2343113844	 0.3970397972	 0.120915
H	 3.2839325514	 1.5562718297	-2.0281094412	 0.107529
H	 3.9742860549	-0.476887336	-1.1414224928	 0.105664
H	 1.9595449672	-1.01552213	 2.2912227442	 0.118968
H	-0.9542731918	-0.4850183001	-0.400302857	 0.124984
130.0118	155.867	199.0492	238.2287	356.9831	380.4216	485.0912	529.438	559.7779	635.0505	732.7624	776.3975	831.7101	838.6134	915.7816	925.5442	933.3033	949.449	979.4103	988.5126	1037.1246	1128.1412	1251.2377	1307.7874	1397.2488	1437.1778	1452.0426	1488.0014	1526.0078	1621.4762	1655.7356	1733.4397	1762.6574	3102.7902	3107.2947	3113.4103	3135.1914	3155.6693	3590.8177
N1C=NC=CN=CN=C1	[nH]1cnccncnc1	
InChI=1S/C5H6N4/c1-2-7-4-9-5-8-3-6-1/h1-5H,(H,6,7,8,9)/b2-1-	InChI=1S/C5H6N4/c1-2-7-4-9-5-8-3-6-1/h1-5H,(H,6,7,8,9)/b2-1-
