22
gdb 110976	2.30299	1.28445	1.10175	1.5214	83.22	-0.2366	0.0731	0.3098	1270.5696	0.193475	-404.277549	-404.26795	-404.267006	-404.311854	36.483	
C	 0.060086112	 1.3902518977	-0.1873212097	-0.374055
C	 0.2839744369	-0.1248961446	-0.2757237248	-0.243666
C	 0.85389231	-0.6860216117	 1.0175033588	 0.061525
N	-0.0190471623	-0.6529413042	 2.3048823414	-0.170402
C	-0.7219987184	-1.8917128748	 1.7319604179	-0.24872
C	 0.7735041466	-2.1662474492	 1.4332136574	 0.308074
O	 1.3803117867	-3.202620115	 0.7392882181	-0.468267
C	 0.9964186975	-1.6622839101	 2.8930015263	 0.025402
C	 2.3169425874	-1.1604452264	 3.4453043995	-0.444242
H	 0.9936609852	 1.9151651396	 0.0435347939	 0.113032
H	-0.3216393017	 1.7882559626	-1.1322576249	 0.109262
H	-0.6570869258	 1.6305191006	 0.6027798712	 0.135751
H	-0.6462318548	-0.6180486961	-0.571463036	 0.100155
H	 1.007514018	-0.3486112177	-1.0701508455	 0.107649
H	 1.8176798143	-0.2047546644	 1.1959162667	 0.067805
H	-1.2116531049	-2.4993222754	 2.4985007761	 0.092605
H	-1.4021052695	-1.6819107747	 0.9086042624	 0.104449
H	 1.1552916046	-4.0359975429	 1.1676516181	 0.280275
H	 0.5000694468	-2.2735529945	 3.6559289719	 0.064182
H	 2.1345962653	-0.4775225682	 4.2816311424	 0.131589
H	 2.8915891772	-2.0098035887	 3.8297095814	 0.120401
H	 2.9447260987	-0.6433345219	 2.7176040476	 0.127198
65.8937	127.3031	143.7308	195.1822	205.1908	260.3208	274.6621	297.6624	399.0778	429.243	487.4643	580.3362	606.9016	637.7223	735.6182	755.0872	820.294	839.1213	890.3022	892.0316	975.4558	997.9235	1022.1278	1069.7814	1082.3429	1098.7803	1107.7125	1132.6298	1167.7396	1177.375	1190.1555	1204.1412	1241.7194	1284.522	1292.7592	1348.9965	1354.7082	1405.98	1411.1695	1436.6595	1458.9396	1486.7347	1494.8848	1497.728	1504.1841	1508.895	1545.1181	3030.8094	3033.2045	3036.0251	3043.2013	3062.5184	3075.57	3089.829	3101.1035	3105.7361	3117.0291	3132.2316	3152.6056	3803.7388
CCC1N2CC1(O)C2C	CC[C@H]1N2C[C@]1(O)[C@H]2C	
InChI=1S/C7H13NO/c1-3-6-7(9)4-8(6)5(7)2/h5-6,9H,3-4H2,1-2H3	InChI=1S/C7H13NO/c1-3-6-7(9)4-8(6)5(7)2/h5-6,9H,3-4H2,1-2H3/t5-,6-,7+/m1/s1
