18
gdb 40443	3.64207	1.22915	1.10745	2.9456	71.67	-0.2465	0.0649	0.3115	1136.2426	0.148726	-439.033297	-439.025545	-439.024601	-439.066102	29.392	
C	-0.0805211543	 1.4728308356	-0.0640752472	-0.240411
N	 1.233959423	 0.8181299498	 0.0182193826	-0.317724
C	 0.0149122258	-0.0068866122	 0.0526776399	-0.133888
C	-0.2681644377	-0.7366304199	 1.3205084056	 0.451089
C	 0.0664211158	-0.1621908783	 2.6852820735	-0.156692
O	-0.033818023	-1.249484496	 3.6009865633	-0.260152
C	 0.1470455041	-2.47989044	 2.9112725871	-0.100056
C	-0.2229063042	-2.1959428725	 1.4740362748	-0.060254
O	-1.4776386209	-1.5165029737	 1.3413622545	-0.301577
H	-0.3448842623	 2.0737427447	 0.8011892477	 0.126626
H	-0.4080074696	 1.8828751239	-1.0155160478	 0.119294
H	 1.6668491447	 0.7672171815	-0.8994230864	 0.239115
H	-0.2454439284	-0.5790318189	-0.8352448557	 0.090133
H	 1.079235965	 0.2639530221	 2.6578773381	 0.120819
H	-0.6379504706	 0.6088971195	 3.0142758503	 0.112732
H	 1.1922429251	-2.8289517872	 2.9568667329	 0.095011
H	-0.4923141902	-3.2292305778	 3.3898782816	 0.118335
H	 0.0473602278	-2.8809615105	 0.6743897851	 0.0976
55.1206	159.0624	176.9613	208.5255	306.2641	377.5626	419.8362	519.1884	580.0733	706.0242	773.9011	860.204	879.288	888.2851	910.9338	918.8939	934.5485	967.0323	982.2896	1016.1941	1068.6992	1085.9159	1111.5389	1113.9907	1121.2778	1164.3488	1223.8696	1236.8277	1247.9276	1273.7553	1282.8529	1299.5561	1365.1845	1370.9992	1411.3398	1494.5006	1500.7305	1513.8597	1521.2853	2970.3764	3012.5543	3068.9773	3074.089	3112.6713	3132.1158	3150.6586	3198.1638	3514.7594
C1NC1C12COCC1O2	C1N[C@H]1[C@]12COC[C@H]1O2	
InChI=1S/C6H9NO2/c1-4(7-1)6-3-8-2-5(6)9-6/h4-5,7H,1-3H2	InChI=1S/C6H9NO2/c1-4(7-1)6-3-8-2-5(6)9-6/h4-5,7H,1-3H2/t4-,5-,6-/m1/s1
