16
gdb 125217	3.06738	1.41055	0.97199	2.6042	78.05	-0.1978	-0.0442	0.1535	1158.8715	0.12571	-434.093105	-434.085006	-434.084062	-434.125563	31.09	
C	 0.0115720444	 1.5282839209	-0.0301752312	-0.486858
C	-0.0326383413	 0.02837773	-0.0138588202	 0.230059
C	-1.1684932115	-0.6968185647	-0.1022250617	-0.190121
C	-1.1711150834	-2.152169109	-0.0824562274	 0.392192
N	-2.2670658266	-2.8217850437	-0.1675220817	-0.56944
N	 0.108306231	-2.687725659	 0.0353931473	-0.331181
N	 1.2816134456	-2.0059811625	 0.1274550133	-0.31312
C	 1.2039670396	-0.7195808963	 0.1032227835	 0.378687
O	 2.3459815607	 0.0043671482	 0.1919664935	-0.414085
H	 0.6237694204	 1.8912123232	-0.8624055443	 0.146398
H	-0.9927781034	 1.9467350127	-0.1223575292	 0.130217
H	 0.472382731	 1.9144580235	 0.885139929	 0.1464
H	-2.1413285784	-0.2280174054	-0.1930125485	 0.124942
H	-2.0951639047	-3.8284088185	-0.138602643	 0.1926
H	 0.2220255462	-3.6887375953	 0.0588254808	 0.260114
H	 3.0742664907	-0.6275760841	 0.2630409699	 0.303196
99.8166	157.5745	199.2282	280.1194	341.133	361.0024	370.2968	467.0821	510.5013	521.5759	524.359	575.349	643.4293	724.8309	749.5261	785.1053	804.864	937.2601	937.762	1025.0207	1071.3003	1114.252	1150.6242	1201.2821	1267.4966	1309.1771	1383.034	1416.3275	1453.2425	1472.1328	1474.3247	1493.831	1619.6665	1673.4905	1721.9917	3040.9295	3096.157	3132.2664	3208.7347	3452.6241	3634.1267	3777.4536
CC1=CC(=N)NN=C1O	C[C@@H]1C=C([NH])NN=C1O	
InChI=1S/C5H7N3O/c1-3-2-4(6)7-8-5(3)9/h2H,1H3,(H2,6,7)(H,8,9)	InChI=1S/C5H8N3O/c1-3-2-4(6)7-8-5(3)9/h2-3,6-7H,1H3,(H,8,9)/t3-/m1/s1
