17
gdb 60908	3.28243	1.21346	1.03914	1.1779	68.52	-0.2588	-0.0434	0.2154	1163.1154	0.133854	-458.927259	-458.918802	-458.917858	-458.961066	31.183	
O	-1.077264664	 0.0956643099	-0.2322807116	-0.425524
C	 0.2112472974	-0.4523800298	-0.2992101529	-0.08332
C	 1.2002739965	 0.568042801	-0.8410119823	 0.132367
O	 0.8336211299	 1.6732873407	-1.1608292246	-0.263017
C	 0.6463290229	-0.9638093972	 1.052924959	 0.405945
C	-0.1772005229	-1.7966387077	 2.0471705783	-0.297396
C	 0.7001279135	-1.1894652745	 3.2001482277	-0.237414
C	 1.4638597726	-0.3899521588	 2.1377336131	-0.046851
O	 2.0199054778	-1.343153563	 1.2108422917	-0.2951
H	-0.9823747274	 1.0093182215	-0.5483420987	 0.297198
H	 0.22730103	-1.3066226115	-1.0028720771	 0.104271
H	 2.2524472966	 0.2435918077	-0.9213539239	 0.127535
H	-1.2179589606	-1.4741976239	 2.0970045071	 0.131817
H	-0.1252069221	-2.8774093192	 1.8975033745	 0.109185
H	 0.1213388844	-0.5585033606	 3.8778200923	 0.114315
H	 1.3112681927	-1.8867317556	 3.7769923379	 0.116301
H	 1.9733814627	 0.5633422711	 2.2233229393	 0.109689
49.8412	85.5464	157.3273	211.3553	289.0197	316.6387	371.8306	435.3685	476.9982	496.0178	653.5825	738.0936	772.3364	774.1967	856.8545	886.5588	919.8278	925.9134	956.9951	998.4831	1032.4917	1074.5082	1147.8819	1155.6543	1158.4108	1212.1775	1215.311	1259.9802	1270.0738	1281.4219	1336.2747	1384.3572	1434.5825	1449.1398	1463.1875	1490.2699	1810.2413	2930.7082	2992.6563	3071.9699	3078.7792	3127.2004	3146.1287	3183.432	3675.2747
OC(C=O)C12CCC1O2	O[C@@H](C=O)[C@]12CC[C@H]1O2	
InChI=1S/C6H8O3/c7-3-4(8)6-2-1-5(6)9-6/h3-5,8H,1-2H2	InChI=1S/C6H8O3/c7-3-4(8)6-2-1-5(6)9-6/h3-5,8H,1-2H2/t4-,5+,6+/m0/s1
