18
gdb 13607	4.27869	1.26322	1.16892	1.4741	69.99	-0.2654	0.0144	0.2798	1107.6995	0.152756	-384.969525	-384.960725	-384.95978	-385.003212	31.214	
C	 0.2307942867	 1.3784075767	 0.1800619625	-0.23914
O	 0.3548401662	-0.0425735414	 0.0568875991	-0.238691
C	 0.3238925184	-0.515722413	-1.2090121295	 0.458141
O	 0.2007213974	 0.1987346855	-2.1778185117	-0.380964
C	 0.4572945634	-1.9927042632	-1.216989842	-0.149989
C	-0.1068014881	-2.7552557268	-2.4032357535	-0.286325
C	 1.3750218296	-2.6852292211	-2.2306296538	 0.014612
C	 2.2582055617	-1.9220337849	-3.1917552379	-0.41958
H	 1.0524972756	 1.8848763215	-0.332951519	 0.138479
H	-0.7132659782	 1.7234743238	-0.2493923843	 0.139513
H	 0.2625993808	 1.587660736	 1.2495525702	 0.130611
H	 0.391849968	-2.4478490512	-0.2368436123	 0.101048
H	-0.6283436627	-3.6832695775	-2.1982234046	 0.115637
H	-0.5444563056	-2.1380337397	-3.1805710415	 0.137476
H	 1.8355749477	-3.5797747554	-1.8186863219	 0.09367
H	 1.7685084031	-1.0125801449	-3.5434693928	 0.155334
H	 3.204415808	-1.6391095073	-2.7176346944	 0.114773
H	 2.4952882779	-2.546706187	-4.0599194727	 0.115395
59.0063	112.4392	147.3233	180.5087	202.5154	249.8356	303.3394	360.8441	415.5764	437.9122	674.0437	743.0152	794.1008	838.8789	874.0421	899.9767	957.4419	993.4851	1054.8874	1077.4597	1100.1633	1124.4049	1150.5071	1178.5413	1192.2443	1209.0788	1222.9115	1236.3743	1392.7245	1415.2822	1425.5811	1474.1752	1479.9669	1481.0197	1497.7114	1503.1451	1505.188	1796.7786	3035.0872	3050.2872	3090.3987	3123.5801	3130.1723	3136.4896	3148.01	3156.0296	3190.7986	3228.8552
COC(=O)C1CC1C	COC(=O)[C@H]1C[C@H]1C	
InChI=1S/C6H10O2/c1-4-3-5(4)6(7)8-2/h4-5H,3H2,1-2H3	InChI=1S/C6H10O2/c1-4-3-5(4)6(7)8-2/h4-5H,3H2,1-2H3/t4-,5+/m1/s1
