17
gdb 34882	2.23563	1.76987	1.2144	2.829	76.44	-0.2583	0.0184	0.2767	1044.0934	0.137143	-380.823695	-380.816045	-380.8151	-380.855935	29.605	
N	-0.1155017018	-1.1952719745	-0.1071825753	-0.338682
C	-0.0761719283	-0.0412436462	-0.0415577652	 0.287148
C	 0.0131377322	 1.4112068316	 0.0399516046	-0.262864
C	-0.2615863707	 2.0900478049	 1.3989266384	-0.055948
C	 0.7913046596	 1.7293050556	 2.4058081489	-0.288529
C	 1.1138078728	 2.7644006875	 1.3622831751	-0.120362
C	 1.428717556	 2.0638977085	 0.0574135076	 0.365139
C	 2.6957990386	 1.5168573776	-0.4680907666	-0.30737
N	 2.0579889415	 2.7083433024	-1.07757689	-0.377537
H	-0.5952669449	 1.8575082361	-0.7528625796	 0.12828
H	-1.2229580746	 2.5015028646	 1.6753207133	 0.10775
H	 0.6146340219	 2.1133829905	 3.4048959331	 0.124583
H	 1.2693927889	 0.7536091237	 2.3790836939	 0.131905
H	 1.3822559367	 3.7866093551	 1.5939865279	 0.109828
H	 3.6300725108	 1.7144048198	 0.0496936561	 0.127461
H	 2.6576346855	 0.5716190514	-1.0034978251	 0.133169
H	 1.5936658058	 2.4573461313	-1.947539777	 0.236028
97.5981	130.7805	185.6562	276.1377	325.3903	379.5452	480.8576	494.3763	558.6143	620.1474	744.7725	791.0143	825.0942	865.3508	916.0563	927.2441	943.8222	969.561	986.2298	1003.523	1025.5653	1062.4978	1069.1158	1087.3595	1092.7932	1130.7786	1165.7586	1194.9332	1239.0785	1256.0682	1298.1359	1316.9078	1346.3262	1427.429	1490.1798	1516.5982	2349.6703	3066.0428	3110.0307	3119.6233	3198.4855	3200.7765	3204.9233	3215.9565	3492.1746
N#CC1C2CC2C11CN1	N#C[C@H]1[C@H]2C[C@H]2[C@]21CN2	
InChI=1S/C7H8N2/c8-2-6-4-1-5(4)7(6)3-9-7/h4-6,9H,1,3H2	InChI=1S/C7H8N2/c8-2-6-4-1-5(4)7(6)3-9-7/h4-6,9H,1,3H2/t4-,5+,6-,7-/m0/s1
