16
gdb 39157	3.0173	2.19824	1.55662	3.353	67.58	-0.2491	-0.0081	0.241	843.8313	0.127351	-437.855345	-437.849285	-437.84834	-437.885616	24.876	
C	 0.03274227	 1.5671536203	 0.0808192901	-0.102077
O	 1.4323359938	 1.9876824772	 0.1565172102	-0.260276
C	 2.0592548233	 0.8501163153	 0.5576029227	 0.357959
N	 2.6942802146	 0.6701374763	 1.6373816314	-0.257344
C	 2.5649430061	-0.7773381042	 1.9358007601	-0.180894
C	 1.4035495031	-1.264062858	 1.0379679678	 0.105363
O	 0.0964397643	-0.658927389	 1.349810733	-0.325303
C	 0.0303561324	 0.0168042352	 0.0518476438	 0.087397
C	 1.484588419	-0.355341931	-0.1763553388	-0.200576
H	-0.4961658776	 1.951179818	 0.9584845344	 0.137804
H	-0.3952307128	 1.9905626754	-0.8319183806	 0.122961
H	 3.481235396	-1.3463961904	 1.7279377187	 0.110633
H	 2.3419525792	-0.882639847	 3.0023205985	 0.128971
H	 1.3154797923	-2.3470544569	 0.9236422099	 0.083472
H	-0.7667378717	-0.3995069627	-0.5696440721	 0.090908
H	 1.9221006879	-0.6072427485	-1.140496529	 0.101001
160.1091	284.0393	344.06	360.4859	497.4678	594.3801	670.2257	721.7863	759.2772	824.3104	829.9422	833.0533	895.9246	918.7084	936.0713	969.5538	982.5542	1004.4421	1026.1127	1032.4239	1054.6172	1159.6718	1193.497	1199.4154	1230.2827	1248.3349	1264.9119	1291.6639	1307.4803	1321.7191	1340.5775	1387.3755	1473.9659	1488.005	1721.9466	3021.4661	3053.7793	3076.9902	3083.6274	3087.5562	3113.7247	3134.913
C1OC2=NCC3OC1C23	C1O[C]2[N]C[C@H]3O[C@@H]1[C@@H]23	
InChI=1S/C6H7NO2/c1-3-5-4(9-3)2-8-6(5)7-1/h3-5H,1-2H2	InChI=1S/C6H7NO2/c1-3-5-4(9-3)2-8-6(5)7-1/h3-5H,1-2H2/t3-,4+,5+/m1/s1
