18
gdb 99532	2.25102	1.21567	0.83842	6.5906	76.6	-0.2627	0.0106	0.2733	1355.345	0.147182	-398.150224	-398.140084	-398.139139	-398.185777	35.521	
C	-0.120228147	 1.5621134576	 0.0974908539	-0.412085
C	-0.0304092152	 0.0269260368	-0.0151697497	-0.152758
C	-1.3799993037	-0.5478040674	 0.0251304413	 0.281494
N	-2.4556995174	-0.9683707166	 0.0521341335	-0.310701
C	 0.7151898144	-0.4484215779	-1.3001907595	-0.120519
C	 2.1456684864	 0.1305422586	-1.4174781064	-0.177202
N	 2.7680621525	-0.3387612306	-2.6478929713	-0.515066
C	 0.7916542049	-1.9132683838	-1.3319389231	 0.289368
N	 0.910439651	-3.0627482182	-1.346177407	-0.323582
H	 0.8693543698	 2.0005433789	 0.2388947021	 0.137266
H	-0.5730091584	 1.9932159787	-0.799969815	 0.144704
H	-0.7380283855	 1.8372070706	 0.9549482451	 0.150242
H	 0.5134607575	-0.3626841462	 0.8540444114	 0.145622
H	 0.1491482404	-0.1256833907	-2.1811890979	 0.152576
H	 2.0689763913	 1.219508508	-1.4744075473	 0.120841
H	 2.696622104	-0.1125450753	-0.4921963341	 0.10103
H	 3.6441850855	 0.1471486497	-2.8046367564	 0.23859
H	 2.9858581797	-1.3286520118	-2.5810788395	 0.250179
49.4722	100.0455	120.5086	155.5265	200.17	209.7837	254.414	269.8878	302.9514	335.5807	410.251	499.1559	533.9029	578.5002	621.5988	808.8187	840.1215	853.1857	938.907	998.9568	1029.7886	1083.7826	1094.343	1118.5441	1143.6891	1186.5934	1238.6349	1309.4638	1334.5063	1341.1775	1362.7079	1412.1905	1422.8697	1493.897	1499.7934	1510.1842	1660.56	2357.3336	2362.073	2948.9445	3040.8121	3055.2694	3063.9698	3090.035	3131.9976	3140.7468	3504.1214	3585.7612
CC(C#N)C(CN)C#N	C[C@@H](C#N)[C@@H](CN)C#N	
InChI=1S/C6H9N3/c1-5(2-7)6(3-8)4-9/h5-6H,3,8H2,1H3	InChI=1S/C6H9N3/c1-5(2-7)6(3-8)4-9/h5-6H,3,8H2,1H3/t5-,6-/m0/s1
