17
gdb 36121	4.07974	1.13653	1.00582	1.9712	77.71	-0.2455	-0.0007	0.2448	1187.0165	0.134774	-384.64427	-384.636216	-384.635272	-384.677125	31.117	
C	-0.0414207705	-1.1746201132	-0.3639452154	-0.451284
C	-0.0386119136	 0.0055177362	-0.1383234663	 0.31293
C	-0.0150678067	 1.4371883306	 0.1492504725	-0.452631
C	 1.3899054398	 2.0047830043	 0.2176960663	 0.416295
C	 2.4063480396	 1.46195789	 1.2245361765	-0.322744
C	 3.3165478141	 2.6476298842	 1.4710514723	-0.079573
C	 2.9257744019	 3.7354105811	 0.8015871027	-0.077938
C	 1.728112469	 3.4190438191	-0.0316448498	-0.078239
O	 1.9776675436	 2.3906303355	-1.0253290949	-0.292277
H	-0.0504557023	-2.2155902042	-0.5729834197	 0.198109
H	-0.5706070168	 1.9822021558	-0.6221569783	 0.141235
H	-0.5245060132	 1.6253195367	 1.103756035	 0.133853
H	 1.9165714653	 1.1224804218	 2.1465041098	 0.113663
H	 2.9442988616	 0.5989881554	 0.8169360537	 0.136096
H	 4.1961221818	 2.5800003498	 2.1013186268	 0.104179
H	 3.4084678959	 4.7044560389	 0.8130535219	 0.104113
H	 1.0027078607	 4.1716264682	-0.327509243	 0.094213
57.3724	107.7011	220.8202	288.7791	337.1015	372.7748	401.3225	424.6247	530.4251	621.0762	645.0684	697.4364	715.8736	739.9059	816.7016	854.3402	909.4311	924.8875	941.7905	955.0922	966.4571	985.2552	1018.0224	1070.267	1136.2737	1156.6606	1198.6244	1242.8342	1272.5233	1323.618	1331.7023	1371.0167	1436.1593	1452.3418	1462.4138	1661.0483	2240.8682	3020.5265	3030.5568	3068.2349	3075.023	3155.7651	3192.7062	3221.2382	3506.1394
C#CCC12CC=CC1O2	C#CC[C@]12CC=C[C@H]1O2	
InChI=1S/C8H8O/c1-2-5-8-6-3-4-7(8)9-8/h1,3-4,7H,5-6H2	InChI=1S/C8H8O/c1-2-5-8-6-3-4-7(8)9-8/h1,3-4,7H,5-6H2/t7-,8+/m1/s1
