21
gdb 124590	3.74598	0.97487	0.93657	1.9761	86.55	-0.2263	0.0334	0.2597	1404.3297	0.182412	-383.311703	-383.301982	-383.301038	-383.348472	35.355	
C	-0.0087635868	 1.5574377589	 0.2117249213	-0.386762
C	-0.0888741303	 0.0401991475	 0.0082317629	 0.063466
C	 0.8088765398	-0.7284845446	 0.9844612045	-0.386751
N	-1.4725314884	-0.4305449507	 0.0796776385	 0.042448
C	-2.3297811328	-0.382305246	 1.128927213	-0.024019
C	-3.5138537274	-0.9486190366	 0.7076206553	-0.309578
C	-3.279719546	-1.3198918164	-0.6366671596	 0.350608
C	-4.2139635152	-1.9807318487	-1.6016349456	-0.489479
N	-2.038714679	-1.0008121945	-1.0068089804	-0.321216
H	 1.0196520899	 1.9023609896	 0.0680176028	 0.120054
H	-0.6522496478	 2.0787185356	-0.5017113686	 0.133435
H	-0.3176867829	 1.8398790081	 1.2236662122	 0.117832
H	 0.2098035299	-0.1989659202	-1.0152918309	 0.1129
H	 0.5292612805	-0.5278996717	 2.0240825246	 0.11783
H	 0.7369779264	-1.805349739	 0.8112814791	 0.133443
H	 1.8520763291	-0.4249084961	 0.8546894583	 0.120052
H	-2.0408931564	 0.0420644569	 2.0776788381	 0.124555
H	-4.415629153	-1.075861978	 1.2853565225	 0.095184
H	-5.1105691826	-1.3744793007	-1.7727147593	 0.124956
H	-3.713152815	-2.1304214501	-2.5605725113	 0.136156
H	-4.5494664019	-2.9563526032	-1.2325178173	 0.124888
6.0241	85.1006	117.6239	191.0102	225.2	260.8281	262.1234	299.2116	365.6756	409.1878	498.6255	632.7323	650.8282	689.005	694.1033	766.4831	828.374	887.6794	932.6214	949.2431	982.437	1006.9922	1037.8576	1064.2452	1070.965	1105.3298	1145.5526	1186.2222	1229.6573	1264.8133	1354.8555	1367.9406	1399.9906	1400.2621	1411.2778	1419.1336	1444.5171	1483.9192	1484.6953	1486.3892	1490.0813	1498.271	1507.6603	1513.3053	1570.1897	3032.5009	3037.2223	3041.0326	3082.2576	3084.2773	3104.923	3116.9854	3122.4514	3124.9477	3129.6749	3248.0204	3267.2917
CC(C)N1C=CC(C)=N1	CC(C)n1ccc(C)n1	
InChI=1S/C7H12N2/c1-6(2)9-5-4-7(3)8-9/h4-6H,1-3H3	InChI=1S/C7H12N2/c1-6(2)9-5-4-7(3)8-9/h4-6H,1-3H3
