18
gdb 78569	2.49988	1.78827	1.32327	4.292	76.04	-0.2388	0.0052	0.2441	1023.7354	0.146938	-401.913831	-401.905689	-401.904745	-401.946231	31.279	
C	 0.1328970178	 1.6302022825	 0.0392602475	-0.42298
C	 0.0487785348	 0.118828802	-0.0502106673	 0.041172
C	 0.7391239006	-0.6760810528	-1.1613320527	-0.151238
C	 2.2251880446	-0.8172053157	-0.7170276872	-0.268972
C	 2.2574156972	-0.2120368998	 0.6378658251	 0.428536
O	 3.0564308652	 0.3140413904	 1.3469441348	-0.326071
N	 0.8776749262	-0.6887410862	 0.9553171094	-0.266626
C	 1.1108258844	-1.7185297612	-0.1772055288	 0.371273
C	 1.004700455	-3.1952446601	-0.0293671582	-0.521276
H	 1.1523210879	 1.9976789237	-0.1074034165	 0.136472
H	-0.5068190252	 2.085026852	-0.7239502348	 0.11947
H	-0.2120761022	 1.9701979781	 1.020636614	 0.139607
H	-0.9892375779	-0.2119557101	 0.0546087765	 0.090169
H	 0.4788097574	-0.7945511418	-2.2079242374	 0.100425
H	 3.0191318866	-1.0468695545	-1.4151078791	 0.114235
H	-0.0187019993	-3.4910561729	 0.2226328681	 0.138875
H	 1.2853151992	-3.6946202011	-0.9617415431	 0.132327
H	 1.6665012277	-3.5541502023	 0.7651522497	 0.144601
116.3792	165.6996	196.2766	209.4804	225.1622	303.5869	372.9234	474.2687	538.8218	617.9655	655.1217	695.7406	769.3967	793.0545	822.7366	867.2216	895.2451	919.7711	935.652	979.5726	1026.5286	1056.3726	1065.1981	1090.1236	1125.4383	1152.0995	1165.527	1191.2076	1270.3846	1285.6768	1386.501	1408.2026	1414.2845	1470.0123	1478.8435	1490.7354	1491.9574	1496.1872	1914.69	3036.8647	3040.8406	3057.4255	3104.0632	3110.3469	3112.6334	3121.0613	3170.6587	3210.5036
CC1C2C3C(=O)N1C23C	C[C@H]1[C@H]2[C@H]3C(=O)N1[C@@]23C	
InChI=1S/C7H9NO/c1-3-4-5-6(9)8(3)7(4,5)2/h3-5H,1-2H3	InChI=1S/C7H9NO/c1-3-4-5-6(9)8(3)7(4,5)2/h3-5H,1-2H3/t3-,4-,5-,7-/m0/s1
