15
gdb 33430	2.73679	1.14331	0.85113	4.5735	70.62	-0.2929	-0.0373	0.2556	1299.3856	0.110888	-416.783698	-416.774848	-416.773904	-416.818597	30.898	
N	 0.6562009511	-1.0094682138	-0.0081886353	-0.307353
C	 0.3639006153	 0.1072348275	-0.0109639405	 0.303506
C	 0.0010113195	 1.5461414886	 0.0141139937	-0.145598
O	 1.1207467343	 2.3953009834	 0.0557208828	-0.233379
C	 1.7311174118	 2.4682481851	 1.3260456763	 0.124653
C	 2.808680347	 1.4832485748	 1.693176064	-0.28486
C	 3.1540152096	 2.9129035778	 1.3306555124	-0.289516
C	-0.7893080079	 1.8870031728	-1.1822688061	 0.306632
N	-1.4331267711	 2.1580660604	-2.1001554614	-0.291218
H	-0.6453026192	 1.7021226271	 0.8933931626	 0.166497
H	 1.0588913925	 2.83181701	 2.1023965523	 0.103477
H	 2.8800801588	 1.167855445	 2.7278915667	 0.128149
H	 3.0501727018	 0.7179899653	 0.9659768452	 0.148434
H	 3.6094110811	 3.0787038027	 0.361273485	 0.141978
H	 3.4710997855	 3.5979336933	 2.1080439922	 0.128596
32.4271	89.7069	134.5041	138.4412	223.8277	272.4526	368.0909	385.5415	421.7443	529.7751	579.8547	615.7082	753.4951	821.5655	839.5531	889.2487	971.0321	978.6488	1035.8701	1060.1923	1075.299	1088.2142	1124.6155	1190.9389	1193.3172	1241.5186	1321.2601	1326.2175	1403.4088	1455.5449	1495.6319	2365.1417	2381.4608	2983.5292	3110.7979	3146.9946	3150.6457	3232.33	3245.8358
N#CC(OC1CC1)C#N	N#CC(OC1CC1)C#N	
InChI=1S/C6H6N2O/c7-3-6(4-8)9-5-1-2-5/h5-6H,1-2H2	InChI=1S/C6H6N2O/c7-3-6(4-8)9-5-1-2-5/h5-6H,1-2H2
