20
gdb 107911	4.66915	1.07714	0.9999	2.9175	79.45	-0.2198	0.0701	0.2898	1249.6008	0.170826	-403.066689	-403.058186	-403.057242	-403.099674	32.812	
C	 0.0090926989	 1.50526459	 0.0043217747	-0.399029
C	 0.0435175839	-0.0116573778	-0.0360045958	 0.051342
C	 0.8522070471	-0.6169319306	-1.1758667502	-0.148484
C	 2.0436749286	-0.6706840468	-0.2664272724	-0.069543
N	 1.0769102688	-0.5689520088	 0.9362879345	-0.182486
C	 0.8556890108	-2.0627451998	 0.7831534079	-0.229256
C	 1.3815787233	-1.96640752	-0.6405016526	 0.340693
C	 1.8718822868	-3.0520173521	-1.5404352952	-0.216141
O	 2.8398225744	-3.8180070521	-0.8317191138	-0.418713
H	 1.0083903115	 1.9242534249	-0.1500630908	 0.118497
H	-0.651482433	 1.8999772422	-0.7753796103	 0.1086
H	-0.3592835683	 1.8485036436	 0.9755595321	 0.12345
H	-0.9610068108	-0.4173038773	 0.1417830966	 0.06484
H	 0.823720775	-0.4024678256	-2.2381899787	 0.08376
H	 3.0604696992	-0.3079710755	-0.3056203488	 0.098536
H	 1.5436460464	-2.6054484722	 1.4345272762	 0.119524
H	-0.1739731795	-2.3920933006	 0.9690272235	 0.089505
H	 1.0251017277	-3.6838588713	-1.8553287424	 0.091049
H	 2.3025694282	-2.6097774274	-2.454061882	 0.086224
H	 3.060790161	-4.5866942427	-1.3659111726	 0.287631
77.3252	142.3757	197.0557	235.3712	254.8307	283.1443	321.7135	369.6495	465.9466	556.7105	650.4874	763.3129	782.6729	807.282	834.0924	866.8316	896.8273	920.1548	929.4756	977.8843	1018.5386	1028.2272	1062.9263	1076.0284	1087.2694	1098.7556	1132.2181	1143.9026	1179.2724	1203.9582	1221.7767	1252.4283	1265.5942	1293.0288	1328.5627	1378.9598	1408.6366	1411.348	1475.0577	1489.0646	1492.9913	1509.5418	1514.1567	2957.0107	2982.8381	3015.0807	3030.8197	3034.4816	3103.3284	3112.8188	3114.2394	3176.5388	3223.2215	3828.3255
CC1C2C3N1CC23CO	C[C@H]1[C@H]2[C@H]3N1C[C@@]23CO	
InChI=1S/C7H11NO/c1-4-5-6-7(5,3-9)2-8(4)6/h4-6,9H,2-3H2,1H3	InChI=1S/C7H11NO/c1-4-5-6-7(5,3-9)2-8(4)6/h4-6,9H,2-3H2,1H3/t4-,5-,6+,7+/m0/s1
