20
gdb 51470	2.93284	1.19234	1.08209	2.6821	78.35	-0.2275	-0.0239	0.2035	1202.2347	0.171703	-403.136903	-403.128343	-403.127398	-403.171346	31.557	
O	 1.4906895278	-0.5580798101	-0.3101400833	-0.242397
C	 0.897644239	 0.4829468463	-0.4286231673	 0.176541
C	 1.4163607866	 1.8293648899	 0.0387180272	-0.323205
C	 1.4054832264	 2.8432064378	-1.0944908593	-0.010337
C	 2.3761705137	 3.9625076488	-1.2454962391	-0.049279
C	 3.6788910916	 3.9631433952	-0.4564838207	-0.227956
C	 4.3871152787	 2.6341308406	-0.8265908824	-0.23591
C	 3.6024361561	 2.0816264785	-2.0483316424	-0.165929
N	 2.3563323977	 2.8559155219	-2.2222812194	-0.110097
H	-0.1049708487	 0.5196307988	-0.9148383983	 0.079079
H	 0.7290512564	 2.1933480411	 0.8166782031	 0.124429
H	 2.3936509706	 1.6828372641	 0.4970180275	 0.12539
H	 0.3920100554	 3.0442311368	-1.4434083652	 0.093961
H	 2.0083110424	 4.9232510281	-1.5986151378	 0.089414
H	 4.2758415357	 4.826739299	-0.7647580802	 0.110143
H	 3.5181315331	 4.0599857515	 0.6222083886	 0.107031
H	 5.4398079149	 2.7969643238	-1.0719716097	 0.10489
H	 4.3711119078	 1.9283389318	 0.0074210006	 0.117581
H	 4.1787272276	 2.2100822605	-2.9696903095	 0.11085
H	 3.3794669071	 1.0148824557	-1.9516362926	 0.125802
48.0724	53.8683	133.8658	165.5119	255.1841	267.4058	446.4849	463.7376	541.4606	682.8401	699.487	737.404	751.6901	794.974	845.9011	885.8169	895.1462	920.4617	983.1026	1025.2906	1028.8819	1034.8272	1095.7067	1127.402	1133.8581	1149.6245	1196.9759	1211.9125	1235.2348	1261.1409	1279.835	1292.3708	1310.9504	1329.8693	1343.099	1383.9309	1427.3699	1438.8725	1455.7574	1494.6134	1501.204	1521.9665	1832.6672	2864.1092	3013.0573	3047.9983	3049.8875	3066.8984	3078.3173	3088.6342	3091.7939	3109.9119	3129.3024	3143.378
O=CCC1C2CCCN12	O=CC[C@H]1[C@H]2CCCN12	
InChI=1S/C7H11NO/c9-5-3-7-6-2-1-4-8(6)7/h5-7H,1-4H2	InChI=1S/C7H11NO/c9-5-3-7-6-2-1-4-8(6)7/h5-7H,1-4H2/t6-,7+,8?/m1/s1
