16
gdb 87542	2.7994	1.49985	1.15777	4.6963	69.88	-0.2482	-0.0307	0.2175	1071.5249	0.122767	-437.838591	-437.830572	-437.829628	-437.871267	29.805	
C	-0.0184499585	 1.5773140078	-0.0406204403	-0.419109
C	-0.0815378664	 0.0796164425	 0.0927184794	-0.024755
O	 1.1435362806	-0.6482443277	-0.1033291345	-0.282554
C	 0.5834330092	-0.6384059207	 1.1884706746	 0.320004
C	 1.2985192287	-0.1787797542	 2.4467069171	-0.133452
C	 0.3564235985	-0.1900022517	 3.5752760351	-0.253702
N	 0.956134202	-1.4935984525	 3.1606343978	-0.182524
C	 0.2326073055	-1.9129010651	 1.9576190997	 0.333363
O	-0.3047838617	-2.9456721028	 1.7215664993	-0.291414
H	 0.859304844	 1.9812668976	 0.4701184537	 0.131326
H	 0.0339233663	 1.8644655632	-1.0955134034	 0.141481
H	-0.9162079976	 2.0345409871	 0.3884076433	 0.130999
H	-0.9455297629	-0.4098460839	-0.3582936735	 0.115834
H	 2.3066442993	 0.2120623811	 2.486597797	 0.132732
H	 0.7030958679	 0.1288318022	 4.5529149764	 0.146727
H	-0.7026375849	-0.0230560028	 3.3928670882	 0.135043
107.4402	135.7923	176.4176	188.4067	266.4242	290.6414	426.4699	455.1972	561.5977	609.4909	675.0982	734.94	783.9951	818.9341	842.9726	909.8537	960.2219	989.1353	1026.3384	1034.0545	1046.4435	1118.1747	1124.4735	1133.5488	1160.6744	1185.3106	1232.0385	1300.7238	1361.1006	1412.2927	1471.4952	1486.6319	1503.8777	1515.7477	1925.4336	3040.9769	3107.3465	3107.7489	3112.6993	3130.1946	3203.6923	3214.5089
CC1OC11C2CN2C1=O	C[C@H]1O[C@]21[C@H]1CN1C2=O	
InChI=1S/C6H7NO2/c1-3-6(9-3)4-2-7(4)5(6)8/h3-4H,2H2,1H3	InChI=1S/C6H7NO2/c1-3-6(9-3)4-2-7(4)5(6)8/h3-4H,2H2,1H3/t3-,4-,6-,7?/m1/s1
