13
gdb 22716	4.8604	0.95717	0.87353	3.6804	69.66	-0.2732	-0.0372	0.236	1246.1129	0.087716	-452.660465	-452.652717	-452.651773	-452.693024	28.558	
O	-0.0764785232	 1.3035143105	-0.0908834563	-0.376742
N	 0.034551489	-0.0840452564	 0.0159284407	-0.241106
C	-1.099799986	-0.6410822473	-0.0145280515	 0.453814
C	-2.5678783163	-0.2016869702	-0.0172158815	-0.393623
C	-2.9049622187	-1.7058246957	 0.1424779247	 0.305057
O	-2.3441749497	-2.3908394355	-0.9760605063	-0.255171
C	-1.4612869284	-2.0879713952	 0.1186869236	-0.14783
C	-4.0010868318	-2.2914121489	 0.8465560223	 0.214146
N	-4.90017606	-2.7273852238	 1.4282685378	-0.32877
H	 0.8426241349	 1.5922936617	-0.0450418365	 0.317455
H	-2.8150269898	 0.4048123362	 0.8577817215	 0.156914
H	-2.9587222271	 0.263692573	-0.9232529243	 0.151626
H	-0.9373296128	-2.9096906982	 0.5888682757	 0.144229
81.0182	138.0034	211.6656	224.8419	332.9121	404.3821	452.6119	472.6914	526.5494	548.8632	585.2155	634.4079	714.9914	809.5894	858.8036	952.9904	977.6667	1001.5653	1024.1122	1109.9132	1120.4958	1190.2099	1215.983	1242.6385	1389.5672	1419.0657	1455.4376	1797.8089	2360.7529	3080.0038	3141.8569	3221.9818	3804.2991
ON=C1CC2(OC12)C#N	ON=C1C[C@]2(O[C@@H]12)C#N	
InChI=1S/C5H4N2O2/c6-2-5-1-3(7-8)4(5)9-5/h4,8H,1H2	InChI=1S/C5H4N2O2/c6-2-5-1-3(7-8)4(5)9-5/h4,8H,1H2/t4-,5-/m0/s1
