14
gdb 21729	6.23391	1.27155	1.11176	6.7648	61.85	-0.2303	-0.0245	0.2058	1020.4643	0.108643	-415.852297	-415.845098	-415.844154	-415.883995	26.527	
N	-0.6920905645	 0.7481018145	 0.1059352326	-0.520448
H	 0.8584617252	-0.6107877939	 1.5404135055	 0.279914
H	-0.8300510531	 1.049501134	-0.8524791008	 0.244364
H	-1.6071280213	 0.4950237632	 0.4666775851	 0.242115
C	-0.1210558767	 1.8424644517	 0.9039820635	-0.265026
C	 0.4380463826	 1.2900198369	 2.1799865785	 0.457383
N	 1.2212515275	 0.1577054852	 2.0964324381	-0.207508
O	 1.5034856291	-0.2692608232	 3.4016010877	-0.252404
C	 1.0366780878	 0.7254604386	 4.2901679686	 0.49793
O	 1.2452955501	 0.629960542	 5.4672656374	-0.365445
C	 0.3557977258	 1.7058631017	 3.4619956622	-0.499114
H	 0.6990324818	 2.2834049822	 0.3254109146	 0.143798
H	-0.8200781909	 2.6551778973	 1.1455686646	 0.116583
H	-0.1160836033	 2.5947486297	 3.8451851525	 0.127858
78.938	152.9777	230.9495	262.0339	335.2198	388.8992	526.9287	575.4542	652.847	672.9967	708.9795	752.685	807.8509	864.3917	881.9045	970.1386	998.1853	1065.158	1077.3403	1136.2816	1167.6496	1197.7521	1309.8938	1339.2919	1409.4023	1447.0394	1491.6448	1657.2639	1668.1575	1875.209	3007.3327	3063.5203	3281.1156	3503.2231	3544.1376	3585.7564
[NH3+]CC1=NOC([O-])=C1	NCc1[nH]oc(=O)c1	
InChI=1S/C4H6N2O2/c5-2-3-1-4(7)8-6-3/h1,7H,2,5H2	InChI=1S/C4H6N2O2/c5-2-3-1-4(7)8-6-3/h1,6H,2,5H2
