21
gdb 14711	7.4015	0.65834	0.61612	2.8178	80.62	-0.2402	0.0297	0.2699	1881.393	0.186361	-366.265302	-366.25497	-366.254026	-366.302152	35.125	
C	 0.017615222	 1.3389574846	 0.2153127561	-0.388736
C	-0.4447005477	-0.0727541051	 0.5881605245	-0.181216
C	-1.4654294907	-0.6175089975	-0.4208054372	-0.110184
N	-2.018909909	-1.9466039354	-0.2313662168	-0.23521
C	-1.6734999595	-2.6564230137	 0.7463115767	 0.128113
O	-2.2006318325	-3.8910763911	 0.9029962174	-0.207019
C	-1.7509942576	-4.6191086856	 2.0472072588	-0.054449
C	-2.4433688767	-5.9694502431	 2.0407868201	-0.383274
H	 0.7449603809	 1.7241410777	 0.9362058598	 0.112605
H	 0.4893490515	 1.3526334489	-0.7733857278	 0.117914
H	-0.8260489471	 2.0373294861	 0.1879419178	 0.117911
H	 0.4247228235	-0.7411875473	 0.6366792465	 0.097716
H	-0.8850166662	-0.0595454052	 1.5936468017	 0.097708
H	-2.3146735899	 0.0785180175	-0.4768943809	 0.108314
H	-1.0174404047	-0.5967698234	-1.4246457404	 0.108317
H	-0.9565932143	-2.3784873536	 1.5297238336	 0.073342
H	-0.65938901	-4.7409073735	 2.0072485656	 0.104494
H	-1.9927670453	-4.0617865839	 2.9631533538	 0.104586
H	-2.1976537353	-6.5221432801	 1.1300557371	 0.135179
H	-2.1253518724	-6.5602814056	 2.9047536591	 0.118597
H	-3.5286092891	-5.8442118807	 2.0836628444	 0.13529
20.7241	77.2589	98.1243	112.4263	148.921	220.3431	232.6804	250.6003	291.3778	292.7538	434.3916	464.9401	633.8301	749.6373	817.0782	882.0649	890.7839	923.1623	986.0896	1025.4807	1062.0559	1070.9243	1117.6069	1154.598	1163.3644	1183.0513	1244.4664	1284.5153	1300.6698	1322.3979	1328.3755	1393.6582	1397.9094	1411.4214	1414.8658	1440.7796	1481.6381	1483.686	1494.0218	1499.2063	1499.4357	1510.8757	1524.0548	1780.5706	2993.3404	3000.5916	3016.1372	3019.1675	3031.2081	3032.6043	3035.9152	3048.8779	3053.6858	3097.9197	3104.2244	3123.901	3128.5441
CCCN=COCC	CCCN=COCC	
InChI=1S/C6H13NO/c1-3-5-7-6-8-4-2/h6H,3-5H2,1-2H3	InChI=1S/C6H13NO/c1-3-5-7-6-8-4-2/h6H,3-5H2,1-2H3
