16
gdb 42225	4.17536	1.12102	1.01686	1.9937	79.32	-0.2438	-0.0676	0.1762	1175.8315	0.123295	-400.669684	-400.661582	-400.660638	-400.703078	30.231	
O	 0.4572824594	 0.3197524676	-1.0506764758	-0.325601
C	 0.2646224732	 1.3542449023	-0.4391557471	 0.243476
C	 1.3273435195	 1.9667966743	 0.3448392146	 0.237522
C	 2.2031902159	 2.4814969783	 0.9910522711	-0.384697
C	-1.0159112429	 2.1234779081	-0.4133614543	-0.115165
C	-1.8705680208	 2.3766051828	-1.61514093	-0.036755
C	-1.9146280055	 1.2089522119	-2.5974492954	-0.247976
C	-2.4055298656	 0.359324239	-1.3995202828	-0.146724
N	-2.3930698456	 1.5570806325	-0.4720280658	-0.152752
H	 2.9873117063	 2.921690938	 1.5581646514	 0.21613
H	-0.9934513263	 2.9489715021	 0.2920054194	 0.112823
H	-2.2221707063	 3.3863649292	-1.8077027651	 0.104722
H	-2.672601409	 1.3466740103	-3.37060531	 0.111672
H	-0.9692898705	 0.9200715002	-3.0583132626	 0.131185
H	-3.4407310086	 0.026237716	-1.4934017469	 0.112949
H	-1.7738671932	-0.4673070227	-1.0799371307	 0.13919
33.1804	135.8604	194.0439	240.7568	252.8067	348.0774	364.8301	486.6387	625.7931	647.088	694.2214	715.6445	752.0898	762.0248	785.4208	825.5837	868.6931	944.5185	954.2904	1011.5905	1045.8327	1071.0966	1077.297	1135.6187	1181.475	1217.9611	1235.8532	1267.4868	1289.8468	1355.0095	1416.3832	1475.132	1494.5268	1739.8847	2209.5327	3079.8487	3086.3434	3134.1265	3148.7888	3159.8583	3161.6983	3493.4723
O=C(C#C)C1C2CCN12	O=C(C#C)[C@H]1[C@H]2CCN12	
InChI=1S/C7H7NO/c1-2-6(9)7-5-3-4-8(5)7/h1,5,7H,3-4H2	InChI=1S/C7H7NO/c1-2-6(9)7-5-3-4-8(5)7/h1,5,7H,3-4H2/t5-,7-,8?/m1/s1
