21
gdb 92551	3.16899	1.28624	1.03078	1.7168	83.75	-0.2401	0.0149	0.2549	1205.8678	0.184994	-387.093093	-387.085126	-387.084182	-387.12537	32.251	
O	 0.2484309152	 1.3785268677	 0.3091774947	-0.43672
C	 0.0740857241	-0.0153072069	 0.0612814232	 0.087033
C	-1.4111837128	-0.404914705	 0.0229208183	-0.233153
C	-1.6031376133	-1.8827996897	-0.3285057793	-0.021354
C	-2.9382104872	-2.2078005813	-1.0595319426	-0.234415
C	-2.1877505712	-2.1545085502	-2.4192895573	-0.233194
C	-0.8407196385	-2.2752192989	-1.6302559005	-0.012387
C	 0.3323823496	-1.4254808627	-1.9959322831	-0.082256
C	 0.7651261903	-0.4331383403	-1.2164162561	-0.101736
H	-0.1236055658	 1.8510319694	-0.4441313051	 0.273424
H	 0.557595989	-0.4976456569	 0.9219029587	 0.096232
H	-1.8868105827	-0.161567027	 0.9786890022	 0.101214
H	-1.8931939168	 0.2216987312	-0.7407407656	 0.082651
H	-1.3756213436	-2.5040394758	 0.5431973054	 0.064985
H	-3.2947116524	-3.2157566557	-0.8303441023	 0.099904
H	-3.7647249226	-1.5072650571	-0.9128663834	 0.095872
H	-2.4111448898	-2.9372175794	-3.1476255144	 0.096917
H	-2.2835137757	-1.1839674038	-2.9129032267	 0.101852
H	-0.5388644138	-3.3288663812	-1.5954996892	 0.078228
H	 0.8545577524	-1.6582650345	-2.9225551107	 0.08581
H	 1.6469665656	 0.1463760479	-1.4794487464	 0.091093
96.6721	162.9309	231.4494	283.7941	318.4943	377.9771	400.9788	435.7024	498.4555	585.5541	648.3391	722.77	742.403	777.4402	837.7598	880.6035	913.3339	943.0956	961.0744	983.123	1005.1668	1021.305	1056.0962	1069.8903	1087.3461	1093.0293	1144.2589	1158.9503	1204.7355	1236.4771	1242.257	1253.7351	1258.5944	1279.3866	1286.0043	1307.8124	1347.588	1356.4065	1381.1442	1400.9711	1424.2906	1481.64	1489.3985	1501.3677	1705.9593	3005.6496	3017.7255	3026.3294	3048.0048	3056.1465	3064.1304	3077.1828	3099.7962	3119.67	3133.6697	3163.9151	3794.8209
OC1CC2CCC2C=C1	O[C@H]1C[C@H]2CC[C@H]2C=C1	
InChI=1S/C8H12O/c9-8-4-3-6-1-2-7(6)5-8/h3-4,6-9H,1-2,5H2	InChI=1S/C8H12O/c9-8-4-3-6-1-2-7(6)5-8/h3-4,6-9H,1-2,5H2/t6-,7+,8+/m0/s1
