19
gdb 53520	5.3864	0.54788	0.53065	3.4587	82.36	-0.2424	-0.0223	0.2201	2074.2589	0.154647	-423.009331	-422.998097	-422.997153	-423.048177	37.435	
C	 0.0756661849	 1.5155085181	 0.0957820168	-0.498352
C	 0.0483933347	 0.0602212826	 0.0715709349	 0.121478
C	 0.0250073375	-1.1429993875	 0.0505695872	 0.034145
C	-0.0194333347	-2.5993620218	 0.032258708	-0.395778
C	-1.4484570305	-3.1692713466	-0.0950594508	 0.121707
O	-2.1186716768	-2.6868609172	-1.2483772869	-0.419564
C	-1.4317696215	-4.7103258453	-0.0661801343	-0.293637
C	-2.8253733749	-5.3041584014	-0.0924256423	 0.15235
O	-3.1944528348	-6.196035342	 0.6287482824	-0.242778
H	 0.8645068205	 1.9101426197	-0.5541599417	 0.147351
H	-0.8765368127	 1.9347287625	-0.2474221227	 0.151626
H	 0.2594606986	 1.894772594	 1.1070476226	 0.148149
H	 0.5846533097	-2.9876447377	-0.8024903621	 0.115613
H	 0.4387646705	-3.0044442595	 0.9438638318	 0.133974
H	-2.0425770823	-2.7979930526	 0.7477066423	 0.112525
H	-1.5373294898	-2.8068693491	-2.0079071157	 0.282067
H	-0.8991289683	-5.0670056607	-0.9617068796	 0.111505
H	-0.9048201663	-5.0966851182	 0.8115110577	 0.12179
H	-3.5029871038	-4.8469733774	-0.8439147976	 0.095829
27.2928	39.3193	66.5707	80.1852	94.7448	191.7296	213.5177	269.3088	281.4058	303.7014	383.555	406.3095	431.7637	488.5288	568.3039	763.2175	823.4212	860.1907	908.6966	1005.8126	1046.9968	1052.7707	1056.8242	1081.8778	1127.7139	1171.4998	1188.4001	1202.8032	1267.6419	1328.0963	1348.0989	1372.2295	1413.6751	1415.7894	1422.8185	1448.1869	1469.7233	1478.3809	1478.9895	1829.825	2376.8026	2916.5625	2988.9545	2998.1157	3027.518	3038.2921	3058.0679	3087.861	3089.1989	3094.9685	3796.089
CC#CCC(O)CC=O	CC#CC[C@@H](O)CC=O	
InChI=1S/C7H10O2/c1-2-3-4-7(9)5-6-8/h6-7,9H,4-5H2,1H3	InChI=1S/C7H10O2/c1-2-3-4-7(9)5-6-8/h6-7,9H,4-5H2,1H3/t7-/m1/s1
