16
gdb 74895	2.90808	1.69983	1.16037	2.4659	73.5	-0.2323	-0.0417	0.1907	1025.2205	0.126658	-434.061987	-434.054548	-434.053604	-434.093997	29.319	
N	 0.0375066891	 1.2925662259	 0.2243207163	-0.55416
C	-0.0003404579	-0.0809790165	 0.0449428943	 0.258642
N	-1.1267452611	-0.6824545271	-0.0117407144	-0.29115
C	-1.1205240552	-2.1036045192	-0.1275718827	-0.020966
C	-0.7858749453	-2.7112467458	-1.4821252267	-0.31619
C	 0.1819473158	-2.8137068368	-0.337504844	 0.085201
O	 1.3718913684	-2.0563213342	-0.3456147171	-0.231239
C	 1.3483240386	-0.7573463941	 0.0215788126	 0.340489
N	 2.4613665739	-0.2140333747	 0.298515962	-0.487267
H	 0.7374116532	 1.7855567638	-0.3118850313	 0.25602
H	-0.8813389569	 1.7083221693	 0.1467874405	 0.259631
H	-1.8924936587	-2.5891907264	 0.4609281169	 0.1061
H	-1.302520848	-3.6117022272	-1.7950091216	 0.122808
H	-0.5490852065	-2.0099682203	-2.2748407566	 0.127776
H	 0.3661124277	-3.7823870259	 0.1140695645	 0.115491
H	 2.3243484029	 0.7533004091	 0.5814298874	 0.228815
72.3927	138.8761	337.915	351.4618	361.9331	446.3984	448.7519	512.9611	517.2979	551.3946	679.3921	710.6827	752.4862	786.8158	807.4615	844.9054	873.2718	921.3959	999.6476	1031.9355	1041.4723	1071.6723	1104.879	1127.4561	1173.0357	1231.43	1260.4264	1307.1166	1365.3908	1385.7893	1435.5571	1473.1351	1620.8393	1697.6803	1725.6549	3135.6794	3153.5838	3168.1535	3231.1112	3528.5996	3552.6073	3657.874
NC1=NC2CC2OC1=N	NC1=C(O[C@H]2[C@@H]([N]1)C2)[NH]	
InChI=1S/C5H7N3O/c6-4-5(7)9-3-1-2(3)8-4/h2-3,7H,1H2,(H2,6,8)	InChI=1S/C5H7N3O/c6-4-5(7)9-3-1-2(3)8-4/h2-3,7H,1H2,(H2,6,8)/t2-,3+/m0/s1
