15
gdb 84311	1.98058	1.88562	1.04769	6.0607	69.04	-0.2488	-0.0671	0.1817	1083.0263	0.111067	-457.790535	-457.782061	-457.781117	-457.824786	30.023	
O	 0.031287534	 1.4336506344	-0.1621342583	-0.422214
C	 0.0313569214	 0.0201749856	-0.0044486807	 0.049533
C	 0.5703854332	-0.4308986142	 1.3383155065	-0.081533
C	-0.2503838393	-1.2683332243	 1.9780874345	-0.172718
C	-1.4845188503	-1.4848826572	 1.1858616305	 0.358904
O	-2.3852523087	-2.2489921572	 1.4234028963	-0.311448
C	-1.4150537159	-0.5223625061	-0.032043083	-0.231056
C	-2.4591857515	 0.5771820587	 0.1483446508	 0.187872
O	-3.4337568162	 0.6808521097	-0.5451130113	-0.244951
H	 0.9340674282	 1.7293878483	-0.3151176072	 0.293701
H	 0.6144130467	-0.4489725862	-0.8112771373	 0.102165
H	 1.5399384766	-0.0969251403	 1.6943747751	 0.121928
H	-0.0851533889	-1.7561318277	 2.9303893096	 0.130824
H	-1.6681993919	-1.0622369467	-0.9454839989	 0.121841
H	-2.2668496974	 1.2654202031	 0.9952968134	 0.097153
36.5931	72.7443	183.8893	205.2598	237.3904	274.8471	350.2595	442.5033	486.4125	524.0471	641.0638	703.0985	755.8036	803.9042	864.7063	890.5483	997.1648	1014.1203	1023.9551	1068.451	1086.6133	1124.9644	1163.6556	1208.6356	1213.8457	1284.5722	1322.9772	1354.7248	1411.4258	1426.5596	1653.234	1808.5436	1845.2447	2932.2421	2985.3319	3113.7825	3186.0827	3226.9358	3826.6452
OC1C=CC(=O)C1C=O	O[C@H]1C=CC(=O)[C@H]1C=O	
InChI=1S/C6H6O3/c7-3-4-5(8)1-2-6(4)9/h1-5,8H	InChI=1S/C6H6O3/c7-3-4-5(8)1-2-6(4)9/h1-5,8H/t4-,5-/m0/s1
