20
gdb 40514	3.09995	1.38842	1.19608	2.5814	78.64	-0.2314	0.0689	0.3003	1109.1648	0.17152	-403.074282	-403.066314	-403.06537	-403.107123	31.007	
C	 1.2695855325	-0.2870770516	-0.5869823668	-0.234401
C	 0.2104930216	-1.2033454913	-1.0893779183	-0.239159
N	-0.0981250037	-0.2030436712	-0.0735681381	-0.143203
C	-0.3408346813	-0.6100639235	 1.2854022327	 0.311552
C	 0.3163336695	-1.8655381448	 1.9562829849	-0.307285
C	-1.0961632167	-2.3443702423	 2.4192586398	-0.230238
C	-1.7341244171	-1.0801672868	 1.8027350087	 0.075028
O	-1.803172188	 0.0160424882	 2.7349866353	-0.291081
C	-0.5445769533	 0.558834465	 2.2709069704	-0.109246
H	 2.0320291795	-0.7213990829	 0.0567812576	 0.117156
H	 1.6016173294	 0.5578552615	-1.1831199757	 0.120706
H	-0.2520295222	-1.0305490325	-2.0569293521	 0.12081
H	 0.2759097	-2.2502099382	-0.8015675842	 0.115405
H	 0.7968658728	-2.5544452212	 1.258129215	 0.104543
H	 1.0321138518	-1.6375266254	 2.750151514	 0.100995
H	-1.4140942598	-3.2719679199	 1.9350493215	 0.100516
H	-1.2507144522	-2.4327507972	 3.4961634394	 0.112979
H	-2.6358818663	-1.1731135476	 1.1921927972	 0.076527
H	 0.1890634563	 0.6629018808	 3.0802488842	 0.092071
H	-0.682610093	 1.5220393209	 1.7663353446	 0.106326
80.079	84.6039	187.3722	251.8374	325.567	364.2678	409.7334	466.5302	575.0519	669.4965	741.7625	799.9866	837.5899	870.9589	886.5387	899.2641	937.0151	948.2388	964.8666	1002.783	1029.9316	1032.7751	1098.2383	1111.7288	1117.4376	1119.8452	1134.1966	1168.3614	1175.2001	1186.2699	1206.3127	1209.2126	1243.2934	1264.1866	1275.516	1309.5256	1343.6008	1382.6633	1461.9587	1480.2508	1497.2936	1516.5082	1521.0117	3011.9422	3057.7292	3062.487	3066.8296	3080.7794	3101.9061	3104.8324	3107.5366	3128.0995	3181.7391	3195.6777
C1CN1C12CCC1OC2	C1CN1[C@]12CC[C@H]1OC2	
InChI=1S/C7H11NO/c1-2-7(8-3-4-8)5-9-6(1)7/h6H,1-5H2	InChI=1S/C7H11NO/c1-2-7(8-3-4-8)5-9-6(1)7/h6H,1-5H2/t6-,7+/m1/s1
