17
gdb 107697	3.19804	1.36803	1.13353	1.7625	68.38	-0.2429	0.049	0.292	1100.5108	0.133179	-458.848616	-458.84033	-458.839386	-458.881473	31.443	
C	 0.1881990498	 1.3441753692	-0.200184756	-0.535904
C	 0.0535302188	-0.1286475391	-0.0138072236	 0.417316
O	 0.5679415532	-1.0468821652	-1.0316807569	-0.385307
C	 0.0141348307	-1.9637326596	-0.0342003115	 0.413141
C	 0.1571666834	-3.4295128385	-0.2897890765	-0.218434
O	 1.5212250488	-3.7936893928	-0.3989946467	-0.411872
C	 0.4238976762	-1.0709572934	 1.180025236	-0.047026
O	-0.9128115106	-1.0502933562	 1.7589280513	-0.331314
C	-1.1841139589	-1.0312190972	 0.3303389867	-0.067411
H	 1.2417821038	 1.6294002224	-0.275637042	 0.139272
H	-0.3252409634	 1.6679564653	-1.1103902989	 0.13911
H	-0.2549517235	 1.8608429138	 0.6564327526	 0.144911
H	-0.264108764	-3.9870791706	 0.5528482464	 0.131196
H	-0.4122847811	-3.6982496966	-1.1936636695	 0.102987
H	 1.9169581692	-3.1942426987	-1.0424729645	 0.296336
H	 1.2919704004	-1.1027152217	 1.8374110119	 0.109423
H	-2.2167978627	-1.0087742511	-0.0181404888	 0.103575
88.911	127.774	214.1231	218.6978	251.5139	285.9785	369.5945	423.9751	534.4886	571.5751	645.3185	703.2119	753.1357	761.2005	789.2948	843.7514	860.4169	922.0502	973.8822	1029.9694	1036.7947	1073.5194	1089.9247	1109.7487	1141.3674	1161.5282	1166.4215	1243.5977	1273.6776	1282.9741	1369.5926	1395.0332	1424.1604	1461.4404	1475.4113	1489.0814	1490.2301	2983.3872	3042.0257	3085.0014	3115.748	3121.0833	3123.8027	3135.4933	3798.7335
CC12OC3(CO)C1OC23	C[C@@]12O[C@@]3(CO)[C@@H]1O[C@@H]23	
InChI=1S/C6H8O3/c1-5-3-6(2-7,9-5)4(5)8-3/h3-4,7H,2H2,1H3	InChI=1S/C6H8O3/c1-5-3-6(2-7,9-5)4(5)8-3/h3-4,7H,2H2,1H3/t3-,4+,5-,6+
