17
gdb 17044	5.14742	1.30013	1.23536	2.0104	69.7	-0.2478	0.0022	0.25	1027.8364	0.142567	-363.808298	-363.800846	-363.799902	-363.84021	27.934	
C	-0.1445852034	 1.5347936563	 0.052094446	-0.379864
C	 0.1423561479	 0.0354115392	-0.0869081357	-0.22159
C	 0.8104041793	-0.5443072486	 1.1535683736	 0.059731
C	-0.0617770165	-0.8499683912	 2.4168369813	-0.167631
N	-0.6349823999	-2.0281525002	 1.62906752	-0.313729
C	 0.8634753145	-2.0956163848	 1.3280912673	-0.181984
C	 1.0476796976	-1.8394570584	 2.8412219294	 0.440256
O	 1.5812331824	-2.2877304718	 3.8077632204	-0.326878
H	 0.7716864659	 2.1024684886	 0.2497751738	 0.114465
H	-0.5915724619	 1.9342065266	-0.8631824559	 0.117174
H	-0.8406074864	 1.7318320826	 0.8744243946	 0.11823
H	-0.7813761241	-0.5100294836	-0.2934103641	 0.126756
H	 0.8090134056	-0.1298477654	-0.9429631387	 0.098142
H	 1.7530092699	-0.0348783717	 1.3769804921	 0.084865
H	-0.6951398457	-0.1825798389	 2.9982644808	 0.10042
H	-0.9178413603	-2.7860044757	 2.2567959083	 0.232094
H	 1.2847385551	-2.847227803	 0.6627039767	 0.099544
91.6261	136.4432	173.0049	233.6687	333.5474	367.8512	485.8019	539.3173	691.5075	735.0107	774.2796	799.3911	811.1647	857.5137	903.7742	959.477	990.8153	1051.9428	1060.6782	1068.0464	1122.8934	1128.3335	1136.1798	1178.7248	1199.6953	1203.4357	1265.1025	1277.0725	1296.161	1347.8609	1409.8148	1419.9445	1488.6777	1500.9187	1505.5067	1905.9711	3028.988	3031.8141	3064.2417	3088.4647	3106.3719	3113.9385	3139.9825	3144.2132	3410.2967
CCC1C2NC1C2=O	CC[C@H]1[C@H]2N[C@@H]1C2=O	
InChI=1S/C6H9NO/c1-2-3-4-6(8)5(3)7-4/h3-5,7H,2H2,1H3	InChI=1S/C6H9NO/c1-2-3-4-6(8)5(3)7-4/h3-5,7H,2H2,1H3/t3-,4+,5-
