18
gdb 88850	3.44271	1.22612	1.05911	1.8285	72.63	-0.252	0.0171	0.2691	1167.8441	0.148149	-439.075128	-439.066783	-439.065839	-439.109103	30.183	
C	 0.1005585913	 1.5346195457	-0.3016674072	-0.428187
C	 0.0318590816	 0.0836376799	 0.0954097215	 0.077871
O	 1.246946277	-0.6886782183	 0.0900544066	-0.262913
C	 0.5599751458	-0.5246418479	 1.3284660589	 0.051314
C	 1.3097454365	 0.1341909974	 2.4737203252	-0.038179
C	 2.4282594282	-0.8078848578	 3.0231478966	-0.12085
O	 3.6388877544	-0.0239284573	 2.9060045757	-0.215119
C	 3.2507892983	 1.1563158505	 2.3794077007	 0.12814
N	 2.0300351923	 1.3689466144	 2.1180629181	-0.25698
H	 0.9303161292	 2.0417083649	 0.1869017744	 0.16363
H	 0.2079413878	 1.6127581451	-1.3891236687	 0.119083
H	-0.8335562414	 2.0365079778	-0.0248688954	 0.114856
H	-0.8033176867	-0.4585779052	-0.3568794483	 0.085268
H	 0.0501865061	-1.4322777011	 1.6702280454	 0.084379
H	 0.5737865521	 0.3660712729	 3.2538171901	 0.095844
H	 2.2990846179	-1.0789589598	 4.0736042277	 0.120986
H	 2.5513259723	-1.713790402	 2.4238870601	 0.134369
H	 4.0572792272	 1.8648435209	 2.2261309885	 0.146488
54.4306	61.3592	166.5768	202.0183	224.9384	274.9149	391.1341	470.5493	496.4282	687.0859	726.687	775.632	785.2461	879.9433	890.2148	957.1492	966.8995	972.5445	993.8901	1033.5233	1047.0612	1088.4439	1124.2938	1144.1909	1183.0483	1192.0669	1226.4142	1288.6233	1307.4642	1325.1186	1355.8845	1384.4623	1396.1861	1422.5257	1468.8447	1496.9228	1510.028	1516.7898	1709.1296	3023.3163	3036.1034	3042.8394	3062.632	3069.1643	3092.3589	3113.9497	3174.0703	3216.7423
CC1OC1C1COC=N1	C[C@H]1O[C@H]1[C@H]1COC=N1	
InChI=1S/C6H9NO2/c1-4-6(9-4)5-2-8-3-7-5/h3-6H,2H2,1H3	InChI=1S/C6H9NO2/c1-4-6(9-4)5-2-8-3-7-5/h3-6H,2H2,1H3/t4-,5-,6-/m1/s1
