18
gdb 18119	4.20775	1.9419	1.43696	1.7064	73.57	-0.2259	0.0171	0.2429	886.0225	0.156507	-347.817636	-347.810913	-347.809969	-347.848646	26.206	
C	 0.0200928341	 1.5150319388	 0.1286468901	-0.209706
C	 1.5118814245	 1.9304767227	 0.0128293333	-0.237686
C	 2.0541704854	 0.9080354189	-0.9980454322	 0.084179
O	 3.4418967964	 0.619439739	-0.9761431632	-0.284396
C	 3.6102435447	-0.799952105	-0.8725892326	-0.111328
C	 2.255616719	-1.3347074518	-0.4633538891	-0.274107
C	 1.365231861	-0.3551232421	-0.5528795815	 0.342839
C	-0.0210924579	-0.0420190472	-0.0698507342	-0.330398
H	-0.4208314647	 1.822975895	 1.0796419384	 0.104682
H	-0.5626660655	 2.0013828931	-0.6603823294	 0.10612
H	 1.6380092303	 2.9729807968	-0.2902504962	 0.09757
H	 2.0334519554	 1.7838507766	 0.9648818377	 0.106323
H	 1.7519966872	 1.2091545896	-2.0181605969	 0.070035
H	 3.9629976648	-1.2130585597	-1.8332512632	 0.09854
H	 4.3872329738	-1.0138094386	-0.1253470232	 0.107575
H	 2.104199957	-2.344620633	-0.1028363029	 0.098687
H	-0.2510751589	-0.5738860361	 0.858096276	 0.11686
H	-0.7948516267	-0.323633377	-0.792684751	 0.11421
91.2223	165.38	231.9305	340.642	389.5493	559.0394	615.2267	654.0024	738.9591	787.4283	824.5585	845.6727	888.4919	904.9503	939.0169	975.1992	992.1001	1016.5737	1042.1365	1064.0267	1123.7808	1156.2612	1178.1578	1186.9374	1197.4124	1228.4952	1264.4613	1289.2053	1300.4418	1330.5227	1346.0024	1366.2923	1388.6972	1477.1789	1490.9324	1505.3742	1520.7788	1744.7368	2925.7454	2954.6891	3014.7733	3038.9645	3050.1447	3054.3591	3077.7082	3100.005	3110.2121	3210.2604
C1CC2OCC=C2C1	C1C[C@H]2OCC=C2C1	
InChI=1S/C7H10O/c1-2-6-4-5-8-7(6)3-1/h4,7H,1-3,5H2	InChI=1S/C7H10O/c1-2-6-4-5-8-7(6)3-1/h4,7H,1-3,5H2/t7-/m1/s1
