16
gdb 27696	2.81005	1.3347	0.91517	0.5637	84.5	-0.2189	-0.022	0.1969	1249.3598	0.122462	-400.773287	-400.764281	-400.763337	-400.807116	32.371	
C	 0.0944107219	 1.4258648843	-0.0054864934	-0.499088
C	-0.0416368634	-0.0531460513	-0.0162837203	 0.376
N	-1.1257610494	-0.7608526927	-0.1196096374	-0.336531
C	-0.7033838075	-2.0809801505	-0.0767431498	 0.157962
C	-1.6510350039	-3.2253448948	-0.166048256	-0.503629
C	 0.6571718911	-2.1011101397	 0.0541188268	 0.118882
O	 1.0878909652	-0.7876170415	 0.0934107241	-0.208457
C	 1.6033520622	-3.1312160093	 0.1468283587	 0.247323
C	 2.3984763522	-4.033591787	 0.224829939	-0.426832
H	 0.7252408058	 1.7671456864	-0.8327370079	 0.149997
H	-0.8947023229	 1.8737120159	-0.1006276147	 0.158591
H	 0.5576889791	 1.7698148796	 0.9249721749	 0.149992
H	-2.2133926042	-3.1903094917	-1.1051746987	 0.142125
H	-1.1165582743	-4.1763484193	-0.1134428183	 0.136674
H	-2.3816549681	-3.1878330978	 0.6489537066	 0.142119
H	 3.1007528663	-4.8269694206	 0.2938403764	 0.19487
101.8844	123.9443	133.2491	138.234	207.5499	256.9017	314.6004	370.8139	468.3381	523.4852	543.1516	579.5028	631.1611	691.127	692.5103	714.9641	789.2479	980.7542	997.8975	1051.3618	1064.9166	1066.3116	1117.3529	1240.0296	1295.6305	1367.9667	1410.8956	1421.3449	1475.3446	1476.5205	1478.8175	1483.9915	1606.9551	1635.6103	2227.7095	3038.9278	3045.7214	3093.8113	3100.7345	3131.9183	3160.5037	3503.0775
CC1=NC(C)=C(O1)C#C	Cc1nc(C)c(o1)C#C	
InChI=1S/C7H7NO/c1-4-7-5(2)8-6(3)9-7/h1H,2-3H3	InChI=1S/C7H7NO/c1-4-7-5(2)8-6(3)9-7/h1H,2-3H3
