18
gdb 51670	4.9952	0.85657	0.80898	2.5282	73.44	-0.2298	-0.0287	0.2011	1403.7959	0.146381	-439.02918	-439.020845	-439.019901	-439.063341	30.121	
O	-0.3419099658	 0.0591256843	 0.304654688	-0.234006
C	-0.0389203663	 1.1952575595	 0.0535831825	 0.157694
C	 1.3883839906	 1.6772725291	-0.171860796	-0.245132
N	 1.4309309265	 2.7308384462	-1.154787253	-0.094442
C	 1.4451583413	 2.3628376042	-2.5962699507	-0.199042
C	 2.5737206199	 3.3834788926	-2.8366165473	 0.106822
O	 2.1288473564	 4.7428423847	-2.9919229343	-0.294483
C	 2.3289633288	 5.0275795491	-1.5821147953	-0.073532
C	 2.654564346	 3.5520784423	-1.2997152826	-0.0447
H	-0.793840547	 2.0095407102	-0.0263019746	 0.08614
H	 1.7267538984	 2.0875251946	 0.7914244861	 0.129673
H	 2.0226195536	 0.8014431128	-0.3979067764	 0.105333
H	 1.7799067906	 1.3284107644	-2.7702502123	 0.099689
H	 0.5050356581	 2.5378074752	-3.1281408067	 0.119491
H	 3.3866710169	 3.1212963882	-3.5160130171	 0.088738
H	 3.1666136513	 5.7220690173	-1.4367626879	 0.10054
H	 1.426393011	 5.413943305	-1.0981470014	 0.110623
H	 3.5015108099	 3.2884724704	-0.6629998709	 0.080593
53.4233	69.3294	109.9784	199.7457	270.9131	328.7636	385.7128	412.081	499.3262	683.7911	739.6431	791.7757	821.0046	857.2955	934.8951	958.9584	985.3221	1007.2995	1024.1513	1043.1904	1073.9847	1076.2003	1130.6664	1163.4408	1165.4708	1196.3356	1212.8097	1227.9412	1263.5959	1292.0861	1316.9856	1334.2213	1353.7185	1364.6415	1403.004	1454.207	1492.961	1505.5975	1839.3023	2887.984	2947.5192	2985.4305	3014.427	3025.0052	3080.3087	3083.0481	3087.4844	3098.9339
O=CCN1CC2OCC12	O=CCN1C[C@H]2OC[C@@H]12	
InChI=1S/C6H9NO2/c8-2-1-7-3-6-5(7)4-9-6/h2,5-6H,1,3-4H2	InChI=1S/C6H9NO2/c8-2-1-7-3-6-5(7)4-9-6/h2,5-6H,1,3-4H2/t5-,6-/m1/s1
