21
gdb 122503	4.21569	0.57058	0.52667	2.7772	81.67	-0.2452	-0.0166	0.2286	2052.2564	0.18059	-424.219752	-424.209462	-424.208518	-424.25629	36.327	
O	-0.1197017386	 1.4825416051	-0.3523838705	-0.420927
C	 0.0012846225	 0.1236586373	 0.0376888573	-0.076808
C	-1.372164431	-0.5224693916	-0.0882250399	-0.159688
C	-1.371115808	-2.0042029263	 0.3082256896	-0.226438
C	-2.754133485	-2.6175647331	 0.1993227221	 0.005888
C	-3.2449573059	-3.2433953661	-1.0614915972	-0.296689
C	-3.0053505126	-4.1277921421	 0.1600768174	-0.122761
C	-1.8903153702	-5.0980999909	 0.1263082614	 0.165358
O	-1.8954020964	-6.162419843	 0.6961237639	-0.271862
H	 0.7430194115	 1.8986189018	-0.2680479695	 0.286543
H	 0.7242403069	-0.4122913659	-0.5997176585	 0.0845
H	 0.3590067092	 0.0359518064	 1.0768978896	 0.085828
H	-2.0770667253	 0.0354089303	 0.540401584	 0.107239
H	-1.7195275422	-0.409939827	-1.1218954387	 0.110715
H	-0.6624138224	-2.5483486133	-0.326852294	 0.100337
H	-1.0048982705	-2.1105149609	 1.337982337	 0.107392
H	-3.5060838082	-2.0890557862	 0.7808056097	 0.100909
H	-4.272484107	-3.1006627729	-1.3751864863	 0.128313
H	-2.5374965869	-3.3468348143	-1.8795564711	 0.12236
H	-3.8738009367	-4.4893274268	 0.6999337502	 0.106349
H	-1.0167737032	-4.7885994906	-0.4927716863	 0.063443
52.6335	71.329	91.747	124.5049	138.1501	221.1982	253.9605	266.2866	324.4292	375.0472	414.8171	480.8385	548.9924	759.8716	802.7575	842.6409	858.5594	875.8281	938.3769	976.0187	1020.4073	1047.684	1050.3948	1065.5682	1075.3359	1092.5185	1138.6393	1181.2316	1195.5674	1221.6954	1228.5895	1243.0839	1303.1882	1307.9903	1318.3187	1345.5535	1377.2701	1419.4088	1452.1232	1465.2084	1484.456	1491.8816	1501.9122	1529.3246	1814.3457	2860.4885	2957.0104	2982.2633	3019.442	3034.6516	3055.6062	3082.4985	3127.825	3135.1184	3176.6358	3218.12	3830.3172
OCCCC1CC1C=O	OCCC[C@H]1C[C@H]1C=O	
InChI=1S/C7H12O2/c8-3-1-2-6-4-7(6)5-9/h5-8H,1-4H2	InChI=1S/C7H12O2/c8-3-1-2-6-4-7(6)5-9/h5-8H,1-4H2/t6-,7-/m0/s1
