16
gdb 127586	3.43239	1.23651	0.91536	6.0818	76.83	-0.2257	-0.0261	0.1995	1215.4737	0.124958	-434.101382	-434.092597	-434.091653	-434.135071	31.249	
C	-0.064233886	 1.4280432416	-0.0139840755	-0.343562
N	-0.0181425499	-0.0155477272	 0.0220914619	-0.008678
N	 0.0162806111	-0.7345577858	-1.1506647501	-0.269724
C	 0.03381442	-1.9929769631	-0.7689761806	-0.058661
C	 0.0245821184	-2.1343148077	 0.6469774303	 0.046943
C	 0.0649433145	-3.3490703427	 1.4259671005	 0.061856
O	 0.0954923028	-4.4762844316	 0.9747632767	-0.298261
C	-0.0064668074	-0.8117635076	 1.1116758625	 0.319733
N	-0.0989996298	-0.292522625	 2.388987475	-0.605994
H	 0.9038217185	 1.8732841591	 0.246716597	 0.136399
H	-0.3211596273	 1.7192419359	-1.0316825925	 0.172572
H	-0.8279771866	 1.7987066868	 0.6765158113	 0.148623
H	 0.0559093137	-2.7885243683	-1.4984001482	 0.140746
H	 0.0717797669	-3.1921856516	 2.5338943007	 0.028413
H	 0.0529109786	-0.9752210838	 3.1174168742	 0.268122
H	 0.4412860826	 0.5456910411	 2.5554610566	 0.261473
87.2093	103.8446	165.616	193.2867	218.7154	272.7314	287.6777	329.5436	390.1124	531.7755	617.5363	657.9171	673.397	727.4173	770.0943	818.1176	909.4675	973.0721	1027.2762	1038.5681	1149.9333	1195.6009	1220.8447	1243.7114	1290.5893	1427.3339	1434.6055	1449.6883	1484.3387	1495.3581	1505.8279	1575.8263	1589.8064	1661.7204	1778.29	2800.0882	3025.3002	3092.2062	3165.9893	3258.6785	3556.7801	3654.2567
CN1N=CC(C=O)=C1N	Cn1ncc(C=O)c1N	
InChI=1S/C5H7N3O/c1-8-5(6)4(3-9)2-7-8/h2-3H,6H2,1H3	InChI=1S/C5H7N3O/c1-8-5(6)4(3-9)2-7-8/h2-3H,6H2,1H3
