18
gdb 82715	2.41457	1.97996	1.53101	2.6236	75.61	-0.2077	-0.0218	0.186	936.7243	0.148379	-401.906475	-401.899071	-401.898127	-401.938258	29.05	
C	-0.273689227	 1.4891706034	 0.122047253	-0.335717
N	 0.092538313	 0.093495986	-0.0197154539	-0.05596
C	 0.7365887992	-0.4197085066	-1.2422539141	-0.010968
C	 2.0307058569	 0.3228553535	-1.6825834817	-0.252583
C	 2.8146722032	-0.3830601834	-0.5358302497	-0.175976
C	 1.5981232434	-1.3711592892	-0.3525259971	-0.055706
C	 1.0940808207	-0.5288070751	 0.8713289203	-0.14746
C	 2.4549045604	 0.2107155377	 0.8356034014	 0.427015
O	 3.0483805079	 0.8988186856	 1.6168794019	-0.317585
H	 0.5665206482	 2.1968369801	 0.0270767279	 0.110732
H	-1.0205305661	 1.7405048945	-0.6387756555	 0.123836
H	-0.7288093274	 1.6429009065	 1.1059845532	 0.130568
H	 0.0341030429	-0.7171964293	-2.02506285	 0.076205
H	 2.3721074941	-0.0422732976	-2.6563532402	 0.111961
H	 2.022930222	 1.4167328673	-1.7022741719	 0.110613
H	 3.8535369128	-0.6643120885	-0.7066865224	 0.09063
H	 1.6431752585	-2.4538256162	-0.3946310113	 0.086329
H	 0.7158042571	-0.8894732886	 1.83200864	 0.084065
99.566	166.428	196.4113	262.603	345.5252	438.4194	459.3679	547.3911	606.9583	704.1185	774.8564	821.4873	828.9789	843.7806	869.3627	917.8545	941.6408	973.9875	993.2043	1021.3832	1079.5727	1105.6175	1120.6281	1138.5953	1153.3255	1173.7776	1189.6798	1213.8966	1232.9464	1246.2607	1261.1086	1280.2665	1294.6453	1324.1663	1446.8994	1475.1078	1491.0053	1506.5407	1873.1438	2966.4385	3045.0302	3059.9192	3068.0997	3071.2842	3097.0937	3101.6261	3119.438	3181.4527
CN1C2CC3C2C1C3=O	CN1[C@H]2C[C@@H]3[C@H]2[C@H]1C3=O	
InChI=1S/C7H9NO/c1-8-4-2-3-5(4)6(8)7(3)9/h3-6H,2H2,1H3	InChI=1S/C7H9NO/c1-8-4-2-3-5(4)6(8)7(3)9/h3-6H,2H2,1H3/t3-,4+,5-,6+/m1/s1
