22
gdb 102610	1.92474	1.1269	0.75897	6.4268	79.38	-0.2441	0.0328	0.2769	1540.1534	0.193397	-441.524989	-441.514529	-441.513585	-441.56118	37.475	
C	 0.7656897259	-0.337886479	-1.4425254351	-0.386994
C	 0.0794661376	 0.0177523796	-0.1190575721	-0.189839
C	-1.3938778127	-0.4223221827	-0.0227389258	 0.031439
C	-1.5393037051	-1.9544477495	 0.0501358919	-0.352848
C	-2.9752136678	-2.4906900122	-0.0257746359	 0.39493
O	-3.8884068149	-1.7757156241	 0.6429491163	-0.373623
O	-3.2570793739	-3.496478969	-0.6234954811	-0.334891
N	-2.1075031734	 0.1711799644	 1.1317698016	-0.30752
H	-3.4274245055	-0.9775371641	 1.0200181115	 0.306098
H	-1.56237351	 0.0142642806	 1.975714161	 0.228378
C	-2.4412309333	 1.5917524379	 1.0121406032	-0.334715
H	 1.7862545115	 0.0552502193	-1.4660316699	 0.120581
H	 0.8274826354	-1.4185787083	-1.5981165464	 0.130949
H	 0.2253764373	 0.090632275	-2.2937244971	 0.122668
H	 0.6341521649	-0.4263906735	 0.7194423463	 0.095738
H	 0.1294897436	 1.1040241118	 0.0199551187	 0.101693
H	-1.9229089789	-0.0647972834	-0.9167768259	 0.097851
H	-0.9838102627	-2.4393065997	-0.7529804708	 0.136911
H	-1.101705737	-2.3060101008	 0.9959478554	 0.119022
H	-2.9450061958	 1.9184615793	 1.9256075705	 0.134007
H	-1.5747014628	 2.2471133821	 0.8453706385	 0.11801
H	-3.1365029425	 1.7268670963	 0.1780272452	 0.142154
63.3156	78.5085	93.414	130.1055	188.4008	202.6695	224.0645	283.1301	306.3697	368.3752	402.2009	460.4419	512.9398	605.1781	699.5843	763.2568	786.3161	875.5562	887.3074	916.5379	988.8463	994.3159	1020.1699	1055.3231	1095.5786	1102.9443	1148.6397	1161.5177	1173.609	1245.7013	1271.4258	1297.256	1320.9638	1337.4625	1374.647	1387.3673	1416.6261	1455.8324	1458.7637	1481.0585	1484.3636	1491.6713	1501.4157	1506.6774	1515.6214	1522.1613	1857.9283	3000.4251	3009.892	3012.1816	3028.0549	3038.9254	3057.5463	3081.72	3105.3215	3113.7273	3119.4054	3134.6094	3177.8565	3496.3927
CCC(CC([O-])=O)[NH2+]C	CC[C@@H](CC(=O)O)NC	
InChI=1S/C6H13NO2/c1-3-5(7-2)4-6(8)9/h5,7H,3-4H2,1-2H3,(H,8,9)	InChI=1S/C6H13NO2/c1-3-5(7-2)4-6(8)9/h5,7H,3-4H2,1-2H3,(H,8,9)/t5-/m0/s1
