19
gdb 101545	3.37769	0.75183	0.67888	1.9906	73.11	-0.2521	-0.0954	0.1567	1651.9683	0.155026	-460.178876	-460.168254	-460.16731	-460.215738	36.535	
C	 0.1449765752	 1.6012463986	-0.1809102923	-0.400009
C	 0.008000939	 0.0831103813	-0.0064016602	 0.036335
C	 0.5742207134	-0.3762057689	 1.3384311786	-0.084461
O	 1.95045178	-0.0358065478	 1.3805763466	-0.420979
C	-1.4459996722	-0.3818391827	-0.1428770618	-0.32291
C	-1.9933263076	-0.3188755404	-1.5487614925	 0.282976
O	-1.3494939436	-0.0867607034	-2.5460570344	-0.275782
C	-3.4954296351	-0.5977896609	-1.7231844362	 0.097433
O	-4.2456044573	-0.8152855995	-0.8089479936	-0.21954
H	 1.1851846182	 1.9024625696	-0.0432159261	 0.138167
H	-0.1777409681	 1.9130595394	-1.1770572347	 0.127425
H	-0.4623094807	 2.13502797	 0.5610479604	 0.103169
H	 0.5965869066	-0.4077041833	-0.7907412469	 0.102705
H	 0.0180246339	 0.1080650496	 2.1591895611	 0.083863
H	 0.4333697798	-1.4645220271	 1.4455250191	 0.082346
H	 2.2883422901	-0.2451529257	 2.2557794215	 0.288676
H	-1.5655708202	-1.4271179881	 0.1821237454	 0.134222
H	-2.1239981866	 0.1827623621	 0.5108166319	 0.137885
H	-3.8127800248	-0.5723803029	-2.7873304559	 0.108479
36.3436	72.3463	113.3108	128.222	138.737	215.221	239.3161	243.587	268.2341	331.2067	414.9245	461.7653	465.4612	519.7265	654.2526	816.9386	821.9055	870.1931	929.2596	962.6243	996.8765	1079.1147	1098.1789	1122.6512	1146.941	1175.9906	1232.4872	1249.7108	1274.7135	1314.4156	1363.4286	1375.3232	1390.9796	1402.2793	1435.1822	1460.2575	1497.6835	1506.7079	1520.6443	1802.3	1825.3448	2922.4197	2951.6909	2979.6223	3006.6199	3029.1972	3041.9871	3057.4351	3108.6216	3139.2816	3836.8275
CC(CO)CC(=O)C=O	C[C@@H](CO)CC(=O)C=O	
InChI=1S/C6H10O3/c1-5(3-7)2-6(9)4-8/h4-5,7H,2-3H2,1H3	InChI=1S/C6H10O3/c1-5(3-7)2-6(9)4-8/h4-5,7H,2-3H2,1H3/t5-/m1/s1
