25
gdb 68073	2.37099	1.61912	1.17662	0.1322	92.16	-0.2702	0.077	0.3472	1194.8427	0.230679	-352.376178	-352.367357	-352.366413	-352.408555	36.649	
C	-0.0582143482	 1.5523537074	 0.0295902007	-0.477105
C	 0.0217402166	 0.0358691078	-0.0213548504	 0.346441
C	 1.1290456283	-0.6303019314	-0.8977873492	-0.297517
C	 1.1752216154	-1.7693826141	 0.169176446	 0.346438
C	 2.5017353734	-2.4540830858	 0.4524802072	-0.477103
C	 0.6612680739	-0.7093098805	 1.1855748615	-0.274973
C	 0.0354863358	-2.7769363041	-0.0878288803	-0.235445
C	-1.1897341531	-2.0950643027	-0.7381685707	-0.220014
C	-1.3450419859	-0.6163520042	-0.3158614137	-0.235446
H	 0.9115824048	 1.9929919109	 0.2855499269	 0.104929
H	-0.3709175497	 1.9673004247	-0.9361420181	 0.109414
H	-0.7845666345	 1.8848148036	 0.7813237542	 0.109957
H	 0.9000184455	-0.8862995183	-1.9368209985	 0.083919
H	 2.0505044455	-0.0393097136	-0.8767840557	 0.084078
H	 3.2860732359	-1.7231132726	 0.67760315	 0.104929
H	 2.4211441878	-3.1320460005	 1.3110217351	 0.109958
H	 2.8341960943	-3.0491527515	-0.4065680837	 0.109412
H	 1.487770504	-0.13550206	 1.6186714453	 0.081167
H	-0.0013708429	-1.0478059961	 1.990040944	 0.079265
H	 0.3863398106	-3.5880928997	-0.7378749554	 0.086177
H	-0.2353947356	-3.2441006568	 0.8680935575	 0.091398
H	-1.0652536995	-2.130284782	-1.8254895238	 0.101851
H	-2.1046837974	-2.6573256147	-0.5263481616	 0.090693
H	-1.9715176962	-0.5269858761	 0.5813275119	 0.091398
H	-1.8645589187	-0.0653489297	-1.1096693592	 0.086177
189.3781	213.2028	213.8928	229.2741	250.4267	285.0893	353.7907	413.6952	421.9714	429.2712	449.9665	546.0506	592.4725	698.0847	772.9384	832.053	866.7571	870.3527	893.4944	908.8302	919.1786	936.2618	982.0052	1005.1975	1029.5309	1052.9268	1070.5817	1071.7924	1094.716	1102.1258	1204.6066	1215.1892	1224.5182	1238.4308	1250.7076	1275.0276	1289.8295	1303.0356	1304.6611	1366.9807	1377.2535	1378.3991	1411.7601	1412.8539	1475.2297	1488.2052	1488.7364	1492.7753	1494.0825	1496.7437	1497.5176	1500.0626	1525.1666	3011.8277	3012.1295	3016.4923	3017.1205	3026.5139	3034.9859	3041.6439	3048.1588	3053.9978	3077.9471	3079.1896	3079.2146	3082.4559	3087.5899	3087.7586	3092.4319
CC12CC(C)(C1)CCC2	C[C@@]12C[C@@](C)(C1)CCC2	
InChI=1S/C9H16/c1-8-4-3-5-9(2,6-8)7-8/h3-7H2,1-2H3	InChI=1S/C9H16/c1-8-4-3-5-9(2,6-8)7-8/h3-7H2,1-2H3/t8-,9+
