15
gdb 20361	6.25108	1.44388	1.29205	3.1104	67.11	-0.2427	0.015	0.2577	934.9114	0.122313	-358.860928	-358.854335	-358.853391	-358.892344	24.456	
C	 0.8594281249	 1.4722736179	 0.3594787953	-0.253768
C	 0.9724504564	 0.3108259966	-0.5783801224	-0.25378
C	-0.2699379525	 0.4610394999	 0.2805560267	-0.127098
C	-0.4742315323	-0.4646897667	 1.4024370286	 0.417334
N	 0.4623488214	-0.9997404157	 2.1726876442	-0.331928
C	-0.2522392331	-1.7670879604	 3.040929822	 0.02639
N	-1.5619732275	-1.7512000786	 2.8688618165	-0.219044
N	-1.6841334498	-0.9069758897	 1.8105137215	-0.263894
H	 1.4575045562	 1.4479888687	 1.2626011367	 0.143901
H	 0.6738061179	 2.458814599	-0.0498260208	 0.11744
H	 0.865871691	 0.4860272391	-1.6428942901	 0.117423
H	 1.6462675467	-0.4920098633	-0.3039010716	 0.144036
H	-1.1796825549	 0.7766353786	-0.2197700352	 0.084782
H	 0.2074960684	-2.3549326437	 3.8215043766	 0.123112
H	-2.5968706628	-0.6949916517	 1.4427878718	 0.275095
52.5736	173.1469	185.1148	403.4586	405.497	548.7533	661.1573	692.883	760.221	793.8907	824.9843	912.1351	913.4462	915.7529	983.4678	1033.7751	1068.2597	1092.6105	1094.7301	1120.5485	1126.2444	1206.8495	1211.443	1229.956	1245.4266	1308.182	1394.3655	1420.657	1459.2884	1486.6238	1526.9573	1593.4851	3141.2066	3143.5668	3160.9875	3229.7926	3243.8313	3259.1748	3664.6158
C1CC1C1=NC=NN1	C1CC1c1ncn[nH]1	
InChI=1S/C5H7N3/c1-2-4(1)5-6-3-7-8-5/h3-4H,1-2H2,(H,6,7,8)	InChI=1S/C5H7N3/c1-2-4(1)5-6-3-7-8-5/h3-4H,1-2H2,(H,6,7,8)
