15
gdb 14334	4.77041	1.82346	1.54107	4.8979	60.43	-0.2575	0.0574	0.3149	819.2982	0.121332	-399.842686	-399.836254	-399.83531	-399.873541	24.534	
O	 0.0454021105	-0.0239146094	-0.3856932745	-0.38817
C	-0.0032405613	 1.1313646177	-0.0715152424	 0.471687
N	-1.1201164639	 1.9201349595	 0.0945384771	-0.365326
C	-0.825231253	 3.3130778756	 0.3212134305	-0.015787
C	-1.023983247	 3.8192221225	 1.7776042743	-0.235841
C	 0.448594851	 3.4218031761	 2.1025391188	-0.249839
C	 0.7059170574	 3.2007075964	 0.5880505098	 0.118024
O	 1.1088057929	 1.8933548773	 0.1983294484	-0.245021
H	-2.0070505187	 1.5722190184	-0.2268578329	 0.262299
H	-1.1845730019	 3.9592536173	-0.4859946208	 0.086193
H	-1.1911841921	 4.8988335933	 1.8125722547	 0.10991
H	-1.8078306234	 3.3202665175	 2.3500689802	 0.111811
H	 1.0640954856	 4.1804755341	 2.5891134292	 0.112233
H	 0.5381029342	 2.486484923	 2.6583284533	 0.128245
H	 1.3579517997	 3.9279364006	 0.1039349442	 0.099583
99.3689	120.5811	347.0096	392.4216	436.0372	513.1752	642.681	693.0296	745.9503	766.3918	772.7683	867.1211	915.0394	927.3222	945.115	958.8444	1033.3897	1091.9612	1116.0757	1146.6881	1184.0451	1216.1251	1240.7842	1260.7872	1274.1075	1291.3122	1355.8857	1393.1385	1418.1257	1468.6864	1486.587	1894.2818	3048.0953	3069.2571	3079.7909	3110.1392	3122.0959	3140.5104	3673.9198
O=C1NC2CCC2O1	O=C1N[C@H]2CC[C@H]2O1	
InChI=1S/C5H7NO2/c7-5-6-3-1-2-4(3)8-5/h3-4H,1-2H2,(H,6,7)	InChI=1S/C5H7NO2/c7-5-6-3-1-2-4(3)8-5/h3-4H,1-2H2,(H,6,7)/t3-,4+/m0/s1
