23
gdb 77524	2.31198	1.70523	1.24513	1.6263	85.4	-0.2293	0.0797	0.309	1135.5244	0.204938	-388.288999	-388.27976	-388.278816	-388.321922	36.732	
C	-0.1872775035	 1.5683444627	 0.0088342253	-0.440586
C	 0.0068033044	 0.0581467488	 0.0103383463	-0.036157
C	 0.7959164744	-0.5883530452	-1.191650322	 0.281502
C	 0.5506560637	-0.23654882	-2.6389323812	-0.507584
C	 2.1045040044	-0.2152723407	-0.4189311913	-0.324904
C	 1.2075151867	-0.5491215741	 0.8013049859	 0.441788
C	 1.5406328763	-0.2352859191	 2.231907008	-0.49722
O	 0.983793464	-1.968497029	 0.6342395043	-0.315579
C	 0.6875641771	-2.0623646569	-0.7739947813	-0.113466
H	 0.7280199581	 2.1244820971	-0.2124242516	 0.116318
H	-0.9355468864	 1.8606207533	-0.7363000084	 0.118043
H	-0.5507555728	 1.9100137223	 0.9843002455	 0.119253
H	-0.9450024287	-0.4336801237	 0.2437998554	 0.064745
H	 0.6300529092	 0.8422297498	-2.8073358569	 0.118693
H	 1.2788834514	-0.7285270866	-3.2941411317	 0.118285
H	-0.4492833138	-0.5511294212	-2.9606195539	 0.116347
H	 2.9859484221	-0.8456265816	-0.56686206	 0.092644
H	 2.3732754337	 0.8376636707	-0.5044453904	 0.096749
H	 1.6866070243	 0.8401794536	 2.3682622913	 0.116457
H	 0.73277997	-0.563587319	 2.8937828296	 0.125616
H	 2.4574784227	-0.7502840116	 2.5353984249	 0.126521
H	-0.3159149778	-2.480699526	-0.9263198077	 0.0914
H	 1.4196531607	-2.7093460635	-1.2747907701	 0.091137
179.285	193.9403	196.001	199.1917	211.8907	234.9321	300.8946	325.1609	384.1529	434.1093	485.2465	533.1236	583.8607	633.5768	674.9369	776.4306	814.0059	864.1325	886.7512	923.8115	968.8276	995.0202	1006.6493	1025.08	1039.2853	1078.4556	1115.5061	1135.4436	1144.5188	1169.5586	1194.2477	1200.9064	1238.261	1241.4286	1282.061	1330.9562	1369.3623	1388.1024	1410.0931	1413.6387	1421.214	1479.3421	1486.9551	1491.1492	1492.3706	1495.2962	1499.0645	1506.5546	1529.9593	3005.0137	3023.3531	3030.5228	3034.5157	3038.3826	3043.6499	3064.1603	3084.0699	3088.6142	3096.1658	3105.8169	3107.5538	3114.5838	3136.0701
CC1C2(C)CC1(C)OC2	C[C@H]1[C@@]2(C)C[C@]1(C)OC2	
InChI=1S/C8H14O/c1-6-7(2)4-8(6,3)9-5-7/h6H,4-5H2,1-3H3	InChI=1S/C8H14O/c1-6-7(2)4-8(6,3)9-5-7/h6H,4-5H2,1-3H3/t6-,7-,8-/m0/s1
