23
gdb 76440	2.79762	0.93644	0.86757	2.9511	86.92	-0.2404	-0.0185	0.2218	1479.7271	0.202236	-388.29759	-388.286535	-388.285591	-388.334126	39.568	
C	-0.1859720161	 1.1494735349	-1.7467891936	-0.416724
C	-0.054796438	-0.075235337	-0.8654391006	-0.048814
C	 1.277140121	-0.6231867691	-0.3888368482	-0.070685
C	 2.6095442377	 0.0025534587	-0.7449312536	-0.415791
C	 0.3066103366	-0.0192087569	 0.6132466492	 0.30054
C	 0.6225479542	 1.3036327043	 1.2912153275	-0.461458
C	-0.4203372881	-0.9948631969	 1.5353762158	-0.340589
C	-1.8038216309	-0.5090821642	 1.9167121169	 0.16541
O	-2.2342376448	-0.4505049702	 3.0399155555	-0.243725
H	 0.549989782	 1.9230353123	-1.5172464638	 0.117571
H	-0.0571936004	 0.8806085606	-2.8011231162	 0.11977
H	-1.1782128171	 1.6021348245	-1.6412223315	 0.119418
H	-0.7862839511	-0.841046864	-1.1172066464	 0.076818
H	 1.3296720638	-1.7097009333	-0.3542699483	 0.078007
H	 2.5645228636	 1.0903842889	-0.8297892593	 0.1166
H	 3.3679786384	-0.2364255913	 0.0088534291	 0.11976
H	 2.9683904401	-0.3825731748	-1.7058754735	 0.119765
H	 1.1368781981	 2.0071428311	 0.6354075317	 0.11753
H	-0.2912318107	 1.795144378	 1.6449130406	 0.124822
H	 1.2615243931	 1.141889264	 2.1671608414	 0.12208
H	-0.5522032359	-1.9555487872	 1.0173267505	 0.113234
H	 0.1442195866	-1.1860811722	 2.4546228843	 0.114466
H	-2.429513762	-0.1952363901	 1.0479274926	 0.071997
54.4527	64.3585	132.0929	150.8151	154.8156	167.0184	219.6984	245.6063	277.2348	302.4177	345.2518	418.2124	492.3608	530.3355	534.0398	689.066	774.4715	786.221	822.1419	933.4462	965.7425	998.2048	1007.6766	1039.8126	1048.2071	1062.3988	1109.0124	1120.0677	1146.8579	1163.9226	1188.0931	1213.3227	1253.0252	1302.4497	1346.5517	1374.7614	1416.2498	1418.6984	1425.6277	1430.5862	1450.2592	1459.6628	1481.7203	1490.6875	1493.8345	1503.3301	1504.4617	1523.1541	1832.4176	2853.0175	3010.5447	3030.0645	3032.757	3036.2956	3077.3859	3081.7224	3086.8155	3088.1218	3103.6294	3114.2137	3122.8657	3128.6782	3140.4999
CC1C(C)C1(C)CC=O	C[C@H]1[C@@H](C)[C@]1(C)CC=O	
InChI=1S/C8H14O/c1-6-7(2)8(6,3)4-5-9/h5-7H,4H2,1-3H3	InChI=1S/C8H14O/c1-6-7(2)8(6,3)4-5-9/h5-7H,4H2,1-3H3/t6-,7+,8+
