17
gdb 42890	2.35084	1.804	1.58161	1.9969	67.83	-0.2534	-0.0267	0.2268	935.4187	0.137248	-458.959285	-458.952123	-458.951179	-458.990743	28.144	
O	-0.0892373063	 0.0084489295	 0.2261835321	-0.289557
C	-0.0242254053	 1.1914247994	 0.1128467469	 0.403853
C	-1.021812248	 2.3533824068	-0.0344991632	-0.019174
C	-1.5454093991	 2.8927182213	 1.3016599609	-0.239817
C	-0.4175536368	 3.5027848601	 2.1502647458	-0.069375
O	 0.7024662131	 2.6364953381	 2.301927459	-0.255111
C	 1.6609539689	 2.6936427277	 1.2574538291	-0.098897
C	 1.0868062914	 2.242248452	-0.0817132228	-0.039569
O	 0.0669119601	 3.1626577257	-0.5587703933	-0.304216
H	-1.8197067863	 2.2074219147	-0.7699709065	 0.107819
H	-2.3041038782	 3.6640453833	 1.1252161976	 0.113182
H	-2.0328929011	 2.071271269	 1.8398932481	 0.12696
H	-0.0987356184	 4.4552162356	 1.708060622	 0.109671
H	-0.7876805311	 3.7013354684	 3.1607782715	 0.111288
H	 2.0651338821	 3.7123102669	 1.1491743193	 0.110397
H	 2.4728809569	 2.0222857645	 1.5549540855	 0.125893
H	 1.8635385481	 2.0533277269	-0.830224392	 0.106651
128.7518	202.2628	220.8513	317.3783	357.5332	396.163	464.7667	496.0786	617.7346	675.3034	731.3623	801.5169	855.406	860.4152	900.685	946.8433	960.5999	1018.6968	1041.0853	1059.1653	1078.865	1101.2761	1144.4151	1179.3071	1208.9726	1258.6312	1290.1604	1302.4369	1317.4487	1334.0474	1369.9151	1389.4775	1416.1669	1469.4465	1472.2447	1493.9879	1929.8731	2990.0623	3024.6252	3035.3855	3062.8699	3066.5964	3078.4881	3087.1727	3090.324
O=C1C2CCOCC1O2	O=C1[C@H]2CCOC[C@@H]1O2	
InChI=1S/C6H8O3/c7-6-4-1-2-8-3-5(6)9-4/h4-5H,1-3H2	InChI=1S/C6H8O3/c7-6-4-1-2-8-3-5(6)9-4/h4-5H,1-3H2/t4-,5+/m1/s1
