14
gdb 133813	4.9968	1.60349	1.24477	1.5676	84.64	-0.2136	-0.0912	0.1224	918.0575	0.105308	-345.307431	-345.300244	-345.2993	-345.338977	26.282	
C	-0.7791942493	 1.439239454	-0.5360409942	-0.276706
C	-0.0231583981	 0.6301405903	 0.4001279304	-0.072133
C	 0.1295998759	-0.7929789319	 0.0551474078	 0.363187
C	 0.0892600337	-0.6692410174	-1.3765610077	-0.140102
C	 0.5348843441	-1.534220427	 2.3272664331	 0.124777
O	 0.3445423451	-0.4322692952	 2.8300139335	-0.318526
C	-0.0689596807	 0.6590320173	-1.6809651441	-0.116868
C	 0.4632090634	-1.7983286381	 0.9077479236	-0.33301
H	-0.5782520697	 2.5069125047	-0.480249465	 0.145134
H	-1.8467335935	 1.2426707417	-0.6389890764	 0.167475
H	 0.7477933512	 1.0996273825	 1.002307408	 0.166331
H	 0.27629896	-1.4500373404	-2.105845207	 0.117978
H	 0.7669643206	-2.4060002818	 2.9742736782	 0.077629
H	 0.6492617474	-2.8014844585	 0.5406664398	 0.094833
89.3412	140.6459	187.9133	303.9836	357.7631	379.3642	432.7601	591.8323	611.0486	725.674	806.8132	815.4662	850.4168	884.0625	923.1326	979.6703	1026.2692	1040.638	1082.8226	1157.3084	1180.1299	1206.9665	1279.641	1302.489	1386.0889	1422.8	1473.542	1491.3004	1608.0093	1733.9148	2908.4229	3096.1858	3167.3115	3187.8328	3192.7384	3200.7291
C1C=C2C3C4OC13C24	C1[CH]C(=C[C]1)[CH]C=O	
InChI=1S/C7H6O/c1-2-7-4-3(1)5(7)6(4)8-7/h1,4-6H,2H2	InChI=1S/C7H6O/c8-6-5-7-3-1-2-4-7/h3-6H,1H2
