18
gdb 11779	4.2721	1.66322	1.53694	2.8361	72.05	-0.2447	-0.0207	0.224	886.1023	0.155638	-347.808066	-347.801195	-347.800251	-347.839246	26.895	
O	-0.0605706362	-0.0412682753	-0.0166831056	-0.252526
C	 0.0359302876	 1.1511777229	 0.1424961725	 0.040684
C	 1.3060107637	 1.9253748511	 0.0559743569	 0.275718
C	 2.6605569768	 1.2910334709	-0.3560069268	-0.258704
C	 3.0219471933	 2.7688650168	-0.6879160693	-0.019014
C	 1.5377759638	 2.9355779862	-1.1241580403	-0.266483
C	 3.0185207628	 3.4235369096	 0.7069552491	-0.209133
C	 1.6998928318	 2.7986514737	 1.2744353765	-0.267021
H	-0.8663420373	 1.7719059025	 0.3610808127	 0.063997
H	 3.2397003554	 0.7772460302	 0.4160479823	 0.095477
H	 2.5658046449	 0.6596925212	-1.2408688625	 0.111651
H	 3.8403374862	 3.0221829573	-1.3618841457	 0.065494
H	 1.3272174873	 2.4872379811	-2.097350882	 0.110219
H	 1.079531261	 3.9260919997	-1.049575772	 0.094882
H	 3.8957945484	 3.1455392909	 1.2974831904	 0.102538
H	 2.9781612895	 4.5152530641	 0.6572264709	 0.099684
H	 0.9399439987	 3.5493178207	 1.5107303643	 0.102627
H	 1.8681196624	 2.1942939366	 2.1698393586	 0.109909
75.4955	179.6045	264.0543	311.3483	416.4958	451.7684	508.5566	655.6024	718.1028	828.1227	830.6591	839.4372	885.2456	898.8403	931.6243	953.9851	979.8105	989.1888	1009.8988	1047.089	1084.6282	1115.4909	1142.0131	1180.8007	1198.865	1214.3272	1237.1038	1247.6167	1266.1372	1294.7332	1316.713	1342.449	1427.034	1486.789	1493.429	1500.7639	1531.3985	1818.4448	2840.6352	3051.2301	3054.4982	3060.0572	3065.9405	3090.1576	3108.81	3115.3252	3123.7633	3133.272
O=CC12CC(C1)CC2	O=C[C@@]12C[C@@H](C1)CC2	
InChI=1S/C7H10O/c8-5-7-2-1-6(3-7)4-7/h5-6H,1-4H2	InChI=1S/C7H10O/c8-5-7-2-1-6(3-7)4-7/h5-6H,1-4H2/t6-,7-
