20
gdb 124528	2.58598	1.32289	1.08856	3.1813	80.73	-0.2473	0.0164	0.2637	1220.0069	0.171669	-399.3703	-399.36067	-399.359726	-399.4069	33.791	
C	-0.0268379767	 1.5610283768	-0.0060833484	-0.379017
C	-0.0125180714	 0.0218058485	 0.0297529951	-0.103818
C	 0.7735708353	-0.498661069	 1.2470677357	-0.379027
C	-1.4164042886	-0.5120974191	 0.0488694574	 0.373236
N	-2.3105978192	-0.2806796557	 1.0006415846	-0.317128
C	-3.4012931577	-0.9653429295	 0.5715163858	 0.017496
N	-3.2503133474	-1.6043202384	-0.5756206175	-0.256811
N	-1.9638741425	-1.3040892212	-0.9035826457	-0.022051
C	-1.3917135487	-1.8266915037	-2.1295635002	-0.332895
H	 0.9952289721	 1.9524768313	-0.0133250319	 0.111407
H	-0.543491008	 1.9355706744	-0.8949843655	 0.115252
H	-0.5449563429	 1.9519531802	 0.8736711693	 0.145086
H	 0.4789647213	-0.3411240322	-0.8807506745	 0.07867
H	 0.2845520038	-0.1827388681	 2.1724263725	 0.145093
H	 0.8272187605	-1.5915766805	 1.2509671722	 0.115254
H	 1.794944573	-0.1054273556	 1.2387946177	 0.111402
H	-4.3333817635	-0.9961489953	 1.1163173334	 0.120883
H	-1.0917795401	-1.0172062621	-2.8012392692	 0.144557
H	-0.5236467763	-2.4586629586	-1.9213402296	 0.144589
H	-2.163403943	-2.4250897023	-2.6116517412	 0.167823
19.5941	25.7788	141.7072	183.4239	211.9501	226.9539	256.0909	286.1253	383.7122	403.3272	512.7189	635.6532	682.621	745.3583	770.6121	891.7778	905.4272	933.047	967.9541	993.2411	1022.7289	1094.3498	1121.709	1148.7264	1150.8494	1200.7412	1226.0407	1306.2654	1311.6019	1334.3192	1364.714	1395.7763	1411.1423	1419.2784	1451.5981	1484.9367	1489.5188	1491.4224	1496.276	1499.6859	1509.295	1526.9296	1557.1392	3035.818	3037.3199	3040.9102	3048.3214	3106.346	3109.3718	3109.4532	3122.8976	3127.628	3169.0256	3254.921
CC(C)C1=NC=NN1C	CC(C)c1ncnn1C	
InChI=1S/C6H11N3/c1-5(2)6-7-4-8-9(6)3/h4-5H,1-3H3	InChI=1S/C6H11N3/c1-5(2)6-7-4-8-9(6)3/h4-5H,1-3H3
