17
gdb 51331	4.73079	0.99158	0.94909	3.4402	71.62	-0.2405	-0.0194	0.2211	1236.2058	0.135102	-421.759141	-421.751521	-421.750577	-421.792559	28.484	
O	-0.6798561889	 0.7364399552	 0.6931806534	-0.240852
C	 0.1064946922	 0.9130588697	-0.2022467567	 0.156527
C	 1.357860142	 1.7521834651	-0.1056901594	-0.303425
C	 1.3795127858	 2.882399817	-1.1412650098	-0.00381
C	 2.6052163398	 3.7940181039	-1.2373936418	-0.14159
C	 3.5527633168	 3.0701670816	-2.2117261121	 0.093963
O	 2.9565436112	 1.8213818934	-2.5670470624	-0.288467
C	 1.695347524	 2.5446872662	-2.6333798259	 0.047501
C	 2.4546230152	 3.917069855	-2.7518370258	-0.148505
H	-0.0605560706	 0.4480677111	-1.202680247	 0.071748
H	 1.4318087893	 2.1515383749	 0.9103000554	 0.116422
H	 2.2231917967	 1.1055492142	-0.2976885311	 0.135777
H	 0.4723312811	 3.4932061961	-1.0915684726	 0.091341
H	 2.9463486412	 4.5411008954	-0.5322255005	 0.09735
H	 4.6300505193	 3.1640114538	-2.2227685925	 0.116106
H	 0.9754881299	 2.1004385918	-3.3171346786	 0.092767
H	 2.407475415	 4.7597368857	-3.4260957924	 0.107145
49.1124	60.0178	165.0204	221.2067	344.3926	453.2549	572.5527	596.2807	751.3188	758.9071	773.9814	790.4121	829.6427	847.8156	870.6758	914.6456	964.473	979.8983	1010.0129	1025.6634	1031.5296	1057.2302	1076.3435	1096.9638	1119.3301	1160.0187	1172.6265	1206.8262	1227.8875	1246.6113	1295.7141	1314.8198	1370.9907	1378.7164	1432.2727	1459.9225	1832.8463	2851.152	3038.2156	3062.964	3101.8635	3148.0101	3200.4059	3212.5058	3227.8749
O=CCC1C2C3OC1C23	O=CC[C@H]1[C@H]2[C@H]3O[C@@H]1[C@@H]23	
InChI=1S/C7H8O2/c8-2-1-3-4-5-6(3)9-7(4)5/h2-7H,1H2	InChI=1S/C7H8O2/c8-2-1-3-4-5-6(3)9-7(4)5/h2-7H,1H2/t3-,4+,5+,6-,7+/m0/s1
