21
gdb 95378	2.50912	1.72261	1.28216	1.8511	77.09	-0.2343	0.0742	0.3085	1062.6773	0.185374	-424.244979	-424.237138	-424.236193	-424.27742	30.998	
C	-0.2445947585	 1.6429931103	-0.0073211368	-0.417936
C	 0.2915060278	 0.2272519188	-0.1256785186	 0.147676
O	 1.4035615014	 0.2282689169	-1.019177752	-0.257964
C	 2.0136981878	-1.0435578367	-0.869004768	-0.110613
C	 1.9992443902	-1.3361254599	 0.6394180875	 0.105772
O	 3.1741740473	-0.8713570035	 1.2954231856	-0.263403
C	 2.9295830467	 0.4337128187	 1.8080440331	-0.082811
C	 1.4609738808	 0.4102273396	 2.2378116504	-0.229347
C	 0.8013131362	-0.4778086566	 1.1626286424	-0.089471
H	 0.5307158094	 2.3339615379	 0.3337212255	 0.127307
H	-0.5969855975	 1.9898654218	-0.9824939936	 0.127151
H	-1.0833600019	 1.6811390028	 0.6944238394	 0.116383
H	-0.5008784483	-0.413428456	-0.5539268771	 0.062419
H	 1.4420658779	-1.8147179036	-1.414183659	 0.080429
H	 3.0283346653	-0.9991174875	-1.2700609201	 0.116799
H	 1.9158135082	-2.4066629993	 0.8475892862	 0.07853
H	 3.6295324219	 0.6049245637	 2.6309746961	 0.103115
H	 3.1031450136	 1.1973972464	 1.0359840514	 0.102609
H	 1.3706299077	-0.0747131944	 3.214573414	 0.105493
H	 1.0197805822	 1.4056952428	 2.3183242137	 0.102874
H	 0.0067676519	-1.0909239321	 1.59203399	 0.07499
66.8978	191.0541	204.3251	238.5257	306.0217	355.3995	413.6464	504.7674	542.6104	643.8564	707.1104	753.7532	825.2451	851.9462	872.1976	890.517	917.2245	954.7858	988.5552	1001.7987	1040.8588	1058.9763	1072.3362	1120.7042	1125.8455	1138.5264	1170.425	1208.8618	1232.1938	1241.1915	1265.0317	1290.2804	1308.7316	1348.5649	1352.7346	1363.4966	1385.7668	1395.5461	1403.9599	1415.7103	1481.0983	1486.4439	1496.9886	1511.4375	1523.7283	2927.931	2956.0899	3000.7065	3046.038	3056.8768	3066.9415	3084.2979	3092.6907	3111.1143	3114.3735	3118.1781	3124.8311
CC1OCC2OCCC12	C[C@H]1OC[C@H]2OCC[C@@H]12	
InChI=1S/C7H12O2/c1-5-6-2-3-8-7(6)4-9-5/h5-7H,2-4H2,1H3	InChI=1S/C7H12O2/c1-5-6-2-3-8-7(6)4-9-5/h5-7H,2-4H2,1H3/t5-,6+,7-/m1/s1
