16
gdb 41253	3.01594	2.17411	1.73506	0.4387	66.82	-0.2364	0.0356	0.272	808.5116	0.126913	-437.762152	-437.756325	-437.755381	-437.792034	24.862	
C	 0.0021481673	 1.4874197967	-0.0749769285	-0.204589
O	 1.4511811314	 1.416542251	 0.1642216592	-0.317413
C	 1.2862450653	 0.0784872653	 0.7457743226	 0.141313
C	 1.8906894419	-1.2164703801	 0.197274235	-0.146456
N	 1.9622451514	-1.0330834195	-1.2699366225	-0.299863
C	 0.5055386474	-0.945941082	-1.2347883813	-0.083164
C	 0.3898185235	-1.9152950081	-0.0694708751	 0.073216
O	-0.6869306238	-1.1729528308	 0.5540811577	-0.339941
C	 0.0012337662	-0.0386217287	-0.0247889127	 0.344668
H	-0.5151109118	 1.9921422803	 0.7498253082	 0.121514
H	-0.2323230758	 1.9692985939	-1.0287888044	 0.118303
H	 1.1915011006	 0.1282930686	 1.8336800113	 0.089443
H	 2.7171847011	-1.7234988758	 0.6914575623	 0.077339
H	 2.4211566568	-0.15849569	-1.5245608609	 0.228995
H	-0.0865011148	-0.9764117269	-2.1489621278	 0.089268
H	 0.2705572536	-2.9950369139	-0.0826890629	 0.10737
252.9436	267.0886	389.6592	467.5246	512.6042	609.0063	657.1989	694.1075	749.038	784.0656	851.3304	868.7631	901.1089	909.3232	934.9363	953.3024	1007.6311	1013.8194	1034.4583	1055.5735	1079.9975	1083.0699	1117.7039	1142.9768	1166.3973	1182.7115	1222.3439	1259.4267	1274.3741	1276.7824	1324.4437	1331.3409	1357.4221	1366.3106	1507.5046	3028.6631	3079.1007	3093.1208	3126.9243	3140.175	3172.0138	3462.2591
C1OC2C3NC4C3OC124	C1O[C@@H]2[C@@H]3N[C@H]4[C@@H]3O[C@@]124	
InChI=1S/C6H7NO2/c1-6-4-3(9-6)2(7-4)5(6)8-1/h2-5,7H,1H2	InChI=1S/C6H7NO2/c1-6-4-3(9-6)2(7-4)5(6)8-1/h2-5,7H,1H2/t2-,3-,4+,5-,6-/m1/s1
