16
gdb 69715	4.06097	1.3768	1.26758	3.9181	69.73	-0.259	0.0212	0.2802	1016.2636	0.123651	-437.831898	-437.824512	-437.823568	-437.863591	28.737	
C	-0.1521642106	 1.4791468801	 0.0192331016	-0.513677
C	 0.1457561688	 0.017010495	 0.0114299193	 0.398987
O	-0.7164603671	-0.8709929026	 0.7251729575	-0.263075
C	 0.6806152637	-0.9326881708	 1.0131507811	-0.048635
C	 1.3526058777	-1.8090372098	-0.0829819648	-0.224491
C	 0.7976873401	-0.8275197545	-1.1348270081	 0.028414
O	-0.0433209952	-1.8732172487	-1.6951695553	-0.262677
C	 0.4320944583	-2.8024470498	-0.7734603161	 0.461321
N	 0.1807990921	-4.0205648443	-0.6437373666	-0.550502
H	 0.7127166156	 2.0550669024	-0.3252215266	 0.128871
H	-0.9944116449	 1.7029764658	-0.6448404047	 0.142997
H	-0.4146735273	 1.8089258079	 1.0277390812	 0.141733
H	 0.988880038	-0.7984132675	 2.0432162681	 0.117882
H	 2.4076485033	-2.0454024914	 0.0283763438	 0.111594
H	 1.3952062849	-0.3105112928	-1.8844399721	 0.099901
H	-0.5099737273	-4.3362368988	-1.3266646384	 0.231356
119.7602	178.5324	192.6736	288.9734	297.5531	412.2994	454.4606	550.924	626.9379	696.5242	736.6048	793.9785	831.121	866.4254	869.3073	892.9557	897.7257	946.2512	990.0781	1002.385	1009.0192	1049.8773	1100.954	1159.7665	1172.5341	1195.197	1230.0051	1249.8698	1254.1271	1317.8673	1405.643	1460.3764	1481.9551	1491.6272	1830.5743	3036.6337	3100.7205	3124.1284	3130.3976	3158.7433	3192.2059	3478.7168
CC12OC1C1C2OC1=N	C[C@]12O[C@H]1[C@@H]1[C@H]2O[C]1[NH]	
InChI=1S/C6H7NO2/c1-6-3-2(4(6)9-6)5(7)8-3/h2-4,7H,1H3	InChI=1S/C6H7NO2/c1-6-3-2(4(6)9-6)5(7)8-3/h2-4,7H,1H3/t2-,3+,4-,6+/m0/s1
