15
gdb 25680	5.92305	0.77741	0.69018	3.5847	87.02	-0.189	-0.0114	0.1776	1584.3705	0.112105	-416.814081	-416.805186	-416.804242	-416.849548	31.221	
C	-0.1335180114	 1.4383492188	 0.033810959	-0.510205
C	-0.0205843434	-0.0098387401	 0.0045936441	 0.212001
C	 0.0726846127	-1.213665397	-0.0195945157	-0.07705
C	 0.1640031176	-2.6091351797	-0.0449058741	 0.193424
C	 1.1994532683	-3.4546610193	-0.2193874892	-0.215504
N	 0.6977660492	-4.7408725163	-0.1475897373	-0.313017
C	-0.6665758375	-4.7051919746	 0.0742106432	 0.446591
N	-1.4322601388	-5.7067837084	 0.1910122125	-0.615109
O	-1.0000901402	-3.3704607634	 0.1383920723	-0.248363
H	 0.4744760433	 1.872672273	 0.8355546243	 0.153577
H	 0.190393428	 1.8857939895	-0.9127411798	 0.153577
H	-1.1725440018	 1.7401696758	 0.2049093298	 0.159541
H	 2.240435961	-3.2409275735	-0.3868094937	 0.154131
H	 1.205541216	-5.602110957	-0.2365095919	 0.279519
H	-2.3915964531	-5.4111112379	 0.3490038964	 0.226886
16.67	86.3918	94.3999	164.1376	256.7914	299.6707	375.4467	426.8543	466.2231	470.9087	562.0013	635.0209	714.7053	745.524	747.9395	776.012	922.0208	949.6989	996.3894	1047.6655	1050.4179	1057.125	1105.483	1207.1839	1323.1969	1362.4397	1411.7847	1418.6262	1470.9705	1476.377	1681.6815	1791.76	2350.2322	3024.4677	3082.6517	3091.8287	3295.0392	3546.1827	3706.3599	16.6604	86.3934	94.4006	164.1391	256.7891	299.6676	375.4438	426.8531	466.2229	470.9043	562.	635.022	714.7051	745.5242	747.9397	776.0151	922.021	949.6992	996.3903	1047.6651	1050.4173	1057.1251	1105.4838	1207.1845	1323.1965	1362.4403	1411.7847	1418.6264	1470.9706	1476.3772	1681.6811	1791.76	2350.2309	3024.4677	3082.6517	3091.8287	3295.0396	3546.1828	3706.3593
CC#CC1=CNC(=N)O1	CC#CC1=CN[C@H]([NH])O1	
InChI=1S/C6H6N2O/c1-2-3-5-4-8-6(7)9-5/h4H,1H3,(H2,7,8)	InChI=1S/C6H7N2O/c1-2-3-5-4-8-6(7)9-5/h4,6-8H,1H3/t6-/m0/s1
