18
gdb 47915	2.33333	1.75149	1.22588	2.9177	69.08	-0.2577	0.0324	0.2902	1044.0251	0.14967	-476.222836	-476.215009	-476.214065	-476.255467	29.962	
N	 0.056129531	 1.3071233666	-0.4999038004	-0.534316
C	 0.028639989	 0.1078884239	-0.1036175654	 0.449149
O	-1.1539798791	-0.4802012084	 0.1452815896	-0.23164
C	-1.184379831	-1.7341378732	 0.8417419631	-0.073691
C	-1.1087201824	-1.5615496431	 2.3589626542	-0.211875
C	 0.1100311228	-0.777430423	 2.8563555438	-0.090218
O	 1.3392264956	-1.2820058255	 2.3301141316	-0.225312
C	 1.864026415	-0.5638503794	 1.2671150411	-0.009081
O	 1.1215545217	-0.7132735564	 0.0527659852	-0.258393
H	 1.0150193419	 1.5754198672	-0.7102925237	 0.22587
H	-2.1402547449	-2.1823923709	 0.5622606018	 0.120667
H	-0.3760789261	-2.3758793394	 0.4890175522	 0.136267
H	-2.007550902	-1.0503729692	 2.7236947663	 0.116365
H	-1.1034488192	-2.5650007632	 2.8014707418	 0.114263
H	 0.0085786555	 0.2888288542	 2.6129321517	 0.124025
H	 0.1749795885	-0.8596387983	 3.9459651357	 0.115407
H	 1.9308459864	 0.5103407027	 1.4987275057	 0.103
H	 2.8494213675	-0.9829675544	 1.0600344059	 0.129514
68.6245	143.2725	194.6282	263.1512	332.4038	371.7104	411.0284	498.3617	558.237	586.2375	601.1475	756.0843	792.3749	811.4338	836.8986	859.6361	922.4887	977.612	1016.6824	1056.9245	1058.3585	1108.9558	1132.9639	1162.147	1189.9541	1258.72	1286.9226	1302.9698	1327.9459	1339.6097	1391.7544	1404.6116	1422.486	1447.5106	1466.8732	1495.2412	1502.5495	1515.3662	1747.9519	2988.1907	3017.4353	3034.4345	3073.9318	3080.3954	3087.1024	3131.3338	3137.3343	3525.688
N=C1OCCCOCO1	[NH][C]1OCCCOCO1	
InChI=1S/C5H9NO3/c6-5-8-3-1-2-7-4-9-5/h6H,1-4H2	InChI=1S/C5H9NO3/c6-5-8-3-1-2-7-4-9-5/h6H,1-4H2
