14
gdb 50903	4.76092	0.71526	0.70177	5.8807	66.3	-0.2686	-0.0266	0.242	1555.1876	0.100114	-470.063779	-470.054464	-470.05352	-470.099923	31.043	
O	-0.161978923	 0.1897981071	 0.7688208689	-0.244585
C	 0.01166575	 1.2166484284	 0.1782598655	 0.16996
N	 1.2199255989	 1.7003452911	-0.3215162561	-0.396588
C	 2.4684686108	 1.0568225956	-0.2739518716	 0.543719
O	 2.6469212046	-0.0589743601	 0.1451608602	-0.341975
N	 3.4775600688	 1.8422085335	-0.8114632641	-0.377411
C	 4.8508290226	 1.3853281737	-0.7095512203	-0.27746
C	 5.6382747708	 2.1717048069	 0.249913719	 0.251589
N	 6.2479341788	 2.8231845668	 0.9835857794	-0.293104
H	-0.7980325428	 1.9404973755	-0.0466568019	 0.089562
H	 1.1626789264	 2.5885155329	-0.797644525	 0.253721
H	 3.3337871242	 2.8340156986	-0.9195730663	 0.255178
H	 4.8084788791	 0.3412268746	-0.3855145661	 0.205503
H	 5.3491967207	 1.4206828755	-1.6846640515	 0.161891
26.5728	58.9898	74.2165	170.09	200.7218	256.7771	299.6116	352.4486	377.084	406.7222	554.3965	575.8167	615.5729	765.8656	834.3796	917.355	943.8566	1027.1538	1041.5536	1089.2568	1172.3991	1208.7769	1275.4725	1374.2832	1448.7963	1463.7378	1513.8053	1524.3195	1809.9406	1880.7544	2363.4927	2926.8006	3048.8869	3107.2289	3609.0435	3628.859
O=CNC(=O)NCC#N	O=CNC(=O)NCC#N	
InChI=1S/C4H5N3O2/c5-1-2-6-4(9)7-3-8/h3H,2H2,(H2,6,7,8,9)	InChI=1S/C4H5N3O2/c5-1-2-6-4(9)7-3-8/h3H,2H2,(H2,6,7,8,9)
