14
gdb 128570	4.10263	1.18648	0.9257	2.7441	69.8	-0.2495	-0.077	0.1725	1180.9332	0.101673	-470.007587	-469.999902	-469.998958	-470.040152	27.803	
C	-0.0031457764	 1.4192342821	-0.0134309815	-0.235697
O	 0.0239424652	-0.0145332908	-0.0419858007	-0.256391
C	 0.6119784489	-0.6263260898	-1.0703884494	 0.528635
C	 0.6432566808	-1.9931961135	-1.1072947893	-0.39837
C	 1.2783246322	-2.6374592468	-2.2170398717	 0.487598
O	 1.4216983269	-3.8188736449	-2.4573825166	-0.388037
N	 1.7873977814	-1.6668376852	-3.1294542284	-0.260211
N	 1.7329427815	-0.3463359686	-3.0509319548	-0.044623
N	 1.1572853254	 0.1875221691	-2.0423481478	-0.290751
H	 1.0082589642	 1.8318059102	 0.0007963254	 0.147033
H	-0.5385670612	 1.8200580414	-0.8771524015	 0.147042
H	-0.5281784464	 1.6709793279	 0.9082479154	 0.139948
H	 0.2018919323	-2.5915453686	-0.3220252099	 0.138159
H	 2.2578047253	-2.0172556226	-3.9554093694	 0.285665
89.3895	160.195	181.3173	210.8712	235.2764	401.2432	447.0612	477.9937	551.7195	612.989	702.6836	753.5769	769.2593	784.383	878.6954	925.138	1013.6401	1040.1203	1146.0538	1174.7197	1197.1314	1222.5727	1288.9661	1367.9025	1394.6481	1484.0179	1484.8693	1494.5757	1526.6197	1634.0506	1815.298	3053.9431	3132.4913	3157.945	3232.4595	3585.6199
COC1=CC(=O)NN=N1	COC1=N[N]NC(=O)[CH]1	
InChI=1S/C4H5N3O2/c1-9-4-2-3(8)5-7-6-4/h2H,1H3,(H,5,6,8)	InChI=1S/C4H5N3O2/c1-9-4-2-3(8)5-7-6-4/h2H,1H3,(H,5,6,8)
