17
gdb 38279	3.74142	1.74288	1.666	0.7873	71.78	-0.2358	0.0662	0.302	860.6997	0.137981	-421.678572	-421.672739	-421.671795	-421.708374	25.695	
C	-0.0633192612	 1.661999514	-0.0678728348	-0.21477
C	 1.4629695007	 1.4268361891	 0.0702539595	 0.000994
O	 1.1126012066	 0.2269495751	 0.8850252532	-0.296485
C	-0.024229555	 0.1048915368	-0.0276629958	-0.081648
C	 0.686147209	-0.1675111079	-1.3736522195	 0.399499
C	 1.3919693962	-1.0280236949	-2.4586461543	-0.312609
C	 1.7118973424	 0.5013610786	-2.6777161153	-0.010696
O	 0.2973820564	 0.7800757966	-2.4789149849	-0.330742
C	 1.992937561	 0.6138592791	-1.1413172508	 0.014074
H	-0.4615982463	 2.0377188694	 0.8756846514	 0.1081
H	-0.4669548151	 2.1821025245	-0.9299935118	 0.132032
H	 2.1233229625	 2.1184455256	 0.5909321286	 0.087516
H	-0.831310833	-0.5238583547	 0.3421993624	 0.091606
H	 2.189994447	-1.6993377381	-2.1350619403	 0.109933
H	 0.7437549117	-1.4570934263	-3.2231611219	 0.114195
H	 2.2067255647	 0.9698515668	-3.530083649	 0.097172
H	 2.8461913425	 0.0225906564	-0.8029842466	 0.091829
271.1463	303.7069	436.0127	487.4696	500.6246	580.4954	650.0169	689.6698	753.2038	788.6986	799.4018	845.2122	857.0403	875.1062	921.754	928.0557	966.9851	984.3837	1014.4201	1036.8077	1054.393	1065.8117	1102.8133	1111.1406	1122.1959	1161.9676	1179.2773	1195.923	1212.5075	1233.5213	1245.5449	1269.651	1282.445	1296.0985	1383.275	1474.5219	1485.4721	3070.1262	3090.0207	3097.6252	3103.749	3136.223	3148.548	3157.1919	3196.2284
C1C2OC1C13CC(O1)C23	C1[C@H]2O[C@@H]1[C@@]13C[C@@H](O1)[C@@H]23	
InChI=1S/C7H8O2/c1-3-6-4-2-7(6,9-4)5(1)8-3/h3-6H,1-2H2	InChI=1S/C7H8O2/c1-3-6-4-2-7(6,9-4)5(1)8-3/h3-6H,1-2H2/t3-,4-,5+,6-,7-/m1/s1
