19
gdb 82901	3.11226	1.83825	1.5716	2.3073	72.49	-0.252	0.0865	0.3386	915.9079	0.163014	-423.015142	-423.00868	-423.007735	-423.04574	27.481	
C	-0.2151900823	 1.5752863866	 0.0368107959	-0.444378
C	 0.0472140328	 0.0694876519	-0.015319819	 0.075667
C	 0.9891781419	-0.5047905364	-1.1121746022	-0.136616
C	 2.2866327058	 0.264261424	-0.783509335	-0.209211
C	 2.4280288757	-0.4582824829	 0.5671894321	 0.036335
O	 2.6630334599	-1.7800352443	 0.0528089614	-0.242551
C	 1.3467717463	-1.9451004306	-0.4426841922	 0.166151
O	 0.6056653811	-1.9667374303	 0.7649708734	-0.239775
C	 0.8870385697	-0.5983887373	 1.0971870628	 0.012961
H	 0.6593187903	 2.1694562782	 0.3115635924	 0.120875
H	-0.5787403363	 1.944082418	-0.9285420298	 0.121206
H	-0.9905114481	 1.7867587531	 0.7806104407	 0.119211
H	-0.9172491193	-0.4433854686	-0.0293445685	 0.085697
H	 0.6342754874	-0.5263849253	-2.141169751	 0.067829
H	 3.1386704359	 0.0201379987	-1.4186065102	 0.108599
H	 2.1552963649	 1.3449465717	-0.7584075334	 0.098203
H	 3.1949970176	-0.1702802722	 1.282340142	 0.083988
H	 1.2314575206	-2.861124257	-1.0165876015	 0.095035
H	 0.6832590762	-0.3943545472	 2.1465279821	 0.080774
151.4459	214.732	306.1377	439.4429	515.6576	554.1657	623.1502	648.1752	679.69	742.3083	787.8969	823.2126	865.5305	886.4024	914.6338	924.4688	933.9089	954.4047	977.0799	991.3617	1026.7096	1047.3432	1067.8071	1098.0355	1124.0124	1150.3287	1169.3527	1200.443	1231.6455	1240.2244	1248.9772	1264.0859	1300.0419	1307.8456	1316.12	1345.4329	1385.9487	1414.9516	1491.361	1496.7234	1521.9446	3037.1028	3075.1218	3095.9509	3096.4779	3117.2192	3133.1511	3143.7113	3150.4015	3155.7729	3166.8639
CC1C2CC3OC2OC13	C[C@H]1[C@H]2C[C@@H]3O[C@H]2O[C@H]13	
InChI=1S/C7H10O2/c1-3-4-2-5-6(3)9-7(4)8-5/h3-7H,2H2,1H3	InChI=1S/C7H10O2/c1-3-4-2-5-6(3)9-7(4)8-5/h3-7H,2H2,1H3/t3-,4+,5-,6+,7-/m0/s1
