15
gdb 28137	5.11718	1.29675	1.04228	1.4875	76.34	-0.1801	-0.0085	0.1716	1086.8473	0.115092	-416.843276	-416.836273	-416.835329	-416.874413	27.687	
N	 0.0680935128	 1.3133587615	 0.1476752504	-0.589825
C	-0.0491853041	-0.0504368127	 0.0486073546	 0.40995
N	-1.143697515	-0.7592829108	 0.0274047061	-0.418156
C	-0.6560775068	-2.057971118	 0.0160022817	 0.237886
C	 0.6938090614	-2.0543348797	 0.0195335886	 0.29234
O	 1.1287665899	-0.7513104308	 0.0427142328	-0.235387
C	 1.2527223454	-3.3868627165	-0.0175992709	-0.214254
C	 0.1970458284	-4.2357373434	-0.0395861589	-0.088679
C	-1.1302540415	-3.4769200115	-0.0211081344	-0.414567
H	 0.8922191108	 1.6981404315	-0.2913521464	 0.26446
H	-0.7826952188	 1.7943164801	-0.1052055517	 0.271425
H	 2.3004350862	-3.6525891476	-0.0220456211	 0.109633
H	 0.2523224505	-5.3152354318	-0.0614680579	 0.101221
H	-1.7362049765	-3.7547967986	 0.8507537703	 0.137487
H	-1.7354180226	-3.7089518917	-0.9067821231	 0.136466
132.2585	264.33	272.2662	298.1943	324.2425	424.0443	521.3393	568.6108	614.7022	648.3907	711.7426	732.8479	740.4975	799.9885	891.1886	914.0152	918.4514	924.6654	952.076	1069.2573	1116.5296	1122.2768	1155.0434	1219.0211	1278.0761	1367.7818	1390.9057	1428.9192	1461.9094	1542.0634	1592.5618	1634.0856	1669.2162	3036.0972	3066.3099	3222.5629	3243.4851	3570.2925	3679.4358
NC1=NC2=C(O1)C=CC2	Nc1nc2c(o1)C=CC2	
InChI=1S/C6H6N2O/c7-6-8-4-2-1-3-5(4)9-6/h1,3H,2H2,(H2,7,8)	InChI=1S/C6H6N2O/c7-6-8-4-2-1-3-5(4)9-6/h1,3H,2H2,(H2,7,8)
