17
gdb 15661	3.30991	1.84361	1.287	4.0011	71.05	-0.2356	-0.0255	0.2101	962.1971	0.143135	-363.914973	-363.907213	-363.906269	-363.947697	28.232	
C	 0.0008756708	 1.5513759504	 0.1904905101	-0.378987
C	-0.1012636084	 0.0509305669	-0.101084413	-0.151034
N	-1.4532758507	-0.463125971	-0.0394972886	-0.088645
C	-2.2033847923	-0.6549115891	 1.1797459491	-0.22128
C	-3.4943608275	-1.2550506816	 0.6890776605	-0.08171
C	-3.4618756902	-1.384018709	-0.6372356588	-0.17972
C	-2.1515821068	-0.889322121	-1.1544793714	 0.402085
O	-1.7503903121	-0.8571109375	-2.3017166303	-0.403947
H	 1.0423095296	 1.8800627182	 0.1172364883	 0.119746
H	-0.5917389879	 2.1246767702	-0.5281324156	 0.133975
H	-0.3535084394	 1.7937656949	 1.1979149511	 0.113532
H	 0.2485815683	-0.161048378	-1.1151632939	 0.145017
H	 0.5341766151	-0.5119596977	 0.596452803	 0.099053
H	-1.6818476584	-1.3267066815	 1.8796146168	 0.122625
H	-2.3774537575	 0.2893784943	 1.7172182328	 0.125671
H	-4.2996981128	-1.5211654618	 1.3609351533	 0.119468
H	-4.2230325198	-1.777644877	-1.2952942534	 0.124152
48.982	102.5125	202.2618	214.2914	314.4662	352.7406	387.4368	510.5581	642.8609	666.6742	715.2351	791.0626	819.1534	834.3386	951.1514	958.9808	968.4953	1011.3151	1042.668	1095.7166	1113.1458	1153.2987	1190.3322	1255.6356	1272.1203	1341.9875	1361.9446	1398.1929	1411.8428	1429.4417	1481.0686	1493.4991	1496.9948	1505.2889	1656.4748	1799.0781	2985.9379	3007.1734	3010.8562	3037.8348	3092.8718	3111.25	3120.5327	3219.4951	3251.9775
CCN1CC=CC1=O	CCN1CC=CC1=O	
InChI=1S/C6H9NO/c1-2-7-5-3-4-6(7)8/h3-4H,2,5H2,1H3	InChI=1S/C6H9NO/c1-2-7-5-3-4-6(7)8/h3-4H,2,5H2,1H3
