18
gdb 5303	4.35772	1.48754	1.20994	3.7673	73.43	-0.2144	0.0348	0.2491	1025.3952	0.155468	-344.033316	-344.025359	-344.024415	-344.065932	29.628	
C	 0.0353633053	 1.5999648748	 0.1570986408	-0.385805
C	-0.039284191	 0.0770118243	-0.0138390993	-0.099259
C	 0.798171625	-0.6372036987	 1.066776253	-0.377576
C	-1.4634769222	-0.3981201872	-0.0158096774	 0.32743
C	-2.6623001592	 0.2123850952	 0.2603671641	-0.174784
N	-3.7162015967	-0.6661927862	 0.1279166287	-0.257878
C	-3.1697904938	-1.8033631863	-0.2269394981	 0.007582
N	-1.8124221961	-1.7001904838	-0.3279019618	-0.312387
H	 1.0746778603	 1.9384127097	 0.1124948614	 0.111492
H	-0.5275384771	 2.1164531022	-0.625271422	 0.124269
H	-0.3740253129	 1.9040645606	 1.1262713711	 0.124647
H	 0.4040390266	-0.1701627912	-0.990600326	 0.081036
H	 0.4128284025	-0.4068611148	 2.0653263988	 0.126651
H	 0.7767485414	-1.7252909151	 0.9464936846	 0.101691
H	 1.8442021471	-0.3170527997	 1.0196002181	 0.114218
H	-2.8281780024	 1.2396560319	 0.545856825	 0.103386
H	-3.6929944544	-2.7271673583	-0.4254014774	 0.125349
H	-1.1770285523	-2.4342847674	-0.5926454435	 0.259939
46.3369	155.7532	199.386	233.6297	269.4273	323.6138	413.1954	459.8977	522.8252	623.4234	682.7284	701.7338	804.9397	850.1207	881.721	929.3825	933.2798	968.2901	1005.4928	1099.7078	1116.2061	1121.6984	1147.5049	1174.7744	1232.6903	1281.0837	1339.0504	1340.9306	1389.9747	1402.2155	1419.9479	1426.0788	1485.5249	1491.4863	1501.4362	1505.6346	1514.3978	1609.9299	2981.3403	3029.7722	3038.2775	3097.817	3103.9831	3109.1756	3115.9548	3246.514	3253.0133	3661.1308
CC(C)C1=CN=CN1	CC(C)c1cnc[nH]1	
InChI=1S/C6H10N2/c1-5(2)6-3-7-4-8-6/h3-5H,1-2H3,(H,7,8)	InChI=1S/C6H10N2/c1-5(2)6-3-7-4-8-6/h3-5H,1-2H3,(H,7,8)
