19
gdb 26127	2.46463	1.4723	0.96726	0.8216	79.49	-0.1772	0.0407	0.2179	1215.5538	0.160168	-419.235889	-419.226566	-419.225622	-419.270038	35.484	
C	 0.4733866132	 1.0365425487	-0.6358329213	-0.415768
C	 0.0015539426	-0.0503005074	 0.3306331949	 0.007405
O	 0.0953560825	 0.3978503575	 1.6961668055	-0.434028
C	-1.3766965795	-0.5746792207	 0.0571653067	 0.224472
C	-2.3207411098	-0.4103260014	-0.9467663415	 0.139034
N	-2.2597592063	 0.4289762209	-2.0804184416	-0.608901
C	-3.4546142717	-1.2039774445	-0.601767098	-0.209471
C	-3.1791094221	-1.8265602039	 0.5942577825	-0.085305
N	-1.9252785379	-1.4599160644	 0.9749210575	-0.280446
H	 1.4219365797	 1.4419174768	-0.2751215384	 0.123778
H	 0.6424454294	 0.6318829704	-1.6400768423	 0.111284
H	-0.253898537	 1.850853764	-0.7087199293	 0.132812
H	 0.7297156783	-0.8737895906	 0.301099777	 0.089194
H	-0.5948950402	 1.0615496182	 1.8156193738	 0.275123
H	-1.3370268305	 0.4840297486	-2.4893642338	 0.235132
H	-2.9095125556	 0.1255606798	-2.7945231883	 0.237751
H	-4.3638651469	-1.2972825747	-1.1769969283	 0.08245
H	-3.777195951	-2.4929910855	 1.1949702645	 0.1144
H	-1.4855714871	-1.6614921118	 1.8561784203	 0.261082
40.6348	138.6565	169.2734	211.9914	285.1242	294.8474	324.4659	343.2493	374.9393	467.0529	484.9145	499.114	624.5435	660.5633	674.009	704.8999	734.3376	779.9782	804.0733	882.4402	914.6217	1007.4091	1045.6643	1086.4766	1090.4732	1097.5852	1148.7101	1229.1123	1253.0031	1275.3517	1322.1083	1367.5104	1399.906	1421.938	1456.4407	1490.2273	1496.2175	1501.5837	1515.9929	1636.4555	1656.6449	2995.8705	3033.3894	3103.1952	3125.5733	3236.8241	3266.1927	3541.4548	3629.0723	3680.2919	3781.0101
CC(O)C1=C(N)C=CN1	C[C@@H](O)c1c(N)cc[nH]1	
InChI=1S/C6H10N2O/c1-4(9)6-5(7)2-3-8-6/h2-4,8-9H,7H2,1H3	InChI=1S/C6H10N2O/c1-4(9)6-5(7)2-3-8-6/h2-4,8-9H,7H2,1H3/t4-/m1/s1
