21
gdb 120210	4.50803	0.9474	0.92887	0.9816	84.4	-0.2236	0.0178	0.2414	1378.3863	0.183012	-387.051253	-387.042857	-387.041913	-387.084801	32.524	
C	-0.0328642513	 1.4716385831	-0.0271550762	-0.385385
C	-0.0878953179	-0.023356484	 0.2364052446	-0.045021
O	-1.3081563801	-0.5261313883	-0.2828002726	-0.270664
C	-1.4499887879	-1.9097081642	-0.162715262	 0.198589
C	-2.0405607515	-2.4673136774	 1.2087437161	-0.119773
C	-3.4174611493	-1.9372909016	 0.6862232403	-0.210817
C	-2.8375192774	-2.4272617017	-0.6828585418	-0.109172
C	-2.6482744348	-3.9184448759	-0.4049179752	-0.091255
C	-2.1284887454	-3.9421779641	 0.829013241	-0.086761
H	 0.900976017	 1.892575726	 0.3573778382	 0.114426
H	-0.0904899485	 1.673919341	-1.1004271873	 0.127162
H	-0.8695342083	 1.9788415857	 0.4616884186	 0.126671
H	 0.7614522131	-0.5350371169	-0.2454629699	 0.089028
H	-0.0178942615	-0.2279045319	 1.3162473315	 0.091146
H	-0.5604555652	-2.4351995582	-0.5392343208	 0.05932
H	-1.632694959	-2.1922390884	 2.1810647648	 0.058227
H	-4.3152512663	-2.4382593302	 1.0554406431	 0.087939
H	-3.5076375089	-0.8511502645	 0.7448535945	 0.10777
H	-3.237812932	-2.1066898267	-1.6438623099	 0.063155
H	-2.8583207713	-4.7299580342	-1.0869789669	 0.098274
H	-1.7936388636	-4.7803339275	 1.42388223	 0.097138
60.1472	85.075	135.2441	241.3014	314.2185	327.8708	374.7484	476.1639	539.3129	590.9776	701.5185	721.3788	818.4319	827.0138	848.4486	892.8005	906.421	910.7769	921.3427	946.5881	960.3909	997.1873	1044.6076	1058.6833	1084.2102	1116.9436	1136.8073	1147.396	1154.187	1187.6604	1211.3724	1227.6083	1241.8948	1251.7803	1261.9489	1295.8515	1332.2439	1361.9552	1402.681	1435.5594	1483.3735	1487.6918	1499.6251	1528.0404	1616.6572	2966.7066	2996.9915	3003.3435	3044.7274	3067.7852	3118.9206	3119.4948	3121.717	3127.4866	3138.834	3217.022	3243.6525
CCOC1C2CC1C=C2	CCO[C@H]1[C@H]2C[C@@H]1C=C2	
InChI=1S/C8H12O/c1-2-9-8-6-3-4-7(8)5-6/h3-4,6-8H,2,5H2,1H3	InChI=1S/C8H12O/c1-2-9-8-6-3-4-7(8)5-6/h3-4,6-8H,2,5H2,1H3/t6-,7+,8+
