21
gdb 86154	2.74312	1.28826	0.92689	3.5541	86.14	-0.2351	-0.0464	0.1886	1304.1374	0.182744	-387.142338	-387.133292	-387.132348	-387.17595	34.546	
C	-0.0751065784	 1.5756630666	 0.0288578279	-0.406936
C	 0.0144338845	 0.0421122176	 0.0078341281	-0.041043
C	 0.6672886021	-0.4788071205	-1.2814989737	-0.208002
C	 0.9395807492	-1.9911833941	-1.2368569941	-0.113149
C	 1.5395368164	-2.5348692718	-2.5335000171	-0.40072
C	 1.8032408377	-2.3395250493	-0.0201087098	 0.385414
O	 2.6137935343	-3.2455240914	-0.0335622565	-0.341061
C	 1.5627225476	-1.5379980481	 1.1997683276	-0.165974
C	 0.7400779519	-0.4822690416	 1.2196035122	-0.027223
H	 0.9229787576	 2.0260543872	 0.0011785165	 0.123772
H	-0.6343212116	 1.9429867152	-0.8372482139	 0.11935
H	-0.5803229707	 1.9327101246	 0.9322241505	 0.1165
H	-1.0162087096	-0.3485072904	 0.0538389371	 0.094491
H	 0.0343365142	-0.2395935684	-2.1437913939	 0.098136
H	 1.6181066204	 0.0508636885	-1.4348895135	 0.102117
H	-0.0237294608	-2.4968647322	-1.0553886647	 0.096911
H	 2.476666165	-2.0215932321	-2.7741218314	 0.118548
H	 1.7645566467	-3.5985447506	-2.4371445463	 0.136764
H	 0.8487244463	-2.3914641594	-3.3700026864	 0.104974
H	 2.0894622197	-1.8715375628	 2.0887806669	 0.105228
H	 0.5725268375	 0.0492565429	 2.1554780544	 0.101901
71.0837	136.0449	187.3698	223.0303	246.8283	267.5034	324.3134	359.373	399.1338	428.2997	504.0236	549.8935	653.9969	727.9841	739.2745	822.6911	851.7624	901.1941	937.5248	966.6515	1014.345	1026.5275	1053.4938	1085.8456	1108.5789	1128.7534	1151.0967	1188.9932	1218.3801	1240.4902	1289.6783	1326.1491	1335.3025	1358.8934	1380.7265	1402.8596	1408.7541	1418.0342	1487.2628	1491.1807	1496.066	1499.1328	1501.7296	1682.4222	1772.4546	2962.7447	2971.4046	3013.6155	3032.0381	3040.5459	3061.4971	3101.6371	3103.8987	3106.3442	3135.6551	3136.9764	3183.867
CC1CC(C)C(=O)C=C1	C[C@H]1C[C@@H](C)C(=O)C=C1	
InChI=1S/C8H12O/c1-6-3-4-8(9)7(2)5-6/h3-4,6-7H,5H2,1-2H3	InChI=1S/C8H12O/c1-6-3-4-8(9)7(2)5-6/h3-4,6-7H,5H2,1-2H3/t6-,7-/m1/s1
