21
gdb 82460	3.07593	1.56788	1.36382	1.7394	81.4	-0.2485	0.0745	0.323	1034.5806	0.184115	-387.060643	-387.052872	-387.051928	-387.092214	32.26	
C	-0.0094129037	 1.5209739612	 0.0581189912	-0.507008
C	-0.0282693863	 0.013559124	 0.0633329077	 0.366413
C	-1.3093504016	-0.8151385205	 0.2772030934	-0.290672
C	-0.3157545845	-1.9737253023	 0.5375714577	-0.104871
C	 0.7135404217	-0.9024396651	 1.104550567	-0.064921
C	 1.9689932596	-0.8714105105	 0.2222667237	-0.268236
C	 0.9440314282	-0.775168492	-0.9372419335	-0.115366
C	 0.2638570023	-2.164189907	-0.886015286	 0.190995
O	 1.0886011581	-3.2883646	-1.1060110045	-0.460236
H	 1.011386432	 1.9186464496	 0.065682016	 0.116763
H	-0.5068275632	 1.9147722791	-0.836388887	 0.118727
H	-0.5327763024	 1.924235523	 0.932347043	 0.114663
H	-1.8247314311	-0.4831999935	 1.1844259694	 0.092308
H	-2.0373288028	-0.9316139594	-0.5334655377	 0.087745
H	-0.5943962919	-2.8727763617	 1.0866355145	 0.063426
H	 0.7115240228	-0.7096185159	 2.177416041	 0.06369
H	 2.5231409765	 0.0603991987	 0.3624781342	 0.103142
H	 2.6900796653	-1.6971359232	 0.2318376739	 0.07378
H	 1.2171509028	-0.373951134	-1.913450619	 0.060113
H	-0.5322707699	-2.2597148803	-1.6293236662	 0.080448
H	 1.7821295581	-3.2979160002	-0.4398127185	 0.279099
165.1715	215.6129	224.9026	256.2055	317.4607	356.1791	427.3011	472.244	490.2886	626.1399	680.3905	703.4517	783.2136	822.4458	853.3719	862.4755	909.2464	927.6661	938.4786	979.4388	988.4885	1000.1492	1024.4042	1057.0353	1061.9836	1105.5097	1127.7935	1145.0717	1160.8653	1190.0391	1195.79	1224.8436	1230.2746	1251.2069	1254.4283	1282.4603	1300.2287	1326.8062	1335.7969	1413.6679	1445.4879	1489.5098	1492.523	1505.7933	1513.6692	3020.7034	3029.1754	3032.4946	3072.4788	3081.8092	3086.6249	3089.0847	3094.2086	3111.177	3113.8895	3122.8646	3826.9532
CC12CC3C1CC2C3O	C[C@]12C[C@@H]3[C@H]1C[C@H]2[C@H]3O	
InChI=1S/C8H12O/c1-8-3-4-5(8)2-6(8)7(4)9/h4-7,9H,2-3H2,1H3	InChI=1S/C8H12O/c1-8-3-4-5(8)2-6(8)7(4)9/h4-7,9H,2-3H2,1H3/t4-,5-,6+,7+,8+/m1/s1
