21
gdb 66610	2.77344	1.89899	1.81057	0.1105	84.11	-0.2463	0.1026	0.3489	920.1405	0.186144	-349.947121	-349.940475	-349.93953	-349.977564	29.175	
C	 0.0073192358	 1.4656473108	 0.0393076279	-0.516382
C	 0.0110932721	-0.0382386277	 0.0055496049	 0.377001
C	-0.8729252404	-0.87169368	 0.9245315662	-0.119127
C	 0.6223624932	-0.8723987039	 1.1241122714	-0.119119
C	 0.7683475118	-2.2154870165	 0.3839187187	-0.053897
C	 1.3423173096	-1.8132061568	-0.984309887	-0.213232
C	 0.1887671659	-0.8402673854	-1.3286446864	-0.099119
C	-1.0155997477	-1.812115642	-1.2989897431	-0.213229
C	-0.8209008529	-2.2147504417	 0.1718234283	-0.053896
H	 0.9503391947	 1.8794642761	-0.3373695941	 0.115188
H	-0.8030878019	 1.8803035081	-0.5720144781	 0.115188
H	-0.1292421206	 1.8363116866	 1.061093896	 0.114884
H	-1.666926786	-0.4688108388	 1.5427567199	 0.073133
H	 1.226791873	-0.4701853722	 1.9290001589	 0.073133
H	 1.2061727909	-3.0611388886	 0.9111253752	 0.060016
H	 2.3141180472	-1.317910975	-0.8875066279	 0.088612
H	 1.4314713057	-2.6362319282	-1.7016734544	 0.085447
H	 0.3083439967	-0.2273549316	-2.2224950975	 0.051324
H	-1.9783229318	-1.3159205756	-1.4603590479	 0.088611
H	-0.9142667883	-2.6351499266	-2.0147242792	 0.085447
H	-1.3824333571	-3.059937491	 0.5656578984	 0.060018
207.719	215.7233	276.2473	415.5522	465.0358	544.0585	566.1317	646.9613	678.8357	778.2059	797.0556	809.4487	866.1784	869.1244	895.6404	901.6542	914.9496	921.7026	931.9853	958.9452	971.6302	977.3835	1029.4882	1036.0309	1072.3529	1091.0964	1104.7136	1116.2767	1152.0982	1193.4673	1196.7881	1205.393	1217.9139	1256.0247	1264.3814	1286.7483	1290.8919	1306.5445	1326.0587	1406.4478	1419.5738	1481.5218	1487.549	1501.1396	1503.5753	3017.1669	3036.172	3041.5775	3073.9598	3085.107	3088.1497	3091.5955	3111.4308	3125.5801	3134.8986	3166.4503	3179.509
CC12C3C1C1CC2CC31	C[C@]12[C@@H]3[C@H]1[C@@H]1C[C@H]2C[C@H]31	
InChI=1S/C9H12/c1-9-4-2-5-6(3-4)8(9)7(5)9/h4-8H,2-3H2,1H3	InChI=1S/C9H12/c1-9-4-2-5-6(3-4)8(9)7(5)9/h4-8H,2-3H2,1H3/t4-,5+,6-,7+,8-,9+
