21
gdb 119709	3.12024	0.9809	0.89604	1.7164	78.91	-0.232	0.0631	0.2951	1423.8098	0.181497	-424.185232	-424.17587	-424.174926	-424.219739	35.052	
C	 0.0698903879	 1.4806149801	 0.0108883268	-0.384378
C	-0.0510405274	-0.0342744354	 0.190122796	-0.162377
C	-1.4567824767	-0.5617807619	-0.1406602661	-0.30527
C	-1.5620431858	-2.0459947469	 0.0085912867	 0.412499
O	-0.7495619284	-2.8618036112	-0.8674153878	-0.343395
C	-1.8498897966	-3.8055759797	-1.0372962894	-0.104043
C	-2.6978699288	-3.0721955245	-0.012094682	-0.250501
C	-1.8437594499	-2.8576989272	 1.230160607	 0.086055
O	-0.940910445	-3.8037040587	 1.7083139826	-0.440012
H	 1.0799051525	 1.8289332568	 0.2474365915	 0.1142
H	-0.1512353183	 1.7767829911	-1.0205938445	 0.115694
H	-0.6284979656	 2.0151800764	 0.6647090152	 0.113002
H	 0.6754587726	-0.5452237353	-0.4520524473	 0.116948
H	 0.2010737929	-0.3093298878	 1.2217890608	 0.103187
H	-2.1986933229	-0.0933508751	 0.5185442317	 0.101749
H	-1.7236065364	-0.2811983155	-1.1682115247	 0.103418
H	-2.236125958	-3.753424747	-2.0600702771	 0.114103
H	-1.5520743769	-4.832856469	-0.7995791394	 0.112226
H	-3.772495122	-2.9460844453	-0.0369620545	 0.097996
H	-2.3567441466	-2.3384380876	 2.0352645151	 0.104212
H	-0.2215744306	-3.8289187364	 1.0621241993	 0.294685
70.6192	92.2413	105.2936	227.4189	243.1048	257.0935	283.5803	324.6202	346.3118	453.5377	530.2436	614.1301	739.4006	745.1269	788.9295	806.4217	867.5326	902.6546	929.1911	965.6822	975.2671	985.5789	1008.9296	1042.6128	1052.8271	1100.5386	1123.3128	1146.8065	1164.871	1195.8784	1242.3517	1267.7747	1305.5719	1308.3503	1333.2555	1336.7843	1376.6856	1398.4505	1412.5931	1471.8298	1485.215	1494.4123	1499.5535	1509.838	1516.4434	3014.7305	3028.392	3032.8741	3034.8593	3050.1215	3071.5496	3086.1284	3098.1884	3103.8093	3154.3515	3196.0108	3748.0311
CCCC12OCC1C2O	CCC[C@]12OC[C@H]1[C@H]2O	
InChI=1S/C7H12O2/c1-2-3-7-5(4-9-7)6(7)8/h5-6,8H,2-4H2,1H3	InChI=1S/C7H12O2/c1-2-3-7-5(4-9-7)6(7)8/h5-6,8H,2-4H2,1H3/t5-,6+,7-/m0/s1
