16
gdb 60766	4.45218	0.89966	0.75196	1.0637	73.52	-0.262	-0.0252	0.2368	1439.803	0.123651	-471.246177	-471.236704	-471.23576	-471.281428	32.146	
C	-0.0298282284	 1.4698452519	-0.1114310471	-0.345718
N	-0.0082237305	 0.005581222	-0.0262598518	-0.176793
C	-0.0032103293	-0.6264536486	 1.2202662644	 0.103376
N	-0.0171231091	 0.0388623099	 2.3005580425	-0.467683
C	 0.0082338766	-0.7948968806	-1.1453933173	 0.561145
O	 0.02693387	-2.0017431134	-1.1541479244	-0.395966
O	 0.0001305775	-0.0100939151	-2.2690894782	-0.226014
C	 0.0152254623	-0.6507692676	-3.4851208208	 0.120484
N	 0.0079040727	 0.0629430512	-4.5191316723	-0.423164
H	 0.8534541929	 1.8358217608	-0.6380174432	 0.148268
H	-0.9214351647	 1.8095045034	-0.6416515791	 0.148223
H	-0.0375473228	 1.8435900976	 0.910524423	 0.177451
H	 0.0135620048	-1.7114547195	 1.1174352854	 0.146449
H	-0.010481959	-0.5913147907	 3.09956891	 0.236721
H	 0.0322205233	-1.7359850104	-3.3882135079	 0.150768
H	 0.0207430738	-0.5305519907	-5.3472265331	 0.242453
62.751	87.9788	110.1589	138.8134	152.8377	185.853	291.9736	314.7855	351.9216	423.4762	503.8345	612.0502	748.7241	771.4346	830.4595	849.985	876.6366	984.1333	1069.7509	1077.9628	1079.1216	1144.9559	1159.0726	1200.5738	1265.5781	1348.6312	1363.516	1385.6673	1417.4921	1463.9554	1501.3901	1506.6304	1722.511	1750.3493	1821.8128	3068.0029	3136.8105	3139.3329	3146.0599	3181.072	3511.2801	3516.9949
CN(C=N)C(=O)OC=N	CN(C=N)C(=O)O[CH][NH]	
InChI=1S/C4H7N3O2/c1-7(2-5)4(8)9-3-6/h2-3,5-6H,1H3	InChI=1S/C4H7N3O2/c1-7(2-5)4(8)9-3-6/h2-3,5-6H,1H3
