24
gdb 119968	2.98863	0.77733	0.72631	0.6197	86.56	-0.2131	0.0751	0.2882	1710.6368	0.215281	-405.511572	-405.500358	-405.499414	-405.548642	40.041	
C	-0.2070417119	 1.5062598545	 1.5980003895	-0.380065
C	-0.0720020856	 0.4487050072	 0.494322132	-0.198775
C	-1.350627598	-0.3441806606	 0.2937038482	-0.008255
C	-1.3927508874	-1.6944036073	-0.3500662642	-0.031942
C	-0.1576198235	-2.4051240054	-0.8669039942	-0.201754
C	-0.3665861587	-3.9120458939	-0.9894292002	-0.071252
O	 0.8120257721	-4.4663425925	-1.553739211	-0.422644
N	-1.718941527	-1.5319261249	 1.0732089346	-0.103953
C	-0.8353511457	-2.0502734369	 2.1048860197	-0.317975
H	 0.7081091517	 2.0991023269	 1.6909799117	 0.111688
H	-1.0316821699	 2.1946372912	 1.3833357296	 0.117438
H	-0.4088737277	 1.0443794047	 2.5696732169	 0.121741
H	 0.1709092533	 0.9446604498	-0.4546888209	 0.101856
H	 0.7749203457	-0.2064722245	 0.7148362998	 0.099526
H	-2.2085746163	 0.3067824327	 0.1121908548	 0.079908
H	-2.2783409934	-1.9193736967	-0.9481025868	 0.08032
H	 0.0890763843	-2.0149062434	-1.8623815255	 0.109565
H	 0.7190629168	-2.2258520548	-0.2401961115	 0.106876
H	-0.5770392327	-4.3435629261	 0.0020238863	 0.09115
H	-1.2465134288	-4.1118591422	-1.6228164876	 0.086272
H	 0.6905132625	-5.4169947337	-1.6309262479	 0.285701
H	 0.2431331576	-1.9843690085	 1.9016875319	 0.102305
H	-1.0315964073	-1.5105880899	 3.0374020833	 0.122152
H	-1.0772661802	-3.1046918556	 2.2767709417	 0.120117
55.8294	75.5658	87.6002	94.5571	168.6308	201.7499	232.5376	257.3673	268.7704	286.194	297.0621	392.609	509.3701	532.6765	554.4517	731.1598	734.7033	795.7512	834.9648	851.8491	972.2057	1015.7054	1043.848	1065.5187	1069.7863	1081.9388	1099.6635	1139.4699	1150.1339	1167.2322	1184.4688	1201.2336	1232.8044	1242.6526	1285.5528	1311.8072	1319.9551	1337.7407	1352.2986	1403.5838	1412.0665	1442.0541	1460.2077	1465.2966	1473.7356	1481.5877	1498.3629	1499.9023	1508.1182	1509.9408	1527.1859	2963.8427	2990.9809	2994.4583	3025.15	3033.6903	3038.2472	3060.6174	3065.2044	3076.3351	3084.4314	3091.0291	3103.5134	3107.3899	3111.6899	3831.5439
CCC1C(CCO)N1C	CC[C@H]1[C@@H](CCO)N1C	
InChI=1S/C7H15NO/c1-3-6-7(4-5-9)8(6)2/h6-7,9H,3-5H2,1-2H3	InChI=1S/C7H15NO/c1-3-6-7(4-5-9)8(6)2/h6-7,9H,3-5H2,1-2H3/t6-,7+,8?/m0/s1
