18
gdb 56334	3.15656	0.72434	0.67493	1.7614	69.94	-0.2436	-0.0349	0.2087	1659.2817	0.144926	-476.248868	-476.238576	-476.237632	-476.286565	34.967	
N	 0.1124630015	-0.6602926503	-1.0721131662	-0.503874
C	-0.0614369574	-0.51018641	 0.2656688787	 0.362674
O	 0.822923734	-0.2478549027	 1.0560623872	-0.360404
C	-1.5149957431	-0.6657673674	 0.7326544181	-0.18451
O	-2.3938384768	-1.1913906209	-0.2479423308	-0.246514
C	-2.7958721117	-2.5360746251	-0.0537661562	-0.082042
C	-1.6961128023	-3.5688526085	-0.367974549	-0.291379
C	-2.1712252317	-4.9702876806	-0.0542688557	 0.155827
O	-2.3464915147	-5.8342304851	-0.8734719796	-0.229404
H	 1.0209405012	-0.4906664419	-1.4701229945	 0.264923
H	-0.6858988519	-0.8108830709	-1.6650690603	 0.269385
H	-1.5100710165	-1.2654226469	 1.6502444392	 0.126829
H	-1.8737899027	 0.3353907081	 1.0006433787	 0.143509
H	-3.1572040581	-2.6739397772	 0.9769722412	 0.106452
H	-3.6452605711	-2.688335923	-0.726174806	 0.130931
H	-1.4041088595	-3.5168876459	-1.4194192336	 0.125813
H	-0.8167930515	-3.3619316238	 0.2559551772	 0.133344
H	-2.3702162177	-5.158609318	 1.0268050716	 0.078441
31.3131	56.5476	59.9637	73.8288	120.771	221.3486	287.077	316.734	344.389	436.798	503.5921	507.8027	529.6538	565.025	682.5168	788.9496	861.8793	870.9552	949.3727	984.7323	1023.4085	1084.2969	1093.6384	1124.4358	1152.0472	1243.1075	1281.272	1288.0686	1339.3593	1358.6729	1372.6249	1416.4073	1430.5747	1461.0306	1471.1824	1501.4019	1593.3291	1810.1815	1836.0837	2858.1211	2990.5596	3031.5556	3033.4939	3078.2338	3086.9097	3119.7723	3600.9544	3741.186
NC(=O)COCCC=O	NC(=O)COCCC=O	
InChI=1S/C5H9NO3/c6-5(8)4-9-3-1-2-7/h2H,1,3-4H2,(H2,6,8)	InChI=1S/C5H9NO3/c6-5(8)4-9-3-1-2-7/h2H,1,3-4H2,(H2,6,8)
