17
gdb 79542	2.43619	1.86142	1.26674	4.2986	77.3	-0.2502	0.0065	0.2568	1006.1859	0.136459	-380.821007	-380.813235	-380.812291	-380.85309	30.041	
C	-0.2090598427	 1.5007530811	 0.0194964724	-0.427801
C	 0.0548079925	 0.0180974241	-0.0926311553	 0.018655
C	 0.653331976	-0.6818477137	-1.2533753722	-0.065783
C	 1.7496664331	 0.0960396435	-1.9291343515	-0.146119
C	 3.0727425794	-0.5639054832	-1.6432886334	-0.319565
C	 2.3999388938	 0.213602092	-0.5426343752	 0.239459
C	 3.009211556	 1.3272501195	 0.111802106	 0.224787
N	 3.4998441773	 2.2312644044	 0.6426338975	-0.354727
N	 1.3748112632	-0.6341409755	 0.112389592	-0.189035
H	 0.4895607857	 2.1075040915	-0.5579508232	 0.139351
H	-1.2202331849	 1.7155576728	-0.3416921725	 0.126663
H	-0.1517980495	 1.8201389015	 1.0646968323	 0.142907
H	-0.6960808633	-0.5856487938	 0.4152068221	 0.106259
H	 0.2557168911	-1.6198355121	-1.6289394728	 0.11016
H	 1.6329797846	 0.8492535709	-2.6990876088	 0.119448
H	 3.1385226642	-1.6421299001	-1.532503477	 0.13542
H	 3.9406700734	-0.0858773329	-2.0854450504	 0.139921
119.3794	150.3141	188.4321	235.8717	282.3924	392.5806	452.9763	514.111	557.7344	579.4856	660.9716	704.5814	775.2088	818.1778	852.1132	906.2088	913.3775	979.7663	1007.1121	1013.0387	1039.72	1076.8785	1088.7387	1102.9047	1122.9481	1162.7946	1184.9429	1253.0555	1268.6532	1347.2156	1362.3033	1413.6131	1439.0955	1482.4897	1490.4578	1498.0209	2346.3732	3045.6765	3105.7018	3122.4093	3126.7392	3144.9341	3162.7585	3184.4333	3221.9703
CC1C2C3CC3(C#N)N12	C[C@H]1[C@H]2[C@@H]3C[C@]3(C#N)N12	
InChI=1S/C7H8N2/c1-4-6-5-2-7(5,3-8)9(4)6/h4-6H,2H2,1H3	InChI=1S/C7H8N2/c1-4-6-5-2-7(5,3-8)9(4)6/h4-6H,2H2,1H3/t4-,5-,6-,7+,9?/m0/s1
