21
gdb 108428	2.2043	1.6183	1.17648	2.703	82.41	-0.2325	-0.0169	0.2156	1154.0021	0.181812	-387.09417	-387.085145	-387.084201	-387.12828	34.043	
C	-0.1245396744	 1.5859637381	-0.0722737818	-0.385317
C	-0.0928728653	 0.0514039498	-0.0664733542	-0.293259
C	 0.7500320522	-0.5222296389	-1.1913755078	 0.254575
C	 0.2367997263	-0.3538532938	-2.6649736322	-0.279305
C	 0.3919006242	-1.8825451402	-2.9098725658	-0.21892
C	 0.989009834	-2.0626927705	-1.4932857419	-0.101552
C	 2.5260163347	-1.8532267025	-1.4080946273	-0.355225
C	 2.2745918758	-0.3614106572	-1.1164447955	 0.363253
O	 2.9949335087	 0.5622960233	-0.8585345408	-0.308586
H	 0.8853530183	 1.9928855264	 0.0222915164	 0.148081
H	-0.5542844471	 1.969267519	-1.0040363949	 0.115016
H	-0.731664668	 1.9663654079	 0.7547277455	 0.110143
H	 0.2967596924	-0.3035150582	 0.896504153	 0.098396
H	-1.1135245199	-0.3456281829	-0.1506446619	 0.094148
H	-0.7983538665	-0.0046923187	-2.7010769403	 0.111102
H	 0.835362037	 0.3039511334	-3.2998457739	 0.112713
H	-0.5671281113	-2.3889906517	-3.041450553	 0.105622
H	 1.0449369087	-2.1773158955	-3.7362467789	 0.100637
H	 0.5782733809	-2.8496176873	-0.8606937612	 0.071861
H	 2.9991952616	-2.3494780753	-0.553892105	 0.132456
H	 3.1164450578	-2.0779933952	-2.3017820784	 0.124159
50.6478	104.0124	132.7017	195.8568	220.4532	287.2236	302.1016	397.9284	455.9382	510.4858	587.7542	663.4185	736.7319	764.724	797.8093	821.4013	872.8889	896.7057	945.2668	971.6751	984.104	1010.5181	1039.8288	1048.3871	1062.9173	1114.2075	1116.8812	1180.7593	1191.3705	1220.0106	1224.5639	1246.5022	1273.401	1290.382	1309.9889	1330.3492	1357.0753	1409.658	1432.6942	1477.4568	1486.0306	1497.7095	1497.7688	1511.7514	1870.7556	3010.0145	3037.7465	3044.2186	3047.4762	3054.2926	3061.1726	3095.5037	3097.4836	3101.9517	3109.6319	3118.4046	3127.5527
CCC12CCC1CC2=O	CC[C@]12CC[C@H]1CC2=O	
InChI=1S/C8H12O/c1-2-8-4-3-6(8)5-7(8)9/h6H,2-5H2,1H3	InChI=1S/C8H12O/c1-2-8-4-3-6(8)5-7(8)9/h6H,2-5H2,1H3/t6-,8-/m0/s1
