18
gdb 13905	2.73755	1.96635	1.42665	3.2025	68.92	-0.2377	0.0455	0.2832	940.274	0.15316	-381.142914	-381.13403	-381.133086	-381.176109	32.525	
C	 0.234334988	 1.4612175932	 0.2904695289	-0.403604
C	-0.0493583768	 0.0117969175	-0.0279370027	-0.022824
C	 0.6242930238	-0.7330804213	-1.1521303451	 0.002766
C	 1.6309837955	-0.1042835026	-2.0884352815	-0.402622
N	 0.930388806	-1.0447418821	 0.2325305038	-0.133026
C	 2.1890366038	-0.8846319076	 0.816527554	 0.400628
N	 2.1182934841	-0.4347387196	 2.1234518101	-0.535025
O	 3.236519303	-1.1487535945	 0.2616168139	-0.379851
H	 1.2478266657	 1.7593629276	 0.0165926947	 0.136149
H	-0.4719745703	 2.102648697	-0.2472586909	 0.123762
H	 0.1149684751	 1.6552961832	 1.3610655818	 0.124389
H	-1.0691943203	-0.291928386	 0.2106694306	 0.091151
H	 0.0270692461	-1.5119971135	-1.6267744122	 0.093272
H	 2.2008801206	 0.6993586767	-1.620954543	 0.130429
H	 2.3507095815	-0.8542750352	-2.4244923556	 0.147452
H	 1.1116203742	 0.2981907778	-2.9648939669	 0.111949
H	 1.2626623087	-0.6090428602	 2.6269711206	 0.255421
H	 2.9665321514	-0.5789313804	 2.6494860295	 0.259584
76.8931	152.6236	158.5311	173.3591	179.2938	269.0656	332.3431	453.8339	458.3722	475.3514	494.15	553.8159	631.488	707.0388	780.15	810.9009	838.5041	964.8954	1019.6466	1032.1884	1069.3097	1111.3354	1137.7422	1168.31	1172.8062	1204.8225	1287.2269	1382.1298	1405.9027	1418.5479	1424.0702	1445.0726	1477.683	1480.9316	1494.7952	1506.1127	1616.3536	1794.4504	3042.0991	3047.3253	3090.1628	3100.8768	3101.8924	3119.0465	3136.6799	3148.7779	3581.0944	3701.3655
CC1C(C)N1C(N)=O	C[C@H]1[C@@H](C)N1C(=O)N	
InChI=1S/C5H10N2O/c1-3-4(2)7(3)5(6)8/h3-4H,1-2H3,(H2,6,8)	InChI=1S/C5H10N2O/c1-3-4(2)7(3)5(6)8/h3-4H,1-2H3,(H2,6,8)/t3-,4+,7?
