21
gdb 65262	3.12693	1.26184	1.04713	1.2393	77.68	-0.252	0.0853	0.3373	1212.2169	0.18286	-424.214325	-424.205489	-424.204545	-424.248175	33.295	
C	-0.0627551556	 1.5130724247	 0.296479004	-0.470447
C	 0.0032447071	 0.0296134371	-0.0150503731	 0.334417
C	 1.3095059433	-0.551022496	-0.4981946104	-0.301063
C	 0.8135817173	-0.8553464481	 0.8973601572	-0.306303
C	-1.2932943477	-0.5219966146	-0.5829997049	 0.048573
C	-1.6777498335	 0.0279405404	-1.9717718412	-0.124178
O	-2.3391873745	-1.068269099	-2.5863739872	-0.235184
C	-1.640960981	-2.196605046	-2.1347695774	 0.023186
O	-1.2275973625	-1.9355440765	-0.8047479906	-0.276512
H	 0.8728943198	 1.8578562549	 0.7461764464	 0.119076
H	-0.2339932349	 2.1129446885	-0.6054668916	 0.11767
H	-0.8719711354	 1.7352408007	 1.0027916525	 0.117959
H	 1.2726221873	-1.3602687537	-1.2181337945	 0.116328
H	 2.1533124511	 0.1209277787	-0.6144608755	 0.105292
H	 1.318081185	-0.3898412507	 1.7377137353	 0.104572
H	 0.4486395131	-1.8586113976	 1.0810488013	 0.128057
H	-2.1062781547	-0.3288789324	 0.1331642808	 0.078797
H	-2.3694052425	 0.8713125514	-1.939233075	 0.120376
H	-0.7776477626	 0.314818154	-2.5376016696	 0.098931
H	-2.3137231795	-3.0604200461	-2.1533586496	 0.116248
H	-0.7557926193	-2.3935757296	-2.766344587	 0.084207
64.0316	84.8089	184.1217	214.822	238.6824	275.3921	311.5308	337.3153	443.0243	494.2497	627.2645	742.439	755.6869	789.5241	877.9934	880.7798	929.8692	952.4668	976.8839	989.2108	1014.5115	1044.0697	1052.8251	1071.9135	1087.7748	1111.3226	1123.2417	1138.0741	1180.0719	1192.1879	1209.5666	1266.8978	1288.1665	1323.7692	1353.4147	1367.5301	1394.5248	1418.4132	1435.3012	1456.5485	1491.6597	1494.9469	1508.8263	1509.5844	1546.4869	2936.301	2980.5142	2992.339	3019.8631	3069.2357	3076.5047	3101.8719	3116.9715	3133.6093	3137.1046	3218.3072	3231.7926
CC1(CC1)C1COCO1	CC1(CC1)[C@H]1COCO1	
InChI=1S/C7H12O2/c1-7(2-3-7)6-4-8-5-9-6/h6H,2-5H2,1H3	InChI=1S/C7H12O2/c1-7(2-3-7)6-4-8-5-9-6/h6H,2-5H2,1H3/t6-/m1/s1
