20
gdb 58876	2.5976	1.41734	1.09168	2.6755	74.8	-0.23	0.0621	0.2921	1163.9166	0.170353	-440.24029	-440.231088	-440.230144	-440.274017	35.139	
C	-0.0100955987	 1.5038207615	 0.1866865807	-0.416078
C	 0.0071906419	-0.0066377465	-0.0649719946	-0.032349
O	 0.6058914412	-0.7195742192	 1.0175364559	-0.444253
C	-1.3821701396	-0.5524344062	-0.2210427603	 0.384652
N	-2.2509775484	-0.7836990777	 0.9608311205	-0.405981
C	-1.9658378811	-1.8984034663	 0.0126316289	-0.118482
C	-2.9696202171	-1.7307292028	-1.127859325	-0.260776
C	-2.3788139187	-0.284460435	-1.3630242435	 0.066886
O	-3.2181656886	 0.8252071368	-1.1993785036	-0.439024
H	 1.0095828573	 1.902807192	 0.2370424465	 0.103541
H	-0.5410175841	 2.0234150327	-0.6162438146	 0.143988
H	-0.5192855355	 1.7230892385	 1.1299467194	 0.129622
H	 0.5630473961	-0.2072021361	-0.9962628081	 0.074274
H	 1.4267937397	-0.275081052	 1.2503434385	 0.287579
H	-1.6088629441	-0.8972846916	 1.7457028667	 0.24112
H	-1.4798447832	-2.7995127946	 0.3631691656	 0.104165
H	-2.794141044	-2.3963774	-1.9761274471	 0.101999
H	-4.0233692603	-1.7644694771	-0.8397522623	 0.104201
H	-1.901539969	-0.1882369397	-2.3417273206	 0.086193
H	-3.5120859934	 0.7810924736	-0.2783513731	 0.288722
76.4762	119.0706	186.6203	200.2563	248.8449	256.691	312.3846	321.5546	437.2578	446.0621	507.2491	541.6816	636.9739	686.951	696.1443	827.6147	874.3871	896.7681	922.2725	938.7959	989.0764	1021.6934	1035.2043	1053.0502	1104.0671	1112.4844	1128.403	1139.9531	1168.7745	1197.7023	1208.0704	1255.0764	1291.0399	1312.9723	1352.0741	1364.6721	1391.0476	1407.4231	1443.0987	1457.3089	1479.6065	1490.6295	1507.7151	2958.9803	3030.9955	3062.3475	3081.5534	3103.4208	3122.3052	3123.1836	3204.609	3474.4225	3742.6955	3826.5985
CC(O)C12NC1CC2O	C[C@@H](O)[C@]12N[C@H]1C[C@H]2O	
InChI=1S/C6H11NO2/c1-3(8)6-4(7-6)2-5(6)9/h3-5,7-9H,2H2,1H3	InChI=1S/C6H11NO2/c1-3(8)6-4(7-6)2-5(6)9/h3-5,7-9H,2H2,1H3/t3-,4+,5-,6+/m1/s1
