18
gdb 99497	2.64739	1.06971	0.86944	3.8807	74.46	-0.2403	-0.0024	0.2379	1390.4252	0.146491	-435.263623	-435.253472	-435.252528	-435.299452	35.092	
C	 0.2178805196	 1.5151050125	-0.0116864735	-0.327951
N	-0.2473924298	 0.1786374866	-0.3579629164	-0.273895
C	 0.5698843466	-0.5388841165	-1.3084797404	-0.164115
C	 2.0223799751	-0.5708690348	-0.9735986277	 0.268106
N	 3.1376144697	-0.5504136462	-0.669457665	-0.333176
C	 0.0944927154	-1.9857904856	-1.4387892872	 0.422803
N	-0.5087682291	-2.547136726	-0.4822628735	-0.529825
O	 0.456424982	-2.4705768051	-2.6452055886	-0.224864
C	 0.1901210277	-3.8448464093	-2.9072207397	-0.270525
H	 1.2335868891	 1.5478202903	 0.4130156596	 0.126163
H	 0.2063910496	 2.1510426557	-0.9044380672	 0.123832
H	-0.4760982295	 1.9483382658	 0.7128389768	 0.128516
H	-0.3901104334	-0.4083818968	 0.4568556482	 0.248348
H	 0.4881698938	-0.0686373754	-2.2964972985	 0.143378
H	-0.7670434107	-3.513863496	-0.6663179996	 0.230401
H	-0.8867533337	-4.0485609949	-2.8921214421	 0.13747
H	 0.5826292602	-4.0416866351	-3.9046284848	 0.152887
H	 0.6962406172	-4.4890015994	-2.1794348404	 0.142447
44.0254	101.9077	108.5976	152.9167	186.6422	205.2346	209.0049	260.4281	318.5619	367.131	403.9571	440.4916	602.0254	636.628	725.8476	754.3667	853.4134	902.0405	938.6334	987.139	1032.1793	1117.9746	1155.9894	1160.4897	1175.7222	1215.5875	1221.7688	1260.1985	1332.9661	1363.6497	1462.3138	1473.9513	1488.1159	1492.2393	1497.1712	1503.2941	1521.0038	1751.4498	2341.8123	2983.487	3024.1632	3038.1507	3061.9967	3092.0585	3115.1752	3155.4229	3521.8315	3542.9384
CNC(C#N)C(=N)OC	CN[C@@H](C#N)[C]([NH])OC	
InChI=1S/C5H9N3O/c1-8-4(3-6)5(7)9-2/h4,7-8H,1-2H3	InChI=1S/C5H9N3O/c1-8-4(3-6)5(7)9-2/h4,7-8H,1-2H3/t4-/m0/s1
