15
gdb 16084	4.62504	1.7262	1.47818	2.031	72.48	-0.2329	-0.0019	0.231	857.5268	0.119538	-325.473324	-325.466587	-325.465643	-325.50389	26.771	
C	-0.019022887	-1.17637311	 0.0543340803	-0.397294
C	 0.0203956653	 0.024991957	 0.0244402256	 0.265205
C	 0.0381363389	 1.4570915953	-0.0596745622	 0.106812
C	-0.9343504973	 2.1499710002	-1.0288894345	-0.337191
C	-0.1958002797	 3.4012345637	-1.450093889	-0.089969
C	 1.0396734785	 3.4477937265	-0.943813848	-0.076323
C	 1.2971322191	 2.2935469398	-0.0344474657	-0.105277
N	 0.4356823119	 2.1913585527	 1.1590180248	-0.352807
H	-0.044627326	-2.2369305646	 0.09618994	 0.189712
H	-1.1452210089	 1.4986259057	-1.8854115627	 0.129549
H	-1.9012289656	 2.3624872107	-0.5552585059	 0.121047
H	-0.650172407	 4.1607376614	-2.0758395546	 0.105
H	 1.7708375946	 4.2275099848	-1.1210313602	 0.106255
H	 2.2865086111	 1.8631381214	 0.0752483885	 0.107345
H	-0.122257428	 3.0399871655	 1.2457175036	 0.227936
145.9333	159.5373	309.4623	362.665	468.2982	506.8208	535.4041	583.1415	604.1841	655.0173	722.7018	744.0523	766.8422	860.0787	908.8279	942.6642	955.4059	987.7151	991.175	1057.981	1101.5811	1133.9051	1159.911	1169.0692	1253.0045	1289.2257	1305.4429	1366.3549	1401.0124	1470.68	1661.3613	2241.0667	3030.6904	3062.2105	3174.7439	3192.5917	3217.006	3469.1822	3504.0962
C#CC12CC=CC1N2	C#C[C@]12CC=C[C@H]1N2	
InChI=1S/C7H7N/c1-2-7-5-3-4-6(7)8-7/h1,3-4,6,8H,5H2	InChI=1S/C7H7N/c1-2-7-5-3-4-6(7)8-7/h1,3-4,6,8H,5H2/t6-,7+/m1/s1
