17
gdb 113746	4.37854	0.83906	0.77295	2.0773	69.68	-0.2698	0.0167	0.2865	1439.5636	0.135275	-455.112608	-455.103084	-455.10214	-455.147725	33.769	
N	-0.2000694128	 1.4586496734	-0.0561975082	-0.496099
C	 0.0150441223	 0.0185355748	-0.1297951491	-0.156326
C	 1.0193902318	-0.3630121555	-1.1530891185	 0.247664
N	 1.7947813884	-0.6227199407	-1.9703355225	-0.31345
C	 0.4451812519	-0.5649640087	 1.2224725058	 0.060293
O	 1.1363650566	 0.3041709453	 2.110922953	-0.258859
C	-0.1376554917	-0.2391990127	 2.5332512596	 0.029225
C	-1.257129465	 0.7305841751	 2.8232930917	-0.111184
O	-1.1193694179	 1.2749756826	 4.1277644184	-0.415945
H	 0.6313755009	 1.8954239411	 0.3306610096	 0.255087
H	-0.3547345882	 1.8399980056	-0.983489646	 0.251054
H	-0.9271129562	-0.4652672746	-0.4198213309	 0.145478
H	 0.8951440929	-1.5532071418	 1.1181930878	 0.118085
H	-0.0264304383	-1.0032017058	 3.3052372013	 0.108873
H	-1.3069751553	 1.5003270231	 2.0478034713	 0.130899
H	-2.2062235556	 0.1820765721	 2.8257130446	 0.114161
H	-0.320408254	 1.8128763167	 4.1305310122	 0.291046
47.2356	74.0648	127.6946	173.1491	223.7419	260.3244	275.3508	319.2748	368.0789	410.299	459.0311	564.5217	582.3629	671.7123	795.2191	811.5916	863.3975	944.944	966.3302	977.916	1054.9055	1069.5423	1119.8448	1140.2868	1174.1193	1206.1238	1233.4946	1304.8268	1321.5545	1354.0769	1388.0954	1403.2487	1426.1351	1485.8237	1503.8545	1644.2322	2346.3794	3029.165	3044.5643	3089.7552	3101.8033	3110.9992	3505.6309	3592.4067	3811.8842
NC(C#N)C1OC1CO	N[C@@H](C#N)[C@H]1O[C@H]1CO	
InChI=1S/C5H8N2O2/c6-1-3(7)5-4(2-8)9-5/h3-5,8H,2,7H2	InChI=1S/C5H8N2O2/c6-1-3(7)5-4(2-8)9-5/h3-5,8H,2,7H2/t3-,4-,5+/m0/s1
