20
gdb 93102	2.1909	1.76594	1.26463	1.7295	74.73	-0.2408	0.0245	0.2653	1070.8194	0.170297	-440.305533	-440.296319	-440.295375	-440.338801	35.146	
C	-0.012371914	 1.5513003247	-0.0785387575	-0.424423
C	 0.0430270873	 0.0396208514	 0.0512418396	 0.142252
O	 0.621894865	-0.4741161548	-1.1673371624	-0.243472
C	 1.0211432566	-1.7674129951	-1.1455403059	 0.127829
N	 1.1148662677	-2.5597267897	-0.1653601165	-0.270947
C	 0.7815708619	-2.0419580771	 1.1583024271	-0.201839
C	 0.8144845016	-0.5047347724	 1.2703380979	 0.297448
C	 2.2509695523	 0.02025041	 1.3538268583	-0.434246
O	 0.0523574963	-0.0746217532	 2.398697195	-0.471147
H	 0.9807154307	 1.9691595153	-0.2621444569	 0.125853
H	-0.656818561	 1.8315183843	-0.9158791338	 0.124613
H	-0.4170918203	 1.9819381769	 0.8395980125	 0.141325
H	-0.9790903486	-0.354440987	 0.1262203334	 0.096488
H	 1.2925574559	-2.0886311431	-2.1497042233	 0.122644
H	-0.2210237376	-2.3867423636	 1.4402588508	 0.118006
H	 1.4777182979	-2.4872199829	 1.8809249957	 0.096453
H	 2.828915093	-0.2440570786	 0.4641821619	 0.137906
H	 2.2655843348	 1.1061202664	 1.4714464841	 0.126053
H	 2.7584765813	-0.4227969646	 2.2187518823	 0.108317
H	 0.5197417492	-0.3490781269	 3.1946864776	 0.280888
116.7536	146.4168	187.3938	218.2368	229.5896	270.8651	286.5828	349.7624	390.6157	440.2838	461.1188	488.7104	550.873	560.8565	722.1062	852.0661	870.085	906.8507	957.7237	966.1703	981.5877	991.1273	1046.9023	1079.3337	1122.8826	1161.7028	1173.0184	1179.7409	1217.0976	1254.5242	1329.6506	1360.5663	1383.1575	1399.8486	1403.1219	1411.2024	1416.4836	1482.447	1487.6921	1492.6158	1495.7292	1513.824	1736.066	3016.1221	3021.8816	3036.3795	3052.3294	3055.6181	3103.9283	3125.1886	3133.2939	3144.0111	3157.6641	3811.7987
CC1OC=NCC1(C)O	C[C@H]1OC=NC[C@]1(C)O	
InChI=1S/C6H11NO2/c1-5-6(2,8)3-7-4-9-5/h4-5,8H,3H2,1-2H3	InChI=1S/C6H11NO2/c1-5-6(2,8)3-7-4-9-5/h4-5,8H,3H2,1-2H3/t5-,6+/m1/s1
