14
gdb 76024	2.66073	1.2401	1.08495	1.6606	68.82	-0.281	-0.0217	0.2593	1116.9581	0.100613	-432.863811	-432.855117	-432.854173	-432.89718	31.5	
N	-0.075531663	 1.4077354613	 0.1789643147	-0.563619
C	-0.0035843817	-0.0215989622	 0.0509589964	 0.062809
C	 1.0434066712	-0.5964241601	-0.7588345833	 0.246993
N	 1.899782941	-1.0419351767	-1.3970844254	-0.326889
C	-0.4825698632	-0.7560568374	 1.3026946085	 0.137038
O	-0.8020225205	-0.0145033849	 2.4054898456	-0.40569
C	-1.3642301434	-0.7598249161	 0.0581425134	-0.29494
C	-2.5603999153	 0.0264721947	 0.0069400102	 0.318678
N	-3.5236272224	 0.6650563636	-0.0384432727	-0.326689
H	 0.8415847758	 1.8032903148	 0.356827635	 0.264709
H	-0.4657606829	 1.8486702091	-0.6475916859	 0.269176
H	-0.013698897	-1.7013125167	 1.5512886608	 0.148892
H	-0.8880801885	 0.907206876	 2.107770851	 0.307383
H	-1.3949451801	-1.6822262054	-0.5112950584	 0.16215
100.965	127.2714	157.9027	175.5887	240.6136	280.4696	351.5937	391.8405	470.6609	497.9953	558.7506	576.9006	637.3958	660.2924	719.7894	806.0366	839.3491	865.7284	1002.3094	1039.0213	1098.2665	1133.7685	1209.0181	1252.7943	1294.8183	1348.6521	1365.1259	1455.7227	1655.723	2342.506	2357.8162	3180.1393	3192.5329	3511.5076	3595.0413	3670.038
NC1(C#N)C(O)C1C#N	N[C@@]1(C#N)[C@@H](O)[C@H]1C#N	
InChI=1S/C5H5N3O/c6-1-3-4(9)5(3,8)2-7/h3-4,9H,8H2	InChI=1S/C5H5N3O/c6-1-3-4(9)5(3,8)2-7/h3-4,9H,8H2/t3-,4+,5-/m1/s1
