22
gdb 109508	1.85768	1.37974	1.01508	4.2022	87.64	-0.2749	0.0336	0.3085	1329.4462	0.192327	-367.235713	-367.225198	-367.224254	-367.270997	38.491	
C	 0.2731759991	 1.5101399828	 0.1664510363	-0.378536
C	-0.1864521512	 0.0721912447	-0.1029185042	-0.216473
C	 0.5601657486	-0.5629153953	-1.2585760452	-0.031941
C	 1.9201169204	-1.2438826238	-1.0605442749	-0.237193
C	 2.460410325	-1.3893717	 0.2594396151	 0.297039
N	 2.891897381	-1.5066491107	 1.3277435849	-0.357961
C	 0.6820991502	-2.0452538681	-1.4895864004	 0.278217
C	 0.0683511277	-3.0342186496	-0.5163745107	-0.458058
C	 0.6823169733	-2.5258196347	-2.9296784324	-0.450096
H	 1.330973692	 1.536866114	 0.4456273541	 0.134144
H	 0.1425236507	 2.1411644552	-0.7196401101	 0.112505
H	-0.3007044441	 1.957553874	 0.9831520302	 0.117569
H	-0.0599643005	-0.5227260157	 0.806167345	 0.120246
H	-1.2595381807	 0.0631308994	-0.3329653975	 0.101672
H	 0.5233755801	 0.0322786185	-2.169400526	 0.090896
H	 2.6760448903	-1.0699230435	-1.8196076066	 0.123847
H	 0.1703775335	-2.7244002055	 0.5247240215	 0.142495
H	-0.9980289525	-3.1659502997	-0.7305936759	 0.120066
H	 0.5508241158	-4.0124924138	-0.6156636489	 0.125847
H	 1.2310860378	-3.4687194843	-3.0303766745	 0.125323
H	-0.3430753241	-2.698492873	-3.2759475243	 0.123721
H	 1.1419976376	-1.7938577309	-3.6009142157	 0.11667
66.9055	126.876	130.5134	160.9567	186.7041	194.4161	234.6092	261.571	303.6008	353.9031	380.8108	415.6588	489.1317	559.8344	616.0407	702.2398	769.2277	818.9518	826.6888	949.5632	954.1039	972.3563	995.2506	1019.14	1043.9519	1073.1363	1126.1561	1137.8285	1149.8916	1168.1669	1247.4292	1298.7451	1326.0053	1333.2957	1375.99	1411.3947	1414.4194	1427.6779	1445.5003	1479.4256	1484.8529	1491.3306	1499.4471	1501.0421	1505.7714	1512.7193	2342.4783	3026.2711	3028.071	3035.2876	3037.1953	3080.9439	3090.1818	3094.4834	3102.6893	3105.4863	3114.0218	3123.7743	3136.7483	3160.7109
CCC1C(C#N)C1(C)C	CC[C@H]1[C@@H](C#N)C1(C)C	
InChI=1S/C8H13N/c1-4-6-7(5-9)8(6,2)3/h6-7H,4H2,1-3H3	InChI=1S/C8H13N/c1-4-6-7(5-9)8(6,2)3/h6-7H,4H2,1-3H3/t6-,7+/m0/s1
