19
gdb 117140	4.09589	0.8628	0.72233	2.0556	77.42	-0.2464	0.0034	0.2498	1567.7494	0.158093	-456.396327	-456.385973	-456.385029	-456.433048	35.282	
C	-0.17050752	 1.4861651946	-0.0280486732	-0.393512
C	-0.0382643258	-0.0239948592	-0.0279463145	-0.040276
O	-1.3705608895	-0.5755423886	-0.0024895601	-0.268346
C	-1.4322321595	-1.9199575792	 0.000583451	 0.538261
O	-0.4682830417	-2.6514518739	-0.0162252191	-0.409911
N	-2.7530002052	-2.3428944661	 0.0256740979	-0.16703
C	-3.8667446595	-1.3947375049	 0.0449011756	-0.340844
C	-2.9968800752	-3.7132368509	 0.0320464801	 0.100301
N	-4.1776029567	-4.1835050298	 0.0545161474	-0.477351
H	 0.8233097573	 1.9428679621	-0.0473090556	 0.126382
H	-0.7250156171	 1.8308264926	-0.905387046	 0.130986
H	-0.6920540811	 1.8338799875	 0.8680954172	 0.130984
H	 0.4790660103	-0.3916309077	-0.9192084708	 0.126358
H	 0.5115314488	-0.3886690743	 0.8449108043	 0.126344
H	-3.8472982978	-0.7601161936	-0.8439939572	 0.136195
H	-4.783482135	-1.9815461424	 0.0627810484	 0.173271
H	-3.8143818752	-0.7574569759	 0.9305554047	 0.136198
H	-2.0661244394	-4.2808153599	 0.0156287779	 0.141248
H	-4.1457133378	-5.2005144504	 0.0553260819	 0.230741
32.319	73.5187	96.5509	127.2421	133.7661	191.671	259.9045	292.3807	292.5771	339.5421	369.6687	460.0211	563.7153	745.104	779.6456	808.1184	825.519	861.4814	898.2606	1027.5152	1079.6332	1082.9145	1132.875	1159.2703	1159.655	1184.3118	1221.0482	1291.2422	1340.155	1370.5175	1397.3231	1414.1963	1425.4618	1464.2133	1485.7548	1496.4999	1499.5122	1508.1629	1523.3373	1718.9265	1805.9514	3047.1569	3055.9284	3059.1468	3094.2572	3122.4459	3123.3038	3127.4829	3136.2631	3174.0403	3515.4742
CCOC(=O)N(C)C=N	CCOC(=O)N(C)C=N	
InChI=1S/C5H10N2O2/c1-3-9-5(8)7(2)4-6/h4,6H,3H2,1-2H3	InChI=1S/C5H10N2O2/c1-3-9-5(8)7(2)4-6/h4,6H,3H2,1-2H3
