16
gdb 16306	3.59341	1.68729	1.41826	3.876	66.69	-0.2444	-0.024	0.2204	902.7419	0.129576	-383.720164	-383.712562	-383.711618	-383.752025	28.262	
O	 0.1149784185	 1.4702182366	 0.0348045007	-0.430143
C	 0.0334718596	 0.0636994407	 0.0586439755	 0.020128
C	 0.1799428745	-0.6762311573	 1.4366766644	-0.270149
C	-1.2380628566	-1.2263439468	 1.2719387596	-0.079835
C	-2.2223613983	-0.1275291916	 1.1371211591	-0.316866
C	-1.3900520993	-0.4552223389	-0.0850873745	 0.27305
C	-2.0019235466	-0.9838637252	-1.3113703001	 0.04776
O	-3.0972670062	-1.4953852583	-1.3721087308	-0.278026
H	 1.0349452191	 1.7240223006	 0.1625419161	 0.286766
H	 0.6922003379	-0.3868354581	-0.697815003	 0.075897
H	 0.9603244341	-1.4395967443	 1.428864484	 0.108497
H	 0.3239168198	-0.0183130251	 2.2992267375	 0.106343
H	-1.5407210502	-2.2546245605	 1.4230617963	 0.113878
H	-3.2585314965	-0.4289454788	 1.0301479984	 0.145418
H	-2.0539157554	 0.826025067	 1.628471948	 0.130141
H	-1.3558886444	-0.9031758299	-2.2161573112	 0.067143
104.9937	148.305	196.7012	232.6682	290.9385	340.0523	402.4425	483.5958	600.0066	672.2955	734.291	778.1535	841.3872	891.9188	924.5123	969.3231	1002.7953	1048.5632	1058.3802	1084.5552	1088.2133	1126.9623	1165.979	1207.8338	1224.9124	1248.8756	1287.9883	1322.4315	1378.8547	1420.1516	1443.0228	1470.1399	1490.1455	1795.427	2861.7407	2995.5488	3053.8838	3117.6155	3128.5909	3201.8624	3227.579	3813.692
OC1CC2CC12C=O	O[C@H]1C[C@H]2C[C@@]12C=O	
InChI=1S/C6H8O2/c7-3-6-2-4(6)1-5(6)8/h3-5,8H,1-2H2	InChI=1S/C6H8O2/c7-3-6-2-4(6)1-5(6)8/h3-5,8H,1-2H2/t4-,5-,6-/m0/s1
