18
gdb 43679	5.412	0.76945	0.70291	0.8867	73.37	-0.2392	-0.0289	0.2103	1540.5344	0.145889	-439.041536	-439.032934	-439.031989	-439.075868	31.14	
O	 0.2087265499	 0.1372541949	-0.4981417955	-0.274952
C	 0.1139982539	 1.2721681406	-0.1451615784	 0.39349
C	-0.9867966981	 2.130533151	 0.4971727739	-0.284779
N	 0.041033961	 3.1710312352	 0.7331110165	-0.091866
C	-0.3043186044	 4.5460368244	 0.4315332321	-0.191174
C	 0.7936459559	 5.4890865886	 0.8698214013	 0.096184
C	 1.7893678084	 6.0237873669	-0.069400488	-0.171854
O	 0.6978353248	 6.8257524103	 0.3832746823	-0.23356
C	 1.0454654772	 2.4937413706	-0.121688944	-0.289125
H	-1.7588112721	 2.4064901052	-0.2403059702	 0.119943
H	-1.4759099645	 1.7383620934	 1.3950338343	 0.135451
H	-0.5146648611	 4.7134553592	-0.6429315451	 0.086806
H	-1.2201435738	 4.7948022249	 0.9813244137	 0.119243
H	 1.0730450438	 5.4033998658	 1.9204401241	 0.102199
H	 2.7718266635	 6.3216834238	 0.2935412398	 0.119929
H	 1.7495929289	 5.7349368867	-1.1193597822	 0.112763
H	 2.0382666016	 2.3647805322	 0.3207892592	 0.134918
H	 1.156426395	 2.9305695062	-1.1286540938	 0.116385
67.0625	77.5013	85.8567	172.4791	284.5788	328.4729	383.216	417.9352	431.8436	495.0612	673.0247	766.9113	775.8519	839.3689	877.4281	903.2592	953.7558	996.3388	1043.0803	1056.1171	1083.1182	1097.7387	1125.4204	1142.9538	1159.7221	1168.1168	1179.3678	1216.0484	1240.2284	1274.0288	1281.4343	1307.943	1377.0948	1446.7094	1457.8135	1479.9089	1494.4693	1529.7401	1924.3321	2916.9275	2968.5632	2978.4494	3051.3825	3070.5081	3075.0101	3081.6702	3110.8264	3169.0924
O=C1CN(CC2CO2)C1	O=C1CN(C[C@H]2CO2)C1	
InChI=1S/C6H9NO2/c8-5-1-7(2-5)3-6-4-9-6/h6H,1-4H2	InChI=1S/C6H9NO2/c8-5-1-7(2-5)3-6-4-9-6/h6H,1-4H2/t6-/m0/s1
