19
gdb 50710	3.15594	1.18794	0.90295	2.8166	77.81	-0.2425	-0.0279	0.2146	1272.6608	0.159105	-423.03585	-423.027313	-423.026369	-423.069536	31.728	
O	-0.9212573405	 1.098887795	 0.0591503245	-0.248455
C	 0.2275055547	 0.7429960572	 0.0489464258	 0.146029
C	 1.4239107296	 1.6910787267	 0.0629388799	 0.01853
C	 1.1460196472	 2.9401105303	 0.9057003542	-0.247655
C	 2.1888716457	 4.0262153776	 0.8158637076	-0.075663
C	 3.5139954238	 3.8772501245	 0.846123628	-0.054134
C	 4.2863597875	 2.5857581817	 0.9814401606	-0.2536
C	 3.797073376	 1.4125358161	 0.1282561589	-0.071421
O	 2.5217731634	 0.917475753	 0.4985883602	-0.261223
H	 0.5219485489	-0.3286421334	 0.0124741454	 0.094963
H	 1.5817729111	 2.0016457121	-0.9876151786	 0.095628
H	 0.1700848406	 3.3228031381	 0.5930219155	 0.127986
H	 1.0254263822	 2.6210720815	 1.9510452666	 0.122184
H	 1.7985162527	 5.0397521188	 0.7551811692	 0.09111
H	 4.1196044116	 4.7800882677	 0.8075889313	 0.089433
H	 5.3363127371	 2.7636714801	 0.7201038778	 0.103875
H	 4.2872428794	 2.2633955984	 2.0329047301	 0.122766
H	 3.7930140067	 1.6990236438	-0.9355000371	 0.092664
H	 4.4833678622	 0.5680001208	 0.2491595901	 0.106984
71.6625	96.2431	129.0645	200.8337	301.9652	314.6128	352.2045	423.5626	460.7757	514.8733	608.2524	696.7823	715.2724	789.9824	841.6793	877.2886	941.0869	971.0517	1000.7372	1031.4708	1060.6124	1066.508	1090.4189	1106.1123	1157.977	1229.6489	1239.3979	1254.6532	1293.3978	1316.4937	1352.7181	1372.4547	1377.591	1391.6669	1416.4663	1432.3896	1462.9584	1467.1022	1491.9341	1726.4184	1838.3554	2903.086	2928.1861	2979.8154	3008.5563	3013.1403	3058.7848	3074.112	3091.0169	3136.8169	3160.6203
O=CC1CC=CCCO1	O=C[C@H]1CC=CCCO1	
InChI=1S/C7H10O2/c8-6-7-4-2-1-3-5-9-7/h1-2,6-7H,3-5H2	InChI=1S/C7H10O2/c8-6-7-4-2-1-3-5-9-7/h1-2,6-7H,3-5H2/t7-/m1/s1
