19
gdb 106930	4.08473	1.11024	0.99539	3.1714	77.65	-0.2563	0.0125	0.2688	1241.0981	0.160766	-419.208435	-419.200057	-419.199113	-419.241606	31.736	
C	 0.0124539489	 1.4871209497	-0.4041059636	-0.386313
C	-0.0181274797	 0.0713232999	 0.1864410508	-0.266013
C	-1.4098928211	-0.5114683202	 0.2362143586	 0.327878
C	-2.4576670906	 0.0989954231	 1.15772141	-0.160187
O	-3.4423231425	-0.9234702156	 1.3859690477	-0.254927
C	-2.9397116266	-2.1580362317	 1.0410619174	 0.423359
N	-3.4373000145	-3.263612731	 1.3912706584	-0.544318
C	-1.7397614135	-1.966273071	 0.1854307217	-0.184456
N	-1.9388696347	-1.095440332	-0.9953618079	-0.368292
H	 1.0382188842	 1.8615652115	-0.4642558124	 0.12033
H	-0.4099929389	 1.4908647888	-1.4135013114	 0.134287
H	-0.5605358364	 2.1942667024	 0.2056667564	 0.11592
H	 0.6056536714	-0.5921554967	-0.4205935047	 0.11807
H	 0.4062615938	 0.0741810151	 1.1983603417	 0.102406
H	-2.0138216187	 0.3933758681	 2.1173471706	 0.118343
H	-2.9684382925	 0.9670244706	 0.7280405842	 0.122322
H	-4.2389758466	-3.1168829105	 2.0073862741	 0.224808
H	-1.0247895694	-2.7727681073	 0.0861390992	 0.116452
H	-2.9284368224	-0.8868032732	-1.119481191	 0.240329
73.1088	119.3611	174.552	209.3591	250.4508	330.4119	388.1588	405.3417	459.1591	602.7316	663.6477	713.5299	768.4427	783.8744	835.3531	887.885	898.6833	951.7143	960.7775	1007.6455	1020.0481	1052.1118	1070.9509	1087.7183	1115.5771	1148.9196	1169.968	1223.9813	1260.7046	1279.6038	1289.3614	1353.2881	1362.4229	1386.7842	1409.8115	1446.7398	1476.5379	1500.1771	1507.4317	1517.048	1779.5355	3023.8122	3032.6949	3036.6942	3075.6327	3080.2519	3106.7178	3116.9544	3205.0368	3472.3544	3475.0698
CCC12COC(=N)C1N2	CC[C@]12CO[C]([NH])[C@H]1N2	
InChI=1S/C6H10N2O/c1-2-6-3-9-5(7)4(6)8-6/h4,7-8H,2-3H2,1H3	InChI=1S/C6H10N2O/c1-2-6-3-9-5(7)4(6)8-6/h4,7-8H,2-3H2,1H3/t4-,6+/m1/s1
