23
gdb 95805	2.18142	1.49113	1.04692	0.3565	80.91	-0.2392	0.0668	0.3061	1238.5697	0.206238	-425.436034	-425.426491	-425.425546	-425.469555	37.099	
C	-0.0353755676	 1.5395871969	-0.0713038223	-0.416619
C	 0.0618112521	 0.0128550147	 0.0032720883	 0.007969
C	 0.6811360319	-0.5686379558	-1.2761477549	-0.075569
O	 0.7157962543	-1.9873719581	-1.2613798722	-0.247983
C	 1.4659339528	-2.4899881634	-0.1720247138	-0.108087
C	 0.8695847643	-2.0401129261	 1.1684851117	 0.092263
O	 1.6247906145	-2.535545489	 2.265795029	-0.435453
C	 0.8114294893	-0.504248234	 1.2596920229	 0.001759
C	 2.1958976891	 0.127171608	 1.482062416	-0.407315
H	 0.9438552599	 2.0038015914	-0.225914724	 0.120389
H	-0.6813696558	 1.8487224927	-0.8998251551	 0.113057
H	-0.4572637615	 1.9519793828	 0.8512068865	 0.115593
H	-0.959826619	-0.3884645197	 0.055808698	 0.077575
H	 0.0824314757	-0.29223599	-2.149681267	 0.103863
H	 1.6966866113	-0.1655894338	-1.4297660126	 0.086644
H	 1.4373346484	-3.5826004999	-0.2556429831	 0.091325
H	 2.5205333784	-2.1766660239	-0.2339018838	 0.094829
H	-0.1646243983	-2.4181718799	 1.2113328033	 0.068005
H	 1.5836862196	-3.4969540492	 2.2485235657	 0.283957
H	 0.2010834276	-0.2594390332	 2.1388157483	 0.072645
H	 2.8510367767	 0.0326137293	 0.6106087472	 0.111721
H	 2.1037102685	 1.1924867376	 1.7098288761	 0.111091
H	 2.6929947575	-0.358490187	 2.3237359359	 0.138342
124.2346	156.9854	196.8311	235.1117	249.1079	269.3934	286.2282	300.5957	330.8204	371.3439	422.7064	442.7295	540.2077	570.5867	609.4322	787.9242	831.3007	901.1151	955.12	974.0744	991.2702	1006.628	1036.8445	1048.7623	1064.26	1120.6942	1134.2709	1161.8894	1170.6694	1185.2991	1235.6405	1265.8181	1300.8775	1308.2388	1335.388	1348.0038	1358.5073	1384.4554	1399.2117	1403.9422	1412.6999	1427.2215	1440.9462	1489.6716	1491.1395	1497.9326	1507.1113	1510.4049	1513.4508	2962.1283	2965.7314	2984.2244	3005.7677	3019.3008	3032.0144	3050.3796	3059.5829	3076.5767	3098.0879	3102.5377	3111.6582	3136.022	3816.9429
CC1COCC(O)C1C	C[C@H]1COC[C@@H](O)[C@H]1C	
InChI=1S/C7H14O2/c1-5-3-9-4-7(8)6(5)2/h5-8H,3-4H2,1-2H3	InChI=1S/C7H14O2/c1-5-3-9-4-7(8)6(5)2/h5-8H,3-4H2,1-2H3/t5-,6-,7+/m0/s1
