25
gdb 64120	2.63259	1.23141	1.14615	1.3122	88.06	-0.2412	0.0728	0.3141	1282.346	0.227302	-389.520146	-389.5099	-389.508956	-389.554459	40.183	
C	 0.2612200723	 1.4601716518	 0.1246345194	-0.429726
C	-0.0798996027	-0.0347243253	 0.0022130311	 0.315974
C	-1.5939378713	-0.2250235228	-0.1293734699	-0.446005
C	 0.6966770212	-0.650660353	-1.1791442547	-0.116005
O	 2.0019708831	-0.8935126551	-0.6912503179	-0.290596
C	 1.8946894338	-1.3838250348	 0.6612977737	 0.408776
C	 1.923761251	-2.9185083959	 0.6396822985	-0.419169
C	 3.0974373197	-0.8331245132	 1.4264449557	-0.43108
C	 0.5290742745	-0.8406284736	 1.182381791	-0.321988
H	 1.3439121516	 1.6150000563	 0.1385900014	 0.127311
H	-0.1474162748	 2.0252619374	-0.7208555791	 0.107939
H	-0.1568748363	 1.8858269917	 1.0433172183	 0.107735
H	-1.9828553503	 0.2966993798	-1.0114463317	 0.11205
H	-1.8565019206	-1.284373171	-0.2227139662	 0.109255
H	-2.119449355	 0.17426092	 0.7448508016	 0.11464
H	 0.2126832991	-1.5836999791	-1.5157503604	 0.075841
H	 0.7794034108	 0.016787386	-2.0428414976	 0.099525
H	 2.8628078608	-3.2756076738	 0.2067189267	 0.117727
H	 1.8313499632	-3.3254392171	 1.6523784471	 0.110022
H	 1.0982784084	-3.3174344669	 0.0417640349	 0.111136
H	 3.074289436	 0.2598413862	 1.4518072537	 0.116593
H	 3.1044722298	-1.2031240688	 2.4567383894	 0.110291
H	 4.0289743984	-1.1435695005	 0.9435258321	 0.120671
H	 0.6567681097	-0.2177612487	 2.0720984489	 0.097167
H	-0.1294348623	-1.6691042494	 1.461012194	 0.091915
56.5477	161.74	212.9378	227.4325	243.8024	261.6446	275.2175	300.0678	337.0285	359.1447	366.0781	413.5893	444.2842	461.6913	556.5712	638.5608	777.981	795.7057	876.8878	889.2497	915.7654	932.4853	945.8482	954.5578	974.2594	1004.0092	1021.8549	1046.7059	1083.0705	1110.1424	1164.908	1214.1667	1231.4972	1246.7954	1256.7252	1291.3873	1315.2772	1319.1471	1380.5537	1394.9959	1399.9351	1413.7605	1422.5884	1475.7716	1482.0658	1485.999	1487.8576	1493.4495	1498.7752	1504.328	1506.3509	1511.9983	1519.1688	2952.0349	3022.2949	3027.9538	3031.2579	3038.1603	3050.0249	3073.4827	3085.5232	3091.6818	3092.7529	3095.8618	3100.8775	3109.1427	3110.1269	3113.6158	3116.961
CC1(C)COC(C)(C)C1	CC1(C)COC(C)(C)C1	
InChI=1S/C8H16O/c1-7(2)5-8(3,4)9-6-7/h5-6H2,1-4H3	InChI=1S/C8H16O/c1-7(2)5-8(3,4)9-6-7/h5-6H2,1-4H3
