15
gdb 81087	1.99839	1.7499	1.17184	2.7487	67.86	-0.254	-0.0439	0.2101	1049.5299	0.1107	-457.723424	-457.715227	-457.714283	-457.756562	29.936	
O	 0.1801245603	 1.3564861334	-0.1980764452	-0.430628
C	 0.0439888345	-0.0148719301	-0.0413604409	 0.14294
C	 0.0066355922	-0.6664078592	 1.3958913601	-0.227112
C	-1.4746697977	-0.1502619992	 1.5070450897	-0.302052
C	-1.4092044188	-0.6722145028	 0.0331471445	 0.048645
C	-2.4813467962	-0.6644527899	-0.9882699429	 0.030974
O	-3.5948027934	-0.2423791305	-0.7865412793	-0.247237
C	-0.6174940918	-1.8548778997	 0.6687692892	 0.426615
O	-0.5664360277	-3.0403983744	 0.6177729972	-0.301727
H	-0.4022395053	 1.8264274638	 0.4081966231	 0.295784
H	 0.7334113236	-0.4702998704	-0.7537730765	 0.119202
H	 0.7820498689	-0.6512437911	 2.1577474072	 0.109486
H	-2.1405696497	-0.677361831	 2.1897253075	 0.13847
H	-1.5980960266	 0.9277830628	 1.6223079193	 0.109392
H	-2.1884700823	-1.0818857618	-1.976421053	 0.087249
69.0826	158.1862	174.1627	196.5787	223.2426	292.6688	365.5978	496.0994	545.2096	552.3632	644.2041	707.854	735.0974	772.8462	830.8551	902.5396	957.6552	988.2134	1022.5378	1045.6625	1097.7682	1108.5654	1141.4764	1177.2276	1209.6561	1216.6226	1280.2966	1318.875	1424.8937	1460.7059	1535.3973	1799.9354	1926.8071	2893.4866	3085.4566	3110.9298	3150.021	3158.2085	3814.5733
OC1C2CC1(C=O)C2=O	O[C@H]1[C@H]2C[C@]1(C=O)C2=O	
InChI=1S/C6H6O3/c7-2-6-1-3(4(6)8)5(6)9/h2-4,8H,1H2	InChI=1S/C6H6O3/c7-2-6-1-3(4(6)8)5(6)9/h2-4,8H,1H2/t3-,4+,6-/m1/s1
