19
gdb 53239	4.01532	0.75766	0.70376	1.7208	86.68	-0.2436	0.0095	0.2532	1658.641	0.15839	-385.875118	-385.865501	-385.864557	-385.911937	34.357	
C	-0.0053549917	 1.4986504599	 0.0730476066	-0.497529
C	-0.0262468804	 0.0429979378	 0.0373489678	 0.06011
C	-0.040254616	-1.161000519	 0.0043098132	 0.068607
C	-0.0648497696	-2.6206712621	-0.0223203731	-0.205694
C	 0.6874400605	-3.3044834551	 1.1604503215	-0.253183
C	-0.1381961586	-4.5677289606	 1.5177519413	 0.108473
O	-0.1819409367	-4.8570779442	 2.908448856	-0.433929
C	-1.4867062471	-4.2792096015	 0.8982266587	-0.132745
C	-1.4576572408	-3.2273087854	 0.0852573754	-0.059341
H	 0.7484217911	 1.8686743118	 0.7770305127	 0.147285
H	 0.2279552052	 1.9193558993	-0.9114096357	 0.146806
H	-0.974434728	 1.9041823854	 0.384614926	 0.146595
H	 0.3835473725	-2.9510279153	-0.9718833262	 0.109528
H	 1.7313401265	-3.5225747008	 0.9265711552	 0.108462
H	 0.6766040348	-2.6336911353	 2.0252273073	 0.108586
H	 0.3052728595	-5.469479937	 1.0760734249	 0.095313
H	-0.6365706333	-4.1238356936	 3.3386001503	 0.274125
H	-2.349181994	-4.904203556	 1.1022682203	 0.101649
H	-2.2898877641	-2.8336543082	-0.4867493421	 0.10688
13.157	47.0132	94.2617	136.3025	245.0936	280.9475	323.0389	351.8859	390.011	437.3374	517.4146	532.6919	590.4541	745.1524	772.0219	814.6213	868.2428	914.561	980.0422	988.0683	1021.4663	1047.0076	1053.5589	1054.0194	1095.5338	1138.373	1159.7452	1185.0352	1243.4162	1273.3717	1286.6732	1314.5377	1330.7446	1369.4738	1415.228	1430.0535	1478.8227	1479.3593	1486.0557	1682.7708	2369.3103	2979.8525	3024.7183	3025.0968	3059.9861	3085.0427	3085.2153	3116.692	3186.4105	3212.3375	3792.7651	13.1599	47.0132	94.2615	136.3025	245.0937	280.9481	323.0399	351.8861	390.0114	437.3386	517.4148	532.6924	590.4542	745.1525	772.0218	814.6213	868.2428	914.5611	980.0423	988.0683	1021.4664	1047.0077	1053.559	1054.0195	1095.5338	1138.3731	1159.7452	1185.0354	1243.4162	1273.3717	1286.6732	1314.5377	1330.7446	1369.4738	1415.2279	1430.0535	1478.8227	1479.3592	1486.0555	1682.7708	2369.3106	2979.8524	3024.7183	3025.0967	3059.9861	3085.0427	3085.2153	3116.692	3186.4105	3212.3376	3792.7651
CC#CC1CC(O)C=C1	CC#C[C@H]1C[C@@H](O)C=C1	
InChI=1S/C8H10O/c1-2-3-7-4-5-8(9)6-7/h4-5,7-9H,6H2,1H3	InChI=1S/C8H10O/c1-2-3-7-4-5-8(9)6-7/h4-5,7-9H,6H2,1H3/t7-,8+/m1/s1
