14
gdb 127879	3.28926	1.48622	1.20586	2.0838	73.38	-0.2423	-0.1252	0.117	1016.8891	0.10064	-428.986318	-428.978596	-428.977652	-429.018805	27.759	
C	-0.0930375236	 1.3476308457	 0.3567906871	-0.333845
N	-0.0741068195	-0.087817063	 0.142941761	-0.255269
C	-1.0900871487	-0.6633210494	-0.3277444848	 0.366079
N	-2.2763649085	-0.0346577639	-0.7947495047	-0.206662
C	-3.3932941529	-0.4222900665	-0.3260011256	 0.070935
N	-3.6290652692	-1.3343032972	 0.7425199409	-0.118315
N	-2.9847918322	-2.4064523022	 0.8510160153	-0.114066
C	-1.9812818052	-2.7800416933	-0.0897532963	 0.073126
N	-1.0639233285	-2.0574714069	-0.592742281	-0.188694
H	 0.87768645	 1.7556317474	 0.0593999506	 0.134976
H	-0.8899553326	 1.8703825026	-0.1857840867	 0.12938
H	-0.2103293789	 1.5539911535	 1.4274930299	 0.135545
H	-4.3161746617	 0.049390174	-0.6633125528	 0.152912
H	-1.9819973384	-3.8546316307	-0.2697077628	 0.1539
91.6855	115.731	190.5696	238.1214	311.142	343.9373	364.5181	445.9915	535.7265	647.6089	693.9035	771.3903	809.7989	886.8562	922.2807	969.1897	971.4971	1027.0078	1065.0043	1122.2368	1131.7113	1199.6717	1373.3623	1392.9869	1435.1963	1487.4558	1496.0312	1551.6434	1666.2855	1673.9539	1762.6833	3014.2746	3076.527	3097.924	3143.153	3148.658
CN=C1N=CN=NC=N1	CN=c1ncnncn1	
InChI=1S/C4H5N5/c1-5-4-6-2-8-9-3-7-4/h2-3H,1H3	InChI=1S/C4H5N5/c1-5-4-6-2-8-9-3-7-4/h2-3H,1H3
