16
gdb 22324	3.44171	1.16612	0.88044	2.9199	81.62	-0.2285	-0.0655	0.163	1271.568	0.122918	-437.881379	-437.87286	-437.871916	-437.914595	31.531	
C	-0.0272108022	 1.4579201872	 0.0134069905	-0.486128
C	-0.0001292722	-0.0337061545	-0.0170616159	 0.288555
C	-0.026023072	-0.8216064586	-1.1079448982	-0.226836
C	 0.0134147437	-2.2343712423	-0.7599863079	 0.286753
N	-0.0021935608	-3.1644382367	-1.6490914885	-0.238789
O	 0.0416041528	-4.4372740196	-1.1148025435	-0.347219
C	 0.0712379081	-2.311496174	 0.7533337587	 0.330465
O	 0.115130915	-3.2938987886	 1.4458896689	-0.29263
C	 0.0626452636	-0.8558161485	 1.247705049	-0.421923
H	 0.8626051178	 1.8570618634	 0.5170880544	 0.135191
H	-0.0719244939	 1.8817894319	-0.9930810915	 0.131501
H	-0.8925144907	 1.8238370291	 0.5809989077	 0.135225
H	-0.0707600523	-0.4770461215	-2.1336949966	 0.111128
H	 0.0227346255	-4.9912993604	-1.9040322211	 0.314293
H	 0.9601175167	-0.6569135072	 1.8474880065	 0.140214
H	-0.793825079	-0.6895190598	 1.9136722676	 0.1402
88.0619	123.0175	178.3448	202.5291	285.0575	296.8466	381.2085	428.6566	452.4725	504.1276	510.3858	549.0219	689.0764	696.395	749.5043	870.4737	887.1005	961.4926	1001.7181	1024.5322	1054.2859	1098.7333	1157.5736	1171.3056	1246.2108	1267.1601	1344.7541	1412.3024	1433.5046	1440.7652	1474.6068	1482.5218	1677.7883	1679.0375	1839.4165	3017.0068	3028.7724	3058.9214	3063.2277	3115.6984	3212.9115	3798.331
CC1=CC(=NO)C(=O)C1	CC1=CC(=NO)C(=O)C1	
InChI=1S/C6H7NO2/c1-4-2-5(7-9)6(8)3-4/h2,9H,3H2,1H3	InChI=1S/C6H7NO2/c1-4-2-5(7-9)6(8)3-4/h2,9H,3H2,1H3
