21
gdb 86350	2.39802	1.19302	0.88202	4.2987	84.3	-0.2371	0.0252	0.2623	1369.9253	0.181341	-383.272485	-383.262665	-383.261721	-383.307542	35.84	
C	-0.0287442222	 1.5891424817	-0.0242163192	-0.408528
C	 0.0012508601	 0.0728514474	-0.0951361383	 0.076646
C	 0.7157151037	-0.6245937016	-1.2796031538	-0.273635
C	 1.3061130589	-1.5985538717	-0.2304763431	 0.080333
C	 2.7697021647	-1.9953437592	-0.3027461758	-0.402718
N	 0.9574189596	-0.6074427277	 0.8176680941	-0.09316
C	 0.4805620136	-1.1260457899	 2.0825528524	-0.300105
C	 0.2211154107	-0.0585502741	 3.0569408468	 0.284709
N	-0.0024852824	 0.7761504568	 3.8236057083	-0.312781
H	 0.979519844	 1.9963009223	-0.1439678924	 0.120944
H	-0.6663658263	 1.9934046727	-0.8181371038	 0.114128
H	-0.4236341711	 1.9342132938	 0.9359565659	 0.141739
H	-1.0187795863	-0.3324048013	 0.0258964111	 0.061172
H	 0.0895613528	-1.0521169816	-2.0629130741	 0.106312
H	 1.4829274565	 0.0111721206	-1.7297853205	 0.108809
H	 0.6739885259	-2.5011565921	-0.1547563216	 0.05816
H	 3.4032949672	-1.1078369737	-0.3872497903	 0.125553
H	 3.0777757898	-2.5492272116	 0.5912699487	 0.115636
H	 2.9501094189	-2.6404200717	-1.1694597766	 0.11918
H	-0.4457386155	-1.7265096008	 1.9855031861	 0.124469
H	 1.2449016672	-1.7898161782	 2.5044604161	 0.153136
52.6555	92.917	120.6557	207.2929	211.4302	226.0423	251.38	306.0982	385.1963	410.6155	425.2676	475.6104	511.6341	639.6498	773.8134	829.2635	891.9304	915.4233	925.6621	949.1772	970.7238	1012.5755	1093.0338	1100.2855	1114.9704	1156.4568	1173.0979	1201.4766	1213.6604	1248.83	1264.974	1289.1017	1331.0683	1367.679	1378.3145	1402.618	1408.0686	1425.3347	1468.1909	1485.0983	1487.0699	1490.0427	1494.7573	1498.8558	2364.059	2908.5622	2936.5845	2946.7279	3031.0952	3036.1998	3054.7262	3070.6777	3095.4125	3107.1513	3115.9391	3118.1765	3136.2884
CC1CC(C)N1CC#N	C[C@H]1C[C@@H](C)N1CC#N	
InChI=1S/C7H12N2/c1-6-5-7(2)9(6)4-3-8/h6-7H,4-5H2,1-2H3	InChI=1S/C7H12N2/c1-6-5-7(2)9(6)4-3-8/h6-7H,4-5H2,1-2H3/t6-,7+
