18
gdb 9328	7.4218	0.77373	0.71146	3.9088	72.7	-0.2363	-0.0666	0.1698	1563.3536	0.152338	-381.138174	-381.128649	-381.127704	-381.173603	32.599	
C	 0.0575900657	 1.5154532946	 0.0214263664	-0.379202
C	-0.0320615706	-0.0109846216	 0.0849274542	-0.198567
C	-1.462560635	-0.5159739375	-0.0932315654	-0.101935
N	-1.5178737537	-1.9672470907	-0.0406571417	-0.331706
C	-2.7052386921	-2.6360374832	 0.0529587825	 0.287657
N	-3.8293066032	-2.0510125814	 0.2291060681	-0.516348
C	-2.5654002921	-4.1412039692	-0.0293812382	 0.107944
O	-3.503478608	-4.8881520489	 0.0554554764	-0.234889
H	 1.0896305548	 1.8548489414	 0.1470291182	 0.118479
H	-0.3044660302	 1.8946716776	-0.9401198354	 0.12166
H	-0.545208029	 1.9796445706	 0.8090991019	 0.124717
H	 0.6075661363	-0.447185704	-0.6956350449	 0.093773
H	 0.3578039348	-0.3724041549	 1.0440753286	 0.109446
H	-2.1146319343	-0.1346824048	 0.6991259756	 0.140138
H	-1.8858960563	-0.1452560446	-1.0396041443	 0.110016
H	-0.7292595947	-2.4706143394	-0.4163444448	 0.238933
H	-4.5500854436	-2.769613034	 0.3202771802	 0.233309
H	-1.5294941291	-4.5264803598	-0.1748607875	 0.076575
34.2303	69.2395	101.9018	141.7033	214.922	240.2472	261.609	315.1708	352.0977	372.6905	512.396	575.6191	739.2587	755.1169	866.2556	894.8221	898.3178	957.3626	1024.5087	1033.8187	1078.3333	1145.9101	1175.4266	1182.268	1263.5426	1302.066	1319.4462	1346.9024	1403.545	1416.0408	1435.4968	1491.0873	1500.5168	1504.6251	1521.0862	1550.1368	1699.2299	1834.9077	2863.5572	2989.7783	3007.5446	3036.5147	3053.8544	3080.5819	3104.2287	3111.7626	3467.1318	3622.0588
CCCNC(=N)C=O	CCCNC(=N)C=O	
InChI=1S/C5H10N2O/c1-2-3-7-5(6)4-8/h4H,2-3H2,1H3,(H2,6,7)	InChI=1S/C5H10N2O/c1-2-3-7-5(6)4-8/h4H,2-3H2,1H3,(H2,6,7)
