14
gdb 125714	2.32977	1.84268	1.03557	4.1726	67.34	-0.2486	-0.0473	0.2014	1068.7602	0.100217	-470.016056	-470.008095	-470.007151	-470.048773	28.747	
C	-0.0275815881	 1.476951192	 0.0700346758	-0.505931
C	-0.0126655456	-0.0098131973	 0.0036795858	 0.419067
N	-0.0378628358	-0.6540722971	-1.1076857226	-0.168546
O	-0.0123048577	-2.0295610154	-0.7669104787	-0.251144
C	 0.0292934406	-2.1803843397	 0.5971495183	 0.498458
N	 0.0605968316	-3.2507605336	 1.2531457104	-0.549171
N	 0.0292317926	-0.8610442742	 1.1064062083	-0.208104
C	 0.0641317265	-0.4651017708	 2.4510013398	 0.167907
O	 0.1000743929	-1.2072920228	 3.3883865003	-0.244773
H	 0.8690788067	 1.86364161	 0.5646388569	 0.159011
H	-0.0618206356	 1.8626231251	-0.9495732561	 0.175163
H	-0.9022862183	 1.8435558974	 0.6165272707	 0.159009
H	 0.0513392072	-4.0531424374	 0.6255385653	 0.24393
H	 0.0541811431	 0.6355887239	 2.5348622557	 0.105124
88.4972	160.3395	211.7462	215.0722	243.3917	298.8978	325.3678	461.3876	526.6179	627.6891	627.9791	730.0469	777.0988	788.258	809.1567	923.4941	999.326	1015.6389	1048.4574	1069.1245	1096.3931	1216.8562	1354.6262	1397.1916	1426.4863	1461.2433	1477.5235	1479.7438	1685.6411	1776.7925	1856.6195	2985.6622	3046.7906	3106.7635	3154.4889	3519.9099
CC1=NOC(=N)N1C=O	CC1=NO[C@H]([NH])N1C=O	
InChI=1S/C4H5N3O2/c1-3-6-9-4(5)7(3)2-8/h2,5H,1H3	InChI=1S/C4H6N3O2/c1-3-6-9-4(5)7(3)2-8/h2,4-5H,1H3/t4-/m1/s1
