23
gdb 86188	2.19382	1.4838	1.22463	1.0522	81.51	-0.2438	0.0824	0.3261	1199.4133	0.203443	-425.454237	-425.444129	-425.443185	-425.488854	38.502	
C	 0.1195583523	 1.3673438674	-0.3284496858	-0.402583
C	 0.1202390332	-0.0827056446	 0.1124801755	 0.220747
O	 0.2541371929	-0.9624972217	-0.9988358476	-0.294436
C	 1.317240734	-1.8857038649	-0.7437396984	 0.109115
C	 2.4897194087	-1.5859819072	-1.6726828357	-0.411969
C	 1.5768516051	-1.7107438347	 0.7793492528	 0.347169
C	 0.6499529814	-2.6259157765	 1.5941966429	-0.43032
C	 3.0234933774	-1.8631159905	 1.2328407605	-0.439765
O	 1.2123839585	-0.3338323841	 0.9634118984	-0.293193
H	 1.0612478961	 1.6060771929	-0.8289239529	 0.123454
H	-0.7081002387	 1.5424753817	-1.0206950396	 0.125228
H	-0.0029823908	 2.0231164191	 0.5381929886	 0.122713
H	-0.8273106509	-0.3239882293	 0.62649609	 0.062157
H	 0.9388230965	-2.8950687087	-0.949055633	 0.075184
H	 2.921211714	-0.6041197689	-1.4581070516	 0.124911
H	 3.2755911097	-2.3429552614	-1.5834926912	 0.110425
H	 2.1354663664	-1.5821941091	-2.7071354318	 0.123493
H	 0.9674642272	-3.6699016238	 1.506848288	 0.114045
H	 0.6762201326	-2.343529299	 2.6504830792	 0.12051
H	-0.3837062833	-2.561274697	 1.242957793	 0.127422
H	 3.6741850039	-1.1501591673	 0.7235835018	 0.125812
H	 3.09543217	-1.6813581975	 2.3090158765	 0.123695
H	 3.3874588836	-2.8760681648	 1.0356417905	 0.116183
47.2827	119.7815	209.3791	212.6991	235.6037	257.9464	268.2228	294.3143	327.2024	341.2128	392.2657	434.7508	484.9971	525.7217	624.0704	708.8964	760.4467	846.6682	857.4001	921.5501	936.6704	942.4059	980.7623	1004.7973	1046.051	1086.8783	1113.4411	1123.5541	1143.9879	1167.9439	1201.3118	1221.9698	1279.3933	1326.4586	1373.0215	1382.1685	1397.0886	1400.4317	1404.9373	1419.3282	1433.6034	1474.3285	1481.5134	1482.7805	1485.3335	1491.9134	1496.3599	1503.698	1512.9896	2935.3755	3021.9048	3039.3908	3040.1837	3048.8409	3049.346	3109.3269	3112.043	3116.0815	3119.9305	3121.6547	3127.5672	3134.6852	3139.2318
CC1OC(C)C(C)(C)O1	C[C@H]1O[C@@H](C)C(C)(C)O1	
InChI=1S/C7H14O2/c1-5-7(3,4)9-6(2)8-5/h5-6H,1-4H3	InChI=1S/C7H14O2/c1-5-7(3,4)9-6(2)8-5/h5-6H,1-4H3/t5-,6-/m0/s1
