12
gdb 5481	3.69219	1.91012	1.25886	2.6066	61.3	-0.2299	-0.0459	0.184	865.9852	0.085859	-414.718711	-414.712177	-414.711233	-414.74954	23.948	
O	 0.114027685	 1.3625542614	 0.0229332398	-0.412697
C	 0.0780849483	 0.024634479	-0.0165079612	 0.304584
C	 0.0231245822	-0.7645975759	-1.1608042404	 0.135653
N	 0.0046627106	-2.0618262229	-0.6569833898	-0.292638
C	 0.0468608815	-1.9842788541	 0.6821768269	 0.040466
N	 0.0925369372	-0.7273665581	 1.1109759216	-0.34714
C	-0.0125656221	-0.5028870789	-2.5730321654	 0.061066
O	-0.0612497106	-1.3859106506	-3.4138987449	-0.328583
H	 0.1486405891	 1.6122169645	 0.9560321502	 0.310632
H	-0.0341959451	-2.8778040249	-1.2475072098	 0.287858
H	 0.043439065	-2.8549291128	 1.3205548019	 0.151165
H	 0.0065764088	 0.5697661032	-2.849650999	 0.089635
151.9335	163.285	254.2833	359.9181	366.1555	449.6344	575.2351	581.6075	674.6739	679.5694	751.761	832.3756	851.3149	957.9292	1027.6921	1101.4517	1131.8298	1250.5532	1286.9899	1353.477	1394.4168	1429.6553	1497.8241	1533.3312	1651.3484	1746.3344	2937.4793	3258.5626	3653.1304	3784.1895
OC1=C(NC=N1)C=O	Oc1c([nH]cn1)C=O	
InChI=1S/C4H4N2O2/c7-1-3-4(8)6-2-5-3/h1-2,8H,(H,5,6)	InChI=1S/C4H4N2O2/c7-1-3-4(8)6-2-5-3/h1-2,8H,(H,5,6)
