15
gdb 83150	2.17231	1.85055	1.46794	2.5582	60.91	-0.251	-0.0016	0.2494	940.1333	0.112276	-494.915657	-494.907763	-494.906819	-494.94785	29.815	
O	-0.039058584	 1.3982204475	 0.1167744997	-0.406678
C	-0.0072758498	 0.010239679	 0.0013965581	 0.017626
C	-1.3183461604	-0.7211690616	 0.0315579542	-0.190569
C	-2.5296887577	 0.1310133625	-0.320286865	-0.093742
O	-2.3397372344	 0.6101791422	-1.6715415456	-0.215961
C	-1.2529722305	 0.0523148658	-2.2363545924	 0.393134
O	-0.9710023135	 0.1438945549	-3.4017031074	-0.375085
C	-0.4762599449	-0.7391064041	-1.2289494371	 0.227461
O	 0.2271056409	-1.8201306486	-1.7242266213	-0.464338
H	 0.6615147955	 1.7716496903	-0.4289481789	 0.300412
H	 0.815638854	-0.493775104	 0.5092148565	 0.111662
H	-1.4446797568	-1.5846779453	 0.672282376	 0.121782
H	-3.4552606999	-0.4508882913	-0.3005198278	 0.128372
H	-2.6318553245	 1.0066493051	 0.3239321528	 0.144518
H	 0.343129926	-1.6417171924	-2.6692561619	 0.301405
111.5259	191.5887	227.9265	240.1291	287.3456	314.1709	346.4016	437.6302	500.6373	562.8913	602.2675	707.6683	721.5031	807.7608	848.0445	905.3377	922.8008	1003.3074	1032.6414	1065.2892	1087.6707	1114.4568	1169.961	1213.5049	1236.352	1262.6906	1320.1219	1349.4599	1388.8569	1416.5583	1483.9943	1508.7906	1856.0008	3066.3326	3108.1867	3120.8884	3199.3344	3735.7614	3807.8228
OC1C2COC(=O)C12O	O[C@H]1[C@H]2COC(=O)[C@@]12O	
InChI=1S/C5H6O4/c6-3-2-1-9-4(7)5(2,3)8/h2-3,6,8H,1H2	InChI=1S/C5H6O4/c6-3-2-1-9-4(7)5(2,3)8/h2-3,6,8H,1H2/t2-,3+,5+/m1/s1
