14
gdb 49464	3.10549	1.28381	1.14965	4.509	62.65	-0.2564	-0.0379	0.2185	1056.8408	0.101186	-473.853617	-473.846199	-473.845255	-473.886122	27.227	
O	-0.0121551905	-0.0191415482	 0.3144249458	-0.262755
C	-0.002837561	 1.1178112653	-0.0918340572	 0.153644
C	 1.2132963372	 1.9668094254	-0.071386208	-0.177226
C	 1.5574186087	 2.9780964111	-1.190279769	-0.062203
N	 0.5011894543	 3.4775156776	-2.0036204507	-0.360412
C	-0.4713566046	 4.1200729312	-1.2621937491	 0.474772
O	-1.5204142769	 4.5608586722	-1.6254415926	-0.3721
O	-0.034740353	 4.1616659499	 0.050005703	-0.230989
C	 1.1885272854	 3.4764059207	 0.1627644163	 0.057287
H	-0.9199467354	 1.5805245379	-0.5091524475	 0.101861
H	 2.0786639028	 1.4722548177	 0.3582756596	 0.125247
H	 2.5615950269	 2.9966078523	-1.5959106335	 0.135982
H	 0.2667833904	 3.1253093668	-2.9165734434	 0.276304
H	 1.8676934156	 3.9262454103	 0.8746507062	 0.140588
96.3227	96.9095	180.1841	223.2355	418.5212	431.2735	448.5096	514.2014	607.6095	717.4115	762.6363	768.8245	770.7984	828.8199	912.5668	977.276	1000.295	1011.1862	1055.8903	1086.4128	1136.5126	1144.8606	1182.8267	1212.835	1334.3603	1370.6987	1371.5172	1416.7242	1457.7251	1807.4386	1909.796	2925.2689	3174.3416	3185.7603	3207.9968	3667.7641
O=CC1C2NC(=O)OC12	O=C[C@H]1[C@H]2NC(=O)O[C@@H]12	
InChI=1S/C5H5NO3/c7-1-2-3-4(2)9-5(8)6-3/h1-4H,(H,6,8)	InChI=1S/C5H5NO3/c7-1-2-3-4(2)9-5(8)6-3/h1-4H,(H,6,8)/t2-,3+,4-/m0/s1
