15
gdb 125779	7.28997	0.84331	0.76086	1.252	73.74	-0.2439	-0.0193	0.2245	1440.1616	0.111648	-453.940109	-453.931633	-453.930689	-453.974517	29.556	
C	 0.026853562	 1.4817041855	-0.022524805	-0.491627
C	-0.0084659686	-0.0109402491	 0.0393439404	 0.421937
N	-0.142660312	-0.7012781886	-1.0702120775	-0.212684
O	-0.1420230055	-2.0589652177	-0.6664551009	-0.232428
C	 0.0010228722	-2.0958456722	 0.6611092687	 0.584264
O	 0.0115736425	-3.2796602611	 1.2879736205	-0.224016
C	 0.1563576691	-4.4405786637	 0.5643966202	 0.103742
N	 0.0799772039	-5.5266586455	 1.1892332647	-0.415167
C	 0.0903055905	-0.8477500597	 1.1881824624	-0.496352
H	 0.9686650263	 1.8656639275	 0.3823098748	 0.14198
H	-0.0735564489	 1.8160412467	-1.0567133707	 0.152585
H	-0.7866097934	 1.9142965434	 0.568569361	 0.142663
H	 0.3330011384	-4.2721133768	-0.4979802192	 0.14976
H	 0.2169775509	-6.3070853087	 0.5496800208	 0.245382
H	 0.2111054727	-0.57541372	 2.2218677897	 0.12996
35.5406	78.5832	135.4983	159.3763	208.3113	310.8956	380.5503	445.6892	498.2178	651.0936	672.7561	705.1969	785.0351	800.6275	833.6273	903.0475	980.4706	998.2227	1039.069	1047.8438	1056.6604	1066.1814	1186.6368	1260.0019	1328.5322	1405.7004	1412.5813	1463.2093	1480.6256	1482.621	1545.6927	1655.7295	1754.9355	3045.0934	3103.1533	3136.7822	3142.0708	3290.0932	3521.7616
CC1=NOC(OC=N)=C1	Cc1noc(O[CH][NH])c1	
InChI=1S/C5H6N2O2/c1-4-2-5(8-3-6)9-7-4/h2-3,6H,1H3	InChI=1S/C5H6N2O2/c1-4-2-5(8-3-6)9-7-4/h2-3,6H,1H3
