18
gdb 54103	2.8361	1.48238	1.28725	3.3571	72.15	-0.227	0.0215	0.2485	1035.1227	0.149265	-435.213862	-435.205407	-435.204463	-435.246987	32.638	
N	 0.8154572484	 0.2851602461	 0.6953350838	-0.516947
C	-0.1571368503	 0.2497298303	-0.26275531	 0.296274
O	-0.1652104543	 1.0067028536	-1.2174013792	-0.377966
C	-1.3159123204	-0.7214927921	-0.0272371155	 0.252115
N	-2.5380908816	 0.018412538	 0.2656755443	-0.570979
C	-1.4963435276	-1.9017163322	-1.0434211922	-0.04178
C	-0.2562452804	-2.5896472049	-0.426557918	-0.217408
C	-1.1427614653	-2.0773800453	 0.7382296644	-0.101252
N	-2.3224138733	-2.6606101068	-0.0199829433	-0.333099
H	 1.6015841943	 0.8992992944	 0.5499890975	 0.261262
H	 0.885600309	-0.4222472211	 1.4058262051	 0.263925
H	-2.4346115839	 0.5311956037	 1.1378743426	 0.23228
H	-2.6650951376	 0.7199613952	-0.4602244306	 0.249026
H	-1.7847539119	-1.8299083596	-2.0924396155	 0.090555
H	-0.2397035378	-3.6731854744	-0.5354769373	 0.113588
H	 0.7199127151	-2.1294637883	-0.5809620397	 0.101986
H	-1.0184269219	-2.2365636183	 1.8130773445	 0.072842
H	-3.1407937805	-2.0833418984	 0.1974700491	 0.22558
47.9525	161.0091	205.1755	259.5405	267.0291	332.3947	339.0208	405.1485	487.1136	540.5403	585.2408	634.6466	682.2089	776.8947	792.4677	825.0419	876.8963	897.6881	914.1607	920.3023	1028.08	1044.3569	1066.2908	1084.3412	1090.64	1139.0659	1168.2522	1180.8742	1205.2206	1223.8478	1274.5289	1291.9215	1321.8358	1340.6625	1362.9275	1501.8682	1615.6784	1655.9856	1778.4273	3069.0003	3093.215	3117.1009	3167.8291	3397.4886	3478.278	3551.9508	3590.5053	3729.0493
NC(=O)C1(N)C2CC1N2	NC(=O)[C@@]1(N)[C@H]2C[C@@H]1N2	
InChI=1S/C5H9N3O/c6-4(9)5(7)2-1-3(5)8-2/h2-3,8H,1,7H2,(H2,6,9)	InChI=1S/C5H9N3O/c6-4(9)5(7)2-1-3(5)8-2/h2-3,8H,1,7H2,(H2,6,9)/t2-,3+,5-
