18
gdb 105156	2.04332	1.34872	0.95099	3.1037	78.38	-0.2724	-0.0525	0.2198	1266.2355	0.145683	-401.970094	-401.960588	-401.959644	-402.004802	33.887	
C	 0.5258106605	 1.5132390166	 0.4902908194	-0.384577
C	-0.0973124094	 0.1731846059	 0.0782738458	-0.291659
C	 0.4788097472	-0.3685692465	-1.2172845729	 0.232609
C	 1.8501671549	-1.0038725538	-1.244211169	-0.306735
C	 0.6505160511	-1.8901384681	-1.439164542	-0.216855
C	 0.2440629308	-2.8028018649	-0.4098539098	 0.300503
N	-0.0881618733	-3.5344154805	 0.422787005	-0.33725
C	 0.0757193402	 0.3397551376	-2.4743318378	 0.09954
O	 0.4999872652	 0.0695080255	-3.5714015395	-0.262203
H	 1.6035138074	 1.4132855173	 0.6537530863	 0.125676
H	 0.3777251264	 2.2820231105	-0.2756930473	 0.122106
H	 0.0762349068	 1.8789764624	 1.4176146318	 0.127687
H	 0.0438424622	-0.5623973086	 0.8757651794	 0.132833
H	-1.1828883141	 0.2868256001	-0.0372771612	 0.114544
H	 2.4569548791	-0.8240218504	-2.1239520265	 0.152787
H	 2.3792249927	-1.0752519212	-0.3011254161	 0.143739
H	 0.4605399663	-2.2236297538	-2.4539050252	 0.156274
H	-0.674733864	 1.1472827118	-2.3314492607	 0.090981
79.058	95.1165	123.1315	153.1934	204.4451	222.9731	259.8579	318.6983	344.4181	412.9729	551.9367	594.3078	617.9299	730.472	771.2108	783.3273	865.9596	921.4093	962.6582	1010.1214	1017.171	1056.6238	1090.3738	1094.4768	1116.9265	1138.7034	1239.4666	1292.1618	1321.245	1370.3372	1392.1421	1415.4356	1428.441	1462.7656	1486.3327	1499.2293	1504.785	1810.3111	2352.5359	2898.1465	3031.1927	3037.6006	3081.4107	3107.0476	3115.8312	3144.4837	3175.1069	3243.839
CCC1(CC1C#N)C=O	CC[C@]1(C[C@H]1C#N)C=O	
InChI=1S/C7H9NO/c1-2-7(5-9)3-6(7)4-8/h5-6H,2-3H2,1H3	InChI=1S/C7H9NO/c1-2-7(5-9)3-6(7)4-8/h5-6H,2-3H2,1H3/t6-,7-/m0/s1
