16
gdb 79559	2.48948	1.80286	1.24886	1.4409	75.15	-0.2531	0.0188	0.2719	995.861	0.123534	-400.642158	-400.634192	-400.633247	-400.67455	30.842	
O	-0.0147738901	 1.3915685356	 0.0042354853	-0.433752
C	-0.0786076927	 0.0020085596	 0.0648640371	 0.14071
C	-0.445630047	-0.7897330521	 1.2984282635	-0.141097
C	-1.554919198	-0.1106162241	 2.063086026	-0.102799
N	-2.8252478828	-0.8249513648	 2.0316494143	-0.360464
C	-2.4357372307	-0.0948309983	 0.8185356773	 0.120408
C	-3.2567858151	 0.9562384507	 0.3083958934	 0.281025
C	-3.8907143085	 1.8601461255	-0.1712577249	-0.434686
C	-1.3456319115	-0.7988105212	 0.0254643851	-0.227323
H	-0.9098863496	 1.7490989313	-0.0014514324	 0.297268
H	 0.7438327518	-0.4354786969	-0.498211913	 0.108124
H	 0.1760482838	-1.5934461691	 1.6778396748	 0.098521
H	-1.446396034	 0.6817724949	 2.7933475803	 0.120386
H	-2.698930128	-1.8282165917	 1.9101487618	 0.234793
H	-4.4720384288	 2.6482136833	-0.5824882559	 0.199977
H	-1.5222818886	-1.6008705725	-0.6830713127	 0.098907
95.6172	137.5212	172.9556	232.0503	283.2597	425.8337	494.9651	499.6645	580.4747	588.0282	613.3081	659.6446	704.0821	741.7943	782.7049	814.8283	863.5524	945.5655	968.9084	985.7307	1007.9923	1045.2774	1072.676	1090.7674	1117.9124	1120.5765	1191.5911	1238.472	1262.8014	1296.9462	1324.5869	1346.2596	1390.5864	1449.8325	2233.2612	3132.749	3166.8486	3177.5526	3198.6443	3471.6813	3500.017	3797.7026
OC1C2C3NC3(C#C)C12	O[C@H]1[C@H]2[C@@H]3N[C@]3(C#C)[C@@H]12	
InChI=1S/C7H7NO/c1-2-7-4-3(5(4)9)6(7)8-7/h1,3-6,8-9H	InChI=1S/C7H7NO/c1-2-7-4-3(5(4)9)6(7)8-7/h1,3-6,8-9H/t3-,4+,5-,6-,7+/m0/s1
