19
gdb 88389	2.21232	1.391	1.21126	3.0338	71.81	-0.237	-0.0203	0.2168	1140.7147	0.156036	-460.152535	-460.142828	-460.141884	-460.187267	36.094	
C	 0.2375084123	 1.4467226512	 0.2547287602	-0.408237
C	-0.0305105784	-0.0575906565	 0.1034545855	 0.226661
O	 0.5526809845	-0.6818381481	 1.2354095893	-0.47259
C	-1.553051663	-0.2573356575	 0.1604232646	 0.138293
O	-2.2838341694	-0.3054190061	-0.7939596833	-0.259633
C	 0.5108233923	-0.5800804666	-1.2253528996	-0.033283
C	 1.9530739495	-1.023049193	-1.342693136	-0.353909
C	 0.8333747946	-2.0297025043	-1.4299118325	 0.075078
O	 0.5901074063	-2.9087887252	-0.3520710165	-0.427586
H	 1.31726163	 1.6179214179	 0.2675216305	 0.130822
H	-0.2079939018	 2.0092734339	-0.5698334674	 0.126842
H	-0.1779958595	 1.8114134358	 1.1989066596	 0.127102
H	 0.5298339543	-1.6363772005	 1.0649445337	 0.289164
H	-1.930768455	-0.3422591984	 1.2053835088	 0.084855
H	 0.0613605141	-0.0870818291	-2.0802167672	 0.109722
H	 2.5170708936	-0.7833943135	-2.2372924202	 0.115997
H	 2.5207514008	-1.0177082492	-0.41802885	 0.128542
H	 0.6023815297	-2.4641115724	-2.4002471599	 0.104389
H	 1.2985753151	-3.5612155285	-0.3294752595	 0.29777
47.0478	81.3013	159.0141	222.3154	235.5407	267.7724	289.069	326.0687	356.4095	411.5065	419.2759	483.2073	598.8628	633.5059	647.2888	716.5502	803.431	846.7565	900.8656	917.4175	983.8267	995.015	1027.8543	1060.2659	1069.7144	1112.3117	1132.8868	1166.1346	1199.6257	1226.275	1245.6417	1292.24	1372.1141	1382.753	1401.3655	1403.5652	1446.7418	1480.1435	1487.8535	1494.6978	1831.8031	2876.1373	3043.3292	3118.7762	3124.4693	3130.1098	3132.6993	3175.42	3224.5696	3686.3898	3804.1245
CC(O)(C=O)C1CC1O	C[C@@](O)(C=O)[C@H]1C[C@H]1O	
InChI=1S/C6H10O3/c1-6(9,3-7)4-2-5(4)8/h3-5,8-9H,2H2,1H3	InChI=1S/C6H10O3/c1-6(9,3-7)4-2-5(4)8/h3-5,8-9H,2H2,1H3/t4-,5+,6+/m0/s1
