19
gdb 126608	5.10024	0.7813	0.7245	0.879	79.31	-0.2057	0.0256	0.2314	1598.1923	0.159824	-419.226535	-419.217288	-419.216344	-419.261543	33.42	
C	 0.0355440171	 1.4829029948	-0.1214189478	-0.381127
C	 0.2243500016	-0.035402094	-0.0928491627	-0.169041
C	 0.5560855439	-0.5490285188	 1.3130333941	-0.142218
N	 0.7141464107	-1.9912065277	 1.3674466645	 0.063107
C	 1.8731956976	-2.7030569194	 1.2772176432	-0.120232
C	 1.5066874893	-4.0344134372	 1.2818264759	 0.214666
O	 2.3724425721	-5.0851789733	 1.2205215082	-0.444661
C	 0.1002676533	-4.0249983335	 1.371751287	-0.117224
N	-0.3705016995	-2.7762378913	 1.4193740243	-0.262661
H	 0.9419868809	 2.0056219316	 0.2043792857	 0.115154
H	-0.2022228945	 1.8300150669	-1.130926319	 0.120395
H	-0.7816433641	 1.7946361183	 0.5383253108	 0.120715
H	-0.6847714537	-0.5406180521	-0.4352849626	 0.12552
H	 1.0275653531	-0.3304154943	-0.7785596658	 0.104556
H	 1.4841474096	-0.0985909425	 1.6799824175	 0.114819
H	-0.2435626688	-0.2851159165	 2.0113122792	 0.129637
H	 2.8402452201	-2.2310125939	 1.227779089	 0.128137
H	 1.8649512958	-5.9014834185	 1.2475581748	 0.299276
H	-0.5794780445	-4.8644758785	 1.413766654	 0.101182
41.7947	83.3686	88.3938	223.2331	230.633	269.2988	297.8079	317.0821	394.0492	449.837	635.5961	657.413	679.4486	752.5028	755.9563	782.8629	827.8007	880.9581	900.1952	1004.1476	1035.5154	1044.9737	1112.4524	1124.0547	1163.5972	1203.6421	1244.9054	1269.4911	1315.9703	1331.0644	1385.4973	1399.1309	1406.3074	1414.4489	1441.6066	1479.1861	1493.1599	1498.5918	1503.7449	1510.4367	1645.5981	3031.0887	3037.7718	3053.3609	3074.8208	3095.4909	3109.3889	3111.5618	3231.1335	3272.281	3841.8646
CCCN1C=C(O)C=N1	CCCn1cc(O)cn1	
InChI=1S/C6H10N2O/c1-2-3-8-5-6(9)4-7-8/h4-5,9H,2-3H2,1H3	InChI=1S/C6H10N2O/c1-2-3-8-5-6(9)4-7-8/h4-5,9H,2-3H2,1H3
