16
gdb 30515	2.58865	1.65168	1.01552	1.1057	80.14	-0.1996	-0.0334	0.1663	1124.6215	0.125229	-434.098855	-434.090482	-434.089538	-434.132158	30.869	
C	 0.0835973906	 1.3794957553	 0.1151250339	-0.32435
N	 0.2003215957	-0.0682115851	 0.1061473665	-0.343912
C	 0.5031998047	-0.6564072784	-0.9756175689	 0.407395
O	 0.726524607	 0.0365783728	-2.1497553776	-0.231176
C	 1.0086943902	-0.6412219427	-3.29904739	 0.097799
N	 1.0964983748	-1.902885665	-3.4156440442	-0.26038
C	 0.8997886444	-2.6652715252	-2.2745959096	-0.109416
C	 0.6264085714	-2.1125496489	-1.0620627257	 0.216411
N	 0.4804520855	-2.7810741003	 0.1274322025	-0.581711
H	 1.0407840118	 1.8657116268	-0.1166636709	 0.125019
H	-0.6459726877	 1.7407734257	-0.6221401267	 0.122319
H	-0.2350181382	 1.7067483698	 1.1072505459	 0.120799
H	 1.152918727	 0.0432419723	-4.1266837428	 0.137883
H	 0.9859845225	-3.739274952	-2.401288532	 0.101467
H	 0.2095238711	-3.7503150254	 0.086824845	 0.253682
H	 0.0441037594	-2.2262381497	 0.8509018347	 0.26817
57.1898	123.4852	199.0125	210.7797	242.6645	323.1487	396.4553	481.5446	508.3622	540.5271	556.0692	598.3471	604.5162	746.1815	767.5082	866.1953	891.852	894.7129	1059.4592	1069.0446	1102.4116	1112.0234	1144.8168	1179.0456	1209.0052	1337.6186	1406.5529	1438.8764	1450.1889	1486.8569	1498.3862	1599.0777	1640.2463	1676.4529	1743.1627	3002.0554	3051.3329	3110.6535	3180.6518	3213.6136	3560.7792	3688.1052
CN=C1OC=NC=C1N	CN=c1ocncc1N	
InChI=1S/C5H7N3O/c1-7-5-4(6)2-8-3-9-5/h2-3H,6H2,1H3	InChI=1S/C5H7N3O/c1-7-5-4(6)2-8-3-9-5/h2-3H,6H2,1H3
