21
gdb 89255	2.35092	1.75314	1.28316	1.1569	81.24	-0.2315	0.0729	0.3044	1074.5506	0.182262	-387.034258	-387.025879	-387.024935	-387.066468	34.048	
C	-0.3930663334	 1.5370391219	-0.0190505408	-0.415828
C	 0.0159082741	 0.0699464757	 0.0030041717	 0.03614
C	 1.058275945	-0.4827869444	-1.035901647	-0.343618
C	 1.8347047826	-1.1743729604	 0.1358068109	 0.431384
O	 1.9031220772	-2.5722353111	 0.128977524	-0.488044
C	 3.0561869336	-0.4550463863	 0.773937663	-0.131194
C	 2.9219686826	 1.0345471931	 0.7450445552	-0.296346
C	 2.1045239334	 0.2602343046	 1.7477498142	-0.060605
C	 0.8929024932	-0.5056373302	 1.1611535407	-0.081425
H	 0.4607180163	 2.2129072253	 0.0718306253	 0.120227
H	-0.9162144585	 1.7816586134	-0.9504648332	 0.11193
H	-1.0747850743	 1.7599283675	 0.8095974191	 0.113463
H	-0.8923483281	-0.5388055516	-0.0606007344	 0.078391
H	 0.6405762289	-1.2063865092	-1.7400700841	 0.096885
H	 1.6135374017	 0.2721363681	-1.599264881	 0.093848
H	 2.5740184532	-2.8339632404	-0.5122483885	 0.274726
H	 3.995408092	-0.9561775964	 0.9812490979	 0.081794
H	 3.7571038641	 1.573872029	 1.1833622907	 0.111043
H	 2.4800199424	 1.5496994264	-0.099821058	 0.109066
H	 2.2385130062	 0.4384497219	 2.8082030744	 0.084584
H	 0.3927248678	-1.130396347	 1.9019485299	 0.07358
159.4713	180.725	213.1255	236.9799	258.5906	313.6862	343.1155	414.2488	455.636	523.4754	624.8594	639.3932	731.3673	756.1702	821.066	836.0388	874.3796	902.0531	930.0331	957.2239	961.7023	986.0605	1013.6833	1039.0507	1060.0512	1063.3453	1093.3717	1114.4209	1137.4187	1158.1321	1180.3088	1197.1423	1226.8585	1237.7693	1264.812	1307.6952	1316.9031	1331.6273	1362.6953	1393.2862	1410.9081	1471.6499	1491.3463	1496.15	1504.4381	3030.2685	3039.9141	3056.9002	3087.5633	3106.2032	3112.0338	3118.2989	3128.4013	3165.261	3176.4519	3204.5504	3785.252
CC1CC2(O)C3CC3C12	C[C@H]1C[C@@]2(O)[C@H]3C[C@H]3[C@@H]12	
InChI=1S/C8H12O/c1-4-3-8(9)6-2-5(6)7(4)8/h4-7,9H,2-3H2,1H3	InChI=1S/C8H12O/c1-4-3-8(9)6-2-5(6)7(4)8/h4-7,9H,2-3H2,1H3/t4-,5+,6-,7+,8+/m0/s1
