18
gdb 14353	3.13751	2.11464	2.05396	2.5971	65.96	-0.2523	0.0717	0.324	784.68	0.156655	-384.936444	-384.929876	-384.928932	-384.966878	26.655	
O	-0.5107860803	 1.3354117319	-0.588435715	-0.450591
C	-0.0368403508	 0.1007341641	-0.0692873684	 0.134554
C	-1.1844218606	-0.8775560198	 0.2928678441	-0.240694
C	-1.5204928734	-1.6340143805	-1.007361218	-0.060908
C	-2.3081802099	-0.8370398723	-2.0618766114	-0.092955
O	-1.086292504	-0.4445020572	-2.7415689389	-0.312902
C	-0.3013755383	-1.3847576572	-1.9429527681	 0.126108
C	 0.7724057576	-0.6843844499	-1.1224447364	-0.26253
H	-0.7354610562	 1.1742693868	-1.5153681253	 0.290788
H	 0.5588749187	 0.3532545815	 0.8128604471	 0.07754
H	-0.8326868201	-1.5878336677	 1.0502515757	 0.096384
H	-2.0386068313	-0.3394130712	 0.7127858998	 0.108906
H	-1.8468145947	-2.6612810194	-0.8437199199	 0.075481
H	-2.942706537	-1.4474087346	-2.7162408908	 0.105159
H	-2.8760969918	 0.0302568393	-1.7086440429	 0.113688
H	 0.0555960128	-2.2152269138	-2.5604659673	 0.074048
H	 1.411175748	-0.0314721543	-1.7239754401	 0.116227
H	 1.4078777611	-1.4393863655	-0.6433871343	 0.101697
146.2829	200.7571	339.6009	359.7274	399.7252	425.9918	582.1695	619.6748	764.3478	788.7932	821.3247	846.4367	877.5034	885.1067	915.1693	948.2642	974.7498	999.2579	1028.4371	1053.5285	1079.3693	1116.3722	1148.2545	1172.3283	1197.4658	1225.7344	1253.5963	1268.3645	1301.0125	1321.3874	1343.2798	1357.1871	1366.7047	1370.4286	1458.1779	1463.3138	1479.2863	1522.9977	3020.3867	3036.0249	3038.857	3056.9426	3070.5331	3074.7463	3098.9788	3101.8924	3107.9547	3735.3314
OC1CC2COC2C1	O[C@H]1C[C@H]2CO[C@H]2C1	
InChI=1S/C6H10O2/c7-5-1-4-3-8-6(4)2-5/h4-7H,1-3H2	InChI=1S/C6H10O2/c7-5-1-4-3-8-6(4)2-5/h4-7H,1-3H2/t4-,5-,6-/m0/s1
