20
gdb 60646	2.67216	1.10189	0.93054	2.8907	74.86	-0.2447	0.0259	0.2707	1320.6443	0.169992	-440.299397	-440.289295	-440.288351	-440.33621	35.276	
C	-0.2536273544	 1.7634517647	-0.2756707956	-0.399544
C	-0.0700384375	 0.2496562372	-0.0882235006	-0.117579
C	-1.4198010393	-0.4680892725	 0.0147109342	 0.002672
C	-1.4042814431	-1.9461697226	 0.468149808	-0.093248
O	-2.1571949899	-1.6394423923	 1.658956	-0.273359
C	-2.2373757548	-0.2437765209	 1.3074931804	-0.100446
C	 0.6944584551	-0.3194491897	-1.289176186	 0.417384
N	 1.860431215	-0.9644434979	-0.9963715072	-0.526229
O	 0.2732613551	-0.2171720061	-2.4261675908	-0.377475
H	 0.7090282934	 2.2839423815	-0.2738571411	 0.117383
H	-0.7431482649	 1.9602249421	-1.2329251383	 0.146113
H	-0.8655784857	 2.1847194969	 0.5278170175	 0.116574
H	 0.4936539818	 0.062501266	 0.8358415263	 0.066206
H	-1.978311229	-0.2986432634	-0.9076247715	 0.103552
H	-1.9337687412	-2.6514751066	-0.1834063005	 0.107318
H	-0.4133755523	-2.3594190121	 0.7015442261	 0.090533
H	-1.7628764064	 0.3969559063	 2.0635468044	 0.095337
H	-3.2743346692	 0.085728487	 1.1677392336	 0.102932
H	 2.2395995389	-0.9966208152	-0.0669827553	 0.260231
H	 2.4106126584	-1.3262599025	-1.7589091037	 0.261645
28.9754	44.1625	80.9391	141.9765	183.8227	231.1494	243.008	251.0043	343.8161	386.5211	463.0867	596.7916	615.5988	744.5141	794.4248	817.5399	870.4543	891.4251	968.4764	982.9145	1007.7635	1045.0726	1059.8849	1075.5066	1108.0645	1121.9489	1155.0378	1165.3079	1206.8436	1258.4001	1273.517	1304.6842	1311.9123	1365.0537	1386.9052	1402.6883	1409.453	1493.9057	1504.1556	1512.2486	1537.2816	1614.7519	1791.4277	2996.7635	3005.7892	3013.5259	3040.7047	3044.7774	3050.0572	3100.7044	3106.7633	3127.7829	3599.0359	3739.3438
CC(C1COC1)C(N)=O	C[C@@H](C1COC1)C(=O)N	
InChI=1S/C6H11NO2/c1-4(6(7)8)5-2-9-3-5/h4-5H,2-3H2,1H3,(H2,7,8)	InChI=1S/C6H11NO2/c1-4(6(7)8)5-2-9-3-5/h4-5H,2-3H2,1H3,(H2,7,8)/t4-/m0/s1
