21
gdb 53490	3.2698	0.7865	0.7408	2.7382	87.85	-0.2432	-0.021	0.2222	1643.9956	0.177865	-387.089513	-387.078107	-387.077163	-387.127553	39.484	
C	 0.2140168836	 1.4678971951	-0.025576804	-0.49978
C	 0.0832004368	 0.0186969178	 0.0437231053	 0.1133
C	-0.0054546704	-1.181365924	 0.1033804462	 0.021442
C	-0.1244042047	-2.6337441865	 0.1738099278	-0.381015
C	-1.5799934977	-3.1492337837	 0.057041578	 0.153653
C	-2.4582103066	-2.6207949316	 1.2095148806	-0.42114
C	-2.2067855773	-2.7625056916	-1.2980508879	-0.421182
C	-1.5829313625	-4.668899431	 0.1426132079	 0.14777
O	-0.6122364711	-5.3678403355	 0.2790394087	-0.25766
H	 1.1570863232	 1.8024682447	 0.4208082296	 0.149161
H	 0.1955065339	 1.8226912279	-1.0620785269	 0.146449
H	-0.5996642071	 1.9696699138	 0.5098857362	 0.14543
H	 0.4757282581	-3.0989318989	-0.6170886835	 0.134049
H	 0.3021643627	-3.0008942583	 1.1147276369	 0.133993
H	-2.5199883015	-1.5306006052	 1.1569822078	 0.138498
H	-3.474490976	-3.0246731613	 1.1507917261	 0.115855
H	-2.0400463492	-2.8910049546	 2.184686986	 0.124664
H	-1.6077606022	-3.1365355412	-2.1347829175	 0.124588
H	-3.2196383768	-3.1672752579	-1.3963036751	 0.115814
H	-2.263771632	-1.6739707338	-1.381293365	 0.138483
H	-2.6027768532	-5.1161746041	 0.0659998925	 0.077628
22.8098	52.1912	84.9922	94.9562	202.5105	208.5482	224.3425	245.4805	270.1532	318.7348	340.7312	386.0597	387.1365	391.7138	505.6834	605.0498	742.2367	812.741	891.4647	897.4335	946.5045	963.2355	993.5463	1051.7514	1055.0008	1056.5773	1142.8651	1167.7645	1219.3249	1255.5928	1284.7425	1353.4384	1392.233	1406.4621	1416.0503	1426.6884	1461.5492	1479.2267	1479.8973	1482.5729	1487.7955	1503.573	1510.4118	1828.8015	2369.0891	2847.8205	3025.9324	3031.6467	3033.2674	3037.0428	3065.3108	3085.5571	3086.4459	3100.1073	3102.6631	3117.9698	3120.1598
CC#CCC(C)(C)C=O	CC#CCC(C)(C)C=O	
InChI=1S/C8H12O/c1-4-5-6-8(2,3)7-9/h7H,6H2,1-3H3	InChI=1S/C8H12O/c1-4-5-6-8(2,3)7-9/h7H,6H2,1-3H3
