18
gdb 6445	3.78632	1.42313	1.24361	3.5525	73.41	-0.232	0.0296	0.2615	1036.9256	0.153348	-343.978804	-343.970391	-343.969447	-344.011361	30.946	
C	-0.0185185366	 1.4884841462	 0.0682108377	-0.323509
N	-0.0312281625	 0.0452981554	 0.1518917244	-0.067125
C	-1.2704937567	-0.6283092268	 0.571188425	-0.19963
C	-0.3969936687	-1.6895314625	 1.3163587648	 0.145495
C	-0.1087496425	-2.9419836022	 0.4805551013	-0.446182
C	 0.728473372	-0.6077289945	 1.2297343883	-0.19963
C	-0.8362696876	-2.0361890011	 2.6605881526	 0.233263
N	-1.1847895842	-2.3155192815	 3.727232857	-0.344318
H	 0.9904566356	 1.8353824594	-0.1776681355	 0.126929
H	-0.6900554738	 1.8180804955	-0.7313079282	 0.126929
H	-0.3330785214	 1.9806560518	 1.0076417524	 0.09805
H	-1.8818176343	-0.0379689434	 1.2713276183	 0.105424
H	-1.9036953329	-0.9961971362	-0.2431592775	 0.113394
H	 0.2171960017	-2.6413608145	-0.5182247115	 0.14122
H	 0.678258581	-3.5456733048	 0.9414080016	 0.135436
H	-1.0041979306	-3.562993949	 0.3871345787	 0.135436
H	 1.7283921587	-0.9588039206	 0.9534069314	 0.113394
H	 0.7929154027	-0.0104322311	 2.1525003791	 0.105424
89.0741	173.3135	196.588	230.3568	241.8901	280.6105	304.3333	373.9367	386.9312	514.5553	572.3978	592.5823	737.1234	895.322	914.6931	942.9106	973.1962	984.3719	1005.2392	1114.6455	1125.3659	1163.6542	1170.0837	1193.3008	1234.8151	1251.0806	1292.8776	1301.7141	1345.7904	1409.6183	1453.4783	1486.115	1492.0777	1493.655	1499.287	1504.0952	1529.7047	2352.5987	2932.7281	2979.16	2988.6663	3044.8524	3061.2223	3064.259	3065.517	3103.0932	3118.7261	3130.391
CN1CC(C)(C1)C#N	CN1CC(C)(C1)C#N	
InChI=1S/C6H10N2/c1-6(3-7)4-8(2)5-6/h4-5H2,1-2H3	InChI=1S/C6H10N2/c1-6(3-7)4-8(2)5-6/h4-5H2,1-2H3
