17
gdb 102000	2.25984	1.03224	0.932	2.8249	77.91	-0.2542	-0.0756	0.1786	1360.6843	0.131426	-421.813528	-421.803233	-421.802289	-421.85072	35.047	
C	-0.2464681276	 1.529374878	-0.3447252395	-0.398912
C	-0.1260717984	 0.0049135804	-0.3053973893	-0.182754
C	 0.8807401667	-0.5583961115	-1.3506718428	-0.185951
C	 2.2896649851	-0.1057908883	-0.975597287	 0.167711
O	 2.8772968038	 0.7852687953	-1.5281123479	-0.24871
C	 0.8252686575	-2.0815227896	-1.3228803222	 0.230537
O	 1.1470347766	-2.7108643936	-0.3359356591	-0.303777
C	 0.3657192679	-2.7289122799	-2.5350302404	 0.259629
C	-0.0250986409	-3.2421015921	-3.5516997182	-0.410709
H	 0.7118989419	 2.019687503	-0.1516948483	 0.138633
H	-0.6007648765	 1.8727519795	-1.3220811878	 0.125562
H	-0.9598775539	 1.8721329533	 0.410459982	 0.12249
H	 0.1831279081	-0.3401752034	 0.6871414577	 0.12938
H	-1.1040293768	-0.4507636211	-0.4981450329	 0.116807
H	 0.6458133029	-0.171963738	-2.3454534931	 0.108401
H	 2.7234177658	-0.6593832853	-0.115960607	 0.109497
H	-0.365740422	-3.7120308869	-4.442687314	 0.222165
16.5378	78.1158	80.5334	134.4316	163.4764	215.69	229.202	267.1058	305.8016	356.6927	461.0261	481.7323	630.3258	648.4219	714.0677	745.0783	774.3631	854.4548	892.6895	964.4146	1018.9766	1067.6766	1084.4881	1107.1396	1149.1133	1256.0808	1316.3921	1328.0327	1354.8013	1406.1732	1417.5632	1488.7762	1495.7446	1503.9089	1749.3006	1832.6704	2210.1459	2916.291	3038.6096	3041.541	3075.5605	3093.3932	3111.3185	3119.084	3492.3649
CCC(C=O)C(=O)C#C	CC[C@@H](C=O)C(=O)C#C	
InChI=1S/C7H8O2/c1-3-6(5-8)7(9)4-2/h2,5-6H,3H2,1H3	InChI=1S/C7H8O2/c1-3-6(5-8)7(9)4-2/h2,5-6H,3H2,1H3/t6-/m0/s1
