17
gdb 76980	2.62279	1.25008	1.0948	2.4421	70.5	-0.2496	-0.0434	0.2063	1159.7177	0.134376	-458.926276	-458.917793	-458.916849	-458.959984	31.196	
O	 0.2036886845	 1.1906459126	 0.2516370632	-0.41859
C	-0.0401059199	-0.1523943406	 0.0635027498	 0.112626
C	-0.6124207497	-1.0136730536	 1.218581564	-0.207293
C	-0.9251779469	-0.3187917359	 2.4688530785	 0.161589
O	-1.19485786	 0.8702270055	 2.55279609	-0.313199
C	-1.4096008372	-0.7143425034	-0.0865549763	-0.103765
C	-2.6363163666	 0.1308231054	-0.074491543	 0.082939
C	-3.5620001828	 0.1149693308	-1.2149879548	-0.184934
O	-3.8805527232	-0.5793118425	-0.0093895236	-0.241885
H	-0.2972177041	 1.4775745071	 1.0371722892	 0.31279
H	 0.7558434452	-0.6198562309	-0.5086103382	 0.122559
H	-0.2545619305	-2.0308292128	 1.3300250077	 0.106872
H	-0.8741509911	-0.9363194909	 3.3875755351	 0.10505
H	-1.4990260062	-1.5947406852	-0.7165140429	 0.109988
H	-2.6038433542	 1.0220854205	 0.5449494066	 0.120888
H	-4.1673185207	 0.9947859554	-1.4280324645	 0.121424
H	-3.3446974166	-0.5165458116	-2.0758819807	 0.112938
54.4697	126.5177	149.2718	196.9705	248.8502	283.5558	332.7342	449.9124	472.4957	608.9399	612.5819	728.1396	768.0628	795.7257	837.023	858.9964	924.0589	960.5117	979.381	1013.4631	1057.6611	1093.686	1105.3218	1120.4312	1155.9392	1168.0095	1188.3268	1251.4438	1297.3392	1319.886	1359.1199	1377.6463	1429.3052	1458.7374	1490.8537	1531.6403	1745.7004	2935.2044	3081.8646	3149.4854	3158.6	3162.3076	3174.1466	3179.4034	3590.5517
OC1C(C=O)C1C1CO1	O[C@H]1[C@@H](C=O)[C@H]1[C@H]1CO1	
InChI=1S/C6H8O3/c7-1-3-5(6(3)8)4-2-9-4/h1,3-6,8H,2H2	InChI=1S/C6H8O3/c7-1-3-5(6(3)8)4-2-9-4/h1,3-6,8H,2H2/t3-,4+,5-,6-/m0/s1
