17
gdb 95746	3.00397	1.16778	0.8794	1.5002	80.61	-0.2371	-0.0258	0.2112	1278.5414	0.135089	-421.791509	-421.782839	-421.781895	-421.824772	32.617	
O	-0.107014861	 1.4464123286	 0.0409770851	-0.427107
C	 0.004446267	 0.0270609243	 0.0106607284	 0.066475
C	-1.4237211479	-0.5209793849	-0.0248720778	-0.097866
O	-1.4099832292	-1.910171517	-0.2884225938	-0.245746
C	-0.9452822534	-2.219552897	-1.5833508047	-0.166301
C	 0.3229911561	-1.4714947393	-1.9593376354	 0.113931
C	 0.7563016535	-0.4523456789	-1.2041283301	-0.184108
C	 0.9796428334	-1.9012422689	-3.1432344364	 0.226684
C	 1.4904436125	-2.3144033985	-4.1534647639	-0.410088
H	 0.7712843719	 1.8167379521	 0.1729861541	 0.287494
H	 0.5037263417	-0.3365265995	 0.9239178286	 0.086013
H	-1.9197118477	-0.3841206723	 0.9384089254	 0.115582
H	-1.9891327832	 0.0326657427	-0.7905152181	 0.104729
H	-0.7603086767	-3.2982537676	-1.6002373353	 0.129713
H	-1.720870549	-2.0091399242	-2.3405657517	 0.111839
H	 1.6675005487	 0.0765631801	-1.471929824	 0.091266
H	 1.9542199532	-2.6617779999	-5.0433197805	 0.19749
109.5149	119.0747	146.136	219.3684	286.0535	304.1475	355.9057	424.4376	464.7489	522.1226	528.8331	567.1384	597.2885	614.7597	645.4129	871.4561	895.647	926.1546	970.6187	1021.301	1049.1646	1082.5293	1096.0556	1143.7194	1176.6349	1228.266	1262.1871	1306.7371	1321.8144	1347.6862	1371.8095	1403.4972	1432.3275	1485.8137	1502.1535	1693.8424	2219.704	2956.7636	2961.0491	2994.7428	3075.7306	3108.3452	3161.5335	3502.6169	3822.557
OC1COCC(=C1)C#C	O[C@H]1COCC(=C1)C#C	
InChI=1S/C7H8O2/c1-2-6-3-7(8)5-9-4-6/h1,3,7-8H,4-5H2	InChI=1S/C7H8O2/c1-2-6-3-7(8)5-9-4-6/h1,3,7-8H,4-5H2/t7-/m1/s1
