19
gdb 115776	2.10004	1.36617	0.91656	4.9235	73.61	-0.2635	0.0155	0.279	1298.3118	0.157418	-460.159629	-460.150219	-460.149275	-460.194652	33.156	
C	 0.3794861553	 1.3043779324	 0.0141915687	-0.242344
O	 0.9719954423	 0.0231116708	-0.0430205839	-0.242197
C	 0.785098555	-0.7380540715	 1.1092387125	 0.154322
C	-0.5996465834	-1.3699488613	 1.4357580821	-0.266772
C	 0.1675959446	-2.658356633	 1.8524835031	-0.24572
C	 1.3833721528	-2.1669246526	 1.0365783641	 0.059652
O	 1.2862779965	-2.7249919534	-0.2764081748	-0.197043
C	 2.2086304135	-2.3282339058	-1.179947366	 0.186231
O	 2.1884737814	-2.7005039291	-2.3143590735	-0.283313
H	 0.7890923086	 1.9006005782	 0.8440087536	 0.108178
H	 0.6041511834	 1.8053554255	-0.929521607	 0.137904
H	-0.7113236646	 1.2433373515	 0.1343279303	 0.116958
H	 1.1839943732	-0.2173792109	 1.9954977888	 0.071644
H	-1.2253263541	-0.879629714	 2.1832692767	 0.101977
H	-1.1729455945	-1.529493931	 0.5198482413	 0.130306
H	 0.3869192843	-2.6935507397	 2.9218928439	 0.112869
H	-0.2433052185	-3.616496113	 1.5342079638	 0.12867
H	 2.3900885077	-2.3212418296	 1.436376237	 0.086175
H	 2.9734474863	-1.6561412333	-0.7522329709	 0.082503
72.1383	87.2569	99.9043	165.8046	191.771	210.6523	232.9172	325.623	377.0595	436.7075	559.1954	622.7684	715.3295	751.9773	897.4108	927.9565	939.0824	955.739	1016.7654	1040.5498	1058.7824	1105.7125	1138.29	1173.1738	1181.3356	1184.3948	1203.1706	1232.4761	1256.485	1262.6623	1278.7025	1303.4961	1366.233	1390.3633	1437.0099	1469.9819	1481.5332	1487.3538	1492.4101	1508.2772	1866.1259	2966.5799	2982.8849	2984.3115	3036.6504	3059.6831	3075.3753	3082.6173	3126.5901	3131.9133	3147.1173
COC1CCC1OC=O	CO[C@H]1CC[C@H]1OC=O	
InChI=1S/C6H10O3/c1-8-5-2-3-6(5)9-4-7/h4-6H,2-3H2,1H3	InChI=1S/C6H10O3/c1-8-5-2-3-6(5)9-4-7/h4-6H,2-3H2,1H3/t5-,6+/m0/s1
