18
gdb 73194	2.72353	1.37045	1.15865	3.9648	73.75	-0.2442	0.019	0.2632	1114.593	0.147091	-439.071891	-439.063464	-439.06252	-439.105467	30.927	
C	-0.1763260379	 1.513899129	-0.0905571283	-0.487483
C	 0.0216318441	 0.0200835274	 0.007414231	 0.263879
C	-1.1802096433	-0.9028952046	 0.3298101573	-0.106836
O	-0.4157820021	-1.6205878604	 1.3278552084	-0.288675
C	 0.7294664296	-0.7740721846	 1.1498986687	 0.049058
C	 1.7357703714	-1.3235867961	 0.109865165	-0.192748
N	 0.9859373404	-0.5934792328	-0.9209375319	-0.073406
C	 1.0372936435	-0.7020097865	-2.2687619915	 0.121699
O	 1.8441224156	-1.3765413365	-2.8746947464	-0.32682
H	 0.7849992039	 2.0344158334	-0.1217220995	 0.134564
H	-0.7331089661	 1.7787237011	-0.9963305669	 0.134303
H	-0.7459001332	 1.8811626708	 0.768375936	 0.132646
H	-2.0368928855	-0.3870802257	 0.7824730302	 0.106693
H	-1.526736147	-1.5490836841	-0.4837144872	 0.114398
H	 1.1058381813	-0.3517152306	 2.0829910746	 0.093056
H	 2.7676181519	-0.9720246345	 0.2190487986	 0.122682
H	 1.7256534432	-2.4107922941	-0.0037291276	 0.137387
H	 0.2602156904	-0.0852755914	-2.7664891304	 0.065603
46.208	140.1329	172.6275	212.9458	239.3455	316.6255	329.6797	401.3378	423.0697	518.5859	652.021	727.9941	834.3463	842.6444	880.0063	917.5325	973.6929	998.5335	1017.2967	1033.4793	1073.5579	1112.3216	1143.2694	1155.58	1176.2698	1185.15	1220.8774	1284.1297	1303.7749	1313.9743	1373.0175	1393.5327	1413.3528	1441.564	1487.2834	1492.8269	1496.0448	1514.6451	1790.3467	2916.05	3015.4638	3036.7741	3041.4386	3075.7883	3101.1786	3102.6902	3106.7661	3119.8929
CC12COC1CN2C=O	C[C@]12CO[C@H]1CN2C=O	
InChI=1S/C6H9NO2/c1-6-3-9-5(6)2-7(6)4-8/h4-5H,2-3H2,1H3	InChI=1S/C6H9NO2/c1-6-3-9-5(6)2-7(6)4-8/h4-5H,2-3H2,1H3/t5-,6-/m0/s1
