17
gdb 49973	3.69178	1.13926	1.00687	1.5582	75.05	-0.2475	-0.0223	0.2252	1178.0207	0.134547	-421.738772	-421.731096	-421.730152	-421.771303	29.409	
O	-0.1147582211	 0.0108725015	-0.3866945855	-0.26824
C	 0.0063743825	 1.145972488	 0.0027163869	 0.169782
C	 1.2711837912	 1.9124720771	 0.0059791992	-0.212107
C	 1.1869766597	 3.4457960733	-0.1740823786	-0.401059
C	 1.5321600982	 2.8818834497	 1.1342132665	 0.444681
C	 0.9674835762	 3.0620040547	 2.553799616	-0.045742
C	 2.0405159827	 2.0764634894	 3.0820461933	-0.218561
C	 2.7095700715	 3.0709567973	 2.1003720232	-0.044055
O	 1.9403021786	 4.1676808055	 2.741304473	-0.305315
H	-0.8667617562	 1.7138002346	 0.4057585013	 0.063124
H	 2.1188421817	 1.3973505411	-0.4345048417	 0.110957
H	 1.9614323616	 3.9012256843	-0.7814210769	 0.136021
H	 0.1965891089	 3.8693216823	-0.3140893106	 0.13195
H	-0.0567462704	 3.2288493151	 2.8852914279	 0.106937
H	 2.3115669303	 2.220398924	 4.128017548	 0.114076
H	 1.9702088922	 1.0270902755	 2.7875993289	 0.112529
H	 3.7633621225	 3.2457310867	 1.8849050391	 0.105024
79.5239	130.2368	194.3009	233.2401	355.2053	359.1715	453.4644	491.4633	601.4226	696.684	728.302	803.4706	851.5069	866.3123	878.5288	918.9122	934.3817	974.0281	1011.546	1037.9671	1044.794	1060.9826	1072.6329	1118.5212	1130.4979	1162.5479	1171.2195	1174.6049	1214.2664	1235.3293	1264.148	1294.6184	1418.8375	1447.5901	1478.4529	1508.6096	1818.4999	2839.9117	3073.0799	3126.241	3127.4419	3131.6304	3158.8325	3170.6621	3215.5174
O=CC1CC11C2CC1O2	O=C[C@H]1C[C@]21[C@H]1C[C@@H]2O1	
InChI=1S/C7H8O2/c8-3-4-2-7(4)5-1-6(7)9-5/h3-6H,1-2H2	InChI=1S/C7H8O2/c8-3-4-2-7(4)5-1-6(7)9-5/h3-6H,1-2H2/t4-,5-,6+,7+/m1/s1
