17
gdb 33009	5.18435	0.9624	0.82002	1.7792	79.5	-0.2394	-0.0405	0.1989	1383.1362	0.137485	-418.061982	-418.053953	-418.053009	-418.095236	29.329	
C	 0.0227079211	 1.5194716151	-0.0641645612	-0.391456
C	-0.0070007077	 0.0053368059	 0.0173588013	-0.03959
O	 0.659438771	-0.4990064029	-1.1525050277	-0.270864
C	 0.7502926768	-1.8295097519	-1.2895828495	 0.420557
N	 0.2418363918	-2.6402993434	-0.3749378899	-0.335084
C	 0.3851941762	-3.953742725	-0.6053122898	-0.020994
C	 1.0260313632	-4.4410848915	-1.7311266412	-0.028783
N	 1.5405620433	-3.6139084316	-2.6568155328	-0.227274
C	 1.4050696335	-2.3178426947	-2.4400962189	-0.079293
H	 1.0517424113	 1.8885585783	-0.0903674372	 0.130648
H	-0.4926466938	 1.8720600455	-0.9618843745	 0.130636
H	-0.4757086314	 1.9467134011	 0.8110029728	 0.122623
H	 0.5042966181	-0.3664629581	 0.9117577975	 0.119622
H	-1.0306858261	-0.3831436041	 0.0444951642	 0.11965
H	-0.0293395415	-4.6270637973	 0.1405992966	 0.115326
H	 1.1337036701	-5.5074021167	-1.9027188656	 0.112542
H	 1.8102333542	-1.6224394085	-3.1698330941	 0.121734
61.7147	107.0153	159.4241	213.7089	260.7369	343.9186	437.2469	439.9445	555.1605	620.1273	677.5228	783.8329	810.8646	850.6993	867.7297	940.7748	951.4446	977.9176	1018.8774	1059.3526	1089.1203	1128.7132	1181.5433	1198.8651	1254.6705	1289.8392	1320.2696	1345.6574	1387.2719	1414.9855	1456.2911	1485.6368	1496.7099	1503.4624	1521.9171	1581.8917	1622.1455	3042.3781	3047.1433	3080.0911	3121.9208	3126.6599	3158.6113	3169.732	3185.3406
CCOC1=NC=CN=C1	CCOc1nccnc1	
InChI=1S/C6H8N2O/c1-2-9-6-5-7-3-4-8-6/h3-5H,2H2,1H3	InChI=1S/C6H8N2O/c1-2-9-6-5-7-3-4-8-6/h3-5H,2H2,1H3
