16
gdb 6267	3.01327	1.41366	1.20009	4.199	67.02	-0.2407	-0.0864	0.1543	1057.694	0.128079	-379.920959	-379.911866	-379.910922	-379.955482	30.971	
C	 0.5910570964	 0.630789526	-0.5906152837	-0.329763
N	-0.383733106	-0.2216422129	 0.0783304918	-0.053946
C	 0.1254837296	-0.7651844842	 1.3289712644	-0.321392
C	-1.6733197001	 0.4178429458	 0.2140469706	-0.253351
C	-2.4225901777	 0.4582702447	-1.10943005	 0.290333
O	-3.1102503795	 1.3717140409	-1.4840979743	-0.256638
C	-2.2884821393	-0.7615692264	-1.9415941984	 0.24252
N	-2.2517324451	-1.6965093217	-2.6211651607	-0.309724
H	 1.5067591339	 0.0628745467	-0.7755975039	 0.133996
H	 0.2037951194	 0.9635346714	-1.5585950886	 0.132285
H	 0.8518583493	 1.5286093549	-0.000532178	 0.104111
H	 0.347785382	 0.0107836936	 2.0842643437	 0.101899
H	-0.6019958048	-1.4618380402	 1.7555062178	 0.127516
H	 1.0486372637	-1.3181060956	 1.1329652926	 0.131331
H	-2.2961841787	-0.1794085499	 0.8941747686	 0.141579
H	-1.6480256829	 1.4472784069	 0.6120547682	 0.119245
39.6256	79.0958	123.1138	201.6873	237.5005	249.5866	281.0798	350.4088	377.7307	394.0711	471.4572	598.7342	670.7066	728.4806	875.0613	984.094	1069.6542	1073.3622	1123.2032	1142.7072	1191.4338	1197.3791	1300.5098	1314.9227	1370.0632	1448.9038	1455.3318	1479.5623	1484.8215	1496.7867	1499.1362	1512.9305	1804.7378	2336.171	2939.4469	2945.1779	2961.284	3040.5114	3069.309	3070.8211	3113.1786	3116.4079
CN(C)CC(=O)C#N	CN(C)CC(=O)C#N	
InChI=1S/C5H8N2O/c1-7(2)4-5(8)3-6/h4H2,1-2H3	InChI=1S/C5H8N2O/c1-7(2)4-5(8)3-6/h4H2,1-2H3
