15
gdb 43344	3.13562	1.76316	1.28501	5.6393	71.21	-0.2261	-0.0548	0.1714	938.5456	0.115794	-416.844961	-416.838272	-416.837328	-416.876186	26.053	
O	 0.0179926047	-0.0171667603	-0.2164609273	-0.317188
C	-0.0159913161	 1.176290964	-0.0579868806	 0.391523
C	-1.2257585856	 2.0317184861	 0.0764023485	-0.170409
C	-0.8956434824	 3.326214679	 0.097561866	-0.075342
C	 0.6014939878	 3.5568084899	-0.0025833632	-0.062361
N	 1.1989010335	 4.1665088445	 1.1957858781	-0.304037
C	 1.7291127308	 3.1242320314	 1.9383980416	 0.064192
N	 1.829793587	 1.981770696	 1.3764062528	-0.240455
C	 1.2047019494	 2.1205339044	 0.0455749261	-0.107953
H	-2.2231550795	 1.6126774098	 0.1195086439	 0.123987
H	-1.5949753027	 4.1533616327	 0.173535521	 0.115919
H	 0.8627847851	 4.1314320823	-0.8964279588	 0.101061
H	 0.7136783042	 4.9152945651	 1.6689595216	 0.244008
H	 2.0852591263	 3.3241673011	 2.9452529579	 0.130663
H	 1.9297927376	 1.8942981239	-0.7404667076	 0.10639
95.4376	205.736	237.6642	367.9597	467.9468	489.3792	538.993	578.4133	697.5415	707.2786	799.3159	849.2014	873.6252	885.1916	924.2881	956.7192	982.5132	1004.944	1023.6444	1044.1664	1098.2053	1116.078	1181.3795	1236.8939	1256.1717	1268.3608	1325.7692	1346.6125	1360.9871	1422.8243	1649.3707	1678.4501	1831.1504	3054.1192	3080.4097	3178.986	3183.4631	3225.2938	3603.0751
O=C1C=CC2NC=NC12	O=C1C=C[C@H]2N[CH][N][C@@H]12	
InChI=1S/C6H6N2O/c9-5-2-1-4-6(5)8-3-7-4/h1-4,6H,(H,7,8)	InChI=1S/C6H6N2O/c9-5-2-1-4-6(5)8-3-7-4/h1-4,6H,(H,7,8)/t4-,6-/m1/s1
