18
gdb 37057	3.175	1.7849	1.52119	1.6603	73.53	-0.2424	0.0157	0.2581	920.5611	0.15097	-401.955437	-401.948849	-401.947904	-401.98599	27.619	
C	 0.0826669403	 1.3608853184	 0.1649772711	-0.390229
C	 1.3936010728	 0.644763326	-0.0101567545	 0.375455
C	 2.2375186302	 0.2223774754	 1.1659138076	-0.29867
C	 1.1990174027	-0.4602978712	 2.1094712276	-0.225637
C	 0.0810206992	-1.0481477842	 1.1958903117	-0.29119
C	 0.1074920875	-0.1448503646	-0.0212200884	 0.302206
N	-0.0528697238	-0.6244186192	-1.3803430015	-0.319304
C	 0.9566941339	-0.1692133943	-2.0105807291	 0.06475
O	 1.8906075116	 0.5750572658	-1.3421518125	-0.262194
H	-0.1490168462	 1.7557560135	 1.1480242322	 0.119993
H	-0.2813781599	 1.9549133275	-0.6653291095	 0.12525
H	 2.9779854384	-0.5031683823	 0.8112885105	 0.115291
H	 2.7771549008	 1.0326521143	 1.6657154018	 0.105311
H	 1.661019686	-1.2226919715	 2.7413554705	 0.108317
H	 0.7718387887	 0.2874022139	 2.7854386447	 0.111236
H	 0.3340437677	-2.0643085803	 0.8752664559	 0.113839
H	-0.8841147124	-1.0947189353	 1.7092913085	 0.104527
H	 1.1661519022	-0.3097085419	-3.0645533966	 0.141048
205.32	219.8484	294.0498	378.9528	413.6483	527.9201	563.8397	601.8042	607.3924	739.3556	765.8665	815.9054	852.0834	902.0597	904.205	919.1143	921.1314	945.6905	973.7066	993.1785	1031.8516	1053.2006	1059.9508	1095.4533	1190.8705	1213.117	1222.5424	1254.3236	1262.1574	1314.1888	1330.4806	1335.1269	1359.7449	1372.7261	1466.3567	1493.0385	1494.1762	1511.2052	1643.6856	3044.8179	3048.1607	3054.0335	3086.3556	3088.7867	3108.153	3135.7499	3224.1433	3228.8147
C1C23CCCC12N=CO3	C1[C@@]23CCC[C@@]12N=CO3	
InChI=1S/C7H9NO/c1-2-6-4-7(6,3-1)9-5-8-6/h5H,1-4H2	InChI=1S/C7H9NO/c1-2-6-4-7(6,3-1)9-5-8-6/h5H,1-4H2/t6-,7+/m1/s1
