19
gdb 79245	2.43658	1.65581	1.3942	0.9072	74.69	-0.225	0.0644	0.2894	1034.4454	0.157293	-422.964273	-422.955643	-422.954699	-422.996867	33.661	
C	 0.0393854318	 1.5676231177	-0.0055528841	-0.422311
C	 0.0582515783	 0.0468137738	-0.020111106	-0.000155
C	 0.7820888481	-0.7114359091	-1.134289714	-0.182779
C	 2.2565158573	-0.8219133847	-0.6326336635	-0.013705
O	 2.3378674904	-0.138513412	 0.6124868005	-0.31729
C	 1.0319938265	-0.7026942867	 0.9488292569	 0.310816
C	 0.7941568264	-0.8690599514	 2.4166551819	-0.511894
C	 1.2272693008	-1.8079253347	-0.1991813101	 0.275258
O	 1.0388204409	-3.1599137564	-0.2924464839	-0.448776
H	 1.0573213034	 1.9620093295	-0.0488986	 0.132263
H	-0.5201287264	 1.9588787028	-0.8621575543	 0.110746
H	-0.4397810752	 1.9504100793	 0.9027545517	 0.109131
H	-0.9474431582	-0.3705444601	 0.1029082696	 0.076578
H	 0.5356846374	-0.7909693858	-2.1857660563	 0.090626
H	 3.1236995053	-0.8684443737	-1.2775567499	 0.109396
H	 0.8043765646	 0.1052281774	 2.9177404082	 0.13545
H	-0.1786333023	-1.3367788743	 2.5954897198	 0.128008
H	 1.5703258943	-1.491157989	 2.8724388739	 0.124418
H	 1.7547123966	-3.6019626928	 0.1790924397	 0.29422
162.4911	171.4778	178.946	198.3525	218.3897	301.1281	326.4607	376.8769	427.4139	545.9243	590.8695	626.608	664.4028	724.4349	766.5809	809.1033	848.1824	878.67	912.971	935.8924	1006.2382	1026.3906	1040.847	1055.0572	1079.076	1128.9447	1140.1186	1153.236	1194.2984	1246.7255	1276.12	1302.6846	1338.172	1378.8588	1401.7492	1414.9634	1475.3701	1484.4642	1491.1692	1495.91	1502.7868	3031.2377	3035.2269	3049.9279	3090.1153	3102.7239	3115.2701	3126.884	3197.8609	3214.0814	3781.8656
CC1C2C3OC1(C)C23O	C[C@H]1[C@H]2[C@H]3O[C@]1(C)[C@@]23O	
InChI=1S/C7H10O2/c1-3-4-5-7(4,8)6(3,2)9-5/h3-5,8H,1-2H3	InChI=1S/C7H10O2/c1-3-4-5-7(4,8)6(3,2)9-5/h3-5,8H,1-2H3/t3-,4-,5+,6-,7+/m0/s1
