16
gdb 27183	3.01617	1.42199	1.0454	1.6971	73.68	-0.1945	0.0202	0.2146	1121.2742	0.124961	-437.871679	-437.863981	-437.863036	-437.904226	29.395	
O	-0.2119450477	 1.367805126	 0.1079012452	-0.443906
C	-0.0394002466	 0.0233059967	 0.0749806484	 0.235149
C	 0.2092332432	-0.7529352913	-1.0161533109	 0.258756
O	 0.3200337446	-2.0709045289	-0.629054393	-0.187334
C	 0.1362308201	-2.0974062664	 0.7178610041	-0.012971
C	-0.0878038116	-0.8499605226	 1.2080652782	-0.260346
N	 0.3443502919	-0.3590900854	-2.3419407657	-0.209182
C	 1.3088057153	-1.0507509042	-3.2098850058	-0.224265
C	-0.154007457	-1.2339755328	-3.4134052387	-0.224259
H	-0.1245965298	 1.680410357	-0.8023668561	 0.299005
H	 0.1935415756	-3.0693396722	 1.179182482	 0.133073
H	-0.2651502391	-0.5725293637	 2.2345510012	 0.118728
H	 1.8767991292	-0.4054549963	-3.8734513481	 0.122831
H	 1.8598534354	-1.8794427661	-2.7758341947	 0.135941
H	-0.5838587715	-2.185536162	-3.1158428409	 0.135951
H	-0.6613197821	-0.7233764878	-4.2265900053	 0.122829
70.4715	156.8173	159.149	285.5731	303.5832	429.5721	461.3148	528.1347	585.5322	630.0141	683.3986	707.1859	734.2993	816.3612	820.7972	842.0848	884.0959	928.4103	1034.8377	1062.7393	1089.4213	1108.5795	1129.5133	1137.1431	1181.622	1192.441	1210.3272	1250.7864	1325.5538	1372.0293	1483.1707	1506.0595	1511.0935	1547.1525	1705.2504	3115.7249	3119.2679	3203.5041	3218.6054	3261.7803	3284.7819	3773.2843
OC1=C(OC=C1)N1CC1	Oc1c(occ1)N1CC1	
InChI=1S/C6H7NO2/c8-5-1-4-9-6(5)7-2-3-7/h1,4,8H,2-3H2	InChI=1S/C6H7NO2/c8-5-1-4-9-6(5)7-2-3-7/h1,4,8H,2-3H2
