17
gdb 26966	3.01512	1.3818	0.99972	2.3802	74.85	-0.1879	0.054	0.2419	1153.3288	0.137941	-418.007982	-417.999863	-417.998919	-418.040857	31.045	
O	 0.5363588175	 1.2171737138	 0.0152047286	-0.434429
C	 0.2260915697	-0.1000040326	-0.074168635	 0.297818
C	-0.0236940175	-0.9282179264	-1.1489289315	 0.130382
C	-0.3156229659	-2.2179052453	-0.5852034655	-0.245322
C	-0.218992684	-2.1229798873	 0.7758651525	-0.090257
N	 0.1156322361	-0.8133020205	 1.0802920088	-0.292035
C	-0.0183326889	-0.5417476325	-2.578056577	-0.146596
C	 1.0627638239	 0.3304175724	-3.1309680932	-0.263152
N	 1.0010896726	-1.0906934491	-3.5015361118	-0.307973
H	 0.506412551	 1.5796671197	-0.8772119081	 0.306408
H	-0.5609003148	-3.1088603933	-1.1431770735	 0.099501
H	-0.3496456975	-2.8535517213	 1.5563015085	 0.119075
H	 0.2498431308	-0.4257161051	 1.9977211719	 0.266894
H	-0.9917050237	-0.4707487646	-3.0620917209	 0.099444
H	 0.8440045203	 1.0240333917	-3.9382881253	 0.117527
H	 1.8600678951	 0.6487330189	-2.4631567859	 0.111525
H	 1.6851294652	-1.6027880685	-2.9481997026	 0.231189
67.3798	144.1394	162.4105	272.9967	320.5925	349.2322	392.5124	443.7315	503.7806	613.8865	635.4438	657.6107	713.4963	735.5104	821.3654	833.3102	869.3067	915.1708	961.6895	1005.31	1065.6492	1086.4448	1110.5436	1150.5867	1166.1497	1179.0189	1210.0292	1240.71	1284.9462	1309.144	1349.987	1403.5962	1424.1521	1502.6847	1532.7882	1563.2195	1640.4494	3100.8215	3103.3417	3186.0017	3246.2919	3279.7915	3491.447	3685.5513	3816.9448
OC1=C(C=CN1)C1CN1	Oc1c(cc[nH]1)[C@H]1CN1	
InChI=1S/C6H8N2O/c9-6-4(1-2-7-6)5-3-8-5/h1-2,5,7-9H,3H2	InChI=1S/C6H8N2O/c9-6-4(1-2-7-6)5-3-8-5/h1-2,5,7-9H,3H2/t5-/m1/s1
