20
gdb 106501	2.51733	1.6363	1.21917	2.3314	74.07	-0.227	0.0757	0.3028	1082.3844	0.172002	-440.234234	-440.22591	-440.224966	-440.266981	32.491	
C	 0.0171280527	 1.2463173607	 0.2186687311	-0.262674
O	 0.0065704428	-0.1409578491	-0.0592084258	-0.316912
C	 0.6817288975	-0.5358472018	-1.2059971822	 0.380358
C	 0.3851129456	-0.1127473819	-2.6740402565	-0.252539
N	 1.7600069984	-0.6837788731	-2.967286195	-0.128604
C	 2.1517143445	-0.1927067104	-1.5883965151	-0.25001
C	 1.5068746746	-2.1302626714	-2.6653084221	-0.193382
C	 0.6973148818	-2.0681754634	-1.3439551542	 0.092953
O	 1.3813666626	-2.7152474021	-0.2898596327	-0.447448
H	 1.0359379474	 1.6232962843	 0.3802314836	 0.117532
H	-0.4487499593	 1.8274455088	-0.5887504369	 0.115474
H	-0.5613649351	 1.3912412845	 1.133659153	 0.131133
H	-0.4415386181	-0.5874943757	-3.211303058	 0.10235
H	 0.3821853756	 0.9657388607	-2.8461700305	 0.108069
H	 2.3731780234	 0.8758265935	-1.624835075	 0.103143
H	 2.9580625164	-0.7469327101	-1.1046783944	 0.11796
H	 0.9608011689	-2.5892939489	-3.4923524945	 0.106658
H	 2.4513988303	-2.6593196033	-2.5216299219	 0.12201
H	-0.3256423358	-2.4593222746	-1.4402918519	 0.067793
H	 0.9593046759	-2.4283423669	 0.528826069	 0.286135
85.5543	164.6933	186.2647	204.2033	283.4646	373.5721	389.565	435.5908	475.7418	500.4181	585.0707	616.7058	687.0238	831.7834	852.0702	862.0419	900.4116	959.7863	975.1818	1011.5932	1013.7146	1058.3352	1082.2414	1091.0472	1157.5117	1174.4101	1181.6114	1208.4092	1214.1596	1227.9602	1239.2045	1252.0048	1270.9388	1294.3257	1322.8752	1368.2069	1418.7709	1486.3668	1490.2284	1491.4872	1494.579	1506.6743	1528.389	2997.4365	2999.6572	3050.6962	3056.3932	3070.4262	3075.331	3117.4074	3122.0581	3127.5297	3138.8073	3790.0566
COC12CN(C1)CC2O	CO[C@@]12CN(C1)C[C@H]2O	
InChI=1S/C6H11NO2/c1-9-6-3-7(4-6)2-5(6)8/h5,8H,2-4H2,1H3	InChI=1S/C6H11NO2/c1-9-6-3-7(4-6)2-5(6)8/h5,8H,2-4H2,1H3/t5-/m1/s1
