17
gdb 75123	3.18901	1.3295	1.05508	3.0676	72.1	-0.2551	0.0072	0.2623	1146.8807	0.136863	-455.162759	-455.154516	-455.153571	-455.195945	30.447	
C	 0.2975223845	 1.1858485452	 0.9279246267	-0.442702
C	 0.0543561454	 0.0299353019	 0.0018119527	 0.390486
N	-1.0613536041	-0.5580958373	-0.0459857237	-0.294049
C	-1.3856880967	-1.7315359289	-0.8455309863	-0.262474
C	-0.3146449347	-2.7922491811	-1.0234529843	 0.381519
N	-0.5353940819	-3.994543586	-0.7087667448	-0.491056
O	 0.8980699218	-2.4071373967	-1.5459780309	-0.23383
C	 1.0862442488	-1.0499906541	-1.8525009864	 0.00259
O	 1.2047465988	-0.2376719366	-0.7084521635	-0.246426
H	 1.1396536338	 0.9608378211	 1.5902798209	 0.145521
H	 0.5674385089	 2.079980538	 0.3569338827	 0.138275
H	-0.5958480171	 1.3774532934	 1.5196487159	 0.148577
H	-2.2188881481	-2.2444518378	-0.3624406222	 0.151838
H	-1.7554272571	-1.4163604262	-1.83162944	 0.131149
H	 0.2823970314	-4.5723675999	-0.9162747468	 0.22477
H	 2.0466299177	-0.9887261369	-2.3639496654	 0.137796
H	 0.2867965787	-0.6729433483	-2.5006256047	 0.118017
81.5225	98.8038	143.8448	252.0203	304.7925	334.9713	365.4819	426.0421	476.8324	531.032	618.374	700.0219	727.0609	766.3724	851.5138	919.1355	944.7736	995.8038	1036.0296	1057.622	1063.692	1112.8878	1127.2396	1192.8548	1229.5948	1252.2953	1314.0998	1344.5805	1359.5705	1406.4714	1453.4688	1473.1848	1476.4726	1481.0518	1520.1622	1758.1835	1783.0992	3007.6127	3043.2989	3048.9297	3105.9759	3112.7248	3142.3133	3172.7825	3461.142
CC1=NCC(=N)OCO1	CC1=NC[C]([NH])OCO1	
InChI=1S/C5H8N2O2/c1-4-7-2-5(6)9-3-8-4/h6H,2-3H2,1H3	InChI=1S/C5H8N2O2/c1-4-7-2-5(6)9-3-8-4/h6H,2-3H2,1H3
