22
gdb 60923	2.19465	1.25631	0.95702	2.7103	83.19	-0.2209	-0.0227	0.1982	1334.1179	0.190907	-404.326848	-404.316017	-404.315073	-404.363373	38.31	
C	-1.2638380619	 0.5015700008	 0.3264186573	-0.413733
C	 0.1902980949	 0.2189697393	-0.0987513639	-0.096478
C	 0.7991475655	 1.4915656539	-0.6645180723	 0.176179
O	 1.1793450597	 1.6337786902	-1.7975044736	-0.254381
C	 1.0093333948	-0.2349433122	 1.1042431102	-0.02124
C	 1.1725365033	-1.6760531713	 1.4859090955	-0.007816
C	 0.5621139076	-2.8241939973	 0.709204688	-0.418094
N	 2.3138548313	-0.891669535	 1.0111203218	-0.111835
C	 2.9264147368	-1.1710007974	-0.2815366418	-0.322968
H	-1.3043291698	 1.2856111007	 1.090910431	 0.124946
H	-1.8685052932	 0.8270448441	-0.5250523243	 0.130243
H	-1.7185653995	-0.3985980717	 0.7488534979	 0.131575
H	 0.2016266433	-0.5191477461	-0.902578725	 0.094409
H	 0.8672737198	 2.3266325025	 0.0738666956	 0.0722
H	 0.9641304389	 0.490873839	 1.9195211801	 0.086376
H	 1.2347354606	-1.886721149	 2.5544323304	 0.089326
H	 0.4105575737	-2.6069972352	-0.3494101961	 0.12443
H	 1.1999447028	-3.7122687611	 0.778038398	 0.127091
H	-0.4107908716	-3.0874772507	 1.1377305063	 0.12378
H	 2.2430291045	-1.4806827517	-1.0836235603	 0.107653
H	 3.4507131859	-0.2736175469	-0.6227752436	 0.135878
H	 3.6692855827	-1.963697355	-0.1472587412	 0.122459
45.2799	59.2875	120.8454	148.9364	174.8994	193.6909	211.4515	261.4094	267.5945	295.2701	362.3563	461.6699	495.2357	539.8022	567.4855	734.0294	782.8207	858.3863	896.3578	948.9237	988.7611	1009.1217	1047.7867	1081.5658	1114.2412	1138.9491	1153.3828	1161.6457	1170.0506	1188.8978	1205.3616	1269.2034	1312.477	1353.5806	1391.1913	1403.2775	1414.3164	1427.4814	1436.0584	1463.9008	1484.8632	1494.9006	1496.6959	1499.1325	1504.6296	1508.1119	1833.9242	2843.7692	3005.794	3035.4725	3039.9431	3066.9335	3074.4047	3087.8552	3093.7052	3095.8703	3107.3026	3112.436	3118.7498	3137.2207
CC(C=O)C1C(C)N1C	C[C@@H](C=O)[C@H]1[C@@H](C)N1C	
InChI=1S/C7H13NO/c1-5(4-9)7-6(2)8(7)3/h4-7H,1-3H3	InChI=1S/C7H13NO/c1-5(4-9)7-6(2)8(7)3/h4-7H,1-3H3/t5-,6+,7-,8?/m0/s1
