15
gdb 15937	3.5744	1.96181	1.54551	2.6047	61.66	-0.2379	-0.0419	0.196	826.4844	0.118907	-399.751379	-399.744403	-399.743458	-399.782845	25.649	
O	-0.7754512945	 1.1439781893	 0.7203750704	-0.255083
C	 0.1485583454	 0.878203295	-0.0081102497	 0.099961
C	 1.3821710307	 1.7230450047	-0.1425682886	 0.174742
C	 1.6685197656	 2.7732062376	 0.9518950704	-0.125632
O	 1.7994066367	 3.8413254193	-0.0196050872	-0.280425
C	 1.5166258818	 2.9599624671	-1.1062007228	 0.067495
C	 2.7722418126	 2.2722636708	-1.6858103382	-0.181762
N	 2.5173712531	 1.0836741411	-0.824150935	-0.375348
H	 0.149513437	-0.0186978841	-0.6649723126	 0.087306
H	 0.8158328637	 2.9413435533	 1.6173479756	 0.133915
H	 2.5839934164	 2.6177764762	 1.535228652	 0.101283
H	 0.7423846548	 3.3358775723	-1.7775385863	 0.100364
H	 2.7386882483	 2.0269553288	-2.7530655204	 0.112852
H	 3.6837166282	 2.8407378659	-1.4726390868	 0.115704
H	 3.2831668403	 0.7939814627	-0.2246910607	 0.224628
93.9516	126.8739	232.1921	254.2707	370.7416	409.7626	511.6831	627.7539	707.9094	776.8168	832.8859	859.9728	939.7846	952.2418	992.4948	998.2526	1036.3204	1071.4329	1117.1289	1144.7906	1157.6077	1189.3139	1196.1145	1257.6896	1304.4131	1321.2268	1352.3429	1378.5085	1399.5225	1502.4303	1509.6723	1814.6185	2903.7056	3024.9084	3030.1692	3080.4955	3089.9846	3101.0854	3522.9807
O=CC12COC1CN2	O=C[C@]12CO[C@H]1CN2	
InChI=1S/C5H7NO2/c7-2-5-3-8-4(5)1-6-5/h2,4,6H,1,3H2	InChI=1S/C5H7NO2/c7-2-5-3-8-4(5)1-6-5/h2,4,6H,1,3H2/t4-,5-/m0/s1
