16
gdb 114582	2.11533	1.66618	1.09814	3.4717	71.14	-0.2668	-0.0078	0.259	1108.6341	0.122733	-437.840801	-437.832322	-437.831377	-437.874416	30.442	
C	 0.0462951263	 1.0215988179	 0.597157159	-0.251044
O	-0.222545788	 0.1644469631	-0.4985069085	-0.224319
C	-1.3947689868	-0.5610419517	-0.3669575307	 0.041507
C	-1.6710469061	-1.551939599	-1.5404574619	-0.286262
C	-1.7227903335	-2.6904458115	-0.5179137204	-0.052374
O	-0.4582388538	-2.7352992608	 0.1345659893	-0.262483
C	-1.4084488014	-1.7786057947	 0.6112755466	 0.30523
C	-1.8029734889	-1.8154047951	 1.9829883799	 0.196185
N	-2.136655788	-1.7840927655	 3.0905118046	-0.338739
H	 0.9617462828	 1.5658586232	 0.3583644843	 0.138977
H	-0.7710763192	 1.740862055	 0.7542529367	 0.114739
H	 0.1995521987	 0.4564933734	 1.5266380584	 0.130964
H	-2.2617370507	 0.0849529513	-0.1604142373	 0.090876
H	-2.6160062973	-1.3558970079	-2.0492054688	 0.123512
H	-0.8577805642	-1.6354061837	-2.2624196538	 0.137856
H	-2.3245878499	-3.590794804	-0.5087107274	 0.135375
76.9914	98.3441	163.7814	168.1245	227.1406	261.5999	407.7562	409.627	496.1902	549.8086	571.3625	675.4348	730.7673	806.8965	897.1789	929.1477	964.7555	1013.6244	1021.8573	1075.4745	1129.9829	1148.1619	1166.3707	1180.9419	1228.1431	1251.4259	1255.8832	1273.2916	1375.2892	1410.5498	1465.413	1484.6296	1492.5363	1505.1057	2350.0276	2988.7532	2995.2916	3048.3899	3088.199	3131.7669	3151.5976	3206.0352
COC1CC2OC12C#N	CO[C@H]1C[C@H]2O[C@@]12C#N	
InChI=1S/C6H7NO2/c1-8-4-2-5-6(4,3-7)9-5/h4-5H,2H2,1H3	InChI=1S/C6H7NO2/c1-8-4-2-5-6(4,3-7)9-5/h4-5H,2H2,1H3/t4-,5+,6-/m0/s1
