25
gdb 95803	2.15327	1.46023	1.03291	1.3466	88.07	-0.2382	0.0739	0.3121	1297.8676	0.229669	-389.510647	-389.500861	-389.499917	-389.544376	38.302	
C	-0.067328938	 1.5508917203	-0.0974003814	-0.42025
C	 0.0626200766	 0.0275957305	-0.0023810177	 0.015628
C	 0.685067272	-0.557354555	-1.2773439368	-0.076728
O	 0.7179334663	-1.9728508744	-1.2577993407	-0.250749
C	 1.4609768803	-2.4782097122	-0.1634539163	-0.076728
C	 0.8908199621	-2.0226890112	 1.186567918	 0.015626
C	 1.6395818747	-2.6747109515	 2.3530025933	-0.42025
C	 0.8232836799	-0.4731185734	 1.2550336205	 0.006567
C	 2.1927418289	 0.1981542007	 1.4586705407	-0.40724
H	 0.8952840748	 2.0349486006	-0.2922789756	 0.117904
H	-0.7449966621	 1.8323882962	-0.9104932431	 0.112781
H	-0.4694817951	 1.9718716104	 0.830395054	 0.112891
H	-0.9505972043	-0.3930241685	 0.0605982756	 0.075766
H	 0.0913091884	-0.2800691487	-2.1544465801	 0.100822
H	 1.7018920371	-0.1535319714	-1.4271385291	 0.081649
H	 1.4198744358	-3.5691036141	-0.2471555571	 0.100822
H	 2.5208792124	-2.1810341326	-0.2514124814	 0.081649
H	-0.1481826127	-2.3794743827	 1.2125361338	 0.075766
H	 2.7143785155	-2.4683586803	 2.3191973298	 0.117904
H	 1.2618697091	-2.3143179206	 3.3159179339	 0.112891
H	 1.5151436173	-3.7627139449	 2.3340545528	 0.112781
H	 0.2109736386	-0.2128952889	 2.130297578	 0.062534
H	 2.8884810289	 0.0025768687	 0.6368343495	 0.116195
H	 2.0867914082	 1.2827979414	 1.5464681946	 0.115884
H	 2.6667859852	-0.1530547984	 2.3791706047	 0.115884
120.3615	157.4792	192.9581	219.9647	231.742	242.4161	272.9033	319.8348	334.147	347.519	420.6455	442.3272	516.0879	560.7101	597.09	768.8185	813.0567	895.7223	906.6738	954.1507	957.4417	984.4659	988.9295	1030.1807	1046.4663	1052.8678	1104.2972	1131.507	1137.8534	1177.0154	1184.5394	1215.5027	1242.5841	1301.0735	1307.3747	1335.8871	1339.754	1353.1506	1362.089	1389.5103	1397.3594	1409.7266	1413.5382	1421.4754	1430.3218	1488.6742	1489.7269	1495.4698	1496.1006	1502.6399	1508.6501	1510.5966	1516.904	2949.6527	2955.1155	2991.203	3004.8391	3014.9028	3028.8354	3029.2941	3047.6501	3069.1651	3071.9334	3094.4596	3095.0772	3096.8796	3098.6906	3112.2041	3114.6531
CC1COCC(C)C1C	C[C@H]1COC[C@@H](C)[C@H]1C	
InChI=1S/C8H16O/c1-6-4-9-5-7(2)8(6)3/h6-8H,4-5H2,1-3H3	InChI=1S/C8H16O/c1-6-4-9-5-7(2)8(6)3/h6-8H,4-5H2,1-3H3/t6-,7+,8-
