20
gdb 11671	3.28613	1.64798	1.38175	1.4388	74.98	-0.2472	0.0742	0.3214	995.2896	0.177088	-348.959763	-348.951647	-348.950703	-348.992113	31.401	
C	 0.0201163693	 1.5139920195	-0.0746093832	-0.380723
C	-0.0706378151	-0.0143954041	-0.0003594672	-0.310899
C	-1.4828663	-0.5424954317	 0.0240803934	 0.311549
C	-2.5811372333	-0.3325761894	 1.1134170362	-0.256225
C	-3.2568333566	-1.2351504378	 0.0441513047	-0.098333
C	-2.6234884829	-0.2972780647	-1.0246057472	-0.290538
C	-1.9265301936	-2.0452981154	 0.0396860344	 0.151204
O	-1.5865624913	-2.9173235271	-1.0020325927	-0.45286
H	 1.0624388839	 1.8465312028	-0.0913527913	 0.113021
H	-0.466630599	 1.8967906346	-0.9779091642	 0.116641
H	-0.4659845033	 1.9825785201	 0.7876111066	 0.117602
H	 0.4529606992	-0.4601567074	-0.8565700871	 0.10047
H	 0.4541988744	-0.3736118878	 0.8948296562	 0.099469
H	-2.3939292277	-0.7797724864	 2.0946070789	 0.088743
H	-2.9834567821	 0.6788324477	 1.204252414	 0.094115
H	-4.2756816902	-1.6235956254	 0.0599725212	 0.071605
H	-3.0262755062	 0.7177363962	-1.0769502438	 0.09489
H	-2.4816717636	-0.6875402181	-2.0387375567	 0.072054
H	-1.7016831217	-2.5870163396	 0.9632305099	 0.077064
H	-1.8050496802	-2.506047486	-1.8443692622	 0.281151
77.2277	148.0531	201.2319	229.9903	283.5115	310.4667	358.6121	481.8448	537.716	602.3514	635.5778	748.8614	782.9928	826.8245	866.9565	911.1605	930.1661	940.0132	991.4014	1008.7793	1024.4374	1054.587	1074.2123	1099.2424	1138.3199	1150.141	1168.3834	1184.2284	1215.9332	1227.8698	1248.1113	1277.1433	1306.1951	1313.0499	1378.0039	1412.0857	1452.2238	1480.7941	1499.3956	1506.051	1506.7211	1546.9967	3014.5046	3033.3591	3034.6203	3045.3181	3048.6924	3072.702	3094.7734	3101.4904	3105.2894	3109.5108	3117.5463	3816.7634
CCC12CC(C1)C2O	CC[C@@]12C[C@@H](C1)[C@H]2O	
InChI=1S/C7H12O/c1-2-7-3-5(4-7)6(7)8/h5-6,8H,2-4H2,1H3	InChI=1S/C7H12O/c1-2-7-3-5(4-7)6(7)8/h5-6,8H,2-4H2,1H3/t5-,6-,7+/m1/s1
