20
gdb 108072	2.63002	1.66103	1.19585	1.2978	79.19	-0.2174	0.0778	0.2952	1097.7865	0.170245	-403.060572	-403.051967	-403.051022	-403.093636	32.858	
C	 0.1976047569	 1.2037403143	-0.2136030913	-0.25608
O	-0.1872516165	-0.088670254	 0.2299751415	-0.287091
C	 0.5304379027	-0.5581081661	 1.3005796936	 0.369967
C	 0.6883774436	 0.0008901686	 2.7060917246	-0.246567
N	 1.8310288	-0.9805106458	 2.9021010398	-0.166218
C	 1.0945567122	-2.3086943064	 2.8689835188	-0.226284
C	 0.7977584302	-2.0763291973	 1.3988230106	 0.257803
C	 0.3213935176	-3.0340636987	 0.3497914243	-0.505231
C	 1.9442831076	-1.0872390402	 1.3653352616	-0.172395
H	 1.2644627692	 1.2361607245	-0.4721143874	 0.11417
H	-0.3979234124	 1.4229060433	-1.1022734779	 0.130292
H	-0.0034342706	 1.9701618514	 0.5465750098	 0.117395
H	 1.084584873	 1.0200203966	 2.725658993	 0.105893
H	-0.1282782252	-0.093315939	 3.431013181	 0.098507
H	 1.806985735	-3.1226302103	 3.0348618204	 0.10487
H	 0.269399936	-2.3914048604	 3.5869218143	 0.093641
H	-0.6908166077	-3.3893137261	 0.5751735926	 0.122897
H	 0.2872629823	-2.5503375631	-0.6303305376	 0.130619
H	 0.9773058907	-3.9088700376	 0.2820100671	 0.117113
H	 2.8496042753	-0.9820422538	 0.7843895413	 0.096696
87.8875	154.8736	168.2521	185.7949	223.9954	279.4632	366.1614	407.6262	479.1293	519.5212	588.7059	671.5674	724.0852	792.3156	842.5819	847.7805	899.2553	917.1284	947.4605	988.7457	1037.2004	1065.0017	1085.2967	1111.0953	1133.7721	1138.7017	1161.7613	1179.0242	1185.5782	1208.9625	1241.0666	1255.7404	1287.169	1363.0288	1405.4334	1423.517	1481.5652	1486.6281	1491.478	1496.8356	1502.2735	1506.6083	1523.4659	3000.6893	3022.1696	3028.493	3036.551	3057.8538	3084.2212	3086.3208	3094.5695	3113.0994	3125.8254	3215.4176
COC12CN3CC1(C)C23	CO[C@@]12CN3C[C@]1(C)[C@@H]23	
InChI=1S/C7H11NO/c1-6-3-8-4-7(6,9-2)5(6)8/h5H,3-4H2,1-2H3	InChI=1S/C7H11NO/c1-6-3-8-4-7(6,9-2)5(6)8/h5H,3-4H2,1-2H3/t5-,6+,7+/m0/s1
