18
gdb 11085	2.49937	2.15832	2.0589	2.0832	67.24	-0.2355	0.0754	0.3109	824.0884	0.152236	-384.910184	-384.90192	-384.900976	-384.942775	31.216	
O	-0.0543724917	 1.4180691874	-0.184065536	-0.480148
C	-0.0055613084	 0.0324788811	-0.0239288481	 0.383695
C	 0.3423152684	-0.5071350452	 1.3997404763	-0.286448
C	-1.0622582631	-1.1826501356	 1.4993158871	-0.286248
C	-1.3340103047	-0.8053541625	 0.0247974302	 0.383696
O	-2.5518007653	-0.2114318043	-0.3100594832	-0.480148
C	-0.7097177671	-1.7850954801	-1.018946617	-0.28645
C	 0.5224439216	-0.8401273421	-1.185897212	-0.286249
H	 0.8450429428	 1.7592045982	-0.1215644424	 0.275517
H	 1.1954402525	-1.1899288984	 1.4394757691	 0.092647
H	 0.4953206501	 0.2962240078	 2.1233039504	 0.104698
H	-1.0875811329	-2.2459290018	 1.7549841864	 0.088247
H	-1.7309741754	-0.6356666554	 2.1683821293	 0.108041
H	-3.233847586	-0.8922728382	-0.2877752474	 0.275517
H	-0.4859936628	-2.7852555762	-0.6378488203	 0.092649
H	-1.318745954	-1.8757550852	-1.920726102	 0.104696
H	 0.4890772347	-0.2898472317	-2.1293489313	 0.10804
H	 1.5136772313	-1.2864288476	-1.0640746591	 0.088248
55.0053	165.5546	166.2846	204.5418	267.521	351.2573	376.0635	417.2892	533.0184	571.8387	592.7505	705.7182	757.3033	769.3454	876.6448	881.5861	925.6909	944.4391	951.8983	1002.6631	1020.9494	1085.2999	1156.5772	1196.3833	1203.1718	1214.1514	1217.1611	1237.4136	1246.3291	1253.1759	1278.1757	1304.8151	1324.8385	1408.7129	1462.3352	1469.1887	1479.1033	1498.8689	3048.9534	3050.2101	3057.0857	3060.4144	3102.2675	3104.7589	3120.3771	3124.9078	3790.5858	3791.337
OC12CCC1(O)CC2	O[C@@]12CC[C@]1(O)CC2	
InChI=1S/C6H10O2/c7-5-1-2-6(5,8)4-3-5/h7-8H,1-4H2	InChI=1S/C6H10O2/c7-5-1-2-6(5,8)4-3-5/h7-8H,1-4H2/t5-,6+
