13
gdb 62367	2.46092	1.81156	1.18749	3.3485	64.7	-0.2601	-0.0286	0.2315	977.9453	0.085448	-456.446422	-456.43847	-456.437526	-456.478742	29.969	
O	-0.0417708768	 1.3926250253	-0.0497395153	-0.453836
C	 0.0473991093	 0.0003667251	-0.0415501775	 0.31508
C	 1.0167853316	-0.5253622989	-0.9902548277	 0.224597
C	 1.8449316986	-0.9384605637	-1.7574903223	-0.440649
C	-0.0380444313	-0.7036978344	 1.3725719239	-0.143844
O	-1.4406309792	-0.2384297186	 1.465181328	-0.299801
C	-1.3561257824	-0.6754566847	 0.0513102804	-0.113629
C	-0.6677637427	-1.9297420697	 0.6620292611	 0.459445
O	-0.7563191529	-3.1090058795	 0.7243081413	-0.303663
H	 0.8531611682	 1.7487229223	-0.0639202382	 0.29511
H	 2.5670004927	-1.3144647269	-2.4406846651	 0.212117
H	 0.6008715035	-0.5930362044	 2.2457426915	 0.122061
H	-2.2252696888	-0.5315985219	-0.5857589001	 0.127013
109.4667	145.3581	200.918	253.1187	283.2164	322.717	469.1632	496.9912	519.5985	534.8785	621.54	655.0112	696.5012	722.5291	781.3268	790.6646	820.6686	890.3749	987.3468	1046.1959	1073.8914	1116.8158	1131.9369	1175.9426	1217.0617	1251.3478	1375.0048	1945.7496	2232.8866	3159.1111	3167.1701	3496.685	3816.106
OC1(C#C)C2OC1C2=O	O[C@@]1(C#C)[C@H]2O[C@@H]1C2=O	
InChI=1S/C6H4O3/c1-2-6(8)4-3(7)5(6)9-4/h1,4-5,8H	InChI=1S/C6H4O3/c1-2-6(8)4-3(7)5(6)9-4/h1,4-5,8H/t4-,5+,6-
