19
gdb 38963	2.9801	1.74021	1.44194	2.6669	72.8	-0.2409	0.0755	0.3164	959.6046	0.162487	-423.024601	-423.017699	-423.016755	-423.056119	28.015	
C	 0.2044298248	 1.6561501183	 0.2169541142	-0.321038
C	 1.3519207101	 0.7213198322	-0.0429436615	 0.102056
O	 2.1139582876	 0.3290478695	 1.0675090405	-0.278644
C	 1.447878849	-0.7045422974	 1.8018062025	 0.222251
O	 1.4482611089	-0.4433837679	 3.1691473746	-0.235839
C	 0.2860111899	 0.3228273151	 3.484361376	-0.096434
C	-0.8159163992	-0.22750492	 2.5626575859	-0.242743
C	-0.0355063609	-0.718248443	 1.3173241817	-0.089754
C	-0.0357083836	 0.1609481711	 0.0734223883	-0.080154
H	 0.1418018584	 2.1179657604	 1.1956794832	 0.119409
H	-0.1354465336	 2.2841618809	-0.6003336468	 0.112893
H	 1.9133425837	 0.7581500242	-0.9706583898	 0.096794
H	 2.001120985	-1.6397464626	 1.6615596129	 0.082985
H	 0.0821383717	 0.1860099184	 4.5490303855	 0.109763
H	 0.4716404155	 1.3906364586	 3.3047934756	 0.106043
H	-1.3243153489	-1.065623467	 3.0467611902	 0.107929
H	-1.5674002698	 0.5247266996	 2.3126358444	 0.109973
H	-0.3412078284	-1.7306579647	 1.0455199793	 0.082845
H	-0.5774711805	-0.1846274957	-0.7988038866	 0.091664
73.5082	194.8423	220.8551	376.5083	457.9968	489.4727	570.1707	665.1481	682.1596	746.6999	806.6866	816.6263	848.3284	867.4205	923.3959	937.9878	958.0965	985.1157	993.1611	1012.3344	1046.2289	1054.6423	1090.5989	1103.5812	1111.4564	1121.649	1171.2753	1202.6912	1207.8578	1233.5692	1271.9081	1299.4174	1314.0055	1334.4157	1360.015	1374.8305	1388.4939	1410.1549	1472.0465	1487.0287	1522.9256	3014.402	3047.0986	3061.4267	3085.6374	3098.014	3116.7239	3132.9839	3160.5555	3178.5846	3222.7254
C1C2OC3OCCC3C12	C1[C@H]2O[C@H]3OCC[C@H]3[C@@H]12	
InChI=1S/C7H10O2/c1-2-8-7-4(1)5-3-6(5)9-7/h4-7H,1-3H2	InChI=1S/C7H10O2/c1-2-8-7-4(1)5-3-6(5)9-7/h4-7H,1-3H2/t4-,5+,6+,7+/m0/s1
