16
gdb 128311	4.81892	1.05053	0.86814	4.8634	77.27	-0.2046	-0.0519	0.1527	1281.2557	0.126428	-434.105175	-434.097102	-434.096158	-434.137855	30.18	
C	 0.0004955341	 1.4628744249	 0.0320752713	-0.311574
N	-0.0997686043	 0.0152076951	 0.0935969299	-0.358377
C	 0.5934983974	-0.6751195558	 1.0712013249	 0.415916
N	 1.153834654	-0.001498145	 2.0391054037	-0.298504
N	 1.7512032559	-0.7340736552	 3.0112652457	-0.276688
C	 1.8894044125	-2.1099132647	 3.1121099268	 0.421426
O	 2.4756665257	-2.6307715637	 4.0489080462	-0.404286
C	 1.2599656738	-2.8057987551	 1.9913038366	-0.188898
C	 0.6331634207	-2.1154668874	 1.0165186045	-0.145605
H	 1.0341948553	 1.8158858778	-0.0897809317	 0.124552
H	-0.6044980545	 1.8197242354	-0.804033964	 0.121052
H	-0.3865030138	 1.8964909286	 0.9574841388	 0.149631
H	-0.1267674722	-0.4509355211	-0.7998545516	 0.242453
H	 2.1653266401	-0.1868980221	 3.7529281272	 0.269185
H	 1.3204236843	-3.8874526863	 1.9963286419	 0.129806
H	 0.1483525008	-2.6247744755	 0.1880918197	 0.10991
91.7198	148.2936	177.2066	204.3579	335.9946	380.502	385.1511	454.8586	470.326	544.12	581.4014	629.4577	698.8721	764.4497	819.7639	824.3704	865.7782	993.3071	1010.0076	1082.9555	1131.7425	1151.0048	1168.1411	1252.794	1283.116	1302.7196	1435.9394	1442.2949	1458.7356	1475.5058	1508.6484	1540.0407	1588.2203	1671.8135	1779.967	3007.3728	3091.4656	3134.3778	3164.2477	3216.0348	3608.3815	3620.2066
CNC1=NNC(=O)C=C1	CNc1n[nH]c(=O)cc1	
InChI=1S/C5H7N3O/c1-6-4-2-3-5(9)8-7-4/h2-3H,1H3,(H,6,7)(H,8,9)	InChI=1S/C5H7N3O/c1-6-4-2-3-5(9)8-7-4/h2-3H,1H3,(H,6,7)(H,8,9)
