18
gdb 67486	2.43481	1.6392	1.21904	1.4829	82.94	-0.2235	0.0338	0.2573	1076.4276	0.146064	-364.6858	-364.677551	-364.676607	-364.718122	32.611	
C	-0.0809579653	 1.4766674743	 0.006849725	-0.498785
C	-0.0009128846	-0.021126651	-0.0372291301	 0.294917
C	-0.9164015152	-0.9324577155	 0.7631004756	-0.257537
C	-1.9017126876	-1.8823787189	 0.3240050304	 0.275431
C	-2.7986218175	-2.629526478	 0.0287703288	-0.412093
C	 0.6026911455	-1.0260676183	 0.9149050359	-0.076337
N	 1.4514065561	-1.6712706305	-0.152380145	-0.140521
C	 0.6095616207	-2.2211508358	-1.2341852574	-0.262927
C	 0.7834989097	-0.7564547356	-1.1478495552	-0.095795
H	 0.8977714116	 1.9277585077	-0.192829999	 0.127209
H	-0.7836874404	 1.8581596926	-0.7435518461	 0.12917
H	-0.418389294	 1.8261164474	 0.987432783	 0.123181
H	-1.2838676876	-0.3754026624	 1.626708216	 0.122043
H	-3.569866911	-3.3025932528	-0.2533248606	 0.193942
H	 1.0598969068	-0.9028003723	 1.8897268316	 0.105305
H	 1.214013429	-2.7249935264	-1.9844597045	 0.120648
H	-0.3308010888	-2.7034212507	-1.0108611529	 0.152561
H	 1.3839420425	-0.1976449638	-1.8597021354	 0.099589
118.7982	168.9344	200.5975	211.4219	293.5674	357.191	369.7418	443.008	545.5852	587.7028	608.8877	638.8488	653.0912	695.1034	748.7268	780.3734	850.575	896.0972	924.3442	945.5109	988.9905	999.6992	1049.8886	1068.4428	1106.5312	1114.1975	1124.1681	1143.8894	1215.2126	1240.9024	1252.5514	1323.9758	1352.0191	1416.1629	1461.9591	1483.8711	1497.7493	1503.1712	2222.7386	3023.0884	3082.4263	3093.7131	3103.1084	3127.6652	3152.5337	3178.3937	3247.8971	3501.6298
CC12C(C#C)C1N1CC21	C[C@]12[C@@H](C#C)[C@H]1N1C[C@@H]21	
InChI=1S/C8H9N/c1-3-5-7-8(5,2)6-4-9(6)7/h1,5-7H,4H2,2H3	InChI=1S/C8H9N/c1-3-5-7-8(5,2)6-4-9(6)7/h1,5-7H,4H2,2H3/t5-,6-,7+,8+,9?/m0/s1
