21
gdb 76131	2.25104	1.2945	1.11457	3.356	81.2	-0.2371	-0.0237	0.2135	1248.3503	0.179301	-424.246573	-424.23635	-424.235406	-424.281306	38.012	
C	-0.0930437072	 1.4990963043	 0.113707209	-0.480062
C	 0.019911262	 0.0084754463	-0.1320264899	 0.416425
O	 1.096463538	-0.4912237358	-0.4451045676	-0.370896
C	-1.2175301444	-0.7823343599	-0.0094950578	-0.256857
C	-1.3036742476	-2.1123583046	-0.8021982007	 0.105356
O	-0.2596371613	-2.5043055604	-1.6133135445	-0.427787
C	-1.2560455026	-2.1794293563	 0.6855237525	 0.251993
C	-0.0246690483	-2.7160564095	 1.3849305072	-0.462435
C	-2.5594349337	-2.4668822926	 1.408485728	-0.444467
H	 0.8827265689	 1.9706648831	-0.0069469834	 0.14319
H	-0.8066210694	 1.9440330507	-0.5891134708	 0.144888
H	-0.4779637158	 1.690336171	 1.1216017799	 0.142232
H	-2.127073436	-0.1987302677	 0.0889115763	 0.085387
H	-2.2625801843	-2.3020379051	-1.2787598711	 0.10369
H	 0.5213010165	-1.9809975066	-1.3522086362	 0.309236
H	 0.8983371771	-2.4573531081	 0.8675857981	 0.146305
H	 0.0389603879	-2.328320875	 2.4076701309	 0.11285
H	-0.0868326899	-3.8082429008	 1.4458137256	 0.121948
H	-2.6786210235	-3.5454596207	 1.5618931387	 0.125163
H	-2.5817219558	-1.9841393346	 2.3922877294	 0.118745
H	-3.4260008507	-2.1129304277	 0.8410282865	 0.115095
78.0338	126.1219	154.0394	170.3295	183.5615	225.2946	253.2345	277.749	344.1958	347.1762	414.9467	454.4541	537.797	594.2856	620.3569	658.1616	675.8253	810.9609	830.8657	933.4437	967.1822	971.1477	976.1299	1024.661	1047.157	1052.227	1099.7823	1141.097	1174.4723	1202.4182	1240.0914	1334.3169	1369.1433	1380.3	1406.0625	1410.5849	1429.1383	1462.89	1474.2835	1476.3375	1483.5886	1492.904	1506.6552	1513.396	1729.2328	3023.4382	3036.1196	3036.5459	3087.2904	3090.9857	3097.3696	3098.7735	3137.0609	3153.434	3155.5798	3159.5492	3571.955
CC(=O)C1C(O)C1(C)C	CC(=O)[C@H]1[C@@H](O)C1(C)C	
InChI=1S/C7H12O2/c1-4(8)5-6(9)7(5,2)3/h5-6,9H,1-3H3	InChI=1S/C7H12O2/c1-4(8)5-6(9)7(5,2)3/h5-6,9H,1-3H3/t5-,6+/m0/s1
