15
gdb 44674	4.34491	1.35439	1.10305	5.3657	72.85	-0.2628	-0.0416	0.2211	1045.5088	0.114858	-420.675786	-420.669241	-420.668297	-420.706776	25.861	
O	 0.0456137052	-0.0060901698	 0.0242722903	-0.342393
C	 0.0431025008	 1.1898218549	-0.0141976167	 0.445317
O	-1.1310815988	 1.9236695041	-0.0452724482	-0.25218
C	-0.8054228917	 3.3053273735	-0.1758491192	 0.041223
C	-1.2452275376	 4.3069790393	 0.8691423689	-0.120221
C	-0.2343475263	 5.1322018412	 1.162219987	-0.054518
C	 1.0703178261	 4.7545261268	 0.4594022505	-0.366313
C	 0.6918418558	 3.3830320384	-0.0178973669	 0.307237
C	 1.1826927312	 2.1480066588	 0.0377058681	-0.403488
H	-1.1575370719	 3.6197247274	-1.170704183	 0.113751
H	-2.2643970738	 4.39213779	 1.2241082808	 0.11996
H	-0.3046957751	 6.0025677803	 1.804710385	 0.113376
H	 1.293771841	 5.4507018526	-0.3616042202	 0.133941
H	 1.9403529237	 4.753506411	 1.1230328099	 0.133429
H	 2.1922242714	 1.8142267017	 0.2279916437	 0.13088
124.1152	201.6046	302.3794	333.9496	431.0094	527.6123	577.9201	683.1388	690.3603	732.896	780.6416	800.8794	868.1745	884.3784	903.1321	929.102	969.4626	987.6475	999.4081	1077.1671	1121.0936	1137.4843	1155.4545	1169.2066	1257.6807	1275.1351	1314.4442	1345.3673	1364.1468	1474.0803	1655.578	1722.0637	1874.332	2984.0338	3012.1791	3079.7221	3196.5822	3225.8622	3247.4764
O=C1OC2C=CCC2=C1	O=C1O[C@H]2C=CC[C]2[CH]1	
InChI=1S/C7H6O2/c8-7-4-5-2-1-3-6(5)9-7/h1,3-4,6H,2H2	InChI=1S/C7H6O2/c8-7-4-5-2-1-3-6(5)9-7/h1,3-4,6H,2H2/t6-/m0/s1
