21
gdb 94810	2.31717	1.6352	1.23401	1.4625	77.93	-0.2403	0.0591	0.2993	1106.7207	0.182013	-424.214947	-424.205671	-424.204727	-424.249879	34.913	
C	 0.9010753456	 1.3457237977	-0.1944325992	-0.38171
C	-0.0021281117	 0.1419288316	 0.0608220669	 0.095004
O	 0.029840425	-0.7780219514	-1.0339215463	-0.280469
C	 0.8575127761	-1.9058519592	-0.7270303655	-0.140812
C	 1.4053855061	-1.6746303489	 0.6695455526	 0.325729
C	 2.1069197494	-2.7360945855	 1.4613821727	-0.34249
C	 2.8820507091	-1.5471172347	 0.9432116581	-0.297301
C	 0.413068547	-0.7050851753	 1.2902201227	 0.008052
O	 0.9959921946	 0.0101616484	 2.3624383031	-0.428261
H	 1.9490536729	 1.0436060351	-0.2712083987	 0.125043
H	 0.608663897	 1.8295713917	-1.130381984	 0.117532
H	 0.8184399528	 2.0738917272	 0.6178460164	 0.105858
H	-1.0419173832	 0.4825420391	 0.1519585848	 0.066376
H	 0.2392380351	-2.8140526684	-0.7765239356	 0.096262
H	 1.6515639111	-1.9992276458	-1.4789964687	 0.099986
H	 1.9106342486	-2.7786727825	 2.5279232362	 0.117644
H	 2.268164617	-3.7023990917	 0.993542331	 0.109476
H	 3.5630644507	-1.702644457	 0.112529889	 0.107158
H	 3.1965074048	-0.8018049891	 1.6633770369	 0.13446
H	-0.4657477832	-1.2678169779	 1.6424807282	 0.072556
H	 0.2924459251	 0.4374735867	 2.8592333296	 0.289908
19.049	90.1327	210.4614	230.2097	245.7565	246.4116	273.5829	348.3954	395.3672	425.5193	527.741	570.0843	716.5186	758.2341	786.8032	822.3284	874.4238	898.3148	942.8484	952.5196	989.8034	1036.5708	1060.5984	1065.5819	1075.5079	1088.3103	1113.4505	1135.0578	1149.5209	1194.3248	1207.4003	1237.7563	1283.2343	1306.709	1335.0487	1351.2128	1387.2184	1396.42	1410.7901	1446.3186	1458.9022	1483.1429	1493.2267	1502.4008	1529.8092	2970.2881	2990.2979	3016.2133	3030.1601	3044.6205	3117.7929	3122.0039	3124.7303	3133.7756	3205.5067	3230.885	3835.0015
CC1OCC2(CC2)C1O	C[C@H]1OCC2(CC2)[C@H]1O	
InChI=1S/C7H12O2/c1-5-6(8)7(2-3-7)4-9-5/h5-6,8H,2-4H2,1H3	InChI=1S/C7H12O2/c1-5-6(8)7(2-3-7)4-9-5/h5-6,8H,2-4H2,1H3/t5-,6+/m1/s1
