16
gdb 17124	5.15844	1.32371	1.25504	3.4503	65.25	-0.2496	0.0212	0.2708	983.7808	0.131886	-379.912392	-379.905131	-379.904187	-379.944337	27.039	
O	 0.2970947043	 0.0345093544	 0.1635520537	-0.344244
C	 0.1026572247	 1.2111071617	 0.0426370167	 0.425074
C	-1.1087624295	 2.1255249055	-0.2446987992	-0.39824
C	-0.1349553424	 3.3129920602	 0.0439791363	 0.013114
N	 0.9393213563	 2.3100655968	 0.1596842179	-0.336546
C	 0.0438539341	 4.340906835	-1.0491640589	 0.01009
C	 1.3829364776	 4.8717652367	-1.3970543678	-0.242274
N	 0.6680960276	 3.9765484554	-2.3257309177	-0.315216
H	-1.4837259933	 2.0769211267	-1.268617264	 0.144632
H	-1.9326123564	 2.0015226682	 0.4594905551	 0.137087
H	-0.3573005664	 3.8139495969	 0.9938774086	 0.09227
H	 1.8335912072	 2.3694436928	 0.6273560243	 0.25167
H	-0.814540612	 5.0026419683	-1.1542719279	 0.099858
H	 1.4942078727	 5.8978038899	-1.7352053801	 0.123869
H	 2.243213259	 4.4745125574	-0.8637035031	 0.103027
H	 1.0643623464	 3.0412813342	-2.2393816739	 0.235829
81.7168	100.5508	201.8539	251.5246	398.669	446.0739	504.6876	573.2062	593.4884	701.5121	778.857	852.9225	868.2647	941.0862	954.8914	967.0298	995.0665	1027.7617	1057.3869	1112.3272	1126.8709	1149.48	1169.488	1188.4782	1199.212	1262.998	1277.8902	1308.6423	1368.1867	1383.7906	1416.0733	1456.2724	1510.7998	1901.8	3033.1144	3089.5073	3108.3963	3122.0889	3149.8723	3193.5152	3474.5511	3591.5538
O=C1CC(N1)C1CN1	O=C1C[C@@H](N1)[C@H]1CN1	
InChI=1S/C5H8N2O/c8-5-1-3(7-5)4-2-6-4/h3-4,6H,1-2H2,(H,7,8)	InChI=1S/C5H8N2O/c8-5-1-3(7-5)4-2-6-4/h3-4,6H,1-2H2,(H,7,8)/t3-,4-/m1/s1
