17
gdb 109291	3.54421	1.04271	0.81782	4.7183	71.64	-0.2525	0.0118	0.2643	1336.7088	0.135294	-458.998156	-458.989211	-458.988267	-459.033961	31.355	
O	 0.0840694365	 1.4217431381	-0.0663052835	-0.414618
C	 0.0098370766	 0.0139167217	 0.0198574012	-0.142677
C	-1.4246292143	-0.4339257035	 0.0271372753	 0.248613
C	-2.4494820252	 0.4064586927	-0.0373810952	-0.158232
C	-3.8711359993	-0.0402098163	-0.0299770899	-0.115144
O	-4.089870995	-1.4536936422	 0.0637168488	-0.227429
C	-3.1046593282	-2.3728288304	 0.1326939607	 0.417272
O	-3.3964858791	-3.5354663331	 0.208727734	-0.327044
C	-1.653534091	-1.9149020305	 0.1119992198	-0.452849
H	 1.010829129	 1.6757652321	-0.0664781579	 0.294211
H	 0.5278774956	-0.4708601469	-0.8271646546	 0.099909
H	 0.5026129061	-0.3617252317	 0.9346509097	 0.10007
H	-2.2831423047	 1.4759934636	-0.0998699644	 0.122594
H	-4.4122342404	 0.4118814372	 0.8123662035	 0.13106
H	-4.3842381555	 0.292648477	-0.9426239941	 0.130901
H	-1.1774723834	-2.4403928436	-0.7269275714	 0.146803
H	-1.1845642277	-2.3407151841	 1.0092064181	 0.146559
13.3455	84.9223	103.2619	201.3525	208.1459	231.2946	353.8741	419.419	441.9488	530.3279	580.5315	596.0395	738.3314	804.7232	814.4892	919.4535	962.9626	1000.9766	1031.954	1050.6097	1078.8179	1129.383	1164.1697	1216.4777	1217.3392	1240.0414	1254.3386	1267.0888	1318.8534	1383.483	1430.6535	1452.7487	1465.6507	1505.538	1507.6343	1778.8699	1840.7052	2939.0574	2953.0752	3009.8898	3022.1099	3031.9072	3044.0288	3202.0667	3845.2612
OCC1=CCOC(=O)C1	OCC1=CCOC(=O)C1	
InChI=1S/C6H8O3/c7-4-5-1-2-9-6(8)3-5/h1,7H,2-4H2	InChI=1S/C6H8O3/c7-4-5-1-2-9-6(8)3-5/h1,7H,2-4H2
