15
gdb 34777	2.17105	1.82944	1.22735	7.1878	72.81	-0.3023	0.0072	0.3095	1010.1214	0.113942	-379.665293	-379.657653	-379.656709	-379.697753	28.31	
N	-0.246631845	-1.1306784912	 0.1528080607	-0.33088
C	-0.1054270461	 0.0155231914	 0.092583066	 0.299197
C	 0.0315832172	 1.4484593163	 0.0493206552	-0.169252
C	 0.4887552261	 2.2574525148	 1.2425998069	-0.066512
C	 1.5454904703	 1.4799762858	 2.0373223308	-0.268057
C	 2.4764112104	 1.5129557699	 0.7667261721	-0.155349
C	 3.0656481197	 0.2823047747	 0.2544652532	 0.284859
N	 3.5653391616	-0.6779533731	-0.1501983432	-0.317352
C	 1.3457634824	 2.1987376694	-0.0170759129	-0.081368
H	-0.7475678953	 1.9327134394	-0.5323254403	 0.145416
H	-0.1173147887	 3.0699359175	 1.6215688074	 0.117232
H	 1.9754624485	 2.0399451612	 2.8675233155	 0.129921
H	 1.2432342861	 0.4897759565	 2.3832058571	 0.151581
H	 3.2853817954	 2.2291115329	 0.9325695426	 0.140554
H	 1.5026502973	 2.9399585446	-0.7904185313	 0.12001
90.953	120.5476	163.9207	215.9069	331.9151	380.005	510.9194	524.9871	570.0511	609.6449	728.0867	768.9817	799.4605	821.0087	919.6183	957.7506	973.2959	1003.4339	1020.7701	1062.3453	1076.8383	1090.359	1151.1599	1175.0585	1220.3757	1259.2818	1291.7367	1333.1531	1344.3104	1416.931	1490.405	2356.2946	2359.3154	3079.666	3087.1857	3147.7522	3160.7863	3194.0781	3206.5739
N#CC1C2CC(C#N)C12	N#C[C@H]1[C@H]2C[C@@H](C#N)[C@@H]12	
InChI=1S/C7H6N2/c8-2-4-1-5-6(3-9)7(4)5/h4-7H,1H2	InChI=1S/C7H6N2/c8-2-4-1-5-6(3-9)7(4)5/h4-7H,1H2/t4-,5+,6-,7+/m0/s1
