21
gdb 98266	2.72625	1.00012	0.87317	2.2575	75.37	-0.2636	-0.0258	0.2378	1446.6953	0.179408	-461.390799	-461.38015	-461.379206	-461.426829	38.541	
C	 0.0999688086	 1.4678185677	 0.1324847272	-0.384924
C	-0.149621222	 0.0220779763	-0.2954659971	-0.291295
C	-1.5580627341	-0.4547864061	-0.0217004024	 0.386822
O	-2.4695799123	 0.3051279545	 0.2355288628	-0.334026
C	-1.8575953357	-1.9604595791	-0.0570584503	 0.001492
O	-3.2443923447	-2.1503981864	 0.0951757368	-0.447389
C	-1.4185461124	-2.6144710104	-1.3824772936	 0.131407
C	-1.651759749	-4.12546392	-1.3759709785	-0.406211
O	-2.1031846538	-1.9763951156	-2.4502138569	-0.443707
H	 1.1129628907	 1.7776205121	-0.1373113623	 0.11596
H	-0.6115517364	 2.1410013361	-0.350226706	 0.142322
H	-0.0184405982	 1.5844324596	 1.213408709	 0.127722
H	 0.0040752471	-0.0927223898	-1.3778054042	 0.156319
H	 0.5600947355	-0.6694483659	 0.1760155913	 0.119891
H	-1.3027001642	-2.4236992903	 0.7783918434	 0.087887
H	-3.5885404284	-1.2666104024	 0.3150865765	 0.296728
H	-0.353668682	-2.4141370905	-1.5450626136	 0.086409
H	-2.7002844173	-4.348472458	-1.1593147736	 0.136679
H	-1.3987839642	-4.5404530164	-2.3549161626	 0.123553
H	-1.0334263878	-4.6173823839	-0.6173527488	 0.109751
H	-3.0349518893	-1.9809646614	-2.1914950071	 0.284612
56.8107	82.8049	93.8993	143.6914	196.0916	225.3125	239.0421	273.272	298.2615	374.3351	417.9867	428.9747	477.6361	522.8568	590.2985	663.7402	724.0076	750.9037	857.1324	875.4335	940.8859	989.378	1016.577	1046.6857	1053.9688	1101.559	1115.7714	1133.6023	1185.0483	1241.5865	1280.4903	1294.1869	1347.1176	1359.5915	1378.7477	1401.0534	1414.1819	1427.4373	1437.2642	1454.6524	1489.8604	1494.5478	1499.7328	1500.5222	1788.3439	2950.119	3023.5712	3039.3019	3052.3964	3053.6783	3057.1752	3111.8394	3121.5677	3128.704	3136.2927	3633.1466	3757.7395
CCC(=O)C(O)C(C)O	CCC(=O)[C@@H](O)[C@@H](C)O	
InChI=1S/C6H12O3/c1-3-5(8)6(9)4(2)7/h4,6-7,9H,3H2,1-2H3	InChI=1S/C6H12O3/c1-3-5(8)6(9)4(2)7/h4,6-7,9H,3H2,1-2H3/t4-,6+/m1/s1
