17
gdb 62591	2.96616	1.61228	1.34369	2.4005	71.65	-0.2355	0.0059	0.2414	978.9475	0.134684	-421.795007	-421.787228	-421.786283	-421.82679	30.99	
C	 0.0553741337	 1.5558674203	 0.0811832276	-0.47143
C	 0.0720018813	 0.0360311913	 0.0305769698	 0.414741
O	-1.2394776364	-0.4960339611	 0.0992338191	-0.48042
C	 0.7748806424	-0.6946213103	-1.1195334671	-0.091132
C	 1.2769001166	-1.7656111081	-0.2174529794	-0.072411
C	 2.2807699133	-0.7498463755	-0.8048301403	-0.210184
C	 2.44841248	-0.1971851123	 0.5768980138	 0.435045
O	 3.365221348	 0.2786007278	 1.1864886632	-0.349762
C	 1.064106474	-0.7422671639	 0.9697844739	-0.25571
H	 1.0579176145	 1.9768243264	-0.032738092	 0.139027
H	-0.584296984	 1.949470651	-0.7144460134	 0.128715
H	-0.3414915993	 1.9068728729	 1.0418999477	 0.11439
H	-1.6751299393	-0.1095536126	 0.8666951466	 0.279087
H	 0.4323108539	-0.7805767148	-2.1436386445	 0.103679
H	 1.3091804219	-2.8419804886	-0.2639412433	 0.117335
H	 3.0185679344	-0.9057562053	-1.580080981	 0.113071
H	 0.8052355648	-0.9635941673	 2.0020565092	 0.085958
130.5436	196.4781	232.7262	261.507	297.5085	373.7359	381.445	469.9356	523.1716	605.5661	629.4138	759.1024	788.7163	815.036	830.1028	847.8084	864.4599	898.0856	944.188	960.724	1016.6802	1030.7857	1050.6477	1088.7296	1111.2658	1117.3207	1143.7937	1170.1909	1199.5833	1217.4394	1278.8652	1339.3384	1394.3589	1414.0163	1488.5174	1494.3023	1875.9625	3028.7956	3096.3319	3122.974	3159.7879	3192.1139	3217.9304	3254.9846	3804.3982
CC1(O)C2C3C2C(=O)C13	C[C@@]1(O)[C@@H]2[C@H]3[C@@H]2C(=O)[C@@H]13	
InChI=1S/C7H8O2/c1-7(9)4-2-3(4)6(8)5(2)7/h2-5,9H,1H3	InChI=1S/C7H8O2/c1-7(9)4-2-3(4)6(8)5(2)7/h2-5,9H,1H3/t2-,3+,4-,5+,7-/m1/s1
