22
gdb 61074	3.12115	0.97198	0.91239	4.0556	83.14	-0.233	0.0293	0.2623	1407.7588	0.195625	-404.387748	-404.378238	-404.377294	-404.423544	34.472	
C	-0.0874885155	 1.5201140543	-0.2654999336	-0.353069
N	 0.0456398661	 0.1135690177	 0.0798769883	-0.047264
C	 0.078025977	-0.2494407595	 1.3912192058	 0.147533
O	 0.0333742255	 0.5078677522	 2.3415614524	-0.350829
C	 0.055750353	-0.8796424373	-0.9962928382	 0.037765
C	 1.2658560901	-1.8736968198	-0.9951693858	-0.226663
C	 0.6672924759	-3.2757428049	-1.2658539693	-0.196709
C	-0.7266985354	-3.001629436	-1.8620493439	-0.198042
C	-1.2047438203	-1.7754722085	-1.0760793857	-0.21558
H	 0.748236867	 1.8489171061	-0.8941287099	 0.123247
H	-1.023133709	 1.7084315304	-0.8057363987	 0.123181
H	-0.0887924759	 2.0924430578	 0.6619362849	 0.16839
H	 0.1558666461	-1.3461068743	 1.5171992282	 0.07061
H	 0.106030621	-0.2939916194	-1.9180428488	 0.088979
H	 1.9776275326	-1.5897905437	-1.7758038838	 0.104606
H	 1.8112878098	-1.8347123588	-0.0502339071	 0.113577
H	 1.2984917018	-3.8853116041	-1.9175439106	 0.099257
H	 0.5571112421	-3.824763024	-0.3237382921	 0.103988
H	-0.6409314824	-2.7547791754	-2.9279291179	 0.09892
H	-1.4042411453	-3.8558702769	-1.7806439422	 0.100384
H	-1.5082622398	-2.074585549	-0.0662095131	 0.108386
H	-2.0541253245	-1.2585253871	-1.5315457789	 0.099335
31.08	54.1495	106.6118	141.7033	217.8349	260.2635	328.3685	347.0709	397.4462	412.3618	528.6444	600.0496	704.397	796.1275	841.4529	859.0712	903.9271	924.2041	935.3293	963.2451	1020.3256	1036.6414	1040.1649	1085.8429	1096.2231	1156.7456	1172.809	1188.1956	1236.0272	1251.8606	1257.2693	1305.8281	1319.0635	1327.3353	1343.3244	1345.5581	1357.6797	1430.2718	1445.5362	1472.3896	1489.0855	1491.7911	1493.9739	1500.9486	1515.0849	1521.4618	1787.7419	2946.0767	3019.0925	3028.5543	3040.7513	3044.4508	3055.4856	3067.0237	3069.9513	3090.7068	3093.7749	3099.1	3113.8261	3158.0422
CN(C=O)C1CCCC1	CN(C=O)C1CCCC1	
InChI=1S/C7H13NO/c1-8(6-9)7-4-2-3-5-7/h6-7H,2-5H2,1H3	InChI=1S/C7H13NO/c1-8(6-9)7-4-2-3-5-7/h6-7H,2-5H2,1H3
