14
gdb 127961	2.67781	1.59982	1.00786	2.7029	71.02	-0.2498	-0.0508	0.1989	1097.5901	0.101488	-466.154395	-466.146392	-466.145448	-466.187347	28.723	
C	 0.0231386233	 1.4266514512	-0.1378971675	-0.350348
N	 0.0401850449	-0.0243803544	-0.1502375597	-0.258278
C	-1.0378764345	-0.6498811951	 0.0823635519	 0.315829
N	-2.2849662349	-0.0789977811	 0.3589908199	-0.327078
N	-3.4695819199	-0.7035377974	 0.6139867083	-0.065881
N	-3.5063927682	-1.953900959	 0.6147626249	-0.070859
N	-2.3466453328	-2.6378871664	 0.3575585945	-0.289486
C	-1.0758776846	-2.1480579398	 0.0819757743	 0.40999
O	-0.1423394254	-2.8794039481	-0.1267692219	-0.31765
H	 1.0258701837	 1.7998182995	-0.3538906234	 0.144833
H	-0.6579952442	 1.841956894	-0.8974581506	 0.122802
H	-0.2798225692	 1.8319964032	 0.8405311654	 0.122683
H	-2.3771868019	 0.9245120078	 0.3847529903	 0.279566
H	-2.4587344763	-3.6423899842	 0.3760002638	 0.283877
85.6446	137.0984	163.4148	204.9815	208.1961	347.4394	496.4449	521.5122	546.032	559.3002	575.4542	633.9077	692.3709	737.648	787.8303	960.4168	1040.0836	1075.7229	1098.0289	1110.5832	1168.2768	1187.3278	1344.6536	1417.6475	1434.1976	1460.244	1504.1082	1508.9858	1611.8586	1739.4585	1835.5818	2968.9007	3017.5321	3117.0311	3611.6786	3638.4106
CN=C1NN=NNC1=O	CN=c1[nH]nn[nH]c1=O	
InChI=1S/C3H5N5O/c1-4-2-3(9)6-8-7-5-2/h1H3,(H,4,5,8)(H,6,7,9)	InChI=1S/C3H5N5O/c1-4-2-3(9)6-8-7-5-2/h1H3,(H,4,5,8)(H,6,7,9)
