23
gdb 75247	3.43747	1.1108	0.99723	0.247	91.53	-0.2244	0.0347	0.259	1324.6908	0.206619	-351.169139	-351.16037	-351.159426	-351.202482	34.59	
C	 0.0622990258	 1.4690255754	 0.2959574505	-0.494098
C	 0.0355041409	-0.0074715293	 0.0578157826	 0.339816
C	-0.0755839262	-0.6418926158	-1.1117458595	-0.162667
C	-0.1210902069	-2.1405130231	-0.9476637498	-0.345908
C	 0.3604177666	-2.3576133115	 0.5037015976	 0.380649
C	-0.0855241393	-3.6212859905	 1.2930918273	-0.279813
C	 1.3587179107	-3.7604367659	 1.8439153076	-0.208329
C	 1.8388004471	-2.8258790109	 0.702814556	-0.254733
C	 0.0769980314	-1.0023060722	 1.2003582612	-0.36331
H	 0.982701368	 1.7726001157	 0.8114276128	 0.121833
H	-0.0043813554	 2.0311814827	-0.639775237	 0.120654
H	-0.769589419	 1.7827631774	 0.9402582627	 0.122235
H	-0.1661252093	-0.1495142812	-2.0748612688	 0.079371
H	-1.1459804639	-2.5198801838	-1.0857848522	 0.098222
H	 0.5025329662	-2.6802660156	-1.6711228558	 0.093936
H	-0.8990435634	-3.4992040906	 2.0144551577	 0.088729
H	-0.3428150416	-4.4446516079	 0.6187145488	 0.094425
H	 1.4661746333	-3.2963395845	 2.8282414608	 0.100729
H	 1.7889594425	-4.7635970435	 1.8884209332	 0.093116
H	 2.1975081522	-3.3949857771	-0.1606819141	 0.092495
H	 2.579356352	-2.0581826449	 0.9442490488	 0.092472
H	 0.8297025791	-0.752492495	 1.9593420331	 0.093569
H	-0.8913060309	-1.0144373779	 1.7250382863	 0.096605
72.1929	117.9021	177.5537	220.8477	257.0514	311.3225	374.0586	401.097	439.2853	463.2588	607.3118	683.5841	749.5664	793.2378	825.0356	873.534	878.5757	906.6242	914.037	938.4405	944.7488	963.2545	992.5177	1032.7276	1035.9766	1056.4672	1101.5903	1127.7009	1154.3289	1189.2757	1200.3931	1208.6409	1242.3051	1256.8156	1264.6694	1278.8514	1291.0863	1298.1177	1331.9162	1348.2577	1414.087	1471.7701	1478.7588	1480.4511	1483.534	1489.6472	1491.9512	1505.7885	1722.788	2981.9627	2983.2755	3013.342	3032.5438	3038.1373	3039.7884	3045.3392	3057.4327	3059.4859	3086.8099	3093.6722	3106.4335	3114.462	3179.5663
CC1=CCC2(CCC2)C1	CC1=CCC2(CCC2)C1	
InChI=1S/C9H14/c1-8-3-6-9(7-8)4-2-5-9/h3H,2,4-7H2,1H3	InChI=1S/C9H14/c1-8-3-6-9(7-8)4-2-5-9/h3H,2,4-7H2,1H3
