15
gdb 98041	5.89575	0.58838	0.53856	2.197	78.97	-0.2698	-0.0357	0.2341	1962.7982	0.109002	-420.584906	-420.574856	-420.573912	-420.622514	33.521	
C	-0.0623789308	 1.3684899431	 0.1035555851	-0.241408
O	 0.0098177597	-0.0603032322	-0.0018816298	-0.218161
C	 0.6373551229	-0.5148183743	-1.1036736913	 0.260605
O	 1.1142248631	 0.1914772464	-1.9573587351	-0.354034
C	 0.6616020773	-1.9583094038	-1.1239634465	-0.072242
C	 0.7167679823	-3.1579697186	-1.2027164454	 0.269016
C	 0.7718994385	-4.6169854057	-1.277363324	-0.510572
C	 1.4525389581	-5.1233399798	-2.4694791867	 0.314602
C	 2.0084861742	-5.5510516092	-3.4429674635	-0.427785
H	 0.9396975572	 1.8038972192	 0.1283446761	 0.144666
H	-0.6076632712	 1.7900937247	-0.7445608043	 0.144609
H	-0.5902209379	 1.5670139859	 1.0359852158	 0.136252
H	 1.2693849227	-5.0005065346	-0.375698354	 0.173597
H	-0.252121647	-5.0138140659	-1.2387567959	 0.173601
H	 2.5019466108	-5.9219246953	-4.3071763006	 0.207256
11.1139	59.1214	96.8876	121.7397	136.6736	208.4055	293.5525	315.629	334.3421	388.5932	420.1987	554.3807	629.7196	633.3918	661.4921	773.5994	827.3886	926.6934	934.7014	989.371	1101.1623	1176.9225	1212.0715	1229.0592	1278.8925	1334.0787	1442.0207	1471.0717	1480.6289	1496.0374	1793.4929	2251.6529	2364.4313	3011.3904	3036.9254	3052.7617	3127.7581	3162.6575	3506.1792
COC(=O)C#CCC#C	COC(=O)C#CCC#C	
InChI=1S/C7H6O2/c1-3-4-5-6-7(8)9-2/h1H,4H2,2H3	InChI=1S/C7H6O2/c1-3-4-5-6-7(8)9-2/h1H,4H2,2H3
