16
gdb 51940	5.15139	0.50862	0.48423	2.5667	77.62	-0.2608	-0.0382	0.2227	2156.6434	0.120862	-437.851791	-437.841637	-437.840693	-437.890453	32.969	
N	-0.7458968216	 0.9675219653	-0.7717384784	-0.43331
C	-0.8175165377	-0.0554132144	-0.0391551963	 0.136514
O	-0.3959835133	-1.2491597928	-0.5135533444	-0.169792
C	-0.577859205	-2.368074066	 0.35897058	-0.240948
C	-1.9664992611	-2.8071342823	 0.4535607932	 0.110413
C	-3.1206983313	-3.1404720265	 0.5351380429	 0.024014
C	-4.499176587	-3.6003738223	 0.5953135463	-0.415151
C	-4.7201385169	-4.8931711026	-0.1975819059	 0.16996
O	-5.4442559055	-5.7767958802	 0.1685692932	-0.225057
H	-1.0805208068	 1.7839513853	-0.2642960402	 0.231664
H	-1.1913116064	-0.0995158275	 0.9927204217	 0.091853
H	 0.0473225547	-3.1594480706	-0.063533674	 0.157142
H	-0.1831621295	-2.13791937	 1.3585012928	 0.138514
H	-4.8415942963	-3.7632467595	 1.622254858	 0.158972
H	-5.162334892	-2.8414881213	 0.1524596025	 0.16446
H	-4.1623393043	-4.9415818545	-1.1572492816	 0.100751
15.9101	43.0672	59.0094	80.5395	115.3134	152.1937	275.6986	304.936	350.0382	447.704	474.1043	518.7424	660.4943	725.3661	814.5251	823.9065	951.3126	1024.5025	1032.7169	1039.3329	1041.5276	1114.8577	1163.9686	1210.8031	1241.1004	1288.7142	1318.22	1391.607	1414.2627	1425.7866	1437.6973	1481.9718	1750.536	1843.3137	2365.9566	2908.6851	3006.8286	3011.3402	3029.7824	3083.7812	3092.4837	3519.5014
N=COCC#CCC=O	[NH][CH]OCC#CCC=O	
InChI=1S/C6H7NO2/c7-6-9-5-3-1-2-4-8/h4,6-7H,2,5H2	InChI=1S/C6H7NO2/c7-6-9-5-3-1-2-4-8/h4,6-7H,2,5H2
