23
gdb 116066	2.50445	1.13509	0.83745	3.0422	86.14	-0.2325	-0.0084	0.2241	1445.1352	0.206818	-388.341946	-388.332646	-388.331702	-388.37624	35.475	
C	 0.0921435856	 1.5689249625	-0.0041410925	-0.393037
C	 0.0085510275	 0.0390775484	 0.0031219304	-0.180556
C	-1.4192308984	-0.5314563607	 0.0195863197	 0.035225
C	-1.4168518472	-2.0588642141	-0.1592041182	-0.196994
C	-2.8349611193	-2.6423149046	-0.1765973899	-0.221884
C	-3.6129965557	-2.2788352303	 1.1029041043	-0.285231
C	-3.5758131738	-0.779714006	 1.3620459051	 0.380131
O	-4.571198287	-0.1316448375	 1.5902828123	-0.307106
C	-2.188901235	-0.1518653188	 1.3060896949	-0.29898
H	 1.1319053396	 1.9008469498	-0.083133948	 0.114219
H	-0.4561470791	 1.9903886603	-0.8541279425	 0.116758
H	-0.3225178329	 2.0081106006	 0.9082401111	 0.122701
H	 0.5217636151	-0.349490339	-0.8860135029	 0.093433
H	 0.5597882946	-0.3565383108	 0.8676608499	 0.092855
H	-1.964180264	-0.0969280276	-0.8327179634	 0.077733
H	-0.8954843025	-2.3193092196	-1.0876186786	 0.095402
H	-0.8408957123	-2.5164152053	 0.6585171598	 0.092104
H	-3.3771215423	-2.2541778629	-1.0487067929	 0.107172
H	-2.8007778105	-3.7308542522	-0.2914790945	 0.101109
H	-4.6557635578	-2.6017179478	 1.060479101	 0.116105
H	-3.14079453	-2.7773565345	 1.9618027363	 0.112701
H	-1.6188032481	-0.5187747972	 2.1735233084	 0.108352
H	-2.3045231064	 0.9281892573	 1.4163721801	 0.117788
81.2555	96.3539	114.3654	204.1727	222.5937	270.626	350.4098	387.4578	418.1444	447.2108	482.7352	514.1086	642.8926	756.8503	777.789	825.1186	865.1262	876.5661	893.812	933.4881	978.6267	1014.6605	1037.0187	1059.851	1070.1444	1101.5244	1126.3395	1151.241	1212.0984	1236.1742	1245.4451	1272.6532	1295.3662	1315.7192	1316.1492	1340.6929	1371.9303	1376.4517	1378.1307	1391.7886	1415.1692	1462.5425	1469.6425	1483.0783	1491.6393	1499.2489	1502.2673	1509.6536	1815.6971	2983.9042	3000.33	3005.0837	3012.2613	3014.3872	3025.6863	3035.404	3044.0158	3060.9782	3072.1118	3100.9905	3105.0266	3106.9864	3113.6195
CCC1CCCC(=O)C1	CC[C@H]1CCCC(=O)C1	
InChI=1S/C8H14O/c1-2-7-4-3-5-8(9)6-7/h7H,2-6H2,1H3	InChI=1S/C8H14O/c1-2-7-4-3-5-8(9)6-7/h7H,2-6H2,1H3/t7-/m0/s1
