17
gdb 14395	4.14374	1.88319	1.60122	1.5226	67.57	-0.2211	0.0612	0.2823	837.5976	0.141219	-363.754165	-363.746852	-363.745908	-363.785194	29.071	
C	-0.0513332541	 1.6218921817	 0.0365213857	-0.496869
C	 0.0777414411	 0.1083240649	-0.0535665607	 0.377082
O	-1.0028345318	-0.5405399072	 0.5955943598	-0.453866
C	 0.4467206655	-0.7241270779	-1.2430411066	-0.11097
C	 1.7567637036	-0.3175739626	-1.9424415164	-0.055291
C	 2.5733173925	 0.7564029441	-1.3222473209	-0.251411
N	 2.580519344	-0.5796793145	-0.7053239391	-0.145712
C	 1.2809069356	-0.8387515558	 0.020734499	-0.085065
H	 0.2758859462	 2.1317685324	-0.8702570541	 0.136928
H	-1.1127363505	 1.8490084634	 0.1735862614	 0.12741
H	 0.4985115802	 2.0394093396	 0.8878455386	 0.120418
H	-0.9023812778	-0.3949986563	 1.5432676607	 0.28415
H	-0.2441465118	-1.4398506101	-1.6687648749	 0.103174
H	 2.0444223469	-0.7625395231	-2.8900915077	 0.103536
H	 3.5163721162	 0.966930215	-1.8216423957	 0.12088
H	 2.1583542198	 1.6043258477	-0.7990709185	 0.124659
H	 1.2889735844	-1.6168329912	 0.7741285492	 0.100948
125.9697	175.2783	282.6728	310.6876	355.861	379.061	438.7307	470.5233	601.6513	673.4032	692.3888	739.3119	803.2945	840.6255	872.9434	943.7539	964.9562	978.3643	998.3866	1028.3061	1053.9075	1076.8117	1087.977	1116.5209	1130.4774	1157.608	1221.0213	1240.2613	1263.373	1303.2072	1345.408	1405.2155	1428.575	1490.4324	1499.0698	1514.4954	3033.7156	3100.1307	3125.9471	3133.4377	3154.6983	3184.2761	3202.7983	3251.8271	3790.7765
CC1(O)C2C3CN3C12	C[C@@]1(O)[C@H]2[C@H]3CN3[C@@H]12	
InChI=1S/C6H9NO/c1-6(8)4-3-2-7(3)5(4)6/h3-5,8H,2H2,1H3	InChI=1S/C6H9NO/c1-6(8)4-3-2-7(3)5(4)6/h3-5,8H,2H2,1H3/t3-,4+,5-,6-,7?/m1/s1
