23
gdb 121208	2.37871	0.92592	0.71895	2.9725	86.91	-0.2427	-0.0193	0.2234	1651.2424	0.204486	-388.297169	-388.286995	-388.286051	-388.333404	36.709	
C	-0.0455084351	 1.5705821024	 0.0816946558	-0.381647
C	-0.0164880473	 0.044356182	-0.0333696385	-0.168432
C	 0.7610770847	-0.453059516	-1.2585472204	-0.199062
C	 0.7762912195	-1.9734809045	-1.3709987253	 0.035741
C	-0.5165539443	-2.7382511344	-1.7710834946	-0.227623
C	 0.3522142426	-3.7046285065	-2.6152084008	-0.242506
C	 1.528903441	-2.6773325666	-2.5657366944	-0.122089
C	 1.6151683348	-1.8373022627	-3.8098919037	 0.170789
O	 2.6424066719	-1.4927226753	-4.3383263667	-0.261429
H	 0.9673877394	 1.9812468929	 0.1580366245	 0.116841
H	-0.5193661023	 2.0249020843	-0.7954878247	 0.115523
H	-0.6035579257	 1.8935904901	 0.9659908497	 0.112278
H	 0.430194225	-0.3848085116	 0.8734994268	 0.095837
H	-1.044250678	-0.3394808942	-0.0750498889	 0.099514
H	 0.3233888899	-0.0135511486	-2.1651958402	 0.093336
H	 1.7943706252	-0.0826685482	-1.2107853416	 0.104888
H	 1.1756123067	-2.3968523401	-0.4419637529	 0.081065
H	-1.1200377856	-3.1701888657	-0.9695938218	 0.101924
H	-1.1699816358	-2.1225900811	-2.3981648254	 0.103385
H	 0.608399788	-4.6192059404	-2.0758877652	 0.113611
H	-0.0189833297	-3.9812616963	-3.6057762396	 0.105952
H	 2.5270802736	-3.0592566625	-2.3427352631	 0.085797
H	 0.6299150015	-1.5421788973	-4.2442365191	 0.066306
51.712	80.2778	85.9819	125.6616	132.0782	247.8327	256.6136	304.4125	321.5769	391.1172	458.8926	471.1674	692.0216	743.2834	772.6166	852.8667	871.5805	888.0619	898.6827	939.4313	956.9837	995.8933	1006.5334	1039.8451	1051.0158	1101.6131	1132.127	1143.396	1181.9962	1216.2385	1239.2282	1254.0024	1267.6085	1271.1498	1275.6213	1312.1431	1322.5515	1337.8535	1374.8466	1398.876	1414.7624	1439.5988	1480.089	1483.9683	1492.7307	1500.3481	1501.6449	1510.0665	1824.7322	2841.0406	3006.8169	3016.2447	3028.1105	3030.5808	3037.5751	3049.8838	3058.8874	3061.7056	3093.836	3097.3397	3100.7286	3102.9093	3119.8581
CCCC1CCC1C=O	CCC[C@H]1CC[C@H]1C=O	
InChI=1S/C8H14O/c1-2-3-7-4-5-8(7)6-9/h6-8H,2-5H2,1H3	InChI=1S/C8H14O/c1-2-3-7-4-5-8(7)6-9/h6-8H,2-5H2,1H3/t7-,8-/m0/s1
