18
gdb 110756	2.1669	1.47775	1.35193	2.7055	73.76	-0.2519	0.0196	0.2714	1094.9037	0.145721	-439.04258	-439.033521	-439.032577	-439.076591	32.798	
C	 0.2909790022	 0.8554798041	-0.3761205174	-0.242019
O	-0.3975315004	-0.0357398293	 0.486561961	-0.227818
C	 0.4323890064	-0.6794864357	 1.3792878837	 0.060483
C	 0.1129721905	-2.0483689769	 1.848269318	-0.01138
O	-0.5100242865	-2.8081162667	 0.7859173062	-0.266522
C	 0.6445615049	-2.6923596592	 0.0182974273	 0.421096
N	 0.944181629	-3.2038639645	-1.0851912713	-0.56185
C	 1.3776691276	-1.8360269595	 1.0061256993	 0.095313
C	 2.8494298269	-1.8834121195	 1.2918587205	-0.492641
H	 1.0228439994	 0.3231313894	-0.9974212469	 0.12952
H	-0.4610586879	 1.3158890244	-1.019626016	 0.135934
H	 0.809650874	 1.6436898255	 0.1894925321	 0.107433
H	 0.8790655608	-0.0354895445	 2.1437205625	 0.096576
H	-0.0513983771	-2.3910826696	 2.8615077414	 0.124111
H	 0.1760139343	-3.7668190924	-1.4543095766	 0.231733
H	 3.4193144213	-1.5060343325	 0.4366792534	 0.143166
H	 3.1015492902	-1.2699037534	 2.1620103936	 0.120918
H	 3.1835212145	-2.9071702797	 1.4872216292	 0.13595
69.4174	134.6994	149.7681	153.526	195.4398	239.0145	268.0181	328.4993	460.1023	470.6137	615.6463	643.3942	721.7958	753.1442	826.4122	869.4163	896.5156	926.9384	941.679	1009.5694	1015.3166	1046.0114	1081.9836	1109.4704	1173.7417	1181.7156	1192.588	1232.2416	1273.6756	1294.2628	1355.8235	1417.2564	1447.5256	1482.5422	1489.0584	1493.7256	1496.9987	1507.2838	1829.2024	2991.2377	3036.5383	3053.7387	3060.1673	3102.7811	3109.4208	3130.7581	3205.7141	3479.7607
COC1C2OC(=N)C12C	CO[C@H]1[C@H]2O[C]([NH])[C@@]12C	
InChI=1S/C6H9NO2/c1-6-3(8-2)4(6)9-5(6)7/h3-4,7H,1-2H3	InChI=1S/C6H9NO2/c1-6-3(8-2)4(6)9-5(6)7/h3-4,7H,1-2H3/t3-,4+,6-/m0/s1
