19
gdb 38672	2.91709	1.78118	1.29303	2.1065	80.19	-0.2263	0.0127	0.239	1005.5955	0.161485	-385.862753	-385.855657	-385.854712	-385.894018	29.127	
C	 0.0375381077	 1.4923245348	 0.1200785613	-0.378671
C	 1.3136564253	 0.7125379125	-0.0194538047	 0.061531
O	 1.6925917321	 0.1105241876	 1.2177725076	-0.310952
C	 0.4583084937	-0.6957111499	 1.2001825094	 0.042469
C	 0.7481786189	-2.1464439211	 0.9937147916	-0.065311
C	 0.5210526799	-2.7727205673	-0.1622125541	-0.053581
C	-0.0399024216	-2.1276297593	-1.4042849128	-0.251118
C	-0.739049366	-0.7793688067	-1.1378153876	-0.334789
C	-0.0168097928	-0.0049689244	-0.0764599068	 0.281657
H	-0.2143069843	 1.9447995725	 1.0761091453	 0.110954
H	-0.2491974059	 2.0723127384	-0.7531759673	 0.109592
H	 2.0885472953	 0.8992713235	-0.7549395699	 0.099312
H	-0.1207131349	-0.517241265	 2.1158082835	 0.076773
H	 1.1828059709	-2.6815968947	 1.8339810109	 0.092934
H	 0.7791703033	-3.8262989246	-0.2495835415	 0.091337
H	 0.7866166818	-1.9797836751	-2.114719562	 0.117483
H	-0.7313559205	-2.8183602689	-1.9019886494	 0.103994
H	-0.8160498885	-0.1998692814	-2.0641648189	 0.099497
H	-1.7688439043	-0.9660415108	-0.8038657444	 0.106889
136.317	159.6129	289.5711	322.2115	420.424	463.9892	472.7319	522.9242	636.0338	698.4643	739.1842	793.2408	858.1992	870.955	891.8338	912.8867	939.1122	974.5662	992.6329	1009.9875	1020.9498	1024.5853	1051.0396	1054.4482	1085.2114	1100.5563	1162.6012	1189.3382	1232.4175	1262.3223	1286.4884	1303.0598	1342.4462	1361.0642	1372.9201	1416.9398	1419.7416	1471.3729	1487.2332	1488.2413	1715.877	3003.237	3013.5016	3017.1572	3047.3877	3066.3795	3104.9486	3141.2263	3168.8988	3171.185	3196.0383
C1C2OC3C=CCCC123	C1[C@H]2O[C@@H]3C=CCC[C@]123	
InChI=1S/C8H10O/c1-2-4-8-5-7(8)9-6(8)3-1/h1,3,6-7H,2,4-5H2	InChI=1S/C8H10O/c1-2-4-8-5-7(8)9-6(8)3-1/h1,3,6-7H,2,4-5H2/t6-,7-,8-/m1/s1
