23
gdb 115847	2.65	1.27062	1.12694	1.3634	85.44	-0.2424	0.0804	0.3228	1249.3954	0.206644	-388.293348	-388.284216	-388.283272	-388.326944	35.248	
C	-0.0044189128	 1.6219340155	-0.0451356902	-0.380582
C	-0.0176757499	 0.09088516	-0.0086608913	-0.191664
C	 0.6382910981	-0.5379250539	-1.2348688911	 0.137501
O	 2.0101551701	-0.1313889394	-1.2997143345	-0.269864
C	 2.7357437642	-1.0849508207	-2.0714356061	-0.096699
C	 2.0192523752	-2.4137592931	-1.8952533775	-0.090694
C	 1.6741936479	-2.8406706244	-0.4871100563	-0.005328
C	 2.3990616336	-2.354035922	 0.7528235347	-0.423881
C	 0.6697874355	-2.0573725315	-1.3089290316	-0.096142
H	 1.0213346818	 1.9973516146	-0.0856568711	 0.134724
H	-0.5335702634	 1.9999463451	-0.9273399539	 0.109364
H	-0.4900664409	 2.0426246176	 0.8406291673	 0.106774
H	 0.4863725022	-0.2699117602	 0.8935600086	 0.104033
H	-1.0512956966	-0.2744191277	 0.0399208818	 0.092278
H	 0.1086264939	-0.1727507484	-2.1351414256	 0.059863
H	 2.7440013641	-0.8054218586	-3.1374699484	 0.092028
H	 3.7700701541	-1.073895236	-1.7097002067	 0.104819
H	 2.1313775109	-3.1585157559	-2.675320548	 0.083681
H	 1.4087132903	-3.8945950533	-0.4276153897	 0.082602
H	 2.701149182	-1.3096379435	 0.6685328487	 0.143348
H	 1.7636906248	-2.4541748652	 1.6399645905	 0.113012
H	 3.2975502952	-2.9575193695	 0.9260965863	 0.108685
H	-0.2366809703	-2.5557405997	-1.6351747359	 0.082139
89.1177	132.1341	182.188	213.0974	227.13	236.2235	250.0868	350.2872	420.2171	466.5941	529.946	676.1206	727.3774	760.1446	777.9669	794.2742	863.9603	901.4672	945.1087	970.2444	983.009	1013.1583	1024.032	1058.3491	1079.7182	1090.5477	1112.2471	1127.4455	1134.8486	1150.3718	1170.7999	1223.6188	1241.1611	1293.8704	1325.4023	1331.7968	1352.3097	1361.221	1379.293	1407.2056	1413.8156	1421.322	1450.2621	1477.4287	1497.2147	1500.1736	1508.148	1512.2301	1520.6081	2918.6874	2973.3767	3030.1943	3032.7739	3035.1215	3057.7233	3078.7375	3082.4798	3101.671	3116.8397	3122.9083	3143.2795	3163.1782	3174.1615
CCC1OCC2C(C)C12	CC[C@H]1OC[C@H]2[C@@H](C)[C@@H]12	
InChI=1S/C8H14O/c1-3-7-8-5(2)6(8)4-9-7/h5-8H,3-4H2,1-2H3	InChI=1S/C8H14O/c1-3-7-8-5(2)6(8)4-9-7/h5-8H,3-4H2,1-2H3/t5-,6+,7-,8-/m1/s1
