18
gdb 51949	5.93388	0.61722	0.59537	1.9517	75.86	-0.2563	-0.0353	0.221	1820.0138	0.145561	-439.08603	-439.076487	-439.075543	-439.122385	32.684	
O	-0.6335298193	 0.401827988	 0.3616622431	-0.235523
C	 0.3139725298	 0.7441341718	-0.2958844781	 0.158049
C	 1.1632280783	 1.9644950753	-0.0313229132	-0.272013
C	 1.2680597411	 2.8651863171	-1.2663257118	-0.330362
C	 2.4070954309	 3.8702400792	-1.1801641069	 0.390036
O	 3.2831820127	 3.7917169196	-0.3432462483	-0.33249
C	 2.4118576553	 4.9644843389	-2.1992751334	-0.103705
C	 2.6296704763	 6.3541780377	-1.6743082919	-0.216135
N	 3.6771713642	 5.6778660286	-2.4226674696	-0.300543
H	 0.6396985861	 0.149178691	-1.1835390291	 0.069706
H	 0.7583617804	 2.5038858926	 0.8282502732	 0.131174
H	 2.1754462179	 1.6298986174	 0.2319125606	 0.147072
H	 1.4467600452	 2.2652881496	-2.1725401851	 0.138228
H	 0.3304091401	 3.4017991395	-1.4566086989	 0.138261
H	 1.7869880335	 4.824559286	-3.0765386815	 0.101786
H	 2.1472407329	 7.1830113473	-2.1840047788	 0.130999
H	 2.7403625662	 6.4583884985	-0.5986222459	 0.135142
H	 4.3512380186	 5.291789132	-1.7600461744	 0.250321
40.574	59.4901	67.6383	108.8357	153.559	257.8334	280.8449	294.8935	375.8945	518.2665	580.549	675.383	777.1795	818.1485	845.4504	864.2437	893.9363	972.4536	1008.6325	1015.2958	1053.7681	1088.016	1107.2163	1124.0727	1139.332	1180.8788	1188.3207	1258.2795	1286.8263	1307.2533	1321.4559	1365.5529	1407.1401	1429.8958	1449.2999	1466.4519	1495.2523	1784.0913	1839.7775	2839.296	3002.8454	3037.6128	3058.4956	3113.7507	3115.0855	3154.2585	3208.2341	3462.3269
O=CCCC(=O)C1CN1	O=CCCC(=O)[C@H]1CN1	
InChI=1S/C6H9NO2/c8-3-1-2-6(9)5-4-7-5/h3,5,7H,1-2,4H2	InChI=1S/C6H9NO2/c8-3-1-2-6(9)5-4-7-5/h3,5,7H,1-2,4H2/t5-/m1/s1
