21
gdb 111814	2.64922	1.34742	1.05744	2.7412	82.44	-0.2316	-0.0179	0.2138	1228.5046	0.182458	-387.089685	-387.08081	-387.079866	-387.123823	33.373	
C	-0.2739648678	 1.5013760792	-0.0037367418	-0.385317
C	-0.092330296	-0.0211015168	 0.032068617	-0.203577
C	 0.6654723641	-0.542382766	-1.186919075	-0.086015
C	 0.979332317	-2.0560053458	-1.4142192813	-0.072247
C	-0.1515208357	-3.0646784201	-1.0664104117	-0.226945
C	-0.6871562477	-2.9960368876	-2.5274314359	-0.225695
C	 0.4242843119	-1.9613331548	-2.8869076879	-0.148472
C	-0.0114550753	-0.5245504129	-2.572011797	 0.388834
O	-0.6790261638	 0.2826610943	-3.1569802269	-0.310465
H	 0.6946100232	 2.013606632	 0.0131300719	 0.111216
H	-0.7960374087	 1.8051768795	-0.9149324244	 0.148239
H	-0.8509253315	 1.8493836158	 0.8584146269	 0.109692
H	 0.4464770334	-0.3165158442	 0.9416030049	 0.098377
H	-1.076377713	-0.5014080854	 0.0872630254	 0.101882
H	 1.6091148946	 0.0148496021	-1.2919100867	 0.102219
H	 1.998811646	-2.3661069801	-1.1872517425	 0.070051
H	 0.2254681714	-4.052393754	-0.7922263705	 0.106505
H	-0.8473275026	-2.7461598368	-0.2864698282	 0.105058
H	-0.5752061735	-3.935425359	-3.072654569	 0.111556
H	-1.7126436579	-2.6439970169	-2.6632205961	 0.115843
H	 1.0047236018	-2.1234743222	-3.7958269311	 0.089262
49.844	95.6047	151.7149	185.5135	204.3496	264.2318	313.2818	453.0851	469.466	598.9343	623.6334	706.9172	761.7314	802.1024	822.5529	837.4975	859.1645	938.3533	953.5817	954.9219	991.6904	1026.6072	1040.5672	1063.5411	1082.7619	1123.4603	1132.5709	1159.1635	1201.0025	1216.4504	1219.3005	1249.4883	1264.9195	1283.5714	1290.5115	1313.8903	1333.3016	1369.88	1413.0709	1479.6333	1489.576	1496.2689	1499.5812	1513.1526	1870.6173	2997.0696	3021.5314	3035.1875	3057.4808	3064.1312	3069.4345	3099.7893	3100.9087	3108.6662	3113.7447	3124.5299	3126.1666
CCC1C2CCC2C1=O	CC[C@H]1[C@H]2CC[C@H]2C1=O	
InChI=1S/C8H12O/c1-2-5-6-3-4-7(6)8(5)9/h5-7H,2-4H2,1H3	InChI=1S/C8H12O/c1-2-5-6-3-4-7(6)8(5)9/h5-7H,2-4H2,1H3/t5-,6+,7+/m0/s1
