15
gdb 131232	3.90713	1.01592	0.83558	0.6569	73.82	-0.2118	0.0178	0.2296	1309.9584	0.112331	-416.776297	-416.767885	-416.766941	-416.810186	30.715	
O	 0.6991089693	 1.246297375	-0.1355002001	-0.442491
C	 0.252285786	-0.0346717656	-0.0219968879	 0.220712
C	 0.6319806127	-1.0809012468	-0.8384004849	-0.109862
N	-0.0299072526	-2.1762591577	-0.3694745247	 0.049121
C	-0.0662356206	-3.513272152	-0.9436631524	-0.282679
C	 1.2448365369	-3.9892834216	-1.3698718279	 0.296671
C	 2.3129919586	-4.3874181748	-1.746874786	-0.437538
N	-0.8174911458	-1.9029616686	 0.6804399394	-0.253854
C	-0.6494112211	-0.5982896585	 0.9048218779	-0.117987
H	 0.290730674	 1.7766795335	 0.554924468	 0.3006
H	 1.3136398629	-1.1309882297	-1.6700245462	 0.143146
H	-0.4849711409	-4.1583374699	-0.1663164063	 0.167757
H	-0.7607473717	-3.5368411142	-1.7945898525	 0.151935
H	 3.2609950539	-4.7436170018	-2.0674018861	 0.208822
H	-1.1697293617	-0.1167224872	 1.7206848596	 0.105647
36.76	94.9272	190.9338	229.9416	284.4584	325.8079	349.7648	431.6072	472.1248	625.3724	629.0491	659.1939	668.3069	683.651	767.9813	791.1812	829.5774	966.4342	982.4181	1009.9147	1036.326	1152.7048	1179.2877	1228.0395	1257.0909	1349.6533	1384.1158	1405.3818	1438.2043	1475.3588	1505.3539	1646.3337	2247.9458	3013.8654	3095.7929	3232.9985	3284.6356	3503.7932	3841.4912
OC1=CN(CC#C)N=C1	Oc1cn(CC#C)nc1	
InChI=1S/C6H6N2O/c1-2-3-8-5-6(9)4-7-8/h1,4-5,9H,3H2	InChI=1S/C6H6N2O/c1-2-3-8-5-6(9)4-7-8/h1,4-5,9H,3H2
