19
gdb 79563	2.28711	1.73947	1.29503	0.9052	75.46	-0.2012	0.0738	0.275	1048.3717	0.15728	-422.94232	-422.933514	-422.93257	-422.97496	34.743	
C	 0.0405018279	 1.4676810454	-0.0628011024	-0.484892
C	 0.0195707242	-0.0348446206	-0.0559746065	 0.220664
C	-0.9074322634	-0.8476054973	 0.7839359322	 0.027049
O	-1.8332349369	-1.7808179577	 0.2915469391	-0.419503
C	 0.573061749	-1.0356700487	 0.9970854899	-0.176274
C	 1.359493656	-1.7683210939	-0.119189407	-0.120194
C	 0.516169954	-2.290295277	-1.2757057791	-0.373531
C	 0.8187366529	-0.8239112414	-1.1533444861	 0.336041
O	 1.5514704779	-0.1245630323	-2.098500371	-0.448144
H	 1.0462830967	 1.8448409371	-0.2709042485	 0.132743
H	-0.6275892301	 1.8715638035	-0.833951678	 0.116323
H	-0.2869734578	 1.8683749833	 0.9015243234	 0.113639
H	-1.3300625747	-0.2313436808	 1.5838918721	 0.086393
H	-1.9214600486	-2.4764470537	 0.9526585249	 0.284801
H	 1.0284512263	-0.8082523256	 1.9548217569	 0.082374
H	 2.3817010729	-2.0928004669	 0.0226510842	 0.096137
H	 1.1288640757	-2.7653349025	-2.0380821989	 0.106156
H	-0.4744078461	-2.6991209233	-1.1433140736	 0.134057
H	 1.0073701641	-0.0301907373	-2.8887697215	 0.286161
130.3066	172.3141	215.2504	248.3769	260.2341	300.0659	304.5195	375.351	401.507	441.4567	513.3193	584.3944	600.909	645.3591	738.1577	790.2945	874.7647	897.8429	903.8229	942.1364	960.8009	976.0369	1015.7148	1035.3372	1075.8196	1088.448	1104.3276	1149.4318	1187.2419	1237.2334	1263.447	1276.9735	1297.5966	1320.3162	1351.2533	1397.8834	1414.8611	1480.4052	1481.2084	1487.4519	1502.5852	3022.1413	3048.5344	3083.6385	3110.0208	3129.7945	3165.7672	3202.6338	3251.6163	3781.1119	3797.9756
CC12C(O)C1C1CC21O	C[C@]12[C@@H](O)[C@H]1[C@H]1C[C@@]21O	
InChI=1S/C7H10O2/c1-6-4(5(6)8)3-2-7(3,6)9/h3-5,8-9H,2H2,1H3	InChI=1S/C7H10O2/c1-6-4(5(6)8)3-2-7(3,6)9/h3-5,8-9H,2H2,1H3/t3-,4-,5+,6-,7+/m1/s1
