20
gdb 86004	2.73268	1.22054	1.0559	3.5147	75.68	-0.2345	-0.0291	0.2054	1229.0226	0.168377	-440.272875	-440.262939	-440.261994	-440.307687	36.617	
C	-1.1239381018	 0.9241046062	 0.1674061193	-0.398864
C	-0.0335577597	-0.1322849229	 0.1292438591	 0.01635
N	 1.1154714066	 0.1627355247	-0.7615764919	-0.365653
C	 2.0956824409	-0.3743768496	 0.2164212505	 0.157837
C	 2.5592910869	-1.8118117269	 0.001775522	-0.458763
C	 3.2722932142	 0.569845957	 0.4145788566	 0.148772
O	 4.3717895745	 0.2345129594	 0.770292522	-0.252415
C	 0.9710857969	-0.2400564403	 1.3184767302	 0.099566
O	 1.0520271187	 0.8597150225	 2.188302804	-0.424174
H	-0.7164811589	 1.9197271424	 0.3677473185	 0.106485
H	-1.6383842727	 0.9723092082	-0.7979349496	 0.121552
H	-1.8658665839	 0.6912372238	 0.9378102525	 0.125917
H	-0.4894071947	-1.1146824068	-0.062304548	 0.070156
H	 1.1102332109	-0.2939298492	-1.6681629416	 0.216553
H	 3.1013042949	-1.907655191	-0.9452715721	 0.122284
H	 3.2418245875	-2.1104188244	 0.8013124814	 0.146989
H	 1.7101518917	-2.5019102777	-0.0162293568	 0.112943
H	 3.0272808326	 1.6320654968	 0.1879254795	 0.067182
H	 0.8701520098	-1.1190525867	 1.9572624249	 0.096966
H	 1.0170285157	 1.6704604244	 1.6694039494	 0.290318
58.9059	75.4553	192.1622	212.3131	218.6534	246.6834	265.3471	285.1378	340.0059	376.1991	400.2995	446.9882	491.923	607.1098	671.5667	770.9677	790.7637	846.2586	906.4373	951.0854	973.0938	1005.6025	1016.7033	1080.7442	1130.724	1137.7647	1158.3411	1177.8288	1208.931	1234.1256	1288.6683	1310.3096	1381.3911	1382.736	1398.9465	1410.1555	1416.2796	1438.9238	1481.473	1485.5859	1493.683	1498.6492	1830.6791	2877.2592	2987.0046	3036.6083	3036.8366	3100.0988	3103.6108	3105.1456	3112.843	3126.87	3516.9222	3810.2117
CC1NC(C)(C=O)C1O	C[C@H]1N[C@@](C)(C=O)[C@H]1O	
InChI=1S/C6H11NO2/c1-4-5(9)6(2,3-8)7-4/h3-5,7,9H,1-2H3	InChI=1S/C6H11NO2/c1-4-5(9)6(2,3-8)7-4/h3-5,7,9H,1-2H3/t4-,5+,6+/m1/s1
