19
gdb 12123	3.63539	1.78359	1.7363	1.3598	75.44	-0.2122	0.0819	0.2941	891.4777	0.164549	-327.853165	-327.845418	-327.844474	-327.884479	30.805	
C	 0.1637855648	 1.4622033488	 0.0246428651	-0.469327
C	 0.0231683497	-0.0273982197	 0.0391983626	 0.376518
C	-0.9807297729	-0.7869893006	 0.859007464	-0.351973
C	 0.490046828	-1.0899332261	 1.0114555127	-0.17803
C	 1.0827289798	-1.8328466057	-0.2046635706	 0.347804
C	 2.4963208202	-2.3337268013	-0.1928281023	-0.478581
C	 0.1001769394	-2.1333926877	-1.2657543426	-0.301462
N	 0.6304211591	-0.7532439692	-1.1577515938	-0.218866
H	 1.1904212761	 1.752714158	-0.2196505406	 0.126277
H	-0.4955969603	 1.9058683992	-0.731032566	 0.123893
H	-0.0982520695	 1.8891055795	 0.9975848343	 0.113441
H	-1.3835636019	-0.1965295615	 1.6773020778	 0.112965
H	-1.6963517613	-1.498873449	 0.4625754718	 0.110108
H	 1.0199361331	-0.9845006407	 1.9499660896	 0.087838
H	 2.5783076115	-3.2563137497	 0.394493217	 0.118968
H	 2.8419523761	-2.5415829593	-1.2092399993	 0.126514
H	 3.1706351101	-1.5921971088	 0.2503217779	 0.121824
H	 0.4798461833	-2.6335165178	-2.1530869146	 0.116456
H	-0.9414942354	-2.3505972985	-1.0609558029	 0.115632
145.0797	193.0181	199.4654	283.6535	301.249	345.3772	410.0449	483.239	510.054	582.8949	619.5328	730.2785	782.2569	809.6262	876.8676	897.7441	935.878	959.8149	971.6589	1001.5779	1012.5079	1054.2063	1081.733	1100.6173	1102.4201	1122.8896	1137.0971	1199.1689	1215.818	1311.5466	1372.1692	1384.1988	1417.9376	1422.3266	1474.642	1477.5141	1485.8201	1495.0329	1500.0735	1530.9777	3024.2325	3026.6273	3083.9838	3089.2315	3110.0001	3112.7734	3119.1239	3131.1145	3186.3832	3197.1455	3209.8487
CC12CC1C1(C)CN21	C[C@]12C[C@H]1[C@@]1(C)CN21	
InChI=1S/C7H11N/c1-6-3-5(6)7(2)4-8(6)7/h5H,3-4H2,1-2H3	InChI=1S/C7H11N/c1-6-3-5(6)7(2)4-8(6)7/h5H,3-4H2,1-2H3/t5-,6+,7-,8?/m1/s1
