12
gdb 20468	6.66548	1.45905	1.29928	3.9123	57.79	-0.2761	-0.052	0.2241	878.3394	0.083756	-414.605351	-414.599006	-414.598062	-414.636542	22.531	
C	 0.3060567268	 1.5288416343	 0.1321718571	-0.172225
O	 1.1317203475	 0.4356128171	-0.2525329185	-0.214451
C	-0.2402524333	 0.1621905125	 0.0433255854	-0.051562
C	-0.5166401152	-0.64175521	 1.2437018266	 0.438041
C	-1.3837660406	-1.6665774263	 1.4753839578	-0.212159
N	-1.2316836061	-2.0271995699	 2.7922036861	-0.104901
N	-0.361321506	-1.3185400669	 3.3524968366	-0.001519
O	 0.1391017991	-0.3865364914	 2.3734601695	-0.218541
H	 0.5149699528	 1.9493170623	 1.1132228276	 0.143228
H	 0.065959828	 2.2411746505	-0.6553964123	 0.130265
H	-0.8497923592	-0.1067677794	-0.8172757456	 0.117384
H	-2.0811325137	-2.1596499728	 0.8204748197	 0.146439
65.178	169.1382	180.9851	412.841	423.1331	603.9825	690.1449	697.6166	742.5259	824.5829	857.6763	896.4861	986.3524	997.2021	1053.6839	1096.327	1120.0139	1161.6146	1166.9013	1247.7008	1282.5922	1363.6567	1411.261	1467.7837	1517.9381	1612.3753	3094.6231	3135.4218	3192.189	3292.8996
C1OC1C1=CN=NO1	C1O[C@H]1c1cnno1	
InChI=1S/C4H4N2O2/c1-3(4-2-7-4)8-6-5-1/h1,4H,2H2	InChI=1S/C4H4N2O2/c1-3(4-2-7-4)8-6-5-1/h1,4H,2H2/t4-/m1/s1
