17
gdb 56054	6.5669	0.61534	0.5889	1.6918	77.63	-0.2438	0.0065	0.2503	1860.405	0.134601	-455.175015	-455.165613	-455.164669	-455.210309	33.272	
N	-0.1667335951	 1.2755530854	-0.1087749931	-0.564143
C	 0.0695046022	-0.0474878337	 0.0656806912	 0.516737
O	 1.1219331324	-0.5516909527	 0.3673771075	-0.38354
O	-1.0989268698	-0.7372807642	-0.179527436	-0.238911
C	-1.0465533779	-2.1046202044	-0.0804293972	 0.103113
N	-2.0987759886	-2.7575544118	-0.289432938	-0.213689
C	-2.0327760653	-4.1740540039	-0.1854615839	 0.073261
C	-3.2616698587	-4.8808395377	 0.3401698121	-0.271706
C	-2.9139533321	-4.9717422414	-1.1199097133	-0.271536
H	 0.5616953311	 1.9188448662	 0.144127242	 0.276564
H	-1.1043630659	 1.6092639681	-0.2464000187	 0.276172
H	-0.0575882714	-2.4858707222	 0.1788282974	 0.137264
H	-1.0655417982	-4.6093400836	 0.0719277474	 0.081403
H	-3.1115174817	-5.7509449511	 0.9692497114	 0.114124
H	-4.095871331	-4.2492484808	 0.6208053972	 0.125216
H	-3.5151677043	-4.4010086015	-1.8172952365	 0.125477
H	-2.5216395957	-5.9051324208	-1.5075074697	 0.114194
50.7804	73.5164	110.4891	145.5625	183.1376	259.5734	266.1889	332.3794	461.9495	488.5915	535.9008	559.7801	673.2503	773.2362	774.9956	824.537	853.4765	923.2334	964.4567	997.9592	1008.7144	1057.6611	1071.7543	1107.5771	1121.5504	1182.8435	1198.2653	1205.3853	1232.2773	1333.411	1364.5983	1419.3539	1457.1023	1496.1494	1606.904	1767.4566	1855.8271	3078.9412	3122.5299	3140.1403	3144.1658	3226.2301	3240.0891	3627.2483	3763.9452
NC(=O)OC=NC1CC1	NC(=O)OC=NC1CC1	
InChI=1S/C5H8N2O2/c6-5(8)9-3-7-4-1-2-4/h3-4H,1-2H2,(H2,6,8)	InChI=1S/C5H8N2O2/c6-5(8)9-3-7-4-1-2-4/h3-4H,1-2H2,(H2,6,8)
