24
gdb 100331	2.34063	1.09865	0.92473	4.0113	88.9	-0.3089	0.0338	0.3427	1414.9504	0.215568	-368.445858	-368.434787	-368.433842	-368.481741	40.896	
C	-0.1133931343	 1.5185729925	 0.1746101325	-0.407654
C	 0.0091904988	-0.0046510423	 0.0509502198	-0.195001
C	 0.6941220628	-0.5486759901	-1.2276732129	 0.253469
C	 0.7019959699	-2.0870411726	-1.164644198	-0.42688
C	 0.0006205936	-0.0610282945	-2.5260921757	-0.190036
C	-1.4867931732	-0.4013416982	-2.668499064	-0.408444
C	 2.1683076439	-0.047693224	-1.315613026	-0.364847
C	 2.9863148585	-0.3943010232	-0.155218429	 0.270138
N	 3.6217411689	-0.6722199858	 0.7697789521	-0.32509
H	 0.8631316729	 2.0133712232	 0.182431451	 0.12113
H	-0.7036247729	 1.9550590813	-0.6371817356	 0.118861
H	-0.6093982942	 1.7792870804	 1.114374794	 0.12211
H	 0.5594298658	-0.3879273228	 0.9183758166	 0.119995
H	-0.9902365884	-0.4494448943	 0.114438243	 0.099386
H	-0.312641673	-2.4839637784	-1.0734857601	 0.119831
H	 1.1521682655	-2.5191702969	-2.0655038594	 0.109497
H	 1.2729247534	-2.4407676511	-0.300668262	 0.137762
H	 0.1231844245	 1.0258169493	-2.6087144965	 0.097288
H	 0.5439265574	-0.4872268253	-3.3799570054	 0.093455
H	-1.6657869044	-1.4800609052	-2.6408870077	 0.122549
H	-2.0896815672	 0.0578093756	-1.8792752731	 0.123682
H	-1.8665279469	-0.0321239104	-3.6260932481	 0.118305
H	 2.6443186634	-0.472514839	-2.2072091217	 0.144465
H	 2.194934145	 1.0404027318	-1.4378993338	 0.146029
62.7142	93.1409	120.8334	130.9032	220.7999	228.8915	247.657	274.3094	302.8648	330.6723	351.963	385.5499	406.0091	429.1972	478.2091	581.9577	717.2357	771.0365	797.1979	864.547	888.7051	930.4449	961.2353	1001.5735	1018.4203	1023.9336	1055.121	1089.3697	1092.1242	1181.9458	1200.2075	1229.3029	1264.7294	1306.0133	1331.2773	1346.5277	1373.7344	1388.1775	1412.4226	1416.1863	1421.5542	1462.5635	1483.721	1486.6901	1498.453	1499.9571	1505.7386	1509.242	1513.0398	1514.8482	2355.6202	3015.4072	3032.3713	3036.298	3039.694	3043.6193	3044.4826	3050.0788	3066.9894	3082.564	3101.1663	3105.5255	3107.0238	3108.4676	3112.9017	3118.4725
CCC(C)(CC)CC#N	CCC(C)(CC)CC#N	
InChI=1S/C8H15N/c1-4-8(3,5-2)6-7-9/h4-6H2,1-3H3	InChI=1S/C8H15N/c1-4-8(3,5-2)6-7-9/h4-6H2,1-3H3
