17
gdb 9312	5.98075	0.87811	0.82146	3.6301	73.82	-0.2547	-0.0235	0.2312	1408.5017	0.14017	-363.862524	-363.853073	-363.852129	-363.89838	32.669	
C	 0.0098053144	 1.4645046638	-0.1434364209	-0.378518
C	-0.1491485856	-0.0575778044	-0.1235924718	-0.166858
C	-1.489614701	-0.4911555768	 0.48413452	-0.15607
N	-1.665064984	-1.9340900971	 0.5249347566	-0.318179
C	-2.358085361	-2.6133412286	-0.4332964304	 0.286652
O	-2.9301966257	-2.084875417	-1.3699634286	-0.363103
C	-2.3640663542	-4.0584165974	-0.2276014942	 0.2173
C	-2.3849049305	-5.2525814247	-0.0890570488	-0.40554
H	 0.9690322974	 1.7555020759	-0.5810084407	 0.118832
H	-0.7827868576	 1.9368601032	-0.733621342	 0.124999
H	-0.0352578038	 1.8839229031	 0.8680071728	 0.114501
H	-0.0842976285	-0.4586617049	-1.1411913043	 0.119695
H	 0.6713055534	-0.5124597645	 0.446396394	 0.091545
H	-1.5882974351	-0.0993286441	 1.5035763967	 0.104165
H	-2.3163874725	-0.0927955609	-0.1091563023	 0.147651
H	-1.1826536473	-2.4718216118	 1.2271234611	 0.254087
H	-2.4127345385	-6.3092845338	 0.0206841725	 0.208842
19.0386	61.072	84.7647	160.029	233.728	246.8634	285.2214	317.5549	406.6498	472.5065	575.7654	599.3408	657.4718	675.2345	743.9955	765.1977	841.6881	892.46	941.1232	1035.0461	1080.426	1123.6721	1180.4733	1238.3059	1284.2108	1334.0025	1340.2959	1406.2769	1415.1269	1473.4166	1490.8368	1499.9217	1508.5766	1537.5487	1757.2395	2225.8067	3023.9443	3031.2992	3035.6589	3067.6355	3098.057	3108.9854	3115.1603	3496.4993	3639.3917
CCCNC(=O)C#C	CCCNC(=O)C#C	
InChI=1S/C6H9NO/c1-3-5-7-6(8)4-2/h2H,3,5H2,1H3,(H,7,8)	InChI=1S/C6H9NO/c1-3-5-7-6(8)4-2/h2H,3,5H2,1H3,(H,7,8)
