19
gdb 100856	1.99308	1.15311	0.77821	3.0833	74.13	-0.2549	-0.0592	0.1956	1434.6334	0.154595	-460.169321	-460.158522	-460.157578	-460.206404	36.724	
C	 0.0518802044	 1.5541996879	-0.0270658367	-0.409816
C	-0.0138591506	 0.0229657102	 0.0448871886	-0.002806
C	 0.7395204784	-0.5040709368	 1.2709065891	-0.089694
O	 2.0962679678	-0.114935527	 1.1433920815	-0.419803
C	-1.4809460636	-0.490634715	 0.0520982458	-0.160986
C	-2.2044835652	 0.0130433021	-1.1915783546	 0.151225
O	-3.2043112569	 0.6787621251	-1.1759778329	-0.238533
C	-1.5131960443	-2.014130988	 0.0400957536	 0.14625
O	-2.0611270572	-2.6925394132	 0.8676638666	-0.241969
H	 1.0921724705	 1.8809721001	 0.0191022945	 0.144646
H	-0.3919598549	 1.9390863914	-0.9497874767	 0.124975
H	-0.4878077846	 2.0057055592	 0.813071451	 0.123733
H	 0.4893323315	-0.3924414153	-0.8400432775	 0.094146
H	 0.2831046281	-0.0885096703	 2.184090031	 0.098538
H	 0.6489798403	-1.5996913653	 1.3318842911	 0.10189
H	 2.5635833568	-0.3761581968	 1.9420065169	 0.293059
H	-2.0256427122	-0.1378901687	 0.9320787082	 0.114768
H	-1.7231805466	-0.2853968338	-2.1516689687	 0.084903
H	-0.9731875016	-2.475718026	-0.8192711309	 0.085472
53.637	56.1846	81.7552	103.9281	180.2145	198.9876	240.0521	253.4832	284.2784	300.7513	356.8417	390.4798	450.018	546.1425	570.3731	841.4057	906.5576	929.5533	931.5843	977.7454	1036.4249	1072.081	1104.3666	1116.4208	1154.122	1165.184	1217.7231	1245.5855	1273.9222	1286.8438	1345.5239	1370.0456	1409.4107	1419.3062	1436.034	1464.9932	1488.3078	1505.5706	1518.4125	1813.8405	1848.3041	2851.181	2869.8852	2968.2942	2996.8469	3015.8693	3040.1218	3090.4276	3104.5878	3139.3982	3836.1517
CC(CO)C(C=O)C=O	C[C@@H](CO)C(C=O)C=O	
InChI=1S/C6H10O3/c1-5(2-7)6(3-8)4-9/h3-7H,2H2,1H3	InChI=1S/C6H10O3/c1-5(2-7)6(3-8)4-9/h3-7H,2H2,1H3/t5-/m0/s1
