20
gdb 26409	4.20556	0.89618	0.81901	1.7166	82.07	-0.1858	0.0306	0.2164	1463.5622	0.170917	-403.171808	-403.162681	-403.161737	-403.205903	34.58	
C	-0.007814666	 1.5698744487	 0.0698594293	-0.396685
C	-0.0093834567	 0.0415742334	 0.0008373502	 0.060488
C	 0.6711183791	-0.5816011761	 1.2313865209	-0.3869
N	-1.382463405	-0.4193232813	-0.2024415818	-0.399337
C	-1.6242952179	-1.7422354229	-0.5610320277	 0.281322
C	-0.7667751959	-2.6690228273	-1.0877059717	-0.097179
O	-1.4426093671	-3.8279417917	-1.3814208017	-0.152831
C	-2.7298872356	-3.6326063032	-1.0256195832	 0.018084
C	-2.9117767732	-2.3862728613	-0.5196364706	-0.293454
H	 1.0114092281	 1.9536733005	 0.1717387603	 0.116921
H	-0.4586017929	 2.0003459305	-0.8280304698	 0.124958
H	-0.5792544674	 1.9188799713	 0.939180291	 0.1093
H	 0.5472342218	-0.2591519859	-0.8965730409	 0.091305
H	 1.7237459786	-0.2854192524	 1.2899692164	 0.111793
H	 0.1768611318	-0.2495365349	 2.1520858791	 0.107037
H	 0.623402288	-1.673048931	 1.1948733055	 0.12824
H	-2.0161318006	-0.0836923526	 0.5110565979	 0.22371
H	 0.2833079838	-2.6704193233	-1.3188384018	 0.121337
H	-3.3969747534	-4.4628521235	-1.1912850349	 0.131122
H	-3.8380066895	-1.9590389171	-0.1669205466	 0.10077
68.7549	83.7831	137.0128	226.1352	256.6917	298.9304	319.9369	362.7535	433.0886	470.2486	555.8388	604.5007	634.1995	691.3008	749.3072	761.2073	805.5253	845.8198	887.6098	929.8774	946.4364	964.8948	1017.2176	1068.0508	1092.206	1143.1393	1163.8141	1195.4886	1224.9322	1266.1119	1301.5967	1354.4472	1360.2021	1394.2103	1404.3472	1416.9106	1486.0757	1486.5028	1489.496	1508.718	1514.8109	1549.6285	1654.6007	3019.1877	3026.3733	3032.4132	3091.9267	3100.5514	3118.5147	3123.5522	3246.6133	3278.3405	3294.5301	3565.4269
CC(C)NC1=COC=C1	CC(C)Nc1cocc1	
InChI=1S/C7H11NO/c1-6(2)8-7-3-4-9-5-7/h3-6,8H,1-2H3	InChI=1S/C7H11NO/c1-6(2)8-7-3-4-9-5-7/h3-6,8H,1-2H3
