18
gdb 52902	2.03694	1.11578	0.78543	3.8012	84.54	-0.2413	0.0221	0.2635	1493.1456	0.14476	-401.904949	-401.894855	-401.893911	-401.942188	34.84	
C	-0.1379358847	 1.5496190241	 0.0123601726	-0.500796
C	-0.0770034295	 0.0961306217	-0.0170464352	 0.020688
C	-0.030786634	-1.1075095375	-0.0501379562	 0.088062
C	 0.0477757844	-2.5425843446	-0.0967489594	 0.234594
C	-0.285215617	-3.3699263715	 1.1326160909	-0.316446
C	-1.2029525234	-3.3806133092	-0.0624347968	-0.310289
O	 1.0423510897	-3.0721373237	-0.958266338	-0.215888
C	 2.3256879219	-2.8277050929	-0.6024806817	 0.114417
N	 3.2635042085	-3.2973370104	-1.3030025245	-0.439543
H	 0.5562905669	 1.9819238748	-0.7164179957	 0.157264
H	-1.1423643477	 1.9106754572	-0.2344337718	 0.15325
H	 0.1272875121	 1.9443778296	 0.9993006603	 0.14992
H	 0.3317649163	-4.2455407	 1.2989550034	 0.133751
H	-0.5945595845	-2.8403719234	 2.0256746837	 0.129715
H	-2.1501331394	-2.8596348772	 0.0003150848	 0.131454
H	-1.1922583271	-4.2579781169	-0.698222434	 0.141267
H	 2.4197258267	-2.2125964844	 0.2999011214	 0.099962
H	 4.1602330007	-3.0233032757	-0.9064009738	 0.22862
19.2425	58.0884	90.8835	112.9085	130.0505	208.6576	289.9535	302.0549	356.4085	427.17	480.0424	548.7459	577.2063	676.7386	777.9642	822.1815	878.4554	920.6368	953.3979	973.0292	1044.4744	1049.5261	1054.1625	1059.1792	1072.6324	1085.3219	1095.1004	1193.9621	1256.0726	1283.1947	1349.8687	1414.3465	1421.5055	1451.6474	1474.8696	1478.4845	1485.5112	1745.0869	2365.1472	3028.6057	3056.2484	3089.2036	3092.7676	3143.4558	3150.4184	3233.7246	3248.6618	3515.1301
CC#CC1(CC1)OC=N	CC#CC1(CC1)O[CH][NH]	
InChI=1S/C7H9NO/c1-2-3-7(4-5-7)9-6-8/h6,8H,4-5H2,1H3	InChI=1S/C7H9NO/c1-2-3-7(4-5-7)9-6-8/h6,8H,4-5H2,1H3
