19
gdb 52090	5.05457	0.75144	0.74156	3.0629	77.49	-0.2426	-0.0213	0.2213	1550.3475	0.157457	-422.96956	-422.960881	-422.959937	-423.004287	31.767	
O	-0.2349731974	 0.0718473177	 0.0031968704	-0.236663
C	-0.0074609154	 1.2537403917	 0.0136666803	 0.156048
C	 1.359261488	 1.8774736973	-0.1412728733	-0.27432
C	 1.396938661	 2.8962240137	-1.2953313259	-0.363525
C	 2.6720762837	 3.6879472723	-1.3117068708	 0.445102
C	 4.1542275195	 3.2151814905	-1.3417139074	-0.255572
C	 4.1075243598	 4.7307222551	-1.0498578881	 0.054772
C	 3.0655498887	 4.9181699545	-2.1743243396	-0.268263
O	 2.9985822378	 4.4896753	-0.0961973716	-0.347295
H	-0.8331839399	 1.9939339676	 0.1425058329	 0.071364
H	 1.5970957804	 2.4096284841	 0.7899041162	 0.145549
H	 2.0958427432	 1.0814344612	-0.2790763398	 0.12362
H	 1.2833327447	 2.3866362276	-2.2595243254	 0.121384
H	 0.5585236861	 3.5983772404	-1.2029599367	 0.118505
H	 4.4633000931	 2.5921644277	-0.5016975123	 0.10967
H	 4.5684103966	 2.8840486704	-2.2975536918	 0.096765
H	 4.9056296174	 5.3979388809	-0.7269566107	 0.099104
H	 3.3794306561	 4.7440629677	-3.2067478627	 0.096287
H	 2.4141782064	 5.7860697596	-2.0629958637	 0.107467
52.6425	64.5115	93.9944	132.5583	287.9492	309.3073	353.5007	513.3771	523.8108	598.4742	676.1289	710.5795	761.15	806.4837	841.4845	902.4856	914.7489	945.0905	984.9764	988.9616	1007.3841	1048.628	1065.9516	1098.4192	1118.7069	1139.8175	1161.4086	1204.8754	1215.3225	1233.9323	1243.4914	1275.283	1300.1625	1333.28	1388.428	1430.8795	1461.8321	1466.7927	1478.9878	1512.3599	1837.2632	2847.9984	3025.3385	3032.1279	3058.2355	3066.9473	3069.9438	3107.8758	3128.8708	3144.0011	3148.7706
O=CCCC12CC(C1)O2	O=CCC[C@@]12C[C@@H](C1)O2	
InChI=1S/C7H10O2/c8-3-1-2-7-4-6(5-7)9-7/h3,6H,1-2,4-5H2	InChI=1S/C7H10O2/c8-3-1-2-7-4-6(5-7)9-7/h3,6H,1-2,4-5H2/t6-,7+
