15
gdb 12323	3.19516	2.27184	1.38888	1.9648	64.24	-0.2285	-0.0271	0.2014	855.3716	0.122164	-396.034244	-396.027188	-396.026244	-396.065258	27.144	
N	 0.0258613686	 1.3212531568	-0.0390718207	-0.539956
C	-0.0668658995	-0.0388589419	-0.0371355954	 0.272621
N	-1.1851574524	-0.6615407735	-0.0253886293	-0.310616
C	-1.1353689249	-2.1156173304	-0.0505016779	-0.145215
C	 0.0694569784	-2.679386809	-0.8023241354	-0.177879
N	 1.2775888789	-2.0278345196	-0.3072186806	-0.333616
C	 1.3075839828	-0.6988484796	-0.0432011262	 0.386168
O	 2.3218003554	-0.0673642436	 0.2067914887	-0.387795
H	 0.9269111157	 1.6895247355	 0.2261485132	 0.271788
H	-0.8000092804	 1.8384577813	 0.2143175903	 0.257186
H	-1.134493938	-2.4972508128	 0.9819796548	 0.109836
H	-2.0525037727	-2.4892136988	-0.5184397822	 0.111023
H	 0.1567665023	-3.757742595	-0.6406251346	 0.116608
H	-0.0481780169	-2.5103930236	-1.8828685343	 0.116006
H	 2.1775825827	-2.4729961458	-0.4129598703	 0.253841
116.7365	196.8153	294.4134	335.151	372.6866	458.5643	481.8567	517.8517	528.9006	567.7043	613.8521	699.6722	726.3795	821.8015	899.0177	962.1802	987.561	1090.9698	1105.5988	1203.1708	1250.7723	1270.2723	1310.8289	1374.6368	1383.7232	1424.8852	1471.4579	1493.2962	1514.8949	1594.1277	1725.2945	1789.2811	2988.7587	3000.2261	3062.4358	3082.2864	3580.813	3612.495	3712.2599
NC1=NCCNC1=O	NC1=NCCNC1=O	
InChI=1S/C4H7N3O/c5-3-4(8)7-2-1-6-3/h1-2H2,(H2,5,6)(H,7,8)	InChI=1S/C4H7N3O/c5-3-4(8)7-2-1-6-3/h1-2H2,(H2,5,6)(H,7,8)
