15
gdb 50511	3.52869	1.10234	0.98667	4.8937	62.63	-0.2518	-0.0454	0.2064	1181.2235	0.110089	-494.898269	-494.889774	-494.88883	-494.932876	28.922	
O	 0.5416919037	-0.1800666415	 0.6731281937	-0.219955
C	 0.1810260229	 0.9086704199	 0.3205147823	 0.14868
C	 1.1170778989	 1.9897471458	-0.2106944037	-0.003199
C	 1.3897485596	 3.0630234098	 0.8582906407	-0.122356
O	 2.4948710706	 2.5120686541	 1.5622026837	-0.261741
C	 3.1945253567	 1.6452789625	 0.6833505363	 0.11905
O	 2.4118197153	 1.4949615437	-0.4854336025	-0.256606
C	 4.5183347213	 2.3015269055	 0.2816981785	 0.15997
O	 5.5963916042	 1.8269895393	 0.5081641909	-0.224987
H	-0.8868937301	 1.2256759807	 0.3771647744	 0.083743
H	 0.695720644	 2.4127147826	-1.1294169587	 0.119133
H	 1.6419584228	 4.023369658	 0.3910437531	 0.119965
H	 0.5704719805	 3.2139429457	 1.5667265868	 0.132527
H	 3.3697725408	 0.6881892094	 1.1868102183	 0.124398
H	 4.384227519	 3.2803052945	-0.2309177937	 0.081377
49.9384	74.8174	91.0298	153.5079	225.9482	329.6753	338.2141	373.8423	437.4435	666.292	750.2746	784.9576	831.7413	912.7948	930.3995	981.4658	1006.547	1030.3722	1079.3684	1087.7042	1112.2959	1173.4768	1219.5742	1264.4828	1307.7471	1331.2726	1364.6396	1373.4988	1411.9837	1414.7915	1516.9243	1847.9032	1852.809	2860.9124	2888.3295	3022.4606	3062.2275	3066.1247	3095.5028
O=CC1COC(O1)C=O	O=C[C@H]1CO[C@@H](O1)C=O	
InChI=1S/C5H6O4/c6-1-4-3-8-5(2-7)9-4/h1-2,4-5H,3H2	InChI=1S/C5H6O4/c6-1-4-3-8-5(2-7)9-4/h1-2,4-5H,3H2/t4-,5-/m0/s1
