21
gdb 106366	3.32221	1.22072	1.08215	1.2388	84.6	-0.2168	0.0212	0.2381	1226.5642	0.182084	-387.056236	-387.047489	-387.046544	-387.089401	33.926	
C	 0.0609299924	 1.3543411877	-0.1698551002	-0.261804
O	 0.0101340694	-0.0244075761	 0.1348635392	-0.297395
C	-1.2642066816	-0.5688180523	 0.085135836	 0.424202
C	-2.1595410497	-0.5974548469	-1.2112823893	-0.276716
C	-2.8573364028	-1.7301938972	-0.3852479038	-0.130648
C	-1.4187826589	-2.1172112853	 0.1061875184	-0.265154
C	-3.3696407261	-0.9326057713	 0.831833371	 0.363479
C	-4.7176201681	-1.0740708672	 1.4487642568	-0.51632
C	-2.320946275	-0.1637055856	 1.1395047207	-0.29413
H	 1.1045677098	 1.6643114318	-0.081087962	 0.126065
H	-0.2850862667	 1.5561151078	-1.1939718507	 0.111171
H	-0.5477874281	 1.9530432394	 0.5229557622	 0.108711
H	-2.753622638	 0.288290744	-1.4468459519	 0.08933
H	-1.6259194383	-0.967945494	-2.0924338987	 0.093973
H	-3.5234240523	-2.4549372397	-0.8507442348	 0.062944
H	-0.8155893101	-2.6164858504	-0.6583233012	 0.095243
H	-1.3301572649	-2.6168834324	 1.0730353717	 0.094017
H	-4.8938055019	-2.1010449168	 1.79453183	 0.12674
H	-4.8379039683	-0.4035894492	 2.3045652656	 0.124676
H	-5.5142287126	-0.8500965918	 0.7272406294	 0.125781
H	-2.1881159082	 0.5521104156	 1.9388326116	 0.095834
93.1919	150.1344	164.7427	185.8413	219.3116	275.7302	385.8085	410.8965	511.8553	528.8098	572.2701	573.3737	654.3805	773.8819	791.5711	836.2752	860.5035	935.2809	939.7965	983.3508	1013.5709	1028.1076	1057.3409	1062.919	1072.6552	1100.1075	1132.2812	1154.8138	1175.7746	1183.4258	1214.0396	1221.6577	1230.3047	1241.7425	1293.2787	1332.0375	1411.5942	1476.925	1477.4747	1483.7963	1486.4486	1487.3037	1507.9346	1518.3097	1697.2999	2988.453	3011.9473	3037.1757	3044.7295	3055.7719	3056.3109	3105.1182	3117.8947	3119.2121	3125.8207	3128.8738	3226.1265
COC12CC(C1)C(C)=C2	CO[C@@]12C[C@@H](C1)C(=C2)C	
InChI=1S/C8H12O/c1-6-3-8(9-2)4-7(6)5-8/h3,7H,4-5H2,1-2H3	InChI=1S/C8H12O/c1-6-3-8(9-2)4-7(6)5-8/h3,7H,4-5H2,1-2H3/t7-,8-
