20
gdb 117133	3.82742	0.86176	0.75941	3.0029	81.24	-0.2392	0.0122	0.2515	1552.5208	0.170706	-436.514303	-436.503874	-436.502929	-436.550549	36.647	
C	-0.692029443	 0.983648563	 0.2589810611	-0.373057
C	 0.5993908131	 0.2740340512	-0.1557898522	-0.139807
N	 1.2826308708	-0.3893032356	 0.9476483889	-0.380011
C	 0.8971441318	-1.6402090296	 1.3434356869	 0.535607
O	 0.0565546036	-2.2928079463	 0.7468977126	-0.419205
N	 1.5643737663	-2.1329038993	 2.4792363207	-0.15103
C	 2.6303554512	-1.4015844571	 3.1513328155	-0.367469
C	 1.1904823393	-3.3823055546	 2.9583187788	 0.103329
N	 1.7439519004	-3.9028749321	 3.9796513388	-0.491566
H	-0.4997971798	 1.753804289	 1.0138201003	 0.108394
H	-1.1557948249	 1.4676898335	-0.6065384593	 0.118354
H	-1.4021188842	 0.2621697106	 0.6711885199	 0.14438
H	 0.3797399277	-0.4937272852	-0.900325812	 0.145432
H	 1.3036721154	 0.9832891481	-0.6030889473	 0.103157
H	 1.8271031082	 0.1809862041	 1.5714061386	 0.245967
H	 2.2535472773	-0.4935480767	 3.6385502523	 0.126822
H	 3.0365861521	-2.0592690633	 3.9191240339	 0.184578
H	 3.4238067176	-1.1330314218	 2.4468241818	 0.1337
H	 0.3959875429	-3.8141709115	 2.3506226778	 0.144386
H	 1.3348745543	-4.8152896966	 4.1672337128	 0.228041
47.2517	62.1263	91.4566	170.6149	184.3777	190.1686	255.3767	284.668	338.6836	343.7272	405.0971	416.8104	480.0076	543.7443	723.4232	767.2836	783.1611	821.4405	876.5384	908.5194	1015.9478	1079.7476	1081.8343	1118.5061	1153.6723	1161.1316	1174.0879	1228.0575	1311.1413	1340.5556	1368.8132	1394.3998	1402.8201	1411.5245	1450.0285	1472.8223	1491.3698	1503.943	1506.3018	1515.0746	1545.4752	1713.1002	1774.5717	3019.102	3036.3233	3052.7834	3083.0692	3099.1387	3119.5394	3131.5892	3146.5358	3156.8621	3515.3379	3661.6452
CCNC(=O)N(C)C=N	CCNC(=O)N(C)C=N	
InChI=1S/C5H11N3O/c1-3-7-5(9)8(2)4-6/h4,6H,3H2,1-2H3,(H,7,9)	InChI=1S/C5H11N3O/c1-3-7-5(9)8(2)4-6/h4,6H,3H2,1-2H3,(H,7,9)
