20
gdb 16061	2.97166	1.70676	1.37174	1.2875	74.94	-0.2417	0.0727	0.3144	1000.777	0.177165	-348.972621	-348.964192	-348.963248	-349.005288	31.936	
C	 0.0590863841	 1.6832273039	 0.3786154282	-0.419144
C	 0.0330107281	 0.1708359982	 0.4582669204	-0.05347
C	 1.060841719	-0.7627006627	-0.1390006777	-0.107955
C	 2.481180185	-0.202891679	-0.0010830856	-0.223151
C	 2.2796780988	-0.1132426216	 1.545790143	-0.298888
C	 0.8606585197	-0.6848980936	 1.3820199798	 0.321769
C	 0.2773770629	-1.6913613257	 2.3425113759	-0.188265
O	-0.9695329336	-2.2310708505	 1.930114133	-0.409918
H	 1.0676995132	 2.0916463194	 0.4817020647	 0.12021
H	-0.3373500088	 2.0281100151	-0.582848138	 0.116879
H	-0.5556446622	 2.1295214428	 1.1686854134	 0.110731
H	-0.9645259868	-0.2465883034	 0.3314770364	 0.075205
H	 0.7638587432	-1.554458071	-0.8173453439	 0.085411
H	 3.2493804328	-0.9306442984	-0.2712844435	 0.102137
H	 2.694676961	 0.7310774539	-0.5312767557	 0.094697
H	 2.9411091398	-0.7972652103	 2.0845918546	 0.100636
H	 2.3609610962	 0.8751062428	 2.0097553096	 0.092962
H	 0.9542796388	-2.5499360689	 2.433580199	 0.108601
H	 0.2026238649	-1.2416268698	 3.3474684486	 0.086859
H	-1.6334960461	-1.5428894812	 2.0347073878	 0.284692
76.7952	164.7764	199.7249	206.0758	239.1356	264.505	329.9262	402.9221	451.9673	552.2453	655.9793	722.29	740.7229	793.4901	883.2953	924.574	944.1444	959.2327	991.5863	1018.0052	1054.9464	1072.5549	1082.3862	1122.5541	1127.7684	1159.7797	1209.7347	1215.5148	1230.6675	1253.8274	1267.1075	1291.1279	1336.5112	1390.6102	1413.0825	1420.7542	1463.96	1476.0241	1498.1088	1500.6715	1506.2685	1510.9413	2955.8655	3029.9249	3042.0848	3044.2362	3049.7505	3085.4466	3087.7228	3105.8645	3109.2217	3129.097	3175.1849	3825.7637
CC1C2CCC12CO	C[C@H]1[C@H]2CC[C@@]12CO	
InChI=1S/C7H12O/c1-5-6-2-3-7(5,6)4-8/h5-6,8H,2-4H2,1H3	InChI=1S/C7H12O/c1-5-6-2-3-7(5,6)4-8/h5-6,8H,2-4H2,1H3/t5-,6+,7+/m0/s1
