16
gdb 123919	3.53303	1.637	1.15963	2.0834	70.52	-0.1999	0.0091	0.209	1001.9952	0.129524	-430.243715	-430.236633	-430.235689	-430.275147	27.723	
C	-0.0111813353	 1.4330662362	 0.053121102	-0.173928
C	 1.4468794983	 1.9498595254	 0.0082276607	-0.173938
N	 2.2718315391	 1.4536026218	 1.1131620028	-0.397147
C	 1.976704588	 0.1300332618	 1.4345640455	 0.318637
N	 2.6891050979	-0.6800106915	 2.2153211565	-0.307505
N	 2.0321650585	-1.8358418428	 2.1058266338	-0.097774
N	 0.9502627465	-1.8513494449	 1.3255831635	-0.307535
C	 0.8923680373	-0.5941961695	 0.890296224	 0.318695
N	-0.106686812	-0.028556239	 0.1002790789	-0.397163
H	-0.5034142686	 1.8431384038	 0.9450613851	 0.112909
H	-0.5646723649	 1.7933750885	-0.8181194933	 0.109744
H	 1.9046960668	 1.6321695857	-0.9380715591	 0.112918
H	 1.4588964089	 3.0429441105	 0.024229963	 0.109743
H	 2.3286627628	 2.0755833728	 1.9076392127	 0.242085
H	 2.3393129503	-2.6604474001	 2.5911321495	 0.288167
H	-0.2307428535	-0.4710458387	-0.7997691355	 0.242093
91.5221	235.9914	306.142	315.3887	382.2583	441.3791	458.6964	515.0665	555.5406	580.2432	689.7101	723.831	741.1695	787.8873	873.493	966.6487	983.1461	1051.7939	1052.5849	1141.2112	1181.7371	1208.5121	1258.2718	1269.498	1287.0823	1376.9332	1378.6361	1392.8903	1435.4646	1459.9364	1467.4963	1486.5949	1490.8721	1586.9563	1605.2404	3012.3284	3024.2234	3096.4818	3096.7075	3574.8289	3575.0395	3695.0059
C1CNC2=NNN=C2N1	C1CNc2n[nH]nc2N1	
InChI=1S/C4H7N5/c1-2-6-4-3(5-1)7-9-8-4/h1-2H2,(H3,5,6,7,8,9)	InChI=1S/C4H7N5/c1-2-6-4-3(5-1)7-9-8-4/h1-2H2,(H3,5,6,7,8,9)
