19
gdb 85233	2.75984	1.479	1.09657	2.772	75.84	-0.2413	-0.0202	0.2212	1132.6823	0.158816	-423.05121	-423.042741	-423.041797	-423.083888	33.16	
C	 0.0271946125	 1.5702233933	 0.0041036981	-0.397829
C	 0.0330176885	 0.0413276434	 0.0443631845	 0.014886
C	 0.6978987915	-0.6286574492	-1.1880179447	-0.360125
C	 1.259888365	-1.9383454142	-0.6469058858	 0.340346
O	 1.3472107152	-3.0043590568	-1.2155692324	-0.353551
C	 1.5534867768	-1.7805095293	 0.8042282271	 0.350805
O	 1.7146382809	-2.9462375567	 1.5255184068	-0.479021
C	 2.2751565342	-0.5157507082	 1.2204399601	-0.349159
C	 0.7697706038	-0.5520917154	 1.2526276856	-0.117084
H	 1.0478129215	 1.9677558193	-0.0176127964	 0.117624
H	-0.4961519048	 1.9399505844	-0.8838028232	 0.11757
H	-0.473664197	 1.9846158873	 0.8850739258	 0.118398
H	-1.0054233367	-0.3101403046	 0.0913662341	 0.088388
H	 0.0097905707	-0.8162901982	-2.0141298194	 0.131753
H	 1.5191488187	-0.017246162	-1.5837325224	 0.128558
H	 1.6816420631	-3.6533886396	 0.8623808919	 0.294807
H	 2.7774959542	-0.6071731605	 2.1772200745	 0.134675
H	 2.8025706618	 0.088240887	 0.4885162455	 0.115565
H	 0.2815354401	-0.5487739299	 2.2207999305	 0.103395
106.7606	135.3691	235.4893	242.2531	290.9174	327.3798	350.2096	395.6135	465.4455	498.1942	534.7423	565.6145	688.0044	699.991	778.5158	869.0682	883.0013	911.4672	916.9683	967.1298	999.1679	1033.5791	1064.9272	1069.0023	1088.4787	1122.89	1145.8681	1197.6199	1224.9112	1256.5616	1308.3375	1335.9104	1366.8797	1395.6744	1412.6392	1432.399	1460.8706	1488.7319	1496.3501	1498.9942	1811.6068	3022.6074	3030.2859	3036.8619	3099.9574	3101.8258	3118.9404	3125.3561	3176.8947	3218.3168	3707.7138
CC1CC(=O)C2(O)CC12	C[C@H]1CC(=O)[C@@]2(O)C[C@@H]12	
InChI=1S/C7H10O2/c1-4-2-6(8)7(9)3-5(4)7/h4-5,9H,2-3H2,1H3	InChI=1S/C7H10O2/c1-4-2-6(8)7(9)3-5(4)7/h4-5,9H,2-3H2,1H3/t4-,5-,7+/m0/s1
