16
gdb 127340	4.66463	0.92251	0.87293	3.3895	76.87	-0.2542	0.0072	0.2614	1354.7976	0.124542	-396.923262	-396.914578	-396.913633	-396.957861	30.688	
C	-0.1485129968	 1.429436479	 0.0159006492	-0.320811
N	-0.0232934321	-0.0115016851	-0.0027271967	 0.05995
C	 0.0911240986	-0.8527206165	-1.0496711984	 0.002784
N	 0.1805832298	-2.1016627625	-0.6350389727	-0.304151
C	 0.1170905235	-1.9704305747	 0.719882046	 0.351591
C	 0.1751372821	-3.1358128836	 1.6682386559	-0.437024
C	 1.4912223892	-3.7681996187	 1.7255571326	 0.319661
C	 2.572444802	-4.2881298586	 1.7806078781	-0.46456
N	-0.0092322628	-0.7231617457	 1.15078246	-0.302831
H	 0.6853736207	 1.873137681	 0.5653871302	 0.157857
H	-0.139838931	 1.7952087943	-1.0123985793	 0.144519
H	-1.085813638	 1.7206285354	 0.4964624026	 0.156214
H	 0.1011300711	-0.5131525638	-2.0750012201	 0.14142
H	-0.111919379	-2.7801815594	 2.663177316	 0.150708
H	-0.5709136968	-3.8786515289	 1.3606866171	 0.148923
H	 3.5282366394	-4.7480821421	 1.8228650696	 0.19575
29.6272	97.0279	103.2114	188.6961	257.6806	309.2383	327.1261	402.5136	456.491	613.153	634.536	651.1635	666.846	735.9019	819.712	856.6146	930.568	959.8075	1030.4552	1051.0667	1077.4276	1154.1662	1208.2298	1232.6008	1316.2124	1332.8962	1364.0197	1448.4125	1453.6624	1455.4837	1473.5823	1492.5389	1525.2743	1559.8583	2244.4261	3036.0666	3054.4365	3084.1226	3125.31	3147.2856	3252.5374	3507.6945
CN1C=NC(CC#C)=N1	Cn1cnc(CC#C)n1	
InChI=1S/C6H7N3/c1-3-4-6-7-5-9(2)8-6/h1,5H,4H2,2H3	InChI=1S/C6H7N3/c1-3-4-6-7-5-9(2)8-6/h1,5H,4H2,2H3
