20
gdb 118391	1.72139	1.14934	0.75297	3.7315	83.03	-0.248	0.0216	0.2695	1552.0987	0.16851	-403.140665	-403.130152	-403.129208	-403.177632	36.875	
C	 0.3424649918	 1.5080045323	 0.1195159082	-0.379535
C	 0.3014805719	-0.0189214824	 0.0178625154	-0.174227
C	 0.5850977247	-0.6916416598	 1.3679335058	-0.168062
N	 0.5549177952	-2.1462190014	 1.3246822872	-0.03942
C	 1.6613025662	-2.8760167618	 0.7080028065	-0.326203
C	 2.9469672809	-2.619237631	 1.3545903768	 0.31357
C	 4.0068706822	-2.3962551485	 1.8749542055	-0.456914
C	-0.4825352969	-2.8595462172	 1.8514427595	 0.156962
O	-0.589781589	-4.0680065993	 1.8369755043	-0.342186
H	 1.3244519237	 1.8572158564	 0.4567954261	 0.122097
H	 0.1386833833	 1.9733704849	-0.848881296	 0.121291
H	-0.4034096036	 1.8797865088	 0.8308884701	 0.11888
H	-0.6797526838	-0.3496102305	-0.3433000771	 0.106489
H	 1.0358562122	-0.3559614773	-0.7234065953	 0.106944
H	 1.5633661496	-0.3732560767	 1.7486032866	 0.12541
H	-0.1613249311	-0.3679937816	 2.1019911118	 0.11592
H	 1.3963952504	-3.9351446257	 0.7817247254	 0.179694
H	 1.7320712022	-2.6288410989	-0.3591726466	 0.138127
H	 4.9449241573	-2.2173548425	 2.3397878143	 0.204347
H	-1.2417950371	-2.1949539377	 2.3074678415	 0.076818
35.2215	61.6318	74.4528	121.1854	174.6183	235.6634	275.2467	304.7499	332.9812	335.6782	354.6139	412.8689	580.6694	617.1435	667.6938	705.4367	747.667	855.7742	882.4308	908.1691	964.1584	1001.0194	1034.0905	1043.2201	1118.1805	1137.0616	1204.2712	1251.5154	1296.4746	1322.716	1334.3221	1373.0025	1407.4523	1416.3023	1432.2896	1448.7138	1477.2059	1484.089	1492.8475	1501.2647	1509.979	1790.7142	2238.9639	2943.0632	3019.989	3027.4764	3031.8618	3037.0477	3057.092	3079.7995	3090.8951	3101.0811	3111.1826	3504.1451
CCCN(CC#C)C=O	CCCN(CC#C)C=O	
InChI=1S/C7H11NO/c1-3-5-8(7-9)6-4-2/h1,7H,4-6H2,2H3	InChI=1S/C7H11NO/c1-3-5-8(7-9)6-4-2/h1,7H,4-6H2,2H3
