19
gdb 53961	2.49338	1.26192	1.19103	3.7646	71.33	-0.2372	0.0193	0.2566	1157.4095	0.158461	-456.349489	-456.339862	-456.338917	-456.383816	36.223	
C	-0.0896750459	 1.4195031163	 0.1318480539	-0.393118
C	 0.0282340789	-0.1006654331	-0.0353639681	 0.177692
O	 0.7918231847	-0.5620349617	 1.0824905274	-0.472092
C	-1.360899103	-0.7348040556	-0.0760091814	 0.032294
C	-1.6361536245	-2.0772259545	 0.4875578998	-0.264671
N	-2.1360809312	-0.8627365158	 1.1629321045	-0.3297
C	 0.7442449132	-0.3814164883	-1.3773116297	 0.373318
N	 2.0525813324	-0.7458668773	-1.2529878441	-0.534362
O	 0.1683901695	-0.2776539529	-2.4424977574	-0.37289
H	 0.9026867254	 1.8739416613	 0.1998785846	 0.12022
H	-0.6152190384	 1.8451903995	-0.7252477146	 0.145899
H	-0.6449275159	 1.6528797696	 1.0438055172	 0.131544
H	 0.8857649708	-1.5182596298	 0.999848609	 0.284552
H	-1.9350980201	-0.4198192712	-0.9409451693	 0.118916
H	-2.3972793391	-2.7039708216	 0.0325258262	 0.127225
H	-0.8367570464	-2.6372040694	 0.9680285849	 0.092387
H	-1.5155428114	-0.6614216119	 1.946594426	 0.233902
H	 2.5165763951	-0.6133161093	-0.3696381953	 0.265861
H	 2.6031736357	-0.7994017044	-2.0952079139	 0.263024
67.3676	84.1946	165.9387	223.782	238.7518	257.3129	312.6327	350.9769	367.1672	404.3554	466.3809	508.5532	511.9921	609.1871	660.8684	698.2108	773.2269	839.6553	867.1158	914.6386	962.6735	972.7446	983.3862	1060.6931	1093.0551	1102.4363	1140.4516	1170.2726	1185.388	1241.5458	1272.4982	1301.2738	1326.1066	1363.7324	1404.4489	1410.0657	1487.0597	1492.9487	1514.4501	1592.7166	1797.7054	3050.6739	3103.1433	3124.7243	3143.4351	3170.4749	3188.3039	3471.4618	3587.8641	3723.4343	3795.0799
CC(O)(C1CN1)C(N)=O	C[C@@](O)([C@H]1CN1)C(=O)N	
InChI=1S/C5H10N2O2/c1-5(9,4(6)8)3-2-7-3/h3,7,9H,2H2,1H3,(H2,6,8)	InChI=1S/C5H10N2O2/c1-5(9,4(6)8)3-2-7-3/h3,7,9H,2H2,1H3,(H2,6,8)/t3-,5-/m1/s1
