17
gdb 6327	5.03323	1.12759	0.93471	2.0027	70.98	-0.2347	0.0076	0.2423	1223.1645	0.140997	-397.230977	-397.221359	-397.220415	-397.266593	33.099	
C	-0.4567465955	 1.8074952597	 0.78012431	-0.320037
N	-0.7414744587	 0.3967040596	 0.5905731601	-0.293396
C	 0.2033197609	-0.4573744056	 0.5887556617	 0.385587
C	 1.6780938568	-0.2127205812	 0.769815311	-0.46371
N	-0.2194904463	-1.7848367175	 0.4133289067	-0.381565
C	 0.5337906265	-2.9315510032	 0.2214121242	 0.463362
N	-0.2530325102	-4.0617452937	 0.0553158715	-0.560158
O	 1.7469659657	-2.9683560758	 0.1599914582	-0.385605
H	 0.2295542938	 2.2124367088	 0.0236937382	 0.117928
H	-1.3936261037	 2.3660774185	 0.7043485597	 0.12097
H	-0.0266442529	 2.0234023451	 1.7682926767	 0.117482
H	 2.0742918301	-0.8261765303	 1.5820143912	 0.152527
H	 2.2299913499	-0.5106549698	-0.1240502657	 0.16332
H	 1.8629468075	 0.8394542995	 0.9834759998	 0.120103
H	-1.2213996817	-1.8381944953	 0.2928886589	 0.246268
H	-1.1523791733	-4.1013629686	 0.509708052	 0.252279
H	 0.2794734411	-4.9166233801	 0.1027589558	 0.264645
36.314	48.8584	93.7592	123.1249	187.715	263.872	325.1398	381.2474	383.632	390.1677	520.6724	540.3754	592.0069	656.2843	691.3432	771.2801	824.1462	963.5329	1045.2258	1054.4274	1089.3769	1111.8144	1120.9376	1163.7539	1307.2011	1339.2816	1413.2183	1440.8184	1457.4508	1472.2614	1493.9335	1512.9422	1525.3079	1627.2133	1738.2321	1807.2643	2991.4259	3043.5466	3071.5807	3094.5168	3133.5101	3163.6982	3580.2628	3599.6536	3698.0875
CN=C(C)NC(N)=O	CN=C(C)NC(=O)N	
InChI=1S/C4H9N3O/c1-3(6-2)7-4(5)8/h1-2H3,(H3,5,6,7,8)	InChI=1S/C4H9N3O/c1-3(6-2)7-4(5)8/h1-2H3,(H3,5,6,7,8)
