16
gdb 29942	3.34421	1.42468	1.00561	5.7499	76.96	-0.2215	-0.0249	0.1966	1131.1573	0.126236	-434.149162	-434.140925	-434.139981	-434.181926	30.818	
C	-0.0262257939	 1.4518350749	 0.0263108081	-0.328847
N	-0.0435011523	-0.0046838494	-0.0010615826	-0.12162
C	-1.184802274	-0.7094216321	-0.1579956343	 0.065924
C	-1.1816196142	-2.0671000695	-0.1805761932	-0.264339
C	 0.0951130543	-2.6962978952	-0.0269468229	 0.405509
N	 0.1814671384	-4.0558398998	-0.0780514717	-0.553327
N	 1.2188783633	-2.031258353	 0.1339028159	-0.415752
C	 1.2242671485	-0.6651056523	 0.1506315896	 0.432988
O	 2.2109274421	 0.0318196956	 0.2886276488	-0.40644
H	 0.6115558348	 1.8351385961	-0.7733678595	 0.156581
H	-1.0447178395	 1.8245829632	-0.098611383	 0.119175
H	 0.3862744524	 1.8052040901	 0.9741155815	 0.155929
H	-2.0956269786	-0.1299503721	-0.2649027168	 0.130849
H	-2.0948634473	-2.6293780981	-0.3165949592	 0.09778
H	-0.641691366	-4.6155918891	 0.0604218802	 0.258433
H	 1.0665576318	-4.4545162793	 0.1919824093	 0.267157
100.1457	109.789	188.9995	262.2241	313.781	327.2934	362.8345	414.7135	478.4748	530.55	568.1728	613.6262	728.041	751.395	771.7757	795.2266	800.2668	952.4417	960.0528	1059.5997	1082.5937	1155.3424	1162.7644	1223.6089	1253.815	1347.3669	1401.3851	1453.3098	1464.8764	1506.1675	1528.6017	1561.2775	1632.2968	1694.3139	1788.3541	3054.1334	3125.1185	3142.122	3187.6114	3224.625	3601.2137	3731.1139
CN1C=CC(N)=NC1=O	Cn1ccc(N)nc1=O	
InChI=1S/C5H7N3O/c1-8-3-2-4(6)7-5(8)9/h2-3H,1H3,(H2,6,7,9)	InChI=1S/C5H7N3O/c1-8-3-2-4(6)7-5(8)9/h2-3H,1H3,(H2,6,7,9)
