16
gdb 46090	4.89491	1.01379	0.86733	3.5725	77.89	-0.2462	-0.0396	0.2065	1268.5053	0.125263	-400.75761	-400.749584	-400.74864	-400.790272	30.571	
O	-0.0164951158	-0.0405613125	-0.2545924975	-0.376549
C	-0.0143963976	 1.1600171609	-0.0498576145	 0.400465
N	-1.1673945115	 1.8736217589	 0.1901417752	-0.346775
C	-1.2159579007	 3.3229620354	 0.0722116663	-0.17209
C	-0.0259115972	 3.9456670418	 0.8309207683	-0.214476
C	 1.2533680023	 3.2287995446	 0.4358237567	-0.058969
C	 1.2360418654	 1.962393577	 0.0185780323	-0.169781
C	 0.0468870241	 5.3849209805	 0.5979485472	 0.304079
C	 0.0989195953	 6.5673028477	 0.3916320868	-0.443487
H	-2.0143940234	 1.3523257777	 0.0152381717	 0.248541
H	-1.1721833211	 3.6523321616	-0.9763821365	 0.121108
H	-2.1564088039	 3.6836898143	 0.4952166654	 0.126809
H	-0.1827188401	 3.7754386645	 1.9080199687	 0.13451
H	 2.1831796451	 3.7803294285	 0.5350422778	 0.122659
H	 2.1399365259	 1.4230903907	-0.239488009	 0.120984
H	 0.1480926732	 7.6140027684	 0.2178210611	 0.202974
75.2028	139.6774	181.9509	248.0517	325.9612	396.824	433.9172	484.1711	526.3382	570.7102	609.0419	638.1995	660.4312	695.5771	736.7431	809.8496	848.3825	942.9597	998.8374	1013.0325	1043.3641	1079.7191	1124.0121	1180.6034	1249.7041	1277.816	1293.0788	1336.4956	1383.6554	1403.4103	1465.7163	1513.3635	1687.707	1788.5042	2242.4558	2978.7391	3000.2967	3097.7081	3177.9314	3211.5538	3502.2371	3610.2692
O=C1NCC(C=C1)C#C	O=C1NC[C@@H](C=C1)C#C	
InChI=1S/C7H7NO/c1-2-6-3-4-7(9)8-5-6/h1,3-4,6H,5H2,(H,8,9)	InChI=1S/C7H7NO/c1-2-6-3-4-7(9)8-5-6/h1,3-4,6H,5H2,(H,8,9)/t6-/m1/s1
