21
gdb 38289	3.63665	1.67026	1.64919	0.1363	84.64	-0.2711	0.0956	0.3667	934.0363	0.187521	-349.887804	-349.881851	-349.880907	-349.91759	27.351	
C	-0.0331317175	 1.5579419407	 0.0152815267	-0.21621
C	 1.5167780717	 1.402152291	 0.0392986367	-0.049082
C	 1.2572769678	 0.1456445241	 0.9229933074	-0.21621
C	-0.0228649269	 0.0003958109	 0.0470899794	-0.049082
C	 0.4107079654	-0.5068867756	-1.3585544461	 0.013859
C	 0.8155464073	 0.6124559913	-2.3822327938	-0.055558
C	 1.7374898343	-0.4040821154	-3.0847641533	-0.262613
C	 1.9596398667	-0.6397027072	-1.5774444834	-0.055558
C	 1.9734964039	 0.9159427298	-1.3664621449	 0.013859
H	-0.412963294	 1.9803296182	 0.9496010807	 0.086861
H	-0.5006901635	 2.0667960728	-0.8296271083	 0.090533
H	 2.1343255523	 2.2151434808	 0.4263122658	 0.052526
H	 1.9921114185	-0.6614684965	 0.9238834559	 0.090533
H	 1.0147739754	 0.4177324346	 1.9539137407	 0.086861
H	-0.887900534	-0.5364193423	 0.4416048542	 0.052526
H	-0.2041405447	-1.3215163969	-1.7519505182	 0.056042
H	 0.1553365071	 1.3349263273	-2.8649636588	 0.067829
H	 1.2461347537	-1.2093739637	-3.6391918133	 0.084509
H	 2.5821286575	 0.0069736883	-3.6459535646	 0.084508
H	 2.6293392593	-1.3727618394	-1.1246788449	 0.067829
H	 2.8398734198	 1.4498864273	-1.767355858	 0.056042
286.3609	332.4025	398.9663	476.7027	506.936	553.9384	623.5654	790.6928	794.2021	797.6543	827.1793	834.6313	877.3407	898.6729	901.2743	919.2518	936.827	966.9833	981.5681	1002.5651	1011.6358	1055.4029	1069.9218	1073.4382	1082.7706	1098.34	1110.779	1123.2128	1124.2051	1143.3345	1170.6652	1200.7801	1237.3303	1237.6963	1242.7358	1248.3072	1262.1459	1264.4055	1323.358	1326.2264	1328.2624	1383.0012	1490.7533	1510.1042	1522.8096	3039.1438	3055.5061	3056.6432	3059.4425	3062.8998	3084.2861	3085.8071	3086.2379	3098.4497	3100.2973	3115.9681	3118.1543
C1C2CC1C1C3CC1C23	C1[C@H]2C[C@@H]1[C@H]1[C@@H]3C[C@H]1[C@H]23	
InChI=1S/C9H12/c1-4-2-5(1)9-6-3-7(9)8(4)6/h4-9H,1-3H2	InChI=1S/C9H12/c1-4-2-5(1)9-6-3-7(9)8(4)6/h4-9H,1-3H2/t4-,5+,6-,7+,8-,9+
