23
gdb 118516	1.94146	0.87863	0.64494	1.0815	88.48	-0.2582	0.0538	0.312	1775.1563	0.202562	-388.257958	-388.246466	-388.245522	-388.295611	40.904	
C	 0.1350768245	 1.4882046159	-0.1252729439	-0.391767
C	 0.0129587621	-0.038378954	-0.0954787524	-0.181294
C	-1.4241296986	-0.5628323764	 0.0886822258	 0.029123
C	-2.2824883138	-0.3385448546	-1.1685950096	-0.181287
C	-3.7869276342	-0.4546716566	-0.9458383397	-0.08255
O	-4.4242792746	-0.163884101	-2.1814720492	-0.42032
C	-1.4057612722	-2.0657138596	 0.4778813392	-0.374285
C	-0.7905487697	-2.331402171	 1.7728704892	 0.304548
C	-0.2913816727	-2.5324127187	 2.8482817765	-0.445269
H	 1.1814157876	 1.7912788079	-0.2308203647	 0.113769
H	-0.4183225022	 1.9350431853	-0.9571518631	 0.119699
H	-0.2455917241	 1.9303330999	 0.8022812282	 0.11568
H	 0.4292556371	-0.4625252802	-1.0199960351	 0.091141
H	 0.6283098452	-0.4249430796	 0.7243689832	 0.111135
H	-1.8780560488	-0.014361958	 0.9261772279	 0.078016
H	-2.0964848735	 0.6617408629	-1.5725945077	 0.106945
H	-1.9861861949	-1.0469840004	-1.9532908077	 0.10197
H	-4.0568291119	-1.4634036305	-0.5959962652	 0.085029
H	-4.0973096515	 0.2543447254	-0.1604190582	 0.086773
H	-5.3739710368	-0.2493140937	-2.0575215558	 0.285486
H	-2.4277646986	-2.4621014673	 0.487897721	 0.126519
H	-0.8724866774	-2.6260743008	-0.3026468526	 0.128122
H	 0.1501633089	-2.7209017349	 3.7951776338	 0.192817
50.5753	68.6067	80.5359	92.2765	148.0053	186.5039	235.5111	243.6336	270.1224	317.8764	346.1721	384.9641	423.5176	471.3667	567.7566	613.4166	635.7947	774.5898	784.2295	823.9916	921.9266	952.5824	969.9637	997.7369	1032.7945	1051.5957	1071.4602	1120.6764	1130.5419	1149.522	1214.1563	1245.2084	1251.0574	1295.2705	1305.8567	1324.7316	1332.5459	1351.9391	1387.2971	1392.3034	1414.4113	1463.4862	1468.8688	1486.8489	1492.0123	1501.1894	1507.6903	1527.465	2234.9409	2961.8237	2989.7304	3002.9006	3011.9228	3018.4763	3032.9579	3033.8201	3058.8911	3064.1184	3081.419	3099.611	3105.887	3506.7045	3830.4758
CCC(CCO)CC#C	CC[C@@H](CCO)CC#C	
InChI=1S/C8H14O/c1-3-5-8(4-2)6-7-9/h1,8-9H,4-7H2,2H3	InChI=1S/C8H14O/c1-3-5-8(4-2)6-7-9/h1,8-9H,4-7H2,2H3/t8-/m1/s1
