17
gdb 75681	2.85913	1.25874	1.06339	1.6624	74.95	-0.2526	-0.053	0.1996	1158.2656	0.133946	-421.831992	-421.823351	-421.822407	-421.865495	31.544	
C	-0.0884381697	 1.6700555664	-0.154239634	-0.417535
C	 0.0389592804	 0.1599852444	 0.0077900989	-0.200843
C	 1.0975989301	-0.6325172183	-0.8095606451	 0.418662
O	 1.2497271917	-0.8106475247	-1.9834686797	-0.309181
C	 1.7300042837	-1.2294257432	 0.4179993686	-0.205519
C	 2.1198457016	-0.1348384466	 1.3794871853	-0.331636
C	 0.6625260152	-0.4463574829	 1.2818636703	 0.241384
C	-0.0727441684	-1.0843899028	 2.3927669103	 0.059038
O	 0.4470396882	-1.5247711489	 3.3907831603	-0.261738
H	 0.8435661797	 2.1875512816	 0.0904652719	 0.123919
H	-0.3425371602	 1.912471251	-1.1903738043	 0.142109
H	-0.875899699	 2.0717993675	 0.4911369882	 0.126599
H	-0.927091972	-0.3207966175	-0.1995998309	 0.111523
H	 2.0739378582	-2.2477313927	 0.5520597222	 0.133402
H	 2.5965373016	-0.4921903114	 2.2860660779	 0.158447
H	 2.4935692594	 0.8132009732	 1.006864592	 0.133698
H	-1.1722246005	-1.1568018851	 2.236310898	 0.07767
82.6256	119.2212	177.8061	190.8377	207.7282	245.0215	307.1138	402.1073	478.5881	538.5662	636.1708	679.0926	718.1415	765.1357	792.404	898.3668	925.0485	967.5236	1004.7293	1047.4752	1061.9218	1087.8623	1099.3626	1111.991	1125.8577	1190.6752	1238.4102	1245.5297	1332.8741	1386.8039	1410.2314	1430.1987	1478.8604	1495.0673	1498.3399	1800.9189	1886.1933	2882.3949	3024.1829	3041.0983	3109.6482	3116.4741	3132.3197	3200.6331	3224.1323
CC1C(=O)C2CC12C=O	C[C@H]1C(=O)[C@H]2C[C@@]12C=O	
InChI=1S/C7H8O2/c1-4-6(9)5-2-7(4,5)3-8/h3-5H,2H2,1H3	InChI=1S/C7H8O2/c1-4-6(9)5-2-7(4,5)3-8/h3-5H,2H2,1H3/t4-,5+,7+/m0/s1
