16
gdb 35728	2.42879	1.52972	1.09752	5.633	68.32	-0.28	-0.0034	0.2766	1095.0289	0.124024	-437.840321	-437.83213	-437.831185	-437.874175	29.045	
N	-0.0759990511	-1.2104153343	-0.1902827921	-0.32344
C	-0.0259214028	-0.072094728	 0.0014910725	 0.298312
C	 0.0154086718	 1.3803442713	 0.2005097069	-0.017126
O	 0.0903385604	 1.7634516199	 1.5806966989	-0.269686
C	 1.3615794951	 2.4313208321	 1.3902723561	-0.089831
C	 1.3615673532	 2.1076529691	-0.1197198582	-0.105166
C	 2.5028263881	 1.2913835193	-0.66769189	 0.065516
C	 3.8942669672	 1.5527066968	-0.2794888928	-0.186532
O	 3.1831526744	 0.4276270917	 0.2400911502	-0.215012
H	-0.8629126418	 1.8158201777	-0.2918569035	 0.126824
H	 1.3035884819	 3.49130818	 1.6558310364	 0.113055
H	 2.1574139072	 1.9389089438	 1.9565352822	 0.136384
H	 1.1974874941	 2.976115477	-0.7624059225	 0.105824
H	 2.3217348976	 0.8499279191	-1.6486447175	 0.113913
H	 4.7003561737	 1.3184604321	-0.9720530763	 0.128903
H	 4.115436731	 2.3389276924	 0.4417632398	 0.118061
54.9763	82.9682	119.5831	214.5452	231.1739	277.07	400.1607	526.0797	544.197	606.0938	730.2108	812.6781	846.8255	897.4181	921.0544	969.1704	983.146	1040.2945	1047.2461	1071.5996	1100.1185	1125.5091	1164.8817	1169.207	1180.239	1225.5796	1261.2457	1292.6053	1342.121	1356.3531	1383.3259	1430.5552	1514.0219	1530.9453	2356.884	3030.4482	3046.4718	3080.9651	3086.1606	3103.8825	3107.433	3174.8476
N#CC1OCC1C1CO1	N#C[C@H]1OC[C@H]1[C@H]1CO1	
InChI=1S/C6H7NO2/c7-1-5-4(2-8-5)6-3-9-6/h4-6H,2-3H2	InChI=1S/C6H7NO2/c7-1-5-4(2-8-5)6-3-9-6/h4-6H,2-3H2/t4-,5-,6-/m1/s1
