19
gdb 114176	3.81648	0.94463	0.82664	4.389	78.34	-0.2434	-0.0171	0.2263	1387.9933	0.158254	-423.004156	-422.995207	-422.994263	-423.038167	33.038	
O	-0.055226958	 1.4265580135	-0.1598965506	-0.418647
C	 0.0507002348	 0.03551937	 0.1022316587	-0.09395
C	-1.3378251473	-0.5578696071	-0.0549329966	 0.035935
C	-1.980643581	-0.6004988067	-1.4804993219	-0.318161
C	-2.1989927178	-2.1072829473	-1.3286164121	 0.28248
C	-0.8858734753	-2.816583546	-1.0814775463	-0.335695
C	-1.4869431735	-2.0823129974	 0.0647894361	-0.130139
C	-3.4310714095	-2.8344756202	-1.6387951549	 0.053459
O	-4.392983127	-2.3557944335	-2.1937750955	-0.2714
H	 0.8242747818	 1.8124240658	-0.1140060585	 0.289003
H	 0.7529910945	-0.4478092428	-0.5950880516	 0.082671
H	 0.4204065706	-0.1566892113	 1.1232091907	 0.086953
H	-2.0099127536	-0.0510575098	 0.6424500863	 0.094241
H	-2.9170515368	-0.0472113341	-1.5501194915	 0.132318
H	-1.330643597	-0.3009022323	-2.3076262886	 0.104343
H	-0.9483188077	-3.8991364013	-1.0182899099	 0.125157
H	-0.0002831777	-2.4521687099	-1.5947996496	 0.12125
H	-1.8052558678	-2.6075759308	 0.9577561063	 0.102102
H	-3.4297132118	-3.8977650589	-1.2988710806	 0.058083
85.2136	95.1749	131.8538	179.8387	246.1375	266.1913	295.702	379.1608	437.9146	467.0365	533.9385	663.2212	753.82	782.9187	846.3508	897.368	909.0841	948.1311	967.8565	1020.5834	1041.5519	1049.7767	1074.511	1090.897	1098.6589	1110.7406	1163.6372	1218.7541	1231.6428	1250.7836	1266.3912	1282.773	1326.3041	1366.4874	1385.5793	1436.4553	1461.5056	1481.154	1494.8306	1519.5337	1799.4246	2844.3187	2961.6093	2991.3338	3064.979	3077.6713	3114.7685	3138.988	3180.6871	3200.2912	3832.0055
OCC1CC2(CC12)C=O	OC[C@H]1C[C@]2(C[C@@H]12)C=O	
InChI=1S/C7H10O2/c8-3-5-1-7(4-9)2-6(5)7/h4-6,8H,1-3H2	InChI=1S/C7H10O2/c8-3-5-1-7(4-9)2-6(5)7/h4-6,8H,1-3H2/t5-,6+,7+/m1/s1
