18
gdb 69084	2.56336	1.5781	1.20528	3.6224	76.65	-0.2503	0.0287	0.279	1068.8388	0.148167	-401.963835	-401.955591	-401.954647	-401.996365	31.603	
C	-0.0258246111	 1.5907996192	 0.0386508541	-0.463364
C	 0.1543365875	 0.101335568	-0.0005396443	 0.413881
C	-0.7144550563	-0.8382408751	 0.7849316262	-0.388829
C	 0.7793751919	-0.7376362213	 1.1207038222	 0.111017
C	 1.6976339157	-1.7321371203	 0.4167340359	-0.301415
C	 1.2273205727	-1.6468314102	-1.0519213861	-0.107935
O	 0.6634112681	-0.3480465916	-1.2254934126	-0.287117
C	 1.1861232505	-0.166081699	 2.3668743865	 0.210693
N	 1.5117342517	 0.3064819487	 3.3726403092	-0.356018
H	 0.9067667718	 2.0922444161	-0.2343431912	 0.137942
H	-0.8018877234	 1.8970061366	-0.6693998677	 0.135703
H	-0.3188967072	 1.9179275959	 1.0388457582	 0.139793
H	-1.3950042914	-0.3950405868	 1.5027548837	 0.139947
H	-1.0685765387	-1.7600022444	 0.3367861604	 0.128004
H	 2.734611106	-1.4015457717	 0.5234654302	 0.13187
H	 1.6214202389	-2.7484323162	 0.8121400517	 0.123282
H	 2.0405316198	-1.756243094	-1.7730824303	 0.124154
H	 0.4776592934	-2.4195546442	-1.2680330761	 0.108391
126.9782	142.7355	193.0479	213.36	239.9085	330.1151	393.4233	443.189	488.8604	563.8652	577.925	652.2026	689.5164	731.1533	826.0369	888.0446	919.1711	938.7077	957.9648	963.2371	1058.5205	1073.7877	1085.3666	1107.1237	1148.3341	1216.8819	1235.4489	1251.0205	1264.4402	1343.113	1374.1412	1392.4153	1426.5045	1474.2096	1478.3295	1495.5624	1503.4907	1529.3134	2343.4797	3013.2816	3047.7702	3062.4643	3098.2715	3112.4853	3116.691	3134.3721	3140.5853	3231.0613
CC12CC1(CCO2)C#N	C[C@]12C[C@]1(CCO2)C#N	
InChI=1S/C7H9NO/c1-6-4-7(6,5-8)2-3-9-6/h2-4H2,1H3	InChI=1S/C7H9NO/c1-6-4-7(6,5-8)2-3-9-6/h2-4H2,1H3/t6-,7+/m0/s1
