15
gdb 51996	5.2249	0.74301	0.6643	6.0986	67.32	-0.2582	-0.0469	0.2113	1586.3864	0.110635	-491.112639	-491.103266	-491.102322	-491.14861	31.305	
N	-0.0202353315	 1.0853927414	-0.2215458662	-0.439432
C	-0.2840967426	-0.1016694228	 0.100544891	 0.149624
O	-0.3494759945	-1.0498367451	-0.8714566612	-0.163461
C	-0.6724357614	-2.3530830307	-0.4684592977	-0.221069
C	-2.1554873352	-2.4945972095	-0.0812809845	 0.417388
O	-2.8307847882	-1.5596981406	 0.2526047711	-0.283006
N	-2.594529826	-3.822851842	-0.1191854398	-0.352856
C	-3.8328405253	-4.3248828533	 0.2925478929	 0.169811
O	-4.7302817911	-3.6934733635	 0.7706091416	-0.239842
H	 0.0093226466	 1.6738834329	 0.6081674047	 0.234462
H	-0.4602097365	-0.4932786713	 1.1086636771	 0.097423
H	-0.426138367	-3.0048226954	-1.3124042232	 0.139309
H	-0.0665688569	-2.6814174145	 0.3910549887	 0.137104
H	-1.9492162395	-4.5103420124	-0.4824419191	 0.260652
H	-3.874805641	-5.4189283632	 0.1169002448	 0.093894
37.8966	66.8275	72.704	152.5241	181.0213	216.1314	287.197	298.8378	362.4017	527.6303	557.3337	624.0163	682.3081	795.8072	816.5754	931.6266	974.0956	1022.9651	1031.1414	1033.3434	1080.5711	1162.5837	1189.6583	1246.0193	1323.5543	1393.168	1422.2271	1444.2919	1477.4628	1509.1508	1752.9878	1820.9091	1882.3851	2929.9445	2988.5082	3056.8499	3085.281	3524.9512	3600.2975
N=COCC(=O)NC=O	[NH][CH]OCC(=O)NC=O	
InChI=1S/C4H6N2O3/c5-2-9-1-4(8)6-3-7/h2-3,5H,1H2,(H,6,7,8)	InChI=1S/C4H6N2O3/c5-2-9-1-4(8)6-3-7/h2-3,5H,1H2,(H,6,7,8)
