19
gdb 113239	4.33791	0.79181	0.75282	2.7233	76.4	-0.2605	0.0185	0.279	1518.3047	0.158247	-419.194213	-419.18436	-419.183416	-419.229656	35.402	
C	 0.0193479231	 1.7143552291	 0.0453172265	-0.458817
C	-0.1088521206	 0.2119185644	 0.1919744663	 0.313387
C	-1.3938733951	-0.3639425561	-0.4117567185	-0.418064
C	-1.4665061766	-0.1901633874	-1.8645763766	 0.272335
N	-1.5109902254	-0.0521376688	-3.0108860025	-0.305779
N	 1.1299250466	-0.5640367334	 0.0219768795	-0.367593
C	 0.4597845639	-0.5530684695	 1.3398480466	-0.083925
C	 1.2781463336	 0.0334612363	 2.4684320888	-0.075124
O	 2.3643895081	-0.8172091252	 2.7899060067	-0.416186
H	 0.9934326391	 2.0606323132	 0.390818993	 0.139312
H	-0.0804072625	 1.9994719781	-1.0071795143	 0.147261
H	-0.7610669584	 2.2331410401	 0.6129186519	 0.120317
H	-1.4760380535	-1.4332272628	-0.1874998007	 0.149381
H	-2.2691281018	 0.1210836347	 0.0372066914	 0.159306
H	 0.9574279281	-1.4355970512	-0.4728447191	 0.237378
H	-0.0743770937	-1.4600434766	 1.6221261338	 0.089489
H	 1.6248306327	 1.0428747127	 2.2102045328	 0.094012
H	 0.6684633099	 0.1121338297	 3.3747955657	 0.111337
H	 2.8748349224	-0.9167072571	 1.9773555186	 0.291974
49.4027	64.5365	124.3989	154.8773	204.7382	231.7473	302.6094	362.2371	391.8848	399.9832	427.044	444.2845	486.4715	641.4997	725.9437	837.2581	867.9803	915.1577	926.6038	973.3609	976.3662	1033.3195	1057.7144	1092.6935	1105.8353	1128.751	1189.97	1213.1953	1258.7796	1275.4676	1332.8123	1357.9027	1380.2686	1419.7873	1426.7007	1457.0105	1463.9035	1493.7432	1496.7167	1506.1658	2361.7037	3015.0467	3037.4482	3041.0534	3075.6318	3079.5708	3101.3734	3111.8345	3148.6092	3500.0859	3791.0587
CC1(CC#N)NC1CO	C[C@@]1(CC#N)N[C@H]1CO	
InChI=1S/C6H10N2O/c1-6(2-3-7)5(4-9)8-6/h5,8-9H,2,4H2,1H3	InChI=1S/C6H10N2O/c1-6(2-3-7)5(4-9)8-6/h5,8-9H,2,4H2,1H3/t5-,6-/m0/s1
