17
gdb 19698	4.711	1.56911	1.46236	2.8887	66.71	-0.2404	0.0696	0.31	897.9807	0.143769	-363.790703	-363.783792	-363.782848	-363.82204	26.48	
O	 0.2982541247	 0.6314563629	-0.9360169814	-0.422204
C	-0.0777554333	 0.4035525495	 0.4160799986	-0.117303
C	-1.419959109	-0.3042663234	 0.3905596262	 0.048577
C	-1.5482643515	-1.7640461122	-0.0077065167	-0.051614
C	-1.4075298565	-2.6188943365	 1.2124280863	-0.037459
C	-1.1842861744	-1.7307442631	 2.422160405	-0.240942
C	-2.1296342671	-0.7625839941	 1.6834405028	-0.048297
N	-2.7328376573	-1.977165604	 0.8967563077	-0.166298
H	 1.1694533488	 1.0383749584	-0.9424829016	 0.287962
H	 0.6735929749	-0.2084558983	 0.9360202838	 0.087043
H	-0.1733943192	 1.3518812057	 0.9716271503	 0.084797
H	-2.1193503594	 0.2864970352	-0.2103210122	 0.095391
H	-1.5264563845	-2.1840934787	-1.0064240026	 0.097335
H	-1.278322772	-3.6932490778	 1.1418767884	 0.094169
H	-1.6775407611	-2.1524359595	 3.3017879365	 0.113054
H	-0.1746761684	-1.4028687207	 2.6900010886	 0.094668
H	-2.7933019648	-0.0936922133	 2.2283141202	 0.081121
75.8527	183.8558	209.2838	272.6803	371.9538	481.0164	556.7968	711.5952	757.692	778.2166	809.8412	833.3918	903.4216	928.2911	982.0358	1009.2904	1012.621	1039.1003	1057.4158	1078.5239	1096.6824	1112.2278	1130.9186	1140.0726	1188.1624	1213.0611	1250.9454	1262.144	1269.9768	1285.5078	1344.1964	1376.1135	1392.8407	1464.4062	1500.5071	1520.3547	2959.8939	3005.4227	3046.0469	3063.3067	3102.5533	3134.4056	3175.4789	3190.0795	3829.3133
OCC1C2C3CC1N23	OC[C@H]1[C@H]2[C@H]3C[C@@H]1N23	
InChI=1S/C6H9NO/c8-2-3-4-1-5-6(3)7(4)5/h3-6,8H,1-2H2	InChI=1S/C6H9NO/c8-2-3-4-1-5-6(3)7(4)5/h3-6,8H,1-2H2/t3-,4+,5-,6+,7?/m1/s1
