19
gdb 52324	4.61322	0.76082	0.72459	3.5117	72.55	-0.2548	-0.0252	0.2295	1578.7529	0.158238	-460.173342	-460.164165	-460.163221	-460.209345	31.83	
O	-0.2659413837	 0.4743386846	 0.6062100111	-0.238922
C	 0.0532546641	 1.4244587309	-0.0576369583	 0.140319
C	 1.4831300137	 1.9088968039	-0.2025414984	-0.15894
O	 1.5151001085	 2.8891526254	-1.2173212881	-0.265648
C	 2.7748212987	 3.5105410692	-1.3748458991	 0.233617
C	 2.6501274683	 4.5308965141	-2.5244993518	-0.265417
C	 2.855922334	 5.8982316234	-1.8350429075	-0.210504
C	 2.6385499824	 5.5578962409	-0.3567230633	-0.090406
O	 3.1517388065	 4.2296367056	-0.2231848643	-0.24825
H	-0.685388967	 2.0392152055	-0.6185046711	 0.091781
H	 1.8163900126	 2.320020484	 0.7615278938	 0.142043
H	 2.1336992473	 1.051319376	-0.4364909643	 0.122371
H	 3.5441670545	 2.7408864747	-1.5237094338	 0.075581
H	 3.3887428412	 4.3425552557	-3.3056833115	 0.112934
H	 1.6566036245	 4.435858737	-2.9669510097	 0.124799
H	 3.8771028508	 6.2586583157	-1.9877071236	 0.112452
H	 2.1687126604	 6.6659431192	-2.1976182938	 0.108169
H	 3.1885555608	 6.1959936339	 0.3382308194	 0.112189
H	 1.5719550325	 5.5856054103	-0.0930630357	 0.101832
41.2713	55.3148	68.9335	135.8005	145.1793	223.0402	332.2783	363.1996	557.9366	580.3203	617.6899	735.8289	748.63	842.9576	870.031	926.1051	933.5189	960.2879	997.431	1049.8305	1055.4942	1081.6881	1115.1109	1133.866	1149.6178	1212.2864	1231.7696	1233.4617	1258.1865	1310.6346	1318.9293	1337.2692	1362.2651	1389.5978	1401.076	1420.741	1479.673	1484.3881	1498.5953	1520.7719	1844.1236	2893.8615	2986.6904	3008.5939	3017.4668	3030.1864	3062.7396	3081.945	3105.3574	3113.269	3133.3786
O=CCOC1CCCO1	O=CCO[C@H]1CCCO1	
InChI=1S/C6H10O3/c7-3-5-9-6-2-1-4-8-6/h3,6H,1-2,4-5H2	InChI=1S/C6H10O3/c7-3-5-9-6-2-1-4-8-6/h3,6H,1-2,4-5H2/t6-/m0/s1
