17
gdb 45757	3.08521	1.4425	1.03248	2.7924	74.63	-0.2201	-0.0104	0.2096	1126.3148	0.136749	-418.008871	-418.000935	-417.999991	-418.041797	29.956	
O	 0.3387200757	-0.0370325404	 0.0184404608	-0.366678
C	 0.120029229	 1.1506472915	 0.0240645588	 0.432634
N	-1.1178322571	 1.7614432461	 0.000660585	-0.332941
C	-0.9961603568	 3.1594441031	 0.077017596	-0.020134
C	 0.2828104875	 3.5398963382	 0.109146077	-0.149036
C	 1.1549607344	 2.309175132	 0.0505178734	-0.125529
N	 2.038075199	 2.1585444904	 1.2000839621	-0.071736
C	 3.123037916	 1.192466203	 1.0417587896	-0.202359
C	 3.4046120466	 2.653508748	 1.0328054958	-0.233127
H	-1.9797060037	 1.2438786354	 0.0459504007	 0.262086
H	-1.8917663544	 3.7644703741	 0.0888489818	 0.131727
H	 0.6491898714	 4.553135273	 0.163415867	 0.111084
H	 1.7125900875	 2.2638797685	-0.9054798667	 0.091503
H	 3.3415634135	 0.5924798183	 1.9194546349	 0.12104
H	 3.1917137041	 0.6567239797	 0.0986388113	 0.125027
H	 3.6711604318	 3.1052130865	 0.0783105437	 0.108342
H	 3.8342760755	 3.1424760227	 1.901988609	 0.118097
78.8617	90.8319	164.5472	237.5954	316.4139	379.1792	433.4134	519.9983	532.1433	659.0673	691.1976	713.3918	785.4263	812.5543	890.2388	892.5311	910.8221	920.8597	995.0535	1044.866	1058.7559	1080.8567	1111.6775	1115.8143	1137.4025	1171.1898	1185.377	1206.8332	1269.0065	1313.2114	1323.1031	1379.6674	1409.7183	1493.0348	1519.805	1673.5675	1841.8263	2906.7352	3095.5565	3117.3473	3183.395	3204.344	3233.2488	3261.329	3663.9649
O=C1NC=CC1N1CC1	O=C1NC=C[C@H]1N1CC1	
InChI=1S/C6H8N2O/c9-6-5(1-2-7-6)8-3-4-8/h1-2,5H,3-4H2,(H,7,9)	InChI=1S/C6H8N2O/c9-6-5(1-2-7-6)8-3-4-8/h1-2,5H,3-4H2,(H,7,9)/t5-/m1/s1
