14
gdb 27222	3.56887	1.62187	1.12183	3.1491	71.05	-0.1905	-0.0065	0.184	996.4943	0.104227	-432.890482	-432.883466	-432.882522	-432.921705	27.161	
N	-0.0110450409	 1.4440037373	 0.0253069641	-0.604874
C	-0.0954846914	 0.0543437483	-0.0033234326	 0.166926
C	-1.1351730443	-0.8217669908	 0.0198728516	 0.279614
N	-2.5074667009	-0.9779885284	 0.0736715001	-0.449399
C	-2.7296986302	-2.3462995041	 0.0512502226	 0.011319
N	-1.657850348	-3.0853775718	-0.0106403414	-0.351506
C	-0.6199863048	-2.1558487174	-0.0325146156	 0.228642
C	 0.7398355665	-2.0378307942	-0.0866404274	-0.13602
O	 1.0614378021	-0.7127453114	-0.0694325357	-0.17637
H	 0.4990362923	 1.7878220286	 0.8335439742	 0.245893
H	 0.431243408	 1.8256870816	-0.8055561765	 0.245894
H	-3.2078264854	-0.259758834	 0.1192716298	 0.269677
H	-3.7399976815	-2.7331713864	 0.0845204785	 0.133102
H	 1.5637314084	-2.7283855471	-0.1370991117	 0.137103
159.9701	194.2472	285.4759	285.6073	315.3354	390.3213	556.9674	592.9917	615.4383	637.2137	698.1085	704.8183	769.4413	779.3227	833.6161	883.2899	945.4276	1027.5452	1074.5631	1114.1056	1151.5687	1213.2324	1251.0491	1298.0761	1350.4351	1389.7829	1418.6338	1546.7026	1607.6672	1658.5107	1761.9566	3229.9047	3285.322	3485.1831	3547.184	3691.1929
NC1=C2NC=NC2=CO1	Nc1c2[nH]cnc2co1	
InChI=1S/C5H5N3O/c6-5-4-3(1-9-5)7-2-8-4/h1-2H,6H2,(H,7,8)	InChI=1S/C5H5N3O/c6-5-4-3(1-9-5)7-2-8-4/h1-2H,6H2,(H,7,8)
