16
gdb 32547	3.13179	1.45084	1.01718	7.05	77.73	-0.1982	-0.0142	0.1839	1126.9367	0.126747	-434.112477	-434.104379	-434.103435	-434.145401	30.049	
C	 0.114471812	 1.4101604025	 0.2374673202	-0.338773
N	-0.0746835053	 0.0772380195	-0.3380738167	-0.362505
C	-1.2342851205	-0.6550562381	-0.1386362419	 0.177027
C	-1.1945196422	-1.9944339368	 0.103288659	-0.100496
N	-2.3646040904	-2.7258237874	 0.1668019486	-0.287068
C	-3.5550783289	-2.097117748	 0.0360380556	 0.092458
N	-3.6933796796	-0.8298732192	-0.1649300435	-0.312381
C	-2.5688567165	-0.0057704216	-0.2922616176	 0.352989
O	-2.6920338389	 1.1843717314	-0.5293339705	-0.370632
H	 1.0298679407	 1.8358910089	-0.1820680674	 0.116166
H	-0.7339589151	 2.0345676577	-0.0326128579	 0.19009
H	 0.2104180442	 1.3921464308	 1.3340691764	 0.102207
H	 0.7556213058	-0.4946929152	-0.2551571738	 0.225998
H	-0.2745583923	-2.5528349954	 0.2287395013	 0.115413
H	-2.3300636824	-3.7201761261	 0.3220158741	 0.269712
H	-4.4320578407	-2.7381178731	 0.1074025542	 0.129794
82.6622	103.4938	157.6099	258.8349	308.7241	363.8504	441.1758	473.2351	501.1386	544.8007	589.3355	603.7584	684.8375	733.7691	817.2035	820.9962	934.0594	942.0874	1026.663	1091.4792	1097.5438	1152.715	1175.495	1245.1871	1309.3677	1373.4643	1418.6416	1445.6084	1492.3373	1511.0813	1530.8189	1546.5753	1632.4233	1672.4413	1744.2615	2983.7621	3090.4091	3147.6487	3182.0272	3197.48	3560.1598	3646.3933
CNC1=CNC=NC1=O	CNc1c[nH]cnc1=O	
InChI=1S/C5H7N3O/c1-6-4-2-7-3-8-5(4)9/h2-3,6H,1H3,(H,7,8,9)	InChI=1S/C5H7N3O/c1-6-4-2-7-3-8-5(4)9/h2-3,6H,1H3,(H,7,8,9)
