21
gdb 108199	3.0015	1.4431	1.27659	1.7514	76.62	-0.248	0.0766	0.3246	1099.0341	0.184503	-424.247484	-424.239421	-424.238477	-424.280013	31.855	
C	 0.0846948746	 1.5377100312	 0.1015511562	-0.391396
C	 0.0018205081	 0.0181414667	-0.0812138313	-0.281201
C	 0.6587461576	-0.5116108214	-1.342028763	 0.37273
C	 0.7681167169	-2.0551790315	-1.4624994467	-0.264263
C	 1.9741070882	-2.2020933612	-2.4364337104	-0.238791
C	 2.2966324401	-0.716183621	-2.6778473372	 0.184145
O	 1.3081675489	-0.1679824303	-3.5493297507	-0.276511
C	 0.1616172173	 0.0240862267	-2.7073926453	-0.115055
O	 2.0488021878	-0.1154349295	-1.4254217869	-0.280418
H	 1.1227396532	 1.8746225797	 0.0469837868	 0.140998
H	-0.484391255	 2.0757291996	-0.6624700154	 0.117967
H	-0.3205220897	 1.82646419	 1.0757394533	 0.112382
H	 0.4787356796	-0.4772334465	 0.7729348458	 0.108333
H	-1.0454871372	-0.3098224042	-0.0788599103	 0.102326
H	 0.9833588874	-2.4927658073	-0.4845174759	 0.103173
H	-0.1513498397	-2.5079151598	-1.84176699	 0.102048
H	 2.8178016472	-2.7165409162	-1.9692869067	 0.104894
H	 1.7274457203	-2.7111318536	-3.3698520677	 0.110664
H	 3.2897475767	-0.4650958131	-3.0497828952	 0.087856
H	-0.6963682164	-0.5379636746	-3.0936765023	 0.097612
H	-0.0916223859	 1.0890812164	-2.6773403171	 0.102508
87.3862	145.5931	187.1545	240.2473	294.2633	367.0567	390.1259	436.9223	581.3007	608.6144	653.2361	766.1455	792.0855	832.3914	838.3015	873.7279	926.7299	933.326	951.4847	967.9394	994.4041	1009.4654	1049.1834	1062.7597	1102.6149	1128.1145	1158.9673	1186.8565	1210.9158	1218.4462	1245.081	1280.2453	1306.4905	1316.3798	1335.1757	1350.9496	1382.7293	1396.5122	1412.4696	1475.3215	1480.6328	1498.7184	1499.5701	1508.8511	1528.2825	3026.8615	3030.2115	3046.5091	3060.3149	3061.8332	3071.1476	3072.6561	3105.4808	3110.5252	3127.6496	3129.2962	3131.6858
CCC12CCC(OC1)O2	CC[C@@]12CC[C@@H](OC1)O2	
InChI=1S/C7H12O2/c1-2-7-4-3-6(9-7)8-5-7/h6H,2-5H2,1H3	InChI=1S/C7H12O2/c1-2-7-4-3-6(9-7)8-5-7/h6H,2-5H2,1H3/t6-,7+/m0/s1
