21
gdb 58636	2.48903	1.32287	1.06463	2.4275	77.89	-0.2559	0.0829	0.3388	1235.8485	0.180202	-424.184677	-424.174971	-424.174027	-424.220083	35.773	
C	 0.0412276101	 1.4030515418	-0.3273661057	-0.410974
C	-0.1268731264	-0.0855642189	-0.0017045623	-0.041364
C	 0.7610072788	-0.4951189064	 1.1858262244	-0.399787
C	-1.5830590169	-0.4936047243	 0.2316822675	 0.381517
C	-2.5596860427	 0.3857405623	 0.8949942968	-0.227589
O	-2.5717416537	 0.2160311079	-0.5254744492	-0.273225
C	-1.8161164632	-1.9797110943	 0.3188249369	-0.007461
C	-2.9144584323	-2.6316611656	-0.4010895618	-0.167745
O	-1.5679876814	-2.7228492846	-0.8780446669	-0.241157
H	 1.0651898233	 1.5963230726	-0.6611357398	 0.112921
H	-0.6463318442	 1.7150350597	-1.115734299	 0.137699
H	-0.1351089483	 2.0323054756	 0.5524916518	 0.108968
H	 0.1946786846	-0.6613426791	-0.8796811474	 0.102995
H	 0.4438738769	 0.0093052124	 2.106002683	 0.112585
H	 0.7423446352	-1.5734431139	 1.3670479029	 0.121803
H	 1.8009663766	-0.2133770652	 0.9947709079	 0.118504
H	-3.4059167775	-0.0544868619	 1.4213619737	 0.111035
H	-2.2609329758	 1.3722151769	 1.2425348783	 0.117122
H	-1.4342113153	-2.4571725055	 1.2221018429	 0.098869
H	-3.3343167197	-3.5586313242	-0.0127635545	 0.110502
H	-3.5777196381	-2.0172098553	-1.0035615694	 0.134782
26.4055	67.6009	183.1254	197.8268	218.7639	243.4373	287.6828	300.2798	341.8917	426.6433	460.2639	480.3721	608.8054	673.7073	824.9597	860.5918	874.8937	910.8538	931.1797	939.7651	953.0522	971.5925	1033.612	1093.0819	1118.0504	1121.3899	1136.9913	1158.6512	1166.6356	1172.5287	1185.2199	1234.0368	1290.9899	1347.858	1364.8379	1387.8821	1400.5706	1421.1031	1439.9324	1489.2479	1491.8086	1504.3722	1514.5035	1519.3685	1530.5334	3022.9543	3031.6842	3038.6006	3087.8739	3091.6384	3095.776	3101.103	3102.2448	3113.4728	3135.4933	3176.4305	3195.4869
CC(C)C1(CO1)C1CO1	CC(C)[C@]1(CO1)[C@H]1CO1	
InChI=1S/C7H12O2/c1-5(2)7(4-9-7)6-3-8-6/h5-6H,3-4H2,1-2H3	InChI=1S/C7H12O2/c1-5(2)7(4-9-7)6-3-8-6/h5-6H,3-4H2,1-2H3/t6-,7-/m1/s1
