20
gdb 70582	2.56225	1.72996	1.36065	1.1872	77.78	-0.2262	0.0723	0.2984	1031.3882	0.172242	-403.116341	-403.108555	-403.107611	-403.148105	31.525	
C	-0.14137103	 1.4879862856	 0.089884738	-0.484415
C	 0.0649491649	-0.0045381899	-0.018867521	 0.409748
O	-0.2363918722	-0.7434551631	 1.1770621853	-0.292441
C	 1.1312229386	-0.6804509649	 0.7503178712	-0.021578
C	 1.7340527817	-1.9716873153	 0.2270565059	-0.263759
C	 1.6892986388	-2.0520566121	-1.3155067326	-0.147623
N	 0.4445841917	-1.6639814179	-1.9734640406	-0.098324
C	-0.8343119296	-2.0372154429	-1.3811550115	-0.258425
C	-0.3686742466	-0.6207424357	-1.3292004464	-0.075881
H	 0.4051230759	 2.0158985965	-0.6989940045	 0.125136
H	-1.2031630313	 1.7383632211	-0.0132570541	 0.129349
H	 0.2024097877	 1.8526014807	 1.0606617732	 0.127306
H	 1.7620095519	-0.0704947462	 1.3973210337	 0.087805
H	 2.7780491392	-2.0556621179	 0.5459035168	 0.103563
H	 1.2009722027	-2.8138842108	 0.6803163666	 0.121653
H	 2.4679408322	-1.3963769701	-1.7250537405	 0.106126
H	 1.9317257393	-3.0701147794	-1.6383404246	 0.109435
H	-1.6051403326	-2.3278155462	-2.0899842824	 0.112724
H	-0.8556198028	-2.5677482043	-0.433832173	 0.128166
H	-0.7921430796	 0.0937085228	-2.0320704095	 0.081434
136.6806	194.7351	233.9354	276.4859	314.3637	345.0631	446.7872	477.9321	502.5356	534.5727	622.4262	705.1024	740.4407	784.4597	864.6831	877.7998	914.2009	931.6705	974.1063	1006.4048	1031.0893	1064.9372	1087.3939	1093.7847	1114.5521	1130.8952	1132.9986	1167.809	1224.8509	1236.1742	1276.5718	1323.8971	1333.789	1364.2869	1384.0826	1405.9055	1411.35	1456.6738	1474.5244	1485.5255	1489.7136	1497.5279	1511.5838	3025.8541	3033.586	3045.0253	3070.9109	3086.446	3096.1914	3105.301	3110.1549	3121.7805	3126.4589	3199.5166
CC12OC1CCN1CC21	C[C@]12O[C@H]1CCN1C[C@@H]21	
InChI=1S/C7H11NO/c1-7-5-4-8(5)3-2-6(7)9-7/h5-6H,2-4H2,1H3	InChI=1S/C7H11NO/c1-7-5-4-8(5)3-2-6(7)9-7/h5-6H,2-4H2,1H3/t5-,6-,7+,8?/m0/s1
