21
gdb 83997	2.15376	1.66766	1.40708	1.887	77.72	-0.2296	0.0812	0.3108	1071.4276	0.183577	-424.215983	-424.207488	-424.206543	-424.248435	33.833	
C	-0.0567877044	 1.4959805054	 0.0132897997	-0.461141
C	 0.0169214821	-0.0175962521	-0.0533119632	 0.235568
C	-1.2206699247	-0.6880152927	-0.6414370658	-0.258831
C	-1.4280339277	-2.1459451842	-0.1906548501	-0.223133
C	-1.0158835394	-2.3187287753	 1.267306216	-0.069023
O	 0.3717431405	-2.0243313544	 1.4414254709	-0.267544
C	 0.7305593996	-0.7138061424	 1.0931891032	-0.020895
C	 1.4019636454	-0.6064048798	-0.2590378038	 0.066921
O	 1.5802007007	-1.7894174888	-0.9744586035	-0.434129
H	 0.8610245341	 1.9276160059	 0.4255902064	 0.114977
H	-0.2007301658	 1.9221110599	-0.9866114932	 0.12097
H	-0.8912465829	 1.8260218969	 0.6432588863	 0.114547
H	-2.0899865941	-0.09964479	-0.3193806287	 0.096128
H	-1.1945409817	-0.6282166627	-1.7354600353	 0.109128
H	-2.4790287038	-2.4302550878	-0.3134764409	 0.095965
H	-0.8322211657	-2.8243827568	-0.8076501043	 0.114769
H	-1.6191771834	-1.6717050617	 1.9229395213	 0.093258
H	-1.1390856219	-3.352365411	 1.6021979648	 0.108543
H	 1.0877657778	-0.1322427082	 1.9409161503	 0.087665
H	 2.2269719242	 0.0928078446	-0.379167765	 0.087141
H	 1.4798380911	-2.5032800249	-0.3278569849	 0.289114
136.7995	173.4961	207.8344	241.0164	262.793	315.8405	346.804	428.6671	453.2488	479.3797	517.7191	586.4163	629.8297	712.0104	821.3186	835.3368	887.5862	889.6488	924.0266	976.0142	1017.2479	1030.9823	1062.74	1076.3164	1096.3138	1142.7048	1161.257	1163.9702	1206.5704	1243.4391	1265.7812	1302.8744	1323.8223	1338.0891	1361.0853	1376.9439	1386.7742	1411.7549	1415.5153	1442.7263	1479.4824	1490.8535	1494.8283	1501.743	1504.4041	2988.6823	3014.9064	3020.6517	3046.9963	3058.587	3082.04	3089.2618	3093.7721	3101.5956	3113.7998	3125.8841	3721.0024
CC12CCCOC1C2O	C[C@]12CCCO[C@H]1[C@H]2O	
InChI=1S/C7H12O2/c1-7-3-2-4-9-6(7)5(7)8/h5-6,8H,2-4H2,1H3	InChI=1S/C7H12O2/c1-7-3-2-4-9-6(7)5(7)8/h5-6,8H,2-4H2,1H3/t5-,6+,7-/m1/s1
