20
gdb 96913	4.44009	0.88997	0.84863	2.3009	84.11	-0.2357	0.0334	0.2691	1465.9395	0.169129	-403.134101	-403.124611	-403.123666	-403.168762	34.676	
C	 0.4823040951	 1.5188187586	 0.1609438758	-0.33958
N	 0.4779024786	 0.0626636754	 0.1852740964	-0.328912
C	 0.4571578004	-0.5644269886	-0.8947370763	 0.454318
C	 0.4486530408	-2.02744679	-1.2883853895	-0.466225
C	 0.4255222174	-1.4637498298	-2.7057848871	 0.443921
C	 1.1747488606	-1.8405468232	-3.9362444576	-0.362134
C	-0.3540039953	-1.8433643834	-3.9163010967	-0.074044
C	-1.1314258203	-3.1390146191	-3.9745465493	-0.408354
O	 0.4348592477	-0.1037417528	-2.2090912322	-0.284824
H	 1.3762026823	 1.8822441314	 0.679915747	 0.126492
H	 0.4603106244	 1.9514915027	-0.8461429852	 0.125059
H	-0.3835156206	 1.8885406737	 0.7213540259	 0.126208
H	 1.3451081986	-2.5825799943	-1.0052191355	 0.136095
H	-0.4399317497	-2.5800997508	-0.9758641075	 0.136141
H	 1.6722376903	-1.0459305119	-4.4814654192	 0.128402
H	 1.6924484694	-2.7953406812	-3.9476198514	 0.11705
H	-0.8116131127	-1.0031315108	-4.4326159077	 0.103501
H	-0.6276388811	-3.9291970199	-3.4077192775	 0.11776
H	-2.1375964197	-3.0200499587	-3.5581179136	 0.124331
H	-1.2351265163	-3.4894161773	-5.0069538386	 0.124795
68.7837	74.8562	141.3984	177.6994	207.2782	223.4659	243.0308	358.2569	416.5425	458.2278	485.7194	561.8169	574.909	772.3177	791.4494	862.7315	891.7371	898.8859	961.1598	995.574	1016.5107	1045.567	1053.3189	1082.2188	1106.0779	1123.5149	1134.6165	1156.9685	1168.3265	1182.2584	1219.4841	1254.7739	1340.1954	1412.5176	1425.2155	1440.4701	1466.687	1490.9338	1493.8793	1494.699	1497.9388	1511.0065	1854.0358	3016.5325	3029.5755	3077.8433	3081.8162	3086.3118	3094.723	3096.6607	3125.7301	3129.9972	3145.9385	3217.0457
CN=C1CC2(CC2C)O1	CN=C1C[C@]2(C[C@H]2C)O1	
InChI=1S/C7H11NO/c1-5-3-7(5)4-6(8-2)9-7/h5H,3-4H2,1-2H3	InChI=1S/C7H11NO/c1-5-3-7(5)4-6(8-2)9-7/h5H,3-4H2,1-2H3/t5-,7+/m1/s1
