17
gdb 30824	2.3431	1.3775	0.91505	1.5902	72.37	-0.1857	0.0365	0.2222	1265.8304	0.136333	-455.189109	-455.180086	-455.179142	-455.22322	33.018	
C	-0.3212341051	 1.6080631276	-0.1655170883	-0.367902
C	 0.0656552712	 0.1285286822	 0.0123537405	-0.304274
C	 0.8500111401	-0.436414627	-1.1136485886	 0.279121
C	 2.0980428735	-0.9433596616	-1.2882519654	 0.166299
N	 3.1231613242	-1.1614499933	-0.3699247969	-0.599466
N	 2.2753387356	-1.3465199279	-2.6137776212	-0.426852
C	 1.1362696935	-1.0637739866	-3.1589935879	 0.469487
O	 0.7682463441	-1.2470929066	-4.4262405039	-0.401822
O	 0.2161978233	-0.5213161814	-2.3701374689	-0.212092
H	 0.5689555009	 2.238737672	-0.252551554	 0.114297
H	-0.9166678922	 1.7437374376	-1.0728654804	 0.132217
H	-0.9127433077	 1.9617593406	 0.6848254116	 0.110581
H	 0.6613303236	 0.0042453175	 0.9244113747	 0.106002
H	-0.8465801246	-0.4639800537	 0.1697104285	 0.116513
H	 3.1515769581	-0.4838023231	 0.379347678	 0.245396
H	 4.0208544391	-1.2164237177	-0.8327304736	 0.252522
H	 1.5215303426	-1.6506466786	-4.875621554	 0.319973
52.6421	116.3898	187.198	193.5214	244.2526	279.4172	292.5364	341.2731	426.6099	446.5534	554.2721	619.2147	644.568	675.3837	734.3281	763.0793	776.309	821.1296	964.5575	1023.7237	1039.1677	1083.3625	1098.0843	1172.9395	1217.6932	1261.5147	1300.6597	1360.6136	1403.6609	1413.6768	1470.5132	1495.394	1506.4428	1511.7213	1634.7297	1657.9903	1722.0059	3006.8371	3037.7936	3057.9553	3108.5169	3117.6389	3549.9698	3646.3322	3810.9829
CCC1=C(N)N=C(O)O1	CCc1c(N)nc(O)o1	
InChI=1S/C5H8N2O2/c1-2-3-4(6)7-5(8)9-3/h2,6H2,1H3,(H,7,8)	InChI=1S/C5H8N2O2/c1-2-3-4(6)7-5(8)9-3/h2,6H2,1H3,(H,7,8)
