19
gdb 34658	3.30846	1.13415	0.89768	1.1506	87.3	-0.2287	-0.0259	0.2029	1297.4319	0.159611	-385.861199	-385.852646	-385.851702	-385.894541	32.831	
C	-0.0181031442	-1.2220406385	-0.2584211104	-0.429166
C	-0.0459898858	-0.0253072776	-0.1154251657	 0.238985
C	-0.0191974985	 1.3888966653	 0.058251205	 0.134869
C	-1.1664687253	 2.0888349655	 0.0253729718	-0.140966
C	-1.2997234923	 3.5866940132	 0.1720381931	-0.136826
O	-0.6933544373	 4.1499998487	 1.3204011955	-0.232387
C	 0.710268962	 4.3026708017	 1.2458199689	-0.065889
C	 1.4913221958	 2.9986867591	 1.4121030062	-0.195963
C	 1.3598613088	 2.0123590943	 0.2422493904	-0.306297
H	-0.0121423333	-2.2759771226	-0.3862194898	 0.194756
H	-2.0902418178	 1.5420731042	-0.1411554929	 0.098669
H	-0.9129057907	 4.0857305548	-0.7358481923	 0.098548
H	-2.360567565	 3.8422427482	 0.2479184382	 0.113574
H	 0.9878470561	 4.786802994	 0.2926382149	 0.081286
H	 0.9726719811	 4.9933577942	 2.0540337996	 0.106074
H	 2.5515156538	 3.2583403176	 1.527001768	 0.095859
H	 1.1751348325	 2.5155430424	 2.3433090853	 0.113434
H	 2.0865915215	 1.2064989038	 0.3714848009	 0.116565
H	 1.6388066687	 2.5231696817	-0.6913922567	 0.114875
56.9669	145.507	166.721	219.4297	305.2064	348.4547	386.0152	402.2192	490.2501	535.9292	574.4925	604.3053	631.0466	635.7532	733.8293	835.5437	865.489	889.5488	916.2271	954.7918	1028.7178	1049.027	1070.6823	1107.0979	1130.8665	1188.9565	1220.7438	1276.9982	1284.7471	1335.4226	1342.8044	1376.6471	1393.3472	1400.1084	1422.8924	1470.8302	1478.4502	1479.9058	1496.5848	1685.8114	2214.2028	2933.0855	2951.8596	3003.7076	3026.3655	3069.8162	3078.2978	3080.2425	3092.6904	3168.7938	3503.5604
C#CC1=CCOCCC1	C#CC1=CCOCCC1	
InChI=1S/C8H10O/c1-2-8-4-3-6-9-7-5-8/h1,5H,3-4,6-7H2	InChI=1S/C8H10O/c1-2-8-4-3-6-9-7-5-8/h1,5H,3-4,6-7H2
