18
gdb 17330	3.48216	2.14747	1.78733	1.4909	70.18	-0.2285	0.0896	0.3181	818.6382	0.154567	-347.772042	-347.765196	-347.764252	-347.802507	27.962	
C	-0.0253071571	 1.5227548079	 0.0044792848	-0.488889
C	 0.0288094729	 0.0128590614	 0.0008884486	 0.321798
C	-0.6020745175	-0.7788511582	 1.1351076155	-0.375155
C	 0.8945120932	-0.7932630486	 0.9396702309	 0.068545
O	 1.4852165841	-1.8709908538	 0.2531361628	-0.260232
C	 1.1675120515	-1.8002844803	-1.1167060448	 0.109541
C	-0.239480636	-2.1093707793	-1.5549449925	-0.33437
C	 0.1970742307	-0.6701638539	-1.3472951816	-0.133969
H	 0.8008865915	 1.9510384781	-0.5747859501	 0.119183
H	-0.9632014072	 1.8888061165	-0.4290989868	 0.121456
H	 0.0422579241	 1.9177482211	 1.0227504086	 0.116136
H	-0.9755355397	-0.2021167336	 1.9761725765	 0.107894
H	-1.1700353054	-1.6777505618	 0.9302919983	 0.116215
H	 1.5518671686	-0.3616622461	 1.6882052733	 0.0955
H	 2.0114390026	-2.0336972698	-1.7573312839	 0.097427
H	-0.3681014978	-2.4308971978	-2.5837084887	 0.111182
H	-0.920358085	-2.5790396283	-0.8561697544	 0.120106
H	 0.2710776165	-0.0205200135	-2.2115957964	 0.087633
191.1403	212.1706	259.8571	307.0699	351.1511	478.2289	491.669	593.2503	704.8377	709.3786	780.6386	820.032	831.8149	849.182	930.4273	968.0977	972.8925	989.8069	1014.7786	1031.2115	1038.8369	1065.1161	1092.3925	1106.9064	1113.3044	1130.5953	1173.8006	1206.9441	1239.5533	1290.9337	1328.18	1378.0164	1403.384	1419.2566	1471.296	1489.8857	1495.1082	1501.6843	3023.1419	3082.9313	3099.7784	3129.9862	3136.637	3154.8657	3162.7132	3176.5917	3219.9196	3227.8297
CC12CC1OC1CC21	C[C@]12C[C@H]1O[C@H]1C[C@@H]21	
InChI=1S/C7H10O/c1-7-3-6(7)8-5-2-4(5)7/h4-6H,2-3H2,1H3	InChI=1S/C7H10O/c1-7-3-6(7)8-5-2-4(5)7/h4-6H,2-3H2,1H3/t4-,5+,6-,7-/m1/s1
