15
gdb 129485	4.4319	1.10959	0.88839	2.4357	71.41	-0.2077	-0.0143	0.1935	1229.2259	0.114431	-450.183336	-450.174832	-450.173888	-450.216982	30.904	
N	-0.1195972586	 1.3268564969	 0.0311767876	-0.569911
C	 0.068914742	-0.010980841	 0.0076551102	 0.515185
O	 1.1306319295	-0.5933868794	-0.0017196015	-0.38357
N	-1.1560860785	-0.7346479264	-0.0042959522	-0.039242
C	-1.271863241	-2.1017722663	-0.0223208427	-0.078201
C	-2.6197797569	-2.37810049	-0.0255697683	 0.141429
N	-3.2635627825	-3.6177315885	-0.1186812805	-0.605811
C	-3.2434549894	-1.0983082973	-0.0070076206	-0.027053
N	-2.3572875155	-0.1150704365	 0.0098830494	-0.274278
H	 0.6905312999	 1.9189957854	 0.0332222511	 0.27176
H	-1.053774821	 1.701945017	 0.0305629653	 0.28338
H	-0.3936165476	-2.7236389794	-0.0342318781	 0.154044
H	-2.6850953519	-4.3902664151	 0.1831693844	 0.248838
H	-4.1434909872	-3.6433595032	 0.3794426889	 0.247902
H	-4.3012953012	-0.8750765563	-0.0060979029	 0.115527
49.4896	120.8704	186.4795	188.9763	200.183	335.0836	367.5245	417.0668	547.3926	591.5472	617.7311	636.0463	669.7268	720.9274	751.7629	765.675	797.9803	869.2391	987.02	1019.0923	1093.0489	1100.6852	1152.9444	1231.3383	1323.6031	1338.9832	1420.6032	1446.4371	1476.9707	1587.4425	1640.5288	1666.0052	1835.7543	3234.2255	3293.6914	3544.7141	3608.3025	3633.9734	3760.4416
NC(=O)N1C=C(N)C=N1	NC(=O)n1cc(N)cn1	
InChI=1S/C4H6N4O/c5-3-1-7-8(2-3)4(6)9/h1-2H,5H2,(H2,6,9)	InChI=1S/C4H6N4O/c5-3-1-7-8(2-3)4(6)9/h1-2H,5H2,(H2,6,9)
