20
gdb 18701	3.15437	2.11888	1.47528	0.304	79.72	-0.2345	0.0291	0.2636	921.3197	0.179223	-311.878203	-311.870842	-311.869898	-311.909455	29.542	
C	-0.944129978	 1.1686879673	 0.0731104525	-0.386257
C	 0.0722448872	 0.0172019577	-0.022718795	-0.042742
C	 0.9949020537	 0.1916782913	-1.2037751041	-0.042747
C	 2.2859064951	-0.1368050321	-1.2162159925	-0.077497
C	 3.0162807849	-0.735095679	-0.0447690809	-0.273258
C	 2.2914617946	-0.5540044723	 1.2777126685	-0.035517
C	 1.8739469681	 0.8273624218	 1.7200955231	-0.28817
C	 0.8298205446	-0.1745125734	 1.2849597838	-0.01365
H	-0.4377127328	 2.124060176	 0.2442994101	 0.118906
H	-1.528225542	 1.2555932554	-0.8495350056	 0.107289
H	-1.6433798538	 1.0059607162	 0.8997915006	 0.108568
H	-0.5057515408	-0.9047635443	-0.1983964934	 0.082715
H	 0.5409377533	 0.6019316521	-2.1040374265	 0.078171
H	 2.8647502557	 0.0078923517	-2.1255391981	 0.082296
H	 3.1657892036	-1.8092944944	-0.2317967313	 0.109148
H	 4.0281865662	-0.3103998363	 0.0176831584	 0.102701
H	 2.6199309872	-1.2273810004	 2.0641669502	 0.077127
H	 1.9427577235	 1.0772442053	 2.7731168493	 0.103834
H	 2.0909256852	 1.6521824196	 1.0487085818	 0.113626
H	 0.2249637144	-0.599518112	 2.081658829	 0.075456
95.5995	222.0628	241.142	292.6909	322.3381	380.2426	473.1071	525.898	586.7006	707.0565	746.1889	764.9841	824.1093	846.7136	881.0673	927.4893	939.664	995.5891	1009.6794	1032.4546	1045.4777	1067.0858	1079.0596	1101.8878	1126.495	1140.2381	1166.2437	1209.9614	1230.5438	1240.8309	1322.3965	1346.5173	1358.4771	1368.9835	1401.5598	1416.6242	1429.9851	1477.9001	1490.4904	1496.5	1498.7433	1724.4213	2964.7646	2992.1475	3015.8086	3029.1164	3097.1533	3104.3483	3128.1902	3132.1056	3133.3996	3145.4459	3158.9752	3213.3362
CC1C=CCC2CC12	C[C@H]1C=CC[C@H]2C[C@@H]12	
InChI=1S/C8H12/c1-6-3-2-4-7-5-8(6)7/h2-3,6-8H,4-5H2,1H3	InChI=1S/C8H12/c1-6-3-2-4-7-5-8(6)7/h2-3,6-8H,4-5H2,1H3/t6-,7-,8-/m0/s1
