21
gdb 72415	2.70137	1.55884	1.30035	3.0377	81.28	-0.2301	-0.0073	0.2229	1072.3895	0.184458	-387.143822	-387.135958	-387.135013	-387.175738	32.158	
C	-0.022567558	 1.4958191467	-0.0078762439	-0.477327
C	-0.0030142285	-0.024268113	 0.0017938809	 0.316445
C	 0.7402408468	-0.6712167117	-1.1978602258	-0.235001
C	 1.0440926799	-2.1219785191	-0.7124538318	-0.230586
C	 0.4513667104	-2.1523068319	 0.7281336156	-0.117673
C	 0.7171677533	-0.707407091	 1.1962190702	-0.261568
C	-1.0637633543	-2.1281852449	 0.5351468526	 0.421405
O	-1.8391860448	-3.0366100536	 0.6813489391	-0.333161
C	-1.3963817574	-0.6918430346	 0.0922723193	-0.358045
H	 0.9950398501	 1.902407213	-0.008955755	 0.112736
H	-0.5344792887	 1.8815006638	-0.8967169864	 0.116163
H	-0.5418321151	 1.8939781397	 0.8709149318	 0.11324
H	 0.1359008022	-0.6480046456	-2.1097448515	 0.099257
H	 1.6647740821	-0.1254342507	-1.4105717164	 0.096901
H	 0.6076607031	-2.8920471432	-1.3538184939	 0.11486
H	 2.1206885166	-2.3089758008	-0.6670257974	 0.107116
H	 0.7978631928	-2.9786649017	 1.3472347782	 0.077889
H	 1.7836294821	-0.4639415208	 1.2420838738	 0.096586
H	 0.2609196275	-0.469514641	 2.1629230497	 0.09867
H	-2.0169976581	-0.2187312321	 0.8636544544	 0.122078
H	-1.970818282	-0.6841920877	-0.8390865135	 0.120013
108.9739	218.0041	228.286	270.3678	295.2746	388.753	434.8319	472.6313	510.2946	567.497	605.2759	688.1724	782.0915	803.0055	829.5447	888.9577	893.8458	920.8246	924.5168	950.5124	968.7309	1002.7497	1024.351	1073.8287	1087.0513	1120.1365	1142.3011	1186.7246	1192.95	1216.6354	1257.1003	1262.3516	1271.0252	1291.4942	1306.3466	1328.2959	1354.7626	1415.832	1447.9205	1490.4527	1493.5384	1495.2016	1498.1469	1517.4625	1853.5186	3023.0819	3035.4443	3041.9392	3046.4522	3059.7543	3081.3128	3089.0275	3089.8209	3090.7298	3093.7918	3106.1842	3129.4195
CC12CCC(C1)C(=O)C2	C[C@@]12CC[C@@H](C1)C(=O)C2	
InChI=1S/C8H12O/c1-8-3-2-6(4-8)7(9)5-8/h6H,2-5H2,1H3	InChI=1S/C8H12O/c1-8-3-2-6(4-8)7(9)5-8/h6H,2-5H2,1H3/t6-,8+/m0/s1
