18
gdb 94755	3.92303	1.14981	1.03185	3.5864	77.38	-0.2738	0.025	0.2989	1184.4397	0.148645	-401.965093	-401.956983	-401.956039	-401.997596	31.03	
C	 0.0364278305	 1.5546342033	-0.0553533417	-0.402822
C	 0.0536338677	 0.0386767775	 0.0476244928	 0.124177
O	 0.7758957529	-0.487018701	-1.0709326039	-0.266385
C	 1.1988971979	-1.8024255417	-0.7581702151	-0.152523
C	 1.4945324155	-1.7769069854	 0.7449117686	 0.178124
C	 2.2606376347	-0.5576418236	 1.2298670222	-0.322979
C	 0.7616372026	-0.5463839353	 1.2644447742	-0.104761
C	 1.5483414692	-3.0107393027	 1.467715241	 0.193383
N	 1.5934196494	-4.0176180578	 2.0365379607	-0.343273
H	 1.0508288587	 1.9592170185	-0.0022153588	 0.126335
H	-0.4100884295	 1.8618365138	-1.0047417581	 0.134171
H	-0.554912916	 1.9843326769	 0.7586085618	 0.121926
H	-0.9806537763	-0.344383083	 0.0354848731	 0.080029
H	 0.41485184	-2.5465852553	-0.9647510641	 0.113129
H	 2.0726370183	-2.0293667097	-1.375588703	 0.125959
H	 2.7817723677	-0.6540373569	 2.1744329885	 0.13947
H	 2.7716294218	 0.0271033932	 0.472356751	 0.139326
H	 0.2445694448	-0.5746149807	 2.215553581	 0.116712
114.443	146.8953	188.11	221.8847	270.0714	331.9258	373.4737	460.1405	545.1732	553.4703	581.0832	648.7279	728.0496	812.2227	868.6299	889.9257	939.481	976.487	1001.7822	1044.145	1063.4755	1079.9998	1094.6143	1118.7747	1129.6841	1157.9913	1235.297	1248.5417	1269.6462	1346.159	1352.1674	1385.2495	1410.4139	1415.0082	1476.1138	1486.0983	1496.5363	1516.4246	2350.7718	2962.4972	2994.5107	3047.1434	3088.702	3121.5619	3126.7068	3142.1363	3197.9896	3237.417
CC1OCC2(CC12)C#N	C[C@H]1OC[C@]2(C[C@@H]12)C#N	
InChI=1S/C7H9NO/c1-5-6-2-7(6,3-8)4-9-5/h5-6H,2,4H2,1H3	InChI=1S/C7H9NO/c1-5-6-2-7(6,3-8)4-9-5/h5-6H,2,4H2,1H3/t5-,6+,7+/m1/s1
