18
gdb 14383	3.62633	2.21412	1.87391	1.6937	69.86	-0.2276	0.083	0.3106	793.1503	0.153219	-347.739658	-347.73258	-347.731636	-347.77026	28.603	
C	 0.0414191591	 1.5320618719	 0.0172151291	-0.457216
C	 0.0341866287	 0.0072402455	-0.0137579782	 0.326068
C	-1.3696787056	-0.5613368187	 0.1952640212	-0.443573
C	 0.7820158251	-0.6949843788	-1.1616993541	-0.145174
C	 2.2485461432	-0.7611166059	-0.6979018587	 0.069656
O	 2.3515799005	-0.0919097384	 0.5606322584	-0.291128
C	 1.0827814825	-0.7221686469	 0.8944477823	 0.030669
C	 1.2872684263	-1.7980190217	-0.2371065692	-0.14748
H	 1.0613487232	 1.9151368274	-0.0457956246	 0.132998
H	-0.5370168097	 1.937612924	-0.8208958633	 0.107442
H	-0.4120022083	 1.909145511	 0.9416127169	 0.107103
H	-2.0485750325	-0.230826925	-0.5983284005	 0.114992
H	-1.3675369561	-1.6559442328	 0.198009964	 0.114499
H	-1.7884518693	-0.2186054737	 1.1486435679	 0.111851
H	 0.4945643397	-0.7738468851	-2.2035463825	 0.083426
H	 3.1111141938	-0.7950411326	-1.3499243903	 0.109038
H	 0.9357767421	-0.8680157367	 1.9637287013	 0.078494
H	 1.2657225774	-2.8773033037	-0.2819270195	 0.098333
193.5601	227.0279	239.8347	247.4851	340.2313	357.3437	543.1224	585.4989	622.7894	770.7357	776.5981	790.6525	818.1129	863.4419	883.559	932.868	951.5735	957.3083	985.4154	1017.2825	1029.0105	1042.3014	1063.5937	1077.5777	1152.2364	1165.5153	1202.7456	1228.6581	1233.3694	1250.6563	1336.5157	1367.6124	1395.8833	1418.3702	1483.2785	1485.3812	1504.0807	1509.2877	3023.624	3029.0317	3082.6477	3088.5239	3101.4147	3131.9308	3135.1002	3185.6514	3205.6405	3221.203
CC1(C)C2C3OC1C23	CC1(C)[C@H]2[C@H]3O[C@@H]1[C@@H]23	
InChI=1S/C7H10O/c1-7(2)4-3-5(4)8-6(3)7/h3-6H,1-2H3	InChI=1S/C7H10O/c1-7(2)4-3-5(4)8-6(3)7/h3-6H,1-2H3/t3-,4+,5-,6+/m0/s1
