18
gdb 113733	3.39124	0.87042	0.77806	4.2178	73.47	-0.2818	0.0002	0.282	1496.3727	0.145196	-439.068814	-439.058865	-439.057921	-439.104963	34.735	
C	-0.4192281422	 1.5120451733	 0.3558898133	-0.383232
C	 0.2317773218	 0.2247675663	-0.1661034008	-0.213758
C	 1.048414844	-0.4576746954	 0.9037791617	 0.078394
O	 0.3446574671	-1.1791465532	 1.9308681649	-0.251471
C	 1.2141742237	-1.9087170005	 1.0728467204	 0.020654
C	 0.5707206398	-2.9297506906	 0.1428962907	-0.046778
O	 1.3701694433	-3.1835849891	-0.997672552	-0.40585
C	 0.2774902859	-4.1767646122	 0.880001607	 0.258853
N	 0.0964222522	-5.1641768733	 1.451957143	-0.310162
H	 0.3358379236	 2.2226160978	 0.7088372157	 0.119927
H	-0.9995723553	 2.0029119912	-0.4301645777	 0.120577
H	-1.0909314222	 1.2934021865	 1.1911645716	 0.13795
H	-0.5419795635	-0.4498026274	-0.543842112	 0.107829
H	 0.8952550603	 0.4508858817	-1.0101054675	 0.115297
H	 1.8607681133	 0.15628235	 1.3005687666	 0.098576
H	 2.1272512223	-2.2717937197	 1.5508595578	 0.103766
H	-0.3757058889	-2.5314176357	-0.2298998338	 0.149616
H	 2.1654729448	-3.6515014796	-0.7176323488	 0.299813
29.1181	70.785	109.8675	152.0414	200.8424	230.8834	251.1629	277.0372	326.6309	403.5149	478.9353	503.6328	574.1986	618.0839	752.2596	821.4666	855.483	921.6436	959.6427	1028.018	1033.8907	1062.2304	1109.517	1113.3385	1173.1473	1179.5538	1243.2176	1282.1501	1300.7683	1304.1282	1345.8147	1402.7255	1410.4087	1417.2887	1470.9622	1493.2194	1499.2226	1509.5805	2357.0868	3037.781	3039.7979	3071.9687	3082.657	3089.4894	3103.0682	3112.8821	3120.3692	3801.9764
CCC1OC1C(O)C#N	CC[C@H]1O[C@H]1[C@@H](O)C#N	
InChI=1S/C6H9NO2/c1-2-5-6(9-5)4(8)3-7/h4-6,8H,2H2,1H3	InChI=1S/C6H9NO2/c1-2-5-6(9-5)4(8)3-7/h4-6,8H,2H2,1H3/t4-,5+,6-/m0/s1
