16
gdb 50877	5.4909	0.61947	0.56674	1.4519	74.01	-0.2687	-0.032	0.2366	1835.8879	0.120916	-437.878425	-437.868735	-437.867791	-437.914352	33.379	
N	-0.0387933375	 1.5633261458	-0.1024255983	-0.48225
C	-0.0128972618	 0.3039040656	-0.150802922	 0.403555
C	-1.2185226105	-0.5679204626	 0.048473537	-0.270005
C	-2.5210074252	 0.2260143584	 0.2387814075	-0.355294
C	-3.6697221522	-0.6513699084	 0.4255054975	 0.280168
C	-4.6007180637	-1.3956917124	 0.5783379349	-0.419279
O	 1.1053337106	-0.4813132276	-0.4330160936	-0.201336
C	 2.3109920991	-0.1458079634	 0.1130938244	 0.155861
O	 3.3195494181	-0.6911402352	-0.2035992706	-0.245583
H	 0.8589420871	 1.9973570747	-0.313293	 0.236393
H	-1.2973231522	-1.2399667337	-0.8137445435	 0.151775
H	-1.0358083233	-1.2216174858	 0.9097579322	 0.143611
H	-2.4139050472	 0.8989625516	 1.0961913961	 0.150078
H	-2.677616578	 0.8771286391	-0.6281561622	 0.14938
H	-5.4339279387	-2.039733854	 0.7140522868	 0.197062
H	 2.2228384953	 0.6443975278	 0.8778791336	 0.105863
52.8036	65.6091	83.9214	132.0729	153.7449	228.7632	281.6122	345.1907	349.6858	488.729	536.9943	569.6537	623.0575	649.7915	702.8084	779.9254	894.8243	927.9324	973.9803	1036.4848	1040.9032	1050.204	1061.209	1126.0453	1191.325	1226.024	1303.13	1315.3554	1397.9659	1417.4073	1459.2769	1472.9594	1754.6708	1877.7523	2242.3883	2999.9145	3043.6381	3052.9537	3070.38	3090.7285	3498.1351	3506.2008
N=C(CCC#C)OC=O	[NH][C](CCC#C)OC=O	
InChI=1S/C6H7NO2/c1-2-3-4-6(7)9-5-8/h1,5,7H,3-4H2	InChI=1S/C6H7NO2/c1-2-3-4-6(7)9-5-8/h1,5,7H,3-4H2
