20
gdb 79357	2.69726	1.77221	1.57425	2.3704	76.65	-0.22	0.0694	0.2894	952.9723	0.174835	-403.143512	-403.136322	-403.135378	-403.174793	29.634	
O	-0.0476725674	 1.3640771941	 0.1100726697	-0.44616
C	-0.0297013525	-0.052549088	-0.0224333937	 0.11602
C	-1.4697773648	-0.4816313172	-0.2427636034	-0.032106
C	-1.6912910685	-0.5604708235	-1.7229293491	-0.023582
C	-0.3803044513	-0.2045338552	-2.4111140803	-0.232237
C	 0.6575891604	-0.5401675747	-1.317188638	-0.067107
C	 0.8218657022	-2.0644914161	-1.2242361616	-0.236609
C	-0.5788699338	-2.714155083	-1.0354339345	-0.146483
N	-1.6931731503	-1.7668295791	-0.8990572661	-0.111708
H	 0.8561694973	 1.6573569655	 0.2641232749	 0.279746
H	 0.4212375878	-0.5147481655	 0.8697662896	 0.058223
H	-2.223955453	-0.1542570424	 0.4667373505	 0.088452
H	-2.6375415392	-0.3032497629	-2.1905534092	 0.082827
H	-0.206262363	-0.7654047705	-3.3361949302	 0.092593
H	-0.372050547	 0.862420175	-2.6537683233	 0.111079
H	 1.623138596	-0.0496105301	-1.4741798933	 0.056627
H	 1.3059802191	-2.4441747935	-2.1303912394	 0.097652
H	 1.4798438275	-2.3183511694	-0.3850650697	 0.094472
H	-0.8220279194	-3.3601868484	-1.8852561041	 0.109594
H	-0.5927324503	-3.3542122451	-0.1473531487	 0.108706
120.8177	207.7339	284.255	312.7364	354.5775	400.5517	485.0202	534.3846	636.4854	712.9891	755.8774	805.5972	831.9397	839.9798	867.0852	908.0302	916.0141	946.8074	1000.7921	1027.0322	1034.5215	1064.4061	1078.6445	1094.8529	1105.6314	1126.8465	1179.5916	1192.9259	1226.1286	1255.4994	1280.7862	1291.8958	1297.6736	1320.7781	1331.5767	1351.4076	1356.146	1377.6214	1415.3759	1433.5344	1484.975	1489.1586	1508.0035	2976.3363	3027.5817	3040.8485	3044.1833	3059.3467	3061.9466	3085.5438	3089.2058	3142.8273	3155.3919	3813.7201
OC1C2C3CC1CCN23	O[C@H]1[C@H]2[C@H]3C[C@@H]1CCN23	
InChI=1S/C7H11NO/c9-7-4-1-2-8-5(3-4)6(7)8/h4-7,9H,1-3H2	InChI=1S/C7H11NO/c9-7-4-1-2-8-5(3-4)6(7)8/h4-7,9H,1-3H2/t4-,5+,6+,7+,8?/m0/s1
