20
gdb 16957	3.26524	2.05748	1.89658	1.6551	73.13	-0.2347	0.0807	0.3154	838.5941	0.180375	-349.022167	-349.015363	-349.014419	-349.052809	27.904	
C	-0.2050288191	 1.556738518	-0.0114928856	-0.422718
C	 0.0403316079	 0.0484722754	 0.0019776707	 0.056905
C	 0.7665467669	-0.5107470666	-1.271460908	-0.232426
C	 1.8988368117	-1.3568416367	-0.6576379358	 0.115719
C	 1.2555016904	-1.9169779732	 0.6190473094	-0.234402
C	 0.9382742218	-0.5007016967	 1.1477005397	-0.049552
C	 2.3427268816	 0.115314995	 1.0516607441	-0.075044
O	 2.8972164158	-0.4569934256	-0.1483604931	-0.28197
H	 0.7185813443	 2.1219447647	-0.1720987036	 0.1229
H	-0.8933791154	 1.8262532092	-0.8195344474	 0.115024
H	-0.6502331462	 1.8985764792	 0.9296739905	 0.109269
H	-0.9340885282	-0.4454547608	 0.0980790976	 0.068612
H	 0.097836745	-1.1093846685	-1.8983118415	 0.091334
H	 1.1888316346	 0.2852277839	-1.8911765294	 0.103687
H	 2.3904047096	-2.0574207405	-1.3337565136	 0.069078
H	 0.3634541776	-2.5214031545	 0.4344887809	 0.094159
H	 1.9611516996	-2.4768164934	 1.2381552739	 0.099411
H	 0.4925793229	-0.4295960594	 2.1417281637	 0.060702
H	 2.341636918	 1.2077768064	 0.972563103	 0.097214
H	 2.9671912711	-0.160565786	 1.9126685147	 0.092097
118.2214	228.417	296.5455	337.5324	399.8249	459.6838	491.2761	560.3603	731.0993	776.3978	805.3005	840.9716	880.1138	923.7296	933.3098	949.0011	957.7343	969.6619	992.3279	1015.2293	1057.5036	1076.6505	1090.7196	1139.2214	1150.2018	1185.7391	1212.8757	1220.5294	1261.6047	1272.6817	1302.8918	1319.7526	1329.1187	1354.0525	1376.1313	1388.5778	1411.8215	1479.6692	1494.6556	1497.5337	1500.4072	1536.6828	3005.2071	3020.6313	3030.2195	3048.445	3058.899	3061.8238	3092.4368	3098.0168	3098.5205	3105.1002	3113.2283	3117.2202
CC1CC2CC1CO2	C[C@H]1C[C@@H]2C[C@H]1CO2	
InChI=1S/C7H12O/c1-5-2-7-3-6(5)4-8-7/h5-7H,2-4H2,1H3	InChI=1S/C7H12O/c1-5-2-7-3-6(5)4-8-7/h5-7H,2-4H2,1H3/t5-,6-,7+/m0/s1
