21
gdb 40677	3.47976	1.00514	0.90993	0.186	84.06	-0.2325	0.0764	0.309	1376.7481	0.183874	-383.203151	-383.194554	-383.193609	-383.237116	32.867	
C	-0.0670908631	 1.5379037749	 0.024850068	-0.242534
N	 1.2249705725	 0.8312493951	 0.0465433923	-0.326256
C	-0.027204894	 0.0534576891	 0.0239142481	 0.013639
C	-0.3223883017	-0.7464189191	 1.2485931551	-0.08951
N	-1.5598714595	-1.5575307073	 1.2092957893	-0.403047
C	-0.266586145	-2.2281004346	 1.2740246028	 0.370856
C	 0.295143383	-3.1853085817	 0.2154996577	-0.286314
C	 1.1740696527	-3.8161801525	 1.3365587305	-0.205042
C	 0.3052707691	-3.0892746588	 2.4069833924	-0.306486
H	-0.3079711488	 2.0715338485	 0.9407737967	 0.114842
H	-0.3783224459	 2.0429932428	-0.8857986955	 0.110998
H	 1.6465149061	 0.8450304744	-0.8779649897	 0.231539
H	-0.3094390784	-0.4377218471	-0.9047115499	 0.088538
H	-0.0703561072	-0.2389976084	 2.1792928203	 0.082403
H	-2.012731477	-1.5645483925	 2.1204327572	 0.227255
H	-0.4715587104	-3.8704510129	-0.158320655	 0.106562
H	 0.8165590598	-2.7429842738	-0.6369963672	 0.098567
H	 1.2004729977	-4.9062060968	 1.3857149163	 0.099554
H	 2.1997589099	-3.4411985469	 1.317339612	 0.110314
H	 0.8268902484	-2.5737328646	 3.2178942976	 0.102868
H	-0.4522552981	-3.7514000078	 2.8409375012	 0.101254
52.3896	98.9498	137.1942	152.9118	292.2564	343.5423	367.1183	422.6106	500.7121	579.9959	712.3687	785.9531	804.9597	860.9917	867.869	883.0748	901.968	928.401	930.3302	953.0559	972.1917	983.8127	1009.2784	1047.4611	1060.4099	1112.9115	1122.4826	1136.4588	1165.8987	1195.5785	1216.1929	1243.968	1247.2875	1253.2129	1265.4511	1275.3366	1286.2098	1292.2754	1334.8455	1402.3853	1471.2185	1480.2686	1495.2003	1507.2623	1524.1274	3039.444	3055.1124	3071.761	3093.1221	3103.4106	3104.7143	3113.2478	3128.3347	3135.9875	3188.877	3490.6896	3508.4156
C1NC1C1NC11CCC1	C1N[C@H]1[C@H]1NC21CCC2	
InChI=1S/C7H12N2/c1-2-7(3-1)6(9-7)5-4-8-5/h5-6,8-9H,1-4H2	InChI=1S/C7H12N2/c1-2-7(3-1)6(9-7)5-4-8-5/h5-6,8-9H,1-4H2/t5-,6-/m1/s1
