23
gdb 115925	3.47094	1.08261	0.91712	1.1498	85.41	-0.2421	0.0786	0.3208	1361.6445	0.20772	-388.285956	-388.27714	-388.276196	-388.319504	34.318	
C	 0.003849138	 1.3480704996	 0.1593903673	-0.240703
O	-0.0881686523	-0.0401288435	-0.0515838465	-0.248203
C	 0.6320747734	-0.5216404712	-1.1778226792	 0.15671
C	 2.1356684684	-0.6570960367	-0.9090510288	-0.233786
C	 2.8736914004	-1.0742389531	-2.190964734	-0.225042
C	 2.2570793148	-2.2865651438	-2.8681411514	-0.000766
C	 1.9651011231	-3.5504131992	-2.1030831498	-0.286574
C	 0.8225661752	-2.6718173442	-2.5623888743	-0.033103
C	 0.0112672024	-1.8742733858	-1.541235844	-0.240739
H	 1.0245508691	 1.6773891607	 0.4044243806	 0.104149
H	-0.3365111361	 1.9172326975	-0.7205410853	 0.100971
H	-0.6460510209	 1.5892023237	 1.0047321889	 0.124669
H	 0.493744798	 0.1786943193	-2.0209494952	 0.056152
H	 2.548022464	 0.2904325081	-0.5475256067	 0.093294
H	 2.2860157099	-1.3905328889	-0.1073095571	 0.102312
H	 2.8467772161	-0.2320715189	-2.8958895885	 0.095414
H	 3.9334000989	-1.257284764	-1.9738113096	 0.095676
H	 2.5789224743	-2.4278077426	-3.8963767375	 0.07776
H	 2.1227241535	-4.5008764613	-2.6015068684	 0.104322
H	 2.1796596123	-3.5710924865	-1.0387132469	 0.108398
H	 0.2451913552	-3.0546031387	-3.3978879443	 0.080211
H	-0.103154606	-2.4399226722	-0.608600563	 0.109017
H	-1.0009322418	-1.7020863982	-1.9191485464	 0.099863
76.576	102.023	183.6136	194.3988	276.9503	316.0496	340.5923	397.1698	450.7714	481.4183	506.0262	633.5367	753.9315	789.056	820.2266	854.9207	898.506	909.6148	953.9957	971.3605	1017.4475	1033.9387	1060.2723	1088.0681	1102.7796	1125.7767	1134.539	1151.8747	1154.1059	1182.7621	1194.1086	1221.3314	1236.0538	1255.2553	1282.3461	1320.3735	1341.2781	1365.0795	1379.0413	1390.5113	1405.5039	1417.8477	1479.8072	1486.9045	1490.6991	1491.6956	1492.5813	1508.9948	1513.1133	2939.2328	2972.8563	3010.4721	3018.9446	3031.713	3035.795	3048.0607	3077.6491	3081.0753	3107.2134	3124.8963	3135.8775	3152.0365	3207.7651
COC1CCC2CC2C1	CO[C@H]1CC[C@H]2C[C@H]2C1	
InChI=1S/C8H14O/c1-9-8-3-2-6-4-7(6)5-8/h6-8H,2-5H2,1H3	InChI=1S/C8H14O/c1-9-8-3-2-6-4-7(6)5-8/h6-8H,2-5H2,1H3/t6-,7-,8-/m0/s1
