15
gdb 56410	4.0732	0.67421	0.60977	3.7625	77.57	-0.2576	-0.0198	0.2378	1752.2323	0.111815	-416.742654	-416.733426	-416.732482	-416.778429	31.826	
O	-0.6130762327	 0.9900276502	 0.1663422536	-0.383169
C	 0.1077153802	-0.1934666926	-0.1263708054	-0.183854
C	 1.0617862158	 0.0233500365	-1.2433421501	 0.281824
N	 1.7951778974	 0.2172499613	-2.1142024065	-0.315281
C	 0.8059989339	-0.7608143571	 1.0287832623	 0.07681
C	 1.3714369652	-1.1946906008	 2.0009755601	 0.099649
C	 2.0545400895	-1.7357626844	 3.1397831701	-0.162656
C	 1.3828693125	-1.7236335625	 4.4772196307	-0.224792
N	 1.5713112491	-2.9891440443	 3.7692744507	-0.299027
H	-0.0000123119	 1.6172877848	 0.5684122488	 0.299909
H	-0.6491507008	-0.903992665	-0.4816712386	 0.170262
H	 3.1380933275	-1.6609449159	 3.1082076049	 0.130216
H	 1.9947631474	-1.596897339	 5.3654218071	 0.134625
H	 0.3890977601	-1.289609842	 4.5327357562	 0.130423
H	 0.7009712267	-3.2708094691	 3.3240168861	 0.24506
29.2563	70.463	101.9305	147.6853	221.3748	227.7169	311.7979	369.8999	437.9959	512.4548	551.3838	563.0597	615.1958	757.1612	815.3804	861.266	918.6921	962.7747	997.9078	1040.8718	1095.2324	1118.5513	1156.6834	1218.304	1256.0435	1262.6296	1295.9615	1311.9929	1394.1262	1413.3816	1505.5611	2355.5384	2360.9674	3042.6805	3118.1528	3147.1649	3209.7434	3505.8113	3798.203
OC(C#N)C#CC1CN1	O[C@@H](C#N)C#C[C@H]1CN1	
InChI=1S/C6H6N2O/c7-3-6(9)2-1-5-4-8-5/h5-6,8-9H,4H2	InChI=1S/C6H6N2O/c7-3-6(9)2-1-5-4-8-5/h5-6,8-9H,4H2/t5-,6+/m0/s1
