18
gdb 49557	3.56527	1.29173	1.16278	2.8747	71.63	-0.2259	-0.0326	0.1932	1087.4201	0.148415	-439.043323	-439.03559	-439.034645	-439.076901	29.097	
O	-0.9389277327	 1.1439365853	 0.2018492713	-0.249597
C	 0.196772606	 0.8817540144	-0.101193438	 0.131572
C	 1.3559715293	 1.8426609545	 0.0570217129	-0.072821
C	 1.5201422768	 2.5283386246	 1.4344104938	 0.124237
C	 2.3293553528	 1.2626234	 1.7964862788	-0.228618
N	 2.6454982039	 1.1049902954	 0.3217192214	-0.14076
C	 3.7454255556	 2.0387957418	 0.0014648603	-0.187781
C	 3.685367489	 3.3346224451	 0.8610309055	-0.086105
O	 2.3595704682	 3.660744517	 1.2895065998	-0.273972
H	 0.4857788643	-0.1039768891	-0.5314854838	 0.091284
H	 1.3772877665	 2.5148632232	-0.8094021498	 0.106206
H	 0.6412393983	 2.8356345166	 2.0034342867	 0.100719
H	 3.1892154597	 1.3527365485	 2.4628820517	 0.11586
H	 1.6967281253	 0.4361833558	 2.1311664919	 0.123403
H	 4.7044033913	 1.5374827429	 0.1734440509	 0.110767
H	 3.6834425865	 2.264723551	-1.0677983564	 0.114542
H	 4.327865893	 3.2206647647	 1.7444577983	 0.104977
H	 4.0562708062	 4.1982826281	 0.3019660047	 0.116088
19.5892	158.8019	164.9528	243.4719	322.8514	402.0309	460.6792	486.2503	606.2651	659.269	794.7513	816.2908	829.1519	843.2055	914.0917	928.0819	952.8188	964.3422	1004.8008	1041.9327	1062.998	1112.3093	1141.7885	1154.3008	1174.1417	1224.7323	1230.1657	1260.7743	1274.8349	1284.8593	1315.8886	1349.8216	1366.195	1394.519	1404.094	1497.5116	1498.1915	1527.7735	1825.3652	2881.1332	3006.3353	3037.803	3043.7233	3065.1653	3075.9178	3091.8547	3105.0799	3125.6134
O=CC1C2CN1CCO2	O=C[C@H]1[C@H]2CN1CCO2	
InChI=1S/C6H9NO2/c8-4-5-6-3-7(5)1-2-9-6/h4-6H,1-3H2	InChI=1S/C6H9NO2/c8-4-5-6-3-7(5)1-2-9-6/h4-6H,1-3H2/t5-,6+/m0/s1
