23
gdb 59139	2.97771	1.19506	1.09783	0.3184	88.74	-0.2034	0.0802	0.2836	1263.0587	0.205555	-351.077603	-351.068641	-351.067697	-351.111111	35.672	
C	-0.0829859755	 1.5198844915	 0.4796010143	-0.402137
C	 0.1727045299	 0.0381722531	 0.1579011555	-0.013545
C	 1.0143912506	-0.6257907371	 1.2561530938	-0.377463
C	-1.1742272856	-0.6722705671	-0.0208175907	 0.029122
C	-1.9170101241	-1.0865590734	-1.2607096768	-0.107007
C	-1.1489203176	-1.9466693531	-2.3079822918	-0.058022
C	 0.2727436912	-2.3284324979	-1.9688325865	-0.302846
C	-0.85893546	-2.9965626937	-1.248507959	-0.044869
C	-1.5813605517	-2.1240632649	-0.186686114	-0.11606
H	 0.8580911053	 2.0747428172	 0.5529178627	 0.107475
H	-0.6950877631	 1.9922795729	-0.2956252287	 0.114587
H	-0.6093556881	 1.6292534546	 1.4356651308	 0.109655
H	 0.7332944639	 0.0189548204	-0.7793329151	 0.085055
H	 1.2438350751	-1.6667754055	 1.009346826	 0.120469
H	 1.9594055398	-0.0927556252	 1.406882764	 0.105243
H	 0.4755198186	-0.62437555	 2.2109862121	 0.109141
H	-1.8980826723	-0.2354619022	 0.6726436325	 0.083233
H	-2.8936189128	-0.6844974902	-1.5036901328	 0.082805
H	-1.5431445097	-2.1001348826	-3.3043906646	 0.086035
H	 0.7316116656	-2.9544145172	-2.7302562347	 0.108335
H	 0.9772041091	-1.6763012479	-1.474892193	 0.113849
H	-1.0269270611	-4.0646888412	-1.3036167657	 0.084635
H	-2.2661442876	-2.5763997905	 0.5207946716	 0.082311
59.869	125.1622	185.202	231.7782	258.7102	300.3906	319.4511	364.44	420.8054	541.6902	616.4035	688.5715	700.4031	705.0921	758.3286	859.9083	863.8535	892.2579	908.0333	924.9699	933.8935	939.4584	968.7388	1005.3176	1025.9077	1030.2686	1056.8522	1074.9661	1087.7759	1103.2792	1118.8653	1146.3609	1183.6336	1191.7938	1244.3785	1267.565	1296.996	1312.6369	1341.5907	1355.7024	1378.8789	1396.3526	1415.5514	1456.5708	1487.1726	1491.8244	1495.9571	1503.8869	1509.983	3022.1661	3027.32	3062.1153	3071.5932	3087.514	3099.4357	3101.263	3105.2999	3133.7124	3166.9965	3177.3725	3184.6131	3195.6736	3245.443
CC(C)C1C2C3CC3C12	CC(C)[C@H]1[C@H]2[C@H]3C[C@H]3[C@@H]12	
InChI=1S/C9H14/c1-4(2)7-8-5-3-6(5)9(7)8/h4-9H,3H2,1-2H3	InChI=1S/C9H14/c1-4(2)7-8-5-3-6(5)9(7)8/h4-9H,3H2,1-2H3/t5-,6+,7-,8+,9-
