13
gdb 129124	2.54546	1.89154	1.20781	4.2843	71.47	-0.2613	-0.094	0.1673	961.2105	0.091187	-448.923342	-448.916211	-448.915267	-448.955371	26.281	
N	 0.0193719476	 1.0776003644	-0.7417659916	-0.443085
C	-0.0067661622	 0.0058653625	-0.0631542831	 0.226721
N	 1.1153159816	-0.5690072848	 0.5406089252	-0.238152
C	 1.4233727399	-1.7991834276	 0.3680560751	-0.01209
C	 0.6709349218	-2.8365300482	-0.3276612932	-0.002728
N	-0.6073921973	-2.9419896387	-0.466797571	-0.155795
N	-1.4631361576	-2.0109818938	-0.0059779333	-0.265585
C	-1.3665255824	-0.622070856	 0.1861976192	 0.412211
O	-2.3483770563	 0.0015690859	 0.4940839344	-0.307941
H	 0.9822288116	 1.4217260521	-0.800548883	 0.235041
H	 2.3677515718	-2.1326462342	 0.8051175422	 0.134969
H	 1.2300549937	-3.6973535057	-0.6850972312	 0.134392
H	-2.4269939722	-2.3193080659	-0.0468129097	 0.282044
73.5622	124.8291	280.4445	311.9546	361.1424	412.918	456.7599	556.165	626.8212	679.2184	693.5318	793.65	817.8862	855.7361	917.5092	933.5283	965.9884	990.4152	1040.8783	1162.8176	1206.3036	1335.3827	1409.0822	1422.0443	1467.3694	1615.9638	1697.9862	1709.0909	1817.0111	3102.9075	3167.6786	3441.712	3578.3352
N=C1N=CC=NNC1=O	[NH][C]1N=CC=NNC1=O	
InChI=1S/C4H4N4O/c5-3-4(9)8-7-2-1-6-3/h1-2H,(H2,5,6,8,9)	InChI=1S/C4H4N4O/c5-3-4(9)8-7-2-1-6-3/h1-2H,(H2,5,6,8,9)
