15
gdb 71982	2.85737	1.71647	1.25056	4.0154	70.74	-0.2369	0.0039	0.2408	970.4877	0.113347	-416.739267	-416.731968	-416.731024	-416.770845	28.612	
O	-0.0848386537	 1.3349947516	-0.0477043331	-0.443342
C	 0.0441573724	-0.0252365262	-0.0578483679	 0.349531
C	 0.9454748605	-0.9121566918	-0.9157090055	-0.27635
C	 0.044525494	-2.0668435119	-0.4056156726	-0.05931
N	 0.4435184743	-2.16636043	 1.0462530354	-0.362359
C	-0.2943138622	-0.8914161604	 1.2038381406	 0.178368
C	-0.6320753158	-0.2888322211	 2.4451567438	 0.172572
N	-0.8990405806	 0.2064393294	 3.4572574088	-0.348883
C	-1.0911343002	-1.0076476263	-0.0863200736	-0.198283
H	 0.5904832248	 1.7168863782	 0.525852662	 0.303866
H	 0.7822073702	-0.7043488172	-1.9758320564	 0.119723
H	 2.010528822	-0.9880498971	-0.6834331904	 0.114271
H	-0.067569116	-2.9953202709	-0.9573406341	 0.097449
H	-0.1315915768	-2.8933513477	 1.473525325	 0.228816
H	-2.1458446328	-0.9052057185	-0.3026096218	 0.12393
118.8964	154.4419	266.4442	326.9255	356.1839	433.6853	483.8175	515.6075	540.5894	599.9064	675.8279	696.2457	774.9195	799.6798	896.1446	916.4276	926.3644	997.1142	1002.1232	1035.4299	1054.0455	1118.8953	1125.2117	1148.8615	1204.6614	1234.2443	1276.2643	1294.8248	1320.4265	1381.7407	1429.7328	1493.1919	2342.1774	3064.2186	3129.9018	3168.4953	3214.0422	3448.4805	3787.4212
OC12CC3NC1(C#N)C23	O[C@@]12C[C@H]3N[C@]1(C#N)[C@@H]23	
InChI=1S/C6H6N2O/c7-2-5-4-3(8-5)1-6(4,5)9/h3-4,8-9H,1H2	InChI=1S/C6H6N2O/c7-2-5-4-3(8-5)1-6(4,5)9/h3-4,8-9H,1H2/t3-,4+,5-,6-/m1/s1
