17
gdb 5111	3.38797	2.04181	1.2973	1.4249	72.35	-0.1651	0.0632	0.2284	928.2778	0.143525	-360.067058	-360.058404	-360.05746	-360.100169	31.402	
C	-0.1290556928	 1.4401771704	 0.0110023513	-0.345122
N	-0.0121316149	-0.0014420816	 0.0022583998	-0.029582
C	 0.017316027	-0.7989478315	-1.1268747782	 0.244881
N	-0.0635832487	-0.1944496483	-2.4025207725	-0.608864
C	 0.0449117454	-2.1131059014	-0.7227216053	-0.214744
C	 0.0531407369	-2.1209465053	 0.7032839788	-0.215127
C	 0.0301917025	-0.8112004787	 1.1219254053	 0.245732
N	-0.0367456559	-0.2210228882	 2.4049659445	-0.608835
H	 0.8505276836	 1.9364092541	 0.0110142775	 0.114652
H	-0.6726084803	 1.7525944377	-0.8824761423	 0.150824
H	-0.6675304409	 1.7425058135	 0.911051521	 0.150656
H	 0.8405508769	 0.1262486843	-2.7403604086	 0.237826
H	-0.4209370119	-0.8575909822	-3.0793519224	 0.243709
H	 0.0732943404	-2.9710920381	-1.3776468532	 0.076221
H	 0.0890026644	-2.9860111175	 1.3484525519	 0.076203
H	-0.3787107286	-0.8943515313	 3.07967878	 0.243729
H	 0.8696504468	 0.103536994	 2.7329250826	 0.237841
57.524	142.0272	172.8056	174.7893	224.4191	300.2413	310.367	320.1188	524.3098	598.0459	631.9762	645.7413	728.9955	733.6975	750.9163	768.8516	835.016	840.2659	976.6798	1038.6065	1138.2892	1158.2967	1159.9326	1209.6125	1242.8006	1261.4627	1336.8338	1420.8257	1428.7329	1482.8359	1512.2724	1522.0943	1563.1428	1607.65	1652.818	1656.2078	3014.0999	3100.4863	3150.9372	3231.807	3247.2737	3473.3456	3473.3573	3589.6809	3590.1382
CN1C(N)=CC=C1N	Cn1c(N)ccc1N	
InChI=1S/C5H9N3/c1-8-4(6)2-3-5(8)7/h2-3H,6-7H2,1H3	InChI=1S/C5H9N3/c1-8-4(6)2-3-5(8)7/h2-3H,6-7H2,1H3
