16
gdb 23348	3.9186	0.92713	0.85499	0.5174	70.12	-0.2515	0.0042	0.2557	1341.8947	0.122269	-474.876162	-474.867612	-474.866668	-474.909761	31.511	
O	 0.0392297379	 1.4196961215	-0.1067235556	-0.416192
C	 0.0168103092	 0.0266707987	 0.1715995993	-0.116506
C	-1.397007486	-0.53329515	 0.113763903	-0.004448
C	-2.0145885075	-0.8448144041	-1.2914131618	-0.070775
O	-1.0671967605	-1.9917006177	-1.4136269746	-0.311932
C	-1.5795266968	-2.0801954018	-0.0110051492	-0.068562
C	-2.952971345	-1.8186500584	-0.5915099039	 0.540152
N	-4.117417009	-2.2837486463	-0.5113525376	-0.315485
O	-4.9990960452	-1.6167056798	-1.3876144436	-0.395851
H	-0.1068079461	 1.5348590915	-1.0507314922	 0.286292
H	 0.6712335806	-0.5396361071	-0.500351832	 0.116392
H	 0.4033548158	-0.0793292189	 1.1909297081	 0.115171
H	-2.0652562011	-0.0280775145	 0.8174163563	 0.100688
H	-2.1678049787	-0.2110499574	-2.1618894518	 0.11513
H	-1.2144935503	-2.8898572472	 0.6171145194	 0.115357
H	-5.8278828673	-2.0806092386	-1.2264443837	 0.310568
85.8429	95.3436	142.1647	235.2256	280.2627	303.4446	326.1546	381.5102	430.0223	527.6627	613.8129	715.3089	730.7354	764.2046	779.3933	852.6141	884.7019	957.6749	1013.7215	1070.0814	1071.4976	1091.1153	1106.3071	1126.2654	1145.5739	1175.5408	1197.76	1233.4175	1249.9812	1356.1763	1404.084	1410.9549	1418.0125	1503.3354	1836.278	3038.4393	3073.0216	3089.9044	3154.4275	3157.0906	3817.822	3823.2014
OCC1C2OC1C2=NO	OC[C@H]1[C@H]2O[C@@H]1C2=NO	
InChI=1S/C5H7NO3/c7-1-2-4-3(6-8)5(2)9-4/h2,4-5,7-8H,1H2	InChI=1S/C5H7NO3/c7-1-2-4-3(6-8)5(2)9-4/h2,4-5,7-8H,1H2/t2-,4+,5-
