18
gdb 20191	3.23714	2.6264	1.97028	1.5658	69.58	-0.2241	0.0843	0.3084	756.4814	0.157301	-347.777637	-347.771626	-347.770681	-347.807365	25.23	
C	-0.058853659	 1.5254823822	-0.1059406336	-0.194787
C	 1.3428093841	 2.1562228027	 0.028412401	-0.223807
C	 2.2263205361	 1.5097680619	 1.0844858093	-0.042941
C	 1.7819034616	 0.9385766878	 2.4099409638	 0.086414
O	 0.4284921944	 0.485775121	 2.4036006379	-0.303852
C	 0.7303943854	-0.4068352752	 1.2790750152	 0.110276
C	-0.0505848324	-0.0065775833	 0.0318249734	-0.217461
C	 2.2082307261	 0.0123058207	 1.3013077004	-0.162416
H	-0.7068112994	 1.9255449439	 0.6776975783	 0.120613
H	-0.4982889273	 1.8150799274	-1.0662010833	 0.086054
H	 1.8729926043	 2.072116923	-0.9304322356	 0.0957
H	 1.2403829725	 3.2299991638	 0.2263436752	 0.09792
H	 3.2299091507	 1.92752714	 1.147552725	 0.083972
H	 2.2222450748	 1.185760789	 3.3695669176	 0.099444
H	 0.5601855941	-1.4457692468	 1.577375318	 0.077855
H	-1.0801011825	-0.377741189	 0.0875260687	 0.099898
H	 0.4174469598	-0.4884911303	-0.8370214663	 0.097302
H	 3.0600539366	-0.6463153687	 1.1967090752	 0.089816
203.6963	259.0624	349.1922	408.9764	475.0277	614.954	681.8475	713.2683	747.345	794.2599	827.5641	859.745	887.168	913.6967	934.3289	982.6052	1010.0641	1027.8514	1053.3167	1057.6936	1066.8545	1095.1536	1116.3013	1140.1092	1188.9836	1221.3369	1253.0507	1274.3681	1305.3195	1338.7393	1346.5083	1372.7695	1378.1305	1392.8383	1442.7522	1478.0054	1484.9569	1498.2685	3007.8613	3021.5436	3044.9777	3052.7104	3057.0997	3067.8659	3103.8665	3125.0695	3172.7387	3197.248
C1CC2C3OC(C1)C23	C1C[C@H]2[C@H]3O[C@@H](C1)[C@@H]23	
InChI=1S/C7H10O/c1-2-4-6-5(3-1)8-7(4)6/h4-7H,1-3H2	InChI=1S/C7H10O/c1-2-4-6-5(3-1)8-7(4)6/h4-7H,1-3H2/t4-,5+,6-,7-/m1/s1
