16
gdb 10479	2.97894	1.38083	1.02469	2.9993	75.99	-0.2393	-0.0165	0.2229	1165.731	0.127934	-346.581145	-346.572288	-346.571344	-346.615834	30.609	
C	-0.0295211528	 1.4727078595	-0.01018138	-0.503552
C	-0.0218624264	 0.0176255793	-0.0105074914	 0.152751
C	-0.0037989986	-1.1861761213	-0.0188654573	-0.047086
C	 0.0241183047	-2.6205752035	-0.0332321849	 0.052521
C	-0.463011612	-3.3931029793	 1.2059786153	-0.291153
C	-1.3048581679	-3.3972517439	-0.0153534846	-0.291153
C	 1.12363137	-3.2918882404	-0.7888084697	 0.121069
O	 2.0011322991	-2.738622897	-1.3954908637	-0.253817
H	 0.8120254572	 1.8656762774	-0.5909722609	 0.157137
H	-0.9507312111	 1.8691157882	-0.4515052507	 0.147141
H	 0.0528607508	 1.8740699525	 1.0060157593	 0.147139
H	 0.0807097424	-4.295404117	 1.4658712022	 0.130217
H	-0.7598724476	-2.7786822011	 2.0463841505	 0.143278
H	-2.1978335314	-2.785762375	-0.0397780692	 0.143277
H	-1.3514108428	-4.3024623512	-0.6118018426	 0.130217
H	 1.0603356162	-4.4058814072	-0.7414231923	 0.062015
29.1007	85.4113	128.576	134.4747	240.3945	298.502	299.8671	356.0324	448.0205	539.2686	543.975	662.9603	784.8964	794.4414	908.2887	955.0699	959.8504	1041.5018	1050.6689	1054.8592	1065.1228	1085.6695	1089.6042	1199.7044	1261.9536	1366.0138	1414.9907	1440.5751	1460.2762	1477.0861	1478.1524	1490.633	1831.6807	2375.393	2841.2486	3027.1303	3086.2534	3091.4215	3139.9208	3141.9356	3230.9126	3244.7806
CC#CC1(CC1)C=O	CC#CC1(CC1)C=O	
InChI=1S/C7H8O/c1-2-3-7(6-8)4-5-7/h6H,4-5H2,1H3	InChI=1S/C7H8O/c1-2-3-7(6-8)4-5-7/h6H,4-5H2,1H3
