12
gdb 130800	3.19625	1.26952	1.02227	3.3385	61.58	-0.2883	-0.057	0.2314	1100.0365	0.075986	-468.740538	-468.73279	-468.731846	-468.774068	27.133	
O	-0.0249459775	-0.0018969535	 0.5116379982	-0.384329
C	-0.0427590441	 1.1683134089	 0.2627774792	 0.562779
O	-1.1382636773	 1.9868229854	 0.1996274963	-0.231544
N	-0.6929927387	 3.2940318817	-0.1183082299	 0.02869
N	 0.5509045824	 3.2757370344	-0.2374849375	-0.037417
N	 1.0074587297	 2.0279085373	-0.0156419983	-0.092859
C	 2.414692521	 1.6628148718	-0.1095190877	-0.316445
C	 2.9207279153	 1.65966762	-1.4767942015	 0.314625
C	 3.3490801604	 1.6597308408	-2.5975152548	-0.424752
H	 2.9932332106	 2.3473597676	 0.5187644341	 0.172492
H	 2.4760521013	 0.6630194154	 0.3331897112	 0.189458
H	 3.7255461869	 1.65781781	-3.5911948394	 0.219302
37.7726	82.2654	219.1602	248.5089	266.8954	317.4263	437.1439	551.7994	639.2126	665.7149	691.1722	722.4725	756.8915	767.9347	808.8989	961.2756	965.3556	1026.9503	1114.4919	1175.8306	1333.8022	1382.6386	1393.1695	1460.2886	1517.0247	1900.2713	2252.7382	3055.3796	3099.5408	3501.9851
O=C1ON=NN1CC#C	O=c1onnn1CC#C	
InChI=1S/C4H3N3O2/c1-2-3-7-4(8)9-6-5-7/h1H,3H2	InChI=1S/C4H3N3O2/c1-2-3-7-4(8)9-6-5-7/h1H,3H2
