17
gdb 80356	3.39793	1.31393	1.14558	1.9322	72.19	-0.2488	0.0128	0.2616	1078.9641	0.135971	-417.965868	-417.957646	-417.956702	-417.998292	31.867	
C	-0.141119883	 1.6113350962	 0.0689411149	-0.448934
C	 0.0733767989	 0.0980254694	 0.0852181798	 0.146199
N	 1.2303626285	-0.4167444078	-0.7489339576	-0.394894
C	 1.6825973541	-1.2594271399	 0.3877749426	-0.068968
C	 2.1939704691	-0.3060125249	 1.4068364954	 0.132541
O	 2.8185215527	 0.8818225478	 1.0486382306	-0.432025
C	 0.694666095	-0.5656833925	 1.3343050566	-0.164011
C	-1.1633834287	-0.600625687	-0.2884202022	 0.262337
N	-2.1327714976	-1.1471208092	-0.6032552692	-0.338265
H	 0.7699488052	 2.1121985317	 0.3958629742	 0.14978
H	-0.4081184325	 1.9515069061	-0.9357671073	 0.13394
H	-0.954817747	 1.8816910463	 0.7483381676	 0.137955
H	 0.9118221337	-0.9576109762	-1.5452136174	 0.246632
H	 1.9677104595	-2.2961543011	 0.2574134984	 0.108713
H	 2.6453151106	-0.7544717694	 2.2874823144	 0.118345
H	 2.7407050132	 0.9322975775	 0.0831999446	 0.296056
H	 0.1193299184	-0.9440991471	 2.1687153448	 0.1146
129.5633	139.1798	204.4257	233.9335	268.6334	297.4096	379.3569	500.1335	516.2398	559.6111	580.1553	637.0923	678.061	732.6909	782.4323	811.4478	884.173	921.7219	949.5432	979.0264	1003.1834	1036.0525	1055.8941	1069.2385	1130.6765	1165.5497	1191.6985	1204.8006	1272.261	1310.4136	1331.1529	1388.7914	1409.8801	1463.9191	1487.8466	1497.6482	2346.1525	3051.483	3119.9127	3158.6817	3160.7453	3187.2314	3204.6126	3548.7734	3702.8228
CC1(NC2C(O)C12)C#N	C[C@]1(N[C@H]2[C@@H](O)[C@@H]12)C#N	
InChI=1S/C6H8N2O/c1-6(2-7)3-4(8-6)5(3)9/h3-5,8-9H,1H3	InChI=1S/C6H8N2O/c1-6(2-7)3-4(8-6)5(3)9/h3-5,8-9H,1H3/t3-,4+,5-,6-/m0/s1
