21
gdb 120700	2.84986	0.82856	0.77154	2.025	80.06	-0.2466	-0.024	0.2225	1611.8358	0.179152	-424.232479	-424.221961	-424.221017	-424.269286	36.89	
C	-1.0809112887	 1.253655804	-0.6705622539	-0.383616
C	-0.5498567966	-0.1743610119	-0.5273765943	-0.162054
C	 0.8937562791	-0.3273242876	-1.0288838438	-0.220394
C	 1.40702294	-1.7357242439	-0.8555483313	 0.07866
O	 0.9257552053	-2.7525270495	-1.7399801673	-0.252216
C	 2.318717829	-2.4374070147	-1.7846682972	-0.060141
C	 2.8874843163	-1.8047213616	-3.0341788096	 0.341699
C	 1.9750063907	-1.6658077675	-4.2326633328	-0.476108
O	 4.056026078	-1.4910550654	-3.0503558558	-0.299374
H	-0.4727955495	 1.9633879023	-0.0987551975	 0.116591
H	-1.0692923882	 1.5777644016	-1.7170882403	 0.116668
H	-2.1110173168	 1.3314188138	-0.3100927542	 0.116763
H	-0.6006112856	-0.483965469	 0.5246651989	 0.09908
H	-1.1906096814	-0.8698935186	-1.0822184862	 0.115108
H	 0.9554721072	-0.0215028374	-2.0779090073	 0.104496
H	 1.5555965178	 0.3465324073	-0.4683475553	 0.11126
H	 1.4558940117	-2.066236572	 0.1849969134	 0.099283
H	 2.9852532215	-3.1863227185	-1.3551002283	 0.116132
H	 1.005957168	-1.2409925598	-3.9629472205	 0.146912
H	 2.4666871894	-1.0686978283	-5.001420838	 0.139331
H	 1.765525533	-2.6677866934	-4.6277654689	 0.151919
51.7329	67.9838	85.3709	98.7538	130.8239	194.9144	233.7207	248.5626	328.1666	416.1705	459.9586	485.1189	522.6467	620.0266	744.5856	757.6516	810.9105	889.9328	902.6184	904.6826	987.1482	1000.2533	1028.5786	1053.4386	1086.0483	1104.2846	1142.9215	1174.3829	1242.5874	1265.494	1281.7086	1308.6593	1330.3257	1375.4703	1384.842	1392.0294	1413.98	1454.8754	1461.0316	1472.0743	1477.574	1492.8248	1499.2808	1509.8406	1805.95	3022.1521	3027.5719	3031.7221	3041.6056	3058.3847	3074.0135	3090.2815	3100.4416	3105.8089	3110.616	3113.4229	3162.7019
CCCC1OC1C(C)=O	CCC[C@H]1O[C@H]1C(=O)C	
InChI=1S/C7H12O2/c1-3-4-6-7(9-6)5(2)8/h6-7H,3-4H2,1-2H3	InChI=1S/C7H12O2/c1-3-4-6-7(9-6)5(2)8/h6-7H,3-4H2,1-2H3/t6-,7+/m1/s1
