18
gdb 88316	3.81349	0.89428	0.84269	5.5735	76.6	-0.2475	-0.0301	0.2174	1419.4601	0.146593	-439.128343	-439.119026	-439.118081	-439.163313	33.254	
C	-0.1566562154	 1.4475562048	-0.0482896401	-0.41966
C	 0.1377106738	-0.0348728518	-0.0077882601	 0.015699
C	 1.4402758157	-0.5967406048	-0.4723535971	-0.281333
C	 1.1093946443	-0.6573935726	 1.0070036186	-0.167938
C	 1.8872924308	 0.221752114	 1.9294740337	 0.455376
O	 2.4920960847	 1.2077619249	 1.5817726406	-0.324095
N	 1.8397879235	-0.2116046544	 3.2688538999	-0.365014
C	 2.4451859957	 0.3665552279	 4.3809626567	 0.166925
O	 3.1303235988	 1.3502910226	 4.39878877	-0.25173
H	 0.7336914714	 2.0351317346	 0.1808521546	 0.16241
H	-0.5110307006	 1.7298323279	-1.0454735294	 0.119285
H	-0.9384808101	 1.7146370885	 0.6708165223	 0.115959
H	-0.7293339704	-0.6666992941	-0.1846566669	 0.094462
H	 1.4563693426	-1.5322278705	-1.0197976975	 0.116648
H	 2.2204760942	 0.1108704642	-0.7319906326	 0.146405
H	 0.8114146135	-1.6211981817	 1.4082757125	 0.080199
H	 1.2952123398	-1.0400169383	 3.4579007359	 0.254627
H	 2.2038381178	-0.2246118812	 5.2892713889	 0.081775
46.8154	68.8778	148.4221	184.3508	220.9414	236.2173	265.7082	328.7113	378.8178	417.2607	576.9034	612.1651	717.6284	754.2294	799.3954	858.5762	888.171	924.4737	955.1878	1005.4408	1028.9436	1078.3802	1084.2216	1108.8497	1118.6382	1146.5706	1162.9119	1208.2649	1242.048	1390.8992	1413.3326	1424.8685	1448.3203	1478.0952	1499.402	1503.8746	1505.6311	1794.3642	1866.5094	2912.6027	3037.3607	3093.6394	3129.5944	3136.9074	3146.1514	3152.0531	3230.5357	3615.5538
CC1CC1C(=O)NC=O	C[C@H]1C[C@H]1C(=O)NC=O	
InChI=1S/C6H9NO2/c1-4-2-5(4)6(9)7-3-8/h3-5H,2H2,1H3,(H,7,8,9)	InChI=1S/C6H9NO2/c1-4-2-5(4)6(9)7-3-8/h3-5H,2H2,1H3,(H,7,8,9)/t4-,5+/m0/s1
