19
gdb 13533	2.8651	1.64139	1.16956	1.3126	77.56	-0.2254	0.05	0.2754	1073.1223	0.163085	-327.859954	-327.850783	-327.849838	-327.893575	33.71	
C	 0.2707224295	-2.0631129318	-1.9461076074	-0.392075
C	 0.1422510216	-1.6461505922	-0.4656002459	-0.188259
C	 0.9426085427	-0.452429872	-0.1863018857	 0.338767
C	 1.5901085605	 0.5387319197	 0.0233790256	-0.4745
C	-1.3270600823	-1.4125898443	-0.1121471525	 0.037489
C	-2.1801685264	-2.5412754308	 0.3609021295	-0.264275
N	-1.8512138788	-1.4322445102	 1.248006797	-0.081885
C	-0.9668519312	-1.6902546218	 2.3750033952	-0.317689
H	 1.3174336247	-2.229471893	-2.212647219	 0.126407
H	-0.2905480433	-2.9840366272	-2.1284416918	 0.119318
H	-0.1250547787	-1.2815549055	-2.6014283499	 0.129066
H	 0.5281881283	-2.4685676646	 0.1483727547	 0.104507
H	 2.1647244216	 1.4099961752	 0.2188246137	 0.19594
H	-1.7849482691	-0.6418912073	-0.7319046589	 0.095728
H	-3.220700308	-2.6284077555	 0.0583802858	 0.113819
H	-1.6788559999	-3.494902023	 0.5333884429	 0.10125
H	-0.2419290071	-2.504055912	 2.2144731255	 0.097606
H	-0.4107911025	-0.7791744733	 2.6133305383	 0.136176
H	-1.5790600816	-1.9577987504	 3.2419953929	 0.122608
62.847	117.7956	181.2849	196.2251	220.9156	231.7002	288.1538	334.5909	417.4099	460.0864	523.4972	582.8434	631.2303	635.4847	751.6087	804.5311	873.746	922.0383	971.4319	1032.0084	1076.259	1087.9705	1098.718	1125.1601	1130.6723	1165.3933	1194.9588	1204.0701	1275.0787	1323.1849	1342.7548	1400.1826	1418.7702	1449.9124	1487.9414	1490.8422	1498.7602	1502.7162	1512.6975	2233.1212	2973.1226	3035.3411	3042.8438	3070.2662	3075.9807	3104.8152	3112.49	3118.3591	3123.8994	3165.8992	3504.2301
CC(C#C)C1CN1C	C[C@@H](C#C)[C@H]1CN1C	
InChI=1S/C7H11N/c1-4-6(2)7-5-8(7)3/h1,6-7H,5H2,2-3H3	InChI=1S/C7H11N/c1-4-6(2)7-5-8(7)3/h1,6-7H,5H2,2-3H3/t6-,7+,8?/m0/s1
