18
gdb 35693	2.33772	1.58145	1.13111	2.8545	75.81	-0.2625	0.015	0.2775	1109.9362	0.148061	-401.936776	-401.928574	-401.92763	-401.970225	30.536	
N	-0.1233611041	-1.0180259791	-0.5860215769	-0.3335
C	-0.1062868942	 0.0977939337	-0.2824660192	 0.293378
C	-0.0591286628	 1.4945547845	 0.1030035443	-0.29466
C	 0.0343997278	 1.824051406	 1.6154716846	-0.089655
O	 1.2126164376	 2.6166545097	 1.4072489536	-0.307953
C	 1.3136975746	 2.2436774719	 0.02509166	 0.464597
C	 2.5770916057	 1.5138417533	-0.4790767177	-0.298733
C	 2.4743794417	 2.3446383044	-1.7890096199	-0.216628
C	 1.5333979933	 3.3319916762	-1.042609086	-0.292913
H	-0.8573879702	 2.0421118997	-0.4032952238	 0.131944
H	-0.7975353399	 2.408085271	 2.0211756733	 0.120242
H	 0.2222657605	 0.9552728068	 2.255576947	 0.125289
H	 3.4341410335	 1.8129087342	 0.1305231907	 0.119615
H	 2.5442508888	 0.4245232202	-0.5467264946	 0.126958
H	 3.4014445492	 2.753131255	-2.1931110856	 0.110319
H	 1.9574648068	 1.7986665392	-2.5817283379	 0.117114
H	 0.6542397692	 3.7210211234	-1.563253884	 0.101079
H	 2.0844428025	 4.1683163699	-0.6029839379	 0.123505
55.2985	98.4634	154.8507	195.9796	277.4053	363.3662	400.38	478.3979	541.2939	563.1779	696.5838	748.2485	781.112	847.6474	899.5343	914.6351	925.4538	966.302	1014.2108	1024.4004	1040.8349	1074.4593	1112.2493	1158.5472	1169.1603	1184.238	1195.87	1224.4034	1245.331	1257.2542	1273.7553	1304.6902	1337.6903	1362.5233	1463.6655	1481.0048	1502.9523	1525.0225	2353.6998	3036.2299	3056.4291	3067.2539	3075.2235	3080.4164	3094.553	3109.3241	3121.9463	3135.5856
N#CC1COC11CCC1	N#C[C@H]1COC21CCC2	
InChI=1S/C7H9NO/c8-4-6-5-9-7(6)2-1-3-7/h6H,1-3,5H2	InChI=1S/C7H9NO/c8-4-6-5-9-7(6)2-1-3-7/h6H,1-3,5H2/t6-/m0/s1
