21
gdb 110771	2.4844	1.28723	1.1277	2.7665	81.59	-0.2385	-0.0146	0.2239	1214.2727	0.182931	-387.117951	-387.109254	-387.10831	-387.151661	33.395	
C	 0.0486260366	 1.6372038201	-0.1278800654	-0.373563
C	-0.2838954049	 0.1453953365	-0.2551171578	-0.219573
C	 0.5796389697	-0.5498755966	-1.2905016064	 0.006599
C	 1.95902195	-1.1090677812	-1.0116654583	-0.06874
C	 2.3732134067	-1.3657922155	 0.423907939	-0.333346
C	 1.3373150778	-2.3477629902	 0.9980036015	 0.386062
O	 1.219672002	-2.638531883	 2.1593637697	-0.312726
C	 0.4748463723	-2.8954920072	-0.1518235789	-0.33028
C	 0.8018011537	-2.0438920121	-1.3622271352	-0.091232
H	 1.0868598773	 1.7853730679	 0.1870094254	 0.119987
H	-0.0804426146	 2.1520061855	-1.0863620719	 0.114514
H	-0.5994359274	 2.1273987623	 0.6048814981	 0.114415
H	-0.1860386362	-0.3298474548	 0.7267043417	 0.112853
H	-1.338682085	 0.0289319371	-0.5365104847	 0.101095
H	 0.5024353286	-0.0850001926	-2.2719569403	 0.082687
H	 2.7411187876	-0.9164906313	-1.7370115864	 0.085199
H	 3.3569439181	-1.8504655547	 0.4668535035	 0.129963
H	 2.4338774675	-0.4797021577	 1.0637742184	 0.130991
H	 0.7593543298	-3.9421073926	-0.3190429646	 0.129186
H	-0.5778022126	-2.9009388445	 0.1482317588	 0.130303
H	 0.7587159828	-2.5136384755	-2.3382395161	 0.085606
66.5952	91.0928	148.7132	196.1977	257.3714	287.6448	449.132	459.7219	470.2752	506.8853	625.5474	669.4045	745.78	770.324	776.1682	806.727	825.9628	886.1404	946.1194	981.787	1004.1255	1022.9274	1055.4396	1060.027	1095.4111	1128.1449	1139.8269	1148.9059	1164.7541	1210.6888	1233.6842	1278.5994	1281.5787	1301.1649	1338.6557	1351.9626	1385.2427	1410.1482	1442.7846	1448.33	1461.6703	1489.6668	1497.8989	1507.5186	1844.0939	3023.903	3032.6045	3035.4236	3038.4598	3064.8217	3081.7318	3082.8632	3100.3485	3107.2172	3119.6581	3164.5773	3175.0367
CCC1C2CC(=O)CC12	CC[C@H]1[C@H]2CC(=O)C[C@@H]12	
InChI=1S/C8H12O/c1-2-6-7-3-5(9)4-8(6)7/h6-8H,2-4H2,1H3	InChI=1S/C8H12O/c1-2-6-7-3-5(9)4-8(6)7/h6-8H,2-4H2,1H3/t6-,7+,8-
