20
gdb 98425	2.62452	1.27019	1.02677	1.293	77.91	-0.2295	0.0015	0.231	1257.2754	0.168443	-440.290688	-440.280567	-440.279623	-440.325749	36.332	
C	-0.1465774758	 1.4356971533	 0.5640459953	-0.241984
O	-0.1922756879	 0.0037411097	 0.5761036317	-0.233944
C	-1.2072401823	-0.5461200061	-0.1206947456	 0.41801
O	-2.0196521325	 0.1137775135	-0.7277735502	-0.377472
C	-1.1704291559	-2.0490151824	-0.0493806562	 0.175807
C	-0.2175354223	-2.6796980241	 0.9443088741	-0.453404
C	-2.469951519	-2.7204877879	-0.3970198851	-0.264244
N	-1.3465858735	-2.8138157582	-1.3015946481	-0.110966
C	-1.4280852751	-2.157894187	-2.6032059539	-0.330811
H	 0.7124265761	 1.7095880223	 1.1764903246	 0.134138
H	-0.0254786515	 1.8085156288	-0.456060271	 0.141519
H	-1.0656740435	 1.8539572403	 0.9819979782	 0.142076
H	-0.4328882229	-2.3483754389	 1.9646004316	 0.119518
H	-0.3150283758	-3.7663373792	 0.8957777281	 0.123603
H	 0.8191239574	-2.4164001219	 0.7186566862	 0.128289
H	-2.7399388761	-3.632616866	 0.1306944422	 0.113119
H	-3.2950378295	-2.0643629731	-0.6656561719	 0.131111
H	-1.9933961254	-1.2193657152	-2.6034285019	 0.143165
H	-0.4133748622	-1.9608406942	-2.9640569754	 0.119896
H	-1.9006243924	-2.8598736737	-3.2974294426	 0.122575
53.1905	124.2301	154.2469	184.1475	189.8659	199.6898	232.261	263.3887	335.5837	351.2272	422.5352	447.1449	450.4057	571.7204	718.5885	785.0726	805.4029	875.5743	943.4732	986.0596	1019.2296	1064.4009	1101.4498	1127.4153	1152.2812	1170.3051	1179.1144	1192.1346	1213.004	1220.5501	1317.357	1368.5812	1417.828	1444.4157	1471.4148	1481.2911	1481.9912	1487.2048	1493.8343	1498.2458	1501.4302	1511.269	1789.5967	3024.1797	3047.5042	3052.7066	3094.7144	3096.0969	3101.6761	3116.2492	3127.4694	3131.8616	3160.0302	3187.3092
COC(=O)C1(C)CN1C	COC(=O)[C@@]1(C)CN1C	
InChI=1S/C6H11NO2/c1-6(4-7(6)2)5(8)9-3/h4H2,1-3H3	InChI=1S/C6H11NO2/c1-6(4-7(6)2)5(8)9-3/h4H2,1-3H3/t6-,7?/m1/s1
