22
gdb 99139	3.41072	0.8299	0.70928	3.7658	84.31	-0.2337	0.0409	0.2746	1657.5235	0.19317	-404.374651	-404.364063	-404.363119	-404.411346	37.663	
C	-0.4456991519	 1.1881637448	 0.9372502729	-0.332351
N	 0.0617378479	-0.1504724048	 1.1575047584	-0.302332
C	 1.1253290364	-0.6544832307	 0.4687484759	 0.391018
O	 1.7389735752	-0.0200057065	-0.3716360158	-0.382066
C	 1.491825601	-2.107478446	 0.7936086977	-0.316726
C	 1.1277116954	-2.6036523128	 2.1780057353	-0.024856
C	-0.2314360047	-3.2174591598	 2.4749294091	-0.301235
C	 1.011043905	-4.0735374143	 2.5130376718	-0.014194
C	 1.2358604914	-5.1742663625	 1.4988682297	-0.404111
H	 0.2036627564	 1.6636149813	 0.2011710456	 0.169906
H	-1.4712656827	 1.1719583088	 0.5498599942	 0.121226
H	-0.4327066085	 1.7767580574	 1.8615494018	 0.121307
H	-0.3929742175	-0.7472661246	 1.8284188016	 0.253993
H	 1.0169858589	-2.7259154416	 0.0229056672	 0.123033
H	 2.5695748649	-2.1844279333	 0.6203202159	 0.130866
H	 1.5422654168	-1.9926245955	 2.9764528237	 0.092798
H	-0.7324624546	-2.9744165053	 3.4063949252	 0.111719
H	-0.9050027639	-3.3652338836	 1.6350442421	 0.114244
H	 1.3594052644	-4.3284986467	 3.5107980599	 0.087985
H	 0.8270780438	-4.9200065065	 0.5170082642	 0.118406
H	 2.3029345106	-5.386596297	 1.3698831517	 0.122008
H	 0.7496914956	-6.1005574808	 1.8235485721	 0.119363
47.0586	66.9977	84.1123	112.7566	160.7173	186.2321	220.9146	273.9258	327.3768	386.4391	450.599	467.1967	503.9923	631.2066	686.5723	758.4871	832.239	870.8162	879.337	881.4641	934.3112	980.9553	1045.886	1070.6687	1101.6006	1109.5985	1143.3691	1154.9125	1159.2532	1172.494	1201.9138	1237.4952	1251.0762	1273.5324	1308.6152	1392.555	1417.7858	1428.5155	1435.9052	1461.339	1492.1292	1493.7249	1494.7772	1501.7124	1506.1649	1562.5325	1778.7347	3023.181	3032.5245	3046.9173	3072.9946	3088.9435	3091.5366	3108.2691	3118.0527	3128.6367	3141.0374	3151.7319	3202.51	3645.3583
CNC(=O)CC1CC1C	CNC(=O)C[C@H]1C[C@H]1C	
InChI=1S/C7H13NO/c1-5-3-6(5)4-7(9)8-2/h5-6H,3-4H2,1-2H3,(H,8,9)	InChI=1S/C7H13NO/c1-5-3-6(5)4-7(9)8-2/h5-6H,3-4H2,1-2H3,(H,8,9)/t5-,6-/m1/s1
