17
gdb 105566	1.99061	1.55598	1.31395	2.518	75.68	-0.2411	0.0066	0.2477	1089.5318	0.134705	-417.948462	-417.939332	-417.938388	-417.982262	33.479	
C	-0.001429368	 1.5183739645	 0.127775677	-0.338001
N	-0.0348541053	 0.0598701571	-0.0279127842	-0.331671
C	-1.3778403913	-0.5146315149	-0.0292067471	-0.014992
C	-1.3518753192	-2.0580248818	 0.1699276799	-0.116628
O	-1.9125841249	-1.9083421701	 1.5078722562	-0.250073
C	-1.9887115294	-0.5437232254	 1.3810178336	 0.444658
N	-2.4047951873	 0.3375417044	 2.1657600446	-0.542943
C	-2.2610185469	-0.0361612518	-1.0906201328	 0.316748
C	-2.9445036996	 0.3625714981	-1.9960490796	-0.480113
H	 1.0431057085	 1.8408013884	 0.1272830469	 0.118667
H	-0.54042843	 2.0600333392	-0.6638662517	 0.112989
H	-0.4478125384	 1.784547263	 1.0881981266	 0.163557
H	 0.4124151182	-0.1925298765	-0.9050930579	 0.224058
H	-2.0182142855	-2.633731153	-0.4741054179	 0.12963
H	-0.3479389519	-2.4842450457	 0.2081410113	 0.127382
H	-2.7230321102	-0.0657773441	 3.0487702527	 0.232825
H	-3.5629140889	 0.7204240287	-2.7822115977	 0.203907
107.3425	116.3567	125.3816	169.1562	192.5906	255.3471	301.5843	373.6071	411.8813	518.0989	566.3029	639.6459	646.2606	653.71	701.541	769.785	800.7045	860.1862	908.4994	968.8959	1008.3495	1021.9596	1064.089	1147.9681	1162.4411	1182.0323	1201.3844	1224.5704	1249.0375	1360.9917	1456.6182	1475.7661	1495.2246	1498.4394	1523.3295	1825.0326	2226.5611	2994.8214	3075.2492	3090.3127	3137.4369	3147.5765	3475.4631	3498.3159	3498.7782
CNC1(COC1=N)C#C	CN[C@]1(CO[C]1[NH])C#C	
InChI=1S/C6H8N2O/c1-3-6(8-2)4-9-5(6)7/h1,7-8H,4H2,2H3	InChI=1S/C6H8N2O/c1-3-6(8-2)4-9-5(6)7/h1,7-8H,4H2,2H3/t6-/m0/s1
