18
gdb 31346	3.2443	1.13621	0.89808	6.7979	82.91	-0.2099	-0.0076	0.2022	1306.5569	0.149469	-402.01794	-402.009558	-402.008614	-402.051389	31.6	
C	 0.0322836527	 1.557636663	 0.1750292594	-0.372706
C	-0.0039268175	 0.0359651845	-0.053480136	-0.292624
C	-1.4000004123	-0.5290975504	-0.0837602787	 0.411142
C	-2.028631478	-0.9715378571	-1.2022455277	-0.344802
C	-3.3995660823	-1.4884122177	-1.1960504385	 0.39013
O	-3.9738473833	-1.8868426616	-2.2053812064	-0.405047
C	-4.0176795905	-1.4832960266	 0.1341678263	-0.25204
C	-3.3491563724	-1.0351705644	 1.2192797708	 0.023135
N	-2.0656147692	-0.5630930862	 1.1211448393	-0.3744
H	 1.0642987081	 1.9193867174	 0.1893329879	 0.125796
H	-0.5050431718	 2.0806668499	-0.6210176291	 0.138056
H	-0.4312090086	 1.8372608346	 1.1270037298	 0.112181
H	 0.4823732141	-0.2062979753	-1.00158968	 0.130055
H	 0.5754770688	-0.4678015168	 0.7323631983	 0.110199
H	-1.5100528622	-0.9484645576	-2.1538020113	 0.102051
H	-5.0316645144	-1.8517607695	 0.2278844502	 0.110071
H	-3.7727419595	-1.0204503852	 2.2169635776	 0.129162
H	-1.5912160519	-0.249594251	 1.951456568	 0.25964
51.1146	132.74	169.2344	205.5911	298.5639	325.5197	419.576	481.1491	497.9659	517.9157	531.6164	659.13	734.7677	743.6924	789.2914	838.6743	889.4765	896.9305	959.2996	980.1974	997.4754	1063.1549	1085.5495	1111.9329	1186.1947	1235.994	1242.5029	1279.708	1352.397	1376.9491	1413.7489	1426.723	1481.4476	1497.0986	1506.4663	1527.0931	1640.8349	1677.1637	1731.4997	3018.9652	3039.3328	3092.3552	3112.4315	3122.3469	3193.9663	3200.5722	3219.0081	3653.9253
CCC1=CC(=O)C=CN1	CCc1cc(=O)cc[nH]1	
InChI=1S/C7H9NO/c1-2-6-5-7(9)3-4-8-6/h3-5H,2H2,1H3,(H,8,9)	InChI=1S/C7H9NO/c1-2-6-5-7(9)3-4-8-6/h3-5H,2H2,1H3,(H,8,9)
