12
gdb 21704	8.59123	1.19366	1.04804	6.6719	66.92	-0.2262	-0.0431	0.1832	1026.8511	0.083944	-410.828472	-410.821199	-410.820254	-410.860469	25.211	
N	-0.0048469494	 1.3552277384	-0.0397423755	-0.487986
C	-0.0796223515	 0.0191134664	-0.1748580222	 0.128661
N	-1.0484049703	-0.6540011925	 0.3466968567	-0.36413
C	-1.0745718948	-2.0068995561	 0.1784061748	 0.482149
C	-1.988152265	-2.924226802	 0.6315411321	-0.21048
N	-1.5761229396	-4.1538048461	 0.2025818769	-0.107641
N	-0.5124968269	-4.0791890117	-0.4605197065	-0.032611
O	-0.1343485584	-2.6718889598	-0.5079910537	-0.238948
H	 0.7480327024	 1.8804384836	-0.444615986	 0.277951
H	-0.7190925221	 1.8405060679	 0.4789854166	 0.277516
H	 0.7335961916	-0.4288146297	-0.7510783236	 0.143341
H	-2.8788183159	-2.7765164684	 1.2157096704	 0.132177
78.5748	137.4157	162.8577	177.8726	360.7568	418.676	448.9413	615.4222	627.8716	686.1069	747.5757	786.2414	810.072	977.4467	1022.7635	1028.1081	1095.3496	1134.1984	1285.1888	1318.5234	1352.2127	1385.8541	1453.0613	1602.7076	1642.7416	1716.0901	3107.6463	3300.2402	3612.1227	3754.2979
NC=NC1=CN=NO1	NC=Nc1cnno1	
InChI=1S/C3H4N4O/c4-2-5-3-1-6-7-8-3/h1-2H,(H2,4,5)	InChI=1S/C3H4N4O/c4-2-5-3-1-6-7-8-3/h1-2H,(H2,4,5)
