18
gdb 68012	2.7912	1.62754	1.23776	3.2087	71.8	-0.2387	0.0157	0.2543	1042.6756	0.147857	-439.109515	-439.101181	-439.100237	-439.142319	32.105	
C	-0.112411425	 1.4876315639	 0.0196929334	-0.488452
C	 0.090020407	 0.0021786932	 0.0355695127	 0.431534
C	 1.0219223634	-0.7920069084	-0.9140594684	-0.300036
C	 0.6944211816	-1.9342646225	 0.1079939482	 0.147439
N	 1.4759092958	-3.1274805382	 0.2147608164	-0.604567
C	 0.7003389162	-0.8131833793	 1.2033211243	-0.300034
C	-0.8221326417	-2.0055233225	-0.1231251081	 0.412796
O	-1.5563175146	-2.9409832673	-0.2437051335	-0.363825
O	-1.1990941517	-0.6918625586	-0.1671219882	-0.275582
H	 0.8426024596	 1.9990546515	 0.1696489351	 0.12603
H	-0.5329931593	 1.8089210051	-0.9377822894	 0.137473
H	-0.798924402	 1.7914325822	 0.8154817156	 0.137469
H	 0.6982841707	-0.9112448487	-1.9508412563	 0.113025
H	 2.0666835735	-0.4812819478	-0.855763788	 0.117238
H	 1.1127504654	-3.7021486371	 0.9722226967	 0.239608
H	 1.355412853	-3.6863323384	-0.6272862693	 0.239608
H	 1.7143712737	-0.5044658668	 1.4639104007	 0.117243
H	 0.0838480044	-0.9517057802	 2.0947400081	 0.113033
66.3894	177.2689	206.6824	247.4062	248.8412	276.7567	386.2018	487.7175	495.6232	544.3869	579.9185	615.3708	727.7417	754.3944	775.765	855.0134	889.1228	906.6529	908.091	961.4372	986.8857	1026.032	1037.1141	1084.9892	1161.3074	1164.1044	1193.1545	1196.1872	1251.5286	1307.3257	1332.7207	1375.8228	1424.156	1476.2119	1481.1869	1491.5039	1519.5184	1658.8436	1903.2634	3044.0987	3065.8828	3071.2157	3117.6379	3121.3106	3135.9897	3141.1165	3476.103	3545.568
CC12CC(N)(C1)C(=O)O2	C[C@@]12C[C@@](N)(C1)C(=O)O2	
InChI=1S/C6H9NO2/c1-5-2-6(7,3-5)4(8)9-5/h2-3,7H2,1H3	InChI=1S/C6H9NO2/c1-5-2-6(7,3-5)4(8)9-5/h2-3,7H2,1H3/t5-,6-
