19
gdb 42050	2.98838	1.51803	1.10888	1.8761	70.83	-0.2503	0.0654	0.3157	1091.4134	0.161423	-460.139242	-460.131715	-460.130771	-460.171485	29.178	
C	 0.1485698393	 1.5410058027	 0.2468433273	-0.10056
O	 1.4348929363	 1.4867544048	-0.4074078472	-0.295568
C	 1.351750986	 0.0511975638	-0.5715242108	 0.111512
C	 2.4540684856	-0.7122730098	 0.1508246916	-0.228639
C	 2.1351018054	-2.2070144523	 0.2875774199	-0.087938
O	 1.2501557095	-2.4973679562	 1.3614553561	-0.223543
C	-0.0633893252	-2.0493787209	 1.2095540351	 0.01348
O	-0.2034714831	-0.649656263	 1.2994970512	-0.243146
C	-0.0591757773	 0.0301358178	 0.075448817	 0.053209
H	 0.2230094926	 1.8516070671	 1.2951170115	 0.11676
H	-0.5561843905	 2.1910973302	-0.2832904942	 0.104827
H	 1.3451455931	-0.2147517401	-1.638139268	 0.07433
H	 3.3928743185	-0.5858534419	-0.4011062889	 0.105809
H	 2.599728932	-0.2934107624	 1.1506888629	 0.124225
H	 1.7267356356	-2.6045590733	-0.6578966145	 0.088159
H	 3.0470210188	-2.766592911	 0.5117835363	 0.115771
H	-0.4893226679	-2.4056659496	 0.2533149216	 0.074309
H	-0.6190794706	-2.4727047775	 2.0491954846	 0.11784
H	-0.8624501083	-0.2560652582	-0.6159278916	 0.079164
78.6861	157.5362	237.6232	282.2152	334.0176	372.3633	427.4198	458.515	568.8347	635.5109	755.4145	786.6973	863.328	891.2873	945.7953	981.0911	995.7205	1024.8009	1032.1944	1061.4454	1082.0898	1121.9654	1143.9751	1147.4112	1163.8703	1197.1245	1239.672	1267.8726	1277.2796	1298.8141	1329.499	1349.3387	1356.8706	1387.6127	1397.5559	1409.0388	1451.484	1475.3522	1491.5244	1502.2311	1515.2563	2932.8408	2960.0625	2995.904	3016.688	3030.9937	3042.9125	3080.1317	3091.2351	3102.3639	3106.9815
C1OC2CCOCOC12	C1O[C@H]2CCOCO[C@@H]12	
InChI=1S/C6H10O3/c1-2-7-4-9-6-3-8-5(1)6/h5-6H,1-4H2	InChI=1S/C6H10O3/c1-2-7-4-9-6-3-8-5(1)6/h5-6H,1-4H2/t5-,6-/m0/s1
