18
gdb 119369	3.06058	1.06294	0.92883	2.3901	72.94	-0.2486	-0.0015	0.2471	1294.0411	0.14684	-439.01945	-439.010679	-439.009735	-439.053652	32.081	
O	-0.0723226265	 1.4291588684	-0.0526737492	-0.420996
C	 0.0229997321	 0.0172959464	 0.0524900238	-0.081708
C	-1.396510737	-0.5385953152	-0.0390718735	-0.337367
C	-1.4245406544	-2.0357165244	 0.0288335386	 0.18954
C	-2.6409678292	-3.0235096005	-0.0130195073	-0.292417
C	-1.3774266889	-3.938480785	-0.0373736011	-0.158406
N	-0.695182092	-2.9463954507	-0.9794510888	-0.355433
C	-0.8457564928	-3.0186769224	 1.0767564444	 0.494505
O	-0.3309401239	-3.0379366111	 2.1470185373	-0.32432
H	 0.813936774	 1.7949935858	 0.019305482	 0.288062
H	 0.6365873888	-0.4105825706	-0.7539122818	 0.106931
H	 0.4740581947	-0.2888014072	 1.0083820401	 0.110867
H	-1.9951961043	-0.1312376945	 0.7840168487	 0.12384
H	-1.8592687133	-0.1887267195	-0.9699518684	 0.113119
H	-3.3244506033	-3.0693839328	 0.8408907949	 0.115563
H	-3.1786744751	-3.0033991064	-0.9659472785	 0.109536
H	-1.307289883	-5.0147211547	-0.1756598058	 0.104575
H	-1.2452414961	-2.9299855456	-1.8459468153	 0.214109
63.0655	88.0834	121.2884	190.2127	238.5956	256.4169	344.2129	374.9086	491.7036	545.6587	693.8696	702.498	771.4738	795.4663	808.1119	818.291	892.859	933.5132	979.2555	1023.0606	1037.9198	1049.7291	1085.684	1087.5066	1127.6142	1168.2709	1196.8512	1210.0162	1245.3801	1271.7736	1287.1438	1308.3792	1327.2625	1386.5605	1463.685	1482.69	1495.6196	1532.5908	1936.2867	2986.8042	3017.8367	3034.2639	3037.6353	3077.7741	3110.6241	3155.3305	3368.6718	3832.7359
OCCC12CC(N1)C2=O	OCC[C@@]12C[C@@H](N1)C2=O	
InChI=1S/C6H9NO2/c8-2-1-6-3-4(7-6)5(6)9/h4,7-8H,1-3H2	InChI=1S/C6H9NO2/c8-2-1-6-3-4(7-6)5(6)9/h4,7-8H,1-3H2/t4-,6+/m1/s1
