16
gdb 103525	1.99099	1.69657	1.60087	2.8512	64.42	-0.2739	-0.0314	0.2424	975.7418	0.123685	-475.069089	-475.060617	-475.059673	-475.102163	30.983	
C	-0.0355948522	 1.5374605688	-0.0256797283	-0.425587
C	-0.0242000326	 0.0055048732	 0.0060637251	 0.068366
C	-1.4612585591	-0.5602513829	 0.0023397168	-0.080234
O	-1.4810634234	-1.9688440255	-0.0277281634	-0.420355
N	 0.7195680879	-0.5605416214	-1.1311727239	-0.284327
C	 1.6576503368	-1.2422173184	-0.6199404814	 0.105967
O	 1.7844221525	-1.2865142752	 0.743121391	-0.203011
C	 0.7303016597	-0.5102313567	 1.2358219958	 0.451657
O	 0.5505899392	-0.336387617	 2.3975543616	-0.323004
H	 0.9815522538	 1.9356721113	-0.0604849613	 0.135133
H	-0.570255281	 1.8872784963	-0.9122917367	 0.136842
H	-0.528510977	 1.923708376	 0.8705614481	 0.145201
H	-1.9585196612	-0.2554457752	 0.9277033153	 0.136224
H	-1.9999611024	-0.1199858273	-0.8487003876	 0.105012
H	-1.1105168447	-2.2392724322	-0.8755415897	 0.292895
H	 2.4075510137	-1.8098898438	-1.1584640114	 0.15922
106.1081	109.6164	187.9574	197.9814	243.8492	280.4441	313.5245	407.4865	456.2813	530.1185	605.3375	631.9861	734.7019	763.9893	818.6726	881.3915	939.113	955.0415	985.9895	1012.0063	1091.3284	1135.4184	1148.9014	1174.9549	1227.707	1275.1891	1342.6915	1386.5389	1404.4148	1421.555	1482.1858	1493.0176	1495.0998	1688.4792	1922.4047	3006.2098	3049.8055	3098.8654	3127.7289	3133.0476	3222.1918	3801.8921
CC1(CO)N=COC1=O	C[C@@]1(CO)N=COC1=O	
InChI=1S/C5H7NO3/c1-5(2-7)4(8)9-3-6-5/h3,7H,2H2,1H3	InChI=1S/C5H7NO3/c1-5(2-7)4(8)9-3-6-5/h3,7H,2H2,1H3/t5-/m0/s1
