20
gdb 40200	2.98174	1.54781	1.23736	2.6044	77.66	-0.2369	0.066	0.3029	1064.901	0.173294	-403.112251	-403.104678	-403.103734	-403.144526	30.182	
C	-0.096545245	 1.4736660379	 0.0916415504	-0.300998
N	 1.1945080089	 0.7552881596	 0.1287754659	-0.358787
C	-0.0613265823	-0.0013682531	-0.0031607284	 0.337612
C	-0.4155284273	-0.9376782841	 1.1445956716	-0.148757
O	-0.202337956	-2.2519761602	 0.6368194376	-0.261174
C	-0.5182144778	-2.2477577661	-0.7426700273	 0.128115
C	-2.0330485577	-2.2559534145	-1.1092685248	-0.247364
C	-1.9009956394	-0.8154681436	-1.6831645988	-0.236745
C	-0.3987786536	-0.7777508339	-1.2635856383	-0.14247
H	-0.3754771674	 1.9578440856	 1.0244167365	 0.117619
H	-0.3590281761	 2.0371281476	-0.800736178	 0.111112
H	 1.6549870836	 0.8312848386	-0.7757345653	 0.227097
H	 0.2309059135	-0.7910997248	 2.0121976997	 0.124275
H	-1.4649483228	-0.8011488377	 1.4531617774	 0.088128
H	 0.0864570202	-3.0204450077	-1.2218837336	 0.080502
H	-2.3209610119	-3.0198157302	-1.835209195	 0.101712
H	-2.6814934327	-2.3518935322	-0.23521446	 0.110193
H	-2.0492274733	-0.7524601687	-2.7634377161	 0.102479
H	-2.5288346702	-0.0562393641	-1.2094302273	 0.101234
H	 0.3091137072	-0.5814390985	-2.0722754964	 0.066219
64.8118	152.3682	207.297	294.2569	350.6377	398.9912	442.1123	537.8958	651.9837	723.7229	744.6452	792.1629	835.6012	864.0881	892.4709	916.7426	925.0237	957.2781	967.9682	982.5453	1014.6817	1026.7827	1064.0039	1077.4559	1116.817	1126.5575	1139.9272	1193.1188	1220.0495	1236.1818	1244.2196	1263.4002	1266.7281	1272.4377	1290.5177	1317.8877	1340.0912	1371.1274	1425.4299	1471.8876	1489.782	1511.4816	1516.3852	2970.196	3059.4175	3067.0598	3071.9652	3089.4333	3099.8097	3105.4732	3110.5382	3125.8423	3181.6324	3486.554
C1NC11COC2CCC12	C1N[C@]21CO[C@H]1CC[C@@H]21	
InChI=1S/C7H11NO/c1-2-6-5(1)7(3-8-7)4-9-6/h5-6,8H,1-4H2	InChI=1S/C7H11NO/c1-2-6-5(1)7(3-8-7)4-9-6/h5-6,8H,1-4H2/t5-,6+,7-/m1/s1
