19
gdb 30728	3.03409	1.18283	0.9089	1.8383	80.17	-0.1933	0.0294	0.2227	1328.9704	0.157665	-423.064694	-423.054806	-423.053862	-423.099974	35.165	
C	 0.0780193303	 1.5594561808	 0.3231110723	-0.368988
C	-0.0054390263	 0.0692310518	-0.0524834402	-0.297172
C	-1.3958768439	-0.4478725963	-0.1497727574	 0.286999
C	-2.1449156095	-0.9275134935	-1.1815702677	 0.101714
O	-1.7111364057	-1.039928076	-2.4716413713	-0.447213
C	-3.4430390797	-1.2728062056	-0.6650701506	 0.149936
C	-4.5903723077	-1.8395822101	-1.4399672968	-0.528895
C	-3.3777248424	-0.9689719326	 0.6589397098	-0.109741
O	-2.1612160912	-0.4716810596	 0.9910809845	-0.19176
H	 1.1207430073	 1.8834084614	 0.3990634377	 0.108761
H	-0.4202048694	 2.1797159515	-0.4281583288	 0.119688
H	-0.40660083	 1.743741515	 1.2861856631	 0.126941
H	 0.4728724857	-0.1018151002	-1.0222854311	 0.122726
H	 0.5587871681	-0.5196823453	 0.6834374979	 0.110625
H	-2.397001314	-1.469507971	-2.990800209	 0.297629
H	-4.3422387995	-2.8090599487	-1.8916084864	 0.126403
H	-5.4594730767	-1.9969380761	-0.7959871473	 0.135295
H	-4.9039483411	-1.1725243779	-2.2532499042	 0.128443
H	-4.0926314344	-1.0501956675	 1.4618962754	 0.128609
46.5119	105.1525	123.8241	142.4361	187.3556	224.9292	234.8156	279.1015	342.5071	385.0399	510.2486	560.9235	632.137	695.7112	723.6871	729.5281	737.2518	785.5031	942.2496	986.0508	1007.7882	1062.3048	1063.1347	1087.0135	1184.2845	1190.7833	1249.7422	1278.6068	1297.1663	1329.4679	1367.9599	1404.2839	1418.6429	1452.7163	1472.9473	1484.8141	1496.1978	1502.4102	1507.6931	1608.4241	1717.0021	3012.7036	3014.3859	3038.3957	3056.5088	3079.6382	3109.3229	3111.519	3118.4203	3266.8586	3840.8744
CCC1=C(O)C(C)=CO1	CCc1c(O)c(C)co1	
InChI=1S/C7H10O2/c1-3-6-7(8)5(2)4-9-6/h4,8H,3H2,1-2H3	InChI=1S/C7H10O2/c1-3-6-7(8)5(2)4-9-6/h4,8H,3H2,1-2H3
