21
gdb 99525	1.99159	1.41985	1.02995	0.5416	80.99	-0.2623	0.0398	0.302	1275.1789	0.176914	-424.182854	-424.171499	-424.170555	-424.218738	41.227	
C	-1.2353114729	 0.5559308434	 0.3861449636	-0.237744
O	 0.0936768566	 0.1963944638	 0.0687702061	-0.242164
C	 0.7812924415	-0.468845407	 1.1152588621	-0.063413
C	 0.2050627749	-1.7902556683	 1.3963992071	 0.357911
C	-0.3143780888	-2.8520952094	 1.6147390267	-0.466633
C	 2.2796548202	-0.5373669868	 0.7133746348	 0.322844
C	 2.4791644534	-1.4005237236	-0.5357669535	-0.425558
C	 2.8183942871	 0.8828258814	 0.5025396824	-0.418673
O	 2.9013917969	-1.1331280202	 1.852806226	-0.46878
H	-1.2720372178	 1.2286498641	 1.2568090179	 0.105535
H	-1.6379719671	 1.0787175919	-0.4842640597	 0.127178
H	-1.8548228355	-0.3251455813	 0.598038322	 0.123435
H	 0.7279499725	 0.130331107	 2.0397357549	 0.096836
H	-0.7571388511	-3.7964344723	 1.8152850363	 0.195962
H	 1.9178669175	-0.9930603545	-1.3802032939	 0.134896
H	 3.5398419343	-1.4269075115	-0.8114385097	 0.098309
H	 2.1406657942	-2.4223934295	-0.349690831	 0.133385
H	 2.7109789321	 1.4685188638	 1.4204396555	 0.11586
H	 3.8833205515	 0.84360546	 0.2472807605	 0.099098
H	 2.287834001	 1.3911347333	-0.3048762764	 0.133613
H	 3.8223923395	-1.3002906645	 1.6286640382	 0.278102
67.3966	102.5562	142.2126	179.1427	187.8309	198.6766	207.9145	252.0093	255.2815	314.633	333.7315	349.0513	405.7188	441.6114	474.808	575.9946	597.3403	627.7393	661.5879	792.4409	896.833	930.2698	968.0754	986.713	1016.6476	1035.6547	1134.811	1144.5818	1185.345	1188.2793	1215.3171	1238.27	1331.1205	1356.4925	1377.8444	1394.5992	1412.1652	1478.1374	1478.2783	1484.0942	1484.7567	1496.2635	1511.5488	1512.114	2229.7275	2965.1477	2986.0554	3032.179	3038.2844	3050.7869	3101.1312	3109.3904	3121.5457	3135.3822	3138.7767	3502.1042	3819.6924
COC(C#C)C(C)(C)O	CO[C@@H](C#C)C(C)(C)O	
InChI=1S/C7H12O2/c1-5-6(9-4)7(2,3)8/h1,6,8H,2-4H3	InChI=1S/C7H12O2/c1-5-6(9-4)7(2,3)8/h1,6,8H,2-4H3/t6-/m0/s1
