16
gdb 17082	5.35969	1.51441	1.43979	0.8689	80.26	-0.2144	-0.0228	0.1916	906.5369	0.131689	-309.408594	-309.402082	-309.401138	-309.439006	26.503	
C	 0.0702182212	-1.1505147161	-0.0331193895	-0.365956
C	-0.0077438096	 0.0531960736	-0.0126580172	 0.070023
C	-0.0434998322	 1.4572546131	 0.011633136	 0.274742
C	-1.0734987146	 2.3246246052	 0.0188720285	-0.200025
C	-0.3926408381	 3.6928563832	 0.048056714	-0.063719
C	 0.7410528799	 3.465241093	-1.0142054509	-0.208984
C	 1.1871610755	 2.3953703573	 0.0375257962	-0.119824
C	 0.7246176747	 3.4279153122	 1.1190418427	-0.208983
H	 0.1226881444	-2.2105151744	-0.0512619694	 0.182218
H	-2.1346282087	 2.1232619112	 0.0071723841	 0.111143
H	-1.0176159272	 4.5846617004	 0.0588456338	 0.066049
H	 0.4429074213	 3.109760852	-2.0030713971	 0.099502
H	 1.4344134631	 4.3083040106	-1.0929206113	 0.096312
H	 2.1742480013	 1.9363164078	 0.0370984042	 0.071688
H	 1.416456356	 4.2675219926	 1.2378694887	 0.096312
H	 0.4113733031	 3.0381420884	 2.0901586571	 0.099502
131.9194	161.3029	397.5839	465.9296	489.1885	535.0048	569.0205	573.9472	630.8986	635.0657	788.2871	800.4968	837.1921	854.666	868.1386	886.8874	936.2816	1003.2768	1009.4706	1064.8481	1073.6656	1104.9355	1108.1842	1179.2316	1216.245	1225.7362	1234.9979	1243.0501	1268.9965	1305.8076	1481.4682	1517.9678	1635.0744	2217.4367	3047.1027	3056.3497	3118.5387	3123.1451	3127.4703	3134.9079	3241.0229	3504.1069
C#CC1=CC2CC1C2	C#CC1=C[C@@H]2C[C@H]1C2	
InChI=1S/C8H8/c1-2-7-3-6-4-8(7)5-6/h1,3,6,8H,4-5H2	InChI=1S/C8H8/c1-2-7-3-6-4-8(7)5-6/h1,3,6,8H,4-5H2/t6-,8+
