20
gdb 39117	3.90745	1.16098	1.02581	2.2771	79.68	-0.1968	0.0807	0.2775	1214.2663	0.17149	-403.067873	-403.059864	-403.05892	-403.100906	30.907	
C	-0.3717552105	 0.9522078893	 1.3028499185	-0.341884
C	 0.6017034459	 1.2460193008	 0.1923670729	 0.027703
O	 1.8585564173	 0.6228461132	 0.4602821468	-0.283087
C	 1.2434437862	-0.6930888075	 0.447401961	-0.128442
C	-0.1474869344	-0.0960807287	 0.2438423079	 0.309008
N	-1.1621037727	-0.7455071214	-0.4840037084	-0.161395
C	-1.0268690267	-1.0037190734	-1.9353316275	-0.16948
C	-2.5623337658	-0.8552200766	-2.0602206465	-0.232162
C	-2.5054399934	-0.167157018	-0.6737032947	-0.17108
H	-0.0119446221	 0.8129732829	 2.3206760714	 0.110898
H	-1.3201523301	 1.4762095462	 1.2227525404	 0.113867
H	 0.5907556479	 2.1226693951	-0.4445845787	 0.101242
H	 1.5985001348	-1.2723803904	-0.4132594306	 0.105601
H	 1.42362833	-1.2543922387	 1.3720905063	 0.103966
H	-0.4802515883	-0.2058411042	-2.4620827752	 0.091803
H	-0.5819416878	-1.9699108065	-2.1927694938	 0.104846
H	-2.9378365397	-0.2602139038	-2.8925108712	 0.107639
H	-3.0817429503	-1.8144510806	-2.0327261334	 0.115906
H	-3.2419616035	-0.4568375044	 0.0825672447	 0.106424
H	-2.5062287968	 0.9309144568	-0.7648692701	 0.088629
57.7852	119.3356	171.4534	209.7561	307.2648	399.7309	442.3827	458.7233	496.0879	724.3009	753.9081	812.5461	846.733	855.8491	916.9291	921.7194	940.4594	953.6776	966.0099	986.2044	1007.9578	1042.7705	1071.7452	1095.868	1111.8057	1125.8534	1132.3743	1150.1387	1159.5281	1212.6326	1214.2344	1243.0511	1269.5283	1285.5269	1308.4617	1326.8415	1347.973	1420.637	1484.4836	1490.4098	1505.7782	1514.8647	1532.3063	2969.9944	2981.5871	3019.5127	3062.7251	3065.6911	3070.6921	3089.6025	3097.746	3145.4714	3181.5607	3195.3446
C1C2OCC12N1CCC1	C1[C@H]2OC[C@@]12N1CCC1	
InChI=1S/C7H11NO/c1-2-8(3-1)7-4-6(7)9-5-7/h6H,1-5H2	InChI=1S/C7H11NO/c1-2-8(3-1)7-4-6(7)9-5-7/h6H,1-5H2/t6-,7+/m1/s1
