21
gdb 62558	1.83759	1.60491	1.58468	2.3756	78.81	-0.2168	0.0595	0.2763	1084.0088	0.179413	-424.193901	-424.183729	-424.182785	-424.228235	38.33	
C	-0.0262262601	 1.518986966	 0.0536695868	-0.46255
C	 0.0891058019	 0.0031579935	 0.0605240883	 0.161661
C	-1.1492349805	-0.6853066785	-0.5007417751	-0.48529
C	 1.3850587284	-0.7590776574	-0.2401484727	 0.272869
O	 1.4534069245	-1.7601037987	-1.1968967188	-0.459804
C	 2.6139390363	-0.0312340561	 0.308100154	-0.300787
C	 1.9778929151	-0.0723356022	 1.738425766	-0.286114
C	 0.7592594913	-0.7870574497	 1.168025532	 0.334832
O	 0.1400074271	-1.7642945099	 1.9260962288	-0.463606
H	 0.858581127	 2.0122832218	 0.461822209	 0.12131
H	-0.1727279946	 1.8946430056	-0.9663483442	 0.108327
H	-0.8879075264	 1.8463352579	 0.6477864308	 0.114269
H	-1.3864994352	-0.2993012845	-1.4985630498	 0.11478
H	-1.0147872971	-1.7654276654	-0.5976681303	 0.137872
H	-2.0268631892	-0.4905084595	 0.1295932906	 0.112888
H	 1.3921341897	-1.3575473928	-2.0710717938	 0.282751
H	 3.5079130244	-0.6547651577	 0.2388156734	 0.10995
H	 2.8380943566	 0.9579067884	-0.1051484647	 0.089021
H	 2.535633344	-0.7253911341	 2.4130579184	 0.114554
H	 1.8011639663	 0.8848929994	 2.2388228267	 0.094506
H	-0.7690466594	-1.8690475562	 1.6289051945	 0.28856
68.7663	167.1668	171.3929	182.535	208.1079	254.0746	263.2148	273.9484	296.6044	334.6764	400.3516	448.5614	488.6698	612.3402	637.3512	652.652	688.041	737.1589	818.2219	933.7027	942.5911	966.4384	995.0497	1034.1612	1081.9406	1091.0035	1127.388	1153.5578	1194.6378	1199.2539	1227.9647	1236.2667	1257.5024	1285.0729	1328.2821	1378.2897	1403.5996	1420.4768	1449.2891	1472.6308	1490.1345	1492.6537	1508.4079	1514.5397	1524.3579	3016.547	3022.9682	3042.9286	3054.0319	3071.6507	3075.2683	3101.0311	3117.304	3118.322	3120.6117	3774.7405	3824.8896
CC1(C)C2(O)CCC12O	CC1(C)[C@@]2(O)CC[C@@]12O	
InChI=1S/C7H12O2/c1-5(2)6(8)3-4-7(5,6)9/h8-9H,3-4H2,1-2H3	InChI=1S/C7H12O2/c1-5(2)6(8)3-4-7(5,6)9/h8-9H,3-4H2,1-2H3/t6-,7+
