13
gdb 131401	3.34709	1.26436	0.9177	3.9952	63.65	-0.2243	-0.0135	0.2109	1153.3446	0.09056	-486.082167	-486.074137	-486.073192	-486.116047	28.27	
O	 0.1217793812	 1.3390337694	 0.1261917251	-0.440384
C	 0.0810367286	-0.0049827212	 0.0286975225	 0.304081
N	 0.1094716824	-0.6872199536	-1.1034160446	-0.295899
N	 0.0475013562	-1.9525041875	-0.679929716	-0.087888
N	-0.0182764058	-2.1419986318	 0.6342339391	-0.260984
C	 0.0015521391	-0.9023649219	 1.1161726214	 0.363322
N	-0.046784884	-0.5298753003	 2.4554554977	-0.410062
C	-0.124094304	-1.3453075633	 3.5610209071	 0.145145
O	-0.164165616	-2.549036072	 3.5551321277	-0.278738
H	 0.1741781625	 1.7044859421	-0.7652728064	 0.314845
H	 0.0513771524	-2.7265944165	-1.3211591171	 0.298674
H	-0.0204891346	 0.4653492371	 2.619262622	 0.267957
H	-0.1454156283	-0.7329551205	 4.4846674514	 0.079932
22.7019	147.2349	197.1804	238.4173	300.3582	320.9937	335.6102	440.8368	486.8603	549.9719	621.1947	686.317	744.1584	756.0917	893.6288	974.5043	1015.7589	1129.7388	1166.3299	1192.7447	1243.1664	1272.3083	1427.1754	1442.6839	1469.1593	1536.029	1611.3162	1637.4075	1829.4639	2934.5371	3624.8044	3694.3181	3808.0317
OC1=NNN=C1NC=O	Oc1n[nH]nc1NC=O	
InChI=1S/C3H4N4O2/c8-1-4-2-3(9)6-7-5-2/h1H,(H3,4,5,6,7,8,9)	InChI=1S/C3H4N4O2/c8-1-4-2-3(9)6-7-5-2/h1H,(H3,4,5,6,7,8,9)
