17
gdb 33111	6.55862	0.78622	0.70878	1.1512	72.2	-0.203	0.0347	0.2377	1560.8347	0.136019	-455.166146	-455.157155	-455.15621	-455.200639	31.98	
C	 0.0170193849	 1.3848526719	-0.011072837	-0.221334
O	 0.009610917	-0.0218234444	 0.0156326371	-0.234053
C	 0.6282490746	-0.5915101365	-1.1149307655	-0.170464
C	 0.5636846021	-2.0762868463	-1.0042703872	 0.230876
C	 0.0110968061	-2.8361238962	-0.0376803192	-0.119061
O	 0.2087403552	-4.1650997209	-0.3891345209	-0.185828
C	 0.8773932596	-4.0960180151	-1.5577235937	 0.451333
N	 1.1536649427	-5.2866858153	-2.1821233259	-0.589391
N	 1.1280661679	-2.8962220822	-1.9841036043	-0.393452
H	 1.0421121205	 1.787797523	-0.0323888946	 0.105464
H	-0.5240360912	 1.7798918739	-0.8855660684	 0.106051
H	-0.4799244174	 1.7315674532	 0.8980331451	 0.127371
H	 0.1311266501	-0.2632126962	-2.0446203953	 0.105381
H	 1.6807558855	-0.2675051093	-1.1956026352	 0.103995
H	-0.5085156551	-2.6498722653	 0.8830264998	 0.148964
H	 1.2886049431	-6.0685074654	-1.5579572646	 0.264038
H	 1.8736592544	-5.2025140388	-2.8841350803	 0.27011
54.4211	72.3838	123.3108	206.6977	228.673	294.2006	338.7022	342.5399	350.4369	476.9336	599.3782	636.3044	707.1207	721.9911	761.2469	786.4538	967.0464	999.3805	1019.0449	1049.1813	1100.3196	1134.3311	1164.448	1184.6277	1228.206	1230.0489	1239.9827	1281.5968	1420.5777	1452.4448	1482.1051	1484.4227	1500.879	1521.897	1603.9773	1656.2571	1685.043	2946.4343	2964.8826	2971.1667	3013.8025	3115.7313	3324.5917	3576.8056	3685.4047
COCC1=COC(N)=N1	COCc1coc(N)n1	
InChI=1S/C5H8N2O2/c1-8-2-4-3-9-5(6)7-4/h3H,2H2,1H3,(H2,6,7)	InChI=1S/C5H8N2O2/c1-8-2-4-3-9-5(6)7-4/h3H,2H2,1H3,(H2,6,7)
