15
gdb 29679	2.37379	1.98914	1.08962	3.6816	69.62	-0.2477	-0.0374	0.2103	1029.6836	0.114872	-454.047912	-454.040094	-454.03915	-454.080581	28.755	
C	-0.0121253491	 1.4558406149	-0.0006113705	-0.34112
N	 0.0057377182	-0.0080806248	 0.0110873651	-0.237958
C	 0.0807225844	-0.6221491364	-1.229437902	 0.514382
O	 0.1300239652	-0.0165162931	-2.2792824676	-0.398269
N	 0.0958234675	-2.0130982801	-1.1856164986	-0.397335
C	 0.0423001003	-2.7392728506	-0.0275088832	 0.043839
C	-0.0301907587	-2.1330890711	 1.1702228003	-0.258352
C	-0.0534504366	-0.6800904041	 1.2617288604	 0.444459
O	-0.1177152032	-0.0568696524	 2.303283839	-0.379407
H	 0.8951879142	 1.8373800765	-0.4739827838	 0.145595
H	-0.87185042	 1.8150001718	-0.5704988426	 0.145606
H	-0.0728495696	 1.7843160695	 1.0341715447	 0.168154
H	 0.1504406945	-2.458601254	-2.0876266747	 0.275532
H	 0.0623882293	-3.8159183693	-0.1480526779	 0.145569
H	-0.0732241264	-2.6894229268	 2.0944852314	 0.129303
80.662	122.2196	164.1789	227.3481	343.5568	406.64	423.8211	502.9297	541.2285	572.3807	588.4612	704.5584	738.0272	773.5842	823.9136	865.7569	968.4048	985.8382	1085.1446	1124.6735	1160.6358	1175.727	1230.2609	1286.0525	1391.8855	1408.4458	1455.2856	1494.7442	1495.4686	1510.2281	1688.1706	1766.9019	1816.5507	3065.4517	3128.5085	3190.6676	3207.8023	3253.7067	3653.1872
CN1C(=O)NC=CC1=O	Cn1c(=O)[nH]ccc1=O	
InChI=1S/C5H6N2O2/c1-7-4(8)2-3-6-5(7)9/h2-3H,1H3,(H,6,9)	InChI=1S/C5H6N2O2/c1-7-4(8)2-3-6-5(7)9/h2-3H,1H3,(H,6,9)
