20
gdb 86369	2.41769	1.18543	0.91678	3.2421	78.35	-0.253	0.0194	0.2724	1338.0502	0.168721	-440.271491	-440.261539	-440.260595	-440.309278	34.988	
C	 0.2225105435	 1.550975094	-0.350649665	-0.399771
C	 0.0190061608	 0.0902445886	-0.0091659297	 0.127835
O	 0.8097560193	-0.8010426741	-0.8311844852	-0.312186
C	 1.3747596303	-1.4705622172	 0.3211690536	 0.127839
C	 2.8877233266	-1.5173767521	 0.2986922804	-0.399779
C	 0.6718675868	-0.4745137435	 1.2776045894	 0.026143
O	 1.54966295	 0.4255570481	 1.9275657513	-0.179169
C	 1.4268924631	 0.6007258563	 3.2592546968	 0.125431
N	 2.1954473233	 1.3962034901	 3.8636388575	-0.442328
H	 1.2652973626	 1.8446033494	-0.2175365321	 0.141101
H	-0.0651375576	 1.72373201	-1.392066705	 0.127777
H	-0.4016281642	 2.1851365101	 0.287651129	 0.117756
H	-1.0462431975	-0.1746507962	-0.0755619604	 0.073964
H	 0.9606972453	-2.4851454845	 0.4134254373	 0.073964
H	 3.3122992058	-0.5120035734	 0.2814243002	 0.141104
H	 3.2688977135	-2.0408363525	 1.1817752915	 0.117752
H	 3.2208541947	-2.0591524826	-0.5916102899	 0.127784
H	-0.0164967029	-0.9188947704	 2.0030957741	 0.084814
H	 0.623263174	-0.0032434888	 3.7038287641	 0.088378
H	 1.9705481126	 1.4108520288	 4.8559998922	 0.231589
5.696	51.0833	110.1084	165.7268	196.6994	197.3575	244.4243	302.0579	382.8632	405.3435	451.6776	542.6261	626.7807	773.6825	804.6022	815.1649	874.688	927.702	936.0564	986.3123	1004.8447	1038.7348	1078.5286	1098.1301	1117.8147	1144.7237	1165.5825	1186.567	1238.3545	1282.1843	1289.0463	1340.2826	1358.1353	1386.4875	1404.0333	1404.8476	1414.9141	1432.0184	1481.3654	1486.964	1487.7872	1492.3571	1745.2211	2992.0863	2996.4893	3016.2004	3044.3072	3044.6129	3056.922	3111.7405	3111.9891	3140.9581	3142.5966	3522.371
CC1OC(C)C1OC=N	C[C@H]1O[C@@H](C)[C@H]1O[CH][NH]	
InChI=1S/C6H11NO2/c1-4-6(8-3-7)5(2)9-4/h3-7H,1-2H3	InChI=1S/C6H11NO2/c1-4-6(8-3-7)5(2)9-4/h3-7H,1-2H3/t4-,5+,6+
