15
gdb 27659	3.28148	1.20821	0.88657	1.5118	79.19	-0.1775	0.0314	0.2089	1237.3152	0.11227	-416.809429	-416.800484	-416.79954	-416.842849	33.445	
N	 0.1739651456	 1.4206335502	 0.1262686675	-0.61543
C	-0.0120316458	 0.0250313752	 0.0328637776	 0.281562
C	-1.1081509015	-0.7920395106	 0.0296317751	-0.344666
C	-0.6434643044	-2.1580720922	-0.0236335605	 0.063324
C	-1.3634774544	-3.3684650455	-0.0519039313	 0.174023
C	-1.9329799439	-4.433259951	-0.0791440634	-0.454198
C	 0.7394304921	-2.089303243	-0.0595922247	 0.299154
O	 1.6748300505	-3.057091812	-0.1208335651	-0.431986
N	 1.1191265012	-0.7875000076	-0.0234963294	-0.318934
H	 0.1759710131	 1.8733745412	-0.7838114966	 0.244251
H	-0.5624526621	 1.8463135199	 0.6760696155	 0.247958
H	-2.1397810691	-0.478081442	 0.0502209249	 0.095243
H	-2.4522741873	-5.3584174775	-0.1026447426	 0.179043
H	 1.205565788	-3.9014051622	-0.1465743768	 0.310869
H	 2.0659114379	-0.4540726029	 0.04156664	 0.269788
94.4791	119.3684	133.5018	223.1482	296.8178	323.5452	381.4131	415.1571	416.313	472.5779	496.8618	515.6289	594.6266	638.8832	663.6182	671.1972	695.9828	781.4932	803.285	816.5527	1018.3988	1146.8909	1163.3447	1191.7591	1211.3344	1269.5594	1369.1096	1408.5565	1564.8294	1589.4138	1632.1246	1659.362	2212.0243	3257.22	3485.4794	3503.4679	3586.8983	3677.8092	3778.7331
NC1=CC(C#C)=C(O)N1	Nc1cc(C#C)c(O)[nH]1	
InChI=1S/C6H6N2O/c1-2-4-3-5(7)8-6(4)9/h1,3,8-9H,7H2	InChI=1S/C6H6N2O/c1-2-4-3-5(7)8-6(4)9/h1,3,8-9H,7H2
