16
gdb 48303	3.06437	0.83148	0.69531	1.5794	73.05	-0.2445	-0.0544	0.19	1552.8009	0.119811	-437.843437	-437.833389	-437.832444	-437.88071	33.852	
O	-0.163903566	 0.1528937175	-0.1039156685	-0.240834
C	-0.0031511096	 1.343973089	-0.0579339999	 0.153371
C	 1.3892382651	 1.9816217852	 0.0392381625	-0.152727
N	 2.4807957389	 1.0328365314	 0.0353296566	-0.304445
C	 2.8882427711	 0.5902905816	 1.3786152697	-0.288637
C	 3.9410110802	-0.415588779	 1.3045330328	 0.275837
C	 4.7923985457	-1.2602821466	 1.2420336087	-0.414834
C	 1.5316141761	 3.0137296546	-1.0926098478	 0.136373
O	 0.7363761149	 3.8922447329	-1.2929367862	-0.243316
H	-0.8428926878	 2.0639783335	-0.1175677792	 0.119899
H	 1.3943067483	 2.5749450912	 0.9655437832	 0.135841
H	 2.1905544046	 0.2095755886	-0.4864075123	 0.240219
H	 3.2604510652	 1.4667575654	 1.9254447164	 0.138505
H	 2.0481005406	 0.1836293688	 1.9666309083	 0.130836
H	 5.5501662687	-2.0024852882	 1.1896194529	 0.202373
H	 2.4436015742	 2.859962144	-1.7074709572	 0.111539
20.9957	50.0914	93.7252	122.5224	127.4431	225.2934	258.9271	294.5065	341.2441	393.3826	498.6705	581.447	617.1777	669.7407	694.3734	798.514	831.915	864.9595	968.1351	999.749	1042.5512	1079.9255	1120.2273	1179.053	1202.7409	1255.3121	1305.2702	1370.2555	1386.0451	1402.9493	1493.9939	1518.4386	1808.2913	1839.9858	2246.8177	2918.5637	2948.3423	2959.7109	3018.5193	3030.8578	3504.8581	3505.6024
O=CC(NCC#C)C=O	O=CC(NCC#C)C=O	
InChI=1S/C6H7NO2/c1-2-3-7-6(4-8)5-9/h1,4-7H,3H2	InChI=1S/C6H7NO2/c1-2-3-7-6(4-8)5-9/h1,4-7H,3H2
