20
gdb 99143	3.2666	0.89564	0.78469	3.3982	77.42	-0.2389	0.0347	0.2736	1522.9723	0.16933	-440.304955	-440.294693	-440.293749	-440.341432	35.834	
C	 1.0794270105	 0.9219505968	 0.1667612545	-0.331575
N	 0.8691915501	-0.3813367462	-0.43002686	-0.297288
C	-0.1316023262	-0.6249510643	-1.3201810817	 0.38303
O	-0.9456757359	 0.2083582854	-1.6768481376	-0.376321
C	-0.1857164609	-2.0775949247	-1.8201165052	-0.340019
C	 1.1415079473	-2.610171572	-2.311380252	 0.047628
O	 2.1806664982	-2.8058085235	-1.3325463922	-0.26855
C	 1.6699170039	-3.9567095787	-2.0233232335	 0.075704
C	 0.9727249351	-5.0113755717	-1.2049571001	-0.420921
H	 1.0140050921	 0.8747776467	 1.259707333	 0.122321
H	 2.0585967317	 1.3329305853	-0.1046226497	 0.124421
H	 0.2986180555	 1.584270586	-0.208712176	 0.167005
H	 1.5171853283	-1.1300965507	-0.2346434242	 0.265481
H	-0.5741651865	-2.7000417867	-1.0083402849	 0.121036
H	-0.9145039311	-2.0980212105	-2.6338847128	 0.133279
H	 1.5035441975	-2.1260841593	-3.2201118423	 0.103398
H	 2.3777845642	-4.3558361245	-2.7525775113	 0.095682
H	 0.277804909	-4.5805868944	-0.4817634656	 0.130919
H	 0.4195783595	-5.6934907407	-1.8594091866	 0.130001
H	 1.7098368176	-5.6029205626	-0.6523450617	 0.134769
48.0896	65.3051	77.7826	124.333	155.8874	188.914	242.1879	276.1887	356.1515	395.0195	474.3098	492.0957	579.7896	652.4679	727.2493	758.9157	833.1642	869.3912	917.1491	953.5234	1002.5622	1069.3719	1098.6612	1111.0497	1153.4325	1174.5097	1176.4524	1180.8728	1222.0801	1288.802	1295.31	1312.4138	1397.3114	1420.0361	1438.0322	1458.7355	1465.6671	1489.5879	1497.8957	1500.6081	1508.7449	1579.0384	1785.0984	3025.3934	3042.3231	3063.7701	3075.0803	3085.1092	3098.6103	3104.0023	3120.7634	3137.3306	3152.5692	3608.1372
CNC(=O)CC1OC1C	CNC(=O)C[C@H]1O[C@H]1C	
InChI=1S/C6H11NO2/c1-4-5(9-4)3-6(8)7-2/h4-5H,3H2,1-2H3,(H,7,8)	InChI=1S/C6H11NO2/c1-4-5(9-4)3-6(8)7-2/h4-5H,3H2,1-2H3,(H,7,8)/t4-,5+/m0/s1
