17
gdb 126051	3.7892	1.085	1.05046	1.6679	74.4	-0.2443	-0.0021	0.2422	1196.3805	0.138799	-414.170012	-414.162121	-414.161177	-414.203139	29.174	
C	 1.0777955428	 1.0797008259	-0.7069952821	-0.400518
C	 0.0882466597	 0.1392709976	-0.067530753	 0.018662
N	 0.5967101085	-1.136774125	 0.449671797	-0.338427
C	 0.0460381191	-0.1578453283	 1.4022913903	-0.162714
C	 0.9961709589	 0.4061662768	 2.3817204149	 0.35005
N	 0.5967408229	 1.2323352415	 3.3547395212	-0.291198
N	 1.7217692154	 1.4980009213	 4.0067110282	-0.070849
N	 2.8247525369	 0.918361695	 3.5556558176	-0.198821
C	 2.3849742778	 0.2111755753	 2.5142619088	-0.127523
H	 2.0173533866	 1.104688218	-0.1509519786	 0.132373
H	 1.2982710586	 0.7650425191	-1.7324923944	 0.121331
H	 0.6724390579	 2.0963897588	-0.7436609615	 0.120771
H	-0.8866462678	 0.1133177257	-0.5541747365	 0.08716
H	-0.0644895262	-1.8911830415	 0.2909609904	 0.235839
H	-0.944833027	-0.3375743398	 1.8132021509	 0.09528
H	 1.7336823158	 2.1019002723	 4.8124687463	 0.291466
H	 3.0464151102	-0.4005156827	 1.9244127206	 0.137118
55.3807	118.493	164.6912	204.1512	284.0596	386.4499	445.0578	512.0388	522.6138	670.1827	722.3568	764.4228	786.5233	858.5405	901.7898	940.9287	986.2118	1002.2143	1020.2649	1030.8175	1070.6376	1131.0719	1155.4929	1181.4417	1203.923	1241.0246	1249.3587	1258.8498	1330.8047	1393.5455	1404.0091	1429.0852	1457.1824	1487.9091	1493.8544	1502.1059	1574.556	3038.8103	3100.3349	3102.9791	3131.7425	3135.2508	3288.5913	3515.9069	3670.0888
CC1NC1C1=NNN=C1	C[C@H]1N[C@H]1c1n[nH]nc1	
InChI=1S/C5H8N4/c1-3-5(7-3)4-2-6-9-8-4/h2-3,5,7H,1H3,(H,6,8,9)	InChI=1S/C5H8N4/c1-3-5(7-3)4-2-6-9-8-4/h2-3,5,7H,1H3,(H,6,8,9)/t3-,5-/m1/s1
