15
gdb 76852	2.68484	1.62515	1.37482	5.4232	60.6	-0.2692	0.005	0.2742	951.4615	0.112302	-494.893124	-494.885377	-494.884433	-494.925748	28.971	
O	-0.4381099324	 1.4275151694	 0.3838541823	-0.414005
C	-0.0797788679	 0.0964813719	 0.1111209883	 0.061473
C	 0.3443770628	-0.7544477057	 1.3650125636	 0.08009
O	 0.288024079	-0.0707309422	 2.5772772751	-0.416532
C	-0.8123424789	-1.7788516058	 1.0308747951	-0.289477
C	-1.2831982775	-0.8372699211	-0.1121849513	 0.082789
O	-2.4405768665	-0.4531288183	 0.6854956805	-0.251282
C	-2.1220109695	-1.3607320503	 1.6829275375	 0.467144
O	-2.7547814457	-1.6133137423	 2.6525615523	-0.314761
H	 0.3555006272	 1.9718798499	 0.3496550358	 0.300798
H	 0.6424141801	 0.0147434771	-0.7103079671	 0.086135
H	 1.3298512864	-1.2195564581	 1.2760600924	 0.098022
H	-0.2705916536	 0.7066556599	 2.4316064582	 0.297606
H	-0.5756022707	-2.8364373962	 0.9492390464	 0.108629
H	-1.5748984427	-1.1372485982	-1.1170174392	 0.103372
62.5965	141.5607	210.3093	239.8439	262.311	410.2738	460.8554	501.2604	548.1459	591.4451	670.6651	771.433	794.1637	813.6559	877.7904	896.2737	926.4635	987.943	1022.6633	1087.9492	1103.6897	1145.636	1165.396	1183.9919	1213.9241	1220.5819	1249.4859	1291.3023	1325.5928	1349.6683	1429.2236	1440.5639	1948.3452	3030.9055	3072.1506	3134.4384	3158.6703	3733.666	3820.0171
OC1C(O)C2C1OC2=O	O[C@H]1[C@@H](O)[C@@H]2[C@H]1OC2=O	
InChI=1S/C5H6O4/c6-2-1-4(3(2)7)9-5(1)8/h1-4,6-7H	InChI=1S/C5H6O4/c6-2-1-4(3(2)7)9-5(1)8/h1-4,6-7H/t1-,2+,3+,4-/m1/s1
