16
gdb 56700	2.7853	1.30179	1.03053	3.4888	74.89	-0.2816	-0.0007	0.2809	1158.6088	0.121321	-400.701089	-400.691853	-400.690909	-400.735207	33.511	
C	-0.1933055389	 1.6115238809	 0.5434589136	-0.401632
C	-0.0751958663	 0.1363267927	 0.1014390116	-0.249246
C	 0.8280301737	-0.6073137404	 0.9745861014	 0.320956
C	 1.5907870984	-1.1927640594	 1.6951579119	-0.451977
C	-1.4685238595	-0.5100509519	 0.0318965191	 0.25387
C	-1.7535830445	-1.8887726786	 0.475446879	-0.213214
O	-2.122841192	-0.7629525909	 1.2726556673	-0.245974
C	-2.3238221898	 0.0564411044	-1.0016424414	 0.268106
N	-2.9719769767	 0.5170223249	-1.8403421283	-0.333004
H	 0.7937142112	 2.0778204646	 0.5609395073	 0.135762
H	-0.8309499098	 2.1668322527	-0.1497543081	 0.1443
H	-0.62483928	 1.6694311315	 1.5454510147	 0.149114
H	 0.3300811321	 0.1102198789	-0.9192477108	 0.131466
H	 2.2674364159	-1.7084841404	 2.331324985	 0.206238
H	-2.5804589625	-2.4305915427	 0.0215922522	 0.138856
H	-0.9283539613	-2.4808373261	 0.8614174255	 0.146379
51.9269	129.4672	166.7883	192.213	219.9543	243.0678	275.1846	337.6384	414.3476	494.0255	538.3405	567.4404	603.9082	630.7062	661.4794	710.7858	843.2815	867.841	914.5682	962.7731	1027.9454	1091.439	1115.4323	1135.3118	1175.5069	1195.4921	1306.9545	1338.2153	1370.7388	1408.7306	1493.4609	1500.1307	1510.1606	2239.4836	2357.4681	3020.6326	3053.7789	3104.5763	3132.6235	3141.2371	3207.5222	3501.032
CC(C#C)C1(CO1)C#N	C[C@@H](C#C)[C@]1(CO1)C#N	
InChI=1S/C7H7NO/c1-3-6(2)7(4-8)5-9-7/h1,6H,5H2,2H3	InChI=1S/C7H7NO/c1-3-6(2)7(4-8)5-9-7/h1,6H,5H2,2H3/t6-,7+/m0/s1
