18
gdb 30106	3.68995	1.12177	1.09932	2.8449	78.88	-0.21	0.0317	0.2417	1186.8636	0.150387	-398.14993	-398.141966	-398.141022	-398.182799	30.291	
C	 1.1465593947	 1.0553764223	-0.6619523098	-0.401655
C	 0.1318455095	 0.1169868587	-0.0605030542	 0.024895
N	 0.6242578763	-1.127618355	 0.549942017	-0.360782
C	-0.0172306117	-0.1175892903	 1.412614131	-0.15898
C	 0.8620626609	 0.487100221	 2.4331095279	 0.387884
N	 0.5170963274	 1.375212703	 3.342730614	-0.325743
C	 1.6629965618	 1.6178776967	 4.0651310423	-0.092608
C	 2.7057272933	 0.8669708251	 3.5881458965	-0.11565
N	 2.1782716732	 0.148865757	 2.5394063964	-0.262514
H	 2.0366275664	 1.1322432584	-0.0337243957	 0.126344
H	 1.4558722932	 0.7055277752	-1.6525519202	 0.120026
H	 0.7202471034	 2.0576624872	-0.7729597009	 0.127952
H	-0.7994461999	 0.0406594782	-0.6208092433	 0.090202
H	-0.0047526538	-1.9045517503	 0.3718313167	 0.238733
H	-1.0299203531	-0.2954177813	 1.7649669628	 0.104144
H	 1.670981063	 2.3167236707	 4.8879309706	 0.102578
H	 3.7372723194	 0.7754230453	 3.8842794571	 0.123737
H	 2.6207707459	-0.5517367819	 1.9664240118	 0.271438
72.4413	117.1195	174.5198	212.2903	268.8426	386.7983	449.8161	510.3571	611.7584	668.8863	673.7365	727.4189	769.3448	786.1492	855.2391	857.2671	932.2346	938.0825	979.0446	1009.8173	1017.9442	1070.3259	1090.5672	1124.85	1141.3034	1167.3367	1184.1046	1240.8313	1249.7105	1289.3939	1365.8553	1402.7352	1417.263	1452.1598	1468.9864	1490.379	1497.5431	1513.9015	1594.1544	3040.004	3102.5195	3108.3503	3133.2009	3146.389	3246.5847	3280.76	3519.355	3654.4153
CC1NC1C1=NC=CN1	C[C@H]1N[C@H]1c1ncc[nH]1	
InChI=1S/C6H9N3/c1-4-5(9-4)6-7-2-3-8-6/h2-5,9H,1H3,(H,7,8)	InChI=1S/C6H9N3/c1-4-5(9-4)6-7-2-3-8-6/h2-5,9H,1H3,(H,7,8)/t4-,5-/m1/s1
