16
gdb 42873	2.96972	1.40692	1.39498	3.4038	68.97	-0.2375	-0.0317	0.2058	989.4364	0.12596	-437.925263	-437.917977	-437.917033	-437.957183	28.319	
O	 0.0434985035	 0.0225847035	 0.0377134226	-0.304969
C	-0.0050505738	 1.2139926561	-0.0016683804	 0.436964
C	-1.1182785422	 2.2781414459	 0.0693288166	-0.160642
C	-0.0609617733	 3.1435811371	 0.8326639226	-0.24329
C	 1.0348557233	 2.3721468335	 0.0417716044	-0.119931
N	 1.129110743	 2.9273289855	-1.306044317	-0.295879
C	 0.0120958368	 3.1842592465	-2.0599564987	 0.394505
O	 0.0599813496	 3.6246754173	-3.1888596869	-0.368811
C	-1.313430206	 2.8588872205	-1.3477630277	-0.329214
H	-2.0613599766	 2.0170147616	 0.5516758802	 0.098083
H	-0.0944131242	 4.2222699975	 0.6680609561	 0.119439
H	-0.0321121104	 2.9173596631	 1.9007039202	 0.123419
H	 2.0253560749	 2.2123864312	 0.4646341024	 0.102694
H	 2.0242955381	 3.04584313	-1.7551276316	 0.258217
H	-1.857436592	 2.1575200531	-1.9882678373	 0.149179
H	-1.9058517508	 3.7793618876	-1.3143156755	 0.140238
74.82	155.201	250.3891	371.0368	402.8759	447.9126	455.0185	486.7802	536.6678	606.9578	672.8619	782.9687	786.4886	839.444	870.7702	911.794	979.0401	992.7743	1031.5766	1073.8331	1092.1241	1104.8694	1118.3374	1180.116	1222.5134	1249.2338	1263.6314	1298.963	1340.2297	1359.3471	1439.9098	1464.9663	1483.7419	1808.3739	1905.0341	3053.8602	3071.6997	3095.8536	3106.548	3134.0432	3137.9799	3629.558
O=C1C2CC1NC(=O)C2	O=C1[C@H]2C[C@@H]1NC(=O)C2	
InChI=1S/C6H7NO2/c8-5-2-3-1-4(7-5)6(3)9/h3-4H,1-2H2,(H,7,8)	InChI=1S/C6H7NO2/c8-5-2-3-1-4(7-5)6(3)9/h3-4H,1-2H2,(H,7,8)/t3-,4-/m0/s1
