20
gdb 105759	2.36256	1.41001	1.1504	3.4884	79.02	-0.2775	0.0257	0.3031	1170.2474	0.171173	-403.169877	-403.160577	-403.159633	-403.204871	33.883	
C	 0.0101125464	 1.1859887359	-0.4969486285	-0.264142
O	-0.2398087747	-0.1987172948	-0.3174498825	-0.280207
C	-1.5123268453	-0.5594961364	 0.2056793221	 0.264747
C	-2.6590699479	-0.2892271523	-0.7979406149	-0.244644
C	-2.4687579479	-1.4085505722	-1.8294166514	-0.213371
C	-2.1490534844	-2.6506656511	-0.9693052726	-0.207146
C	-1.4927414091	-2.1077962725	 0.3300387621	-0.247256
C	-1.7375634448	 0.1026067993	 1.5079064875	 0.239831
N	-1.9145426105	 0.6309306367	 2.5207308747	-0.353067
H	 1.0518991162	 1.2662316024	-0.8138090655	 0.136723
H	-0.6271105881	 1.6305587888	-1.2725205392	 0.114309
H	-0.1244647419	 1.7460588154	 0.4373090534	 0.137123
H	-3.616141372	-0.3996957751	-0.275871556	 0.118993
H	-2.6281871831	 0.7204550345	-1.2127532798	 0.111959
H	-3.3456470494	-1.5458019148	-2.4667234849	 0.100209
H	-1.6210923016	-1.1659624472	-2.4769424219	 0.116165
H	-3.070778863	-3.1873338495	-0.7249226714	 0.10775
H	-1.4993359532	-3.3565716749	-1.4914923425	 0.109292
H	-0.4548214422	-2.4210575106	 0.4541581404	 0.130578
H	-2.0435863434	-2.4215626916	 1.2191450207	 0.122154
28.7769	94.6263	150.6864	161.7308	181.2073	257.641	288.0951	379.5138	436.5662	491.5916	559.1553	579.939	638.2439	743.8938	774.291	850.3183	875.778	908.7558	955.3783	987.1147	1020.7276	1040.9609	1084.3468	1109.7589	1133.5509	1182.6643	1208.9629	1221.2703	1224.2004	1249.4116	1287.9111	1300.6703	1329.856	1348.2361	1358.5673	1470.9632	1478.3751	1483.5072	1489.6971	1499.2191	1508.2345	1512.4218	2349.0339	3005.5234	3051.7821	3055.4469	3060.5255	3065.1933	3080.4854	3096.71	3109.0741	3116.2529	3127.1073	3132.5061
COC1(CCCC1)C#N	COC1(CCCC1)C#N	
InChI=1S/C7H11NO/c1-9-7(6-8)4-2-3-5-7/h2-5H2,1H3	InChI=1S/C7H11NO/c1-9-7(6-8)4-2-3-5-7/h2-5H2,1H3
