21
gdb 116041	2.50045	1.44789	1.04871	1.423	80.99	-0.2447	0.0218	0.2665	1215.9967	0.182292	-424.230144	-424.220937	-424.219992	-424.26396	34.389	
C	-0.0490294077	 1.404882582	 0.0969809064	-0.239787
O	 0.0069614825	-0.0101680351	 0.039315811	-0.246139
C	 0.6414612912	-0.5984373535	 1.1203813874	 0.220993
O	-0.1346219398	-0.3575325687	 2.2881152178	-0.267868
C	 0.532848956	-0.7594267257	 3.4702589552	-0.122894
C	 1.1596596274	-2.1203314342	 3.3431590651	-0.070922
C	 1.2672008407	-2.7345760772	 2.1673263271	-0.07389
C	 0.7864081204	-2.1056876538	 0.8800844713	-0.062367
C	-0.5169241995	-2.7521948166	 0.3801770956	-0.38297
H	 0.9598879649	 1.8389757852	 0.1686058543	 0.102954
H	-0.5149207207	 1.7404976852	-0.8318090408	 0.125919
H	-0.6427750651	 1.7487372652	 0.9501350828	 0.130541
H	 1.6432820486	-0.145933294	 1.2717616623	 0.049135
H	 1.3002214831	-0.015156678	 3.755474021	 0.096765
H	-0.2220275499	-0.7520336816	 4.2652712291	 0.119029
H	 1.5249275194	-2.5783459218	 4.2585651629	 0.090959
H	 1.7026537546	-3.7284924159	 2.1019342912	 0.09023
H	 1.5593007219	-2.2411334199	 0.1115463312	 0.081205
H	-1.3270105175	-2.5610410677	 1.0887735142	 0.127592
H	-0.8033280778	-2.3446453052	-0.5914420057	 0.12843
H	-0.3937531229	-3.8355431788	 0.2844334204	 0.103085
100.8154	115.2042	160.352	173.1515	227.8558	243.6167	276.3591	323.8676	404.1386	480.871	505.8179	527.2329	653.4525	726.1874	821.6013	848.9581	913.9659	922.4485	976.3325	997.0181	1023.6718	1051.6315	1070.3941	1107.3462	1121.1328	1132.0437	1174.618	1181.8729	1206.4475	1237.5257	1268.4292	1315.7738	1347.7479	1373.5056	1387.4992	1405.727	1408.9948	1418.4181	1479.0649	1482.5396	1488.2863	1491.9763	1505.4599	1513.0984	1721.9949	2885.6525	2929.0188	2992.0295	3017.8382	3045.7146	3051.7673	3076.4792	3115.8245	3128.6707	3136.1245	3149.8474	3173.6519
COC1OCC=CC1C	CO[C@H]1OCC=C[C@H]1C	
InChI=1S/C7H12O2/c1-6-4-3-5-9-7(6)8-2/h3-4,6-7H,5H2,1-2H3	InChI=1S/C7H12O2/c1-6-4-3-5-9-7(6)8-2/h3-4,6-7H,5H2,1-2H3/t6-,7+/m1/s1
