19
gdb 40094	3.26478	1.49417	1.2766	1.3861	74.39	-0.252	0.071	0.323	1036.5946	0.160828	-422.999253	-422.991838	-422.990894	-423.031338	29.342	
C	-0.4485840204	 1.2928373769	 0.0268589787	-0.310319
C	 1.0243303694	 0.9840764669	-0.0768245684	-0.344906
C	 0.026447767	-0.131214455	 0.034020499	 0.34792
C	-0.1195799748	-1.1756687485	 1.1533010863	-0.349061
C	-0.5185168743	-2.231281521	 0.0767269885	 0.087577
O	-1.895237127	-2.5511316132	-0.0114986545	-0.256674
C	-2.5045890386	-1.5165086305	-0.7567482568	 0.012683
O	-1.5535515496	-1.0630451544	-1.6954958793	-0.247824
C	-0.2974455276	-1.1738429961	-1.0506511904	-0.002497
H	-0.8200648744	 1.7080038232	 0.958545436	 0.112984
H	-0.967359654	 1.6392425478	-0.8608302779	 0.12566
H	 1.5157915737	 1.1349991999	-1.033295986	 0.114702
H	 1.6517750348	 1.1900653774	 0.784795203	 0.113104
H	 0.8103430288	-1.4184415994	 1.6759427304	 0.105023
H	-0.9012641637	-0.9846141707	 1.8938376057	 0.107713
H	 0.0501661761	-3.1617225076	 0.0640691117	 0.089164
H	-3.3697931158	-1.9205922112	-1.2891365683	 0.120285
H	-2.8159049537	-0.692377496	-0.0926093435	 0.090198
H	 0.4631480842	-1.3462002382	-1.8145251644	 0.084267
65.5736	182.6859	238.9222	262.8032	312.1268	404.3988	482.9516	549.1177	721.7013	737.2006	779.0294	788.8523	850.3228	869.3348	895.7744	901.8948	959.0794	963.7471	988.2576	1016.6435	1027.7764	1049.3928	1075.3223	1105.3041	1116.2328	1154.4345	1182.7602	1190.2828	1195.668	1219.1809	1238.3475	1260.6907	1274.1983	1335.0174	1344.7939	1378.5339	1427.1684	1464.8049	1472.1851	1501.2105	1542.6006	2958.406	3050.1443	3092.0112	3093.9687	3100.6085	3110.8875	3120.1828	3126.6574	3199.8065	3216.5466
C1CC11CC2OCOC12	C1CC21C[C@H]1OCO[C@@H]21	
InChI=1S/C7H10O2/c1-2-7(1)3-5-6(7)9-4-8-5/h5-6H,1-4H2	InChI=1S/C7H10O2/c1-2-7(1)3-5-6(7)9-4-8-5/h5-6H,1-4H2/t5-,6-/m1/s1
