21
gdb 65515	3.50472	1.19248	1.15626	1.5629	82.02	-0.2293	0.0842	0.3134	1184.5962	0.181883	-387.034958	-387.026481	-387.025537	-387.067907	33.769	
C	 0.1093638787	 1.6233527724	-0.1375285019	-0.463032
C	 0.0638597276	 0.1101305346	-0.0087951879	 0.393087
O	 1.1249273102	-0.5203008179	-0.8226030331	-0.337659
C	 1.5953878816	-1.2382621144	 0.3173649788	 0.108042
C	 2.1377555629	-0.3119561665	 1.3567161687	-0.324051
C	 0.6433272135	-0.5462443749	 1.2595170157	-0.154697
C	-1.2590623597	-0.5295199718	-0.3770046351	 0.012867
C	-2.5867897519	-0.0017042382	 0.1141879026	-0.284278
C	-2.2376863904	 0.0712358114	-1.3514516545	-0.282724
H	 1.0552443349	 2.0155671249	 0.2401258818	 0.12104
H	 0.0222008964	 1.9156595232	-1.1879810732	 0.132292
H	-0.7016710492	 2.0977671766	 0.4232191571	 0.119541
H	 1.8772740772	-2.2766371017	 0.1855984248	 0.098302
H	 2.6039551455	-0.7908622024	 2.2129167416	 0.112196
H	 2.5895980991	 0.6293577172	 1.0585619847	 0.113961
H	 0.0488658673	-0.9332921542	 2.0763563514	 0.095733
H	-1.1765882458	-1.6121174618	-0.4068029822	 0.086267
H	-3.3296268295	-0.7226343555	 0.4374987182	 0.111565
H	-2.6032790925	 0.9261051848	 0.6756198141	 0.113632
H	-2.0219687118	 1.0484121795	-1.7673571321	 0.114605
H	-2.7412905442	-0.5989085053	-2.0390685196	 0.11331
62.2226	174.4938	192.2246	213.1512	292.9255	311.8675	356.1457	449.7104	482.8955	494.4383	652.7224	754.8352	779.8166	793.5197	815.7664	848.8486	863.2449	923.9706	934.8452	959.8336	962.5346	981.1256	1030.0761	1038.3078	1058.0713	1060.9208	1069.6632	1080.8386	1088.9887	1130.4151	1141.1691	1158.3579	1197.9369	1205.8998	1233.9091	1286.3006	1294.0713	1349.3225	1399.0144	1415.2011	1467.2024	1473.8613	1490.3031	1498.4164	1508.4801	3048.6119	3115.7519	3117.423	3132.3869	3135.0996	3141.4992	3148.7234	3173.939	3197.8134	3207.8631	3211.9945	3228.497
CC1(OC2CC12)C1CC1	C[C@]1(O[C@H]2C[C@@H]12)C1CC1	
InChI=1S/C8H12O/c1-8(5-2-3-5)6-4-7(6)9-8/h5-7H,2-4H2,1H3	InChI=1S/C8H12O/c1-8(5-2-3-5)6-4-7(6)9-8/h5-7H,2-4H2,1H3/t6-,7+,8+/m1/s1
