18
gdb 37485	2.97448	1.74588	1.44507	3.0598	70.58	-0.226	0.0743	0.3003	945.6219	0.150514	-439.023378	-439.016462	-439.015518	-439.054803	27.573	
C	 0.0342683138	 1.383007879	 0.0168011764	 0.017633
O	 1.3270360082	 1.9047726583	 0.0467251757	-0.215151
C	 2.0141097862	 1.67663407	-1.1777613875	-0.105014
C	 1.9015246656	 0.2241366107	-1.6544709254	-0.066029
C	 2.8902098636	-0.8418098953	-1.1698882217	-0.070304
N	 2.7785179803	-0.9014650301	 0.3021248517	-0.309835
C	 1.8021143304	-1.6390997865	-0.5329337808	-0.076768
C	 0.7456058877	-0.6260801452	-0.9828624279	 0.115698
O	 0.0079024587	-0.0249220554	 0.0552052974	-0.252707
H	-0.4748975075	 1.7200494256	 0.9216641384	 0.117406
H	-0.5026702898	 1.7517888868	-0.8794905623	 0.066481
H	 1.602852972	 2.3490524429	-1.9487964753	 0.087894
H	 3.0559090354	 1.9579397641	-1.0010718828	 0.115504
H	 1.8045693758	 0.1902437056	-2.7424431172	 0.081256
H	 3.7829459954	-1.179002349	-1.6824761012	 0.093144
H	 3.4587327977	-1.5885832067	 0.6265687541	 0.229943
H	 1.6812584496	-2.7101089415	-0.4327492335	 0.095053
H	 0.0655594569	-1.0493272834	-1.733372718	 0.075797
114.8989	128.5132	267.5917	352.3649	423.3922	457.5618	553.4354	597.4815	663.7071	754.8614	790.0559	839.0023	851.7589	897.0038	913.5108	961.2562	978.7747	1001.5159	1032.2045	1039.4133	1071.8143	1110.1435	1115.9007	1119.6592	1162.4409	1185.5969	1209.3044	1259.9043	1274.9843	1282.4921	1325.6572	1332.9733	1361.3742	1374.8743	1381.175	1412.7394	1446.4235	1490.3643	1511.156	2905.5181	2964.9306	3014.8773	3077.7865	3088.1317	3113.1545	3183.5913	3200.2876	3472.4864
C1OCC2C3NC3C2O1	C1OC[C@H]2[C@H]3N[C@H]3[C@H]2O1	
InChI=1S/C6H9NO2/c1-3-4-5(7-4)6(3)9-2-8-1/h3-7H,1-2H2	InChI=1S/C6H9NO2/c1-3-4-5(7-4)6(3)9-2-8-1/h3-7H,1-2H2/t3-,4+,5+,6-/m0/s1
