20
gdb 113319	2.31841	1.17484	0.89196	2.3608	83.32	-0.2469	0.0254	0.2722	1372.3428	0.16916	-403.091204	-403.081221	-403.080277	-403.126033	37.098	
C	 0.5102304367	 1.1798007879	 0.3638138691	-0.377557
C	-0.1799563977	-0.1020180552	-0.1179130958	-0.212772
C	 0.4771869318	-0.6558448851	-1.3635037222	-0.014274
N	 1.7348279105	-1.4100320346	-1.2252283389	-0.388655
C	 0.5279240878	-2.1082533046	-1.7401729281	 0.069641
C	 0.0413749468	-3.2370728215	-0.8150394034	-0.134051
O	 0.5051125939	-3.0893879807	 0.5050367677	-0.414706
C	 0.4617721273	-2.4266821804	-3.1425434258	 0.247814
C	 0.3995398869	-2.7264960762	-4.3061623371	-0.40581
H	 1.558924542	 0.985350101	 0.6099736695	 0.126152
H	 0.4855046059	 1.9620928469	-0.4034363948	 0.110164
H	 0.0209929222	 1.5756132498	 1.258575041	 0.116074
H	-0.1716206796	-0.8604523917	 0.6670589682	 0.133526
H	-1.2314543778	 0.1066996099	-0.3530811278	 0.10053
H	 0.4331281112	 0.0163508128	-2.2202988116	 0.091929
H	 2.3819608825	-1.2060060767	-1.9811686717	 0.24374
H	-1.05394496	-3.2543751747	-0.7930885098	 0.117514
H	 0.3775008898	-4.1901442462	-1.252577089	 0.100634
H	 1.3810286701	-2.6814078	 0.4219678168	 0.292176
H	 0.3412065199	-2.9814931007	-5.3354910961	 0.197932
75.8444	120.5872	127.7606	146.5809	185.2618	229.6886	273.854	290.8993	390.1728	457.0092	486.6393	531.1116	539.2647	583.8575	609.2663	660.6652	700.8159	778.2484	813.6115	883.3069	955.2277	987.3111	1036.0986	1069.8352	1076.8321	1093.5244	1102.036	1123.6848	1232.899	1240.3073	1258.7752	1305.4804	1318.5062	1345.949	1381.2979	1407.7914	1443.5239	1471.1558	1493.202	1499.7717	1508.6999	1516.3434	2231.5007	2981.3967	3032.0045	3033.6018	3063.6036	3092.3289	3105.5613	3111.4655	3126.39	3501.2418	3520.6072	3700.0526
CCC1NC1(CO)C#C	CC[C@H]1N[C@]1(CO)C#C	
InChI=1S/C7H11NO/c1-3-6-7(4-2,5-9)8-6/h2,6,8-9H,3,5H2,1H3	InChI=1S/C7H11NO/c1-3-6-7(4-2,5-9)8-6/h2,6,8-9H,3,5H2,1H3/t6-,7+/m1/s1
