17
gdb 66573	2.34793	2.25409	1.62752	1.8972	70.51	-0.2225	0.0662	0.2886	877.5332	0.135959	-421.743231	-421.73615	-421.735206	-421.774076	29.656	
O	 0.1381996224	 1.3080685764	-0.1099873698	-0.465914
C	 0.0983816303	-0.0597452556	 0.0024203133	 0.378137
C	-0.1455395103	-0.9536570409	-1.1957707249	-0.115524
C	-1.0607016193	-1.0409969489	 0.0247685458	-0.200496
C	-0.0465551468	-2.083976534	 0.5808242282	-0.132597
C	 0.7060500357	-2.1852245392	-0.8010937676	-0.057239
C	 2.0144481848	-1.6513231889	-0.1598051312	-0.319624
C	 1.0455754114	-0.9589486617	 0.8309978498	 0.324976
O	 1.4032473673	-0.4138575682	 2.0552727961	-0.495171
H	 0.0111570401	 1.6736774861	 0.7733815165	 0.294278
H	-0.3634874597	-0.544110487	-2.1735474456	 0.09245
H	-2.1306284743	-0.9105257966	 0.1111530938	 0.089949
H	-0.2375020733	-2.9145197739	 1.25632729	 0.066516
H	 0.6898184732	-3.0716119342	-1.4325678037	 0.068757
H	 2.5814961823	-2.4582181964	 0.3200809931	 0.085814
H	 2.6836620845	-1.0260790254	-0.7586032771	 0.102463
H	 1.9311944816	-1.0570822916	 2.5390852834	 0.283224
196.0626	230.0664	276.9184	359.3017	363.1178	387.8041	466.765	559.7388	604.1787	641.2695	741.292	759.5699	810.1785	846.1356	851.4971	869.5519	907.7526	908.4208	938.8286	949.0324	991.5182	1017.445	1047.7576	1069.1872	1092.3296	1144.0982	1152.0661	1172.484	1196.388	1225.5412	1256.8056	1267.5492	1288.1552	1320.9695	1394.1858	1472.5195	1487.6295	3032.1685	3094.4384	3128.6745	3144.8656	3198.9118	3210.8164	3789.2651	3815.886
OC12C3C1C1C3CC21O	O[C@]12[C@@H]3[C@H]1[C@H]1[C@@H]3C[C@@]21O	
InChI=1S/C7H8O2/c8-6-1-2-3(6)5-4(2)7(5,6)9/h2-5,8-9H,1H2	InChI=1S/C7H8O2/c8-6-1-2-3(6)5-4(2)7(5,6)9/h2-5,8-9H,1H2/t2-,3+,4-,5+,6-,7+/m0/s1
