23
gdb 41888	2.03242	1.94099	1.67327	0.2634	88.39	-0.2303	0.0308	0.2612	1016.2881	0.211171	-351.185976	-351.178426	-351.177482	-351.217632	31.494	
C	 0.0039772405	 1.5460852881	-0.121515744	-0.203423
C	 1.3988645822	 2.1554702229	 0.175160796	-0.200589
C	 2.3328481578	 1.15201913	 0.8955491969	-0.034546
C	 1.5338566879	 0.4085008405	 1.9862911865	-0.199108
C	 0.3953615777	-0.4514934352	 1.3792076927	-0.201961
C	-0.0112590315	 0.0094433202	-0.041341289	 0.007065
C	 0.8461896312	-0.6661743998	-1.1331137409	-0.257557
C	 2.3393543308	-0.5704593077	-0.9609309895	-0.030305
C	 2.9873085322	 0.1926340595	-0.0811379696	-0.079889
H	-0.7241918312	 1.9264953794	 0.6054386789	 0.090379
H	-0.352810485	 1.8721123967	-1.1049365183	 0.089577
H	 1.8793301902	 2.4841792248	-0.7511997906	 0.095922
H	 1.2819323192	 3.0489126387	 0.7996890481	 0.088323
H	 3.1295314708	 1.7227349319	 1.3846381237	 0.059057
H	 2.2013510536	-0.2177702991	 2.5869566426	 0.09228
H	 1.114901489	 1.1577359438	 2.6700694818	 0.08794
H	 0.6970024245	-1.5036143619	 1.3412133841	 0.094992
H	-0.4788053902	-0.4082353741	 2.0384040424	 0.089605
H	-1.0428533301	-0.3173131076	-0.2207829049	 0.060831
H	 0.578260471	-1.7323433144	-1.1727870302	 0.098798
H	 0.5626779181	-0.2685129378	-2.1204107722	 0.097353
H	 2.9226731554	-1.2068014557	-1.6249324973	 0.077489
H	 4.073840736	 0.1444802269	-0.0567193472	 0.077767
90.5457	219.0265	252.5137	314.0998	333.8251	412.3223	444.0496	505.7327	544.8918	717.3476	737.8779	763.7311	779.5283	788.8947	864.9702	873.3911	898.7021	936.8352	939.5851	962.0386	964.7963	1004.9345	1022.6781	1080.9846	1091.6077	1105.6325	1126.6601	1166.8006	1197.5559	1222.5903	1237.1302	1260.3323	1274.2184	1286.9344	1331.6654	1345.9549	1351.9545	1365.2409	1366.6426	1391.5767	1392.1884	1402.2078	1426.1758	1471.4729	1483.3312	1489.6129	1497.2264	1512.3048	1727.0181	2982.583	3006.0267	3013.5847	3018.4731	3022.4108	3031.6685	3038.892	3046.2085	3053.92	3060.7358	3078.9019	3083.1738	3126.151	3153.478
C1CC2CCC1CC=C2	C1C[C@H]2CC[C@@H]1CC=C2	
InChI=1S/C9H14/c1-2-8-4-6-9(3-1)7-5-8/h1-2,8-9H,3-7H2	InChI=1S/C9H14/c1-2-8-4-6-9(3-1)7-5-8/h1-2,8-9H,3-7H2/t8-,9+
