15
gdb 127575	3.45283	1.30574	0.95444	5.4877	76.17	-0.2284	0.001	0.2294	1160.0648	0.114594	-413.030249	-413.021751	-413.020807	-413.063596	30.389	
C	-0.041713235	 1.4213289418	-0.0201157963	-0.342805
N	-0.0080191532	-0.023595585	 0.0176153068	-0.007477
N	 0.0276524611	-0.7442866173	-1.1469421548	-0.267854
C	 0.037157962	-2.0048404733	-0.7642653023	-0.079071
C	 0.0238085769	-2.1324650689	 0.6507423133	 0.028852
C	 0.047887393	-3.2820886548	 1.4638675004	 0.179197
N	 0.0725542591	-4.2032860978	 2.169054316	-0.365781
C	-0.0023820751	-0.812659449	 1.1125988012	 0.326825
N	-0.0955019896	-0.3164307281	 2.3965579219	-0.614622
H	 0.9387766456	 1.8556425762	 0.2085519387	 0.140064
H	-0.3307690983	 1.7151742904	-1.0283763287	 0.173181
H	-0.7779483271	 1.7952250574	 0.6972717334	 0.152165
H	 0.0562619626	-2.7991320488	-1.4950132274	 0.135577
H	 0.0141643852	-1.0317419452	 3.1031136803	 0.278774
H	 0.4833750529	 0.4882801023	 2.5954652774	 0.262976
92.6951	111.2559	127.9958	212.0604	269.4137	280.5301	292.4517	426.9055	520.8986	542.8975	595.2193	630.764	664.059	726.7678	751.1994	784.2048	887.7751	982.0332	1042.1489	1151.0486	1203.3357	1221.7679	1250.9317	1299.2231	1404.24	1436.2014	1478.9325	1491.7331	1505.557	1581.2405	1593.354	1661.1038	2330.7859	3030.75	3099.2233	3167.1316	3258.0318	3550.2903	3644.9938
CN1N=CC(C#N)=C1N	Cn1ncc(C#N)c1N	
InChI=1S/C5H6N4/c1-9-5(7)4(2-6)3-8-9/h3H,7H2,1H3	InChI=1S/C5H6N4/c1-9-5(7)4(2-6)3-8-9/h3H,7H2,1H3
