16
gdb 50438	3.04149	1.51595	1.04541	4.8572	74.22	-0.2219	-0.0118	0.2102	1095.6442	0.12631	-434.107604	-434.099443	-434.098499	-434.14126	29.603	
N	 0.1071043055	 1.241379274	-0.3281155883	-0.421037
C	-0.0355034251	-0.0049597514	-0.1507067106	 0.097535
N	-1.2461113825	-0.6679012909	 0.0782832279	-0.157247
C	-1.1643295775	-2.1297556723	 0.2813349751	-0.221261
C	-2.4113962883	-2.8231221642	-0.1838844449	-0.141347
C	-3.5569588631	-2.1471995505	-0.1539552052	 0.030243
N	-3.5762197152	-0.8177263223	 0.2502837341	-0.379188
C	-2.4589263034	 0.0166149109	 0.2691733992	 0.486231
O	-2.576241895	 1.207244001	 0.4214488341	-0.352581
H	 1.091865369	 1.4423830894	-0.4975488367	 0.225614
H	 0.7858041298	-0.7322111177	-0.1748440333	 0.088283
H	-0.2958947245	-2.4922928426	-0.2757847755	 0.126546
H	-0.968317686	-2.3491357912	 1.344619419	 0.12485
H	-2.364767111	-3.8546761276	-0.5029056705	 0.106784
H	-4.5157318222	-2.5651286579	-0.4362987077	 0.122889
H	-4.4424652506	-0.3057121966	 0.2887605534	 0.263685
43.272	99.637	124.1852	217.6304	264.469	419.3901	449.1253	474.7906	527.9833	552.3182	642.3151	709.2169	743.1334	760.8896	815.4857	900.9496	937.4687	985.6662	1016.3851	1060.367	1085.1881	1150.5672	1166.037	1206.0627	1263.5015	1280.4721	1332.0125	1413.2043	1432.0536	1461.032	1470.2253	1509.1448	1716.8371	1740.4342	1833.2189	2951.6473	3027.0155	3072.997	3204.0483	3235.4172	3491.1068	3656.6523
N=CN1CC=CNC1=O	[NH][CH]N1CC=CNC1=O	
InChI=1S/C5H7N3O/c6-4-8-3-1-2-7-5(8)9/h1-2,4,6H,3H2,(H,7,9)	InChI=1S/C5H7N3O/c6-4-8-3-1-2-7-5(8)9/h1-2,4,6H,3H2,(H,7,9)
