19
gdb 69940	3.97286	1.38245	1.19113	1.4542	81.8	-0.2329	0.0038	0.2367	1088.7074	0.159816	-385.858073	-385.850491	-385.849547	-385.889704	30.581	
C	-0.1734138813	 1.5067081824	-0.0051803338	-0.487939
C	 0.1377510465	 0.0370972975	-0.0079422851	 0.40056
O	-0.614358105	-0.76685692	 0.9514833343	-0.294595
C	 0.8029264568	-0.7147782135	 1.0933799838	-0.057889
C	 1.5750300945	-1.8559097271	 0.4582851013	-0.075809
C	 1.1168319812	-3.3569342946	 0.3440898563	-0.241389
C	 1.2837189855	-3.265254704	-1.2203472882	-0.304287
C	 1.1788519861	-1.7744553765	-0.9978455598	 0.249792
C	 0.3593827013	-0.7552224754	-1.2680022354	-0.286942
H	 0.6258534045	 2.0709313813	-0.4969626564	 0.124575
H	-1.1052264142	 1.7059005009	-0.546312046	 0.127057
H	-0.2911303313	 1.8760736533	 1.0163658673	 0.12924
H	 1.160870974	-0.2218472589	 1.9942065402	 0.08575
H	 2.6490960527	-1.7817204595	 0.6581007963	 0.078635
H	 1.7287594656	-4.098676626	 0.8612874294	 0.103348
H	 0.0679675953	-3.4618808948	 0.6248127332	 0.131434
H	 2.2807496427	-3.5968126982	-1.5282485311	 0.11083
H	 0.5320703785	-3.7433493707	-1.8516889031	 0.112513
H	-0.2371309735	-0.6130074763	-2.1617537134	 0.095117
150.3836	179.8131	199.4976	262.1586	300.7088	394.3456	484.6671	524.7305	571.1289	684.3098	709.5432	734.5356	780.1229	814.1065	824.1932	852.6218	891.253	921.7305	937.0535	993.1987	1020.9753	1047.3529	1067.5438	1078.1079	1081.5477	1132.5092	1172.3303	1200.5985	1228.4569	1244.9299	1250.6409	1299.3746	1307.9899	1327.775	1401.5577	1425.8301	1469.7667	1481.9356	1485.5436	1493.939	1696.1124	3034.9915	3049.5653	3053.8238	3073.5795	3095.8381	3112.0474	3124.6041	3138.6117	3146.2114	3196.9967
CC12OC1C1CCC1=C2	C[C@]12O[C@H]1[C@H]1CC[C]1[CH]2	
InChI=1S/C8H10O/c1-8-4-5-2-3-6(5)7(8)9-8/h4,6-7H,2-3H2,1H3	InChI=1S/C8H10O/c1-8-4-5-2-3-6(5)7(8)9-8/h4,6-7H,2-3H2,1H3/t6-,7-,8+/m0/s1
