19
gdb 103953	3.31859	1.08804	0.97786	1.1123	71.97	-0.2523	0.0592	0.3116	1254.3234	0.157065	-460.121983	-460.112937	-460.111993	-460.155803	34.562	
O	-0.0072973441	 1.1686799312	-0.4795688801	-0.437677
C	-0.1809757807	-0.228888441	-0.256399886	-0.142269
C	-1.5925194591	-0.3973292664	 0.2887797962	 0.434301
O	-1.7537684278	 0.3752043524	 1.4527294355	-0.49529
C	-2.6973243365	-0.249130153	-0.8170397315	-0.365561
C	-2.8014313537	-1.775139054	-0.8283637311	 0.446783
C	-3.7585767061	-2.682798773	-1.4535143786	-0.267779
O	-2.4292749546	-2.53168223	-1.9760793207	-0.275018
C	-2.0046391632	-1.8818254445	 0.4746807431	-0.364922
H	 0.9193444419	 1.3398998308	-0.6680103985	 0.29582
H	-0.0551875658	-0.805741853	-1.1835624385	 0.109425
H	 0.535951434	-0.6024587972	 0.4896729659	 0.095724
H	-1.3240593829	 1.2211167615	 1.268709137	 0.284585
H	-3.588521173	 0.232336861	-0.4064538561	 0.109771
H	-2.4116677532	 0.2296135246	-1.7557935599	 0.116771
H	-3.9718573173	-3.6481409714	-0.9950096326	 0.112859
H	-4.5544574364	-2.2836793035	-2.0817192551	 0.113682
H	-1.2080018774	-2.6303103801	 0.499491998	 0.109007
H	-2.6409996841	-1.9908105842	 1.3567457433	 0.11979
51.2344	123.6475	201.7416	248.9397	283.4861	299.9046	313.2129	362.7281	391.1468	435.7182	476.9654	491.5798	596.4839	724.5873	796.8364	832.6891	857.5639	892.5197	921.8079	950.5391	980.6208	1044.1244	1049.8207	1076.6177	1114.4935	1123.4736	1163.5696	1173.6701	1196.3165	1208.0043	1217.8305	1239.508	1279.2221	1317.1774	1403.378	1432.8385	1450.5271	1452.9534	1480.0671	1510.1386	1539.1189	2987.6767	3032.9252	3058.487	3066.8286	3075.4422	3119.0007	3129.6838	3160.008	3763.6928	3843.1805
OCC1(O)CC2(CO2)C1	OC[C@@]1(O)C[C@]2(CO2)C1	
InChI=1S/C6H10O3/c7-3-5(8)1-6(2-5)4-9-6/h7-8H,1-4H2	InChI=1S/C6H10O3/c7-3-5(8)1-6(2-5)4-9-6/h7-8H,1-4H2/t5-,6-
