16
gdb 35743	3.00399	1.31363	1.15525	5.0108	68.19	-0.2812	0.0126	0.2938	1085.2934	0.124465	-437.872291	-437.864408	-437.863464	-437.905575	28.995	
N	 0.837253544	-0.7145722563	 0.8730099171	-0.315315
C	 0.3486033677	 0.2445935937	 0.4534010522	 0.27856
C	-0.2754787882	 1.469037059	-0.0968667877	-0.053411
C	-1.0176537931	 2.2847401319	 0.9813967662	-0.316228
C	 0.0966188979	 3.175829798	 1.5187939776	 0.396966
C	-0.0987001239	 4.2396541893	 2.5050991019	-0.249216
O	 0.513938751	 2.9970189738	 2.8691883004	-0.256638
C	 1.1915744902	 3.1707696384	 0.448783873	-0.154147
O	 0.6991462655	 2.3582389771	-0.619315453	-0.246706
H	-0.9222027458	 1.1724708592	-0.9268326659	 0.136741
H	-1.793752951	 2.8809497774	 0.4934216333	 0.127196
H	-1.4677100045	 1.6805505873	 1.7696452892	 0.147779
H	 0.5625672259	 5.1055293041	 2.5057686125	 0.122023
H	-1.0891351267	 4.4152843255	 2.924171105	 0.121285
H	 1.4057641664	 4.1583417183	 0.0322019042	 0.124717
H	 2.1113597747	 2.7520248335	 0.8770782942	 0.136393
41.5214	102.5495	184.3515	278.8625	303.1286	375.4664	398.1245	449.4091	528.6364	585.3895	752.2452	774.4012	832.0458	835.1117	919.7484	939.0092	960.1491	985.3156	996.312	1087.3509	1096.3144	1126.7702	1166.5033	1194.3862	1219.6989	1239.4581	1263.2317	1310.4952	1345.9959	1368.562	1436.2303	1470.4456	1510.3609	1535.1932	2355.5815	3028.6782	3068.6893	3078.4756	3086.3528	3097.0195	3141.7588	3164.3575
N#CC1CC2(CO2)CO1	N#C[C@H]1C[C@]2(CO2)CO1	
InChI=1S/C6H7NO2/c7-2-5-1-6(3-8-5)4-9-6/h5H,1,3-4H2	InChI=1S/C6H7NO2/c7-2-5-1-6(3-8-5)4-9-6/h5H,1,3-4H2/t5-,6-/m1/s1
