19
gdb 71824	2.53343	2.01254	1.36438	1.0092	79.48	-0.2089	0.0172	0.226	980.257	0.159421	-385.86165	-385.85384	-385.852896	-385.893199	31.984	
C	 0.0062922705	 1.4786750564	 0.0768628483	-0.502966
C	 0.0134668489	-0.0291551885	-0.0134951618	 0.245479
C	 0.9439976891	-0.7325838461	-0.9516911572	-0.149902
C	 0.4952521774	-1.9642175145	-1.2065893903	-0.091399
C	-0.7137261524	-2.2330375091	-0.3335849391	-0.110188
C	-0.2053289223	-2.3127438898	 1.1604354187	-0.298422
C	-0.4509930057	-0.8113382871	 1.2601614303	 0.345348
O	-0.7337143424	-0.1409913342	 2.4383622579	-0.458534
C	-1.2834359798	-0.8137396415	 0.008698474	-0.163223
H	 0.9787745025	 1.8616420765	 0.4098174461	 0.109718
H	-0.2058830177	 1.9268854688	-0.899912542	 0.119577
H	-0.7471260849	 1.8287247482	 0.7862073056	 0.132325
H	 1.8559526061	-0.283150799	-1.3273615576	 0.089665
H	 0.9862183264	-2.721868977	-1.8049195296	 0.094244
H	-1.3952745281	-3.0199099607	-0.6525284359	 0.070768
H	-0.9296237839	-2.8341306887	 1.7914253932	 0.108359
H	 0.7998668893	-2.7143788577	 1.3291656429	 0.08416
H	 0.0993760804	 0.1041597653	 2.8567288478	 0.285999
H	-2.2682268333	-0.4106218215	-0.1970630214	 0.088993
166.2646	202.1357	235.6922	269.6133	322.8863	366.6282	387.1002	424.3705	560.4183	604.6411	614.9703	695.9517	734.451	760.3339	821.3573	855.1659	868.328	910.9551	925.3699	953.3265	959.3582	980.7568	1038.3466	1060.4207	1085.1181	1102.5536	1151.1212	1169.0728	1198.5909	1220.1163	1238.5437	1275.3797	1286.7955	1319.1029	1374.1798	1409.7217	1422.4579	1489.0411	1494.2817	1503.096	1650.7059	3025.5137	3036.6032	3079.9713	3104.2828	3122.2397	3123.4376	3179.7827	3190.0359	3217.3807	3789.9183
CC12C=CC3CC1(O)C23	C[C@@]12C=C[C@H]3C[C@]1(O)[C@@H]23	
InChI=1S/C8H10O/c1-7-3-2-5-4-8(7,9)6(5)7/h2-3,5-6,9H,4H2,1H3	InChI=1S/C8H10O/c1-7-3-2-5-4-8(7,9)6(5)7/h2-3,5-6,9H,4H2,1H3/t5-,6+,7-,8-/m0/s1
