22
gdb 59713	2.93685	1.25274	1.16567	0.7981	80.91	-0.2303	0.0783	0.3085	1193.4166	0.195533	-404.335197	-404.326408	-404.325464	-404.368414	34.616	
C	-0.0437206798	 1.5476945541	-0.2410779114	-0.411397
C	 0.0357532921	 0.0437303871	 0.0205805716	 0.119315
O	 0.8094201791	-0.2370943305	 1.1867863363	-0.435671
C	-1.3507448445	-0.6185199093	 0.0664886521	 0.059826
C	-1.336632875	-2.1576255006	 0.203505138	-0.264943
C	-2.7089751735	-2.4738121396	 0.8339389897	-0.233813
C	-3.0440379336	-1.2121737345	 1.6195041062	-0.006989
C	-1.9783617086	-0.6536205802	 2.485196257	-0.270944
N	-2.2218285032	-0.0835547445	 1.1408541334	-0.117826
H	 0.9600027262	 1.9811286273	-0.2567941123	 0.11724
H	-0.5275562681	 1.7552795486	-1.200778717	 0.115523
H	-0.6347772463	 2.0401791851	 0.5382000408	 0.129552
H	 0.5914020144	-0.4328919986	-0.7972497345	 0.08509
H	 0.4750288367	 0.3268557807	 1.891993736	 0.286333
H	-1.8600528694	-0.3524864235	-0.8700785532	 0.075219
H	-1.194353878	-2.6524739414	-0.7605080224	 0.097841
H	-0.5134442771	-2.4694359829	 0.8514619508	 0.123574
H	-3.4667040452	-2.6285729346	 0.0574246902	 0.103854
H	-2.6961267768	-3.3720237614	 1.4589779431	 0.104814
H	-4.0863997245	-0.9938195387	 1.8341974434	 0.086404
H	-2.2414759122	 0.0153046603	 3.2998923826	 0.111552
H	-1.0890156226	-1.2508610627	 2.6586129495	 0.125445
69.8508	154.3357	185.2189	233.421	283.7316	293.7608	339.2224	357.8946	411.79	484.0174	591.9907	649.4629	657.9667	745.0064	826.6265	845.745	865.9867	895.4802	936.1655	955.5775	975.7938	992.7162	1030.2877	1053.6368	1069.9841	1095.6545	1103.7729	1117.5235	1157.9279	1172.0098	1189.7461	1216.1695	1268.503	1288.2795	1303.5849	1324.7566	1339.378	1362.0283	1378.8027	1388.9372	1403.1215	1425.4123	1489.4655	1492.0524	1496.5743	1497.3871	1527.7566	3007.4344	3029.8762	3037.4499	3041.3107	3068.3308	3082.8618	3107.7812	3111.8105	3116.3991	3119.3818	3145.5368	3202.2424	3814.2576
CC(O)C1CCC2CN12	C[C@@H](O)[C@H]1CC[C@H]2CN12	
InChI=1S/C7H13NO/c1-5(9)7-3-2-6-4-8(6)7/h5-7,9H,2-4H2,1H3	InChI=1S/C7H13NO/c1-5(9)7-3-2-6-4-8(6)7/h5-7,9H,2-4H2,1H3/t5-,6+,7-,8?/m1/s1
