18
gdb 33115	3.47861	0.96582	0.80617	5.5912	74.75	-0.2267	-0.002	0.2247	1407.1825	0.14813	-439.124222	-439.115491	-439.114547	-439.158354	32.112	
N	-0.4856712076	 2.0611544118	 0.5269931131	-0.499042
H	-0.7987830819	 1.8866705987	-0.4240049569	 0.22676
H	 0.4467329389	 2.4547926288	 0.4498048267	 0.232962
H	-2.4165878293	 3.226454703	 1.9153920239	 0.172965
C	-0.4402693781	 0.8011568841	 1.2753755207	-0.140702
C	-1.8569138616	 0.2666633128	 1.5598343846	-0.314251
C	-2.6783125512	 1.1307209195	 2.4635754219	 0.240971
C	-3.0792228429	 0.8450736733	 3.7016203089	-0.036052
O	-3.8249999259	 1.839975741	 4.3154079318	-0.20347
C	-3.9464409547	 2.8927087754	 3.4218647016	 0.433797
O	-4.5457872157	 3.8866954247	 3.697749219	-0.324053
C	-3.2063942134	 2.5055106606	 2.1462301368	-0.466936
H	 0.1309062898	 0.0052795458	 0.7681166807	 0.084032
H	 0.0629154221	 0.9957542085	 2.2292134844	 0.111153
H	-2.3745313247	 0.1304408558	 0.5984698565	 0.101402
H	-1.764527393	-0.732197169	 2.0021431885	 0.105953
H	-2.9252472074	-0.0336943104	 4.3112007925	 0.131412
H	-3.9019106534	 2.5268826554	 1.2983905054	 0.143099
54.8211	102.6871	129.0966	197.0944	248.6591	283.6873	350.2849	438.3391	484.3879	507.8495	568.2695	605.8364	735.4223	826.1847	833.8079	865.1655	876.6737	922.9317	944.2257	958.4392	1022.9276	1076.9223	1091.4373	1127.9123	1146.7119	1159.8975	1204.0286	1266.6294	1294.7798	1321.6158	1361.5083	1376.8175	1419.9147	1439.8022	1472.0207	1507.6444	1659.1982	1716.0393	1900.9222	2952.9179	2998.0068	3046.5296	3056.9135	3066.9103	3095.6556	3245.2752	3489.7013	3568.857
[NH3+]CCC1=COC([O-])=C1	NCCC1=COC(=O)C1	
InChI=1S/C6H9NO2/c7-2-1-5-3-6(8)9-4-5/h3-4,8H,1-2,7H2	InChI=1S/C6H9NO2/c7-2-1-5-3-6(8)9-4-5/h4H,1-3,7H2
