19
gdb 107431	2.84874	1.4097	1.2738	3.3028	73.68	-0.257	0.0616	0.3185	1092.2435	0.158891	-422.997767	-422.989769	-422.988825	-423.030345	31.102	
C	 0.2303282911	 1.5182446582	 0.2649648932	-0.386413
C	-0.0408333401	 0.0783662102	-0.191808371	-0.299328
C	-1.4776300674	-0.3440318605	-0.0186074648	 0.414465
O	-1.9591008612	-1.3977954862	-0.8603323841	-0.285705
C	-2.5681865454	-0.1100688507	-0.9894978101	-0.032321
C	-3.8993210409	 0.0538368489	-0.2611128521	-0.278878
C	-3.5678761839	-0.1405689317	 1.2171535947	 0.035245
O	-3.0598185801	-1.4307444619	 1.5579487037	-0.234193
C	-2.1202700846	-0.3726401032	 1.367436494	-0.041969
H	 1.2820344296	 1.7790328379	 0.1161770043	 0.121978
H	-0.3771018723	 2.2326814095	-0.3001691342	 0.119828
H	 0.0050504946	 1.6582183176	 1.3272814605	 0.121278
H	 0.2171232852	-0.0376649736	-1.2494910877	 0.114372
H	 0.6037786144	-0.6158991001	 0.3626999702	 0.110734
H	-2.4131535889	 0.3776161358	-1.9506499133	 0.092159
H	-4.2893444851	 1.0654220446	-0.4239660028	 0.107247
H	-4.6533493033	-0.6582565853	-0.6110007831	 0.130009
H	-4.1826869791	 0.3318719822	 1.98053508	 0.096626
H	-1.5446086226	-0.084318312	 2.2426986024	 0.094865
81.1113	137.5553	196.8114	260.751	289.7358	334.9502	397.8897	467.063	553.6051	593.695	717.1176	752.7824	785.5732	811.2057	862.5727	879.5609	912.9547	936.2204	956.8574	990.6426	997.4426	1020.9024	1068.4848	1073.966	1119.7762	1128.003	1204.8951	1219.8732	1258.6738	1273.6921	1290.1477	1318.4977	1343.3089	1356.6103	1412.6088	1419.688	1457.949	1463.3061	1486.2325	1500.6416	1508.5224	3027.6289	3037.0303	3045.5028	3074.3515	3093.1317	3105.4279	3111.4821	3122.5733	3132.0427	3153.8852
CCC12OC1CC1OC21	CC[C@]12O[C@H]1C[C@H]1O[C@@H]21	
InChI=1S/C7H10O2/c1-2-7-5(9-7)3-4-6(7)8-4/h4-6H,2-3H2,1H3	InChI=1S/C7H10O2/c1-2-7-5(9-7)3-4-6(7)8-4/h4-6H,2-3H2,1H3/t4-,5+,6-,7+/m1/s1
