18
gdb 13072	3.79159	1.20473	1.00923	1.9421	76.85	-0.2418	0.03	0.2718	1216.0179	0.151999	-347.76296	-347.753715	-347.752771	-347.79911	31.429	
C	 0.1497698547	 1.5652672805	-0.1491170009	-0.498734
C	 0.0860883616	 0.1166830396	-0.0256040798	 0.042616
C	 0.0387817544	-1.0823692144	 0.0834922545	 0.126718
C	-0.0066874064	-2.529322649	 0.2058841024	-0.069441
O	 0.0057788327	-2.9985037251	 1.5808832608	-0.279003
C	-1.2633644585	-3.6648449592	 1.4262229789	-0.074066
C	-1.369207972	-3.2554523022	-0.0577788245	-0.035134
C	-2.5697597992	-2.4229181516	-0.4741634111	-0.408547
H	 1.0400627463	 1.880823945	-0.7040165858	 0.149963
H	-0.7276279176	 1.9597146469	-0.6734315545	 0.148964
H	 0.1870975855	 2.0409470792	 0.8370873693	 0.154218
H	 0.8318418875	-2.9697160219	-0.3500455367	 0.096576
H	-1.1892469535	-4.7399698214	 1.6296878608	 0.09901
H	-2.0328972412	-3.2318028949	 2.0794337416	 0.099277
H	-1.2377652673	-4.100042784	-0.7387920069	 0.082797
H	-2.7047055018	-1.5643114286	 0.1900314166	 0.129519
H	-2.452917546	-2.0404751671	-1.4931083159	 0.121656
H	-3.4832521995	-3.0268052117	-0.4442151885	 0.113611
20.9499	34.6194	90.1216	134.8432	211.1593	247.9376	325.0088	343.6685	390.7255	476.0419	547.6852	728.5704	774.9235	884.3388	903.4429	926.349	976.7285	1018.1907	1050.7234	1053.2623	1061.4691	1129.4035	1151.9597	1179.4934	1194.4502	1249.121	1274.2308	1343.7752	1359.0115	1382.429	1413.5789	1415.7161	1476.258	1478.217	1491.2122	1494.8129	1527.7058	2363.3285	3003.5517	3009.3641	3027.995	3034.662	3048.0172	3075.1628	3088.9308	3090.5011	3100.552	3115.5271
CC#CC1OCC1C	CC#C[C@H]1OC[C@H]1C	
InChI=1S/C7H10O/c1-3-4-7-6(2)5-8-7/h6-7H,5H2,1-2H3	InChI=1S/C7H10O/c1-3-4-7-6(2)5-8-7/h6-7H,5H2,1-2H3/t6-,7-/m1/s1
