18
gdb 113032	4.29828	0.89859	0.83993	3.7849	78.74	-0.2643	-0.0085	0.2557	1397.7505	0.147846	-401.961188	-401.952387	-401.951442	-401.995603	31.697	
C	 0.2304529497	 1.350879533	 0.175610177	-0.241431
O	 0.0577690448	-0.0183441614	-0.1144170286	-0.24302
C	-1.2855332134	-0.4636526108	-0.0318804046	 0.105718
C	-1.3869706815	-1.8346648076	-0.7328615902	-0.265415
C	-2.3154344164	-2.7097229291	 0.1618395369	-0.196379
C	-2.3177522063	-1.9575265893	 1.4859106249	-0.073998
C	-1.7650127988	-0.754556965	 1.3756331296	-0.082142
C	-3.6728457783	-2.8413798569	-0.3809477122	 0.266086
N	-4.7439597663	-2.9431094533	-0.8040376026	-0.32586
H	 1.2870511906	 1.5810950853	 0.0202632928	 0.132641
H	-0.3741970945	 1.9856556759	-0.4905647974	 0.110074
H	-0.030802946	 1.5973626023	 1.2154839056	 0.107548
H	-1.9388219758	 0.2867903117	-0.5087312266	 0.082464
H	-1.7365231339	-1.766102735	-1.7632496133	 0.127993
H	-0.3837381669	-2.266989839	-0.7388520789	 0.133592
H	-1.9200796322	-3.7261352049	 0.2749877299	 0.131415
H	-2.7630662659	-2.3828556684	 2.3771569825	 0.120114
H	-1.6749363288	-0.0359384474	 2.181787475	 0.110601
40.5552	97.9641	136.37	188.7707	200.0669	277.3981	325.075	396.3278	486.954	521.5069	583.9894	685.3548	747.6021	803.5195	837.4128	882.9488	953.827	974.0846	991.953	1025.5969	1052.5573	1088.16	1124.56	1158.0338	1182.3059	1200.4646	1228.0442	1247.3026	1301.3264	1317.6534	1330.9189	1359.1458	1392.8008	1478.8615	1483.8046	1491.2024	1508.9953	1689.709	2352.8706	2954.0701	2978.1479	3025.3336	3038.2627	3083.063	3117.026	3139.6706	3195.5366	3219.9373
COC1CC(C=C1)C#N	CO[C@H]1C[C@@H](C=C1)C#N	
InChI=1S/C7H9NO/c1-9-7-3-2-6(4-7)5-8/h2-3,6-7H,4H2,1H3	InChI=1S/C7H9NO/c1-9-7-3-2-6(4-7)5-8/h2-3,6-7H,4H2,1H3/t6-,7-/m1/s1
