17
gdb 18772	4.03705	2.37724	2.08708	1.9172	70.38	-0.2158	0.0844	0.3003	732.7244	0.143876	-326.63963	-326.633555	-326.632611	-326.669381	25.042	
C	-0.0075584357	 1.462929979	 0.0234338975	-0.521632
C	-0.0500515477	-0.0326183381	-0.0396678589	 0.34071
C	-0.0909766741	-0.9614682374	 1.1960474688	-0.141119
C	 1.0170796776	-1.064442396	 0.187440908	-0.081774
N	 0.2012016533	-2.086369526	-0.5921661382	-0.182738
C	-0.8042645798	-2.1725078431	 0.580056482	-0.006074
C	-1.9278130827	-1.6674165074	-0.3418808659	-0.247589
C	-0.7555492391	-0.9617065749	-1.0453814694	-0.057545
H	 0.637562046	 1.8037230762	 0.8404238846	 0.122404
H	 0.3834259492	 1.8917955377	-0.9063249587	 0.122623
H	-1.0047539746	 1.8862020288	 0.1931401783	 0.120988
H	-0.0813004283	-0.583421358	 2.2104221922	 0.08547
H	 2.0976419077	-1.0284001133	 0.2542626149	 0.09172
H	-0.869038438	-3.1063176966	 1.1392444266	 0.074917
H	-2.3338699311	-2.4755779415	-0.956372627	 0.111753
H	-2.7334529821	-1.0641773755	 0.0842567862	 0.096729
H	-0.7720781406	-0.6907192741	-2.1021566412	 0.071156
197.1756	222.1143	276.1762	411.0601	539.6659	600.1541	732.2661	776.3799	784.5631	806.4872	853.0203	874.5494	895.3216	910.7297	921.2094	948.7828	959.8324	998.5495	1017.1573	1032.0663	1081.1365	1091.5964	1117.9809	1161.0349	1167.4647	1207.4793	1210.2875	1234.8705	1251.7083	1294.0255	1312.4664	1411.2049	1437.7218	1473.7813	1485.5101	1498.8877	3020.6857	3058.2347	3079.5311	3091.9594	3102.5809	3109.8545	3120.5146	3179.7833	3196.6225
CC12C3C1N1C3CC21	C[C@]12[C@@H]3[C@H]1N1[C@@H]3C[C@@H]21	
InChI=1S/C7H9N/c1-7-4-2-3-5(7)6(7)8(3)4/h3-6H,2H2,1H3	InChI=1S/C7H9N/c1-7-4-2-3-5(7)6(7)8(3)4/h3-6H,2H2,1H3/t3-,4+,5+,6-,7+/m1/s1
