18
gdb 30215	3.44677	1.28942	0.99344	1.7453	81.54	-0.1985	0.035	0.2335	1193.8663	0.148536	-401.952856	-401.94447	-401.943526	-401.986144	31.315	
C	-0.063627032	 1.5448873818	-0.0482714414	-0.495293
C	 0.0686505215	 0.0586184092	-0.0767603764	 0.234822
C	-0.1523336896	-0.8599416849	-1.1008285344	-0.199897
C	 0.1075611274	-2.1864571732	-0.6363013093	-0.339517
C	 0.5096709114	-2.0291087982	 0.6721994053	 0.260225
C	 0.8181028619	-2.4363570014	 2.1055322975	-0.010145
O	 2.0093196035	-3.1242820848	 2.3830596721	-0.420426
C	 0.7735717034	-0.8752172167	 2.4130175533	-0.214399
N	 0.4955555627	-0.6970474934	 0.9781914314	-0.025269
H	 0.8915749092	 2.0426259959	 0.1595494564	 0.126987
H	-0.4210146153	 1.904348379	-1.0160857009	 0.135536
H	-0.7770123882	 1.8820091296	 0.7139117711	 0.12608
H	-0.4578551532	-0.5911962525	-2.102323248	 0.089808
H	 0.0069877555	-3.0993912768	-1.2016547829	 0.098831
H	 0.0268743428	-2.987490288	 2.6213875773	 0.1085
H	 2.6718114579	-2.8257841125	 1.749723846	 0.282891
H	-0.0344625965	-0.5430260941	 3.0720487479	 0.12306
H	 1.7266557578	-0.4529062288	 2.7451027748	 0.118207
81.5788	106.4117	127.6108	221.7702	247.8363	320.1134	376.9277	456.0028	536.1065	617.0209	631.6825	665.0718	755.6831	763.1672	782.8556	812.5071	866.2126	973.3919	989.9821	1023.7927	1041.7739	1061.5662	1133.4169	1145.3878	1167.4629	1204.2402	1232.357	1255.4846	1292.645	1310.37	1390.6442	1419.0193	1428.7451	1437.0965	1480.4117	1499.427	1510.2877	1537.4425	1582.267	3018.8515	3045.0271	3062.9851	3075.6756	3103.1624	3120.9655	3229.7225	3258.4543	3798.9543
CC1=CC=C2C(O)CN12	Cc1ccc2[C@@H](O)Cn12	
InChI=1S/C7H9NO/c1-5-2-3-6-7(9)4-8(5)6/h2-3,7,9H,4H2,1H3	InChI=1S/C7H9NO/c1-5-2-3-6-7(9)4-8(5)6/h2-3,7,9H,4H2,1H3/t7-/m0/s1
