25
gdb 107464	2.38157	1.32183	1.14359	0.349	92.34	-0.2413	0.0862	0.3275	1279.1457	0.228162	-352.342278	-352.332365	-352.331421	-352.376389	39.104	
C	-1.1104849164	-1.8322515811	 0.2904600371	-0.390538
C	 0.0164994431	-0.8149076309	 0.0777133268	-0.291704
C	 0.8857353039	-1.05209101	-1.1362111359	 0.353502
C	 0.3571016665	-1.6126873497	-2.4320932241	-0.34368
C	 1.4711486822	-2.3391836925	-1.7306312984	-0.094081
C	 2.7947426936	-1.6373714834	-2.0393083987	-0.279977
C	 2.2380091695	-0.3173962304	-1.3868093715	 0.273827
C	 2.1939162742	 0.9311334491	-2.2690419631	-0.449643
C	 2.9805527862	-0.0110293269	-0.0833796176	-0.444282
H	-1.8559417314	-1.7907919726	-0.5093459609	 0.119452
H	-0.7207932724	-2.8550807551	 0.3344864255	 0.117335
H	-1.6300534463	-1.6350803418	 1.2330406641	 0.111958
H	-0.4206393674	 0.1919849508	 0.0105402279	 0.096378
H	 0.6482291072	-0.8040849914	 0.9743423507	 0.098014
H	-0.6182185711	-2.083117516	-2.3701511958	 0.106538
H	 0.5417526771	-1.1212180602	-3.3845269497	 0.097728
H	 1.3620057794	-3.3640600488	-1.3948093111	 0.078062
H	 3.6529575679	-2.0361972486	-1.4925909425	 0.094192
H	 3.0566393483	-1.5806241724	-3.1021286766	 0.087255
H	 1.6806836466	 0.7495078532	-3.2172545901	 0.111056
H	 1.6755342212	 1.7530748732	-1.7612343937	 0.109394
H	 3.2075772313	 1.2769435933	-2.5034821887	 0.109275
H	 4.0089606079	 0.300810714	-0.2983544104	 0.108072
H	 2.4990578925	 0.7979004121	 0.4775938574	 0.109981
H	 3.0282600164	-0.8900306138	 0.5680632093	 0.111883
63.3467	136.9956	194.8304	216.3677	225.6618	264.1485	298.3754	319.1457	345.883	369.6516	437.5758	463.2756	498.747	600.2289	639.403	773.0895	796.6799	841.8657	866.2884	877.2591	923.9136	950.6508	974.0088	986.2308	988.9671	1021.8119	1028.8768	1049.1264	1064.8742	1095.7866	1127.7614	1151.8047	1171.3064	1220.0851	1237.8434	1250.9408	1279.8251	1292.0828	1304.5947	1374.2339	1387.4954	1402.7938	1411.7079	1420.989	1480.7824	1484.3873	1488.2053	1493.1547	1500.0767	1503.708	1506.8229	1511.0238	1514.0255	3001.871	3020.5517	3025.867	3034.1943	3035.7419	3041.9308	3081.2215	3088.8878	3091.9598	3097.7942	3102.2411	3106.1455	3108.1498	3113.5177	3170.644	3202.1604
CCC12CC1CC2(C)C	CC[C@]12C[C@H]1CC2(C)C	
InChI=1S/C9H16/c1-4-9-6-7(9)5-8(9,2)3/h7H,4-6H2,1-3H3	InChI=1S/C9H16/c1-4-9-6-7(9)5-8(9,2)3/h7H,4-6H2,1-3H3/t7-,9+/m1/s1
