17
gdb 48089	3.14667	1.29094	0.97177	3.3091	77.05	-0.2376	-0.0644	0.1733	1193.0164	0.135593	-417.966506	-417.958364	-417.95742	-417.999683	30.137	
N	 0.1596152432	 1.3425332169	 0.619201532	-0.489957
C	 0.1280701125	 0.2048341268	 0.032208726	 0.222383
C	-1.2372537307	-0.434925457	-0.0492263638	 0.163117
O	-1.4563998399	-1.5330527924	-0.4918957163	-0.257872
N	 1.1498833992	-0.4522956607	-0.628148951	-0.104686
C	 1.5635723516	-1.8164035918	-0.3018948127	-0.021191
C	 2.4445080558	-2.298821272	-1.4602603381	-0.237369
C	 3.4032469357	-1.0812779877	-1.1920468625	-0.241898
C	 2.4771153857	-0.6477272664	-0.047318052	-0.057953
H	 1.1091773316	 1.7219736324	 0.6454469922	 0.22093
H	-2.0250674176	 0.2226205372	 0.3675718	 0.110352
H	 0.9817030181	-2.4039414461	 0.3948793197	 0.122208
H	 2.925621583	-3.2568707635	-1.2546032071	 0.112737
H	 1.9501819115	-2.3374753738	-2.4326309423	 0.121818
H	 4.3857424501	-1.399458131	-0.8380385785	 0.113239
H	 3.5230508756	-0.3555969918	-1.9991518252	 0.115601
H	 2.7347374047	-0.161966299	 0.8868109294	 0.108541
75.6529	131.7046	160.7511	161.8883	259.0018	303.0418	398.7771	500.4669	569.7433	665.5713	679.8612	748.184	788.5233	856.0084	896.3617	906.9907	931.5283	947.632	989.2964	1011.8501	1032.1772	1048.4205	1084.4873	1124.0685	1168.9629	1216.7408	1220.1768	1248.2491	1250.5237	1294.5548	1365.616	1380.5368	1425.9912	1467.1613	1487.4164	1673.5104	1821.1388	2955.6891	3071.9491	3079.7268	3124.2561	3140.8986	3184.3352	3219.6021	3449.2247
N=C(C=O)N1C2CCC12	[NH][C](C=O)N1[C@H]2CC[C@@H]12	
InChI=1S/C6H8N2O/c7-6(3-9)8-4-1-2-5(4)8/h3-5,7H,1-2H2	InChI=1S/C6H8N2O/c7-6(3-9)8-4-1-2-5(4)8/h3-5,7H,1-2H2/t4-,5+,8?
