14
gdb 57144	3.62044	0.74694	0.63798	4.7799	76.73	-0.2843	-0.0568	0.2275	1632.3809	0.09907	-436.631315	-436.622298	-436.621354	-436.666301	31.024	
O	 0.1376534809	 1.6208597385	-0.051498137	-0.398352
C	 0.1152740716	 0.2052079135	 0.0469161078	-0.116136
C	 0.6680100251	-0.4328912505	-1.1513355347	 0.111702
C	 1.169057748	-0.9275827024	-2.1331220019	 0.034857
C	 1.7276895583	-1.4882683667	-3.2459353229	 0.2134
N	 2.2058406351	-1.9618560638	-4.1925475379	-0.329043
C	 0.8318319483	-0.2829561501	 1.302232476	 0.072314
C	 0.1017262618	-0.414839175	 2.5651546738	-0.174226
O	 0.4453601278	-1.5631566641	 1.7817045893	-0.220419
H	 1.0298544899	 1.8957678329	-0.2924050252	 0.296589
H	-0.9408869867	-0.0738299225	 0.137017869	 0.144991
H	 1.9046779868	-0.08452835	 1.3240433639	 0.106935
H	 0.6365854425	-0.3149023689	 3.5073765383	 0.12904
H	-0.9588399794	-0.1710073107	 2.5987797016	 0.128349
49.445	79.6136	111.1028	185.2216	239.9051	261.1845	275.706	346.0234	434.5542	475.3347	550.7655	576.9765	606.8652	765.6263	854.529	881.5543	959.2722	1035.8116	1092.0948	1116.3351	1157.9184	1164.3766	1171.906	1243.9077	1285.2852	1298.0245	1400.0895	1437.9092	1527.6637	2263.8274	2400.7076	3055.4972	3092.4982	3102.6601	3183.7455	3802.9776
OC(C#CC#N)C1CO1	O[C@@H](C#CC#N)[C@H]1CO1	
InChI=1S/C6H5NO2/c7-3-1-2-5(8)6-4-9-6/h5-6,8H,4H2	InChI=1S/C6H5NO2/c7-3-1-2-5(8)6-4-9-6/h5-6,8H,4H2/t5-,6+/m0/s1
