21
gdb 52876	1.98939	1.26584	0.88677	0.2801	92.36	-0.2225	0.0578	0.2803	1420.2098	0.18097	-349.90757	-349.897593	-349.896649	-349.944627	36.263	
C	-0.0764472932	 1.4855538018	 0.0414032794	-0.502522
C	-0.0325134246	 0.0300424304	 0.0138093702	 0.107622
C	-0.0038449193	-1.1753595853	-0.0039118896	-0.052101
C	 0.0380106273	-2.6154189885	-0.0302338079	 0.188564
C	-0.4693967717	-3.3514754392	 1.2048128296	-0.297185
C	-1.2964855639	-3.3525643604	-0.0484373417	-0.297188
C	 1.1836238343	-3.2454158933	-0.7857443712	-0.034081
C	 1.728870963	-2.6335593301	-2.0504439798	-0.276303
C	 2.5604827736	-2.6327370668	-0.7901142178	-0.276315
H	 0.7870258161	 1.9166707241	-0.4772773814	 0.148133
H	-0.9789985036	 1.8697777288	-0.4473248552	 0.145823
H	-0.0671458441	 1.867831191	 1.06845639	 0.145944
H	 0.052605581	-4.2617173025	 1.4803797477	 0.114835
H	-0.8057355814	-2.7516222664	 2.041931007	 0.121521
H	-2.1988893388	-2.7534367507	-0.0690749797	 0.121535
H	-1.3438847152	-4.2635590269	-0.635638881	 0.114832
H	 1.1477152916	-4.3315056422	-0.761329938	 0.073854
H	 2.0111094394	-3.2962317726	-2.8611543156	 0.105268
H	 1.3068822143	-1.6859385635	-2.3661750236	 0.121247
H	 2.6842288334	-1.6845894508	-0.2787888401	 0.121245
H	 3.4172546818	-3.2948436369	-0.7300919111	 0.105275
10.284	74.2837	82.8501	130.8626	223.2566	225.7369	294.1368	294.6629	370.4448	436.6847	529.4607	568.4277	573.5751	760.8593	785.52	817.0479	829.9142	879.6452	912.4856	918.6497	974.8411	984.3773	1051.438	1052.4295	1054.3752	1065.5664	1067.5191	1079.1329	1081.999	1110.7772	1135.9268	1193.3359	1199.8765	1224.4773	1259.7987	1359.8447	1406.9172	1415.5064	1460.8493	1464.7241	1477.7627	1480.3105	1493.525	1501.7687	2361.2979	3023.4929	3081.4187	3085.2633	3131.7031	3132.9891	3133.5924	3136.923	3140.0073	3214.3356	3218.6116	3227.992	3233.3643
CC#CC1(CC1)C1CC1	CC#CC1(CC1)C1CC1	
InChI=1S/C9H12/c1-2-5-9(6-7-9)8-3-4-8/h8H,3-4,6-7H2,1H3	InChI=1S/C9H12/c1-2-5-9(6-7-9)8-3-4-8/h8H,3-4,6-7H2,1H3
