19
gdb 89651	2.92605	1.26838	1.0651	1.3	84.07	-0.2283	0.0383	0.2666	1186.9137	0.156923	-385.835229	-385.825901	-385.824957	-385.868827	35.676	
C	-0.0112786479	 1.5163728302	 0.0380159002	-0.500338
C	 0.0505214229	 0.0181363865	-0.0060819014	 0.298835
C	-0.8309406719	-0.866234685	 0.8231853993	-0.360982
C	 0.6669113734	-0.9802091428	 1.0190605339	 0.143726
C	 1.2398047307	-1.8314245613	-0.1264887173	-0.33081
C	 0.6530498741	-0.7976179902	-1.147353786	 0.060808
O	-0.3057550989	-1.2387599319	-2.085109973	-0.434954
C	 1.3180910654	-0.7006656175	 2.2510210885	 0.174438
C	 1.8890051643	-0.462464582	 3.2846240099	-0.416297
H	 0.9319499567	 1.9649093903	-0.2928552238	 0.118223
H	-0.8093444436	 1.8946436591	-0.6113866693	 0.130179
H	-0.2102840946	 1.8692019598	 1.0547247083	 0.127766
H	-1.3598156881	-0.3622704332	 1.625014684	 0.121696
H	-1.371040809	-1.6918829198	 0.3685208169	 0.121684
H	 2.3305750799	-1.8708145438	-0.137426446	 0.110208
H	 0.8354600317	-2.8459655259	-0.1982386418	 0.098523
H	 1.4598952289	-0.2396802191	-1.6421911617	 0.070772
H	 0.1473662293	-1.7483984011	-2.7643998249	 0.284779
H	 2.3862283267	-0.2565834623	 4.1994737244	 0.181743
100.2858	115.7824	167.9207	175.5268	259.4244	275.7993	304.6195	348.8608	436.4777	459.2469	528.2568	555.609	565.1377	611.453	644.9707	695.6538	716.8739	806.9617	860.8868	952.1541	972.8458	981.9902	997.3415	1069.639	1086.8468	1104.6431	1144.1157	1153.9792	1195.5139	1233.9813	1264.5124	1282.2452	1345.1033	1381.3268	1416.6432	1435.7305	1475.4973	1483.9451	1496.6789	1504.1347	2227.6605	3002.4707	3025.8546	3050.7319	3086.5962	3103.502	3119.68	3121.0637	3213.8638	3504.6836	3816.5014
CC12CC1(CC2O)C#C	C[C@]12C[C@]1(C[C@H]2O)C#C	
InChI=1S/C8H10O/c1-3-8-4-6(9)7(8,2)5-8/h1,6,9H,4-5H2,2H3	InChI=1S/C8H10O/c1-3-8-4-6(9)7(8,2)5-8/h1,6,9H,4-5H2,2H3/t6-,7-,8-/m1/s1
