17
gdb 81953	2.39947	1.80523	1.21205	1.6525	66.99	-0.2631	-0.0446	0.2185	1016.3462	0.135727	-458.969224	-458.961102	-458.960158	-459.001801	31.193	
O	-0.0320802264	 1.4684450545	-0.0864121731	-0.438302
C	-0.0222113834	 0.0670797147	 0.0016616279	 0.053543
C	-1.3879577837	-0.5993640903	-0.0333730257	-0.060892
C	-2.0968346498	-0.623267016	-1.3618691761	-0.290881
C	-1.3108834541	-1.8334956074	-0.9310451072	-0.060888
C	 0.1042868346	-1.9584939769	-1.4716945855	 0.053538
O	 0.2034053378	-2.3026305893	-2.829423215	-0.438301
C	 0.6688471374	-0.5665878754	-1.2023274719	 0.288386
O	 1.4254642249	 0.0179771284	-1.9410264029	-0.336869
H	 0.6574038089	 1.7050825872	-0.7234655845	 0.293424
H	 0.5103536046	-0.2589769687	 0.9137387417	 0.096826
H	-1.9731119573	-0.616235224	 0.8777595054	 0.097853
H	-3.1772288925	-0.703432656	-1.3444168388	 0.123182
H	-1.7147010447	-0.0101250076	-2.1720205319	 0.131281
H	-1.8404349534	-2.7406723321	-0.6674963359	 0.097853
H	 0.6616377815	-2.6813089266	-0.8482188393	 0.096824
H	 0.8709672457	-1.7140557646	-3.2104256873	 0.293423
82.8304	154.3749	215.8566	246.4149	296.772	331.9312	361.9379	494.3875	507.5859	513.2782	563.28	628.5643	709.5901	817.0631	828.8481	902.1648	927.8832	971.8248	989.0663	1010.682	1059.8508	1072.976	1104.0006	1111.3583	1160.4887	1168.7339	1199.2469	1224.8555	1243.3317	1333.6025	1352.6231	1369.8685	1385.6762	1403.8326	1425.6593	1497.1415	1831.1659	2934.5955	2943.6927	3136.9436	3183.3481	3190.609	3223.3018	3730.7806	3735.0869
OC1C2CC2C(O)C1=O	O[C@H]1[C@H]2C[C@H]2[C@@H](O)C1=O	
InChI=1S/C6H8O3/c7-4-2-1-3(2)5(8)6(4)9/h2-5,7-8H,1H2	InChI=1S/C6H8O3/c7-4-2-1-3(2)5(8)6(4)9/h2-5,7-8H,1H2/t2-,3+,4-,5+
