15
gdb 125584	3.19668	1.44513	1.00133	2.8725	73.43	-0.2381	-0.0562	0.1819	1119.6347	0.114257	-450.173876	-450.16583	-450.164885	-450.20661	29.944	
C	-0.334334288	 1.4662843821	 0.0010112413	-0.458723
C	-0.0243092312	 0.0029325164	-0.0079017845	 0.206766
N	 0.0696374065	-0.6260645092	-1.1295939389	-0.211629
N	 0.3514290558	-1.948873482	-1.1081911749	-0.320113
C	 0.5610692031	-2.7469960904	 0.0099926861	 0.483802
N	 0.827444556	-3.9924912944	 0.0427748042	-0.559063
N	 0.4488348672	-2.0244559884	 1.189430375	-0.389522
C	 0.1654352969	-0.6760121872	 1.3011693824	 0.401883
O	 0.0852268975	-0.1142550696	 2.3740789247	-0.355433
H	 0.4627046069	 2.0244218148	 0.5029228263	 0.148687
H	-0.4491139586	 1.8296226526	-1.0209276521	 0.137507
H	-1.2514651827	 1.6607680444	 0.5664128785	 0.148699
H	 0.4094903158	-2.3728326933	-2.0191386218	 0.274596
H	 0.88079232	-4.398186375	-0.8886420482	 0.215121
H	 0.5905003248	-2.5469884107	 2.043821082	 0.277423
87.5826	136.1174	146.0304	281.7405	308.0228	374.0576	379.4802	479.353	516.3006	547.3034	583.32	679.1099	709.1558	715.6322	755.7057	792.9203	794.4555	963.5337	1023.2978	1056.7308	1108.5214	1176.3872	1235.8888	1333.6319	1397.6965	1410.8092	1451.8403	1467.0812	1467.3648	1477.7744	1671.7948	1748.5461	1795.1885	3045.3544	3099.5825	3151.0376	3519.5305	3606.8021	3658.5102
CC1=NNC(=N)NC1=O	CC1=NN[C]([NH])NC1=O	
InChI=1S/C4H6N4O/c1-2-3(9)6-4(5)8-7-2/h1H3,(H3,5,6,8,9)	InChI=1S/C4H6N4O/c1-2-3(9)6-4(5)8-7-2/h1H3,(H3,5,6,8,9)
