17
gdb 48945	3.82283	1.45764	1.25337	3.0874	72.38	-0.2104	-0.0389	0.1715	998.6682	0.137375	-417.933875	-417.92684	-417.925896	-417.965479	27.615	
O	-0.7822686471	 0.9489705571	 0.5299295682	-0.256334
C	 0.2341785338	 0.8116243137	-0.1048262743	 0.082619
C	 1.3738788795	 1.7883666876	-0.0834641544	 0.223317
C	 1.4840864177	 2.8253396717	 1.0571353861	-0.224418
N	 1.9194952409	 3.9145734525	 0.1146651943	-0.149436
C	 3.3608894227	 3.7033145224	-0.2734895439	-0.183522
C	 2.9904765067	 2.5691064798	-1.257095932	-0.004645
N	 2.6558450887	 1.2791327715	-0.6145000631	-0.364901
C	 1.5197189512	 3.0215099287	-1.0516240809	-0.047755
H	 0.3957080402	-0.0537424984	-0.7854121065	 0.083757
H	 0.5015721547	 3.063010536	 1.4733380782	 0.134905
H	 2.1835112626	 2.6055933284	 1.8705870207	 0.099992
H	 3.7324145662	 4.5976497288	-0.7849539587	 0.114529
H	 4.0355894619	 3.4618994247	 0.555403183	 0.099671
H	 3.5234801302	 2.4864084892	-2.2068931913	 0.082427
H	 3.3203345374	 0.9398105684	 0.0781650402	 0.215504
H	 0.7993195126	 3.361132228	-1.7921841357	 0.094291
83.3519	191.5871	212.726	331.8112	375.7146	458.1122	478.0667	638.8982	678.8372	767.6013	805.555	814.4229	840.5328	884.2118	920.7874	925.7411	972.2692	977.4624	1002.9066	1015.9732	1086.8521	1102.8152	1151.6378	1165.5228	1179.1553	1195.7047	1202.8954	1226.6872	1249.9001	1297.3542	1308.9322	1327.8675	1375.9213	1400.0984	1483.4035	1495.0838	1816.8398	2890.858	3030.1429	3043.6409	3077.3303	3085.6475	3108.1268	3145.0716	3476.5228
O=CC12CN3CC(N1)C23	O=C[C@@]12CN3C[C@@H](N1)[C@@H]23	
InChI=1S/C6H8N2O/c9-3-6-2-8-1-4(7-6)5(6)8/h3-5,7H,1-2H2	InChI=1S/C6H8N2O/c9-3-6-2-8-1-4(7-6)5(6)8/h3-5,7H,1-2H2/t4-,5+,6-/m1/s1
