19
gdb 96938	3.25417	1.17224	1.10362	3.6084	79.02	-0.2254	0.0177	0.2431	1209.9166	0.158708	-419.170928	-419.162048	-419.161104	-419.204848	32.69	
C	 0.4768719949	 1.3446691909	-0.0428926953	-0.340065
N	 0.4287059832	-0.1087719491	-0.0011883446	-0.32114
C	 0.510243294	-0.7297730083	-1.0925948028	 0.425501
N	 0.5763778509	-0.3673020748	-2.4563040629	-0.352519
C	 0.7211792624	-1.7450447655	-2.9306432036	-0.064672
C	 2.1323679167	-2.3822476492	-2.8476271128	 0.149212
C	 3.3675830023	-1.5527559516	-3.1214969187	-0.4138
O	 1.9474822336	-2.6895165214	-1.4388577825	-0.307329
C	 0.5848226797	-2.2106193354	-1.4517952561	-0.014265
H	 1.5135137367	 1.6999289488	 0.0371494094	 0.120894
H	 0.0412660151	 1.7742473547	-0.9582914277	 0.101454
H	-0.0684518723	 1.7498903711	 0.8142650316	 0.127531
H	 1.0558423898	 0.4369972177	-2.8367609774	 0.242794
H	 0.0698502939	-2.0251308358	-3.7582282643	 0.091942
H	 2.1629471937	-3.3193525988	-3.4218882345	 0.080737
H	 3.3219648641	-0.5924450388	-2.600257979	 0.118556
H	 4.2579176232	-2.0835694341	-2.7714888909	 0.138414
H	 3.4799547814	-1.371524905	-4.1961577362	 0.117981
H	-0.1341807032	-2.9197537352	-1.0422753319	 0.098775
70.6796	86.2443	150.884	203.107	221.3731	246.837	324.8357	381.613	470.3809	487.0978	561.8146	671.1466	720.5984	786.4344	814.2998	880.5327	906.4357	953.3191	984.1655	1026.5792	1045.7789	1093.1797	1106.3065	1115.4619	1139.7682	1147.9167	1164.26	1193.3346	1221.7162	1282.2152	1314.9117	1340.1199	1346.8475	1378.1596	1406.7638	1435.9692	1481.8559	1488.2012	1495.1132	1506.4274	1815.8156	2978.442	2999.7184	3037.164	3038.9075	3091.9702	3109.1206	3110.482	3118.3932	3125.1508	3587.0201
CN=C1NC2C(C)OC12	CN=C1N[C@H]2[C@@H](C)O[C@@H]12	
InChI=1S/C6H10N2O/c1-3-4-5(9-3)6(7-2)8-4/h3-5H,1-2H3,(H,7,8)	InChI=1S/C6H10N2O/c1-3-4-5(9-3)6(7-2)8-4/h3-5H,1-2H3,(H,7,8)/t3-,4+,5-/m1/s1
