18
gdb 39912	4.0662	1.46641	1.34074	2.3953	84.71	-0.2108	-0.0369	0.1739	993.1177	0.148998	-364.677739	-364.671027	-364.670083	-364.708516	28.306	
C	-0.1386275614	 1.457108984	 0.127108079	-0.298275
N	 1.2133554835	 0.8877323693	 0.000952976	-0.363871
C	 0.0460907377	-0.0154216554	 0.0311970297	 0.352485
C	-0.3060699929	-0.9621617754	 1.1416020247	-0.178295
C	-0.5363563473	-2.1802383132	 0.6041302756	 0.041177
C	-1.9825343159	-2.5078719916	 0.2086505315	-0.261735
C	-1.4972211606	-1.9369493513	-1.1763839648	-0.076337
C	-0.0663974317	-2.2543495847	-0.8637489583	-0.116885
C	-0.3521137966	-0.834047783	-1.1921684471	-0.124207
H	-0.3499360413	 1.9217149267	 1.0870148962	 0.119299
H	-0.5852958038	 1.9609671184	-0.7275779988	 0.110612
H	 1.5504557184	 0.9848397515	-0.9548677745	 0.228343
H	-0.8347723877	-0.5979858808	 2.0180478284	 0.098756
H	-2.2288098221	-3.5674005472	 0.0755818503	 0.108529
H	-2.7758915901	-2.0000078423	 0.7642893922	 0.103004
H	-2.0102758513	-2.1324239982	-2.1152979566	 0.090846
H	 0.6243065959	-2.9531456149	-1.3163263377	 0.092426
H	-0.1637679827	-0.4374497919	-2.1895275158	 0.074127
123.0839	256.4252	302.3361	358.9779	447.7525	488.4674	564.5405	643.4535	708.7436	759.6049	790.0856	800.2618	809.3444	860.4837	873.8339	905.0899	948.5674	952.3222	969.6744	976.8244	991.9553	1028.5932	1043.8686	1054.1832	1059.7759	1092.7922	1126.5247	1127.9204	1204.8044	1219.2351	1249.7193	1261.6195	1278.3906	1306.6417	1325.2575	1405.1719	1498.0206	1508.873	1576.1837	3031.3876	3095.6676	3096.0773	3115.8785	3136.3586	3163.1914	3181.4078	3199.2427	3484.1379
C1NC11C=C2CC3C2C13	C1N[C@]21[CH][C]1C[C@@H]3[C@H]1[C@H]23	
InChI=1S/C8H9N/c1-4-2-8(3-9-8)7-5(1)6(4)7/h2,5-7,9H,1,3H2	InChI=1S/C8H9N/c1-4-2-8(3-9-8)7-5(1)6(4)7/h2,5-7,9H,1,3H2/t5-,6+,7-,8+/m1/s1
