17
gdb 99243	4.20492	0.84582	0.83017	1.8687	65.93	-0.2723	0.0103	0.2827	1457.3523	0.132603	-496.167228	-496.156986	-496.156042	-496.204375	33.794	
C	-0.2193881028	 1.1337460074	-0.2759543338	-0.241373
O	-0.1167688983	-0.2443224081	 0.1124945808	-0.232792
C	-1.2860587667	-0.8859025578	 0.270825637	 0.445282
O	-2.3707018966	-0.3919453581	 0.1217669981	-0.348718
C	-1.0201747349	-2.3292762213	 0.6815323202	-0.202222
O	-2.23236061	-3.0522971128	 0.8099809269	-0.223971
C	-2.8037212423	-3.435328504	-0.3637112382	 0.449414
C	-4.1429144193	-4.0759202854	-0.1120236649	-0.482595
O	-2.2832705399	-3.2698836976	-1.4353342901	-0.353632
H	 0.8052975603	 1.4948447876	-0.3596053112	 0.137088
H	-0.7374260339	 1.2221341733	-1.2337842892	 0.148718
H	-0.767768289	 1.705023376	 0.4770526308	 0.14317
H	-0.3557712198	-2.7917075768	-0.0524002553	 0.15695
H	-0.5409758709	-2.3464723578	 1.6631237077	 0.144368
H	-4.8513422985	-3.3041974762	 0.2046547613	 0.163891
H	-4.5004226906	-4.5439363832	-1.0283225077	 0.148985
H	-4.074411207	-4.8104745352	 0.6938139676	 0.147438
34.1667	67.7589	77.4281	94.3493	113.3511	156.388	229.6956	296.3574	329.8936	360.3039	485.9377	571.5123	598.4707	658.8862	721.5021	852.585	905.4026	991.8491	1022.1968	1052.3496	1064.2043	1117.476	1179.2861	1207.3072	1225.452	1266.5021	1292.0139	1391.5735	1403.8905	1452.546	1469.6386	1474.7123	1475.0752	1482.2194	1497.2272	1831.7618	1846.3136	3054.5473	3058.355	3075.4898	3125.9458	3129.258	3131.2797	3163.344	3170.1177
COC(=O)COC(C)=O	COC(=O)COC(=O)C	
InChI=1S/C5H8O4/c1-4(6)9-3-5(7)8-2/h3H2,1-2H3	InChI=1S/C5H8O4/c1-4(6)9-3-5(7)8-2/h3H2,1-2H3
