20
gdb 38426	3.71112	1.27572	1.26754	1.6578	77.58	-0.2364	0.0725	0.3088	1088.123	0.173266	-403.119959	-403.112399	-403.111455	-403.152285	30.141	
C	 0.5313236433	 1.6972692882	-0.321327653	-0.084891
C	 1.8055521492	 1.2355229397	 0.4068867725	-0.314783
C	 0.995187446	-0.0412304912	 0.7384968508	 0.466348
C	 1.5079391563	-1.3807851325	 0.1606551126	-0.278316
C	 2.1413770469	-2.0883949654	 1.3387440989	-0.033378
N	 3.0398756905	-1.206268198	 2.1216843726	-0.342409
C	 1.6554421433	-1.454772504	 2.5907653539	-0.033379
C	 0.7051912864	-0.3340841434	 2.2289208342	-0.278316
O	-0.1575612494	 0.4776694154	 0.0284822593	-0.331999
H	 0.0319006133	 2.5808033731	 0.0949098069	 0.098399
H	 0.6152532309	 1.8201913042	-1.408137139	 0.098399
H	 2.6807005311	 1.0720625759	-0.222798478	 0.109565
H	 2.100196474	 1.8290110338	 1.2729489362	 0.109565
H	 0.6451136364	-1.9537198949	-0.1998507837	 0.110774
H	 2.1895793826	-1.2334836868	-0.6825569608	 0.099051
H	 2.3676754154	-3.1482678168	 1.2841609276	 0.083561
H	 3.6808397259	-1.7821957686	 2.6619058716	 0.228421
H	 1.5071840995	-2.0262536421	 3.5012321227	 0.083561
H	 0.8166917369	 0.5566205299	 2.8546602589	 0.099051
H	-0.3317666585	-0.6799690166	 2.317064606	 0.110775
69.4577	103.2675	247.0178	341.0313	371.5441	392.0957	419.3146	498.0286	632.9167	762.3344	781.0002	800.1035	840.1126	865.347	867.9952	916.7233	938.7701	958.5848	962.0205	973.1328	996.4451	1027.2541	1073.7289	1089.9324	1120.6122	1135.1278	1158.2118	1165.9391	1166.619	1202.3341	1239.7015	1246.7472	1253.4534	1286.7419	1299.2291	1346.2835	1356.0926	1369.9242	1429.6772	1471.7251	1479.5249	1496.1337	1531.01	3013.7178	3037.0294	3041.3241	3051.4581	3084.7196	3085.1114	3089.9148	3142.0107	3157.3631	3168.0638	3500.8728
C1CC2(CC3NC3C2)O1	C1C[C@]2(C[C@H]3N[C@H]3C2)O1	
InChI=1S/C7H11NO/c1-2-9-7(1)3-5-6(4-7)8-5/h5-6,8H,1-4H2	InChI=1S/C7H11NO/c1-2-9-7(1)3-5-6(4-7)8-5/h5-6,8H,1-4H2/t5-,6+,7-
