16
gdb 131139	3.82268	1.23521	1.02822	4.5898	70.77	-0.2436	0.0015	0.2451	1132.0544	0.125524	-434.046649	-434.038962	-434.038018	-434.079379	29.271	
O	 0.0410665622	 1.3605229661	 0.0423962241	-0.464675
C	-0.0173285979	-0.044935448	 0.0729307905	 0.283433
C	-0.401714483	-0.6221392963	 1.4123178516	-0.283385
C	-1.3645574156	-0.7006846271	 0.2517820717	-0.32485
C	 1.0309728268	-0.6938021378	-0.7435999387	 0.305942
C	 1.2088169276	-1.9352086872	-1.316282535	-0.184575
N	 2.4155369551	-1.9631286427	-1.9492078232	-0.187241
N	 2.9992052799	-0.8080167856	-1.8096692724	-0.114627
N	 2.1692715032	-0.0391450575	-1.0786063882	-0.245925
H	-0.3313369195	 1.6537982632	-0.7978627621	 0.290114
H	 0.1010669529	-1.5262774868	 1.7339171898	 0.13295
H	-0.614222133	 0.0991308175	 2.1927908778	 0.135549
H	-2.2197001721	-0.0344706449	 0.2682587323	 0.125745
H	-1.5396838095	-1.6596644875	-0.2227741749	 0.12976
H	 0.554965352	-2.7920328886	-1.3131315071	 0.11944
H	 2.4142937408	 0.9096878132	-0.8424314262	 0.282347
48.3762	153.6076	177.1198	317.9145	334.0892	381.1781	442.9422	502.5087	538.7629	628.3438	718.3607	738.7219	771.1936	836.1843	868.0082	907.4391	927.1266	985.5833	1003.6703	1047.2025	1059.595	1070.5522	1081.8314	1128.3719	1183.9966	1192.3088	1251.4464	1274.1252	1346.7282	1348.6499	1391.7575	1433.181	1451.5491	1490.6308	1605.3608	3138.1043	3145.5514	3225.6303	3243.3725	3268.9197	3656.3717	3782.3909
OC1(CC1)C1=CN=NN1	OC1(CC1)c1cnn[nH]1	
InChI=1S/C5H7N3O/c9-5(1-2-5)4-3-6-8-7-4/h3,9H,1-2H2,(H,6,7,8)	InChI=1S/C5H7N3O/c9-5(1-2-5)4-3-6-8-7-4/h3,9H,1-2H2,(H,6,7,8)
