15
gdb 130421	2.86718	1.38123	0.94867	5.1949	70.75	-0.2417	-0.0587	0.183	1169.4238	0.115078	-450.150285	-450.142544	-450.1416	-450.182911	28.634	
N	 0.0422408821	 1.2047652575	-0.0490250393	-0.525777
H	 1.1393792168	-0.2070956779	 1.284964008	 0.276528
H	 0.6831167969	 1.9700771644	-0.2320744759	 0.248328
H	-0.5531449818	 1.1155967664	-0.8634047071	 0.25072
C	-0.7570065974	 1.4690741048	 1.1485894745	-0.247372
C	-0.0214607228	 1.031945183	 2.3992553238	 0.445727
N	 0.9381913082	 0.0895850505	 2.2371337526	-0.364064
C	 1.6673731536	-0.4315673479	 3.3076932393	 0.398115
O	 2.5368268197	-1.2658240584	 3.1692077985	-0.369408
C	 1.2197210014	 0.181432085	 4.5621318581	-0.082174
N	 0.2975602881	 1.0850889933	 4.6680367121	-0.167306
N	-0.3552837292	 1.5464547654	 3.5467150534	-0.29601
H	-1.0652663024	 2.5110625331	 1.2947374591	 0.141975
H	-1.676025364	 0.8744997218	 1.0854772203	 0.149402
H	 1.7090927909	-0.1473679811	 5.4745870526	 0.141314
86.3607	149.122	182.8118	223.0807	280.1425	409.9469	434.3711	481.5353	549.8001	584.6912	649.4438	728.7985	782.519	835.4794	862.9958	935.8206	943.0134	977.8727	995.716	1063.9572	1104.1206	1175.6863	1231.9102	1246.2312	1316.305	1350.0203	1397.8597	1475.4966	1490.4095	1556.1299	1619.8365	1665.7777	1807.7611	3033.8228	3072.8842	3181.029	3511.1105	3518.1555	3601.3677
[NH3+]CC1=NC(=O)C=N[N-]1	NCc1[nH]c(=O)cnn1	
InChI=1S/C4H6N4O/c5-1-3-7-4(9)2-6-8-3/h2H,1,5H2,(H,7,8,9)	InChI=1S/C4H6N4O/c5-1-3-7-4(9)2-6-8-3/h2H,1,5H2,(H,7,8,9)
