19
gdb 89337	1.91489	1.82366	1.1444	4.6487	82.06	-0.229	0.0087	0.2377	1140.9845	0.158342	-382.046001	-382.036943	-382.035998	-382.079437	33.874	
C	-0.2409192037	 1.4423973955	 0.068978488	-0.34112
N	 0.1082919583	 0.0334248088	 0.0105238633	-0.124385
C	 1.2042127443	-0.4132535808	-0.8944914788	-0.226572
C	 1.8942003167	-1.136697802	 0.271217066	 0.249167
C	 2.4630145133	-2.5226428447	 0.2190031576	-0.492561
C	 2.2160183432	-0.1260571162	 1.3355610216	-0.374954
C	 0.7723002027	-0.5714187538	 1.160987908	 0.191875
C	 0.0284329574	-1.1897024732	 2.2147496383	 0.230999
N	-0.5634322983	-1.6927092817	 3.073130089	-0.356271
H	 0.6095577824	 2.1132858425	 0.2807840025	 0.098308
H	-0.6794055242	 1.741467717	-0.8879667809	 0.128349
H	-0.9964889663	 1.5915911192	 0.8462169016	 0.139006
H	 0.8334359186	-1.0751298164	-1.6838377222	 0.117648
H	 1.7905357154	 0.3962146843	-1.3486658286	 0.102516
H	 3.4273457602	-2.5272831881	-0.3024202765	 0.130124
H	 2.6274859946	-2.9205761395	 1.2248069846	 0.137009
H	 1.7913632602	-3.2068123252	-0.3093453391	 0.134151
H	 2.7119996862	-0.520000978	 2.2167802741	 0.136459
H	 2.4904429591	 0.8935481623	 1.0785322213	 0.120253
105.8185	142.9352	162.7512	188.2951	211.9566	237.2636	323.0791	373.2104	400.7835	457.7048	529.5632	568.7253	595.2632	651.9435	761.0718	822.2701	859.8392	949.9423	963.9967	981.4654	1000.4635	1064.6905	1079.7339	1109.4567	1128.9859	1169.3313	1210.5404	1227.4077	1252.0153	1282.3592	1330.5868	1390.6213	1426.4783	1447.9602	1481.6456	1484.4898	1487.7013	1496.0134	1500.4465	1514.3862	2343.2298	2955.4998	3015.16	3030.4924	3069.7435	3071.5852	3092.9029	3110.6544	3111.9621	3118.5937	3211.2914
CN1CC2(C)CC12C#N	CN1C[C@@]2(C)C[C@@]12C#N	
InChI=1S/C7H10N2/c1-6-3-7(6,4-8)9(2)5-6/h3,5H2,1-2H3	InChI=1S/C7H10N2/c1-6-3-7(6,4-8)9(2)5-6/h3,5H2,1-2H3/t6-,7+/m1/s1
