17
gdb 110243	1.98743	1.52878	1.02053	3.1405	69.66	-0.2418	-0.0156	0.2262	1172.1394	0.134029	-458.936499	-458.927661	-458.926717	-458.970311	32.945	
O	 0.0606574175	 1.2828197391	-0.3260334849	-0.411642
C	 0.089850741	-0.0257217398	 0.2150462468	-0.096747
C	-1.2797024881	-0.6783017841	 0.176013235	-0.12797
C	-1.9219609635	-1.2223165817	-1.1205181592	-0.303976
C	-0.943934679	-2.0523209406	-1.8827482452	 0.428029
O	-0.6529520194	-2.1271321464	-3.0447741194	-0.32096
C	-0.59588573	-2.9442934917	-0.6621863662	-0.416393
C	-1.5960774749	-2.1207028009	 0.1483899481	 0.414017
O	-2.4317707366	-2.7741156389	 1.0185580738	-0.448893
H	-0.1900172086	 1.2073020504	-1.2535259286	 0.291641
H	 0.8343098061	-0.6547888908	-0.2930226777	 0.103515
H	 0.4166430529	 0.088532583	 1.2544687416	 0.116504
H	-2.022284866	-0.0975952744	 0.7271570929	 0.098474
H	-2.8412428215	-0.7923654576	-1.5001473168	 0.113626
H	-0.9756402936	-3.9552798227	-0.8388776254	 0.144685
H	 0.4397837084	-3.003090663	-0.3174242489	 0.121657
H	-2.8507701249	-2.1326792201	 1.6018508139	 0.294433
58.6914	114.4285	174.4212	222.5676	252.27	309.2967	338.6273	358.3199	450.2202	491.3277	518.9899	592.4411	617.7804	663.7824	765.3741	836.2648	882.5245	934.9891	983.1366	987.3093	1045.597	1066.5745	1095.9872	1102.2444	1128.087	1172.8167	1200.1965	1215.5574	1244.787	1320.2763	1381.905	1401.4134	1418.7284	1456.5703	1489.0732	1506.5439	1873.457	3006.8038	3060.3105	3068.8826	3096.7057	3113.9274	3192.2666	3802.5774	3817.8305
OCC1C2C(=O)CC12O	OC[C@H]1[C@H]2C(=O)C[C@@]12O	
InChI=1S/C6H8O3/c7-2-3-5-4(8)1-6(3,5)9/h3,5,7,9H,1-2H2	InChI=1S/C6H8O3/c7-2-3-5-4(8)1-6(3,5)9/h3,5,7,9H,1-2H2/t3-,5-,6+/m0/s1
