17
gdb 12052	3.57649	1.84301	1.56802	2.7527	68.09	-0.2437	-0.0247	0.219	866.9394	0.14114	-363.82503	-363.81739	-363.816446	-363.856889	28.758	
C	-0.1146972355	 1.6962609782	 0.2494850722	-0.463375
C	 0.0251482405	 0.1860066628	 0.0969685878	 0.244211
C	 0.9655873459	-0.4166024692	-0.9762191444	-0.317958
C	 1.6726999685	-1.1259580787	 0.1763363558	-0.003305
C	 2.1600520741	-0.1619494225	 1.1786168748	-0.241468
N	 0.7349010673	-0.5454223106	 1.226151592	-0.175852
C	-1.3713016987	-0.4253353621	 0.0731669377	 0.140328
O	-1.8640037837	-1.0067317272	-0.8568101872	-0.249889
H	 0.8575362151	 2.1840073215	 0.3537799903	 0.127191
H	-0.6092089391	 2.1219990431	-0.630096112	 0.136202
H	-0.7131953015	 1.9424162425	 1.1335048201	 0.131946
H	 0.424277622	-1.0758413945	-1.6554640551	 0.139065
H	 1.5767046931	 0.2813277913	-1.5549521064	 0.102092
H	 1.948567248	-2.1750338997	 0.1942781897	 0.101047
H	 2.7135884252	-0.5479514609	 2.0291798458	 0.126937
H	 2.4471325478	 0.8416931984	 0.8756704784	 0.113037
H	-1.916696979	-0.2864199524	 1.0330360308	 0.089791
74.0672	187.0532	202.8381	240.7643	312.8166	332.7158	398.2301	457.2872	576.2472	678.679	758.4904	776.3831	824.7535	862.0318	921.405	929.5529	983.6726	1003.2545	1012.8959	1063.1152	1110.3137	1122.823	1139.3107	1149.7366	1200.5613	1255.2837	1263.8912	1286.7813	1362.7505	1400.0153	1414.759	1482.6207	1488.98	1496.9589	1512.6117	1836.9361	2892.1644	3034.7498	3064.1558	3102.6478	3112.9506	3119.8361	3136.7153	3167.9113	3201.6782
CC1(CC2CN12)C=O	C[C@]1(C[C@H]2CN12)C=O	
InChI=1S/C6H9NO/c1-6(4-8)2-5-3-7(5)6/h4-5H,2-3H2,1H3	InChI=1S/C6H9NO/c1-6(4-8)2-5-3-7(5)6/h4-5H,2-3H2,1H3/t5-,6-,7?/m0/s1
