22
gdb 60011	2.99683	0.77783	0.69454	5.189	83.27	-0.2778	0.0386	0.3165	1693.6821	0.191819	-404.375921	-404.364916	-404.363972	-404.413093	39.383	
C	-1.6767393171	 1.6933670817	-1.2170315175	-0.405397
C	-1.8785587977	 0.1806775379	-1.309213978	 0.123629
O	-1.1974706285	-0.3679920211	-2.435533363	-0.424797
C	-1.4833970832	-0.5298296683	-0.0049713576	-0.212037
C	-1.5263017561	-2.0675061391	-0.0439585758	 0.034001
C	-0.9754566092	-2.6602510592	 1.2581779815	-0.409582
C	-2.9615570365	-2.5745990464	-0.3318388552	-0.348149
C	-3.0482737625	-4.031204834	-0.4122364045	 0.266986
N	-3.103347458	-5.1840275135	-0.4751507256	-0.316992
H	-1.9633135911	 2.1726547363	-2.1567456138	 0.128149
H	-2.2750765134	 2.1255039649	-0.4083821995	 0.119176
H	-0.6248693023	 1.9328419292	-1.0157960809	 0.10901
H	-2.9374179626	-0.0110218156	-1.5220117872	 0.091621
H	-0.2623260436	-0.1497218115	-2.3499542128	 0.278956
H	-0.4595521571	-0.2268763196	 0.2576125395	 0.089319
H	-2.1236843127	-0.1604538636	 0.8083085357	 0.096958
H	-0.8979909988	-2.3972004513	-0.8782775249	 0.10279
H	-0.9717460749	-3.7533213442	 1.2285077308	 0.143775
H	 0.0511777433	-2.3234625935	 1.4324396325	 0.115598
H	-1.577972015	-2.3490759095	 2.1200391114	 0.114186
H	-3.6474411092	-2.2309704836	 0.4533196212	 0.142307
H	-3.3268350338	-2.1667550861	-1.2793525065	 0.160493
25.807	61.9002	105.4824	153.043	172.2451	236.0172	238.5633	277.6627	297.0285	330.9447	382.5814	401.9365	420.4856	468.973	502.9232	576.119	814.8735	833.8966	872.5741	903.5232	927.3983	955.6494	980.712	1026.3547	1066.1817	1092.3323	1121.2733	1148.2154	1178.8421	1199.8978	1263.6997	1296.2068	1323.1524	1334.0912	1359.1292	1385.6604	1397.6544	1405.326	1415.6936	1421.0511	1464.2968	1473.9482	1491.5734	1494.5649	1499.1792	1501.9507	2359.4371	3001.4887	3023.5823	3029.0727	3030.0623	3033.3102	3044.8807	3061.0446	3089.9792	3095.1032	3098.7254	3116.658	3120.4491	3794.2161
CC(O)CC(C)CC#N	C[C@@H](O)C[C@@H](C)CC#N	
InChI=1S/C7H13NO/c1-6(3-4-8)5-7(2)9/h6-7,9H,3,5H2,1-2H3	InChI=1S/C7H13NO/c1-6(3-4-8)5-7(2)9/h6-7,9H,3,5H2,1-2H3/t6-,7+/m0/s1
