20
gdb 115153	3.2567	1.11492	0.90693	2.8802	75.41	-0.238	0.021	0.259	1316.9442	0.171848	-440.333261	-440.323977	-440.323033	-440.36763	34.35	
C	-0.105128252	 1.7423636216	-0.3118884031	-0.391724
C	-0.3083799782	 0.2244959594	-0.2572624752	-0.187502
C	 0.7425863073	-0.5562624359	-1.0491710797	 0.009837
C	 2.2014439898	-0.3690978742	-0.5604336082	-0.180537
N	 2.844730585	-1.5985751885	-0.9985552585	-0.309195
C	 1.9865197679	-2.6367358618	-1.210790154	 0.383462
O	 2.2763834527	-3.8008175151	-1.3991243272	-0.395511
C	 0.5586398097	-2.0812206961	-1.0603772918	-0.005296
O	 0.0540784111	-2.5337194527	 0.1909826227	-0.43992
H	 0.8518593135	 2.0404962313	 0.1301227985	 0.117303
H	-0.1220971177	 2.111069233	-1.3438940734	 0.113885
H	-0.8945620835	 2.2621195175	 0.2391253961	 0.117546
H	-0.3004492583	-0.1221273502	 0.7807380374	 0.120529
H	-1.3002233264	-0.0254089435	-0.6522949894	 0.102523
H	 0.7120269804	-0.233324062	-2.0978241082	 0.085023
H	 2.6802197607	 0.5079004605	-1.0053926016	 0.114056
H	 2.241451804	-0.2614785799	 0.5327542928	 0.114714
H	 3.8280792537	-1.7806725417	-0.8661807715	 0.251104
H	-0.0805688349	-2.4218739913	-1.8850411026	 0.083512
H	 0.2032859249	-3.4868206307	 0.218090607	 0.296189
60.7694	91.0089	166.2091	171.075	230.2652	255.3604	298.6212	348.8982	402.2009	462.379	507.9137	553.474	681.3308	697.8873	759.8024	779.0381	836.2501	903.6103	952.2706	976.3486	993.471	1044.9175	1069.2069	1106.1866	1153.0145	1161.6881	1207.9318	1240.0811	1266.0312	1286.6786	1310.8233	1340.4787	1347.2005	1365.0859	1387.4454	1409.7001	1416.28	1450.8637	1487.4305	1501.5105	1507.271	1527.7992	1823.5114	3003.7342	3015.4859	3029.4221	3030.904	3039.2263	3074.8773	3080.4901	3101.8825	3105.1744	3625.0496	3787.1032
CCC1CNC(=O)C1O	CC[C@H]1CNC(=O)[C@H]1O	
InChI=1S/C6H11NO2/c1-2-4-3-7-6(9)5(4)8/h4-5,8H,2-3H2,1H3,(H,7,9)	InChI=1S/C6H11NO2/c1-2-4-3-7-6(9)5(4)8/h4-5,8H,2-3H2,1H3,(H,7,9)/t4-,5-/m0/s1
