12
gdb 19391	3.24861	2.35714	1.61795	2.4441	55.21	-0.2485	-0.0471	0.2015	756.676	0.082179	-418.407361	-418.400957	-418.400013	-418.438033	23.577	
O	-0.0135511049	 0.0024515052	-0.0791095627	-0.288409
C	-0.0301729547	 1.1885058986	 0.0291578005	 0.367511
C	-1.0996407727	 2.2856255016	-0.0812790534	-0.118715
O	-0.881315414	 3.1099392421	 1.0840071644	-0.226391
C	-0.0372538523	 3.3242996145	-0.0455771217	-0.093948
C	 1.0676490108	 2.2836007941	 0.1134166304	 0.329616
C	 2.3819676235	 2.3322325953	 0.7465139583	-0.253407
O	 2.231392595	 2.205329139	-0.6771660773	-0.261732
H	-2.0836922639	 2.2886576573	-0.5329061732	 0.133565
H	-0.0187376375	 4.295441902	-0.5227175169	 0.138441
H	 2.7724064718	 3.2877384092	 1.0918614571	 0.132169
H	 2.7622131189	 1.4467033211	 1.2514782145	 0.1413
128.7596	195.5758	230.0763	279.5086	432.3991	513.5288	641.8275	677.5188	754.617	830.0995	850.1315	883.5798	907.1605	935.1382	985.9804	999.158	1057.1722	1120.6948	1136.5783	1161.1237	1205.5659	1230.6514	1328.3287	1442.7824	1528.5249	1911.0334	3094.1897	3189.1651	3203.4605	3218.1527
O=C1C2OC2C11CO1	O=C1[C@H]2O[C@H]2[C@]21CO2	
InChI=1S/C5H4O3/c6-3-2-4(8-2)5(3)1-7-5/h2,4H,1H2	InChI=1S/C5H4O3/c6-3-2-4(8-2)5(3)1-7-5/h2,4H,1H2/t2-,4-,5-/m1/s1
