17
gdb 26164	2.61668	1.52073	0.99418	1.8356	70.65	-0.1939	0.0433	0.2373	1152.1535	0.13702	-455.184414	-455.175964	-455.17502	-455.21753	32.184	
C	 0.1209919868	 1.2524498444	 1.034135882	-0.39638
C	-0.2243549511	 0.448088113	-0.2129957576	 0.002965
O	 0.7743226456	-0.5671026055	-0.4889482901	-0.439917
C	-1.5749583008	-0.203993441	-0.142913493	 0.119677
C	-1.91020129	-1.4044807279	-0.7205850164	 0.325641
O	-1.2071374395	-2.305745181	-1.4323404793	-0.437488
N	-3.2359041018	-1.6088966116	-0.44393589	-0.3109
C	-3.6575513832	-0.5224499526	 0.2874494569	-0.010133
N	-2.6863146391	 0.3317524208	 0.4827508988	-0.322066
H	 1.0959873956	 1.7345062912	 0.9226241711	 0.115632
H	-0.644303988	 2.0122749377	 1.208471057	 0.1503
H	 0.1410787427	 0.6031805531	 1.9175668642	 0.109302
H	-0.15839096	 1.1075309184	-1.0884634875	 0.105217
H	 0.9252806499	-1.0366069356	 0.3406991128	 0.284203
H	-0.2956007876	-1.9610317634	-1.4236174089	 0.306243
H	-3.7726940047	-2.4128807089	-0.7235463523	 0.270589
H	-4.6736906547	-0.4285681113	 0.6381203023	 0.127115
59.6222	168.2715	197.8691	242.2198	295.4726	328.8773	358.869	421.0198	472.7368	497.878	515.398	658.1169	661.87	708.8597	718.4815	747.9495	766.4303	883.6872	949.1892	1029.9343	1062.1633	1089.1174	1096.5681	1143.4655	1241.4172	1272.6654	1302.5044	1333.4716	1361.5125	1399.9866	1407.4844	1422.7187	1484.955	1492.2421	1509.5626	1563.5079	1651.1844	3016.6918	3034.541	3107.0233	3137.2668	3256.4093	3626.8803	3665.8366	3783.0459
CC(O)C1=C(O)NC=N1	C[C@@H](O)c1c(O)[nH]cn1	
InChI=1S/C5H8N2O2/c1-3(8)4-5(9)7-2-6-4/h2-3,8-9H,1H3,(H,6,7)	InChI=1S/C5H8N2O2/c1-3(8)4-5(9)7-2-6-4/h2-3,8-9H,1H3,(H,6,7)/t3-/m1/s1
