15
gdb 24663	4.7465	1.18689	1.01808	1.991	73.71	-0.2602	-0.0499	0.2103	1130.6722	0.1162	-413.007109	-413.000117	-412.999173	-413.039171	25.75	
C	 0.4086517827	 1.5540766899	 0.1876599617	-0.227629
N	 1.2014212404	 0.4154634728	-0.2638968194	-0.296776
C	-0.2177969552	 0.2016667209	 0.1083351658	-0.120146
C	-0.4679438959	-0.6042546396	 1.3272373912	 0.41843
N	 0.3070441703	-0.400844172	 2.4003585594	-0.27499
C	 0.0214841527	-1.1685604641	 3.4458089567	 0.080964
N	-0.9469923104	-2.0862290543	 3.5099117881	-0.242867
C	-1.6607475747	-2.1876769917	 2.3890436749	 0.080601
N	-1.4762037212	-1.4850612889	 1.2728031977	-0.290314
H	 0.6856584263	 1.9304585569	 1.1671316908	 0.142472
H	 0.0787428772	 2.2989277165	-0.5317794108	 0.11904
H	 1.2730404715	 0.4156983097	-1.2786217755	 0.241171
H	-0.9359251838	 0.0127879209	-0.6825291249	 0.106244
H	 0.6324173862	-1.0355256156	 4.336420411	 0.132512
H	-2.4712712262	-2.9137688114	 2.3837889335	 0.131288
69.1212	139.5883	189.5431	316.0953	357.9792	405.3489	579.1031	615.2082	705.4369	798.7914	815.3599	879.2319	914.1088	930.8335	975.6274	992.1611	1008.5067	1048.5039	1106.023	1129.7788	1169.207	1183.9773	1206.2558	1234.619	1269.9115	1291.8227	1328.2066	1422.7864	1427.4063	1486.2045	1497.6387	1581.5697	1608.3661	3114.2497	3158.6043	3162.3709	3174.1251	3211.7466	3500.6771
C1NC1C1=NC=NC=N1	C1N[C@H]1c1ncncn1	
InChI=1S/C5H6N4/c1-4(7-1)5-8-2-6-3-9-5/h2-4,7H,1H2	InChI=1S/C5H6N4/c1-4(7-1)5-8-2-6-3-9-5/h2-4,7H,1H2/t4-/m1/s1
