18
gdb 6512	3.01619	1.81163	1.34817	1.781	74.81	-0.2554	0.0291	0.2845	978.479	0.149181	-347.766259	-347.756816	-347.755872	-347.799577	34.813	
C	-0.0408882865	 1.5403604699	-0.0564273258	-0.458463
C	-0.0626473163	 0.0296680833	 0.0618310449	 0.353716
C	-1.2409611781	-0.6232747179	-0.6303817288	-0.463296
O	 1.1960006923	-0.6298391637	-0.1416303801	-0.315795
C	 0.6285158259	-0.6734201653	 1.1843826247	 0.125989
C	 1.4096430994	 0.0473313903	 2.2686217303	-0.475224
C	 0.1482499343	-1.9726200345	 1.6102921184	 0.308354
C	-0.2247803262	-3.0377096925	 2.0257062548	-0.436996
H	 0.8701969879	 1.9767976559	 0.3518870247	 0.129367
H	-0.1027574102	 1.8238597771	-1.1127762748	 0.128244
H	-0.9033636423	 1.9799235829	 0.4557054648	 0.124333
H	-1.2140119642	-0.391725292	-1.7006397174	 0.122995
H	-1.2232794324	-1.706288108	-0.5069663246	 0.141433
H	-2.1851574772	-0.2403477049	-0.228481599	 0.119674
H	 1.8042155917	 0.9996497325	 1.9149691384	 0.128628
H	 0.7741023757	 0.2251888424	 3.1415189407	 0.131204
H	 2.2511160362	-0.5748221095	 2.5872413667	 0.138962
H	-0.5581565601	-3.983276556	 2.3761771421	 0.196875
120.3467	135.6451	152.7915	163.4679	181.7041	251.2981	291.7484	366.1287	383.8794	409.2131	478.6391	552.208	580.1789	624.9751	652.9845	657.3573	705.4045	869.4975	893.9848	946.3461	995.0155	1010.6205	1080.5654	1148.8348	1161.5645	1202.4421	1253.2972	1402.3631	1409.2207	1413.8048	1420.8511	1470.5318	1478.8799	1481.1083	1491.7232	1503.077	1515.2494	2231.8574	3036.956	3042.5546	3051.1975	3095.6898	3101.5716	3114.1654	3143.7457	3149.657	3158.3169	3500.4404
CC1(C)OC1(C)C#C	CC1(C)O[C@]1(C)C#C	
InChI=1S/C7H10O/c1-5-7(4)6(2,3)8-7/h1H,2-4H3	InChI=1S/C7H10O/c1-5-7(4)6(2,3)8-7/h1H,2-4H3/t7-/m1/s1
