23
gdb 77075	2.59587	1.11208	0.97186	0.9197	92.71	-0.25	0.053	0.3031	1367.6852	0.203064	-351.12814	-351.117804	-351.116859	-351.162661	39.812	
C	-0.7307618256	 0.9250174538	-0.1328526978	-0.424216
C	-0.0159277174	-0.3916543363	 0.1234806608	 0.012456
C	 1.301549532	-0.6997655034	-0.6613787178	-0.184935
C	 1.8343215459	-1.4152783868	 0.6191702759	-0.271821
C	 0.7578136395	-0.6655544534	 1.4638395853	 0.314529
C	 1.3309299245	 0.598419986	 2.1121826859	-0.439835
C	 0.0072466032	-1.5026917699	 2.4952762695	-0.457006
C	 1.214646177	-1.4423558471	-1.9008873398	 0.302512
C	 1.1216630584	-2.075532693	-2.9200068789	-0.44682
H	-0.0649719959	 1.7838836021	-0.0018994464	 0.113674
H	-1.1165521872	 0.9572925686	-1.1576145016	 0.124341
H	-1.5821436872	 1.0554636577	 0.5446531847	 0.115429
H	-0.7104455867	-1.2221135192	-0.0443532816	 0.077649
H	 1.8563341315	 0.23053909	-0.8283196405	 0.096186
H	 1.6462405302	-2.4907617191	 0.5745207017	 0.105685
H	 2.8835260319	-1.2476289709	 0.8756256381	 0.098708
H	 1.8933798331	 1.2123615693	 1.4012736096	 0.113569
H	 0.5396173795	 1.2247628626	 2.5385770311	 0.113549
H	 2.0150850182	 0.328985421	 2.9247163957	 0.112333
H	 0.6622358121	-1.7891459439	 3.3267583989	 0.111854
H	-0.8367624139	-0.9453518021	 2.9193595358	 0.111774
H	-0.3886073871	-2.4214712947	 2.0500088571	 0.110953
H	 1.0465204239	-2.6303216015	-3.8219275457	 0.189432
72.8752	128.2077	182.0387	199.6247	225.7733	243.3693	264.2618	284.0259	336.022	351.7615	387.3443	464.7292	516.6115	537.4838	565.2643	613.3236	620.8815	718.5984	797.6218	860.8148	904.2369	937.9452	955.7318	969.223	1017.4805	1035.6367	1059.8918	1077.1942	1117.0012	1153.1098	1187.489	1217.5076	1228.2111	1250.6905	1284.6171	1304.9042	1351.4486	1386.5561	1404.5023	1408.7954	1423.8496	1482.3925	1483.7584	1489.7719	1495.8476	1496.8485	1506.6438	1510.2435	2229.9081	3017.6356	3025.2534	3028.8469	3035.8518	3048.4791	3059.2465	3080.6984	3090.3179	3092.0874	3092.7496	3096.6555	3102.9136	3116.5134	3505.6073
CC1C(CC1(C)C)C#C	C[C@H]1[C@@H](CC1(C)C)C#C	
InChI=1S/C9H14/c1-5-8-6-9(3,4)7(8)2/h1,7-8H,6H2,2-4H3	InChI=1S/C9H14/c1-5-8-6-9(3,4)7(8)2/h1,7-8H,6H2,2-4H3/t7-,8+/m0/s1
