18
gdb 69705	3.78446	1.35111	1.21575	3.4171	75.87	-0.2332	-0.0363	0.1969	1062.4273	0.14688	-401.897369	-401.889564	-401.88862	-401.929449	30.715	
C	 0.084385105	 1.5320497376	 0.0800432379	-0.49203
C	-0.0655923323	 0.0441412831	-0.0315874131	 0.355767
C	-0.9470562436	-0.7551355513	 0.8411874516	-0.302351
N	 0.5184097603	-0.9120984452	 1.0138911291	-0.180982
C	 1.0459242032	-1.762415589	-0.1336797884	-0.085722
C	 0.5137772756	-0.7754006372	-1.2062865241	-0.104918
C	-0.3674682991	-1.880139572	-1.8495843721	-0.378465
C	 0.1140475112	-2.8466124084	-0.7369367552	 0.388278
O	-0.1189697106	-3.9890469902	-0.4750835683	-0.287535
H	 1.1015577615	 1.8475948451	-0.1760955025	 0.125434
H	-0.608379502	 2.0422297203	-0.6000526491	 0.124514
H	-0.128878338	 1.8681276993	 1.0987885756	 0.132489
H	-1.3918934828	-0.2358777591	 1.6853256425	 0.124845
H	-1.5503274008	-1.5797102048	 0.4736078929	 0.12941
H	 2.0948145247	-2.0179628403	 0.0179150579	 0.101529
H	 1.1869577854	-0.2249615548	-1.8602589968	 0.082743
H	-1.4466279718	-1.7154814032	-1.9176596509	 0.130175
H	-0.0035091357	-2.20227576	-2.8312881371	 0.136819
98.3441	167.0897	189.9373	274.0681	310.2195	403.5284	425.6955	471.7221	544.2805	604.6577	647.2481	706.6869	754.8272	823.1801	841.6048	879.1752	896.9176	961.0939	971.098	1006.5426	1043.2752	1051.28	1081.428	1101.8445	1117.8101	1137.3771	1152.7785	1202.7859	1231.3926	1243.9225	1250.8266	1317.41	1385.2301	1419.2096	1431.6484	1481.0536	1492.3591	1516.6327	1886.4268	3026.8042	3050.5471	3088.8051	3104.356	3112.3696	3112.9693	3119.1146	3136.4447	3198.6634
CC12CN1C1C2CC1=O	C[C@]12CN1[C@@H]1[C@H]2CC1=O	
InChI=1S/C7H9NO/c1-7-3-8(7)6-4(7)2-5(6)9/h4,6H,2-3H2,1H3	InChI=1S/C7H9NO/c1-7-3-8(7)6-4(7)2-5(6)9/h4,6H,2-3H2,1H3/t4-,6-,7-,8?/m1/s1
