17
gdb 6656	6.94266	0.75225	0.69621	3.8804	71.14	-0.2481	0.0295	0.2777	1548.9588	0.13971	-363.869829	-363.860112	-363.859168	-363.905876	33.406	
N	-0.0386479954	 1.3198390925	 0.277122481	-0.52259
C	 0.0500911399	 0.0350337183	-0.1782409022	 0.405903
O	 1.0812970858	-0.4245901039	-0.6278152147	-0.354892
C	-1.2486318831	-0.7675179001	-0.0906106665	-0.316047
C	-0.9905850044	-2.2715448611	 0.0118297608	-0.159166
C	-2.2915103298	-3.0926045144	-0.0769432783	-0.363309
C	-2.064926378	-4.5283049307	 0.0365461157	 0.29219
C	-1.8538222917	-5.70749402	 0.1341810602	-0.431309
H	 0.7602487453	 1.9215735404	 0.1606282121	 0.260642
H	-0.9046548668	 1.7214825823	 0.5897265403	 0.2567
H	-1.8583305206	-0.4140666815	 0.7502435726	 0.101293
H	-1.8248813255	-0.5484923586	-1.000918872	 0.127129
H	-0.3037751714	-2.5676681406	-0.7845067874	 0.140179
H	-0.4828083666	-2.4984527627	 0.9549776276	 0.117246
H	-2.9872300726	-2.7723703317	 0.7106474773	 0.124846
H	-2.7956115906	-2.8774384922	-1.0289483066	 0.127867
H	-1.6746725244	-6.7505133361	 0.2178032799	 0.193319
25.0332	77.5007	91.9827	107.4756	139.4903	218.4332	300.3197	348.3231	410.4358	507.65	538.1261	612.7139	616.3433	635.5725	669.7563	744.1665	840.994	862.4417	967.4972	1030.4205	1062.2392	1072.0081	1102.2955	1166.8176	1240.6668	1291.2675	1309.0136	1321.5155	1374.6629	1406.3951	1464.4138	1473.9299	1500.6656	1617.0931	1799.447	2239.8638	3008.4564	3012.7446	3036.4474	3050.5582	3062.9897	3117.1381	3508.0697	3602.2976	3739.7142
NC(=O)CCCC#C	NC(=O)CCCC#C	
InChI=1S/C6H9NO/c1-2-3-4-5-6(7)8/h1H,3-5H2,(H2,7,8)	InChI=1S/C6H9NO/c1-2-3-4-5-6(7)8/h1H,3-5H2,(H2,7,8)
