22
gdb 122224	2.6369	0.93179	0.7829	2.4259	79.02	-0.2435	0.0825	0.3261	1557.948	0.19323	-441.446686	-441.4363	-441.435356	-441.483293	37.295	
C	 0.0886747158	 1.0753478667	 0.4077829021	-0.387434
C	 0.2377727647	-0.4414929605	 0.5053918691	-0.040481
O	-0.9955128048	-1.1287538122	 0.6456185793	-0.25701
C	-1.7635694952	-1.2299365974	-0.5358781984	-0.147797
C	-3.0050515373	-2.055866988	-0.2525596748	 0.278699
C	-4.0419918453	-2.0167787198	-1.3577421934	-0.120299
O	-4.6636196919	-0.744124998	-1.4223061887	-0.422075
C	-2.931717827	-3.2066126674	 0.6753572603	-0.278873
N	-3.6143100502	-1.9590428161	 1.0872081385	-0.365773
H	 1.077196585	 1.5458486237	 0.3928245826	 0.118795
H	-0.4373813373	 1.3788990919	-0.5017025152	 0.128346
H	-0.4634769086	 1.4611568212	 1.2698841761	 0.127009
H	 0.7845497652	-0.8302951442	-0.3683121032	 0.091793
H	 0.8164971305	-0.7026126491	 1.3974078857	 0.109266
H	-2.0810257519	-0.2414996634	-0.8983909805	 0.111783
H	-1.1723646434	-1.7051697168	-1.3373515634	 0.092298
H	-3.5802774522	-2.1871843839	-2.3371861809	 0.102916
H	-4.7794050488	-2.8150513983	-1.1895941331	 0.092327
H	-5.0044184637	-0.583692457	-0.5330762638	 0.290866
H	-3.5848052888	-4.0634712728	 0.5332601803	 0.111475
H	-1.9693971607	-3.4236923456	 1.1276265655	 0.122963
H	-2.974834234	-1.4373278929	 1.683474446	 0.241205
34.0922	66.981	88.4741	146.4884	159.031	232.7861	242.6089	307.5216	347.4295	365.293	425.1952	474.2816	490.4527	592.0591	742.605	802.2858	868.8758	888.6687	910.4116	929.6552	993.7746	1001.0986	1022.9248	1046.8218	1071.6053	1091.858	1122.554	1144.9751	1158.2672	1199.7351	1208.1942	1265.7041	1293.0835	1318.6988	1344.2383	1357.3398	1396.7901	1412.5269	1416.2764	1427.8138	1438.3674	1488.1459	1489.8252	1495.7604	1504.0524	1508.5893	1525.9786	2957.5565	2983.4246	2998.1444	3016.6266	3042.0081	3065.7436	3069.9849	3112.0409	3114.1461	3121.1532	3206.5398	3494.5985	3775.9505
CCOCC1(CO)CN1	CCOC[C@@]1(CO)CN1	
InChI=1S/C6H13NO2/c1-2-9-5-6(4-8)3-7-6/h7-8H,2-5H2,1H3	InChI=1S/C6H13NO2/c1-2-9-5-6(4-8)3-7-6/h7-8H,2-5H2,1H3/t6-/m0/s1
