17
gdb 94344	2.95172	1.30402	1.07404	1.9608	75.46	-0.2535	0.0119	0.2655	1147.7895	0.133473	-421.754065	-421.745361	-421.744417	-421.78748	32.928	
O	 0.5357180558	 0.7114974133	-0.6496073019	-0.435615
C	 0.2344611003	-0.3377189371	 0.2179652158	 0.087647
C	-0.0185192985	-0.0554058591	 1.7379629465	-0.258604
C	-1.2649959093	-0.9935280392	 1.6843194903	-0.318337
C	-1.1989992195	-0.8852387308	 0.1622109056	 0.389629
O	-2.1503871125	-0.1051739075	-0.5552255516	-0.285287
C	-1.9584953981	-1.4930341466	-0.9418264998	-0.280678
C	-1.3621505012	-1.7473464891	-2.223350564	 0.338887
C	-0.8723738732	-1.9908302435	-3.2935713359	-0.411736
H	-0.3117957211	 1.0716357196	-0.9450348175	 0.292306
H	 0.9808818195	-1.1283010534	 0.0805826307	 0.095014
H	 0.7814016528	-0.3199310052	 2.4313002036	 0.105554
H	-0.3007057733	 0.9890233872	 1.8897305896	 0.115515
H	-1.0580489467	-2.0062027882	 2.0405849566	 0.116143
H	-2.187728609	-0.6323345489	 2.1418088027	 0.122903
H	-2.8083947939	-2.1253404433	-0.6869452347	 0.120313
H	-0.4308345823	-2.1948899282	-4.2378659663	 0.206346
81.0278	95.5111	157.453	216.8185	265.7804	340.5479	377.7001	406.3854	443.7092	541.1225	586.5764	617.9535	641.2691	678.9611	716.8561	757.7773	829.0878	909.9699	913.0898	947.1542	1015.7862	1043.7934	1070.0927	1091.9788	1139.7409	1165.6291	1204.514	1214.0627	1255.8188	1267.1544	1330.1514	1346.3314	1436.6229	1455.5898	1467.2065	1496.6113	2241.5553	3047.4732	3068.3366	3074.1995	3116.6964	3123.0526	3138.6645	3501.3374	3750.8716
OC1CCC11OC1C#C	O[C@H]1CC[C@]21O[C@H]2C#C	
InChI=1S/C7H8O2/c1-2-6-7(9-6)4-3-5(7)8/h1,5-6,8H,3-4H2	InChI=1S/C7H8O2/c1-2-6-7(9-6)4-3-5(7)8/h1,5-6,8H,3-4H2/t5-,6-,7+/m0/s1
