21
gdb 104845	2.33405	1.23538	1.09923	3.5473	74.31	-0.2442	0.0502	0.2944	1235.4855	0.181157	-461.333974	-461.32397	-461.323026	-461.369065	36.643	
C	-0.3636891146	 1.4402628746	-0.0210863547	-0.416374
C	 0.2243775674	 0.0417258848	-0.044190079	 0.108177
O	 1.5348888746	-0.0022546073	-0.6495551926	-0.297214
C	 2.0381406534	-0.8638294901	 0.3957051623	-0.105944
C	 0.7601814786	-0.6641617471	 1.2418665176	 0.227207
C	 0.9646026511	 0.2732366552	 2.4257415136	-0.152586
O	 1.7138497037	-0.4256907972	 3.4248603531	-0.429173
C	 0.0321565523	-1.9497965933	 1.647598492	-0.125039
O	 0.8444255391	-2.8337147982	 2.3935987953	-0.429276
H	 0.2805524423	 2.1504016109	 0.5034388698	 0.11991
H	-0.4840715255	 1.7966305704	-1.0490488821	 0.132268
H	-1.3518018189	 1.4391278711	 0.4516739889	 0.117162
H	-0.4669103638	-0.6236882918	-0.5855925131	 0.069028
H	 2.1869666642	-1.8941214695	 0.0511636448	 0.109747
H	 2.9744130299	-0.4894104488	 0.8230028708	 0.106376
H	 1.5091288811	 1.1733878936	 2.1100876826	 0.103812
H	-0.0111990991	 0.5888913709	 2.8258847575	 0.095344
H	 1.7938102121	 0.1348156552	 4.2018727646	 0.296498
H	-0.8952045673	-1.6903659939	 2.1898774666	 0.07638
H	-0.2670070569	-2.4966662204	 0.7461394822	 0.10224
H	 1.2320114661	-2.3071155594	 3.1052435701	 0.291458
51.711	99.1696	130.9002	195.6862	210.948	241.5508	264.1042	288.1126	315.5369	359.8909	446.3433	471.9731	521.6913	550.9973	695.2815	792.0778	882.2207	936.0363	949.3311	976.6936	1000.8535	1017.5037	1041.8529	1071.0182	1092.4253	1109.6519	1146.2033	1159.1114	1191.3865	1219.9896	1244.6467	1275.3087	1305.0097	1323.0028	1363.7313	1379.1316	1394.3919	1410.7445	1458.0961	1467.3565	1483.1993	1498.2692	1506.6916	1518.2249	1533.0277	2939.2252	2967.5178	2981.8852	3025.6692	3027.7932	3038.8266	3055.4095	3074.5443	3105.9589	3121.8604	3753.4478	3835.6588
CC1OCC1(CO)CO	C[C@H]1OCC1(CO)CO	
InChI=1S/C6H12O3/c1-5-6(2-7,3-8)4-9-5/h5,7-8H,2-4H2,1H3	InChI=1S/C6H12O3/c1-5-6(2-7,3-8)4-9-5/h5,7-8H,2-4H2,1H3/t5-/m1/s1
