18
gdb 16841	3.39271	1.98199	1.53811	1.9283	67.64	-0.2521	0.09	0.3421	891.1243	0.153359	-384.935279	-384.927652	-384.926708	-384.966955	29.042	
C	 0.2102173956	 1.5552400582	-0.0891303986	-0.401231
C	 0.0452205013	 0.0483374194	 0.0393121915	 0.115286
O	 0.6342757326	-0.5744480482	-1.1042623862	-0.288099
C	 1.2058540638	-1.8395202168	-0.7644115122	 0.11529
C	 2.4360663579	-2.0652438683	-1.6305004533	-0.401233
C	 1.4680535708	-1.75401434	 0.7290433302	 0.012309
O	 2.1772173581	-0.5646985456	 1.1009397584	-0.25251
C	 0.749129679	-0.5846168092	 1.2268907284	 0.012316
H	 1.2718023328	 1.8134130501	-0.0694012132	 0.137979
H	-0.2187419868	 1.9024559141	-1.032658593	 0.127054
H	-0.2984420253	 2.0705780372	 0.7318499595	 0.111188
H	-1.0261390076	-0.2115729398	 0.1050442999	 0.068025
H	 0.4710192886	-2.6468056177	-0.9317205771	 0.068024
H	 3.1932680264	-1.3119635341	-1.3998073472	 0.137977
H	 2.8559225107	-3.0604527178	-1.4527544489	 0.111187
H	 2.1721267542	-1.9862039785	-2.6882819512	 0.127057
H	 1.6720830802	-2.6440903892	 1.3181351055	 0.09969
H	 0.3501146178	-0.4937805737	 2.2335827576	 0.09969
106.4558	177.1285	229.2405	237.6038	239.6943	376.5742	378.4473	509.4743	551.2842	651.1542	746.8543	826.6338	841.0144	871.4978	873.1709	924.1917	975.6673	1004.5582	1048.3763	1059.2888	1094.479	1129.5989	1132.2791	1147.5514	1166.1906	1255.5985	1305.3822	1324.0556	1356.2836	1369.1081	1382.2171	1402.3307	1408.6218	1445.0617	1485.3896	1487.065	1497.5649	1500.2984	2945.0256	2950.8976	3045.1646	3045.4854	3117.3197	3117.7167	3133.6643	3134.095	3148.6137	3161.5835
CC1OC(C)C2OC12	C[C@H]1O[C@@H](C)[C@H]2O[C@@H]12	
InChI=1S/C6H10O2/c1-3-5-6(8-5)4(2)7-3/h3-6H,1-2H3	InChI=1S/C6H10O2/c1-3-5-6(8-5)4(2)7-3/h3-6H,1-2H3/t3-,4+,5+,6-
