20
gdb 103189	3.17838	1.38647	1.29232	1.2202	77.39	-0.2387	0.0702	0.3089	1071.3806	0.171377	-403.083727	-403.075415	-403.074471	-403.116224	32.583	
C	-0.0335704488	 1.5980034105	 0.00595798	-0.477824
C	 0.049194966	 0.0740347528	-0.00257349	 0.330536
C	-1.3408937427	-0.5478455025	 0.1460449841	-0.127443
O	-1.8710446218	-0.1345076105	 1.4009876139	-0.430133
C	 0.8274391337	-0.6373685062	-1.1031032867	-0.103525
C	 2.2679190618	-0.7327905785	-0.7085581498	-0.049854
C	 2.4547573583	-0.1069124354	 0.6612176315	-0.260705
C	 1.047791114	-0.6682569534	 0.9308078599	-0.029318
N	 1.2813070725	-1.7425419964	-0.1901211413	-0.169564
H	 0.9473669551	 2.0663470784	-0.1010538911	 0.113156
H	-0.6565742518	 1.9456747464	-0.8266473728	 0.110833
H	-0.4940731174	 1.9512240807	 0.9322774266	 0.137862
H	-1.9846888911	-0.2100406847	-0.6829588609	 0.079744
H	-1.2604942355	-1.6417696405	 0.0883391034	 0.108852
H	-2.7226489799	-0.5631250572	 1.5233383343	 0.289029
H	 0.5000139893	-0.8508482799	-2.1163780076	 0.084866
H	 3.0325773099	-1.0181341748	-1.4230260314	 0.094423
H	 3.2068691343	-0.6595074787	 1.2306205998	 0.111883
H	 2.6347836503	 0.9672632089	 0.761970833	 0.098695
H	 0.7315565737	-0.982593569	 1.9228587248	 0.088487
109.5932	171.3254	190.2611	227.4333	255.9052	282.9171	361.7313	431.9044	462.304	550.3978	648.4446	754.4468	779.3678	806.8606	815.0999	880.3527	920.1783	939.083	958.2844	990.9206	1004.8447	1030.3059	1045.4594	1058.9011	1073.503	1116.834	1139.5506	1160.2384	1188.7582	1205.7321	1212.5987	1246.8975	1267.2852	1276.1116	1300.2844	1360.6896	1380.2602	1406.1858	1453.9923	1487.5252	1497.3572	1512.1486	1523.3905	2964.0274	3028.2437	3036.9168	3054.1277	3101.9579	3106.1509	3132.1637	3148.0759	3155.6446	3176.2442	3836.6462
CC1(CO)C2C3CC1N23	C[C@@]1(CO)[C@H]2[C@H]3C[C@@H]1N23	
InChI=1S/C7H11NO/c1-7(3-9)5-2-4-6(7)8(4)5/h4-6,9H,2-3H2,1H3	InChI=1S/C7H11NO/c1-7(3-9)5-2-4-6(7)8(4)5/h4-6,9H,2-3H2,1H3/t4-,5+,6-,7+,8?/m1/s1
