22
gdb 95210	2.5252	1.5828	1.16364	2.1541	81.33	-0.2184	0.0619	0.2803	1137.7105	0.1959	-404.329321	-404.320744	-404.3198	-404.361991	34.383	
C	-0.1034650307	 1.5659234428	 0.0094331178	-0.442606
C	 0.0432799799	 0.0414662386	-0.0147483766	 0.043648
C	 0.7162236367	-0.4689643294	-1.2937238826	-0.219922
C	 0.6135173235	-1.9995135964	-1.3646877683	-0.155302
N	 0.9971960936	-2.7279445105	-0.1530287207	-0.092506
C	 2.3059723078	-2.4778246079	 0.4303384482	-0.233369
C	 1.0760211187	-1.9938526183	 1.1199857888	-0.026571
C	 0.8116731244	-0.4894047517	 1.2149595629	 0.079889
O	 2.0708156908	 0.1671122509	 1.3824588993	-0.432937
H	 0.8647844486	 2.0635297465	-0.1170890387	 0.11684
H	-0.7476917474	 1.9066847507	-0.8069577987	 0.119499
H	-0.5492406303	 1.9150779025	 0.9487866537	 0.109088
H	-0.9637219328	-0.3981999586	 0.0392923804	 0.073441
H	 0.2374792049	-0.0393531604	-2.1811862415	 0.089744
H	 1.7610219448	-0.1361816553	-1.3065016229	 0.108578
H	-0.4312132657	-2.2667429035	-1.5722208079	 0.100263
H	 1.2105597598	-2.3949588974	-2.1940228707	 0.100861
H	 2.8288298727	-3.3570091098	 0.7987258141	 0.106589
H	 2.9483318154	-1.7159356158	-0.0028168015	 0.123785
H	 0.7024342265	-2.5679804445	 1.9644460986	 0.087332
H	 0.1940815408	-0.3164600605	 2.1092593069	 0.061045
H	 1.895863248	 1.0944290779	 1.5723541396	 0.282613
86.7261	190.7039	242.8484	273.6444	283.3557	306.7732	346.317	360.5605	398.0746	465.3658	540.5286	621.5076	674.1491	733.5661	758.8509	831.4108	905.5974	913.4971	933.7511	965.0634	999.8721	1004.9168	1039.7297	1049.0374	1108.3222	1113.3631	1127.7008	1143.1694	1162.6176	1181.993	1215.542	1244.5986	1280.3913	1323.539	1334.7819	1343.2654	1358.2274	1379.0753	1397.5683	1404.2397	1411.4723	1427.9664	1485.8456	1491.8912	1497.64	1512.5591	1519.2992	2975.3268	2999.6008	3013.899	3021.6834	3031.0256	3061.2438	3073.0183	3086.2692	3099.6232	3104.6416	3126.7454	3190.3616	3815.9406
CC1CCN2CC2C1O	C[C@H]1CCN2C[C@H]2[C@H]1O	
InChI=1S/C7H13NO/c1-5-2-3-8-4-6(8)7(5)9/h5-7,9H,2-4H2,1H3	InChI=1S/C7H13NO/c1-5-2-3-8-4-6(8)7(5)9/h5-7,9H,2-4H2,1H3/t5-,6-,7-,8?/m0/s1
