21
gdb 72475	2.50034	1.77404	1.42889	1.381	81.75	-0.2369	0.0244	0.2613	1013.5635	0.185391	-387.118885	-387.111237	-387.110293	-387.150374	32.018	
O	-0.0392581201	 1.3894224873	-0.0658978712	-0.503937
C	 0.0245974776	-0.0254015589	-0.003529476	 0.389086
C	 0.6510918266	-0.5728415431	 1.3062141265	-0.253549
C	 0.0348660561	-1.9925779201	 1.4535120951	-0.209917
C	-1.0556603154	-2.0963245741	 0.343597421	-0.017749
C	-1.3886553745	-0.6207080993	 0.0558337724	-0.244238
C	-0.5033612138	-2.7507883537	-0.9401339742	-0.258742
C	 0.5012440049	-1.8577799398	-1.6266049096	-0.056582
C	 0.7427130272	-0.6171718362	-1.2058705083	-0.114558
H	 0.8617568201	 1.7296788624	-0.0570140616	 0.271851
H	 1.74471042	-0.5860577909	 1.272134861	 0.0863
H	 0.3493987856	 0.0842697991	 2.1290425706	 0.098261
H	 0.7844536125	-2.7820912426	 1.3473568219	 0.096429
H	-0.4130790597	-2.1141978122	 2.4437822524	 0.099064
H	-1.9246474835	-2.6617936348	 0.6906827136	 0.06254
H	-1.9468692786	-0.1627029514	 0.8793278157	 0.094884
H	-1.9461044025	-0.4661090555	-0.8716869126	 0.098672
H	-0.0418970395	-3.7183277537	-0.6986871848	 0.100521
H	-1.3243232152	-2.9827728599	-1.6349749783	 0.102607
H	 1.0238588274	-2.2587020901	-2.4919016342	 0.084618
H	 1.4737874351	 0.0166929974	-1.7036764093	 0.074439
131.9978	238.2701	258.1675	302.051	351.6889	395.7131	434.0123	450.5539	506.9363	570.8951	656.3214	714.2346	752.4137	791.5948	819.8481	862.7816	906.6317	926.9661	948.18	966.2155	987.1072	1000.9017	1008.9451	1033.3928	1088.0935	1100.7546	1137.5603	1153.7516	1183.7524	1204.7495	1231.5585	1241.1327	1280.8518	1283.1447	1321.1255	1330.0573	1338.1828	1376.0664	1391.1689	1412.8867	1473.4073	1486.0699	1491.6349	1513.3925	1710.1561	2995.6453	3023.5338	3038.114	3046.9375	3053.0485	3068.7066	3079.5562	3099.4226	3103.027	3137.3363	3162.7059	3804.0236
OC12CCC(C1)CC=C2	O[C@@]12CC[C@@H](C1)CC=C2	
InChI=1S/C8H12O/c9-8-4-1-2-7(6-8)3-5-8/h1,4,7,9H,2-3,5-6H2	InChI=1S/C8H12O/c9-8-4-1-2-7(6-8)3-5-8/h1,4,7,9H,2-3,5-6H2/t7-,8-/m0/s1
