20
gdb 76516	2.78	1.25327	1.18741	2.0157	79.34	-0.2302	0.0267	0.2568	1175.6915	0.17084	-403.154669	-403.145719	-403.144775	-403.188348	33.311	
C	-0.062290763	 0.911041606	-2.0458564301	-0.415598
C	-0.0048643379	-0.2241928059	-1.0468340066	-0.097446
C	 1.271228023	-0.6319722045	-0.3072251427	-0.097434
C	 2.603494787	 0.0591832695	-0.5007918975	-0.415598
C	 0.1368607964	 0.0198753015	 0.4262842087	 0.39015
C	 0.1630654137	 1.381622334	 1.1318232036	-0.261851
N	-0.6182287699	 1.1747082089	 2.3655679368	-0.266789
C	-0.9877738817	-0.036884582	 2.3357003129	 0.106613
O	-0.638156367	-0.8284595081	 1.2957780957	-0.248366
H	 0.5694136106	 1.7550883968	-1.755383938	 0.120334
H	 0.2694951501	 0.5783985666	-3.0351673031	 0.122686
H	-1.0854915954	 1.2884845137	-2.1486537806	 0.124766
H	-0.6540706734	-1.0620726311	-1.2881848653	 0.097978
H	 1.3471002133	-1.7015532618	-0.1283338517	 0.097978
H	 2.497606534	 1.1389274871	-0.6378308595	 0.120334
H	 3.2539503273	-0.0981871411	 0.3664523465	 0.124764
H	 3.1234741544	-0.3336040945	-1.3810239276	 0.122685
H	 1.1770576174	 1.7097360848	 1.3878471045	 0.11856
H	-0.2936998799	 2.1797003942	 0.5353134695	 0.118557
H	-1.5852753592	-0.5313997141	 3.0935829844	 0.137678
75.2418	157.819	158.6415	170.7002	196.5748	245.6603	261.1649	417.1181	465.9196	516.3237	537.9446	538.6781	764.6214	801.7232	829.1237	874.4883	925.9694	956.1847	981.0351	1014.5736	1014.794	1017.7435	1066.381	1085.0319	1139.4765	1141.956	1149.2505	1169.5085	1210.0628	1220.1438	1287.0739	1334.5002	1341.8714	1362.1475	1412.9305	1421.9012	1461.4131	1487.5455	1494.4703	1499.0861	1502.0894	1517.6986	1706.0895	3028.8557	3032.4094	3036.7163	3056.9772	3092.1996	3093.6894	3103.0498	3112.1932	3137.6549	3148.2852	3215.4087
CC1C(C)C11CN=CO1	C[C@H]1[C@@H](C)[C@]21CN=CO2	
InChI=1S/C7H11NO/c1-5-6(2)7(5)3-8-4-9-7/h4-6H,3H2,1-2H3	InChI=1S/C7H11NO/c1-5-6(2)7(5)3-8-4-9-7/h4-6H,3H2,1-2H3/t5-,6+,7+
