12
gdb 127818	2.57487	1.88864	1.097	4.2114	60.68	-0.2965	-0.0914	0.2051	990.6523	0.075516	-505.908742	-505.900869	-505.899925	-505.941897	27.257	
C	-0.0274501392	 1.4291398876	 0.0000957145	-0.328561
N	-0.0739682637	-0.0339369632	-0.0152044264	-0.056024
N	-0.3284598678	-0.6068226231	-1.2150910833	-0.029121
N	-0.3976906743	-1.8267125079	-1.3817765836	 0.045003
O	-0.2000994065	-2.6961100725	-0.2528427127	-0.263249
C	 0.0650241739	-2.241294819	 1.0132778457	 0.398577
O	 0.2199988377	-3.0094663102	 1.9089052835	-0.26617
C	 0.1403876316	-0.7335938153	 1.1660738705	 0.297699
O	 0.3643755577	-0.1750378373	 2.2082070105	-0.303976
H	 0.9545063222	 1.7639616504	 0.3406751984	 0.168684
H	-0.2180894416	 1.7722397839	-1.0148096928	 0.168485
H	-0.7850926701	 1.8156250166	 0.6848895658	 0.168653
73.2209	96.26	131.683	215.9574	309.1369	341.5332	468.4084	490.0595	499.3116	555.1647	608.8756	666.6606	803.9414	836.6855	898.6711	1007.5562	1045.8173	1153.5097	1175.3969	1290.9782	1359.7058	1449.0224	1474.9851	1504.6021	1599.4185	1817.2149	1880.786	3068.009	3139.1508	3185.8973
CN1N=NOC(=O)C1=O	Cn1nnoc(=O)c1=O	
InChI=1S/C3H3N3O3/c1-6-2(7)3(8)9-5-4-6/h1H3	InChI=1S/C3H3N3O3/c1-6-2(7)3(8)9-5-4-6/h1H3
