20
gdb 93237	2.72631	1.36461	0.96694	3.5537	76.42	-0.2324	0.0279	0.2603	1244.9049	0.17128	-440.335096	-440.32597	-440.325026	-440.368894	34.227	
C	-0.003350582	 1.5305861921	 0.0705214522	-0.406554
C	 0.0420896998	 0.0128888525	-0.0048754997	 0.130823
C	 0.7669842114	-0.4952174778	-1.2505853597	-0.15359
N	 0.9621804823	-1.9320626595	-1.1430465102	-0.334454
C	 0.9892189276	-2.6490746304	 0.0161032163	 0.394835
O	 1.221212532	-3.8445756174	 0.0410033942	-0.3833
C	 0.6483064659	-1.8713410257	 1.2972792989	 0.015327
C	 1.5649934401	-2.2764716333	 2.4424447218	-0.398423
O	 0.7271870457	-0.4604380837	 1.1433616613	-0.272615
H	 1.0101304902	 1.941209199	 0.1079090543	 0.130163
H	-0.5190055773	 1.9481820384	-0.7994752646	 0.11798
H	-0.5327850991	 1.8453295141	 0.9729284175	 0.131403
H	-0.9851466751	-0.3915140549	-0.0094754613	 0.073683
H	 0.1746164153	-0.2756809267	-2.1465306249	 0.111165
H	 1.7286131113	 0.0295947809	-1.3473295426	 0.110929
H	 1.2227877582	-2.4584801476	-1.9646970916	 0.247524
H	-0.3911442309	-2.1529177182	 1.5445149404	 0.09542
H	 2.5915309382	-1.9614321195	 2.2345643533	 0.124592
H	 1.2368982564	-1.8026603613	 3.3707043641	 0.118462
H	 1.54680802	-3.3611157109	 2.5549552202	 0.14663
67.0903	137.6185	186.2205	211.4581	217.763	250.8655	298.2764	397.2122	428.0468	439.4271	476.1177	536.8475	572.1206	683.768	727.8507	787.6387	861.0608	890.5019	947.1345	976.6165	1065.1124	1087.8004	1115.8874	1129.6868	1148.1824	1160.0353	1198.7055	1268.8038	1301.799	1334.8605	1340.7371	1376.1367	1398.3645	1401.0124	1404.4037	1419.1493	1478.9097	1484.2263	1485.6812	1497.7283	1500.868	1519.8887	1786.2675	2945.091	2953.7355	2998.2445	3045.6514	3054.7871	3055.4124	3118.3362	3125.969	3128.6114	3156.0268	3603.6191
CC1CNC(=O)C(C)O1	C[C@H]1CNC(=O)[C@@H](C)O1	
InChI=1S/C6H11NO2/c1-4-3-7-6(8)5(2)9-4/h4-5H,3H2,1-2H3,(H,7,8)	InChI=1S/C6H11NO2/c1-4-3-7-6(8)5(2)9-4/h4-5H,3H2,1-2H3,(H,7,8)/t4-,5+/m0/s1
