21
gdb 89979	2.67965	1.33732	1.18417	1.5483	78.29	-0.2348	0.0678	0.3026	1159.8	0.181552	-424.199404	-424.190254	-424.18931	-424.233285	34.721	
C	-0.7441825586	 1.0816222576	-0.0221656227	-0.427675
C	 0.038831085	-0.2180256758	-0.0893881365	-0.030911
C	 1.3343042757	-0.3027177932	-0.9419406069	 0.093547
O	 1.9705034742	 0.9656893525	-0.9407027063	-0.433544
C	 1.9172251104	-1.272020374	 0.1216114061	-0.334443
C	 0.8655731062	-0.7316365221	 1.1196934638	 0.456329
C	 1.2889060832	 0.1940280602	 2.2799476592	-0.33758
C	 0.6417934614	-0.8751819078	 3.1793336398	-0.08107
O	 0.2392856649	-1.651125794	 2.0304729006	-0.318024
H	-0.0843472269	 1.9299900847	 0.1736171857	 0.134703
H	-1.2622893819	 1.2770631164	-0.966968809	 0.114105
H	-1.5018893682	 1.0361045092	 0.7677894074	 0.114104
H	-0.6162553323	-1.0462792141	-0.3842594321	 0.085006
H	 1.22901433	-0.6881996491	-1.9639321153	 0.060634
H	 2.8658635919	 0.8477472085	-1.272892583	 0.283413
H	 1.7112442715	-2.3190246089	-0.119061246	 0.110676
H	 2.9751464442	-1.1556224805	 0.3754951306	 0.088208
H	 2.3648351678	 0.3324418006	 2.3968484964	 0.106625
H	 0.8001112693	 1.1689951076	 2.2939609349	 0.114848
H	 1.3298159798	-1.4321785255	 3.8272811605	 0.099546
H	-0.2198671377	-0.5508358324	 3.7746742927	 0.101501
76.2131	86.0113	195.394	208.5184	225.6022	258.5011	301.5978	343.2333	392.6384	457.8899	514.1552	578.9322	743.1747	783.7737	825.4079	854.1975	866.923	892.6643	924.2195	970.7005	988.9069	996.3024	1030.0367	1059.723	1093.8027	1141.8586	1160.4952	1170.3623	1176.3399	1192.4393	1216.4126	1230.1489	1243.9322	1277.2327	1295.0698	1314.9357	1355.7407	1372.403	1402.5489	1417.0895	1461.2604	1484.3868	1493.2069	1503.0615	1531.7729	3013.0265	3016.3376	3034.6241	3043.0378	3051.2805	3056.2558	3083.3783	3094.7823	3108.9922	3124.5798	3137.2535	3819.2039
CC1C(O)CC11CCO1	C[C@H]1[C@@H](O)C[C@]21CCO2	
InChI=1S/C7H12O2/c1-5-6(8)4-7(5)2-3-9-7/h5-6,8H,2-4H2,1H3	InChI=1S/C7H12O2/c1-5-6(8)4-7(5)2-3-9-7/h5-6,8H,2-4H2,1H3/t5-,6-,7-/m0/s1
