18
gdb 79536	3.08369	1.80512	1.70128	0.9452	69.28	-0.2159	0.0722	0.2881	875.9915	0.151358	-439.052518	-439.046191	-439.045247	-439.082814	27.124	
O	 0.0861081384	 1.3875380899	 0.1066674116	-0.455858
C	 0.0399428169	-0.0146729718	 0.0281125091	 0.165048
C	-1.3439135593	-0.5848114525	-0.2854758804	-0.061841
C	-1.559447132	-0.2577437234	-1.7921645893	 0.082537
C	-1.9391733481	-1.7319229511	-1.9501090512	-0.185571
N	-1.1631059305	-2.0500443559	-0.6966565919	-0.14659
C	 0.2869153344	-2.091987354	-1.0764688635	-0.190023
C	 0.6465217083	-0.6132567089	-1.2541659012	 0.024634
O	-0.2108380688	-0.0376799823	-2.2654679463	-0.306036
H	-0.0326421752	 1.7118877553	-0.7956801291	 0.290801
H	 0.4775633485	-0.418677359	 0.9441285556	 0.097315
H	-2.155263328	-0.4160945021	 0.4191270418	 0.086381
H	-2.1976300435	 0.5486260684	-2.1608114495	 0.079088
H	-3.0048129098	-1.9239399876	-1.7876155177	 0.107741
H	-1.602338039	-2.2466044957	-2.8545114575	 0.107733
H	 0.8749401406	-2.5456573229	-0.2703443047	 0.107882
H	 0.4270473103	-2.6894324537	-1.9803363824	 0.11167
H	 1.6808987767	-0.3631940228	-1.4897722833	 0.08509
204.2752	289.038	355.687	405.2653	438.516	497.3439	540.0114	644.3277	671.5248	788.133	815.1788	839.0447	852.2954	884.1099	900.7785	933.9791	944.385	971.3309	994.4409	999.3522	1043.8886	1068.0128	1096.0504	1120.8182	1167.5441	1207.0414	1215.1486	1226.2869	1235.3411	1251.5141	1282.2149	1297.9607	1304.3701	1319.3214	1333.439	1366.6048	1436.7071	1486.2438	1506.3529	3037.3954	3041.8773	3081.3257	3094.1736	3100.3249	3106.0819	3126.9002	3146.7277	3769.6864
OC1C2C3CN2CC1O3	O[C@H]1[C@H]2[C@@H]3CN2C[C@H]1O3	
InChI=1S/C6H9NO2/c8-6-4-2-7-1-3(9-4)5(6)7/h3-6,8H,1-2H2	InChI=1S/C6H9NO2/c8-6-4-2-7-1-3(9-4)5(6)7/h3-6,8H,1-2H2/t3-,4+,5+,6+/m0/s1
