19
gdb 78707	3.06338	1.6032	1.24168	0.9801	79.69	-0.2166	0.0151	0.2317	1044.9346	0.159742	-385.858039	-385.850364	-385.84942	-385.889547	31.473	
C	 0.0096280026	 1.4705608685	-0.0107320838	-0.49784
C	-0.0111352879	-0.03851251	 0.043636202	 0.313604
C	-1.2571793387	-0.7925777813	-0.3212376464	-0.152445
C	-1.2274513178	-2.0139844412	 0.2188559212	-0.104927
C	 0.1239539127	-2.2216562129	 0.8609528558	-0.156281
C	 0.6513595989	-0.7828640456	 1.1733674836	-0.095688
C	 1.3413018045	-0.7584250399	-0.1742321851	-0.105546
C	 1.1970391241	-2.2648139949	-0.3092214783	 0.120315
O	 2.4202179271	-2.8569991979	 0.0796561312	-0.43814
H	 0.952927219	 1.8690314866	 0.376220714	 0.118669
H	-0.1066117959	 1.8350868119	-1.0377451592	 0.119342
H	-0.8037731219	 1.8951458319	 0.5882361028	 0.120153
H	-2.0376812859	-0.3770892808	-0.9476926071	 0.093849
H	-1.9582309042	-2.8007851155	 0.0764233523	 0.094729
H	 0.2242655402	-3.0125909338	 1.6040355973	 0.062576
H	 0.9406056342	-0.3580260911	 2.1273848828	 0.083526
H	 2.2123390382	-0.1999367731	-0.4966413689	 0.088302
H	 0.842033918	-2.6750510589	-1.2662191314	 0.055962
H	 2.2754039928	-3.8067133322	 0.1459249374	 0.27984
180.5414	206.3779	236.8512	282.7909	309.5438	349.3346	395.0153	423.4976	576.546	603.7218	723.9599	737.2751	784.6952	815.9938	846.55	865.3787	877.304	919.2765	930.3642	958.3364	982.0464	993.2877	1027.3114	1071.1709	1082.3629	1096.0784	1112.9883	1140.7124	1197.4233	1211.7386	1230.4258	1238.2603	1286.4055	1315.1035	1353.362	1391.1831	1416.0275	1425.3224	1489.5336	1500.8867	1649.2979	2986.13	3025.2878	3085.7189	3099.1605	3114.2086	3173.0856	3185.3605	3191.6378	3217.217	3806.4111
CC12C=CC3C1C2C3O	C[C@]12C=C[C@@H]3[C@H]1[C@H]2[C@H]3O	
InChI=1S/C8H10O/c1-8-3-2-4-5(8)6(8)7(4)9/h2-7,9H,1H3	InChI=1S/C8H10O/c1-8-3-2-4-5(8)6(8)7(4)9/h2-7,9H,1H3/t4-,5+,6+,7+,8+/m1/s1
