15
gdb 55333	2.01746	1.71402	1.17063	4.5804	65.5	-0.255	-0.0054	0.2496	1060.5789	0.112257	-453.960064	-453.951185	-453.950241	-453.995397	30.78	
N	 0.0507608825	 1.2227741461	-0.6772116743	-0.529303
C	-0.0000484725	 0.1291478363	 0.1298748715	 0.410505
O	 0.9101250647	-0.2291259863	 0.8461324174	-0.349394
C	-1.3364226504	-0.6281662272	 0.1041642827	 0.011037
O	-1.1486060643	-2.0312963967	 0.301472506	-0.260597
C	-1.5686260647	-1.955019738	 1.6784478011	-0.082422
C	-2.1361549789	-0.5286183393	 1.4462611058	-0.209979
C	-1.8378836363	 0.5308266693	 2.3915743517	 0.295179
N	-1.6247606109	 1.3832186784	 3.1424149523	-0.326718
H	 0.8593454734	 1.8212407293	-0.6219893111	 0.27298
H	-0.727816461	 1.518290097	-1.2394556607	 0.264811
H	-1.9161889629	-0.4164235586	-0.8017492513	 0.092442
H	-2.2986787156	-2.7278419701	 1.9339394202	 0.122169
H	-0.7170062877	-1.9803970285	 2.3633546517	 0.148483
H	-3.2115505755	-0.5489057718	 1.257321677	 0.140807
16.4004	96.6608	111.0127	186.4767	211.4645	259.0711	298.3266	394.3111	504.9015	533.5786	589.8444	605.8822	707.8322	762.1557	833.1248	895.072	974.3129	998.6212	1051.5052	1061.9219	1093.7014	1118.5466	1162.8794	1207.1497	1255.128	1288.8933	1339.5607	1357.9461	1411.0507	1512.4126	1620.9883	1812.7804	2360.5861	3037.9418	3055.7007	3092.454	3119.0299	3600.4749	3735.2397
NC(=O)C1OCC1C#N	NC(=O)[C@H]1OC[C@H]1C#N	
InChI=1S/C5H6N2O2/c6-1-3-2-9-4(3)5(7)8/h3-4H,2H2,(H2,7,8)	InChI=1S/C5H6N2O2/c6-1-3-2-9-4(3)5(7)8/h3-4H,2H2,(H2,7,8)/t3-,4+/m1/s1
