16
gdb 34388	2.6553	1.61859	1.29916	3.3106	74.07	-0.269	-0.0118	0.2572	999.7599	0.1259	-400.753741	-400.746464	-400.74552	-400.785557	27.872	
N	-0.0550837324	-1.1737414958	-0.138875646	-0.338247
C	-0.044676491	-0.0208241992	-0.0508486102	 0.215233
C	-0.0359063782	 1.4277535985	 0.0519601439	 0.091004
C	-0.2568660498	 2.2247657249	-1.2693603104	-0.107146
O	 0.910764956	 3.0250872936	-1.020926636	-0.28557
C	 1.3288848	 2.200671869	 0.0855036765	 0.089449
C	 1.3906152926	 2.9680578543	 1.4099629382	-0.286358
C	-0.0057634515	 2.812679307	 1.9645650215	-0.058798
C	-0.7649007208	 1.9768255695	 1.2578783526	-0.144361
H	-0.1569585061	 1.6142101673	-2.1747040984	 0.120241
H	-1.1725996476	 2.82231798	-1.3175680833	 0.120246
H	 2.2288260191	 1.6270209077	-0.1543730467	 0.097472
H	 2.1469541735	 2.5610571221	 2.0931148056	 0.120559
H	 1.6584548233	 4.0128612461	 1.215647534	 0.133979
H	-0.337388439	 3.3343098606	 2.8554129878	 0.1131
H	-1.7900521081	 1.7030775345	 1.4752434809	 0.119199
117.0894	155.4021	178.048	258.6043	367.7099	451.1814	523.1	546.108	562.0438	667.1785	757.5285	767.7309	866.2974	877.881	936.5016	949.4987	974.945	1008.8269	1017.4025	1029.7892	1057.6193	1118.2654	1148.7011	1174.6159	1184.9756	1207.3923	1263.1296	1312.8789	1327.1434	1357.2262	1385.1763	1463.5333	1519.4153	1678.6089	2352.6544	3026.0638	3028.6871	3069.137	3074.3688	3086.7458	3194.0877	3220.3852
N#CC12COC1CC=C2	N#C[C@]12CO[C@H]1CC=C2	
InChI=1S/C7H7NO/c8-4-7-3-1-2-6(7)9-5-7/h1,3,6H,2,5H2	InChI=1S/C7H7NO/c8-4-7-3-1-2-6(7)9-5-7/h1,3,6H,2,5H2/t6-,7+/m0/s1
