21
gdb 63138	2.33706	1.96806	1.57994	1.429	81.16	-0.2284	0.0278	0.2563	971.857	0.184066	-387.09815	-387.090206	-387.089262	-387.129675	33.228	
C	-0.109997751	 1.5309934332	-0.0243876631	-0.469735
C	 0.0291333983	 0.0073387026	-0.0100507167	 0.445624
O	-1.271702198	-0.5544954696	-0.1153365485	-0.490566
C	 1.0691954036	-0.5999346488	-1.0117344942	-0.121663
C	 2.4034843914	 0.0102730615	-0.4696219348	-0.213137
C	 2.1816691632	-0.0000311327	 1.0784551147	-0.215704
C	 0.7500839552	-0.6130461891	 1.2199152905	-0.085308
C	 0.8807061506	-2.0580317756	 0.7633303003	-0.068868
C	 1.0708400213	-2.0498243973	-0.5579959434	-0.069901
H	 0.8309287421	 2.0667301362	 0.1049193472	 0.120775
H	-0.5408170634	 1.8569363723	-0.9800191557	 0.10266
H	-0.7958154848	 1.8393323691	 0.7704904791	 0.125122
H	-1.6827559294	-0.1934304003	-0.9072989486	 0.270508
H	 0.8843286996	-0.418612292	-2.0730539195	 0.04643
H	 3.2632093012	-0.5902532752	-0.7740110246	 0.09934
H	 2.5647607001	 1.0238609408	-0.8475070256	 0.093855
H	 2.9217990753	-0.607109162	 1.6035539129	 0.099154
H	 2.2294151264	 1.0081843155	 1.4996911016	 0.095035
H	 0.2719324619	-0.447943781	 2.1862341053	 0.060193
H	 0.9017168339	-2.910578391	 1.4303221471	 0.088798
H	 1.2786699625	-2.8953671265	-1.2016558539	 0.087388
185.5894	225.3559	232.0767	262.9526	309.5127	373.7982	383.7022	418.1575	499.9413	537.4886	616.2005	710.5582	737.8894	764.8555	811.4671	864.8128	866.9603	882.2919	937.4762	948.0173	957.1493	958.753	972.3456	979.0344	1062.2555	1096.3319	1110.3947	1126.5634	1154.4261	1164.2403	1192.3261	1220.8022	1231.1776	1280.2786	1290.853	1300.1204	1323.9778	1350.5178	1386.8362	1405.9631	1482.2974	1489.5691	1508.7438	1517.2773	1650.1071	3025.5387	3056.5549	3065.4431	3086.4901	3093.1131	3096.9958	3108.0239	3113.2605	3140.4272	3195.1882	3221.0759	3811.8681
CC1(O)C2CCC1C=C2	C[C@@]1(O)[C@H]2CC[C@@H]1C=C2	
InChI=1S/C8H12O/c1-8(9)6-2-3-7(8)5-4-6/h2-3,6-7,9H,4-5H2,1H3	InChI=1S/C8H12O/c1-8(9)6-2-3-7(8)5-4-6/h2-3,6-7,9H,4-5H2,1H3/t6-,7+,8-
