20
gdb 36783	5.60655	0.61456	0.57494	4.5529	81.46	-0.2808	0.0109	0.2918	1901.7024	0.170343	-403.13597	-403.12646	-403.125515	-403.17193	33.445	
N	 0.0427810509	-1.1204924915	-0.3200490405	-0.292913
C	 0.052727535	 0.0237082515	-0.1672878128	 0.264846
C	 0.0244717272	 1.4764162821	 0.0315553841	-0.180263
O	 1.3308745463	 1.9813510224	-0.0468135712	-0.240737
C	 1.384074385	 3.3894425016	 0.142986738	-0.077938
C	 2.8242977913	 3.8325064242	 0.0226384978	 0.033522
C	 3.5122751864	 3.7879931714	-1.3699040704	-0.21173
C	 4.186392403	 5.1465053442	-1.0359656575	-0.209787
C	 3.1249405987	 5.357129575	 0.0788668573	-0.239411
H	-0.6325354103	 1.9213907059	-0.7345095329	 0.137982
H	-0.4364501003	 1.6859933129	 1.0114992981	 0.137897
H	 0.7614517705	 3.8950924337	-0.6152665251	 0.088061
H	 0.9747095434	 3.6532212412	 1.133494296	 0.093121
H	 3.4234175525	 3.2923977148	 0.7628930381	 0.086032
H	 4.1552746277	 2.9338565113	-1.5896399216	 0.107628
H	 2.778571465	 3.8863927432	-2.1767917657	 0.098231
H	 5.188035686	 5.0110695988	-0.6185607745	 0.106426
H	 4.2412746319	 5.8955665136	-1.8288092133	 0.099287
H	 2.2744690221	 5.9459616473	-0.2816757199	 0.098792
H	 3.4545385076	 5.7746908062	 1.0330396461	 0.100954
38.5227	78.6146	81.7332	125.8562	152.914	216.357	308.9857	378.0078	386.0841	430.233	577.5875	645.0142	766.5217	791.8785	894.3659	916.4339	935.0111	949.442	973.2085	980.9768	1010.1733	1034.5256	1085.5814	1127.0229	1149.5661	1182.9134	1206.3129	1230.2966	1255.0444	1256.3617	1258.7444	1275.0198	1278.4168	1299.9015	1359.143	1390.9808	1445.9009	1477.6487	1486.7526	1493.6329	1508.944	1520.9092	2373.8977	2947.8924	2966.7868	2978.3161	2989.2018	3044.7988	3051.3029	3061.2109	3061.8346	3101.0613	3110.4684	3123.4123
N#CCOCC1CCC1	N#CCOCC1CCC1	
InChI=1S/C7H11NO/c8-4-5-9-6-7-2-1-3-7/h7H,1-3,5-6H2	InChI=1S/C7H11NO/c8-4-5-9-6-7-2-1-3-7/h7H,1-3,5-6H2
