14
gdb 36573	2.6936	0.94715	0.73259	3.0012	75.59	-0.2788	-0.0255	0.2533	1464.33	0.09655	-399.45697	-399.447388	-399.446444	-399.492347	33.224	
C	-0.0222536643	-1.1694015231	 0.06264587	-0.403839
C	 0.0313814694	 0.0235425524	-0.0580509037	 0.290554
C	 0.0594188618	 1.4668885188	-0.2179086732	-0.228588
O	 1.3546462229	 1.9534741152	 0.1452542697	-0.238392
C	 1.4449847347	 3.3622395106	 0.1143821675	-0.165733
C	 2.7121239354	 3.7744919061	 0.7111046623	 0.30028
C	 3.7393408855	 4.1368836481	 1.2121974724	-0.370652
C	 1.322838767	 3.8869836724	-1.2723871919	 0.281856
N	 1.1865300273	 4.2732445982	-2.3522512204	-0.319939
H	-0.0620009852	-2.2254816527	 0.169934939	 0.209421
H	-0.1711389637	 1.7378250898	-1.2589410787	 0.153426
H	-0.7076351708	 1.9343898544	 0.4208687008	 0.12952
H	 0.6154946227	 3.8088059677	 0.6909894962	 0.146017
H	 4.6546739074	 4.449830972	 1.6522555699	 0.216068
48.2003	92.1602	104.5818	127.4248	200.8534	233.0312	330.599	336.4344	350.1539	448.5672	522.4669	570.7654	618.947	650.8969	660.6277	690.2641	695.8243	884.3396	972.8175	1003.6213	1031.5573	1054.7652	1108.8847	1256.4715	1322.5568	1328.606	1422.9875	1498.3914	2252.3225	2258.0211	2358.2845	2951.2434	2974.0959	3014.6956	3501.1859	3504.0859
C#CCOC(C#C)C#N	C#CCO[C@@H](C#C)C#N	
InChI=1S/C7H5NO/c1-3-5-9-7(4-2)6-8/h1-2,7H,5H2	InChI=1S/C7H5NO/c1-3-5-9-7(4-2)6-8/h1-2,7H,5H2/t7-/m0/s1
