21
gdb 72450	2.26776	2.11549	1.48245	1.43	80.11	-0.2445	0.0747	0.3191	975.5803	0.186093	-387.093439	-387.086293	-387.085349	-387.124284	31.081	
O	-0.0847714327	 1.3788767436	 0.0422335485	-0.509362
C	 0.0160853152	-0.0243234829	 0.0451519509	 0.428401
C	 0.7619051868	-0.6507342514	-1.1697951062	-0.252818
C	 1.0648347587	-2.1061671942	-0.688517834	-0.20367
C	 0.4523237578	-2.1367100838	 0.743173813	-0.031284
C	 0.7710653486	-0.7047409316	 1.2142006289	-0.305777
C	-1.0669796629	-2.1079239201	 0.5448576463	-0.013747
C	-1.9295733845	-1.1910026217	 1.3752732063	-0.338941
C	-1.3565919094	-0.6908404235	 0.0748919422	-0.034002
H	 0.8004931703	 1.7406265563	-0.0726902348	 0.27104
H	 0.1555341304	-0.6123001468	-2.0787599029	 0.098608
H	 1.6857818354	-0.0942894252	-1.3691593176	 0.078639
H	 0.6171750343	-2.863585467	-1.3384364633	 0.094395
H	 2.141373315	-2.3001734002	-0.6559130683	 0.091554
H	 0.8257628543	-2.9503931936	 1.3687206526	 0.058146
H	 1.8441670923	-0.4883048095	 1.1898429435	 0.080205
H	 0.3902804945	-0.4405562056	 2.2006522157	 0.101907
H	-1.5302922024	-2.964328055	 0.0659503699	 0.080374
H	-2.9919443751	-1.4108586898	 1.3567814134	 0.108632
H	-1.5903842263	-0.8019605428	 2.3278370399	 0.114123
H	-2.0233425204	-0.4826461451	-0.7547014241	 0.083578
213.9653	261.1391	302.6233	312.1348	384.4232	410.3376	493.5922	536.1028	546.162	607.8385	733.7018	751.7186	806.1162	824.7991	845.9815	886.2345	914.0134	930.6773	937.6964	975.7081	994.1753	1001.4845	1020.8599	1053.1705	1076.1698	1082.3313	1111.4637	1137.8189	1143.1329	1171.5887	1184.7874	1201.5529	1231.5196	1241.0439	1254.7226	1302.5587	1314.1052	1323.9722	1344.5714	1379.4443	1410.4756	1483.3521	1490.9292	1507.8264	1531.056	3028.1181	3049.5588	3056.7646	3080.3314	3085.4816	3099.7964	3127.9927	3139.9693	3157.9459	3170.977	3216.2607	3802.9862
OC12CCC(C1)C1CC21	O[C@@]12CC[C@@H](C1)[C@H]1C[C@@H]21	
InChI=1S/C8H12O/c9-8-2-1-5(4-8)6-3-7(6)8/h5-7,9H,1-4H2	InChI=1S/C8H12O/c9-8-2-1-5(4-8)6-3-7(6)8/h5-7,9H,1-4H2/t5-,6+,7+,8-/m0/s1
