17
gdb 107277	3.36329	1.40124	1.27904	1.334	66.35	-0.2424	0.0606	0.303	1021.0892	0.136486	-458.89008	-458.882782	-458.881838	-458.922087	28.803	
O	 0.0588612382	 1.3617395845	 0.2191296933	-0.415639
C	 0.0179345688	-0.0179407273	-0.1139974441	-0.184731
C	-1.3865287578	-0.5347049012	-0.1468592985	 0.417973
O	-2.0074627951	-0.8353245439	 1.1261104934	-0.297001
C	-1.8715108348	-1.8810960292	 0.1471856906	-0.05355
C	-3.0270793786	-1.9590260174	-0.8866097933	 0.031318
C	-3.7663820352	-0.6133207135	-0.7167522409	-0.228136
C	-2.3987151989	-0.1524980318	-1.2640961406	-0.014925
O	-2.3616727337	-1.3870390773	-2.0702152731	-0.302147
H	-0.3152048889	 1.4506401481	 1.1027319316	 0.292663
H	 0.4635977911	-0.1056906097	-1.110244563	 0.128152
H	 0.6143242781	-0.6243847286	 0.5826907077	 0.099397
H	-1.2599165451	-2.7332967169	 0.4225967175	 0.110995
H	-3.5131785486	-2.9162769515	-1.0679014016	 0.085991
H	-4.5449285917	-0.5016043569	-1.4700490521	 0.114234
H	-4.0869209403	-0.2939397674	 0.2724885773	 0.12279
H	-2.2286822677	 0.7605328101	-1.831491584	 0.092615
73.4804	138.3593	253.997	326.2409	400.1422	436.7322	470.8693	560.2139	603.0753	681.7929	713.33	803.9061	824.9878	866.7447	881.6821	912.1116	945.0996	957.3778	981.7467	1001.5076	1016.7065	1067.3701	1081.1692	1104.3979	1163.1094	1180.6032	1228.9251	1237.5218	1261.8705	1284.3483	1294.4599	1300.8215	1372.6852	1413.4824	1460.2211	1477.8814	1487.2159	3003.8743	3083.7303	3105.4997	3137.7703	3147.0753	3178.8877	3181.8557	3805.4474
OCC12OC1C1CC2O1	OC[C@]12O[C@H]1[C@H]1C[C@@H]2O1	
InChI=1S/C6H8O3/c7-2-6-4-1-3(8-4)5(6)9-6/h3-5,7H,1-2H2	InChI=1S/C6H8O3/c7-2-6-4-1-3(8-4)5(6)9-6/h3-5,7H,1-2H2/t3-,4+,5+,6-/m1/s1
