17
gdb 76879	2.41933	1.93926	1.60444	0.6436	66.91	-0.2357	0.0135	0.2492	901.6137	0.136666	-458.937259	-458.929547	-458.928603	-458.969201	30.137	
O	-0.0218440083	 1.4645488523	-0.0016739966	-0.408532
C	-0.017436757	 0.0567253548	 0.0450780366	 0.088485
C	 0.5528016105	-0.566264453	 1.3694501158	-0.03654
O	-0.085872286	-1.8502574956	 1.3397768679	-0.247714
C	-1.4318913048	-1.3574143188	 1.3925091479	-0.036968
C	-1.382098921	-0.3630199985	 2.5408928939	-0.05845
C	-0.14408776	 0.1301130765	 2.5267838319	-0.058366
C	-1.4730905583	-0.5242012312	 0.0616048626	 0.088974
O	-2.4394644282	 0.499867881	 0.0244102444	-0.408667
H	 0.8605286909	 1.7527263019	-0.2529284549	 0.285164
H	 0.5291110565	-0.3653185037	-0.8071490009	 0.074665
H	 1.6368568832	-0.6735865573	 1.4133666766	 0.07221
H	-2.1437063564	-2.1806751668	 1.457463616	 0.072202
H	-2.2230216762	-0.0611616914	 3.1482675734	 0.106935
H	 0.2707861604	 0.9323024336	 3.1196764307	 0.106991
H	-1.5953562343	-1.2139260468	-0.7825618294	 0.074565
H	-3.284642351	 0.0978743931	-0.1967873458	 0.285047
111.5224	175.8293	210.463	236.8934	278.2586	350.9868	489.5057	532.7001	557.7282	578.6914	730.9912	743.3011	778.5185	805.3624	848.5142	897.8666	927.0979	931.1236	967.1072	987.4838	1002.349	1057.8485	1107.2556	1126.7617	1134.2513	1182.9575	1238.1358	1241.2978	1259.697	1269.2928	1290.5646	1321.7463	1352.1969	1357.1371	1406.7472	1448.6914	1643.4941	3009.6508	3029.7627	3114.2421	3118.2161	3227.0679	3251.8628	3828.5864	3829.7727
OC1C2OC(C=C2)C1O	O[C@H]1[C@@H]2O[C@@H](C=C2)[C@H]1O	
InChI=1S/C6H8O3/c7-5-3-1-2-4(9-3)6(5)8/h1-8H	InChI=1S/C6H8O3/c7-5-3-1-2-4(9-3)6(5)8/h1-8H/t3-,4+,5+,6-
