21
gdb 28899	2.21748	1.72743	0.98876	0.6138	93.99	-0.2271	0.0077	0.2348	1238.5354	0.18285	-350.041696	-350.032469	-350.031525	-350.075436	35.063	
C	 0.051336358	 1.5190448554	-0.0187302434	-0.495294
C	 0.0278341429	 0.0095981191	-0.0019530524	 0.264567
C	-0.0044329677	-0.6935698321	-1.2067754343	-0.209558
C	-0.0266183106	-2.0828787506	-1.2195177555	-0.113453
C	-0.01652563	-2.7772324868	-0.0169281656	-0.205451
C	 0.0156192428	-2.1030815955	 1.2071326765	 0.253516
C	 0.0251607903	-2.9113439068	 2.485920793	-0.501374
C	 0.0381011117	-0.6962303966	 1.2170737668	 0.126266
C	 0.0731211142	 0.0815767669	 2.51297538	-0.499477
H	 0.9453063951	 1.9192795341	 0.4746883216	 0.126391
H	 0.0389174898	 1.8989216927	-1.0433135348	 0.118773
H	-0.8112574221	 1.9469738317	 0.5062740652	 0.126372
H	-0.0121413909	-0.1417484292	-2.1421051017	 0.084164
H	-0.0516597288	-2.6212524319	-2.1613384457	 0.089732
H	-0.0337955947	-3.8630389498	-0.0204087052	 0.083892
H	 0.9198653086	-2.7186693917	 3.0889561316	 0.128538
H	-0.8409755753	-2.6902007808	 3.1200841267	 0.128522
H	 0.0039489868	-3.9812497982	 2.2636686101	 0.118881
H	 0.9613538553	 0.7224431472	 2.5708814279	 0.127302
H	-0.7941038191	 0.7469999136	 2.6035871038	 0.127331
H	 0.0803530336	-0.5670862707	 3.3886895754	 0.12036
71.2503	130.507	166.4973	183.5946	232.1769	273.3949	308.0117	343.4687	463.7917	489.1294	514.1096	530.9206	542.1757	664.0123	736.5142	790.4059	819.5449	891.2335	895.8645	946.9031	1006.8935	1010.887	1031.6655	1058.3483	1074.127	1091.0999	1117.9344	1190.411	1204.3857	1273.5491	1278.8767	1328.4822	1407.2711	1413.3707	1421.9581	1459.5514	1475.8594	1481.8331	1486.3485	1494.1682	1503.7891	1510.1358	1514.0267	1625.4867	1636.884	3021.8891	3025.1065	3027.0526	3066.5666	3069.2597	3077.6877	3110.8389	3112.8089	3143.8567	3160.1656	3167.7418	3188.235
CC1=CC=CC(C)=C1C	Cc1cccc(C)c1C	
InChI=1S/C9H12/c1-7-5-4-6-8(2)9(7)3/h4-6H,1-3H3	InChI=1S/C9H12/c1-7-5-4-6-8(2)9(7)3/h4-6H,1-3H3
