16
gdb 25755	2.70402	1.55181	0.99331	1.302	74.35	-0.2235	-0.012	0.2115	1136.7913	0.125569	-434.12173	-434.113349	-434.112405	-434.154922	31.012	
C	 0.2028114625	 1.5208416541	-0.0466382996	-0.504792
C	-0.0368393654	 0.0594213553	-0.0413609328	 0.269061
C	-1.1425863602	-0.7380120159	-0.0057797714	 0.209093
N	-0.7417893451	-2.0761962315	-0.0236760162	-0.333995
C	 0.5448845298	-2.0249357216	-0.0673573565	 0.053964
O	 1.0532234214	-0.7715263395	-0.0813952677	-0.174423
C	-2.5712985315	-0.3732540625	 0.0488313236	 0.245368
N	-3.4060070497	-1.4607259505	-0.0620270691	-0.551004
N	-2.9106477085	 0.8608358179	 0.1556332227	-0.541284
H	 0.796243588	 1.8242647713	 0.8233213414	 0.13788
H	 0.7532674495	 1.8253406888	-0.9438902599	 0.136975
H	-0.7634779026	 2.0246392753	-0.0185219927	 0.188133
H	 1.251590214	-2.8391918949	-0.0930181509	 0.153029
H	-2.988137275	-2.3694330257	 0.0690904807	 0.268811
H	-4.3655974622	-1.3521673556	 0.2210857538	 0.245737
H	-3.926419705	 0.9623916549	 0.1718906444	 0.197446
71.8762	116.3138	194.4396	211.3326	263.4232	314.4009	377.2009	422.6344	496.3341	523.0991	626.2702	652.306	655.3811	705.6679	790.0807	829.6083	835.1165	959.7485	972.9457	1070.8753	1077.8516	1123.314	1142.2743	1157.1478	1224.4222	1270.0817	1353.757	1405.8851	1444.137	1477.3359	1489.3896	1570.074	1618.2703	1666.818	1706.7755	3032.4915	3085.1108	3159.8197	3277.2801	3459.5951	3579.9833	3707.6268
CC1=C(N=CO1)C(N)=N	Cc1c(nco1)C(=N)N	
InChI=1S/C5H7N3O/c1-3-4(5(6)7)8-2-9-3/h2H,1H3,(H3,6,7)	InChI=1S/C5H7N3O/c1-3-4(5(6)7)8-2-9-3/h2H,1H3,(H3,6,7)
