23
gdb 105040	2.51211	1.325	1.03822	1.4128	85.16	-0.2382	0.0731	0.3112	1260.3958	0.204913	-388.254989	-388.245316	-388.244372	-388.288949	38.048	
C	 0.026636222	 1.4642158875	 0.3404118993	-0.47457
C	-0.0103637348	-0.0242933484	 0.0337936866	 0.294328
C	 1.0171632114	-0.5102213186	-0.9674229193	-0.292891
C	 1.2050701584	-0.8017921333	 0.5017124912	-0.313744
C	-1.3869857443	-0.6796947122	 0.0229658056	 0.298039
C	-1.3927052555	-2.1812943842	 0.2788243036	-0.17539
O	-2.7072690797	-2.6912143069	 0.1036401523	-0.421571
C	-2.5962457671	 0.0755911996	 0.5290495507	-0.312503
C	-2.4147185953	-0.1513762722	-0.9523085654	-0.295202
H	 1.0462946206	 1.8461776909	 0.2326994161	 0.10899
H	-0.609232895	 2.0424073735	-0.3392140927	 0.118574
H	-0.2978404132	 1.6727246808	 1.3652475142	 0.119623
H	 0.7490086387	-1.3372170018	-1.6163988297	 0.110019
H	 1.6604466655	 0.2262875737	-1.4375837094	 0.105047
H	 1.9692495303	-0.2524478156	 1.0421049302	 0.10424
H	 1.096150924	-1.827152373	 0.8332938493	 0.108366
H	-0.6953973406	-2.6855617149	-0.4099586429	 0.087305
H	-1.0399478723	-2.3733006633	 1.3042071327	 0.091885
H	-2.6947164736	-3.6251398507	 0.3285078524	 0.289216
H	-3.3629129012	-0.5076607946	 1.0248774131	 0.120079
H	-2.467162236	 1.0779464211	 0.9174150778	 0.103162
H	-2.1317144211	 0.6943146291	-1.570188505	 0.101727
H	-3.0675454212	-0.8693829664	-1.4324252008	 0.125274
61.3727	140.5734	211.061	221.646	259.6699	272.0415	304.637	337.8732	352.5234	358.803	404.4383	475.1537	513.2718	631.774	778.6209	789.4702	807.2473	855.4051	864.3151	912.8437	922.6017	953.5709	974.2574	991.3682	1038.9766	1059.1979	1068.3116	1077.9085	1084.5189	1086.0077	1109.4682	1122.1128	1187.7055	1195.2781	1198.3979	1227.2128	1285.0161	1293.3508	1341.1732	1374.0078	1418.8896	1455.034	1458.3205	1471.4755	1493.1796	1500.9567	1506.3545	1512.5129	1524.7934	2959.5743	2990.1029	3028.2071	3090.5811	3101.0645	3128.4381	3135.2157	3137.7176	3151.0599	3206.3093	3221.4635	3226.3579	3240.5971	3845.0128
CC1(CC1)C1(CO)CC1	CC1(CC1)C1(CO)CC1	
InChI=1S/C8H14O/c1-7(2-3-7)8(6-9)4-5-8/h9H,2-6H2,1H3	InChI=1S/C8H14O/c1-7(2-3-7)8(6-9)4-5-8/h9H,2-6H2,1H3
