19
gdb 61529	3.21442	0.96179	0.83051	2.781	77.91	-0.262	0.03	0.292	1414.2312	0.155651	-422.967527	-422.957547	-422.956602	-423.002654	36.81	
C	 0.2502432048	 1.5736543522	-0.5591303809	-0.469236
C	 0.0065730059	 0.1207028962	-0.2114037945	 0.424774
C	-1.4099127206	-0.41592811	-0.3584305507	-0.281242
C	-2.3605616934	 0.0614878406	 0.7633621098	-0.056364
O	-2.6002448278	 1.4680891848	 0.7316705989	-0.412481
C	-3.619373577	-0.6881694068	 0.7297491311	 0.297992
C	-4.6631360874	-1.2800775622	 0.6536272691	-0.44411
C	 1.1269981501	-0.8321454552	-0.2727021819	-0.232252
O	 0.6624964993	-0.3368261371	 0.9853195747	-0.276842
H	 1.296497346	 1.8354418454	-0.3822152528	 0.120688
H	 0.0209791863	 1.7573800585	-1.6150463653	 0.112229
H	-0.3883815159	 2.2230517613	 0.0427051766	 0.153109
H	-1.8289710019	-0.1294692602	-1.3308642818	 0.100405
H	-1.3864860944	-1.5095554912	-0.3270839642	 0.115835
H	-1.8560331892	-0.1171607447	 1.7196550572	 0.142549
H	-3.2149176792	 1.6409395653	 0.0096478724	 0.284814
H	-5.5847133978	-1.8066238129	 0.6122298148	 0.200489
H	 0.9356675407	-1.8883886144	-0.4601438906	 0.109226
H	 2.1138738914	-0.4825949698	-0.5746609619	 0.110419
48.615	87.9302	129.477	193.816	221.9231	238.7141	299.44	326.4452	361.0926	392.6018	400.2878	502.7194	546.1649	575.6952	634.5316	673.8136	736.3052	840.0354	854.4809	911.4144	932.5335	948.8324	1005.6274	1067.9212	1072.3564	1109.9148	1137.5292	1159.6977	1192.7015	1269.8819	1288.0213	1312.5524	1365.2837	1400.1103	1419.6654	1425.2925	1464.6067	1483.8881	1506.1826	1532.1127	2232.1607	3034.0512	3040.8701	3058.68	3076.4899	3090.818	3109.8446	3141.4598	3161.5965	3502.746	3803.9366
CC1(CC(O)C#C)CO1	C[C@@]1(C[C@@H](O)C#C)CO1	
InChI=1S/C7H10O2/c1-3-6(8)4-7(2)5-9-7/h1,6,8H,4-5H2,2H3	InChI=1S/C7H10O2/c1-3-6(8)4-7(2)5-9-7/h1,6,8H,4-5H2,2H3/t6-,7+/m0/s1
