17
gdb 128412	6.48106	0.79204	0.71998	4.1202	71.21	-0.227	0.0158	0.2427	1538.9418	0.138293	-451.345722	-451.337126	-451.336182	-451.379509	31.132	
C	-0.2543257323	 1.4875328216	-0.469252508	-0.311212
N	-0.2500003055	 0.0310795889	-0.3767562039	-0.30504
C	 1.0381300981	-0.5661677967	-0.7192232228	-0.24988
C	 0.9078689062	-2.0531801282	-0.8070518896	 0.354987
N	 1.8626340193	-2.9603584749	-0.6515384872	-0.413579
C	 1.1945500143	-4.1264667221	-0.8702832794	 0.409355
O	 1.7992997131	-5.3209656022	-0.8102746691	-0.410592
N	-0.0939199631	-4.0206514786	-1.1395133113	-0.286744
N	-0.2512687245	-2.6650433513	-1.0945808247	-0.21802
H	 0.5250156529	 1.9791903776	 0.1373689497	 0.104998
H	-0.1021550919	 1.7861329452	-1.5121482069	 0.130057
H	-1.228230132	 1.868733932	-0.1506319288	 0.126083
H	-0.5011414454	-0.2473144453	 0.5669448467	 0.227585
H	 1.3392318431	-0.1708951161	-1.6992217187	 0.134252
H	 1.8589924525	-0.3233610911	-0.0247345972	 0.118371
H	 2.7248138915	-5.147354414	-0.6016725222	 0.309394
H	-1.1455303263	-2.2315448849	-1.2545965968	 0.279987
60.3359	108.4575	131.0626	232.0594	245.6425	335.9433	337.2634	375.5663	403.7619	511.3228	584.6722	688.8699	723.1499	770.0423	796.023	812.9994	975.685	998.9882	1024.2278	1077.7048	1132.6497	1146.6556	1158.6599	1184.2874	1218.7139	1270.4943	1297.2672	1355.9469	1435.662	1458.1774	1483.5526	1486.0414	1495.3397	1505.9017	1518.4543	1581.681	1636.281	2963.0933	2975.1396	3026.7187	3064.9001	3112.5922	3511.6226	3672.671	3817.475
CNCC1=NC(O)=NN1	CNCc1nc(O)n[nH]1	
InChI=1S/C4H8N4O/c1-5-2-3-6-4(9)8-7-3/h5H,2H2,1H3,(H2,6,7,8,9)	InChI=1S/C4H8N4O/c1-5-2-3-6-4(9)8-7-3/h5H,2H2,1H3,(H2,6,7,8,9)
