21
gdb 106374	2.85497	1.33294	1.15173	2.1904	77.53	-0.2416	0.0763	0.3179	1168.9427	0.18313	-424.215884	-424.207413	-424.206468	-424.248908	33.558	
C	-0.0387580186	 1.5641009164	 0.1750205319	-0.386973
C	-0.0556593983	 0.044610629	-0.032037746	-0.293524
C	-1.4435208486	-0.5412504394	-0.0898190725	 0.441623
C	-1.7390700219	-2.0578128029	 0.0490506881	-0.291688
C	-3.0307187759	-1.4591381345	 0.6248566903	 0.032959
O	-2.2483002582	-0.3313715752	 1.1394403484	-0.354647
C	-3.7276658557	-0.7747558232	-0.5702991466	 0.174722
O	-4.697811872	 0.1532674068	-0.140693754	-0.447981
C	-2.4478310579	-0.1149268613	-1.1862135453	-0.312706
H	 0.9875149772	 1.9275871864	 0.2789600474	 0.114611
H	-0.4943506923	 2.0930487969	-0.6675570556	 0.119805
H	-0.5889712684	 1.8341874275	 1.0807302083	 0.136794
H	 0.465489297	-0.2187570436	-0.9615748917	 0.102155
H	 0.4901355116	-0.4437181277	 0.7834995912	 0.105364
H	-1.7905947566	-2.6719770791	-0.8540539517	 0.095445
H	-1.1236432739	-2.5274507608	 0.8180103946	 0.109341
H	-3.6564797756	-1.9456118067	 1.3727684801	 0.082843
H	-4.2337674304	-1.4702883728	-1.2441298403	 0.083322
H	-4.2619347828	 0.6769722787	 0.5452475712	 0.280302
H	-2.5735219458	 0.9674756773	-1.2546294486	 0.108361
H	-2.1825927128	-0.5021515022	-2.1739086094	 0.099873
77.2153	120.4804	196.8086	212.6412	307.0655	336.4006	416.2819	461.1048	471.0091	519.5281	575.52	635.0219	732.0773	772.6361	825.1829	836.0447	848.6062	899.7789	913.585	946.866	969.549	1003.1282	1010.4206	1053.8739	1064.0373	1100.5066	1120.9392	1151.2769	1179.67	1210.3485	1222.488	1252.1887	1270.4173	1284.597	1305.0924	1325.196	1334.6772	1392.8263	1407.049	1441.0891	1474.2367	1478.9121	1497.5289	1498.7709	1508.9852	3026.4843	3043.7775	3060.486	3063.9157	3065.2279	3087.8295	3111.3059	3119.7528	3121.4041	3128.3408	3136.0416	3758.5424
CCC12CC(O1)C(O)C2	CC[C@@]12C[C@@H](O1)[C@@H](O)C2	
InChI=1S/C7H12O2/c1-2-7-3-5(8)6(4-7)9-7/h5-6,8H,2-4H2,1H3	InChI=1S/C7H12O2/c1-2-7-3-5(8)6(4-7)9-7/h5-6,8H,2-4H2,1H3/t5-,6+,7+/m0/s1
