18
gdb 26727	3.22692	1.26213	0.91761	3.0127	83.69	-0.2152	-0.0321	0.183	1252.8471	0.147371	-402.019665	-402.010699	-402.009755	-402.053476	32.607	
C	-0.0306543331	 1.5417160122	 0.0674763008	-0.502227
C	 0.0099110325	 0.0454758172	 0.005305993	 0.184463
C	-0.0084425145	-0.7512218116	-1.1088607445	 0.225624
C	-0.0722655114	-0.3948816325	-2.5588441346	-0.506352
N	 0.0460121119	-2.0861431017	-0.6699211849	-0.104273
C	 0.0494709546	-3.225129224	-1.4613166659	 0.173981
O	 0.0977178602	-4.3490179539	-1.0276997515	-0.302826
C	 0.0980413464	-2.1086584976	 0.7212141119	-0.071357
C	 0.0772992791	-0.8232808722	 1.1566064385	-0.251125
H	 0.8576494564	 1.9431332736	 0.569178455	 0.13173
H	-0.0800197806	 1.996170174	-0.9251644073	 0.122486
H	-0.901386632	 1.8927957614	 0.6336028204	 0.131733
H	 0.8020197382	-0.7485342828	-3.1186141002	 0.135926
H	-0.963932937	-0.7989521931	-3.0532609437	 0.135929
H	-0.1072607327	 0.6907406725	-2.6668099011	 0.138428
H	 0.0030009545	-2.9904040894	-2.5372966466	 0.099272
H	 0.1440144588	-3.0555103086	 1.230948865	 0.151878
H	 0.106239339	-0.5035490234	 2.1879269159	 0.10671
77.1459	103.3078	178.6749	193.5572	213.0024	278.4307	293.825	304.9528	381.2151	509.1521	617.4921	642.8815	651.6407	713.4459	762.1936	837.5024	856.9403	938.6495	980.0948	1033.2382	1053.6094	1067.4377	1070.5675	1123.3783	1178.9129	1240.0629	1322.187	1381.8321	1414.0038	1427.0591	1438.3456	1452.9415	1479.7692	1484.8302	1494.1168	1496.4515	1548.133	1657.0169	1812.2802	3004.7667	3023.1334	3027.8764	3067.0086	3074.5327	3113.2059	3130.0774	3241.7178	3295.9959
CC1=C(C)N(C=O)C=C1	Cc1c(C)n(C=O)cc1	
InChI=1S/C7H9NO/c1-6-3-4-8(5-9)7(6)2/h3-5H,1-2H3	InChI=1S/C7H9NO/c1-6-3-4-8(5-9)7(6)2/h3-5H,1-2H3
