15
gdb 20831	5.01928	1.37672	1.14267	3.4534	62.78	-0.2298	0.016	0.2458	1026.6453	0.12074	-396.021057	-396.013514	-396.012569	-396.05362	27.305	
C	-0.2054008361	 1.5248359159	 0.0660032392	-0.36964
C	 0.0775119822	 0.0158648576	 0.0054244469	-0.300147
C	 0.8077351226	-0.4804202359	 1.2109784753	 0.381687
N	 1.9713767348	-0.0357734989	 1.6696753537	-0.397798
C	 2.1784825452	-0.8114524886	 2.7674494297	 0.415068
O	 3.2659241035	-0.6857587497	 3.5398956603	-0.408967
N	 1.2442246626	-1.7040826951	 3.036553102	-0.290407
N	 0.3686286509	-1.4662873523	 2.0139784015	-0.245231
H	 0.7275887295	 2.0798511426	 0.1879225889	 0.147571
H	-0.6945276981	 1.8604560222	-0.8527005216	 0.11742
H	-0.8564140347	 1.7695861539	 0.910543661	 0.124565
H	-0.8577326815	-0.5450896394	-0.1034983929	 0.104725
H	 0.6809789661	-0.2061266067	-0.8827096722	 0.135115
H	 3.797615525	 0.0178039604	 3.1492225786	 0.309717
H	-0.4736652419	-2.0127397057	 1.9462570096	 0.276322
37.9062	140.0659	203.0146	280.7173	337.9532	400.574	413.8673	481.0929	519.4733	631.3226	719.8297	766.4393	785.0558	797.6876	977.3101	1027.9402	1066.4545	1090.5238	1094.024	1159.0552	1214.8766	1263.4041	1311.4012	1368.727	1407.1758	1425.6011	1474.538	1490.1018	1497.7552	1507.694	1579.5927	1638.3315	3034.5725	3046.9132	3070.8037	3117.4456	3133.771	3669.3127	3816.4737
CCC1=NC(O)=NN1	CCc1nc(O)n[nH]1	
InChI=1S/C4H7N3O/c1-2-3-5-4(8)7-6-3/h2H2,1H3,(H2,5,6,7,8)	InChI=1S/C4H7N3O/c1-2-3-5-4(8)7-6-3/h2H2,1H3,(H2,5,6,7,8)
