18
gdb 78903	2.87482	2.0814	1.66646	1.0265	72.92	-0.2184	0.0645	0.2829	862.4838	0.150924	-401.884363	-401.877994	-401.87705	-401.914731	27.131	
O	-0.0956288527	 1.4625798882	 0.005149891	-0.430914
C	 0.0063633345	 0.0463089837	-0.0342222061	 0.11222
C	-1.3561179951	-0.5982352373	-0.1439389317	-0.064987
C	-1.9571837745	-0.8439313205	-1.5286492635	-0.108175
C	-1.2074892319	-1.9342162065	-0.7820640925	-0.043497
N	-0.0319660958	-1.7843442212	-1.7026855519	-0.151969
C	-0.8567119741	-0.87299768	-2.5957005957	 0.016828
C	 0.2333360831	 0.2095086522	-2.5570899007	-0.241936
C	 0.7251713195	-0.5190277675	-1.2850779742	-0.068719
H	 0.7846488826	 1.8217657613	 0.1554328973	 0.284593
H	 0.4968732536	-0.3145019497	 0.8836343419	 0.066128
H	-2.0709058888	-0.4728486443	 0.6615461988	 0.092817
H	-3.0212841308	-0.725861495	-1.694672622	 0.088486
H	-1.5049769187	-2.8940702639	-0.378359714	 0.092111
H	-1.1732529024	-1.2893420714	-3.5559709504	 0.073005
H	 0.9285906372	 0.1057251425	-3.3929795699	 0.101471
H	-0.0660965367	 1.2506055565	-2.4380080394	 0.115175
H	 1.7989726109	-0.6640768071	-1.1471255971	 0.067362
167.2587	278.6817	294.1026	392.6041	494.4515	530.1229	657.2233	672.3455	700.2557	747.4026	778.5522	825.5812	861.7196	893.9371	934.2199	954.9156	961.3863	981.2281	1008.2871	1019.303	1034.4607	1053.9342	1062.2214	1086.9256	1104.6765	1119.4918	1135.0573	1190.7384	1220.5601	1240.6664	1251.0215	1266.3219	1290.081	1319.9429	1337.9252	1361.8902	1405.0863	1433.1578	1481.6348	2970.2942	3062.9392	3073.3791	3084.1124	3143.1956	3176.796	3178.5891	3193.481	3815.8923
OC1C2C3C2N2C3CC12	O[C@H]1[C@H]2[C@@H]3[C@H]2N2[C@@H]3C[C@@H]12	
InChI=1S/C7H9NO/c9-7-3-1-2-4-5(7)6(4)8(2)3/h2-7,9H,1H2	InChI=1S/C7H9NO/c9-7-3-1-2-4-5(7)6(4)8(2)3/h2-7,9H,1H2/t2-,3+,4-,5+,6-,7-/m1/s1
