18
gdb 75291	2.70462	1.80234	1.23062	1.8091	76.91	-0.2456	0.0124	0.258	1027.3183	0.150038	-401.988137	-401.980679	-401.979735	-402.020159	28.791	
C	-0.2244029928	 1.5441495009	 0.029452876	-0.497891
C	-0.0622898207	 0.0588752789	-0.0320356803	 0.315581
C	-0.0745824617	-0.7332820368	-1.1064777535	-0.161493
C	 0.127914214	-2.1937246532	-0.7960947371	-0.269197
C	 0.4238476308	-2.2066444137	 0.7249250605	-0.008941
N	 1.8483827779	-2.4422432338	 1.0301020263	-0.271274
C	 2.2555604574	-1.4064308176	 1.6366215094	 0.113747
O	 1.4108747322	-0.3782270906	 1.8836902807	-0.232231
C	 0.16253603	-0.753532723	 1.2197805614	-0.016379
H	 0.6424440142	 2.0059822411	 0.5160978679	 0.140399
H	-0.3350877992	 1.9799368994	-0.9668531899	 0.124005
H	-1.1035365088	 1.8236541186	 0.6243452356	 0.125014
H	-0.2262710355	-0.3772047123	-2.1209475542	 0.093225
H	-0.7645499957	-2.7847262439	-1.0389570549	 0.107105
H	 0.9593145797	-2.6349351197	-1.3558058757	 0.124977
H	-0.1740867275	-2.9621066964	 1.2421073712	 0.086125
H	 3.2640866971	-1.2546547609	 2.006647436	 0.13791
H	-0.6272155114	-0.6347577269	 1.9675998006	 0.08932
87.6262	172.7477	215.2758	233.1311	296.2711	392.0328	514.8787	534.441	596.402	687.3136	773.8471	835.1542	869.789	874.1835	899.3269	945.8256	960.2835	967.7361	977.3513	1029.6196	1047.2915	1058.2961	1070.5532	1119.5877	1179.609	1190.3303	1271.0078	1279.3549	1308.8394	1315.7154	1330.0843	1350.0005	1365.7934	1412.0238	1477.2018	1481.4568	1491.7153	1695.085	1725.8264	3021.3677	3024.5438	3057.5612	3069.6057	3073.3183	3074.6577	3115.4421	3180.3151	3209.2649
CC1=CCC2N=COC12	CC1=CC[C@H]2N=CO[C@@H]12	
InChI=1S/C7H9NO/c1-5-2-3-6-7(5)9-4-8-6/h2,4,6-7H,3H2,1H3	InChI=1S/C7H9NO/c1-5-2-3-6-7(5)9-4-8-6/h2,4,6-7H,3H2,1H3/t6-,7+/m1/s1
