17
gdb 67766	3.15574	1.65053	1.33319	3.4344	76.77	-0.2177	-0.0124	0.2052	981.6826	0.13632	-384.686304	-384.679113	-384.678169	-384.717544	29.151	
C	 0.0036532493	 1.4739578185	 0.0110701185	-0.496561
C	-0.0186681136	-0.0364971799	 0.0425408361	 0.314591
C	-1.2716218146	-0.787603668	-0.321445834	-0.155402
C	-1.2216617965	-2.0256387988	 0.1732979688	-0.094226
C	 0.1270928796	-2.2429270847	 0.823262053	-0.231038
C	 0.6612112608	-0.8074571806	 1.1245775303	-0.109542
C	 1.3263205901	-0.7423999875	-0.2800978107	-0.241452
C	 1.1950299818	-2.225355247	-0.3258782819	 0.438225
O	 1.8381306136	-3.0953806766	-0.8424244254	-0.333735
H	 0.9468410775	 1.8670613959	 0.4021551783	 0.122875
H	-0.1190914903	 1.8506323742	-1.0097744511	 0.12979
H	-0.8102737657	 1.8808521807	 0.6205268758	 0.128675
H	-2.0600279011	-0.3560346094	-0.9249047756	 0.104353
H	-1.9418053491	-2.8185713495	 0.0203365635	 0.114154
H	 0.226870895	-3.0418334653	 1.5553187408	 0.091951
H	 1.0637907451	-0.4291826669	 2.0551968213	 0.109404
H	 2.1784625081	-0.167657125	-0.6204060077	 0.107937
141.5941	204.937	232.3071	301.8428	365.0068	434.0145	500.5688	562.6303	617.7215	701.608	735.5371	770.7206	807.6799	825.9226	843.3845	865.1813	888.323	931.335	945.9527	958.3253	984.4191	1014.5581	1068.8673	1089.8345	1111.7124	1130.2909	1173.8284	1224.9347	1240.4572	1292.8013	1341.6997	1379.9924	1418.0079	1488.9525	1499.4616	1652.2285	1867.75	3032.9678	3098.0342	3108.2347	3142.3686	3196.4407	3204.8871	3207.3156	3232.7942
CC12C=CC3C1C2C3=O	C[C@]12C=C[C@@H]3[C@H]1[C@H]2C3=O	
InChI=1S/C8H8O/c1-8-3-2-4-5(8)6(8)7(4)9/h2-6H,1H3	InChI=1S/C8H8O/c1-8-3-2-4-5(8)6(8)7(4)9/h2-6H,1H3/t4-,5+,6+,8+/m1/s1
