22
gdb 95907	2.17818	1.46637	1.16869	4.1504	85.17	-0.3013	0.0428	0.344	1188.643	0.195106	-367.256832	-367.24735	-367.246406	-367.290677	36.059	
C	-0.6690924262	 1.253196365	 0.0482924493	-0.429103
C	-0.0035939423	-0.117547679	-0.0415749206	 0.037718
C	 1.04921064	-0.2600079051	-1.1625802378	-0.234114
C	 1.9969040532	-1.410699254	-0.7245831794	-0.226505
C	 1.5265358805	-1.8338650054	 0.6882240107	-0.23247
C	 0.7585005616	-0.6005002707	 1.2371298029	 0.110153
C	 1.7309587465	 0.4560198532	 1.805136629	-0.430246
C	-0.188443744	-0.9848430605	 2.2875541477	 0.25041
N	-0.9435757906	-1.2810090404	 3.1119046461	-0.355489
H	 0.0668693723	 2.0538402327	 0.173637858	 0.117969
H	-1.2298670411	 1.4645899828	-0.867710865	 0.120191
H	-1.3721740704	 1.3002169276	 0.8861746785	 0.134376
H	-0.7880308829	-0.8645318691	-0.2173501416	 0.090469
H	 0.5694590217	-0.455963865	-2.1252299354	 0.105842
H	 1.6037950566	 0.6772760632	-1.2789342891	 0.102547
H	 1.9627117932	-2.2579238637	-1.4138501834	 0.108418
H	 3.0357913567	-1.0700448289	-0.7040060899	 0.107404
H	 0.8376642736	-2.6813440661	 0.623605369	 0.118266
H	 2.3462055214	-2.132657485	 1.3466346303	 0.108688
H	 2.4420892281	 0.7760024649	 1.0389108915	 0.124757
H	 1.1982192698	 1.3376781857	 2.1682442166	 0.137089
H	 2.2975224122	 0.0373186879	 2.6411522226	 0.133631
100.5127	121.6907	144.2789	203.8768	222.7794	240.856	283.8946	318.1466	358.2898	471.3954	482.4271	562.406	583.6046	623.813	690.9063	784.8633	850.5171	886.7404	909.0486	928.7205	965.2175	973.6273	1021.045	1043.511	1079.6832	1099.1488	1140.5157	1177.5039	1192.0138	1237.0555	1251.2291	1264.8239	1305.1039	1330.2936	1333.7702	1362.3049	1381.6714	1411.2622	1416.4335	1486.5679	1486.9098	1495.0563	1497.0217	1505.7931	1512.4259	1518.1289	2348.6928	3021.8896	3035.2484	3045.6032	3051.5325	3056.7582	3064.8237	3083.4148	3098.5465	3103.4233	3107.0032	3113.2796	3123.1785	3131.5038
CC1CCCC1(C)C#N	C[C@H]1CCC[C@]1(C)C#N	
InChI=1S/C8H13N/c1-7-4-3-5-8(7,2)6-9/h7H,3-5H2,1-2H3	InChI=1S/C8H13N/c1-7-4-3-5-8(7,2)6-9/h7H,3-5H2,1-2H3/t7-,8+/m0/s1
