15
gdb 44024	3.3926	1.80626	1.5572	2.6232	71.44	-0.2347	-0.0103	0.2244	865.6468	0.113427	-416.630099	-416.623819	-416.622874	-416.660559	25.857	
N	 0.0009091129	 1.1587348813	-0.4496460829	-0.531867
C	-0.0344629762	-0.0238721775	-0.0513363239	 0.342343
O	 1.0227908401	-0.8718162835	 0.3827893611	-0.292167
C	 0.0404047006	-1.8247381857	 0.8693964658	 0.293063
C	-0.6809398469	-1.7850718495	 2.2169168919	-0.310006
C	-1.7976291011	-2.0211968683	 1.1709551985	-0.098286
C	-0.8777734616	-2.9293883879	 0.229766747	-0.074381
N	-1.2242423376	-2.1487688368	-0.9872222132	-0.355749
C	-1.0828845222	-1.115919543	 0.1028164595	 0.130669
H	 0.9516205618	 1.5333914482	-0.447831068	 0.242255
H	-0.4799835646	-2.5899339178	 2.9268728407	 0.111626
H	-0.7120274351	-0.8134734161	 2.71673365	 0.120079
H	-2.868160344	-2.1627225521	 1.3238077494	 0.107165
H	-0.7941325156	-4.0197938152	 0.2411123972	 0.093464
H	-0.4163755504	-2.1102864759	-1.6161771032	 0.221792
127.53	312.1575	336.7046	379.479	483.9495	525.3113	599.9085	636.3858	712.511	779.4395	800.7644	867.5047	872.9246	890.1896	897.0324	907.5904	956.9416	994.3954	1010.4196	1039.0065	1055.7166	1096.2297	1127.2038	1141.4267	1167.4066	1202.2492	1212.3052	1225.2881	1253.8814	1292.2371	1304.9078	1509.3696	1807.7102	3064.6449	3075.1285	3116.5684	3127.9142	3401.5871	3476.6335
N=C1OC23CC4C2NC134	[NH][C]1O[C@]23C[C@@H]4[C@H]2N[C@]134	
InChI=1S/C6H6N2O/c7-4-6-2-1-5(6,9-4)3(2)8-6/h2-3,7-8H,1H2	InChI=1S/C6H6N2O/c7-4-6-2-1-5(6,9-4)3(2)8-6/h2-3,7-8H,1H2/t2-,3-,5-,6-/m1/s1
