16
gdb 38027	4.04639	1.58633	1.24826	3.6688	77.97	-0.2271	-0.0271	0.2	977.0089	0.127586	-400.754009	-400.747717	-400.746772	-400.784494	25.814	
C	 0.0374673227	 1.4974843595	 0.084677717	-0.288352
C	 1.32252896	 0.730194465	 0.0303148538	 0.00856
N	 2.0007705345	 0.4778355777	 1.2978803268	-0.342244
C	 1.2262071392	-0.317918686	 1.9249122838	 0.399311
O	 1.342440367	-0.8563571342	 3.1524541114	-0.255694
C	 0.2093830795	-1.7368865575	 3.334099647	-0.13095
C	-0.6338057794	-1.5996724	 2.0814404035	-0.329978
C	-0.0146876044	-0.7436472327	 1.2677974792	 0.340034
C	-0.0235799277	-0.0310967773	-0.0196633251	-0.233999
H	-0.2356763898	 1.9661549144	 1.0243228608	 0.125391
H	-0.2768907494	 2.0366434045	-0.8031221628	 0.119563
H	 1.9640039565	 0.8152760934	-0.8388951948	 0.099921
H	 0.5855321549	-2.7561809675	 3.4908465539	 0.133242
H	-0.3202384076	-1.4295266207	 4.2448030424	 0.132811
H	-1.5670057789	-2.1303336619	 1.9496165347	 0.11967
H	-0.4255442372	-0.4735672467	-0.9214608415	 0.102712
178.2048	215.8809	308.1772	419.5109	487.8302	496.951	642.5618	687.0346	750.1539	767.7723	794.3666	823.4999	826.9961	843.0854	926.4306	935.8504	972.7415	1010.6941	1021.1658	1032.7865	1061.1852	1086.6194	1114.7793	1167.453	1181.196	1192.8876	1221.6972	1308.6419	1314.9546	1346.3117	1413.2376	1472.6578	1501.3595	1719.7215	1730.848	3020.258	3052.0032	3127.7288	3182.3587	3199.2225	3220.4985	3226.6798
C1C2N=C3OCC=C3C12	C1[C@H]2N=C3OCC=C3[C@@H]12	
InChI=1S/C7H7NO/c1-2-9-7-4(1)5-3-6(5)8-7/h1,5-6H,2-3H2	InChI=1S/C7H7NO/c1-2-9-7-4(1)5-3-6(5)8-7/h1,5-6H,2-3H2/t5-,6-/m1/s1
