19
gdb 102982	1.94579	1.39489	1.11998	3.6778	77.26	-0.2408	0.0237	0.2645	1203.6249	0.158463	-419.196685	-419.186457	-419.185513	-419.231944	36.734	
C	-0.1883888193	 0.9540980454	-1.8029279779	-0.430354
C	 0.0141871075	-0.2252513209	-0.8750608943	-0.070852
C	 1.3326883874	-0.6005012819	-0.2681611063	-0.019852
N	 2.5260177987	 0.1532733713	-0.497383627	-0.520357
C	 0.1911449806	-0.0666518834	 0.6415550211	 0.0837
C	 0.3886952223	 1.2855757304	 1.3142282003	-0.140212
O	 1.3489784912	 1.2202058139	 2.356277499	-0.417334
C	-0.462750409	-1.0263232153	 1.4878143311	 0.230229
N	-0.9687548539	-1.7841802364	 2.2037762328	-0.353375
H	 0.4335597528	 1.8179643912	-1.556052732	 0.121133
H	 0.0476654827	 0.6623159475	-2.8315331244	 0.138398
H	-1.230678204	 1.2867447385	-1.7813568696	 0.137762
H	-0.6055924524	-1.0768235008	-1.1407347473	 0.115192
H	 1.5121094287	-1.6671406922	-0.1614597842	 0.118219
H	 2.3591896018	 1.003733218	-1.0194358898	 0.234717
H	 2.9723167446	 0.404470226	 0.3788455535	 0.254022
H	 0.7819281942	 2.0081987254	 0.5982684257	 0.105708
H	-0.5748138448	 1.6686972199	 1.677862145	 0.113916
H	 1.015413071	 0.616991703	 3.0302886543	 0.299339
54.7681	126.0961	131.5353	148.5759	181.3351	204.5929	222.6836	290.8888	319.2561	387.2595	432.6303	452.9366	565.4384	570.4609	582.764	720.3555	769.4806	814.1532	880.8717	932.7648	967.9998	1025.3218	1043.8698	1072.9801	1098.2793	1142.2606	1185.5331	1225.4007	1247.911	1285.4933	1314.2492	1372.7995	1387.1131	1413.8162	1428.4361	1449.0316	1493.8475	1498.2416	1504.9398	1664.3737	2330.2819	3012.0444	3042.3113	3104.9617	3110.566	3124.3978	3137.2143	3154.842	3520.2043	3608.9436	3800.8643
CC1C(N)C1(CO)C#N	C[C@H]1[C@@H](N)[C@]1(CO)C#N	
InChI=1S/C6H10N2O/c1-4-5(8)6(4,2-7)3-9/h4-5,9H,3,8H2,1H3	InChI=1S/C6H10N2O/c1-4-5(8)6(4,2-7)3-9/h4-5,9H,3,8H2,1H3/t4-,5+,6-/m0/s1
