18
gdb 37112	3.65387	1.67217	1.58871	1.2027	79.05	-0.2008	0.0121	0.2129	911.3839	0.149634	-364.717464	-364.710942	-364.709998	-364.747767	28.094	
C	 0.0195041153	 1.4711016002	-0.0563695499	-0.252028
C	 1.2729417956	 0.6960912013	-0.0041429977	-0.084
N	-0.0758074415	 0.0011687368	 0.0437342211	-0.178378
C	 0.2826300024	-0.6338224021	-1.2958291821	 0.271708
C	 0.6799461224	 0.2374135737	-2.4455329968	-0.383231
C	 1.6715528445	 0.0004269307	-1.3252580906	 0.177288
C	 2.6102668672	-1.149207684	-1.4219904623	-0.167542
C	 1.9460598648	-2.3130832763	-1.4718682809	-0.058428
C	 0.4339089693	-2.1436116446	-1.3508729039	-0.336887
H	-0.2920486501	 1.9511708607	 0.8674393643	 0.124322
H	-0.3057606232	 1.993710942	-0.9484390165	 0.119673
H	 1.9248270474	 0.7004236879	 0.8633156308	 0.098173
H	 0.9066218976	-0.3055162425	-3.3567735634	 0.126646
H	 0.2428670253	 1.2126363213	-2.6254453793	 0.118301
H	 3.6901045158	-1.051970902	-1.4664551167	 0.093829
H	 2.409192006	-3.2853570174	-1.6142641998	 0.093711
H	 0.0472289511	-2.5983650091	-0.4308948786	 0.126729
H	-0.10431732	-2.6094645966	-2.1857223776	 0.110116
212.5884	246.7159	318.7258	427.353	475.975	492.7749	529.7309	609.6549	686.4602	706.863	750.2565	779.4683	822.7215	846.659	869.7085	915.4101	928.9323	936.2983	950.7862	977.1598	990.8758	1048.9237	1068.7659	1093.8895	1112.1222	1129.4373	1136.8226	1181.2908	1204.3076	1222.5553	1230.5501	1309.034	1333.2697	1360.5668	1383.5173	1463.2613	1473.8722	1518.1884	1639.2896	3026.1491	3060.5462	3123.3116	3139.6011	3162.4715	3166.8067	3191.8793	3206.9855	3219.2161
C1C2N1C13CC21C=CC3	C1[C@H]2N1[C@@]13C[C@@]21C=CC3	
InChI=1S/C8H9N/c1-2-7-5-8(7,3-1)9-4-6(7)9/h1-2,6H,3-5H2	InChI=1S/C8H9N/c1-2-7-5-8(7,3-1)9-4-6(7)9/h1-2,6H,3-5H2/t6-,7+,8+,9?/m1/s1
