18
gdb 35613	2.24326	1.77258	1.11494	3.8721	82.04	-0.2406	0.0076	0.2482	1096.3874	0.148964	-364.828765	-364.820849	-364.819904	-364.861391	30.644	
N	-0.4474070352	-0.7097981658	-1.028217188	-0.34059
C	-0.2748934409	 0.3079571756	-0.5071737609	 0.284761
C	-0.0428702091	 1.5937398258	 0.1394610984	-0.241694
C	-0.3670722231	 1.5997713563	 1.6679262422	-0.280964
C	 0.6784949785	 2.5372784269	 2.2236861113	-0.09791
C	 1.6404068207	 2.7972559408	 1.3394747735	-0.125545
C	 1.4144211033	 2.1141175445	 0.0397298385	 0.334683
C	 2.5277509222	 1.3455844921	-0.6440423342	-0.316944
C	 1.9900126272	 2.6072935851	-1.2643468782	-0.312428
H	-0.6944415715	 2.3276193951	-0.349442549	 0.13082
H	-1.3949535517	 1.9254802542	 1.8546210475	 0.121835
H	-0.2706003274	 0.5963386138	 2.1012256091	 0.132669
H	 0.6457185567	 2.9006778636	 3.2437139224	 0.104128
H	 2.5182692782	 3.4082705681	 1.5178995158	 0.103663
H	 3.5088006101	 1.3724469953	-0.1822123805	 0.116368
H	 2.2736337377	 0.3991812978	-1.109023266	 0.145643
H	 1.3734391207	 2.5092653676	-2.1525026385	 0.123735
H	 2.6028432535	 3.502498913	-1.2433896035	 0.117769
65.8955	141.6427	204.8034	252.2291	297.1572	354.8151	461.1895	496.1936	541.0542	571.2339	690.1257	748.8915	779.8973	784.139	879.8002	908.1039	946.6462	958.6647	967.2948	973.2779	1014.7748	1024.2722	1044.6901	1066.5336	1085.8292	1127.3562	1170.5644	1193.0152	1268.8714	1277.7155	1303.9252	1308.2133	1350.6109	1392.8202	1465.8387	1490.5546	1498.7323	1682.0579	2354.5058	3030.4207	3037.7535	3079.1206	3124.9757	3133.9799	3189.4153	3207.0106	3215.6743	3225.334
N#CC1CC=CC11CC1	N#C[C@H]1CC=CC21CC2	
InChI=1S/C8H9N/c9-6-7-2-1-3-8(7)4-5-8/h1,3,7H,2,4-5H2	InChI=1S/C8H9N/c9-6-7-2-1-3-8(7)4-5-8/h1,3,7H,2,4-5H2/t7-/m1/s1
