15
gdb 128991	3.99624	1.63533	1.16045	1.6794	80.9	-0.2196	-0.0262	0.1934	981.6409	0.118055	-379.750964	-379.744856	-379.743911	-379.781192	25.124	
N	 0.0222877714	 1.3420669497	 0.0094216117	-0.339322
N	 1.2737123997	 1.8647254903	 0.0001475253	-0.201185
C	 2.0951658617	 0.8331351734	-0.0134428662	-0.121026
C	 1.3859763397	-0.4052031428	-0.01334113	 0.218392
C	 0.0213462634	-0.0227970347	 0.0019823478	 0.373473
C	-1.0169599617	-0.9625380105	 0.0069132338	-0.243064
C	-0.6543873137	-2.2973849315	-0.0038949284	-0.100158
C	 0.6995742784	-2.6992398493	-0.019221495	-0.115363
C	 1.72152641	-1.7686119456	-0.0240498998	-0.250443
H	-0.7636592205	 1.9682576424	 0.0205319075	 0.270372
H	 3.1628730688	 0.9966888538	-0.0229013264	 0.117565
H	-2.0581497371	-0.6597150928	 0.018664966	 0.096436
H	-1.4288082727	-3.0573371478	-0.0005342707	 0.0983
H	 0.9339008732	-3.7581326968	-0.027277859	 0.094904
H	 2.7599906295	-2.0824161478	-0.0358370066	 0.101119
216.6038	253.8841	401.0248	411.77	438.72	543.5387	582.7488	627.3131	674.1398	764.3721	779.2157	780.5149	859.9471	880.1807	900.746	928.9108	952.1234	967.728	1030.1693	1112.3494	1143.6212	1172.4436	1231.22	1263.901	1292.8719	1339.1375	1380.0209	1423.6954	1452.5803	1520.753	1536.7909	1620.5175	1660.3253	3173.4038	3181.5951	3191.7307	3201.005	3245.1488	3683.5484
N1N=CC2=C1C=CC=C2	[nH]1ncc2c1cccc2	
InChI=1S/C7H6N2/c1-2-4-7-6(3-1)5-8-9-7/h1-5H,(H,8,9)	InChI=1S/C7H6N2/c1-2-4-7-6(3-1)5-8-9-7/h1-5H,(H,8,9)
