12
gdb 128452	4.8596	1.07392	0.88446	3.0525	58.15	-0.309	-0.0949	0.2141	1204.0549	0.075861	-505.902643	-505.894738	-505.893794	-505.936402	26.377	
C	-0.0353068962	 1.3499998868	 0.0505154046	-0.248013
O	 0.0254700371	-0.0850322221	-0.0331977122	-0.22241
C	 0.6414938786	-0.5637349443	-1.1148176542	 0.43123
O	 1.1342877568	 0.084705756	-1.9981626563	-0.343073
C	 0.6471812075	-2.0542479471	-1.102437261	 0.297479
N	 0.1318318512	-2.8203362213	-0.1801128168	-0.121268
O	 0.376290213	-4.0684457665	-0.5933534848	-0.12975
N	 1.0727612148	-4.0106448662	-1.8251643186	 0.055626
N	 1.2246283652	-2.8034560014	-2.1115988039	-0.175729
H	 0.9721956687	 1.7712044968	 0.07399902	 0.153111
H	-0.5734042039	 1.757364155	-0.8082367577	 0.153247
H	-0.5657774727	 1.5646969043	 0.9767452009	 0.149549
47.4777	107.7431	128.1818	153.6523	259.2196	309.517	392.4487	492.7612	592.0861	671.2186	697.6513	821.5163	825.6344	979.7895	986.8415	1052.7005	1108.4146	1177.9347	1197.3155	1231.4185	1346.1857	1469.184	1482.4537	1492.1828	1510.046	1558.9515	1831.6903	3060.1482	3138.8907	3176.0708
COC(=O)C1=NON=N1	COC(=O)c1nonn1	
InChI=1S/C3H3N3O3/c1-8-3(7)2-4-6-9-5-2/h1H3	InChI=1S/C3H3N3O3/c1-8-3(7)2-4-6-9-5-2/h1H3
