17
gdb 70993	3.24273	1.60665	1.47771	2.1224	72.87	-0.2295	-0.0011	0.2284	934.057	0.135307	-421.687409	-421.680335	-421.679391	-421.718222	29.78	
O	-0.0254582134	 1.4890522267	-0.0418122539	-0.476333
C	 0.0247643508	 0.1070017229	-0.0334197421	 0.313124
C	 0.2097492122	-0.763216417	 1.3656628381	-0.370953
C	-0.4103237025	-1.8142136613	 0.3727979493	 0.368133
O	-1.4442106722	-2.8226562557	 0.185444267	-0.355174
C	-1.9969984514	-1.925834172	-0.8648501365	-0.168614
C	-1.3058869473	-0.7248111957	-0.1489891557	-0.051254
C	 0.715151976	-1.9222153627	-0.669305998	-0.160685
C	 0.9889976837	-0.6498998761	-0.9524729399	-0.151365
H	 0.8714248672	 1.8320773958	 0.0380936715	 0.286012
H	 1.2333282283	-0.91641877	 1.7176786398	 0.098343
H	-0.4545839584	-0.4199455922	 2.1612774577	 0.115438
H	-1.6028996886	-2.1999800763	-1.8473733587	 0.118514
H	-3.0887326075	-1.9369683858	-0.8562821035	 0.117547
H	-1.9884122604	-0.3894929606	 0.6357840091	 0.098956
H	 1.1218435738	-2.8485920733	-1.0491906411	 0.111831
H	 1.7031885997	-0.2018276067	-1.630367263	 0.106479
216.8176	253.1308	289.6891	317.061	378.7416	458.416	471.3408	507.6498	577.9772	619.0354	667.4962	694.1804	762.6661	777.0315	836.5989	868.3191	905.5765	937.2885	965.9174	978.8897	1018.5937	1039.4304	1051.7579	1078.4576	1119.452	1138.1702	1155.6653	1164.2701	1187.3724	1255.3593	1291.433	1318.4983	1347.1041	1408.75	1486.451	1493.3464	1632.5239	3056.2321	3057.3761	3077.1637	3128.6962	3141.1233	3212.3938	3245.2041	3804.0551
OC12CC3(OCC13)C=C2	O[C@@]12C[C@]3(OC[C@H]13)C=C2	
InChI=1S/C7H8O2/c8-6-1-2-7(4-6)5(6)3-9-7/h1-2,5,8H,3-4H2	InChI=1S/C7H8O2/c8-6-1-2-7(4-6)5(6)3-9-7/h1-2,5,8H,3-4H2/t5-,6+,7-/m1/s1
