17
gdb 114608	2.21388	1.51551	1.05238	4.0815	70.13	-0.2525	-0.0372	0.2153	1147.9583	0.133588	-458.920806	-458.911936	-458.910992	-458.954989	31.698	
O	 0.2281870188	 0.5729308288	 0.9488969339	-0.426097
C	-0.1626900674	 0.3434216284	-0.3979825174	-0.09623
C	-1.4860676579	-0.391837646	-0.3465080028	-0.063094
C	-2.10309076	-0.9426299978	-1.6802552857	-0.288691
C	-2.0215501524	-2.3535451473	-1.0843114721	-0.020867
O	-0.6694201524	-2.6117711472	-0.753400217	-0.264588
C	-1.4235150763	-1.8387990683	 0.1837989219	 0.334444
C	-1.5936937076	-2.3352491099	 1.5692854285	 0.052473
O	-1.3731751438	-3.4651805404	 1.9248048557	-0.25557
H	 1.1423495129	 0.8704478196	 0.955823827	 0.292592
H	-0.2786074738	 1.2886191487	-0.9524244735	 0.088086
H	 0.5706171089	-0.2758214105	-0.933150483	 0.108658
H	-2.2182415767	 0.1959992084	 0.2152684161	 0.094587
H	-3.1234856185	-0.5943285023	-1.850776347	 0.117158
H	-1.5125579195	-0.8038472049	-2.5896708893	 0.118239
H	-2.6700957462	-3.2097622343	-1.2317861265	 0.125139
H	-1.9708887683	-1.559059975	 2.2705187512	 0.08376
67.2453	95.1223	129.3015	194.2308	209.1608	248.1303	277.4526	390.4637	439.1993	462.7685	619.119	724.5039	749.0959	831.139	860.6834	917.7312	923.4977	983.7618	1020.3364	1040.3336	1068.5935	1078.9021	1097.1598	1137.4355	1151.6768	1214.3923	1247.4536	1254.4501	1269.722	1285.1316	1350.5017	1410.5763	1429.0205	1456.7057	1475.6534	1520.6679	1816.4558	2894.6727	2973.5395	3025.49	3068.0684	3073.6344	3128.677	3190.2348	3836.4156
OCC1CC2OC12C=O	OC[C@H]1C[C@H]2O[C@@]12C=O	
InChI=1S/C6H8O3/c7-2-4-1-5-6(4,3-8)9-5/h3-5,7H,1-2H2	InChI=1S/C6H8O3/c7-2-4-1-5-6(4,3-8)9-5/h3-5,7H,1-2H2/t4-,5-,6+/m1/s1
