22
gdb 102091	1.8208	1.57953	1.15068	3.5649	83.02	-0.2381	0.0315	0.2696	1223.4037	0.192806	-404.364427	-404.35438	-404.353436	-404.39949	37.317	
C	 0.7768638461	-3.3640661041	-0.9543484245	-0.375759
C	 1.6746331448	-2.1564406736	-1.238837029	-0.164173
N	 0.9711173643	-0.8811864085	-1.317760953	-0.084257
C	 1.1290341674	 0.0554110759	-0.3341766468	 0.140253
O	 0.537517045	 1.1121775232	-0.2659595941	-0.345776
C	-0.0026279617	-0.6256290955	-2.3645620168	 0.358169
C	-1.4512621104	-0.7953777629	-1.9428071728	-0.453192
C	 0.3257144288	 0.4796263914	-3.3347519993	-0.269332
C	 0.4010603281	-0.9584139803	-3.7825063519	-0.328371
H	 0.2261379244	-3.232233349	-0.0180655482	 0.126043
H	 0.0539494457	-3.5218877466	-1.7593020345	 0.132418
H	 1.3866173143	-4.269510297	-0.8712115276	 0.118031
H	 2.4217433221	-2.0592976546	-0.4445408365	 0.115414
H	 2.2308698158	-2.3267784263	-2.1678805678	 0.109693
H	 1.8830421183	-0.2581996599	 0.4160156858	 0.070365
H	-1.6803342953	-0.1070056056	-1.1250739143	 0.150965
H	-2.1212451317	-0.569544296	-2.7777548342	 0.112661
H	-1.6594797116	-1.8170804968	-1.6101736137	 0.112473
H	-0.4929550632	 1.0977276017	-3.6852149762	 0.118037
H	 1.2577889039	 1.0109524853	-3.1881614486	 0.12465
H	 1.3849491639	-1.3762594466	-3.9628755374	 0.115545
H	-0.3705963792	-1.3452211043	-4.4393229786	 0.116142
48.5771	84.649	140.4335	196.5418	234.2013	241.4467	274.0492	322.0115	324.2191	353.0325	397.1916	468.2529	511.1449	628.7729	685.9583	774.3083	791.144	871.0334	886.9998	939.3745	949.5184	978.4133	1030.0272	1046.1498	1076.1684	1085.1148	1088.9865	1121.8784	1132.7621	1188.0891	1207.5577	1277.5678	1306.8987	1331.339	1394.9948	1406.1316	1411.3054	1419.0899	1442.6145	1466.8077	1485.0686	1488.9349	1491.7492	1503.3718	1509.0095	1512.6262	1789.6196	2921.6325	3035.9632	3039.3441	3041.2103	3075.5242	3106.9038	3112.1438	3122.3282	3123.774	3136.1036	3147.8573	3216.7114	3237.5698
CCN(C=O)C1(C)CC1	CCN(C=O)C1(C)CC1	
InChI=1S/C7H13NO/c1-3-8(6-9)7(2)4-5-7/h6H,3-5H2,1-2H3	InChI=1S/C7H13NO/c1-3-8(6-9)7(2)4-5-7/h6H,3-5H2,1-2H3
