17
gdb 16987	3.95244	2.20052	2.08138	0.8284	67.71	-0.2222	0.0383	0.2605	736.2481	0.14447	-363.711312	-363.70542	-363.704476	-363.740836	25.038	
C	 0.0108811988	 1.6017956554	-0.265545829	-0.174029
O	 1.447221375	 1.4893390323	 0.1123260881	-0.361104
C	 1.0496699641	 0.3135526114	 0.902003043	 0.393289
C	 1.0973685359	-1.2561882352	 1.0455730792	-0.264795
N	-0.4598462226	-1.0969653613	 1.0442462837	-0.172411
C	-0.6430215056	-0.3694753264	 2.3374768378	-0.15355
C	 0.4990589246	 0.6785623798	 2.3061803182	-0.273552
C	-0.1136873114	 0.067876891	 0.0455263434	-0.003346
H	-0.5140319101	 2.3073892159	 0.3829768794	 0.119541
H	-0.0995171493	 1.8836303389	-1.3148979957	 0.123688
H	 1.421651974	-1.7962330666	 0.1580327726	 0.126031
H	 1.4859365472	-1.7113527788	 1.961919468	 0.108054
H	-1.6388815615	 0.0796176054	 2.3581229168	 0.109826
H	-0.5719479569	-1.0829047884	 3.1623527984	 0.108474
H	 1.2566553697	 0.5290835274	 3.0799152833	 0.104211
H	 0.1515328399	 1.7104859257	 2.3734284788	 0.106334
H	 0.1480066082	-0.4488438366	-0.8780722759	 0.10334
228.906	333.9161	380.5411	420.6661	493.4849	550.446	638.8453	648.8403	741.7787	809.3613	824.609	840.2802	870.502	930.9397	949.328	957.4426	965.8922	1005.8609	1037.3643	1058.5051	1110.4341	1125.2238	1146.3553	1190.5217	1206.4725	1208.749	1242.4325	1256.6988	1268.8805	1326.6018	1329.8159	1421.0452	1490.6726	1498.8684	1507.0212	1528.2107	3057.182	3061.2393	3063.1294	3071.7975	3094.8712	3104.9841	3123.3964	3131.6472	3161.3993
C1OC23CN(CC2)C13	C1O[C@@]23CN(CC2)[C@@H]13	
InChI=1S/C6H9NO/c1-2-7-4-6(1)5(7)3-8-6/h5H,1-4H2	InChI=1S/C6H9NO/c1-2-7-4-6(1)5(7)3-8-6/h5H,1-4H2/t5-,6+/m0/s1
