16
gdb 34886	2.27587	1.7664	1.21433	4.0989	73.33	-0.2484	0.0192	0.2675	1027.3633	0.12557	-396.858351	-396.850814	-396.84987	-396.890519	28.888	
N	-0.1425183771	-1.1938866847	-0.0857708585	-0.33686
C	-0.0771363936	-0.0416503439	-0.0185133553	 0.302089
C	 0.0141710208	 1.4096197875	 0.0315103065	-0.266724
C	-0.2480762938	 2.122501484	 1.3771970951	-0.055949
N	 0.8144123093	 1.6934819777	 2.3046612268	-0.321551
C	 1.0860243928	 2.7832570071	 1.3332692166	-0.144457
C	 1.430047153	 2.0745037537	 0.0386336499	 0.395243
C	 2.7057972007	 1.5379255252	-0.4616890093	-0.296013
N	 2.0628531445	 2.7143365482	-1.0968624396	-0.381441
H	-0.6000955592	 1.8457809549	-0.7628950932	 0.129274
H	-1.2063176562	 2.4838707328	 1.7250218318	 0.114704
H	 0.6194669424	 2.1247428509	 3.2077433272	 0.240518
H	 1.390150768	 3.774135264	 1.6430726161	 0.116644
H	 3.6302308807	 1.7498907565	 0.0668342374	 0.130427
H	 2.68045095	 0.5838695181	-0.9814809237	 0.136223
H	 1.6109707678	 2.447472348	-1.9685282879	 0.237872
100.5189	132.0642	187.9852	279.8504	323.217	384.7808	488.8316	509.4607	563.3808	649.9404	756.7824	830.5519	839.6848	863.3192	901.9463	918.4344	945.713	963.9792	981.5263	1015.1795	1039.8257	1069.7414	1098.1917	1106.801	1130.9383	1168.0932	1241.1852	1245.0256	1269.5595	1314.4123	1335.5019	1362.3294	1439.7843	1519.2766	2356.2048	3066.4187	3115.1307	3204.1476	3205.0703	3217.446	3481.8745	3494.6237
N#CC1C2NC2C11CN1	N#C[C@H]1[C@H]2N[C@H]2[C@]21CN2	
InChI=1S/C6H7N3/c7-1-3-4-5(9-4)6(3)2-8-6/h3-5,8-9H,2H2	InChI=1S/C6H7N3/c7-1-3-4-5(9-4)6(3)2-8-6/h3-5,8-9H,2H2/t3-,4+,5+,6+/m0/s1
