19
gdb 47590	2.26515	1.86616	1.14763	2.8626	74.22	-0.2397	-0.0224	0.2172	1075.2939	0.160831	-423.040603	-423.0328	-423.031856	-423.073743	29.782	
O	-0.2736080104	 0.6323223736	 1.3050992778	-0.315372
C	-0.1840033715	 1.3855269216	 0.3636100056	 0.373922
C	-1.4081848698	 1.8129269905	-0.4479643003	-0.298094
C	-1.2042858686	 3.0978727083	-1.2762149101	-0.21963
C	-0.2795465412	 4.0767171988	-0.5338510685	-0.235617
C	 1.1152860097	 3.4631424689	-0.4786789459	 0.143777
O	 1.9019582585	 3.8257722966	 0.6761795503	-0.294135
C	 2.0872806972	 2.4420283854	 1.0560051125	-0.08307
C	 1.1500165264	 1.9689827472	-0.0701225426	-0.179218
H	-1.6931391298	 0.9682624434	-1.0880848657	 0.130197
H	-2.2249167497	 1.9307577015	 0.272063605	 0.136115
H	-0.7631162008	 2.8561335086	-2.2519972386	 0.103661
H	-2.173656337	 3.5584923076	-1.4876605272	 0.108727
H	-0.2581995208	 5.0565532472	-1.0201059656	 0.105127
H	-0.638107818	 4.2300305358	 0.4914947836	 0.112569
H	 1.6634343373	 3.675740187	-1.4070982973	 0.075938
H	 3.1330189699	 2.1282828934	 0.9568981987	 0.10296
H	 1.7388741153	 2.2324197587	 2.0722339192	 0.124384
H	 1.5964332334	 1.2940055659	-0.8069645109	 0.107756
47.6825	81.0973	216.8482	254.8354	347.6612	421.0538	458.9726	477.6841	557.0244	606.421	691.2178	769.1684	846.3722	881.2976	892.6763	924.	960.0604	990.3859	1023.9092	1034.3392	1056.4864	1093.1277	1114.9522	1133.9444	1157.8291	1160.7064	1212.9176	1221.0162	1263.3135	1280.9964	1321.9602	1331.6645	1340.1519	1360.746	1367.5772	1388.8289	1446.995	1496.6666	1500.4505	1528.211	1807.0282	2999.4818	3023.1701	3028.1394	3036.1943	3038.1732	3064.7142	3074.3402	3085.2695	3088.788	3089.9193
O=C1CCCC2OCC12	O=C1CCC[C@H]2OC[C@@H]12	
InChI=1S/C7H10O2/c8-6-2-1-3-7-5(6)4-9-7/h5,7H,1-4H2	InChI=1S/C7H10O2/c8-6-2-1-3-7-5(6)4-9-7/h5,7H,1-4H2/t5-,7+/m0/s1
