16
gdb 108176	2.78768	1.45927	1.26897	0.9016	64.1	-0.2459	0.0078	0.2537	1024.9656	0.123971	-474.997947	-474.989618	-474.988673	-475.031191	30.459	
O	 0.0432655979	 1.3980928813	-0.449577894	-0.408402
C	 0.0086249273	 0.1164324841	 0.152492321	-0.16034
C	-1.3501582392	-0.5154465082	 0.1050543578	 0.347202
O	-2.2923271253	 0.121126963	 0.9660446698	-0.244132
C	-3.1263457417	-0.8585556308	 1.393246356	 0.110165
N	-2.8943697877	-2.0600433968	 1.0433906023	-0.269909
C	-1.7601536582	-1.9961786348	 0.1537760421	-0.164187
C	-1.9609465357	-1.163368964	-1.1059360663	 0.034957
O	-3.2249270009	-0.7638234998	-1.5141539548	-0.416648
H	-0.6036647993	 1.9476805529	 0.0058238275	 0.294045
H	 0.7115209443	-0.5074144474	-0.4086253559	 0.116882
H	 0.3536304331	 0.1501233298	 1.1975225265	 0.101844
H	-3.934738958	-0.5234234823	 2.0307211401	 0.148282
H	-1.0814881421	-2.8412354929	 0.1535261737	 0.105212
H	-1.2518752345	-1.3731968288	-1.9065332092	 0.106522
H	-3.7951979301	-1.5406576054	-1.5344818167	 0.298508
69.1496	125.7989	154.1308	220.7867	251.1844	298.8321	354.4975	378.6403	496.387	572.906	655.9846	736.0884	761.3832	811.0878	896.1311	917.7645	939.5198	974.7426	1005.5221	1036.6062	1071.2957	1104.1877	1129.5909	1143.9728	1195.9956	1241.8898	1262.0289	1325.4259	1329.2288	1340.2528	1383.0334	1419.9174	1455.2416	1487.9453	1662.8203	2989.5792	3082.8717	3109.2225	3178.2228	3236.4622	3797.6943	3813.0099
OCC12OC=NC1C2O	OC[C@]12OC=N[C@H]1[C@H]2O	
InChI=1S/C5H7NO3/c7-1-5-3(4(5)8)6-2-9-5/h2-4,7-8H,1H2	InChI=1S/C5H7NO3/c7-1-5-3(4(5)8)6-2-9-5/h2-4,7-8H,1H2/t3-,4+,5-/m0/s1
