18
gdb 36409	4.44006	1.02287	0.97194	4.0508	75.11	-0.2625	0.0371	0.2996	1229.4635	0.14971	-401.945414	-401.937887	-401.936942	-401.977915	29.071	
N	-0.0523438543	-1.1055820561	-0.232094617	-0.311067
C	-0.0333937542	 0.0389255945	-0.0721708545	 0.260273
C	 0.017081819	 1.485159161	 0.1289108841	-0.364656
C	 1.4458835781	 2.0488510007	 0.0517973594	 0.020521
C	 2.1209663212	 1.89446807	-1.3528517079	-0.238454
C	 2.2700030863	 3.3970068254	-1.6663762793	 0.083167
C	 2.8658958151	 3.9836572347	-0.3676259724	-0.238244
C	 1.4446096037	 3.5982013371	 0.0880907204	 0.058337
O	 0.9653738297	 3.9268548868	-1.2525486314	-0.298871
H	-0.5956831951	 1.9740604554	-0.6363397357	 0.166847
H	-0.433325844	 1.7142768262	 1.1022103438	 0.145484
H	 2.0535872168	 1.623420659	 0.8548191939	 0.092514
H	 3.0765757815	 1.366470173	-1.317186375	 0.112242
H	 1.4754285266	 1.3908121351	-2.0758453366	 0.122769
H	 2.5776499111	 3.7039287382	-2.6651515977	 0.087835
H	 3.7286543912	 3.4959122319	 0.0934565715	 0.100125
H	 2.9946071863	 5.064412069	-0.4251234888	 0.118262
H	 0.906850871	 4.1026318381	 0.8919185232	 0.082917
70.0334	117.4148	185.5938	291.4217	396.7817	408.4185	426.2182	552.7121	575.567	707.2352	827.944	830.9637	847.9028	871.8759	876.7312	907.1378	950.4726	951.6678	971.5861	1006.4224	1036.9149	1053.8708	1097.905	1116.5009	1150.2484	1198.0295	1228.3137	1236.8398	1244.924	1264.0829	1283.0164	1310.2172	1317.8146	1347.4105	1377.726	1470.5881	1483.0478	1497.2834	2360.5848	3039.5287	3067.6594	3069.4974	3076.0689	3090.4245	3116.0044	3123.0892	3133.5901	3149.705
N#CCC1CC2CC1O2	N#CC[C@H]1C[C@@H]2C[C@H]1O2	
InChI=1S/C7H9NO/c8-2-1-5-3-6-4-7(5)9-6/h5-7H,1,3-4H2	InChI=1S/C7H9NO/c8-2-1-5-3-6-4-7(5)9-6/h5-7H,1,3-4H2/t5-,6+,7+/m0/s1
