20
gdb 97402	3.79582	0.80026	0.75477	3.525	80.62	-0.2529	0.0168	0.2697	1597.0029	0.169091	-440.26251	-440.252921	-440.251976	-440.297883	34.841	
C	 0.3200526658	 0.7770339765	-0.4750283897	-0.315673
N	 0.0609274103	-0.6073480652	-0.1391079122	-0.206088
C	-1.136610241	-0.949955689	 0.0251075713	 0.129094
O	-1.4462746256	-2.213620817	 0.393193229	-0.230368
C	-2.8289265688	-2.5855064915	 0.3022143296	 0.09698
C	-3.1823557634	-3.1195395169	-1.110842917	-0.26928
C	-2.7930826847	-4.5486035602	-0.6153418784	 0.153541
O	-1.4862054076	-4.9487358482	-0.9473768107	-0.437176
C	-2.9610675612	-4.0240714365	 0.8445697087	-0.265398
H	 0.8771153297	 0.8270203292	-1.4172988206	 0.130032
H	-0.5887082474	 1.3927986213	-0.5760089088	 0.096864
H	 0.9566739123	 1.2286434925	 0.2943186098	 0.1307
H	-2.0075000794	-0.2845082318	-0.0836953306	 0.077325
H	-3.4535924652	-1.7981680861	 0.7373267295	 0.081397
H	-4.2521832743	-3.0289576765	-1.3199044954	 0.106598
H	-2.6097434795	-2.7199204694	-1.9511484106	 0.114103
H	-3.4483370992	-5.3668094188	-0.9212772996	 0.086021
H	-0.8836711141	-4.2497442409	-0.6628057184	 0.292911
H	-2.2079989879	-4.3382638771	 1.5699910964	 0.120125
H	-3.9607126585	-4.2128171547	 1.2442817678	 0.108293
46.9394	76.0878	94.3574	163.4919	204.1635	292.8011	313.2802	365.5562	398.9659	402.557	465.8877	475.5241	564.9265	750.9521	837.2617	868.7743	880.2595	921.6107	970.4305	984.3939	995.6953	1048.0146	1063.6475	1086.8278	1137.4563	1141.0653	1156.6643	1169.2158	1198.0748	1237.8919	1250.6603	1274.8178	1289.6784	1336.1103	1361.9056	1413.3482	1446.0343	1446.8742	1451.1144	1472.4132	1480.1734	1504.7139	1778.7937	2968.8686	2993.4386	3045.5729	3060.193	3060.4822	3070.6232	3079.9607	3092.5307	3122.967	3132.7164	3775.4193
CN=COC1CC(O)C1	CN=CO[C@H]1C[C@@H](O)C1	
InChI=1S/C6H11NO2/c1-7-4-9-6-2-5(8)3-6/h4-6,8H,2-3H2,1H3	InChI=1S/C6H11NO2/c1-7-4-9-6-2-5(8)3-6/h4-6,8H,2-3H2,1H3/t5-,6+
