13
gdb 23904	4.55804	0.87321	0.84996	3.3213	55.53	-0.289	0.0132	0.3022	1340.073	0.09051	-492.943469	-492.935081	-492.934137	-492.978068	28.378	
C	-0.0418176378	 1.5591165385	 0.0501188684	-0.370758
C	 0.0102209307	 0.0211957851	-0.0115410493	-0.328898
C	 0.6870267553	-0.477031521	-1.2013835869	 0.154284
C	 1.2488010332	-0.869970139	-2.1884527395	-0.188109
C	 1.928687201	-1.3502863385	-3.3839958963	 0.262755
F	 1.9646846093	-2.6907755993	-3.424802687	-0.072683
F	 1.3142918168	-0.9326955624	-4.5013786145	-0.073392
F	 3.1965946638	-0.9143594196	-3.4383502971	-0.073478
H	 0.9656475146	 1.9826778649	 0.0568820892	 0.13751
H	-0.5756609585	 1.9653003437	-0.8126985268	 0.137508
H	-0.5582243914	 1.8789805473	 0.9590450181	 0.124727
H	 0.5207417554	-0.3717647019	 0.8763081217	 0.145274
H	-1.0069035925	-0.3888279878	 0.01455015	 0.145259
31.659	83.5568	102.422	194.2467	219.4064	342.7914	404.5891	452.009	460.1898	547.4403	613.0735	619.1082	751.1421	787.2397	923.8211	1043.7498	1089.5533	1105.4383	1175.9594	1176.568	1285.2003	1297.5814	1349.7694	1413.2962	1470.1891	1496.0245	1505.0106	2385.3226	3031.1245	3051.3109	3061.8122	3127.4847	3131.2053
CCC#CC(F)(F)F	CCC#CC(F)(F)F	
InChI=1S/C5H5F3/c1-2-3-4-5(6,7)8/h2H2,1H3	InChI=1S/C5H5F3/c1-2-3-4-5(6,7)8/h2H2,1H3
