27
gdb 118774	2.76037	0.91733	0.79375	0.061	97.22	-0.2487	0.0798	0.3285	1646.2388	0.249312	-353.561878	-353.550098	-353.549154	-353.599055	43.609	
C	 0.1649659256	 1.5983600162	-0.045193042	-0.380506
C	 0.2714763168	 0.0714583957	-0.0995216762	-0.160543
C	 0.3897324247	-0.5616663698	 1.2964618532	-0.246505
C	 0.5875638168	-2.0764529432	 1.2939541657	 0.322461
C	-0.6301234589	-2.8243911348	 0.769204781	-0.462526
C	 1.9620186008	-2.6196928118	 0.9488847176	-0.36792
C	 1.454645455	-2.7335250249	 2.371840239	 0.284167
C	 2.1266207171	-1.8911101449	 3.446542997	-0.451416
C	 1.0899435824	-4.1114944562	 2.9048897425	-0.449237
H	 1.0458274259	 2.0415229106	 0.4332112831	 0.111225
H	 0.0795009174	 2.0291381617	-1.047872657	 0.109151
H	-0.7137202232	 1.9147370101	 0.5283034357	 0.112332
H	-0.6028784936	-0.329075097	-0.6253220083	 0.096616
H	 1.1453271978	-0.2163381755	-0.6979298684	 0.096743
H	 1.2184844289	-0.071424412	 1.8149657682	 0.089379
H	-0.5124928451	-0.3186866894	 1.8767067804	 0.087318
H	-0.9056019507	-2.4692521874	-0.2290582589	 0.116457
H	-0.4617820161	-3.8991104992	 0.6852873542	 0.112254
H	-1.4982463659	-2.6721331603	 1.422309163	 0.110291
H	 2.021512278	-3.5227613673	 0.3480031689	 0.098726
H	 2.7592431072	-1.9089363066	 0.7491762605	 0.099025
H	 2.5292761308	-0.9498960001	 3.067820202	 0.115401
H	 1.4336119948	-1.6558215719	 4.263682193	 0.111289
H	 2.966138914	-2.4461011877	 3.8819659162	 0.110523
H	 1.9760233872	-4.5919897986	 3.3365447691	 0.111388
H	 0.3366557558	-4.0448233142	 3.6995707272	 0.111219
H	 0.7033637069	-4.7812332814	 2.1350201133	 0.112687
35.269	81.1404	108.7831	148.6996	163.2352	174.8177	211.3562	243.8269	303.2798	309.046	338.5412	362.9227	393.0371	426.5079	451.921	524.0528	692.6461	715.0048	741.6057	865.2288	870.3881	908.1473	917.0133	937.4792	959.6585	964.9143	1010.9001	1037.8095	1049.4454	1062.9725	1078.6511	1089.771	1134.7829	1152.9317	1218.3138	1226.6964	1276.3027	1307.3232	1317.8014	1334.9428	1383.0138	1394.7707	1408.5332	1412.5215	1416.9854	1428.3772	1471.7956	1482.2967	1488.497	1490.8831	1493.0762	1494.3645	1499.5657	1503.2035	1509.1251	1512.3938	1521.0259	3001.8824	3020.4775	3024.5914	3025.8354	3027.8055	3030.835	3055.2878	3072.6385	3076.8395	3080.2877	3087.5704	3096.0857	3099.344	3110.0927	3117.2694	3123.8447	3135.6897	3191.5338
CCCC1(C)CC1(C)C	CCC[C@@]1(C)CC1(C)C	
InChI=1S/C9H18/c1-5-6-9(4)7-8(9,2)3/h5-7H2,1-4H3	InChI=1S/C9H18/c1-5-6-9(4)7-8(9,2)3/h5-7H2,1-4H3/t9-/m0/s1
