17
gdb 84405	3.09453	1.43393	1.14109	0.9497	68.72	-0.2609	-0.0016	0.2593	1065.7957	0.136611	-458.94497	-458.937098	-458.936154	-458.977382	30.646	
O	-0.2562408859	 1.4064149767	 0.5741451566	-0.43519
C	 0.0106108499	 0.1148020061	 0.0322460946	 0.059433
C	 1.0063321333	-0.632413137	 0.8800760718	-0.096284
C	 0.880802152	-1.9021848992	 1.257550657	-0.096285
C	-0.2771117191	-2.7955843889	 0.8974379589	 0.059433
O	-0.7427627383	-3.5148822044	 2.0371337469	-0.435189
C	-1.424466863	-2.0446879852	 0.2531166604	 0.008575
O	-1.9691574851	-0.9836800775	 1.0542295004	-0.274096
C	-1.2860075657	-0.6441357068	-0.1632366563	 0.008575
H	-0.7215795513	 1.2574191412	 1.4066568185	 0.290051
H	 0.4455759638	 0.312750531	-0.9566840818	 0.101612
H	 1.863382552	-0.0423361662	 1.1945915419	 0.10549
H	 1.6331884359	-2.3708125671	 1.8867955056	 0.10549
H	 0.0615379274	-3.5718864652	 0.1981291915	 0.101612
H	-1.12843753	-2.8580020443	 2.6300746476	 0.290051
H	-2.1804362974	-2.6684068641	-0.2220234079	 0.10336
H	-1.9416518586	-0.2530441291	-0.9400575958	 0.10336
71.7058	163.5311	251.8119	254.3	366.1119	393.2108	404.5764	432.1854	465.2037	546.2031	646.2038	666.3464	744.0459	768.5734	851.5551	897.3277	916.4552	924.1192	992.1922	1007.2574	1058.7011	1070.7947	1101.3235	1129.1409	1145.1648	1185.6952	1261.1707	1262.1332	1279.5452	1344.8499	1357.1782	1364.661	1400.3366	1422.73	1432.7194	1464.7543	1725.4681	3023.0464	3023.4041	3118.3086	3130.2706	3154.2608	3175.8465	3784.9867	3785.902
OC1C=CC(O)C2OC12	O[C@H]1C=C[C@@H](O)[C@H]2O[C@@H]12	
InChI=1S/C6H8O3/c7-3-1-2-4(8)6-5(3)9-6/h1-8H	InChI=1S/C6H8O3/c7-3-1-2-4(8)6-5(3)9-6/h1-8H/t3-,4+,5-,6+
