17
gdb 54176	2.17005	1.27034	1.09273	2.6043	70.66	-0.2604	-0.0521	0.2083	1201.1425	0.130706	-458.970426	-458.960483	-458.959538	-459.005941	34.462	
C	 0.2605346635	 1.1654962247	-0.5794047514	-0.47923
C	-0.0115464849	 0.0160192029	 0.3652489039	 0.302392
O	 0.7024102493	-0.2541430932	 1.3023629786	-0.291787
C	-1.3023155408	-0.7760834337	 0.1663318388	 0.285208
C	-2.1414344026	-0.911029725	 1.4187630484	-0.460336
O	-1.9952930101	-0.5676469347	-1.0592362659	-0.273126
C	-1.3836019439	-1.8490098866	-0.8677787738	-0.086875
C	-0.2391731044	-2.2008764803	-1.7626686322	 0.144147
O	 0.0436643426	-3.3387606241	-2.0348174243	-0.239518
H	 1.2604306856	 1.5590617998	-0.3951556823	 0.147175
H	 0.1371800144	 0.8776397062	-1.6252546019	 0.151965
H	-0.4809916699	 1.9528895416	-0.3934067149	 0.154648
H	-2.4754267898	 0.0747103249	 1.7588465167	 0.136115
H	-3.0218461884	-1.5281732623	 1.2283812148	 0.134632
H	-1.5407567056	-1.3586593967	 2.2132543223	 0.160527
H	-2.0651475702	-2.6767966122	-0.6747480241	 0.122431
H	 0.329783215	-1.3374898513	-2.1675024027	 0.091633
55.2284	85.2375	103.9541	150.0282	183.7983	197.2203	247.57	283.2788	349.6766	422.4692	446.0096	519.3042	526.0088	612.8235	657.6597	841.3331	855.3463	956.3557	992.4583	1005.845	1049.8513	1072.3893	1099.9422	1127.9142	1146.1823	1259.1393	1314.6211	1370.6709	1384.6243	1401.2151	1444.8395	1456.255	1464.4214	1478.6546	1494.328	1806.9457	1826.0533	2915.8369	3040.8037	3048.2455	3113.9609	3119.91	3130.8178	3148.2023	3165.8576
CC(=O)C1(C)OC1C=O	CC(=O)[C@@]1(C)O[C@H]1C=O	
InChI=1S/C6H8O3/c1-4(8)6(2)5(3-7)9-6/h3,5H,1-2H3	InChI=1S/C6H8O3/c1-4(8)6(2)5(3-7)9-6/h3,5H,1-2H3/t5-,6+/m0/s1
