19
gdb 93783	2.96161	1.27704	0.97288	2.9724	71.86	-0.2574	-0.0295	0.2279	1225.3198	0.15845	-460.186638	-460.177779	-460.176835	-460.220458	33.251	
C	-0.402770924	 1.4727376712	 0.035320281	-0.404218
C	-0.0505226857	-0.0055324434	 0.0688405656	 0.134102
C	 0.3970437329	-0.5437366532	-1.307072359	-0.329219
C	 1.2873697728	-1.7573290442	-1.1394199745	 0.375356
O	 2.1053344799	-2.1238370591	-1.9540992506	-0.332285
C	 1.11707714	-2.5222848847	 0.166293983	 0.015438
O	 2.0488442022	-3.5592529254	 0.2693074306	-0.441203
C	 1.2243211276	-1.531443198	 1.3619834218	-0.102912
O	 1.0204299577	-0.1773053982	 0.9909602105	-0.258821
H	 0.4751599971	 2.0610540676	-0.2485665593	 0.132436
H	-1.1989754271	 1.6629947266	-0.6908282749	 0.119307
H	-0.7385871577	 1.8077491509	 1.019792862	 0.129172
H	-0.9266596072	-0.5768215652	 0.4199289644	 0.072289
H	-0.4681276273	-0.820551093	-1.9234688593	 0.1334
H	 0.9612517676	 0.2105745711	-1.8647160948	 0.137158
H	 0.0932706193	-2.9372745888	 0.1434489256	 0.096196
H	 2.5456344835	-3.5337983376	-0.5658183809	 0.293128
H	 0.5159556037	-1.8205361455	 2.1526192795	 0.098534
H	 2.2394070347	-1.6043447511	 1.7585978994	 0.132144
58.3792	94.2325	180.9842	233.5123	282.7038	296.4111	365.6762	395.5138	421.4937	441.5422	504.964	536.2556	629.7066	683.6291	750.847	835.584	894.8903	927.9801	989.5895	1029.4104	1068.7703	1078.3964	1113.5946	1149.374	1163.2842	1189.704	1233.7203	1262.6559	1271.5595	1289.0416	1349.7118	1377.9181	1388.4721	1391.385	1412.6462	1441.2088	1446.1779	1482.4432	1496.957	1503.9703	1808.4385	2939.7078	2956.5007	2994.3116	3035.3291	3043.7872	3090.9897	3110.0889	3117.3668	3126.8888	3663.9582
CC1CC(=O)C(O)CO1	C[C@H]1CC(=O)[C@@H](O)CO1	
InChI=1S/C6H10O3/c1-4-2-5(7)6(8)3-9-4/h4,6,8H,2-3H2,1H3	InChI=1S/C6H10O3/c1-4-2-5(7)6(8)3-9-4/h4,6,8H,2-3H2,1H3/t4-,6-/m0/s1
