15
gdb 117026	3.65405	0.89143	0.7697	3.0069	68.1	-0.2414	-0.1361	0.1053	1438.4714	0.109775	-453.950623	-453.940813	-453.939869	-453.986849	32.667	
C	 0.6145824278	 0.8847212703	 0.2846548904	-0.325584
N	-0.4803774886	 0.3052127966	-0.4933616558	-0.266382
C	-0.0473248542	-0.5135215617	-1.6000409214	-0.269371
C	 0.4941749132	-1.8854349294	-1.2160171902	 0.2782
O	 0.4177722159	-2.3692179377	-0.1142577984	-0.262799
C	 1.1455247908	-2.7073271673	-2.3482073726	 0.205281
O	 1.2839903634	-2.2885671471	-3.4682200516	-0.242427
C	 1.5960404184	-4.0543424252	-1.9562119553	 0.269779
N	 1.9602942677	-5.1177497437	-1.6860530698	-0.288123
H	 1.3159633836	 0.1485695353	 0.7069618955	 0.114482
H	 1.1817599059	 1.5741190755	-0.3505305849	 0.126464
H	 0.1941793458	 1.4656516514	 1.1096857233	 0.130403
H	-1.0725061708	-0.2468014002	 0.1187290208	 0.232345
H	-0.8798742923	-0.6956338357	-2.2974867815	 0.148123
H	 0.7079400935	 0.0127662589	-2.1952941584	 0.149608
38.5725	54.678	102.8681	122.4129	184.8235	221.0411	252.1031	290.3605	359.7152	407.7974	436.401	484.1196	664.6312	686.6218	741.6429	801.5522	910.7699	949.1217	1003.3975	1134.5392	1156.337	1200.3431	1209.6944	1299.4215	1360.6036	1427.0295	1460.0536	1490.5414	1501.0189	1525.1211	1788.5683	1812.4182	2340.7397	2985.3002	3001.8265	3066.125	3071.7102	3113.4167	3528.019
CNCC(=O)C(=O)C#N	CNCC(=O)C(=O)C#N	
InChI=1S/C5H6N2O2/c1-7-3-5(9)4(8)2-6/h7H,3H2,1H3	InChI=1S/C5H6N2O2/c1-7-3-5(9)4(8)2-6/h7H,3H2,1H3
