18
gdb 89577	3.76001	1.25382	1.11052	2.6561	72.41	-0.2461	0.0123	0.2584	1108.8334	0.149066	-439.085739	-439.07807	-439.077125	-439.118152	29.845	
O	 0.0727412193	 1.4837416271	 0.0237396451	-0.441386
C	 0.0879045538	 0.0772372309	 0.010672005	 0.151951
C	 0.2174552392	-0.5698392959	 1.4221294532	-0.290215
C	-1.335321661	-0.6635645572	 1.4639624117	 0.296467
C	-1.3247560768	-0.5724221022	-0.0894936409	-0.290219
C	-2.0609015831	-1.8030954335	 2.2061619863	-0.198762
O	-2.960895894	-1.1280608164	 3.1233040704	-0.223096
C	-2.7573819641	 0.1895694373	 2.9134467115	 0.118598
N	-1.9108218396	 0.5666126116	 2.049010594	-0.306935
H	-0.5787691604	 1.7512183488	 0.6879679958	 0.292976
H	 0.8238779777	-0.2190837057	-0.7396904518	 0.080143
H	 0.6741467188	-1.5636890959	 1.3784385027	 0.097754
H	 0.6999210244	 0.0280907488	 2.1984063926	 0.109301
H	-2.1115663604	 0.0233758171	-0.5573123321	 0.109301
H	-1.2885163112	-1.5669746308	-0.5453071879	 0.097754
H	-2.6616956693	-2.4358609341	 1.5463813746	 0.124194
H	-1.3881465153	-2.4338008038	 2.7946047273	 0.124195
H	-3.3635544081	 0.8431920438	 3.5307581025	 0.147977
75.9641	117.0279	215.6461	325.0013	348.2807	406.4462	411.6599	487.7364	526.1237	583.4155	792.1219	793.2758	818.3098	851.0013	889.2767	890.7791	953.775	960.1781	962.717	978.9714	984.6465	1071.7909	1118.7903	1130.5301	1150.9002	1194.926	1203.7173	1230.5493	1234.5318	1263.2926	1281.0009	1326.2433	1341.9148	1378.6449	1449.6068	1459.9795	1480.4154	1511.3352	1703.4214	3048.5776	3049.5966	3055.2205	3089.9672	3098.2333	3120.4927	3121.0148	3215.8213	3729.5039
OC1CC2(C1)COC=N2	O[C@H]1C[C@@]2(C1)COC=N2	
InChI=1S/C6H9NO2/c8-5-1-6(2-5)3-9-4-7-6/h4-5,8H,1-3H2	InChI=1S/C6H9NO2/c8-5-1-6(2-5)3-9-4-7-6/h4-5,8H,1-3H2/t5-,6+
