13
gdb 17145	4.34496	1.99066	1.60911	1.3766	65.	-0.2439	0.0115	0.2554	775.6604	0.094574	-361.301587	-361.295384	-361.29444	-361.331775	24.494	
C	-0.0224600642	-1.1487285547	 0.0386542804	-0.377559
C	-0.0298601196	 0.05386724	 0.0526565152	 0.070672
C	-0.047511233	 1.4806902176	 0.0503269552	 0.253497
N	-0.696960938	 2.3341467567	 1.1077188573	-0.376438
C	-0.1569318597	 3.3480251973	 0.1488571482	-0.087868
C	 1.1291744627	 2.5141163337	-0.1140364569	 0.067722
O	 1.0347343028	 2.5879615897	-1.5600618397	-0.319721
C	-0.3501427153	 2.4837120182	-1.1390959736	 0.036713
H	-0.0105989115	-2.2108276147	 0.0304605324	 0.189875
H	-1.7150361644	 2.2711671476	 1.0274594085	 0.218217
H	-0.2575344565	 4.4240517197	 0.2793204295	 0.100716
H	 2.1061981299	 2.5332546568	 0.3647601292	 0.117281
H	-1.1373838732	 2.4643381821	-1.8939683058	 0.106893
142.6165	171.9807	401.8543	442.071	512.9768	531.5574	628.4931	638.4787	666.4615	748.0203	784.4391	816.2288	833.775	894.3069	899.046	934.6325	992.8511	1033.848	1094.5967	1105.9388	1156.2215	1162.3144	1183.0262	1261.9929	1265.6572	1303.9172	1349.1782	2235.043	3115.7183	3139.9184	3153.8653	3412.542	3499.778
C#CC12NC3C1OC23	C#C[C@@]12N[C@H]3[C@@H]1O[C@@H]23	
InChI=1S/C6H5NO/c1-2-6-4-3(7-6)5(6)8-4/h1,3-5,7H	InChI=1S/C6H5NO/c1-2-6-4-3(7-6)5(6)8-4/h1,3-5,7H/t3-,4-,5+,6+
