18
gdb 66998	2.53093	2.02039	1.39517	3.7392	75.13	-0.2334	0.0256	0.259	959.0066	0.149767	-401.966911	-401.959603	-401.958658	-401.99829	29.502	
C	-0.0312129343	 1.4790246393	 0.0287484223	-0.490673
C	-0.0491059403	-0.0270799103	 0.0503097766	 0.21606
C	-0.4744113254	-0.773267907	-1.2364802721	-0.100124
C	-0.1913371644	-2.2718009153	-1.1779422313	-0.250001
C	-0.706423869	-2.2434471482	 0.3035115299	-0.043102
N	 0.3837476764	-1.9713442162	 1.2313986278	-0.311041
C	 0.9386849081	-0.7320935242	 0.9488979469	 0.356684
O	 1.9920509861	-0.3031544245	 1.36555989	-0.382473
C	-1.3145837685	-0.8380690862	 0.0195669066	-0.110872
H	 0.9638601693	 1.837898008	-0.2494595917	 0.142843
H	-0.7575692253	 1.8772384895	-0.686039802	 0.112458
H	-0.26452838	 1.8891978062	 1.0164151696	 0.130049
H	-0.6418567595	-0.1866797333	-2.1318648492	 0.094682
H	-0.87998907	-2.818464054	-1.8284220045	 0.108075
H	 0.8309909784	-2.6318436048	-1.33672887	 0.098476
H	-1.3510796613	-3.0526490967	 0.640960852	 0.088838
H	 1.0152252414	-2.7089374286	 1.5117308145	 0.24429
H	-2.3067217515	-0.4729821838	 0.2503113846	 0.095833
149.2117	171.998	248.6764	270.2435	350.8127	443.9941	474.1339	546.9473	609.9821	663.5814	700.2394	727.5939	818.5927	843.2792	863.0123	880.1312	887.1306	930.963	976.3349	998.7388	1031.7173	1064.8557	1083.6827	1102.1642	1123.1773	1156.243	1180.8486	1213.1038	1251.8349	1267.8336	1323.3181	1347.4228	1385.5939	1413.3361	1419.6205	1484.2342	1490.5272	1500.7909	1825.9091	3038.6983	3039.6852	3098.6424	3105.5225	3115.8997	3132.5925	3183.6903	3201.4345	3602.2847
CC12C3CC(NC1=O)C23	C[C@@]12[C@H]3C[C@@H](NC1=O)[C@@H]23	
InChI=1S/C7H9NO/c1-7-3-2-4(5(3)7)8-6(7)9/h3-5H,2H2,1H3,(H,8,9)	InChI=1S/C7H9NO/c1-7-3-2-4(5(3)7)8-6(7)9/h3-5H,2H2,1H3,(H,8,9)/t3-,4+,5-,7-/m0/s1
