18
gdb 14061	3.28253	1.59862	1.43624	3.1277	68.05	-0.2384	0.0626	0.301	957.2667	0.152825	-384.893947	-384.885675	-384.884731	-384.926518	30.395	
C	-0.0439772764	 1.5562866366	-0.0555550409	-0.419482
C	 0.0450321168	 0.0463751782	-0.0190801066	-0.129677
C	 1.387865879	-0.6596936635	-0.1170400069	 0.015662
O	 2.5721903477	 0.0852157888	-0.1165456572	-0.417494
C	 0.6365577984	-0.6622977225	 1.1709996552	 0.263184
C	 1.1156560303	-0.0837424114	 2.4974037972	-0.130638
O	 0.6215272642	-1.2476021179	 3.2022057087	-0.278239
C	 0.1164997071	-1.8395854512	 1.9861921174	-0.14405
H	 0.8663088263	 2.0115410136	 0.3431593851	 0.130813
H	-0.1776128351	 1.918047163	-1.0812385649	 0.114282
H	-0.8916590322	 1.9193548084	 0.5349797556	 0.123098
H	-0.7792914512	-0.4742250755	-0.503749446	 0.084138
H	 1.4317400399	-1.5920323254	-0.6825656237	 0.085159
H	 2.689896395	 0.466162708	-0.9933077914	 0.291285
H	 2.2006911317	 0.034145166	 2.595005149	 0.116907
H	 0.6188124649	 0.8365950338	 2.8316003796	 0.09755
H	-0.9757613383	-1.9575704484	 2.0096656081	 0.097087
H	 0.5782312119	-2.8140807106	 1.7768833017	 0.100413
97.1269	164.6383	174.7275	189.3621	235.4948	250.8436	318.2219	429.055	473.8145	578.7722	605.1293	783.0027	832.8126	871.7166	954.3571	960.2744	980.4134	1024.4171	1028.539	1065.2806	1109.1966	1132.4652	1148.3883	1152.6088	1163.7567	1174.8878	1215.6008	1277.473	1303.0157	1316.3482	1371.432	1387.1121	1414.2429	1485.6771	1499.1237	1509.6046	1513.9984	1537.8232	2993.1006	3011.958	3032.8395	3034.7472	3062.8044	3083.4771	3089.9422	3112.0493	3127.3077	3803.4022
CC1C(O)C11COC1	C[C@H]1[C@@H](O)C21COC2	
InChI=1S/C6H10O2/c1-4-5(7)6(4)2-8-3-6/h4-5,7H,2-3H2,1H3	InChI=1S/C6H10O2/c1-4-5(7)6(4)2-8-3-6/h4-5,7H,2-3H2,1H3/t4-,5+/m0/s1
