18
gdb 67268	2.69989	2.19533	1.74289	0.9631	73.84	-0.2222	0.0728	0.295	852.9538	0.15049	-401.88101	-401.874722	-401.873777	-401.911142	27.249	
O	-0.0699347969	 1.3849361908	 0.1160570946	-0.488311
C	 0.0838157716	 0.0114783852	 0.0313201713	 0.393682
C	-1.2534685157	-0.8436848678	 0.0595585565	-0.088355
C	-1.1588169245	-0.9977113118	-1.4805201836	-0.2513
C	 0.3440357176	-0.8659097161	-1.2348096973	-0.072078
N	 0.7487518969	-1.9387099266	-0.2220235206	-0.162088
C	-0.5553952375	-2.0938359373	 0.5973664819	 0.012207
C	 0.2121931991	-1.6796885432	 1.8684655439	-0.255607
C	 1.0379679509	-0.8856158805	 0.8569649513	-0.076625
H	 0.7746689528	 1.8003909185	-0.0887594454	 0.283789
H	-2.1521736267	-0.4796123249	 0.5562200923	 0.074811
H	-1.5438693874	-1.9157473198	-1.9347484512	 0.097396
H	-1.5499223302	-0.1225333188	-2.0052247439	 0.111667
H	 1.0891382989	-0.6972393139	-2.012243779	 0.069347
H	-1.0774189259	-3.0489302489	 0.5231141023	 0.072144
H	-0.3320106359	-1.1403572941	 2.6479844516	 0.100841
H	 0.7788589272	-2.5087981615	 2.2979260544	 0.112394
H	 2.0731862859	-0.5770576693	 1.0176486708	 0.066084
243.1844	302.9184	342.0745	356.6124	436.9196	491.6398	606.4781	678.793	708.3977	785.0219	792.2205	822.5339	875.8923	905.7826	908.8315	942.5288	956.0269	972.7689	992.5249	1002.6061	1017.351	1055.7076	1068.6421	1094.3708	1102.7206	1146.4743	1174.0166	1186.5637	1219.5381	1236.3723	1241.3524	1255.3484	1263.2922	1286.7371	1305.838	1328.4379	1390.8882	1482.0009	1484.044	3053.3809	3062.7817	3091.8796	3100.3143	3115.0621	3116.4588	3124.9662	3126.1607	3803.0999
OC12C3CC1N1C3CC21	O[C@@]12[C@H]3C[C@@H]1N1[C@H]3C[C@H]21	
InChI=1S/C7H9NO/c9-7-3-1-5(7)8-4(3)2-6(7)8/h3-6,9H,1-2H2	InChI=1S/C7H9NO/c9-7-3-1-5(7)8-4(3)2-6(7)8/h3-6,9H,1-2H2/t3-,4-,5-,6+,7-/m0/s1
