22
gdb 121479	4.98571	0.58128	0.54912	2.7428	92.01	-0.2236	0.0245	0.2481	2115.5413	0.19167	-404.3389	-404.328256	-404.327312	-404.37665	37.476	
C	 0.0059750011	 1.5264320176	 0.047168302	-0.384308
C	 0.0012207069	 0.0125879806	 0.148612989	-0.052133
O	-1.3111816483	-0.4453078098	-0.1865068372	-0.208349
C	-1.4963970975	-1.7797568819	-0.1461960718	 0.117416
N	-2.6202272466	-2.2800221174	-0.4160191501	-0.215325
C	-2.7571155815	-3.6921738764	-0.3600742363	 0.057447
C	-4.0778752766	-4.2461215987	 0.1356809196	-0.309406
C	-3.7203928628	-4.3638292009	-1.3229425486	-0.011457
C	-4.4624025815	-3.5668328356	-2.3715058851	-0.400391
H	 0.9968063129	 1.9167325913	 0.2971493719	 0.119936
H	-0.2486132143	 1.8441368266	-0.9674586602	 0.135747
H	-0.7239429576	 1.9596346721	 0.7361929333	 0.135876
H	 0.7356522766	-0.4272460963	-0.5403657195	 0.106769
H	 0.2588652897	-0.3112607528	 1.1665417581	 0.106996
H	-0.6038422881	-2.3594271967	 0.1360897323	 0.072707
H	-1.8611743498	-4.2613522466	-0.0983332803	 0.066061
H	-4.0615916645	-5.13101092	 0.7626719591	 0.105639
H	-4.8261577301	-3.5088595415	 0.405323678	 0.119857
H	-3.4044944524	-5.3528788861	-1.6461891676	 0.079739
H	-4.6861331591	-2.5616135138	-2.0083886124	 0.138892
H	-3.8661962152	-3.4638526068	-3.2851328718	 0.110202
H	-5.4043490613	-4.0578314767	-2.6403198324	 0.108085
16.6993	51.3026	95.9276	119.0317	192.4166	204.3257	227.9829	253.089	291.7369	346.5834	375.3724	510.948	525.4808	604.2502	762.9722	816.58	831.0567	863.7752	916.733	934.075	970.0816	998.177	1034.4428	1060.706	1069.7272	1106.9925	1138.1055	1143.7109	1182.7071	1192.8515	1196.9925	1227.745	1253.1539	1301.0691	1367.9535	1387.5953	1401.4152	1419.8252	1420.1128	1444.2636	1483.5437	1484.8623	1495.7115	1499.1517	1502.7706	1523.2688	1768.3942	2987.2851	3004.0138	3031.2075	3036.1035	3049.259	3053.7032	3086.1964	3122.1539	3124.4035	3129.1892	3132.5359	3139.2889	3222.53
CCOC=NC1CC1C	CCOC=N[C@H]1C[C@H]1C	
InChI=1S/C7H13NO/c1-3-9-5-8-7-4-6(7)2/h5-7H,3-4H2,1-2H3	InChI=1S/C7H13NO/c1-3-9-5-8-7-4-6(7)2/h5-7H,3-4H2,1-2H3/t6-,7+/m1/s1
