13
gdb 49465	3.21412	1.29141	1.16402	4.459	58.88	-0.268	-0.046	0.2219	1034.2819	0.088688	-493.72592	-493.71879	-493.717846	-493.75831	25.718	
O	 0.0081452562	-0.0343586813	-0.3012850479	-0.253609
C	-0.0029700385	 1.0999925518	 0.1065921714	 0.159334
C	 1.2129608149	 1.9610276293	 0.0963644467	-0.193215
C	 1.1782562359	 3.4663916006	-0.1671201163	 0.031203
O	-0.0606279602	 4.1192319842	-0.0227297067	-0.236113
C	-0.4497654839	 4.0800752574	 1.2892928869	 0.50249
O	-1.4503806866	 4.5460065955	 1.7177254142	-0.350776
O	 0.4748286892	 3.3872984962	 2.023827618	-0.236101
C	 1.5329565589	 2.9815177496	 1.1886187243	 0.031219
H	-0.9289015213	 1.5540027093	 0.5109448451	 0.112321
H	 2.0884910868	 1.464605866	-0.3101890898	 0.134824
H	 1.8343247515	 3.9325917656	-0.8894601441	 0.149207
H	 2.5028171071	 3.0187342457	 1.665615918	 0.149217
90.984	100.0983	175.9659	222.6281	431.3668	435.6222	531.254	604.3151	733.5594	769.7671	770.1187	785.145	821.1288	895.4627	988.6819	1000.9334	1023.2616	1055.7313	1072.8367	1113.8651	1133.173	1150.683	1193.9131	1325.8788	1349.8719	1394.7617	1457.6793	1813.5737	1946.177	2937.3143	3176.2854	3209.677	3217.8826
O=CC1C2OC(=O)OC12	O=C[C@H]1[C@H]2OC(=O)O[C@@H]12	
InChI=1S/C5H4O4/c6-1-2-3-4(2)9-5(7)8-3/h1-4H	InChI=1S/C5H4O4/c6-1-2-3-4(2)9-5(7)8-3/h1-4H/t2-,3+,4-
