25
gdb 117662	2.65998	0.95252	0.85392	0.4666	85.69	-0.248	0.0717	0.3197	1532.5752	0.22513	-426.622342	-426.610506	-426.609561	-426.658898	43.356	
C	-0.0720052854	 1.4165998178	 0.0049637069	-0.226029
O	 0.0144284283	 0.0136085757	-0.0032452223	-0.241927
C	-1.2522262866	-0.6151153795	 0.024426575	-0.068616
C	-1.0722205	-2.1452395277	 0.0377342731	 0.229843
C	-0.3375468481	-2.5713431315	-1.2469621108	-0.426509
C	-0.2464040754	-2.544557222	 1.2743152984	-0.434134
C	-2.5001120654	-2.7659590892	 0.0740112353	 0.121417
C	-2.5483394673	-4.2924405234	-0.0192026027	-0.429608
O	-3.2445268737	-2.3159430907	 1.2080327263	-0.440416
H	 0.9478296091	 1.8097638277	-0.0073528846	 0.123172
H	-0.6105432175	 1.7990832539	-0.8771008333	 0.102225
H	-0.5868267223	 1.7895403365	 0.9047698762	 0.103434
H	-1.8192900527	-0.2992425021	 0.9115138591	 0.100289
H	-1.8385548714	-0.3174892786	-0.8631731391	 0.075526
H	 0.5690396937	-1.974658179	-1.3704297996	 0.13355
H	-0.0500246001	-3.6261580078	-1.2200285547	 0.108761
H	-0.9651592689	-2.4142331919	-2.132397133	 0.104554
H	-0.7580592925	-2.2692331334	 2.2035121127	 0.099229
H	-0.0434174025	-3.6196078001	 1.2983672096	 0.107398
H	 0.7110598699	-2.0195620142	 1.2664865663	 0.137105
H	-3.0506735242	-2.355283711	-0.7828574212	 0.082809
H	-2.0096647176	-4.7635120809	 0.811215001	 0.111273
H	-3.590168205	-4.6213213433	 0.0255623513	 0.124343
H	-2.1128894683	-4.6599685299	-0.9516329395	 0.123445
H	-2.9196126461	-2.7928497655	 1.9788449899	 0.278865
65.6549	90.4723	112.0981	143.7699	210.7753	233.3308	244.7955	253.6004	281.9419	284.5267	299.329	325.23	349.3743	359.2542	393.2082	481.2305	499.8298	600.7254	739.9373	848.3581	921.6146	942.4558	962.3101	971.5888	994.6282	1015.3521	1060.8974	1080.4448	1116.6124	1157.8792	1176.4183	1199.3276	1221.5677	1237.9194	1271.2102	1285.3961	1307.4092	1368.5427	1392.2833	1396.1236	1403.6324	1419.9113	1427.587	1480.2911	1481.2644	1485.1642	1494.7897	1495.9851	1501.3702	1504.8371	1507.9201	1518.5121	1531.414	2944.7703	2968.2105	3009.732	3018.4055	3022.1432	3030.606	3034.2995	3039.0079	3096.109	3099.6997	3106.1944	3109.174	3123.0743	3127.4684	3129.5494	3812.2663
COCC(C)(C)C(C)O	COCC(C)(C)[C@@H](C)O	
InChI=1S/C7H16O2/c1-6(8)7(2,3)5-9-4/h6,8H,5H2,1-4H3	InChI=1S/C7H16O2/c1-6(8)7(2,3)5-9-4/h6,8H,5H2,1-4H3/t6-/m1/s1
