15
gdb 128032	5.19113	0.91396	0.78088	2.8965	73.68	-0.2346	-0.0211	0.2135	1403.9314	0.113225	-450.121627	-450.113474	-450.11253	-450.155146	28.775	
C	-0.2394136547	 1.6478965492	-0.1058973647	-0.311969
N	 0.0449022715	 0.2301583826	-0.1076026144	-0.165307
C	-0.9169416723	-0.5606163759	 0.0923966154	 0.083617
N	-0.7907021801	-1.9401210608	 0.1173826425	-0.415192
C	 0.3362200532	-2.7017410452	-0.0597742364	 0.489276
N	 1.5527905536	-2.2631646062	-0.2940023402	-0.189601
O	 2.2884194794	-3.4731340574	-0.3848489295	-0.157929
C	 1.4226491519	-4.4583964695	-0.1949303939	 0.125036
N	 0.2038749644	-4.0776747977	 0.0113897033	-0.337894
H	 0.3659687569	 2.142492897	 0.662265687	 0.13171
H	 0.0538959971	 2.0820210666	-1.0685678061	 0.131716
H	-1.2997417179	 1.8911597426	 0.0767579345	 0.092728
H	-1.9569661596	-0.249768967	 0.2683825772	 0.08617
H	-1.6213509837	-2.4839067883	 0.2851420873	 0.270749
H	 1.8033172504	-5.4690067602	-0.228760442	 0.16689
61.847	115.9722	130.6566	206.7596	279.8	310.1864	364.7821	381.9438	509.8703	611.2498	678.2673	767.0408	790.2649	888.8299	910.1255	968.5883	972.9597	999.2176	1069.1672	1140.8087	1147.8288	1171.1476	1209.7355	1288.8823	1336.1928	1408.1654	1446.1184	1478.1828	1503.1127	1513.8281	1595.8277	1634.9198	1776.3409	2961.1073	3011.9789	3058.6079	3078.5941	3263.7899	3657.5218
CN=CNC1=NOC=N1	CN=CNc1nocn1	
InChI=1S/C4H6N4O/c1-5-2-6-4-7-3-9-8-4/h2-3H,1H3,(H,5,6,8)	InChI=1S/C4H6N4O/c1-5-2-6-4-7-3-9-8-4/h2-3H,1H3,(H,5,6,8)
