13
gdb 48351	4.49317	0.74928	0.67333	3.7976	80.25	-0.282	-0.0698	0.2122	1549.2245	0.088314	-415.571596	-415.563184	-415.56224	-415.605453	29.297	
O	-0.2112807982	 0.3656080904	 0.8058790607	-0.255375
C	 0.1012826788	 1.0630155499	-0.125965771	 0.091533
C	 1.3487769343	 1.9088906725	-0.1009864659	-0.043262
C	 1.5277321772	 2.7218438299	 1.1712190009	-0.240303
N	 2.3490962836	 1.5580853172	 0.9358917696	-0.314792
C	 1.827607352	 2.3974935067	-1.3575966448	-0.017944
C	 2.1799741541	 2.8032779095	-2.4401661002	 0.233702
C	 2.5872477537	 3.2667669022	-3.657380178	 0.191286
N	 2.9294580403	 3.6621677698	-4.694776851	-0.328984
H	-0.5012496102	 1.1253171474	-1.0518792861	 0.115642
H	 2.0307956159	 3.6795951818	 1.0835439327	 0.153316
H	 0.7137369379	 2.6645859041	 1.8887432738	 0.151738
H	 1.9564589807	 0.7629778286	 1.4446315495	 0.263444
70.3132	88.802	153.7031	216.4341	249.9693	268.5624	328.5891	433.5752	495.8464	523.1098	579.7353	591.0968	733.8252	808.0369	853.3319	939.0301	993.712	1015.1634	1060.644	1136.6752	1164.5379	1243.4187	1321.201	1360.287	1423.6299	1493.8958	1807.8226	2266.7077	2396.2675	2960.5479	3117.9927	3219.979	3449.0172
O=CC1(CN1)C#CC#N	O=C[C@]1(CN1)C#CC#N	
InChI=1S/C6H4N2O/c7-3-1-2-6(5-9)4-8-6/h5,8H,4H2	InChI=1S/C6H4N2O/c7-3-1-2-6(5-9)4-8-6/h5,8H,4H2/t6-/m1/s1
