20
gdb 113713	2.03963	1.53074	1.05594	0.6455	81.64	-0.2253	0.038	0.2633	1214.0225	0.168656	-403.071904	-403.062035	-403.061091	-403.106415	36.839	
C	 1.1727118318	 1.533121195	 0.3846680258	-0.381137
C	 0.778075337	 0.0488004657	 0.4497582964	-0.126272
C	-0.6359982076	-0.1115521738	 0.7998266955	 0.337788
C	-1.7851706585	-0.2626367699	 1.1236526635	-0.477818
N	 1.074617543	-0.5598118425	-0.8610234839	-0.097641
C	 2.2705833652	-1.4028498941	-0.9458909267	-0.257589
C	 0.917767943	-1.9932911618	-1.1167537894	 0.014798
C	 0.3427431899	-3.0194139408	-0.1521667259	-0.120102
O	 0.7313368711	-2.8589890744	 1.2015537767	-0.417858
H	 2.236015699	 1.6163908532	 0.1431284294	 0.121073
H	 0.5986814129	 2.0409082976	-0.3934659927	 0.134286
H	 0.9902582063	 2.0245208956	 1.3443037843	 0.118876
H	 1.3639942758	-0.4289353935	 1.2486199015	 0.107024
H	-2.8064918361	-0.3734415271	 1.3942883294	 0.20403
H	 2.9225086571	-1.2297117906	-1.7983011581	 0.111308
H	 2.7799076291	-1.6367222609	-0.012265449	 0.125196
H	 0.5793217848	-2.1877991482	-2.1360088553	 0.089219
H	-0.7509805997	-3.0251033604	-0.2469045426	 0.108259
H	 0.6969327323	-4.0072220988	-0.4748495826	 0.113578
H	 0.0756324035	-2.2861599803	 1.6147175338	 0.292981
74.3887	116.9486	131.1436	191.2442	206.9949	233.8969	243.3939	297.1385	380.8193	429.5577	482.271	518.1921	551.1934	634.5953	651.3434	666.7745	740.3297	765.6453	858.451	928.6026	952.5925	992.4291	1024.5428	1050.36	1100.3745	1107.579	1121.4462	1127.2507	1151.0199	1176.4569	1249.5992	1321.9765	1331.7077	1364.7852	1393.3673	1401.0694	1413.6676	1430.3106	1486.0763	1490.9542	1492.6109	1505.9378	2225.9738	2990.2705	3011.6537	3047.1971	3050.5811	3090.1606	3092.924	3122.6553	3136.7342	3179.2889	3499.1801	3795.8016
CC(C#C)N1CC1CO	C[C@@H](C#C)N1C[C@H]1CO	
InChI=1S/C7H11NO/c1-3-6(2)8-4-7(8)5-9/h1,6-7,9H,4-5H2,2H3	InChI=1S/C7H11NO/c1-3-6(2)8-4-7(8)5-9/h1,6-7,9H,4-5H2,2H3/t6-,7-,8?/m0/s1
