15
gdb 37105	3.86655	1.74092	1.65651	3.0596	67.	-0.2084	0.0096	0.2181	831.1078	0.113915	-416.709097	-416.702781	-416.701837	-416.739227	26.411	
C	 0.2161130785	 1.5237601384	 0.0020176108	-0.353102
C	 1.4822340006	 0.6843824114	-0.051147893	 0.11137
N	 2.0827095202	 0.2207213794	 1.1603447639	-0.329076
C	 1.1141330399	-0.4374429029	 1.9077111236	 0.0426
N	-0.0249431688	-0.6392411361	 1.3456341047	-0.299566
C	 0.0470382654	 0.0445525485	 0.0815447138	 0.219158
C	 0.288034903	-0.71136934	-1.2573167326	-0.025104
O	 0.5900925985	 0.2592154499	-2.2668308626	-0.230999
C	 1.6323744159	-0.1398065063	-1.3746918526	-0.011216
H	 0.0542996471	 2.0693241894	 0.9246967959	 0.1239
H	-0.0801136834	 2.0331539675	-0.9049914333	 0.146724
H	 2.8608334894	 0.6857489656	 1.6011120818	 0.249756
H	 1.3516834273	-0.7628765542	 2.9174366814	 0.130449
H	-0.1453209232	-1.6557247217	-1.5636697109	 0.114898
H	 2.5543189497	-0.5178462087	-1.8014939308	 0.110208
239.3028	295.3525	360.0043	386.5914	415.636	469.5572	546.8689	574.6874	639.5821	662.3359	835.9029	840.9307	845.2757	853.1333	911.1548	920.3674	944.0605	968.2187	1007.1813	1034.0749	1069.2023	1101.9411	1128.7979	1178.682	1187.9672	1265.7989	1275.3389	1297.3124	1339.1781	1377.5611	1387.6211	1441.9115	1624.2764	3151.606	3176.9963	3178.6454	3196.6927	3250.2898	3622.6818
C1C23NC=NC12C1OC31	C1[C@@]23NC=N[C@@]12[C@H]1O[C@@H]31	
InChI=1S/C6H6N2O/c1-5-3-4(9-3)6(1,5)8-2-7-5/h2-4H,1H2,(H,7,8)	InChI=1S/C6H6N2O/c1-5-3-4(9-3)6(1,5)8-2-7-5/h2-4H,1H2,(H,7,8)/t3-,4+,5+,6-
