21
gdb 62038	3.91649	0.68737	0.60984	4.4569	84.46	-0.2438	0.0377	0.2815	1819.8225	0.181885	-383.257565	-383.247608	-383.246664	-383.293457	35.684	
C	-0.282493424	 1.6154839788	 0.0175625656	-0.391107
C	-0.0037904273	 0.0987651666	 0.0422099581	-0.143755
C	 0.8450204074	-0.3582072154	 1.2520059295	-0.179247
C	 2.2732221622	 0.1914339165	 1.2362072693	-0.158583
N	 3.0154586259	-0.3180927829	 2.3815007802	-0.059928
C	 3.7227577313	-1.5807318632	 2.1885131388	-0.220548
C	 4.4692296112	-0.2951897494	 2.2756438751	-0.221431
C	-1.2698134361	-0.6429295289	 0.0190752941	 0.265728
N	-2.2689345575	-1.2241221473	 0.0097346204	-0.323342
H	 0.6518631047	 2.1741820555	-0.0724328112	 0.12952
H	-0.9198999789	 1.8797717086	-0.8295911044	 0.138831
H	-0.7870661993	 1.9291103801	 0.9359138719	 0.139319
H	 0.5323099092	-0.1710644659	-0.8779641649	 0.124823
H	 0.3508913184	-0.0577169126	 2.181848325	 0.127455
H	 0.8886689404	-1.4525504709	 1.2596282193	 0.121082
H	 2.7608592301	-0.0667844832	 0.2758598571	 0.078061
H	 2.2677837912	 1.2847573125	 1.3083029903	 0.110394
H	 3.7038039355	-2.2690590845	 3.0281746594	 0.122423
H	 3.6655582893	-2.0540494719	 1.2089147482	 0.10972
H	 4.908977895	 0.0854767355	 1.3548358978	 0.109663
H	 5.0051129314	-0.0255064081	 3.1810356002	 0.120922
49.253	73.421	103.5596	136.598	190.2419	214.4461	260.0325	294.4015	372.2743	399.8942	423.1477	558.1318	588.258	762.3357	784.7501	829.2655	847.289	901.3834	929.3896	975.3158	1014.9031	1034.8877	1060.7642	1086.9307	1113.5687	1118.5164	1123.5586	1155.9709	1177.2353	1192.423	1250.339	1289.9516	1318.6908	1328.0499	1338.7693	1357.403	1409.9528	1413.9385	1483.0861	1491.1071	1496.1544	1499.7896	1504.5073	1523.2178	2356.1892	2912.5298	3019.5308	3047.5695	3051.8371	3059.2878	3091.6107	3095.628	3096.6143	3127.1142	3132.7678	3178.2448	3192.3417
CC(CCN1CC1)C#N	C[C@@H](CCN1CC1)C#N	
InChI=1S/C7H12N2/c1-7(6-8)2-3-9-4-5-9/h7H,2-5H2,1H3	InChI=1S/C7H12N2/c1-7(6-8)2-3-9-4-5-9/h7H,2-5H2,1H3/t7-/m0/s1
