18
gdb 94405	2.56467	1.39649	1.23883	3.9128	72.53	-0.2327	0.0162	0.2488	1103.0307	0.147392	-439.086526	-439.077834	-439.076889	-439.120492	31.625	
C	-0.3272976692	 1.4420452554	 0.0105237327	-0.413868
C	 0.0674322477	-0.0238963534	-0.0791236581	-0.109488
C	 1.3664807108	-0.3650448929	-0.8433215703	-0.08682
O	 1.9636055921	-0.9302848402	 0.3469702307	-0.308935
C	 0.7982538898	-0.6706069094	 1.1225232168	 0.287843
C	 0.985009694	-0.0158780317	 2.5251656806	-0.228245
N	 0.2961397863	-1.1855853627	 3.0805987336	-0.339984
C	 0.1414323189	-1.8591083467	 1.8932862892	 0.38107
O	-0.3394867546	-2.9195148111	 1.5986032589	-0.364929
H	 0.5143058302	 2.0659068777	 0.3301967592	 0.121803
H	-0.6623277572	 1.8088448882	-0.9655455684	 0.124848
H	-1.1494381807	 1.5923381052	 0.7180705624	 0.124962
H	-0.7819185859	-0.6330480764	-0.3987348371	 0.104911
H	 1.2741397912	-1.1078434	-1.642504695	 0.116015
H	 1.9380360652	 0.4964779955	-1.2105546779	 0.100968
H	 2.0373398407	 0.070241809	 2.8124115986	 0.124197
H	 0.4689950658	 0.9350999646	 2.6895054601	 0.112028
H	 0.030824355	-1.4235540811	 4.0242925938	 0.253624
50.1445	97.6577	147.278	200.8264	249.9984	265.8536	315.2957	392.6585	468.6426	505.431	625.7602	704.0317	769.2173	790.4656	893.0314	904.2723	913.3619	939.1186	996.747	1022.5685	1071.8985	1123.3352	1139.4283	1153.5396	1162.888	1172.3855	1193.0781	1245.4725	1273.5002	1295.4024	1340.092	1379.3921	1384.994	1413.7011	1496.8368	1497.6909	1519.5002	1524.7991	1895.4282	3019.8634	3030.653	3043.8194	3067.9336	3081.1686	3095.0518	3099.6883	3104.6705	3619.0379
CC1COC11CNC1=O	C[C@H]1CO[C@]21CNC2=O	
InChI=1S/C6H9NO2/c1-4-2-9-6(4)3-7-5(6)8/h4H,2-3H2,1H3,(H,7,8)	InChI=1S/C6H9NO2/c1-4-2-9-6(4)3-7-5(6)8/h4H,2-3H2,1H3,(H,7,8)/t4-,6-/m0/s1
