17
gdb 117430	4.66336	0.6763	0.67026	3.1195	70.93	-0.2335	-0.0109	0.2226	1714.9448	0.134291	-455.168072	-455.158137	-455.157193	-455.205089	33.323	
C	-0.171289797	 1.3853117711	-0.2276139736	-0.309711
N	-0.0790987778	-0.0547995675	-0.0489979193	-0.286092
C	-1.3329159705	-0.6734092264	 0.3158616264	-0.252087
C	-1.2677874103	-2.1660521661	 0.0873947901	 0.458721
O	-0.5003662762	-2.7283990994	-0.646717906	-0.346139
O	-2.2318680643	-2.8048439597	 0.8054074228	-0.234681
C	-2.3229124191	-4.2161971403	 0.5943282796	-0.200598
C	-3.2122432476	-4.5337838574	-0.5283229379	 0.267592
N	-3.9211212263	-4.7933697941	-1.4019907998	-0.290709
H	 0.7961018801	 1.7723446788	-0.5583726706	 0.126395
H	-0.9395039775	 1.7021668097	-0.9564470765	 0.097964
H	-0.4098281277	 1.863375944	 0.7296243768	 0.123573
H	 0.2791840818	-0.5086808705	-0.8820335584	 0.23742
H	-1.5784346597	-0.4794891357	 1.3667455933	 0.136711
H	-2.205640794	-0.3153474298	-0.269674383	 0.119554
H	-1.3321185676	-4.6346913148	 0.4005187673	 0.183607
H	-2.7319095465	-4.636265072	 1.5154752489	 0.16848
26.8379	45.8947	92.8349	96.6974	172.337	245.2152	256.5158	314.7947	350.9912	365.8173	408.2683	591.1043	613.7245	702.7439	773.1275	889.0804	929.0954	991.0653	1009.0865	1037.4389	1056.2419	1149.651	1156.8172	1188.4845	1221.635	1255.1516	1300.1355	1374.1559	1405.535	1457.9616	1461.2407	1483.6191	1487.6366	1507.8171	1518.5758	1836.6944	2369.3833	2891.2467	2941.3261	3052.6148	3054.5959	3079.1031	3110.8812	3133.3469	3540.6294
CNCC(=O)OCC#N	CNCC(=O)OCC#N	
InChI=1S/C5H8N2O2/c1-7-4-5(8)9-3-2-6/h7H,3-4H2,1H3	InChI=1S/C5H8N2O2/c1-7-4-5(8)9-3-2-6/h7H,3-4H2,1H3
