21
gdb 82469	2.63028	1.65335	1.49499	1.2641	81.48	-0.2399	0.0798	0.3197	1016.0413	0.184372	-387.06021	-387.052587	-387.051643	-387.091627	32.061	
C	-0.0554149098	 1.5280656237	 0.0273906739	-0.434045
C	 0.0990206434	 0.0083213564	 0.0315104733	 0.072369
C	 1.0645103027	-0.6214536717	-1.0050712247	-0.066848
C	 2.4384374153	 0.012919392	-0.6455965647	-0.313995
C	 2.2690426648	-0.8239086344	 0.6266094201	 0.438313
O	 3.2575130175	-1.0557552145	 1.5739199515	-0.490379
C	 1.4980944962	-1.922679494	-0.1935061294	-0.101186
C	 0.5637386537	-2.1336479513	 1.0066996572	-0.256115
C	 0.8195192728	-0.6219474594	 1.2489010699	-0.083668
H	 0.8722517228	 2.0497705415	 0.2760788567	 0.120828
H	-0.3910126614	 1.8881140847	-0.9518482057	 0.110886
H	-0.8046645637	 1.8328844579	 0.7659158607	 0.113064
H	-0.9000649521	-0.4313307911	-0.0729970905	 0.065095
H	 0.7359556817	-0.6860007991	-2.0415462292	 0.0604
H	 3.2406451965	-0.4038389231	-1.2659687852	 0.083404
H	 2.5426576174	 1.0997995961	-0.6020049034	 0.092883
H	 4.0484862374	-1.361190637	 1.116987267	 0.278562
H	 1.993088727	-2.7216677335	-0.7466190983	 0.059149
H	-0.4696949651	-2.4602251444	 0.8548555252	 0.084224
H	 1.0486964756	-2.7625872815	 1.7572576965	 0.104182
H	 0.6935189373	-0.1612620075	 2.2287940491	 0.062875
158.4955	199.6704	278.0242	302.7416	344.4442	365.0516	457.824	464.2908	503.541	598.4582	659.6262	704.115	788.8585	801.3894	846.0303	890.3374	910.0257	924.2524	949.3978	985.7559	992.4376	1011.6279	1035.6641	1057.781	1068.8294	1096.0452	1121.4169	1129.7235	1140.156	1174.2969	1178.8541	1220.6564	1228.3148	1245.7798	1264.8862	1290.1047	1308.3046	1336.9082	1373.4894	1395.2232	1412.5624	1490.5043	1495.5565	1498.2653	1519.8934	3024.6822	3032.516	3039.1581	3048.4912	3090.7235	3097.1973	3106.7393	3110.1223	3115.5614	3118.5986	3123.0911	3803.3944
CC1C2CC3(O)C2CC13	C[C@H]1[C@H]2C[C@]3(O)[C@H]2C[C@H]13	
InChI=1S/C8H12O/c1-4-5-3-8(9)6(4)2-7(5)8/h4-7,9H,2-3H2,1H3	InChI=1S/C8H12O/c1-4-5-3-8(9)6(4)2-7(5)8/h4-7,9H,2-3H2,1H3/t4-,5+,6+,7-,8+/m0/s1
