18
gdb 61179	3.26359	0.88798	0.80984	4.7818	77.14	-0.255	-0.0054	0.2496	1431.4956	0.14601	-398.134472	-398.124446	-398.123502	-398.16983	35.132	
C	 0.1868116516	 1.5860469351	-0.0280762157	-0.404921
C	-0.045036591	 0.0576353767	 0.0148805475	-0.115706
C	 0.6786910632	-0.5230455644	 1.1603739699	 0.29353
N	 1.2623612854	-0.9480110373	 2.0619238684	-0.317472
N	-1.4381187442	-0.397221251	 0.0452592739	-0.061225
C	-2.2180046849	 0.0445903511	 1.1980580869	-0.359065
C	-2.120494202	-0.193034553	-1.2234659975	-0.295697
C	-3.3170096871	-1.038505559	-1.3332911916	 0.284655
N	-4.2679963237	-1.6866436285	-1.4282098429	-0.298846
H	 1.2561598851	 1.8012874255	-0.0964336798	 0.147641
H	-0.304695869	 2.0197822951	-0.903372312	 0.129719
H	-0.2007100971	 2.0720437269	 0.8699362736	 0.146755
H	 0.4055176944	-0.3806243151	-0.8849822457	 0.134657
H	-2.4538944588	 1.1218886046	 1.1844822124	 0.107928
H	-3.1600253897	-0.5091046106	 1.2223246289	 0.157813
H	-1.6696690208	-0.1831524162	 2.1149382863	 0.156443
H	-2.4370040574	 0.8518479526	-1.3989276765	 0.13789
H	-1.4442613041	-0.4617476626	-2.043015216	 0.155899
58.5858	79.872	123.5204	188.1254	207.1733	228.4725	249.2738	256.635	354.6151	380.3769	389.1183	434.3825	486.2294	574.0229	654.3912	791.4951	853.3709	944.1911	963.2152	998.0748	1059.8435	1077.8293	1121.8171	1155.8554	1198.9454	1230.9541	1316.5498	1326.4219	1369.1504	1402.6551	1409.606	1464.5059	1476.8913	1487.6467	1492.3415	1499.5502	1516.2206	2363.9385	2368.3577	2935.7103	2968.5698	3029.9748	3052.4116	3063.1948	3089.4135	3126.0773	3133.0518	3138.4548
CC(C#N)N(C)CC#N	C[C@@H](C#N)N(C)CC#N	
InChI=1S/C6H9N3/c1-6(5-8)9(2)4-3-7/h6H,4H2,1-2H3	InChI=1S/C6H9N3/c1-6(5-8)9(2)4-3-7/h6H,4H2,1-2H3/t6-/m0/s1
