17
gdb 37530	3.71689	1.9116	1.67862	0.482	68.71	-0.2384	0.077	0.3154	827.9288	0.139973	-421.784651	-421.779098	-421.778154	-421.814359	24.119	
C	-0.0060633392	 1.5434455191	-0.0205738107	-0.096017
O	 1.3355765763	 2.0220857308	 0.1469001902	-0.27777
C	 2.1436154642	 0.8780174795	 0.3289886731	 0.123673
C	 2.3074974199	-0.0591573048	-0.8892332555	-0.124427
C	 2.0837529083	-1.3054071127	 0.0031662628	 0.083154
O	 1.1445011182	-1.891671011	-0.9108434295	-0.293399
C	 0.8437388547	-0.5149140329	-1.2621320108	 0.072992
C	 0.1021918787	 0.0154755393	-0.01274118	-0.058306
C	 1.3067536277	-0.2819962365	 0.9284796954	-0.129158
H	-0.6318954476	 1.9135478688	 0.8022750229	 0.102863
H	-0.4188549911	 1.9298556261	-0.9614741031	 0.102607
H	 3.071868498	 1.1585273594	 0.827150073	 0.085331
H	 3.058879297	 0.0272926785	-1.6706269419	 0.079162
H	 2.8321486632	-1.9808921291	 0.4112633761	 0.088241
H	 0.3961373127	-0.3922509885	-2.2477054307	 0.084626
H	-0.8311304885	-0.5098401118	 0.18851949	 0.082348
H	 1.1391820675	-0.4169050541	 1.9941065286	 0.07408
210.6045	337.3518	422.0886	538.6049	634.9918	653.3479	770.3549	791.0268	810.4188	831.671	846.7767	875.0622	897.7317	931.1029	949.6391	966.156	972.9759	982.6486	1005.5431	1035.961	1065.6844	1097.0075	1104.8144	1144.4366	1159.5573	1171.8489	1203.7018	1208.3762	1233.1598	1256.0612	1270.6058	1297.5647	1308.7395	1327.8319	1339.1711	1396.9891	1524.9953	3008.7195	3042.3278	3118.6073	3120.577	3128.8669	3142.0133	3148.4281	3156.9928
C1OC2C3C4OC3C1C24	C1O[C@@H]2[C@H]3[C@@H]4O[C@H]3[C@H]1[C@H]24	
InChI=1S/C7H8O2/c1-2-3-6(8-1)4-5(2)9-7(3)4/h2-7H,1H2	InChI=1S/C7H8O2/c1-2-3-6(8-1)4-5(2)9-7(3)4/h2-7H,1H2/t2-,3-,4+,5+,6+,7-/m1/s1
