17
gdb 67896	2.45444	1.83493	1.34882	3.9528	71.43	-0.2353	-0.0222	0.213	981.9355	0.134215	-421.783413	-421.775749	-421.774804	-421.815393	30.109	
C	-0.0286075689	 1.5492454761	-0.0137704577	-0.49596
C	 0.0076500225	 0.0392126581	 0.0221601806	 0.309493
C	-1.3109875978	-0.7545270128	 0.2801480333	-0.413854
C	-0.5983523396	-1.5142177985	 1.4197976092	 0.442444
O	-0.953065709	-2.3246432013	 2.222319442	-0.301134
C	 0.7257785084	-0.7509182845	 1.1871365899	-0.257373
C	 1.6652285872	-1.3739208458	 0.1228139487	 0.025634
O	 0.8571952949	-2.0626621035	-0.8412237902	-0.239657
C	 0.9993996593	-0.6441398317	-0.9663860176	-0.02642
H	 0.9826225289	 1.9717564825	-0.023407342	 0.122205
H	-0.5465273458	 1.9094899899	-0.9106245274	 0.126039
H	-0.55125668	 1.9545932696	 0.8588308759	 0.124581
H	-2.1306881416	-0.131910873	 0.6542172074	 0.126438
H	-1.6794711888	-1.3877746819	-0.5294249605	 0.139435
H	 1.2079043408	-0.2550170299	 2.0302701005	 0.0958
H	 2.6844313351	-1.7193647873	 0.2479864927	 0.116697
H	 1.3728145644	-0.2646309161	-1.9119623647	 0.105631
85.7461	227.8139	231.1193	253.4021	301.053	343.3626	433.5249	499.085	566.5828	608.4781	655.3839	775.0629	800.0345	822.3659	850.595	865.6863	899.8821	944.2691	953.2114	1001.42	1038.7911	1053.3706	1085.0158	1093.1883	1152.4874	1190.1296	1202.1554	1209.764	1240.3766	1247.2614	1320.723	1376.935	1413.7005	1425.3205	1491.0127	1495.296	1895.263	3022.6882	3056.218	3084.9836	3096.8086	3117.5519	3124.4393	3168.7946	3193.2509
CC12CC(=O)C1C1OC21	C[C@]12CC(=O)[C@H]1[C@H]1O[C@@H]21	
InChI=1S/C7H8O2/c1-7-2-3(8)4(7)5-6(7)9-5/h4-6H,2H2,1H3	InChI=1S/C7H8O2/c1-7-2-3(8)4(7)5-6(7)9-5/h4-6H,2H2,1H3/t4-,5+,6+,7-/m0/s1
