12
gdb 20624	3.57711	1.97268	1.28161	3.918	66.88	-0.2581	-0.0627	0.1954	875.3237	0.082222	-377.474712	-377.467515	-377.466571	-377.506382	25.673	
C	 0.0027390515	 1.5087687107	 0.1209823551	-0.508481
C	 0.0303684345	 0.0263419965	-0.0001825468	 0.130511
C	 0.0055794207	-0.7830798282	-1.1044637445	 0.246065
O	 0.0494294197	-2.063444293	-0.6912274386	-0.217116
N	 0.102802108	-2.0242353705	 0.7216738806	-0.018528
N	 0.0904115622	-0.81804554	 1.0852127434	-0.155419
C	-0.0533318228	-0.4996105055	-2.4788742443	 0.272805
C	-0.1039809927	-0.2350498441	-3.6517345539	-0.415649
H	 0.8980162957	 1.8755312307	 0.6326795291	 0.15332
H	-0.0458629316	 1.9697084901	-0.8677308519	 0.144524
H	-0.8651190842	 1.8370327098	 0.7014327492	 0.153326
H	-0.1484438211	-0.0076342165	-4.6887470375	 0.214641
94.7018	138.9432	170.0901	272.179	317.659	457.9974	515.0755	598.5867	617.0192	686.6111	689.214	691.819	743.6631	744.5348	993.017	1025.5381	1067.7666	1184.8766	1222.551	1373.6587	1417.8371	1450.4272	1478.0826	1486.9369	1626.8976	2240.7653	3045.9958	3104.4002	3136.3035	3497.9476
CC1=C(ON=N1)C#C	Cc1c(onn1)C#C	
InChI=1S/C5H4N2O/c1-3-5-4(2)6-7-8-5/h1H,2H3	InChI=1S/C5H4N2O/c1-3-5-4(2)6-7-8-5/h1H,2H3
