19
gdb 97977	7.33059	0.45042	0.44569	1.31	81.97	-0.2501	0.0343	0.2845	2402.0295	0.15714	-422.966547	-422.956254	-422.95531	-423.004577	35.081	
O	 0.1033013291	 1.0647628963	-0.8372265494	-0.403136
C	-0.0057123852	 0.1401750562	 0.2378035336	-0.192226
C	-1.3234088996	-0.4855886561	 0.3400524189	 0.110438
C	-2.4326764228	-0.9496671551	 0.4218876556	-0.002375
C	-3.7569744517	-1.5533667157	 0.5002385725	-0.348602
C	-3.8715461714	-2.8716621619	-0.2963185536	-0.208751
C	-5.2592226556	-3.4550753553	-0.2051703826	 0.091965
C	-5.5025690989	-4.8971950616	-0.0857203792	-0.181028
O	-5.620138342	-4.0400689447	 1.0511820417	-0.236898
H	-0.6375591296	 1.6753941994	-0.7644661499	 0.286041
H	 0.7609595055	-0.6204325361	 0.0520542328	 0.137856
H	 0.247878387	 0.6149707799	 1.1994395528	 0.116251
H	-4.0163079382	-1.752883113	 1.5471412682	 0.149229
H	-4.5059432156	-0.8387362305	 0.1326851753	 0.127191
H	-3.6197936757	-2.6877200497	-1.3471897703	 0.114876
H	-3.1452369477	-3.5928287612	 0.0913582584	 0.116092
H	-6.052634012	-2.8457491426	-0.6443052443	 0.091752
H	-6.4364299503	-5.323011317	-0.4501280293	 0.115929
H	-4.6562457453	-5.5829148114	-0.068255091	 0.115398
16.9295	46.911	76.5636	90.4681	140.8555	198.9463	255.2291	316.092	344.7464	382.2132	454.5843	499.3197	565.1789	753.6485	780.467	811.1918	876.293	945.5959	987.7739	997.3326	1028.0151	1044.5242	1098.9581	1118.7591	1157.9378	1160.4839	1171.571	1215.0599	1220.346	1278.3036	1297.4025	1313.7348	1358.1943	1371.3833	1419.476	1447.3585	1469.2414	1482.986	1493.6428	1531.476	2361.4129	2973.4704	3016.0889	3043.4115	3055.257	3059.8705	3078.5059	3083.5605	3099.7986	3168.7477	3817.0926
OCC#CCCC1CO1	OCC#CCC[C@H]1CO1	
InChI=1S/C7H10O2/c8-5-3-1-2-4-7-6-9-7/h7-8H,2,4-6H2	InChI=1S/C7H10O2/c8-5-3-1-2-4-7-6-9-7/h7-8H,2,4-6H2/t7-/m0/s1
