13
gdb 21553	4.05476	1.90413	1.29686	2.7933	67.54	-0.2155	-0.0462	0.1693	868.7335	0.096789	-394.760076	-394.753316	-394.752372	-394.790849	25.847	
N	 0.0381070951	 1.3708694087	 0.1510880912	-0.56194
C	-0.0681572829	 0.0075482126	 0.052612189	 0.470783
C	-1.2141160438	-0.7141825158	 0.0303647581	-0.286892
C	-1.1433854228	-2.1489538082	-0.0033252575	 0.290507
N	-2.178360902	-2.9159570269	-0.0254653138	-0.543243
C	 0.2485027865	-2.6339157496	-0.0143953846	-0.016639
N	 1.3230895852	-1.937108698	-0.0029622306	-0.066973
O	 1.1717255915	-0.5467661045	 0.0284216055	-0.27684
H	 0.9125002839	 1.7582138387	-0.1712459496	 0.270286
H	-0.7777642771	 1.8963327922	-0.1207555458	 0.269934
H	-2.1771249571	-0.2207045783	 0.046605106	 0.107466
H	-1.8939524172	-3.89722764	-0.04871975	 0.206474
H	 0.4337492306	-3.7066386911	-0.0376597181	 0.137077
136.0013	185.1165	303.3189	344.664	416.9616	464.371	503.3649	519.2037	564.8327	673.1476	713.176	740.8036	812.9809	855.5653	902.4342	951.2549	973.2397	996.1224	1105.1237	1162.9223	1276.3873	1310.8266	1377.5585	1442.56	1625.5986	1640.986	1679.5577	1710.4039	3154.6072	3216.7852	3445.633	3583.5812	3696.3215
NC1=CC(=N)C=NO1	N[C]1C=C([NH])C=NO1	
InChI=1S/C4H5N3O/c5-3-1-4(6)8-7-2-3/h1-2,5H,6H2	InChI=1S/C4H5N3O/c5-3-1-4(6)8-7-2-3/h1-2,5H,6H2
