19
gdb 89750	2.30437	1.66331	1.17809	1.6009	75.97	-0.2319	0.0771	0.309	1112.7856	0.157144	-422.971526	-422.962936	-422.961992	-423.004714	32.87	
C	-0.5330149995	 1.3842081875	-0.0436106283	-0.411411
C	 0.1430862537	 0.0302883023	-0.0116304705	 0.078921
O	 1.417174061	 0.0235287044	-0.7225400841	-0.343472
C	 2.105825563	-0.5128138297	 0.4097642937	 0.397981
C	 3.0812208071	-1.6392361648	 0.317123698	-0.331099
C	 3.5425691968	-0.2388359216	 0.6982376882	-0.342639
C	 0.8686145896	-0.4172561625	 1.2611950244	 0.271764
C	 0.6656886838	-0.0791670711	 2.6670514912	-0.263634
O	 0.4185978645	-1.4048143969	 2.1601054339	-0.266815
H	 0.1159843511	 2.1540708311	 0.383415509	 0.123294
H	-0.7691268335	 1.6641707062	-1.0747280323	 0.132483
H	-1.4702572715	 1.3563811242	 0.5227241164	 0.121235
H	-0.5174535181	-0.7550660496	-0.4021992033	 0.094679
H	 3.0403573897	-2.4041214151	 1.0855561365	 0.127883
H	 3.3308798233	-1.9932950921	-0.6770447937	 0.126728
H	 4.0899239221	 0.3259369818	-0.0488636642	 0.127973
H	 3.8411349628	-0.0444655493	 1.7235853048	 0.115324
H	 1.5228886103	 0.0123077852	 3.3325719652	 0.120083
H	-0.220726746	 0.4750918401	 2.9721870551	 0.120722
66.6605	173.8666	197.677	209.4966	218.7582	255.2097	358.0518	429.4156	460.7694	540.1985	571.7998	613.81	758.4189	819.8497	856.9724	871.028	889.6968	912.6866	946.2984	974.1297	983.9837	1048.25	1060.7029	1064.6605	1080.1127	1118.3891	1132.2712	1156.8899	1163.8578	1188.1991	1237.0994	1292.0604	1354.8674	1383.9766	1407.752	1446.7537	1459.9854	1484.7867	1493.1625	1501.8848	1551.7863	3021.6064	3037.0614	3083.7297	3108.4611	3119.4603	3126.9752	3133.032	3170.6273	3212.3286	3228.6664
CC1OC2(CC2)C11CO1	C[C@H]1OC2(CC2)[C@]21CO2	
InChI=1S/C7H10O2/c1-5-7(4-8-7)6(9-5)2-3-6/h5H,2-4H2,1H3	InChI=1S/C7H10O2/c1-5-7(4-8-7)6(9-5)2-3-6/h5H,2-4H2,1H3/t5-,7-/m1/s1
