21
gdb 39401	2.35118	2.08648	1.71372	1.2724	80.29	-0.2369	0.0785	0.3154	931.2664	0.186682	-387.057868	-387.051037	-387.050093	-387.088653	29.177	
C	-0.0981069107	 1.4836531054	-0.1140005001	-0.232851
C	 1.4636932651	 1.4904635756	-0.0515067057	-0.01339
C	 2.0348508531	 1.8499622536	 1.326229612	-0.239614
C	 1.5556563556	 0.9799749663	 2.5231654202	-0.075351
O	 0.3746248683	 0.2185079532	 2.3145153003	-0.262084
C	 0.3688750331	-0.6920436942	 1.2288629842	 0.106561
C	 1.749814013	-1.0580613771	 0.603986689	-0.272939
C	 1.4751625953	-0.023994967	-0.4980499165	-0.031226
C	-0.0493979733	-0.0471881196	-0.1484646954	-0.029526
H	-0.6309447473	 1.9467477996	 0.7199407929	 0.101783
H	-0.4710168949	 1.8995233334	-1.0543830113	 0.090772
H	 1.9297302204	 2.1483409871	-0.7899950023	 0.068767
H	 3.1309063843	 1.8129796228	 1.2922564758	 0.095925
H	 1.7715947259	 2.8975662183	 1.5148225662	 0.103506
H	 2.3683152269	 0.3180078957	 2.850351638	 0.095879
H	 1.3162207621	 1.6222727164	 3.3752879896	 0.10578
H	-0.2480332558	-1.5347202787	 1.5513400465	 0.078026
H	 2.6527140425	-0.9794214464	 1.2135823191	 0.0971
H	 1.7060874272	-2.0729844989	 0.1962931642	 0.100425
H	 1.8646480129	-0.2000560327	-1.5021945567	 0.056472
H	-0.7895916538	-0.6133325729	-0.7167623499	 0.055983
144.8633	255.4174	305.8619	361.9599	387.1791	466.9391	498.6823	639.9605	688.5418	730.1949	759.2299	801.8828	821.8344	842.0037	872.4238	920.8575	926.6299	964.8629	984.8994	1007.6454	1023.8311	1056.248	1071.5268	1094.4455	1114.5639	1134.2981	1157.1291	1188.2667	1206.4418	1227.7369	1248.3564	1265.766	1279.4188	1291.305	1296.2547	1308.5642	1319.3616	1331.6359	1372.1496	1383.8844	1418.9289	1478.3428	1482.4895	1488.7698	1522.4277	3004.9447	3022.0564	3051.0325	3052.5959	3055.2043	3062.983	3068.5807	3084.2165	3085.0923	3097.6241	3105.5252	3110.0142
C1C2CCOC3CC2C13	C1[C@H]2CCO[C@@H]3C[C@H]2[C@H]13	
InChI=1S/C8H12O/c1-2-9-8-4-6-5(1)3-7(6)8/h5-8H,1-4H2	InChI=1S/C8H12O/c1-2-9-8-4-6-5(1)3-7(6)8/h5-8H,1-4H2/t5-,6-,7+,8-/m1/s1
