22
gdb 114044	2.66918	1.1839	0.9682	1.9881	83.52	-0.1957	0.0745	0.2702	1330.0063	0.19236	-404.296376	-404.286502	-404.285557	-404.330807	37.218	
C	-0.5206461969	 1.5574712452	-0.3181890589	-0.374779
C	-0.4976059479	 0.0425150433	-0.1179566918	-0.128103
N	 0.3996236582	-0.5941076215	-1.0679116748	-0.059462
C	 1.8757052331	-0.504514089	-0.9203658559	-0.256473
C	 1.9734507999	-2.0196581563	-1.1641425108	 0.331495
O	 2.8594424125	-2.5852351208	-2.0642305378	-0.458566
C	 1.209405846	-2.8071077945	-0.1294963127	-0.076359
C	 1.2020060404	-2.5657731172	 1.365973392	-0.426279
C	 0.4572359228	-2.0415365509	-1.2174446224	-0.099144
H	 0.4693427197	 1.9921171656	-0.1411229265	 0.115564
H	-0.817765592	 1.8056289084	-1.3411499022	 0.123023
H	-1.2201271951	 2.0314051365	 0.3776196093	 0.108858
H	-0.2522068701	-0.1820584435	 0.9347953724	 0.077506
H	-1.4983197393	-0.3694528008	-0.2971958917	 0.100632
H	 2.3406566617	 0.0825486337	-1.7193679817	 0.111001
H	 2.2360178019	-0.1368312271	 0.0510249826	 0.087483
H	 3.6125348793	-2.9282979059	-1.5715166777	 0.285308
H	 1.2266807212	-3.8638122751	-0.3989005905	 0.088607
H	 0.2567242805	-2.8875867244	 1.8161860249	 0.120013
H	 2.0069974412	-3.130817452	 1.8506712765	 0.110623
H	 1.3463707736	-1.5135345402	 1.6197535479	 0.12392
H	-0.2116044706	-2.5503055034	-1.9048353904	 0.095132
74.0146	121.0942	172.7138	191.1324	215.625	238.379	249.221	294.4293	345.7292	361.8753	416.9949	482.0226	583.5935	643.0608	684.1008	756.8245	801.3644	827.2428	931.0059	946.5801	975.9069	984.2512	1014.2946	1037.775	1083.2828	1109.9208	1118.0598	1134.7476	1138.2207	1204.0157	1209.4416	1233.5427	1271.974	1277.3577	1312.8606	1338.3009	1355.9868	1390.2411	1409.7541	1416.8747	1471.4341	1485.9283	1490.0125	1495.8791	1504.1563	1508.0099	1516.0516	2948.8145	2997.4615	3029.667	3035.1314	3044.4631	3064.4954	3083.7293	3101.6753	3105.1457	3116.5267	3128.5056	3156.4891	3799.1082
CCN1CC2(O)C(C)C12	CCN1C[C@@]2(O)[C@@H](C)[C@@H]12	
InChI=1S/C7H13NO/c1-3-8-4-7(9)5(2)6(7)8/h5-6,9H,3-4H2,1-2H3	InChI=1S/C7H13NO/c1-3-8-4-7(9)5(2)6(7)8/h5-6,9H,3-4H2,1-2H3/t5-,6+,7+/m0/s1
