17
gdb 20883	6.69384	1.0989	1.02234	4.6062	70.26	-0.2544	0.0038	0.2582	1172.9855	0.143642	-360.050095	-360.04231	-360.041366	-360.083486	27.532	
C	 0.037322058	 1.5495933296	-0.0357277657	-0.382009
C	 0.2483474437	 0.0345960384	-0.0808307303	-0.174587
C	 0.5518894661	-0.5412326271	 1.3068157674	-0.147424
N	 0.7324378708	-1.9850404958	 1.2929280868	 0.080736
C	 1.8353090863	-2.7108489129	 0.9914229392	-0.102745
C	 1.4148676505	-4.016362687	 1.0751430952	-0.066657
N	 0.0974755868	-4.0269995605	 1.415405142	-0.190222
N	-0.3146856179	-2.7972372045	 1.5442262255	-0.15151
H	 0.926124734	 2.0663928127	 0.3431481187	 0.118108
H	-0.1759814986	 1.943773094	-1.0330567624	 0.125002
H	-0.803620125	 1.8147483608	 0.6139601013	 0.125393
H	-0.6438722959	-0.4642612891	-0.4741425883	 0.129039
H	 1.0726060752	-0.2113233772	-0.760926333	 0.106415
H	 1.455795816	-0.08821966	 1.7271086196	 0.121707
H	-0.2746465792	-0.3437437901	 1.9938555165	 0.144756
H	 2.7832310095	-2.2547933117	 0.7600612698	 0.140154
H	 1.9704023796	-4.9273194094	 0.9222761876	 0.123844
37.0289	88.0665	109.7332	236.1188	294.3061	353.7613	374.5338	657.0459	716.9262	751.308	757.2799	784.35	857.2102	879.0882	903.2434	961.7661	1039.6897	1046.6252	1081.0774	1107.0303	1124.7935	1143.1643	1228.9008	1279.1718	1309.5502	1323.6177	1332.0147	1362.1819	1402.4137	1416.3158	1474.3423	1492.9652	1497.8275	1502.3107	1510.2112	1522.7607	3033.5549	3037.4148	3055.7738	3075.433	3100.7265	3113.693	3119.9742	3267.3569	3288.7923
CCCN1C=CN=N1	CCCn1ccnn1	
InChI=1S/C5H9N3/c1-2-4-8-5-3-6-7-8/h3,5H,2,4H2,1H3	InChI=1S/C5H9N3/c1-2-4-8-5-3-6-7-8/h3,5H,2,4H2,1H3
