17
gdb 106757	2.19893	1.65689	1.14354	4.0048	69.56	-0.2565	0.0012	0.2576	1112.1393	0.13336	-458.951135	-458.942155	-458.941211	-458.985031	32.38	
C	 0.0776900207	 1.3336049226	-0.2812376541	-0.263809
O	 0.0358761766	-0.0267110424	 0.1493445423	-0.275034
C	-1.2154289279	-0.5645410025	 0.1351248775	 0.183931
C	-1.923370833	-1.059945368	-1.1468617137	-0.393709
C	-1.6660670916	-1.9953702817	-0.012109575	 0.370991
C	-0.958274649	-3.304833821	 0.0144364664	-0.48803
O	-2.729846568	-1.7744089101	 0.9763436383	-0.299821
C	-2.2598840926	-0.4905767561	 1.2299104401	 0.408672
O	-2.6171974111	 0.2622266588	 2.0754714085	-0.33521
H	 1.1234634115	 1.6416007423	-0.2350029756	 0.136485
H	-0.2881511882	 1.4317637686	-1.3116970304	 0.117628
H	-0.5215085614	 1.9733656259	 0.376647057	 0.14325
H	-2.9372970434	-0.758645783	-1.3898063723	 0.133616
H	-1.2382129187	-1.1437745741	-1.9864716105	 0.13253
H	-0.0910393557	-3.2714750159	-0.6505982047	 0.140465
H	-0.61496888	-3.5352191112	 1.0267679493	 0.14565
H	-1.6184333982	-4.1110494722	-0.3209778931	 0.142394
74.2075	134.1762	144.151	168.0861	191.9734	260.9616	284.7012	362.5554	425.8288	498.2559	537.9114	630.4421	672.8685	735.4823	819.6106	866.2589	892.9102	947.3846	982.1048	1018.614	1046.0578	1067.9035	1098.5275	1136.023	1179.2854	1215.1942	1221.7837	1349.2563	1401.5721	1429.5978	1473.6026	1474.9869	1486.4023	1493.0834	1505.3543	1523.9762	1940.7831	3011.3782	3043.4778	3079.7035	3112.3638	3118.6549	3127.0364	3138.9011	3215.0472
COC12CC1(C)OC2=O	CO[C@@]12C[C@]1(C)OC2=O	
InChI=1S/C6H8O3/c1-5-3-6(5,8-2)4(7)9-5/h3H2,1-2H3	InChI=1S/C6H8O3/c1-5-3-6(5,8-2)4(7)9-5/h3H2,1-2H3/t5-,6+/m0/s1
