18
gdb 19483	4.44367	1.47395	1.41553	2.2923	67.39	-0.2351	0.0717	0.3068	942.1214	0.155408	-384.903149	-384.896026	-384.895082	-384.934651	27.643	
O	 0.4022516891	-0.073994804	-1.4189188303	-0.419772
C	 0.0025241506	 0.0942711066	-0.0631082853	-0.136238
C	-1.3789656896	-0.5132088885	 0.0729913179	 0.05495
C	-1.4999583521	-2.0757551376	-0.0132407247	-0.063153
C	-1.1112903249	-2.1138510593	 1.5002250197	-0.248639
C	-1.9477489352	-0.8125361811	 1.4899519597	 0.084225
O	-3.2741780071	-1.2829087728	 1.197882144	-0.283659
C	-3.0216927391	-2.2098867145	 0.1104732113	-0.088299
H	 1.2534026632	 0.3581148493	-1.5367285488	 0.286843
H	 0.7270486773	-0.3737713749	 0.6186062528	 0.086422
H	-0.0487490132	 1.1624363698	 0.2038797464	 0.088379
H	-2.0695287574	 0.0393804014	-0.5721151554	 0.080017
H	-0.9905412276	-2.6597425642	-0.7773567357	 0.081656
H	-1.4951241422	-2.9360632594	 2.1089464279	 0.099093
H	-0.0476153202	-1.9685893058	 1.6835955909	 0.103186
H	-1.9869949355	-0.0918540102	 2.3062247056	 0.075444
H	-3.5638707476	-1.8908604069	-0.7871585117	 0.101599
H	-3.3541211386	-3.2160694979	 0.3916192256	 0.097946
78.4961	163.398	249.3837	301.9463	359.5238	397.0679	503.432	540.537	656.4078	789.954	847.7124	853.2416	909.9852	925.0014	945.2985	960.423	995.0747	1025.0595	1051.2935	1059.2935	1077.7537	1108.5165	1116.4085	1133.5341	1181.2417	1210.7539	1226.6569	1243.44	1257.6815	1271.9944	1276.9693	1296.297	1355.8251	1393.5114	1462.6412	1492.9253	1524.1268	1530.7638	2968.4489	3003.2001	3023.4152	3060.4899	3065.679	3076.8528	3127.8393	3140.5616	3149.2521	3826.7948
OCC1C2CC1OC2	OC[C@H]1[C@H]2C[C@@H]1OC2	
InChI=1S/C6H10O2/c7-2-5-4-1-6(5)8-3-4/h4-7H,1-3H2	InChI=1S/C6H10O2/c7-2-5-4-1-6(5)8-3-4/h4-7H,1-3H2/t4-,5-,6-/m0/s1
