21
gdb 86297	1.84992	1.50584	1.22388	2.8045	79.1	-0.2457	-0.0283	0.2174	1192.9784	0.179084	-424.230566	-424.220299	-424.219355	-424.266333	37.049	
C	-0.8816311251	 1.0433604847	-1.2080343768	-0.412126
C	-0.0358083809	-0.1256508432	-0.745824161	 0.133568
O	 1.3265892582	-0.0441107533	-1.1994744899	-0.315091
C	 1.8528808086	-0.3559880273	 0.1162966189	 0.128824
C	 2.9720167122	 0.5778493497	 0.5261284612	-0.416077
C	 0.4421611429	-0.2377123001	 0.7522992662	 0.111229
C	 0.1553513628	 0.9607186323	 1.6555785872	-0.475513
C	-0.0724415005	-1.499428807	 1.4091426063	 0.110753
O	 0.5306588453	-2.5377960584	 1.5047563988	-0.251723
H	-0.4548018072	 2.0002774767	-0.8991288015	 0.122715
H	-0.9359077078	 1.0363336753	-2.3012910259	 0.134927
H	-1.9019656883	 0.9654487199	-0.8178602435	 0.117561
H	-0.4973376577	-1.0651688006	-1.0870952638	 0.079591
H	 2.1998486366	-1.3957676804	 0.1527791669	 0.098705
H	 2.6578762956	 1.6247812315	 0.5131506098	 0.115628
H	 3.3339603154	 0.3280409657	 1.5291685411	 0.121532
H	 3.80901586	 0.4675937678	-0.1704723779	 0.132149
H	 0.4261590689	 1.9055227445	 1.1808198053	 0.135431
H	-0.9091554492	 1.0100460473	 1.9102619403	 0.123001
H	 0.7175029645	 0.8858901008	 2.5924003676	 0.130676
H	-1.1121455543	-1.4084040059	 1.8052385207	 0.074237
39.8981	51.8551	172.6754	202.3458	211.9847	217.2156	243.2934	280.01	288.9676	339.5643	403.6625	463.4881	487.3448	563.6934	688.4289	734.3233	832.2544	878.0422	911.613	936.8057	988.4843	1007.972	1051.7693	1078.2323	1110.4565	1119.6196	1150.7718	1172.0248	1220.5932	1247.1693	1285.3497	1342.6875	1370.8249	1394.148	1404.0019	1412.1076	1428.2131	1431.5366	1476.4206	1479.2285	1486.2847	1495.5051	1504.209	1512.4324	1824.2709	2845.1827	2977.2635	3035.2207	3036.4586	3039.4795	3041.7603	3096.6537	3108.3517	3108.6443	3118.9949	3125.308	3133.5023
CC1OC(C)C1(C)C=O	C[C@H]1O[C@@H](C)[C@]1(C)C=O	
InChI=1S/C7H12O2/c1-5-7(3,4-8)6(2)9-5/h4-6H,1-3H3	InChI=1S/C7H12O2/c1-5-7(3,4-8)6(2)9-5/h4-6H,1-3H3/t5-,6+,7-
