20
gdb 71219	2.80619	1.87406	1.69573	1.2485	82.79	-0.2129	0.0107	0.2236	928.3144	0.173175	-365.969441	-365.962451	-365.961507	-366.0001	30.07	
C	-0.0276696062	 1.5559363505	 0.0097723104	-0.480779
C	 0.0085176911	 0.0445875767	-0.0399489425	 0.291689
C	 1.0721296367	-0.6784674745	-0.9320131577	-0.257588
C	 1.1528470135	-1.6796676663	 0.2116745667	 0.007783
C	-0.1574051087	-2.476771773	 0.597337082	-0.10251
C	-0.0890369906	-1.6201851296	 1.9042818576	-0.159146
N	 0.7201633945	-0.5947268167	 1.1932865932	-0.175309
C	-1.3519547377	-1.9365403585	-0.140960607	-0.090626
C	-1.3059327097	-0.622613707	-0.371421734	-0.103139
H	 0.9636278794	 1.956306232	 0.2356690354	 0.122305
H	-0.362951627	 1.9670342379	-0.9495760469	 0.111343
H	-0.7191965852	 1.9034494847	 0.7854133239	 0.118728
H	 0.7629876796	-1.0000554486	-1.9274454505	 0.097573
H	 2.0025657587	-0.1054492915	-0.9809382448	 0.105674
H	 2.0882045344	-2.2061027313	 0.4215455034	 0.069465
H	-0.1102989568	-3.5653745485	 0.6584017915	 0.061055
H	-1.0352895412	-1.293061548	 2.3438446871	 0.099577
H	 0.5495732366	-2.065633538	 2.6747112514	 0.10388
H	-2.2096762428	-2.5642361264	-0.3567780984	 0.093001
H	-2.1104378288	-0.0495275038	-0.8211224309	 0.087024
204.4829	243.074	289.0066	371.7613	390.9909	415.7126	490.8158	560.4818	637.4434	674.7893	709.6333	737.1421	765.8311	801.1347	849.3777	906.3251	919.7674	936.1131	949.5418	968.1331	989.8445	1010.7409	1046.9021	1060.8068	1081.3728	1119.426	1138.1375	1182.0984	1193.2918	1215.7186	1237.2297	1242.4395	1261.0646	1281.9177	1300.3431	1334.548	1392.2288	1408.3001	1470.5871	1483.5381	1489.6465	1492.9809	1672.6345	3028.491	3038.2434	3056.0389	3068.6589	3091.9906	3092.2174	3101.0334	3119.5288	3128.4715	3168.7243	3194.4045
CC12CC3C(CN13)C=C2	C[C@@]12C[C@@H]3[C@@H](CN13)C=C2	
InChI=1S/C8H11N/c1-8-3-2-6-5-9(8)7(6)4-8/h2-3,6-7H,4-5H2,1H3	InChI=1S/C8H11N/c1-8-3-2-6-5-9(8)7(6)4-8/h2-3,6-7H,4-5H2,1H3/t6-,7-,8-/m1/s1
