18
gdb 45590	2.65216	1.64585	1.28193	3.6774	72.18	-0.2167	-0.0191	0.1976	1021.8151	0.149447	-439.079222	-439.07178	-439.070836	-439.111171	29.41	
O	-0.0964742731	-0.0702410017	 0.0078281743	-0.289176
C	-0.0833412061	 1.1225474303	 0.0372895564	 0.382343
C	-1.1655994327	 2.2154290945	 0.1912044881	-0.349954
C	-0.0496341682	 3.1356649801	 0.7337556085	 0.075065
O	-0.0390358338	 3.0177322648	 2.1468780476	-0.266392
C	 1.2639475321	 3.1115987825	 2.7138836712	-0.070294
C	 2.1386119001	 1.9577376898	 2.2261395099	-0.176365
N	 2.2832265013	 1.9466319833	 0.7655335379	-0.299987
C	 1.0359840166	 2.199897851	 0.0922456689	-0.092188
H	-1.5610640661	 2.5387838818	-0.7766918137	 0.125555
H	-1.9869643998	 2.0006773536	 0.8759080274	 0.14039
H	-0.051111422	 4.1889194227	 0.4259794058	 0.066029
H	 1.7288340338	 4.0797042527	 2.4595794504	 0.080349
H	 1.123016432	 3.0748748005	 3.7983454451	 0.112351
H	 3.13447179	 2.0071750654	 2.6771467815	 0.104211
H	 1.6776611746	 1.0123896947	 2.537439631	 0.13098
H	 2.9746854232	 2.6330794229	 0.483460852	 0.22175
H	 1.2287377779	 2.5117615111	-0.9415442523	 0.105335
91.0634	146.3539	245.3186	342.351	371.3993	412.7218	435.8664	492.045	556.3606	650.856	708.3878	718.7413	793.4997	816.9999	869.9965	898.0655	931.5071	969.7842	1023.1289	1032.0532	1056.9167	1094.4615	1107.8956	1135.418	1185.6145	1198.7362	1222.6099	1242.7964	1266.0208	1293.8901	1351.1718	1365.952	1396.314	1406.5246	1432.3628	1477.1781	1485.516	1495.5942	1903.1069	2961.5314	3022.5468	3037.0586	3044.9592	3069.1647	3084.1959	3091.6336	3141.5978	3522.3099
O=C1CC2OCCNC12	O=C1C[C@H]2OCCN[C@@H]12	
InChI=1S/C6H9NO2/c8-4-3-5-6(4)7-1-2-9-5/h5-7H,1-3H2	InChI=1S/C6H9NO2/c8-4-3-5-6(4)7-1-2-9-5/h5-7H,1-3H2/t5-,6+/m1/s1
