17
gdb 54251	2.64958	1.39538	1.3272	2.1165	68.68	-0.2401	0.0096	0.2497	1045.3399	0.136579	-455.200078	-455.191437	-455.190493	-455.233765	31.878	
C	 0.0243029999	 1.4887473406	-0.0075160122	-0.42415
C	-0.0219953377	-0.0462403145	-0.004154012	 0.176692
C	 0.7957731956	-0.6739792481	-1.1665481773	-0.147157
O	 1.7770265404	-1.5095570017	-0.4976178729	-0.216862
C	 1.5501517335	-1.3497397207	 0.8187728318	 0.117699
N	 0.6183780656	-0.5849764448	 1.2173895901	-0.317411
C	-1.5032274504	-0.4753881877	-0.0874179507	 0.376439
N	-2.074882331	-0.7441600384	 1.1105636029	-0.524556
O	-2.0877286334	-0.5076308359	-1.1548908446	-0.381758
H	 1.0623868033	 1.8333355537	 0.0144464683	 0.120305
H	-0.4613396541	 1.8747971375	-0.9083006992	 0.139941
H	-0.4910596662	 1.889360662	 0.8691002116	 0.131984
H	 0.185604109	-1.2929104904	-1.8253284496	 0.148138
H	 1.3362877607	 0.0685428055	-1.7588213732	 0.119335
H	 2.2131932107	-1.9174527111	 1.4628408115	 0.145915
H	-1.4882150098	-0.8261750943	 1.9258237938	 0.2751
H	-3.0306528461	-1.0590786415	 1.1317616916	 0.260347
59.3448	72.3801	224.1178	237.5896	250.2124	311.1368	336.2516	361.5233	445.8436	503.0013	582.4477	620.4002	652.0796	778.6363	797.4043	874.7579	888.9271	956.0779	961.8249	973.3837	991.8524	1103.3862	1131.3112	1163.5891	1174.282	1205.1925	1232.5114	1322.1311	1365.4134	1370.5965	1405.4409	1486.8954	1494.4412	1521.322	1593.924	1694.573	1794.5425	3041.8475	3070.1724	3119.0977	3128.242	3135.4287	3212.0068	3581.79	3723.773
CC1(COC=N1)C(N)=O	C[C@]1(COC=N1)C(=O)N	
InChI=1S/C5H8N2O2/c1-5(4(6)8)2-9-3-7-5/h3H,2H2,1H3,(H2,6,8)	InChI=1S/C5H8N2O2/c1-5(4(6)8)2-9-3-7-5/h3H,2H2,1H3,(H2,6,8)/t5-/m0/s1
