21
gdb 57297	3.55508	0.61613	0.60078	2.7255	89.44	-0.2451	-0.0265	0.2186	1954.9107	0.177865	-387.085545	-387.074258	-387.073314	-387.125079	39.446	
C	 0.3526899003	 1.4674031957	 0.1388299846	-0.391058
C	-0.0673329819	-0.0146115829	 0.0133445683	 0.076024
C	 0.5385222428	-0.8270431329	 1.1804224618	-0.391144
C	-1.6087410523	-0.1231715312	 0.0507533634	-0.390907
C	 0.424861208	-0.5552585387	-1.260460954	 0.165726
C	 0.8149734642	-0.9900404122	-2.3144812526	-0.050487
C	 1.3276968876	-1.5607212505	-3.5522133303	-0.413531
C	 2.4573585237	-2.56252409	-3.3036927454	 0.174251
O	 2.6023033535	-3.5750669788	-3.9324173605	-0.232336
H	 1.4413501132	 1.5691156297	 0.1128331393	 0.119266
H	-0.063965992	 2.0624906294	-0.6786932031	 0.12048
H	-0.0091076894	 1.8820845441	 1.0858259013	 0.111476
H	 0.1784945141	-0.4348427946	 2.1375811231	 0.111701
H	 0.2552171968	-1.8810950952	 1.1119775288	 0.121833
H	 1.6305891692	-0.7672400016	 1.1736588062	 0.119198
H	-2.0607443957	 0.442865123	-0.768591877	 0.120851
H	-1.9296795884	-1.1648299327	-0.0379254537	 0.121727
H	-1.9902199428	 0.2758514929	 0.9967442207	 0.111451
H	 0.5505510221	-2.0622287138	-4.138423101	 0.152195
H	 1.7469821786	-0.7685268086	-4.1923214524	 0.152312
H	 3.1545996185	-2.2685754512	-2.4889453675	 0.090972
4.4178	46.181	85.4327	115.147	171.4255	215.2805	270.3188	272.0817	283.318	322.1667	350.8262	360.9741	440.5275	482.0351	549.2496	560.5083	648.1818	745.9813	846.0476	931.3149	931.5469	965.0604	1033.7587	1040.4304	1049.6304	1051.1396	1083.6616	1210.9498	1223.197	1224.1629	1278.6719	1302.505	1395.0943	1395.1455	1414.6604	1428.0529	1442.0645	1474.4163	1485.1834	1485.2356	1498.4319	1498.5704	1518.0639	1840.3815	2359.7107	2897.4103	2996.0205	3032.0944	3032.3597	3038.7504	3076.1267	3104.2341	3104.714	3110.8344	3113.9164	3117.7075	3118.4798
CC(C)(C)C#CCC=O	CC(C)(C)C#CCC=O	
InChI=1S/C8H12O/c1-8(2,3)6-4-5-7-9/h7H,5H2,1-3H3	InChI=1S/C8H12O/c1-8(2,3)6-4-5-7-9/h7H,5H2,1-3H3
