13
gdb 5176	5.84303	1.57973	1.24353	0.8095	63.24	-0.2113	-0.0119	0.1994	894.0098	0.098712	-394.851444	-394.845	-394.844055	-394.882226	23.909	
O	-0.1857798097	-0.0290057394	 0.0005316933	-0.335583
C	-0.0413631724	 1.1802935415	 0.0076731158	 0.152849
N	 1.1605927725	 1.8195234188	 0.0017440467	-0.388255
C	 2.4063911844	 1.1964377183	-0.0131605824	 0.486017
N	 3.5477045245	 1.8419729017	-0.0177807111	-0.34942
C	 4.5016222211	 0.8441765765	-0.0329997278	-0.088457
C	 3.9148892572	-0.3917380848	-0.037518418	-0.110377
N	 2.553672961	-0.1515241395	-0.0244729446	-0.279163
H	-0.8880778699	 1.8877262071	 0.0201788203	 0.102042
H	 1.1927717796	 2.8281128873	 0.0089044165	 0.277846
H	 5.5540118622	 1.080969151	-0.0398914986	 0.111044
H	 4.3135383125	-1.3917039638	-0.0484417611	 0.131161
H	 1.7713205471	-0.7902741346	-0.0221843191	 0.290297
102.691	210.0571	216.1761	376.5744	389.9296	596.8844	615.5331	637.1021	689.3733	709.7553	747.4283	852.9841	872.4727	936.4871	997.9536	1011.7317	1089.9818	1131.1953	1155.9936	1188.3507	1295.0304	1378.1953	1424.5512	1443.7653	1524.645	1545.3674	1630.5607	1774.1531	2992.0387	3256.5884	3289.3342	3614.6278	3632.1292
O=CNC1=NC=CN1	O=CNc1ncc[nH]1	
InChI=1S/C4H5N3O/c8-3-7-4-5-1-2-6-4/h1-3H,(H2,5,6,7,8)	InChI=1S/C4H5N3O/c8-3-7-4-5-1-2-6-4/h1-3H,(H2,5,6,7,8)
