21
gdb 42082	3.5996	1.24535	1.19735	1.3649	82.59	-0.2348	0.0285	0.2632	1144.1458	0.184645	-387.113943	-387.10602	-387.105075	-387.14689	31.243	
C	-0.0401267587	 1.3977677331	-0.3311844	-0.234856
C	 1.1497427932	 2.0268791774	 0.4009337776	-0.067508
O	 2.19020771	 1.0524813682	 0.3803842996	-0.312917
C	 1.6886038961	-0.2335965335	-0.012683594	 0.449221
C	 0.1545885587	-0.0843183118	 0.010912878	-0.268595
C	 2.2146752872	-0.6374950825	-1.4243984884	-0.310872
C	 2.5292914878	-2.1042722403	-1.2822428394	-0.062805
C	 2.5383524615	-2.4875036467	-0.0059169777	-0.061577
C	 2.227152664	-1.3455372257	 0.9271921648	-0.331141
H	-1.0020648738	 1.7988405056	-0.0026360545	 0.100403
H	 0.0424113955	 1.5622454805	-1.4108534077	 0.107365
H	 1.515107652	 2.9445212082	-0.0731532358	 0.100637
H	 0.8873340854	 2.2675258104	 1.442736226	 0.090121
H	-0.2253094233	-0.2887060546	 1.0183202535	 0.098607
H	-0.3424060562	-0.7694791214	-0.6796630833	 0.107016
H	 1.489085466	-0.4204899461	-2.2180385271	 0.091544
H	 3.1157294085	-0.0539740701	-1.6536586306	 0.114764
H	 2.7538592706	-2.7422224763	-2.1301300242	 0.088352
H	 2.773129909	-3.4852860958	 0.3482410693	 0.089488
H	 3.1315827034	-0.9846104947	 1.434256043	 0.118474
H	 1.5100023833	-1.6076989539	 1.7138163707	 0.094279
58.6962	78.7516	202.4571	288.1579	374.0616	386.2598	418.7545	459.4842	598.8848	671.8229	722.0214	767.6106	781.0654	872.4445	881.4455	912.1038	932.9605	950.781	960.654	977.6849	985.8889	992.6842	1007.8724	1053.8553	1092.8584	1119.2371	1134.2988	1146.998	1182.0782	1205.2838	1214.6926	1253.6724	1261.9131	1289.4024	1326.7104	1338.1253	1344.2993	1372.3747	1391.4201	1477.0331	1483.479	1490.14	1498.6832	1531.3643	1686.8602	2982.7528	3018.9363	3021.5624	3039.158	3046.3828	3050.7712	3055.4038	3061.3186	3103.5698	3110.5013	3178.2784	3203.6412
C1COC2(C1)CC=CC2	C1CO[C@@]2(C1)CC=CC2	
InChI=1S/C8H12O/c1-2-5-8(4-1)6-3-7-9-8/h1-2H,3-7H2	InChI=1S/C8H12O/c1-2-5-8(4-1)6-3-7-9-8/h1-2H,3-7H2
