16
gdb 30499	4.11724	1.15292	0.90618	2.66	81.13	-0.1997	-0.0326	0.1672	1245.751	0.124984	-434.105801	-434.097298	-434.096353	-434.139317	31.153	
C	-0.0717029356	 1.4712242047	-0.0089606161	-0.3181
N	 0.0318125166	 0.023818709	 0.0087075418	-0.333717
C	-1.0170604521	-0.6807056287	 0.025911967	 0.416003
O	-2.2952991331	-0.0389018183	 0.0271945248	-0.229699
C	-3.4054446083	-0.7784029781	 0.0387470981	 0.141421
N	-3.4962945866	-2.0509154273	 0.0586775096	-0.335129
C	-2.286663344	-2.7496088793	 0.0656220517	 0.387325
N	-2.454027906	-4.1059316585	 0.1378395702	-0.566172
C	-1.0834920087	-2.1125539236	 0.0421645474	-0.27872
H	 0.933950435	 1.8988070856	-0.0228888365	 0.11648
H	-0.6113286178	 1.8413735939	-0.891971159	 0.113663
H	-0.5962950698	 1.8637079182	 0.8734061791	 0.11447
H	-4.2975223627	-0.1571834654	 0.0280816561	 0.142224
H	-3.3681717551	-4.4425106116	-0.1190206625	 0.263705
H	-1.6776984372	-4.6961361603	-0.1114889171	 0.261001
H	-0.1423293443	-2.6459410204	 0.0420853555	 0.105246
57.7543	108.8581	159.9702	201.5906	270.5257	358.7527	412.9805	438.1078	444.6862	459.9142	541.4354	633.116	695.2324	737.794	753.2539	831.3263	881.4145	948.5445	974.7221	1019.0358	1089.0188	1111.0827	1142.002	1175.3181	1245.0399	1323.7395	1391.123	1437.9345	1446.1399	1486.7874	1500.6094	1614.9497	1652.557	1701.3684	1773.3738	2992.1512	3038.6963	3099.6213	3177.2582	3219.4009	3596.8905	3717.3397
CN=C1OC=NC(N)=C1	C[N]C1=C[C@H](N=CO1)N	
InChI=1S/C5H7N3O/c1-7-5-2-4(6)8-3-9-5/h2-3H,6H2,1H3	InChI=1S/C5H8N3O/c1-7-5-2-4(6)8-3-9-5/h2-4H,6H2,1H3/t4-/m0/s1
