17
gdb 131519	3.00647	1.58551	1.15088	3.6787	74.01	-0.2399	0.0093	0.2492	1047.8543	0.139477	-418.029648	-418.02218	-418.021236	-418.061643	28.917	
O	-0.2736639293	 1.4768710608	-0.2972905574	-0.432355
C	 0.0749646054	 0.1192654827	-0.0295851947	 0.021584
C	-1.1639335653	-0.8010319766	 0.2207556661	-0.231079
C	-1.4812887744	-1.5585807543	-1.1114903625	-0.369359
C	-0.1623944925	-1.4844783923	-1.8244263162	 0.239565
C	 0.5519044177	-1.9743712737	-2.8935854368	-0.221908
N	 1.7610571548	-1.3401977363	-2.8411427535	-0.179936
N	 1.8856911867	-0.4725143344	-1.8134442961	-0.327909
C	 0.7102513309	-0.5702135147	-1.2038767554	 0.278806
H	-0.5365762408	 1.5348088319	-1.2218147121	 0.277877
H	 0.7164586368	 0.164191361	 0.854545572	 0.096185
H	-0.9054233535	-1.5343702569	 0.9916473369	 0.10746
H	-2.0041573253	-0.210286147	 0.5924658111	 0.108134
H	-1.8271532945	-2.5790141102	-0.9210819854	 0.111917
H	-2.2778456257	-1.0607181119	-1.6783978445	 0.111463
H	 0.334004972	-2.6957386108	-3.6653505244	 0.135265
H	 2.5433912169	-1.4702925177	-3.4607158472	 0.27429
96.8023	153.5268	221.3463	255.1645	337.1019	430.6292	471.5278	513.5545	627.275	655.5689	698.6138	717.8039	777.4002	788.7156	822.7585	905.8138	966.7014	978.5207	1017.4018	1060.876	1067.2234	1104.9072	1167.7082	1189.9041	1202.2486	1264.7683	1278.117	1291.0827	1324.3564	1333.864	1421.9479	1436.6451	1466.725	1471.8542	1500.6934	1502.1915	1617.1413	3027.4892	3050.7142	3074.6269	3080.4587	3114.1466	3258.8274	3667.6485	3811.1387
OC1CCC2=CNN=C12	O[C@H]1CCc2c[nH]nc12	
InChI=1S/C6H8N2O/c9-5-2-1-4-3-7-8-6(4)5/h3,5,9H,1-2H2,(H,7,8)	InChI=1S/C6H8N2O/c9-5-2-1-4-3-7-8-6(4)5/h3,5,9H,1-2H2,(H,7,8)/t5-/m0/s1
