16
gdb 27317	3.24472	1.38524	0.98254	4.7118	74.41	-0.2454	-0.0376	0.2078	1172.9503	0.123693	-437.954286	-437.945795	-437.944851	-437.987683	30.607	
C	-0.0174902272	 1.4898291571	 0.0837287855	-0.469717
C	-0.0055090416	 0.0008102228	-0.0521550047	 0.401915
N	-0.061541985	-0.6004872274	-1.1755129696	-0.339148
C	-0.0455411878	-2.0139351425	-1.2223512119	 0.329773
O	-0.097896258	-2.6066706065	-2.2793078231	-0.339005
C	 0.0375761206	-2.7131547082	 0.0753422572	 0.098026
C	 0.057811707	-4.2101470689	 0.0844450672	-0.475331
C	 0.0909762669	-1.9662769551	 1.1860480624	-0.024459
O	 0.0719175812	-0.604827336	 1.1671757155	-0.207238
H	 0.8898529179	 1.8310567256	 0.5921563618	 0.151955
H	-0.0794998963	 1.9409030765	-0.9050180276	 0.164033
H	-0.8702772114	 1.8077863423	 0.6919009692	 0.151964
H	 0.9064627573	-4.5817573632	-0.4984338544	 0.150693
H	 0.1215205848	-4.6095187812	 1.1002632475	 0.115537
H	-0.8420509084	-4.6048263096	-0.3977847864	 0.150671
H	 0.1536905	-2.3450373156	 2.1993114214	 0.140332
86.9064	103.3372	147.9163	182.7581	265.6742	316.8375	320.3229	410.3482	473.6867	543.5506	564.1111	622.3142	741.8261	761.4275	812.6304	897.1168	905.7895	1011.5347	1043.9217	1062.4229	1068.2175	1115.0336	1173.9443	1243.6294	1337.1806	1390.7109	1407.1158	1415.5972	1466.2389	1469.166	1475.8759	1483.6939	1657.0071	1723.8378	1783.7015	3040.8972	3050.9443	3102.3121	3109.3871	3121.0056	3176.2844	3208.9015
CC1=NC(=O)C(C)=CO1	Cc1nc(=O)c(C)co1	
InChI=1S/C6H7NO2/c1-4-3-9-5(2)7-6(4)8/h3H,1-2H3	InChI=1S/C6H7NO2/c1-4-3-9-5(2)7-6(4)8/h3H,1-2H3
