19
gdb 61814	2.74207	1.04913	0.91802	4.203	73.03	-0.2707	0.0037	0.2743	1341.5793	0.155608	-460.168969	-460.15899	-460.158046	-460.205084	35.173	
C	-0.5801725774	 1.6176157588	-0.6290872854	-0.395549
C	-0.2016265207	 0.2150107923	-0.1609008366	 0.042671
O	-1.4159988429	-0.5217363897	 0.0677041266	-0.188411
C	-1.7340239354	-0.8617059376	 1.330164747	 0.16868
O	-2.7194059757	-1.4761651594	 1.6066689901	-0.275358
C	 0.66675122	-0.5189339078	-1.1837814281	 0.399585
C	 2.1259600401	-0.1125673515	-1.1866317427	-0.469389
C	 0.2753690481	-1.8416901008	-1.6934173984	-0.222869
O	 0.0697960187	-0.6584758253	-2.4756591465	-0.273696
H	 0.3115523229	 2.227615233	-0.7977031307	 0.125353
H	-1.1395138584	 1.5491608165	-1.5646419155	 0.157751
H	-1.199488401	 2.115367385	 0.1215021616	 0.125157
H	 0.3578143879	 0.2682273916	 0.7837062367	 0.084112
H	-0.9872931124	-0.5115081824	 2.0705610067	 0.077762
H	 2.6055652071	-0.3641998204	-0.2345259102	 0.124638
H	 2.6544133653	-0.630623152	-1.9897965022	 0.137333
H	 2.2412405566	 0.9639241414	-1.3487046628	 0.131464
H	 1.0504312328	-2.5130145	-2.0620443366	 0.110816
H	-0.6312927754	-2.3176068217	-1.3326648731	 0.139951
32.614	48.2206	142.5863	173.6159	201.2307	219.42	246.7631	314.06	343.3446	370.4479	405.9418	483.7026	549.3319	667.2614	733.6086	841.2783	894.8204	925.9314	939.3443	1010.6512	1043.646	1050.2454	1070.8152	1127.1226	1137.3935	1139.9618	1178.9765	1200.8174	1241.0155	1347.0278	1381.307	1397.0988	1405.1308	1417.863	1439.5727	1481.021	1488.7401	1494.74	1497.7616	1527.5453	1865.5575	2937.3986	3007.7872	3038.8406	3052.2303	3093.188	3101.7418	3123.9527	3130.2211	3142.8475	3198.222
CC(OC=O)C1(C)CO1	C[C@@H](OC=O)[C@@]1(C)CO1	
InChI=1S/C6H10O3/c1-5(8-4-7)6(2)3-9-6/h4-5H,3H2,1-2H3	InChI=1S/C6H10O3/c1-5(8-4-7)6(2)3-9-6/h4-5H,3H2,1-2H3/t5-,6-/m1/s1
