23
gdb 120874	4.32403	0.81057	0.75971	1.417	86.95	-0.2273	0.0897	0.317	1638.0424	0.204217	-388.265756	-388.255934	-388.25499	-388.300629	36.917	
C	 0.079494363	 1.488844196	 0.0671742205	-0.382377
C	-0.0706402477	-0.0306090694	 0.1740982741	-0.15889
C	-1.4785454797	-0.5210811526	-0.1864561586	-0.198306
C	-1.6210330501	-2.0274020306	-0.06789028	 0.140387
O	-1.3778924548	-2.5394082417	 1.2808826632	-0.345116
C	-2.598118978	-3.2976194126	 1.2312161409	 0.482662
C	-2.5716453056	-4.6783432851	 1.7995192131	-0.487299
C	-3.7676767855	-2.3662020699	 1.1573189074	-0.337433
C	-2.9903693274	-2.7030874158	-0.1049818191	-0.214323
H	 1.0919828296	 1.8091075933	 0.332221077	 0.111236
H	-0.1245040312	 1.8382772002	-0.9514208522	 0.110451
H	-0.6180591882	 2.0036906277	 0.7372739673	 0.113735
H	 0.662172529	-0.5196580631	-0.4815563644	 0.091067
H	 0.162597892	-0.3598994041	 1.1928962366	 0.118283
H	-2.2173891314	-0.0292836348	 0.4571753701	 0.09564
H	-1.7219649659	-0.2374001055	-1.2201478305	 0.092579
H	-0.9233882236	-2.5241502388	-0.7573859777	 0.0747
H	-2.3882738531	-4.6439496597	 2.8796420883	 0.131024
H	-3.5301388702	-5.1794890201	 1.6364679896	 0.121241
H	-1.7789183686	-5.2776202229	 1.3407506729	 0.12596
H	-4.7452119435	-2.8363235088	 1.2102447169	 0.109776
H	-3.7095655399	-1.381981819	 1.6128799347	 0.111648
H	-3.4482326089	-3.1579084528	-0.9735763701	 0.093355
71.9188	93.7538	109.264	175.7	202.4998	241.5148	275.5848	293.171	362.7466	411.6427	477.9857	538.4873	640.3269	729.2091	749.204	812.9254	846.9215	888.4468	911.881	935.1932	944.6667	968.6254	981.3118	1011.9819	1045.9735	1060.8573	1064.7628	1105.6763	1116.3033	1126.1214	1165.7704	1209.1804	1259.9993	1271.8767	1282.4913	1322.0688	1331.7303	1381.0351	1384.8754	1409.244	1415.0143	1428.9012	1473.1943	1475.2374	1490.0198	1493.6297	1498.6159	1503.3354	1510.2051	2997.565	3013.3896	3020.4395	3027.4869	3031.8683	3055.957	3071.5212	3094.8867	3096.2846	3100.6649	3114.3516	3116.4558	3193.5682	3205.1736
CCCC1OC2(C)CC12	CCC[C@H]1O[C@@]2(C)C[C@@H]12	
InChI=1S/C8H14O/c1-3-4-7-6-5-8(6,2)9-7/h6-7H,3-5H2,1-2H3	InChI=1S/C8H14O/c1-3-4-7-6-5-8(6,2)9-7/h6-7H,3-5H2,1-2H3/t6-,7+,8-/m0/s1
