19
gdb 68885	2.39821	1.78926	1.36147	1.4681	74.68	-0.2418	0.0752	0.317	1024.6969	0.157994	-422.980175	-422.971841	-422.970897	-423.012645	32.105	
C	 0.1229276023	 1.5481000425	-0.0563040341	-0.506579
C	-0.0661219606	 0.0782945445	 0.1327901438	 0.348441
O	 1.0120129033	-0.7983449169	-0.2523830634	-0.331623
C	 0.5156296646	-0.8947964145	 1.0923668419	 0.336427
C	 1.4514661148	-0.7592941428	 2.24565621	-0.515811
C	-0.735612845	-1.775414387	 0.9936793587	 0.040911
O	-1.7127606864	-1.4318534093	 1.9972612299	-0.291659
C	-2.3784651964	-0.5115617905	 1.1032348047	-0.0918
C	-1.3467269339	-0.7492919199	-0.0182478474	-0.161974
H	 1.0994870805	 1.8641951385	 0.3198926848	 0.134923
H	 0.0691764876	 1.8114232948	-1.1187939242	 0.132905
H	-0.6537027179	 2.1125402057	 0.469897375	 0.126237
H	 2.0859220925	 0.1246674365	 2.1373488585	 0.129078
H	 0.8796106429	-0.6760529684	 3.1747964673	 0.141877
H	 2.1029460508	-1.6369726942	 2.3229805049	 0.13191
H	-0.6301057381	-2.8524566953	 0.8434359864	 0.082802
H	-3.3897169654	-0.8601293269	 0.8618877529	 0.106968
H	-2.4412955532	 0.5030120162	 1.5161418351	 0.101545
H	-1.7016352325	-0.984996493	-1.0208727347	 0.085422
145.6317	190.4851	191.2041	200.2731	208.9019	238.5845	396.3424	429.4579	486.1014	527.1228	589.5066	682.7303	734.0481	813.2004	841.1368	869.5606	907.06	959.5041	969.0073	1006.6434	1013.1688	1057.0044	1084.0515	1109.2391	1145.0088	1159.6263	1178.0818	1184.1638	1242.8406	1251.2608	1288.3835	1321.7411	1355.7558	1406.1123	1412.8987	1472.1504	1477.8829	1488.2684	1492.7851	1514.3118	1521.549	3015.3564	3034.1766	3036.2184	3057.6252	3086.0847	3096.1003	3100.9469	3119.2928	3121.1006	3121.586
CC12OC1(C)C1OCC21	C[C@@]12O[C@]1(C)[C@H]1OC[C@@H]21	
InChI=1S/C7H10O2/c1-6-4-3-8-5(4)7(6,2)9-6/h4-5H,3H2,1-2H3	InChI=1S/C7H10O2/c1-6-4-3-8-5(4)7(6,2)9-6/h4-5H,3H2,1-2H3/t4-,5+,6+,7-/m1/s1
