19
gdb 63515	3.23417	1.27526	1.24021	3.3842	75.84	-0.24	0.0751	0.3151	1119.4107	0.156583	-422.936732	-422.928214	-422.92727	-422.969466	32.952	
C	-0.0381301673	 1.5491333919	-0.0871548393	-0.453575
C	-0.1068019889	 0.0439054248	 0.039230069	 0.207048
C	-1.2281052351	-0.6371818745	-0.7125669398	-0.453574
O	 1.1912971359	-0.6288134036	-0.0789991135	-0.337243
C	 0.548502079	-0.6319278678	 1.1549651177	 0.545649
C	 1.1350595118	-0.2804991454	 2.5349895206	-0.077309
C	-0.1704786501	-0.8179125455	 3.1731781528	-0.223644
C	 0.2934378022	-1.8267788819	 2.0926701049	-0.077308
O	 1.6826661225	-1.6605705663	 2.5929164993	-0.311745
H	 0.821530265	 1.9482782457	 0.4554705935	 0.129435
H	 0.055058838	 1.8386824505	-1.1395189779	 0.129346
H	-0.9487638453	 2.0130240312	 0.3073602105	 0.121628
H	-1.1658398293	-0.4046540733	-1.7812329849	 0.129348
H	-1.1760189127	-1.7216473167	-0.5942596417	 0.129434
H	-2.2028023199	-0.2909145826	-0.3517973033	 0.121628
H	 1.7848451963	 0.5353282965	 2.8480966089	 0.103329
H	-0.0455097057	-1.1779550377	 4.194047184	 0.115464
H	-1.1006783944	-0.2661162433	 3.0141170318	 0.098762
H	-0.0513407418	-2.8382287522	 1.8830779175	 0.103329
146.5172	152.8708	164.7337	179.9235	219.5941	309.8897	379.9019	438.3856	462.3507	485.1568	574.4146	665.0048	738.6347	762.5453	806.595	866.7681	899.5975	941.0985	945.1996	950.9417	986.4161	1009.9881	1051.1027	1055.3522	1110.7941	1120.2421	1163.7842	1169.6419	1182.4591	1206.485	1247.7398	1255.1504	1270.4763	1406.2511	1416.7918	1469.7365	1473.043	1483.6637	1483.9251	1500.2282	1563.011	3033.1229	3037.7102	3064.4706	3094.9703	3099.536	3127.6344	3129.3898	3133.2694	3137.6073	3157.8743
CC1(C)OC11C2CC1O2	CC1(C)O[C@]21[C@H]1C[C@@H]2O1	
InChI=1S/C7H10O2/c1-6(2)7(9-6)4-3-5(7)8-4/h4-5H,3H2,1-2H3	InChI=1S/C7H10O2/c1-6(2)7(9-6)4-3-5(7)8-4/h4-5H,3H2,1-2H3/t4-,5+,7-
