18
gdb 67161	2.88361	1.55529	1.48413	3.2118	76.67	-0.2416	0.0269	0.2685	991.4013	0.149441	-401.939577	-401.932261	-401.931316	-401.971081	29.29	
C	 0.0300172316	 1.5427240943	-0.0996391719	-0.519767
C	 0.0006156758	 0.0490426113	 0.0037507492	 0.304217
C	 0.4266614374	-1.0870274482	-0.9476311651	-0.154459
C	 1.2067720854	-1.7670667587	 0.1711680299	-0.233271
C	 0.461698264	-0.8431781968	 1.201930389	-0.192183
C	-0.7877410155	-1.5675170178	 1.6264412449	 0.428607
N	-1.063731582	-2.0185681165	 2.7715540048	-0.556978
O	-1.5716235468	-1.7173205993	 0.502041257	-0.25016
C	-1.0177863037	-0.8973080268	-0.5203741349	 0.04463
H	 1.0448465535	 1.9354882502	 0.0277670181	 0.12564
H	-0.3327505398	 1.872338627	-1.0787781494	 0.124575
H	-0.6053867513	 2.0050111807	 0.6645882139	 0.132333
H	 0.7084089318	-1.0357812344	-1.99371511	 0.08863
H	 1.0994248082	-2.8483989908	 0.3017611987	 0.112987
H	 2.2671236121	-1.5095623961	 0.1280655617	 0.113321
H	 1.0387419914	-0.4236442096	 2.0206827915	 0.098913
H	-1.9630343833	-2.5033958087	 2.7588258462	 0.22199
H	-1.7539285888	-0.6046120599	-1.2578983633	 0.110975
128.9556	195.0882	226.4039	267.6055	312.0785	424.452	499.532	570.1403	591.4793	719.177	736.4932	793.16	809.8522	858.0165	878.4622	895.5709	924.0595	948.5026	971.7818	1004.0674	1028.8554	1043.8397	1075.1423	1085.8077	1116.8931	1151.7301	1163.4711	1212.2365	1236.3603	1255.2124	1290.9148	1305.5531	1348.3139	1413.7487	1461.9362	1484.4697	1495.85	1501.3287	1783.5753	3024.8632	3051.7401	3086.5188	3097.5693	3112.5234	3166.4886	3171.607	3206.6031	3468.8225
CC12C3CC1C(=N)OC23	C[C@@]12[C@H]3C[C@@H]1[C]([NH])O[C@@H]23	
InChI=1S/C7H9NO/c1-7-3-2-4(7)6(8)9-5(3)7/h3-5,8H,2H2,1H3	InChI=1S/C7H9NO/c1-7-3-2-4(7)6(8)9-5(3)7/h3-5,8H,2H2,1H3/t3-,4+,5+,7+/m0/s1
