22
gdb 103420	2.28191	1.4986	1.2924	1.8924	81.57	-0.2316	0.0623	0.2939	1138.4591	0.192849	-404.305651	-404.296045	-404.295101	-404.339358	37.047	
C	 0.0862646026	 1.6275200904	 0.0558936814	-0.395331
C	 0.0299647112	 0.094501616	 0.098997535	-0.217067
C	-1.3760194833	-0.4966294019	-0.015268455	 0.308987
C	-2.3104653509	 0.0057113283	 1.0812552787	-0.434857
C	-2.0750454274	-0.4848404511	-1.4132333686	 0.050191
O	-1.3012348662	 0.0937303849	-2.4457992332	-0.428768
C	-2.1173682679	-2.0088866829	-1.3220553225	-0.067902
C	-0.7574065477	-2.5540901268	-1.1582196771	-0.251329
N	-1.4330506496	-2.0222265127	 0.0364876049	-0.1583
H	 1.1255901586	 1.9692372955	 0.0854008318	 0.10977
H	-0.3643755065	 2.0044210367	-0.8661982684	 0.134487
H	-0.4317740908	 2.083330662	 0.9047761938	 0.113323
H	 0.6602798956	-0.2919708599	-0.7053866255	 0.105325
H	 0.4613558831	-0.2728999984	 1.0395728527	 0.098895
H	-2.5103390735	 1.0756919488	 0.9737110429	 0.115868
H	-3.26419429	-0.5286711275	 1.0410146984	 0.116601
H	-1.8718315046	-0.1713473645	 2.0683152308	 0.120118
H	-3.0728558071	-0.0295285915	-1.3692457693	 0.066084
H	-1.748346747	-0.0603645252	-3.2846303889	 0.283233
H	-2.9838328576	-2.6310689645	-1.524373687	 0.086847
H	-0.6568498606	-3.6347452791	-1.126306303	 0.118129
H	 0.0847119096	-2.0324201466	-1.6004516019	 0.125697
93.4012	144.582	173.669	220.605	231.7638	260.4959	274.2309	309.3947	322.7516	370.8187	453.5527	513.5279	595.3433	634.4504	757.504	776.1446	785.1879	807.9978	902.975	934.6945	961.8402	992.4027	1015.2356	1034.8716	1057.1567	1060.5823	1103.7155	1105.2745	1135.4226	1159.6928	1176.8997	1212.8335	1236.2577	1289.0854	1315.0722	1323.3181	1364.9443	1371.6766	1403.9114	1406.6585	1418.5127	1473.344	1486.1826	1495.7775	1500.5269	1506.9953	1511.5753	3013.6428	3026.3653	3038.0433	3042.7509	3088.1147	3106.9519	3109.7209	3116.7325	3123.6182	3126.5176	3154.8194	3211.3595	3809.4802
CCC1(C)C(O)C2CN12	CC[C@@]1(C)[C@@H](O)[C@H]2CN12	
InChI=1S/C7H13NO/c1-3-7(2)6(9)5-4-8(5)7/h5-6,9H,3-4H2,1-2H3	InChI=1S/C7H13NO/c1-3-7(2)6(9)5-4-8(5)7/h5-6,9H,3-4H2,1-2H3/t5-,6+,7+,8?/m1/s1
