18
gdb 15867	2.40262	2.17235	1.38075	1.1937	73.55	-0.2484	0.0407	0.2891	957.9388	0.151538	-347.763598	-347.754903	-347.753959	-347.796892	32.105	
C	 0.1834570071	 1.5164576747	-0.2349698741	-0.403411
C	 0.0492396188	 0.0410077022	 0.0664582173	 0.160479
O	 0.8165120159	-0.7859941954	-0.8337750348	-0.305319
C	 1.4077088128	-1.5362297801	 0.2482068993	 0.160497
C	 2.910716561	-1.6497685699	 0.1301271308	-0.403417
C	 0.7759837072	-0.5738947663	 1.3096564407	-0.298133
C	 1.6722065401	 0.283780786	 2.0553356481	 0.370584
C	 2.4152366461	 0.9955557603	 2.6787216734	-0.486853
H	 1.2249771564	 1.8387721087	-0.1651820293	 0.131286
H	-0.1798835108	 1.7175681827	-1.2476539429	 0.1256
H	-0.4122232314	 2.107454657	 0.4684821639	 0.119041
H	-1.0095628902	-0.2552906006	 0.04896147	 0.074805
H	 0.9551424064	-2.5363715797	 0.3117963463	 0.074805
H	 3.3800092935	-0.6632542763	 0.1234536976	 0.131296
H	 3.3190166881	-2.2243325019	 0.9680492233	 0.119048
H	 3.1666715347	-2.1673975333	-0.7996858025	 0.125585
H	 0.0950253665	-1.0811194507	 1.9979211054	 0.104753
H	 3.0689166378	 1.6224434325	 3.2332864273	 0.199352
45.3722	136.9408	167.7179	215.4274	225.8709	317.7128	331.0486	405.229	421.6959	508.5196	594.1872	621.3092	638.1024	733.1214	804.3576	830.9529	883.6278	934.4272	987.5777	1009.8516	1082.3989	1123.579	1135.5316	1135.7738	1175.8842	1205.8282	1279.2274	1315.0463	1353.4798	1363.6176	1398.5885	1407.4788	1423.7084	1479.8709	1484.912	1488.5766	1493.0015	2230.4612	2990.5303	2995.6349	3041.2642	3041.7422	3072.4002	3110.6442	3110.8703	3130.2308	3131.6216	3502.4032
CC1OC(C)C1C#C	C[C@H]1O[C@@H](C)[C@H]1C#C	
InChI=1S/C7H10O/c1-4-7-5(2)8-6(7)3/h1,5-7H,2-3H3	InChI=1S/C7H10O/c1-4-7-5(2)8-6(7)3/h1,5-7H,2-3H3/t5-,6+,7+
