17
gdb 88290	2.98396	1.08986	1.03553	3.63	69.9	-0.2547	-0.0457	0.2091	1233.5514	0.133354	-458.92802	-458.919125	-458.91818	-458.962512	31.691	
C	 1.309758059	 1.6480872805	-0.0863308199	-0.434278
C	 0.0821644203	 0.8531608139	 0.2702510173	 0.082524
O	 0.1027572459	-0.5407212271	 0.0144386952	-0.231176
C	 0.0162245836	-0.1420362422	 1.3793801357	-0.075199
C	 1.2109837542	-0.4304401126	 2.2447310912	 0.347955
O	 2.3111549329	-0.6818240218	 1.8066594593	-0.312568
C	 0.9974027481	-0.3714898735	 3.7342956576	-0.017089
C	 0.2881338472	 0.7692073193	 4.353281608	-0.176537
O	-0.3352797563	-0.5001784767	 4.2386841639	-0.214261
H	 2.2163181569	 1.1261107571	 0.2215501752	 0.164756
H	 1.3443058219	 1.7996478531	-1.170208495	 0.134539
H	 1.275523784	 2.6353066327	 0.3869269979	 0.118111
H	-0.8706343486	 1.3296724633	 0.0269894753	 0.099941
H	-0.946430226	-0.3172665459	 1.8548505049	 0.123119
H	 1.7730892944	-0.8771252875	 4.30603872	 0.12511
H	 0.5680570221	 1.0721323323	 5.3605290848	 0.136729
H	-0.1229743795	 1.5549210154	 3.7214685686	 0.128325
45.0298	86.1957	168.4242	176.5862	203.5514	254.2123	287.7123	371.8009	442.4454	496.6833	566.5467	729.9455	778.7859	829.8449	859.876	877.5931	905.5	944.0016	1001.5646	1037.7619	1082.5205	1091.537	1150.7495	1162.3363	1168.5461	1175.8609	1205.0739	1261.1482	1283.3003	1384.3479	1392.5716	1414.5889	1448.8078	1490.0334	1502.6581	1522.3	1797.4142	3041.2	3081.0326	3090.3988	3101.3777	3142.4034	3143.6587	3155.3205	3182.552
CC1OC1C(=O)C1CO1	C[C@H]1O[C@H]1C(=O)[C@H]1CO1	
InChI=1S/C6H8O3/c1-3-6(9-3)5(7)4-2-8-4/h3-4,6H,2H2,1H3	InChI=1S/C6H8O3/c1-3-6(9-3)5(7)4-2-8-4/h3-4,6H,2H2,1H3/t3-,4-,6-/m1/s1
