20
gdb 82184	2.82925	1.60867	1.2791	3.175	77.97	-0.2328	0.0736	0.3064	1067.4923	0.17119	-403.114492	-403.106289	-403.105344	-403.1467	32.536	
C	 0.1311736296	 1.5876817145	-0.0080678925	-0.392671
C	 0.0132679274	 0.0601143772	 0.0091904058	-0.020915
C	 0.6520817873	-0.6198420226	-1.2063622627	 0.021989
O	 2.0565041222	-0.3949759267	-1.3583813454	-0.236102
C	 1.6348117542	-1.621140166	-0.7620225057	-0.008064
C	 1.654056547	-1.6474223773	 0.7627274985	 0.307577
C	 1.8982558583	-2.9594026687	 1.4601090134	-0.507677
N	 2.1387406467	-0.374226478	 1.3396532096	-0.349615
C	 0.6845459167	-0.6115857481	 1.2153004021	-0.110553
H	 1.1850731604	 1.8732394705	-0.0176751744	 0.154209
H	-0.3543786823	 2.0121910579	-0.8928302629	 0.108763
H	-0.3398960591	 2.0280156127	 0.8766531081	 0.10703
H	-1.0468028589	-0.2282350025	 0.0190301439	 0.072055
H	 0.0942844507	-0.6940676065	-2.1386094893	 0.089187
H	 1.8737760897	-2.5253832168	-1.3171809392	 0.08848
H	 2.935179385	-3.2908469185	 1.3307197377	 0.13031
H	 1.7020914877	-2.8753557392	 2.5339438311	 0.116607
H	 1.2467786209	-3.7469596588	 1.0645117768	 0.125554
H	 2.4144528206	-0.5410748377	 2.3061447967	 0.223478
H	 0.1054999457	-0.7366561653	 2.1268333486	 0.080361
140.888	186.5503	209.9384	221.4321	249.1224	296.5442	357.2977	441.9781	523.54	554.5802	595.2998	689.2566	754.2096	812.1692	852.8927	862.1681	874.0677	913.7661	941.4398	960.4661	1000.8095	1033.5382	1040.2433	1068.18	1094.253	1122.3738	1133.4033	1140.0473	1164.4873	1256.3058	1280.4962	1301.3564	1320.3676	1338.0158	1360.1896	1398.4108	1417.3909	1428.822	1448.5957	1485.6669	1494.8963	1501.368	1504.4544	3017.7495	3023.5953	3038.576	3085.2632	3097.7363	3099.4572	3120.7689	3135.4724	3137.1961	3141.2256	3475.5783
CC1C2OC2C2(C)NC12	C[C@H]1[C@H]2O[C@H]2[C@@]2(C)N[C@@H]12	
InChI=1S/C7H11NO/c1-3-4-6(9-4)7(2)5(3)8-7/h3-6,8H,1-2H3	InChI=1S/C7H11NO/c1-3-4-6(9-4)7(2)5(3)8-7/h3-6,8H,1-2H3/t3-,4+,5-,6+,7-/m0/s1
