20
gdb 90983	2.69156	1.86131	1.35219	2.0396	78.13	-0.2265	0.0657	0.2922	1003.3831	0.171978	-403.092592	-403.084804	-403.08386	-403.124303	31.709	
C	-0.149325525	 1.5438417772	 0.0011829413	-0.401323
C	 0.0160549288	 0.0245098433	 0.0025616717	-0.076842
C	 0.9834938451	-0.5490766496	-1.0612651618	-0.184701
N	 2.0197116865	-1.271160929	-0.2714353869	-0.131702
C	 1.287425852	-1.9576907924	 0.8749481865	-0.097299
C	 2.5223365333	-1.7216986637	 1.7620554036	-0.244167
C	 2.2895348856	-0.4223298888	 0.9680859878	-0.061423
C	 0.7564553392	-0.5190428857	 1.230029127	 0.435592
O	 0.2843743642	-0.1796857728	 2.4975573672	-0.492411
H	 0.8241739598	 2.0460161055	 0.0266269081	 0.117281
H	-0.6772952082	 1.8843587817	-0.8952373547	 0.113045
H	-0.7149236664	 1.8783146844	 0.8768102647	 0.11492
H	-0.9753787295	-0.4441217657	-0.0686865339	 0.058969
H	 0.5081855839	-1.2502522446	-1.7532903424	 0.102615
H	 1.4664946813	 0.23463283	-1.6538993647	 0.104029
H	 0.7162494872	-2.8751110952	 0.7110317921	 0.069708
H	 2.3483870396	-1.6705077008	 2.8363435535	 0.110457
H	 3.4151402158	-2.287857375	 1.4942990529	 0.102787
H	 2.9103623481	 0.4745170219	 0.9186666379	 0.077167
H	-0.6519096611	-0.4015957306	 2.5452886902	 0.283297
130.1857	213.8434	237.2954	263.3445	335.3941	340.1982	372.1755	470.006	494.2083	627.6015	679.5937	705.3083	754.9276	838.2093	858.4452	899.8681	913.0052	928.263	946.2014	973.7216	1018.3644	1038.8589	1069.933	1098.4097	1107.0624	1131.6641	1145.1127	1159.8601	1163.6851	1211.122	1217.9492	1246.6289	1252.5278	1277.6416	1290.9112	1324.9804	1373.5716	1383.0674	1410.8825	1488.9226	1494.5212	1495.2247	1499.8885	3001.8487	3030.6551	3048.8717	3077.2801	3086.3649	3093.2107	3098.7282	3101.0815	3103.2358	3162.9565	3802.9956
CC1CN2C3CC2C13O	C[C@H]1CN2[C@H]3C[C@@H]2[C@@]13O	
InChI=1S/C7H11NO/c1-4-3-8-5-2-6(8)7(4,5)9/h4-6,9H,2-3H2,1H3	InChI=1S/C7H11NO/c1-4-3-8-5-2-6(8)7(4,5)9/h4-6,9H,2-3H2,1H3/t4-,5-,6+,7+/m0/s1
