19
gdb 84067	2.33307	1.5253	1.00999	2.0235	78.65	-0.2391	-0.0492	0.19	1202.051	0.15801	-423.070763	-423.061235	-423.060291	-423.105679	34.623	
C	-0.1823552478	 1.573739167	-0.0015446308	-0.385453
C	 0.0798673683	 0.0681916142	-0.0191689472	-0.146882
C	 0.831940473	-0.4924078263	-1.259588026	 0.069248
O	 1.4169661405	 0.4872489135	-2.1136001183	-0.418675
C	 1.882335311	-1.4054164326	-0.6665132762	-0.203526
C	 1.95689586	-1.3515743899	 0.6707689965	 0.206495
C	 2.8880811672	-2.0518887312	 1.6043187011	-0.491449
C	 0.9166576419	-0.4098716376	 1.1766961467	 0.324747
O	 0.7591460649	-0.0875128181	 2.3324894077	-0.332194
H	 0.7428370394	 2.1468888431	-0.1123564126	 0.106104
H	-0.8529617128	 1.8682563399	-0.8123786174	 0.123527
H	-0.6334169439	 1.8502676123	 0.954819703	 0.136584
H	-0.8836640102	-0.4516913364	 0.0676236545	 0.107537
H	 0.1509583403	-1.041503208	-1.9182962587	 0.097275
H	 2.1358191199	 0.908518296	-1.6293710019	 0.279019
H	 2.5300955811	-1.9935493304	-1.3096931787	 0.111834
H	 3.6059705168	-2.6792457652	 1.0707683917	 0.12381
H	 3.4356633188	-1.3251246984	 2.213860079	 0.14644
H	 2.3273379417	-2.6773801421	 2.3076479975	 0.14556
34.5442	99.2934	141.5007	188.1908	224.0895	256.3631	270.6001	342.7542	357.8928	408.3078	491.9256	562.5245	577.1316	703.3916	722.9213	775.8878	834.7917	911.0619	945.2983	1000.39	1019.7226	1039.1366	1061.2824	1082.8929	1118.1276	1148.2606	1219.9773	1252.5066	1268.895	1320.962	1326.0299	1343.6362	1407.7421	1412.3584	1429.1263	1472.4153	1481.5175	1491.7939	1497.5141	1697.2392	1808.3216	3020.6831	3038.2686	3047.5052	3056.1909	3092.5107	3115.1496	3125.3358	3130.6036	3182.282	3801.6297
CC1C(O)C=C(C)C1=O	C[C@H]1[C@@H](O)C=C(C)C1=O	
InChI=1S/C7H10O2/c1-4-3-6(8)5(2)7(4)9/h3,5-6,8H,1-2H3	InChI=1S/C7H10O2/c1-4-3-6(8)5(2)7(4)9/h3,5-6,8H,1-2H3/t5-,6-/m0/s1
