19
gdb 80753	3.18035	1.21487	1.17364	3.0823	76.58	-0.2312	0.0218	0.253	1136.1155	0.160535	-419.207472	-419.199076	-419.198131	-419.240918	31.057	
C	 0.2068904182	 1.7207439294	 0.1237191184	-0.330377
N	 0.1283561482	 0.2678875833	 0.0557664063	-0.086731
C	 1.2396901547	-0.5693516553	-0.3598351949	-0.043022
C	 2.6587388145	-0.0240136022	-0.33268503	-0.207077
N	 2.8545023496	 0.4049746097	 1.0525116936	-0.044429
C	 1.8189245721	-0.0808243957	 1.9655029519	-0.188699
C	 0.7285887417	-0.6074168041	 1.0489983199	-0.05082
C	 3.8911951093	 1.1642218031	 1.487069164	 0.139146
O	 4.0689182064	 1.4926127436	 2.6429424697	-0.338073
H	 1.1603462524	 2.1297219419	 0.4829466378	 0.122822
H	 0.0139493496	 2.1240180732	-0.8752168082	 0.127421
H	-0.5882099683	 2.0786659203	 0.7846432618	 0.131588
H	 1.0144368733	-1.3310598674	-1.1011943594	 0.099608
H	 3.3572536863	-0.8223284227	-0.6200794923	 0.117934
H	 2.8097674662	 0.8142761786	-1.0235588107	 0.122552
H	 2.1963383718	-0.887145289	 2.6079069354	 0.122267
H	 1.497815734	 0.7324355745	 2.6245481702	 0.135624
H	 0.0924000054	-1.4012177556	 1.4303202916	 0.10004
H	 4.5679221144	 1.4619765044	 0.6605509749	 0.070226
47.3877	158.2227	196.2006	212.9858	229.3814	247.826	334.5797	431.3393	440.0135	566.3035	711.5461	720.983	764.0461	835.6639	873.2769	888.9152	990.331	1013.4495	1033.6596	1035.1003	1042.8635	1117.6076	1134.256	1162.1476	1180.2817	1203.8366	1224.2792	1234.1523	1317.9673	1322.4696	1330.1355	1352.8246	1404.2839	1413.4168	1444.3442	1462.4221	1494.7058	1500.6353	1514.9217	1518.5396	1790.2367	2926.0938	3003.1568	3015.0246	3023.6652	3046.5609	3071.8161	3081.8156	3106.6359	3142.5401	3151.8264
CN1C2CN(CC12)C=O	CN1[C@H]2CN(C[C@@H]12)C=O	
InChI=1S/C6H10N2O/c1-7-5-2-8(4-9)3-6(5)7/h4-6H,2-3H2,1H3	InChI=1S/C6H10N2O/c1-7-5-2-8(4-9)3-6(5)7/h4-6H,2-3H2,1H3/t5-,6+,7?
