16
gdb 27622	3.08348	1.23918	0.88981	1.9013	83.51	-0.1846	0.0061	0.1907	1258.8044	0.122998	-400.756912	-400.747883	-400.746938	-400.790363	33.523	
C	 0.132196378	 1.4517490644	 0.048097261	-0.50591
C	-0.0341841679	-0.0198322573	 0.0032543057	 0.243869
C	-1.125780913	-0.8408760572	-0.0568820412	 0.097624
C	-0.6248974919	-2.2006804672	-0.0607420259	-0.414747
C	 0.7276118856	-2.091369357	-0.0099800998	 0.386497
N	 1.7729651911	-3.0013073647	-0.0709634951	-0.599781
O	 1.1051279093	-0.7858597747	 0.028290779	-0.205013
C	-2.4775450988	-0.4303336681	-0.0971525155	 0.224149
C	-3.6339498963	-0.0927816073	-0.1311565486	-0.448254
H	 0.7180303698	 1.820541119	-0.8024075434	 0.136879
H	-0.8526603492	 1.9224988559	 0.019003375	 0.149129
H	 0.6435559546	 1.7762902115	 0.9625089147	 0.134131
H	-1.2107645415	-3.1038661875	-0.0951700542	 0.106011
H	 1.4873752541	-3.937127614	 0.1819911205	 0.256944
H	 2.5745636204	-2.7123940012	 0.4761100149	 0.255954
H	-4.6514471444	 0.2076861054	-0.1615730873	 0.182516
132.6319	133.3252	138.5433	178.4799	203.9761	270.844	304.9974	402.5847	476.3869	519.8279	534.6547	569.0747	643.4381	651.2225	653.3984	682.3914	719.4077	746.768	797.0703	958.8235	1033.635	1061.4733	1099.8727	1131.4409	1187.9182	1254.1588	1340.4058	1409.9198	1439.576	1472.0942	1486.944	1618.1361	1639.9294	1677.7758	2228.8875	3022.2731	3068.6759	3133.7271	3272.5416	3504.9189	3542.5142	3645.041
CC1=C(C=C(N)O1)C#C	Cc1c(cc(N)o1)C#C	
InChI=1S/C7H7NO/c1-3-6-4-7(8)9-5(6)2/h1,4H,8H2,2H3	InChI=1S/C7H7NO/c1-3-6-4-7(8)9-5(6)2/h1,4H,8H2,2H3
