14
gdb 8104	2.99275	2.00958	1.52223	3.3471	58.5	-0.2419	-0.0114	0.2304	833.5555	0.105082	-419.652073	-419.644497	-419.643553	-419.683775	28.262	
O	-0.138382192	 1.4082063434	-0.0194747044	-0.416332
C	-0.1249245864	 0.0148158266	 0.0102027954	 0.030428
C	-0.4671885608	-0.8061224175	 1.2592170342	-0.311539
C	-1.5566952292	-0.1111574008	 2.0227882989	 0.446219
O	-1.7069776149	 0.1495794762	 3.1822958514	-0.31709
C	-2.4853910773	-0.0119199901	 0.7896242037	-0.418723
C	-1.3895620722	-0.7469823947	-0.0051938335	 0.359038
O	-1.6327534847	-1.7980557292	-0.8619600446	-0.451786
H	 0.5808933037	 1.7324670859	 0.5335182099	 0.296792
H	 0.6746053529	-0.455543973	-0.5652055064	 0.105046
H	 0.2096087828	-1.5692224791	 1.6244627483	 0.11563
H	-3.3683327761	-0.6408714954	 0.9346555626	 0.136219
H	-2.776867968	 0.9850131968	 0.453965568	 0.130752
H	-1.7475107079	-1.4473796891	-1.7525807236	 0.295346
100.7789	159.9241	234.1932	262.6928	318.9597	344.1443	432.4003	472.1184	518.9973	600.8568	638.9011	676.0906	760.4664	848.319	923.171	953.9825	974.1475	1040.0188	1091.7845	1102.8189	1136.6687	1198.9781	1207.3882	1255.8469	1289.1471	1320.3566	1349.898	1439.1901	1494.5527	1887.0854	3069.5137	3095.5231	3132.1892	3195.1384	3794.7459	3804.7158
OC1C2C(=O)CC12O	O[C@H]1[C@H]2C(=O)C[C@@]12O	
InChI=1S/C5H6O3/c6-2-1-5(8)3(2)4(5)7/h3-4,7-8H,1H2	InChI=1S/C5H6O3/c6-2-1-5(8)3(2)4(5)7/h3-4,7-8H,1H2/t3-,4+,5+/m1/s1
