21
gdb 108200	3.10617	1.35068	1.24666	2.6819	76.35	-0.2457	0.0717	0.3175	1115.6553	0.184488	-424.239911	-424.231897	-424.230952	-424.272448	31.717	
C	-0.0411644966	 1.5489212908	 0.0466103766	-0.39312
C	 0.0290916183	 0.0187184077	-0.053483588	-0.280801
C	 0.7412459431	-0.5069036107	-1.2920264573	 0.242397
C	 2.238416243	-0.1422466805	-1.4352150829	-0.099088
O	 2.7313562698	-1.0706237879	-2.4228937564	-0.270642
C	 1.6070684758	-1.8561578778	-2.7844602911	 0.204116
C	 0.8575986642	-2.040963207	-1.4672935531	-0.297044
O	 0.7112232425	-1.092129551	-3.5753954357	-0.270657
C	 0.0967673455	-0.165190033	-2.6568961045	-0.099053
H	 0.9564337559	 1.9991069003	 0.075935822	 0.12323
H	-0.5777589523	 1.9862533779	-0.8016617364	 0.123199
H	-0.5651611662	 1.8509743106	 0.958212947	 0.118515
H	 0.5344531979	-0.3786205601	 0.8360730243	 0.100594
H	-0.9886312521	-0.3916928884	-0.0341481448	 0.100582
H	 2.3984424151	 0.8831535598	-1.7871918552	 0.103658
H	 2.7870810574	-0.2802128374	-0.4934376118	 0.094865
H	 1.9448778613	-2.7156482326	-3.3605415462	 0.090041
H	 1.4549158416	-2.5280529492	-0.6931693764	 0.105349
H	-0.104768766	-2.544719163	-1.5829801018	 0.105353
H	-0.9907459716	-0.3209208337	-2.6484274926	 0.094861
H	 0.3014894834	 0.8607276053	-2.9832693155	 0.103647
75.4167	179.5669	182.6447	229.5289	322.5077	346.322	432.503	480.7005	504.6601	593.0414	598.9613	779.317	803.9542	816.8798	902.9828	917.1515	941.4612	946.0038	960.5931	978.8382	979.1667	1015.9996	1063.0007	1070.6311	1079.0519	1118.8749	1159.2914	1189.4199	1204.5802	1244.5084	1248.1426	1270.4398	1309.8425	1320.0239	1336.8036	1371.9536	1373.0973	1401.8394	1410.7248	1481.0402	1485.935	1501.4124	1505.2008	1519.236	1537.7838	3003.725	3007.0878	3018.4077	3036.235	3048.8392	3055.9379	3061.0057	3068.3338	3104.2457	3107.9413	3127.7632	3150.437
CCC12COC(C1)OC2	CC[C@@]12CO[C@@H](C1)OC2	
InChI=1S/C7H12O2/c1-2-7-3-6(8-4-7)9-5-7/h6H,2-5H2,1H3	InChI=1S/C7H12O2/c1-2-7-3-6(8-4-7)9-5-7/h6H,2-5H2,1H3/t6-,7+
