15
gdb 125012	3.36988	1.28989	0.93978	6.5686	76.43	-0.2184	-0.0218	0.1967	1179.3225	0.114327	-413.028106	-413.019427	-413.018482	-413.061623	31.037	
C	-0.0462989197	 1.5319896139	 0.0832618946	-0.517719
C	 0.0019969407	 0.0457727817	-0.0257974276	 0.334991
C	-0.0230491829	-0.78424765	-1.1344161634	 0.043978
N	-0.1605751782	-0.4134064372	-2.4741736789	-0.622368
C	 0.0370158348	-2.0990126312	-0.5963290959	 0.211309
N	 0.0921626156	-2.0898145249	 0.7451960897	-0.294282
N	 0.080533367	-0.7950273155	 1.0492027467	-0.25382
C	 0.0397402442	-3.2987162132	-1.3526996562	 0.230237
N	 0.0458096515	-4.2268442611	-2.0461978923	-0.358861
H	 0.9504017622	 1.9898025113	 0.0564824347	 0.142257
H	-0.6243530577	 1.9452615306	-0.7485969247	 0.154186
H	-0.529718567	 1.8488670312	 1.0128366829	 0.136361
H	 0.4724984532	 0.3212252354	-2.7622317285	 0.251224
H	-0.0738896766	-1.2013063688	-3.1039941514	 0.26242
H	 0.1153042928	-0.5293211122	 2.0201275605	 0.280086
88.8031	116.0292	133.1324	187.3113	237.4551	272.4225	318.4709	407.7018	517.4975	520.0179	565.6533	593.5547	666.1059	708.1657	738.6841	757.4876	776.7778	994.0769	1007.8065	1061.1078	1199.8863	1239.7515	1270.716	1303.7662	1410.1704	1429.4601	1462.6119	1481.2426	1493.3623	1543.4848	1639.4906	1659.7362	2342.3282	3024.2103	3082.6396	3112.9131	3537.4197	3624.7926	3657.3769
CC1=C(N)C(=NN1)C#N	Cc1c(N)c(n[nH]1)C#N	
InChI=1S/C5H6N4/c1-3-5(7)4(2-6)9-8-3/h7H2,1H3,(H,8,9)	InChI=1S/C5H6N4/c1-3-5(7)4(2-6)9-8-3/h7H2,1H3,(H,8,9)
