14
gdb 5424	3.39351	1.90408	1.22906	7.2298	67.61	-0.2369	-0.0325	0.2044	923.7848	0.108044	-378.777942	-378.770583	-378.769638	-378.810015	26.028	
C	 0.0018328352	 1.5194588437	 0.0761493732	-0.510184
C	 0.0172674606	 0.0320422359	-0.0404242116	 0.260233
C	-0.0308494472	-0.8397643858	-1.1183232051	 0.104322
C	-0.1160998834	-0.4697917161	-2.529776434	 0.080525
O	-0.1572531254	-1.2396837705	-3.4609337894	-0.271123
N	 0.013095752	-2.1549482678	-0.6829139501	-0.285184
C	 0.085615909	-2.0855422573	 0.6147404996	 0.01582
N	 0.0915860411	-0.7845522081	 1.0581548758	-0.295723
H	 0.909290151	 1.8940265923	 0.5642654267	 0.142181
H	-0.0596509472	 1.9828189685	-0.9092165109	 0.157017
H	-0.8566653334	 1.8681184534	 0.662235465	 0.142213
H	-0.1422003773	 0.6312566317	-2.7024889437	 0.051651
H	 0.1366710913	-2.9208331439	 1.298007603	 0.139483
H	 0.1408226938	-0.4792872961	 2.0170819116	 0.268769
74.0579	138.0736	198.0641	216.2375	311.3903	318.7416	529.3754	554.8158	637.9403	661.8363	710.0183	817.5669	831.5252	952.7646	989.5177	1022.491	1059.8141	1092.7587	1127.8677	1270.4904	1328.7016	1380.0246	1407.9631	1418.998	1459.0291	1479.9846	1487.9038	1550.0455	1601.7454	1801.2331	2853.0429	3028.5728	3077.2612	3141.717	3248.1301	3646.1788
CC1=C(C=O)N=CN1	Cc1c(C=O)nc[nH]1	
InChI=1S/C5H6N2O/c1-4-5(2-8)7-3-6-4/h2-3H,1H3,(H,6,7)	InChI=1S/C5H6N2O/c1-4-5(2-8)7-3-6-4/h2-3H,1H3,(H,6,7)
