14
gdb 128949	7.52996	0.77149	0.70289	3.5038	68.83	-0.232	0.0014	0.2334	1469.4571	0.102452	-432.871731	-432.863869	-432.862924	-432.905384	27.732	
N	-0.0269971414	-1.1540367978	-0.0053629167	-0.285072
C	 0.0015903946	-0.0003012595	 0.0015222186	 0.27694
C	-0.0118062603	 1.4638851118	 0.0108989368	-0.22059
O	 1.3214244585	 1.927617277	 0.0002403641	-0.264503
C	 1.4495911989	 3.2851391788	 0.0052419955	 0.28837
C	 2.6638856944	 3.9431438102	-0.0066400909	-0.14654
N	 2.3531144184	 5.2643051001	 0.0039907781	-0.169112
N	 1.0381674647	 5.5110268466	 0.0216857413	-0.225545
C	 0.4694815357	 4.3035869107	 0.0227101225	-0.110961
H	-0.5655305058	 1.8216478489	-0.8696551627	 0.156613
H	-0.5474577442	 1.8103525241	 0.9070241495	 0.156607
H	 3.6753374543	 3.574123095	-0.0211776023	 0.14674
H	 2.9936377259	 6.0397807277	-0.0001671416	 0.282312
H	-0.6060985339	 4.2208304161	 0.0357623676	 0.114741
45.518	82.7856	116.106	237.6718	326.6415	393.0931	429.7707	516.264	520.3232	647.4862	696.5824	743.4261	762.5126	841.5465	942.1714	963.8789	1010.6244	1037.6772	1061.0972	1106.116	1169.417	1250.4486	1268.98	1339.2875	1383.0868	1400.1228	1429.3727	1497.003	1510.0983	1628.1672	2378.0984	2994.6219	3027.4946	3256.136	3281.3929	3676.0849
N#CCOC1=CNN=C1	N#CCOc1c[nH]nc1	
InChI=1S/C5H5N3O/c6-1-2-9-5-3-7-8-4-5/h3-4H,2H2,(H,7,8)	InChI=1S/C5H5N3O/c6-1-2-9-5-3-7-8-4-5/h3-4H,2H2,(H,7,8)
