14
gdb 66409	2.36712	1.56105	1.31791	3.8409	68.5	-0.2619	-0.0158	0.2462	996.5501	0.100686	-432.835156	-432.827068	-432.826124	-432.868028	29.642	
O	 0.1197157699	 1.4368926392	 0.1971391662	-0.444498
C	 0.0281447386	 0.0911580723	 0.0022782602	 0.342665
C	-1.1467950833	-0.8881224977	-0.1053681829	-0.108744
N	-0.4350421233	-1.6187591692	-1.1546516051	-0.346494
C	 0.6771630354	-0.7177489409	-1.085689746	 0.293864
N	 1.7355152661	-0.5313171706	-1.7378878138	-0.535583
C	-0.3314230119	-0.8110328028	 1.180748122	-0.251983
C	 0.4832108988	-1.9116578868	 1.6223639541	 0.300685
N	 1.1221376535	-2.8238871412	 1.9351570013	-0.338742
H	 0.3986431427	 1.8364141975	-0.6360598004	 0.312383
H	-2.215864217	-0.7285537977	-0.1427211946	 0.135108
H	-0.2597501934	-2.611714249	-1.024455135	 0.253952
H	 1.8774013167	-1.2451105264	-2.4545059556	 0.233827
H	-0.8110842029	-0.2446856767	 1.9751856597	 0.153559
94.7968	124.0621	135.0828	200.6299	294.4307	351.2415	392.3147	478.3584	511.5371	594.7814	667.1517	699.283	737.7617	785.799	826.3139	877.1753	903.5842	926.8556	974.0361	1015.1066	1038.0201	1087.8273	1149.8058	1225.5213	1272.8979	1333.0185	1342.4813	1366.9881	1472.9821	1812.3221	2351.8111	3158.5768	3215.4694	3474.1145	3510.9588	3793.0091
OC12C(NC1=N)C2C#N	O[C@@]12[C@@H](N[C]1[NH])[C@H]2C#N	
InChI=1S/C5H5N3O/c6-1-2-3-5(2,9)4(7)8-3/h2-3,9H,(H2,7,8)	InChI=1S/C5H5N3O/c6-1-2-3-5(2,9)4(7)8-3/h2-3,9H,(H2,7,8)/t2-,3+,5+/m1/s1
