20
gdb 113399	4.31742	0.98818	0.9199	2.647	80.36	-0.2338	0.0771	0.311	1349.4441	0.17034	-403.044551	-403.036134	-403.03519	-403.077845	32.447	
C	-0.3863413879	 1.543653612	 0.2258987247	-0.373315
C	 0.2644469322	 0.2061216835	-0.1418909753	-0.184523
C	 0.9838426093	-0.426103903	 1.0287903266	-0.138212
N	 0.1209371995	-1.1334460851	 2.024309782	-0.413407
C	 1.0727151383	-1.877496675	 1.2459459544	 0.474859
C	 0.8576098212	-3.1782062878	 0.4526645967	-0.046166
C	 2.3755440951	-3.19921012	 0.1439045582	-0.217636
C	 2.1787161084	-2.8671952126	 1.644546532	-0.066891
O	 1.1434029831	-3.9296452347	 1.7047794251	-0.312335
H	 0.3620728932	 2.2715140334	 0.5593044832	 0.109806
H	-0.9137356271	 1.9768140404	-0.6292881624	 0.112323
H	-1.1072803283	 1.4060147112	 1.0373467085	 0.13266
H	-0.5001651981	-0.4923025499	-0.49932204	 0.104169
H	 0.9769947521	 0.3474478387	-0.96518766	 0.095352
H	 1.8034171334	 0.1683591034	 1.4359724482	 0.082906
H	 0.4467764824	-0.9880699763	 2.9765755222	 0.233607
H	 0.0127518154	-3.5056717537	-0.1512922407	 0.102245
H	 2.7811936337	-4.1932986714	-0.0444552916	 0.110215
H	 2.7857060077	-2.4268663009	-0.5115873038	 0.099554
H	 2.9093827563	-2.8240454521	 2.453141162	 0.09479
73.0528	110.4676	160.9441	213.1709	248.5499	319.1996	378.5263	461.5594	501.2578	630.2122	688.3834	750.3895	767.0444	799.6166	850.4389	864.1272	900.3691	904.2956	912.4662	971.852	1008.7183	1025.2437	1044.3336	1079.2829	1095.7648	1106.1751	1123.2273	1139.4605	1169.9324	1192.8373	1220.5041	1236.046	1248.2179	1262.5081	1299.8045	1335.6213	1381.9325	1406.7925	1474.9782	1475.4528	1497.0625	1506.3	1527.4541	3023.6594	3033.0431	3065.9574	3066.6218	3093.6392	3102.5677	3114.3914	3114.7249	3136.3287	3155.0369	3501.0273
CCC1NC11C2CC1O2	CC[C@H]1N[C@]21[C@H]1C[C@@H]2O1	
InChI=1S/C7H11NO/c1-2-4-7(8-4)5-3-6(7)9-5/h4-6,8H,2-3H2,1H3	InChI=1S/C7H11NO/c1-2-4-7(8-4)5-3-6(7)9-5/h4-6,8H,2-3H2,1H3/t4-,5-,6+,7-/m1/s1
