20
gdb 109830	2.11882	1.34072	1.00056	2.6577	77.46	-0.2575	0.0075	0.265	1268.4825	0.169525	-440.257396	-440.24735	-440.246405	-440.293062	35.717	
C	-0.2888865281	 1.5948288913	 0.0970093879	-0.411506
C	-0.1590494254	 0.0899563222	-0.0260520224	-0.07948
C	 0.6608993984	-0.6026743101	-1.1128609037	-0.079473
C	 1.4585931132	 0.1728055741	-2.1479860003	-0.097081
O	 2.7055135862	-0.4436864165	-2.4460010686	-0.430612
C	 1.1113964042	-0.6216027849	 0.3259172601	 0.089589
O	 2.2161169016	 0.1951188853	 0.6607573693	-0.188207
C	 3.4137313158	-0.4220575061	 0.6464050949	 0.125522
N	 4.4633279164	 0.2469297239	 0.426467932	-0.445254
H	 0.6683278515	 2.102456272	-0.02903458	 0.14462
H	-0.993040876	 1.9903668271	-0.6421446497	 0.120462
H	-0.6663374864	 1.857619803	 1.0906851145	 0.122226
H	-1.0589760217	-0.4469015042	 0.263426015	 0.093318
H	 0.2610195296	-1.5420474111	-1.4854173954	 0.092562
H	 0.889959258	 0.1962052749	-3.0843733362	 0.108627
H	 1.602225917	 1.2112989903	-1.8339949867	 0.106594
H	 3.362812768	-0.089380868	-1.8363964516	 0.296283
H	 1.0735324052	-1.5472291642	 0.8970143446	 0.099156
H	 3.3566268751	-1.4993184034	 0.853579387	 0.097549
H	 5.2818496675	-0.3535381156	 0.5088908492	 0.235106
65.1299	84.3569	95.9196	135.4784	147.3233	184.442	250.3957	293.321	349.8618	430.7429	470.4523	557.276	584.0506	650.8672	754.3426	822.7442	850.7876	903.3632	944.7682	977.4708	992.777	1050.6185	1055.4386	1074.0803	1100.4904	1113.019	1140.7632	1153.328	1175.6041	1239.1944	1262.7668	1294.1103	1356.664	1367.4978	1411.0509	1413.2192	1415.6325	1426.5596	1445.7041	1495.5956	1497.5001	1507.9305	1733.8485	3030.935	3038.7466	3042.8887	3081.5147	3097.6387	3117.359	3129.2295	3141.5397	3150.5235	3511.5731	3794.5875
CC1C(CO)C1OC=N	C[C@H]1[C@@H](CO)[C@H]1O[CH][NH]	
InChI=1S/C6H11NO2/c1-4-5(2-8)6(4)9-3-7/h3-8H,2H2,1H3	InChI=1S/C6H11NO2/c1-4-5(2-8)6(4)9-3-7/h3-8H,2H2,1H3/t4-,5+,6-/m0/s1
