13
gdb 133275	2.48832	1.60064	0.97993	0.4153	71.25	-0.2423	-0.0857	0.1566	1103.4351	0.085897	-493.961537	-493.953426	-493.952481	-493.994727	28.81	
C	-0.1328639403	 1.4200043037	 0.0041385456	-0.337201
N	-0.1252623517	-0.025589214	-0.0694758429	-0.29347
C	 0.5658270659	-0.6435413093	-0.934047368	 0.322745
N	 1.3936863099	 0.0346369841	-1.9061905936	-0.134086
N	 2.0866697315	-0.4656140417	-2.7677876983	 0.040805
O	 2.1234738524	-1.9515377494	-2.878850961	-0.252279
C	 1.3779217053	-2.6531259943	-2.0073399573	-0.004609
C	 0.6185633028	-2.0794301514	-1.0620276901	 0.120837
F	-0.0965286095	-2.8217770143	-0.2291967865	-0.042324
H	 0.4987747656	 1.9224924297	-0.735524191	 0.136797
H	-1.1665027592	 1.7666856359	-0.1096234187	 0.140026
H	 0.1845658613	 1.7167360759	 1.0104525963	 0.140002
H	 1.4486339459	-3.7273461149	-2.1410719645	 0.162758
70.5194	118.5376	178.7083	207.96	316.6812	322.227	385.8812	408.1005	509.922	534.6466	558.688	591.9385	739.3014	759.4595	890.2566	892.0838	1050.8687	1068.3309	1125.7363	1157.1163	1185.3992	1289.4087	1415.687	1436.1179	1487.9624	1489.7416	1657.5435	1715.1904	1743.3512	3020.7951	3078.7173	3099.9135	3197.6557
CN=C1N=NOC=C1F	C[N]C1=N[N]OC=C1F	
InChI=1S/C4H4FN3O/c1-6-4-3(5)2-9-8-7-4/h2H,1H3	InChI=1S/C4H4FN3O/c1-6-4-3(5)2-9-8-7-4/h2H,1H3
