18
gdb 115043	1.8942	1.76466	0.9906	4.6022	76.61	-0.2085	0.0026	0.2111	1182.5251	0.148011	-439.114637	-439.105822	-439.104878	-439.148625	31.951	
O	 0.0638421987	 1.387740779	 0.0650975587	-0.417375
C	 0.0502984309	-0.0280119878	 0.0351221076	-0.074615
C	-1.4042389165	-0.4968234437	 0.0086490498	 0.009311
C	-1.5014799551	-2.048890447	-0.0803151212	-0.299537
C	-2.0013090731	-2.4454916699	 1.2913072954	-0.159737
C	-2.3344677244	-1.3606818758	 1.9902370416	 0.012937
N	-2.0989653496	-0.1792756748	 1.2726253339	-0.053475
C	-2.493278857	 1.0641903876	 1.690632687	 0.135121
O	-3.0476529866	 1.2799515719	 2.7492835388	-0.340282
H	 0.9389684991	 1.684992299	 0.328710654	 0.295234
H	 0.5560613672	-0.4140873551	-0.8643602501	 0.093189
H	 0.547219681	-0.4614594211	 0.9157805009	 0.104676
H	-1.9086894585	 0.0003712401	-0.824991597	 0.106256
H	-2.1893866374	-2.3694079659	-0.8725239827	 0.119597
H	-0.5259025471	-2.4876420172	-0.3224725556	 0.111573
H	-2.1000401335	-3.4660147922	 1.6306221973	 0.107046
H	-2.7513422385	-1.2663630909	 2.9815143794	 0.152476
H	-2.2464091797	 1.8456243838	 0.9548491221	 0.097605
65.6548	106.1218	146.7383	207.5933	215.1488	257.7975	293.7617	376.9275	419.9647	503.0619	556.525	737.7521	743.7029	805.9165	866.8722	886.1458	949.5542	963.9268	1011.6301	1018.6617	1029.2392	1074.2394	1098.476	1117.788	1168.4859	1228.0479	1261.6598	1272.8434	1287.1604	1306.5366	1328.9608	1367.8015	1429.5175	1444.1697	1451.848	1496.8785	1510.3367	1685.5444	1779.2048	2971.9475	3015.8214	3016.679	3021.1749	3046.8725	3072.2213	3240.6609	3270.0221	3841.8261
OCC1CC=CN1C=O	OC[C@H]1CC=CN1C=O	
InChI=1S/C6H9NO2/c8-4-6-2-1-3-7(6)5-9/h1,3,5-6,8H,2,4H2	InChI=1S/C6H9NO2/c8-4-6-2-1-3-7(6)5-9/h1,3,5-6,8H,2,4H2/t6-/m1/s1
