21
gdb 120561	3.88577	0.72173	0.69481	2.2425	75.93	-0.2495	0.0632	0.3126	1707.1929	0.181126	-461.327095	-461.317065	-461.316121	-461.3635	35.359	
C	 0.3148141093	 1.3262884086	 0.5345763242	-0.224898
O	 0.6599261127	-0.0284589527	 0.3665484227	-0.234962
C	-0.2505447531	-0.9105643493	 0.9793453954	-0.074198
C	 0.2321046648	-2.3250368731	 0.7163944978	 0.136276
C	 1.4264979681	-2.8503297657	 1.5391283078	-0.324492
C	 0.4286098782	-3.9036478949	 2.0605636109	 0.134438
C	 0.081557967	-3.9093659633	 3.5386850296	-0.065767
O	-1.126571394	-4.6075650468	 3.7616362034	-0.420786
O	-0.6600075335	-3.3048884085	 1.3004452818	-0.33046
H	 0.2895355449	 1.612154776	 1.5979350039	 0.105796
H	 1.0755786789	 1.9232531926	 0.0260264399	 0.129154
H	-0.6692517534	 1.5535327048	 0.0953384107	 0.107226
H	-0.3128738733	-0.7280818305	 2.0659151244	 0.085464
H	-1.2672618279	-0.7892900033	 0.5677374757	 0.095156
H	 0.331812449	-2.4753673453	-0.3657207333	 0.088386
H	 2.2692399604	-3.2327951606	 0.9638858786	 0.115679
H	 1.7929998951	-2.1529869772	 2.2963095381	 0.112226
H	 0.6087008127	-4.9296272855	 1.7162224757	 0.084793
H	 0.8643732172	-4.4199342461	 4.1115680782	 0.107723
H	 0.0210461469	-2.8700220354	 3.9029345028	 0.079803
H	-1.7677011199	-4.2235564838	 3.1505620519	 0.293443
36.8824	69.9443	91.5827	123.734	166.082	223.9164	231.4372	337.8957	383.006	405.4541	466.8519	471.1885	499.2816	748.9695	834.6311	887.0787	914.8895	948.4664	987.5114	1030.8783	1033.2905	1057.8321	1091.0329	1130.2824	1149.0376	1164.4879	1173.7351	1197.2803	1222.6138	1226.7663	1251.4166	1254.8894	1276.7368	1311.413	1347.8169	1371.4075	1397.4914	1428.0388	1439.8559	1482.2798	1485.6807	1490.1161	1498.2999	1503.9799	1526.4708	2950.7305	2964.382	2974.0576	2982.7907	3017.6661	3028.8771	3033.8998	3066.9296	3075.2494	3115.7656	3139.5062	3783.1786
COCC1CC(CO)O1	COC[C@H]1C[C@@H](CO)O1	
InChI=1S/C6H12O3/c1-8-4-6-2-5(3-7)9-6/h5-7H,2-4H2,1H3	InChI=1S/C6H12O3/c1-8-4-6-2-5(3-7)9-6/h5-7H,2-4H2,1H3/t5-,6+/m0/s1
