21
gdb 84914	2.14111	1.92135	1.30125	1.089	83.44	-0.2341	0.0238	0.2579	1067.9794	0.18426	-387.073203	-387.065169	-387.064225	-387.105268	32.572	
C	-0.4713593395	 1.4640068478	 0.1315448661	-0.398074
C	 0.0116717618	 0.003384612	 0.0225084349	-0.038103
C	 0.5951901289	-0.2581829584	-1.3562104567	-0.080226
C	 1.8429227307	-0.0398441784	-1.7720211759	-0.039146
C	 3.0162401334	 0.518670061	-1.0113092334	-0.1334
O	 2.7377021456	 1.036729405	 0.2779294012	-0.242326
C	 2.3714774452	 0.0423156788	 1.1869001412	 0.119622
C	 1.421108806	 0.4476997391	 2.2679220367	-0.338713
C	 0.9539480177	-0.4581718422	 1.1419262683	-0.059337
H	 0.3698977987	 2.1584637159	 0.0746063349	 0.136632
H	-1.1549304976	 1.6947639955	-0.6917469615	 0.107405
H	-1.0070792156	 1.6324302762	 1.0712432995	 0.110618
H	-0.8864259093	-0.6213143577	 0.105890277	 0.074275
H	-0.1126295012	-0.6341327315	-2.0931284796	 0.083522
H	 2.0887054184	-0.2778270628	-2.807059693	 0.084439
H	 3.8090335751	-0.2491209811	-0.947574864	 0.097827
H	 3.4454626991	 1.354262736	-1.5786519554	 0.115967
H	 3.1731943649	-0.6602800856	 1.4206495955	 0.078518
H	 1.5507605956	 0.0228448461	 3.257141939	 0.109376
H	 1.0963463607	 1.4811922576	 2.2596721929	 0.126312
H	 0.8281412815	-1.5048887132	 1.4055585524	 0.084812
105.7418	210.4085	245.1879	284.2093	300.3642	301.992	414.9874	434.0366	461.3057	504.1075	696.7571	719.2301	725.1452	776.7867	811.2874	857.2016	872.612	905.4672	972.4453	995.9791	1005.8492	1027.2143	1042.7801	1066.6017	1080.489	1112.0529	1126.9542	1132.6735	1163.0828	1178.5228	1248.6793	1253.4372	1302.7112	1340.2071	1358.1574	1370.838	1391.6667	1406.8575	1421.2089	1424.1837	1478.7775	1488.6892	1497.9293	1512.9281	1733.2487	2940.2786	3015.4837	3036.8688	3040.4458	3081.8658	3101.5114	3118.0268	3130.7225	3136.105	3142.6138	3144.9196	3231.1397
CC1C=CCOC2CC12	C[C@H]1C=CCO[C@H]2C[C@@H]12	
InChI=1S/C8H12O/c1-6-3-2-4-9-8-5-7(6)8/h2-3,6-8H,4-5H2,1H3	InChI=1S/C8H12O/c1-6-3-2-4-9-8-5-7(6)8/h2-3,6-8H,4-5H2,1H3/t6-,7-,8-/m0/s1
