18
gdb 49437	2.91467	1.7253	1.487	2.9407	74.43	-0.2272	-0.0252	0.2019	939.9293	0.149317	-401.909061	-401.901998	-401.901054	-401.940628	28.05	
O	-0.4572520915	 0.350536167	-0.4097853579	-0.254825
C	-0.1646814736	 1.5074135492	-0.2407983488	 0.152605
C	 1.1961558916	 2.0790233003	 0.0651578704	-0.058611
C	 1.3816823082	 2.9932209662	 1.2769149326	-0.127667
C	 1.6378660211	 2.1475674962	 2.5243401508	-0.03656
C	 1.1806897237	 0.6914495943	 2.5470601695	-0.263497
C	 1.9571669114	 0.0961870787	 1.334391192	-0.161335
N	 2.376759696	 1.2471526702	 0.5000580788	-0.143535
C	 2.7130565933	 2.3127888953	 1.4935800433	-0.033453
H	-0.932122034	 2.3131339447	-0.3448387153	 0.076803
H	 1.4772193329	 2.6241939699	-0.8502818593	 0.114269
H	 1.139220016	 4.0479279514	 1.330735186	 0.093702
H	 1.7056095993	 2.7155320986	 3.4455394876	 0.091687
H	 1.4565732281	 0.2079438801	 3.4893150571	 0.100986
H	 0.0973252362	 0.5863529033	 2.4350836994	 0.11178
H	 2.87209501	-0.3985579265	 1.6761749321	 0.101746
H	 1.3722906748	-0.6068157268	 0.7441640481	 0.139451
H	 3.7169559965	 2.6980140579	 1.6138656237	 0.096452
87.5408	173.9223	222.4254	300.5477	362.2095	471.1043	604.1476	668.3897	703.5008	747.4911	762.6744	797.5543	833.228	862.3531	889.2538	917.6189	948.7407	986.8249	1007.1811	1036.5363	1053.2685	1067.8623	1077.1432	1091.4056	1117.786	1161.963	1207.0209	1218.9069	1239.7648	1266.1733	1297.8979	1301.0128	1336.107	1355.2411	1393.0876	1424.004	1487.8353	1507.9308	1823.0076	2835.2588	2981.9372	3050.1155	3055.3964	3090.2261	3159.2777	3175.7562	3182.0224	3202.1227
O=CC1C2C3CCN1C23	O=C[C@H]1[C@H]2[C@H]3CCN1[C@@H]23	
InChI=1S/C7H9NO/c9-3-5-6-4-1-2-8(5)7(4)6/h3-7H,1-2H2	InChI=1S/C7H9NO/c9-3-5-6-4-1-2-8(5)7(4)6/h3-7H,1-2H2/t4-,5+,6-,7-/m1/s1
