16
gdb 99572	2.28977	1.17232	0.89787	3.3216	71.14	-0.2768	-0.0028	0.274	1282.8219	0.121302	-437.84395	-437.833954	-437.83301	-437.879209	35.302	
O	 0.0566883432	 1.4860561182	-0.0052279717	-0.414011
C	 0.07247422	 0.0800298558	 0.0363333837	-0.075871
C	-1.3569657145	-0.5158750111	 0.0045338024	-0.20703
C	-2.0548757927	-0.0800541254	-1.2007419499	 0.296545
C	-2.5914345086	 0.3150873093	-2.2014846666	-0.435924
C	-1.3645804985	-2.0705501082	 0.1057439904	-0.02839
O	-0.7092428495	-2.7158328497	-0.9641814158	-0.403769
C	-0.8197404667	-2.5021229254	 1.4100863567	 0.259503
N	-0.3636432886	-2.8344414314	 2.4185115994	-0.316032
H	-0.3986737394	 1.7458518238	-0.8154221276	 0.289812
H	 0.657398463	-0.3424574426	-0.7956506445	 0.091866
H	 0.5579500564	-0.1989765983	 0.9763439509	 0.137647
H	-1.888967724	-0.13046012	 0.8839799915	 0.137634
H	-3.0863903645	 0.6479959774	-3.0807654714	 0.209368
H	-2.405683446	-2.4042831094	 0.0528737398	 0.155805
H	 0.2424470203	-2.6021039931	-0.8655781472	 0.302846
57.6414	100.2467	121.3893	157.4253	189.1508	214.158	264.4613	321.9843	337.1582	398.7828	412.7492	494.1271	551.9909	593.1966	637.4822	673.1818	698.5743	820.791	889.6755	960.3027	1055.0401	1070.3579	1097.9165	1102.2325	1215.0265	1238.3103	1286.0492	1316.315	1356.352	1390.7546	1422.1727	1427.871	1511.0378	2233.7381	2354.6362	2979.0098	3035.0951	3072.8514	3090.069	3499.2196	3782.3816	3814.3675
OCC(C#C)C(O)C#N	OC[C@@H](C#C)[C@@H](O)C#N	
InChI=1S/C6H7NO2/c1-2-5(4-8)6(9)3-7/h1,5-6,8-9H,4H2	InChI=1S/C6H7NO2/c1-2-5(4-8)6(9)3-7/h1,5-6,8-9H,4H2/t5-,6+/m1/s1
