16
gdb 19011	5.3511	1.78826	1.57887	2.0812	69.26	-0.2227	0.0016	0.2243	832.398	0.130663	-346.529864	-346.523536	-346.522592	-346.560026	25.48	
C	-0.0436639376	 1.5145020545	 0.0129409749	-0.502486
C	-0.0073461185	 0.0249640545	-0.0325489506	 0.301387
C	-0.0504759167	-0.8222606664	-1.0698011271	-0.220092
C	 0.0249444672	-2.2020552795	-0.450669805	-0.084728
C	-0.7856288894	-2.1599458293	 0.8921817589	 0.078123
O	 0.1741564066	-3.0436467203	 1.5632472821	-0.324762
C	 0.9944043862	-2.1130548675	 0.7798899549	 0.078121
C	 0.0932339875	-0.8926542352	 1.1786350602	-0.143609
H	 0.8566645886	 1.9227482749	 0.4898734386	 0.129334
H	-0.118763689	 1.9414006294	-0.9910873336	 0.126746
H	-0.8964817834	 1.8765995482	 0.6014109298	 0.129324
H	-0.1230669919	-0.5933955373	-2.1245091721	 0.101752
H	 0.0109389163	-3.109575992	-1.0516264684	 0.076157
H	-1.8507155958	-2.3261282779	 1.0733315206	 0.090616
H	 2.0810448222	-2.2225598544	 0.825307319	 0.090615
H	 0.1467970275	-0.4978507018	 2.1925790077	 0.073502
174.4058	181.5496	275.9292	415.5387	512.3722	531.8221	568.3667	692.1955	716.9666	793.4561	833.4211	857.9135	877.6145	883.1234	930.2584	963.4151	980.1399	1012.565	1021.6404	1062.6836	1115.1159	1139.6382	1164.4167	1172.6336	1182.3153	1204.9939	1249.2683	1261.8325	1324.7594	1331.5555	1413.959	1476.4818	1486.4147	1689.3016	3015.2549	3059.8058	3083.924	3088.8654	3108.5171	3134.3279	3144.0134	3221.5005
CC1=CC2C3OC2C13	CC1=C[C@@H]2[C@H]3O[C@@H]2[C@@H]13	
InChI=1S/C7H8O/c1-3-2-4-6-5(3)7(4)8-6/h2,4-7H,1H3	InChI=1S/C7H8O/c1-3-2-4-6-5(3)7(4)8-6/h2,4-7H,1H3/t4-,5+,6-,7+
