19
gdb 93707	2.69091	1.22231	1.12281	3.1606	75.66	-0.2585	0.0224	0.2809	1194.1176	0.159735	-419.223506	-419.21428	-419.213336	-419.257836	34.08	
C	 0.2096003653	 1.5882669896	 0.1392702884	-0.399947
C	 0.0435266538	 0.0837176637	-0.0165157121	 0.146794
C	 0.749984325	-0.5131805637	-1.2443838001	-0.269484
C	 1.2077425117	-1.9045792023	-0.757414934	 0.08327
N	 2.3873070948	-2.3822624348	-1.4780231322	-0.539666
C	 1.5413324016	-1.5655295546	 0.7157349145	-0.081482
O	 0.6016275083	-0.5953757982	 1.1252447809	-0.273135
C	 0.0845009629	-2.8659549829	-0.822131795	 0.253093
N	-0.7646733618	-3.6466912518	-0.9083460239	-0.345649
H	 1.2695774648	 1.8588252864	 0.1779269049	 0.120489
H	-0.2545436787	 2.1159329388	-0.700717025	 0.117488
H	-0.266811815	 1.9285194913	 1.0624641943	 0.132122
H	-1.0267989261	-0.1623915097	-0.046172934	 0.095623
H	 0.1057912843	-0.5533699375	-2.1251389651	 0.121261
H	 1.6539565524	 0.0510808209	-1.4945914582	 0.122253
H	 2.6741607652	-3.2877033683	-1.1143974239	 0.244863
H	 2.1559011734	-2.5351610017	-2.4559264098	 0.244856
H	 1.471963066	-2.4289303639	 1.3845047804	 0.119933
H	 2.5715613222	-1.1803477814	 0.7350714199	 0.107317
43.3958	103.5359	177.5454	207.0196	228.13	246.7219	316.5147	368.2359	389.7795	435.1043	488.9784	571.1827	636.7043	673.5161	746.197	825.8452	900.3778	906.6613	919.6548	936.2816	992.7998	1055.3368	1071.3287	1113.6235	1143.1435	1179.0515	1187.4012	1214.8753	1282.6458	1285.267	1327.1184	1360.5039	1388.1192	1397.1085	1411.7277	1485.2733	1487.219	1498.0794	1523.39	1663.7105	2339.7002	2996.7319	3008.9653	3037.3949	3061.1034	3081.1707	3108.9391	3120.2986	3123.5224	3486.8202	3561.9198
CC1CC(N)(CO1)C#N	C[C@H]1C[C@@](N)(CO1)C#N	
InChI=1S/C6H10N2O/c1-5-2-6(8,3-7)4-9-5/h5H,2,4,8H2,1H3	InChI=1S/C6H10N2O/c1-5-2-6(8,3-7)4-9-5/h5H,2,4,8H2,1H3/t5-,6-/m0/s1
