17
gdb 69448	2.91756	1.28217	1.22255	4.345	72.16	-0.2495	0.0261	0.2756	1083.4539	0.137352	-418.000683	-417.992712	-417.991767	-418.03306	30.919	
O	-0.4124338354	 1.3814231624	-0.0064780615	-0.467424
C	-0.177072621	 0.0126863404	 0.0395078502	 0.415906
C	-0.207330144	-0.8195506475	-1.2168713248	-0.369904
C	-1.3114090703	-0.949853471	-0.1848008019	-0.068753
C	-1.1483405653	-2.0695677769	 0.8385883502	-0.136721
N	 0.2657584755	-1.9574389511	 1.2271473401	-0.314134
C	 0.6333838524	-0.5349371398	 1.2065767119	-0.241647
C	-2.0869538769	-1.8829483307	 1.9677769571	 0.261202
N	-2.7860618104	-1.7578773614	 2.8803534116	-0.325044
H	 0.3550185388	 1.806291088	-0.404597324	 0.28832
H	-0.4866496665	-0.2957666363	-2.12439165	 0.120008
H	 0.5038200782	-1.6292632842	-1.3376328011	 0.131194
H	-2.3062568636	-0.5975261873	-0.4221438935	 0.119988
H	-1.3350484256	-3.0641841799	 0.4156901408	 0.126844
H	 0.4650744772	-2.4114053434	 2.1097712826	 0.240135
H	 1.7178543774	-0.4389053703	 1.0761940755	 0.103876
H	 0.3408838195	 0.0245355388	 2.1089144469	 0.116152
92.5814	144.4098	245.4047	288.3551	300.019	360.4047	388.9264	440.2974	475.6279	537.7417	586.8589	661.9538	741.3357	794.8722	832.2316	903.1295	930.2462	951.5343	983.3468	1030.515	1040.4376	1062.9524	1077.363	1083.8822	1134.3383	1196.9984	1220.546	1265.4807	1288.3932	1318.9083	1345.0819	1356.1533	1402.7269	1447.4739	1481.3301	1520.0067	2344.0871	2984.827	3034.5035	3050.5915	3135.4773	3210.3135	3230.6391	3566.7996	3801.6037
OC12CC1C(NC2)C#N	O[C@]12C[C@H]1[C@@H](NC2)C#N	
InChI=1S/C6H8N2O/c7-2-5-4-1-6(4,9)3-8-5/h4-5,8-9H,1,3H2	InChI=1S/C6H8N2O/c7-2-5-4-1-6(4,9)3-8-5/h4-5,8-9H,1,3H2/t4-,5-,6-/m0/s1
