18
gdb 81893	3.24335	1.23353	1.05579	2.1406	74.25	-0.251	-0.041	0.21	1167.4978	0.146832	-439.054369	-439.045636	-439.044692	-439.087685	32.545	
C	-0.1293940154	 1.5928943316	-0.0382690029	-0.40796
C	-0.0032853885	 0.0784399571	 0.0249350481	-0.024722
C	 0.6744565615	-0.6453857799	-1.1444456387	-0.089715
N	 2.0691257369	-0.2278075324	-1.1852339414	-0.376591
C	 1.6928173789	-1.2877220184	-0.2170395234	 0.221244
C	 2.2328528287	-2.6434475157	-0.373411635	 0.037614
O	 2.7721131728	-3.0310256583	-1.3879249201	-0.283864
C	 1.0971028602	-0.5477968053	 0.9859391677	 0.043157
O	 1.95939746	 0.3156092073	 1.668704342	-0.426601
H	 0.8124692173	 2.053674855	-0.3459739274	 0.129066
H	-0.9005575618	 1.8898993925	-0.7565529826	 0.115738
H	-0.4024781343	 1.996981448	 0.9409851921	 0.128625
H	-0.971494806	-0.3830421667	 0.2415859476	 0.081295
H	 0.21126667	-1.1180460256	-2.002832955	 0.117044
H	 2.5305432729	-0.7126594171	-1.9569960368	 0.256724
H	 2.0944858533	-3.3120611876	 0.5023216732	 0.086417
H	 0.6560779873	-1.2188207609	 1.7273890743	 0.096225
H	 2.4839833761	 0.7633639965	 0.9920657681	 0.296304
103.0305	129.4962	173.8625	189.2039	225.5025	246.064	305.8294	369.6677	485.0946	514.7509	572.2717	666.3045	703.9413	752.0691	797.4369	821.2354	880.4184	941.106	988.1144	1025.4339	1043.8195	1060.8745	1085.3608	1134.4354	1150.7059	1154.945	1194.5948	1239.4744	1265.6761	1308.395	1339.7025	1379.3468	1386.3726	1411.6395	1427.8162	1449.3408	1488.7332	1503.4769	1778.3315	2911.0334	3041.7286	3061.2285	3087.1145	3107.978	3124.8191	3188.9795	3464.397	3770.6943
CC1C2NC2(C=O)C1O	C[C@H]1[C@H]2N[C@@]2(C=O)[C@H]1O	
InChI=1S/C6H9NO2/c1-3-4-6(2-8,7-4)5(3)9/h2-5,7,9H,1H3	InChI=1S/C6H9NO2/c1-3-4-6(2-8,7-4)5(3)9/h2-5,7,9H,1H3/t3-,4+,5-,6+/m0/s1
