21
gdb 118863	2.75159	0.80132	0.6941	1.6481	75.73	-0.2371	0.0692	0.3063	1658.7867	0.179292	-461.326593	-461.315564	-461.31462	-461.36333	39.165	
O	 0.128823371	 1.4516432784	 0.3579542912	-0.422205
C	 0.0280103857	 0.0350757518	 0.383376271	-0.062332
C	-1.298331385	-0.4627080838	-0.2043553073	-0.256014
C	-1.428560215	-1.9686810823	-0.1527884035	 0.410891
O	-0.4195071416	-2.5335048747	-0.9595777268	-0.479299
C	-1.8320155274	-2.6686559695	 1.1195794655	-0.351656
C	-2.7604598532	-2.6791513644	-0.0862545278	-0.064642
C	-4.0988776254	-1.9921614122	-0.0446462523	-0.110336
O	-5.0179639352	-2.8735628716	 0.5911018883	-0.418212
H	 0.1889582316	 1.7232444828	-0.5633277085	 0.280056
H	 0.8674392164	-0.4429548021	-0.1377019297	 0.107983
H	 0.0941802667	-0.2489507347	 1.4390501232	 0.109861
H	-2.119404258	 0.0129896784	 0.3386142988	 0.107075
H	-1.3713714143	-0.140523262	-1.2522663807	 0.094371
H	-0.3978436658	-3.4836034244	-0.8106749497	 0.281826
H	-1.3273063573	-3.5917711954	 1.3889847067	 0.106402
H	-2.123716558	-2.0629020204	 1.9722279231	 0.119323
H	-2.7881552152	-3.616280393	-0.6387869686	 0.086285
H	-4.024259943	-1.0416567441	 0.5047784391	 0.085596
H	-4.4284938447	-1.7526163426	-1.068521502	 0.089946
H	-5.8872381623	-2.4618508641	 0.5709895998	 0.285079
62.8309	82.9264	97.564	114.2775	156.7637	183.8777	234.4167	269.6233	287.8525	310.5257	350.499	396.7797	434.3708	458.5393	600.1178	735.7667	792.0764	853.7559	886.9	918.2001	940.7946	1014.3602	1032.3749	1040.5246	1051.8584	1069.3945	1074.5803	1101.2462	1151.3272	1163.112	1194.4108	1252.4408	1255.8116	1284.4392	1304.0794	1332.0201	1388.5519	1399.5913	1415.5566	1436.0747	1464.5682	1475.7942	1491.6653	1515.8456	1519.1851	2968.235	3000.9293	3017.5923	3023.9088	3074.7388	3101.4638	3117.7495	3128.7309	3202.3058	3816.659	3822.2496	3828.4495
OCCC1(O)CC1CO	OCC[C@@]1(O)C[C@H]1CO	
InChI=1S/C6H12O3/c7-2-1-6(9)3-5(6)4-8/h5,7-9H,1-4H2	InChI=1S/C6H12O3/c7-2-1-6(9)3-5(6)4-8/h5,7-9H,1-4H2/t5-,6+/m0/s1
