20
gdb 41004	2.99248	1.98786	1.47268	1.7109	83.16	-0.2223	0.0807	0.303	942.5472	0.174049	-365.914193	-365.907686	-365.906741	-365.94459	28.27	
C	-0.0048023922	 1.5114293261	 0.2823783213	-0.267269
C	 1.5254138149	 1.5325950488	-0.1162065061	-0.374684
C	 1.1615399233	 0.3163028808	-0.9798430553	 0.428844
C	-0.0006487878	-0.0120975425	-0.0846356184	-0.007865
C	-0.817199868	-0.9183911598	-1.0291872647	-0.309106
C	 0.2419923113	-1.0147597209	-2.1496423977	 0.031844
C	 0.7186611096	 0.4111117023	-2.4714266274	-0.114183
C	 2.0853888634	-0.1866395809	-2.8123481501	-0.189593
N	 1.7233017321	-0.9874144569	-1.558066133	-0.243156
H	-0.2549586327	 1.7800655897	 1.3102366855	 0.102524
H	-0.6032333237	 2.1153173541	-0.4047862096	 0.107753
H	 1.9231160922	 2.4208700269	-0.611912624	 0.101919
H	 2.1552952037	 1.2780632754	 0.7407140672	 0.115817
H	 0.3457124185	-0.5730743934	 0.7894938748	 0.085751
H	-1.0794198279	-1.8808317833	-0.5822153841	 0.105463
H	-1.7339329901	-0.4683052434	-1.4264523241	 0.104423
H	 0.1147071989	-1.7497672013	-2.9470245998	 0.073105
H	 0.1571687591	 1.2089684849	-2.9739625991	 0.056141
H	 2.1696249598	-0.7930321805	-3.7195402415	 0.09335
H	 2.9752686754	 0.4349778538	-2.678426344	 0.098922
191.4655	288.4926	303.5103	344.9184	449.7069	539.6664	621.6821	661.905	680.2961	733.5366	760.9939	823.2871	852.179	865.5985	877.803	923.2832	926.1611	956.3729	965.5187	1026.6502	1032.0017	1065.7639	1080.8958	1103.2907	1109.5013	1141.2571	1154.0638	1179.8823	1198.9006	1208.3031	1227.0644	1234.5768	1242.0559	1251.3506	1267.9043	1284.0142	1295.4319	1335.3043	1370.9842	1477.7407	1484.6726	1492.9674	1529.9677	3015.7013	3045.3486	3046.3793	3051.2843	3061.3926	3067.5384	3097.3421	3103.0476	3105.1258	3114.7307	3129.9573
C1CC23C1CC1C2CN31	C1C[C@@]23[C@@H]1C[C@H]1[C@@H]2CN31	
InChI=1S/C8H11N/c1-2-8-5(1)3-7-6(8)4-9(7)8/h5-7H,1-4H2	InChI=1S/C8H11N/c1-2-8-5(1)3-7-6(8)4-9(7)8/h5-7H,1-4H2/t5-,6-,7-,8+/m0/s1
