16
gdb 24308	3.06628	2.25483	1.48802	2.4173	74.13	-0.195	-0.0165	0.1785	854.0581	0.127265	-400.680551	-400.674335	-400.673391	-400.710969	25.41	
C	-0.1199865481	 1.5173403418	-0.0569523334	-0.186005
C	 1.4270499319	 1.6992770751	 0.0579439782	-0.110253
C	 2.1525025265	 2.1291167056	 1.3744588221	-0.095842
O	 2.3638486336	 0.9135477052	 2.1806624121	-0.271361
C	 1.610372594	-0.0523788315	 1.5660537583	 0.26046
C	 1.3700504741	 0.2160119716	 0.2581210878	-0.000545
N	-0.003949508	-0.0456126529	-0.0480362953	-0.114884
C	-0.4575973367	-0.7673634388	 1.071561096	-0.077718
C	 0.504642336	-0.8385459244	 2.0519828446	-0.216959
H	-0.6807053263	 1.8527175331	 0.8165949861	 0.132678
H	-0.576117465	 1.8705552597	-0.9815559476	 0.131285
H	 1.895010399	 2.1207528617	-0.8337557899	 0.088883
H	 3.1354196355	 2.5537349403	 1.1539865105	 0.124983
H	 1.5907899731	 2.8458464274	 1.9873242034	 0.111557
H	-1.4331796151	-1.2377741826	 1.0641871744	 0.11183
H	 0.4136290356	-1.3502648315	 2.9995340629	 0.111889
128.9099	284.8297	328.6683	348.8336	503.8474	629.3986	656.6545	696.1149	724.5597	744.7983	797.1919	829.1517	850.4605	876.9791	887.2322	920.639	947.1301	1010.7742	1063.1021	1075.635	1097.8188	1125.2775	1145.1774	1172.6479	1213.4757	1229.2596	1260.8601	1288.6545	1331.5231	1362.1829	1418.497	1454.2454	1477.6381	1502.8015	1595.8328	3022.2974	3076.5832	3080.1708	3099.7671	3156.2077	3206.8188	3240.0904
C1C2COC3=C2N1C=C3	C1[C@H]2CO[C]3[C]2N1C=C3	
InChI=1S/C7H7NO/c1-2-8-3-5-4-9-6(1)7(5)8/h1-2,5H,3-4H2	InChI=1S/C7H7NO/c1-2-8-3-5-4-9-6(1)7(5)8/h1-2,5H,3-4H2/t5-/m0/s1
