15
gdb 127338	3.25192	1.48078	1.02416	5.2418	74.04	-0.2192	-0.0307	0.1884	1100.667	0.114275	-450.166707	-450.158518	-450.157574	-450.199549	29.948	
C	 0.0438201876	 1.4425454061	 0.031491009	-0.313501
N	 0.0094934054	-0.0092953789	-0.0168772082	 0.013599
C	-1.1175208547	-0.7150479525	-0.1720694649	 0.110812
N	-1.2021324712	-2.0172338337	-0.2289342328	-0.358398
C	-0.0312050534	-2.7253601367	-0.1160506046	 0.360953
O	 0.0570329345	-3.9427664183	-0.165527967	-0.38404
C	 1.2131429183	-1.909090715	 0.0743609032	 0.319885
N	 2.3401416654	-2.6307314205	 0.2151187118	-0.539559
N	 1.2358835471	-0.6043761968	 0.1114165538	-0.340563
H	 0.6719041923	 1.8259692616	-0.7770161928	 0.153316
H	-0.9700520922	 1.8293589831	-0.0782373509	 0.143666
H	 0.4609815523	 1.7724323309	 0.9866168665	 0.153819
H	-2.0248189893	-0.119924668	-0.2566622275	 0.133022
H	 2.2387772769	-3.6240141706	 0.0741160531	 0.282188
H	 3.2426000209	-2.1899098406	 0.2326423412	 0.264801
86.5022	136.7622	170.4069	209.3702	307.6153	340.2064	362.2092	469.265	495.5025	546.8424	554.4791	601.2438	618.7959	701.7729	830.5251	831.7759	952.8656	986.8353	1072.5592	1131.8738	1155.278	1191.627	1285.857	1392.5308	1412.1116	1458.6841	1468.4921	1469.0029	1519.8672	1571.4367	1608.98	1664.3011	1756.7135	3050.7275	3118.1248	3145.707	3155.6195	3590.5904	3737.8901
CN1C=NC(=O)C(N)=N1	Cn1cnc(=O)c(N)n1	
InChI=1S/C4H6N4O/c1-8-2-6-4(9)3(5)7-8/h2H,1H3,(H2,5,7)	InChI=1S/C4H6N4O/c1-8-2-6-4(9)3(5)7-8/h2H,1H3,(H2,5,7)
