19
gdb 103872	3.11479	0.89597	0.84303	3.6367	76.86	-0.2554	0.0202	0.2755	1429.9697	0.157614	-419.182963	-419.173137	-419.172193	-419.218326	35.382	
C	 0.269629743	 0.9128249831	-2.0474154713	-0.465301
C	 0.2381745061	-0.3324809394	-1.1845380857	 0.293528
C	-1.1440405424	-0.6942643234	-0.6634334404	-0.104581
O	-1.6047616139	 0.2616715725	 0.2755159301	-0.419721
C	 1.2446077288	-1.4172199873	-1.3660133867	-0.299255
N	 1.2640799318	-0.5939128376	-0.1533217172	-0.121587
C	 2.380473356	 0.3302923174	 0.0057586672	-0.291419
C	 3.4588900324	-0.3062268045	 0.7725238552	 0.282419
N	 4.3199947329	-0.7985725295	 1.3638147686	-0.298325
H	 1.2772685894	 1.1981648784	-2.3569213534	 0.117004
H	-0.3134541961	 0.7427370939	-2.9584531698	 0.13112
H	-0.1891875892	 1.7500333482	-1.5128311211	 0.142743
H	-1.8703599034	-0.6962124503	-1.4834581636	 0.110004
H	-1.1177839299	-1.7029825005	-0.2283070211	 0.095873
H	-0.9986340947	 0.2140303716	 1.0240488593	 0.289495
H	 0.9797237397	-2.4614337925	-1.2235619549	 0.125989
H	 2.0311174191	-1.2472670835	-2.1001123961	 0.117072
H	 2.8151728941	 0.6905883839	-0.9395231808	 0.138144
H	 2.0389043162	 1.2131570797	 0.5583686514	 0.156799
44.4045	83.689	122.3146	175.6162	185.5651	239.7692	289.4358	343.4343	388.1511	426.9195	431.8591	460.6664	508.8138	560.3146	752.7187	817.2724	880.2534	913.0899	947.1058	950.9035	999.575	1004.7219	1065.4801	1094.4661	1101.4964	1135.0707	1179.4061	1216.969	1269.9394	1300.4327	1358.4148	1370.5169	1405.4075	1415.8188	1427.3001	1470.5293	1485.4137	1495.6791	1505.0781	1512.4987	2368.4304	2986.246	3006.8686	3043.7998	3063.2934	3076.3617	3092.9735	3105.5915	3127.4652	3181.1081	3796.0047
CC1(CO)CN1CC#N	C[C@@]1(CO)CN1CC#N	
InChI=1S/C6H10N2O/c1-6(5-9)4-8(6)3-2-7/h9H,3-5H2,1H3	InChI=1S/C6H10N2O/c1-6(5-9)4-8(6)3-2-7/h9H,3-5H2,1H3/t6-,8?/m0/s1
