12
gdb 130467	2.45807	1.85045	1.05571	2.112	79.03	-0.2524	-0.0985	0.1539	1016.6536	0.077901	-431.678549	-431.671337	-431.670393	-431.710624	25.666	
O	-0.0577615846	 1.9159320266	 0.0126576015	-0.299396
C	 1.100739305	 2.2821328921	 0.0037149681	 0.064308
C	 2.2318902459	 1.3708857753	-0.0120703206	 0.130994
C	 3.5944630338	 1.6260773214	-0.0233545882	-0.247156
C	 4.2442354164	 0.3587969957	-0.0366805047	-0.038606
N	 3.3940637391	-0.6649056423	-0.03462213	-0.298797
C	 2.1665437268	-0.062857814	-0.0196765516	 0.362387
N	 1.0595105142	-0.7941885297	-0.0136957607	 0.148355
N	 0.1315737135	-1.4247794126	-0.0076884449	-0.156013
H	 1.365618439	 3.3601784781	 0.0073355626	 0.085948
H	 4.0650114928	 2.5992538431	-0.0221740733	 0.124651
H	 5.3115375482	 0.1786091062	-0.0476858581	 0.123323
118.9089	130.2191	192.2593	222.2734	280.3149	459.7246	531.1239	559.0411	617.	658.6551	669.0755	769.5947	824.3636	898.2885	908.6552	1037.9873	1047.003	1172.4172	1246.9238	1292.5058	1332.3178	1381.6907	1426.7023	1462.0136	1558.3701	1765.5219	2259.6752	2913.8275	3217.9003	3240.3367	118.9101	130.2199	192.2593	222.2746	280.3155	459.7246	531.1239	559.0416	617.0003	658.655	669.0754	769.595	824.3651	898.2889	908.6574	1037.9882	1047.0042	1172.4175	1246.9244	1292.5056	1332.3179	1381.6909	1426.7027	1462.0135	1558.3702	1765.5237	2259.676	2913.8279	3217.9004	3240.337
O1C=C2C=CN=C2N=N1	O=Cc1ccnc1[N][N]	
InChI=1S/C5H3N3O/c1-2-6-5-4(1)3-9-8-7-5/h1-3H	InChI=1S/C5H4N3O/c6-8-5-4(3-9)1-2-7-5/h1-3,7H
