19
gdb 102782	1.7309	1.58983	0.92544	3.7084	73.99	-0.2414	0.0059	0.2472	1296.228	0.158393	-456.387904	-456.377984	-456.37704	-456.423283	35.701	
C	 0.7292563263	 1.8605272195	-0.328186623	-0.401495
C	 0.8584195794	 0.3374895065	-0.2629013802	-0.173144
C	 0.7153401398	-0.2204790353	 1.143861149	 0.021897
O	-0.6287473302	 0.1097404669	 1.6001969581	-0.212836
C	-0.8460710819	 0.3158806359	 2.8978901238	 0.14339
N	 0.0068122324	 0.1111614933	 3.8170712294	-0.481144
C	 0.9034794624	-1.7572355438	 1.1740768502	 0.382727
N	 1.0902971361	-2.259772111	 2.4202857766	-0.523498
O	 0.9045261457	-2.4271128242	 0.1593649922	-0.360097
H	 1.4949341624	 2.3548856704	 0.280599284	 0.112722
H	 0.8447899456	 2.2131455782	-1.3571069961	 0.11776
H	-0.2495087421	 2.1899214958	 0.0314456804	 0.123384
H	 0.1171908293	-0.1497568275	-0.9027869663	 0.127506
H	 1.835650607	 0.0177939533	-0.6391603619	 0.116555
H	 1.4207481507	 0.2478283194	 1.8381299653	 0.11731
H	-1.8671818153	 0.6833496266	 3.0360770345	 0.121739
H	-0.3785543153	 0.3584585815	 4.7246534853	 0.236444
H	 0.9622923019	-1.6627088729	 3.2288332961	 0.276517
H	 1.1327473755	-3.2609247426	 2.5230484424	 0.254261
47.4446	93.7597	108.7514	192.1731	204.1441	209.0981	266.6455	317.2446	342.1578	366.3781	452.9915	492.281	611.9097	658.2458	710.1842	757.5566	772.2324	824.3592	878.7307	910.0687	959.8966	1041.8176	1054.1488	1095.5341	1105.9561	1138.46	1179.8787	1265.9049	1293.3015	1316.8054	1353.4484	1378.248	1404.9874	1410.36	1410.9452	1471.2786	1498.7844	1509.3143	1624.0517	1701.5851	1802.7789	3035.7939	3060.5568	3063.2655	3092.0523	3093.5163	3110.2329	3119.7999	3501.4493	3530.3227	3685.4911
CCC(OC=N)C(N)=O	CC[C@@H](O[CH][NH])C(=O)N	
InChI=1S/C5H10N2O2/c1-2-4(5(7)8)9-3-6/h3-4,6H,2H2,1H3,(H2,7,8)	InChI=1S/C5H10N2O2/c1-2-4(5(7)8)9-3-6/h3-4,6H,2H2,1H3,(H2,7,8)/t4-/m1/s1
