15
gdb 19998	3.92714	1.37731	1.14523	3.8158	66.58	-0.2855	-0.0019	0.2836	1032.8862	0.118511	-362.634841	-362.627359	-362.626415	-362.667257	27.085	
N	-0.2009264815	-1.1159632746	 0.3685747766	-0.332507
C	-0.0995227449	 0.027817051	 0.2359090278	 0.311176
C	 0.0122329061	 1.4578411398	 0.0434015148	-0.118915
O	 0.5847233718	 2.2061730996	 1.1176027613	-0.235436
C	 1.33744166	 2.1076323382	-0.09388547	 0.074309
C	 2.621236061	 1.361188958	-0.0603198619	-0.020283
C	 3.5388964566	 1.4305013764	-1.2602376267	-0.267842
C	 3.9190568369	 2.1327576533	 0.0128994211	-0.268669
H	-0.856926979	 1.9121649587	-0.4289747742	 0.138519
H	 1.3499453689	 3.030087368	-0.6784341	 0.106233
H	 2.5786666029	 0.4184089479	 0.4741057978	 0.117686
H	 4.067550813	 0.5265961026	-1.5384518833	 0.128925
H	 3.2274413913	 2.0394757384	-2.1027171109	 0.118361
H	 3.8634478542	 3.2161646997	 0.0332331925	 0.121227
H	 4.7142470726	 1.7170937428	 0.620532825	 0.127215
65.1443	108.4204	185.918	252.6487	281.6028	371.7466	467.5532	580.7545	616.0171	755.9799	790.7363	834.5138	854.2528	906.3031	920.1837	972.4823	989.6555	1062.5134	1072.2402	1084.4569	1125.4296	1147.2366	1198.5423	1210.449	1227.6867	1277.6665	1330.0122	1387.4731	1471.8894	1478.1097	1510.4259	2359.5817	3091.8281	3131.3319	3136.2725	3140.4204	3174.7778	3216.8375	3231.4182
N#CC1OC1C1CC1	N#C[C@H]1O[C@H]1C1CC1	
InChI=1S/C6H7NO/c7-3-5-6(8-5)4-1-2-4/h4-6H,1-2H2	InChI=1S/C6H7NO/c7-3-5-6(8-5)4-1-2-4/h4-6H,1-2H2/t5-,6+/m1/s1
