23
gdb 123039	4.95691	0.49772	0.47644	2.3868	83.36	-0.2525	0.0815	0.334	2303.1986	0.203965	-425.403001	-425.392107	-425.391162	-425.44031	38.912	
O	-0.0142699831	 1.4293704776	 0.0304314945	-0.421811
C	 0.0067285882	 0.0237467006	 0.234502209	-0.074086
C	-1.353124489	-0.5330911485	-0.1641705627	-0.163793
C	-1.4546103897	-2.0507848576	 0.0113378456	-0.178653
C	-2.8278956968	-2.6077346966	-0.3855531314	-0.2026
C	-2.9243223551	-4.1111787065	-0.2306193489	-0.013796
C	-3.2077756003	-4.7276321628	 1.1288358938	-0.326007
C	-4.2413281881	-4.7821919935	 0.0304579499	 0.088133
O	-5.3706426189	-3.9585949151	 0.1025486943	-0.416957
H	 0.8442616304	 1.7820154397	 0.2813407959	 0.283576
H	 0.7959317922	-0.4540870784	-0.3697781187	 0.081095
H	 0.2144116717	-0.221977636	 1.2893442474	 0.081006
H	-2.1228270309	-0.0314590453	 0.4355417311	 0.10351
H	-1.5470652492	-0.2590454917	-1.2086152202	 0.103507
H	-0.6751052446	-2.5427138936	-0.587565025	 0.088778
H	-1.2465784419	-2.3185673497	 1.0560754361	 0.094001
H	-3.6119123455	-2.1328419736	 0.2132434013	 0.108241
H	-3.0410949592	-2.3381617156	-1.4287552473	 0.096697
H	-2.241644991	-4.6718394663	-0.8653022888	 0.082074
H	-2.6976846808	-5.6390210564	 1.4218948118	 0.10695
H	-3.4083956733	-4.0366405059	 1.9420599442	 0.110483
H	-4.4163120909	-5.7453003159	-0.4497513227	 0.082501
H	-5.9389344742	-4.2968292688	 0.8019671408	 0.287152
47.1968	58.0193	84.8476	117.9462	140.7166	186.1308	237.993	263.3796	295.8892	342.6387	359.2076	450.5698	491.6108	586.978	740.7334	767.648	794.0121	837.336	886.2311	907.6842	976.7989	995.8614	1015.5844	1032.6261	1054.4682	1061.4091	1086.0117	1100.465	1136.3384	1178.7954	1187.3378	1217.8515	1228.1944	1239.2468	1277.8676	1289.8851	1302.5951	1316.0208	1325.0681	1345.0729	1390.2451	1408.2394	1427.0405	1463.8448	1482.2452	1490.0595	1492.3384	1506.8516	1528.541	2954.7146	2978.9568	3004.6985	3018.7295	3028.8584	3036.784	3070.0015	3082.3493	3091.5458	3124.6199	3132.0111	3213.272	3809.4655	3830.5518
OCCCCC1CC1O	OCCCC[C@H]1C[C@H]1O	
InChI=1S/C7H14O2/c8-4-2-1-3-6-5-7(6)9/h6-9H,1-5H2	InChI=1S/C7H14O2/c8-4-2-1-3-6-5-7(6)9/h6-9H,1-5H2/t6-,7+/m0/s1
