16
gdb 34366	2.70983	1.67634	1.33195	1.4585	74.72	-0.2498	0.0097	0.2595	985.3471	0.12462	-400.716016	-400.7085	-400.707556	-400.748215	29.039	
C	 0.0869485624	-1.1997030752	-0.2553276096	-0.42054
C	 0.0351011668	-0.0118499821	-0.0785333741	 0.255148
C	 0.0118086005	 1.4216343609	 0.0871422128	 0.221694
C	-0.4758047761	 2.2947979235	-1.1063003303	-0.281499
C	 0.8827360213	 3.0612400068	-1.1169695853	-0.21822
C	 1.354171733	 2.2526102504	 0.1212479465	-0.05747
N	 1.3032026244	 2.9868026719	 1.3855280481	-0.26049
C	 0.2113407781	 2.660225667	 1.9407633632	 0.102911
O	-0.6302961571	 1.7763963886	 1.3447733796	-0.254896
H	 0.1257925372	-2.2510814	-0.401541402	 0.201339
H	-0.6943755992	 1.7225719319	-2.0088316034	 0.121409
H	-1.3507319957	 2.8921924248	-0.8431673605	 0.121263
H	 1.4822469574	 2.8832709217	-2.0121455107	 0.112068
H	 0.8231545954	 4.1360661706	-0.9389423409	 0.117307
H	 2.2950996519	 1.7090233341	 0.0211896878	 0.095737
H	-0.1419720201	 3.0283211448	 2.8977666188	 0.144238
69.3659	149.1291	174.2747	299.4848	374.8774	475.4962	497.2332	553.1525	601.5384	614.7765	662.787	671.8555	738.4963	828.1869	857.326	864.719	939.757	949.5929	966.6976	1028.7878	1053.6436	1079.9732	1131.445	1132.2958	1185.4332	1219.3245	1244.6377	1271.8205	1298.311	1310.1749	1334.7415	1467.8215	1485.8667	1689.3709	2237.8682	3074.9241	3080.9333	3097.156	3126.9098	3145.2422	3216.0212	3500.2943
C#CC12CCC1N=CO2	C#C[C@]12CC[C@H]1N=CO2	
InChI=1S/C7H7NO/c1-2-7-4-3-6(7)8-5-9-7/h1,5-6H,3-4H2	InChI=1S/C7H7NO/c1-2-7-4-3-6(7)8-5-9-7/h1,5-6H,3-4H2/t6-,7+/m1/s1
