23
gdb 95763	2.39846	1.3092	1.07134	0.5675	81.41	-0.2384	0.0712	0.3096	1260.8937	0.205425	-425.444762	-425.435211	-425.434267	-425.478201	37.541	
C	 0.0563915256	 1.5847446666	-0.0021481806	-0.404421
C	 0.021005512	 0.0539859424	-0.0190029138	 0.004382
C	 0.7440848503	-0.505187309	-1.2508202679	-0.068549
O	 0.7682671688	-1.9230860165	-1.2626687884	-0.247898
C	 1.4565734821	-2.4443800155	-0.1414322726	-0.113492
C	 0.7684072154	-2.0765282553	 1.1888036068	 0.329518
C	-0.5835630518	-2.7840195526	 1.3183966375	-0.428645
O	 1.6267503078	-2.4369256441	 2.2735065026	-0.469186
C	 0.6422473176	-0.5466613577	 1.2533673334	-0.214506
H	 1.0867574758	 1.9554511616	 0.0493816453	 0.116434
H	-0.4061655881	 2.005207453	-0.9015720452	 0.112403
H	-0.4808013951	 1.9800634115	 0.8658376635	 0.116756
H	-1.0270986158	-0.2665425255	-0.0848382774	 0.079926
H	 0.2401215293	-0.2010213083	-2.1734886193	 0.102759
H	 1.776137591	-0.1110976816	-1.2832148218	 0.082087
H	 1.4881505338	-3.5320017106	-0.2743578154	 0.089034
H	 2.4934563925	-2.0718580404	-0.1072060985	 0.090291
H	-0.4412687659	-3.8714448539	 1.359105197	 0.100315
H	-1.0974848614	-2.4726128247	 2.2325012464	 0.1182
H	-1.2248300348	-2.5746707827	 0.4587389503	 0.133384
H	 1.6171554834	-3.3969691852	 2.3531118816	 0.274579
H	 1.6544152491	-0.1430517038	 1.3883267626	 0.10124
H	 0.0681842684	-0.2591665178	 2.1415401336	 0.095388
134.1535	146.7686	211.9332	223.5084	261.8429	275.9924	290.4528	321.5158	352.7771	420.6527	435.0386	444.9878	474.5202	485.6746	591.8284	777.3554	859.0852	886.6298	926.4659	930.9168	958.8442	974.5921	988.8483	1001.7642	1058.7686	1083.7795	1129.6948	1141.7642	1172.8782	1192.5698	1202.0433	1247.4786	1308.7239	1309.6622	1322.8517	1337.8221	1367.5899	1381.4745	1400.3571	1403.7966	1411.0742	1421.4091	1480.1299	1486.956	1491.0517	1496.8876	1498.5105	1501.0837	1507.9306	2944.7655	2974.9275	3016.7814	3023.7489	3024.9438	3028.7488	3060.3107	3067.1823	3077.9563	3093.4479	3094.5901	3100.5176	3127.5859	3803.0743
CC1COCC(C)(O)C1	C[C@H]1COC[C@@](C)(O)C1	
InChI=1S/C7H14O2/c1-6-3-7(2,8)5-9-4-6/h6,8H,3-5H2,1-2H3	InChI=1S/C7H14O2/c1-6-3-7(2,8)5-9-4-6/h6,8H,3-5H2,1-2H3/t6-,7+/m1/s1
