19
gdb 57914	3.43067	0.93887	0.88322	2.7382	72.22	-0.2589	-0.0377	0.2212	1381.5559	0.1575	-460.153323	-460.143759	-460.142815	-460.189469	33.676	
C	 0.1652971122	 1.4817493559	-0.256319673	-0.40369
C	 0.0705065885	-0.0348763468	-0.0083342808	 0.055496
O	 0.8067727446	-0.3894102518	 1.1305954634	-0.4368
C	-1.3840492765	-0.4827061775	 0.155908003	 0.350674
O	-1.7539862386	-0.8964805296	 1.2363813085	-0.33115
C	-2.2930198471	-0.4537209078	-1.0477173766	-0.153391
C	-2.4045236901	-1.8213719439	-1.7945964664	-0.069885
O	-3.8130215873	-1.8962742407	-1.5420959872	-0.263722
C	-3.7991708711	-0.6626986446	-0.7918644024	-0.083021
H	 1.2208204761	 1.7619643566	-0.2847611431	 0.141503
H	-0.2948906472	 1.7783382273	-1.2035085118	 0.116352
H	-0.311768079	 2.0322121654	 0.5601172509	 0.130539
H	 0.4782494956	-0.5577234337	-0.8906917875	 0.09025
H	 0.1516946607	-0.7218775342	 1.7653997058	 0.293079
H	-2.0439406548	 0.3734659996	-1.7127076084	 0.098841
H	-2.1702853383	-1.7836807734	-2.86485407	 0.11152
H	-1.8538269379	-2.6504153528	-1.332359154	 0.117055
H	-4.0491129324	-0.8193310435	 0.2619733127	 0.130417
H	-4.4619566475	 0.0913211355	-1.2303095832	 0.105932
26.9009	57.1751	78.7864	183.1858	194.3365	225.4515	285.8024	357.1766	385.8295	430.5318	471.2059	615.6258	731.5474	766.0796	820.4639	882.1648	916.4675	936.339	981.6622	1016.6259	1047.5005	1061.5523	1078.3434	1114.1157	1127.3023	1166.4454	1176.7341	1185.2609	1230.068	1276.503	1313.0504	1347.601	1372.0284	1380.2888	1399.0778	1438.7841	1489.6462	1497.7637	1508.3236	1532.1404	1783.6116	2959.4315	3013.5812	3035.8572	3042.9284	3060.1132	3090.682	3110.9065	3120.5508	3129.7313	3681.0256
CC(O)C(=O)C1COC1	C[C@@H](O)C(=O)C1COC1	
InChI=1S/C6H10O3/c1-4(7)6(8)5-2-9-3-5/h4-5,7H,2-3H2,1H3	InChI=1S/C6H10O3/c1-4(7)6(8)5-2-9-3-5/h4-5,7H,2-3H2,1H3/t4-/m1/s1
