20
gdb 111958	2.73768	1.27436	1.02917	2.9995	81.98	-0.2074	0.0005	0.2079	1256.6947	0.170721	-403.204871	-403.195508	-403.194563	-403.2396	34.27	
C	-0.2231286168	 1.550277647	 0.0102919703	-0.376675
C	 0.0853072976	 0.0507246973	 0.041732061	-0.164096
N	 0.6899920113	-0.4377830483	-1.1839660163	-0.081821
C	 0.0359125904	-0.627244976	-2.4137825095	-0.027711
C	 0.8763518696	-1.0384190646	-3.3677718404	-0.163122
C	 2.2592812818	-1.152501856	-2.7754344983	-0.164849
C	 3.3552328071	-0.3127054645	-3.4488978038	-0.388158
C	 2.0406244197	-0.7160187751	-1.3143047797	 0.408923
O	 2.8702194555	-0.6145271623	-0.4350404148	-0.396927
H	 0.6926496057	 2.1280976284	-0.1426894087	 0.13719
H	-0.9229637752	 1.7986861173	-0.794193306	 0.118319
H	-0.6735963666	 1.8633740704	 0.9573152174	 0.121288
H	 0.8022310165	-0.1722288096	 0.8360822775	 0.145545
H	-0.8273358688	-0.5235918575	 0.2415193316	 0.109241
H	-1.0286677448	-0.4449150083	-2.470086618	 0.124358
H	 0.6164377689	-1.263148161	-4.3910969371	 0.104736
H	 2.5904786917	-2.2001797968	-2.75005806	 0.116325
H	 3.0492222572	 0.7346617247	-3.5296018243	 0.121661
H	 4.2719314108	-0.3589978713	-2.8549041763	 0.140845
H	 3.5672047884	-0.6839464438	-4.4556538146	 0.114927
48.345	78.222	123.403	206.0139	223.3073	242.3442	291.5806	314.2495	387.858	505.2096	545.3328	620.0614	684.4766	706.7388	743.7481	789.6533	821.1519	904.4168	920.5499	924.6687	1012.169	1029.8823	1078.8519	1097.7161	1105.2658	1125.433	1158.5758	1250.6728	1261.6528	1287.7394	1314.0006	1377.445	1391.2698	1399.7812	1409.8515	1429.0576	1482.5432	1493.195	1493.519	1499.7664	1502.1553	1666.2951	1807.0508	3015.9138	3033.3777	3039.2159	3041.4756	3098.1352	3113.7	3114.8952	3124.1984	3124.3251	3224.1891	3252.9964
CCN1C=CC(C)C1=O	CCN1C=C[C@@H](C)C1=O	
InChI=1S/C7H11NO/c1-3-8-5-4-6(2)7(8)9/h4-6H,3H2,1-2H3	InChI=1S/C7H11NO/c1-3-8-5-4-6(2)7(8)9/h4-6H,3H2,1-2H3/t6-/m1/s1
