17
gdb 125224	5.68044	0.92651	0.84406	3.7383	76.63	-0.2342	0.0124	0.2466	1368.402	0.136873	-418.010414	-418.001978	-418.001034	-418.044949	30.152	
C	-0.3632563321	 1.4533321789	 0.1347963522	-0.503564
C	-0.0899782616	-0.0028818727	-0.0534247817	 0.397412
C	-0.1401590386	-0.8166271665	-1.1675178244	-0.40386
C	 0.2223299184	-2.1058960409	-0.7101152616	 0.371934
N	 0.4883740204	-2.0972325669	 0.5954049479	-0.294869
N	 0.2864382847	-0.81951871	 0.9664269022	-0.2502
C	 0.3032030941	-3.3479040398	-1.5097390962	-0.033082
C	 0.8206903295	-4.6075496471	-0.9600771751	-0.171792
O	-0.5796080044	-4.429627273	-1.1556305976	-0.232719
H	 0.5115610292	 1.9856519891	 0.5256192029	 0.136997
H	-0.6304140141	 1.9091925908	-0.8205331774	 0.145649
H	-1.1929052614	 1.6259426296	 0.82997479	 0.139507
H	-0.4090664332	-0.5222013937	-2.1696625714	 0.103484
H	 0.4309430201	-0.5672190269	 1.9300971464	 0.270289
H	 0.376711655	-3.1858421895	-2.5848096643	 0.08693
H	 1.3034734768	-5.3236020221	-1.6248705439	 0.105791
H	 1.1476830472	-4.6242225492	 0.077126902	 0.132092
33.2686	56.0321	138.3695	170.8912	262.7268	308.1399	415.9051	458.4512	526.5941	635.6675	670.6382	715.3118	751.0747	809.9855	839.3934	906.8212	988.3114	993.2375	1027.4463	1046.789	1063.3385	1098.585	1146.3498	1163.101	1173.5029	1214.2525	1282.8989	1290.6889	1382.6236	1412.8628	1437.1849	1472.4431	1483.0523	1500.549	1509.2031	1536.7762	1615.3159	3030.4352	3080.5364	3083.1851	3114.2953	3131.2387	3181.5098	3258.55	3662.7286
CC1=CC(=NN1)C1CO1	Cc1cc(n[nH]1)[C@H]1CO1	
InChI=1S/C6H8N2O/c1-4-2-5(8-7-4)6-3-9-6/h2,6H,3H2,1H3,(H,7,8)	InChI=1S/C6H8N2O/c1-4-2-5(8-7-4)6-3-9-6/h2,6H,3H2,1H3,(H,7,8)/t6-/m1/s1
