13
gdb 21585	4.09466	1.87515	1.28707	4.3668	64.4	-0.2286	-0.0285	0.2	869.8051	0.09775	-394.813393	-394.806869	-394.805925	-394.843748	25.544	
N	-0.0578217463	 1.4090304615	-0.0836743989	-0.593158
C	 0.0336716701	 0.0385785647	-0.0429599122	 0.356408
C	-1.1327962734	-0.7645739308	-0.0157534842	-0.036767
N	-1.1163734202	-2.0836198923	-0.020743747	-0.19988
N	 0.0437059395	-2.737593585	-0.055395326	-0.318099
C	 1.1728989762	-2.0327212799	-0.0820906981	 0.476598
O	 2.316548527	-2.7419742819	-0.1139065223	-0.414723
C	 1.2425410367	-0.6404375198	-0.0752113554	-0.301367
H	 0.76205228	 1.9366552616	 0.1711856617	 0.259655
H	-0.9235510825	 1.8210249901	 0.226070394	 0.261291
H	-2.1168842485	-0.3031995922	 0.0102159411	 0.102113
H	 2.0440791435	-3.6721367335	-0.1114290128	 0.301261
H	 2.201239218	-0.1355011025	-0.0965795699	 0.106667
204.1497	230.8038	320.248	387.4836	442.5728	456.7589	478.444	541.4664	560.9781	580.6433	680.2925	771.4982	782.0445	878.2538	893.8102	1003.9191	1026.0252	1084.5557	1166.7018	1207.6577	1239.54	1321.0286	1392.3564	1453.2842	1518.1295	1601.9945	1642.7546	1663.4851	3157.5688	3196.2136	3588.5221	3695.9441	3738.2137
NC1=CN=NC(O)=C1	Nc1cnnc(O)c1	
InChI=1S/C4H5N3O/c5-3-1-4(8)7-6-2-3/h1-2H,(H3,5,7,8)	InChI=1S/C4H5N3O/c5-3-1-4(8)7-6-2-3/h1-2H,(H3,5,7,8)
