15
gdb 69878	2.79	1.65395	1.19133	3.2586	72.41	-0.2432	0.0031	0.2463	1018.3393	0.108737	-420.499135	-420.491102	-420.490158	-420.531413	30.942	
C	-0.1281412704	 1.5427342319	 0.1619279599	-0.524756
C	 0.1004116279	 0.0726703277	 0.0787795818	 0.335941
O	-0.8041407636	-0.84578824	 0.6768818682	-0.251566
C	 0.5850703215	-0.9519504922	 1.0044033459	-0.108908
C	 1.2998855896	-1.7129791887	-0.1751977347	-0.131755
O	 0.32964988	-2.0444406527	-1.1562895733	-0.265763
C	 0.823281861	-0.6968418654	-1.1318638608	 0.290558
C	 1.4031980059	-0.1056272496	-2.281881551	 0.173693
C	 1.8747237397	 0.4551470447	-3.2363977185	-0.376296
H	 0.7770874715	 2.0879219984	-0.1215893243	 0.137772
H	-0.9300314384	 1.8461555073	-0.5198034882	 0.143015
H	-0.4114297228	 1.827219386	 1.1784839126	 0.139035
H	 0.8797991432	-0.908247724	 2.0453232691	 0.11715
H	 2.2295074044	-2.2678714361	-0.1482453773	 0.128075
H	 2.2951385805	 0.9346651827	-4.0857397294	 0.193805
125.7078	131.7157	183.8063	245.8878	283.528	409.2494	447.7005	480.4276	504.9103	575.2602	602.4708	609.911	675.5059	721.9059	776.0628	821.1032	834.7514	865.4674	915.6459	983.8333	988.6777	1025.064	1097.9162	1105.8517	1182.2558	1214.7378	1253.2306	1402.0111	1411.8292	1465.4945	1482.6104	1496.017	2235.4732	3039.9681	3105.7226	3127.0568	3195.8764	3204.9136	3500.5019
CC12OC1C1OC21C#C	C[C@]12O[C@H]1[C@H]1O[C@@]21C#C	
InChI=1S/C7H6O2/c1-3-7-5(9-7)4-6(7,2)8-4/h1,4-5H,2H3	InChI=1S/C7H6O2/c1-3-7-5(9-7)4-6(7,2)8-4/h1,4-5H,2H3/t4-,5+,6-,7+/m0/s1
