18
gdb 22833	3.25962	1.20216	0.9052	1.0218	89.08	-0.2154	-0.042	0.1734	1266.4337	0.149384	-401.925554	-401.917466	-401.916522	-401.958435	31.264	
O	-0.2783099235	 1.2741352237	-1.0248558315	-0.388287
N	-0.111932682	-0.0673892572	-0.6915459833	-0.178809
C	-1.0373661058	-0.5177209532	 0.1027501131	 0.283893
C	-2.1278055176	 0.3233750481	 0.6012832073	-0.115618
C	-3.2710517177	-0.0658002745	 1.1781828875	-0.076562
C	-3.7360678251	-1.4668206706	 1.4725891758	-0.262699
C	-2.693576993	-2.3716406873	 2.1480081596	-0.254503
C	-1.4900448111	-2.7054212523	 1.3096757909	-0.08944
C	-0.8254369014	-1.9254228854	 0.4493405045	-0.074251
H	 0.4950169311	 1.442166678	-1.5734552746	 0.309824
H	-1.9781669181	 1.3831619851	 0.4335954742	 0.11396
H	-3.9697438654	 0.7235295227	 1.4482170351	 0.0963
H	-4.6212457971	-1.4149749784	 2.1154387318	 0.102236
H	-4.0681421826	-1.9446648772	 0.5403126362	 0.123102
H	-2.3690369594	-1.9049203988	 3.0893903301	 0.119397
H	-3.1853772895	-3.307487008	 2.4377146615	 0.103049
H	-1.1058968136	-3.7149006047	 1.4389731917	 0.092028
H	 0.0353409818	-2.3454235899	-0.0633960298	 0.096381
54.4614	173.7345	213.9694	267.7917	319.248	347.9455	387.4511	442.8495	482.7081	551.045	601.5507	695.4366	728.3139	742.1908	818.7332	842.1312	859.9065	927.1342	963.5891	1018.7207	1019.0242	1026.2899	1043.2818	1085.414	1189.7576	1236.2536	1253.16	1292.2748	1332.3019	1352.8144	1372.125	1396.632	1440.6819	1456.0674	1475.587	1480.4526	1629.0853	1701.9876	1723.3865	3003.396	3015.0378	3053.2989	3064.9177	3144.0134	3144.4969	3174.3644	3206.4693	3820.5566
ON=C1C=CCCC=C1	ON=C1C=CCCC=C1	
InChI=1S/C7H9NO/c9-8-7-5-3-1-2-4-6-7/h3-6,9H,1-2H2	InChI=1S/C7H9NO/c9-8-7-5-3-1-2-4-6-7/h3-6,9H,1-2H2
