20
gdb 109057	3.42801	1.13338	0.93818	1.1511	81.49	-0.2152	0.024	0.2393	1281.9337	0.172755	-403.13289	-403.124452	-403.123508	-403.16599	32.551	
O	 0.0295407204	 1.4489710475	-0.1237341359	-0.414245
C	 0.0043983716	 0.0374272896	-0.0361022633	-0.157942
C	-1.4069551348	-0.4698557339	 0.0456510718	 0.260795
C	-2.4708886736	 0.3365042335	 0.02154871	-0.102757
C	-3.8501898345	-0.2024639243	 0.0949842812	-0.079352
N	-4.2123368725	-1.2870241898	-0.8681889713	-0.341113
C	-4.0413295538	-1.6056133935	 0.5554286187	-0.019029
C	-2.8073681266	-2.395283434	 0.9358739471	-0.215556
C	-1.5667262609	-1.9717826117	 0.1239124056	-0.304614
H	 0.9450958569	 1.7261588342	-0.2136380122	 0.288795
H	 0.5000920765	-0.4264330871	-0.9084348235	 0.094603
H	 0.5593591705	-0.3173965605	 0.8519243062	 0.090348
H	-2.3366601663	 1.4094777426	-0.0502343821	 0.101656
H	-4.6321218584	 0.5149568872	 0.3284639197	 0.077417
H	-5.203089578	-1.2218221739	-1.0891897233	 0.226172
H	-4.9342321442	-1.8235269245	 1.1385941875	 0.076877
H	-2.6202250627	-2.2302594602	 2.0048460958	 0.099976
H	-2.9836599609	-3.4692483629	 0.8056937167	 0.098164
H	-1.6532064201	-2.3754825094	-0.891572706	 0.132016
H	-0.6711349787	-2.4284232088	 0.5637280472	 0.087787
79.6979	140.422	193.1694	209.6761	231.7569	339.1414	362.107	427.1336	469.2145	532.9596	625.7458	697.2024	761.1796	771.1571	838.7495	856.1129	898.8379	920.0091	975.0159	989.5238	1014.1355	1029.2173	1071.2692	1084.8472	1119.1107	1142.3363	1170.5659	1191.2711	1215.0641	1223.1773	1251.2709	1261.6049	1287.678	1332.0259	1357.5538	1393.176	1404.798	1452.1664	1461.8259	1474.1996	1487.9877	1506.9223	1733.6147	2929.9655	2942.6127	3020.4933	3027.6184	3054.5451	3068.3987	3119.5683	3142.9183	3201.9017	3494.3038	3843.8578
OCC1=CC2NC2CC1	OCC1=C[C@H]2N[C@H]2CC1	
InChI=1S/C7H11NO/c9-4-5-1-2-6-7(3-5)8-6/h3,6-9H,1-2,4H2	InChI=1S/C7H11NO/c9-4-5-1-2-6-7(3-5)8-6/h3,6-9H,1-2,4H2/t6-,7+/m0/s1
