25
gdb 120159	3.17957	0.89298	0.80832	0.201	94.37	-0.2799	0.0933	0.3733	1599.1561	0.228987	-352.320646	-352.310915	-352.309971	-352.355474	37.445	
C	 0.0996380457	 1.5842452733	-0.1623787692	-0.380697
C	 0.0075017846	 0.0659604799	 0.0103690602	-0.154587
C	-1.4171525798	-0.4774144574	-0.1726958697	-0.237388
C	-1.4875989879	-1.9947826067	-0.053761144	 0.032587
C	-1.4381130534	-2.7355764863	 1.3227493309	-0.055412
C	-2.9113697222	-2.3038026694	 1.565451409	-0.262949
C	-2.8531709772	-2.7620408847	 0.0717318299	 0.320626
C	-3.9824818952	-2.7858025718	-0.9249949383	-0.515645
C	-2.0121742088	-3.9744706202	 0.5811229427	-0.255857
H	 1.1253990618	 1.9416693995	-0.0271349184	 0.109582
H	-0.2302446764	 1.8895369197	-1.1618901657	 0.112166
H	-0.5327286203	 2.105123113	 0.565417228	 0.11254
H	 0.6770247959	-0.4260870783	-0.7075808091	 0.093087
H	 0.375204723	-0.2136278749	 1.0060432487	 0.097278
H	-2.0814723103	 0.0163278943	 0.5455778669	 0.092868
H	-1.7828619659	-0.1871125591	-1.1683030709	 0.09071
H	-0.8189100132	-2.4433390585	-0.8015252439	 0.051623
H	-0.62340071	-2.7290835788	 2.0483214012	 0.064063
H	-3.4951083606	-2.9401279683	 2.2377023771	 0.083037
H	-3.1101847542	-1.250012683	 1.7678808891	 0.088135
H	-4.3801438289	-1.779474345	-1.0981902894	 0.117472
H	-3.648849796	-3.1842819745	-1.8898386874	 0.115715
H	-4.8077594827	-3.413684898	-0.571016779	 0.116807
H	-1.3585532738	-4.4596796665	-0.1504857254	 0.081975
H	-2.5410788044	-4.7092992083	 1.1953885169	 0.082264
67.7112	84.3322	111.6257	193.6855	226.7795	247.6896	286.5954	310.0579	358.2808	417.533	566.4663	591.4804	628.7719	735.6771	762.936	787.7986	837.7126	889.7885	904.2659	907.3388	911.973	953.4524	1004.0299	1015.6645	1024.4633	1045.199	1054.3534	1083.1105	1122.9371	1134.0839	1151.0843	1157.7728	1179.185	1202.8895	1227.2998	1228.979	1248.6989	1268.2615	1304.9137	1323.4114	1331.6932	1385.5843	1407.308	1412.7902	1432.7434	1481.3963	1488.9788	1489.5427	1492.7698	1500.2205	1503.4061	1511.2562	1545.31	3001.4376	3007.19	3017.3931	3022.7581	3027.8392	3038.2964	3041.7531	3053.5356	3066.3411	3089.3752	3090.39	3094.5372	3098.9796	3099.901	3102.7468	3119.7271
CCCC1C2CC1(C)C2	CCC[C@H]1[C@H]2C[C@]1(C)C2	
InChI=1S/C9H16/c1-3-4-8-7-5-9(8,2)6-7/h7-8H,3-6H2,1-2H3	InChI=1S/C9H16/c1-3-4-8-7-5-9(8,2)6-7/h7-8H,3-6H2,1-2H3/t7-,8-,9+/m0/s1
