17
gdb 34395	2.69536	1.58662	1.31017	1.4487	73.7	-0.2526	0.0292	0.2818	1017.8691	0.135684	-421.777194	-421.769405	-421.768461	-421.809614	30.123	
C	 0.0599630062	-1.2641003454	-0.4444086754	-0.394045
C	 0.0438782384	-0.0977069144	-0.1551618849	 0.232393
C	 0.0485339039	 1.3204731575	 0.1324316295	 0.20866
C	-0.4934070457	 2.2803593527	-0.9822902634	-0.281552
C	 0.8416971043	 3.0778105753	-0.9598531218	-0.257135
C	 1.4113254155	 2.1152656164	 0.1210775328	 0.044216
O	 1.5381500675	 2.6253500954	 1.4289999025	-0.247021
C	 0.2310495504	 2.6742552284	 1.9553461814	 0.003856
O	-0.4715811186	 1.5653179017	 1.4352829721	-0.286022
H	 0.0697355815	-2.2986545057	-0.684309696	 0.19551
H	-0.707373775	 1.7707724314	-1.9225507727	 0.119885
H	-1.3835476398	 2.8268785041	-0.6639128213	 0.116213
H	 1.3990908227	 3.0636898119	-1.8983985171	 0.112186
H	 0.7661472565	 4.1123777262	-0.6179066023	 0.113713
H	 2.3227125088	 1.5733129057	-0.1297405698	 0.103298
H	 0.2790749203	 2.5883769023	 3.0438240507	 0.128211
H	-0.2689379571	 3.6170350265	 1.6715215059	 0.087635
75.2286	148.772	175.9358	232.9616	362.2782	409.1317	490.5341	508.1023	573.8307	617.5183	655.1074	665.267	727.5007	742.6972	822.5291	877.8594	927.3708	952.5785	984.4996	1021.4037	1038.9758	1088.5537	1098.1343	1145.7697	1177.8561	1185.8292	1219.9882	1234.9875	1239.0295	1264.2209	1300.1973	1350.8066	1424.3364	1468.7375	1483.2297	1541.7898	2240.3843	2946.2818	3072.8423	3079.4586	3098.7509	3116.4243	3126.1578	3143.0289	3501.5023
C#CC12CCC1OCO2	C#C[C@]12CC[C@H]1OCO2	
InChI=1S/C7H8O2/c1-2-7-4-3-6(7)8-5-9-7/h1,6H,3-5H2	InChI=1S/C7H8O2/c1-2-7-4-3-6(7)8-5-9-7/h1,6H,3-5H2/t6-,7+/m1/s1
