18
gdb 15711	2.92234	1.8468	1.27868	1.9204	63.5	-0.2519	0.0775	0.3294	972.9188	0.154141	-422.073669	-422.065537	-422.064593	-422.106391	29.733	
C	-0.42005035	 1.4969680152	-0.1808486332	-0.419808
C	 0.1604228585	 0.1005560011	-0.0562186128	 0.089518
O	 1.3943165275	 0.0222514837	-0.7735210753	-0.24659
C	 1.9984880341	-1.151612514	-0.311585344	 0.021159
O	 1.667404285	-1.2870981571	 1.0650250562	-0.292558
C	 0.5796733759	-0.387761336	 1.3460714975	 0.088082
C	 1.1025608012	 0.6827214438	 2.3040508423	-0.065598
O	 1.6804005246	 0.0838919742	 3.4456209583	-0.426923
H	 0.2748710805	 2.25286503	 0.1917997105	 0.136564
H	-0.6340136472	 1.7177054497	-1.2297497762	 0.133328
H	-1.3563566495	 1.571133306	 0.3803745818	 0.125792
H	-0.5475704735	-0.6312395794	-0.4798354983	 0.076233
H	 1.6246915089	-2.0350548592	-0.8585069732	 0.089358
H	 3.0832734397	-1.0663888071	-0.432638547	 0.117119
H	-0.2164318802	-0.959489075	 1.836532215	 0.088341
H	 1.8261743559	 1.3215321739	 1.7733969112	 0.092322
H	 0.2820923082	 1.3172681613	 2.6558434514	 0.104475
H	 2.2799282403	-0.5927398209	 3.1068136157	 0.28919
74.1082	144.9601	195.9366	196.4796	231.6498	289.2831	367.6707	468.4805	477.7719	518.5988	689.9626	743.2019	823.6751	871.0185	942.1329	981.4503	1019.0706	1047.7052	1088.098	1102.9027	1127.2017	1149.7931	1157.0611	1185.82	1221.5442	1239.7584	1301.9656	1336.6821	1362.4141	1390.0464	1401.1067	1419.7096	1429.1478	1446.471	1485.9132	1500.8167	1509.7658	1546.5319	2947.5423	2961.8364	2981.0166	3046.9294	3051.9494	3071.5667	3075.167	3121.8252	3135.6686	3780.6678
CC1OCOC1CO	C[C@H]1OCO[C@H]1CO	
InChI=1S/C5H10O3/c1-4-5(2-6)8-3-7-4/h4-6H,2-3H2,1H3	InChI=1S/C5H10O3/c1-4-5(2-6)8-3-7-4/h4-6H,2-3H2,1H3/t4-,5+/m1/s1
