17
gdb 34242	3.28533	1.60692	1.38497	4.3353	76.59	-0.2448	0.0083	0.2531	955.6963	0.139607	-380.835649	-380.829098	-380.828154	-380.86647	26.999	
N	-0.0461310254	-1.1403076423	 0.0507571668	-0.341576
C	-0.0561469855	 0.0164486122	 0.0334758012	 0.16724
C	-0.0758240622	 1.4539414637	-0.0100807184	 0.261303
N	-1.0262926486	 2.2282410718	 0.8347820006	-0.365726
C	-0.6623752023	 3.3471780211	-0.1150878191	-0.044148
C	 0.7620085132	 3.6366299773	 0.3934233945	-0.189576
C	 1.3150321432	 2.2649787487	-0.0431726443	-0.089057
C	 1.1661612061	 2.344020124	-1.5856885389	-0.248991
C	-0.3390066487	 2.318914932	-1.2838580422	-0.08851
H	-1.9632896394	 1.8960464908	 0.5997203679	 0.225378
H	-1.3745171606	 4.1624607327	-0.2230674299	 0.084504
H	 1.2678379002	 4.4603304095	-0.1164441006	 0.102781
H	 0.7625682373	 3.8061196905	 1.4704749538	 0.12091
H	 2.2066783546	 1.8696849115	 0.4375504775	 0.091679
H	 1.6014560289	 3.2109564692	-2.089307319	 0.103125
H	 1.4759404042	 1.4245504506	-2.0895528137	 0.121806
H	-1.120957935	 2.0841923768	-2.0048230862	 0.088858
145.9984	155.9044	380.5011	421.7715	505.2572	527.4475	532.8277	548.0809	672.5782	714.7156	807.0084	832.206	876.8384	904.7446	916.6504	944.8066	947.8301	971.4127	990.8311	1017.9925	1039.3676	1075.9565	1091.6137	1131.8051	1147.134	1181.4441	1217.5807	1235.5352	1244.9405	1257.253	1274.5289	1298.4472	1320.7443	1354.7909	1483.6803	1503.6364	2347.5478	3059.2793	3073.2142	3116.3936	3130.145	3136.8583	3146.1935	3151.3016	3445.493
N#CC12NC3CC1CC23	N#C[C@@]12N[C@H]3C[C@@H]1C[C@@H]23	
InChI=1S/C7H8N2/c8-3-7-4-1-5(7)6(2-4)9-7/h4-6,9H,1-2H2	InChI=1S/C7H8N2/c8-3-7-4-1-5(7)6(2-4)9-7/h4-6,9H,1-2H2/t4-,5+,6-,7+/m0/s1
