16
gdb 133700	3.60417	1.02716	0.96984	2.7734	57.78	-0.2666	0.0705	0.3371	1226.7902	0.119934	-569.385403	-569.376864	-569.37592	-569.419477	30.807	
C	-0.5403912199	 1.3010202728	 0.1615999357	-0.401671
C	 0.2405567165	 0.0147924452	 0.0118232564	 0.169459
C	 0.9517644277	-0.2675777091	-1.3333881048	-0.323376
C	 2.2305755707	-0.3229014616	-0.4774887246	-0.00101
O	 1.5244036778	 0.0631671229	 0.7050651665	-0.302675
C	 2.846896199	-1.7058401332	-0.3255783495	 0.268217
F	 3.4484261102	-2.0690970576	-1.4716297199	-0.081001
F	 3.7636219118	-1.7277627026	 0.6461325394	-0.069829
F	 1.9220422867	-2.6333127353	-0.0383434591	-0.08211
H	 0.0345675072	 2.1534460049	-0.2130930087	 0.121621
H	-1.4817046296	 1.2405494247	-0.3955699056	 0.12146
H	-0.7781207536	 1.4821024049	 1.2143652675	 0.134217
H	-0.3445257526	-0.8384942025	 0.3759666215	 0.092504
H	 0.6778014922	-1.1889969359	-1.846476156	 0.129816
H	 0.9283620037	 0.5664878553	-2.0361167079	 0.117553
H	 3.0392473822	 0.3714624174	-0.7325354108	 0.106824
61.441	72.159	161.1204	227.9509	229.8035	317.1305	323.4591	428.0072	467.8285	525.4769	577.5201	653.2218	753.5206	792.4996	885.4278	893.3881	921.1118	994.3801	1057.8293	1064.0974	1091.015	1142.373	1176.1807	1202.9871	1214.5987	1259.406	1272.5064	1300.6372	1328.7389	1380.3013	1406.2201	1416.2981	1481.9834	1488.7787	1495.1147	3030.6628	3034.9185	3050.6079	3090.1951	3108.1996	3115.1785	3150.6745
CC1CC(O1)C(F)(F)F	C[C@H]1C[C@@H](O1)C(F)(F)F	
InChI=1S/C5H7F3O/c1-3-2-4(9-3)5(6,7)8/h3-4H,2H2,1H3	InChI=1S/C5H7F3O/c1-3-2-4(9-3)5(6,7)8/h3-4H,2H2,1H3/t3-,4+/m0/s1
