22
gdb 107422	2.92246	1.37327	1.15744	1.4904	84.73	-0.2175	0.0794	0.2969	1176.3201	0.195764	-367.181042	-367.172763	-367.171819	-367.213642	33.24	
C	 0.178909429	 1.5051897236	-0.1979459299	-0.375063
C	-0.1302059282	 0.0342647787	 0.1088767729	-0.288105
C	 0.6424308543	-0.5054951277	 1.2950283107	 0.392205
C	 2.0652797524	-0.9825991618	 1.1079837731	-0.348033
C	 0.9854306751	-1.9744235623	 1.4659280344	-0.106219
C	 0.7478405478	-2.3349830889	 2.9328206753	-0.188149
N	 0.2102624779	-1.1450939966	 3.6386099353	-0.098449
C	 1.1536602083	-0.0346849756	 3.8265751129	-0.258156
C	 0.2180967938	-0.0242402312	 2.6727893501	-0.090514
H	 1.2427508923	 1.6446331101	-0.4162952523	 0.117984
H	-0.3932440217	 1.8570424162	-1.0619914498	 0.11107
H	-0.0705603961	 2.1506739582	 0.650973059	 0.119769
H	-1.2064455373	-0.0850044538	 0.2926254275	 0.09936
H	 0.0991963161	-0.5775110536	-0.7719292654	 0.093889
H	 2.433311601	-1.0115125184	 0.0861942564	 0.107185
H	 2.8323833603	-0.733796696	 1.8320537386	 0.110244
H	 0.6946470268	-2.701554678	 0.7137876029	 0.084454
H	-0.0072481762	-3.125509791	 2.9971738716	 0.109559
H	 1.6465550861	-2.7032509755	 3.4414289368	 0.104194
H	 0.949826478	 0.5851641187	 4.6968994185	 0.110173
H	 2.2118638044	-0.2023789999	 3.6489955497	 0.10817
H	-0.6480574642	 0.633450465	 2.6954838816	 0.084436
96.0907	131.7391	205.4169	255.8554	276.6135	345.7959	371.1187	443.5227	475.7063	617.5999	671.7189	700.1609	771.7718	798.7434	816.7983	840.0547	880.8791	903.9042	936.9791	976.4323	991.8262	1011.5547	1043.1795	1047.1252	1060.7148	1096.0422	1099.1257	1115.0748	1119.9211	1127.6596	1164.769	1230.7367	1235.3483	1260.0857	1278.0117	1323.2932	1338.8614	1363.5056	1373.055	1409.4571	1415.7204	1479.5813	1491.7937	1497.5854	1499.8694	1506.4845	1522.9236	3015.5163	3032.9978	3033.5815	3052.395	3069.6258	3101.2132	3104.0613	3105.3657	3123.1046	3128.216	3151.6232	3185.311	3207.4091
CCC12CC1CN1CC21	CC[C@]12C[C@H]1CN1C[C@@H]21	
InChI=1S/C8H13N/c1-2-8-3-6(8)4-9-5-7(8)9/h6-7H,2-5H2,1H3	InChI=1S/C8H13N/c1-2-8-3-6(8)4-9-5-7(8)9/h6-7H,2-5H2,1H3/t6-,7-,8-,9?/m0/s1
