16
gdb 55184	3.38555	1.38184	1.16271	4.2615	64.57	-0.242	0.0049	0.2469	1046.365	0.124917	-475.000596	-474.992853	-474.991908	-475.033937	28.91	
N	 0.353837797	 0.60116995	 0.9735794824	-0.53287
C	-0.0009532346	-0.0693022664	-0.1497122277	 0.382503
O	 0.6232558113	-0.040401015	-1.192642412	-0.361013
C	-1.2677322792	-0.9329074149	-0.0361615464	 0.038485
O	-1.0264746322	-2.2403122372	 0.5705950421	-0.308746
C	-2.1886653869	-2.1243250269	 1.4092337186	 0.077872
C	-1.8662965585	-1.5386808802	 2.7873488608	-0.101054
O	-1.9935023346	-0.1804612522	 2.2660242124	-0.298585
C	-2.4103576887	-0.6659687511	 0.9655819317	 0.012402
H	 1.1714225868	 1.1876657382	 0.9352124141	 0.257481
H	-0.2607777842	 0.6112957493	 1.7757910518	 0.274889
H	-1.6452882243	-1.0600276346	-1.057258821	 0.105885
H	-2.8803341353	-2.9621385334	 1.3142245827	 0.101346
H	-2.6162960903	-1.7226296747	 3.5649885494	 0.117881
H	-0.8613161821	-1.7538719165	 3.1615421947	 0.128485
H	-3.3279676441	-0.1908227042	 0.6185109662	 0.105038
28.6465	108.5118	211.4798	288.4476	336.9179	387.6007	418.0602	443.8888	605.9818	667.4415	738.5948	766.1956	794.1288	817.5244	895.7154	936.0821	961.1195	989.7432	996.1136	1021.5452	1069.0225	1079.0896	1136.8075	1165.9548	1197.4624	1231.6616	1286.9497	1295.9062	1323.091	1341.6589	1352.6352	1380.1621	1497.2517	1613.3784	1801.4203	3035.5267	3048.7334	3101.2959	3106.6057	3119.2157	3534.4901	3700.1491
NC(=O)C1OC2COC12	NC(=O)[C@H]1O[C@H]2CO[C@@H]12	
InChI=1S/C5H7NO3/c6-5(7)4-3-2(9-4)1-8-3/h2-4H,1H2,(H2,6,7)	InChI=1S/C5H7NO3/c6-5(7)4-3-2(9-4)1-8-3/h2-4H,1H2,(H2,6,7)/t2-,3+,4-/m0/s1
