18
gdb 78837	2.71797	1.70762	1.29062	4.081	76.6	-0.2272	0.0253	0.2525	1009.5734	0.14783	-401.907349	-401.899624	-401.89868	-401.939603	29.827	
C	 0.2020183705	 1.5630143004	 0.1319660723	-0.414599
C	 0.1809073766	 0.0468831985	 0.0191878106	 0.030772
C	 0.863940601	-0.6799583113	-1.1470236589	-0.116197
C	 1.2010068907	-1.8670266987	-0.2718434197	-0.106115
C	 2.3204429368	-0.9665253398	-0.6963952248	-0.035441
N	 2.4653184039	-0.4242040116	 0.643695164	-0.027501
C	 3.1912511231	 0.6042552059	 1.1522885929	 0.132741
O	 2.9563432787	 1.171105778	 2.1998856735	-0.339395
C	 1.0814372506	-0.8517223472	 0.9387901646	-0.064622
H	 1.210671234	 1.9692251307	 0.0297094838	 0.12917
H	-0.419126665	 2.0086028999	-0.6528724221	 0.111331
H	-0.1907824058	 1.8908573814	 1.099522875	 0.128807
H	-0.8443495395	-0.3302911948	 0.1024536804	 0.084277
H	 0.5886652708	-0.6811019657	-2.1945835666	 0.093621
H	 1.0479092374	-2.9316598291	-0.3646482785	 0.106227
H	 3.1479987499	-1.1375439629	-1.37101544	 0.116638
H	 4.0808586338	 0.8221080922	 0.5243651943	 0.066624
H	 0.8372679826	-1.058507236	 1.9767241192	 0.103663
95.0377	144.1272	194.6457	235.6774	286.6357	301.9491	521.8995	564.616	594.1379	697.0112	765.9215	780.9541	786.3541	808.2567	863.179	878.6639	903.1244	1009.8978	1017.215	1019.3996	1027.5221	1042.296	1072.6911	1105.3435	1127.7862	1140.7772	1158.3325	1175.7128	1222.6759	1249.5712	1298.046	1344.6391	1383.8143	1404.2119	1414.5141	1444.1611	1484.6921	1496.745	1785.6391	2911.1684	3038.6902	3051.1843	3101.5258	3129.4618	3168.664	3192.9779	3215.3015	3233.0456
CC1C2C3C2N(C=O)C13	C[C@H]1[C@@H]2[C@H]3[C@@H]2N(C=O)[C@@H]13	
InChI=1S/C7H9NO/c1-3-4-5-6(3)8(2-9)7(4)5/h2-7H,1H3	InChI=1S/C7H9NO/c1-3-4-5-6(3)8(2-9)7(4)5/h2-7H,1H3/t3-,4+,5+,6-,7+/m0/s1
