23
gdb 120642	3.65572	0.81646	0.77334	1.6391	83.4	-0.2233	0.0736	0.2969	1634.5358	0.202739	-425.408729	-425.39796	-425.397016	-425.444838	39.483	
C	-0.2383655749	 1.378119816	-0.1117953537	-0.388223
C	-0.3174229129	-0.1227931963	-0.3260829137	-0.047378
O	-1.3724583131	-0.6380866595	 0.4865833528	-0.264142
C	-1.5266787181	-2.023213982	 0.3550675041	 0.022188
C	-2.842675862	-2.580312138	 0.8355718338	-0.392012
C	-2.5513675979	-2.4864906628	-0.6532897976	 0.432965
O	-3.1946035587	-1.4751838243	-1.3806338965	-0.484614
C	-2.3520984042	-3.730551365	-1.4837070642	-0.229383
C	-3.6726640511	-4.3800933854	-1.9137780836	-0.374631
H	 0.5768040741	 1.8029778923	-0.704859975	 0.119786
H	-1.1714760214	 1.8640358136	-0.4121843435	 0.124543
H	-0.0579050899	 1.6064279896	 0.9423500067	 0.130694
H	-0.506592583	-0.3636706743	-1.3819612426	 0.105719
H	 0.6304001534	-0.6058306317	-0.0418423642	 0.095945
H	-0.6129619041	-2.5977362861	 0.5130548848	 0.083227
H	-2.8397048464	-3.5490527076	 1.324150375	 0.112267
H	-3.5486858356	-1.8643054636	 1.2432328072	 0.119997
H	-2.9989463394	-0.6477382747	-0.9207539721	 0.284696
H	-1.7643589836	-3.4633079538	-2.370814145	 0.100776
H	-1.751263491	-4.444466592	-0.9075906218	 0.091166
H	-3.491898789	-5.2663989721	-2.5295498084	 0.105603
H	-4.2618821451	-4.6869302121	-1.0432614146	 0.114297
H	-4.2749584161	-3.67624224	-2.4940334878	 0.136515
60.74	82.8117	104.0074	110.4507	195.7176	220.5407	238.5736	274.2722	312.9242	343.2294	394.5011	460.0202	466.1987	476.9139	641.8523	732.4649	781.1925	813.1869	823.5207	862.475	907.2251	928.4133	982.0013	1017.3397	1057.104	1058.9355	1084.8588	1104.5295	1119.6046	1156.1608	1178.8008	1188.1497	1208.6373	1262.6468	1295.3568	1332.2742	1345.2804	1369.2311	1403.5606	1407.2846	1431.1198	1437.0972	1475.8403	1483.8564	1490.5	1495.9547	1499.2265	1511.3299	1527.2583	2982.8932	3022.0876	3025.1076	3039.164	3044.8314	3062.7342	3089.3017	3104.8723	3117.6875	3122.9207	3123.1106	3128.1909	3219.6779	3754.5523
CCOC1CC1(O)CC	CCO[C@H]1C[C@]1(O)CC	
InChI=1S/C7H14O2/c1-3-7(8)5-6(7)9-4-2/h6,8H,3-5H2,1-2H3	InChI=1S/C7H14O2/c1-3-7(8)5-6(7)9-4-2/h6,8H,3-5H2,1-2H3/t6-,7+/m0/s1
