19
gdb 51674	4.11386	0.98186	0.91676	3.8989	76.95	-0.223	0.0227	0.2457	1311.2334	0.160773	-419.181454	-419.173155	-419.172211	-419.215965	30.654	
O	-0.13767216	 0.3002109713	 0.7478938833	-0.315767
C	-0.0125131965	 1.2954434198	 0.0691275269	 0.154489
N	 1.164853617	 1.7603888699	-0.4401207271	-0.287944
C	 2.4313675172	 1.1058269186	-0.2370312707	 0.034469
C	 3.4216273168	 1.0281167062	-1.4304301664	-0.215319
N	 4.553190388	 1.5087530975	-0.5754896404	-0.124751
C	 4.8106741612	 2.9744356842	-0.7448132244	-0.160755
C	 3.7613448503	 3.3406878106	 0.3403723978	-0.262777
C	 3.567968605	 1.8204684467	 0.5421481148	 0.019517
H	-0.8644080694	 1.9435893646	-0.2180862987	 0.075336
H	 1.1337227935	 2.6023637638	-0.9932643436	 0.246311
H	 2.2051723111	 0.1317041525	 0.1962995561	 0.130061
H	 3.5864119332	 0.0308037536	-1.8474932843	 0.11774
H	 3.1757118717	 1.7087478752	-2.2571468397	 0.088941
H	 5.8397608742	 3.228695442	-0.47434308	 0.111594
H	 4.6222434241	 3.3454749687	-1.7585432318	 0.099041
H	 4.1532764567	 3.8719714988	 1.209559891	 0.115704
H	 2.876426355	 3.8795916677	-0.0106277466	 0.090551
H	 3.7895702308	 1.4293562283	 1.5384143437	 0.083559
27.7653	55.8424	176.5775	192.8681	248.1929	377.3525	404.1335	506.6846	529.7337	642.4015	718.577	763.5922	778.2817	835.5727	868.8817	917.575	925.3181	974.7527	998.6335	1029.1314	1030.941	1057.433	1093.2272	1138.1753	1162.4309	1191.0041	1210.9408	1220.0741	1231.3883	1256.5991	1276.1704	1291.741	1312.7811	1346.2876	1366.9385	1432.7195	1486.6632	1495.41	1514.5179	1530.3427	1809.8807	2935.3004	3008.0524	3033.7878	3058.1989	3071.1997	3080.2918	3082.323	3117.5342	3126.8358	3630.0342
O=CNC1CN2CCC12	O=CN[C@H]1CN2CC[C@@H]12	
InChI=1S/C6H10N2O/c9-4-7-5-3-8-2-1-6(5)8/h4-6H,1-3H2,(H,7,9)	InChI=1S/C6H10N2O/c9-4-7-5-3-8-2-1-6(5)8/h4-6H,1-3H2,(H,7,9)/t5-,6-/m0/s1
