21
gdb 112604	3.91928	0.82579	0.7962	2.5555	80.36	-0.2638	-0.034	0.2298	1532.614	0.180439	-424.236159	-424.226476	-424.225532	-424.270936	36.103	
C	 0.0621480708	 1.4749679051	 0.2550207194	-0.380586
C	-0.1027433951	-0.024680747	-0.0104635434	-0.196011
C	 0.6392884491	-0.5001549316	-1.2536353586	 0.057997
C	 2.1936662372	-0.5257548669	-1.2277575161	-0.303177
C	 2.169198167	-1.9117076235	-1.95606688	 0.340045
O	 3.0230115498	-2.8976319849	-1.4720503586	-0.48301
C	 0.6563605877	-2.0206756546	-1.566291728	-0.319515
C	 2.3472202603	-1.7575160081	-3.4446827916	 0.118818
O	 3.134640936	-2.4278936602	-4.0703566357	-0.284654
H	 1.115800369	 1.7402921581	 0.3940201372	 0.120606
H	-0.3210830958	 2.0696196192	-0.5817697708	 0.114219
H	-0.4785694634	 1.7808883267	 1.1556849671	 0.115725
H	 0.2557517543	-0.5955814156	 0.8563779987	 0.096163
H	-1.1689344542	-0.2655641139	-0.115350374	 0.098093
H	 0.2845895134	 0.0640395397	-2.1247303502	 0.068902
H	 2.7442204099	 0.2934592577	-1.6979282526	 0.103716
H	 2.5824665964	-0.6824894047	-0.217481963	 0.121927
H	 3.5095837089	-3.231520888	-2.2431058162	 0.289499
H	 0.5833102231	-2.625352276	-0.6581383541	 0.12209
H	-0.0430615603	-2.4104932297	-2.3109667114	 0.102979
H	 1.7148030659	-0.992733232	-3.9405376779	 0.096171
67.4891	95.8252	102.4758	188.2779	230.7984	271.7181	294.9972	351.7017	360.7878	420.0503	432.5208	508.0259	528.3274	675.9777	779.9723	821.6661	830.2513	848.5508	910.2422	933.6107	963.3229	977.2844	1018.1292	1045.9836	1080.425	1087.5417	1131.0698	1147.6678	1214.3149	1222.0324	1257.1108	1274.7046	1300.531	1315.6575	1347.6706	1388.8526	1399.4402	1412.4044	1442.2242	1467.6966	1483.5699	1495.2294	1499.1118	1506.5607	1805.2484	2925.3562	3013.0773	3026.7398	3031.701	3049.3585	3053.3501	3056.802	3097.2974	3105.1437	3112.2174	3115.2841	3680.3611
CCC1CC(O)(C1)C=O	CC[C@H]1C[C@@](O)(C1)C=O	
InChI=1S/C7H12O2/c1-2-6-3-7(9,4-6)5-8/h5-6,9H,2-4H2,1H3	InChI=1S/C7H12O2/c1-2-6-3-7(9,4-6)5-8/h5-6,9H,2-4H2,1H3/t6-,7+
