17
gdb 32346	4.73408	1.0314	0.85262	4.5438	83.3	-0.1885	-0.0397	0.1488	1323.2501	0.137369	-418.028137	-418.019967	-418.019023	-418.060902	31.14	
C	-0.0122520596	 1.4469845526	 0.0667021774	-0.327672
N	-0.1176172034	 0.0052435708	-0.0453584413	-0.367866
C	 0.5731826914	-0.6394337774	-1.0771761459	 0.210169
C	 1.1751376292	-0.0088551981	-2.1102139775	-0.019483
O	 1.7694040964	-0.6758647199	-3.1447710629	-0.244746
C	 1.842646527	-2.0573018216	-3.187696335	 0.381183
N	 2.4256681442	-2.6559857428	-4.1487398937	-0.5469
C	 1.2126452214	-2.7556813177	-2.0820923663	-0.145443
C	 0.6047436898	-2.0863111784	-1.0858941399	-0.125238
H	 1.0277145032	 1.8091640878	 0.1249767408	 0.113976
H	-0.483624301	 1.9209504736	-0.8017411453	 0.137306
H	-0.5481976835	 1.7764346596	 0.9591943576	 0.128545
H	-0.0104157515	-0.46841358	 0.841098755	 0.236537
H	 1.2377844135	 1.060419321	-2.2477362752	 0.120845
H	 2.7965939711	-1.9796221771	-4.8168760483	 0.21623
H	 1.2581176164	-3.8363182624	-2.1173634233	 0.125916
H	 0.1202416555	-2.6197648599	-0.2729466063	 0.106641
82.0881	131.6186	198.5471	239.27	326.6991	358.1931	374.4351	461.7618	484.5898	520.5293	589.3437	636.4837	726.9418	777.8961	807.0478	812.7814	832.9536	859.1504	959.5094	999.2173	1057.1855	1075.5206	1149.9507	1162.8137	1175.8309	1211.9817	1294.5304	1299.7685	1377.35	1442.7253	1462.265	1481.0283	1506.5451	1527.6991	1613.8136	1687.4191	1739.3224	2966.8912	3059.684	3124.0313	3170.9974	3227.1442	3244.0299	3485.463	3575.1766
CNC1=COC(=N)C=C1	CNC1=CC=C(OC1)[NH]	
InChI=1S/C6H8N2O/c1-8-5-2-3-6(7)9-4-5/h2-4,7-8H,1H3	InChI=1S/C6H9N2O/c1-8-5-2-3-6(7)9-4-5/h2-3,7-8H,4H2,1H3
