21
gdb 76701	3.22894	0.79012	0.74928	2.2785	85.27	-0.2466	0.0568	0.3033	1613.6424	0.17993	-387.041239	-387.030775	-387.029831	-387.077229	38.199	
C	 0.0016316449	 1.588208537	-0.2067385956	-0.416916
C	 0.0226017082	 0.0848454397	-0.0295444669	-0.078388
C	 1.3280854991	-0.6852384042	-0.0396583054	 0.073987
O	 2.5435869741	 0.011289263	-0.0556748407	-0.414963
C	 0.5358172048	-0.5872449095	 1.2365837419	-0.05061
C	 1.0665110202	 0.1908003209	 2.4230790946	-0.199365
C	 2.1114631282	-0.62645013	 3.2163031025	-0.347378
C	 2.5877338992	 0.0665583294	 4.4068130847	 0.291224
C	 2.9614581857	 0.6617840772	 5.382365523	-0.441588
H	 0.9421432129	 2.0453504202	 0.1078794497	 0.130115
H	-0.1562883738	 1.8480260537	-1.2597052893	 0.111302
H	-0.8079568824	 2.0488365276	 0.3692063143	 0.1213
H	-0.8119863345	-0.4256596794	-0.5042678484	 0.082201
H	 1.3550599803	-1.6450559201	-0.5555636838	 0.081453
H	 2.6919128791	 0.3409408821	-0.9481944597	 0.290424
H	 0.0101783496	-1.4975916582	 1.5176030055	 0.082449
H	 1.5332595861	 1.1233040869	 2.1016033362	 0.121573
H	 0.2391007202	 0.4611226484	 3.0889248486	 0.104797
H	 1.6797705927	-1.5938418026	 3.5059118188	 0.120928
H	 2.9556153599	-0.850110597	 2.5535652371	 0.148412
H	 3.3012878656	 1.1770032249	 6.2459591131	 0.189041
59.5261	70.7353	88.9753	157.7298	187.6791	199.9617	272.7229	286.8543	314.9838	354.3875	453.4448	504.5278	577.1494	598.311	609.9221	631.6778	754.9255	779.6735	793.2329	889.9057	955.5207	958.4719	990.5675	1031.1259	1040.15	1076.3394	1120.7707	1140.1393	1151.5332	1180.526	1221.2077	1252.6133	1280.2699	1296.8046	1316.2957	1359.8978	1382.7077	1396.4723	1417.2565	1460.6829	1475.5657	1487.9594	1501.2363	1506.5213	2237.025	3019.3662	3033.1438	3044.6185	3065.1917	3087.2277	3092.6339	3111.0912	3123.439	3126.0885	3140.2804	3507.8842	3805.328
CC1C(O)C1CCC#C	C[C@H]1[C@@H](O)[C@H]1CCC#C	
InChI=1S/C8H12O/c1-3-4-5-7-6(2)8(7)9/h1,6-9H,4-5H2,2H3	InChI=1S/C8H12O/c1-3-4-5-7-6(2)8(7)9/h1,6-9H,4-5H2,2H3/t6-,7+,8-/m1/s1
