12
gdb 42164	4.09571	0.99825	0.84806	3.7524	61.98	-0.2861	-0.1429	0.1432	1257.9427	0.074803	-472.607973	-472.599464	-472.59852	-472.64273	28.281	
O	 0.160160382	-0.0157502986	-0.4949902396	-0.242527
C	 0.0985241861	 1.1423272178	-0.1719152352	 0.19264
C	 1.27079784	 2.0309716728	-0.222967127	 0.275508
N	 2.219294838	 2.6892783431	-0.2790865663	-0.285559
C	-1.1925154013	 1.8134227163	 0.3336500208	 0.290137
O	-1.1676291586	 2.9733634404	 0.6586174973	-0.260123
C	-2.3982643673	 0.930321265	 0.4040641284	-0.039641
C	-3.2788409548	 1.051849337	 1.5918336118	-0.155953
O	-3.6481221202	 1.6108111513	 0.3481788506	-0.200426
H	-2.3409256972	-0.0164570253	-0.1241517241	 0.139962
H	-3.8383513995	 0.1740722175	 1.9097596059	 0.139749
H	-3.0099560571	 1.7695363727	 2.3643103775	 0.146234
39.0264	56.3903	124.2663	214.3571	230.1427	272.5507	288.1988	388.7109	482.9622	513.7912	667.7749	771.3535	817.5218	852.767	899.9497	942.5651	1027.6592	1095.3351	1162.7379	1168.6182	1215.7339	1271.0949	1415.7578	1509.8782	1788.5466	1812.3432	2343.8653	3093.9339	3171.7178	3195.1832
O=C(C#N)C(=O)C1CO1	O=C(C#N)C(=O)[C@H]1CO1	
InChI=1S/C5H3NO3/c6-1-3(7)5(8)4-2-9-4/h4H,2H2	InChI=1S/C5H3NO3/c6-1-3(7)5(8)4-2-9-4/h4H,2H2/t4-/m1/s1
