20
gdb 61835	2.30019	1.09184	0.81368	3.6607	77.09	-0.2612	0.0104	0.2716	1436.2129	0.168647	-440.287856	-440.277689	-440.276744	-440.324535	35.694	
C	 0.2720844756	 1.4774204213	 0.1578462462	-0.398649
C	-0.0950880993	 0.0025696634	 0.0501545204	 0.114434
O	-1.5354019384	-0.1226093747	 0.0594626437	-0.190883
C	-2.1237218102	-0.706410329	 1.1160356963	 0.168574
O	-3.3069268949	-0.8458060064	 1.2061909191	-0.2802
C	 0.400185857	-0.6198051275	-1.2355549978	-0.024178
N	 1.8213411947	-0.9959334284	-1.258258106	-0.344435
C	 0.7955246069	-2.0471068546	-1.3831395877	 0.00191
C	 0.7237375937	-3.0855477441	-0.2893001285	-0.403729
H	 1.3591383077	 1.5869306898	 0.1144133627	 0.139044
H	-0.1731328414	 2.0441461706	-0.6655328393	 0.130278
H	-0.0869752743	 1.9015954417	 1.0996450654	 0.12394
H	 0.3187070318	-0.5441699801	 0.9047936742	 0.092195
H	-1.3968589762	-1.0392887113	 1.8836262086	 0.074269
H	-0.0150753971	-0.141942964	-2.1222241841	 0.092748
H	 2.2380247041	-0.777802569	-2.1585298202	 0.235778
H	 0.6373925543	-2.4514617169	-2.3824946554	 0.089779
H	 0.956400337	-2.6574720247	 0.6885002944	 0.124142
H	-0.2719458447	-3.539603076	-0.2470873226	 0.128601
H	 1.4498117437	-3.8834812002	-0.4766065094	 0.126381
31.3716	40.1436	132.5903	159.7197	185.5396	205.6754	229.9293	264.1595	366.5535	373.4082	424.193	460.1363	559.9377	664.0994	786.1877	825.8722	892.2163	936.6565	957.9431	1003.98	1016.6923	1045.8696	1052.0872	1088.7574	1107.0043	1130.7757	1160.0346	1198.5962	1235.3724	1266.8612	1276.3471	1320.1258	1354.0291	1405.0069	1405.2104	1428.6096	1436.8385	1472.2513	1489.6084	1490.2697	1496.2687	1507.7399	1862.1633	2937.574	3038.0078	3043.9634	3049.4512	3100.4701	3104.5026	3116.0379	3119.8971	3127.4385	3129.1414	3513.9676
CC(OC=O)C1NC1C	C[C@@H](OC=O)[C@H]1N[C@H]1C	
InChI=1S/C6H11NO2/c1-4-6(7-4)5(2)9-3-8/h3-7H,1-2H3	InChI=1S/C6H11NO2/c1-4-6(7-4)5(2)9-3-8/h3-7H,1-2H3/t4-,5+,6-/m0/s1
