19
gdb 102523	2.37203	1.11913	0.92893	2.4417	73.43	-0.2541	0.0305	0.2846	1325.6572	0.155803	-460.102167	-460.091571	-460.090627	-460.138065	37.864	
C	 0.0684613599	 1.2297600784	 0.3257403063	-0.254223
O	 0.0672802398	-0.1718056161	 0.0831721602	-0.279758
C	 0.6147520889	-0.5837913636	-1.1706372298	 0.06038
C	 1.3888676725	-1.8753833988	-0.8927837941	-0.074294
O	 2.3527494099	-1.6830981229	 0.1198959988	-0.426634
C	-0.5381799109	-0.8226299252	-2.1786060156	-0.087707
O	-1.5502802329	-1.6075027664	-1.5716625395	-0.410626
C	-1.0683088667	 0.4319021211	-2.7332688309	 0.326245
C	-1.5039877821	 1.4506324826	-3.2007726155	-0.446884
H	 1.0892246715	 1.6332924627	 0.2869756826	 0.121182
H	-0.5560432751	 1.7678689001	-0.3945791557	 0.138148
H	-0.3331817858	 1.3738116215	 1.3317940015	 0.130545
H	 1.3025711428	 0.1817305388	-1.5506649479	 0.090705
H	 0.6724240916	-2.6695217116	-0.6372297319	 0.107532
H	 1.9258038512	-2.1811341788	-1.7965726349	 0.111344
H	 1.8691663396	-1.3053707032	 0.8643150399	 0.285315
H	-0.1460633633	-1.4231361916	-3.0097516367	 0.118662
H	-1.6832111513	-1.2188300523	-0.6957184653	 0.289559
H	-1.8940932694	 2.3453892153	-3.6199290017	 0.200506
53.4725	95.1603	112.8152	144.4187	169.6635	201.4444	250.11	275.3318	308.898	375.139	417.8723	455.5325	463.4635	537.0904	576.2917	626.7082	665.9689	735.4836	823.7719	891.4614	982.7614	1033.3663	1080.4255	1084.6449	1109.3781	1135.2984	1184.398	1199.2432	1243.5088	1263.0845	1272.5188	1350.8835	1376.2869	1394.3184	1424.9878	1435.4677	1481.9359	1490.7189	1505.8957	1513.1728	2227.355	3006.5875	3009.6582	3030.133	3038.1448	3083.6721	3085.6562	3123.3393	3500.5495	3750.8376	3791.1877
COC(CO)C(O)C#C	CO[C@@H](CO)[C@@H](O)C#C	
InChI=1S/C6H10O3/c1-3-5(8)6(4-7)9-2/h1,5-8H,4H2,2H3	InChI=1S/C6H10O3/c1-3-5(8)6(4-7)9-2/h1,5-8H,4H2,2H3/t5-,6-/m0/s1
