18
gdb 116377	3.30389	1.18313	0.91163	0.9021	69.38	-0.2492	0.0082	0.2574	1240.517	0.148838	-476.214394	-476.205997	-476.205053	-476.247799	31.013	
O	 0.0579115361	 1.3941185129	 0.2786683557	-0.422791
C	 0.0524962438	 0.010795189	 0.0008892866	-0.066756
C	-1.369982373	-0.5431395426	-0.0619748598	 0.050948
C	-1.4045251488	-2.0441849089	-0.3447011868	-0.154001
N	-2.693610863	-2.703806165	-0.4350921702	-0.255654
C	-3.6927934128	-2.477153545	 0.2966568955	 0.121306
O	-3.9277522794	-1.5565351306	 1.278177976	-0.222566
C	-3.3442396215	-0.2628417978	 1.2082641649	 0.017432
O	-1.9584099369	-0.2418267552	 1.208259273	-0.245914
H	-0.4856599501	 1.5064792921	 1.0674621103	 0.287576
H	 0.5433935324	-0.1245328604	-0.9676952571	 0.115736
H	 0.624939085	-0.5567605022	 0.7524145598	 0.0957
H	-1.9285429922	-0.0018929123	-0.8417364731	 0.086127
H	-0.8748777988	-2.2250656176	-1.2876623668	 0.114432
H	-0.8276101212	-2.554807275	 0.4396759882	 0.125851
H	-4.5622279526	-3.1304037704	 0.2199801817	 0.124621
H	-3.7366279326	 0.2443743561	 0.3126906522	 0.100693
H	-3.6811615246	 0.2404859229	 2.1158571698	 0.127261
94.0128	102.3319	136.3551	195.2565	296.8851	340.0359	391.0023	425.0609	452.1839	485.7585	526.8164	649.2633	753.6047	843.8037	903.4814	938.8163	966.3413	967.5324	1058.8853	1087.655	1093.5506	1097.6926	1116.0488	1166.3182	1200.2953	1237.3884	1266.0535	1303.7159	1332.3146	1383.1963	1389.8311	1405.5466	1429.631	1438.5617	1460.7431	1470.9809	1498.181	1502.263	1764.8681	2974.6932	2980.0342	2991.9773	3013.9887	3055.3666	3087.4443	3122.9893	3138.0974	3795.6503
OCC1CN=COCO1	OC[C@H]1CN=COCO1	
InChI=1S/C5H9NO3/c7-2-5-1-6-3-8-4-9-5/h3,5,7H,1-2,4H2	InChI=1S/C5H9NO3/c7-2-5-1-6-3-8-4-9-5/h3,5,7H,1-2,4H2/t5-/m1/s1
