15
gdb 25764	2.89699	1.54537	1.00801	3.2425	70.45	-0.1936	0.0073	0.2009	1093.5349	0.11424	-454.032721	-454.024812	-454.023868	-454.064986	30.331	
N	 0.0887637019	 1.2852929569	 0.079108328	-0.550912
C	-0.0119793533	-0.0742839063	 0.0725402556	 0.370267
O	 1.0124482505	-0.781018141	 0.1073892878	-0.450481
C	-1.3277424444	-0.6790731953	 0.0505184753	 0.032707
C	-1.4138863537	-2.0697738568	 0.0510300576	 0.40052
O	-0.4326516562	-2.959854931	 0.0747806319	-0.421333
N	-2.7204265483	-2.4250660314	 0.0219255461	-0.342077
C	-3.509555375	-1.2736365108	 0.0050207939	-0.067324
C	-2.6805426378	-0.1906542288	 0.0223506407	-0.309245
H	 1.0086620976	 1.6758401153	-0.0432951682	 0.260252
H	-0.7036487311	 1.8614625575	-0.1446940579	 0.260543
H	 0.3815306688	-2.3820885458	 0.0985797424	 0.328577
H	-3.0495882234	-3.3751840101	 0.0175875909	 0.270116
H	-4.5835915475	-1.3482496017	-0.0149194962	 0.125953
H	-3.0037822581	 0.8394374194	 0.0239663923	 0.092437
107.0237	173.9365	212.3313	252.0442	291.9119	356.94	474.9896	484.8917	517.707	535.7512	619.047	643.8111	679.5361	710.6685	741.0198	787.3841	800.7205	854.7658	909.44	1063.3209	1075.7445	1093.3288	1178.9318	1235.3148	1304.2227	1358.1312	1390.9742	1481.2094	1552.2151	1564.3708	1622.3734	1626.0034	1710.4723	3191.1977	3239.9406	3281.536	3605.3265	3679.6217	3737.3815
NC(=O)C1=C(O)NC=C1	NC(=O)c1c(O)[nH]cc1	
InChI=1S/C5H6N2O2/c6-4(8)3-1-2-7-5(3)9/h1-2,7,9H,(H2,6,8)	InChI=1S/C5H6N2O2/c6-4(8)3-1-2-7-5(3)9/h1-2,7,9H,(H2,6,8)
