18
gdb 128234	2.65494	1.31347	0.89265	1.5305	76.35	-0.1771	0.0411	0.2182	1299.7035	0.148221	-435.26492	-435.255396	-435.254452	-435.299644	33.6	
C	 0.0805795497	 1.3725110837	-0.1459415255	-0.322888
N	-0.2005930993	-0.0322717347	 0.083090371	-0.398117
C	 0.5434402398	-0.6799873715	 1.0697318774	 0.13349
C	 1.2398248218	-0.1734634676	 2.1489985831	-0.104157
N	 1.7376840952	-1.2479327792	 2.8288014337	-0.228854
N	 1.420098382	-2.4302772619	 2.2549783834	-0.325384
C	 0.7020839938	-2.0858796666	 1.1985509575	 0.387373
O	 0.1800913367	-2.9610781982	 0.313816568	-0.278413
C	 0.4542202604	-4.3324568652	 0.5742677482	-0.234019
H	 1.1448842683	 1.5862138805	-0.3433469221	 0.104534
H	-0.5104933364	 1.7256637731	-0.9943428651	 0.12224
H	-0.2194825775	 1.9581014831	 0.7310202842	 0.126306
H	-0.2367998852	-0.5780627886	-0.7668304672	 0.239785
H	 1.4104075412	 0.8376095224	 2.4794282214	 0.124729
H	 2.2861239909	-1.2468954606	 3.6684792069	 0.268739
H	 1.5327065384	-4.5250104052	 0.5724470118	 0.129566
H	 0.0510774597	-4.6348508007	 1.5467743195	 0.131981
H	-0.0303277595	-4.8956337729	-0.2248903162	 0.123089
67.4433	102.0087	150.7153	159.6222	183.6369	210.3543	251.4261	294.9559	342.6378	419.3845	565.4049	585.0137	633.9859	693.0333	709.9724	746.9086	790.6976	939.0166	1045.1867	1067.9395	1093.1865	1145.6299	1164.4226	1181.9757	1202.1185	1221.2149	1260.2644	1336.855	1418.9035	1455.4412	1463.1146	1472.2328	1478.3409	1484.114	1504.5754	1508.9787	1524.0959	1581.8419	1660.2812	2958.8459	3027.7741	3051.8413	3091.6715	3115.0436	3139.3146	3270.9287	3580.5461	3708.6004
CNC1=CNN=C1OC	CNc1c[nH]nc1OC	
InChI=1S/C5H9N3O/c1-6-4-3-7-8-5(4)9-2/h3,6H,1-2H3,(H,7,8)	InChI=1S/C5H9N3O/c1-6-4-3-7-8-5(4)9-2/h3,6H,1-2H3,(H,7,8)
