16
gdb 124678	3.82634	1.04168	1.01313	1.4367	70.46	-0.2654	-0.0486	0.2168	1205.3974	0.124615	-434.09651	-434.08811	-434.087166	-434.131679	29.053	
C	 0.152975771	 1.4994616054	-0.1925419232	-0.400853
C	 0.0388914068	 0.0011202196	 0.0773228184	-0.050556
C	 0.4401947669	-0.8545322759	-1.1302031166	 0.145473
O	 0.5225391236	-0.4312222552	-2.2508410669	-0.226393
N	 0.7862336327	-0.4378157566	 1.2486816042	 0.026723
C	 2.0984850221	-0.2972226572	 1.5437605083	 0.015005
N	 2.3819176047	-0.8876206091	 2.6896147283	-0.27097
C	 1.1766746991	-1.3962425306	 3.0640343316	 0.037838
N	 0.1791837204	-1.1571515077	 2.2280902738	-0.244705
H	 1.1873360253	 1.7903055945	-0.3942537297	 0.135772
H	-0.4352548881	 1.7513083663	-1.0766695221	 0.15216
H	-0.214997039	 2.0703038806	 0.6624935979	 0.138369
H	-1.0000712409	-0.2655856202	 0.3062482205	 0.147798
H	 0.6413996143	-1.9189184323	-0.8798837322	 0.108066
H	 2.7914229765	 0.2375456936	 0.9118203537	 0.152495
H	 1.0284503345	-1.9547609954	 3.9761112441	 0.133778
16.5897	67.5665	119.7931	200.9591	241.4085	254.6412	389.6651	417.5251	576.7262	675.253	696.1189	723.8289	852.885	857.0117	909.9816	929.0423	970.9887	1012.1485	1072.3137	1107.2676	1134.9617	1172.6039	1221.479	1230.2046	1312.4272	1316.5763	1353.9061	1390.9718	1402.5103	1418.1006	1459.4117	1489.3445	1493.2693	1547.4536	1840.2377	2905.7717	3053.3571	3060.4728	3133.4465	3149.7092	3258.3203	3263.2816
CC(C=O)N1C=NC=N1	C[C@@H](C=O)n1cncn1	
InChI=1S/C5H7N3O/c1-5(2-9)8-4-6-3-7-8/h2-5H,1H3	InChI=1S/C5H7N3O/c1-5(2-9)8-4-6-3-7-8/h2-5H,1H3/t5-/m0/s1
