15
gdb 20225	4.473	2.82583	2.42895	1.7855	66.56	-0.2153	0.0051	0.2205	626.1968	0.122222	-325.45063	-325.445724	-325.44478	-325.47918	21.532	
C	-0.0465833341	 1.5463904731	-0.0348086669	-0.075042
C	 1.2024070841	 2.0250004764	-0.0395817039	-0.075042
C	 2.1353396727	 0.8510235037	 0.0168814731	-0.045166
C	 2.080626579	 0.026405205	 1.3332998757	-0.092824
C	 0.644854201	-0.5237699803	 1.3387981202	-0.092825
C	 1.7220395848	-1.1941630921	 0.5523209793	-0.042864
N	 1.3726753386	-0.2943818802	-0.6431850204	-0.165128
C	 0.0443086131	 0.0497455056	 0.0248837793	-0.045165
H	-0.9679182087	 2.1142373153	-0.0042095469	 0.102646
H	 1.5085220995	 3.0632044046	-0.0136787163	 0.102645
H	 3.1373587349	 0.9804976745	-0.39406678	 0.075588
H	 2.6616894328	 0.124483708	 2.241467289	 0.089615
H	 0.1531207517	-0.8367762441	 2.25107375	 0.089615
H	 2.1076312378	-2.2010648876	 0.4891439205	 0.098358
H	-0.7903533271	-0.5246019821	-0.3790332827	 0.075589
382.7584	400.4602	556.596	663.0274	733.5348	736.5507	764.179	818.637	819.961	863.2404	863.5955	881.4719	890.8373	944.773	951.315	971.3779	1009.8809	1021.0251	1034.2086	1038.9177	1059.9921	1064.9644	1132.455	1178.308	1201.4961	1225.3265	1225.5552	1295.8307	1302.7998	1363.113	1364.5314	1642.7609	3101.9408	3104.505	3190.0055	3196.1004	3200.8456	3225.2172	3227.2912
C1=CC2C3C4C3N2C14	C1=C[C@H]2[C@H]3[C@@H]4[C@H]3N2[C@H]14	
InChI=1S/C7H7N/c1-2-4-6-5-3(1)8(4)7(5)6/h1-7H	InChI=1S/C7H7N/c1-2-4-6-5-3(1)8(4)7(5)6/h1-7H/t3-,4+,5-,6+,7-
