23
gdb 100792	2.50124	1.0044	0.90232	2.2671	82.51	-0.2514	0.0805	0.332	1466.8514	0.203506	-425.404164	-425.393447	-425.392503	-425.440347	39.051	
C	 0.0055847065	 1.386923587	-0.1741617849	-0.234639
O	 0.0149562696	-0.0093588771	 0.0098632731	-0.269918
C	-1.2699294499	-0.6299316783	 0.0863015513	 0.121362
C	-1.9359062692	-0.7392574735	-1.2850939048	-0.410509
C	-0.9960743903	-2.0111241425	 0.711770405	 0.106056
O	-0.0400068106	-2.7123696738	-0.073624467	-0.446079
C	-0.5735267604	-1.8988469736	 2.162194903	 0.017248
C	-1.6164829054	-1.9194700959	 3.2539362135	-0.272081
C	-0.6887284384	-3.0943239236	 3.0656159332	-0.272787
H	 1.0431165805	 1.7262418605	-0.1178400833	 0.127658
H	-0.4036373049	 1.681356964	-1.1507101307	 0.111326
H	-0.5758163207	 1.8930417382	 0.6115900379	 0.107529
H	-1.9095567244	-0.0510939215	 0.7715254717	 0.068479
H	-2.9330824472	-1.1800041783	-1.18454078	 0.115325
H	-2.0543245154	 0.2394681946	-1.7581280043	 0.111081
H	-1.3386169664	-1.3806654442	-1.9376761194	 0.135884
H	-1.9176148202	-2.6047478408	 0.657543357	 0.072354
H	 0.690555318	-2.0952138187	-0.2062179652	 0.286397
H	 0.2788383383	-1.2441937001	 2.31805204	 0.085815
H	-1.474260392	-1.2776225951	 4.1163358473	 0.108536
H	-2.655555627	-2.0435615296	 2.9639964137	 0.106049
H	-1.1001252867	-4.0051123351	 2.6429784452	 0.115595
H	 0.0890352862	-3.2610414925	 3.8025204277	 0.109321
58.4327	75.6261	87.8273	151.7631	200.6418	208.106	223.672	266.075	295.4768	356.2729	383.3974	428.9871	476.7611	505.2772	686.511	767.9138	806.8602	834.6086	869.4547	916.9768	943.4391	987.6179	1002.7229	1045.6833	1057.2287	1076.945	1106.0197	1125.0321	1141.5135	1156.664	1180.1264	1186.3444	1197.5315	1212.1	1225.612	1288.6585	1304.0526	1355.5393	1373.7299	1401.2948	1427.9783	1433.0877	1472.1668	1478.1022	1483.277	1494.3878	1502.6194	1507.2649	1512.7546	2978.6011	2985.3436	3031.0927	3034.9994	3045.8683	3109.4029	3111.0183	3126.6113	3131.3221	3133.7324	3154.6039	3204.4749	3220.7046	3780.9604
COC(C)C(O)C1CC1	CO[C@@H](C)[C@@H](O)C1CC1	
InChI=1S/C7H14O2/c1-5(9-2)7(8)6-3-4-6/h5-8H,3-4H2,1-2H3	InChI=1S/C7H14O2/c1-5(9-2)7(8)6-3-4-6/h5-8H,3-4H2,1-2H3/t5-,7+/m0/s1
