19
gdb 106877	2.89338	1.17469	0.98116	3.0317	78.39	-0.2551	-0.0376	0.2175	1269.7881	0.156943	-423.010999	-423.001869	-423.000925	-423.045198	33.451	
C	 0.0308348046	 1.445278992	-0.3038205406	-0.382152
C	 0.0199122932	-0.0120055153	 0.1831113907	-0.292671
C	-1.3728561028	-0.5556394977	 0.2880076656	 0.346404
C	-2.4640945209	-0.1979004072	 1.3177313956	-0.281782
C	-3.0441920298	-1.6453748589	 1.1653820355	-0.298533
C	-1.9465290884	-1.9388970684	 0.1435677761	 0.243561
O	-2.0391490516	-0.9532068064	-0.9027411054	-0.309742
C	-1.2499189828	-3.1999425478	-0.1554905373	 0.065211
O	-1.4186003893	-4.2209566806	 0.4681798137	-0.262405
H	 1.055228639	 1.8218607197	-0.3706824714	 0.120962
H	-0.4286495769	 1.5265775341	-1.2931156353	 0.13713
H	-0.5220082404	 2.0971738927	 0.380176334	 0.123816
H	 0.5961432423	-0.6395189389	-0.504268247	 0.115426
H	 0.5011783863	-0.0816819001	 1.1658781214	 0.111672
H	-2.063667339	-0.0064589814	 2.315795474	 0.113391
H	-3.1156772787	 0.6265246257	 1.020100117	 0.116477
H	-2.9382819491	-2.2470075621	 2.0690483111	 0.131717
H	-4.0622775904	-1.7318920086	 0.7812751751	 0.1179
H	-0.5361612651	-3.1317861209	-1.0046157829	 0.083617
71.8087	92.7152	150.7746	192.7226	208.09	230.1008	283.4065	345.7775	464.0485	492.4946	510.4821	639.4571	726.6169	760.4999	781.7446	790.0126	854.9558	936.3013	952.6893	973.9369	1009.7677	1039.7678	1081.7442	1102.7801	1131.1446	1196.3944	1216.5036	1218.6859	1242.296	1314.9617	1316.9413	1345.8634	1390.6416	1410.2078	1450.7538	1464.8512	1474.836	1491.2179	1498.392	1509.4219	1801.634	2902.9761	3038.1339	3042.1339	3069.5241	3081.5792	3083.6596	3113.3322	3120.6559	3124.1471	3146.329
CCC12CCC1(O2)C=O	CC[C@]12CC[C@]1(O2)C=O	
InChI=1S/C7H10O2/c1-2-6-3-4-7(6,5-8)9-6/h5H,2-4H2,1H3	InChI=1S/C7H10O2/c1-2-6-3-4-7(6,5-8)9-6/h5H,2-4H2,1H3/t6-,7-/m0/s1
