14
gdb 131469	3.28647	1.62963	1.13976	3.4824	68.68	-0.2285	-0.0434	0.1851	993.265	0.102676	-436.6624	-436.655634	-436.65469	-436.693636	26.177	
O	 0.1499484756	 1.4136091851	-0.2192677955	-0.40813
C	 0.0252066023	 0.0192301964	-0.0382938216	-0.058401
C	 0.6441078715	-0.5424526367	 1.2521797841	-0.138577
C	-0.2291559183	-1.3009242118	 1.9390692336	-0.212677
C	-1.5101019094	-1.3115176173	 1.2144062065	 0.164197
C	-1.3743223411	-0.5366389674	 0.1050630906	 0.343384
O	-2.4890468777	-0.4888209114	-0.6113818524	-0.221265
N	-3.451274524	-1.2796125547	 0.0548548382	-0.137678
C	-2.850861056	-1.7582208833	 1.1274251397	-0.131177
H	-0.2402627365	 1.8451915313	 0.5494784196	 0.292547
H	 0.5180427088	-0.4328146973	-0.9091502156	 0.135245
H	 1.66915173	-0.3252684886	 1.5217388923	 0.11654
H	-0.0311739097	-1.8189980474	 2.8682299826	 0.118598
H	-3.4210905554	-2.4023009168	 1.7819473479	 0.137393
127.9582	169.6681	289.5549	336.3018	360.1613	488.3044	564.8667	621.9218	640.3816	692.4654	711.4917	777.1714	844.3182	864.7337	903.6504	947.6136	966.4569	975.6206	1074.4052	1089.1053	1172.3998	1196.6375	1217.021	1255.5302	1319.3542	1370.1818	1410.5833	1424.2841	1504.4013	1591.1814	1627.6683	3038.3053	3214.3991	3236.7708	3243.8304	3800.9026
OC1C=CC2=C1ON=C2	O[C@H]1C=Cc2c1onc2	
InChI=1S/C6H5NO2/c8-5-2-1-4-3-7-9-6(4)5/h1-3,5,8H	InChI=1S/C6H5NO2/c8-5-2-1-4-3-7-9-6(4)5/h1-3,5,8H/t5-/m0/s1
