17
gdb 75814	3.0762	1.27555	1.09357	1.7014	68.53	-0.2517	-0.0385	0.2132	1118.0713	0.134196	-458.934186	-458.925649	-458.924705	-458.967886	31.064	
O	 0.5797167867	 0.8594883042	-0.6676592477	-0.42595
C	 0.1948128754	-0.2978459931	 0.0062209376	 0.002662
C	 0.0252872768	-0.2256262824	 1.5240222821	 0.341804
O	 0.4725452708	 0.5466961521	 2.3252284489	-0.302916
C	-1.1846860355	-1.1661162958	 1.4862952553	-0.417953
C	-1.2944710962	-0.7969592348	-0.0207112501	 0.216383
C	-2.3831206864	 0.1751604852	-0.5142135775	-0.11817
O	-2.811664959	-0.7598664595	-1.5258293595	-0.269321
C	-1.8369182406	-1.7347410499	-1.110062511	-0.142266
H	 0.7140079873	 1.5463685639	-0.0020339384	 0.301025
H	 0.8487678437	-1.1362070937	-0.2785522138	 0.108823
H	-0.9081106253	-2.2140237689	 1.643084847	 0.135709
H	-2.0178261329	-0.911372908	 2.1447068992	 0.139849
H	-3.1814377063	 0.4001138598	 0.204712486	 0.101387
H	-2.0016768573	 1.1064524082	-0.9485591634	 0.118103
H	-1.1303281119	-1.9842532767	-1.9126777171	 0.108669
H	-2.3058306092	-2.6583007104	-0.7446525678	 0.102162
70.8591	80.5293	169.1486	216.3115	228.5934	276.7797	340.5302	379.0771	494.7811	531.2105	626.8899	749.8161	755.0046	844.2364	857.2675	872.39	960.2836	985.6183	1026.0346	1042.7616	1080.8534	1110.0194	1136.3799	1152.9944	1163.8805	1176.9102	1213.4851	1248.9977	1261.4914	1309.2404	1337.5433	1380.3807	1401.6198	1442.1014	1505.144	1529.9929	1876.826	2995.6954	2998.2105	3014.7287	3043.0412	3056.8177	3066.7894	3122.3396	3771.4674
OC1C(=O)CC11COC1	O[C@H]1C(=O)CC21COC2	
InChI=1S/C6H8O3/c7-4-1-6(5(4)8)2-9-3-6/h5,8H,1-3H2	InChI=1S/C6H8O3/c7-4-1-6(5(4)8)2-9-3-6/h5,8H,1-3H2/t5-/m0/s1
