16
gdb 130390	3.29219	1.24197	1.03136	6.0239	65.78	-0.2752	-0.01	0.2651	1142.3444	0.126673	-467.360358	-467.352249	-467.351305	-467.393386	29.736	
N	 0.012239039	 0.8477533032	 1.4142612965	-0.525283
H	-1.0319679834	 1.1029421744	 3.2957302191	 0.291155
H	 0.9907947704	 1.0681523393	 1.2630793737	 0.243338
H	-0.1218478752	-0.123027316	 1.1459910288	 0.254023
C	-0.8348678726	 1.6874350595	 0.5539135756	-0.174107
C	-2.3102749571	 1.3511627917	 0.7775332668	 0.024963
O	-2.4616564887	-0.0189411796	 0.4068160192	-0.435949
C	-2.7592102564	 1.5745262511	 2.1925828859	 0.398999
N	-2.0102686139	 1.3762366006	 3.2903878156	-0.230239
N	-2.7556527312	 1.6252126572	 4.3790148486	-0.095101
N	-3.9281368605	 1.9573542382	 3.9418605371	-0.111057
N	-3.9664754812	 1.9372312071	 2.5823808712	-0.287831
H	-0.6670354623	 2.7390898306	 0.807715072	 0.124585
H	-0.6281575269	 1.5637585993	-0.5189468095	 0.111794
H	-2.9261868862	 1.9968490571	 0.1381247031	 0.10911
H	-3.3694388138	-0.2807565636	 0.5958412664	 0.301602
72.5837	146.6628	174.4447	208.5406	293.3113	337.2225	356.1455	378.6128	440.7976	592.7962	715.5247	754.6429	807.068	827.1973	883.0065	923.5187	994.0102	1014.0799	1053.7899	1062.2042	1089.6111	1094.1519	1117.5668	1176.0362	1242.1043	1266.0157	1314.9561	1331.8786	1373.6473	1409.2222	1429.9794	1464.8734	1499.1174	1565.805	1643.8794	3000.48	3030.2746	3081.8598	3502.9874	3536.0524	3583.5196	3812.8259
[NH3+]CC(O)C1=N[N-]N=N1	NC[C@@H](O)c1[nH]nnn1	
InChI=1S/C3H6N5O/c4-1-2(9)3-5-7-8-6-3/h2,9H,1,4H2/q-1/p+1	InChI=1S/C3H7N5O/c4-1-2(9)3-5-7-8-6-3/h2,9H,1,4H2,(H,5,6,7,8)/t2-/m1/s1
