18
gdb 10642	2.65014	1.80356	1.32186	0.9092	75.46	-0.2387	0.0394	0.2781	1009.4173	0.150511	-347.747439	-347.738291	-347.737347	-347.780723	33.522	
C	 0.0493879569	 1.3063084319	-0.2895325244	-0.251357
O	-0.0521899915	-0.001598967	 0.2482976105	-0.271406
C	-1.3221637783	-0.5715470204	 0.1181650074	 0.231305
C	-1.6733380036	-1.1998668799	-1.2260488222	-0.347969
C	-1.338074383	-2.0789614493	-0.0467869211	-0.058508
C	-0.0495559716	-2.8682214182	-0.0021788389	-0.404007
C	-2.3661995687	 0.0598625435	 0.887402476	 0.322697
C	-3.2285747808	 0.6004793344	 1.529152269	-0.487604
H	 1.082471665	 1.626852447	-0.1391057032	 0.126724
H	-0.1812868474	 1.3183334462	-1.3641922781	 0.107238
H	-0.6250507622	 2.0044261155	 0.2226400292	 0.123635
H	-2.6978515594	-1.1402080489	-1.5741262745	 0.122016
H	-0.9150375584	-1.0963867724	-1.9956199078	 0.120288
H	-2.1871058313	-2.5614282854	 0.4283553727	 0.101046
H	 0.7760443426	-2.2952218293	-0.4283164769	 0.131331
H	 0.2184366306	-3.1246971751	 1.0278528037	 0.123607
H	-0.1538647075	-3.8012751354	-0.5662766246	 0.115588
H	-3.9897613512	 1.0698522026	 2.1017192731	 0.195377
108.7144	139.3405	156.6562	171.285	191.5309	213.2195	294.931	360.8316	412.7846	475.6946	551.6029	573.4455	603.276	669.7858	676.704	801.4827	893.8336	914.2797	933.2671	997.671	1047.329	1072.016	1107.8324	1137.7283	1184.3561	1191.9092	1214.4607	1253.7981	1273.7487	1397.6286	1418.8373	1468.3183	1477.2837	1485.054	1492.6288	1500.7851	1510.3458	2227.5526	2997.6143	3038.4869	3058.002	3097.4471	3124.7746	3130.7229	3132.8583	3156.5941	3226.5189	3501.8976
COC1(CC1C)C#C	CO[C@]1(C[C@H]1C)C#C	
InChI=1S/C7H10O/c1-4-7(8-3)5-6(7)2/h1,6H,5H2,2-3H3	InChI=1S/C7H10O/c1-4-7(8-3)5-6(7)2/h1,6H,5H2,2-3H3/t6-,7+/m1/s1
