13
gdb 42522	4.02392	1.06365	0.89221	0.563	73.81	-0.255	-0.0495	0.2055	1230.0038	0.085012	-419.336475	-419.327868	-419.326924	-419.370467	30.79	
O	-0.0201681105	 0.0492500275	-0.3191074734	-0.246743
C	 0.1014744373	 1.218651626	-0.1827775588	 0.346917
C	-0.8481565056	 2.4433552245	-0.0573231788	-0.164037
O	 0.3180156276	 3.3003649705	 0.0600831138	-0.286361
C	 1.2827293006	 2.2206590381	-0.0484192819	-0.164047
C	 2.1450915568	 2.0606486054	 1.101930911	 0.321945
C	 2.8481193827	 1.9048790177	 2.0638705015	-0.424569
C	-1.6975668288	 2.728093183	-1.1931080855	 0.321929
C	-2.3945991971	 2.9416034037	-2.1483042355	-0.424566
H	-1.4246016073	 2.4306392807	 0.8780572797	 0.146673
H	 1.8665919549	 2.3045089588	-0.9754911398	 0.146672
H	 3.4754496045	 1.773026762	 2.9110912368	 0.213093
H	-3.0153562752	 3.136398302	-2.9882011891	 0.213093
44.089	104.9216	131.0242	177.1277	242.8151	346.5531	417.3188	426.0319	446.4628	598.6628	624.4276	625.9964	688.8097	690.3101	710.2073	741.9216	764.5091	935.3702	956.0954	1007.1692	1056.527	1078.3688	1204.6297	1206.7357	1309.1794	1325.4174	1945.8053	2236.5507	2236.7718	3014.8174	3019.5975	3500.7419	3501.1049
O=C1C(OC1C#C)C#C	O=C1[C@@H](O[C@H]1C#C)C#C	
InChI=1S/C7H4O2/c1-3-5-7(8)6(4-2)9-5/h1-2,5-6H	InChI=1S/C7H4O2/c1-3-5-7(8)6(4-2)9-5/h1-2,5-6H/t5-,6-/m0/s1
