13
gdb 128496	2.4556	1.53144	0.94891	3.9648	68.65	-0.2547	-0.0264	0.2283	1142.3767	0.089483	-452.745593	-452.737717	-452.736773	-452.778675	27.457	
C	 0.0104195295	 1.4234225816	-0.0365729229	-0.258534
O	 0.0115901634	-0.0169832499	-0.0205137618	-0.251573
C	 0.5848712372	-0.6378099957	-1.0239349957	 0.506617
C	 0.7223699614	-1.9920399825	-1.2493792098	-0.10841
C	 1.4252275162	-2.0258481638	-2.4883919969	-0.014935
N	 1.6866188647	-0.8397172788	-2.9654024433	-0.145988
O	 1.1383851997	 0.0608614206	-2.0093643484	-0.224409
C	 0.2738816044	-3.0589193209	-0.4446939659	 0.203187
N	-0.0899793358	-3.9436040664	 0.2084777155	-0.346835
H	 1.0339790333	 1.8057865477	-0.0347299268	 0.15823
H	-0.521169666	 1.7946866365	-0.9160377225	 0.158229
H	-0.5079217245	 1.7173597409	 0.8743803909	 0.161042
H	 1.7448744965	-2.8979882795	-3.0410628225	 0.163379
87.7697	122.5572	155.7156	180.4647	243.7676	299.8526	437.1373	538.4888	541.8726	629.7913	632.5835	719.2153	744.2677	874.1609	926.9865	934.9641	1022.275	1174.3836	1197.7176	1207.3021	1216.2685	1315.8075	1415.6505	1470.723	1487.5589	1494.56	1571.0109	1664.6015	2350.7931	3055.8242	3135.9769	3177.6851	3250.8823
COC1=C(C=NO1)C#N	COc1c(cno1)C#N	
InChI=1S/C5H4N2O2/c1-8-5-4(2-6)3-7-9-5/h3H,1H3	InChI=1S/C5H4N2O2/c1-8-5-4(2-6)3-7-9-5/h3H,1H3
