20
gdb 116521	2.19268	1.18433	0.82199	2.9932	87.95	-0.2291	-0.037	0.192	1457.582	0.168771	-399.341424	-399.330451	-399.329507	-399.37841	37.424	
C	 0.0021119063	 1.5945012838	-0.0003761256	-0.359355
C	 0.080761492	 0.0652997756	 0.009209954	-0.154593
N	 0.7813087117	-0.4098926595	-1.1682638734	-0.316973
C	 1.7921901068	-1.1862980031	-1.0865864184	 0.330901
C	 2.3603276694	-1.6095832187	 0.1915894158	 0.234103
N	 2.7676531029	-1.9002846892	 1.2345027891	-0.354491
N	 2.396635463	-1.7239671513	-2.2002019307	-0.112644
C	 1.8772032413	-1.3253655052	-3.4969705677	-0.326857
C	 3.7640778863	-2.2132610068	-2.1746262437	-0.353163
H	 1.0015066059	 2.0348258043	 0.0703790134	 0.118219
H	-0.4599796861	 1.9499061438	-0.9256433671	 0.124505
H	-0.5909426747	 1.9517967142	 0.8470995645	 0.113416
H	 0.5324694256	-0.2797290702	 0.9508343466	 0.113595
H	-0.9385966227	-0.3427925771	-0.0228164642	 0.110155
H	 2.2336843395	-0.329298155	-3.7966936569	 0.125636
H	 2.2017665964	-2.055155239	-4.2434168586	 0.122005
H	 0.7885244399	-1.2915784215	-3.457926858	 0.158
H	 4.0262389666	-2.5623786654	-1.1752119263	 0.166866
H	 3.8623225669	-3.0541997126	-2.8682276485	 0.134509
H	 4.4862391732	-1.4380033971	-2.4713300544	 0.126164
39.7642	74.4204	107.0773	138.7115	155.0864	160.8805	192.765	213.9668	263.8389	354.0851	368.7597	411.057	437.2152	505.8053	604.3044	711.2367	729.641	814.0984	897.2378	977.9926	1068.074	1085.2363	1116.9779	1127.8279	1157.1502	1173.2253	1190.4913	1297.0053	1306.1057	1380.5886	1404.8498	1415.7968	1445.0984	1470.5899	1481.6385	1487.5549	1488.1697	1491.5406	1505.1233	1511.6468	1530.5632	1689.2676	2338.2986	2993.4136	2994.579	3006.383	3031.2418	3040.1396	3075.9736	3089.9782	3112.3004	3119.8912	3144.0147	3153.0647
CCN=C(C#N)N(C)C	CCN=C(C#N)N(C)C	
InChI=1S/C6H11N3/c1-4-8-6(5-7)9(2)3/h4H2,1-3H3	InChI=1S/C6H11N3/c1-4-8-6(5-7)9(2)3/h4H2,1-3H3
