21
gdb 110973	2.34124	1.23248	1.08337	1.5057	78.75	-0.2419	0.0645	0.3064	1261.4461	0.181407	-424.175028	-424.165619	-424.164674	-424.209007	36.081	
C	-0.0361828129	 1.5885774011	 0.0653118954	-0.376613
C	 0.0084284225	 0.0619073012	 0.2066810172	-0.232801
C	-1.3652816438	-0.5803320269	 0.0567339841	-0.031781
C	-2.0515328412	-0.801186419	-1.336883648	-0.12764
C	-1.0789783868	-1.9958844702	-1.5748377261	-0.274873
C	-1.5497561953	-2.1358087431	-0.1102297624	 0.346958
O	-1.1421111076	-3.1385822129	 0.7478463981	-0.47316
C	-2.9876567808	-1.8445162389	-0.6546286342	 0.106572
O	-4.0365229934	-1.478673951	 0.2011145871	-0.455156
H	 0.9532282487	 2.0299788077	 0.2199090021	 0.113885
H	-0.3822463853	 1.8851482592	-0.9306117119	 0.117124
H	-0.7173868923	 2.0363695648	 0.7978788366	 0.110713
H	 0.7241487936	-0.3466455643	-0.5131096502	 0.102785
H	 0.3988365069	-0.2009232789	 1.1984193566	 0.1034
H	-2.0246731676	-0.1338321597	 0.8143800107	 0.030096
H	-2.3379224532	-0.0403177263	-2.0596417207	 0.080209
H	-1.420925711	-2.7695037431	-2.2677652619	 0.095546
H	-0.0315691638	-1.754508852	-1.7424387014	 0.10588
H	-1.7904559758	-3.2005643263	 1.4587145032	 0.287534
H	-3.3911897638	-2.6145613934	-1.3172808135	 0.084411
H	-3.8162488171	-0.6523669178	 0.6421737192	 0.286911
72.4337	133.3399	175.9661	206.9327	226.7332	268.6603	284.0943	292.6102	388.0801	439.1581	498.3238	560.015	636.0408	661.0444	753.1992	762.5864	824.2213	843.1845	911.9642	938.1484	954.5839	970.2568	1023.4365	1061.6243	1082.5486	1097.4703	1112.0053	1136.657	1160.6998	1167.4455	1195.2252	1223.2387	1231.4527	1278.1101	1292.6963	1304.474	1348.532	1370.4295	1412.4261	1446.1861	1451.6352	1485.5709	1500.9787	1506.7412	1536.4505	2989.4575	3028.5849	3030.0636	3068.6119	3076.3281	3085.1276	3100.4551	3103.5151	3142.2069	3157.9033	3798.3956	3820.2711
CCC1C2CC1(O)C2O	CC[C@H]1[C@H]2C[C@]1(O)[C@H]2O	
InChI=1S/C7H12O2/c1-2-5-4-3-7(5,9)6(4)8/h4-6,8-9H,2-3H2,1H3	InChI=1S/C7H12O2/c1-2-5-4-3-7(5,9)6(4)8/h4-6,8-9H,2-3H2,1H3/t4-,5+,6+,7-/m1/s1
