15
gdb 49716	3.10359	1.45509	1.11099	4.7378	68.82	-0.2581	-0.0393	0.2188	1054.0394	0.113174	-453.925694	-453.918168	-453.917224	-453.958228	27.377	
N	-0.0892312148	 1.1281593097	-0.5526313046	-0.534426
C	-0.0111563503	-0.0541521995	-0.1407207036	 0.402648
C	-1.0237307646	-1.0947929648	 0.3425813044	 0.01142
O	-1.5183558261	-1.9323490819	-0.7221722931	-0.277866
C	-0.4771628328	-2.9157731596	-0.5132162976	-0.089524
C	 0.1847693562	-2.0515096973	 0.5767450255	-0.069927
N	 1.0528921518	-0.9829698877	 0.0638955289	-0.098856
C	 2.3924756898	-0.9037991303	-0.2044557192	 0.136203
O	 2.9290101898	 0.078538348	-0.6649646699	-0.298801
H	 0.8310266967	 1.4835002573	-0.8192237902	 0.25527
H	-1.7840476854	-0.806593282	 1.0679222652	 0.113912
H	-0.8951566921	-3.8575321618	-0.138447379	 0.119499
H	 0.1177312277	-3.1034774101	-1.4129801007	 0.121958
H	 0.4823624958	-2.49111221	 1.5268594907	 0.11595
H	 2.9329304785	-1.83415288	 0.0582620932	 0.092538
80.1148	138.7038	170.5939	236.0606	264.0207	371.5343	439.7403	516.6398	657.07	722.3718	795.5968	839.4765	893.3326	904.4441	930.6895	987.2694	998.773	1020.4532	1029.4048	1071.0092	1126.261	1169.2555	1181.4924	1220.1542	1255.7355	1290.4439	1300.813	1349.7726	1389.2548	1430.4924	1508.5073	1761.3314	1822.6264	2944.7614	3029.1965	3085.7553	3126.7928	3137.5056	3480.0749
N=C1C2OCC2N1C=O	[NH][C]1[C@H]2OC[C@H]2N1C=O	
InChI=1S/C5H6N2O2/c6-5-4-3(1-9-4)7(5)2-8/h2-4,6H,1H2	InChI=1S/C5H6N2O2/c6-5-4-3(1-9-4)7(5)2-8/h2-4,6H,1H2/t3-,4+/m1/s1
