16
gdb 105557	1.98085	1.54303	1.28814	4.3848	68.91	-0.2938	-0.0228	0.271	1081.4138	0.123642	-437.923767	-437.914996	-437.914052	-437.957517	31.083	
C	-0.0858690101	 1.612578037	-0.019720108	-0.401958
C	 0.0744048839	 0.0916074262	 0.0372138088	-0.246823
C	 0.7586102711	-0.4967590671	-1.2159288737	-0.067087
C	 0.6500912378	-2.0339967211	-1.4005623176	-0.118379
O	-0.2352148144	-1.8475639875	-2.5483410143	-0.23177
C	-0.1534942295	-0.4873563303	-2.4790258541	 0.46623
O	-0.6740427812	 0.3250734541	-3.1660956103	-0.307708
C	 2.0899798975	 0.0511655435	-1.4300905128	 0.268131
N	 3.1526833357	 0.477453634	-1.5879923257	-0.329857
H	 0.8870799202	 2.1100505359	-0.0676199387	 0.147779
H	-0.6648184332	 1.9133028176	-0.8968189509	 0.154105
H	-0.604311424	 1.9689399891	 0.8743293776	 0.126557
H	 0.6624944501	-0.2013819943	 0.9140973786	 0.126607
H	-0.9053146393	-0.3904196249	 0.1326527455	 0.121514
H	 1.5658340975	-2.5476931414	-1.6937050545	 0.152845
H	 0.137503078	-2.5621315808	-0.5950360898	 0.139815
101.3397	115.6899	128.5583	167.0461	182.771	264.618	297.2524	378.0078	426.6754	547.0314	577.3655	668.242	740.0662	783.5143	798.1371	908.2461	921.6298	976.4545	1013.1951	1053.5967	1110.0194	1131.2018	1156.4671	1181.4299	1230.3037	1311.0244	1350.293	1364.628	1420.4594	1486.2861	1497.9666	1508.8553	1513.3444	1946.1772	2356.5756	3036.4401	3050.326	3077.3801	3085.4095	3122.8809	3130.7901	3155.0581
CCC1(COC1=O)C#N	CC[C@]1(COC1=O)C#N	
InChI=1S/C6H7NO2/c1-2-6(3-7)4-9-5(6)8/h2,4H2,1H3	InChI=1S/C6H7NO2/c1-2-6(3-7)4-9-5(6)8/h2,4H2,1H3/t6-/m1/s1
