19
gdb 77086	2.5347	1.34499	1.24037	1.7738	71.4	-0.2391	-0.041	0.1981	1106.3283	0.156838	-460.163389	-460.154017	-460.153073	-460.197108	35.34	
C	 0.8207759465	 1.2753740143	 0.1236686977	-0.471664
C	 0.0856869972	-0.0503831161	-0.0294760254	 0.37679
O	-1.2853269493	 0.1526909702	-0.3210210959	-0.475226
C	 0.7093094867	-1.0398986526	-1.0482318676	-0.287236
C	 1.3100376817	-1.8836820105	 0.1382252922	-0.16919
C	 2.7834300417	-1.6662952829	 0.2953602558	 0.156621
O	 3.3012526984	-0.8519664704	 1.0310171699	-0.269027
C	 0.3745198283	-1.0929231141	 1.1084170972	 0.084993
O	 0.8458376845	-0.682407056	 2.356347303	-0.433641
H	 1.8934581192	 1.1358348959	 0.2765745179	 0.135333
H	 0.6701710238	 1.886835734	-0.7711460066	 0.121998
H	 0.436520839	 1.8210576516	 0.9931337423	 0.120855
H	-1.6380201207	 0.7779253702	 0.322023208	 0.279041
H	-0.062782284	-1.5928904324	-1.5840321753	 0.128417
H	 1.4189519861	-0.6215896965	-1.7657365483	 0.112367
H	 1.1312534014	-2.959967343	 0.05496651	 0.096074
H	 3.4217597832	-2.3079029302	-0.351299419	 0.09898
H	-0.5456502052	-1.6620923285	 1.27456792	 0.095214
H	 1.7736226716	-0.431968113	 2.2380347842	 0.299301
97.4654	104.8033	207.2036	225.4856	243.8957	258.6163	264.3959	316.9706	357.6291	412.4873	456.0443	545.7855	573.7894	612.6166	734.5794	792.2649	822.7758	861.738	893.9315	915.7299	975.6478	999.2923	1035.1737	1106.7503	1130.6472	1147.5727	1159.0849	1191.2535	1230.9987	1254.5409	1266.5099	1333.5847	1359.025	1376.6706	1411.2917	1426.5636	1457.4243	1478.8093	1494.2962	1501.8363	1786.455	2892.0682	3035.4967	3058.4291	3067.1381	3075.0911	3103.9362	3130.2404	3140.1028	3719.5289	3800.386
CC1(O)CC(C=O)C1O	C[C@@]1(O)C[C@@H](C=O)[C@H]1O	
InChI=1S/C6H10O3/c1-6(9)2-4(3-7)5(6)8/h3-5,8-9H,2H2,1H3	InChI=1S/C6H10O3/c1-6(9)2-4(3-7)5(6)8/h3-5,8-9H,2H2,1H3/t4-,5+,6+/m0/s1
