19
gdb 116023	2.81145	1.3691	0.97995	3.4442	79.26	-0.2271	-0.0512	0.1759	1218.3329	0.159458	-423.052296	-423.043648	-423.042704	-423.085754	32.183	
C	 0.0652196888	 1.3581421538	 0.1170331139	-0.246126
O	 0.0117729317	-0.0396372768	-0.1107049757	-0.239592
C	-1.2605640898	-0.6159539008	 0.0099379679	 0.016308
C	-1.2531170232	-1.9544813298	-0.7336935216	-0.236185
C	-2.6296900805	-2.6281133033	-0.6818251507	-0.27458
C	-3.2129715585	-2.6217143915	 0.7022498993	-0.039969
C	-2.7819087756	-1.8128646792	 1.6785889075	-0.136771
C	-1.698073466	-0.8265313101	 1.4723272249	 0.359873
O	-1.2096221396	-0.2057237377	 2.3943066595	-0.33328
H	 1.0881347197	 1.6717898728	-0.105484449	 0.123108
H	-0.6211377295	 1.894868813	-0.5575217772	 0.094973
H	-0.1768227302	 1.6100387793	 1.1531902243	 0.141183
H	-2.0271464165	 0.0397154373	-0.4493825958	 0.078643
H	-0.9339093335	-1.7868809334	-1.7659013862	 0.111169
H	-0.5043383805	-2.6035619349	-0.2647345546	 0.120602
H	-3.3301221667	-2.1169326498	-1.3607415708	 0.12432
H	-2.5679227376	-3.6578390928	-1.0525003933	 0.118181
H	-4.0262065006	-3.3169382896	 0.9003725363	 0.109287
H	-3.2014146221	-1.8447029765	 2.6795488612	 0.108855
78.4268	116.875	165.7347	196.0834	261.8923	291.2619	341.2339	385.8438	447.3348	491.2497	551.9135	639.1335	724.5814	737.2104	837.8047	885.0888	905.3735	998.8659	1023.2037	1033.9838	1052.8439	1097.2657	1127.5549	1157.3262	1177.1444	1193.7097	1220.7279	1236.3056	1257.1813	1321.5197	1346.9817	1362.8077	1392.9694	1405.1814	1468.4728	1475.8385	1480.8458	1498.3871	1518.9206	1683.0751	1780.9129	2907.0644	2979.4017	2994.3903	3043.1786	3057.8996	3083.7891	3097.5849	3126.126	3150.1644	3185.4714
COC1CCC=CC1=O	CO[C@H]1CCC=CC1=O	
InChI=1S/C7H10O2/c1-9-7-5-3-2-4-6(7)8/h2,4,7H,3,5H2,1H3	InChI=1S/C7H10O2/c1-9-7-5-3-2-4-6(7)8/h2,4,7H,3,5H2,1H3/t7-/m0/s1
