14
gdb 27823	2.06781	1.96086	1.01276	5.4167	68.17	-0.262	-0.0469	0.2152	1097.6891	0.101227	-470.099691	-470.091491	-470.090547	-470.132722	29.562	
C	 0.0178044382	 1.4668630478	-0.0087202581	-0.470549
C	-0.0656373844	-0.0245223219	 0.0141746763	 0.429325
N	-1.1962316369	-0.6420511351	-0.0954968238	-0.368086
C	-1.0944830911	-2.0196735229	-0.0549147565	 0.449345
N	-2.2667500955	-2.6623526631	-0.1685834907	-0.538643
N	 0.0026619529	-2.7327827918	 0.0796373222	-0.392723
C	 1.1815672477	-2.0858425805	 0.1939289087	 0.430703
O	 2.2806854121	-2.5270487133	 0.3228680417	-0.33391
O	 1.1093317974	-0.6182429877	 0.154622074	-0.240811
H	 0.6646455021	 1.7879086483	-0.8309442155	 0.161662
H	-0.9770774897	 1.8939355725	-0.1258748325	 0.152961
H	 0.4747055151	 1.825388607	 0.9187649272	 0.16166
H	-3.1134554797	-2.1322017108	-0.2719668733	 0.278238
H	-2.2813461681	-3.6673183086	-0.1486182196	 0.280827
101.5629	122.0542	168.7407	188.1115	251.5626	288.4276	368.4578	522.6384	551.697	582.1207	607.0243	617.6073	651.5143	744.2132	768.6583	811.2733	951.6934	1007.4892	1025.4867	1067.7103	1087.7988	1249.3918	1350.254	1410.3697	1458.8596	1469.2359	1472.6372	1563.9499	1644.5253	1685.5514	1913.8576	3054.1461	3115.0893	3171.6214	3623.4189	3764.8537
CC1=NC(N)=NC(=O)O1	Cc1nc(N)nc(=O)o1	
InChI=1S/C4H5N3O2/c1-2-6-3(5)7-4(8)9-2/h1H3,(H2,5,7,8)	InChI=1S/C4H5N3O2/c1-2-6-3(5)7-4(8)9-2/h1H3,(H2,5,7,8)
