23
gdb 73280	2.26168	1.6323	1.31088	1.2079	84.44	-0.2494	0.0769	0.3263	1114.9458	0.208334	-388.305662	-388.297411	-388.296467	-388.337787	34.194	
O	-0.0672215277	 1.3903347964	 0.182861011	-0.492335
C	 0.0285223845	-0.0072694147	-0.019857946	 0.418512
C	 0.2071125991	-0.5319867298	-1.4756588685	-0.28857
C	-0.8831447856	-1.5955811048	-1.1651872803	-0.251148
C	-1.3675878404	-0.6859886659	 0.0015533551	 0.017652
C	-1.9019121792	-1.2375421074	 1.3239089047	-0.237055
C	-0.8092959787	-1.8400334936	 2.2215559847	-0.188778
C	 0.3877519037	-0.8870065484	 2.3480020185	-0.190325
C	 1.0154495281	-0.6522925865	 0.9689060719	-0.251014
H	 0.8240850686	 1.7558256992	 0.2022741111	 0.26956
H	-0.153048173	 0.2135212652	-2.1894808659	 0.102376
H	 1.1992357729	-0.8772479727	-1.7801730866	 0.085177
H	-1.606918188	-1.8211123051	-1.9508497842	 0.096793
H	-0.450784717	-2.5367945246	-0.8134724531	 0.099784
H	-2.0792805491	 0.0374741799	-0.4095614621	 0.079369
H	-2.3788493979	-0.4137269979	 1.8708836547	 0.101284
H	-2.6915424412	-1.9744204798	 1.130839736	 0.089702
H	-1.228796369	-2.0652884683	 3.2082160526	 0.089301
H	-0.4613193402	-2.7973672356	 1.8093387219	 0.09073
H	 0.0575008748	 0.071545288	 2.7684514678	 0.10205
H	 1.1342806747	-1.2985255228	 3.036104911	 0.08563
H	 1.3600397748	-1.6150482113	 0.5713356118	 0.095384
H	 1.9101074955	-0.0179887095	 1.0381927839	 0.075922
143.1599	162.9742	248.7625	284.0681	304.5398	341.584	368.351	436.7418	462.5141	487.5982	591.7578	621.9347	699.898	774.1413	802.228	850.5756	869.0552	901.5121	926.073	929.1208	964.2159	984.0864	1032.7634	1042.006	1060.0457	1068.8418	1113.4613	1148.7617	1170.0167	1175.5412	1192.1087	1225.9029	1241.9824	1261.7823	1269.3507	1296.4055	1315.9266	1349.8362	1369.4313	1371.0589	1379.0933	1385.8078	1405.6398	1476.5866	1477.782	1483.2307	1491.8773	1499.7658	1507.4271	3005.73	3012.5015	3014.7072	3025.0967	3046.9022	3049.4479	3051.601	3055.5315	3061.2872	3065.3393	3072.882	3104.0233	3119.4062	3796.202
OC12CCC1CCCC2	O[C@]12CC[C@H]1CCCC2	
InChI=1S/C8H14O/c9-8-5-2-1-3-7(8)4-6-8/h7,9H,1-6H2	InChI=1S/C8H14O/c9-8-5-2-1-3-7(8)4-6-8/h7,9H,1-6H2/t7-,8-/m1/s1
