16
gdb 89606	4.36421	0.95233	0.9102	3.9972	68.72	-0.266	0.0198	0.2858	1273.3405	0.123399	-437.856782	-437.848529	-437.847584	-437.890282	30.538	
O	-0.0480880909	 1.4485533669	-0.0723555744	-0.428416
C	-0.0005416005	 0.0539719766	-0.068935902	 0.145452
C	 0.471842754	-0.6853452605	 1.2481724307	-0.344459
C	-0.91465556	-1.3330946215	 1.3097281608	 0.428563
C	-1.3251409733	-2.6485042503	 1.9138867847	-0.454326
C	-1.1478416502	-2.6730247594	 3.3683445834	 0.266545
N	-0.9939554766	-2.6878857892	 4.5128544164	-0.297823
O	-1.8664396151	-0.2580211855	 1.3487681045	-0.29234
C	-1.3521121066	-0.6742824278	 0.0676418976	-0.100623
H	-0.6581759664	 1.7009342727	 0.6330113979	 0.292359
H	 0.5734488982	-0.2569526446	-0.9446608606	 0.101532
H	 1.2839866776	-1.3928244738	 1.0638950232	 0.115784
H	 0.7240589358	-0.043102065	 2.0944683585	 0.125646
H	-2.3760961181	-2.8440594946	 1.677999908	 0.168849
H	-0.7299865735	-3.4601460621	 1.4793002122	 0.161692
H	-2.0795228245	-0.9615994819	-0.6837332011	 0.111567
59.5384	84.1235	151.2934	249.0525	323.6602	385.2654	400.3825	425.176	454.238	489.1899	643.7407	710.955	722.4574	820.2148	875.2474	888.4778	928.008	939.5281	978.706	987.579	1038.8254	1116.6134	1133.7001	1172.4256	1193.7798	1237.8384	1250.9393	1287.4876	1321.7863	1328.9136	1431.8654	1442.5756	1448.7267	1481.0507	2368.0678	3046.3432	3070.8153	3094.6018	3095.7655	3132.8559	3182.6122	3771.5308
OC1CC2(CC#N)OC12	O[C@H]1C[C@@]2(CC#N)O[C@@H]12	
InChI=1S/C6H7NO2/c7-2-1-6-3-4(8)5(6)9-6/h4-5,8H,1,3H2	InChI=1S/C6H7NO2/c7-2-1-6-3-4(8)5(6)9-6/h4-5,8H,1,3H2/t4-,5-,6+/m0/s1
