19
gdb 15200	3.43424	1.3148	1.07581	2.6085	67.92	-0.2431	0.0575	0.3006	1133.9031	0.165613	-402.149355	-402.140565	-402.139621	-402.18351	31.382	
O	-1.303897191	 1.7871673607	-0.2986118249	-0.411534
C	-0.7802539875	 0.5574332986	 0.1701855927	-0.071137
C	-1.7397421166	-0.5944118519	-0.0802645452	-0.071565
O	-1.9393001409	-0.678823853	-1.4852545963	-0.264223
C	-3.0227468805	-1.5056543729	-1.8806085492	-0.118869
C	-4.2657090656	-0.7169719232	-2.2478562739	 0.025752
C	-4.5319199959	 0.6415125452	-1.7164042514	-0.25158
N	-4.1559555196	 0.4493314731	-3.1336575	-0.319396
H	-1.4519455464	 1.6701164959	-1.2433777224	 0.291229
H	 0.1903763186	 0.3318759238	-0.297211519	 0.099832
H	-0.6172315102	 0.669100704	 1.2468005053	 0.114008
H	-1.3193001023	-1.5368605236	 0.3054217932	 0.093686
H	-2.6912740882	-0.4033325722	 0.4351885553	 0.10489
H	-2.6866892475	-2.0732776485	-2.7586430692	 0.114545
H	-3.2603683395	-2.2365789246	-1.0949373019	 0.10175
H	-5.1178509887	-1.3562505928	-2.4766281183	 0.091073
H	-5.5568584626	 0.9649347178	-1.5580366213	 0.117262
H	-3.802001214	 1.0944689397	-1.0533918973	 0.127255
H	-3.1680719215	 0.677773114	-3.2354732361	 0.227021
63.3758	72.7561	107.3075	166.0898	253.9737	268.2897	323.6894	382.2649	414.6431	520.1374	628.6695	765.8955	834.2797	842.8656	904.0261	926.9357	943.162	998.3263	1037.7663	1052.6105	1089.1661	1125.7652	1130.8289	1154.7091	1161.4478	1197.1176	1233.1446	1264.3421	1273.7875	1302.8732	1315.4933	1386.2491	1392.8197	1409.7313	1429.8924	1434.1522	1494.6521	1495.8198	1511.0693	1513.6669	2978.4302	2993.7332	3002.1231	3034.5657	3042.4704	3086.2973	3112.5798	3120.5952	3209.5026	3477.179	3814.2938
OCCOCC1CN1	OCCOC[C@H]1CN1	
InChI=1S/C5H11NO2/c7-1-2-8-4-5-3-6-5/h5-7H,1-4H2	InChI=1S/C5H11NO2/c7-1-2-8-4-5-3-6-5/h5-7H,1-4H2/t5-/m1/s1
