18
gdb 115121	3.07822	1.23883	0.9201	4.3709	74.67	-0.2541	-0.0681	0.186	1262.5911	0.147634	-439.119497	-439.110752	-439.109808	-439.153457	31.897	
C	-0.2269045201	 1.6233666035	 0.1329232221	-0.392589
C	-0.109841668	 0.0990109181	 0.0378823494	-0.194419
C	 0.8527132201	-0.5058054589	 1.0671111722	-0.112708
C	 0.8126892072	-2.0356872671	 1.1808413039	-0.123683
O	 2.1394209526	-2.4637787307	 1.565544246	-0.240096
C	 3.0625897044	-1.5151448959	 1.2546106759	 0.328674
N	 4.3158111597	-1.6313313132	 1.340667894	-0.502181
C	 2.3361582086	-0.2555225768	 0.8073960713	 0.312381
O	 2.8542869975	 0.7205367789	 0.3375684261	-0.280826
H	 0.7446598857	 2.0968459417	-0.0210122811	 0.156638
H	-0.9224708317	 2.004226581	-0.620525967	 0.115832
H	-0.6022627521	 1.9272461234	 1.1165822545	 0.113228
H	-1.0978482577	-0.3579922861	 0.177945163	 0.102827
H	 0.2224636637	-0.1882488026	-0.9673398806	 0.110647
H	 0.6467771592	-0.0762024453	 2.0591558224	 0.120569
H	 0.1192298129	-2.4048772527	 1.9383065694	 0.130389
H	 0.5621762017	-2.4994281565	 0.2186972386	 0.122859
H	 4.5732373863	-2.5656063509	 1.66766564	 0.232457
55.0715	109.1435	156.8599	181.4093	243.6208	279.7515	335.8719	368.6106	428.0203	562.865	576.6799	651.1205	717.1638	758.9065	826.9016	904.1108	908.7324	974.5862	980.1212	1019.1202	1029.1883	1068.5148	1121.0783	1144.8192	1173.9982	1225.5676	1262.8186	1279.6185	1309.6357	1342.5639	1374.4626	1405.6387	1414.3711	1487.9363	1497.3167	1514.7411	1522.8735	1759.2497	1856.0834	3001.7846	3020.5035	3034.5494	3038.8846	3058.4638	3103.9867	3114.4913	3140.5615	3461.6371
CCC1COC(=N)C1=O	CC[C@H]1CO[C]([NH])C1=O	
InChI=1S/C6H9NO2/c1-2-4-3-9-6(7)5(4)8/h4,7H,2-3H2,1H3	InChI=1S/C6H9NO2/c1-2-4-3-9-6(7)5(4)8/h4,7H,2-3H2,1H3/t4-/m0/s1
