15
gdb 13225	8.91265	0.79874	0.76996	5.6214	81.5	-0.2777	-0.0385	0.2392	1422.549	0.119768	-325.508438	-325.500815	-325.499871	-325.541061	27.265	
N	-0.4026638557	-3.7926380894	-0.5315927047	-0.340997
C	-0.2792997905	-2.6481363584	-0.371131177	 0.199934
C	-0.134300116	-1.3049488014	-0.1823392379	 0.057189
C	-0.007045368	-0.1130796212	-0.0164912913	 0.086827
C	 0.165499202	 1.3010383574	 0.2044557785	-0.175931
C	-0.0185356775	 1.8715346979	 1.6522330195	-0.217561
C	 1.1793605749	 2.819877046	 1.384752887	-0.21681
C	 1.614783772	 1.8966627915	 0.2168767447	-0.217569
H	-0.4611302712	 1.8600886044	-0.4988098214	 0.120091
H	-0.9901521643	 2.3106862928	 1.8843547323	 0.116179
H	 0.2182928866	 1.1124074857	 2.4010141365	 0.123876
H	 0.8492444868	 3.7986041825	 1.026242065	 0.112891
H	 1.8915922976	 2.9681995046	 2.197795715	 0.111825
H	 2.3400674867	 1.145064692	 0.5364187053	 0.123876
H	 1.9620159067	 2.3561075455	-0.7100062915	 0.11618
76.8017	85.65	160.2435	227.8267	264.6459	443.6293	497.4778	553.9871	583.3343	589.2251	716.9223	787.0475	847.4755	908.0101	937.1045	940.43	995.6901	1015.9625	1115.0442	1197.3014	1205.9346	1234.1178	1235.9575	1256.71	1277.4094	1278.1873	1354.1017	1478.3766	1487.6342	1507.736	2259.436	2393.0434	3050.197	3068.2536	3073.26	3076.9551	3118.4553	3131.7178	3140.6255
N#CC#CC1CCC1	N#CC#CC1CCC1	
InChI=1S/C7H7N/c8-6-2-5-7-3-1-4-7/h7H,1,3-4H2	InChI=1S/C7H7N/c8-6-2-5-7-3-1-4-7/h7H,1,3-4H2
