20
gdb 98908	3.91213	0.97658	0.80778	5.0292	76.72	-0.2441	0.0249	0.2689	1417.5544	0.172319	-440.329379	-440.320403	-440.319459	-440.363815	32.792	
O	 0.0954722402	 1.3456368482	-0.1846534348	-0.425476
C	 0.0825051935	-0.0406585152	-0.0259624599	-0.147175
C	-1.3677719061	-0.5361766272	 0.0138043455	 0.373657
O	-2.2787294273	 0.2843155568	-0.0492645053	-0.406443
N	-1.5840898258	-1.8640098741	 0.1186360993	-0.083949
C	-0.5541665062	-2.9058764773	 0.176435238	-0.162511
C	-1.3461360293	-4.1636604825	 0.564447408	-0.221853
C	-2.7275528567	-3.917761267	-0.0663923063	-0.224749
C	-2.9468698118	-2.4128694908	 0.1377294697	-0.150781
H	-0.8477126999	 1.5894203775	-0.1894558148	 0.293275
H	 0.6184330263	-0.5399949684	-0.8492795721	 0.105913
H	 0.5899241813	-0.3411957892	 0.9063076373	 0.106121
H	-0.0672475815	-3.0316758211	-0.8007027836	 0.11581
H	 0.223600476	-2.6585465639	 0.9053897333	 0.121891
H	-0.8647220032	-5.0799669636	 0.2163418955	 0.112106
H	-1.4348682499	-4.2243446345	 1.6544183272	 0.115918
H	-2.6994826887	-4.1521049587	-1.1360873305	 0.113488
H	-3.5189811328	-4.5191239805	 0.3855905812	 0.112503
H	-3.427720534	-2.196433065	 1.0999363126	 0.11889
H	-3.5523070642	-1.9429010135	-0.6405602801	 0.133364
51.0788	110.6377	124.4174	167.4238	203.7983	248.9656	345.3551	372.8072	483.3617	522.3177	574.0819	590.8693	716.0682	800.2073	864.5965	878.7834	920.6149	925.5514	963.6753	997.1358	1032.2407	1048.2481	1137.7908	1148.1571	1185.519	1194.2472	1215.877	1248.449	1254.3509	1276.2147	1306.3669	1324.0184	1346.8619	1368.4447	1378.494	1425.5893	1486.9336	1490.956	1497.7198	1512.2925	1518.5199	1530.1627	1740.0964	2963.7408	2985.3395	3003.3885	3028.5487	3048.6529	3054.267	3072.8558	3100.4352	3110.6861	3118.4319	3623.772
OCC(=O)N1CCCC1	OCC(=O)N1CCCC1	
InChI=1S/C6H11NO2/c8-5-6(9)7-3-1-2-4-7/h8H,1-5H2	InChI=1S/C6H11NO2/c8-5-6(9)7-3-1-2-4-7/h8H,1-5H2
