22
gdb 121633	4.16612	0.70645	0.61571	4.1577	82.85	-0.2343	0.0352	0.2695	1877.9672	0.190903	-441.499791	-441.488258	-441.487314	-441.537986	38.805	
C	-0.0178768211	 1.5123128149	-0.0340244509	-0.384522
C	 0.0166445897	-0.0061832368	-0.0240257768	-0.02685
O	 0.676100786	-0.4436808574	-1.1950882965	-0.214694
C	 0.761048339	-1.8331176516	-1.2844036224	-0.19484
C	 1.4915349646	-2.1946184937	-2.5880090782	 0.395051
O	 1.8832695139	-1.3321799249	-3.3478502604	-0.354423
N	 1.6658845175	-3.536239772	-2.8347648898	-0.090277
C	 2.3747654571	-3.9409930925	-4.0365658792	-0.341858
C	 1.2574868358	-4.6158195775	-1.95969408	-0.337339
H	 0.9975375101	 1.9170550485	-0.0585701088	 0.131812
H	-0.5516563373	 1.8761032371	-0.9161741076	 0.131911
H	-0.5231076831	 1.8879974375	 0.8607984705	 0.111728
H	 0.5437111726	-0.3771901623	 0.8723044084	 0.08286
H	-1.0069636431	-0.4180637048	 0.0142124985	 0.082848
H	 1.3064133462	-2.2544427342	-0.4210149784	 0.101806
H	-0.2434803878	-2.2931839174	-1.2788081396	 0.102629
H	 3.2946640102	-4.483543528	-3.7817952968	 0.118116
H	 1.7479253292	-4.6009012246	-4.6495121511	 0.11833
H	 2.6263230494	-3.0456721336	-4.6022819757	 0.171433
H	 0.6675994599	-4.253802596	-1.1200982568	 0.142116
H	 0.6454938918	-5.3419701648	-2.5106089178	 0.12802
H	 2.1286048592	-5.152773466	-1.5583083505	 0.126142
43.347	65.3701	73.6085	105.019	112.5597	145.8471	175.9361	228.4017	244.1186	261.1124	321.5563	385.3046	424.569	518.2626	585.615	619.7807	808.0806	823.7196	919.0747	973.9695	1028.3689	1055.3447	1083.2587	1130.5858	1135.5386	1158.5789	1178.8091	1188.9238	1201.072	1277.0008	1286.0131	1296.7366	1368.2201	1402.356	1424.0337	1431.4649	1446.1868	1476.3491	1481.8828	1482.7442	1497.2013	1501.4364	1502.576	1506.3604	1534.089	1545.8413	1781.0315	2933.1205	2950.1439	2958.6697	2970.2725	3001.5759	3012.0116	3044.1314	3046.9471	3056.7458	3120.97	3126.0705	3167.9669	3170.7194
CCOCC(=O)N(C)C	CCOCC(=O)N(C)C	
InChI=1S/C6H13NO2/c1-4-9-5-6(8)7(2)3/h4-5H2,1-3H3	InChI=1S/C6H13NO2/c1-4-9-5-6(8)7(2)3/h4-5H2,1-3H3
