15
gdb 31946	4.43236	0.95149	0.78733	5.7476	73.72	-0.2359	-0.0471	0.1888	1358.4815	0.113074	-453.992282	-453.98377	-453.982826	-454.027024	29.489	
O	-0.1821038401	 1.4420921857	 0.0791643647	-0.431273
C	-0.0165681604	 0.0347975881	 0.0022396628	-0.189205
C	-1.3819250133	-0.5754099843	 0.0211736867	 0.364174
N	-1.6571430845	-1.8722003609	 0.0367764823	-0.313716
C	-3.0163839442	-1.9471958884	 0.0408006504	-0.13605
C	-3.5856814888	-0.6843926303	 0.0291582485	 0.200659
N	-2.499867451	 0.1790900245	 0.0150050667	-0.328517
C	-4.9631804932	-0.2350628478	 0.0316421132	 0.064966
O	-5.9296599733	-0.9674090729	 0.0427285142	-0.274791
H	 0.6799507774	 1.8587041219	 0.0005756726	 0.303477
H	 0.5018966701	-0.2674340501	-0.9200467533	 0.129645
H	 0.5658626292	-0.3608764587	 0.8470921922	 0.131751
H	-3.5396342556	-2.8909215351	 0.0529658921	 0.140324
H	-2.502910867	 1.1870174708	 0.0114056122	 0.283685
H	-5.0825380852	 0.8744277677	 0.0220235048	 0.05487
21.9357	113.5273	139.0283	192.066	237.5834	240.9581	287.8554	478.0486	483.4737	603.6668	663.8073	693.8412	718.9133	772.5918	900.8846	1008.464	1023.329	1039.6824	1042.0738	1089.3905	1158.9988	1193.5599	1227.2267	1238.6383	1317.8481	1352.8918	1417.6947	1452.0061	1475.1218	1508.0721	1545.1367	1593.2088	1782.8039	2844.1032	2989.8054	3017.4658	3261.3932	3653.9559	3852.7758	21.9398	113.5261	139.0279	192.0668	237.5827	240.9579	287.8555	478.0485	483.4739	603.6678	663.8074	693.8413	718.9133	772.5916	900.8838	1008.464	1023.3292	1039.6823	1042.0737	1089.3905	1158.9993	1193.5596	1227.2263	1238.6383	1317.8487	1352.8921	1417.695	1452.0068	1475.1222	1508.0717	1545.1367	1593.2093	1782.8028	2844.1032	2989.8054	3017.4658	3261.3932	3653.9557	3852.776
OCC1=NC=C(N1)C=O	OCc1ncc([nH]1)C=O	
InChI=1S/C5H6N2O2/c8-2-4-1-6-5(3-9)7-4/h1-2,9H,3H2,(H,6,7)	InChI=1S/C5H6N2O2/c8-2-4-1-6-5(3-9)7-4/h1-2,9H,3H2,(H,6,7)
