21
gdb 102212	2.81881	0.76072	0.62295	0.8573	94.51	-0.2452	0.045	0.2902	1834.5364	0.178784	-349.908447	-349.897048	-349.896104	-349.946773	39.641	
C	 0.9314263111	-0.2873496077	-1.3384355378	-0.388694
C	 0.0309171832	-0.1156571768	-0.1143999473	-0.168195
C	 0.660179103	-0.6433168172	 1.1941465484	-0.157035
C	-0.2172671508	-0.3052475633	 2.4371390102	-0.366544
C	-0.3537026589	 1.1271644518	 2.6740700397	 0.041846
C	-0.4456171498	 2.3132166173	 2.8633419817	 0.090364
C	-0.5667593187	 3.7440536092	 3.1059986948	-0.49809
C	 0.8971681531	-2.0844470594	 1.1377591382	 0.330971
C	 1.0620716727	-3.2752701776	 1.1028820019	-0.467548
H	 1.1751245469	-1.340853609	-1.5050555832	 0.129925
H	 0.4413465054	 0.0939060142	-2.2394297879	 0.112189
H	 1.8736110797	 0.2587566613	-1.2161255976	 0.113173
H	-0.2033762435	 0.9434029411	 0.0359460088	 0.111652
H	-0.9225547468	-0.6336835509	-0.2750440837	 0.101039
H	 1.6266981427	-0.1397114077	 1.3328270046	 0.110716
H	-1.2046468121	-0.7645081767	 2.3015016482	 0.132875
H	 0.2245199509	-0.7873199724	 3.3166791037	 0.135177
H	-0.4946192203	 3.9736657487	 4.1749272075	 0.14816
H	 0.2250589841	 4.3029717894	 2.5949722033	 0.147184
H	-1.5275837158	 4.1306853877	 2.7485051334	 0.14715
H	 1.223414944	-4.3242216021	 1.0685668931	 0.193685
21.6607	55.72	69.2013	110.1978	152.0897	197.3366	209.7586	243.4357	266.0865	290.9247	387.2972	392.4408	474.173	521.5309	559.8617	626.4008	642.8108	761.8006	780.0223	820.3659	927.0237	969.7346	1009.0121	1052.9878	1053.8253	1067.7908	1113.2078	1128.5406	1168.0303	1226.5275	1275.2963	1305.0181	1330.8664	1367.4084	1374.8126	1412.809	1415.5076	1472.3425	1478.6695	1479.6052	1488.6244	1497.5821	1508.0095	2231.0924	2370.5576	3011.658	3026.3096	3027.3499	3033.289	3035.9895	3063.6379	3077.8796	3086.5948	3086.675	3101.3202	3114.0696	3504.539
CCC(CC#CC)C#C	CC[C@@H](CC#CC)C#C	
InChI=1S/C9H12/c1-4-7-8-9(5-2)6-3/h2,9H,6,8H2,1,3H3	InChI=1S/C9H12/c1-4-7-8-9(5-2)6-3/h2,9H,6,8H2,1,3H3/t9-/m0/s1
