19
gdb 57769	3.52798	0.63208	0.62779	2.7302	82.77	-0.2533	-0.0413	0.212	1886.6418	0.155433	-423.00897	-422.998246	-422.997302	-423.04833	37.106	
C	-0.035842461	 1.393900502	 1.2518102883	-0.374493
C	-0.1796438801	 0.3348398091	 0.1401267188	-0.126791
C	 1.054893844	-0.5863082219	 0.0751030869	-0.375037
C	-1.4084386777	-0.4396383839	 0.3161435378	 0.080742
C	-2.4079325688	-1.0889096987	 0.4956370894	 0.046669
C	-3.6465761086	-1.8530061653	 0.6827668682	-0.110571
O	-4.1318385895	-1.8344818133	 1.9982152883	-0.410131
C	-4.6937222102	-1.2770466267	-0.2768825064	 0.14513
O	-5.7397367117	-0.840875114	 0.1301640427	-0.25218
H	 0.8635970785	 1.994662579	 1.0846512925	 0.114674
H	-0.9004574319	 2.062018257	 1.2741016023	 0.126924
H	 0.0474325622	 0.9140657849	 2.2315212082	 0.13049
H	-0.2557653967	 0.8645182179	-0.8199366436	 0.107657
H	 1.1783908679	-1.1306893507	 1.0161735727	 0.128754
H	 0.9589145599	-1.318888161	-0.7305345171	 0.123092
H	 1.958485879	 0.0056871308	-0.1011609391	 0.114961
H	-3.4700341265	-2.8971362905	 0.3691756002	 0.121263
H	-4.9696769006	-1.3456123425	 1.9541576677	 0.296132
H	-4.4192383882	-1.2714863322	-1.3488602077	 0.112715
2.8282	59.6927	82.2988	125.3639	198.0429	226.6168	236.1032	267.442	310.7304	338.3314	399.4934	453.6878	469.1038	534.8067	579.7948	693.8958	762.4071	833.5271	897.4032	932.0276	965.1024	1015.701	1058.1026	1119.9178	1125.9152	1156.4265	1206.6712	1240.5548	1321.2535	1325.2634	1348.5635	1388.6871	1396.3995	1418.5672	1432.0846	1485.4135	1489.101	1498.5768	1510.0217	1820.6425	2352.5175	2949.2497	2963.7035	3005.0672	3037.9033	3041.331	3110.2691	3115.0889	3119.6434	3122.9425	3683.1196	2.8273	59.6933	82.299	125.3641	198.0429	226.6166	236.1029	267.4418	310.7304	338.3313	399.4934	453.6876	469.1037	534.8063	579.7946	693.8956	762.407	833.5271	897.4032	932.0277	965.1025	1015.7006	1058.1025	1119.9177	1125.9152	1156.4265	1206.6712	1240.5545	1321.2535	1325.2632	1348.5635	1388.6865	1396.3996	1418.5673	1432.0845	1485.4136	1489.1012	1498.577	1510.0219	1820.6425	2352.517	2949.2497	2963.7035	3005.0673	3037.9034	3041.3309	3110.269	3115.0889	3119.6434	3122.9425	3683.1196
CC(C)C#CC(O)C=O	CC(C)C#C[C@@H](O)C=O	
InChI=1S/C7H10O2/c1-6(2)3-4-7(9)5-8/h5-7,9H,1-2H3	InChI=1S/C7H10O2/c1-6(2)3-4-7(9)5-8/h5-7,9H,1-2H3/t7-/m1/s1
