18
gdb 44861	3.27331	1.6464	1.49786	3.7037	73.87	-0.2313	0.0274	0.2587	933.0708	0.152232	-401.976199	-401.96982	-401.968876	-402.006633	27.379	
O	 0.0122464397	 0.0097812551	 0.1491274362	-0.384819
C	 0.0108446826	 1.209266659	 0.0062212556	 0.418172
N	-1.1034896173	 2.0374509811	-0.0715273378	-0.297119
C	-0.6447064291	 3.4390833439	 0.0158969659	-0.033822
C	 0.5978785853	 3.3197093009	-0.8911179984	-0.241135
C	 1.211541828	 2.1845010505	-0.0486909853	-0.153646
C	 1.2029220379	 2.7729020034	 1.3817814716	-0.015731
C	 1.3081181638	 4.2646037953	 1.5959258696	-0.330862
C	-0.049968827	 3.6301247529	 1.4248796953	-0.022932
H	-1.9634264361	 1.7286722238	 0.3581617168	 0.244554
H	-1.4180308942	 4.1415727215	-0.2955441911	 0.07867
H	 0.3247384157	 2.9997373113	-1.8977203988	 0.116014
H	 1.2035900132	 4.2221565974	-0.956035977	 0.108362
H	 2.1395934991	 1.7248340925	-0.382294752	 0.085085
H	 1.4597018694	 2.1064327392	 2.1965395736	 0.104967
H	 1.5594736307	 4.569297345	 2.6069219356	 0.117379
H	 1.724915023	 4.9180565154	 0.8389367091	 0.117487
H	-0.7311706646	 3.595686372	 2.2680922112	 0.089377
156.83	285.2904	381.1114	443.7947	490.4911	513.487	531.8803	596.1816	707.6445	734.5625	759.3549	823.5163	830.7423	875.8606	882.978	921.4731	940.7309	964.3547	990.1979	1002.8479	1033.6472	1044.8739	1075.942	1086.3276	1118.0711	1131.8887	1189.8143	1197.8963	1214.414	1243.6772	1274.4673	1286.0753	1330.4907	1335.4211	1354.1662	1401.501	1482.5345	1524.988	1843.9348	3094.685	3113.6218	3136.1183	3142.0736	3149.1521	3168.6181	3184.0505	3216.2873	3614.2146
O=C1NC2CC1C1CC21	O=C1N[C@@H]2C[C@H]1[C@H]1C[C@@H]21	
InChI=1S/C7H9NO/c9-7-5-2-6(8-7)4-1-3(4)5/h3-6H,1-2H2,(H,8,9)	InChI=1S/C7H9NO/c9-7-5-2-6(8-7)4-1-3(4)5/h3-6H,1-2H2,(H,8,9)/t3-,4+,5-,6+/m0/s1
