17
gdb 37737	3.50417	1.99697	1.55271	1.5062	70.6	-0.2456	0.098	0.3436	856.9908	0.138549	-421.736976	-421.73105	-421.730105	-421.766877	25.569	
C	-0.1129231408	 1.5478098246	 0.0097273292	-0.330794
C	 1.4245423424	 1.239903381	-0.0065350156	-0.105538
C	 1.261401074	 0.0212761187	 0.9500489783	-0.106435
C	 1.8752810297	-1.0110134266	-0.0075366342	 0.09281
O	 1.1593260253	-2.2549499897	 0.0538766341	-0.286368
C	-0.1512113164	-2.1655829597	-0.4531725189	 0.011347
O	-0.884724344	-1.0274307563	 0.0209276439	-0.319347
C	 0.0105927908	 0.0251274072	 0.0086789482	 0.449822
C	 1.2480945622	 0.0227295375	-0.9668456686	-0.152399
H	-0.5077951543	 2.01253344	 0.9179370887	 0.105412
H	-0.5300135749	 2.0179543471	-0.8861713859	 0.102175
H	 2.244772928	 1.9532480021	-0.0198674369	 0.086077
H	 1.2360860189	 0.0282226783	 2.0390953811	 0.079341
H	 2.9417062384	-1.2452266066	-0.0119297327	 0.077413
H	-0.1242881447	-2.1125776593	-1.5528361089	 0.093226
H	-0.6891464419	-3.0565911864	-0.1263220728	 0.123157
H	 1.2216312572	 0.0598983181	-2.055952229	 0.080101
266.4842	288.1299	401.4084	442.5488	466.0296	536.5202	596.473	708.2981	745.0239	819.2521	844.8516	876.936	892.2089	906.249	919.2955	944.0452	972.2031	989.756	1033.8954	1051.4271	1080.4667	1106.2051	1113.9491	1134.9713	1139.6462	1172.0401	1183.3096	1214.9115	1237.914	1243.6466	1289.1534	1300.8157	1320.0886	1366.4015	1445.6541	1510.7918	1518.6733	2976.7647	3046.3281	3091.2624	3108.7488	3113.8677	3122.9254	3126.4122	3150.0092
C1C2C3C4OCOC13C24	C1[C@H]2[C@@H]3[C@H]4OCO[C@@]13[C@@H]24	
InChI=1S/C7H8O2/c1-3-4-6-5(3)7(1,4)9-2-8-6/h3-6H,1-2H2	InChI=1S/C7H8O2/c1-3-4-6-5(3)7(1,4)9-2-8-6/h3-6H,1-2H2/t3-,4+,5-,6+,7-
