18
gdb 30268	4.56416	1.22103	0.99328	2.6113	79.04	-0.1941	0.0489	0.243	1163.627	0.150699	-401.990359	-401.982876	-401.981932	-402.022286	29.557	
O	 0.0032067347	 1.3949269826	-0.0521046206	-0.42495
C	 0.0170035557	-0.0145453325	 0.0364875422	 0.118727
C	 0.589987302	-0.5559645871	 1.3793416803	-0.216861
N	-0.1843385201	-1.765490226	 1.5661539277	 0.010639
C	-0.1040963616	-2.8730175416	 2.3674247175	-0.140124
C	-1.2214393316	-3.6401026691	 2.1073569297	-0.14114
C	-2.0031516974	-2.9660324627	 1.1219158945	-0.330177
C	-1.333052433	-1.8048750494	 0.8131396746	 0.352444
C	-1.4294172119	-0.5636368514	-0.0187151845	-0.365603
H	 0.9003057348	 1.7013046924	-0.2159536721	 0.287391
H	 0.5949649959	-0.4521828108	-0.789796282	 0.084189
H	 1.6637767424	-0.7645980875	 1.3375148882	 0.110528
H	 0.40428481	 0.1765107586	 2.1758079624	 0.120183
H	 0.7278571276	-3.0297774019	 3.0349114388	 0.110235
H	-1.4488042841	-4.5913712107	 2.5646919491	 0.090034
H	-2.9361622517	-3.3031502137	 0.697274478	 0.090677
H	-2.1012440779	 0.184958652	 0.4219691545	 0.125406
H	-1.762329564	-0.7378068413	-1.0449824484	 0.118402
85.7033	188.3799	236.5992	273.3655	301.6419	458.6954	472.4623	515.4562	614.497	644.6885	697.0317	729.2114	765.66	782.3379	826.9266	858.9955	921.5428	926.4763	1018.4406	1043.4181	1056.0988	1087.2311	1112.0054	1151.4675	1173.2879	1203.5264	1233.8477	1268.1102	1293.2138	1295.2909	1330.9954	1355.9272	1425.4384	1435.3034	1451.8051	1492.8171	1500.2954	1530.0036	1598.3291	2998.0217	3018.4634	3023.6095	3076.2822	3091.9859	3237.9972	3252.7184	3268.377	3825.092
OC1CN2C=CC=C2C1	O[C@H]1Cn2cccc2C1	
InChI=1S/C7H9NO/c9-7-4-6-2-1-3-8(6)5-7/h1-3,7,9H,4-5H2	InChI=1S/C7H9NO/c9-7-4-6-2-1-3-8(6)5-7/h1-3,7,9H,4-5H2/t7-/m1/s1
