19
gdb 105752	2.2311	1.46147	1.15982	0.9818	76.9	-0.2597	0.0315	0.2912	1158.2039	0.157731	-422.991793	-422.982554	-422.98161	-423.026186	34.085	
C	 0.0131251258	 1.5162037332	 0.1561182098	-0.391147
C	-0.0892907973	-0.0047804705	 0.0434159045	-0.212934
C	-1.5343061768	-0.52125553	-0.0890615758	 0.170034
C	-1.6130931786	-2.0778974358	 0.0422294293	-0.166472
O	-1.9696372291	-2.2809417319	 1.3973368908	-0.231873
C	-2.8356439918	-1.2127410755	 1.6793584493	 0.014087
O	-2.2822172195	-0.0712819704	 1.0601128659	-0.278663
C	-2.1676506433	-0.0573517916	-1.326003979	 0.348273
C	-2.6732724979	 0.3019925178	-2.3556190023	-0.484423
H	 1.055605131	 1.8227863394	 0.2819294745	 0.110782
H	-0.3788755944	 2.0038814205	-0.741379733	 0.127208
H	-0.557789948	 1.8762607959	 1.0155275241	 0.135443
H	 0.480134131	-0.3631122266	-0.8223757752	 0.102464
H	 0.3334962729	-0.4821356181	 0.9349926642	 0.10891
H	-2.3754440993	-2.4839301621	-0.6360338177	 0.108347
H	-0.6556059022	-2.5664397627	-0.1464574301	 0.126091
H	-3.8474162774	-1.4132901786	 1.2827377836	 0.090107
H	-2.8743625086	-1.0557039568	 2.7606347705	 0.123153
H	-3.1256863067	 0.6279766738	-3.2597495936	 0.200613
43.7648	115.2675	161.1123	168.812	211.8825	252.0131	296.	372.9247	408.8376	506.5626	540.2039	622.0781	631.4666	662.5583	734.9887	771.3336	792.374	914.5077	960.6621	978.3894	1014.5445	1032.4742	1048.5882	1108.6495	1131.728	1156.6754	1177.6742	1211.6837	1226.5215	1277.3064	1312.595	1359.7735	1365.5799	1410.2647	1426.4316	1475.7901	1496.3216	1508.6753	1511.0796	1540.1425	2232.3075	2940.8804	3016.2345	3031.7792	3046.4284	3074.521	3094.6083	3114.1136	3118.0405	3128.919	3499.8586
CCC1(COCO1)C#C	CC[C@]1(COCO1)C#C	
InChI=1S/C7H10O2/c1-3-7(4-2)5-8-6-9-7/h1H,4-6H2,2H3	InChI=1S/C7H10O2/c1-3-7(4-2)5-8-6-9-7/h1H,4-6H2,2H3/t7-/m0/s1
