17
gdb 44003	3.54995	1.45775	1.37059	3.8662	71.	-0.244	0.0066	0.2505	982.82	0.137233	-421.828539	-421.821612	-421.820668	-421.859752	28.111	
O	 0.0650497957	 0.061812612	-0.3869467405	-0.310204
C	-0.0204816194	 1.1876964995	-0.0092014097	 0.401609
C	-1.3109245633	 2.0283302426	 0.2187722543	-0.449284
C	-0.8137955999	 3.32823825	 0.7834840089	 0.207678
C	-0.0196953106	 3.3162084985	 2.0744411796	-0.378748
C	 0.7028745293	 3.2010539333	 0.7732497096	 0.359031
C	 0.8688285745	 4.5071636198	-0.0044331135	-0.288469
C	-0.6908522925	 4.6915288822	 0.0670240889	-0.284983
O	 1.0988096301	 1.9369276981	 0.3254724692	-0.25345
H	-1.8110346879	 2.1493623615	-0.7473761431	 0.142732
H	-1.9844624202	 1.4493467005	 0.8569893592	 0.145715
H	 0.0547643929	 4.2272101535	 2.6616710624	 0.121053
H	-0.0661095817	 2.4042249532	 2.6598015342	 0.131832
H	 1.502364191	 5.2724461821	 0.4526913703	 0.108268
H	 1.2117127346	 4.3271533494	-1.0248659074	 0.124027
H	-1.1593392139	 4.7018290474	-0.9192346731	 0.113379
H	-1.0571196989	 5.5519589766	 0.6341725506	 0.109815
104.8575	199.1724	308.7679	348.9379	422.0533	456.5543	556.5249	590.5095	617.1374	651.01	735.892	758.072	792.5319	833.4163	845.179	918.7857	934.804	945.8453	964.569	1007.7145	1069.1096	1092.3196	1108.5991	1124.0592	1197.4471	1222.5604	1239.6888	1246.2282	1263.9786	1305.3044	1343.4397	1373.3725	1458.8322	1474.1917	1475.1619	1498.1733	1896.064	3055.7194	3061.1257	3063.248	3101.1436	3109.3216	3121.1209	3129.4842	3216.2188
O=C1CC23CC2(CC3)O1	O=C1C[C@@]23C[C@@]2(CC3)O1	
InChI=1S/C7H8O2/c8-5-3-6-1-2-7(6,4-6)9-5/h1-4H2	InChI=1S/C7H8O2/c8-5-3-6-1-2-7(6,4-6)9-5/h1-4H2/t6-,7+/m0/s1
