19
gdb 73407	2.64335	1.9603	1.50721	2.3325	73.27	-0.2315	0.0499	0.2815	932.8588	0.161851	-423.014612	-423.00754	-423.006596	-423.045593	29.326	
O	 0.1496064657	 1.3906189873	 0.1597240263	-0.487862
C	 0.0263526973	 0.0140808452	 0.0367233667	 0.367729
C	 0.8480483244	-0.7732731359	 1.0535121361	-0.120497
O	 0.5104586491	-2.1170895171	 0.6687170343	-0.28332
C	-0.381291925	-1.8915753726	-0.4223354935	 0.114815
C	-1.346492877	-0.7563358014	 0.0208209041	-0.096096
C	-2.0497853128	-0.2891667611	-1.2537316154	-0.256809
C	-0.8403783921	-0.30878827	-2.2462852509	-0.25682
C	 0.2633852037	-0.7824295654	-1.3003827387	-0.096106
H	-0.3940788944	 1.8153718266	-0.511717314	 0.287566
H	 1.9263238459	-0.6008669328	 0.9564412208	 0.104598
H	 0.5460553493	-0.5784836612	 2.0892159579	 0.104601
H	-0.7330729927	-2.8374060678	-0.8323087247	 0.082483
H	-1.9324432213	-0.8632746326	 0.9348816322	 0.067979
H	-2.85526188	-0.9633332837	-1.5584190234	 0.106009
H	-2.4933242395	 0.7068457288	-1.1427577072	 0.093874
H	-0.9952452671	-0.9935361673	-3.0848945326	 0.106013
H	-0.6258286438	 0.6765357557	-2.6754614588	 0.093865
H	 1.2718671501	-0.9152159345	-1.694862359	 0.067979
215.5249	229.1731	235.7259	286.489	371.5632	404.5227	425.6968	606.1625	649.8046	680.6916	705.027	767.5863	832.5426	908.6545	910.4082	946.4866	951.7234	967.9484	1003.7809	1013.5821	1021.425	1042.185	1063.4694	1096.1561	1119.5903	1145.4498	1186.2919	1208.1829	1221.8122	1237.4697	1252.3887	1263.8622	1269.4025	1296.2835	1318.4124	1334.9572	1395.0265	1405.9455	1500.0569	1520.125	1529.5752	3025.3512	3032.3629	3044.4156	3066.3545	3074.2256	3092.3979	3108.4128	3111.2244	3134.0715	3814.5407
OC12COC3C1CCC23	O[C@@]12CO[C@H]3[C@@H]1CC[C@@H]23	
InChI=1S/C7H10O2/c8-7-3-9-6-4(7)1-2-5(6)7/h4-6,8H,1-3H2	InChI=1S/C7H10O2/c8-7-3-9-6-4(7)1-2-5(6)7/h4-6,8H,1-3H2/t4-,5+,6-,7-
