22
gdb 88445	3.09425	1.13106	1.02921	1.839	82.94	-0.2194	0.0884	0.3078	1298.7529	0.191661	-404.304311	-404.294231	-404.293287	-404.338921	37.475	
C	-0.1563096095	 1.5282316549	-0.1337604893	-0.426169
C	-0.0169132193	 0.0426416251	 0.0764899759	 0.032986
O	 1.2844649106	-0.5343914712	-0.1078410267	-0.293382
C	 0.6907580928	-0.6119656363	 1.1991556448	 0.352505
C	 1.3792244837	 0.1799818573	 2.2912284215	-0.468001
C	 0.2070141798	-1.9759978052	 1.6300795044	-0.058692
C	 0.1150115886	-3.1076990547	 0.6693567647	-0.258868
N	 1.0791533072	-3.1477958754	 1.7655851021	-0.098315
C	 2.4922888881	-3.0446283006	 1.4100260706	-0.327468
H	 0.6495748595	 2.0912056649	 0.3397339174	 0.128081
H	-0.1421371819	 1.7564162682	-1.2047959989	 0.131783
H	-1.1129913363	 1.8792918827	 0.2683413742	 0.123868
H	-0.8121649286	-0.5471527981	-0.3844025709	 0.086981
H	 1.7084002957	 1.158048325	 1.9384127851	 0.126752
H	 0.7033995633	 0.3228494571	 3.1412984536	 0.123871
H	 2.2577048546	-0.3612417285	 2.655068045	 0.134408
H	-0.5336180057	-1.9128333046	 2.4283458923	 0.088294
H	-0.7046395	-3.8197686023	 0.7263023817	 0.107762
H	 0.4992553254	-2.915921813	-0.3307047927	 0.122882
H	 2.7031004274	-2.3726791301	 0.5681771932	 0.135231
H	 3.0590527799	-2.7034528246	 2.2829771424	 0.116673
H	 2.8526832145	-4.0460568905	 1.1531197098	 0.118817
79.6079	135.9076	142.4457	161.7227	187.4743	222.2671	245.9611	284.8656	354.7415	381.7559	385.4045	479.5773	497.7432	598.9246	693.0362	757.5269	813.9642	842.7192	898.9263	941.6182	986.546	996.3265	1045.1422	1070.3241	1087.5599	1107.8284	1134.3775	1136.8208	1142.4279	1173.0144	1195.3948	1210.6773	1233.6769	1325.4874	1342.1504	1404.2563	1411.1642	1417.4664	1448.1944	1456.7499	1475.4492	1485.5012	1491.0728	1497.713	1505.7492	1510.1067	1517.2526	3012.8641	3039.5179	3045.4691	3080.5064	3085.1445	3092.6012	3093.8453	3095.5381	3098.6616	3106.974	3135.4728	3146.585	3181.454
CC1OC1(C)C1CN1C	C[C@H]1O[C@]1(C)[C@H]1CN1C	
InChI=1S/C7H13NO/c1-5-7(2,9-5)6-4-8(6)3/h5-6H,4H2,1-3H3	InChI=1S/C7H13NO/c1-5-7(2,9-5)6-4-8(6)3/h5-6H,4H2,1-3H3/t5-,6-,7+,8?/m1/s1
