16
gdb 54568	3.0981	1.67666	1.24744	5.608	68.87	-0.2532	0.0069	0.2601	974.003	0.125961	-437.82643	-437.819576	-437.818632	-437.857853	27.011	
O	 0.1558431558	 0.1127561586	 0.3076303778	-0.33123
C	-0.084236039	 1.2415344866	-0.0245544697	 0.312562
O	 0.8621922404	 2.0729903746	-0.5053796175	-0.384718
C	-1.4442927494	 1.8727228669	 0.0473246975	 0.215253
C	-2.810148732	 1.3480441767	 0.5123645926	-0.32452
C	-3.1064406355	 2.8067431338	 0.0798143315	-0.084146
C	-1.7214540277	 3.3149826891	 0.5995146633	-0.042507
N	-1.2679021673	 3.9380939098	-0.6903737093	-0.378346
H	-1.7543270152	 4.8155979471	-0.8858019646	 0.222278
H	 0.4478402848	 2.9393964944	-0.7121968904	 0.310194
C	-2.0779709119	 2.7395780298	-1.0967550478	-0.042493
H	-3.2566217702	 0.5556101358	-0.0924643147	 0.11636
H	-2.9058189724	 1.1218245716	 1.5766869366	 0.116355
H	-4.0485895646	 3.3562600706	 0.0914326629	 0.086654
H	-1.4539192417	 3.7081750946	 1.58056212	 0.10415
H	-2.2349096641	 2.44763636	-2.1353925582	 0.104155
102.0904	188.9589	204.4184	375.6058	400.3218	442.4065	566.6305	688.4135	724.0669	761.9476	784.8627	820.5379	852.6976	875.0285	891.3235	909.0259	923.5099	1009.2753	1031.6698	1055.002	1082.9825	1116.4023	1119.0688	1153.4944	1159.0445	1177.6326	1181.4111	1242.1822	1252.1928	1274.7865	1323.7082	1343.6197	1444.2135	1514.8871	1864.4807	3067.7827	3107.5345	3118.3025	3125.5582	3128.4229	3423.6931	3461.3082
[O-]C(=O)C12CC3C1[NH2+]C23	O=C(O)[C@@]12C[C@H]3[C@@H]1N[C@@H]23	
InChI=1S/C6H7NO2/c8-5(9)6-1-2-3(6)7-4(2)6/h2-4,7H,1H2,(H,8,9)	InChI=1S/C6H7NO2/c8-5(9)6-1-2-3(6)7-4(2)6/h2-4,7H,1H2,(H,8,9)/t2-,3-,4+,6-
