13
gdb 25215	2.70235	1.73691	1.05732	4.1765	72.24	-0.2608	-0.0884	0.1724	1024.9877	0.091402	-452.79588	-452.788694	-452.787749	-452.828643	26.045	
O	-0.0489095175	-0.0680114116	 0.0024860222	-0.296272
C	 0.0147641336	 1.1339163087	 0.0087594141	 0.329038
N	-1.1915559249	 1.8601834012	 0.0286611508	-0.347283
C	-1.5346567191	 3.1847337478	 0.0409745411	 0.128129
N	-0.8270145749	 4.2541959092	 0.0370653872	-0.284801
C	 0.5448580518	 4.2871590393	 0.0181034098	 0.006867
C	 1.4861240739	 3.3108165371	 0.0007732816	-0.162087
C	 1.3746700938	 1.8599998297	-0.0042711763	 0.253141
O	 2.3549238265	 1.1449644402	-0.0197151451	-0.295236
H	-1.9740101902	 1.2145748182	 0.0353666091	 0.272364
H	-2.6173363162	 3.310078887	 0.056766689	 0.140949
H	 0.9216325418	 5.3081569977	 0.0176019595	 0.128502
H	 2.5228572814	 3.6338786155	-0.0117733331	 0.126689
33.8616	118.1739	280.4847	331.2132	380.9523	412.0131	428.5073	541.6413	616.4933	641.8062	752.3247	802.4488	813.2143	883.282	892.0083	969.0544	973.3446	1034.7619	1072.0024	1217.8639	1268.5415	1351.0955	1451.9531	1480.0792	1489.9231	1614.9071	1680.7778	1753.9326	1813.6128	3134.6285	3147.9233	3183.6498	3554.4478
O=C1NC=NC=CC1=O	O=c1[nH]cnccc1=O	
InChI=1S/C5H4N2O2/c8-4-1-2-6-3-7-5(4)9/h1-3H,(H,6,7,8,9)	InChI=1S/C5H4N2O2/c8-4-1-2-6-3-7-5(4)9/h1-3H,(H,6,7,8,9)
