18
gdb 46521	3.67997	1.24765	1.09311	5.3209	72.33	-0.2492	0.061	0.3101	1130.4119	0.149875	-439.121016	-439.113107	-439.112163	-439.153752	30.218	
O	 0.0372748901	-0.0274619453	 0.2339576555	-0.396186
C	-0.0038361075	 1.1644569187	 0.0558642897	 0.466323
N	-1.1778425883	 1.8660541379	-0.0520549002	-0.371151
C	-1.3530540618	 3.3103829244	-0.1209629482	-0.220841
C	-0.0376694081	 3.9715570128	 0.2170393046	 0.328653
C	 0.0319036322	 5.4581799651	 0.4202508092	-0.326817
C	 0.1977353847	 4.5272229707	 1.5985459787	-0.292246
C	 1.086952076	 3.2475341918	-0.4712311894	-0.143125
O	 1.1494721025	 1.880098617	-0.0434903701	-0.240531
H	-1.9907592002	 1.2759455373	 0.016451627	 0.257726
H	-1.6780932311	 3.6099140269	-1.1292590139	 0.110286
H	-2.1373554253	 3.6223167725	 0.5788138458	 0.111416
H	 0.906707602	 5.9845822844	 0.052861995	 0.120043
H	-0.8899157278	 6.0250739375	 0.3398234696	 0.118976
H	-0.6114865175	 4.4649822778	 2.3180817831	 0.120601
H	 1.1864069622	 4.415502328	 2.0303768749	 0.126635
H	 0.9628573548	 3.2770867919	-1.5631075945	 0.111746
H	 2.0616408129	 3.6765777404	-0.2265042367	 0.118493
77.3551	104.2037	186.0675	260.4461	340.5186	363.7819	444.9709	475.5763	512.4585	581.9398	679.7443	760.7512	780.7562	807.0929	833.198	907.8028	947.984	969.0827	987.5143	1015.9504	1060.5887	1067.2409	1085.2629	1100.0286	1120.9208	1186.2329	1236.9501	1257.0648	1268.9426	1338.227	1363.3619	1406.2575	1436.1414	1470.9814	1481.8152	1504.21	1514.7271	1528.9038	1843.875	2979.8147	3008.1607	3043.8543	3098.0922	3129.3347	3136.2531	3208.0944	3223.7817	3651.1508
O=C1NCC2(CC2)CO1	O=C1NCC2(CC2)CO1	
InChI=1S/C6H9NO2/c8-5-7-3-6(1-2-6)4-9-5/h1-4H2,(H,7,8)	InChI=1S/C6H9NO2/c8-5-7-3-6(1-2-6)4-9-5/h1-4H2,(H,7,8)
