21
gdb 105683	2.61349	0.91751	0.76347	2.868	79.7	-0.2549	-0.0272	0.2276	1550.2797	0.178582	-424.213354	-424.202945	-424.202001	-424.250177	36.804	
C	-1.5209410714	-0.2463184423	-0.1553865746	-0.375186
C	-0.0101217574	-0.2150286527	 0.0999633495	-0.253744
C	 0.8010481198	-0.6248995359	-1.1150543516	 0.464337
C	 2.1849548354	-1.2039388446	-0.9545861916	-0.332106
C	 1.0288561038	-2.0751347217	-1.4110959354	-0.312752
O	 0.5783084025	 0.1517093117	-2.2691996362	-0.298196
C	 1.1149761371	 1.4540414575	-2.2286433613	-0.168022
C	 1.0547801679	 2.0271311875	-3.6341097208	 0.138746
O	 1.3118151367	 3.1709165767	-3.8997370782	-0.238399
H	-1.7881359542	 0.4071087163	-0.9905561806	 0.127193
H	-1.855364434	-1.2575762816	-0.4086448685	 0.119603
H	-2.0760486608	 0.0830374447	 0.7277704014	 0.111514
H	 0.2927691119	 0.7891664284	 0.4244778575	 0.098978
H	 0.2477112266	-0.8865321421	 0.9267089021	 0.100338
H	 2.9260713618	-0.9419262446	-1.7016741345	 0.117232
H	 2.5800418887	-1.341177592	 0.0462041407	 0.115426
H	 0.6270274887	-2.8105884083	-0.7226975167	 0.114287
H	 1.0126552055	-2.3676841261	-2.4543270107	 0.124418
H	 0.5655669719	 2.1237234361	-1.5506895836	 0.127074
H	 2.1672494292	 1.4496575836	-1.9004125397	 0.123952
H	 0.75804082	 1.2823136995	-4.4053716072	 0.095307
40.7664	57.2883	83.8037	122.0292	157.8227	199.8317	216.7952	296.8872	341.9444	367.6191	430.5184	513.33	576.621	717.7573	740.6223	773.7619	794.0505	901.8081	902.867	950.0128	972.9842	1004.9525	1045.5333	1057.0125	1077.5673	1083.0969	1115.2942	1121.0911	1124.7921	1188.605	1234.0962	1254.2965	1295.8758	1336.656	1359.8055	1382.7538	1405.4988	1408.7892	1454.2184	1478.1356	1484.2123	1493.5705	1499.8053	1508.8287	1844.0567	2897.2866	2978.7176	3016.9285	3025.1932	3040.8372	3063.1417	3108.7389	3118.0962	3133.1429	3139.205	3216.9141	3232.7137
CCC1(CC1)OCC=O	CCC1(CC1)OCC=O	
InChI=1S/C7H12O2/c1-2-7(3-4-7)9-6-5-8/h5H,2-4,6H2,1H3	InChI=1S/C7H12O2/c1-2-7(3-4-7)9-6-5-8/h5H,2-4,6H2,1H3
