19
gdb 74637	4.14627	1.3037	1.20428	2.3552	81.87	-0.2281	0.0103	0.2384	1091.3249	0.159557	-385.804538	-385.797194	-385.79625	-385.835892	30.225	
C	-0.124748987	 1.5014204242	 0.1036519111	-0.490031
C	 0.0135574594	 0.0181505267	-0.0338640643	 0.351182
C	-0.0293569657	-0.6923956179	-1.1803669587	-0.262637
C	-0.0160704836	-2.1625501326	-0.851649383	-0.027339
C	 1.0851667504	-3.2808447648	-0.7686403033	-0.006495
C	 2.0720957246	-2.2939764423	-0.1508556699	-0.254233
C	 0.6737187652	-2.1081831208	 0.5095816815	 0.435915
C	 0.2098923787	-0.8644773188	 1.2257530359	-0.457719
O	 0.5769784664	-3.5874961125	 0.6203671091	-0.380063
H	 0.763653941	 1.9419974118	 0.5736594935	 0.12824
H	-0.2718658191	 1.9825179564	-0.867093666	 0.126263
H	-0.9761926434	 1.7610266142	 0.7458053239	 0.129425
H	-0.1919348099	-0.2481207226	-2.1568064574	 0.089509
H	-1.0164830094	-2.6072085694	-0.8270736434	 0.089894
H	 1.2546845652	-4.1508335872	-1.4043371377	 0.090177
H	 2.8250738639	-2.7425025155	 0.4976519374	 0.101806
H	 2.4579555537	-1.4852472356	-0.7732425287	 0.100986
H	 0.9344319231	-0.4404031859	 1.9288740084	 0.110908
H	-0.7404288035	-1.0007509776	 1.7588082714	 0.124212
140.504	185.8574	268.2083	311.9381	356.7831	428.1124	476.2568	489.5763	573.7315	667.7521	703.5134	721.4041	810.7134	815.4117	860.3929	883.0368	912.1663	960.2153	973.4485	985.364	1010.0202	1039.1899	1053.9211	1091.9861	1095.559	1123.8673	1168.0625	1181.5728	1196.4684	1214.474	1245.2033	1258.5977	1295.0511	1326.2112	1353.8405	1412.2218	1474.3663	1477.8475	1484.293	1489.5808	1654.1694	3016.6743	3025.4466	3052.3277	3063.438	3074.9862	3076.1482	3109.9088	3111.5472	3154.9054	3181.0528
CC1=CC2C3CC2(C1)O3	CC1=C[C@H]2[C@H]3C[C@]2(C1)O3	
InChI=1S/C8H10O/c1-5-2-6-7-4-8(6,3-5)9-7/h2,6-7H,3-4H2,1H3	InChI=1S/C8H10O/c1-5-2-6-7-4-8(6,3-5)9-7/h2,6-7H,3-4H2,1H3/t6-,7+,8-/m0/s1
