19
gdb 72732	2.71416	1.95503	1.58074	1.7493	74.89	-0.2262	0.0513	0.2776	918.8143	0.16027	-422.917403	-422.910432	-422.909488	-422.948041	30.321	
O	 0.1264030523	 1.3322267645	 0.0777237454	-0.482181
C	 0.1631110988	-0.0851007721	 0.076416553	 0.427179
C	 0.225444311	-0.453545966	 1.600467789	-0.31581
C	-1.3830625706	-0.3470065259	 1.5442665113	-0.335935
C	-1.1870747956	-0.7227833436	 0.0507828733	 0.360263
C	-0.9973553018	-2.2236994897	-0.2458243662	-0.254178
C	 0.0595870964	-2.1117262416	-1.3837548533	-0.214909
C	 0.129766775	-0.5919691819	-1.413625574	-0.057381
O	-1.3443711563	-0.2116516827	-1.3619371979	-0.409406
H	-0.476288429	 1.578623861	-0.6383986754	 0.283368
H	 0.5709993083	-1.4593906925	 1.8344601447	 0.116526
H	 0.7367205702	 0.2779580986	 2.2260549392	 0.123264
H	-1.9749207185	-1.0256801433	 2.1619070515	 0.10495
H	-1.6834212852	 0.6854841973	 1.7102072614	 0.136159
H	-0.6583332269	-2.8072534589	 0.6120583035	 0.103443
H	-1.9430985221	-2.6487333814	-0.5900875031	 0.113002
H	 1.0212320661	-2.5725235432	-1.1408968578	 0.104524
H	-0.2916323389	-2.5153354697	-2.3352870008	 0.112854
H	 0.6602476069	-0.072867809	-2.213385354	 0.084267
216.6262	271.1837	326.5367	352.7861	416.6785	466.8472	478.3234	553.7271	568.4303	609.5103	660.1065	718.1042	757.8184	810.3534	842.1293	858.1323	867.6271	902.1721	936.5137	967.8232	971.1622	983.2676	1026.8078	1088.6233	1114.5525	1147.0224	1162.9484	1183.0766	1200.4609	1213.4922	1230.7915	1249.8738	1256.2684	1266.8648	1308.6492	1323.4088	1374.4659	1463.5097	1471.9644	1485.2996	1503.69	3064.0338	3074.0088	3082.7579	3097.1381	3109.1218	3116.474	3125.5694	3159.7938	3172.8895	3741.1825
OC12CCC11CCC2O1	O[C@@]12CC[C@@]31CC[C@H]2O3	
InChI=1S/C7H10O2/c8-7-4-3-6(7)2-1-5(7)9-6/h5,8H,1-4H2	InChI=1S/C7H10O2/c8-7-4-3-6(7)2-1-5(7)9-6/h5,8H,1-4H2/t5-,6-,7-/m1/s1
