21
gdb 106383	3.34003	1.42041	1.25011	1.5681	81.2	-0.2473	0.0906	0.338	1102.3417	0.183602	-387.054503	-387.046677	-387.045733	-387.086679	31.959	
C	 0.0693538825	 1.5395768868	 0.1445265888	-0.38856
C	 0.0209923591	 0.0206756759	-0.0452740425	-0.292407
C	 0.6696635518	-0.4712220899	-1.3145178994	 0.41933
C	 0.4360008974	 0.1113437937	-2.7451141444	-0.265437
C	 1.8697043676	-0.4628785516	-2.8658289131	 0.051638
O	 2.0822462173	-0.0979464989	-1.4716517365	-0.320497
C	 1.6316034137	-1.9882053325	-2.7970084495	-0.055749
C	 2.050084928	-2.6662046795	-1.517398502	-0.295534
C	 0.7010279833	-1.9970884869	-1.6003127206	-0.099826
H	 1.099118605	 1.9013046243	 0.0833927501	 0.136826
H	-0.5155225383	 2.0579648917	-0.6219383668	 0.11442
H	-0.3374967272	 1.8218708288	 1.1199745085	 0.109821
H	 0.5212779577	-0.4770292764	 0.7953305317	 0.111879
H	-1.0178183094	-0.3339618138	-0.0357278686	 0.100192
H	-0.3573560623	-0.3194015359	-3.3623366168	 0.08927
H	 0.4183011891	 1.202491597	-2.7625724087	 0.103647
H	 2.6233755542	-0.0670152632	-3.5465545426	 0.077995
H	 1.4466780514	-2.5511037992	-3.7036743752	 0.087025
H	 2.0441349758	-3.7512637857	-1.5304822326	 0.104376
H	 2.825448403	-2.2139826807	-0.911911319	 0.127886
H	-0.2183162297	-2.5688803141	-1.5607269007	 0.083703
76.829	175.778	199.5688	278.2417	343.733	388.1413	434.4385	513.4787	607.6454	633.7184	702.0936	753.9827	784.1433	804.5884	815.8453	857.301	895.7191	928.3347	939.1906	967.0531	981.5816	985.1439	1024.4099	1063.5326	1065.1281	1079.7284	1094.1787	1100.3283	1144.7645	1163.7793	1185.7365	1210.5407	1238.082	1258.4952	1283.1116	1307.494	1320.9044	1354.2232	1393.3853	1407.316	1462.0948	1468.7883	1486.6117	1497.5891	1508.7515	3022.7892	3041.8531	3056.3616	3059.3396	3106.914	3120.1834	3123.7807	3134.8222	3138.8686	3180.3095	3190.4046	3230.8543
CCC12CC(O1)C1CC21	CC[C@@]12C[C@@H](O1)[C@H]1C[C@@H]21	
InChI=1S/C8H12O/c1-2-8-4-7(9-8)5-3-6(5)8/h5-7H,2-4H2,1H3	InChI=1S/C8H12O/c1-2-8-4-7(9-8)5-3-6(5)8/h5-7H,2-4H2,1H3/t5-,6+,7+,8-/m0/s1
