14
gdb 47993	6.39518	0.60648	0.59989	1.9823	76.27	-0.2665	-0.0746	0.1919	1758.8341	0.099235	-436.677644	-436.668793	-436.667849	-436.713325	29.87	
O	-0.0915278595	-0.0985614858	 0.1924037446	-0.222495
C	-0.0349242125	 1.104299921	 0.0854355821	 0.022352
C	 1.1930680008	 1.8592935517	 0.0498026726	 0.018138
C	 2.205042199	 2.5182512201	 0.0129429854	 0.147942
C	 3.4381842562	 3.2848457404	-0.0167385525	-0.161875
C	 4.156729972	 3.4033755705	-1.4089660856	-0.388743
C	 3.9222342347	 4.9280104628	-1.2681203809	 0.434303
O	 4.1729608665	 5.902749043	-1.9174727107	-0.341221
N	 3.2943564057	 4.7461596759	-0.0559783074	-0.304841
H	-0.9499978111	 1.7249253833	 0.0051124984	 0.105812
H	 4.1053960096	 2.9397181262	 0.7813925396	 0.128988
H	 5.202443771	 3.0947562597	-1.412997404	 0.147511
H	 3.6226181814	 2.9409810012	-2.2389598691	 0.152651
H	 2.8506352662	 5.38946136	 0.5831615975	 0.261478
34.5781	44.8613	96.3067	130.3913	218.5085	270.8884	369.7066	450.5173	453.0795	545.429	568.3167	620.1724	742.8728	782.3172	900.6805	965.705	986.4878	1012.8685	1020.3992	1099.5309	1147.41	1186.6897	1192.7808	1252.6678	1365.9426	1370.8375	1421.354	1456.4617	1768.6958	1910.3453	2325.6006	2925.7838	3041.4853	3101.1209	3165.7534	3612.6318
O=CC#CC1CC(=O)N1	O=CC#C[C@H]1CC(=O)N1	
InChI=1S/C6H5NO2/c8-3-1-2-5-4-6(9)7-5/h3,5H,4H2,(H,7,9)	InChI=1S/C6H5NO2/c8-3-1-2-5-4-6(9)7-5/h3,5H,4H2,(H,7,9)/t5-/m0/s1
