18
gdb 65383	4.3201	0.9702	0.89573	2.0584	73.95	-0.2552	-0.0415	0.2137	1311.7437	0.145776	-439.047425	-439.038373	-439.037429	-439.081519	32.723	
C	 0.2335036557	 1.5128940691	-0.0956127247	-0.492979
C	 0.0161801278	 0.0387838333	 0.125954047	 0.267208
O	 1.1637323488	-0.8462203166	 0.1264965812	-0.282476
C	 0.4523140701	-0.6941377486	 1.3461714971	-0.020794
C	 1.1780635953	-0.0278041358	 2.4774754529	-0.041477
C	 2.4600782175	-0.6122543116	 2.949321278	-0.236523
N	 2.4421209767	 0.6726627154	 2.2293938825	-0.313667
C	-1.1443213959	-0.5840552691	-0.5988007319	 0.132058
O	-2.0317276329	 0.0387008908	-1.1210875956	-0.249972
H	 0.9423385054	 1.9363248695	 0.615529568	 0.154298
H	 0.5979984069	 1.6887353071	-1.1123854206	 0.138988
H	-0.7253413192	 2.0288157274	 0.0004018795	 0.150014
H	-0.1297484894	-1.5725588061	 1.6364452002	 0.103024
H	 0.5253139871	 0.4542936009	 3.2025546408	 0.108157
H	 2.7287807161	-0.552363779	 3.9996884409	 0.125067
H	 2.8368293793	-1.4870955872	 2.4258990738	 0.12498
H	 2.710154596	 0.4991894064	 1.2616574428	 0.245409
H	-1.1077987852	-1.696233106	-0.6105178721	 0.088684
85.1874	93.657	142.9134	161.7544	200.6267	267.8313	299.1907	328.5097	392.808	477.5541	589.6504	638.2478	757.6652	768.4484	842.4188	858.3409	910.4143	950.6373	991.5782	996.7225	1025.9524	1069.2023	1108.6654	1119.7728	1140.37	1150.5392	1196.5213	1263.9459	1284.9261	1306.569	1334.6408	1394.7069	1406.6259	1422.7616	1449.5447	1489.1698	1495.9849	1509.7817	1829.7408	2892.7436	3056.1615	3076.1448	3112.5802	3121.6063	3129.8057	3159.6748	3201.4763	3484.4042
CC1(OC1C1CN1)C=O	C[C@]1(O[C@H]1[C@H]1CN1)C=O	
InChI=1S/C6H9NO2/c1-6(3-8)5(9-6)4-2-7-4/h3-5,7H,2H2,1H3	InChI=1S/C6H9NO2/c1-6(3-8)5(9-6)4-2-7-4/h3-5,7H,2H2,1H3/t4-,5+,6+/m1/s1
