13
gdb 131350	3.24358	1.47332	1.01313	3.3159	64.9	-0.2401	-0.0504	0.1897	1057.5416	0.091926	-486.113597	-486.106241	-486.105297	-486.145571	27.9	
O	-0.068425125	 1.3111439396	 0.0112563197	-0.40854
C	-0.0006071227	-0.0334638085	 0.0030753454	 0.377019
N	 1.1345127315	-0.6244143359	-0.0077166364	-0.276908
N	 1.1267144551	-1.9897818581	-0.015699476	-0.324683
C	 0.0165390376	-2.8098971171	-0.0124915533	 0.506878
O	 0.0808750108	-4.0191032685	-0.0197988235	-0.389863
N	-1.1718968556	-2.0977466866	-0.0010567913	-0.413875
C	-1.3116837939	-0.7160330415	 0.0075747803	 0.331799
N	-2.4647339049	-0.177594621	 0.0179858936	-0.522181
H	 0.8375259893	 1.6496742973	 0.0072971012	 0.313137
H	 2.0305397224	-2.4325084612	-0.0235914658	 0.283763
H	-2.0199448215	-2.6475165628	 0.0013725125	 0.279256
H	-2.3743139531	 0.8369106942	 0.0231458137	 0.244198
94.5335	135.4695	318.4185	332.2003	389.178	399.7391	484.3222	505.0913	520.2044	536.4711	614.1946	661.0902	724.8197	746.3539	770.8879	827.0826	865.7815	990.0885	1110.3663	1160.5692	1265.8882	1325.6858	1383.4517	1402.3677	1440.3975	1508.1918	1695.2758	1728.5081	1832.922	3516.7731	3618.4795	3667.602	3778.6202
OC1=NNC(=O)NC1=N	Oc1n[nH]c(=O)[nH]c1[NH]	
InChI=1S/C3H4N4O2/c4-1-2(8)6-7-3(9)5-1/h(H,6,8)(H3,4,5,7,9)	InChI=1S/C3H7N4O2/c4-1-2(8)6-7-3(9)5-1/h1-2,4,6,8H,(H2,5,7,9)
