17
gdb 55586	2.89404	0.95855	0.74568	3.0762	74.91	-0.2549	-0.0392	0.2157	1493.2304	0.134248	-455.207307	-455.197644	-455.1967	-455.243167	33.442	
C	 0.1652820353	 0.9904260146	 0.5148161908	-0.473253
C	-0.2975348893	-0.3380627667	-0.0365172357	 0.385818
O	-1.1169695513	-1.0220866395	 0.5399516937	-0.304011
C	 0.3048603645	-0.7580232821	-1.3765935569	-0.425222
C	 0.6996551168	-2.2305637226	-1.5505912032	 0.412965
O	 1.6853766496	-2.5378342895	-2.1882037153	-0.35344
N	-0.1596781271	-3.1381702435	-0.9824281731	-0.30336
C	 0.0118373582	-4.510741907	-1.0834359316	 0.095857
N	-0.7949904881	-5.3003389742	-0.5017874317	-0.454747
H	 0.0429998041	 1.7794538535	-0.2357132045	 0.148252
H	-0.3942633896	 1.2389579805	 1.4168853387	 0.15188
H	 1.2361624664	 0.9385405838	 0.7446763279	 0.156025
H	-0.4598479938	-0.5385845524	-2.1356580145	 0.168151
H	 1.1826198593	-0.1624868316	-1.6306189184	 0.143551
H	-0.9074181821	-2.7838446256	-0.392030896	 0.284536
H	 0.8761308671	-4.775323949	-1.6958420399	 0.135585
H	-0.5288707799	-6.2670638487	-0.6811287804	 0.231413
39.7937	69.5327	118.8985	147.0199	165.9184	196.539	262.3719	324.5701	378.4982	478.0736	505.8497	571.6785	591.5433	714.1491	787.8046	829.8972	838.0115	897.5636	964.9415	992.5405	1044.0021	1092.9504	1100.1277	1170.5991	1198.5641	1224.8201	1302.8268	1332.9461	1385.6022	1397.6972	1442.339	1460.1477	1473.3432	1525.4651	1727.4945	1792.3856	1802.1243	3026.9374	3035.4392	3095.4448	3119.1241	3129.278	3157.467	3503.6673	3511.9441
CC(=O)CC(=O)NC=N	CC(=O)CC(=O)NC=N	
InChI=1S/C5H8N2O2/c1-4(8)2-5(9)7-3-6/h3H,2H2,1H3,(H2,6,7,9)	InChI=1S/C5H8N2O2/c1-4(8)2-5(9)7-3-6/h3H,2H2,1H3,(H2,6,7,9)
