21
gdb 36727	5.22604	0.70509	0.6572	2.161	85.43	-0.2444	0.0624	0.3068	1727.9431	0.182098	-387.070132	-387.060594	-387.059649	-387.105922	34.769	
C	-0.0804459347	-1.2108948501	 0.0277180156	-0.442798
C	-0.0692393605	-0.0088704284	 0.0061868999	 0.294434
C	-0.0211792034	 1.4474542389	-0.017074011	-0.356934
C	 1.4150541396	 2.0021393632	 0.0664244505	-0.192544
C	 1.4503895614	 3.5261565299	 0.0361468928	 0.152987
C	 2.8564741876	 4.1417913685	 0.0657002381	-0.246434
C	 2.6516060888	 5.4537032708	-0.7038931289	-0.230201
C	 1.6296341542	 5.0310982898	-1.7657511446	-0.057834
O	 0.8440504371	 3.9954188745	-1.1765700116	-0.280541
H	-0.1054303637	-2.2719764909	 0.0440332113	 0.190082
H	-0.4876193024	 1.8244198509	-0.9338831332	 0.150768
H	-0.6156935172	 1.8461892861	 0.8159445348	 0.123983
H	 1.8917507688	 1.649661887	 0.9885487593	 0.104894
H	 2.0025855734	 1.6127394118	-0.7724591738	 0.109076
H	 0.8611361075	 3.913674744	 0.8851075283	 0.064219
H	 3.229370803	 4.2841440714	 1.0827446927	 0.10437
H	 3.5617581139	 3.4913876341	-0.4651688041	 0.104125
H	 2.2257147253	 6.2192496001	-0.0465219209	 0.107968
H	 3.5709852904	 5.8547285537	-1.1372162566	 0.104071
H	 0.9661352294	 5.8466896792	-2.0739750911	 0.102741
H	 2.1313503314	 4.6462645056	-2.6662688175	 0.09357
31.3629	73.0967	102.0874	108.9939	196.2434	243.6223	348.2986	352.652	434.2191	523.7465	592.283	611.4852	632.7892	668.4006	762.9643	843.1428	880.125	892.9614	929.9857	933.8367	970.311	1010.218	1026.6603	1039.1655	1100.5391	1112.815	1140.2327	1192.8875	1202.8088	1213.7502	1258.7488	1273.7226	1312.2264	1312.6812	1338.5898	1363.2298	1367.4999	1399.7977	1408.2163	1469.9277	1484.3539	1487.6019	1498.3535	1532.357	2237.92	2947.6159	2989.0892	3019.1956	3035.6311	3040.8137	3045.9686	3060.9754	3065.9725	3087.8625	3102.7189	3110.6369	3508.4019
C#CCCC1CCCO1	C#CCC[C@H]1CCCO1	
InChI=1S/C8H12O/c1-2-3-5-8-6-4-7-9-8/h1,8H,3-7H2	InChI=1S/C8H12O/c1-2-3-5-8-6-4-7-9-8/h1,8H,3-7H2/t8-/m0/s1
