22
gdb 76744	2.01926	1.78127	1.16482	1.8381	82.78	-0.1967	0.0738	0.2705	1165.5989	0.191642	-404.305935	-404.295871	-404.294927	-404.339862	38.366	
C	-0.6934730518	 1.4900417009	-0.6306027259	-0.419881
C	-0.2723930936	 0.0527293907	-0.3557013951	-0.002073
N	 1.0220909672	-0.4637890002	-0.9265073622	-0.125893
C	 1.8567955193	 0.3778287326	-1.7632044315	-0.333411
C	 1.5083531429	-0.840413616	 0.4031360313	 0.31133
C	 2.2995443919	-2.0973764645	 0.6071859195	-0.483827
C	 1.5447166028	 0.3514030325	 1.3518378122	-0.416985
C	 0.2338710827	-0.3335280489	 1.0391298421	 0.305192
O	-0.5363468358	-0.9688880357	 1.9973076396	-0.46718
H	 0.0471581213	 2.217926315	-0.2877417547	 0.116449
H	-0.8637297765	 1.6576706989	-1.6992917893	 0.120809
H	-1.6362834293	 1.6992408101	-0.1133899743	 0.116582
H	-1.0826023528	-0.6236437686	-0.6571008601	 0.084751
H	 2.1946826169	 1.319009431	-1.2951404724	 0.090954
H	 2.7509508661	-0.1857639837	-2.0505956731	 0.12023
H	 1.3216511147	 0.6315680007	-2.6837291338	 0.117683
H	 3.3320353472	-1.98435525	 0.2559789999	 0.116505
H	 2.3361588317	-2.3598585484	 1.6686799856	 0.123655
H	 1.843789062	-2.9273227828	 0.0586845806	 0.126845
H	 1.9286250417	 0.1201863552	 2.3412827811	 0.110612
H	 1.7702229579	 1.3559919428	 1.0052852538	 0.101783
H	-0.8476119165	-0.3074422817	 2.6242729468	 0.28587
124.3576	166.5682	180.0778	187.8656	228.6627	238.4809	246.7663	257.5898	279.0702	339.8249	395.7419	487.5579	503.5352	575.7723	607.538	689.147	724.4707	784.5233	833.138	884.621	947.8419	966.867	1025.8994	1050.0063	1060.9873	1095.3857	1103.9897	1152.2484	1161.3855	1192.2137	1220.9885	1234.1436	1270.2693	1309.3639	1335.2093	1374.9547	1402.2619	1409.3389	1429.9808	1450.8735	1477.8678	1484.3079	1493.0718	1496.9493	1502.3526	1507.8082	1515.4731	2948.9525	3016.4432	3028.6003	3035.3044	3057.161	3090.6633	3094.9331	3099.6105	3111.6245	3113.962	3116.1456	3200.1623	3800.2513
CC1N(C)C2(C)CC12O	C[C@H]1N(C)[C@@]2(C)C[C@@]12O	
InChI=1S/C7H13NO/c1-5-7(9)4-6(7,2)8(5)3/h5,9H,4H2,1-3H3	InChI=1S/C7H13NO/c1-5-7(9)4-6(7,2)8(5)3/h5,9H,4H2,1-3H3/t5-,6+,7-/m1/s1
