19
gdb 113411	4.36003	1.01741	0.95605	2.139	76.27	-0.2583	0.076	0.3343	1278.7701	0.159411	-422.944259	-422.936238	-422.935293	-422.977201	31.125	
O	 0.0431958299	 1.2681294209	-0.6604742695	-0.416971
C	 0.0605074044	 0.1588283264	 0.22115231	-0.077615
C	-1.3107161961	-0.450894056	 0.3608137741	-0.148828
O	-1.7685756176	-1.1512754779	-0.8413359493	-0.337694
C	-1.5471466452	-1.88628966	 0.3376012004	 0.564728
C	-0.7086101283	-3.1641983732	 0.5048047978	-0.151815
C	-1.3130917871	-3.2314038555	 1.9417503209	-0.220658
C	-2.51899033	-2.855472701	 1.0254922092	-0.153443
C	-1.9842862264	-3.9295816567	 0.0223362508	-0.227196
H	-0.3247736315	 0.9488185288	-1.4925943588	 0.2937
H	 0.7706863427	-0.6127200486	-0.1117284447	 0.091572
H	 0.4036246611	 0.5386305797	 1.1899387594	 0.111909
H	-2.071026321	 0.2055533509	 0.7858559847	 0.10249
H	 0.3248836519	-3.3392271535	 0.2078131407	 0.082453
H	-1.3547098688	-4.2277389049	 2.3870174255	 0.099663
H	-0.9784896745	-2.4794415595	 2.6608548423	 0.09645
H	-3.551297399	-2.6730839397	 1.3221154898	 0.082864
H	-2.2647993925	-3.8062945305	-1.0250563013	 0.113807
H	-2.0668426519	-4.9692574398	 0.349013248	 0.094583
65.3756	121.0577	179.1896	215.0833	333.428	399.9512	419.3482	480.9961	514.7449	613.8961	681.8158	781.9867	796.0183	813.4365	891.1382	902.6238	935.8289	969.3545	980.4271	1019.0075	1037.4551	1067.8794	1069.2299	1079.5292	1094.73	1104.8864	1124.3662	1150.8049	1185.1144	1193.7466	1218.2546	1237.3045	1240.2444	1251.8613	1327.6012	1382.5805	1425.2625	1490.5973	1494.0088	1515.0947	1558.9867	2995.6159	3059.6027	3063.3105	3070.6106	3110.1271	3121.5051	3125.5279	3128.0524	3136.5411	3798.1845
OCC1OC11C2CC1C2	OC[C@H]1O[C@]21[C@H]1C[C@@H]2C1	
InChI=1S/C7H10O2/c8-3-6-7(9-6)4-1-5(7)2-4/h4-6,8H,1-3H2	InChI=1S/C7H10O2/c8-3-6-7(9-6)4-1-5(7)2-4/h4-6,8H,1-3H2/t4-,5+,6-,7-/m1/s1
