21
gdb 89037	3.72036	0.71252	0.69992	2.7277	79.97	-0.2215	0.0311	0.2526	1698.8856	0.181148	-420.410768	-420.400315	-420.399371	-420.448118	37.179	
C	-0.2580535677	 1.425389109	 0.0886812075	-0.31586
N	 0.0123171539	-0.0041868858	 0.1125419256	-0.080778
C	 1.3624713806	-0.4334415024	-0.2350867495	-0.264571
C	 0.8631292804	-0.5794124482	 1.1619000684	 0.018691
C	 1.4646969671	 0.2181385222	 2.3004123049	-0.210286
C	 0.4977972483	 0.3925772344	 3.4770324392	-0.312811
C	 1.0879375756	 1.2627763135	 4.5858655886	 0.407698
N	 0.4940790456	 1.1134706136	 5.807658986	-0.523244
O	 2.0098058051	 2.0341734767	 4.4031727035	-0.356535
H	 0.5864392348	 2.0633511412	 0.3916667551	 0.107518
H	-0.5374879061	 1.707388248	-0.9317549974	 0.123632
H	-1.1091110614	 1.6489233147	 0.7409975458	 0.116978
H	 1.4406303946	-1.2916008086	-0.8981853289	 0.110361
H	 2.1115045204	 0.3402355669	-0.4063997716	 0.105036
H	 0.5183550996	-1.5698940797	 1.4629841256	 0.081495
H	 2.3643591379	-0.301677232	 2.6515159646	 0.110962
H	 1.8045387972	 1.2028799924	 1.9738361495	 0.126917
H	-0.4280523824	 0.8751488095	 3.1362676114	 0.131803
H	 0.1989343861	-0.5815955468	 3.8835744594	 0.106707
H	-0.3231720525	 0.5438376719	 5.9388785944	 0.256692
H	 0.7714321027	 1.7364438996	 6.548558438	 0.259595
17.4502	54.44	103.6048	120.8673	175.8749	201.0879	254.2006	298.4529	319.4661	392.2751	480.9011	497.343	523.8704	610.0599	653.1049	733.9572	771.5702	821.5683	860.442	919.1105	1017.0878	1041.9546	1051.5511	1066.6869	1104.9705	1117.3703	1133.5716	1141.0647	1169.8359	1203.0948	1214.7921	1250.2034	1307.0105	1338.5333	1339.6878	1403.1315	1424.5951	1446.9774	1465.4208	1479.5295	1492.9209	1506.1368	1516.5427	1617.614	1797.2625	2980.9198	3023.266	3042.4419	3060.0844	3063.6591	3081.5411	3084.567	3095.1339	3120.9131	3167.6602	3600.6247	3736.9226
CN1CC1CCC(N)=O	CN1C[C@H]1CCC(=O)N	
InChI=1S/C6H12N2O/c1-8-4-5(8)2-3-6(7)9/h5H,2-4H2,1H3,(H2,7,9)	InChI=1S/C6H12N2O/c1-8-4-5(8)2-3-6(7)9/h5H,2-4H2,1H3,(H2,7,9)/t5-,8?/m1/s1
