16
gdb 29606	3.16202	1.14063	0.85603	2.3231	74.44	-0.2259	0.0056	0.2315	1298.7041	0.123876	-437.905172	-437.896642	-437.895698	-437.939214	30.426	
C	-0.0866090963	 1.4739755669	 0.1631216162	-0.499714
C	-0.0001404646	-0.0145611321	 0.0563900203	 0.123972
C	-0.1101841352	-0.8023863923	-1.0460239713	-0.076308
O	 0.023074474	-2.1194855385	-0.7351022853	-0.145177
C	 0.2348166289	-2.1954781645	 0.6068821081	-0.122955
C	 0.2216223403	-0.9392188027	 1.1326346919	 0.222697
O	 0.4130941502	-0.5366006419	 2.4253942161	-0.211351
C	-0.1308749692	-1.2942455477	 3.4150590406	 0.105849
N	 0.209255071	-1.0870587949	 4.6087848444	-0.427431
H	 0.8413317718	 1.899199195	 0.5597287893	 0.143732
H	-0.2768340172	 1.9257918077	-0.8137140447	 0.126484
H	-0.8910176022	 1.7784153401	 0.8412383108	 0.137459
H	-0.2803606748	-0.5819350421	-2.0872155581	 0.140957
H	 0.3937406908	-3.1774120335	 1.0175121462	 0.143977
H	-0.8550636319	-2.0254143366	 3.0357926003	 0.101792
H	-0.3108544356	-1.7028304729	 5.2305136251	 0.236017
60.4753	107.268	115.2746	165.737	239.7493	256.8528	378.6742	469.7616	492.2021	614.4909	658.3732	668.5302	732.888	769.9313	806.9843	835.0945	901.4944	1014.069	1042.7393	1053.8353	1067.8645	1078.6632	1193.8622	1204.7045	1253.3732	1275.802	1329.8832	1403.5969	1409.2882	1423.168	1479.7552	1496.6433	1588.7993	1658.0577	1747.0782	3037.5335	3050.9721	3090.8726	3119.4355	3273.3356	3287.4272	3520.9396
CC1=COC=C1OC=N	Cc1cocc1O[CH][NH]	
InChI=1S/C6H7NO2/c1-5-2-8-3-6(5)9-4-7/h2-4,7H,1H3	InChI=1S/C6H7NO2/c1-5-2-8-3-6(5)9-4-7/h2-4,7H,1H3
