25
gdb 121231	2.92309	0.77918	0.66225	1.3154	89.57	-0.26	0.0781	0.3381	1801.4765	0.228252	-389.482007	-389.47128	-389.470335	-389.51837	39.219	
C	 0.3464031084	 1.522640565	-0.1808984195	-0.380968
C	 0.0933676049	 0.0561943772	 0.1785633154	-0.164248
C	-1.2634026749	-0.4627292163	-0.3156614304	-0.196502
C	-1.5082524413	-1.9231506747	 0.0508936094	 0.029558
C	-1.7177428044	-2.3190032729	 1.5418109176	-0.227125
C	-2.7740733495	-3.3592242456	 1.0815867914	-0.218685
C	-2.8637622521	-2.629022873	-0.2886612979	-0.008277
C	-4.0724778343	-1.7136065661	-0.4006812221	-0.085461
O	-5.2237306409	-2.5429105214	-0.5003903253	-0.42453
H	 1.3205549675	 1.8625905821	 0.1846718663	 0.11023
H	 0.3270093159	 1.6737033102	-1.2661406778	 0.112464
H	-0.418454319	 2.175094068	 0.2552854993	 0.112014
H	 0.8923864923	-0.5687145424	-0.2423255387	 0.093418
H	 0.153177217	-0.0697630791	 1.2672640571	 0.099602
H	-2.0593417318	 0.1689795386	 0.1017781351	 0.087929
H	-1.3184944217	-0.3424986719	-1.4069897132	 0.08997
H	-0.694715378	-2.5292001087	-0.3668904425	 0.068347
H	-0.8503534205	-2.6872737178	 2.0952303365	 0.092085
H	-2.1660829215	-1.5020569222	 2.1174000784	 0.09395
H	-2.3488360508	-4.3616120782	 0.9850797034	 0.096358
H	-3.7029638047	-3.4312684718	 1.6514313536	 0.103731
H	-2.8496203412	-3.2742668284	-1.1723049023	 0.068537
H	-4.1400710671	-1.0553436882	 0.4809223714	 0.080467
H	-3.9749231139	-1.0644976029	-1.2854852275	 0.08337
H	-5.9990005584	-1.9758552096	-0.5442865977	 0.283765
76.7921	77.9547	93.3545	120.8324	142.6004	211.8386	243.7404	256.9749	294.3983	312.7911	369.7699	454.9229	519.6547	691.7663	743.9426	771.1535	840.7986	859.1692	889.6931	904.6462	924.5824	955.5528	961.9905	1014.7769	1042.4714	1064.4804	1067.5588	1105.1896	1135.7993	1153.7928	1172.0389	1205.0771	1235.7027	1240.3522	1256.6934	1263.7679	1271.5467	1289.143	1296.1649	1316.6495	1330.6078	1366.9024	1376.3978	1398.3445	1411.332	1459.6266	1480.9431	1485.9735	1493.2511	1498.7437	1500.9415	1509.8874	1522.2114	2960.8714	2988.4805	3001.8987	3015.3467	3018.9575	3027.4729	3033.6168	3044.32	3054.7711	3057.9344	3067.1708	3093.7895	3095.3322	3099.5702	3117.755	3828.4438
CCCC1CCC1CO	CCC[C@H]1CC[C@H]1CO	
InChI=1S/C8H16O/c1-2-3-7-4-5-8(7)6-9/h7-9H,2-6H2,1H3	InChI=1S/C8H16O/c1-2-3-7-4-5-8(7)6-9/h7-9H,2-6H2,1H3/t7-,8-/m0/s1
