18
gdb 19481	3.90598	1.70046	1.62283	1.7461	67.09	-0.2443	0.0784	0.3226	886.4823	0.154921	-384.909292	-384.902074	-384.90113	-384.940961	27.393	
C	-0.1987112188	 1.3658589039	 0.0719115304	-0.241648
O	 0.2964247098	 0.0629776814	-0.1609694286	-0.246273
C	 0.7825614991	-0.5610749451	 0.9865651787	 0.155647
C	-0.1552259033	-1.3453601428	 1.9541879466	 0.0264
C	-0.9884246764	-2.2321903935	 1.0096820049	-0.214225
C	 0.1891692367	-2.7527114234	 0.1250510103	-0.211757
C	 1.3260462908	-1.9938395068	 0.8364243965	 0.019086
O	 1.0029977047	-2.1841408549	 2.2500698118	-0.299339
H	 0.5770751386	 2.0214781996	 0.4952698593	 0.111076
H	-0.5165980966	 1.7694273626	-0.8919247167	 0.130957
H	-1.0594945689	 1.3625046281	 0.75652909	 0.111102
H	 1.47769195	 0.0749036368	 1.5483434368	 0.080141
H	-0.6231316231	-0.911503306	 2.837733752	 0.074546
H	-1.4968284014	-3.0279387248	 1.5573482712	 0.104174
H	-1.7255248059	-1.6595007069	 0.442093357	 0.104446
H	 0.3320341845	-3.8324815202	 0.1973733643	 0.103904
H	 0.0939832953	-2.4687147211	-0.92477116	 0.11284
H	 2.3614439349	-2.2159334768	 0.5800583555	 0.078922
75.0345	172.3781	181.741	261.5965	310.3996	428.751	521.0374	567.4978	745.8463	807.4292	839.5573	859.9569	869.7588	873.8839	924.1902	989.9743	998.3485	1006.1986	1025.7596	1067.8878	1130.0177	1158.0549	1179.8549	1186.9902	1206.0329	1225.1723	1242.3483	1253.856	1272.3483	1306.126	1311.078	1342.9352	1386.4988	1467.7716	1481.8404	1488.7192	1492.8734	1507.4217	2982.1975	3032.1468	3039.958	3071.2034	3080.0139	3118.5444	3120.4639	3123.7832	3130.9695	3136.0758
COC1C2CCC1O2	CO[C@H]1[C@H]2CC[C@@H]1O2	
InChI=1S/C6H10O2/c1-7-6-4-2-3-5(6)8-4/h4-6H,2-3H2,1H3	InChI=1S/C6H10O2/c1-7-6-4-2-3-5(6)8-4/h4-6H,2-3H2,1H3/t4-,5+,6+
