17
gdb 72410	3.00058	1.62828	1.37228	1.5097	67.22	-0.2432	-0.0262	0.217	972.8212	0.135968	-458.993958	-458.986491	-458.985547	-459.025679	29.373	
C	-0.0338977162	 1.4644032161	 0.1052527795	-0.470829
C	 0.0282395932	-0.0302927816	-0.0499355363	 0.463893
C	 0.6582793055	-0.6210476603	-1.3302696356	-0.380076
C	 0.0784946141	-2.0437565365	-1.2659833507	 0.425708
O	 0.2886478955	-2.9776831038	-1.9887913584	-0.311979
C	-0.8269829479	-1.9877003864	-0.0222291625	-0.082969
C	 0.1188477429	-1.9442894347	 1.1990273192	-0.103559
O	 0.6802473107	-0.6300986256	 1.0818552779	-0.305517
O	-1.2699855414	-0.6263815986	-0.0558415553	-0.275212
H	 0.9773960867	 1.8738839318	 0.162394433	 0.137592
H	-0.549588777	 1.9126606146	-0.7472267905	 0.132049
H	-0.569426972	 1.7149305727	 1.0234176382	 0.140916
H	 0.3062154853	-0.1028608898	-2.2278358947	 0.136975
H	 1.7498209101	-0.6332138174	-1.33000685	 0.139552
H	-1.6537142347	-2.6927249093	 0.0083765809	 0.111733
H	-0.4389795289	-2.0304369962	 2.1380648754	 0.118326
H	 0.9053960041	-2.705726045	 1.16928599	 0.123397
113.909	188.1535	232.1711	274.687	314.9639	404.4241	459.546	512.0903	584.5618	631.169	655.3592	713.5321	800.5755	829.3123	870.2635	904.917	914.4513	940.4516	991.9681	1025.6912	1038.6709	1089.4675	1122.1284	1177.903	1180.1257	1199.8466	1228.9388	1250.797	1292.6564	1337.3979	1363.5589	1421.741	1440.4714	1480.0536	1486.7064	1519.1505	1874.0235	3034.1638	3058.7086	3065.0893	3082.8039	3127.7813	3138.3646	3143.0267	3167.1286
CC12CC(=O)C(CO1)O2	C[C@@]12CC(=O)[C@@H](CO1)O2	
InChI=1S/C6H8O3/c1-6-2-4(7)5(9-6)3-8-6/h5H,2-3H2,1H3	InChI=1S/C6H8O3/c1-6-2-4(7)5(9-6)3-8-6/h5H,2-3H2,1H3/t5-,6-/m1/s1
