25
gdb 63457	2.56142	1.28161	1.02076	0.1426	93.01	-0.2439	0.0877	0.3315	1322.5998	0.22709	-352.339331	-352.32888	-352.327936	-352.374009	40.37	
C	-0.0870896456	 1.4609285735	-0.1214704555	-0.451056
C	 0.0744953589	-0.0429275971	 0.0329879322	 0.305208
C	-1.0600653398	-0.8027254443	-0.6357045882	-0.453446
C	 1.4671185303	-0.6341151311	-0.0325575912	-0.382248
C	 0.7228933393	-0.6273358593	 1.2887033297	 0.288068
C	 1.2140596934	 0.3128089601	 2.3817062169	-0.451341
C	 0.191042475	-1.9126018981	 1.8790942536	-0.043907
C	 0.3747933671	-3.2843990038	 1.2805557665	-0.27176
C	 1.1307721643	-2.9050823823	 2.5265331241	-0.273585
H	 0.7681893991	 2.0252416521	 0.2551582861	 0.112116
H	-0.2031893036	 1.7179242953	-1.1812846923	 0.111657
H	-0.9822844506	 1.8215296665	 0.3999664617	 0.110922
H	-1.1115657743	-0.5479280379	-1.701195367	 0.107265
H	-0.9458472817	-1.8842201463	-0.5550173186	 0.125946
H	-2.0267064205	-0.5350068684	-0.1911251379	 0.108305
H	 1.5998910638	-1.5706958109	-0.5644419584	 0.103377
H	 2.3076344178	 0.0461687801	-0.1351465732	 0.099112
H	 1.6689532348	 1.222981465	 1.986104595	 0.110022
H	 0.392129629	 0.6115116656	 3.0437505398	 0.110005
H	 1.9656195236	-0.1883453849	 3.0009751572	 0.115491
H	-0.7505825877	-1.7759834386	 2.4087688761	 0.080372
H	-0.4471350662	-3.987569455	 1.3649127746	 0.108412
H	 0.9435381373	-3.3841698301	 0.3631173023	 0.111955
H	 2.1952564879	-2.7226684231	 2.4201839185	 0.111956
H	 0.8476264586	-3.3570268172	 3.4707436481	 0.107155
77.9203	133.8916	164.8977	171.128	186.7256	200.2975	269.2515	297.1435	327.4416	373.1382	379.9551	439.9575	480.8802	526.813	641.6021	700.5763	787.398	829.1337	842.7162	897.8702	917.8273	922.1447	942.4994	965.2326	975.2801	1024.3651	1040.0181	1059.3437	1062.4983	1082.6539	1087.0674	1121.702	1144.6168	1153.6462	1191.3254	1201.4301	1218.6246	1257.1241	1301.8793	1385.1094	1403.5189	1406.5304	1413.5101	1425.8576	1464.4993	1480.1375	1487.745	1490.7168	1491.9272	1498.527	1504.0523	1508.0345	1519.395	3020.1322	3024.1375	3029.4161	3070.851	3075.4111	3084.5861	3111.2476	3114.2206	3118.0329	3128.2	3129.9508	3133.4273	3138.1959	3199.2471	3205.6977	3220.8146
CC1(C)CC1(C)C1CC1	CC1(C)C[C@]1(C)C1CC1	
InChI=1S/C9H16/c1-8(2)6-9(8,3)7-4-5-7/h7H,4-6H2,1-3H3	InChI=1S/C9H16/c1-8(2)6-9(8,3)7-4-5-7/h7H,4-6H2,1-3H3/t9-/m1/s1
