15
gdb 77130	2.90571	1.28244	1.10633	5.0094	62.52	-0.272	-0.0607	0.2113	1117.3745	0.11041	-494.932869	-494.924242	-494.923298	-494.967236	30.579	
C	-0.0192027554	 1.4780782831	-0.5849950922	-0.493165
C	-0.2095594971	 0.4139266183	 0.4624471001	 0.429193
O	 0.587125475	 0.2091880837	 1.3547572934	-0.323633
C	-1.4711104804	-0.445781204	 0.3832480496	-0.04732
O	-1.1090088408	-1.8245679089	 0.0766480629	-0.245616
C	-1.3942383292	-2.2663516913	 1.3598246398	 0.407192
O	-1.1793368708	-3.3364499939	 1.8174191151	-0.304111
C	-2.0082232712	-0.9115810253	 1.7852726728	-0.036728
O	-1.6204172596	-0.2953562651	 2.9557418113	-0.408317
H	 0.911335506	 2.0193249224	-0.4135773437	 0.156011
H	-0.0103219804	 1.019967044	-1.5811121383	 0.161105
H	-0.8663036132	 2.1744367529	-0.5670925934	 0.153458
H	-2.2039925061	-0.0751662909	-0.3360581767	 0.101188
H	-3.1005611337	-0.9728777628	 1.7820038162	 0.140448
H	-0.654020603	-0.2257562222	 2.9333421931	 0.310293
35.0443	82.2992	155.3997	212.1123	241.2419	278.8714	317.2653	410.2681	494.1667	558.1074	600.1354	646.9282	693.894	754.2873	819.5689	905.5022	922.8412	968.3662	998.2412	1043.6854	1096.3095	1182.4197	1184.8924	1198.3129	1276.4051	1304.5086	1372.3203	1392.145	1455.086	1458.2791	1468.8733	1793.0841	1955.2948	3033.0444	3080.4597	3091.7349	3100.082	3159.6866	3723.1501
CC(=O)C1OC(=O)C1O	CC(=O)[C@H]1OC(=O)[C@H]1O	
InChI=1S/C5H6O4/c1-2(6)4-3(7)5(8)9-4/h3-4,7H,1H3	InChI=1S/C5H6O4/c1-2(6)4-3(7)5(8)9-4/h3-4,7H,1H3/t3-,4+/m0/s1
