15
gdb 54749	2.81366	1.38177	1.29628	5.0247	65.49	-0.244	-0.0054	0.2386	1021.7947	0.113304	-453.964974	-453.957055	-453.956111	-453.998515	29.568	
N	 0.2078297043	 0.8482223934	 0.6759941959	-0.526411
C	-0.0108480712	 0.0760978433	-0.4294797954	 0.410516
O	 0.7535332446	 0.0565001864	-1.3763483736	-0.36664
C	-1.3082400927	-0.7028188938	-0.3859955482	-0.150472
C	-1.6621813009	-1.7376828995	-1.4021536262	-0.024689
N	-0.4943659835	-2.4963874301	-1.8650307005	-0.333998
C	-0.1774363511	-2.9027738472	-0.5494677458	 0.425941
O	 0.7230216121	-3.5536443677	-0.107768444	-0.331425
C	-1.400635857	-2.1904208911	 0.0222155195	-0.250663
H	 1.1105428337	 1.2904513922	 0.7543848263	 0.266999
H	-0.3096350719	 0.6919777912	 1.5246674177	 0.263685
H	-2.1510180463	-0.1319357277	 0.0001659182	 0.117214
H	-2.5914070205	-1.7579434395	-1.9557929534	 0.118915
H	 0.2143414046	-2.0346690964	-2.426018433	 0.262678
H	-2.0803218641	-2.5293678936	 0.7915546326	 0.118349
25.8327	107.014	199.7474	275.3958	346.5623	365.1639	456.1128	464.9572	549.1249	620.2908	684.0575	694.0021	758.578	782.3871	819.1242	843.0108	903.9636	929.3402	945.7377	1041.5391	1058.49	1076.5803	1107.0708	1135.004	1146.9436	1259.4513	1293.2894	1330.838	1345.7921	1438.6154	1620.7633	1787.3119	1905.3336	3131.3748	3206.1785	3221.469	3549.8667	3588.6901	3719.7245
NC(=O)C1C2NC(=O)C12	NC(=O)[C@H]1[C@H]2NC(=O)[C@@H]12	
InChI=1S/C5H6N2O2/c6-4(8)1-2-3(1)7-5(2)9/h1-3H,(H2,6,8)(H,7,9)	InChI=1S/C5H6N2O2/c6-4(8)1-2-3(1)7-5(2)9/h1-3H,(H2,6,8)(H,7,9)/t1-,2+,3-/m1/s1
