18
gdb 72204	3.37142	1.81794	1.57405	1.1092	73.41	-0.2186	0.0675	0.2861	890.2444	0.150289	-401.886793	-401.880376	-401.879432	-401.917056	27.688	
O	-0.0746285051	 1.3238035369	-0.0144957505	-0.479523
C	 0.0433941733	-0.0625379734	 0.0006002722	 0.404686
C	 1.2382163297	-0.739584363	-0.6503548791	-0.303721
C	 0.9793074007	-2.2130126739	-0.3213303472	-0.007261
C	-0.1347240434	-2.7893818033	-1.227257564	-0.245788
C	-1.1085486549	-2.2856720308	-0.1507751146	 0.01321
C	-1.2994221125	-0.775899076	 0.0168953253	-0.142621
C	-0.3546966732	-0.8432658073	 1.2172191345	-0.110227
N	 0.004082301	-2.2481703575	 0.8838650321	-0.157003
H	 0.6517855558	 1.6900754403	 0.5032642577	 0.283408
H	 1.3059159795	-0.5645591077	-1.7284162926	 0.108548
H	 2.1629858883	-0.3659084043	-0.1901529595	 0.087398
H	 1.8810079735	-2.8081213284	-0.1740738529	 0.077224
H	-0.218501112	-2.3875855816	-2.2395079788	 0.100061
H	-0.1185245018	-3.8811146492	-1.2653878935	 0.108258
H	-1.9900326774	-2.8810554264	 0.1032824025	 0.075799
H	-2.2079844658	-0.1998311742	-0.1103248895	 0.095881
H	-0.4263697856	-0.4693706202	 2.231997708	 0.091672
214.7668	294.0659	352.9301	385.4231	414.0034	475.3655	571.7527	647.1946	675.898	723.0143	766.9055	838.0066	850.566	865.1088	890.0509	940.3064	951.7901	967.0342	989.2585	997.4066	1020.8683	1046.5857	1070.0416	1080.5981	1118.0832	1138.4782	1170.1776	1206.0821	1220.1281	1244.1207	1255.1142	1259.7635	1302.2379	1316.6812	1352.3831	1353.4657	1428.1456	1479.7132	1501.1468	3014.6178	3059.0416	3068.7041	3081.718	3101.0311	3121.5839	3174.2787	3190.0775	3783.5144
OC12CC3CC4C1C2N34	O[C@]12C[C@@H]3C[C@@H]4[C@H]1[C@H]2N34	
InChI=1S/C7H9NO/c9-7-2-3-1-4-5(7)6(7)8(3)4/h3-6,9H,1-2H2	InChI=1S/C7H9NO/c9-7-2-3-1-4-5(7)6(7)8(3)4/h3-6,9H,1-2H2/t3-,4+,5-,6+,7+/m0/s1
