25
gdb 93824	2.2987	1.32705	1.0185	1.1823	88.89	-0.2417	0.08	0.3217	1331.1472	0.229465	-389.518831	-389.509067	-389.508122	-389.552639	38.247	
C	-0.0699432261	 1.5473238326	 0.0621353726	-0.402222
C	-0.0029958601	 0.0291305375	-0.011854288	 0.13893
C	 0.6754129407	-0.4852157953	-1.2879511934	-0.196188
C	 0.8598530606	-2.012423871	-1.2525954836	 0.021517
C	 1.5460344788	-2.5379226073	-2.5167901206	-0.414452
C	 1.5537757539	-2.4412433303	 0.0653474626	 0.012813
C	 3.0413067796	-2.0707799195	 0.1597790223	-0.395196
C	 0.7659345527	-1.8281241861	 1.233416567	-0.084635
O	 0.6971263179	-0.415165635	 1.1463464488	-0.260473
H	 0.9378320947	 1.9740760993	 0.0414421709	 0.120586
H	-0.6348418502	 1.9496892203	-0.7842556069	 0.111001
H	-0.5560487759	 1.8638618523	 0.9888665159	 0.121021
H	-1.0297615967	-0.3814003683	 0.0228481791	 0.056176
H	 0.0740476181	-0.2007422523	-2.1604540822	 0.088441
H	 1.6478337601	 0.0119060139	-1.3985829106	 0.097239
H	-0.1474327015	-2.4554768691	-1.2196985206	 0.065126
H	 2.5280573211	-2.0779880998	-2.6674967373	 0.117593
H	 1.688864939	-3.6233456377	-2.4700252468	 0.108523
H	 0.9430898823	-2.3183871178	-3.4045268914	 0.109195
H	 1.4676041854	-3.5337710969	 0.1492960348	 0.062717
H	 3.1826839883	-0.9867304702	 0.1679972839	 0.126903
H	 3.4685411695	-2.4613927606	 1.0896439573	 0.109687
H	 3.6206005905	-2.4878937748	-0.6682706221	 0.111223
H	-0.253290546	-2.2524770771	 1.2586778764	 0.077244
H	 1.2459785634	-2.0499662968	 2.1922765516	 0.097232
106.916	152.2803	198.2793	214.9712	238.4392	242.6857	276.4384	280.0809	358.1889	390.8072	418.3439	478.3304	495.3395	541.6042	670.2942	762.8257	825.2983	866.9385	898.7445	926.3501	953.6458	968.4943	1001.6717	1011.4176	1044.6499	1064.1952	1079.5997	1127.949	1149.4387	1157.7663	1188.3097	1214.5111	1237.757	1287.6722	1298.2495	1317.6659	1348.6003	1375.3174	1377.4489	1386.2402	1396.9252	1401.4056	1409.8504	1414.1505	1427.2165	1476.6752	1483.3979	1490.7384	1496.7023	1498.3199	1501.7729	1507.434	1512.5445	2923.7634	2949.4884	2980.3243	3008.0649	3019.0603	3028.0305	3040.7898	3041.7218	3060.5449	3069.2681	3092.7288	3097.6935	3104.4814	3113.5124	3120.1412	3123.1476
CC1CC(C)C(C)CO1	C[C@H]1C[C@@H](C)[C@@H](C)CO1	
InChI=1S/C8H16O/c1-6-4-8(3)9-5-7(6)2/h6-8H,4-5H2,1-3H3	InChI=1S/C8H16O/c1-6-4-8(3)9-5-7(6)2/h6-8H,4-5H2,1-3H3/t6-,7+,8+/m1/s1
