19
gdb 88492	2.2754	1.41791	1.12115	2.0643	82.19	-0.241	0.0471	0.2881	1184.2531	0.156564	-385.822035	-385.812706	-385.811762	-385.85629	35.136	
C	-1.7912819955	 0.5799026159	 1.2962331041	-0.436147
C	-0.9226261222	-0.639381755	 1.131225323	 0.058438
O	 0.1810654829	-0.5763511921	 0.2114056077	-0.257977
C	 0.4712167026	-0.781613632	 1.5886558849	 0.013161
C	 1.3025151494	 0.2414392353	 2.3245308355	 0.145348
C	 1.5074208866	-0.0272385272	 3.814470475	-0.293134
C	 2.6430819509	-0.2556551449	 2.8682043488	-0.293065
C	 1.2717696047	 1.6123353567	 1.8900757612	 0.215529
C	 1.3060834094	 2.768361823	 1.5586500441	-0.416446
H	-1.2015253398	 1.4893023318	 1.4051944944	 0.150584
H	-2.4469061337	 0.6909590433	 0.4257792924	 0.125712
H	-2.4296203135	 0.4628867313	 2.1791581533	 0.1172
H	-1.4831181938	-1.5745320307	 1.0485232043	 0.085371
H	 0.7946160134	-1.7991740778	 1.8273464247	 0.079555
H	 1.5418407529	 0.8347384537	 4.4691090527	 0.133746
H	 0.9966425292	-0.8910192353	 4.2271559286	 0.121863
H	 2.9204457955	-1.275896301	 2.6254211637	 0.124291
H	 3.4626228482	 0.4521385186	 2.8662642598	 0.134088
H	 1.322345133	 3.7831391264	 1.2469257116	 0.191881
42.372	138.5497	159.4189	189.9617	226.4936	237.8995	288.7394	385.8313	406.8966	489.8267	558.7445	574.5516	596.521	656.3061	706.8731	778.4033	787.1472	843.9772	869.1056	937.1832	960.9028	975.043	1006.9182	1040.9171	1065.0423	1083.4789	1102.4119	1167.4276	1179.8116	1195.912	1257.5426	1291.2577	1354.7162	1399.2203	1425.6541	1466.3107	1469.7911	1494.3577	1496.0574	1510.4238	2233.6106	3038.1396	3054.8527	3072.5195	3094.6817	3138.465	3142.0452	3162.1462	3225.9433	3240.261	3503.0239
CC1OC1C1(CC1)C#C	C[C@H]1O[C@H]1C1(CC1)C#C	
InChI=1S/C8H10O/c1-3-8(4-5-8)7-6(2)9-7/h1,6-7H,4-5H2,2H3	InChI=1S/C8H10O/c1-3-8(4-5-8)7-6(2)9-7/h1,6-7H,4-5H2,2H3/t6-,7-/m1/s1
