21
gdb 73493	2.7578	1.77304	1.42467	1.4986	80.7	-0.2257	0.0872	0.313	1010.2011	0.185313	-387.098461	-387.090976	-387.090031	-387.129951	30.748	
C	-0.0112842465	 1.4874941682	 0.0731915487	-0.49533
C	 0.0399192684	-0.0186352803	-0.027316454	 0.316954
C	 1.0770531764	-0.6725279881	-0.9471340148	-0.283975
C	 0.3223999574	-1.8181850318	-1.6632476922	-0.202486
C	-0.8375732938	-2.1979166809	-0.7154706736	-0.061146
C	-0.3585020191	-3.0238924735	 0.4914428548	-0.076504
O	 0.2552961804	-2.0858885744	 1.3841921657	-0.261402
C	-0.3688923437	-0.8412622376	 1.1814232342	 0.056228
C	-1.2297509853	-0.864138182	-0.0457619491	-0.162195
H	 0.938942981	 1.8920620357	 0.4409267771	 0.120462
H	-0.2123928284	 1.9455190602	-0.9026128303	 0.114955
H	-0.7979132936	 1.8164616393	 0.7606248547	 0.112712
H	 1.4755159493	 0.0559503789	-1.6597359765	 0.092291
H	 1.9209216909	-1.0570769702	-0.3650660283	 0.11219
H	-0.0980379587	-1.4470954974	-2.6045494311	 0.095533
H	 0.9653743547	-2.6704172476	-1.9077296499	 0.091656
H	-1.664333352	-2.6872892155	-1.2353973443	 0.070407
H	-1.2074440601	-3.5167271751	 0.9896506379	 0.089166
H	 0.3874638676	-3.7838498142	 0.2386161825	 0.103454
H	-0.6571194798	-0.3386382955	 2.1002020448	 0.086387
H	-2.232266175	-0.4565653981	-0.0947086662	 0.080645
149.5251	203.8001	209.451	273.0631	306.7947	378.0275	491.5469	537.0665	567.4278	720.1996	756.8974	775.1251	799.3124	840.2083	848.9165	901.0595	926.7025	950.4901	966.8974	977.681	987.6896	1027.4014	1054.5866	1070.1759	1086.0148	1120.8101	1132.2293	1173.7699	1183.2406	1220.2114	1249.7663	1269.3771	1282.9502	1293.9569	1303.2898	1331.4282	1350.2591	1383.0783	1415.9573	1419.0406	1483.6034	1490.4569	1498.7155	1500.6124	1515.8174	2985.049	3019.0531	3035.5274	3047.5436	3072.8369	3079.1716	3080.9404	3086.6196	3091.0393	3094.0883	3146.6206	3179.8705
CC12CCC3COC1C23	C[C@@]12CC[C@H]3CO[C@@H]1[C@@H]23	
InChI=1S/C8H12O/c1-8-3-2-5-4-9-7(8)6(5)8/h5-7H,2-4H2,1H3	InChI=1S/C8H12O/c1-8-3-2-5-4-9-7(8)6(5)8/h5-7H,2-4H2,1H3/t5-,6-,7+,8-/m0/s1
