14
gdb 66400	2.34419	1.55833	1.29399	6.2999	66.71	-0.2959	-0.0294	0.2665	1016.8226	0.099847	-436.692831	-436.684829	-436.683885	-436.725634	28.832	
C	-0.0583674335	 1.5971022115	-0.0125677808	-0.500254
C	 0.049219051	 0.1028382494	-0.0296899386	 0.077902
C	 0.6675657264	-0.9168624676	-0.9492116627	 0.054933
O	 1.1281078755	-1.7264728984	 0.1535202953	-0.251673
C	 0.6510656836	-0.7746507256	 1.0560765852	 0.442561
O	 0.8043341795	-0.7399999573	 2.2282679912	-0.30197
C	-0.8286262619	-0.8175554553	-0.9179049324	-0.259918
C	-1.6729402584	-1.8639025179	-0.4033806089	 0.318857
N	-2.3683610275	-2.6948839037	-0.0013558607	-0.325318
H	 0.885075002	 2.0498072525	 0.3059382991	 0.150466
H	-0.3084641349	 1.9857340134	-1.0037245395	 0.13518
H	-0.8389741149	 1.9171062395	 0.6841036665	 0.158282
H	 1.3052120928	-0.8361043041	-1.8181931836	 0.148493
H	-1.2613691996	-0.2722031966	-1.75374554	 0.152459
101.8213	131.5717	153.0004	199.3939	243.8213	310.4965	389.6604	481.8243	529.9315	626.5322	666.2197	734.7281	764.3477	828.9423	879.6717	912.2528	938.0211	980.1556	1029.1521	1067.3245	1101.0133	1108.0652	1237.918	1260.1958	1324.6994	1419.4927	1452.5737	1482.8844	1494.4497	1959.5747	2363.0893	3044.4804	3115.3526	3119.1548	3146.9701	3228.9952
CC12C(OC1=O)C2C#N	C[C@@]12[C@@H](OC1=O)[C@H]2C#N	
InChI=1S/C6H5NO2/c1-6-3(2-7)4(6)9-5(6)8/h3-4H,1H3	InChI=1S/C6H5NO2/c1-6-3(2-7)4(6)9-5(6)8/h3-4H,1H3/t3-,4+,6-/m1/s1
