22
gdb 6527	3.10978	1.50172	1.23339	1.3621	78.9	-0.2563	0.0737	0.33	1097.9562	0.197664	-350.19522	-350.185139	-350.184195	-350.229284	37.407	
C	-0.0304010927	 1.4964052413	-0.0730703734	-0.447844
C	-0.0047374318	-0.0215562549	 0.0198494536	 0.281485
C	-1.2342027101	-0.6370750458	-0.6337034706	-0.453629
C	 1.3223236622	-0.7339071294	-0.1280939156	-0.357606
C	 0.6545456533	-0.6803659976	 1.231249843	 0.331878
C	 1.2826999236	 0.1700176098	 2.325864571	-0.466003
C	 0.0865722303	-1.9715670769	 1.785996148	-0.148562
O	 1.1613428219	-2.7230848859	 2.3471526771	-0.420921
H	 0.8746526488	 1.9630435143	 0.3190776682	 0.114582
H	-0.1308913541	 1.8064303836	-1.1199681784	 0.112194
H	-0.8851074257	 1.912929819	 0.4738295602	 0.111195
H	-1.3365128568	-0.2590518511	-1.6578740232	 0.112815
H	-1.186972757	-1.7257770394	-0.6984414145	 0.114869
H	-2.1520293868	-0.3700970864	-0.0955072385	 0.110966
H	 1.3377273666	-1.6862571815	-0.6492354524	 0.10483
H	 2.2176471467	-0.1377269449	-0.2762357123	 0.101795
H	 1.876544381	 0.9956547251	 1.9300076078	 0.109983
H	 0.5187608789	 0.5936663214	 2.9898677254	 0.105073
H	 1.9434471058	-0.4553136107	 2.9319513791	 0.137119
H	-0.6668970619	-1.7397285731	 2.5573716292	 0.080821
H	-0.4140458979	-2.5539397134	 1.0028730244	 0.080654
H	 0.7855205056	-3.4813510334	 2.8035932718	 0.284304
87.9141	136.239	160.3689	174.7802	190.3955	238.2606	249.2897	306.3342	337.4417	369.7142	385.3896	401.9398	451.7149	537.5664	692.5445	720.2612	880.4162	910.7971	938.7319	955.1241	967.4076	975.1579	1034.1439	1045.9573	1052.7975	1062.8133	1109.8753	1153.7017	1203.5678	1223.4165	1250.8257	1283.3193	1320.9099	1394.6565	1406.2169	1412.0542	1425.3275	1458.7849	1478.9497	1489.0499	1491.3622	1493.0928	1504.6298	1506.6534	1519.4551	1523.3725	2961.7119	3020.3757	3024.6136	3029.7793	3034.7572	3073.6141	3077.7381	3100.664	3117.4368	3120.2291	3122.9495	3135.7528	3201.6381	3830.2642
CC1(C)CC1(C)CO	CC1(C)C[C@]1(C)CO	
InChI=1S/C7H14O/c1-6(2)4-7(6,3)5-8/h8H,4-5H2,1-3H3	InChI=1S/C7H14O/c1-6(2)4-7(6,3)5-8/h8H,4-5H2,1-3H3/t7-/m1/s1
