21
gdb 83631	2.2345	1.65133	1.39872	2.7606	77.7	-0.2362	0.0643	0.3005	1067.8424	0.181362	-424.192514	-424.183394	-424.18245	-424.225841	35.154	
C	 0.2492707275	 1.4904149562	 0.1690631837	-0.432275
C	 0.0748939991	-0.0160751341	 0.0257198801	 0.283701
C	-1.3725269605	-0.392130473	-0.2973744844	-0.44759
C	 1.0808315419	-0.7436329387	-0.9412540471	 0.052264
O	 2.0179677067	 0.1285550809	-1.5345748142	-0.417676
C	 1.5768334985	-1.6460843132	 0.2303218175	-0.136616
C	 2.6966056208	-1.0230126546	 1.0769961467	-0.079825
O	 1.7471225448	-0.2953621669	 1.8936489183	-0.289654
C	 0.6306220551	-0.8813367403	 1.1984291705	 0.084296
H	 1.2641116434	 1.74518858	 0.475339049	 0.136353
H	 0.0379188691	 1.994989893	-0.7788602477	 0.113166
H	-0.4412875275	 1.8809474425	 0.9249898987	 0.105304
H	-1.6791973442	 0.0322884828	-1.2598195087	 0.117765
H	-1.5067966319	-1.4789708182	-0.3553876273	 0.108566
H	-2.0538608336	-0.0142297097	 0.4727649668	 0.116472
H	 0.5536117369	-1.3238711694	-1.7111427413	 0.060199
H	 2.5775532254	-0.3832019211	-2.1274472775	 0.284921
H	 1.5832491015	-2.7250713107	 0.0799357369	 0.070402
H	 3.2648976966	-1.7422741763	 1.6794332233	 0.096652
H	 3.3852060669	-0.3575760662	 0.5457173498	 0.108996
H	-0.0923095365	-1.3371584329	 1.8822166269	 0.064577
73.1547	181.5282	219.6672	242.6219	245.3479	259.6531	268.2496	302.7966	327.4138	471.0605	485.8622	556.9624	612.5406	756.0706	794.6948	848.892	870.2235	900.6839	958.6252	968.562	991.625	1002.2756	1008.7395	1032.076	1081.9267	1126.0042	1148.2398	1169.2212	1183.8753	1206.4333	1226.1752	1248.5121	1267.8484	1284.4419	1308.72	1335.8642	1362.615	1399.695	1408.9982	1430.5241	1479.9565	1484.8866	1500.0683	1505.9652	1514.4113	2992.9539	3018.7054	3019.6382	3037.5261	3057.5227	3075.2781	3084.3061	3094.6316	3100.5806	3113.6315	3146.2353	3814.1936
CC1(C)C(O)C2COC12	CC1(C)[C@@H](O)[C@H]2CO[C@@H]12	
InChI=1S/C7H12O2/c1-7(2)5(8)4-3-9-6(4)7/h4-6,8H,3H2,1-2H3	InChI=1S/C7H12O2/c1-7(2)5(8)4-3-9-6(4)7/h4-6,8H,3H2,1-2H3/t4-,5+,6-/m1/s1
