17
gdb 126805	3.0727	1.27011	0.97432	2.189	71.52	-0.2026	0.0364	0.239	1209.7214	0.13578	-455.156301	-455.147118	-455.146174	-455.190819	33.084	
C	-0.1063624895	 1.556587244	-0.030401628	-0.376622
C	 0.0521309631	 0.0353097943	-0.0169758436	-0.144
N	 0.7471197513	-0.466241205	-1.1891330988	-0.022179
N	 0.0861932619	-0.6275438749	-2.367424073	-0.287841
C	 1.0090484418	-1.0509757351	-3.2286804196	-0.080549
C	 2.2773027162	-1.1428945143	-2.6217982114	 0.046709
O	 3.4962493794	-1.5874182818	-3.085408274	-0.45888
C	 2.0612207391	-0.7540391521	-1.3140173303	 0.392315
O	 2.907791263	-0.6558184365	-0.266251257	-0.44409
H	 0.869295192	 2.0513473326	-0.0206874149	 0.126894
H	-0.6473935822	 1.8714707759	-0.9263213075	 0.142742
H	-0.6674025699	 1.8854087439	 0.849806568	 0.117527
H	 0.6170741418	-0.291470749	 0.8599862986	 0.132131
H	-0.9253125446	-0.4535226383	 0.0042515802	 0.131661
H	 0.7345738842	-1.2731750424	-4.2498244925	 0.109756
H	 3.7607156641	-1.0491367837	-3.8384994793	 0.301023
H	 3.7693486482	-0.9612461077	-0.5775666267	 0.313404
37.233	94.6194	185.0685	208.5285	244.8874	248.4328	301.6312	332.3982	369.2579	405.9533	538.4421	591.094	661.2868	689.6337	756.835	765.2764	802.1171	852.6101	962.532	1016.162	1089.143	1108.437	1177.2867	1209.63	1256.2236	1287.0241	1320.9604	1362.7466	1395.1522	1406.6287	1409.9226	1461.4653	1479.3319	1490.1351	1505.5266	1603.4414	1663.2848	3043.5669	3067.9352	3108.9638	3118.712	3135.4113	3238.136	3792.2701	3804.9934
CCN1N=CC(O)=C1O	CCn1ncc(O)c1O	
InChI=1S/C5H8N2O2/c1-2-7-5(9)4(8)3-6-7/h3,8-9H,2H2,1H3	InChI=1S/C5H8N2O2/c1-2-7-5(9)4(8)3-6-7/h3,8-9H,2H2,1H3
