23
gdb 77518	2.34563	1.50498	1.37168	1.4452	84.98	-0.2442	0.0659	0.3102	1127.6756	0.205812	-388.29944	-388.290242	-388.289297	-388.33226	36.845	
C	-0.0245895545	 1.5462867425	 0.0081784809	-0.502627
C	-0.0248035433	 0.0356622167	-0.0143133091	 0.298649
C	 0.3624095289	-0.7987100036	-1.2733637761	-0.301905
C	-0.4148681135	-1.9447437213	-0.55659122	 0.298656
C	-0.9512221205	-3.1578905866	-1.2798451629	-0.502634
C	 0.4825620855	-2.1812263367	 0.679451197	-0.272978
C	 0.7740374453	-0.7013310487	 1.0846818543	-0.272968
C	-1.3451832997	-0.7982782229	-0.0466751758	 0.111961
O	-2.1550741627	-0.9501113928	 1.0902594955	-0.453903
H	 0.9936948294	 1.9481265805	-0.050480772	 0.111931
H	-0.5952708248	 1.9587325859	-0.8306579449	 0.11227
H	-0.4759387066	 1.9216563331	 0.9338991968	 0.119356
H	-0.1375539753	-0.451454597	-2.181944508	 0.091857
H	 1.4274094675	-0.9551434749	-1.4680679196	 0.08727
H	-0.140426634	-3.8095575718	-1.6259060656	 0.111926
H	-1.5943841508	-3.7514516168	-0.6198391457	 0.119368
H	-1.5459637836	-2.8718203442	-2.1538469769	 0.112269
H	-0.0315438605	-2.7518471763	 1.4619201889	 0.087295
H	 1.3891824714	-2.7373835303	 0.4231932663	 0.098087
H	 1.8390239479	-0.4534541846	 1.0486210088	 0.098085
H	 0.421741199	-0.4501955971	 2.0921469665	 0.087298
H	-2.012815454	-0.4495818362	-0.8398415853	 0.078068
H	-1.6105986412	-1.2577749372	 1.8216927169	 0.28267
190.6066	192.2595	209.6358	216.1936	235.2525	245.256	285.6004	286.3654	347.101	467.182	482.3218	579.4193	586.2646	597.1813	757.2606	801.4519	814.5144	845.5113	866.519	923.4576	924.4047	957.8997	981.4471	991.6941	1035.2417	1083.2202	1093.8108	1144.9043	1151.7819	1170.382	1187.7547	1223.7059	1238.5836	1247.5529	1259.3958	1263.9342	1293.7746	1350.9501	1355.3025	1412.2901	1416.3589	1443.6923	1491.6451	1492.5646	1493.5856	1495.0873	1499.6271	1501.2206	1526.6099	3021.8639	3022.4717	3028.1062	3039.9349	3050.0012	3070.627	3074.7211	3084.7848	3085.199	3089.409	3092.7623	3092.9964	3108.5192	3821.7865
CC12CC(C)(CC1)C2O	C[C@@]12C[C@@](C)(CC1)[C@H]2O	
InChI=1S/C8H14O/c1-7-3-4-8(2,5-7)6(7)9/h6,9H,3-5H2,1-2H3	InChI=1S/C8H14O/c1-7-3-4-8(2,5-7)6(7)9/h6,9H,3-5H2,1-2H3/t6-,7-,8+
