18
gdb 24621	4.80102	1.03314	0.97153	1.2146	78.13	-0.209	0.0354	0.2444	1237.9451	0.1498	-401.951681	-401.943965	-401.943021	-401.985318	28.789	
C	-0.0028267543	 1.4755284879	-0.1900515338	-0.089037
O	 1.389424418	 1.581906004	 0.1656072876	-0.270805
C	 1.4589539215	 0.1913478039	 0.5366701723	-0.089035
C	 0.0127172292	-0.0563764916	 0.0398258403	-0.015092
N	-0.9436270772	-0.6301099757	 0.9496448652	 0.025316
C	-1.2060630462	-0.2023872441	 2.2332461594	-0.104977
C	-2.1814070886	-1.01114218	 2.7661250571	-0.169731
C	-2.5290955326	-1.9687854496	 1.7734516629	-0.175555
C	-1.7524948117	-1.7089188321	 0.6704711421	-0.096643
H	-0.6562589594	 2.0223712296	 0.5006058595	 0.113996
H	-0.1962037778	 1.811950974	-1.2149247693	 0.110124
H	 2.2546585777	-0.3411393293	 0.0035182857	 0.110124
H	 1.5885810313	 0.050264467	 1.616628588	 0.113997
H	-0.0303361243	-0.6295174619	-0.8863695954	 0.102142
H	-0.6783182965	 0.6375868878	 2.6558662524	 0.127022
H	-2.5983625195	-0.924535715	 3.7578299049	 0.095888
H	-3.2626182971	-2.7555731983	 1.8587358064	 0.095838
H	-1.6990759725	-2.1928855565	-0.2921118752	 0.116428
43.0923	56.4931	133.1131	242.4646	383.5115	394.7594	614.808	621.9066	637.3846	684.1819	743.09	802.359	837.2085	853.1146	877.6206	883.3918	917.193	983.7202	1025.4331	1039.4792	1040.0813	1085.7539	1089.3011	1120.4491	1124.7623	1155.9714	1164.0601	1247.7985	1272.901	1303.7023	1312.8585	1345.9502	1373.6918	1426.4403	1458.2181	1509.6299	1524.7657	1536.1624	1566.9204	3016.4543	3027.4726	3068.339	3070.0428	3114.5823	3240.0703	3250.0964	3262.8468	3270.9148
C1OCC1N1C=CC=C1	C1OCC1n1cccc1	
InChI=1S/C7H9NO/c1-2-4-8(3-1)7-5-9-6-7/h1-4,7H,5-6H2	InChI=1S/C7H9NO/c1-2-4-8(3-1)7-5-9-6-7/h1-4,7H,5-6H2
