12
gdb 130878	2.74798	1.54574	0.98927	1.5614	65.27	-0.2617	-0.0943	0.1674	1066.4789	0.07707	-472.620561	-472.613362	-472.612418	-472.652712	25.765	
O	-0.93392817	 1.2488267445	-0.1326692408	-0.268089
C	 0.1947530081	 0.8563720564	 0.0586641937	 0.097065
C	 1.3885444544	 1.7302136344	-0.0340987475	-0.059414
C	 1.2376098531	 3.0413534362	-0.3478807731	 0.100486
O	 2.2203683948	 3.9267638444	-0.4623228786	-0.218451
N	 3.555218091	 3.5400815064	-0.253910984	-0.050033
C	 3.7532704314	 2.3081550967	 0.0459509188	-0.024725
C	 2.7352592692	 1.2362368348	 0.2001091967	 0.287069
O	 3.0483406846	 0.0945420888	 0.4894064824	-0.342664
H	 0.4200669433	-0.1937637014	 0.3193813484	 0.121515
H	 0.2663421384	 3.4885730852	-0.5375682759	 0.186803
H	 4.7973405517	 2.0459504837	 0.1997295199	 0.170439
99.1996	149.9049	185.2499	257.3522	347.9149	420.3633	468.9688	522.1378	549.2888	651.7894	780.9634	787.0007	829.0021	881.7896	964.3054	977.3231	1052.5177	1120.589	1218.816	1270.7086	1299.8865	1380.5003	1444.8689	1602.7068	1651.503	1765.2725	1794.1392	2977.3531	3179.8121	3198.4159
O=CC1=CON=CC1=O	O=Cc1concc1=O	
InChI=1S/C5H3NO3/c7-2-4-3-9-6-1-5(4)8/h1-3H	InChI=1S/C5H3NO3/c7-2-4-3-9-6-1-5(4)8/h1-3H
