22
gdb 119922	2.19695	1.0658	0.8703	1.1645	89.04	-0.2207	0.0354	0.2561	1477.2878	0.191527	-367.152928	-367.142323	-367.141379	-367.188934	38.62	
C	-1.8797803583	 1.2910742086	 2.064404539	-0.382502
C	-1.7889960652	-0.2120993986	 1.7909342518	-0.163625
C	-1.9236844957	-0.5585362226	 0.3013258777	-0.208106
C	-1.7575056846	-2.043989202	 0.0549486353	-0.003149
C	-2.9340895589	-2.9909685694	 0.0551117198	-0.211896
C	-4.2695442894	-2.4878452261	 0.2232562418	 0.358488
C	-5.4005969996	-2.1003894157	 0.3647487811	-0.479944
N	-2.1518612499	-2.7254367569	-1.1691207664	-0.119542
C	-2.765728983	-1.9834138667	-2.263376656	-0.315738
H	-1.7785668253	 1.5078974091	 3.1323156343	 0.1124
H	-1.0905712446	 1.8387571424	 1.5370439991	 0.11329
H	-2.8417068866	 1.6967747643	 1.7321662425	 0.116564
H	-0.8319823524	-0.5964685194	 2.1679873063	 0.095363
H	-2.5726001012	-0.7388772416	 2.3487567491	 0.109964
H	-2.8960029444	-0.2131754464	-0.0613505772	 0.111481
H	-1.1588746603	-0.0157952073	-0.2711765889	 0.097355
H	-0.8348649357	-2.448104127	 0.4748087447	 0.091699
H	-2.7879903557	-3.9944500529	 0.4504484842	 0.111313
H	-6.3982804228	-1.7603954603	 0.4939820228	 0.19903
H	-3.5237811842	-1.249727134	-1.9615603601	 0.118836
H	-1.9760861274	-1.4665706918	-2.8173790506	 0.122407
H	-3.2418014249	-2.6991349556	-2.9404464604	 0.126311
53.1571	81.0435	120.4341	150.2524	165.3881	177.0188	247.1601	268.6564	310.8095	355.4055	409.2483	506.1261	586.797	593.5376	605.323	658.5316	713.1348	751.0545	829.321	877.4183	900.5909	911.8076	1011.1911	1038.6089	1051.6096	1096.3573	1127.8708	1149.1061	1159.124	1171.5132	1195.7616	1263.3171	1300.392	1326.1178	1337.7371	1362.9183	1385.4766	1411.5328	1425.495	1456.1845	1477.0466	1488.5602	1492.6612	1500.1016	1508.3645	1509.4816	2225.4885	3012.833	3016.9166	3020.9425	3029.6189	3055.516	3079.8907	3083.3549	3094.218	3101.7941	3103.4489	3106.9654	3118.42	3502.4261
CCCC1C(C#C)N1C	CCC[C@H]1[C@@H](C#C)N1C	
InChI=1S/C8H13N/c1-4-6-8-7(5-2)9(8)3/h2,7-8H,4,6H2,1,3H3	InChI=1S/C8H13N/c1-4-6-8-7(5-2)9(8)3/h2,7-8H,4,6H2,1,3H3/t7-,8+,9?/m1/s1
