14
gdb 5730	4.08569	2.22778	1.48472	3.8229	65.35	-0.1917	0.0233	0.215	801.4907	0.109253	-378.702383	-378.696072	-378.695128	-378.732869	24.132	
N	 0.0889874134	 1.3510334482	 0.1263857743	-0.595304
C	 0.0492555611	 0.0879341984	 0.0724144123	 0.44428
O	 1.1236436402	-0.7846766284	-0.119180563	-0.234913
C	 0.6922375843	-2.1044964769	 0.0828486235	-0.180524
C	-0.6313477443	-2.0716766469	 0.242823597	 0.261232
C	-1.9630098909	-2.5221221783	 0.8148734135	-0.359547
C	-2.2848782485	-0.9812933421	 0.9210046762	-0.164739
N	-1.049067897	-0.744524243	 0.1427994624	-0.089878
H	 1.0458555921	 1.6839546295	 0.0379615028	 0.22585
H	 1.4542025488	-2.8623785104	 0.0857675215	 0.145132
H	-2.6086702854	-3.0596754741	 0.1175077952	 0.137718
H	-1.9153954939	-3.0648880424	 1.7593155187	 0.138447
H	-3.193321741	-0.6287288947	 0.4298747573	 0.134434
H	-2.2307776089	-0.5867376388	 1.9396250782	 0.13781
126.861	166.6825	293.1791	327.074	547.2849	600.7041	672.9934	694.1685	707.2986	720.4831	757.5892	791.454	841.5088	908.8888	948.2196	1021.1012	1053.7612	1076.4987	1140.299	1170.4616	1190.7773	1217.0337	1239.2535	1284.1024	1334.9954	1380.3991	1477.1582	1515.1963	1711.238	1786.7557	3063.4435	3083.5827	3122.9276	3142.5816	3305.7371	3534.9044
N=C1OC=C2CCN12	[NH][C@@H]1OC[C@H]2CCN12	
InChI=1S/C5H6N2O/c6-5-7-2-1-4(7)3-8-5/h3,6H,1-2H2	InChI=1S/C5H9N2O/c6-5-7-2-1-4(7)3-8-5/h4-6H,1-3H2/t4-,5+/m1/s1
