19
gdb 117313	4.68184	0.70367	0.61887	5.8876	76.15	-0.2441	-0.0114	0.2327	1794.7832	0.156455	-456.367463	-456.356655	-456.355711	-456.405831	36.035	
C	-0.0358223402	 1.4043127202	 0.1245371596	-0.227723
O	-0.1014091533	-0.0000776841	 0.1999609789	-0.199021
C	 0.5078906166	-0.6243073117	-0.8831054137	-0.123798
C	 0.4126971759	-2.1362907021	-0.759313564	 0.341062
N	-0.1530587405	-2.7032962703	 0.2161637986	-0.475873
N	 1.035244353	-2.7626115352	-1.8680174528	-0.380233
C	 1.1459958151	-4.1208135492	-2.1004180875	 0.420757
C	 1.8743272278	-4.467075344	-3.3890343126	-0.498912
O	 0.702791339	-4.9638082338	-1.3465728638	-0.339892
H	 1.0048445674	 1.7665064849	 0.1125572438	 0.103554
H	-0.5443237719	 1.7912686766	-0.7732419811	 0.103543
H	-0.5368365433	 1.7968422903	 1.0117470346	 0.137069
H	 0.0397477554	-0.3185906535	-1.8396564086	 0.09523
H	 1.5768845167	-0.343495428	-0.960582458	 0.095326
H	-0.1081818044	-3.7174225157	 0.1088508123	 0.252541
H	 1.4411751595	-2.1537020201	-2.5629464786	 0.250099
H	 2.8923551694	-4.0634173198	-3.3837416293	 0.143127
H	 1.9173988586	-5.5513264631	-3.4827674664	 0.159561
H	 1.3525300592	-4.0495546514	-4.2566864813	 0.143584
29.7906	39.5041	58.2658	104.6055	120.1198	123.4569	234.0161	250.9912	311.4183	377.8553	414.3081	517.4353	541.8227	554.074	617.6871	728.9132	915.9084	924.731	957.7281	1013.7358	1037.7157	1050.4198	1059.4534	1087.1748	1179.3191	1183.4873	1241.1185	1249.7977	1269.1353	1317.7116	1385.0363	1431.1235	1467.2625	1476.5141	1482.1294	1486.1366	1495.7235	1516.3294	1524.5833	1752.8507	1805.5676	2909.3956	2923.5371	2966.9221	3010.0305	3042.1263	3105.0661	3124.3009	3167.3462	3484.1224	3607.9833
COCC(=N)NC(C)=O	COCC(=N)NC(=O)C	
InChI=1S/C5H10N2O2/c1-4(8)7-5(6)3-9-2/h3H2,1-2H3,(H2,6,7,8)	InChI=1S/C5H10N2O2/c1-4(8)7-5(6)3-9-2/h3H2,1-2H3,(H2,6,7,8)
