17
gdb 19513	3.36531	1.93386	1.78868	3.6536	68.3	-0.2469	0.0094	0.2563	822.7977	0.144222	-363.875812	-363.868881	-363.867937	-363.906966	26.278	
O	 0.2612439752	 0.1734485378	-0.6081016177	-0.307874
C	 0.2295895102	 1.3286761761	-0.2513687946	 0.143717
N	 1.2543804581	 1.9873003819	 0.3847481262	-0.057509
C	 2.6724580838	 1.9547173395	 0.1223504414	-0.028378
C	 3.1158232061	 1.6356885206	-1.2963330216	-0.21841
C	 2.2527045485	 2.5487841082	-2.2009590681	-0.236867
C	 1.8668284653	 3.7690624381	-1.3282814047	-0.223235
C	 1.8967317894	 3.254378617	 0.103389531	-0.045864
H	-0.675264471	 1.9633531819	-0.3346453796	 0.078409
H	 3.3043247256	 1.674819054	 0.9604825475	 0.101773
H	 4.1804819906	 1.8814765045	-1.3842858804	 0.10464
H	 2.9945621123	 0.5781401402	-1.5431856288	 0.133973
H	 2.7823367119	 2.8484703768	-3.1081429971	 0.104433
H	 1.357629952	 2.011480392	-2.5236834251	 0.130454
H	 2.6131231382	 4.5681405614	-1.4130501969	 0.110287
H	 0.902839861	 4.202509881	-1.6122905829	 0.110839
H	 1.9357934226	 3.961371939	 0.9276664613	 0.099611
119.0707	146.0145	226.5357	243.8547	356.0619	441.6792	580.341	672.0135	691.9837	806.6503	822.7239	859.1957	889.4992	902.907	933.2619	1001.5325	1021.2849	1038.938	1060.4651	1091.3348	1121.0308	1139.6004	1184.8001	1200.0664	1259.0967	1308.9632	1311.7534	1325.5754	1357.0567	1362.2375	1419.5219	1450.5341	1480.0279	1490.6115	1509.781	1787.6445	2933.4724	3038.6122	3044.7233	3071.4527	3082.6599	3102.542	3116.9125	3145.7986	3156.4185
O=CN1C2CCCC12	O=CN1[C@H]2CCC[C@@H]12	
InChI=1S/C6H9NO/c8-4-7-5-2-1-3-6(5)7/h4-6H,1-3H2	InChI=1S/C6H9NO/c8-4-7-5-2-1-3-6(5)7/h4-6H,1-3H2/t5-,6+,7?
