17
gdb 74371	2.78886	1.34338	1.10735	2.1609	75.71	-0.2273	0.0437	0.271	1132.5676	0.137072	-417.994828	-417.986455	-417.98551	-418.027756	32.185	
N	 0.0487013843	 1.356781852	 0.0773565109	-0.552553
C	-0.0558177073	-0.0162167456	 0.0571330605	 0.461591
N	-1.191030334	-0.5948713721	 0.0171716818	-0.339287
C	-1.2266948577	-2.0568826993	 0.0444828775	-0.155857
C	 0.1054801637	-2.6757178884	-0.4321540321	-0.241675
C	 1.2394938409	-1.9856182876	 0.3072996511	-0.075301
O	 1.186096604	-0.5656226985	 0.1079604619	-0.260411
C	-1.5863550389	-2.5503973731	 1.3807015244	 0.367345
C	-1.8581997721	-2.9686092242	 2.4746821601	-0.493823
H	 0.9221156418	 1.726417097	-0.264517172	 0.255404
H	-0.7791078183	 1.8296095471	-0.2496135453	 0.261934
H	-2.021138616	-2.3696853324	-0.6453024218	 0.107236
H	 0.1315561318	-3.7526812698	-0.2460122669	 0.115765
H	 0.2098788489	-2.5088894048	-1.5095908008	 0.109965
H	 1.1764495972	-2.1922134479	 1.3825551281	 0.128447
H	 2.2232060719	-2.2948532698	-0.0526709558	 0.116092
H	-2.1156394103	-3.3244961926	 3.4414736984	 0.195129
79.1063	120.1036	182.8084	251.4738	323.6372	365.1899	421.8057	437.0571	474.6971	545.5282	584.0253	595.6948	629.585	641.1264	727.2149	741.7209	814.0273	878.1812	920.3698	946.0482	985.247	1056.2923	1097.5533	1135.2678	1200.7587	1250.8224	1255.6744	1315.2956	1339.7653	1352.3727	1382.7506	1425.1684	1473.5184	1513.6061	1615.3663	1740.1525	2230.5247	3014.1092	3038.9883	3051.1006	3104.4892	3109.4039	3503.8604	3588.6741	3707.2873
NC1=NC(CCO1)C#C	NC1=N[C@@H](CCO1)C#C	
InChI=1S/C6H8N2O/c1-2-5-3-4-9-6(7)8-5/h1,5H,3-4H2,(H2,7,8)	InChI=1S/C6H8N2O/c1-2-5-3-4-9-6(7)8-5/h1,5H,3-4H2,(H2,7,8)/t5-/m1/s1
