19
gdb 95884	2.27953	1.54193	1.15396	2.5311	71.88	-0.2459	-0.0313	0.2147	1130.7546	0.158597	-460.178106	-460.169499	-460.168555	-460.2114	32.216	
C	 0.1139054895	 1.5673129513	-0.0320611087	-0.408983
C	 0.0617015429	 0.0573681292	-0.0639705024	 0.212777
O	 0.7760784018	-0.3947339087	-1.1916479861	-0.246088
C	 0.7585810698	-1.810628599	-1.2770349922	-0.089144
C	 1.408438006	-2.4182399022	-0.0322130352	-0.240566
C	 0.7509105477	-1.8180058129	 1.2302898204	 0.007778
O	 0.6471474757	-0.4160699776	 1.1445762668	-0.255563
C	-0.5683163607	-2.5123976349	 1.5558208555	 0.151419
O	-1.644943855	-1.9815610635	 1.6195285694	-0.238964
H	 1.1539235434	 1.8969618952	 0.0301882413	 0.131562
H	-0.3362292011	 1.9729682114	-0.9408197464	 0.126277
H	-0.4322728066	 1.938400316	 0.8376567555	 0.132219
H	-0.9730369184	-0.3129620915	-0.1218315716	 0.087118
H	-0.2787283015	-2.1695182207	-1.3875392101	 0.099658
H	 1.3076235798	-2.0808489921	-2.1825899361	 0.115069
H	 1.3224114068	-3.5107350912	-0.0379069497	 0.105592
H	 2.4718763325	-2.163148542	-0.021398059	 0.124099
H	 1.3987923958	-2.023333273	 2.0952873765	 0.108926
H	-0.4454485284	-3.6050889738	 1.753868832	 0.076814
86.2503	136.5089	164.2163	206.0825	259.94	288.1843	322.0642	370.7426	458.0013	504.5914	548.3337	644.9598	742.5696	801.5169	844.2211	876.1793	890.9262	939.5979	956.5402	1003.7087	1072.439	1093.8462	1120.3764	1123.8607	1170.7501	1192.9799	1250.753	1262.5434	1303.6486	1365.9852	1374.801	1382.8116	1394.1172	1415.1494	1420.7255	1442.3052	1471.5811	1482.6793	1488.132	1503.0818	1839.7132	2838.4344	2968.3113	3000.694	3006.7598	3047.6716	3059.0516	3092.311	3101.0283	3140.1442	3144.0475
CC1OCCC(O1)C=O	C[C@H]1OCC[C@@H](O1)C=O	
InChI=1S/C6H10O3/c1-5-8-3-2-6(4-7)9-5/h4-6H,2-3H2,1H3	InChI=1S/C6H10O3/c1-5-8-3-2-6(4-7)9-5/h4-6H,2-3H2,1H3/t5-,6+/m0/s1
