19
gdb 121572	4.99516	0.5213	0.4776	4.6463	83.96	-0.2538	-0.0443	0.2094	2254.6784	0.155165	-423.016173	-423.004806	-423.003862	-423.056372	37.207	
C	 0.0976437891	 1.4482755722	 0.0089740744	-0.504895
C	 0.0373209384	-0.0032122705	 0.0014622381	 0.168462
C	-0.0335647768	-1.208168363	-0.0043251853	-0.027965
C	-0.1053385811	-2.6569033484	-0.0114772876	 0.200525
O	-1.1658051541	-3.2460001003	-0.0048726538	-0.292426
C	 1.238511597	-3.3711890153	-0.0277208663	-0.306833
C	 1.1174543236	-4.8930530127	-0.0351774425	-0.16419
C	 2.4755948314	-5.5809190908	-0.0512236972	-0.084761
O	 2.2517146285	-6.9819936385	-0.0569234372	-0.419085
H	 1.1312204702	 1.809285827	 0.0007189981	 0.15618
H	-0.4137174462	 1.8617656933	-0.8671145961	 0.163749
H	-0.3961582786	 1.8517784784	 0.8996708302	 0.163759
H	 1.7953836102	-3.0057204275	-0.9023011503	 0.126661
H	 1.8111578349	-3.0155545718	 0.8407143843	 0.126674
H	 0.5564950371	-5.2274067546	 0.8430086484	 0.122736
H	 0.5407820137	-5.2176017885	-0.9068411869	 0.122712
H	 3.0454263237	-5.2645776571	-0.9413353677	 0.081683
H	 3.0614134407	-5.2743550005	 0.8319098692	 0.081681
H	 3.1057310284	-7.4235625014	-0.0677184517	 0.285332
13.6091	30.6216	60.9162	61.4549	124.1368	148.9206	156.1476	258.2429	282.3224	304.2659	379.3305	379.8176	482.5001	570.7769	591.286	757.7753	776.8877	872.0148	971.7519	1026.2971	1044.3516	1054.7371	1060.3626	1086.4766	1101.2465	1175.2683	1205.9317	1246.1538	1291.0959	1307.0383	1311.2893	1388.0407	1409.8807	1449.2332	1463.8757	1470.596	1473.7484	1491.7472	1526.6907	1762.7938	2339.3111	2950.3399	2974.0072	3012.8923	3032.0755	3039.9442	3061.1186	3095.6675	3098.9746	3104.0318	3831.679
CC#CC(=O)CCCO	CC#CC(=O)CCCO	
InChI=1S/C7H10O2/c1-2-4-7(9)5-3-6-8/h8H,3,5-6H2,1H3	InChI=1S/C7H10O2/c1-2-4-7(9)5-3-6-8/h8H,3,5-6H2,1H3
