17
gdb 13491	3.12385	1.7474	1.44654	1.6882	64.99	-0.2675	0.0206	0.2881	926.0506	0.141994	-400.99931	-400.991215	-400.99027	-401.031936	29.843	
C	-0.0617635235	 1.5942547767	 0.0490025475	-0.417929
C	-0.0293686221	 0.0667976854	-0.0107521381	 0.108127
O	 0.5187737858	-0.4058179166	-1.2353525369	-0.434746
C	 0.7218502762	-0.5355327256	 1.1844553552	-0.138273
C	 0.9362372969	-2.0642037641	 1.2120493126	-0.109571
O	 2.3890753425	-1.8642935056	 1.1932514213	-0.247629
C	 2.2378088076	-0.5037775039	 1.0910218062	 0.423083
N	 3.0887899952	 0.4038174245	 0.9127831	-0.550658
H	 0.9560194768	 1.9960847368	 0.0902279247	 0.151434
H	-0.5652560586	 1.9893586796	-0.8372556885	 0.124054
H	-0.5979735701	 1.9426392096	 0.937840023	 0.114601
H	-1.0552427793	-0.3218756698	 0.0015258452	 0.093004
H	 1.3848345591	 0.0084086057	-1.3383347731	 0.291004
H	 0.3446008097	-0.127740557	 2.1260242972	 0.107721
H	 0.6268191214	-2.5962014169	 2.113683879	 0.118742
H	 0.6146596194	-2.5869542779	 0.3093526739	 0.13741
H	 4.0349775632	 0.0218502291	 0.858050331	 0.229628
71.7292	130.2208	153.5496	246.7983	258.0243	345.3827	402.8999	441.6735	481.4868	503.9561	701.7318	732.6666	786.013	871.8815	906.8157	928.9218	963.3572	1004.5439	1023.5067	1046.7096	1060.7419	1110.3253	1158.7969	1172.5329	1219.2672	1249.191	1290.5921	1331.1037	1354.0344	1381.4666	1406.9209	1430.7687	1492.1745	1502.9461	1506.1838	1808.2038	3036.0219	3036.5978	3073.0977	3083.37	3109.2132	3123.4061	3140.2587	3470.7803	3778.0883
CC(O)C1COC1=N	C[C@@H](O)[C@H]1CO[C]1[NH]	
InChI=1S/C5H9NO2/c1-3(7)4-2-8-5(4)6/h3-4,6-7H,2H2,1H3	InChI=1S/C5H9NO2/c1-3(7)4-2-8-5(4)6/h3-4,6-7H,2H2,1H3/t3-,4-/m1/s1
