21
gdb 75395	2.33994	1.65102	1.15337	0.4925	89.69	-0.2128	0.0187	0.2315	1152.3391	0.184299	-349.952833	-349.944467	-349.943522	-349.985802	33.129	
C	-0.2462644897	 1.5336798919	 0.0825174506	-0.481927
C	 0.0417455889	 0.0543612777	-0.0223926125	 0.343174
C	 0.0656990737	-0.5405980356	-1.2206606974	-0.165823
C	 0.3127253544	-1.9981811852	-1.5521492392	-0.33009
C	-0.4655650443	-2.9919916799	-0.7172994702	-0.080071
C	-0.6064195078	-2.9985900147	 0.6095588136	-0.035034
C	-0.0330796077	-2.0636476575	 1.6047087341	-0.06328
C	 1.399987402	-1.5815097361	 1.5504816672	-0.302488
C	 0.2826489169	-0.5965315205	 1.2970085521	-0.109594
H	 0.5792954886	 2.0635659367	 0.5753150328	 0.121461
H	-0.4038671585	 1.9862205537	-0.8996935708	 0.116997
H	-1.1415202602	 1.7188805223	 0.6905408499	 0.122321
H	-0.115003675	 0.0949541066	-2.0848732037	 0.075758
H	 0.0418905339	-2.1517499434	-2.6015463124	 0.102985
H	 1.3895948636	-2.2277075733	-1.5124743472	 0.117446
H	-0.9603085837	-3.7832408831	-1.275242221	 0.085131
H	-1.2186194771	-3.7875586446	 1.0415136831	 0.080893
H	-0.4160976501	-2.2198020178	 2.6082198487	 0.085224
H	 1.9475190031	-1.5035301752	 2.483348782	 0.112275
H	 2.0011707817	-1.8899665049	 0.7042504925	 0.124129
H	 0.0776494575	 0.0657028129	 2.1330766779	 0.080513
49.0774	192.7008	201.0817	248.7546	288.5038	328.1937	359.0632	375.7873	538.9386	575.5523	622.2353	708.1595	748.599	756.375	770.507	834.1405	859.0934	881.4686	941.4471	957.2901	995.9658	1001.4147	1029.0309	1052.4305	1058.521	1072.3396	1102.0118	1137.0321	1158.0392	1170.9735	1223.9189	1236.4799	1278.7248	1354.4233	1369.9151	1406.3176	1411.3411	1435.3159	1440.3105	1474.0809	1478.39	1493.7349	1499.1573	1728.3019	1734.7824	2972.1669	3011.9803	3057.7718	3061.0666	3112.4288	3131.1031	3138.8753	3140.7835	3142.4895	3153.1039	3163.6136	3232.7753
CC1=CCC=CC2CC12	CC1=CCC=C[C@H]2C[C@@H]12	
InChI=1S/C9H12/c1-7-4-2-3-5-8-6-9(7)8/h3-5,8-9H,2,6H2,1H3	InChI=1S/C9H12/c1-7-4-2-3-5-8-6-9(7)8/h3-5,8-9H,2,6H2,1H3/t8-,9-/m0/s1
