18
gdb 10713	2.54361	2.08136	1.38853	2.3408	68.76	-0.2359	-0.0129	0.223	952.9332	0.150762	-384.938132	-384.929123	-384.928179	-384.971807	32.355	
C	-1.1362854072	 0.0651716309	 0.1896022849	-0.255747
O	 0.2691514709	 0.0416824333	 0.0042048595	-0.283168
C	 0.7020650318	-0.6962223365	-1.0991505002	 0.300235
C	 1.8674760796	-1.6352983148	-0.8377257454	-0.284846
C	 0.5079534763	-2.1997905881	-1.1133983925	-0.3096
C	 0.7489568912	 0.0172028243	-2.4254444827	 0.326892
C	 0.5552316753	 1.5206215109	-2.408238935	-0.485013
O	 0.9818392924	-0.5935222687	-3.4476124303	-0.320471
H	-1.6630669532	 0.5013984162	-0.6703680309	 0.109856
H	-1.5398110288	-0.9407067916	 0.3647009746	 0.114474
H	-1.3258962638	 0.6837585864	 1.0695673652	 0.131542
H	 2.6216574587	-1.7065132776	-1.6122459391	 0.134906
H	 2.2251192288	-1.6468484907	 0.1851095482	 0.12868
H	-0.0393430992	-2.6256441771	-0.2806464639	 0.121394
H	 0.3287403278	-2.647047503	-2.0837302037	 0.142906
H	 1.1633208082	 1.9805001071	-1.6242080577	 0.148336
H	 0.813195469	 1.9244188573	-3.3878035096	 0.138403
H	-0.4874470177	 1.7698326319	-2.1820650913	 0.141221
60.1417	107.3926	159.9492	170.3345	240.8067	244.6436	263.2409	333.7424	445.122	475.1148	547.8156	618.4229	657.5819	779.8828	852.8844	882.9727	943.626	965.4373	992.038	1049.4813	1058.7588	1089.9537	1099.9166	1155.5493	1182.8169	1204.0374	1221.4913	1292.4692	1328.0576	1384.9745	1436.1297	1456.9735	1467.9717	1469.7817	1483.8653	1490.0557	1509.6305	1789.4843	3000.0011	3045.2572	3054.0918	3109.6619	3123.6085	3144.5784	3145.3155	3157.0283	3235.7477	3249.1435
COC1(CC1)C(C)=O	COC1(CC1)C(=O)C	
InChI=1S/C6H10O2/c1-5(7)6(8-2)3-4-6/h3-4H2,1-2H3	InChI=1S/C6H10O2/c1-5(7)6(8-2)3-4-6/h3-4H2,1-2H3
