25
gdb 88660	3.87201	0.80671	0.73454	0.1129	94.36	-0.2561	0.0862	0.3423	1687.6202	0.228775	-352.34319	-352.333243	-352.332299	-352.378393	38.018	
C	 0.0695044433	 1.5703249458	-0.3451828726	-0.40657
C	 0.0270891705	 0.0745363738	-0.1167467397	 0.006155
C	 1.2839154869	-0.7598357807	-0.1715389193	-0.309032
C	 0.5522947851	-0.5863307912	 1.142059864	-0.00888
C	 1.1654843189	 0.1756392527	 2.2850786283	 0.04333
C	 0.2552741926	 0.6506209553	 3.455484671	-0.251987
C	 1.3957416787	 0.2887902932	 4.447730087	 0.060934
C	 1.0425186498	-0.3357297245	 5.788539652	-0.406329
C	 2.0117348425	-0.6044985761	 3.3342435484	-0.251394
H	 0.9877242484	 2.018539945	 0.0450404785	 0.115757
H	 0.02664264	 1.7992223077	-1.4159964542	 0.114221
H	-0.7764940134	 2.0744490319	 0.1357408125	 0.115418
H	-0.858372328	-0.3994907175	-0.5338710097	 0.078653
H	 1.2585186121	-1.7253397431	-0.6652732433	 0.104736
H	 2.2255739302	-0.2302858106	-0.2867303699	 0.104288
H	-0.0201503394	-1.4524938394	 1.4704158028	 0.06995
H	 1.7499678968	 1.0214198009	 1.908763781	 0.061027
H	-0.1111112996	 1.6807025788	 3.4384648706	 0.090365
H	-0.6029029615	-0.0203034973	 3.5808387559	 0.090475
H	 2.0336105832	 1.1666157677	 4.605775817	 0.06693
H	 0.4041590476	-1.2168632507	 5.6548055617	 0.108117
H	 1.9405361777	-0.6551084872	 6.3298135916	 0.111401
H	 0.5029487908	 0.3713330543	 6.42910597	 0.111326
H	 1.6647348315	-1.6405443784	 3.4248523716	 0.090722
H	 3.0986906352	-0.6127731002	 3.2170524949	 0.090386
51.8941	72.6516	129.6253	197.3046	201.5862	235.4487	297.2164	343.4878	358.9994	382.9159	418.2722	518.0153	607.2852	752.4328	773.125	811.439	851.7861	877.3926	895.2471	905.1448	931.168	954.3749	966.5997	996.9914	1032.2771	1054.1137	1064.1341	1091.1391	1112.1561	1133.3045	1143.631	1150.7348	1198.6379	1205.6646	1229.3093	1235.3717	1260.2588	1261.6453	1267.8366	1297.6347	1323.0112	1374.6767	1396.9728	1408.8111	1421.454	1440.0464	1475.7637	1491.4998	1493.9331	1494.8699	1496.9983	1502.1473	1506.7686	3019.7662	3028.3204	3028.5018	3033.0849	3039.7507	3048.8476	3084.4284	3086.9061	3087.0116	3092.1675	3098.7587	3105.0966	3112.5631	3121.3184	3133.8905	3205.0739
CC1CC1C1CC(C)C1	C[C@H]1C[C@H]1[C@H]1C[C@@H](C)C1	
InChI=1S/C9H16/c1-6-3-8(4-6)9-5-7(9)2/h6-9H,3-5H2,1-2H3	InChI=1S/C9H16/c1-6-3-8(4-6)9-5-7(9)2/h6-9H,3-5H2,1-2H3/t6-,7-,8+,9+/m0/s1
