18
gdb 17242	4.44508	1.66491	1.62304	1.559	70.9	-0.2251	0.0869	0.312	890.9333	0.153984	-347.743367	-347.736258	-347.735314	-347.774679	27.799	
C	-0.1961296003	 1.4819257478	 0.1540011639	-0.375198
C	 0.2093713534	 0.0087585318	 0.0112818974	-0.310256
C	 0.8125643785	-0.5408959829	 1.2615446315	 0.512144
O	 2.0450656393	 0.0162264705	 1.7414453783	-0.332973
C	 2.1159555296	-1.1226929982	 2.6435020826	 0.06969
C	 0.9911920321	-0.84243815	 3.6735017024	-0.232119
C	 0.0444339444	-1.0669351759	 2.4947613695	-0.157204
C	 1.0842082366	-1.9192277976	 1.7616595175	-0.220871
H	 0.6664932333	 2.0908576961	 0.4384062544	 0.137931
H	-0.5946713476	 1.8709267036	-0.7874785998	 0.109538
H	-0.9620299966	 1.6050485506	 0.9261435233	 0.117462
H	-0.661598914	-0.6047101181	-0.2495849422	 0.103565
H	 0.9300504477	-0.1024123598	-0.8081304965	 0.110242
H	 3.131609758	-1.3970057868	 2.9206011688	 0.084453
H	 0.9088195636	-1.6442242412	 4.4121540404	 0.101687
H	 1.0157494711	 0.1356256041	 4.1645965699	 0.098871
H	-1.0317051865	-1.1881327288	 2.4998967681	 0.087463
H	 1.0552392675	-2.9043895452	 1.3167311503	 0.095575
90.0173	147.5557	200.0201	318.8785	364.5442	453.7902	546.8209	632.2263	737.7431	785.4618	795.4765	807.1377	828.5478	879.6178	921.8225	931.77	954.0275	972.7932	993.065	1007.1073	1063.0033	1086.345	1096.1438	1109.4119	1149.1979	1160.2428	1188.1366	1252.224	1270.2511	1277.9281	1323.9284	1350.7916	1407.519	1454.5539	1474.6158	1487.03	1496.2225	1510.1537	3028.1773	3041.4303	3046.4899	3063.9324	3109.0556	3111.1447	3120.6708	3143.9504	3192.4789	3207.9055
CCC12OC3CC1C23	CC[C@@]12O[C@H]3C[C@@H]1[C@@H]23	
InChI=1S/C7H10O/c1-2-7-4-3-5(8-7)6(4)7/h4-6H,2-3H2,1H3	InChI=1S/C7H10O/c1-2-7-4-3-5(8-7)6(4)7/h4-6H,2-3H2,1H3/t4-,5+,6-,7-/m1/s1
