21
gdb 120647	3.51249	0.79788	0.75555	1.1925	76.95	-0.2402	0.063	0.3032	1605.9488	0.179726	-461.325291	-461.314705	-461.313761	-461.361403	37.95	
C	-0.3242582131	 1.1981002662	-0.5495120749	-0.222607
O	-0.4265035775	-0.2037017414	-0.5333673165	-0.236056
C	-1.0983169383	-0.6875885978	 0.613480976	-0.070169
C	-1.1676292359	-2.1882262471	 0.5222331536	-0.090968
C	-2.1501180716	-2.9640422511	 1.3814610091	-0.364176
C	-2.3450286355	-2.8603130409	-0.1154354447	 0.449866
O	-3.3631092863	-2.0210354584	-0.5808134589	-0.476106
C	-2.1449839999	-4.0668325267	-0.9937385965	-0.151337
O	-3.3969874231	-4.7540527543	-1.0356117634	-0.433634
H	 0.208526219	 1.4785931148	-1.4617314736	 0.122484
H	-1.3141794507	 1.6817728888	-0.5540781529	 0.104606
H	 0.2367247288	 1.579686133	 0.3196632591	 0.097825
H	-0.5531631923	-0.3879768307	 1.5258978265	 0.079756
H	-2.1118790418	-0.2650692376	 0.6758394221	 0.102903
H	-0.2002186309	-2.6539623245	 0.3524791908	 0.089806
H	-1.8298200647	-3.9036526234	 1.8183381979	 0.110631
H	-2.83990052	-2.3872471085	 1.9882379059	 0.115077
H	-4.1200075681	-2.6011460129	-0.7327657724	 0.28798
H	-1.8482893221	-3.7357972936	-1.9990574394	 0.103596
H	-1.3488158295	-4.7096574175	-0.5907049844	 0.088145
H	-3.4082261264	-5.3183811765	-1.8133965235	 0.292376
57.3144	86.8525	93.6274	125.1594	195.3936	228.6406	247.7653	270.964	320.5229	338.1123	402.2365	416.5168	470.2403	486.5488	594.884	746.9324	829.3934	889.874	921.1985	974.109	992.692	1021.576	1040.9182	1052.7698	1070.1793	1113.5527	1158.0587	1174.9082	1193.5948	1205.0441	1233.4645	1244.7359	1252.1533	1282.0241	1314.1847	1350.7765	1410.5591	1436.7504	1456.159	1480.8244	1484.8273	1501.2159	1505.6942	1513.0906	1528.4127	2947.2137	2964.9717	2988.593	3006.0058	3014.9114	3030.565	3109.2638	3130.9834	3142.175	3221.6672	3777.6721	3841.904
COCC1CC1(O)CO	COC[C@H]1C[C@]1(O)CO	
InChI=1S/C6H12O3/c1-9-3-5-2-6(5,8)4-7/h5,7-8H,2-4H2,1H3	InChI=1S/C6H12O3/c1-9-3-5-2-6(5,8)4-7/h5,7-8H,2-4H2,1H3/t5-,6+/m1/s1
