17
gdb 114381	2.55741	1.22733	0.98291	3.0658	69.68	-0.2428	-0.03	0.2128	1211.6888	0.134646	-458.912091	-458.903645	-458.9027	-458.945922	30.955	
O	-0.3464611284	 1.6127509813	-0.6643572713	-0.415293
C	-0.1648274475	 0.2922573315	-0.190226301	-0.092446
C	-1.4604876969	-0.4885700478	-0.2940940932	 0.123107
O	-1.96506784	-0.590716084	-1.6676239498	-0.313826
C	-2.2423247429	-1.9797733881	-1.4641358707	 0.068189
C	-0.9729370554	-2.7771213563	-1.3240084337	-0.125858
C	 0.2625910335	-2.474494562	-2.09445504	 0.140876
O	 1.1396138329	-3.2842330235	-2.2796881725	-0.268846
C	-1.560554717	-1.9999453272	-0.1276253559	-0.192063
H	-0.6612878049	 1.5431855374	-1.573178024	 0.29742
H	 0.6493016229	-0.2220122694	-0.7187969471	 0.098703
H	 0.1231813875	 0.3688722977	 0.8643305935	 0.119152
H	-2.2279350932	 0.0129695631	 0.3090586897	 0.105401
H	-3.1864872772	-2.3697481904	-1.825091217	 0.123234
H	-1.128084671	-3.8446120858	-1.1893391757	 0.120301
H	 0.3121217404	-1.4595339951	-2.5349282439	 0.092281
H	-1.8116825227	-2.5245781614	 0.7833220726	 0.119669
63.6977	89.4005	137.7883	211.6057	255.7167	308.6306	406.7249	418.4486	473.4074	530.9637	585.4838	745.3233	794.9845	805.0485	854.5567	955.7114	979.4668	1004.5298	1022.0369	1049.4741	1051.5378	1060.1975	1071.557	1093.6195	1137.4972	1195.9371	1214.2418	1252.8254	1292.3305	1310.6925	1352.6166	1373.2205	1399.6143	1432.5816	1443.1158	1496.21	1806.7959	2937.5484	3014.835	3034.0023	3075.9562	3157.0416	3188.3733	3217.6916	3799.8507
OCC1OC2C(C=O)C12	OC[C@H]1O[C@H]2[C@@H](C=O)[C@@H]12	
InChI=1S/C6H8O3/c7-1-3-5-4(2-8)9-6(3)5/h1,3-6,8H,2H2	InChI=1S/C6H8O3/c7-1-3-5-4(2-8)9-6(3)5/h1,3-6,8H,2H2/t3-,4+,5-,6-/m0/s1
