18
gdb 97000	3.54205	1.33173	1.26163	2.9077	74.59	-0.2412	0.0228	0.2639	1075.5842	0.149429	-439.093005	-439.085382	-439.084437	-439.125659	28.991	
C	-0.0147182451	 1.4378219603	 0.0118658068	-0.337021
N	-0.0192619949	-0.017612356	 0.007255078	-0.357807
C	 0.5293450553	-0.6411518112	 0.9477964405	 0.491131
O	 1.1837500219	-0.0876899873	 2.0414245674	-0.278399
C	 1.6417899455	-1.2118695199	 2.8349581295	 0.062009
C	 0.3869147271	-1.8586403062	 3.4301492465	-0.078416
O	-0.2379291527	-2.4574539381	 2.2792495654	-0.278352
C	 0.6147198606	-2.1405858846	 1.1576207631	-0.017474
C	 2.0226430182	-2.2453178295	 1.7608764102	-0.252765
H	 0.6520336342	 1.8848515287	 0.7578218476	 0.123187
H	 0.2722949136	 1.7932163793	-0.9831827623	 0.124565
H	-1.0335937713	 1.798560222	 0.1963959572	 0.129345
H	 2.3981804442	-0.8639486646	 3.5353341524	 0.097467
H	 0.6204718563	-2.6290833754	 4.1753008292	 0.106765
H	-0.2766550898	-1.1101404908	 3.8754850883	 0.118148
H	 0.3320877081	-2.7494667984	 0.3042704993	 0.106369
H	 2.8202012584	-1.8949404152	 1.1035599658	 0.123426
H	 2.2461363303	-3.2378726332	 2.1551307253	 0.117821
59.0699	109.2589	216.7035	233.2782	339.7885	407.3258	451.9249	504.874	616.0872	714.6693	746.5486	823.8279	852.071	882.0222	902.4823	944.7409	958.171	971.4362	990.7169	1035.2459	1060.8892	1063.3581	1119.3676	1132.9469	1147.0118	1190.1556	1198.1319	1226.6102	1275.5905	1297.745	1304.1186	1345.8641	1371.2376	1437.5612	1480.836	1492.1886	1497.6877	1514.3287	1823.2075	3017.6545	3025.3866	3078.1846	3078.917	3084.0146	3092.0705	3147.3251	3148.9084	3180.1414
CN=C1OC2COC1C2	CN=C1O[C@H]2CO[C@@H]1C2	
InChI=1S/C6H9NO2/c1-7-6-5-2-4(9-6)3-8-5/h4-5H,2-3H2,1H3	InChI=1S/C6H9NO2/c1-7-6-5-2-4(9-6)3-8-5/h4-5H,2-3H2,1H3/t4-,5-/m1/s1
