23
gdb 104806	2.19277	1.3651	1.08201	1.5458	85.52	-0.2353	0.0295	0.2648	1256.6202	0.205749	-388.302832	-388.293177	-388.292233	-388.337068	37.03	
C	 0.6536839772	 0.016647924	 1.5547920457	-0.397403
C	 0.0430301222	 0.2002700546	 0.1597586453	-0.253611
C	-1.2212830927	-0.6294336358	-0.138934462	 0.313916
C	-2.3614701417	-0.3088703027	 0.8521414808	-0.107759
O	-2.7922842791	 1.0440900975	 0.8229011002	-0.427407
C	-1.7405154882	-0.3671746434	-1.5874554839	-0.306196
C	-2.156625147	-1.7292787947	-2.0811709918	-0.060396
C	-1.7418659108	-2.7033152602	-1.2741212945	-0.065423
C	-0.9723084669	-2.1702200104	-0.0901485178	-0.302999
H	 1.5790147886	 0.5934645258	 1.64852471	 0.115385
H	-0.0190453761	 0.351990279	 2.3513684948	 0.110894
H	 0.8969030861	-1.0323213242	 1.7528487575	 0.122503
H	-0.1835768038	 1.2632068359	-0.0021348152	 0.090039
H	 0.7983854327	-0.0521863673	-0.5948335008	 0.098322
H	-3.2396793343	-0.9043667715	 0.5810888359	 0.112622
H	-2.0703542474	-0.6070868736	 1.8702075936	 0.087626
H	-2.0902092964	 1.5889701537	 1.1908133275	 0.284599
H	-2.5533405053	 0.3670166962	-1.5840518673	 0.119126
H	-0.9516518458	 0.0532909981	-2.2277491426	 0.093294
H	-2.7080895492	-1.8731011027	-3.004195913	 0.088847
H	-1.8987618251	-3.7644194331	-1.4356259537	 0.088197
H	 0.0970086114	-2.4103424555	-0.178181141	 0.09958
H	-1.3006092782	-2.6124822697	 0.8599806122	 0.096243
84.486	99.2756	140.5034	197.1523	222.284	279.2575	298.8021	336.4149	372.4518	397.9404	402.5293	503.7845	629.0093	702.8567	767.328	772.2024	799.9963	896.7053	903.4037	944.8812	959.8624	977.4646	978.9888	990.4395	1025.3144	1053.3094	1075.6788	1115.6006	1132.0854	1134.2435	1162.556	1185.9481	1236.8647	1274.8121	1295.3358	1326.4628	1344.2232	1356.9344	1374.6601	1389.4215	1413.9815	1415.5084	1484.317	1487.4489	1495.4323	1500.202	1505.3824	1514.4199	1692.0627	2994.074	2999.9711	3001.591	3010.5095	3028.8532	3036.3037	3043.0224	3065.5902	3075.0393	3100.0598	3104.2304	3177.0231	3202.8574	3824.0868
CCC1(CO)CC=CC1	CC[C@@]1(CO)CC=CC1	
InChI=1S/C8H14O/c1-2-8(7-9)5-3-4-6-8/h3-4,9H,2,5-7H2,1H3	InChI=1S/C8H14O/c1-2-8(7-9)5-3-4-6-8/h3-4,9H,2,5-7H2,1H3
