19
gdb 78173	2.33699	1.58615	1.25673	2.5759	75.44	-0.2349	-0.0097	0.2252	1078.2592	0.15946	-423.046131	-423.037761	-423.036817	-423.078823	32.63	
C	 0.0403980111	 1.6041697757	-0.0204483814	-0.405091
C	 0.0226309827	 0.0737483273	 0.020207713	 0.019665
C	 0.6251446607	-0.6186663799	-1.2211557655	-0.343116
C	 1.2583360933	-1.9166025992	-0.7116149608	 0.416826
O	 1.4864934631	-2.9012888438	-1.3710760921	-0.335872
C	 1.5004662571	-1.7904675454	 0.7625289836	-0.234006
C	 2.2498111698	-0.542564477	 1.2280404561	 0.093354
O	 2.9552639132	 0.279635858	 0.3456767267	-0.410637
C	 0.7652861038	-0.5267052257	 1.2239892466	-0.09801
H	 1.0645909487	 1.9761883483	-0.1053239859	 0.141379
H	-0.5356098525	 1.97787881	-0.8735820126	 0.112287
H	-0.4018393422	 2.0265174928	 0.8884511948	 0.108963
H	-1.0197997691	-0.2574163094	 0.1125646976	 0.082414
H	-0.1065426685	-0.8371854068	-2.0022014543	 0.120205
H	 1.4201722146	-0.0112711769	-1.6664672313	 0.134396
H	 1.5921177992	-2.7012572395	 1.3415107367	 0.104016
H	 2.7219345597	-0.656331641	 2.2038297299	 0.101739
H	 3.7753015216	-0.1667602926	 0.1072978051	 0.295878
H	 0.2604843237	-0.500179245	 2.1840663639	 0.095612
96.2863	142.8776	204.0705	246.8609	283.2033	327.1279	364.7856	410.4889	468.7782	514.9192	610.7697	650.8534	667.1566	747.2961	781.0432	823.7745	900.6479	905.7329	956.062	979.4823	1028.8755	1039.1674	1043.7938	1111.3641	1117.1411	1150.7386	1196.0967	1207.0478	1230.6218	1269.4817	1276.2795	1321.306	1336.1536	1355.2591	1375.7228	1409.1602	1446.3859	1462.908	1497.6851	1506.027	1827.5517	3016.2732	3034.4575	3059.6236	3095.3309	3101.2202	3113.9142	3126.7387	3163.7971	3192.253	3800.0377
CC1CC(=O)C2C(O)C12	C[C@H]1CC(=O)[C@H]2[C@@H](O)[C@@H]12	
InChI=1S/C7H10O2/c1-3-2-4(8)6-5(3)7(6)9/h3,5-7,9H,2H2,1H3	InChI=1S/C7H10O2/c1-3-2-4(8)6-5(3)7(6)9/h3,5-7,9H,2H2,1H3/t3-,5-,6+,7-/m0/s1
