17
gdb 127275	3.36544	1.1854	0.90874	1.9696	73.	-0.2045	0.0185	0.2229	1258.7048	0.136861	-455.156663	-455.14786	-455.146916	-455.190625	32.037	
C	-0.1594459072	 1.4187309928	 0.0243145101	-0.320737
N	-0.0854650887	-0.0247612259	-0.0078053636	 0.055416
C	 0.1004328323	-0.8174970805	-1.1043365961	-0.135207
C	 0.2034949515	-2.1082275322	-0.6284666545	 0.190949
O	 0.3830428676	-3.2430829493	-1.3503582794	-0.450694
C	 0.0724980237	-1.9937297468	 0.775845176	 0.195146
C	 0.082225119	-3.1363348662	 1.7403230154	-0.191545
O	 0.9941151314	-4.16100875	 1.3069996998	-0.419726
N	-0.0862438093	-0.7195894295	 1.1400386476	-0.331795
H	 0.8321224245	 1.8758138073	-0.0725994101	 0.137567
H	-0.7965114345	 1.7786666611	-0.7879978809	 0.138425
H	-0.5931097456	 1.7081942491	 0.9814958096	 0.158321
H	 0.14115316	-0.4173032555	-2.1037749111	 0.129677
H	 0.5920236583	-3.9373577962	-0.705545737	 0.299101
H	 0.3157209483	-2.7853501879	 2.752986028	 0.123021
H	-0.8911130035	-3.6382880961	 1.7810003851	 0.129602
H	 1.881419072	-3.7854440741	 1.3407381311	 0.292478
60.8577	91.4208	163.5723	190.5597	238.1157	300.0063	337.7996	391.3925	428.1807	510.4662	617.1598	623.8291	647.7677	677.4265	743.1674	766.5189	823.156	974.6334	1012.475	1029.3615	1082.5513	1145.7559	1165.5523	1186.0917	1221.6488	1314.6653	1354.1555	1368.918	1409.8463	1415.6852	1456.7229	1480.8643	1490.224	1500.7267	1510.4523	1539.6385	1650.0071	3028.4027	3032.9428	3069.2063	3100.7703	3158.6887	3270.883	3692.6833	3800.1302
CN1C=C(O)C(CO)=N1	Cn1cc(O)c(CO)n1	
InChI=1S/C5H8N2O2/c1-7-2-5(9)4(3-8)6-7/h2,8-9H,3H2,1H3	InChI=1S/C5H8N2O2/c1-7-2-5(9)4(3-8)6-7/h2,8-9H,3H2,1H3
