17
gdb 20869	6.72465	1.0457	0.96687	3.9837	70.38	-0.2486	0.0026	0.2512	1220.3449	0.143665	-360.053895	-360.046038	-360.045093	-360.087229	28.04	
C	-0.0246685122	 1.5800730788	-0.0223388512	-0.382366
C	 0.1562543947	 0.0624984812	-0.0907404693	-0.154506
C	 0.6237231314	-0.5408039615	 1.2468118636	-0.291971
C	 0.7617229266	-2.029477604	 1.2012204737	 0.32087
C	 1.8872518204	-2.8209904058	 1.2110362836	-0.17875
N	 1.4047913882	-4.0841896397	 1.1279960981	-0.14865
N	 0.061522408	-4.0949366928	 1.0704431882	-0.114743
N	-0.3272375823	-2.8541534894	 1.1137567174	-0.247801
H	 0.9129862373	 2.0823348444	 0.2421357596	 0.110476
H	-0.3581071846	 1.98356526	-0.9833262877	 0.11378
H	-0.7704869539	 1.8561864909	 0.7314002426	 0.117105
H	-0.7855160001	-0.4177665155	-0.3779942476	 0.122807
H	 0.8830062216	-0.1932915651	-0.8718997567	 0.093724
H	 1.5820447403	-0.0956033047	 1.5390368978	 0.096998
H	-0.0979840933	-0.2751298589	 2.0288740959	 0.118881
H	 2.9397747513	-2.6010741475	 1.2711249927	 0.142835
H	 1.9063501267	-4.9576135601	 1.1143631392	 0.281311
39.4669	89.4636	121.3211	239.2959	309.8839	329.949	383.9716	566.8008	677.6624	720.6025	744.5124	761.3214	797.4614	872.3257	899.1032	987.8366	1032.3196	1048.6203	1050.0342	1091.3903	1112.8856	1132.1305	1246.1644	1268.6003	1299.8301	1317.5497	1331.4943	1360.3952	1389.0827	1411.8644	1477.9046	1488.1405	1493.0626	1498.2319	1509.6315	1592.5208	3024.6763	3027.7926	3035.0414	3059.3492	3077.1115	3098.8751	3103.4823	3282.3551	3659.9994
CCCC1=CNN=N1	CCCc1c[nH]nn1	
InChI=1S/C5H9N3/c1-2-3-5-4-6-8-7-5/h4H,2-3H2,1H3,(H,6,7,8)	InChI=1S/C5H9N3/c1-2-3-5-4-6-8-7-5/h4H,2-3H2,1H3,(H,6,7,8)
