18
gdb 17943	3.19032	2.25204	2.06667	1.7372	70.51	-0.2219	0.095	0.3169	784.4065	0.155544	-347.778847	-347.77218	-347.771236	-347.809248	26.774	
C	-0.002129579	 1.5338156844	-0.0315648195	-0.519524
C	 0.0009947351	 0.0361731614	 0.0112622236	 0.303703
C	 0.4729649849	-1.0410698192	-0.9829369266	-0.150507
C	 1.2331307719	-1.7750622988	 0.1198571575	-0.229326
C	 0.4796060965	-0.8963291011	 1.1705121591	-0.119561
C	-0.8103674129	-1.5902487257	 1.6012233338	-0.079897
O	-1.5117968424	-1.8261426345	 0.3718942503	-0.272164
C	-0.9841065045	-0.9145336796	-0.5701290007	 0.070932
H	 1.0029698939	 1.9454739571	 0.1175871993	 0.118214
H	-0.3672979358	 1.8974405364	-0.9978928677	 0.121437
H	-0.6522605118	 1.9546221558	 0.7451125615	 0.121476
H	 0.7855944864	-0.9235586397	-2.0154508555	 0.077751
H	 1.0951295642	-2.8593901818	 0.196490613	 0.09713
H	 2.3018115992	-1.5483712004	 0.0950919057	 0.099884
H	 1.067450771	-0.4662785906	 1.9813745519	 0.071194
H	-0.6443731079	-2.5557697576	 2.0907879046	 0.105106
H	-1.4119441578	-0.953615211	 2.2695348804	 0.087654
H	-1.7070246611	-0.5956495753	-1.3124152109	 0.096498
192.5834	198.0981	249.7279	271.6357	381.1451	499.5721	582.2918	634.2121	724.8438	777.6165	826.2656	861.2977	884.1841	888.2014	948.8372	968.1679	1002.6612	1010.8756	1031.3895	1051.2183	1078.499	1097.9913	1123.2768	1157.8779	1169.9763	1213.0258	1234.7938	1244.1142	1285.4129	1293.4225	1318.9859	1373.4369	1415.3408	1459.2594	1486.9677	1495.1177	1500.0225	1512.9876	2976.3172	3018.5512	3037.9851	3068.8118	3076.0922	3092.4087	3098.3939	3117.139	3160.6377	3184.4082
CC12C3CC1COC23	C[C@@]12[C@H]3C[C@@H]1CO[C@@H]23	
InChI=1S/C7H10O/c1-7-4-2-5(7)6(7)8-3-4/h4-6H,2-3H2,1H3	InChI=1S/C7H10O/c1-7-4-2-5(7)6(7)8-3-4/h4-6H,2-3H2,1H3/t4-,5+,6-,7+/m1/s1
