20
gdb 88498	2.21792	1.44287	1.18758	1.1227	85.81	-0.2167	0.0456	0.2622	1166.8454	0.169022	-365.928095	-365.918744	-365.917799	-365.962036	35.73	
C	 0.3245454159	 1.5336205233	-0.5262754806	-0.325073
N	 0.0994685166	 0.1509310346	-0.1232845333	-0.090034
C	 1.2352825031	-0.7646671798	-0.1235872234	-0.272107
C	 0.6127746825	-0.3324959014	 1.1586687233	-0.055995
C	 1.3384180849	 0.5340976007	 2.1680034053	 0.172041
C	 0.4610284745	 1.3590168067	 3.111196786	-0.288325
C	 1.1610091482	 0.1458312909	 3.6357255738	-0.308661
C	 2.6202987687	 1.0861375097	 1.816925775	 0.23454
C	 3.7021720945	 1.5455544883	 1.5559229864	-0.44508
H	 1.3106598241	 1.9356313029	-0.2576937211	 0.122509
H	 0.2115659082	 1.5978861702	-1.613328719	 0.120041
H	-0.4427313643	 2.1686742367	-0.0715562193	 0.11835
H	 1.0509771678	-1.7587744243	-0.5241005602	 0.109162
H	 2.2208851732	-0.3571321131	-0.3419224703	 0.120511
H	-0.0799424472	-1.0179125951	 1.6461917975	 0.084494
H	 0.8285604757	 2.3348959279	 3.4041744208	 0.129991
H	-0.6089717148	 1.3046421894	 2.9426909	 0.127155
H	 0.5762780262	-0.7451135862	 3.8378743357	 0.123523
H	 2.0163292972	 0.2845146638	 4.2853929287	 0.131031
H	 4.6538058652	 1.9505023448	 1.3156976846	 0.191927
57.3325	142.6871	152.7323	203.0367	229.0431	251.3896	306.0393	341.4972	417.9379	478.6106	554.7928	567.7428	588.0477	647.2979	676.115	761.4633	783.6307	859.5093	882.5469	917.7101	956.4662	976.9267	1006.3882	1044.3317	1066.3186	1086.7618	1106.441	1134.7032	1140.6266	1171.4669	1197.1761	1206.8262	1255.106	1307.76	1359.1418	1403.2422	1450.059	1467.4781	1492.6075	1495.6504	1504.5005	1512.4611	2226.9775	3008.7517	3076.8166	3091.8853	3098.3935	3100.2842	3139.5465	3143.0561	3177.0985	3225.6109	3239.9318	3502.0303
CN1CC1C1(CC1)C#C	CN1C[C@H]1C1(CC1)C#C	
InChI=1S/C8H11N/c1-3-8(4-5-8)7-6-9(7)2/h1,7H,4-6H2,2H3	InChI=1S/C8H11N/c1-3-8(4-5-8)7-6-9(7)2/h1,7H,4-6H2,2H3/t7-,9?/m0/s1
