21
gdb 115880	2.48579	1.43914	1.07509	2.1876	78.55	-0.2503	0.087	0.3372	1214.2111	0.181492	-424.225845	-424.216683	-424.215739	-424.259632	34.416	
C	 0.1176793223	 1.5218795906	 0.1407655003	-0.385403
C	 0.023789756	 0.0008552109	-0.0042271928	-0.18827
C	 0.6581309796	-0.5179512265	-1.2912341484	 0.084309
O	 2.0366600359	-0.1354443746	-1.3107669459	-0.275454
C	 2.8175519269	-1.1287830507	-1.9608150764	-0.10824
C	 2.0188681781	-2.4059492427	-1.8472338115	-0.046469
O	 1.5615609811	-2.6578994995	-0.5122639905	-0.293399
C	 0.6588991504	-2.0364107991	-1.4458304222	 0.385341
C	-0.5983115268	-2.7833051592	-1.7900455177	-0.496752
H	 1.1614714126	 1.8447147834	 0.1281635848	 0.138228
H	-0.4020095318	 2.032086719	-0.6783402039	 0.108241
H	-0.3339717937	 1.854122545	 1.0803421421	 0.108999
H	 0.5224969195	-0.4953572037	 0.8350419263	 0.117547
H	-1.028196404	-0.3119936857	 0.0119098442	 0.09058
H	 0.1364630944	-0.0869869022	-2.1654721728	 0.060771
H	 2.9822360176	-0.8906288325	-3.0251388168	 0.092048
H	 3.7907343456	-1.1733857976	-1.4603329827	 0.117491
H	 2.2559166147	-3.2771331881	-2.4528717592	 0.096899
H	-1.3442722418	-2.6784355757	-0.9949546266	 0.134263
H	-1.0384717562	-2.3984122322	-2.7159386839	 0.12558
H	-0.3876081905	-3.8476780189	-1.9172067263	 0.133688
91.7798	117.1256	169.2394	184.3524	226.9983	236.0573	279.6318	314.0448	428.2292	458.0848	523.5017	587.5238	701.7302	762.9906	801.426	858.4759	880.7375	928.8166	939.838	963.9548	981.0686	1034.2959	1065.0741	1070.7857	1113.218	1118.6605	1131.5285	1161.8452	1228.6752	1250.6133	1288.7354	1293.1959	1325.4791	1346.9658	1377.7967	1402.1057	1407.9789	1413.3669	1465.8189	1479.2762	1488.1652	1496.1712	1500.7586	1505.943	1509.0096	2935.1695	2968.8895	3027.8845	3035.4403	3037.9788	3067.9444	3078.1057	3099.3284	3101.5534	3126.3565	3126.8967	3149.2746
CCC1OCC2OC12C	CC[C@H]1OC[C@H]2O[C@@]12C	
InChI=1S/C7H12O2/c1-3-5-7(2)6(9-7)4-8-5/h5-6H,3-4H2,1-2H3	InChI=1S/C7H12O2/c1-3-5-7(2)6(9-7)4-8-5/h5-6H,3-4H2,1-2H3/t5-,6-,7+/m1/s1
