20
gdb 81459	3.02106	1.60736	1.46958	0.2753	77.6	-0.2069	0.0889	0.2959	998.6035	0.172827	-403.085343	-403.078033	-403.077089	-403.116522	30.543	
C	-0.0186290453	 1.5809760672	 0.0231970728	-0.418008
C	 0.0174040657	 0.0626145457	-0.070415806	 0.041931
C	 1.1473255652	-0.5904228993	-0.9038993145	 0.110747
C	 1.9678871675	-0.5164586867	 0.3984959954	-0.206439
N	 0.6488427427	-0.5725142554	 1.15866007	-0.147517
C	 0.35754758	-2.0086992866	 1.2129428904	-0.024647
C	-0.8538913341	-2.6470017765	 0.5821563056	-0.340097
C	 0.4957733763	-2.7403999526	-0.1023769862	 0.095519
O	 0.7918948133	-1.9376186068	-1.2236110637	-0.277077
H	 0.9671639243	 2.0191869276	 0.2001282287	 0.119599
H	-0.4147306586	 2.0058823757	-0.9052535105	 0.116854
H	-0.6709439719	 1.8860563943	 0.8467191855	 0.12966
H	-0.9856918311	-0.2978894178	-0.3012145141	 0.074013
H	 1.5062590185	-0.1429651924	-1.8337926948	 0.073754
H	 2.6586094219	-1.3335104358	 0.6167013465	 0.108847
H	 2.4668130635	 0.4414655416	 0.551482682	 0.109532
H	 0.7512012589	-2.4667397344	 2.1161269729	 0.095517
H	-1.2179905106	-3.5501079299	 1.0614188156	 0.112862
H	-1.634130899	-2.0479366125	 0.1307633939	 0.128566
H	 0.9791765528	-3.7098995254	-0.1701415694	 0.096383
182.2443	213.2049	255.8648	300.7229	316.1675	456.6099	469.3073	497.5932	525.1906	680.6394	739.0192	781.4349	813.1054	828.4485	843.7322	878.6077	900.7449	942.7034	972.6806	1006.1441	1023.2123	1044.2969	1062.1276	1075.2401	1096.0054	1111.7375	1147.6202	1154.4986	1173.8158	1193.0979	1223.1897	1245.1618	1255.3501	1291.5664	1329.724	1355.1757	1386.4087	1395.0013	1409.6877	1481.1821	1487.1145	1496.053	1505.3314	3039.6437	3073.2581	3084.2864	3095.3802	3109.2053	3120.3773	3134.7711	3136.0165	3140.4962	3153.2074	3228.9891
CC1C2CN1C1CC1O2	C[C@H]1[C@H]2CN1[C@H]1C[C@H]1O2	
InChI=1S/C7H11NO/c1-4-7-3-8(4)5-2-6(5)9-7/h4-7H,2-3H2,1H3	InChI=1S/C7H11NO/c1-4-7-3-8(4)5-2-6(5)9-7/h4-7H,2-3H2,1H3/t4-,5-,6+,7+/m0/s1
