15
gdb 10113	2.8434	1.45861	1.10897	3.0942	64.77	-0.2562	0.019	0.2752	1062.0864	0.117174	-399.781014	-399.772255	-399.771311	-399.815141	30.699	
O	 0.0833866871	 1.6236087014	-0.0144570197	-0.423314
C	 0.1979147273	 0.2163560693	-0.1143884199	-0.079135
C	-1.1676993922	-0.4683907716	 0.1041725357	-0.158109
N	-1.6817842662	-0.1157147252	 1.4198645978	-0.258921
C	-2.0712351056	-1.047224523	 2.3304513409	 0.160497
O	-2.0731052922	-2.2455396757	 2.1449014863	-0.323054
C	-2.0909104942	-0.0703505845	-0.9656741714	 0.309543
C	-2.7982384449	 0.3173231928	-1.8575301264	-0.453885
H	-0.468609157	 1.9161305137	-0.7501786944	 0.292324
H	 0.6128739558	-0.0967121379	-1.0820555406	 0.108879
H	 0.8813512332	-0.0975872166	 0.6792121765	 0.125741
H	-1.0454354783	-1.5566147183	 0.1066960541	 0.150561
H	-1.6620826776	 0.8618733518	 1.667055321	 0.258595
H	-2.3919034188	-0.5799464985	 3.2816665919	 0.082517
H	-3.4500924764	 0.6211800122	-2.6396094419	 0.207762
38.428	107.5636	135.7123	167.496	239.0223	254.8333	336.6913	407.3315	469.1434	550.5332	569.875	648.7263	660.5878	687.888	743.9124	894.333	913.871	1016.5003	1035.9846	1079.8741	1103.1084	1197.2289	1222.1053	1279.4176	1349.5471	1386.8172	1421.519	1426.5609	1493.5087	1510.8719	1801.7285	2230.0551	2947.6871	3015.7275	3074.3858	3101.5453	3499.2935	3631.3084	3782.7892
OCC(NC=O)C#C	OC[C@@H](NC=O)C#C	
InChI=1S/C5H7NO2/c1-2-5(3-7)6-4-8/h1,4-5,7H,3H2,(H,6,8)	InChI=1S/C5H7NO2/c1-2-5(3-7)6-4-8/h1,4-5,7H,3H2,(H,6,8)/t5-/m0/s1
