21
gdb 96027	2.67615	1.15396	0.90577	1.8345	83.85	-0.2443	0.055	0.2992	1342.2274	0.182097	-387.063811	-387.054341	-387.053396	-387.098499	35.228	
C	-0.4976757434	 1.4405702181	-0.0615447472	-0.424315
C	 0.047411119	 0.0136896064	-0.0195194567	-0.010268
C	 1.1560157257	-0.2689276328	-1.0612758475	-0.072495
O	 2.075666217	-1.1828873856	-0.4668463053	-0.262412
C	 1.5381741332	-1.6370266825	 0.7712492977	-0.08297
C	 0.7012673745	-0.4681474027	 1.3013129089	-0.019899
C	 1.5858579951	 0.5982555899	 1.989855621	-0.372895
C	 2.1800926723	 0.1161515451	 3.2308868881	 0.292066
C	 2.6546611138	-0.3022900593	 4.2532916214	-0.429961
H	 0.2933869633	 2.1833584411	 0.0821980049	 0.122712
H	-0.9640704053	 1.6454912374	-1.0309766835	 0.118224
H	-1.2588751585	 1.6014513517	 0.7090061276	 0.119389
H	-0.785665257	-0.6721512494	-0.2169043383	 0.080453
H	 0.7421682416	-0.6936187608	-1.98608616	 0.095494
H	 1.7031326295	 0.6445458093	-1.3312138475	 0.096161
H	 0.9071529379	-2.5283723682	 0.6228123254	 0.084116
H	 2.3715361584	-1.9098243071	 1.4240809604	 0.120352
H	-0.0544867123	-0.808363537	 2.01531064	 0.081945
H	 2.382104942	 0.9094600816	 1.3019373901	 0.141772
H	 0.9913436207	 1.4938030852	 2.2034775626	 0.128643
H	 3.0817864325	-0.6585263205	 5.1576307979	 0.193889
65.06	75.3281	134.6835	157.8824	218.7121	261.838	329.2513	352.9373	357.1624	479.2849	509.8139	617.1005	630.8172	639.725	700.288	837.5568	859.0203	906.8669	933.8795	954.5714	965.2679	976.2281	1010.2492	1066.7932	1084.861	1120.8829	1164.6816	1177.0603	1213.9146	1219.7658	1246.5264	1271.665	1324.15	1335.1519	1353.453	1373.1914	1383.9982	1408.3986	1418.5908	1470.8834	1499.0931	1506.5003	1520.0801	1532.5021	2236.76	2970.3919	3000.1675	3015.4299	3029.0433	3033.7793	3037.9375	3060.9358	3075.8624	3095.1833	3097.0084	3106.0817	3506.9443
CC1COCC1CC#C	C[C@H]1COC[C@H]1CC#C	
InChI=1S/C8H12O/c1-3-4-8-6-9-5-7(8)2/h1,7-8H,4-6H2,2H3	InChI=1S/C8H12O/c1-3-4-8-6-9-5-7(8)2/h1,7-8H,4-6H2,2H3/t7-,8+/m0/s1
