16
gdb 32235	2.68397	1.55443	0.99262	3.1609	76.45	-0.2063	-0.0144	0.192	1142.3994	0.126822	-434.127483	-434.119519	-434.118575	-434.16	29.859	
C	 0.0498025659	 1.4600659246	-0.1065490071	-0.327189
N	-0.1398907133	 0.0404108073	 0.1059975454	-0.382995
C	 0.5573572308	-0.6350993339	 1.0847465065	 0.216493
C	 1.2554936345	-0.0490373484	 2.1378868978	-0.066874
N	 1.8786060751	-0.7592012268	 3.0941787276	-0.259808
C	 1.8144087757	-2.0748521174	 2.9885149051	 0.045715
N	 1.1914686715	-2.7602505047	 2.0145878657	-0.345941
C	 0.5826984301	-2.0484923042	 1.0931005512	 0.382762
O	-0.052046217	-2.6862826011	 0.0838839039	-0.429676
H	 1.1007881555	 1.735551895	-0.2857662374	 0.121781
H	-0.5417927295	 1.7687303914	-0.9705283618	 0.13146
H	-0.3047359718	 2.0312147606	 0.7589798687	 0.138616
H	-0.3389436112	-0.5118816292	-0.7126844646	 0.255513
H	 1.316815495	 1.0316439994	 2.2236982348	 0.105447
H	 2.3113486899	-2.6662797976	 3.7518342286	 0.112175
H	 0.0776404788	-3.6326586751	 0.2378712855	 0.30252
102.473	157.3102	192.1698	215.6492	319.5014	333.2146	432.5299	456.0288	534.2628	552.9375	564.8042	625.3432	629.44	795.1662	802.0457	902.5702	915.5152	959.9214	1069.6728	1140.9699	1156.1389	1166.3143	1195.488	1270.5924	1315.079	1358.8527	1372.1973	1444.2703	1473.3	1482.0525	1489.6354	1520.5288	1543.6437	1608.5855	1650.8308	2983.2976	3059.1681	3127.1207	3172.6162	3177.737	3633.5312	3766.0655
CNC1=CN=CN=C1O	CNc1cncnc1O	
InChI=1S/C5H7N3O/c1-6-4-2-7-3-8-5(4)9/h2-3,6H,1H3,(H,7,8,9)	InChI=1S/C5H7N3O/c1-6-4-2-7-3-8-5(4)9/h2-3,6H,1H3,(H,7,8,9)
