19
gdb 56501	2.56998	1.23301	1.04124	2.4647	81.59	-0.2659	0.0237	0.2896	1221.7777	0.15653	-382.049176	-382.038706	-382.037762	-382.083949	38.734	
C	-0.0826339984	 1.5729094335	 0.0337032982	-0.427623
C	-0.0374164316	 0.0329131751	-0.0320993576	-0.153827
C	-1.3832667076	-0.5272064786	 0.0607453242	 0.347003
C	-2.4982524397	-0.9610916743	 0.1733416529	-0.465382
C	 0.7187441314	-0.499125468	-1.3014664685	 0.07507
C	 0.7255224871	-2.036429846	-1.3323792605	-0.413454
N	 0.062198981	-0.0083369448	-2.5145352047	-0.506519
C	 2.126770546	-0.0279954006	-1.2144059953	 0.260029
N	 3.2172466277	 0.3572053307	-1.1870892488	-0.350529
H	 0.9246097332	 1.9931597257	-0.0364902378	 0.142633
H	-0.7021606426	 1.9802611035	-0.7696371669	 0.134986
H	-0.5238290943	 1.8902982901	 0.9811073021	 0.136793
H	 0.5418807875	-0.3232486302	 0.8298639418	 0.12175
H	-3.4831022196	-1.3476616626	 0.265737038	 0.198289
H	-0.3017747374	-2.3925951255	-1.4221108999	 0.15361
H	 1.3083897776	-2.3981181757	-2.1844360686	 0.127177
H	 1.1706688842	-2.4424153864	-0.4207456186	 0.135376
H	 0.1834464457	 0.9948124423	-2.6104101102	 0.24364
H	 0.4889068798	-0.4323001684	-3.3327597099	 0.240979
65.4495	129.2471	170.17	191.2023	212.1517	234.3936	250.8583	271.3241	303.7946	349.0667	374.6251	412.0112	492.7515	545.2989	581.636	610.0957	625.3105	652.3158	735.0957	824.4639	877.7916	907.9824	970.0836	1024.3429	1049.1678	1081.9683	1111.2369	1160.0671	1226.0389	1308.8943	1333.2216	1346.8422	1404.965	1408.0818	1487.3512	1491.1065	1495.2374	1506.7651	1663.9709	2237.0983	2336.9857	3023.2552	3049.3456	3051.8556	3123.6384	3127.2967	3130.1357	3152.0557	3503.0572	3504.42	3583.2171
CC(C#C)C(C)(N)C#N	C[C@@H](C#C)[C@@](C)(N)C#N	
InChI=1S/C7H10N2/c1-4-6(2)7(3,9)5-8/h1,6H,9H2,2-3H3	InChI=1S/C7H10N2/c1-4-6(2)7(3,9)5-8/h1,6H,9H2,2-3H3/t6-,7-/m0/s1
