18
gdb 88815	2.85388	1.37846	1.09189	3.4722	72.05	-0.2305	-0.0425	0.188	1130.4621	0.1474	-439.051367	-439.043103	-439.042159	-439.084414	31.665	
O	-0.5452165173	 0.7720232611	 1.6085916213	-0.437677
C	-0.132577997	 0.0643105079	 0.4843220443	 0.138522
C	-0.6345900823	-1.3141877047	 0.1472149404	-0.349846
C	-1.0157285334	-0.1299014922	-0.72954017	-0.070164
C	-2.4201257883	 0.421704564	-0.7493165656	-0.09692
N	-3.3993316005	-0.2302456413	-1.6783853174	-0.327212
C	-4.4681459127	-0.2691509267	-0.6460237357	-0.268903
C	-3.403048904	 0.0957125386	 0.3861543621	 0.389459
O	-3.3286606217	 0.0616211783	 1.5838563542	-0.311649
H	-1.4417046357	 0.4969261863	 1.8567050898	 0.301099
H	 0.9144087851	 0.2741555325	 0.2886314959	 0.104125
H	 0.0556531435	-2.0508390324	-0.2494761442	 0.112428
H	-1.4033712944	-1.7318281344	 0.7893260243	 0.121346
H	-0.5297559587	-0.0648250339	-1.7001100971	 0.09164
H	-2.3840983202	 1.5176460201	-0.871500543	 0.106866
H	-3.6317943985	 0.3378949464	-2.4846422104	 0.226724
H	-5.2441447106	 0.5059352949	-0.7220848833	 0.128781
H	-4.9548524735	-1.2419682848	-0.5181739858	 0.141379
77.8397	119.2078	179.329	196.7578	257.2512	377.6027	446.0198	457.7331	546.8861	559.5285	611.4729	656.9145	719.2227	780.8306	798.6317	842.9289	924.2398	953.346	984.0447	1006.3229	1013.7268	1055.7934	1070.8438	1089.6725	1101.7227	1126.2707	1147.2461	1159.8889	1223.0936	1240.7679	1297.9717	1337.9045	1360.7568	1368.9495	1389.224	1465.9567	1471.5607	1492.1929	1881.4483	2963.3427	3009.0108	3072.3177	3130.6893	3133.1195	3161.1615	3216.4888	3543.995	3680.1125
OC1CC1C1NCC1=O	O[C@H]1C[C@H]1[C@H]1NCC1=O	
InChI=1S/C6H9NO2/c8-4-1-3(4)6-5(9)2-7-6/h3-4,6-8H,1-2H2	InChI=1S/C6H9NO2/c8-4-1-3(4)6-5(9)2-7-6/h3-4,6-8H,1-2H2/t3-,4+,6-/m1/s1
