22
gdb 87625	2.38059	1.4605	1.10826	1.6469	88.33	-0.2216	0.0219	0.2435	1214.8217	0.194762	-367.209219	-367.200229	-367.199285	-367.242574	35.137	
C	-0.0343146719	 1.6623580948	 0.1915833446	-0.39796
C	-0.1539055462	 0.1600808921	 0.2874709643	-0.047527
N	 0.9363925045	-0.6393950868	-0.2996961631	-0.392945
C	 0.7138571973	-0.6926326521	 1.1589385515	 0.306503
C	 1.7548171716	-0.1411403064	 2.0710124771	-0.112215
C	 1.7212479243	-0.7358436384	 3.2629840779	-0.091353
C	 0.6414521644	-1.789661713	 3.3362541783	-0.276227
C	 0.2196884268	-1.9802052309	 1.8539625723	-0.055469
C	-1.248589576	-2.3511972119	 1.6609550453	-0.41427
H	 1.0033388822	 1.9836466538	 0.305956725	 0.124588
H	-0.3865689392	 2.014258915	-0.7842892879	 0.117494
H	-0.6362770081	 2.1528635228	 0.9644388061	 0.114519
H	-1.1652412315	-0.2135858087	 0.135715497	 0.077227
H	 0.5627154874	-1.4816928953	-0.7338879753	 0.22205
H	 2.4263553425	 0.6535317181	 1.7713701283	 0.100248
H	 2.3598666589	-0.4910580136	 4.1042866848	 0.093089
H	 0.9826550184	-2.7252901858	 3.7938052832	 0.102293
H	-0.2044889645	-1.439808472	 3.9466735408	 0.103486
H	 0.8372814562	-2.7938918289	 1.4473477119	 0.082356
H	-1.9114857821	-1.5825690484	 2.072008293	 0.119701
H	-1.5014734867	-2.4836657307	 0.6025752157	 0.109838
H	-1.4762757582	-3.2953041937	 2.1667870792	 0.114571
81.5952	155.4	167.3039	195.2455	251.4286	286.043	316.1486	399.3273	441.5923	481.7839	512.4956	552.9824	662.6751	748.441	773.6209	818.7839	866.4481	889.275	929.4392	957.7578	967.1673	973.089	1024.4762	1034.6129	1051.7394	1075.8619	1102.2922	1122.7868	1136.9035	1147.2886	1200.1572	1236.1841	1275.6075	1297.8316	1317.5937	1327.1897	1367.3604	1395.6337	1408.982	1412.6783	1454.4844	1487.5972	1488.3883	1497.7706	1498.5835	1502.4831	1680.3266	2993.5062	3001.2417	3026.2426	3034.0794	3054.184	3088.3409	3093.3827	3100.7632	3113.543	3131.9349	3189.1724	3219.3698	3472.1005
CC1NC11C=CCC1C	C[C@H]1N[C@]21C=CC[C@H]2C	
InChI=1S/C8H13N/c1-6-4-3-5-8(6)7(2)9-8/h3,5-7,9H,4H2,1-2H3	InChI=1S/C8H13N/c1-6-4-3-5-8(6)7(2)9-8/h3,5-7,9H,4H2,1-2H3/t6-,7-,8-/m1/s1
