18
gdb 111089	3.82168	1.11937	1.08507	1.612	71.74	-0.2287	-0.0191	0.2096	1156.8126	0.149527	-439.054236	-439.046666	-439.045722	-439.086503	29.7	
O	-0.0161552556	 1.3221833442	 0.5690042371	-0.417593
C	 0.0565209675	 0.0537122135	-0.0487484827	-0.102531
C	-1.3178491632	-0.6023566153	-0.0162110665	 0.026675
C	-1.4637186621	-2.1559575542	-0.0866296688	-0.161999
C	-1.142606563	-2.0887506735	 1.434867026	-0.206224
N	-1.8403731089	-0.7386311339	 1.4151806458	-0.147738
C	-3.235954344	-1.1791865593	 1.1359498144	-0.290462
C	-2.9873514106	-2.2297694409	 0.0176961617	 0.419088
O	-3.7756206737	-2.8981554816	-0.5894608005	-0.323029
H	-0.5109011126	 1.1833649067	 1.3883828156	 0.293322
H	 0.359113601	 0.2138733857	-1.0890024497	 0.115386
H	 0.8251043659	-0.5807528928	 0.4170787467	 0.090166
H	-1.9929440631	-0.0161680601	-0.6488345524	 0.094246
H	-0.9771129004	-2.8064072018	-0.8107588588	 0.090751
H	-1.5975847009	-2.828096284	 2.0992892203	 0.118877
H	-0.0853418477	-1.9850264262	 1.6727525563	 0.128139
H	-3.7015463045	-1.618753225	 2.0222058139	 0.134737
H	-3.8553073742	-0.3478118318	 0.7893447317	 0.138191
87.2236	153.1831	160.5696	318.1233	378.3658	459.3622	485.6694	499.0019	538.6879	619.9876	620.443	750.5276	800.8104	834.0105	850.9988	894.7825	966.1629	979.5709	1007.561	1025.1302	1061.5632	1071.3676	1092.884	1145.0093	1155.564	1184.4417	1207.6594	1220.0976	1235.4843	1251.515	1265.8867	1295.6294	1353.6597	1409.1511	1448.2369	1470.6529	1505.4891	1535.5867	1880.2258	2990.5612	3050.6199	3066.4398	3074.1137	3074.4697	3119.4034	3141.7086	3148.3873	3748.5979
OCC1C2CN1CC2=O	OC[C@H]1[C@H]2CN1CC2=O	
InChI=1S/C6H9NO2/c8-3-5-4-1-7(5)2-6(4)9/h4-5,8H,1-3H2	InChI=1S/C6H9NO2/c8-3-5-4-1-7(5)2-6(4)9/h4-5,8H,1-3H2/t4-,5+/m1/s1
