18
gdb 56010	4.14816	0.99167	0.83763	4.3825	74.45	-0.2325	0.0037	0.2362	1340.3694	0.148144	-439.124816	-439.116156	-439.115212	-439.15919	31.877	
N	 0.4013604056	 0.2175318681	 0.895329074	-0.50806
C	-0.1891037914	 0.1535044302	-0.3311342677	 0.360725
O	 0.054206369	 0.9344235829	-1.2315051343	-0.361467
C	-1.2329824439	-0.959399235	-0.4799398439	-0.293644
C	-0.7621464331	-2.3634824872	-0.0601164564	 0.058194
O	-0.4921402213	-2.420194536	 1.3540169899	-0.280417
C	-1.3218578951	-3.3937560703	 1.9913792696	-0.121435
C	-2.1250604727	-4.0012917108	 0.8778423167	-0.096306
C	-1.8012947066	-3.4305147702	-0.2756464614	-0.081505
H	 1.15193058	 0.8777756489	 1.0166235268	 0.252881
H	 0.2848892906	-0.5414519468	 1.5502514948	 0.270271
H	-2.1210057839	-0.70064079	 0.1088462222	 0.121036
H	-1.5196139237	-0.9705504298	-1.5341857476	 0.124709
H	 0.1723615166	-2.5968980723	-0.5940508488	 0.099624
H	-0.6892458574	-4.1304538701	 2.5092056154	 0.114135
H	-1.9521421637	-2.9116953793	 2.7544289132	 0.112274
H	-2.8502160103	-4.7891783418	 1.0354974843	 0.113702
H	-2.2076700084	-3.6560025206	-1.2530612367	 0.115283
44.0105	78.0222	112.9061	175.0259	279.256	329.9314	410.4749	416.3243	488.6766	568.6022	610.2498	703.7407	738.2094	759.8192	809.4033	836.8748	875.7591	943.2875	962.2817	973.2517	1017.771	1044.4928	1055.9088	1098.7802	1125.9075	1140.1661	1193.6692	1218.5342	1270.5951	1324.4078	1355.2925	1363.5546	1378.5598	1389.4789	1456.9218	1521.511	1617.5912	1693.3229	1799.9435	2979.3139	2983.9131	3003.7096	3046.4864	3115.7854	3211.412	3235.3551	3561.0687	3707.981
NC(=O)CC1OCC=C1	NC(=O)C[C@H]1OCC=C1	
InChI=1S/C6H9NO2/c7-6(8)4-5-2-1-3-9-5/h1-2,5H,3-4H2,(H2,7,8)	InChI=1S/C6H9NO2/c7-6(8)4-5-2-1-3-9-5/h1-2,5H,3-4H2,(H2,7,8)/t5-/m0/s1
