18
gdb 40596	4.57069	1.26729	1.20891	1.6825	75.95	-0.2319	0.0856	0.3175	1067.6883	0.148497	-401.81764	-401.810664	-401.809719	-401.849259	27.67	
C	 0.2557200529	 1.5061272129	 0.1685557689	-0.176712
O	 1.049550944	 0.4662452856	-0.414619403	-0.233349
C	-0.2797466555	 0.1476389873	 0.0031149908	 0.048955
C	-0.4644592496	-0.7772325492	 1.1727829039	 0.002897
C	 0.1950392245	-2.1570388277	 1.2453380694	-0.085815
C	 1.5351978131	-1.5002441149	 1.7024318773	 0.003687
C	 1.6500377192	-2.3557366083	 2.9663778468	-0.262396
C	 0.1611242648	-2.0485523813	 2.7986653483	 0.00205
N	 0.4606063449	-0.5832885461	 2.3726286435	-0.182067
H	 0.571401855	 1.8247734883	 1.1591360784	 0.137218
H	-0.0511025042	 2.2954094081	-0.5156876265	 0.113177
H	-0.9695967071	-0.0310755441	-0.8247314835	 0.092509
H	-1.5221945426	-0.7484481327	 1.4715184046	 0.074105
H	 0.0540581294	-3.0496839728	 0.6267134644	 0.066376
H	 2.3093352562	-1.0666052487	 1.0757350663	 0.110199
H	 1.957463707	-3.395994676	 2.833592027	 0.099571
H	 2.1460349518	-1.8904619766	 3.8223398583	 0.108867
H	-0.6836213437	-2.2599225638	 3.4578018852	 0.08073
87.1954	168.002	189.7928	326.6271	378.3087	484.8377	603.6074	703.6618	786.3646	813.9631	823.2174	851.1161	880.4899	886.6976	902.3347	926.3754	942.7502	992.9571	1022.6943	1027.9132	1032.8824	1080.8069	1101.8195	1126.2512	1140.2798	1150.3918	1162.4176	1173.6363	1180.1028	1185.3791	1228.9421	1242.822	1264.2403	1291.6066	1312.6214	1399.2605	1432.5775	1492.5804	1520.6091	3008.494	3046.5054	3057.5361	3085.3502	3093.9753	3095.3401	3122.8693	3163.9951	3190.5457
C1OC1C1C2C3CC2N13	C1O[C@H]1[C@H]1[C@H]2[C@@H]3C[C@H]2N13	
InChI=1S/C7H9NO/c1-3-6-4(1)8(3)7(6)5-2-9-5/h3-7H,1-2H2	InChI=1S/C7H9NO/c1-3-6-4(1)8(3)7(6)5-2-9-5/h3-7H,1-2H2/t3-,4+,5-,6-,7+/m1/s1
