21
gdb 58649	1.7999	1.51153	1.14953	1.7361	85.18	-0.24	0.0493	0.2893	1225.0099	0.178887	-387.0463	-387.035806	-387.034862	-387.081114	39.486	
C	 0.21498685	 1.4284171761	 0.2996937532	-0.399873
C	-0.1416803005	-0.0262865726	-0.0317172481	-0.021891
C	-1.6524526535	-0.2127470389	-0.2261717455	-0.403091
C	 0.6363350441	-0.5215881469	-1.2592185947	 0.119652
C	 2.0622041932	-1.0419894584	-1.0483571093	-0.376334
C	 0.9547916166	-2.0033819765	-1.3709161079	 0.055612
O	 0.4356925578	-2.8336458228	-0.3755234365	-0.419219
C	 0.3752260985	 0.1676916379	-2.4964074113	 0.296035
C	 0.1577470662	 0.7456077845	-3.5296534408	-0.454301
H	 1.2895113217	 1.5469947953	 0.4735135854	 0.108532
H	-0.066861579	 2.096901046	-0.520359116	 0.125769
H	-0.312494686	 1.7578031256	 1.200628527	 0.107715
H	 0.1682162858	-0.6620123678	 0.8036061409	 0.082488
H	-2.0106834539	 0.362634976	-1.0862069785	 0.122582
H	-1.8948101659	-1.2659465252	-0.3929134738	 0.128312
H	-2.1994214711	 0.1277919111	 0.6590924816	 0.104659
H	 2.8069670548	-0.827060929	-1.8056263556	 0.123436
H	 2.4218292883	-1.0303956816	-0.0243267089	 0.117715
H	 0.9303317858	-2.4234245843	-2.3753072156	 0.101272
H	 1.1054262533	-3.4890961777	-0.1540626476	 0.291534
H	-0.0369756764	 1.2542758292	-4.4409590179	 0.189394
71.3748	138.1224	154.088	162.1208	218.6767	230.2891	249.1231	255.3882	328.1218	351.0644	389.9668	459.6803	497.3463	558.5282	575.3111	606.0621	646.4814	650.7367	819.2151	869.6365	906.29	931.0649	934.1089	971.1235	1005.85	1045.9089	1060.794	1105.2907	1139.4598	1173.1182	1194.7104	1260.2469	1267.4734	1310.7036	1344.8929	1370.4306	1397.189	1415.9025	1421.7097	1473.8005	1488.1251	1491.9954	1502.3324	1513.2436	2227.9944	3031.4661	3036.6574	3057.9049	3100.4626	3102.0758	3108.4167	3114.1501	3117.402	3131.9061	3227.5286	3502.8658	3806.2839
CC(C)C1(CC1O)C#C	CC(C)[C@]1(C[C@H]1O)C#C	
InChI=1S/C8H12O/c1-4-8(6(2)3)5-7(8)9/h1,6-7,9H,5H2,2-3H3	InChI=1S/C8H12O/c1-4-8(6(2)3)5-7(8)9/h1,6-7,9H,5H2,2-3H3/t7-,8-/m1/s1
