14
gdb 108713	3.51317	1.1098	0.84785	7.5856	67.65	-0.2363	-0.0856	0.1507	1254.9272	0.099743	-473.867414	-473.858807	-473.857862	-473.901517	30.193	
O	 0.0503548663	 1.4111106363	 0.0082682879	-0.39928
C	-0.0010259376	 0.0064124839	 0.0021816509	-0.176112
C	-1.4289428684	-0.4284716955	 0.0124995621	 0.363981
C	-2.5466611075	 0.3345448905	 0.0228717651	-0.338411
C	-3.6979043269	-0.5599966501	 0.0298008793	 0.295407
O	-4.8847371069	-0.3410231564	 0.0390521316	-0.303185
C	-3.0840606802	-2.013273111	 0.0218124442	 0.329445
O	-3.6459872179	-3.0736926019	 0.02352605	-0.315083
N	-1.7102467077	-1.7959002761	 0.0112913249	-0.408045
H	 0.9721484877	 1.6836962962	-0.0023758831	 0.30262
H	 0.4868437749	-0.427267327	-0.8890327299	 0.120656
H	 0.5023566036	-0.4354725147	 0.8806714963	 0.120492
H	-2.5694193454	 1.4110886476	 0.0254701828	 0.140749
H	-1.0276460142	-2.536147152	 0.004953538	 0.266767
46.9552	117.8538	149.1205	178.62	202.3225	307.5762	330.9188	400.8537	473.585	559.8678	596.2502	624.5149	673.3734	745.3391	767.8361	848.3423	978.9782	1033.3926	1049.5501	1107.7248	1155.0764	1218.933	1245.5464	1250.6777	1294.3565	1415.7385	1479.3435	1501.7884	1654.5161	1818.8286	1867.856	2944.9369	2962.945	3283.2638	3651.0361	3844.3556
OCC1=CC(=O)C(=O)N1	OCC1=CC(=O)C(=O)N1	
InChI=1S/C5H5NO3/c7-2-3-1-4(8)5(9)6-3/h1,7H,2H2,(H,6,8,9)	InChI=1S/C5H5NO3/c7-2-3-1-4(8)5(9)6-3/h1,7H,2H2,(H,6,8,9)
