19
gdb 122737	10.32301	0.40723	0.39563	4.039	86.24	-0.2674	-0.0616	0.2058	2674.3436	0.155331	-422.99364	-422.982684	-422.98174	-423.031931	35.861	
C	-0.036599967	 1.5064054423	 0.0583622713	-0.384441
C	 0.012782174	-0.0219276334	-0.0104513666	-0.186038
C	 0.7251684309	-0.5207077538	-1.2591038701	-0.023141
O	 0.7256106893	-1.9380525891	-1.2431672642	-0.245242
C	 1.368095413	-2.4902944239	-2.3681941752	-0.211478
C	 1.3421570341	-3.9432103325	-2.3053905835	 0.048167
C	 1.3417366151	-5.150436318	-2.2904608706	 0.08688
C	 1.3160850107	-6.5882816372	-2.2284618604	 0.020771
O	 1.7960025235	-7.3193450737	-3.0642849614	-0.22958
H	 0.969863165	 1.9389819282	 0.0713981223	 0.118354
H	-0.5679422329	 1.9286084957	-0.8016828201	 0.118354
H	-0.5523552241	 1.8404857164	 0.9628284107	 0.121723
H	 0.5271896584	-0.4273935526	 0.8679556128	 0.112027
H	-1.0009391785	-0.4377077883	 0.0002148822	 0.112028
H	 0.2180512999	-0.1508216354	-2.1671327155	 0.088806
H	 1.7609858463	-0.1404932819	-1.290994049	 0.088808
H	 0.8815000979	-2.1634438	-3.3045530748	 0.130312
H	 2.4181546771	-2.1531451458	-2.4320661031	 0.130312
H	 0.8073482374	-6.989761747	-1.3285931649	 0.103377
35.2788	53.5116	57.6818	95.5716	139.0048	147.0275	189.1652	203.4796	228.4449	366.9574	378.0204	399.2502	532.8008	628.0795	764.8973	840.6197	900.4851	917.0669	1010.3182	1012.0349	1021.6197	1054.7422	1135.9492	1149.6684	1168.3856	1190.7886	1249.9769	1268.2109	1315.41	1330.5332	1385.2874	1413.5534	1420.7118	1446.5509	1483.922	1492.4702	1499.8652	1507.1783	1527.6234	1768.6263	2333.5049	2921.4074	2942.2798	2951.7511	2961.6709	2975.8567	3032.9774	3042.9463	3075.6478	3102.1867	3111.5933
CCCOCC#CC=O	CCCOCC#CC=O	
InChI=1S/C7H10O2/c1-2-6-9-7-4-3-5-8/h5H,2,6-7H2,1H3	InChI=1S/C7H10O2/c1-2-6-9-7-4-3-5-8/h5H,2,6-7H2,1H3
