15
gdb 129641	2.34811	1.91402	1.05887	1.8198	77.18	-0.1931	-0.0441	0.149	1056.0157	0.114283	-450.104608	-450.09658	-450.095636	-450.136857	30.745	
N	 0.0033388506	 1.3845061496	 0.1087173113	-0.570073
C	-0.0508398849	 0.0083048429	 0.0573370713	 0.385703
C	-1.2079451399	-0.703383238	-0.0001893787	 0.130481
N	-2.4560156346	-0.0538062813	-0.0808450365	-0.619761
C	-1.1292794812	-2.1369811087	-0.062912559	 0.235506
N	-2.1952221648	-2.8603115441	-0.1708920265	-0.577421
C	 0.2476197891	-2.6269612992	 0.015233838	-0.024162
N	 1.3270907807	-1.9341887387	 0.114279221	-0.079476
O	 1.1809963758	-0.5536474863	 0.1276912085	-0.273123
H	 0.9009496278	 1.7676681502	-0.155283606	 0.265729
H	-0.7736580834	 1.8162482961	-0.3775746616	 0.270863
H	-2.6487767456	 0.5205128042	 0.7338604218	 0.246013
H	-3.1759615682	-0.7676922759	-0.1604058388	 0.266374
H	-1.9661016581	-3.8535435493	-0.2094010346	 0.209044
H	 0.4275083268	-3.7003948217	 0.0136862197	 0.134302
127.7426	175.3928	185.805	269.664	298.0599	325.0014	415.0697	487.6546	501.5055	521.2556	565.7895	604.2324	680.8403	709.3724	736.5757	805.6642	850.1228	898.8492	928.066	940.7065	1018.3731	1110.4363	1140.3673	1276.9725	1304.6711	1318.1702	1371.5881	1476.4577	1608.0024	1622.2113	1640.3262	1678.9128	1709.8368	3158.0817	3470.969	3483.5633	3532.6243	3568.4799	3646.926
NC1=C(N)C(=N)C=NO1	N[C]1C(=C([NH])C=NO1)N	
InChI=1S/C4H6N4O/c5-2-1-8-9-4(7)3(2)6/h1,5H,6-7H2	InChI=1S/C4H6N4O/c5-2-1-8-9-4(7)3(2)6/h1,5H,6-7H2
