23
gdb 100698	3.05968	0.75342	0.64501	1.8663	91.59	-0.2478	0.0402	0.288	1841.347	0.202069	-388.274341	-388.262374	-388.26143	-388.313099	41.705	
C	-0.177939525	 1.5532710484	 0.0744063041	-0.39738
C	 0.0037941645	 0.0339695295	 0.0016816728	-0.169246
C	 0.7895764785	-0.4533033846	-1.2292115592	 0.031862
C	 2.2588223176	-0.0143983794	-1.1985579728	-0.403326
C	 0.676890724	-1.9974492802	-1.3518415533	-0.053254
O	-0.6822485543	-2.4407553519	-1.3242344247	-0.421717
C	 1.3613007074	-2.5143356688	-2.5408249549	 0.022525
C	 1.8676491313	-2.9296262365	-3.5525454648	 0.098507
C	 2.4921848102	-3.4487861253	-4.7610294622	-0.501421
H	 0.7758888709	 2.082100331	 0.1665476919	 0.115314
H	-0.6825123632	 1.934136875	-0.8211329036	 0.110746
H	-0.789105557	 1.829574262	 0.9394454415	 0.112292
H	 0.513792038	-0.3191618763	 0.9093447389	 0.08744
H	-0.9766551406	-0.4503539261	-0.0060626035	 0.11298
H	 0.3182428173	-0.0322052609	-2.130250093	 0.063685
H	 2.3453527892	 1.0747613029	-1.1612428671	 0.115528
H	 2.7661576635	-0.4178956743	-0.3134818082	 0.111281
H	 2.7966652473	-0.3646397232	-2.0829925832	 0.124967
H	 1.1282704849	-2.4400953449	-0.4532834254	 0.108249
H	-1.0481365162	-2.2829614443	-2.2015296097	 0.279846
H	 2.0709736509	-4.4212531939	-5.0387081917	 0.151375
H	 2.3512896747	-2.7701603296	-5.6094364548	 0.147907
H	 3.5702939162	-3.5838201386	-4.6205263074	 0.151841
24.0383	50.6835	80.3326	82.6842	150.2192	205.4769	221.5777	233.0846	274.4277	286.0871	310.8699	338.6447	387.6171	398.6418	440.9405	545.74	578.8505	777.2355	785.537	844.1427	909.4596	975.7794	987.6092	1039.5382	1045.8667	1052.1149	1054.8917	1120.9917	1139.382	1172.163	1181.913	1249.7243	1271.4747	1303.2946	1345.5509	1365.0769	1379.6571	1406.595	1412.7559	1414.3995	1419.7032	1477.1411	1478.9205	1488.7721	1496.2466	1499.6153	1509.0576	1511.6999	2362.4259	2989.4516	3011.1908	3021.4863	3027.8852	3031.1617	3032.7405	3081.916	3088.8598	3089.7859	3096.5425	3100.3145	3108.504	3122.7343	3806.871
CCC(C)C(O)C#CC	CC[C@@H](C)[C@@H](O)C#CC	
InChI=1S/C8H14O/c1-4-6-8(9)7(3)5-2/h7-9H,5H2,1-3H3	InChI=1S/C8H14O/c1-4-6-8(9)7(3)5-2/h7-9H,5H2,1-3H3/t7-,8+/m1/s1
