13
gdb 131757	2.04347	1.75262	0.99386	2.691	66.15	-0.2865	-0.0531	0.2334	1101.0067	0.089765	-452.743378	-452.735528	-452.734584	-452.776771	27.652	
O	 0.1142320065	 1.2524568567	-0.658927989	-0.398965
C	-0.0213247543	 0.060501011	 0.0917943746	-0.184215
C	-1.427612882	-0.4673421577	 0.0491572536	 0.289179
N	-2.11689997	-0.6329020812	 1.1474447896	-0.183181
O	-3.3718061939	-1.1048599757	 0.7518643677	-0.155211
C	-3.4026832729	-1.2014226097	-0.5745504667	 0.011905
C	-2.207855998	-0.8133692418	-1.1070812924	-0.019194
C	-1.8327744169	-0.7721112524	-2.4704557812	 0.217747
N	-1.5282470745	-0.7496481358	-3.5867142758	-0.334232
H	-0.4008188077	 1.9404694395	-0.2237462657	 0.295638
H	 0.6561912386	-0.6632348626	-0.3719295279	 0.143419
H	 0.2749217352	 0.1792470976	 1.1416873186	 0.131547
H	-4.3210606	-1.5556373879	-1.0163153456	 0.185563
45.9507	119.0815	177.004	185.4143	298.1486	370.6259	413.2304	527.4951	555.1396	588.797	617.7181	689.8131	782.4516	874.5922	892.628	934.7371	981.6773	1077.1692	1166.3245	1191.6478	1205.7564	1300.9175	1375.869	1404.2503	1426.2406	1491.7835	1519.9424	1623.7393	2358.796	3031.017	3090.6725	3273.0451	3810.7934
OCC1=NOC=C1C#N	OCc1nocc1C#N	
InChI=1S/C5H4N2O2/c6-1-4-3-9-7-5(4)2-8/h3,8H,2H2	InChI=1S/C5H4N2O2/c6-1-4-3-9-7-5(4)2-8/h3,8H,2H2
