16
gdb 13433	3.72318	1.49868	1.32991	1.8464	65.73	-0.2424	0.0439	0.2863	953.0182	0.128823	-383.678588	-383.670428	-383.669484	-383.711018	30.913	
O	-0.3557338427	 1.1514200476	-0.3732416152	-0.432321
C	-0.1683613211	-0.2095749116	-0.1027151412	 0.033469
C	-0.3492000548	-0.5625700062	 1.3493047821	 0.085671
O	-0.7075415118	 0.4742434868	 2.2041439664	-0.423215
C	-1.3606585985	-1.0498315636	 0.3182440367	-0.10642
C	-2.7590393218	-0.4443352223	 0.3090671206	-0.373073
C	-3.1366331965	 0.108505387	-0.9915754304	 0.289225
C	-3.3971137139	 0.5734004822	-2.0711859829	-0.458124
H	-1.0772936397	 1.2381343926	-1.011532648	 0.300726
H	 0.6222944755	-0.6816047886	-0.6821798158	 0.094546
H	 0.3084458522	-1.2908124744	 1.8144770995	 0.102383
H	-0.6050046446	 1.2867953007	 1.6857561673	 0.298024
H	-1.3071890952	-2.0975502936	 0.0394007233	 0.097254
H	-3.4879658549	-1.2061156559	 0.607770039	 0.138578
H	-2.8095917434	 0.340633136	 1.0722760681	 0.150467
H	-3.6626927388	 0.9687014133	-3.0206562295	 0.20281
73.844	124.5112	218.1768	238.2899	291.1713	344.3361	430.8772	445.0655	515.5738	568.0229	619.8325	634.5596	649.2632	664.9553	775.0736	787.6974	894.1363	942.8973	961.8534	1034.6757	1063.0025	1114.0141	1118.3523	1167.5221	1225.6907	1246.5639	1314.4733	1329.4344	1345.7422	1375.3159	1399.0953	1447.678	1474.4762	2224.7336	3037.9264	3071.6561	3120.7644	3148.5932	3160.901	3500.9201	3711.1997	3734.0478
OC1C(O)C1CC#C	O[C@H]1[C@@H](O)[C@H]1CC#C	
InChI=1S/C6H8O2/c1-2-3-4-5(7)6(4)8/h1,4-8H,3H2	InChI=1S/C6H8O2/c1-2-3-4-5(7)6(4)8/h1,4-8H,3H2/t4-,5+,6-
