14
gdb 33267	13.92863	0.45464	0.45444	1.073	116.68	-0.2292	-0.0561	0.1731	2288.763	0.099871	-362.31003	-362.301205	-362.30026	-362.344358	31.43	
C	 0.0898487608	-6.3146978093	-0.0514522509	-0.702068
C	 0.0703712258	-5.1050744363	-0.0355941211	 0.175889
C	 0.0491723735	-3.7530003218	-0.017234537	-0.037055
C	 0.0301168436	-2.5340874959	-0.0014110567	 0.610747
C	 0.0112942373	-1.1850104389	 0.0175556211	-0.411253
C	-0.0000883669	 0.0299939779	 0.0440017413	 0.265853
C	-0.0104046585	 1.4583773417	 0.0423426821	-0.217164
C	 0.511172729	 2.2057655936	 1.2321903131	-0.223411
N	 1.2697900056	 2.2119713384	-0.0171137053	-0.298634
H	 0.1064046277	-7.3763202582	-0.0665229188	 0.194583
H	-0.8041982869	 1.9181475092	-0.5410674217	 0.129518
H	 0.046185227	 3.1518668435	 1.4934956998	 0.133804
H	 0.8729061469	 1.6181993379	 2.0704797213	 0.132478
H	 2.0429717851	 1.5531889582	 0.0441144728	 0.246714
56.9441	62.8417	145.4003	159.7386	268.3804	278.0662	416.4328	459.9095	483.9021	506.6038	556.1493	567.6147	595.3765	656.6737	672.0392	800.3494	823.4388	930.6239	966.0168	1008.7305	1110.2559	1128.5835	1175.71	1247.7942	1294.3096	1312.5488	1406.9196	1503.236	2152.3554	2292.5938	2324.9042	3117.7697	3139.5486	3210.3556	3502.3461	3503.6875
C#CC#CC#CC1CN1	C#CC#CC#C[C@H]1CN1	
InChI=1S/C8H5N/c1-2-3-4-5-6-8-7-9-8/h1,8-9H,7H2	InChI=1S/C8H5N/c1-2-3-4-5-6-8-7-9-8/h1,8-9H,7H2/t8-/m0/s1
