17
gdb 87698	2.51469	1.41219	1.10563	1.5758	71.13	-0.2442	-0.0351	0.2091	1135.3367	0.13293	-458.940907	-458.931996	-458.931052	-458.974716	32.774	
C	-0.3713088389	 1.4227919075	-0.1021453692	-0.407055
C	 0.1185870686	-0.0104421998	-0.0591935587	 0.033726
O	 1.374716809	-0.2250267936	-0.7845548739	-0.348532
C	 2.0649537334	-0.6124394963	 0.4107829708	 0.274585
C	 3.2689296277	-1.5123156699	 0.3940666503	-0.385759
C	 3.450937073	-0.0333699136	 0.6239599015	 0.072151
O	 3.9219732662	 0.781545984	-0.3937879533	-0.425737
C	 0.823930791	-0.4877031712	 1.2287482424	 0.259137
O	 0.5107395108	-0.6602612294	 2.3692347152	-0.302848
H	 0.3971070232	 2.1107231968	 0.2619235651	 0.133175
H	-0.637986447	 1.7055448358	-1.1245798943	 0.137016
H	-1.2595403716	 1.5267200756	 0.5287302891	 0.141965
H	-0.6435974403	-0.7125643989	-0.4176815289	 0.117906
H	 3.3899358465	-2.1905026004	 1.2327211881	 0.139139
H	 3.5497971161	-1.9002761872	-0.5796173024	 0.14071
H	 3.7192528516	 0.3080094161	 1.6201206161	 0.121346
H	 3.1844165408	 0.9154803744	-1.0078939978	 0.299073
64.4736	120.3648	177.5041	199.6929	206.555	244.8221	342.1048	360.7229	424.6168	497.8001	552.3864	598.4815	703.1802	740.8995	820.1721	842.0247	860.8395	875.1326	963.3045	1006.1578	1040.4358	1061.6106	1075.7414	1094.924	1125.7252	1166.2678	1201.042	1269.8267	1296.1705	1341.3348	1379.2868	1401.6688	1409.2366	1451.8336	1481.8594	1493.159	1909.7822	3041.9178	3044.8387	3118.9988	3122.0053	3128.3986	3149.9035	3227.719	3714.4331
CC1OC2(CC2O)C1=O	C[C@H]1O[C@]2(C[C@H]2O)C1=O	
InChI=1S/C6H8O3/c1-3-5(8)6(9-3)2-4(6)7/h3-4,7H,2H2,1H3	InChI=1S/C6H8O3/c1-3-5(8)6(9-3)2-4(6)7/h3-4,7H,2H2,1H3/t3-,4-,6+/m1/s1
