22
gdb 62664	2.92031	1.45197	1.23877	1.4842	86.72	-0.2196	0.0863	0.3059	1138.0573	0.19309	-367.163206	-367.154215	-367.153271	-367.195887	35.92	
C	 0.8601943358	 2.2512943669	-2.0126779779	-0.465671
C	 0.3949414045	 0.8431340262	-1.6985235618	 0.32528
C	-1.1148608337	 0.6908094681	-1.7237133387	-0.448166
C	 1.1611345439	-0.3660702879	-2.0933630283	-0.078954
C	 2.6529967956	-0.2101650522	-1.9983705936	-0.165481
C	 3.1325242641	-1.0658612546	-0.8441600944	-0.325541
C	 2.4420385454	 0.2336169858	-0.5484956323	 0.384284
C	 3.0341022985	 1.3021747066	 0.3230527396	-0.496792
N	 0.9761766078	 0.0055897642	-0.609111691	-0.211182
H	 1.9439884656	 2.3339005712	-2.0918702259	 0.127172
H	 0.43079785	 2.5705822458	-2.9689333756	 0.115951
H	 0.5110809988	 2.9542323195	-1.2475866409	 0.11902
H	-1.5118949556	 0.912385854	-2.7204290168	 0.111306
H	-1.4069229185	-0.324728056	-1.4460391833	 0.126583
H	-1.581018341	 1.3810735218	-1.0125171536	 0.118546
H	 0.6611157506	-1.2398716943	-2.5048780101	 0.087546
H	 3.31846099	 0.1545071505	-2.7732445953	 0.088623
H	 2.6373052157	-2.0075067986	-0.6218438118	 0.111253
H	 4.2064798418	-1.0659895275	-0.6808223353	 0.105231
H	 4.1189448181	 1.3542019721	 0.1890275753	 0.119262
H	 2.618004577	 2.2914191144	 0.1155784263	 0.120935
H	 2.8385055555	 1.0731481341	 1.3769619253	 0.130797
165.0741	172.8498	191.143	204.7779	252.9412	280.4879	339.7921	351.7409	363.2147	442.3913	509.4822	549.6321	610.8769	678.1816	758.3591	826.3682	846.9041	864.8845	900.5459	956.5706	964.9678	990.4906	998.4136	1014.3176	1038.348	1061.4444	1063.6004	1083.6559	1103.4971	1121.2402	1150.4515	1217.8374	1241.313	1267.5495	1317.4277	1377.5065	1400.4654	1406.826	1419.9454	1420.1756	1478.9458	1481.7387	1487.7727	1492.363	1499.1132	1507.1583	1512.7158	3030.818	3034.564	3035.9398	3085.6065	3096.563	3096.6849	3110.1751	3115.7693	3123.2697	3135.9203	3145.328	3162.0385	3198.6838
CC1(C)C2C3CC3(C)N12	CC1(C)[C@H]2[C@@H]3C[C@]3(C)N12	
InChI=1S/C8H13N/c1-7(2)6-5-4-8(5,3)9(6)7/h5-6H,4H2,1-3H3	InChI=1S/C8H13N/c1-7(2)6-5-4-8(5,3)9(6)7/h5-6H,4H2,1-3H3/t5-,6+,8-,9?/m0/s1
