17
gdb 97875	4.47856	0.44033	0.42045	1.469	82.86	-0.2444	0.0293	0.2737	2523.6557	0.132281	-421.740884	-421.729741	-421.728796	-421.781026	36.367	
O	 0.2953634434	 0.8515500906	 0.7963662146	-0.409298
C	-0.0790673561	 0.1485358275	-0.3827074637	-0.214319
C	-1.418284066	-0.4024479066	-0.2220287249	 0.102231
C	-2.5208589351	-0.8689246967	-0.1116388326	 0.085131
C	-3.8678049608	-1.4246595847	 0.0323449587	-0.500586
C	-3.9009350874	-2.8830651205	 0.158028933	 0.085134
C	-3.9390061405	-4.080930548	 0.2535565344	 0.102222
C	-3.9701514481	-5.5306565951	 0.3957792258	-0.214312
O	-4.5163588167	-6.1166692483	-0.7801845334	-0.409297
H	 1.1831047593	 1.1955911573	 0.6540266717	 0.289439
H	-0.0661623405	 0.8122045248	-1.2628474665	 0.115904
H	 0.6220983003	-0.6749016742	-0.5958358574	 0.11826
H	-4.3514473631	-0.9697661165	 0.9081452591	 0.162941
H	-4.4822862157	-1.1250704207	-0.8281921386	 0.162947
H	-2.9459795622	-5.8926669263	 0.5831999082	 0.118262
H	-4.5669530205	-5.7923093655	 1.2849552422	 0.115903
H	-4.5164970302	-7.0705378171	-0.6503995205	 0.289439
14.6522	15.9323	57.9526	115.156	142.4155	176.0086	222.8314	234.5503	263.3327	309.2386	345.264	384.775	472.8042	539.3277	580.7287	771.7075	779.9286	926.8119	1027.7521	1027.7982	1043.163	1049.469	1125.6883	1164.4339	1229.4317	1246.7665	1248.5903	1256.4986	1258.5109	1338.3397	1446.9564	1459.2795	1461.761	1503.1745	1503.4076	2377.7099	2384.8933	2962.1545	2962.3596	2980.3672	2980.5326	3006.4946	3030.4339	3817.7061	3817.7264
OCC#CCC#CCO	OCC#CCC#CCO	
InChI=1S/C7H8O2/c8-6-4-2-1-3-5-7-9/h8-9H,1,6-7H2	InChI=1S/C7H8O2/c8-6-4-2-1-3-5-7-9/h8-9H,1,6-7H2
