21
gdb 66154	3.05703	1.05583	1.00046	1.3962	78.79	-0.2371	0.0889	0.3261	1319.0327	0.180079	-424.179425	-424.169803	-424.168859	-424.214923	35.48	
C	-0.2915147002	 1.5475229424	-0.126561579	-0.458456
C	-0.3522189415	 0.0521528574	 0.0870370086	 0.405034
C	-1.722737094	-0.5860798803	-0.0553772966	-0.137409
O	-2.7229218814	 0.0363453827	 0.7364115746	-0.251394
C	-2.8513156291	-0.481252369	 2.0298084655	 0.148513
C	-2.014020794	 0.0508525111	 3.1604334884	-0.273168
C	-3.4802068477	 0.4195186608	 3.043151397	-0.295757
C	 0.8339091622	-0.7810848042	-0.1605408164	-0.22996
O	 0.4459317858	-0.4483660339	 1.1733041646	-0.267769
H	 0.7154955306	 1.9213733976	 0.0718451227	 0.124217
H	-0.5654926032	 1.8023472553	-1.1562649236	 0.120294
H	-0.9961739571	 2.0540675064	 0.5379547078	 0.137941
H	-2.0556632374	-0.4811643411	-1.0955317443	 0.105286
H	-1.6503921175	-1.6573242056	 0.1770037822	 0.095059
H	-3.1124028607	-1.540031307	 2.0483147598	 0.082976
H	-1.7056945114	-0.6399473246	 3.9374185508	 0.112591
H	-1.282708295	 0.8128449311	 2.9226496499	 0.127169
H	-3.711680324	 1.4252537314	 2.7110873718	 0.121818
H	-4.192085525	-0.0024982908	 3.7435405908	 0.112136
H	 0.7203079189	-1.8304165777	-0.4327244032	 0.109261
H	 1.7507918817	-0.3114142219	-0.5151525314	 0.111617
34.9009	69.5952	85.8569	184.9368	221.4657	251.273	333.7126	364.4315	394.0042	409.3177	439.9441	563.8073	731.7496	739.701	806.2923	820.5865	840.721	891.7214	930.6048	956.1425	960.1532	992.3306	1050.7671	1065.7047	1069.2321	1090.5644	1113.0168	1128.167	1133.3843	1170.0101	1188.7417	1190.1939	1241.4329	1287.1095	1313.7463	1373.6146	1392.709	1405.6234	1436.6422	1456.9167	1470.8718	1481.4007	1498.791	1500.5928	1531.5119	3006.6897	3042.4302	3060.8407	3075.5949	3092.0489	3110.7453	3133.8988	3139.2484	3146.6247	3159.5766	3223.5673	3240.1001
CC1(COC2CC2)CO1	C[C@@]1(COC2CC2)CO1	
InChI=1S/C7H12O2/c1-7(5-9-7)4-8-6-2-3-6/h6H,2-5H2,1H3	InChI=1S/C7H12O2/c1-7(5-9-7)4-8-6-2-3-6/h6H,2-5H2,1H3/t7-/m1/s1
