16
gdb 44574	3.0619	1.74377	1.48938	4.3272	68.11	-0.2455	0.0163	0.2618	905.7744	0.126497	-437.891898	-437.885288	-437.884344	-437.922955	26.216	
O	-0.0253978155	-0.0267152607	 0.1651060637	-0.341003
C	-0.0815625103	 1.1651532034	 0.0705741076	 0.407782
C	-1.190491024	 2.2343843655	-0.0360946852	-0.389157
C	-0.0432928182	 3.25526711	 0.2051696097	-0.022656
C	 0.1980874027	 3.767862471	 1.6126349998	 0.01988
O	 0.1352722775	 2.7284877931	 2.5952747196	-0.243053
C	 1.4257835577	 3.1355795219	 2.1321809688	 0.045411
C	 1.9994304558	 2.1954127739	 1.0750521516	-0.226334
N	 0.9319824378	 2.1395094735	 0.0783588414	-0.099664
H	-1.6883638892	 2.2993708036	-1.004869899	 0.132996
H	-1.930225592	 2.164608335	 0.7620050242	 0.147184
H	 0.0737232128	 4.0509522549	-0.5366937934	 0.088286
H	-0.1460458528	 4.7484950628	 1.9294043497	 0.105675
H	 2.0711052982	 3.6032155769	 2.8712412701	 0.107513
H	 2.929561997	 2.6028533831	 0.6615163625	 0.11694
H	 2.1935567126	 1.1892447123	 1.4568895088	 0.150201
106.5899	205.9189	258.8855	379.7635	427.7737	534.6821	554.4221	652.5873	684.032	724.249	822.6515	831.2282	864.0854	874.3131	929.8773	972.2309	994.4521	1013.6094	1049.5627	1064.4849	1088.9607	1119.8116	1133.5472	1205.0138	1211.3528	1245.948	1252.111	1302.7537	1315.7361	1328.642	1353.1775	1421.565	1451.0003	1489.0231	1893.6114	3038.4115	3065.1565	3091.7147	3105.3968	3150.5704	3153.7731	3162.9342
O=C1CC2C3OC3CN12	O=C1C[C@H]2[C@H]3O[C@H]3CN12	
InChI=1S/C6H7NO2/c8-5-1-3-6-4(9-6)2-7(3)5/h3-4,6H,1-2H2	InChI=1S/C6H7NO2/c8-5-1-3-6-4(9-6)2-7(3)5/h3-4,6H,1-2H2/t3-,4-,6+/m0/s1
