25
gdb 100036	2.84364	1.02694	0.95075	1.4305	88.85	-0.2542	0.072	0.3262	1419.1023	0.226735	-389.478233	-389.467371	-389.466427	-389.513363	41.757	
C	 0.2519637205	 1.5124887524	 0.0925935912	-0.405658
C	-0.0417723192	 0.0087620685	 0.0506065938	-0.177252
C	-1.5370054997	-0.4120194759	-0.0086366837	 0.266092
C	-2.3005865387	 0.1895098174	 1.1859234458	-0.43716
C	-2.185289241	 0.0622897169	-1.3263088347	-0.412464
C	-1.5456649947	-1.9500042283	-0.015637441	-0.01066
C	-1.786925505	-2.8237936258	 1.2018433705	-0.354104
C	-2.7661032592	-2.824042326	 0.0525655523	 0.072361
O	-4.021259834	-2.2155753537	 0.1946178785	-0.410861
H	 1.3330243741	 1.6854819052	 0.1008396486	 0.109374
H	-0.1542976584	 2.0345103379	-0.7792631918	 0.116642
H	-0.1601071228	 1.9869938606	 0.9879561653	 0.117101
H	 0.4702018634	-0.4238043922	-0.8194546586	 0.085314
H	 0.4084410503	-0.4660036878	 0.9323781652	 0.091879
H	-2.363505036	 1.2774600072	 1.0899060913	 0.106533
H	-3.3165448698	-0.2038503923	 1.2372548754	 0.131622
H	-1.7947216754	-0.0268419314	 2.1333566936	 0.102094
H	-1.6630267966	-0.3569452523	-2.1941588896	 0.099149
H	-3.2284458764	-0.2609881919	-1.3720145824	 0.13443
H	-2.1641806129	 1.1527437528	-1.4187783025	 0.104057
H	-0.7961227874	-2.3429900777	-0.7003225531	 0.080058
H	-1.160229858	-3.6939617528	 1.3674828407	 0.105268
H	-2.1191524815	-2.3288545268	 2.1077169472	 0.115364
H	-2.7757804978	-3.6989668513	-0.5981745437	 0.083219
H	-4.5608310836	-2.7772927026	 0.7607053516	 0.287601
70.9832	99.2526	157.221	213.0626	231.9205	237.3637	280.8974	287.3914	302.465	331.9382	340.6561	378.3187	403.6616	420.4429	512.1065	607.7774	701.9285	786.7342	788.7349	821.3384	854.9201	924.2259	942.9633	971.6922	999.9163	1014.1274	1028.2535	1050.0492	1073.6012	1082.0912	1108.2875	1139.3837	1182.6523	1201.646	1229.3908	1246.6993	1271.7631	1302.0765	1328.4264	1369.036	1385.0069	1397.5746	1412.214	1422.5423	1425.2428	1481.8538	1483.6308	1488.5628	1495.7405	1507.158	1510.4394	1513.7496	1522.5394	3008.545	3028.781	3036.3279	3040.6987	3042.8308	3088.1955	3091.9561	3096.5253	3102.9792	3111.9292	3116.4817	3119.7983	3131.195	3143.8596	3218.92	3804.6919
CCC(C)(C)C1CC1O	CCC(C)(C)[C@H]1C[C@H]1O	
InChI=1S/C8H16O/c1-4-8(2,3)6-5-7(6)9/h6-7,9H,4-5H2,1-3H3	InChI=1S/C8H16O/c1-4-8(2,3)6-5-7(6)9/h6-7,9H,4-5H2,1-3H3/t6-,7+/m0/s1
