18
gdb 110897	2.53722	1.55401	1.15382	3.2387	71.48	-0.2288	-0.0208	0.208	1080.8028	0.149551	-439.054665	-439.047057	-439.046113	-439.086979	29.643	
O	 0.8148951511	-0.6871110579	 0.9546209918	-0.421424
C	 0.0910653681	-0.0424863884	-0.0728516418	-0.080878
C	-1.3773767107	-0.4486137375	-0.0248743059	-0.108653
N	-2.0210002882	-0.0865307416	 1.2820710044	-0.150691
C	-3.4684643683	-0.4033648431	 0.9521824611	-0.190528
C	-3.3919982909	 0.7892448237	-0.0467999072	-0.147215
C	-2.4203127224	 1.3598457381	 1.0264219621	-0.197688
C	-2.3470708093	 0.2407136387	-1.0152473727	 0.427766
O	-2.2776133604	 0.3272081874	-2.2106079568	-0.333205
H	 0.2758029997	-0.6021288266	 1.7516614756	 0.290675
H	 0.1957166071	 1.0527446766	-0.01229809	 0.089269
H	 0.5206396504	-0.3532053522	-1.0298897195	 0.128823
H	-1.4280404772	-1.5371184072	-0.1432961314	 0.112999
H	-3.6468641351	-1.4117798729	 0.5694309928	 0.119377
H	-4.1081027452	-0.2041170889	 1.814723627	 0.122392
H	-4.2447501002	 1.3184052381	-0.4676575387	 0.092219
H	-2.9307009115	 1.7645284363	 1.9026451124	 0.124529
H	-1.6158762471	 2.0309507174	 0.7181826568	 0.122233
95.6048	149.3612	154.7337	295.8237	316.9673	460.917	492.69	516.5635	546.0289	601.5405	691.3765	780.1912	828.0554	835.61	860.7619	888.6063	906.0208	1006.7171	1012.8593	1033.0222	1045.1446	1075.9765	1099.1192	1130.7634	1164.6914	1177.5892	1201.1194	1233.0323	1237.7363	1254.556	1258.2341	1297.0706	1339.0752	1387.9609	1436.5034	1499.3806	1512.5314	1535.8199	1871.1903	2975.1255	3049.4878	3061.628	3072.339	3087.8852	3124.7205	3131.9006	3141.9634	3769.1809
OCC1N2CC(C2)C1=O	OC[C@H]1N2C[C@@H](C2)C1=O	
InChI=1S/C6H9NO2/c8-3-5-6(9)4-1-7(5)2-4/h4-5,8H,1-3H2	InChI=1S/C6H9NO2/c8-3-5-6(9)4-1-7(5)2-4/h4-5,8H,1-3H2/t5-/m1/s1
