18
gdb 100387	2.83616	1.02572	0.92792	3.1307	71.64	-0.2608	-0.0549	0.2059	1317.7544	0.143974	-476.217868	-476.207728	-476.206783	-476.253536	35.632	
C	 0.0883385308	 1.5180713227	-0.121370547	-0.45075
C	 0.0256672852	-0.0126922085	-0.0280453885	 0.225699
C	 0.6284399816	-0.5038150563	 1.3101790109	-0.097856
O	 1.9511855222	-0.0630407235	 1.4960445975	-0.417647
O	-1.3052587976	-0.5536414501	-0.02819141	-0.230072
C	-2.2273667686	-0.121468601	-0.9173732591	 0.11428
N	-3.3588525581	-0.6786891852	-0.9491257177	-0.432586
C	 0.7806870257	-0.6329573622	-1.2066560839	 0.146726
O	 1.9453131406	-0.9460262191	-1.1831314171	-0.254158
H	 1.0828643777	 1.8319730351	 0.2019963646	 0.163982
H	-0.0858728826	 1.9025442059	-1.130128215	 0.124693
H	-0.6555535264	 1.9519036006	 0.5538713611	 0.143667
H	 0.0243069368	-0.0938296869	 2.1249831787	 0.123341
H	 0.5389250372	-1.598497707	 1.3460082789	 0.112559
H	 2.4704419875	-0.4543266595	 0.7803192251	 0.299174
H	-1.8984427764	 0.7122300623	-1.5460667623	 0.094769
H	-3.9447805594	-0.2355817149	-1.6538468165	 0.232612
H	 0.1653949938	-0.7857625424	-2.1209143196	 0.101567
59.2475	71.7393	107.2405	157.0837	180.1136	232.9228	262.1713	293.3657	318.0496	392.9393	398.3203	442.0104	501.4558	573.7054	724.3694	785.3738	820.983	887.7744	940.6153	981.3523	993.5908	1040.9592	1079.3563	1108.8724	1148.1761	1163.6826	1224.0693	1279.0774	1291.7008	1371.8369	1393.5258	1417.6901	1424.139	1443.9479	1487.3859	1499.2812	1506.7858	1736.5715	1816.2023	2894.3872	3012.5744	3042.9151	3069.0925	3090.6896	3116.4517	3141.4121	3517.8386	3754.2904
CC(CO)(OC=N)C=O	C[C@@](CO)(O[CH][NH])C=O	
InChI=1S/C5H9NO3/c1-5(2-7,3-8)9-4-6/h2,4,6,8H,3H2,1H3	InChI=1S/C5H9NO3/c1-5(2-7,3-8)9-4-6/h2,4,6,8H,3H2,1H3/t5-/m1/s1
