16
gdb 13424	3.61787	1.22103	1.16637	2.0181	70.53	-0.2263	0.0413	0.2676	1111.2394	0.128238	-383.691571	-383.682641	-383.681696	-383.726052	31.497	
C	-0.1167056497	 1.4381568816	 0.0123175935	-0.50048
C	-0.0632172003	-0.0170614407	 0.00437521	 0.100726
C	 0.0293011096	-1.2206382824	 0.0162116696	 0.049922
C	 0.0551265811	-2.650035789	 0.01587896	-0.317033
C	-0.4096605065	-3.4504480838	 1.2508365341	 0.112858
O	-0.8232796619	-2.8032956605	 2.3977882099	-0.420204
C	-1.2979223957	-3.3723771236	 0.045618401	 0.036214
O	-2.4404533315	-2.5879722039	 0.2255794589	-0.428338
H	 0.888380321	 1.8660564614	 0.0958313513	 0.154706
H	-0.5699924309	 1.8329931483	-0.903783227	 0.147086
H	-0.7030211563	 1.8082514888	 0.8605605813	 0.152209
H	 0.8294514078	-3.119453978	-0.5842772817	 0.113208
H	 0.1347367793	-4.3679826196	 1.4527020982	 0.108886
H	-1.692321029	-2.4289413145	 2.1868987231	 0.290803
H	-1.4472215081	-4.230660313	-0.6041498994	 0.104938
H	-2.2588175888	-1.7132144811	-0.1477871728	 0.294498
32.9204	90.3386	93.9629	224.9275	241.0972	277.1622	312.9185	371.6913	417.1721	519.9814	578.7202	601.4111	678.9855	732.7539	764.5484	854.2964	976.0022	1008.1231	1034.4946	1050.2996	1054.8954	1103.6844	1159.856	1183.4639	1231.0985	1339.1212	1354.7697	1373.5728	1377.2727	1415.3077	1452.95	1476.3701	1478.9425	2354.1438	3026.7478	3086.2148	3090.1756	3136.2536	3145.1345	3160.2484	3709.0344	3718.9604
CC#CC1C(O)C1O	CC#C[C@H]1[C@@H](O)[C@H]1O	
InChI=1S/C6H8O2/c1-2-3-4-5(7)6(4)8/h4-8H,1H3	InChI=1S/C6H8O2/c1-2-3-4-5(7)6(4)8/h4-8H,1H3/t4-,5+,6-
