15
gdb 45097	2.8798	1.76445	1.29242	2.2593	64.08	-0.2533	-0.0388	0.2145	942.2423	0.113115	-457.74215	-457.735328	-457.734384	-457.773529	26.549	
O	 0.0488315655	-0.0343542466	 0.0642512344	-0.305874
C	 0.0034671684	 1.1717559882	 0.0078156019	 0.38218
C	-1.300579584	 1.9639108228	-0.0090391451	-0.349685
C	-1.3329852542	 3.017368898	-1.1151179613	 0.017315
O	-1.0295735432	 4.367174291	-0.7587675233	-0.230423
C	-0.0776956155	 3.6531940699	-1.5443113086	 0.031811
C	 1.2087822525	 3.257827277	-0.8604818367	 0.011642
O	 1.2023980653	 3.2774998533	 0.5529281875	-0.220287
C	 1.2595104826	 1.9932197316	-0.078391003	-0.06791
H	-2.1212474044	 1.2519210234	-0.1123998201	 0.130422
H	-1.4019520878	 2.4769159832	 0.9539394789	 0.159626
H	-2.143114693	 2.9227553887	-1.8364124377	 0.111933
H	 0.0340208568	 4.0023237976	-2.570060422	 0.098984
H	 2.1313246269	 3.6102348326	-1.3198993947	 0.113868
H	 2.191950994	 1.4431473794	 0.0229855198	 0.1164
95.8614	194.9537	251.8006	377.5925	433.2702	459.2903	479.6992	558.5682	635.0306	721.7651	772.3459	824.1141	841.6884	890.1414	920.2151	954.0909	975.1245	1019.4065	1044.5874	1084.8448	1116.1233	1135.246	1187.6562	1245.9655	1258.38	1288.7261	1301.577	1354.0616	1375.3498	1426.4142	1442.8297	1466.2523	1815.4438	3056.0082	3111.8328	3118.333	3128.1166	3134.2869	3154.8867
O=C1CC2OC2C2OC12	O=C1C[C@H]2O[C@H]2[C@H]2O[C@@H]12	
InChI=1S/C6H6O3/c7-2-1-3-5(8-3)6-4(2)9-6/h3-6H,1H2	InChI=1S/C6H6O3/c7-2-1-3-5(8-3)6-4(2)9-6/h3-6H,1H2/t3-,4+,5-,6+/m1/s1
