18
gdb 41315	3.1312	2.13173	1.77959	0.8536	73.26	-0.2113	0.0419	0.2532	830.8906	0.150791	-401.804362	-401.798399	-401.797455	-401.834145	26.386	
C	 0.026083699	 1.5339910833	-0.1833665148	-0.180132
O	 1.4551095618	 1.5595519274	 0.1938748821	-0.335606
C	 1.2888167565	 0.2433107602	 0.7662917083	 0.343227
C	 0.5014234175	 0.0764156202	 2.0766443536	-0.245474
N	-0.4138027179	-0.8406547293	 1.2732640358	-0.196302
C	 0.6025829326	-1.9407139778	 1.0228357281	-0.153882
C	 1.666166739	-1.1729195171	 0.1695039188	-0.134694
C	 0.7577509064	-0.8387915613	-1.0399597003	-0.280077
C	 0.0034141912	 0.0027152734	 0.0173980139	 0.207398
H	-0.5818476571	 2.1321308752	 0.5021402618	 0.121219
H	-0.1200321749	 1.8843340603	-1.2089292105	 0.119331
H	 0.9494704086	-0.3866618506	 2.9591501835	 0.103062
H	-0.0195813776	 0.9893391959	 2.3670836212	 0.116948
H	 0.9650350224	-2.3222252798	 1.979214203	 0.10709
H	 0.1534578172	-2.7628842154	 0.4610821504	 0.10831
H	 2.6648699083	-1.6018136588	 0.0964324368	 0.076439
H	 1.2266477771	-0.1748838456	-1.7676074583	 0.120839
H	 0.2539357201	-1.6621434001	-1.5516537734	 0.102303
305.8007	332.0603	360.826	464.8483	495.5711	529.0722	563.0337	679.2656	755.0911	772.0726	805.461	840.3341	866.1606	873.7867	889.7036	913.5335	936.7862	956.5089	974.1883	1010.8473	1068.6565	1105.1912	1121.3722	1131.9324	1150.7374	1155.7732	1178.0091	1204.5109	1221.2275	1225.7048	1241.173	1265.011	1276.8159	1314.3477	1319.0817	1481.252	1495.1872	1512.8561	1532.7926	3044.4993	3064.3352	3068.3816	3073.0888	3101.0656	3117.9806	3122.3385	3135.4382	3135.6738
C1OC23CN4CC2CC134	C1O[C@]23CN4C[C@H]2C[C@]134	
InChI=1S/C7H9NO/c1-5-2-8-3-7(5)6(1,8)4-9-7/h5H,1-4H2	InChI=1S/C7H9NO/c1-5-2-8-3-7(5)6(1,8)4-9-7/h5H,1-4H2/t5-,6+,7-/m1/s1
