15
gdb 49916	3.30368	1.11364	0.95389	3.4631	70.23	-0.2636	-0.0484	0.2152	1205.776	0.111741	-453.96855	-453.960075	-453.959131	-454.00265	29.295	
N	 0.1128401244	 1.1815300042	 0.7316284818	-0.532719
C	 0.0747827173	-0.0012582349	 0.3135968566	 0.39325
C	-1.0735255163	-0.9579038939	-0.0535076862	-0.21054
C	 0.0196595938	-2.007186619	-0.3930970576	-0.200871
N	 1.0249879175	-0.9987861452	 0.0049898081	-0.100707
C	 2.391090612	-0.9922853759	 0.0770779031	 0.139609
O	 3.039512512	-0.0369260273	 0.4409782273	-0.299643
C	-1.9800551868	-1.2888290089	 1.1141384879	 0.151815
O	-1.9826891199	-2.3483748088	 1.6842572319	-0.229905
H	 1.0774935014	 1.4840820806	 0.8776991743	 0.25766
H	-1.6713267703	-0.5958866627	-0.8946335073	 0.133194
H	-0.0079373144	-2.8870711221	 0.2520923221	 0.155649
H	 0.0812612683	-2.2956775804	-1.4445837927	 0.132075
H	 2.8351213696	-1.9564443908	-0.2362386371	 0.097729
H	-2.6429450985	-0.455090595	 1.4235635978	 0.113403
53.4325	103.7248	138.4828	173.4491	218.0114	235.2104	297.3733	444.2122	504.7674	602.9615	668.2762	751.617	803.9652	859.0749	911.425	938.2132	1004.4444	1030.3219	1062.5014	1072.5807	1145.9919	1167.6188	1189.704	1245.1566	1277.9272	1326.4561	1394.8202	1415.3975	1432.1033	1511.4472	1756.1453	1811.4112	1833.8952	2930.7358	2955.263	3072.4748	3086.2557	3136.1397	3485.4694
N=C1C(CN1C=O)C=O	[NH][C]1[C@@H](CN1C=O)C=O	
InChI=1S/C5H6N2O2/c6-5-4(2-8)1-7(5)3-9/h2-4,6H,1H2	InChI=1S/C5H6N2O2/c6-5-4(2-8)1-7(5)3-9/h2-4,6H,1H2/t4-/m0/s1
