16
gdb 43943	3.52272	1.5316	1.48291	3.2863	73.86	-0.2386	-0.0175	0.2212	927.0531	0.125669	-400.650853	-400.644394	-400.64345	-400.681429	27.138	
O	-0.1969424435	-0.0915113594	-0.3163611601	-0.31112
C	-0.0692422971	 1.0704848818	-0.0932569754	 0.336949
N	-1.0390934337	 2.1225754775	 0.0508848153	-0.417665
C	-0.0497335627	 2.9334996232	 0.7873301216	 0.260908
C	 0.9221317053	 4.1954095409	 0.7016837394	-0.298418
C	 1.9734461251	 3.0198645319	 1.0551557486	-0.13819
C	 1.4661915646	 2.5867664993	 2.4300443483	-0.059659
C	 0.1449686467	 2.5482470278	 2.2632563901	-0.133838
C	 1.0555270565	 2.1729662293	 0.0742091537	-0.117902
H	-1.9808956045	 1.9253266668	 0.3734217037	 0.242954
H	 1.0526572604	 4.6210191501	-0.2954511571	 0.115428
H	 0.7980617224	 4.9715943768	 1.4598612	 0.107281
H	 3.0409190553	 3.1487718902	 0.8855208235	 0.083559
H	 2.0722753535	 2.3912309316	 3.3031303297	 0.111674
H	-0.6514493832	 2.304826383	 2.9526716575	 0.103181
H	 1.187174145	 2.5630608595	-0.9407719687	 0.11486
132.0332	258.5611	394.3606	430.9245	483.6022	532.3389	566.1326	622.788	636.7933	702.1711	718.6208	753.3811	814.0205	821.3192	889.9513	904.0465	915.5577	966.0646	989.8493	1010.2708	1019.1011	1042.2417	1085.016	1110.2505	1137.3011	1178.3351	1192.988	1197.8847	1244.6498	1300.2104	1325.5821	1367.8246	1486.8425	1634.6109	1901.2626	3046.9576	3065.2108	3137.556	3141.1008	3218.9739	3246.6054	3538.9121
O=C1NC23CC(C=C2)C13	O=C1N[C@@]23C[C@@H](C=C2)[C@@H]13	
InChI=1S/C7H7NO/c9-6-5-4-1-2-7(5,3-4)8-6/h1-2,4-5H,3H2,(H,8,9)	InChI=1S/C7H7NO/c9-6-5-4-1-2-7(5,3-4)8-6/h1-2,4-5H,3H2,(H,8,9)/t4-,5+,7-/m1/s1
