18
gdb 67428	2.70467	1.52029	1.26424	3.573	77.98	-0.245	-0.0269	0.2181	1057.7301	0.147239	-401.900902	-401.892897	-401.891953	-401.93338	30.51	
C	 0.1133761153	 1.5251630185	 0.3756258137	-0.530357
C	 0.0585473428	 0.0674226207	 0.0693999397	 0.305456
C	 0.7638108317	-0.8866172052	-0.980280083	-0.127502
C	 1.187490487	-1.6917847573	 0.261405378	-0.153354
N	 0.0937281222	-1.0322394787	 1.0498600187	-0.215689
C	-1.061182561	-0.9459962593	 0.0542630799	 0.21842
C	-0.6280902204	-1.4899878578	-1.3016434812	-0.304188
C	-2.416296159	-0.8285101607	 0.6086719339	 0.052842
O	-3.4166725172	-1.1055893214	-0.0114990564	-0.267536
H	 1.1421547276	 1.8413021949	 0.5816694591	 0.133239
H	-0.2612193459	 2.1206450915	-0.4632904677	 0.134646
H	-0.4915395597	 1.7509392046	 1.2584539456	 0.142204
H	 1.4571531217	-0.6082491166	-1.7715441855	 0.081495
H	 1.1369015519	-2.7850497077	 0.2131076192	 0.105467
H	 2.1447987396	-1.3796806919	 0.6858150266	 0.115297
H	-1.1423920314	-0.955680576	-2.102819959	 0.123107
H	-0.6837984608	-2.5685457674	-1.4784063699	 0.105906
H	-2.4557222645	-0.45357921	 1.6537457884	 0.080547
93.4316	173.6755	198.9714	220.4863	228.6622	312.5343	438.0724	461.4519	499.0359	614.3383	664.3794	730.8389	777.5929	832.2796	861.9822	913.909	942.1916	982.2697	1000.8433	1029.1735	1073.3626	1080.1195	1099.8545	1121.4168	1141.9873	1171.6741	1195.8056	1232.5225	1257.3362	1305.012	1343.4122	1382.9727	1408.8061	1444.7337	1478.5776	1490.2688	1494.9883	1516.2328	1799.5682	2904.2838	3032.3159	3042.9945	3056.7829	3095.2161	3108.9546	3115.7436	3123.0007	3136.3158
CC12C3CN1C2(C3)C=O	C[C@@]12[C@H]3CN1[C@@]2(C3)C=O	
InChI=1S/C7H9NO/c1-6-5-2-7(6,4-9)8(6)3-5/h4-5H,2-3H2,1H3	InChI=1S/C7H9NO/c1-6-5-2-7(6,4-9)8(6)3-5/h4-5H,2-3H2,1H3/t5-,6+,7+,8?/m1/s1
