21
gdb 96109	2.1578	1.75759	1.21942	1.9348	78.24	-0.2386	0.0721	0.3107	1103.6438	0.182883	-424.216479	-424.207757	-424.206813	-424.249261	34.41	
C	-0.0079062653	 1.5044114196	-0.026775281	-0.470894
C	-0.0246591989	-0.0118289678	-0.0009728189	 0.315204
C	-0.8571607234	-0.6817427092	 1.0754004717	-0.334488
C	 0.6468418459	-0.7163128999	 1.157963954	 0.055439
O	 1.2893645184	-1.9502093957	 0.9938405625	-0.257607
C	 1.7199574776	-2.2283593711	-0.3281344119	-0.070302
C	 0.5588430818	-2.1113338154	-1.3132258691	-0.265338
C	 0.0702936518	-0.6576457748	-1.3713656521	 0.063611
O	-1.2025375536	-0.5334539695	-2.0003436457	-0.441495
H	 0.9140058887	 1.8848031825	-0.4828903441	 0.109997
H	-0.8547347583	 1.8821195835	-0.6088222537	 0.134248
H	-0.0787613718	 1.9219884306	 0.9822110938	 0.110678
H	-1.4109460277	-0.0441898893	 1.7564923639	 0.10607
H	-1.3455915187	-1.6192509051	 0.8363047389	 0.120523
H	 1.1415487292	-0.0947699355	 1.9018281462	 0.088557
H	 2.5382702104	-1.5500239883	-0.6237733478	 0.086396
H	 2.1214331306	-3.2451995048	-0.3019913656	 0.108904
H	 0.8714859363	-2.4383520976	-2.3127233178	 0.087746
H	-0.2583985902	-2.7667571092	-0.9927371054	 0.114817
H	 0.8202605043	-0.0808588174	-1.9404280021	 0.059436
H	-1.117374757	-0.8517511156	-2.9052021959	 0.278498
101.4517	191.0054	218.0917	239.9892	258.117	283.7892	342.1203	365.415	418.8907	469.2144	500.6954	534.4971	665.8386	688.3734	783.5437	872.5075	894.2875	914.7838	932.1849	968.1412	1023.816	1043.8789	1046.0388	1054.0708	1087.3034	1114.274	1121.027	1136.1406	1184.9185	1198.1402	1257.3846	1270.8544	1278.6808	1338.8938	1344.6459	1372.8162	1396.0696	1411.7433	1420.5911	1446.8873	1477.7385	1489.2563	1495.5572	1504.0766	1506.4129	2940.361	2963.6027	3024.6281	3030.2702	3080.8983	3088.4987	3089.5809	3105.5416	3119.6826	3135.0295	3224.7588	3809.2787
CC12CC1OCCC2O	C[C@]12C[C@H]1OCC[C@H]2O	
InChI=1S/C7H12O2/c1-7-4-6(7)9-3-2-5(7)8/h5-6,8H,2-4H2,1H3	InChI=1S/C7H12O2/c1-7-4-6(7)9-3-2-5(7)8/h5-6,8H,2-4H2,1H3/t5-,6-,7-/m1/s1
