16
gdb 25707	4.43779	0.81055	0.74834	1.5782	78.58	-0.2391	0.0043	0.2433	1537.2184	0.12403	-400.758522	-400.749654	-400.74871	-400.795461	30.241	
C	 0.0287455265	 1.4788630227	 0.2385095894	-0.496051
C	 0.0037080894	 0.0308048295	 0.0916994733	 0.05947
C	-0.0167264645	-1.1656354609	-0.0311677887	 0.070964
C	-0.0429825409	-2.6194691712	-0.1802764318	-0.446649
C	-1.4228023894	-3.2027993927	-0.1592589319	 0.400032
N	-1.9959875009	-3.9185052945	-1.0736995762	-0.301389
C	-3.2491730982	-4.2145760152	-0.547829667	-0.113485
C	-3.3594480279	-3.6484617933	 0.6746521354	-0.039105
O	-2.1886660538	-2.9939880792	 0.9404439775	-0.164768
H	 1.0563634893	 1.8584462	 0.2501462909	 0.149225
H	-0.4972113277	 1.9715474609	-0.5865170066	 0.150152
H	-0.4506862452	 1.7919925175	 1.1724160374	 0.149573
H	 0.4058786035	-2.9218559383	-1.1315012163	 0.163384
H	 0.5558950221	-3.0847909771	 0.6148506088	 0.14897
H	-3.9681524253	-4.8074877309	-1.0900648969	 0.124682
H	-4.1196631171	-3.6033379572	 1.4349331828	 0.144994
9.83	35.1415	68.441	195.1804	214.4108	296.2508	339.3374	376.4411	450.1577	630.2762	673.2492	761.078	763.4151	803.2883	863.7047	917.2356	934.0044	968.4888	1053.3366	1053.6278	1107.4299	1133.6279	1163.4211	1165.2811	1208.4333	1272.8962	1336.3315	1389.1985	1415.1493	1455.377	1478.0543	1478.9331	1556.083	1617.8664	2381.285	3015.5628	3028.4767	3085.7304	3089.6266	3090.1514	3265.113	3301.8151
CC#CCC1=NC=CO1	CC#CCc1ncco1	
InChI=1S/C7H7NO/c1-2-3-4-7-8-5-6-9-7/h5-6H,4H2,1H3	InChI=1S/C7H7NO/c1-2-3-4-7-8-5-6-9-7/h5-6H,4H2,1H3
