16
gdb 85803	2.62009	1.22096	1.1789	2.5644	73.82	-0.242	0.0051	0.2471	1151.9709	0.121526	-437.861812	-437.852244	-437.8513	-437.896303	33.816	
C	-0.0204789044	 1.4192545604	 0.148490145	-0.345539
N	-0.0047952097	-0.015303015	 0.0274074225	-0.076937
C	-1.0835200559	-1.0070742922	 0.0373962184	-0.204241
C	 0.0139641096	-2.1156147911	-0.0275832437	 0.088688
O	 0.017200596	-2.8904184	 1.1521228923	-0.448617
C	 0.0557604043	-2.9143653217	-1.2415546181	 0.299348
C	 0.1271677576	-3.5802188099	-2.2399064957	-0.478372
C	 1.0277192954	-0.9089244349	 0.012860756	 0.353031
O	 2.2231388707	-0.7932562576	 0.0614526736	-0.374658
H	 1.0159976388	 1.7642795548	 0.1448825672	 0.164903
H	-0.5529455103	 1.8841578151	-0.6894249661	 0.133789
H	-0.4965950212	 1.7375887297	 1.0840519677	 0.133542
H	-1.6531733932	-1.043433566	 0.9712541549	 0.127459
H	-1.7544514627	-0.9556781649	-0.824564373	 0.123819
H	 0.8541031607	-3.3696223684	 1.1781086593	 0.298032
H	 0.1884665243	-4.1693921783	-3.1217217904	 0.205752
76.125	113.2972	141.459	160.5742	186.4307	204.1427	247.6725	317.932	370.5495	414.181	490.1837	605.3373	621.4842	629.5946	675.5855	744.8035	797.326	859.1294	941.0861	980.122	1037.8752	1124.2925	1139.7658	1165.3222	1206.4127	1260.0732	1289.002	1371.5277	1419.3649	1448.8315	1481.8514	1505.4256	1527.4276	1885.5061	2232.0451	3018.3221	3046.5598	3071.8539	3104.3857	3133.0208	3499.3362	3798.4615
CN1CC(O)(C#C)C1=O	CN1C[C@@](O)(C#C)C1=O	
InChI=1S/C6H7NO2/c1-3-6(9)4-7(2)5(6)8/h1,9H,4H2,2H3	InChI=1S/C6H7NO2/c1-3-6(9)4-7(2)5(6)8/h1,9H,4H2,2H3/t6-/m0/s1
