20
gdb 52938	3.16686	0.95986	0.8383	2.2257	90.36	-0.2333	0.0442	0.2775	1474.8772	0.170437	-365.915007	-365.905688	-365.904744	-365.951017	34.04	
C	 0.569525909	 1.5520236759	-0.3443840706	-0.516086
C	 0.3997223434	 0.1103652469	-0.2456056382	 0.392492
C	 0.2586628596	-1.0840828238	-0.1617176512	-0.479737
C	 0.0890376422	-2.5101891489	-0.0721976484	 0.276246
C	 0.6891416892	-3.518691534	 0.945711394	-0.20162
N	-0.1420576113	-4.4473613742	 0.0482512633	-0.184268
C	-1.2051046849	-3.3416380262	 0.14614796	-0.215701
C	 0.458274765	-3.6186716538	-1.1134109112	 0.055671
C	-0.1676263567	-3.71888149	-2.4890117853	-0.444897
H	 1.6296782135	 1.825916112	-0.3839380233	 0.150317
H	 0.0909673817	 1.9480282348	-1.247009457	 0.150071
H	 0.1268650292	 2.0642656257	 0.5171400449	 0.15065
H	 1.7651830492	-3.7075166646	 0.9018088834	 0.101961
H	 0.3290787656	-3.4700451377	 1.9762428541	 0.10193
H	-1.6758550039	-3.2803675735	 1.1306530361	 0.103424
H	-1.9582433114	-3.3603160117	-0.6410287388	 0.105048
H	 1.5356205094	-3.8038761122	-1.1931713831	 0.073679
H	-1.2341859032	-3.4869606578	-2.5129106132	 0.121933
H	 0.3386934987	-3.0260851162	-3.1693466276	 0.126742
H	-0.0332751442	-4.7320939506	-2.882005668	 0.132143
13.1031	80.4034	101.741	161.1512	223.8264	303.6294	343.6707	362.8957	449.0984	498.2802	512.759	585.1387	620.8708	754.9661	805.6463	818.3148	852.3315	957.8416	982.7473	1004.8723	1025.8971	1046.2558	1054.1461	1054.4738	1087.6754	1116.878	1141.2886	1158.12	1177.3307	1194.3592	1198.6084	1278.2582	1327.9242	1405.34	1413.7542	1429.2225	1476.8427	1477.3267	1488.49	1493.4282	1519.6066	1555.2119	2359.6811	3026.2728	3035.4317	3043.0258	3053.0977	3071.124	3087.3583	3087.6556	3103.2676	3121.8031	3126.4167	3144.3959
CC#CC12CN(C1)C2C	CC#C[C@@]12CN(C1)[C@H]2C	
InChI=1S/C8H11N/c1-3-4-8-5-9(6-8)7(8)2/h7H,5-6H2,1-2H3	InChI=1S/C8H11N/c1-3-4-8-5-9(6-8)7(8)2/h7H,5-6H2,1-2H3/t7-/m0/s1
