19
gdb 101492	3.48079	1.01047	0.85423	2.4781	68.06	-0.2497	0.0618	0.3115	1358.1792	0.158686	-497.284305	-497.27499	-497.274046	-497.319395	33.428	
O	-0.3646424955	 1.4271968471	 0.198870437	-0.433614
C	-0.1242892007	 0.024504402	 0.3103785379	-0.110382
C	-1.4626670296	-0.6514373925	 0.0148466468	 0.111616
O	-1.9733673961	-0.1965443478	-1.2204833275	-0.445434
C	-1.3177985743	-2.1708841874	-0.0879722679	 0.209606
O	-0.6454705572	-2.651524861	 1.0674286802	-0.275946
C	-1.4001532661	-3.7377027144	 1.592303524	-0.085183
C	-2.8112341072	-3.4207733297	 1.106159038	-0.10174
O	-2.5666113495	-2.8289896094	-0.1622354744	-0.253459
H	 0.4809072122	 1.8800995479	 0.1433591752	 0.294884
H	 0.6218655364	-0.3048353373	-0.4281378305	 0.093902
H	 0.2280146797	-0.2490924185	 1.3115614571	 0.110669
H	-2.1599588483	-0.4269426266	 0.8392877065	 0.069691
H	-1.7868445352	 0.7510018765	-1.2389217337	 0.291332
H	-0.7622401663	-2.4209227416	-1.0042551741	 0.086916
H	-1.0424492175	-4.695133799	 1.1874830961	 0.103486
H	-1.2922912685	-3.7431959524	 2.6798972903	 0.114534
H	-3.4426729029	-4.3001927043	 0.9599335761	 0.116772
H	-3.3192806135	-2.7210338615	 1.7857254825	 0.102352
44.7773	74.6085	125.2219	151.3041	242.8325	252.6293	291.6065	345.9906	421.1407	434.5284	477.0248	582.1451	653.0619	756.0579	901.6837	909.3477	952.6418	962.2161	986.5367	1037.9598	1070.8105	1080.8579	1091.1101	1134.5524	1148.031	1175.8901	1225.3815	1227.7089	1248.1665	1252.7003	1275.6071	1316.6575	1358.085	1373.539	1384.9008	1387.3316	1442.1304	1461.9323	1510.8846	1513.2401	1520.2753	2967.3273	2991.982	2997.1509	3002.4953	3008.5492	3062.6302	3098.1884	3106.2725	3771.7866	3845.4701
OCC(O)C1OCCO1	OC[C@@H](O)C1OCCO1	
InChI=1S/C5H10O4/c6-3-4(7)5-8-1-2-9-5/h4-7H,1-3H2	InChI=1S/C5H10O4/c6-3-4(7)5-8-1-2-9-5/h4-7H,1-3H2/t4-/m1/s1
