19
gdb 41230	3.31582	1.88949	1.73882	1.3122	77.2	-0.228	0.0879	0.3159	873.726	0.163017	-385.854603	-385.848574	-385.84763	-385.884472	27.004	
C	-0.0301133338	 1.4967308926	-0.2611706622	-0.267621
C	 1.4830509388	 1.5115046127	 0.1773817768	-0.329302
C	 1.1664060698	 0.2493332085	 0.9943518773	 0.398646
C	 1.6956514021	-1.1390489096	 1.364633379	-0.317156
C	 0.3124490541	-1.6386648562	 1.8416366508	-0.118822
C	-0.3512473151	-0.4113275529	 2.4169181173	 0.090769
O	 0.527438902	 0.6762601713	 2.2240665533	-0.30051
C	-0.8117061837	-0.8825025227	 1.0630903242	-0.157999
C	-0.0369359874	-0.033751984	 0.0774965402	 0.010145
H	-0.6485808261	 2.0927355498	 0.4087314132	 0.122469
H	-0.2475086988	 1.7624122839	-1.2972366804	 0.093725
H	 2.1514074345	 1.3067834993	-0.6625747788	 0.106329
H	 1.8510425489	 2.3717763973	 0.7386939775	 0.110975
H	 2.0879626324	-1.6858540343	 0.5038425455	 0.101427
H	 2.4287125673	-1.1470126126	 2.17600668	 0.104421
H	 0.15583132	-2.6310105988	 2.2425196934	 0.089139
H	-0.9476493061	-0.3660759326	 3.3174741029	 0.100367
H	-1.7776316051	-1.3405463319	 0.8958646864	 0.085082
H	 0.2611847364	-0.6049445797	-0.8067094562	 0.077914
261.9585	304.9359	382.6532	435.387	539.9654	592.4189	670.3064	692.1903	722.1733	779.3028	790.8363	815.7132	818.5205	858.2387	891.7272	903.8081	947.7133	964.0308	980.4186	1007.2988	1029.1901	1053.6071	1065.407	1074.4742	1082.4092	1102.9033	1118.0697	1168.0925	1191.6149	1218.5321	1219.0599	1242.2711	1253.7172	1279.5177	1302.0883	1320.2634	1347.18	1377.8744	1472.9633	1486.2065	1486.8046	3059.3095	3064.4331	3072.248	3084.3993	3116.1451	3129.3497	3153.5502	3198.6472	3206.0211	3220.37
C1CC23CC4C(O2)C4C13	C1C[C@@]23C[C@H]4[C@@H](O2)[C@H]4[C@@H]13	
InChI=1S/C8H10O/c1-2-8-3-4-6(5(1)8)7(4)9-8/h4-7H,1-3H2	InChI=1S/C8H10O/c1-2-8-3-4-6(5(1)8)7(4)9-8/h4-7H,1-3H2/t4-,5-,6-,7-,8+/m1/s1
