22
gdb 101269	2.57172	0.97626	0.85639	4.1354	86.99	-0.2835	0.0316	0.3151	1477.9431	0.193242	-367.229566	-367.219371	-367.218427	-367.265096	37.332	
C	-0.0101406448	 1.5516433569	 0.1962886278	-0.393962
C	-0.1088216302	 0.0234780216	 0.1635068365	-0.168812
C	-1.4979500876	-0.5203389432	-0.2270482095	 0.013072
C	-1.9022685169	-0.147703008	-1.6612753988	-0.402356
C	-1.5296488558	-2.0278719899	-0.0419346935	 0.012834
C	-1.7563518787	-2.6475775065	 1.3021105206	-0.302664
C	-2.8324576422	-2.775297764	 0.2305884975	-0.190218
C	-4.0654083838	-2.054756095	 0.3771600969	 0.291726
N	-5.0605084129	-1.4738725339	 0.4885650757	-0.350627
H	 0.9752971869	 1.8690610147	 0.5509700416	 0.114282
H	-0.1597721303	 1.9953813444	-0.7924662183	 0.121451
H	-0.7598304657	 1.9813141969	 0.8701565515	 0.118535
H	 0.6409470252	-0.3792563457	-0.5317609309	 0.092338
H	 0.1524207234	-0.3722225333	 1.1528427243	 0.0966
H	-2.2361562224	-0.0824233121	 0.4590261575	 0.090281
H	-1.1914613939	-0.5609641749	-2.3872401363	 0.108959
H	-2.8961092783	-0.5365109573	-1.9007840055	 0.131508
H	-1.9299695386	 0.9359869716	-1.8014640934	 0.121272
H	-0.8584858157	-2.5700152857	-0.7049433148	 0.097614
H	-1.2256467436	-3.5530802717	 1.5726085136	 0.127983
H	-1.9762584829	-1.9855046389	 2.1325011573	 0.138453
H	-2.9499919611	-3.7474376258	-0.2361499998	 0.131731
58.4193	83.5885	101.8827	170.5824	211.6868	220.1284	241.1268	285.6928	312.5075	395.5039	423.8248	462.711	563.4991	631.2506	766.452	776.7032	807.5734	841.2089	868.158	946.6725	969.215	977.1339	998.4915	1023.074	1052.1086	1078.1044	1120.5978	1141.2898	1150.7599	1181.8077	1198.3086	1230.1533	1287.3628	1310.7313	1351.7659	1373.0356	1378.0392	1412.1166	1417.836	1425.1975	1483.4725	1487.4202	1496.5061	1499.1175	1506.5698	1512.3386	2348.4617	3007.994	3017.1212	3031.9637	3035.3124	3049.8221	3100.6145	3101.0444	3108.6672	3120.5268	3131.3936	3140.1032	3169.0278	3229.5754
CCC(C)C1CC1C#N	CC[C@@H](C)[C@H]1C[C@H]1C#N	
InChI=1S/C8H13N/c1-3-6(2)8-4-7(8)5-9/h6-8H,3-4H2,1-2H3	InChI=1S/C8H13N/c1-3-6(2)8-4-7(8)5-9/h6-8H,3-4H2,1-2H3/t6-,7+,8-/m1/s1
