21
gdb 120789	4.70624	0.63428	0.5948	5.0265	84.83	-0.2485	0.0268	0.2754	1896.9608	0.181523	-383.254388	-383.244284	-383.24334	-383.29067	35.844	
C	-0.7689936628	 1.505427954	 1.5692395233	-0.383434
C	-0.864500708	-0.0129009318	 1.4019209187	-0.169987
C	-1.2291137332	-0.4348151423	-0.0294785681	-0.199197
C	-1.2774637886	-1.9428236104	-0.1745429871	 0.014033
C	-2.5476663789	-2.7061226496	-0.0027333898	-0.249835
N	-1.8936777894	-2.6425616656	-1.3090096558	-0.096047
C	-2.5463099603	-1.8634744027	-2.3527996098	-0.288685
C	-3.4509542659	-2.7167363487	-3.1334853117	 0.282809
N	-4.1782043062	-3.3700087395	-3.7482651849	-0.300794
H	-0.504067643	 1.7752037201	 2.5959068499	 0.117834
H	-0.0076342447	 1.9300949412	 0.9057921201	 0.11741
H	-1.721951742	 1.991703628	 1.332918381	 0.116431
H	 0.0914911814	-0.47493989	 1.6799608436	 0.102992
H	-1.6112926646	-0.4180405968	 2.0959855105	 0.104888
H	-2.1918131117	 0.0150337198	-0.2978882036	 0.097144
H	-0.4856418447	-0.0233825684	-0.7263393893	 0.103506
H	-0.3570231103	-2.4335865401	 0.141151553	 0.099572
H	-2.5640045517	-3.6842479309	 0.4688918893	 0.127255
H	-3.4560934717	-2.1203977212	 0.1377635381	 0.113402
H	-3.1346019097	-1.0056216422	-1.9898853501	 0.134401
H	-1.7804766242	-1.4653208928	-3.028662087	 0.156301
42.3129	78.5845	87.5387	104.8464	171.662	247.285	248.8828	296.5339	366.679	387.4006	449.7309	474.3954	574.8342	746.9822	769.9098	859.074	884.5712	896.9923	931.3205	948.2198	998.1902	1000.505	1051.071	1070.392	1100.6656	1120.996	1153.2676	1167.0571	1191.3629	1258.7853	1274.3275	1306.94	1322.7955	1341.5948	1373.5245	1387.9406	1415.9945	1427.5035	1471.2678	1484.2329	1493.9262	1500.8915	1509.0139	1512.3518	2368.3232	2977.4596	3011.4056	3023.959	3032.1021	3047.9541	3060.8592	3068.3141	3088.9298	3098.8821	3106.4755	3108.7986	3183.5762
CCCC1CN1CC#N	CCC[C@H]1CN1CC#N	
InChI=1S/C7H12N2/c1-2-3-7-6-9(7)5-4-8/h7H,2-3,5-6H2,1H3	InChI=1S/C7H12N2/c1-2-3-7-6-9(7)5-4-8/h7H,2-3,5-6H2,1H3/t7-,9?/m0/s1
