18
gdb 65692	3.06675	0.97	0.91895	2.7602	81.73	-0.2485	0.0156	0.264	1350.421	0.144526	-401.900565	-401.89097	-401.890025	-401.935091	35.317	
C	 0.0102246583	 1.544397515	-0.4225134743	-0.452095
C	-0.0096843252	 0.0799208027	-0.0608953092	 0.399358
C	 1.2218179719	-0.7539860601	-0.1520358698	-0.330917
C	 0.6377353531	-0.4384280928	 1.2259341772	-0.278624
C	 1.3080514867	 0.4432826029	 2.1330092906	 0.337611
C	 1.8649170083	 1.1866011359	 2.8980660258	-0.455807
O	-1.1781110798	-0.6016523977	-0.4712885081	-0.220987
C	-2.2964160306	-0.3847911173	 0.2605473371	 0.108351
N	-3.3963304304	-0.8668716468	-0.1241383533	-0.438019
H	 0.9454354893	 2.0071007354	-0.1013705854	 0.139003
H	-0.0917134125	 1.660984536	-1.5056254201	 0.13743
H	-0.8128031726	 2.0827233851	 0.0588645123	 0.125457
H	 1.1059767777	-1.7718796448	-0.5040705086	 0.139477
H	 2.1479081117	-0.2634742428	-0.4267414349	 0.131236
H	 0.1086215366	-1.2660014092	 1.6894027037	 0.12699
H	 2.3581287423	 1.838349428	 3.5758263207	 0.199532
H	-2.1168080037	 0.2037895112	 1.1688331928	 0.101145
H	-4.1284132912	-0.6342003008	 0.5439354835	 0.230859
76.7499	96.885	140.082	152.251	207.3675	235.5821	314.4248	336.086	384.7736	458.9473	515.4352	529.8457	586.9408	609.5024	657.6052	744.2581	808.214	823.2785	908.8266	928.2863	944.2363	999.724	1050.9249	1075.1175	1089.4349	1100.6759	1114.5438	1135.6285	1246.6907	1281.8096	1326.5219	1387.0456	1414.5192	1422.0331	1473.3422	1484.279	1499.8685	1744.4778	2235.1837	3041.1219	3045.2936	3107.943	3137.8338	3149.0661	3152.3479	3245.0683	3503.4555	3516.2342
CC1(CC1C#C)OC=N	C[C@]1(C[C@H]1C#C)O[CH][NH]	
InChI=1S/C7H9NO/c1-3-6-4-7(6,2)9-5-8/h1,5-6,8H,4H2,2H3	InChI=1S/C7H9NO/c1-3-6-4-7(6,2)9-5-8/h1,5-6,8H,4H2,2H3/t6-,7-/m1/s1
