25
gdb 59515	3.42617	0.99513	0.8697	0.2903	93.37	-0.2402	0.0857	0.3259	1485.0719	0.228002	-352.343917	-352.333882	-352.332938	-352.378365	38.918	
C	 0.0232359669	 1.5247618558	-0.0316368067	-0.38881
C	 0.0779628069	-0.0039220807	 0.0948643573	 0.023196
C	 0.7381780717	-0.4267663304	 1.4140955449	-0.388855
C	-1.3210551206	-0.6126176382	-0.0351039447	 0.059372
C	-2.0801266455	-0.5243401427	-1.4057370689	-0.328533
C	-2.2779149101	-2.049731799	-1.3842367782	 0.37307
C	-3.5374709816	-2.7493343804	-1.8070786786	-0.49699
C	-0.9312233982	-2.7159426028	-1.3570905218	-0.328067
C	-1.4832789163	-2.1408105393	-0.0760134232	-0.123368
H	 1.0256726591	 1.9628722217	 0.0186406509	 0.107064
H	-0.4303878232	 1.8350909201	-0.9784965515	 0.113247
H	-0.5703195829	 1.9625783142	 0.7803011024	 0.108362
H	 0.6955498259	-0.3875871729	-0.7293115354	 0.066541
H	 0.1617374157	-0.0633047049	 2.2738885969	 0.107175
H	 0.8065199408	-1.5162749201	 1.4941794376	 0.116837
H	 1.7511417423	-0.0194119858	 1.5000987054	 0.106362
H	-1.9553289012	-0.195833712	 0.7569084672	 0.063483
H	-3.0163150009	 0.0354284992	-1.3344296217	 0.096322
H	-1.5092227866	-0.1341388839	-2.2564649393	 0.088169
H	-3.6679306109	-2.7123387793	-2.8960234496	 0.116872
H	-3.5229219935	-3.8045350728	-1.5141053887	 0.114527
H	-4.4233898167	-2.2886092672	-1.3540323635	 0.112615
H	-0.9511383848	-3.8004863435	-1.4128833096	 0.103999
H	-0.0728686448	-2.2684692982	-1.8534378545	 0.101149
H	-1.6707651115	-2.7734542968	 0.7847466233	 0.076262
75.926	116.7459	139.7437	212.0899	233.9175	250.512	273.0773	301.2638	341.0613	378.9967	400.4843	447.7121	512.2217	620.2538	704.4724	793.9608	814.5187	885.2825	904.2614	928.4945	942.5523	958.4554	965.817	977.5109	986.5488	1018.9997	1034.3658	1069.6881	1073.1766	1097.7302	1136.2093	1152.243	1186.4993	1210.2942	1238.9253	1251.0797	1273.1508	1299.9921	1309.4822	1347.8793	1386.7875	1396.7489	1399.907	1418.8661	1425.5131	1483.3004	1486.6768	1488.663	1492.4239	1498.4744	1504.4517	1509.4494	1511.4257	3003.1465	3015.4364	3021.0786	3023.4916	3029.6595	3031.8733	3071.442	3085.0146	3090.6864	3091.3907	3094.1996	3098.7623	3101.0782	3102.7115	3163.679	3189.1942
CC(C)C1CC2(C)CC12	CC(C)[C@H]1C[C@@]2(C)C[C@@H]12	
InChI=1S/C9H16/c1-6(2)7-4-9(3)5-8(7)9/h6-8H,4-5H2,1-3H3	InChI=1S/C9H16/c1-6(2)7-4-9(3)5-8(7)9/h6-8H,4-5H2,1-3H3/t7-,8+,9+/m1/s1
