15
gdb 8060	3.51426	1.88049	1.57251	3.5399	62.39	-0.2529	-0.0355	0.2174	832.3152	0.118094	-399.718288	-399.711135	-399.710191	-399.749697	26.76	
O	-0.0837083699	 1.357469748	 0.1245799862	-0.459427
C	 0.0602361151	-0.0138552552	 0.0550122756	 0.328556
C	 0.551114824	-0.9273195206	-1.0944897243	-0.229023
N	 0.0816839302	-1.9304480704	-0.0261466557	-0.135987
C	 0.7978955254	-1.0109061102	 0.9839182406	-0.244728
C	-1.1345440408	-1.0049385338	 0.1297390516	-0.074161
C	-1.9925235929	-1.0980929336	 1.3624739958	 0.129292
O	-1.7673205899	-1.7656647106	 2.3401452366	-0.24079
H	 0.7894461173	 1.7653425541	 0.1020465004	 0.28838
H	-0.0312365473	-0.9603197072	-2.0184578086	 0.109402
H	 1.6258406795	-0.9832798355	-1.2845283703	 0.104473
H	 1.8865291421	-1.0607179616	 0.9007431351	 0.100912
H	 0.457641044	-1.1419408154	 2.0082927919	 0.143533
H	-1.7851025939	-1.0054939732	-0.7531278215	 0.09243
H	-2.907943693	-0.4661374548	 1.2968741567	 0.087136
97.2088	185.787	203.256	250.1603	348.5196	385.681	486.4123	586.9347	611.6301	714.5406	788.2073	816.3121	860.0433	910.5816	957.6242	974.8277	1006.0826	1074.0329	1088.7524	1101.9024	1112.4689	1166.7366	1176.9121	1189.0025	1244.8028	1290.5622	1340.2459	1398.5864	1426.9206	1509.4477	1550.0826	1825.0354	2870.6684	3043.2319	3057.8482	3074.6446	3129.9741	3177.9955	3803.5351
OC12CN(C1)C2C=O	O[C@@]12CN(C1)[C@H]2C=O	
InChI=1S/C5H7NO2/c7-1-4-5(8)2-6(4)3-5/h1,4,8H,2-3H2	InChI=1S/C5H7NO2/c7-1-4-5(8)2-6(4)3-5/h1,4,8H,2-3H2/t4-/m0/s1
