18
gdb 38008	3.00581	2.26692	1.97453	1.1201	80.13	-0.1948	-0.0144	0.1803	798.9245	0.151115	-364.697118	-364.691354	-364.69041	-364.726716	25.675	
C	-0.0452773822	 1.4879114462	-0.1678278727	-0.222607
C	 1.5216860719	 1.5663790977	-0.024954965	-0.085175
C	 1.9705172992	 1.2769915074	-1.4452674643	-0.149516
C	 1.9782470585	-0.0489022556	-1.6558169266	 0.06241
C	 0.7975736457	-0.8243545616	-2.260148548	-0.208011
N	 0.4317086902	-1.1489826424	-0.8221597828	-0.163996
C	-0.0060217135	-0.0315496787	 0.1599118829	 0.013363
C	 1.4573425634	 0.1493450613	 0.6789076862	-0.064115
C	 1.864974056	-0.8610516589	-0.386898621	-0.001222
H	-0.5529185528	 1.990847661	 0.6631692592	 0.105404
H	-0.4842849971	 1.8364274511	-1.1077961957	 0.098193
H	 1.9335572987	 2.4266208302	 0.507331699	 0.066982
H	 1.7097945827	 1.9908138742	-2.2232855117	 0.090169
H	 0.0735007356	-0.245041449	-2.8383225477	 0.113783
H	 1.0122845732	-1.7704399538	-2.7663199257	 0.116094
H	-0.8226280856	-0.4134399372	 0.7727779917	 0.087172
H	 1.7383865578	 0.04963739	 1.724405867	 0.070343
H	 2.5121162382	-1.721645012	-0.2049724549	 0.070729
249.5775	350.344	428.811	473.3164	568.7029	616.5021	678.0837	702.8954	749.0012	816.7606	832.5069	862.713	871.1377	894.8472	905.1114	921.7862	935.2553	954.4224	964.7969	988.3207	1013.7464	1056.443	1075.6347	1127.8776	1135.5255	1164.6522	1185.2208	1199.7592	1214.6865	1236.7351	1250.9949	1258.4486	1274.4219	1303.02	1313.5548	1333.6616	1466.1627	1495.7782	1631.8264	3032.7069	3048.903	3074.9056	3080.1302	3086.5749	3098.4271	3112.0952	3144.7123	3150.4314
C1C2C=C3CN4C1C2C34	C1[C@@H]2[CH][C]3CN4[C@H]1[C@H]2[C@H]34	
InChI=1S/C8H9N/c1-4-2-6-7(4)8-5(1)3-9(6)8/h1,4,6-8H,2-3H2	InChI=1S/C8H9N/c1-4-2-6-7(4)8-5(1)3-9(6)8/h1,4,6-8H,2-3H2/t4-,6+,7-,8-/m0/s1
