21
gdb 70625	2.33198	1.81932	1.30053	1.437	81.75	-0.2347	0.0751	0.3098	1059.7428	0.183813	-387.076907	-387.068862	-387.067918	-387.108859	33.317	
O	-0.6078598141	 1.1663600599	 0.1389835712	-0.468753
C	-0.1250093537	-0.1390350459	 0.044914886	 0.343517
C	-0.4070750796	-1.0359637192	 1.2123178608	-0.329862
C	 1.0291112116	-0.6649562167	 0.8754746398	-0.112999
C	 1.8328558625	-1.6298863564	 0.0174418503	-0.217344
C	 0.8886893834	-1.9967299241	-1.1575732667	-0.320388
C	-0.0383029112	-0.7914933047	-1.3182993644	 0.334372
C	-1.1931188369	-0.7898751663	-2.2776803559	-0.319008
C	 0.0148771093	 0.0771307531	-2.5532283705	-0.329793
H	 0.0501688879	 1.7518431428	-0.2521613439	 0.280718
H	-0.8291354336	-0.5424584	 2.0803690177	 0.117649
H	-0.7649539121	-2.0471329085	 1.0471494688	 0.109317
H	 1.5461884655	-0.0104236	 1.5687862891	 0.081714
H	 2.7281581467	-1.1193668027	-0.3571535753	 0.097551
H	 2.1720363801	-2.5184134048	 0.5608693424	 0.096627
H	 1.4359746635	-2.2292274892	-2.0752650151	 0.097727
H	 0.3032446613	-2.8883129482	-0.9058768202	 0.105852
H	-1.3505724442	-1.6668192745	-2.8975238611	 0.105811
H	-2.1024982954	-0.286786397	-1.9660383068	 0.12077
H	-0.1139294015	 1.1491536444	-2.4462901561	 0.099211
H	 0.6910024404	-0.2150190018	-3.3501412602	 0.107311
111.7477	224.5544	227.249	269.6382	346.6539	357.9257	402.7371	434.3755	458.1746	550.3861	612.7453	639.6186	780.4729	800.7592	814.4301	841.7078	902.3497	907.7244	926.3866	942.6761	955.2202	979.2035	990.7821	1047.3091	1056.0389	1061.2362	1082.3652	1088.329	1107.3351	1161.6627	1191.0583	1204.7585	1225.1524	1250.4724	1297.9829	1310.5985	1330.6487	1340.7994	1390.3862	1405.4586	1456.877	1481.8619	1492.0426	1500.9957	1509.7081	3030.468	3039.1602	3068.3205	3089.3383	3123.667	3126.9616	3131.1285	3168.539	3202.9215	3217.6721	3221.2914	3794.4012
OC12CC1CCC21CC1	O[C@]12C[C@H]1CCC12CC1	
InChI=1S/C8H12O/c9-8-5-6(8)1-2-7(8)3-4-7/h6,9H,1-5H2	InChI=1S/C8H12O/c9-8-5-6(8)1-2-7(8)3-4-7/h6,9H,1-5H2/t6-,8-/m1/s1
