21
gdb 64330	2.4676	1.41508	1.13381	4.265	79.1	-0.2336	0.0602	0.2937	1176.9928	0.184097	-420.474399	-420.465218	-420.464274	-420.508073	35.563	
C	-0.0103199228	 1.5420829717	-0.014593014	-0.417817
C	-0.0207559558	 0.0069618107	-0.0260060385	 0.253338
C	-1.4759372436	-0.4998220696	 0.0592236019	-0.401411
C	 0.6851421262	-0.5133304786	-1.2931470615	-0.203244
C	 0.9496662095	-2.0160850504	-1.2202931069	-0.178284
N	 1.6363757236	-2.3239084285	 0.0204947321	-0.335282
C	 1.4295491592	-1.666214431	 1.2142860778	 0.429399
O	 1.8583611019	-2.0913401204	 2.2743842711	-0.420842
N	 0.7629675597	-0.4621263727	 1.1197254402	-0.349093
H	 1.0138401992	 1.9223019469	-0.0604258039	 0.12515
H	-0.5715891555	 1.9406578073	-0.8654030449	 0.117284
H	-0.4765541946	 1.926746324	 0.8995997688	 0.113007
H	-2.068731499	-0.141650828	-0.789486696	 0.112768
H	-1.5203791524	-1.5921687712	 0.0749864936	 0.123639
H	-1.9494942568	-0.1385019373	 0.977827103	 0.115088
H	 0.0775239833	-0.2861000741	-2.1741003844	 0.102117
H	 1.6407223815	 0.0108317796	-1.4002055552	 0.112901
H	 0.0053835433	-2.5744682913	-1.3153752198	 0.103179
H	 1.5813958756	-2.3211051508	-2.0617420177	 0.110249
H	 2.0366893039	-3.2395762286	 0.145977364	 0.247876
H	 0.5541593037	-0.0704321877	 2.0258026504	 0.239979
61.5806	109.8042	222.9453	250.4966	258.9062	300.1708	331.8893	370.4007	435.5586	461.0624	488.4464	494.8744	533.1824	560.6722	671.6105	751.7341	760.1922	886.5106	897.1107	931.3155	967.5123	987.826	1007.6962	1036.3494	1066.2286	1147.9362	1177.9012	1204.4696	1236.5787	1267.5765	1291.1556	1362.0226	1371.7378	1399.5916	1413.7159	1429.8402	1442.9933	1469.7108	1479.2363	1487.2331	1490.8526	1504.6891	1506.2128	1535.3598	1799.2094	2976.5705	3029.9065	3034.883	3045.0736	3058.6776	3095.7758	3097.9466	3104.1002	3115.5779	3119.3546	3622.3988	3646.7321
CC1(C)CCNC(=O)N1	CC1(C)CCNC(=O)N1	
InChI=1S/C6H12N2O/c1-6(2)3-4-7-5(9)8-6/h3-4H2,1-2H3,(H2,7,8,9)	InChI=1S/C6H12N2O/c1-6(2)3-4-7-5(9)8-6/h3-4H2,1-2H3,(H2,7,8,9)
