16
gdb 36569	2.89634	1.05481	0.81709	0.4807	81.5	-0.2413	0.0126	0.254	1364.558	0.119897	-363.477011	-363.466925	-363.465981	-363.51312	36.333	
C	-0.2250634758	-0.2794519493	 1.2801474105	-0.460505
C	-0.1342598679	 0.5218347997	 0.3886369625	 0.321752
C	 0.000223256	 1.43685989	-0.7504580618	-0.311968
N	 1.2626473652	 2.1710350738	-0.8729496253	-0.26243
C	 1.3996662425	 3.3803417492	-0.0488346756	-0.346755
C	 1.4770746784	 3.1700415546	 1.4107906832	 0.358663
C	 1.5432514269	 2.9989811407	 2.5978897963	-0.459561
C	 2.5692007305	 4.1429832799	-0.506520047	 0.329446
C	 3.5300880135	 4.7601310533	-0.8762346494	-0.421292
H	-0.3077753208	-0.9647682914	 2.0870051703	 0.198046
H	-0.1332309633	 0.8570749796	-1.6726837076	 0.139872
H	-0.8143486823	 2.1712467534	-0.7370329289	 0.137314
H	 2.0520059132	 1.5551726913	-0.7094802189	 0.235101
H	 0.5041253876	 3.9864452743	-0.2511678982	 0.140843
H	 1.5959933027	 2.8350406824	 3.6458491236	 0.201014
H	 4.3780049238	 5.3090519885	-1.2042595137	 0.20046
18.255	85.9223	128.9867	151.5787	175.1255	229.6862	314.2867	331.6294	346.3612	451.9265	559.4102	569.7923	589.6181	619.825	634.917	640.7645	654.1241	658.1808	662.0008	717.0142	876.5686	932.9712	963.0725	1030.9555	1096.8808	1125.0852	1253.0756	1300.2086	1342.8521	1370.3702	1462.4712	1494.7295	2230.4491	2232.6989	2246.8991	2998.6211	3022.1138	3057.4014	3503.3818	3504.5275	3505.51	3538.3835
C#CCNC(C#C)C#C	C#CCNC(C#C)C#C	
InChI=1S/C8H7N/c1-4-7-9-8(5-2)6-3/h1-3,8-9H,7H2	InChI=1S/C8H7N/c1-4-7-9-8(5-2)6-3/h1-3,8-9H,7H2
