18
gdb 74437	3.00995	1.59807	1.27443	2.488	76.8	-0.2239	0.0026	0.2265	1029.8624	0.147674	-401.903652	-401.895985	-401.895041	-401.935258	30.996	
C	 0.0449909463	 1.4872793353	 0.0504978007	-0.502538
C	-0.0608004032	-0.0013823332	-0.0433602682	 0.344244
C	-0.0399500973	-0.7761194313	-1.1387236943	-0.317451
C	 0.0405681854	-2.2246309815	-0.7247181039	 0.36845
O	-0.2862480332	-3.2079065943	-1.656243	-0.489429
C	 1.4223781564	-2.4082977283	-0.0252120326	-0.168494
N	 0.8550442598	-2.0631122069	 1.3110087199	-0.161547
C	-0.1275873245	-0.8819205332	 1.1573826135	-0.126737
C	-0.5135668422	-2.2450374999	 0.7472224555	-0.126024
H	 0.9623721697	 1.7867171458	 0.5722072723	 0.13672
H	 0.0510715087	 1.9506443132	-0.9394812837	 0.126312
H	-0.7910616639	 1.9110635112	 0.6207697547	 0.128261
H	 0.1331522754	-0.4506557235	-2.1588390766	 0.09909
H	-1.1061376662	-2.9491257207	-2.0906601811	 0.280717
H	 1.6955977881	-3.4658304349	 0.006063913	 0.123596
H	 2.264471156	-1.8011225614	-0.3722493458	 0.097258
H	-0.3879508406	-0.4842701223	 2.1318164809	 0.092852
H	-1.2687585649	-2.8902754942	 1.1863840957	 0.094721
155.9387	174.9758	256.81	296.07	315.6634	360.474	424.9017	459.23	564.2642	578.1226	623.5772	700.6672	734.9599	796.4671	810.7282	858.5143	908.3452	933.9348	977.3189	988.7735	1012.789	1026.2163	1061.255	1069.7281	1109.1022	1142.2211	1173.8953	1191.9324	1246.3323	1264.1737	1271.4038	1343.0207	1360.1725	1376.0172	1414.3302	1478.9236	1486.9082	1491.8477	1683.4621	3020.8732	3046.671	3068.2901	3114.4272	3116.9847	3153.4465	3180.9212	3191.3092	3805.1218
CC1=CC2(O)CN3C1C23	CC1=C[C@@]2(O)CN3[C@@H]1[C@@H]23	
InChI=1S/C7H9NO/c1-4-2-7(9)3-8-5(4)6(7)8/h2,5-6,9H,3H2,1H3	InChI=1S/C7H9NO/c1-4-2-7(9)3-8-5(4)6(7)8/h2,5-6,9H,3H2,1H3/t5-,6-,7+,8?/m0/s1
