17
gdb 43758	3.40537	1.28691	1.08588	1.346	74.95	-0.2476	0.0115	0.2591	1126.0353	0.136781	-417.94756	-417.939887	-417.938943	-417.980196	29.5	
N	-0.1857464377	 1.1815479993	-0.1546615755	-0.551973
C	-0.1688878178	-0.0651449389	-0.0496609322	 0.450306
O	 0.9085771364	-0.9607965698	-0.1240644861	-0.310746
C	-0.0240340369	-2.0833688223	-0.0935242779	 0.461061
C	-0.7158510269	-2.0821039283	 1.2219172665	-0.338308
C	-1.1937582235	-1.1334825512	 0.1133972368	-0.260775
C	 0.2473804616	-3.2074115483	-1.0147204642	-0.109151
C	 0.9492260146	-2.9719218859	-2.300258163	-0.242856
N	 1.6346123222	-3.6703896937	-1.1968607223	-0.324522
H	 0.7530667664	 1.5560909487	-0.3005069123	 0.23228
H	-1.3885724473	-2.9151941633	 1.4030642414	 0.133088
H	-0.2149503367	-1.6892535701	 2.1011159041	 0.134959
H	-2.200565981	-1.1311528316	-0.2766664229	 0.128866
H	-0.4826197488	-4.0107705962	-0.9463725748	 0.099236
H	 0.7148637723	-3.5928622486	-3.1597584066	 0.122504
H	 1.2469505484	-1.953586463	-2.5287605497	 0.129148
H	 2.2652513349	-3.0179814169	-0.7343532212	 0.246881
68.2066	115.0298	175.5672	254.7275	379.8183	409.9538	445.4643	504.5193	627.9581	667.7806	743.3799	830.6567	845.9033	855.7695	868.8884	905.8763	941.0819	958.6767	970.5434	981.1781	995.7956	1018.6203	1063.4333	1084.9849	1101.5801	1131.9797	1156.5061	1195.8143	1237.9589	1260.7756	1287.5175	1300.818	1341.829	1451.7896	1493.597	1513.9812	1836.3593	3120.4883	3123.4057	3135.5555	3211.8132	3215.8802	3235.294	3481.3365	3492.0437
N=C1OC2(CC12)C1CN1	[NH][C]1O[C@]2(C[C@@H]12)[C@H]1CN1	
InChI=1S/C6H8N2O/c7-5-3-1-6(3,9-5)4-2-8-4/h3-4,7-8H,1-2H2	InChI=1S/C6H8N2O/c7-5-3-1-6(3,9-5)4-2-8-4/h3-4,7-8H,1-2H2/t3-,4+,6-/m0/s1
