13
gdb 10252	2.72561	2.09724	1.18525	3.2406	58.24	-0.2678	-0.0384	0.2294	923.05	0.09603	-431.987503	-431.979878	-431.978934	-432.019799	27.187	
N	 1.0004618896	-0.8725865609	-0.3501877966	-0.563097
C	-0.0317482344	-0.0364586177	-0.1551299878	 0.502866
O	 0.0370037532	 1.1716653288	-0.0756941436	-0.38567
N	-1.3217180867	-0.6955827737	-0.035874042	-0.199628
C	-1.5775189689	-2.0654621967	-0.1022749474	 0.139955
N	-0.6813681431	-2.9507349803	-0.2824110974	-0.492226
C	-2.4369373022	 0.1483541479	 0.1701853324	 0.180173
O	-3.564877435	-0.2584257958	 0.2868956226	-0.311367
H	 1.9092397842	-0.4509675178	-0.4371411725	 0.269262
H	 0.8444424378	-1.8772304234	-0.4035757058	 0.295376
H	-2.6439635771	-2.256049254	 0.0220612717	 0.15871
H	-1.0930819714	-3.880240605	-0.2964559597	 0.245381
H	-2.1339176761	 1.1999621386	 0.2074174559	 0.160265
62.9406	164.9909	205.4847	284.5102	296.3665	320.1127	422.1343	449.2434	466.0578	627.3515	676.6157	711.1548	784.1166	834.9144	835.0954	1059.4491	1093.0332	1105.4917	1153.7821	1252.8867	1312.8909	1354.3052	1411.7191	1424.7532	1606.3887	1715.4063	1819.0322	1832.2467	3101.8784	3137.137	3407.3573	3523.9414	3699.5801
NC(=O)N(C=N)C=O	NC(=O)N(C=N)C=O	
InChI=1S/C3H5N3O2/c4-1-6(2-7)3(5)8/h1-2,4H,(H2,5,8)	InChI=1S/C3H5N3O2/c4-1-6(2-7)3(5)8/h1-2,4H,(H2,5,8)
