14
gdb 98966	5.16071	0.73504	0.64601	7.6036	62.86	-0.2566	-0.0966	0.16	1594.6779	0.096824	-510.987937	-510.978123	-510.977179	-511.024627	32.076	
O	 0.228868239	 1.3158144247	 0.0105380123	-0.382851
C	-0.0053379991	-0.0622590731	 0.0010204712	-0.196273
C	-1.5197168368	-0.2946501223	 0.0148585194	 0.424683
O	-2.3399570709	 0.5754271172	 0.026770658	-0.261583
N	-1.8291612685	-1.6722780846	 0.0111964822	-0.410617
C	-3.094382733	-2.254301206	 0.0196794785	 0.341274
O	-4.1465218978	-1.6788791255	 0.0317897903	-0.270968
C	-3.0025717504	-3.799080198	 0.0114609221	 0.081891
O	-3.9761984241	-4.4920684775	 0.0163571499	-0.189958
H	 1.1794270164	 1.4607864646	-0.0092628901	 0.299422
H	 0.4056695171	-0.5600014682	-0.8950603492	 0.114515
H	 0.4246894828	-0.5752809895	 0.8795036147	 0.114136
H	-1.0451809055	-2.3101159571	 0.0013867176	 0.256581
H	-1.9717272592	-4.2297045946	 0.0005710531	 0.079749
37.9886	55.9878	71.7596	121.5852	138.5887	208.1197	264.927	283.2314	360.1615	393.6934	542.9451	551.747	635.7787	675.7017	762.4955	855.1221	974.7529	990.2177	1029.8478	1106.705	1144.5974	1166.965	1239.6139	1255.2228	1423.6945	1443.3473	1505.3705	1517.0371	1822.5491	1858.3338	1885.165	2833.5635	2944.634	2968.7967	3592.2071	3838.163
OCC(=O)NC(=O)C=O	OCC(=O)NC(=O)C=O	
InChI=1S/C4H5NO4/c6-1-3(8)5-4(9)2-7/h1,7H,2H2,(H,5,8,9)	InChI=1S/C4H5NO4/c6-1-3(8)5-4(9)2-7/h1,7H,2H2,(H,5,8,9)
