20
gdb 46907	3.11285	1.34751	1.03218	3.1268	79.28	-0.2197	-0.0079	0.2118	1172.0532	0.173263	-403.152842	-403.144847	-403.143903	-403.185517	31.625	
O	 0.0353747579	-0.0056366562	-0.3471127614	-0.302959
C	-0.0012977175	 1.1775442939	-0.0935299697	 0.408947
C	-1.3408632393	 1.8934849955	 0.0689639932	-0.289099
C	-1.4824654773	 2.8200186997	 1.2963673536	-0.231301
C	-0.7384937185	 4.1303319308	 1.1319964075	 0.010218
C	 0.0914772461	 4.7129506938	 2.249945509	-0.327826
C	 0.7693001164	 4.1015077787	 1.05012533	 0.011859
N	 1.3739491986	 2.8110938712	 1.2026570791	-0.297386
C	 1.308856979	 1.9724769598	 0.0051221477	-0.258962
H	-1.5043123275	 2.4863591315	-0.8434488147	 0.113227
H	-2.1011086009	 1.1079059819	 0.0793490444	 0.117359
H	-2.5477260513	 3.02760205	 1.4490922543	 0.101598
H	-1.135818479	 2.2956282561	 2.1907503878	 0.11639
H	-1.2268688953	 4.844696927	 0.4742208969	 0.084835
H	 0.1269456488	 5.7904934535	 2.3653350218	 0.111082
H	 0.1442666607	 4.1519545416	 3.1765600603	 0.119613
H	 1.2314077414	 4.7888175365	 0.3349304612	 0.069267
H	 2.3302046061	 2.8890571346	 1.5255748615	 0.227605
H	 2.1094315142	 1.2300949696	 0.0321297132	 0.119606
H	 1.4280675574	 2.5542132604	-0.9291243857	 0.095929
56.7976	167.2384	243.3039	275.4917	307.2408	364.1951	383.7121	476.214	502.0596	559.8549	664.1034	688.8302	768.2823	811.07	824.5686	857.8011	874.2661	925.9778	962.3949	989.6159	1051.3289	1060.4531	1069.3141	1088.3127	1132.7638	1136.9998	1175.0821	1187.9294	1235.5251	1245.1331	1273.2633	1295.9152	1331.9174	1340.6053	1361.6417	1402.6723	1425.6399	1460.9379	1463.4666	1472.5739	1481.4073	1499.9396	1801.4495	2920.6986	3007.9694	3040.9025	3042.2775	3091.8924	3097.0595	3106.5371	3135.357	3141.2171	3224.7485	3547.9047
O=C1CCC2CC2NC1	O=C1CC[C@H]2C[C@H]2NC1	
InChI=1S/C7H11NO/c9-6-2-1-5-3-7(5)8-4-6/h5,7-8H,1-4H2	InChI=1S/C7H11NO/c9-6-2-1-5-3-7(5)8-4-6/h5,7-8H,1-4H2/t5-,7+/m0/s1
