21
gdb 58450	3.1117	1.03564	0.97436	1.5968	78.8	-0.2432	-0.0266	0.2166	1323.8053	0.178367	-424.241161	-424.230929	-424.229985	-424.276998	38.19	
C	 0.0279373076	 1.4623326257	-0.1994485012	-0.397188
C	-0.0362257484	-0.052268786	 0.0440434589	 0.00809
C	 0.7496149364	-0.4462819861	 1.302863824	-0.397188
C	-1.4855083424	-0.5435751818	 0.1160659319	 0.407745
O	-2.0932101342	 0.0991689733	 1.2245352165	-0.484898
C	-2.3273697446	-0.4310641698	-1.2046832206	-0.409046
C	-2.678636005	-1.9195207215	-1.0588372643	 0.391567
O	-3.4501206342	-2.6473676849	-1.6129143269	-0.289563
C	-1.6964739367	-2.0995961291	 0.1086804768	-0.409056
H	 1.0668551985	 1.7957155855	-0.2845205129	 0.109414
H	-0.4895413267	 1.7461221593	-1.1216759841	 0.110036
H	-0.439457373	 2.0035107254	 0.6274193309	 0.134972
H	 0.4169092559	-0.5600885766	-0.8187931327	 0.067012
H	 0.7493132397	-1.5302541844	 1.4572296604	 0.110035
H	 1.7917554691	-0.1214207065	 1.2245052014	 0.109415
H	 0.3109891454	 0.018795667	 2.1896285003	 0.13497
H	-3.0083013165	-0.1912407798	 1.2953742842	 0.280845
H	-3.1664167156	 0.2706518853	-1.1840928684	 0.128728
H	-1.7353845501	-0.2346741918	-2.1051402289	 0.132691
H	-0.8121609591	-2.6763334949	-0.1832126981	 0.132693
H	-2.1052890262	-2.5357338385	 1.0249151729	 0.128726
17.4167	95.0766	179.1531	207.3092	226.356	241.2962	272.4266	301.6346	349.6087	388.4605	408.0217	408.6843	455.8446	549.252	643.0247	655.2657	719.2097	851.9388	901.3701	920.9301	927.3321	947.9759	975.1351	998.5633	1048.8113	1050.4406	1109.9724	1136.492	1160.3555	1184.1853	1196.4691	1213.2627	1253.9131	1345.1705	1346.4847	1398.375	1402.6561	1411.3587	1422.2814	1430.0809	1485.3233	1493.5165	1501.6559	1515.7528	1893.0482	3006.887	3036.4801	3040.6511	3047.3357	3052.6597	3099.7031	3102.7722	3105.2503	3106.3462	3119.6399	3124.2937	3811.0789
CC(C)C1(O)CC(=O)C1	CC(C)C1(O)CC(=O)C1	
InChI=1S/C7H12O2/c1-5(2)7(9)3-6(8)4-7/h5,9H,3-4H2,1-2H3	InChI=1S/C7H12O2/c1-5(2)7(9)3-6(8)4-7/h5,9H,3-4H2,1-2H3
