14
gdb 23233	2.77531	1.6054	1.1637	2.4602	65.19	-0.231	0.0081	0.2391	1008.1123	0.099167	-473.685455	-473.677963	-473.677019	-473.717287	29.02	
O	-0.1629106343	 1.3234557154	 0.037027484	-0.399116
N	-0.0086622622	-0.0706404333	-0.1371142346	-0.308018
C	-1.1288019602	-0.6572395671	-0.1532012287	 0.420582
C	-2.6019457038	-0.3347248052	 0.1076408077	-0.05749
O	-3.2718584471	-0.8610910361	-1.0785388382	-0.286721
C	-2.9098958278	-2.1573136783	-0.5975421297	 0.058792
C	-2.7025412034	-1.7350088663	 0.8155866434	-0.221622
C	-1.4649206713	-2.1015040803	-0.09726249	 0.258212
O	-0.6571336265	-3.1967839125	-0.1002384744	-0.448647
H	 0.7487122706	 1.6311359054	-0.0017999156	 0.307086
H	-2.9496358827	 0.634141419	 0.4481063784	 0.117539
H	-3.3485653582	-3.0431151595	-1.0388611943	 0.130023
H	-3.0169739831	-2.0805536598	 1.7892140541	 0.12482
H	 0.0864378299	-3.0243625015	 0.490716478	 0.30456
126.8828	162.6649	264.3599	278.1224	325.5494	374.1774	393.6319	527.5161	558.8166	619.066	684.835	730.5323	758.5692	817.0976	822.9562	896.6526	913.3414	941.7685	951.5503	997.9819	1023.6417	1071.1387	1121.0202	1164.8791	1191.9581	1228.0649	1317.6079	1338.9927	1412.0281	1478.8898	1797.7426	3196.0953	3206.942	3231.9031	3779.5523	3822.6854
ON=C1C2OC3C2C13O	ON=C1[C@H]2O[C@@H]3[C@H]2[C@]13O	
InChI=1S/C5H5NO3/c7-5-1-2(3(5)6-8)9-4(1)5/h1-2,4,7-8H	InChI=1S/C5H5NO3/c7-5-1-2(3(5)6-8)9-4(1)5/h1-2,4,7-8H/t1-,2-,4+,5-/m0/s1
