22
gdb 103844	2.68489	1.00529	0.89201	1.4226	83.4	-0.2323	0.0549	0.2871	1435.9452	0.192974	-404.307145	-404.296938	-404.295994	-404.342755	37.439	
C	-0.2360878341	 1.9189277852	 0.212935034	-0.449425
C	-0.1385804664	 0.4150918961	 0.0734510483	 0.27768
C	-1.3704069128	-0.1990198483	-0.5884605986	-0.156196
O	-1.2395144904	-1.5947814023	-0.8312753067	-0.412017
N	 1.1853969352	-0.117410094	-0.2939817799	-0.389341
C	 0.6172487971	-0.4272078735	 1.0397795288	-0.043704
C	 1.3365181058	 0.0848412737	 2.2441815514	 0.027075
C	 0.7986210037	-0.2282705438	 3.6205504268	-0.270745
C	 2.068890548	-0.8836363387	 3.1423638334	-0.269395
H	 0.6763382519	 2.3364957379	 0.640472583	 0.131698
H	-0.3866800918	 2.3883600456	-0.7665176528	 0.112239
H	-1.0788899112	 2.2013770067	 0.8543883596	 0.115234
H	-2.2387116593	-0.0620254672	 0.0686756427	 0.114266
H	-1.5868406633	 0.3405127375	-1.5222781438	 0.094798
H	-1.0026512107	-1.7216452146	-1.7528920297	 0.293094
H	 1.0626896835	-0.9374684639	-0.8856364057	 0.21016
H	 0.22408828	-1.4365809526	 1.1572094978	 0.08938
H	 1.8046923883	 1.0546459556	 2.116869189	 0.085556
H	 0.8651235896	 0.5372226139	 4.3857134197	 0.109574
H	-0.093871217	-0.8424962583	 3.685780129	 0.109952
H	 2.0301504474	-1.9373996551	 2.8857542913	 0.109933
H	 3.0102283067	-0.5674041897	 3.5776663024	 0.110185
55.3343	87.4958	128.905	146.3259	158.7239	178.4133	267.9107	312.9803	343.7432	364.426	438.8203	480.6626	581.5531	707.1907	760.4424	817.1378	826.8261	880.5912	909.9396	924.8215	954.9186	965.0053	1009.0188	1052.6356	1059.5008	1075.2407	1076.1423	1085.2882	1119.6967	1129.3586	1152.6637	1197.4032	1221.0958	1226.7393	1263.8893	1298.2435	1326.2846	1353.4728	1385.2835	1417.0802	1421.5829	1469.7023	1473.3982	1492.3584	1494.8641	1503.0648	1516.1614	2992.9125	3028.9037	3045.5171	3084.5612	3114.0013	3128.302	3133.1604	3137.1791	3168.7214	3206.2852	3222.2373	3476.5567	3854.9968
CC1(CO)NC1C1CC1	C[C@@]1(CO)N[C@H]1C1CC1	
InChI=1S/C7H13NO/c1-7(4-9)6(8-7)5-2-3-5/h5-6,8-9H,2-4H2,1H3	InChI=1S/C7H13NO/c1-7(4-9)6(8-7)5-2-3-5/h5-6,8-9H,2-4H2,1H3/t6-,7-/m0/s1
