20
gdb 118356	1.79964	1.28936	0.83151	2.8713	77.14	-0.2433	-0.035	0.2082	1428.9795	0.168664	-440.254366	-440.244294	-440.243349	-440.290595	35.084	
C	 0.4818738883	 1.4519360666	 0.3323605088	-0.388847
C	-0.0679778708	 0.0814149561	-0.0183496473	-0.046421
O	 0.9238080238	-0.6246535213	-0.755640187	-0.261009
C	 0.548231107	-1.9301680188	-1.1319221614	-0.001044
C	-0.407472797	-1.906485214	-2.3233229977	 0.139225
O	-1.1775987056	-2.7905032043	-2.5904708126	-0.241108
C	 1.7983837406	-2.6965050693	-1.5531491337	-0.010694
C	 2.8927486064	-2.0051044644	-2.2799568801	-0.235225
N	 3.0703570969	-2.4370372502	-0.8796353388	-0.326923
H	 1.388926139	 1.3599046753	 0.9364482572	 0.130494
H	 0.7272792053	 2.0121428127	-0.5741444025	 0.131195
H	-0.2581008355	 2.020890577	 0.9024504024	 0.124498
H	-0.3238321686	-0.4847281654	 0.890793201	 0.102727
H	-0.9902899583	 0.174738985	-0.6126767967	 0.102152
H	 0.0591306332	-2.4605582225	-0.2999544631	 0.096162
H	-0.2920266122	-0.9987835895	-2.9599021443	 0.086236
H	 1.5940872758	-3.7424277166	-1.7661915962	 0.113234
H	 3.4848617591	-2.5502483011	-3.0087792311	 0.121145
H	 2.7780908867	-0.943102367	-2.4722726716	 0.125022
H	 2.9480202158	-1.6227608781	-0.2800792656	 0.239179
64.6563	66.5231	87.1112	111.1444	137.8475	230.4078	246.9786	295.5491	309.7019	374.5149	453.1105	527.2785	629.4857	781.7941	820.9295	860.4733	906.5402	932.0822	962.1434	988.9866	1041.2422	1058.3268	1082.0942	1115.2155	1141.4234	1149.9232	1162.4998	1186.2431	1210.5282	1268.7939	1289.0829	1300.0877	1308.2484	1334.5192	1393.4032	1401.4431	1407.1519	1436.9283	1483.8145	1498.5486	1503.8527	1527.2534	1834.0585	2870.1987	2975.5005	2991.0053	3007.3373	3047.4593	3121.4126	3123.3021	3124.3685	3148.289	3211.9527	3492.2569
CCOC(C=O)C1CN1	CCO[C@@H](C=O)[C@H]1CN1	
InChI=1S/C6H11NO2/c1-2-9-6(4-8)5-3-7-5/h4-7H,2-3H2,1H3	InChI=1S/C6H11NO2/c1-2-9-6(4-8)5-3-7-5/h4-7H,2-3H2,1H3/t5-,6+/m1/s1
