17
gdb 117910	2.89947	1.10899	0.85563	5.0264	72.3	-0.2647	-0.0635	0.2012	1316.174	0.134867	-455.16907	-455.159304	-455.15836	-455.204609	33.797	
C	 0.1536707736	 1.5302693946	 0.0242686332	-0.363482
N	-0.0746804436	 0.091004823	-0.004643037	-0.09845
C	-0.2356490204	-0.5988558331	 1.2879232381	-0.206981
C	-1.6611734386	-1.098268501	 1.5906534045	-0.039821
O	-1.9230685801	-2.3911715589	 1.1117152399	-0.421336
C	-0.1344048788	-0.6414729647	-1.1363039865	 0.364258
O	-0.3957418267	-1.8356389678	-1.191324133	-0.380415
C	 0.1558090957	 0.0781347889	-2.3897903159	 0.225675
N	 0.3716291878	 0.5773671989	-3.4094650275	-0.324923
H	 0.2497614076	 1.9208547822	-0.9884230849	 0.179612
H	-0.6858377375	 2.0354353874	 0.5137295254	 0.148483
H	 1.0707544775	 1.7596986333	 0.5774337686	 0.147778
H	 0.443542292	-1.457256691	 1.3183949944	 0.147276
H	 0.0796786101	 0.1156719657	 2.0521234296	 0.118658
H	-1.7820301281	-1.1374842517	 2.6797181974	 0.11191
H	-2.3829842937	-0.3526252943	 1.2128780407	 0.085307
H	-1.5630859269	-2.4462849714	 0.2139558328	 0.306453
41.3561	78.2924	137.8815	152.5748	181.3546	196.9398	279.3451	309.2695	361.0503	405.7574	479.6514	524.6324	545.5943	593.9325	721.6978	758.6624	861.8475	895.2977	1034.3543	1071.9965	1101.5669	1150.4716	1154.6089	1207.6734	1254.5296	1318.3718	1367.0154	1394.3736	1439.7255	1463.1408	1472.0989	1484.5504	1487.0828	1504.9688	1526.4787	1731.8232	2348.8369	2949.6004	3033.4347	3048.9494	3060.9922	3091.3259	3113.4658	3157.6581	3705.563
CN(CCO)C(=O)C#N	CN(CCO)C(=O)C#N	
InChI=1S/C5H8N2O2/c1-7(2-3-8)5(9)4-6/h8H,2-3H2,1H3	InChI=1S/C5H8N2O2/c1-7(2-3-8)5(9)4-6/h8H,2-3H2,1H3
