17
gdb 72831	2.71384	1.59187	1.31083	4.6561	69.36	-0.2551	0.0047	0.2598	1011.2478	0.13758	-455.125746	-455.117834	-455.11689	-455.158687	29.765	
N	 0.090268668	 1.4602366941	-0.0965351439	-0.576138
C	 0.0073861659	 0.0210656	 0.0125994189	 0.198937
C	 0.2094331522	-0.8960462802	-1.2267390764	-0.121024
O	-1.0828227371	-1.5059814531	-1.034208887	-0.285289
C	-1.3953567968	-0.6284616713	 0.0738065555	 0.022586
C	-1.4409577972	-1.3860564472	 1.3782297435	 0.414907
N	-2.4678639683	-1.9091205096	 1.8881385847	-0.533046
O	-0.1765798908	-1.4533899564	 1.9008131586	-0.245798
C	 0.6882952639	-0.4779072206	 1.3016833119	-0.115011
H	 1.0596201599	 1.7666500929	-0.0951913006	 0.234044
H	-0.3118148133	 1.7768304795	-0.9739840933	 0.237481
H	 0.2663852556	-0.350979289	-2.1788046362	 0.09541
H	 1.0251106324	-1.6282554354	-1.1810600574	 0.10552
H	-2.282970457	-0.0179787968	-0.1039716828	 0.104418
H	-2.2350859165	-2.3869787275	 2.7613427309	 0.225071
H	 1.6570860076	-0.9538209797	 1.124849345	 0.116663
H	 0.8166036416	 0.35825677	 1.9980536786	 0.121267
52.0712	117.7261	201.5011	245.2086	316.5418	360.1169	380.4892	463.1546	584.3643	633.9501	684.0862	723.4406	849.365	868.2572	885.1433	909.9755	926.2672	951.4725	995.7239	1021.073	1030.5094	1065.9784	1108.4846	1139.5493	1155.5171	1188.5088	1252.0857	1275.3945	1287.6779	1310.4174	1350.4154	1357.6443	1420.7951	1513.0869	1522.6752	1661.0425	1781.7071	3000.1508	3038.9153	3052.47	3093.3277	3099.2551	3464.1828	3486.1331	3564.8475
NC12COC1C(=N)OC2	N[C@]12CO[C@H]1[C]([NH])OC2	
InChI=1S/C5H8N2O2/c6-4-3-5(7,1-8-3)2-9-4/h3,6H,1-2,7H2	InChI=1S/C5H8N2O2/c6-4-3-5(7,1-8-3)2-9-4/h3,6H,1-2,7H2/t3-,5-/m0/s1
