17
gdb 60323	3.04338	0.8568	0.77634	1.9584	72.67	-0.2745	-0.0478	0.2267	1502.7002	0.13235	-458.953188	-458.943149	-458.942204	-458.989349	35.264	
C	 0.0000106349	 1.5629923205	-0.0844575036	-0.400975
C	-0.0258597526	 0.040001414	 0.0687296667	 0.119607
O	 0.6205671274	-0.3838981493	 1.2594792589	-0.434466
C	-1.4345119883	-0.541320975	-0.0085220499	-0.087372
O	-2.1534581506	-0.0348395061	 1.1393593042	-0.251011
C	-3.4390376113	-0.4181456093	 1.2445614562	 0.311049
O	-4.0126733573	-1.1215936888	 0.4528348852	-0.347237
C	-4.0427948062	 0.1317784762	 2.4389132552	 0.216962
C	-4.5926292461	 0.5607990827	 3.4171114713	-0.355062
H	 1.0270794368	 1.9240381126	 0.0069549679	 0.12901
H	-0.3918481596	 1.8690850708	-1.060218596	 0.115243
H	-0.6073152013	 2.0415317782	 0.6901532755	 0.125789
H	 0.5476042325	-0.4141892539	-0.7483793432	 0.096069
H	 0.0701522397	-0.0916137923	 1.9953987072	 0.287753
H	-1.956689749	-0.2469688843	-0.923755292	 0.126097
H	-1.4102231232	-1.63298468	 0.0465733124	 0.132885
H	-5.0813014657	 0.939209624	 4.2819585239	 0.215658
34.8901	63.6839	99.2188	160.3076	209.1286	243.2683	252.7824	293.738	359.6407	370.1303	434.467	518.8317	583.9451	647.2621	661.4546	700.8106	773.3542	823.5818	906.3373	936.4937	956.8461	1001.0638	1059.8539	1130.3699	1153.8415	1245.9221	1263.3672	1309.2014	1362.7018	1389.2323	1409.3778	1426.9934	1487.3958	1498.8453	1499.8613	1797.8403	2237.622	3039.6063	3042.9743	3061.8512	3109.3013	3114.149	3128.7434	3497.2514	3797.3036
CC(O)COC(=O)C#C	C[C@@H](O)COC(=O)C#C	
InChI=1S/C6H8O3/c1-3-6(8)9-4-5(2)7/h1,5,7H,4H2,2H3	InChI=1S/C6H8O3/c1-3-6(8)9-4-5(2)7/h1,5,7H,4H2,2H3/t5-/m1/s1
