13
gdb 12958	2.63807	2.27123	1.76984	4.496	54.55	-0.2365	0.0024	0.2389	776.7617	0.094375	-435.705615	-435.69826	-435.697316	-435.736953	27.251	
O	-0.2257392296	 1.4123542835	 0.031916094	-0.412424
C	-0.1380913271	 0.0227893841	 0.0230757023	 0.016309
C	-0.4819494591	-0.8285673861	 1.219576007	-0.121312
N	-1.5527003824	-0.222851568	 2.0171192969	-0.335394
C	-2.4325871928	-0.1520363426	 0.9136431564	 0.362409
O	-3.5422943856	 0.2754822531	 0.7995417469	-0.335051
C	-1.4020096983	-0.8215260962	-0.0037527585	 0.200966
O	-1.6215533358	-1.823889867	-0.9148355865	-0.442863
H	 0.5848292787	 1.7656507851	 0.415234943	 0.293563
H	 0.6370361504	-0.400112095	-0.6200612121	 0.104708
H	 0.118473449	-1.6379483741	 1.6142195193	 0.122956
H	-1.3890786025	 0.5970053656	 2.59116946	 0.243146
H	-1.9025625748	-1.4233917825	-1.7456427186	 0.302987
138.9923	185.754	235.889	251.6106	291.1784	320.4526	423.6782	501.6509	571.7544	663.6774	692.1165	751.6454	777.8185	827.8802	936.0037	958.6795	991.0015	1057.5832	1094.7644	1155.154	1211.8408	1260.7914	1277.9182	1313.0662	1327.6937	1375.7219	1486.0568	1911.0892	3089.8704	3204.2804	3546.599	3796.6845	3797.0614
OC1C2NC(=O)C12O	O[C@H]1[C@H]2NC(=O)[C@@]12O	
InChI=1S/C4H5NO3/c6-2-1-4(2,8)3(7)5-1/h1-2,6,8H,(H,5,7)	InChI=1S/C4H5NO3/c6-2-1-4(2,8)3(7)5-1/h1-2,6,8H,(H,5,7)/t1-,2+,4+/m1/s1
