19
gdb 106184	2.69098	1.51802	1.35256	2.3352	74.08	-0.2375	0.072	0.3095	1038.2265	0.160927	-422.990215	-422.982477	-422.981533	-423.022619	30.216	
O	 0.1633211624	 1.367521391	-0.0854001368	-0.410171
C	 0.0295587323	-0.0396633203	 0.0622158205	-0.201827
C	-1.3968602141	-0.4895035497	 0.0632791845	 0.326601
C	-2.0478351508	-1.8584269763	-0.1016719041	-0.142172
C	-2.9353154945	-1.6261209875	 1.1243784435	-0.251691
C	-2.5394688575	-0.1143836075	 1.0465865502	 0.030088
O	-3.4900137357	 0.6472023206	 0.3176494506	-0.262321
C	-3.5439615911	 0.0836938754	-0.9983571111	-0.104009
C	-2.2780737106	-0.7565482785	-1.1269595407	-0.138261
H	-0.362884204	 1.6286596994	-0.8483252337	 0.282852
H	 0.5836402498	-0.5860863588	-0.7197399549	 0.085021
H	 0.511881774	-0.2757788439	 1.0178120306	 0.11084
H	-1.5757031185	-2.7916658115	-0.3877145865	 0.087407
H	-4.004540486	-1.8512170923	 1.0549052788	 0.098662
H	-2.5215949348	-2.1076212979	 2.0146738819	 0.103926
H	-2.3084423814	 0.4110422374	 1.9718176429	 0.091357
H	-4.4587706428	-0.5126779634	-1.120864174	 0.100286
H	-3.5735373502	 0.9011808241	-1.7285478168	 0.102437
H	-1.8252153764	-0.8973343304	-2.1022934249	 0.090978
80.8604	119.8029	232.8243	253.9589	310.6101	385.3929	420.1611	475.9845	597.7808	682.6624	739.276	764.5571	828.584	871.1788	905.2693	931.4304	941.2974	954.7433	989.3128	1014.9242	1038.4573	1052.4735	1075.8764	1087.072	1110.6208	1154.8505	1157.0504	1182.1634	1219.413	1229.3994	1249.7869	1281.1045	1304.5369	1335.6083	1363.8449	1375.8803	1422.7559	1456.4253	1494.2649	1505.6669	1525.5602	2961.1821	3002.6981	3045.4226	3048.0394	3055.1781	3100.81	3135.707	3171.1637	3181.7801	3813.4892
OCC12C3CC1OCC23	OC[C@@]12[C@H]3C[C@@H]1OC[C@@H]23	
InChI=1S/C7H10O2/c8-3-7-4-1-6(7)9-2-5(4)7/h4-6,8H,1-3H2	InChI=1S/C7H10O2/c8-3-7-4-1-6(7)9-2-5(4)7/h4-6,8H,1-3H2/t4-,5+,6-,7-/m0/s1
