20
gdb 19550	3.81744	1.70709	1.57477	0.4773	78.47	-0.2334	0.091	0.3244	934.3559	0.17846	-311.826482	-311.81913	-311.818186	-311.85804	29.033	
C	-0.3004855825	 1.5144583408	 0.0214807793	-0.372503
C	 0.087443624	 0.0293439244	 0.0526140093	-0.334408
C	 0.7789981892	-0.4336204469	-1.1892202714	 0.392383
C	 0.2940332147	-0.729121481	-2.5920872088	-0.11174
C	 1.3544448831	 0.171994519	-3.2176453516	-0.22381
C	 2.1506868018	-0.0286836837	-1.8998151735	-0.109912
C	 2.5304302316	-1.5340315586	-1.9127358215	-0.224822
C	 1.0352886183	-1.8041873035	-1.7723979069	-0.131142
H	 0.5830228101	 2.1497086143	-0.1021162127	 0.11677
H	-0.9804265304	 1.7241904152	-0.8104984062	 0.117779
H	-0.7981866767	 1.8122158744	 0.9496850688	 0.109193
H	 0.7258683675	-0.161813327	 0.9263511138	 0.098059
H	-0.8129852604	-0.5821901894	 0.198821528	 0.099426
H	-0.7266658048	-0.8920997498	-2.9166736446	 0.077214
H	 1.8400657645	-0.1429207115	-4.1495647916	 0.082876
H	 0.993118063	 1.1989604236	-3.3226499663	 0.095373
H	 2.8600089932	 0.7226252323	-1.5566792614	 0.064286
H	 3.0627839128	-1.9111726822	-2.7946686488	 0.083179
H	 3.0719058749	-1.8244594431	-1.0077427973	 0.094308
H	 0.5416972361	-2.7317991973	-1.5083428267	 0.077491
86.2909	138.1716	198.5883	291.8213	355.5912	422.2383	486.7962	596.7484	712.3577	731.9908	773.1932	817.1518	864.3891	895.4973	920.5589	934.4614	966.0489	977.1655	989.2469	1013.1847	1020.2457	1044.1472	1078.3856	1095.7951	1124.6302	1132.5296	1168.6645	1181.6858	1220.7213	1223.8702	1251.5504	1285.6164	1310.2612	1315.892	1355.3099	1407.892	1454.6645	1475.9585	1492.4946	1498.0022	1507.2067	1510.5272	3005.6349	3020.6116	3027.3947	3033.447	3037.4687	3087.4231	3089.8458	3102.1177	3106.1331	3126.6283	3180.2092	3190.6361
CCC12C3CC1CC23	CC[C@@]12[C@H]3C[C@@H]1C[C@@H]23	
InChI=1S/C8H12/c1-2-8-5-3-6(8)7(8)4-5/h5-7H,2-4H2,1H3	InChI=1S/C8H12/c1-2-8-5-3-6(8)7(8)4-5/h5-7H,2-4H2,1H3/t5-,6+,7-,8+
