17
gdb 103118	2.35382	1.20153	1.17268	1.5691	71.11	-0.2406	0.0317	0.2723	1162.1792	0.132401	-458.89911	-458.889272	-458.888328	-458.933763	36.309	
O	-0.0828377445	 1.4732822278	-0.1615202089	-0.42985
C	-0.0042735486	 0.0984656313	 0.215437816	-0.140711
C	-1.3783645376	-0.5159005254	 0.0977158889	 0.352806
O	-2.3486241385	 0.1379924572	 0.8577703895	-0.470207
C	-1.8133817055	-1.108717998	-1.2177126309	 0.017338
O	-0.9034826329	-1.1492187193	-2.2713252243	-0.426625
C	-1.5875768291	-2.0171105986	 0.0016946561	-0.343017
C	-0.4921874443	-2.936485515	-0.0383664722	 0.302978
C	 0.4198135719	-3.715485376	-0.149160412	-0.427702
H	-0.1772973313	 1.4938423306	-1.1208510603	 0.297071
H	 0.7278358117	-0.4494476924	-0.3836503781	 0.114497
H	 0.3164605418	 0.0877860231	 1.2613437236	 0.123082
H	-2.1806173472	 1.0812075722	 0.722097014	 0.290242
H	-2.8509119627	-0.955932823	-1.5083442463	 0.10923
H	-0.5678123181	-2.0513601814	-2.3518773422	 0.296432
H	-2.491058991	-2.3679300254	 0.4914370995	 0.132295
H	 1.228567946	-4.4020285977	-0.1995063423	 0.202141
63.9009	104.0236	111.8387	200.6174	222.6856	276.9762	284.2042	363.4338	390.5068	400.3056	412.5994	505.9924	517.6036	597.5574	621.764	640.6558	661.8413	770.363	835.7346	893.0144	939.008	973.7475	1048.5853	1063.3451	1092.8126	1132.8487	1184.4222	1247.1896	1271.6143	1330.8945	1345.3381	1363.0011	1386.9774	1414.7237	1467.5913	1484.852	2226.8125	3059.4455	3111.2616	3129.1371	3159.5099	3501.4236	3748.5895	3757.3565	3801.352
OCC1(O)C(O)C1C#C	OC[C@@]1(O)[C@@H](O)[C@H]1C#C	
InChI=1S/C6H8O3/c1-2-4-5(8)6(4,9)3-7/h1,4-5,7-9H,3H2	InChI=1S/C6H8O3/c1-2-4-5(8)6(4,9)3-7/h1,4-5,7-9H,3H2/t4-,5+,6+/m1/s1
