14
gdb 29227	3.23045	1.45637	1.00382	6.3151	70.92	-0.205	-0.0328	0.1722	1088.661	0.101016	-470.036584	-470.028126	-470.027182	-470.070162	30.81	
N	 0.0231407091	 1.3256989397	 0.0112334005	-0.559191
C	-0.0106677108	-0.0228374126	 0.0034365057	 0.380745
N	-1.1512194956	-0.6475699615	 0.0016145536	-0.366497
C	-1.1986877128	-2.0137393052	-0.0053379528	 0.417451
N	-2.277911979	-2.6785456693	-0.0076931962	-0.541756
O	 0.0336332663	-2.7343953054	-0.0101159165	-0.236933
C	 1.2020026049	-2.0641682162	-0.0083745573	-0.036513
C	 1.2633241905	-0.7252694423	-0.0017832275	 0.197048
O	 2.3934508183	 0.0484843748	 0.0005619914	-0.454081
H	 0.9000035487	 1.8141230691	 0.0095752035	 0.280115
H	-0.8468486049	 1.8301277237	 0.012570988	 0.274499
H	-2.0725099446	-3.6761352757	-0.0130486713	 0.216488
H	 2.0659325584	-2.7214278241	-0.0127930467	 0.12409
H	 3.1765560414	-0.5121584949	-0.0044414445	 0.304536
56.5719	76.8615	197.4665	223.2189	308.0999	356.6255	364.2927	375.0153	472.9674	542.4817	584.5867	596.4297	722.5048	724.8292	765.1249	787.0947	818.1961	819.7095	869.3003	1003.3154	1157.2238	1177.6875	1205.4576	1292.6355	1320.3844	1373.6363	1518.9559	1602.4098	1639.5517	1736.3723	1752.6185	3182.5976	3512.9681	3622.184	3763.0825	3818.5111
NC1=NC(=N)OC=C1O	NC1=C(COC(=N1)[NH])O	
InChI=1S/C4H5N3O2/c5-3-2(8)1-9-4(6)7-3/h1,8H,(H3,5,6,7)	InChI=1S/C4H6N3O2/c5-3-2(8)1-9-4(6)7-3/h6,8H,1H2,(H2,5,7)
