19
gdb 36354	5.19404	0.83618	0.79844	4.813	81.39	-0.2503	0.0259	0.2762	1453.5589	0.159198	-382.038854	-382.03015	-382.029206	-382.072936	32.219	
N	 0.0547010444	-1.0179153414	-1.0342669024	-0.301143
C	 0.0585728447	-0.0374883792	-0.4239996076	 0.280604
C	 0.0416313282	 1.2146474104	 0.3408293207	-0.291363
N	 1.3383308668	 1.8786168909	 0.2792844445	-0.135371
C	 1.5674125333	 2.7578188272	-0.8752058165	-0.315432
C	 1.3441765602	 3.3194566282	 0.480758499	 0.379925
C	 0.1968172391	 4.2575491167	 0.8964110339	-0.300224
C	 1.2822887723	 5.2243883256	 1.4584633811	-0.215288
C	 2.3333304946	 4.0780804236	 1.3683590465	-0.294491
H	-0.7914846893	 1.8303524676	-0.0377617673	 0.136271
H	-0.1845795548	 0.9767802682	 1.3868549002	 0.155418
H	 2.564542768	 2.7077114519	-1.3037713697	 0.126515
H	 0.7629346633	 2.865689927	-1.6021858983	 0.116264
H	-0.4598702116	 4.639201695	 0.1111678148	 0.108929
H	-0.4222316029	 3.8301262222	 1.6925237493	 0.108341
H	 1.5001750585	 6.0404470611	 0.7660381934	 0.112372
H	 1.0955577972	 5.645115255	 2.4476623532	 0.107278
H	 2.4874096474	 3.5709574911	 2.3252838216	 0.11274
H	 3.3076616807	 4.3179544687	 0.9368515735	 0.108654
51.1656	93.8961	119.96	191.9411	231.0405	352.494	389.1052	411.7799	420.13	492.5867	637.7612	706.4369	784.347	809.2342	884.6714	890.7442	905.7865	930.4568	944.6138	962.8234	1000.3968	1046.5722	1079.7812	1115.0924	1125.8082	1170.4694	1179.0927	1215.2303	1237.3543	1250.5612	1269.2809	1274.3985	1281.0526	1373.6513	1411.0412	1472.1503	1472.7884	1482.0592	1504.5039	1513.3508	2368.2145	2967.8509	3046.0589	3059.0424	3060.5768	3074.9075	3090.3207	3100.9441	3111.2564	3132.7113	3182.3803
N#CCN1CC11CCC1	N#CCN1CC21CCC2	
InChI=1S/C7H10N2/c8-4-5-9-6-7(9)2-1-3-7/h1-3,5-6H2	InChI=1S/C7H10N2/c8-4-5-9-6-7(9)2-1-3-7/h1-3,5-6H2
