20
gdb 52391	6.95237	0.53997	0.52227	3.0301	78.53	-0.2512	0.0187	0.2699	2061.7401	0.170093	-440.253368	-440.243479	-440.242535	-440.290906	33.239	
N	-0.118658773	 1.3051775113	 0.0414758865	-0.436758
C	-0.0677152005	 0.045283177	 0.0927890095	 0.12909
O	-1.1909048075	-0.6821428899	-0.0555722283	-0.181544
C	-1.0362175901	-2.1011829946	-0.0082299495	-0.073382
C	-2.4174827554	-2.7268023848	-0.1381798036	-0.227876
C	-2.3724189193	-4.2484873736	-0.091450511	-0.028769
C	-2.1356546999	-4.9320381247	 1.2777738146	-0.077283
O	-3.3699046873	-5.6670020253	 1.1776824035	-0.268315
C	-3.72309306	-4.9991171918	-0.0502182011	-0.091835
H	 0.8116302818	 1.695690292	 0.1758870472	 0.229256
H	 0.8329231965	-0.564413048	 0.2546562223	 0.082452
H	-0.3831465989	-2.4345819277	-0.8273194834	 0.108134
H	-0.5638244777	-2.3948631152	 0.9400993887	 0.109982
H	-3.0557066403	-2.3445571448	 0.6674861769	 0.119507
H	-2.8652041094	-2.3922485233	-1.0814859544	 0.119176
H	-1.7070148441	-4.6340749225	-0.8700633825	 0.081825
H	-1.2667118724	-5.5964023659	 1.3552711152	 0.103012
H	-2.1349679264	-4.246007661	 2.1372352705	 0.097323
H	-4.6023629831	-4.3517234689	 0.0720386741	 0.101566
H	-3.9147465131	-5.7081896782	-0.864013715	 0.104439
29.6898	48.1266	67.3809	94.743	118.8328	141.2158	242.6964	300.4245	397.6966	461.7678	629.8526	757.0264	800.661	823.0321	880.0035	894.7937	960.5909	982.2367	1001.4737	1031.7132	1045.73	1047.3104	1110.6663	1122.9051	1142.6352	1156.5463	1166.3077	1190.7213	1243.2894	1265.0994	1293.9171	1310.5467	1314.4068	1324.36	1370.3426	1402.5704	1414.335	1436.5846	1490.4981	1512.0315	1518.388	1536.9869	1750.7686	2988.6323	2992.6467	3006.6812	3016.7623	3030.3077	3035.2184	3042.4304	3050.9027	3065.0566	3084.2953	3518.4372
N=COCCC1COC1	[NH][CH]OCCC1COC1	
InChI=1S/C6H11NO2/c7-5-8-2-1-6-3-9-4-6/h5-7H,1-4H2	InChI=1S/C6H11NO2/c7-5-8-2-1-6-3-9-4-6/h5-7H,1-4H2
