21
gdb 38837	2.53341	1.90697	1.62937	1.2347	79.09	-0.2421	0.072	0.314	952.5997	0.187519	-387.096307	-387.089528	-387.088584	-387.127049	29.19	
C	 0.057665352	 1.5573008552	-0.2270315351	-0.300021
C	 1.3263620059	 0.7659044001	-0.0484058725	-0.003256
C	 2.150384142	 0.7984901136	 1.2339447326	-0.239021
C	 1.4149429742	 0.1648316872	 2.4373769767	 0.094765
C	 0.2662785312	 1.0298303459	 3.0252915368	-0.238113
C	-1.0023756887	 0.4229662031	 2.3716516924	-0.224447
C	-0.4068004013	-0.5571187305	 1.3398924146	 0.073499
O	 0.7700867238	-1.0342734446	 2.0074729701	-0.25635
C	-0.0165356027	 0.062662442	-0.0070509938	-0.042175
H	-0.2625692651	 2.2238798877	 0.5658910868	 0.110678
H	-0.1686617814	 1.9288180764	-1.2210750356	 0.106656
H	 1.9158196158	 0.6209772216	-0.9483235447	 0.082559
H	 3.059216162	 0.2110473668	 1.0640592273	 0.103063
H	 2.4755222552	 1.816643711	 1.482359719	 0.093453
H	 2.1452742786	-0.1168483426	 3.2000347929	 0.07426
H	 0.2322177292	 0.933396943	 4.1128730444	 0.103605
H	 0.3977304448	 2.0910577774	 2.7988731466	 0.100699
H	-1.5795304252	-0.1400688141	 3.1090547182	 0.102686
H	-1.6663001155	 1.1652667017	 1.9251092655	 0.102772
H	-1.0466127776	-1.4260101997	 1.1728670676	 0.072966
H	-0.2840540371	-0.5361205313	-0.87147951	 0.081724
156.0291	257.0808	291.7256	366.7441	448.8795	452.6846	509.4292	631.3351	713.215	738.0318	787.8307	808.4287	819.1164	843.7266	876.2243	883.5523	922.4949	942.291	983.895	998.4564	1011.7358	1039.8753	1054.9321	1067.8415	1082.5422	1117.3915	1134.6331	1142.5424	1179.3208	1217.8603	1241.0719	1249.7988	1266.9977	1297.5065	1310.5796	1321.1326	1354.5452	1365.6166	1378.3601	1391.6292	1415.7689	1481.3374	1488.5204	1496.0017	1512.5974	3024.6113	3059.4403	3065.5551	3070.626	3076.8324	3089.5326	3102.8134	3123.2899	3132.0941	3144.7828	3157.3702	3213.2687
C1C2CC3CCC(O3)C12	C1[C@H]2C[C@H]3CC[C@H](O3)[C@@H]12	
InChI=1S/C8H12O/c1-2-8-7-4-5(7)3-6(1)9-8/h5-8H,1-4H2	InChI=1S/C8H12O/c1-2-8-7-4-5(7)3-6(1)9-8/h5-8H,1-4H2/t5-,6-,7+,8+/m1/s1
