23
gdb 62999	2.29265	1.70475	1.4668	0.3115	87.4	-0.2404	0.083	0.3235	1070.5775	0.206923	-351.141789	-351.133457	-351.132512	-351.173749	34.941	
C	 0.014900744	 1.5618444414	 0.0117409431	-0.408985
C	 0.0123281104	 0.0252514509	 0.0020069985	 0.266573
C	-1.4411900619	-0.4874332857	 0.0007082973	-0.426836
C	 0.7245880227	-0.5757444377	-1.2299743105	-0.043327
C	 2.1847721242	-0.3181155142	-1.5075401816	-0.32586
C	 1.7713839866	-1.5685939603	-0.7699185453	-0.039063
C	 1.7734288551	-1.5781958492	 0.7489770991	-0.039062
C	 2.1888067496	-0.3371373772	 1.5012486311	-0.325859
C	 0.7278818202	-0.5912780164	 1.2243764594	-0.043329
H	 1.0320755612	 1.9631591263	 0.0129748987	 0.108038
H	-0.499181727	 1.9596656887	-0.8702006754	 0.107364
H	-0.4969041626	 1.9484360098	 0.8999778784	 0.107364
H	-1.9835741379	-0.1292629937	-0.8810707296	 0.107492
H	-1.4697020314	-1.5819982959	-0.0061964069	 0.114963
H	-1.9811990201	-0.1404908344	 0.8884147563	 0.107491
H	 0.0947606759	-0.7882212818	-2.0887475221	 0.073848
H	 2.5080844527	-0.4377692682	-2.5366996156	 0.105098
H	 2.712376446	 0.4691337589	-0.9834122373	 0.109086
H	 1.9025846159	-2.5228565913	-1.267433741	 0.078487
H	 1.9059768442	-2.5386665208	 1.234034008	 0.078487
H	 2.5148846885	-0.4698090763	 2.527936913	 0.105098
H	 2.7150008278	 0.4567083922	 0.985722682	 0.109086
H	 0.1003467558	-0.8146069349	 2.0820734405	 0.073847
150.4731	194.1877	229.1332	279.7074	323.2654	324.0068	361.9138	364.8094	493.3244	511.3406	574.7594	668.3972	690.7407	785.7884	790.0484	811.5242	829.2597	919.7869	932.644	945.0108	958.5791	968.9472	991.726	1019.4762	1037.4097	1045.8764	1055.1291	1073.6728	1090.1135	1093.421	1108.1584	1113.459	1195.368	1200.2032	1219.7185	1232.392	1250.9925	1309.8392	1357.894	1377.0192	1386.0155	1395.5306	1422.6002	1477.0386	1484.1054	1487.2362	1501.8484	1506.7505	1511.8725	3023.5487	3028.8228	3089.2763	3094.7838	3099.3982	3104.3165	3132.9039	3137.722	3143.1633	3146.5789	3162.0148	3176.0518	3214.7904	3222.6095
CC1(C)C2CC2C2CC12	CC1(C)[C@H]2C[C@H]2[C@H]2C[C@@H]12	
InChI=1S/C9H14/c1-9(2)7-3-5(7)6-4-8(6)9/h5-8H,3-4H2,1-2H3	InChI=1S/C9H14/c1-9(2)7-3-5(7)6-4-8(6)9/h5-8H,3-4H2,1-2H3/t5-,6+,7-,8+
