17
gdb 50363	3.18109	1.25679	1.24818	3.8012	68.44	-0.243	-0.0348	0.2082	1076.1313	0.135407	-458.952608	-458.944716	-458.943771	-458.986174	28.863	
O	-0.4521620507	 0.3230382125	 0.1897385852	-0.227789
C	 0.5020685164	 0.7441561528	-0.4048335449	 0.147432
C	 1.3550966102	 1.9201355805	 0.0883348001	 0.110092
O	 2.6894568052	 1.4962681652	 0.2730464493	-0.268602
C	 3.5057601344	 2.0339914916	-0.756125865	 0.091049
C	 3.6682068926	 1.1720194789	-2.0403976797	-0.253337
C	 2.7490197558	 2.1655225424	-2.8163289511	-0.253226
C	 2.593884074	 3.0201326293	-1.5262882667	 0.090892
O	 1.337270341	 2.9578589513	-0.8689761057	-0.268554
H	 0.8428200371	 0.3061675714	-1.370214187	 0.077588
H	 0.9435869293	 2.2818895711	 1.0387148278	 0.11064
H	 4.4248252261	 2.4075742124	-0.3001331937	 0.094096
H	 4.6945207247	 1.1204708475	-2.4101358034	 0.111935
H	 3.2885785932	 0.1545665226	-1.9287482236	 0.115879
H	 3.2403530266	 2.6912216789	-3.637843908	 0.11192
H	 1.8036661263	 1.7590925611	-3.1809239455	 0.115887
H	 2.8880911477	 4.0691809006	-1.5975747481	 0.094098
57.7927	71.4397	98.4754	294.8953	334.1406	375.5517	409.5666	437.4869	646.899	729.6438	744.442	770.731	855.1282	900.0441	907.2633	949.8758	955.2226	1008.5595	1019.645	1044.0476	1080.3967	1119.846	1125.0195	1169.7453	1200.8009	1224.1029	1250.2225	1273.473	1288.9055	1326.557	1328.554	1351.183	1360.9754	1417.18	1468.0382	1485.3829	1845.176	2881.4232	3045.1883	3071.2217	3075.1807	3084.2111	3096.0025	3120.5462	3136.5581
O=CC1OC2CCC2O1	O=C[C@H]1O[C@H]2CC[C@H]2O1	
InChI=1S/C6H8O3/c7-3-6-8-4-1-2-5(4)9-6/h3-6H,1-2H2	InChI=1S/C6H8O3/c7-3-6-8-4-1-2-5(4)9-6/h3-6H,1-2H2/t4-,5+,6-
