23
gdb 85669	2.40877	1.23381	1.06858	0.826	92.05	-0.2506	0.0505	0.3011	1292.1511	0.203011	-351.127688	-351.117356	-351.116412	-351.162109	39.844	
C	-1.235304784	 0.8781683201	-0.1099837165	-0.420653
C	-0.0627182122	-0.0901720308	-0.1515719086	 0.016644
C	 1.242616797	 0.3329579041	-0.870998296	-0.260149
C	 2.0510765878	-0.4514371409	 0.2063812094	-0.203961
C	 3.3132642302	 0.080838606	 0.6736403469	 0.323842
C	 4.3547081269	 0.5368584918	 1.0686459282	-0.461489
C	 0.7759498783	-0.398898875	 1.1420402046	 0.304687
C	 0.8282913799	 0.7643547782	 2.1332981744	-0.438519
C	 0.4426717095	-1.7023931781	 1.860240723	-0.456052
H	-0.9399473813	 1.8580989001	 0.2776290206	 0.116113
H	-1.6440904857	 1.0309897406	-1.1151672717	 0.114619
H	-2.0478582427	 0.4992254034	 0.5201201937	 0.114098
H	-0.4041778383	-1.0462309494	-0.5675051781	 0.067101
H	 1.3802599857	 0.0273811844	-1.9105517529	 0.100631
H	 1.4234650505	 1.4085170885	-0.7954428012	 0.108817
H	 2.194827511	-1.4850677265	-0.1286553758	 0.095218
H	 5.2770063326	 0.9357412497	 1.4113619059	 0.190016
H	 1.0858178372	 1.7123427343	 1.6524104041	 0.11792
H	-0.1379027298	 0.8906327906	 2.6333825492	 0.109152
H	 1.5851802321	 0.5760602679	 2.9009480923	 0.122436
H	 1.1867690772	-1.9299318112	 2.6323292452	 0.119071
H	-0.5352237694	-1.6407785918	 2.3524313404	 0.11279
H	 0.4126895371	-2.5465145259	 1.1628190829	 0.107667
75.8205	132.789	178.7966	199.6808	224.675	249.541	261.7262	279.4781	340.2962	344.8441	387.3322	464.9861	508.5967	548.0795	581.4808	614.7624	624.7724	708.7196	763.4475	874.1344	907.8676	931.0031	954.3663	967.7028	1003.1838	1023.9272	1051.0886	1094.8485	1134.6857	1167.1792	1187.4261	1189.1149	1249.3309	1254.3253	1265.5768	1313.8064	1341.4485	1386.5361	1401.1048	1409.7387	1421.7217	1480.539	1484.705	1492.1701	1494.4636	1496.6396	1504.5716	1507.6226	2227.3148	3018.1302	3022.4827	3027.4287	3035.257	3038.098	3062.0996	3084.7426	3088.094	3091.0068	3101.8355	3102.9421	3109.5119	3117.7264	3504.2631
CC1CC(C#C)C1(C)C	C[C@H]1C[C@@H](C#C)C1(C)C	
InChI=1S/C9H14/c1-5-8-6-7(2)9(8,3)4/h1,7-8H,6H2,2-4H3	InChI=1S/C9H14/c1-5-8-6-7(2)9(8,3)4/h1,7-8H,6H2,2-4H3/t7-,8+/m0/s1
