18
gdb 34427	3.09452	1.70581	1.27246	0.9139	82.51	-0.2337	0.037	0.2707	1001.6417	0.14895	-364.722436	-364.715263	-364.714319	-364.753697	29.526	
C	-0.0051595341	-1.1942301758	 0.0348434411	-0.374283
C	-0.0122156957	 0.0092831808	 0.0398508175	 0.112401
C	-0.0183961672	 1.4498857598	 0.0439441902	 0.267753
C	-0.9354753395	 2.1740448105	 1.0329815749	-0.320872
C	-0.5731856176	 3.6298828604	 0.6391234268	-0.182378
N	 0.4270848631	 3.4730764915	-0.4407699634	-0.139335
C	 1.3119322136	 2.2961179701	-0.0509682967	-0.063737
C	 1.4508790823	 1.9529307353	-1.5436082392	-0.245802
C	-0.0273206863	 2.2938831221	-1.2911512877	-0.063737
H	-0.0001727047	-2.2560814619	 0.0320572488	 0.184467
H	-1.9878775804	 1.925751023	 0.8687978973	 0.110153
H	-0.6906073953	 1.9279173236	 2.0701016056	 0.110153
H	-1.4282180974	 4.1963557685	 0.2592685274	 0.108024
H	-0.1298867313	 4.1985245785	 1.4615552888	 0.108023
H	 2.083912292	 2.388513453	 0.7160521617	 0.082778
H	 2.0049254032	 2.6750572594	-2.1432150909	 0.109023
H	 1.6831732558	 0.9178439189	-1.79259456	 0.114592
H	-0.8514581305	 2.3836138024	-2.0021762623	 0.082778
147.551	148.0153	251.7279	359.7005	414.3417	498.3573	502.9611	553.0577	628.7143	635.83	703.2028	723.0102	732.6093	823.4814	855.4598	866.6652	904.2252	922.4863	955.1153	1005.8173	1028.9461	1038.6344	1108.6826	1112.5092	1123.5841	1151.0337	1156.8833	1192.5527	1212.1509	1227.0364	1229.6906	1254.9923	1284.8046	1311.6124	1329.5996	1492.1172	1495.0726	1510.7372	2227.6646	3053.6338	3061.8605	3085.1471	3090.0689	3091.165	3101.7164	3110.7401	3164.465	3501.8549
C#CC12CCN3C1CC23	C#C[C@@]12CCN3[C@@H]1C[C@@H]23	
InChI=1S/C8H9N/c1-2-8-3-4-9-6(8)5-7(8)9/h1,6-7H,3-5H2	InChI=1S/C8H9N/c1-2-8-3-4-9-6(8)5-7(8)9/h1,6-7H,3-5H2/t6-,7+,8-
