17
gdb 69010	2.77011	1.33944	1.13839	2.6589	82.08	-0.2434	-0.0194	0.224	1123.4612	0.133467	-384.658568	-384.649737	-384.648793	-384.691991	33.22	
C	-0.0265418452	 1.5574520195	 0.0541813293	-0.492416
C	 0.0491776382	 0.0608558214	-0.0055704904	 0.156048
C	-0.8364366214	-0.8514354575	 0.8225633348	-0.360101
C	 0.6420020136	-1.0000736867	 1.0144061797	 0.138678
C	 1.1952962499	-1.851671678	-0.1465851014	-0.415868
C	 0.6803752478	-0.7459917147	-1.1023172121	 0.383196
O	 0.9004011809	-0.5040201608	-2.2558109747	-0.317266
C	 1.3185472577	-0.7252841607	 2.2320589424	 0.172475
C	 1.9039942027	-0.4904038321	 3.2574177434	-0.392793
H	 0.883189039	 2.0114321342	-0.3491115036	 0.138547
H	-0.8744487359	 1.9286154453	-0.5311327578	 0.138672
H	-0.1533239691	 1.8980188242	 1.086378993	 0.132336
H	-1.3672306091	-0.3374860064	 1.6173887143	 0.137164
H	-1.3978830741	-1.6584107163	 0.3585579554	 0.123544
H	 2.2864722614	-1.9015672056	-0.1804166386	 0.143123
H	 0.7803605848	-2.8584679642	-0.2480974598	 0.122611
H	 2.4183350386	-0.2877522116	 4.163915286	 0.19205
85.3423	113.1259	138.8492	189.6313	246.5994	302.4242	383.0508	453.9752	502.1422	535.9419	570.1081	583.385	604.2041	649.1851	658.2543	686.6529	763.5036	860.5281	959.879	974.6194	988.265	1033.7489	1077.7921	1095.9096	1109.8521	1152.945	1206.5435	1226.3981	1343.9816	1372.0554	1416.9058	1457.566	1480.6236	1495.4005	1498.4744	1875.3795	2233.0154	3037.3284	3060.255	3102.7026	3112.7586	3115.3896	3121.5341	3206.7708	3502.4441
CC12CC1(CC2=O)C#C	C[C@]12C[C@]1(CC2=O)C#C	
InChI=1S/C8H8O/c1-3-8-4-6(9)7(8,2)5-8/h1H,4-5H2,2H3	InChI=1S/C8H8O/c1-3-8-4-6(9)7(8,2)5-8/h1H,4-5H2,2H3/t7-,8-/m1/s1
