19
gdb 38814	3.09749	1.74232	1.4142	1.3366	78.78	-0.231	0.0247	0.2557	966.5131	0.162073	-385.890116	-385.883258	-385.882314	-385.921527	28.216	
C	 0.1432265954	 1.6261597643	 0.126758182	-0.313749
C	 1.3370249881	 0.7352818119	-0.0718791833	 0.10679
O	 2.0847924181	 0.4216076529	 1.0740564716	-0.277892
C	 1.4488110586	-0.6300256681	 1.813565437	 0.112723
C	 1.3950319735	-0.2709784645	 3.3138303541	-0.274814
C	-0.0485711914	 0.105858032	 3.5424644152	-0.071027
C	-0.814760638	-0.1396459766	 2.4808570872	-0.072673
C	-0.0311257623	-0.6976758773	 1.3159792423	-0.092997
C	-0.0270401013	 0.1201386359	 0.0192888732	-0.083629
H	 0.0241351557	 2.0838442784	 1.1030147606	 0.120891
H	-0.1954378802	 2.2266757444	-0.7113560904	 0.107309
H	 1.9217673365	 0.7677479947	-0.9859096083	 0.091621
H	 1.9958674502	-1.5638933633	 1.633157922	 0.071036
H	 1.6879101973	-1.1227015712	 3.9413760636	 0.10404
H	 2.0966119473	 0.5407669082	 3.5341451051	 0.121448
H	-0.401167665	 0.5119709501	 4.4847135182	 0.092652
H	-1.8829735329	 0.0388082916	 2.4226152914	 0.093385
H	-0.338205639	-1.7253630365	 1.089132943	 0.077767
H	-0.5222808506	-0.2889779569	-0.8530451747	 0.087118
69.6609	178.4845	315.7871	373.8326	424.2201	487.5446	601.9915	670.5607	727.9974	765.1463	783.9423	803.2981	826.6505	843.9565	892.3629	935.3794	957.6668	971.3521	977.2531	1016.1443	1033.1941	1040.5266	1058.1621	1063.4968	1090.9195	1106.453	1132.3619	1148.2743	1196.2945	1208.2806	1244.4418	1278.1802	1302.2679	1318.3883	1324.6682	1366.3264	1380.9086	1390.5375	1469.9814	1471.9879	1683.567	3010.7118	3027.8253	3038.323	3072.4462	3126.7453	3153.1712	3177.8511	3178.7708	3203.9444	3219.6621
C1C2OC3CC=CC3C12	C1[C@H]2O[C@H]3CC=C[C@H]3[C@@H]12	
InChI=1S/C8H10O/c1-2-5-6-4-8(6)9-7(5)3-1/h1-2,5-8H,3-4H2	InChI=1S/C8H10O/c1-2-5-6-4-8(6)9-7(5)3-1/h1-2,5-8H,3-4H2/t5-,6+,7-,8+/m0/s1
