18
gdb 112417	2.04074	1.60814	1.0087	3.9894	69.24	-0.2592	0.0481	0.3072	1187.092	0.147831	-476.243915	-476.23521	-476.234265	-476.27759	32.276	
C	-0.3359801338	 1.5390555227	-0.1784480598	-0.419325
C	-0.0349641518	 0.0605910362	-0.0173721978	 0.088218
O	 1.048930679	-0.3174312916	-0.8903421305	-0.262978
C	 1.7651352581	-1.3173266838	-0.3060249916	 0.484336
N	 2.6859249814	-2.0003310867	-0.8197076647	-0.576006
O	 1.3540947954	-1.506171586	 0.9756014362	-0.251514
C	 0.4728185743	-0.4289529808	 1.3501060026	 0.056279
C	 1.2711714783	 0.5646554482	 2.1934093441	-0.071733
O	 1.8077164486	-0.0703657932	 3.3321528377	-0.420979
H	 0.5344964535	 2.1559711113	 0.0562667159	 0.140017
H	-0.6333227464	 1.7461451942	-1.2094451945	 0.141297
H	-1.1624615415	 1.8299281851	 0.4771876103	 0.132082
H	-0.9142339994	-0.5298914255	-0.3065496639	 0.101887
H	 2.8135239517	-1.7386930015	-1.7943270042	 0.232526
H	-0.3233302172	-0.8638274184	 1.9593831043	 0.10872
H	 2.0571012721	 1.0275950095	 1.5755371113	 0.102989
H	 0.613242304	 1.3622804172	 2.5531204943	 0.115269
H	 2.3130313736	-0.8284883268	 3.0141906702	 0.298914
80.886	117.0195	148.6671	188.9877	235.0981	276.4603	347.3927	440.3287	461.5865	494.5374	526.0021	682.8171	718.8504	727.7887	808.9271	843.1214	899.9006	929.7763	979.7812	1009.6614	1050.2309	1077.6132	1105.263	1109.857	1153.5717	1166.8735	1223.4376	1271.5051	1310.0164	1359.6578	1383.2675	1398.4514	1405.8021	1418.7353	1438.7357	1486.2895	1497.4504	1506.6369	1801.4118	2980.868	3018.0642	3050.8336	3077.7933	3093.4901	3122.8267	3134.8267	3537.7405	3791.2557
CC1OC(=N)OC1CO	C[C@H]1O[C]([NH])O[C@H]1CO	
InChI=1S/C5H9NO3/c1-3-4(2-7)9-5(6)8-3/h3-4,6-7H,2H2,1H3	InChI=1S/C5H9NO3/c1-3-4(2-7)9-5(6)8-3/h3-4,6-7H,2H2,1H3/t3-,4+/m1/s1
