18
gdb 65355	3.23238	0.95735	0.9154	2.1033	79.88	-0.2416	0.0307	0.2723	1350.4694	0.145126	-401.863584	-401.854274	-401.85333	-401.898017	34.306	
C	-0.3467532712	 1.5731620519	 0.2126533303	-0.45429
C	 0.0011535208	 0.1051690944	 0.0380159249	 0.124449
N	 1.3315969107	-0.1777858793	-0.5535502293	-0.370146
C	 1.0856756565	-0.5657712241	 0.8391356817	-0.077141
C	 1.8772956419	 0.1311407497	 1.8967546252	 0.081651
C	 1.6790281052	-0.1789846765	 3.3188362178	-0.181422
O	 2.8081899681	-0.6900262496	 2.6113892649	-0.234612
C	-1.1000438671	-0.7353892204	-0.365813252	 0.277424
C	-2.023297178	-1.4199642353	-0.7215819386	-0.446132
H	 0.5446621918	 2.1562792553	 0.449219771	 0.129793
H	-0.7764224425	 1.9682599079	-0.712404596	 0.133559
H	-1.0816220021	 1.7041074905	 1.0124911931	 0.128155
H	 1.2799705942	-0.9885541146	-1.1648529216	 0.243409
H	 0.9276111795	-1.620414296	 1.054586886	 0.103597
H	 2.2663991331	 1.1102076519	 1.6236025709	 0.108205
H	 1.8962524913	 0.5777877299	 4.0712360727	 0.118167
H	 0.9337960362	-0.9194408776	 3.6077153414	 0.115905
H	-2.8367514985	-2.028836958	-1.0304069424	 0.199426
59.8481	103.9755	130.3147	171.4551	206.2197	260.9516	333.2188	360.2722	417.2221	468.7211	550.1597	577.4827	606.5067	656.0699	692.9797	812.5219	848.6482	857.0698	913.283	953.2494	998.646	1041.4768	1079.669	1094.6695	1101.5664	1123.6491	1155.6706	1170.6784	1230.7661	1279.7239	1289.6748	1322.9911	1363.0005	1414.4381	1473.5795	1484.7835	1499.3297	1530.0307	2231.1714	3048.3138	3081.6572	3114.8327	3128.8851	3137.6526	3143.8042	3168.8972	3501.2022	3512.1285
CC1(NC1C1CO1)C#C	C[C@]1(N[C@H]1[C@H]1CO1)C#C	
InChI=1S/C7H9NO/c1-3-7(2)6(8-7)5-4-9-5/h1,5-6,8H,4H2,2H3	InChI=1S/C7H9NO/c1-3-7(2)6(8-7)5-4-9-5/h1,5-6,8H,4H2,2H3/t5-,6+,7+/m1/s1
