16
gdb 56539	2.82569	1.14597	0.87393	4.3332	66.51	-0.2817	-0.0485	0.2333	1272.323	0.120875	-475.041652	-475.03177	-475.030825	-475.077095	34.577	
C	 0.1049972082	 1.4702307098	-0.0186892404	-0.492718
C	 0.0648680586	-0.0324909071	-0.0139748819	 0.364096
O	 1.0602542342	-0.7247497622	-0.0418792526	-0.309453
C	-1.2973069346	-0.758574041	 0.0057323331	 0.011656
O	-1.1095957836	-2.110650453	-0.2744951097	-0.416005
C	-1.9792367371	-0.6224756225	 1.4064847083	-0.046486
O	-2.3249429615	 0.7061992098	 1.7501860854	-0.406964
C	-3.1599155177	-1.5016902537	 1.4656817188	 0.27586
N	-4.1337984441	-2.1212600083	 1.5121415334	-0.311091
H	 1.1389646277	 1.8151030798	 0.0095192711	 0.150495
H	-0.3826955168	 1.8455365057	-0.9262511544	 0.148954
H	-0.4636006179	 1.8611474538	 0.829600216	 0.175166
H	-1.9650377736	-0.2993188803	-0.7392326278	 0.098226
H	-0.1460679525	-2.2449292448	-0.2361755581	 0.300897
H	-1.2621029481	-0.9604323964	 2.1626100104	 0.153942
H	-3.1224065811	 0.9512235303	 1.2663672884	 0.303426
51.5429	67.6445	126.4407	144.0796	224.5875	245.8377	280.8144	311.1051	338.8463	378.0749	441.1029	521.6002	528.3144	594.6526	611.4023	644.1536	837.9311	892.3561	977.171	1029.0077	1061.769	1086.4314	1141.723	1198.8636	1240.7409	1279.7226	1293.7927	1353.286	1388.5372	1412.0436	1437.3966	1466.8617	1469.8207	1798.1588	2360.1858	2995.5027	3042.8875	3066.6085	3111.9788	3161.473	3640.0794	3803.4482
CC(=O)C(O)C(O)C#N	CC(=O)[C@@H](O)[C@@H](O)C#N	
InChI=1S/C5H7NO3/c1-3(7)5(9)4(8)2-6/h4-5,8-9H,1H3	InChI=1S/C5H7NO3/c1-3(7)5(9)4(8)2-6/h4-5,8-9H,1H3/t4-,5+/m0/s1
