18
gdb 97270	4.26632	0.82089	0.69565	2.0665	83.39	-0.2328	-0.0846	0.1482	1584.1436	0.145769	-435.271405	-435.261304	-435.26036	-435.307705	34.612	
C	-0.04060286	 1.4494785747	 0.1278274958	-0.313978
N	 0.0301908967	 0.0033896356	 0.1656288438	-0.249453
C	-1.0514924582	-0.6373495884	 0.0093698951	 0.121573
N	-1.0946808152	-2.0326552939	 0.0135303051	-0.146674
C	 0.1546291809	-2.7702726588	 0.2012119356	-0.362501
C	-2.324900793	-2.6660722958	-0.1165828295	 0.285622
N	-3.4293646371	-2.024692584	-0.1292302241	-0.49645
C	-2.3222185948	-4.1799221961	-0.2846287689	 0.093532
O	-3.356292899	-4.7939555557	-0.3465364769	-0.236497
H	 0.6086429227	 1.8286421191	-0.6701559072	 0.127585
H	-1.0565182185	 1.8412679261	-0.0349150414	 0.105674
H	 0.3425928348	 1.8606399914	 1.0690629534	 0.128315
H	-2.0360046564	-0.1917574055	-0.1436950719	 0.145442
H	 0.9163206375	-2.0330076972	 0.450458266	 0.179855
H	 0.0718798907	-3.4895655142	 1.02062308	 0.134949
H	 0.4629038879	-3.29322146	-0.7103625888	 0.135016
H	-4.185152266	-2.7012400747	-0.2544103664	 0.244545
H	-1.3488356933	-4.6953019126	-0.3676864697	 0.103444
25.4697	80.4571	127.7991	160.4711	171.0489	195.1141	222.917	293.8637	354.2815	380.4169	408.3085	425.9373	544.3632	565.2624	743.0234	861.5551	874.7722	966.9438	1011.7598	1034.8883	1063.316	1094.7071	1140.1013	1152.4546	1156.1458	1251.5596	1309.9569	1379.8643	1404.5461	1446.2702	1453.9794	1469.9687	1480.3334	1501.4061	1506.9778	1518.4646	1673.9751	1742.3915	1818.2068	2975.223	2981.562	3035.6193	3060.3266	3073.7415	3098.9682	3119.858	3162.1604	3464.6287
CN=CN(C)C(=N)C=O	CN=CN(C)C(=N)C=O	
InChI=1S/C5H9N3O/c1-7-4-8(2)5(6)3-9/h3-4,6H,1-2H3	InChI=1S/C5H9N3O/c1-7-4-8(2)5(6)3-9/h3-4,6H,1-2H3
