19
gdb 84381	2.05829	1.82307	1.19707	2.7707	76.13	-0.2442	0.0039	0.2481	1091.8274	0.158714	-423.012125	-423.003557	-423.002613	-423.04571	33.012	
C	 0.2733087128	 1.6458081382	-0.1257040543	-0.403783
C	 0.0853864401	 0.1309310201	 0.0347120207	-0.113597
C	 0.6371135814	-0.6710100201	-1.1216057951	-0.070722
C	 1.4392242649	-1.6656317249	-0.7438709859	-0.135582
C	 1.6110776077	-1.7321714703	 0.7509670454	 0.015731
O	 2.9712908289	-1.7508894729	 1.173740715	-0.422874
C	 0.7929594261	-0.5166583655	 1.2399722771	 0.368803
C	 1.1706208729	 0.1917536572	 2.4702066402	-0.240021
O	 0.041612609	-0.6858583267	 2.4446823473	-0.278738
H	 1.3344720899	 1.9102117606	-0.1796975007	 0.113267
H	-0.2073204501	 1.996683307	-1.0450331283	 0.116489
H	-0.1748511779	 2.1934356875	 0.7087385388	 0.125103
H	-0.9904047412	-0.067440374	 0.1414074416	 0.103838
H	 0.3710576432	-0.4393990996	-2.1483670758	 0.10045
H	 1.9317135499	-2.3725898394	-1.4020196014	 0.103688
H	 1.1832487089	-2.6454512426	 1.1807397393	 0.109869
H	 3.4167922355	-1.0151083503	 0.7383150265	 0.27429
H	 2.0286462317	-0.1667396237	 3.0351469281	 0.124647
H	 0.9380175063	 1.2490179192	 2.5852201114	 0.109143
29.7418	190.294	221.1709	248.1685	280.8088	317.4991	327.1387	354.6419	469.8762	503.1833	540.5024	590.2253	707.8373	749.0465	801.8849	858.8885	884.3277	930.7615	958.4189	985.3069	1010.4032	1036.0072	1065.466	1093.4709	1124.7946	1138.0885	1147.4712	1166.5958	1211.483	1254.0531	1272.9532	1294.8598	1335.2923	1375.2291	1397.3838	1415.2675	1428.8227	1495.2492	1499.9925	1526.1013	1684.3828	3008.1532	3032.7708	3048.3453	3090.1613	3100.6545	3108.7981	3174.9019	3180.8843	3204.9085	3794.615
CC1C=CC(O)C11CO1	C[C@H]1C=C[C@@H](O)[C@]21CO2	
InChI=1S/C7H10O2/c1-5-2-3-6(8)7(5)4-9-7/h2-3,5-6,8H,4H2,1H3	InChI=1S/C7H10O2/c1-5-2-3-6(8)7(5)4-9-7/h2-3,5-6,8H,4H2,1H3/t5-,6+,7+/m0/s1
