18
gdb 48773	2.85983	1.50517	1.26103	2.5076	76.48	-0.2429	-0.0143	0.2286	1041.1295	0.149353	-401.93301	-401.925692	-401.924748	-401.964693	29.257	
O	-0.1415054737	 0.0002478056	 0.0832970181	-0.279781
C	-0.0023606562	 1.1875271361	-0.0993591613	 0.075263
C	 1.2817197074	 1.9030218979	-0.0606371786	 0.27981
C	 1.3028076671	 3.3796610484	 0.3242491551	-0.329424
C	 1.5840213505	 3.016382791	-1.0913184523	-0.091556
C	 3.0231270485	 2.8203028749	-1.582948041	-0.235242
C	 3.6033873206	 1.6598382371	-0.777972199	-0.027513
N	 3.6828987041	 1.9043696863	 0.6771976197	-0.347647
C	 2.5578945449	 1.1176801911	 0.1284074154	-0.1364
H	-0.8784252351	 1.8409636926	-0.3229807478	 0.063214
H	 0.3433341852	 3.840846365	 0.5371031525	 0.114802
H	 2.1216795285	 3.6724056745	 0.9694045519	 0.154929
H	 0.8300933534	 3.2681464805	-1.8303564005	 0.09704
H	 3.0095389796	 2.5507167076	-2.6441975037	 0.109361
H	 3.6231869026	 3.7306653899	-1.4815514363	 0.118237
H	 4.354891309	 1.0252836144	-1.2373654242	 0.091939
H	 4.3655287696	 1.274124281	 1.0907677088	 0.234286
H	 2.4618570442	 0.0654448761	 0.3657863531	 0.108681
104.9428	193.1993	241.3504	275.9787	349.8363	416.1768	457.2993	555.0795	639.9107	686.4244	736.8309	794.6894	817.8728	851.387	868.7076	893.262	924.1359	955.7879	971.4185	1027.714	1048.286	1064.8335	1087.9001	1093.8787	1107.7035	1142.1516	1169.9934	1211.2832	1246.5568	1268.0669	1271.9122	1328.2886	1356.9386	1406.0446	1426.7198	1439.4005	1469.6477	1481.5816	1801.7533	2853.497	3046.8991	3087.1422	3132.7338	3157.4733	3160.3484	3199.1267	3234.8922	3501.5354
O=CC12CC1CC1NC21	O=C[C@]12C[C@H]1C[C@H]1N[C@@H]21	
InChI=1S/C7H9NO/c9-3-7-2-4(7)1-5-6(7)8-5/h3-6,8H,1-2H2	InChI=1S/C7H9NO/c9-3-7-2-4(7)1-5-6(7)8-5/h3-6,8H,1-2H2/t4-,5-,6-,7-/m1/s1
