13
gdb 31222	2.2878	1.73635	1.00048	4.8221	66.24	-0.2679	-0.0437	0.2242	1079.5551	0.089993	-452.779058	-452.77121	-452.770265	-452.812471	27.47	
O	 0.3033014071	 1.0484319482	-0.6556820606	-0.394807
C	-0.0986692485	 0.1747187431	 0.3697458147	-0.187317
C	-1.4341589559	-0.4508199155	 0.1063864647	 0.257204
C	-2.1894700021	-0.6566865032	-1.0123890882	 0.089821
N	-3.3671185696	-1.3220216016	-0.6620558727	-0.294388
C	-3.2637301332	-1.4796105811	 0.6102418732	 0.069778
O	-2.1191706423	-0.9791027484	 1.1532624911	-0.169168
C	-1.8626063285	-0.3053075491	-2.3472593196	 0.218031
N	-1.5540383049	-0.0306292624	-3.4288914265	-0.346701
H	 0.4749015962	 0.5462138753	-1.4600254688	 0.307199
H	 0.6430349373	-0.6175060557	 0.56364899	 0.129384
H	-0.1663774651	 0.7698069352	 1.2870931013	 0.150743
H	-3.9576695305	-1.9470764349	 1.2903543914	 0.170221
40.8806	127.2988	172.9883	208.9179	254.9188	351.1986	416.4567	519.0309	553.2225	609.741	644.8037	721.763	742.3131	845.0715	952.4287	988.6513	1081.7998	1108.668	1114.3981	1192.9647	1226.154	1299.5169	1344.9485	1389.2256	1422.6585	1486.358	1568.6775	1623.5237	2351.5872	2973.6603	3071.2149	3286.091	3811.0896
OCC1=C(N=CO1)C#N	OCc1c(nco1)C#N	
InChI=1S/C5H4N2O2/c6-1-4-5(2-8)9-3-7-4/h3,8H,2H2	InChI=1S/C5H4N2O2/c6-1-4-5(2-8)9-3-7-4/h3,8H,2H2
