16
gdb 125401	2.59762	1.57942	0.98952	0.7434	73.46	-0.2423	-0.0304	0.2119	1140.3583	0.125124	-434.078732	-434.070311	-434.069367	-434.111969	31.263	
C	-0.1093078385	 1.5415209174	-0.0362910738	-0.481463
C	-0.0764663813	 0.0489358266	 0.0218272883	 0.046938
C	-0.074329363	-0.8357279713	-1.008510988	 0.008428
O	-0.039984539	-2.1070803864	-0.5649302439	-0.174659
N	-0.0192766256	-2.0880131975	 0.8114257288	-0.221573
C	-0.040711217	-0.8197681391	 1.1614065875	 0.352833
C	-0.0161776768	-0.4643294738	 2.5996092433	 0.268381
N	-0.1211440445	-1.5412815792	 3.4466516932	-0.551899
N	 0.0651227829	 0.775823051	 2.9154753316	-0.534606
H	 0.7702714538	 1.9714844668	 0.448863699	 0.151271
H	-0.148815445	 1.8846335799	-1.0740100725	 0.110501
H	-0.9757294745	 1.9355530661	 0.501002685	 0.14816
H	-0.0943633801	-0.7156376133	-2.0807062645	 0.152054
H	 0.0308777806	-2.4574229959	 3.0530847286	 0.273562
H	 0.1464943063	-1.4123884456	 4.4084843781	 0.248874
H	 0.0750515818	 0.8965722343	 3.9302210893	 0.203197
61.2307	138.2591	198.5711	203.1265	283.6164	307.0421	376.1888	417.2202	466.6879	515.688	609.5981	624.0362	645.3809	693.8224	793.6268	833.7875	865.4196	937.8418	988.9614	1025.288	1071.5646	1093.7775	1133.011	1144.7021	1193.324	1286.5444	1372.832	1425.905	1456.7952	1471.8845	1485.7365	1520.487	1630.2114	1642.1729	1712.4062	3049.5239	3118.5427	3124.4202	3265.7771	3451.3431	3581.3106	3705.5153
CC1=CON=C1C(N)=N	Cc1conc1C(=N)N	
InChI=1S/C5H7N3O/c1-3-2-9-8-4(3)5(6)7/h2H,1H3,(H3,6,7)	InChI=1S/C5H7N3O/c1-3-2-9-8-4(3)5(6)7/h2H,1H3,(H3,6,7)
