19
gdb 100844	2.03109	1.18509	0.7875	3.0189	78.86	-0.2516	-0.0319	0.2197	1423.6621	0.154687	-422.994079	-422.983248	-422.982304	-423.030752	37.87	
C	-0.0021806344	 1.5727011906	 0.0433464286	-0.411684
C	 0.0212123239	 0.039556085	 0.054898273	 0.015034
C	 0.8075682068	-0.4904821776	 1.2564632299	-0.088581
O	 2.1395872604	-0.0119257364	 1.143281464	-0.421669
C	-1.4216715888	-0.5490489162	 0.0436994531	-0.250723
C	-2.1615816714	-0.0780698683	-1.2155274839	 0.164368
O	-3.0974047659	 0.6730602533	-1.212108793	-0.244143
C	-1.4484232347	-2.0087054288	 0.0440755181	 0.290092
C	-1.4990801776	-3.2084344074	-0.0242985934	-0.43248
H	 1.0188970329	 1.9542401756	 0.0955360631	 0.141698
H	-0.4768577089	 1.9700143268	-0.858048524	 0.125519
H	-0.5562714297	 1.9599223643	 0.9065789646	 0.118204
H	 0.5367798968	-0.3198421063	-0.8453886369	 0.097219
H	 0.3331799492	-0.1360315262	 2.1873813901	 0.085621
H	 0.7783356685	-1.5882838858	 1.263054717	 0.105195
H	 2.6421865836	-0.3408627316	 1.8938087	 0.289924
H	-1.9792952876	-0.1576173568	 0.9031858793	 0.121168
H	-1.7455742358	-0.5000065374	-2.1572900318	 0.091935
H	-1.5418360674	-4.269189687	-0.0593960777	 0.203303
45.2248	66.8563	100.2491	132.5488	180.4195	213.4381	229.5406	234.4186	289.6079	335.1627	393.8607	426.6388	471.0383	508.377	591.4524	637.826	649.7912	847.3404	914.8572	934.0574	950.2808	1010.0369	1052.59	1080.7249	1109.7313	1129.8563	1166.8371	1211.6031	1261.6394	1276.0508	1293.6302	1344.3454	1367.4928	1408.2213	1416.7073	1459.0592	1489.4255	1505.926	1522.6505	1839.1508	2228.2027	2888.3719	2959.4267	3022.285	3033.1848	3037.7882	3047.123	3105.4018	3140.4818	3501.7372	3836.8612
CC(CO)C(C=O)C#C	C[C@@H](CO)[C@@H](C=O)C#C	
InChI=1S/C7H10O2/c1-3-7(5-9)6(2)4-8/h1,5-8H,4H2,2H3	InChI=1S/C7H10O2/c1-3-7(5-9)6(2)4-8/h1,5-8H,4H2,2H3/t6-,7+/m0/s1
