13
gdb 132037	2.33048	1.87915	1.04031	6.1857	64.44	-0.2181	-0.016	0.2021	1026.8535	0.089752	-497.898779	-497.891383	-497.890439	-497.930525	28.187	
O	-0.1027953412	 1.355880052	 0.0107414648	-0.414969
C	 0.0108266249	 0.0131306703	 0.0031170885	 0.380502
C	 1.1881395889	-0.666432654	-0.0069104046	-0.016941
F	 2.3099567683	 0.078401862	-0.0092568045	-0.09016
C	 1.2780213074	-2.1188061977	-0.0148932098	 0.297671
O	 2.3380601423	-2.7335572693	-0.0241642196	-0.400178
C	-0.0497409638	-2.7479287064	-0.0109920118	-0.25348
C	-1.1953198338	-2.0310268987	-0.000938526	 0.01874
N	-1.1765193824	-0.6580027395	 0.0061481785	-0.384
H	 0.7933317561	 1.7185645629	 0.0076913105	 0.322222
H	-0.084467235	-3.8299208068	-0.0165149397	 0.121603
H	-2.1812911937	-2.47789268	 0.0021125086	 0.140513
H	-2.025672238	-0.1164920448	 0.013703935	 0.278477
129.1587	206.9643	273.937	289.729	323.3421	407.5563	452.1618	491.5801	519.4063	533.4013	576.0916	636.9555	698.2389	722.472	826.6313	855.94	942.8293	1062.1414	1069.9434	1179.2905	1236.5986	1259.4015	1341.4288	1382.4736	1439.8865	1576.2121	1636.3148	1714.2962	1732.9292	3210.0769	3227.4508	3656.3781	3785.3803
OC1=C(F)C(=O)C=CN1	Oc1c(F)c(=O)cc[nH]1	
InChI=1S/C5H4FNO2/c6-4-3(8)1-2-7-5(4)9/h1-2H,(H2,7,8,9)	InChI=1S/C5H4FNO2/c6-4-3(8)1-2-7-5(4)9/h1-2H,(H2,7,8,9)
