20
gdb 91266	2.75052	1.42169	1.23333	3.8206	78.24	-0.2372	0.0382	0.2755	1102.9687	0.173182	-403.193912	-403.185829	-403.184885	-403.226858	31.68	
C	 0.5920423602	 1.5342833353	-0.1517519645	-0.412654
C	 0.084291867	 0.1070608736	 0.0200499887	 0.023977
C	 0.6695891478	-0.9471781989	-0.9714497176	-0.245837
C	 1.3752611811	-1.6703726484	 0.2087536979	-0.000599
N	 2.7645363363	-1.3348325178	 0.4127201464	-0.295731
C	 3.0476719003	-0.4839131002	 1.4512316014	 0.396818
O	 4.1497861845	-0.0870742483	 1.7586944713	-0.377759
C	 1.7152887268	-0.1523105015	 2.1388077278	-0.354371
C	 0.6372098981	-0.7383229816	 1.2267872864	-0.029472
H	 1.6856137115	 1.5843003331	-0.1671607943	 0.130742
H	 0.2326933389	 1.9485277424	-1.1001792852	 0.116613
H	 0.2361043906	 2.190334656	 0.649995941	 0.11769
H	-1.0094299922	 0.1205516756	 0.0136478702	 0.074052
H	-0.0914738097	-1.5641318013	-1.4561685626	 0.100421
H	 1.3426400065	-0.5550513023	-1.7389525501	 0.099099
H	 1.2039533681	-2.7494758491	 0.2807091285	 0.076397
H	 3.5132817784	-1.6838862744	-0.1651819602	 0.247238
H	 1.7183257749	-0.6167271918	 3.1304882109	 0.126213
H	 1.6423988314	 0.9264692931	 2.2934447226	 0.131063
H	-0.1615333304	-1.2322604935	 1.7807297014	 0.0761
61.6744	89.8751	238.9852	260.509	334.2938	376.3204	438.3889	474.5914	497.9393	599.3961	627.1184	652.9185	754.1529	770.5745	841.3733	854.1252	895.8096	903.291	954.9993	987.6801	1007.2361	1053.5934	1096.957	1104.8661	1137.8904	1146.3028	1189.3436	1218.7065	1244.0069	1259.4581	1271.759	1291.4947	1300.7592	1338.4542	1362.2871	1381.1294	1412.3828	1428.7635	1466.54	1477.2952	1497.0618	1502.3674	1826.4779	3028.542	3039.564	3050.6808	3058.0207	3058.7328	3092.9278	3099.4336	3102.6831	3111.5653	3112.7507	3633.9585
CC1CC2NC(=O)CC12	C[C@H]1C[C@H]2NC(=O)C[C@@H]12	
InChI=1S/C7H11NO/c1-4-2-6-5(4)3-7(9)8-6/h4-6H,2-3H2,1H3,(H,8,9)	InChI=1S/C7H11NO/c1-4-2-6-5(4)3-7(9)8-6/h4-6H,2-3H2,1H3,(H,8,9)/t4-,5-,6+/m0/s1
