20
gdb 111526	3.34065	1.19781	1.09047	1.7131	79.82	-0.2325	0.08	0.3125	1207.6802	0.170148	-403.076501	-403.068006	-403.067062	-403.109875	32.626	
C	-0.2993922382	 1.4132194622	 0.1673168908	-0.373965
C	 0.2496846938	 0.0323574882	-0.18089925	-0.125836
N	 0.7739050224	-0.6143842035	 1.0232711392	-0.077856
C	-0.0506991127	-1.3512249139	 1.9511375069	-0.043204
C	-1.173667162	-2.159291453	 1.2631032016	-0.357375
C	-0.0709588565	-2.8566392335	 0.4430899605	 0.445732
C	-0.0171212134	-4.2415762397	-0.0200478004	-0.265779
O	-0.1244226598	-3.149798561	-0.945380669	-0.272661
C	 1.0168597939	-2.0380806827	 1.1157772449	-0.153492
H	 0.4683365803	 2.0232215036	 0.6517934952	 0.12503
H	-0.6404365752	 1.9307407925	-0.7344049303	 0.1134
H	-1.1497681905	 1.3359547218	 0.8533765914	 0.115421
H	-0.517695374	-0.5597304018	-0.6973703713	 0.110442
H	 1.0910162581	 0.1242424141	-0.8765488413	 0.108092
H	-0.0200644517	-1.0909164501	 3.0028551407	 0.098303
H	-1.6829220507	-2.8446131063	 1.9450829105	 0.112853
H	-1.9206038819	-1.5896741057	 0.7041647782	 0.115298
H	 0.933861715	-4.773748814	-0.0370853145	 0.116315
H	-0.9005203639	-4.8737296611	 0.0635428775	 0.115156
H	 2.0100252568	-2.3859813758	 1.3804169697	 0.094128
62.4457	96.4121	198.2398	234.9284	255.7764	305.6457	375.735	404.4799	475.7306	555.2381	641.4943	709.5515	801.0164	818.3868	847.6842	869.6039	885.6696	895.4173	940.2752	983.5232	992.7281	1022.7715	1056.8408	1076.8088	1118.1449	1120.0629	1136.4737	1166.5091	1177.8708	1182.7344	1224.2615	1252.384	1275.0341	1306.2895	1361.6716	1389.9491	1411.7181	1434.6174	1475.8613	1489.4769	1498.4247	1516.7654	1535.5168	3019.4309	3037.4343	3063.2762	3064.1208	3075.9984	3106.1809	3114.6337	3118.8869	3161.1537	3164.0499	3181.1233
CCN1C2CC3(CO3)C12	CCN1[C@H]2C[C@]3(CO3)[C@@H]12	
InChI=1S/C7H11NO/c1-2-8-5-3-7(4-9-7)6(5)8/h5-6H,2-4H2,1H3	InChI=1S/C7H11NO/c1-2-8-5-3-7(4-9-7)6(5)8/h5-6H,2-4H2,1H3/t5-,6-,7-,8?/m0/s1
