16
gdb 76967	2.23012	1.55126	1.35861	2.6341	65.79	-0.2462	-0.0503	0.1959	1016.989	0.123453	-475.046883	-475.038259	-475.037315	-475.080496	31.859	
N	 0.2811398254	 0.6478996565	-1.0584031441	-0.521067
C	 0.0469089933	 0.0771534133	 0.1544468838	 0.397755
O	 0.7413898801	 0.2471140005	 1.1351142234	-0.371865
C	-1.2424003141	-0.7282556462	 0.2304544699	-0.178842
C	-1.8118391033	-1.5356965046	-0.8806751502	 0.088395
O	-1.2001267031	-1.6100595411	-2.1248244526	-0.425765
C	-1.1977605354	-2.2689219816	 0.3308716031	-0.179142
C	 0.0731223994	-2.9788824621	 0.1196346864	 0.164092
O	 0.8486399067	-2.7352704617	-0.7895299728	-0.303743
H	 1.1624075537	 1.1221540031	-1.1799792481	 0.261629
H	-0.2003804261	 0.2942443549	-1.8723632519	 0.272471
H	-1.9452973127	-0.2852244449	 0.9295600278	 0.134474
H	-2.8926514661	-1.5891577281	-0.9706699343	 0.125717
H	-0.308276326	-1.9864009942	-1.9842678986	 0.313665
H	-1.8645818684	-2.7203257589	 1.056680305	 0.110732
H	 0.2950933864	-3.7976912947	 0.8311991132	 0.111494
55.7647	111.629	160.6418	201.1412	259.2484	302.8368	381.342	444.105	460.7499	498.8688	594.4784	640.7621	686.6009	750.4254	754.6122	785.1895	813.8422	850.8019	947.5564	1008.2797	1051.0264	1059.6727	1108.6418	1123.8382	1143.3593	1224.5029	1315.7249	1348.2541	1375.7246	1399.7869	1427.8502	1483.338	1627.5015	1757.1228	1805.7407	2946.6443	3155.6655	3162.7082	3179.905	3528.2373	3558.5586	3696.9883
NC(=O)C1C(O)C1C=O	NC(=O)[C@H]1[C@@H](O)[C@H]1C=O	
InChI=1S/C5H7NO3/c6-5(9)3-2(1-7)4(3)8/h1-4,8H,(H2,6,9)	InChI=1S/C5H7NO3/c6-5(9)3-2(1-7)4(3)8/h1-4,8H,(H2,6,9)/t2-,3+,4-/m0/s1
