14
gdb 132790	2.32906	1.76076	1.00368	0.9765	68.85	-0.2095	0.0066	0.2161	1058.6752	0.100938	-486.00107	-485.993702	-485.992758	-486.03265	28.95	
N	-0.0164111803	 1.4211820542	 0.1557301971	-0.600901
C	 0.0018510331	 0.035718257	 0.0544900197	 0.049395
C	-1.1719097949	-0.7225543349	 0.0348156289	 0.251081
F	-2.3334158146	-0.0420498653	 0.0442452115	-0.094233
C	-1.1760198503	-2.1054562482	-0.0028242504	-0.243115
C	 0.0397586869	-2.7864372353	-0.0247444066	-0.118982
C	 1.2367523858	-2.0726682118	-0.0163313912	-0.243114
C	 1.1954886243	-0.6903820976	 0.0215559712	 0.251079
F	 2.3381080589	 0.0214322408	 0.0181004272	-0.094233
H	 0.8175850598	 1.8692617539	-0.1939077059	 0.258093
H	-0.8661395378	 1.8463792035	-0.1844765895	 0.258093
H	-2.1258364604	-2.6261893959	-0.0153803305	 0.110285
H	 0.0543202888	-3.8691489468	-0.051909314	 0.106268
H	 2.2001680607	-2.5674016336	-0.0395993076	 0.110284
157.9387	261.0245	277.477	299.544	319.483	332.602	485.7526	504.2103	548.594	573.5473	576.7499	619.4873	705.5889	714.1423	772.1523	849.5998	883.0987	920.3623	967.0097	1079.7278	1151.2194	1207.758	1268.6936	1269.6464	1326.8469	1372.8661	1515.2992	1542.2327	1623.9825	1639.1399	1672.2111	3195.8832	3207.747	3216.8552	3570.4837	3677.5668
NC1=C(F)C=CC=C1F	Nc1c(F)cccc1F	
InChI=1S/C6H5F2N/c7-4-2-1-3-5(8)6(4)9/h1-3H,9H2	InChI=1S/C6H5F2N/c7-4-2-1-3-5(8)6(4)9/h1-3H,9H2
