15
gdb 9598	4.9042	1.23891	1.16913	1.103	64.35	-0.2607	-0.0459	0.2148	1021.2334	0.116157	-399.803939	-399.795627	-399.794682	-399.836958	28.924	
C	 0.2659969809	 1.345506536	 0.1892208286	-0.471908
C	-0.0045321599	-0.136726446	 0.0778170761	 0.177118
C	 0.683482073	-0.9611214677	-0.9977410098	-0.270371
N	 1.0323693201	-1.1277077307	 0.3823013943	-0.094849
C	 2.2850717027	-0.8459560617	 0.9138292468	 0.142747
O	 3.3295760649	-1.0910621566	 0.366043574	-0.277039
C	-1.3758658266	-0.5974132614	 0.4796273095	 0.138897
O	-2.2850775489	 0.147822971	 0.7361175992	-0.246883
H	 1.2736889766	 1.589429187	-0.1567113694	 0.134626
H	-0.4588744141	 1.8978743874	-0.4137312856	 0.15178
H	 0.1548029767	 1.6860993665	 1.2225216171	 0.143575
H	 0.1604526291	-1.7911488684	-1.4658355137	 0.136665
H	 1.38959306	-0.4345522187	-1.6347737904	 0.149832
H	 2.2119086565	-0.4342343208	 1.9371905304	 0.096523
H	-1.4811742012	-1.7038904259	 0.519351223	 0.089286
82.2016	98.2685	175.7517	215.436	235.9137	245.7628	346.9713	378.648	424.1493	504.5236	655.8164	749.2007	854.1064	900.8507	946.9083	1003.42	1023.0938	1037.8079	1103.5772	1127.4318	1128.5731	1194.7497	1313.6596	1383.8002	1409.6919	1414.6825	1433.1317	1477.4539	1497.0732	1505.8037	1803.8908	1831.1942	2900.1658	2969.744	3050.9309	3108.5539	3121.8777	3132.7382	3199.4269
CC1(CN1C=O)C=O	C[C@]1(CN1C=O)C=O	
InChI=1S/C5H7NO2/c1-5(3-7)2-6(5)4-8/h3-4H,2H2,1H3	InChI=1S/C5H7NO2/c1-5(3-7)2-6(5)4-8/h3-4H,2H2,1H3/t5-,6?/m0/s1
