17
gdb 75267	2.33331	1.62092	1.37745	3.1917	78.01	-0.2376	-0.0054	0.2321	1026.7977	0.136662	-380.869743	-380.861763	-380.860819	-380.902256	30.102	
C	 0.030362639	 1.484805054	 0.057283393	-0.503781
C	-0.0168563783	-0.0068927198	-0.0204505054	 0.33787
C	-0.0856666645	-0.7930046521	-1.0979932105	-0.177056
C	-0.1159956183	-2.2522867589	-0.714149642	-0.219572
N	-0.0379189139	-2.2792706515	 0.7697026322	-0.115443
C	 1.2283997235	-1.7772141091	 1.350108949	-0.168685
C	 2.4083628733	-1.5892249135	 0.5468114194	 0.309233
N	 3.3743673885	-1.4829640523	-0.0811896264	-0.34818
C	 0.0316107281	-0.8743882184	 1.1976186378	-0.136376
H	 0.9731950355	 1.8279748529	 0.5001691911	 0.142547
H	-0.0651132214	 1.9378222204	-0.9321622111	 0.134259
H	-0.7766524478	 1.8736724322	 0.6904212629	 0.130502
H	-0.0885167777	-0.4536465487	-2.1270747253	 0.107922
H	-1.048999228	-2.7460067691	-1.0127608946	 0.124834
H	 0.707973963	-2.8285307233	-1.1516647931	 0.139365
H	 1.4382517394	-2.2019486291	 2.3284777036	 0.137578
H	-0.5066962203	-0.5883322038	 2.0987632993	 0.104983
98.2511	137.8433	168.26	233.4321	277.0235	325.2184	383.668	488.8612	583.2315	615.0224	649.6982	732.2398	750.72	811.8952	834.6539	898.1098	944.2669	959.3302	1021.5761	1024.4904	1042.9208	1068.9869	1076.4224	1117.3517	1194.7491	1211.5199	1258.3176	1281.8655	1336.8706	1363.8507	1370.1324	1417.6094	1478.8701	1488.3644	1490.5031	1713.0466	2347.8915	3024.5064	3026.7552	3061.7625	3072.92	3122.6454	3131.5053	3143.9428	3206.3992
CC1=CCN2C(C#N)C12	CC1=CCN2[C@@H](C#N)[C@@H]12	
InChI=1S/C7H8N2/c1-5-2-3-9-6(4-8)7(5)9/h2,6-7H,3H2,1H3	InChI=1S/C7H8N2/c1-5-2-3-9-6(4-8)7(5)9/h2,6-7H,3H2,1H3/t6-,7+,9?/m0/s1
