16
gdb 37652	3.30866	2.39338	2.12871	0.9679	68.04	-0.2296	0.0569	0.2866	728.8225	0.12842	-400.661291	-400.65632	-400.655376	-400.690316	22.537	
O	-0.0744459569	 1.445438949	 0.0728448506	-0.303936
C	 1.3863186801	 1.4872379898	-0.0080201159	 0.070251
C	 2.0099260896	 1.3230012511	 1.3620622135	-0.072997
C	 1.3039752426	 0.2571493973	 2.1956825463	-0.092984
C	 2.6219632273	-0.0444161365	 1.5116081837	-0.044983
N	 1.9397933499	-0.878903225	 0.4784031719	-0.150461
C	 0.6152529443	-0.681656739	 1.2006274333	-0.041379
C	-0.013262844	 0.0214733641	-0.0558064208	 0.103156
C	 1.430222778	 0.0368835014	-0.5954535519	-0.080862
H	 1.7306335444	 2.3441032036	-0.5895765613	 0.080001
H	 2.4351562954	 2.1641416929	 1.8951951819	 0.095231
H	 1.0683780508	 0.399791748	 3.2420480553	 0.095805
H	 3.6111727139	-0.2676180521	 1.8907313658	 0.097234
H	 0.14386935	-1.5792939068	 1.6042425791	 0.077955
H	-0.8966206659	-0.4148517911	-0.5220613719	 0.084648
H	 1.7607516306	-0.1374508665	-1.6183711696	 0.08332
373.7756	452.5246	609.4633	674.5818	703.1441	720.1134	734.7317	778.2857	804.9653	840.8652	843.7697	871.743	892.9344	943.3931	958.7664	973.3481	985.3011	993.3463	999.8412	1039.7144	1047.229	1062.1114	1074.6923	1097.3769	1155.3512	1182.9304	1197.5187	1225.9008	1243.0566	1267.5832	1277.4983	1288.3863	1322.3595	1339.9776	1379.7605	3091.5023	3096.926	3112.6015	3126.1549	3187.5622	3192.8781	3205.6882
O1C2C3C4C3N3C4C1C23	O1[C@H]2[C@H]3[C@@H]4[C@H]3N3[C@@H]4[C@@H]1[C@@H]23	
InChI=1S/C7H7NO/c9-6-2-1-3(2)8-4(1)7(9)5(6)8/h1-7H	InChI=1S/C7H7NO/c9-6-2-1-3(2)8-4(1)7(9)5(6)8/h1-7H/t1-,2+,3-,4+,5-,6+,7-/m1/s1
