18
gdb 106341	4.95743	0.92008	0.89203	5.5136	78.65	-0.2813	0.0263	0.3076	1315.9452	0.148132	-401.911787	-401.903368	-401.902424	-401.945007	31.716	
O	-0.1141017101	 1.4017335498	 0.0127062831	-0.420305
C	-0.0466441288	-0.0159804788	 0.0047894352	-0.218963
C	-1.4537697741	-0.535670241	 0.0116143958	 0.339328
C	-2.5574471056	-0.2673901815	-1.0578981706	-0.278979
C	-3.2212394302	-1.1799329125	 0.0204438128	 0.215405
C	-1.9083773153	-2.0263154901	 0.0088047918	-0.305608
C	-2.5436060517	-0.2757796968	 1.097260598	-0.278888
C	-4.5735165494	-1.6784763519	 0.0271031487	 0.157316
N	-5.6589062494	-2.0780174857	 0.033271651	-0.352963
H	 0.7831755008	 1.7476908559	 0.0081826506	 0.293328
H	 0.4778698157	-0.3920869366	-0.8888932933	 0.092938
H	 0.489906906	-0.4014632872	 0.8872615932	 0.09293
H	-2.9358510121	 0.7536240811	-1.1258688486	 0.119219
H	-2.4104668044	-0.7180813454	-2.0424164323	 0.10477
H	-1.7167221527	-2.6017716551	-0.9000869084	 0.108218
H	-1.70510034	-2.6086761656	 0.9107522702	 0.108235
H	-2.384017835	-0.734114436	 2.0762713798	 0.104785
H	-2.9209712637	 0.7446777374	 1.1780223931	 0.119234
81.8882	112.1827	150.8269	210.2403	247.7627	321.8572	403.2899	512.8344	516.369	544.6746	568.4256	574.0264	663.2106	787.2508	828.558	929.9374	962.9046	964.4285	997.3294	1036.3749	1070.3016	1075.9192	1111.1606	1129.8719	1130.8866	1147.9891	1166.364	1170.051	1172.8083	1255.1352	1271.9311	1274.7488	1350.6324	1470.5042	1498.0301	1498.9734	1513.2113	1559.2729	2350.384	2961.788	2990.2642	3057.8778	3064.5562	3070.4349	3128.6596	3140.4642	3143.5287	3832.2723
OCC12CC(C1)(C2)C#N	OC[C@@]12C[C@@](C1)(C2)C#N	
InChI=1S/C7H9NO/c8-4-6-1-7(2-6,3-6)5-9/h9H,1-3,5H2	InChI=1S/C7H9NO/c8-4-6-1-7(2-6,3-6)5-9/h9H,1-3,5H2/t6-,7+
