21
gdb 111757	2.39548	1.2263	0.95905	1.179	78.6	-0.2326	0.0675	0.3001	1323.3115	0.181399	-424.179223	-424.169654	-424.16871	-424.214117	35.298	
C	 0.2035009718	 1.2830315724	-0.268270964	-0.370125
C	 0.1814192274	-0.1710416857	 0.216414058	-0.214618
C	-1.2191005438	-0.7396947262	 0.3165615998	-0.075261
C	-2.0853827814	-1.1376187288	-0.8761262219	-0.196691
C	-1.2456984104	-1.8807728751	-1.9064585027	-0.099616
O	-0.7162702172	-2.7787341661	-0.8908556003	-0.322112
C	-1.5719316535	-2.1814264098	 0.0956501226	 0.400688
C	-2.2159151386	-3.1324713798	 1.0688427943	-0.181432
O	-2.9583332925	-2.4725947375	 2.0782130465	-0.406513
H	 1.2270783342	 1.6662738745	-0.3265558701	 0.111521
H	-0.2473536602	 1.3736442669	-1.2621454685	 0.117566
H	-0.3591341037	 1.936388479	 0.4078363053	 0.112099
H	 0.7799483023	-0.8027218957	-0.4474364003	 0.11636
H	 0.6604378688	-0.2363967694	 1.2021429792	 0.091148
H	-1.8430003234	-0.2871159975	 1.0862299155	 0.086867
H	-3.0865497095	-0.7573461638	-1.0285000988	 0.101004
H	-1.8436232691	-2.4406753672	-2.634123551	 0.110913
H	-0.452996756	-1.3318911404	-2.4281014124	 0.104856
H	-2.9218582625	-3.7843605911	 0.5436420457	 0.121297
H	-1.429469038	-3.7815968355	 1.4869176923	 0.104329
H	-2.3318222647	-2.0178558135	 2.6500289706	 0.287719
62.0329	68.2673	148.9338	177.7731	209.642	248.182	274.2436	318.8389	330.3498	430.2258	526.2345	572.3332	681.5477	732.5286	790.5027	814.5835	878.9618	922.4366	962.5771	984.5596	991.1932	1004.7964	1028.0666	1059.6704	1086.611	1107.6199	1114.0019	1151.2523	1154.3209	1178.273	1218.4883	1251.7691	1288.835	1321.904	1333.6164	1363.391	1384.2606	1410.1611	1413.7413	1478.2441	1489.6334	1497.7118	1502.6058	1509.401	1522.0339	2978.5805	3023.1932	3025.9805	3030.637	3070.919	3072.0838	3075.3564	3100.3194	3103.543	3126.0558	3201.2991	3820.5071
CCC1C2COC12CO	CC[C@H]1[C@H]2CO[C@@]12CO	
InChI=1S/C7H12O2/c1-2-5-6-3-9-7(5,6)4-8/h5-6,8H,2-4H2,1H3	InChI=1S/C7H12O2/c1-2-5-6-3-9-7(5,6)4-8/h5-6,8H,2-4H2,1H3/t5-,6+,7-/m0/s1
