21
gdb 73681	2.12262	1.93921	1.47082	1.4012	76.68	-0.2436	0.0765	0.3201	1021.0541	0.184349	-424.253575	-424.245447	-424.244502	-424.286398	31.856	
C	-0.0753620551	 1.6246202754	-0.0261473301	-0.449288
C	-0.0264549566	 0.1046025236	 0.0558210932	 0.388271
C	-1.4021928368	-0.5854590569	 0.0404991828	-0.231488
C	-1.1593919519	-1.9536743134	 0.6984790477	-0.227729
C	-0.1689984021	-1.6277687895	 1.834951629	-0.235829
C	 0.7127554376	-0.4714781856	 1.3069937259	 0.051613
O	 1.9841485892	-0.8768037643	 0.8105031336	-0.255345
C	 1.8018619237	-1.1991230745	-0.5444372563	 0.013737
O	 0.7754595345	-0.3735505511	-1.0422573632	-0.306124
H	 0.9352319192	 2.0395880868	 0.027414706	 0.125074
H	-0.5232246865	 1.9406297829	-0.9731736961	 0.124081
H	-0.6705573054	 2.043963452	 0.7913842763	 0.110144
H	-2.1081513713	 0.0000689289	 0.642729564	 0.093427
H	-1.7998514798	-0.6445779373	-0.975595053	 0.107527
H	-2.0789886128	-2.4228550784	 1.0585534277	 0.095276
H	-0.7082522835	-2.6423254032	-0.0238379454	 0.111001
H	-0.719620273	-1.2805499934	 2.7170264488	 0.099869
H	 0.4466721989	-2.474828808	 2.1477301233	 0.109119
H	 0.9092201159	 0.2788803322	 2.0760767018	 0.084186
H	 2.734288134	-0.9954538165	-1.0837141053	 0.111968
H	 1.533717892	-2.2641358599	-0.6664813006	 0.08051
49.4846	182.2341	219.1463	233.0681	262.6321	339.3858	396.3167	423.6118	568.8501	576.5466	637.4307	736.6549	792.0083	827.5782	854.8826	908.7555	910.8323	928.1797	963.1854	995.9384	1018.5242	1042.6683	1051.2361	1105.984	1119.6225	1152.0407	1180.2573	1206.1396	1210.3484	1219.4318	1237.6658	1269.3287	1290.0026	1332.66	1339.8194	1361.972	1373.4339	1408.1489	1435.3694	1472.272	1481.7205	1485.8932	1495.1867	1506.4388	1556.8813	2934.5815	3031.7738	3038.4037	3039.0231	3050.5902	3052.3216	3084.8927	3092.801	3102.0576	3106.7373	3111.185	3115.7826
CC12CCCC1OCO2	C[C@]12CCC[C@H]1OCO2	
InChI=1S/C7H12O2/c1-7-4-2-3-6(7)8-5-9-7/h6H,2-5H2,1H3	InChI=1S/C7H12O2/c1-7-4-2-3-6(7)8-5-9-7/h6H,2-5H2,1H3/t6-,7+/m1/s1
