23
gdb 116314	2.90846	1.21474	0.95107	1.678	85.07	-0.256	0.084	0.34	1328.8006	0.207538	-388.300458	-388.291642	-388.290698	-388.333977	34.323	
C	-0.1388919354	 1.5423026912	 0.0777998075	-0.393496
C	-0.0210366278	 0.0179862362	-0.015400287	-0.179757
C	 0.7646963504	-0.4921292292	-1.238467625	 0.009547
C	 2.2331005232	-0.028150407	-1.2590483029	-0.207802
C	 3.0111789076	-0.6779838163	-2.4095582469	-0.212274
C	 3.0997676343	-2.2059344859	-2.2626916035	-0.222065
C	 1.7940349348	-2.8304272126	-1.8040699821	 0.038054
O	 1.5040085615	-2.734788345	-0.4005297583	-0.262666
C	 0.6764141617	-2.0053434095	-1.313942471	 0.0532
H	 0.8361755635	 2.0206366485	 0.2104962224	 0.119927
H	-0.5942301653	 1.9613338705	-0.827096401	 0.110771
H	-0.7641708579	 1.8326848609	 0.927775793	 0.112808
H	 0.4521204935	-0.3771974745	 0.8920861923	 0.111048
H	-1.029239435	-0.4159759061	-0.0449507574	 0.089729
H	 0.2719504486	-0.1056082138	-2.1452505802	 0.067451
H	 2.2725769678	 1.0610650878	-1.3559181427	 0.094203
H	 2.7027858818	-0.2833389358	-0.301262867	 0.107843
H	 2.5094643709	-0.4344413193	-3.3557960862	 0.094206
H	 4.0188463084	-0.2539728124	-2.4764655765	 0.093267
H	 3.4002713252	-2.6583231568	-3.214360765	 0.096402
H	 3.8731616768	-2.47431878	-1.5324429998	 0.114439
H	 1.5589277557	-3.8100301617	-2.222183291	 0.085987
H	-0.3366636941	-2.4044989091	-1.4037816417	 0.079178
77.76	109.8634	170.833	222.7186	265.9201	280.4088	356.1691	384.8056	427.5194	467.0798	608.6922	644.4449	756.9018	778.7262	798.3156	862.4351	873.2009	887.4372	927.1086	964.5884	986.7064	1016.8633	1044.224	1065.7965	1076.1617	1090.162	1120.5466	1162.1906	1177.5087	1198.3155	1233.136	1279.7988	1288.7072	1294.8449	1326.148	1346.8027	1361.8068	1372.6967	1382.6977	1391.7354	1404.8783	1414.1943	1463.5394	1480.0411	1488.2644	1489.6325	1497.3624	1502.2439	1508.6026	2977.4032	3016.0566	3017.9196	3029.3929	3030.6776	3036.4772	3055.206	3063.8435	3073.8344	3077.4569	3083.9778	3096.9655	3101.2437	3107.4513
CCC1CCCC2OC12	CC[C@H]1CCC[C@H]2O[C@@H]12	
InChI=1S/C8H14O/c1-2-6-4-3-5-7-8(6)9-7/h6-8H,2-5H2,1H3	InChI=1S/C8H14O/c1-2-6-4-3-5-7-8(6)9-7/h6-8H,2-5H2,1H3/t6-,7+,8-/m0/s1
