21
gdb 73986	2.61868	1.89062	1.34398	0.5831	89.03	-0.2104	0.0056	0.2161	1026.9219	0.184463	-349.902141	-349.894577	-349.893633	-349.933586	31.426	
C	-0.0682138232	 1.316443924	-0.1862871031	-0.470724
C	-0.0420238521	-0.1207154504	 0.2428921918	 0.23746
C	-1.1235698996	-0.9128386066	 0.2606449412	 0.059557
C	-2.183337132	-0.9613650394	-0.8365617466	-0.284402
C	-1.6410431856	-2.3966487552	-1.0967989621	-0.065419
C	-0.1168026019	-2.664701341	-0.9318344793	-0.002877
C	 1.1197511517	-1.7625516827	-1.081860454	-0.230184
C	 1.2728569648	-0.8656693628	 0.1957353495	-0.285268
C	-0.9819931232	-2.4317474389	 0.2671993736	-0.158679
H	 0.4992866836	 1.4660275731	-1.1156106563	 0.119718
H	-1.0880160298	 1.6781525559	-0.3408274996	 0.122791
H	 0.4039345014	 1.9585978987	 0.5685875122	 0.124636
H	-3.2202442157	-1.0410354632	-0.4894629173	 0.102971
H	-2.1251013959	-0.2102611888	-1.6319405841	 0.091145
H	-2.2423511103	-3.1801172889	-1.5491636967	 0.081633
H	 0.0784692466	-3.7119289202	-1.15824076	 0.080132
H	 2.0056866345	-2.3954798364	-1.2134240933	 0.091409
H	 1.0661960079	-1.1173850393	-1.9664473862	 0.101977
H	 2.1329536354	-0.1947730259	 0.1115381024	 0.090588
H	 1.4365235589	-1.510820479	 1.0643431774	 0.111093
H	-1.1324853754	-3.108556063	 1.0991181806	 0.082445
161.0647	192.9361	213.8346	250.0316	366.9961	439.6119	467.3428	489.2931	542.0254	657.332	693.2521	740.8608	760.825	800.0846	860.2788	883.0968	918.5717	939.8528	968.1809	973.2791	986.8735	1017.6441	1049.6706	1057.9103	1062.9242	1071.2215	1103.7668	1120.9448	1166.8064	1194.3028	1203.8632	1226.8773	1252.2019	1272.2243	1303.2069	1317.0048	1352.6172	1395.4235	1407.4041	1471.9453	1485.1726	1491.2567	1493.186	1497.0497	1702.984	3005.966	3023.0731	3026.4553	3048.4942	3052.1152	3062.6875	3071.944	3096.8903	3112.2822	3116.3972	3147.9201	3182.421
CC1=C2CC3C(CC1)C23	C[C]1[C]2C[C@H]3[C@@H](CC1)[C@@H]23	
InChI=1S/C9H12/c1-5-2-3-6-8-4-7(5)9(6)8/h6,8-9H,2-4H2,1H3	InChI=1S/C9H12/c1-5-2-3-6-8-4-7(5)9(6)8/h6,8-9H,2-4H2,1H3/t6-,8+,9+/m1/s1
