17
gdb 28791	3.22992	1.61803	1.10497	4.6663	74.92	-0.1922	0.0406	0.2329	1067.8321	0.138652	-418.043212	-418.035583	-418.034639	-418.075525	28.363	
C	-0.187404771	 1.4720660629	 0.0706401689	-0.492592
C	-0.0664772292	-0.011211424	 0.0030895571	 0.318974
N	-0.1278419168	-0.7503339958	-1.0813491322	-0.308151
C	 0.0266457308	-2.0774942059	-0.6953903767	-0.240614
C	 0.1793874909	-2.1074096454	 0.6579949891	 0.361218
O	 0.4177788109	-2.9866183766	 1.6659775146	-0.27787
C	 0.2093131208	-2.2529242794	 2.8904306767	-0.101582
C	 0.3746325585	-0.7489368394	 2.5318045769	-0.206871
N	 0.1080454439	-0.8163209558	 1.1082237798	-0.090919
H	 0.7170618592	 1.9441227491	 0.4736891963	 0.125541
H	-0.3495972256	 1.84929203	-0.9400083077	 0.156768
H	-1.0296370627	 1.7891975282	 0.6978945586	 0.124857
H	 0.0132234602	-2.8874312452	-1.4045439969	 0.109802
H	-0.8057662997	-2.4520450007	 3.2541349879	 0.125571
H	 0.9326385705	-2.6051048969	 3.6273333312	 0.131813
H	-0.341602501	-0.1208681309	 3.0672777813	 0.133506
H	 1.3872867604	-0.3796577843	 2.7332441449	 0.130548
115.977	139.1749	162.0737	207.5941	248.2363	348.1083	511.2276	611.4194	646.5588	670.0514	673.1258	760.0783	781.2684	798.6278	884.2587	944.3841	990.9844	1021.7961	1060.6518	1068.4092	1135.7567	1143.4493	1200.2001	1215.2919	1249.1401	1288.9933	1324.563	1381.5192	1405.5235	1416.1504	1459.4097	1480.8514	1490.2953	1511.949	1524.7869	1562.1086	1635.4448	3020.11	3030.6643	3036.0692	3065.1134	3095.7883	3124.9273	3144.944	3274.1553
CC1=NC=C2OCCN12	Cc1ncc2OCCn12	
InChI=1S/C6H8N2O/c1-5-7-4-6-8(5)2-3-9-6/h4H,2-3H2,1H3	InChI=1S/C6H8N2O/c1-5-7-4-6-8(5)2-3-9-6/h4H,2-3H2,1H3
