16
gdb 44735	3.10533	1.76179	1.56062	4.7266	69.65	-0.2402	-0.024	0.2162	893.1363	0.127338	-437.898868	-437.892395	-437.891451	-437.929806	26.4	
N	-0.0704119057	 1.2922745032	 0.441391665	-0.546101
C	-0.0075876029	 0.1074420133	 0.0156926888	 0.465548
O	 1.1820284497	-0.5359827819	-0.2033330971	-0.289297
C	 1.1690690533	-1.8128790532	-0.898795347	 0.072215
C	 0.0434730654	-2.6560009536	-0.2954444484	-0.25716
C	-1.1172805711	-1.8428098171	-0.8753881045	 0.079478
O	-1.1663139186	-0.5743066509	-0.1775901496	-0.258808
C	-0.6573704952	-1.6031446175	-2.3069271537	-0.079517
C	 0.6762012702	-1.5872017125	-2.3205326422	-0.08064
H	 0.8707380551	 1.658761862	 0.5673018905	 0.224713
H	 2.1817644485	-2.1994655943	-0.7929490724	 0.092683
H	 0.0530039407	-3.6744768352	-0.6887258607	 0.117612
H	 0.0541066134	-2.6738604526	 0.7962005014	 0.124166
H	-2.1143754116	-2.2637109146	-0.7549670922	 0.095894
H	-1.3284207092	-1.3771387677	-3.1253255915	 0.120596
H	 1.3248036878	-1.3461311775	-3.1527317564	 0.118618
81.8181	259.4357	387.4332	415.6147	451.5016	461.5264	613.6747	624.7272	710.3297	756.5702	802.8571	810.2536	816.6905	873.3549	886.588	920.5022	930.9817	971.8418	994.3873	1011.8766	1030.8964	1057.271	1112.2269	1132.6306	1171.3937	1239.6133	1269.2391	1300.1819	1321.1291	1359.9116	1363.5647	1404.8649	1481.2392	1658.2652	1763.4987	3077.85	3128.5057	3131.9308	3136.0896	3210.381	3234.4701	3527.7966
N=C1OC2CC(O1)C=C2	[NH][C]1O[C@H]2C[C@@H](O1)C=C2	
InChI=1S/C6H7NO2/c7-6-8-4-1-2-5(3-4)9-6/h1-2,4-5,7H,3H2	InChI=1S/C6H7NO2/c7-6-8-4-1-2-5(3-4)9-6/h1-2,4-5,7H,3H2/t4-,5+
