14
gdb 25856	4.26109	1.11158	0.88648	5.4975	68.6	-0.241	-0.0679	0.1731	1230.8788	0.099433	-473.857222	-473.849027	-473.848083	-473.891085	28.952	
C	-0.0099782232	 1.5003381323	 0.063384021	-0.500841
C	-0.0206814431	-0.018395175	 0.0498845609	 0.295343
O	-0.0443861746	-0.6870154823	 1.0588691887	-0.294125
C	-0.0001929238	-0.6528091452	-1.2782280587	 0.230472
C	 0.0246133196	-0.1579292319	-2.5227901241	-0.114634
O	 0.0341611494	-1.1822286572	-3.4239634565	-0.209873
C	 0.0141759483	-2.3626281742	-2.6848862302	 0.504023
N	 0.0146090937	-3.5366320687	-3.1174532632	-0.56607
O	-0.0070256614	-2.0337293006	-1.3660866415	-0.21085
H	 0.888046722	 1.8883718746	-0.4289658866	 0.144631
H	-0.8803115025	 1.9015994946	-0.4666345126	 0.144424
H	-0.029484583	 1.83879647	 1.0993879187	 0.157059
H	 0.0377037942	 0.845377569	-2.9121083687	 0.17655
H	 0.0322703945	-3.5546866354	-4.1331978073	 0.243892
48.0513	95.869	129.488	158.1876	260.0551	339.0896	440.783	534.2526	539.6806	613.3374	650.0272	727.0447	757.2553	778.8131	805.5972	882.371	935.0059	992.1605	1008.8101	1041.5411	1091.1732	1141.2835	1214.6745	1326.5022	1354.795	1387.4132	1469.3875	1475.4367	1677.3711	1785.6643	1825.2157	3041.4016	3105.1671	3159.4923	3297.6923	3556.021
CC(=O)C1=COC(=N)O1	CC(=O)C1=CO[C@H]([NH])O1	
InChI=1S/C5H5NO3/c1-3(7)4-2-8-5(6)9-4/h2,6H,1H3	InChI=1S/C5H6NO3/c1-3(7)4-2-8-5(6)9-4/h2,5-6H,1H3/t5-/m0/s1
