18
gdb 54600	2.66927	1.58268	1.18819	5.0397	71.1	-0.2441	0.0063	0.2505	1061.1327	0.149439	-439.089286	-439.081491	-439.080547	-439.122041	29.847	
O	 0.1267512159	 0.1766959053	-0.6192019107	-0.378501
C	 0.0046949119	 1.3703963872	-0.0192214973	 0.377569
O	 0.927241205	 1.9460642141	 0.4971668489	-0.351314
C	-1.4172589379	 1.8997293354	-0.0219745153	 0.192062
C	-1.6122212419	 3.4375200586	 0.0550745339	-0.280327
C	-2.5230435829	 3.2728886709	 1.3098745802	-0.2259
C	-2.3978903094	 1.7350521537	 1.2047431914	-0.077361
C	-3.3790793434	 1.0680449613	 0.2100299527	-0.171798
N	-2.3446415434	 1.1099533597	-0.865749638	-0.39129
H	-2.6287459313	 1.5538242218	-1.7342383386	 0.227142
H	-0.7726555562	-0.0319542929	-0.9528752408	 0.300452
H	-0.6732634081	 3.9548796754	 0.2544306537	 0.143277
H	-2.0822926263	 3.8741963091	-0.8305905288	 0.095833
H	-2.0652619753	 3.6757477429	 2.2154190473	 0.120438
H	-3.5410708613	 3.6651124499	 1.2345280143	 0.100797
H	-2.1351463621	 1.1710469331	 2.0982370384	 0.093965
H	-3.6873462908	 0.0459995714	 0.4498135505	 0.118235
H	-4.2765114827	 1.663488203	 0.0056294881	 0.106721
70.9443	106.3258	174.8729	251.8904	353.0037	360.5015	447.446	491.9351	634.0868	708.5778	719.9158	752.0543	789.6683	822.4234	858.9192	895.4568	919.5346	955.3916	980.7661	997.8629	1032.0229	1056.6761	1100.2291	1135.7621	1163.28	1186.3623	1195.5235	1236.172	1255.0618	1277.192	1284.682	1316.1424	1333.5787	1365.7596	1428.0471	1466.4602	1486.5595	1514.4906	1858.0183	3029.6111	3058.4842	3064.7719	3078.7264	3111.621	3128.3011	3139.6313	3493.0518	3508.3481
[O-]C(=O)C12CCC1C[NH2+]2	OC(=O)[C@]12CC[C@H]1CN2	
InChI=1S/C6H9NO2/c8-5(9)6-2-1-4(6)3-7-6/h4,7H,1-3H2,(H,8,9)	InChI=1S/C6H9NO2/c8-5(9)6-2-1-4(6)3-7-6/h4,7H,1-3H2,(H,8,9)/t4-,6-/m0/s1
