21
gdb 121647	5.21758	0.70208	0.66406	2.7759	81.73	-0.2413	0.0407	0.282	1775.5859	0.182022	-420.42287	-420.412589	-420.411645	-420.460375	35.918	
C	-0.1116351881	 1.4214739607	-0.1869902093	-0.378244
C	 0.2041547005	-0.0756539569	-0.1510471548	-0.166634
C	 1.1792579847	-0.4907306537	-1.2607878699	-0.142984
N	 1.5061938576	-1.9065382384	-1.2540531006	-0.328705
C	 0.7361270203	-2.8230796014	-1.9078054429	 0.434498
O	-0.2010835361	-2.5420514749	-2.6300168971	-0.386624
N	 1.1476895269	-4.155343902	-1.6188813769	-0.149529
C	 0.8010238436	-5.1756989336	-2.5926759224	-0.207744
C	 2.2176257148	-4.7440047888	-2.437437635	-0.234919
H	 0.7946961622	 2.0244104467	-0.0590089223	 0.111984
H	-0.5660851353	 1.705982458	-1.142243579	 0.122622
H	-0.8094206475	 1.6986630868	 0.6085153759	 0.116619
H	 0.6298984882	-0.3455682367	 0.8242253787	 0.088697
H	-0.7156734291	-0.6594436885	-0.2661968711	 0.121681
H	 0.7411112135	-0.2710840526	-2.2379377525	 0.138551
H	 2.112184669	 0.0797107018	-1.1781641788	 0.098039
H	 2.118850736	-2.2613622084	-0.5372752014	 0.247107
H	 0.4727504384	-6.121290348	-2.1719950577	 0.119969
H	 0.2609541078	-4.8367977688	-3.4713452694	 0.144398
H	 2.6417786897	-4.1264824553	-3.2252805434	 0.130614
H	 2.932808353	-5.361014976	-1.9006907101	 0.120605
26.4844	42.4041	59.3207	86.2926	205.3988	228.3185	239.933	277.5043	327.5184	398.0078	485.7442	557.2795	605.3594	739.1129	782.6	811.0231	836.7786	886.9767	905.917	923.0647	972.2234	1038.4892	1044.9832	1099.3064	1117.9968	1127.0675	1135.2744	1173.9667	1179.5031	1187.735	1231.495	1282.9428	1327.6909	1336.6196	1344.2306	1406.9569	1414.043	1472.061	1490.8335	1493.529	1499.8715	1508.3635	1516.0202	1538.4874	1783.7446	3023.2731	3029.7659	3035.5666	3069.6875	3095.5273	3107.0792	3107.4701	3110.5839	3123.1887	3193.1948	3216.6961	3637.7691
CCCNC(=O)N1CC1	CCCNC(=O)N1CC1	
InChI=1S/C6H12N2O/c1-2-3-7-6(9)8-4-5-8/h2-5H2,1H3,(H,7,9)	InChI=1S/C6H12N2O/c1-2-3-7-6(9)8-4-5-8/h2-5H2,1H3,(H,7,9)
