14
gdb 9000	4.73977	0.90356	0.77851	1.9732	60.45	-0.2584	-0.107	0.1514	1343.942	0.102889	-419.702211	-419.693394	-419.692449	-419.737736	28.542	
O	-0.5689377751	 0.3410959969	-0.0963745297	-0.231676
C	-0.0664714493	 1.4203351296	 0.0734247434	 0.158949
C	 1.3728707736	 1.7658707465	-0.2348864663	-0.277329
C	 1.4796288954	 3.0023851096	-1.1320916353	-0.322402
C	 2.8834743093	 3.5603493972	-1.2032155824	 0.289015
O	 3.8078757791	 3.1970234288	-0.5152385063	-0.26879
C	 3.1332551859	 4.6827322099	-2.2222398657	 0.095407
O	 2.2851316682	 5.1038253398	-2.9627106597	-0.21346
H	-0.6584107142	 2.2692764177	 0.4926904403	 0.072543
H	 1.8826165895	 1.9772496003	 0.714849114	 0.14296
H	 1.8605468939	 0.8976302981	-0.6843089775	 0.136028
H	 1.1323815553	 2.8063392591	-2.1531473233	 0.156844
H	 0.8307897689	 3.8155701306	-0.7728863726	 0.147041
H	 4.1770742794	 5.0594438859	-2.2004751188	 0.114871
40.6856	52.5725	79.4871	130.9089	147.8082	239.3471	321.3796	455.9471	491.6957	517.1026	641.5846	746.7454	809.085	840.3086	968.6306	1022.7256	1082.6975	1097.8044	1155.3313	1185.4995	1268.6058	1300.6737	1363.2757	1382.4174	1429.7631	1438.3314	1464.074	1807.0105	1825.3253	1841.4393	2845.193	2932.918	3015.7892	3033.6051	3071.8278	3115.5401
O=CCCC(=O)C=O	O=CCCC(=O)C=O	
InChI=1S/C5H6O3/c6-3-1-2-5(8)4-7/h3-4H,1-2H2	InChI=1S/C5H6O3/c6-3-1-2-5(8)4-7/h3-4H,1-2H2
