19
gdb 97655	3.45836	0.68803	0.65946	1.3468	83.67	-0.2361	0.0273	0.2634	1783.7337	0.156158	-422.974625	-422.964116	-422.963172	-423.011153	37.39	
C	-0.0827933213	 1.5316223461	 0.3030493575	-0.417224
C	-0.079160448	 0.0254217823	 0.1837999056	-0.0509
C	 1.1127743194	-0.7033276506	-0.3830064246	-0.321475
C	 0.8219702782	-0.8138690968	 1.0946208677	 0.194706
O	 1.7523752486	-0.1376391542	 1.9040663056	-0.448335
C	 0.301806952	-2.0393600562	 1.6382168233	 0.022841
C	-0.1442880075	-3.0552322906	 2.1134008106	 0.069956
C	-0.6978723553	-4.2650024498	 2.7163588356	-0.197559
O	-2.0426865124	-4.1267940989	 3.1580168542	-0.401961
H	 0.8959243638	 1.899129162	 0.6205797599	 0.133093
H	-0.3281692992	 1.9964266453	-0.657859359	 0.12124
H	-0.8257145062	 1.8704054878	 1.0338312271	 0.11453
H	-1.04461772	-0.4258440269	-0.0256640765	 0.098956
H	 0.9574023771	-1.5789976983	-1.0012674842	 0.124465
H	 1.9889705244	-0.1118364228	-0.6268571528	 0.128063
H	 1.3179892341	 0.0658587714	 2.740263716	 0.28382
H	-0.7103970348	-5.0788551543	 1.9825983396	 0.141521
H	-0.0383081267	-4.5913650092	 3.5367287181	 0.119549
H	-2.0834225263	-3.3388412961	 3.7097403163	 0.284714
34.8002	69.5513	97.1178	163.9987	179.1514	234.1615	265.2736	303.7288	307.3061	342.4914	358.7923	449.5898	545.5169	552.7571	573.1719	653.3878	788.2969	851.12	892.2433	937.4541	970.2999	995.8556	1016.3125	1048.3579	1074.6387	1112.4341	1133.1301	1189.0526	1215.5783	1234.9584	1285.592	1351.823	1355.6141	1401.3252	1417.8341	1422.4947	1472.9989	1488.1767	1495.9599	1502.5483	2342.495	2974.6656	3032.7655	3061.0234	3089.8517	3121.1594	3138.4422	3154.4936	3233.4501	3794.4181	3817.6218
CC1CC1(O)C#CCO	C[C@H]1C[C@]1(O)C#CCO	
InChI=1S/C7H10O2/c1-6-5-7(6,9)3-2-4-8/h6,8-9H,4-5H2,1H3	InChI=1S/C7H10O2/c1-6-5-7(6,9)3-2-4-8/h6,8-9H,4-5H2,1H3/t6-,7+/m0/s1
