18
gdb 69786	2.60189	1.87594	1.33696	3.9389	75.21	-0.2468	-0.0107	0.2361	989.8219	0.148476	-401.9413	-401.933634	-401.93269	-401.973121	30.225	
C	 0.0306019997	 1.5557575773	 0.0138628531	-0.483865
C	 0.0658851794	 0.0487432539	 0.0453865723	 0.243346
C	-0.8547089185	-0.741482282	 0.9590547062	-0.33926
C	 0.6349114607	-0.8340375048	 1.1385908985	-0.105073
C	 1.3991056083	-1.9426324327	 0.4368503587	-0.02847
C	 0.7250451418	-2.9894396407	-0.3763154521	-0.264576
N	 1.2739008663	-1.7723011373	-1.0173308294	-0.123091
C	 0.3681146765	-0.6806147557	-1.2547758841	 0.320846
O	-0.0301010406	-0.3704355561	-2.3447749131	-0.320798
H	 1.0103871314	 1.9745096356	-0.2384672821	 0.127602
H	-0.6821100068	 1.894985155	-0.7441468191	 0.145394
H	-0.2754556297	 1.9621742332	 0.982452461	 0.114555
H	-1.3967040041	-0.1510055713	 1.691093845	 0.122854
H	-1.4212719288	-1.5841901621	 0.5801677071	 0.124294
H	 1.0822496934	-0.4128305686	 2.0307815598	 0.097992
H	 2.4061767312	-2.1344556721	 0.7966070083	 0.103333
H	 1.2554821465	-3.9040478931	-0.6265345314	 0.131903
H	-0.3529284968	-3.0995452385	-0.3253259885	 0.133014
127.548	180.221	209.7314	251.2997	275.0149	368.5434	462.2969	489.7306	578.301	642.6684	676.868	774.7489	787.1516	817.5201	848.618	867.0224	916.4882	971.2826	1000.5703	1013.8926	1030.3768	1055.3412	1068.2705	1086.7819	1113.5139	1123.2198	1132.8546	1159.3565	1266.7681	1288.5482	1302.8901	1377.909	1396.981	1414.4336	1484.312	1491.2975	1500.544	1517.9734	1844.6887	3035.5489	3102.5762	3113.1419	3119.6219	3133.2986	3145.493	3185.3143	3206.004	3216.774
CC12CC1C1CN1C2=O	C[C@]12C[C@H]1[C@H]1CN1C2=O	
InChI=1S/C7H9NO/c1-7-2-4(7)5-3-8(5)6(7)9/h4-5H,2-3H2,1H3	InChI=1S/C7H9NO/c1-7-2-4(7)5-3-8(5)6(7)9/h4-5H,2-3H2,1H3/t4-,5+,7-,8?/m0/s1
