17
gdb 106155	2.46878	1.6354	1.26981	0.4362	68.25	-0.2161	0.066	0.2821	1040.6042	0.134201	-458.864136	-458.855927	-458.854983	-458.896879	31.109	
C	 0.1187662705	 1.2581499408	 0.2945388516	-0.254227
O	-0.0058384115	-0.0695518685	-0.2064780748	-0.272346
C	-1.2648703927	-0.5647987366	-0.1343655501	 0.326383
C	-2.2434930734	-0.9116247325	 0.9520772366	-0.093936
O	-3.350120307	-0.2199609474	 0.3839125229	-0.281007
C	-2.6506481349	-0.2790554751	-0.8888146447	-0.018572
C	-2.7009744438	-1.7782807177	-1.2876566655	-0.2979
C	-1.7698960141	-1.9859655951	-0.0934378899	 0.264461
O	-1.0391349517	-3.0947890512	 0.2607393023	-0.455398
H	 1.1732381473	 1.5272191235	 0.2111104256	 0.133429
H	-0.4832008097	 1.9634566374	-0.2929293821	 0.120318
H	-0.1945637077	 1.3133303878	 1.3444328917	 0.122134
H	-2.1672133716	-1.0422710145	 2.0237003287	 0.111297
H	-2.9134693338	 0.5208815253	-1.5769310891	 0.092075
H	-3.6939458577	-2.238668887	-1.2847119032	 0.098026
H	-2.1816384634	-1.9667258865	-2.2306232148	 0.114385
H	-1.6182149646	-3.7066709726	 0.7293988447	 0.290876
95.0989	141.8712	162.8601	239.5488	292.2165	305.6951	375.8147	424.5153	489.081	569.7145	618.8044	656.6272	718.5814	808.9051	884.0958	920.8501	922.4972	959.9461	1003.5315	1034.3625	1041.5708	1051.3491	1111.6177	1128.2424	1166.1635	1178.0105	1206.0972	1229.0405	1234.6023	1275.05	1307.1944	1366.9228	1453.1176	1482.1989	1486.9845	1502.3761	1534.2214	3008.3333	3049.9367	3069.3921	3118.2972	3134.1537	3150.593	3208.4611	3788.6909
COC12C3OC1CC23O	CO[C@@]12[C@H]3O[C@@H]1C[C@@]23O	
InChI=1S/C6H8O3/c1-8-6-3-2-5(6,7)4(6)9-3/h3-4,7H,2H2,1H3	InChI=1S/C6H8O3/c1-8-6-3-2-5(6,7)4(6)9-3/h3-4,7H,2H2,1H3/t3-,4+,5+,6-/m1/s1
