20
gdb 36795	4.75066	0.61089	0.58398	1.0267	82.28	-0.2349	0.0328	0.2676	1921.7183	0.168569	-403.061078	-403.051104	-403.05016	-403.097586	35.359	
C	-0.369265365	-0.7321547563	-0.7001306404	-0.464682
C	-0.3053387332	 0.3409846877	-0.1627789189	 0.311973
C	-0.217847002	 1.6502090418	 0.4922067915	-0.210723
O	 1.1039165011	 2.1003447249	 0.7026709408	-0.234001
C	 1.801085272	 2.4151900725	-0.4904844505	-0.059725
C	 3.1917788757	 2.894845023	-0.0951015555	-0.156417
N	 3.9602531474	 3.2271139	-1.2869622803	-0.065824
C	 3.8905166086	 4.6148203983	-1.7377620376	-0.220225
C	 5.1198128424	 4.0862893423	-1.0856403762	-0.217893
H	-0.4295300852	-1.6817490465	-1.1720067793	 0.202526
H	-0.7909268081	 2.3876404787	-0.0947240416	 0.117031
H	-0.6782380725	 1.596151206	 1.4846350171	 0.138903
H	 1.8796112153	 1.5382293544	-1.146667715	 0.116544
H	 1.2676432125	 3.2032495441	-1.0482866668	 0.085922
H	 3.0979156342	 3.7450129386	 0.6038561649	 0.086659
H	 3.7072609673	 2.0890036349	 0.4387601336	 0.115266
H	 3.8538448231	 4.7635137534	-2.8130288584	 0.117337
H	 3.2826943461	 5.3097076102	-1.1593637414	 0.109542
H	 5.3304672003	 4.4296300692	-0.0737600514	 0.11027
H	 5.9984201599	 3.8409826628	-1.6754455447	 0.117517
36.481	51.9661	93.7889	136.2442	147.8545	222.1951	302.5284	325.5724	343.2507	408.4961	470.0046	606.7885	618.3687	682.8375	774.8744	818.9961	849.3973	896.639	923.8132	980.0434	1015.7482	1032.9233	1046.0876	1100.4977	1116.2974	1118.5941	1142.5341	1143.4851	1177.3687	1199.3358	1249.5116	1288.9005	1303.6579	1326.5866	1351.8759	1391.301	1438.1519	1475.4654	1488.6967	1499.8843	1522.2088	1527.7906	2233.4771	2947.0449	2964.6689	2968.3948	3037.4243	3066.9348	3069.7053	3091.4359	3096.4076	3175.9447	3190.1711	3504.5525
C#CCOCCN1CC1	C#CCOCCN1CC1	
InChI=1S/C7H11NO/c1-2-6-9-7-5-8-3-4-8/h1H,3-7H2	InChI=1S/C7H11NO/c1-2-6-9-7-5-8-3-4-8/h1H,3-7H2
