18
gdb 44445	3.0416	1.75648	1.56983	3.9437	74.16	-0.2272	0.0393	0.2665	911.707	0.152205	-402.000614	-401.99405	-401.993106	-402.031359	27.51	
O	-0.0216015431	-0.0636362578	-0.0407634129	-0.392846
C	-0.0167686608	 1.151013148	 0.0044543393	 0.393525
N	-1.1473215221	 1.9218813141	 0.0664839681	-0.301963
C	-1.056223528	 3.3558701204	 0.1174541224	 0.019902
C	 0.057874691	 4.0291056443	-0.6529877	-0.074122
C	 1.0953233169	 3.0473040328	-1.1734840312	-0.233422
C	 1.2235293101	 2.0401842184	 0.0008338144	-0.157322
C	 1.1671613782	 2.9566724658	 1.2524887147	-0.233425
C	 0.1029066572	 3.9722257068	 0.8688631938	-0.074135
H	-2.0417476574	 1.4579590554	 0.0759771763	 0.248423
H	-2.0214748193	 3.8436618745	 0.1642079925	 0.101725
H	-0.1431445091	 4.9483926038	-1.1904730759	 0.086773
H	 0.7995951429	 2.558812131	-2.1076226708	 0.113363
H	 2.0510636937	 3.5541168702	-1.3463848939	 0.105549
H	 2.1084997366	 1.4076393361	-0.0490013522	 0.092296
H	 0.9261022746	 2.3992363733	 2.1634501342	 0.113357
H	 2.1325595305	 3.4513103794	 1.4058942892	 0.105546
H	-0.0640041121	 4.8484249136	 1.4843341919	 0.086775
107.9399	304.8006	336.59	420.3868	435.9532	490.0578	501.2407	633.6534	674.4895	766.5746	770.8749	791.4123	796.9884	847.023	900.467	915.1085	932.8334	973.9999	1015.2794	1018.8595	1059.1108	1062.4644	1088.8846	1089.0363	1133.0154	1176.0999	1177.3598	1212.2513	1286.8232	1288.0794	1299.0151	1338.6655	1339.9941	1378.6552	1409.9927	1464.0013	1486.8651	1504.7233	1808.8135	3040.3588	3042.6621	3083.6911	3084.9179	3131.2188	3173.8075	3180.1903	3197.2221	3637.9294
O=C1NC2C3CC1CC23	O=C1N[C@@H]2[C@@H]3C[C@H]1C[C@H]23	
InChI=1S/C7H9NO/c9-7-3-1-4-5(2-3)6(4)8-7/h3-6H,1-2H2,(H,8,9)	InChI=1S/C7H9NO/c9-7-3-1-4-5(2-3)6(4)8-7/h3-6H,1-2H2,(H,8,9)/t3-,4+,5-,6+
