19
gdb 35777	3.69737	1.1601	0.98427	1.1175	80.63	-0.2299	0.0509	0.2808	1218.9738	0.160096	-385.841276	-385.833183	-385.832239	-385.873834	32.01	
C	 0.031389766	-1.2176804128	 0.0469184784	-0.445091
C	 0.004295406	-0.0159932653	 0.0128285105	 0.304726
C	-0.0151677921	 1.4397868296	 0.0079083652	-0.18201
C	-0.7598183838	 1.9878753907	 1.2425733455	-0.090625
O	-0.9458316728	 3.387263284	 1.1537627921	-0.251184
C	 0.1990818421	 4.14534912	 0.8841976623	 0.130891
C	 1.4691235435	 4.0228131252	 1.6769598286	-0.328886
C	 1.4150735395	 3.5351641176	 0.2334212208	-0.083925
C	 1.4149445106	 2.035578174	-0.0515734578	-0.232861
H	 0.0489557662	-2.2792165917	 0.0626043562	 0.194464
H	-0.5744434599	 1.7894983709	-0.870170065	 0.112374
H	-1.7617978571	 1.5580988121	 1.3075548414	 0.122391
H	-0.215024129	 1.7080698227	 2.1575534236	 0.10109
H	-0.1091430663	 5.1379745578	 0.5743189	 0.101109
H	 2.0186719399	 4.9296091379	 1.9047007342	 0.111975
H	 1.5276019932	 3.2622023663	 2.4488434587	 0.117162
H	 1.9258759137	 4.1474615925	-0.5025479316	 0.090065
H	 2.0468154973	 1.5017984701	 0.6666162575	 0.114138
H	 1.838819773	 1.8402366282	-1.0402814007	 0.114197
83.807	143.0301	182.1078	279.0692	336.2068	372.8171	439.6838	490.0704	506.7433	521.3329	630.2127	638.7809	666.982	756.011	801.336	839.9932	861.8582	914.9812	963.6858	1007.0778	1017.6383	1034.2895	1048.5543	1077.9591	1127.8279	1128.087	1147.6396	1189.2225	1225.9179	1246.4653	1275.7312	1307.8482	1327.5092	1352.8931	1368.5522	1397.0148	1422.2054	1479.396	1495.0616	1510.7252	2234.6961	2988.2789	3019.7488	3045.6424	3090.6253	3104.0187	3130.9822	3152.4961	3169.306	3216.6494	3505.0929
C#CC1COC2CC2C1	C#C[C@H]1CO[C@H]2C[C@H]2C1	
InChI=1S/C8H10O/c1-2-6-3-7-4-8(7)9-5-6/h1,6-8H,3-5H2	InChI=1S/C8H10O/c1-2-6-3-7-4-8(7)9-5-6/h1,6-8H,3-5H2/t6-,7-,8+/m1/s1
