19
gdb 75549	2.46166	1.6889	1.116	1.3024	78.38	-0.2392	0.0105	0.2497	1110.7851	0.159303	-423.012913	-423.004634	-423.003689	-423.04567	31.797	
C	-0.0381756589	 1.5113300766	 0.0603486505	-0.493042
C	 0.0256757771	 0.0104359291	 0.0011315907	 0.2511
C	-0.0589912359	-0.687033704	-1.1356152357	-0.183235
C	 0.015527349	-2.1870376042	-1.194332335	-0.12738
O	 0.4330666742	-2.7809100909	 0.0210402377	-0.243856
C	-0.2158507664	-2.2158338411	 1.1429294977	-0.175341
C	 0.1468170271	-0.7480487119	 1.2829389568	 0.33746
C	 1.0252869759	-0.3039985241	 2.380376524	-0.232815
O	-0.3896672398	-0.1230056176	 2.4626727589	-0.278795
H	 0.9062620658	 1.9412779762	 0.4165640783	 0.125689
H	-0.2423668929	 1.9314414113	-0.9273365462	 0.120935
H	-0.815778252	 1.8399288177	 0.7563837832	 0.146081
H	-0.1941390696	-0.1758491217	-2.0861990338	 0.090296
H	-0.965473783	-2.5948736313	-1.5037957972	 0.100465
H	 0.7408188301	-2.5055811324	-1.9524242386	 0.11969
H	-1.3114807292	-2.303591402	 1.0542358258	 0.099036
H	 0.1016971611	-2.7864829088	 2.0191070501	 0.112031
H	 1.4444626906	-1.0487625938	 3.0562904104	 0.116842
H	 1.6070152166	 0.6107785429	 2.2824459024	 0.114838
77.2231	160.8776	215.4639	270.9555	274.8554	289.0422	369.9731	392.1573	455.0367	500.4634	599.0339	664.5994	732.4877	816.6472	862.8035	884.3585	916.059	936.1628	991.3527	1029.3463	1045.7697	1066.3908	1075.4485	1131.1078	1149.9607	1158.6737	1177.6352	1239.3618	1266.1541	1301.5223	1359.0442	1371.034	1402.1499	1409.4836	1428.6476	1472.0814	1486.3682	1494.3493	1496.7583	1528.0667	1730.9656	2927.979	2972.4832	3028.69	3050.2879	3082.1779	3088.1451	3097.5092	3125.2387	3153.0047	3170.3647
CC1=CCOCC11CO1	CC1=CCOC[C@]21CO2	
InChI=1S/C7H10O2/c1-6-2-3-8-4-7(6)5-9-7/h2H,3-5H2,1H3	InChI=1S/C7H10O2/c1-6-2-3-8-4-7(6)5-9-7/h2H,3-5H2,1H3/t7-/m1/s1
