19
gdb 58852	2.50146	1.48154	1.06927	2.4139	76.27	-0.2397	-0.0098	0.2299	1157.3348	0.157787	-423.020066	-423.011063	-423.010119	-423.053892	33.956	
C	 0.0089699621	 1.5452128776	 0.1205835034	-0.423394
C	 0.0189031011	 0.0214885428	 0.0013265008	 0.007474
O	 0.7777046489	-0.5998474169	 1.0347150906	-0.427392
C	-1.3910926064	-0.5312666702	-0.0632353288	 0.23893
C	-2.1457094685	-1.053293539	 1.1542535657	-0.328278
C	-1.9419589946	-1.9835373651	 0.0115361303	-0.112936
C	-2.9897610796	-1.6942438988	-1.0744359789	-0.351657
C	-2.3708236061	-0.2755576288	-1.1714924729	 0.349871
O	-2.472756935	 0.6085747426	-1.9784543917	-0.323612
H	 1.0316929208	 1.9326990001	 0.1202685101	 0.120619
H	-0.544806807	 1.9845042015	-0.7135271257	 0.156122
H	-0.4839079703	 1.855873992	 1.0506805932	 0.107506
H	 0.5331276413	-0.2548530548	-0.9277438724	 0.099022
H	 0.608406109	-0.1171920085	 1.8508033177	 0.281936
H	-1.4987424416	-1.2168653877	 2.009550154	 0.120614
H	-3.138376756	-0.6831622808	 1.3971056717	 0.117346
H	-1.3435763247	-2.8811963215	 0.0877455008	 0.115239
H	-2.8354926578	-2.2319850715	-2.014474998	 0.132831
H	-4.0408390758	-1.777630933	-0.7819511999	 0.119757
56.9054	112.8148	177.8103	194.1226	275.5537	286.3006	312.8821	365.8136	404.4187	470.8691	550.6249	567.9558	663.6896	690.4249	810.9007	834.9932	873.036	915.8083	938.0778	982.8698	1001.4201	1015.9205	1048.9955	1063.5293	1089.0481	1092.8935	1137.6809	1154.9882	1210.5873	1256.2697	1263.8078	1305.8551	1349.9419	1378.5834	1401.9806	1416.2086	1455.6405	1485.0321	1492.875	1499.9014	1860.7105	3022.8793	3032.9183	3053.4054	3099.8446	3108.4374	3114.6146	3129.8261	3206.6659	3215.5849	3808.6361
CC(O)C12CC1CC2=O	C[C@@H](O)[C@]12C[C@H]1CC2=O	
InChI=1S/C7H10O2/c1-4(8)7-3-5(7)2-6(7)9/h4-5,8H,2-3H2,1H3	InChI=1S/C7H10O2/c1-4(8)7-3-5(7)2-6(7)9/h4-5,8H,2-3H2,1H3/t4-,5-,7-/m1/s1
