16
gdb 124308	4.73991	0.95569	0.83065	2.7522	70.5	-0.2513	-0.0179	0.2334	1345.5704	0.124753	-434.094495	-434.086018	-434.085073	-434.129145	29.712	
C	 0.0930602985	 1.4528973269	-0.2042353881	-0.475589
C	 0.0138142043	 0.0268418919	 0.3053804584	 0.384012
O	 0.7521729718	-0.3931252047	 1.1641327091	-0.284799
C	-1.0897272226	-0.8332275185	-0.3180271147	-0.440684
C	-0.9021603497	-2.3080303168	-0.1738170141	 0.325514
N	-1.131219619	-3.1302510299	-1.202840358	-0.275134
N	-0.8794895569	-4.3297427953	-0.6964339282	-0.072752
N	-0.5020264683	-4.372365442	 0.573596099	-0.196971
C	-0.5078015926	-3.0883488284	 0.9308760412	-0.111711
H	 0.776930654	 2.0333284555	 0.4157926608	 0.146061
H	 0.4541771337	 1.4516408962	-1.2395897004	 0.148724
H	-0.8972512991	 1.9210139817	-0.2146739213	 0.137909
H	-2.0228467385	-0.5100019829	 0.1697765216	 0.146324
H	-1.2134636746	-0.5825961419	-1.3760617815	 0.137678
H	-0.9644397789	-5.1653185748	-1.2517203974	 0.291724
H	-0.222861332	-2.7781871069	 1.9210713534	 0.139694
42.4949	51.7583	130.3219	138.7414	300.4928	313.5032	340.2448	468.6137	513.9262	571.8579	690.5878	723.5039	769.2443	819.0131	858.3485	889.9853	970.1864	999.4386	1026.9492	1050.8781	1159.689	1168.4389	1204.3536	1212.054	1247.673	1325.3369	1371.5656	1384.8221	1415.2226	1449.0002	1463.3649	1475.7167	1481.26	1567.2918	1819.2368	2998.8305	3035.8541	3086.4283	3096.9909	3154.2297	3299.9969	3672.7529
CC(=O)CC1=NNN=C1	CC(=O)Cc1n[nH]nc1	
InChI=1S/C5H7N3O/c1-4(9)2-5-3-6-8-7-5/h3H,2H2,1H3,(H,6,7,8)	InChI=1S/C5H7N3O/c1-4(9)2-5-3-6-8-7-5/h3H,2H2,1H3,(H,6,7,8)
