21
gdb 113456	3.95769	0.99838	0.95675	1.4738	83.58	-0.2236	0.0807	0.3043	1354.5307	0.18152	-387.032609	-387.023885	-387.022941	-387.066104	33.817	
C	 0.2415805811	 1.4130124315	 0.2601742461	-0.372121
C	-0.2674348834	 0.0647921744	-0.2609916686	-0.195354
C	 0.5537457128	-0.4718365985	-1.4167261319	-0.080299
C	 1.8735693541	-1.1959630143	-1.1452394354	-0.379457
C	 0.6803290527	-1.942317836	-1.6409412578	 0.462815
O	 0.0122928622	-2.9062770479	-0.8000742875	-0.317947
C	-0.0880312302	-3.7972163555	-1.9186825446	 0.102561
C	-0.9241428431	-3.2070186639	-3.0096483757	-0.300798
C	 0.5343766623	-2.8035129579	-2.8703844924	-0.220479
H	 1.2751590302	 1.3333993336	 0.6130528094	 0.116671
H	 0.2190890866	 2.1765177732	-0.5254824765	 0.110744
H	-0.3720241746	 1.7730404481	 1.0920662948	 0.110077
H	-0.2709450795	-0.6749030404	 0.547034398	 0.113744
H	-1.3128553117	 0.1644589155	-0.5804032372	 0.096771
H	 0.5318386614	 0.1400805339	-2.3169850783	 0.082865
H	 2.7106441436	-1.0408957963	-1.818706623	 0.110478
H	 2.1480905433	-1.3553914944	-0.1068364073	 0.121254
H	 0.0807745695	-4.8518922148	-1.7387342915	 0.105779
H	-1.1322744652	-3.8666911944	-3.8467443676	 0.112923
H	-1.7167246842	-2.5076225818	-2.7598794624	 0.117975
H	 1.2733687119	-2.9329605943	-3.6491856407	 0.101797
78.4696	108.0371	151.412	189.4623	248.615	307.0574	371.9151	413.61	480.0525	499.1953	643.4872	753.967	771.0399	796.5475	807.2783	863.7685	903.4633	906.7582	945.8223	962.7173	976.4236	983.8254	1028.9669	1042.0079	1046.0619	1052.0403	1072.6366	1087.7807	1103.4603	1123.5069	1175.1454	1188.6913	1198.4056	1274.3374	1280.7899	1320.607	1346.1603	1371.6172	1410.5438	1429.4586	1470.0624	1486.9246	1498.0522	1502.3969	1508.3408	3025.6838	3030.3422	3066.8949	3098.4212	3103.7523	3117.4709	3120.0441	3121.8196	3186.479	3203.3863	3209.5142	3213.1429
CCC1CC11OC2CC12	CC[C@H]1C[C@]21O[C@H]1C[C@@H]21	
InChI=1S/C8H12O/c1-2-5-4-8(5)6-3-7(6)9-8/h5-7H,2-4H2,1H3	InChI=1S/C8H12O/c1-2-5-4-8(5)6-3-7(6)9-8/h5-7H,2-4H2,1H3/t5-,6+,7-,8+/m0/s1
