21
gdb 115615	2.80647	1.05551	0.9098	2.363	79.24	-0.2554	0.0728	0.3282	1376.177	0.180678	-424.196313	-424.18662	-424.185675	-424.231073	35.753	
C	-0.021208474	 1.5623597442	-0.0987624294	-0.417126
C	-0.0267712726	 0.0620932594	 0.0350631963	-0.023691
O	 1.2396609534	-0.6067438799	-0.1018776764	-0.297504
C	 0.5977125018	-0.6466182525	 1.1606107607	 0.415626
C	 1.1682897097	-0.0786785793	 2.4630325358	-0.322208
C	 0.3659766971	-1.1799101944	 3.2193747177	-0.22824
C	 0.146308428	-1.9299200495	 1.8708867049	-0.041543
C	-1.2221984968	-2.5023974549	 1.5668502183	-0.106633
O	-1.4387051404	-3.5964293973	 2.4468104738	-0.421454
H	 0.802580483	 2.0031585966	 0.4679091654	 0.128638
H	 0.0921845171	 1.8534424992	-1.1483178895	 0.129431
H	-0.9641987686	 1.9845415451	 0.2661627235	 0.1189
H	-0.8398603993	-0.4435256108	-0.4904688632	 0.085173
H	 2.249969423	-0.2305181283	 2.5220264358	 0.115628
H	 0.9472420992	 0.9644236741	 2.7022256577	 0.103023
H	 0.892784748	-1.7257497748	 4.0023955899	 0.1091
H	-0.5744196116	-0.8007119993	 3.6285088585	 0.102823
H	 0.9007889967	-2.712886297	 1.7361683562	 0.092815
H	-1.9886796449	-1.7216746234	 1.7055843888	 0.079183
H	-1.2648133633	-2.8227891822	 0.5128240299	 0.091541
H	-2.3069802056	-3.9656795652	 2.2610443853	 0.286517
78.2117	96.1394	115.3069	180.2809	208.4046	218.3082	263.7229	299.4808	374.3616	444.9701	470.0387	540.8021	550.3067	734.7192	791.3767	794.8185	868.1437	904.7866	934.6649	957.4219	994.0097	1026.6175	1063.8169	1091.798	1105.7788	1126.9352	1137.2383	1157.6792	1189.7929	1215.8611	1228.1416	1244.6644	1264.445	1276.5867	1282.9141	1349.2103	1364.125	1407.8551	1460.4302	1468.2114	1476.6781	1489.6598	1494.4553	1517.1549	1523.9089	2954.44	2983.1319	3034.9304	3052.9825	3058.5216	3068.476	3081.2266	3097.6206	3106.7625	3126.2978	3132.0765	3827.8475
CC1OC11CCC1CO	C[C@H]1O[C@]21CC[C@H]2CO	
InChI=1S/C7H12O2/c1-5-7(9-5)3-2-6(7)4-8/h5-6,8H,2-4H2,1H3	InChI=1S/C7H12O2/c1-5-7(9-5)3-2-6(7)4-8/h5-6,8H,2-4H2,1H3/t5-,6+,7+/m1/s1
