21
gdb 56890	2.96734	1.0095	0.88073	2.6686	82.5	-0.2672	0.0281	0.2953	1405.9715	0.183124	-383.273151	-383.263453	-383.262509	-383.307965	35.877	
C	-0.2178463252	 1.4998349298	-0.0607142522	-0.392486
C	-0.0233056998	-0.0089244159	 0.0532005013	 0.033937
C	 1.1067468421	-0.5836023865	-0.8547565373	-0.270115
C	 2.0500801584	-0.6014017646	 0.3773922205	 0.061058
C	 0.803298295	-0.4593165571	 1.2965187182	-0.263268
C	 3.0057984211	-1.7825299908	 0.5818832577	-0.147806
N	 3.7674054576	-1.6019236251	 1.8211104967	-0.502683
C	 2.2840514509	-3.0759186841	 0.5321514228	 0.257378
N	 1.7356208798	-4.0944820439	 0.5352177323	-0.340068
H	 0.7325594365	 2.036357205	 0.0421947168	 0.113846
H	-0.6464226176	 1.7690318149	-1.0322230581	 0.116251
H	-0.8930636989	 1.8701263185	 0.7183548773	 0.115886
H	-0.9882836526	-0.5116113784	-0.0536492573	 0.075657
H	 0.8737901385	-1.5927234454	-1.2065361209	 0.119577
H	 1.4188111985	 0.0231833899	-1.7092727038	 0.097003
H	 2.6700672423	 0.2974059127	 0.420838068	 0.094085
H	 0.873584512	 0.2465360837	 2.1285812496	 0.098532
H	 0.4649787333	-1.4271356415	 1.6793413043	 0.116321
H	 3.7231545404	-1.7890717318	-0.2488074132	 0.129739
H	 3.1307500121	-1.6076781282	 2.6137059187	 0.243624
H	 4.4042502355	-2.3811192111	 1.9598480785	 0.243533
66.3058	80.1878	143.4655	155.4935	240.3497	247.075	279.7304	324.4614	334.1161	403.2512	436.3696	576.7722	600.3417	698.8988	791.6992	819.9906	832.1827	883.3618	901.1364	934.1661	944.2456	970.9568	1035.1754	1037.14	1085.9605	1135.4667	1142.4163	1156.6816	1197.1382	1239.0106	1245.5452	1274.0828	1281.8807	1292.9816	1322.5267	1363.236	1376.2689	1390.5719	1412.4607	1473.3812	1494.6644	1496.8796	1500.1681	1661.4226	2339.4195	3024.5956	3032.7916	3048.2656	3051.9633	3062.91	3077.6217	3093.1573	3095.1006	3104.6592	3110.6657	3491.1416	3570.0575
CC1CC(C1)C(N)C#N	C[C@H]1C[C@@H](C1)[C@@H](N)C#N	
InChI=1S/C7H12N2/c1-5-2-6(3-5)7(9)4-8/h5-7H,2-3,9H2,1H3	InChI=1S/C7H12N2/c1-5-2-6(3-5)7(9)4-8/h5-7H,2-3,9H2,1H3/t5-,6-,7-/m0/s1
