23
gdb 100645	2.40498	1.07775	0.95382	1.1061	87.67	-0.2617	0.0383	0.3	1405.4477	0.201372	-388.264553	-388.2531	-388.252156	-388.300545	42.662	
C	-0.2110003044	 1.5890506738	-0.0857091583	-0.397314
C	 0.0340066672	 0.0787992668	 0.0088589691	-0.186458
C	 0.8543770089	-0.4894038331	-1.1656477703	 0.030801
C	 2.324937487	-0.0528078512	-1.1136959074	-0.415309
C	 0.6850945382	-2.0422402441	-1.2869082109	 0.147132
C	 1.1832526296	-2.8101432461	-0.0546219478	-0.406507
O	-0.7077307632	-2.3722005503	-1.3916431607	-0.449382
C	 1.3768075625	-2.5221068599	-2.4959673751	 0.317049
C	 1.9017925697	-2.9050416092	-3.5081756131	-0.473787
H	 0.7217924563	 2.1612295349	-0.0623960287	 0.116436
H	-0.7352088956	 1.8473141397	-1.0129545367	 0.11144
H	-0.8277397122	 1.9351851574	 0.7496558991	 0.113084
H	 0.5459991037	-0.1433065744	 0.9537832761	 0.093345
H	-0.9275559483	-0.4417511435	 0.042396884	 0.113129
H	 0.422473378	-0.0887504854	-2.0954831899	 0.063543
H	 2.8973842102	-0.4803615052	-1.9406596627	 0.128385
H	 2.4066896083	 1.0355627199	-1.1798480648	 0.116549
H	 2.7994344242	-0.3598805992	-0.1752633451	 0.115474
H	 0.6205150512	-2.5005833281	 0.8287845261	 0.128053
H	 1.0269966357	-3.8798922134	-0.2068880581	 0.132837
H	 2.2467045397	-2.632827097	 0.1167871213	 0.125315
H	-1.0168691198	-2.0564002335	-2.2480734409	 0.279903
H	 2.3703008532	-3.253822489	-4.3953826552	 0.19628
69.7938	74.6487	138.2183	177.7817	206.0727	228.6054	232.9061	251.5775	287.0581	310.7293	316.8757	360.258	411.9029	449.2449	468.4863	565.3225	601.7504	629.5236	656.8556	718.1091	784.7202	850.5465	910.1209	937.8401	972.516	988.7302	1019.2375	1043.4713	1122.4798	1139.992	1150.0698	1189.4096	1211.0132	1294.7325	1302.4701	1351.1105	1369.4506	1388.8715	1409.8067	1415.5492	1418.8142	1482.0797	1488.0667	1495.4002	1497.5638	1505.4304	1510.0828	1510.8567	2224.9408	2986.3802	3026.8084	3031.9848	3041.444	3061.3995	3080.0304	3098.1543	3104.7152	3109.2846	3122.9959	3139.6172	3143.9366	3498.9753	3805.2182
CCC(C)C(C)(O)C#C	CC[C@@H](C)[C@@](C)(O)C#C	
InChI=1S/C8H14O/c1-5-7(3)8(4,9)6-2/h2,7,9H,5H2,1,3-4H3	InChI=1S/C8H14O/c1-5-7(3)8(4,9)6-2/h2,7,9H,5H2,1,3-4H3/t7-,8+/m1/s1
