12
gdb 21148	5.31939	1.71905	1.32565	0.7728	62.93	-0.264	-0.1198	0.1442	859.8144	0.082193	-410.774989	-410.767817	-410.766873	-410.807161	24.691	
C	-0.0054622965	 1.432263729	-0.0160304027	-0.329874
N	 0.1355684244	-0.011228368	 0.0488688412	-0.278989
C	 0.699595173	-0.6305393787	-0.8897124622	 0.471941
O	 1.2839551413	 0.0211539261	-1.9691826764	-0.275068
N	 1.4687584847	-0.6980027973	-3.2170827819	 0.072085
N	 1.3828236893	-1.9204645287	-3.1908252418	-0.098254
C	 1.1440780489	-2.588154242	-1.9558649432	 0.087518
N	 0.8064446015	-2.0225784566	-0.8696512239	-0.220033
H	 0.8749304608	 1.9108931035	 0.4316186187	 0.140573
H	-0.1126054951	 1.8198423832	-1.035713033	 0.130967
H	-0.8738817497	 1.7244428766	 0.5792870989	 0.134167
H	 1.2558187273	-3.6657246171	-2.0164366936	 0.164966
54.1305	97.572	207.0335	228.5472	340.9092	444.6219	505.3781	560.3345	642.5138	681.8314	761.0073	816.0221	950.866	972.9672	1010.7276	1076.361	1112.4694	1140.273	1197.3464	1401.0126	1437.5438	1483.7543	1498.4224	1600.5334	1695.8112	1760.1884	3016.2486	3073.3538	3111.5191	3199.2877
CN=C1ON=NC=N1	CN=c1onncn1	
InChI=1S/C3H4N4O/c1-4-3-5-2-6-7-8-3/h2H,1H3	InChI=1S/C3H4N4O/c1-4-3-5-2-6-7-8-3/h2H,1H3
