18
gdb 8534	3.98035	1.88584	1.54307	1.2742	72.08	-0.2534	0.0789	0.3323	877.8485	0.15371	-347.732251	-347.72512	-347.724176	-347.763026	28.672	
C	-0.1674120077	 1.5855968297	-0.0167513973	-0.425528
C	-0.0279114359	 0.0711123746	-0.0107619179	 0.003416
C	 1.1990505596	-0.5894483991	-0.6836065863	-0.120249
C	 2.1370284432	-0.3144929903	 0.5407420354	-0.052336
C	 2.5960831458	-1.7850970905	 0.6443994704	-0.330385
C	 1.1046507424	-1.8486969181	 0.2636270504	 0.404836
O	 0.2787318626	-2.9479704475	 0.1232721772	-0.476906
C	 0.72320249	-0.6257201784	 1.15002257	-0.082248
H	 0.7734714696	 2.0833061922	 0.2399861137	 0.111036
H	-0.4766362066	 1.9477580178	-1.0037905315	 0.112543
H	-0.9247849307	 1.9132792208	 0.70432923	 0.113974
H	-0.9790765852	-0.4101983464	-0.2652331337	 0.072659
H	 1.5024436179	-0.5894207374	-1.7333810326	 0.05989
H	 2.7264994084	 0.5828723012	 0.708135181	 0.080271
H	 3.3186398713	-2.1271752855	-0.1051503021	 0.084248
H	 2.8659185728	-2.1492733085	 1.6410218072	 0.094403
H	 0.6013908379	-3.4798339625	-0.6122756771	 0.282799
H	 0.4810589045	-0.664464142	 2.2139258132	 0.067577
183.3936	216.061	240.3995	276.8959	341.2537	352.7194	458.4653	538.823	653.1356	720.1037	748.0235	842.0554	848.598	866.2921	881.8659	928.2391	983.2644	1006.4796	1028.3316	1033.4948	1074.046	1076.0207	1089.9085	1118.0388	1147.9622	1152.8659	1180.357	1208.3731	1227.2127	1244.0998	1287.6393	1303.2191	1380.0095	1396.1614	1414.9389	1495.418	1499.7134	1512.0818	3026.6155	3031.1316	3042.4946	3082.3994	3087.4967	3091.5015	3095.5346	3099.7729	3152.3498	3805.7751
CC1C2C3CC2(O)C13	C[C@H]1[C@H]2[C@@H]3C[C@@]2(O)[C@H]13	
InChI=1S/C7H10O/c1-3-5-4-2-7(5,8)6(3)4/h3-6,8H,2H2,1H3	InChI=1S/C7H10O/c1-3-5-4-2-7(5,8)6(3)4/h3-6,8H,2H2,1H3/t3-,4-,5-,6+,7-
