18
gdb 87043	2.21997	1.42607	1.10472	2.6489	76.52	-0.28	0.0242	0.3043	1168.1851	0.146554	-401.931444	-401.922465	-401.921521	-401.965321	32.841	
C	-0.2803568769	 1.4664331847	 0.5135642454	-0.422398
C	-0.0987224777	-0.0331129836	 0.4929118634	-0.036004
C	 1.0018097523	-0.6790540819	-0.2932994925	-0.320934
C	 1.0525569033	-0.7093106227	 1.2331816011	 0.146289
C	 2.0372990568	 0.1136016181	 1.885103867	 0.233761
N	 2.8301411199	 0.7610052086	 2.4252839701	-0.349657
C	 0.8144310957	-2.0278495233	 1.9302322713	-0.010979
C	-0.2944571412	-2.2251243663	 2.8704381709	-0.171191
O	-0.3477834355	-2.744842193	 1.5342053686	-0.232583
H	 0.679801436	 1.9896271252	 0.4956312737	 0.140425
H	-0.858060425	 1.7891549537	-0.3586649049	 0.127514
H	-0.8181060843	 1.7888739232	 1.4109668429	 0.129029
H	-1.0125328421	-0.617566688	 0.5452521702	 0.121274
H	 0.8028248806	-1.6275284828	-0.7793286894	 0.140707
H	 1.7187902043	-0.0402975767	-0.7967847381	 0.136437
H	 1.7069267834	-2.6432637695	 2.0473828037	 0.114306
H	-0.211690771	-2.9736200256	 3.6554512164	 0.130025
H	-0.9731459187	-1.3990244601	 3.0730393004	 0.123977
76.2285	135.988	147.0815	165.4349	191.0943	229.6315	332.8565	373.5028	453.1968	479.4508	562.7697	603.6819	642.3617	800.9384	853.4871	883.8032	903.1751	916.6029	953.9633	1002.513	1040.8959	1075.6608	1094.6824	1119.0659	1140.2472	1156.294	1173.9517	1199.8245	1247.9133	1283.4171	1307.8355	1397.4024	1419.3168	1434.0286	1479.6013	1491.4491	1500.9028	1524.4519	2346.246	3038.3324	3097.0517	3102.5644	3108.7662	3114.8808	3139.8701	3163.7773	3189.7514	3233.6243
CC1CC1(C#N)C1CO1	C[C@H]1C[C@]1(C#N)[C@H]1CO1	
InChI=1S/C7H9NO/c1-5-2-7(5,4-8)6-3-9-6/h5-6H,2-3H2,1H3	InChI=1S/C7H9NO/c1-5-2-7(5,4-8)6-3-9-6/h5-6H,2-3H2,1H3/t5-,6+,7+/m0/s1
