21
gdb 123064	4.82531	0.62065	0.60883	2.1213	76.05	-0.2509	0.0664	0.3172	1883.2953	0.181514	-461.324133	-461.314171	-461.313227	-461.361085	34.64	
O	 0.4312385099	 0.5672583163	-0.6833576392	-0.420605
C	-0.1461576831	-0.607558998	-0.1506984848	-0.058551
C	-1.622326324	-0.4096512896	 0.1546708813	-0.066112
O	-2.24904758	-0.0649789497	-1.0687798368	-0.266432
C	-3.6077430932	 0.294539215	-0.9378282423	-0.071627
C	-4.1280049134	 0.6653336822	-2.3146466253	 0.135049
C	-4.4339453688	-0.480659981	-3.3020207975	-0.281634
C	-5.8824326483	 0.0442885338	-3.2338426635	-0.061208
O	-5.519713115	 1.0457387589	-2.2556595439	-0.294437
H	-0.1645550858	 0.8529618012	-1.3859490173	 0.287842
H	-0.0343324446	-1.4604935835	-0.8394708912	 0.092263
H	 0.3931383246	-0.8475616459	 0.7714906698	 0.108838
H	-2.0635404388	-1.327173156	 0.5771107793	 0.088725
H	-1.7501946767	 0.4031693622	 0.886884042	 0.098481
H	-4.1986528105	-0.5405959561	-0.5274236187	 0.089737
H	-3.7285116087	 1.1520925728	-0.2558933559	 0.101455
H	-3.5066946419	 1.4693267081	-2.7318738825	 0.080133
H	-3.9465714779	-0.4142553594	-4.2750029502	 0.114318
H	-4.2801329826	-1.4800973107	-2.8909184871	 0.113583
H	-6.2608309572	 0.4992566168	-4.1574403222	 0.104553
H	-6.6378551441	-0.6492206774	-2.846540654	 0.105629
40.9405	49.6435	76.9669	89.0625	157.4599	183.4756	274.819	315.9096	401.3497	438.0559	447.356	560.9814	765.1147	803.9087	869.3837	884.1596	908.749	940.0945	951.7165	1016.4346	1039.9472	1063.6246	1085.6896	1120.8994	1140.579	1155.1208	1161.2691	1178.7774	1211.8354	1238.1696	1252.143	1255.7469	1264.457	1279.0992	1345.6648	1373.9915	1387.0145	1396.1353	1434.9901	1448.7252	1489.3704	1498.9822	1502.8275	1523.9503	1532.8683	2962.5364	2973.1443	2977.144	2996.0556	3012.6661	3016.5065	3022.3922	3059.7102	3079.5005	3083.2339	3139.4816	3795.5575
OCCOCC1CCO1	OCCOC[C@H]1CCO1	
InChI=1S/C6H12O3/c7-2-4-8-5-6-1-3-9-6/h6-7H,1-5H2	InChI=1S/C6H12O3/c7-2-4-8-5-6-1-3-9-6/h6-7H,1-5H2/t6-/m1/s1
