18
gdb 15406	4.53619	0.92897	0.82753	2.7758	70.28	-0.2592	-0.0399	0.2193	1394.7375	0.151248	-384.932528	-384.92357	-384.922626	-384.967105	31.206	
C	 0.1089630699	 1.474532898	 0.4768334572	-0.384603
C	-0.0368149112	-0.0298597532	 0.2375652612	-0.162448
C	-1.4653079872	-0.4344293719	-0.1560857884	-0.216564
C	-1.5780979474	-1.9196213283	-0.4055275494	 0.073802
O	-1.6652449926	-2.7843844607	 0.7195206009	-0.244703
C	-2.7905329468	-2.7449848418	-0.1671419774	-0.057256
C	-4.0463131751	-2.1600789307	 0.3909998034	 0.139823
O	-5.1385369837	-2.3938960301	-0.0606261408	-0.245139
H	 1.1351235034	 1.7335580036	 0.753979966	 0.117944
H	-0.1487747852	 2.0462855694	-0.4215772061	 0.116493
H	-0.549614362	 1.8126780583	 1.2842762243	 0.118931
H	 0.6582579715	-0.3477735773	-0.550562265	 0.099413
H	 0.2495666524	-0.5819635459	 1.1405155439	 0.11703
H	-2.1638235274	-0.1298846658	 0.6295450997	 0.106593
H	-1.7630678126	 0.0952833152	-1.0708261939	 0.110173
H	-0.9171016024	-2.2965969229	-1.1903667762	 0.103098
H	-2.943444984	-3.6291937576	-0.7847816067	 0.115671
H	-3.8961720997	-1.4992981385	 1.2714033873	 0.091741
60.1038	75.4211	94.2908	148.6331	246.9651	263.7551	287.6638	350.3663	440.5304	479.7555	532.5018	743.3658	810.4613	856.7568	894.5161	898.0217	975.281	1029.0554	1034.6559	1056.7773	1103.7055	1123.8938	1171.4452	1178.2297	1263.1251	1267.2125	1305.6003	1329.1539	1341.4729	1387.9234	1410.5379	1415.1774	1464.3414	1475.8679	1492.2958	1500.9776	1508.861	1822.9122	2906.446	3021.324	3027.2355	3032.4391	3058.465	3073.5613	3090.2528	3101.424	3107.2247	3130.403
CCCC1OC1C=O	CCC[C@H]1O[C@H]1C=O	
InChI=1S/C6H10O2/c1-2-3-5-6(4-7)8-5/h4-6H,2-3H2,1H3	InChI=1S/C6H10O2/c1-2-3-5-6(4-7)8-5/h4-6H,2-3H2,1H3/t5-,6+/m1/s1
