21
gdb 86787	3.14466	1.05285	0.86577	4.2243	83.77	-0.2359	0.024	0.2598	1381.1159	0.181765	-383.26696	-383.257263	-383.256319	-383.301712	35.572	
C	-0.1984808074	 1.5452955669	-0.1281474313	-0.397588
C	-0.0575332913	 0.0310860237	-0.0252890163	-0.014762
C	 1.1135046128	-0.5609614096	-0.8523413465	-0.18303
N	 1.9277899176	-0.5987080392	 0.3789219462	-0.08
C	 2.8271430404	-1.7222633274	 0.532999173	-0.295504
C	 3.6021625416	-1.6493890741	 1.7780309176	 0.287134
N	 4.2054423312	-1.6109056233	 2.7624155938	-0.313096
C	 0.7062522349	-0.5185699019	 1.2219260699	 0.060369
C	 0.8160313247	 0.2932917798	 2.5007374958	-0.413062
H	 0.7672308669	 2.0449116055	-0.0063366127	 0.13166
H	-0.5980968368	 1.8241237866	-1.1090205989	 0.115244
H	-0.881896428	 1.9375248486	 0.6319293466	 0.118898
H	-1.022521764	-0.4499849667	-0.1986640905	 0.075589
H	 0.8809788706	-1.5623847909	-1.2502186874	 0.085038
H	 1.5339509049	 0.0524229634	-1.6571472523	 0.104761
H	 2.3066506235	-2.7008232501	 0.5162930825	 0.123463
H	 3.5340574331	-1.7267509516	-0.3057038726	 0.154248
H	 0.3286434661	-1.5292598455	 1.4599219747	 0.059134
H	 1.1963548355	 1.2981524542	 2.3021856586	 0.125221
H	-0.1648468039	 0.3783721781	 2.9813327112	 0.113958
H	 1.4954135674	-0.1896355065	 3.2091152586	 0.142326
56.3597	90.9945	141.9626	204.9477	238.9284	250.9923	262.6568	294.9992	348.1811	391.4805	414.405	494.9209	537.3371	727.764	768.5459	804.8064	876.3029	918.1136	944.2693	985.4074	998.1167	1042.2513	1057.1721	1106.771	1116.4664	1138.5153	1166.9485	1208.2597	1218.2441	1241.7621	1273.7345	1297.5076	1328.779	1373.6607	1377.4471	1399.2814	1412.4217	1416.61	1469.5566	1482.7708	1496.4485	1499.1411	1507.4108	1515.5877	2364.3912	2906.825	2933.8952	2967.0821	3034.1302	3041.884	3052.6313	3054.9805	3079.5222	3098.7681	3109.138	3113.5991	3130.3409
CC1CN(CC#N)C1C	C[C@H]1CN(CC#N)[C@H]1C	
InChI=1S/C7H12N2/c1-6-5-9(4-3-8)7(6)2/h6-7H,4-5H2,1-2H3	InChI=1S/C7H12N2/c1-6-5-9(4-3-8)7(6)2/h6-7H,4-5H2,1-2H3/t6-,7-/m0/s1
