29
gdb 100291	1.54979	1.35329	1.04149	0.0394	98.44	-0.2879	0.0774	0.3653	1469.5587	0.272793	-354.771137	-354.758887	-354.757943	-354.80798	46.306	
C	-1.6533266166	-0.6472656533	-0.0016360249	-0.40201
C	-0.1647538424	-0.2752287597	 0.0032587603	-0.196982
C	 0.6321404538	-0.5726597831	 1.3058244154	 0.29339
C	 0.6635666497	-2.1014108328	 1.5314616923	-0.430395
C	 2.0821632512	-0.040995232	 1.1339145542	-0.198397
C	 2.924025556	-0.6712996923	 0.0149146069	-0.399249
C	-0.057885535	 0.1099124255	 2.5402463671	 0.035721
C	 0.6163202269	-0.1920581198	 3.8910348796	-0.410023
C	-0.2448618724	 1.6310263181	 2.4018040388	-0.410196
H	-2.2339609616	-0.0558197948	 0.7124853836	 0.118553
H	-2.0822276987	-0.4697078806	-0.9931940307	 0.109338
H	-1.8111599299	-1.7038163764	 0.2365227029	 0.11585
H	 0.3197395871	-0.816934496	-0.8169360631	 0.092307
H	-0.0636625328	 0.7876164584	-0.2470416553	 0.090267
H	 0.9108835525	-2.633318701	 0.607783394	 0.108889
H	 1.4087308267	-2.386915235	 2.2799075156	 0.110876
H	-0.3059245113	-2.4768286345	 1.8746772927	 0.108962
H	 2.0444173089	 1.0417823636	 0.965420136	 0.091144
H	 2.6209624011	-0.1820998017	 2.077842504	 0.090912
H	 3.9266613541	-0.2315035948	 0.0094087334	 0.109455
H	 3.0434824506	-1.7505730818	 0.1492712345	 0.115992
H	 2.4929031483	-0.5039345728	-0.976479925	 0.116722
H	-1.0621390278	-0.3300559706	 2.5964002502	 0.06983
H	 0.0141646542	 0.2228418203	 4.7064298166	 0.107507
H	 0.7207880138	-1.2637628513	 4.0762549692	 0.111889
H	 1.6101355241	 0.2615457938	 3.9650081686	 0.114567
H	-0.7948495747	 1.9066804364	 1.4983763949	 0.11305
H	-0.8087599332	 2.0165575771	 3.2578618326	 0.107619
H	 0.7138326571	 2.159885381	 2.3846653753	 0.114414
52.9275	80.3043	107.3714	202.5823	205.7868	219.737	233.5755	237.4941	250.2029	274.4082	304.4105	333.3744	350.3739	377.5316	410.3314	447.6219	504.592	530.4764	656.2769	773.8032	784.5927	845.7242	877.0339	920.51	926.3997	956.9931	972.0333	1011.3765	1022.0145	1043.7025	1056.5169	1063.1695	1109.3303	1133.283	1183.9995	1213.1994	1220.5936	1229.6145	1313.0509	1334.3703	1355.755	1360.4217	1374.7356	1378.1162	1398.0818	1404.7746	1411.6664	1413.4241	1421.4094	1480.7909	1482.383	1489.3233	1497.0374	1499.7042	1500.4039	1505.5854	1506.829	1508.5821	1512.7543	1514.3479	1520.2691	3014.2358	3025.5342	3028.8086	3033.7007	3034.3365	3039.1262	3040.2755	3043.0383	3058.4821	3063.7879	3092.1602	3096.0855	3098.2578	3099.5819	3102.4417	3103.7889	3110.2581	3113.6587	3115.1995	3122.3501
CCC(C)(CC)C(C)C	CCC(C)(CC)C(C)C	
InChI=1S/C9H20/c1-6-9(5,7-2)8(3)4/h8H,6-7H2,1-5H3	InChI=1S/C9H20/c1-6-9(5,7-2)8(3)4/h8H,6-7H2,1-5H3
