18
gdb 64306	2.41928	1.58958	1.19893	5.0973	78.57	-0.2157	-0.0386	0.1771	1074.2181	0.147505	-439.116232	-439.107514	-439.10657	-439.149357	33.145	
C	 0.0622951234	 1.5815944944	-0.0318997186	-0.439173
C	-0.0098843817	 0.0480145349	 0.0176065308	 0.300903
O	-1.3631869107	-0.3811346525	 0.0075126485	-0.483412
C	 0.7249873394	-0.611402327	-1.1869832417	-0.211995
N	 1.9877409951	-1.1002429202	-0.6059909864	-0.288278
C	 1.8788008885	-1.144981676	 0.7491959473	-0.086375
C	 0.7682873458	-0.5129055413	 1.2055940719	 0.131453
C	 0.3025588364	-0.4176322487	 2.5542656327	 0.054003
O	-0.7876839501	 0.0546524067	 2.8630598955	-0.341613
H	 1.0980876466	 1.9278984868	-0.114817454	 0.110067
H	-0.5040377325	 1.9498124686	-0.8933007137	 0.11749
H	-0.3712976014	 2.0040774072	 0.8782622895	 0.13695
H	-1.7012738461	-0.171243323	 0.8911365891	 0.293367
H	 0.1151867686	-1.4408525695	-1.5624898668	 0.129174
H	 0.9188481994	 0.0896935569	-2.0025121545	 0.11782
H	 2.5573606931	-1.7664032337	-1.1021117156	 0.256347
H	 2.6477400018	-1.6372995602	 1.3342279409	 0.138214
H	 0.9798195944	-0.8253228834	 3.3365889751	 0.065058
77.5404	140.8954	182.3242	246.7477	277.4619	327.8689	362.5535	385.5831	422.204	462.1334	491.3851	540.4236	613.5938	661.614	714.8958	815.9852	912.3028	930.4303	946.8165	970.6929	989.8754	1022.9407	1120.9434	1147.3849	1168.4474	1179.7571	1241.6784	1288.3141	1333.1688	1347.6495	1396.3602	1406.2485	1420.7419	1471.9428	1486.7314	1498.4016	1515.1121	1660.4941	1717.4624	2883.2789	3032.5663	3041.6932	3099.3291	3105.0644	3124.4486	3202.7069	3640.198	3720.605
CC1(O)CNC=C1C=O	C[C@@]1(O)CNC=C1C=O	
InChI=1S/C6H9NO2/c1-6(9)4-7-2-5(6)3-8/h2-3,7,9H,4H2,1H3	InChI=1S/C6H9NO2/c1-6(9)4-7-2-5(6)3-8/h2-3,7,9H,4H2,1H3/t6-/m1/s1
