25
gdb 60171	3.15773	0.86914	0.80508	0.9308	90.97	-0.231	0.0898	0.3208	1621.7311	0.225353	-389.486879	-389.475674	-389.474729	-389.523109	41.751	
C	 0.1459282109	 1.5226395359	 0.0891948767	-0.390051
C	 0.0361475506	 0.0025772888	 0.0568170362	 0.157838
C	 0.2159262449	-0.6226528403	 1.442209975	-0.390689
O	-1.2419416283	-0.2897802486	-0.5106945163	-0.264394
C	-1.4122027057	-1.5964364186	-0.9608290556	 0.108063
C	-2.0959369929	-2.6309175987	-0.0893519608	-0.357305
C	-2.8078175419	-2.0410847572	-1.2971026331	 0.291262
C	-3.9497413703	-1.0754859015	-1.0446890663	-0.444212
C	-2.9864309993	-2.9277434546	-2.5148482065	-0.451721
H	 1.1225324497	 1.8317332151	 0.4733209305	 0.110875
H	 0.0157824266	 1.9369222706	-0.9139074181	 0.120577
H	-0.6293908423	 1.9446661625	 0.7367663917	 0.121383
H	 0.8136123139	-0.3988357698	-0.6151341604	 0.063812
H	-0.5476764552	-0.2468223342	 2.1313455273	 0.116867
H	 0.1378535754	-1.7115799504	 1.4015294353	 0.12606
H	 1.2006675112	-0.3676973663	 1.8474466766	 0.11066
H	-0.6060660237	-1.9427314477	-1.6113350823	 0.074606
H	-1.7533382562	-3.6605398124	-0.1292227362	 0.101322
H	-2.4272523193	-2.299551595	 0.888788876	 0.111337
H	-3.7411955899	-0.4266740006	-0.1922496289	 0.125998
H	-4.1162455061	-0.4327631939	-1.91700345	 0.11256
H	-4.8806655583	-1.6205046534	-0.8499428541	 0.10753
H	-3.8761651402	-3.5602821314	-2.4104868301	 0.113585
H	-3.1091973695	-2.3285640741	-3.424893317	 0.114938
H	-2.1268303242	-3.5892371541	-2.6636864695	 0.1091
44.7434	84.8588	122.9027	197.7112	205.1589	213.6853	237.6174	255.1852	271.8156	311.4957	357.8574	376.1645	401.5038	470.3092	510.7516	521.7948	694.7675	830.4927	844.7544	881.9347	921.7663	925.6333	943.598	950.7739	974.2463	990.6934	1034.7414	1042.599	1077.959	1122.1068	1144.7755	1159.6262	1168.2942	1189.9185	1208.0735	1289.9453	1334.0002	1366.0743	1373.2126	1397.0711	1406.8963	1412.6833	1421.6369	1428.8598	1479.6129	1481.5761	1485.1516	1487.3951	1491.2837	1493.2903	1502.0791	1511.515	1516.0509	2958.4729	3018.6715	3027.9466	3036.6053	3042.6657	3072.034	3079.2187	3082.9892	3094.2276	3104.5109	3115.0078	3122.4403	3122.8432	3125.2578	3132.8885	3213.958
CC(C)OC1CC1(C)C	CC(C)O[C@H]1CC1(C)C	
InChI=1S/C8H16O/c1-6(2)9-7-5-8(7,3)4/h6-7H,5H2,1-4H3	InChI=1S/C8H16O/c1-6(2)9-7-5-8(7,3)4/h6-7H,5H2,1-4H3/t7-/m0/s1
