20
gdb 115909	3.14591	1.35274	1.13726	1.9036	74.29	-0.2265	0.0759	0.3024	1118.1766	0.17364	-440.236251	-440.228618	-440.227674	-440.268276	30.676	
O	 0.6588695459	-0.9862908754	-1.1610845374	-0.423897
C	 0.2084156036	-0.3225729884	-0.0036383007	-0.069872
C	-1.3211065517	-0.3272798244	 0.0602909192	-0.006304
C	-1.8728029073	 0.4138400516	 1.303417248	-0.098591
O	-3.1564285932	 1.0053456432	 1.0793850577	-0.27559
C	-3.3801760468	 1.3768147995	-0.2718319261	 0.122511
C	-3.3436305053	 0.1224624161	-1.1698379458	-0.187501
N	-1.8390460896	 0.2589905785	-1.2045225208	-0.148559
C	-2.0591623848	 1.7413038743	-0.9852980265	-0.21641
H	 0.0441636428	-0.7016616048	-1.8541458107	 0.282568
H	 0.6265593789	-0.8406693684	 0.8673149407	 0.105471
H	 0.5720484774	 0.7204551503	 0.0338659778	 0.079135
H	-1.6491158493	-1.3728374492	 0.0617104818	 0.093086
H	-1.9869025762	-0.2686349646	 2.1501717724	 0.11643
H	-1.1640193217	 1.1969926488	 1.611069119	 0.098028
H	-4.2378387157	 2.0535209686	-0.2796726426	 0.081036
H	-3.7171310765	-0.8112802436	-0.7423696327	 0.110649
H	-3.758451474	 0.2767284896	-2.1704544477	 0.106995
H	-2.218109524	 2.234564272	-1.9473249201	 0.114835
H	-1.2803359425	 2.2695468666	-0.4315938556	 0.115981
114.075	150.5677	226.1102	274.3286	374.3561	422.0576	455.154	492.2284	529.1398	549.4144	619.951	770.4573	823.9599	837.8324	893.3879	909.5036	934.1298	946.381	1001.6647	1009.8054	1031.6061	1067.6491	1094.1365	1096.1206	1131.6915	1153.7132	1173.3972	1223.1009	1239.6525	1251.806	1262.3471	1270.3754	1302.686	1304.22	1359.1671	1370.4598	1389.0536	1410.2131	1452.4004	1484.6172	1506.4381	1507.4246	1529.6768	2939.5912	2989.2625	3043.2536	3050.1324	3058.6337	3067.7306	3084.4246	3087.3888	3116.9909	3125.3445	3709.8327
OCC1COC2CN1C2	OC[C@H]1CO[C@@H]2CN1C2	
InChI=1S/C6H11NO2/c8-3-5-4-9-6-1-7(5)2-6/h5-6,8H,1-4H2	InChI=1S/C6H11NO2/c8-3-5-4-9-6-1-7(5)2-6/h5-6,8H,1-4H2/t5-/m0/s1
