14
gdb 25049	5.65874	1.0163	0.86156	3.1582	84.19	-0.216	-0.0481	0.168	1243.6021	0.102394	-399.591459	-399.584049	-399.583104	-399.623331	28.571	
O	-0.0489828804	-0.0982765484	 0.0041036114	-0.391221
C	 0.0200608215	 1.1176465811	 0.0091344273	 0.430298
N	-1.1643264401	 1.8911043423	 0.028506536	-0.356702
C	-1.2299067506	 3.2433656942	 0.0359306602	-0.036106
C	-0.0876164027	 4.0025209909	 0.0245399504	 0.064102
C	 1.1627886237	 3.2939950573	 0.0045907284	-0.127325
C	 1.2179280527	 1.9369848816	-0.0027228838	-0.241518
C	-0.1432848808	 5.4209563641	 0.0321545956	 0.227844
C	-0.1671251319	 6.6253262711	 0.0383053847	-0.425636
H	-2.0136117533	 1.3423112386	 0.0370479201	 0.267363
H	-2.2190632719	 3.683561797	 0.0511188245	 0.147026
H	 2.0773734423	 3.8776386358	-0.004657157	 0.122441
H	 2.1596260471	 1.4025299025	-0.0177597837	 0.123534
H	-0.1940130157	 7.6868436021	 0.0437979659	 0.195901
96.6345	145.7789	220.5836	387.3958	423.3029	445.2118	445.9149	522.394	526.2926	561.3744	646.4563	668.3145	719.5253	729.7932	765.044	818.0483	859.6514	908.7635	994.9452	1006.7939	1122.2359	1207.2156	1233.5458	1246.8677	1344.5481	1446.5147	1469.2351	1569.8675	1667.395	1791.3236	2227.4459	3188.3925	3215.9123	3218.9876	3502.1312	3601.9737
O=C1NC=C(C=C1)C#C	O=c1[nH]cc(cc1)C#C	
InChI=1S/C7H5NO/c1-2-6-3-4-7(9)8-5-6/h1,3-5H,(H,8,9)	InChI=1S/C7H5NO/c1-2-6-3-4-7(9)8-5-6/h1,3-5H,(H,8,9)
