17
gdb 6816	3.0014	1.74634	1.4534	5.4837	68.92	-0.2475	0.017	0.2645	925.8132	0.142713	-360.028268	-360.020034	-360.01909	-360.060499	30.879	
C	-0.122964672	 1.5301646441	-0.0183967182	-0.424747
C	-0.0528007851	 0.008655593	-0.0366573561	 0.286113
N	-1.367483118	-0.5468672555	-0.250532149	-0.557247
C	 1.1842719313	-0.5237865274	-0.8399942467	-0.212764
N	 1.9475614853	-0.5732359228	 0.4261725947	-0.306404
C	 0.6975130992	-0.594496279	 1.2106210678	-0.14001
C	 0.7167501456	 0.1532982718	 2.4661817584	 0.301616
N	 0.7160589475	 0.7512501097	 3.4554882649	-0.334973
H	 0.8533933309	 1.959307469	 0.2164313985	 0.147926
H	-0.4319275227	 1.9019627724	-1.0021560739	 0.110625
H	-0.8462876062	 1.8733912981	 0.7259382188	 0.144479
H	-1.8539008092	-0.0558859368	-0.9933951455	 0.231935
H	-1.323945433	-1.5268254697	-0.5112646435	 0.2261
H	 0.9748475238	-1.5082547415	-1.2853297363	 0.08456
H	 1.6171734307	 0.1297694345	-1.6045385873	 0.108959
H	 2.5531897303	-1.3751101028	 0.5585721415	 0.230258
H	 0.3029907117	-1.600528487	 1.4163316818	 0.103574
110.9678	137.7517	209.2663	243.3903	270.3019	311.7772	361.9258	389.1902	420.4328	548.8201	566.8215	618.1987	725.5012	796.6629	879.1985	901.7836	919.5157	994.1642	1006.7125	1025.7018	1071.4769	1078.4213	1136.7975	1151.1673	1194.0571	1262.0247	1330.7293	1349.0764	1364.9865	1384.6125	1414.3821	1490.7707	1493.4012	1516.731	1661.1259	2354.0318	2983.4112	2993.998	3036.731	3066.6688	3108.898	3138.137	3500.3679	3540.1257	3583.3484
CC1(N)CNC1C#N	C[C@@]1(N)CN[C@H]1C#N	
InChI=1S/C5H9N3/c1-5(7)3-8-4(5)2-6/h4,8H,3,7H2,1H3	InChI=1S/C5H9N3/c1-5(7)3-8-4(5)2-6/h4,8H,3,7H2,1H3/t4-,5+/m0/s1
