16
gdb 84607	2.54061	1.7268	1.22416	3.4224	75.4	-0.2293	-0.0008	0.2285	1017.4138	0.125353	-396.933271	-396.925218	-396.924274	-396.966178	29.562	
C	-0.1070565144	 1.3866818332	 0.061095033	-0.352394
N	-0.1530361459	-0.0572123453	 0.0180857992	-0.090319
C	 0.021854868	-0.8575307278	-1.0812507255	 0.050212
N	 0.0753313927	-2.1275577393	-0.8820350918	-0.268852
C	 0.0445837904	-2.3201298328	 0.5362010333	-0.034748
C	 1.1463397722	-1.7269688194	 1.3716515626	-0.329747
C	-0.115379903	-0.9024241806	 1.1808676633	 0.176374
C	-0.9694041384	-0.5628223684	 2.2790033956	 0.23184
N	-1.6521546899	-0.2828507779	 3.1708589844	-0.354389
H	 0.862520395	 1.7621140969	 0.4149899932	 0.133659
H	-0.2868745463	 1.7759645608	-0.9437752857	 0.143402
H	-0.8886151975	 1.7715735996	 0.723595841	 0.159692
H	 0.0840317132	-0.3956069826	-2.0611988018	 0.137164
H	-0.4895755059	-3.1846474458	 0.9118924134	 0.125745
H	 1.2851958822	-2.1551642819	 2.3571808436	 0.143039
H	 2.0464700078	-1.3763879485	 0.8776801722	 0.129322
69.7347	146.2783	148.6975	170.8392	317.6367	364.9735	387.4675	471.4065	568.7663	580.9093	623.6314	645.4536	747.6688	813.7302	863.4557	934.8586	958.4064	999.299	1053.889	1071.6302	1087.1598	1128.0586	1156.1951	1183.3601	1257.9555	1284.6536	1335.3137	1358.5714	1404.2522	1459.6555	1466.8184	1480.8708	1523.7823	1636.9766	2344.4901	3010.9592	3081.4792	3126.6789	3135.6347	3187.884	3198.4981	3235.8014
CN1C=NC2CC12C#N	CN1C=N[C@H]2C[C@@]12C#N	
InChI=1S/C6H7N3/c1-9-4-8-5-2-6(5,9)3-7/h4-5H,2H2,1H3	InChI=1S/C6H7N3/c1-9-4-8-5-2-6(5,9)3-7/h4-5H,2H2,1H3/t5-,6-/m0/s1
