13
gdb 49352	2.00187	1.6385	1.27399	4.8712	69.48	-0.2838	-0.0346	0.2492	1021.5824	0.088838	-411.7668	-411.758474	-411.75753	-411.800285	28.837	
N	-0.3977068575	 1.0414533137	-0.5153672243	-0.393499
C	-0.2831413752	-0.1611022991	-0.1488066008	 0.05976
N	-1.3245312105	-0.8039645973	 0.5435435264	-0.060865
C	-2.7144852535	-0.7322968776	 0.1528162732	-0.166601
C	-3.1391999307	-0.1098176926	-1.0800559338	 0.345259
N	-3.5542203794	 0.3710477491	-2.0448141848	-0.31542
C	-1.9400632852	-2.0445618664	 0.1077360518	-0.183744
C	-1.5895256678	-2.6319532126	-1.1637813976	 0.322068
N	-1.2727845994	-3.132890117	-2.1559945944	-0.310079
H	 0.4659327221	 1.3788341141	-0.9368041945	 0.247221
H	 0.5983083163	-0.803486282	-0.2427748199	 0.129975
H	-3.4139836033	-0.6004391294	 0.974121472	 0.163938
H	-2.1288618359	-2.769655303	 0.8952388066	 0.161988
88.6457	104.4973	124.2357	165.6075	242.5239	275.8374	331.0893	461.4097	492.076	610.2414	635.8641	662.9812	759.6032	844.3393	864.6056	893.6237	1025.9849	1042.1873	1061.5983	1098.408	1133.7862	1217.5136	1345.4553	1357.6942	1399.6084	1410.7403	1723.0365	2361.6303	2367.8378	3077.6901	3147.7774	3154.6022	3512.5132
N=CN1C(C#N)C1C#N	[NH][CH]N1[C@@H](C#N)[C@H]1C#N	
InChI=1S/C5H4N4/c6-1-4-5(2-7)9(4)3-8/h3-5,8H	InChI=1S/C5H4N4/c6-1-4-5(2-7)9(4)3-8/h3-5,8H/t4-,5+,9?
