12
gdb 130607	3.30254	1.45863	1.06552	1.9248	67.78	-0.2717	-0.1162	0.1555	1023.3611	0.078615	-468.810591	-468.803534	-468.802589	-468.842754	25.611	
O	 0.072678922	 0.0356896316	-0.5135520069	-0.302639
C	 0.0013828502	 1.2022959454	-0.177903782	 0.301555
C	-1.3006786929	 1.8640584478	 0.0225449532	-0.068601
N	-1.6007557525	 3.095074133	 0.2598447859	-0.14977
N	-0.7289965474	 4.1057337864	 0.2783748138	-0.247053
C	 0.6247495102	 4.206096665	-0.1312394937	 0.434763
O	 1.0014668246	 5.2338161763	-0.6320848803	-0.308622
N	 1.5123311421	 3.1770669268	 0.2029552352	-0.218391
C	 1.2676533848	 1.9313278669	 0.181104036	-0.036756
H	-2.1471106425	 1.1827202527	-0.0015595843	 0.149844
H	-1.189545154	 5.0079439464	 0.2733447126	 0.286365
H	 2.0790597956	 1.2505217616	 0.4498466805	 0.159305
65.6625	120.9572	275.6152	321.5373	387.8104	426.9235	467.9979	537.8412	647.6378	675.1011	699.045	756.6621	789.7747	859.663	898.0779	925.3724	987.753	1151.8044	1174.4548	1291.9502	1376.7339	1389.3307	1474.7031	1650.6142	1734.4718	1748.1601	1811.8763	3112.8809	3174.1292	3573.4774
O=C1C=NNC(=O)N=C1	O=c1cn[nH]c(=O)nc1	
InChI=1S/C4H3N3O2/c8-3-1-5-4(9)7-6-2-3/h1-2H,(H,7,9)	InChI=1S/C4H3N3O2/c8-3-1-5-4(9)7-6-2-3/h1-2H,(H,7,9)
