21
gdb 87900	2.35234	1.45245	1.21546	1.3274	83.63	-0.2323	0.0312	0.2635	1150.2233	0.182396	-387.085575	-387.076702	-387.075758	-387.119029	34.673	
C	 0.445264251	 1.6974485666	-0.2547860995	-0.388715
C	 0.04557838	 0.2428167383	 0.0482192482	-0.111746
C	 0.4196882956	-0.6896814585	-1.0838929819	-0.059914
C	 1.3585571375	-1.5710210549	-0.7482823509	-0.073883
C	 1.7914739014	-1.4201290643	 0.6895353777	-0.33682
C	 0.7847805484	-0.3997651301	 1.2418369318	 0.324897
C	 1.0670202915	 0.3473932535	 2.5278255894	-0.390761
C	 0.020020412	-0.7362270993	 2.4939730731	 0.061869
O	-1.3330513444	-0.3842222763	 2.5308866635	-0.418547
H	 1.5263518993	 1.7880960495	-0.4032720164	 0.11335
H	-0.0499645863	 2.0511126345	-1.1656686248	 0.10836
H	 0.1550890445	 2.3691607831	 0.5593452863	 0.11009
H	-1.0341910284	 0.2221038814	 0.2342721019	 0.099828
H	-0.0267143092	-0.5951782495	-2.0685644954	 0.087016
H	 1.7938292874	-2.3097323384	-1.4124208702	 0.088457
H	 1.7641786567	-2.3685113119	 1.2420443116	 0.100949
H	 2.8282453644	-1.0586039148	 0.7565463512	 0.10336
H	 2.0032325927	 0.1578353492	 3.0445876144	 0.105646
H	 0.7052066374	 1.367795817	 2.6064813199	 0.109123
H	 0.2523027964	-1.6874231886	 2.9755626459	 0.079537
H	-1.5255214677	-0.0281808065	 3.4042016642	 0.287905
49.8901	172.1438	210.6825	235.334	252.4824	267.5643	294.2801	410.3338	452.9914	467.3622	519.5333	581.1749	722.7989	744.8729	777.514	819.6151	871.9328	884.5824	935.3768	966.2877	976.5856	991.7283	1018.1766	1043.2582	1048.0127	1092.862	1096.1455	1108.413	1136.9306	1172.4085	1190.4507	1239.8289	1260.7288	1293.3769	1302.6506	1342.883	1358.3217	1374.7132	1404.5703	1420.9429	1482.1318	1489.0085	1495.7284	1500.3541	1692.6098	2995.7492	3028.9285	3029.1203	3042.6651	3082.8052	3095.9975	3104.6373	3119.2275	3175.4085	3202.114	3206.7565	3809.4126
CC1C=CCC11CC1O	C[C@H]1C=CC[C@]21C[C@H]2O	
InChI=1S/C8H12O/c1-6-3-2-4-8(6)5-7(8)9/h2-3,6-7,9H,4-5H2,1H3	InChI=1S/C8H12O/c1-6-3-2-4-8(6)5-7(8)9/h2-3,6-7,9H,4-5H2,1H3/t6-,7+,8+/m0/s1
