14
gdb 124261	3.94695	1.26892	0.96588	2.7668	70.32	-0.2471	-0.106	0.1411	1135.2706	0.101096	-432.892788	-432.88509	-432.884146	-432.925733	27.281	
C	 0.0973225168	 1.505830303	 0.0026022268	-0.482775
C	 0.0675928815	-0.0014002202	 0.0404115945	 0.328354
O	 0.0656377996	-0.6470821218	 1.0647312423	-0.280793
C	 0.0388702777	-0.7291681619	-1.2858167091	 0.204623
C	 0.0105680439	-2.128627492	-1.3262522272	 0.004323
N	-0.0149197274	-2.7939821396	-2.4767857562	-0.172229
N	-0.0131180972	-2.0945186978	-3.6115177366	-0.169528
C	 0.014230612	-0.7650589445	-3.5307400622	 0.096611
N	 0.0408030121	-0.0290813109	-2.4146950433	-0.292519
H	 0.9732507682	 1.8539410407	-0.553806929	 0.157132
H	-0.775822785	 1.8889064193	-0.5348783377	 0.157133
H	 0.1160536444	 1.8903852479	 1.0221711377	 0.145501
H	 0.0085829711	-2.7137226985	-0.4141182715	 0.159415
H	 0.0146650724	-0.2352329337	-4.4787855485	 0.144751
60.9201	131.0401	144.2593	198.1962	350.8811	350.9715	410.4254	486.3288	594.5864	624.9355	675.7156	803.0417	824.5789	955.6369	956.9976	1008.6709	1026.6303	1049.0864	1072.524	1129.8583	1157.5691	1260.0576	1315.877	1330.4667	1391.5742	1452.5665	1463.8016	1471.4503	1560.1911	1588.9298	1798.1039	3051.1993	3112.3772	3164.7434	3186.7973	3215.1269
CC(=O)C1=CN=NC=N1	CC(=O)c1cnncn1	
InChI=1S/C5H5N3O/c1-4(9)5-2-7-8-3-6-5/h2-3H,1H3	InChI=1S/C5H5N3O/c1-4(9)5-2-7-8-3-6-5/h2-3H,1H3
