18
gdb 76842	2.37056	1.68337	1.36092	4.1923	71.29	-0.2403	0.0267	0.2669	1011.717	0.147799	-439.089122	-439.080651	-439.079706	-439.12223	31.992	
C	-0.1713319268	 1.5831004044	 0.0634366294	-0.413617
C	 0.0128016822	 0.0722378811	 0.0239908591	-0.028932
C	 1.1122616949	-0.5278524667	-0.927571243	 0.092484
O	 2.0057386598	 0.3564983553	-1.5629442528	-0.427619
C	 1.7796091047	-1.2385242204	 0.2779230942	-0.0102
N	 2.773912839	-0.4340072567	 0.9845581052	-0.307698
C	 1.859947849	 0.1911203407	 1.8203048195	 0.427212
O	 1.9748989703	 1.0760043219	 2.6242439282	-0.364205
C	 0.6976820617	-0.6406650955	 1.2405299402	-0.2143
H	 0.7764665566	 2.103828117	 0.2167857978	 0.14356
H	-0.6105381622	 1.9442454842	-0.8739010045	 0.101762
H	-0.84490521	 1.8708171112	 0.8763833807	 0.129976
H	-0.9473296038	-0.4104579188	-0.1830688837	 0.078719
H	 0.6854770581	-1.2453498188	-1.6416687282	 0.070167
H	 1.5299027263	 0.8326717723	-2.2506698407	 0.29082
H	 2.0197655239	-2.2982752127	 0.1910341441	 0.084724
H	 3.6219852239	-0.0347391973	 0.6044056559	 0.253319
H	 0.0800688923	-1.221857011	 1.9218262486	 0.093827
66.0874	148.3765	198.1482	209.9612	242.567	254.6833	359.2637	454.7379	502.2587	552.8331	559.1663	662.0171	742.4467	764.3879	812.0273	857.7302	898.8859	910.3572	959.8719	1020.3221	1039.4705	1078.4019	1130.8079	1143.4518	1150.8637	1168.1605	1197.2057	1201.5813	1233.1693	1299.1141	1318.4787	1332.6956	1359.0439	1362.8806	1408.2509	1423.4663	1489.8149	1499.5236	1885.2266	3001.3216	3033.6237	3053.7014	3097.8596	3107.7042	3130.7107	3143.1553	3588.4954	3822.0876
CC1C(O)C2NC(=O)C12	C[C@H]1[C@@H](O)[C@H]2NC(=O)[C@@H]12	
InChI=1S/C6H9NO2/c1-2-3-4(5(2)8)7-6(3)9/h2-5,8H,1H3,(H,7,9)	InChI=1S/C6H9NO2/c1-2-3-4(5(2)8)7-6(3)9/h2-5,8H,1H3,(H,7,9)/t2-,3+,4+,5-/m1/s1
