19
gdb 47589	2.32608	1.77782	1.16731	3.8918	74.83	-0.2357	-0.0309	0.2048	1077.1052	0.161431	-423.034478	-423.026784	-423.02584	-423.067214	29.547	
O	 0.0423748438	-0.0572838543	-0.1850235405	-0.303934
C	-0.0336827142	 1.1471666102	-0.1188288151	 0.377464
C	-1.3479553312	 1.9012683828	-0.1154678573	-0.297715
C	-1.2952646688	 3.0665581189	-1.1234433857	-0.217288
C	-0.2156519353	 4.0751646511	-0.7140126445	-0.211329
C	 1.1939692376	 3.4552787469	-0.6375655318	-0.074143
C	 1.9457145691	 3.7757042436	 0.6708839115	-0.082572
O	 1.5488028106	 2.5048363174	 1.23886837	-0.295885
C	 1.2318530192	 2.0040000095	-0.0863862032	 0.055136
H	-2.1516435471	 1.193182615	-0.3298652315	 0.118813
H	-1.5102733358	 2.3070905121	 0.892381806	 0.129966
H	-1.0942024121	 2.6755674888	-2.1296334445	 0.107225
H	-2.2717322489	 3.5593153254	-1.1710553793	 0.107285
H	-0.2031412549	 4.925730309	-1.4033820637	 0.102756
H	-0.4877918865	 4.4786958231	 0.2691438654	 0.107269
H	 1.7460603215	 3.6051891359	-1.5677470564	 0.082182
H	 3.0372154749	 3.8388210208	 0.5644836833	 0.101501
H	 1.5870898052	 4.6242448343	 1.2633656493	 0.108039
H	 2.0579557729	 1.3977607395	-0.480513712	 0.08523
59.3088	108.4991	206.2184	277.398	353.9116	408.2466	428.5422	468.3812	555.8041	679.8574	729.1446	791.5114	825.9062	868.9644	905.85	916.9336	959.3502	988.1362	1003.9754	1034.7692	1042.0748	1100.0122	1113.2241	1141.3254	1171.2994	1202.3648	1244.408	1249.5314	1274.2102	1292.2393	1337.9061	1342.6137	1347.131	1356.8959	1372.1021	1387.1236	1462.0782	1490.0012	1496.7196	1523.0699	1815.5777	3008.0507	3020.6544	3023.652	3026.797	3030.6667	3068.4435	3070.9236	3076.2627	3092.097	3109.794
O=C1CCCC2COC12	O=C1CCC[C@H]2CO[C@@H]12	
InChI=1S/C7H10O2/c8-6-3-1-2-5-4-9-7(5)6/h5,7H,1-4H2	InChI=1S/C7H10O2/c8-6-3-1-2-5-4-9-7(5)6/h5,7H,1-4H2/t5-,7+/m0/s1
