19
gdb 75884	2.41392	1.56412	1.21437	3.3185	70.56	-0.2743	0.0024	0.2767	1088.5729	0.158349	-460.214741	-460.205735	-460.204791	-460.247896	34.21	
C	 0.2142071939	 1.4840487045	 0.0417430594	-0.429799
C	-0.0391173286	-0.0313771759	 0.0056931	 0.219438
C	-1.5360677555	-0.3341897114	-0.0765632839	-0.453746
C	 0.7531908221	-0.689127266	-1.1491406402	-0.11052
O	 2.1037124796	-0.8793149734	-0.6603656827	-0.218389
C	 2.0977953686	-0.8496128862	 0.6872142892	 0.407297
O	 3.0832138058	-0.8826326168	 1.3715735462	-0.361683
C	 0.6638162562	-0.728462285	 1.1900167139	-0.011051
O	 0.5985268266	-0.0684070235	 2.4218668881	-0.437063
H	 1.2834357458	 1.7177465079	 0.0144213848	 0.129589
H	-0.2589676401	 1.9685695171	-0.8181458814	 0.113103
H	-0.1958228747	 1.9159417261	 0.9567879004	 0.141402
H	-1.9755058816	 0.0899329302	-0.9860721901	 0.118303
H	-1.7266146457	-1.4126921632	-0.0797583936	 0.115593
H	-2.0612168692	 0.0989890001	 0.7799812896	 0.138467
H	 0.3428795391	-1.6678976939	-1.4235225592	 0.115997
H	 0.8159311613	-0.0660750994	-2.0436055277	 0.129073
H	 0.2650396841	-1.7563388698	 1.2760918546	 0.095395
H	 1.4839502025	-0.1364536713	 2.8085237824	 0.298595
97.798	183.6406	204.4443	225.6364	253.7788	261.1636	299.4059	338.9517	380.4479	385.4753	510.2568	546.3693	560.2716	651.5529	720.9949	805.6958	894.6385	911.5785	947.1593	962.9815	1006.2884	1031.7082	1047.9104	1138.7336	1179.5318	1194.5048	1225.1941	1242.4084	1259.8866	1309.1812	1368.056	1396.9629	1404.9994	1413.7253	1434.9647	1483.2781	1488.501	1504.5819	1507.8205	1517.6376	1871.6945	2934.5242	3030.2143	3039.6255	3042.9545	3096.8105	3104.9318	3109.9277	3113.7615	3134.5683	3730.0522
CC1(C)COC(=O)C1O	CC1(C)COC(=O)[C@H]1O	
InChI=1S/C6H10O3/c1-6(2)3-9-5(8)4(6)7/h4,7H,3H2,1-2H3	InChI=1S/C6H10O3/c1-6(2)3-9-5(8)4(6)7/h4,7H,3H2,1-2H3/t4-/m1/s1
