17
gdb 6731	5.5713	0.80962	0.72747	3.1693	74.	-0.2386	0.0297	0.2682	1551.4232	0.139901	-363.876143	-363.86615	-363.865205	-363.914812	33.42	
C	 0.5382351026	 1.0835149524	 0.4368125661	-0.362674
C	-0.4892172385	 0.3921112842	-0.4783033659	-0.315226
C	 0.1302586121	-0.2993075452	-1.6038017517	 0.104881
C	 0.6773850271	-0.8653138545	-2.5137184634	 0.073082
C	 1.3217183312	-1.5521446652	-3.6201205721	-0.492409
C	 2.5257166249	-2.4200540599	-3.1976833522	 0.42435
N	 2.8898559449	-3.3368439608	-4.146084741	-0.526767
O	 3.1281070736	-2.2759471258	-2.1586083591	-0.335894
H	 1.2458001823	 0.3555797897	 0.8418152228	 0.137846
H	 1.1089281567	 1.8330411003	-0.117984427	 0.127181
H	 0.033068756	 1.5802609873	 1.2707333634	 0.109938
H	-1.0792109578	-0.3235230179	 0.1087840251	 0.126957
H	-1.2051339527	 1.1347281011	-0.8540982807	 0.124443
H	 0.5964023837	-2.1733822265	-4.1624869513	 0.129408
H	 1.6988388003	-0.8264118894	-4.3547692077	 0.155374
H	 2.3029465426	-3.5570131209	-4.9314737883	 0.257273
H	 3.640355601	-3.9689146489	-3.919727977	 0.262236
7.041	16.0187	69.9766	143.5386	186.2769	199.874	266.7197	324.58	370.1516	411.3988	491.5705	524.3325	602.5257	649.9308	779.6009	786.4728	825.178	949.4306	970.4106	1080.1248	1088.5154	1105.3131	1172.9423	1221.6076	1273.1611	1285.5139	1349.9872	1375.2663	1408.8691	1450.3706	1476.1222	1493.7462	1505.7217	1618.1485	1820.0296	2378.7035	3007.7797	3017.0422	3037.1075	3043.5581	3044.3489	3117.085	3126.8817	3601.3959	3735.1729
CCC#CCC(N)=O	CCC#CCC(=O)N	
InChI=1S/C6H9NO/c1-2-3-4-5-6(7)8/h2,5H2,1H3,(H2,7,8)	InChI=1S/C6H9NO/c1-2-3-4-5-6(7)8/h2,5H2,1H3,(H2,7,8)
