19
gdb 79797	2.47664	1.78168	1.34756	1.8872	82.93	-0.2161	-0.036	0.1801	1020.6321	0.158813	-385.793719	-385.785798	-385.784854	-385.825558	31.887	
C	 0.0157322811	 1.7526633986	-0.4600414727	-0.513474
C	 0.1055739957	 0.2798813013	-0.1927082016	 0.289827
C	-0.0238592404	-0.8701286605	-1.1286395213	-0.099828
C	 1.3160785887	-1.6261992237	-1.1317354529	-0.269285
C	 1.7031570933	-1.4247474138	 0.3274660003	-0.086356
C	 0.9454414749	-0.4541962003	 0.883473017	-0.075651
C	-0.3219683398	-1.0011685159	 1.5849523798	 0.106815
O	-0.9847409711	-0.2769444013	 2.5816224245	-0.421834
C	-0.9397108063	-0.7526515069	 0.1494051282	-0.15116
H	 0.945415858	 2.1354927406	-0.8966369928	 0.126916
H	-0.7966112305	 1.9719818058	-1.1609100072	 0.121617
H	-0.1702997358	 2.3258018222	 0.4562195008	 0.111127
H	-0.5789153761	-0.7542846283	-2.0593882678	 0.076512
H	 1.2364582705	-2.701629001	-1.3331151214	 0.110581
H	 1.9886134831	-1.2091957178	-1.8947856565	 0.110532
H	 2.0883247399	-2.259525339	 0.9077482913	 0.10026
H	-0.2557709479	-2.0260390866	 1.9589682695	 0.091221
H	-1.0153216096	 0.647916301	 2.3112337524	 0.28129
H	-2.0152513577	-0.6620207044	 0.0056690704	 0.09089
148.0757	199.1528	216.4218	242.9302	288.0222	358.9909	408.9776	425.8009	490.0797	579.832	688.1724	717.5221	755.039	799.3692	819.8384	864.6333	895.1168	918.5184	929.2521	962.7866	972.0109	999.6553	1020.0085	1059.8573	1096.4123	1125.186	1171.0574	1174.174	1193.8835	1211.2699	1255.2495	1275.8423	1295.7475	1300.6036	1413.4206	1433.1096	1445.1951	1475.8248	1484.3097	1499.3339	1572.0487	3003.1935	3019.5647	3049.3397	3075.877	3083.7768	3094.9162	3116.1304	3127.9582	3158.1802	3799.1046
CC12C3CC=C1C(O)C23	C[C@@]12[C@H]3C[CH][C]1[C@@H](O)[C@@H]23	
InChI=1S/C8H10O/c1-8-4-2-3-5(8)7(9)6(4)8/h3-4,6-7,9H,2H2,1H3	InChI=1S/C8H10O/c1-8-4-2-3-5(8)7(9)6(4)8/h3-4,6-7,9H,2H2,1H3/t4-,6-,7+,8+/m0/s1
