21
gdb 69081	2.45363	1.54934	1.16572	0.9315	89.44	-0.232	0.053	0.2849	1147.4662	0.182491	-349.938176	-349.929348	-349.928404	-349.970948	35.243	
C	-0.1421777648	 1.5461853131	 0.0732238632	-0.476822
C	 0.1067706818	 0.0611300641	-0.0201315779	 0.303285
C	-0.6837723871	-0.8855436958	 0.8419321778	-0.374796
C	 0.8123252167	-0.7262722372	 1.0961800524	 0.166195
C	 1.7220550754	-1.7672980409	 0.4386855554	-0.27588
C	 1.2083838115	-1.88884327	-1.0120368252	-0.240838
C	 0.6118905581	-0.5039788222	-1.3443912628	-0.259879
C	 1.2511726674	-0.1049012799	 2.3085741871	 0.180263
C	 1.6405613231	 0.4108035048	 3.3246143752	-0.408042
H	 0.7343234198	 2.1135558572	-0.2600766718	 0.1165
H	-0.9895166975	 1.8413560535	-0.556533582	 0.115019
H	-0.3626727318	 1.8479808072	 1.100834676	 0.127116
H	-1.3405287439	-0.4429301224	 1.582446711	 0.119179
H	-1.0410341687	-1.8271339609	 0.4371373312	 0.110299
H	 2.7509374828	-1.3913409669	 0.4576472341	 0.109398
H	 1.7170256588	-2.7248633993	 0.9692273116	 0.103548
H	 2.000051766	-2.1790213342	-1.7074023367	 0.100756
H	 0.4364124797	-2.6616604228	-1.0787443967	 0.106275
H	-0.175083173	-0.5603116695	-2.1053011421	 0.097488
H	 1.3888111417	 0.1646864462	-1.7363926736	 0.099147
H	 1.9783479943	 0.8625945559	 4.2237490836	 0.18179
128.1822	138.3171	193.1338	215.3331	247.6274	314.6569	370.3041	408.5929	478.9805	531.8533	552.7557	574.5066	586.6351	641.9503	667.1011	703.4403	797.3783	888.2189	899.4484	916.4222	936.8619	950.1055	974.4433	1025.911	1055.1252	1068.9507	1093.2738	1115.8584	1186.771	1211.8038	1241.8731	1260.2742	1272.4591	1311.7334	1340.0108	1359.0542	1387.8785	1419.9971	1481.5703	1486.8008	1490.9301	1494.8546	1501.197	1518.08	2229.1222	3022.0178	3026.995	3041.705	3050.6694	3065.7504	3080.8485	3084.0083	3101.9231	3110.7423	3129.0401	3216.4925	3504.4989
CC12CC1(CCC2)C#C	C[C@]12C[C@]1(CCC2)C#C	
InChI=1S/C9H12/c1-3-9-6-4-5-8(9,2)7-9/h1H,4-7H2,2H3	InChI=1S/C9H12/c1-3-9-6-4-5-8(9,2)7-9/h1H,4-7H2,2H3/t8-,9+/m0/s1
