24
gdb 101574	2.64498	0.83595	0.73944	3.2941	87.56	-0.2392	0.0375	0.2767	1719.5375	0.215151	-405.603506	-405.591845	-405.590901	-405.642223	41.055	
C	 0.0385267653	 1.5237472453	-0.1106216498	-0.381082
C	-0.0264689121	-0.0041804529	-0.0611675355	-0.173152
C	 0.6534173151	-0.6996760307	-1.2518508474	 0.050418
C	 0.6923789912	-2.2232273451	-1.0773776995	-0.394166
N	 0.0024012134	-0.3370998215	-2.5079478212	-0.319237
C	 0.6756861674	 0.1246664753	-3.6029571458	 0.423867
O	 1.8833509751	 0.2939995839	-3.6163358086	-0.380727
C	-0.2065092748	 0.4553620435	-4.8078254327	-0.299725
C	 0.5247729892	 0.2304731088	-6.1321061957	-0.365882
H	 1.0760810314	 1.873891388	-0.1106601867	 0.124967
H	-0.4394376427	 1.9114249494	-1.0151600998	 0.116306
H	-0.4655160946	 1.9671729986	 0.7534337046	 0.111409
H	 0.4490591594	-0.3658564567	 0.8583735965	 0.10097
H	-1.07440103	-0.3339348002	-0.0058183767	 0.084903
H	 1.6771710056	-0.3275504988	-1.3528769434	 0.121988
H	 1.1981599453	-2.6950842827	-1.9240002071	 0.128021
H	 1.2273569041	-2.4955555819	-0.1619903439	 0.11729
H	-0.3201648318	-2.6390535857	-1.0085817271	 0.105038
H	-0.987790881	-0.5071983461	-2.5906533639	 0.23531
H	-1.14090913	-0.1173065903	-4.770485496	 0.093073
H	-0.489112443	 1.51236017	-4.7145059449	 0.128115
H	 1.4824772565	 0.7544207293	-6.1201910516	 0.146166
H	 0.7302422695	-0.8321599618	-6.2939842262	 0.119314
H	-0.0711992286	 0.5942168522	-6.9737714275	 0.106812
24.3319	36.3616	67.1793	111.3763	157.5552	199.0045	218.3993	228.5905	252.8626	287.3559	345.9295	412.1577	450.3538	461.4005	500.8615	595.5932	695.7824	781.2531	807.836	832.7451	908.1669	931.9252	984.757	1005.2703	1021.5172	1046.0575	1090.1129	1095.8264	1127.5407	1179.9275	1185.0526	1223.2275	1287.3091	1295.3137	1334.3622	1360.341	1385.9059	1391.5804	1406.0194	1408.8858	1413.5489	1465.8213	1480.6075	1490.7416	1492.857	1496.0255	1498.3479	1505.9948	1507.1294	1534.217	1771.5583	3003.8869	3023.1595	3028.0183	3038.7628	3047.0498	3053.0041	3059.2094	3080.2357	3100.8258	3106.6331	3111.8328	3112.758	3118.3334	3139.2992	3624.4692
CCC(C)NC(=O)CC	CC[C@@H](C)NC(=O)CC	
InChI=1S/C7H15NO/c1-4-6(3)8-7(9)5-2/h6H,4-5H2,1-3H3,(H,8,9)	InChI=1S/C7H15NO/c1-4-6(3)8-7(9)5-2/h6H,4-5H2,1-3H3,(H,8,9)/t6-/m1/s1
