19
gdb 75156	2.81357	1.14541	1.08059	2.9687	77.91	-0.2414	-0.0273	0.2141	1230.7749	0.156882	-423.054055	-423.044694	-423.04375	-423.088678	34.55	
C	-0.0915124497	 1.4256431389	 0.0596965736	-0.496695
C	 0.0263416419	-0.0620597674	-0.0378736095	 0.320606
C	 0.1092325494	-0.8040052107	-1.1457248401	-0.182839
C	 0.147361206	-2.2835051648	-0.8484990142	-0.303806
C	 0.4942226051	-2.3204852839	 0.6728546345	 0.286004
O	 1.8908080647	-2.493414793	 0.8758808201	-0.482675
C	 0.0039042008	-0.9445080353	 1.1945292006	-0.345051
C	-0.1593961446	-3.4977417409	 1.3793792779	 0.13351
O	-1.3456324022	-3.5993483818	 1.5579690013	-0.265605
H	 0.7212568125	 1.8510201441	 0.6619675581	 0.125683
H	-0.0705896671	 1.8983568197	-0.9258938631	 0.125663
H	-1.0268581848	 1.7144124129	 0.5558866612	 0.132258
H	 0.0972818754	-0.4119821177	-2.1572838318	 0.090893
H	-0.8267938557	-2.7510226527	-1.0421729712	 0.129206
H	 0.8978474267	-2.8446627066	-1.415629624	 0.111526
H	 2.3431307697	-1.7914067424	 0.3956410545	 0.285129
H	 0.6516006955	-0.5944800419	 2.0062140491	 0.108605
H	-1.0141033325	-1.02687609	 1.5965719183	 0.132097
H	 0.5621676589	-4.2745805363	 1.7132167646	 0.095491
40.8514	79.9291	177.603	219.5302	226.6088	263.1983	325.6177	329.3286	370.2066	436.2192	463.8096	526.419	610.595	700.3042	781.5455	825.4179	872.7352	887.7205	930.579	954.4606	989.0298	1030.9062	1037.1237	1067.0995	1111.3929	1121.9871	1184.8659	1194.2017	1232.9249	1281.6084	1296.2756	1332.5454	1375.0832	1411.2475	1415.1152	1467.7787	1477.6259	1478.8963	1488.9294	1717.7187	1834.0453	2906.3687	3017.8681	3025.0128	3028.1279	3064.154	3071.223	3071.5907	3111.9174	3187.4425	3810.5524
CC1=CCC(O)(C1)C=O	CC1=CC[C@@](O)(C1)C=O	
InChI=1S/C7H10O2/c1-6-2-3-7(9,4-6)5-8/h2,5,9H,3-4H2,1H3	InChI=1S/C7H10O2/c1-6-2-3-7(9,4-6)5-8/h2,5,9H,3-4H2,1H3/t7-/m1/s1
