19
gdb 119024	1.81356	1.35618	0.89458	1.6846	77.54	-0.2585	0.0496	0.3081	1357.1538	0.155562	-422.955516	-422.945428	-422.944484	-422.991484	35.793	
C	-3.3929881689	 0.2182418557	 1.5281095493	-0.223702
O	-2.7646360058	-0.9816046684	 1.1397055611	-0.24187
C	-1.9882081893	-0.841541613	-0.0312273501	-0.129327
C	-1.2658912382	-2.1496504651	-0.26999331	 0.398594
C	-0.3005427104	-2.5876173499	 0.827070815	-0.421523
C	 0.781894305	-1.6350058627	 1.0524728043	 0.312398
C	 1.6661322741	-0.8416912861	 1.2339167152	-0.454483
C	-1.8783663719	-3.1621542278	-1.1380717052	-0.228034
O	-0.8115580401	-2.3307125874	-1.6103309907	-0.275307
H	-3.9582755491	 0.0104709354	 2.4396376385	 0.128743
H	-2.6596730207	 1.0128434012	 1.7352092294	 0.11124
H	-4.086718131	 0.583614879	 0.7547027626	 0.106054
H	-2.6150507347	-0.6060649334	-0.9053008279	 0.094759
H	-1.2519015922	-0.0301172898	 0.0836860901	 0.109046
H	-0.8763554477	-2.7157950197	 1.7512616479	 0.151306
H	 0.1157876214	-3.5652197447	 0.560863071	 0.133153
H	 2.4555595506	-0.1499713911	 1.3939057373	 0.197103
H	-1.6248124686	-4.2127569712	-1.00453114	 0.114775
H	-2.8540114224	-2.9721504911	-1.5823208479	 0.117075
39.1094	85.1031	93.1358	141.2714	170.962	225.8671	308.6609	333.8441	351.1039	363.9848	423.6776	447.5975	571.5536	616.4987	644.9556	773.256	860.6272	903.1852	930.8883	964.6838	982.7607	1006.5456	1071.3055	1128.5366	1156.2147	1160.5267	1183.6517	1213.466	1233.3952	1236.172	1295.3078	1322.3383	1402.3225	1442.5845	1451.0887	1481.2198	1486.0409	1501.8788	1521.0097	1534.122	2239.5098	2969.8	2980.4191	3011.5737	3021.3551	3038.7069	3079.9182	3085.686	3116.6839	3172.8619	3506.9188
COCC1(CC#C)CO1	COC[C@@]1(CC#C)CO1	
InChI=1S/C7H10O2/c1-3-4-7(5-8-2)6-9-7/h1H,4-6H2,2H3	InChI=1S/C7H10O2/c1-3-4-7(5-8-2)6-9-7/h1H,4-6H2,2H3/t7-/m0/s1
