19
gdb 99320	4.04116	0.72969	0.65271	3.73	73.27	-0.2634	-0.0274	0.2361	1705.2921	0.156079	-460.144879	-460.135068	-460.134124	-460.18153	34.619	
O	-0.1699489241	 1.1428692954	-0.4162585311	-0.424809
C	-1.0216168894	 0.0417370649	-0.5235313208	-0.126127
C	-0.8725010768	-0.8796484598	 0.6728910918	 0.323352
O	-0.0859247269	-0.6080260969	 1.5548151168	-0.324033
C	-1.7221471813	-2.1359324721	 0.7463522524	-0.161375
O	-2.5319115201	-2.2415387705	-0.4019500684	-0.251665
C	-3.3612004147	-3.3657756951	-0.3946605234	 0.148964
C	-4.6757552428	-3.3012508371	 0.3396555317	-0.2886
C	-4.6271944549	-3.2601839392	-1.1761322779	-0.287262
H	 0.304001255	 1.0178580367	 0.4215340561	 0.293352
H	-2.0786687759	 0.3442192987	-0.5921641811	 0.124181
H	-0.823533865	-0.5454076387	-1.4341008867	 0.128429
H	-1.0451659544	-2.9992862572	 0.8497992932	 0.128717
H	-2.3244660265	-2.0911154744	 1.6670957365	 0.13127
H	-2.8205618015	-4.3127516121	-0.3990717589	 0.091512
H	-5.0438820868	-4.1948251319	 0.8311673505	 0.119794
H	-4.9106460283	-2.371915513	 0.8466971977	 0.123005
H	-4.8234632278	-2.3052611943	-1.6497352778	 0.130392
H	-4.9604332479	-4.1253239634	-1.7374450508	 0.120904
25.1411	54.5817	109.0606	118.8664	139.2854	235.4884	317.6683	367.4084	394.1651	435.2134	489.4126	500.6451	644.0651	757.9422	817.878	822.1755	840.4543	847.1961	974.0717	985.8673	1052.1216	1073.9228	1075.6204	1114.0656	1125.3244	1129.767	1177.5819	1193.5152	1209.2371	1224.4891	1246.206	1252.6898	1313.9335	1358.6077	1411.7493	1450.2247	1454.3592	1477.0267	1479.7468	1500.335	1800.1818	2979.7632	2990.623	3005.3675	3012.9576	3097.2888	3137.5346	3145.4666	3222.2553	3237.6704	3684.7102
OCC(=O)COC1CC1	OCC(=O)COC1CC1	
InChI=1S/C6H10O3/c7-3-5(8)4-9-6-1-2-6/h6-7H,1-4H2	InChI=1S/C6H10O3/c7-3-5(8)4-9-6-1-2-6/h6-7H,1-4H2
