21
gdb 33232	5.9263	0.68065	0.61889	1.3301	86.87	-0.1696	0.058	0.2276	1828.0646	0.183832	-383.300429	-383.290892	-383.289948	-383.335418	35.413	
C	 0.037432771	 1.5411085828	-0.0396738196	-0.37926
C	-0.0448511239	 0.0150337493	 0.0415421712	-0.192341
C	 0.7431756645	-0.5572635891	 1.2187606983	-0.102136
N	 0.6076567276	-2.0020567629	 1.290516375	-0.404171
C	 1.3304631352	-2.6724604579	 2.2865630346	 0.31654
C	 1.946262444	-2.1229643012	 3.3948172434	-0.173762
N	 2.4789111348	-3.1649026457	 4.1313190639	-0.247056
C	 2.2263631458	-4.3521152444	 3.506784307	-0.062104
C	 1.5125556758	-4.0870985723	 2.3610396369	-0.261609
H	 1.0737605436	 1.8791021036	-0.1491994818	 0.115764
H	-0.5290242626	 1.9235522821	-0.8939471303	 0.113968
H	-0.3691164807	 2.0074801991	 0.8643928928	 0.116537
H	-1.0897483164	-0.3046790525	 0.1289548532	 0.108784
H	 0.3359429301	-0.4219790111	-0.8922907416	 0.091202
H	 1.8007739125	-0.2390689395	 1.1516075492	 0.080307
H	 0.3546728763	-0.1342721481	 2.1553620081	 0.103552
H	 0.7221809375	-2.4377299952	 0.3844267232	 0.221427
H	 2.0459576367	-1.1021820134	 3.7209459769	 0.10449
H	 2.9845691336	-3.058140323	 4.9913886543	 0.256156
H	 2.5664403359	-5.2866199036	 3.9233442867	 0.112418
H	 1.1488376687	-4.816216537	 1.6528536886	 0.081295
57.6065	79.6428	103.5352	142.0866	240.0629	281.5623	303.2688	332.3772	382.2475	469.2941	606.0179	615.9189	629.0839	681.3025	736.6506	754.0498	765.4414	800.5576	899.7364	902.2226	917.6431	984.3728	1045.8871	1079.5693	1086.2558	1115.2921	1147.9222	1167.2158	1175.0026	1256.3899	1279.0602	1311.2608	1316.5434	1335.2562	1391.0161	1411.4533	1424.2619	1477.7893	1491.7617	1492.0837	1500.7248	1506.9337	1526.5323	1541.4214	1630.6134	2921.8062	3008.8395	3022.9926	3032.5487	3061.3122	3098.9518	3106.0634	3240.4833	3267.0882	3280.3561	3556.2632	3701.1894
CCCNC1=CNC=C1	CCCNc1c[nH]cc1	
InChI=1S/C7H12N2/c1-2-4-9-7-3-5-8-6-7/h3,5-6,8-9H,2,4H2,1H3	InChI=1S/C7H12N2/c1-2-4-9-7-3-5-8-6-7/h3,5-6,8-9H,2,4H2,1H3
