23
gdb 114315	2.18087	1.2334	1.08891	1.2687	85.72	-0.2366	0.0785	0.3151	1310.6391	0.204352	-388.264389	-388.25433	-388.253386	-388.299016	38.05	
C	-0.3166440807	 1.8215594628	-0.1503720777	-0.377312
C	-0.1612006389	 0.3076300504	 0.0326264479	-0.213838
C	-1.4642014767	-0.452913443	-0.2060969279	-0.00786
C	-2.0910891507	-0.5946598353	-1.6387946568	-0.265153
C	-2.2637696427	-2.1013245501	-1.4014534449	-0.136456
C	-0.9291970851	-2.781238536	-1.1765446626	-0.06129
C	 0.3489318868	-2.5265307934	-1.9507090615	-0.422048
C	-1.54115619	-1.978989196	-0.0567261212	 0.336886
O	-1.8947873808	-2.5774215806	 1.1468853388	-0.463191
H	 0.6258082626	 2.346414401	 0.0348164009	 0.109496
H	-0.6393173726	 2.0671654212	-1.1681290095	 0.117129
H	-1.0657582613	 2.2272027214	 0.5388920873	 0.114018
H	 0.6267186845	-0.0616544182	-0.6326675953	 0.095274
H	 0.1813723477	 0.0984826768	 1.055374125	 0.091079
H	-2.2340029025	-0.0374982896	 0.4554855385	 0.07946
H	-3.0363605401	-0.0595119181	-1.7470486523	 0.102851
H	-1.4436453546	-0.3155768528	-2.4764616282	 0.093955
H	-3.1526771578	-2.6703511553	-1.6456519326	 0.088036
H	-1.0871548317	-3.8391182426	-0.9656436054	 0.085491
H	 0.4367421363	-1.4947676805	-2.2970122149	 0.123996
H	 1.2348820803	-2.7480104874	-1.3446309813	 0.111255
H	 0.3875277224	-3.1698299458	-2.837143726	 0.11455
H	-1.0997557445	-2.9403969386	 1.5504591195	 0.283671
75.5851	123.0411	154.6579	176.7597	205.8739	239.8215	249.1846	277.0261	302.7792	361.2304	443.5717	502.3822	557.897	626.3573	720.6808	750.5731	772.6912	825.8863	897.9024	916.9185	958.8779	962.8284	990.3622	1015.6633	1040.7992	1077.7718	1108.7905	1118.6634	1133.2746	1152.8536	1172.5813	1212.0819	1232.0153	1247.7382	1283.6585	1299.7425	1325.2485	1334.0061	1344.6389	1399.5584	1411.226	1413.1589	1462.4251	1482.695	1497.4755	1499.0898	1500.9066	1506.8599	1508.6531	3016.1392	3028.0249	3028.9177	3031.1431	3051.2304	3064.8813	3082.8557	3096.8597	3100.6973	3104.5108	3108.0481	3123.1798	3183.9113	3805.3988
CCC1CC2C(C)C12O	CC[C@H]1C[C@H]2[C@@H](C)[C@@]12O	
InChI=1S/C8H14O/c1-3-6-4-7-5(2)8(6,7)9/h5-7,9H,3-4H2,1-2H3	InChI=1S/C8H14O/c1-3-6-4-7-5(2)8(6,7)9/h5-7,9H,3-4H2,1-2H3/t5-,6+,7+,8-/m1/s1
