15
gdb 30452	2.90952	1.45427	0.9755	1.8327	74.93	-0.2217	-0.0389	0.1828	1147.9023	0.113161	-453.989417	-453.981375	-453.980431	-454.022867	29.072	
C	 0.0167855751	 1.4577604804	 0.0718018248	-0.324183
N	 0.0040624603	 0.0071817893	 0.0023967825	-0.315709
C	 0.5505192199	-0.6722707648	 0.9116394876	 0.409502
O	 1.1809350333	-0.0066409503	 2.0082440386	-0.240777
C	 1.7589922202	-0.7217095186	 2.9698057604	 0.508373
O	 2.2814341735	 0.0867713542	 3.8874196846	-0.37584
N	 1.8390258947	-2.0000707828	 3.0642199297	-0.414981
C	 1.2437613505	-2.7009629831	 2.0265046	-0.006577
C	 0.6219639918	-2.1109074504	 0.9859994104	-0.184387
H	 1.0384388592	 1.8600156172	 0.083408378	 0.125339
H	-0.5019198596	 1.8592479639	-0.8014225219	 0.122888
H	-0.4848598767	 1.8305786232	 0.9746256875	 0.125355
H	 2.6831103687	-0.4894001412	 4.5532760024	 0.321396
H	 1.3113743237	-3.7806208493	 2.1061999259	 0.123642
H	 0.1619419357	-2.6695194977	 0.1833993095	 0.125961
45.2896	118.8306	173.7516	187.185	253.1884	401.458	453.2293	479.0869	567.8978	568.9556	596.8741	713.5699	746.8788	773.1524	830.0615	898.3703	992.93	995.6423	1027.5731	1092.8397	1108.858	1139.7917	1186.6807	1224.8065	1320.7671	1430.3409	1440.4301	1462.5073	1485.4284	1499.8112	1614.9234	1676.9802	1779.7981	3004.4853	3054.9804	3111.4986	3190.9867	3242.6658	3779.4036
CN=C1OC(O)=NC=C1	C[N]C1=CCN=C(O1)O	
InChI=1S/C5H6N2O2/c1-6-4-2-3-7-5(8)9-4/h2-3H,1H3,(H,7,8)	InChI=1S/C5H7N2O2/c1-6-4-2-3-7-5(8)9-4/h2H,3H2,1H3,(H,7,8)
