16
gdb 29531	3.06725	1.61325	1.07466	1.1221	71.87	-0.1849	0.0296	0.2145	1071.3782	0.12656	-437.886489	-437.878842	-437.877898	-437.918679	28.997	
N	 0.0315015881	 1.445946938	-0.0753692467	-0.614498
C	 0.0310168985	 0.0455285746	-0.0372675876	 0.060611
C	-1.0218160602	-0.8267025497	-0.1818867783	-0.093766
O	-0.607290153	-2.144510218	-0.1708359747	-0.203019
C	 0.7345775032	-2.0869145058	-0.0213997278	 0.233367
C	 1.1661731999	-0.8160085438	 0.068097319	 0.28295
O	 2.5050994231	-0.6753361907	 0.2967310876	-0.301981
C	 3.0308929874	-2.0336036223	 0.1685280172	-0.091284
C	 1.839338251	-3.0590266192	 0.2117488425	-0.372875
H	 0.7649251977	 1.8444069101	 0.496580622	 0.252883
H	-0.8577378943	 1.8497190317	 0.1883232006	 0.244875
H	-2.076572205	-0.6707505182	-0.3325319475	 0.120255
H	 3.5481036305	-2.0950859517	-0.7947816837	 0.12045
H	 3.7547642751	-2.1818230374	 0.9718317879	 0.120685
H	 1.7666341	-3.5723008281	 1.1802076439	 0.119096
H	 1.961186338	-3.8274294395	-0.5586466144	 0.12225
112.4	140.2354	196.7752	251.1075	253.6543	391.403	502.0157	588.7415	610.6838	616.0909	633.0292	681.5516	752.6169	758.6688	796.9906	841.876	925.7059	963.2754	1058.5691	1075.5286	1095.1826	1130.1275	1185.7038	1234.0016	1245.4729	1269.3229	1297.0835	1384.9594	1391.1112	1493.7505	1507.0177	1517.5248	1606.2782	1653.7983	1708.892	3007.0818	3044.5756	3063.8217	3117.9616	3279.3192	3539.2332	3630.1933
NC1=COC2=C1OCC2	Nc1coc2c1OCC2	
InChI=1S/C6H7NO2/c7-4-3-9-5-1-2-8-6(4)5/h3H,1-2,7H2	InChI=1S/C6H7NO2/c7-4-3-9-5-1-2-8-6(4)5/h3H,1-2,7H2
