17
gdb 65911	2.4448	1.40948	1.24339	2.0966	69.4	-0.2431	-0.0932	0.1499	1090.3808	0.132734	-458.959657	-458.950387	-458.949443	-458.994355	32.498	
C	-0.4961082089	 1.5490305634	-0.0258426448	-0.473722
C	-0.0437223936	 0.0996519887	-0.087996704	 0.335878
C	 0.9282929051	-0.3112885968	-1.2156612111	-0.330754
C	 1.8761541472	-0.7105304522	-0.0695668031	-0.068241
O	 0.9435961343	-0.2335240018	 0.933244102	-0.322059
C	-1.19039365	-0.8913839887	 0.1058653467	 0.255331
O	-1.5804275687	-1.6638982472	-0.7379117115	-0.288985
C	-1.8717236444	-0.961274728	 1.485374252	 0.101099
O	-1.8468453966	-0.0908726757	 2.312698566	-0.212645
H	 0.3687207517	 2.207445504	-0.1480967131	 0.126248
H	-1.2093872007	 1.7596383782	-0.83069255	 0.127701
H	-0.9704707885	 1.7599206387	 0.9339932182	 0.163416
H	 0.567392034	-1.1165682355	-1.8545780922	 0.135896
H	 1.2708638027	 0.5235418874	-1.8281797866	 0.114013
H	 2.0684790726	-1.7844935335	 0.0345737915	 0.112828
H	 2.8268436583	-0.1701360327	-0.0157806892	 0.114216
H	-2.4560332245	-1.8992778882	 1.603388349	 0.109779
57.8891	93.1007	103.7887	164.7134	200.8281	227.7477	287.8113	334.8787	354.6797	487.2662	567.9365	601.1481	676.5976	774.4399	827.3251	872.9045	910.511	974.2852	995.1469	1006.0348	1015.859	1122.9751	1134.7251	1163.8103	1208.8152	1221.2027	1268.3357	1297.5917	1349.2859	1374.3909	1399.5658	1478.6254	1490.2551	1500.3488	1528.6195	1800.764	1826.6819	2912.616	3031.144	3039.1531	3076.5856	3092.6417	3109.3583	3147.031	3154.1163
CC1(CCO1)C(=O)C=O	C[C@]1(CCO1)C(=O)C=O	
InChI=1S/C6H8O3/c1-6(2-3-9-6)5(8)4-7/h4H,2-3H2,1H3	InChI=1S/C6H8O3/c1-6(2-3-9-6)5(8)4-7/h4H,2-3H2,1H3/t6-/m0/s1
