15
gdb 74063	2.75752	1.3022	0.9503	8.3986	75.89	-0.2419	-0.0321	0.2099	1181.5343	0.113602	-416.869479	-416.861159	-416.860215	-416.9029	30.528	
N	 0.0518678844	 1.3484947212	-0.1235709957	-0.574437
C	-0.0435083835	 0.0037644178	-0.0306632302	 0.406839
C	-1.1670373362	-0.7599008967	-0.0210077319	-0.329104
C	-0.8480124142	-2.1696760797	 0.0486171065	 0.404982
O	-1.5801596684	-3.1285891246	 0.0891599391	-0.344182
C	 0.7268840468	-2.2801762269	 0.0284229766	-0.265481
C	 1.2251062816	-0.8171181882	 0.0448520025	-0.336288
C	 1.2372471315	-3.084481053	 1.1286681763	 0.282133
N	 1.6536419386	-3.7001987733	 2.0139570767	-0.326656
H	 0.9320572846	 1.8053968056	 0.0425826836	 0.270087
H	-0.7724766048	 1.9215611798	-0.0565289521	 0.273349
H	-2.186010355	-0.3985714558	-0.0558162741	 0.105448
H	 0.9921751637	-2.7778699862	-0.9100753842	 0.149714
H	 1.8875697508	-0.5942534815	-0.7981922745	 0.135843
H	 1.7793509902	-0.5844836285	 0.9603861315	 0.147753
49.4307	144.6964	158.43	243.879	250.3111	331.7726	424.391	460.4139	487.5075	536.854	563.8512	595.1604	643.46	692.3767	812.7026	854.4718	893.3951	924.58	1024.8839	1065.969	1078.8983	1165.0135	1185.5673	1208.7282	1280.7869	1303.9569	1334.8756	1416.577	1479.9125	1637.6918	1683.8721	1817.8641	2358.0133	3047.3056	3063.4331	3087.0931	3224.2232	3608.7534	3724.5385
NC1=CC(=O)C(C1)C#N	NC1=CC(=O)[C@@H](C1)C#N	
InChI=1S/C6H6N2O/c7-3-4-1-5(8)2-6(4)9/h2,4H,1,8H2	InChI=1S/C6H6N2O/c7-3-4-1-5(8)2-6(4)9/h2,4H,1,8H2/t4-/m0/s1
