19
gdb 70096	2.47853	1.87872	1.33944	1.7688	80.77	-0.2348	0.0038	0.2385	1008.9901	0.159318	-385.87151	-385.863653	-385.862709	-385.903379	31.547	
C	-0.0915117091	 1.4844583303	-0.0239403359	-0.47759
C	 0.020296788	-0.0201355493	-0.0015854243	 0.234226
C	-0.5297260857	-0.8150853995	 1.1582061296	-0.321357
C	 0.971829694	-0.7786198355	 0.9113324607	-0.132993
C	 1.5023429802	-1.9089525162	 0.0968973146	-0.08978
C	 0.9763310195	-1.92451065	-1.1325789819	-0.165357
C	 0.0631875382	-0.7646153462	-1.3273069844	 0.384236
C	-1.0156201641	-0.710410402	-2.3250091623	-0.251592
O	 0.1986067709	 0.0098869588	-2.5355551771	-0.283954
H	 0.6898706988	 1.9286803618	-0.6462546435	 0.135885
H	-1.0582550698	 1.8067907793	-0.4277421504	 0.118658
H	-0.0041915633	 1.8931046942	 0.9872995614	 0.111125
H	-0.9151334561	-0.2437862851	 1.9975885865	 0.109497
H	-1.0465823415	-1.7507030551	 0.9698526134	 0.112088
H	 1.6081556706	-0.2732107977	 1.6297841148	 0.08963
H	 2.1952712457	-2.6428481102	 0.4921520931	 0.103014
H	 1.1528818404	-2.6621716692	-1.905388995	 0.102701
H	-1.1824524312	-1.5549908281	-2.9934842306	 0.110517
H	-1.8967360355	-0.1004363203	-2.1250337588	 0.111045
120.2695	189.2136	244.2221	247.3643	283.1022	385.4769	394.1	449.3812	539.4157	593.2552	631.9904	759.977	774.8617	802.7475	844.0135	859.7863	898.3942	915.5842	952.4591	968.0731	980.8289	1020.6584	1054.28	1065.3742	1075.7961	1116.4047	1125.4782	1130.1867	1162.6861	1180.1616	1258.0136	1308.323	1353.4083	1388.152	1415.2229	1422.793	1480.6038	1484.3631	1499.2237	1527.5255	1653.1492	3032.0955	3071.0191	3092.8792	3116.6244	3118.5836	3155.8897	3167.4931	3193.9795	3207.7968	3219.9435
CC12CC1C=CC21CO1	C[C@]12C[C@H]1C=C[C@]12CO1	
InChI=1S/C8H10O/c1-7-4-6(7)2-3-8(7)5-9-8/h2-3,6H,4-5H2,1H3	InChI=1S/C8H10O/c1-7-4-6(7)2-3-8(7)5-9-8/h2-3,6H,4-5H2,1H3/t6-,7+,8-/m1/s1
