16
gdb 96742	1.98299	1.3845	0.81951	5.1376	73.48	-0.241	-0.0397	0.2013	1329.5032	0.123162	-471.253114	-471.243595	-471.242651	-471.288582	32.332	
C	-0.1093792722	 1.494779657	-0.0231774644	-0.346793
N	-0.0744527063	 0.0474254024	-0.013639281	-0.264987
C	-1.1449459122	-0.6163163774	 0.0942870851	 0.507241
N	-1.1976910042	-2.0057390202	 0.1115226441	-0.393162
C	-0.1436259866	-2.900099892	 0.0182025499	 0.160031
O	 1.0257786572	-2.6500791983	-0.0957389544	-0.26343
N	-2.4338298846	-0.0173633596	 0.2120903274	-0.385435
C	-3.6691579214	-0.5945240175	 0.3338221654	 0.183887
O	-3.9100270524	-1.7846390865	 0.3669175414	-0.320717
H	 0.9103979164	 1.8723958899	-0.1239179053	 0.145562
H	-0.6889437466	 1.9035750648	-0.8668977086	 0.114918
H	-0.5195329056	 1.9193864123	 0.9075858541	 0.114928
H	-2.132830304	-2.3946481139	 0.2040589599	 0.285451
H	-0.542069153	-3.9339233848	 0.0649517328	 0.084163
H	-2.4212171771	 0.9906198226	 0.2020167512	 0.267504
H	-4.4644824773	 0.1689161011	 0.4023545824	 0.110838
48.8502	77.6201	118.9351	166.0916	195.5824	210.5345	257.4212	280.7458	322.8792	395.9567	533.4305	596.2809	719.8681	730.9304	749.2487	839.1035	888.2058	1026.4103	1028.5399	1070.8909	1106.5991	1125.0128	1158.3075	1221.8526	1275.6593	1436.3237	1441.3248	1453.4855	1472.5288	1514.4804	1521.4338	1585.47	1758.7943	1795.7395	1849.213	2927.7674	2958.449	2979.5793	3005.8283	3108.036	3471.9279	3636.7489
CN=C(NC=O)NC=O	CN=C(NC=O)NC=O	
InChI=1S/C4H7N3O2/c1-5-4(6-2-8)7-3-9/h2-3H,1H3,(H2,5,6,7,8,9)	InChI=1S/C4H7N3O2/c1-5-4(6-2-8)7-3-9/h2-3H,1H3,(H2,5,6,7,8,9)
