19
gdb 115470	3.7082	0.87649	0.73645	4.1673	81.66	-0.2453	-0.0517	0.1936	1506.153	0.158936	-423.050991	-423.04188	-423.040936	-423.085463	32.924	
O	-0.0519677655	 1.4494163535	 0.026406088	-0.422133
C	 0.0282206159	 0.0335110686	-0.0253864105	-0.090328
C	-1.3955022537	-0.5161885397	 0.0331325534	-0.013604
C	-1.4738458325	-2.0652978278	-0.0478042854	-0.25189
C	-2.6314000763	-2.4785624335	 0.8973466752	-0.314873
C	-2.7829011225	-1.2709950445	 1.795809616	 0.23169
C	-3.5915543998	-1.2615252807	 3.015707266	 0.069919
O	-4.2142704356	-2.2159511121	 3.4291215276	-0.273004
C	-2.1157162834	-0.2090439916	 1.3209492185	-0.146383
H	 0.8410750388	 1.805618264	 0.0392448235	 0.290594
H	 0.5132786561	-0.3085898736	-0.9535746164	 0.092411
H	 0.6098055063	-0.3679532003	 0.8201255546	 0.088914
H	-1.9458903864	-0.0487633921	-0.7973812542	 0.100306
H	-1.609585224	-2.4250017141	-1.0703150008	 0.105858
H	-0.5326526346	-2.4905411125	 0.3205092261	 0.105037
H	-3.564495854	-2.6620200066	 0.3498095956	 0.118677
H	-2.4243107534	-3.3927726424	 1.4604799336	 0.12302
H	-3.5968567226	-0.290915858	 3.5610542603	 0.065696
H	-2.0965020627	 0.7757981335	 1.7748785086	 0.120093
71.0176	101.7848	119.814	169.9852	217.4632	244.3944	261.377	387.988	426.0126	455.2983	532.5799	624.5537	722.6662	828.4272	868.7237	889.7471	900.6676	944.2537	969.1995	1030.6923	1039.2209	1072.9851	1086.6184	1112.5805	1158.2666	1184.8501	1239.2337	1245.129	1249.8993	1277.5811	1302.7538	1333.4883	1348.7875	1376.2859	1419.9804	1452.7343	1484.5341	1500.6446	1521.6166	1678.8351	1782.1804	2876.6099	2964.5556	2987.2848	3005.128	3032.6938	3039.1956	3087.5168	3103.3796	3201.8456	3831.5976
OCC1CCC(C=O)=C1	OC[C@H]1CCC(=C1)C=O	
InChI=1S/C7H10O2/c8-4-6-1-2-7(3-6)5-9/h3-4,7,9H,1-2,5H2	InChI=1S/C7H10O2/c8-4-6-1-2-7(3-6)5-9/h3-4,7,9H,1-2,5H2/t7-/m0/s1
