18
gdb 28155	4.89821	1.20883	0.98136	2.1964	87.49	-0.1741	0.014	0.1881	1202.7127	0.149842	-364.862185	-364.854428	-364.853484	-364.894234	30.371	
C	-0.0157910667	 1.4884930663	 0.0897690216	-0.50339
C	-0.0016166057	 0.0019831229	-0.0495045591	 0.334799
C	-0.0342561282	-0.7978396252	-1.1766054858	-0.439527
C	 0.003085543	-2.1485214162	-0.7276494735	 0.322213
C	 0.0564915801	-2.1270514169	 0.6490994614	 0.278067
C	 0.0984483263	-3.5063165785	 1.2262273774	-0.419395
C	 0.0605729133	-4.340266502	-0.0521887839	-0.091438
C	 0.0067895469	-3.5508627701	-1.1444630943	-0.197711
N	 0.0536025269	-0.82666506	 1.0642003505	-0.431084
H	 0.8884130647	 1.8715911105	 0.5807468255	 0.122893
H	-0.0723812238	 1.9506167816	-0.8984909633	 0.137444
H	-0.8766838018	 1.845893694	 0.669769794	 0.122536
H	-0.0793697663	-0.4298695446	-2.1908859159	 0.08755
H	 1.0049696221	-3.7118487836	 1.8121690262	 0.122513
H	-0.753751848	-3.7367312803	 1.8804556439	 0.122527
H	 0.0765422041	-5.42174177	-0.0391897554	 0.089364
H	-0.0282076164	-3.8991041163	-2.1694067264	 0.090116
H	 0.0857784597	-0.4996631115	 2.0144839467	 0.252523
107.107	131.836	244.7738	266.3261	272.0126	421.0134	468.6748	470.191	541.7533	634.1595	658.2067	720.2929	736.6387	766.6426	790.0499	875.1817	922.3287	927.7745	947.2611	987.2245	1012.3393	1060.7413	1075.4548	1129.2615	1151.4057	1167.5562	1219.5246	1258.4022	1322.8638	1383.6573	1413.0144	1436.4731	1458.2472	1479.6394	1488.6436	1513.1897	1523.7336	1580.7916	1626.9278	3009.8154	3015.7177	3041.1782	3051.0327	3120.9499	3203.286	3230.5426	3239.4613	3669.8903
CC1=CC2=C(CC=C2)N1	Cc1cc2c(CC=C2)[nH]1	
InChI=1S/C8H9N/c1-6-5-7-3-2-4-8(7)9-6/h2-3,5,9H,4H2,1H3	InChI=1S/C8H9N/c1-6-5-7-3-2-4-8(7)9-6/h2-3,5,9H,4H2,1H3
