20
gdb 78360	2.6499	1.36429	1.07893	2.361	79.68	-0.2306	0.0805	0.3111	1202.581	0.169533	-403.084839	-403.076047	-403.075103	-403.117885	33.72	
C	 0.3974612356	 1.6263690672	 0.4676024285	-0.416362
C	 0.2466739264	 0.1506026086	 0.1908162079	 0.015646
C	 0.9400222672	-0.4680205151	-0.9615039527	-0.158238
N	 1.456813106	-0.651233476	 0.4604503035	-0.159723
C	 1.0763474841	-2.1192536733	 0.3782796609	-0.031845
C	 0.2029447946	-2.6806676841	 1.4854074608	-0.414531
C	 0.5571951181	-1.9242667117	-1.0548334428	 0.444185
C	-0.4579581208	-2.6058230986	-1.8602783269	-0.271972
O	 0.9476546002	-2.7694101577	-2.1166474845	-0.280756
H	 1.3892501935	 1.9744392287	 0.1667074591	 0.130474
H	-0.3556906755	 2.2037965301	-0.0787350506	 0.117305
H	 0.2779487749	 1.8324490569	 1.5360735132	 0.125071
H	-0.7172829282	-0.268845329	 0.4761914296	 0.08239
H	 1.4902500726	 0.0916987323	-1.7109408288	 0.105909
H	 2.0157492547	-2.6791076863	 0.3259186276	 0.104483
H	-0.7666206109	-2.1791255763	 1.5517552415	 0.118662
H	 0.0170373344	-3.7464651706	 1.3158175783	 0.125067
H	 0.7067580233	-2.5774288026	 2.4518424847	 0.131942
H	-0.9630655864	-3.487609259	-1.4678819359	 0.115831
H	-1.0100281939	-2.0527448533	-2.6192614332	 0.116463
122.5663	180.7952	190.8498	199.4637	209.855	244.166	300.6669	372.3104	424.1359	460.0559	561.0242	591.3992	728.7056	775.3879	807.5115	880.4628	885.2568	910.401	961.1197	966.6507	1021.2319	1038.3148	1096.8726	1108.0519	1117.4114	1127.8915	1149.1434	1155.742	1157.7394	1195.4528	1224.5789	1268.3766	1300.8475	1372.2135	1405.7909	1410.1947	1428.4705	1448.3459	1489.4119	1492.7947	1494.7718	1497.4425	1537.029	3037.4276	3037.7626	3059.0277	3079.8469	3103.1462	3104.6692	3106.2092	3115.0002	3126.8898	3166.6958	3168.744
CC1C2N1C(C)C21CO1	C[C@H]1[C@H]2N1[C@@H](C)[C@]12CO1	
InChI=1S/C7H11NO/c1-4-6-7(3-9-7)5(2)8(4)6/h4-6H,3H2,1-2H3	InChI=1S/C7H11NO/c1-4-6-7(3-9-7)5(2)8(4)6/h4-6H,3H2,1-2H3/t4-,5-,6+,7-,8?/m0/s1
