17
gdb 10490	2.98802	1.72095	1.29929	1.735	69.79	-0.2484	0.0373	0.2857	971.4431	0.140947	-363.794911	-363.786394	-363.785449	-363.827933	31.599	
O	 0.4160819958	 1.0297161032	 0.5803560541	-0.417577
C	 0.0977435375	-0.1009538465	-0.2114708452	-0.158414
C	-1.3640625	-0.5116726404	-0.0905241563	 0.310953
C	-2.348305414	 0.2306997679	-0.9953878137	-0.403757
C	-2.235233789	 1.6863782318	-0.9158277537	 0.297811
C	-2.1208709826	 2.8831962467	-0.8593595979	-0.449271
C	-1.6770850397	-1.9074394118	 0.3134545544	-0.286871
N	-1.8709131951	-0.7943557914	 1.2568592952	-0.33003
H	-0.1497306439	 1.7541654271	 0.2845264544	 0.289735
H	 0.3498629327	 0.0625426218	-1.2716770229	 0.092668
H	 0.7403203069	-0.9088137199	 0.1543705211	 0.103394
H	-2.189321942	-0.0825752622	-2.0359324477	 0.132646
H	-3.3650691982	-0.0695535865	-0.7212021031	 0.144543
H	-2.051329874	 3.9422225549	-0.8130772033	 0.204862
H	-2.5947654708	-2.3814461962	-0.0261001851	 0.115278
H	-0.8466514776	-2.5927854467	 0.463012669	 0.113795
H	-1.1037306661	-0.7377464919	 1.9231096206	 0.240234
69.2923	102.2393	144.1291	251.6042	322.5015	336.5519	345.9661	374.924	441.8531	522.6704	535.2288	622.7322	648.7648	766.4071	865.9298	893.5784	920.9525	940.5191	969.4893	993.1996	1024.9564	1074.8487	1083.9893	1147.2124	1204.9428	1224.7101	1260.3194	1312.3801	1337.5611	1389.015	1399.4554	1444.2652	1457.1279	1498.2813	1518.1372	2226.5059	2976.4964	3022.6659	3067.7384	3075.8381	3103.1872	3186.1076	3498.8622	3500.2777	3765.3632
OCC1(CC#C)CN1	OC[C@@]1(CC#C)CN1	
InChI=1S/C6H9NO/c1-2-3-6(5-8)4-7-6/h1,7-8H,3-5H2	InChI=1S/C6H9NO/c1-2-3-6(5-8)4-7-6/h1,7-8H,3-5H2/t6-/m1/s1
