20
gdb 117204	3.34366	1.02485	0.89689	2.222	77.01	-0.2516	0.0048	0.2563	1383.7747	0.169759	-440.30538	-440.295547	-440.294603	-440.340683	35.437	
C	-0.1465551093	 1.1002076816	-0.1523733115	-0.386688
C	 0.5598084592	-0.1534327356	 0.3399691885	-0.058055
O	 1.2912572378	-0.7988510619	-0.7270730171	-0.247171
C	 0.5970938863	-1.6435889288	-1.5061595664	 0.425401
O	-0.5813157576	-1.887421117	-1.3659291953	-0.396828
C	 1.4528628303	-2.2577280369	-2.5771676062	 0.192386
C	 2.7980095769	-1.6388313959	-2.8786976664	-0.461806
C	 1.2261519213	-3.7303543075	-2.7468417605	-0.250923
N	 0.6947325396	-2.7878558055	-3.7262545443	-0.340168
H	 0.5642182651	 1.7910981405	-0.6146608238	 0.127783
H	-0.9191760972	 0.8442923654	-0.8808773726	 0.146349
H	-0.6236425583	 1.6102234865	 0.6905175964	 0.122898
H	 1.3215959869	 0.0830510552	 1.0862640813	 0.115796
H	-0.1517178428	-0.8681661975	 0.7591825826	 0.134179
H	 3.4547016537	-1.6778940074	-2.0058353141	 0.12652
H	 3.2692640659	-2.1784036958	-3.7032876163	 0.127656
H	 2.6922219063	-0.5906873268	-3.1743124238	 0.125621
H	 2.058356758	-4.3399173683	-3.0887716194	 0.121355
H	 0.5348037694	-4.215556739	-2.0645441585	 0.129388
H	-0.2963820914	-2.6482321153	-3.5314713624	 0.246308
53.0343	71.4928	107.7733	183.4455	199.8683	241.2122	287.4456	331.038	352.4734	360.2534	419.2292	484.3155	578.5015	766.2194	779.6392	813.2368	836.5177	873.7783	908.887	952.1034	1000.9765	1038.2509	1048.6624	1107.088	1111.4281	1118.769	1136.7672	1195.3963	1224.6148	1298.401	1330.3492	1353.6544	1370.2124	1399.467	1420.6476	1423.4349	1483.8827	1484.3906	1488.0926	1496.9432	1498.7821	1507.8569	1784.6808	3046.6528	3048.2932	3072.7784	3111.6834	3114.3458	3115.9502	3122.9867	3132.4392	3143.0304	3205.6217	3478.7088
CCOC(=O)C1(C)CN1	CCOC(=O)[C@@]1(C)CN1	
InChI=1S/C6H11NO2/c1-3-9-5(8)6(2)4-7-6/h7H,3-4H2,1-2H3	InChI=1S/C6H11NO2/c1-3-9-5(8)6(2)4-7-6/h7H,3-4H2,1-2H3/t6-/m1/s1
