22
gdb 122588	4.13945	0.65272	0.58825	2.501	84.49	-0.2413	-0.023	0.2183	1934.8788	0.192944	-404.350779	-404.340659	-404.339714	-404.387026	36.258	
C	-0.0438619812	 1.6274120695	-0.0504487001	-0.380339
C	-0.0174271747	 0.1146645232	 0.1838639581	-0.164906
C	-1.3842967964	-0.5483805485	-0.0167925279	-0.165649
C	-1.3628041273	-2.0634264035	 0.2104284364	-0.177507
C	-2.7193262059	-2.7166814438	-0.0279100495	-0.102294
N	-3.1806666156	-2.7601568986	-1.4495769211	-0.324362
C	-3.4781266129	-4.21682299	-1.3958159595	-0.284306
C	-2.7905854063	-4.2548928448	-0.0213395835	 0.383692
O	-2.424595393	-5.1125388512	 0.724392714	-0.288434
H	 0.9452529258	 2.0722852422	 0.0964145182	 0.11199
H	-0.3674150413	 1.8637893018	-1.0702819822	 0.11413
H	-0.7371130026	 2.1231860779	 0.6383987452	 0.112376
H	 0.7103963558	-0.3492652743	-0.4946264104	 0.098008
H	 0.3411206967	-0.0938842767	 1.2005788709	 0.095407
H	-2.115912285	-0.0874975314	 0.6626025361	 0.086455
H	-1.7405983113	-0.3488614172	-1.0358999988	 0.104763
H	-0.6292268038	-2.5267593419	-0.4605203044	 0.101276
H	-1.0478101148	-2.2921411442	 1.2366326035	 0.107973
H	-3.466532292	-2.2988019941	 0.6663369232	 0.09045
H	-3.9948489965	-2.1867917393	-1.6337965804	 0.22468
H	-4.5410980712	-4.4889807395	-1.332684539	 0.122484
H	-3.0128600266	-4.8097697753	-2.1908847488	 0.134111
55.011	77.1119	86.2058	124.2811	140.1546	195.5586	245.4059	287.4177	382.6948	398.2934	500.9418	556.9727	653.1795	734.5328	754.4763	796.3108	817.7982	894.7765	913.5237	958.1683	987.613	1005.8867	1029.8658	1067.4197	1075.7618	1090.4488	1095.0411	1136.5936	1170.6076	1216.5993	1239.9995	1260.1427	1301.2214	1309.8423	1332.1816	1347.0693	1367.3166	1379.0736	1398.8103	1413.5661	1473.3334	1475.1587	1486.3105	1498.1579	1499.8757	1512.1423	1912.082	2974.2765	3001.736	3010.6886	3015.7269	3026.2354	3028.8315	3035.6469	3053.0705	3068.7508	3074.6647	3095.4319	3101.6657	3550.8174
CCCCC1NCC1=O	CCCC[C@H]1NCC1=O	
InChI=1S/C7H13NO/c1-2-3-4-6-7(9)5-8-6/h6,8H,2-5H2,1H3	InChI=1S/C7H13NO/c1-2-3-4-6-7(9)5-8-6/h6,8H,2-5H2,1H3/t6-/m1/s1
