20
gdb 122464	3.693	0.7143	0.63879	3.4218	81.73	-0.2608	0.0289	0.2897	1777.228	0.169635	-403.146208	-403.136235	-403.135291	-403.182451	34.989	
C	-0.1457934208	 1.4743521411	-0.2515599431	-0.385311
C	-0.0511900138	-0.0035194815	 0.0861101749	-0.03003
O	-1.3451658457	-0.5698122812	-0.0058063279	-0.246853
C	-1.3699408343	-1.9457190658	 0.3000917637	-0.083161
C	-2.8007913884	-2.411870407	 0.2249904963	-0.017063
C	-3.4038605034	-2.7963945176	-1.0892028334	-0.273896
C	-3.1250989985	-3.8750115632	-0.0513146935	-0.181795
C	-2.0742967626	-4.8283536979	-0.2771345493	 0.28748
N	-1.2309851128	-5.6008170227	-0.454903462	-0.343923
H	 0.8408512598	 1.942786652	-0.1892789569	 0.117217
H	-0.5327830745	 1.6124505152	-1.265071743	 0.127469
H	-0.8176339352	 1.9847069087	 0.444345451	 0.126537
H	 0.6372037574	-0.5169617336	-0.6060447684	 0.090888
H	 0.3526208773	-0.1448140032	 1.102953935	 0.088401
H	-0.7434970428	-2.5181620077	-0.4034094307	 0.105286
H	-0.9637283889	-2.1263968926	 1.30981981	 0.096926
H	-3.4608698795	-1.9346802624	 0.9425576109	 0.110466
H	-4.4434539138	-2.5616101551	-1.2842141508	 0.132011
H	-2.7601095094	-2.7787142762	-1.9610906443	 0.143289
H	-3.97982114	-4.2881438095	 0.4731039915	 0.136063
44.1739	74.004	88.2932	127.7647	159.4247	207.6662	248.1171	303.5748	329.6445	435.2051	463.9355	555.6469	630.08	771.8138	821.5289	824.0107	873.1156	917.16	919.9756	959.3771	1044.	1049.4107	1075.7501	1120.1535	1132.9195	1146.5749	1157.6101	1179.4664	1197.8445	1230.4595	1275.5688	1297.9164	1358.4552	1381.8029	1401.0696	1418.9977	1463.4861	1483.4526	1488.7657	1499.7357	1514.1483	1535.3844	2350.7447	2953.0315	2964.2658	2982.2555	2992.4831	3045.7883	3120.8879	3122.2722	3147.2207	3162.5937	3173.5291	3238.4181
CCOCC1CC1C#N	CCOC[C@H]1C[C@H]1C#N	
InChI=1S/C7H11NO/c1-2-9-5-7-3-6(7)4-8/h6-7H,2-3,5H2,1H3	InChI=1S/C7H11NO/c1-2-9-5-7-3-6(7)4-8/h6-7H,2-3,5H2,1H3/t6-,7+/m0/s1
