21
gdb 91429	2.90481	1.54943	1.23645	1.0948	83.79	-0.2346	0.0134	0.248	1097.0317	0.184143	-387.077922	-387.070047	-387.069103	-387.109915	32.13	
C	 0.3799869222	 1.5683232014	-0.0083805714	-0.396223
C	 0.0258489871	 0.0812298307	-0.0244649418	 0.08831
O	 0.5374836154	-0.4061439057	-1.2645126901	-0.287302
C	 0.5452734504	-1.7921442877	-1.5551521392	 0.136577
C	-0.3953925422	-2.6905693487	-0.7076264929	-0.261197
C	 0.7953335534	-2.9227023659	 0.2722407466	-0.060401
C	 1.7445139394	-2.5435697601	-0.9125908373	-0.224798
C	 0.834072476	-1.8993641391	 1.3751534626	-0.091975
C	 0.5182611345	-0.6115588275	 1.2337902457	-0.055639
H	 1.4649458931	 1.699758564	 0.0410861008	 0.124602
H	 0.0144674754	 2.0483331415	-0.9191425599	 0.122585
H	-0.0737426331	 2.0622744382	 0.8559366127	 0.110652
H	-1.0751754151	-0.0006094137	-0.0420678771	 0.082434
H	 0.4465689711	-1.8587669742	-2.6422570497	 0.075185
H	-1.3158143459	-2.2618388896	-0.3072125144	 0.105405
H	-0.6416350073	-3.6012281596	-1.2603136601	 0.0999
H	 0.9027902043	-3.9307428058	 0.6784210749	 0.062
H	 2.033715259	-3.4192470017	-1.5018826595	 0.093242
H	 2.6250478	-1.9418106941	-0.6810175326	 0.102071
H	 1.1654248431	-2.2448530607	 2.3514719078	 0.086766
H	 0.5778478488	 0.0379022083	 2.104590925	 0.087808
94.367	202.1876	250.3041	301.9999	328.9371	348.9178	374.9096	432.5241	515.382	586.9812	686.0415	747.7139	775.3298	781.936	822.8938	857.1031	893.237	915.897	931.1878	983.9054	995.6265	1011.4456	1047.0802	1075.8761	1083.3628	1111.3917	1141.0692	1154.4794	1160.9203	1212.8189	1248.7514	1252.3034	1270.4298	1277.9748	1334.2134	1355.2049	1365.8554	1389.6725	1403.2006	1418.8123	1461.8586	1484.9352	1488.5677	1499.0758	1713.7634	2937.2301	3044.142	3051.1048	3059.1807	3069.7756	3081.1773	3117.9069	3122.0425	3125.6435	3129.0292	3138.8926	3162.7857
CC1OC2CC(C2)C=C1	C[C@H]1O[C@@H]2C[C@@H](C2)C=C1	
InChI=1S/C8H12O/c1-6-2-3-7-4-8(5-7)9-6/h2-3,6-8H,4-5H2,1H3	InChI=1S/C8H12O/c1-6-2-3-7-4-8(5-7)9-6/h2-3,6-8H,4-5H2,1H3/t6-,7-,8+/m1/s1
