23
gdb 112695	2.84052	0.99881	0.79811	1.9077	88.81	-0.2295	0.0242	0.2537	1513.4641	0.205151	-388.311927	-388.301823	-388.300878	-388.347038	37.764	
C	 0.0161386085	 1.5973668736	-0.0150028229	-0.401427
C	 0.0582352826	 0.0658292044	 0.045672236	-0.060877
C	 0.7572408708	-0.583197131	-1.1761677005	-0.248616
C	 1.5123903479	-1.8259228388	-0.6405762818	-0.031651
C	 2.865746493	-2.0408807995	-1.3312826764	-0.072925
O	 3.5395837413	-3.2119895536	-0.8971394741	-0.423907
C	 1.5984789037	-1.5351445031	 0.8400270353	-0.196782
C	 0.8275702249	-0.5152768424	 1.2240516801	 0.327823
C	 0.6364097589	-0.0117149714	 2.6210721388	-0.496009
H	 1.0288958443	 2.015636623	-0.0417972655	 0.113502
H	-0.5087819661	 1.9349063606	-0.9148094501	 0.114515
H	-0.5030051738	 2.0246963847	 0.8489491898	 0.112743
H	-0.9821763429	-0.2913541367	 0.1108648079	 0.075532
H	 0.0611763717	-0.8247156884	-1.9839559602	 0.09706
H	 1.4863209375	 0.1293035646	-1.5849707261	 0.094549
H	 0.927821424	-2.7436502375	-0.8041184455	 0.080482
H	 2.7121100344	-2.1703389985	-2.4085175214	 0.106152
H	 3.491861557	-1.1439792161	-1.19477582	 0.08132
H	 3.8001389758	-3.0773799989	 0.0189640216	 0.283437
H	 2.1869361529	-2.139512866	 1.5254257131	 0.072711
H	 1.2232550438	-0.5896833038	 3.3401304916	 0.120553
H	 0.9276870998	 1.0414982023	 2.7149087516	 0.12786
H	-0.4185301501	-0.0687047675	 2.9204127086	 0.123956
54.1666	105.774	142.2229	182.0497	211.2857	237.1462	255.9048	305.4763	336.3317	342.1159	416.1395	470.0925	551.8249	598.4021	642.8935	766.9016	848.3079	867.6704	892.3954	915.0736	980.6118	1005.6337	1020.8581	1045.0482	1062.8313	1081.1836	1084.9233	1121.4214	1143.1917	1184.1236	1195.4756	1238.0888	1273.2341	1288.6944	1322.354	1336.6161	1349.0553	1376.084	1388.6366	1406.3657	1411.8119	1416.4879	1478.4878	1486.0737	1490.0164	1498.4943	1501.3207	1503.7799	1717.925	2968.535	2969.5593	2992.6632	3016.3803	3020.3789	3027.5674	3063.3772	3064.7911	3088.9022	3096.1517	3099.2152	3108.8349	3158.6934	3824.9981
CC1CC(CO)C=C1C	C[C@H]1C[C@@H](CO)C=C1C	
InChI=1S/C8H14O/c1-6-3-8(5-9)4-7(6)2/h3,7-9H,4-5H2,1-2H3	InChI=1S/C8H14O/c1-6-3-8(5-9)4-7(6)2/h3,7-9H,4-5H2,1-2H3/t7-,8-/m0/s1
