17
gdb 52734	1.75082	0.91073	0.62442	3.0371	88.43	-0.2405	-0.0297	0.2108	1798.3165	0.131113	-384.647188	-384.635902	-384.634958	-384.687585	36.179	
C	-0.1173557077	 1.5177035924	 0.1131442182	-0.498507
C	-0.0124257744	 0.0673357957	 0.0547994423	 0.077226
C	 0.0962008797	-1.1305244752	 0.008035767	 0.072512
C	 0.145803154	-2.5932697598	-0.0404432577	-0.409097
C	-1.3101857361	-3.1256411937	-0.037271464	 0.181214
O	-1.7602841226	-3.8280313637	 0.8222431236	-0.238612
C	 0.8182065548	-3.1119634584	-1.2334402891	 0.072414
C	 1.3146384981	-3.5751288589	-2.2273707007	 0.077332
C	 1.9378504662	-4.1245885789	-3.4222285009	-0.498508
H	 0.8733651136	 1.9836205109	 0.149066413	 0.154081
H	-0.6389373905	 1.9126393469	-0.7652877218	 0.152678
H	-0.6697131331	 1.8400099549	 1.0023460961	 0.15384
H	 0.617593403	-2.9899961573	 0.867192248	 0.14357
H	-1.8992586836	-2.7899723582	-0.9156147049	 0.099258
H	 1.9094681881	-5.2194934864	-3.4166740093	 0.153841
H	 1.427050868	-3.7819467398	-4.3285188418	 0.152681
H	 2.9870694924	-3.8186662003	-3.4959760882	 0.154076
19.1602	19.5977	58.5845	60.293	92.5656	150.9137	189.4599	278.2938	289.3272	312.2731	389.7814	431.7543	453.4204	480.1446	519.9415	775.0311	822.3116	1005.9354	1018.1093	1051.8813	1052.0478	1053.8096	1053.8963	1134.9941	1188.9572	1221.1413	1309.9306	1404.4435	1413.6382	1415.2893	1476.6541	1476.8224	1477.1851	1477.3366	1842.572	2369.0976	2373.9004	2922.9915	3030.4418	3030.7095	3033.6708	3093.0591	3093.0901	3093.6946	3093.7438
CC#CC(C=O)C#CC	CC#CC(C=O)C#CC	
InChI=1S/C8H8O/c1-3-5-8(7-9)6-4-2/h7-8H,1-2H3	InChI=1S/C8H8O/c1-3-5-8(7-9)6-4-2/h7-8H,1-2H3
