16
gdb 124970	3.05898	1.23827	0.96188	3.0717	74.61	-0.2435	0.012	0.2555	1190.3025	0.125879	-396.973913	-396.965395	-396.96445	-397.008104	30.18	
C	 0.2382999762	 1.4637343039	-0.0195495726	-0.516822
C	 0.0646288648	-0.0188171208	-0.0822706248	 0.299042
C	 0.0189216708	-0.9068650859	-1.1484725316	 0.125478
C	 0.1243148548	-0.6004541681	-2.6188876834	-0.46348
C	 1.3165468203	 0.1809413388	-2.9654960021	 0.271317
N	 2.2480085753	 0.8165954035	-3.2185877006	-0.319656
C	-0.1706290656	-2.1738953554	-0.5549971483	-0.080505
N	-0.2415941745	-2.1003116437	 0.7689755841	-0.22937
N	-0.0966313456	-0.785743548	 1.0245119163	-0.241793
H	 1.0682412667	 1.787126447	-0.6541478962	 0.174203
H	-0.6610148127	 1.9903025426	-0.3595348393	 0.144016
H	 0.447065782	 1.7924825684	 1.0027856782	 0.129065
H	 0.1516017252	-1.5357247644	-3.1882083285	 0.162533
H	-0.7517516141	-0.0481114263	-2.9840262361	 0.159554
H	-0.2549906433	-3.1326650541	-1.0471913789	 0.113233
H	-0.1004504402	-0.4721066474	 1.981290514	 0.273185
43.3046	84.6669	112.4732	229.0703	245.5887	299.6452	376.8494	390.4858	481.4409	545.0416	654.368	687.9655	695.7579	763.307	883.6068	927.2297	936.9149	957.2068	1008.9281	1059.961	1137.0333	1172.8744	1217.032	1259.4321	1312.8231	1316.2883	1397.4844	1420.2386	1448.2549	1458.8026	1480.0866	1491.1317	1533.8957	1620.472	2359.1678	3023.1454	3034.1038	3076.503	3094.0145	3119.2799	3237.2688	3661.1614
CC1=C(CC#N)C=NN1	Cc1c(CC#N)cn[nH]1	
InChI=1S/C6H7N3/c1-5-6(2-3-7)4-8-9-5/h4H,2H2,1H3,(H,8,9)	InChI=1S/C6H7N3/c1-5-6(2-3-7)4-8-9-5/h4H,2H2,1H3,(H,8,9)
