18
gdb 12244	3.26769	1.5461	1.1811	1.6158	69.55	-0.2467	0.0218	0.2686	1057.4417	0.154165	-381.120592	-381.111956	-381.111012	-381.153943	31.244	
C	 0.2299411056	 1.5205277658	 0.0386938658	-0.38764
C	 0.1377100888	-0.0082707678	 0.0283454672	-0.181655
C	 0.4586127248	-0.5999598959	-1.3290055123	 0.133557
O	 1.8715201372	-0.4006517291	-1.702615965	-0.269596
C	 2.1238765475	-1.7550108382	-1.6767362002	 0.402795
N	 3.199156347	-2.3937774747	-1.7766605539	-0.54926
C	 0.6665641674	-2.1393148361	-1.4338370123	-0.129472
N	 0.2766810286	-2.9738134394	-0.3199632312	-0.513654
H	 1.2322929035	 1.8487401857	-0.2511095039	 0.135461
H	-0.4844960652	 1.965104665	-0.662781469	 0.116563
H	 0.0145320978	 1.9201888119	 1.0337295871	 0.116379
H	 0.8218899465	-0.4266580506	 0.7764477487	 0.096784
H	-0.8690059413	-0.3405272992	 0.3074987336	 0.118453
H	-0.1809820438	-0.1700344694	-2.1069619703	 0.08759
H	 3.9963583334	-1.7671218992	-1.9029679627	 0.226331
H	 0.2101234816	-2.5370423267	-2.3443098111	 0.113169
H	 0.335145396	-3.9509173045	-0.5855773108	 0.244999
H	 0.9171033346	-2.8545026477	 0.4585002402	 0.239196
79.7622	100.5122	165.1972	177.6506	231.6306	239.0029	299.9598	408.9686	450.7418	551.3647	659.2571	743.3129	785.2112	812.2179	851.4478	870.9528	891.1194	946.7548	988.5684	1020.2396	1059.7914	1093.3486	1118.9122	1196.5486	1212.2669	1223.9723	1247.8245	1286.3327	1312.725	1355.2021	1408.5199	1413.7602	1431.4133	1471.8961	1498.9791	1508.6774	1671.0691	1815.9407	3033.0521	3037.9417	3053.0546	3074.0506	3081.877	3106.5242	3118.9069	3469.0294	3510.0557	3585.1854
CCC1OC(=N)C1N	CC[C@H]1O[C]([NH])[C@H]1N	
InChI=1S/C5H10N2O/c1-2-3-4(6)5(7)8-3/h3-4,7H,2,6H2,1H3	InChI=1S/C5H10N2O/c1-2-3-4(6)5(7)8-3/h3-4,7H,2,6H2,1H3/t3-,4+/m1/s1
