19
gdb 75056	2.24236	1.67047	1.23303	2.2797	77.36	-0.2459	-0.0256	0.2203	1092.4712	0.156844	-423.067413	-423.058002	-423.057058	-423.101249	35.305	
C	-0.1926738459	 1.5094126588	 0.0510301032	-0.497412
C	-0.0376341196	 0.0240012071	 0.0175274567	 0.309622
C	 0.0296018085	-0.766847907	-1.0594582514	-0.190266
C	 0.1356693849	-2.2354240426	-0.7289300723	-0.376579
C	-0.1203619665	-2.2208743187	 0.7758062567	 0.356566
O	-0.5046686807	-3.1261849676	 1.47167656	-0.328548
C	 0.0723366745	-0.7821902907	 1.2988559695	 0.201266
C	 1.4466820978	-0.6467982677	 1.9816901263	-0.430643
O	-0.9602095182	-0.4553752702	 2.2149312241	-0.477588
H	 0.6665071933	 1.9927806671	 0.5321398014	 0.128593
H	-0.2972826866	 1.9233749356	-0.9554071463	 0.121679
H	-1.0763078757	 1.7824911533	 0.6381463244	 0.150972
H	 0.0014521304	-0.4065302866	-2.0823108538	 0.096939
H	-0.5908668497	-2.875789653	-1.2416346297	 0.136454
H	 1.1278409775	-2.6602596839	-0.9394999539	 0.136037
H	 2.2681449036	-0.874462702	 1.2947359242	 0.116916
H	 1.5730262098	 0.3740945825	 2.3522756183	 0.130022
H	 1.5013603672	-1.3323573263	 2.8332467254	 0.126743
H	-1.1831354845	-1.2810938682	 2.6673256572	 0.289227
57.1454	170.7629	190.338	222.5999	235.7408	253.1855	260.3034	299.8522	354.9103	391.9077	512.4348	548.9448	573.3448	632.9274	677.6552	697.8261	822.662	837.2733	940.8053	962.7108	972.0137	1034.4003	1060.612	1063.8148	1084.5157	1112.7123	1160.6132	1212.9909	1232.9008	1286.9006	1326.2122	1388.9098	1402.8683	1411.7876	1452.9751	1474.4824	1487.2836	1489.1411	1491.7455	1711.1765	1846.9142	3011.1797	3027.1812	3034.6507	3065.4616	3082.2945	3109.8516	3116.2492	3119.458	3187.3662	3744.6086
CC1=CCC(=O)C1(C)O	CC1=CCC(=O)[C@]1(C)O	
InChI=1S/C7H10O2/c1-5-3-4-6(8)7(5,2)9/h3,9H,4H2,1-2H3	InChI=1S/C7H10O2/c1-5-3-4-6(8)7(5,2)9/h3,9H,4H2,1-2H3/t7-/m1/s1
