17
gdb 128406	3.53758	1.09561	0.85746	4.4231	72.28	-0.2175	-0.0051	0.2124	1315.8397	0.137079	-455.123238	-455.114904	-455.113959	-455.156593	30.643	
C	-0.1987485543	 1.4870026727	-0.2652556688	-0.318075
N	-0.1721035681	 0.0254462079	-0.3064089659	-0.305075
H	-0.2681777793	-0.3397122949	 0.6369198599	 0.238503
H	-1.5099833557	-1.3062953615	-1.1373099945	 0.290399
C	 1.0628852208	-0.5203417742	-0.8910498202	-0.280001
C	 0.8658538692	-1.979488783	-1.123868461	 0.285326
C	-0.2799316364	-2.6876774599	-1.3433247035	 0.159807
O	-1.5564711708	-2.2491332724	-1.3907277393	-0.439924
C	 0.176523956	-4.0224038236	-1.5149889958	-0.040166
N	 1.4818515186	-4.1073219839	-1.4094082169	-0.140882
O	 1.9266586395	-2.8161294573	-1.1565030642	-0.219827
H	 0.6656620879	 1.9283477061	 0.2560583381	 0.111873
H	-0.2119162587	 1.8788032694	-1.2872005048	 0.136777
H	-1.1114485649	 1.8192975839	 0.2358493779	 0.131507
H	 1.2344038246	 0.0029612511	-1.8422039316	 0.134262
H	 1.9587540339	-0.3436858598	-0.2736510566	 0.12056
H	-0.4052916121	-4.9112491307	-1.711607583	 0.134937
73.3773	123.8628	160.0814	243.4321	250.3255	315.2602	342.6928	372.7954	449.7181	625.5837	679.2948	691.1989	703.9832	771.2862	865.0453	895.8175	929.6012	952.5314	976.4671	998.7862	1123.3098	1143.442	1151.3496	1181.2299	1223.4577	1242.5652	1295.1597	1340.1188	1390.9564	1458.7264	1477.3875	1489.0793	1494.1926	1501.9314	1515.7833	1548.914	1688.8331	2973.4345	2981.09	3019.7911	3075.7643	3119.7377	3250.3472	3507.4343	3555.7311
C[NH2+]CC1=C([O-])C=NO1	CNCc1c(O)cno1	
InChI=1S/C5H8N2O2/c1-6-3-5-4(8)2-7-9-5/h2,6,8H,3H2,1H3	InChI=1S/C5H8N2O2/c1-6-3-5-4(8)2-7-9-5/h2,6,8H,3H2,1H3
