14
gdb 29016	2.68758	1.60243	1.00406	4.0696	73.96	-0.2535	-0.0736	0.1799	1083.9901	0.102761	-432.940591	-432.932812	-432.931868	-432.973145	28.126	
N	-0.0877053382	 1.3623813833	-0.050160747	-0.56759
C	 0.0167373371	 0.0118099825	-0.0223434114	 0.347048
N	-1.1529267605	-0.655748773	-0.021844558	-0.32194
C	-1.0890746392	-1.9787597524	-0.0108965043	 0.08633
N	 0.0044813368	-2.7533972298	 0.0047199383	-0.279933
C	 1.1540845338	-2.0833918323	 0.001303329	-0.008534
C	 1.2494314324	-0.6899808962	-0.0159663217	 0.063475
C	 2.5729314601	-0.0511707176	-0.0359388581	 0.083698
O	 3.6246264405	-0.6507681114	-0.006565469	-0.269493
H	 0.6975467235	 1.9636167078	 0.1185617545	 0.270431
H	-1.0141032652	 1.7440442327	 0.0490845684	 0.272151
H	-2.0445344159	-2.4994532255	-0.0118320986	 0.125403
H	 2.0747483046	-2.6610476519	 0.0099395941	 0.146318
H	 2.5751765503	 1.0617345638	-0.0885760762	 0.052636
106.814	116.8826	211.2253	217.7319	266.8664	364.889	395.3632	495.3416	531.4642	580.4636	585.615	663.6063	815.6886	828.0838	922.9454	979.2437	1020.2162	1021.0992	1046.0658	1168.5287	1201.7789	1276.9542	1325.5041	1382.4067	1429.4735	1460.1745	1494.6863	1589.8445	1617.5706	1650.2481	1785.5001	2853.9303	3159.4394	3176.9827	3614.8685	3749.3246
NC1=NC=NC=C1C=O	Nc1ncncc1C=O	
InChI=1S/C5H5N3O/c6-5-4(2-9)1-7-3-8-5/h1-3H,(H2,6,7,8)	InChI=1S/C5H5N3O/c6-5-4(2-9)1-7-3-8-5/h1-3H,(H2,6,7,8)
