21
gdb 36932	4.71206	0.82477	0.77404	1.0596	79.41	-0.2501	0.0914	0.3415	1546.2194	0.183213	-424.214781	-424.205843	-424.204899	-424.250127	32.422	
C	-0.1625686118	 1.5074908449	-0.3565652101	-0.250269
C	-0.1367260055	 0.0018493045	-0.2116088282	 0.037499
C	-0.2812092992	-0.6381609398	 1.1484037113	-0.258469
C	-1.3942097147	-0.7511444218	 0.1353038657	-0.278793
C	 1.2027286769	 2.1350786946	-0.1390277284	 0.231633
O	 2.1213960625	 1.6849806285	-1.1261294244	-0.270737
C	 2.9882037666	 2.7687817914	-1.4445083523	-0.086866
C	 2.4514315514	 3.9396244772	-0.5944040096	-0.112227
O	 1.1299121827	 3.5347897211	-0.2802090788	-0.249354
H	-0.5044366242	 1.7999212904	-1.3559744279	 0.107763
H	-0.8556372873	 1.9468895873	 0.3704473354	 0.102221
H	 0.5432909508	-0.492684043	-0.8983371457	 0.099689
H	 0.3072322007	-1.5214314521	 1.3703851724	 0.111186
H	-0.4411960359	 0.0126221421	 2.0023215245	 0.108264
H	-2.2976890005	-0.1756539436	 0.3100020278	 0.109276
H	-1.566531713	-1.7120852714	-0.3366334356	 0.110637
H	 1.5999199621	 1.8805117961	 0.8625093934	 0.060317
H	 4.0272951435	 2.5197976432	-1.1970049684	 0.102777
H	 2.9234435852	 2.9715820235	-2.5198083407	 0.10913
H	 3.0488430599	 4.0715910945	 0.3204635243	 0.098306
H	 2.4081445897	 4.8908832226	-1.1289741945	 0.118016
37.869	67.7947	82.7486	123.09	198.8392	299.9901	332.8006	417.8224	515.5173	695.8384	722.6823	775.7118	812.5753	830.4687	849.1074	875.3227	911.7451	947.9285	966.521	1002.391	1038.8938	1057.865	1067.7395	1077.1804	1086.2393	1144.2976	1150.6481	1168.9348	1173.9942	1199.9022	1225.355	1227.3334	1244.9831	1265.1491	1306.6389	1342.3978	1376.7397	1394.497	1415.507	1438.9802	1467.3386	1474.6078	1507.6249	1515.5421	1533.0031	2916.6453	2989.0623	3022.2398	3034.9506	3059.2147	3080.5629	3107.5856	3126.9932	3132.065	3158.2675	3204.9562	3220.4075
C(C1CC1)C1OCCO1	C(C1CC1)C1OCCO1	
InChI=1S/C7H12O2/c1-2-6(1)5-7-8-3-4-9-7/h6-7H,1-5H2	InChI=1S/C7H12O2/c1-2-6(1)5-7-8-3-4-9-7/h6-7H,1-5H2
