21
gdb 111115	3.43429	1.24351	1.14727	1.5698	80.92	-0.24	0.0896	0.3296	1182.9359	0.184076	-387.039189	-387.031434	-387.03049	-387.071353	31.559	
C	 0.052919071	 1.5399284711	 0.1919863437	-0.384845
C	-0.116158153	 0.0354931388	-0.0472057523	-0.209999
C	 0.6079998814	-0.4488797962	-1.3006572129	 0.027024
C	 2.139020429	-0.6594501339	-1.153917448	 0.051266
O	 1.8346893682	-1.9118227252	-0.4374726187	-0.306869
C	 0.7463538639	-1.9873904728	-1.4312783814	 0.039
C	 1.5408866737	-2.2419984473	-2.7284502936	-0.043439
C	 1.7392170267	-1.129273256	-3.7272737345	-0.311212
C	 2.6304420587	-1.2011508437	-2.512449974	-0.042225
H	 1.1060608123	 1.8069661764	 0.3320603865	 0.11603
H	-0.3262621109	 2.1251346163	-0.6535560905	 0.11132
H	-0.4899340597	 1.8597614955	 1.0866784372	 0.114202
H	 0.2455207408	-0.5285090166	 0.8170759901	 0.117849
H	-1.1845853188	-0.1957155157	-0.1520369535	 0.089759
H	 0.249125142	 0.1106332653	-2.167279287	 0.060995
H	 2.7898198809	 0.0151259536	-0.5973468326	 0.074974
H	-0.0478371037	-2.6830569966	-1.1584722315	 0.07337
H	 1.7652462816	-3.2654795263	-3.0029946291	 0.096268
H	 2.2092428556	-1.4275919389	-4.6603464753	 0.11169
H	 1.0096856148	-0.3395358709	-3.8568787753	 0.11897
H	 3.6823495754	-1.4342075371	-2.6236935673	 0.095873
93.308	155.7506	201.2942	290.465	332.7528	369.0222	429.8321	539.039	609.0557	665.1228	751.7474	780.8211	803.7679	842.6393	853.4361	858.2404	893.859	903.7294	921.136	967.5332	989.7199	1032.0041	1038.8754	1063.6287	1073.6103	1086.0774	1098.2394	1101.4649	1146.9188	1186.617	1194.6772	1212.982	1251.1721	1264.2218	1286.9011	1297.1928	1310.9971	1345.3051	1370.8216	1410.8791	1416.9457	1491.5716	1498.1001	1500.8901	1506.3718	3020.585	3029.5315	3072.6091	3083.0485	3102.5343	3105.4526	3116.7712	3120.3957	3129.6762	3181.73	3189.0336	3209.9863
CCC1C2OC1C1CC21	CC[C@H]1[C@H]2O[C@@H]1[C@H]1C[C@@H]21	
InChI=1S/C8H12O/c1-2-4-7-5-3-6(5)8(4)9-7/h4-8H,2-3H2,1H3	InChI=1S/C8H12O/c1-2-4-7-5-3-6(5)8(4)9-7/h4-8H,2-3H2,1H3/t4-,5+,6-,7+,8-
