15
gdb 47343	3.47502	1.18238	0.91604	3.3687	67.71	-0.2844	-0.0184	0.266	1190.6928	0.113939	-453.959361	-453.951623	-453.950679	-453.992106	28.318	
N	-0.0436136308	 1.3156259026	 0.1568651857	-0.488634
C	-0.0087907048	 0.069145259	-0.0346581027	 0.363064
C	-1.2747951113	-0.7581798115	-0.0797612666	-0.270604
C	-1.1170066993	-1.9469419101	-1.0437980862	-0.053269
O	 0.0915249427	-2.6337070491	-0.7408447063	-0.228216
C	 1.1840808578	-1.7904539068	-0.9379797308	 0.0114
O	 1.1659645077	-0.6362725383	-0.1018290703	-0.245151
C	-2.2296664489	-2.8954963929	-0.935776005	 0.285946
N	-3.1329772931	-3.6093741723	-0.8535146567	-0.30239
H	 0.9050057888	 1.6939775648	 0.2053026456	 0.229721
H	-1.4580850144	-1.1568166387	 0.9238254175	 0.159062
H	-2.1137428736	-0.1186331523	-0.3548810599	 0.155995
H	-1.0829886039	-1.5831739487	-2.0841683007	 0.130292
H	 2.0799589702	-2.3502980054	-0.6704839135	 0.14572
H	 1.2315403328	-1.4603164904	-1.98888018	 0.107066
99.4083	112.3822	146.6827	236.9954	357.1505	399.6277	434.8101	452.1337	536.0969	559.9468	612.4216	722.5063	824.6236	875.9333	928.9929	993.7646	1006.6997	1037.8377	1060.0621	1074.208	1142.9324	1192.3794	1222.3529	1283.8107	1294.4987	1321.2325	1355.7642	1394.8902	1454.4591	1461.1976	1515.7616	1764.7125	2374.6494	2970.9497	2976.5208	3063.2209	3141.4965	3143.9019	3466.2638
N=C1CC(OCO1)C#N	[NH][C]1C[C@@H](OCO1)C#N	
InChI=1S/C5H6N2O2/c6-2-4-1-5(7)9-3-8-4/h4,7H,1,3H2	InChI=1S/C5H6N2O2/c6-2-4-1-5(7)9-3-8-4/h4,7H,1,3H2/t4-/m1/s1
