18
gdb 43852	2.91479	1.45248	1.10351	5.3212	80.7	-0.21	-0.025	0.185	1110.1538	0.149086	-401.97233	-401.964513	-401.963569	-402.004526	31.002	
O	-0.0540043026	-0.0756050576	 0.1295501836	-0.359601
C	-0.0090217502	 1.1404854213	 0.06698343	 0.366299
C	-1.2998950595	 1.9767198777	-0.0059187905	-0.383371
C	-1.1310596014	 3.3490750945	 0.6124927153	 0.359795
C	-2.3161634439	 4.1995165121	 0.9531465612	-0.335048
C	-1.5043501234	 3.5660383238	 2.0656172592	-0.297002
N	 0.048299613	 4.0065721134	 0.1026551842	-0.334476
C	 1.1860516941	 3.2725451048	-0.0519670232	 0.017506
C	 1.2179508049	 1.9155566363	-0.0336397403	-0.226404
H	-1.5604100666	 2.0768796934	-1.0694111375	 0.124067
H	-2.106489904	 1.4231392821	 0.4787708742	 0.121368
H	-2.2296568489	 5.272992467	 0.8117815711	 0.111953
H	-3.3033901157	 3.8064653423	 0.7366609881	 0.128132
H	-1.9359284485	 2.7337883491	 2.6109708385	 0.129401
H	-0.8714500015	 4.2152671051	 2.6609366103	 0.112572
H	 0.1426818671	 4.9942847905	 0.2737484832	 0.247401
H	 2.0873393039	 3.8571184624	-0.2128483895	 0.120341
H	 2.1544692034	 1.3869938419	-0.1539075379	 0.097067
98.5589	129.651	257.6101	295.8918	345.8085	410.1933	439.4181	466.3438	488.2883	526.8512	618.6799	698.4858	764.8632	793.1986	803.5123	844.0831	927.6602	941.2002	960.6083	967.7399	999.9296	1012.7314	1054.158	1079.5473	1092.8201	1158.8244	1186.4338	1228.3722	1244.9479	1284.6703	1330.7006	1348.1397	1426.8785	1453.4236	1464.8072	1496.432	1528.8956	1655.4612	1761.3567	3013.9454	3114.511	3124.7621	3133.78	3174.1962	3207.2846	3221.4047	3225.1289	3639.1338
O=C1CC2(CC2)NC=C1	O=C1CC2(CC2)NC=C1	
InChI=1S/C7H9NO/c9-6-1-4-8-7(5-6)2-3-7/h1,4,8H,2-3,5H2	InChI=1S/C7H9NO/c9-6-1-4-8-7(5-6)2-3-7/h1,4,8H,2-3,5H2
