19
gdb 86752	3.13149	1.08441	0.87787	1.0345	84.39	-0.2452	0.0099	0.2551	1341.8758	0.15782	-385.871764	-385.862401	-385.861456	-385.905903	35.22	
C	-0.1397562182	 1.6249998471	 0.154037476	-0.494311
C	-0.1053030708	 0.129729769	 0.1398529155	 0.283247
C	-0.2617761984	-0.6870109459	-0.9029588145	-0.174298
C	-0.1123429604	-2.1573932026	-0.5402972911	-0.204517
C	-0.0910786319	-2.1139828611	 1.0192974166	-0.255993
C	 0.2412825563	-0.6522092095	 1.3946242809	 0.046924
O	 1.6024235869	-0.4370955395	 1.7784029753	-0.438526
C	-1.162096496	-3.0092767565	-1.0897522513	 0.317605
C	-2.0311101633	-3.7060553184	-1.5424617403	-0.470274
H	 0.7895153759	 2.0225775503	 0.5774684751	 0.138002
H	-0.2753156341	 2.0413229815	-0.8474590821	 0.122776
H	-0.9551903483	 1.9916550125	 0.7903657866	 0.130019
H	-0.4599039224	-0.3759404784	-1.9229676317	 0.103078
H	 0.8486368874	-2.5306989123	-0.9262634177	 0.106858
H	-1.0845821936	-2.375611925	 1.3915947774	 0.120237
H	 0.6265370947	-2.8102920294	 1.458514632	 0.111697
H	-0.3305588874	-0.3229938743	 2.2687762378	 0.086656
H	 2.1491077147	-0.5906095907	 0.9993470186	 0.276382
H	-2.7973036212	-4.3224742767	-1.9426155035	 0.194436
63.814	114.3621	156.3404	180.92	235.6461	276.2327	311.8064	341.7619	390.2098	486.0495	524.3342	581.2745	614.4072	622.9282	634.344	688.9749	839.8225	849.7185	871.9532	927.5279	982.3169	1019.4491	1032.3313	1055.9901	1064.4355	1070.4328	1163.8096	1201.6594	1256.0843	1265.9035	1278.9986	1297.9038	1335.1351	1359.0382	1407.419	1429.2503	1476.6289	1479.9565	1490.2611	1720.7514	2234.6772	2980.368	3024.2943	3052.4588	3073.8605	3077.1482	3116.396	3122.6778	3192.9622	3505.2792	3794.4801
CC1=CC(CC1O)C#C	CC1=C[C@@H](C[C@H]1O)C#C	
InChI=1S/C8H10O/c1-3-7-4-6(2)8(9)5-7/h1,4,7-9H,5H2,2H3	InChI=1S/C8H10O/c1-3-7-4-6(2)8(9)5-7/h1,4,7-9H,5H2,2H3/t7-,8+/m0/s1
