15
gdb 43972	3.24357	1.66119	1.41175	3.0112	69.93	-0.2461	-0.0261	0.22	923.7755	0.112726	-420.594381	-420.587632	-420.586688	-420.625498	26.897	
O	-0.0448006788	-0.0080729723	-0.0665495955	-0.298988
C	-0.0390933809	 1.1764743139	 0.087720287	 0.367382
C	-1.1831799384	 2.2361908575	 0.2659741956	-0.414464
C	-0.1191976403	 3.265618827	-0.148004654	 0.281777
O	 0.8816588121	 3.2253234805	 0.8683421063	-0.277365
C	 0.9945489878	 2.2613037701	-0.1887708744	 0.164273
C	 1.9422548375	 2.603771958	-1.3171507135	-0.374056
C	 1.2895073835	 3.8651734071	-1.8846291589	-0.056188
C	 0.1438641521	 4.2002217975	-1.2735137401	-0.174542
H	-1.9717442808	 2.0514311338	-0.468587538	 0.139182
H	-1.6152085469	 2.3771960917	 1.2574122825	 0.137344
H	 2.9668800953	 2.7891076197	-0.9773184356	 0.139096
H	 1.9882314096	 1.7974711602	-2.0579100859	 0.139628
H	 1.7591184078	 4.443340137	-2.6739938591	 0.11197
H	-0.4793961196	 5.0505737881	-1.5189061563	 0.114952
93.7847	235.9922	268.1979	377.7731	461.2218	491.5514	548.4401	594.1617	611.7659	695.3569	724.483	754.8164	828.7709	832.4566	881.0412	913.8314	940.5491	965.5976	985.4055	1037.8991	1086.4185	1126.7821	1151.8509	1187.8051	1221.6829	1238.7899	1311.2498	1362.2068	1372.609	1448.2889	1461.1826	1634.5787	1882.6021	3047.1815	3075.3275	3083.3198	3139.369	3185.7021	3221.1538
O=C1CC23OC12CC=C3	O=C1C[C@@]23O[C@@]12CC=C3	
InChI=1S/C7H6O2/c8-5-4-6-2-1-3-7(5,6)9-6/h1-2H,3-4H2	InChI=1S/C7H6O2/c8-5-4-6-2-1-3-7(5,6)9-6/h1-2H,3-4H2/t6-,7+/m1/s1
