14
gdb 42672	2.6329	1.71039	1.20158	4.9075	71.34	-0.265	-0.0185	0.2465	988.0974	0.101642	-399.502714	-399.495896	-399.494952	-399.534169	26.239	
O	-0.0039956878	-0.0723132591	 0.0433191756	-0.309441
C	-0.016701861	 1.1161898157	 0.0065566257	 0.463603
C	-1.0106635615	 2.2786761013	 0.0205242479	-0.234044
C	-0.0170459382	 3.0981189095	 0.9371073903	-0.059328
C	-0.0488986823	 4.3251775928	 0.0076876962	-0.311958
C	-0.0565798654	 3.1049786551	-0.9407252729	 0.253448
C	-0.086630525	 3.0863877667	-2.3795470504	 0.173031
N	-0.1110013989	 3.0938717736	-3.5356687465	-0.335275
C	 0.9534362606	 2.2983978315	-0.0207527511	-0.234044
H	-2.0971172669	 2.3267343817	 0.0269913771	 0.11668
H	 0.0062739027	 3.0487719229	 2.0231719046	 0.112488
H	-0.9555991568	 4.9346095713	 0.0190158267	 0.12408
H	 0.8450629292	 4.9526894005	-0.01882723	 0.12408
H	 2.0380188414	 2.3682561165	-0.0599126834	 0.11668
101.277	179.2527	210.1705	335.2175	502.2129	508.3437	529.1299	549.4911	644.4357	692.6998	788.3859	800.9115	840.7072	867.8149	936.0035	984.0197	1017.4883	1030.3582	1044.6719	1085.7342	1088.7119	1124.8515	1138.0665	1180.9094	1202.0568	1231.7086	1258.0644	1282.8188	1519.8544	1931.1288	2352.21	3064.0932	3127.1653	3147.6796	3156.7375	3161.2126
O=C1C2C3CC2(C#N)C13	O=C1[C@H]2[C@@H]3C[C@@]2(C#N)[C@H]13	
InChI=1S/C7H5NO/c8-2-7-1-3-4(7)6(9)5(3)7/h3-5H,1H2	InChI=1S/C7H5NO/c8-2-7-1-3-4(7)6(9)5(3)7/h3-5H,1H2/t3-,4+,5-,7-
