15
gdb 101975	1.81645	1.47177	1.31405	1.8295	69.53	-0.2464	-0.0581	0.1883	1097.9547	0.10622	-457.711053	-457.700891	-457.699947	-457.7469	34.36	
C	-0.283603802	 1.3147413931	 0.3503466955	-0.263761
O	-0.1644190698	-0.0933892855	 0.1380912137	-0.274888
C	 0.5658293354	-0.4822908687	-0.9966685596	 0.026705
C	-0.0092746844	 0.0031183597	-2.3507442405	 0.138212
O	-1.0513463467	 0.5862665603	-2.4557422784	-0.242795
C	 2.0514052508	-0.0363401329	-0.8524206479	 0.111116
O	 2.7388951468	 0.3692766197	-1.7467621298	-0.230177
C	 0.5966537942	-1.9423966926	-1.0571519102	 0.281113
C	 0.6693311952	-3.1375703327	-1.1601912676	-0.416804
H	 0.6879066808	 1.8247814329	 0.2848599928	 0.117004
H	-0.9764186266	 1.768377301	-0.3613434398	 0.155238
H	-0.6662853803	 1.429258889	 1.3660314282	 0.139758
H	 0.6281417626	-0.2563210994	-3.2173785844	 0.125945
H	 2.4083513029	-0.1460749876	 0.1940472261	 0.117018
H	 0.715228491	-4.1966913362	-1.2363344681	 0.216317
45.5496	86.3987	106.0809	141.8786	157.6271	203.2799	224.3396	262.0642	298.8441	413.6197	460.0505	477.2006	537.7171	623.6308	639.0897	686.5425	766.6378	926.8792	961.1267	1038.0079	1079.0656	1116.6346	1165.5511	1188.0176	1233.4486	1384.2572	1402.6174	1476.0905	1481.7105	1517.3542	1829.1996	1845.2727	2229.1579	2910.6826	2956.9748	3006.317	3104.1891	3145.254	3496.8193
COC(C=O)(C=O)C#C	COC(C=O)(C=O)C#C	
InChI=1S/C6H6O3/c1-3-6(4-7,5-8)9-2/h1,4-5H,2H3	InChI=1S/C6H6O3/c1-3-6(4-7,5-8)9-2/h1,4-5H,2H3
