15
gdb 85039	2.51823	1.53582	1.03038	2.389	61.96	-0.2616	-0.0651	0.1965	1092.9746	0.110455	-494.930004	-494.92163	-494.920686	-494.963246	30.906	
O	 0.3545682166	 1.1618433579	 0.574504659	-0.436493
C	 0.0229442844	-0.0872156254	 0.040554945	 0.046299
C	-1.5025853256	-0.3122583935	-0.128935393	-0.350921
C	-1.6682219382	-0.959892704	-1.5011378747	 0.346047
O	-2.6793225062	-1.1117471353	-2.1361978082	-0.310264
C	-0.2851986261	-1.3119330144	-2.0695287903	-0.032927
O	-0.2352632249	-1.4037842759	-3.4482990949	-0.419313
C	 0.5632223363	-0.2437741201	-1.392197261	 0.31011
O	 1.4134199897	 0.4651549892	-1.8598369735	-0.300932
H	 1.0420952488	 1.5252406422	-0.0049384831	 0.298576
H	 0.4492363676	-0.8974732161	 0.6556398785	 0.105016
H	-1.9472734095	-0.9261422787	 0.6588908779	 0.149502
H	-2.022963945	 0.650979091	-0.1281559076	 0.166098
H	-0.0014652918	-2.2649103639	-1.5736140508	 0.126733
H	-1.1573892264	-1.440209313	-3.7459772232	 0.302469
77.2626	92.3687	215.8095	253.7037	291.2271	338.4552	373.1112	402.7603	447.442	488.7617	553.6526	568.9794	641.25	683.2785	819.9316	874.2556	916.222	980.8469	1012.7556	1101.4997	1117.5882	1160.0212	1187.802	1223.3777	1239.8814	1278.8862	1362.0498	1371.6747	1398.2702	1411.9188	1440.5112	1829.6393	1874.912	2890.4576	2962.9092	3066.094	3114.1122	3706.3444	3713.9713
OC1CC(=O)C(O)C1=O	O[C@H]1CC(=O)[C@@H](O)C1=O	
InChI=1S/C5H6O4/c6-2-1-3(7)5(9)4(2)8/h2,5-6,9H,1H2	InChI=1S/C5H6O4/c6-2-1-3(7)5(9)4(2)8/h2,5-6,9H,1H2/t2-,5+/m0/s1
