18
gdb 36670	3.21039	0.79297	0.67434	2.0051	84.99	-0.2474	0.032	0.2794	1635.196	0.145205	-364.716261	-364.706641	-364.705697	-364.751484	35.303	
C	-0.1512521807	-1.1908506051	 0.0367511012	-0.43715
C	-0.0604679277	 0.0016782975	 0.1572587394	 0.291555
C	 0.0775967351	 1.4466612423	 0.2834860959	-0.347593
C	 1.3558296231	 1.9889219598	-0.3912127853	-0.195769
C	 1.4538096646	 3.4891276519	-0.2590717408	-0.014356
N	 1.8434087387	 4.0069719182	 1.0565265622	-0.32185
C	 2.7611773035	 4.203768313	-0.0933892276	-0.25936
C	 4.0251086721	 3.520235596	-0.0657585249	 0.381195
C	 5.0920765111	 2.9662188349	-0.0746098767	-0.441274
H	-0.2413238127	-2.2441531177	-0.0601825314	 0.192501
H	-0.8057092562	 1.9354525851	-0.1497292139	 0.121879
H	 0.0973327973	 1.7285057706	 1.3432248905	 0.147028
H	 2.2328609216	 1.5242846666	 0.0662419798	 0.132564
H	 1.3590173619	 1.7132404149	-1.451673319	 0.112213
H	 0.6945649	 4.0488037539	-0.8062377899	 0.08961
H	 1.3676789535	 4.8823519109	 1.2590903015	 0.237292
H	 2.8063698352	 5.2038780684	-0.5200179394	 0.111346
H	 6.0321161896	 2.4722982387	-0.0708467017	 0.200171
60.765	76.9558	90.4522	154.9825	204.9835	250.4645	331.3874	352.3192	436.1782	505.3332	552.4226	601.5229	614.9315	620.9162	635.8717	660.1794	764.7365	810.5976	828.5978	899.3895	962.3004	966.9988	1013.9902	1031.5366	1042.7975	1122.8735	1167.2829	1207.1215	1244.1856	1264.1629	1287.2711	1316.6463	1368.9633	1408.0368	1459.9819	1474.1229	1488.3237	2239.3908	2240.7059	3015.7008	3049.1544	3059.6196	3096.9186	3115.4241	3124.8603	3503.7725	3504.6427	3507.7981
C#CCCC1NC1C#C	C#CCC[C@H]1N[C@H]1C#C	
InChI=1S/C8H9N/c1-3-5-6-8-7(4-2)9-8/h1-2,7-9H,5-6H2	InChI=1S/C8H9N/c1-3-5-6-8-7(4-2)9-8/h1-2,7-9H,5-6H2/t7-,8+/m0/s1
