19
gdb 103888	3.07717	0.90992	0.79359	2.2364	77.98	-0.2564	0.0504	0.3068	1463.4024	0.156269	-422.967862	-422.957934	-422.95699	-423.003062	36.951	
O	 0.6055711344	 0.4998420447	 0.7730629786	-0.424197
C	-0.01560138	 0.1655890417	-0.4541374989	-0.107139
C	-1.3688432635	-0.466430002	-0.2255137534	 0.337573
O	-2.2281505604	 0.401469205	 0.4856890472	-0.472597
C	-1.9784371048	-1.4247901743	-1.2174546804	-0.357679
C	-1.5342716241	-1.9072287366	 0.1511531006	-0.019158
C	-0.3509349371	-2.8480609518	 0.329573379	-0.387652
C	-0.7356600672	-4.2532596032	 0.2367152272	 0.303586
C	-1.0703462033	-5.4051716345	 0.1632090926	-0.441952
H	-0.0852527553	 0.9058805257	 1.3114916873	 0.288053
H	-0.1446695251	 1.0581245599	-1.0931127832	 0.076383
H	 0.6588802447	-0.5114469912	-0.9858905274	 0.106603
H	-2.516434047	 1.0938925207	-0.1213025109	 0.285208
H	-3.0439898741	-1.3468074115	-1.4026291485	 0.117387
H	-1.3856676337	-1.7143424697	-2.0802215125	 0.11595
H	-2.3428717057	-2.0786329159	 0.8546736948	 0.111043
H	 0.4176815846	-2.6383558995	-0.4237220941	 0.128218
H	 0.1226254783	-2.6569024071	 1.3006899417	 0.146633
H	-1.356700961	-6.4253054506	 0.0978855201	 0.193737
48.7732	76.1088	129.7601	172.865	233.5232	279.4215	339.2378	342.4558	371.5903	399.7547	431.7342	471.7572	529.1638	558.3076	619.2124	642.4475	772.5724	849.4728	864.9742	910.2437	924.4802	959.9672	995.9359	1032.1415	1056.2611	1072.1902	1099.8843	1144.3283	1193.3827	1228.5105	1257.59	1292.7729	1316.298	1349.9361	1369.627	1415.4007	1443.7178	1465.4041	1494.9637	1507.7227	2240.0223	2939.895	3028.1247	3058.6042	3087.4071	3126.9492	3164.8326	3217.6952	3507.6984	3777.5657	3781.3842
OCC1(O)CC1CC#C	OC[C@@]1(O)C[C@H]1CC#C	
InChI=1S/C7H10O2/c1-2-3-6-4-7(6,9)5-8/h1,6,8-9H,3-5H2	InChI=1S/C7H10O2/c1-2-3-6-4-7(6,9)5-8/h1,6,8-9H,3-5H2/t6-,7+/m1/s1
