17
gdb 71472	4.27223	1.21697	1.10324	5.594	78.24	-0.2609	0.0139	0.2749	1117.1306	0.136466	-380.823153	-380.81553	-380.814586	-380.854989	29.782	
C	 0.0551764424	 1.5622132696	 0.0395817663	-0.510277
C	 0.0361016614	 0.0584787802	 0.0506868783	 0.274492
C	-1.2468279813	-0.77277342	 0.2681484517	-0.185494
N	-0.4264981916	-1.8897656545	 0.8441399942	-0.168366
C	 0.6662597688	-0.9308975357	 1.1202914903	-0.140194
C	 0.8288778915	-1.8917491131	-0.0093769061	 0.23845
C	 0.7517320911	-0.7743028252	-1.0517830445	-0.330512
C	 1.580571925	-3.102285846	-0.0795415973	 0.197441
N	 2.2172074386	-4.0638577364	-0.1691758171	-0.347498
H	 1.0782849388	 1.9493479953	-0.0047055512	 0.128599
H	-0.4842921999	 1.94669673	-0.8337040065	 0.13072
H	-0.4233361304	 1.9723725366	 0.9350446611	 0.127572
H	-1.8834858655	-0.3838138241	 1.0671234961	 0.11974
H	-1.8548212796	-1.0352171949	-0.6045487764	 0.108792
H	 1.185791517	-0.8386733728	 2.0650311655	 0.119338
H	 0.207414167	-0.9642413783	-1.9820499246	 0.112634
H	 1.7508803567	-0.3906552307	-1.2708018498	 0.124562
132.5762	150.2146	213.381	279.256	297.0944	417.2295	451.6064	507.3599	542.4391	565.7028	622.1783	719.1428	761.0946	824.3407	863.8769	919.0251	950.884	969.7302	977.1967	1000.4166	1043.1858	1108.179	1123.5773	1136.3055	1163.4232	1185.3532	1221.7265	1241.3799	1269.5776	1359.9166	1363.1848	1419.132	1487.5118	1492.4092	1494.1447	1512.7168	2356.8317	3029.1915	3041.9112	3054.4436	3095.0048	3101.8117	3108.7292	3118.729	3208.3838
CC12CN3C1C3(C2)C#N	C[C@]12CN3[C@H]1[C@@]3(C2)C#N	
InChI=1S/C7H8N2/c1-6-2-7(3-8)5(6)9(7)4-6/h5H,2,4H2,1H3	InChI=1S/C7H8N2/c1-6-2-7(3-8)5(6)9(7)4-6/h5H,2,4H2,1H3/t5-,6+,7-,9?/m1/s1
