19
gdb 120454	2.93495	0.87498	0.77153	2.2665	73.25	-0.2524	-0.0306	0.2219	1524.9505	0.156351	-460.158571	-460.148586	-460.147642	-460.194515	34.889	
C	 0.508415534	 1.4830786187	-0.183984964	-0.403225
C	 0.0892412141	 0.0414167579	 0.0389474316	 0.036116
O	 0.8198986048	-0.9202056748	-0.7656854821	-0.316199
C	 1.2746084827	-1.6963186505	 0.3739223109	 0.00185
C	 2.7844081753	-1.8450147541	 0.4618226846	-0.191427
C	 3.3505252384	-2.6613698433	-0.6948445584	-0.07601
O	 4.7545544286	-2.745076962	-0.5116785868	-0.420558
C	 0.598033675	-0.6749535305	 1.2998290182	 0.321031
O	 0.5381022319	-0.4896801752	 2.4767594374	-0.281812
H	 1.5817952966	 1.6102390185	-0.0197044054	 0.129822
H	 0.2748720234	 1.7905479587	-1.2074230287	 0.135445
H	-0.0324800309	 2.136954231	 0.5070018924	 0.136656
H	-0.9959330819	-0.0754297859	-0.0976620913	 0.105691
H	 0.7821775547	-2.6806970699	 0.4002729169	 0.102624
H	 3.2585394077	-0.8578491746	 0.4680795164	 0.113411
H	 3.0326940035	-2.3338080028	 1.4110763936	 0.125136
H	 2.8858902662	-3.6616378535	-0.7027226409	 0.084837
H	 3.0931300162	-2.1708074916	-1.6448252985	 0.108894
H	 5.1313311897	-3.1918026463	-1.275239296	 0.287717
50.7817	86.9069	102.8051	116.5508	194.967	199.9806	252.2518	256.4051	342.7008	385.9267	438.1825	535.0117	629.4199	696.0633	795.5609	842.0757	880.9117	896.7408	1001.1281	1026.303	1049.1286	1063.7474	1083.7042	1106.3653	1127.0528	1145.4161	1211.9856	1226.4496	1259.9236	1282.9931	1308.6919	1317.6979	1344.1872	1386.0349	1399.3491	1460.415	1476.2711	1482.0588	1494.5747	1529.0963	1919.3091	2961.673	2989.9359	3002.4065	3013.2916	3043.1299	3045.2686	3093.6059	3119.5247	3124.4534	3831.6185
CC1OC(CCO)C1=O	C[C@H]1O[C@@H](CCO)C1=O	
InChI=1S/C6H10O3/c1-4-6(8)5(9-4)2-3-7/h4-5,7H,2-3H2,1H3	InChI=1S/C6H10O3/c1-4-6(8)5(9-4)2-3-7/h4-5,7H,2-3H2,1H3/t4-,5+/m1/s1
