21
gdb 72720	2.58495	1.94164	1.54354	1.8703	82.29	-0.2304	0.0619	0.2923	970.3026	0.183415	-386.984008	-386.976533	-386.975589	-387.015103	32.033	
C	-0.0727805596	 1.4980843531	-0.0550312846	-0.43816
C	-0.0062816921	-0.0334581196	-0.1073135129	 0.306195
C	 1.2834652714	-0.4503495228	-0.9343788062	-0.332403
C	 2.0473843832	-0.4206411487	 0.4875407452	-0.345953
C	 0.6331046254	-0.7383483523	 1.0352004358	 0.401721
C	 0.2816571661	-2.2518345761	 0.9278387855	-0.24224
C	-1.2215279389	-2.1233052771	 0.572528954	-0.221402
C	-1.2770383882	-0.602179503	 0.6560239642	-0.028591
O	-0.5078212906	-0.3271166139	 1.9233072866	-0.390713
H	 0.915009739	 1.9680368	-0.0837901641	 0.107789
H	-0.620315023	 1.8561940185	-0.9356614555	 0.109079
H	-0.5875477577	 1.8501852644	 0.8400396407	 0.135991
H	 1.2844859541	-1.4423793335	-1.3839795024	 0.116861
H	 1.6200732715	 0.28015141	-1.6727882636	 0.106892
H	 2.8371893883	-1.1548992	 0.6641690581	 0.104952
H	 2.4209299036	 0.5799356375	 0.7052460089	 0.124341
H	 0.8659212335	-2.8093216541	 0.1937745615	 0.095595
H	 0.4452158538	-2.7086503486	 1.9067861393	 0.108344
H	-1.4755263272	-2.5001004046	-0.4225494153	 0.097523
H	-1.8816808713	-2.5934686304	 1.3041675541	 0.107058
H	-2.2370998812	-0.0834107288	 0.6376083907	 0.07712
198.3157	214.7455	262.9822	330.9677	356.6444	411.8358	449.4457	481.1396	544.1315	596.313	667.0861	712.9031	770.3678	810.2587	815.8092	845.3321	861.6726	888.9282	927.1716	938.9162	956.7342	968.4035	988.0498	1033.6321	1079.4625	1098.1134	1151.4146	1165.5851	1169.9252	1180.7912	1204.0254	1217.3228	1230.6626	1247.7192	1262.7917	1276.7132	1304.9316	1348.8921	1405.3864	1468.9598	1480.5076	1489.5271	1503.7096	1508.2685	1509.9904	3029.5097	3060.2518	3071.6673	3074.0833	3080.2369	3087.8714	3105.0449	3110.9563	3123.5054	3137.2738	3139.0161	3153.8088
CC12CCC11CCC2O1	C[C@@]12CC[C@@]31CC[C@H]2O3	
InChI=1S/C8H12O/c1-7-4-5-8(7)3-2-6(7)9-8/h6H,2-5H2,1H3	InChI=1S/C8H12O/c1-7-4-5-8(7)3-2-6(7)9-8/h6H,2-5H2,1H3/t6-,7+,8-/m1/s1
