19
gdb 107944	3.82088	1.23057	1.11369	2.1084	75.22	-0.2371	0.0793	0.3164	1142.547	0.158112	-422.958157	-422.949833	-422.948889	-422.990751	32.67	
C	-0.0337864726	 1.3347811331	 0.0579145567	-0.266452
O	-0.0008812732	-0.0792193852	 0.0100261882	-0.292446
C	 0.6330595557	-0.5820912703	-1.1066421853	 0.432585
C	 0.0165133725	-0.4754886605	-2.5378563759	-0.302317
C	 0.7486019167	-1.7900814737	-2.8025073101	-0.139676
C	 0.8219757557	-2.1316835227	-1.3244214608	-0.209876
C	 2.0853155483	-1.7462039756	-2.0324902386	 0.400263
O	 3.1260172379	-2.6010029273	-2.32945884	-0.461778
C	 2.1706138664	-0.3892110541	-1.3362627815	-0.370688
H	 0.9782793941	 1.7636178002	 0.076703666	 0.114528
H	-0.5770298937	 1.7588879278	-0.7986382474	 0.113533
H	-0.5530928985	 1.6110697793	 0.9778475488	 0.129872
H	-1.0675918025	-0.6205277116	-2.5071404993	 0.104299
H	 0.2631347304	 0.4032977192	-3.1450574207	 0.084263
H	 0.6163630117	-2.4879184426	-3.6195394324	 0.088517
H	 0.5272026354	-3.0009923087	-0.7568428771	 0.101828
H	 3.5124773108	-2.3287055244	-3.1692896255	 0.284682
H	 2.507995434	 0.4860725846	-1.9042538768	 0.080459
H	 2.7158268407	-0.4704114173	-0.3918962684	 0.108405
84.3021	179.019	189.9906	249.8595	307.7682	340.8543	368.1224	415.3245	447.7439	474.5152	595.1994	637.4047	738.6239	744.0529	826.2345	894.7575	899.2273	945.9323	949.9671	963.639	1009.8202	1039.1423	1078.0373	1100.444	1112.6215	1128.3838	1143.3222	1180.3909	1183.0419	1212.4973	1228.1403	1244.1047	1287.2806	1302.555	1342.5525	1438.1852	1483.1212	1488.4443	1492.0439	1506.4956	1512.4759	2991.1628	3023.2811	3031.4398	3043.1402	3093.4663	3104.5379	3123.7549	3197.843	3239.6052	3789.2009
COC12CC3C1C3(O)C2	CO[C@]12C[C@@H]3[C@H]1[C@]3(O)C2	
InChI=1S/C7H10O2/c1-9-6-2-4-5(6)7(4,8)3-6/h4-5,8H,2-3H2,1H3	InChI=1S/C7H10O2/c1-9-6-2-4-5(6)7(4,8)3-6/h4-5,8H,2-3H2,1H3/t4-,5-,6+,7+/m1/s1
