18
gdb 68523	2.89	1.67935	1.3991	3.727	75.61	-0.2296	-0.0133	0.2163	980.1341	0.149671	-401.988546	-401.98128	-401.980336	-402.019697	30.073	
C	-0.0492809199	 1.5220969241	-0.0059436061	-0.495722
C	 0.0336876199	 0.0114370965	-0.0142023256	 0.278827
C	 0.7495134332	-0.6943176543	-1.1949177406	-0.233594
C	 0.4465115836	-2.1055759964	-0.6294849008	-0.189909
C	 0.99666256	-1.9360288899	 0.7922203437	-0.091512
C	 0.7585778947	-0.6769743764	 1.1643231805	-0.114201
C	-1.0912833571	-1.9893723186	-0.4365328637	 0.420802
O	-1.9199490351	-2.866404947	-0.4620796131	-0.378214
N	-1.295837914	-0.6428697137	-0.174991816	-0.333254
H	 0.9544675266	 1.9556739221	 0.0357530743	 0.127612
H	-0.5512963843	 1.890828732	-0.9049887579	 0.130577
H	-0.6038569183	 1.8851127646	 0.8668249146	 0.119396
H	 0.2740550545	-0.4805475657	-2.1562777713	 0.107468
H	 1.8185666503	-0.4774413297	-1.2335449857	 0.105556
H	 0.7548186115	-2.9882431193	-1.1837982258	 0.085979
H	 1.4153601022	-2.7416405774	 1.3798606744	 0.113515
H	 0.9494184511	-0.2126503634	 2.1234344753	 0.102599
H	-2.0736827789	-0.3838074577	 0.4145817437	 0.244075
164.7867	221.7174	264.7824	290.3432	397.1572	455.5201	493.6893	517.386	553.6039	601.719	662.4221	695.6076	765.0766	770.9279	833.1493	870.4671	891.5262	922.2867	927.0981	950.7612	964.162	1011.331	1082.5915	1102.3727	1142.6563	1166.0757	1199.561	1234.1796	1247.0199	1270.4572	1288.1537	1330.4113	1380.427	1416.885	1490.1199	1491.0471	1494.9822	1636.9168	1845.8729	3034.4044	3063.3238	3099.5706	3118.0567	3129.3271	3156.3687	3205.6461	3234.5645	3611.4885
CC12CC(C=C1)C(=O)N2	C[C@@]12C[C@@H](C=C1)C(=O)N2	
InChI=1S/C7H9NO/c1-7-3-2-5(4-7)6(9)8-7/h2-3,5H,4H2,1H3,(H,8,9)	InChI=1S/C7H9NO/c1-7-3-2-5(4-7)6(9)8-7/h2-3,5H,4H2,1H3,(H,8,9)/t5-,7+/m1/s1
