19
gdb 94576	2.84483	1.43332	1.22491	1.8211	70.55	-0.2454	0.0649	0.3103	1083.3632	0.160038	-460.119855	-460.111608	-460.110664	-460.153413	30.618	
O	 0.2384287467	 1.3220945053	-0.289694184	-0.435297
C	 0.039916632	-0.0009139723	 0.1072772746	 0.088221
C	-0.3377210149	-0.3033610976	 1.5766750867	-0.106156
O	-1.5034315627	-1.0536475706	 1.1645195666	-0.297789
C	-1.3165454428	-0.7010226754	-0.2240721055	 0.056694
C	-2.4155907032	 0.2045408994	-0.7396648134	 0.117239
C	-3.8571539257	-0.1631344859	-0.3181375737	-0.29018
C	-3.8094108647	 1.1416002071	 0.5004625114	-0.061472
O	-2.482398885	 1.4502612612	 0.0105109349	-0.310151
H	-0.5539179855	 1.8174507478	-0.0342862925	 0.299873
H	 0.9072798514	-0.5662503533	-0.2405333859	 0.098147
H	 0.3597881309	-0.9183964107	 2.1565034751	 0.102325
H	-0.6052042432	 0.5922625557	 2.1507544315	 0.102845
H	-1.2557510766	-1.5956365259	-0.8599742471	 0.075553
H	-2.2638356381	 0.4014448464	-1.8083022102	 0.089632
H	-4.5839947671	-0.1767092103	-1.1306264857	 0.112855
H	-3.9366707185	-1.0749061277	 0.2729582252	 0.132841
H	-4.5291401748	 1.9178094557	 0.2184756584	 0.107466
H	-3.8158612882	 1.0122876311	 1.5875290237	 0.117354
70.2285	94.3813	110.5127	191.4424	252.8743	303.3251	418.0165	512.8312	620.775	627.7637	748.0402	781.28	800.444	848.1072	894.341	919.6993	948.437	977.1446	997.1917	1018.3814	1027.6652	1056.5686	1098.0169	1122.0868	1153.4452	1167.0542	1174.2834	1215.2375	1227.2192	1259.3742	1266.0774	1277.8974	1323.0142	1334.7954	1366.8362	1376.0058	1377.9006	1472.9626	1481.0351	1509.882	1522.5194	3005.4054	3019.1611	3031.564	3036.8784	3067.8834	3081.8113	3093.479	3094.431	3154.9713	3718.0967
OC1COC1C1CCO1	O[C@H]1CO[C@H]1[C@H]1CCO1	
InChI=1S/C6H10O3/c7-4-3-9-6(4)5-1-2-8-5/h4-7H,1-3H2	InChI=1S/C6H10O3/c7-4-3-9-6(4)5-1-2-8-5/h4-7H,1-3H2/t4-,5+,6+/m0/s1
