17
gdb 27234	2.17998	1.90397	1.03936	4.4312	77.44	-0.1814	0.0418	0.2233	1125.1347	0.137408	-418.037487	-418.029227	-418.028283	-418.070676	30.329	
C	 0.0256986398	 1.5387593885	 0.1813409182	-0.499959
C	-0.0430023358	 0.0596381582	 0.0403671106	 0.140473
C	-1.0588570346	-0.8157773016	-0.0981908347	 0.246978
C	-2.4678138537	-1.2742271232	-0.4306365388	-0.379602
C	-1.8140955319	-2.6945505091	-0.6626061002	-0.167178
N	-0.5460783804	-2.1014312221	-0.2075908248	-0.107816
C	 0.83970436	-2.1149147174	-0.2268137947	 0.428198
O	 1.6297410786	-3.025572376	-0.3691684627	-0.436144
N	 1.1119793129	-0.7556446303	 0.003731777	-0.4098
H	 0.6137313645	 1.9981974878	-0.6231540665	 0.131875
H	-0.9798321439	 1.9648381281	 0.147385642	 0.1352
H	 0.4827869784	 1.8416779022	 1.132020061	 0.132662
H	-3.1861573199	-1.2413436399	 0.3920042895	 0.129283
H	-2.9207375745	-0.8272687733	-1.3181376777	 0.130139
H	-2.1802823836	-3.5052063093	-0.0286103764	 0.130961
H	-1.7956166814	-3.0201693642	-1.7060647346	 0.134459
H	 2.0574633955	-0.4336193284	 0.1171122129	 0.260272
62.1022	152.1449	177.4172	204.4884	243.4227	288.4089	322.0549	435.8598	603.2833	608.7557	637.129	693.4472	723.4945	730.9232	793.1195	899.2086	959.5793	998.3678	1049.6401	1065.36	1076.2028	1144.2281	1186.91	1200.0667	1231.0019	1250.4323	1269.4137	1326.7851	1377.4581	1393.2895	1422.6904	1474.9362	1482.4947	1496.9496	1518.2425	1739.3786	1832.1958	3015.3382	3058.9445	3061.5343	3070.2045	3109.1462	3120.2765	3124.595	3684.1851
CC1=C2CCN2C(=O)N1	C[C]1[C]2CCN2C(=O)N1	
InChI=1S/C6H8N2O/c1-4-5-2-3-8(5)6(9)7-4/h2-3H2,1H3,(H,7,9)	InChI=1S/C6H8N2O/c1-4-5-2-3-8(5)6(9)7-4/h2-3H2,1H3,(H,7,9)
