17
gdb 41247	2.98133	2.13479	1.71591	2.0526	70.17	-0.2257	0.0587	0.2844	832.5702	0.138431	-421.729958	-421.724075	-421.723131	-421.759856	25.483	
C	 0.0087916422	 1.4762410096	-0.2039193678	-0.146027
O	 1.425980071	 1.5775332675	 0.1864713072	-0.357559
C	 1.298231099	 0.3287573635	 0.8547819986	 0.412434
C	 2.0431858694	-1.0048868575	 1.01163478	-0.33673
C	 0.8206399527	-1.3014926758	 1.9494998305	-0.091919
C	-0.5851763588	-0.772416633	 1.3334092492	 0.026908
O	-0.6577148135	 0.2515194082	 2.3595638561	-0.285269
C	 0.7724779793	 0.1823745418	 2.3506133084	 0.036011
C	 0.0109055749	-0.0377096139	 0.1320219286	-0.069114
H	-0.6209019505	 2.0940645838	 0.4413002807	 0.126089
H	-0.1280607355	 1.7421413107	-1.2548432447	 0.111304
H	 2.2108069957	-1.5982940868	 0.1104197143	 0.107896
H	 2.9507523395	-0.9741332898	 1.6227029785	 0.112274
H	 0.8046779386	-2.119235901	 2.6653023776	 0.091631
H	-1.4824290306	-1.3858455816	 1.2630831556	 0.083076
H	 1.2886904707	 0.6618166691	 3.180358611	 0.092122
H	 0.1620023158	-0.6695967648	-0.7444740541	 0.086872
240.5094	286.1467	408.599	440.6492	507.75	605.1231	684.6534	697.0046	765.473	779.5694	823.3396	840.8388	882.9942	910.1628	927.4389	933.9018	973.5669	995.3204	1021.2197	1033.9492	1046.9353	1087.8355	1106.7422	1146.7114	1159.2667	1173.1197	1179.8102	1197.0306	1213.5941	1242.2607	1261.7806	1285.6532	1319.4741	1340.9033	1361.5674	1497.5199	1500.998	3055.1166	3057.8089	3097.6432	3118.6003	3122.5158	3130.5423	3141.6579	3160.7001
C1OC23CC4C(OC24)C13	C1O[C@@]23C[C@@H]4[C@@H](O[C@H]24)[C@@H]13	
InChI=1S/C7H8O2/c1-3-5-4-2-8-7(1,4)6(3)9-5/h3-6H,1-2H2	InChI=1S/C7H8O2/c1-3-5-4-2-8-7(1,4)6(3)9-5/h3-6H,1-2H2/t3-,4-,5-,6+,7-/m1/s1
