14
gdb 127911	3.84009	1.1848	0.91052	4.488	71.32	-0.2692	-0.0776	0.1916	1203.2568	0.100916	-470.010123	-470.002145	-470.001201	-470.04334	28.46	
C	 0.1286016471	 1.4373487685	-0.1246432131	-0.337691
N	-0.0290065433	 0.0013667446	-0.1148690095	-0.294332
C	-1.1538241123	-0.5628846854	 0.0522558123	 0.380797
N	-1.2091036093	-1.9564966523	 0.0466361095	-0.435401
C	-2.3296049087	-2.7257635564	 0.210923008	 0.524213
O	-2.3526579356	-3.9215771104	 0.2024515791	-0.35122
O	-3.5100541748	-2.0278761742	 0.3993579242	-0.264737
N	-3.5707984324	-0.6340183933	 0.4227893189	-0.034113
C	-2.4842610918	 0.0209618876	 0.2625019462	-0.024371
H	 0.8426402695	 1.7198355183	 0.6572836567	 0.144406
H	 0.5754321063	 1.7373675032	-1.0793144998	 0.144406
H	-0.7860036262	 2.026314941	 0.0220361013	 0.113368
H	-0.3401915246	-2.4545994145	-0.0918618467	 0.280422
H	-2.6096486938	 1.0959915934	 0.2925904529	 0.154252
83.2038	87.0426	141.6724	238.0233	249.6104	381.088	409.731	481.9822	563.0698	588.7326	659.5632	716.8378	722.1431	752.6593	898.4648	913.979	923.4977	998.2216	1057.7093	1127.8572	1155.6611	1267.856	1343.7639	1369.4425	1437.0994	1449.9712	1478.5089	1506.9858	1662.5523	1748.7983	1886.7398	3008.6385	3073.6779	3080.8293	3220.5417	3610.6295
CN=C1NC(=O)ON=C1	CN=c1[nH]c(=O)onc1	
InChI=1S/C4H5N3O2/c1-5-3-2-6-9-4(8)7-3/h2H,1H3,(H,5,7,8)	InChI=1S/C4H5N3O2/c1-5-3-2-6-9-4(8)7-3/h2H,1H3,(H,5,7,8)
