19
gdb 11413	5.54006	1.15777	1.0004	3.9261	71.77	-0.2354	0.0384	0.2738	1179.1519	0.167074	-365.121098	-365.112947	-365.112003	-365.153828	30.304	
C	-0.0084271978	 1.5555683885	 0.0779521866	-0.388023
C	-0.0510545336	 0.02800264	-0.0339349616	-0.191062
C	 0.7252169684	-0.5266741519	-1.2300074863	 0.038592
C	 2.2496727564	-0.2424890231	-1.1914111852	-0.175447
N	 2.7987798322	-1.3422034784	-1.9624404933	-0.302741
C	 1.9823865378	-2.4388729689	-2.066876163	 0.400325
O	 2.2745980675	-3.4966939541	-2.578983247	-0.379314
C	 0.6599128473	-2.0557888821	-1.3950053935	-0.355869
H	 1.0143001167	 1.9232937004	 0.2138221165	 0.119483
H	-0.4140452072	 2.0295128555	-0.822841094	 0.117635
H	-0.598073617	 1.9043712953	 0.9309451791	 0.117674
H	 0.3437375932	-0.421917683	 0.8872042847	 0.097282
H	-1.0945617572	-0.3016607909	-0.1097267664	 0.102429
H	 0.3325093687	-0.0689293566	-2.1471206524	 0.084599
H	 2.5063595084	 0.7240089277	-1.6358872358	 0.112893
H	 2.6222092122	-0.2428185539	-0.1547526962	 0.100966
H	 3.7715784086	-1.4132204379	-2.2157800372	 0.248615
H	 0.6199766142	-2.5637565933	-0.4225714512	 0.123682
H	-0.1896341888	-2.4095963334	-1.9817781937	 0.128281
79.9886	120.0092	161.2817	200.2696	248.9593	348.1238	412.8517	487.5487	502.0552	555.8928	629.4362	695.0082	780.6098	840.0339	879.2552	924.1068	951.067	990.9745	1030.8897	1074.9168	1086.6279	1129.7777	1149.4217	1192.0127	1236.6692	1256.8334	1270.4271	1303.0328	1329.5691	1344.5998	1367.1654	1394.3556	1414.2297	1447.8127	1470.2543	1487.8694	1501.7072	1507.3736	1533.9348	1833.4542	2975.5624	3013.6302	3021.9944	3032.6271	3037.4543	3053.333	3069.1227	3099.0004	3106.0403	3117.881	3639.7488
CCC1CNC(=O)C1	CC[C@H]1CNC(=O)C1	
InChI=1S/C6H11NO/c1-2-5-3-6(8)7-4-5/h5H,2-4H2,1H3,(H,7,8)	InChI=1S/C6H11NO/c1-2-5-3-6(8)7-4-5/h5H,2-4H2,1H3,(H,7,8)/t5-/m1/s1
