16
gdb 68936	2.26187	1.68663	1.17783	2.5026	72.73	-0.2601	-0.041	0.219	1060.1047	0.122351	-437.876778	-437.868348	-437.867404	-437.909878	31.025	
C	 0.0783641737	 1.3949658862	 0.1823549348	-0.486623
C	 0.0819270077	-0.0876975693	 0.0494843911	 0.41246
C	 1.1494709361	-0.9806939889	-0.4191478597	-0.364703
C	 0.6046647418	-1.1929006472	 1.011203048	 0.033668
C	 1.4523916939	-1.0400859167	 2.2015251754	 0.065493
O	 2.51198638	-0.453652316	 2.1952113025	-0.282058
C	-0.7860731256	-1.7136263299	 0.9066930431	 0.381626
N	-1.432255557	-2.6121675238	 1.4914107281	-0.552937
O	-1.1967781182	-0.7724132201	-0.0414814973	-0.297237
H	 1.0734047359	 1.7392580424	 0.4761932885	 0.158017
H	-0.182090961	 1.8632606214	-0.7728985765	 0.14621
H	-0.6465334424	 1.7160879776	 0.9348706298	 0.144195
H	 0.9418904449	-1.7378825567	-1.167892491	 0.139949
H	 2.1554057449	-0.5726768851	-0.4037336786	 0.159837
H	 1.0355341407	-1.4857228648	 3.1273332821	 0.105854
H	-2.4053820455	-2.6372646992	 1.1831421097	 0.23625
91.6602	143.8125	162.4285	196.692	207.4982	324.6477	348.3214	389.4776	479.0839	590.7168	622.9595	646.5116	705.1701	758.0885	818.5781	869.9508	931.7516	967.0906	971.4861	985.528	1040.7672	1061.6931	1103.5053	1124.1034	1190.5692	1243.4297	1341.9435	1385.4931	1426.4169	1433.479	1474.5736	1484.2161	1499.3369	1786.9856	1834.5682	2931.0876	3042.7407	3111.5583	3129.3826	3133.3694	3230.091	3484.9276
CC12CC1(C=O)C(=N)O2	C[C@@]12C[C@]1(C=O)[C]([NH])O2	
InChI=1S/C6H7NO2/c1-5-2-6(5,3-8)4(7)9-5/h3,7H,2H2,1H3	InChI=1S/C6H7NO2/c1-5-2-6(5,3-8)4(7)9-5/h3,7H,2H2,1H3/t5-,6+/m1/s1
