21
gdb 112012	2.50845	1.42425	1.086	1.7193	82.98	-0.2415	0.0026	0.244	1212.9551	0.181744	-387.090807	-387.081801	-387.080856	-387.124357	34.514	
C	-0.0923374802	 1.5519710685	 0.0710916552	-0.391615
C	-0.0717925766	 0.0283670825	-0.0801731856	-0.172198
C	 0.7580054162	-0.475943029	-1.2777193733	-0.0976
C	 2.2468415111	-0.1875595433	-1.1853772457	-0.086182
C	 2.9918280002	-1.2915754017	-1.282734652	-0.089904
C	 2.112498618	-2.4897130059	-1.4150295042	-0.073541
O	 1.2413556129	-2.6884285608	-0.2712337992	-0.30245
C	 0.7195530458	-2.0084880971	-1.4235573693	 0.399834
C	-0.4284321329	-2.6775630032	-2.1277409951	-0.490367
H	 0.9067457588	 1.9550246089	 0.2652243131	 0.118073
H	-0.4767060964	 2.0381563017	-0.8329350416	 0.111771
H	-0.733480921	 1.8514546253	 0.905957273	 0.114905
H	 0.3198592678	-0.4407676726	 0.828030148	 0.118793
H	-1.1013861382	-0.3330486113	-0.1985671464	 0.094461
H	 0.3485359052	-0.0195339684	-2.1922348412	 0.07556
H	 2.6344705976	 0.8125613604	-1.0270298244	 0.101583
H	 4.0731426113	-1.3404372949	-1.2445040727	 0.100416
H	 2.4378374607	-3.4039337508	-1.9036481174	 0.090569
H	-1.3721951848	-2.4870079939	-1.6038519068	 0.127273
H	-0.5313062922	-2.30076569	-3.1509011237	 0.121091
H	-0.2766523432	-3.7591376146	-2.1645326606	 0.129528
81.6867	127.8184	172.4018	187.4205	240.0257	274.7717	296.0342	337.9574	461.417	503.5073	560.7497	603.0997	719.9479	755.7622	766.2938	832.2392	861.1895	866.6462	934.051	946.3632	966.6497	985.5131	1007.3316	1045.8727	1059.6213	1099.6498	1117.8193	1138.6651	1148.7722	1215.7431	1268.7376	1272.7013	1302.3939	1336.12	1365.5998	1375.7447	1407.8359	1412.9379	1447.3287	1484.1178	1489.2186	1495.7511	1501.6658	1507.5213	1661.0461	2985.9759	3024.5702	3031.03	3032.3544	3076.8579	3092.7938	3100.6656	3104.8026	3122.5707	3153.8948	3190.2361	3216.9816
CCC1C=CC2OC12C	CC[C@H]1C=C[C@H]2O[C@@]12C	
InChI=1S/C8H12O/c1-3-6-4-5-7-8(6,2)9-7/h4-7H,3H2,1-2H3	InChI=1S/C8H12O/c1-3-6-4-5-7-8(6,2)9-7/h4-7H,3H2,1-2H3/t6-,7+,8-/m0/s1
