20
gdb 7152	4.03862	0.79794	0.6917	1.2309	80.76	-0.2408	0.0622	0.303	1650.5814	0.174161	-348.981232	-348.970539	-348.969595	-349.018835	36.129	
C	 0.0215366568	 1.467931994	-0.0430639996	-0.497794
C	 0.0243921188	 0.0115623957	-0.0288527009	 0.079531
C	 0.0330788783	-1.1927333489	-0.0103919667	 0.055629
C	 0.0264755787	-2.6565672979	-0.011810642	-0.163438
C	-1.4025767711	-3.191623833	 0.221051422	-0.383275
C	 0.6646687914	-3.1929201933	-1.3142226135	-0.155431
C	 0.8747678322	-4.7028600701	-1.3301332217	-0.086966
O	 1.5991131853	-5.0166498493	-2.5110091718	-0.421805
H	 0.6476802829	 1.8765120182	 0.7580755836	 0.145126
H	 0.4046977992	 1.8583253699	-0.9925292554	 0.146335
H	-0.9899566372	 1.8668251272	 0.0931309395	 0.144929
H	 0.6508144126	-2.9972608489	 0.8279075991	 0.09789
H	-1.4063573484	-4.280378517	 0.3263917181	 0.112376
H	-1.8297575967	-2.7612860891	 1.1304825755	 0.123158
H	-2.0536853875	-2.9237906055	-0.6171080696	 0.123338
H	 0.0460479382	-2.9043048458	-2.1715364429	 0.10993
H	 1.6401513361	-2.7169396116	-1.4564111402	 0.115751
H	 1.4319043629	-5.0089845515	-0.4280863716	 0.082129
H	-0.0908265708	-5.2304594881	-1.3110572155	 0.087918
H	 1.6956859884	-5.9721000449	-2.5588850964	 0.284671
17.1956	71.5067	78.3655	92.8616	149.529	218.4755	244.2196	263.5099	292.8817	325.5219	346.0871	403.633	520.0713	550.7526	738.9055	796.344	884.3742	967.5519	1017.7911	1025.9953	1053.4306	1053.7842	1078.4973	1111.2528	1150.3923	1193.7805	1233.4068	1242.3807	1307.8921	1311.948	1340.2692	1368.4459	1407.468	1415.2694	1461.8055	1479.446	1479.6599	1488.8114	1494.4669	1503.4352	1528.4469	2369.9702	2954.1245	2987.8091	2995.1451	3024.3322	3040.1802	3045.9902	3083.7044	3084.2627	3091.5555	3112.2294	3118.8093	3829.7298
CC#CC(C)CCO	CC#C[C@@H](C)CCO	
InChI=1S/C7H12O/c1-3-4-7(2)5-6-8/h7-8H,5-6H2,1-2H3	InChI=1S/C7H12O/c1-3-4-7(2)5-6-8/h7-8H,5-6H2,1-2H3/t7-/m1/s1
