18
gdb 71344	3.22571	1.59092	1.24487	0.8553	76.87	-0.2346	0.0687	0.3034	1030.7936	0.147005	-401.822374	-401.814897	-401.813953	-401.854007	29.83	
C	-0.0407135519	 1.5082108917	 0.0629126289	-0.526844
C	 0.0125773502	 0.0057568326	-0.0242562697	 0.332838
C	 0.5280625174	-0.9148520593	-1.1291283334	-0.233887
N	 0.0688993435	-1.9539091365	-0.1092236215	-0.165982
C	 0.5662541321	-1.0185935842	 1.0334302043	-0.188223
C	-0.7783167094	-1.1417346369	 1.7201596305	 0.546801
C	-1.3091435044	-1.8222725202	 2.8892326429	-0.290236
O	-1.2759328678	-0.3756108536	 2.7890913592	-0.293421
C	-1.1354274918	-1.0336218851	 0.2520268268	-0.188225
H	 0.9632927183	 1.9404469839	-0.0106404611	 0.122115
H	-0.6450790393	 1.9262717554	-0.7496354953	 0.122113
H	-0.480215216	 1.8263629149	 1.0133620054	 0.143221
H	-0.0283554218	-0.9551620873	-2.0719550925	 0.100142
H	 1.6062705462	-0.940731878	-1.321341792	 0.100143
H	 1.5824571685	-1.1032563828	 1.4203442575	 0.086659
H	-2.3044499212	-2.2619928505	 2.8600448948	 0.123063
H	-0.6320446257	-2.2472247261	 3.6280109635	 0.123063
H	-2.0898029369	-1.135690308	-0.2659386383	 0.086659
122.472	202.9224	228.1231	283.2775	293.5914	363.9736	484.2089	504.4675	555.797	670.8094	710.6556	818.8395	834.5802	841.5253	878.2251	886.9346	897.7174	938.8688	997.1983	1014.9992	1058.9839	1086.9054	1098.0282	1111.528	1132.0567	1138.8706	1152.4993	1159.9265	1196.2117	1221.8873	1242.2142	1264.3785	1337.2647	1408.7465	1472.451	1489.1125	1491.2295	1524.2013	1563.0308	3028.6646	3032.0481	3088.5942	3090.2565	3094.5135	3109.229	3111.343	3116.0345	3178.1973
CC12CN3C1C1(CO1)C23	C[C@@]12CN3[C@@H]1[C@]1(CO1)[C@@H]23	
InChI=1S/C7H9NO/c1-6-2-8-4(6)7(3-9-7)5(6)8/h4-5H,2-3H2,1H3	InChI=1S/C7H9NO/c1-6-2-8-4(6)7(3-9-7)5(6)8/h4-5H,2-3H2,1H3/t4-,5+,6+,7+
