19
gdb 85446	2.59828	1.47923	1.11871	4.0463	76.95	-0.2517	0.0295	0.2813	1134.6924	0.160211	-419.206647	-419.198329	-419.197385	-419.239672	32.059	
C	 0.3023137211	 1.4836042493	-0.2879716308	-0.393069
C	-0.0800427435	 0.0724144764	 0.1479841429	 0.039521
O	 0.1639285776	-0.8492797888	-0.9348262509	-0.24991
C	 1.2819584898	-1.6105953461	-0.7057660209	 0.414112
N	 1.7342139376	-2.4712206234	-1.5088509353	-0.541143
C	 1.8709600446	-1.2526190941	 0.6417921914	-0.375614
C	 0.7439595357	-0.4871367344	 1.3078873613	 0.311974
C	 0.8034948968	 0.1579395922	 2.6354003579	-0.302434
N	 0.0948715291	-1.1262093669	 2.4617687945	-0.348711
H	 1.3782100562	 1.5583805776	-0.473381157	 0.127718
H	-0.2235766582	 1.7466497787	-1.2096816522	 0.133125
H	 0.0343273941	 2.2117067538	 0.4833694023	 0.120706
H	-1.1538193239	 0.0263323497	 0.3654482775	 0.089318
H	 1.1578938352	-2.512399849	-2.3514210833	 0.220574
H	 2.1620487304	-2.141363302	 1.2011864676	 0.152715
H	 2.761731435	-0.6308876659	 0.4969109221	 0.132433
H	 1.7140817083	 0.1029814394	 3.226035655	 0.125387
H	 0.2179415245	 1.0598919113	 2.7989777558	 0.113575
H	-0.9101313202	-0.9658187979	 2.4393925421	 0.229723
81.5537	96.2828	219.3585	241.4693	282.5198	326.529	375.8686	481.2907	485.9075	523.0219	539.8262	676.9337	770.2775	825.4294	842.5174	892.3486	914.973	922.3356	943.4787	968.7336	1004.8299	1030.9256	1075.9433	1080.6468	1110.1665	1125.6239	1145.1875	1181.5848	1255.312	1266.3833	1270.9249	1317.5951	1347.3805	1372.2653	1408.4042	1424.2588	1461.8865	1487.5312	1493.3956	1517.575	1781.6452	3035.3232	3042.6714	3052.0579	3102.4059	3117.8866	3122.9434	3140.5651	3185.5889	3470.207	3484.9462
CC1OC(=N)CC11CN1	C[C@H]1O[C]([NH])C[C@]21CN2	
InChI=1S/C6H10N2O/c1-4-6(3-8-6)2-5(7)9-4/h4,7-8H,2-3H2,1H3	InChI=1S/C6H10N2O/c1-4-6(3-8-6)2-5(7)9-4/h4,7-8H,2-3H2,1H3/t4-,6-/m1/s1
