16
gdb 45322	2.75137	1.683	1.2938	3.2645	69.23	-0.2499	-0.032	0.2179	979.2564	0.125458	-437.900557	-437.89327	-437.892326	-437.932961	27.459	
O	-0.0005960904	-0.0536098364	-0.3190271962	-0.287134
C	-0.0520509563	 1.1146189193	-0.0763334356	 0.388064
C	-1.1784617423	 2.0974775549	 0.294441661	-0.352811
C	-0.0711858557	 3.0664208869	 0.7928580094	 0.089283
O	 0.0092051049	 3.0231130805	 2.2178314018	-0.240961
C	 1.132294634	 2.530008636	 2.8077017591	 0.13006
N	 2.175795877	 2.0340020262	 2.303863702	-0.257595
C	 2.3036730875	 1.9298388358	 0.8592818022	-0.187419
C	 1.0203057587	 2.2143365497	 0.0827853453	-0.165136
H	-1.7038565869	 2.4651462443	-0.5926699211	 0.13663
H	-1.906472248	 1.7712279059	 1.0398745654	 0.144586
H	-0.157837304	 4.1136135919	 0.4996474608	 0.09905
H	 1.0241096941	 2.6121678507	 3.8874977485	 0.129136
H	 3.102306074	 2.6126811254	 0.5448375027	 0.121339
H	 2.6529806612	 0.9190845048	 0.6166964458	 0.138617
H	 1.2379575623	 2.624085614	-0.9102107411	 0.11429
73.4237	84.4472	185.2927	362.6275	415.037	465.3562	490.6083	529.4126	574.5587	707.3185	726.5467	795.3736	853.3273	905.4994	929.879	953.8149	961.6186	1008.6859	1045.5473	1062.7907	1079.1991	1133.1729	1146.8472	1200.8915	1223.1688	1257.9217	1283.5363	1301.259	1361.6094	1384.4425	1419.3295	1424.4799	1479.0189	1748.3604	1900.848	3027.1398	3050.066	3059.1139	3064.1437	3100.2938	3131.5374	3162.2728
O=C1CC2OC=NCC12	O=C1C[C@H]2OC=NC[C@@H]12	
InChI=1S/C6H7NO2/c8-5-1-6-4(5)2-7-3-9-6/h3-4,6H,1-2H2	InChI=1S/C6H7NO2/c8-5-1-6-4(5)2-7-3-9-6/h3-4,6H,1-2H2/t4-,6+/m0/s1
