16
gdb 75734	2.59841	1.60723	1.00539	1.6324	73.9	-0.2641	-0.0838	0.1804	1137.8975	0.123713	-437.977066	-437.968097	-437.967153	-438.011386	31.167	
C	 0.0033148483	 1.4528154077	 0.0297798135	-0.348122
N	 0.0013087153	 0.0047560981	 0.0040369979	-0.169028
C	-0.0731327685	-0.7721460704	-1.1598082578	 0.428187
O	-0.1448087082	-0.3393369674	-2.2846107139	-0.351436
C	-0.0445233858	-2.1967290998	-0.7064112204	-0.35027
C	 0.0405816966	-2.2369767452	 0.6272041927	 0.226894
C	 0.1010595672	-3.3784338982	 1.5789026216	-0.486689
C	 0.0727951295	-0.8088376499	 1.1267844875	 0.363538
O	 0.1460276672	-0.4317053859	 2.2726838396	-0.349668
H	 0.9221733832	 1.8305947224	 0.4866429559	 0.145607
H	-0.0627778796	 1.7968919972	-1.003237897	 0.163009
H	-0.8495563493	 1.8310153824	 0.6001440666	 0.145614
H	-0.0896276823	-3.0160392546	-1.4101860838	 0.137213
H	 0.0677057502	-4.33797276	 1.0591201229	 0.134378
H	 1.0169775312	-3.3287687279	 2.1778996186	 0.155387
H	-0.731302585	-3.3284144285	 2.2894247861	 0.155387
58.6806	101.6418	131.5895	153.8184	209.3696	241.5755	265.5745	380.4568	393.914	538.1124	602.6675	649.2274	714.5139	719.473	788.6192	877.8762	911.8259	990.3817	1041.6052	1059.7988	1127.4726	1159.8454	1183.0471	1279.9794	1309.7855	1410.616	1416.3704	1467.2686	1468.9948	1476.2733	1489.0002	1514.216	1700.7165	1798.2896	1853.4286	3039.3298	3048.8219	3092.4161	3111.6188	3133.6808	3154.0947	3237.7796
CN1C(=O)C=C(C)C1=O	CN1C(=O)C=C(C)C1=O	
InChI=1S/C6H7NO2/c1-4-3-5(8)7(2)6(4)9/h3H,1-2H3	InChI=1S/C6H7NO2/c1-4-3-5(8)7(2)6(4)9/h3H,1-2H3
