22
gdb 58818	3.21404	1.25212	1.09055	1.6411	85.08	-0.2168	0.0699	0.2866	1221.6996	0.193582	-367.129884	-367.121047	-367.120103	-367.163172	34.989	
C	-0.0554255635	 1.5809467215	 0.2394876792	-0.385291
C	-0.0462851444	 0.0566430999	 0.0322947565	-0.079264
C	 0.8815393575	-0.6332952593	 1.0395482838	-0.40449
C	-1.4566935445	-0.4859181655	 0.0513084278	 0.381426
C	-2.2337707569	-0.927907249	 1.2633404163	-0.366741
C	-2.0195509415	-1.8869377156	 0.1180121224	-0.080705
N	-2.8587497603	-1.7095239507	-1.1336811475	-0.139887
C	-3.8226269952	-0.6063575743	-0.9545616542	-0.25207
C	-2.3968144318	-0.277802098	-1.1635168635	-0.099107
H	 0.9528971616	 1.9968563339	 0.1435882462	 0.109132
H	-0.6959250825	 2.0809152662	-0.4944806914	 0.115862
H	-0.4323556002	 1.833393343	 1.236875414	 0.116079
H	 0.3549669663	-0.1410583859	-0.9730655981	 0.077157
H	 0.8797833899	-1.7203406663	 0.9098677925	 0.116574
H	 1.9103528963	-0.2828943317	 0.9110015255	 0.114034
H	 0.5881882346	-0.4124323308	 2.0716030621	 0.116634
H	-1.6129572908	-1.1748504563	 2.1190807796	 0.116421
H	-3.1950141099	-0.5131888926	 1.5456901945	 0.109842
H	-1.5365525637	-2.8479196151	 0.2459966515	 0.100578
H	-4.474834084	-0.5018931033	-1.8176107871	 0.12109
H	-4.3238695456	-0.4492826133	-0.0067760415	 0.118643
H	-2.0311362612	 0.1572158731	-2.0898232586	 0.094083
60.6599	143.2268	196.4342	241.9716	261.3938	295.7249	313.8706	432.4226	446.7732	472.0994	533.074	638.5031	685.4919	754.3229	787.1751	834.5003	881.2354	901.5311	929.8745	939.0196	965.6657	984.7187	1000.7282	1016.5212	1045.1717	1071.8257	1073.4808	1104.0547	1114.9116	1136.0249	1144.3348	1158.1373	1205.2554	1227.5245	1257.1871	1329.0327	1348.0326	1371.8009	1397.3104	1400.4248	1420.3819	1481.5167	1488.2751	1492.8457	1504.3252	1512.5383	1523.3204	2988.8281	3027.3702	3032.8275	3095.9794	3099.3442	3101.4158	3104.684	3121.4787	3134.7115	3142.632	3182.8828	3203.3176	3212.6106
CC(C)C12CC1N1CC21	CC(C)[C@]12C[C@H]1N1C[C@@H]21	
InChI=1S/C8H13N/c1-5(2)8-3-6(8)9-4-7(8)9/h5-7H,3-4H2,1-2H3	InChI=1S/C8H13N/c1-5(2)8-3-6(8)9-4-7(8)9/h5-7H,3-4H2,1-2H3/t6-,7+,8-,9?/m1/s1
