18
gdb 125757	5.87007	0.74185	0.69538	2.446	75.94	-0.2496	-0.002	0.2476	1624.9448	0.146788	-439.088722	-439.079413	-439.078469	-439.123837	32.789	
C	 0.1000292231	 1.5329324678	-0.1109224995	-0.493852
C	-0.0250757563	 0.0513491432	 0.0450910826	 0.394874
N	-0.3852664464	-0.6901649619	-0.9763007899	-0.202134
O	-0.4024608057	-2.0037095509	-0.5044592431	-0.219919
C	-0.0500981578	-2.0157851251	 0.7961549462	 0.440591
C	-0.021701973	-3.3416316947	 1.474119815	-0.29882
C	-1.4020446953	-4.0032764659	 1.5420196904	-0.070407
O	-1.233564014	-5.2410390069	 2.2107896112	-0.417602
C	 0.2007300982	-0.7445007296	 1.2069186735	-0.429059
H	 1.1186815757	 1.8655630685	 0.1139956811	 0.137349
H	-0.1446735473	 1.8240247892	-1.1341044021	 0.149824
H	-0.5744430663	 2.0575733366	 0.5737607999	 0.136419
H	 0.6583146417	-4.0198277991	 0.9460108948	 0.136506
H	 0.3658108427	-3.2168554157	 2.4888941372	 0.126844
H	-2.0995788806	-3.3423761388	 2.0799730748	 0.094414
H	-1.7918215005	-4.1386870259	 0.523095242	 0.111487
H	-2.0825540695	-5.6920707103	 2.2287603317	 0.290119
H	 0.5045319013	-0.4182927406	 2.1880720944	 0.113366
45.8593	90.0678	100.7844	135.9513	231.8952	244.8162	269.7335	345.335	375.1786	416.175	628.1311	666.8798	701.4582	782.8687	797.4868	817.76	938.605	983.4748	1004.4642	1028.0397	1047.7068	1065.3805	1067.191	1084.5619	1157.7213	1210.4536	1241.5593	1290.7268	1318.8279	1331.0832	1406.0546	1449.6786	1457.6754	1477.4969	1482.8059	1484.5698	1530.4277	1535.5495	1649.2763	2979.5106	3020.8286	3042.2138	3048.8759	3097.927	3105.9368	3139.6284	3270.5844	3833.3104
CC1=NOC(CCO)=C1	Cc1noc(CCO)c1	
InChI=1S/C6H9NO2/c1-5-4-6(2-3-8)9-7-5/h4,8H,2-3H2,1H3	InChI=1S/C6H9NO2/c1-5-4-6(2-3-8)9-7-5/h4,8H,2-3H2,1H3
