17
gdb 85750	3.14654	1.32909	1.12198	2.2132	74.28	-0.2559	0.0333	0.2891	1121.4413	0.134269	-421.771709	-421.763451	-421.762507	-421.804628	31.322	
C	 0.2911608271	 1.5448766688	-0.1563130927	-0.403516
C	 0.087509338	 0.0457841502	-0.0023708508	 0.114371
O	 0.6742899483	-0.6074906977	-1.1348610674	-0.28165
C	 1.1954527493	-1.8839739727	-0.7605055101	-0.076506
C	 2.3627628295	-2.207924052	-1.5723718347	 0.316539
C	 3.3216958309	-2.516729074	-2.225474023	-0.427006
C	 1.468830357	-1.7749518279	 0.7370678249	 0.00656
O	 2.1938005287	-0.5985179559	 1.0867630141	-0.240291
C	 0.7650974537	-0.5830389386	 1.2015914313	 0.008864
H	 1.358589913	 1.7763470598	-0.1316117509	 0.143643
H	-0.1212683063	 1.884983692	-1.1094994968	 0.131007
H	-0.2125590644	 2.085530592	 0.6512237008	 0.113334
H	-0.9891441015	-0.1906874038	 0.0528644555	 0.073364
H	 0.4308723796	-2.6682428507	-0.9017825906	 0.100837
H	 4.1740659118	-2.7747221359	-2.8041106919	 0.200377
H	 1.6522784744	-2.6657812002	 1.3302509581	 0.1139
H	 0.3574958509	-0.4678103634	 2.2021367541	 0.106176
76.7653	128.6577	176.5943	235.8921	262.0555	327.363	381.8867	487.6839	525.1391	554.3433	621.382	669.5068	670.8257	792.2656	828.2044	846.2012	895.328	903.3065	939.2326	1006.8019	1044.0754	1053.1001	1080.299	1099.0296	1129.0257	1156.5704	1255.4307	1295.266	1308.0637	1340.5493	1351.7229	1377.6571	1405.9538	1444.1667	1485.3558	1499.2173	2246.7622	2946.6179	2957.4618	3046.9313	3120.0472	3137.2984	3154.1945	3169.2332	3503.862
CC1OC(C#C)C2OC12	C[C@H]1O[C@@H](C#C)[C@H]2O[C@@H]12	
InChI=1S/C7H8O2/c1-3-5-7-6(9-7)4(2)8-5/h1,4-7H,2H3	InChI=1S/C7H8O2/c1-3-5-7-6(9-7)4(2)8-5/h1,4-7H,2H3/t4-,5+,6+,7-/m1/s1
