14
gdb 128601	2.28779	1.59605	0.94584	7.5513	71.71	-0.2392	-0.0272	0.212	1158.822	0.102546	-432.883731	-432.875799	-432.874855	-432.916641	28.475	
C	-0.0435166096	 1.3715857328	 0.0625500373	-0.255292
O	-0.0022690447	-0.0458381378	 0.0081429621	-0.252432
C	 0.6106899945	-0.5712966153	-1.0640900745	 0.227753
C	 1.2217720597	 0.0295392788	-2.1484745256	-0.164661
N	 1.670564467	-0.9998952315	-2.9245336883	-0.181911
N	 1.4034655371	-2.2069208681	-2.4383396168	-0.270744
C	 0.7508159347	-1.9677713961	-1.2917907116	 0.151508
C	 0.2866916876	-3.0202073866	-0.4601257129	 0.252052
N	-0.1044514787	-3.854464951	 0.2399571256	-0.34926
H	 0.9693339551	 1.7944751252	 0.0860162036	 0.127187
H	-0.5874538388	 1.7830974956	-0.7977119633	 0.127187
H	-0.5676364376	 1.6312641492	 0.9824836188	 0.150542
H	 1.3686545417	 1.060024108	-2.4210304955	 0.149138
H	 2.1660297918	-0.9313726831	-3.7978721488	 0.288933
89.5872	124.5563	171.5272	220.6682	245.8093	347.0335	421.5812	507.2551	549.1228	553.7861	632.879	661.9673	719.2408	729.237	767.153	948.1251	1058.1961	1089.7335	1179.9	1187.0633	1217.5739	1260.0832	1340.1626	1381.7092	1462.6251	1473.6014	1489.2549	1503.8766	1525.8336	1622.368	2356.2719	3004.9863	3065.1587	3149.3361	3286.5297	3668.789
COC1=CNN=C1C#N	COc1c[nH]nc1C#N	
InChI=1S/C5H5N3O/c1-9-5-3-7-8-4(5)2-6/h3H,1H3,(H,7,8)	InChI=1S/C5H5N3O/c1-9-5-3-7-8-4(5)2-6/h3H,1H3,(H,7,8)
