17
gdb 74078	2.7616	1.51804	1.10553	3.8241	75.63	-0.2374	-0.0623	0.1752	1118.2998	0.134194	-421.844963	-421.836397	-421.835452	-421.877945	31.792	
C	 0.0437659373	 1.4999409441	 0.0846366046	-0.497509
C	-0.0102000635	 0.0148801805	-0.0311505452	 0.336472
C	 0.0013582963	-0.7368951251	-1.1457229477	-0.311748
C	-0.075732405	-2.1815354959	-0.8123531989	 0.374011
O	-0.1490979269	-3.1208545219	-1.5685460702	-0.326082
C	-0.0861011262	-2.2721303997	 0.722750827	 0.281865
C	-0.7006856826	-3.454017914	 1.4074368607	-0.493786
O	 1.1360293186	-1.7239347058	 1.2691113179	-0.28693
C	-0.0341817696	-0.8830545732	 1.1832532891	-0.139702
H	 0.9349991607	 1.8088112746	 0.6452477353	 0.150685
H	 0.0626433053	 1.9839901908	-0.8942809808	 0.138277
H	-0.8211127231	 1.8797428104	 0.6427463773	 0.140435
H	 0.0778759564	-0.3794052273	-2.1650004604	 0.119039
H	-0.2262019827	-4.3751338185	 1.0565170951	 0.149967
H	-0.5749532906	-3.3784413867	 2.4898673569	 0.130163
H	-1.7679470097	-3.5228435554	 1.1749036585	 0.13245
H	-0.4423627146	-0.5452864871	 2.1318015205	 0.102395
132.6324	139.9774	161.3941	178.9075	237.5562	273.9846	301.2774	391.0431	495.5495	532.8303	575.4403	622.5827	692.7646	751.9314	799.2951	879.7425	888.0433	907.9459	999.9759	1001.024	1053.3506	1064.3099	1097.9952	1112.5545	1170.3675	1252.712	1282.8579	1334.7144	1403.9282	1410.5784	1452.65	1475.0877	1478.5174	1479.9058	1493.1579	1671.0042	1820.4604	3023.4267	3046.1897	3072.2637	3113.3233	3125.6736	3133.0832	3157.4121	3214.7835
CC1=CC(=O)C2(C)OC12	CC1=CC(=O)[C@@]2(C)O[C@@H]12	
InChI=1S/C7H8O2/c1-4-3-5(8)7(2)6(4)9-7/h3,6H,1-2H3	InChI=1S/C7H8O2/c1-4-3-5(8)7(2)6(4)9-7/h3,6H,1-2H3/t6-,7+/m0/s1
