23
gdb 96361	2.24794	1.64814	1.27129	1.1993	84.88	-0.2388	0.0806	0.3194	1134.2252	0.207172	-388.294839	-388.28621	-388.285266	-388.327443	34.856	
C	-0.0894869059	 1.5839222169	 0.0456012831	-0.396577
C	 0.005100439	 0.0510011985	-0.0008270182	-0.035123
C	 0.7429557318	-0.4642653031	-1.2565649123	-0.217486
C	 2.254075246	-0.200370164	-1.1673708536	-0.201424
C	 2.8003870397	-0.7171461611	 0.1646864273	-0.076302
O	 2.0863876655	-0.1706297681	 1.269180574	-0.299733
C	 0.7182514279	-0.4958651268	 1.2285128219	 0.471108
C	 0.0555749608	-0.5350317057	 2.5658726528	-0.337039
C	 0.3241804206	-1.8301459423	 1.8188943883	-0.337366
H	 0.8987661559	 2.0399058208	 0.1486655943	 0.12766
H	-0.5550418983	 1.9757989035	-0.8647375367	 0.104225
H	-0.6908016811	 1.9105432436	 0.8996906688	 0.113209
H	-1.0139970327	-0.3552878741	-0.0093372628	 0.063676
H	 0.5766842552	-1.5459017	-1.3423743221	 0.093796
H	 0.3233190531	-0.0064437503	-2.1593563868	 0.089693
H	 2.7806647131	-0.6894119743	-1.9950894659	 0.092409
H	 2.4607650613	 0.8728243711	-1.2470440742	 0.105593
H	 2.7433354027	-1.8179042589	 0.192731448	 0.084578
H	 3.8455231149	-0.4286950847	 0.309715788	 0.101033
H	 0.679729706	-0.3191650158	 3.4253045425	 0.121777
H	-0.968086986	-0.1841007916	 2.6434011077	 0.109167
H	-0.5169068643	-2.3664155666	 1.3919125834	 0.107702
H	 1.1221971948	-2.4591456173	 2.1971407424	 0.115426
123.3208	174.7631	204.6744	219.4979	265.2547	299.4275	360.7207	394.5829	426.5092	499.8749	570.245	590.2169	709.9089	772.3423	819.3543	853.2326	873.6227	901.4155	903.3889	942.4901	958.2184	997.3102	998.0161	1034.8119	1046.926	1054.7965	1076.0261	1099.4339	1120.726	1165.7504	1188.6151	1207.633	1229.8157	1277.6173	1294.1483	1315.2581	1336.5488	1366.265	1383.617	1393.2374	1407.5389	1417.2517	1451.7444	1478.1296	1487.1098	1491.0365	1493.2194	1505.3851	1510.4261	2972.1746	3016.454	3029.7687	3034.4264	3038.9429	3063.1029	3076.9739	3085.808	3101.4339	3119.0824	3129.8293	3134.8181	3214.6803	3229.1785
CC1CCCOC11CC1	C[C@H]1CCCOC21CC2	
InChI=1S/C8H14O/c1-7-3-2-6-9-8(7)4-5-8/h7H,2-6H2,1H3	InChI=1S/C8H14O/c1-7-3-2-6-9-8(7)4-5-8/h7H,2-6H2,1H3/t7-/m0/s1
