16
gdb 31867	4.78815	0.99996	0.88621	2.598	77.06	-0.2247	-0.031	0.1937	1291.7954	0.125722	-434.107777	-434.099312	-434.098368	-434.141909	30.835	
N	-0.0163482481	 1.3969395627	 0.0977697364	-0.594442
C	 0.0020356206	 0.0112697959	 0.0264894136	 0.257246
C	-1.1680567178	-0.7584619136	 0.0308376978	-0.047936
N	-1.1561217541	-2.0860552955	 0.0195150494	-0.268588
C	 0.0385436788	-2.6864249726	 0.0021404203	 0.352278
C	 0.0586899265	-4.1920482057	-0.0571225875	-0.149844
O	 0.0570052489	-4.5723675916	-1.4306315108	-0.424664
N	 1.2165908011	-2.0538110834	 0.0052779766	-0.26853
C	 1.1925863622	-0.7263991989	 0.0166572339	-0.047931
H	 0.8115831146	 1.8590304613	-0.2492618325	 0.254912
H	-0.8606492963	 1.8363251573	-0.2391655836	 0.254911
H	-2.1438429561	-0.272992088	 0.0470804723	 0.10143
H	 0.9618827058	-4.5507933555	 0.4548826327	 0.096995
H	-0.8292566999	-4.5750962907	 0.4638553426	 0.097009
H	 0.0706010585	-5.5338406789	-1.4653268794	 0.285724
H	 2.1549426653	-0.2145828928	 0.0212670683	 0.101431
25.6282	92.1744	204.6018	233.8419	290.0251	306.1944	403.6503	422.5212	433.754	503.2042	577.6048	593.6588	657.7249	771.7462	841.4388	874.4929	937.68	962.4246	1007.5756	1047.9902	1056.3241	1103.1701	1229.1564	1238.5435	1274.6472	1309.3848	1314.7294	1333.2212	1452.6962	1456.2985	1504.064	1507.4559	1589.7	1626.5951	1659.3266	2999.1053	3043.6205	3125.0148	3127.7501	3564.2121	3662.3937	3820.3196
NC1=CN=C(CO)N=C1	Nc1cnc(CO)nc1	
InChI=1S/C5H7N3O/c6-4-1-7-5(3-9)8-2-4/h1-2,9H,3,6H2	InChI=1S/C5H7N3O/c6-4-1-7-5(3-9)8-2-4/h1-2,9H,3,6H2
