21
gdb 72208	3.2956	1.67424	1.35711	0.7954	88.49	-0.2132	0.0038	0.2171	1020.2095	0.184212	-349.913592	-349.906224	-349.90528	-349.944655	31.207	
C	 0.1259498877	 1.4875173773	 0.1208630101	-0.492044
C	-0.0325372309	-0.0166669795	 0.0272443347	 0.361488
C	 0.2298420366	-0.6758544498	-1.3854048461	-0.296097
C	-1.2075238111	-1.3396369433	-1.4183942712	-0.016866
C	-1.2538216185	-2.8771756755	-1.2233818004	-0.252836
C	-0.5867489858	-3.0026536828	 0.1481412379	-0.15788
C	-0.6681967211	-1.8376744681	 0.7970330469	 0.167844
C	 0.3977366312	-0.8771405372	 1.286508064	-0.340251
C	-1.4037424283	-0.7680251695	-0.0008774429	-0.108951
H	 1.1826856146	 1.7775647148	 0.0698302561	 0.115971
H	-0.3954278396	 1.9935746229	-0.6994818506	 0.11415
H	-0.2789813443	 1.8730081874	 1.0631904763	 0.112676
H	 0.3489937525	 0.087622537	-2.1584047436	 0.098679
H	 1.0771079453	-1.363241201	-1.4513728355	 0.096835
H	-1.8442662287	-0.9672348929	-2.2257096197	 0.054454
H	-2.2818462623	-3.2637222804	-1.2797923198	 0.09906
H	-0.6746566837	-3.4166754797	-1.9828999324	 0.099529
H	 0.0968374381	-3.8097087935	 0.3901393273	 0.086524
H	 1.4198430054	-1.2598769692	 1.3607006445	 0.099181
H	 0.1508534382	-0.3170029367	 2.1963754493	 0.100278
H	-2.3389672254	-0.3503355003	 0.3778245251	 0.058256
209.8054	215.8442	246.0073	305.2865	346.4237	366.8218	411.7143	550.4103	635.5373	672.5909	697.7608	783.9381	798.2955	818.2145	848.8072	866.3068	898.1739	920.1625	928.2354	942.0974	982.7163	990.0559	1009.4784	1053.0496	1084.0949	1088.835	1132.7986	1156.7941	1169.8816	1199.1574	1218.7012	1221.6915	1238.6058	1252.5032	1283.2534	1294.0526	1325.0298	1334.373	1407.5104	1468.6515	1478.6595	1481.8975	1492.7267	1493.0171	1679.0271	2999.1601	3017.4168	3027.8662	3049.9631	3056.8209	3066.4016	3080.9731	3087.2476	3088.7532	3092.3491	3111.7986	3182.1703
CC12CC3CC=C(C1)C23	C[C@@]12C[C@H]3C[CH][C](C1)[C@@H]23	
InChI=1S/C9H12/c1-9-4-6-2-3-7(5-9)8(6)9/h2,7-8H,3-5H2,1H3	InChI=1S/C9H12/c1-9-4-6-2-3-7(5-9)8(6)9/h2,7-8H,3-5H2,1H3/t7-,8-,9+/m1/s1
