19
gdb 120237	2.94136	1.1289	0.92284	2.2975	77.1	-0.2225	-0.0155	0.207	1326.3262	0.157911	-423.008145	-422.999183	-422.998239	-423.042653	32.635	
C	 0.0391119627	 1.509650572	 0.0833206496	-0.386322
C	-0.1278869957	 0.0084100689	 0.2358494379	-0.047136
O	 0.9771066523	-0.4879459749	 0.986263639	-0.260176
C	 0.92744393	-1.8683106032	 1.2024956622	 0.011557
C	 2.0816097625	-2.4406047	 2.023097972	-0.084953
C	 2.0519951114	-1.8679971753	 3.3930189021	-0.275189
C	 1.0910960361	-3.0121985386	 3.0794130173	-0.17836
C	-0.0476837256	-2.4643667539	 2.2791151208	 0.391295
O	-1.2419715198	-2.5666235287	 2.3326513463	-0.325339
H	 0.9787548607	 1.7427342859	-0.4256566962	 0.125385
H	-0.7866396178	 1.9253654061	-0.5016001948	 0.117816
H	 0.0494544881	 1.9967882274	 1.0625235829	 0.126822
H	-1.0699498291	-0.2346661599	 0.7452785475	 0.120982
H	-0.1533875194	-0.4835991894	-0.7508125722	 0.088082
H	 0.7731209004	-2.4182484307	 0.2582764468	 0.087348
H	 2.9435355504	-2.9471670292	 1.6107615958	 0.10714
H	 2.8671917048	-2.151631095	 4.0502077493	 0.127544
H	 1.6724240655	-0.8648961167	 3.5523350966	 0.139887
H	 1.1192673624	-3.9431664446	 3.6307669068	 0.113618
64.7957	81.1732	98.7018	179.2449	221.3514	259.7313	294.3406	399.9323	475.258	527.5333	616.996	715.5204	764.4669	819.2528	839.9368	867.6231	904.4949	918.7165	969.0618	995.9913	1017.5154	1060.851	1067.5059	1092.8194	1115.1172	1144.5465	1169.4906	1174.2689	1187.7696	1227.9305	1294.208	1299.7962	1337.3115	1355.2056	1403.1675	1438.8826	1484.089	1494.7533	1500.3581	1530.1333	1875.4377	2962.93	2969.9615	3034.6018	3045.173	3120.3272	3121.7244	3136.8923	3202.1596	3211.5	3224.491
CCOC1C2CC2C1=O	CCO[C@H]1[C@H]2C[C@H]2C1=O	
InChI=1S/C7H10O2/c1-2-9-7-5-3-4(5)6(7)8/h4-5,7H,2-3H2,1H3	InChI=1S/C7H10O2/c1-2-9-7-5-3-4(5)6(7)8/h4-5,7H,2-3H2,1H3/t4-,5+,7+/m1/s1
