20
gdb 77091	2.62794	1.15664	0.97579	4.3812	77.74	-0.2385	0.0257	0.2642	1288.85	0.168491	-440.302163	-440.292197	-440.291253	-440.3373	36.31	
C	-0.4769231585	 1.3301963086	-0.0694960394	-0.413998
C	 0.0193357635	-0.1050656938	-0.004433939	 0.02172
N	 1.2467049311	-0.4120872399	-0.7603329192	-0.060688
C	 1.9236730596	-1.0869234613	 0.3448007773	-0.215215
C	 0.7469085378	-0.6397214138	 1.2770795402	 0.358219
C	 1.1316782509	 0.3846034774	 2.3341921652	-0.458208
O	-0.0177888046	-1.6915308194	 1.8281184502	-0.469963
C	 1.4953105359	-0.5168343006	-2.0860080691	 0.129262
O	 2.4844102251	-1.0361788564	-2.5622713792	-0.331513
H	 0.3185513828	 2.0443093384	 0.1591251646	 0.12352
H	-0.857980265	 1.5599677244	-1.0694230019	 0.128012
H	-1.2989099776	 1.478608938	 0.6383262949	 0.129385
H	-0.7952980475	-0.797162378	-0.2516667407	 0.10098
H	 1.9840789706	-2.1726096401	 0.216017344	 0.120442
H	 2.9169640859	-0.6889506873	 0.5750819	 0.114789
H	 1.6989397699	 1.2153760046	 1.9058576703	 0.131465
H	 0.242715387	 0.784456232	 2.8304472176	 0.130204
H	 1.7671780947	-0.0848367475	 3.0954169814	 0.114377
H	 0.4309214873	-2.0140786542	 2.6174060923	 0.280533
H	 0.6959097409	-0.0516544411	-2.6991641295	 0.066678
41.3364	88.5587	166.949	215.4092	229.2329	258.7968	270.2536	289.4208	310.4602	355.4296	391.5202	430.5611	516.4057	551.8474	693.3505	753.8422	860.279	885.3918	914.3909	970.6309	1025.7199	1038.3315	1044.0095	1090.7607	1134.0306	1158.0818	1185.095	1190.969	1222.5859	1289.6702	1309.04	1372.0901	1384.3031	1398.2516	1407.7129	1412.3188	1442.3278	1481.7664	1485.6057	1499.0098	1501.2069	1507.1332	1789.5552	2919.1234	3027.5696	3028.6393	3039.1732	3040.7685	3090.3379	3095.3405	3107.2762	3118.7096	3125.3356	3803.2688
CC1N(CC1(C)O)C=O	C[C@H]1N(C[C@]1(C)O)C=O	
InChI=1S/C6H11NO2/c1-5-6(2,9)3-7(5)4-8/h4-5,9H,3H2,1-2H3	InChI=1S/C6H11NO2/c1-5-6(2,9)3-7(5)4-8/h4-5,9H,3H2,1-2H3/t5-,6+/m1/s1
