14
gdb 17188	4.24939	1.84787	1.59571	1.2919	56.73	-0.2473	0.0404	0.2877	799.707	0.105576	-419.546465	-419.539829	-419.538885	-419.577462	25.194	
O	 0.0228126473	 1.3970182621	 0.0128557569	-0.41033
C	 0.0099807566	-0.0175955402	-0.0352524408	-0.217766
C	-1.3873256663	-0.5435827251	 0.0394852355	 0.413909
O	-2.3249333128	-0.1391793782	-1.0115853207	-0.361273
C	-3.1545648288	-0.9611749208	-0.1431919877	 0.037137
C	-2.0146372938	-1.9690523414	 0.2091057983	-0.014064
O	-2.18853139	-1.8433601755	 1.6466119804	-0.324837
C	-2.4667853684	-0.494348544	 1.1742418382	 0.005632
H	-0.5835040301	 1.7050051577	-0.6708010685	 0.297363
H	 0.4945064362	-0.402539382	-0.9464820215	 0.10538
H	 0.5776671618	-0.3796839144	 0.8278809116	 0.133146
H	-4.2015595911	-1.1149707374	-0.4002296357	 0.110542
H	-1.7434946434	-2.9348322498	-0.2160094968	 0.109643
H	-2.7228684773	 0.2835684688	 1.8916027709	 0.115518
92.8164	155.8676	250.8415	347.5929	407.7394	529.7102	582.1606	685.7329	751.6139	775.4809	779.1139	831.3297	857.1504	912.4638	933.7856	966.9373	1038.2713	1057.6229	1084.3538	1107.2805	1135.2838	1162.5844	1170.1485	1213.6668	1260.6187	1290.547	1363.6881	1384.5836	1440.106	1488.2907	2985.0609	3085.5492	3128.2616	3136.4766	3149.8561	3799.9569
OCC12OC3C1OC23	OC[C@@]12O[C@H]3[C@@H]1O[C@@H]23	
InChI=1S/C5H6O3/c6-1-5-3-2(8-5)4(5)7-3/h2-4,6H,1H2	InChI=1S/C5H6O3/c6-1-5-3-2(8-5)4(5)7-3/h2-4,6H,1H2/t2-,3-,4+,5+
