16
gdb 48639	3.46701	1.52425	1.36456	2.5235	72.09	-0.2242	-0.0345	0.1897	957.4618	0.125359	-400.71767	-400.710694	-400.709749	-400.749237	27.873	
O	-0.532751826	 0.6161218659	-0.6858355288	-0.253496
C	 0.1090882334	 1.0446069525	 0.2396322551	 0.03945
C	 1.3396514116	 1.8956746306	 0.0892768002	 0.147753
N	 1.5549319815	 2.8892080438	 1.1871557726	-0.318385
C	 2.8279873975	 3.3938116096	 0.5851590878	-0.123478
C	 3.5885895883	 2.0533208549	 0.548538479	-0.055169
C	 2.6865053795	 1.1271548218	 0.2479251456	-0.08054
C	 2.3802510747	 3.7027379034	-0.8730826819	-0.099896
C	 1.4734275684	 2.7779727525	-1.1777958506	-0.116504
H	-0.1581397954	 0.8201913808	 1.2956660222	 0.095046
H	 0.8526182957	 3.6233638731	 1.0783872911	 0.21188
H	 3.2951582066	 4.2068185251	 1.1394659709	 0.075649
H	 4.6545658414	 1.9453017734	 0.6876558425	 0.115375
H	 2.8036685936	 0.067768766	 0.0740293378	 0.121827
H	 2.8021155888	 4.474075367	-1.5026281291	 0.111613
H	 0.9505174605	 2.5853703495	-2.1028496744	 0.128875
64.7466	192.3676	251.8047	423.7338	436.0166	454.3518	560.4589	585.087	677.3586	697.3508	728.5185	752.648	803.4545	828.2005	868.0695	885.1761	907.6276	920.2765	936.3532	961.8073	1042.0167	1063.2037	1081.81	1095.2599	1145.6193	1235.4276	1245.6025	1267.2808	1286.1268	1306.8656	1396.0515	1407.3821	1611.5988	1657.127	1827.7359	2896.8391	3127.8504	3222.9904	3229.158	3255.2427	3256.9379	3432.7544
O=CC12NC(C=C1)C=C2	O=C[C@@]12N[C@@H](C=C1)C=C2	
InChI=1S/C7H7NO/c9-5-7-3-1-6(8-7)2-4-7/h1-6,8H	InChI=1S/C7H7NO/c9-5-7-3-1-6(8-7)2-4-7/h1-6,8H/t6-,7+
