15
gdb 43311	2.9893	1.84579	1.44796	4.1372	69.71	-0.2347	-0.0491	0.1857	893.0606	0.113739	-420.609296	-420.602809	-420.601864	-420.640227	25.783	
O	 0.0010675902	-0.0299671584	 0.0386407787	-0.336419
C	-0.0247709376	 1.1780044161	 0.0287693259	 0.40013
C	-1.2285270848	 2.0514723313	 0.0486760865	-0.173126
C	-0.8962415215	 3.3506517737	 0.0400760903	-0.049619
C	 0.588995506	 3.5571739628	 0.0215164053	-0.126276
C	 1.3109371398	 3.7784810598	 1.3928282056	 0.013222
O	 0.8579896003	 2.7689002328	 2.2916126758	-0.228957
C	 1.8766515404	 2.4236237263	 1.3491522343	 0.025479
C	 1.1858904025	 2.119351417	-0.0047596913	-0.191696
H	-2.2296406334	 1.6396784257	 0.084429797	 0.118143
H	-1.6029567562	 4.1733951063	 0.0767425126	 0.118745
H	 0.9482900342	 4.2401375111	-0.7517566648	 0.094749
H	 1.683076959	 4.7027783858	 1.818452916	 0.113259
H	 2.8023725732	 2.0174116945	 1.737132073	 0.117166
H	 1.879607348	 1.8921310153	-0.8147162748	 0.105199
109.8292	202.8778	267.0309	374.073	505.7192	527.0155	595.3359	712.4462	737.6976	755.1647	810.1807	826.2226	861.5965	874.2553	924.3827	937.4232	949.4119	997.6442	1018.3422	1033.3096	1052.7152	1100.567	1158.1997	1172.6223	1209.4499	1215.0175	1235.1438	1257.588	1297.9392	1360.2027	1391.7163	1634.8846	1815.7043	3088.1013	3118.9747	3183.9745	3186.5159	3204.7083	3221.5199
O=C1C=CC2C3OC3C12	O=C1C=C[C@H]2[C@H]3O[C@H]3[C@@H]12	
InChI=1S/C7H6O2/c8-4-2-1-3-5(4)7-6(3)9-7/h1-3,5-7H	InChI=1S/C7H6O2/c8-4-2-1-3-5(4)7-6(3)9-7/h1-3,5-7H/t3-,5-,6-,7+/m1/s1
