24
gdb 121982	2.25228	0.76593	0.61896	3.6072	87.74	-0.2477	0.0347	0.2824	1908.5904	0.215597	-405.593094	-405.581646	-405.580702	-405.631779	40.133	
C	-0.1695021943	 1.5930107969	-0.0036311354	-0.379697
C	-0.1098086573	 0.0631718395	 0.0012068229	-0.16426
C	-1.4951012003	-0.592241187	 0.0254809002	-0.161724
C	-1.4367046807	-2.1226271669	 0.028315728	-0.187003
C	-2.8094953329	-2.8143425148	 0.0394112494	 0.030158
C	-2.6849348149	-4.3349764697	-0.1179676141	-0.394683
N	-3.5554789979	-2.4815277589	 1.2525257575	-0.269482
C	-4.8126338274	-1.9641090899	 1.2512961934	 0.154362
O	-5.458555806	-1.6806899759	 0.2641323271	-0.326367
H	 0.8326293189	 2.0327056887	-0.0219523979	 0.110549
H	-0.7127062127	 1.9644026678	-0.8795600551	 0.116639
H	-0.6836603964	 1.972132811	 0.8865962849	 0.113863
H	 0.4410744079	-0.284785104	-0.882890115	 0.094082
H	 0.4686695867	-0.2790196519	 0.8700678134	 0.090832
H	-2.0471054091	-0.2452932591	 0.908044515	 0.096221
H	-2.0745863792	-0.2536907263	-0.8439320584	 0.102876
H	-0.8910691292	-2.4694933029	-0.8585031226	 0.099439
H	-0.8526591311	-2.4713256352	 0.8936564252	 0.083321
H	-3.4203962074	-2.4192853129	-0.7775666991	 0.124254
H	-2.1055936792	-4.770557656	 0.7049700047	 0.107358
H	-3.6719225394	-4.8051179726	-0.1270163851	 0.128763
H	-2.1750675736	-4.5861579634	-1.0532376181	 0.120002
H	-3.1411248656	-2.708042571	 2.1441578342	 0.240848
H	-5.1944526589	-1.8189721756	 2.2823541548	 0.069648
17.2431	58.8806	76.6052	119.6008	147.0295	192.2628	203.7995	235.895	244.0538	304.6994	315.1443	402.4911	480.9408	505.1633	536.0589	733.7028	758.093	788.6138	870.442	902.8419	920.2722	935.4023	1016.1407	1027.9841	1032.6328	1064.054	1074.7602	1136.692	1157.5534	1176.8574	1211.9162	1249.8442	1276.8389	1314.7689	1328.234	1346.8041	1369.8035	1384.8763	1398.9926	1409.7117	1414.6855	1431.6507	1477.0377	1485.6788	1490.6863	1495.795	1498.3678	1499.3162	1512.1447	1531.1402	1803.3959	2925.5902	2994.6272	3008.9468	3020.6544	3029.4118	3030.3497	3033.0941	3041.9829	3066.3246	3080.9868	3096.7363	3101.8285	3102.9506	3119.2927	3615.549
CCCCC(C)NC=O	CCCC[C@@H](C)NC=O	
InChI=1S/C7H15NO/c1-3-4-5-7(2)8-6-9/h6-7H,3-5H2,1-2H3,(H,8,9)	InChI=1S/C7H15NO/c1-3-4-5-7(2)8-6-9/h6-7H,3-5H2,1-2H3,(H,8,9)/t7-/m1/s1
