19
gdb 13075	4.18257	1.22075	1.03355	4.1998	75.47	-0.2999	0.0382	0.3381	1156.4584	0.165978	-327.939457	-327.931107	-327.930162	-327.972552	30.807	
C	-0.0857285306	 1.5771398964	-0.0823346178	-0.398226
C	 0.002155056	 0.0532131382	-0.0407775412	-0.010866
C	 1.1782757664	-0.52930238	-0.8826378279	-0.222779
C	 2.006169003	-0.692380133	 0.4207362125	-0.225852
C	 0.6857577386	-0.5663933799	 1.2247915953	 0.04276
C	 0.6811018189	 0.2152167569	 2.5449185394	-0.373962
C	 1.4662330261	-0.4543197317	 3.5809038914	 0.261824
N	 2.0924109215	-1.0001857497	 4.3845081813	-0.309114
H	 0.8862626217	 2.0505381654	 0.096772137	 0.116971
H	-0.4294852323	 1.9076462391	-1.0680364968	 0.120396
H	-0.791215973	 1.9669590372	 0.6598051308	 0.114976
H	-0.9828448553	-0.3680627246	-0.2634662387	 0.071866
H	 0.9272372015	-1.4920077993	-1.3352528056	 0.105187
H	 1.5906268668	 0.121420713	-1.6580747367	 0.099126
H	 2.5840513938	-1.6093312022	 0.5494529484	 0.112836
H	 2.6723041068	 0.1586057899	 0.5934715618	 0.105146
H	 0.2697223907	-1.5614076518	 1.4100031802	 0.092763
H	 1.0893574326	 1.2215782493	 2.4017042558	 0.147823
H	-0.3440203133	 0.3398892967	 2.9146249406	 0.149124
67.5806	117.3541	129.324	225.0363	271.1729	338.5688	353.0738	397.6561	464.3767	509.358	686.5238	763.7445	814.663	865.5767	888.8245	916.3299	937.0351	957.5918	985.4423	1021.684	1076.0625	1117.8346	1136.1112	1168.8047	1214.0899	1231.9424	1263.3499	1270.1733	1277.3342	1287.8472	1326.8104	1368.4673	1385.0584	1413.8529	1465.5418	1483.3147	1498.9487	1502.397	1504.541	2359.7132	3026.2673	3038.4286	3046.0632	3055.5114	3061.379	3064.3578	3082.0091	3093.2188	3096.9527	3106.0509	3122.5379
CC1CCC1CC#N	C[C@H]1CC[C@H]1CC#N	
InChI=1S/C7H11N/c1-6-2-3-7(6)4-5-8/h6-7H,2-4H2,1H3	InChI=1S/C7H11N/c1-6-2-3-7(6)4-5-8/h6-7H,2-4H2,1H3/t6-,7-/m0/s1
