16
gdb 16058	3.47419	1.69977	1.43606	4.1137	66.87	-0.2447	-0.0221	0.2227	900.6514	0.129892	-383.718147	-383.710591	-383.709647	-383.749901	28.137	
O	-0.2568476762	 1.4381405178	-0.0486558541	-0.415953
C	-0.1493315394	 0.0483306917	 0.0215762745	 0.049199
C	-0.4669336724	-0.7337774946	 1.245712691	-0.161533
C	-1.5938227162	-0.0835754755	 2.0573794104	-0.221843
C	-2.5226705914	-0.0917271632	 0.804842834	-0.290541
C	-1.4181250765	-0.7569674995	-0.0190656968	 0.236059
C	-1.6102686914	-1.8657730345	-0.9602460167	 0.061233
O	-2.6861230194	-2.3237326789	-1.2675697127	-0.269774
H	 0.4542451851	 1.8199620513	 0.4772545278	 0.292521
H	 0.6537343609	-0.3773502443	-0.5836659381	 0.096196
H	 0.1795447453	-1.5341910748	 1.5881254681	 0.101123
H	-1.9591577492	-0.731084401	 2.8556947988	 0.11302
H	-1.354614044	 0.8970163427	 2.477400289	 0.102577
H	-3.3842341103	-0.7507459555	 0.9152096995	 0.127729
H	-2.8517668275	 0.8816354195	 0.437646826	 0.11922
H	-0.6645565075	-2.2851975311	-1.3781003207	 0.060769
102.8721	199.7724	213.8932	227.7792	264.1915	286.1612	421.5738	511.3676	575.0672	701.8364	755.3763	781.161	796.3614	894.5152	953.1809	956.2206	1004.461	1011.6106	1063.7479	1077.4322	1130.218	1146.5926	1222.7558	1233.9944	1247.5337	1257.8136	1298.5199	1337.9818	1340.7975	1424.0544	1463.7587	1475.0351	1502.3257	1799.81	2849.0227	3065.011	3086.6579	3087.5764	3120.1429	3146.3151	3176.9027	3804.6786
OC1C2CCC12C=O	O[C@H]1[C@H]2CC[C@@]12C=O	
InChI=1S/C6H8O2/c7-3-6-2-1-4(6)5(6)8/h3-5,8H,1-2H2	InChI=1S/C6H8O2/c7-3-6-2-1-4(6)5(6)8/h3-5,8H,1-2H2/t4-,5+,6+/m1/s1
