13
gdb 129887	5.56375	1.35007	1.08775	7.4862	66.15	-0.2197	0.0099	0.2296	1010.5596	0.092021	-448.929637	-448.922942	-448.921997	-448.960603	25.775	
N	 0.1313806404	 1.3498341186	 0.1695832299	-0.590349
C	-0.073587966	-0.0049196717	 0.0535257001	 0.354031
C	-1.1812708329	-0.7851786834	 0.0090723922	-0.234877
N	-0.6917015448	-2.1073578769	 0.0056266402	-0.046567
C	-0.9484592207	-3.4529703936	-0.0379515457	-0.015195
N	 0.1884446134	-4.1177068322	-0.0384040053	-0.226357
N	 1.246220081	-3.216806969	 0.0019652364	-0.352821
C	 0.6656993409	-2.0535138842	 0.0281663157	 0.503304
O	 1.081052769	-0.7606366872	 0.064993373	-0.23296
H	 0.9709950386	 1.6697641363	-0.2959865725	 0.273557
H	-0.6722710115	 1.9095976977	-0.0764276174	 0.268025
H	-2.2236337778	-0.5279159855	-0.0148781578	 0.154027
H	-1.9348190197	-3.884473329	-0.0641322589	 0.146182
145.697	187.5342	310.1244	324.2845	337.0267	533.3247	587.2601	618.6936	622.701	662.2681	693.8005	740.9733	774.843	794.4933	855.3447	970.1531	992.1071	1027.5547	1100.8892	1186.7954	1215.7431	1228.6071	1376.7748	1408.2883	1444.5561	1478.8937	1613.0464	1629.5228	1719.5382	3285.846	3309.3743	3555.4715	3660.8647
NC1=CN2C=NN=C2O1	Nc1cn2cnnc2o1	
InChI=1S/C4H4N4O/c5-3-1-8-2-6-7-4(8)9-3/h1-2H,5H2	InChI=1S/C4H4N4O/c5-3-1-8-2-6-7-4(8)9-3/h1-2H,5H2
