18
gdb 53903	2.20002	1.36795	1.0956	3.2741	78.26	-0.2382	-0.0221	0.2162	1188.8425	0.144083	-401.89169	-401.881928	-401.880983	-401.926982	35.01	
C	 1.0187049054	-0.3858197762	 0.1997891902	-0.481776
C	-0.2059453654	 0.3982752692	-0.2135417411	 0.395875
O	-0.1683009839	 1.5484993658	-0.5692485961	-0.29329
C	-1.5686786026	-0.3514725244	-0.1690541712	-0.19653
C	-1.6976374578	-1.1864298019	-1.367188995	 0.31844
C	-1.7757307864	-1.8897976113	-2.3406093804	-0.484201
N	-1.714695889	-1.0361366068	 1.1247227423	-0.095975
C	-2.8470965394	-1.9426782099	 1.2952394102	-0.221495
C	-1.4588869722	-2.472441934	 1.2276438908	-0.226142
H	 1.9116854833	 0.2166955154	 0.0314363745	 0.141557
H	 0.9412459348	-0.6502604596	 1.2589049659	 0.159488
H	 1.0816366838	-1.3213227527	-0.3653135666	 0.143976
H	-2.3261951103	 0.4382314514	-0.2026054312	 0.134775
H	-1.8563996258	-2.4928491637	-3.2116874002	 0.208085
H	-3.3679626248	-1.8595760057	 2.2444706602	 0.123083
H	-3.4810865413	-2.1326863082	 0.4319130708	 0.125752
H	-1.1878442348	-3.0150182266	 0.3255605133	 0.128652
H	-0.9399880037	-2.7812520309	 2.1302393733	 0.119725
42.1426	88.2262	126.3202	157.27	164.1613	181.3762	323.9391	332.1475	376.6202	433.2541	545.6674	584.7879	595.8935	632.4334	667.662	780.1977	807.4382	834.1429	897.0266	954.089	999.6293	1026.8054	1051.129	1063.8048	1116.8562	1130.0084	1175.2902	1182.1597	1219.25	1268.1574	1311.1866	1329.6567	1378.0134	1466.0911	1472.7439	1482.6134	1511.0713	1828.0005	2216.0132	3048.0939	3062.8528	3105.9327	3110.7161	3114.9815	3157.5807	3189.7869	3203.524	3498.498
CC(=O)C(C#C)N1CC1	CC(=O)[C@@H](C#C)N1CC1	
InChI=1S/C7H9NO/c1-3-7(6(2)9)8-4-5-8/h1,7H,4-5H2,2H3	InChI=1S/C7H9NO/c1-3-7(6(2)9)8-4-5-8/h1,7H,4-5H2,2H3/t7-/m1/s1
