18
gdb 48838	2.84777	1.43537	1.13293	2.762	79.28	-0.2476	-0.0295	0.2181	1107.5408	0.148997	-401.947631	-401.93986	-401.938916	-401.980027	30.027	
O	-0.2623780816	 0.1595124793	 0.4534869963	-0.255972
C	-0.0390421862	 1.2664333744	 0.0348246994	 0.101828
C	 1.2972643168	 1.918266566	-0.0081747849	 0.213094
N	 1.279944342	 3.3982297376	 0.2068024142	-0.356842
C	 1.5193256272	 2.8832939121	-1.1372489708	-0.090189
C	 2.9406279223	 3.02172445	-1.6767100779	-0.212087
C	 3.7647216322	 1.7251301521	-1.5532710846	-0.270171
C	 3.5803915963	 1.0478263876	-0.217036097	-0.054213
C	 2.4607290863	 1.1478872688	 0.4970080562	-0.118607
H	-0.8601208774	 1.9209705585	-0.352156922	 0.0566
H	 0.3145131475	 3.7175904295	 0.3005345646	 0.23239
H	 0.7109894752	 2.9835415596	-1.8595359913	 0.093003
H	 2.9084607917	 3.3476784385	-2.7210481245	 0.102261
H	 3.4335214793	 3.8124560481	-1.1036731013	 0.126669
H	 3.490177931	 1.0212239822	-2.352589988	 0.11807
H	 4.8234274548	 1.9538206252	-1.7152820123	 0.110218
H	 4.4035195068	 0.4436073989	 0.1549603756	 0.097961
H	 2.3418107958	 0.6349234817	 1.4453539681	 0.105988
89.9356	130.2422	196.2448	264.7957	308.2363	409.5313	464.7079	499.2286	524.9228	555.3408	714.7369	730.3519	769.9204	816.7546	846.8403	906.7082	950.2953	975.8078	997.0682	1005.5987	1024.8483	1066.9488	1086.6601	1126.0091	1171.6641	1195.176	1224.2756	1265.7652	1276.7722	1326.8109	1350.4972	1382.8753	1411.774	1428.7835	1451.4195	1477.3802	1486.7251	1717.7543	1819.2974	2818.158	3004.7914	3048.8056	3065.4293	3096.2466	3121.2228	3161.477	3192.347	3444.8634
O=CC12NC1CCC=C2	O=C[C@]12N[C@H]1CCC=C2	
InChI=1S/C7H9NO/c9-5-7-4-2-1-3-6(7)8-7/h2,4-6,8H,1,3H2	InChI=1S/C7H9NO/c9-5-7-4-2-1-3-6(7)8-7/h2,4-6,8H,1,3H2/t6-,7-/m0/s1
