18
gdb 113067	2.1865	1.28506	1.03937	3.778	68.92	-0.2484	-0.0352	0.2132	1215.9578	0.146901	-476.201815	-476.192563	-476.191619	-476.236602	33.425	
O	 0.2825607992	 0.9755681689	-0.5811321168	-0.418559
C	 0.1141889901	-0.316624588	-0.0307130863	-0.063697
C	-1.3676247194	-0.6250893596	 0.1774082823	-0.118736
N	-2.1398433885	-0.6228347181	-1.1090657803	-0.367361
C	-2.6385300704	-2.022452164	-0.9085932222	-0.124885
C	-2.281310044	-2.9559264743	-2.0648608499	-0.066666
O	-0.9546677551	-2.744407362	-2.4958350353	-0.417349
C	-1.7590403461	-2.1007711557	 0.3555505843	 0.397941
O	-1.4890334933	-2.9601889401	 1.1376379035	-0.289547
H	-0.1893100306	 0.9725149311	-1.4224514744	 0.283917
H	 0.556806173	-1.09335619	-0.6713817738	 0.106473
H	 0.6368325611	-0.3304370177	 0.9299930623	 0.12607
H	-1.7860134297	 0.0320772094	 0.9498297391	 0.108632
H	-2.8806614076	 0.0676002566	-1.1318100635	 0.234615
H	-3.7069901343	-2.1001329927	-0.6660101302	 0.102807
H	-2.3579118048	-3.9940577305	-1.7251213735	 0.13088
H	-3.0014955422	-2.8147397006	-2.8870745276	 0.092812
H	-0.8828470774	-1.7892852128	-2.6279465078	 0.282653
55.3068	92.0219	122.6017	143.4463	196.9448	252.8764	308.0693	409.2308	424.8152	506.7101	532.2294	559.986	648.1146	682.791	789.9057	856.4592	869.434	948.6298	996.0126	1016.0735	1037.0475	1046.1288	1080.5137	1104.8519	1119.5746	1151.0385	1200.2022	1223.5835	1270.8775	1278.4325	1347.6371	1356.8397	1388.3149	1395.9441	1415.1225	1430.483	1497.8753	1503.6004	1913.5067	2972.9277	3002.2339	3024.3417	3038.8027	3081.7303	3096.6792	3551.8412	3751.7893	3788.5896
OCC1NC(CO)C1=O	OC[C@H]1N[C@@H](CO)C1=O	
InChI=1S/C5H9NO3/c7-1-3-5(9)4(2-8)6-3/h3-4,6-8H,1-2H2	InChI=1S/C5H9NO3/c7-1-3-5(9)4(2-8)6-3/h3-4,6-8H,1-2H2/t3-,4+
