16
gdb 60697	6.10249	0.62903	0.60111	2.3877	75.61	-0.2651	-0.077	0.1881	1745.001	0.123073	-434.095339	-434.085729	-434.084785	-434.131474	33.163	
N	 0.0032016328	 0.941416073	-0.8119363392	-0.550988
C	-0.1862908211	-0.2166184253	-0.1178096795	 0.265875
C	 1.0570470852	-1.0547165009	 0.0032363929	 0.145468
O	 2.1331928767	-0.6902735255	-0.4025593079	-0.261668
N	-1.2401329932	-0.706786228	 0.4254848409	-0.266729
C	-2.4811240889	 0.0364249855	 0.3589026807	-0.182002
C	-3.2703885191	-0.3701784692	-0.9118217852	-0.329346
C	-4.5515806823	 0.3221841915	-1.0075407383	 0.256595
N	-5.5571635504	 0.8888950999	-1.0636471213	-0.30142
H	 0.9670111705	 1.1836158223	-0.9917752633	 0.276867
H	-0.6622378123	 1.6933433521	-0.7618251332	 0.266881
H	 0.8838782957	-2.0216626401	 0.5094642478	 0.116148
H	-3.0836806831	-0.2139836282	 1.2367675275	 0.136384
H	-2.3521006027	 1.1303959862	 0.3666981112	 0.101146
H	-2.6780117515	-0.14889441	-1.8061375548	 0.158435
H	-3.4387560963	-1.4515676434	-0.8980380482	 0.168352
28.5859	66.6009	68.8613	161.495	209.8648	250.4302	323.9542	356.2841	390.7603	402.5197	487.0777	538.8458	574.6622	645.691	673.8519	784.4966	910.2918	951.7264	1006.2326	1012.7952	1034.2284	1084.3397	1145.8431	1231.4035	1288.5899	1303.7708	1363.1904	1368.7713	1373.9357	1470.0536	1522.0253	1609.9424	1724.7137	1810.8105	2362.1616	2974.5764	2985.3658	3054.7981	3077.2839	3101.8017	3578.7945	3711.2033
NC(C=O)=NCCC#N	NC(=NCCC#N)C=O	
InChI=1S/C5H7N3O/c6-2-1-3-8-5(7)4-9/h4H,1,3H2,(H2,7,8)	InChI=1S/C5H7N3O/c6-2-1-3-8-5(7)4-9/h4H,1,3H2,(H2,7,8)
