21
gdb 82979	2.51532	1.81599	1.49479	1.647	79.72	-0.2523	0.0623	0.3146	987.7915	0.185818	-387.078159	-387.07079	-387.069846	-387.109774	30.551	
O	 0.2658758612	 1.3256104553	 0.3127293235	-0.428078
C	 0.039530669	-0.0301922155	 0.0217273465	 0.136817
C	-1.3929546292	-0.6061318268	 0.0402962869	-0.067654
C	-2.4447481973	 0.206736404	-0.7638480543	-0.265336
C	-2.1035034297	-0.5836198114	-2.0685862296	 0.00114
C	-1.3412282757	 0.1737414879	-3.1588637843	-0.213702
C	 0.0788812342	 0.4170552794	-2.5852653595	-0.239933
C	 0.2694585985	-0.5916208022	-1.4293868663	-0.061477
C	-1.054224271	-1.4066946933	-1.2699139375	-0.044046
H	-0.4210734851	 1.8468574305	-0.1151193196	 0.281783
H	 0.6674280018	-0.5866386374	 0.7241157752	 0.087206
H	-1.7394463589	-1.0535158155	 0.9727247424	 0.062397
H	-3.4637781026	 0.0287830544	-0.413770379	 0.106954
H	-2.3081667071	 1.2952197367	-0.8082370551	 0.075999
H	-2.9564254686	-1.1413480829	-2.4615267409	 0.064405
H	-1.2791821147	-0.4537496767	-4.0557414217	 0.096355
H	-1.8432443372	 1.1012099691	-3.4558113935	 0.092951
H	 0.8435958575	 0.2908022612	-3.3560853258	 0.099464
H	 0.1978368156	 1.4403951622	-2.2122079779	 0.092248
H	 1.1926759368	-1.1645953399	-1.5279881615	 0.06527
H	-1.0263201775	-2.4930219989	-1.337745268	 0.057236
89.9292	219.8225	237.6108	278.1386	329.8421	469.6842	543.1952	586.2204	614.1191	660.1892	739.5695	784.1187	815.9465	837.3087	852.7807	883.8144	892.6297	932.0169	958.467	982.7446	1019.4499	1035.4635	1060.3983	1087.834	1123.6698	1129.4005	1136.9901	1158.769	1172.3754	1202.4835	1220.8614	1245.9284	1250.4963	1268.0833	1287.0211	1290.6827	1299.3788	1317.0815	1337.0004	1341.3009	1357.5253	1431.9584	1484.6631	1488.7199	1513.2377	3015.0891	3029.8018	3043.9097	3058.4271	3067.2954	3075.0031	3081.9473	3090.5399	3095.1904	3102.689	3123.2659	3812.4663
OC1C2CC3CCC1C23	O[C@H]1[C@H]2C[C@H]3CC[C@@H]1[C@@H]23	
InChI=1S/C8H12O/c9-8-5-2-1-4-3-6(8)7(4)5/h4-9H,1-3H2	InChI=1S/C8H12O/c9-8-5-2-1-4-3-6(8)7(4)5/h4-9H,1-3H2/t4-,5-,6+,7+,8-/m1/s1
