17
gdb 63346	2.55099	1.42216	1.14743	1.2422	68.11	-0.2509	-0.0517	0.1992	1095.4489	0.13318	-459.014804	-459.00602	-459.005076	-459.048386	33.084	
C	 0.1187322255	 1.5789939129	 0.1407593871	-0.426718
C	-0.0867853124	 0.0626640501	-0.0462782757	 0.290225
O	-1.4587334961	-0.2467340663	-0.088294342	-0.48062
C	 0.6781091553	-0.4684537572	-1.2721251031	-0.363658
C	 2.078282373	-0.8329666191	-0.7677427479	 0.394512
O	 3.0523967072	-0.9966986605	-1.4512858725	-0.298126
C	 2.037106418	-0.9620536426	 0.7644778714	-0.443021
C	 0.5884976042	-0.6885856517	 1.1177227997	 0.349046
O	-0.0202840235	-1.0503648099	 2.0938973409	-0.328044
H	 1.1773809189	 1.8604867768	 0.1350941002	 0.118152
H	-0.3808948923	 2.1036645819	-0.6782782329	 0.141104
H	-0.3247856137	 1.9070254178	 1.084999488	 0.132848
H	-1.6947930607	-0.5264695704	 0.8091459969	 0.291472
H	 0.1936206346	-1.3898946621	-1.6197180276	 0.150812
H	 0.7271173424	 0.2210584846	-2.1176174738	 0.136096
H	 2.3793773	-1.9387308543	 1.116517077	 0.166636
H	 2.7001842196	-0.2112351999	 1.2114729041	 0.169285
61.5644	88.5457	213.8267	242.5488	306.5436	324.3572	345.7747	407.6637	426.2818	450.0367	517.0657	554.6516	600.7106	635.3585	713.7238	784.9789	800.0883	907.3365	933.3039	980.4003	1027.3294	1057.5422	1145.0509	1162.683	1178.8646	1195.345	1224.4141	1229.5169	1308.5795	1396.4748	1399.7567	1404.7717	1446.9584	1486.5215	1492.8768	1828.7082	1868.8693	3035.6993	3043.7505	3052.8968	3109.7012	3111.9721	3115.38	3124.5727	3716.3044
CC1(O)CC(=O)CC1=O	C[C@@]1(O)CC(=O)CC1=O	
InChI=1S/C6H8O3/c1-6(9)3-4(7)2-5(6)8/h9H,2-3H2,1H3	InChI=1S/C6H8O3/c1-6(9)3-4(7)2-5(6)8/h9H,2-3H2,1H3/t6-/m1/s1
