21
gdb 83758	2.3223	1.81093	1.40815	1.211	80.75	-0.2404	0.0769	0.3173	1032.43	0.183716	-387.074701	-387.066542	-387.065598	-387.106729	33.051	
C	-0.2910892882	 1.5872793814	-0.0103324603	-0.434839
C	 0.0246666976	 0.0948287037	 0.0017736566	-0.028035
C	 1.0644142948	-0.5538698241	-0.9895761272	-0.063784
C	 2.2381241274	 0.3828826117	-1.3187958695	-0.205555
C	 2.9286847011	 0.639720531	 0.0513270396	-0.240053
C	 2.3252355724	-0.4209088403	 0.9693374995	-0.108105
C	 1.5557961562	-1.4535375713	 0.1791210889	-0.143999
C	 0.8151334963	-0.5530457132	 1.1396675881	 0.377438
O	 0.2621406426	-0.9266347622	 2.3559412353	-0.470993
H	 0.6035558633	 2.2091223691	 0.0802853923	 0.115891
H	-0.8053630987	 1.8746498099	-0.9344212834	 0.114151
H	-0.9561110022	 1.8414647013	 0.8231014541	 0.112249
H	-0.9120565245	-0.4675679315	-0.0904958965	 0.077383
H	 0.6257368354	-1.0420989186	-1.860186431	 0.063487
H	 2.928800741	-0.1189260306	-2.0051192451	 0.095825
H	 1.9115842152	 1.305833226	-1.8079787211	 0.094827
H	 4.0139119423	 0.5102694792	-0.0176828392	 0.096062
H	 2.7580452125	 1.657298681	 0.4179937413	 0.096182
H	 2.8836280036	-0.767335661	 1.8331570131	 0.0804
H	 1.7171032238	-2.5226937861	 0.1898475155	 0.08871
H	 0.3920046683	-0.2064571855	 2.9821749692	 0.282758
175.4195	181.4499	215.7854	232.7394	240.807	297.1347	356.7275	459.2424	525.063	579.8917	649.5428	706.9287	742.6252	768.6383	838.5503	856.0042	881.5025	901.984	913.0342	939.8011	976.4292	999.2336	1025.8786	1057.2845	1087.9806	1099.1665	1128.6543	1148.7155	1183.6417	1204.2638	1217.7297	1227.7579	1259.552	1268.8239	1294.0577	1321.2145	1333.5523	1338.4755	1383.2637	1402.1851	1452.5449	1482.4927	1493.8023	1500.5066	1512.1293	3028.2507	3035.1852	3036.5535	3045.6416	3067.5091	3085.8025	3088.8018	3105.2846	3112.2286	3167.2301	3208.6732	3798.6007
CC1C2CCC3C2C13O	C[C@H]1[C@H]2CC[C@@H]3[C@H]2[C@]13O	
InChI=1S/C8H12O/c1-4-5-2-3-6-7(5)8(4,6)9/h4-7,9H,2-3H2,1H3	InChI=1S/C8H12O/c1-4-5-2-3-6-7(5)8(4,6)9/h4-7,9H,2-3H2,1H3/t4-,5+,6+,7-,8-/m0/s1
