18
gdb 52657	3.46986	0.82388	0.68894	3.8231	82.04	-0.2588	0.0082	0.267	1614.4305	0.14431	-401.935788	-401.924872	-401.923928	-401.973379	37.108	
C	 0.0196835691	 1.484375983	 0.0405027551	-0.499971
C	 0.0012760348	 0.0290280595	 0.0168409863	 0.093705
C	-0.0030157012	-1.1746664243	 0.0001137279	 0.064466
C	-0.0442176351	-2.6337329251	-0.0339016374	-0.206457
C	-1.4908259328	-3.1609420198	-0.1084356033	-0.405968
C	 0.8164634964	-3.1561494237	-1.2230669384	 0.006028
O	 2.1330574335	-2.6534881045	-1.2297206521	-0.402498
C	 0.8247801339	-4.6359933453	-1.2429848152	 0.257978
N	 0.8563925495	-5.7912333768	-1.2276190058	-0.324662
H	 0.8015615823	 1.8795023561	-0.6171032438	 0.154411
H	-0.9371685633	 1.9009867726	-0.292387055	 0.150384
H	 0.2130800613	 1.8622913793	 1.0503816689	 0.150812
H	 0.4171403478	-3.0274572956	 0.8840790409	 0.10905
H	-1.9816459583	-2.8101712366	-1.0213176008	 0.130832
H	-1.5104590619	-4.2538491937	-0.0961858549	 0.145082
H	-2.0649415551	-2.7925100104	 0.7443180477	 0.135647
H	 0.3638089794	-2.8045987456	-2.1562511582	 0.146654
H	 2.5665560899	-2.919600509	-0.4103501018	 0.294507
25.1005	49.1041	76.5813	145.2329	161.3535	226.7414	227.9655	257.9095	292.6975	303.0796	345.4147	412.575	468.966	519.4992	549.206	611.7939	754.7531	856.5854	958.2623	996.5584	1051.9598	1053.1259	1081.7335	1089.0205	1110.5859	1187.5515	1249.2898	1291.8924	1329.5031	1358.8724	1409.3217	1414.2921	1422.2879	1477.3451	1478.0967	1494.3031	1499.6787	2351.5886	2373.6919	2994.2234	3029.3102	3048.1737	3070.7968	3090.7843	3092.017	3123.0835	3134.0281	3798.8623
CC#CC(C)C(O)C#N	CC#C[C@@H](C)[C@@H](O)C#N	
InChI=1S/C7H9NO/c1-3-4-6(2)7(9)5-8/h6-7,9H,1-2H3	InChI=1S/C7H9NO/c1-3-4-6(2)7(9)5-8/h6-7,9H,1-2H3/t6-,7+/m1/s1
