25
gdb 104684	2.20478	1.3589	1.04115	0.1649	92.38	-0.2452	0.0824	0.3277	1324.7919	0.228943	-352.334984	-352.325115	-352.324171	-352.369809	38.068	
C	 0.8913590193	-0.0733640264	-1.2367648048	-0.380552
C	-0.0550041297	-0.1226605955	-0.0292285386	-0.26769
C	 0.5826088698	-0.7060867066	 1.2259749627	 0.380147
C	 1.7236504289	 0.1194276188	 1.824363061	-0.248452
C	 1.3149804093	 1.5168194692	 2.3087129818	-0.385801
C	-0.2123627006	-1.438544799	 2.2846104115	-0.101507
C	-1.3667356217	-2.270346359	 1.7113616899	-0.248331
C	-0.3489745047	-3.0309547964	 0.800687837	-0.249734
C	 0.7915105147	-2.1938318979	 1.3982792732	-0.103519
H	 1.2814096527	-1.0700267734	-1.4692539189	 0.11817
H	 0.3717606482	 0.2999632285	-2.1249483578	 0.108151
H	 1.7488512541	 0.5834165092	-1.0593750249	 0.115825
H	-0.4260694083	 0.8869873321	 0.1861076404	 0.093386
H	-0.9394067979	-0.7037479813	-0.3039971373	 0.098067
H	 2.1473867485	-0.4388047959	 2.6682380397	 0.092403
H	 2.5351169211	 0.2121534747	 1.0917884833	 0.095419
H	 2.1602226729	 2.0242118212	 2.7844795826	 0.109185
H	 0.9751620822	 2.1518127173	 1.4846950419	 0.117819
H	 0.5021658969	 1.4602958509	 3.0404063412	 0.115993
H	-0.116729562	-1.1655209219	 3.3302459717	 0.0756
H	-1.8115887409	-2.9295564697	 2.4602774698	 0.099901
H	-2.175847391	-1.7221164736	 1.2178834671	 0.095124
H	-0.2735184814	-4.0876802493	 1.0665587585	 0.10064
H	-0.4955444925	-2.9620838085	-0.2821714568	 0.095102
H	 1.7656187221	-2.5890424874	 1.6658787255	 0.074655
42.8253	100.7433	170.5349	185.2752	221.7175	226.1849	296.8521	311.1012	340.4062	382.608	475.1262	524.5608	649.8937	731.9288	777.971	784.9659	788.9373	838.4393	866.3893	914.7655	947.0375	957.5057	977.2316	1008.1639	1014.3125	1027.8527	1048.508	1076.9034	1091.8745	1102.4529	1114.0265	1133.8404	1196.2053	1222.12	1248.6185	1259.2757	1271.4392	1287.1263	1303.257	1324.6034	1363.6157	1369.4638	1405.9601	1409.0293	1430.9611	1477.5855	1483.0206	1490.0208	1500.3228	1501.1898	1503.5977	1508.2959	1516.5179	3021.0396	3033.0765	3034.5297	3037.552	3042.4688	3049.6574	3052.1533	3079.3551	3090.8444	3101.5374	3102.0519	3105.3433	3108.3019	3110.1752	3155.8717	3167.3757
CCC1(CC)C2CCC12	CCC1(CC)[C@H]2CC[C@@H]12	
InChI=1S/C9H16/c1-3-9(4-2)7-5-6-8(7)9/h7-8H,3-6H2,1-2H3	InChI=1S/C9H16/c1-3-9(4-2)7-5-6-8(7)9/h7-8H,3-6H2,1-2H3/t7-,8+
