22
gdb 101114	3.30736	1.02267	0.89982	1.3786	81.84	-0.2432	0.0725	0.3157	1377.1613	0.19397	-404.306293	-404.296682	-404.295738	-404.341078	36.057	
C	-0.285435136	 1.4622827336	 0.005753889	-0.415299
C	-0.0361126164	-0.0489100312	-0.0492193728	-0.098556
C	 0.8210207074	-0.4422380254	-1.2680823594	-0.070059
O	 0.2075462893	-0.1433377809	-2.5125118516	-0.425867
C	 0.615733849	-0.5736362405	 1.2070415074	 0.370421
C	 0.6530812136	-2.052662976	 1.6465264863	-0.304557
C	 0.5968062387	-1.5835872639	 3.1382514827	-0.238085
C	 0.5793528621	-0.1304509199	 2.6474387547	-0.103252
N	 1.7366110871	 0.154962411	 1.8031393716	-0.355651
H	 0.654275643	 2.0059087025	 0.1394067223	 0.135632
H	-0.7730701868	 1.8086958195	-0.9111043218	 0.101516
H	-0.9444209812	 1.7227645471	 0.8392703156	 0.116308
H	-1.0025180857	-0.5595447188	-0.1624251748	 0.07714
H	 1.8105966601	 0.0331152769	-1.1821946523	 0.096792
H	 0.9791004986	-1.5262331941	-1.2728834013	 0.106302
H	 0.2253133293	 0.8109170232	-2.6289306361	 0.284039
H	-0.2401923382	-2.6113222387	 1.3553028582	 0.109021
H	 1.5356081623	-2.6201032109	 1.3316833172	 0.095741
H	-0.3293878454	-1.8867858287	 3.6321958005	 0.108432
H	 1.4399645825	-1.8543847773	 3.7832026224	 0.09727
H	 0.0771909482	 0.7082962664	 3.1169816522	 0.092553
H	 2.5344423385	-0.4415847639	 2.01738815	 0.220162
46.5448	99.0602	134.6014	196.6524	222.442	245.67	300.6782	313.6738	352.9741	427.5588	462.7613	500.9608	717.4745	749.9119	785.1307	827.9698	860.1563	911.2184	922.1224	938.4735	949.1331	1009.9125	1034.2342	1059.369	1070.6063	1080.0514	1114.6207	1121.3346	1133.5598	1190.2163	1201.8623	1223.8928	1236.2454	1246.1846	1273.2372	1293.214	1316.6989	1368.0912	1385.034	1402.3852	1422.2902	1433.7773	1479.0416	1494.2411	1498.6429	1501.9323	1511.3202	2985.9554	3014.6416	3038.36	3038.6638	3047.1512	3069.039	3093.3163	3102.1849	3110.8713	3118.9152	3172.3765	3452.4094	3831.8127
CC(CO)C12CCC1N2	C[C@@H](CO)[C@]12CC[C@H]1N2	
InChI=1S/C7H13NO/c1-5(4-9)7-3-2-6(7)8-7/h5-6,8-9H,2-4H2,1H3	InChI=1S/C7H13NO/c1-5(4-9)7-3-2-6(7)8-7/h5-6,8-9H,2-4H2,1H3/t5-,6+,7+/m0/s1
