15
gdb 132430	3.21392	1.36324	0.96285	1.457	72.72	-0.2215	-0.0319	0.1896	1135.9905	0.113788	-458.147347	-458.139683	-458.138739	-458.179523	29.022	
C	-0.0302387912	 1.5086270896	 0.0178074023	-0.475073
C	-0.0077097211	 0.010809747	-0.0074732793	 0.247561
C	-0.0339960457	-0.7177497653	-1.1505803081	-0.095306
N	-0.0147291672	-2.1027345783	-1.2252296857	-0.363593
C	 0.0316320357	-2.6897072885	-0.097258838	 0.41255
F	 0.0547297097	-4.0098933486	-0.0232600045	-0.059539
N	 0.0622974773	-2.0939311446	 1.1183578382	-0.428541
C	 0.0454628042	-0.6870834836	 1.2740116493	 0.314813
N	 0.0730763846	-0.078932237	 2.3994698765	-0.542424
H	 0.8569679808	 1.901054653	 0.5256111971	 0.144084
H	-0.0716692809	 1.9176465631	-0.99475299	 0.115914
H	-0.8919529359	 1.873631618	 0.5862791285	 0.144156
H	-0.0736248569	-0.2179565863	-2.113563076	 0.117474
H	 0.0985694194	-2.6788448782	 1.9415306421	 0.266314
H	 0.1091846671	-0.7235410304	 3.1899228376	 0.201609
128.5925	158.4414	172.6508	289.5643	343.8605	359.8779	427.4531	463.7927	554.0181	586.2197	587.6464	714.5551	755.0711	763.814	771.4392	811.117	951.9253	994.3745	1044.7174	1072.9446	1090.2086	1198.4137	1262.9436	1282.5091	1313.3535	1410.6332	1418.9716	1465.8298	1485.4322	1508.9675	1631.9493	1687.5749	1731.1668	3038.5854	3094.1472	3123.3682	3178.3232	3467.3054	3605.564
CC1=CN=C(F)NC1=N	CC1=C(NC(=NC1)F)[NH]	
InChI=1S/C5H6FN3/c1-3-2-8-5(6)9-4(3)7/h2H,1H3,(H2,7,8,9)	InChI=1S/C5H7FN3/c1-3-2-8-5(6)9-4(3)7/h7H,2H2,1H3,(H,8,9)
