21
gdb 107704	3.23449	1.3023	1.10813	1.4331	83.2	-0.2186	0.0735	0.292	1200.2533	0.182498	-383.170884	-383.162179	-383.161235	-383.204012	33.865	
C	-0.0313686528	 1.5417711703	 0.0229679605	-0.387696
C	-0.1038602784	 0.0129671195	-0.0754839672	-0.324361
C	-1.5047678037	-0.5198103145	-0.0164311029	 0.397936
N	-2.5669074415	-0.2388958776	-1.0465774139	-0.418413
C	-3.2645487685	-1.1269991516	-0.0552409613	 0.343772
C	-4.6933342815	-1.5583743138	-0.1890392407	-0.527947
C	-1.9753386048	-1.9952762596	 0.1447153833	-0.117929
N	-1.9498886741	-1.9045765096	 1.6414737354	-0.350696
C	-2.4918073436	-0.5778651388	 1.2016744415	-0.135239
H	 1.0058269125	 1.8872080538	-0.0156697202	 0.116503
H	-0.5697600623	 2.0187712106	-0.802762276	 0.120659
H	-0.4677815564	 1.899501391	 0.9615870161	 0.117068
H	 0.3568939352	-0.3215077518	-1.0131045203	 0.108584
H	 0.4617987606	-0.4478778737	 0.7428090819	 0.12166
H	-2.9050738627	 0.7235014803	-0.9495495348	 0.199849
H	-4.8589717692	-2.0495813468	-1.1529391753	 0.136007
H	-4.9590443866	-2.2630312328	 0.6071630265	 0.118865
H	-5.3748607383	-0.7031798051	-0.1212740494	 0.122626
H	-1.6484511156	-2.8707128785	-0.4181116926	 0.081518
H	-2.6973984809	-2.4778908316	 2.0425155008	 0.205604
H	-2.7775314674	 0.2173100003	 1.8953968385	 0.07163
80.9535	139.7444	189.1544	221.3442	248.7606	270.34	295.0219	401.1964	494.2594	545.5675	594.6134	679.9767	730.8137	764.5829	787.1146	832.5853	867.151	891.9993	915.7099	946.1164	967.7844	1020.9781	1056.6875	1082.9136	1092.1837	1099.4296	1122.8414	1150.8594	1160.3575	1185.8562	1235.7551	1245.9082	1277.0076	1287.8953	1307.5028	1310.9092	1359.4272	1402.9095	1409.0799	1437.6937	1472.4789	1479.168	1492.3744	1501.8569	1507.3587	3027.7696	3030.0063	3034.8915	3068.7435	3080.6161	3092.1351	3104.3317	3105.4892	3108.3054	3110.5795	3384.3426	3395.9042
CCC12NC3(C)C1NC23	CC[C@@]12N[C@@]3(C)[C@@H]1N[C@@H]23	
InChI=1S/C7H12N2/c1-3-7-4-6(2,9-7)5(7)8-4/h4-5,8-9H,3H2,1-2H3	InChI=1S/C7H12N2/c1-3-7-4-6(2,9-7)5(7)8-4/h4-5,8-9H,3H2,1-2H3/t4-,5+,6-,7+
