19
gdb 91476	2.58635	1.62786	1.22844	1.8369	81.88	-0.2497	0.051	0.3007	1063.1138	0.159711	-385.846356	-385.83824	-385.837295	-385.878547	32.696	
O	-0.0682599174	 1.3951638663	-0.0167021023	-0.433854
C	-0.0246995604	-0.0188633997	 0.0164196162	 0.080166
C	 0.4858534126	-0.6150086667	 1.3707529426	-0.253266
C	-0.7980752324	-1.3321590709	 1.8255213319	-0.05086
C	-1.2328127986	-2.0400206502	 0.5122276049	-0.269217
C	-1.4718883025	-0.5696196548	 0.0282486833	 0.255671
C	-1.894479599	-0.2773952677	 1.5094162111	-0.257693
C	-2.3114477459	-0.2623555104	-1.1004882914	 0.069813
C	-3.0209429653	-0.0276996349	-2.0429537315	-0.349041
H	 0.8361050354	 1.7228462692	-0.0246406268	 0.283885
H	 0.5290535167	-0.4078748025	-0.848581497	 0.070849
H	 1.3281985397	-1.3015071255	 1.2424182454	 0.094543
H	 0.7874929088	 0.1879667729	 2.049873024	 0.097805
H	-0.7707339186	-1.8601195014	 2.7782037307	 0.065697
H	-0.4939333507	-2.6390339802	-0.0289755902	 0.093417
H	-2.1721543736	-2.5878308115	 0.6041902729	 0.109773
H	-2.9037401783	-0.6371032939	 1.7169285755	 0.104297
H	-1.7616848684	 0.7445438575	 1.8680209846	 0.112781
H	-3.6447327321	 0.1882002044	-2.8742697438	 0.175235
130.4911	140.4106	201.3777	231.4542	327.1699	427.6432	454.577	470.1298	514.793	546.2831	574.5641	623.4152	629.7903	683.7629	819.5926	844.5407	864.335	901.6618	919.5088	953.1744	989.9064	994.3304	1018.0628	1057.858	1082.8361	1113.8925	1154.2914	1163.27	1202.3104	1216.8936	1235.4777	1258.8127	1263.4266	1276.4545	1313.4351	1348.2574	1424.4785	1483.801	1485.8096	1521.584	2236.4548	3007.1696	3048.3273	3054.6635	3077.3297	3097.9749	3118.7521	3127.4784	3142.6402	3504.5409	3826.0423
OC1CC2CC1(C2)C#C	O[C@H]1C[C@@H]2C[C@]1(C2)C#C	
InChI=1S/C8H10O/c1-2-8-4-6(5-8)3-7(8)9/h1,6-7,9H,3-5H2	InChI=1S/C8H10O/c1-2-8-4-6(5-8)3-7(8)9/h1,6-7,9H,3-5H2/t6-,7-,8+/m0/s1
