17
gdb 6997	2.65785	1.98775	1.53316	2.7082	64.97	-0.2396	0.0261	0.2657	904.8004	0.140205	-401.026438	-401.017631	-401.016687	-401.059296	32.188	
C	-0.1301351358	 1.565370609	-0.1022241102	-0.410146
C	 0.0506362658	 0.0628712497	 0.0271501271	 0.051961
N	 1.1474140242	-0.5181569814	-0.7750373938	-0.355398
C	 1.7492101073	-1.1810603087	 0.2608782266	 0.399566
O	 2.6460692841	-1.981503824	 0.3332259044	-0.378818
C	 0.7619635336	-0.5518689872	 1.2856250591	 0.221552
C	 1.3700646527	 0.3880685481	 2.3129689459	-0.448108
O	-0.0658137763	-1.5283205034	 1.8906405498	-0.474555
H	 0.8124071171	 2.0995444887	 0.0437610008	 0.123999
H	-0.5112345523	 1.8213113685	-1.0965782613	 0.12075
H	-0.8563599303	 1.9281828843	 0.6322107227	 0.12993
H	-0.8995049501	-0.458037051	-0.1321403947	 0.099534
H	 1.230439743	-0.6593789146	-1.7722643211	 0.247707
H	 1.9880275362	 1.1606020606	 1.847121036	 0.12444
H	 0.583221002	 0.8682485277	 2.9024715876	 0.127028
H	 2.010469076	-0.1820343888	 2.9939820419	 0.128034
H	 0.5159657128	-2.1958265175	 2.2739118895	 0.292524
90.8522	147.4695	200.8878	217.1321	232.276	260.7881	289.0489	331.6461	387.7009	442.7559	520.6259	579.7241	687.738	740.8379	758.0852	816.0548	893.1664	971.4411	1020.5633	1070.4805	1083.6865	1140.6945	1169.4233	1209.2614	1230.4921	1292.3873	1348.7091	1385.6133	1389.0699	1405.579	1415.3868	1478.8849	1485.1379	1496.347	1502.0133	1887.7599	3036.3991	3039.6428	3052.1939	3102.2891	3108.5626	3117.0793	3124.7926	3591.5415	3790.5367
CC1NC(=O)C1(C)O	C[C@H]1NC(=O)[C@]1(C)O	
InChI=1S/C5H9NO2/c1-3-5(2,8)4(7)6-3/h3,8H,1-2H3,(H,6,7)	InChI=1S/C5H9NO2/c1-3-5(2,8)4(7)6-3/h3,8H,1-2H3,(H,6,7)/t3-,5-/m1/s1
