17
gdb 125028	2.28348	1.8759	1.03732	3.0829	82.16	-0.1919	-0.0331	0.1588	1108.8198	0.137925	-414.211154	-414.202627	-414.201683	-414.244318	32.458	
C	 0.0003631867	 1.5461139077	 0.0299685402	-0.527945
C	-0.0045349339	 0.0442525717	 0.0151693843	 0.2101
C	-1.1633614936	-0.6824759265	 0.0364410796	 0.217403
N	-2.4167879657	-0.0989502544	 0.1219417943	-0.58985
C	-1.0954741734	-2.1229666407	 0.0262088892	-0.038639
N	 0.0173210551	-2.7828926483	-0.0052094627	-0.195363
N	 1.1410666751	-2.0551687521	-0.0251130448	-0.308228
C	 1.2686060019	-0.6570332757	-0.0134530248	 0.318655
N	 2.4013711128	-0.0438162308	-0.0312902286	-0.574069
H	 1.0282771639	 1.9062471834	-0.0055890843	 0.174777
H	-0.540531401	 1.9614811749	-0.8320638371	 0.114578
H	-0.479491366	 1.9403545553	 0.9348472288	 0.127756
H	-2.4771915927	 0.8658828431	-0.1654840819	 0.256922
H	-3.186797509	-0.6556923494	-0.2166484024	 0.253554
H	-2.003084757	-2.718514359	 0.04973613	 0.111105
H	 1.9845121387	-2.6082793395	-0.0459884126	 0.259218
H	 3.1845212181	-0.6972591296	-0.054142967	 0.190028
61.1822	128.1391	176.5756	260.5221	300.7446	346.0488	360.9948	486.086	495.8118	514.5606	537.4394	566.8666	611.4158	675.9704	682.8299	753.8088	756.556	855.1753	870.2101	944.0565	1055.3361	1063.2192	1080.2086	1179.0108	1211.5801	1228.6749	1321.1969	1381.2545	1398.184	1432.3852	1465.1737	1492.0402	1498.0087	1606.6963	1652.2603	1676.2882	1689.1142	3004.2539	3051.8767	3153.9414	3174.1607	3466.6261	3577.0437	3618.2015	3680.2621
CC1=C(N)C=NNC1=N	CC1=C(NN=C[C@H]1N)[NH]	
InChI=1S/C5H8N4/c1-3-4(6)2-8-9-5(3)7/h2H,1H3,(H4,6,7,9)	InChI=1S/C5H9N4/c1-3-4(6)2-8-9-5(3)7/h2,4,7,9H,6H2,1H3/t4-/m1/s1
