19
gdb 115761	3.77535	0.85805	0.74144	2.4751	77.96	-0.244	0.0488	0.2929	1511.9123	0.157058	-422.960444	-422.950635	-422.949691	-422.996111	34.919	
O	-0.1413857389	 1.5158158752	-0.3005753603	-0.428322
C	 0.0221406109	 0.1663935029	 0.1106158618	-0.090872
C	-1.3517574833	-0.4766494874	 0.0465301077	-0.053598
C	-1.8643693519	-0.769740177	-1.3779502504	-0.072178
O	-1.7265789847	-2.1947580872	-1.1800393066	-0.286274
C	-1.4508114964	-2.0155441864	 0.2232463993	 0.127441
C	-0.2342434625	-2.8181188294	 0.6981888259	-0.384059
C	-0.4850244402	-4.2538414856	 0.707893552	 0.295922
C	-0.7100871121	-5.4339614542	 0.7222617242	-0.419984
H	 0.7256844981	 1.9305138084	-0.332203	 0.288915
H	 0.7224158569	-0.3657461952	-0.5519985437	 0.093478
H	 0.4240950752	 0.1060465992	 1.13499778	 0.088772
H	-2.0360966163	 0.096346327	 0.6760577327	 0.087627
H	-2.9065746417	-0.4822823495	-1.5636037251	 0.10178
H	-1.2399198	-0.4033226651	-2.2003092544	 0.109575
H	-2.3196652994	-2.3084055778	 0.8291405832	 0.084507
H	 0.6228510736	-2.5976668074	 0.0521630712	 0.132741
H	 0.02995654	-2.4844351866	 1.7108853151	 0.129803
H	-0.9036859973	-6.4777789341	 0.7256609873	 0.194726
56.1866	68.9294	98.9389	109.74	183.5968	260.7362	280.6556	338.1023	359.7116	410.4635	492.0798	524.5125	618.2865	639.5397	800.8886	842.7509	876.0939	898.2247	936.7141	973.9714	1012.5676	1046.1867	1068.0631	1088.6004	1134.6229	1146.7998	1171.9993	1208.231	1232.2118	1260.2897	1280.2631	1291.2905	1313.2262	1359.6895	1377.5683	1399.5454	1456.5643	1461.7968	1519.0332	1531.1087	2242.0135	2964.9292	2995.9269	3001.2444	3020.1692	3020.9759	3067.2576	3069.5773	3090.375	3507.8675	3830.5318
OCC1COC1CC#C	OC[C@H]1CO[C@H]1CC#C	
InChI=1S/C7H10O2/c1-2-3-7-6(4-8)5-9-7/h1,6-8H,3-5H2	InChI=1S/C7H10O2/c1-2-3-7-6(4-8)5-9-7/h1,6-8H,3-5H2/t6-,7-/m0/s1
