21
gdb 86210	2.5432	1.30109	1.00903	2.7087	80.21	-0.2504	0.0014	0.2518	1251.1489	0.183409	-424.244143	-424.23522	-424.234276	-424.277333	35.216	
C	-0.0146650987	 1.569444942	-0.0039943519	-0.401592
C	 0.0459396207	 0.0343495201	 0.0066204989	-0.028057
C	 0.676726219	-0.5291480624	-1.2768375109	-0.232126
C	 0.9388282866	-2.0344289921	-1.1589312149	 0.112647
O	 1.4334938817	-2.5862487154	-2.3623141495	-0.44892
C	 1.9152657162	-2.327744779	-0.0034898354	 0.058656
O	 3.2704217847	-2.1026671387	-0.443766475	-0.448355
C	 1.5998694606	-1.5268768416	 1.2281639193	-0.13024
C	 0.7728442284	-0.4792853523	 1.2259934713	-0.030441
H	 0.9916057623	 2.000881509	-0.0467317108	 0.115529
H	-0.5725380992	 1.9305491515	-0.8736320431	 0.118375
H	-0.5062053685	 1.9545546994	 0.8956565633	 0.113717
H	-0.9918624926	-0.3322861864	 0.0649880429	 0.09167
H	 0.0365634878	-0.3391861791	-2.1436823252	 0.104189
H	 1.6290327575	-0.0148537066	-1.4721204884	 0.078121
H	-0.0105880527	-2.5421988909	-0.9410367221	 0.081053
H	 2.3950541728	-2.4928323035	-2.303574417	 0.281635
H	 1.8846473523	-3.4006433314	 0.2168191398	 0.09471
H	 3.4573078499	-1.1652742182	-0.3217013332	 0.282978
H	 2.0990697618	-1.8304730213	 2.1450024379	 0.095518
H	 0.5900560895	 0.0550624069	 2.1571764141	 0.090933
81.7902	165.3694	213.6315	248.3432	277.1078	298.5597	350.0712	371.982	410.2429	444.5753	489.2753	533.9351	577.2012	647.4714	712.1514	774.3195	825.0437	863.7967	940.8039	962.4038	990.6955	1010.3169	1025.843	1057.0553	1090.37	1107.161	1121.9521	1160.8749	1182.1337	1229.9151	1249.0958	1268.9851	1305.9365	1325.7349	1351.6837	1354.3071	1395.5706	1403.3403	1411.6141	1426.3948	1448.8781	1492.0456	1497.3307	1500.7696	1708.4303	2970.8328	3005.1894	3021.2977	3029.1726	3051.1157	3082.2325	3097.1101	3104.5204	3134.4965	3164.2118	3735.316	3807.2931
CC1CC(O)C(O)C=C1	C[C@H]1C[C@@H](O)[C@@H](O)C=C1	
InChI=1S/C7H12O2/c1-5-2-3-6(8)7(9)4-5/h2-3,5-9H,4H2,1H3	InChI=1S/C7H12O2/c1-5-2-3-6(8)7(9)4-5/h2-3,5-9H,4H2,1H3/t5-,6+,7-/m1/s1
