19
gdb 53452	4.55279	0.82793	0.73236	1.0956	81.75	-0.2541	0.0441	0.2983	1588.4526	0.159	-423.000906	-422.9918	-422.990856	-423.036527	32.731	
C	 0.000539588	 1.4592330206	-0.0081280342	-0.505682
C	-0.0237131399	 0.0052958035	 0.0280251814	 0.221612
C	-0.0489960975	-1.1956626145	 0.0701839183	-0.03739
C	-0.0609656065	-2.6534972637	 0.0778414289	 0.014247
O	 0.7573792375	-3.1153815118	 1.1316811952	-0.247135
C	 0.8172910096	-4.5372415058	 1.1504106626	-0.071886
C	-0.5880339453	-5.130296137	 1.2687374824	-0.206076
C	-1.4624689662	-4.5236780636	 0.1696331191	-0.071887
O	-1.3934046154	-3.1025855764	 0.2064009433	-0.247134
H	 0.6254448526	 1.8621468694	 0.796142008	 0.154255
H	 0.4007093486	 1.8275047097	-0.9589442656	 0.150174
H	-1.0065413015	 1.8724387608	 0.1132917052	 0.154264
H	 0.3475358711	-3.0443875703	-0.8771156211	 0.073308
H	 1.3052562498	-4.9024418373	 0.2300075916	 0.08864
H	 1.4509933704	-4.8062196582	 1.9989924038	 0.11312
H	-0.5557876233	-6.2218925213	 1.1786883663	 0.097843
H	-1.0076864336	-4.8772688107	 2.2476920593	 0.117965
H	-1.1334206082	-4.887925701	-0.8191410277	 0.08864
H	-2.5169906201	-4.7826170823	 0.2919171033	 0.11312
17.7214	83.6599	87.7416	205.8472	259.6198	305.8673	327.5756	369.1061	424.6874	456.3188	536.2039	538.6192	642.145	841.2116	868.8667	899.5646	942.782	959.4398	991.9563	1012.3353	1052.7109	1054.4982	1066.5832	1130.9319	1171.3598	1195.4093	1237.7178	1259.7986	1304.1158	1368.1455	1370.58	1405.9608	1409.3349	1414.5002	1421.8155	1468.5488	1476.2392	1476.8705	1493.9875	1504.195	2389.6497	2883.584	2955.7312	2963.216	3030.0695	3043.1533	3090.9515	3092.3264	3093.8323	3095.3694	3100.6715
CC#CC1OCCCO1	CC#CC1OCCCO1	
InChI=1S/C7H10O2/c1-2-4-7-8-5-3-6-9-7/h7H,3,5-6H2,1H3	InChI=1S/C7H10O2/c1-2-4-7-8-5-3-6-9-7/h7H,3,5-6H2,1H3
