21
gdb 92124	2.54087	1.61251	1.19851	1.5877	81.75	-0.2465	0.0742	0.3207	1104.9784	0.183394	-387.045899	-387.037763	-387.036819	-387.07852	32.879	
O	 0.2330894339	 0.850567754	-0.9849970531	-0.433448
C	-0.0128235127	-0.2219611988	-0.1106489921	 0.156758
C	 0.1445637827	-0.0126297436	 1.426251814	-0.283248
C	-1.2213960958	-0.7141456328	 1.6604706699	-0.007558
C	-2.4104338259	 0.266484693	 1.8292222629	-0.316074
C	-2.5620042036	 0.303199148	 0.2966495257	 0.372991
C	-3.8670514085	 0.3549675943	-0.4397737893	-0.329458
C	-2.8862912292	 1.4941837521	-0.5762144049	-0.344592
C	-1.4608599955	-0.7486510596	 0.0994977606	-0.16013
H	-0.3260806704	 1.5832231351	-0.7063096787	 0.283369
H	 0.6312834908	-1.0348368225	-0.4593908302	 0.087519
H	 1.0175485314	-0.4971872247	 1.8697485939	 0.102001
H	 0.1532544553	 1.0410047256	 1.7261616935	 0.091145
H	-1.2140628557	-1.6125111006	 2.2763238011	 0.066103
H	-3.2770644221	-0.1774921516	 2.3291899088	 0.099586
H	-2.1717584056	 1.2127441344	 2.327280324	 0.092573
H	-3.9999739465	-0.3040371075	-1.2921126401	 0.114612
H	-4.7685586029	 0.522962103	 0.1413893651	 0.110941
H	-3.1243495542	 2.4342238066	-0.0875542698	 0.112024
H	-2.3723765256	 1.5970189006	-1.5260027036	 0.124559
H	-1.7495690497	-1.641832615	-0.4586493777	 0.060329
61.7799	157.6557	234.5856	273.7107	309.9696	375.3831	401.1758	409.4697	483.4115	615.4071	639.3082	755.1366	786.8567	811.8249	823.7477	864.087	888.3243	897.7059	943.0878	952.2373	982.9325	1007.3346	1038.0792	1048.2571	1057.185	1077.5612	1105.8785	1119.9095	1141.9935	1164.9265	1196.9461	1214.6458	1223.9091	1248.0148	1261.185	1277.9789	1296.748	1303.4709	1321.3908	1375.614	1438.1421	1462.956	1475.2683	1488.6482	1497.954	3032.0806	3043.3783	3059.3995	3080.3725	3082.5738	3100.7357	3118.5369	3119.3988	3124.0164	3199.2026	3214.7952	3814.2519
OC1CC2CC3(CC3)C12	O[C@H]1C[C@H]2CC3(CC3)[C@@H]12	
InChI=1S/C8H12O/c9-6-3-5-4-8(1-2-8)7(5)6/h5-7,9H,1-4H2	InChI=1S/C8H12O/c9-6-3-5-4-8(1-2-8)7(5)6/h5-7,9H,1-4H2/t5-,6-,7+/m0/s1
