15
gdb 16614	3.57031	2.21383	1.50907	4.0796	67.77	-0.2482	-0.0471	0.2011	829.4758	0.119514	-362.679937	-362.672981	-362.672037	-362.711143	25.96	
C	 0.0045171246	 1.5073083869	 0.0075076048	-0.488654
C	-0.0562532755	 0.0168475235	 0.0201234951	 0.216911
C	-1.1010321652	-0.8159617435	-0.1024059867	-0.201202
C	-0.6394397951	-2.2291613412	-0.0759351468	-0.069911
C	 0.2699579827	-2.6949463417	-1.1695255128	-0.23921
N	 0.8126044962	-2.2041717104	 0.1133652335	-0.124395
C	 1.1902120134	-0.8070634226	 0.0718466682	 0.309023
O	 2.327603928	-0.4138029543	 0.0564592829	-0.321011
H	 0.6866436856	 1.8541695238	-0.7760649309	 0.147969
H	-0.9790296845	 1.9544085374	-0.1547807079	 0.123303
H	 0.408285439	 1.8843251627	 0.9536799974	 0.146636
H	-2.1431501713	-0.53345371	-0.1933382012	 0.11811
H	-1.1943854586	-2.9648022478	 0.4997240638	 0.113725
H	 0.403901668	-3.7583592253	-1.3467579539	 0.134906
H	 0.3789488327	-2.0559539575	-2.0422644755	 0.1338
99.8585	146.6347	237.6698	255.1296	389.7601	437.2112	517.1982	592.2182	716.4349	735.397	801.7375	838.2628	868.8885	890.987	958.3154	987.6395	1030.0615	1061.2745	1063.8956	1071.6206	1116.7689	1156.3942	1220.5569	1269.6651	1320.7637	1361.8607	1414.024	1471.7626	1483.1915	1497.242	1690.448	1832.3598	3037.862	3091.819	3109.0412	3125.1636	3150.8622	3204.024	3206.5272
CC1=CC2CN2C1=O	CC1=C[C@H]2CN2C1=O	
InChI=1S/C6H7NO/c1-4-2-5-3-7(5)6(4)8/h2,5H,3H2,1H3	InChI=1S/C6H7NO/c1-4-2-5-3-7(5)6(4)8/h2,5H,3H2,1H3/t5-,7?/m0/s1
