17
gdb 84439	2.57007	1.66065	1.25677	1.3677	68.35	-0.2283	-0.0016	0.2266	1012.1619	0.134198	-458.937561	-458.928933	-458.927989	-458.970085	33.618	
O	 0.1406006728	 1.3751006047	-0.2677588514	-0.43248
C	 0.0395408914	-0.0250459688	-0.0416880522	 0.011406
C	 0.694813669	-0.5102799495	 1.244352558	-0.132637
C	-0.1174475299	-1.2804221191	 1.9706802493	-0.133166
C	-1.4677711505	-1.3920200019	 1.3331697858	 0.365147
O	-2.143663235	-2.6031080898	 1.3790556302	-0.481697
C	-2.2415936596	-0.078918343	 1.2441997599	-0.407374
C	-1.3879419804	-0.5650079039	 0.0835259746	 0.281112
O	-2.0219985373	-1.0852272836	-1.0447019747	-0.481555
H	-0.2444223248	 1.8199586179	 0.4959280622	 0.278149
H	 0.5105728649	-0.4783012165	-0.9227789996	 0.10516
H	 1.7045340691	-0.2171717635	 1.5073197256	 0.107117
H	 0.1147621932	-1.7526720892	 2.9182427155	 0.111985
H	-2.4067298069	-2.8084679123	 0.4722382458	 0.295782
H	-3.3116680712	-0.1837244918	 1.0948577728	 0.117658
H	-1.9324390511	 0.7693053876	 1.8475270841	 0.101023
H	-2.4305748438	-0.3622097072	-1.532738196	 0.294371
128.4891	188.7477	214.5671	242.4555	284.4382	298.656	330.1754	342.7083	420.5304	458.071	503.5299	588.8298	619.2002	695.5003	750.6852	783.6277	842.4454	913.7287	913.9544	947.7563	968.3419	990.4061	1031.5052	1063.0544	1086.1734	1148.9698	1204.167	1221.6613	1258.1395	1287.8593	1314.4342	1342.51	1397.6807	1417.6361	1428.2517	1473.3038	1664.9589	3039.6233	3115.421	3192.0039	3213.4075	3215.7121	3765.0184	3794.2989	3803.6924
OC1C=CC2(O)CC12O	O[C@H]1C=C[C@@]2(O)C[C@@]12O	
InChI=1S/C6H8O3/c7-4-1-2-5(8)3-6(4,5)9/h1-2,4,7-9H,3H2	InChI=1S/C6H8O3/c7-4-1-2-5(8)3-6(4,5)9/h1-2,4,7-9H,3H2/t4-,5+,6+/m0/s1
