19
gdb 74906	2.64073	1.54365	1.11826	1.7909	76.58	-0.2457	-0.0039	0.2418	1118.6301	0.159845	-422.999604	-422.991498	-422.990553	-423.031999	31.383	
C	-0.0392391233	 1.5717315696	-0.0004118663	-0.486235
C	-0.0190098503	 0.0696140642	-0.013668445	 0.298066
C	-1.1271771531	-0.6742461377	-0.0864656741	-0.186197
C	-1.0781668719	-2.1624869997	-0.1340289542	 0.015702
O	-1.4718550416	-2.8042053776	-1.3586614835	-0.25338
C	-0.0872583654	-2.8302657663	-0.9967946932	 0.005919
C	 0.817103967	-1.9706284551	-1.866131033	-0.086679
O	 1.7893150145	-1.2238956502	-1.1498154724	-0.259847
C	 1.3457417693	-0.6069306779	 0.0586400244	-0.154956
H	 0.54008014	 1.9717871749	-0.8422627241	 0.137601
H	-1.0564726135	 1.9667132246	-0.0639496303	 0.124732
H	 0.4258628042	 1.9666465064	 0.9118855023	 0.128434
H	-2.1096844285	-0.2080441309	-0.1214574829	 0.094114
H	-1.4352817872	-2.6929978432	 0.7508678972	 0.098539
H	 0.2849566767	-3.8107054995	-0.7012251725	 0.095328
H	 1.3883589485	-2.5894035507	-2.5650444984	 0.110308
H	 0.1629711894	-1.3128673413	-2.452122688	 0.109039
H	 2.1203272473	 0.1283187001	 0.294668325	 0.108018
H	 1.3408782379	-1.3464049698	 0.8721519891	 0.101496
128.098	160.4929	201.5415	220.7919	303.8482	339.3316	353.0872	414.0303	459.9715	511.8969	619.4186	695.3101	816.4661	829.8508	855.4429	882.6698	914.7058	969.2634	990.9436	1022.709	1048.8562	1063.1403	1078.9671	1112.4137	1142.9524	1158.046	1198.6958	1271.3486	1279.2633	1303.3977	1339.5156	1364.7499	1399.0785	1411.0492	1412.7511	1456.082	1479.2548	1487.1267	1500.545	1509.0701	1723.8467	2994.3797	3017.3658	3026.2673	3065.8244	3081.31	3083.4483	3083.9818	3114.3115	3118.038	3148.999
CC1=CC2OC2COC1	CC1=C[C@H]2O[C@H]2COC1	
InChI=1S/C7H10O2/c1-5-2-6-7(9-6)4-8-3-5/h2,6-7H,3-4H2,1H3	InChI=1S/C7H10O2/c1-5-2-6-7(9-6)4-8-3-5/h2,6-7H,3-4H2,1H3/t6-,7+/m1/s1
