22
gdb 6858	3.07483	1.76597	1.55728	1.2091	77.61	-0.2401	0.0793	0.3194	972.7054	0.201118	-350.22997	-350.221674	-350.22073	-350.261781	33.187	
C	 0.0520265411	 1.4962208969	 0.0573882487	-0.411304
C	-0.0667561592	-0.0268182525	-0.0200957186	 0.371728
C	-1.5519717545	-0.4307632713	 0.0116855086	-0.421159
C	 0.6493174407	-0.5559651822	-1.2829142939	-0.204129
C	 0.8833527603	-2.0724914877	-1.2427849994	-0.217179
C	 1.5784233803	-2.4582494873	 0.0686245298	-0.192009
C	 0.793461797	-1.8976022267	 1.254746833	-0.068476
O	 0.6124134879	-0.4945064513	 1.1583721413	-0.289059
H	 1.1039455054	 1.7891427719	 0.1155972648	 0.116856
H	-0.3948328976	 1.9654187759	-0.8245054556	 0.107279
H	-0.4571150517	 1.8743619075	 0.9487043057	 0.116116
H	-2.0946825269	 0.0565491662	-0.8044755931	 0.111915
H	-1.7017287115	-1.5082243642	-0.0933139469	 0.113135
H	-2.0002492082	-0.1167378211	 0.9588284222	 0.119795
H	 0.0756137703	-0.2742223957	-2.1733865939	 0.088888
H	 1.620332864	-0.0503997156	-1.3562020274	 0.094289
H	-0.0716154421	-2.6076894647	-1.322589889	 0.096468
H	 1.4818567068	-2.3817224589	-2.1065250044	 0.093239
H	 1.6696392937	-3.5463280808	 0.1650765719	 0.089516
H	 2.5932635921	-2.041292545	 0.0857946803	 0.099744
H	-0.175568287	-2.4161291096	 1.3385213809	 0.082928
H	 1.328959329	-2.0586939238	 2.195764655	 0.101418
144.7262	190.6261	226.008	248.6154	308.0656	328.3278	345.3754	402.6542	453.0618	466.669	485.3615	581.5019	713.2632	820.2191	848.2755	857.9503	903.3643	920.5554	932.0575	972.0357	1004.9577	1011.5334	1063.609	1077.6904	1113.3652	1164.5209	1207.4947	1235.9319	1243.0796	1250.6467	1303.1861	1312.8239	1365.6371	1376.1593	1378.9071	1396.227	1408.7538	1417.5107	1469.0109	1476.4252	1480.3157	1489.5584	1492.2409	1495.8668	1509.3685	1516.8953	2973.2047	3022.3802	3023.4825	3024.9912	3038.7092	3044.5927	3062.9767	3067.4801	3072.0219	3077.1269	3109.0576	3115.9012	3118.7096	3119.5153
CC1(C)CCCCO1	CC1(C)CCCCO1	
InChI=1S/C7H14O/c1-7(2)5-3-4-6-8-7/h3-6H2,1-2H3	InChI=1S/C7H14O/c1-7(2)5-3-4-6-8-7/h3-6H2,1-2H3
