19
gdb 93637	2.03983	1.60718	1.30675	1.24	75.29	-0.2577	0.0243	0.2821	1088.7421	0.158366	-422.991492	-422.98234	-422.981396	-423.025859	34.483	
C	 0.3697151657	 1.6307814439	 0.1507119857	-0.406717
C	 0.1950845497	 0.1218980668	-0.0248557178	-0.039711
C	 1.1499858991	-0.4888452631	-1.0745200252	-0.093335
O	 1.616968284	-1.7297088923	-0.5371635114	-0.239337
C	 1.7575466693	-1.5443423238	 0.8585705839	-0.127667
C	 2.9988834519	-0.8418708157	 1.2172791243	 0.314272
C	 3.9889774258	-0.2272005974	 1.5188282119	-0.45186
C	 0.503160115	-0.7092118355	 1.2700949155	 0.109145
O	 0.642966602	 0.0177099133	 2.4633413514	-0.425039
H	 1.4059900291	 1.8861900452	 0.3978629826	 0.114686
H	 0.1125058912	 2.1581363896	-0.7736853042	 0.113629
H	-0.270151973	 2.0082609698	 0.9518300434	 0.131592
H	-0.8398907448	-0.0785014509	-0.3174031718	 0.082969
H	 0.6731250157	-0.7148609269	-2.0308482376	 0.111654
H	 2.0008436683	 0.1831382608	-1.2606513726	 0.099142
H	 1.7567147789	-2.5359477924	 1.3201323831	 0.115682
H	 4.8854608993	 0.2822238325	 1.7760151997	 0.207714
H	-0.3147136452	-1.4108029296	 1.4507556668	 0.099089
H	 1.5135353178	 0.4365602958	 2.4557994722	 0.284091
28.1415	129.5814	149.621	228.9844	261.3739	276.0345	347.5984	366.0672	394.101	483.641	532.7595	562.6847	642.7493	661.5716	675.1364	730.1506	778.5217	872.2816	929.5891	949.4936	975.8678	1013.8754	1079.0477	1095.6817	1122.7001	1142.7601	1155.4734	1237.4499	1248.7326	1289.2975	1307.9153	1333.85	1352.1141	1362.8216	1393.099	1409.6069	1446.7877	1492.6465	1503.3814	1514.8799	2217.2652	2996.0919	3035.7586	3049.6473	3070.1694	3085.0434	3097.8336	3104.1448	3123.9532	3496.8173	3759.6631
CC1COC(C#C)C1O	C[C@H]1CO[C@@H](C#C)[C@H]1O	
InChI=1S/C7H10O2/c1-3-6-7(8)5(2)4-9-6/h1,5-8H,4H2,2H3	InChI=1S/C7H10O2/c1-3-6-7(8)5(2)4-9-6/h1,5-8H,4H2,2H3/t5-,6-,7-/m0/s1
