19
gdb 73488	2.51861	2.17748	1.57253	0.972	73.34	-0.2266	0.0687	0.2953	905.384	0.161899	-423.014097	-423.007241	-423.006297	-423.044771	29.178	
O	-0.0227140063	 1.3763382414	-0.0196513586	-0.497354
C	 0.036210739	-0.0250695612	-0.0478128994	 0.430551
C	 0.7359815832	-0.6653708037	-1.2573169055	-0.301164
C	 0.0169147554	-2.0380092384	-1.3895104994	-0.212707
C	-0.7275689436	-2.1278834844	-0.0548496174	 0.093809
O	 0.2975600982	-2.1184267958	 0.9825331994	-0.293108
C	 0.2922869773	-0.7299205857	 1.3386941514	 0.02947
C	-1.1900266846	-0.4654549163	 1.6828172533	-0.253434
C	-1.3475145624	-0.7269850081	 0.1650647515	-0.111562
H	 0.8734891762	 1.7109846496	 0.0922135421	 0.280867
H	 0.5984615236	-0.0320837574	-2.1380089457	 0.104525
H	 1.8119815681	-0.7801413252	-1.0915812279	 0.100224
H	-0.6879080647	-2.0452204722	-2.2288197506	 0.095268
H	 0.7057920566	-2.8760879563	-1.5171474633	 0.106767
H	-1.379238618	-2.9938909873	 0.076474851	 0.072847
H	 1.134154168	-0.5015325047	 1.9939638851	 0.069544
H	-1.6583424015	-1.1533088258	 2.3896936835	 0.095052
H	-1.3931565642	 0.5750951862	 1.9343985987	 0.115876
H	-2.2336283104	-0.4640572147	-0.4118374383	 0.07453
202.4536	261.2935	301.8158	349.4899	384.7167	418.9473	481.0069	567.9831	626.9314	682.8126	728.1125	797.9539	848.8314	866.0299	896.3242	914.7394	928.164	956.8473	974.3218	997.6143	1009.135	1048.5442	1052.4133	1106.5736	1121.2392	1129.4843	1183.9381	1188.5264	1228.4097	1235.5111	1252.514	1260.0456	1279.6677	1289.9174	1309.2518	1331.7176	1349.9991	1385.4798	1474.779	1478.7283	1496.6392	3041.6104	3051.3684	3078.6705	3091.8965	3095.4281	3110.8384	3111.8744	3126.5279	3153.7597	3804.4359
OC12CCC3OC1CC23	O[C@@]12CC[C@H]3O[C@@H]1C[C@@H]23	
InChI=1S/C7H10O2/c8-7-2-1-5-4(7)3-6(7)9-5/h4-6,8H,1-3H2	InChI=1S/C7H10O2/c8-7-2-1-5-4(7)3-6(7)9-5/h4-6,8H,1-3H2/t4-,5-,6-,7-/m1/s1
