19
gdb 43760	3.45363	1.14049	1.01182	3.589	81.1	-0.2378	-0.005	0.2328	1225.445	0.159203	-385.868928	-385.860871	-385.859927	-385.901956	31.454	
O	-0.0150235778	 0.059657151	-0.1687372275	-0.323214
C	 0.015857935	 1.2406878665	 0.0370773338	 0.433483
C	-1.1030909441	 2.2773103974	 0.333658823	-0.43901
C	-0.0597442194	 3.3769996937	 0.0505899957	 0.386391
C	 1.0303477752	 3.2419726816	 1.0518410012	-0.337309
C	 1.0582125341	 2.2921305628	-0.1436233877	-0.224684
C	-0.2849470569	 4.6039029182	-0.7564362681	-0.107381
C	-1.2565992108	 4.6384456994	-1.911757271	-0.276876
C	-1.5790918719	 5.3789482235	-0.6398337571	-0.266553
H	-1.8909269273	 2.1870916171	-0.4195022597	 0.131841
H	-1.5571584623	 2.2762102163	 1.3290999688	 0.117073
H	 1.8084712731	 3.9987358164	 1.0166019547	 0.123766
H	 0.8328565196	 2.8580213923	 2.0496018901	 0.119873
H	 1.906564535	 2.2589168589	-0.8165361314	 0.107504
H	 0.6109295335	 5.2063024336	-0.8818528257	 0.084134
H	-0.9757893819	 5.2125057337	-2.7875794393	 0.117042
H	-1.8247317758	 3.7427016056	-2.1366795845	 0.118561
H	-2.3535449613	 4.967562819	-0.0012510345	 0.118732
H	-1.5303327863	 6.462056033	-0.638830511	 0.116626
65.3389	95.3176	176.9089	240.5332	361.9573	382.1576	455.6128	470.6448	552.5333	594.7791	659.3162	757.99	780.5551	814.544	832.7875	891.1144	918.4175	924.6373	961.7348	982.9945	992.007	1046.2522	1059.402	1063.9249	1079.8286	1085.4021	1110.0085	1132.555	1135.0108	1196.2947	1205.1408	1219.983	1237.8672	1276.8072	1346.9699	1442.4342	1455.8648	1471.9017	1498.8451	1511.9974	1877.9124	3054.4912	3108.3157	3110.6285	3134.0906	3136.7359	3141.049	3190.8038	3198.8092	3213.1732	3227.6507
O=C1CC2(CC12)C1CC1	O=C1C[C@]2(C[C@@H]12)C1CC1	
InChI=1S/C8H10O/c9-7-4-8(3-6(7)8)5-1-2-5/h5-6H,1-4H2	InChI=1S/C8H10O/c9-7-4-8(3-6(7)8)5-1-2-5/h5-6H,1-4H2/t6-,8+/m0/s1
