15
gdb 34837	3.67058	1.15432	0.96917	1.5804	78.85	-0.2505	0.0227	0.2732	1185.2811	0.109969	-383.341654	-383.333711	-383.332767	-383.374062	30.751	
C	 0.0207465879	-1.2981722651	-0.0044391441	-0.408715
C	 0.0196277266	-0.0965104303	 0.0166073709	 0.315834
C	-0.0233242629	 1.3470269597	 0.002488833	-0.231669
C	 0.0927670732	 2.1126045565	 1.3586354502	 0.041476
O	 1.5042951456	 1.7037424621	 1.456064059	-0.300113
C	 1.3228309744	 2.1365031527	 0.0600490479	 0.041475
C	 0.5638386218	 3.394604175	 0.5963519071	-0.185075
C	-0.3325865079	 4.1616008622	-0.2386589285	 0.29611
C	-1.0738621369	 4.8101967257	-0.9288467572	-0.437861
H	 0.0339554449	-2.359925072	-0.0114556707	 0.195605
H	-0.7671914973	 1.7397785416	-0.6948986659	 0.122202
H	-0.5290474511	 2.0321620568	 2.249493736	 0.113838
H	 2.1799197354	 2.0847949499	-0.6103821166	 0.113838
H	 1.2087769774	 4.0171698749	 1.2187167471	 0.120782
H	-1.7284697212	 5.3832792604	-1.5382201783	 0.202272
107.0879	139.573	187.1461	187.5167	369.2561	428.5233	474.6742	511.4849	543.5424	636.0214	636.2332	637.1152	640.4113	659.9605	761.0977	806.1488	868.0556	898.1323	901.7019	937.5815	1054.2161	1055.7645	1068.1759	1110.803	1140.6398	1170.68	1183.4778	1229.4387	1259.442	1350.8458	1377.4156	2233.261	2241.2416	3087.3847	3106.1171	3129.7432	3135.2412	3501.3045	3504.5088
C#CC1C2OC1C2C#C	C#C[C@H]1[C@H]2O[C@@H]1[C@H]2C#C	
InChI=1S/C8H6O/c1-3-5-7-6(4-2)8(5)9-7/h1-2,5-8H	InChI=1S/C8H6O/c1-3-5-7-6(4-2)8(5)9-7/h1-2,5-8H/t5-,6-,7-,8+
