17
gdb 32119	3.73006	1.11312	0.86362	2.2129	81.53	-0.2	-0.0074	0.1926	1302.933	0.137648	-418.060396	-418.052096	-418.051151	-418.093132	31.547	
C	 0.025887678	 1.456799178	 0.1284805753	-0.323367
N	-0.0213187097	 0.0334729606	-0.1379234817	-0.376768
C	-1.1978074133	-0.6888435637	-0.0699292631	 0.336267
C	-2.4630107852	-0.0698369961	-0.0411709996	-0.085143
N	-3.606922952	-0.7506575563	-0.01748318	-0.250794
C	-3.5665228651	-2.07887138	-0.0145321182	-0.139365
C	-2.3619833033	-2.7913378299	-0.0335630014	 0.348312
O	-2.3121449889	-4.1519545431	-0.0249451503	-0.441498
C	-1.1667741474	-2.0897546207	-0.0607959279	-0.264586
H	 1.0663079262	 1.7859564649	 0.0866477828	 0.12604
H	-0.5273651275	 2.0133919315	-0.6358191638	 0.13949
H	-0.3866296472	 1.7301398242	 1.1116738306	 0.121773
H	 0.8039236689	-0.4797103624	 0.1267041858	 0.239377
H	-2.5483375112	 1.0115796708	-0.0397412034	 0.093538
H	-4.5188443837	-2.6084057377	 0.0073567774	 0.083616
H	-3.2120701277	-4.4951496667	-0.0056741993	 0.29962
H	-0.2272445411	-2.6328810234	-0.0800627031	 0.093489
92.4518	174.6858	216.5397	241.5773	250.0184	336.601	373.4076	411.9354	472.0285	487.9659	549.5183	608.5656	642.1507	730.7727	741.5899	852.2903	887.8028	895.9575	969.5317	1020.9323	1088.3744	1152.5949	1166.0512	1194.0339	1216.4048	1257.3382	1315.3682	1354.0604	1370.0415	1452.8278	1470.6884	1484.2372	1501.0794	1523.8962	1557.8786	1608.1372	1655.608	2987.4483	3063.0835	3120.9323	3122.5682	3179.2939	3180.089	3627.5046	3814.6318
CNC1=CN=CC(O)=C1	CNc1cncc(O)c1	
InChI=1S/C6H8N2O/c1-7-5-2-6(9)4-8-3-5/h2-4,7,9H,1H3	InChI=1S/C6H8N2O/c1-7-5-2-6(9)4-8-3-5/h2-4,7,9H,1H3
