20
gdb 7658	3.03258	2.14701	1.50845	1.5519	74.98	-0.2512	0.081	0.3322	907.2052	0.176718	-348.943292	-348.935095	-348.934151	-348.975353	32.137	
C	-0.1207336102	 1.5421027904	 0.0787227372	-0.473518
C	-0.0270222069	 0.01130678	-0.003680049	 0.388232
C	-1.4709511388	-0.5012581335	-0.1906201171	-0.513927
C	 1.1632924029	-0.5888638478	-0.8629131772	-0.156056
C	 2.1283427001	-0.1430019854	 0.2786572945	-0.237832
C	 0.9023034532	-0.7655903074	 1.0034700955	-0.134374
C	 1.0637589613	-1.9176544826	-0.062456364	 0.182304
O	 0.105085461	-2.9073616493	-0.3305258341	-0.453166
H	 0.8347328561	 2.0663949983	 0.0616688912	 0.114443
H	-0.709834829	 1.9174689005	-0.7664475967	 0.113777
H	-0.6485772434	 1.8406285936	 0.9918292579	 0.11709
H	-1.7626774312	-0.4986632709	-1.2492627115	 0.111669
H	-1.6385738595	-1.4963584268	 0.2201475299	 0.137313
H	-2.1695804881	 0.1695947073	 0.3201285656	 0.114472
H	 1.3219641963	-0.4784505466	-1.9392685315	 0.063335
H	 3.0663220568	-0.6984762192	 0.3514491926	 0.093161
H	 2.3038475269	 0.920356889	 0.4094829982	 0.100565
H	 0.7599535327	-0.8740224572	 2.0806838151	 0.066466
H	 2.0126470646	-2.4514745539	 0.044435085	 0.077752
H	-0.5548189549	-2.5616196885	-0.9344485618	 0.288292
96.3439	155.1083	196.0811	208.6566	346.4553	356.4665	390.8861	399.8066	463.3772	541.0004	643.2121	651.4265	754.1609	767.5067	861.0472	884.4802	890.5531	951.8244	970.3747	1003.0321	1014.0436	1035.2395	1075.5427	1083.5179	1097.5313	1145.3104	1171.64	1189.76	1197.8596	1216.2892	1232.7304	1260.5974	1298.7086	1312.6365	1403.4861	1420.6156	1470.0281	1490.292	1494.2577	1507.6282	1534.2941	1543.6132	3020.7141	3030.9311	3059.9038	3070.1164	3078.92	3080.4214	3082.3382	3095.8847	3132.7766	3141.4406	3176.9735	3872.2863
CC1(C)C2CC1C2O	CC1(C)[C@H]2C[C@@H]1[C@H]2O	
InChI=1S/C7H12O/c1-7(2)4-3-5(7)6(4)8/h4-6,8H,3H2,1-2H3	InChI=1S/C7H12O/c1-7(2)4-3-5(7)6(4)8/h4-6,8H,3H2,1-2H3/t4-,5+,6-
