23
gdb 61404	2.65845	0.89583	0.81002	3.4147	83.08	-0.2413	-0.0145	0.2268	1542.7919	0.20122	-425.446214	-425.434812	-425.433868	-425.48339	41.407	
C	 0.2779685243	 1.7197528841	 0.2200464147	-0.404819
C	 0.056174943	 0.2029943377	 0.0793840629	-0.077058
C	 0.5121943387	-0.380172184	-1.2790576168	-0.197249
C	-0.3025794921	-0.0067791401	-2.5359007029	 0.329738
C	 0.2387725926	-0.8065739942	-3.7321576421	-0.408467
C	-1.8057652082	-0.2656769744	-2.3613692703	-0.417722
O	-0.0709864145	 1.3906225371	-2.7655097501	-0.451875
C	 0.8402551289	-0.5051987994	 1.1687449122	 0.157681
O	 0.3717898153	-1.2310657533	 2.0072529603	-0.252487
H	 1.3419123561	 1.9669093613	 0.1266296103	 0.116082
H	-0.2510891241	 2.2606625354	-0.5637389766	 0.146896
H	-0.0666267254	 2.0716404049	 1.1977237611	 0.116331
H	-0.995328686	-0.0435731056	 0.2560197253	 0.09206
H	 1.5532904782	-0.0882090597	-1.4648449549	 0.105642
H	 0.500706797	-1.4744698676	-1.2049046528	 0.106059
H	 0.0854963231	-1.8823571106	-3.6003214067	 0.117379
H	-0.2750698738	-0.5084887314	-4.6536726836	 0.10268
H	 1.3082241632	-0.6193791127	-3.8642892533	 0.122764
H	-2.2297856045	 0.3793055541	-1.5884179234	 0.129554
H	-2.3362073076	-0.0605471284	-3.2986552386	 0.103795
H	-2.0040392302	-1.3079262587	-2.0915729751	 0.121213
H	-0.5672292452	 1.6439597982	-3.5512998756	 0.27594
H	 1.938440421	-0.2990547926	 1.1403720358	 0.065862
30.1831	51.6841	110.6612	170.8489	227.5815	235.1052	259.6817	271.0825	287.1072	289.9524	335.5702	364.881	375.7569	412.0143	452.9839	518.3916	583.3177	759.4169	841.9013	893.0358	904.6398	920.2763	937.1544	960.9675	998.4944	1008.4809	1075.7657	1107.3217	1154.5625	1158.0983	1203.6588	1204.5063	1282.2646	1302.8713	1353.1747	1370.0534	1393.9425	1397.7115	1408.4132	1418.1986	1428.927	1468.9378	1481.6211	1485.4631	1497.058	1501.1668	1503.1057	1510.8877	1834.015	2834.0422	3022.7264	3026.5365	3034.3224	3035.7026	3060.2818	3073.4723	3091.8021	3098.4396	3099.465	3116.7056	3126.0881	3157.7706	3805.2279
CC(CC(C)(C)O)C=O	C[C@@H](CC(C)(C)O)C=O	
InChI=1S/C7H14O2/c1-6(5-8)4-7(2,3)9/h5-6,9H,4H2,1-3H3	InChI=1S/C7H14O2/c1-6(5-8)4-7(2,3)9/h5-6,9H,4H2,1-3H3/t6-/m0/s1
