21
gdb 110736	2.47789	1.22552	1.06064	3.1557	83.92	-0.2344	-0.0051	0.2293	1278.4321	0.181101	-387.095237	-387.085712	-387.084768	-387.129741	35.403	
C	 0.2148753127	 1.4180124426	 0.225000551	-0.373539
C	-0.2006605781	-0.0198321591	-0.1070456108	-0.215966
C	 0.6082797318	-0.6023783326	-1.2530670668	-0.038904
C	 1.9659740632	-1.2149933827	-1.1461579585	-0.115777
C	 2.1171454887	-2.0067788818	 0.1594914299	-0.363969
C	 0.9289231075	-2.877464245	-0.3263516921	 0.358085
O	 0.4856982676	-3.9297136937	 0.043713518	-0.319846
C	 0.7393715577	-2.0857682223	-1.588632505	 0.179822
C	 0.3259462417	-2.6720816544	-2.9090652155	-0.498322
H	 1.2644655482	 1.4640474867	 0.5342870361	 0.120017
H	 0.098628763	 2.074671822	-0.6444249589	 0.11509
H	-0.3943447818	 1.8283316973	 1.0359500767	 0.115894
H	-0.1121096713	-0.644851089	 0.7871335227	 0.110138
H	-1.2622368918	-0.0428580255	-0.3831241423	 0.104678
H	 0.4909215361	-0.028352944	-2.1730982101	 0.089885
H	 2.7924139238	-0.9174396463	-1.7794043152	 0.098602
H	 3.0233453682	-2.6187216127	 0.198744591	 0.129081
H	 2.0167921347	-1.464898127	 1.1037461372	 0.118952
H	-0.748737222	-2.8838204297	-2.9228902868	 0.135931
H	 0.5395823414	-1.9819992093	-3.7313661335	 0.119443
H	 0.8492542186	-3.6132364636	-3.1060927471	 0.130703
69.1349	90.6419	143.8356	171.4095	213.1038	238.54	274.5954	291.3252	399.7458	472.3729	515.6264	608.2554	651.5374	682.2934	726.9007	809.2905	843.4875	869.9409	923.6574	939.8507	988.9672	1005.3052	1019.5305	1055.4206	1070.4025	1096.6053	1113.7838	1138.1056	1169.7376	1216.5311	1250.7867	1284.1879	1312.1705	1337.1857	1365.5649	1410.4087	1413.7241	1453.8442	1469.5175	1482.3306	1492.0927	1496.3975	1498.4378	1508.1888	1868.2657	3031.3029	3031.9845	3033.9505	3058.3196	3071.7519	3095.1453	3097.6279	3104.2105	3107.1094	3107.6174	3108.7913	3193.5009
CCC1C2CC(=O)C12C	CC[C@H]1[C@H]2CC(=O)[C@@]12C	
InChI=1S/C8H12O/c1-3-5-6-4-7(9)8(5,6)2/h5-6H,3-4H2,1-2H3	InChI=1S/C8H12O/c1-3-5-6-4-7(9)8(5,6)2/h5-6H,3-4H2,1-2H3/t5-,6+,8-/m0/s1
