15
gdb 27037	2.3709	1.4907	0.9205	5.5378	76.95	-0.2149	-0.0534	0.1615	1198.4295	0.112227	-453.991619	-453.983255	-453.98231	-454.024757	30.348	
C	 0.0919475545	 1.5231564483	 0.0505880628	-0.504617
C	-0.0154585414	 0.0393941275	 0.0241010452	 0.260019
C	-1.0911607435	-0.7877830052	-0.0742640517	 0.155762
O	-0.6553684456	-2.1091743578	-0.054181131	-0.233533
C	 0.7112657984	-2.1142844831	 0.0579039817	 0.465047
N	 1.498227321	-3.0999432972	 0.1109060786	-0.596369
N	 1.087555623	-0.775418806	 0.1048834864	-0.371988
C	-2.4990679935	-0.4938399676	-0.1865651265	 0.060861
O	-3.385431354	-1.3176441697	-0.2694698907	-0.289701
H	 0.7073625821	 1.8831105216	-0.7816974129	 0.153931
H	-0.8904104841	 1.9893476654	-0.0245663473	 0.160288
H	 0.562668024	 1.8622412379	 0.9803411458	 0.153926
H	 0.987416821	-3.9772732659	 0.0585453144	 0.237469
H	 2.0489203806	-0.492391467	 0.1873148602	 0.281512
H	-2.7140612325	 0.5973609389	-0.1910679351	 0.067394
117.8791	141.1439	166.2605	169.6119	232.7428	274.0089	366.5345	445.3446	455.8634	555.1362	620.5677	636.0166	698.9259	723.6832	769.8943	851.329	972.078	993.9999	1006.889	1050.5563	1060.3338	1111.6735	1256.032	1315.507	1354.693	1412.0658	1431.1586	1458.9051	1474.7629	1494.2797	1684.4244	1771.8835	1800.975	2882.2919	3036.2458	3087.8506	3152.7821	3545.0955	3682.7218
CC1=C(OC(=N)N1)C=O	CC1=C(O[C@H]([NH])N1)C=O	
InChI=1S/C5H6N2O2/c1-3-4(2-8)9-5(6)7-3/h2H,1H3,(H2,6,7)	InChI=1S/C5H7N2O2/c1-3-4(2-8)9-5(6)7-3/h2,5-7H,1H3/t5-/m1/s1
