21
gdb 108949	3.50511	1.04088	1.02091	1.7787	84.39	-0.2187	0.0146	0.2333	1305.4964	0.18297	-387.091	-387.082181	-387.081237	-387.124526	34.19	
C	 0.0842927442	 1.435866299	 0.2594728644	-0.374055
C	-0.0596299532	-0.0391643143	-0.1553723914	-0.28826
C	-1.4771459771	-0.5335804177	-0.127754071	 0.30568
C	-2.187041784	-1.0052146817	-1.1642927024	-0.213397
C	-3.5415607763	-1.4819988217	-0.7707660365	-0.133271
C	-3.554997773	-2.6310294111	 0.2218566164	 0.127164
O	-2.4544807513	-3.4578711779	 0.4387756977	-0.428254
C	-3.6229890665	-1.219854653	 0.7418103698	-0.107632
C	-2.3037674256	-0.5676189057	 1.1514115458	-0.319477
H	 1.1310029088	 1.7506266019	 0.2100583497	 0.115176
H	-0.4980073981	 2.0863225797	-0.4006847673	 0.121639
H	-0.2638264712	 1.6001975303	 1.2838531653	 0.122019
H	 0.3516796285	-0.1783688877	-1.1615359255	 0.102682
H	 0.5561455691	-0.6520639388	 0.5180973042	 0.105415
H	-1.8146254376	-1.0754052066	-2.1812965535	 0.09047
H	-4.3822646624	-1.3515586979	-1.4439262438	 0.083797
H	-4.4732246004	-3.2082679168	 0.2731412029	 0.101168
H	-1.6950029811	-3.0446808809	 0.007657557	 0.280585
H	-4.542298299	-0.8818737536	 1.2063766514	 0.083202
H	-1.7945417684	-1.1435135486	 1.9368565818	 0.116151
H	-2.4590461155	 0.440359943	 1.5549927751	 0.109197
66.1327	116.0206	192.9115	213.9936	218.7407	325.1292	330.3205	368.823	470.477	553.1085	589.3829	631.1319	731.6715	751.75	779.0852	797.0059	853.2884	886.9907	925.8034	959.1022	967.9657	1001.4227	1026.2834	1042.5351	1063.0642	1073.3381	1095.4564	1103.4035	1190.6282	1192.7968	1202.1913	1265.4214	1297.2205	1312.3635	1329.9637	1348.2015	1354.7872	1372.9926	1409.7066	1442.1642	1474.0879	1480.0833	1499.4926	1507.3244	1688.8306	3006.5211	3014.6988	3038.4715	3046.6068	3059.8611	3110.0762	3111.7162	3154.0081	3160.5847	3174.2891	3184.0215	3751.2179
CCC1=CC2C(O)C2C1	CCC1=C[C@H]2[C@@H](O)[C@H]2C1	
InChI=1S/C8H12O/c1-2-5-3-6-7(4-5)8(6)9/h3,6-9H,2,4H2,1H3	InChI=1S/C8H12O/c1-2-5-3-6-7(4-5)8(6)9/h3,6-9H,2,4H2,1H3/t6-,7+,8-/m1/s1
