22
gdb 11074	2.12153	2.04794	1.79126	0.2303	82.84	-0.2318	0.0873	0.3192	977.3663	0.199373	-313.059015	-313.050025	-313.049081	-313.091589	34.547	
C	 0.0037336608	 1.5627828447	 0.0333917553	-0.422121
C	 0.1206337641	 0.0523778673	 0.0711187153	-0.09348
C	 1.3654586974	-0.7544210123	-0.2205932822	 0.301102
C	 1.4194630523	-1.8166263353	-1.282903639	-0.496419
C	 2.6050416654	-0.0417421808	 0.3415732298	-0.281464
C	 1.9593579541	-0.0555421618	 1.7623035928	-0.28153
C	 0.7262638289	-0.7686560972	 1.186705807	 0.301192
C	-0.0298719673	-1.8489820535	 1.9084142737	-0.496451
H	 0.886301149	 2.063516798	 0.4394607803	 0.118535
H	-0.1301486764	 1.9187079516	-0.9945208826	 0.113029
H	-0.8611916989	 1.9023091024	 0.6146248252	 0.113027
H	-0.7627765745	-0.4410596857	-0.3349938513	 0.072434
H	 1.6410353989	-1.3857648627	-2.2677713173	 0.116593
H	 2.1967793281	-2.5601323022	-1.068972603	 0.110744
H	 0.4649012783	-2.3471566446	-1.3675457076	 0.113522
H	 3.5000088811	-0.6679763357	 0.291806625	 0.095345
H	 2.8504648007	 0.9349859528	-0.0894638062	 0.089866
H	 2.5151943548	-0.6888639349	 2.4591150354	 0.095309
H	 1.7886158983	 0.9122728141	 2.2462901344	 0.089904
H	-0.6291498256	-1.4363983484	 2.7302027263	 0.116591
H	-0.7174654293	-2.3738190001	 1.2364184388	 0.113526
H	 0.64843861	-2.5944908557	 2.3407373899	 0.110748
166.8771	170.7759	189.7199	198.7545	208.7112	251.9935	259.8997	318.6118	347.108	505.6529	521.4606	573.5741	680.3825	722.7232	749.3576	800.8708	917.675	931.3006	948.5796	968.2258	1022.156	1027.4862	1076.8288	1092.9576	1119.0434	1129.3797	1150.2986	1200.4778	1228.9961	1237.0807	1237.84	1271.1671	1332.4814	1332.8533	1411.7188	1416.094	1419.5113	1470.5686	1476.1854	1484.0791	1487.8664	1496.6283	1500.4973	1503.4975	1509.8225	1521.2906	3012.0824	3014.1589	3029.001	3035.6705	3043.4193	3067.295	3068.3818	3079.2439	3082.9714	3087.2104	3089.1115	3098.3651	3099.89	3118.568
CC1C2(C)CCC12C	C[C@H]1[C@@]2(C)CC[C@@]12C	
InChI=1S/C8H14/c1-6-7(2)4-5-8(6,7)3/h6H,4-5H2,1-3H3	InChI=1S/C8H14/c1-6-7(2)4-5-8(6,7)3/h6H,4-5H2,1-3H3/t6-,7+,8-
