21
gdb 57046	2.37616	1.28509	0.92181	1.5064	83.71	-0.2432	0.0481	0.2913	1315.7923	0.180279	-387.043034	-387.033022	-387.032078	-387.078341	36.818	
C	-0.0731328631	 1.5557364358	 0.0552984769	-0.396312
C	 0.0158436219	 0.0187302323	-0.0553136223	-0.185138
C	 0.6713716339	-0.3706265676	-1.3041801753	 0.328694
C	 1.2368562911	-0.6704433581	-2.3223651207	-0.467176
C	 0.7499909056	-0.5736240665	 1.1579873146	-0.031121
C	 0.0603911194	-0.4633473808	 2.5340762593	-0.09904
O	 0.1495836545	-1.8822737478	 2.749548827	-0.291524
C	 0.7198390964	-2.1064180679	 1.4334103292	 0.138866
C	-0.1501277865	-3.0169017443	 0.5866538082	-0.406933
H	 0.9268067031	 1.9995704213	 0.0705105174	 0.127955
H	-0.6171365666	 1.9748286135	-0.7947581329	 0.128685
H	-0.5938245353	 1.8438380352	 0.9736571596	 0.120339
H	-1.0089889816	-0.3759666476	-0.0684451322	 0.106906
H	 1.7243359473	-0.9415723484	-3.2259735475	 0.196365
H	 1.771052934	-0.1834817174	 1.1675209801	 0.086848
H	 0.5954510255	 0.1078983116	 3.3020172721	 0.100846
H	-0.9835101775	-0.1179527866	 2.5049995744	 0.09345
H	 1.7241028422	-2.5405924567	 1.5246521651	 0.077311
H	-1.171342716	-2.6338584397	 0.5025088041	 0.116319
H	 0.2673915945	-3.1272927968	-0.4183030012	 0.13092
H	-0.2022886628	-4.0054383137	 1.0534438041	 0.12374
42.0841	90.9917	121.8888	193.66	207.5822	236.7729	241.0581	284.8597	365.0114	402.4439	437.4462	520.7012	575.8322	630.7063	636.8972	758.3601	778.0853	866.7238	882.7222	930.2617	969.0676	1017.241	1032.2693	1049.6642	1080.2188	1091.3984	1112.8427	1159.4573	1165.43	1193.9928	1266.4306	1274.8551	1298.8637	1328.8593	1359.1629	1387.6437	1391.9878	1406.8329	1411.2867	1484.5516	1492.8225	1497.7761	1499.9499	1526.8316	2231.588	2991.0307	3011.555	3016.3049	3041.2598	3041.8858	3043.0088	3076.4272	3111.9683	3114.2807	3123.1256	3123.4873	3503.8962
CC(C#C)C1COC1C	C[C@@H](C#C)[C@H]1CO[C@H]1C	
InChI=1S/C8H12O/c1-4-6(2)8-5-9-7(8)3/h1,6-8H,5H2,2-3H3	InChI=1S/C8H12O/c1-4-6(2)8-5-9-7(8)3/h1,6-8H,5H2,2-3H3/t6-,7-,8+/m0/s1
