23
gdb 118986	2.81748	1.04972	0.97072	1.0587	88.02	-0.2346	0.0306	0.2652	1389.6855	0.205088	-388.296899	-388.287012	-388.286068	-388.331899	36.686	
C	-0.1627853888	 1.3390909331	-0.251607341	-0.224756
O	-0.0320262429	-0.050640758	-0.0841115088	-0.239147
C	-1.2737294005	-0.7179602168	-0.0048771155	-0.077427
C	-1.0311207366	-2.2264517652	 0.1766711816	 0.24889
C	-0.2957456977	-2.4736877223	 1.5041662269	-0.437542
C	-2.3866120556	-2.9954824264	 0.0940931422	-0.27066
C	-2.4617939858	-3.6187448568	-1.3249752781	-0.255615
C	-1.0377006345	-3.5229059064	-1.8168263266	-0.079286
C	-0.2749544585	-2.7813883023	-1.0180436816	-0.078055
H	 0.8441014494	 1.7617662859	-0.2972014698	 0.124937
H	-0.6962736656	 1.5910205226	-1.1821736843	 0.103086
H	-0.7050950231	 1.8032625125	 0.5878927389	 0.101842
H	-1.8623865433	-0.3273424003	 0.8448690493	 0.078211
H	-1.8604776147	-0.5399932767	-0.922181908	 0.081535
H	-0.9137427952	-2.1629737665	 2.3549184144	 0.104988
H	-0.0630763835	-3.5362051575	 1.6255252368	 0.109248
H	 0.6380058611	-1.9068503157	 1.5428106379	 0.128706
H	-2.3917659615	-3.788530428	 0.8478246361	 0.100323
H	-3.2412522	-2.3473797065	 0.3134570658	 0.091767
H	-2.8358055873	-4.6491338306	-1.3062252301	 0.101386
H	-3.1419760094	-3.0639898512	-1.9861863301	 0.103255
H	-0.7072332884	-3.989343625	-2.739115853	 0.088005
H	 0.7690490125	-2.5422925019	-1.1838467231	 0.096308
61.0456	92.4351	119.5201	163.9198	227.4832	231.5667	255.1762	309.1795	346.0817	387.5896	408.031	522.5375	637.0317	731.7294	769.4464	805.2888	840.4917	906.9759	938.5542	963.2489	968.01	977.3632	989.3554	1016.4808	1029.781	1116.7262	1128.0426	1157.2144	1176.5879	1200.8992	1204.4839	1223.3469	1236.1131	1269.9835	1290.0638	1317.1652	1324.7256	1383.0215	1395.9555	1419.6455	1478.3855	1482.562	1484.6082	1489.7403	1499.4785	1502.5238	1503.8408	1524.4183	1690.1412	2936.1671	2967.3218	2974.2124	3009.707	3009.827	3027.8876	3043.3083	3051.8656	3088.7532	3093.9831	3110.536	3120.7377	3180.1404	3210.8972
COCC1(C)CCC=C1	COC[C@@]1(C)CCC=C1	
InChI=1S/C8H14O/c1-8(7-9-2)5-3-4-6-8/h3,5H,4,6-7H2,1-2H3	InChI=1S/C8H14O/c1-8(7-9-2)5-3-4-6-8/h3,5H,4,6-7H2,1-2H3/t8-/m1/s1
