18
gdb 49938	4.63222	0.77112	0.70981	2.8501	79.87	-0.2344	-0.0236	0.2108	1557.7587	0.145287	-401.888389	-401.879156	-401.878211	-401.923319	33.037	
O	-0.2328477721	-0.0165107972	-0.1469673758	-0.256298
C	-0.0995627204	 1.1646264504	 0.0469623256	 0.171301
C	 1.2207796529	 1.8878772173	 0.0476271517	-0.109974
C	 1.1924381695	 3.1993428717	-0.792677957	-0.190281
N	 0.8968725787	 3.9492518923	 0.4392278568	-0.063845
C	 1.4860194688	 5.267971719	 0.5997111686	-0.311873
C	 1.1868624736	 5.8424175541	 1.908148989	 0.304124
C	 0.9587432865	 6.3017651558	 2.9943436711	-0.425886
C	 1.39074409	 2.8379307026	 1.2716652336	-0.184769
H	-0.9757875495	 1.8235310962	 0.246012873	 0.089172
H	 2.028079995	 1.1851380513	-0.153659743	 0.097998
H	 2.1856557912	 3.4154795116	-1.2192916863	 0.097077
H	 0.4389629863	 3.2913752699	-1.5830305352	 0.114722
H	 2.5860914637	 5.2459217556	 0.4601381801	 0.107037
H	 1.0860184626	 5.9181178551	-0.1893717537	 0.138438
H	 0.7496227182	 6.7152132172	 3.949932251	 0.201384
H	 0.7994210563	 2.6354874319	 2.1699882706	 0.121222
H	 2.4510235188	 2.9323353152	 1.5548648098	 0.100452
61.9035	71.5723	90.8821	143.9839	274.4151	281.2685	337.5784	356.8632	359.2106	427.0662	519.5449	618.4343	665.7504	739.4487	860.5388	877.2801	928.7331	933.4652	962.7138	993.3177	1012.1699	1085.533	1113.2098	1136.1568	1150.7261	1193.9536	1218.2835	1229.2014	1269.6547	1294.0302	1309.747	1337.8163	1392.006	1424.6643	1479.032	1502.3479	1527.4811	1831.4127	2244.0143	2875.9992	2895.6071	2967.9274	2981.233	3034.2385	3055.0033	3073.2166	3129.3383	3505.7072
O=CC1CN(CC#C)C1	O=CC1CN(CC#C)C1	
InChI=1S/C7H9NO/c1-2-3-8-4-7(5-8)6-9/h1,6-7H,3-5H2	InChI=1S/C7H9NO/c1-2-3-8-4-7(5-8)6-9/h1,6-7H,3-5H2
