16
gdb 34102	3.4965	1.54634	1.32728	4.6117	71.7	-0.2531	0.0011	0.2542	963.5142	0.126013	-400.726211	-400.719386	-400.718441	-400.757336	27.247	
N	 0.1192413422	-1.1118945613	 0.0279158275	-0.33344
C	 0.0378337587	 0.0403342535	 0.0090866518	 0.215964
C	-0.1044753673	 1.4870878126	-0.0155414242	 0.303623
C	-1.0226989453	 2.1130432978	 1.0387176808	-0.247596
C	-1.0530302325	 3.6076091969	 0.6112717068	-0.242946
C	-0.5448188483	 3.6028194805	-0.8319069656	-0.097179
C	 0.8098418576	 2.9692182414	-1.0731711561	 0.098857
O	 1.1903781769	 2.1746556553	 0.0582552761	-0.329609
C	-0.4290366141	 2.1873685692	-1.3637132371	-0.190332
H	-2.0151293064	 1.6535198991	 0.9868269243	 0.121298
H	-0.6229210697	 1.9601257513	 2.0437546975	 0.129203
H	-2.064588509	 4.0171977755	 0.6684113165	 0.112171
H	-0.4124511477	 4.2156323794	 1.2554431562	 0.122825
H	-0.8436740013	 4.3843667644	-1.5215721726	 0.10193
H	 1.5988467091	 3.3634427975	-1.7009105884	 0.116818
H	-0.850935773	 1.7534175669	-2.2579827936	 0.118415
149.4551	152.6046	231.2111	373.8905	459.1862	494.7467	526.3471	562.8716	676.6855	741.7896	759.8465	807.2487	821.5022	849.5863	890.8053	930.077	968.6213	1003.7944	1024.8572	1034.5134	1045.1385	1083.8236	1093.187	1131.0558	1181.0161	1202.5629	1223.2593	1263.7911	1293.2829	1307.7313	1344.512	1394.1282	1473.4338	1498.9538	2363.4543	3055.6519	3066.25	3102.443	3120.9323	3181.7543	3199.3719	3227.7922
N#CC12CCC3C(O1)C23	N#C[C@@]12CC[C@H]3[C@@H](O1)[C@@H]23	
InChI=1S/C7H7NO/c8-3-7-2-1-4-5(7)6(4)9-7/h4-6H,1-2H2	InChI=1S/C7H7NO/c8-3-7-2-1-4-5(7)6(4)9-7/h4-6H,1-2H2/t4-,5+,6-,7-/m1/s1
