17
gdb 82970	3.03376	1.85432	1.55779	1.8108	73.25	-0.2293	-0.0179	0.2114	890.9609	0.1375	-421.759028	-421.752391	-421.751447	-421.789776	27.475	
O	 0.2029665845	 1.3503391093	-0.298294291	-0.421289
C	 0.0828572365	-0.0019724385	-0.016682681	 0.093858
C	-1.3408918332	-0.7078846242	-0.0836738302	 0.069502
O	-2.0602042242	-0.4740127622	-1.3257841092	-0.334097
C	-1.6094675836	-1.7520812369	-1.9180189685	 0.123058
C	-0.6509517463	-1.5565660685	-3.1119819096	-0.265342
C	 0.4862256407	-0.8119247765	-2.4154855702	-0.144655
C	 0.4422802779	-1.0288078265	-1.0943361387	 0.06434
C	-0.7064296535	-1.9632758115	-0.6998117563	-0.144759
H	-0.2777301187	 1.4979468352	-1.1238324686	 0.288882
H	 0.5102466945	-0.1765177492	 0.9769646596	 0.101299
H	-1.9909082342	-0.6500911442	 0.7936569786	 0.082372
H	-2.4666033758	-2.4097940356	-2.0945034144	 0.074134
H	-0.3917236761	-2.5247070941	-3.5633746293	 0.10992
H	-1.0941798064	-0.9410068535	-3.9024641944	 0.11724
H	 0.9959274127	 0.0248547893	-2.8812746461	 0.101456
H	-0.5317953049	-2.9143636623	-0.2032998908	 0.084082
141.0195	218.2728	315.5075	356.0935	436.8221	523.0502	565.4835	616.0538	686.5999	727.9624	801.8398	827.3056	840.8681	859.5304	885.498	911.6052	930.5795	946.4051	978.1573	991.6468	1013.0207	1030.3186	1132.4006	1140.2032	1161.6463	1189.2992	1204.7193	1227.1118	1258.8271	1267.1171	1293.1596	1300.5926	1321.1174	1343.2862	1432.7434	1462.6309	1647.2279	3010.4463	3056.9412	3060.7125	3072.2027	3075.6502	3145.1822	3185.4124	3763.0919
OC1C2OC3CC=C1C23	O[C@H]1[C@H]2O[C@H]3C[CH][C]1[C@@H]23	
InChI=1S/C7H8O2/c8-6-3-1-2-4-5(3)7(6)9-4/h1,4-8H,2H2	InChI=1S/C7H8O2/c8-6-3-1-2-4-5(3)7(6)9-4/h1,4-8H,2H2/t4-,5+,6+,7-/m0/s1
