14
gdb 80693	3.61985	1.23725	1.19955	3.5924	64.64	-0.2576	-0.0786	0.179	1044.7372	0.10017	-473.804952	-473.797361	-473.796416	-473.837354	27.764	
O	-0.0628029717	 1.4460061245	 0.2698630566	-0.410186
C	-0.047391218	 0.0669022462	 0.1403819636	 0.068058
C	-0.4806630411	-0.7551144942	 1.3126809098	 0.007659
O	-1.2775767916	-0.0828915187	 2.2624618179	-0.230394
C	-2.391860675	 0.3278122692	 1.5919467428	 0.319558
C	-3.3412239151	 1.1358370824	 2.4114160757	 0.101712
O	-4.373116976	 1.5846038781	 1.9894216425	-0.22468
N	-2.5368530604	-0.041832819	 0.3776608821	-0.281566
C	-1.3385103155	-0.739722656	 0.0240429575	-0.10696
H	-0.5124944992	 1.820464492	-0.4962417199	 0.30253
H	 0.7855174524	-0.3541184127	-0.4223495778	 0.109861
H	 0.0979065526	-1.5679951651	 1.7311749684	 0.125036
H	-3.0026089604	 1.2791256253	 3.457338228	 0.10631
H	-1.4200402111	-1.5374372621	-0.7039865571	 0.113063
86.102	153.3403	211.336	214.7536	270.3132	302.3801	466.5097	559.5265	607.9807	643.8017	725.903	766.2127	795.6019	848.3071	941.5167	964.402	1013.9587	1019.2495	1031.9374	1078.4512	1121.7855	1132.6849	1215.9083	1230.7892	1307.9939	1315.5436	1349.0875	1430.6305	1434.4542	1661.2201	1830.2598	2937.6889	3109.0124	3188.4564	3204.9866	3797.6192
OC1C2OC(C=O)=NC12	O[C@H]1[C@H]2OC(=N[C@@H]12)C=O	
InChI=1S/C5H5NO3/c7-1-2-6-3-4(8)5(3)9-2/h1,3-5,8H	InChI=1S/C5H5NO3/c7-1-2-6-3-4(8)5(3)9-2/h1,3-5,8H/t3-,4+,5-/m0/s1
