16
gdb 7216	3.20876	1.19869	0.96957	3.2819	69.95	-0.248	-0.0298	0.2182	1227.2522	0.126434	-383.734091	-383.724258	-383.723314	-383.771072	32.661	
C	 0.1403619705	 1.4367416191	 0.0972207442	-0.498253
C	 0.0815510773	-0.0170714168	 0.0630845318	 0.012347
C	 0.0194914528	-1.2197722726	 0.0460673904	 0.110917
C	-0.0714152236	-2.6847616936	 0.0113862053	-0.118971
O	-1.3935463652	-3.151686765	 0.0423573912	-0.414356
C	 0.6361340963	-3.2107068391	-1.2650535937	 0.3734
C	 2.1146333838	-2.9633241714	-1.4116154644	-0.481359
O	-0.0286156054	-3.807393106	-2.0808577574	-0.310247
H	 0.8987732666	 1.7876798217	 0.805428665	 0.15096
H	 0.3839007129	 1.8513135329	-0.8870232656	 0.150631
H	-0.8223163637	 1.8582236813	 0.4061659436	 0.158172
H	 0.4768086531	-3.0934770634	 0.8766525812	 0.112797
H	-1.5381811543	-3.5375142578	-0.838437214	 0.293498
H	 2.3336295638	-1.8991303435	-1.289808582	 0.161686
H	 2.6542183248	-3.4954189458	-0.6193568652	 0.149442
H	 2.4580012102	-3.3155848401	-2.3846696804	 0.149336
20.5123	35.0709	87.0952	95.4206	152.9005	250.6918	302.626	334.0567	403.1773	418.3928	436.3088	525.8282	572.5114	635.6542	779.7606	836.0358	968.7228	1038.3298	1050.8289	1054.9228	1100.7855	1164.5636	1197.3784	1252.4904	1335.2595	1384.3269	1413.7588	1434.0822	1464.3332	1470.9158	1476.2823	1477.5986	1810.9808	2363.9377	2966.0238	3029.2273	3044.0206	3090.7742	3092.8875	3112.7103	3159.0247	3657.6975
CC#CC(O)C(C)=O	CC#C[C@@H](O)C(=O)C	
InChI=1S/C6H8O2/c1-3-4-6(8)5(2)7/h6,8H,1-2H3	InChI=1S/C6H8O2/c1-3-4-6(8)5(2)7/h6,8H,1-2H3/t6-/m1/s1
