17
gdb 53415	4.1486	0.93964	0.84754	1.8211	77.59	-0.2443	0.0407	0.285	1399.5357	0.134788	-421.776817	-421.768123	-421.767179	-421.812231	30.68	
C	-0.0578779621	 1.4773224413	 0.0912220307	-0.500933
C	-0.0517754173	 0.0228331146	 0.0553913125	 0.117999
C	-0.0436371243	-1.1800980314	 0.0422442158	 0.049493
C	-0.0556815129	-2.6353647019	-0.015470575	-0.076669
O	 0.7329984693	-3.1804004707	 1.0519487074	-0.264506
C	 0.1987890174	-4.4362564395	 1.4549280099	-0.105723
C	-1.2616082714	-4.4061465235	 1.0620935528	 0.023998
O	-1.9244967316	-3.2084116467	 1.4838193399	-0.238782
C	-1.4305567399	-3.2773268242	 0.1489195021	 0.009452
H	 0.6024568939	 1.8505959418	 0.8815433917	 0.155178
H	 0.2865236388	 1.9024122392	-0.8578525671	 0.148078
H	-1.0629059796	 1.8662347153	 0.2877321481	 0.151319
H	 0.346463891	-2.9663143658	-0.9897174464	 0.09517
H	 0.6979580141	-5.2762911856	 0.9442266937	 0.095949
H	 0.3616077094	-4.5352895208	 2.5329763667	 0.12347
H	-1.8603792819	-5.3119621986	 1.0292790023	 0.105546
H	-2.159938533	-3.2286097134	-0.6541016751	 0.110963
17.5707	72.8839	92.9589	185.1253	252.14	313.5403	357.9247	399.2166	455.9805	519.3149	691.2101	782.9202	822.6508	841.6695	884.5384	918.8569	943.701	966.8484	1036.0752	1051.3832	1054.2406	1065.397	1097.2249	1117.4855	1183.0612	1226.4611	1258.1427	1298.6026	1308.9639	1360.0139	1371.9873	1413.5457	1444.2066	1476.2361	1477.9451	1503.969	2379.0005	2940.3046	2973.8535	3028.5799	3074.7888	3089.9891	3091.7462	3154.713	3168.3099
CC#CC1OCC2OC12	CC#C[C@H]1OC[C@H]2O[C@@H]12	
InChI=1S/C7H8O2/c1-2-3-5-7-6(9-7)4-8-5/h5-7H,4H2,1H3	InChI=1S/C7H8O2/c1-2-3-5-7-6(9-7)4-8-5/h5-7H,4H2,1H3/t5-,6-,7+/m1/s1
