21
gdb 83785	2.31742	1.74989	1.50362	1.8328	81.58	-0.2087	0.0648	0.2735	1020.0223	0.185716	-383.218376	-383.210495	-383.209551	-383.250372	31.821	
C	-0.1784987453	 1.547532447	 0.1491479733	-0.432833
C	-0.0170401293	 0.0474741069	 0.0077796496	 0.001726
C	 0.5040387281	-0.6965318503	-1.1884311631	-0.036467
C	 1.1445645736	-0.1083355606	-2.4152394365	-0.030453
N	 1.1385419165	 1.3413293677	-2.6900250387	-0.334662
C	 2.401162531	 0.6891882671	-2.2982446225	-0.037916
C	 2.9178195358	 1.0184913603	-0.9071481309	-0.236401
C	 2.5530050651	-0.0655762966	 0.1424151442	-0.144299
N	 1.2388222745	-0.7004621341	 0.0904987336	-0.118634
H	 0.3878008558	 2.11574398	-0.5835747112	 0.159666
H	-1.2353131254	 1.8019177781	 0.011794233	 0.114849
H	 0.0996407081	 1.8640065078	 1.161744241	 0.109526
H	-0.8014824494	-0.4868502966	 0.5472944969	 0.085003
H	 0.0325406381	-1.6552783233	-1.4037603508	 0.078197
H	 1.0636029372	-0.7605432369	-3.2812801609	 0.080533
H	 1.1148127352	 1.4933042749	-3.6944432892	 0.230343
H	 3.1489418327	 0.5465726407	-3.0738332135	 0.084711
H	 4.0092473933	 1.1054745227	-0.9276575181	 0.098023
H	 2.5336212116	 1.9950828446	-0.6047046037	 0.118671
H	 3.2755128341	-0.8861989816	 0.0478511198	 0.104159
H	 2.6857257686	 0.3475655421	 1.1481955377	 0.106258
119.0823	167.3648	216.4688	226.3344	307.8272	421.5008	429.9365	466.0829	516.0755	631.885	684.9734	704.1271	761.0816	770.1465	796.9698	871.4685	907.22	915.8778	938.4021	985.9684	1006.2809	1052.1609	1057.4657	1076.0716	1124.3393	1149.9492	1165.9082	1169.3996	1187.7994	1199.9684	1256.618	1261.6349	1288.217	1344.2825	1367.532	1378.861	1392.8246	1415.2035	1421.1509	1436.988	1459.977	1478.4074	1485.7221	1498.8405	1521.6282	3018.9227	3030.2022	3052.0605	3065.1949	3071.5519	3082.9752	3091.8584	3106.2912	3130.0049	3140.7476	3188.6403	3505.5477
CC1C2C3NC3CCN12	C[C@H]1[C@H]2[C@H]3N[C@H]3CCN12	
InChI=1S/C7H12N2/c1-4-7-6-5(8-6)2-3-9(4)7/h4-8H,2-3H2,1H3	InChI=1S/C7H12N2/c1-4-7-6-5(8-6)2-3-9(4)7/h4-8H,2-3H2,1H3/t4-,5-,6-,7-,9?/m0/s1
