18
gdb 11071	2.56047	2.19932	1.67178	2.0047	68.34	-0.23	0.0601	0.2901	873.2564	0.152563	-384.906009	-384.897797	-384.896853	-384.937851	31.657	
C	 0.0104950036	 1.5878324034	 0.0515311353	-0.495507
C	 0.0711246446	 0.0904145797	 0.0216890802	 0.246412
C	 0.6326261036	-0.7638774123	-1.1270800855	-0.281381
C	 1.2443233818	-1.7720381852	-0.0945448685	-0.303874
C	 0.6091538804	-0.9484370847	 1.0157760621	 0.295029
O	 1.1498483982	-0.7097547716	 2.2780805545	-0.468104
C	-0.8775448734	-0.7834530845	 0.8280445839	 0.025943
O	-1.5322962437	-0.1756188895	 1.9013325029	-0.446238
H	 1.0050572793	 2.0384247371	-0.038184756	 0.114703
H	-0.6017615511	 1.9627283069	-0.7776770305	 0.118517
H	-0.4463106746	 1.9333882282	 0.9821926588	 0.13082
H	-0.1153107449	-1.1766330101	-1.8125243819	 0.098463
H	 1.3981901498	-0.2488766362	-1.7117689467	 0.108261
H	 0.9365649412	-2.8209683253	-0.1699400742	 0.09267
H	 2.3357599341	-1.7201334024	-0.0750230538	 0.110786
H	 1.1462757389	-1.5422287045	 2.7677718983	 0.289703
H	-1.4938930699	-1.5422024997	 0.3423437117	 0.080794
H	-0.8839278279	-0.1149894991	 2.6171299994	 0.283003
165.1579	169.4004	206.373	253.633	267.5777	277.3064	319.6272	425.6064	471.066	502.549	570.9121	657.175	692.6282	707.7504	789.2747	872.947	938.3955	948.1047	998.5345	1042.0306	1063.4029	1122.728	1146.8542	1181.189	1212.4596	1232.821	1235.0011	1240.1471	1280.6497	1317.838	1323.8843	1397.5173	1415.4661	1456.8677	1479.5875	1490.6121	1493.9626	1513.3785	3025.1999	3036.0829	3046.2688	3080.2805	3080.6481	3092.9646	3111.4506	3120.1358	3730.0187	3763.7549
CC12CCC1(O)C2O	C[C@@]12CC[C@]1(O)[C@H]2O	
InChI=1S/C6H10O2/c1-5-2-3-6(5,8)4(5)7/h4,7-8H,2-3H2,1H3	InChI=1S/C6H10O2/c1-5-2-3-6(5,8)4(5)7/h4,7-8H,2-3H2,1H3/t4-,5-,6-/m0/s1
