15
gdb 48975	3.87348	1.52518	1.22831	2.9987	71.05	-0.2495	-0.0643	0.1852	968.9026	0.112412	-416.707293	-416.700362	-416.699418	-416.73867	26.778	
O	 0.0675194554	-0.0405868468	 0.2196694804	-0.249515
C	 0.0749584042	 1.1211821483	-0.1036198707	 0.093201
C	 1.2893593472	 1.9777670947	 0.0016473507	 0.185958
C	 2.4902631212	 1.4983587958	 0.8340386381	-0.237468
N	 3.3538900303	 2.7046909375	 0.8028192775	-0.190093
C	 2.5809771423	 3.6398393588	 0.4251756714	 0.153097
C	 2.6108747291	 4.1200701537	-1.0115955317	-0.261332
C	 1.3754262618	 3.1484044631	-1.0306022065	-0.101289
N	 1.0857980225	 3.3858410629	 0.4004951361	-0.164949
H	-0.8331794126	 1.6260341401	-0.4976316926	 0.091048
H	 2.1532201719	 1.1805967514	 1.829127872	 0.137722
H	 3.0573156248	 0.6748174231	 0.3931970317	 0.140676
H	 2.2415793006	 5.127506242	-1.2197551157	 0.140511
H	 3.5208046104	 3.889577523	-1.5624939029	 0.141949
H	 0.5810893811	 3.2522650324	-1.7685719179	 0.120484
99.8694	188.1513	249.1223	309.016	409.4704	439.0275	461.6409	637.7438	668.9934	682.4365	771.5415	794.1327	822.6085	911.8161	939.2513	964.6891	997.0617	1003.3812	1022.8564	1062.063	1086.1965	1113.2284	1180.9443	1189.7836	1212.6898	1249.4217	1285.7547	1345.8772	1424.3512	1480.0608	1486.5607	1643.6096	1814.3498	2902.3937	3031.9581	3074.2185	3101.089	3120.8804	3164.8655
O=CC12CN=C3CC1N23	O=C[C@@]12C[N][C]3C[C@@H]1N23	
InChI=1S/C6H6N2O/c9-3-6-2-7-5-1-4(6)8(5)6/h3-4H,1-2H2	InChI=1S/C6H6N2O/c9-3-6-2-7-5-1-4(6)8(5)6/h3-4H,1-2H2/t4-,6-,8?/m0/s1
