19
gdb 71744	2.78788	2.26403	1.70392	1.1789	76.26	-0.2349	0.0966	0.3315	867.3551	0.162168	-385.876882	-385.870501	-385.869556	-385.907124	27.804	
C	 0.0466521028	 1.4822310064	-0.1024894126	-0.496369
C	 0.028300071	-0.0199435342	 0.0009758888	 0.446212
O	 0.4675325897	-0.6190652528	-1.1973733514	-0.284552
C	 0.3622598301	-1.9743228918	-0.8577733981	 0.056321
C	-0.7935949221	-2.1762700763	 0.0956471364	-0.110666
C	 0.6488928579	-2.1580978755	 0.6152737505	-0.110663
C	 0.6952365671	-0.7545538185	 1.2325463206	-0.115142
C	-0.6704892638	-0.6201409592	 1.9617615705	-0.242042
C	-1.2541591528	-0.7791044714	 0.530299354	-0.115138
H	 1.0601327373	 1.83659295	-0.3138347937	 0.128418
H	-0.607171682	 1.8156406377	-0.9141147677	 0.128413
H	-0.2932442389	 1.9484090473	 0.8253154608	 0.122766
H	 0.652519632	-2.6633736626	-1.6394346101	 0.10193
H	-1.4332433142	-3.0481348693	 0.09393388	 0.087379
H	 1.1619787933	-3.0154430823	 1.0287991211	 0.087379
H	 1.6353465178	-0.4199094755	 1.6712981672	 0.06129
H	-0.9252214637	-1.3881789288	 2.6957375581	 0.09632
H	-0.8369677432	 0.3719520709	 2.389198904	 0.096857
H	-2.2652843782	-0.4690363643	 0.2661383215	 0.061289
191.3303	253.45	312.0866	443.8964	490.776	585.3063	598.6363	686.274	712.0488	745.2795	789.8783	802.3423	823.3052	832.586	889.7919	908.2973	951.4278	960.6316	965.8519	1010.7279	1011.7695	1045.8241	1056.5678	1056.9442	1081.0814	1102.4811	1113.8843	1161.2413	1167.5381	1174.0868	1215.365	1237.2847	1265.8071	1289.0918	1318.8743	1335.2867	1377.1727	1421.2253	1481.7679	1494.1598	1504.5733	3044.4276	3062.2539	3110.0492	3112.8728	3115.1344	3117.9916	3127.55	3203.0957	3205.7163	3218.6461
CC12OC3C4C3C1CC24	C[C@@]12O[C@@H]3[C@H]4[C@@H]3[C@@H]1C[C@@H]24	
InChI=1S/C8H10O/c1-8-3-2-4(8)6-5(3)7(6)9-8/h3-7H,2H2,1H3	InChI=1S/C8H10O/c1-8-3-2-4(8)6-5(3)7(6)9-8/h3-7H,2H2,1H3/t3-,4+,5-,6+,7-,8+
