24
gdb 87123	2.42268	1.22449	1.14349	2.624	85.24	-0.2301	0.0597	0.2898	1282.4799	0.214135	-405.5391	-405.527897	-405.526953	-405.574574	42.3	
C	 0.0156283545	 1.4427405362	-0.3215467288	-0.411427
C	 0.1853919877	-0.0311568383	-0.0368780307	-0.023541
N	 1.5617077475	-0.5600717661	 0.0793901197	-0.400615
C	 0.666904834	-0.6115862603	 1.2511464486	 0.32062
C	 1.0862993399	 0.28573437	 2.401121656	-0.471288
C	 0.1048213955	-1.9920633251	 1.658930676	 0.275907
C	 1.0939138705	-2.7558829045	 2.5547609131	-0.422554
C	-1.2624902627	-1.8493333424	 2.343993855	-0.413372
O	-0.0586053873	-2.7244750319	 0.4344434731	-0.467719
H	 0.7775073534	 2.0479196613	 0.1735466918	 0.122772
H	 0.098755816	 1.6289031843	-1.3980656644	 0.118208
H	-0.9711993464	 1.7939799224	 0.001218738	 0.109661
H	-0.5095487115	-0.6670385561	-0.5799614467	 0.093481
H	 1.5855550795	-1.4827065401	-0.3492588143	 0.23508
H	 1.4844464098	 1.2269189536	 2.0214816751	 0.129006
H	 0.2492106755	 0.5162226882	 3.0685114459	 0.111061
H	 1.8779049465	-0.1781519697	 2.9972355794	 0.119044
H	 1.2088337994	-2.286177078	 3.5348227486	 0.1221
H	 0.7325269453	-3.7772649124	 2.7240289348	 0.098411
H	 2.0765717235	-2.8149557971	 2.0784278393	 0.129494
H	-1.9691144562	-1.3491628747	 1.6767041243	 0.125831
H	-1.6670289207	-2.8367674308	 2.5971792328	 0.099408
H	-1.193897561	-1.276770266	 3.2729881712	 0.120562
H	-0.3725482626	-3.6052586525	 0.660088352	 0.279871
56.4468	130.2954	139.9898	169.5705	227.5166	236.6486	242.8412	269.8138	293.7905	314.883	328.9719	373.6689	420.7592	444.694	478.758	510.185	552.49	641.1734	794.8907	813.0822	875.0627	918.1289	939.8453	962.4137	989.8217	1009.779	1040.3282	1078.8669	1096.991	1110.9442	1133.7578	1142.1447	1205.0609	1208.07	1258.731	1290.6935	1350.7817	1370.0225	1395.9827	1405.601	1413.6374	1424.2337	1454.2319	1477.0508	1478.9214	1482.8772	1492.4594	1498.0341	1502.5147	1509.0143	1517.745	3028.2634	3032.009	3033.0705	3043.6314	3088.4796	3093.9928	3101.5718	3103.9325	3121.9231	3125.3554	3127.7382	3142.2067	3147.8087	3501.2557	3828.7775
CC1NC1(C)C(C)(C)O	C[C@H]1N[C@]1(C)C(C)(C)O	
InChI=1S/C7H15NO/c1-5-7(4,8-5)6(2,3)9/h5,8-9H,1-4H3	InChI=1S/C7H15NO/c1-5-7(4,8-5)6(2,3)9/h5,8-9H,1-4H3/t5-,7+/m1/s1
