18
gdb 18266	4.34544	1.5711	1.30604	2.696	67.43	-0.2479	0.0811	0.3291	972.0853	0.154314	-384.92135	-384.913846	-384.912902	-384.953269	28.139	
C	 0.0896458232	 1.3311525306	 0.1115620506	-0.234394
O	-0.1713927434	-0.0333595063	-0.1239381869	-0.24854
C	 0.5665851245	-0.5810747293	-1.1925565768	 0.145534
C	 2.0775279897	-0.7954583943	-0.9097617704	-0.256656
C	 2.4878313322	-2.0012554524	-1.7868861577	-0.247828
C	 1.2079843636	-2.8102724955	-1.9016449277	 0.051225
O	 0.5437623239	-2.9918191112	-0.6453816181	-0.254378
C	 0.0640057132	-1.970699051	-1.5293735192	 0.016206
H	 1.1226563596	 1.5088201913	 0.4448983973	 0.108
H	-0.0910605012	 1.9403123028	-0.7889962333	 0.10073
H	-0.5919104442	 1.6588087006	 0.9002422366	 0.128738
H	 0.4365868874	 0.0499773573	-2.0914954112	 0.06062
H	 2.6794454751	 0.0926836333	-1.1125221754	 0.097055
H	 2.1813820414	-1.0468496265	 0.1482491962	 0.129398
H	 2.798928759	-1.681501068	-2.7889856653	 0.103625
H	 3.313923316	-2.5752797142	-1.3558145201	 0.112421
H	 1.1249463732	-3.6392697045	-2.6000982135	 0.09272
H	-0.9430925932	-2.1126725729	-1.9116263249	 0.095522
93.7738	129.9112	198.223	232.4372	307.4855	385.0229	419.5901	506.4668	657.3085	676.6577	821.324	838.94	868.431	882.8759	937.6994	971.0498	1006.6954	1028.5857	1075.2702	1089.4516	1110.5074	1158.999	1181.0457	1191.8685	1216.2398	1231.2238	1263.1433	1299.1234	1320.5041	1339.8035	1342.0713	1395.7688	1439.5234	1479.2557	1481.1013	1488.8535	1495.6901	1510.1261	2931.8879	2971.5909	3022.8189	3037.1446	3073.7074	3084.3979	3114.2526	3124.9999	3143.7291	3159.4512
COC1CCC2OC12	CO[C@H]1CC[C@H]2O[C@@H]12	
InChI=1S/C6H10O2/c1-7-4-2-3-5-6(4)8-5/h4-6H,2-3H2,1H3	InChI=1S/C6H10O2/c1-7-4-2-3-5-6(4)8-5/h4-6H,2-3H2,1H3/t4-,5+,6-/m0/s1
