23
gdb 57551	3.66739	0.70767	0.68868	1.1037	89.1	-0.2556	0.033	0.2886	1770.0814	0.201037	-388.254605	-388.243219	-388.242275	-388.291397	41.384	
C	-0.0147660305	 1.5501951942	 0.024276264	-0.399425
C	 0.0238494268	 0.0115020042	 0.0145321794	 0.233491
C	 0.7546543311	-0.5041112619	 1.2672377154	-0.399425
C	-1.4086136977	-0.5479397222	-0.023341801	-0.411912
C	 0.7537802554	-0.4773631372	-1.2452802996	-0.039643
O	 2.0802255305	 0.0169592792	-1.249866595	-0.253054
C	 2.8110674412	-0.3957976123	-2.3851618954	-0.202305
C	 4.1643899979	 0.1425023145	-2.3318312851	 0.276491
C	 5.2850284376	 0.5732620814	-2.312505561	-0.413893
H	 0.9957985177	 1.9649061107	 0.0036461174	 0.132097
H	-0.5567401938	 1.9364075727	-0.8465875417	 0.102811
H	-0.5214815575	 1.9182392159	 0.9226347259	 0.10569
H	 0.2548453116	-0.155297972	 2.1770648264	 0.105692
H	 0.7679483008	-1.5997725213	 1.292788417	 0.102816
H	 1.7893525753	-0.1538314774	 1.2859117393	 0.132092
H	-1.9517504263	-0.1997715865	-0.9091442852	 0.108978
H	-1.4109515708	-1.6437108698	-0.0350825985	 0.10898
H	-1.9703937501	-0.2243071747	 0.8588588338	 0.11392
H	 0.7629031773	-1.5810989228	-1.2721238094	 0.080934
H	 0.2201991765	-0.1329760473	-2.1484570286	 0.080919
H	 2.8526216226	-1.4976569771	-2.4391930913	 0.117358
H	 2.3135661302	-0.056151658	-3.310295636	 0.117368
H	 6.2748046643	 0.9573204277	-2.289406651	 0.200018
43.3454	81.3048	90.5607	141.757	206.5485	208.8617	256.0937	263.3357	298.0478	331.3683	332.4871	336.229	415.3679	416.6812	482.8439	584.2414	607.4548	675.47	758.1437	919.3257	929.089	942.6044	958.7475	964.373	983.9091	1015.2052	1031.4602	1071.2018	1087.9353	1143.9006	1227.4583	1244.2699	1254.8499	1283.5127	1311.6765	1379.543	1397.649	1398.8416	1420.2486	1450.7902	1478.3464	1486.9527	1490.0138	1493.6265	1501.6828	1505.3013	1521.5884	1524.1884	2248.2395	2940.0688	2952.2609	2965.8297	2973.7665	3023.9766	3028.5131	3034.8618	3088.7786	3092.9216	3093.3575	3100.1977	3122.2837	3126.0273	3505.7119
CC(C)(C)COCC#C	CC(C)(C)COCC#C	
InChI=1S/C8H14O/c1-5-6-9-7-8(2,3)4/h1H,6-7H2,2-4H3	InChI=1S/C8H14O/c1-5-6-9-7-8(2,3)4/h1H,6-7H2,2-4H3
