20
gdb 102032	2.0994	1.30247	0.86652	1.9179	77.76	-0.2636	-0.029	0.2346	1386.3189	0.168906	-440.351014	-440.340749	-440.339805	-440.386719	36.246	
C	-0.0763813579	 1.5332059917	-0.0188494823	-0.378083
C	 0.0750644996	 0.0123833049	-0.0100507192	-0.163732
N	 0.762685467	-0.505513555	-1.2070893638	-0.133307
C	 2.1214604618	-0.7666009807	-1.1116852713	 0.161763
O	 2.8539047862	-1.1592008112	-1.9871196951	-0.309937
C	-0.0340446916	-0.6686084575	-2.3704258827	 0.429243
O	-1.2082476686	-0.3726299128	-2.3121941218	-0.344125
C	 0.610507096	-1.210158154	-3.6294228975	-0.277275
C	-0.3984149732	-1.3505533919	-4.7679082093	-0.385617
H	 0.8989983239	 2.0285560401	-0.0594550969	 0.119391
H	-0.6685777328	 1.8517917621	-0.8790861506	 0.150693
H	-0.5876925538	 1.8626733609	 0.8908528865	 0.123551
H	 0.6489744845	-0.3129996436	 0.8620487714	 0.11341
H	-0.9049587463	-0.4637027112	 0.0339743692	 0.144191
H	 2.4851753327	-0.5667339947	-0.0859861619	 0.093792
H	 1.4435345842	-0.5547464205	-3.9032293834	 0.143936
H	 1.0937617869	-2.1640389712	-3.3948965763	 0.141595
H	-1.2106995715	-2.0291653481	-4.4961114297	 0.129251
H	-0.8497828773	-0.3874801865	-5.0185183115	 0.129636
H	 0.0986036402	-1.7436114909	-5.6590389738	 0.111626
57.9233	88.1132	114.8573	148.4065	200.889	210.8194	234.4741	251.3758	292.8675	378.7031	402.4186	438.9608	566.3379	590.6257	672.2267	776.5559	805.8779	813.2144	933.0973	999.2715	1036.3449	1043.1278	1096.1939	1102.4839	1112.951	1124.1198	1228.5755	1273.7818	1282.052	1375.3774	1396.547	1398.5493	1413.7096	1416.2625	1429.6567	1453.1339	1488.5574	1492.2585	1494.1681	1499.0509	1507.7407	1780.5125	1811.3297	2951.4711	3044.2081	3052.7833	3063.9369	3069.1848	3088.6654	3108.196	3124.5122	3130.0513	3130.6133	3143.9112
CCN(C=O)C(=O)CC	CCN(C=O)C(=O)CC	
InChI=1S/C6H11NO2/c1-3-6(9)7(4-2)5-8/h5H,3-4H2,1-2H3	InChI=1S/C6H11NO2/c1-3-6(9)7(4-2)5-8/h5H,3-4H2,1-2H3
