14
gdb 130770	3.36727	1.67035	1.13907	7.0446	63.06	-0.2347	0.0252	0.2599	984.8581	0.104311	-470.023256	-470.016463	-470.015519	-470.054692	25.472	
O	 0.0591697117	-0.0274744122	 0.1986735984	-0.401843
C	 0.0346560647	 1.1686698597	 0.1329060645	 0.506716
O	-1.0884401527	 1.9556754299	 0.1831020727	-0.251733
N	-0.7537792461	 3.3618793907	 0.0605924918	-0.282957
C	 0.532801566	 3.3261559291	-0.0496832858	 0.525
N	 1.5207443172	 4.2573919494	-0.2565683827	-0.404569
C	 2.8087722568	 3.6007007149	 0.0597198485	-0.180754
C	 2.5125797977	 2.0887161843	-0.1708943898	-0.179378
N	 1.0728465252	 2.0765045157	 0.0071473464	-0.166331
H	 1.3632607806	 5.1933002344	 0.0857477637	 0.269857
H	 3.6017105361	 3.9670572817	-0.5950752898	 0.137868
H	 3.105311569	 3.7756287737	 1.1018449759	 0.130004
H	 2.7855297069	 1.7684119809	-1.1817346141	 0.145364
H	 3.0190319069	 1.4469180978	 0.5517730902	 0.152758
128.9662	174.6269	191.2175	302.9269	357.0125	514.1726	605.9128	638.3489	684.8413	692.48	758.305	782.7967	805.1536	893.7561	901.1196	944.1089	1047.7233	1089.835	1125.7257	1139.9546	1216.7966	1254.5821	1311.7619	1333.9634	1355.339	1416.7995	1500.6607	1528.1519	1543.6128	1719.0355	1890.9725	3023.478	3054.4173	3108.224	3124.0282	3626.5879
O=C1ON=C2NCCN12	O=c1onc2NCCn12	
InChI=1S/C4H5N3O2/c8-4-7-2-1-5-3(7)6-9-4/h1-2H2,(H,5,6)	InChI=1S/C4H5N3O2/c8-4-7-2-1-5-3(7)6-9-4/h1-2H2,(H,5,6)
