15
gdb 112072	2.22579	1.56763	1.00814	3.2134	65.73	-0.2728	-0.0178	0.255	1120.8287	0.113536	-453.955504	-453.947374	-453.94643	-453.989091	28.992	
O	 0.0095645234	 1.4526417536	-0.0566777145	-0.418505
C	 0.0789501609	 0.0472063377	-0.0919684975	-0.067099
C	-1.3223713081	-0.5547739861	 0.0709030419	-0.032469
N	-2.1752886268	-0.113118216	-1.0462198445	-0.271375
C	-2.6687883732	-1.1535262573	-1.5656831746	 0.12707
O	-2.3708914974	-2.3744594459	-1.0467307206	-0.215756
C	-1.4310889729	-2.1202954058	 0.0251746267	-0.062886
C	-0.1785556433	-2.8304354759	-0.2564962911	 0.293474
N	 0.8145225432	-3.3881164847	-0.4490355792	-0.315474
H	-0.6426037397	 1.7119905702	-0.7194136941	 0.298614
H	 0.526547687	-0.3242355871	-1.0266269955	 0.10886
H	 0.7258851234	-0.2652388623	 0.7337956229	 0.124615
H	-1.7460501801	-0.1761234456	 1.0064708167	 0.115959
H	-3.339010248	-1.1885866283	-2.4166059733	 0.163184
H	-1.8568769085	-2.5258186366	 0.9463225366	 0.151787
53.1974	120.2783	129.9221	215.6288	246.0432	353.6869	402.4807	451.0283	497.5811	568.3244	601.6949	803.496	811.9176	854.5753	899.5647	963.0068	977.794	1045.6775	1058.1635	1094.0141	1108.3803	1122.1199	1221.0144	1263.7517	1299.5566	1327.3658	1336.8119	1363.7304	1393.5244	1436.4096	1501.5804	1715.6796	2362.2014	2991.9869	3059.3978	3084.2754	3088.4455	3227.8066	3784.4438
OCC1N=COC1C#N	OC[C@H]1N=CO[C@H]1C#N	
InChI=1S/C5H6N2O2/c6-1-5-4(2-8)7-3-9-5/h3-5,8H,2H2	InChI=1S/C5H6N2O2/c6-1-5-4(2-8)7-3-9-5/h3-5,8H,2H2/t4-,5+/m1/s1
