18
gdb 43932	3.54345	1.50154	1.30876	3.5594	75.99	-0.2492	0.0164	0.2657	995.7712	0.150906	-401.924274	-401.917686	-401.916742	-401.955033	27.812	
O	-0.0960424296	-0.0011389573	-0.2904442318	-0.331641
C	-0.0545661027	 1.1735080762	-0.0719458846	 0.336187
N	-1.0775711549	 2.1436411193	 0.0763006898	-0.459013
C	-0.1615963054	 3.0619058292	 0.7489918842	 0.381003
C	 0.375562622	 4.5135486542	 0.7561996653	-0.310226
C	 1.3664252278	 3.8439875831	 1.8065687325	-0.015615
C	 0.1425987123	 3.0072049412	 2.2628651292	-0.261246
C	 2.1670023906	 2.732135257	 1.0452377527	-0.276525
C	 1.0105923709	 2.3022946549	 0.1114433248	-0.119532
H	-2.0240069021	 1.9260801989	 0.3622155503	 0.242645
H	 0.7792100178	 4.914327756	-0.1765219444	 0.102046
H	-0.2607684817	 5.2514860702	 1.250356852	 0.102677
H	 1.9142317098	 4.474423555	 2.5065738088	 0.074678
H	-0.576890179	 3.5774759718	 2.85557938	 0.096255
H	 0.3282900716	 2.0297218023	 2.7181762512	 0.101246
H	 3.02664419	 3.1054090736	 0.4834337196	 0.103812
H	 2.5224437573	 1.9678312723	 1.7409423193	 0.11837
H	 1.1900369954	 2.6777498321	-0.901274059	 0.114879
128.6408	254.7938	366.9745	413.5579	467.5595	485.8054	553.5513	586.8371	636.5676	700.2607	768.4681	787.7358	798.5554	852.5669	871.5872	921.2993	939.562	990.4229	994.7896	1013.1942	1057.9078	1075.6394	1084.4482	1105.5627	1128.8978	1176.5345	1181.5544	1199.9844	1216.7566	1246.441	1264.5901	1279.6374	1298.8367	1344.5844	1359.1715	1485.8057	1500.3329	1525.9105	1895.7776	3050.8292	3051.2773	3063.1784	3067.1181	3110.3671	3115.1797	3122.0831	3126.8466	3572.3105
O=C1NC23CC(C2)CC13	O=C1N[C@@]23C[C@@H](C2)C[C@@H]13	
InChI=1S/C7H9NO/c9-6-5-1-4-2-7(5,3-4)8-6/h4-5H,1-3H2,(H,8,9)	InChI=1S/C7H9NO/c9-6-5-1-4-2-7(5,3-4)8-6/h4-5H,1-3H2,(H,8,9)/t4-,5-,7-/m0/s1
