18
gdb 111205	4.63846	0.89425	0.85883	3.1487	74.56	-0.2398	0.0091	0.2489	1360.6211	0.147358	-439.018944	-439.010559	-439.009614	-439.052438	31.129	
O	 0.1666254211	 1.477320304	-0.0025139886	-0.411114
C	 0.1537543393	 0.0591412713	 0.0751368424	-0.118609
C	-1.2664233048	-0.4774916243	 0.1383483253	 0.029356
C	-2.1554354296	-0.6562379146	-1.1436014624	-0.048547
C	-1.310949532	-1.9119294508	-1.525388343	-0.240991
C	-1.6022649285	-1.9980662073	 0.003434747	-0.071524
N	-3.0164269338	-1.5468904607	-0.2874199508	-0.072603
C	-4.0440653759	-2.3272673976	-0.7574623176	 0.130756
O	-4.7886566208	-2.0230050776	-1.6630001859	-0.314528
H	-0.233974158	 1.7327115951	-0.8396635007	 0.286386
H	 0.7400454589	-0.387665915	-0.7392697557	 0.093209
H	 0.6688168357	-0.1870433262	 1.0103440441	 0.119516
H	-1.8081842153	 0.0039593424	 0.9556834863	 0.100979
H	-2.5975255661	 0.0964489933	-1.7937440128	 0.111724
H	-1.8211016559	-2.6446493165	-2.1519428058	 0.125296
H	-0.2780369748	-1.7626181244	-1.8425785427	 0.106938
H	-1.3913705427	-2.8072213162	 0.703205957	 0.099447
H	-4.1796144968	-3.239894475	-0.1407934962	 0.074309
78.3607	103.7181	125.9521	234.3036	268.4884	304.4939	343.9528	387.9443	522.682	583.9485	671.7886	746.0999	783.3227	811.9882	874.9655	892.5755	979.6454	995.7761	1017.5759	1030.8801	1053.4095	1083.7855	1090.5429	1113.5025	1128.5121	1167.4195	1192.6605	1201.1354	1222.4662	1244.2191	1262.1744	1336.5407	1361.1662	1406.2486	1415.382	1436.8447	1497.4638	1521.3806	1787.3664	2920.2553	3007.1583	3066.8171	3081.7378	3096.7735	3119.4625	3142.6657	3149.8729	3817.3373
OCC1C2CC1N2C=O	OC[C@H]1[C@H]2C[C@@H]1N2C=O	
InChI=1S/C6H9NO2/c8-2-4-5-1-6(4)7(5)3-9/h3-6,8H,1-2H2	InChI=1S/C6H9NO2/c8-2-4-5-1-6(4)7(5)3-9/h3-6,8H,1-2H2/t4-,5+,6-
