19
gdb 103201	3.05123	1.51475	1.27735	0.5251	73.36	-0.2271	0.0667	0.2939	1049.38	0.158215	-422.952525	-422.944394	-422.94345	-422.984948	32.26	
C	 0.0580944571	 1.5602365219	 0.0172069226	-0.411092
C	 0.0045609261	 0.027788975	 0.0521575121	-0.235298
C	-1.4087637673	-0.5440174975	 0.0584670117	 0.427704
O	-2.1853775574	-0.1131619725	-1.0493042665	-0.488005
C	-1.5993006174	-2.0514714737	 0.2067555522	-0.16426
C	-1.6292294429	-2.2987572264	 1.7246496342	 0.080141
O	-1.3835589981	-1.053985819	 2.3901991857	-0.291935
C	-2.2483755263	-0.4591451847	 1.3833497194	-0.011691
C	-2.8681095183	-1.8599640621	 1.0334087866	-0.142438
H	 1.0912963518	 1.9145832647	 0.0718280086	 0.121935
H	-0.3669788289	 1.9637806352	-0.9091095084	 0.110174
H	-0.4828771918	 2.0014657258	 0.8621953361	 0.119751
H	 0.5354096219	-0.3808263874	-0.8164746308	 0.098499
H	 0.5136543216	-0.337843565	 0.9482057529	 0.119295
H	-2.2168337467	 0.8491470325	-1.0279801183	 0.278839
H	-1.3739546804	-2.8237430231	-0.517751869	 0.092801
H	-1.3378970425	-3.2220711433	 2.2072707408	 0.112784
H	-2.7519192754	 0.4508458617	 1.7068526337	 0.079654
H	-3.870551965	-2.2521520821	 0.9478699164	 0.103144
82.1546	175.3139	201.7611	266.171	279.0416	335.6479	376.1207	431.7195	541.8448	575.6989	660.5132	774.0329	780.3121	784.5832	809.907	821.8249	873.7012	936.1883	946.2584	971.4122	981.8305	1007.3064	1029.1412	1046.1548	1061.4699	1080.1001	1109.7703	1152.3223	1176.9677	1191.8351	1211.4321	1221.0672	1279.9801	1315.8947	1342.2101	1373.0917	1404.0655	1416.1214	1475.1874	1501.9141	1512.7066	3027.4049	3036.6944	3081.5172	3104.3623	3106.9991	3132.3327	3198.9466	3208.9393	3228.1773	3808.192
CCC1(O)C2C3OC1C23	CC[C@@]1(O)[C@H]2[C@H]3O[C@@H]1[C@@H]23	
InChI=1S/C7H10O2/c1-2-7(8)4-3-5(4)9-6(3)7/h3-6,8H,2H2,1H3	InChI=1S/C7H10O2/c1-2-7(8)4-3-5(4)9-6(3)7/h3-6,8H,2H2,1H3/t3-,4+,5-,6+,7+/m0/s1
