20
gdb 12007	3.14223	2.03246	1.77656	1.4378	73.85	-0.2442	0.085	0.3292	871.1684	0.177373	-349.010217	-349.002479	-349.001535	-349.041463	31.014	
C	 0.0510785126	 1.5230038648	-0.036952115	-0.418145
C	-0.006642888	-0.000649202	 0.0462984547	 0.368184
C	-1.4592213911	-0.4991785801	 0.0103672875	-0.420518
O	 0.7187631993	-0.5042892719	-1.0953770587	-0.295481
C	 1.2573234079	-1.7858087173	-0.7866388592	-0.103696
C	 1.5323921872	-1.7648103387	 0.706009144	-0.050765
C	 2.2382972587	-0.5355056778	 1.2168903416	-0.308174
C	 0.7326275278	-0.6021237056	 1.2415162139	-0.051793
H	 1.0848126624	 1.8747086492	-0.0004434697	 0.118084
H	-0.3971420217	 1.8683663501	-0.9733773747	 0.120265
H	-0.4994786476	 1.9750333993	 0.7939371362	 0.109742
H	-1.9489739228	-0.1648869474	-0.908709912	 0.119209
H	-1.5007864068	-1.5918766884	 0.0455138495	 0.1141
H	-2.0268342512	-0.1134466791	 0.8637734388	 0.109936
H	 0.5495154676	-2.5932695558	-1.0333427997	 0.089217
H	 2.1509507503	-1.9186100039	-1.406875057	 0.104307
H	 1.6154860388	-2.7035419281	 1.2409265743	 0.085331
H	 2.7542773156	-0.6127038976	 2.1673738422	 0.108119
H	 2.7162321179	 0.11603927	 0.4920303841	 0.12057
H	 0.2147477231	-0.65690091	 2.1921342592	 0.081508
168.4842	207.8814	217.9219	253.2559	332.6134	344.3772	378.9652	383.5111	507.2207	599.3026	700.7458	742.9472	810.4148	837.0548	864.5509	910.5548	925.3579	955.6942	985.9674	1004.434	1023.4677	1055.1613	1076.8228	1082.8427	1107.5234	1124.1445	1192.8487	1200.6443	1210.7626	1235.0054	1261.5113	1343.8349	1364.3132	1394.4796	1396.2748	1414.7787	1474.9195	1480.8691	1483.3512	1497.9494	1504.7215	1524.9314	2975.8334	3034.9708	3043.5595	3057.1595	3104.4683	3112.3804	3117.1555	3124.8484	3129.7407	3174.1717	3183.2519	3217.8678
CC1(C)OCC2CC12	CC1(C)OC[C@H]2C[C@@H]12	
InChI=1S/C7H12O/c1-7(2)6-3-5(6)4-8-7/h5-6H,3-4H2,1-2H3	InChI=1S/C7H12O/c1-7(2)6-3-5(6)4-8-7/h5-6H,3-4H2,1-2H3/t5-,6-/m1/s1
