18
gdb 106931	4.21767	1.11834	0.99719	3.7069	73.92	-0.2615	0.0059	0.2674	1224.1999	0.147715	-439.088664	-439.080323	-439.079379	-439.121877	31.195	
C	-0.3745815273	 1.4773017863	 0.2166645546	-0.386575
C	 0.1433807476	 0.0608139444	-0.0693163959	-0.28938
C	 0.9463980089	-0.5059086739	 1.0713708461	 0.412307
C	 2.2784176598	 0.0987660724	 1.4903700363	-0.145648
O	 2.9761654522	-0.9299187125	 2.2145368776	-0.254651
C	 2.3468203092	-2.1396089511	 2.0903630467	 0.456533
N	 2.8265507307	-3.2553004487	 2.4319669231	-0.548384
C	 1.0094670029	-1.9187065809	 1.472450823	-0.164658
O	 0.2287051409	-0.9655451129	 2.2225536646	-0.288983
H	 0.4468048317	 2.187580564	 0.3583644947	 0.121057
H	-0.9850448632	 1.84012195	-0.6146709125	 0.1229
H	-0.9898393497	 1.4869773501	 1.121041556	 0.140279
H	-0.6999067364	-0.6110625827	-0.2585336519	 0.119277
H	 0.7634293075	 0.0601490736	-0.974340007	 0.109433
H	 2.8773108917	 0.3908863638	 0.6192231936	 0.116817
H	 2.1598222504	 0.9612186219	 2.152317178	 0.131675
H	 3.7739101433	-3.1430311372	 2.7985689913	 0.226227
H	 0.4733250499	-2.7357343666	 1.0046485118	 0.121773
68.8319	119.6416	174.88	205.1072	246.9503	324.6508	387.8386	414.2366	464.0828	604.277	663.4362	706.9674	768.5003	788.7544	861.497	893.1951	908.5127	945.0912	964.0988	1010.3892	1028.6487	1054.4202	1082.9139	1106.8376	1125.715	1223.4771	1238.4995	1246.4487	1290.1436	1338.2555	1357.9429	1396.3945	1412.4337	1460.1858	1474.5814	1500.3012	1503.6236	1508.0792	1784.3957	3031.9893	3037.1576	3040.9656	3079.6623	3094.3183	3111.0519	3121.5562	3199.3683	3469.0167
CCC12COC(=N)C1O2	CC[C@]12CO[C]([NH])[C@H]1O2	
InChI=1S/C6H9NO2/c1-2-6-3-8-5(7)4(6)9-6/h4,7H,2-3H2,1H3	InChI=1S/C6H9NO2/c1-2-6-3-8-5(7)4(6)9-6/h4,7H,2-3H2,1H3/t4-,6+/m1/s1
