21
gdb 72494	2.61001	1.73466	1.45639	2.3613	76.53	-0.2491	0.0759	0.325	1006.8032	0.185428	-424.25098	-424.243417	-424.242473	-424.282364	31.285	
C	-0.0679570293	 1.5152062489	 0.0173232786	-0.470041
C	 0.0164800989	-0.0070496744	-0.0080044576	 0.263729
C	 0.8972287502	-0.5518043397	-1.1518752996	-0.104873
O	 1.3516109636	-1.8440515021	-0.7213051568	-0.26892
C	 0.9289941553	-2.0525153407	 0.6170971706	 0.201697
C	 0.7594158787	-0.6432588852	 1.1847541899	-0.263601
O	-0.2938185906	-2.7587535705	 0.6775656772	-0.261765
C	-1.2871837541	-2.194561846	-0.1750208879	-0.080011
C	-1.3853108201	-0.6637459512	-0.0539929242	-0.254788
H	 0.926482247	 1.9640087587	 0.115302859	 0.11434
H	-0.5244310362	 1.9044135044	-0.9001409459	 0.115063
H	-0.6766094449	 1.8608504326	 0.8594561577	 0.118473
H	 0.3546429926	-0.6595262762	-2.0987310095	 0.100826
H	 1.7660843	 0.0980548879	-1.3251000915	 0.094681
H	 1.663799186	-2.6869118972	 1.1163439217	 0.085257
H	 1.7338096449	-0.1699237702	 1.3481329115	 0.097155
H	 0.1921865174	-0.6366059944	 2.1175960496	 0.104709
H	-1.0693210949	-2.4711481148	-1.2154047934	 0.106769
H	-2.23049221	-2.6709932633	 0.1049406469	 0.105789
H	-1.9263191626	-0.3908525019	 0.859999204	 0.100927
H	-1.9664979918	-0.2768137649	-0.9001595902	 0.094585
198.1755	225.6017	258.5403	270.9393	301.4001	387.6505	412.7777	454.3034	514.9997	564.7694	620.2061	770.5259	783.6828	845.3317	875.8064	894.7215	922.7448	957.8601	968.5842	995.1787	1010.068	1025.9075	1038.7827	1066.3713	1109.7438	1152.9016	1187.2551	1198.3813	1210.9199	1264.0866	1282.7563	1296.2504	1308.3504	1323.2873	1353.9527	1382.2996	1398.6283	1415.5432	1418.8837	1475.7347	1490.2609	1494.6442	1499.3039	1505.9266	1526.5567	3004.2902	3012.1308	3022.1427	3026.9222	3048.5824	3051.1127	3066.2058	3090.1867	3092.3209	3097.7819	3103.4355	3117.6155
CC12COC(C1)OCC2	C[C@@]12CO[C@@H](C1)OCC2	
InChI=1S/C7H12O2/c1-7-2-3-8-6(4-7)9-5-7/h6H,2-5H2,1H3	InChI=1S/C7H12O2/c1-7-2-3-8-6(4-7)9-5-7/h6H,2-5H2,1H3/t6-,7-/m0/s1
