21
gdb 111605	2.70598	1.48724	1.27414	2.1729	81.51	-0.2113	0.0698	0.2811	1105.9392	0.184866	-383.216422	-383.208346	-383.207402	-383.249205	31.957	
C	 1.0614934811	 0.7475202147	 0.9069653412	-0.371934
C	-0.0366865978	 0.3710683129	-0.0947623469	-0.206202
C	 0.5288781719	-0.3851563342	-1.2806884059	 0.011242
C	 0.9429124591	-1.8199995257	-1.361578176	-0.045633
C	 0.4542824128	-2.8986089588	-0.4285274318	-0.048071
N	-0.4769983506	-2.4890080733	 0.6478730622	-0.332124
C	-1.0136649475	-3.0275551859	-0.6179154789	-0.038681
C	-1.4311114472	-1.9669252513	-1.6369606174	-0.176725
N	-0.206460236	-1.3133108453	-2.1627236506	-0.141618
H	 1.4817835936	-0.1502790558	 1.370111973	 0.121985
H	 1.8803310422	 1.2917575692	 0.4224083907	 0.107972
H	 0.6647103217	 1.3848147139	 1.7034128408	 0.107497
H	-0.8039431324	-0.2047571887	 0.4173761047	 0.128715
H	-0.5052315565	 1.2849738479	-0.4846721027	 0.087004
H	 1.15253943	 0.2716211429	-1.8920876119	 0.083683
H	 1.8390720131	-2.076331452	-1.9237229219	 0.081853
H	 1.0937481803	-3.7591124565	-0.2645250173	 0.087881
H	-0.5020701293	-3.2178896304	 1.3576552851	 0.230719
H	-1.5244521276	-3.9858263523	-0.6028947708	 0.089256
H	-1.9303399993	-2.452633253	-2.4822035986	 0.108147
H	-2.1289029116	-1.2352636382	-1.2164614871	 0.115034
58.7748	140.2141	204.8529	256.6831	270.1357	336.4046	410.1633	510.846	595.7289	674.846	704.0823	724.9258	750.0212	803.9739	840.207	864.766	874.0329	895.1587	932.6994	970.9629	996.4405	1035.9953	1046.0651	1080.2522	1094.9864	1104.7086	1145.8107	1152.7675	1173.6234	1181.6044	1224.8877	1243.9684	1295.7856	1310.4934	1328.9621	1353.2377	1366.342	1399.5753	1406.1244	1422.6919	1451.2024	1481.3788	1496.905	1499.2346	1504.7943	3016.4168	3030.5247	3042.3713	3064.8646	3080.5869	3092.4207	3109.7457	3117.8121	3151.9611	3161.537	3172.8405	3488.4508
CCC1C2C3NC3CN12	CC[C@H]1[C@H]2[C@H]3N[C@H]3CN12	
InChI=1S/C7H12N2/c1-2-5-7-6-4(8-6)3-9(5)7/h4-8H,2-3H2,1H3	InChI=1S/C7H12N2/c1-2-5-7-6-4(8-6)3-9(5)7/h4-8H,2-3H2,1H3/t4-,5-,6-,7-,9?/m0/s1
