15
gdb 28346	3.27014	1.40221	0.9874	3.4444	74.47	-0.2148	-0.0464	0.1684	1136.4347	0.112852	-457.840191	-457.83245	-457.831505	-457.872358	29.384	
C	 0.0823663826	 1.4735133465	 0.0319020518	-0.470829
C	-0.0804875239	-0.0084052063	-0.0018582264	 0.370866
C	-1.2257741177	-0.7063254766	-0.1539846762	-0.217466
C	-1.2044488167	-2.1368234041	-0.1635809935	-0.179096
C	-0.0184777315	-2.7771401811	-0.0177665085	 0.199613
O	 0.1329077811	-4.1144843777	-0.0100988538	-0.419333
C	 1.2175079415	-2.0214574887	 0.1463587569	 0.366367
O	 2.3002697165	-2.552569797	 0.2798537093	-0.388475
O	 1.1126776818	-0.6590473785	 0.1446247137	-0.241451
H	 0.7502633061	 1.8110460465	-0.7684244004	 0.148432
H	-0.884628027	 1.9653099143	-0.0875712988	 0.136422
H	 0.5263882342	 1.7957761694	 0.9803411246	 0.148434
H	-2.1595448408	-0.1718343498	-0.2685712289	 0.112489
H	-2.1198750564	-2.7042934444	-0.2853514339	 0.123041
H	 1.0874780702	-4.2615166925	 0.1101056839	 0.310985
122.8385	160.0372	185.0421	293.7607	319.4045	354.6187	424.2233	468.698	539.0435	588.8285	589.5916	615.5402	731.5775	774.9892	786.209	838.8722	926.9738	977.605	1028.8488	1065.3155	1097.8222	1155.0415	1208.3963	1266.6237	1305.5767	1381.0849	1418.5394	1462.276	1468.3587	1489.6153	1638.2401	1718.003	1785.7375	3035.5855	3088.7173	3138.8659	3200.3566	3221.8031	3663.5125
CC1=CC=C(O)C(=O)O1	Cc1ccc(O)c(=O)o1	
InChI=1S/C6H6O3/c1-4-2-3-5(7)6(8)9-4/h2-3,7H,1H3	InChI=1S/C6H6O3/c1-4-2-3-5(7)6(8)9-4/h2-3,7H,1H3
