21
gdb 108680	1.74497	1.61035	0.90286	0.8483	95.7	-0.2149	-0.0095	0.2053	1352.4976	0.182021	-349.956489	-349.946887	-349.945943	-349.991162	35.829	
C	-0.2871534342	 1.6094280418	-0.1979423735	-0.373996
C	 0.0916904891	 0.133389164	 0.026610087	-0.312714
C	 0.7551522834	-0.4993929162	-1.1583194307	 0.236411
C	 2.0305496484	-0.9300603228	-1.2308434757	 0.111727
C	 2.3399021731	-1.570142321	-2.5759180295	-0.31586
C	 1.1367020113	-1.1454191921	-3.4490993754	-0.21534
C	 0.0146331989	-0.7910408901	-2.4458335035	-0.294012
C	 2.9944854396	-0.8725038621	-0.1956201286	 0.184617
C	 3.8468830084	-0.8413272974	 0.657364372	-0.421772
H	 0.6020110815	 2.2112452968	-0.4087973165	 0.124702
H	-0.9792447016	 1.7266873501	-1.0377148448	 0.117234
H	-0.7723547087	 2.0204796381	 0.6925166412	 0.114984
H	 0.7545280944	 0.0558971481	 0.8940549873	 0.116814
H	-0.819860026	-0.4308754642	 0.2701036768	 0.102273
H	 3.3000515613	-1.2397774812	-2.9845962953	 0.110234
H	 2.4072461988	-2.6610420622	-2.4666863495	 0.110562
H	 1.4026376441	-0.2534114723	-4.0249929143	 0.107103
H	 0.8396681667	-1.915938836	-4.1649017204	 0.09817
H	-0.6791290461	-1.6315302721	-2.2910541585	 0.107717
H	-0.6020751407	 0.0491055054	-2.7842490543	 0.105573
H	 4.5896542581	-0.8105724947	 1.4151189664	 0.185574
59.2414	121.4427	129.7188	142.7918	192.6026	219.006	297.6991	341.1788	456.5564	508.514	551.4093	563.7641	594.6313	637.2932	638.698	701.971	788.9057	848.9448	896.8787	924.9889	945.9678	981.948	1022.1432	1036.7848	1077.48	1107.9532	1151.7115	1176.1924	1214.9231	1230.0885	1261.4398	1300.1827	1322.6921	1329.2006	1353.3155	1364.0227	1407.0225	1479.3681	1481.6346	1488.701	1499.0552	1504.9836	1508.2713	1682.1232	2213.6691	2992.9363	3007.9973	3017.4534	3037.955	3046.8253	3059.4206	3073.1642	3076.2509	3102.6436	3109.0787	3113.3363	3503.807
CCC1=C(CCC1)C#C	CCC1=C(CCC1)C#C	
InChI=1S/C9H12/c1-3-8-6-5-7-9(8)4-2/h1H,4-7H2,2H3	InChI=1S/C9H12/c1-3-8-6-5-7-9(8)4-2/h1H,4-7H2,2H3
