15
gdb 10146	2.8721	1.26265	0.91712	2.9462	67.3	-0.28	0.0121	0.2921	1201.4806	0.116556	-362.629284	-362.62022	-362.619276	-362.663482	31.3	
O	-0.0817094995	 1.457204346	 0.0827107409	-0.418895
C	 0.0287291178	 0.0504513578	-0.0391040854	-0.092077
C	-1.3892230357	-0.5085427904	 0.0032492809	-0.173943
C	-1.4311047319	-2.0597317214	-0.0287899639	-0.333495
C	-2.7963617344	-2.5666548548	 0.1157344454	 0.315295
C	-3.9233003219	-2.9563193907	 0.249490033	-0.407196
C	-0.8075208224	-2.5850159427	-1.2569660706	 0.299411
N	-0.2969659016	-2.977320662	-2.2159523303	-0.326986
H	 0.7896276666	 1.841740208	-0.0494625983	 0.292335
H	 0.5177176626	-0.2382269772	-0.9810229373	 0.117873
H	 0.6227750505	-0.379350933	 0.7854952806	 0.088845
H	-1.8799758378	-0.180256099	 0.9236983576	 0.13255
H	-1.9672098224	-0.1120135402	-0.8357471401	 0.138456
H	-0.8295163624	-2.4353363328	 0.8115670417	 0.157633
H	-4.9183284476	-3.3106406776	 0.3633647159	 0.210194
83.2605	92.0771	121.2534	131.4859	219.0728	248.2073	284.4506	362.7179	389.7698	482.8262	578.0163	597.574	648.0073	667.925	787.182	860.265	990.0611	1031.3453	1044.8453	1091.1825	1109.8418	1215.5908	1238.5284	1293.0225	1306.7898	1329.4567	1348.4242	1469.066	1491.5529	1528.7236	2250.6347	2362.937	2957.9702	3009.6384	3013.2058	3069.011	3119.8273	3501.932	3834.4601
OCCC(C#C)C#N	OCC[C@@H](C#C)C#N	
InChI=1S/C6H7NO/c1-2-6(5-7)3-4-8/h1,6,8H,3-4H2	InChI=1S/C6H7NO/c1-2-6(5-7)3-4-8/h1,6,8H,3-4H2/t6-/m1/s1
