15
gdb 81326	4.11668	1.13858	1.05339	0.9756	77.17	-0.2351	-0.0402	0.1949	1132.816	0.112082	-420.545765	-420.538431	-420.537487	-420.577436	29.279	
O	 0.160705201	 1.3314183552	-0.1788016178	-0.438713
C	 0.0924899678	-0.047011044	-0.0735080675	 0.195732
C	 0.0450984117	-0.6319899968	 1.3972784883	-0.037032
O	-1.3646582674	-0.2021955821	 1.4233904212	-0.307191
C	-1.3555948661	-0.6633812824	 0.0331794466	-0.120807
C	-1.0284441791	-2.1564139562	 0.1778767228	 0.285602
C	-0.0651787254	-2.117385877	 1.1225955124	-0.22069
C	-1.5907756405	-3.2107608051	-0.558969899	 0.119808
C	-2.1043853528	-4.0842475546	-1.2123443139	-0.375248
H	-0.4758656148	 1.6815558301	 0.4604697693	 0.290388
H	 0.7945758873	-0.4873538457	-0.7836769713	 0.102413
H	 0.6529907844	-0.2514820406	 2.2160087431	 0.092378
H	-2.2041058629	-0.3418843602	-0.5677489341	 0.095552
H	 0.5246483522	-2.9168242269	 1.5441274319	 0.126445
H	-2.5492380154	-4.8635937639	-1.7798025721	 0.191363
113.4812	150.0458	273.2343	336.5482	410.8993	467.5806	510.1731	554.5234	570.8114	589.0853	621.9809	641.4531	678.0052	793.469	799.7147	852.3475	874.0197	918.6184	927.2048	949.5892	1037.2114	1124.9481	1128.852	1169.0297	1191.0485	1203.7971	1235.7184	1273.1778	1299.0131	1302.1571	1434.7053	1623.47	2222.6299	3112.8289	3146.745	3151.4807	3254.6298	3502.6621	3751.337
OC1C2OC1C(=C2)C#C	O[C@H]1[C@H]2O[C@@H]1C(=C2)C#C	
InChI=1S/C7H6O2/c1-2-4-3-5-6(8)7(4)9-5/h1,3,5-8H	InChI=1S/C7H6O2/c1-2-4-3-5-6(8)7(4)9-5/h1,3,5-8H/t5-,6-,7+/m0/s1
