21
gdb 94883	2.66446	1.63722	1.3028	1.6669	81.38	-0.2273	0.0685	0.2958	1060.525	0.184439	-387.061994	-387.054134	-387.053189	-387.093823	32.347	
O	-0.0293617209	 1.4655436326	-0.005079126	-0.439016
C	 0.0347954129	 0.0445800757	-0.0166538355	 0.038084
C	 0.6912107696	-0.5521403228	 1.2737336095	-0.265998
C	 0.0520244248	-1.9518711126	 1.4935691207	-0.30467
C	-1.3244586963	-1.8102702273	 0.8699050832	 0.279316
C	-2.1586694389	-0.6068008582	 1.2033893422	-0.374238
C	-1.3302744255	-0.5924395934	-0.0525550113	 0.306376
C	-2.0086042614	-1.412783488	-1.1654048043	-0.299737
C	-2.0066185579	-2.6642046106	-0.216835479	-0.294156
H	 0.8722330564	 1.8032340004	 0.0026665599	 0.278253
H	 0.5963811932	-0.2967465194	-0.9022862858	 0.059406
H	 1.7822781044	-0.5981624015	 1.1979770095	 0.091378
H	 0.4598505321	 0.1206269776	 2.1062744182	 0.112237
H	 0.6175378043	-2.7182838962	 0.949852279	 0.097394
H	 0.0558451361	-2.2430314136	 2.5502740099	 0.098683
H	-3.2397111542	-0.6683964398	 1.1142045288	 0.105871
H	-1.8206684199	 0.0246334991	 2.0164307179	 0.12003
H	-2.9825880712	-1.0495928915	-1.5086376659	 0.096507
H	-1.3673468642	-1.552818319	-2.039425562	 0.100165
H	-1.3660635546	-3.4678087216	-0.5892455108	 0.099108
H	-2.9797554989	-3.09313397	 0.043478912	 0.095006
122.3591	202.3577	261.0775	269.0083	302.122	324.4399	429.7675	473.6517	557.3445	578.554	633.7341	716.4346	745.6374	769.7798	837.9242	870.9152	913.1611	919.373	940.185	955.3829	972.3903	985.4596	1039.1723	1063.9779	1066.3389	1086.9389	1112.5068	1193.5369	1209.455	1211.6965	1232.6283	1241.7995	1254.1403	1278.5715	1293.5667	1305.2414	1342.5042	1349.5858	1384.2109	1439.3755	1476.6656	1478.9462	1493.0557	1497.2834	1511.833	2955.9772	3026.1631	3040.4775	3046.301	3048.2684	3060.9209	3089.0072	3090.8868	3108.1243	3123.126	3216.3762	3809.4743
OC1CCC23CC12CC3	O[C@H]1CC[C@@]23C[C@@]12CC3	
InChI=1S/C8H12O/c9-6-1-2-7-3-4-8(6,7)5-7/h6,9H,1-5H2	InChI=1S/C8H12O/c9-6-1-2-7-3-4-8(6,7)5-7/h6,9H,1-5H2/t6-,7+,8-/m0/s1
