20
gdb 103712	2.86714	1.15567	0.9665	5.3996	80.74	-0.2715	0.0377	0.3092	1296.1063	0.168127	-403.156803	-403.146443	-403.145498	-403.191767	37.859	
C	 0.040876719	 1.5551882172	-0.2653603505	-0.395989
C	 0.0112642849	 0.0850578151	 0.1713398368	-0.228367
C	-1.3866668201	-0.5046590744	 0.1147983443	 0.378856
O	-2.3009216063	 0.1356799019	 0.9608481531	-0.453161
C	-1.9368321343	-1.0958706576	-1.1541295326	-0.382251
C	-1.6029367133	-2.0142847804	 0.0276943251	 0.085517
C	-0.4470972327	-2.9995037481	-0.0778012635	-0.461036
C	-2.7299712736	-2.5372873924	 0.7633243102	 0.271986
N	-3.607235402	-3.0144033678	 1.3468250162	-0.354214
H	 1.0572823643	 1.9547947676	-0.2126568565	 0.123224
H	-0.3122898152	 1.6726054646	-1.2958619255	 0.118005
H	-0.5883291897	 2.1709720127	 0.3847182486	 0.121844
H	 0.6897508432	-0.4947198438	-0.4608214083	 0.10009
H	 0.37951036	-0.0001341463	 1.2004843217	 0.117086
H	-2.6322017974	 0.9206954354	 0.5123421527	 0.291412
H	-2.9859452969	-0.9337125893	-1.3723802644	 0.135821
H	-1.2890317338	-1.1744117758	-2.0212495858	 0.1226
H	 0.3481925097	-2.6120592077	-0.7172943407	 0.124714
H	-0.0228370657	-3.2162422886	 0.9069438513	 0.141689
H	-0.7954159	-3.9416759523	-0.5106053621	 0.142174
76.5887	113.0239	135.6642	165.4333	203.4593	228.142	242.2465	263.6395	292.6671	391.1717	395.0661	414.7354	457.6168	577.1673	619.7339	705.5857	710.4157	791.9782	875.3775	907.5869	936.5435	969.0213	995.1426	1049.5428	1064.7497	1085.7589	1111.3156	1170.333	1207.217	1271.6776	1307.1641	1324.8421	1357.1658	1394.1101	1406.2993	1418.396	1471.3541	1478.1785	1489.336	1497.8769	1502.9724	1511.994	2353.3307	3035.1817	3041.5831	3048.8901	3085.1807	3107.6226	3114.4534	3114.9175	3132.354	3135.5623	3229.5604	3812.2978
CCC1(O)CC1(C)C#N	CC[C@@]1(O)C[C@]1(C)C#N	
InChI=1S/C7H11NO/c1-3-7(9)4-6(7,2)5-8/h9H,3-4H2,1-2H3	InChI=1S/C7H11NO/c1-3-7(9)4-6(7,2)5-8/h9H,3-4H2,1-2H3/t6-,7-/m1/s1
