21
gdb 121855	4.28834	0.52201	0.47948	3.1215	85.12	-0.2494	0.0403	0.2897	2282.2465	0.178931	-424.194506	-424.182711	-424.181767	-424.234027	39.772	
C	-0.0744240097	 1.4829142216	-0.0081687463	-0.499942
C	-0.00737236	 0.028698211	-0.0008670998	 0.101018
C	 0.0534975905	-1.1742949305	 0.0247944816	 0.030796
C	 0.0907758093	-2.6392274643	 0.0058627336	-0.070063
O	-1.2134906047	-3.2008118989	 0.1606509606	-0.415782
C	 0.7940273609	-3.1662372291	-1.2612759256	-0.193452
C	 0.9200049509	-4.6907777679	-1.2715023128	-0.164333
C	 1.5538112443	-5.2194041476	-2.5508600449	-0.081424
O	 1.6306949574	-6.6334734265	-2.4496391318	-0.420489
H	 0.7190427434	 1.9175600645	 0.6096770634	 0.151824
H	 0.035187893	 1.8854120858	-1.0211584469	 0.14778
H	-1.0323408431	 1.836591691	 0.3887592826	 0.151396
H	 0.646070474	-2.997846615	 0.8824224346	 0.112898
H	-1.7946886115	-2.7425009056	-0.4564413152	 0.281278
H	 0.2270564756	-2.8211743275	-2.1367113079	 0.092322
H	 1.7824984012	-2.6950336812	-1.3274019273	 0.104253
H	 1.5264878783	-5.024011616	-0.4199782856	 0.103134
H	-0.0689558266	-5.1422057654	-1.147956668	 0.122149
H	 0.9467490605	-4.9144011585	-3.4197905324	 0.081374
H	 2.554420662	-4.7750662285	-2.6846712432	 0.080988
H	 2.0321140943	-6.9711262913	-3.2554184885	 0.284272
18.2321	54.9067	62.8123	80.4747	123.3896	159.2567	177.843	261.3746	274.2421	279.899	299.8739	347.1065	397.8631	455.1117	550.2848	567.2	760.1726	787.8048	855.4459	942.8194	1018.6799	1047.286	1051.9815	1054.8618	1073.5273	1089.8806	1104.2457	1168.3791	1205.573	1224.4426	1266.4375	1285.6567	1306.3078	1321.6821	1347.177	1385.7461	1413.393	1421.3652	1463.8623	1477.0543	1478.6443	1479.2745	1502.5955	1529.2867	2365.6547	2952.6015	2976.7205	3012.9868	3026.5842	3027.4887	3037.0836	3058.8588	3088.4602	3089.4121	3097.8535	3804.4987	3830.157
CC#CC(O)CCCO	CC#C[C@@H](O)CCCO	
InChI=1S/C7H12O2/c1-2-4-7(9)5-3-6-8/h7-9H,3,5-6H2,1H3	InChI=1S/C7H12O2/c1-2-4-7(9)5-3-6-8/h7-9H,3,5-6H2,1H3/t7-/m1/s1
