23
gdb 96482	2.42689	1.4262	1.02086	0.8485	88.1	-0.232	0.0204	0.2524	1262.3185	0.207044	-388.299889	-388.290932	-388.289988	-388.333048	35.36	
C	-0.1102820818	 1.5855371943	 0.1038641698	-0.390837
C	-0.0725068056	 0.0635622163	-0.0096920399	 0.13364
C	 0.4228288161	-0.3823187099	-1.4079244846	-0.244571
C	 0.2967597031	-1.859775488	-1.6957161081	-0.069189
C	 1.0821572582	-2.8205720951	-1.2036061152	-0.040851
C	 2.2079253781	-2.5936985197	-0.2323642309	-0.242072
C	 1.7490871612	-2.6324569296	 1.242676517	-0.197035
C	 0.5603142121	-1.7092040408	 1.5291702201	-0.056003
O	 0.7769124361	-0.3948675961	 1.0357292607	-0.265204
H	 0.88997002	 2.0034825277	-0.0494018255	 0.121674
H	-0.7833914693	 2.0176635259	-0.642616246	 0.109577
H	-0.4528227032	 1.8813007173	 1.098768917	 0.11864
H	-1.0872997745	-0.3346470363	 0.1481120888	 0.067974
H	-0.1451289436	 0.1782237042	-2.1588840562	 0.093414
H	 1.4662048342	-0.0543202889	-1.4964424373	 0.11227
H	-0.5209950728	-2.1489448572	-2.3527812459	 0.081624
H	 0.8697513162	-3.8537186622	-1.4732936529	 0.079838
H	 2.9946462449	-3.3420184066	-0.3785300841	 0.092881
H	 2.6601199847	-1.6132565609	-0.4112714636	 0.112703
H	 1.4625401075	-3.6516553359	 1.5341780829	 0.092113
H	 2.5969062847	-2.3488278805	 1.8770582883	 0.101701
H	-0.3545125294	-2.1298834051	 1.0954000026	 0.09674
H	 0.4087842731	-1.641901023	 2.6155310929	 0.090972
107.4479	143.9432	206.4355	223.9741	245.4861	273.3039	332.6577	349.8445	422.4155	479.6407	504.4145	557.1973	615.7448	726.0738	785.5796	831.5345	850.8524	873.3604	915.8031	942.0632	977.7863	1001.6207	1022.999	1055.0622	1070.3855	1098.5752	1119.695	1140.8196	1150.4474	1198.9387	1245.2354	1263.296	1283.0582	1303.6144	1313.925	1339.1695	1365.0103	1372.6217	1381.5495	1405.4632	1422.1692	1431.3764	1468.0555	1476.7385	1483.8361	1490.6368	1496.9397	1503.6391	1716.0508	2973.5348	3001.98	3023.8475	3024.7638	3039.5057	3040.8915	3048.6349	3068.3978	3069.6127	3085.2502	3112.3638	3122.1963	3129.8343	3154.4355
CC1CC=CCCCO1	C[C@H]1CC=CCCCO1	
InChI=1S/C8H14O/c1-8-6-4-2-3-5-7-9-8/h2,4,8H,3,5-7H2,1H3/b4-2-	InChI=1S/C8H14O/c1-8-6-4-2-3-5-7-9-8/h2,4,8H,3,5-7H2,1H3/b4-2-/t8-/m0/s1
