18
gdb 50163	5.27254	0.88485	0.86522	4.5849	74.96	-0.2425	0.0215	0.264	1360.867	0.147401	-439.073256	-439.064704	-439.063759	-439.108214	30.289	
O	 0.0445363895	 0.215804553	 1.0127014466	-0.331952
C	 0.062952162	 1.3473346434	 0.5719771985	 0.133937
N	 1.0896629943	 1.8796443923	-0.1240573534	-0.049307
C	 2.4138096882	 1.3306246351	-0.4113856232	-0.230712
C	 2.8506704408	 2.7504581863	-0.8694162368	 0.416868
C	 4.075608739	 3.4753955415	-0.2825667525	-0.351054
C	 4.5449407244	 3.5633975966	-1.7475760968	-0.073329
O	 3.3517317404	 2.8831347857	-2.202662606	-0.304715
C	 1.3896976836	 3.2256822939	-0.6161005476	-0.243984
H	-0.7714696566	 2.0686114879	 0.695827775	 0.067599
H	 2.9261558314	 0.9188972377	 0.4645179604	 0.124545
H	 2.4234400784	 0.593428611	-1.2211770806	 0.132364
H	 3.8595568484	 4.4297266756	 0.2009082789	 0.118626
H	 4.6973496608	 2.8698121784	 0.3788709834	 0.122353
H	 4.6228431027	 4.5717148603	-2.1686693781	 0.111497
H	 5.4513799131	 3.0000439865	-1.9945893187	 0.113125
H	 0.8690211155	 3.4947897739	-1.5421040205	 0.128005
H	 1.267751424	 4.0259071009	 0.1228885614	 0.116135
24.4735	72.4488	100.8771	177.4718	250.1596	325.7066	377.4035	393.9046	437.8679	617.0547	779.826	798.7756	861.875	875.8016	888.89	938.9525	953.0482	977.3644	1024.9347	1033.5573	1130.7085	1145.5711	1146.2266	1158.624	1174.0388	1200.6433	1223.391	1227.7427	1266.8134	1278.6094	1341.701	1357.8546	1402.9902	1455.0564	1486.8318	1491.5881	1510.0484	1532.0754	1791.2531	2918.4879	3023.5887	3032.0063	3039.8793	3075.1831	3076.0195	3079.62	3089.8903	3134.9326
O=CN1CC2(CCO2)C1	O=CN1CC2(CCO2)C1	
InChI=1S/C6H9NO2/c8-5-7-3-6(4-7)1-2-9-6/h5H,1-4H2	InChI=1S/C6H9NO2/c8-5-7-3-6(4-7)1-2-9-6/h5H,1-4H2
