18
gdb 23042	2.40795	1.21938	1.14474	2.519	72.7	-0.2268	-0.0154	0.2114	1183.6547	0.144436	-476.158437	-476.1487	-476.147755	-476.193116	35.932	
C	-0.388430281	 1.4029925408	 0.0557394629	-0.477886
C	 0.0838592578	-0.023911954	-0.0119244361	 0.427634
N	 0.3378224483	-0.7139756545	 1.0524536389	-0.258603
O	 0.1203744903	 0.0231543136	 2.226936417	-0.398376
C	 0.2715619331	-0.6799584591	-1.3116636721	-0.267716
C	 1.4031916606	-1.7340902918	-1.4920834256	 0.078925
O	 2.294452143	-1.9934995958	-0.4709642071	-0.418353
C	-0.0113864735	-2.2038996148	-1.4593467276	 0.078972
O	-0.5271346161	-2.9306852052	-0.4057287463	-0.418346
H	-0.5497874845	 1.8162412444	-0.9400893754	 0.127171
H	-1.3192325862	 1.4654284625	 0.6282396629	 0.156084
H	 0.3441844338	 2.0179009257	 0.5879233995	 0.156078
H	 0.3457598664	-0.607812912	 2.9187856921	 0.308814
H	 0.0439408682	-0.0541666515	-2.1664822336	 0.096328
H	 1.9097263954	-1.7019032023	-2.452244216	 0.112686
H	 1.8680674842	-1.7466214913	 0.3674058469	 0.291954
H	-0.4760878515	-2.4942699434	-2.3970322079	 0.112692
H	-0.2981732384	-2.4665923411	 0.4175462673	 0.291941
67.9656	80.4452	137.0817	175.8188	233.6871	281.5747	316.0848	326.0736	354.8624	373.9467	496.3453	502.6824	549.3474	624.0311	676.0119	689.0302	710.2662	751.1862	865.1252	961.7082	981.4611	993.9713	1041.8516	1055.7515	1102.1174	1106.5754	1150.8005	1216.2463	1248.604	1349.0775	1362.7614	1384.591	1401.788	1419.2604	1438.3337	1472.6976	1485.7034	1497.902	1667.1376	3048.1444	3105.2895	3147.7663	3149.6067	3157.5455	3177.1315	3612.0756	3630.9495	3821.7226
CC(=NO)C1C(O)C1O	CC(=NO)[C@H]1[C@@H](O)[C@H]1O	
InChI=1S/C5H9NO3/c1-2(6-9)3-4(7)5(3)8/h3-5,7-9H,1H3	InChI=1S/C5H9NO3/c1-2(6-9)3-4(7)5(3)8/h3-5,7-9H,1H3/t3-,4+,5-
