19
gdb 114246	3.40188	0.95938	0.92617	2.9746	72.4	-0.2324	0.059	0.2915	1342.0887	0.1577	-460.114861	-460.105784	-460.10484	-460.149204	34.066	
O	 0.109926095	 1.0284368907	 0.7196168895	-0.421529
C	 0.009016472	-0.2687300249	 0.1681779519	-0.065213
C	-1.3924970034	-0.5144479621	-0.3618225914	 0.111829
C	-1.8350163668	-1.9813159092	-0.5600934527	-0.383472
C	-2.7528051281	-1.6993504845	 0.6194984361	 0.449048
C	-4.1490376432	-2.168149298	 0.8921000518	-0.402414
C	-2.9957677187	-2.5563030542	 1.8115867841	 0.018066
O	-2.461264891	-3.8454988746	 1.7635715593	-0.419574
O	-2.3616478913	-0.3292372416	 0.7172431125	-0.336436
H	-0.6220120246	 1.1024906913	 1.3447875224	 0.291933
H	 0.7394991611	-0.334913467	-0.6463159611	 0.107553
H	 0.2574613075	-1.0459873872	 0.90951592	 0.089605
H	-1.6159378684	 0.1713237543	-1.1862214229	 0.087822
H	-2.3395438163	-2.189330603	-1.5047627233	 0.114322
H	-1.0685396977	-2.7370088117	-0.3776015506	 0.128302
H	-4.8663987281	-1.4457668126	 1.2677353784	 0.12512
H	-4.5537488646	-2.9313968941	 0.2342390271	 0.118624
H	-2.963208292	-2.062003458	 2.7831978022	 0.095674
H	-3.0959046313	-4.4493569635	 2.1640036769	 0.29074
42.8694	109.0298	149.4349	195.8488	258.7424	291.7975	348.095	391.7696	435.7882	465.0015	489.3417	520.9922	587.3036	796.7538	827.2913	860.7319	882.1215	910.9191	932.9357	989.2914	1009.008	1019.3283	1045.4342	1084.1702	1096.5607	1121.9419	1161.5552	1173.8834	1201.7882	1226.4973	1244.7044	1286.8954	1301.1952	1346.6491	1348.5638	1397.5183	1416.3362	1437.3248	1488.2701	1498.0559	1505.1187	2972.5173	3048.7477	3069.799	3079.0978	3099.0206	3123.4747	3132.8681	3218.161	3782.1154	3799.8369
OCC1CC2(CC2O)O1	OC[C@H]1C[C@]2(C[C@H]2O)O1	
InChI=1S/C6H10O3/c7-3-4-1-6(9-4)2-5(6)8/h4-5,7-8H,1-3H2	InChI=1S/C6H10O3/c7-3-4-1-6(9-4)2-5(6)8/h4-5,7-8H,1-3H2/t4-,5-,6-/m1/s1
