17
gdb 70944	3.37248	1.40728	1.13666	4.4126	74.44	-0.2433	-0.0347	0.2086	1083.2106	0.133656	-421.746419	-421.738457	-421.737513	-421.778873	30.305	
C	 0.0592550345	 1.3995946311	-0.1480433769	-0.526004
C	 0.0032080226	-0.0855720342	-0.0066637062	 0.456481
O	 0.5421800152	-0.918327139	-1.0867741637	-0.369612
C	 0.0702585101	-1.8709065941	-0.1098518168	 0.391847
C	 0.1895673484	-3.3330553843	-0.3256999851	 0.022202
O	 0.6735007221	-3.8454935823	-1.3014142225	-0.244396
C	 0.51717656	-1.0239136895	 1.141057294	-0.172754
C	-0.8753581189	-1.1029093408	 1.797942658	-0.286542
C	-1.2058062054	-1.0395880916	 0.2933904964	-0.172719
H	 1.0960446899	 1.7336219871	-0.2503825884	 0.142382
H	-0.4962197695	 1.718967752	-1.0348525533	 0.142399
H	-0.3780623097	 1.8840181655	 0.7305335175	 0.131526
H	-0.219433446	-3.9363065714	 0.5170625625	 0.080432
H	 1.5122480366	-1.0281686748	 1.5860592383	 0.094988
H	-1.123644097	-2.0299877785	 2.3197463933	 0.108548
H	-1.1783483876	-0.2406168883	 2.3978664659	 0.106221
H	-2.1653775451	-1.0616789271	-0.2232766529	 0.095
98.6977	148.5033	200.0012	217.7722	248.6091	348.1195	377.2919	509.3881	541.7326	630.1871	695.701	701.1968	768.336	827.5813	845.9747	886.2949	908.8043	977.8855	993.9642	1042.4425	1060.9775	1081.3236	1102.1658	1117.3718	1137.5707	1164.819	1169.4623	1233.8457	1242.7062	1277.0561	1386.0566	1420.871	1439.2725	1473.0198	1490.0136	1517.0703	1823.7127	2868.9844	3041.0176	3058.756	3113.6368	3116.5738	3117.0008	3121.3768	3124.9854
CC12OC3(C=O)C1CC23	C[C@@]12O[C@@]3(C=O)[C@@H]1C[C@@H]23	
InChI=1S/C7H8O2/c1-6-4-2-5(6)7(4,3-8)9-6/h3-5H,2H2,1H3	InChI=1S/C7H8O2/c1-6-4-2-5(6)7(4,3-8)9-6/h3-5H,2H2,1H3/t4-,5+,6-,7+
