12
gdb 133253	3.1356	1.51022	1.02591	5.4607	63.14	-0.2532	-0.0792	0.174	1045.7366	0.076295	-510.045715	-510.038223	-510.037279	-510.078354	26.452	
C	 0.0007899621	 1.4660344407	 0.0346099319	-0.306746
N	 0.0007800487	 0.0077774747	 0.0120482772	 0.116011
N	-0.1152308269	-0.5881968974	-1.1698822077	-0.051441
N	-0.1220351173	-1.861271037	-1.2560667185	-0.245494
C	-0.0067573729	-2.6713866984	-0.1008200163	 0.296972
O	-0.0097139406	-3.8780419406	-0.1510579685	-0.320157
C	 0.1148358692	-1.8968929567	 1.1420186536	 0.267766
F	 0.2271533124	-2.5482749952	 2.2728113128	-0.015618
N	 0.1188200961	-0.6140985054	 1.2001592851	-0.249011
H	 0.9375396824	 1.8257567338	 0.4659387244	 0.164975
H	-0.1001332922	 1.8052413564	-0.9943153757	 0.177785
H	-0.8359473809	 1.8231997652	 0.6389762917	 0.164957
71.2801	116.3372	184.4327	300.9566	339.5763	358.7299	427.9437	497.9784	553.0557	590.5239	611.5584	705.3664	811.4207	848.0405	964.8752	1048.8501	1148.4208	1152.5187	1271.7019	1326.209	1418.7304	1441.2394	1476.2215	1479.6321	1504.2957	1646.5227	1803.5188	3064.3503	3136.4871	3188.8564
CN1N=NC(=O)C(F)=N1	Cn1nnc(=O)c(F)n1	
InChI=1S/C3H3FN4O/c1-8-6-2(4)3(9)5-7-8/h1H3	InChI=1S/C3H3FN4O/c1-8-6-2(4)3(9)5-7-8/h1H3
