16
gdb 26584	2.37439	1.84266	1.04521	4.1758	77.54	-0.1984	-0.0365	0.162	1091.3031	0.124977	-437.955961	-437.947804	-437.94686	-437.988495	31.069	
C	 0.0272362966	 1.5490688658	 0.0225550398	-0.513917
C	 0.0222611846	 0.0446578887	 0.004965557	 0.223377
C	-1.1558271381	-0.6522479134	 0.0425612023	 0.058
N	-2.4127275614	-0.0826482203	 0.1389225689	-0.578897
C	-1.1691623058	-2.1150026905	 0.0312703261	 0.416801
O	-2.1755452139	-2.7875347861	 0.0469152419	-0.375801
O	 0.0535793805	-2.7421996023	-0.0049203509	-0.213737
C	 1.2155601237	-2.046562022	-0.0423231543	 0.046516
C	 1.2440963393	-0.7022534826	-0.0419958267	-0.232312
H	 1.0374833907	 1.9438757906	 0.1520835155	 0.131236
H	-0.3706818276	 1.967737359	-0.9121013187	 0.132381
H	-0.5979661706	 1.9332228815	 0.8373199564	 0.143519
H	-2.5425519495	 0.8111418255	-0.309042753	 0.250946
H	-3.1515400308	-0.7500003819	-0.0405920843	 0.268488
H	 2.075228147	-2.7017250886	-0.0716915896	 0.137133
H	 2.1981950256	-0.1908030935	-0.0721052903	 0.106266
106.4548	137.3501	190.8732	280.1666	289.5875	340.102	379.457	482.8586	516.5932	531.6507	559.2568	598.3854	627.7925	703.2033	775.5377	787.9306	837.1426	900.0496	952.9978	1018.121	1050.9074	1092.4039	1130.6232	1205.116	1268.0877	1297.2004	1373.782	1419.1648	1451.7816	1483.1603	1499.8448	1589.8854	1632.8558	1685.918	1795.0049	3012.4402	3064.832	3120.7485	3206.6665	3237.4479	3553.8861	3671.3466
CC1=C(N)C(=O)OC=C1	Cc1c(N)c(=O)occ1	
InChI=1S/C6H7NO2/c1-4-2-3-9-6(8)5(4)7/h2-3H,7H2,1H3	InChI=1S/C6H7NO2/c1-4-2-3-9-6(8)5(4)7/h2-3H,7H2,1H3
