17
gdb 28717	3.33601	1.14172	0.86671	2.9958	76.78	-0.2088	-0.0397	0.1691	1301.5943	0.135853	-418.069106	-418.060359	-418.059415	-418.103591	30.971	
C	 0.1247824439	 1.444312281	 0.2022716571	-0.497259
C	-0.0641162836	-0.0223908628	 0.0024209622	 0.337419
N	-0.6262588882	-0.5929132062	-1.0443557228	-0.296285
C	-0.5643667164	-1.9459593642	-0.8085588237	-0.184058
C	 0.0384983791	-2.2040068192	 0.396141899	 0.306052
C	 0.3086849745	-3.4838579196	 1.1172018399	-0.435077
C	 1.3953783953	-3.474179629	 2.1685147085	 0.166304
O	 1.9176633814	-2.4916773823	 2.6381149571	-0.251938
N	 0.3430032681	-0.9581100351	 0.9092224079	-0.330033
H	 1.1843488366	 1.7116404721	 0.2899059064	 0.131291
H	-0.2925216234	 1.9685452178	-0.6582964487	 0.154823
H	-0.3808867972	 1.8024299061	 1.1063499661	 0.130284
H	-0.9611554136	-2.6596745129	-1.5158348973	 0.098896
H	-0.5828754674	-3.8521404274	 1.657501973	 0.151435
H	 0.5389558768	-4.286395866	 0.4048466285	 0.146886
H	 1.6731348813	-4.4867472432	 2.5339821346	 0.096649
H	 0.8919854728	-0.8267908891	 1.7451281722	 0.274612
45.9894	85.0191	135.7244	154.1859	204.0502	280.9084	308.3104	394.4568	555.7939	605.5632	657.7839	700.2297	712.2935	716.5517	810.3707	839.9491	928.7564	987.6648	1011.2372	1043.0942	1054.9468	1063.6663	1181.4644	1217.2272	1224.711	1268.028	1341.7174	1397.8456	1415.1605	1430.0485	1436.4533	1441.2806	1483.3536	1497.7298	1540.0279	1617.1005	1815.8256	2898.6537	2953.7269	3029.6116	3049.6187	3078.3382	3147.5938	3237.2335	3633.1588
CC1=NC=C(CC=O)N1	Cc1ncc(CC=O)[nH]1	
InChI=1S/C6H8N2O/c1-5-7-4-6(8-5)2-3-9/h3-4H,2H2,1H3,(H,7,8)	InChI=1S/C6H8N2O/c1-5-7-4-6(8-5)2-3-9/h3-4H,2H2,1H3,(H,7,8)
