18
gdb 99070	4.12501	0.76455	0.70096	4.3053	73.49	-0.2892	-0.0035	0.2857	1606.711	0.145478	-439.141135	-439.130894	-439.12995	-439.177597	34.847	
C	-0.0599531332	 1.3699877358	 0.1257639459	-0.243691
O	 0.1258381145	-0.0504827735	 0.0258206493	-0.230746
C	 0.5923458984	-0.4906354507	-1.1536820615	 0.453811
O	 0.8629174091	 0.2283720681	-2.0840189381	-0.356918
C	 0.7014448471	-2.0042779043	-1.1545826722	-0.336818
C	 1.4997733252	-2.5219297635	-2.3678786744	-0.131923
C	 3.0051688584	-2.2071294923	-2.2658994963	-0.399297
C	 1.2819943968	-3.9629188578	-2.5281027897	 0.26423
N	 1.1149410261	-5.1005192946	-2.6453794627	-0.321942
H	 0.887610574	 1.8917598139	-0.0277133848	 0.144865
H	-0.7786691799	 1.7163351571	-0.6207178948	 0.145592
H	-0.4370867573	 1.5476317533	 1.1324119759	 0.140025
H	 1.1486428585	-2.3373915476	-0.2132267594	 0.147086
H	-0.3182183597	-2.4055194015	-1.1652347068	 0.156778
H	 1.1030717809	-2.0243615037	-3.2598525624	 0.149324
H	 3.1444270142	-1.1261743536	-2.2055100854	 0.147281
H	 3.4410702212	-2.6761969119	-1.3788577665	 0.13209
H	 3.5387233658	-2.5776499833	-3.1441700561	 0.140253
38.0022	67.1497	113.6272	122.8272	171.2575	192.3158	229.1202	268.0738	305.5634	343.9933	405.407	544.5343	561.6223	603.7781	708.8252	831.383	900.4579	908.6167	943.363	1019.9547	1080.6163	1097.1732	1142.0981	1178.5892	1200.2052	1217.5235	1251.6786	1301.4952	1337.4818	1385.3572	1409.746	1456.3199	1474.5404	1482.3431	1496.176	1497.3192	1504.1545	1812.9728	2358.4709	3051.5816	3054.6043	3056.3115	3060.6639	3100.0033	3127.1537	3132.3886	3145.0438	3165.6471
COC(=O)CC(C)C#N	COC(=O)C[C@@H](C)C#N	
InChI=1S/C6H9NO2/c1-5(4-7)3-6(8)9-2/h5H,3H2,1-2H3	InChI=1S/C6H9NO2/c1-5(4-7)3-6(8)9-2/h5H,3H2,1-2H3/t5-/m1/s1
