20
gdb 64807	2.61924	1.37339	1.1208	2.9113	80.13	-0.2598	0.0305	0.2903	1174.811	0.170312	-403.147111	-403.13834	-403.137396	-403.180637	33.831	
C	-0.2313851349	 1.7560548517	-0.4312915984	-0.437385
C	-0.0631006904	 0.2745626192	-0.1398070031	 0.376637
C	 0.9817473162	-0.4728233076	-1.0132666356	-0.406725
C	 1.7686573781	-0.569605101	 0.2721407847	 0.436761
N	 2.8795702075	-1.0528646921	 0.5975255072	-0.54656
O	 0.824261788	 0.0871523501	 1.0337369222	-0.287331
C	-1.3834726351	-0.4293049603	 0.0660264832	-0.026909
C	-1.4861480556	-1.7136121679	 0.8455796122	-0.284068
C	-2.0472689719	-0.4344783204	 1.4190204675	-0.269756
H	 0.7403000074	 2.2439661364	-0.5481847775	 0.125222
H	-0.8027037533	 1.8969822812	-1.3549263619	 0.122356
H	-0.7723445752	 2.2466413335	 0.3829011372	 0.133694
H	 0.6539528271	-1.4317806277	-1.4173478884	 0.136163
H	 1.4578982276	 0.1167059516	-1.7987487456	 0.130847
H	 3.0646472402	-0.9123042077	 1.5924511563	 0.224885
H	-2.0416068241	-0.3340926873	-0.7942047306	 0.088256
H	-2.1768131433	-2.4697032623	 0.4896301348	 0.112101
H	-0.5847399135	-2.1040795987	 1.3032839634	 0.129861
H	-1.4995208443	 0.0131881118	 2.2405300912	 0.129488
H	-3.1230157104	-0.3093094325	 1.4661503714	 0.112461
74.9687	85.9146	194.6509	227.2593	233.4704	313.3335	352.1908	407.0385	479.932	507.8409	539.4282	599.375	770.9667	796.4416	826.6808	847.0647	869.6229	874.4911	921.9298	947.1647	962.2744	986.8377	1021.1846	1052.4246	1067.5435	1089.6286	1091.1179	1134.3013	1154.2811	1196.7259	1201.9244	1225.1786	1245.817	1266.5154	1304.4238	1409.802	1410.6128	1458.8021	1461.1417	1485.612	1492.8295	1503.1964	1822.083	3039.1284	3085.2095	3110.9026	3121.2851	3135.9999	3138.9872	3141.3347	3143.78	3221.1579	3234.5963	3471.8115
CC1(CC(=N)O1)C1CC1	C[C@]1(C[C]([NH])O1)C1CC1	
InChI=1S/C7H11NO/c1-7(5-2-3-5)4-6(8)9-7/h5,8H,2-4H2,1H3	InChI=1S/C7H11NO/c1-7(5-2-3-5)4-6(8)9-7/h5,8H,2-4H2,1H3/t7-/m0/s1
