20
gdb 97909	3.49785	0.60912	0.58417	4.0229	86.72	-0.2452	0.0259	0.2711	1995.8846	0.168913	-403.14968	-403.138797	-403.137852	-403.188667	36.806	
C	 0.1292787279	 1.1792939793	-0.4997547344	-0.365758
C	-0.2402632962	 0.319020725	 0.722438285	-0.314391
C	-1.5464955666	-0.3201511676	 0.6001126727	 0.059478
C	-2.6288446536	-0.8324127065	 0.4696898611	 0.089514
C	-3.9400551918	-1.4694895826	 0.3263087493	-0.347259
N	-3.8740474749	-2.876553044	-0.0404094426	-0.016717
C	-3.2968867066	-3.8111896437	 0.9091177404	-0.344071
C	-4.2766783638	-3.3031799973	-1.2720672219	 0.158542
O	-4.2318420111	-4.4465690894	-1.6725662812	-0.340012
H	 1.1144149953	 1.6339463434	-0.3606105648	 0.117554
H	 0.1542792673	 0.5723061169	-1.408603724	 0.131797
H	-0.601598759	 1.9788459942	-0.6475688586	 0.129055
H	 0.5245249052	-0.4534955488	 0.8729763527	 0.134025
H	-0.2234857013	 0.9383738472	 1.6282904506	 0.132034
H	-4.502952537	-1.3671132095	 1.2652919957	 0.135397
H	-4.5250544606	-0.9514784061	-0.4429054333	 0.142946
H	-3.880223285	-3.8281067835	 1.8378324497	 0.1221
H	-3.3126824278	-4.7997272155	 0.4506692048	 0.168058
H	-2.2660098301	-3.5305859641	 1.1503551543	 0.136317
H	-4.6702615704	-2.4669433873	-1.8836514952	 0.071391
10.0564	37.7246	76.0746	128.6119	144.2979	179.7916	236.166	289.2199	316.5431	331.3253	348.2322	383.7755	468.7093	525.1212	708.3317	749.9016	784.2623	874.4583	960.7279	977.5814	1026.3237	1077.863	1087.8466	1104.1899	1158.4993	1160.6299	1239.6442	1268.8344	1286.3606	1349.7542	1379.5205	1410.1392	1431.1396	1438.6722	1443.3815	1473.306	1473.8213	1494.8985	1495.8623	1505.5436	1520.6297	1798.3255	2365.369	2933.4857	3001.1047	3022.8475	3024.9162	3046.2271	3050.6359	3055.7515	3080.9832	3120.1357	3125.6793	3161.0548
CCC#CCN(C)C=O	CCC#CCN(C)C=O	
InChI=1S/C7H11NO/c1-3-4-5-6-8(2)7-9/h7H,3,6H2,1-2H3	InChI=1S/C7H11NO/c1-3-4-5-6-8(2)7-9/h7H,3,6H2,1-2H3
