16
gdb 77054	3.20353	1.03851	0.84841	3.1771	71.04	-0.252	-0.0031	0.2489	1321.1377	0.123059	-437.86655	-437.857494	-437.85655	-437.900993	32.549	
N	 0.1513225059	 1.4890476477	 0.1862999022	-0.512858
C	 0.0601458088	 0.0589717965	 0.0223454895	-0.189331
C	-1.3254472086	-0.6334432975	 0.1534913433	 0.129308
C	-2.5476269306	 0.2780582699	 0.1817247304	-0.36476
C	-3.8046010911	-0.4586624098	 0.1908580664	 0.285652
C	-4.8308878277	-1.0825470069	 0.206722268	-0.415309
O	-1.1270500726	-1.2681678085	-1.1543124523	-0.248085
C	 0.0503004072	-0.5961438087	-1.3771666015	 0.419448
O	 0.7103836064	-0.5841974178	-2.3656943136	-0.321837
H	 1.1135389531	 1.7754419186	 0.3212185575	 0.250528
H	-0.190799156	 1.9826991768	-0.6312909241	 0.246348
H	 0.802163945	-0.4245171956	 0.663083899	 0.125199
H	-1.395013444	-1.4033816308	 0.9247715916	 0.109586
H	-2.4663702884	 0.9135741695	 1.0723742889	 0.153675
H	-2.5160392409	 0.9531337016	-0.6823219994	 0.131979
H	-5.7421485367	-1.6275487351	 0.213119224	 0.200457
56.06	98.5573	122.2911	182.0276	222.0403	242.032	334.281	364.5544	448.5051	506.0788	567.5736	626.1479	650.1124	702.975	763.4871	809.6184	846.3294	865.0367	947.6469	973.1713	991.9606	1081.9865	1125.4496	1175.6676	1197.1287	1221.8664	1231.7672	1286.7406	1341.3214	1399.2647	1426.9551	1452.4158	1672.9027	1932.3337	2245.2676	3029.4219	3064.6156	3084.0192	3099.7873	3506.6955	3520.4623	3600.1746
NC1C(CC#C)OC1=O	N[C@H]1[C@@H](CC#C)OC1=O	
InChI=1S/C6H7NO2/c1-2-3-4-5(7)6(8)9-4/h1,4-5H,3,7H2	InChI=1S/C6H7NO2/c1-2-3-4-5(7)6(8)9-4/h1,4-5H,3,7H2/t4-,5+/m1/s1
