13
gdb 129020	4.22478	1.65601	1.18969	1.5095	76.1	-0.2175	-0.0947	0.1228	928.3578	0.093258	-411.776975	-411.771114	-411.77017	-411.807153	23.308	
N	 0.0256228397	 1.3244034588	 0.0092871732	-0.317786
N	 1.1114767767	 2.0955492269	 0.003003328	-0.061051
N	 2.2841184023	 1.5311144875	-0.0114449677	-0.232676
C	 2.4124122458	 0.1773847857	-0.0201000988	-0.066122
C	 1.3354554604	-0.6708560403	-0.014360306	 0.225206
C	 1.0368254111	-2.0511180545	-0.0192009003	-0.164124
N	-0.2840906507	-2.2458690269	-0.007239219	-0.221073
C	-0.9246336069	-1.0340653364	 0.0056498465	-0.165714
C	 0.0177969417	-0.0278039661	 0.0019507508	 0.34014
H	-0.8301296182	 1.8661124684	 0.0205930212	 0.292895
H	 3.4413636468	-0.1688127458	-0.0320662745	 0.144171
H	 1.7319549294	-2.8785754784	-0.0305964236	 0.115919
H	-2.0019767282	-0.966897429	 0.0165492002	 0.110216
198.9494	232.5356	389.9436	403.6528	575.6129	614.9878	615.6209	658.3708	736.9812	784.2035	786.7137	790.9001	829.3048	890.3536	930.9294	982.7206	1067.11	1086.9744	1153.938	1178.0035	1257.0037	1288.3618	1316.0957	1355.1388	1398.79	1452.4315	1497.0817	1593.8225	1627.1405	3185.3193	3232.979	3244.2331	3579.4138
N1N=NC=C2C=NC=C12	[nH]1nncc2cncc12	
InChI=1S/C5H4N4/c1-4-2-7-9-8-5(4)3-6-1/h1-3H,(H,7,8)	InChI=1S/C5H4N4/c1-4-2-7-9-8-5(4)3-6-1/h1-3H,(H,7,8)
