19
gdb 85626	3.25136	1.07477	0.91332	1.0625	88.11	-0.2314	-0.0234	0.2079	1319.9469	0.158084	-385.876766	-385.867672	-385.866728	-385.91029	34.96	
C	-0.127137118	 1.5962739899	 0.0868173403	-0.394103
C	 0.0767675966	 0.0807042229	 0.023914501	-0.039455
C	 0.8970362009	-0.4209329642	-1.1424325032	-0.186469
C	 1.6708296304	-1.4672363106	-0.8056522406	 0.174159
C	 1.476496881	-1.8189131718	 0.6646979496	-0.337483
C	 0.8338278447	-0.5366466228	 1.2399133822	 0.108701
O	 1.815298378	 0.3403899106	 1.7716107112	-0.429395
C	 2.5254025051	-2.204993952	-1.6581674718	 0.172445
C	 3.270395829	-2.8598033159	-2.3432108169	-0.396465
H	 0.8259595934	 2.1255174311	 0.1600430461	 0.116972
H	-0.6492693945	 1.9520051321	-0.807195226	 0.111264
H	-0.7253966439	 1.8729577406	 0.960192029	 0.120353
H	-0.9167228856	-0.3942536653	-0.0261676978	 0.08885
H	 0.8322155295	-0.0006234005	-2.1397470793	 0.100954
H	 0.8094669553	-2.6855936203	 0.7611296392	 0.116228
H	 2.4066513848	-2.0652669245	 1.1847416091	 0.118245
H	 0.1600995256	-0.7438484745	 2.0752070081	 0.082366
H	 2.4685765952	 0.4995335174	 1.0800885755	 0.281861
H	 3.9201865726	-3.4292997423	-2.9601626557	 0.190973
95.4599	116.454	151.6225	212.1821	266.8472	284.8872	366.2288	396.3145	409.8334	497.1522	540.8519	541.0223	582.5882	597.9903	634.3662	717.0318	822.562	876.0177	888.1727	894.8999	929.7605	993.4785	1015.124	1063.8749	1107.3601	1120.7571	1170.0788	1185.8202	1249.0164	1260.703	1272.0155	1319.3283	1332.7528	1353.8795	1411.5833	1433.4492	1477.4108	1494.2329	1495.9841	1657.7882	2220.5936	2968.7804	3026.5613	3041.8544	3084.4875	3090.3005	3107.1221	3123.2136	3198.2435	3503.778	3789.0191
CC1C=C(CC1O)C#C	C[C@H]1C=C(C[C@H]1O)C#C	
InChI=1S/C8H10O/c1-3-7-4-6(2)8(9)5-7/h1,4,6,8-9H,5H2,2H3	InChI=1S/C8H10O/c1-3-7-4-6(2)8(9)5-7/h1,4,6,8-9H,5H2,2H3/t6-,8+/m0/s1
