17
gdb 32965	3.57498	0.90353	0.74571	5.5929	77.65	-0.1838	-0.0091	0.1746	1472.9381	0.135378	-455.157264	-455.148084	-455.14714	-455.191835	33.15	
N	-0.0327076546	 1.9445369147	 0.6880934644	-0.515926
H	 0.8943551704	 1.6152007863	 0.4346099129	 0.246165
H	-0.0816494911	 2.5589228725	 2.3658821835	 0.310917
H	-0.3810870313	 2.4865942028	-0.0953491488	 0.249713
C	-0.9235857809	 0.8017494401	 0.9839431533	-0.169679
C	-0.5803769427	 0.2182015325	 2.3633659943	-0.294127
C	-0.7968876912	 1.1921270687	 3.4965982912	 0.392851
N	-1.3611054701	 0.8257512222	 4.5781397231	-0.304803
C	-1.5245954593	 1.7457630154	 5.6219170882	-0.300626
C	-1.168083815	 3.0237777935	 5.6724360541	 0.431222
O	-0.9031286402	 4.1476347051	 5.8321174113	-0.24323
O	-0.3422392213	 2.4523181247	 3.3170787624	-0.417271
H	-1.9518403767	 1.1779886248	 0.9873972564	 0.130652
H	-0.867119448	 0.0115924635	 0.2229740768	 0.105704
H	-1.1793283647	-0.6714807774	 2.5636554314	 0.13591
H	 0.4738395355	-0.0979567442	 2.3525656147	 0.113153
H	-2.0113551388	 1.3832748449	 6.5214108709	 0.129374
71.7444	77.4809	111.4355	195.1187	242.7947	297.5766	314.3642	332.8084	390.8331	480.1441	529.4115	559.5708	622.8792	683.6641	733.4185	834.8963	884.3014	892.4524	918.6586	974.5851	1018.6523	1039.0478	1076.8681	1141.3081	1200.3801	1256.9774	1290.2937	1318.0916	1370.6298	1393.7828	1411.0183	1467.2673	1477.0239	1509.5905	1649.6527	1750.5273	2183.3073	2998.3406	3009.1534	3079.9818	3125.8132	3174.3899	3250.4843	3500.4483	3582.9952
[NH3+]CCC1=NC=C([O-])O1	NCCC(=N[CH][C][O])O	
InChI=1S/C5H8N2O2/c6-2-1-4-7-3-5(8)9-4/h3,8H,1-2,6H2	InChI=1S/C5H8N2O2/c6-2-1-5(9)7-3-4-8/h3H,1-2,6H2,(H,7,9)
