21
gdb 71992	1.82461	1.78989	1.68349	1.897	82.84	-0.216	0.0786	0.2946	1055.801	0.1807	-387.04508	-387.035893	-387.034949	-387.078258	35.194	
C	-0.0959025986	 1.4816879607	-0.0471292016	-0.508189
C	 0.0273406583	-0.013090946	-0.0329986584	 0.194232
C	 0.9602222714	-0.8788994566	-0.8844075558	-0.286873
C	 0.1237672994	-2.0702488249	-0.3647637435	 0.024589
O	 0.4483429876	-2.1227311202	 1.0513583657	-0.333176
C	-0.3073926855	-0.911690772	 1.1885126664	 0.38509
C	-0.6665545747	-0.4564733401	 2.5626729715	-0.511169
C	-1.0771834981	-1.0846277263	-0.0852175346	 0.186004
C	-2.5228465377	-1.0600990566	-0.4613545896	-0.533384
H	 0.8138304979	 1.9588060444	 0.3364343135	 0.123774
H	-0.2641543154	 1.8591559551	-1.0626219158	 0.118589
H	-0.9318855424	 1.8266516919	 0.5707899342	 0.11605
H	 0.8003069621	-0.6990326971	-1.9521477365	 0.094192
H	 2.0315818916	-0.901321781	-0.6564355381	 0.092916
H	 0.1039483894	-3.0472996081	-0.8446107547	 0.079583
H	 0.2355882767	-0.2323316741	 3.1425599201	 0.132432
H	-1.2792897538	 0.4485372978	 2.5277263074	 0.12353
H	-1.2288886265	-1.2309791268	 3.0939024905	 0.130138
H	-3.0228844241	-0.1900456327	-0.0216719621	 0.122799
H	-2.6587545168	-1.0002909959	-1.5477054538	 0.12168
H	-3.046518561	-1.9559892014	-0.1084091448	 0.127194
148.1042	164.4639	172.0121	181.5869	190.766	241.2884	257.031	347.0977	361.5979	474.4535	556.5619	612.4929	637.0174	660.0584	735.1479	773.1045	838.8907	891.5308	923.9841	930.1064	939.7612	1003.6184	1076.8798	1087.4096	1103.4361	1126.9294	1128.957	1159.6692	1165.3893	1210.9372	1238.5148	1278.9423	1306.9827	1347.0419	1410.0835	1411.9978	1420.7445	1469.6961	1474.7315	1485.0548	1487.4243	1489.3806	1494.6768	1496.1532	1523.1226	3018.2649	3020.1874	3034.4038	3035.9132	3076.6302	3077.8512	3087.3471	3089.5499	3094.1436	3097.3411	3117.4269	3134.0675
CC12CC3OC1(C)C23C	C[C@@]12C[C@H]3O[C@]1(C)[C@@]23C	
InChI=1S/C8H12O/c1-6-4-5-7(6,2)8(6,3)9-5/h5H,4H2,1-3H3	InChI=1S/C8H12O/c1-6-4-5-7(6,2)8(6,3)9-5/h5H,4H2,1-3H3/t5-,6+,7-,8+/m1/s1
