23
gdb 111628	2.10404	1.46887	1.11397	0.1615	91.14	-0.2155	0.03	0.2455	1255.1089	0.206308	-351.16785	-351.158647	-351.157703	-351.201657	35.607	
C	-0.2584267909	 1.4868154194	-0.1228733134	-0.376251
C	 0.1750481671	 0.0313019778	 0.0913449877	-0.203009
C	 0.7462028946	-0.5937455636	-1.163372734	 0.012658
C	 0.9229789476	-2.076205388	-1.381367095	-0.090174
C	 0.12161824	-3.0632340967	-0.5272996083	-0.272018
C	-1.3167731718	-2.7689546105	-0.892909373	-0.178949
C	-1.4269261982	-1.8263722356	-1.8371771374	 0.344741
C	-2.6881825261	-1.3020392152	-2.4506045929	-0.502064
C	-0.0804558719	-1.3065604897	-2.2315983344	-0.156384
H	 0.5812326094	 2.105759394	-0.4587116463	 0.11058
H	-1.042507114	 1.555509846	-0.8844058019	 0.117175
H	-0.6475310018	 1.9267021135	 0.800859262	 0.107815
H	 0.934269226	-0.0096666927	 0.8840636386	 0.092054
H	-0.6768336302	-0.5540283137	 0.4503572316	 0.103712
H	 1.5580861747	-0.0064568782	-1.5909078276	 0.076504
H	 1.8638416926	-2.4125164135	-1.8022212014	 0.078611
H	 0.3939594662	-4.1006787638	-0.7637579939	 0.102495
H	 0.3099266584	-2.9384948508	 0.5480529325	 0.104782
H	-2.1545119663	-3.261118588	-0.4092963853	 0.081012
H	-3.5711351211	-1.8118336323	-2.0555018687	 0.120838
H	-2.804199211	-0.2260594761	-2.2694975869	 0.128286
H	-2.6808792582	-1.433011448	-3.5403988189	 0.123391
H	 0.1044368748	-1.0578411245	-3.2725155431	 0.074197
73.8661	122.4354	173.3005	188.2484	218.3502	266.8193	291.2889	322.8744	419.7634	507.9311	583.6097	616.3299	708.8094	758.9064	792.9799	799.6516	821.439	857.5457	919.5281	945.5426	975.3568	983.5149	997.2476	1035.0647	1043.4722	1059.356	1079.7281	1098.6431	1122.7694	1134.7328	1182.4482	1188.8322	1229.2916	1272.7993	1297.2453	1317.4847	1338.2239	1369.3951	1378.8238	1407.1392	1414.7466	1438.775	1478.8465	1482.4506	1487.1215	1491.2988	1497.7301	1506.1163	1704.9205	3008.905	3016.9746	3017.8585	3029.2147	3030.7421	3062.3837	3072.9602	3097.6147	3102.0489	3109.1835	3111.3139	3146.4613	3168.4813	3181.7445
CCC1C2CC=C(C)C12	CC[C@H]1[C@H]2CC=C(C)[C@@H]12	
InChI=1S/C9H14/c1-3-7-8-5-4-6(2)9(7)8/h4,7-9H,3,5H2,1-2H3	InChI=1S/C9H14/c1-3-7-8-5-4-6(2)9(7)8/h4,7-9H,3,5H2,1-2H3/t7-,8+,9-/m0/s1
