15
gdb 44514	4.66422	1.44299	1.26013	3.6288	64.93	-0.2574	0.0414	0.2989	951.5366	0.115908	-453.921351	-453.915018	-453.914074	-453.952183	25.413	
O	 0.0102460333	-0.0523401344	 0.0485201424	-0.386377
C	-0.0268224012	 1.148429543	 0.0132558485	 0.478012
N	-1.1642539798	 1.9108221174	 0.0370639321	-0.393427
C	-1.1217776309	 3.3435683776	-0.0085509028	 0.084861
C	-0.0931286444	 3.9618269517	-0.9981584456	-0.107809
N	-0.0839096912	 5.1808433982	-0.1081990388	-0.31937
C	-0.0158453673	 4.0185525599	 0.8522961871	-0.107848
C	 0.9944623122	 3.3061415595	-0.0957808298	 0.137018
O	 1.1195921207	 1.8928653912	-0.0576707596	-0.27024
H	-2.0343340227	 1.4098673402	 0.0892412105	 0.265761
H	-2.1127258399	 3.7935840053	 0.0190037244	 0.10657
H	-0.1428172851	 4.0195581478	-2.0853774383	 0.097252
H	 0.8351225765	 5.6320231845	-0.160413397	 0.219367
H	 0.0250715891	 4.1427792668	 1.9343040472	 0.097249
H	 2.0047525108	 3.7159640613	-0.1505531603	 0.098982
89.5323	294.611	349.4044	417.3034	460.0447	488.7347	501.257	663.9903	770.9556	784.5667	795.5132	852.4492	867.3345	887.3726	903.2803	921.2677	1013.9439	1021.3386	1074.9242	1104.1684	1125.9718	1154.6211	1159.6769	1173.5084	1198.046	1251.1982	1262.9053	1296.3569	1300.0458	1401.1417	1408.7966	1452.2113	1871.007	3105.0296	3122.0388	3125.2273	3142.2136	3390.5603	3675.3225
O=C1NC2C3NC2C3O1	O=C1N[C@@H]2[C@H]3N[C@@H]2[C@H]3O1	
InChI=1S/C5H6N2O2/c8-5-7-1-2-4(9-5)3(1)6-2/h1-4,6H,(H,7,8)	InChI=1S/C5H6N2O2/c8-5-7-1-2-4(9-5)3(1)6-2/h1-4,6H,(H,7,8)/t1-,2-,3+,4+
