20
gdb 10881	2.69432	1.87977	1.66192	1.1881	75.54	-0.251	0.0808	0.3318	938.4747	0.176417	-348.959951	-348.951556	-348.950612	-348.992111	32.5	
C	-0.1108333607	 1.6397633418	 0.1702095072	-0.445266
C	 0.0158072164	 0.1234625686	 0.120592631	 0.025657
C	 1.1533916655	-0.5990699062	-0.6791962327	-0.083091
C	 2.1514779151	-0.165483589	 0.4333729926	-0.303965
C	 0.8615407095	-0.6620168522	 1.1604653667	 0.37765
O	 0.5745277321	-0.6566107935	 2.5150909814	-0.475108
C	 0.8794180613	-1.8835464667	 0.1722590976	-0.006562
C	-0.327653739	-2.784634584	-0.04040941	-0.445032
H	 0.83944829	 2.161263963	 0.3041655981	 0.116463
H	-0.5647438636	 2.013018244	-0.7545284869	 0.112751
H	-0.7661102019	 1.9331041815	 0.9974566561	 0.125483
H	-0.9760156224	-0.3027362334	-0.0450921576	 0.06311
H	 1.326012489	-0.5592231923	-1.7530720237	 0.072783
H	 3.0437104094	-0.7888817355	 0.5464277511	 0.081336
H	 2.4004607425	 0.892321704	 0.5074851274	 0.094305
H	 1.252799711	-1.1642935836	 2.9735698762	 0.280543
H	 1.7783149682	-2.5020141321	 0.2886332625	 0.053484
H	-1.2629782092	-2.2439981829	-0.2008233534	 0.122782
H	-0.1703849651	-3.4356068428	-0.9075132811	 0.114911
H	-0.4712326581	-3.4324656187	 0.8316661675	 0.117766
146.4867	160.1862	193.2748	199.9017	245.9425	256.4031	380.6077	407.8006	437.5077	556.1366	612.3723	646.2944	745.5915	765.2397	804.4799	845.6968	919.9118	947.6947	1004.7454	1012.7884	1037.5691	1061.4362	1085.1203	1104.9105	1141.4381	1149.1915	1151.9777	1166.3339	1213.3596	1224.86	1232.274	1294.713	1353.3835	1400.3157	1411.3829	1425.0946	1435.0284	1495.751	1497.1728	1499.1337	1502.9163	1534.174	3020.3889	3034.8782	3035.873	3057.7819	3077.9933	3088.3322	3092.2021	3117.0147	3122.8275	3133.2905	3143.9947	3807.0557
CC1C2CC1(O)C2C	C[C@H]1[C@H]2C[C@]1(O)[C@H]2C	
InChI=1S/C7H12O/c1-4-6-3-7(4,8)5(6)2/h4-6,8H,3H2,1-2H3	InChI=1S/C7H12O/c1-4-6-3-7(4,8)5(6)2/h4-6,8H,3H2,1-2H3/t4-,5-,6-,7-/m0/s1
