19
gdb 107075	4.46012	0.92779	0.90183	4.1564	80.44	-0.2697	0.023	0.2926	1356.7777	0.159744	-382.053232	-382.044446	-382.043501	-382.08709	32.627	
C	 0.0730165884	 1.5046849722	-0.2702643041	-0.381656
C	 0.0241282693	 0.0292894523	 0.1495892764	-0.281009
C	-1.3788215039	-0.5031572366	 0.2061527533	 0.365219
C	-2.4297659868	-0.1613104019	 1.2814193031	-0.314192
C	-2.9908395434	-1.6267099297	 1.1551796125	-0.166691
C	-4.3857237167	-1.7810578411	 0.7651843943	 0.273532
N	-5.4872188676	-1.877206382	 0.4256155693	-0.330209
C	-1.9326221362	-1.8958455584	 0.0580882797	-0.115825
N	-2.0293374533	-0.9347766558	-1.0256922348	-0.349992
H	 1.1044790349	 1.8663812178	-0.3089473895	 0.118158
H	-0.3712796705	 1.6378512489	-1.2613170161	 0.132278
H	-0.4756497279	 2.1397727358	 0.4337512473	 0.116808
H	 0.5935238388	-0.5778375273	-0.5619230548	 0.116025
H	 0.4976251494	-0.0962730257	 1.1316725532	 0.097746
H	-2.0080602407	 0.0171937014	 2.2728765538	 0.121285
H	-3.1245042463	 0.6467946296	 1.0373859399	 0.120965
H	-2.8002561431	-2.2024096585	 2.0640233777	 0.129562
H	-1.4528017781	-2.8506549351	-0.1233347595	 0.108898
H	-2.9703326364	-0.570296146	-1.1668546316	 0.239099
72.9655	85.0486	132.1347	207.541	225.199	286.7538	348.1176	403.4185	448.5831	529.4481	607.5056	666.8016	737.305	787.1309	810.4508	849.4256	916.5208	946.3288	975.6165	988.6995	1008.0332	1037.4154	1068.8059	1105.1044	1125.0669	1134.0781	1181.47	1193.2734	1239.5596	1262.3635	1271.1599	1320.0752	1333.191	1354.2533	1408.5266	1449.1214	1475.537	1489.2214	1500.0317	1509.5329	2349.4355	3028.0625	3036.8741	3063.6078	3075.2637	3086.1619	3106.4578	3116.0196	3122.4295	3181.7838	3462.5248
CCC12CC(C#N)C1N2	CC[C@]12C[C@@H](C#N)[C@H]1N2	
InChI=1S/C7H10N2/c1-2-7-3-5(4-8)6(7)9-7/h5-6,9H,2-3H2,1H3	InChI=1S/C7H10N2/c1-2-7-3-5(4-8)6(7)9-7/h5-6,9H,2-3H2,1H3/t5-,6+,7-/m0/s1
