18
gdb 43630	5.3974	0.84481	0.77011	2.0066	72.76	-0.2534	0.0305	0.2839	1431.0695	0.148055	-439.080433	-439.071979	-439.071035	-439.115067	30.358	
O	 0.0779142238	-0.0529985751	 0.2405439871	-0.35279
C	-0.001060057	 1.136736143	 0.1048830046	 0.431586
C	-1.140488238	 2.1843712116	 0.0410751437	-0.41573
C	-0.0056788295	 3.2492863255	-0.0700452345	 0.045557
N	 0.9445352559	 2.1260789478	-0.0425998859	-0.332475
C	 0.0292308119	 4.0989321397	-1.3264795664	-0.038615
C	-0.8978953033	 5.3368084382	-1.3127494281	-0.085019
O	 0.2262616116	 6.2379700181	-1.271029744	-0.267503
C	 1.1617329813	 5.1507367369	-1.4075549113	-0.088943
H	-1.785205905	 2.0963750084	-0.8359116541	 0.13095
H	-1.7511906434	 2.2339621807	 0.9437185215	 0.136027
H	 0.0706458368	 3.8906109496	 0.8175898023	 0.091797
H	 1.9511849344	 2.0948587419	 0.0300223717	 0.250003
H	-0.0627823936	 3.4591817898	-2.2076066023	 0.084818
H	-1.5043558628	 5.4759276734	-2.2162264978	 0.104139
H	-1.5441466837	 5.4426698243	-0.4317752674	 0.10381
H	 1.8958081883	 5.1349395116	-0.5907305985	 0.0975
H	 1.6980284622	 5.1865914143	-2.3641570007	 0.104887
43.8635	68.151	76.2497	175.4881	315.3115	326.0975	398.745	408.4305	518.3183	565.9623	751.2527	781.4665	836.7075	882.8469	917.6526	957.2996	963.1465	979.4817	1024.0256	1042.2169	1051.8616	1079.4859	1102.7103	1157.3519	1165.097	1174.5533	1195.2803	1225.2743	1252.5114	1279.6672	1309.9744	1312.9438	1381.4754	1383.6528	1419.6273	1461.1006	1511.6965	1537.6176	1900.1232	3001.9607	3012.5992	3022.3012	3045.9082	3051.1193	3083.3611	3086.0938	3145.2779	3605.4184
O=C1CC(N1)C1COC1	O=C1C[C@@H](N1)C1COC1	
InChI=1S/C6H9NO2/c8-6-1-5(7-6)4-2-9-3-4/h4-5H,1-3H2,(H,7,8)	InChI=1S/C6H9NO2/c8-6-1-5(7-6)4-2-9-3-4/h4-5H,1-3H2,(H,7,8)/t5-/m1/s1
