15
gdb 28376	3.20682	1.42845	0.99433	2.1405	74.99	-0.2164	-0.0402	0.1762	1130.4715	0.112647	-453.984434	-453.976401	-453.975457	-454.017033	30.048	
C	 0.0093620033	 1.4995001157	 0.0577609002	-0.472262
C	-0.0852859346	 0.0184848074	-0.1040265253	 0.405197
N	 0.0643900586	-0.5824062815	-1.2203515904	-0.303869
C	-0.0528387901	-1.9645769951	-1.2160592495	-0.159477
C	-0.3128046547	-2.6839323258	-0.1011997509	 0.280014
O	-0.4376925125	-4.0271517355	-0.0354251288	-0.406067
C	-0.4818737592	-1.9900312497	 1.1723860698	 0.348447
N	-0.7247694033	-2.5601959146	 2.2745221429	-0.520873
O	-0.349930197	-0.6060721842	 1.0797361254	-0.255017
H	 0.8011819295	 1.7582745133	 0.7684419544	 0.147952
H	 0.2211092852	 1.9542852661	-0.9089964	 0.154697
H	-0.9277805592	 1.9019434099	 0.4564895501	 0.14798
H	 0.0784228633	-2.4512168095	-2.179157731	 0.103181
H	-0.3108050064	-4.3964269376	-0.9173481712	 0.303472
H	-0.8010705428	-1.8742642189	 3.0260620445	 0.226626
105.5366	140.2534	143.7522	298.0341	322.4222	365.8532	383.5598	435.1466	474.7163	529.7973	557.9895	649.7262	735.6611	759.8132	768.871	858.4379	896.1388	965.5448	977.1937	1062.4993	1069.9727	1187.2796	1208.2833	1234.336	1291.19	1342.8484	1410.1879	1471.8112	1473.4642	1474.7079	1642.4922	1686.9565	1755.8366	3045.1686	3100.5136	3159.2421	3167.5838	3492.0375	3801.6075
CC1=NC=C(O)C(=N)O1	CC1=NCC(=C([NH])O1)O	
InChI=1S/C5H6N2O2/c1-3-7-2-4(8)5(6)9-3/h2,6,8H,1H3	InChI=1S/C5H7N2O2/c1-3-7-2-4(8)5(6)9-3/h6,8H,2H2,1H3
