16
gdb 54802	2.62288	1.61615	1.08676	2.2788	71.27	-0.2576	-0.0267	0.2309	1084.6551	0.123235	-437.91427	-437.905903	-437.904959	-437.948089	30.044	
C	-0.1241105248	 1.4445678501	 0.0165790009	-0.487193
C	-0.0682449492	-0.0655433498	 0.0285719596	 0.371455
O	-0.198027447	-0.7552156758	 1.0152374535	-0.332826
N	 0.207230237	-0.6551777678	-1.2038333161	-0.152251
C	 0.1910332054	-2.0839116446	-1.5345718207	 0.011118
C	-1.0884797145	-2.4319551543	-2.2122606908	-0.284203
C	 0.015273886	-1.7210944623	-3.0035571325	-0.225744
C	 0.0704923509	-0.2699101989	-2.5677364071	 0.438107
O	 0.0393088598	 0.8051684745	-3.0905220221	-0.345552
H	 0.8961329348	 1.8420628955	-0.0158320966	 0.155891
H	-0.6405355598	 1.8250998996	-0.8672919496	 0.161051
H	-0.606406603	 1.7828997463	 0.9336402551	 0.145068
H	 0.8890989876	-2.7676367839	-1.0753067123	 0.138548
H	-1.2243550116	-3.4748039603	-2.4832320318	 0.137256
H	-2.0005402986	-1.9050710664	-1.9507628957	 0.138719
H	 0.4715713269	-2.1436006918	-3.8860213236	 0.130557
63.9271	92.9426	101.1144	178.5186	217.2128	368.2953	374.4773	470.4124	584.3684	610.0026	667.6538	694.2927	759.5658	816.3328	861.4912	915.8521	948.8943	965.8915	1015.8427	1036.4773	1057.9564	1081.4668	1093.9092	1124.3745	1178.7195	1188.9	1269.391	1317.593	1363.1256	1401.897	1463.012	1477.3019	1482.7267	1795.2656	1892.5797	3053.147	3121.8812	3126.1373	3166.791	3215.5673	3234.7282	3243.6956
CC(=O)N1C2CC2C1=O	CC(=O)N1[C@H]2C[C@H]2C1=O	
InChI=1S/C6H7NO2/c1-3(8)7-5-2-4(5)6(7)9/h4-5H,2H2,1H3	InChI=1S/C6H7NO2/c1-3(8)7-5-2-4(5)6(7)9/h4-5H,2H2,1H3/t4-,5+/m1/s1
