13
gdb 8778	3.16167	1.66296	1.09782	5.7102	64.88	-0.266	-0.1048	0.1612	1008.5637	0.093809	-394.802034	-394.793418	-394.792474	-394.835361	29.433	
C	 0.0819179451	 1.3964376149	 0.0473640449	-0.350091
N	 0.0264329754	-0.0514339564	 0.046111369	-0.266237
C	-1.121997453	-0.606369017	-0.0459590382	 0.30585
N	-2.3583277289	-0.0471781627	-0.1750839655	-0.562054
C	-1.1421234013	-2.1043728516	-0.0406362823	 0.263635
O	-2.1633497775	-2.7504995358	-0.0775676478	-0.294154
C	 0.1717204751	-2.7615900608	 0.0224715384	 0.27574
N	 1.1455833188	-3.3827314824	 0.0676955538	-0.314009
H	 1.1219475175	 1.7231241221	 0.0993886355	 0.143283
H	-0.3697283828	 1.8228026166	-0.8616164761	 0.128273
H	-0.4499561834	 1.8259071428	 0.9115723648	 0.121618
H	-2.4984898143	 0.9234611905	 0.0440702846	 0.269461
H	-3.1480879308	-0.6683676803	-0.0886119911	 0.278687
77.7115	128.46	134.2752	176.8479	243.1272	282.9254	316.002	335.1011	434.1163	491.5619	512.0192	599.2694	658.5262	759.3261	815.891	986.4624	1094.1509	1098.5859	1133.9124	1203.6577	1387.7505	1428.8326	1487.5772	1500.6337	1610.6982	1724.2105	1775.906	2345.1517	2971.401	3019.9403	3120.8246	3595.6271	3726.899
CN=C(N)C(=O)C#N	CN=C(N)C(=O)C#N	
InChI=1S/C4H5N3O/c1-7-4(6)3(8)2-5/h1H3,(H2,6,7)	InChI=1S/C4H5N3O/c1-7-4(6)3(8)2-5/h1H3,(H2,6,7)
