13
gdb 130463	2.45908	1.79057	1.03612	3.171	84.29	-0.2345	-0.082	0.1525	1047.955	0.089521	-415.626068	-415.618704	-415.61776	-415.65819	26.831	
O	-0.0522553129	 1.9044301995	 0.0130989173	-0.319407
C	 1.1111064087	 2.2639205836	 0.0036615071	 0.066495
C	 2.2405665518	 1.3630740789	-0.0122813941	 0.093269
C	 3.5940866483	 1.655101853	-0.0237978043	-0.197057
C	 4.3466286626	 0.4427351305	-0.0376569582	-0.111566
C	 3.4805811681	-0.6306639206	-0.0350442251	-0.206257
C	 2.1578764113	-0.0831150322	-0.0191419902	 0.312783
N	 1.0450044518	-0.7868420837	-0.0124326371	 0.118381
N	 0.11596398	-1.4213564681	-0.0066407734	-0.179813
H	 1.3806456256	 3.3422018549	 0.0066728111	 0.075222
H	 4.0087726835	 2.6544573199	-0.0224310221	 0.11579
H	 5.4251973758	 0.3744955653	-0.0484773964	 0.110544
H	 3.7208173255	-1.683181501	-0.0430609048	 0.121618
117.8835	135.2263	182.7771	225.3951	293.6319	453.3108	533.7015	556.5506	585.6285	638.1441	643.4724	751.8266	765.8177	841.9768	854.2572	904.2339	1034.3622	1048.4527	1085.9038	1191.1718	1245.7724	1333.0413	1380.8847	1396.6028	1448.7277	1460.7828	1569.568	1755.1931	2251.3083	2897.3236	3221.2327	3236.0131	3255.001
O1C=C2C=CC=C2N=N1	O=C[C@H]1C=CC=C1[N][N]	
InChI=1S/C6H4N2O/c1-2-5-4-9-8-7-6(5)3-1/h1-4H	InChI=1S/C6H5N2O/c7-8-6-3-1-2-5(6)4-9/h1-5H/t5-/m1/s1
