18
gdb 26846	2.85604	1.43482	0.96645	3.8274	86.96	-0.203	-0.0387	0.1643	1211.8876	0.147314	-401.998771	-401.9899	-401.988955	-402.032661	32.662	
C	 0.1833984319	 1.495404311	 0.0210324264	-0.476382
C	-0.054543688	 0.019240393	-0.0005796652	 0.30853
C	-1.2290891449	-0.6513797646	 0.0417236935	 0.118505
C	-2.588229736	-0.0061616485	 0.1226499145	-0.499042
C	-1.158526908	-2.0958616586	 0.0057884131	-0.099465
C	 0.0154029163	-2.7521676969	-0.0663282796	-0.168718
C	 1.2631231761	-2.0221053575	-0.1108712192	 0.376788
N	 2.4097549066	-2.5680806504	-0.1791736799	-0.54298
O	 1.1423839072	-0.6351512271	-0.0737811971	-0.280041
H	 0.8116387737	 1.7622044616	 0.8781189205	 0.146168
H	 0.7259571314	 1.8017618326	-0.8802096452	 0.146168
H	-0.7436703676	 2.0634234704	 0.0789913129	 0.13431
H	-3.2079531728	-0.2937354313	-0.7352639643	 0.133038
H	-3.121960767	-0.3331275932	 1.023203574	 0.133039
H	-2.5440133314	 1.0830476959	 0.1448849153	 0.127326
H	-2.0908647774	-2.6527816346	 0.0388141309	 0.105756
H	 0.0886576895	-3.8313719086	-0.0941805329	 0.121435
H	 3.1431469604	-1.8588741032	-0.1990566177	 0.215566
79.6771	93.1156	106.9999	172.5323	281.9142	311.3087	328.2504	409.6492	469.1169	479.5689	560.8905	583.7224	711.5386	722.2765	763.8097	830.4899	859.5355	874.0981	968.3203	1003.3224	1022.0143	1052.9829	1069.0451	1094.3633	1149.6091	1170.7948	1222.1965	1258.7698	1344.4902	1409.6837	1425.4233	1441.0665	1469.5862	1482.3364	1483.2763	1497.5376	1619.6833	1690.1004	1743.4686	3025.9336	3039.5629	3070.4266	3088.8262	3136.9197	3163.2686	3168.4871	3225.9998	3487.5742
CC1=C(C)C=CC(=N)O1	C[C@@H]1C(=CC=C([NH])O1)C	
InChI=1S/C7H9NO/c1-5-3-4-7(8)9-6(5)2/h3-4,8H,1-2H3	InChI=1S/C7H10NO/c1-5-3-4-7(8)9-6(5)2/h3-4,6,8H,1-2H3/t6-/m1/s1
