18
gdb 36142	3.8669	1.10652	0.98617	1.3995	76.78	-0.2486	0.0492	0.2979	1219.3461	0.148057	-401.892478	-401.884277	-401.883333	-401.925536	31.362	
C	-0.0577516361	-1.1713204119	-0.3904657741	-0.454817
C	-0.0425914079	 0.0010038425	-0.1266578059	 0.308598
C	 0.0063017007	 1.4228568119	 0.2056450358	-0.436856
C	 1.4140043118	 1.9865026531	 0.1653627678	 0.318974
C	 2.4898250686	 1.3956412053	 1.067310059	-0.147307
O	 3.5609940487	 2.334928788	 1.0444659858	-0.258357
C	 2.9982347741	 3.6359984134	 0.8924059079	-0.108006
C	 1.7537139675	 3.4290277116	 0.0486880283	-0.102291
N	 1.8912528327	 2.5331777234	-1.108322072	-0.361719
H	-0.082776556	-2.2051386938	-0.6312596123	 0.198039
H	-0.6130812489	 1.9897149473	-0.4976437487	 0.145167
H	-0.4206119146	 1.5775046375	 1.205785855	 0.130241
H	 2.0900180408	 1.2609023668	 2.086099947	 0.095916
H	 2.8814898555	 0.4348139369	 0.7204788657	 0.124295
H	 2.7248718702	 4.0776156757	 1.8648232345	 0.09826
H	 3.7599811307	 4.2699509706	 0.4263661418	 0.115951
H	 1.0151407091	 4.2204797368	-0.0319870177	 0.096239
H	 2.872300723	 2.2951208451	-1.2498747477	 0.237673
60.2114	107.2511	225.5711	257.2087	298.7581	342.7714	391.971	419.0165	450.9449	621.0934	643.0992	671.1937	708.7608	769.0199	866.8963	884.2326	926.9733	942.7703	957.6151	976.0761	1026.7812	1065.5548	1073.1263	1106.6882	1129.6348	1178.8391	1202.071	1233.1952	1256.2036	1295.414	1318.4792	1334.3249	1365.07	1372.2114	1454.9621	1456.7543	1506.0767	1518.6383	2239.3552	2969.6694	2975.9763	3020.521	3070.2051	3072.6316	3085.2116	3162.837	3471.1589	3506.4573
C#CCC12COCC1N2	C#CC[C@]12COC[C@H]1N2	
InChI=1S/C7H9NO/c1-2-3-7-5-9-4-6(7)8-7/h1,6,8H,3-5H2	InChI=1S/C7H9NO/c1-2-3-7-5-9-4-6(7)8-7/h1,6,8H,3-5H2/t6-,7+/m1/s1
