12
gdb 21358	5.48549	2.20725	1.57393	4.8924	61.99	-0.22	-0.0135	0.2065	726.0851	0.087396	-377.520764	-377.515322	-377.514378	-377.550081	21.485	
N	-0.0280863628	 1.404577543	 0.0103847038	-0.404875
C	 1.287540922	 1.8214936265	-0.0002195129	-0.044241
C	 2.1447883554	 0.7358248361	-0.0146442604	-0.330308
C	 1.2848842785	-0.3883892875	-0.0124590887	 0.415763
C	-0.0307343215	 0.0302838286	 0.0027599026	 0.197382
C	-0.7796057526	-1.1661000231	 0.003436808	-0.098624
N	 0.0199764321	-2.2141560304	-0.0102032693	-0.146275
O	 1.3450904118	-1.730232439	-0.0204982345	-0.241132
H	-0.8264381701	 2.0128934814	 0.0216103433	 0.2704
H	 1.5215398641	 2.8747798411	 0.0033310337	 0.132139
H	 3.2210712621	 0.7724111985	-0.024991437	 0.119754
H	-1.846293049	-1.3362562553	 0.0129436515	 0.130016
223.946	332.6136	379.0211	463.0197	609.3939	615.7064	686.4964	722.8308	753.7711	756.0846	822.9892	873.5323	879.6962	923.5516	975.9223	1074.9853	1110.7558	1187.7457	1222.0923	1293.6022	1386.8094	1427.3922	1473.7237	1493.8765	1581.4125	1608.6184	3248.1706	3256.8475	3280.015	3697.7263
N1C=CC2=C1C=NO2	[nH]1ccc2c1cno2	
InChI=1S/C5H4N2O/c1-2-6-4-3-7-8-5(1)4/h1-3,6H	InChI=1S/C5H4N2O/c1-2-6-4-3-7-8-5(1)4/h1-3,6H
