14
gdb 56420	4.10769	0.63235	0.5785	3.6075	76.51	-0.2775	-0.0153	0.2622	1820.7469	0.09769	-399.47718	-399.467367	-399.466423	-399.514652	33.499	
O	-0.8737571209	 0.7292022903	 0.2602349871	-0.382227
C	 0.1133936214	-0.185300539	-0.1779431849	-0.181348
C	 0.9656356551	 0.4131844364	-1.2369563439	 0.280006
N	 1.6156694152	 0.9000272475	-2.0581340742	-0.316495
C	 0.9494051235	-0.7115591565	 0.904093948	 0.090734
C	 1.6223544412	-1.1253172464	 1.8102502479	 0.097088
C	 2.4500310743	-1.6328341549	 2.9058222096	-0.494354
C	 1.8731301249	-2.7936594896	 3.5846506992	 0.312463
C	 1.4088573917	-3.7457408528	 4.1485194699	-0.431752
H	-0.4318282341	 1.4249311816	 0.7616317557	 0.300173
H	-0.4464071598	-1.0083495499	-0.6390665076	 0.172443
H	 3.4433437327	-1.8903528317	 2.513463434	 0.174826
H	 2.6193811305	-0.8270871173	 3.6330951578	 0.170597
H	 0.9957794744	-4.5885388778	 4.6455350413	 0.207846
7.0093	64.8235	101.297	139.6468	217.6045	270.6345	303.6814	321.2048	348.2981	384.338	469.5518	536.1314	588.9167	624.5164	632.7182	661.9044	802.2245	910.8444	931.0633	959.1695	1046.9604	1160.7692	1230.9879	1263.3724	1312.0713	1335.4271	1414.0289	1447.662	2251.0293	2360.2649	2377.7311	3014.1786	3040.1045	3046.3038	3504.7425	3799.8773
OC(C#N)C#CCC#C	O[C@@H](C#N)C#CCC#C	
InChI=1S/C7H5NO/c1-2-3-4-5-7(9)6-8/h1,7,9H,3H2	InChI=1S/C7H5NO/c1-2-3-4-5-7(9)6-8/h1,7,9H,3H2/t7-/m1/s1
