13
gdb 25103	3.16538	1.5192	1.13681	3.3537	70.59	-0.255	-0.084	0.171	1007.2636	0.091637	-448.957544	-448.950422	-448.949478	-448.989679	26.236	
N	-0.0246759066	 1.3729263895	-0.3458869349	-0.501055
C	 0.0054255519	 0.1580945721	 0.0230172987	 0.404541
N	-1.2415073567	-0.4841218753	 0.1966137515	-0.299033
C	-1.5688727941	-1.5329445622	 0.9967239423	 0.117267
N	-0.8745272502	-2.1670658155	 1.8702650554	-0.288105
C	 0.46645546	-1.9281680582	 2.1182607841	 0.343429
O	 0.9801511357	-2.0847698781	 3.2022811682	-0.305681
C	 1.3653461103	-1.5313415395	 0.9668818346	-0.064637
N	 1.1750744349	-0.6057294055	 0.1145015245	-0.22587
H	 0.9223494738	 1.688195399	-0.552611224	 0.243222
H	-2.0031935018	 0.0247710008	-0.2334724912	 0.278226
H	-2.6073524985	-1.8388255673	 0.8639778683	 0.144835
H	 2.3271330113	-2.0478201699	 0.9469214126	 0.152861
65.1468	125.7719	258.7814	332.4465	384.1917	417.1103	469.4882	555.6034	638.4099	658.7947	726.5206	752.7207	799.1767	876.1063	877.2899	907.8395	959.9283	1000.1782	1057.1853	1161.3613	1254.407	1341.5499	1395.1773	1461.9169	1491.8793	1678.4785	1714.9271	1732.2687	1784.1106	3117.5042	3131.0686	3510.1045	3586.5199
N=C1NC=NC(=O)C=N1	[NH][C]1NC=NC(=O)C=N1	
InChI=1S/C4H4N4O/c5-4-6-1-3(9)7-2-8-4/h1-2H,(H2,5,7,8,9)	InChI=1S/C4H4N4O/c5-4-6-1-3(9)7-2-8-4/h1-2H,(H2,5,7,8,9)
