19
gdb 84781	2.08995	1.57581	1.32044	2.728	76.37	-0.247	-0.0298	0.2172	1086.3724	0.157272	-423.047064	-423.037896	-423.036951	-423.081148	34.264	
C	-0.2015605775	 1.4824398303	 0.0656193887	-0.399938
C	 0.0680157518	-0.0237880823	 0.0454321878	-0.060513
C	 0.8996133948	-0.5246062114	-1.1174707354	-0.080788
C	 1.7362153764	-1.4963240083	-0.7564651686	-0.099015
C	 1.6099094123	-1.8164194031	 0.7153448173	-0.307302
C	 0.869080109	-0.5658454263	 1.2777673455	 0.267182
O	 1.7948003951	 0.383445735	 1.7875200256	-0.477724
C	-0.0328817448	-0.9101839906	 2.4531001474	 0.136917
O	-1.0129236123	-1.6042904667	 2.3658797734	-0.266202
H	 0.7254126526	 2.0605850935	 0.1027391842	 0.113107
H	-0.7506482411	 1.7785663945	-0.8338378244	 0.114643
H	-0.8044652574	 1.7659302258	 0.9336130367	 0.123791
H	-0.8971366622	-0.5499671237	 0.0395122744	 0.1113
H	 0.7708751181	-0.1441319938	-2.125232953	 0.097284
H	 2.395197816	-2.0443121109	-1.4204263689	 0.099601
H	 1.0147808325	-2.7260047084	 0.8674981402	 0.132555
H	 2.562991477	-1.9566375397	 1.2360833961	 0.112833
H	 2.428765165	 0.5780286768	 1.0884634148	 0.286202
H	 0.2974919748	-0.4656285907	 3.4167358182	 0.096066
51.8323	88.9975	193.7523	207.4854	252.4372	273.4135	300.2074	357.4776	388.1765	437.7863	523.5246	549.6286	688.2233	699.6424	766.8531	775.8706	856.5731	916.9704	949.0919	964.992	969.9339	1012.434	1048.7631	1085.1632	1105.8325	1125.9226	1143.0385	1150.3396	1224.5624	1276.5525	1292.4092	1335.1722	1364.6483	1374.4845	1408.5324	1417.3382	1472.2021	1492.4584	1496.175	1678.2766	1832.5552	2906.5726	3010.7624	3028.6211	3041.1421	3075.8029	3107.1212	3117.8942	3181.132	3207.2282	3808.5176
CC1C=CCC1(O)C=O	C[C@H]1C=CC[C@]1(O)C=O	
InChI=1S/C7H10O2/c1-6-3-2-4-7(6,9)5-8/h2-3,5-6,9H,4H2,1H3	InChI=1S/C7H10O2/c1-6-3-2-4-7(6,9)5-8/h2-3,5-6,9H,4H2,1H3/t6-,7-/m0/s1
