17
gdb 64795	2.55746	1.25353	0.97687	2.5618	75.31	-0.2617	-0.0625	0.1992	1229.578	0.132167	-421.783965	-421.774423	-421.773479	-421.819557	34.088	
C	 0.6196304832	 1.3466177097	 0.0943093794	-0.45956
C	-0.078145056	 0.0058590515	 0.0420655476	 0.415499
C	-1.5601430491	-0.003344571	 0.4192385738	-0.368212
C	-1.7536654182	 0.3804173553	 1.8818540983	 0.236209
O	-1.890656187	 1.5318017284	 2.2383329215	-0.285937
C	-1.7330673169	-0.7135312649	 2.8341084829	 0.305155
C	-1.7342097544	-1.6241420793	 3.6213064345	-0.444027
C	 0.4290870831	-1.0549477583	-0.8413773389	-0.232432
O	 0.6684884166	-1.100704916	 0.5674637604	-0.264539
H	 0.5100526279	 1.8094000026	 1.0787577716	 0.149505
H	 1.6840025562	 1.2229223658	-0.1182127874	 0.127719
H	 0.1901845159	 2.0332409049	-0.642785158	 0.125284
H	-2.0944445394	 0.7347668022	-0.1870820557	 0.129672
H	-1.9746065241	-0.9975326892	 0.2351126627	 0.118309
H	-1.7263394388	-2.4223405273	 4.3233037456	 0.218515
H	-0.2508095324	-1.8139558068	-1.2269318603	 0.11314
H	 1.3065703335	-0.8642201677	-1.458134838	 0.1157
27.2214	56.2476	145.6501	167.6125	202.0333	251.1759	324.1632	350.5153	397.2178	442.1757	452.1928	609.2613	644.3706	661.3559	715.3768	751.1276	799.9753	869.1171	911.846	929.3301	942.1152	1034.5919	1094.0911	1125.903	1136.1121	1177.1155	1222.6004	1288.8045	1300.4924	1400.3476	1426.1523	1460.2421	1485.9116	1496.3957	1533.8035	1760.6702	2211.8284	3044.9749	3057.3104	3080.198	3113.3463	3118.8222	3133.4717	3166.1003	3495.2688
CC1(CC(=O)C#C)CO1	C[C@@]1(CC(=O)C#C)CO1	
InChI=1S/C7H8O2/c1-3-6(8)4-7(2)5-9-7/h1H,4-5H2,2H3	InChI=1S/C7H8O2/c1-3-6(8)4-7(2)5-9-7/h1H,4-5H2,2H3/t7-/m1/s1
