16
gdb 62505	1.89398	1.58001	1.12225	3.2816	76.44	-0.2654	0.0075	0.2729	1131.7123	0.121093	-400.716391	-400.706974	-400.70603	-400.750275	34.718	
C	-0.1161808233	 1.5756018891	 0.0596794733	-0.462435
C	-0.0003241324	 0.0746486767	-0.0218529295	 0.380575
O	-1.1100087465	-0.6405367835	 0.4295456539	-0.450313
C	 0.6699044946	-0.5978321583	-1.1903627184	-0.278062
C	 1.2348558392	 0.1461788801	-2.2739310159	 0.344773
C	 1.7112442115	 0.7642162222	-3.1881032463	-0.423114
C	 1.3469056159	-0.6177714708	 0.2033573358	-0.280779
C	 2.5418736888	 0.1316270123	 0.4485874893	 0.309278
N	 3.4991204336	 0.7447957302	 0.6654617806	-0.342293
H	 0.7645867008	 2.0691896051	-0.3536195188	 0.160066
H	-0.9975245838	 1.9057932435	-0.4974115994	 0.140246
H	-0.2243185899	 1.8933506398	 1.1030576938	 0.122328
H	-1.2884171946	-0.376778805	 1.3399642876	 0.29105
H	 0.229817686	-1.5549660032	-1.4537665372	 0.14025
H	 2.1379792474	 1.3101809739	-3.9929910063	 0.20649
H	 1.2905401727	-1.5730452921	 0.7132602174	 0.141941
92.5942	126.2452	150.0107	171.8081	207.7863	298.3684	319.5809	353.1133	396.1763	409.7245	445.8339	549.2003	560.3645	621.5998	657.3915	668.7648	709.7679	805.5779	852.706	930.2311	1001.277	1031.6957	1068.5595	1092.1988	1118.3319	1205.9093	1270.4064	1325.617	1351.1451	1423.9468	1433.5194	1481.4016	1501.267	2244.3736	2350.0884	3039.4923	3107.7157	3147.0318	3160.0305	3180.3142	3502.594	3790.1108
CC1(O)C(C#C)C1C#N	C[C@@]1(O)[C@@H](C#C)[C@H]1C#N	
InChI=1S/C7H7NO/c1-3-5-6(4-8)7(5,2)9/h1,5-6,9H,2H3	InChI=1S/C7H7NO/c1-3-5-6(4-8)7(5,2)9/h1,5-6,9H,2H3/t5-,6+,7+/m0/s1
