17
gdb 67431	2.70377	1.50484	1.25719	4.6343	74.56	-0.2396	-0.0149	0.2247	1039.3866	0.135508	-421.78023	-421.772463	-421.771518	-421.812426	30.054	
O	-0.2419709266	 1.3793735095	 0.0239609969	-0.446122
C	-0.0044317781	 0.0345071815	 0.0161635442	 0.331361
C	 0.0195403776	-1.0114800102	-1.0461211622	-0.200971
C	 1.2913066899	-1.6419148335	-0.4859993945	-0.226105
C	 0.9395369143	-0.9458690697	 0.860746874	-0.138037
C	-0.3357323319	-1.6928476052	 1.3384306117	-0.289281
C	-1.0354320827	-1.0809864498	 0.1325082629	 0.22532
C	-2.4660229774	-0.984794639	-0.154196615	 0.04348
O	-3.3297504844	-1.5056464421	 0.5142843647	-0.273173
H	 0.4350583435	 1.8191642731	-0.5035316799	 0.297004
H	-0.3351343473	-0.9562513242	-2.0677729885	 0.10244
H	 1.3676749436	-2.7336844438	-0.4698969653	 0.103023
H	 2.1823671758	-1.2148638929	-0.9545282945	 0.102978
H	 1.7176658837	-0.6497144716	 1.5604434942	 0.081118
H	-0.2737861263	-2.7831242668	 1.4105099038	 0.101804
H	-0.7406274423	-1.2838622415	 2.2665157085	 0.120465
H	-2.7212010013	-0.3740500838	-1.0505490512	 0.064697
96.2212	165.3535	229.058	240.424	305.3522	353.5672	436.3058	461.7456	507.7947	627.0599	661.5668	716.7677	790.2882	830.4971	907.571	924.8248	947.0896	983.0314	988.5847	992.3053	1047.9777	1067.1372	1113.8213	1116.6792	1149.1024	1166.0097	1211.7316	1229.5182	1256.6886	1276.2975	1296.4584	1367.3632	1429.0625	1473.0632	1488.9353	1512.0062	1796.9566	2863.1843	3046.3852	3055.7229	3102.8053	3119.2399	3145.2518	3199.3303	3784.9244
OC12C3CC1CC23C=O	O[C@@]12[C@H]3C[C@@H]1C[C@@]23C=O	
InChI=1S/C7H8O2/c8-3-6-2-4-1-5(6)7(4,6)9/h3-5,9H,1-2H2	InChI=1S/C7H8O2/c8-3-6-2-4-1-5(6)7(4,6)9/h3-5,9H,1-2H2/t4-,5+,6+,7-/m1/s1
