16
gdb 124112	3.46038	0.97849	0.77013	4.7325	84.75	-0.2221	-0.0026	0.2195	1451.5963	0.124052	-396.920764	-396.911593	-396.910649	-396.956566	31.405	
C	-0.0885255568	 1.4745452609	-0.0002858874	-0.508473
C	-0.019892517	 0.022417507	 0.0299689278	 0.170536
C	 0.0221368704	-1.1827114993	 0.0567181338	-0.043348
C	 0.0803472138	-2.5942037878	 0.0870099411	 0.138818
C	 1.2006297107	-3.4034583147	-0.0194975815	 0.21207
C	 2.6444051635	-3.0851164904	-0.1923667204	-0.524041
N	 0.6868441667	-4.6520696871	 0.0717162449	-0.224445
N	-0.6568184059	-4.6395568002	 0.2245219255	-0.126588
N	-1.0276909652	-3.3993504807	 0.234348957	-0.276533
H	 0.4959336617	 1.9206196435	 0.8123475603	 0.149626
H	 0.295473267	 1.8745423694	-0.9455360289	 0.149627
H	-1.1232740681	 1.8169767711	 0.1087445799	 0.158107
H	 3.2476937744	-3.4648501217	 0.6398130373	 0.142796
H	 3.0473708627	-3.5109262149	-1.1181000255	 0.142794
H	 2.7696578036	-2.0013928123	-0.2350442756	 0.159989
H	 1.1688467984	-5.5366365028	 0.0399189419	 0.279067
22.0604	84.7246	92.912	113.4078	243.1009	252.2604	299.2374	356.0149	480.7884	500.9654	551.3493	567.7191	692.0726	702.0118	762.3889	982.5115	998.0797	1032.7149	1050.852	1052.6496	1065.1261	1066.6016	1176.8845	1278.8599	1313.4291	1380.5337	1412.2235	1420.2063	1474.2502	1474.6028	1476.8808	1485.6696	1511.7981	1611.7849	2363.9953	3025.1765	3032.34	3083.3492	3084.9325	3091.1508	3133.8685	3651.2477
CC#CC1=C(C)NN=N1	CC#Cc1c(C)[nH]nn1	
InChI=1S/C6H7N3/c1-3-4-6-5(2)7-9-8-6/h1-2H3,(H,7,8,9)	InChI=1S/C6H7N3/c1-3-4-6-5(2)7-9-8-6/h1-2H3,(H,7,8,9)
