20
gdb 105616	2.00859	1.45782	1.16679	4.228	79.44	-0.2415	0.0278	0.2693	1188.957	0.171863	-399.312894	-399.303234	-399.30229	-399.347348	35.554	
C	-0.2072389499	 1.5083911403	-0.078248597	-0.416568
C	 0.0189426723	 0.0021278315	-0.0552543547	-0.043635
C	 1.2650763283	-0.486389877	-0.8417903961	-0.173994
N	 1.9996254072	-0.6383985852	 0.4383544738	-0.341866
C	 0.7341053009	-0.5978044303	 1.2198066125	 0.168479
C	 0.8477360074	 0.2195731286	 2.510547902	-0.220699
N	 1.8898791481	-0.3738063356	 3.3461300973	-0.509182
C	 0.2072277177	-1.9417475825	 1.5140448013	 0.277285
N	-0.2131477823	-3.0042237093	 1.6936669659	-0.352343
H	 0.7191258271	 2.0608488574	 0.1035478094	 0.132656
H	-0.5824969257	 1.805654062	-1.0633216343	 0.122055
H	-0.9473513678	 1.82140884	 0.6650221398	 0.124389
H	-0.9057665219	-0.5196048456	-0.3048071221	 0.099607
H	 1.0885946849	-1.4268781532	-1.3773167322	 0.112235
H	 1.7221194567	 0.2342202041	-1.5280881813	 0.105831
H	 2.5353823028	-1.4935698159	 0.5402974986	 0.235737
H	 1.0356661186	 1.2671485975	 2.2368883839	 0.093312
H	-0.1044612041	 0.1801628347	 3.0509179661	 0.11614
H	 2.7959328816	-0.1699303372	 2.9349031712	 0.235972
H	 1.8843971983	 0.0460800856	 4.2690768862	 0.234589
78.9464	92.3517	151.9681	174.9759	197.1799	260.2613	276.226	305.2441	350.5532	403.0102	448.4799	529.9347	583.742	664.7906	725.5482	814.1387	858.6728	894.9797	905.0079	924.9575	1014.8595	1030.7555	1050.4589	1066.574	1089.9962	1120.0039	1144.2985	1200.9392	1213.1355	1218.9793	1258.5312	1315.8052	1335.0512	1370.0431	1388.6055	1412.6759	1418.9644	1489.7679	1500.308	1503.0367	1520.0733	1650.6388	2341.52	3003.0981	3023.461	3035.8184	3071.3138	3071.4383	3094.9961	3101.444	3118.6096	3502.5142	3535.5563	3584.7405
CC1CNC1(CN)C#N	C[C@H]1CN[C@]1(CN)C#N	
InChI=1S/C6H11N3/c1-5-2-9-6(5,3-7)4-8/h5,9H,2-3,7H2,1H3	InChI=1S/C6H11N3/c1-5-2-9-6(5,3-7)4-8/h5,9H,2-3,7H2,1H3/t5-,6+/m0/s1
