22
gdb 13285	6.83147	0.77449	0.72936	1.0208	79.84	-0.2496	0.0877	0.3373	1612.2349	0.199995	-350.185942	-350.176683	-350.175739	-350.220669	33.076	
C	-0.008260804	 1.3993788484	-0.0371247784	-0.226833
O	 0.0083363378	 0.0000736479	 0.0942301561	-0.228931
C	-1.2762736217	-0.5769333769	-0.0035392635	-0.04728
C	-1.1480802511	-2.0878006872	 0.1428552798	-0.228706
C	-2.4841005421	-2.8103901599	 0.0398034007	 0.059131
C	-3.2163930787	-2.8824396707	-1.3338863123	-0.217342
C	-3.6231646569	-4.342081251	-0.9978080138	-0.210352
C	-2.4996388636	-4.3650678031	 0.0732615062	-0.235431
H	 1.0229010852	 1.7508500457	 0.0512412615	 0.124503
H	-0.4081147935	 1.7158089225	-1.0143065662	 0.100533
H	-0.6145822306	 1.8787976335	 0.748681116	 0.100379
H	-1.9393116849	-0.1703838008	 0.7811693846	 0.079957
H	-1.7372284997	-0.3208545606	-0.973773818	 0.08538
H	-0.4637648197	-2.457693935	-0.63125964	 0.098885
H	-0.6758547954	-2.3057937	 1.109110503	 0.10246
H	-3.1746075279	-2.4233924443	 0.8001055236	 0.066606
H	-4.0129112148	-2.1607892846	-1.532511221	 0.092405
H	-2.5008432821	-2.8453633672	-2.1626540931	 0.097643
H	-4.6169540226	-4.3908304486	-0.5431502573	 0.100308
H	-3.5753077923	-5.0809747023	-1.8010899732	 0.095014
H	-1.5680583409	-4.7762121584	-0.3298053168	 0.098271
H	-2.7078954905	-4.8531746174	 1.028811732	 0.093401
63.8802	81.4662	105.2216	130.1918	173.7774	235.5521	284.9074	320.6804	417.5922	484.4246	641.4811	766.516	787.3965	805.1835	896.7413	932.9194	940.5123	969.675	986.187	993.367	1034.6166	1100.1155	1120.4573	1163.3141	1173.8067	1190.7773	1201.9035	1225.9407	1231.8544	1256.0501	1261.0947	1265.2392	1276.135	1291.0653	1314.4146	1324.3811	1388.5711	1427.723	1479.154	1482.295	1485.4589	1486.166	1491.2976	1504.9296	1512.7126	1532.0406	2938.7523	2964.415	2966.1824	3005.5125	3018.763	3024.6787	3042.5727	3047.9822	3056.8319	3066.105	3093.6321	3098.1507	3109.8311	3115.2637
COCCC1CCC1	COCCC1CCC1	
InChI=1S/C7H14O/c1-8-6-5-7-3-2-4-7/h7H,2-6H2,1H3	InChI=1S/C7H14O/c1-8-6-5-7-3-2-4-7/h7H,2-6H2,1H3
