21
gdb 60280	3.80554	0.83188	0.80241	2.0059	75.56	-0.2549	0.0788	0.3336	1526.5696	0.181666	-461.363097	-461.353295	-461.352351	-461.399434	35.009	
C	 0.5826678301	 0.5290752663	 0.5817936047	-0.407243
C	-0.6181957732	 0.0092658244	-0.2109127073	 0.132673
O	-1.5596534188	 1.0547368202	-0.4512137793	-0.440151
C	-0.2562553019	-0.5265839626	-1.5977985679	-0.212613
C	 0.6291285173	-1.7576647126	-1.5789529234	 0.212808
O	 0.0176580358	-2.8111232633	-0.8439238731	-0.27028
C	 0.3093606422	-4.0376595773	-1.5078496905	-0.086761
C	 1.1471794841	-3.6091612138	-2.7287459821	-0.112575
O	 0.8075977629	-2.2422191469	-2.8894501543	-0.247211
H	 1.2951237841	-0.2710704822	 0.8053868369	 0.123608
H	 1.1000030766	 1.317178306	 0.0247995372	 0.12155
H	 0.2553059955	 0.948876771	 1.5401886231	 0.103143
H	-1.0947006084	-0.8050798149	 0.3548394248	 0.085647
H	-1.8248205427	 1.4126556614	 0.4018472584	 0.27802
H	-1.1793268532	-0.7848533992	-2.1245909636	 0.117011
H	 0.2473048712	 0.258916184	-2.1721902992	 0.110414
H	 1.6186597324	-1.5429166685	-1.1324264698	 0.059259
H	 0.8583278183	-4.7145797845	-0.842547384	 0.103696
H	-0.631846746	-4.5182793102	-1.7991588978	 0.110599
H	 2.2238138715	-3.7254551384	-2.5316341863	 0.098529
H	 0.8951222822	-4.1419055389	-3.6478429265	 0.119876
27.3396	57.7621	90.0315	129.1355	210.4817	261.0868	288.0538	312.8199	344.0534	440.4927	456.9485	549.2361	690.4019	726.1135	833.9316	851.1516	879.2201	942.332	954.2506	964.8599	1003.6807	1051.9366	1072.7397	1090.5488	1129.1221	1141.9747	1155.1831	1174.3576	1222.4986	1227.6507	1244.8405	1279.681	1321.1469	1346.0279	1377.4944	1385.3614	1396.9078	1409.7639	1424.8878	1442.6673	1476.6409	1498.3161	1500.0851	1515.0491	1531.8298	2919.1347	2989.4847	2995.1281	3024.5606	3027.7469	3052.1735	3062.2681	3092.6648	3106.2427	3111.1367	3113.0377	3818.472
CC(O)CC1OCCO1	C[C@@H](O)CC1OCCO1	
InChI=1S/C6H12O3/c1-5(7)4-6-8-2-3-9-6/h5-7H,2-4H2,1H3	InChI=1S/C6H12O3/c1-5(7)4-6-8-2-3-9-6/h5-7H,2-4H2,1H3/t5-/m1/s1
