19
gdb 85546	2.1878	1.74059	1.22769	3.0513	74.29	-0.2402	-0.0172	0.223	1065.2308	0.160291	-423.040987	-423.032781	-423.031837	-423.074072	31.8	
O	 0.3016070886	 1.2135794521	-0.4690344239	-0.425512
C	 0.0492417252	-0.1099551583	-0.0205215157	 0.095445
C	 0.7811116477	-0.4115664695	 1.3201215031	-0.312375
C	-0.0917876586	-0.3019410214	 2.555975762	 0.357423
O	 0.1640468707	 0.4223661154	 3.4899222534	-0.314094
C	-1.3265645904	-1.1948854173	 2.5182199703	-0.306981
C	-2.1295926837	-0.9698365404	 1.2455039411	-0.035075
C	-2.3913762034	 0.4498160397	 0.8168149784	-0.308155
C	-1.4438427302	-0.420418022	 0.0135778351	-0.045922
H	-0.2926565275	 1.8044571495	 0.0062388171	 0.282154
H	 0.5116215302	-0.7391324777	-0.7875023133	 0.094638
H	 1.1419988491	-1.4483511001	 1.2823589117	 0.115923
H	 1.6439554947	 0.2497062174	 1.4135075011	 0.130258
H	-0.9853426433	-2.2386863613	 2.5580793761	 0.11674
H	-1.9284180712	-1.0027754786	 3.4106201705	 0.122381
H	-2.9250561087	-1.6895758534	 1.0783719647	 0.092807
H	-3.34606259	 0.7043222712	 0.3714914187	 0.11925
H	-1.9805082561	 1.2349763524	 1.4475692774	 0.124931
H	-1.8403830333	-0.7535186778	-0.9401701776	 0.096163
60.2793	92.7622	216.7043	268.7179	324.8272	384.0981	397.102	422.4267	489.2628	532.8381	617.6243	690.9788	743.2312	808.8269	824.5096	845.4469	872.6912	914.5234	990.6623	999.6581	1035.6685	1062.0567	1071.2175	1102.927	1134.2667	1136.1725	1164.6024	1219.1259	1225.1907	1239.8405	1259.8713	1295.0673	1315.5011	1373.4881	1378.7606	1412.3997	1435.7041	1456.7069	1473.9739	1496.4802	1815.3408	3016.2717	3024.9747	3057.1769	3094.9225	3116.1125	3127.2537	3148.6593	3159.126	3208.7037	3804.9071
OC1CC(=O)CC2CC12	O[C@H]1CC(=O)C[C@H]2C[C@@H]12	
InChI=1S/C7H10O2/c8-5-1-4-2-6(4)7(9)3-5/h4,6-7,9H,1-3H2	InChI=1S/C7H10O2/c8-5-1-4-2-6(4)7(9)3-5/h4,6-7,9H,1-3H2/t4-,6+,7-/m0/s1
