22
gdb 64446	2.14954	1.65047	1.22517	3.1117	81.91	-0.2201	-0.0104	0.2096	1142.6601	0.194513	-404.380908	-404.371631	-404.370686	-404.414394	36.126	
C	 0.0510384847	 1.5283937478	-0.0548353629	-0.410093
C	-0.0117500205	 0.000299069	 0.0053048849	 0.159755
C	-1.4910512821	-0.4551595356	 0.1098189949	-0.427344
N	 0.6902454846	-0.5298771406	-1.1799648761	-0.319478
C	 0.8895541321	-1.9749585917	-1.2330661718	-0.159946
C	 1.7906624289	-2.3920321863	-0.0723622279	-0.185572
C	 1.1588509269	-1.9657138596	 1.262043944	-0.306299
C	 0.7274446932	-0.5050075817	 1.2657751653	 0.408478
O	 0.9086799337	 0.2099842637	 2.2232957706	-0.320539
H	 1.086855657	 1.8624841371	-0.1461143044	 0.125396
H	-0.5090187772	 1.8939412624	-0.9229990077	 0.0973
H	-0.3766278835	 1.9684313143	 0.8473680901	 0.131945
H	-2.0503122613	-0.0823747974	-0.7556000595	 0.112643
H	-1.5931195948	-1.5433975625	 0.1320495255	 0.116964
H	-1.9601735747	-0.0543972584	 1.0137304207	 0.131396
H	 0.2182303332	-0.2030331492	-2.0167696443	 0.213789
H	-0.0482827075	-2.5603788133	-1.1955846031	 0.078494
H	 1.3690336667	-2.2107092762	-2.1888618566	 0.101255
H	 1.9558211955	-3.4744452968	-0.082562197	 0.097187
H	 2.7652090535	-1.9058052245	-0.1903488984	 0.114411
H	 0.2557852022	-2.5681201981	 1.4387187765	 0.120198
H	 1.8229831797	-2.1232919125	 2.1152805475	 0.120057
74.5481	152.8319	194.2565	216.5728	244.0869	300.1921	318.2298	350.1615	391.3631	435.2563	449.5079	521.7349	555.7388	646.4096	683.1417	740.4717	841.3062	868.6711	876.2283	927.6862	936.5993	983.1669	1002.5934	1024.4429	1069.9678	1131.2921	1144.6014	1175.231	1183.8178	1195.1394	1239.136	1283.2726	1298.4409	1344.2441	1371.433	1388.1716	1393.3716	1411.087	1462.5122	1472.5887	1479.6827	1480.2768	1488.2326	1498.2976	1504.3826	1519.7997	1813.316	2924.236	3013.0834	3031.9447	3040.4401	3040.6572	3065.3773	3086.582	3101.2395	3103.8341	3114.2507	3115.8781	3145.646	3514.4656
CC1(C)NCCCC1=O	CC1(C)NCCCC1=O	
InChI=1S/C7H13NO/c1-7(2)6(9)4-3-5-8-7/h8H,3-5H2,1-2H3	InChI=1S/C7H13NO/c1-7(2)6(9)4-3-5-8-7/h8H,3-5H2,1-2H3
