17
gdb 44637	2.95299	1.65692	1.48972	2.8457	70.8	-0.2418	-0.0262	0.2156	933.882	0.136647	-421.784734	-421.777768	-421.776824	-421.816541	27.486	
O	 0.1638144366	 0.114417151	-0.8159564536	-0.296979
C	 0.0864421896	 1.1795203126	-0.2764013228	 0.400169
C	-1.0588980872	 1.9452595123	 0.4191733054	-0.361577
C	-0.0755086401	 3.1225170584	 0.6584133606	-0.06298
C	 0.7442887654	 3.0640227205	 1.9856497181	 0.113002
O	 0.460106411	 1.9329832834	 2.8336974113	-0.29099
C	 1.5808608324	 1.1837504781	 2.2875018393	-0.102212
C	 1.8959847108	 2.3066629476	 1.2817011499	-0.082947
C	 1.0835179964	 2.3346665294	-0.0604872176	-0.17026
H	-1.8786807073	 2.1742440012	-0.2687682476	 0.130178
H	-1.4618624025	 1.4646399094	 1.313674032	 0.149421
H	-0.3939530225	 4.1116979592	 0.332113669	 0.077173
H	 0.8543420748	 3.9933760646	 2.550734779	 0.081076
H	 2.3561723632	 1.0327665413	 3.047812076	 0.108137
H	 1.2782572834	 0.2117570381	 1.8828664082	 0.126959
H	 2.9214383659	 2.6673522169	 1.2249820733	 0.088405
H	 1.6228061501	 2.6908560059	-0.9391461005	 0.093424
57.2377	155.9449	262.1229	354.7048	424.1493	491.9553	531.9248	606.6068	719.5617	737.0356	789.3014	821.4385	849.3835	880.9226	896.1391	941.666	988.2725	993.5476	1007.8531	1039.9685	1067.8631	1074.3166	1108.2042	1126.4036	1161.6229	1188.754	1196.4052	1214.4976	1231.1856	1242.173	1291.7227	1305.3021	1318.8947	1358.131	1423.7724	1525.6482	1883.2336	3025.0031	3062.3477	3070.7359	3075.4265	3105.1821	3119.8722	3125.2592	3129.2992
O=C1CC2C3OCC3C12	O=C1C[C@H]2[C@H]3OC[C@H]3[C@@H]12	
InChI=1S/C7H8O2/c8-5-1-3-6(5)4-2-9-7(3)4/h3-4,6-7H,1-2H2	InChI=1S/C7H8O2/c8-5-1-3-6(5)4-2-9-7(3)4/h3-4,6-7H,1-2H2/t3-,4+,6+,7-/m1/s1
