16
gdb 79224	2.68167	1.65398	1.3205	1.5621	75.41	-0.2504	0.0129	0.2633	988.6457	0.123948	-400.652143	-400.644527	-400.643582	-400.683928	30.098	
O	-0.0782967338	 1.4994290392	-0.0672191428	-0.430824
C	-0.0425058197	 0.0984312145	-0.0808959192	 0.086945
C	-1.3659387633	-0.6161167984	-0.157866064	-0.075808
C	-1.7523473742	-0.7479116139	-1.5910459558	-0.042978
C	-0.6945199946	-0.0843763966	-2.4509970969	-0.279192
C	 0.2919320365	-0.6566936278	-1.4070681379	 0.193298
C	 1.6343445332	-1.0246272696	-1.7348057107	 0.050034
C	 2.7730000281	-1.3124774378	-1.9965884736	-0.327653
N	-0.7879413651	-1.7361135235	-0.9942360096	-0.192143
H	 0.8114464969	 1.8273328425	 0.0997312276	 0.291723
H	 0.5682511078	-0.3124282655	 0.731956384	 0.094068
H	-2.0511469222	-0.8246745514	 0.6544958166	 0.101926
H	-2.7487448176	-1.0579812126	-1.8822872475	 0.104879
H	-0.5832886202	-0.5940900342	-3.4098372927	 0.12056
H	-0.7082385993	 1.0000549957	-2.5812500015	 0.117335
H	 3.7740049676	-1.5759211606	-2.2341080661	 0.187829
126.5656	156.4134	222.5836	293.9696	301.4971	414.692	479.3117	523.7157	575.6337	617.4928	620.0743	664.8168	724.5244	773.7702	814.8604	828.9945	854.0518	962.8956	1004.4502	1005.5969	1036.6024	1040.8533	1088.8552	1103.4598	1140.2157	1174.1849	1209.0056	1242.2941	1260.113	1315.1188	1341.5291	1376.9791	1445.2715	1485.2404	2232.1662	3040.3406	3070.8096	3133.1904	3186.5221	3199.5248	3501.3108	3817.3274
OC1C2C3CC1(C#C)N23	O[C@H]1[C@H]2[C@H]3C[C@]1(C#C)N23	
InChI=1S/C7H7NO/c1-2-7-3-4-5(6(7)9)8(4)7/h1,4-6,9H,3H2	InChI=1S/C7H7NO/c1-2-7-3-4-5(6(7)9)8(4)7/h1,4-6,9H,3H2/t4-,5-,6+,7+,8?/m1/s1
