20
gdb 6704	5.8065	0.80567	0.73982	1.1465	78.6	-0.255	0.0339	0.2889	1558.145	0.173376	-348.964758	-348.954679	-348.953735	-349.000241	35.523	
C	-0.0293658881	 1.5216985567	 0.0037539742	-0.393637
C	-0.0096524923	-0.0114608323	 0.0301049802	 0.018469
C	 0.7623242104	-0.5495988571	 1.2409325641	-0.381215
C	-1.4365221365	-0.5560481946	-0.0032236628	-0.027247
O	-1.3907643077	-1.9667602017	-0.1077594684	-0.248354
C	-2.6757636132	-2.5521211407	-0.1115077803	-0.204505
C	-2.5660058041	-4.0009529566	-0.2250611517	 0.27861
C	-2.504584762	-5.1965190627	-0.3179026271	-0.414849
H	 0.9886762308	 1.9228360524	-0.0050311894	 0.116076
H	-0.5479823468	 1.9052983401	-0.8814712079	 0.111381
H	-0.5346556619	 1.9253497908	 0.8893961919	 0.113319
H	 0.4854371901	-0.3700566689	-0.8820955642	 0.085928
H	 0.7473672186	-1.6416241689	 1.2565619458	 0.134677
H	 1.8049693462	-0.2166267411	 1.2203416732	 0.10779
H	 0.316937075	-0.1908734952	 2.1771731012	 0.105793
H	-1.9784206419	-0.2585941612	 0.912997764	 0.081696
H	-1.989455219	-0.1312949692	-0.8587723565	 0.082631
H	-3.2221089481	-2.2934730652	 0.8123460511	 0.117135
H	-3.2773948029	-2.1601416501	-0.9501777449	 0.116588
H	-2.4429168466	-6.2534311043	-0.4003927424	 0.199713
42.6472	86.7436	98.6109	140.265	211.8075	220.3238	248.2007	302.2213	335.6027	367.7947	422.6557	447.1864	574.6977	607.1803	675.0434	831.7808	922.3467	931.7077	957.0183	969.4925	990.5338	1028.7713	1034.4234	1143.7225	1157.0406	1190.9554	1200.8868	1253.4534	1274.9879	1327.9672	1372.3397	1385.7779	1399.8142	1416.6146	1447.1457	1488.6586	1490.2096	1497.6532	1503.8179	1512.8669	1522.5238	2248.1734	2936.3485	2950.3895	2964.4038	2970.1893	3022.3333	3024.9279	3031.3198	3088.7134	3094.4505	3103.5804	3128.3181	3506.4117
CC(C)COCC#C	CC(C)COCC#C	
InChI=1S/C7H12O/c1-4-5-8-6-7(2)3/h1,7H,5-6H2,2-3H3	InChI=1S/C7H12O/c1-4-5-8-6-7(2)3/h1,7H,5-6H2,2-3H3
