21
gdb 62120	4.8365	0.62514	0.59871	3.0173	80.78	-0.2481	-0.0187	0.2294	1867.451	0.180157	-424.220132	-424.20998	-424.209035	-424.256609	36.313	
O	-0.3937475109	 1.2789072388	 0.0120994178	-0.425544
C	-0.1240488798	-0.1178794582	 0.0722705087	 0.095831
C	 0.6290367838	-0.5960065055	-1.179537325	-0.219669
C	-0.1351745377	-0.301127701	-2.480671397	-0.27278
C	 0.7124771916	-0.5485782458	-3.704044447	 0.158263
O	 0.4250481493	-1.2815513686	-4.6148465094	-0.238706
C	 0.5998809332	-0.5205152428	 1.349801536	 0.013518
C	 1.6334445764	 0.3725727924	 1.9928621117	-0.277074
C	 0.2941734065	 0.1579154332	 2.6561054514	-0.27114
H	 0.4500675447	 1.738150788	-0.0674245269	 0.281065
H	-1.1194787493	-0.5811680132	 0.0796876541	 0.095345
H	 1.6149501866	-0.1085017825	-1.2017043586	 0.09557
H	 0.8211831015	-1.6720016426	-1.0941991914	 0.112761
H	-1.0474019053	-0.9001152914	-2.5564329803	 0.12061
H	-0.4226764441	 0.7591895262	-2.4740360824	 0.130321
H	 1.675991302	 0.016988844	-3.7101005137	 0.064227
H	 0.8051271823	-1.5868468117	 1.3999053562	 0.086326
H	 2.5134423782	-0.091209769	 2.4238807759	 0.115431
H	 1.8235023244	 1.3525767475	 1.5661073052	 0.096574
H	-0.4049188832	 0.9857398728	 2.6240637997	 0.127111
H	 0.2509495196	-0.4453539304	 3.5557853752	 0.111963
48.923	57.4247	83.9358	110.1528	148.1531	254.1953	267.2367	297.3641	341.7412	383.5976	501.4378	532.4798	590.6274	760.4942	782.2901	796.8408	830.5355	839.6402	923.4797	946.3863	1005.6504	1016.961	1042.8622	1059.3576	1084.4112	1085.1525	1097.4424	1139.0527	1156.8929	1181.5569	1197.7983	1229.925	1248.3591	1274.3815	1330.4066	1337.1198	1379.4804	1402.3175	1422.2685	1431.0996	1460.8179	1464.9392	1488.2445	1505.2176	1836.5636	2836.6119	3003.495	3025.2377	3030.1372	3062.906	3101.204	3127.9296	3138.4192	3143.0836	3207.8995	3231.2049	3796.4735
OC(CCC=O)C1CC1	O[C@@H](CCC=O)C1CC1	
InChI=1S/C7H12O2/c8-5-1-2-7(9)6-3-4-6/h5-7,9H,1-4H2	InChI=1S/C7H12O2/c8-5-1-2-7(9)6-3-4-6/h5-7,9H,1-4H2/t7-/m0/s1
