18
gdb 119819	5.91148	0.79117	0.70704	4.6969	77.2	-0.228	0.0031	0.2311	1579.3228	0.147268	-435.273754	-435.264458	-435.263514	-435.309131	32.557	
C	-0.0895229907	 1.4108635594	 0.01089955	-0.226538
O	 0.02591831	 0.0067387335	 0.0015487855	-0.204205
C	-1.2122529312	-0.6329215586	 0.0103728182	-0.156606
C	-1.0345354806	-2.1245845801	 0.0011207758	 0.354461
N	 0.0675901628	-2.7639491096	-0.0088416409	-0.281617
C	-0.2878103255	-4.1889571791	-0.0140740589	-0.238358
C	-1.8124554813	-4.2648060988	-0.0055760547	 0.382708
N	-2.519274688	-5.3194352579	-0.0074674001	-0.55226
N	-2.1852858913	-2.9199401305	 0.0043213872	-0.38402
H	 0.9243144678	 1.815790779	 0.003116518	 0.138579
H	-0.6300581763	 1.7827630449	-0.8740632593	 0.106326
H	-0.6122058759	 1.7723192945	 0.9107821355	 0.106363
H	-1.8063502245	-0.3547548953	 0.9021005537	 0.104047
H	-1.8236731132	-0.3456923807	-0.8666633541	 0.103779
H	 0.1249991884	-4.6856882031	-0.8985945002	 0.14522
H	 0.1351632247	-4.6945595187	 0.860574721	 0.145204
H	-3.5190656029	-5.1107255354	-0.0003618048	 0.204302
H	-3.1351937522	-2.5877248735	 0.0099293479	 0.252616
33.9515	69.1872	117.0854	134.5186	231.9683	242.7894	334.5036	336.4526	351.4717	485.6917	507.085	629.8489	675.157	752.935	848.8952	895.8518	969.0155	982.3033	1016.1617	1042.4723	1053.4128	1096.3411	1169.1791	1180.0053	1181.5517	1186.1277	1243.5843	1263.8065	1285.9533	1319.3483	1398.2634	1453.8781	1464.7472	1481.7752	1486.8639	1495.7814	1522.3578	1724.643	1763.9005	2921.2234	2935.0555	2970.4054	3014.9119	3052.6416	3084.2582	3126.5857	3453.5992	3655.5748
COCC1=NCC(=N)N1	COCC1=NC[C]([NH])N1	
InChI=1S/C5H9N3O/c1-9-3-5-7-2-4(6)8-5/h2-3H2,1H3,(H2,6,7,8)	InChI=1S/C5H9N3O/c1-9-3-5-7-2-4(6)8-5/h2-3H2,1H3,(H2,6,7,8)
