16
gdb 81515	2.25228	1.9759	1.19355	2.0339	71.13	-0.2433	0.0185	0.2617	1007.5045	0.122633	-437.761555	-437.753481	-437.752537	-437.793544	32.375	
N	 0.1941625608	 1.4330421668	 0.0100475223	-0.582074
C	 0.120600198	-0.0077012104	-0.0486833789	 0.18519
C	 1.1288186598	-0.5171961234	-0.9682457436	 0.241727
C	 1.9514177224	-0.9015005283	-1.7590630881	-0.419417
C	-0.0925335942	-0.6901946774	 1.3485272466	-0.047845
O	-1.4689252492	-0.1468066829	 1.3460624034	-0.31464
C	-1.3056935661	-0.7139999341	-0.0075663246	-0.080447
C	-0.6981156783	-1.9722652925	 0.6886763527	 0.154227
O	 0.0274024865	-2.9642802289	 0.0556940906	-0.430412
H	 0.1195825747	 1.8343907385	-0.9187747064	 0.233083
H	-0.5845793322	 1.7639329761	 0.5730391926	 0.245409
H	 2.6863937139	-1.240293226	-2.4479969852	 0.208733
H	 0.5020733798	-0.5546873493	 2.25255246	 0.104421
H	-2.1400404863	-0.6098219415	-0.7029878311	 0.096953
H	-1.4234954948	-2.4444596288	 1.3509784258	 0.112977
H	 0.6745684052	-2.5621039779	-0.538722696	 0.292114
128.586	170.5329	264.0393	284.4697	343.8788	373.7871	380.545	447.0291	503.1032	509.0424	566.3147	628.0636	635.0618	670.8253	706.6412	762.5409	830.5916	849.4721	879.6293	889.283	929.3411	1006.0279	1078.3349	1114.3774	1132.5447	1145.2352	1201.1568	1211.9371	1257.9147	1282.2116	1304.4385	1359.9425	1448.7282	1633.6597	2221.2585	3109.9999	3120.1132	3132.1644	3493.931	3495.039	3586.121	3741.5977
NC1(C#C)C2OC1C2O	N[C@@]1(C#C)[C@H]2O[C@@H]1[C@H]2O	
InChI=1S/C6H7NO2/c1-2-6(7)4-3(8)5(6)9-4/h1,3-5,8H,7H2	InChI=1S/C6H7NO2/c1-2-6(7)4-3(8)5(6)9-4/h1,3-5,8H,7H2/t3-,4-,5+,6-
