16
gdb 37213	3.3796	2.05318	1.67133	2.543	71.87	-0.2372	-0.0272	0.2099	826.2927	0.127885	-396.82285	-396.816992	-396.816047	-396.852764	24.792	
C	 0.0889512605	 1.5213232137	 0.2282749612	-0.181893
N	 1.5340802859	 1.7799875114	 0.1105463973	-0.168222
C	 2.0435261319	 0.7200749606	-0.3719474603	 0.160803
C	 3.1896503545	 0.0115064479	 0.318506579	-0.108137
N	 2.9130907786	 0.0937156133	 1.7759292918	-0.315465
C	 2.3891168212	-1.0452030123	 1.001434017	-0.02631
C	 0.9858101127	-1.0629297846	 0.3585583821	-0.065024
C	-0.0218900893	 0.0209882383	-0.0420844567	-0.063709
N	 1.1203012354	-0.296019469	-0.9079541027	-0.127734
H	-0.2261928485	 1.8437490357	 1.225631586	 0.13007
H	-0.5141255263	 2.0714526224	-0.5077093641	 0.119327
H	 4.1873451171	-0.1349050797	-0.0729119742	 0.114326
H	 3.7358593132	-0.2224884941	 2.2891552397	 0.23411
H	 2.7989970972	-2.0328631608	 1.1860323177	 0.101554
H	 0.5967645265	-2.0737390956	 0.2431918136	 0.097428
H	-0.9900096705	-0.3616474073	-0.3594521073	 0.098876
208.8092	260.3701	384.589	490.7381	553.1401	619.8577	670.7905	713.67	776.0996	796.0474	817.555	843.5115	852.8971	875.0814	908.7121	944.6474	972.1716	1001.7003	1017.8896	1053.4898	1078.8091	1116.1494	1130.8865	1138.7081	1160.1705	1207.5229	1218.5936	1229.575	1308.7115	1333.7937	1357.1806	1370.792	1400.2597	1480.5504	1667.1697	3014.3354	3077.3549	3110.6201	3134.9122	3164.5018	3204.0973	3468.522
C1N=C2C3NC3C3C1N23	C1[N][C]2[C@H]3N[C@H]3[C@H]3[C@@H]1N23	
InChI=1S/C6H7N3/c1-2-5-3-4(8-3)6(7-1)9(2)5/h2-5,8H,1H2	InChI=1S/C6H7N3/c1-2-5-3-4(8-3)6(7-1)9(2)5/h2-5,8H,1H2/t2-,3-,4+,5-,9?/m1/s1
