18
gdb 78576	5.15976	1.06512	1.01954	1.9025	83.42	-0.2333	0.029	0.2623	1215.4086	0.146631	-364.678001	-364.670115	-364.669171	-364.710182	31.018	
C	-0.1940881863	 1.6262812231	-0.0776715398	-0.428356
C	-0.0380467915	 0.1168362806	-0.0084471065	 0.005076
C	 1.1891434816	-0.558370918	-0.6381769234	-0.022078
C	 2.1441699538	-0.2038332981	 0.5391257041	-0.079416
C	 2.5272484452	-1.684499564	 0.649864562	-0.175513
C	 2.9217068614	-2.2320731243	 1.9308943449	 0.326081
C	 3.2592533938	-2.6745125896	 2.9971076566	-0.430336
N	 1.0308450823	-1.7911697479	 0.2945405845	-0.168891
C	 0.7446294502	-0.5219527488	 1.1485387134	-0.018788
H	 0.7446191275	 2.1431464873	 0.1472969408	 0.117668
H	-0.5181035284	 1.9407888963	-1.0753870809	 0.121661
H	-0.9465243512	 1.9737416334	 0.6380978689	 0.12255
H	-0.9750646916	-0.4062016887	-0.2311223133	 0.084825
H	 1.4558427534	-0.6988150432	-1.6880793097	 0.080883
H	 2.771764452	 0.6811253881	 0.6791174065	 0.075081
H	 3.1581459185	-2.0795056324	-0.1550428119	 0.09926
H	 3.5547163775	-3.0720392118	 3.9364815168	 0.196776
H	 0.4876733317	-0.6177941221	 2.2038396269	 0.093518
110.4483	138.3091	211.7305	225.8994	269.7803	381.5857	460.54	518.9453	584.175	624.7369	649.021	727.8039	757.2795	817.2865	848.4423	850.9245	870.1538	893.1814	923.8486	1019.9379	1026.9512	1033.2869	1047.9726	1100.9863	1114.7248	1135.4228	1146.5522	1171.572	1179.878	1211.3922	1244.7802	1254.5356	1310.8642	1371.7817	1393.458	1415.4304	1495.1545	1500.034	2231.6298	3032.3428	3039.6315	3048.5718	3059.2361	3091.8996	3097.7989	3103.3355	3116.5531	3503.752
CC1C2C3C(C#C)N2C13	C[C@H]1[C@H]2[C@@H]3[C@@H](C#C)N2[C@H]13	
InChI=1S/C8H9N/c1-3-5-6-7-4(2)8(6)9(5)7/h1,4-8H,2H3	InChI=1S/C8H9N/c1-3-5-6-7-4(2)8(6)9(5)7/h1,4-8H,2H3/t4-,5-,6-,7-,8+/m1/s1
