16
gdb 12623	2.90941	2.23999	1.45774	3.061	66.78	-0.2484	-0.055	0.1935	864.0969	0.13071	-383.774417	-383.76692	-383.765975	-383.806102	28.236	
C	 0.1180878574	 1.5854458276	-0.0230031631	-0.378948
C	-0.0347816074	 0.0556931075	 0.0323903829	-0.089051
C	 0.6595532594	-0.6244234946	-1.1293870087	-0.044928
C	 1.7832136569	-1.2726505748	-0.7871730314	-0.184038
C	 1.9914019106	-1.1264535389	 0.6646613549	 0.343506
O	 2.9858996724	-1.3170514701	 1.3307966283	-0.351248
C	 0.6792469452	-0.5850005864	 1.2491651165	 0.040497
O	 0.9061847606	 0.2662587471	 2.3390644145	-0.434408
H	 1.1729940154	 1.8733006941	-0.0226832919	 0.126072
H	-0.3480312886	 1.9869443809	-0.9281577015	 0.110849
H	-0.3544039893	 2.0421895012	 0.8488740073	 0.141271
H	-1.1047335401	-0.1832329607	 0.0263501058	 0.089494
H	 0.277345726	-0.5395560166	-2.1421835625	 0.11908
H	 2.4789627341	-1.7737728625	-1.4475278945	 0.122339
H	 0.0944206595	-1.4693108209	 1.5603152763	 0.096375
H	 1.7805872979	 0.0215308071	 2.6778968371	 0.293137
79.1906	218.7274	226.8223	254.3742	273.4005	370.1843	421.5922	510.8571	543.8959	634.2026	701.6484	744.1159	798.0227	830.5608	887.7176	936.2115	1001.9333	1032.67	1082.7232	1096.7185	1127.1128	1155.8013	1202.008	1226.1133	1308.8961	1336.8347	1354.2844	1371.7869	1401.6219	1418.5054	1490.4992	1495.2299	1632.0388	1810.5014	2940.9115	3035.645	3045.0996	3116.2211	3136.2765	3182.3646	3226.265	3715.3659
CC1C=CC(=O)C1O	C[C@H]1C=CC(=O)[C@H]1O	
InChI=1S/C6H8O2/c1-4-2-3-5(7)6(4)8/h2-4,6,8H,1H3	InChI=1S/C6H8O2/c1-4-2-3-5(7)6(4)8/h2-4,6,8H,1H3/t4-,6-/m0/s1
