16
gdb 49982	3.8964	0.95255	0.87843	2.7349	73.64	-0.2559	-0.0338	0.2222	1311.672	0.122701	-437.875511	-437.867377	-437.866433	-437.908786	30.168	
N	 0.1263348431	 1.1244040217	 0.8455956881	-0.533058
C	 0.0217897019	 0.061632382	 0.1963892401	 0.435218
C	-1.1216504725	-0.8523133226	-0.2017806601	-0.443913
C	-0.0076891823	-1.6529846032	-0.8716804958	 0.435053
C	 0.2722888198	-3.0942812915	-0.9624123832	-0.369647
C	 0.0962132935	-2.2634269092	-2.2492799306	-0.187145
C	-1.1324858684	-2.4507141381	-3.0542092176	 0.166618
O	-1.1991740334	-2.3144648304	-4.2496196843	-0.25664
O	 0.9905020086	-0.7132793034	-0.4336019136	-0.266656
H	 1.0949516228	 1.4434330629	 0.8962840073	 0.235845
H	-1.6249885293	-1.3425400506	 0.6333192554	 0.148371
H	-1.8588959487	-0.3952159244	-0.8635253472	 0.15302
H	 1.2777381307	-3.435984142	-0.7462459441	 0.149776
H	-0.5203631508	-3.7905013105	-0.704584628	 0.135934
H	 0.9915768221	-2.0249954515	-2.812919614	 0.129299
H	-2.0292159971	-2.7410143992	-2.4556041925	 0.067924
65.5919	119.1388	152.3776	210.5045	314.6182	361.2327	420.8527	485.404	493.6064	508.7363	549.3223	775.9607	839.3376	852.9908	870.9496	891.5694	944.782	986.2725	996.5442	1030.2952	1042.7254	1052.1863	1071.4301	1141.4654	1159.8747	1163.4343	1221.9602	1264.6549	1319.5065	1392.7363	1442.6255	1461.796	1485.5383	1822.2275	1843.0845	2842.1025	3088.3017	3131.3193	3143.5226	3185.6636	3228.552	3484.5919
N=C1CC2(CC2C=O)O1	[NH][C]1C[C@]2(C[C@H]2C=O)O1	
InChI=1S/C6H7NO2/c7-5-2-6(9-5)1-4(6)3-8/h3-4,7H,1-2H2	InChI=1S/C6H7NO2/c7-5-2-6(9-5)1-4(6)3-8/h3-4,7H,1-2H2/t4-,6-/m0/s1
