19
gdb 122467	3.94337	0.70436	0.63188	2.3139	79.77	-0.2556	0.0175	0.2731	1785.7906	0.155521	-422.957619	-422.947517	-422.946573	-422.993895	35.498	
C	-0.1419301638	 1.5459854613	 0.2515037558	-0.385363
C	 0.0776042001	 0.0623143138	 0.0113786897	-0.02485
O	 0.7482821252	-0.4797373228	 1.1323920563	-0.247958
C	 1.0107618455	-1.8581636679	 1.0089866806	-0.09211
C	 1.7239662783	-2.3071319801	 2.2551951494	 0.061766
O	 0.9299144264	-2.7569199879	 3.3489658976	-0.237888
C	 1.7531479267	-3.7237842373	 2.6769360645	-0.157831
C	 1.0954588606	-4.768142693	 1.9358025718	 0.339963
C	 0.5805629717	-5.6671008661	 1.3260207863	-0.43226
H	 0.814688779	 2.0583051902	 0.3877053115	 0.126347
H	-0.6601702611	 1.9971163902	-0.5998803361	 0.115066
H	-0.745561855	 1.7029198254	 1.149721767	 0.130906
H	-0.8855200567	-0.4534110615	-0.1396833211	 0.089892
H	 0.6752775211	-0.0996450196	-0.9022755328	 0.084787
H	 0.0842686144	-2.4378404939	 0.886132999	 0.108836
H	 1.6496026076	-2.0571844531	 0.1298534616	 0.092115
H	 2.570140126	-1.6808670572	 2.5407984551	 0.105149
H	 2.6126432679	-4.0538767212	 3.2601300459	 0.118658
H	 0.116572926	-6.4577971492	 0.7896007577	 0.204772
46.3372	73.6683	83.5074	131.9082	157.1888	211.0807	246.1339	301.6396	327.718	452.2453	462.1602	554.9844	608.5636	630.653	671.2301	814.105	821.7109	826.0362	903.7143	942.1927	1025.2979	1044.1145	1063.4132	1122.2832	1151.2313	1154.4186	1173.9476	1191.7005	1262.1774	1285.4452	1297.1468	1351.0869	1388.7654	1404.1849	1433.9116	1478.3959	1483.154	1497.564	1501.8611	1533.1037	2239.5843	2946.4393	2956.8341	2980.2322	3019.2794	3045.8332	3105.7281	3116.5635	3120.2405	3123.3396	3501.9141
CCOCC1OC1C#C	CCOC[C@H]1O[C@H]1C#C	
InChI=1S/C7H10O2/c1-3-6-7(9-6)5-8-4-2/h1,6-7H,4-5H2,2H3	InChI=1S/C7H10O2/c1-3-6-7(9-6)5-8-4-2/h1,6-7H,4-5H2,2H3/t6-,7+/m0/s1
