18
gdb 67407	2.82485	1.51448	1.27978	1.1091	84.19	-0.2225	0.0355	0.2581	1055.9247	0.147067	-364.711506	-364.703419	-364.702475	-364.743758	31.811	
C	-0.1446637031	 1.4957545328	-0.014435194	-0.52557
C	-0.045221986	 0.0131359831	-0.0308094538	 0.323724
C	-0.0060120199	-1.0577086388	-1.0745585275	-0.178668
C	 1.2678556196	-1.5902991797	-0.4502145248	-0.185589
N	 0.9118386052	-0.8573830629	 0.8299099403	-0.209979
C	-0.3041913833	-1.6302253881	 1.2832280194	-0.241492
C	-1.067703046	-1.1082472494	 0.0705073125	 0.179515
C	-2.463728131	-1.0671193677	-0.1810283683	 0.095639
C	-3.6534387723	-1.0340137177	-0.3665113201	-0.376835
H	 0.7873140586	 1.9605944564	-0.3536749232	 0.131786
H	-0.9530437575	 1.8227959232	-0.6761113394	 0.137236
H	-0.3598528662	 1.865059824	 0.9938220606	 0.134779
H	-0.3260727144	-1.0045057661	-2.1077553097	 0.100512
H	 1.4104520119	-2.669829236	-0.3320169346	 0.102153
H	 2.1663050727	-1.1451038406	-0.8860641505	 0.113159
H	-0.146251892	-2.7082142039	 1.3977964178	 0.101914
H	-0.683213303	-1.2097765263	 2.217553731	 0.116774
H	-4.7012734033	-1.0077218124	-0.5344663857	 0.180942
113.1354	152.0291	197.3126	214.6147	279.1248	403.4814	464.1044	498.2199	539.272	553.4414	570.1826	654.0097	667.8992	697.3767	780.5748	840.3896	860.2619	922.4388	929.896	954.6641	997.8799	1063.845	1075.9574	1109.8471	1121.9158	1152.0981	1155.5781	1185.4284	1225.3382	1247.2448	1296.3309	1321.527	1403.5617	1462.975	1474.9532	1493.8742	1500.2449	1523.3159	2227.6013	3030.7424	3036.6446	3045.3187	3094.9167	3099.5475	3107.9846	3108.6752	3195.7208	3503.2848
CC12C3CN1CC23C#C	C[C@@]12[C@H]3CN1C[C@@]23C#C	
InChI=1S/C8H9N/c1-3-8-5-9-4-6(8)7(8,9)2/h1,6H,4-5H2,2H3	InChI=1S/C8H9N/c1-3-8-5-9-4-6(8)7(8,9)2/h1,6H,4-5H2,2H3/t6-,7+,8-/m1/s1
