14
gdb 7869	3.93492	1.80376	1.24639	5.0989	68.75	-0.2291	-0.0742	0.1549	922.0186	0.107672	-378.774219	-378.766723	-378.765778	-378.806104	27.182	
C	-0.0162483149	 1.4874113994	 0.0744348815	-0.500566
C	-0.000943275	 0.002780839	-0.0414757176	 0.377702
C	-0.03922672	-0.7671791068	-1.1658988272	-0.36129
C	-0.0023874085	-2.1598116221	-0.7574160075	 0.340621
O	-0.0153429122	-3.1995867323	-1.3833483274	-0.346342
C	 0.0641145403	-2.1155520093	 0.7864311129	 0.283642
N	 0.1133153883	-3.0714201276	 1.613956511	-0.510095
N	 0.0594744531	-0.7658013975	 1.1090783669	-0.370991
H	 0.8845885661	 1.8449885398	 0.5868794219	 0.15099
H	-0.0653510475	 1.9530764302	-0.9104024097	 0.153524
H	-0.8787654582	 1.8208292415	 0.6633852949	 0.151001
H	-0.0882850727	-0.4024708473	-2.1795403169	 0.117498
H	 0.1020989733	-3.9451502441	 1.078085697	 0.246911
H	 0.0957676578	-0.4093116927	 2.0488312402	 0.267394
96.726	125.7065	181.9909	285.5663	305.3686	331.6916	458.3971	556.5623	590.9617	619.9354	639.6963	751.6441	773.6649	826.6958	932.5798	996.2298	1004.1802	1059.3845	1061.8128	1161.1587	1180.7567	1308.2898	1368.2449	1408.536	1447.5393	1475.7825	1490.5651	1632.1958	1759.6084	1801.8017	3033.3988	3086.0738	3147.8366	3260.7113	3432.7675	3668.453
CC1=CC(=O)C(=N)N1	CC1=CC(=O)[C]([NH])N1	
InChI=1S/C5H6N2O/c1-3-2-4(8)5(6)7-3/h2H,1H3,(H2,6,7,8)	InChI=1S/C5H6N2O/c1-3-2-4(8)5(6)7-3/h2H,1H3,(H2,6,7,8)
