18
gdb 96204	2.7151	1.37041	0.95838	3.3457	80.5	-0.2652	-0.0431	0.2221	1204.5601	0.148578	-401.976259	-401.967828	-401.966884	-402.009365	31.482	
C	-0.0784185108	 1.547333336	-0.0055484143	-0.41444
C	 0.0194962874	 0.0161449354	 0.0149727259	-0.103774
C	 0.7430234829	-0.5052153947	-1.2332488263	-0.090312
O	 0.9920864426	-1.8974030271	-1.1601040967	-0.245715
C	 1.9032576583	-2.2272961696	-0.1369386351	-0.124909
C	 1.6281445855	-1.5215304404	 1.1565462829	-0.158985
C	 0.7495593714	-0.5128419829	 1.2433623563	 0.174264
C	 0.4754621681	 0.0937182962	 2.5087090719	 0.22561
N	 0.2296189968	 0.6010386495	 3.5209882651	-0.345121
H	 0.9157915701	 2.0067192431	-0.0077880602	 0.125267
H	-0.6094702961	 1.8820999816	-0.9021111831	 0.121483
H	-0.6184597303	 1.9215849911	 0.8676533808	 0.148003
H	-0.9981948159	-0.3969618434	 0.0211351607	 0.10871
H	 0.1301367881	-0.3492000757	-2.1250234127	 0.117511
H	 1.6872285639	 0.0491627198	-1.3680465994	 0.093319
H	 1.831007502	-3.3119353497	 0.0083325146	 0.133806
H	 2.9443396999	-2.0200663589	-0.4497159418	 0.112258
H	 2.1684628163	-1.8635510703	 2.0340449514	 0.123023
79.5407	151.0811	177.9531	216.2235	284.7345	294.6804	331.7656	403.8346	453.3464	492.449	577.9995	634.0412	692.5539	749.6689	859.9221	912.584	916.0037	959.0664	1016.076	1030.7796	1093.9682	1109.6015	1127.2339	1174.057	1196.4406	1247.6587	1302.6324	1317.8563	1329.6199	1365.26	1379.1033	1410.6006	1423.9789	1476.7117	1492.9411	1499.1062	1500.7769	1692.1087	2332.6554	2930.5942	2966.66	3017.9504	3038.4129	3052.4452	3092.9994	3106.5571	3123.2113	3182.8436
CC1COCC=C1C#N	C[C@H]1COCC=C1C#N	
InChI=1S/C7H9NO/c1-6-5-9-3-2-7(6)4-8/h2,6H,3,5H2,1H3	InChI=1S/C7H9NO/c1-6-5-9-3-2-7(6)4-8/h2,6H,3,5H2,1H3/t6-/m0/s1
