12
gdb 130964	3.54164	1.11413	0.89529	1.0885	57.39	-0.2838	-0.0705	0.2134	1183.8632	0.075538	-505.920205	-505.912402	-505.911458	-505.95427	26.242	
O	 0.1182581336	-0.1241610091	 0.3151118943	-0.210106
C	 0.10095915	 0.916580429	-0.2777901151	 0.158784
C	 1.1808571621	 1.9839853992	-0.0890912616	-0.255424
N	 1.2206036342	 2.9424278931	-1.1680835489	-0.110109
N	 1.6076193116	 2.6246163836	-2.4220133051	-0.043678
N	 1.5541703629	 3.640796077	-3.1477718139	 0.034381
O	 1.1060478584	 4.7335806457	-2.3680725267	-0.229163
C	 0.8911136993	 4.2877201077	-1.092030161	 0.56106
O	 0.5109306379	 4.9246313984	-0.1537555961	-0.380795
H	-0.705887521	 1.1916546511	-0.9917091278	 0.107426
H	 0.9491183046	 2.5610315071	 0.813696324	 0.193017
H	 2.1526790764	 1.5029669672	 0.0460316279	 0.174608
42.8398	76.8453	101.4688	241.5291	249.4021	342.6981	420.7545	542.4999	665.9831	689.1661	755.8929	760.6009	775.7891	825.4511	1017.8154	1030.1059	1059.0575	1120.1537	1174.2825	1312.2619	1347.7731	1394.4008	1413.5486	1440.5829	1515.5966	1852.9061	1902.0203	2903.2348	3061.274	3121.4418
O=CCN1N=NOC1=O	O=CCn1nnoc1=O	
InChI=1S/C3H3N3O3/c7-2-1-6-3(8)9-5-4-6/h2H,1H2	InChI=1S/C3H3N3O3/c7-2-1-6-3(8)9-5-4-6/h2H,1H2
