15
gdb 27129	3.24763	1.24606	0.90673	1.7744	68.76	-0.1964	-0.0376	0.1588	1194.0026	0.113002	-453.996651	-453.988522	-453.987577	-454.030673	29.39	
O	-0.6296880892	 1.2931719052	 0.3649217451	-0.440845
C	-0.1971177907	 0.0343430085	 0.1140302299	 0.265598
C	 0.2666598601	-0.433650581	-1.0924196606	 0.21406
C	 0.4212321889	 0.2395865222	-2.4131512552	-0.428586
C	 1.1298587846	-0.5240281194	-3.5031529757	 0.167496
O	 1.52571107	-1.6642494411	-3.4358529626	-0.259634
N	 0.571921725	-1.7634913461	-0.8333515707	-0.292521
C	 0.2929099498	-2.0052390913	 0.4660975525	 0.003229
N	-0.1823888972	-0.9302204407	 1.073465056	-0.346278
H	-0.8787445433	 1.3106922324	 1.2969003689	 0.300127
H	-0.5524401986	 0.52550781	-2.8486690922	 0.152271
H	 0.9467682113	 1.2012296349	-2.3086310497	 0.154199
H	 1.2602455802	 0.0595873628	-4.4398816325	 0.097536
H	 0.9818950892	-2.3741161746	-1.5236755272	 0.281712
H	 0.45019598	-2.9682309717	 0.9264495837	 0.131636
21.1151	153.3067	175.3431	228.7817	251.8634	321.4638	373.9551	451.5167	593.5714	597.541	682.7299	707.4565	715.9147	750.3455	791.9235	819.8232	938.6338	971.665	1047.0009	1082.7826	1143.2446	1217.768	1241.0514	1259.9736	1345.8547	1364.0622	1397.3771	1428.8924	1445.8491	1495.6835	1515.4968	1677.0088	1811.962	2903.7128	2969.1633	3011.2279	3260.3763	3632.3092	3804.5836
OC1=C(CC=O)NC=N1	Oc1c(CC=O)[nH]cn1	
InChI=1S/C5H6N2O2/c8-2-1-4-5(9)7-3-6-4/h2-3,9H,1H2,(H,6,7)	InChI=1S/C5H6N2O2/c8-2-1-4-5(9)7-3-6-4/h2-3,9H,1H2,(H,6,7)
