18
gdb 39304	2.65021	2.12126	1.83828	1.76	69.41	-0.2242	0.0667	0.2909	842.8564	0.15208	-439.052603	-439.046427	-439.045483	-439.082869	26.131	
C	-0.0448057686	 1.5570372307	-0.0568414856	-0.099168
O	 1.3161578452	 2.0213159888	-0.0681509024	-0.27435
C	 2.1287555287	 0.9287941693	-0.4387848891	 0.126434
C	 2.6042422397	-0.0795640157	 0.6686823552	-0.093153
C	 1.6188447593	-0.0642199523	 1.8307727965	-0.05613
O	 0.3076965912	-0.3907478628	 1.3664015355	-0.265222
C	 0.0448458494	 0.0277757272	 0.0381709545	 0.094678
C	 1.2711767869	-0.2649725244	-0.877053505	-0.083451
N	 2.1918827941	-1.2367552179	-0.2077854623	-0.315501
H	-0.5632555023	 1.9856161559	 0.8048581973	 0.120262
H	-0.5567734609	 1.8761672917	-0.9768668634	 0.095705
H	 2.9256094108	 1.262237924	-1.1080464144	 0.077895
H	 3.643671356	-0.0639984067	 1.0036973936	 0.073016
H	 1.8787149108	-0.8291393226	 2.5683644781	 0.112572
H	 1.6302769797	 0.9216883693	 2.3170668329	 0.102691
H	-0.8752351483	-0.4750552616	-0.2671193902	 0.088991
H	 1.0080803575	-0.4524362893	-1.9197700276	 0.074098
H	 2.9523107508	-1.4253954036	-0.8588262237	 0.220634
179.0434	261.7565	397.706	403.2699	422.6683	554.2909	628.8505	675.9611	747.5103	812.8542	819.4727	843.9013	884.7461	915.0133	919.2048	946.8283	987.4266	1003.4635	1013.1542	1026.564	1053.5522	1097.7872	1125.3512	1125.5969	1168.3315	1205.329	1223.7209	1234.5918	1257.8809	1267.5998	1301.4941	1322.3216	1349.0858	1354.4955	1387.9399	1397.6256	1412.7945	1499.8871	1505.9996	2996.2553	3008.0939	3077.5265	3083.5057	3090.1197	3093.1947	3095.5957	3102.5382	3473.5014
C1OC2C3COC1C2N3	C1O[C@H]2[C@H]3CO[C@@H]1[C@@H]2N3	
InChI=1S/C6H9NO2/c1-3-6-5(7-3)4(8-1)2-9-6/h3-7H,1-2H2	InChI=1S/C6H9NO2/c1-3-6-5(7-3)4(8-1)2-9-6/h3-7H,1-2H2/t3-,4+,5+,6+/m1/s1
