19
gdb 63208	2.72755	1.61502	1.34228	1.9695	76.25	-0.2477	0.0079	0.2556	1026.3337	0.159044	-423.016685	-423.008364	-423.007419	-423.049222	32.283	
C	 0.1080324726	 1.5609649816	 0.0105161273	-0.431746
C	 0.0289177544	 0.035226649	-0.0217330126	 0.310161
O	-1.3387670968	-0.4006624444	 0.0424183073	-0.472496
C	 0.7438384765	-0.5936391858	-1.2053360689	-0.115027
C	 1.5643123668	-1.5850581734	-0.8576929142	-0.092886
C	 1.6214085143	-1.7858658301	 0.629536326	-0.129907
C	 2.7615157217	-1.0338908305	 1.3603881975	-0.077274
O	 1.8832236225	 0.0667070654	 1.6719967702	-0.291298
C	 0.7264283909	-0.6452980806	 1.177178949	 0.103994
H	 1.1443705028	 1.8934997573	 0.0962682746	 0.137305
H	-0.322364595	 1.9837429196	-0.9049321771	 0.097766
H	-0.4568486101	 1.9482115364	 0.8632776857	 0.124664
H	-1.774728754	-0.1284615648	-0.7721393303	 0.274657
H	 0.5665067923	-0.255267052	-2.2222637543	 0.090079
H	 2.1533072557	-2.1794808266	-1.548825484	 0.098905
H	 1.441394131	-2.8129213772	 0.9535434574	 0.086478
H	 3.1226231186	-1.5307957573	 2.2701658026	 0.098641
H	 3.6177745025	-0.7227902427	 0.7511735433	 0.103018
H	 0.0092864634	-0.870258104	 1.9722387205	 0.084967
101.7716	178.1555	194.1325	216.011	248.971	332.7239	342.1058	392.5772	451.0802	579.177	595.6715	711.0648	789.2837	824.0123	841.2876	874.0696	895.9264	935.1306	965.8446	978.8672	994.6517	1032.3087	1056.7268	1078.4558	1101.566	1131.9447	1155.0882	1167.1189	1183.4022	1226.0263	1258.114	1302.8869	1320.923	1349.2198	1363.6978	1391.5678	1401.405	1485.0898	1493.7155	1520.8968	1675.036	3011.3269	3033.2965	3062.4795	3067.5401	3091.2979	3102.9512	3137.892	3165.8628	3192.9168	3809.1157
CC1(O)C=CC2COC12	C[C@@]1(O)C=C[C@H]2CO[C@@H]12	
InChI=1S/C7H10O2/c1-7(8)3-2-5-4-9-6(5)7/h2-3,5-6,8H,4H2,1H3	InChI=1S/C7H10O2/c1-7(8)3-2-5-4-9-6(5)7/h2-3,5-6,8H,4H2,1H3/t5-,6+,7+/m0/s1
