19
gdb 81138	2.47734	1.62612	1.21148	1.3562	81.56	-0.2405	0.0395	0.28	1079.9413	0.159132	-385.836316	-385.828116	-385.827171	-385.868666	32.604	
C	-0.1779299571	 1.5417628809	-0.0120683189	-0.437946
C	 0.0106239352	 0.0333910992	-0.0176652125	-0.003071
C	 1.1663592769	-0.5984165218	-0.8414011262	 0.067608
C	 2.1338009156	-0.2377642246	 0.3070790319	-0.28611
C	 0.8631650553	-0.6037315782	 1.1585171205	 0.20121
C	 0.7307619777	-2.0916121779	 0.7671288332	-0.124036
O	 0.9545990016	-2.0081016825	-0.6564474985	-0.281462
C	 0.6933406592	-0.238693081	 2.5371589663	 0.065532
C	 0.5386769548	 0.0768324752	 3.687981104	-0.357838
H	 0.7584678521	 2.0960807869	 0.0887296584	 0.121181
H	-0.6570107084	 1.8666956897	-0.941701763	 0.121034
H	-0.8261056131	 1.8388173817	 0.8188232604	 0.132062
H	-0.9510958017	-0.464000247	-0.1802134978	 0.080413
H	 1.3543708249	-0.3864167623	-1.8925786	 0.081587
H	 3.0164497037	-0.8690703086	 0.4279423973	 0.107646
H	 2.3993889686	 0.8153972038	 0.3715708944	 0.114925
H	 1.4891565065	-2.7261218929	 1.2387825851	 0.10782
H	-0.2642885452	-2.4983738976	 0.9774591366	 0.1084
H	 0.4070881133	 0.353361967	 4.7046756887	 0.181048
119.9986	146.7008	178.0427	268.0398	287.1216	355.6655	466.3021	483.7768	505.7281	540.1457	563.9378	628.9249	636.4415	660.5523	792.3378	829.1017	881.3966	914.2181	942.3066	959.	1003.7109	1028.6142	1046.1081	1087.2422	1103.6749	1133.5509	1157.3557	1185.1432	1200.1744	1235.3168	1243.7164	1248.0338	1291.9632	1361.9928	1385.3794	1416.6396	1485.9856	1496.3374	1506.9382	1528.6843	2233.5032	3030.8586	3038.8146	3055.4136	3076.2291	3085.9782	3099.6289	3118.0826	3139.974	3163.9034	3502.1906
CC1C2CC1(CO2)C#C	C[C@H]1[C@H]2C[C@@]1(CO2)C#C	
InChI=1S/C8H10O/c1-3-8-4-7(6(8)2)9-5-8/h1,6-7H,4-5H2,2H3	InChI=1S/C8H10O/c1-3-8-4-7(6(8)2)9-5-8/h1,6-7H,4-5H2,2H3/t6-,7+,8+/m0/s1
