15
gdb 54754	3.03774	1.80245	1.4064	2.7235	64.15	-0.2457	0.0061	0.2517	905.3025	0.114583	-453.943276	-453.936459	-453.935515	-453.974281	27.468	
O	 0.3784663102	 0.3460523521	-0.303887344	-0.350758
C	-0.1077243721	 1.3039268381	 0.2252156032	 0.444557
O	 0.5977967959	 2.1297326434	 1.064898719	-0.267254
C	-1.4971912028	 1.8413943907	 0.1225226011	-0.240448
C	-2.181580541	 2.2691781756	 1.4539348095	-0.015439
N	-1.2405390498	 2.4251813901	 2.5577018368	-0.329708
C	-0.3200593632	 3.1193462615	 1.6325032388	 0.407969
N	 0.3465531824	 4.242091602	 2.1565441483	-0.587354
H	 0.7658881233	 4.0214741525	 3.0540591115	 0.246899
H	 1.0777865263	 4.5512285747	 1.5236675994	 0.246003
C	-1.478530488	 3.2679629284	 0.6026469119	-0.142515
H	-2.1307579542	 1.5122797747	-0.6896453609	 0.12149
H	-3.2371941885	 2.0927312758	 1.6137029056	 0.12157
H	-0.8481945045	 1.5592866371	 2.9272540212	 0.225165
H	-1.8097468737	 4.1560705033	 0.0858599785	 0.119822
154.9291	171.6086	312.7395	335.3323	417.0925	480.0755	505.98	628.988	649.1567	715.2504	732.3934	790.2985	811.756	824.2218	846.7264	882.1269	894.1463	937.5082	973.8434	1006.5688	1042.9841	1064.7644	1081.4086	1124.6307	1192.1665	1220.2633	1285.7695	1323.9264	1363.4619	1377.9244	1402.275	1643.6982	1878.891	3205.0553	3221.1083	3237.2012	3456.8684	3508.0485	3595.1369
[O-]C(=O)C1C2NC(=[NH2+])C12	O=C1O[C@@]2(N[C@@H]3[C@H]1[C@H]23)N	
InChI=1S/C5H6N2O2/c6-4-1-2(5(8)9)3(1)7-4/h1-3H,(H2,6,7)(H,8,9)	InChI=1S/C5H6N2O2/c6-5-2-1(3(2)7-5)4(8)9-5/h1-3,7H,6H2/t1-,2+,3-,5-/m1/s1
