23
gdb 58330	3.37325	0.66804	0.58374	3.6077	83.67	-0.246	-0.0174	0.2286	1910.9394	0.202052	-425.442505	-425.431148	-425.430204	-425.480084	40.27	
C	 0.1046513493	 1.5535481342	-0.0292077074	-0.417909
C	-0.0049458062	 0.0278518434	-0.0341461346	 0.133715
O	 0.7439064381	-0.521724476	 1.0512338272	-0.429388
C	-1.458400509	-0.5003032325	-0.0287316197	 0.018119
C	-2.2870323166	 0.0752114464	-1.1866374704	-0.40814
C	-1.4553831336	-2.0415667529	-0.0385919827	-0.195448
C	-2.8074018993	-2.6830017439	 0.3197809915	-0.286702
C	-2.6876437475	-4.1841745008	 0.4514848093	 0.160379
O	-3.3477082849	-4.9885810158	-0.1540986009	-0.238469
H	 1.1546230051	 1.8419121822	 0.0687797053	 0.126834
H	-0.2884168069	 1.9997810988	-0.946062623	 0.124284
H	-0.4486940573	 1.9828664666	 0.8164876135	 0.106024
H	 0.4973485922	-0.3612708226	-0.9300755537	 0.088923
H	 0.4163119657	-0.1176528689	 1.8627520157	 0.275097
H	-1.9123851803	-0.1686334682	 0.9198242395	 0.056583
H	-3.2906519851	-0.3580930167	-1.2099196555	 0.121357
H	-2.4047800056	 1.1589283918	-1.108448093	 0.118782
H	-1.8120448751	-0.1431076625	-2.1507463283	 0.118361
H	-1.1407130574	-2.3927475336	-1.0308182115	 0.103729
H	-0.6940551896	-2.3842360054	 0.6693735411	 0.119431
H	-3.1391887102	-2.2955691152	 1.2951963369	 0.112969
H	-3.5882133596	-2.4668453391	-0.4139534594	 0.121196
H	-1.9055605563	-4.5159434493	 1.1755958201	 0.070272
52.3594	54.7831	81.9776	93.561	161.8492	196.284	232.2119	272.2021	294.0121	301.7023	350.4858	378.4486	450.4075	463.153	525.2108	534.0078	767.0967	808.5087	852.9012	890.9991	936.8493	967.9986	992.6295	1014.4664	1054.3905	1080.7444	1087.0487	1145.9577	1160.6354	1172.1425	1214.7295	1246.4304	1285.6178	1304.3724	1330.0104	1355.913	1375.4842	1385.8571	1403.9284	1413.1494	1420.5665	1430.1784	1465.6398	1491.5528	1492.2488	1496.9245	1502.3609	1513.0419	1836.092	2849.0912	2967.8051	3002.291	3018.3635	3022.9016	3029.3818	3035.3197	3078.6736	3100.1674	3100.9992	3106.5325	3116.7115	3127.9348	3795.4555
CC(O)C(C)CCC=O	C[C@@H](O)[C@@H](C)CCC=O	
InChI=1S/C7H14O2/c1-6(7(2)9)4-3-5-8/h5-7,9H,3-4H2,1-2H3	InChI=1S/C7H14O2/c1-6(7(2)9)4-3-5-8/h5-7,9H,3-4H2,1-2H3/t6-,7+/m0/s1
