20
gdb 124614	2.45718	1.39362	1.11151	4.7613	81.16	-0.2421	0.0078	0.2499	1202.2259	0.170973	-399.348114	-399.338753	-399.337809	-399.38268	34.119	
C	-0.0583614284	 1.5518019423	-0.0075671889	-0.38008
C	-0.0014035274	 0.0209037026	 0.0233617325	 0.028338
C	 0.7468368203	-0.5130786865	 1.2492656746	-0.38008
N	-1.3569572047	-0.5397475616	-0.0293109569	 0.00229
N	-2.22857545	-0.2729796306	 0.9678445073	-0.159981
N	-3.3474300821	-0.8787712456	 0.6890534642	-0.190267
C	-3.2026772395	-1.5392916231	-0.4895188005	-0.160186
C	-1.928427047	-1.3363603641	-0.9725857407	 0.314917
C	-1.2463593638	-1.8216179255	-2.2074713492	-0.504386
H	 0.9551737589	 1.9632955362	-0.009946671	 0.118414
H	-0.5784191436	 1.9074476652	-0.901487838	 0.122914
H	-0.5892922498	 1.9274867058	 0.87017549	 0.153337
H	 0.4977312708	-0.3358778923	-0.8825692139	 0.097147
H	 0.2407403359	-0.2010595629	 2.165761801	 0.153344
H	 0.7915388879	-1.6057294164	 1.2368796087	 0.122917
H	 1.7694454979	-0.1248531726	 1.2610366841	 0.118409
H	-4.0052229923	-2.1154623644	-0.9222842277	 0.117581
H	-0.9226858816	-0.9970020153	-2.8525256431	 0.14026
H	-0.3634848089	-2.4298271613	-1.9806235571	 0.140257
H	-1.9352650225	-2.4418804099	-2.7849326855	 0.144857
38.0799	128.0043	152.9237	191.6503	223.2644	253.9144	254.7642	288.6155	373.665	424.7079	515.1604	622.2622	680.4808	707.2425	724.8191	838.0872	891.4171	934.886	954.0501	985.6704	1008.3444	1064.5921	1067.2577	1144.7669	1148.9363	1151.6135	1207.2556	1250.1919	1299.0706	1344.482	1346.0492	1398.8178	1402.2102	1420.2992	1421.8512	1449.9804	1480.8805	1485.2404	1490.3663	1495.8712	1505.5084	1514.3107	1590.9569	3031.2762	3045.2926	3049.0691	3067.0816	3082.1617	3116.7877	3120.4334	3126.4948	3134.365	3139.8513	3263.0277
CC(C)N1N=NC=C1C	CC(C)n1nncc1C	
InChI=1S/C6H11N3/c1-5(2)9-6(3)4-7-8-9/h4-5H,1-3H3	InChI=1S/C6H11N3/c1-5(2)9-6(3)4-7-8-9/h4-5H,1-3H3
