17
gdb 88934	2.842	1.00533	0.91591	1.848	71.36	-0.2654	-0.0851	0.1803	1342.8441	0.13294	-458.977749	-458.96834	-458.967396	-459.013796	32.594	
C	-0.1592012123	 1.4776537036	 0.4819804184	-0.412121
C	 0.0442415167	 0.0073752712	 0.1925192028	-0.018629
C	 1.3773058175	-0.4983688235	-0.3273920724	-0.331589
C	 0.9364377308	-0.8411578398	 1.0587582758	 0.118603
O	 1.6608550998	-0.1910768421	 2.0956345369	-0.214918
C	 1.3186138687	-0.4957763982	 3.3480435741	 0.337821
O	 0.4775492611	-1.2862496289	 3.6960322214	-0.34024
C	 2.1436880447	 0.2868188624	 4.3756345197	 0.090211
O	 2.9610247828	 1.1199506054	 4.1040069412	-0.212833
H	 0.7453137494	 1.9285781179	 0.8980022288	 0.135558
H	-0.4188427163	 2.0197587423	-0.4329232844	 0.123941
H	-0.9706735861	 1.6283349212	 1.2021280578	 0.124284
H	-0.8366696506	-0.5102538694	-0.1781088726	 0.098239
H	 1.4030637376	-1.2881931365	-1.0695487859	 0.122806
H	 2.1773348333	 0.2298485952	-0.409383011	 0.133985
H	 0.6384689104	-1.8472144313	 1.3246534828	 0.128735
H	 1.8797092227	-0.0092532896	 5.4106436466	 0.116148
23.3827	60.273	123.0614	135.7118	194.9532	237.7249	263.7334	326.6098	413.7864	512.9894	533.1757	616.1212	691.8411	783.3527	825.2506	845.1205	891.1479	947.8985	997.3544	1028.7739	1053.4075	1091.4893	1103.2924	1138.8254	1166.5234	1193.1484	1233.4503	1301.1481	1373.7867	1379.0543	1409.9002	1421.6947	1484.8166	1495.7622	1504.9151	1807.1132	1841.7837	2946.4101	3036.6713	3096.9465	3118.0897	3136.2875	3144.3793	3196.9458	3225.7172
CC1CC1OC(=O)C=O	C[C@H]1C[C@H]1OC(=O)C=O	
InChI=1S/C6H8O3/c1-4-2-5(4)9-6(8)3-7/h3-5H,2H2,1H3	InChI=1S/C6H8O3/c1-4-2-5(4)9-6(8)3-7/h3-5H,2H2,1H3/t4-,5+/m0/s1
