20
gdb 58209	2.72971	1.08173	0.81777	2.4181	76.56	-0.242	0.0244	0.2664	1395.6605	0.170813	-436.464851	-436.454508	-436.453564	-436.500072	38.112	
C	 0.0459421742	 1.5809465094	-0.0801006927	-0.393856
C	 0.0229846581	 0.0621591191	 0.0685582591	 0.134793
O	 0.6998373177	-0.2320543475	 1.2725251191	-0.44363
C	-1.4240231306	-0.5044282935	 0.0471391465	-0.009827
N	-2.2155152358	-0.1138750027	-1.1183450136	-0.501135
C	-1.4383410292	-2.0585934854	 0.0872321219	-0.13336
N	-0.7142027926	-2.6028626222	 1.2485748563	-0.517643
C	-2.8220403529	-2.5724790395	 0.0233846612	 0.287337
N	-3.8764123683	-3.0448046126	 0.0627427372	-0.326752
H	 1.0772655638	 1.9310684293	 0.009443743	 0.132188
H	-0.3463618597	 1.9062548668	-1.0465968564	 0.101069
H	-0.5382850233	 2.0509700936	 0.7185437953	 0.119491
H	 0.5533474355	-0.3822036723	-0.7985805155	 0.047818
H	 0.5810219477	-1.1841070824	 1.4286672939	 0.288933
H	-1.940113367	-0.1378043544	 0.9437022058	 0.098881
H	-2.4996018457	 0.8561137314	-1.0503744502	 0.243879
H	-1.6645378282	-0.2006494834	-1.9685350182	 0.230291
H	-0.9158390945	-2.4099387693	-0.8121101466	 0.129862
H	-1.2540417822	-2.4416751004	 2.0951878025	 0.256863
H	-0.6127682671	-3.6090737741	 1.1568482313	 0.254799
60.3452	83.8087	145.5291	211.118	237.7221	255.5349	271.1965	273.2011	323.459	356.6447	369.0916	393.4701	483.8596	517.8318	574.4818	610.9731	714.1484	817.8833	868.402	883.4137	923.0493	964.4102	1005.1641	1078.1606	1090.431	1115.5461	1129.3699	1132.4328	1168.4227	1244.8148	1279.3871	1326.1086	1347.8446	1374.4674	1394.0694	1396.3088	1402.2926	1471.7399	1490.3913	1499.1649	1657.8497	1662.0369	2350.6479	2888.0569	3027.3325	3041.5194	3044.5526	3114.6973	3129.8114	3493.3604	3494.4789	3572.1667	3593.1448	3622.9091
CC(O)C(N)C(N)C#N	C[C@@H](O)[C@@H](N)[C@@H](N)C#N	
InChI=1S/C5H11N3O/c1-3(9)5(8)4(7)2-6/h3-5,9H,7-8H2,1H3	InChI=1S/C5H11N3O/c1-3(9)5(8)4(7)2-6/h3-5,9H,7-8H2,1H3/t3-,4+,5-/m1/s1
