17
gdb 114916	2.93458	1.31817	0.95605	2.2084	71.22	-0.246	-0.0654	0.1806	1191.5955	0.136867	-455.181226	-455.17253	-455.171586	-455.214772	32.32	
N	 0.0780844912	 1.3328384285	 0.015057469	-0.569371
C	-0.0322448811	-0.0183884294	 0.0129910835	 0.301682
N	-1.1128621105	-0.7081846208	 0.0825695113	-0.281864
C	-0.7864288591	-2.1377962322	-0.0391923634	-0.199261
C	 0.7489856094	-2.2891849021	-0.0916532701	-0.147225
C	 1.327157246	-3.0847581392	-1.27792784	-0.068377
O	 2.7312770386	-3.1723257326	-1.2175632269	-0.423581
C	 1.2112479111	-0.846639076	-0.139238879	 0.343664
O	 2.3350394857	-0.4180642409	-0.3000540945	-0.355705
H	 1.0001924128	 1.7165920406	 0.142718435	 0.271156
H	-0.7131584764	 1.8893095131	 0.2912208783	 0.267347
H	-1.2291843274	-2.6825260393	 0.8012575184	 0.118242
H	-1.2616417242	-2.5315342025	-0.947476465	 0.118664
H	 1.1408020641	-2.740072758	 0.8280216222	 0.121554
H	 0.9408987891	-4.1091766259	-1.2554899848	 0.11403
H	 0.9810650743	-2.6267744534	-2.2205093027	 0.091588
H	 3.0669748363	-2.2731165898	-1.0990988514	 0.297456
54.3269	151.0545	184.7374	222.8924	269.5824	289.5457	328.8173	389.2433	430.9494	507.5991	530.9908	555.1949	619.7775	715.8227	733.7099	797.4064	903.1001	946.2194	990.7813	1053.6645	1083.1598	1089.784	1123.2634	1163.4373	1195.2264	1216.125	1264.9357	1291.9726	1349.055	1379.4017	1422.6482	1452.0187	1493.6243	1515.4336	1607.4363	1721.0071	1800.6569	2958.4303	3020.7251	3043.5722	3066.2091	3069.5635	3601.7726	3727.1825	3745.651
NC1=NCC(CO)C1=O	NC1=NC[C@@H](CO)C1=O	
InChI=1S/C5H8N2O2/c6-5-4(9)3(2-8)1-7-5/h3,8H,1-2H2,(H2,6,7)	InChI=1S/C5H8N2O2/c6-5-4(9)3(2-8)1-7-5/h3,8H,1-2H2,(H2,6,7)/t3-/m0/s1
