18
gdb 102944	3.06037	0.73772	0.61821	2.7919	74.78	-0.2605	-0.0316	0.229	1733.793	0.14443	-439.093746	-439.083406	-439.082462	-439.130668	34.634	
C	 0.0261094238	 1.3711763001	 0.2036544139	-0.251366
O	-0.0664681709	 0.017444906	-0.2116497817	-0.231631
C	-1.3394346057	-0.5566577057	-0.041582936	-0.023472
C	-1.34710561	-1.9210040328	-0.7452086844	-0.221081
C	-1.1006906336	-1.7844339137	-2.2550319075	-0.285988
C	-0.9215749101	-3.1307832138	-2.9207805834	 0.15576
O	-1.5411622038	-3.5119566482	-3.8788127454	-0.232095
C	-1.6725706922	-0.7101989586	 1.3946658118	 0.275142
N	-1.9245955434	-0.8229675533	 2.5166273275	-0.317658
H	 1.044287762	 1.6961998808	-0.0162514943	 0.142769
H	-0.6833570501	 2.0061162096	-0.3465217151	 0.116994
H	-0.1625479554	 1.4763822626	 1.2798907112	 0.139465
H	-2.1149066344	 0.0903645496	-0.4856644632	 0.116431
H	-0.5706063953	-2.5423084885	-0.2856019218	 0.134975
H	-2.3090629707	-2.4067290493	-0.5531728295	 0.135732
H	-1.9172121331	-1.2543572988	-2.7543941997	 0.123256
H	-0.1749720535	-1.2133579578	-2.4029315147	 0.14531
H	-0.1405570735	-3.7730901082	-2.4495337675	 0.077455
53.5861	61.6806	92.3556	107.6726	130.3997	174.9228	226.787	282.4404	299.7726	312.5309	452.3335	512.4844	583.1765	599.9463	755.6242	827.7123	901.9726	966.7344	1008.8072	1045.3176	1093.3676	1122.0475	1152.4519	1184.3322	1191.6395	1239.7853	1255.6807	1317.5688	1332.3622	1368.8556	1390.3272	1431.0803	1464.6071	1480.1672	1483.9899	1489.2272	1507.8982	1839.1906	2354.0207	2856.5259	2967.0418	2996.6271	3035.1373	3051.6789	3059.6263	3090.3227	3108.8176	3136.9563
COC(CCC=O)C#N	CO[C@@H](CCC=O)C#N	
InChI=1S/C6H9NO2/c1-9-6(5-7)3-2-4-8/h4,6H,2-3H2,1H3	InChI=1S/C6H9NO2/c1-9-6(5-7)3-2-4-8/h4,6H,2-3H2,1H3/t6-/m0/s1
