21
gdb 105673	2.02104	1.34537	1.21729	2.7464	78.81	-0.2425	-0.0307	0.2118	1215.4406	0.179752	-424.225441	-424.215323	-424.214379	-424.260808	36.322	
C	 0.5972673472	 1.5554037321	 0.4027926383	-0.398713
C	-0.0647012576	 0.2183887443	 0.0480445345	-0.2317
C	 0.5252368565	-0.4068187694	-1.2105543558	 0.320679
O	 1.9546135082	-0.6292925195	-1.1149746869	-0.324398
C	 1.7955264195	-2.0625728431	-1.1448382419	-0.085413
C	 0.2923285254	-1.9426076074	-1.4654206888	-0.086068
C	-0.7161879705	-2.718199736	-0.6337751861	-0.418715
C	 0.2064599111	 0.3944282463	-2.4637576424	 0.122868
O	-0.807917996	 1.0194319423	-2.6378835369	-0.258611
H	 1.6785959148	 1.4309932181	 0.5073890162	 0.134278
H	 0.4101788196	 2.3083703999	-0.3683181503	 0.130648
H	 0.2035455371	 1.9409751287	 1.3474269778	 0.112869
H	 0.0519084871	-0.479860482	 0.8826824987	 0.095484
H	-1.1382243875	 0.3582378559	-0.1178393112	 0.119158
H	 2.4288547102	-2.5305075669	-1.9064983367	 0.107968
H	 2.0168686163	-2.5167933873	-0.1692243044	 0.101302
H	 0.1040314923	-2.1271428087	-2.5283260366	 0.090309
H	-0.5365866419	-2.6070142484	 0.4391784134	 0.125641
H	-1.7395338642	-2.3913868927	-0.8433476544	 0.133495
H	-0.6556155761	-3.7857761812	-0.8712892068	 0.123225
H	 0.9983759285	 0.3144426948	-3.2435179198	 0.085695
63.9679	78.7316	105.4223	173.8325	207.7537	224.4092	235.3251	260.1527	300.8062	372.6589	436.1839	481.4361	513.2841	706.6175	727.885	799.5952	889.892	905.089	924.3903	971.7153	998.3576	1022.0088	1034.3466	1054.6458	1118.8476	1137.5274	1152.7003	1174.716	1181.1235	1235.9373	1285.1059	1314.9944	1342.9087	1360.3663	1389.7508	1397.5402	1407.9261	1414.2056	1467.9361	1496.7066	1498.9613	1502.9429	1510.8398	1526.9846	1825.1748	2876.1055	3006.0045	3037.2833	3042.7191	3045.9615	3047.9601	3066.6843	3087.5843	3101.5996	3115.317	3117.6819	3125.4029
CCC1(OCC1C)C=O	CC[C@]1(OC[C@H]1C)C=O	
InChI=1S/C7H12O2/c1-3-7(5-8)6(2)4-9-7/h5-6H,3-4H2,1-2H3	InChI=1S/C7H12O2/c1-3-7(5-8)6(2)4-9-7/h5-6H,3-4H2,1-2H3/t6-,7+/m1/s1
