19
gdb 100285	2.21866	1.45852	1.08969	5.0483	67.52	-0.2414	0.0128	0.2542	1157.2067	0.16061	-493.50733	-493.498002	-493.497058	-493.541019	35.329	
N	 0.0692426254	 1.449092054	 0.1359920316	-0.556373
C	 0.0724825464	-0.0201879503	-0.0235369138	 0.084236
C	 0.7442861467	-0.3724381319	-1.3633641782	-0.190741
N	 0.0366253568	 0.2974059683	-2.4719330791	-0.536319
H	 0.3419614941	-0.06024867	-3.3703532403	 0.251278
H	-1.5072869504	-0.0973703508	-1.7948442382	 0.318335
H	 0.2514766069	 1.2901411517	-2.448067128	 0.256148
C	 0.8940844183	-0.6177399962	 1.1361615192	-0.086972
O	 0.3996063389	-0.2202574311	 2.3945082449	-0.429124
C	-1.3798135478	-0.5581626432	 0.0478151108	 0.406808
O	-2.1059046046	-0.4196009808	-1.0604791953	-0.379268
O	-1.8604041379	-1.0203226109	 1.06114029	-0.364528
H	 0.0437193162	 1.6382304724	 1.136391999	 0.251467
H	-0.7779496441	 1.8527466156	-0.2531614842	 0.233402
H	 1.8011558071	-0.0815968559	-1.3049995406	 0.113361
H	 0.6961683806	-1.4534953558	-1.533920109	 0.120862
H	 0.9195929745	-1.7125940895	 1.0321343685	 0.097398
H	 1.9210525363	-0.2434616761	 1.0651421688	 0.109701
H	-0.5093170334	-0.5621388994	 2.4174939638	 0.30033
88.9803	143.2582	184.5932	211.4523	262.3203	290.9882	309.0039	332.9837	360.5764	406.892	420.6112	449.8947	582.6353	643.8504	690.5733	770.7501	781.6953	866.3147	908.0687	946.8322	971.0052	1021.4944	1045.9952	1063.5436	1093.1387	1106.3455	1168.8544	1212.5479	1264.6653	1280.3278	1301.9543	1366.0047	1394.7892	1419.178	1464.3446	1490.0341	1498.2223	1519.8747	1635.0697	1662.4065	1808.5323	2995.3419	3015.524	3070.6859	3079.3226	3097.8825	3476.49	3504.8644	3554.5276	3587.2169	3677.1285
NC(C[NH3+])(CO)C([O-])=O	N[C@@](CN)(CO)C(=O)O	
InChI=1S/C4H10N2O3/c5-1-4(6,2-7)3(8)9/h7H,1-2,5-6H2,(H,8,9)	InChI=1S/C4H10N2O3/c5-1-4(6,2-7)3(8)9/h7H,1-2,5-6H2,(H,8,9)/t4-/m0/s1
