18
gdb 54990	3.31626	1.09413	1.02815	3.8557	73.6	-0.2491	0.0071	0.2562	1238.0424	0.146775	-439.087875	-439.07904	-439.078096	-439.121927	32.806	
N	 0.1531266892	 1.3790898733	-0.6909024531	-0.535356
C	-0.110477872	 0.4536887722	 0.2814805461	 0.415147
O	 0.6248129282	 0.2582477602	 1.2276689471	-0.361654
C	-1.4296276315	-0.2598778834	 0.1063179219	-0.184428
O	-1.4644315757	-1.6204123555	 0.5503753877	-0.267763
C	-2.2097064745	-0.6807949436	 1.2868988739	 0.470425
C	-2.0026704767	-0.3265440899	 2.7590479602	-0.296399
C	-3.5205253081	 0.0284128237	 2.8190884187	-0.217538
C	-3.7326335056	-0.6879602254	 1.4501179773	-0.314476
H	 1.0490752049	 1.8390316533	-0.6627625372	 0.264292
H	-0.3610212465	 1.399803583	-1.5545941015	 0.260466
H	-1.9662600381	-0.0777095728	-0.8269240885	 0.085464
H	-1.7560354219	-1.2195210449	 3.3402863359	 0.118211
H	-1.2736397009	 0.4502094229	 2.987472614	 0.129118
H	-4.0828745268	-0.3685746871	 3.6654323005	 0.105755
H	-3.6977557381	 1.1044405371	 2.7553442467	 0.107246
H	-4.3287808365	-0.1774698872	 0.6898057946	 0.102799
H	-4.1077880994	-1.709182006	 1.5655900358	 0.118693
52.6123	97.1715	150.7697	165.7152	261.1715	309.9529	343.1685	415.9251	425.9345	543.4617	577.5189	640.8042	709.3581	770.7826	774.7383	840.142	875.1751	906.2771	922.3479	929.4116	1011.1649	1027.4899	1053.3209	1091.958	1140.8912	1158.7161	1202.0279	1222.1527	1242.9675	1261.2713	1273.228	1288.9284	1381.9753	1467.9198	1476.503	1481.0789	1513.2111	1617.922	1802.7202	3057.8671	3073.3015	3074.6545	3085.6114	3107.6767	3127.9276	3145.1566	3597.0675	3729.5904
NC(=O)C1OC11CCC1	NC(=O)[C@H]1OC21CCC2	
InChI=1S/C6H9NO2/c7-5(8)4-6(9-4)2-1-3-6/h4H,1-3H2,(H2,7,8)	InChI=1S/C6H9NO2/c7-5(8)4-6(9-4)2-1-3-6/h4H,1-3H2,(H2,7,8)/t4-/m1/s1
