18
gdb 127400	3.05726	1.62626	1.09819	2.8028	78.99	-0.1803	0.0265	0.2068	1084.145	0.151471	-398.133601	-398.126039	-398.125095	-398.165471	29.246	
C	-0.1386973066	 1.4988708766	-0.0711764783	-0.331779
N	 0.0550036685	 0.0648331659	 0.0264312252	-0.177971
C	 0.7136628532	-0.5565881875	-1.1501245513	-0.151302
C	 1.3564359212	-1.8899676869	-0.6492234651	-0.366129
C	 1.5276822118	-1.5339331197	 0.7950935391	 0.306456
C	 0.7756938434	-0.4364046617	 1.1285694834	 0.266646
C	 0.941937356	-0.270626833	 2.5167987954	-0.151998
N	 1.7499076478	-1.2233879463	 3.0054246522	-0.228888
N	 2.0765131127	-1.993739067	 1.9444133366	-0.324821
H	 0.8082189221	 2.0568616348	-0.1884405145	 0.099668
H	-0.7783354551	 1.7253681107	-0.9299902835	 0.119982
H	-0.6440835527	 1.8642043038	 0.8271834437	 0.128945
H	-0.0050817067	-0.7082388597	-1.9604725081	 0.108153
H	 1.513686861	 0.1062491757	-1.5223974101	 0.093209
H	 0.6704339667	-2.7374753559	-0.781276707	 0.121334
H	 2.2762044492	-2.1223715514	-1.1938562349	 0.116102
H	 0.5403174596	 0.4754438477	 3.1852955286	 0.103755
H	 2.7000271378	-2.7690301961	 2.0871786986	 0.268638
134.8322	167.9684	227.11	239.2566	271.463	387.0405	464.9774	479.8333	581.6852	633.9205	674.4424	701.8494	738.8862	836.4384	852.3497	939.1072	973.0506	995.7517	1070.1854	1092.0581	1109.2086	1145.5128	1172.1649	1198.1378	1222.8242	1227.9732	1275.9522	1294.323	1336.4954	1366.5078	1408.656	1452.0866	1462.1264	1487.3076	1491.1635	1500.3172	1516.0429	1566.7467	1617.833	2940.1776	2954.0017	3012.8301	3067.6923	3075.389	3082.5472	3111.056	3250.5428	3680.2635
CN1CCC2=C1C=NN2	CN1CCc2c1cn[nH]2	
InChI=1S/C6H9N3/c1-9-3-2-5-6(9)4-7-8-5/h4H,2-3H2,1H3,(H,7,8)	InChI=1S/C6H9N3/c1-9-3-2-5-6(9)4-7-8-5/h4H,2-3H2,1H3,(H,7,8)
