21
gdb 117853	2.34287	0.96222	0.82069	0.9035	70.25	-0.2496	0.0464	0.296	1471.0682	0.179749	-498.478643	-498.467503	-498.466559	-498.515202	40.168	
O	 0.0237789404	 1.5353138331	-0.0047712188	-0.419542
C	 0.0547156639	 0.1150657771	 0.0148411231	-0.076648
C	-1.3538660313	-0.4857489299	 0.0816706333	-0.234405
C	-1.4054860594	-2.0184940424	 0.0785074453	 0.298536
O	-0.713142623	-2.4788355878	-1.0777171722	-0.471804
C	-0.7172493591	-2.6396913878	 1.3153417108	-0.121894
O	-1.3405295291	-2.3053955829	 2.5475898141	-0.421165
C	-2.8686828676	-2.4922727339	-0.0028470186	-0.111916
O	-2.9299500654	-3.8810245923	-0.3299547771	-0.436853
H	-0.3837557979	 1.8069243577	-0.8333615772	 0.281541
H	 0.5894641462	-0.2945286382	-0.8516508554	 0.118151
H	 0.6355133156	-0.1450136981	 0.9062605389	 0.100579
H	-1.8685772151	-0.0990269393	 0.9696941625	 0.097685
H	-1.9201414314	-0.1286246785	-0.7884957875	 0.093186
H	-1.0892664958	-3.3497710722	-1.2695221355	 0.2871
H	-0.7755743111	-3.7309475546	 1.230984121	 0.093232
H	 0.3494374206	-2.383764885	 1.3067485185	 0.108772
H	-1.0999341794	-1.4017499775	 2.7726279176	 0.293
H	-3.391710096	-2.275431117	 0.9347928884	 0.114299
H	-3.3730685062	-1.9695617364	-0.8214014349	 0.110475
H	-2.8525834791	-4.386459994	 0.4848938538	 0.29767
56.7093	81.0061	88.8695	140.5466	174.3256	237.9334	283.3257	299.4483	306.1964	312.1441	344.1273	349.0293	383.55	433.6613	516.9166	539.2939	644.7722	779.7451	801.5592	887.0334	921.9421	985.3253	1026.1942	1060.7954	1064.9867	1075.3195	1094.9505	1117.5558	1163.8635	1192.9331	1211.1396	1271.8088	1294.0011	1336.045	1365.483	1376.5066	1394.0104	1396.0649	1413.782	1421.3396	1436.1547	1475.4884	1488.4361	1506.7917	1516.7397	3017.8087	3024.1844	3028.7	3042.5971	3055.7154	3068.2241	3081.8807	3098.5422	3738.106	3816.0239	3829.6948	3831.4016
OCCC(O)(CO)CO	OCCC(O)(CO)CO	
InChI=1S/C5H12O4/c6-2-1-5(9,3-7)4-8/h6-9H,1-4H2	InChI=1S/C5H12O4/c6-2-1-5(9,3-7)4-8/h6-9H,1-4H2
