23
gdb 118967	2.40175	1.12746	0.9893	2.1195	82.31	-0.2427	0.0751	0.3178	1377.6443	0.202727	-425.411444	-425.400805	-425.399861	-425.447658	38.511	
C	 0.0243023616	 1.5353294646	 0.1030010952	-0.383072
C	-0.0022762214	 0.0207910499	-0.0230879861	-0.055755
O	 0.3923291953	-0.5293349372	 1.2231090361	-0.291662
C	 0.6532261492	-1.9156532578	 1.2398447789	 0.352634
C	-0.5801928553	-2.7577211024	 0.9320599284	-0.460472
C	 1.9560498459	-2.3643559742	 0.524826609	-0.120572
O	 2.52023541	-2.8368178557	 1.7612587731	-0.294184
C	 1.4055503802	-2.3290445998	 2.5384464058	 0.101928
C	 1.818561999	-1.2389285587	 3.5065829722	-0.391752
H	 1.0327634602	 1.8842492192	 0.342114473	 0.126182
H	-0.2944024767	 2.0020230811	-0.8339124802	 0.114698
H	-0.6486385234	 1.8631680975	 0.9004614541	 0.128197
H	-1.0117548599	-0.318922814	-0.2984821053	 0.09399
H	 0.6812707961	-0.3093459654	-0.8215281503	 0.090062
H	-0.9245279769	-2.6159355429	-0.0970405859	 0.118715
H	-0.3522247678	-3.819668983	 1.0611048268	 0.127767
H	-1.398337395	-2.4929721783	 1.6098616249	 0.123524
H	 1.8587733568	-3.1656557339	-0.2179467915	 0.094566
H	 2.5371402676	-1.5384297826	 0.0943136991	 0.095787
H	 0.9144669909	-3.1505046278	 3.0779705085	 0.068834
H	 2.2622961544	-0.3927699452	 2.9791040968	 0.125783
H	 0.9523234852	-0.8769708087	 4.0695725612	 0.116502
H	 2.5491168339	-1.641111985	 4.2153835562	 0.1183
43.9307	71.5063	104.6652	134.866	205.8652	230.9084	252.2627	272.344	296.33	323.2438	386.1593	411.1092	475.4112	526.9774	684.8455	787.7504	821.8214	875.0147	878.7227	918.2925	933.5396	985.2061	1019.1569	1035.3438	1086.2127	1094.0069	1129.263	1136.787	1164.7448	1183.5282	1201.6563	1219.8473	1246.5738	1295.1236	1303.9861	1363.5108	1385.0324	1398.8213	1402.9088	1406.3878	1426.2104	1482.3148	1483.5183	1486.1813	1489.7032	1496.021	1499.687	1514.1824	1528.0498	2974.6793	3002.1508	3007.0322	3010.438	3037.0268	3044.0583	3044.6122	3053.5828	3107.4443	3110.9216	3114.6785	3119.1397	3122.2198	3139.3217
CCOC1(C)COC1C	CCO[C@@]1(C)CO[C@H]1C	
InChI=1S/C7H14O2/c1-4-9-7(3)5-8-6(7)2/h6H,4-5H2,1-3H3	InChI=1S/C7H14O2/c1-4-9-7(3)5-8-6(7)2/h6H,4-5H2,1-3H3/t6-,7-/m0/s1
