15
gdb 72071	2.89027	1.68549	1.3918	2.1713	66.8	-0.2386	-0.0402	0.1984	930.2365	0.111286	-457.695173	-457.687841	-457.686897	-457.726911	28.277	
O	-0.4708349616	 1.1472970423	 0.0488005381	-0.45506
C	-0.0431052399	-0.1431927156	 0.0448120898	 0.347157
C	 0.9303932995	-0.8058600339	-0.9331111423	-0.282604
C	 0.3104811781	-2.1435476464	-0.4453222317	-0.032325
O	 0.7012387529	-2.2035428527	 0.9607134868	-0.275708
C	-0.1662251254	-1.1008203755	 1.1896005729	-0.02344
C	-1.0080915466	-1.3902168479	-0.0647987634	 0.156507
C	-2.4055339042	-1.1949016801	-0.3426222752	-0.00653
O	-3.0037619401	-0.2236823977	 0.1069769021	-0.320799
H	-1.4359846192	 1.1232507345	 0.1914137078	 0.312427
H	 0.6610460746	-0.5793551371	-1.9666950372	 0.121949
H	 2.0034604387	-0.676375875	-0.7646202306	 0.118571
H	 0.4297199257	-3.0861141874	-0.9731183357	 0.105075
H	-0.500061648	-0.864130465	 2.1912691881	 0.1383
H	-2.9148124145	-1.9210229526	-1.0061524594	 0.096481
119.5231	135.5318	212.8975	337.9721	357.8809	421.932	479.2578	499.7934	570.7075	628.3068	677.8133	736.1072	791.8785	828.2112	894.9453	915.9629	968.2405	998.6763	1025.2387	1031.7048	1069.603	1126.3425	1160.9608	1180.1455	1222.5313	1241.9561	1290.6461	1327.5919	1403.7507	1433.226	1453.6656	1490.215	1709.2517	2934.3953	3059.8876	3131.3704	3160.4631	3218.8986	3601.4854
OC12CC3OC1C23C=O	O[C@@]12C[C@H]3O[C@@H]1[C@@]23C=O	
InChI=1S/C6H6O3/c7-2-5-3-1-6(5,8)4(5)9-3/h2-4,8H,1H2	InChI=1S/C6H6O3/c7-2-5-3-1-6(5,8)4(5)9-3/h2-4,8H,1H2/t3-,4-,5+,6+/m1/s1
