12
gdb 129453	4.50606	1.14545	0.91329	4.161	59.45	-0.2675	-0.0697	0.1978	1158.7794	0.077076	-505.954305	-505.94652	-505.945576	-505.987404	27.753	
N	-0.0307293093	 1.2938511636	 0.005661575	-0.531862
C	 0.0489732776	-0.0583031287	 0.0009477362	 0.33819
O	 1.0654336904	-0.7140385096	-0.0095599558	-0.327412
C	-1.3012267	-0.7229562105	 0.0100654534	 0.359145
N	-2.4318211898	-0.1211944974	 0.02113571	-0.178262
O	-3.3854641887	-1.1609756421	 0.0259172732	-0.241544
C	-2.7153233991	-2.3629343771	 0.0166909395	 0.513993
N	-3.1651676517	-3.5275166573	 0.0168517096	-0.565796
O	-1.3708699512	-2.0671918858	 0.0064695896	-0.187571
H	 0.824650824	 1.8239839395	 0.0000366096	 0.279908
H	-0.9182563459	 1.7690539114	 0.0143602803	 0.288967
H	-4.1815982364	-3.535286316	 0.0252544594	 0.252243
48.1183	133.5445	170.411	251.1868	271.573	367.8117	424.4411	525.6234	546.3407	640.1525	650.8868	723.1313	766.7064	782.8032	799.2928	914.477	925.1223	983.4058	1037.7298	1098.6647	1229.7896	1289.5974	1434.894	1615.1697	1662.7215	1822.2381	1828.2636	3553.3986	3598.5115	3736.3417
NC(=O)C1=NOC(=N)O1	NC(=O)C1=NO[C@H]([NH])O1	
InChI=1S/C3H3N3O3/c4-1(7)2-6-9-3(5)8-2/h5H,(H2,4,7)	InChI=1S/C3H4N3O3/c4-1(7)2-6-9-3(5)8-2/h3,5H,(H2,4,7)/t3-/m1/s1
