20
gdb 92227	2.74425	1.74863	1.37527	2.9898	77.82	-0.2264	0.0676	0.2939	1009.8191	0.173193	-403.118448	-403.11093	-403.109986	-403.150185	30.372	
C	 0.0375240871	 1.5554509873	-0.2544628746	-0.418126
C	 0.0370833302	 0.071287331	 0.0448619863	 0.16456
O	 0.8503087509	-0.7070600112	-0.8707038506	-0.30968
C	 1.3525262355	-1.5260176467	 0.2060189683	 0.128341
C	 2.8855942073	-1.5771061801	 0.3451354074	-0.238416
C	 3.2390702302	-0.4935145817	 1.353514451	-0.039952
N	 2.8649937887	 0.8588606321	 0.9145846341	-0.316322
C	 1.9899999585	 0.1413081478	 1.8718657249	-0.057177
C	 0.7788422097	-0.5459336938	 1.2641745933	-0.103751
H	 1.0525839919	 1.9501259679	-0.2558074179	 0.151473
H	-0.4151574651	 1.7305066196	-1.2363260665	 0.118824
H	-0.5637802258	 2.0891582724	 0.4905470619	 0.103165
H	-0.9981277904	-0.3052505725	 0.0196496586	 0.063568
H	 0.9047983595	-2.5276426855	 0.1707021606	 0.068834
H	 3.1987215963	-2.5561144509	 0.7244943592	 0.095317
H	 3.3640781513	-1.4175890782	-0.625632516	 0.123878
H	 4.1180642536	-0.6121087784	 1.9800661536	 0.084686
H	 3.4138021742	 1.5464986055	 1.4252416114	 0.229724
H	 1.9295997314	 0.5171281653	 2.8883596578	 0.082812
H	 0.1367134849	-0.9578515599	 2.0455266471	 0.068244
113.0329	180.2297	215.8477	268.7482	357.3797	379.2198	415.9428	562.9744	611.1627	677.6496	771.0555	773.5296	823.4182	853.6927	875.8868	891.158	906.995	923.1265	962.3101	982.9352	1029.9803	1046.026	1084.4493	1105.9015	1114.1769	1126.0303	1160.6691	1177.1778	1200.5009	1215.6989	1239.3276	1263.3373	1304.9797	1324.5874	1342.281	1361.9957	1377.0943	1391.7659	1421.7954	1427.1902	1462.7083	1478.6527	1507.1739	2964.3436	3011.9086	3036.5674	3048.5702	3086.6318	3095.5592	3099.6819	3149.8018	3160.8577	3165.2362	3494.0401
CC1OC2CC3NC3C12	C[C@H]1O[C@H]2C[C@H]3N[C@H]3[C@@H]12	
InChI=1S/C7H11NO/c1-3-6-5(9-3)2-4-7(6)8-4/h3-8H,2H2,1H3	InChI=1S/C7H11NO/c1-3-6-5(9-3)2-4-7(6)8-4/h3-8H,2H2,1H3/t3-,4-,5+,6+,7-/m1/s1
