19
gdb 99942	3.48776	0.69113	0.67028	3.1638	84.6	-0.2685	-0.0636	0.2049	1749.6781	0.154762	-423.008183	-422.997191	-422.996247	-423.045292	38.104	
C	 0.1196789422	 1.4402622292	 0.2889883381	-0.400774
C	 0.0367299013	-0.0559889952	-0.0223951122	-0.186518
C	 0.6609823392	-0.4489287118	-1.3906270216	 0.135489
C	-0.0365128466	 0.2355013666	-2.5753529945	-0.398889
O	 2.027664814	-0.0349321295	-1.4618260897	-0.439993
C	 0.5704182067	-1.9104460576	-1.5301359292	 0.137902
C	 0.5335341899	-3.1168649735	-1.6017392456	-0.008454
C	 0.4515001539	-4.5505173747	-1.7078501034	 0.020435
O	 1.3734985528	-5.3067888268	-1.5040895925	-0.229779
H	 1.1451707993	 1.8003007973	 0.1749241971	 0.134232
H	-0.5235296166	 2.0320248924	-0.368512903	 0.122321
H	-0.1997774999	 1.6287522033	 1.3179388655	 0.116543
H	 0.563352081	-0.6244266172	 0.7541276581	 0.102339
H	-1.0033201384	-0.4006577884	-0.0015722658	 0.109667
H	 0.1121927485	 1.3153465902	-2.5114935697	 0.135237
H	 0.3951402838	-0.116119003	-3.5145337533	 0.137551
H	-1.1072336626	 0.0181821335	-2.5722891634	 0.124351
H	 2.5343819472	-0.5690822733	-0.8396249494	 0.28785
H	-0.5510516656	-4.9254621215	-1.9985955956	 0.10049
35.9874	71.0128	92.234	115.4319	197.5914	200.3289	234.0833	255.7255	298.1221	305.07	358.2685	363.3791	421.0564	545.0382	566.9008	629.2238	727.3627	785.5389	859.105	932.2445	987.6249	1003.2337	1021.4537	1056.9554	1079.517	1136.0507	1186.655	1206.8981	1290.8081	1353.3319	1379.9495	1404.2839	1408.9427	1421.9851	1475.4156	1482.2353	1493.5738	1502.9339	1512.1153	1767.0675	2315.2804	2918.0559	3029.7821	3047.7263	3058.6277	3070.0704	3113.6358	3128.8075	3139.7224	3142.054	3804.0252
CCC(C)(O)C#CC=O	CC[C@@](C)(O)C#CC=O	
InChI=1S/C7H10O2/c1-3-7(2,9)5-4-6-8/h6,9H,3H2,1-2H3	InChI=1S/C7H10O2/c1-3-7(2,9)5-4-6-8/h6,9H,3H2,1-2H3/t7-/m1/s1
