20
gdb 106579	2.71607	1.41115	1.25527	0.5062	78.91	-0.2305	-0.0024	0.2281	1113.8222	0.171544	-403.101293	-403.093008	-403.092064	-403.133933	33.035	
C	 0.005928607	 1.5433900015	 0.0477639969	-0.378242
C	-0.0137225892	 0.011240327	-0.0274229318	-0.320004
C	-1.4065721679	-0.573598015	-0.0206324369	 0.254392
N	-2.3241825711	-0.3120710419	 1.1719494941	-0.338531
C	-3.1033601453	-1.4718055036	 0.579372062	-0.114606
C	-3.5229297605	-0.8426035043	-0.7509081049	-0.086582
C	-2.3965130489	-0.2443366256	-1.15130006	-0.109628
C	-1.7234104993	-2.112530341	 0.1767791752	 0.111572
O	-1.5927758362	-3.0420549095	-0.8477402641	-0.433034
H	 1.032519469	 1.9206304741	 0.0746445751	 0.111091
H	-0.4928054903	 1.9915121947	-0.817698629	 0.11695
H	-0.5145169711	 1.8948080175	 0.9429917403	 0.135283
H	 0.5010126872	-0.331152361	-0.9342366059	 0.10714
H	 0.5506906709	-0.4067797897	 0.8160988813	 0.095283
H	-1.840933678	-0.663641516	 2.0059345512	 0.205301
H	-3.8486006639	-1.9679598094	 1.1998501746	 0.068357
H	-4.4987210127	-0.886271115	-1.2123480751	 0.110498
H	-2.1894295388	 0.3409558517	-2.0359192622	 0.108503
H	-1.1930290236	-2.5233741856	 1.0422881267	 0.084218
H	-2.0685499273	-2.6803968188	-1.6085253775	 0.27204
83.7681	149.4084	201.6167	252.2506	270.2053	329.4134	402.8784	489.1733	549.8598	577.1766	599.7508	633.9829	745.8005	768.0679	796.3981	826.3503	846.8667	891.678	902.5205	918.4204	931.9507	972.3818	981.9169	1063.5887	1094.3563	1105.9925	1136.151	1153.3614	1173.2253	1212.9328	1232.0484	1262.3654	1276.2036	1291.3771	1327.15	1371.079	1386.1172	1410.1655	1446.1326	1483.2481	1496.5356	1507.4178	1615.8699	3020.0525	3041.0341	3052.481	3068.7667	3107.1647	3119.223	3129.6445	3222.6074	3249.78	3381.8213	3739.5971
CCC12NC(C=C1)C2O	CC[C@@]12N[C@@H](C=C1)[C@H]2O	
InChI=1S/C7H11NO/c1-2-7-4-3-5(8-7)6(7)9/h3-6,8-9H,2H2,1H3	InChI=1S/C7H11NO/c1-2-7-4-3-5(8-7)6(7)9/h3-6,8-9H,2H2,1H3/t5-,6+,7+/m0/s1
