18
gdb 107368	3.3829	1.15458	0.97644	1.8708	71.38	-0.2512	-0.0289	0.2223	1210.6633	0.147993	-439.088775	-439.080484	-439.07954	-439.122197	31.447	
O	 0.1501437992	 1.276278378	-0.4215748712	-0.419187
C	 0.0174721476	 0.0524255224	 0.2822103222	-0.134174
C	-1.3874160138	-0.4871624644	 0.1886449337	 0.298636
C	-2.526330446	 0.2250869762	 0.89245476	-0.394279
C	-3.6348103912	-0.8288221182	 1.0436076743	 0.37085
O	-4.772329241	-0.6081862349	 1.3620435907	-0.294922
C	-3.0497866981	-2.2191320612	 0.7314320226	-0.349411
C	-1.7124361947	-1.9444550079	 0.0803643174	-0.074729
N	-1.7088488393	-1.09266969	-1.1204869087	-0.377971
H	-0.0726735415	 1.0836980121	-1.339924227	 0.290504
H	 0.7203557776	-0.7062710992	-0.0923511013	 0.094441
H	 0.2772084791	 0.2695983993	 1.3241585851	 0.106918
H	-2.2287097753	 0.5643284279	 1.8935212967	 0.136283
H	-2.8981553657	 1.1069156493	 0.3621880454	 0.14116
H	-2.932858314	-2.7675951425	 1.6752488565	 0.138302
H	-3.7440431608	-2.7970864234	 0.1129096469	 0.137924
H	-0.9413551182	-2.7086626261	 0.1016331753	 0.099251
H	-2.6588270639	-0.8711848874	-1.4149099386	 0.230406
69.5957	77.0335	150.2695	279.213	313.9383	391.7065	419.5764	438.0921	475.613	481.0635	625.9519	658.2898	734.9957	783.8343	814.0079	872.0941	894.6037	948.8449	984.1086	1016.2915	1043.4401	1083.8891	1096.7955	1126.6927	1143.5407	1176.7057	1205.687	1224.3573	1256.5545	1282.2466	1314.1711	1344.8452	1390.1706	1416.7287	1436.5439	1448.1181	1459.3613	1495.1914	1851.4102	2996.4518	3033.3971	3036.8919	3072.4958	3084.1286	3090.2788	3155.9337	3470.7554	3795.396
OCC12CC(=O)CC1N2	OC[C@]12CC(=O)C[C@H]1N2	
InChI=1S/C6H9NO2/c8-3-6-2-4(9)1-5(6)7-6/h5,7-8H,1-3H2	InChI=1S/C6H9NO2/c8-3-6-2-4(9)1-5(6)7-6/h5,7-8H,1-3H2/t5-,6-/m1/s1
