22
gdb 99109	2.79399	0.99555	0.90993	3.6171	83.38	-0.2355	0.0366	0.2721	1427.6259	0.192825	-404.376547	-404.366053	-404.365109	-404.412701	37.987	
C	-0.0007346767	-4.3034764041	 3.3590804027	-0.333596
N	-0.6014219227	-3.7962244036	 2.1419085603	-0.299632
C	-0.6621375976	-2.4637013756	 1.8531064178	 0.387141
O	-0.2266819505	-1.6012788154	 2.5958318252	-0.377441
C	-1.2781513768	-2.1102105922	 0.4933175177	-0.372568
C	-2.411899742	-2.9898435225	-0.0126113208	 0.351982
C	-3.6493834418	-3.0133120891	 0.8677337892	-0.457771
C	-2.6233190467	-3.0466433523	-1.5049985821	-0.31733
C	-2.061372812	-4.2501235945	-0.7862736947	-0.307374
H	 0.3080576937	-3.4411736704	 3.9511217335	 0.170347
H	-0.7146084063	-4.9000299652	 3.9380163606	 0.121806
H	 0.8786619656	-4.9227845337	 3.1467374546	 0.121748
H	-0.9879792613	-4.443944534	 1.4755990176	 0.25303
H	-1.6107688806	-1.0715238404	 0.5834469013	 0.12808
H	-0.4575883409	-2.1090319734	-0.2357813113	 0.117374
H	-4.0660582086	-2.0056445177	 0.9782068226	 0.124036
H	-4.428226627	-3.6513327954	 0.4388748868	 0.1121
H	-3.4211047632	-3.3888653345	 1.870835925	 0.122555
H	-3.6426311584	-3.1049559034	-1.8713347466	 0.113804
H	-1.9540960502	-2.4790468673	-2.1427266956	 0.11482
H	-1.0147409169	-4.48835992	-0.9505331111	 0.113243
H	-2.701260879	-5.119157765	-0.6714407328	 0.113646
47.7334	81.8705	84.1472	122.2101	175.0982	219.5252	268.2769	313.8636	328.9152	351.1969	392.6204	459.6519	497.2279	614.6363	692.4977	742.5015	795.2424	858.7652	866.0419	913.1309	944.1123	953.1972	983.0577	1043.1034	1069.6092	1083.7673	1095.5344	1119.9435	1153.4058	1171.8525	1190.4429	1200.4741	1266.3201	1300.3657	1335.2917	1367.0793	1419.4611	1436.8348	1461.0121	1468.9077	1490.8429	1493.9891	1501.4761	1502.163	1510.2285	1562.204	1778.866	3023.9088	3028.0122	3031.9203	3074.0984	3088.2861	3091.8999	3103.2038	3120.0218	3132.2222	3152.8066	3200.308	3218.546	3646.5242
CNC(=O)CC1(C)CC1	CNC(=O)CC1(C)CC1	
InChI=1S/C7H13NO/c1-7(3-4-7)5-6(9)8-2/h3-5H2,1-2H3,(H,8,9)	InChI=1S/C7H13NO/c1-7(3-4-7)5-6(9)8-2/h3-5H2,1-2H3,(H,8,9)
