18
gdb 31564	3.24227	1.16673	0.86877	1.3115	77.82	-0.1702	0.05	0.2202	1325.899	0.146424	-439.104512	-439.094768	-439.093823	-439.139888	34.517	
C	 0.1324014149	 1.4272112413	 0.1131574167	-0.244124
O	 0.1058035395	 0.0069137385	-0.0015452615	-0.270964
C	 0.6324301683	-0.6948733061	 1.008640908	 0.457991
C	 0.656456111	-2.0375294197	 1.2131662788	-0.396132
C	 1.3761196527	-2.2171755303	 2.4490913123	 0.153211
N	 1.5679377967	-3.458047224	 3.0785422062	-0.610029
C	 1.7334508433	-0.980508132	 2.8968810022	 0.282577
C	 2.4482407377	-0.4673317685	 4.0909826134	-0.496431
O	 1.2595441858	-0.0256299599	 1.9945987259	-0.233957
H	 1.1595021871	 1.8029135039	 0.1615361117	 0.133176
H	-0.3580543503	 1.8046155678	-0.7847070151	 0.134797
H	-0.4101419888	 1.763790785	 1.0029105169	 0.13209
H	 0.2148424466	-2.7943530526	 0.5867034729	 0.102606
H	 1.7939685588	-4.1904576469	 2.4168470117	 0.242529
H	 2.2861174025	-3.4290399788	 3.7911744357	 0.236975
H	 3.2640207833	 0.2136267644	 3.8179961957	 0.128233
H	 1.7899496932	 0.0736621321	 4.784353058	 0.128619
H	 2.8893176877	-1.299619524	 4.6483183304	 0.118833
30.285	102.9775	151.2232	181.2523	192.0069	212.3804	237.4567	266.3987	367.5244	379.9586	537.4562	619.9441	635.2583	640.8934	674.3841	725.9993	770.4585	803.9245	956.5696	1009.7521	1051.7218	1061.9667	1069.5228	1177.1429	1191.691	1204.7112	1224.3768	1269.9545	1354.2211	1418.5932	1459.6474	1465.6667	1483.0137	1484.2892	1499.7789	1503.1388	1645.3359	1657.731	1708.7525	3005.2704	3031.3865	3049.496	3097.4452	3098.6702	3147.3293	3269.7319	3528.373	3617.4679
COC1=CC(N)=C(C)O1	COc1cc(N)c(C)o1	
InChI=1S/C6H9NO2/c1-4-5(7)3-6(8-2)9-4/h3H,7H2,1-2H3	InChI=1S/C6H9NO2/c1-4-5(7)3-6(8-2)9-4/h3H,7H2,1-2H3
