17
gdb 43682	2.28208	1.52044	1.21944	3.5926	79.8	-0.2387	-0.0509	0.1879	1085.4395	0.135934	-384.693389	-384.685246	-384.684302	-384.726246	31.159	
O	 0.0547931917	-0.0543230491	 0.2936528059	-0.331757
C	 0.0267022884	 1.1428560832	 0.0952193363	 0.389849
C	-1.2881525803	 1.8969377145	-0.0837073534	-0.321681
C	-1.155125046	 3.1299938202	-1.0059106826	-0.200098
C	-0.0158203267	 4.0461729854	-0.4970858324	-0.267988
C	 1.2346873849	 3.2795854425	-0.1698206401	-0.036858
C	 1.2554324833	 1.9642535201	 0.0787065819	-0.136322
C	-0.9363457673	 2.7311755141	-2.396212743	 0.344547
C	-0.7594222018	 2.3990581739	-3.5376171444	-0.478052
H	-2.0436073818	 1.1981142266	-0.4475565887	 0.134357
H	-1.6044189128	 2.2361582491	 0.9127137591	 0.122435
H	-2.0940122746	 3.6955477242	-0.9629963985	 0.112415
H	 0.2025666637	 4.8196996077	-1.2400176885	 0.127032
H	-0.3575631296	 4.5781396354	 0.40329889	 0.122075
H	 2.1613480026	 3.8483559204	-0.1346922023	 0.110266
H	 2.1781723335	 1.4351524348	 0.2946573788	 0.107923
H	-0.6056784372	 2.103049347	-4.5458216681	 0.201857
76.9003	104.3962	181.4677	264.8219	310.8766	374.9785	433.5455	462.7521	561.6246	576.72	609.2407	633.8317	643.7766	736.473	758.4297	789.8822	884.1547	931.8063	942.9619	964.5314	1025.0386	1058.9066	1071.3737	1133.0587	1196.8225	1224.3502	1251.3514	1259.9899	1337.3766	1366.3376	1372.8501	1409.2979	1452.7177	1467.821	1684.96	1782.5407	2236.3221	3003.0992	3019.607	3031.7945	3074.8166	3118.3344	3151.9464	3190.4986	3503.9532
O=C1CC(CC=C1)C#C	O=C1C[C@@H](CC=C1)C#C	
InChI=1S/C8H8O/c1-2-7-4-3-5-8(9)6-7/h1,3,5,7H,4,6H2	InChI=1S/C8H8O/c1-2-7-4-3-5-8(9)6-7/h1,3,5,7H,4,6H2/t7-/m1/s1
