25
gdb 118781	2.89733	0.96157	0.83347	0.9932	90.9	-0.2492	0.0782	0.3274	1546.2487	0.225715	-389.476493	-389.465098	-389.464154	-389.512763	41.733	
C	-0.20631354	 1.3606264636	-0.0942006847	-0.22298
O	-0.2516499037	-0.0397219593	-0.2036077032	-0.232205
C	 0.8145666492	-0.5653980781	-0.9753678581	-0.126709
C	 0.7203104164	-2.0779065012	-0.9679788327	 0.303219
C	 0.8360926097	-2.6397477647	 0.4415693713	-0.466963
C	-0.2422066208	-2.72696634	-1.9420824733	-0.358848
C	 1.248012006	-2.8693101956	-2.1645098547	 0.282997
C	 1.8778905829	-2.1594880951	-3.3548255093	-0.454136
C	 1.8899128448	-4.227486483	-1.9263883209	-0.447977
H	 0.7211278651	 1.7057152347	 0.3912420262	 0.100822
H	-0.2768114185	 1.852550381	-1.0781862128	 0.099781
H	-1.0590919461	 1.6708833839	 0.5150485113	 0.124851
H	 0.763190011	-0.1569944337	-1.9942838403	 0.08023
H	 1.7797681116	-0.2421531073	-0.5447654556	 0.079322
H	 0.1529633998	-2.1002364346	 1.1028028119	 0.135968
H	 0.583141458	-3.700062991	 0.4942133789	 0.110485
H	 1.8520857476	-2.5164995403	 0.8369327687	 0.106581
H	-0.7986744911	-3.5950972565	-1.6022119006	 0.102127
H	-0.801681116	-2.0799960004	-2.610942786	 0.104187
H	 1.3571187634	-1.241383634	-3.6333886891	 0.115508
H	 2.9277290089	-1.9065514968	-3.1619758486	 0.111954
H	 1.8587952299	-2.8178596906	-4.2314655213	 0.112815
H	 1.831090667	-4.8343913032	-2.8375644874	 0.112599
H	 2.951446121	-4.1257349884	-1.6696083638	 0.111745
H	 1.4069112238	-4.7924107694	-1.1274487658	 0.114626
66.5457	87.7071	118.483	166.9188	176.5713	185.6237	213.2847	234.1205	291.749	321.0403	343.6486	369.742	388.4272	427.2432	458.93	531.0052	695.1892	740.3864	882.5516	912.7836	937.7317	958.5091	968.5738	982.405	997.4923	1040.1295	1046.0917	1062.8268	1113.3299	1145.9426	1159.4027	1180.0947	1212.4636	1224.8084	1232.8601	1285.8922	1317.4118	1388.2651	1405.6407	1412.1929	1419.9553	1433.7495	1478.5003	1480.9499	1484.9479	1489.0743	1489.1997	1492.9035	1502.5419	1505.6403	1508.2992	1522.9252	1524.2783	2938.8162	2963.7149	3003.9303	3012.3172	3021.9455	3026.1705	3031.599	3073.8477	3078.175	3101.6026	3109.404	3117.0556	3120.0965	3123.8584	3137.0066	3200.8586
COCC1(C)CC1(C)C	COC[C@@]1(C)CC1(C)C	
InChI=1S/C8H16O/c1-7(2)5-8(7,3)6-9-4/h5-6H2,1-4H3	InChI=1S/C8H16O/c1-7(2)5-8(7,3)6-9-4/h5-6H2,1-4H3/t8-/m1/s1
