17
gdb 46519	3.65364	1.28519	1.12025	3.8638	68.73	-0.2543	0.009	0.2633	1096.8664	0.136331	-458.976276	-458.96853	-458.967586	-459.008776	29.552	
O	-0.0018797969	 0.2599048806	 0.7649984565	-0.323317
C	-0.0090602834	 1.2520643844	 0.0898656775	 0.389809
C	-1.3153666477	 1.9758985965	-0.2349129654	-0.230737
O	-1.2363571408	 2.9905394992	-1.220331752	-0.280807
C	-0.0865277875	 3.7682116546	-1.0327638819	 0.401282
C	-0.1511987357	 5.1763589554	-1.51959009	-0.332858
C	-0.1394960364	 4.895334675	-0.0291096492	-0.32471
C	 1.1446478859	 2.9345336501	-1.2214651918	-0.121073
O	 1.1503391756	 1.7801474051	-0.3549007713	-0.226242
H	-2.0303862092	 1.2293339692	-0.5862820533	 0.152044
H	-1.6907067373	 2.3771857184	 0.7191426665	 0.132488
H	 0.7324642246	 5.6077414804	-1.9773288496	 0.122764
H	-1.0910734837	 5.4841335585	-1.9627218962	 0.136856
H	-1.0722284972	 5.0317382881	 0.5060332828	 0.129611
H	 0.7532536022	 5.1322728927	 0.5392413503	 0.125512
H	 1.2026613489	 2.5764679638	-2.2560187657	 0.12624
H	 2.0564002586	 3.4898606679	-0.988075857	 0.123137
73.4184	140.4708	189.1093	268.3598	327.8178	393.0038	454.379	482.8516	526.3034	566.2662	680.4717	762.9801	772.2594	806.9588	891.5018	937.0062	953.2662	995.4786	1032.6054	1053.8504	1066.7309	1072.1413	1087.8349	1113.4909	1189.3484	1227.1613	1247.279	1269.961	1314.2067	1351.5982	1385.353	1436.5267	1455.4253	1467.6784	1499.2648	1502.9771	1849.3338	2997.049	3039.6249	3103.7607	3117.8654	3138.3854	3141.3809	3223.2869	3236.3905
O=C1COC2(CC2)CO1	O=C1COC2(CC2)CO1	
InChI=1S/C6H8O3/c7-5-3-9-6(1-2-6)4-8-5/h1-4H2	InChI=1S/C6H8O3/c7-5-3-9-6(1-2-6)4-8-5/h1-4H2
