19
gdb 53178	3.00735	1.04242	0.91917	1.5166	84.35	-0.2362	0.0493	0.2855	1367.7905	0.157117	-385.82989	-385.820362	-385.819418	-385.866632	33.928	
C	 0.1545261377	 1.5562517491	 0.0010494008	-0.49835
C	 0.1003877054	 0.1015075649	 0.0051448468	 0.05206
C	 0.0598040623	-1.1025998439	 0.0156241243	 0.117966
C	 0.0011449692	-2.5496611672	 0.027805519	-0.247986
C	 0.3046617165	-3.2783801766	 1.3559253433	 0.023125
O	-0.7169255607	-2.93676299	 2.2908255233	-0.237111
C	-0.9907324419	-3.970059552	 1.3359127098	 0.019417
C	-1.4203769769	-3.2844771127	 0.0284027011	-0.022245
C	-2.6812288159	-2.437890483	 0.0649242399	-0.406589
H	 1.186850514	 1.9162509127	-0.0733107472	 0.146515
H	-0.4017436819	 1.9737747325	-0.8457275393	 0.145968
H	-0.2762500553	 1.9731767757	 0.9181095614	 0.149751
H	 0.6177723667	-2.9661057407	-0.7760790757	 0.099915
H	 1.2702727185	-3.5696307268	 1.7530112427	 0.106276
H	-1.2797721954	-4.9391501085	 1.72648551	 0.102922
H	-1.4485947477	-4.0016830031	-0.7976431633	 0.078311
H	-2.6656138234	-1.7702977877	 0.9293442944	 0.141318
H	-2.7671637922	-1.8241687398	-0.8368998883	 0.119793
H	-3.5718228991	-3.0725987228	 0.1301332871	 0.108943
8.1052	80.2447	87.9328	177.9033	210.2818	239.5774	264.3718	344.3706	393.1076	484.3342	501.3504	625.2912	711.9719	757.8266	841.6576	858.1763	867.5759	889.2274	929.0606	1007.1758	1034.3167	1052.7577	1052.8734	1058.5483	1078.4684	1119.1958	1177.9198	1201.3167	1236.4207	1242.7986	1268.9021	1338.0465	1357.5076	1391.1904	1411.1497	1414.6882	1477.9092	1479.0269	1487.52	1500.0473	2366.821	3024.804	3036.8968	3043.3651	3064.4127	3084.0812	3086.1876	3101.5224	3130.7888	3175.9278	3191.3448
CC#CC1C2OC2C1C	CC#C[C@H]1[C@H]2O[C@H]2[C@H]1C	
InChI=1S/C8H10O/c1-3-4-6-5(2)7-8(6)9-7/h5-8H,1-2H3	InChI=1S/C8H10O/c1-3-4-6-5(2)7-8(6)9-7/h5-8H,1-2H3/t5-,6+,7-,8+/m0/s1
