16
gdb 46863	2.33641	1.79987	1.25657	5.5729	69.37	-0.2301	-0.0619	0.1682	1006.8769	0.125288	-437.892705	-437.885011	-437.884067	-437.925456	28.684	
O	 0.1756855125	-0.0292680629	 0.0858787362	-0.28795
C	 0.0450023424	 1.1664975429	 0.0820375863	 0.314595
C	-1.2893621028	 1.8969190739	 0.1134861265	-0.320427
C	-1.3846362256	 2.9979885588	 1.1952420459	-0.215858
C	-0.0661458881	 3.6988733932	 1.4933772891	-0.037761
N	 0.9060136428	 2.9059954857	 2.2315699202	-0.320174
C	 1.2257375398	 3.2995164724	 0.8354442118	-0.16524
C	 1.2496597809	 2.1255823893	-0.0838027863	 0.366042
O	 2.0964320009	 1.941416049	-0.9229329178	-0.307462
H	-1.387471427	 2.3690143477	-0.8753529172	 0.133956
H	-2.0916782388	 1.1617229549	 0.2080678196	 0.131832
H	-2.1278272452	 3.738291967	 0.8838921691	 0.113327
H	-1.7429186621	 2.5604006143	 2.1325764093	 0.1327
H	-0.1424828299	 4.7549062683	 1.7445141751	 0.104065
H	 1.4468445304	 3.4704506582	 2.8804157357	 0.249361
H	 1.9903283598	 4.0499541873	 0.6565086263	 0.108993
60.685	108.5202	174.2546	324.7711	326.9582	359.778	450.6437	472.99	550.7119	646.7003	712.4634	759.0159	792.7074	844.2679	896.4315	914.2313	933.2641	984.6541	1032.1229	1060.4223	1115.796	1141.2868	1164.6074	1209.2019	1238.5601	1249.8734	1280.4241	1323.316	1369.1618	1386.6965	1436.6652	1465.2412	1489.1837	1817.1715	1833.5477	3009.6222	3049.7227	3090.3391	3110.3474	3128.4844	3160.8241	3519.5671
O=C1CCC2NC2C1=O	O=C1CC[C@H]2N[C@H]2C1=O	
InChI=1S/C6H7NO2/c8-4-2-1-3-5(7-3)6(4)9/h3,5,7H,1-2H2	InChI=1S/C6H7NO2/c8-4-2-1-3-5(7-3)6(4)9/h3,5,7H,1-2H2/t3-,5-/m1/s1
