20
gdb 93789	2.85116	1.31588	0.97424	3.5977	76.56	-0.2576	0.0246	0.2822	1238.6303	0.171828	-440.314451	-440.305583	-440.304639	-440.348105	33.821	
C	-0.5782195035	 1.3682752559	 0.1086524963	-0.403973
C	-0.0940274551	-0.0591556858	-0.08004404	 0.128634
C	 0.868381904	-0.2301439951	-1.2605565097	-0.223931
C	 1.5395060395	-1.6265817975	-1.2739974845	-0.233205
C	 1.1115185239	-2.4757235922	-0.0602059619	 0.060596
O	 1.8986568528	-3.6258058407	 0.0643129328	-0.447812
C	 1.1871670962	-1.6272179807	 1.1932173143	 0.382184
N	 1.8330633993	-2.0555076771	 2.1961041178	-0.557362
O	 0.563874627	-0.4300786184	 1.1569741078	-0.252081
H	 0.2690450385	 2.042596023	 0.2654619093	 0.129904
H	-1.1274381521	 1.6995474033	-0.7774050996	 0.123213
H	-1.241340737	 1.4395011178	 0.9746315222	 0.130741
H	-0.9620483766	-0.719963784	-0.2088059021	 0.093713
H	 0.3100376508	-0.0479125265	-2.1842402622	 0.110107
H	 1.6287160119	 0.5553276605	-1.193309788	 0.112894
H	 1.3036776554	-2.1795894781	-2.1866324012	 0.113616
H	 2.6282778405	-1.5340595294	-1.2330896852	 0.120673
H	 0.0542730781	-2.7649277961	-0.1933338873	 0.091629
H	 2.2412179324	-3.5988581893	 0.974267592	 0.294873
H	 1.824674694	-1.3930842096	 2.9707517693	 0.225587
63.2501	120.3289	153.8695	228.0092	275.7391	321.6673	355.4543	413.4285	444.6478	447.5742	492.5882	538.5917	656.0862	679.6905	754.5077	857.6639	872.4785	878.6595	920.3249	988.3393	1014.2831	1056.6635	1082.3936	1118.653	1137.0459	1159.334	1159.6426	1210.0438	1273.1442	1281.5942	1306.8572	1323.4412	1347.5347	1381.8852	1397.215	1404.7619	1413.7598	1471.4019	1479.3822	1487.6072	1499.5716	1507.5277	1748.7262	2946.1458	3012.0544	3042.4202	3046.8814	3065.3095	3082.1465	3111.059	3121.4376	3125.6685	3499.1912	3646.1291
CC1CCC(O)C(=N)O1	C[C@H]1CC[C@@H](O)[C]([NH])O1	
InChI=1S/C6H11NO2/c1-4-2-3-5(8)6(7)9-4/h4-5,7-8H,2-3H2,1H3	InChI=1S/C6H11NO2/c1-4-2-3-5(8)6(7)9-4/h4-5,7-8H,2-3H2,1H3/t4-,5+/m0/s1
