17
gdb 127740	2.17958	1.66338	1.00284	3.1131	72.63	-0.2114	-0.0042	0.2073	1158.658	0.1368	-451.317905	-451.308709	-451.307765	-451.351944	32.833	
C	-0.1493094716	 1.4016623029	 0.1023958271	-0.33947
N	-0.0666238025	-0.045530809	 0.135021589	 0.015936
N	-0.0893058168	-0.7495043943	-0.99810883	-0.156564
N	 0.0050040407	-2.018495533	-0.6826215971	-0.260103
C	 0.0928377898	-2.1288202343	 0.6684075583	 0.224414
N	 0.2737543649	-3.3695471169	 1.2786084436	-0.594409
C	 0.0526160043	-0.8620968387	 1.2269219889	 0.225677
C	 0.0898450104	-0.3696507137	 2.6321541633	-0.196229
O	-1.089563289	 0.3385973358	 3.0212993582	-0.408694
H	 0.8279799342	 1.8518022351	 0.3060281295	 0.14365
H	-0.4755619114	 1.6882120868	-0.8970030506	 0.163856
H	-0.8625901866	 1.7415782565	 0.8552285917	 0.161576
H	 0.110715248	-4.1155449647	 0.613649428	 0.256531
H	-0.2915077633	-3.5108162889	 2.1051723473	 0.243663
H	 0.2879088585	-1.2214608365	 3.2982347912	 0.109479
H	 0.9059713631	 0.3457828733	 2.7833296966	 0.127422
H	-1.8431735025	-0.2330271607	 2.8379507149	 0.283267
97.205	120.6641	129.9877	179.5586	195.8904	237.2034	283.0061	337.6842	361.1938	427.3111	515.1069	606.5368	677.9401	704.7386	745.0835	771.609	831.0146	954.2267	1024.0933	1057.1391	1102.5209	1120.9009	1154.032	1220.5195	1250.0535	1299.6108	1326.813	1360.8567	1406.938	1421.9981	1448.9705	1481.7726	1500.9215	1503.8645	1526.7448	1628.6736	1649.3325	3006.5217	3047.0086	3061.8083	3123.4788	3170.8306	3539.5349	3632.1314	3805.3907
CN1N=NC(N)=C1CO	Cn1nnc(N)c1CO	
InChI=1S/C4H8N4O/c1-8-3(2-9)4(5)6-7-8/h9H,2,5H2,1H3	InChI=1S/C4H8N4O/c1-8-3(2-9)4(5)6-7-8/h9H,2,5H2,1H3
