16
gdb 78947	3.59221	1.56042	1.37097	1.9797	66.45	-0.2256	0.0577	0.2833	937.5584	0.125103	-437.774381	-437.767611	-437.766667	-437.805166	27.985	
O	 0.2136293985	 1.353395443	-0.1363454927	-0.449554
C	 0.1003062749	-0.0483849672	-0.0767922058	 0.155765
C	 0.2233151151	-0.6352090419	 1.3478621034	-0.053254
C	-0.1174370533	-2.1211432496	 1.3076163083	-0.143597
C	-1.5196667276	-1.8578725653	 1.8018446777	-0.122317
N	-1.2900326774	-0.3676370972	 1.5811786398	-0.208096
C	-1.3482143252	-0.570920555	 0.0434807349	-0.13785
C	-1.3085164921	-2.0752978321	 0.3291927057	 0.368378
O	-1.5726940288	-3.147507625	-0.4875087662	-0.458787
H	-0.3487152932	 1.7173802618	 0.5588046804	 0.295067
H	 0.7338797491	-0.460773891	-0.8654730931	 0.094414
H	 0.9389962837	-0.2401114513	 2.0698266459	 0.082741
H	 0.4986317862	-3.0054458838	 1.4018576195	 0.102428
H	-2.1412648723	-2.3065464339	 2.5657937811	 0.104045
H	-2.1771459056	-0.1256162631	-0.5091489603	 0.077817
H	-2.524418152	-3.1941081684	-0.6322274786	 0.292801
166.1981	266.6839	288.3752	362.9949	387.6602	422.4651	508.281	555.0921	629.0889	721.9498	789.225	816.0472	863.5512	876.0223	898.5639	903.467	928.7381	956.8296	966.4116	990.5754	1016.7704	1065.1073	1095.5762	1123.1415	1140.0156	1174.2891	1200.1574	1230.0879	1235.068	1244.4281	1289.3517	1308.1282	1317.8152	1433.1042	1453.6017	3090.1067	3106.0959	3111.1667	3193.9403	3209.8284	3784.6237	3793.0936
OC1C2C3C4N2C1C34O	O[C@H]1[C@@H]2[C@H]3[C@H]4N2[C@@H]1[C@@]34O	
InChI=1S/C6H7NO2/c8-3-2-1-4-6(1,9)5(3)7(2)4/h1-5,8-9H	InChI=1S/C6H7NO2/c8-3-2-1-4-6(1,9)5(3)7(2)4/h1-5,8-9H/t1-,2-,3-,4+,5-,6+/m0/s1
