18
gdb 54542	3.28238	1.42476	1.28076	2.2523	75.13	-0.2432	-0.0216	0.2216	1042.5558	0.147317	-401.910486	-401.902454	-401.90151	-401.943909	30.237	
C	-0.0284837093	 1.4934773627	-0.1509216332	-0.484341
C	 0.0455480684	-0.0164004731	-0.110685062	 0.248163
O	 1.0884758038	-0.632255244	-0.0857153864	-0.300907
C	-1.2641252454	-0.7556729924	-0.0939104874	 0.270961
C	-1.4682791741	-2.0570194145	-0.8949380709	-0.279927
C	-2.9145304065	-1.6000768742	-0.953617578	-0.039565
C	-3.2615664511	-0.9430188384	 0.342902848	-0.039467
C	-2.0377595191	-0.9610521842	 1.2373422649	-0.275824
N	-2.5654362467	-0.1528521071	-0.7331071158	-0.198291
H	 0.97633044	 1.9160957764	-0.1234145091	 0.13793
H	-0.5545690054	 1.8085064246	-1.0583844475	 0.161204
H	-0.6197216298	 1.8731845887	 0.6898899126	 0.139933
H	-0.9886092132	-1.9963627478	-1.8743530055	 0.121145
H	-1.2156484414	-3.0062230033	-0.4147028817	 0.109704
H	-3.674444204	-1.8797967508	-1.6743530596	 0.100899
H	-4.285717864	-0.7231174606	 0.6223198025	 0.100532
H	-1.8004248867	-1.849020033	 1.8307632017	 0.112566
H	-1.9984041455	-0.068542769	 1.8671717773	 0.115284
31.9774	124.6342	164.1701	184.2254	338.6412	387.9133	427.9805	469.9461	586.3894	620.746	738.1704	767.0944	806.0445	822.1018	866.9946	914.6376	956.0125	990.7062	1003.7478	1019.0804	1025.3159	1033.4862	1061.1546	1093.0911	1098.7038	1149.4162	1161.0875	1182.4123	1242.4773	1258.9984	1321.8824	1342.3579	1371.9196	1386.7417	1455.8385	1465.7451	1487.9754	1505.1118	1798.7628	3040.5195	3051.1783	3060.7443	3100.5844	3109.374	3119.3638	3155.9279	3175.7688	3187.4392
CC(=O)C12CC3C(C1)N23	CC(=O)[C@@]12C[C@H]3[C@@H](C1)N23	
InChI=1S/C7H9NO/c1-4(9)7-2-5-6(3-7)8(5)7/h5-6H,2-3H2,1H3	InChI=1S/C7H9NO/c1-4(9)7-2-5-6(3-7)8(5)7/h5-6H,2-3H2,1H3/t5-,6+,7+,8?
