20
gdb 19614	3.6099	1.92241	1.59025	0.2136	77.99	-0.2429	0.0983	0.3412	907.31	0.177814	-311.824802	-311.817443	-311.816499	-311.855817	29.696	
C	 0.0418681689	 1.6013423395	 0.061588963	-0.422973
C	 0.1067291427	 0.0800506468	-0.0079991382	 0.029932
C	 0.8061112347	-0.6406397033	-1.1641356041	-0.092764
C	 2.2845801691	-0.8280626687	-0.7838421559	-0.059022
C	 1.2292740723	-1.7769261018	-0.2672834914	-0.082518
C	 1.0604825057	-0.7393472916	 0.9180391574	-0.077984
C	 2.4979456473	-0.225848001	 0.607213516	 0.018805
C	 3.5845350799	-0.9269286224	 1.4157389893	-0.405968
H	 1.0168574186	 2.0663241988	-0.1068855051	 0.119133
H	-0.6423777282	 1.991405134	-0.7003769843	 0.111326
H	-0.328428053	 1.9355282827	 1.0378742978	 0.110361
H	-0.9034574034	-0.3343266143	 0.0946786828	 0.067
H	 0.4914772949	-0.7017076284	-2.1992106369	 0.077405
H	 3.0316074454	-1.0225833116	-1.5444186367	 0.076623
H	 1.1003739481	-2.8457407394	-0.3521233494	 0.084481
H	 0.7740684361	-0.969779936	 1.9439391	 0.058921
H	 2.6424826995	 0.8598848186	 0.6659641593	 0.055773
H	 3.4558988783	-2.0146021648	 1.3903162498	 0.114465
H	 4.5813324607	-0.6994006398	 1.0216266092	 0.108804
H	 3.5614533023	-0.6071155171	 2.4635002074	 0.108201
175.2135	200.943	221.9829	250.5546	282.7272	323.612	519.6706	557.2311	675.0725	751.8137	784.0147	793.8825	798.2795	872.9796	874.2404	906.0229	913.4638	994.7833	1016.9535	1021.6743	1031.4736	1039.5469	1062.5024	1084.3418	1114.0295	1128.5962	1136.2272	1168.5867	1172.7385	1204.4443	1252.662	1281.7095	1308.2	1358.0199	1382.9061	1388.6815	1407.9735	1409.3182	1491.8666	1494.5336	1499.2184	1502.0113	3021.8773	3025.0743	3027.8315	3033.0896	3087.0867	3088.1667	3096.5389	3112.5014	3116.398	3177.7409	3186.0869	3224.1367
CC1C2C3C2C1C3C	C[C@H]1[C@H]2[C@@H]3[C@H]2[C@H]1[C@H]3C	
InChI=1S/C8H12/c1-3-5-4(2)7-6(3)8(5)7/h3-8H,1-2H3	InChI=1S/C8H12/c1-3-5-4(2)7-6(3)8(5)7/h3-8H,1-2H3/t3-,4-,5-,6+,7-,8+/m1/s1
