14
gdb 15958	3.25868	1.89469	1.37016	1.7589	63.46	-0.2596	0.0096	0.2691	883.7738	0.105091	-382.450226	-382.442866	-382.441922	-382.482132	26.98	
C	-0.1288091141	-1.1948626587	-0.3470730186	-0.445355
C	-0.0507175236	-0.0216219698	-0.0974864411	 0.33099
C	 0.0603900074	 1.3974460787	 0.1796851792	-0.127061
O	 0.0574200902	 1.7290093809	 1.5955714544	-0.284977
C	 1.2937183297	 2.4749303106	 1.5027230762	-0.151841
C	 1.4446202027	 2.0610463968	 0.0450601283	 0.358313
C	 2.5979653858	 1.6963823892	-0.7660832794	-0.250145
O	 1.8294792474	 2.8919811389	-1.0162565397	-0.254139
H	-0.2068255124	-2.23262347	-0.5599083789	 0.206155
H	-0.7176035319	 1.9585282862	-0.3561827243	 0.119772
H	 1.1439329139	 3.5517850169	 1.6487011563	 0.119505
H	 2.0502554414	 2.1065883481	 2.2043199499	 0.119694
H	 3.6034024806	 1.8628177674	-0.3831288068	 0.124827
H	 2.4985338529	 0.9134125847	-1.5152032155	 0.134261
76.2946	124.492	203.9236	299.321	332.3475	361.805	495.2033	541.0089	600.8024	622.6217	680.4958	816.5954	865.691	905.2011	929.1907	952.259	1007.1815	1065.4994	1089.8115	1123.1409	1148.0381	1159.9025	1184.1007	1235.6684	1322.0899	1352.2605	1452.6704	1513.0644	1543.675	2235.6429	3013.0126	3024.7191	3074.2903	3091.7039	3184.1871	3501.8285
C#CC1OCC11CO1	C#C[C@H]1OC[C@]21CO2	
InChI=1S/C6H6O2/c1-2-5-6(3-7-5)4-8-6/h1,5H,3-4H2	InChI=1S/C6H6O2/c1-2-5-6(3-7-5)4-8-6/h1,5H,3-4H2/t5-,6-/m1/s1
