19
gdb 74583	3.91385	1.36016	1.2312	1.2261	81.48	-0.2131	0.0111	0.2242	1093.3578	0.1588	-385.861125	-385.853165	-385.852221	-385.893119	31.611	
C	-0.0334345351	 1.4953226341	 0.1165611897	-0.502503
C	 0.0887756935	 0.0125338	-0.0166847141	 0.313359
C	-0.0183659207	-0.7540605851	-1.1148238636	-0.164428
C	 0.0357255379	-2.188628067	-0.7470203136	-0.1711
C	 0.6261771773	-2.2957686351	 0.6438678303	-0.216909
C	 0.1072772747	-0.9307207007	 1.1676202797	-0.016737
O	-1.2737621793	-1.4948826839	 1.2286296872	-0.334521
C	-0.8203835155	-2.6253704989	 0.5104624772	 0.476308
C	-1.6419416365	-3.8688692268	 0.5749238434	-0.495982
H	 0.8218841039	 1.9243501215	 0.6543664382	 0.120286
H	-0.0939372067	 1.9792901883	-0.8622094858	 0.123428
H	-0.9316945878	 1.7709661265	 0.6837894576	 0.135331
H	-0.2226732284	-0.397353302	-2.1177664454	 0.093752
H	 0.2331377063	-2.9672571522	-1.4744860382	 0.081876
H	 1.5016235816	-2.8592872053	 0.9425173121	 0.094451
H	 0.4074188416	-0.5497396427	 2.1436534774	 0.074424
H	-2.6396054995	-3.6871267878	 0.1608525504	 0.13566
H	-1.1726865548	-4.6690465227	-0.0044762207	 0.123686
H	-1.7596680626	-4.2090367203	 1.6090072383	 0.12962
136.7299	173.0515	194.9391	217.6136	299.1251	320.0775	418.8183	488.0175	563.1917	622.6728	646.0129	681.874	769.3385	824.5409	848.7116	860.655	879.0581	887.7572	928.0936	962.51	982.3718	1015.0998	1024.874	1061.2066	1067.6623	1095.4925	1170.2205	1190.6518	1213.1616	1256.3649	1277.9392	1306.3538	1334.7197	1398.5727	1412.2594	1443.9216	1473.8206	1478.9238	1490.0099	1497.6771	1680.799	3014.2144	3033.9365	3059.229	3098.4775	3107.5169	3115.0188	3118.082	3178.3327	3185.67	3199.9136
CC1=CC2C3C1OC23C	CC1=C[C@H]2[C@H]3[C@@H]1O[C@@]23C	
InChI=1S/C8H10O/c1-4-3-5-6-7(4)9-8(5,6)2/h3,5-7H,1-2H3	InChI=1S/C8H10O/c1-4-3-5-6-7(4)9-8(5,6)2/h3,5-7H,1-2H3/t5-,6-,7+,8-/m0/s1
