17
gdb 110754	2.12805	1.51853	1.37885	2.6261	68.9	-0.2268	0.0053	0.2321	1058.4483	0.135586	-455.112857	-455.104031	-455.103087	-455.146463	32.376	
C	 0.1590829045	 0.8679437726	 0.3519212782	-0.243783
O	-0.2374739959	-0.0567191553	-0.6482186102	-0.234015
C	-1.4308951525	-0.6947824474	-0.3654740063	 0.088977
C	-1.6596567974	-2.0716969151	-0.8708235318	-0.106057
N	-0.4328624146	-2.8726477724	-0.8210912491	-0.337763
C	-0.2641142935	-2.6502658452	 0.5648477282	 0.359944
O	 0.5928311051	-2.9920206979	 1.3292418118	-0.34421
C	-1.5602475741	-1.8450878081	 0.6547228845	 0.080741
N	-2.5835093361	-1.8288526871	 1.6338658883	-0.597622
H	 1.0901939698	 1.3248125863	 0.01129022	 0.136067
H	-0.5959984553	 1.6548370913	 0.4930651142	 0.111584
H	 0.3342092599	 0.3647088468	 1.3120980369	 0.126186
H	-2.3107286889	-0.0469614241	-0.3388414083	 0.10462
H	-2.5129827166	-2.3971543394	-1.4507773712	 0.118654
H	 0.3347246202	-2.6877398311	-1.4577849545	 0.248735
H	-2.7883855531	-2.7653299309	 1.967969295	 0.244272
H	-2.3129026515	-1.2724378931	 2.4384437644	 0.243668
72.5273	138.149	149.9713	192.2044	243.3216	258.6258	284.5072	353.515	482.4315	500.1666	566.6092	644.0863	700.7972	756.7831	778.8893	804.3714	858.3303	921.8707	945.9573	1013.5937	1030.9961	1065.3678	1113.8498	1168.5789	1182.6067	1225.2193	1251.2186	1254.3177	1305.4545	1324.3821	1345.077	1447.5491	1488.5098	1491.8487	1506.8795	1663.5454	1892.238	2993.2123	3052.5654	3084.3239	3130.0346	3208.7543	3500.0159	3547.8065	3574.1051
COC1C2NC(=O)C12N	CO[C@H]1[C@H]2NC(=O)[C@@]12N	
InChI=1S/C5H8N2O2/c1-9-3-2-5(3,6)4(8)7-2/h2-3H,6H2,1H3,(H,7,8)	InChI=1S/C5H8N2O2/c1-9-3-2-5(3,6)4(8)7-2/h2-3H,6H2,1H3,(H,7,8)/t2-,3+,5+/m1/s1
