13
gdb 5434	3.57511	1.92062	1.25921	3.9776	66.9	-0.2429	-0.025	0.2178	893.1616	0.096352	-361.518557	-361.511523	-361.510579	-361.550035	25.258	
C	 0.0871344811	 1.484951471	 0.061185489	-0.502204
C	-0.0412687165	 0.0074573979	 0.0430060694	 0.286014
C	-1.118421001	-0.8343984555	-0.083619058	 0.075813
C	-0.6014683717	-2.1792964061	-0.0267938811	-0.289404
C	 0.7349812632	-2.0488339637	 0.1282715895	-0.004929
O	 1.0855061735	-0.7287659054	 0.1718098584	-0.168805
C	-2.4672011357	-0.4334325314	-0.238862474	 0.194949
N	-3.5699533346	-0.101650357	-0.3657444838	-0.348642
H	 0.7309908606	 1.8351994339	-0.7527992461	 0.152252
H	-0.8977279254	 1.941678062	-0.0522922284	 0.163352
H	 0.5269425424	 1.8313446319	 1.002668381	 0.152254
H	-1.1691248256	-3.092655569	-0.0945635587	 0.138393
H	 1.5466884198	-2.7502677488	 0.2207234128	 0.150957
115.0511	141.4769	172.5352	245.2438	334.1484	517.4837	536.0419	588.4784	619.2145	695.2868	704.1878	756.1889	838.6797	912.7557	971.6237	1061.7843	1066.55	1134.3481	1167.983	1263.5699	1284.017	1408.5011	1434.0196	1472.2601	1480.4398	1556.8472	1629.0236	2346.0034	3038.0488	3092.7176	3141.5409	3271.3684	3296.2338
CC1=C(C=CO1)C#N	Cc1c(cco1)C#N	
InChI=1S/C6H5NO/c1-5-6(4-7)2-3-8-5/h2-3H,1H3	InChI=1S/C6H5NO/c1-5-6(4-7)2-3-8-5/h2-3H,1H3
