17
gdb 37268	3.73517	2.00275	1.9319	1.0066	72.28	-0.2271	0.071	0.2981	786.5828	0.140006	-380.770121	-380.764664	-380.76372	-380.799531	24.312	
C	 0.0454438072	 1.5082003833	-0.13571905	-0.25059
C	 1.2877277548	 0.7044568816	-0.0296522632	-0.024187
C	 1.894666377	 0.4400288923	 1.3355786779	 0.005084
C	 1.268720366	-0.8813425131	 1.8481781455	-0.095791
C	 0.9949315672	-0.1440610208	 3.1916952452	-0.068967
C	-0.1430390411	 0.5229871218	 2.522116439	-0.0804
C	-0.1612434124	-0.478870124	 1.3580639698	 0.007052
N	-0.0485925802	 0.0402106537	-0.0219090961	-0.129539
N	 1.229168134	 1.1564235055	 2.4988063525	-0.154293
H	-0.2368432916	 2.123873676	 0.7112221663	 0.138945
H	-0.2541759069	 1.8980233857	-1.1046875249	 0.115833
H	 1.9082607218	 0.5372965643	-0.9071488742	 0.08995
H	 2.9762478573	 0.5547324289	 1.4033361778	 0.079324
H	 1.6836248659	-1.8712360725	 1.6748047851	 0.079217
H	 1.2311148649	-0.3232820686	 4.2305145475	 0.104097
H	-0.9455495746	 1.1187084134	 2.9370004774	 0.100551
H	-0.9311463094	-1.2470766075	 1.4362247345	 0.083713
279.3445	325.4381	518.5603	543.0684	627.9113	666.3383	744.5404	775.3978	801.0878	816.7858	836.9567	847.0846	885.9698	905.0116	932.97	946.1493	955.4373	990.2425	992.8874	1034.0138	1046.8345	1071.1424	1084.073	1121.9418	1139.5193	1147.4849	1159.8903	1194.7801	1209.7655	1232.0997	1256.4246	1259.3001	1300.5365	1317.9552	1334.5078	1380.1091	1506.405	3111.8016	3116.2015	3120.364	3132.6714	3148.6836	3199.1532	3213.3978	3225.1236
C1C2C3C4C5C(C4N12)N35	C1[C@H]2[C@@H]3[C@H]4[C@@H]5[C@H]([C@H]4N12)N35	
InChI=1S/C7H8N2/c1-2-4-3-5(8(1)2)7-6(3)9(4)7/h2-7H,1H2	InChI=1S/C7H8N2/c1-2-4-3-5(8(1)2)7-6(3)9(4)7/h2-7H,1H2/t2-,3+,4+,5-,6+,7-,8?,9?/m0/s1
