21
gdb 88603	2.73758	1.27584	1.13733	2.7507	78.53	-0.2319	0.0761	0.308	1200.0961	0.181164	-424.193321	-424.183769	-424.182824	-424.227591	35.824	
C	 0.6076127122	 1.3718011605	-0.3129074802	-0.434452
C	 0.0923361674	 0.0279935461	 0.129872846	 0.077815
O	 1.0488897515	-1.0439947228	 0.2623720826	-0.274838
C	 0.3620480057	-0.5779377132	 1.4481216475	 0.026685
C	 1.1572292357	 0.077563777	 2.5343556019	-0.131654
C	 2.1810315508	-0.7195151256	 3.3476840855	-0.075365
C	 2.4719714103	-2.1736496324	 3.0462183358	-0.41043
C	 2.6373520238	 0.3761572183	 2.4136793344	 0.108735
O	 3.3583412661	 0.1160791573	 1.2501827102	-0.434786
H	 1.558537047	 1.6115088962	 0.1650911334	 0.157171
H	 0.755513782	 1.3799290139	-1.3977972611	 0.129573
H	-0.1227816006	 2.1516172382	-0.0711066317	 0.123852
H	-0.8217796505	-0.2989679106	-0.3686164987	 0.096443
H	-0.37711052	-1.2992505015	 1.8031991777	 0.099672
H	 0.5621077902	 0.7972129754	 3.093011602	 0.092034
H	 2.213310728	-0.470093404	 4.4057213595	 0.082152
H	 2.4820015934	-2.3774161051	 1.973349794	 0.134152
H	 3.4530223402	-2.4551173221	 3.4429631703	 0.121658
H	 1.7259400273	-2.8323159918	 3.5040457709	 0.112579
H	 2.9848929073	 1.297869198	 2.8726365108	 0.096806
H	 2.7874969223	-0.4021094719	 0.6621375893	 0.302198
73.0673	124.9665	146.5561	168.6907	186.9143	224.7524	257.455	339.4806	417.0273	439.0147	525.633	594.5452	607.5675	703.8849	742.6665	770.1443	787.7957	828.3751	880.6752	935.0343	972.452	1010.4796	1023.2545	1077.269	1103.0714	1111.6112	1129.7399	1147.6817	1167.173	1176.9314	1187.6733	1250.2228	1294.2598	1351.439	1368.5468	1395.4744	1411.1591	1422.4087	1426.3792	1457.9237	1479.6445	1492.9864	1494.2313	1505.1125	1511.1643	3036.5727	3040.7674	3079.323	3092.0189	3098.3536	3100.6481	3118.0955	3123.1371	3133.9303	3146.1002	3149.7322	3680.423
CC1OC1C1C(C)C1O	C[C@H]1O[C@H]1[C@H]1[C@@H](C)[C@H]1O	
InChI=1S/C7H12O2/c1-3-5(6(3)8)7-4(2)9-7/h3-8H,1-2H3	InChI=1S/C7H12O2/c1-3-5(6(3)8)7-4(2)9-7/h3-8H,1-2H3/t3-,4-,5+,6-,7-/m1/s1
