14
gdb 33439	2.16899	2.01806	1.18298	3.4788	71.2	-0.2841	-0.0282	0.2559	990.4517	0.102116	-395.670891	-395.663569	-395.662625	-395.702752	27.545	
N	-0.0567974589	-1.1901343513	-0.0756610977	-0.322118
C	-0.0600334163	-0.0345871458	-0.0579739774	 0.2338
C	-0.0332199071	 1.4235080943	-0.0059799854	 0.056175
C	-1.0067183132	 2.0029185504	-0.9246807182	 0.235022
N	-1.768390777	 2.4925701547	-1.6428219525	-0.319786
C	 0.1073857647	 2.1462482019	 1.4050106731	-0.049981
C	 1.5475472076	 1.5888277602	 1.5058334843	-0.231005
C	 1.3695004958	 2.170185713	 0.0827135531	-0.049984
N	 0.7089518226	 3.3572652684	 0.7374190385	-0.321423
H	-0.6757058866	 2.2086210181	 2.1593842693	 0.12404
H	 2.2064499322	 2.1722911581	 2.1453096056	 0.136422
H	 1.6760326824	 0.5128554511	 1.6089927982	 0.144778
H	 2.0852197111	 2.2609848908	-0.7331932753	 0.124039
H	 0.0369216428	 3.8002650961	 0.1039948244	 0.240021
139.906	147.655	183.8881	193.2794	421.5601	492.5453	506.717	526.2134	535.1061	589.3214	643.2474	765.112	817.4123	883.9633	911.6352	917.5512	1006.9703	1038.8068	1057.0818	1094.1715	1161.1868	1167.4911	1173.1636	1189.7702	1211.5069	1237.6077	1303.9617	1311.1322	1498.6913	2354.5382	2357.5539	3110.3105	3135.8687	3139.4167	3192.2287	3407.155
N#CC1(C#N)C2CC1N2	N#CC1(C#N)[C@H]2C[C@@H]1N2	
InChI=1S/C6H5N3/c7-2-6(3-8)4-1-5(6)9-4/h4-5,9H,1H2	InChI=1S/C6H5N3/c7-2-6(3-8)4-1-5(6)9-4/h4-5,9H,1H2/t4-,5+
