20
gdb 22493	3.30843	0.69572	0.58306	0.3405	87.43	-0.2391	-0.0294	0.2097	1902.6058	0.167428	-403.083107	-403.072391	-403.071447	-403.119549	38.264	
C	 0.1234134738	 1.5293266586	 0.0089292127	-0.38108
C	 0.0071997634	 0.0027514664	 0.0019024805	-0.17378
C	-1.4462867621	-0.4834282629	 0.0132328955	-0.158
C	-1.5483928407	-2.0102001607	 0.0060777268	-0.284371
C	-2.9558539698	-2.5666530605	 0.0165880425	 0.164693
N	-3.9410760525	-1.741447886	 0.0304799726	-0.163369
O	-5.1751210148	-2.3790790751	 0.0388596166	-0.387351
C	-3.1014949509	-3.985853754	 0.0103058122	 0.330203
C	-3.1524419611	-5.1886672457	 0.0042854004	-0.445382
H	 1.1694815763	 1.8511006053	 0.0006521895	 0.110607
H	-0.3673119579	 1.9668726337	-0.8675067073	 0.114756
H	-0.3504351853	 1.9574528657	 0.8991952759	 0.114756
H	 0.5198475507	-0.3998542829	-0.8820677748	 0.09394
H	 0.5366436794	-0.4092064994	 0.8715475822	 0.09394
H	-1.9646753686	-0.0874260984	 0.8940478115	 0.107528
H	-1.9814110882	-0.0781194001	-0.8532237851	 0.107526
H	-1.0324076357	-2.4202813957	-0.8731072616	 0.121235
H	-1.0157201225	-2.4295625526	 0.8708157841	 0.121235
H	-5.7898797317	-1.6369020926	 0.0487370258	 0.308834
H	-3.2217399618	-6.2485252331	-0.00078925	 0.204078
55.0238	82.4184	94.4176	134.6364	149.6045	242.1119	253.8918	265.9541	284.892	324.5198	401.869	441.5615	501.9903	619.2526	641.1163	650.3993	680.2051	736.1282	798.4268	812.1945	910.16	935.9251	1023.3248	1035.5078	1067.0447	1122.2782	1132.4525	1199.6167	1241.2065	1289.3485	1313.1519	1326.3088	1373.2847	1401.8486	1403.3982	1415.4355	1472.5644	1484.5921	1496.3346	1499.867	1512.1292	1685.0087	2219.6893	3010.3393	3014.6127	3029.8092	3036.2477	3038.6897	3041.4163	3080.655	3097.8216	3101.9437	3500.2707	3809.5262
CCCCC(=NO)C#C	CCCCC(=NO)C#C	
InChI=1S/C7H11NO/c1-3-5-6-7(4-2)8-9/h2,9H,3,5-6H2,1H3	InChI=1S/C7H11NO/c1-3-5-6-7(4-2)8-9/h2,9H,3,5-6H2,1H3
