13
gdb 24857	2.53558	1.84187	1.20586	3.909	68.71	-0.2798	-0.1076	0.1723	969.1956	0.090152	-452.776582	-452.769477	-452.768532	-452.808674	26.219	
N	-0.2617349083	 1.2392815021	-0.3477724266	-0.459733
C	-0.0699460501	 0.0295089122	-0.06695253	 0.390404
O	 1.2133233788	-0.5219375576	 0.0235678998	-0.23089
C	 1.6646606329	-1.4781606872	-0.8496572964	 0.393662
O	 2.8388205649	-1.7188952294	-0.8939487971	-0.30464
C	 0.6835223231	-2.2036452798	-1.6946962528	-0.187467
C	-0.6103623755	-2.4310206743	-1.4209435866	-0.082465
C	-1.3408558732	-1.8961300293	-0.2695600179	 0.003905
N	-1.1092140653	-0.8047953288	 0.3476963743	-0.192912
H	 0.6155484907	 1.6903109299	-0.6063478238	 0.245208
H	 1.1547679786	-2.6972440115	-2.537714071	 0.149962
H	-1.1635925366	-3.1142741807	-2.0603713142	 0.134967
H	-2.18486567	-2.4908278856	 0.0850773922	 0.139999
77.3573	107.6013	242.7649	330.1017	383.7494	456.8929	479.1586	536.665	638.5847	708.5445	710.5053	815.1772	825.7818	880.9852	905.4408	927.9253	970.1634	998.5488	1027.7222	1053.8305	1147.6243	1238.8372	1309.7442	1405.3678	1431.532	1664.3995	1714.8232	1759.7238	1830.6456	3115.9934	3166.6929	3202.9585	3506.2762
N=C1OC(=O)C=CC=N1	[NH][C]1OC(=O)C=CC=N1	
InChI=1S/C5H4N2O2/c6-5-7-3-1-2-4(8)9-5/h1-3,6H	InChI=1S/C5H4N2O2/c6-5-7-3-1-2-4(8)9-5/h1-3,6H
