20
gdb 11913	4.35281	1.42093	1.22049	1.8806	74.67	-0.2538	0.0766	0.3303	1056.6234	0.177612	-349.007639	-348.999781	-348.998837	-349.040119	30.409	
C	-0.1188563283	 1.5341948964	 0.0019215263	-0.405775
C	 0.0732105743	 0.0196971623	 0.0081992253	 0.048377
C	 0.9004095398	-0.5321074703	-1.171906688	-0.21524
C	 1.2578461366	-1.9596732547	-0.7270352378	-0.291016
C	 1.4729472614	-1.8315515579	 0.7825123938	 0.451141
C	 1.712725082	-2.9853123032	 1.6550764083	-0.255862
O	 2.7847815401	-2.1116984707	 1.2910383392	-0.275176
C	 0.8240799923	-0.5228509364	 1.2446759763	-0.299973
H	 0.8482076595	 2.0498494699	 0.0293555071	 0.114777
H	-0.6481596736	 1.8644349263	-0.8982947508	 0.111928
H	-0.6984100068	 1.8680094609	 0.8692590528	 0.112701
H	-0.9162341707	-0.4583891382	-0.0282592354	 0.070096
H	 0.3616655803	-0.4955707863	-2.1231917914	 0.093016
H	 1.8137140164	 0.0660469414	-1.2883263756	 0.101205
H	 0.4164995175	-2.6351312995	-0.9259892514	 0.10114
H	 2.1426242767	-2.3764789833	-1.2140895582	 0.11177
H	 1.4109922129	-2.9464963517	 2.7019332823	 0.107018
H	 1.7606603056	-3.9880609478	 1.228819361	 0.106328
H	 1.6250652131	 0.1677698054	 1.5351390548	 0.114285
H	 0.175069701	-0.6512690326	 2.1157699313	 0.09926
41.0105	171.4582	238.5744	253.2236	330.722	387.6282	409.5492	424.1419	471.0366	555.9805	727.2513	805.111	818.5786	864.1653	900.0019	922.4067	947.7657	955.2148	980.1706	1001.5126	1057.2174	1094.6299	1129.9201	1141.1338	1166.7705	1182.9701	1208.2613	1241.0848	1257.7995	1279.7514	1311.4933	1321.9524	1350.7292	1383.4002	1412.7628	1422.0954	1477.4919	1481.3977	1497.2286	1498.0536	1503.3769	1532.5543	2997.6085	3023.7986	3026.679	3032.3668	3038.7654	3067.22	3086.0835	3086.8954	3094.5239	3096.0844	3104.62	3150.2917
CC1CCC2(CO2)C1	C[C@H]1CC[C@]2(CO2)C1	
InChI=1S/C7H12O/c1-6-2-3-7(4-6)5-8-7/h6H,2-5H2,1H3	InChI=1S/C7H12O/c1-6-2-3-7(4-6)5-8-7/h6H,2-5H2,1H3/t6-,7+/m0/s1
