15
gdb 51294	4.35382	1.10982	0.93422	4.4575	69.11	-0.2428	-0.0291	0.2137	1193.7405	0.113353	-453.9487	-453.941156	-453.940212	-453.981485	27.698	
O	-0.4106692791	 0.0366386558	-0.049292722	-0.2545
C	-0.1182924573	 1.199013968	-0.1052516073	 0.157005
N	 1.1641188329	 1.7289656642	-0.1275724372	-0.402736
C	 2.3804006414	 1.0567817701	-0.112965792	 0.454672
N	 2.5400266862	-0.2016756801	-0.2456338113	-0.262542
C	 3.9724035803	-0.5073002704	-0.106429418	-0.185067
C	 4.6983633072	 0.8228154126	 0.044419263	 0.029362
O	 4.5126986141	 1.6895471656	-1.0804987224	-0.240492
C	 3.6496740559	 1.8513507296	 0.057022859	-0.108236
H	-0.8642527637	 2.019452284	-0.1379211408	 0.082004
H	 1.2173083303	 2.7357121654	-0.1607231606	 0.25882
H	 4.1243158772	-1.1477388645	 0.7707269707	 0.122024
H	 4.3172393156	-1.0657309151	-0.9835256371	 0.13363
H	 5.6429769757	 0.9250678764	 0.5706057675	 0.109497
H	 3.6995583933	 2.8070750085	 0.5727685884	 0.106557
49.6532	155.7165	176.9385	279.2469	308.4097	349.777	410.4159	566.3584	578.7636	705.9049	765.049	820.7445	837.1067	866.0813	911.3086	935.3915	980.0535	1021.5126	1027.6983	1055.5263	1089.9152	1125.9117	1210.7036	1226.8038	1265.3424	1319.3732	1331.5663	1405.7052	1444.7041	1467.6144	1542.0026	1702.9658	1848.73	2923.2539	3039.6208	3079.0566	3144.6529	3162.6634	3624.0478
O=CNC1=NCC2OC12	O=CNC1=NC[C@H]2O[C@@H]12	
InChI=1S/C5H6N2O2/c8-2-7-5-4-3(9-4)1-6-5/h2-4H,1H2,(H,6,7,8)	InChI=1S/C5H6N2O2/c8-2-7-5-4-3(9-4)1-6-5/h2-4H,1H2,(H,6,7,8)/t3-,4-/m1/s1
