19
gdb 66326	2.46859	1.3919	1.28545	1.5042	83.49	-0.2421	0.0104	0.2525	1116.1724	0.158352	-385.858976	-385.850192	-385.849248	-385.892003	33.985	
C	-0.040403035	 1.5370789664	-0.0080787969	-0.426668
C	-0.0237657114	-0.0083424193	 0.0057600224	 0.020783
C	 0.7321681091	-0.5245314404	-1.2451084975	-0.100767
O	 1.0269427395	-1.9003611319	-1.1562605303	-0.247371
C	 1.9397958918	-2.1948341153	-0.1177598284	-0.121025
C	 1.6238508214	-1.4814793143	 1.1661512267	-0.086563
C	 0.7177659288	-0.5117463322	 1.2357146779	-0.071214
C	-1.4018590371	-0.510902343	 0.0193969396	 0.364792
C	-2.5398436943	-0.8987260361	 0.0347616374	-0.512502
H	 0.9816284657	 1.9279264184	 0.0174653224	 0.118613
H	-0.5388547717	 1.9111674585	-0.9073473657	 0.12624
H	-0.5804191302	 1.9215609451	 0.8612619937	 0.128225
H	 0.1218359415	-0.3928423988	-2.1418509782	 0.115646
H	 1.656541388	 0.0661788016	-1.3587803808	 0.085303
H	 1.8959293049	-3.2804918184	 0.0279125804	 0.122074
H	 2.9739271151	-1.9578048691	-0.4320199	 0.097848
H	 2.1746267809	-1.7979662031	 2.0481304865	 0.097247
H	 0.4779676216	-0.0296748291	 2.1795243617	 0.094959
H	-3.5391745885	-1.257343349	 0.047321879	 0.194381
89.2771	142.8361	179.9082	235.0574	276.3929	289.1669	335.4735	415.6389	462.9489	493.8571	542.7092	590.2667	620.3798	632.3785	685.9184	732.3704	822.2727	905.8627	911.9751	933.7519	992.1794	1009.2512	1018.3827	1058.7153	1105.148	1127.1797	1189.0121	1213.739	1248.7353	1268.0989	1326.5262	1367.0624	1395.3997	1407.2365	1424.0821	1480.9704	1487.4612	1491.6278	1497.1307	1723.477	2229.3053	2927.9218	2966.8403	3037.5571	3054.3109	3099.2502	3113.4636	3119.0544	3152.9343	3175.4527	3502.7303
CC1(COCC=C1)C#C	C[C@]1(COCC=C1)C#C	
InChI=1S/C8H10O/c1-3-8(2)5-4-6-9-7-8/h1,4-5H,6-7H2,2H3	InChI=1S/C8H10O/c1-3-8(2)5-4-6-9-7-8/h1,4-5H,6-7H2,2H3/t8-/m0/s1
