20
gdb 7974	3.28742	1.61996	1.27349	1.653	77.45	-0.2343	0.0241	0.2584	1042.4093	0.176677	-349.02749	-349.018919	-349.017975	-349.060027	32.748	
C	-0.1275352037	 1.5967424352	 0.0813120226	-0.39004
C	 0.0714886166	 0.0805251525	 0.0235873264	-0.037419
C	 0.8958300011	-0.4325810388	-1.1398280414	-0.179245
C	 1.6665885174	-1.4722662046	-0.8046576303	 0.310249
C	 2.5662184424	-2.2693248402	-1.6950321308	-0.495056
C	 1.4756433368	-1.8125173345	 0.6627926638	-0.322111
C	 0.8321060955	-0.5303098847	 1.2395647218	 0.116435
O	 1.8208645023	 0.3497396453	 1.7582492739	-0.43115
H	 0.827423469	 2.124700647	 0.1432112245	 0.111716
H	-0.6548736058	 1.9496818967	-0.8111209382	 0.106757
H	-0.7184362457	 1.8825402844	 0.9571396242	 0.115903
H	-0.9247695266	-0.3888909328	-0.0173014147	 0.078169
H	 0.8223882646	-0.0134563543	-2.1389477176	 0.081905
H	 2.5750977145	-1.8787973023	-2.7164459394	 0.122483
H	 3.5976484547	-2.2722279192	-1.3197538492	 0.123424
H	 2.2514750228	-3.3202576084	-1.7364171571	 0.126403
H	 0.811548861	-2.6822861736	 0.7731195944	 0.103489
H	 2.4054287887	-2.0544762214	 1.1903837034	 0.102576
H	 0.166051657	-0.7307192423	 2.0830189109	 0.077737
H	 2.4484628273	 0.5219582362	 1.0463869029	 0.277774
106.0314	149.2977	190.9576	208.5721	257.7954	299.9554	368.5325	377.7512	417.2031	456.7576	528.8276	615.6701	716.4482	822.0451	840.3843	878.8006	891.6902	925.7848	989.8776	1005.86	1016.6984	1045.7497	1081.58	1112.1252	1126.7239	1174.1461	1193.2553	1258.4235	1262.3115	1279.6652	1324.4598	1342.9693	1364.4998	1410.305	1414.3624	1433.088	1475.3084	1479.6379	1489.0788	1493.6835	1496.5791	1710.4702	2968.641	3004.0532	3015.5213	3038.1981	3059.7139	3061.0503	3080.384	3102.3843	3108.1727	3117.8545	3175.2979	3787.5151
CC1C=C(C)CC1O	C[C@H]1C=C(C)C[C@H]1O	
InChI=1S/C7H12O/c1-5-3-6(2)7(8)4-5/h3,6-8H,4H2,1-2H3	InChI=1S/C7H12O/c1-5-3-6(2)7(8)4-5/h3,6-8H,4H2,1-2H3/t6-,7+/m0/s1
