17
gdb 53542	2.64516	0.9595	0.81006	4.7034	81.44	-0.2609	0.0189	0.2798	1471.7727	0.134515	-380.830507	-380.820745	-380.819801	-380.867013	33.679	
C	 0.1224014455	 1.4412807412	 0.4165056371	-0.497158
C	 0.0578062751	 0.0203716775	 0.1086646557	 0.087935
C	 0.0012398086	-1.1526075396	-0.1542105813	 0.069333
C	-0.0988200167	-2.5753626605	-0.4601617585	-0.449591
C	-1.4551523974	-3.1755584531	-0.0781940786	 0.153571
C	-1.5029779042	-4.5622714119	 0.4779151805	-0.269818
N	-1.7727900954	-3.410228257	 1.3407620072	-0.31479
C	-2.569976174	-2.704909848	-0.8777703888	 0.296325
N	-3.4387610394	-2.3464945672	-1.5502806577	-0.336144
H	 0.7714917011	 1.6342642536	 1.2774715209	 0.149123
H	 0.5139748092	 2.0128007032	-0.4318185669	 0.153461
H	-0.8714909119	 1.8361176949	 0.6527573923	 0.158945
H	 0.0780163341	-2.7487334935	-1.5291682684	 0.151189
H	 0.6792736146	-3.1353728515	 0.0748527006	 0.128649
H	-2.3626556441	-5.1926189264	 0.2747069802	 0.146571
H	-0.5547773221	-5.0871214796	 0.5633161162	 0.125933
H	-0.9602435131	-3.171453282	 1.9051276595	 0.246467
28.8186	43.2311	78.1863	168.6441	209.9336	229.4884	270.2353	339.3562	366.8354	384.1986	467.1561	570.4733	587.2163	707.7604	773.3027	853.3156	891.3398	931.9711	970.0806	993.7772	1051.8571	1054.504	1087.8775	1145.7889	1171.2716	1207.6607	1240.7014	1298.4736	1344.6484	1380.7085	1414.803	1463.8011	1477.0032	1477.2273	1510.9139	2361.2291	2377.8876	3018.1406	3031.0615	3053.7133	3092.867	3095.24	3114.4558	3207.9765	3500.2863
CC#CCC1(CN1)C#N	CC#CC[C@]1(CN1)C#N	
InChI=1S/C7H8N2/c1-2-3-4-7(5-8)6-9-7/h9H,4,6H2,1H3	InChI=1S/C7H8N2/c1-2-3-4-7(5-8)6-9-7/h9H,4,6H2,1H3/t7-/m1/s1
