16
gdb 45289	3.00087	1.66752	1.28826	3.1014	69.11	-0.251	0.0141	0.2652	968.1433	0.125783	-437.856717	-437.849735	-437.848791	-437.888105	27.319	
O	-0.1331703466	 0.0129811529	 0.1803063611	-0.354779
C	-0.0489828138	 1.1997585333	 0.0214927227	 0.340725
N	-1.000689696	 2.2113871605	-0.0427889324	-0.343003
C	-0.0633999681	 3.3192230785	-0.2269564305	-0.013755
C	 0.4398726112	 4.0480140474	 1.0582013664	-0.268333
C	 1.5723719861	 3.0083573159	 1.1626705044	 0.09031
O	 2.7672309891	 3.3626473237	 0.426165326	-0.295426
C	 2.4635632557	 2.4210946018	-0.6401126705	-0.188847
C	 1.0622588367	 2.2377691753	-0.0989535742	 0.126568
H	-1.9579930335	 2.2105252996	 0.2806633092	 0.250746
H	-0.2245313022	 3.9015799062	-1.1355135858	 0.094184
H	 0.8098148103	 5.0615218367	 0.8898425086	 0.124406
H	-0.2736545283	 4.0513722293	 1.8860463159	 0.1078
H	 1.7999577221	 2.533508163	 2.1204883747	 0.091575
H	 2.5690458355	 2.8672044709	-1.6348046021	 0.114654
H	 3.0907855218	 1.523041955	-0.5714094134	 0.123175
138.6657	151.5006	256.3374	296.8293	410.4894	437.0137	456.6701	597.6093	679.4656	714.1697	725.7732	801.5672	868.3981	879.3835	902.2473	976.7191	984.0943	1016.9936	1040.5145	1068.1181	1093.9477	1121.7786	1156.7299	1157.3994	1203.3096	1223.6193	1256.4017	1290.7291	1309.7852	1344.4642	1360.3554	1372.835	1453.002	1516.433	1889.0293	3018.6268	3065.1698	3073.3347	3079.1728	3096.4588	3130.1776	3596.8552
O=C1NC2CC3OCC123	O=C1N[C@H]2C[C@@H]3OC[C@]123	
InChI=1S/C6H7NO2/c8-5-6-2-9-4(6)1-3(6)7-5/h3-4H,1-2H2,(H,7,8)	InChI=1S/C6H7NO2/c8-5-6-2-9-4(6)1-3(6)7-5/h3-4H,1-2H2,(H,7,8)/t3-,4-,6-/m0/s1
