17
gdb 67059	2.94719	1.74542	1.43381	2.2309	75.34	-0.2351	-0.0112	0.2239	947.4512	0.134906	-417.840422	-417.832816	-417.831872	-417.872069	30.285	
C	-0.1113581842	 1.4928198604	-0.1719094267	-0.479775
C	-0.0404188446	-0.0082853393	-0.006571121	 0.236092
N	-1.1987318549	-0.635003321	 0.9549207221	-0.19455
C	-0.3577612771	-1.9111412078	 0.8923780151	-0.202503
C	 0.6904791077	-0.8021343716	 1.007768558	 0.298755
C	-0.2366671367	-0.2031193458	 2.1144509768	-0.250139
O	 1.8968307702	-0.9466811548	 0.1464580516	-0.334039
C	 1.031328708	-0.6416840152	-0.9433196381	 0.316138
N	 1.2295724389	-0.7430379006	-2.1730418931	-0.541705
H	 0.8866338569	 1.9443024055	-0.144837408	 0.137893
H	-0.5443209175	 1.7188068357	-1.151171113	 0.150525
H	-0.7361390766	 1.9670636093	 0.5875398853	 0.131277
H	-0.5098425748	-2.576549313	 1.7434520738	 0.108226
H	-0.4416532987	-2.4335878506	-0.0623209417	 0.129046
H	-0.1992311879	 0.8669508388	 2.3044539228	 0.129815
H	-0.4100753366	-0.7830859929	 3.0225258553	 0.125688
H	 2.1603978278	-1.1115460171	-2.3787164492	 0.239254
138.591	154.0144	239.5354	271.2125	321.426	403.2122	463.4292	518.0085	558.8249	585.8421	669.0974	697.1089	727.0375	806.389	822.7682	863.1487	877.918	908.1276	977.3174	985.4449	1033.7537	1056.0808	1082.4137	1115.2089	1140.0511	1163.7345	1182.2873	1182.6204	1216.5223	1243.4007	1340.8351	1408.5832	1479.4599	1487.6079	1511.7232	1543.2579	1804.3669	3039.0923	3074.0099	3092.452	3102.8901	3128.7507	3147.1627	3181.9158	3470.4324
CC12N3CC1(C3)OC2=N	C[C@]12N3C[C@@]1(C3)O[C]2[NH]	
InChI=1S/C6H8N2O/c1-5-4(7)9-6(5)2-8(5)3-6/h7H,2-3H2,1H3	InChI=1S/C6H8N2O/c1-5-4(7)9-6(5)2-8(5)3-6/h7H,2-3H2,1H3/t5-/m1/s1
