18
gdb 47075	2.98012	1.55253	1.06909	3.276	80.24	-0.2301	-0.055	0.1751	1106.7638	0.150295	-401.974422	-401.967066	-401.966122	-402.006313	28.863	
O	 0.0467545292	 0.0490702966	 0.4156191305	-0.31803
C	 0.0102403673	 1.2209605172	 0.1268206874	 0.306463
C	-1.2639696521	 2.0755559285	-0.0416589279	-0.279846
N	-0.7932581449	 3.4718582767	-0.0239752326	-0.330335
C	 0.5564272472	 3.4701325203	-0.6102762813	-0.044758
C	 1.5865206633	 4.4990569831	-0.0990183865	-0.236471
C	 2.9038152764	 3.6728260795	 0.0281521863	-0.252923
C	 2.4006257211	 2.2605491014	 0.2468447832	-0.200663
C	 1.1192242802	 2.1649978744	-0.1127283054	 0.259713
H	-1.7364455852	 1.7691340491	-0.9929381945	 0.110813
H	-1.9791090367	 1.8697394953	 0.7605624977	 0.131675
H	-1.4290876846	 4.0847393093	-0.5208092497	 0.220901
H	 0.5288267147	 3.4780352419	-1.7173057722	 0.063666
H	 1.6957206416	 5.3763830515	-0.7417891245	 0.095462
H	 1.2660737495	 4.8349396772	 0.8920877305	 0.117742
H	 3.5087590807	 3.7330860469	-0.8884595596	 0.118819
H	 3.5495420023	 4.0183183678	 0.8423048256	 0.115735
H	 2.9973244001	 1.4644538632	 0.6772564532	 0.122037
110.8403	162.6059	180.9643	292.2885	335.6403	461.3117	544.6786	559.8782	579.1022	624.7863	679.4074	796.436	832.6959	840.2641	888.2493	910.4741	961.9329	979.3462	994.9434	1036.15	1044.178	1073.0856	1118.0036	1156.6805	1189.5993	1195.1871	1231.0603	1238.1778	1272.8396	1297.2706	1327.7639	1349.9146	1380.8631	1439.0262	1477.1577	1482.9957	1493.1165	1706.0939	1823.848	2899.901	2940.2513	3006.2504	3055.8474	3069.8504	3077.0664	3110.0106	3205.4767	3538.1969
O=C1CNC2CCC=C12	O=C1CN[C@H]2CCC=C12	
InChI=1S/C7H9NO/c9-7-4-8-6-3-1-2-5(6)7/h2,6,8H,1,3-4H2	InChI=1S/C7H9NO/c9-7-4-8-6-3-1-2-5(6)7/h2,6,8H,1,3-4H2/t6-/m0/s1
