21
gdb 80485	2.27188	1.6178	1.39774	1.9165	77.04	-0.2323	0.0714	0.3037	1069.8824	0.182842	-424.212274	-424.203628	-424.202684	-424.245273	34.246	
C	 0.7585645253	 1.1508012035	-0.6912608916	-0.40955
C	 0.4339653679	-0.2412060992	-0.1791325966	 0.134362
O	 1.1603603644	-1.20101099	-0.9830080384	-0.291459
C	 1.3493151763	-2.3768035352	-0.2295973857	 0.002549
C	 2.6287626013	-2.311905127	 0.5539488461	 0.101848
O	 3.5615074573	-1.335872288	 0.2138490958	-0.425281
C	 1.2943141795	-2.0024752953	 1.2313693289	-0.127877
C	 0.7697434365	-0.5653491455	 1.3139367106	-0.041033
C	 1.7020615742	 0.4092831483	 2.0490567833	-0.407143
H	 1.8150670213	 1.3947233794	-0.5498028881	 0.124541
H	 0.5284008348	 1.2188880444	-1.7580164313	 0.127135
H	 0.1598373531	 1.9002849074	-0.1650039003	 0.121123
H	-0.6378658004	-0.4358759747	-0.3341322338	 0.077771
H	 0.9378595029	-3.2788528783	-0.6719249212	 0.093512
H	 3.099943512	-3.2439263256	 0.8540757386	 0.099801
H	 3.1899332787	-0.8902282355	-0.5626694674	 0.291211
H	 0.9520110766	-2.7183593354	 1.9706426299	 0.089222
H	-0.1794415233	-0.5891709717	 1.8615707991	 0.076155
H	 2.687215445	 0.4562516762	 1.583736194	 0.144995
H	 1.2749231009	 1.416421481	 2.0886709748	 0.105413
H	 1.8427314159	 0.0720517712	 3.0810398334	 0.112704
59.1435	187.6748	236.6756	255.7894	270.5212	282.2898	319.8398	363.8829	493.6985	502.9704	563.7113	631.4428	691.7902	722.6131	742.9999	776.3554	788.3405	880.5431	920.2788	989.715	1011.4415	1018.896	1046.8553	1077.617	1094.4786	1095.2212	1106.9234	1129.6885	1164.968	1186.3713	1208.0184	1290.1195	1301.5846	1330.0886	1357.5336	1366.8148	1376.0776	1389.4433	1411.716	1414.758	1444.8565	1480.9942	1495.5944	1502.1822	1514.1044	2980.7897	3031.7799	3041.8187	3046.699	3099.1626	3118.2996	3122.1826	3143.3814	3148.1441	3150.8457	3169.9437	3708.7948
CC1OC2C(O)C2C1C	C[C@H]1O[C@H]2[C@@H](O)[C@H]2[C@H]1C	
InChI=1S/C7H12O2/c1-3-4(2)9-7-5(3)6(7)8/h3-8H,1-2H3	InChI=1S/C7H12O2/c1-3-4(2)9-7-5(3)6(7)8/h3-8H,1-2H3/t3-,4+,5+,6-,7+/m0/s1
