17
gdb 125204	3.10866	1.64114	1.09952	2.5745	75.47	-0.2075	0.0341	0.2416	1080.1144	0.138613	-418.025407	-418.017542	-418.016597	-418.059067	28.315	
C	-0.0753007861	 1.5473129136	 0.0437051374	-0.512775
C	 0.0060966679	 0.0535020024	-0.0176103534	-0.008212
C	 0.0696019055	-0.7727839702	-1.1170008093	 0.438023
O	 0.0059895784	-0.6775126353	-2.4660569899	-0.286333
C	 0.2603536151	-2.0163461541	-2.9687771959	-0.107385
C	 0.0292590938	-2.9923185403	-1.7798744572	-0.193505
N	 0.1646035753	-2.0484774968	-0.6948983402	 0.001157
N	 0.125068	-2.1640894701	 0.6538711616	-0.312806
C	 0.0486391532	-0.8931829091	 1.0498606168	-0.044968
H	 0.8734773596	 2.0023890986	 0.3527064832	 0.128158
H	-0.3334922806	 1.9639208949	-0.9338411489	 0.129893
H	-0.8390517386	 1.8772880061	 0.7558375766	 0.127672
H	-0.4092481683	-2.1925748238	-3.8113140213	 0.134062
H	 1.2987821741	-2.0604791145	-3.3138115287	 0.130091
H	-0.9672998704	-3.4498680842	-1.7919167183	 0.131631
H	 0.7815730903	-3.7836557778	-1.7430065594	 0.138113
H	 0.030367831	-0.6718547195	 2.108653777	 0.107183
28.0264	119.5741	140.9486	227.4918	240.2356	326.8576	502.5436	599.7978	640.1348	648.7112	693.1105	777.6486	807.8926	869.7983	875.3369	950.4976	993.4267	1001.0315	1066.2771	1085.288	1137.06	1193.8412	1207.3877	1217.9521	1247.8743	1306.209	1338.2766	1360.7142	1382.4071	1423.5037	1446.9513	1488.0583	1496.2499	1505.8097	1524.5411	1548.2924	1669.2846	3025.9174	3032.1165	3051.0005	3076.9413	3099.9503	3110.1771	3131.4862	3227.3133
CC1=C2OCCN2N=C1	Cc1c2OCCn2nc1	
InChI=1S/C6H8N2O/c1-5-4-7-8-2-3-9-6(5)8/h4H,2-3H2,1H3	InChI=1S/C6H8N2O/c1-5-4-7-8-2-3-9-6(5)8/h4H,2-3H2,1H3
