23
gdb 122488	4.12166	0.57451	0.53026	3.4082	89.04	-0.2438	-0.0152	0.2286	2129.6205	0.203999	-388.300001	-388.289489	-388.288545	-388.336714	37.614	
C	-0.2709860926	 1.6072425217	 0.1606494769	-0.380987
C	 0.0779716385	 0.1281577927	-0.0249157623	-0.167245
C	 0.6793130917	-0.5102767338	 1.2316514332	-0.153289
C	 1.0303864172	-1.9933680593	 1.0483753331	-0.220703
C	 1.6445500717	-2.5948262787	 2.2979532249	 0.002409
C	 0.8131403202	-3.2164755598	 3.3682606793	-0.29721
C	 1.7466333582	-4.1028899478	 2.5469860361	-0.121145
C	 1.1550007473	-5.0841684327	 1.6128394379	 0.165605
O	 1.6526710566	-6.1493494905	 1.3380734992	-0.272808
H	 0.6174041558	 2.1944074377	 0.4186560475	 0.114389
H	-0.6984955457	 2.034584769	-0.7516503101	 0.113366
H	-1.0012242748	 1.7437859513	 0.9660585813	 0.114134
H	-0.8229041021	-0.4276922992	-0.317093123	 0.095724
H	 0.7838948344	 0.0186730394	-0.8587111724	 0.096998
H	 1.5828451491	 0.0429351565	 1.5238483729	 0.093499
H	-0.0232698245	-0.4053266574	 2.0692495861	 0.097272
H	 0.1249408077	-2.5427395222	 0.7653863541	 0.098752
H	 1.728956034	-2.1015279807	 0.2081056182	 0.105769
H	 2.5260188363	-2.0602610412	 2.6451667103	 0.098312
H	 1.0660705739	-3.0652176915	 4.4112797475	 0.126568
H	-0.2506869566	-3.3270075755	 3.1770982896	 0.121479
H	 2.6550465457	-4.4560569593	 3.022905975	 0.105245
H	 0.1771133478	-4.7825092885	 1.1717386247	 0.063867
50.7348	70.6747	89.6674	121.8989	137.3497	215.3155	236.9907	259.9638	322.7777	359.95	409.0437	466.7656	541.5402	737.2336	786.2902	806.5274	843.8598	869.833	904.383	911.9102	948.6137	985.0359	1028.1737	1048.1764	1064.7516	1068.782	1076.0859	1126.8825	1142.3413	1189.9681	1199.1211	1230.1587	1251.458	1280.7581	1318.72	1331.7885	1344.7359	1360.4188	1398.4105	1411.733	1419.0539	1451.8862	1482.0353	1486.311	1490.7051	1498.8525	1500.1414	1513.2066	1813.8634	2862.1477	3006.6628	3014.8071	3022.9115	3029.6622	3032.9052	3050.3221	3069.8516	3096.0193	3102.3195	3127.1077	3132.4693	3175.9575	3217.1065
CCCCC1CC1C=O	CCCC[C@H]1C[C@H]1C=O	
InChI=1S/C8H14O/c1-2-3-4-7-5-8(7)6-9/h6-8H,2-5H2,1H3	InChI=1S/C8H14O/c1-2-3-4-7-5-8(7)6-9/h6-8H,2-5H2,1H3/t7-,8-/m0/s1
