19
gdb 119335	4.79382	0.95192	0.92418	1.3148	78.3	-0.2198	0.0788	0.2986	1312.5873	0.158466	-385.769556	-385.761433	-385.760489	-385.802712	31.305	
O	-0.1368619809	 1.4643173449	-0.0356871016	-0.419391
C	-0.0101818061	 0.0565101201	-0.1681558044	-0.066449
C	-1.3617157087	-0.5667254646	 0.1732742574	-0.340738
C	-1.3538939117	-2.0588888051	 0.1038503239	 0.384618
C	-0.5782649899	-3.1458769897	 0.9245527811	-0.161848
C	-0.5990768788	-4.0735379784	-0.2811960136	-0.084033
C	-1.7331610953	-4.1166683137	 0.7319952559	-0.084811
C	-2.5048353066	-3.0385233782	-0.0852081236	-0.168895
C	-1.3694802044	-2.9974310377	-1.1020447032	-0.149973
H	 0.7125863334	 1.8638295898	-0.2435047203	 0.284724
H	 0.277529404	-0.2281831927	-1.1923883635	 0.087945
H	 0.7626769627	-0.3404769202	 0.5098910554	 0.086786
H	-1.6547404676	-0.2307510308	 1.1766057235	 0.109398
H	-2.1148198669	-0.1711050036	-0.5198463982	 0.107531
H	 0.1396292376	-3.0794587529	 1.7318448809	 0.082177
H	 0.1010643346	-4.847253068	-0.5663674892	 0.084038
H	-2.0631630182	-4.9296179779	 1.3647129381	 0.084717
H	-3.5588984028	-2.8338954754	-0.2211138041	 0.082895
H	-1.3999488343	-2.7621225661	-2.1580571047	 0.08131
83.3693	96.9616	113.7895	256.7181	285.0913	336.897	347.0186	637.6792	674.0113	749.3707	759.7594	770.3613	797.0684	806.5676	848.5103	854.7961	882.3972	913.0752	939.9507	956.1012	980.6902	1002.8718	1007.5124	1018.7446	1025.8711	1081.0591	1089.0912	1147.8618	1172.4574	1194.9327	1220.5541	1236.2222	1263.6095	1275.4018	1314.8352	1319.4264	1338.5984	1433.8363	1460.0056	1479.7605	1528.0432	2966.3603	2994.3603	3020.0771	3062.1707	3184.9533	3188.8982	3198.915	3200.3002	3211.0907	3830.3809
OCCC12C3C4C3C1C24	OCC[C@@]12[C@@H]3[C@H]4[C@@H]3[C@@H]1[C@@H]24	
InChI=1S/C8H10O/c9-2-1-8-5-3-4(5)7(8)6(3)8/h3-7,9H,1-2H2	InChI=1S/C8H10O/c9-2-1-8-5-3-4(5)7(8)6(3)8/h3-7,9H,1-2H2/t3-,4+,5-,6+,7-,8+
