14
gdb 132635	3.19787	1.34904	0.94977	1.9804	69.17	-0.2035	-0.0164	0.1871	1125.56	0.102105	-478.036714	-478.029238	-478.028294	-478.068434	29.091	
N	-0.0309224844	 1.4089984218	 0.1780554086	-0.601908
C	-0.0160417382	 0.0162780965	 0.0446758987	 0.133834
C	-1.1627615387	-0.7714310814	-0.0141265073	-0.064288
N	-1.157079338	-2.1092110154	-0.0775086153	-0.365102
C	 0.0115410912	-2.7303862195	-0.0843300665	 0.44119
O	 0.0110142112	-4.0825780247	-0.1449531664	-0.425408
C	 1.2408994292	-2.0641224604	-0.0365344749	-0.362229
C	 1.1946556582	-0.6900133509	 0.026610756	 0.296981
F	 2.3301283834	 0.0191847873	 0.0624395846	-0.083758
H	 0.8230888796	 1.846922169	-0.1383255747	 0.254253
H	-0.8396696506	 1.850541027	-0.2367055237	 0.250579
H	-2.1403207802	-0.2940403827	-0.0084800104	 0.105313
H	-0.9199481134	-4.3424201031	-0.1706214535	 0.296403
H	 2.1819837808	-2.5969946737	-0.0522504051	 0.12414
147.1976	230.379	246.634	288.9958	345.1607	386.4111	456.1274	457.1965	511.0251	535.3556	584.0849	657.641	691.7931	757.2596	777.5115	811.6392	869.1876	921.9134	981.6764	1101.631	1161.8983	1219.6733	1262.7648	1330.8769	1343.9086	1388.7585	1492.8136	1544.8464	1639.0718	1641.1959	1675.8589	3148.3789	3227.0855	3554.8912	3652.6362	3775.405
NC1=CN=C(O)C=C1F	Nc1cnc(O)cc1F	
InChI=1S/C5H5FN2O/c6-3-1-5(9)8-2-4(3)7/h1-2H,7H2,(H,8,9)	InChI=1S/C5H5FN2O/c6-3-1-5(9)8-2-4(3)7/h1-2H,7H2,(H,8,9)
