20
gdb 33262	5.4051	0.70641	0.68202	1.8711	82.61	-0.2024	0.0443	0.2467	1702.8093	0.171454	-403.167823	-403.15857	-403.157626	-403.20335	33.059	
C	-0.0279449512	 1.3779103488	-0.0106290979	-0.228146
O	 0.0102166022	-0.0297840485	 0.0120339629	-0.228962
C	 0.6807804797	-0.5453583042	 1.1363644826	-0.044774
C	 0.6463793441	-2.0715178476	 1.0294202797	-0.203122
N	 1.3116174122	-2.7192535009	 2.1412279838	 0.037685
C	 2.653489091	-3.0121716768	 2.2083279794	-0.099293
C	 2.9215799699	-3.5353278411	 3.4516110758	-0.167114
C	 1.6955159915	-3.5578313484	 4.1721070564	-0.16711
C	 0.7257341457	-3.0475151699	 3.3411922713	-0.099294
H	 0.9834759533	 1.8128581201	-0.0375197586	 0.107343
H	-0.5652028886	 1.6756597308	-0.9141272181	 0.129789
H	-0.5531368317	 1.7857901179	 0.8672556169	 0.10734
H	 1.7258036724	-0.1952422153	 1.1734539518	 0.096657
H	 0.1955719354	-0.2238310347	 2.0729689374	 0.096672
H	-0.3937146137	-2.4070863278	 0.9885137415	 0.127704
H	 1.125873466	-2.3788418661	 0.0957723935	 0.127693
H	 3.2948811102	-2.8280022353	 1.360581732	 0.111662
H	 3.8845960704	-3.8769425086	 3.7989366274	 0.091801
H	 1.539919575	-3.9199783254	 5.1767837718	 0.091802
H	-0.3315775539	-2.8944985272	 3.4917033104	 0.111666
42.2995	76.7758	80.9421	104.7402	224.3983	230.3082	337.3608	352.097	444.308	623.5332	635.7428	682.354	740.2178	742.3224	797.6787	803.6212	848.4796	884.953	983.881	1001.1303	1063.3241	1074.1861	1083.0639	1115.1503	1116.1273	1166.8875	1180.4641	1222.7424	1230.3339	1287.5324	1306.1919	1318.1984	1348.2988	1422.1433	1425.099	1425.2803	1481.9346	1486.582	1487.5513	1504.9029	1530.5477	1536.0891	1562.2141	2959.0818	2975.8233	2992.5432	3018.8397	3061.0353	3110.3982	3116.8537	3237.9787	3247.5352	3259.0654	3268.458
COCCN1C=CC=C1	COCCn1cccc1	
InChI=1S/C7H11NO/c1-9-7-6-8-4-2-3-5-8/h2-5H,6-7H2,1H3	InChI=1S/C7H11NO/c1-9-7-6-8-4-2-3-5-8/h2-5H,6-7H2,1H3
