21
gdb 68449	2.67129	1.65801	1.24202	1.2429	83.07	-0.2397	0.0319	0.2716	1070.6141	0.184439	-387.096949	-387.089096	-387.088152	-387.128588	32.634	
O	-0.2513136589	 1.4458109726	-0.0716735549	-0.481711
C	 0.0447817808	 0.0679710899	 0.0596936764	 0.413147
C	 0.0869289448	-0.5130194728	 1.5042893143	-0.291204
C	-0.7958058118	-1.6918933579	 1.0010974267	-0.005819
C	-1.1901074078	-0.8166297689	-0.2236712968	-0.266127
C	-0.0186865172	-2.9578331373	 0.6508940974	-0.262679
C	 1.1806813581	-2.8163152396	-0.2489062329	-0.050187
C	 1.703419048	-1.7339780592	-0.8283248951	-0.049947
C	 1.2685112736	-0.2943847091	-0.7812492065	-0.318292
H	 0.546926661	 1.9461980709	 0.1313385615	 0.270359
H	 1.0641288404	-0.7541891292	 1.933022085	 0.090742
H	-0.460790073	 0.1428916359	 2.1851899591	 0.099271
H	-1.6247693253	-1.9606756987	 1.6604673616	 0.066814
H	-2.1028084069	-0.2455080993	-0.0400077264	 0.106711
H	-1.253644633	-1.2997163787	-1.2023771424	 0.096397
H	 0.3117102483	-3.4422352032	 1.5826315013	 0.104934
H	-0.7070440029	-3.6813321964	 0.1874863624	 0.106061
H	 1.6852799749	-3.7620018231	-0.44392985	 0.082104
H	 2.587977592	-1.8898229338	-1.4444768285	 0.083085
H	 1.0814170643	 0.05426244	-1.8073480336	 0.11517
H	 2.1218689806	 0.306392698	-0.4229079387	 0.091171
154.0015	229.9447	254.8892	290.4633	348.2285	358.8365	408.5417	415.4403	433.2006	516.8331	634.0932	680.945	773.8602	810.5157	843.6182	851.239	876.678	899.8469	907.7989	952.1026	998.2637	1002.2411	1023.4283	1070.9074	1080.2521	1089.5044	1124.164	1158.3893	1189.096	1222.4322	1237.6202	1252.6258	1257.3455	1279.208	1302.0462	1356.0998	1377.3556	1386.5501	1399.1132	1436.305	1462.3893	1464.9305	1466.8577	1496.316	1736.3374	2965.4806	2987.2097	3007.7356	3017.3063	3051.0452	3059.6771	3070.6703	3113.3424	3117.5321	3120.649	3142.4811	3795.3927
OC12CC(C1)CC=CC2	O[C@@]12C[C@@H](C1)CC=CC2	
InChI=1S/C8H12O/c9-8-4-2-1-3-7(5-8)6-8/h1-2,7,9H,3-6H2	InChI=1S/C8H12O/c9-8-4-2-1-3-7(5-8)6-8/h1-2,7,9H,3-6H2/t7-,8-
