14
gdb 12951	2.75301	2.25195	1.69204	1.3638	59.07	-0.2471	0.01	0.2572	800.8458	0.107159	-415.810238	-415.802984	-415.80204	-415.841408	27.726	
N	-0.1075828709	 1.5104393355	-0.1307265691	-0.598672
C	-0.0223806183	 0.1049372312	-0.030497302	 0.123757
C	-0.3564853834	-0.8051932296	-1.2330802992	 0.098101
O	 0.4815889421	-1.7671410708	-1.7678069894	-0.422391
C	-1.111277976	-0.9903802739	 0.024816184	-0.023072
O	-0.2818217336	-1.7844916508	 0.9199739273	-0.29771
C	 0.6524846554	-0.7362845297	 1.0062478079	 0.381457
N	 1.6285298217	-0.5867904719	 1.7745141195	-0.554089
H	-0.118929276	 1.9450986937	 0.7865421007	 0.246071
H	 0.6841395763	 1.8888344691	-0.6406342754	 0.249499
H	-0.8700196764	-0.2413614422	-2.0068334716	 0.132508
H	 0.6249782661	-2.4325326457	-1.0821678642	 0.301122
H	-2.173611441	-0.9636169865	 0.2267461918	 0.129162
H	 1.7451806842	-1.3844693983	 2.4010564597	 0.234257
127.4179	208.5266	246.0932	266.8974	321.0055	399.6553	422.2133	478.7788	650.4385	657.3871	718.1664	739.4327	786.2261	853.2244	862.709	900.0822	921.2803	972.9678	993.5666	1027.0638	1109.4829	1170.5382	1241.3979	1259.8718	1293.6943	1307.4246	1407.6626	1481.4373	1665.4471	1829.2731	3168.5003	3212.4677	3484.1469	3502.2152	3577.0409	3773.6918
NC12C(O)C1OC2=N	N[C@]12[C@@H](O)[C@H]1O[C]2[NH]	
InChI=1S/C4H6N2O2/c5-3-4(6)1(7)2(4)8-3/h1-2,5,7H,6H2	InChI=1S/C4H6N2O2/c5-3-4(6)1(7)2(4)8-3/h1-2,5,7H,6H2/t1-,2+,4+/m0/s1
