20
gdb 61926	2.35148	1.07295	0.86331	3.2777	79.41	-0.2794	0.0133	0.2926	1410.7188	0.1692	-403.138817	-403.128935	-403.127991	-403.175022	35.349	
C	 0.4015045321	 1.203696303	 0.6262625497	-0.401773
C	-0.1744482274	-0.0809577289	 0.0294393104	 0.105011
O	-1.5582054616	 0.1003857235	-0.3349027902	-0.246126
C	-2.4757239947	 0.0262092814	 0.7198490402	-0.195209
C	-2.5947076794	-1.3367811028	 1.2825255281	 0.253806
N	-2.6693120921	-2.4052097305	 1.7163804588	-0.309806
C	 0.5464669527	-0.509010609	-1.2231217706	 0.026974
C	 1.7694331001	-1.3863634378	-1.1165757856	-0.272595
C	 0.4830461601	-1.9441222614	-1.6708747316	-0.273707
H	 1.4544236315	 1.057227334	 0.883716335	 0.128808
H	 0.3310932784	 2.0211592429	-0.0977399434	 0.126903
H	-0.1234462451	 1.5061664469	 1.5376821122	 0.113666
H	-0.1082076168	-0.8962907201	 0.7657618346	 0.086632
H	-2.2406441206	 0.7137532595	 1.5459079038	 0.137536
H	-3.4498848033	 0.3208661904	 0.3170854647	 0.15968
H	 0.5545722349	 0.2477123116	-2.0031563768	 0.087735
H	 2.5924868761	-1.2001298596	-1.7971656168	 0.114624
H	 2.0787469768	-1.7121223351	-0.128529169	 0.11493
H	-0.077435867	-2.6383382732	-1.0536503205	 0.127862
H	 0.4230027154	-2.1454455848	-2.734259733	 0.115051
27.2399	60.2249	97.8813	171.9259	210.389	229.6336	259.4126	318.8517	372.0644	409.1579	439.1786	491.1949	620.3014	764.5474	819.47	831.5461	858.4228	895.9528	939.8962	950.8029	991.0774	1036.9362	1061.1255	1078.4032	1084.6475	1116.9232	1125.6067	1134.7684	1196.1784	1226.1256	1233.2204	1289.8628	1328.0964	1365.7546	1392.0025	1405.6714	1437.328	1470.6853	1472.4139	1493.8971	1494.7608	1508.7883	2354.7184	2992.4607	3004.6906	3041.0802	3084.87	3109.3565	3120.2788	3131.4479	3137.2279	3144.8162	3210.5848	3226.2541
CC(OCC#N)C1CC1	C[C@@H](OCC#N)C1CC1	
InChI=1S/C7H11NO/c1-6(7-2-3-7)9-5-4-8/h6-7H,2-3,5H2,1H3	InChI=1S/C7H11NO/c1-6(7-2-3-7)9-5-4-8/h6-7H,2-3,5H2,1H3/t6-/m1/s1
