25
gdb 118243	2.33591	0.86359	0.69773	0.9364	90.49	-0.2458	0.0882	0.3341	1765.5506	0.226871	-389.48143	-389.470401	-389.469457	-389.518687	39.963	
C	 0.0652208292	 1.415718852	-0.1230620664	-0.382575
C	 0.0299204337	-0.0914138637	 0.0742738941	-0.034707
O	-1.3099753143	-0.5233099327	-0.0455627246	-0.259052
C	-1.5049490911	-1.9333893577	 0.0029857013	 0.152026
C	-1.4531015203	-2.4609622227	 1.4396326164	-0.403229
C	-2.8568870629	-2.2105248228	-0.6615963433	-0.219435
C	-2.9054505401	-1.7993597266	-2.1170543094	 0.037054
C	-2.4303385227	-2.7468358214	-3.1916829904	-0.258721
C	-3.9005224113	-2.429171645	-3.0556146592	-0.278439
H	 1.090677674	 1.7882874313	-0.0394558431	 0.111839
H	-0.3236565104	 1.682894788	-1.109859197	 0.123706
H	-0.5482484294	 1.9153676766	 0.6321831086	 0.125405
H	 0.6582640162	-0.5942172817	-0.6802668876	 0.084302
H	 0.4449062809	-0.3504590708	 1.0613751869	 0.085467
H	-0.7142435268	-2.4225535394	-0.5912561769	 0.063145
H	-1.6001380312	-3.5457648862	 1.4567863336	 0.111785
H	-0.4894546977	-2.2503693672	 1.9120515691	 0.114368
H	-2.2388660979	-1.9952014894	 2.0431307004	 0.120794
H	-3.0788975971	-3.2814764993	-0.5723227069	 0.08625
H	-3.6314516109	-1.6780243037	-0.0937995411	 0.101369
H	-2.6885178987	-0.7488425979	-2.2800338439	 0.093234
H	-1.8913790358	-2.3427675132	-4.0416172989	 0.107545
H	-2.0977992645	-3.7344427816	-2.8870037515	 0.103864
H	-4.5499386603	-3.2044775326	-2.6612197901	 0.105803
H	-4.3661820403	-1.8068602423	-3.8120391501	 0.1082
47.9452	57.2728	84.906	103.1804	157.6722	205.8777	222.3497	255.6927	303.6992	322.6046	373.9483	444.3829	482.1142	519.3968	775.3695	799.5906	816.7803	822.3513	840.1293	889.2733	905.7612	936.9523	961.9332	990.848	1037.4733	1058.2805	1076.808	1108.4102	1119.2194	1136.2592	1147.5295	1167.2621	1185.495	1195.9718	1199.9575	1226.9114	1279.6294	1297.4927	1308.3949	1368.5241	1378.6224	1402.1361	1403.7727	1418.1368	1437.8717	1467.0822	1472.9146	1483.3513	1490.8036	1497.2652	1500.7122	1507.6047	1530.3446	2954.4135	2962.8534	2987.9364	3017.0788	3037.6987	3043.6067	3058.1163	3108.0579	3112.674	3117.9282	3120.039	3124.9483	3130.042	3164.8691	3202.3029	3218.093
CCOC(C)CC1CC1	CCO[C@@H](C)CC1CC1	
InChI=1S/C8H16O/c1-3-9-7(2)6-8-4-5-8/h7-8H,3-6H2,1-2H3	InChI=1S/C8H16O/c1-3-9-7(2)6-8-4-5-8/h7-8H,3-6H2,1-2H3/t7-/m0/s1
