18
gdb 121596	3.21654	0.92808	0.86669	12.1634	71.8	-0.1965	-0.0247	0.1718	1399.0262	0.146882	-476.214565	-476.205014	-476.20407	-476.249839	33.437	
C	-0.1995620807	 1.1372118695	-0.5470924448	-0.414463
C	-0.2174688887	-0.3351303567	-0.16996546	-0.168858
N	-1.2166741418	-0.6034325475	 0.9255168999	-0.242648
H	-0.9260967918	-0.178919449	 1.8037269838	 0.292563
H	-2.1612555794	-0.2282009534	 0.6243348913	 0.301612
C	-1.5787267239	-2.0540751693	 1.0480093833	-0.273973
C	-2.7171221668	-2.2089288213	 0.0029453013	 0.269264
O	-3.3993961417	-1.1995895206	-0.1604516007	-0.377052
C	-2.5911419375	-3.4186769933	-0.9419806738	 0.348251
O	-3.3657045981	-4.3478144777	-1.0376505885	-0.42089
O	-1.5124595038	-3.0832887829	-1.5166979026	-0.448662
H	 0.5356974851	 1.2949971515	-1.3399179839	 0.159947
H	-1.1739436227	 1.45911149	-0.9264153372	 0.160142
H	 0.0787976531	 1.7772406125	 0.2974237712	 0.126465
H	-0.518710607	-0.9870379651	-0.9962084511	 0.217942
H	 0.7527400234	-0.6782310369	 0.1988909303	 0.144225
H	-0.7213365491	-2.6862342887	 0.8353495345	 0.176806
H	-1.9613572386	-2.227975721	 2.0574794672	 0.14933
61.3281	75.2928	100.2611	149.9412	222.4524	234.7175	260.1976	317.8247	363.3967	404.7912	455.6386	572.1601	732.2682	740.8247	800.6624	815.4846	832.8193	927.5721	962.6387	991.9287	1035.5895	1064.1236	1105.2296	1173.8057	1234.8467	1265.6389	1312.4402	1335.8462	1381.3155	1410.1155	1422.8134	1437.5377	1478.4692	1494.4143	1499.1779	1523.3685	1592.7057	1694.0334	1841.4268	2896.1651	3040.486	3064.2252	3079.7152	3104.1979	3126.0956	3133.906	3193.4503	3510.2256
CC[NH2+]CC(=O)C([O-])=O	CC[NH2]CC(=O)C(=O)[O]	
InChI=1S/C5H9NO3/c1-2-6-3-4(7)5(8)9/h6H,2-3H2,1H3,(H,8,9)	InChI=1S/C5H9NO3/c1-2-6-3-4(7)5(8)9/h2-3,6H2,1H3
