17
gdb 41331	2.95754	1.94613	1.77199	1.1448	71.39	-0.2409	0.0008	0.2417	848.7239	0.138017	-421.744068	-421.737855	-421.736911	-421.774167	26.626	
C	 0.0245664748	 1.5180704384	-0.0879742287	-0.187579
O	 1.4642091791	 1.4838887133	 0.2173441552	-0.312387
C	 1.2338534775	 0.222538422	 0.9207020457	 0.148731
C	 1.7453988965	-1.2204332181	 0.7613082013	-0.20072
C	 0.3625311393	-1.8400176849	 1.2935927626	-0.088475
O	-0.7132173604	-1.0150942258	 0.7390633514	-0.34035
C	 0.0447969704	-0.0170905223	 0.0352446321	 0.349723
C	 0.6662219988	-0.6912778644	-1.1831011688	-0.131969
C	 1.6942082697	-1.417567456	-0.7389963716	-0.060443
H	-0.5362859507	 2.0403527115	 0.6962974963	 0.113719
H	-0.1696362008	 1.9555754022	-1.0704294963	 0.115217
H	 0.9880579614	 0.4538929162	 1.9641780105	 0.083311
H	 2.6152669558	-1.5813098803	 1.3090446114	 0.077392
H	 0.2409749161	-2.870021012	 0.9488900558	 0.116262
H	 0.2990508621	-1.805617044	 2.3869969324	 0.111346
H	 0.2580031684	-0.6383420172	-2.1842300056	 0.102054
H	 2.3280807421	-2.0935733985	-1.2981115538	 0.104167
270.8603	296.0554	333.4499	387.8534	409.3975	502.8014	610.7077	664.7372	730.5559	747.7257	801.7222	827.3831	851.3498	878.6269	884.8515	918.2778	940.9694	946.3103	967.3877	1021.2206	1041.8115	1061.0951	1111.4139	1135.2982	1165.4051	1188.8829	1192.9176	1223.1778	1258.7877	1287.8658	1310.4709	1335.8196	1350.0496	1405.7293	1501.5737	1506.7479	1643.4995	3027.7741	3034.199	3039.599	3101.8151	3107.6494	3126.8273	3203.1896	3228.5371
C1OC2C3COC12C=C3	C1O[C@@H]2[C@H]3CO[C@@]12C=C3	
InChI=1S/C7H8O2/c1-2-7-4-8-6(7)5(1)3-9-7/h1-2,5-6H,3-4H2	InChI=1S/C7H8O2/c1-2-7-4-8-6(7)5(1)3-9-7/h1-2,5-6H,3-4H2/t5-,6-,7+/m1/s1
