18
gdb 61255	4.15457	0.85143	0.7716	4.1752	72.75	-0.245	0.0188	0.2638	1448.1701	0.146539	-439.073889	-439.064629	-439.063685	-439.108464	34.225	
O	-0.5562425665	 1.2007004504	 0.0987038445	-0.421842
C	-0.1042660304	-0.1516828084	 0.0430878726	 0.091426
C	 0.7622483216	-0.3927611799	-1.2132846644	-0.373881
C	 0.0913861967	-0.0127624274	-2.4540670732	 0.269483
N	-0.4370983656	 0.2852311296	-3.4370095431	-0.29684
C	 0.6341367424	-0.5862983843	 1.2994962059	-0.078024
C	 1.4852685796	 0.3944110916	 2.0978736715	-0.353231
C	 0.1830472103	-0.1215586394	 2.6620507574	 0.140525
O	-0.9256989669	 0.6974789219	 2.8388631031	-0.431682
H	 0.2044107453	 1.7865430527	 0.0077452135	 0.294602
H	-1.0252064141	-0.7371785109	-0.0539954386	 0.126544
H	 1.6994936278	 0.1711140433	-1.1238809844	 0.150761
H	 1.0395464832	-1.4510391212	-1.2688834736	 0.160473
H	 1.0042117876	-1.6069316455	 1.2373964423	 0.094122
H	 2.4286837893	 0.051837488	 2.5087183014	 0.120078
H	 1.4905695556	 1.4353408737	 1.7882394497	 0.10192
H	 0.2473111568	-0.8414348628	 3.4719988251	 0.110185
H	-1.0793810027	 1.1659958685	 2.0057858403	 0.295382
55.4009	78.4957	120.5242	225.1986	246.3306	285.3834	330.6109	387.926	398.7481	416.0556	509.6279	550.8967	589.334	663.2638	761.9646	803.4491	857.5458	884.6634	947.5597	973.8961	1024.8168	1028.2648	1030.3156	1070.066	1125.2936	1135.8589	1149.3513	1188.2633	1235.3049	1291.3081	1315.519	1357.7951	1361.6834	1387.6268	1424.2793	1456.4819	1463.404	1492.7116	2366.8456	3035.8684	3058.5027	3085.1501	3125.0453	3133.9583	3162.7033	3211.5583	3721.3332	3797.2182
OC(CC#N)C1CC1O	O[C@@H](CC#N)[C@H]1C[C@H]1O	
InChI=1S/C6H9NO2/c7-2-1-5(8)4-3-6(4)9/h4-6,8-9H,1,3H2	InChI=1S/C6H9NO2/c7-2-1-5(8)4-3-6(4)9/h4-6,8-9H,1,3H2/t4-,5+,6-/m1/s1
