18
gdb 35746	3.26793	1.21971	1.09851	4.0882	75.99	-0.2495	0.0206	0.2702	1156.7775	0.148203	-401.952828	-401.944688	-401.943744	-401.986755	30.832	
N	 0.2726452609	-0.9277936005	 0.9520968407	-0.323657
C	 0.1229823326	 0.1223807079	 0.4937070057	 0.272232
C	-0.0787519552	 1.4692720119	-0.089046607	-0.034538
C	-0.9170000976	 2.3720792917	 0.838705548	-0.241013
C	 0.1703170648	 2.9467309089	 1.7597236548	-0.31314
C	 1.3656550596	 3.0460423116	 0.825323654	 0.463656
C	 2.0585488367	 4.3282726935	 0.4731817504	-0.326195
C	 2.7752213981	 3.2504133687	 1.2748056448	-0.328036
O	 1.1596636933	 2.1359167617	-0.2577512147	-0.289785
H	-0.5339301195	 1.341066155	-1.0761910738	 0.130944
H	-1.3745968174	 3.159452818	 0.2334478337	 0.121762
H	-1.7040217804	 1.8295910835	 1.3642745771	 0.12965
H	-0.1043968039	 3.9107679969	 2.1918983646	 0.11711
H	 0.3776581361	 2.2515543781	 2.5803856192	 0.130408
H	 2.3577931099	 4.455250714	-0.5611945668	 0.126742
H	 1.7557312816	 5.2397164107	 0.9782541206	 0.114245
H	 2.9618408872	 3.4206657131	 2.330226217	 0.117877
H	 3.5405166034	 2.6784055952	 0.7628004917	 0.131737
19.6727	116.8776	191.1518	263.8879	297.4685	327.6452	436.2733	474.1278	500.8283	596.9623	693.2829	754.6124	771.7669	832.6391	857.5288	891.6292	912.9556	936.9398	957.786	973.5165	1013.1106	1049.036	1074.3499	1079.273	1102.5178	1167.7921	1188.2064	1200.1537	1236.9032	1295.8144	1312.8683	1341.7137	1368.8316	1381.1926	1451.1718	1482.4484	1497.7619	1502.3228	2353.1755	3051.8238	3062.7139	3073.6457	3114.74	3130.2442	3133.2414	3134.2474	3216.3095	3230.3142
N#CC1CCC2(CC2)O1	N#C[C@H]1CCC2(CC2)O1	
InChI=1S/C7H9NO/c8-5-6-1-2-7(9-6)3-4-7/h6H,1-4H2	InChI=1S/C7H9NO/c8-5-6-1-2-7(9-6)3-4-7/h6H,1-4H2/t6-/m1/s1
