18
gdb 75152	2.89134	1.20735	1.14833	1.1913	79.18	-0.247	0.0225	0.2695	1185.1165	0.145387	-401.945691	-401.936416	-401.935471	-401.979891	34.299	
C	-0.2435112618	 1.4274910885	 0.1379326094	-0.476366
C	-0.0261958948	-0.0368874113	-0.0326979942	 0.406845
N	-0.1551626636	-0.6998333846	-1.1083830125	-0.305884
C	 0.1357024438	-2.0948861311	-0.7839493619	-0.227535
C	 0.5581719409	-2.0899406811	 0.7288938688	 0.177166
C	 2.0395954121	-2.4133873631	 0.938040092	-0.428287
O	 0.345736823	-0.6932770416	 1.1034251771	-0.275864
C	-0.2960945888	-2.9335322636	 1.5588235121	 0.321145
C	-0.9902960405	-3.6592666778	 2.218410878	-0.47757
H	 0.6680196909	 1.9064356007	 0.5086525949	 0.144297
H	-0.5293923353	 1.8688184883	-0.8161074209	 0.152546
H	-1.0296396978	 1.6078077941	 0.8777967152	 0.148227
H	-0.7471890665	-2.717329491	-0.9561485748	 0.126542
H	 0.942930915	-2.4792972747	-1.4168498194	 0.115558
H	 2.6498503333	-1.7610806538	 0.306669839	 0.127245
H	 2.3223361378	-2.2641339959	 1.9825414723	 0.137406
H	 2.2382186394	-3.4540426051	 0.6665989645	 0.13181
H	-1.6083389472	-4.2931236467	 2.8054520204	 0.202721
44.8613	132.6772	163.5837	175.8629	224.8533	247.1144	311.2529	360.8739	400.3063	493.6976	544.8753	591.0753	619.1523	625.3006	668.2584	679.3086	807.1151	899.8404	923.1544	959.8514	977.1555	981.7552	1065.8231	1079.5424	1117.594	1162.4241	1193.9541	1270.9659	1272.3306	1344.5289	1403.0544	1414.7488	1475.1183	1476.1381	1481.3473	1489.206	1499.2451	1744.8235	2238.2388	3042.1544	3045.832	3051.6224	3084.2525	3109.4098	3122.63	3133.8677	3166.5551	3499.9657
CC1=NCC(C)(O1)C#C	CC1=NC[C@@](C)(O1)C#C	
InChI=1S/C7H9NO/c1-4-7(3)5-8-6(2)9-7/h1H,5H2,2-3H3	InChI=1S/C7H9NO/c1-4-7(3)5-8-6(2)9-7/h1H,5H2,2-3H3/t7-/m0/s1
