21
gdb 107820	3.20958	1.4227	1.24032	1.722	80.52	-0.2241	0.0812	0.3054	1101.9319	0.183922	-387.06502	-387.057148	-387.056204	-387.097176	31.708	
C	 0.0287415656	 1.5368033908	 0.1243987991	-0.388651
C	-0.0388076075	 0.0183257382	-0.0819381639	-0.291261
C	-1.4490400223	-0.5444255639	-0.0540542044	 0.313273
C	-2.2300287894	-0.5174046443	 1.3092618657	-0.27229
C	-2.6539664671	-1.9625444536	 1.0585679844	-0.106617
C	-3.103603841	-2.099693266	-0.3829488926	 0.115139
O	-3.5322362261	-0.9464364673	-1.0757478952	-0.272319
C	-2.3968009295	-0.0776285642	-1.166287765	-0.115582
C	-1.6474881452	-2.0933270829	-0.0930676779	-0.185405
H	 1.0667956605	 1.8814308378	 0.1497041508	 0.114902
H	-0.4791176864	 2.0774867025	-0.6807840043	 0.121109
H	-0.4421469368	 1.8299211423	 1.0687934136	 0.122256
H	 0.4319912663	-0.2439624613	-1.0393252362	 0.096888
H	 0.553601108	-0.4807808642	 0.6951204586	 0.099461
H	-1.5425956001	-0.4379018017	 2.1561468023	 0.098019
H	-3.0233059759	 0.2307122972	 1.4155708323	 0.096971
H	-2.9213469281	-2.6953160983	 1.8119869803	 0.081163
H	-3.6253718604	-3.0010253378	-0.6814549518	 0.100047
H	-2.7474120693	 0.9514112049	-1.0371956222	 0.105011
H	-1.9227945039	-0.1691808525	-2.1573615049	 0.084384
H	-0.9164333114	-2.8522007757	-0.3413445387	 0.083503
97.4959	170.3445	201.7216	243.8655	327.4755	351.3743	407.2871	486.0349	594.1766	648.4716	724.1481	758.4126	787.0613	792.7086	844.6588	890.1953	927.7219	950.9701	962.911	991.6809	1007.7637	1020.36	1034.7056	1042.1854	1066.1919	1067.2029	1120.7172	1148.88	1152.5897	1193.4409	1219.3358	1235.7389	1256.4393	1280.0844	1300.9175	1331.845	1368.1948	1382.4084	1405.9083	1414.0484	1482.6738	1493.4553	1501.2669	1506.2191	1514.9062	2969.1394	3012.9287	3035.2598	3037.0471	3046.6611	3071.8092	3092.6616	3103.433	3107.2604	3167.2984	3185.1962	3197.6668
CCC12CC3C(OC1)C23	CC[C@@]12C[C@H]3[C@@H](OC1)[C@@H]23	
InChI=1S/C8H12O/c1-2-8-3-5-6(8)7(5)9-4-8/h5-7H,2-4H2,1H3	InChI=1S/C8H12O/c1-2-8-3-5-6(8)7(5)9-4-8/h5-7H,2-4H2,1H3/t5-,6+,7-,8-/m1/s1
