16
gdb 56567	2.9286	1.17004	0.86163	4.6131	66.55	-0.2593	-0.0061	0.2532	1261.3132	0.122962	-475.013609	-475.004423	-475.003479	-475.047838	33.819	
N	 0.1018086136	 0.964392898	 0.0005362025	-0.541421
H	 1.1006782394	 0.9184467815	 0.1890817327	 0.250185
H	-0.202472319	 2.7571106517	-0.5762529433	 0.31267
H	-0.1861162458	 0.0255051851	-0.2521829247	 0.259526
C	-0.6234794153	 1.4180321543	 1.1901879918	-0.16737
C	-0.1234142061	 0.855475377	 2.5540292525	-0.073299
O	-0.9696579558	 1.2547318993	 3.6057177842	-0.426447
C	-0.0706258182	-0.6063914619	 2.4989814496	 0.32276
C	-0.0267041956	-1.8037332014	 2.4086010843	-0.432282
C	-0.6256050996	 2.959420227	 1.210620357	 0.455061
O	-0.8340743069	 3.6144761918	 2.2059379572	-0.353784
O	-0.3921338885	 3.5132979324	 0.0242287065	-0.356395
H	-1.6713326616	 1.1118237675	 1.089886259	 0.144726
H	 0.9060320385	 1.2303481856	 2.7079092783	 0.097029
H	-1.0368903741	 2.2217312725	 3.5218490658	 0.304693
H	 0.015936445	-2.8642508703	 2.3615073868	 0.204348
72.7841	79.9309	132.4529	242.2017	254.4	290.0282	328.3548	345.7406	397.952	454.1567	553.2924	596.5959	627.0121	629.3171	641.0959	677.9263	734.059	859.7338	865.9605	921.1585	957.4598	1061.3283	1103.3954	1121.9511	1186.3966	1233.7389	1260.6528	1302.7769	1348.0852	1390.0612	1427.8102	1471.0905	1662.7185	1833.5186	2240.3891	2923.2799	3059.1757	3462.1024	3493.9201	3500.5015	3582.9274	3646.4543
[NH3+]C(C(O)C#C)C([O-])=O	N[C@@H]([C@@H](O)C#C)C(=O)O	
InChI=1S/C5H7NO3/c1-2-3(7)4(6)5(8)9/h1,3-4,7H,6H2,(H,8,9)	InChI=1S/C5H7NO3/c1-2-3(7)4(6)5(8)9/h1,3-4,7H,6H2,(H,8,9)/t3-,4-/m0/s1
