17
gdb 34342	2.82453	1.64193	1.32154	5.1955	76.02	-0.2485	0.0078	0.2563	992.4155	0.137444	-380.810266	-380.803104	-380.802159	-380.841645	28.706	
N	 0.0066604419	-1.1349706822	 0.0608181946	-0.342365
C	-0.0092853704	 0.0211787885	 0.0483614136	 0.242064
C	-0.0003163673	 1.4664477037	-0.0128369074	 0.211371
C	-0.4250394723	 2.1244217425	-1.3637943656	-0.292847
C	 0.8940054754	 2.9627302723	-1.3664532319	-0.245058
C	 1.3138603527	 2.303634241	-0.0226936256	-0.079816
C	 0.8167801529	 2.937551438	 1.2848059965	-0.032364
C	-0.5233337498	 3.5378617463	 1.1776313283	-0.248432
N	-0.4419633375	 2.0707575516	 1.3197422119	-0.174235
H	-0.4775728516	 1.3924767207	-2.1711764582	 0.13368
H	-1.369630393	 2.671480511	-1.3361914667	 0.125249
H	 1.5585136722	 2.7090658523	-2.19420575	 0.119668
H	 0.7760242532	 4.0482833171	-1.3383953256	 0.113201
H	 2.2877691965	 1.8225176494	 0.036324036	 0.101717
H	 1.4325120233	 3.0543552831	 2.1705369067	 0.10875
H	-0.9301950675	 3.9963413723	 2.0739079116	 0.135419
H	-0.8736829088	 3.9913083722	 0.2569247218	 0.123999
146.934	152.7615	240.8645	327.6043	356.6018	473.0787	528.9546	535.5834	581.8732	673.2721	730.3345	742.625	768.5414	852.4901	897.5042	911.7351	939.5753	958.8494	1014.9386	1056.522	1061.6804	1076.9114	1106.2782	1115.8445	1136.448	1151.8781	1220.5078	1227.9879	1233.7438	1263.7522	1291.7819	1314.4128	1363.7727	1471.855	1483.8197	1510.7024	2352.8594	3072.2518	3078.4651	3118.1046	3131.6182	3135.495	3141.3378	3166.4799	3212.4675
N#CC12CCC1C1CN21	N#C[C@]12CC[C@H]1[C@H]1CN21	
InChI=1S/C7H8N2/c8-4-7-2-1-5(7)6-3-9(6)7/h5-6H,1-3H2	InChI=1S/C7H8N2/c8-4-7-2-1-5(7)6-3-9(6)7/h5-6H,1-3H2/t5-,6+,7+,9?/m0/s1
