16
gdb 127547	3.24924	1.41053	0.98968	3.7466	80.11	-0.1977	-0.0267	0.1709	1142.7872	0.125522	-434.074306	-434.066113	-434.065169	-434.107207	30.577	
C	 0.0099278754	 1.4386059027	-0.0008214152	-0.320356
N	 0.0212739627	-0.0177328383	 0.0331734841	-0.055559
N	-0.022994599	-0.6484332136	-1.1632168633	-0.216427
C	-0.0145622035	-1.9403939678	-1.1762530229	-0.052568
C	 0.0391141784	-2.8259462748	-0.0047710797	 0.273484
N	 0.0465601534	-4.1165947235	-0.0378069445	-0.564001
C	 0.0844087908	-2.0790926257	 1.2315457627	-0.330084
C	 0.0740125996	-0.7229191025	 1.2063102977	 0.503636
O	 0.1125673991	 0.086136981	 2.2895954454	-0.420918
H	 0.9139805822	 1.84887261	 0.4577886926	 0.145229
H	-0.0336749392	 1.722088939	-1.0507638061	 0.158273
H	-0.8604639151	 1.8367893016	 0.5281817697	 0.145199
H	-0.0519034429	-2.3873162382	-2.167364861	 0.119922
H	 0.0093546528	-4.4414327853	-1.0062255089	 0.198608
H	 0.126449154	-2.6131372057	 2.1738012696	 0.100586
H	 0.1490974713	-0.4635683689	 3.0803033498	 0.314975
83.6922	109.1682	195.6137	218.3884	328.2029	352.5854	380.9969	454.1096	477.9469	512.6167	590.9582	666.3461	701.7357	745.0362	788.9591	811.0602	845.1065	930.1989	965.4156	1028.9384	1151.4192	1155.5071	1178.0974	1244.9442	1268.199	1294.833	1363.1628	1398.5162	1442.6475	1482.8912	1504.6467	1523.8142	1605.9181	1651.5371	1694.2666	3049.0444	3109.4531	3157.1035	3175.9811	3195.8649	3440.5206	3822.3114
CN1N=CC(=N)C=C1O	CN1N=CC(=C[C@@H]1O)[NH]	
InChI=1S/C5H7N3O/c1-8-5(9)2-4(6)3-7-8/h2-3,6,9H,1H3	InChI=1S/C5H8N3O/c1-8-5(9)2-4(6)3-7-8/h2-3,5-6,9H,1H3/t5-/m0/s1
