17
gdb 84522	2.87849	1.78139	1.28138	2.1663	77.13	-0.2266	-0.0299	0.1967	980.8921	0.137863	-421.824857	-421.817632	-421.816688	-421.856403	28.522	
O	 0.0337210506	 1.442790359	 0.0801253736	-0.44629
C	 0.0676282159	 0.0263957241	 0.0110473528	 0.048663
C	 0.5886547888	-0.5577258517	 1.3264012725	-0.083968
C	-0.4028681624	-0.9915890729	 2.1264699809	-0.186965
C	-1.6742323558	-0.7756981805	 1.4512327334	 0.32692
C	-2.936563888	-0.4215583255	 1.6842797608	-0.28106
C	-3.517705776	 0.1148271427	 0.3897004043	-0.115354
O	-2.3920252457	 0.2659941184	-0.4993985444	-0.292054
C	-1.3601212591	-0.5742268298	-0.0090359388	 0.026949
H	-0.8546499755	 1.6920271283	-0.2120059653	 0.290256
H	 0.6688093847	-0.2869257639	-0.8527562243	 0.068054
H	 1.6388741179	-0.526500151	 1.5928202954	 0.110156
H	-0.284243348	-1.3649358256	 3.1361902923	 0.111526
H	-3.4717460031	-0.4032865942	 2.6242704552	 0.108686
H	-4.2627299373	-0.5595809224	-0.0637859167	 0.109053
H	-3.9928596756	 1.0954528306	 0.513860729	 0.120091
H	-1.3442259112	-1.5321513257	-0.5535797807	 0.085338
113.2532	171.8274	259.6384	311.6532	347.9246	360.8241	485.2245	566.8696	650.9303	676.3958	762.7961	782.5485	825.7266	844.8882	852.2134	931.4231	945.9656	974.1591	975.0303	1000.9997	1034.3026	1083.8353	1114.5422	1140.3734	1193.0615	1202.8049	1226.9034	1268.6826	1327.5216	1333.7088	1360.4359	1368.602	1380.3808	1416.3467	1512.7887	1614.2404	1728.146	2967.9272	2970.3958	3013.2082	3046.1733	3196.1396	3218.4846	3223.5024	3731.9712
OC1C=CC2=CCOC12	O[C@H]1C=C[C]2[CH]CO[C@@H]12	
InChI=1S/C7H8O2/c8-6-2-1-5-3-4-9-7(5)6/h1-3,6-8H,4H2	InChI=1S/C7H8O2/c8-6-2-1-5-3-4-9-7(5)6/h1-3,6-8H,4H2/t6-,7+/m0/s1
