17
gdb 91254	3.77044	1.21042	1.01335	3.0546	76.58	-0.2426	-0.052	0.1906	1168.9887	0.135782	-421.823849	-421.816085	-421.815141	-421.856243	29.696	
C	 0.0608027581	 1.5062121988	 0.1709652715	-0.403778
C	 0.0061886906	-0.0007852266	 0.0475621703	 0.080819
O	 1.0309902558	-0.5562225459	-0.8565779273	-0.326452
C	 1.2944797286	-1.6604952122	 0.0743221861	 0.100067
C	 2.6751767027	-1.9563032886	 0.6527953038	-0.372722
C	 2.4701433329	-1.6923431276	 2.1789418431	 0.383243
O	 3.2284559203	-2.0230072614	 3.054191105	-0.315874
C	 1.2376161223	-0.8445318466	 2.3097749035	-0.325036
C	 0.6147900303	-0.8568646647	 1.1307953224	 0.19185
H	 1.0487534729	 1.8293669952	 0.507380562	 0.132428
H	-0.1501076894	 1.9682540351	-0.7978753803	 0.138166
H	-0.6914847274	 1.8536109361	 0.8864804369	 0.128321
H	-0.9884118765	-0.336313971	-0.2779181445	 0.094551
H	 0.7740609444	-2.561875463	-0.2716446718	 0.09651
H	 3.0711335506	-2.9551112622	 0.4612116647	 0.125778
H	 3.4003867798	-1.2192478736	 0.2907625975	 0.150347
H	 1.0411868439	-0.2428582719	 3.1872250972	 0.121784
100.1811	129.4326	199.2003	220.991	334.1808	382.116	444.4524	515.3482	549.1322	579.6822	656.4189	741.8246	786.5055	828.1897	869.5159	874.954	890.0145	988.2692	1004.9391	1051.9553	1067.0719	1085.2386	1132.3116	1146.2392	1154.0297	1213.732	1236.2572	1275.2208	1312.9944	1339.6446	1387.7959	1404.7823	1447.1081	1480.1477	1492.774	1704.0005	1827.4961	3006.7423	3028.8744	3044.0796	3063.1682	3116.3957	3128.2039	3132.5341	3227.1924
CC1OC2CC(=O)C=C12	C[C@H]1O[C@H]2CC(=O)[CH][C]12	
InChI=1S/C7H8O2/c1-4-6-2-5(8)3-7(6)9-4/h2,4,7H,3H2,1H3	InChI=1S/C7H8O2/c1-4-6-2-5(8)3-7(6)9-4/h2,4,7H,3H2,1H3/t4-,7+/m1/s1
