18
gdb 30136	3.67254	1.04349	1.043	2.0028	78.13	-0.2157	0.0215	0.2372	1236.7633	0.149025	-401.951195	-401.943167	-401.942223	-401.984322	30.423	
C	-0.1267379349	 1.5130635796	-0.2070187932	-0.39705
C	-0.027749129	 0.0240156226	 0.0028725147	 0.021036
N	 1.3011567648	-0.5891549368	-0.1381390534	-0.338137
C	 0.6520076148	-0.6029311775	 1.1845287659	-0.187116
C	 1.3103025507	 0.1658811447	 2.2624056	 0.286208
C	 2.5077122729	 0.8114834126	 2.2040448644	-0.093542
O	 2.7958068652	 1.4045844579	 3.3940365917	-0.144942
C	 1.7619453559	 1.1300637425	 4.2312837188	 0.009005
C	 0.8247842034	 0.3779153371	 3.6007729435	-0.304535
H	 0.7113377757	 2.0284155623	 0.2669618057	 0.132202
H	-0.1164810369	 1.7527752379	-1.2755671088	 0.118156
H	-1.0578751069	 1.9020561895	 0.2191502873	 0.114447
H	-0.8695455828	-0.5461785747	-0.389995486	 0.080969
H	 1.2366362818	-1.5043285049	-0.5741021858	 0.231843
H	 0.2149983782	-1.5448927341	 1.5147910379	 0.082758
H	 3.2372482129	 0.9221103827	 1.4208386728	 0.148166
H	 1.8440727265	 1.5358634012	 5.2261229191	 0.133994
H	-0.0996859325	 0.0149073074	 4.0230898455	 0.10654
61.4315	114.9403	165.1375	204.3055	278.7906	384.8863	424.9497	515.5623	623.1061	631.8888	718.2396	740.5274	787.406	804.4612	829.0948	857.3326	892.6836	931.2714	979.2614	1007.5569	1022.6241	1054.0063	1077.784	1098.7852	1142.9774	1180.5434	1203.1977	1233.8435	1246.2208	1253.1293	1281.9583	1384.6508	1402.095	1435.8382	1465.6624	1490.8664	1496.6304	1539.5247	1637.4486	3036.7796	3097.3178	3097.6987	3108.7113	3133.4766	3248.9778	3282.2998	3296.2708	3512.1353
CC1NC1C1=COC=C1	C[C@H]1N[C@H]1c1cocc1	
InChI=1S/C7H9NO/c1-5-7(8-5)6-2-3-9-4-6/h2-5,7-8H,1H3	InChI=1S/C7H9NO/c1-5-7(8-5)6-2-3-9-4-6/h2-5,7-8H,1H3/t5-,7-/m1/s1
