20
gdb 40808	4.05377	1.04487	0.87891	2.0134	80.35	-0.2442	0.026	0.2702	1334.8252	0.173085	-403.149604	-403.141481	-403.140537	-403.182791	31.121	
C	-0.1917850123	 1.4132000826	-0.1237561052	-0.278086
C	 1.2470699029	 1.023389218	 0.1168024408	-0.266456
C	 0.1883848815	-0.0387943466	 0.0289555848	 0.041799
C	-0.2295801573	-0.8047172313	 1.2667474179	 0.026922
C	-1.6633824766	-1.3441399736	 1.1559449323	-0.235107
C	-1.9304373472	-2.2961434899	 2.3129108248	-0.080678
O	-0.94071597	-3.3359100354	 2.3689127972	-0.22516
C	 0.3113625608	-2.9760315846	 1.9952711188	 0.125105
N	 0.7344067144	-1.8816267141	 1.5250420364	-0.275326
H	-0.7304403485	 1.8859877855	 0.6920568121	 0.104959
H	-0.4753689453	 1.7746956223	-1.10590732	 0.109422
H	 1.9512081308	 1.1169778677	-0.7021668344	 0.111109
H	 1.6739900417	 1.2282656668	 1.0928992114	 0.114271
H	 0.1843378019	-0.6409386163	-0.8761956453	 0.08146
H	-0.1785450882	-0.1084986284	 2.1181130058	 0.076237
H	-2.3951589124	-0.5302381479	 1.1615739807	 0.106972
H	-1.7783580623	-1.8828618039	 0.2076666862	 0.110565
H	-1.9179722546	-1.7593328275	 3.2707416044	 0.111524
H	-2.8921222163	-2.80652901	 2.2201998707	 0.118153
H	 0.9908249072	-3.8123025132	 2.1540419007	 0.122314
77.1828	87.9696	167.7664	229.9433	285.9564	349.8673	432.5903	475.1776	524.6598	583.0274	761.5934	789.1524	827.515	842.0746	864.522	902.4862	926.7612	963.2409	967.9661	985.6396	1032.9841	1057.2698	1072.0299	1076.5111	1110.8434	1133.7905	1175.748	1195.8625	1197.759	1226.7232	1234.7029	1271.2055	1304.7289	1328.1581	1368.9814	1399.8797	1416.362	1423.0454	1471.4801	1479.1613	1507.5218	1510.4887	1726.8944	2981.2791	3020.4882	3038.4768	3088.7539	3099.4723	3126.6138	3134.7146	3139.5524	3151.136	3205.5111	3222.3683
C1CC1C1CCOC=N1	C1CC1[C@H]1CCOC=N1	
InChI=1S/C7H11NO/c1-2-6(1)7-3-4-9-5-8-7/h5-7H,1-4H2	InChI=1S/C7H11NO/c1-2-6(1)7-3-4-9-5-8-7/h5-7H,1-4H2/t7-/m1/s1
