16
gdb 35530	3.21504	1.53855	1.43088	5.1311	67.71	-0.2665	0.0145	0.281	944.4861	0.126672	-437.891391	-437.884539	-437.883595	-437.922788	26.788	
N	-0.1214800701	-1.1586964688	-0.2022122568	-0.322866
C	-0.0576259792	-0.0107998602	-0.092255769	 0.299696
C	-0.004557825	 1.4521276264	 0.007401977	-0.047651
O	-0.5779243294	 1.9036878139	 1.2502762122	-0.283861
C	 0.4681446309	 2.6392145422	 1.9178597849	 0.072265
C	 1.5512876596	 1.6373642803	 2.3322002115	-0.086878
O	 2.1515112017	 1.278960496	 1.0632269773	-0.270677
C	 1.4408005653	 2.0158715487	 0.0737920894	 0.069923
C	 1.1636833581	 3.3628348591	 0.7565931374	-0.248724
H	-0.5718603002	 1.875923461	-0.8318183315	 0.128333
H	 0.0191162165	 3.2264826817	 2.7166661341	 0.100177
H	 2.3129904728	 2.0724120443	 2.9902549395	 0.109946
H	 1.1214759334	 0.7490418229	 2.8037528811	 0.1311
H	 1.9923533711	 1.9922346452	-0.864262349	 0.106791
H	 0.4928354418	 4.0261351507	 0.2083629676	 0.119708
H	 2.0843794125	 3.8798701565	 1.0308784144	 0.122717
101.5743	155.6858	267.1836	361.9573	411.6279	460.6742	516.57	569.3132	637.5731	797.6834	826.0679	845.5599	865.1295	913.8504	936.8115	949.1848	973.2749	974.3046	1010.9169	1038.0003	1069.8223	1097.2585	1142.9281	1195.1711	1222.9687	1262.199	1280.7595	1293.2792	1309.8105	1335.5261	1359.1962	1379.5502	1482.6795	1513.231	2364.7505	3022.9243	3032.0517	3086.2604	3094.7904	3145.2641	3149.425	3149.7177
N#CC1OC2COC1C2	N#C[C@H]1O[C@H]2CO[C@@H]1C2	
InChI=1S/C6H7NO2/c7-2-6-5-1-4(9-6)3-8-5/h4-6H,1,3H2	InChI=1S/C6H7NO2/c7-2-6-5-1-4(9-6)3-8-5/h4-6H,1,3H2/t4-,5-,6-/m1/s1
