18
gdb 102258	2.59911	0.99007	0.81046	2.9682	73.95	-0.2637	-0.0275	0.2362	1450.372	0.143802	-439.107947	-439.097446	-439.096501	-439.144843	35.492	
C	 0.1004901529	 1.3676028798	-0.2601163437	-0.251123
O	-0.1268936404	-0.0145631326	-0.0369211766	-0.237881
C	 0.5707394331	-0.5374787454	 1.0694778443	-0.011401
C	-0.0445774333	-1.8995265303	 1.3870753399	-0.33881
C	-1.4070764519	-1.7453412781	 2.0690694175	 0.398852
C	-2.3285429551	-2.9426216898	 1.9868703859	-0.480463
O	-1.7059397579	-0.7302616222	 2.6520669646	-0.293091
C	 2.0196278992	-0.6505149441	 0.7859093038	 0.27136
N	 3.1495204805	-0.7279794398	 0.5560672173	-0.324973
H	 1.1559051796	 1.5722140115	-0.4851231303	 0.132005
H	-0.5089887267	 1.649426236	-1.1205277405	 0.138443
H	-0.2036209384	 1.9650355178	 0.6105615142	 0.124365
H	 0.4416276121	 0.1110243561	 1.9486104428	 0.136264
H	-0.1293740125	-2.48820237	 0.4687091695	 0.142243
H	 0.6062355813	-2.4636827877	 2.0668337327	 0.150403
H	-1.7998195717	-3.8623484896	 2.2601340899	 0.141103
H	-3.1921702194	-2.7967773799	 2.6362927961	 0.149122
H	-2.6679101115	-3.0675963415	 0.9516730727	 0.15358
43.8585	61.8723	85.6394	126.4413	134.6049	170.3673	228.8581	275.2751	298.9647	335.1149	434.1178	477.0985	562.7007	591.424	608.9515	802.0152	821.4548	913.4083	956.1012	991.1848	1065.4523	1093.952	1148.1498	1176.9961	1182.4959	1201.0625	1259.3139	1284.4947	1366.237	1378.0341	1388.4608	1439.9088	1462.0443	1474.9501	1480.6114	1488.4438	1505.997	1817.52	2352.6179	2998.3443	3010.4672	3035.6365	3046.6578	3058.115	3095.8521	3101.0525	3133.8181	3155.8274
COC(CC(C)=O)C#N	CO[C@@H](CC(=O)C)C#N	
InChI=1S/C6H9NO2/c1-5(8)3-6(4-7)9-2/h6H,3H2,1-2H3	InChI=1S/C6H9NO2/c1-5(8)3-6(4-7)9-2/h6H,3H2,1-2H3/t6-/m0/s1
