19
gdb 73045	3.51839	1.05874	0.95812	1.5285	81.42	-0.2326	0.0599	0.2925	1291.2747	0.157232	-385.817331	-385.8083	-385.807356	-385.851356	34.081	
C	-0.3853286801	 1.4824256362	 0.1928072401	-0.488231
C	 0.0149945297	 0.0477389217	 0.0832411254	 0.430232
O	-1.0426742564	-0.9218675565	-0.0245490882	-0.319047
C	-0.3220537141	-1.8313184522	 0.8526595242	-0.102053
C	 0.8781566331	-0.8989226309	 0.9035875312	-0.185394
C	 1.2806354658	-0.5052276309	-0.5073610709	-0.067511
C	 1.2974286089	-1.4601226793	-1.6941499014	-0.397666
C	 2.3597849333	-2.4572640438	-1.615427951	 0.318375
C	 3.2432186584	-3.268029111	-1.5283263229	-0.46386
H	 0.4937087211	 2.1154045413	 0.3440514295	 0.124897
H	-0.8854672238	 1.8116451029	-0.7252847218	 0.133162
H	-1.0764471369	 1.63484932	 1.0275918017	 0.129457
H	-0.8429997201	-1.9260670534	 1.8116482495	 0.110566
H	-0.1860704664	-2.8237989632	 0.4077691635	 0.113147
H	 1.5080976984	-0.7202646603	 1.7647565997	 0.097513
H	 2.0995998281	 0.2105121387	-0.4987416764	 0.096827
H	 0.3212254978	-1.9521177173	-1.7679461058	 0.148706
H	 1.409756437	-0.8785915494	-2.6182089096	 0.128124
H	 4.0196541263	-3.9889326327	-1.4618981868	 0.192755
44.828	108.481	194.8806	208.028	244.6799	265.0027	320.4581	351.0587	417.3118	543.5737	573.6422	614.8043	630.4742	661.872	740.4119	814.6684	894.4796	905.2722	934.5538	954.0013	974.3297	991.9057	1003.1096	1035.8804	1096.0489	1116.9144	1141.0181	1162.9422	1197.4581	1212.1149	1277.361	1310.5999	1334.4049	1347.69	1409.8473	1473.0613	1475.718	1478.763	1500.8315	1523.6881	2236.7948	3026.1556	3029.2469	3033.0232	3067.1771	3076.3085	3096.4794	3117.1647	3140.9386	3199.9326	3507.4465
CC12OCC1C2CC#C	C[C@]12OC[C@H]1[C@H]2CC#C	
InChI=1S/C8H10O/c1-3-4-6-7-5-9-8(6,7)2/h1,6-7H,4-5H2,2H3	InChI=1S/C8H10O/c1-3-4-6-7-5-9-8(6,7)2/h1,6-7H,4-5H2,2H3/t6-,7+,8-/m1/s1
