17
gdb 52800	1.9269	1.27715	0.84655	2.1236	84.53	-0.2433	0.0141	0.2575	1399.0705	0.131121	-384.613343	-384.603047	-384.602103	-384.65068	35.957	
C	 0.1172507157	 1.4982507593	-0.0204140461	-0.506382
C	 0.0655955492	 0.0446983492	-0.0309003189	 0.19354
C	 0.0046861799	-1.1577848516	-0.0259277162	-0.013564
C	-0.0095340082	-2.5992589689	-0.0549762715	 0.190363
C	 1.1753917024	-3.2561264159	-0.7340224938	-0.475854
O	-0.4548704498	-3.2515426626	 1.1482920655	-0.269112
C	-1.3101512611	-3.3317038298	 0.0014721055	-0.236595
C	-2.5821055391	-2.6671501203	 0.0583786874	 0.358889
C	-3.6650569099	-2.1466904503	 0.0804537968	-0.416726
H	 1.1499600288	 1.8609541914	-0.0631596924	 0.151161
H	-0.4208310987	 1.9196561557	-0.8765858543	 0.15275
H	-0.3404222517	 1.8995048048	 0.8902620851	 0.156812
H	 2.0997083234	-2.9815075279	-0.2175617832	 0.139426
H	 1.0732393909	-4.3438454971	-0.7109186539	 0.129707
H	 1.2543763514	-2.9238540312	-1.7731291038	 0.134345
H	-1.3301099549	-4.3166475165	-0.4667418891	 0.111631
H	-4.6164898084	-1.6756164283	 0.1070472529	 0.199609
9.7354	66.9769	112.0089	148.8834	168.501	201.0434	301.1565	304.1911	339.8093	355.3725	447.8466	536.2713	560.8549	605.0614	613.2429	630.4819	667.7621	780.0493	870.172	976.4318	1033.0235	1050.0732	1053.5557	1056.1369	1081.393	1107.5264	1263.0637	1339.4609	1408.3021	1409.3151	1414.2502	1475.5497	1476.3032	1478.205	1493.0864	2242.0984	2371.5456	3028.91	3044.8722	3090.6173	3092.9063	3098.6725	3118.155	3129.0367	3503.4686
CC#CC1(C)OC1C#C	CC#C[C@@]1(C)O[C@H]1C#C	
InChI=1S/C8H8O/c1-4-6-8(3)7(5-2)9-8/h2,7H,1,3H3	InChI=1S/C8H8O/c1-4-6-8(3)7(5-2)9-8/h2,7H,1,3H3/t7-,8+/m0/s1
