19
gdb 116222	2.38809	1.55515	1.10136	1.6413	71.29	-0.2603	0.0716	0.332	1146.4656	0.158736	-460.139094	-460.130411	-460.129467	-460.173109	31.853	
C	 0.3757171404	 1.3409152332	 0.1068033699	-0.240818
O	 0.381411076	-0.0765346492	 0.0716597083	-0.249209
C	 0.428249396	-0.5992722971	-1.2315034066	 0.128745
O	 1.6393575984	-0.3047282001	-1.8890145365	-0.254601
C	 2.5832464999	-1.3218788482	-1.5328510541	-0.09561
C	 1.7682759682	-2.6231379179	-1.5173975746	-0.326643
C	 0.3771930556	-2.1274910091	-1.1371318428	 0.403211
C	-0.5765605758	-2.8233209953	-0.2741576959	-0.235571
O	-0.7603063899	-2.7800579703	-1.6958915963	-0.278438
H	 1.2812509688	 1.7573489305	-0.3487013066	 0.127215
H	-0.5011727574	 1.7474970538	-0.4193348195	 0.108292
H	 0.3278550677	 1.6339183748	 1.1576757541	 0.125834
H	-0.3830946307	-0.1841012833	-1.8445900274	 0.086155
H	 3.3809598919	-1.3065668556	-2.2779631026	 0.114215
H	 3.0169375153	-1.111623547	-0.5462570781	 0.10728
H	 1.7227517815	-3.0682937815	-2.5157624045	 0.128737
H	 2.163875234	-3.3683411632	-0.8238776802	 0.11323
H	-0.3161166673	-3.7997067849	 0.1326851889	 0.112923
H	-1.2889518626	-2.2459440093	 0.3110484144	 0.125054
44.8158	113.8701	162.8373	186.1421	216.7461	302.9326	324.3811	380.7678	487.8754	497.1552	596.5798	666.753	809.6631	867.3226	879.2458	928.87	952.3966	971.5015	978.0824	1002.0536	1064.2228	1110.5325	1126.9543	1134.4328	1160.172	1180.8597	1204.8681	1217.1627	1229.6644	1253.2196	1297.0771	1328.9754	1377.6119	1393.2076	1436.6265	1475.0715	1482.2162	1483.5555	1513.5648	1516.7037	1533.2033	2992.9153	3018.3421	3024.1484	3063.1415	3068.1874	3087.5045	3108.2856	3119.2932	3126.2878	3179.1598
COC1OCCC11CO1	CO[C@H]1OCC[C@]21CO2	
InChI=1S/C6H10O3/c1-7-5-6(4-9-6)2-3-8-5/h5H,2-4H2,1H3	InChI=1S/C6H10O3/c1-7-5-6(4-9-6)2-3-8-5/h5H,2-4H2,1H3/t5-,6+/m0/s1
