23
gdb 109703	2.9444	1.04542	0.95652	1.3852	86.82	-0.2404	0.0663	0.3067	1393.7716	0.204854	-388.265654	-388.255724	-388.254779	-388.300674	37.159	
C	-0.5064202626	 1.5709565512	 0.3244254544	-0.374492
C	 0.1948726356	 0.2606104361	-0.0527001454	-0.19108
C	 0.866337768	-0.4039991879	 1.1329848413	-0.118095
C	 0.0819190573	-1.2922824553	 2.0643405405	 0.016642
O	-1.2758339728	-1.4644423783	 1.7689763099	-0.414521
C	 1.1265918649	-1.8895075928	 1.1548062607	 0.311273
C	 0.8315677627	-2.9340666957	 0.0703221338	-0.287315
C	 1.9065781199	-3.8515478548	 0.7281184465	-0.205104
C	 2.3791964856	-2.6525572919	 1.6041957341	-0.300487
H	 0.1976174021	 2.2870238626	 0.763352956	 0.106585
H	-0.9588228601	 2.044542811	-0.5528791998	 0.105033
H	-1.2976339301	 1.3856719586	 1.0569218725	 0.131715
H	-0.5358112115	-0.4283485678	-0.4861863021	 0.109286
H	 0.9470072245	 0.4517709649	-0.8293375144	 0.088342
H	 1.6244491541	 0.208334252	 1.6201549954	 0.076157
H	 0.311916048	-1.2413217926	 3.130341041	 0.076405
H	-1.516154562	-2.373151274	 1.9785310529	 0.287048
H	-0.1917703898	-3.3190410405	 0.0312707665	 0.08909
H	 1.1072126991	-2.6042068168	-0.936261659	 0.103071
H	 1.4643837239	-4.6559165079	 1.3214800089	 0.098819
H	 2.6501635411	-4.2882067374	 0.0580716346	 0.098745
H	 3.3076953986	-2.2010676293	 1.2389734623	 0.09915
H	 2.4868447634	-2.8363624833	 2.6778732395	 0.093733
65.3179	82.948	120.0471	170.7567	216.0981	235.464	273.0864	279.6913	296.4686	400.8825	497.7516	577.489	628.4302	711.2725	762.7484	791.5145	836.6999	853.8568	867.5921	936.6374	941.2146	963.2747	980.1455	1034.191	1053.3799	1091.2025	1100.6004	1137.2688	1152.238	1177.3232	1190.8966	1219.302	1223.8762	1249.1064	1263.8102	1276.4763	1292.2427	1299.1693	1325.3222	1343.1418	1392.453	1408.9893	1469.5907	1479.4173	1482.3945	1486.6717	1498.4812	1506.8745	1508.1927	3021.448	3031.2062	3037.1043	3045.5132	3063.6376	3075.9938	3079.5255	3080.4061	3087.8301	3098.4161	3111.39	3115.7793	3118.7381	3801.7302
CCC1C(O)C11CCC1	CC[C@H]1[C@@H](O)C21CCC2	
InChI=1S/C8H14O/c1-2-6-7(9)8(6)4-3-5-8/h6-7,9H,2-5H2,1H3	InChI=1S/C8H14O/c1-2-6-7(9)8(6)4-3-5-8/h6-7,9H,2-5H2,1H3/t6-,7+/m0/s1
