23
gdb 100916	2.28199	1.00043	0.73851	1.6204	83.04	-0.2454	-0.0199	0.2256	1584.97	0.202203	-425.437165	-425.425659	-425.424715	-425.474676	40.384	
C	-0.0156623999	 1.6096031194	 0.035151827	-0.390612
C	-0.0103276502	 0.0778281735	-0.0177629174	-0.207887
C	 0.7021706747	-0.4958256829	-1.2649901234	-0.057461
C	 2.1610172474	-0.083332402	-1.1971422531	 0.160598
O	 2.7133975188	 0.690534752	-1.9364051367	-0.262911
C	 0.6022498596	-2.0391482461	-1.371509728	 0.017997
C	-0.8428775952	-2.5568164621	-1.3564599108	-0.413493
C	 1.3244485038	-2.5289834443	-2.6327398797	-0.093005
O	 1.3520646418	-3.947944322	-2.605144843	-0.421165
H	 0.9970179179	 2.0241976624	 0.0497087236	 0.131384
H	-0.5264965757	 2.0300536116	-0.8376027174	 0.122515
H	-0.5355439372	 1.9638360036	 0.9302565237	 0.115104
H	 0.468144085	-0.3273657792	 0.8845776717	 0.100712
H	-1.0418648939	-0.2845773603	-0.003623387	 0.111912
H	 0.2755247682	-0.0359446621	-2.1656529995	 0.086303
H	 2.7156876548	-0.5583024299	-0.3499604997	 0.069886
H	 1.1345315183	-2.4771971185	-0.5146960456	 0.08522
H	-0.8474258657	-3.6260054209	-1.5777158958	 0.140125
H	-1.3257744676	-2.4099554213	-0.3875266761	 0.115825
H	-1.4482452511	-2.0494758699	-2.1174306243	 0.109726
H	 0.793373074	-2.1552830421	-3.5242382822	 0.090366
H	 2.3460815502	-2.1207022328	-2.6707064718	 0.099467
H	 1.7588162118	-4.2576180561	-3.4192658146	 0.289395
50.626	58.8282	82.2081	114.4835	153.1217	204.5163	237.382	244.6105	257.7813	297.4204	334.9023	338.8781	373.8622	459.0607	468.5692	582.1523	772.5234	853.9031	883.4502	928.2624	934.0902	972.4197	1004.7821	1035.6243	1067.0078	1079.8908	1127.9669	1140.115	1167.5444	1173.3463	1231.8301	1262.8783	1273.6267	1291.3605	1333.6052	1346.3673	1364.0616	1382.3485	1405.138	1420.0996	1426.3525	1462.5445	1486.8407	1497.201	1500.5183	1505.0238	1511.896	1519.6552	1829.2112	2824.7363	2963.1617	2995.8474	3011.8028	3017.7731	3034.9618	3037.6494	3040.0411	3081.8672	3106.1377	3109.1362	3113.3571	3135.3805	3835.0037
CCC(C=O)C(C)CO	CC[C@@H](C=O)[C@@H](C)CO	
InChI=1S/C7H14O2/c1-3-7(5-9)6(2)4-8/h5-8H,3-4H2,1-2H3	InChI=1S/C7H14O2/c1-3-7(5-9)6(2)4-8/h5-8H,3-4H2,1-2H3/t6-,7-/m0/s1
