16
gdb 66727	1.95497	1.85942	1.84644	3.3561	68.38	-0.1969	0.0393	0.2362	924.3252	0.121745	-437.749454	-437.741255	-437.740311	-437.781725	31.444	
C	-0.0230915143	 1.4393398759	 0.0473332059	-0.523325
C	 0.001040652	-0.0469830708	 0.0514147318	 0.273481
N	 0.3011437295	-0.9206402168	-1.1735580566	-0.190379
C	-0.5800033094	-1.9975980429	-0.5981302985	-0.144303
C	 0.8712083791	-1.9732364247	-0.2600805624	-0.144296
C	 0.5981828506	-1.0765593437	 0.9871262119	 0.223313
O	 1.2553161339	-0.8538864787	 2.1641660651	-0.447597
C	-0.9147085601	-1.1020754477	 0.6347927255	 0.223296
O	-2.0308872102	-0.9093307309	 1.3988794166	-0.447598
H	 0.9503749168	 1.8451009298	-0.2478674582	 0.131999
H	-0.7788780567	 1.8159627698	-0.6500645978	 0.131994
H	-0.2619343093	 1.8139805897	 1.0471196282	 0.138019
H	-1.1585653388	-2.6673775479	-1.2261086114	 0.09791
H	 1.6886616998	-2.6196005345	-0.5628642691	 0.09791
H	 1.079244849	-1.5825941769	 2.7712088578	 0.289787
H	-2.1180041919	-1.6367145098	 2.026448991	 0.289789
150.7959	151.9472	175.4925	215.9573	267.8876	357.7309	362.5997	405.6981	425.1	634.6893	641.9212	700.4683	727.6975	739.3023	760.5197	789.2056	854.3439	865.6646	962.0317	981.2263	1002.3786	1041.4274	1103.2768	1158.7118	1166.607	1185.6649	1274.801	1275.158	1280.5876	1351.8335	1410.5473	1423.2371	1475.1259	1487.5676	1535.4243	3032.3857	3096.9934	3113.8859	3153.4752	3166.8468	3766.3197	3767.1535
CC12N3C4C3C1(O)C24O	C[C@@]12N3[C@H]4[C@@H]3[C@]1(O)[C@@]24O	
InChI=1S/C6H7NO2/c1-4-5(8)2-3(7(2)4)6(4,5)9/h2-3,8-9H,1H3	InChI=1S/C6H7NO2/c1-4-5(8)2-3(7(2)4)6(4,5)9/h2-3,8-9H,1H3/t2-,3+,4-,5-,6+,7?
