20
gdb 38927	2.7963	1.93025	1.41027	2.0075	76.83	-0.2087	0.0646	0.2732	963.5216	0.174857	-403.09934	-403.092496	-403.091552	-403.130466	28.291	
C	 0.1605637329	 1.443931133	 0.6957134702	-0.289163
C	 1.5147175684	 1.5077956334	-0.0572341783	 0.055058
C	 2.7813814104	 1.1157150328	 0.7249736519	-0.276824
C	 2.3900501768	-0.3595957847	 0.4379708614	 0.02632
C	 1.8296376015	-1.1569110391	 1.6234040975	-0.107722
O	 0.7538902978	-1.9678496953	 1.195691065	-0.233808
C	-0.3840796496	-1.1924479473	 0.8635553521	-0.092635
C	-0.0481893308	 0.0540346759	 0.0228143173	 0.018892
N	 1.3385675453	 0.0845734867	-0.5563418465	-0.142822
H	 0.2531568829	 1.4199418415	 1.7865077379	 0.099338
H	-0.5724186669	 2.2098979787	 0.43091563	 0.102729
H	 1.6026355551	 2.2923064981	-0.8136993512	 0.072664
H	 3.7055768865	 1.425719325	 0.2323998032	 0.109156
H	 2.8244677951	 1.4173486421	 1.7760566811	 0.09861
H	 3.1542112519	-0.9548035295	-0.0692109657	 0.082834
H	 2.5900222798	-1.8292068977	 2.0314379107	 0.110148
H	 1.5056683577	-0.4892246207	 2.4400721236	 0.082502
H	-1.0426270223	-1.8674165135	 0.3104008492	 0.113663
H	-0.9133536084	-0.8801709633	 1.781338074	 0.087204
H	-0.7688192442	 0.129082224	-0.7978629134	 0.083855
97.814	260.5031	302.8294	329.0975	385.8726	450.0639	505.4847	636.8923	679.7514	745.832	782.6424	807.6904	859.1387	884.2118	925.9657	944.9069	969.1291	982.044	1002.293	1031.3878	1041.7711	1087.053	1125.5457	1132.9363	1153.4614	1171.1464	1189.1073	1221.4098	1249.8017	1255.5089	1268.7471	1275.1056	1290.6218	1324.2203	1333.8791	1357.2074	1375.3813	1391.1783	1419.9134	1479.8815	1488.2849	1497.398	1508.2438	2945.371	2955.9736	3037.1626	3043.2511	3049.9131	3054.6073	3063.2459	3082.1102	3085.8301	3103.1118	3111.4802
C1C2CC3COCC1N23	C1[C@H]2C[C@H]3COC[C@@H]1N23	
InChI=1S/C7H11NO/c1-5-2-7-4-9-3-6(1)8(5)7/h5-7H,1-4H2	InChI=1S/C7H11NO/c1-5-2-7-4-9-3-6(1)8(5)7/h5-7H,1-4H2/t5-,6+,7-
