17
gdb 124731	3.17068	0.6173	0.58763	5.0898	87.5	-0.241	-0.0967	0.1443	1977.5463	0.131197	-451.307683	-451.296224	-451.29528	-451.348241	36.779	
C	-0.3429997651	 1.1157224684	 0.4198104403	-0.477964
C	-1.0765592279	 0.2014289537	-0.495736642	-0.145102
N	 2.6726735813	-0.4879223476	 1.3466749699	-0.697319
H	 2.7848935085	-1.4044865606	 0.9213563137	 0.24501
H	 3.5419032236	 0.009655965	 1.1725137942	 0.244149
H	 2.639291758	-0.6488485541	 2.3499295021	 0.246009
C	-2.2784953615	-0.3429220434	-0.2683636148	 0.423546
N	-2.9370863422	-1.2125555978	-1.1457406257	-0.181614
N	-4.0474058398	-1.5471634395	-0.6407409502	-0.214289
C	-4.18163313	-0.8968156005	 0.6334262731	 0.438233
N	-5.1264554757	-0.9550244182	 1.4635365417	-0.527429
O	-3.0547773226	-0.1467833508	 0.8404546483	-0.210184
H	 0.6144162107	 0.6630337118	 0.7199333385	 0.198105
H	-0.099337538	 2.0537023762	-0.0951742573	 0.136418
H	-0.9272320741	 1.3476483999	 1.3121721843	 0.1409
H	-0.6217134002	-0.0826659418	-1.4393414756	 0.13224
H	-5.8505926251	-1.5708083506	 1.0951138594	 0.24929
17.4318	27.1974	34.3349	94.5696	133.5543	146.9051	161.1926	173.0632	214.141	248.9307	414.863	420.9953	510.5432	666.6217	679.9482	775.6778	799.2315	837.8155	870.2028	878.6373	978.2707	1031.5141	1042.7475	1063.6777	1103.9797	1119.3889	1213.7488	1271.6997	1360.6909	1421.2312	1479.965	1494.5948	1507.7915	1679.4784	1680.9587	1729.4868	1782.4694	2990.7862	3054.5395	3133.0584	3195.081	3466.5984	3513.1943	3583.8272	3584.2752
CC([NH3+])C1=N[N-]C(=N)O1	C[CH]c1nnc([NH])o1.N	
InChI=1S/C4H7N4O/c1-2(5)3-7-8-4(6)9-3/h2H,5H2,1H3,(H-,6,8)/q-1/p+1	InChI=1S/C4H5N3O.H3N/c1-2-3-6-7-4(5)8-3;/h2,5H,1H3;1H3
