16
gdb 26851	2.97411	1.45008	0.98673	6.3635	76.07	-0.246	-0.0709	0.1751	1157.5685	0.123171	-437.955124	-437.946451	-437.945507	-437.989294	30.711	
C	 0.1249860757	 1.496174921	-0.0164434485	-0.480737
C	-0.0500399573	 0.0137217165	 0.0179418241	 0.34107
C	-1.2270606781	-0.6733351326	-0.0171844164	 0.116216
C	-2.5865184538	-0.0257086125	-0.0991885791	-0.510458
C	-1.0868153611	-2.0934876307	 0.0304301721	 0.001306
N	 0.0285673971	-2.7584130207	 0.1014715322	-0.331955
C	 1.2126029358	-2.0585614317	 0.1359779651	 0.434299
O	 2.3152370161	-2.5114095127	 0.1997140224	-0.331129
O	 1.1190493339	-0.6314807075	 0.0909232066	-0.242403
H	 0.7406587725	 1.7783632875	-0.8770633262	 0.162195
H	-0.8321138879	 2.013679894	-0.0762187076	 0.141022
H	 0.657996788	 1.8288201367	 0.8805704456	 0.162191
H	-2.7060572154	 0.5754594937	-1.0066781618	 0.140072
H	-3.3664459216	-0.7921392609	-0.1133933873	 0.13555
H	-2.7882467185	 0.6263517821	 0.7571756334	 0.140067
H	-1.9978935353	-2.6956774523	 0.0056581453	 0.122694
67.6154	72.2731	96.216	179.4383	285.8918	289.0764	331.1829	431.5412	488.3375	532.0279	578.3527	621.2093	725.3725	778.3658	802.2726	814.0497	967.0088	997.0265	1025.1085	1050.4648	1054.6735	1077.4666	1192.3133	1262.8605	1356.1287	1412.0056	1423.1682	1432.3944	1466.5081	1469.2495	1492.9419	1503.1814	1570.398	1691.5239	1876.8443	3035.2071	3046.4874	3090.8139	3102.3324	3105.2015	3112.3988	3158.9002
CC1=C(C)C=NC(=O)O1	Cc1c(C)cnc(=O)o1	
InChI=1S/C6H7NO2/c1-4-3-7-6(8)9-5(4)2/h3H,1-2H3	InChI=1S/C6H7NO2/c1-4-3-7-6(8)9-5(4)2/h3H,1-2H3
