17
gdb 55438	3.11103	0.81558	0.72658	0.8155	70.62	-0.1766	0.0447	0.2214	1550.8523	0.135534	-455.209924	-455.199926	-455.198982	-455.248215	33.299	
O	 0.9134959235	-0.936430484	 0.1804960179	-0.2951
C	 0.2994934511	-0.7502879175	-0.7875822528	 0.593473
O	-0.2822153463	-0.5881661916	-1.7837758999	-0.308016
C	-2.318083829	 2.9266562703	 0.3239032417	-0.215107
C	-2.8730131341	 3.7452567904	-0.8203455834	-0.236079
C	-2.9459483194	 2.6972104503	-1.96366525	-0.157621
N	-2.9283936042	 1.386856194	-1.2745039231	-0.344769
C	-2.3797646354	 1.6276487413	-0.0013738584	 0.364573
N	-1.9699085837	 0.493276334	 0.7101660897	-0.601693
H	-2.6596301081	-0.249215253	 0.6621595305	 0.247348
H	-1.7555685212	 0.6995105798	 1.677184678	 0.251291
H	-2.0617454673	 3.320381787	 1.2968426828	 0.069208
H	-3.8719162054	 4.1436484199	-0.5885281289	 0.097759
H	-2.2549110577	 4.6049780765	-1.1040526448	 0.095268
H	-3.8428961327	 2.7994812818	-2.5808353432	 0.102446
H	-2.0708423962	 2.7947120533	-2.620298822	 0.098915
H	-2.4200408439	 0.6733603276	-1.785411094	 0.238105
22.773	30.3539	60.3084	86.2234	111.5522	155.5293	248.2171	342.9026	407.09	582.6598	637.8515	656.1136	663.0591	689.6661	702.4287	805.571	820.2487	868.3125	917.4878	985.2678	1000.9005	1065.2897	1084.8225	1133.5765	1196.7759	1218.4266	1267.1739	1316.0888	1341.697	1373.7429	1376.5133	1474.2535	1506.0801	1525.9652	1632.5912	1737.835	2431.4231	2988.0897	3005.4664	3041.0566	3078.5537	3229.3576	3516.1197	3537.5243	3619.7541
[O-]C(=O)C1CCNC1=[NH2+]	O=C=O.C1=C(NCC1)N	
InChI=1S/C5H8N2O2/c6-4-3(5(8)9)1-2-7-4/h3H,1-2H2,(H2,6,7)(H,8,9)	InChI=1S/C4H8N2.CO2/c5-4-2-1-3-6-4;2-1-3/h2,6H,1,3,5H2;
