18
gdb 113480	4.37679	0.94107	0.92867	2.455	72.25	-0.2475	0.0668	0.3144	1300.2061	0.147299	-439.002763	-438.99455	-438.993606	-439.036014	31.244	
O	 0.0476583899	 1.2859365674	-0.5224716239	-0.420309
C	 0.023950194	 0.1388465772	 0.3092287348	-0.060323
C	-1.3463385823	-0.4955881607	 0.3324285175	-0.117827
N	-1.7203808294	-1.1574148946	-0.9470799208	-0.40099
C	-1.549178474	-1.9553138376	 0.2657450347	 0.343887
C	-0.5783758356	-3.1652179369	 0.3275828668	-0.332398
C	-1.7237339367	-3.9530243649	 0.9907765736	 0.033727
O	-2.0914416233	-3.2443022711	 2.1797159423	-0.238005
C	-2.6310065487	-2.7943356588	 0.9288142401	-0.085981
H	-0.254093486	 0.9887990663	-1.3891398294	 0.289644
H	 0.7656586092	-0.6066329818	-0.0148506697	 0.090594
H	 0.3037115887	 0.4754010295	 1.3128323469	 0.11307
H	-2.117819207	 0.0912528895	 0.8282911204	 0.093868
H	-2.7093370055	-1.0174423703	-1.1433207238	 0.233744
H	-0.3239474036	-3.5169422207	-0.6748789783	 0.122522
H	 0.32363459	-3.063970103	 0.934953804	 0.117213
H	-1.9352454958	-5.0148712825	 0.9558455818	 0.111145
H	-3.7100737339	-2.7244547768	 0.8387198529	 0.10642
66.3321	113.5647	151.7289	204.3614	332.3208	372.4825	431.1678	449.4345	471.437	513.7425	644.3421	786.9819	835.8265	845.5305	863.5019	870.3866	935.5967	949.6841	974.3254	1001.2359	1004.9143	1038.4078	1067.6978	1069.0279	1090.5529	1157.5633	1173.235	1214.6036	1227.398	1248.1624	1259.9247	1277.594	1330.1337	1374.3682	1385.9713	1424.9942	1464.156	1491.2165	1496.7873	2992.2176	3070.8239	3078.3807	3125.9787	3131.9373	3172.1683	3196.9014	3486.2357	3791.538
OCC1NC11CC2OC12	OC[C@H]1N[C@]21C[C@H]1O[C@@H]21	
InChI=1S/C6H9NO2/c8-2-4-6(7-4)1-3-5(6)9-3/h3-5,7-8H,1-2H2	InChI=1S/C6H9NO2/c8-2-4-6(7-4)1-3-5(6)9-3/h3-5,7-8H,1-2H2/t3-,4-,5-,6+/m1/s1
