20
gdb 60485	5.29589	0.54338	0.51245	3.3151	77.39	-0.276	0.0299	0.3059	2087.412	0.168383	-440.289507	-440.278746	-440.277802	-440.32716	37.134	
C	-0.2734367768	 1.0688389732	-0.4134117472	-0.401721
C	 0.1023330762	-0.2214537014	 0.3077394846	 0.113193
O	 0.8101363445	 0.0178257334	 1.5175973155	-0.428039
C	-1.1120557771	-1.1075028754	 0.6021746798	-0.085743
O	-1.7094685548	-1.4818092247	-0.6267418963	-0.240522
C	-2.8967399845	-2.2257209368	-0.5142001241	-0.062033
C	-2.612669906	-3.7243148954	-0.2521519885	-0.346872
C	-3.8450388141	-4.5020376121	-0.188306894	 0.253712
N	-4.8394352867	-5.0889680276	-0.1420891667	-0.30088
H	 0.6207904072	 1.6577940177	-0.6332835032	 0.126405
H	-0.7955509511	 0.8482575566	-1.3476015606	 0.138324
H	-0.942813157	 1.6775980425	 0.2091020998	 0.103264
H	 0.7913982901	-0.7999045202	-0.3183900164	 0.101885
H	 0.3179808537	 0.6744577863	 2.0226497399	 0.280426
H	-0.773045854	-1.9812017773	 1.1769511902	 0.101428
H	-1.8376903874	-0.5563898586	 1.2261920895	 0.081917
H	-3.5452382429	-1.8273230438	 0.2795660933	 0.113086
H	-3.4265109671	-2.1228893206	-1.4654461378	 0.132
H	-1.9760815178	-4.1138384849	-1.0533137573	 0.16275
H	-2.0669836444	-3.852230171	 0.6884863495	 0.157418
27.0475	52.564	71.137	130.6327	166.4528	184.2776	244.0887	285.9475	295.195	388.3703	397.8851	414.7245	469.9239	483.2218	560.1531	779.7934	851.1985	926.4787	958.785	967.6398	992.6103	1011.3918	1079.1101	1096.9596	1136.8927	1160.7239	1170.6921	1236.8536	1259.3186	1298.2736	1302.7506	1328.261	1364.856	1396.7807	1405.3877	1417.5223	1428.1893	1468.8399	1488.8372	1495.227	1499.3998	1516.8765	2362.514	2951.9198	3004.8064	3017.9157	3022.265	3054.0227	3056.9653	3085.3883	3101.9701	3106.2912	3134.0637	3802.0905
CC(O)COCCC#N	C[C@@H](O)COCCC#N	
InChI=1S/C6H11NO2/c1-6(8)5-9-4-2-3-7/h6,8H,2,4-5H2,1H3	InChI=1S/C6H11NO2/c1-6(8)5-9-4-2-3-7/h6,8H,2,4-5H2,1H3/t6-/m1/s1
