21
gdb 66922	2.17423	1.89523	1.49435	1.0992	81.27	-0.2362	0.073	0.3092	1019.5755	0.181572	-387.041507	-387.03288	-387.031936	-387.073758	34.919	
C	-0.0084920109	 1.5784163673	-0.0532466389	-0.472452
C	 0.0346651437	 0.0507260314	-0.0120287188	 0.257749
C	-1.3580917091	-0.5310015903	-0.2707696425	-0.437931
C	 1.1191643081	-0.717136511	-0.8535764683	-0.092354
C	 2.4943712629	-0.1135122206	-0.4567258456	-0.256243
C	 2.2242459419	-0.7033167553	 0.9246664057	-0.152853
C	 1.2686167407	-1.736851073	 0.3499215365	-0.13859
C	 0.7028223681	-0.6342858404	 1.1874495355	 0.38133
O	 0.179705086	-0.7785640181	 2.4586906073	-0.472648
H	 0.9459174067	 2.0340762201	 0.2224977397	 0.112182
H	-0.279685503	 1.9401776551	-1.0519787974	 0.113171
H	-0.7664727312	 1.9553875516	 0.6434592647	 0.111099
H	-1.7573296883	-0.1730306533	-1.2265128002	 0.104179
H	-1.3353806254	-1.6246720623	-0.2989552253	 0.116536
H	-2.0571920716	-0.2337514382	 0.5179647198	 0.115528
H	 0.8959134784	-0.9836654814	-1.8854850969	 0.064993
H	 3.3127125299	-0.6437305522	-0.9535384069	 0.097705
H	 2.6440288462	 0.9649272689	-0.5730084402	 0.086751
H	 2.905783979	-0.8428753187	 1.7552254892	 0.08214
H	 1.2338792543	-2.8126609417	 0.4327351906	 0.093915
H	 0.4182918436	-0.0012530281	 2.975591212	 0.285793
169.8807	194.7812	212.5781	221.0339	269.2573	290.3749	340.819	362.9157	415.4117	478.5007	549.8863	618.1761	640.1489	748.5009	775.7748	830.9822	841.2186	900.8863	924.3432	942.1804	951.5953	960.7136	996.0188	1003.8307	1015.0469	1043.9657	1091.2616	1126.5813	1142.5247	1178.5102	1193.8263	1210.9556	1235.5066	1259.3151	1268.0947	1299.482	1340.0112	1399.1142	1416.939	1440.8416	1481.777	1484.6609	1501.0013	1502.3229	1518.5688	3024.7397	3029.4235	3039.578	3082.6484	3086.2424	3092.8341	3105.1261	3112.4392	3125.8177	3187.4482	3230.6777	3793.5861
CC1(C)C2CC3C2C13O	CC1(C)[C@H]2C[C@@H]3[C@H]2[C@]13O	
InChI=1S/C8H12O/c1-7(2)4-3-5-6(4)8(5,7)9/h4-6,9H,3H2,1-2H3	InChI=1S/C8H12O/c1-7(2)4-3-5-6(4)8(5,7)9/h4-6,9H,3H2,1-2H3/t4-,5+,6-,8-/m0/s1
