18
gdb 8041	3.31781	1.87036	1.48097	2.1803	66.85	-0.2491	0.0654	0.3145	893.019	0.153202	-384.907928	-384.900089	-384.899145	-384.939766	30.466	
O	 0.5512507124	 0.7394521812	-0.8672877008	-0.432324
C	 0.0132257007	-0.2621822139	-0.0440317588	 0.157502
C	 0.095859906	-0.127455725	 1.5096682158	-0.350531
C	-1.3748510625	-0.6483418519	 1.6075297754	 0.425091
O	-1.5577370485	-1.9130686626	 2.175488644	-0.48544
C	-2.4286420084	 0.4543587355	 1.8515535064	-0.285404
C	-2.3549040715	 0.8151143781	 0.3363442861	-0.243688
C	-1.5160482205	-0.468505688	 0.0562523965	-0.094155
H	 0.1311450037	 1.5756555235	-0.6402907396	 0.278369
H	 0.4902474103	-1.1911766671	-0.3682081503	 0.099185
H	 0.8433582329	-0.7579727014	 1.9967825531	 0.102746
H	 0.22448736	 0.9043081093	 1.8536469646	 0.089385
H	-1.2810780305	-1.8735341941	 3.0978894638	 0.276556
H	-3.3925139973	 0.0087539406	 2.1119427499	 0.107803
H	-2.1876424321	 1.2381753543	 2.5768248945	 0.088365
H	-3.3163011853	 0.8528466914	-0.177731988	 0.113127
H	-1.834744743	 1.7553546674	 0.1233290075	 0.081337
H	-1.9836075864	-1.2133879072	-0.5875572301	 0.072074
84.0948	216.6869	219.2175	246.2394	306.6966	354.3075	359.3247	434.5221	539.1718	585.3035	617.5636	748.1653	770.2852	850.5198	883.9248	903.522	943.9292	949.0896	1000.8246	1032.9574	1050.8465	1107.1232	1119.6379	1140.2642	1178.2871	1213.672	1222.027	1231.7857	1263.5869	1267.3507	1298.4274	1314.1633	1319.9727	1363.7178	1430.6697	1466.3474	1475.1204	1494.2159	3039.894	3043.8022	3047.5371	3071.9628	3098.8076	3109.2892	3110.4815	3121.1584	3792.9665	3808.3022
OC1CC2(O)CCC12	O[C@H]1C[C@@]2(O)CC[C@@H]12	
InChI=1S/C6H10O2/c7-5-3-6(8)2-1-4(5)6/h4-5,7-8H,1-3H2	InChI=1S/C6H10O2/c7-5-3-6(8)2-1-4(5)6/h4-5,7-8H,1-3H2/t4-,5-,6-/m0/s1
