16
gdb 39029	3.17522	1.87635	1.35267	2.6105	68.91	-0.2511	0.0167	0.2679	925.3189	0.12686	-437.869832	-437.863268	-437.862324	-437.900634	26.2	
C	-0.0756641446	 1.3696949553	-0.0455088183	-0.347685
C	 1.3410188796	 0.8095791006	 0.0187009	-0.17091
C	 1.8678943852	 0.5079774633	 1.445970717	-0.173208
N	 1.028008173	-0.5595463427	 2.0474880478	-0.332515
C	 0.1876572653	-0.8608391239	 1.1508137785	 0.388601
O	-0.6533105678	-1.9107659438	 1.0520358268	-0.260497
C	-1.1700267712	-1.8609766338	-0.2974835197	 0.000831
O	-0.327160185	-1.015572295	-1.0666371997	-0.28843
C	 0.1607241178	-0.1074424183	-0.1163719716	 0.327806
H	-0.5289897043	 1.8098566309	 0.8389344754	 0.123835
H	-0.3421861817	 1.8437335973	-0.9850726354	 0.126578
H	 2.0309988845	 1.0506559181	-0.7801791513	 0.110818
H	 2.9024539175	 0.1472047641	 1.4200302176	 0.120126
H	 1.8569215389	 1.4067175874	 2.0738022387	 0.11707
H	-1.1451361296	-2.8676096696	-0.7186343621	 0.139447
H	-2.1968022176	-1.47099655	-0.2589713236	 0.118132
169.1975	203.6737	270.1677	331.4517	410.5292	457.6845	609.9012	655.466	713.7072	733.0985	780.619	824.5268	857.6353	921.5865	929.6433	977.6649	1010.7064	1020.3394	1039.8114	1058.9866	1075.9666	1099.0297	1145.6029	1160.6913	1211.7025	1224.558	1262.0683	1305.6499	1368.6492	1380.4107	1447.4386	1476.5819	1495.3582	1535.4083	1772.5845	3008.1303	3035.2802	3068.4817	3112.382	3120.866	3194.194	3207.802
C1C2CN=C3OCOC123	C1[C@H]2CN=C3OCO[C@]123	
InChI=1S/C6H7NO2/c1-4-2-7-5-6(1,4)9-3-8-5/h4H,1-3H2	InChI=1S/C6H7NO2/c1-4-2-7-5-6(1,4)9-3-8-5/h4H,1-3H2/t4-,6+/m0/s1
