20
gdb 105348	2.04029	1.60863	1.14278	1.4944	78.95	-0.235	-0.0215	0.2135	1160.7443	0.169912	-403.111695	-403.102672	-403.101728	-403.1457	33.728	
C	 0.2332187576	 1.5912020953	 0.376835984	-0.395425
C	-0.03018211	 0.1127798048	 0.0647250373	-0.251212
C	 0.6424600726	-0.4241619086	-1.2108536033	 0.243242
C	 2.23213262	-0.4409926785	-1.2399622301	-0.294468
C	 2.1619055255	-1.9578021281	-1.4255401669	-0.027139
N	 1.4513288461	-2.492246108	-0.2381986269	-0.346881
C	 0.6771745775	-1.9536902141	-1.3806303683	-0.101723
C	 0.1288087677	 0.260832684	-2.4525330078	 0.097172
O	-0.4314966369	-0.2943433417	-3.3657308672	-0.257981
H	 1.3061563132	 1.8044207646	 0.4299386694	 0.120455
H	-0.2023447311	 2.2627248975	-0.3694522376	 0.118291
H	-0.2022192629	 1.8563056752	 1.3450502867	 0.120256
H	 0.3323354512	-0.5084115063	 0.8892514599	 0.131962
H	-1.1115633887	-0.0625099224	-0.0084572289	 0.102172
H	 2.6476923074	 0.0877583406	-2.1023256088	 0.111497
H	 2.7291681226	-0.1006474263	-0.3281069234	 0.112707
H	 2.8371656227	-2.5811525822	-1.9978278495	 0.097489
H	 1.4391454027	-3.508057679	-0.3260534916	 0.231299
H	-0.0419294084	-2.5541907474	-1.9207020112	 0.107531
H	 0.3166857512	 1.3578634107	-2.4879078359	 0.080757
64.0436	96.0419	164.8141	192.0389	218.0592	257.6035	321.7787	352.1946	396.546	518.1007	583.2044	645.7053	779.1805	788.5871	819.5212	845.0934	899.6254	919.0823	933.2213	969.2906	972.5829	1009.8864	1032.9592	1055.278	1095.0479	1109.5402	1136.7378	1151.5848	1178.081	1230.4627	1243.5885	1294.8507	1310.3239	1332.7835	1369.5698	1381.2974	1413.6279	1429.5474	1471.4207	1492.5334	1502.2915	1508.7452	1813.6437	2874.8002	3024.1834	3036.8114	3056.5509	3081.1461	3103.1399	3108.6989	3113.7457	3192.9132	3215.928	3474.8777
CCC1(CC2NC12)C=O	CC[C@]1(C[C@H]2N[C@@H]12)C=O	
InChI=1S/C7H11NO/c1-2-7(4-9)3-5-6(7)8-5/h4-6,8H,2-3H2,1H3	InChI=1S/C7H11NO/c1-2-7(4-9)3-5-6(7)8-5/h4-6,8H,2-3H2,1H3/t5-,6-,7+/m1/s1
