18
gdb 85206	2.59122	1.21889	0.93245	3.5563	75.28	-0.2439	-0.0397	0.2042	1279.8401	0.145505	-439.086643	-439.077295	-439.076351	-439.12174	33.099	
C	-0.2978893461	 1.5152489915	 0.0399412311	-0.387954
C	 0.0015123895	 0.0234304863	-0.0707467408	-0.057454
C	 1.3325730064	-0.2955426915	-0.831138678	-0.353056
C	 1.9991253372	-0.4648683642	 0.5418397031	 0.37149
O	 3.1155666763	-0.377849839	 0.9612316562	-0.291212
C	 0.6177794914	-0.5923025818	 1.2243239405	 0.021261
O	 0.3646878741	 0.1046025679	 2.4198844342	-0.193348
C	 1.0717582074	-0.2802539494	 3.5112634726	 0.129293
N	 0.8642227114	 0.2960719111	 4.6127658993	-0.43905
H	 0.5758861611	 2.0738837071	 0.3912766961	 0.131554
H	-0.5867108055	 1.9160330804	-0.9364867527	 0.118231
H	-1.1097247101	 1.7007590927	 0.7473373566	 0.141527
H	-0.8715036498	-0.5196394987	-0.4366864414	 0.087962
H	 1.3084602979	-1.2345191806	-1.3928166578	 0.134924
H	 1.7486814746	 0.4874278686	-1.4692933372	 0.138365
H	 0.3492796977	-1.6550115922	 1.3193464769	 0.108053
H	 1.7869391475	-1.0854975368	 3.3105479989	 0.107023
H	 1.4695537491	-0.0994669615	 5.3291939324	 0.232393
64.1078	76.1088	89.3722	129.9144	216.3761	233.0202	293.6463	356.1972	405.7326	453.0567	567.7433	619.7609	715.9958	756.5207	821.7839	843.8764	885.6629	906.4343	1001.3717	1019.3051	1036.8857	1056.8819	1088.5109	1098.9659	1154.9745	1195.0078	1202.5721	1245.0949	1276.7942	1288.0699	1358.274	1363.5566	1418.0742	1427.0799	1442.158	1492.7499	1496.9346	1745.0744	1892.5739	2995.4743	3041.2098	3061.9882	3065.8192	3089.4694	3111.2736	3121.6243	3126.7749	3519.4528
CC1CC(=O)C1OC=N	C[C@H]1CC(=O)[C@H]1O[CH][NH]	
InChI=1S/C6H9NO2/c1-4-2-5(8)6(4)9-3-7/h3-4,6-7H,2H2,1H3	InChI=1S/C6H9NO2/c1-4-2-5(8)6(4)9-3-7/h3-4,6-7H,2H2,1H3/t4-,6-/m0/s1
