21
gdb 58292	2.96101	0.84289	0.77093	2.4995	75.83	-0.2433	-0.0083	0.235	1586.1469	0.177968	-461.382937	-461.371716	-461.370771	-461.42021	39.87	
C	-0.1281781183	 1.5553434073	 0.024228399	-0.40322
C	-0.0125606569	 0.0334323307	 0.0117211657	 0.099625
O	 0.7153893856	-0.432585752	-1.121952505	-0.425357
C	 0.6030336549	-0.5112700535	 1.3173696391	 0.114995
O	-0.1283363079	-0.071269528	 2.4575764457	-0.434117
C	 0.7513703343	-2.0341415805	 1.2989087848	-0.330066
C	 1.7881808538	-2.546495443	 2.2957671142	 0.398123
C	 1.5287800384	-3.914041177	 2.8963547691	-0.480107
O	 2.7761784283	-1.9032873987	 2.56564123	-0.301355
H	 0.8674004209	 2.012405387	 0.0935523455	 0.109841
H	-0.6066763862	 1.9097689709	-0.8924475108	 0.120398
H	-0.7041356726	 1.8929342532	 0.888415435	 0.132196
H	-1.0142185447	-0.4059412267	-0.106656007	 0.074982
H	 1.5580811924	 0.0355734755	-1.1381711176	 0.283121
H	 1.6037789059	-0.0807182231	 1.4430459841	 0.107011
H	-1.0120471331	-0.4531404296	 2.404709246	 0.27689
H	-0.2193781785	-2.519841455	 1.4637421085	 0.087866
H	 1.0851098914	-2.3434826754	 0.2997761054	 0.149433
H	 1.2971161735	-4.6442865268	 2.1128315815	 0.13595
H	 2.3933220226	-4.2432476554	 3.473915483	 0.141886
H	 0.6503306363	-3.8632325	 3.5510983439	 0.141905
37.5773	57.164	81.5759	146.4842	150.8855	221.4352	231.6069	299.2149	303.3947	316.924	358.0267	391.3823	450.1273	466.7344	500.829	534.2945	606.6743	802.8116	842.1978	885.1418	917.4702	966.4403	990.8893	1052.907	1061.2224	1094.423	1125.8154	1153.1974	1168.5245	1200.4912	1244.3913	1288.4727	1317.5387	1374.2391	1384.9331	1386.2785	1400.034	1415.2998	1423.5026	1454.6222	1462.4856	1475.5668	1489.8655	1496.5116	1813.0607	3000.8744	3020.5833	3028.9873	3032.8018	3053.1364	3067.6852	3092.4221	3103.4396	3138.0387	3151.7557	3791.1636	3795.3335
CC(O)C(O)CC(C)=O	C[C@@H](O)[C@@H](O)CC(=O)C	
InChI=1S/C6H12O3/c1-4(7)3-6(9)5(2)8/h5-6,8-9H,3H2,1-2H3	InChI=1S/C6H12O3/c1-4(7)3-6(9)5(2)8/h5-6,8-9H,3H2,1-2H3/t5-,6+/m1/s1
