19
gdb 109909	2.19862	1.67696	1.05062	2.911	78.65	-0.222	-0.0493	0.1727	1168.022	0.158444	-423.049153	-423.040054	-423.03911	-423.083359	33.189	
C	 0.0950716841	 1.5163967665	 0.0970692567	-0.244636
O	-0.167175119	 0.1227250283	 0.145453444	-0.24111
C	 0.6296180547	-0.5876849571	 1.0555540213	 0.007236
C	 0.0527931241	-1.9955916348	 1.3564912798	-0.100554
C	-0.9525993609	-2.4916048459	 0.3020592502	-0.375307
C	 1.2914880118	-2.8599707312	 1.398244968	-0.050766
C	 2.3944481485	-2.2492503244	 0.9466449622	-0.173927
C	 2.0780837871	-0.8561292356	 0.5691413805	 0.359956
O	 2.7921346058	-0.0616436301	-0.000306694	-0.335773
H	 1.1099765776	 1.7253507092	-0.2524369791	 0.147526
H	-0.6312498259	 1.9462897197	-0.5968340324	 0.122806
H	-0.0443861164	 1.9769045576	 1.0881685397	 0.099509
H	 0.7206029544	-0.0264207863	 2.0029511171	 0.087565
H	-0.4477104335	-2.008675196	 2.3325064755	 0.088599
H	-0.5023978545	-2.503732089	-0.6940243087	 0.1296
H	-1.2863065722	-3.5059392312	 0.5426738717	 0.108849
H	-1.8224281418	-1.8330264455	 0.2701059459	 0.13578
H	 1.2440812661	-3.8908940065	 1.7359046126	 0.116466
H	 3.38190041	-2.6786831977	 0.8344553187	 0.11818
48.2397	110.9948	186.609	199.4293	217.1554	234.8983	269.5721	332.9026	407.6049	469.9802	520.6065	652.8541	681.2384	739.3544	795.9253	845.3611	894.6306	947.2847	996.9162	1006.2336	1051.8987	1097.4742	1101.7894	1130.656	1168.2328	1180.5902	1184.3687	1236.6128	1259.4583	1314.8856	1335.6617	1360.1379	1375.5964	1410.2113	1475.002	1479.73	1491.0034	1497.1641	1519.3519	1644.3863	1809.8039	2940.4855	2981.3102	3027.5543	3045.7622	3084.2278	3116.9839	3128.4589	3138.956	3180.0815	3223.0951
COC1C(C)C=CC1=O	CO[C@H]1[C@@H](C)C=CC1=O	
InChI=1S/C7H10O2/c1-5-3-4-6(8)7(5)9-2/h3-5,7H,1-2H3	InChI=1S/C7H10O2/c1-5-3-4-6(8)7(5)9-2/h3-5,7H,1-2H3/t5-,7-/m0/s1
