13
gdb 8592	5.40572	1.82519	1.7356	3.4044	59.23	-0.2528	-0.0344	0.2184	746.9914	0.095472	-398.450034	-398.444224	-398.443279	-398.479798	23.011	
O	-0.1682636885	-0.0242801599	-0.4034430964	-0.285803
C	-0.023251808	 1.0888376483	-0.0366286291	 0.377667
O	-1.0383396812	 1.9946517221	 0.3599868496	-0.310813
C	 0.0396391391	 2.8857700641	 0.8476155331	 0.333114
C	 0.9449244076	 4.1637458007	 0.8503171155	-0.237837
N	 1.9019717683	 2.9846153067	 1.2136883576	-0.155494
C	 0.7730757751	 2.4947368216	 2.1326981384	-0.202639
C	 1.0818626018	 2.2145641075	 0.0558252912	-0.159084
H	 1.1655612488	 4.637878762	-0.1057042956	 0.134481
H	 0.8441079783	 4.8793208242	 1.6686820388	 0.130929
H	 0.6398160933	 3.1093836053	 3.0238968311	 0.117328
H	 0.8464535028	 1.4312219378	 2.3701607606	 0.132559
H	 1.3540312925	 2.5822154098	-0.9337966749	 0.125594
155.4184	269.6321	400.2123	450.2615	554.8625	572.9352	601.6803	684.1245	724.9119	794.8379	833.599	866.2431	889.4957	959.6489	991.9773	1001.9897	1060.2612	1064.2732	1129.6398	1157.9931	1161.4512	1186.9532	1237.9693	1281.9943	1304.6056	1502.2336	1542.0918	1941.9767	3073.2217	3081.1671	3114.7163	3148.5753	3166.6168
O=C1OC23CN(C2)C13	O=C1O[C@@]23CN(C2)[C@@H]13	
InChI=1S/C5H5NO2/c7-4-3-5(8-4)1-6(3)2-5/h3H,1-2H2	InChI=1S/C5H5NO2/c7-4-3-5(8-4)1-6(3)2-5/h3H,1-2H2/t3-/m0/s1
