13
gdb 125659	3.54616	1.65064	1.13428	2.557	66.85	-0.2581	-0.0633	0.1948	981.6803	0.09061	-448.890554	-448.883542	-448.882598	-448.922056	26.009	
C	-0.0159032822	 1.5068686983	-0.0506430173	-0.499173
C	-0.0062352439	 0.0182086324	 0.0508373791	 0.197206
N	-0.0394213572	-0.7558247958	-1.0406088669	-0.253795
N	-0.020671821	-2.0538252801	-0.6462159983	-0.328466
C	 0.0246127927	-2.118024173	 0.7064928205	 0.373375
C	 0.0351685256	-0.8301589969	 1.1844074251	 0.275996
O	 0.079787643	-0.8786444442	 2.515457954	-0.253069
N	 0.0965269981	-2.3215998309	 2.8284593412	-0.02456
N	 0.0631655871	-2.9835101568	 1.7553119569	-0.216179
H	 0.8800509643	 1.9415745635	 0.4046659723	 0.142897
H	-0.0521548745	 1.8021390667	-1.100715664	 0.151052
H	-0.8831874205	 1.9341234814	 0.4634399938	 0.142896
H	-0.0407049214	-2.7826284248	-1.3374129563	 0.291821
111.4493	184.8683	251.3519	279.1132	341.123	428.6753	487.4634	567.3523	624.4617	648.8765	669.4838	694.3256	770.2691	850.0731	990.356	1001.2097	1066.314	1129.4162	1167.7975	1269.895	1361.3386	1410.5212	1414.9804	1420.2093	1480.8688	1490.9316	1512.9465	1586.5043	1588.8486	3041.8426	3095.7885	3141.7597	3692.8003
CC1=NNC2=C1ON=N2	Cc1n[nH]c2c1onn2	
InChI=1S/C4H4N4O/c1-2-3-4(6-5-2)7-8-9-3/h1H3,(H,5,6)	InChI=1S/C4H4N4O/c1-2-3-4(6-5-2)7-8-9-3/h1H3,(H,5,6)
