14
gdb 129557	3.44312	1.15459	0.95922	4.5754	67.49	-0.2698	-0.0299	0.24	1167.5765	0.103082	-429.038441	-429.030407	-429.029463	-429.07208	28.42	
N	 0.2591842535	 1.2459139581	 0.4463900624	-0.485586
C	-0.1040455121	-0.1050352577	-0.0095271609	-0.27852
C	-1.5720247307	-0.2005964376	-0.0826670775	 0.32675
N	-2.7221898786	-0.267492029	-0.1554856825	-0.310248
C	 0.4985943203	-0.5395310244	-1.3231879273	 0.357914
C	 0.0710421779	-0.4740064591	-2.6297596015	-0.137222
N	 1.0624836125	-0.9331494462	-3.4436831477	-0.178612
N	 2.083798109	-1.2828270688	-2.7189718057	-0.103751
N	 1.7532447624	-1.0474809322	-1.43350153	-0.261451
H	 1.2668953479	 1.3005766274	 0.563054888	 0.240756
H	 0.012901762	 1.922372439	-0.2713806059	 0.250978
H	 0.2180919136	-0.8016555014	 0.7758852855	 0.147128
H	-0.8786836282	-0.1419672845	-3.0165003102	 0.149343
H	 2.4140905605	-1.2814852135	-0.7086329566	 0.28252
39.4982	115.0414	164.8509	202.9978	244.0369	342.7428	395.1219	477.3312	570.9805	588.8498	704.1632	726.6408	747.6204	868.2483	875.9645	915.2169	995.8538	1063.9242	1071.0984	1107.995	1138.4651	1187.6559	1209.1975	1296.2519	1327.5486	1386.3169	1396.7127	1445.9372	1590.7776	1659.9675	2372.491	3029.3529	3276.308	3491.9052	3575.519	3645.1458
NC(C#N)C1=CN=NN1	N[C@@H](C#N)c1cnn[nH]1	
InChI=1S/C4H5N5/c5-1-3(6)4-2-7-9-8-4/h2-3H,6H2,(H,7,8,9)	InChI=1S/C4H5N5/c5-1-3(6)4-2-7-9-8-4/h2-3H,6H2,(H,7,8,9)/t3-/m0/s1
