15
gdb 15037	2.78073	1.65281	1.17859	1.0428	62.41	-0.2607	-0.0653	0.1954	995.4904	0.116541	-399.770975	-399.762623	-399.761679	-399.805241	28.223	
O	-0.2795995868	 0.0730592824	 0.2221241306	-0.232372
C	-0.0883197514	 1.2414884668	 0.0181140707	 0.143842
C	 1.2901603291	 1.8839574994	-0.0427841762	-0.168962
C	 1.4561673288	 2.6951660268	-1.3212559383	 0.116617
O	 2.524142762	 2.9560631217	-1.811878781	-0.236934
C	 1.4701100214	 2.769478537	 1.2019806704	-0.011973
C	 2.5700411371	 3.7584040564	 1.2917553978	-0.246456
N	 1.169061545	 4.2114514436	 1.2191715715	-0.316042
H	-0.9360050419	 1.952632894	-0.1164178983	 0.09164
H	 2.0466043273	 1.0928444399	-0.024677619	 0.134033
H	 0.5128722	 3.0610792927	-1.7861998512	 0.096776
H	 1.1656536453	 2.2630399259	 2.1157327531	 0.117876
H	 3.0563090399	 3.9271741699	 2.2478804038	 0.130088
H	 3.2044390921	 3.8853075324	 0.4194942706	 0.145823
H	 0.9683187422	 4.562537931	 0.2857395055	 0.236044
48.397	65.8464	80.9263	208.7162	221.7449	269.5236	383.1172	406.97	502.0384	596.4517	767.722	834.0693	905.2932	939.0097	959.4351	986.8841	1030.5908	1097.7168	1104.0353	1128.6061	1153.6794	1197.8488	1234.5511	1255.6372	1274.3437	1304.6786	1390.5859	1425.3122	1442.7398	1511.7458	1811.8177	1849.289	2859.1335	2879.2164	3073.5683	3119.2246	3127.5399	3210.2792	3497.1984
O=CC(C=O)C1CN1	O=CC(C=O)[C@H]1CN1	
InChI=1S/C5H7NO2/c7-2-4(3-8)5-1-6-5/h2-6H,1H2	InChI=1S/C5H7NO2/c7-2-4(3-8)5-1-6-5/h2-6H,1H2/t5-/m1/s1
