14
gdb 20267	4.19006	2.86353	2.5388	1.1311	57.4	-0.25	0.0848	0.3348	602.3457	0.110602	-382.497571	-382.492989	-382.492045	-382.526013	20.086	
O	-0.0624780833	 1.4608189201	-0.000634064	-0.288642
C	 1.3880214089	 1.4287988274	 0.0026000953	 0.032081
C	 1.7921085214	 0.734696203	 1.3158926912	-0.123747
C	 2.1626011384	-0.6807316229	 0.9425123727	 0.07216
O	 2.2952601974	-0.798615921	-0.4573509423	-0.23202
C	 1.3369881582	 0.1237058528	-0.8670765139	 0.04785
C	 0.0292938043	 0.0128815665	-0.0069259689	 0.032081
C	 0.7306248109	-0.3714713826	 1.3084506826	-0.123748
H	 1.8597197134	 2.3674628239	-0.28035225	 0.084399
H	 2.1460516322	 1.2494465479	 2.1972057209	 0.100153
H	 2.8245994634	-1.3198118351	 1.5110736999	 0.112233
H	 1.2596607762	 0.2051722016	-1.9466617075	 0.102647
H	-0.8872024152	-0.4950782872	-0.2996085129	 0.084399
H	 0.2249866538	-0.7524772643	 2.1837340469	 0.100153
492.6304	528.0095	581.6649	689.912	730.6195	761.5819	790.1326	802.8604	846.2282	847.8846	867.0268	908.9599	929.7	958.6785	991.7901	996.5551	1006.6457	1061.0262	1067.3746	1079.5822	1128.5294	1131.1283	1179.9821	1227.5654	1241.6497	1249.5229	1272.0094	1303.2766	1345.73	1387.8434	3146.3539	3148.2068	3185.2637	3211.3585	3220.9377	3230.5946
O1C2C3C4OC2C1C34	O1[C@H]2[C@@H]3[C@@H]4O[C@H]2[C@H]1[C@H]34	
InChI=1S/C6H6O2/c7-3-1-2(3)5-6(7)4(1)8-5/h1-6H	InChI=1S/C6H6O2/c7-3-1-2(3)5-6(7)4(1)8-5/h1-6H/t1-,2+,3-,4-,5+,6+
