18
gdb 16176	4.38581	1.57431	1.36394	2.3906	67.34	-0.2517	0.0826	0.3342	959.8619	0.153837	-384.929736	-384.922056	-384.921112	-384.961854	28.64	
C	 0.2578090676	 1.4782160584	 0.2192361422	-0.382277
C	-0.1703436259	 0.0450757545	-0.126115484	-0.285065
C	 0.5246493608	-0.4900572152	-1.350985029	 0.406306
C	 0.250561607	 0.0722498609	-2.7373660757	-0.135735
O	 0.8126292672	-0.8520716056	-3.6610669812	-0.25584
C	 0.9148961109	-2.1356932394	-3.054459611	-0.101967
C	 0.9538892238	-1.8761778364	-1.5667104914	-0.056198
O	 1.9063109733	-0.8687205728	-1.2051783714	-0.293876
H	 1.3402142682	 1.5287132065	 0.3692658575	 0.137848
H	-0.0053135882	 2.1810834489	-0.5779391418	 0.120169
H	-0.2302371035	 1.8192045701	 1.136669802	 0.116345
H	 0.0536819284	-0.6188128692	 0.7153625373	 0.11036
H	-1.2552330784	 0.004514528	-0.2858892174	 0.102959
H	-0.8381517867	 0.1777341044	-2.8797735769	 0.090332
H	 0.7201364528	 1.045024984	-2.9155687703	 0.117372
H	 0.0485599564	-2.7744396205	-3.2953816396	 0.09245
H	 1.8200240854	-2.6161211952	-3.4403770387	 0.119283
H	 0.7935999907	-2.6766458613	-0.8489256004	 0.097534
72.0379	155.5878	202.4608	219.0175	284.3291	339.0947	415.2497	461.8296	614.3876	697.7609	771.0209	781.997	880.3084	906.3991	930.373	958.845	978.6251	1007.1149	1038.3905	1069.5917	1105.1481	1120.0953	1130.8856	1220.8689	1236.4949	1245.7989	1272.9424	1314.8592	1360.4243	1364.5783	1386.1923	1410.6115	1468.9656	1478.9439	1499.6614	1499.9249	1508.6107	1512.0572	2964.241	2971.9528	3030.7152	3040.2034	3069.9678	3072.9422	3075.2392	3110.0097	3119.0749	3150.6667
CCC12COCC1O2	CC[C@]12COC[C@H]1O2	
InChI=1S/C6H10O2/c1-2-6-4-7-3-5(6)8-6/h5H,2-4H2,1H3	InChI=1S/C6H10O2/c1-2-6-4-7-3-5(6)8-6/h5H,2-4H2,1H3/t5-,6+/m1/s1
