17
gdb 10496	3.02164	1.29129	1.0166	2.4142	74.19	-0.2337	0.0398	0.2735	1197.6614	0.140963	-363.806646	-363.797465	-363.796521	-363.841831	31.87	
C	-0.0573089298	 1.5350885815	 0.1307542495	-0.501497
C	 0.0179742197	 0.081841335	 0.1085482852	 0.095829
C	 0.0824635574	-1.1213746855	 0.08707177	 0.030322
C	 0.1779553415	-2.5573270043	 0.0418077049	 0.095131
C	 1.4272243611	-3.1432830625	-0.6027904999	-0.107335
O	 1.4284253166	-2.9487565334	-2.0002853794	-0.41484
C	-0.5689397072	-3.3576735031	 1.0582350608	-0.267761
N	-1.0408263865	-3.3329271852	-0.3325480311	-0.359112
H	 0.8095158724	 1.9802941354	-0.36961172	 0.154955
H	-0.9555746601	 1.8945917424	-0.3834918834	 0.149579
H	-0.0841590731	 1.9207247497	 1.1559791944	 0.148332
H	 2.3228596538	-2.6501023679	-0.2138654703	 0.113291
H	 1.481684878	-4.2117285952	-0.3434412193	 0.087067
H	 0.5977124912	-3.3227462188	-2.3186003582	 0.290473
H	-0.1614766664	-4.3098545168	 1.387552419	 0.122202
H	-1.1305477578	-2.8127796578	 1.8107246744	 0.122542
H	-1.8266396408	-2.6927278535	-0.4134629566	 0.240825
29.5452	68.2927	106.1612	131.549	236.7152	304.2649	309.0812	328.6558	432.2602	460.2328	534.2603	563.3354	656.8099	803.1332	896.1942	912.5402	988.0116	997.9232	1044.0087	1051.6249	1054.3931	1083.4156	1099.767	1151.8233	1212.3565	1273.3018	1322.9349	1359.7991	1401.5541	1414.6217	1432.3803	1476.7236	1478.1963	1494.1858	1506.0126	2366.17	2986.7075	3027.1023	3086.6902	3090.3684	3090.7413	3112.7357	3203.7992	3509.5352	3785.8543
CC#CC1(CO)CN1	CC#C[C@@]1(CO)CN1	
InChI=1S/C6H9NO/c1-2-3-6(5-8)4-7-6/h7-8H,4-5H2,1H3	InChI=1S/C6H9NO/c1-2-3-6(5-8)4-7-6/h7-8H,4-5H2,1H3/t6-/m0/s1
