15
gdb 125359	3.39287	1.5933	1.0915	3.687	73.09	-0.2121	0.0024	0.2145	1043.4967	0.11471	-416.815145	-416.807912	-416.806968	-416.846674	27.75	
C	-0.018723988	 1.5304075296	 0.0054446211	-0.506292
C	-0.0067399275	 0.0342290373	 0.0304173037	 0.071181
C	-0.0305637563	-0.8003326892	-1.0600206993	-0.135399
N	-0.0088797189	-2.1456221088	-0.6537677511	-0.423995
C	 0.028214748	-2.1270737769	 0.6976192175	 0.491611
C	 0.0316632292	-0.8362076449	 1.1776232815	 0.115349
C	 0.0721706206	-1.0636918405	 2.5797980263	-0.12118
N	 0.0907810667	-2.3423574105	 2.8879310711	-0.157322
O	 0.0614161039	-3.0588390433	 1.6428476109	-0.25203
H	 0.8734061035	 1.9493658574	 0.4854841574	 0.130018
H	-0.0511252295	 1.9054371974	-1.0212977125	 0.12395
H	-0.8879539702	 1.9360626965	 0.5362224816	 0.13
H	-0.0615181511	-0.55998198	-2.1110717271	 0.127641
H	-0.0201708926	-2.9493977603	-1.2556216541	 0.275819
H	 0.089529702	-0.3589544738	 3.4002090629	 0.130649
141.2782	191.928	235.9907	242.2511	312.0859	411.559	510.6539	597.6072	597.9229	612.7739	687.3779	713.7195	759.0932	789.8858	829.8691	904.6201	962.8481	1004.4471	1064.8076	1076.948	1114.1975	1199.7594	1249.2199	1277.8195	1346.5253	1420.9747	1450.3443	1480.9469	1481.1692	1503.1472	1557.1589	1591.2263	1633.6741	3025.6394	3074.0176	3109.469	3234.6915	3259.7824	3694.3969
CC1=CNC2=C1C=NO2	Cc1c[nH]c2c1cno2	
InChI=1S/C6H6N2O/c1-4-2-7-6-5(4)3-8-9-6/h2-3,7H,1H3	InChI=1S/C6H6N2O/c1-4-2-7-6-5(4)3-8-9-6/h2-3,7H,1H3
