18
gdb 97508	3.96994	0.67764	0.60754	3.8037	86.73	-0.2554	-0.057	0.1984	1856.1159	0.146434	-401.91624	-401.906456	-401.905512	-401.953197	33.656	
C	 0.1759125763	 1.5314631328	 0.2500496178	-0.370236
C	 0.0554147545	-0.0002577169	 0.1574920064	-0.325605
C	-1.3151463414	-0.4688830289	 0.012057572	 0.165167
C	-2.452526401	-0.8576308036	-0.108582599	-0.029198
C	-3.817718852	-1.3007227573	-0.2506235492	 0.220982
O	-4.1231498458	-2.4771454696	-0.3479004985	-0.331159
C	-4.8588715979	-0.2243837782	-0.279202107	-0.106562
C	-5.8524170676	-0.3043535144	-1.4007159276	-0.218998
N	-6.2476988323	-0.6373400331	-0.039856856	-0.303144
H	 1.2247651567	 1.8211605229	 0.3581478968	 0.123764
H	-0.2227740532	 2.0081567981	-0.6491970263	 0.133754
H	-0.3781750338	 1.9139593634	 1.1111267134	 0.134428
H	 0.6450881886	-0.3732177311	-0.6898665304	 0.146185
H	 0.4913495389	-0.4659816107	 1.0507826031	 0.146855
H	-4.5704984342	 0.7456783335	 0.1119682803	 0.104347
H	-6.2638626384	 0.6191198083	-1.7976280108	 0.126784
H	-5.7174577151	-1.1097507368	-2.11727913	 0.133526
H	-6.2334444823	-1.6536443285	 0.0603826553	 0.24911
21.3923	57.9666	66.2717	143.7124	182.1232	231.3894	273.8428	286.3405	373.5425	403.9702	539.4954	565.7924	755.2051	759.3202	778.5583	841.4769	867.3936	914.4321	974.3666	1004.5272	1028.6579	1082.3805	1098.3628	1117.7617	1133.8287	1175.4788	1206.9965	1282.4224	1288.5641	1317.8051	1347.5667	1394.6224	1411.6525	1461.202	1496.1575	1497.562	1503.9573	1731.4635	2331.1293	3024.8805	3049.2918	3053.4311	3112.9302	3124.5495	3128.551	3169.1982	3206.9868	3458.5843
CCC#CC(=O)C1CN1	CCC#CC(=O)[C@H]1CN1	
InChI=1S/C7H9NO/c1-2-3-4-7(9)6-5-8-6/h6,8H,2,5H2,1H3	InChI=1S/C7H9NO/c1-2-3-4-7(9)6-5-8-6/h6,8H,2,5H2,1H3/t6-/m1/s1
