17
gdb 92775	3.17136	1.18849	0.90756	3.9954	76.99	-0.2424	-0.0807	0.1616	1260.3735	0.135058	-421.880759	-421.872106	-421.871162	-421.914654	31.118	
C	-0.3478895813	 1.4955421109	-0.0061917224	-0.399226
C	 0.0352525981	 0.0168773294	-0.1035819953	-0.093865
C	 1.1151687519	-0.333725094	-1.1533742662	-0.293857
C	 2.1360927149	-1.1398769244	-0.4020841406	-0.123695
C	 1.8645614028	-1.2467639922	 0.9105869665	 0.104482
C	 2.6815056673	-1.9501367032	 1.9218740618	 0.075642
O	 3.7015225938	-2.5495801741	 1.6659602807	-0.264575
C	 0.6075296302	-0.5169202692	 1.2244513207	 0.315836
O	 0.1194336366	-0.3579626627	 2.3196134552	-0.333415
H	 0.5385683009	 2.1215924824	 0.1430023881	 0.121537
H	-0.8536315644	 1.8351767051	-0.9147076774	 0.118622
H	-1.0154661647	 1.6496753845	 0.8453921379	 0.145399
H	-0.871675388	-0.5689375115	-0.2997348804	 0.114642
H	 0.7222915202	-0.8940333614	-2.010185927	 0.131257
H	 1.5841939906	 0.5650254248	-1.5769728262	 0.133379
H	 3.0099195724	-1.5774473804	-0.8737644414	 0.144367
H	 2.2834145987	-1.8890049739	 2.953905566	 0.10347
48.9522	129.4612	166.1287	212.1582	229.4332	239.4031	317.9208	371.3435	407.1319	544.4544	619.321	683.6182	770.6799	815.57	837.3188	895.8107	929.3939	960.0551	1011.4901	1054.7081	1058.4422	1109.809	1125.0149	1192.9283	1226.1139	1274.8462	1308.3394	1315.9308	1339.9863	1406.4756	1429.4473	1462.5772	1496.8338	1500.23	1659.1506	1792.7487	1811.1334	2946.0525	3022.8764	3031.0523	3038.5206	3058.0949	3106.1835	3126.1634	3200.2437
CC1CC=C(C=O)C1=O	C[C@H]1CC=C(C=O)C1=O	
InChI=1S/C7H8O2/c1-5-2-3-6(4-8)7(5)9/h3-5H,2H2,1H3	InChI=1S/C7H8O2/c1-5-2-3-6(4-8)7(5)9/h3-5H,2H2,1H3/t5-/m0/s1
