21
gdb 10339	2.17762	1.57986	1.1397	3.2983	75.11	-0.2399	0.0365	0.2764	1175.859	0.186933	-366.312956	-366.302437	-366.301493	-366.349456	36.57	
C	 0.2443482889	 1.4188678852	-0.2988241319	-0.396331
C	 0.043643892	-0.0972627247	-0.2184679193	-0.171183
C	-1.4055626461	-0.5387782725	 0.0958168393	-0.069952
C	-2.3985262092	-0.1929100617	-1.0264677491	-0.165862
C	-3.8558678207	-0.5001571886	-0.668490445	-0.394132
C	-1.3907107943	-2.055323108	 0.3155635845	 0.410512
N	-1.4709288126	-2.4628216831	 1.6163810267	-0.527244
O	-1.2731757932	-2.8447089812	-0.6035991235	-0.379983
H	 1.2995387611	 1.6579061804	-0.4644758168	 0.115557
H	-0.3245478037	 1.8674971031	-1.1181460468	 0.123486
H	-0.0647254947	 1.9114834617	 0.6303313894	 0.110093
H	 0.349609568	-0.573035506	-1.157027977	 0.119878
H	 0.7057773684	-0.5016276102	 0.5574517581	 0.095734
H	-1.7250495152	-0.0386298409	 1.0218885675	 0.054248
H	-2.3038648362	 0.8683694524	-1.2781854897	 0.089803
H	-2.1084947866	-0.7649686979	-1.9141574067	 0.122918
H	-3.9974468508	-1.5657334204	-0.4615986254	 0.129963
H	-4.1775330635	 0.0611971725	 0.2166665663	 0.10463
H	-4.5263598369	-0.2321576491	-1.4906817709	 0.113614
H	-1.6372809161	-1.8224065464	 2.371649362	 0.256439
H	-1.4605306088	-3.4513004746	 1.8092758782	 0.257812
27.021	71.0378	100.9148	124.1429	171.3613	199.8222	208.8948	258.0661	298.9896	331.5407	417.814	477.6656	588.8732	618.0778	729.0764	771.0268	776.7703	850.8233	905.2893	937.0747	1021.6755	1037.4061	1055.9173	1064.2829	1121.3232	1130.7864	1181.2185	1257.4763	1272.6697	1310.6096	1337.32	1364.6938	1372.681	1405.9863	1410.5685	1417.3344	1478.8759	1490.5203	1499.3334	1500.9117	1506.0837	1508.132	1613.5499	1788.6933	2994.2529	3026.7236	3029.5775	3032.4361	3045.6855	3068.694	3081.1034	3098.46	3100.6231	3108.6514	3112.9921	3600.9219	3741.4905
CCC(CC)C(N)=O	CCC(CC)C(=O)N	
InChI=1S/C6H13NO/c1-3-5(4-2)6(7)8/h5H,3-4H2,1-2H3,(H2,7,8)	InChI=1S/C6H13NO/c1-3-5(4-2)6(7)8/h5H,3-4H2,1-2H3,(H2,7,8)
