16
gdb 75342	2.62649	1.77272	1.20661	2.2199	72.28	-0.2305	-0.0546	0.1759	1009.9409	0.1268	-434.074212	-434.066711	-434.065767	-434.106039	29.401	
N	 0.0265330144	 1.3269338652	 0.201257465	-0.539864
C	-0.0672948866	-0.025812197	 0.0178067367	 0.26982
N	-1.1934598912	-0.633497255	 0.0103169569	-0.302275
C	-1.2664961243	-2.0621318699	-0.2136571324	-0.159542
C	-0.047567313	-2.738676462	-0.8102555695	-0.045622
N	 0.5044710706	-2.1150945753	-2.0070224671	-0.324096
C	 1.274160973	-2.0433287369	-0.7326733228	-0.168241
C	 1.288675691	-0.6916123045	-0.123491236	 0.413062
O	 2.2955529176	-0.1538984507	 0.2901723153	-0.344942
H	 0.9245802421	 1.6545020777	 0.5234763502	 0.266985
H	-0.7931772059	 1.7863216435	 0.5650436029	 0.255614
H	-1.5098873422	-2.5521576865	 0.7408513261	 0.111888
H	-2.1258110285	-2.2547210967	-0.8705311447	 0.11978
H	-0.0329428601	-3.825375233	-0.746951183	 0.097124
H	 0.940868696	-2.8141254244	-2.6028834769	 0.244873
H	 2.1968437271	-2.6066528344	-0.6396315307	 0.105436
91.3468	197.8394	254.0184	328.3389	342.5552	421.44	470.682	475.5775	509.9582	555.045	576.659	684.4554	739.447	801.241	826.3626	890.7579	907.0715	937.62	1003.6852	1008.8848	1057.6848	1144.3214	1156.7042	1219.4478	1229.426	1249.0889	1277.5507	1365.8931	1382.5521	1414.9141	1444.0351	1475.146	1600.7812	1721.6505	1786.9668	2998.1161	3025.9789	3122.4678	3172.8589	3506.8303	3579.2909	3704.1738
NC1=NCC2NC2C1=O	NC1=NC[C@H]2N[C@H]2C1=O	
InChI=1S/C5H7N3O/c6-5-4(9)3-2(8-3)1-7-5/h2-3,8H,1H2,(H2,6,7)	InChI=1S/C5H7N3O/c6-5-4(9)3-2(8-3)1-7-5/h2-3,8H,1H2,(H2,6,7)/t2-,3-/m1/s1
