18
gdb 88746	3.85009	0.91826	0.81015	4.5546	74.7	-0.2457	0.0067	0.2525	1398.1254	0.146459	-439.052281	-439.043333	-439.042389	-439.086759	32.56	
O	-0.1356619997	 0.7745932916	-0.9750098938	-0.414318
C	-0.1643256854	-0.25300061	-0.0277074735	 0.091683
C	-0.2136346223	 0.0916129409	 1.4372634663	-0.339898
C	-1.4530410578	-0.4327911764	 0.7265489906	-0.038038
C	-2.6037803829	 0.4812895996	 0.4580823693	-0.013657
C	-3.9206541481	-0.072833601	-0.014289507	-0.25269
N	-3.778185055	 0.4538326119	 1.3236386408	-0.072679
C	-3.9365073796	-0.2929329498	 2.4752394332	 0.135551
O	-4.7893985084	-1.1305495232	 2.6479333168	-0.293259
H	 0.7394004048	 1.1756745041	-0.9532136237	 0.293014
H	 0.3672401748	-1.1583317233	-0.3195833049	 0.095836
H	 0.2900890053	-0.5504160899	 2.1512930994	 0.120775
H	-0.2054849665	 1.148318199	 1.684737398	 0.122263
H	-1.7379793224	-1.4581171506	 0.9466730568	 0.105318
H	-2.3237161671	 1.4728554946	 0.1147857445	 0.113449
H	-4.537726858	 0.5064877579	-0.6951112831	 0.128634
H	-4.0169853667	-1.1520310436	-0.1061988423	 0.134475
H	-3.2256608252	 0.0195045983	 3.2640669926	 0.083543
48.8001	81.808	156.7007	196.847	198.1649	298.4562	309.8741	373.9568	419.663	468.1876	565.2635	656.3683	769.1832	816.3505	836.3398	877.2546	940.4832	958.1636	1003.2704	1022.7252	1041.5845	1056.4264	1094.8986	1115.0123	1132.4634	1138.9628	1165.7177	1176.5924	1210.5353	1239.6489	1294.3599	1318.8289	1380.6583	1417.6171	1419.4579	1452.9045	1491.1081	1513.7446	1795.3457	2952.1856	3103.4883	3110.8042	3131.3887	3145.1164	3159.9933	3199.9492	3222.4524	3808.8328
OC1CC1C1CN1C=O	O[C@H]1C[C@H]1[C@H]1CN1C=O	
InChI=1S/C6H9NO2/c8-3-7-2-5(7)4-1-6(4)9/h3-6,9H,1-2H2	InChI=1S/C6H9NO2/c8-3-7-2-5(7)4-1-6(4)9/h3-6,9H,1-2H2/t4-,5+,6-,7?/m0/s1
