19
gdb 35933	2.29242	1.49358	1.25789	1.6109	81.98	-0.2423	0.0108	0.2531	1108.588	0.159391	-385.850135	-385.841528	-385.840583	-385.883956	32.651	
C	-0.3503449839	-1.2534744428	-0.1942839945	-0.489737
C	-0.1964339207	-0.0657655465	-0.0955716961	 0.36293
C	-0.0087465592	 1.380087771	-0.0014314581	-0.185388
C	-0.6553157744	 1.9517632881	 1.2805549927	-0.080778
O	-0.2258348513	 1.3378107545	 2.4695239002	-0.223874
C	 1.0174157408	 1.777031764	 2.9811739514	-0.125658
C	 2.2518858757	 1.3490122589	 2.2217458978	-0.054846
C	 2.4375277685	 1.3399700354	 0.9023920955	-0.042933
C	 1.4757081056	 1.7819170351	-0.1731696666	-0.271501
H	-0.4878086767	-2.3034993328	-0.2698361066	 0.194171
H	-0.5532210062	 1.8453221643	-0.8367841098	 0.103667
H	-0.4755563003	 3.040150462	 1.3125555854	 0.082614
H	-1.7363589958	 1.7881972789	 1.2322736175	 0.114496
H	 1.010653984	 2.8790969921	 3.0793705983	 0.095961
H	 1.0636142269	 1.3718658944	 3.9966293804	 0.114829
H	 3.0833999262	 1.0421355652	 2.8531214403	 0.089752
H	 3.4103114658	 1.0162015282	 0.5388733807	 0.090644
H	 1.81924258	 1.3968657931	-1.1379955844	 0.115103
H	 1.514034495	 2.8787260369	-0.2573267042	 0.110546
39.6037	90.3217	159.1185	237.3282	308.2077	347.6894	374.3054	416.6263	463.9293	555.2671	617.4569	636.7411	656.9664	723.5773	746.9869	815.0845	873.9202	889.1001	925.5591	962.3848	998.7032	1037.0885	1043.639	1060.1308	1126.6028	1175.4425	1232.9653	1248.8281	1274.5923	1291.4615	1324.6046	1364.9976	1378.0745	1402.592	1422.481	1425.173	1471.7598	1477.148	1491.9446	1732.2386	2237.2894	2926.9661	2960.6692	2989.8445	3001.7802	3074.5187	3075.0718	3078.4983	3134.9658	3159.0271	3505.408
C#CC1COCC=CC1	C#C[C@H]1COCC=CC1	
InChI=1S/C8H10O/c1-2-8-5-3-4-6-9-7-8/h1,3-4,8H,5-7H2	InChI=1S/C8H10O/c1-2-8-5-3-4-6-9-7-8/h1,3-4,8H,5-7H2/t8-/m1/s1
