21
gdb 60202	2.46906	1.07647	0.84357	3.2273	81.12	-0.2375	-0.0138	0.2236	1433.1661	0.179151	-424.22207	-424.211928	-424.210984	-424.257848	36.852	
C	 0.1666873567	 1.4207075652	-0.6703925678	-0.396572
C	 0.0432503483	 0.0078200285	-0.0994176076	 0.144476
C	-1.4056577167	-0.4454947562	 0.0263396353	-0.390854
O	 0.6921838492	-0.9743374387	-0.9208563639	-0.257162
C	 2.0761087326	-0.9555957366	-0.8902406638	 0.132336
C	 2.7805390197	-1.8476594039	-1.833979466	-0.342675
C	 2.8905280239	-0.3324219137	-2.0385291838	-0.142996
C	 2.1904252273	 0.2550854685	-3.1993226922	 0.170555
O	 2.5747593239	 1.2260883703	-3.807087288	-0.280276
H	 1.2096416754	 1.736585545	-0.7534079663	 0.130377
H	-0.2896496133	 1.4757078956	-1.66392643	 0.12914
H	-0.3479132333	 2.1331728194	-0.0178421428	 0.117407
H	 0.5169397395	-0.0176987442	 0.8958974879	 0.070704
H	-1.8901465365	-0.4451811673	-0.955096437	 0.126173
H	-1.4565922747	-1.4582325296	 0.4341302702	 0.123587
H	-1.9616997061	 0.2270461971	 0.6857390358	 0.11676
H	 2.5055665649	-0.8145890024	 0.1025432712	 0.099034
H	 3.6679704448	-2.3783407706	-1.5107063164	 0.130833
H	 2.1592170651	-2.3812727288	-2.5462489646	 0.137259
H	 3.8244786396	 0.1554411006	-1.7810643691	 0.10482
H	 1.2547389597	-0.272647278	-3.487132751	 0.07707
44.7059	63.5528	128.6791	174.9098	202.818	218.1706	265.1549	299.5747	334.9115	373.6676	454.9007	475.1159	485.7187	579.6758	767.7601	804.3151	846.3858	864.3448	926.7253	928.2299	946.4269	990.288	1035.9418	1051.4634	1068.4892	1120.945	1146.6239	1155.2134	1177.8089	1185.0995	1206.2895	1240.1399	1337.0451	1362.4613	1369.9011	1400.7755	1414.7493	1426.057	1441.4911	1479.7367	1481.2678	1486.157	1496.2387	1510.5135	1810.1689	2890.4122	2966.7811	3040.3515	3045.6099	3093.7925	3109.7668	3118.9497	3123.2707	3125.7175	3137.7421	3175.5399	3229.6806
CC(C)OC1CC1C=O	CC(C)O[C@H]1C[C@H]1C=O	
InChI=1S/C7H12O2/c1-5(2)9-7-3-6(7)4-8/h4-7H,3H2,1-2H3	InChI=1S/C7H12O2/c1-5(2)9-7-3-6(7)4-8/h4-7H,3H2,1-2H3/t6-,7-/m0/s1
