16
gdb 43128	2.47477	1.88232	1.41463	3.7496	69.09	-0.2174	-0.0833	0.134	938.3733	0.126955	-437.912329	-437.905332	-437.904387	-437.943885	27.216	
O	-0.0025315347	-0.0223931929	-0.0954899278	-0.298002
C	-0.0321600615	 1.1751786203	-0.0226708577	 0.323014
C	-1.2215046062	 2.1331236737	 0.064821542	-0.126344
C	-1.2693775335	 2.7501104131	 1.4816724602	-0.215614
C	-0.0511810767	 3.7222714628	 1.4699089272	-0.215615
C	 0.5230646207	 3.5253519055	 0.0479748636	-0.126344
N	-0.7198799615	 3.2841487642	-0.7331737271	-0.303481
C	 1.1922792348	 2.1523262559	-0.0345082586	 0.323016
O	 2.352512088	 1.8570186874	-0.1182440097	-0.298005
H	-2.1568968024	 1.7114624661	-0.3010804569	 0.102307
H	-2.2077093858	 3.2918747065	 1.6146271929	 0.124072
H	-1.2035671786	 1.9873325866	 2.2607104808	 0.124562
H	-0.3697440166	 4.7586350315	 1.5968738897	 0.124073
H	 0.6871395856	 3.4961858736	 2.2424562553	 0.124563
H	 1.1373296941	 4.3403747524	-0.3328886887	 0.102306
H	-0.5083866056	 3.0075350534	-1.6915488951	 0.235492
95.5383	185.5765	215.4286	297.797	429.9056	450.0838	547.5174	564.3305	665.1946	722.6324	749.3901	809.8332	831.9057	885.1442	914.374	917.9851	953.7799	960.211	1036.2795	1045.061	1074.2777	1097.0101	1189.2666	1192.7651	1218.8188	1232.1102	1269.4661	1304.3559	1318.5307	1336.7615	1384.2925	1484.5658	1503.0015	1846.1627	1865.1368	3072.2969	3080.0316	3113.8315	3129.6352	3131.3992	3134.5693	3470.7267
O=C1C2CCC(N2)C1=O	O=C1[C@H]2CC[C@H](N2)C1=O	
InChI=1S/C6H7NO2/c8-5-3-1-2-4(7-3)6(5)9/h3-4,7H,1-2H2	InChI=1S/C6H7NO2/c8-5-3-1-2-4(7-3)6(5)9/h3-4,7H,1-2H2/t3-,4+
