16
gdb 108910	3.4606	1.032	0.88158	2.105	66.6	-0.2568	-0.0407	0.2161	1290.644	0.123329	-475.040205	-475.031395	-475.030451	-475.07494	30.311	
O	 0.1994505609	 1.4586536055	-0.0814660865	-0.419523
C	 0.1274350674	 0.0586143498	-0.0998453564	-0.126597
C	-1.2885933206	-0.4262950118	-0.0258625102	 0.396959
N	-2.2957317088	 0.3522161177	 0.0266812226	-0.357657
C	-3.4777080794	-0.5198080959	 0.12638048	-0.091991
C	-2.9171918306	-1.9567303095	 0.0310621549	-0.13046
O	-1.4800440265	-1.7590328005	-0.0182934461	-0.247253
C	-4.2089454148	-0.2269779511	 1.4354008145	 0.155456
O	-4.5748952599	-1.0726618956	 2.2083279683	-0.232487
H	-0.7122700554	 1.7787311858	-0.0332517313	 0.298293
H	 0.5833452216	-0.3490332738	-1.0154529643	 0.125845
H	 0.6839045524	-0.3769129917	 0.74429172	 0.128048
H	-4.180079027	-0.2832195061	-0.6849978654	 0.116407
H	-3.1655721884	-2.5523338635	 0.9118407875	 0.152097
H	-3.2185458757	-2.4863991362	-0.8748172734	 0.1281
H	-4.3748590452	 0.8545268171	 1.621196126	 0.104763
58.2157	72.0531	107.9955	158.5188	204.6356	268.0697	269.3489	381.6827	456.3017	584.9287	631.572	706.2617	731.7271	847.1486	934.2515	966.3467	999.5069	1038.8456	1060.1244	1076.95	1095.0808	1117.3935	1215.0966	1235.015	1246.0737	1271.7622	1321.4653	1353.1912	1379.5285	1407.7501	1478.9183	1503.0363	1521.4545	1718.9675	1833.8421	2924.5811	2991.2208	3008.8515	3012.1003	3076.2018	3131.9535	3737.2874
OCC1=NC(CO1)C=O	OCC1=N[C@@H](CO1)C=O	
InChI=1S/C5H7NO3/c7-1-4-3-9-5(2-8)6-4/h1,4,8H,2-3H2	InChI=1S/C5H7NO3/c7-1-4-3-9-5(2-8)6-4/h1,4,8H,2-3H2/t4-/m1/s1
