17
gdb 79684	2.57357	1.54545	1.20566	4.0852	75.07	-0.2212	-0.0243	0.1969	1054.1572	0.134765	-421.756575	-421.748591	-421.747647	-421.788885	30.907	
O	-0.0547121787	 1.4753000928	-0.1771052519	-0.412422
C	-0.1253484884	 0.0929340804	 0.0112871948	 0.020633
C	-0.4852195043	-0.6369256769	 1.2559315925	-0.156582
C	-1.6870811927	-0.1286890457	 2.0744695058	-0.063547
C	-2.3284635184	 1.1427638621	 1.5724233368	-0.311818
C	-2.5805511664	-0.1465126631	 0.8465589705	-0.108906
C	-1.4238975091	-0.6585873187	-0.0412615598	 0.201198
C	-1.6015691437	-1.8120560657	-0.9222246915	 0.075071
O	-2.6610074818	-2.3645847878	-1.1208805542	-0.28069
H	 0.6912638294	 1.8030839072	 0.3380626247	 0.292557
H	 0.6428861727	-0.4522761035	-0.5466818293	 0.10268
H	 0.1123423698	-1.4762770826	 1.5923465886	 0.107783
H	-1.9028985447	-0.5418133149	 3.0503007705	 0.100011
H	-3.1692374	 1.4600757286	 2.1831727519	 0.115395
H	-1.7546535895	 1.9426679139	 1.1296389862	 0.139946
H	-3.5567114634	-0.5981796007	 0.7435467419	 0.11827
H	-0.6623917806	-2.1710431754	-1.4039234375	 0.060421
108.7806	183.4092	202.1821	239.5947	279.4825	294.0296	405.3879	428.1674	565.9997	586.7961	656.4962	704.1882	754.6871	771.4172	844.441	899.3396	926.7667	940.1176	977.4262	1015.0847	1038.1771	1045.8136	1073.3375	1095.2538	1097.3146	1142.5119	1187.5585	1230.6101	1256.2614	1295.25	1312.0639	1349.624	1363.5614	1428.7497	1474.0332	1484.3506	1783.118	2857.5509	3051.1933	3138.8523	3182.5822	3203.6891	3224.2802	3256.495	3799.1
OC1C2C3CC3C12C=O	O[C@H]1[C@H]2[C@H]3C[C@H]3[C@@]12C=O	
InChI=1S/C7H8O2/c8-2-7-4-1-3(4)5(7)6(7)9/h2-6,9H,1H2	InChI=1S/C7H8O2/c8-2-7-4-1-3(4)5(7)6(7)9/h2-6,9H,1H2/t3-,4+,5+,6-,7+/m0/s1
