16
gdb 54490	2.60198	1.60464	1.10512	1.3565	71.33	-0.2556	-0.0292	0.2264	1074.1657	0.122582	-437.87827	-437.869901	-437.868957	-437.911806	30.657	
C	 0.5272200647	 1.3360761517	 0.1667742463	-0.487791
C	-0.2684843722	 0.0657939811	-0.0203123943	 0.294918
O	-1.0418762968	-0.361999386	 0.8106676185	-0.322002
C	-0.0496067934	-0.676464292	-1.2934142734	 0.080098
C	-1.0728842847	-1.7251699026	-1.7839814816	-0.327962
C	 0.2988062729	-2.1586684983	-1.4928675184	 0.062404
O	 1.1778085475	-1.8305054378	-2.5938186369	-0.268644
C	 0.9511947481	-0.4674222513	-2.384285698	 0.385983
N	 1.4838540857	 0.5325210628	-2.9170727785	-0.556684
H	 1.5960280429	 1.0985612563	 0.2213037936	 0.149512
H	 0.4090985248	 1.9944961765	-0.6990738095	 0.16547
H	 0.2118336514	 1.833311514	 1.0843148759	 0.138755
H	-1.813751522	-1.936683122	-1.0197483224	 0.162994
H	-1.4185800912	-1.6845745783	-2.811339512	 0.140847
H	 0.6429117421	-2.8855852974	-0.7705545073	 0.144784
H	 2.1700627802	 0.2621465532	-3.6231756418	 0.237319
53.9399	120.5477	147.7554	186.459	220.1898	356.3499	368.7444	467.2936	557.7047	583.9473	622.2713	662.9275	741.3628	828.2992	861.166	872.1069	917.945	950.8718	970.4982	1002.613	1035.0934	1044.8358	1055.0728	1087.6552	1151.9739	1182.3394	1277.8684	1298.6035	1381.1386	1402.7649	1452.9028	1466.6871	1468.2587	1786.4601	1829.7478	3043.01	3106.2257	3133.5726	3160.4757	3226.5102	3237.4628	3485.4284
CC(=O)C12CC1OC2=N	CC(=O)[C@]12C[C@H]1O[C]2[NH]	
InChI=1S/C6H7NO2/c1-3(8)6-2-4(6)9-5(6)7/h4,7H,2H2,1H3	InChI=1S/C6H7NO2/c1-3(8)6-2-4(6)9-5(6)7/h4,7H,2H2,1H3/t4-,6-/m1/s1
