20
gdb 120073	5.71724	0.88525	0.87348	1.4929	80.58	-0.2326	0.0732	0.3057	1419.2171	0.170644	-403.037098	-403.028861	-403.027917	-403.070689	31.072	
C	-0.0023161091	 1.5223235419	 0.0072826632	-0.385086
C	-0.1618795111	 0.0265946881	-0.2019355591	-0.039458
O	 0.9510141006	-0.4439391201	-0.9457128323	-0.270148
C	 0.9464646241	-1.8242629195	-1.1501843919	 0.158554
C	 0.1551370631	-2.406988165	-2.3363851202	-0.0573
C	 1.1860318345	-1.9124948674	-3.3981011079	-0.056864
C	 1.3000010507	-3.3412765476	-3.9154636599	-0.184413
N	 1.1448571621	-3.6037408493	-2.4174348301	-0.171338
C	 1.9949124758	-2.3325865626	-2.1323464301	-0.061167
H	 0.9213927641	 1.7364917466	 0.5522459351	 0.128105
H	 0.039273018	 2.0420617837	-0.9541343559	 0.126848
H	-0.8453652047	 1.9190884879	 0.5806785782	 0.115656
H	-0.2136293178	-0.498149965	 0.766143184	 0.090615
H	-1.0992384182	-0.1912158034	-0.7383378633	 0.090488
H	 0.8577577728	-2.3870884113	-0.2091199641	 0.077589
H	-0.9148613854	-2.5746178951	-2.4723951859	 0.079141
H	 1.2083491786	-0.9549722374	-3.9244464763	 0.074404
H	 0.4765187361	-3.7452052058	-4.5139888701	 0.100113
H	 2.2633814511	-3.6742969609	-4.3161715731	 0.100941
H	 3.0781923746	-2.4033907479	-2.0225493704	 0.083319
62.3082	76.3115	130.2162	229.605	269.2248	333.9521	362.8247	482.6524	600.255	714.2446	800.6469	814.416	822.7177	848.1347	865.7247	901.9069	915.5664	935.0161	961.0988	1029.0799	1030.7602	1060.6296	1072.3487	1102.226	1127.2023	1146.1305	1166.0432	1171.5088	1176.3392	1191.0371	1202.5411	1243.3422	1258.1752	1273.38	1297.2489	1320.3645	1372.1813	1403.8511	1443.2671	1482.8592	1499.9227	1520.5241	1528.9084	2966.1399	2994.2155	3002.9978	3033.6931	3045.3212	3073.0299	3092.1736	3098.9909	3108.8968	3120.0574	3122.0292
CCOC1C2C3CN2C13	CCO[C@H]1[C@H]2[C@@H]3CN2[C@H]13	
InChI=1S/C7H11NO/c1-2-9-7-5-4-3-8(5)6(4)7/h4-7H,2-3H2,1H3	InChI=1S/C7H11NO/c1-2-9-7-5-4-3-8(5)6(4)7/h4-7H,2-3H2,1H3/t4-,5+,6-,7-
