17
gdb 43348	2.83642	1.7832	1.44022	3.6386	73.04	-0.2303	-0.055	0.1753	938.0198	0.138972	-421.862618	-421.855788	-421.854844	-421.893884	27.267	
O	 0.0398067726	-0.0385458759	-0.0023926341	-0.334035
C	-0.0111000859	 1.170780818	 0.0728620819	 0.379846
C	-1.2764485618	 1.9384719979	 0.1380063295	-0.164182
C	-1.2292683745	 3.2771654999	 0.1326386507	-0.047774
C	 0.1079973878	 3.9808757012	 0.1483272049	 0.025704
C	 0.713005439	 4.0472661175	-1.2835537421	-0.223375
C	 1.407671889	 2.6656209158	-1.4064320236	-0.245902
C	 1.239428352	 2.0570306309	 0.0186213363	-0.030957
O	 1.0506325288	 3.1894654886	 0.8656853592	-0.253066
H	-2.2029351503	 1.3736954003	 0.1427385648	 0.113367
H	-2.1316785461	 3.8817220607	 0.0897994192	 0.113412
H	 0.0423018416	 4.9546996941	 0.6379272432	 0.092093
H	-0.0424271333	 4.2192568096	-2.0528366408	 0.111564
H	 1.4417292134	 4.8594774487	-1.3328037326	 0.115755
H	 0.9654888309	 2.0289487927	-2.1758195248	 0.123657
H	 2.4679485371	 2.7789836159	-1.6399549281	 0.121258
H	 2.1049639797	 1.493213874	 0.3675060764	 0.102633
96.8341	192.2905	267.0868	382.4461	436.5185	448.0246	488.0474	636.0845	713.9795	727.0501	750.2388	803.0184	845.0795	861.1662	907.5413	927.414	954.0737	979.3935	1013.2536	1022.0773	1046.8537	1080.354	1139.9609	1165.5938	1219.7609	1238.0291	1252.7895	1264.9339	1308.2748	1316.1507	1330.0659	1379.1399	1395.4217	1483.8419	1504.5649	1667.2806	1793.2208	3069.4192	3078.7386	3095.5071	3111.3593	3120.9058	3131.2148	3161.999	3194.6385
O=C1C=CC2CCC1O2	O=C1C=C[C@@H]2CC[C@H]1O2	
InChI=1S/C7H8O2/c8-6-3-1-5-2-4-7(6)9-5/h1,3,5,7H,2,4H2	InChI=1S/C7H8O2/c8-6-3-1-5-2-4-7(6)9-5/h1,3,5,7H,2,4H2/t5-,7-/m1/s1
