19
gdb 46917	3.18687	1.38287	1.04543	3.1395	76.23	-0.2051	-0.0095	0.1956	1141.6673	0.161381	-419.187003	-419.179076	-419.178131	-419.2196	31.237	
O	-0.0076166056	 0.1077088556	-0.6260972777	-0.298969
C	-0.0164550989	 1.2243448189	-0.1602142544	 0.421489
C	-1.3609761037	 1.9231410326	 0.0868685923	-0.266719
N	-1.4050878692	 2.7881172593	 1.258748147	-0.282192
C	-0.7946454423	 4.0682205981	 1.0685070947	 0.009349
C	-0.0310421478	 4.6738033272	 2.2200894605	-0.327082
C	 0.7173011159	 4.0887126833	 1.0480772828	 0.009349
N	 1.3671214491	 2.8256896077	 1.2212877027	-0.282192
C	 1.3148217516	 1.9594058682	 0.0507114436	-0.266719
H	-1.6048353658	 2.4557205887	-0.8555037577	 0.099085
H	-2.0963639557	 1.1223165628	 0.193896259	 0.124557
H	-2.3567762722	 2.8837469032	 1.5903633164	 0.226953
H	-1.2804904642	 4.7624480828	 0.3762911667	 0.072071
H	-0.0439810015	 5.7507637719	 2.3428424506	 0.109843
H	-0.0108044245	 4.090734647	 3.132653572	 0.12851
H	 1.1652807163	 4.7955986714	 0.3432464737	 0.072071
H	 2.3244796305	 2.9471925805	 1.5271089465	 0.226953
H	 2.0742611379	 1.1788403787	 0.1375416163	 0.124558
H	 1.5186141301	 2.4980512522	-0.897710285	 0.099085
55.8638	170.3424	262.4159	278.7622	320.3994	366.1336	398.4606	487.2468	496.9716	534.8377	638.6719	665.549	761.4059	804.5766	828.532	841.1844	866.0124	892.2187	1006.3592	1010.6104	1061.7173	1081.9944	1100.7291	1111.9061	1140.8369	1168.1969	1184.9896	1218.6367	1258.3116	1282.8992	1300.5863	1327.4355	1348.8318	1400.1795	1422.1337	1456.2867	1461.1147	1470.8137	1478.3723	1506.3936	1802.0935	2890.7445	2897.1629	3037.3687	3051.7593	3102.0086	3103.3291	3144.5813	3241.7674	3549.0549	3549.4023
O=C1CNC2CC2NC1	O=C1CN[C@H]2C[C@H]2NC1	
InChI=1S/C6H10N2O/c9-4-2-7-5-1-6(5)8-3-4/h5-8H,1-3H2	InChI=1S/C6H10N2O/c9-4-2-7-5-1-6(5)8-3-4/h5-8H,1-3H2/t5-,6+
