13
gdb 132649	3.27224	1.4026	0.98204	4.8572	64.3	-0.2229	-0.0233	0.1996	1072.1785	0.090169	-494.099001	-494.091502	-494.090558	-494.130767	28.539	
N	-0.0592777766	 1.3627233469	-0.0899140981	-0.567048
C	-0.022520394	 0.0062527444	-0.050121327	 0.355821
N	-1.1702997175	-0.6694138298	 0.0115597955	-0.383442
C	-1.0678495977	-1.9893571379	 0.0100414775	 0.331177
F	-2.223100117	-2.6337862171	 0.0685791727	-0.066485
N	 0.0061469756	-2.7417750966	-0.036722757	-0.327464
C	 1.1633943999	-2.0529309989	-0.0915849693	-0.107836
C	 1.2156763178	-0.6793103074	-0.1020455448	 0.269253
O	 2.3490323455	 0.0858902679	-0.1522352911	-0.459993
H	 0.7926924906	 1.8716601432	 0.0709943865	 0.275717
H	-0.9354724449	 1.8071140274	 0.1280756408	 0.269516
H	 2.0793250162	-2.6417751553	-0.1269120884	 0.106157
H	 3.1238477121	-0.4859765168	-0.1630327974	 0.304628
135.8069	229.7454	278.8767	290.9952	316.6816	368.1332	401.1103	454.9502	497.8698	524.7087	562.4836	602.8027	736.6129	775.0207	797.7236	810.5052	936.9843	996.8366	1121.8017	1170.9485	1296.3608	1309.8204	1334.9797	1420.2187	1464.1851	1528.7196	1617.0214	1632.5215	1661.1518	3133.2649	3610.5296	3740.9035	3819.3801
NC1=NC(F)=NC=C1O	Nc1nc(F)ncc1O	
InChI=1S/C4H4FN3O/c5-4-7-1-2(9)3(6)8-4/h1,9H,(H2,6,7,8)	InChI=1S/C4H4FN3O/c5-4-7-1-2(9)3(6)8-4/h1,9H,(H2,6,7,8)
