21
gdb 66317	4.43698	0.59041	0.57388	1.6578	80.55	-0.2499	-0.022	0.2279	1947.5541	0.179481	-424.221306	-424.210996	-424.210052	-424.25804	36.893	
O	-0.2510223832	 1.4099023865	-0.1580837792	-0.471043
C	-0.0443091807	 0.0234127568	-0.0304467878	 0.419303
C	 1.1083585966	-0.5169283108	-0.8551555774	-0.24025
C	 2.4682187301	 0.0721547537	-0.4572166195	-0.204506
C	 3.6284002078	-0.4874866585	-1.2983350382	-0.273318
C	 4.937229999	 0.1944198393	-0.9744777943	 0.158768
O	 5.9398886979	-0.363588345	-0.6107508145	-0.236588
C	-0.3889589297	-0.6059482455	 1.2981627896	-0.321646
C	-1.306205265	-0.7721592026	 0.0999992855	-0.302839
H	 0.3950466121	 1.8600294612	 0.3961427209	 0.283123
H	 1.138222454	-1.6086028511	-0.7562239204	 0.098291
H	 0.9147177829	-0.2985219373	-1.9135386092	 0.105832
H	 2.4351626488	 1.1635417896	-0.572995093	 0.099364
H	 2.6598961085	-0.127781334	 0.6047155902	 0.111734
H	 3.7494803327	-1.5651533254	-1.1535465032	 0.121525
H	 3.4159449909	-0.3080728185	-2.3626905605	 0.120078
H	 4.911796	 1.3046889696	-1.0912305476	 0.068451
H	 0.1835854547	-1.4635937862	 1.63577828	 0.111992
H	-0.7243026914	 0.0574121688	 2.0876990517	 0.114163
H	-2.2317079011	-0.2086960746	 0.1027436416	 0.124805
H	-1.359922475	-1.742624946	-0.3810680846	 0.112759
45.7238	52.4367	90.037	113.4192	138.649	253.0205	270.1591	297.4119	349.9383	395.9583	426.9715	494.3355	534.6199	730.3118	746.7815	779.0107	818.4131	879.514	918.2437	925.8032	946.918	977.9482	1003.7199	1044.0208	1047.4911	1078.6092	1095.3704	1108.4722	1178.2006	1188.3932	1247.1598	1258.6169	1298.8283	1306.3216	1324.3647	1347.0209	1369.164	1403.0194	1430.7484	1453.654	1463.7242	1474.3588	1499.7152	1503.6206	1837.1802	2843.8516	3008.6543	3014.9747	3023.5586	3048.9646	3071.7512	3097.6481	3130.4031	3139.4731	3216.1731	3233.6657	3806.6754
OC1(CCCC=O)CC1	OC1(CCCC=O)CC1	
InChI=1S/C7H12O2/c8-6-2-1-3-7(9)4-5-7/h6,9H,1-5H2	InChI=1S/C7H12O2/c8-6-2-1-3-7(9)4-5-7/h6,9H,1-5H2
