20
gdb 67621	2.85341	1.70246	1.4187	1.579	82.05	-0.2152	0.086	0.3012	1021.4787	0.171557	-365.970914	-365.963135	-365.962191	-366.002584	31.506	
C	-0.0710569717	 1.5211284075	 0.0500724942	-0.517318
C	 0.0316911763	 0.0277802012	 0.0057465006	 0.357875
C	-0.0139599444	-0.8503751229	-1.2261342272	-0.139567
C	 1.0324964759	-1.9393555848	-1.0955264003	-0.177815
N	 1.0607416682	-2.157428335	 0.3576970771	-0.162642
C	 0.7737330956	-0.8768981492	 1.0360609238	-0.190983
C	-0.2846101446	-1.9197936223	 0.9191362426	 0.356476
C	-0.8983904635	-2.8725290951	 1.8943568421	-0.515131
C	-1.0383195773	-1.0421745043	-0.1273418927	-0.201135
H	 0.9041820204	 1.9940306658	-0.1195684363	 0.119956
H	-0.7569115043	 1.8913378939	-0.7187713162	 0.11976
H	-0.443010188	 1.870336545	 1.0202933864	 0.120228
H	-0.3122270024	-0.4284625874	-2.1788877768	 0.085228
H	 0.7544761861	-2.8686805293	-1.6039329913	 0.103204
H	 2.0238364929	-1.6291059467	-1.442765039	 0.10318
H	 1.3929840986	-0.5549472265	 1.8655569104	 0.084239
H	-1.6630189605	-2.3761224301	 2.5017972065	 0.118162
H	-1.3761332528	-3.7129555406	 1.3764240091	 0.11998
H	-0.1333384046	-3.2771212957	 2.5621817493	 0.132427
H	-2.1088480597	-0.9403110035	-0.2432309423	 0.083876
174.1003	194.5109	199.6937	236.2406	284.4748	306.5381	422.1548	554.0537	584.1235	595.8515	724.8683	765.3744	786.5077	807.9202	826.2019	850.3392	897.6778	915.0934	952.3445	962.7217	991.7278	1008.3398	1031.0326	1064.199	1093.8428	1099.2752	1119.2049	1142.9735	1168.0074	1213.3225	1228.0182	1248.1568	1263.1873	1316.1213	1396.2452	1412.6304	1433.0744	1454.7413	1484.3131	1485.8499	1492.5254	1499.2259	1500.9945	3018.6516	3026.0601	3043.2014	3074.7314	3085.056	3087.7158	3094.9603	3117.5682	3175.5594	3186.1703	3207.5319
CC12C3CN4C1C4(C)C23	C[C@@]12[C@H]3CN4[C@@H]1[C@@]4(C)[C@@H]23	
InChI=1S/C8H11N/c1-7-4-3-9-6(7)8(9,2)5(4)7/h4-6H,3H2,1-2H3	InChI=1S/C8H11N/c1-7-4-3-9-6(7)8(9,2)5(4)7/h4-6H,3H2,1-2H3/t4-,5+,6-,7-,8+,9?/m0/s1
