18
gdb 123423	4.6956	0.98623	0.91886	0.7309	77.88	-0.2551	0.0017	0.2568	1306.9033	0.150406	-398.121552	-398.113712	-398.112768	-398.155404	28.812	
C	-0.0658957887	 1.5567027912	-0.2410745445	-0.174496
C	-0.1358419463	 0.0466496053	-0.2493543514	 0.019813
C	-0.1062668884	-0.7093051562	 1.0530795295	-0.249899
C	-1.3839470995	-0.6329138979	 0.2559340414	-0.270891
N	 1.2935163507	 2.0564267829	-0.0748163213	 0.159474
N	 1.7986708813	 2.3448874514	 1.1192547435	-0.227912
C	 3.0643266888	 2.6771754582	 0.8517632629	-0.060497
C	 3.2720909137	 2.5647484067	-0.5281755116	-0.0603
N	 2.1322479516	 2.1652542376	-1.0981362109	-0.232376
H	-0.4428802899	 1.9737340343	-1.1782686091	 0.136529
H	-0.6472764514	 1.9667452368	 0.5876769501	 0.132722
H	 0.3659581084	-0.4122516524	-1.0955936941	 0.103243
H	 0.4275430001	-1.6522459594	 1.0825511549	 0.117029
H	-0.0369793827	-0.1299955609	 1.9673416169	 0.129921
H	-2.1846619294	-0.0073212125	 0.6372516023	 0.114195
H	-1.7269187052	-1.5205022696	-0.2633376691	 0.117794
H	 3.7375116943	 2.979114287	 1.63798195	 0.122851
H	 4.1531622027	 2.7536312975	-1.1202846795	 0.1228
40.3249	67.2878	107.346	260.1373	312.2121	380.3595	421.9253	681.9692	695.6926	757.1553	778.5054	812.4704	845.4712	849.6875	894.0862	908.6245	956.911	982.288	999.5715	1005.0373	1059.8372	1081.1426	1101.989	1119.7947	1139.5488	1196.894	1208.6527	1226.996	1256.8308	1295.0168	1360.7329	1380.1631	1392.9139	1422.2542	1447.6081	1465.5059	1474.354	1503.4715	1509.1426	3072.5614	3126.4949	3133.4644	3140.8907	3161.7636	3213.0307	3229.0432	3262.9578	3280.6465
C(C1CC1)N1N=CC=N1	C(C1CC1)n1nccn1	
InChI=1S/C6H9N3/c1-2-6(1)5-9-7-3-4-8-9/h3-4,6H,1-2,5H2	InChI=1S/C6H9N3/c1-2-6(1)5-9-7-3-4-8-9/h3-4,6H,1-2,5H2
