21
gdb 116241	2.06246	1.45797	1.06225	1.7092	83.21	-0.2518	0.039	0.2908	1243.9959	0.181832	-387.065306	-387.055643	-387.054698	-387.100688	35.396	
C	 0.2350827576	 1.628937982	 0.1997567221	-0.388997
C	 0.1545697683	 0.1007801191	 0.1173063945	-0.200276
C	 0.6537245933	-0.4715761633	-1.2092298366	 0.027885
C	 0.6068284557	-2.006366743	-1.3173883716	-0.266332
C	 0.5985301684	-2.2597501836	-2.8377559275	-0.075535
O	 0.3147971405	-1.0044499137	-3.4716222119	-0.254507
C	-0.123794033	-0.0707206714	-2.4897300868	-0.079768
C	-1.583856994	-0.1043480821	-2.3224325204	 0.357785
C	-2.7790531733	-0.139905246	-2.1927671908	-0.494723
H	 1.2568514643	 1.9853690257	 0.0266344027	 0.112397
H	-0.4159636477	 2.1022541521	-0.5423427983	 0.125154
H	-0.0779792588	 1.985562741	 1.1857290237	 0.114064
H	 0.7485738748	-0.3404280622	 0.9274120745	 0.094242
H	-0.8801510166	-0.2224335455	 0.2794296593	 0.110801
H	 1.6858358864	-0.1374894784	-1.37750764	 0.080381
H	 1.4509209379	-2.4866192075	-0.8166667177	 0.105142
H	-0.3124433853	-2.3815844214	-0.8563364124	 0.114004
H	 1.5700212888	-2.6011100629	-3.212226575	 0.105073
H	-0.156145786	-3.0019757423	-3.1253062336	 0.104011
H	 0.1679602339	 0.9212950729	-2.8497929112	 0.109939
H	-3.8359804352	-0.1667566096	-2.090897713	 0.19926
37.9058	72.0294	120.2582	150.7751	194.8555	224.6857	264.1924	358.3698	404.0422	495.1805	566.9471	618.101	628.6755	662.4672	718.0977	786.3912	831.6432	879.743	913.2708	925.7022	964.1691	987.0565	1008.9872	1047.2779	1073.5013	1108.6368	1149.8089	1163.2441	1208.2202	1232.8588	1270.6655	1288.6642	1298.5507	1346.1096	1351.7096	1372.3935	1384.0881	1399.3343	1412.3809	1485.3999	1492.7964	1500.3608	1506.828	1528.3938	2225.2101	3020.0125	3022.453	3027.5228	3031.5203	3052.9663	3057.3611	3061.4076	3066.7723	3099.7068	3105.9843	3107.8252	3501.505
CCC1CCOC1C#C	CC[C@H]1CCO[C@H]1C#C	
InChI=1S/C8H12O/c1-3-7-5-6-9-8(7)4-2/h2,7-8H,3,5-6H2,1H3	InChI=1S/C8H12O/c1-3-7-5-6-9-8(7)4-2/h2,7-8H,3,5-6H2,1H3/t7-,8-/m0/s1
