13
gdb 17011	6.41014	1.40406	1.34472	1.3804	63.13	-0.2672	-0.0152	0.252	878.1395	0.096375	-361.437052	-361.430665	-361.429721	-361.467666	23.949	
N	-0.0542440277	-1.1710361119	-0.0741581673	-0.325304
C	-0.0213360191	-0.0164102346	-0.0215861113	 0.275784
C	-0.0067840003	 1.4367822809	 0.0186504376	-0.155426
C	 0.0485839865	 2.1201036108	 1.4402055878	-0.168211
C	 1.5419263809	 1.6418643804	 1.5129444818	-0.252777
C	 1.4032937862	 2.1455107971	 0.0326760431	-0.168209
C	 0.6361921238	 3.3196420001	 0.6714858606	 0.441331
O	 0.5700718259	 4.5047967092	 0.6292410946	-0.302753
H	-0.7420759343	 1.8381686949	-0.681803598	 0.138305
H	-0.715105559	 2.0772104172	 2.2117226535	 0.118015
H	 2.2117587505	 2.1988954333	 2.1676954589	 0.130333
H	 1.6689489446	 0.5637682278	 1.6157385927	 0.150895
H	 2.1455694021	 2.1308631948	-0.7604900737	 0.118015
134.0468	154.5426	222.0838	439.5252	441.9682	528.2528	557.5277	705.2559	724.8852	773.2954	781.7854	876.7401	915.3157	961.6828	1020.7324	1031.8862	1037.1462	1070.8958	1120.1346	1144.2321	1174.959	1186.0954	1217.0376	1223.1691	1368.5563	1516.6042	1936.2152	2354.1705	3088.6129	3096.9282	3162.9806	3167.2918	3169.0817
N#CC1C2CC1C2=O	N#C[C@H]1[C@H]2C[C@@H]1C2=O	
InChI=1S/C6H5NO/c7-2-5-3-1-4(5)6(3)8/h3-5H,1H2	InChI=1S/C6H5NO/c7-2-5-3-1-4(5)6(3)8/h3-5H,1H2/t3-,4+,5+
