18
gdb 51193	3.94005	1.25681	1.16468	3.6384	76.46	-0.241	0.027	0.268	1089.6782	0.14878	-401.920828	-401.913238	-401.912294	-401.953921	29.584	
O	-0.1761551779	 0.1145228202	-0.6122408815	-0.314704
C	-0.0516097433	 1.2075722765	-0.1051552949	 0.130479
N	 1.1271144261	 1.7929714659	 0.2528382978	-0.419338
C	 2.4172812258	 1.1865275089	 0.1447225361	 0.397943
C	 3.1337232565	 0.5534019208	 1.3765517587	-0.271452
C	 4.4332645412	 0.9018477886	 0.6539741623	-0.056644
C	 4.1930407318	 0.6886556383	-0.8490745756	-0.068534
C	 2.7495126519	 0.2200791013	-1.0222175794	-0.241862
C	 3.7647315874	 1.9701925517	-0.1761522938	-0.153066
H	-0.9116625529	 1.8725585163	 0.1157386963	 0.073287
H	 1.0681285283	 2.6658583756	 0.7555250441	 0.24384
H	 3.0017275106	 1.1681662109	 2.2723860598	 0.090931
H	 2.9046335717	-0.4933884417	 1.6048976058	 0.100186
H	 5.4348853936	 0.9205669251	 1.0621810472	 0.089157
H	 5.023092898	 0.5518131021	-1.5296634259	 0.089507
H	 2.4972848069	-0.8333647065	-0.880280842	 0.108428
H	 2.3253854211	 0.5771468986	-1.9626099484	 0.111668
H	 3.9944126435	 3.0090158772	-0.3651835966	 0.090172
22.662	163.0138	193.3598	299.1251	379.3294	439.5491	455.9027	528.6683	575.955	715.8026	739.09	778.5385	797.5208	815.2672	916.7374	923.5464	952.4238	968.191	985.8225	1005.8546	1024.8101	1028.5418	1040.8707	1092.3435	1101.7539	1127.8636	1156.2999	1168.544	1178.7829	1244.1569	1253.3731	1295.815	1327.4308	1364.626	1437.0939	1488.5311	1507.2451	1519.619	1807.822	2922.1363	3035.5154	3070.2966	3092.906	3128.3295	3198.2046	3204.031	3222.4039	3611.0526
O=CNC12CC3C(C1)C23	O=CN[C@@]12C[C@H]3[C@@H](C1)[C@@H]23	
InChI=1S/C7H9NO/c9-3-8-7-1-4-5(2-7)6(4)7/h3-6H,1-2H2,(H,8,9)	InChI=1S/C7H9NO/c9-3-8-7-1-4-5(2-7)6(4)7/h3-6H,1-2H2,(H,8,9)/t4-,5+,6-,7-
