13
gdb 48298	3.18582	0.86261	0.70425	2.9778	64.57	-0.3002	-0.0714	0.2288	1468.0382	0.085829	-452.741402	-452.732039	-452.731095	-452.777576	30.285	
O	-0.4661825369	 0.500197772	 0.7520661453	-0.204956
C	-0.042816964	 1.137500855	-0.1648840758	 0.147846
C	 1.3213423037	 1.8666225624	-0.1362670147	-0.099437
O	 1.3091998342	 2.7720472394	-1.2138881157	-0.238891
C	 2.5572088999	 3.4025342465	-1.4578693277	-0.205965
C	 2.4364318536	 4.2156732815	-2.6677655755	 0.277303
N	 2.3714426696	 4.862286626	-3.621425389	-0.27773
C	 1.568951768	 2.5202686121	 1.1589382784	 0.289695
N	 1.7913060092	 3.06935601	 2.1503212624	-0.303758
H	-0.5586707744	 1.2555229422	-1.1387221957	 0.131219
H	 2.0958213659	 1.0915135417	-0.2778931055	 0.152983
H	 2.8488237542	 4.0451878007	-0.615595064	 0.177246
H	 3.3527884169	 2.6562634605	-1.6048338725	 0.154447
44.3014	51.3625	92.8751	115.2846	154.2779	229.2359	263.3096	365.4994	381.6326	425.4893	528.8442	582.4357	696.6543	785.91	956.3321	1000.223	1024.0322	1033.439	1086.1885	1151.2018	1260.12	1275.1066	1320.9605	1384.9868	1423.5207	1494.2879	1861.3072	2361.4765	2378.8059	2948.4526	2957.5229	2997.9226	3041.5106
O=CC(OCC#N)C#N	O=C[C@@H](OCC#N)C#N	
InChI=1S/C5H4N2O2/c6-1-2-9-5(3-7)4-8/h4-5H,2H2	InChI=1S/C5H4N2O2/c6-1-2-9-5(3-7)4-8/h4-5H,2H2/t5-/m0/s1
