21
gdb 109699	1.9219	1.43824	1.03259	2.8689	78.83	-0.2372	0.0641	0.3014	1260.2696	0.181398	-424.179731	-424.169992	-424.169047	-424.214626	35.336	
C	-0.5383129054	 1.2394345593	-1.9163511351	-0.414437
C	-0.2775036245	-0.0576910069	-1.1791397812	-0.096187
C	 1.117310117	-0.5683988844	-0.8386851851	-0.133949
C	 2.3816285221	 0.1931157268	-1.1697063603	-0.082915
O	 3.3710271682	 0.0928641723	-0.1505035373	-0.412644
C	 0.198412145	-0.078706759	 0.2425274864	 0.28184
C	 0.4207557269	 1.0822547133	 1.211043997	-0.143844
O	-0.1325654054	 0.3028417122	 2.2970640167	-0.277772
C	-0.3653648153	-0.8347993775	 1.4402336773	-0.141598
H	 0.1221101286	 2.0462352652	-1.5871115064	 0.122887
H	-0.4049181111	 1.1192241791	-2.9968423886	 0.121382
H	-1.5668509014	 1.5749698547	-1.7447487232	 0.123601
H	-0.9834810217	-0.8469881639	-1.4316469446	 0.085755
H	 1.2337826012	-1.6509810157	-0.8981985532	 0.076832
H	 2.7803369436	-0.1447918306	-2.1391453696	 0.092123
H	 2.1804365204	 1.2634522944	-1.2648519021	 0.108279
H	 3.5368434384	-0.8417264099	 0.0094063806	 0.281415
H	 1.4683834111	 1.3497320854	 1.389914252	 0.121926
H	-0.1658943815	 1.9916366354	 1.0235307444	 0.095341
H	-1.4310136657	-1.0977317589	 1.385325275	 0.097165
H	 0.2038692896	-1.7175795211	 1.7635449472	 0.094801
73.525	105.405	127.3842	165.2624	172.9292	205.0602	236.0444	287.78	359.6363	432.6676	481.1199	513.9246	612.9044	770.8083	821.0137	865.8525	934.1852	951.9551	975.4938	991.7094	1026.0096	1031.5426	1053.3024	1072.5717	1112.2708	1132.1039	1138.2767	1141.6909	1155.7571	1176.0075	1200.7269	1246.7999	1307.9633	1314.4752	1362.8751	1377.6541	1385.1018	1414.3139	1427.5107	1477.9252	1493.8564	1506.8181	1507.854	1510.7121	1535.2704	2980.9991	2989.4435	3008.0959	3029.4525	3033.462	3063.6363	3084.7405	3092.0029	3101.1095	3106.1869	3125.5461	3815.7203
CC1C(CO)C11COC1	C[C@H]1[C@@H](CO)C21COC2	
InChI=1S/C7H12O2/c1-5-6(2-8)7(5)3-9-4-7/h5-6,8H,2-4H2,1H3	InChI=1S/C7H12O2/c1-5-6(2-8)7(5)3-9-4-7/h5-6,8H,2-4H2,1H3/t5-,6+/m0/s1
