21
gdb 95957	2.49399	1.46705	1.11408	1.7428	77.13	-0.2462	0.0627	0.309	1160.2616	0.183496	-424.205802	-424.197207	-424.196263	-424.240676	32.221	
C	-0.127225227	 1.5522847496	-0.1982553306	-0.416538
C	 0.0320504545	 0.0373212934	-0.0732449269	-0.078883
C	 0.9176133953	-0.5742188873	-1.1805737573	-0.091652
O	 1.4967637749	-1.7365044731	-0.6137693338	-0.241513
C	 1.8528907551	-1.3610176746	 0.7038821411	-0.149332
C	 0.6957645418	-0.4901509485	 1.2335806767	 0.273223
C	 1.0709500938	 0.4428794765	 2.4101563265	-0.131537
O	 0.3037739168	-0.3412303537	 3.3440156216	-0.27346
C	-0.2257691462	-1.1578624273	 2.2829267723	-0.119612
H	 0.836547429	 2.0662679548	-0.1107212178	 0.118515
H	-0.5521714778	 1.8129698347	-1.1736009821	 0.119238
H	-0.7956563687	 1.9571261718	 0.5675956743	 0.12525
H	-0.9611122765	-0.4218756296	-0.1423311198	 0.0823
H	 0.3635740375	-0.8695097586	-2.0751312683	 0.110259
H	 1.7023928897	 0.143179713	-1.4796319953	 0.082943
H	 2.0263145742	-2.2692219146	 1.2872604315	 0.114533
H	 2.7867493699	-0.7709173296	 0.6980325102	 0.083677
H	 2.1370077111	 0.4684248477	 2.6726102329	 0.098014
H	 0.7007717731	 1.4732942037	 2.3425097075	 0.098043
H	-1.2984930762	-0.9754172567	 2.1264426429	 0.093574
H	-0.0700700842	-2.2292988115	 2.4626060142	 0.102956
14.2866	75.9971	224.5068	242.8008	269.435	281.2327	352.7308	391.3893	453.868	498.5438	624.6894	703.7749	850.0288	868.2124	908.0437	934.3678	955.1037	968.2617	984.7604	989.6022	1041.5514	1044.9172	1097.1437	1119.4806	1141.3453	1157.7706	1161.4016	1168.2789	1204.9366	1232.7396	1248.2366	1286.2049	1309.2669	1327.6551	1349.8299	1371.1307	1380.9312	1402.9944	1415.3941	1496.1654	1498.9931	1502.0571	1511.344	1519.0378	1537.366	2941.4577	2950.2056	2990.6693	3008.1465	3028.3058	3030.64	3043.1684	3049.1171	3090.2033	3093.6789	3097.7056	3104.2014
CC1COCC11COC1	C[C@H]1COCC21COC2	
InChI=1S/C7H12O2/c1-6-2-8-3-7(6)4-9-5-7/h6H,2-5H2,1H3	InChI=1S/C7H12O2/c1-6-2-8-3-7(6)4-9-5-7/h6H,2-5H2,1H3/t6-/m0/s1
