13
gdb 123282	9.41343	0.68285	0.63666	3.237	94.91	-0.2247	-0.0352	0.1896	1630.1539	0.090216	-378.440048	-378.432336	-378.431392	-378.472727	28.515	
C	 0.0245828577	-3.7387357487	-0.0178042288	-0.603768
C	 0.0144367649	-2.5303709999	-0.0110836053	 0.262642
C	 0.0051548417	-1.1726461098	-0.0035489139	-0.020643
C	-0.0075012885	 0.0398759692	 0.0032479452	 0.343915
C	 0.0246932009	 1.4513888109	 0.0106238714	 0.08429
N	-1.1033020761	 2.1812905415	 0.0292873096	-0.278278
N	-0.6720301272	 3.4480615505	 0.0306698495	-0.190942
C	 0.6802655888	 3.5663550966	 0.0137619498	-0.027465
C	 1.176556633	 2.2852702754	 0.0002615663	-0.303949
H	 0.0300274815	-4.8002594372	-0.0236819209	 0.189612
H	-1.3542284312	 4.1878889171	 0.0435754439	 0.282538
H	 1.166814278	 4.5285880607	 0.0127494814	 0.141722
H	 2.2077345665	 1.9756428938	-0.0148343881	 0.120327
75.537	86.4258	225.4345	232.0428	436.7973	447.0754	489.2205	519.0357	526.5732	546.3298	599.9186	600.4812	664.5982	735.8711	775.8068	856.8412	927.1956	947.7295	1041.6235	1083.2355	1121.3489	1213.4606	1314.6919	1367.9003	1470.7794	1483.9214	1555.5653	2180.85	2346.8799	3264.5986	3287.9351	3505.5049	3669.0101
C#CC#CC1=NNC=C1	C#CC#Cc1n[nH]cc1	
InChI=1S/C7H4N2/c1-2-3-4-7-5-6-8-9-7/h1,5-6H,(H,8,9)	InChI=1S/C7H4N2/c1-2-3-4-7-5-6-8-9-7/h1,5-6H,(H,8,9)
