17
gdb 103403	2.56994	1.51748	1.33488	2.6091	69.26	-0.2436	-0.0083	0.2352	1021.5842	0.136027	-455.088837	-455.080635	-455.079691	-455.121338	31.679	
O	-0.0335279621	 1.4362911277	-0.0394129911	-0.430842
C	 0.0851945487	 0.0200737684	-0.0906323638	-0.135015
C	-1.3225241826	-0.5633624953	-0.0123568647	 0.348098
O	-2.1043856221	-0.0732151549	-1.0764526301	-0.475329
C	-1.6048078754	-2.058271205	 0.1809627327	-0.085849
C	-1.1261117017	-2.5563753883	 1.4773182701	-0.261765
N	-2.4097367367	-1.7923856293	 1.469882169	-0.176351
C	-2.0160631138	-0.4004241523	 1.3462389795	 0.325571
N	-2.2203310442	 0.6174900966	 2.0552841524	-0.551318
H	-0.4756669977	 1.6525510244	 0.7957479071	 0.305577
H	 0.5447606743	-0.224511021	-1.0536126196	 0.119093
H	 0.7300801053	-0.3645652379	 0.7114851818	 0.093147
H	-1.8776330014	 0.8654325605	-1.1438480047	 0.293568
H	-2.0140709605	-2.6894171758	-0.5975330084	 0.125165
H	-1.2792267493	-3.6067485225	 1.7028814418	 0.142349
H	-0.2597937474	-2.114170903	 1.9612861779	 0.131055
H	-2.7678517334	 0.3952668177	 2.8910199301	 0.232848
122.1625	135.0255	194.0787	222.3573	297.2937	322.1668	422.9759	457.3844	484.4887	492.0779	597.5652	678.8511	705.4292	744.2237	769.7168	839.7508	896.9981	937.478	970.2593	988.0089	1045.5453	1053.6194	1069.798	1118.1501	1131.8405	1142.6618	1185.7969	1215.2086	1245.5838	1297.1584	1345.5439	1364.0048	1428.816	1444.4225	1494.5042	1507.4842	1801.956	3009.5946	3084.0972	3121.7807	3203.9834	3213.584	3441.1128	3717.3538	3746.9555
OCC1(O)C2CN2C1=N	OC[C@@]1(O)[C@H]2CN2[C]1[NH]	
InChI=1S/C5H8N2O2/c6-4-5(9,2-8)3-1-7(3)4/h3,6,8-9H,1-2H2	InChI=1S/C5H8N2O2/c6-4-5(9,2-8)3-1-7(3)4/h3,6,8-9H,1-2H2/t3-,5-,7?/m1/s1
