20
gdb 116795	8.63404	0.42026	0.41381	2.9486	91.1	-0.2379	0.0193	0.2572	2641.511	0.167462	-403.12004	-403.108558	-403.107614	-403.159993	37.376	
C	-0.007824791	 1.3851930247	 0.0486186501	-0.24914
O	 0.0519073343	-0.0345869235	-0.0139650556	-0.191447
C	-1.1361701111	-0.6683609118	 0.0052661186	 0.12533
N	-1.1966357217	-1.9234895702	-0.0538394336	-0.205881
C	-2.5117314258	-2.5308223972	-0.0329251439	-0.148361
C	-2.7243092257	-3.3782114047	-1.305731195	-0.334647
C	-4.004653244	-4.0755425013	-1.3066304782	 0.045977
C	-5.069422917	-4.6374152894	-1.2767326181	 0.076731
C	-6.3524245467	-5.3260464277	-1.2548434977	-0.496332
H	 1.024462337	 1.736563601	 0.0364719589	 0.147439
H	-0.5390655234	 1.8041554861	-0.8147127434	 0.127624
H	-0.491901024	 1.7272178087	 0.9715234641	 0.127761
H	-2.0096472174	-0.0003685178	 0.0808990669	 0.073572
H	-2.5792364428	-3.1936812903	 0.8375730821	 0.116644
H	-3.3280998081	-1.7941759027	 0.0537223367	 0.08866
H	-2.647956812	-2.7222918378	-2.1823204951	 0.122145
H	-1.8953060122	-4.0913215542	-1.3861868819	 0.138525
H	-6.5270581463	-5.8719061842	-2.1888510269	 0.146289
H	-6.403151231	-6.0515565441	-0.4351905045	 0.145355
H	-7.1826197311	-4.6227155437	-1.1245202634	 0.143758
18.3214	42.7156	46.933	60.2397	102.4447	148.9274	188.5619	223.9734	265.5595	286.9413	367.5582	393.1474	443.4698	492.196	606.1283	783.4057	791.1125	983.0607	1025.8754	1040.9599	1053.6808	1054.5917	1059.1713	1100.8879	1166.8352	1176.8793	1179.5223	1218.0767	1279.2158	1301.3248	1309.998	1381.2341	1414.3078	1415.9801	1476.335	1479.4517	1480.2797	1485.2499	1494.9372	1500.4233	1502.4921	1774.3624	2373.609	2961.1134	2984.0377	3015.3769	3024.588	3024.6941	3048.5072	3067.9376	3077.0061	3083.6507	3084.5017	3145.5251
COC=NCCC#CC	COC=NCCC#CC	
InChI=1S/C7H11NO/c1-3-4-5-6-8-7-9-2/h7H,5-6H2,1-2H3	InChI=1S/C7H11NO/c1-3-4-5-6-8-7-9-2/h7H,5-6H2,1-2H3
