17
gdb 74502	3.65469	1.17923	0.99464	2.2141	82.24	-0.2392	-0.0073	0.2318	1214.4444	0.134095	-384.651813	-384.643499	-384.642554	-384.684409	32.155	
C	 0.1044866106	 1.5140869512	 0.0788880669	-0.487584
C	-0.015076266	 0.026170647	 0.0055447536	 0.312066
C	-0.1619339695	-0.7217607488	-1.0941188511	-0.278017
C	-0.1435371928	-2.1800547913	-0.760229053	 0.265604
O	 1.1138385458	-2.5978420348	-0.1447802232	-0.297307
C	 0.0286531631	-2.2615677706	 0.7118878559	-0.04188
C	 0.0644229374	-0.8404209748	 1.2544144752	-0.340732
C	-0.8174663202	-3.1534745701	-1.5667890455	 0.21941
C	-1.3918843652	-3.9398621916	-2.2715878527	-0.386686
H	 1.0801695683	 1.811229351	 0.483709579	 0.133824
H	-0.0083526151	 1.9752426978	-0.9055743551	 0.129644
H	-0.6535617951	 1.9400713735	 0.7483157119	 0.12783
H	-0.2482539732	-0.3559770831	-2.109291474	 0.103187
H	-0.3743628028	-3.0796897367	 1.3025765971	 0.10625
H	 0.9809794275	-0.651905092	 1.8270861181	 0.12671
H	-0.7791936055	-0.6511855196	 1.9310836731	 0.115019
H	-1.8967233673	-4.6438280369	-2.8859085262	 0.192663
117.7172	140.9076	179.5796	195.1885	315.2453	346.6995	419.122	479.9579	490.2533	516.4973	584.9811	613.3808	649.0599	663.5962	740.1685	808.4181	866.8202	880.2501	911.7851	968.8165	992.8045	1014.2003	1044.4275	1087.2088	1152.5337	1192.948	1216.3594	1282.6199	1309.2658	1330.5189	1408.1371	1415.1497	1458.2789	1478.7216	1485.9995	1698.8696	2243.1371	3019.0245	3025.9599	3061.139	3066.838	3116.1169	3154.0277	3216.0607	3502.1854
CC1=CC2(OC2C1)C#C	CC1=C[C@]2(O[C@H]2C1)C#C	
InChI=1S/C8H8O/c1-3-8-5-6(2)4-7(8)9-8/h1,5,7H,4H2,2H3	InChI=1S/C8H8O/c1-3-8-5-6(2)4-7(8)9-8/h1,5,7H,4H2,2H3/t7-,8+/m0/s1
