23
gdb 105237	2.16599	1.27276	1.11623	2.1692	82.12	-0.2271	0.0701	0.2972	1284.4591	0.202226	-425.395772	-425.384888	-425.383944	-425.431124	40.397	
C	 0.4620269986	-0.3063066123	 1.2518509386	-0.243263
O	-0.0078826188	-0.0597032182	-0.0561201448	-0.296059
C	 0.705252959	-0.5631737374	-1.1512270926	 0.436009
C	 1.9906315758	-1.3507399416	-0.9963841319	-0.421879
C	 0.7080757587	-2.043622368	-1.4321430599	 0.042433
O	 0.0373269617	-2.8556621258	-0.5128806544	-0.420716
C	 0.5786070199	 0.3908697564	-2.3333877046	-0.004731
C	-0.8932664542	 0.591609718	-2.7221981938	-0.391417
C	 1.2716983329	 1.7276288112	-2.0355699516	-0.393581
H	 0.4581952988	-1.3743555698	 1.4971248333	 0.120186
H	 1.4715531802	 0.0991067279	 1.4087225005	 0.103822
H	-0.2287210621	 0.2122516607	 1.921884073	 0.121988
H	 2.7846976419	-1.1898858626	-1.7190276032	 0.110217
H	 2.3345339192	-1.5887395798	 0.003388046	 0.115977
H	 0.6243678028	-2.3622412572	-2.4720216885	 0.082921
H	 0.5274991317	-3.6810693061	-0.4332334817	 0.287254
H	 1.0951043486	-0.0842655268	-3.1782816062	 0.064909
H	-0.9779987183	 1.2514558975	-3.5916179921	 0.102333
H	-1.3706876821	-0.3617621908	-2.969949481	 0.112615
H	-1.4501175247	 1.0394598921	-1.8948991282	 0.132835
H	 2.3326817493	 1.5844203279	-1.8053741828	 0.106266
H	 1.1999000126	 2.4043792986	-2.8929056483	 0.105304
H	 0.8024225485	 2.2149469461	-1.1760961256	 0.126577
76.4089	96.1891	158.1821	190.5739	202.9032	213.3112	245.7008	254.1293	288.2827	301.7444	324.4858	364.2432	445.6298	472.5752	547.0518	613.6829	675.8364	809.3611	865.1108	895.8832	926.1519	935.5816	971.02	980.6918	1027.7684	1072.2699	1091.4571	1137.4056	1143.1362	1158.8577	1174.7633	1197.6924	1216.4169	1257.7681	1266.3297	1314.7121	1344.1683	1379.3966	1392.5804	1413.5424	1422.8861	1476.1654	1483.3523	1484.1776	1491.6522	1494.0332	1499.7218	1515.7173	1518.4705	2996.938	3013.3872	3033.9971	3038.608	3068.4786	3086.963	3099.5928	3103.0126	3112.4365	3114.4316	3122.1013	3128.9098	3221.0961	3797.6985
COC1(CC1O)C(C)C	CO[C@]1(C[C@H]1O)C(C)C	
InChI=1S/C7H14O2/c1-5(2)7(9-3)4-6(7)8/h5-6,8H,4H2,1-3H3	InChI=1S/C7H14O2/c1-5(2)7(9-3)4-6(7)8/h5-6,8H,4H2,1-3H3/t6-,7-/m1/s1
