20
gdb 17827	4.26947	1.25908	1.09553	1.3927	75.8	-0.2502	0.081	0.3312	1141.4884	0.177436	-348.973643	-348.96547	-348.964526	-349.006584	31.096	
O	-0.0383276993	 1.5112820094	 0.2291895458	-0.418061
C	 0.0206123305	 0.1211801633	 0.0738790449	 0.097088
C	-0.5019575553	-0.7720111806	 1.1703178043	-0.343061
C	-1.2848728135	-0.5974838829	-0.1213378771	-0.034611
C	-2.5904368742	 0.1479218998	-0.1285724139	 0.062922
C	-3.2043703884	 0.5819924949	-1.4920965618	-0.229633
C	-4.6067413286	 0.2289425527	-0.9282055749	-0.209171
C	-3.9079720567	-0.6314770273	 0.1590328369	-0.23317
H	 0.6085939109	 1.7609828705	 0.896872192	 0.286936
H	 0.8778137209	-0.2322158955	-0.4996356356	 0.082323
H	-0.0033343477	-1.7148407423	 1.3681844851	 0.10739
H	-0.900726229	-0.2746925177	 2.0491269825	 0.111331
H	-1.2499647853	-1.4391985245	-0.8101834205	 0.07738
H	-2.5167372265	 1.0174609487	 0.5300186881	 0.076294
H	-3.0212021336	 1.6055970446	-1.8267980447	 0.099474
H	-2.9102279873	-0.1036640784	-2.294198834	 0.091991
H	-5.0997484565	 1.1042102107	-0.4950073865	 0.099418
H	-5.3136439624	-0.2703630742	-1.5950792314	 0.091771
H	-3.823265813	-1.6786281253	-0.1507438703	 0.092896
H	-4.306929625	-0.6037030959	 1.1763881612	 0.090492
59.4641	118.8753	147.0144	216.2391	296.9427	353.7683	371.1204	439.1742	555.4713	641.8505	746.3627	782.6892	800.8915	843.9694	891.6228	916.5253	931.9903	951.5771	979.8565	999.6756	1024.0909	1048.7014	1056.0176	1106.997	1134.0028	1174.7147	1200.6753	1204.1218	1235.5275	1247.1843	1254.0827	1259.2552	1273.8992	1288.6657	1302.2062	1323.1327	1411.7965	1433.7685	1479.5078	1485.9962	1488.4027	1511.3756	3043.2706	3046.7027	3056.2593	3070.4656	3092.8368	3095.1909	3101.585	3115.4923	3124.4336	3127.659	3213.7346	3808.5196
OC1CC1C1CCC1	O[C@H]1C[C@H]1C1CCC1	
InChI=1S/C7H12O/c8-7-4-6(7)5-2-1-3-5/h5-8H,1-4H2	InChI=1S/C7H12O/c8-7-4-6(7)5-2-1-3-5/h5-8H,1-4H2/t6-,7-/m0/s1
