17
gdb 34320	2.33669	1.83255	1.33036	2.4064	79.72	-0.2294	0.0159	0.2453	1003.5501	0.137283	-380.812152	-380.804481	-380.803537	-380.844053	30.283	
C	-0.2180902597	-1.2861797875	-0.1503871826	-0.477534
C	-0.1527165814	-0.0877726631	-0.0731682352	 0.337948
C	-0.1081376785	 1.3564310939	 0.0127450096	 0.005059
C	-0.0869160114	 1.8903301186	 1.5031288034	-0.234923
N	 1.397425227	 2.0845107925	 1.363452023	-0.356039
C	 1.2610889351	 2.0231441808	-0.0170684748	 0.350455
N	 1.6705615877	 2.6103792335	-1.0597067384	-0.306595
C	 0.5957259733	 2.3385124034	-2.0591022989	-0.159747
C	-0.7054090288	 2.0776776463	-1.2210733032	-0.298516
H	-0.2603177728	-2.3449947721	-0.2182127964	 0.197371
H	-0.6358823931	 2.8303209317	 1.6233022399	 0.117649
H	-0.365436876	 1.1702017117	 2.2730729081	 0.128873
H	 1.8710456993	 2.873706443	 1.787960889	 0.245951
H	 0.4915756734	 3.2050758887	-2.717065445	 0.111459
H	 0.8486860812	 1.4743307106	-2.6867357664	 0.11756
H	-1.4602112274	 1.4903789929	-1.7471668032	 0.112752
H	-1.1450712178	 3.036475545	-0.9274669588	 0.108277
116.2651	145.0509	221.4292	277.3712	327.9943	386.165	496.6038	545.4015	588.9325	608.7709	639.7208	648.813	687.6097	750.6754	822.4767	855.8122	893.5681	903.604	952.291	963.2806	994.1072	1026.516	1130.9438	1134.5074	1157.9162	1194.3106	1225.001	1267.4415	1293.8369	1305.1362	1322.3955	1355.1045	1478.3984	1496.0964	1502.2571	1776.3088	2231.8508	3028.6733	3044.7434	3055.1401	3094.9006	3124.216	3132.8526	3501.8477	3554.0031
C#CC12CNC1=NCC2	C#C[C@@]12CN[C]1[N]CC2	
InChI=1S/C7H8N2/c1-2-7-3-4-8-6(7)9-5-7/h1H,3-5H2,(H,8,9)	InChI=1S/C7H8N2/c1-2-7-3-4-8-6(7)9-5-7/h1H,3-5H2,(H,8,9)/t7-/m1/s1
