22
gdb 88439	2.47983	1.15651	1.10143	1.7899	82.44	-0.234	0.0785	0.3125	1276.484	0.192563	-404.30553	-404.295464	-404.29452	-404.340438	37.926	
C	-1.8502375863	 0.2848477371	 1.7373978467	-0.394653
C	-0.898564013	-0.6631266908	 1.0488589546	 0.013194
N	-0.015162958	-0.1007810937	 0.0155847207	-0.348079
C	 0.5809732084	-0.6526083164	 1.2460855145	-0.111655
C	 1.3187798921	 0.3025669858	 2.1598454618	 0.318632
C	 1.5840154583	 1.6955603037	 1.620313451	-0.445903
C	 1.0969713542	 0.146931479	 3.659999776	-0.35961
C	 2.3917236117	-0.3012040926	 3.0355517359	 0.050237
O	 2.6544094388	-1.6683680286	 2.8905278504	-0.418655
H	-1.3679444518	 1.2362667034	 1.9699623323	 0.129212
H	-2.7165315038	 0.4922282676	 1.0997399487	 0.116084
H	-2.2185523346	-0.1483173505	 2.673900828	 0.110726
H	-1.3274691217	-1.6432518276	 0.8384700466	 0.075102
H	 0.1015756531	-0.750262779	-0.7566909654	 0.228067
H	 1.0635313465	-1.6228962794	 1.1664555706	 0.100555
H	 0.654750748	 2.2319882841	 1.4116273532	 0.128231
H	 2.1634950233	 2.28381106	 2.3394352714	 0.09919
H	 2.1442745521	 1.6487908788	 0.6816342961	 0.123138
H	 1.0915180818	 1.0338050498	 4.2858183903	 0.106674
H	 0.4154541272	-0.6378617456	 3.9732333053	 0.108603
H	 3.2791820795	 0.3073612124	 3.2111634478	 0.082454
H	 2.7493980242	-2.0488589977	 3.7694073537	 0.288455
42.9801	140.8727	163.496	185.3424	199.8918	225.6031	254.6875	287.8687	338.9832	387.3723	448.5505	457.6278	505.6165	578.5959	702.4427	787.2551	806.744	851.7628	883.411	909.5324	951.8598	972.5672	1009.6052	1016.4099	1036.7051	1042.9049	1078.1589	1107.7201	1121.2032	1148.8379	1180.0311	1194.9931	1247.0243	1264.2958	1285.3197	1294.9757	1334.4974	1398.8523	1415.7346	1421.4327	1430.7714	1460.4529	1477.9821	1482.1383	1487.0818	1498.5676	1501.6953	3035.0717	3037.3744	3092.34	3093.1995	3094.806	3105.3346	3115.3178	3120.7773	3135.1174	3146.2429	3210.2075	3507.5927	3811.7272
CC1NC1C1(C)CC1O	C[C@H]1N[C@H]1[C@@]1(C)C[C@H]1O	
InChI=1S/C7H13NO/c1-4-6(8-4)7(2)3-5(7)9/h4-6,8-9H,3H2,1-2H3	InChI=1S/C7H13NO/c1-4-6(8-4)7(2)3-5(7)9/h4-6,8-9H,3H2,1-2H3/t4-,5-,6-,7+/m1/s1
