16
gdb 67770	3.49029	1.67848	1.40626	2.1527	74.25	-0.2441	-0.0301	0.214	936.7109	0.125309	-396.887614	-396.880611	-396.879667	-396.918679	28.044	
C	-0.0360434644	 1.4249526468	-0.0551288803	-0.482541
C	 0.0051095143	-0.0733975202	 0.0522074759	 0.33342
N	-1.1992933101	-0.8031067093	-0.3412988593	-0.226525
C	-1.0567360965	-1.9681067647	 0.1442059402	-0.005407
N	 0.1828789728	-2.2161238903	 0.8670074759	-0.224582
C	 0.6685206738	-0.8132041804	 1.1468713318	-0.07898
C	 1.3853632683	-0.7837365899	-0.2061077293	-0.186062
C	 1.1998236274	-2.2420087733	-0.2471306947	 0.410682
N	 1.7435743947	-3.1962326333	-0.8519718523	-0.547079
H	 0.889667011	 1.8742078823	 0.3160467042	 0.123014
H	-0.1767777471	 1.7321108702	-1.0951545007	 0.143259
H	-0.8716428749	 1.8205212292	 0.5299392449	 0.13782
H	-1.748816181	-2.78838344	-0.0080627584	 0.136186
H	 0.9959972314	-0.5106355396	 2.1331817866	 0.118782
H	 2.2385128659	-0.2104021773	-0.5416241081	 0.116204
H	 1.3719231745	-4.09287061	-0.5338014865	 0.231808
152.836	201.1463	226.2439	312.5227	376.1987	434.1636	521.3547	591.6201	658.9935	722.144	750.7221	819.1233	826.7126	850.4456	868.8591	880.6174	906.3219	938.8209	948.8354	975.2416	1026.4032	1035.1983	1063.1934	1100.1665	1160.4282	1197.1397	1230.0372	1279.578	1309.0714	1386.1863	1424.3029	1480.8725	1498.8876	1657.6013	1810.2682	3043.9983	3115.2157	3119.8995	3197.4917	3212.8553	3219.9336	3472.4483
CC12N=CN3C1C2C3=N	C[C@]12[N][CH]N3[C@H]1[C@H]2[C]3[NH]	
InChI=1S/C6H7N3/c1-6-3-4(6)9(2-8-6)5(3)7/h2-4,7H,1H3	InChI=1S/C6H7N3/c1-6-3-4(6)9(2-8-6)5(3)7/h2-4,7H,1H3/t3-,4-,6+/m0/s1
