21
gdb 62644	2.76446	1.68098	1.22388	1.2866	83.35	-0.2506	0.077	0.3276	1086.9438	0.181094	-387.026282	-387.017679	-387.016735	-387.058532	34.794	
C	-0.1323752493	 1.5870313002	-0.0373579312	-0.469275
C	-0.046384677	 0.0674564125	-0.0217219151	 0.416698
O	-1.3213107167	-0.5026825252	-0.2793094806	-0.481867
C	 1.1741644243	-0.6141969672	-0.6906412837	-0.155908
C	 2.0902719808	-0.2980028961	 0.5413736183	-0.057344
C	 2.5649549678	-1.7534762684	 0.6585630186	-0.316784
C	 1.0782523945	-1.8761815481	 0.2560227029	 0.362567
C	 0.2957310059	-3.1422149719	 0.0351615527	-0.521976
C	 0.680187205	-0.6286464007	 1.1415376434	-0.120276
H	 0.8260583674	 2.0551830944	 0.2013449454	 0.121089
H	-0.4358662343	 1.9465638096	-1.0294197866	 0.103404
H	-0.8786336675	 1.9317420436	 0.6855155609	 0.124199
H	-1.6710543104	-0.1011675969	-1.0817359563	 0.273677
H	 1.4823931393	-0.6151847616	-1.7393237692	 0.057553
H	 2.6552617976	 0.620106533	 0.7022602247	 0.068063
H	 3.3029813666	-2.0934189649	-0.076637423	 0.085246
H	 2.8330478928	-2.1071418919	 1.6605291099	 0.086245
H	 0.2923927344	-3.7574985552	 0.942559628	 0.11173
H	-0.7377206668	-2.918280264	-0.2354785311	 0.140247
H	 0.7469402999	-3.7406991547	-0.7652129241	 0.10905
H	 0.4138281056	-0.6454141966	 2.2005247861	 0.063663
184.3479	201.7385	202.6873	227.9381	268.699	307.3146	313.2068	363.0914	388.2509	488.0759	532.1126	619.0485	669.7799	730.9243	816.3584	844.5673	856.8088	889.7489	894.8218	949.911	952.9538	988.2821	1018.1335	1044.6853	1057.1818	1088.2523	1110.4315	1141.9014	1147.3531	1154.28	1164.1835	1194.0792	1207.1617	1223.1117	1266.4112	1290.1816	1337.5945	1389.9602	1405.45	1410.7805	1488.2782	1489.6399	1495.9616	1499.5803	1513.9406	3020.9262	3024.2979	3027.1056	3078.9649	3079.446	3081.7301	3086.4568	3091.1362	3110.8125	3119.9916	3134.9376	3805.9595
CC1(O)C2C3CC2(C)C13	C[C@@]1(O)[C@H]2[C@@H]3C[C@@]2(C)[C@H]13	
InChI=1S/C8H12O/c1-7-3-4-5(7)8(2,9)6(4)7/h4-6,9H,3H2,1-2H3	InChI=1S/C8H12O/c1-7-3-4-5(7)8(2,9)6(4)7/h4-6,9H,3H2,1-2H3/t4-,5-,6+,7+,8+
