23
gdb 86435	1.68453	1.60032	0.8704	1.4202	89.08	-0.2307	0.0286	0.2593	1401.1066	0.205675	-388.321183	-388.311504	-388.31056	-388.355166	37.415	
C	-0.0623131993	 1.5546180095	-0.026884658	-0.39707
C	-0.0014949498	 0.0188576486	-0.0136413474	-0.029048
C	 0.6639410554	-0.5276457308	-1.2862184895	-0.194781
C	 0.9790083305	-2.0116251989	-1.1505549851	 0.106791
O	 1.5002382857	-2.4577908822	-2.3970494556	-0.440092
C	 1.9662086212	-2.2393818141	-0.0004301868	-0.318364
C	 1.5848006696	-1.4863305951	 1.2559999159	 0.290984
C	 2.2649348131	-1.9253898694	 2.5243259327	-0.474796
C	 0.695644853	-0.4900912775	 1.2260309168	-0.125045
H	 0.9450291463	 1.9852580664	-0.0366966881	 0.11646
H	-0.5938050886	 1.917551076	-0.9128738735	 0.111295
H	-0.5815500323	 1.9383136332	 0.8577457349	 0.109439
H	-1.0423266096	-0.3432808233	 0.0109368344	 0.079289
H	 0.0221008138	-0.3672724134	-2.1587142402	 0.098462
H	 1.6022642161	 0.01040271	-1.4747355241	 0.09847
H	 0.0422627278	-2.5476833105	-0.9201702285	 0.062859
H	 1.7189496293	-3.3912567888	-2.3103674239	 0.277458
H	 2.0425548081	-3.3137148584	 0.2235352763	 0.085281
H	 2.9674220104	-1.9325317241	-0.3373264685	 0.11238
H	 3.3570425697	-1.8603477783	 2.4299229411	 0.121384
H	 1.9618537669	-1.3151811694	 3.3793849771	 0.119097
H	 2.0372061902	-2.9745105486	 2.7546128048	 0.118986
H	 0.4421508226	 0.0162762189	 2.156892355	 0.070559
99.9196	146.5898	160.1312	207.4883	249.3844	270.6481	278.6052	294.5574	406.2058	426.8378	432.191	451.4721	481.2446	526.1747	596.3393	839.0029	862.9155	882.7888	890.5312	923.9002	971.5618	992.8271	1007.1127	1047.6238	1064.5348	1090.2479	1099.5928	1116.0819	1150.9362	1179.0762	1198.2357	1245.6312	1269.7543	1310.1696	1316.5039	1343.9834	1357.9528	1380.2109	1391.3589	1409.7411	1413.463	1442.3241	1475.9229	1479.726	1489.535	1495.3007	1498.5693	1501.3468	1737.3409	2948.9143	2964.6453	2992.7825	3011.7531	3021.8815	3026.2515	3029.599	3056.0303	3078.5387	3097.3802	3099.5629	3108.6859	3128.1911	3813.1856
CC1CC(O)CC(C)=C1	C[C@H]1C[C@@H](O)CC(=C1)C	
InChI=1S/C8H14O/c1-6-3-7(2)5-8(9)4-6/h3,6,8-9H,4-5H2,1-2H3	InChI=1S/C8H14O/c1-6-3-7(2)5-8(9)4-6/h3,6,8-9H,4-5H2,1-2H3/t6-,8-/m1/s1
