18
gdb 9733	3.79535	1.50305	1.47137	1.1037	73.24	-0.2588	0.0412	0.3	954.1421	0.153374	-347.784939	-347.776699	-347.775755	-347.817812	31.362	
O	-0.2177923656	 1.2837461309	 0.1916457296	-0.464015
C	 0.0079200103	-0.1172013369	-0.0214600005	 0.209347
C	 0.6924474206	-0.7386805402	 1.2197538792	-0.229906
C	-0.4371122955	-0.7570173074	 2.2573830755	-0.208683
C	-1.6766375661	-1.2001101817	 1.4464946959	-0.204824
C	-1.3979657681	-0.7736203798	-0.0220532268	-0.227469
C	 0.7619924117	-0.3262062719	-1.2591586113	 0.257006
C	 1.4097833814	-0.475958768	-2.2613148729	-0.438526
H	 0.6388598584	 1.7237356979	 0.1549345678	 0.279945
H	 1.0207819188	-1.7562781196	 0.9785002861	 0.105975
H	 1.5750012165	-0.1671641594	 1.5233091409	 0.092124
H	-0.2256003303	-1.4142640863	 3.1047626283	 0.089984
H	-0.5834795553	 0.2545252207	 2.6461382084	 0.11201
H	-1.7978229638	-2.2865029966	 1.5032329895	 0.100169
H	-2.5975059032	-0.7589759678	 1.8354195259	 0.103179
H	-2.1177206943	-0.0475474119	-0.4046062411	 0.121325
H	-1.4041499606	-1.6336969261	-0.6947076417	 0.11022
H	 1.9697989851	-0.6111889759	-3.1535146128	 0.192137
39.2899	151.1266	160.2525	229.9127	303.1167	384.1015	391.1918	493.3442	535.1166	570.7782	606.6476	624.4875	661.8999	760.3498	781.3937	848.4317	894.7114	916.338	951.7077	1006.1725	1025.3584	1041.5475	1074.6924	1107.9396	1193.114	1222.991	1235.6058	1285.2165	1292.5458	1327.8953	1333.7212	1348.8457	1378.7723	1476.6044	1482.418	1486.9978	1511.3688	2229.9167	3041.653	3050.9855	3060.4976	3078.8508	3088.9783	3092.205	3110.8491	3129.4066	3501.1018	3802.9034
OC1(CCCC1)C#C	OC1(CCCC1)C#C	
InChI=1S/C7H10O/c1-2-7(8)5-3-4-6-7/h1,8H,3-6H2	InChI=1S/C7H10O/c1-2-7(8)5-3-4-6-7/h1,8H,3-6H2
