18
gdb 53810	3.35276	1.16906	0.88595	2.0474	75.49	-0.2319	-0.056	0.1759	1302.9878	0.146232	-439.118588	-439.109114	-439.10817	-439.154067	32.703	
C	-0.0453771757	 1.4384201224	-0.4180863793	-0.463224
C	 0.0720635101	-0.049177602	-0.2056205989	 0.29806
O	 1.1255946238	-0.6359965887	-0.1005123366	-0.298886
C	-1.2747906249	-0.794823171	-0.1288385303	 0.274002
O	-2.3340660797	-0.191121588	-0.2364812035	-0.378389
N	-1.2007746735	-2.1256221923	 0.0606542757	-0.068766
C	-0.1469362847	-3.1394036911	 0.2258740601	-0.149344
C	-1.2657910115	-4.2126639348	 0.353728443	-0.254055
C	-2.3103550327	-3.0731095789	 0.1708364719	-0.161083
H	 0.9483766684	 1.8846598259	-0.460057775	 0.134032
H	-0.5998721612	 1.6392318104	-1.3400036312	 0.157895
H	-0.636423951	 1.8832112538	 0.3884786183	 0.157894
H	 0.5109432863	-3.2336991144	-0.6414832071	 0.129647
H	 0.4740352129	-2.9863336087	 1.1118582175	 0.129651
H	-1.2690274566	-4.9627600194	-0.4373944058	 0.119402
H	-1.3061411222	-4.714572616	 1.3206786035	 0.119403
H	-2.9641125025	-2.8763347053	 1.0265151647	 0.12688
H	-2.9268486055	-3.1244815218	-0.7322733173	 0.126879
42.8887	87.2511	116.9301	125.5267	154.8763	160.9216	276.7493	347.5899	427.8859	445.8391	604.6603	629.605	713.2024	764.3959	833.1291	854.9346	917.7453	939.3323	969.5522	1032.2431	1038.579	1137.0878	1141.287	1185.274	1202.2363	1223.441	1225.5436	1271.2229	1294.1811	1331.1202	1381.7526	1449.6659	1456.9606	1463.255	1494.6868	1504.0986	1526.5173	1740.5448	1803.7967	3044.3194	3051.8566	3064.144	3085.7298	3094.4356	3106.1021	3114.0166	3149.0444	3162.3069
CC(=O)C(=O)N1CCC1	CC(=O)C(=O)N1CCC1	
InChI=1S/C6H9NO2/c1-5(8)6(9)7-3-2-4-7/h2-4H2,1H3	InChI=1S/C6H9NO2/c1-5(8)6(9)7-3-2-4-7/h2-4H2,1H3
