18
gdb 31136	1.95426	1.70354	0.97676	2.8367	75.38	-0.1752	0.0466	0.2218	1209.4408	0.146683	-439.110148	-439.100451	-439.099507	-439.145192	35.094	
C	-0.2017882999	 1.6192622903	 0.0582102407	-0.363862
C	 0.0052482941	 0.0932547192	 0.0234117066	-0.3382
C	 0.7516321255	-0.4480136356	 1.2054762416	 0.044744
C	 2.0786940678	-0.758292262	 1.3137991364	 0.304565
N	 3.1487728221	-0.6409471775	 0.4345408655	-0.596052
O	 2.3902624202	-1.1972984424	 2.5480795602	-0.180569
C	 1.2242504539	-1.1796011745	 3.2980320576	-0.148817
C	 0.2138069209	-0.7266732737	 2.5169982149	 0.241651
O	-1.0806370985	-0.5736883143	 2.910594999	-0.444853
H	 0.7605755307	 2.1391315512	 0.0721655952	 0.129199
H	-0.7685601509	 1.9637849629	-0.8131585544	 0.109799
H	-0.7470300078	 1.9210165969	 0.958763227	 0.117383
H	-0.974633236	-0.4016925276	-0.0558287954	 0.095257
H	 0.5289983925	-0.1784033385	-0.9021964916	 0.09464
H	 2.8631620725	-0.6740863435	-0.535039053	 0.251843
H	 3.8673563464	-1.3313690415	 0.6152783081	 0.255074
H	 1.3030591728	-1.5081283768	 4.3174307347	 0.130094
H	-1.5963912661	-0.2719328326	 2.1571313569	 0.298103
34.9215	112.743	161.0674	179.2873	193.9483	206.079	283.1351	305.7404	366.9749	426.4746	524.1948	571.0932	592.021	642.0373	687.5969	710.4349	744.7855	768.2466	794.5175	962.0869	970.5093	1044.1422	1082.6948	1131.2405	1171.6655	1192.7284	1238.3977	1295.2183	1307.5206	1358.7449	1377.8286	1409.5753	1476.2807	1484.9139	1495.2843	1508.2101	1620.6168	1656.6765	1707.9682	2988.8113	3031.8262	3033.8294	3100.794	3113.0622	3309.6811	3536.3741	3636.0004	3838.5606
CCC1=C(N)OC=C1O	CCc1c(N)occ1O	
InChI=1S/C6H9NO2/c1-2-4-5(8)3-9-6(4)7/h3,8H,2,7H2,1H3	InChI=1S/C6H9NO2/c1-2-4-5(8)3-9-6(4)7/h3,8H,2,7H2,1H3
