21
gdb 122936	4.54187	0.59103	0.5465	2.7256	76.91	-0.2585	-0.0355	0.223	2039.0315	0.179203	-461.362472	-461.351642	-461.350698	-461.400275	37.349	
C	 0.0603800234	 1.2631881363	 0.0639798497	-0.382663
C	 0.128931734	-0.2468135425	-0.1827766186	-0.18348
C	 1.2328926522	-0.6104250639	-1.1775949262	-0.044588
O	 1.4030286226	-2.0067729831	-1.3641319897	-0.256404
C	 0.4184184949	-2.6280931605	-2.1587321149	-0.101752
C	 0.8811311493	-4.0703077376	-2.4256602342	 0.036517
O	-0.139009592	-4.797681846	-3.0479198053	-0.436727
C	 2.1385159314	-4.0831056286	-3.2714844435	 0.137773
O	 2.1859963572	-4.6940250643	-4.313664074	-0.26635
H	 1.0056396299	 1.6438421094	 0.466586777	 0.118641
H	-0.1483743203	 1.8098164454	-0.8623439144	 0.118613
H	-0.7288065598	 1.5107626925	 0.7793731514	 0.120943
H	 0.3207313979	-0.7784064571	 0.7565639635	 0.108559
H	-0.8396508504	-0.6018057384	-0.5539103209	 0.104376
H	 1.0462159257	-0.1204408325	-2.1477148599	 0.089066
H	 2.1978208335	-0.2466175291	-0.807090616	 0.107292
H	-0.5597144201	-2.6757632526	-1.6607062008	 0.114962
H	 0.2805685145	-2.0949414542	-3.1138056221	 0.097354
H	 1.1488942464	-4.5075565772	-1.4474293689	 0.10482
H	 0.2554799447	-5.1482860936	-3.8628519975	 0.295755
H	 2.9959957349	-3.5016827323	-2.8867831646	 0.117292
27.1465	62.096	70.1923	108.1289	154.9325	178.7283	233.7723	269.4464	291.8464	327.3261	385.0467	438.38	496.2941	536.0525	739.6885	757.0982	837.8051	889.2365	892.6104	914.3313	993.0418	1038.3277	1061.3375	1113.3133	1122.8561	1155.4188	1166.6573	1203.6753	1220.9629	1286.9219	1294.9878	1316.8707	1334.619	1337.4019	1382.7127	1402.4243	1411.1727	1427.4142	1448.6066	1486.7599	1496.0261	1501.5599	1511.5404	1525.7248	1807.069	2955.4563	2969.353	2976.2977	2981.7635	3026.2259	3031.9684	3036.7695	3057.0378	3075.4094	3100.5827	3110.167	3682.5726
CCCOCC(O)C=O	CCCOC[C@@H](O)C=O	
InChI=1S/C6H12O3/c1-2-3-9-5-6(8)4-7/h4,6,8H,2-3,5H2,1H3	InChI=1S/C6H12O3/c1-2-3-9-5-6(8)4-7/h4,6,8H,2-3,5H2,1H3/t6-/m0/s1
