17
gdb 29600	2.94706	1.28199	0.89836	3.2021	78.64	-0.1936	0.0195	0.2131	1247.1338	0.137137	-418.074999	-418.066329	-418.065385	-418.108603	31.935	
C	-0.0212006824	 1.5031847988	 0.0691627777	-0.528484
C	-0.0077353971	 0.0070268201	-0.0058440511	 0.174693
C	-0.022038132	-0.7719761906	-1.1411925547	-0.149491
N	-0.001165326	-2.087668827	-0.7636933967	-0.247365
C	 0.0262614555	-2.1902892479	 0.6058459476	-0.15533
C	 0.0228837548	-0.9024644446	 1.0976652029	 0.257183
N	 0.0449750781	-0.4989352588	 2.4423325024	-0.40146
C	 0.0738218107	-1.3215900666	 3.526436051	 0.138197
O	 0.0849842619	-2.5349918324	 3.4896748568	-0.320047
H	 0.8691154871	 1.9020221965	 0.5732691556	 0.121625
H	-0.0470800276	 1.9430236826	-0.9315464974	 0.128619
H	-0.897055266	 1.8841171881	 0.6110268037	 0.121559
H	-0.0452088092	-0.4851413777	-2.1803605222	 0.118013
H	-0.0055249882	-2.8702911818	-1.3924743407	 0.263567
H	 0.0456738177	-3.1316508148	 1.1218836656	 0.155488
H	 0.0388887228	 0.4932776509	 2.6191910569	 0.250073
H	 0.0865494899	-0.7437554748	 4.4713066126	 0.07316
65.298	129.0436	165.1647	199.4844	233.3193	256.0292	386.1534	421.876	450.6901	547.6035	586.0979	633.5119	655.5175	687.6863	720.6873	772.1503	874.9473	921.7492	997.073	1005.8293	1064.3982	1080.2638	1100.9297	1174.5843	1201.7202	1260.7791	1344.3979	1391.1757	1418.3086	1431.6574	1473.596	1484.5691	1502.4339	1526.1963	1590.1195	1634.2416	1793.4043	2940.3273	3007.5636	3048.6144	3106.3833	3261.3632	3320.1271	3632.3804	3696.7904
CC1=CNC=C1NC=O	Cc1c[nH]cc1NC=O	
InChI=1S/C6H8N2O/c1-5-2-7-3-6(5)8-4-9/h2-4,7H,1H3,(H,8,9)	InChI=1S/C6H8N2O/c1-5-2-7-3-6(5)8-4-9/h2-4,7H,1H3,(H,8,9)
