15
gdb 31874	4.97688	1.00541	0.85743	3.7828	70.85	-0.2463	-0.0384	0.2079	1274.2293	0.114511	-454.001371	-453.993547	-453.992603	-454.034676	28.575	
O	 0.111056206	 1.2166010935	 0.6415374372	-0.411307
C	-0.012169831	 0.0588863589	-0.1724537556	-0.191596
C	-1.4287113095	-0.4402682165	-0.0863884248	 0.223638
C	-2.1389415019	-0.4567064225	 1.1170063874	-0.031025
N	-3.3815681281	-0.9185051434	 1.2282852605	-0.291558
C	-3.9229217081	-1.3760003061	 0.1005473555	 0.455284
O	-5.1704668053	-1.8544337607	 0.2082110571	-0.388657
N	-3.3661222416	-1.4042650223	-1.112499759	-0.352354
C	-2.1228578572	-0.9283236387	-1.1872650773	-0.059995
H	 1.0458170401	 1.4293101558	 0.7204536455	 0.293063
H	 0.2362318732	 0.2727296319	-1.2242629269	 0.098683
H	 0.6826901475	-0.7273923582	 0.1655243159	 0.106089
H	-1.6829462187	-0.0653811113	 2.0223196033	 0.131753
H	-5.4259379252	-2.1405942325	-0.6792928297	 0.305191
H	-1.6641470603	-0.9369389878	-2.1750029493	 0.112792
35.9562	114.7514	203.0436	258.8009	322.0082	401.5457	424.6105	472.6103	525.9112	572.3411	599.973	671.1106	780.4054	834.1981	898.1418	961.8285	1013.3858	1036.2603	1052.27	1075.4687	1181.3295	1215.7626	1251.6864	1269.1537	1284.4246	1362.5193	1384.5148	1435.0407	1461.9113	1509.6097	1516.743	1612.3164	1652.4153	2960.6293	2986.7534	3139.7881	3174.6265	3782.0304	3828.6174
OCC1=CN=C(O)N=C1	OCc1cnc(O)nc1	
InChI=1S/C5H6N2O2/c8-3-4-1-6-5(9)7-2-4/h1-2,8H,3H2,(H,6,7,9)	InChI=1S/C5H6N2O2/c8-3-4-1-6-5(9)7-2-4/h1-2,8H,3H2,(H,6,7,9)
