17
gdb 71736	2.69594	2.0276	1.53003	2.1841	69.95	-0.2042	0.0583	0.2625	893.0788	0.136208	-421.767345	-421.76023	-421.759286	-421.798179	29.858	
O	-0.2493042698	 1.2716584044	 0.2226920653	-0.490075
C	 0.0001661603	-0.0931135965	 0.1051993949	 0.289315
C	 1.1127771493	-0.8023320449	 0.8573818812	-0.298611
C	 0.7532933241	-2.2227535256	 0.4686294579	-0.072187
C	 0.1498927596	-2.2665882279	-0.9300110287	-0.078876
C	-0.7516783542	-2.3782864769	 0.2824075608	-0.149249
C	-1.245953649	-0.937369038	 0.0325574264	 0.401146
O	-2.5038265728	-0.4698895184	 0.3186358816	-0.478911
C	-0.3485409154	-0.8280638116	-1.1999237137	-0.260636
H	 0.3184247507	 1.7511083402	-0.3899602554	 0.290828
H	 2.1125181058	-0.5131431774	 0.5114413009	 0.091247
H	 1.0479061027	-0.6257035178	 1.9366584372	 0.105808
H	 1.3304669631	-3.068626992	 0.8232521129	 0.087338
H	 0.3832745644	-3.0153269481	-1.6744588299	 0.088671
H	-1.3425803558	-3.2134808627	 0.6315211362	 0.094837
H	-2.4131790747	 0.478488523	 0.4846003921	 0.293876
H	-0.4795323983	-0.3321942397	-2.1528417897	 0.085478
211.8808	242.196	284.312	329.8346	364.0478	394.692	447.268	540.8714	606.9347	648.6183	717.8453	737.1982	766.761	773.5179	836.634	867.0959	897.88	918.4353	941.2316	972.1867	998.8382	1028.2853	1047.3281	1063.157	1070.2656	1147.7382	1162.8941	1196.3122	1223.3402	1251.3913	1264.7734	1291.0974	1348.6685	1356.7421	1408.1565	1467.3629	1494.1143	3031.0519	3077.8602	3185.1388	3196.3142	3205.6844	3216.8793	3754.8795	3800.8023
OC12CC3C4C3C1(O)C24	O[C@@]12C[C@@H]3[C@H]4[C@@H]3[C@]1(O)[C@@H]24	
InChI=1S/C7H8O2/c8-6-1-2-3-4(2)7(6,9)5(3)6/h2-5,8-9H,1H2	InChI=1S/C7H8O2/c8-6-1-2-3-4(2)7(6,9)5(3)6/h2-5,8-9H,1H2/t2-,3+,4-,5-,6-,7+/m1/s1
