20
gdb 120785	4.21624	0.84861	0.79161	3.5183	76.35	-0.239	0.078	0.317	1481.6378	0.17037	-440.217911	-440.208771	-440.207827	-440.252617	33.518	
O	 0.400922009	 1.0065603662	-0.4239106195	-0.424146
C	 0.0304664792	-0.2985205409	-0.0315979905	-0.047538
C	-1.4636336126	-0.3815903221	 0.2771938288	-0.162224
N	-2.1898092286	 0.083482748	-0.9100752691	-0.113006
C	-2.7209728291	-0.9223508083	-1.8300761266	-0.261228
C	-3.6388175751	-0.099363096	-0.995771743	-0.023606
C	-4.4311498805	-0.7226184549	 0.1141000519	 0.040398
C	-5.3996299324	-1.7974232299	-0.1495895846	-0.17249
O	-4.1436351573	-2.0750688458	 0.472573341	-0.223025
H	-0.3062273439	 1.2958067043	-1.0167282683	 0.284137
H	 0.2800264677	-1.039429022	-0.8109361902	 0.081563
H	 0.6115253875	-0.5538842509	 0.8611958945	 0.102478
H	-1.7418685086	-1.3975158928	 0.5887800462	 0.116658
H	-1.6949835085	 0.3059766981	 1.099144728	 0.106953
H	-2.6036957678	-0.7127125624	-2.8895439743	 0.116651
H	-2.6178199812	-1.9666085435	-1.5439055791	 0.13224
H	-4.1539018753	 0.7447459389	-1.4548059359	 0.09852
H	-4.6218986413	-0.073528877	 0.9703179943	 0.105462
H	-6.2716050306	-1.9104277058	 0.4919539109	 0.121853
H	-5.5085997306	-2.1748425832	-1.1648366344	 0.120348
58.0354	84.366	119.3312	146.605	215.3885	246.6575	302.4156	411.1166	470.5328	493.9782	561.781	629.9321	727.9077	762.255	858.8301	896.6028	905.9852	926.8805	954.701	1019.0673	1023.7126	1051.5209	1093.0498	1103.6803	1116.7031	1129.7346	1149.836	1164.8454	1170.8119	1172.7346	1231.0072	1282.0451	1287.372	1321.0421	1380.3938	1383.9935	1403.8074	1430.6847	1446.0594	1484.2804	1505.859	1509.5372	1525.0406	2955.0157	3012.7535	3065.3651	3072.2194	3089.9705	3096.2183	3103.7679	3107.7408	3181.2406	3193.8688	3745.3714
OCCN1CC1C1CO1	OCCN1C[C@H]1[C@H]1CO1	
InChI=1S/C6H11NO2/c8-2-1-7-3-5(7)6-4-9-6/h5-6,8H,1-4H2	InChI=1S/C6H11NO2/c8-2-1-7-3-5(7)6-4-9-6/h5-6,8H,1-4H2/t5-,6+,7?/m0/s1
