17
gdb 52257	4.53542	0.82248	0.79227	3.8696	69.19	-0.2677	0.0081	0.2758	1428.1441	0.134808	-458.937655	-458.929302	-458.928358	-458.972162	29.791	
O	 0.0995435036	 0.2074466548	-0.6453650298	-0.275523
C	 0.1709581658	 1.3910088995	-0.505894752	 0.17091
O	 1.01739047	 1.9726881737	 0.3639278622	-0.179823
C	 1.0307193374	 3.4050102469	 0.4490806672	-0.102058
C	 2.4146581548	 3.9277972654	 0.1143755247	-0.021683
C	 2.9164561324	 3.8256939976	-1.374654142	-0.272014
C	 3.0147419811	 5.3559376931	-1.3929603484	 0.041908
O	 1.7083383126	 5.8670481826	-1.0974712632	-0.244194
C	 2.5398179597	 5.4599681464	-0.0042136163	-0.000491
H	-0.4407972482	 2.1265467858	-1.0647030441	 0.079994
H	 0.2916161026	 3.8360610516	-0.2357308297	 0.128422
H	 0.7502410063	 3.6704501593	 1.4743096334	 0.120729
H	 3.1532903977	 3.5117873131	 0.8044499348	 0.09776
H	 3.8807856445	 3.3203556191	-1.4528438759	 0.11961
H	 2.2227103693	 3.3998590948	-2.1038564305	 0.114658
H	 3.6781549465	 5.9977995534	-1.9599688758	 0.1125
H	 2.7401155239	 6.193078433	 0.7685509153	 0.109293
43.2027	61.2317	132.1348	189.7851	207.8058	349.9878	376.9933	440.5254	537.6791	680.9673	732.6455	815.0617	841.5423	863.1197	889.195	936.7556	963.816	1001.8477	1038.0703	1046.7529	1050.4981	1082.7459	1114.1356	1144.5256	1200.0591	1222.6093	1239.878	1240.3502	1278.6682	1298.8291	1353.5058	1382.3424	1406.0559	1433.8336	1472.5946	1507.5037	1865.9683	2943.4246	3034.5492	3070.5377	3076.5245	3091.6754	3130.8333	3183.2664	3199.9586
O=COCC1CC2OC12	O=COC[C@H]1C[C@H]2O[C@@H]12	
InChI=1S/C6H8O3/c7-3-8-2-4-1-5-6(4)9-5/h3-6H,1-2H2	InChI=1S/C6H8O3/c7-3-8-2-4-1-5-6(4)9-5/h3-6H,1-2H2/t4-,5-,6+/m1/s1
