16
gdb 96966	2.73392	1.3495	0.99354	1.9564	80.26	-0.2479	0.0115	0.2594	1196.93	0.122013	-400.677951	-400.669299	-400.668355	-400.711441	31.875	
C	 0.0552105949	 1.4421186653	-0.0628260726	-0.342369
N	-0.0584287683	-0.00894333	-0.0881192734	-0.335979
C	 0.5638942575	-0.6607010736	-0.9467307412	 0.434387
O	 1.4000949304	-0.23282269	-1.9949026378	-0.283946
C	 1.4908144328	-1.5839836007	-2.488808469	 0.050409
C	 2.1651021241	-2.4401160933	-1.4889761244	-0.325585
C	 0.6615081326	-2.1143199489	-1.317247375	 0.008456
C	-0.3508236842	-3.1036872025	-1.2254136748	 0.194336
C	-1.2068375085	-3.9443074383	-1.1442639876	-0.406102
H	 0.6588813978	 1.8586849744	-0.8771982623	 0.129574
H	-0.949081984	 1.8761442689	-0.1065783845	 0.132653
H	 0.4941098534	 1.7471208925	 0.8933300618	 0.132388
H	 1.3897216794	-1.7407982702	-3.5536085723	 0.137912
H	 2.3439464765	-3.4707723831	-1.7768882668	 0.143614
H	 2.8894401522	-2.0031986988	-0.80915131	 0.137303
H	-1.9700391266	-4.6787132618	-1.069731	 0.19295
97.4102	103.748	149.7064	157.7279	222.5252	296.7773	391.4457	454.3138	489.7262	540.2959	585.6389	631.1887	668.3474	707.5179	734.8043	838.7762	881.7164	892.7915	952.8273	1011.4645	1031.628	1062.4083	1072.3235	1085.8559	1133.5942	1168.2935	1231.7361	1284.8102	1381.72	1440.0206	1472.8529	1492.2572	1497.9413	1861.0758	2243.9199	3020.9703	3088.9022	3093.4162	3130.0139	3222.1467	3230.7604	3502.1249
CN=C1OC2CC12C#C	CN=C1O[C@H]2C[C@@]12C#C	
InChI=1S/C7H7NO/c1-3-7-4-5(7)9-6(7)8-2/h1,5H,4H2,2H3	InChI=1S/C7H7NO/c1-3-7-4-5(7)9-6(7)8-2/h1,5H,4H2,2H3/t5-,7+/m0/s1
