17
gdb 43016	2.30917	2.00241	1.35103	3.3323	72.92	-0.228	-0.0214	0.2066	967.8566	0.138948	-417.978768	-417.971743	-417.970799	-418.010119	28.079	
O	 0.0024771421	-0.0734111092	-0.040200848	-0.338745
C	-0.0153749205	 1.1377427848	-0.1220230584	 0.471273
C	-1.3111009125	 1.8772501591	-0.2470314554	-0.162174
N	-1.5010624503	 3.1430616078	 0.5045450103	-0.307184
C	-1.342018028	 3.2063087866	-0.9427008021	-0.029801
C	-0.0712783314	 3.8297938384	-1.4947984533	-0.225416
C	 1.2307669529	 3.2418632551	-0.9777484361	-0.029801
N	 1.4308548763	 3.1835788774	 0.4646049519	-0.307184
C	 1.2555396026	 1.9127196616	-0.2819956443	-0.162174
H	-2.1605132356	 1.2084046602	-0.3531936794	 0.099472
H	-2.4840303995	 3.2198697315	 0.754277537	 0.238323
H	-2.2308439285	 3.4086022066	-1.5379867537	 0.093332
H	-0.0844356999	 3.7071470309	-2.5850898523	 0.10848
H	-0.0834914689	 4.9089704541	-1.2965599482	 0.120472
H	 2.0971220121	 3.4684127393	-1.5969445022	 0.093332
H	 2.4177622291	 3.2876095261	 0.6875024733	 0.238323
H	 2.11990027	 1.2675574897	-0.4115040588	 0.099472
108.7437	231.7166	242.9516	346.0168	376.005	431.3914	461.6577	532.7159	622.3285	734.716	781.712	790.7475	816.6472	880.6882	896.4246	909.0749	937.887	966.7107	1007.1739	1028.4684	1040.9204	1122.0322	1147.4938	1152.9879	1189.0088	1215.2723	1249.0233	1250.5576	1262.5485	1291.5741	1382.9662	1395.4895	1396.0406	1433.0918	1467.764	1472.5652	1785.4078	3024.6056	3062.3242	3117.9302	3119.8674	3154.6633	3156.6547	3498.2141	3498.4944
O=C1C2NC2CC2NC12	O=C1[C@H]2N[C@H]2C[C@H]2N[C@@H]12	
InChI=1S/C6H8N2O/c9-6-4-2(7-4)1-3-5(6)8-3/h2-5,7-8H,1H2	InChI=1S/C6H8N2O/c9-6-4-2(7-4)1-3-5(6)8-3/h2-5,7-8H,1H2/t2-,3+,4-,5+
