20
gdb 36144	3.70553	1.06529	0.95973	4.1365	82.38	-0.2784	0.0359	0.3144	1276.1197	0.173046	-366.038723	-366.030507	-366.029563	-366.071795	31.872	
N	-0.0671938997	-1.1349971249	 0.5056794902	-0.314651
C	-0.0666025391	-0.0032298603	 0.2722694267	 0.272199
C	-0.0450310409	 1.4312747088	-0.0296238029	-0.446594
C	 1.3633180435	 1.9747014063	-0.1994778006	 0.37719
C	 2.1393776383	 2.4042556917	 1.0217493857	-0.325407
C	 1.6770725564	 3.4406030867	 0.022510376	-0.087552
C	 2.6666916513	 3.8846081238	-1.0450988669	-0.214805
C	 3.283876598	 2.569500723	-1.5779269702	-0.230429
C	 2.1792206839	 1.5028323645	-1.3997388481	-0.268058
H	-0.6327717873	 1.5962396159	-0.9417939722	 0.146769
H	-0.5638234942	 1.9580417907	 0.7792146953	 0.146731
H	 1.6180261442	 2.3705169632	 1.9727205989	 0.113959
H	 3.1941182828	 2.1611053694	 1.0953331334	 0.116746
H	 0.9004760975	 4.1322855765	 0.3330680144	 0.081957
H	 2.1246500527	 4.4061533297	-1.843158817	 0.101184
H	 3.4269520922	 4.576256649	-0.6670415702	 0.102484
H	 3.6162631356	 2.653700496	-2.615393672	 0.102897
H	 4.165633179	 2.300045328	-0.9887647843	 0.110751
H	 2.5845103042	 0.4937776609	-1.2733918247	 0.116571
H	 1.5259182416	 1.4781786611	-2.2819014016	 0.09806
62.849	105.858	214.3105	244.5143	308.374	366.9478	394.0797	414.2212	448.7338	617.1458	629.6143	712.3816	811.6172	841.9275	884.1684	892.8503	898.3649	926.6994	943.1746	971.5936	987.149	1007.0887	1052.675	1072.3494	1081.5713	1118.3876	1171.1337	1198.8684	1204.7363	1253.7826	1265.2056	1305.1169	1325.0096	1333.0026	1342.4064	1357.0498	1409.111	1459.2054	1486.4688	1492.6806	1495.3311	1518.4894	2360.3237	3021.7073	3030.1855	3032.7474	3056.433	3073.1855	3073.9842	3078.9966	3105.094	3129.9994	3158.3861	3211.0841
N#CCC12CC1CCC2	N#CC[C@]12C[C@H]1CCC2	
InChI=1S/C8H11N/c9-5-4-8-3-1-2-7(8)6-8/h7H,1-4,6H2	InChI=1S/C8H11N/c9-5-4-8-3-1-2-7(8)6-8/h7H,1-4,6H2/t7-,8-/m1/s1
