17
gdb 23451	3.12825	1.30447	1.16683	1.2152	79.79	-0.2314	-0.047	0.1844	1100.4703	0.136153	-417.940331	-417.93236	-417.931416	-417.972648	30.803	
C	-0.2089085547	 1.5007773202	-0.103537113	-0.316313
N	 0.0516297349	 0.0775706787	 0.0491860816	-0.097433
C	 1.3860087976	-0.5132741435	-0.1366115952	-0.082649
C	 2.5881446075	 0.3737651058	-0.049923996	-0.084194
C	 2.7008304811	 0.9400205325	 1.1638839691	-0.176735
C	 1.6207386476	 0.4541303539	 2.0326297286	 0.393841
N	 1.3854856435	 0.6734092108	 3.2719126068	-0.235798
O	 2.3279493945	 1.5429753812	 3.8316051845	-0.385859
C	 0.7419302937	-0.4559999695	 1.2222163131	-0.131319
H	 0.6132139842	 2.1639475033	 0.1964083228	 0.113428
H	-0.4468413882	 1.6975777282	-1.1536867658	 0.12196
H	-1.0881772528	 1.7507848837	 0.4976621447	 0.12989
H	 1.4123595971	-1.4058216951	-0.7547218003	 0.097719
H	 3.2494970305	 0.5529517824	-0.889414015	 0.112474
H	 3.4368574007	 1.6650806508	 1.4807336651	 0.125665
H	 2.0352054534	 1.6008968546	 4.7475634851	 0.310387
H	 0.2646252993	-1.2967495179	 1.714323694	 0.104936
99.7341	182.8809	227.0659	235.9656	267.5392	320.515	421.3711	454.519	506.692	534.2108	673.9828	710.5859	760.6918	777.7025	805.9195	871.3173	884.4769	931.6606	965.7078	979.7956	1013.634	1068.3888	1099.3883	1121.5834	1160.733	1173.6883	1239.0017	1290.076	1304.8325	1347.9534	1363.8271	1410.3716	1449.8253	1488.9666	1502.7417	1621.7037	1719.1661	3008.7289	3078.5673	3107.4878	3150.0476	3168.2655	3202.6785	3244.1639	3815.9564
CN1C2C=CC(=NO)C12	CN1[C@H]2C=CC(=NO)[C@@H]12	
InChI=1S/C6H8N2O/c1-8-5-3-2-4(7-9)6(5)8/h2-3,5-6,9H,1H3	InChI=1S/C6H8N2O/c1-8-5-3-2-4(7-9)6(5)8/h2-3,5-6,9H,1H3/t5-,6+,8?/m0/s1
