18
gdb 114477	3.49625	1.2856	1.19751	1.6142	70.44	-0.2358	0.0418	0.2777	1080.4942	0.148505	-438.986221	-438.978622	-438.977678	-439.018618	29.703	
O	-0.0240026185	 1.4428856765	-0.2447524517	-0.419837
C	 0.1125136903	 0.0742249463	 0.0982625666	-0.097459
C	-1.2481965228	-0.5982922003	 0.1010578012	 0.116828
O	-1.952262196	-0.5020348466	-1.1832653312	-0.335406
C	-2.4295044322	-1.8691663378	-1.050252758	 0.102677
C	-1.6409276618	-2.9360666117	-1.822637487	-0.039937
C	-0.2266598297	-2.5664679939	-1.9399417891	-0.243176
N	-0.6767355651	-3.1237237394	-0.6433979506	-0.164571
C	-1.5063920303	-2.1144895297	 0.1415330755	-0.067628
H	-0.5030121947	 1.4702195807	-1.0813917737	 0.295743
H	 0.8260701089	-0.4359763608	-0.5602278099	 0.10144
H	 0.5242170711	 0.0392844724	 1.1132292817	 0.116409
H	-1.8620561561	-0.1028559433	 0.8683598714	 0.090287
H	-3.5181893313	-1.9410242711	-1.037822945	 0.089271
H	-2.0877001969	-3.7864399635	-2.3277396035	 0.099511
H	 0.4269508615	-3.2623239042	-2.457107341	 0.127134
H	 0.0328726572	-1.5229366345	-2.0527582326	 0.131532
H	-1.8181530236	-2.5602398891	 1.0841387967	 0.097181
65.1325	138.427	211.6027	288.6705	352.6672	408.0956	458.1429	494.5949	589.8372	694.9857	713.6623	724.061	818.3486	870.1262	885.7602	909.2935	937.5987	977.3635	1011.6891	1033.3582	1055.2265	1065.5305	1080.6551	1114.3976	1126.4497	1142.7754	1198.1156	1214.5699	1227.5874	1240.8139	1295.6503	1302.6918	1319.3479	1347.5041	1363.4997	1402.5508	1435.3266	1491.9052	1508.2888	2991.0744	3028.4905	3074.4772	3098.2945	3131.9594	3140.958	3164.9438	3243.5118	3796.1144
OCC1OC2C3CN3C12	OC[C@H]1O[C@H]2[C@H]3CN3[C@@H]12	
InChI=1S/C6H9NO2/c8-2-4-5-6(9-4)3-1-7(3)5/h3-6,8H,1-2H2	InChI=1S/C6H9NO2/c8-2-4-5-6(9-4)3-1-7(3)5/h3-6,8H,1-2H2/t3-,4-,5+,6+,7?/m1/s1
