16
gdb 51338	5.70529	0.95908	0.92586	2.9441	69.98	-0.2523	0.0027	0.255	1242.8675	0.124503	-437.825691	-437.818352	-437.817407	-437.858873	27.141	
O	-0.0065191312	 0.0418488679	 0.2605861721	-0.272821
C	 0.0295279215	 1.234798824	 0.2408357811	 0.163312
O	 0.9986224564	 1.9219108403	-0.3940908427	-0.201194
C	 0.9671318932	 3.3488988608	-0.3289878811	 0.138425
C	 2.1572109031	 3.8787452513	 0.4683925353	-0.075645
C	 3.0053464572	 3.9195117773	-0.7485008658	-0.031537
C	 1.6579324579	 3.9507412068	-1.5741167332	-0.123996
C	 1.6413864205	 5.4493720818	-1.2453993101	-0.158828
N	 2.5924704002	 5.1957813114	-0.1058960663	-0.147879
H	-0.719018224	 1.8918407093	 0.7247340358	 0.079671
H	-0.0466077679	 3.6900349167	-0.0866014394	 0.087596
H	 2.4223140141	 3.6765818548	 1.4974680334	 0.112651
H	 4.0261797159	 3.6292221826	-0.9516918547	 0.111908
H	 1.4523155603	 3.5358503244	-2.5580112982	 0.094254
H	 2.1530571209	 6.0668301917	-1.9868698532	 0.120781
H	 0.6875437621	 5.9146321689	-0.9690266327	 0.103302
27.8381	137.3022	140.9158	311.8739	367.3382	398.7435	450.3825	698.1535	755.6682	773.7515	802.0243	830.839	899.2078	929.7165	956.0836	965.009	991.881	998.9827	1042.7142	1047.6977	1062.5979	1097.3821	1151.798	1160.2295	1176.1026	1201.9571	1213.8084	1231.9231	1274.5587	1300.2314	1335.8111	1383.5386	1440.2799	1513.8933	1866.8115	2949.2558	3029.151	3038.0681	3110.482	3150.9556	3209.3874	3226.2733
O=COC1C2C3C1CN23	O=CO[C@H]1[C@H]2[C@H]3[C@@H]1CN23	
InChI=1S/C6H7NO2/c8-2-9-6-3-1-7-4(3)5(6)7/h2-6H,1H2	InChI=1S/C6H7NO2/c8-2-9-6-3-1-7-4(3)5(6)7/h2-6H,1H2/t3-,4+,5+,6+,7?/m0/s1
