20
gdb 97435	5.26551	0.59008	0.54824	2.2511	87.39	-0.2512	0.0222	0.2734	2024.4166	0.16707	-403.111674	-403.100724	-403.09978	-403.149343	37.868	
C	 0.0114068819	 1.387071594	 0.0021818476	-0.314927
N	-0.1189332252	-0.0538179051	 0.0484901024	-0.205068
C	 0.5485230842	-0.6672085728	 0.918857521	 0.132957
O	 0.4862347033	-2.0119165011	 1.0117514671	-0.20877
C	 1.23117642	-2.6050198269	 2.073507321	-0.073705
C	 1.1955943091	-4.1272256439	 1.8707865067	-0.163964
C	 1.8550137789	-4.5439353969	 0.5421001566	-0.390247
C	 1.8220046859	-4.7811882574	 3.0174873785	 0.308291
C	 2.3590624266	-5.3011633489	 3.9587330264	-0.463747
H	 0.6957584566	 1.8014644798	 0.7609915886	 0.095558
H	 0.3710382097	 1.6922965284	-0.9871477104	 0.128565
H	-0.9727599465	 1.8496741421	 0.1383811715	 0.128753
H	 1.2204349675	-0.1906501509	 1.6505469	 0.074662
H	 2.270020934	-2.2489404237	 2.0615332065	 0.11497
H	 0.7862399733	-2.3431486613	 3.0412057771	 0.119271
H	 0.1367296542	-4.4162598374	 1.8374099348	 0.124307
H	 1.3692345312	-4.0303268775	-0.2900028939	 0.143559
H	 2.9185273487	-4.2855160101	 0.5435259038	 0.122854
H	 1.7686618292	-5.6228186997	 0.3935789066	 0.127911
H	 2.8224100976	-5.7730515105	 4.7896185379	 0.198771
21.6913	56.836	84.5268	137.3796	177.2017	203.8904	214.3243	241.1669	283.9962	308.4534	374.528	412.0099	527.6634	535.9356	626.0638	632.3702	651.6748	832.3026	930.5271	946.948	981.1414	1030.7653	1064.693	1102.651	1126.3716	1141.4123	1156.5031	1167.2233	1247.0757	1268.2533	1312.1171	1346.586	1388.4753	1405.1403	1430.5606	1450.7567	1480.2994	1494.6849	1500.1567	1504.7292	1513.1779	1781.4059	2237.9337	2965.2047	2987.6342	3011.7297	3024.4953	3048.9073	3058.1472	3062.5924	3077.696	3121.6754	3141.5699	3504.0181
CN=COCC(C)C#C	CN=COC[C@@H](C)C#C	
InChI=1S/C7H11NO/c1-4-7(2)5-9-6-8-3/h1,6-7H,5H2,2-3H3	InChI=1S/C7H11NO/c1-4-7(2)5-9-6-8-3/h1,6-7H,5H2,2-3H3/t7-/m0/s1
