23
gdb 89517	2.24596	1.69512	1.24637	1.4282	84.53	-0.2372	0.0798	0.317	1139.3195	0.206674	-388.299833	-388.290989	-388.290045	-388.33289	34.911	
C	 0.2484382983	 1.6417864578	 0.0472995542	-0.407133
C	 0.0891153204	 0.1297758297	 0.0262685124	 0.024011
C	 0.9623213786	-0.7116914952	-0.9507235126	-0.309444
C	 1.3202512808	-1.6963322892	 0.2129734572	 0.34196
C	 0.6817250182	-3.0725498733	 0.1007974981	-0.48268
C	 2.79680008	-1.7070377045	 0.6257329181	-0.282224
C	 2.9670326385	-0.3492498211	 1.3180746684	-0.091126
O	 1.7174524554	-0.0717703858	 1.9477756322	-0.261843
C	 0.6680459159	-0.6910800861	 1.2196630375	 0.065123
H	 1.2867719316	 1.9297775272	 0.2351834743	 0.122218
H	-0.0584459766	 2.0800036299	-0.9088338853	 0.108372
H	-0.3627610108	 2.0934714315	 0.8359270743	 0.116564
H	-0.9684546557	-0.127872753	-0.1007074023	 0.067694
H	 0.4395677718	-1.16042151	-1.7996538218	 0.093393
H	 1.8286618773	-0.164173699	-1.3364704065	 0.091434
H	 1.1468180078	-3.6596032974	-0.6996615178	 0.115529
H	 0.7888699443	-3.6353456363	 1.0349709173	 0.114977
H	-0.3877103645	-2.999817099	-0.1260125238	 0.113625
H	 2.980901507	-2.520278965	 1.3367948563	 0.100186
H	 3.4779593432	-1.8351274309	-0.2212564798	 0.098899
H	 3.7397613606	-0.3441914997	 2.0923294332	 0.106204
H	 3.2164902936	 0.4360685993	 0.5877691988	 0.089448
H	-0.0586719956	-1.0672646097	 1.9466685378	 0.064814
79.9656	191.1791	204.2737	234.1399	243.2615	254.8645	296.2927	366.5707	395.6066	514.1771	565.0295	612.7588	674.6336	769.2484	842.9839	848.5681	887.8024	908.0388	921.5439	940.5716	957.5373	984.4661	994.9043	1033.8101	1051.4418	1102.4511	1137.2328	1154.4176	1187.3626	1191.5237	1221.0613	1245.3176	1248.7342	1270.1862	1281.3594	1287.7988	1340.3138	1357.3897	1363.8851	1397.4906	1409.9326	1414.2741	1483.688	1484.9019	1490.551	1493.3739	1494.3122	1500.0042	1529.6792	2980.7262	3020.7696	3030.7942	3035.0952	3038.6584	3043.6488	3056.4701	3080.218	3086.4205	3088.6446	3093.6689	3094.6448	3097.4054	3111.4348
CC1CC2(C)CCOC12	C[C@H]1C[C@@]2(C)CCO[C@@H]12	
InChI=1S/C8H14O/c1-6-5-8(2)3-4-9-7(6)8/h6-7H,3-5H2,1-2H3	InChI=1S/C8H14O/c1-6-5-8(2)3-4-9-7(6)8/h6-7H,3-5H2,1-2H3/t6-,7-,8+/m0/s1
