18
gdb 93129	2.29934	1.60393	1.17447	2.0419	72.46	-0.2534	-0.034	0.2193	1088.3908	0.147438	-439.108825	-439.100184	-439.09924	-439.142739	31.311	
C	-0.0202959904	 1.5506224443	-0.0571768098	-0.410758
C	 0.0286660979	 0.0360686236	 0.0390073943	 0.125418
O	 0.6058274825	-0.4548735144	-1.1882161306	-0.236072
C	 1.0124134556	-1.7471739401	-1.1804088165	 0.126879
N	 1.1096489493	-2.5516175012	-0.2096715957	-0.261073
C	 0.7893070135	-2.0693524466	 1.1296430148	-0.194676
C	 0.7980803114	-0.534684833	 1.251210246	-0.134108
C	 2.2225003585	-0.0048416385	 1.3199407018	 0.167968
O	 2.5363601667	 1.0047067857	 1.8976864177	-0.259233
H	 0.9822178855	 1.9810397814	-0.1031796535	 0.146189
H	-0.5709904207	 1.8461597634	-0.9539266657	 0.130182
H	-0.5287214379	 1.9646365209	 0.8180848874	 0.128724
H	-0.9944307378	-0.360686673	 0.0930153301	 0.097625
H	 1.2864737457	-2.0553149633	-2.1878270377	 0.129497
H	-0.190816927	-2.4634368662	 1.4252516581	 0.122089
H	 1.5123582287	-2.5120834109	 1.8252531929	 0.11989
H	 0.2881387887	-0.1985958569	 2.1600317941	 0.10581
H	 2.9839800097	-0.6247985952	 0.7959852225	 0.095651
50.0886	112.1278	128.8762	210.6853	229.7525	303.9529	321.4445	432.5697	449.1692	493.6732	567.0096	650.2677	788.6699	864.4637	889.2067	891.5236	948.1913	969.7299	996.527	1018.9263	1074.6843	1098.8855	1152.5245	1164.2201	1170.3445	1240.6568	1271.2272	1300.2573	1362.2759	1378.9339	1383.0308	1408.5348	1418.932	1434.3732	1481.8465	1488.3439	1495.4788	1731.7298	1825.6881	2884.0044	3009.0162	3026.3786	3053.2963	3054.1448	3065.4669	3127.0141	3139.8254	3159.8595
CC1OC=NCC1C=O	C[C@H]1OC=NC[C@H]1C=O	
InChI=1S/C6H9NO2/c1-5-6(3-8)2-7-4-9-5/h3-6H,2H2,1H3	InChI=1S/C6H9NO2/c1-5-6(3-8)2-7-4-9-5/h3-6H,2H2,1H3/t5-,6+/m1/s1
