18
gdb 37136	3.39466	1.66702	1.63033	0.6435	73.53	-0.2023	0.055	0.2573	910.3929	0.148987	-401.840163	-401.833362	-401.832417	-401.870969	28.4	
C	 0.1720855465	 1.3464398239	 0.0874741298	-0.244262
C	 1.3955481298	 0.5518072466	-0.1238627344	-0.107493
N	 0.0391199507	-0.1214918732	 0.0488302209	-0.179919
C	 0.1825703685	-0.6046230668	-1.3964807033	 0.219691
C	 0.4523026647	 0.3788268093	-2.5143904159	-0.397056
C	 1.5485993274	 0.0097444097	-1.5574236666	 0.325106
O	 2.4855237386	-0.9558901538	-1.8929310939	-0.291673
C	 1.9311581686	-2.2429629656	-1.5308842788	-0.085536
C	 0.3804898741	-2.0905099534	-1.6057252133	-0.306259
H	 0.0129643891	 1.7344375837	 1.0900255005	 0.127331
H	-0.2560930683	 1.9654046188	-0.6926875185	 0.122321
H	 2.1766778508	 0.4498982527	 0.621852885	 0.105261
H	 0.5502570634	-0.0960545792	-3.4845323482	 0.131969
H	 0.0167992659	 1.3710289674	-2.5589782031	 0.120637
H	 2.3387730884	-2.984360159	-2.2237019972	 0.112008
H	 2.2463838941	-2.5084727319	-0.512872589	 0.1095
H	-0.1194279565	-2.6686023373	-0.8256315287	 0.125831
H	-0.0025361357	-2.4203803919	-2.5753860756	 0.112542
130.1078	231.2519	315.1902	344.8602	458.8715	481.1146	516.2412	596.3842	653.284	697.6849	739.1829	781.9737	840.2054	856.4238	880.0435	907.1418	930.3373	937.1753	967.6368	1006.1063	1009.1421	1047.3232	1066.9412	1108.8448	1126.2187	1158.1026	1192.5893	1199.947	1223.9303	1232.432	1253.9698	1303.9913	1341.6709	1351.4823	1388.7112	1462.973	1477.194	1513.984	1515.5436	3015.7533	3062.6143	3093.7065	3122.2251	3122.5075	3136.4808	3170.0047	3207.8119	3220.3541
C1C2N1C13CC21OCC3	C1[C@H]2N1[C@@]13C[C@@]21OCC3	
InChI=1S/C7H9NO/c1-2-9-7-4-6(1,7)8-3-5(7)8/h5H,1-4H2	InChI=1S/C7H9NO/c1-2-9-7-4-6(1,7)8-3-5(7)8/h5H,1-4H2/t5-,6+,7-,8?/m1/s1
