15
gdb 47256	2.29888	1.76121	1.28416	4.8214	66.83	-0.2512	-0.0497	0.2015	996.732	0.112526	-457.798417	-457.79058	-457.789635	-457.831288	28.551	
O	-0.0595869606	 1.9411350331	-1.7254331855	-0.284642
C	-0.0954679503	 1.8050249206	-0.5289023854	 0.254426
C	-1.3777418917	 1.6248374765	 0.2644659222	-0.359789
C	-1.5599794981	 2.5928158049	 1.4065526668	-0.041423
C	-0.7300385363	 3.5720718904	 1.7630483754	-0.077882
C	 0.5832281901	 3.8891121385	 1.0871550571	-0.150048
O	 1.5083071875	 2.7761705377	 1.0706950612	-0.214361
C	 1.2132382217	 1.7234620869	 0.286776429	 0.369834
O	 1.9211506865	 0.758445576	 0.2323787374	-0.313129
H	-2.2179395729	 1.6848143575	-0.4371349416	 0.14547
H	-1.3737791065	 0.5987318452	 0.663714031	 0.156913
H	-2.4738356657	 2.4498126312	 1.9776564906	 0.114086
H	-0.99346692	 4.1992997009	 2.6091710325	 0.111535
H	 0.4355761802	 4.2489577109	 0.061400204	 0.149925
H	 1.1161496559	 4.6677879899	 1.6324733355	 0.139084
73.5628	90.8545	200.7959	241.3188	327.0636	349.4622	377.072	456.3041	561.8341	633.803	667.2745	715.0755	787.0304	834.2824	892.2879	947.3556	976.3618	1008.9998	1041.2007	1058.7296	1087.4352	1189.1165	1237.5841	1265.7038	1300.76	1336.1517	1401.5395	1418.6583	1441.8333	1503.8201	1723.3467	1817.871	1849.8074	3003.8326	3036.1386	3066.4551	3131.6116	3157.8434	3182.9328
O=C1CC=CCOC1=O	O=C1CC=CCOC1=O	
InChI=1S/C6H6O3/c7-5-3-1-2-4-9-6(5)8/h1-2H,3-4H2	InChI=1S/C6H6O3/c7-5-3-1-2-4-9-6(5)8/h1-2H,3-4H2
