21
gdb 71250	2.17975	2.0481	1.62017	1.1306	81.56	-0.2452	0.0773	0.3225	971.43	0.183536	-387.066901	-387.058994	-387.058049	-387.098531	32.776	
C	 0.0571078361	 1.5403646119	-0.0095722002	-0.506705
C	 0.0003855754	 0.0350819848	-0.047741749	 0.324782
C	 0.4249856	-0.8122246045	-1.2600427431	-0.288334
C	-0.3287038946	-1.9479042141	-0.5202848958	-0.040465
C	 0.5990668537	-2.1760354731	 0.6909424711	-0.277404
C	 0.3662721739	-0.7673093586	 1.2815260487	 0.377835
O	 1.3184508821	-0.2057715628	 2.1310639199	-0.496587
C	-1.1522963604	-0.8267461781	 1.6222587798	-0.315984
C	-1.2948256924	-0.8407758676	 0.0939624747	-0.06633
H	 1.0961579219	 1.8856391951	 0.0300120848	 0.126728
H	-0.4096823293	 1.9747943259	-0.9003176774	 0.108653
H	-0.4507595583	 1.9468155161	 0.8711155738	 0.11874
H	-0.0939416421	-0.4763711935	-2.1638236085	 0.089887
H	 1.4882544797	-0.9595441933	-1.4804578804	 0.086502
H	-0.7142764684	-2.8212737915	-1.0457211344	 0.059404
H	 0.2768775553	-2.9737409927	 1.3685602628	 0.081568
H	 1.6374653596	-2.3556440443	 0.3976025662	 0.09372
H	 1.4624790139	-0.8063204122	 2.8703249141	 0.277567
H	-1.5179814936	-1.6723265682	 2.2147950997	 0.080479
H	-1.5183680828	 0.1116633541	 2.0468598812	 0.100694
H	-2.2212547498	-0.6200372734	-0.433860528	 0.065251
183.4538	188.4913	212.935	232.5174	318.0964	379.8962	443.2345	471.1544	486.7922	572.4098	635.5818	669.8628	707.7312	810.7511	844.5271	868.9454	878.2076	898.3849	941.9967	957.2889	975.5593	986.972	1021.4362	1041.8691	1070.0313	1101.9592	1129.6369	1156.9107	1166.4472	1182.917	1201.0894	1222.4271	1232.1895	1256.9287	1266.4024	1289.0298	1298.3563	1340.3017	1371.1842	1414.6892	1483.2811	1487.5811	1492.1175	1498.5161	1518.8427	3026.7272	3031.9272	3037.0191	3043.8148	3085.6892	3091.8736	3093.1118	3095.147	3104.9458	3112.1005	3128.6497	3803.1483
CC12CC3CC1(O)CC23	C[C@@]12C[C@H]3C[C@]1(O)C[C@@H]23	
InChI=1S/C8H12O/c1-7-2-5-3-8(7,9)4-6(5)7/h5-6,9H,2-4H2,1H3	InChI=1S/C8H12O/c1-7-2-5-3-8(7,9)4-6(5)7/h5-6,9H,2-4H2,1H3/t5-,6+,7-,8-/m0/s1
