27
gdb 99966	2.19027	1.17622	1.13153	1.323	91.23	-0.257	0.0648	0.3217	1362.325	0.248389	-390.70484	-390.692907	-390.691963	-390.740806	46.051	
C	 0.0618619016	 1.6135448811	-0.111519176	-0.388274
C	-0.0121647304	 0.103515747	 0.149076064	-0.22876
C	-1.4346834948	-0.5086262196	 0.0655194897	 0.352715
C	-2.3364949469	 0.103710258	 1.1457724422	-0.419941
O	-2.0569805988	-0.1122458773	-1.1681547127	-0.471643
C	-1.4027884309	-2.0905666829	 0.1416851519	 0.271218
C	-0.6379665084	-2.593364267	 1.3830992589	-0.422199
C	-2.8432963857	-2.6429032613	 0.1895673862	-0.421392
C	-0.7263906823	-2.6840746261	-1.1145132616	-0.443594
H	 1.1057823252	 1.9348892973	-0.1804520127	 0.106408
H	-0.4402883273	 1.8767450957	-1.0461612035	 0.121596
H	-0.4045377472	 2.193954623	 0.6895109381	 0.118276
H	 0.6362338167	-0.4026452123	-0.5761857164	 0.087169
H	 0.4136220094	-0.1144071846	 1.1340212055	 0.101077
H	-2.3259676449	 1.1923873878	 1.066171074	 0.121088
H	-3.3703210051	-0.2191433701	 1.0172337958	 0.125175
H	-2.0059768057	-0.1689024506	 2.1512197413	 0.11056
H	-1.4623097929	-0.3431226416	-1.8887933787	 0.275821
H	-1.0327148099	-2.166816958	 2.3102426189	 0.112318
H	-0.7335067718	-3.6819216385	 1.4611054331	 0.108546
H	 0.4306458444	-2.3650099842	 1.3339060841	 0.111868
H	-3.4547713581	-2.1976176321	-0.5996044099	 0.126667
H	-2.8347992969	-3.7285994344	 0.0456557247	 0.100345
H	-3.3253238334	-2.4474903353	 1.1513077219	 0.109194
H	 0.3056470189	-2.3447852479	-1.244368039	 0.111713
H	-0.6950971451	-3.7755073563	-1.0343176165	 0.114306
H	-1.2863168999	-2.4499826099	-2.0257663332	 0.109744
55.9037	84.798	179.2566	205.4239	228.7583	235.7708	262.7799	275.8746	292.9655	317.2698	340.2461	349.1198	373.7216	385.2979	389.0174	408.9102	478.0324	489.5798	538.6181	676.2989	790.3312	804.6874	882.7321	923.6622	935.1953	936.9795	957.6857	988.238	1005.2629	1033.84	1046.163	1066.8673	1129.237	1156.1596	1189.8361	1236.42	1251.3152	1259.0862	1295.4623	1365.034	1368.9366	1392.289	1400.7599	1409.5364	1414.0522	1430.4782	1476.9333	1481.6645	1488.2096	1493.4514	1495.2418	1496.0105	1509.1297	1510.4994	1512.9232	1520.5089	1526.952	3029.8097	3032.6544	3035.206	3041.7507	3044.975	3063.7351	3072.1409	3094.2465	3095.7954	3101.5889	3106.6965	3108.4377	3111.2231	3121.8006	3123.2431	3134.1466	3145.3927	3817.8877
CCC(C)(O)C(C)(C)C	CC[C@@](C)(O)C(C)(C)C	
InChI=1S/C8H18O/c1-6-8(5,9)7(2,3)4/h9H,6H2,1-5H3	InChI=1S/C8H18O/c1-6-8(5,9)7(2,3)4/h9H,6H2,1-5H3/t8-/m1/s1
