23
gdb 104881	1.97036	1.57174	1.15166	0.8958	81.06	-0.2453	0.0823	0.3276	1229.7773	0.204746	-425.444383	-425.434391	-425.433446	-425.479356	37.005	
C	 0.798229739	-0.6215621718	 1.3464485835	-0.390905
C	 0.1522584838	-0.0095416304	 0.1004826231	-0.20511
C	 0.8189790468	-0.4034523277	-1.2283585092	 0.458804
C	 0.7997667046	-1.9119188342	-1.497514297	-0.205229
C	 1.3363151862	-2.2962564611	-2.8767357991	-0.396012
O	 0.1326944013	 0.2975771548	-2.2759768929	-0.30625
C	 1.0449000945	 1.1717674189	-2.9249792482	-0.09534
C	 2.1839859097	 1.3058084612	-1.9140392321	-0.110207
O	 2.1727499477	 0.0421919376	-1.2703978966	-0.287847
H	 0.6632724843	-1.7065607559	 1.3882590598	 0.117605
H	 1.871973073	-0.4133079145	 1.3640807964	 0.129343
H	 0.3552444881	-0.201681839	 2.2545420415	 0.110347
H	-0.9072576383	-0.2817994097	 0.0370868353	 0.103609
H	 0.1828333693	 1.0839925452	 0.16545699	 0.092833
H	 1.3891220475	-2.4025109937	-0.716052175	 0.108156
H	-0.2336921601	-2.2584339092	-1.3821482632	 0.100705
H	 2.3691381547	-1.9588270316	-2.9977921178	 0.122542
H	 1.3159757873	-3.3817344519	-3.010803833	 0.106721
H	 0.7306267746	-1.8458133288	-3.6677821977	 0.125695
H	 1.3991507774	 0.732378663	-3.8679812714	 0.099933
H	 0.5418061259	 2.1189249997	-3.1431543817	 0.108193
H	 3.1661962842	 1.4543290949	-2.3693530712	 0.113373
H	 1.9959113687	 2.1220192541	-1.2011828933	 0.099039
71.5098	97.9226	102.8416	177.8775	210.9649	216.6688	251.8307	275.9763	336.7011	374.4226	434.7039	561.0821	622.3672	661.0999	766.9162	772.7265	788.7385	899.3867	917.3338	953.134	954.0615	967.2481	1032.5369	1053.0227	1071.2378	1079.2551	1104.5511	1148.3307	1157.997	1184.6787	1224.1589	1231.2605	1249.9352	1298.4418	1319.823	1360.9539	1378.2293	1381.082	1387.9471	1401.9402	1408.2307	1472.9802	1478.1585	1493.992	1502.0746	1510.0227	1512.0061	1517.2688	1525.9923	2994.9293	3005.7269	3038.0827	3041.5131	3043.8967	3046.2283	3072.8581	3077.7395	3084.2817	3100.3935	3108.0414	3113.8123	3118.7217	3125.3258
CCC1(CC)OCCO1	CCC1(CC)OCCO1	
InChI=1S/C7H14O2/c1-3-7(4-2)8-5-6-9-7/h3-6H2,1-2H3	InChI=1S/C7H14O2/c1-3-7(4-2)8-5-6-9-7/h3-6H2,1-2H3
