23
gdb 112874	3.06516	1.04107	0.82449	2.7279	86.24	-0.2317	-0.0128	0.2189	1481.6779	0.205194	-388.342219	-388.332438	-388.331494	-388.377042	36.79	
C	 0.2554971066	 1.6689179366	 0.109213657	-0.390138
C	 0.0178891103	 0.1560283551	 0.063435053	-0.187459
C	 0.5238757804	-0.5197350314	-1.2189234189	-0.077304
C	 0.5890690217	-2.0566838451	-1.1900441116	-0.241097
C	 0.5946789018	-2.4848504582	-2.6738442726	 0.024616
C	 0.2783794657	-3.9601483682	-2.9070356695	-0.40454
C	-0.3995970023	-1.5024486556	-3.3167883069	-0.320642
C	-0.3118235562	-0.2243531719	-2.4766623474	 0.394566
O	-0.8318049008	 0.8280549351	-2.7537892203	-0.320398
H	 1.3260677044	 1.8982812662	 0.0533964521	 0.105981
H	-0.2401771251	 2.1629207937	-0.7283781831	 0.151183
H	-0.1262407679	 2.0947816785	 1.0424600467	 0.1063
H	 0.5128897704	-0.3206801892	 0.9190843804	 0.093725
H	-1.0535265091	-0.0547548742	 0.1752896378	 0.098368
H	 1.5322227889	-0.1354873277	-1.4449957179	 0.097599
H	 1.4536199615	-2.4358068642	-0.6374244595	 0.099574
H	-0.3097879127	-2.4541810282	-0.697380377	 0.097165
H	 1.5939974225	-2.2732910086	-3.079348717	 0.077315
H	-0.7155415581	-4.2126820852	-2.5192232746	 0.114091
H	 0.293025341	-4.2091422319	-3.9732459353	 0.116018
H	 1.0060764846	-4.6059294121	-2.4038185024	 0.114491
H	-0.234855691	-1.2929112533	-4.3768693163	 0.124414
H	-1.4283770869	-1.8797933603	-3.2243604665	 0.126174
56.4254	99.005	125.4853	188.0624	237.2049	252.2035	275.1658	294.4911	369.1897	422.0411	473.585	505.7651	582.4182	611.4864	711.0392	789.9248	848.8367	886.5612	907.7508	923.7185	951.7758	1001.4814	1026.2775	1036.1231	1075.277	1088.4662	1145.0492	1162.9386	1168.5382	1182.4259	1234.1964	1257.5367	1269.9513	1283.6982	1322.6163	1346.6288	1351.0306	1371.0989	1382.6016	1409.5468	1413.8735	1447.8871	1486.3938	1495.2458	1496.325	1497.7263	1501.0348	1516.4494	1832.4134	2977.8483	3001.8626	3012.9552	3018.5219	3021.96	3026.9325	3033.4122	3051.4566	3083.7707	3092.351	3095.6107	3097.8038	3100.0059	3140.353
CCC1CC(C)CC1=O	CC[C@H]1C[C@@H](C)CC1=O	
InChI=1S/C8H14O/c1-3-7-4-6(2)5-8(7)9/h6-7H,3-5H2,1-2H3	InChI=1S/C8H14O/c1-3-7-4-6(2)5-8(7)9/h6-7H,3-5H2,1-2H3/t6-,7+/m1/s1
