21
gdb 67217	2.61389	1.675	1.29972	1.0389	82.46	-0.2328	0.0795	0.3122	1074.1165	0.181621	-387.04746	-387.038782	-387.037838	-387.079886	34.85	
C	-0.0623626862	 1.5625396141	-0.0459345157	-0.532374
C	 0.0251155862	 0.0748361949	 0.0002303004	 0.374555
C	 0.0317499383	-1.0080513463	-1.0531608957	-0.132582
C	 1.3109026358	-1.6283244569	-0.4938264805	-0.253062
C	 0.9294233227	-0.9338192259	 0.8373458447	-0.175169
C	-0.396396326	-1.6122478689	 1.3141013902	 0.435753
C	-0.4541662409	-3.112975408	 1.5656687681	-0.472804
O	-0.9337359005	-0.9075333287	 2.4334250957	-0.487174
C	-1.0262015391	-1.0049680343	 0.0676497159	-0.139809
H	 0.887750909	 2.0192778098	-0.34786094	 0.114953
H	-0.8261254704	 1.8830510509	-0.7633469848	 0.11939
H	-0.3356111555	 1.9678279025	 0.9345628088	 0.13085
H	-0.2732622726	-0.923241384	-2.089452391	 0.080821
H	 1.4341085586	-2.7169463105	-0.4938171395	 0.085065
H	 2.1954906832	-1.1693812248	-0.9458150649	 0.096861
H	 1.6825720113	-0.6639572469	 1.5779158077	 0.056568
H	 0.1925062358	-3.393749451	 2.4074369242	 0.100875
H	-1.4787222995	-3.4041789616	 1.8174709002	 0.12366
H	-0.1384394435	-3.6917632632	 0.6947332718	 0.122079
H	-0.4245957339	-1.1684253302	 3.208787359	 0.27082
H	-2.0834834228	-0.9148751512	-0.1511351447	 0.080723
134.6875	196.3834	213.8265	220.3535	281.7111	300.3556	312.6901	382.13	400.49	472.3108	544.7332	589.8523	645.849	735.9876	792.9789	850.1627	870.5805	890.9206	924.3226	938.9763	955.5378	991.1589	1009.214	1020.0852	1050.3201	1083.8916	1112.3128	1118.3762	1134.652	1160.9584	1180.8682	1195.2007	1214.7102	1239.4033	1273.0084	1300.3034	1398.2729	1404.9698	1407.5166	1464.9766	1483.3365	1487.3728	1491.2996	1499.5152	1513.3044	3019.5229	3021.7079	3034.8712	3079.7298	3084.9791	3090.9837	3091.7864	3113.4819	3124.7745	3181.1567	3191.9671	3797.5507
CC12C3CC1C(C)(O)C23	C[C@@]12[C@H]3C[C@@H]1[C@@](C)(O)[C@@H]23	
InChI=1S/C8H12O/c1-7-4-3-5(7)8(2,9)6(4)7/h4-6,9H,3H2,1-2H3	InChI=1S/C8H12O/c1-7-4-3-5(7)8(2,9)6(4)7/h4-6,9H,3H2,1-2H3/t4-,5-,6+,7+,8+/m0/s1
