19
gdb 52622	3.64996	0.78127	0.74315	2.2065	87.22	-0.2485	0.0352	0.2837	1614.5635	0.153987	-385.834203	-385.822944	-385.821999	-385.871683	39.683	
C	 0.063502089	 1.4711539239	 0.040592508	-0.500633
C	 0.0228293055	 0.0159626034	 0.0164484332	 0.056926
C	-0.0271780234	-1.1874434244	-0.0118769279	 0.070312
C	-0.0392023805	-2.6579179298	-0.0501776223	 0.13328
C	-1.4728683207	-3.1993748017	-0.0229237985	-0.394686
O	 0.5275044252	-3.1324835363	-1.2709473119	-0.438101
C	 0.7882458144	-3.1822194029	 1.1688304299	-0.373668
C	 0.881122349	-4.6336438814	 1.2372619479	 0.328574
C	 0.9583814006	-5.8310131225	 1.3062562684	-0.46112
H	 0.9318015544	 1.8385612123	 0.5983110426	 0.149319
H	 0.1208163722	 1.8816661043	-0.9734399926	 0.152895
H	-0.8343816428	 1.8832185923	 0.5139757611	 0.152775
H	-2.021868117	-2.8233133879	-0.8883402546	 0.129899
H	-1.4475280807	-4.2906823843	-0.061442551	 0.1397
H	-1.9870378652	-2.883612906	 0.8881723824	 0.117993
H	 1.3641984264	-2.6740398908	-1.4049482985	 0.280933
H	 1.7933104758	-2.7469197362	 1.1066956936	 0.124819
H	 0.3407966808	-2.7874307259	 2.0886955436	 0.136533
H	 1.029319437	-6.8888235563	 1.3628103966	 0.19425
22.9491	65.6848	78.4951	123.8624	161.1703	232.7681	275.5392	284.44	307.4654	343.7734	353.7602	367.3414	385.3622	471.2209	553.6945	564.452	614.1393	642.2025	732.6334	842.9774	903.3901	953.0708	983.3943	1045.1398	1051.543	1054.2253	1093.7065	1155.4431	1202.2076	1247.7279	1323.2022	1380.2963	1410.1168	1414.0249	1461.3641	1477.0403	1478.326	1483.4162	1493.8408	2238.6482	2363.8265	3027.9358	3028.9724	3056.1408	3064.767	3090.544	3091.2657	3136.697	3143.1963	3506.6509	3808.2592
CC#CC(C)(O)CC#C	CC#C[C@@](C)(O)CC#C	
InChI=1S/C8H10O/c1-4-6-8(3,9)7-5-2/h1,9H,6H2,2-3H3	InChI=1S/C8H10O/c1-4-6-8(3,9)7-5-2/h1,9H,6H2,2-3H3/t8-/m0/s1
