22
gdb 122291	4.88179	0.71594	0.69848	1.6995	83.63	-0.2274	0.0767	0.3042	1704.3931	0.194272	-404.256109	-404.246908	-404.245964	-404.291114	33.832	
C	 0.0472279848	 1.3778055163	 0.0226664619	-0.229686
O	 0.0212958519	-0.0283700778	-0.0065786207	-0.227696
C	-1.2867872272	-0.554127593	 0.0219580329	-0.048825
C	-1.1978231408	-2.0753504429	-0.0138786936	-0.358237
C	-2.5509283803	-2.7476629143	 0.0140711743	 0.318093
C	-3.7357825932	-2.6403214717	-0.9829542713	-0.202136
N	-4.2883414838	-3.636539521	 0.0495768029	-0.144411
C	-2.882124917	-4.258338936	-0.0100723699	-0.21619
C	-3.6690054804	-2.6880928586	 1.0891648563	-0.202096
H	 1.0949358	 1.6872330309	-0.0018361875	 0.127315
H	-0.4728895013	 1.8155612657	-0.8446020781	 0.102811
H	-0.419941995	 1.7775173156	 0.9371568747	 0.102801
H	-1.8151344575	-0.2205257828	 0.9324767828	 0.086484
H	-1.8693496843	-0.1819094438	-0.8391680003	 0.086495
H	-0.654068603	-2.3753361877	-0.9180206901	 0.109275
H	-0.5989803806	-2.4133314738	 0.8406990983	 0.109305
H	-4.2979829966	-1.7026963645	-1.0243558174	 0.097287
H	-3.6099936291	-3.0709460948	-1.980904239	 0.098183
H	-2.6892874245	-4.813700613	-0.9328618354	 0.097876
H	-2.6311320914	-4.8553101976	 0.8718448074	 0.097884
H	-3.4798320005	-3.1640316629	 2.0560485269	 0.098184
H	-4.2259958202	-1.7542219023	 1.2098325351	 0.097284
59.4786	76.633	102.364	120.5652	229.0828	267.4955	310.8681	323.7735	462.8779	585.3706	587.4566	682.3914	762.683	797.1253	811.6395	898.2574	940.291	941.7177	970.6213	973.1129	1011.837	1024.808	1062.6577	1067.464	1152.8705	1163.0325	1166.1695	1168.257	1173.1517	1197.5345	1199.5166	1201.5838	1231.5037	1258.2044	1262.5681	1311.3138	1311.9326	1356.5201	1427.1121	1481.4047	1483.3987	1485.0587	1504.7211	1510.4218	1511.1007	1532.1753	1564.7086	2941.5376	2966.8074	2968.3319	3009.5009	3029.1828	3038.8032	3039.4688	3050.3948	3070.6336	3103.0146	3109.8032	3109.9778	3113.4596
COCCC12CN(C1)C2	COCC[C@@]12CN(C1)C2	
InChI=1S/C7H13NO/c1-9-3-2-7-4-8(5-7)6-7/h2-6H2,1H3	InChI=1S/C7H13NO/c1-9-3-2-7-4-8(5-7)6-7/h2-6H2,1H3
