20
gdb 84995	2.41646	1.48387	1.19328	1.8612	76.51	-0.2636	0.0261	0.2897	1151.4374	0.169178	-440.324643	-440.315175	-440.314231	-440.358537	35.481	
C	-0.005930682	 1.5013255693	-0.0900513764	-0.403148
C	 0.0462242285	 0.0081964982	 0.1323512792	 0.206791
O	 0.3783675818	-0.6719622277	-1.0928939905	-0.254247
C	 1.2437853295	-1.6805247661	-0.804556314	 0.376092
N	 1.7043896975	-2.5268969976	-1.6176381604	-0.544405
C	 1.566213387	-1.6202215374	 0.6843030492	 0.267403
C	 0.8287762759	-2.7331851953	 1.4419357976	-0.418919
C	 3.0658964782	-1.6436506956	 0.9511519696	-0.418343
O	 1.0546380888	-0.3252585173	 1.0468147331	-0.294384
H	 0.9628328807	 1.8547819242	-0.4509730214	 0.135029
H	-0.7785757222	 1.7469936959	-0.8227789902	 0.131942
H	-0.2411173606	 2.0027884383	 0.8522979004	 0.135054
H	-0.9315393187	-0.3815968226	 0.4615830591	 0.080883
H	 1.3304360457	-2.378545624	-2.5558570034	 0.224428
H	 1.192314595	-3.7102354653	 1.1138516008	 0.142624
H	 1.0015530231	-2.6272667923	 2.5165325794	 0.124428
H	-0.2493105718	-2.6944193315	 1.259026881	 0.119526
H	 3.5531531982	-0.800664218	 0.4557290498	 0.124319
H	 3.2611322572	-1.5802095354	 2.025424121	 0.119916
H	 3.4913604981	-2.57105471	 0.5615672359	 0.145012
90.0979	107.6925	195.406	211.6962	222.0912	232.4527	283.8758	296.9722	343.4966	404.7367	494.8478	526.861	610.3685	700.4609	703.7235	724.3164	869.8416	879.0921	890.8349	934.0268	944.1016	988.9515	1018.3566	1054.1949	1099.8762	1145.8642	1173.5784	1203.498	1213.6616	1249.6738	1323.3683	1388.424	1394.1329	1397.5712	1413.5119	1433.1715	1475.2791	1478.8657	1483.6401	1486.4066	1495.6617	1504.4493	1788.0195	2963.8147	3043.4919	3051.3727	3054.4468	3115.7714	3126.1152	3131.063	3134.8939	3140.8898	3141.7789	3479.8882
CC1OC(=N)C(C)(C)O1	C[C@H]1O[C]([NH])C(C)(C)O1	
InChI=1S/C6H11NO2/c1-4-8-5(7)6(2,3)9-4/h4,7H,1-3H3	InChI=1S/C6H11NO2/c1-4-8-5(7)6(2,3)9-4/h4,7H,1-3H3/t4-/m0/s1
