17
gdb 128349	3.33179	1.29882	0.94671	4.7819	73.01	-0.2067	0.0375	0.2442	1214.543	0.136225	-451.318338	-451.309167	-451.308223	-451.352529	32.503	
C	 0.0136474727	 1.4097249658	 0.0257014332	-0.324257
N	-0.0099398404	-0.0466048661	 0.1160912	-0.403451
C	-1.2212166692	-0.6733745088	 0.0196036846	 0.514949
N	-2.3689936667	-0.0643677102	 0.003372039	-0.248175
O	-3.3282787032	-1.1405905456	-0.0049311312	-0.252873
C	-2.6855407069	-2.3382752906	-0.0212229334	 0.485373
N	-3.1767164242	-3.5064535235	-0.0368617921	-0.620371
N	-1.3288461064	-2.0411452374	-0.0091538999	-0.169401
C	-0.2784168251	-3.0309683284	 0.0713316334	-0.359335
H	 1.0337877949	 1.7529795084	 0.2070281199	 0.128893
H	-0.3308946076	 1.7819823824	-0.9472906153	 0.136763
H	-0.642248417	 1.821667794	 0.7951753182	 0.165501
H	 0.7400315199	-0.5180111136	-0.3685221213	 0.251556
H	-4.192493405	-3.473528741	-0.0277677125	 0.230925
H	-0.7618051877	-3.9893892372	 0.2671257053	 0.188311
H	 0.2813595656	-3.1073913702	-0.8683416949	 0.133332
H	 0.4120584562	-2.7921136979	 0.8860020268	 0.142262
87.5063	104.5033	131.822	161.9878	191.8297	210.4597	281.3505	353.1784	380.0193	506.5067	562.3596	651.4098	686.6324	725.3253	752.8539	767.6077	780.5511	929.698	987.3968	1047.3682	1087.8404	1152.0329	1159.0219	1182.0149	1238.9538	1251.7314	1362.8463	1410.8062	1454.4223	1459.631	1483.4437	1496.7074	1510.9221	1516.3288	1585.868	1676.8398	1774.1866	3026.1294	3026.308	3090.4391	3107.1881	3146.4195	3149.6724	3544.4739	3601.192
CNC1=NOC(=N)N1C	CNC1=NO[C@H]([NH])N1C	
InChI=1S/C4H8N4O/c1-6-4-7-9-3(5)8(4)2/h5H,1-2H3,(H,6,7)	InChI=1S/C4H9N4O/c1-6-4-7-9-3(5)8(4)2/h3,5H,1-2H3,(H,6,7)/t3-/m1/s1
