19
gdb 109519	1.89445	1.39026	1.08623	0.8097	88.	-0.2388	0.0295	0.2683	1247.0059	0.156104	-348.680166	-348.67026	-348.669316	-348.714931	36.871	
C	 0.2488449965	 1.4829025214	 0.1605933146	-0.380401
C	-0.2010512143	 0.0504883023	-0.1483718606	-0.20266
C	 0.5935059278	-0.5711388531	-1.2748727149	-0.027261
C	 1.9313290687	-1.2466220418	-1.0241488084	-0.226445
C	 2.4780066878	-1.3569469881	 0.2941383348	 0.357948
C	 2.9617959542	-1.4404826171	 1.3923469962	-0.46828
C	 0.6981600638	-2.0755463486	-1.4439798025	-0.251213
C	 0.0689828959	-2.9783845968	-0.5283789134	 0.35783
C	-0.4692438908	-3.7519052148	 0.2190038895	-0.464579
H	 1.2938260506	 1.5010091694	 0.4847508958	 0.130235
H	 0.1577364984	 2.1289077047	-0.7198823683	 0.10993
H	-0.3596748867	 1.9200535301	 0.9579829418	 0.112995
H	-0.1094595812	-0.5703190251	 0.7473670202	 0.124541
H	-1.2631729096	 0.041683811	-0.4233590099	 0.101611
H	 0.5470603749	-0.0223509047	-2.2126915259	 0.095398
H	 2.6741193958	-1.1343183876	-1.8087710414	 0.118325
H	 3.3838158241	-1.523494302	 2.3629507788	 0.19692
H	 0.7375998827	-2.4336356144	-2.468897741	 0.118977
H	-0.9366945989	-4.434099795	 0.8846716146	 0.19613
75.5382	93.9353	109.5734	147.8196	221.307	239.2592	255.6803	350.1862	379.0469	428.3412	579.0405	591.1496	593.6583	625.3933	645.5386	653.6988	654.6525	742.163	785.7704	799.5467	828.8583	948.3141	985.0143	998.6777	1048.0633	1093.9067	1109.0455	1141.7051	1172.2298	1240.8508	1290.4308	1336.7843	1364.8539	1385.2198	1410.6556	1427.7767	1482.6357	1499.9621	1507.0011	2235.9023	2237.9133	3033.1854	3033.6002	3084.6664	3104.0636	3113.37	3132.4819	3140.0845	3152.2305	3505.2312	3505.9104
CCC1C(C#C)C1C#C	CC[C@H]1[C@@H](C#C)[C@H]1C#C	
InChI=1S/C9H10/c1-4-7-8(5-2)9(7)6-3/h1-2,7-9H,6H2,3H3	InChI=1S/C9H10/c1-4-7-8(5-2)9(7)6-3/h1-2,7-9H,6H2,3H3/t7-,8+,9-
