19
gdb 9825	3.71949	1.43081	1.15764	2.5696	72.42	-0.2502	-0.0197	0.2305	1093.2996	0.163947	-365.06858	-365.059536	-365.058592	-365.102361	32.742	
C	-0.1712234056	 1.6032431644	 0.3342822722	-0.378242
C	-0.3475537425	 0.1163856976	 0.6320155856	-0.293789
C	-1.2953111254	-0.5825165254	-0.3275143978	 0.331611
O	-1.8059227936	 0.004543401	-1.2614980762	-0.333895
C	-1.6086832078	-2.0418040172	-0.0890378443	 0.238308
C	-0.6598292986	-2.8888575957	 0.731010083	-0.478781
C	-3.0826556788	-2.3348938076	-0.0713953508	-0.24941
N	-2.2682163827	-2.7230649868	-1.2163855204	-0.338883
H	 0.5234062049	 2.0585081745	 1.0455178246	 0.110316
H	 0.2160527661	 1.7546942589	-0.6761554468	 0.134362
H	-1.1267070437	 2.1302510261	 0.3966489771	 0.131184
H	 0.6155257664	-0.4108564266	 0.5974646722	 0.129942
H	-0.7185050035	-0.0455148888	 1.6534353321	 0.126065
H	-0.5615846289	-2.5178185045	 1.7560248372	 0.118906
H	-1.032016527	-3.9149437727	 0.7730510366	 0.13512
H	 0.3388017643	-2.9188649119	 0.2818482406	 0.125883
H	-3.4384511812	-3.151998026	 0.551257122	 0.118983
H	-3.7636424806	-1.4952441236	-0.178629615	 0.126602
H	-2.3970516021	-2.0227467156	-1.9481050116	 0.245718
61.7322	83.5688	187.9039	192.9245	204.6529	278.1076	305.0055	341.35	361.0274	431.0268	569.7814	579.5878	717.1691	809.8795	825.5231	848.2109	947.0914	981.7264	1004.4892	1032.0304	1049.1483	1075.856	1106.3286	1110.7033	1120.1718	1166.0431	1276.8968	1293.8017	1330.3116	1365.0483	1380.9984	1413.5879	1419.99	1447.187	1488.4842	1492.0488	1496.1239	1497.0438	1499.5864	1773.6439	3020.7253	3037.34	3047.4862	3052.4038	3099.5944	3104.8479	3123.5011	3125.6421	3129.2647	3197.969	3459.7702
CCC(=O)C1(C)CN1	CCC(=O)[C@@]1(C)CN1	
InChI=1S/C6H11NO/c1-3-5(8)6(2)4-7-6/h7H,3-4H2,1-2H3	InChI=1S/C6H11NO/c1-3-5(8)6(2)4-7-6/h7H,3-4H2,1-2H3/t6-/m1/s1
