18
gdb 56553	2.54443	1.10866	1.0222	3.8724	73.62	-0.2545	0.0211	0.2756	1263.2052	0.146609	-435.317315	-435.30706	-435.306115	-435.353255	35.97	
C	-0.2055497033	 1.4453229026	-0.0638172192	-0.395404
C	 0.0467499838	-0.0690598887	 0.0348072757	-0.12552
C	 0.773389953	-0.5623003415	-1.1502025098	 0.273578
N	 1.3623677432	-0.9324404689	-2.0731089707	-0.327364
N	 0.7413817896	-0.4621734279	 1.2562068929	-0.103868
C	 2.1565767649	-0.1649687343	 1.4089991228	-0.363462
C	 0.0147264675	-1.1906557151	 2.1820302707	 0.470561
N	 0.7333772795	-1.6318085675	 3.2804743077	-0.575827
O	-1.185312578	-1.3832958028	 2.0727459703	-0.406345
H	 0.7291306835	 2.0124189537	-0.0662928983	 0.131165
H	-0.745274546	 1.6794206023	-0.9851876527	 0.14193
H	-0.8094082614	 1.7582599847	 0.790832884	 0.144887
H	-0.9185727413	-0.5814376228	 0.0805513001	 0.176933
H	 2.3716925659	 0.1348133181	 2.4378807053	 0.147121
H	 2.799722418	-1.0129513508	 1.1354682055	 0.138168
H	 2.4253458289	 0.6693391537	 0.758445667	 0.149583
H	 1.7024648283	-1.8827450558	 3.164838232	 0.257446
H	 0.1996586838	-2.277497269	 3.8421667868	 0.266419
37.0118	77.8252	129.2745	144.5519	182.7836	195.7476	229.7774	312.7078	349.9674	394.4576	436.8346	466.4928	551.0793	572.5922	589.1972	626.9523	757.8168	776.0348	851.0712	980.3485	1043.1045	1094.7342	1104.413	1121.5007	1147.0972	1206.6599	1286.4587	1339.641	1365.4577	1405.3901	1420.1631	1479.3145	1488.7895	1490.3154	1500.8698	1523.1475	1625.4097	1777.5776	2354.7896	3007.8177	3050.6238	3083.5563	3090.9279	3126.7697	3132.9065	3139.3274	3586.1149	3698.6638
CC(C#N)N(C)C(N)=O	C[C@@H](C#N)N(C)C(=O)N	
InChI=1S/C5H9N3O/c1-4(3-6)8(2)5(7)9/h4H,1-2H3,(H2,7,9)	InChI=1S/C5H9N3O/c1-4(3-6)8(2)5(7)9/h4H,1-2H3,(H2,7,9)/t4-/m0/s1
