18
gdb 40551	3.78421	1.19596	1.0258	2.9768	78.79	-0.2279	0.0046	0.2325	1187.5399	0.14904	-401.905018	-401.897494	-401.89655	-401.937407	29.264	
C	 0.1476114894	 1.5396954967	 0.0099638972	-0.244494
N	 1.2828811002	 0.6179213397	-0.0641402489	-0.305607
C	-0.0831383238	 0.0624874444	 0.0361456691	-0.148438
C	-0.4258649316	-0.6696865224	 1.268933107	 0.411906
C	-1.3423598205	-1.6377170664	 1.4022483701	-0.210249
C	-1.4638288366	-2.1377881593	 2.8268627266	-0.286522
C	-0.375303486	-1.356608241	 3.5541811683	 0.040118
O	 0.9444384139	-1.6106901792	 3.0715126894	-0.255131
C	 0.2521107913	-0.4393112386	 2.5874643134	-0.072352
H	 0.0836888435	 2.1156343371	 0.929341951	 0.119525
H	-0.1625181759	 2.0796010209	-0.8812845117	 0.115042
H	 1.6230128557	 0.5431935382	-1.0186359322	 0.236858
H	-0.5239220775	-0.3525917484	-0.8683459732	 0.081835
H	-1.9234933889	-2.0568419235	 0.58750359	 0.091894
H	-2.4541612442	-1.9267176	 3.2518282891	 0.109825
H	-1.3071687426	-3.2205017038	 2.9067059152	 0.123992
H	-0.4533698912	-1.1457109033	 4.6174493129	 0.092612
H	 0.7169353448	 0.5064260488	 2.8450736068	 0.099188
73.1273	139.0587	170.5473	307.4959	339.1164	407.7581	422.331	579.4986	674.0729	741.0948	799.7543	823.5684	857.7809	861.2307	864.6476	908.0492	918.6458	928.2097	956.5776	972.7629	1014.7293	1038.0624	1076.7158	1101.9453	1115.5349	1150.6006	1182.6161	1209.236	1239.9418	1258.6206	1280.9285	1288.4971	1309.8988	1375.1694	1412.375	1429.4177	1461.705	1514.4218	1696.4077	3021.7981	3058.496	3104.7268	3123.1688	3146.9362	3175.1606	3185.9358	3189.5405	3512.9895
C1NC1C1=CCC2OC12	C1N[C@H]1C1=CC[C@H]2O[C@@H]12	
InChI=1S/C7H9NO/c1-2-6-7(9-6)4(1)5-3-8-5/h1,5-8H,2-3H2	InChI=1S/C7H9NO/c1-2-6-7(9-6)4(1)5-3-8-5/h1,5-8H,2-3H2/t5-,6-,7+/m1/s1
