17
gdb 24414	3.52741	1.53045	1.10751	0.8648	74.22	-0.2133	0.0201	0.2335	1054.945	0.139197	-421.859853	-421.852989	-421.852045	-421.891119	27.236	
C	 0.0121207483	 1.4237769836	 0.0154018482	-0.073374
C	 1.4616268269	 1.9534878236	-0.0141641783	-0.342461
C	 2.1547090916	 1.1786706835	-1.0745547958	 0.300511
C	 1.7074564541	 0.030691939	-1.6438661385	 0.180461
C	 0.413784228	-0.5836894406	-1.197212371	-0.194208
O	-0.0364071887	 0.0067215397	 0.0162799904	-0.247719
C	 2.6860907789	-0.3342343537	-2.6288266198	-0.318085
C	 3.6483617578	 0.6230937972	-2.5644453634	-0.018237
O	 3.341490904	 1.5586989095	-1.6195900031	-0.195261
H	-0.5007863921	 1.7439451225	 0.926037638	 0.111252
H	-0.5398145202	 1.826476784	-0.8492883814	 0.094235
H	 1.4630676788	 3.0289930255	-0.2276948385	 0.116016
H	 1.9385318389	 1.8156998962	 0.9649813326	 0.12249
H	-0.3594307041	-0.4827421114	-1.979105991	 0.099572
H	 0.5223407044	-1.6528306864	-0.9851142826	 0.120527
H	 2.6792909838	-1.1901037088	-3.2861366773	 0.110783
H	 4.5735898498	 0.7813204069	-3.0930374287	 0.133499
115.0853	214.5965	275.4238	327.0383	366.9153	457.4682	520.2525	613.26	652.9036	706.9413	736.734	742.4445	816.5227	859.4915	916.3836	938.2523	973.3946	1026.1787	1064.3772	1084.012	1110.0642	1139.7123	1170.6035	1205.1395	1238.6759	1261.8092	1275.5387	1311.6291	1346.973	1377.2212	1417.4774	1457.2086	1479.28	1492.5439	1503.1725	1536.5508	1669.1951	2948.2016	2976.9119	3020.0815	3061.8301	3063.105	3094.4702	3249.9666	3285.4265
C1CC2=C(CO1)C=CO2	C1Cc2c(CO1)cco2	
InChI=1S/C7H8O2/c1-4-9-7-2-3-8-5-6(1)7/h1,4H,2-3,5H2	InChI=1S/C7H8O2/c1-4-9-7-2-3-8-5-6(1)7/h1,4H,2-3,5H2
