20
gdb 40733	3.17647	1.34736	1.29563	1.8546	77.83	-0.2245	0.0744	0.299	1085.2616	0.173151	-403.104839	-403.097085	-403.096141	-403.137398	30.517	
C	 0.5123446087	 1.3776798497	 0.3787241967	-0.235174
N	 1.4291297889	 0.2341225492	 0.1983525976	-0.30702
C	-0.0239273722	 0.0183368729	 0.1392169048	-0.021222
C	-0.6554547358	-0.8182655734	 1.2395968895	 0.114444
C	-0.2066138962	-2.3098157876	 1.2190198814	-0.270046
C	 0.4367442347	-2.5383516455	 2.5789372139	-0.064525
C	 1.6612790739	-1.7059002519	 2.9256015893	-0.323907
C	 0.2855712738	-1.2556373527	 3.3335300558	 0.106734
O	-0.3455686058	-0.2881110569	 2.5323312068	-0.27245
H	 0.4891037269	 1.7712577954	 1.3887032241	 0.139016
H	 0.4353795781	 2.1143680733	-0.4164018248	 0.106234
H	 1.8208638008	 0.2434117243	-0.7390650695	 0.230327
H	-0.4597731349	-0.1752242856	-0.8405487187	 0.081616
H	-1.7454154786	-0.7455650471	 1.1103503821	 0.076467
H	-1.0689609908	-2.9706772595	 1.0918356031	 0.101828
H	 0.4826975906	-2.499251647	 0.3904806952	 0.107144
H	 0.2997240547	-3.499501563	 3.0602808453	 0.085216
H	 2.3161830976	-2.0921204775	 3.7001726202	 0.101414
H	 2.1412483836	-1.1457828803	 2.1299459182	 0.151858
H	-0.013772538	-1.1926785167	 4.3739222292	 0.092049
86.6748	90.5841	211.5686	230.7512	300.6244	420.1978	447.0048	587.7206	679.7831	706.8449	755.4234	774.1607	812.6627	865.7552	886.5053	895.3261	916.8782	964.0254	965.9786	987.0114	1018.9919	1047.0205	1061.7276	1071.548	1099.859	1106.8064	1127.122	1130.652	1160.5496	1194.7591	1213.407	1221.5204	1265.1408	1282.9298	1303.5946	1308.626	1349.5667	1380.28	1394.3994	1433.9851	1473.0392	1494.7057	1505.2616	2987.7733	3049.8889	3090.4775	3109.5584	3119.8551	3123.6686	3166.8391	3177.6929	3217.7139	3223.0133	3506.8418
C1NC1C1CC2CC2O1	C1N[C@H]1[C@H]1C[C@H]2C[C@H]2O1	
InChI=1S/C7H11NO/c1-4-2-7(5-3-8-5)9-6(1)4/h4-8H,1-3H2	InChI=1S/C7H11NO/c1-4-2-7(5-3-8-5)9-6(1)4/h4-8H,1-3H2/t4-,5-,6-,7-/m1/s1
