14
gdb 127812	2.52528	1.9055	1.09345	2.6383	70.39	-0.2476	-0.0511	0.1965	1022.5006	0.101522	-466.15799	-466.150001	-466.149057	-466.191024	28.634	
C	-0.0111985934	 1.4127927844	-0.0119457207	-0.319484
N	-0.0727074864	-0.0458062541	 0.0061138454	-0.08513
N	-0.3434291381	-0.6252892205	-1.2118662683	-0.093498
N	-0.4166546065	-1.8713302532	-1.2993710942	-0.070941
N	-0.226107395	-2.6252592103	-0.1837107861	-0.312938
C	 0.055251549	-2.1954478824	 1.1113552233	 0.300734
N	 0.2297419879	-2.9251859504	 2.1361141601	-0.484854
C	 0.1426084168	-0.6998972351	 1.2126853575	 0.432363
O	 0.3756286502	-0.0923259725	 2.2294088621	-0.328734
H	 0.9740505865	 1.7508247864	 0.3174046375	 0.157456
H	-0.2024706582	 1.7329120349	-1.0345271913	 0.156587
H	-0.7603511625	 1.828252622	 0.6660090017	 0.157403
H	-0.3075109597	-3.6145631378	-0.3711042947	 0.272969
H	 0.1413395594	-3.9202137913	 1.9193962476	 0.218066
81.149	103.7287	129.5921	215.5864	316.5821	351.3617	473.3455	502.7556	523.3365	552.4837	571.9264	652.2877	682.3405	789.0346	863.8835	921.4793	991.7304	1032.6962	1107.7043	1141.5909	1153.6849	1269.5244	1303.0272	1381.6771	1441.0593	1459.9398	1475.5692	1505.2108	1597.2099	1727.6248	1808.9746	3062.318	3128.4521	3179.5511	3457.1252	3607.5369
CN1N=NNC(=N)C1=O	CN1N=NN[C]([NH])C1=O	
InChI=1S/C3H5N5O/c1-8-3(9)2(4)5-6-7-8/h1H3,(H2,4,5,7)	InChI=1S/C3H5N5O/c1-8-3(9)2(4)5-6-7-8/h1H3,(H2,4,5,7)
