21
gdb 83988	2.7377	1.52449	1.23589	1.0656	84.15	-0.233	0.0162	0.2491	1109.7441	0.183923	-387.077233	-387.068922	-387.067978	-387.10974	32.756	
C	-0.1490829734	 1.5482075726	 0.1062998283	-0.400061
C	 0.0138413937	 0.0481233472	 0.0048297601	-0.06106
C	 1.3465492628	-0.5670434264	-0.3214347294	 0.083765
O	 2.396328133	 0.3363986395	-0.4701081968	-0.238247
C	 3.6689312568	-0.1101756665	-0.0295358679	-0.05493
C	 3.6732558938	-0.7779736781	 1.3635047005	-0.285421
C	 2.7616998379	-0.103481939	 2.3611107697	-0.053179
C	 1.4352113248	-0.1031952267	 2.2189267408	-0.051783
C	 0.7582217402	-0.7585169899	 1.06550109	-0.133734
H	 0.7500564832	 2.0155860605	 0.5103312428	 0.135838
H	-0.3378372898	 1.9844129578	-0.8804199782	 0.116131
H	-0.9949148562	 1.8059307133	 0.7529362208	 0.109114
H	-0.8394649099	-0.4661501176	-0.4300957221	 0.082044
H	 1.3819020498	-1.4225382231	-0.9981985248	 0.07644
H	 4.1067886091	-0.8078073597	-0.7610493368	 0.087753
H	 4.2882486005	 0.7922032566	-0.0199949101	 0.108806
H	 3.3730984657	-1.8265164913	 1.2548569256	 0.1168
H	 4.7079792976	-0.7916267362	 1.7212103629	 0.100476
H	 3.2139500459	 0.3891773536	 3.2179486531	 0.086809
H	 0.80759938	 0.371497821	 2.9708441412	 0.085656
H	 0.3281840046	-1.7368318975	 1.2794347001	 0.088783
137.5218	145.1346	168.9792	209.5881	269.0206	329.9433	366.2686	405.3389	511.8514	588.8908	625.7942	714.3037	751.7423	786.1635	802.0441	856.9304	891.6574	912.1106	950.4142	981.2024	993.6647	1016.1767	1053.9406	1087.9167	1099.8348	1121.5263	1130.2781	1151.9668	1178.18	1220.9895	1236.9932	1269.5396	1279.1767	1335.6298	1359.6012	1362.4217	1405.1146	1415.7715	1422.5728	1441.2349	1486.3043	1493.1983	1500.8627	1507.8445	1707.1753	2978.3835	3035.9882	3036.4878	3067.6624	3077.7155	3085.8968	3090.9599	3098.3545	3130.4743	3135.8567	3146.1892	3166.2728
CC1C2OCCC=CC12	C[C@H]1[C@H]2OCCC=C[C@@H]12	
InChI=1S/C8H12O/c1-6-7-4-2-3-5-9-8(6)7/h2,4,6-8H,3,5H2,1H3	InChI=1S/C8H12O/c1-6-7-4-2-3-5-9-8(6)7/h2,4,6-8H,3,5H2,1H3/t6-,7+,8-/m1/s1
