22
gdb 106957	3.29067	1.08182	0.99404	1.6476	82.3	-0.2327	0.0664	0.2991	1312.6658	0.19269	-404.308378	-404.298704	-404.29776	-404.342486	37.203	
C	-0.1839836282	 1.5824684691	 0.0969633115	-0.440718
C	 0.0512455232	 0.0811810099	-0.0140189242	 0.357338
C	-1.2721642396	-0.6643602959	-0.1489230822	-0.421062
C	 1.1270918063	-0.4222017039	-1.0264164475	-0.36856
C	 1.8375615804	-1.0491921284	 0.1726253108	 0.337851
C	 2.3883643972	-2.4455005285	 0.2250759502	-0.172785
O	 3.6005157826	-2.5696373506	-0.5081826674	-0.412817
C	 2.1718819238	-0.0092343138	 1.1694213044	-0.300892
N	 0.7975298921	-0.5486942206	 1.1607261916	-0.202054
H	 0.7453819333	 2.1548116859	 0.1575479146	 0.112271
H	-0.7327089004	 1.9429723925	-0.7798581069	 0.118396
H	-0.781411178	 1.8092225704	 0.9865533665	 0.124883
H	-1.7925538973	-0.3680720498	-1.0660326764	 0.109618
H	-1.1076312118	-1.7453927533	-0.1779935946	 0.116399
H	-1.9212037123	-0.4486928273	 0.7058573533	 0.120263
H	 0.7377312931	-1.1524939628	-1.7390660568	 0.109022
H	 1.6931856881	 0.3350589977	-1.5761880343	 0.098442
H	 2.5072751621	-2.7479655407	 1.2772191573	 0.096007
H	 1.6911424169	-3.1499761245	-0.2413504343	 0.11049
H	 4.2275454079	-1.9413346105	-0.1344422756	 0.281561
H	 2.7236155639	-0.3125774226	 2.0553165356	 0.116014
H	 2.362082457	 1.0130587678	 0.8545113443	 0.110336
70.2814	108.1251	183.6704	220.1519	243.3216	257.5483	313.571	337.1763	373.828	393.5893	416.6638	440.2578	511.0103	628.1943	704.8039	808.9401	821.0518	838.9068	905.7196	933.8232	947.73	962.3839	985.1458	1005.3406	1021.7496	1060.7587	1097.4436	1116.7901	1126.1034	1177.8235	1189.2317	1210.9311	1277.775	1286.0361	1324.2795	1351.0294	1391.2086	1402.6975	1417.3391	1424.8369	1476.8408	1481.2545	1487.4108	1496.8211	1499.7577	1508.5624	1515.811	2986.1243	3030.9929	3036.1206	3056.3228	3068.7825	3098.3112	3105.9957	3106.9343	3109.3943	3113.8533	3114.835	3192.1114	3807.549
CC1(C)CC2(CO)CN12	CC1(C)C[C@@]2(CO)CN12	
InChI=1S/C7H13NO/c1-6(2)3-7(5-9)4-8(6)7/h9H,3-5H2,1-2H3	InChI=1S/C7H13NO/c1-6(2)3-7(5-9)4-8(6)7/h9H,3-5H2,1-2H3/t7-,8?/m0/s1
