22
gdb 87713	2.98242	1.13574	1.05829	1.9357	83.68	-0.222	0.0641	0.286	1289.6773	0.192529	-404.303534	-404.29378	-404.292836	-404.33781	36.964	
C	 0.0421483906	 1.6050898428	-0.0292646836	-0.426975
C	 0.0290704381	 0.086155837	 0.0284097033	 0.020304
C	 0.931975992	-0.7046700475	-0.9681250766	-0.331512
C	 1.2931004282	-1.6336800212	 0.2010521682	 0.397757
C	 1.1220236043	-3.1106376269	 0.2215759659	-0.324916
N	 2.4354634296	-2.4943528048	 0.3979171273	-0.12059
C	 3.3851548275	-2.615572167	-0.6980541528	-0.316271
C	 0.774276359	-0.6172096019	 1.2190495825	-0.000809
O	 1.8625740101	 0.1234431556	 1.7385250891	-0.424311
H	 1.060254713	 1.9866746891	 0.0932670391	 0.124976
H	-0.3399715698	 1.9644584543	-0.9906091487	 0.117288
H	-0.5842709278	 2.044723303	 0.7564072236	 0.106617
H	-0.9980191344	-0.2907300679	-0.0217751057	 0.070919
H	 0.4478057397	-1.1420866841	-1.844335944	 0.09775
H	 1.7876896764	-0.1060748189	-1.2977761492	 0.108357
H	 0.7160803388	-3.6189849164	 1.0933612261	 0.111219
H	 0.9018180185	-3.591344356	-0.7322540938	 0.100331
H	 2.919087121	-2.596824579	-1.6969915227	 0.098088
H	 4.1063482848	-1.7943815134	-0.6398625112	 0.128195
H	 3.9325700344	-3.5577062658	-0.59473619	 0.12095
H	 0.1404509013	-1.0073779825	 2.0273025113	 0.058159
H	 1.5041099745	 0.8335768415	 2.2808880218	 0.284475
62.365	133.063	187.5232	205.2326	214.859	244.3739	252.6367	304.4957	351.4643	380.1297	425.0144	510.2148	530.8458	611.8176	732.213	789.6657	846.8394	874.3973	909.3805	915.7815	955.25	1006.1324	1038.4062	1076.5864	1099.1644	1112.4138	1130.4328	1147.337	1163.5665	1171.2841	1197.0559	1213.697	1239.2557	1247.7226	1276.9802	1307.9005	1359.4524	1385.4084	1405.4142	1441.4097	1449.8864	1484.8934	1493.4646	1494.3848	1495.4266	1504.8038	1513.7576	2968.9674	2999.5674	3024.8219	3047.2075	3050.3165	3068.6138	3075.7343	3086.9445	3103.3719	3105.2487	3110.0853	3163.4711	3812.3744
CC1CC2(CN2C)C1O	C[C@H]1C[C@]2(CN2C)[C@H]1O	
InChI=1S/C7H13NO/c1-5-3-7(6(5)9)4-8(7)2/h5-6,9H,3-4H2,1-2H3	InChI=1S/C7H13NO/c1-5-3-7(6(5)9)4-8(7)2/h5-6,9H,3-4H2,1-2H3/t5-,6-,7-,8?/m0/s1
