17
gdb 86650	2.9409	1.30921	1.03144	6.8595	70.98	-0.2487	-0.0096	0.2391	1166.154	0.136891	-455.218298	-455.209763	-455.208819	-455.25189	30.917	
C	 0.2150736045	 1.5127450399	-0.001969526	-0.396578
C	-0.0672033989	 0.0078517995	-0.043224669	 0.019903
C	 0.6620413864	-0.7236812728	-1.1950902244	-0.187691
N	 1.8736219641	-1.2277806503	-0.5506638351	-0.147413
C	 2.9731791324	-1.6639746082	-1.2687642102	 0.157264
O	 3.9862001713	-2.129145686	-0.8207913313	-0.273281
C	 1.7202253198	-1.2576202398	 0.8640492379	 0.476669
O	 2.4985134169	-1.6794095057	 1.6754002323	-0.366626
N	 0.4727861267	-0.7102399997	 1.1054245437	-0.359506
H	 1.2924086324	 1.7072197098	 0.0079137561	 0.137406
H	-0.2213880825	 2.0112805038	-0.8736101737	 0.125354
H	-0.2206938607	 1.9642114717	 0.8950146303	 0.124765
H	-1.1459400365	-0.1607316225	-0.1200388414	 0.099938
H	 0.052580413	-1.549639197	-1.5800392275	 0.128284
H	 0.9008580191	-0.0512060021	-2.0228719876	 0.128848
H	 2.8024464812	-1.5160438277	-2.356130419	 0.075348
H	 0.2927784607	-0.4024523428	 2.0486030148	 0.257316
61.3145	116.8311	191.7423	211.8088	218.4784	260.4332	335.3039	425.9796	478.212	497.3815	533.3673	716.1031	755.5401	767.5421	808.4196	846.7548	946.8077	988.5702	1030.76	1052.9769	1136.8528	1145.2253	1191.624	1212.6186	1238.6446	1312.239	1329.1271	1384.0581	1407.2536	1415.0378	1423.0072	1457.3015	1494.1832	1495.8385	1519.2259	1807.6019	1893.4409	2906.8286	3029.6367	3034.6035	3054.8862	3095.2339	3107.8944	3114.4836	3637.2392
CC1CN(C=O)C(=O)N1	C[C@H]1CN(C=O)C(=O)N1	
InChI=1S/C5H8N2O2/c1-4-2-7(3-8)5(9)6-4/h3-4H,2H2,1H3,(H,6,9)	InChI=1S/C5H8N2O2/c1-4-2-7(3-8)5(9)6-4/h3-4H,2H2,1H3,(H,6,9)/t4-/m0/s1
