19
gdb 46898	3.35091	1.37993	1.06426	3.0536	77.47	-0.2402	0.0181	0.2584	1130.5852	0.161915	-419.18479	-419.17714	-419.176196	-419.216962	30.213	
N	-0.0346616961	 1.2782538089	 0.2261264821	-0.479896
C	 0.0152612697	 0.0364149133	-0.0210396501	 0.35205
C	-1.2705159634	-0.7662192504	-0.0794488066	-0.244286
C	-1.4192988571	-1.8000395298	-1.2035908006	-0.185426
N	-0.6982714375	-3.0232074749	-0.8533724341	-0.069934
C	 0.0907320064	-3.6917560433	-1.8770732879	-0.261491
C	 0.7598639632	-2.9237977009	-0.7850215076	-0.008561
C	 1.435347271	-1.6140003851	-1.1035114208	-0.111497
O	 1.2287767357	-0.6035855327	-0.105587471	-0.255216
H	 0.9152777325	 1.6538509884	 0.2785009281	 0.217251
H	-1.3753971937	-1.3036686535	 0.871798913	 0.136892
H	-2.0761278707	-0.0321248356	-0.1287242504	 0.133734
H	-2.4777990206	-2.0621545556	-1.3036550015	 0.114647
H	-1.1119139209	-1.371909834	-2.1708498521	 0.092842
H	 0.077004448	-4.777808798	-1.8561637895	 0.123065
H	 0.1111021126	-3.257942733	-2.8767040334	 0.111843
H	 1.1975177148	-3.4658140744	 0.0512239993	 0.101017
H	 2.5194278118	-1.7541990969	-1.1296649782	 0.12374
H	 1.1303470743	-1.2314130927	-2.0837704688	 0.109228
77.3148	172.7583	271.3489	282.7986	346.3985	355.2438	420.2471	479.1213	505.1094	605.352	706.4732	731.4466	763.3572	819.7269	894.9091	937.3222	948.7441	977.5107	1003.6365	1040.0315	1044.4704	1089.5246	1095.2802	1117.0325	1137.2067	1150.683	1182.5461	1230.5476	1263.0459	1289.7997	1318.2805	1336.0002	1362.9176	1383.054	1392.7589	1433.6028	1462.3712	1492.4304	1503.5997	1525.9881	1733.4493	2973.7402	3037.8756	3043.2377	3062.7423	3089.6777	3094.9674	3125.0858	3125.703	3180.7886	3455.2439
N=C1CCN2CC2CO1	[NH][C]1CCN2C[C@H]2CO1	
InChI=1S/C6H10N2O/c7-6-1-2-8-3-5(8)4-9-6/h5,7H,1-4H2	InChI=1S/C6H10N2O/c7-6-1-2-8-3-5(8)4-9-6/h5,7H,1-4H2/t5-,8?/m0/s1
