19
gdb 59031	3.15195	1.35715	1.04528	3.2487	76.11	-0.2503	-0.0012	0.2491	1166.2752	0.159956	-419.195523	-419.187084	-419.18614	-419.228657	32.153	
C	 0.3761561759	 0.7365816868	-0.8563481698	-0.398352
C	-0.0624692459	 0.0278296212	 0.4311412147	 0.070465
O	-0.0458226344	 0.9319036725	 1.5114506942	-0.442584
C	-1.4195754511	-0.6083581108	 0.2945626844	 0.32078
N	-2.376916444	-0.3379700084	 1.0909692874	-0.297002
C	-3.5330026969	-1.1641347449	 0.708824577	-0.194418
C	-3.0780373438	-1.908477589	-0.5470162405	-0.034376
C	-2.6376387569	-1.1067986717	-1.7105050658	-0.248353
N	-1.634815736	-1.5934280539	-0.7214662027	-0.155409
H	 1.3630636959	 1.1790272151	-0.7005062661	 0.131137
H	 0.4327501991	 0.0335813055	-1.6918872015	 0.12599
H	-0.3229137623	 1.5406309027	-1.1055582139	 0.118778
H	 0.6454015973	-0.7973990742	 0.6215144776	 0.095789
H	-0.9167795818	 0.8659823456	 1.9302280802	 0.291567
H	-3.7712464015	-1.8607200156	 1.5209858097	 0.124058
H	-4.415396669	-0.5329945095	 0.555957439	 0.122669
H	-3.358171077	-2.9468538089	-0.6877582369	 0.107789
H	-2.559617034	-1.5683799151	-2.6895985109	 0.129202
H	-2.8520315437	-0.0412533072	-1.7149477861	 0.13227
63.5301	131.1787	207.0129	251.5221	282.9154	303.5446	363.2881	373.6924	408.9354	486.6324	636.6628	734.4021	738.908	789.8318	827.1456	877.3818	921.7853	932.0897	986.3763	1005.0237	1050.3835	1079.1546	1087.1088	1104.1794	1110.5144	1138.1265	1166.9517	1206.1345	1215.0004	1267.2276	1301.6243	1337.7678	1359.4961	1371.9997	1396.9238	1445.129	1487.6669	1492.1752	1499.6734	1504.1679	1702.0901	2957.3507	3038.2458	3044.3465	3070.2202	3114.3486	3121.6297	3130.2189	3170.5921	3208.0002	3712.2183
CC(O)C1=NCC2CN12	C[C@@H](O)C1=NC[C@H]2CN12	
InChI=1S/C6H10N2O/c1-4(9)6-7-2-5-3-8(5)6/h4-5,9H,2-3H2,1H3	InChI=1S/C6H10N2O/c1-4(9)6-7-2-5-3-8(5)6/h4-5,9H,2-3H2,1H3/t4-,5+,8?/m1/s1
