15
gdb 6362	4.34398	1.2451	0.97982	3.4293	60.98	-0.2512	0.0081	0.2593	1120.8174	0.1194	-433.160948	-433.152368	-433.151424	-433.194424	30.803	
N	 0.1742558725	 1.2089315941	-0.0639868805	-0.560431
C	-0.3477171793	-0.0000992896	 0.3542906171	 0.47012
O	-0.6110556632	-0.2346985372	 1.5179862829	-0.381734
N	-0.4922277608	-0.9142542308	-0.677289545	-0.369873
C	-0.9512243826	-2.2321942992	-0.6083829653	 0.329438
N	-0.8826824258	-2.9188922093	-1.6770001891	-0.513588
C	-1.5090566281	-2.7420528875	 0.7186748048	-0.149725
O	-2.0491279971	-4.0417268524	 0.5727644811	-0.407901
H	 0.118439424	 1.9314718696	 0.6363638634	 0.268491
H	 0.022559836	 1.516950168	-1.0114182352	 0.255854
H	-0.1187265522	-0.6888753712	-1.5890428623	 0.25421
H	-1.2322439246	-3.8570865289	-1.4781994061	 0.227
H	-0.7034905377	-2.8035939021	 1.4541038106	 0.156532
H	-2.2334887366	-2.0280846657	 1.123115413	 0.131666
H	-2.9174838846	-3.9593576175	 0.1656527906	 0.28994
56.4346	99.0608	168.6657	189.7928	307.4243	317.3525	371.4236	383.8429	426.0433	497.54	528.5101	609.3404	644.9686	725.1356	771.2919	823.6777	911.3354	997.2104	1015.9328	1093.0647	1102.4327	1170.3585	1210.1241	1310.0206	1348.0068	1390.6239	1441.2345	1455.9073	1521.2442	1627.3105	1720.5458	1804.9991	3062.0744	3114.9578	3480.3607	3586.8727	3598.4733	3707.0015	3819.737
NC(=O)NC(=N)CO	NC(=O)NC(=N)CO	
InChI=1S/C3H7N3O2/c4-2(1-7)6-3(5)8/h7H,1H2,(H4,4,5,6,8)	InChI=1S/C3H7N3O2/c4-2(1-7)6-3(5)8/h7H,1H2,(H4,4,5,6,8)
