21
gdb 96104	2.70218	1.33549	1.02434	0.3765	78.56	-0.2417	0.0703	0.312	1216.3496	0.183834	-424.217571	-424.209168	-424.208224	-424.250182	33.482	
O	-0.0695912548	 1.4215246032	 0.0515042064	-0.430318
C	 0.0017251904	 0.0035675226	 0.0039439728	 0.099197
C	 0.7676004793	-0.5529967164	 1.2147286373	-0.099933
O	 0.7726342262	-1.9678119695	 1.2313303411	-0.243692
C	-0.5438593863	-2.4965079675	 1.316101597	-0.148641
C	-1.4023595416	-2.051982487	 0.1485885053	 0.367874
C	-1.4118829322	-2.9056784199	-1.09621044	-0.298269
C	-2.6232792649	-2.8616792783	-0.1944146761	-0.331455
C	-1.4274355412	-0.5389241638	 0.0121430668	-0.29126
H	 0.8215776658	 1.7711351173	-0.049807274	 0.283272
H	 0.5083910776	-0.3363224285	-0.9128043224	 0.073847
H	 1.8171473489	-0.2387108538	 1.190746082	 0.092602
H	 0.3096788668	-0.1459077802	 2.1329922991	 0.090249
H	-0.436630456	-3.5850077235	 1.3393908783	 0.100555
H	-1.0108439695	-2.1784172659	 2.2652696143	 0.085143
H	-1.4750585283	-2.4071855914	-2.0579763412	 0.111131
H	-0.8107160936	-3.8088095109	-1.1040719322	 0.114162
H	-2.8442354264	-3.7377081836	 0.4074448768	 0.110464
H	-3.5038141969	-2.3309178828	-0.5414460014	 0.112032
H	-1.955429083	-0.0881441	 0.8639103393	 0.103958
H	-1.9554838102	-0.2272053804	-0.8949254393	 0.099083
120.2655	142.3388	246.2515	274.4309	283.1698	340.8429	353.9478	394.3388	437.1402	458.9119	491.9833	570.6776	771.7774	782.6815	880.9379	890.9388	914.1266	950.7265	961.9692	968.9431	982.3211	1026.3996	1055.5439	1078.6201	1082.3478	1099.9756	1118.8279	1122.9226	1186.056	1198.6655	1239.5063	1261.3244	1310.4701	1316.3426	1338.4573	1344.0621	1365.3447	1403.342	1416.9403	1437.0809	1469.0856	1486.33	1488.7445	1500.5475	1511.6734	2949.0114	2960.594	2983.2883	3018.09	3063.0081	3074.4989	3081.2457	3124.2162	3129.7251	3201.8817	3216.634	3814.3458
OC1COCC2(CC2)C1	O[C@H]1COCC2(CC2)C1	
InChI=1S/C7H12O2/c8-6-3-7(1-2-7)5-9-4-6/h6,8H,1-5H2	InChI=1S/C7H12O2/c8-6-3-7(1-2-7)5-9-4-6/h6,8H,1-5H2/t6-/m1/s1
