14
gdb 28401	3.22943	1.4565	1.00442	3.3121	71.94	-0.1981	-0.0258	0.1722	1090.3642	0.102051	-470.042082	-470.034298	-470.033354	-470.074155	29.936	
N	 0.0888263554	 1.3275047561	 0.1596618345	-0.562764
C	-0.0564570332	-0.0263091955	 0.0558167264	 0.482096
N	-1.201778659	-0.6047383953	 0.0311884919	-0.352959
C	-1.1769256386	-1.9875255212	 0.0013301615	-0.149149
C	-0.0425988398	-2.7245516047	-0.016523987	 0.266487
O	 0.0264170949	-4.0809002959	-0.0486437886	-0.418385
C	 1.2452561948	-2.0484063188	-0.0047777731	 0.350649
N	 2.3746473287	-2.6160201075	-0.0288405349	-0.523126
O	 1.1476136923	-0.6486179751	 0.033513643	-0.258159
H	 0.9611665221	 1.7154824821	-0.1614474636	 0.268699
H	-0.7423499003	 1.8566558338	-0.0500200217	 0.274732
H	-2.150796201	-2.4713991603	-0.0109895571	 0.09951
H	-0.8701141674	-4.4344731768	-0.0507012117	 0.298823
H	 3.1278437911	-1.9282653609	-0.0114777195	 0.223544
112.0373	147.1815	318.5634	328.625	335.2284	380.743	403.2845	414.2034	479.2534	497.7139	540.0878	576.9355	730.1407	745.1019	752.3008	799.7693	844.4378	904.6448	973.6846	1011.4237	1105.2962	1182.5618	1245.3739	1290.9963	1308.9276	1408.6581	1471.5691	1607.3528	1653.9082	1684.8308	1763.7635	3153.9361	3494.1739	3598.0354	3719.4482	3811.0339
NC1=NC=C(O)C(=N)O1	NC1=NCC(=C([NH])O1)O	
InChI=1S/C4H5N3O2/c5-3-2(8)1-7-4(6)9-3/h1,5,8H,(H2,6,7)	InChI=1S/C4H6N3O2/c5-3-2(8)1-7-4(6)9-3/h5,8H,1H2,(H2,6,7)
