15
gdb 27331	3.32485	1.36526	0.96881	3.0485	74.35	-0.1975	-0.009	0.1885	1134.1372	0.11425	-453.976855	-453.969081	-453.968137	-454.008752	30.624	
N	 0.0347643713	 1.3604164675	 0.1508114283	-0.586904
C	-0.0095238611	-0.0160776848	 0.0534200117	 0.219133
C	-1.1400448842	-0.7480818918	 0.0268697379	-0.065122
O	-1.1402883926	-2.1319358062	-0.0119905615	-0.24052
C	 0.0373485809	-2.7655240702	-0.0153740522	 0.475748
O	-0.1006839176	-4.0992715391	-0.0410604392	-0.408435
C	 1.2329751939	-2.1385995351	 0.0006211566	-0.370887
C	 1.3054646602	-0.6966607888	 0.0170060374	 0.295621
N	 2.3545821162	 0.0539692557	-0.0072391908	-0.575693
H	 0.9601229345	 1.7065483156	-0.0785555615	 0.268366
H	-0.7262403634	 1.8749031371	-0.2636939341	 0.242805
H	-2.1487689223	-0.3628832295	 0.0413932319	 0.121035
H	-1.044652325	-4.3020363992	-0.0446276171	 0.309032
H	 2.1340143551	-2.7379099093	-0.0145754174	 0.108039
H	 3.2064277141	-0.5060441419	-0.0400601801	 0.207783
124.2119	185.7777	318.6096	332.1641	337.3527	366.136	389.7896	427.4039	449.9115	521.188	589.019	637.8894	673.7385	754.162	755.772	778.0455	797.291	812.1365	867.4326	942.1292	1095.0531	1131.4131	1187.8381	1228.159	1291.0782	1304.1097	1336.3016	1439.9936	1477.3938	1607.6411	1651.6994	1690.2219	1731.4259	3215.6884	3242.7505	3471.5696	3521.7283	3663.4287	3802.401
NC1=COC(O)=CC1=N	NC1=CO[C@@H](O)C=C1[NH]	
InChI=1S/C5H6N2O2/c6-3-1-5(8)9-2-4(3)7/h1-2,6,8H,7H2	InChI=1S/C5H7N2O2/c6-3-1-5(8)9-2-4(3)7/h1-2,5-6,8H,7H2/t5-/m1/s1
