19
gdb 61934	4.79699	0.6689	0.63448	2.2134	76.46	-0.2545	0.0315	0.2859	1728.2594	0.15921	-419.19185	-419.182313	-419.181369	-419.227199	34.243	
O	-0.8377295207	 0.8095945335	 0.1041576255	-0.429425
C	-0.2893591768	-0.4987940845	-0.0251408453	 0.074105
C	 0.6566589804	-0.6040617439	-1.2267643249	-0.208143
C	-0.054761335	-0.2483841707	-2.5471017929	-0.34156
C	 0.8531087001	-0.2473583906	-3.690566139	 0.255156
N	 1.5881782172	-0.2495432441	-4.5822487794	-0.302902
C	 0.3765129389	-0.9747487266	 1.2591895571	 0.012268
C	 1.0889390057	-0.0355878544	 2.1600636207	-0.249403
N	-0.2074203485	-0.6175479621	 2.5543547364	-0.322536
H	-0.1078048656	 1.4390175953	 0.1330034731	 0.287813
H	-1.1650834301	-1.1372919255	-0.2058225735	 0.102976
H	 1.5126844159	 0.0654265181	-1.0753768934	 0.118098
H	 1.0631460901	-1.6190505022	-1.2865965586	 0.128672
H	-0.8648217678	-0.9605286817	-2.7433600841	 0.154565
H	-0.5221311215	 0.7375027632	-2.4583010727	 0.162095
H	 0.7321054497	-2.0025253209	 1.2046509887	 0.097365
H	 1.9460529736	-0.3771910809	 2.7326759737	 0.126049
H	 1.119502132	 1.020673107	 1.9029178306	 0.095383
H	-0.9323620877	 0.0792040511	 2.3859832782	 0.239425
53.9694	73.431	113.494	122.2871	219.0159	274.486	281.6886	366.9601	380.4805	399.9337	477.93	581.3565	613.8438	770.1929	794.2376	864.4323	897.3203	945.4922	969.6828	971.2432	1002.0808	1043.4837	1070.5615	1088.4095	1122.8366	1157.5	1167.8008	1200.6651	1262.3101	1274.9153	1290.9839	1308.3775	1338.6318	1347.227	1388.7853	1411.6476	1426.1427	1470.6173	1489.6223	1511.3996	2363.0339	3018.694	3036.3106	3050.4499	3079.4656	3099.4243	3106.8745	3121.1161	3189.8418	3480.0125	3794.3106
OC(CCC#N)C1CN1	O[C@@H](CCC#N)[C@H]1CN1	
InChI=1S/C6H10N2O/c7-3-1-2-6(9)5-4-8-5/h5-6,8-9H,1-2,4H2	InChI=1S/C6H10N2O/c7-3-1-2-6(9)5-4-8-5/h5-6,8-9H,1-2,4H2/t5-,6+/m1/s1
