20
gdb 40647	3.19655	1.2519	1.21969	1.8881	79.51	-0.2167	0.0806	0.2973	1139.8161	0.172605	-403.094629	-403.086747	-403.085802	-403.127477	30.401	
C	 0.1115917435	 1.265942124	-0.112527233	-0.22443
C	 1.3155972025	 0.3912532129	-0.1753216861	-0.21801
N	-0.0113621542	-0.1834786146	 0.0197631953	-0.055171
C	-0.3060075471	-0.6874514182	 1.3292764037	-0.007057
C	-1.6440818952	-1.3541348726	 1.6063729814	-0.139101
C	-2.4595605124	-1.8402729487	 0.4166012548	-0.240869
C	-1.4762871462	-2.7338265092	-0.3772320694	-0.067179
O	-0.3935538347	-3.0647044056	 0.5025036956	-0.2604
C	-0.3833820512	-2.1780899825	 1.580292422	 0.080247
H	-0.0203668476	 1.8701949266	 0.783432403	 0.110524
H	-0.3073187244	 1.6964110946	-1.0176877931	 0.116703
H	 1.7911985149	 0.1704097017	-1.1264614258	 0.119304
H	 1.9904239228	 0.4097797456	 0.6786152342	 0.111959
H	 0.0930622005	-0.107333879	 2.1687681754	 0.067533
H	-2.1643466597	-1.1145187632	 2.5265781992	 0.086397
H	-3.315790853	-2.4144218862	 0.7845406644	 0.103312
H	-2.8421195295	-1.0282228051	-0.2077423969	 0.109027
H	-1.9278067367	-3.6729761274	-0.7141984175	 0.095743
H	-1.0851273944	-2.1919666955	-1.2421039917	 0.115206
H	 0.0871336821	-2.6066014375	 2.4585490744	 0.096261
71.9944	136.6842	145.7014	189.8758	304.3189	318.178	504.8868	598.7391	685.4324	733.457	762.2956	773.3304	811.9573	849.2264	880.365	898.0032	918.5562	961.5402	986.6518	1022.6134	1039.2344	1055.61	1071.8626	1105.8355	1116.4375	1118.8394	1130.08	1135.2277	1173.9872	1185.0448	1221.2261	1224.2279	1249.5179	1304.1492	1312.5951	1324.0646	1363.7532	1403.1947	1439.2543	1489.5431	1491.5868	1513.2744	1520.2565	3029.0362	3041.4047	3053.1353	3083.3134	3095.67	3100.8333	3104.1128	3166.5122	3176.6832	3178.1743	3193.1587
C1CN1C1C2CCOC12	C1CN1[C@H]1[C@H]2CCO[C@@H]12	
InChI=1S/C7H11NO/c1-4-9-7-5(1)6(7)8-2-3-8/h5-7H,1-4H2	InChI=1S/C7H11NO/c1-4-9-7-5(1)6(7)8-2-3-8/h5-7H,1-4H2/t5-,6+,7-/m1/s1
