14
gdb 19334	4.9605	1.73589	1.53022	4.6443	66.14	-0.2494	-0.006	0.2434	821.2367	0.107867	-341.503931	-341.497601	-341.496657	-341.534227	24.837	
N	 0.1452432943	-1.1014633583	 0.0542613707	-0.33667
C	 0.0530677519	 0.0507833448	 0.0003667262	 0.236181
C	-0.1145853392	 1.4707856099	-0.0539597054	 0.159684
C	 0.2593208888	 2.2848875672	-1.2415132888	-0.27363
N	 1.069572582	 2.4229578195	-0.0277214198	-0.157993
C	 0.3236800967	 3.2207845916	 1.0327662414	 0.008391
C	-1.0675869123	 3.6909144746	 0.7149863428	-0.309691
C	-0.8300692174	 2.2513552004	 1.0748467706	-0.110706
H	 0.7953981154	 1.7610447731	-2.0271033764	 0.150715
H	-0.3796616182	 3.0859507864	-1.5926831775	 0.135052
H	 0.9298900016	 3.6344339608	 1.8267822425	 0.120757
H	-1.5050206698	 4.2648266932	 1.5266474236	 0.133386
H	-1.4007997915	 4.0182639861	-0.2627302859	 0.125674
H	-1.2863867523	 1.7504405206	 1.9165777659	 0.118849
152.0644	162.4799	328.8878	441.218	479.9934	531.9966	546.7208	599.5411	709.3419	749.9638	776.2116	832.6409	900.8077	930.2398	945.1854	969.0562	1024.7065	1063.4601	1067.8978	1084.2481	1115.4945	1137.4551	1174.0663	1211.0404	1279.0109	1308.7303	1360.0812	1466.9248	1513.7006	2347.3102	3129.8758	3141.8579	3206.6006	3209.8233	3222.8742	3226.5204
N#CC12CN1C1CC21	N#C[C@]12CN1[C@H]1C[C@@H]21	
InChI=1S/C6H6N2/c7-2-6-3-8(6)5-1-4(5)6/h4-5H,1,3H2	InChI=1S/C6H6N2/c7-2-6-3-8(6)5-1-4(5)6/h4-5H,1,3H2/t4-,5+,6-,8?/m1/s1
