16
gdb 19664	4.45415	2.05419	1.93748	2.2342	62.66	-0.2376	0.0701	0.3077	735.6903	0.132838	-383.690029	-383.684173	-383.683229	-383.719659	24.378	
O	 0.0673185946	 1.498391151	-0.0647786521	-0.435486
C	 0.0304832554	 0.0946581969	 0.0239922962	 0.137225
C	 0.1580496003	-0.6189225822	 1.405576927	-0.158332
C	-0.9085991309	 0.123168511	 2.2333991985	-0.202801
C	-2.0707521864	-0.3839436126	 1.3585946562	 0.071675
O	-1.9936279117	-1.8249153988	 1.5960054644	-0.292827
C	-0.8104555693	-1.7472280256	 0.7983752359	 0.107365
C	-1.3457831697	-0.560143938	-0.0370469314	-0.103861
H	 0.9834417882	 1.784784902	 0.0072593728	 0.284607
H	 0.690724246	-0.3716303672	-0.7215370602	 0.069148
H	 1.1242210422	-0.8449804469	 1.8533007867	 0.063764
H	-1.0140250758	-0.2362586808	 3.2582333449	 0.103073
H	-0.768698494	 1.2046359647	 2.2137158249	 0.110425
H	-3.0722578826	 0.0274604193	 1.4685338219	 0.082716
H	-0.4164723525	-2.6936282788	 0.4338128878	 0.084996
H	-1.9516534039	-0.659140234	-0.9349841434	 0.078314
213.4182	284.122	308.74	474.5868	538.5967	568.0892	706.1843	727.0062	762.3875	825.5213	840.7602	854.6061	917.4667	935.8343	963.4086	980.2949	993.073	1011.5128	1039.9356	1072.5699	1129.3017	1131.6712	1156.3033	1166.3622	1199.3614	1225.6987	1231.3154	1265.2372	1275.4086	1321.3776	1326.6468	1341.7783	1437.5217	1476.3775	2999.8386	3084.1586	3130.3017	3138.3067	3141.1419	3145.0714	3152.3109	3815.7076
OC1C2CC3OC2C13	O[C@H]1[C@H]2C[C@@H]3O[C@H]2[C@H]13	
InChI=1S/C6H8O2/c7-5-2-1-3-4(5)6(2)8-3/h2-7H,1H2	InChI=1S/C6H8O2/c7-5-2-1-3-4(5)6(2)8-3/h2-7H,1H2/t2-,3+,4+,5+,6-/m1/s1
