16
gdb 42219	3.60743	1.17129	1.01409	3.9339	75.08	-0.2877	-0.0873	0.2004	1165.3787	0.124797	-400.711755	-400.704113	-400.703169	-400.744724	28.367	
O	 0.5120259008	 0.4330266189	-0.911030215	-0.272686
C	 0.0670981494	 1.1413773133	-0.0414906967	 0.2694
C	 0.8689609046	 1.3969870091	 1.1821767049	 0.219199
N	 1.4805930704	 1.6029898498	 2.1418479488	-0.30226
C	-1.2623268412	 1.835522451	-0.0462754433	-0.078499
C	-2.2707422964	 1.6043328603	-1.2071248854	-0.057011
C	-2.5436875784	 0.1773503108	-0.6369741978	-0.224591
C	-2.5140040312	 1.1197739771	 0.5996350585	-0.051712
C	-3.373883582	 2.1149436385	-0.2309578697	-0.224437
H	-1.1300407723	 2.8695773605	 0.2925003382	 0.103671
H	-2.1212155531	 1.8850015253	-2.2488896644	 0.092127
H	-3.5192509675	-0.2514637618	-0.8773170518	 0.101021
H	-1.7490807988	-0.5604156029	-0.7386912425	 0.125203
H	-2.6252100918	 0.8567894538	 1.6515050452	 0.095718
H	-3.3346318361	 3.1679472789	 0.0597783435	 0.10062
H	-4.3945588863	 1.7941289274	-0.4502756624	 0.104237
49.0677	114.9619	185.6385	228.206	298.5735	419.4322	448.8741	570.095	618.0668	682.0569	777.3676	815.1139	881.9502	890.7023	902.1305	911.1134	917.0621	1011.3358	1025.6714	1046.3418	1079.8662	1097.1116	1112.8838	1126.5766	1157.2601	1194.2952	1209.4576	1235.5051	1244.1991	1262.3286	1391.7066	1504.0749	1542.4346	1785.9102	2334.4567	3047.9628	3058.1745	3075.5726	3118.325	3126.3877	3127.3052	3154.1913
O=C(C#N)C1C2CC1C2	O=C(C#N)[C@H]1[C@H]2C[C@@H]1C2	
InChI=1S/C7H7NO/c8-3-6(9)7-4-1-5(7)2-4/h4-5,7H,1-2H2	InChI=1S/C7H7NO/c8-3-6(9)7-4-1-5(7)2-4/h4-5,7H,1-2H2/t4-,5+,7-
