15
gdb 24668	4.59714	1.14521	0.97593	2.6135	73.69	-0.2539	-0.0442	0.2097	1158.1616	0.115124	-416.830939	-416.823931	-416.822987	-416.863069	25.906	
C	 0.1531977585	 1.5206949243	 0.01603531	-0.177277
O	 1.1823346344	 0.5518242352	-0.166793151	-0.225027
C	-0.1529601335	 0.076554723	 0.0145585465	-0.027375
C	-0.4369771894	-0.6714673912	 1.2657737724	 0.207175
C	 0.4235471276	-0.6500045331	 2.3648601309	-0.042674
N	 0.1614361527	-1.3045059322	 3.4964441237	-0.248718
C	-0.9789769231	-1.9972922788	 3.5210476065	 0.078439
N	-1.8684607707	-2.1146918593	 2.533886849	-0.250372
C	-1.5828443964	-1.4512808226	 1.41307083	-0.046564
H	 0.1738581736	 2.0541434498	 0.9650354924	 0.124775
H	-0.0867696174	 2.1219416067	-0.8595758781	 0.128458
H	-0.6104770651	-0.3358445013	-0.8855290366	 0.106628
H	 1.3584827378	-0.0983256242	 2.3133967255	 0.134372
H	-1.2039323473	-2.5291653947	 4.4421213271	 0.123103
H	-2.2972031016	-1.5466622115	 0.5962142618	 0.115057
63.9834	149.1499	188.1557	310.3838	396.1032	418.1982	544.9477	609.9241	641.9861	756.6348	794.62	864.4972	908.0817	940.2747	1000.8153	1008.421	1025.5438	1058.2963	1094.5854	1138.5439	1154.4022	1169.092	1212.229	1235.4759	1253.7058	1289.9312	1365.9071	1413.297	1457.9097	1471.5141	1522.9697	1596.8819	1628.2504	3085.7336	3104.6031	3137.3262	3169.165	3173.3462	3178.8975
C1OC1C1=CN=CN=C1	C1O[C@H]1c1cncnc1	
InChI=1S/C6H6N2O/c1-5(6-3-9-6)2-8-4-7-1/h1-2,4,6H,3H2	InChI=1S/C6H6N2O/c1-5(6-3-9-6)2-8-4-7-1/h1-2,4,6H,3H2/t6-/m1/s1
