18
gdb 19977	3.70716	1.55149	1.21393	2.2538	68.6	-0.2438	0.0627	0.3065	1018.7172	0.153339	-384.897739	-384.889605	-384.88866	-384.931103	29.599	
O	 0.0363540219	 1.3225576133	-0.3373047403	-0.420698
C	 0.0312455312	-0.0463183879	-0.0057037362	 0.042305
C	 0.0661589906	-0.3944560801	 1.4983470054	-0.096899
O	-1.2901344147	-0.8747029589	 1.4653869566	-0.293663
C	-1.4018159412	-0.6387972316	 0.0355432149	 0.10879
C	-2.5480083063	 0.2485583632	-0.3344642752	 0.039209
C	-3.176471197	 0.11777846	-1.7014696892	-0.268648
C	-3.9234324763	-0.3549162468	-0.4833456831	-0.275697
H	 0.9404353934	 1.6459434986	-0.2751649511	 0.288096
H	 0.7379692855	-0.6103086807	-0.6271828153	 0.072714
H	 0.7770991432	-1.1779965808	 1.7921571743	 0.093224
H	 0.184977491	 0.475001874	 2.1574135414	 0.099053
H	-1.4829879366	-1.5958734553	-0.5005432859	 0.065064
H	-2.4911370249	 1.2481903033	 0.0803006337	 0.095962
H	-3.5043320267	 1.0253038973	-2.1950806598	 0.114313
H	-2.7776837567	-0.6328278868	-2.3764312664	 0.108468
H	-4.0269429963	-1.424083915	-0.3307500705	 0.115046
H	-4.7706314801	 0.2259816942	-0.1369353032	 0.113361
50.8411	73.5492	156.8736	223.9937	254.4072	296.3124	416.0475	435.6058	538.5939	762.7042	794.5961	825.9489	838.8475	884.5712	918.3271	928.5289	977.0779	1017.9841	1027.4434	1061.0357	1067.0846	1077.1681	1132.8722	1144.4637	1165.993	1188.7258	1196.6538	1222.702	1235.5243	1278.8924	1311.1297	1323.2892	1344.4995	1431.3113	1440.9826	1470.7404	1504.687	1512.4206	2989.4704	3003.1971	3022.8983	3054.418	3131.3388	3136.1036	3180.7764	3209.8213	3225.2265	3822.5
OC1COC1C1CC1	O[C@H]1CO[C@H]1C1CC1	
InChI=1S/C6H10O2/c7-5-3-8-6(5)4-1-2-4/h4-7H,1-3H2	InChI=1S/C6H10O2/c7-5-3-8-6(5)4-1-2-4/h4-7H,1-3H2/t5-,6-/m0/s1
