20
gdb 121435	2.25772	0.92667	0.68954	2.8807	86.73	-0.2389	-0.0363	0.2026	1679.5455	0.169322	-399.348228	-399.337275	-399.33633	-399.385345	37.513	
C	-0.0335503231	 1.5498965676	 0.0695906898	-0.381028
C	-0.0709205428	 0.0240306459	-0.0385130068	-0.154487
C	 0.7098323436	-0.4969132067	-1.2534156114	-0.163962
N	 0.7344806495	-1.9460611149	-1.2682011295	-0.300582
C	 0.200044484	-2.6080985233	-2.2165130494	 0.308419
N	 0.1290257976	-3.977907521	-2.2082003878	-0.333546
C	 0.8134918795	-4.7377988135	-1.1794651138	-0.316166
C	-0.422015862	-2.0124898907	-3.3975066957	 0.229213
N	-0.9004870799	-1.5313363184	-4.3338146367	-0.335302
H	 0.9941390745	 1.9164224244	 0.1709842084	 0.115218
H	-0.4675021245	 2.0238053963	-0.8177361675	 0.119965
H	-0.5972696445	 1.8973304778	 0.9404837143	 0.114955
H	 0.3457526297	-0.4338673845	 0.8656882552	 0.106296
H	-1.1089977147	-0.3226985482	-0.1117989627	 0.099143
H	 0.2904158589	-0.062512975	-2.1745106619	 0.108898
H	 1.7488460689	-0.148332742	-1.1784362486	 0.107169
H	-0.0521781932	-4.428022249	-3.0898624228	 0.261154
H	 1.9004578568	-4.5875946784	-1.2050883076	 0.13435
H	 0.4603197286	-4.4244060282	-0.1941146451	 0.153713
H	 0.589679413	-5.7966921882	-1.3214177103	 0.12658
43.8347	84.0732	90.6591	128.2541	144.2856	151.0745	215.7001	240.8909	292.6314	326.8633	366.7323	379.3104	449.0187	542.1722	631.5161	718.9893	758.534	800.5028	899.827	900.2009	1035.1568	1060.0605	1080.5003	1124.5899	1153.0464	1180.2367	1208.5047	1268.1507	1293.5707	1318.471	1335.6207	1395.6069	1414.7831	1454.7213	1473.0492	1487.9475	1498.4521	1500.4627	1504.8961	1514.1736	1537.019	1713.009	2343.2354	2980.911	3023.1124	3026.0123	3030.8896	3035.5732	3069.9564	3097.8973	3099.5869	3105.8073	3141.0171	3652.8516
CCCN=C(NC)C#N	CCCN=C(NC)C#N	
InChI=1S/C6H11N3/c1-3-4-9-6(5-7)8-2/h3-4H2,1-2H3,(H,8,9)	InChI=1S/C6H11N3/c1-3-4-9-6(5-7)8-2/h3-4H2,1-2H3,(H,8,9)
