17
gdb 61435	3.36865	0.98454	0.7956	14.6307	68.8	-0.1802	-0.0554	0.1248	1369.7102	0.134084	-492.30444	-492.295467	-492.294522	-492.3389	33.018	
N	 0.1709475219	 1.3219051886	 0.5165109488	-0.515698
C	-0.0379620398	 0.1165944587	-0.0074432694	 0.460787
N	 0.9408137585	-0.661577375	-0.4074366996	-0.466149
H	 0.6018514899	-1.4867058004	-0.9709424725	 0.333305
H	 1.9058609855	-0.3685078131	-0.395275702	 0.271037
C	-1.4293732309	-0.4130903944	-0.1495194323	-0.296649
C	-1.6656340223	-1.0855571248	-1.5245126886	-0.043782
O	-0.6793597215	-2.059555039	-1.8073922119	-0.467806
C	-3.0448555777	-1.8530377262	-1.4414008096	 0.380129
O	-4.0406863165	-1.1876550249	-1.1652144152	-0.459943
O	-2.8615832379	-3.0870761487	-1.6341999117	-0.488511
H	 1.0918027535	 1.7193573028	 0.6201485988	 0.282314
H	-0.614708945	 1.8717085735	 0.8221700684	 0.301583
H	-1.5670987629	-1.1722767243	 0.6306793889	 0.16526
H	-2.1809304017	 0.3631483934	 0.0040630699	 0.145908
H	-1.6893350363	-0.3156211439	-2.3062791145	 0.081398
H	-1.318882537	-2.8694337022	-1.7971993274	 0.316816
65.4523	85.1116	102.7653	152.0732	279.749	345.6533	395.0394	420.9276	460.182	509.6714	538.9183	550.1191	590.0207	667.3394	731.5552	772.1191	857.7464	881.2437	919.7028	947.0431	985.7659	1037.5486	1074.9584	1096.849	1183.0965	1189.7015	1215.8917	1269.4676	1313.1455	1352.6461	1424.0042	1447.7177	1482.0228	1575.7365	1663.4011	1709.0767	1815.584	2703.3035	2899.4592	3025.9164	3044.0239	3130.164	3591.1412	3636.9785	3715.9169
NC(=[NH2+])CC(O)C([O-])=O	NC(=[NH2])C[C@@H](O)C(=O)[O]	
InChI=1S/C4H8N2O3/c5-3(6)1-2(7)4(8)9/h2,7H,1H2,(H3,5,6)(H,8,9)	InChI=1S/C4H8N2O3/c5-3(6)1-2(7)4(8)9/h2,7H,1,5-6H2/t2-/m1/s1
