15
gdb 7119	7.42526	0.9513	0.85224	5.0684	61.07	-0.2626	-0.017	0.2456	1300.9501	0.117402	-437.00171	-436.992948	-436.992004	-437.036212	29.176	
C	 0.0712157638	 1.5615593244	-0.1668618019	-0.393736
C	 0.0057103843	 0.058204277	 0.0165974963	-0.039989
O	 0.642147366	-0.5474547263	-1.1285078673	-0.279784
C	 0.6645366301	-1.8988009794	-1.121608474	 0.546262
O	 0.2110611852	-2.6035207753	-0.2654755193	-0.354474
N	 1.3097674101	-2.3142908785	-2.2896210635	-0.393549
C	 1.5549442496	-3.619986535	-2.6944476686	 0.165667
O	 1.2534319892	-4.6212008302	-2.1075629083	-0.253295
H	 1.1079736538	 1.9036602758	-0.2306806252	 0.130849
H	-0.4508868991	 1.8682432446	-1.0775356388	 0.130858
H	-0.402918207	 2.0571443847	 0.6852090259	 0.128972
H	 0.5257441135	-0.2686987513	 0.9220632276	 0.129405
H	-1.0247243207	-0.3042143875	 0.0791876887	 0.129594
H	 1.6269828088	-1.5736233328	-2.8973599612	 0.265652
H	 2.0857394825	-3.6161450901	-3.6680765604	 0.087567
44.708	72.471	128.6807	134.6416	233.2349	234.1648	264.0093	352.0938	426.7888	604.3748	624.3559	782.7728	810.6573	831.7913	927.5637	967.3063	1030.492	1056.296	1136.1929	1172.467	1184.7024	1220.2434	1293.3928	1396.1908	1421.7138	1447.117	1485.9024	1496.9737	1509.2316	1527.37	1821.7994	1889.6628	2929.3678	3047.5229	3056.9316	3095.7358	3123.1247	3127.9124	3623.3701
CCOC(=O)NC=O	CCOC(=O)NC=O	
InChI=1S/C4H7NO3/c1-2-8-4(7)5-3-6/h3H,2H2,1H3,(H,5,6,7)	InChI=1S/C4H7NO3/c1-2-8-4(7)5-3-6/h3H,2H2,1H3,(H,5,6,7)
