21
gdb 77426	1.90569	1.66761	1.64098	2.0325	83.67	-0.1959	0.0732	0.2691	1072.1038	0.180126	-383.169075	-383.159672	-383.158727	-383.202396	36.157	
C	-0.2003369306	 1.5259933933	-0.0720175738	-0.295512
N	 0.1998353901	 0.1259460304	 0.0693002041	-0.155303
C	 1.4199145861	-0.54382135	-0.2788647348	 0.271437
C	 1.466318723	-1.5828849393	-1.3607960122	-0.490474
C	 2.7237546393	 0.1696928618	 0.2524875505	-0.121275
N	 2.3573406461	 1.4462985665	 0.9129919732	-0.340476
C	 2.1939638869	 0.156816958	 1.6276819858	-0.121261
C	 0.8749306905	-0.5567892265	 1.1353839069	 0.271443
C	 0.1897206797	-1.6132241821	 1.9519640673	-0.490467
H	 0.4562523494	 2.0650827242	-0.7579354584	 0.12335
H	-1.2246357927	 1.5560794705	-0.4660405688	 0.096303
H	-0.1763421659	 2.0502204423	 0.8854882531	 0.123384
H	 1.6145218161	-1.1198537365	-2.3445333464	 0.120038
H	 2.291261719	-2.286489111	-1.1998809539	 0.113597
H	 0.5285451752	-2.1434823793	-1.3909299762	 0.128431
H	 3.7296446544	-0.0197935791	-0.1005204171	 0.088544
H	 3.2248332801	 1.8639390096	 1.2511950239	 0.227643
H	 2.704244624	-0.0447157518	 2.5611335127	 0.088547
H	-0.3632410446	-1.1668618273	 2.7880838707	 0.120036
H	-0.5224294464	-2.1683615808	 1.3361234393	 0.128423
H	 0.9136293302	-2.3193107928	 2.3749072842	 0.113591
128.8347	166.5761	188.6706	188.7605	213.7375	239.9018	266.7785	290.5582	318.2662	410.155	557.9631	593.3127	606.4966	678.5966	735.5943	752.6903	814.4704	850.5504	864.0155	867.0638	907.6718	993.0429	1057.9772	1064.1271	1097.0734	1104.1879	1113.0377	1130.9731	1150.5358	1189.0819	1191.3335	1228.297	1278.9085	1299.7056	1345.8974	1402.4436	1405.3693	1438.1864	1466.6259	1480.3001	1482.1676	1489.8311	1493.1085	1499.972	1516.9822	3010.2972	3019.975	3021.7919	3076.3924	3077.3177	3090.8478	3116.5749	3118.927	3130.2413	3184.9988	3198.7369	3460.3075
CN1C2(C)C3NC3C12C	CN1[C@@]2(C)[C@H]3N[C@H]3[C@@]12C	
InChI=1S/C7H12N2/c1-6-4-5(8-4)7(6,2)9(6)3/h4-5,8H,1-3H3	InChI=1S/C7H12N2/c1-6-4-5(8-4)7(6,2)9(6)3/h4-5,8H,1-3H3/t4-,5+,6-,7+,9?
