21
gdb 41932	3.18026	1.44729	1.05697	1.2655	83.55	-0.2392	0.0217	0.2609	1162.501	0.186185	-387.110525	-387.102931	-387.101987	-387.14262	30.427	
C	-0.043728075	 1.4228763317	 0.041765357	-0.07602
C	 1.4219467034	 1.9484790862	-0.0061128238	-0.296042
C	 2.1986894451	 0.7098175187	 0.4613644791	 0.012175
C	 3.6444530516	 0.4885126504	 0.1233517846	-0.113638
C	 4.0890354197	-0.7489561441	-0.1102956703	-0.039289
C	 3.2256610737	-1.9933458716	-0.0996332871	-0.260542
C	 1.7625074356	-1.7558896267	 0.3541812722	-0.256604
C	 1.3393108063	-0.3923608539	-0.1527494278	 0.167711
O	 0.0124263793	-0.0079614743	 0.1611625132	-0.287833
H	-0.5946544943	 1.8075217079	 0.906857064	 0.104494
H	-0.5983829684	 1.702347285	-0.8636579204	 0.096669
H	 1.7057670627	 2.2215195574	-1.0279705025	 0.105984
H	 1.5678528428	 2.8262061325	 0.6281713716	 0.101849
H	 2.0709765003	 0.6399662475	 1.5529843992	 0.087438
H	 4.3272440395	 1.3341168338	 0.103418286	 0.084316
H	 5.1408594095	-0.9072544105	-0.3395967509	 0.085574
H	 3.2328782948	-2.424081377	-1.1115414376	 0.112982
H	 3.6929080994	-2.7562558463	 0.5359347661	 0.10886
H	 1.1116389651	-2.5491060075	-0.0262577154	 0.101274
H	 1.6904464282	-1.7723009346	 1.4478464304	 0.103589
H	 1.4836181807	-0.3692916147	-1.2498332177	 0.057056
99.6387	141.1761	208.8121	280.1922	345.5437	428.7788	458.0444	527.3273	551.75	680.2356	694.1098	756.3416	831.2483	851.6042	874.8563	883.2634	936.5044	970.6549	996.2825	1003.1581	1026.0281	1082.1647	1088.206	1098.5254	1121.3006	1148.7985	1182.1788	1204.9603	1222.7817	1239.786	1252.1074	1283.3822	1297.6675	1327.8126	1349.4414	1362.6706	1371.26	1396.7228	1413.0748	1427.4097	1475.4642	1499.5992	1504.2064	1526.9185	1702.9353	2916.1238	2979.454	3003.7864	3012.6769	3033.3797	3046.5362	3050.2234	3060.2349	3087.3886	3104.8584	3140.6096	3165.5623
C1CC2C=CCCC2O1	C1C[C@@H]2C=CCC[C@H]2O1	
InChI=1S/C8H12O/c1-2-4-8-7(3-1)5-6-9-8/h1,3,7-8H,2,4-6H2	InChI=1S/C8H12O/c1-2-4-8-7(3-1)5-6-9-8/h1,3,7-8H,2,4-6H2/t7-,8+/m0/s1
