17
gdb 60759	1.92342	1.33804	1.11757	0.5967	70.45	-0.254	-0.0398	0.2141	1199.8339	0.130806	-458.999646	-458.989517	-458.988573	-459.036389	34.005	
C	 0.7618184989	 1.6111716695	-0.3417175003	-0.411483
C	 0.2327947925	 0.4071199418	 0.4439148448	-0.200809
C	-0.5307344799	-0.5506497306	-0.4671702718	 0.156935
O	-0.6284215995	-1.7447620731	-0.3381045332	-0.25113
C	 1.3242091951	-0.2814309306	 1.2656714285	 0.398053
O	 2.4814444059	 0.0517710745	 1.1718129142	-0.298505
C	 0.9125776426	-1.4012721007	 2.2114374222	-0.400981
C	-0.1033868697	-1.0457361866	 3.2794240931	 0.1507
O	-0.8345332743	-0.0872105417	 3.2752288592	-0.23582
H	 1.5454759619	 1.3113517566	-1.0420278394	 0.141163
H	-0.0473543507	 2.0885555141	-0.9025167344	 0.117801
H	 1.1928970738	 2.3498202243	 0.3359964025	 0.142179
H	-0.5228616028	 0.736718751	 1.1759039586	 0.166677
H	-1.0380030217	-0.0314699388	-1.3106896772	 0.096507
H	 0.451965471	-2.2004550655	 1.6113513769	 0.188208
H	 1.809377629	-1.8101945243	 2.6871039598	 0.139459
H	-0.141209032	-1.78159448	 4.1118165564	 0.101046
37.1249	54.5654	75.9452	119.1395	164.9436	181.98	235.3152	275.7178	329.7604	369.3128	491.9171	534.8322	624.8479	686.3382	763.3266	787.9365	902.5946	922.4912	936.1851	992.2436	1067.6225	1102.0316	1140.6457	1165.8731	1214.4657	1279.3743	1309.2552	1323.0927	1408.6191	1417.4171	1431.2086	1433.9349	1488.4724	1497.8397	1801.9183	1819.6705	1822.1792	2885.8107	2897.9983	2995.243	3018.8421	3051.4166	3095.0065	3122.4929	3140.0498
CC(C=O)C(=O)CC=O	C[C@@H](C=O)C(=O)CC=O	
InChI=1S/C6H8O3/c1-5(4-8)6(9)2-3-7/h3-5H,2H2,1H3	InChI=1S/C6H8O3/c1-5(4-8)6(9)2-3-7/h3-5H,2H2,1H3/t5-/m0/s1
