22
gdb 123105	3.57622	0.63058	0.5758	1.4312	82.21	-0.2505	0.037	0.2875	2022.9136	0.191393	-441.491915	-441.480769	-441.479825	-441.530149	38.129	
C	-0.2168122014	 1.5621012953	 0.1519824119	-0.383993
C	-0.1044833455	 0.0610816783	-0.054105189	-0.024453
O	-1.3941547786	-0.505289073	 0.0492654815	-0.239509
C	-1.4039521085	-1.9023640983	-0.1216826213	-0.067494
C	-2.8271756948	-2.4069002508	-0.0372869006	-0.058485
O	-3.5196209489	-1.9756152043	-1.2129213987	-0.235923
C	-4.8212707035	-2.312422511	-1.3050527769	 0.40224
C	-5.4068650835	-1.7628487315	-2.5811395439	-0.459785
N	-5.3908283546	-2.9974620063	-0.3991676666	-0.523888
H	 0.7680736165	 2.0326362209	 0.0766752596	 0.113276
H	-0.8726331309	 2.003849876	-0.6035241783	 0.127603
H	-0.6337301393	 1.7835596043	 1.1385392745	 0.126642
H	 0.3309807852	-0.1625404993	-1.0431224266	 0.085336
H	 0.5686875788	-0.3837956915	 0.6993418138	 0.082964
H	-0.9664299563	-2.1827172159	-1.0943313427	 0.092422
H	-0.8078550733	-2.3983936433	 0.6641085667	 0.085869
H	-2.8471454352	-3.500342388	 0.0228566086	 0.114537
H	-3.3281824924	-2.0128546998	 0.8520167343	 0.128074
H	-6.4590856904	-2.0345036264	-2.6783910581	 0.124466
H	-5.3137181542	-0.6727172476	-2.5975280916	 0.148469
H	-4.8554999301	-2.1467077441	-3.4448809399	 0.144164
H	-6.367968999	-3.1551423836	-0.6342488869	 0.217466
39.7882	48.4284	68.2775	107.0606	127.1068	151.2418	207.912	223.9267	245.2684	300.3209	415.6606	441.6276	514.4929	575.2125	618.1756	821.4024	837.863	859.0449	871.3049	934.7484	969.8358	1019.6457	1066.3745	1068.2026	1087.6062	1121.4604	1129.1853	1161.5376	1175.6805	1192.0844	1258.5778	1294.5735	1299.199	1357.2006	1387.7334	1397.4314	1408.0721	1430.0523	1456.6842	1471.6801	1482.4939	1483.1784	1497.3785	1499.0437	1504.0299	1535.1538	1725.7295	2945.6461	2958.6141	2973.3211	2987.5596	3045.0382	3048.8428	3052.0496	3099.9506	3112.4013	3119.3086	3121.9061	3143.6497	3514.9993
CCOCCOC(C)=N	CCOCCO[C](C)[NH]	
InChI=1S/C6H13NO2/c1-3-8-4-5-9-6(2)7/h7H,3-5H2,1-2H3	InChI=1S/C6H13NO2/c1-3-8-4-5-9-6(2)7/h7H,3-5H2,1-2H3
