13
gdb 21588	3.57686	2.32886	1.4108	2.5298	67.29	-0.21	-0.0425	0.1676	804.0987	0.097975	-390.949452	-390.94268	-390.941736	-390.980149	25.828	
N	 0.0623571354	 1.3462678814	-0.0959228401	-0.585602
C	-0.0114030762	 0.0020773685	 0.0016345895	 0.317455
C	-1.1446894517	-0.75885045	 0.1038401534	-0.076699
N	-1.1389810989	-2.1258638753	 0.2323745384	-0.198734
N	-0.0511577144	-2.77566887	 0.2593347117	-0.075892
N	 1.1135735746	-2.057701639	 0.151272387	-0.323187
C	 1.2763269489	-0.6941304508	 0.013749688	 0.391132
N	 2.3713342303	-0.0310281362	-0.1008044856	-0.578529
H	 0.9802563676	 1.7263816209	-0.2758654068	 0.284032
H	-0.75486696	 1.9037079949	-0.2684530374	 0.264402
H	-2.1322941431	-0.311281341	 0.0931616431	 0.108185
H	 1.9299266008	-2.6514621989	 0.1746305533	 0.265601
H	 3.1982615169	-0.6262280744	-0.0846212145	 0.207835
138.4553	219.1084	235.24	328.5665	439.6622	450.3551	550.3142	560.2744	599.1034	609.9979	679.3453	767.4307	771.1472	795.2041	882.7276	941.4358	1022.5491	1068.4246	1126.8407	1180.346	1317.7657	1356.5477	1395.3446	1480.291	1532.9637	1599.6154	1652.218	1701.9796	3188.2729	3490.591	3577.6567	3616.737	3729.4578
NC1=CN=NNC1=N	Nc1cnn[nH]c1[NH]	
InChI=1S/C3H5N5/c4-2-1-6-8-7-3(2)5/h1H,(H2,4,8)(H2,5,6,7)	InChI=1S/C3H10N5/c4-2-1-6-8-7-3(2)5/h2-3,5-8H,1,4H2
