20
gdb 55379	2.44064	1.54926	0.97124	3.2248	84.62	-0.1994	0.0117	0.2111	1229.8798	0.170659	-403.203828	-403.194407	-403.193462	-403.238738	34.255	
C	 1.2877373809	-0.8215888396	 0.060737546	-0.493392
C	 0.0335639139	 0.040519675	 0.022838886	 0.381938
O	 0.0984037553	 1.2558846008	 0.100555577	-0.370544
N	-1.1522547373	-0.6459367293	-0.0988856227	-0.149536
C	-1.2515468021	-2.1172223705	-0.2072678554	-0.171415
C	-2.7715349706	-2.418288702	-0.1903451977	-0.284428
C	-3.3818036391	-1.0433255572	-0.2543528989	-0.21019
C	-2.4549083705	-0.0821095225	-0.1846441812	 0.374813
C	-2.6910350737	 1.3938252751	-0.1951735321	-0.459541
H	 2.1456052304	-0.1518703083	 0.106335359	 0.145728
H	 1.2980625099	-1.4760554513	 0.9387921156	 0.137392
H	 1.372288464	-1.460737123	-0.8240559446	 0.134127
H	-0.787846164	-2.4568984135	-1.1401502972	 0.118333
H	-0.7245252713	-2.6009816142	 0.6187984974	 0.119201
H	-3.061643264	-3.055181471	-1.033412346	 0.113043
H	-3.0660015132	-2.9568804259	 0.7197577209	 0.113142
H	-4.4440644918	-0.8566640672	-0.3217524722	 0.095745
H	-3.7646547158	 1.5787519604	-0.2858396995	 0.110391
H	-2.3173798965	 1.8670867593	 0.7153215506	 0.149597
H	-2.1702553544	 1.878313465	-1.0245093551	 0.145597
36.2444	94.9796	140.3847	164.0811	223.806	238.6679	246.7876	337.9675	420.0705	488.3755	554.7492	604.4395	636.0642	661.3679	751.5983	766.8486	856.1187	941.9455	945.9172	1000.831	1045.7009	1046.544	1059.9674	1069.1216	1077.4295	1143.9819	1203.4026	1244.1245	1264.8287	1291.1124	1321.8045	1364.9178	1384.5572	1422.1198	1432.9083	1468.3604	1469.1008	1473.3761	1486.2676	1497.7806	1521.3274	1717.7165	1763.5064	3014.8463	3030.3071	3041.3448	3051.0394	3053.0173	3087.1765	3102.1566	3123.3035	3130.6893	3162.0505	3233.674
CC(=O)N1CCC=C1C	CC(=O)N1CCC=C1C	
InChI=1S/C7H11NO/c1-6-4-3-5-8(6)7(2)9/h4H,3,5H2,1-2H3	InChI=1S/C7H11NO/c1-6-4-3-5-8(6)7(2)9/h4H,3,5H2,1-2H3
