18
gdb 10196	3.31614	1.18388	0.91559	2.693	69.69	-0.2349	0.0129	0.2478	1282.7533	0.152419	-381.106669	-381.097003	-381.096059	-381.141685	32.707	
C	 0.5130182019	 1.6198271699	-0.0943309074	-0.310694
N	 0.8338711718	 0.2014193985	-0.2001578977	-0.29928
C	-0.1637325595	-0.5560949088	-0.9333697562	-0.15642
C	 0.1400903095	-2.0602551723	-0.8684982253	-0.006439
O	-0.8885971679	-2.734909746	-1.5472375345	-0.23062
C	-0.8532255928	-4.1448211443	-1.4049624526	-0.249076
C	 1.4669085063	-2.3505499059	-1.4668318676	 0.262151
N	 2.499151033	-2.5643534178	-1.941213163	-0.333316
H	 0.3417226093	 2.1186771311	-1.0643009223	 0.100803
H	-0.3935753143	 1.7460571557	 0.508090454	 0.124534
H	 1.328113718	 2.138584979	 0.4175049846	 0.125255
H	 1.7381606444	 0.0940242736	-0.6495249202	 0.234176
H	-1.139730517	-0.412869653	-0.4574294935	 0.121077
H	-0.2742321609	-0.2681860642	-1.9933838735	 0.106282
H	 0.1898890511	-2.3623030671	 0.1892221039	 0.122383
H	 0.0631245228	-4.5724400443	-1.8332098661	 0.13495
H	-0.9233237923	-4.4417279833	-0.3482696054	 0.114641
H	-1.7172712635	-4.5355421409	-1.9452400571	 0.139594
74.2242	93.4262	100.0209	138.8423	169.9876	206.7797	247.2058	269.8361	320.9917	381.0213	438.6097	583.9051	622.3292	789.4386	821.151	966.8667	1012.732	1031.1101	1081.8363	1145.1085	1149.265	1168.1842	1184.4984	1196.9042	1220.821	1274.0173	1316.406	1364.9127	1385.5154	1461.0754	1480.1697	1488.6353	1488.9635	1497.5944	1507.4362	1514.0387	1522.6222	2347.9993	2952.3029	2957.0651	2991.842	2996.206	3053.7058	3059.3678	3071.9071	3110.0727	3133.5656	3513.4863
CNCC(OC)C#N	CNC[C@@H](OC)C#N	
InChI=1S/C5H10N2O/c1-7-4-5(3-6)8-2/h5,7H,4H2,1-2H3	InChI=1S/C5H10N2O/c1-7-4-5(3-6)8-2/h5,7H,4H2,1-2H3/t5-/m0/s1
