20
gdb 121795	2.56083	0.94872	0.85588	4.2791	76.25	-0.2717	0.0194	0.2911	1452.669	0.167732	-440.286341	-440.275664	-440.27472	-440.322934	38.054	
C	 0.1140785107	 1.5223600643	 0.0648329022	-0.419362
C	-0.0269155437	-0.0104988517	 0.1005169471	 0.210977
C	 0.737611967	-0.6231084018	 1.2900262269	-0.414541
O	-1.3929154285	-0.4281639816	 0.0700754428	-0.299209
C	-2.2587190389	 0.0374932458	 1.100784232	-0.088433
C	-3.5384241337	-0.7755490152	 0.9589843914	-0.058151
O	-3.2991892906	-2.1554614912	 1.1338387923	-0.41811
C	 0.5382117356	-0.5638351199	-1.1517466574	 0.280426
N	 1.0133719419	-0.982590707	-2.1172674023	-0.33271
H	 1.1622450932	 1.801735992	-0.0666066701	 0.142361
H	-0.4651477321	 1.9376609325	-0.7630394672	 0.145283
H	-0.2392280322	 1.9571816984	 1.0032244149	 0.129165
H	 0.4000833965	-0.1832819104	 2.2315801984	 0.129792
H	 0.577936328	-1.7030256607	 1.3240622243	 0.14437
H	 1.8085766272	-0.4296646642	 1.1904249972	 0.141444
H	-1.8241917454	-0.1374945201	 2.0934667925	 0.104825
H	-2.4709954171	 1.1101322139	 0.9900877883	 0.098453
H	-4.25009042	-0.468788044	 1.732399995	 0.111947
H	-3.9901646976	-0.5615153175	-0.0222038953	 0.100569
H	-2.6049540904	-2.3855696416	 0.5053614171	 0.290905
28.2062	66.9192	122.8811	167.5744	188.2379	237.536	250.2622	261.3497	291.0089	359.0494	398.1392	429.2274	440.6026	502.6715	584.7802	591.2931	723.247	831.681	908.5203	921.9653	926.2399	987.5145	1018.6767	1076.3767	1103.6182	1133.7891	1181.5613	1194.7449	1227.1857	1260.6362	1272.6024	1390.3586	1394.9676	1399.9408	1417.3256	1434.629	1477.6065	1481.3231	1496.0317	1497.0094	1500.1872	1511.3335	2365.6433	2988.1817	3000.9543	3048.231	3054.4897	3057.5332	3082.7138	3128.1335	3133.538	3138.0339	3140.448	3798.9246
CC(C)(OCCO)C#N	CC(C)(OCCO)C#N	
InChI=1S/C6H11NO2/c1-6(2,5-7)9-4-3-8/h8H,3-4H2,1-2H3	InChI=1S/C6H11NO2/c1-6(2,5-7)9-4-3-8/h8H,3-4H2,1-2H3
