20
gdb 62834	2.5765	1.78882	1.46344	1.5693	80.08	-0.2243	0.038	0.2622	997.3167	0.169207	-402.975768	-402.967518	-402.966574	-403.007722	33.582	
C	-0.1232703277	 1.4094138635	 0.5213899919	-0.460787
C	-0.0539976294	-0.0135678977	-0.0324879249	 0.320217
C	-1.4523001126	-0.4963047455	-0.414052161	-0.458449
C	 1.1197923967	-0.3231499285	-0.9804494958	-0.035725
O	 2.0933682046	-0.0675631583	 0.1568174499	-0.367895
C	 1.0035122777	-0.9529503697	 0.6874733856	 0.293282
C	 0.6246663265	-2.1974879423	 1.5222753024	-0.276239
N	 0.1801359799	-2.7694900147	 0.1758313131	-0.352733
C	 1.1643148393	-1.8423650078	-0.4892377982	-0.013766
H	 0.8563553571	 1.7661466646	 0.8371571178	 0.13709
H	-0.5155532978	 2.0945405077	-0.2388988929	 0.109675
H	-0.8099105585	 1.4498398002	 1.3745951375	 0.109381
H	-1.9349128824	 0.2703697307	-1.0317342	 0.104697
H	-1.4543142917	-1.4394015128	-0.9550060016	 0.138482
H	-2.0717994079	-0.6243027895	 0.4806892975	 0.11321
H	 1.4135468146	 0.139416797	-1.9283651497	 0.086661
H	 1.4885149301	-2.7141962335	 1.9571067068	 0.118811
H	-0.1772957208	-2.1021703748	 2.2598471589	 0.119152
H	 0.4118469792	-3.7498021352	 0.0467737425	 0.226843
H	 2.1629936332	-2.2689385033	-0.6114943697	 0.088094
167.0447	176.2188	205.74	249.8911	302.3178	352.4656	392.5859	405.6911	456.7175	546.6427	587.5452	624.9971	646.6262	687.108	813.7131	816.4369	870.0055	884.0171	911.8429	953.1997	957.3064	973.0872	1011.7335	1031.7544	1078.9294	1115.0074	1125.7094	1156.0484	1171.5427	1190.2593	1232.5739	1242.5408	1275.5264	1312.8918	1332.7168	1384.7427	1398.3067	1421.881	1480.7232	1483.6367	1491.1736	1505.1939	1513.7696	3028.6445	3029.3042	3035.4199	3060.866	3074.4142	3081.2668	3087.227	3098.6555	3153.838	3172.2138	3513.3599
CC1(C)C2OC11CNC21	CC1(C)[C@H]2O[C@]31CN[C@@H]23	
InChI=1S/C7H11NO/c1-6(2)5-4-7(6,9-5)3-8-4/h4-5,8H,3H2,1-2H3	InChI=1S/C7H11NO/c1-6(2)5-4-7(6,9-5)3-8-4/h4-5,8H,3H2,1-2H3/t4-,5-,7+/m0/s1
