16
gdb 123925	3.51201	1.59043	1.13637	4.8691	70.09	-0.2233	0.0079	0.2312	1023.651	0.127664	-437.892008	-437.885358	-437.884414	-437.923097	26.192	
C	-0.0144757741	 1.5306254447	-0.0026334208	-0.228187
C	 1.4153236889	 2.0756403808	 0.0512439078	-0.080246
O	 2.1386650511	 1.6336032913	 1.226110855	-0.25473
C	 1.9099021463	 0.3504995276	 1.4872062384	 0.487495
C	 0.9705753586	-0.4915061927	 0.9659865209	 0.02627
C	-0.036805734	-0.013403279	-0.0352560059	-0.341828
C	 1.247873288	-1.6962348364	 1.660376482	-0.074852
N	 2.2440138708	-1.587606243	 2.5088747348	-0.156709
O	 2.6797158374	-0.2432286273	 2.3923117569	-0.229135
H	-0.5589535397	 1.8895992665	 0.877783239	 0.125125
H	-0.5087338859	 1.9494659652	-0.8847964758	 0.112672
H	 1.9854445699	 1.7607703007	-0.8322275521	 0.12139
H	 1.4295391207	 3.1650829796	 0.10728269	 0.130394
H	-1.0437941253	-0.376272254	 0.1973776464	 0.118248
H	 0.1961554651	-0.3746818403	-1.0456003881	 0.115563
H	 0.7498050123	-2.6535950738	 1.5796902016	 0.12853
121.0883	218.2568	310.8762	327.2375	395.6032	457.834	528.278	629.9429	680.738	719.7131	730.9486	856.0383	880.7693	883.0615	915.2599	934.5805	953.3823	1000.6283	1058.5662	1100.1277	1196.7886	1208.8462	1222.7782	1229.8149	1297.6123	1321.8591	1342.08	1372.6483	1403.5664	1431.8879	1475.991	1488.9961	1502.968	1552.8063	1679.5981	3016.0887	3029.8201	3046.4418	3064.925	3096.0192	3124.6523	3229.1017
C1COC2=C(C1)C=NO2	C1COc2c(C1)cno2	
InChI=1S/C6H7NO2/c1-2-5-4-7-9-6(5)8-3-1/h4H,1-3H2	InChI=1S/C6H7NO2/c1-2-5-4-7-9-6(5)8-3-1/h4H,1-3H2
