21
gdb 74653	4.23931	1.29832	1.14001	0.3976	89.22	-0.2203	0.023	0.2432	1149.9716	0.185082	-349.931007	-349.923675	-349.922731	-349.962366	30.567	
C	 0.0227002069	 1.5446508747	 0.0474831945	-0.476546
C	-0.0024572098	 0.0465133066	-0.0230145477	 0.313642
C	-0.0299959284	-0.6581925328	-1.1558093719	-0.193401
C	-0.0533142052	-2.1551195353	-1.1090896346	-0.006369
C	-0.9881603638	-2.8238748448	-0.0423991163	-0.057184
C	-0.0695131092	-4.0703208884	-0.0980286132	-0.2416
C	 0.8898030776	-2.8539643059	-0.0693068144	-0.057186
C	-0.0238240999	-2.2392848101	 1.0430725469	 0.023205
C	 0.0036149288	-0.730727461	 1.2717499392	-0.350544
H	 0.9154069203	 1.9041227621	 0.5764530593	 0.119708
H	 0.0148504631	 1.9944632354	-0.9493137237	 0.118785
H	-0.8415297811	 1.9323990207	 0.6030886549	 0.119686
H	-0.035996655	-0.1652393741	-2.1245257417	 0.074369
H	-0.0749400824	-2.6203736373	-2.0981616582	 0.053649
H	-2.0798770588	-2.7971337057	-0.0339922747	 0.063381
H	-0.0672346078	-4.7170222954	 0.7841650852	 0.085696
H	-0.0921129127	-4.6536028005	-1.0231041505	 0.085477
H	 1.9816087451	-2.8622124434	-0.0921905678	 0.06338
H	-0.0190748083	-2.789796237	 1.9901161468	 0.056043
H	 0.889786785	-0.4608053876	 1.8663405568	 0.102903
H	-0.8561174544	-0.4328347503	 1.8912792213	 0.102906
132.0615	186.786	279.2196	296.028	380.4187	433.7863	446.2421	474.7792	616.237	758.2954	770.2901	773.3238	794.2675	837.7021	844.3138	899.4603	904.0183	961.3557	964.8211	1002.7114	1019.7217	1036.3221	1051.8964	1073.6692	1086.2352	1098.9531	1114.5757	1144.3833	1157.3492	1194.3037	1199.321	1216.7399	1242.8555	1254.7197	1265.8545	1318.2556	1338.1386	1390.1337	1412.0691	1417.9944	1469.7762	1477.8182	1490.4846	1513.0606	1735.9317	2987.8534	3008.0014	3010.2616	3041.9075	3045.9099	3053.6599	3068.3621	3085.1298	3093.1044	3106.0336	3106.9965	3157.8863
CC1=CC2C3CC2C3C1	CC1=C[C@@H]2[C@H]3C[C@@H]2[C@H]3C1	
InChI=1S/C9H12/c1-5-2-6-8-4-9(6)7(8)3-5/h2,6-9H,3-4H2,1H3	InChI=1S/C9H12/c1-5-2-6-8-4-9(6)7(8)3-5/h2,6-9H,3-4H2,1H3/t6-,7+,8-,9+
