16
gdb 20898	4.72913	1.41545	1.17407	2.3112	67.75	-0.2124	0.029	0.2413	1023.5059	0.131893	-379.949666	-379.942052	-379.941107	-379.982088	28.102	
C	-0.0468229723	 1.519350473	-0.0989441008	-0.370852
C	-0.0673907579	 0.0058419161	 0.1195282475	-0.138745
N	-1.4003955293	-0.5579274062	 0.0235708189	 0.053834
C	-1.9185876624	-1.3285922746	-0.9590186251	-0.009106
C	-3.2395853575	-1.5779042439	-0.643829737	-0.339041
C	-3.4208257743	-0.893215374	 0.5749167228	 0.443372
O	-4.5649933719	-0.8469074433	 1.2898696749	-0.429341
N	-2.3208584812	-0.2745565885	 0.9834538559	-0.381913
H	 0.9715610115	 1.9031571699	 0.0155124236	 0.117242
H	-0.4031780386	 1.7745998426	-1.1013295085	 0.124136
H	-0.6906929513	 2.0132817837	 0.6323140349	 0.146875
H	 0.5492228883	-0.5056556401	-0.6253439749	 0.116621
H	 0.3336687765	-0.2398273541	 1.1083040328	 0.127563
H	-1.3168842615	-1.6430801037	-1.7979826301	 0.128489
H	-3.957606537	-2.1631334274	-1.1921757114	 0.109423
H	-4.3841671012	-0.3136782195	 2.0739647165	 0.301442
51.4909	112.4483	209.3999	298.9399	325.3734	396.2598	413.7387	469.2904	619.1658	638.6669	714.9794	734.8138	756.8514	796.4535	823.556	958.4565	1017.2581	1029.5314	1069.4069	1098.9287	1123.8167	1202.1571	1259.1532	1287.7792	1355.5542	1389.7519	1407.558	1425.6563	1479.267	1488.1332	1490.8767	1507.9168	1566.3816	1596.9287	3044.9649	3050.4009	3095.5029	3117.5392	3136.7172	3251.6216	3285.5237	3796.1927
CCN1C=CC(O)=N1	CCn1ccc(O)n1	
InChI=1S/C5H8N2O/c1-2-7-4-3-5(8)6-7/h3-4H,2H2,1H3,(H,6,8)	InChI=1S/C5H8N2O/c1-2-7-4-3-5(8)6-7/h3-4H,2H2,1H3,(H,6,8)
