17
gdb 19832	3.33123	2.5947	1.78189	1.466	72.68	-0.2262	0.017	0.2432	770.8936	0.145825	-326.69974	-326.693689	-326.692745	-326.729519	25.356	
C	-0.0186860889	 1.5481662939	-0.0109438932	-0.293891
C	 1.3034701725	 0.796024201	-0.0050940823	-0.075126
C	 2.1633260309	 0.7568167816	 1.1951422823	-0.067235
C	 1.8407261662	 0.1113485724	 2.3223332348	-0.049956
C	 0.5760864874	-0.6405959313	 2.469380712	-0.07457
N	-0.694498048	 0.1389361119	 2.5011913621	-0.33744
C	-0.3752424435	-0.671338573	 1.3165466258	-0.050768
C	-0.0240853273	 0.0481531001	 0.0434953209	-0.025347
H	-0.2997212521	 2.064965537	 0.8985370465	 0.141914
H	-0.3141557309	 2.027296213	-0.9378819073	 0.105905
H	 1.8366960748	 0.7924851416	-0.9515912363	 0.083713
H	 3.1170351511	 1.274944632	 1.1307139171	 0.087933
H	 2.5255224808	 0.111743653	 3.1655263904	 0.084982
H	 0.6178922439	-1.5144804734	 3.115495354	 0.081445
H	-1.3753471888	-0.3500987807	 3.077572972	 0.227578
H	-0.9362893093	-1.5912631634	 1.1744359371	 0.079771
H	-0.3062772987	-0.4819626857	-0.8596838459	 0.081094
187.1655	238.3943	372.3856	480.4779	518.3574	522.2388	637.5341	706.3172	761.46	789.286	804.0894	840.7109	886.6458	891.0549	912.4209	942.8421	980.563	995.6576	1033.5477	1054.7866	1075.2688	1097.92	1119.1722	1128.9749	1159.9481	1187.4409	1216.0523	1224.2681	1264.5492	1352.4517	1401.7926	1407.8059	1427.7198	1452.4454	1479.7951	1697.169	3125.4497	3136.2581	3136.9104	3139.8459	3151.3452	3166.6409	3173.989	3238.3979	3492.0931
C1C2C=CC3NC3C12	C1[C@H]2C=C[C@H]3N[C@H]3[C@@H]12	
InChI=1S/C7H9N/c1-2-6-7(8-6)5-3-4(1)5/h1-2,4-8H,3H2	InChI=1S/C7H9N/c1-2-6-7(8-6)5-3-4(1)5/h1-2,4-8H,3H2/t4-,5+,6-,7+/m1/s1
