18
gdb 85826	2.05977	1.46077	1.35311	3.3493	71.84	-0.2732	0.0097	0.2829	1089.7876	0.145648	-439.083206	-439.073692	-439.072747	-439.1171	35.269	
C	 0.8057044968	 1.5050656344	-0.0159899593	-0.399709
C	 0.0299965487	 0.1899565816	 0.0151967074	-0.020672
C	 0.5435147359	-0.8933964057	-0.9806478592	-0.30111
C	 1.2731130934	-1.6220518791	 0.1978722335	 0.188504
O	 1.0481197	-3.0038914548	 0.3707690063	-0.461838
C	 2.7073326551	-1.3206874246	 0.2668225541	 0.260439
N	 3.8467397632	-1.1268325347	 0.2996434321	-0.347472
C	 0.4039700638	-0.7644953407	 1.1803472906	 0.102466
O	 0.9984298678	-0.1508495125	 2.2834484185	-0.413982
H	 1.8868220961	 1.3451360046	 0.018482586	 0.14374
H	 0.5729830401	 2.0546678683	-0.933842154	 0.112781
H	 0.5383212777	 2.1323773586	 0.8383773669	 0.132228
H	-1.041218452	 0.3933862423	-0.0527239861	 0.08268
H	-0.2479879868	-1.5398368421	-1.3655260312	 0.118213
H	 1.1701322221	-0.5469869142	-1.8042363971	 0.120742
H	 1.577308379	-3.4907330131	-0.2716774748	 0.293633
H	-0.446807576	-1.4002561231	 1.4616420404	 0.092291
H	 1.1994524751	-0.8204172653	 2.9457916259	 0.297064
78.5378	131.2789	185.1323	225.6648	232.5121	250.9671	286.1993	308.6101	328.9988	354.3411	430.6691	507.8572	575.4084	634.4284	670.8383	765.8624	817.0148	841.1192	903.7999	966.6213	980.9913	1047.5043	1072.5667	1127.477	1166.0729	1170.268	1200.9751	1228.6684	1255.6303	1278.0713	1326.0161	1349.3634	1371.9476	1413.4081	1431.7372	1476.0191	1495.7219	1500.4072	2347.744	3013.0251	3043.269	3070.1215	3078.0493	3112.9986	3125.5926	3137.0707	3798.9871	3816.4385
CC1CC(O)(C#N)C1O	C[C@H]1C[C@@](O)(C#N)[C@H]1O	
InChI=1S/C6H9NO2/c1-4-2-6(9,3-7)5(4)8/h4-5,8-9H,2H2,1H3	InChI=1S/C6H9NO2/c1-4-2-6(9,3-7)5(4)8/h4-5,8-9H,2H2,1H3/t4-,5-,6+/m0/s1
