15
gdb 75093	3.07982	1.48545	1.15629	3.8871	67.73	-0.2324	-0.0367	0.1957	1032.6687	0.113595	-453.950833	-453.943329	-453.942384	-453.982843	28.842	
N	 0.0509076107	 1.3870450718	-0.0392743491	-0.553231
C	-0.0432098815	 0.0095174308	-0.0061384762	 0.393397
N	-1.181121515	-0.5649570278	-0.0067451168	-0.313503
C	-1.2582015102	-2.0076110145	 0.1737108993	-0.267589
C	-0.0904216825	-2.6694760742	 0.8993228294	 0.382284
O	-0.2185729252	-3.5553196127	 1.7117875236	-0.31109
C	 1.2578599251	-2.1104032063	 0.5518197045	-0.064123
O	 1.4437070266	-1.7790945187	-0.8294165389	-0.232355
C	 1.2761083185	-0.703171512	 0.087377291	-0.057755
H	 0.8526184572	 1.7816302277	-0.5073999002	 0.255887
H	-0.8221462696	 1.8494710894	-0.2520619105	 0.260523
H	-2.170509664	-2.257044184	 0.7231839062	 0.135397
H	-1.3451233167	-2.4920333229	-0.8112356087	 0.142644
H	 2.1168769255	-2.5345395593	 1.065605411	 0.118483
H	 2.168766901	-0.1039766673	 0.2627302856	 0.111033
79.3269	200.6069	248.2245	290.9604	349.2732	417.3294	451.9922	481.3191	494.2904	570.0394	602.2066	714.3758	722.464	780.9729	881.8011	887.9097	918.0704	980.8756	1005.186	1044.7402	1117.7225	1195.3847	1216.9826	1247.2563	1253.8273	1303.5796	1331.8229	1374.0734	1452.6239	1459.143	1629.3052	1742.5893	1815.3785	2996.9748	3084.4005	3120.5712	3157.9857	3562.961	3677.9638
NC1=NCC(=O)C2OC12	NC1=NCC(=O)[C@H]2O[C@@H]12	
InChI=1S/C5H6N2O2/c6-5-4-3(9-4)2(8)1-7-5/h3-4H,1H2,(H2,6,7)	InChI=1S/C5H6N2O2/c6-5-4-3(9-4)2(8)1-7-5/h3-4H,1H2,(H2,6,7)/t3-,4-/m1/s1
