18
gdb 70174	3.61427	1.34499	1.12807	4.2651	81.54	-0.234	-0.0352	0.1988	1113.2843	0.148563	-401.955778	-401.947884	-401.94694	-401.988049	31.007	
C	 0.2393080099	 1.516991327	-0.0447318023	-0.475757
C	-0.049858568	 0.031463444	 0.0228801964	 0.237272
C	-1.0125990348	-0.4973942479	 1.0969971986	-0.352401
C	 0.4530437162	-0.7906593144	 1.1845163927	 0.087942
O	 0.9677222764	-2.0824854193	 1.005894956	-0.240585
C	 0.8034470119	-2.7527296012	-0.1696718948	 0.370546
N	 1.1358402482	-3.9816689568	-0.159736435	-0.502649
C	 0.315884802	-1.9909674315	-1.3284204189	-0.170631
C	-0.0517445025	-0.7074703522	-1.2563723243	-0.124388
H	 1.2151332089	 1.712277669	-0.5018845596	 0.129691
H	-0.5221619275	 2.035471531	-0.6389510879	 0.124144
H	 0.2408782957	 1.9645655928	 0.9535275984	 0.122025
H	-1.4279344251	 0.2170835621	 1.8004260804	 0.120514
H	-1.6778322504	-1.3029976505	 0.8080050276	 0.132138
H	 1.028094636	-0.2906401486	 1.9559341622	 0.113979
H	 1.0078471386	-4.3778287517	-1.0894355803	 0.218643
H	 0.2919818602	-2.5305321614	-2.2690193425	 0.104709
H	-0.3626602058	-0.1712027705	-2.1500166665	 0.104809
77.8259	187.6794	211.1756	259.2847	304.1189	401.0103	408.4636	465.6987	491.689	589.8082	681.4008	700.3788	752.818	790.2383	829.4676	859.287	873.0423	926.2928	941.5029	965.16	994.511	1040.1694	1051.5586	1077.8681	1113.5036	1128.3228	1184.1528	1214.4933	1270.9207	1321.115	1361.2953	1416.4672	1422.9534	1438.8816	1476.1169	1490.1698	1500.9428	1669.2467	1717.4843	3027.8541	3091.242	3107.2608	3130.4695	3152.7696	3173.3204	3191.6362	3227.3729	3502.9809
CC12CC1OC(=N)C=C2	C[C@]12C[C@H]1OC(=C[CH]2)[NH]	
InChI=1S/C7H9NO/c1-7-3-2-6(8)9-5(7)4-7/h2-3,5,8H,4H2,1H3	InChI=1S/C7H9NO/c1-7-3-2-6(8)9-5(7)4-7/h2-3,5,8H,4H2,1H3/t5-,7+/m1/s1
