21
gdb 26380	3.98993	0.93017	0.82385	0.4952	85.79	-0.2121	0.0223	0.2344	1467.9129	0.182457	-387.133269	-387.124033	-387.123089	-387.168149	34.51	
C	-0.0882950378	 1.5914531978	 0.0770366031	-0.381254
C	-0.059259473	 0.059280861	 0.0167734386	 0.049062
C	-1.4811302499	-0.5140320702	-0.0361337176	-0.389557
C	 0.7693187819	-0.4655269746	-1.1839375227	-0.31469
C	 2.2297799824	-0.172218622	-1.1310620381	 0.36214
C	 3.3129017367	-0.9005100519	-0.7405908942	-0.268189
C	 4.4614715726	-0.0590933339	-0.9079033899	-0.169335
C	 3.9927767136	 1.1192604306	-1.3899294495	-0.024867
O	 2.6398953617	 1.0697752299	-1.5321555321	-0.173668
H	 0.917404863	 2.0148467926	 0.1287499862	 0.127868
H	-0.5766267909	 2.0057115646	-0.8135731738	 0.109605
H	-0.6490949941	 1.9346521256	 0.9527545718	 0.106868
H	 0.4265328888	-0.3111602755	 0.9296319564	 0.076586
H	-2.0003401875	-0.191408933	-0.9467851095	 0.112428
H	-1.474611334	-1.6093416079	-0.0272960911	 0.108145
H	-2.074073797	-0.1748384788	 0.8194357649	 0.111008
H	 0.6540962354	-1.5535662804	-1.2401020714	 0.108338
H	 0.3500160727	-0.0558620763	-2.1124384168	 0.11042
H	 3.296096652	-1.9181546795	-0.3819927891	 0.10258
H	 5.4915062547	-0.3051086171	-0.7025324318	 0.107635
H	 4.4589888688	 2.047342749	-1.6765479636	 0.128875
34.1906	79.2156	114.7346	227.9397	251.7069	285.4978	317.8154	328.1893	415.2051	419.1936	614.8966	656.1997	734.7844	758.1155	801.4422	823.0632	846.7049	876.5378	903.3744	930.6947	937.6907	966.4334	969.7844	1032.4522	1083.8064	1119.6519	1138.4166	1181.9377	1191.461	1222.3996	1242.6486	1288.9578	1314.7189	1367.8845	1370.3486	1400.5215	1419.4691	1424.1053	1468.7131	1487.6866	1494.1309	1504.8955	1509.6405	1539.1387	1633.1494	3010.4124	3021.6883	3024.7579	3031.521	3073.3517	3086.9119	3093.2387	3099.2008	3124.7081	3248.5601	3260.339	3285.3411
CC(C)CC1=CC=CO1	CC(C)Cc1ccco1	
InChI=1S/C8H12O/c1-7(2)6-8-4-3-5-9-8/h3-5,7H,6H2,1-2H3	InChI=1S/C8H12O/c1-7(2)6-8-4-3-5-9-8/h3-5,7H,6H2,1-2H3
