18
gdb 63993	3.56307	1.06406	1.00132	5.2101	79.29	-0.2451	-0.0456	0.1996	1250.2435	0.147734	-398.162392	-398.153552	-398.152607	-398.195709	33.225	
C	-0.1523118392	 1.6016193026	-0.0701936689	-0.429854
C	 0.043396957	 0.086733303	-0.0067750297	 0.270367
C	-1.3001505905	-0.6472891919	 0.1127363958	-0.427324
C	 0.8914441578	-0.471443598	-1.1962893637	-0.203302
N	 1.831011052	-1.4534112311	-0.6330417437	-0.293558
C	 1.773800422	-1.2805389575	 0.6340775221	 0.281807
N	 0.9391095512	-0.2858885646	 1.1187349256	-0.367847
C	 2.5674215204	-2.0394281145	 1.5647964024	 0.253311
N	 3.1745879443	-2.6364856977	 2.3458817225	-0.317794
H	 0.8126580881	 2.1138180328	-0.1029372417	 0.128312
H	-0.7233006729	 1.8759110385	-0.9632844916	 0.123571
H	-0.7038997354	 1.9674686142	 0.8023398095	 0.117211
H	-1.9430692686	-0.4092224807	-0.7407500348	 0.127217
H	-1.1517791172	-1.7313672003	 0.1344992868	 0.132143
H	-1.832614265	-0.351679759	 1.0236800682	 0.116464
H	 0.2725071314	-0.9379568214	-1.9686615072	 0.119207
H	 1.4699772109	 0.3272164744	-1.6787142636	 0.120696
H	 0.5299789937	-0.4152238191	 2.034662272	 0.249373
78.8902	151.6977	163.4757	223.0125	271.4498	299.5295	324.3617	376.6814	406.7375	466.1837	521.7821	563.9848	594.5077	642.9786	720.4207	829.5283	902.9195	923.5129	953.6741	966.8738	997.4389	1025.1259	1037.8197	1161.5181	1209.0592	1220.4938	1257.3007	1274.1607	1343.6142	1400.7525	1418.8245	1438.3815	1480.0197	1483.8155	1489.7725	1501.9826	1505.9071	1669.1852	2365.5263	3022.2704	3029.0418	3036.7683	3077.9692	3097.9793	3103.8101	3111.1664	3121.273	3584.4834
CC1(C)CN=C(N1)C#N	CC1(C)C[N][C](N1)C#N	
InChI=1S/C6H9N3/c1-6(2)4-8-5(3-7)9-6/h4H2,1-2H3,(H,8,9)	InChI=1S/C6H9N3/c1-6(2)4-8-5(3-7)9-6/h4H2,1-2H3,(H,8,9)
