18
gdb 15146	7.0208	0.73874	0.72792	4.2572	69.89	-0.2764	0.01	0.2864	1545.281	0.152874	-384.949203	-384.940535	-384.939591	-384.983993	30.093	
O	 0.2822038963	 0.1190443857	 0.2602558413	-0.275429
C	 0.3882674947	 1.2988508858	 0.4111059498	 0.170414
O	 0.6617525608	 2.1436772293	-0.5981991545	-0.174017
C	 0.8096973685	 3.5376812473	-0.2936097212	-0.080523
C	 2.2706963002	 3.9627670684	-0.4133655145	-0.216584
C	 2.4466567207	 5.449772664	-0.1926920373	 0.027453
C	 2.5641052583	 6.0083519436	 1.2064509198	-0.257969
C	 3.7625919007	 6.0015885527	 0.2905114206	-0.273668
H	 0.2673606383	 1.8181987758	 1.3831880703	 0.073297
H	 0.1844769602	 4.0779668866	-1.0112955984	 0.124078
H	 0.4241131565	 3.7468660007	 0.7124518643	 0.114051
H	 2.8661979644	 3.4036089619	 0.3192946837	 0.102863
H	 2.6399867779	 3.6732597715	-1.4043167263	 0.119713
H	 1.9095046165	 6.0732583523	-0.9038177983	 0.086771
H	 2.0884615413	 6.9569193906	 1.4289151691	 0.115812
H	 2.5602262299	 5.3065915235	 2.034669865	 0.111075
H	 4.5591128379	 5.2962944687	 0.5038406599	 0.115983
H	 4.1050373571	 6.9458118518	-0.1175927034	 0.116681
39.849	65.4899	101.699	140.4891	194.0283	306.8335	357.1086	417.7301	419.136	672.4135	774.1312	782.8843	828.7073	839.4725	920.9026	963.5195	1020.7222	1044.9647	1051.4741	1064.5378	1075.4787	1085.0221	1141.0935	1149.6819	1199.3614	1210.8832	1230.6573	1285.1734	1305.9995	1334.4236	1404.1258	1420.7933	1435.7469	1470.1211	1487.8646	1508.0758	1510.7371	1866.5806	2934.7364	3024.4513	3030.8081	3064.9138	3091.2894	3129.2684	3132.4821	3136.1651	3208.3953	3223.5721
O=COCCC1CC1	O=COCCC1CC1	
InChI=1S/C6H10O2/c7-5-8-4-3-6-1-2-6/h5-6H,1-4H2	InChI=1S/C6H10O2/c7-5-8-4-3-6-1-2-6/h5-6H,1-4H2
