20
gdb 6176	3.2854	1.35954	1.1966	1.4854	71.62	-0.2453	0.075	0.3204	1106.8779	0.173999	-386.127432	-386.117778	-386.116834	-386.161257	35.998	
C	-0.1304225857	 1.5232027798	 0.0662966562	-0.395437
C	 0.0550543855	 0.0121079591	-0.0917687601	 0.117975
O	 0.7052232433	-0.302453779	-1.3242371822	-0.433583
C	 0.781330343	-0.5911282227	 1.092439416	-0.049488
C	 0.03334517	-1.1886430685	 2.2752969792	-0.361421
C	 0.838533645	-2.0676453678	 1.3447700776	 0.396033
C	 0.1636437205	-3.0690059874	 0.4356088323	-0.440999
O	 2.1012141756	-2.4852067143	 1.8078940421	-0.470376
H	 0.8417343509	 2.023995943	 0.1527041095	 0.105953
H	-0.6500018385	 1.9346600343	-0.8030782078	 0.120579
H	-0.7073038018	 1.7570592491	 0.9668800318	 0.117966
H	-0.9332061942	-0.4526178491	-0.1856430849	 0.08192
H	 1.618603685	-0.0031519415	-1.2556882662	 0.276618
H	 1.7037795807	-0.07632441	 1.3564515161	 0.086521
H	 0.4333934425	-1.0069059174	 3.2664281535	 0.110103
H	-1.0504449423	-1.2337658954	 2.2193152845	 0.106236
H	-0.8155100831	-2.7207733948	 0.0983407401	 0.118805
H	 0.7803860335	-3.2597591561	-0.4467017309	 0.135421
H	 0.0103872415	-4.0185116056	 0.9640135726	 0.099459
H	 1.9659847386	-3.2585146757	 2.3673166205	 0.277717
69.7092	128.1457	168.3333	211.1449	246.6728	254.0282	293.9607	309.6421	350.494	371.2386	422.1337	460.508	498.528	538.1017	725.0189	799.0042	881.8574	902.4628	923.2714	968.1613	983.4631	1031.4538	1049.353	1067.0827	1090.7872	1100.9509	1122.4374	1190.6763	1226.8958	1280.7021	1293.63	1331.5465	1371.043	1400.057	1413.268	1421.4945	1430.6725	1477.1211	1487.7679	1491.4084	1493.8388	1508.4863	3026.2596	3026.8747	3042.8574	3095.9293	3097.9457	3119.9294	3122.0885	3123.5231	3129.233	3215.4416	3788.3195	3801.6126
CC(O)C1CC1(C)O	C[C@@H](O)[C@H]1C[C@]1(C)O	
InChI=1S/C6H12O2/c1-4(7)5-3-6(5,2)8/h4-5,7-8H,3H2,1-2H3	InChI=1S/C6H12O2/c1-4(7)5-3-6(5,2)8/h4-5,7-8H,3H2,1-2H3/t4-,5-,6+/m1/s1
