19
gdb 106844	2.76839	1.22364	1.01651	0.9057	84.15	-0.2282	0.032	0.2602	1250.419	0.157052	-385.823801	-385.814647	-385.813703	-385.857748	34.56	
C	-0.012575917	 1.5121391522	 0.1870925686	-0.378262
C	-0.0221084833	 0.0107119974	-0.135229184	-0.28145
C	-1.3926663355	-0.5782134716	-0.0328384012	 0.435156
C	-2.0741281338	-1.0849849015	 1.1948795204	-0.372332
C	-1.9309465527	-2.0191472155	-0.0085341077	 0.025452
C	-2.8817587769	-1.5215397454	-1.0991462328	-0.130441
O	-2.3716894877	-0.1683344324	-0.9942303938	-0.323516
C	-1.2757016538	-3.2762124672	 0.0306854792	 0.188898
C	-0.7251791095	-4.3471444533	 0.0511734273	-0.416178
H	 0.993709421	 1.9261430459	 0.0764428078	 0.114194
H	-0.6808378426	 2.0554379973	-0.4870476187	 0.138363
H	-0.3460434408	 1.6963724346	 1.2132296525	 0.11986
H	 0.3588107431	-0.1561506222	-1.1494233924	 0.112858
H	 0.6392227471	-0.532255846	 0.5493853454	 0.111713
H	-1.4259681194	-1.3428512402	 2.0257709206	 0.128404
H	-3.0573442868	-0.7087613664	 1.4654555844	 0.115561
H	-2.6610628985	-1.9444270063	-2.0843751384	 0.118429
H	-3.9568773469	-1.5817141363	-0.8940326567	 0.107611
H	-0.239418536	-5.2908460731	 0.0715714796	 0.18568
73.4343	90.9032	162.4207	194.2755	209.0343	285.6708	342.5384	392.4205	440.7466	518.1871	539.2625	560.633	611.1661	655.5781	708.6893	761.4847	796.5453	844.8722	920.1947	968.5842	986.8647	990.7002	1005.445	1052.8278	1071.2366	1098.4978	1138.926	1159.8508	1209.8284	1268.1018	1309.6983	1330.1573	1363.91	1406.9698	1415.4031	1473.9951	1486.0124	1498.4792	1509.5215	1518.8371	2230.4438	3029.2463	3036.6595	3041.6522	3075.4669	3086.1807	3112.4272	3114.8732	3120.138	3215.6946	3503.1492
CCC12CC1(CO2)C#C	CC[C@]12C[C@]1(CO2)C#C	
InChI=1S/C8H10O/c1-3-7-5-8(7,4-2)9-6-7/h1H,4-6H2,2H3	InChI=1S/C8H10O/c1-3-7-5-8(7,4-2)9-6-7/h1H,4-6H2,2H3/t7-,8-/m0/s1
