14
gdb 24952	5.20633	1.31586	1.05214	4.209	69.82	-0.1755	0.0379	0.2133	1043.1125	0.104495	-432.931947	-432.924868	-432.923924	-432.963187	27.639	
O	-0.0247279428	-0.0366355409	-0.0526122065	-0.413644
C	-0.017401995	 1.1750294515	-0.0623627955	 0.415903
N	-1.1494783277	 2.0237041258	-0.0800331283	-0.460754
C	-0.7094150338	 3.3277661103	 0.1075401467	 0.34434
C	 0.6616340762	 3.3569445836	 0.0955225604	 0.307976
N	 1.0828503652	 2.0294610608	-0.0442034064	-0.466517
C	 1.0751420008	 4.7116625078	 0.0134436426	-0.294567
C	-0.0889213094	 5.4565454972	-0.0125398674	-0.075925
N	-1.186058965	 4.60290134	-0.0042117473	-0.374397
H	-2.0439461153	 1.6384096055	 0.1725635537	 0.26397
H	 2.0098667234	 1.6611771858	 0.0741072479	 0.265182
H	 2.0770777459	 5.1090984921	-0.004582199	 0.101163
H	-0.2332817155	 6.5233373998	 0.0271708668	 0.121542
H	-2.1424182471	 4.8982119906	 0.0773601825	 0.265727
121.1246	206.1678	314.4699	338.8021	374.0241	388.849	456.7388	570.5652	590.9897	603.3231	641.5114	712.9681	747.2598	764.5011	790.0923	858.5499	938.2411	965.7999	1069.9549	1092.117	1139.5947	1244.7437	1281.1034	1308.3843	1335.0137	1392.048	1486.6214	1503.4105	1593.9955	1608.1396	1843.2948	3257.4163	3279.0717	3666.4665	3690.3389	3692.142
O=C1NC2=C(N1)C=CN2	O=c1[nH]c2c([nH]1)cc[nH]2	
InChI=1S/C5H5N3O/c9-5-7-3-1-2-6-4(3)8-5/h1-2,6H,(H2,7,8,9)	InChI=1S/C5H5N3O/c9-5-7-3-1-2-6-4(3)8-5/h1-2,6H,(H2,7,8,9)
