23
gdb 106310	2.65363	1.15581	0.9857	1.5626	86.18	-0.2442	0.0736	0.3178	1337.0202	0.205166	-388.26188	-388.252005	-388.251061	-388.296245	37.58	
C	-0.2836237167	 1.2635412142	-0.5295388288	-0.420701
C	 0.124695464	-0.1951242092	-0.4546282344	-0.04923
C	 1.5095745307	-0.7847545504	-0.5768205741	-0.160206
C	 2.6208687031	 0.0019263721	 0.139411284	 0.051524
C	 3.1633951882	 1.3023993016	-0.4449872604	-0.415025
C	 1.7553631652	-0.0029242626	 1.4452077201	-0.323582
C	 0.7195584706	-0.8986658982	 0.7420177795	 0.314076
C	 0.0893579006	-2.1042835933	 1.3721770081	-0.173848
O	-0.8641952631	-1.7680333244	 2.3758416248	-0.414815
H	-0.1923455592	 1.6479309215	-1.551345541	 0.119232
H	-1.3308710371	 1.3802987806	-0.2272245177	 0.108134
H	 0.3122905839	 1.9057721149	 0.1213835085	 0.125266
H	-0.5898919647	-0.8424688464	-0.9649341997	 0.080833
H	 1.7000124438	-1.5663701492	-1.3058877599	 0.077769
H	 3.4644355376	-0.6796687066	 0.2944655558	 0.076475
H	 2.3818174748	 2.0475199855	-0.6115055054	 0.116877
H	 3.909042046	 1.7456706382	 0.2249580271	 0.112206
H	 3.6537311434	 1.1183368365	-1.407735601	 0.113172
H	 2.2483604456	-0.5000986246	 2.283795163	 0.103734
H	 1.3925601425	 0.9680991721	 1.7955941737	 0.095038
H	-0.3592180293	-2.7387475117	 0.5894845505	 0.080271
H	 0.8437480017	-2.7100987167	 1.8879456237	 0.103946
H	-1.5054123815	-1.1756142239	 1.9694383837	 0.27885
80.0485	118.9654	160.3239	190.4041	230.5458	239.6514	262.7881	307.1174	338.2579	366.1509	400.5572	466.8581	591.031	655.8879	705.9827	757.4313	834.0029	881.682	898.4016	931.2824	962.5004	979.9058	993.0472	1038.0608	1055.6579	1062.7919	1100.7392	1120.2405	1124.2468	1141.7956	1188.8065	1208.5593	1238.5205	1262.1705	1277.7916	1312.6588	1350.3422	1368.1992	1382.1846	1410.1022	1413.2303	1422.2929	1466.1804	1488.4407	1494.6791	1497.6599	1503.4085	1506.9305	1509.6786	2962.4712	3029.8641	3030.7788	3037.7968	3053.1812	3055.1512	3083.9431	3087.8747	3095.6182	3105.2591	3121.1147	3131.6052	3154.4979	3810.0306
CC1C2C(C)CC12CO	C[C@H]1[C@H]2[C@@H](C)C[C@@]12CO	
InChI=1S/C8H14O/c1-5-3-8(4-9)6(2)7(5)8/h5-7,9H,3-4H2,1-2H3	InChI=1S/C8H14O/c1-5-3-8(4-9)6(2)7(5)8/h5-7,9H,3-4H2,1-2H3/t5-,6-,7+,8+/m0/s1
