17
gdb 19933	3.67167	2.41804	1.96492	0.7396	66.23	-0.2293	0.0814	0.3106	739.5698	0.145216	-363.819852	-363.813895	-363.812951	-363.849639	24.432	
C	 0.1939245235	 1.5891732901	 0.1521998651	-0.253952
C	 1.3168666179	 0.6489259922	-0.0660365895	-0.013626
C	 2.1284356851	 0.2309134635	 1.1559920198	-0.260807
C	 1.1039219547	-0.3928514398	 2.1051838159	 0.115845
O	 0.4230646113	 0.5369525811	 2.9917045754	-0.295368
C	-0.867237549	 0.1278560588	 2.4770915784	-0.095788
C	-0.202211064	-0.6005551916	 1.2995995154	-0.028555
N	-0.075743844	 0.1423314222	 0.0341279994	-0.113151
H	 0.1328591262	 2.065931047	 1.1261969473	 0.135286
H	-0.1973625185	 2.1786074231	-0.6724676772	 0.113467
H	 1.7852197252	 0.5718398782	-1.0433036438	 0.089363
H	 2.879100234	-0.5163925513	 0.8777127247	 0.107173
H	 2.6502539039	 1.0660546415	 1.6332484095	 0.123862
H	 1.4969614453	-1.2453292973	 2.6709714949	 0.077222
H	-1.3834232165	-0.5418061571	 3.1767268606	 0.103019
H	-1.515141202	 0.9778077682	 2.239843028	 0.111908
H	-0.5363162031	-1.6164574687	 1.0831919064	 0.084103
171.4859	279.0837	341.5456	373.5632	478.2102	640.7142	702.3081	721.4907	806.3927	820.5289	857.7095	861.9279	910.7039	931.5258	984.7589	1002.1536	1010.4067	1059.1356	1085.0781	1095.9393	1114.6086	1124.985	1172.7901	1173.8011	1193.2686	1237.6076	1256.3865	1278.2075	1305.5671	1332.4212	1348.8605	1356.7456	1392.1822	1469.6357	1500.98	1517.8589	3019.4117	3035.363	3053.9525	3078.0737	3095.4354	3096.4326	3109.6831	3145.6732	3197.7189
C1C2CC3OCC3N12	C1[C@H]2C[C@H]3OC[C@H]3N12	
InChI=1S/C6H9NO/c1-4-2-7(4)5-3-8-6(1)5/h4-6H,1-3H2	InChI=1S/C6H9NO/c1-4-2-7(4)5-3-8-6(1)5/h4-6H,1-3H2/t4-,5-,6-,7?/m1/s1
