18
gdb 30242	4.21248	1.12594	0.94931	2.1569	80.59	-0.1806	0.046	0.2267	1244.2613	0.148369	-401.947685	-401.939293	-401.938349	-401.980804	31.717	
C	-0.2895889322	 1.49998774	 0.0900391139	-0.396301
C	-0.045171401	-0.0039527341	 0.0314946362	-0.135692
C	 0.6757736849	-0.5508166733	-1.2663776514	-0.187735
N	 1.7027339133	-1.1030051482	-0.3681041344	 0.014698
C	 3.0184118749	-1.4627951648	-0.1784396119	-0.244276
C	 3.2708606405	-1.1843099442	 1.1563076031	 0.338006
O	 4.449225263	-1.4983247856	 1.7731637417	-0.445347
C	 2.1204882386	-0.5758245572	 1.7615333602	-0.480257
C	 1.1767618865	-0.5520356013	 0.7575404107	 0.343432
H	 0.6214753819	 2.0571724451	-0.1498792788	 0.124907
H	-1.0741799526	 1.7992885412	-0.6132278294	 0.116613
H	-0.6095995379	 1.7986235762	 1.0933871733	 0.124872
H	-0.9736593631	-0.5433094569	 0.2498370471	 0.089102
H	 0.1455854869	-1.3020663277	-1.8596435633	 0.116182
H	 1.0475848254	 0.2435634884	-1.9218463449	 0.121864
H	 3.6270013842	-1.9561169254	-0.9164915696	 0.116013
H	 4.3939803856	-1.2172118083	 2.6905550146	 0.295058
H	 2.035256381	-0.2355375637	 2.782528053	 0.088861
64.5507	131.2324	200.5142	217.1524	259.0691	293.1385	366.2742	433.2879	521.9273	573.458	635.2482	666.3669	695.8558	728.7966	739.9019	813.9824	862.5588	920.512	985.4927	1012.343	1087.6382	1106.3397	1125.1395	1143.3573	1155.054	1172.3834	1235.3323	1251.7092	1273.1535	1342.2389	1382.1326	1409.2337	1439.695	1454.2755	1489.8658	1494.6658	1505.7399	1537.9692	1622.3233	3032.2005	3036.4098	3040.2153	3091.9075	3101.0097	3109.2738	3239.4314	3279.4541	3846.8597
CC1CN2C=C(O)C=C12	C[C@H]1Cn2cc(O)cc12	
InChI=1S/C7H9NO/c1-5-3-8-4-6(9)2-7(5)8/h2,4-5,9H,3H2,1H3	InChI=1S/C7H9NO/c1-5-3-8-4-6(9)2-7(5)8/h2,4-5,9H,3H2,1H3/t5-/m0/s1
