17
gdb 37484	2.91724	1.82562	1.48402	1.501	66.78	-0.2351	0.0783	0.3133	914.7001	0.137429	-458.903776	-458.896927	-458.895982	-458.935072	27.091	
C	 0.0428139703	 1.3700066986	 0.0635356508	-0.077497
C	 1.4673014909	 1.8942937483	 0.0028639752	-0.089647
O	 2.0646099797	 1.5787889354	-1.2561996105	-0.272351
C	 1.936019202	 0.234509853	-1.6271847777	 0.073372
C	 2.9143411043	-0.8192460114	-1.0887536122	-0.015293
O	 2.6906537245	-0.9588961752	 0.3172293897	-0.232877
C	 1.8007703734	-1.6417974323	-0.5660766509	 0.002256
C	 0.74833235	-0.618993064	-1.0152080157	 0.043286
O	 0.009878587	-0.0524759822	 0.0380016183	-0.263961
H	-0.436627392	 1.6648430437	 1.0015299731	 0.11377
H	-0.5383880383	 1.7909202527	-0.7727854231	 0.094007
H	 1.474225787	 2.9863895086	 0.0704676128	 0.106821
H	 2.0535381828	 1.4751746517	 0.8289262574	 0.125371
H	 1.9044632265	 0.2021056126	-2.7209761742	 0.094081
H	 3.8849806061	-1.1145450625	-1.4707947584	 0.108428
H	 1.7127038315	-2.7156089066	-0.4574528106	 0.111188
H	 0.0782807741	-1.0025611804	-1.7962896339	 0.079045
130.7612	135.3111	273.0045	327.2784	430.8331	451.6126	524.905	623.9772	667.2557	767.8326	795.7313	859.6509	880.6446	890.2832	908.411	921.64	955.3907	1021.911	1040.2956	1055.4259	1072.9129	1122.6942	1152.6477	1165.9126	1208.4212	1241.2341	1250.9669	1268.7601	1289.0996	1312.0559	1345.5676	1371.6875	1386.5256	1404.1388	1422.1098	1490.242	1492.3571	2979.0634	3011.0559	3039.3268	3061.6477	3090.3155	3097.2304	3182.6514	3203.6352
C1COC2C3OC3C2O1	C1CO[C@H]2[C@H]3O[C@H]3[C@H]2O1	
InChI=1S/C6H8O3/c1-2-8-4-3(7-1)5-6(4)9-5/h3-6H,1-2H2	InChI=1S/C6H8O3/c1-2-8-4-3(7-1)5-6(4)9-5/h3-6H,1-2H2/t3-,4+,5-,6+
