18
gdb 32764	3.17792	1.09198	0.85476	2.4371	75.81	-0.2314	0.0049	0.2363	1358.1377	0.146917	-439.109711	-439.100461	-439.099517	-439.145383	31.965	
C	-0.1129042051	 1.3879641882	-0.0607371343	-0.223442
O	-0.2235149094	-0.0138120765	-0.1617076573	-0.230513
C	 0.8397711356	-0.5851893114	-0.9035320444	-0.195358
C	 0.6302829275	-2.054212031	-1.0149171136	 0.248055
C	-0.3669926827	-2.8439029292	-1.4933643787	 0.200096
C	-1.6681216066	-2.4504186629	-2.1066592692	-0.496898
N	-0.0029074123	-4.1786392354	-1.3180485876	-0.304873
C	 1.1607474593	-4.1239584454	-0.7598071794	 0.059221
O	 1.6221441851	-2.8769330132	-0.5333920501	-0.175552
H	 0.8085512001	 1.6879084434	 0.4625564847	 0.10752
H	-0.1174936415	 1.8714739067	-1.0506140648	 0.105508
H	-0.9747477581	 1.7404661721	 0.5101042266	 0.132383
H	 0.8850811607	-0.1196710515	-1.9031353315	 0.10398
H	 1.8097722482	-0.3998015358	-0.4163543915	 0.112504
H	-1.7027701901	-2.7144408423	-3.169571419	 0.133057
H	-2.4944628093	-2.9743175597	-1.6162728673	 0.141705
H	-1.832179761	-1.3761064867	-2.0017951156	 0.135595
H	 1.7994312096	-4.9400051294	-0.459493977	 0.147011
21.867	94.4552	118.4642	126.2167	226.3005	243.7977	264.5581	328.0188	386.2513	413.2253	653.9411	671.6325	701.6745	787.3724	838.902	956.9045	976.1947	981.5175	993.1606	1068.9872	1129.425	1147.564	1159.6196	1184.5764	1218.5287	1221.9109	1275.4528	1299.8238	1360.1281	1417.7994	1433.6025	1478.5011	1480.1324	1485.5626	1490.6706	1500.5333	1520.1236	1552.7938	1673.1951	2952.6032	2971.9691	3001.1168	3016.6206	3038.5809	3095.2785	3120.7756	3135.9699	3272.8575
COCC1=C(C)N=CO1	COCc1c(C)nco1	
InChI=1S/C6H9NO2/c1-5-6(3-8-2)9-4-7-5/h4H,3H2,1-2H3	InChI=1S/C6H9NO2/c1-5-6(3-8-2)9-4-7-5/h4H,3H2,1-2H3
