18
gdb 40816	3.794	1.17406	1.01453	2.4843	72.77	-0.248	0.0196	0.2675	1183.2168	0.149394	-439.071991	-439.064208	-439.063264	-439.104887	29.168	
C	 0.3041206611	 1.5140205785	 0.1399293451	-0.174412
O	 1.1410972741	 0.4230042795	-0.2670488634	-0.242771
C	-0.2073210331	 0.1416786159	 0.1026005043	 0.07972
C	-0.4071473878	-0.7069373075	 1.3468112697	 0.003147
C	 0.0428465167	-2.1542051764	 1.090171476	-0.237682
C	 0.0426816181	-2.9155197126	 2.4078026275	-0.081799
O	 0.8265560373	-2.2358499537	 3.4023941256	-0.223244
C	 0.8222647065	-0.8859720301	 3.3378468981	 0.135169
N	 0.286600292	-0.1176743463	 2.4886852054	-0.273638
H	 0.5539905019	 1.9473049262	 1.1035345572	 0.1359
H	 0.0303717712	 2.2088607065	-0.6530702853	 0.105779
H	-0.8461046253	-0.1504933307	-0.7343800012	 0.084092
H	-1.486906255	-0.6951120394	 1.5626406048	 0.087038
H	-0.6103079581	-2.6572343117	 0.3694003173	 0.104434
H	 1.0545179659	-2.1375605271	 0.6710438208	 0.135002
H	-0.9778138486	-3.0275959736	 2.796678532	 0.113171
H	 0.4839489731	-3.9102521668	 2.3120922289	 0.122601
H	 1.3845027799	-0.4781287508	 4.1762722771	 0.127493
78.2929	86.55	209.8093	225.7135	269.506	397.9239	449.0482	499.8882	539.1946	671.3863	764.8731	811.286	853.6231	875.6944	904.2497	940.7167	969.4353	984.5206	1016.6234	1045.2786	1090.683	1116.0771	1130.1984	1162.8523	1174.0631	1187.8185	1235.1618	1270.344	1293.0993	1316.2657	1347.4765	1374.9785	1401.6684	1418.0903	1433.5174	1481.3997	1511.1315	1515.7475	1734.2344	2983.4602	3024.8475	3046.4476	3079.9189	3093.8604	3096.0859	3104.6607	3155.8148	3202.8207
C1OC1C1CCOC=N1	C1O[C@H]1[C@H]1CCOC=N1	
InChI=1S/C6H9NO2/c1-2-8-4-7-5(1)6-3-9-6/h4-6H,1-3H2	InChI=1S/C6H9NO2/c1-2-8-4-7-5(1)6-3-9-6/h4-6H,1-3H2/t5-,6-/m1/s1
