23
gdb 122680	5.16173	0.6276	0.58071	1.2434	83.13	-0.2403	0.0807	0.321	1948.6848	0.205732	-425.420364	-425.410189	-425.409245	-425.457254	35.467	
C	 0.0215803275	 1.4180940433	-0.1031838366	-0.228514
O	 0.0179367418	 0.0117238477	-0.1173254037	-0.229053
C	-1.2719146279	-0.5371410678	 0.038663218	-0.055331
C	-1.1533709567	-2.0568682484	 0.0250850212	-0.225584
C	-2.5002737544	-2.7738296483	 0.1191388105	 0.004604
C	-2.4108135582	-4.3096322165	 0.0799687421	-0.251013
C	-3.7427336683	-4.7364606462	 0.7089134123	-0.067853
O	-4.1507899469	-3.6714224259	 1.5709898456	-0.264096
C	-3.259627573	-2.5706868833	 1.4396420298	-0.06484
H	 1.0565317388	 1.7452028159	-0.2299986198	 0.126577
H	-0.5861009015	 1.8382434428	-0.9208869412	 0.102197
H	-0.3636081653	 1.8198097462	 0.8479238863	 0.102842
H	-1.7229794287	-0.1875357078	 0.9837571182	 0.088029
H	-1.9356791532	-0.1970518913	-0.7765206892	 0.08308
H	-0.6387596117	-2.3496900893	-0.8973928918	 0.107365
H	-0.5085732702	-2.3678562034	 0.8566526059	 0.105452
H	-3.1469074236	-2.4412647588	-0.7046612487	 0.076763
H	-2.2709682291	-4.7085546362	-0.9279192771	 0.103303
H	-1.5673508395	-4.6463926466	 0.694128875	 0.104787
H	-4.5161460379	-4.8916846844	-0.0569921587	 0.094345
H	-3.6592469925	-5.6614226334	 1.2918041048	 0.100014
H	-2.5517876501	-2.5463841253	 2.2859826077	 0.085001
H	-3.8484250595	-1.6475344829	 1.4684171394	 0.101925
42.0571	63.8417	79.8749	103.6194	127.8136	187.7807	237.1333	275.8091	307.2099	419.5977	484.2235	611.3122	680.2403	797.2166	846.122	888.933	922.4462	957.8884	974.4325	992.6406	1001.1626	1053.1936	1084.9655	1124.7195	1130.2681	1163.73	1170.7265	1187.2634	1193.4141	1224.8553	1233.4289	1237.0751	1273.3177	1288.3778	1311.3796	1325.9404	1346.2437	1365.7088	1383.4965	1414.7116	1430.061	1482.709	1486.1333	1488.6987	1494.1643	1505.1059	1523.1029	1532.088	1535.8244	2939.1117	2954.9747	2965.5742	2968.4089	2997.9162	3008.8964	3009.6931	3030.0323	3036.3239	3051.7889	3061.1125	3074.63	3102.879	3112.7088
COCCC1CCOC1	COCC[C@H]1CCOC1	
InChI=1S/C7H14O2/c1-8-4-2-7-3-5-9-6-7/h7H,2-6H2,1H3	InChI=1S/C7H14O2/c1-8-4-2-7-3-5-9-6-7/h7H,2-6H2,1H3/t7-/m0/s1
