18
gdb 9644	4.04818	1.20258	1.075	3.2563	74.09	-0.2664	0.0183	0.2848	1158.6411	0.152964	-343.985167	-343.976165	-343.975221	-344.018886	32.174	
C	 0.239479666	 1.5327890706	 0.1106971393	-0.378662
C	-0.2438867696	 0.0979421545	-0.1339857719	-0.196424
C	 0.4557146174	-0.5265293275	-1.3200534946	-0.023191
N	 1.787652725	-1.1002555012	-1.104141456	-0.354481
C	 0.6786625901	-2.0060113629	-1.4847661656	 0.15145
C	 0.2612421211	-3.0478031625	-0.4644158849	-0.454281
C	 0.6675478608	-2.4781733216	-2.8546333518	 0.236221
N	 0.6709266002	-2.8635700362	-3.9457947355	-0.34076
H	 1.3156623954	 1.5480854379	 0.3080592297	 0.13292
H	 0.0462180056	 2.1715361899	-0.7580234948	 0.117753
H	-0.2702878621	 1.9763739099	 0.9706373978	 0.119022
H	-0.065442924	-0.505014375	 0.7604385236	 0.110129
H	-1.3254241704	 0.0911280047	-0.3175676453	 0.108129
H	 0.3047036757	 0.0116379842	-2.255669961	 0.10428
H	 2.4003847674	-0.9270137451	-1.8969396115	 0.249406
H	 0.3555151412	-2.6469556368	 0.5449774742	 0.140331
H	-0.773180136	-3.3627863696	-0.6301184308	 0.136411
H	 0.9042140763	-3.9293125134	-0.5410273408	 0.141748
67.1159	126.5872	141.97	158.1878	218.8295	238.6708	284.1567	360.7016	415.2265	458.9817	583.4148	599.3213	681.8364	768.3831	811.7894	877.114	927.4586	974.9681	1011.2381	1063.4261	1093.2042	1109.0201	1114.6164	1132.3339	1235.6684	1279.5437	1304.948	1334.8556	1350.1326	1408.1033	1415.8782	1454.9664	1474.3439	1485.7463	1495.428	1499.5113	1508.2313	2344.6759	3036.4477	3037.5802	3051.8198	3086.5936	3106.4639	3115.3593	3117.3005	3118.2149	3153.0525	3510.1294
CCC1NC1(C)C#N	CC[C@H]1N[C@]1(C)C#N	
InChI=1S/C6H10N2/c1-3-5-6(2,4-7)8-5/h5,8H,3H2,1-2H3	InChI=1S/C6H10N2/c1-3-5-6(2,4-7)8-5/h5,8H,3H2,1-2H3/t5-,6-/m1/s1
