19
gdb 53413	4.0348	0.9259	0.83441	1.408	84.49	-0.2431	0.0453	0.2884	1447.3475	0.159242	-385.856229	-385.847374	-385.846429	-385.891504	32.208	
C	-0.0127106133	 1.5089002645	 0.0330587414	-0.500662
C	-0.0307004469	 0.0536598249	 0.0304795197	 0.109546
C	-0.0407936508	-1.1497838682	 0.0391503228	 0.052357
C	-0.0723939768	-2.6074200668	 0.0055282424	-0.075323
O	 0.6466919144	-3.1312316517	 1.1323170611	-0.26507
C	 0.1648767736	-4.4460434453	 1.3953901731	-0.090946
C	-1.3022256244	-4.4322543032	 1.0055879166	-0.058815
C	-2.0929029424	-3.2330470018	 1.4643732165	-0.286672
C	-1.4625279196	-3.2381356713	 0.0982328353	-0.045847
H	 0.4941640498	 1.8930316107	 0.925123145	 0.152435
H	 0.5136241116	 1.9039636816	-0.8428217388	 0.147874
H	-1.0279063401	 1.9208329339	 0.0260479042	 0.147749
H	 0.4013832527	-2.9541682769	-0.9293705697	 0.090682
H	 0.7074177079	-5.1968336239	 0.7975694258	 0.090682
H	 0.3522054109	-4.6482839853	 2.4552956014	 0.109111
H	-1.8014042341	-5.37328002	 0.8068472668	 0.089173
H	-3.1710304397	-3.3352345816	 1.5123891198	 0.109949
H	-1.6596307949	-2.588900405	 2.2228086275	 0.129542
H	-2.0749268378	-3.2582655647	-0.7945362509	 0.094234
19.5746	78.1359	94.6198	201.1373	258.0743	310.4934	348.3131	378.6142	453.4753	513.2302	646.7697	720.9325	782.7807	824.529	839.7825	914.2714	925.5062	945.3228	994.3107	1030.9145	1051.7486	1055.2803	1076.9212	1078.8155	1087.1149	1111.2286	1120.6174	1183.8739	1196.1523	1236.6501	1307.6547	1325.7041	1357.111	1369.8008	1400.9227	1414.1366	1477.2302	1478.6251	1481.9908	1514.9377	2376.2218	2944.9378	2970.087	3027.5742	3066.9977	3088.0335	3089.8141	3133.4788	3179.7757	3191.9772	3222.8818
CC#CC1OCC2CC12	CC#C[C@H]1OC[C@H]2C[C@@H]12	
InChI=1S/C8H10O/c1-2-3-8-7-4-6(7)5-9-8/h6-8H,4-5H2,1H3	InChI=1S/C8H10O/c1-2-3-8-7-4-6(7)5-9-8/h6-8H,4-5H2,1H3/t6-,7-,8-/m1/s1
