15
gdb 102016	1.96441	1.44642	0.96421	2.6796	64.45	-0.253	-0.1087	0.1443	1207.0856	0.106952	-494.895386	-494.885242	-494.884298	-494.932378	32.716	
C	 1.0377647318	 1.2951877389	 0.5208273922	-0.250193
O	 0.4945391105	 0.0438445246	 0.1185746484	-0.261729
C	 0.2365857027	-0.8608500106	 1.1740268096	-0.080043
C	-1.2658616278	-1.071610727	 1.3531006917	 0.150236
O	-1.7514733363	-1.5320678547	 2.3493374631	-0.234594
C	 0.9419024592	-2.1609187459	 0.7617598387	 0.301549
O	 0.3934143953	-3.1918166102	 0.4696870037	-0.265635
C	 2.4756397741	-2.083685511	 0.7007112843	 0.100159
O	 3.115000403	-1.1916701773	 1.1915785207	-0.21752
H	 2.0244984503	 1.164800197	 0.9795514497	 0.144223
H	 1.1334215099	 1.8974308194	-0.3848557853	 0.139646
H	 0.3721372781	 1.812116032	 1.2254415124	 0.119863
H	 0.6655991594	-0.5250535414	 2.1264682443	 0.130225
H	-1.865416207	-0.7540290101	 0.4733600881	 0.102216
H	 2.9309879567	-2.9687758637	 0.2105949785	 0.121598
43.1347	52.7993	64.9529	129.747	151.3905	177.6291	190.4382	233.8312	323.4339	383.1019	485.1036	526.1685	584.8083	638.0171	767.3298	954.7095	1017.7309	1038.1186	1058.3186	1141.7243	1155.1288	1180.7455	1212.9958	1287.9156	1329.0305	1364.42	1392.543	1477.6945	1486.3594	1509.3623	1806.9506	1821.2201	1850.1206	2912.7055	2936.4105	3005.3963	3044.3782	3077.8505	3132.9659
COC(C=O)C(=O)C=O	CO[C@@H](C=O)C(=O)C=O	
InChI=1S/C5H6O4/c1-9-5(3-7)4(8)2-6/h2-3,5H,1H3	InChI=1S/C5H6O4/c1-9-5(3-7)4(8)2-6/h2-3,5H,1H3/t5-/m0/s1
