15
gdb 29324	3.30309	1.28335	0.9288	1.9874	80.71	-0.1886	-0.0037	0.1849	1179.8947	0.112653	-416.804118	-416.795225	-416.794281	-416.837781	33.032	
N	 0.246172533	 1.4030657838	-0.0758806467	-0.640089
C	 0.0782071367	-0.0106986109	-0.0515620903	-0.071803
C	-1.0682158601	-0.80227492	 0.0290520306	 0.167655
N	-0.6462383989	-2.1125677553	 0.0152067031	-0.338006
C	 0.7244201808	-2.1819084289	-0.0714510582	-0.204182
C	 1.1904451165	-0.8841056639	-0.1137483987	 0.358372
O	 2.4785262552	-0.4746643338	-0.1995220647	-0.453163
C	-2.4216343053	-0.4352068593	 0.1113081815	 0.250172
C	-3.5813328568	-0.1088538349	 0.1816049291	-0.439158
H	-0.1312406825	 1.8388385965	 0.7603386603	 0.246808
H	-0.2355610658	 1.8232466079	-0.865166193	 0.246807
H	-1.2661214835	-2.9013773843	 0.0610741718	 0.267504
H	 1.2463645824	-3.1229672378	-0.0952802038	 0.126525
H	 2.4312207247	 0.4937990654	-0.2060363179	 0.294307
H	-4.6010983564	 0.1793230453	 0.2434291769	 0.188251
59.0971	122.9329	129.3999	251.2553	257.2875	310.6504	408.2627	409.0606	463.0895	500.3591	524.3802	548.7078	599.6257	639.7603	682.0489	696.7151	729.8178	732.3958	767.2445	852.2354	1049.7739	1108.1283	1187.735	1209.8888	1252.1528	1319.0129	1361.8181	1462.9314	1492.801	1564.5406	1633.3992	1666.1655	2217.5205	3280.8438	3491.1967	3502.2439	3554.4959	3693.6285	3716.259
NC1=C(NC=C1O)C#C	Nc1c([nH]cc1O)C#C	
InChI=1S/C6H6N2O/c1-2-4-6(7)5(9)3-8-4/h1,3,8-9H,7H2	InChI=1S/C6H6N2O/c1-2-4-6(7)5(9)3-8-4/h1,3,8-9H,7H2
