18
gdb 20302	4.14723	1.71867	1.58427	2.5294	70.95	-0.2182	0.069	0.2873	880.6339	0.15604	-343.895816	-343.888773	-343.887829	-343.927434	27.134	
C	 0.3985817304	 1.4195416641	 0.1993864596	-0.238052
N	 1.0292759054	 0.3507575151	-0.5942486578	-0.317096
C	-0.2881938993	 0.1137621164	 0.0149769078	-0.030988
C	-0.4992922496	-0.8641387522	 1.1348768701	 0.013773
C	-0.2422653009	-2.3186695311	 1.1470011546	-0.058797
C	 1.0649503225	-2.7108487643	 0.4584162172	-0.243976
C	 1.7646999927	-1.733668264	 1.4305944797	-0.141058
N	 0.4660415428	-1.3784751806	 2.126860745	-0.173537
H	 0.8939724661	 1.6296635649	 1.1428505545	 0.131429
H	 0.0022081222	 2.2909029758	-0.3143531034	 0.112988
H	 0.9210213842	 0.5374203561	-1.5870067163	 0.233324
H	-1.1441511558	 0.1319349596	-0.6610516324	 0.086517
H	-1.417325411	-0.6020012718	 1.6643733274	 0.095633
H	-0.9969505052	-3.0228640074	 1.4872466353	 0.0871
H	 1.3379914253	-3.7540886252	 0.6270288062	 0.104231
H	 1.1331351357	-2.4932356829	-0.6100241162	 0.104566
H	 2.4034570524	-2.2397259887	 2.1576687244	 0.100219
H	 2.2924737523	-0.8894305239	 0.9918048944	 0.133725
55.9154	162.2938	215.7482	300.6782	327.1625	471.055	609.4176	730.5894	764.0166	776.5571	788.058	797.5411	883.7197	900.9167	933.7204	969.0305	974.4912	994.2579	1013.0797	1059.7572	1081.6843	1115.977	1120.1404	1141.5267	1180.1371	1206.124	1228.5975	1240.2588	1264.0965	1267.9932	1290.1406	1305.8521	1367.5441	1425.2094	1464.8338	1480.9086	1500.4513	1515.2433	3067.6605	3076.0239	3085.638	3096.8046	3113.1324	3118.3739	3142.8944	3158.3019	3201.0231	3509.25
C1NC1C1C2CCN12	C1N[C@H]1[C@H]1[C@H]2CCN12	
InChI=1S/C6H10N2/c1-2-8-5(1)6(8)4-3-7-4/h4-7H,1-3H2	InChI=1S/C6H10N2/c1-2-8-5(1)6(8)4-3-7-4/h4-7H,1-3H2/t4-,5-,6+,8?/m1/s1
