18
gdb 125949	2.85677	1.62383	1.09049	3.4676	77.77	-0.2379	-0.0052	0.2327	1100.9312	0.150118	-401.956359	-401.948857	-401.947912	-401.988439	28.93	
C	-0.0216551948	 1.5977380454	 0.0056536524	-0.399038
C	 0.0240726258	 0.0670757841	 0.0484333371	-0.126915
C	 0.7332752026	-0.5911670482	-1.1885207748	-0.210575
C	 1.5526538254	-1.8324674303	-0.6876069858	-0.364016
C	 1.6760022605	-1.5375286786	 0.7795032899	 0.157841
C	 0.8512233638	-0.527575748	 1.1434332797	 0.403295
O	 0.9107662914	-0.2796083802	 2.4510546271	-0.238253
N	 1.8422262968	-1.1803160723	 3.0097152686	-0.146205
C	 2.2754426266	-1.9159109262	 2.006691087	-0.129462
H	 0.9877153017	 2.0160074275	-0.0636472759	 0.123545
H	-0.5932583385	 1.9407313192	-0.8623244864	 0.118858
H	-0.4949422199	 2.0030782993	 0.9046954217	 0.132231
H	-1.005926467	-0.3083659196	 0.131833337	 0.0993
H	 0.0206091396	-0.8532947818	-1.9742987023	 0.10624
H	 1.4260854576	 0.1426901211	-1.6135897762	 0.113108
H	 1.0101657742	-2.7690722858	-0.8668380984	 0.115538
H	 2.5096675408	-1.9186608604	-1.2113405003	 0.114557
H	 3.0079166437	-2.6820455554	 2.2211744797	 0.129951
98.597	155.7463	220.9042	244.1029	278.9365	418.0706	466.6731	553.4969	637.4718	643.6877	712.1951	731.8174	821.1875	867.2147	898.0315	909.5056	942.3757	967.6702	981.188	1031.3705	1102.2812	1104.8608	1135.9064	1190.4155	1201.1164	1226.2255	1289.304	1297.151	1318.1752	1343.6869	1371.386	1409.6312	1417.9773	1484.7679	1494.9857	1497.6246	1506.2101	1512.0121	1655.2234	2999.7509	3027.983	3036.7849	3051.2877	3073.2788	3104.9608	3109.5089	3114.2248	3237.2749
CC1CCC2=C1ON=C2	C[C@H]1CCc2c1onc2	
InChI=1S/C7H9NO/c1-5-2-3-6-4-8-9-7(5)6/h4-5H,2-3H2,1H3	InChI=1S/C7H9NO/c1-5-2-3-6-4-8-9-7(5)6/h4-5H,2-3H2,1H3/t5-/m0/s1
