17
gdb 36758	6.63803	0.46158	0.43503	0.8477	98.08	-0.2431	-0.0134	0.2297	2365.489	0.132277	-347.471923	-347.461727	-347.460783	-347.508067	36.205	
C	-0.0859269814	-1.2322315079	-0.004329997	-0.423734
C	-0.0718973057	-0.0305396971	 0.0025198265	 0.280294
C	-0.0207308106	 1.4257137516	 0.0104541525	-0.352664
C	 1.4211541776	 1.970033142	-0.0008007556	-0.168575
C	 1.4468324126	 3.512627213	 0.0079412133	-0.397753
C	 2.7946346779	 4.0577716037	-0.0022861548	 0.321026
C	 3.9234678497	 4.4942845315	-0.0112304669	-0.173212
C	 5.1926326151	 4.9850389067	-0.0214333029	 0.289357
C	 6.3188111486	 5.4209454548	-0.0304776082	-0.558031
H	-0.1095370713	-2.2936903934	-0.0104468518	 0.19623
H	-0.566605197	 1.8158311248	-0.8590566949	 0.132261
H	-0.5490614966	 1.8056493518	 0.8951763626	 0.13226
H	 1.9635943502	 1.5897501642	 0.8697657068	 0.128297
H	 1.9460207773	 1.5999854054	-0.8864198058	 0.128297
H	 0.8939225154	 3.8938823323	-0.8617795337	 0.13804
H	 0.9114389164	 3.8836508196	 0.8929087223	 0.138031
H	 7.3091078016	 5.8032399569	-0.0384069425	 0.189875
51.3083	68.0302	81.8387	137.4558	163.1383	233.0515	290.4471	344.9373	356.4731	423.4645	515.3675	533.8365	551.323	590.8206	596.3638	620.2266	640.5225	733.9116	736.7535	838.6582	959.0798	1025.9722	1035.0288	1079.1214	1171.8203	1179.4689	1257.8462	1291.0725	1317.2441	1346.7283	1381.5488	1466.2628	1473.449	1499.722	2182.5535	2240.8868	2365.2126	3006.3248	3013.1863	3035.5089	3042.1955	3062.051	3108.6272	3506.504	3507.6484
C#CCCCC#CC#C	C#CCCCC#CC#C	
InChI=1S/C9H8/c1-3-5-7-9-8-6-4-2/h1-2H,5,7,9H2	InChI=1S/C9H8/c1-3-5-7-9-8-6-4-2/h1-2H,5,7,9H2
