14
gdb 12728	3.20903	2.2428	1.62953	0.8231	57.92	-0.2552	-0.0402	0.2151	782.7643	0.1059	-419.650096	-419.643044	-419.6421	-419.681432	26.217	
O	 0.4520862383	 1.3175254933	-0.308282954	-0.459422
C	 0.1075211498	 0.004686025	-0.0677291633	 0.261269
C	 0.2498924388	-0.9460555547	-1.2763764712	-0.128977
O	-1.0583229703	-1.5209327494	-1.083077237	-0.277983
C	-1.3223893567	-0.7052431704	 0.0641587604	 0.027563
C	-0.8758979703	-1.3915992387	 1.3801412997	-0.359165
C	 0.4305609593	-0.5780381689	 1.3060969329	 0.31101
O	 1.244432149	-0.2319351265	 2.1174007234	-0.306968
H	 0.7934514497	 1.6885344454	 0.5158927385	 0.300315
H	 0.3042563234	-0.3709204046	-2.2076016384	 0.129301
H	 1.0551583002	-1.6884453213	-1.2512529757	 0.117227
H	-2.2875142736	-0.1984989894	 0.0377282144	 0.101518
H	-1.4584198624	-1.1343321135	 2.2698822776	 0.140074
H	-0.7817673052	-2.4772678462	 1.3083847627	 0.144238
87.206	164.299	240.1322	310.0071	353.1654	402.0307	482.6568	500.7143	636.3088	694.3113	767.7279	841.5542	887.9765	926.1676	999.3696	1009.7208	1030.8894	1050.8015	1095.083	1122.2827	1154.9136	1160.3061	1214.8259	1281.3742	1318.528	1366.115	1390.5254	1423.8281	1513.0478	1866.6797	3029.7918	3066.0534	3083.7334	3115.0849	3128.8526	3768.7017
OC12COC1CC2=O	O[C@]12CO[C@H]1CC2=O	
InChI=1S/C5H6O3/c6-3-1-4-5(3,7)2-8-4/h4,7H,1-2H2	InChI=1S/C5H6O3/c6-3-1-4-5(3,7)2-8-4/h4,7H,1-2H2/t4-,5-/m0/s1
