18
gdb 86497	3.93117	0.80989	0.75572	3.1124	81.83	-0.2459	0.0223	0.2682	1556.6613	0.145428	-401.912307	-401.902931	-401.901987	-401.947992	33.851	
C	-0.8245044239	-0.1259654272	 0.3843894734	-0.399247
C	 0.2373723692	-0.2401146765	-0.6850812611	 0.148344
C	 1.1835814931	 0.9609923091	-0.9181039237	-0.399202
C	 2.2560922757	 0.0060386739	-0.4481723991	 0.472976
O	 1.3844525468	-1.04668757	-0.2366284928	-0.275761
N	 3.4969622807	 0.0804216937	-0.2957270029	-0.326648
C	 4.2014917371	-1.1112295029	 0.1931756967	-0.320136
C	 4.7888676493	-0.8810121489	 1.5118484422	 0.332648
C	 5.27052831	-0.7037444986	 2.5980313166	-0.470431
H	-0.4099322254	 0.3078018875	 1.2993992596	 0.131974
H	-1.6423706005	 0.5128497926	 0.0346668419	 0.126575
H	-1.2376003584	-1.1100472609	 0.6242059704	 0.136242
H	-0.1640425606	-0.6760714652	-1.6050173703	 0.096786
H	 1.2898735212	 1.3043011628	-1.9481880141	 0.137488
H	 1.0203646716	 1.8186279198	-0.2621059387	 0.137424
H	 3.5545368248	-1.9979342056	 0.2354598261	 0.140206
H	 5.0068287888	-1.3346228025	-0.5181689411	 0.135961
H	 5.6984611506	-0.5453348912	 3.5565435669	 0.194799
18.7236	81.616	113.8059	188.6944	240.368	256.1372	325.6379	335.6155	412.1745	462.8103	541.2617	603.3904	609.0654	649.2572	717.9337	817.8363	884.4646	907.4141	940.2928	961.1552	1014.2443	1031.8775	1064.5118	1076.687	1117.8832	1155.6762	1200.5645	1238.0191	1264.7213	1320.4524	1363.9777	1381.2266	1414.468	1466.4288	1483.1118	1484.3731	1495.364	1833.6979	2241.4012	3009.4036	3039.0954	3043.0153	3062.6162	3084.0926	3112.6697	3120.5624	3139.8033	3507.9297
CC1CC(O1)=NCC#C	C[C@H]1CC(=NCC#C)O1	
InChI=1S/C7H9NO/c1-3-4-8-7-5-6(2)9-7/h1,6H,4-5H2,2H3	InChI=1S/C7H9NO/c1-3-4-8-7-5-6(2)9-7/h1,6H,4-5H2,2H3/t6-/m0/s1
