18
gdb 40414	3.61298	1.32745	1.17807	1.293	75.51	-0.2405	0.0141	0.2547	1088.8995	0.149051	-401.9293	-401.921919	-401.920974	-401.961362	29.197	
C	-0.0006128021	 1.5235668416	-0.054800542	-0.271647
C	 1.3156205689	 0.7920938058	 0.0267720733	-0.262721
C	 0.0199611631	 0.0179249925	 0.0290533558	-0.089638
C	-0.4325626843	-0.6807074272	 1.2682245207	 0.34353
C	-0.4693890233	-2.1962052958	 1.3668960037	-0.359923
C	-1.7508269036	-1.4208998431	 1.4741738588	 0.016662
O	-2.1733103957	-1.0872848554	 2.7912476236	-0.211569
C	-1.1802308919	-0.3045448956	 3.2842764056	 0.092665
N	-0.1974684212	-0.0081249457	 2.5338054779	-0.309521
H	-0.3209113597	 2.0614772785	 0.8302525703	 0.124466
H	-0.286472174	 1.9805764512	-0.9957610712	 0.106158
H	 1.9388725588	 0.7409191214	-0.8590657435	 0.106171
H	 1.855025772	 0.8490368888	 0.96478071	 0.132935
H	-0.219390563	-0.5237557715	-0.8816326346	 0.077283
H	-0.329252085	-2.7432984508	 0.4404114983	 0.121255
H	-0.063004995	-2.67290959	 2.2529882793	 0.123938
H	-2.5743065419	-1.5230036628	 0.7794238726	 0.115212
H	-1.3178109321	 0.0130222281	 4.3106594413	 0.144743
73.2431	161.0777	190.3541	331.8555	360.6779	399.0852	474.214	603.3203	645.3047	757.037	789.7908	795.4349	826.5777	840.8613	898.0417	916.7178	931.644	952.617	976.9028	993.7614	1025.2321	1053.7086	1067.8001	1082.7523	1087.3182	1102.9133	1130.5981	1141.3963	1202.2841	1218.4365	1232.5049	1296.9035	1311.4252	1368.4385	1434.169	1460.0525	1468.7376	1503.2925	1668.3395	3126.1229	3136.212	3139.4401	3146.3817	3198.397	3219.9724	3220.9863	3228.3756	3235.2374
C1CC1C12CC1OC=N2	C1CC1[C@]12C[C@H]1OC=N2	
InChI=1S/C7H9NO/c1-2-5(1)7-3-6(7)9-4-8-7/h4-6H,1-3H2	InChI=1S/C7H9NO/c1-2-5(1)7-3-6(7)9-4-8-7/h4-6H,1-3H2/t6-,7-/m1/s1
