22
gdb 76712	2.57367	1.01416	0.94554	3.4995	83.28	-0.2479	0.0332	0.2811	1393.0169	0.193488	-404.366527	-404.356107	-404.355163	-404.402782	37.363	
C	-0.2220809957	 1.4358380482	-1.3189793969	-0.414748
C	-0.0490289896	 0.0366338835	-0.7621014851	-0.013364
C	 1.303918489	-0.5811900705	-0.4757907319	-0.028861
C	 2.6067588639	 0.1532607618	-0.7195668846	-0.407836
C	 0.3643088601	-0.2478600843	 0.6698649466	-0.04732
C	 0.6846002305	 0.8401784917	 1.6743263375	-0.18893
N	-0.5028086602	 1.4775824556	 2.2346311816	-0.266309
C	-0.7921916965	 2.7921282791	 2.0587892003	 0.162144
O	-0.1055007892	 3.5913480378	 1.4542661394	-0.330407
H	 0.3927077674	 2.1842691704	-0.8156456119	 0.144939
H	 0.0199597612	 1.4606576257	-2.3876168471	 0.111221
H	-1.2617011093	 1.7625613966	-1.210281378	 0.116112
H	-0.7833167941	-0.6629887441	-1.1553342604	 0.077796
H	 1.3763471736	-1.6436627154	-0.6966725041	 0.080155
H	 2.5241370746	 1.2307820781	-0.5616194337	 0.128054
H	 3.4002663594	-0.2188513771	-0.0617763678	 0.115392
H	 2.9399495158	 0.004087247	-1.7525356382	 0.117809
H	-0.122356796	-1.1077926721	 1.1276707028	 0.071474
H	 1.2815865652	 0.415373876	 2.4919234297	 0.108811
H	 1.2697113881	 1.6495139911	 1.2384876639	 0.145698
H	-1.1734228256	 0.9085630143	 2.7266439479	 0.243837
H	-1.7483380826	 3.0702603567	 2.5453791601	 0.074335
36.319	69.3607	117.5077	155.2399	177.5248	204.6032	222.2812	269.4469	305.2383	348.8114	463.6397	499.7753	534.3246	560.1562	743.6613	763.2597	778.7319	846.6919	930.0669	945.0574	988.6729	1019.8367	1031.2292	1040.0688	1052.1482	1112.2485	1132.5108	1160.993	1175.832	1190.4642	1210.1782	1268.8211	1283.3799	1362.2992	1379.3356	1407.4321	1421.1534	1429.8278	1429.8443	1452.7513	1485.8084	1491.7753	1498.8687	1502.3251	1517.4781	1534.851	1797.2662	2934.0498	3020.0074	3032.0569	3035.3198	3086.1145	3088.2858	3103.2697	3110.5031	3122.2451	3130.7203	3138.1168	3149.6645	3632.0407
CC1C(C)C1CNC=O	C[C@H]1[C@@H](C)[C@H]1CNC=O	
InChI=1S/C7H13NO/c1-5-6(2)7(5)3-8-4-9/h4-7H,3H2,1-2H3,(H,8,9)	InChI=1S/C7H13NO/c1-5-6(2)7(5)3-8-4-9/h4-7H,3H2,1-2H3,(H,8,9)/t5-,6+,7-
