21
gdb 64456	2.17494	1.65845	1.22677	1.5302	78.17	-0.23	-0.0163	0.2137	1121.1915	0.182527	-424.271445	-424.262365	-424.261421	-424.304752	35.382	
C	-0.0823137114	 1.5539166993	-0.0058060447	-0.440615
C	 0.0339695016	 0.0342422759	 0.0087650837	 0.261964
O	-1.2678460908	-0.5794076747	 0.0328512074	-0.463558
C	 0.726351247	-0.5059579382	-1.2541721514	-0.211271
C	 0.9085729988	-2.0284633986	-1.2221007966	-0.202594
C	 1.6995324591	-2.4663762248	 0.0163367184	-0.206173
C	 1.0253931509	-1.968658276	 1.311379224	-0.286326
C	 0.788696419	-0.468295134	 1.2642802683	 0.35964
O	 1.1384950449	 0.2822765399	 2.1464803536	-0.319352
H	 0.9033240563	 2.0238764082	-0.0560691933	 0.127558
H	-0.6730153572	 1.8705141407	-0.8699428631	 0.11616
H	-0.5617838622	 1.9151865315	 0.9089762649	 0.119192
H	-1.7697490431	-0.1700296202	 0.7465447993	 0.285324
H	 0.1310761417	-0.2039157962	-2.1231030168	 0.105116
H	 1.704344108	-0.0159664167	-1.3454540384	 0.101082
H	-0.0767886772	-2.506691628	-1.2188510904	 0.11778
H	 1.421282746	-2.3568063414	-2.1327270187	 0.093193
H	 1.7965061729	-3.5566376831	 0.0492062012	 0.101158
H	 2.7196461276	-2.0630595274	-0.0366619224	 0.103033
H	 0.0474934466	-2.4551860585	 1.4106223059	 0.126429
H	 1.6168215015	-2.196793058	 2.2012256091	 0.112261
73.9494	148.8855	208.4921	238.9201	290.8232	296.4105	336.6392	346.5699	375.125	440.6365	462.1566	514.2995	564.2352	663.3901	696.208	822.7877	830.6325	857.5959	920.2937	923.1611	955.8432	990.6963	1043.9636	1073.1503	1095.712	1120.8371	1145.0068	1151.7504	1195.0933	1258.8987	1277.3658	1311.3643	1336.8463	1345.8346	1369.5317	1380.4112	1392.653	1404.8506	1463.0266	1471.169	1482.0895	1488.1611	1490.6596	1500.8717	1809.3787	3020.5034	3024.9109	3040.3221	3041.6524	3043.9792	3070.6299	3070.9638	3087.9384	3109.9647	3115.4508	3126.1634	3801.3127
CC1(O)CCCCC1=O	C[C@@]1(O)CCCCC1=O	
InChI=1S/C7H12O2/c1-7(9)5-3-2-4-6(7)8/h9H,2-5H2,1H3	InChI=1S/C7H12O2/c1-7(9)5-3-2-4-6(7)8/h9H,2-5H2,1H3/t7-/m1/s1
