19
gdb 63042	2.60579	2.04027	1.55031	0.2803	73.09	-0.2385	0.0621	0.3007	925.8656	0.159337	-422.973742	-422.966306	-422.965362	-423.005046	30.493	
C	 0.0227944151	 1.500349749	 0.0185124038	-0.453696
C	 0.0237666074	-0.0301440421	 0.0086936943	 0.325354
C	-1.3945639872	-0.5782669883	-0.1656848114	-0.453696
C	 1.0480501781	-0.6445057084	-0.9867652992	-0.013652
O	 2.2883878593	 0.041123011	-0.639098348	-0.286709
C	 2.2514652049	-0.736813302	 0.5546877888	 0.055136
C	 1.5214893719	-1.9020269281	-0.1053663569	 0.055136
O	 0.6270383755	-2.0864239668	 0.9889960938	-0.286709
C	 0.787201856	-0.653151587	 1.2114249976	-0.013653
H	 1.0296103165	 1.905909983	 0.1252216214	 0.134613
H	-0.4027885323	 1.893995859	-0.9109727283	 0.113936
H	-0.5952330621	 1.8700436809	 0.8444575918	 0.109991
H	-1.8192621063	-0.2262500739	-1.1125390087	 0.109991
H	-1.4118035879	-1.668763342	-0.1576378496	 0.134614
H	-2.048792713	-0.2245074327	 0.6385909465	 0.113936
H	 0.8385085606	-0.6655750215	-2.0551527813	 0.080338
H	 3.1552805635	-0.7476285782	 1.1605831083	 0.097366
H	 1.9329704536	-2.8015954098	-0.5587626811	 0.097366
H	 0.5695063963	-0.336369652	 2.2302778981	 0.080338
179.971	206.6909	218.2516	254.0425	350.4058	362.7681	503.0969	544.1058	544.9593	619.0287	741.6638	760.7882	793.4363	838.2516	852.9358	870.8716	930.6306	950.2215	957.4211	958.9835	990.201	1020.309	1028.1331	1069.9821	1107.9987	1140.3507	1165.0747	1199.1729	1199.6396	1220.95	1229.9998	1252.7842	1307.0325	1316.8709	1345.4503	1396.6625	1418.3674	1484.656	1489.0995	1504.6938	1514.9045	3032.1392	3036.5611	3088.6265	3092.7848	3134.6829	3136.3478	3140.9753	3141.5359	3142.2313	3154.1925
CC1(C)C2OC3C2OC13	CC1(C)[C@H]2O[C@@H]3[C@H]2O[C@H]13	
InChI=1S/C7H10O2/c1-7(2)5-3-4(9-5)6(7)8-3/h3-6H,1-2H3	InChI=1S/C7H10O2/c1-7(2)5-3-4(9-5)6(7)8-3/h3-6H,1-2H3/t3-,4-,5+,6+/m1/s1
