15
gdb 105167	2.2992	1.38841	1.01812	1.7923	67.45	-0.2813	-0.0673	0.2141	1144.3614	0.111249	-453.9298	-453.920818	-453.919873	-453.964081	31.456	
O	 0.7100362763	 0.7216381388	 0.296020494	-0.414624
C	-0.1583441495	 0.2359904899	-0.7104902494	-0.161675
C	-1.4121027022	-0.3682651608	-0.1027671116	 0.191765
N	-2.0878387316	-1.4324138836	-0.8411629904	-0.345191
C	-1.4134145117	-1.7947702833	 0.4062045669	-0.215502
C	-0.2064678632	-2.5805420972	 0.3178197507	 0.330147
N	 0.7921007763	-3.1629543418	 0.2842260297	-0.329366
C	-2.2859493549	 0.5492953883	 0.7049441937	 0.101183
O	-3.431710303	 0.2769071806	 0.9738206441	-0.265762
H	 1.1635997443	-0.0336158413	 0.6867659248	 0.302657
H	-0.432091569	 1.0985831773	-1.3276630485	 0.127187
H	 0.3182375895	-0.5009205614	-1.3672231181	 0.136966
H	-3.0891261827	-1.3653697116	-0.6468020217	 0.262921
H	-2.0256513315	-1.9933692023	 1.2813763922	 0.156018
H	-1.8087205472	 1.4919143584	 1.0322351534	 0.123277
60.6418	107.8582	141.7235	162.3529	205.3701	280.202	316.4358	343.7009	373.739	463.9678	526.2745	583.3826	719.4276	762.394	814.6766	899.1204	969.4898	986.2411	1015.8683	1049.1065	1081.1308	1110.1895	1179.447	1236.9336	1288.4394	1332.4491	1388.5593	1410.1088	1415.1946	1440.0683	1501.0502	1802.2382	2355.5074	2968.3411	3038.105	3085.5178	3159.9026	3450.541	3806.9556
OCC1(NC1C#N)C=O	OC[C@]1(N[C@H]1C#N)C=O	
InChI=1S/C5H6N2O2/c6-1-4-5(2-8,3-9)7-4/h2,4,7,9H,3H2	InChI=1S/C5H6N2O2/c6-1-4-5(2-8,3-9)7-4/h2,4,7,9H,3H2/t4-,5+/m0/s1
