18
gdb 32473	3.01149	1.16361	0.87019	3.8253	79.16	-0.171	0.049	0.22	1339.596	0.147282	-435.272698	-435.2631	-435.262156	-435.307731	33.999	
C	-0.2023979415	 1.3994454808	 0.1398176322	-0.334441
N	 0.5698011067	 0.1788470568	-0.1133191996	-0.388168
C	 0.8010840406	-0.6625377445	 0.957150192	 0.381234
C	 0.6315547401	-1.9743508642	 1.1773244738	-0.220765
N	 1.1220078783	-2.2373058216	 2.4747976117	-0.371973
C	 1.6669096772	-1.0769674676	 2.9892906439	 0.508796
O	 1.4046693766	-0.0768250243	 2.0571200246	-0.24089
N	 2.2817771488	-0.9419614018	 4.0825619679	-0.381467
C	 2.7997086835	 0.3680132053	 4.4311781378	-0.320477
H	 0.2929978405	 1.9757258173	 0.9229866235	 0.157178
H	-0.2158900751	 2.0012802174	-0.7717250696	 0.126994
H	-1.2383509119	 1.2037005935	 0.4549144269	 0.113744
H	 0.2279868974	-0.3387457727	-0.9116673077	 0.241095
H	 0.1464210643	-2.7263315349	 0.580953325	 0.129289
H	 1.4846956578	-3.125119261	 2.7781712318	 0.265022
H	 3.1763432795	 0.9339718319	 3.5677511967	 0.110078
H	 2.0319934515	 0.9871058547	 4.9175124653	 0.111082
H	 3.6185442055	 0.2491360148	 5.1471312437	 0.113669
67.4812	71.7785	138.0927	157.0746	167.5848	210.8003	254.5441	343.0034	390.4197	427.1298	542.0466	597.5107	628.4747	675.6036	691.181	725.7885	778.1511	915.9091	962.0871	1051.0767	1070.2007	1084.3799	1128.3361	1139.6439	1147.4338	1157.7215	1212.161	1324.2425	1357.2888	1398.7571	1448.5028	1458.1368	1472.8751	1492.6776	1494.0938	1503.3483	1516.2975	1738.9044	1820.8391	2988.8407	2991.6444	3035.0467	3085.251	3098.9323	3143.8999	3291.9283	3586.0741	3666.2936
CNC1=CNC(O1)=NC	CNc1c[nH]c(=NC)o1	
InChI=1S/C5H9N3O/c1-6-4-3-8-5(7-2)9-4/h3,6H,1-2H3,(H,7,8)	InChI=1S/C5H9N3O/c1-6-4-3-8-5(7-2)9-4/h3,6H,1-2H3,(H,7,8)
