15
gdb 42516	3.77851	1.03118	0.88786	2.4427	80.31	-0.242	-0.0362	0.2057	1276.3265	0.109221	-383.423273	-383.414389	-383.413445	-383.457546	32.496	
O	 0.3663886759	 0.3307769717	-1.0958294206	-0.267258
C	 0.3596248896	 1.3682617908	-0.5182936116	 0.399838
C	-0.7509783341	 2.3723295795	-0.0961920842	-0.283079
C	 0.3813019148	 3.4409237992	 0.0897672313	-0.255004
C	 1.4841248132	 2.3298526205	-0.008838234	-0.296825
C	 2.0778436003	 1.9170178086	 1.2451332753	 0.32203
C	 2.5340017011	 1.5642667461	 2.3003313359	-0.455855
C	-1.8481480758	 2.6252057231	-0.9985883327	 0.307939
C	-2.7395387438	 2.8380728635	-1.776431104	-0.425512
H	-1.1186254657	 2.0501397433	 0.8872294342	 0.147368
H	 0.4272331702	 4.1326703809	-0.7517756309	 0.131269
H	 0.3541824196	 3.9940778082	 1.0267058329	 0.131047
H	 2.2518384021	 2.5072533912	-0.7686318959	 0.134974
H	 2.9528849977	 1.2524215403	 3.2250592552	 0.205814
H	-3.5327210551	 3.0213005732	-2.458349641	 0.203255
37.1335	110.0763	131.3745	165.8726	227.6314	355.8157	399.354	433.4845	451.569	535.0917	620.1027	622.7304	638.0807	646.3007	659.4596	724.7762	766.6667	808.1187	910.8839	952.5948	1028.5973	1063.2452	1086.8609	1107.3827	1165.5803	1198.9853	1249.2429	1296.9922	1316.1137	1484.2193	1913.5354	2233.2506	2238.2408	3027.6882	3063.3001	3098.7898	3166.2554	3503.2421	3503.8498
O=C1C(CC1C#C)C#C	O=C1[C@@H](C[C@H]1C#C)C#C	
InChI=1S/C8H6O/c1-3-6-5-7(4-2)8(6)9/h1-2,6-7H,5H2	InChI=1S/C8H6O/c1-3-6-5-7(4-2)8(6)9/h1-2,6-7H,5H2/t6-,7-/m1/s1
