29
gdb 117978	2.48983	0.84709	0.7642	0.0574	99.34	-0.2901	0.076	0.3661	1755.8735	0.272397	-354.776936	-354.764653	-354.763709	-354.81411	46.221	
C	 0.038765452	 1.6174069084	-0.0153045965	-0.380358
C	 0.0044102832	 0.0914778615	-0.1414086294	-0.172191
C	-1.3619858153	-0.5057855112	 0.223248915	-0.179368
C	-1.4292714412	-2.0472434072	 0.1204402314	 0.042204
C	-0.7014259092	-2.6832681127	 1.3187012581	-0.418882
C	-2.8826224032	-2.5970396675	-0.090249234	 0.263128
C	-3.405691459	-2.1619554159	-1.4754016046	-0.411156
C	-2.8751539009	-4.139528262	-0.0678754798	-0.411695
C	-3.8527107219	-2.0900332203	 0.9948531598	-0.406808
H	 1.0181064055	 2.020221576	-0.2926232922	 0.10933
H	-0.7097404782	 2.085908904	-0.6643565042	 0.112101
H	-0.1725743254	 1.9347739407	 1.0120387386	 0.112683
H	 0.2569092865	-0.1960841171	-1.170772372	 0.093479
H	 0.7886151185	-0.3386171219	 0.4932097477	 0.097213
H	-1.6266824755	-0.1975940064	 1.2439475504	 0.090021
H	-2.1109241355	-0.0467650488	-0.4313631367	 0.089961
H	-0.872812528	-2.3358679662	-0.7842003098	 0.060639
H	-1.249776825	-2.5235659622	 2.2539701829	 0.113241
H	-0.558517044	-3.7590658037	 1.1934620625	 0.113788
H	 0.2908389244	-2.2413332609	 1.4483331965	 0.111834
H	-2.7507613051	-2.5257366319	-2.2753850373	 0.106117
H	-4.4052134549	-2.5736129455	-1.6536462773	 0.106148
H	-3.4821321704	-1.0755913196	-1.5743835734	 0.111418
H	-2.6453334794	-4.5371771629	 0.9243204428	 0.111456
H	-3.8577225529	-4.5284204377	-0.3563595229	 0.104452
H	-2.1392038263	-4.5444080553	-0.7723012321	 0.105296
H	-3.9618683285	-1.0017161159	 0.9678012499	 0.110849
H	-4.8481406977	-2.5233767194	 0.8479940907	 0.105736
H	-3.5208592727	-2.3695096582	 1.999951936	 0.109363
59.0535	68.5103	94.4673	160.3154	197.9179	219.1891	243.8846	251.506	274.2932	296.7433	301.057	312.6138	370.4071	372.8274	388.6752	452.9135	486.4604	526.5445	724.0417	741.3969	841.6003	867.822	891.6991	926.5991	932.9948	943.8708	957.2756	996.7992	1009.6081	1037.2577	1044.9353	1062.5043	1113.827	1131.448	1184.9976	1222.3001	1242.7858	1261.3732	1270.923	1302.8144	1330.5353	1359.9279	1360.6963	1389.2374	1397.2066	1401.1823	1411.4032	1415.5489	1434.1321	1476.2846	1482.7781	1486.2297	1488.8922	1491.8505	1499.4694	1499.9686	1504.6842	1509.7156	1512.9914	1515.1052	1524.23	2982.9584	3012.4364	3022.0605	3024.1957	3027.6041	3028.0506	3034.3066	3039.1971	3046.3767	3068.5013	3086.111	3090.5363	3094.7629	3095.9163	3098.9423	3100.1916	3103.4438	3106.7305	3108.6479	3118.9975
CCCC(C)C(C)(C)C	CCC[C@@H](C)C(C)(C)C	
InChI=1S/C9H20/c1-6-7-8(2)9(3,4)5/h8H,6-7H2,1-5H3	InChI=1S/C9H20/c1-6-7-8(2)9(3,4)5/h8H,6-7H2,1-5H3/t8-/m1/s1
