19
gdb 33892	3.79014	1.26481	1.14745	0.9179	86.98	-0.2213	0.0358	0.2571	1126.7212	0.159528	-348.670553	-348.66285	-348.661906	-348.702354	31.621	
C	 0.0518504672	-1.2174030291	-0.0342207152	-0.398567
C	 0.0345930928	-0.0128807231	-0.018993054	 0.139492
C	-0.002466466	 1.407192527	 0.0344829781	 0.210549
C	 0.2808333297	 2.2722797004	-1.1747944607	-0.338815
C	 1.1671017153	 2.4368710875	 0.0179822704	-0.113486
C	 0.4983809538	 3.23216738	 1.1584924911	-0.011538
C	-0.4921733119	 4.3835673244	 0.8050008938	-0.245669
C	-1.6771627505	 3.3599129624	 0.8140849569	-0.245242
C	-0.6805087216	 2.2193874964	 1.1760656986	-0.073469
H	 0.0691551013	-2.2784250058	-0.054610069	 0.180204
H	 0.7264331141	 1.7334475107	-2.0039786366	 0.126351
H	-0.4195584626	 3.0435158541	-1.4786148439	 0.116066
H	 2.227330808	 2.2216521112	-0.0417173891	 0.098174
H	 1.1313918176	 3.3669834239	 2.035168954	 0.071865
H	-0.5687811438	 5.1378825419	 1.5915146904	 0.101293
H	-0.3057432948	 4.8989664322	-0.1408552176	 0.101765
H	-2.4093202687	 3.5525650229	 1.6017004398	 0.101177
H	-2.2193515901	 3.2380763718	-0.1272450357	 0.104415
H	-0.8941608397	 1.6183555112	 2.0586734488	 0.075434
118.8983	144.1388	225.0251	312.97	344.0131	450.8454	495.7875	521.0575	550.0149	599.0735	644.3098	681.1126	730.4767	780.7017	803.4369	833.772	876.8077	896.268	916.4653	950.55	969.4583	983.5352	1017.974	1046.4899	1088.739	1095.6311	1114.5777	1148.7914	1186.4446	1216.1352	1231.34	1237.8069	1253.1006	1271.8733	1300.2779	1317.871	1376.3748	1474.4808	1484.5265	1502.3144	2225.279	3058.0271	3063.5941	3097.7212	3109.5653	3116.3177	3126.7298	3131.7357	3182.442	3215.2374	3504.6636
C#CC12CC1C1CCC21	C#C[C@]12C[C@H]1[C@H]1CC[C@@H]21	
InChI=1S/C9H10/c1-2-9-5-8(9)6-3-4-7(6)9/h1,6-8H,3-5H2	InChI=1S/C9H10/c1-2-9-5-8(9)6-3-4-7(6)9/h1,6-8H,3-5H2/t6-,7+,8-,9+/m0/s1
