17
gdb 29277	5.52974	0.9811	0.89113	2.3197	77.2	-0.2253	-0.0011	0.2243	1318.3404	0.1373	-418.020799	-418.012705	-418.011761	-418.054002	29.682	
C	 0.260925292	 1.4767787897	-0.0500384889	-0.491713
C	 0.0149899933	 0.0067355611	-0.0239391341	 0.246529
C	-0.3812473462	-0.8240368097	-1.0166104851	-0.123027
O	-0.4689521382	-2.0963459785	-0.5072529049	-0.19329
C	-0.1127673485	-1.9608467886	 0.7974378514	 0.400312
N	 0.1870741327	-0.7475404983	 1.138190434	-0.358269
C	-0.0999626831	-3.1645328942	 1.6379704604	-0.099936
C	-1.1219654062	-4.2331038708	 1.4333380293	-0.233526
N	 0.274570166	-4.4716605052	 1.0603410769	-0.317374
H	 1.2941361404	 1.7030826403	 0.2332594014	 0.141508
H	 0.0775313532	 1.8894697207	-1.0452977134	 0.123999
H	-0.3898846725	 1.9929280593	 0.663466998	 0.140822
H	-0.6231630985	-0.7064042126	-2.0586153013	 0.14277
H	 0.2859918341	-2.9747137467	 2.6333777317	 0.120986
H	-1.4737577836	-4.7973658199	 2.2921415515	 0.128368
H	-1.8550080718	-4.0772630439	 0.6474178116	 0.127742
H	 0.3793359069	-4.3689126227	 0.0531477013	 0.244098
61.6134	132.9595	154.3145	166.9532	274.5476	299.2339	424.6789	454.0397	635.3936	648.5929	710.9503	740.1666	763.3543	818.7795	883.1614	959.8898	968.4919	992.9151	1001.0502	1026.677	1067.6406	1099.8912	1126.5807	1138.6286	1171.0887	1235.7671	1265.2645	1292.725	1299.771	1360.3292	1383.8431	1418.6449	1475.115	1490.2196	1502.8649	1624.5617	1642.1868	3039.1066	3095.8873	3115.6892	3122.7369	3180.0416	3207.2454	3293.7889	3500.4547
CC1=COC(=N1)C1CN1	Cc1coc(n1)[C@H]1CN1	
InChI=1S/C6H8N2O/c1-4-3-9-6(8-4)5-2-7-5/h3,5,7H,2H2,1H3	InChI=1S/C6H8N2O/c1-4-3-9-6(8-4)5-2-7-5/h3,5,7H,2H2,1H3/t5-/m1/s1
