19
gdb 76954	2.54369	1.18302	1.00744	2.9752	78.27	-0.2389	-0.0176	0.2213	1254.4523	0.157873	-423.00467	-422.995701	-422.994757	-423.038676	33.297	
O	-0.0658941049	 1.3796800132	-0.0810248204	-0.412446
C	-0.0358826484	-0.0112576526	 0.0018219103	 0.020466
C	-0.5076630477	-0.7210264943	 1.2842367967	-0.248727
C	-0.9546291271	 0.076187935	 2.4435089511	 0.156487
O	-0.822832135	-0.2674847886	 3.5959695021	-0.28004
C	-1.3396820863	-0.7036919469	-0.0003885472	 0.310008
C	-2.6893405301	-0.0217347885	-0.2722679208	-0.288241
C	-2.8991667196	-1.0367973232	-1.4357280596	-0.207683
C	-1.7248444058	-1.8977578195	-0.8800570578	-0.295928
H	 0.7002555218	 1.7322022789	 0.3844526446	 0.297066
H	 0.7972751605	-0.4907843872	-0.5138158891	 0.09885
H	-0.013324386	-1.6527922163	 1.5430771761	 0.101516
H	-1.4347930309	 1.0442867191	 2.1860102461	 0.081393
H	-3.4084527791	-0.1610655865	 0.5396193218	 0.111042
H	-2.646553888	 1.0372771025	-0.5319793599	 0.124258
H	-3.8752446192	-1.5218970071	-1.4935673706	 0.10467
H	-2.666748639	-0.6005114944	-2.4097961125	 0.112013
H	-0.9739153784	-2.2478071592	-1.5935483658	 0.103406
H	-2.0740444367	-2.7511950044	-0.291254325	 0.111891
71.8559	108.7808	138.6482	197.0219	217.2128	242.1615	345.6353	391.674	438.73	469.817	551.9262	600.5607	711.5604	792.4002	820.7686	870.8035	901.2148	934.7182	949.5623	967.4257	1024.1101	1051.3053	1078.7574	1097.9893	1136.5508	1160.427	1186.6466	1212.3567	1219.7066	1255.6282	1263.0312	1269.5254	1289.4057	1302.6189	1349.7967	1438.5977	1472.8632	1477.3657	1485.8181	1505.4746	1801.7247	2902.7497	3051.1659	3064.046	3071.5149	3091.2211	3098.6989	3118.2111	3132.5049	3160.8614	3805.2261
OC1C(C=O)C11CCC1	O[C@H]1[C@@H](C=O)C21CCC2	
InChI=1S/C7H10O2/c8-4-5-6(9)7(5)2-1-3-7/h4-6,9H,1-3H2	InChI=1S/C7H10O2/c8-4-5-6(9)7(5)2-1-3-7/h4-6,9H,1-3H2/t5-,6+/m1/s1
