25
gdb 59112	2.00658	1.38116	1.00148	1.4747	88.25	-0.2533	0.065	0.3183	1342.79	0.227544	-389.48763	-389.476965	-389.476021	-389.522591	40.596	
C	-0.2337930641	 1.3356765099	-0.3294331245	-0.404842
C	-0.1459317174	-0.1916748413	-0.2908013483	 0.116434
O	 0.4832243912	-0.6873106633	-1.4773269984	-0.433411
C	 0.5762080661	-0.7089367701	 0.9514202567	 0.007146
C	-0.0656950558	-0.6111561276	 2.3808732585	-0.001434
C	-1.5848007652	-0.4724182427	 2.4759796773	-0.405969
C	 0.4642321775	-2.0485370136	 2.6681834378	-0.239557
C	 0.7780755639	-2.2482572773	 1.1548280154	 0.006985
C	-0.1739155183	-3.1846121417	 0.4132818089	-0.406248
H	 0.7697553327	 1.7793492429	-0.3058801583	 0.10279
H	-0.7285137153	 1.6620208126	-1.2484190112	 0.121824
H	-0.7904525625	 1.7320466002	 0.5251550756	 0.120167
H	-1.1583051607	-0.6072281801	-0.3370107823	 0.085221
H	 1.3952796509	-0.3756015741	-1.471024757	 0.273244
H	 1.5596516039	-0.218004966	 0.9794910183	 0.051887
H	 0.3920037237	 0.1642258038	 3.0031439571	 0.064457
H	-2.1085718836	-1.2271559734	 1.8810621662	 0.12085
H	-1.9050433286	-0.600063977	 3.5161902181	 0.112809
H	-1.931709253	 0.512015111	 2.1447614636	 0.114263
H	 1.3565931997	-2.0580381539	 3.2996564746	 0.092425
H	-0.2651980769	-2.7433638079	 3.0965428977	 0.089953
H	 1.8042834128	-2.5716940066	 0.9551677343	 0.061526
H	-1.2247584207	-2.9545170018	 0.6185352867	 0.110052
H	-0.021431256	-3.1178483601	-0.6669672642	 0.135202
H	-0.0037413344	-4.2206310422	 0.7271875973	 0.104224
93.8394	98.7077	152.4572	201.8303	228.3415	237.6663	246.9263	277.2017	282.5933	327.9066	330.5263	380.9459	440.289	496.184	528.9534	731.3899	777.9475	823.5581	829.6835	892.7782	914.8281	923.7833	968.5819	980.3674	1029.0896	1035.1579	1064.4262	1092.1645	1103.6048	1123.288	1172.9089	1188.3566	1196.2303	1235.4625	1258.425	1270.1409	1280.1963	1297.2706	1333.0712	1364.0025	1377.5121	1397.7843	1400.0057	1405.5465	1412.1974	1424.742	1483.1925	1488.2552	1489.9431	1494.8758	1497.2001	1502.7839	1509.8582	2989.5705	3024.1743	3029.1214	3031.7301	3041.0719	3044.3146	3051.9328	3056.2683	3089.7894	3091.4232	3097.0198	3097.8111	3106.1078	3118.9628	3121.3174	3794.7069
CC(O)C1C(C)CC1C	C[C@@H](O)[C@H]1[C@@H](C)C[C@H]1C	
InChI=1S/C8H16O/c1-5-4-6(2)8(5)7(3)9/h5-9H,4H2,1-3H3	InChI=1S/C8H16O/c1-5-4-6(2)8(5)7(3)9/h5-9H,4H2,1-3H3/t5-,6+,7-,8-/m1/s1
