17
gdb 75962	2.25773	1.92129	1.08342	1.8904	71.18	-0.2593	-0.0064	0.2529	1076.6307	0.138043	-455.204908	-455.196835	-455.195891	-455.237809	30.025	
C	-0.0263521461	 1.4336161828	 0.1821643204	-0.369849
N	-0.0215295294	-0.0221775262	 0.0579307759	-0.20435
C	-1.2534054452	-0.6926678589	-0.02420547	 0.379963
N	-2.4027390649	-0.1585111284	 0.0881737384	-0.524996
C	-1.131821515	-2.1703627064	-0.2898354334	-0.282684
C	 0.1053830632	-2.7027109674	 0.4034035849	-0.094451
O	 1.261757435	-1.9854878145	-0.0495086771	-0.238468
C	 1.2328361841	-0.6385802124	-0.0864404125	 0.48602
O	 2.2524767753	-0.017661943	-0.2359541529	-0.372564
H	 1.0063888987	 1.7717287747	 0.1649281071	 0.181394
H	-0.5701066993	 1.8891584658	-0.6519649243	 0.140693
H	-0.4980036228	 1.7363621115	 1.1227190639	 0.138311
H	-2.3571454746	 0.8473299781	 0.2424975992	 0.218862
H	-2.0422494257	-2.6621270588	 0.0548890043	 0.144106
H	-1.0420164648	-2.3388966982	-1.3699034286	 0.138797
H	 0.0257052291	-2.6048969206	 1.4934750819	 0.12511
H	 0.3018248124	-3.7485147079	 0.1622184628	 0.134106
74.2898	126.1847	193.9078	212.8384	276.3683	374.9331	399.6154	468.9686	478.2431	576.3612	593.6112	693.8797	702.3654	768.2107	879.2026	892.7983	949.6197	964.162	1082.1001	1090.1273	1110.1287	1157.2093	1161.4911	1215.321	1230.0266	1274.5553	1306.1309	1355.2814	1403.7332	1423.213	1450.1581	1465.9458	1502.0443	1513.2554	1517.0985	1720.0476	1833.3636	3031.4826	3036.7772	3047.7212	3094.3004	3121.2233	3134.1456	3189.0335	3502.5353
CN1C(=N)CCOC1=O	CN1[C]([NH])CCOC1=O	
InChI=1S/C5H8N2O2/c1-7-4(6)2-3-9-5(7)8/h6H,2-3H2,1H3	InChI=1S/C5H8N2O2/c1-7-4(6)2-3-9-5(7)8/h6H,2-3H2,1H3
