16
gdb 71545	2.61399	1.57496	1.46104	1.6665	76.7	-0.2461	0.0184	0.2646	976.3702	0.123019	-400.617758	-400.610049	-400.609105	-400.649593	30.557	
O	 0.1477787776	 1.3637108652	 0.1067587955	-0.459637
C	 0.0815662081	-0.0058410043	-0.0154075558	 0.313069
C	 0.5513846102	-0.9514076207	-1.1160984154	-0.253328
N	 0.0301883405	-1.9342794154	-0.0709876472	-0.177193
C	 0.5440148616	-1.0091062261	 1.0664437927	-0.057274
C	-0.8073730447	-1.0561829792	 1.7819130291	-0.312292
C	-1.1461015794	-0.9699336966	 0.2838808668	 0.194353
C	-2.4064119769	-1.0158331284	-0.3862176917	 0.091322
C	-3.4672529098	-1.014760397	-0.95496329	-0.36241
H	-0.3682568309	 1.7633832151	-0.6031917634	 0.290633
H	-0.0084235947	-0.9813214693	-2.05543465	 0.110885
H	 1.6278863433	-1.0387636584	-1.2908241298	 0.108004
H	 1.5528539342	-1.1408679872	 1.4560235766	 0.09352
H	-1.0651308334	-1.9981771537	 2.2709934826	 0.116732
H	-1.0747893764	-0.1885780104	 2.3870600856	 0.11726
H	-4.4060234494	-1.0301170835	-1.4516315956	 0.186354
119.4665	144.1619	249.8732	300.6323	333.5125	392.1922	449.6172	511.4716	529.9837	597.3726	620.3488	661.1033	664.0023	707.4048	801.1371	881.4861	891.988	924.1109	944.1311	1005.7265	1019.5093	1069.8269	1089.4733	1102.756	1136.2368	1160.9589	1215.4118	1233.4623	1249.0604	1292.6931	1297.1142	1371.8703	1487.4201	1513.0677	2227.0985	3049.1062	3072.9239	3114.1392	3129.2564	3143.5629	3498.7321	3795.7711
OC12CN3C1CC23C#C	O[C@@]12CN3[C@@H]1C[C@@]23C#C	
InChI=1S/C7H7NO/c1-2-6-3-5-7(6,9)4-8(5)6/h1,5,9H,3-4H2	InChI=1S/C7H7NO/c1-2-6-3-5-7(6,9)4-8(5)6/h1,5,9H,3-4H2/t5-,6+,7+/m1/s1
