16
gdb 6661	7.09066	0.86983	0.81608	3.9336	67.81	-0.2486	0.0513	0.2999	1354.6021	0.129524	-379.929239	-379.920085	-379.919141	-379.963605	32.524	
N	-0.0341580819	 1.2562072606	-0.0656364607	-0.564196
C	-0.2568122866	-0.1030503686	-0.2560120991	 0.443767
O	 0.2555142456	-0.7363388565	-1.1611383878	-0.387024
N	-1.0854092898	-0.6769848934	 0.6829050041	-0.336997
C	-1.2316265475	-2.1249601922	 0.7234962093	-0.150581
C	-2.2144674663	-2.6364015584	-0.3521362013	-0.333509
C	-2.4117955073	-4.0769444825	-0.270858186	 0.292312
C	-2.5548707254	-5.26629134	-0.1703929283	-0.443515
H	 0.3785364087	 1.6927078216	-0.8762388786	 0.261821
H	-0.7754090049	 1.7973905923	 0.3540900135	 0.246751
H	-1.2388158049	-0.1752301188	 1.5419584765	 0.242974
H	-0.2607881572	-2.6068350079	 0.5718493439	 0.139604
H	-1.5976779182	-2.3993213628	 1.7158722153	 0.110341
H	-3.1734930109	-2.1163391366	-0.2384813217	 0.123008
H	-1.8129948624	-2.3616479224	-1.3330161062	 0.161531
H	-2.6870547607	-6.3173303944	-0.1006076628	 0.193714
61.3745	71.225	85.1577	169.4052	254.6432	325.8924	354.7368	360.7103	424.6126	460.1788	535.0185	568.6028	615.8354	644.2052	676.5145	772.9941	782.9165	910.7732	971.9548	1026.5373	1073.7023	1104.5906	1152.3909	1238.4561	1295.9586	1326.6515	1342.4933	1401.1532	1471.3843	1483.0903	1531.143	1627.9404	1799.4025	2238.7154	3033.5001	3057.475	3081.424	3114.2513	3508.0141	3573.0409	3640.2627	3686.238
NC(=O)NCCC#C	NC(=O)NCCC#C	
InChI=1S/C5H8N2O/c1-2-3-4-7-5(6)8/h1H,3-4H2,(H3,6,7,8)	InChI=1S/C5H8N2O/c1-2-3-4-7-5(6)8/h1H,3-4H2,(H3,6,7,8)
