19
gdb 22939	2.53709	1.50228	1.06573	1.7222	79.32	-0.2287	0.0128	0.2415	1155.9015	0.159802	-419.163993	-419.155467	-419.154523	-419.196786	33.127	
C	-0.3166418885	 1.4529922734	-0.0515408404	-0.494283
C	 0.0433983022	-0.0063982399	-0.0251486167	 0.236986
N	-0.6420265145	-0.9399973789	 0.9262016127	-0.373647
C	 0.8041807181	-0.6900278113	 1.061282888	-0.077969
C	 1.6474447124	-1.8129847624	 0.4781702598	-0.220276
C	 1.0807477106	-2.0324930605	-0.9490862072	-0.320699
C	 0.3775106689	-0.7337094957	-1.2836552333	 0.419288
N	 0.1311762443	-0.2188730248	-2.4211911765	-0.25473
O	 0.5709400032	-1.0478730867	-3.4698722182	-0.392288
H	 0.4597996796	 2.0374842836	-0.5537690323	 0.133048
H	-1.2509665986	 1.6122869113	-0.5986227043	 0.138448
H	-0.4390718143	 1.8414041732	 0.9648360487	 0.10651
H	-1.1418344839	-0.3707381554	 1.6068802385	 0.228814
H	 1.1635997029	-0.1333875348	 1.9217604913	 0.085823
H	 2.6935615372	-1.4906168574	 0.4308678089	 0.104554
H	 1.6061159631	-2.7207635154	 1.087035269	 0.108273
H	 1.8459604724	-2.2696302464	-1.6902573127	 0.128077
H	 0.3514404135	-2.848349124	-0.9632848491	 0.139418
H	 0.3544605813	-0.521728418	-4.2467274961	 0.30465
102.7107	185.3474	191.836	224.0522	233.6342	308.6219	364.97	431.8615	443.9363	479.5956	551.4451	614.4189	665.8571	724.1688	806.9139	830.2616	847.0051	901.2785	961.6547	975.133	988.3932	1041.0732	1048.1122	1079.3712	1107.0521	1127.0872	1182.2784	1187.5097	1239.1927	1288.1689	1304.7495	1345.4693	1358.8771	1408.5109	1417.506	1448.4867	1466.1751	1478.2764	1491.1812	1501.049	1756.0345	3035.8082	3045.5371	3065.3282	3091.1166	3105.5763	3110.022	3120.7739	3155.1444	3486.5188	3819.8824
CC12NC1CCC2=NO	C[C@]12N[C@H]1CCC2=NO	
InChI=1S/C6H10N2O/c1-6-4(7-6)2-3-5(6)8-9/h4,7,9H,2-3H2,1H3	InChI=1S/C6H10N2O/c1-6-4(7-6)2-3-5(6)8-9/h4,7,9H,2-3H2,1H3/t4-,6-/m0/s1
