21
gdb 118867	3.60674	0.92576	0.86424	1.9417	77.95	-0.2511	0.0764	0.3275	1403.6278	0.180796	-424.181213	-424.171794	-424.17085	-424.215406	35.533	
C	 0.0568718391	 1.6002612529	 0.1367517635	-0.461371
C	 0.0101816205	 0.0793257775	 0.0121517789	 0.300413
C	-1.3983971861	-0.4749132063	-0.2261494317	-0.236955
C	-2.0808318949	 0.0226978266	-1.4961302322	-0.08505
O	-3.3038995964	-0.6888397789	-1.6249504953	-0.418969
C	 1.0911575092	-0.5706969425	-0.949108709	-0.31278
C	 1.6816904107	-1.2905205728	 0.2668863719	 0.038252
O	 2.0717304526	-0.2846407915	 1.2127960277	-0.25519
C	 0.6992212116	-0.6826514225	 1.1737535689	-0.007255
H	 1.0537743442	 1.9172840093	 0.4528503585	 0.134546
H	-0.1666981845	 2.090397932	-0.8166155946	 0.113202
H	-0.6702006105	 1.9591863029	 0.8748140565	 0.11027
H	-1.3609479456	-1.5707158506	-0.2735666765	 0.103929
H	-2.0389358882	-0.2244266028	 0.6295147449	 0.102576
H	-2.2601748411	 1.1062705051	-1.4319031176	 0.090839
H	-1.4283988761	-0.1484123552	-2.3679926661	 0.08711
H	-3.7692621789	-0.349206827	-2.3947786241	 0.285504
H	 0.6462600602	-1.2496885914	-1.6807096722	 0.106076
H	 1.7749031224	 0.1156410024	-1.4551063164	 0.106249
H	 2.2001067004	-2.2409108103	 0.3185251216	 0.102381
H	 0.2571862815	-1.0425264071	 2.0973571434	 0.096224
80.1822	109.6921	137.7144	203.7107	245.9636	267.7235	287.3862	333.7704	340.6263	396.6146	435.556	577.6222	679.9716	793.2016	802.1515	832.7354	857.4298	865.0146	925.5792	963.7882	984.9771	986.4462	1014.9667	1033.9678	1056.4428	1071.4907	1127.6227	1147.3239	1189.7764	1224.207	1227.0137	1250.8467	1260.0881	1276.7098	1287.5163	1329.7526	1354.9776	1384.0944	1410.6487	1461.9724	1469.0119	1489.2468	1492.8112	1509.2766	1529.0567	2967.2128	3001.0425	3020.2855	3028.6476	3059.6645	3062.5905	3090.5789	3117.6554	3120.0316	3166.7832	3189.3268	3829.6491
CC1(CCO)CC2OC12	C[C@@]1(CCO)C[C@H]2O[C@@H]12	
InChI=1S/C7H12O2/c1-7(2-3-8)4-5-6(7)9-5/h5-6,8H,2-4H2,1H3	InChI=1S/C7H12O2/c1-7(2-3-8)4-5-6(7)9-5/h5-6,8H,2-4H2,1H3/t5-,6-,7-/m1/s1
