17
gdb 88407	2.10271	1.39115	0.91662	2.3517	74.55	-0.2508	-0.0576	0.1932	1251.6386	0.133659	-417.985261	-417.975791	-417.974847	-418.020548	32.885	
C	-0.5011184337	 1.3630606676	 0.0916840451	-0.327784
N	-0.0043567923	-0.0075053763	 0.1068121896	-0.078505
C	 1.3703149081	-0.251369446	-0.30806769	-0.250836
C	 0.9505082314	-0.4542039321	 1.1080935667	 0.003342
C	 1.486169026	 0.470403098	 2.2137772935	-0.274142
C	 0.4817013959	 0.481167253	 3.3821131333	 0.172149
O	-0.3013058452	 1.3711130458	 3.560468572	-0.229016
C	 2.7904068726	-0.0014598728	 2.6762175019	 0.272222
N	 3.8045988851	-0.395603421	 3.0659046008	-0.304516
H	 0.2766571918	 2.1314625136	 0.2236370709	 0.105483
H	-0.9787609212	 1.5395203631	-0.8762965395	 0.133843
H	-1.2489251238	 1.4922456662	 0.8778953406	 0.149605
H	 1.5397872773	-1.1030656673	-0.96082703	 0.131718
H	 2.002285883	 0.6134010235	-0.5118110745	 0.117778
H	 0.7777255725	-1.4695996382	 1.4616340429	 0.116327
H	 1.5785865893	 1.4968091341	 1.8510179707	 0.147825
H	 0.5149510632	-0.4219679214	 4.0270620761	 0.114506
50.4382	65.491	119.1041	165.8919	192.5418	221.1123	263.1759	332.8187	399.5117	465.6373	507.8441	522.1217	543.0314	743.785	868.9295	905.9586	953.5307	995.3979	1031.1633	1044.2855	1103.7716	1116.9336	1128.1931	1150.1562	1171.2566	1200.9182	1217.9991	1279.6753	1343.3903	1399.141	1420.0796	1455.8277	1484.3619	1504.5823	1515.0004	1842.5204	2356.7326	2917.9683	2979.6256	3081.1076	3087.1505	3095.6125	3117.4465	3127.3315	3180.8838
CN1CC1C(C=O)C#N	CN1C[C@H]1[C@@H](C=O)C#N	
InChI=1S/C6H8N2O/c1-8-3-6(8)5(2-7)4-9/h4-6H,3H2,1H3	InChI=1S/C6H8N2O/c1-8-3-6(8)5(2-7)4-9/h4-6H,3H2,1H3/t5-,6+,8?/m1/s1
