18
gdb 100910	2.67632	0.9508	0.83069	1.3394	68.23	-0.2716	0.0111	0.2827	1412.8386	0.14586	-476.220424	-476.210218	-476.209274	-476.256059	36.078	
O	 0.0595747571	 1.4431460043	-0.0083618954	-0.417918
C	 0.0770982577	 0.038569132	 0.0977079768	-0.07739
C	-1.3405973141	-0.5266655312	-0.0231319648	 0.0766
O	-1.9438890004	-0.0685081628	-1.228741218	-0.440016
C	-1.4074005978	-2.0678411922	 0.1052308826	-0.17323
C	-2.8676827825	-2.5693412692	 0.2588402236	-0.075724
O	-2.9516024074	-3.9696464129	 0.3718101377	-0.415004
C	-0.80289467	-2.6997746561	-1.0700279952	 0.251497
N	-0.3811916285	-3.1766456049	-2.0361102427	-0.329622
H	-0.5268022254	 1.6464862358	-0.7482872969	 0.289056
H	 0.7190702291	-0.4230731901	-0.6733702962	 0.099701
H	 0.5042908331	-0.2110145858	 1.0752559232	 0.113703
H	-1.9522814537	-0.0964330778	 0.7776210135	 0.110743
H	-1.4838942583	-0.4843804159	-1.9708541439	 0.298787
H	-0.8440774853	-2.3836525392	 0.991336784	 0.138858
H	-3.267368512	-2.1565845551	 1.1899233573	 0.126428
H	-3.4656956479	-2.1738290912	-0.5718508282	 0.123811
H	-2.7595194137	-4.3572425477	-0.4892738874	 0.299721
68.5817	93.9752	104.2003	135.1886	165.6112	210.0675	275.9494	335.4194	354.3894	370.7644	396.7648	441.667	491.1321	532.1198	589.0092	745.3636	808.9121	870.4687	950.7769	1002.5662	1051.0043	1078.3838	1091.9313	1103.7827	1124.329	1197.2899	1203.998	1253.9523	1278.9482	1322.8381	1353.1384	1387.3975	1389.9211	1414.1876	1428.5317	1443.2261	1506.8799	1507.2533	2344.1213	2954.843	3028.2041	3052.9361	3058.2976	3073.1308	3095.6904	3754.9642	3775.6823	3807.4467
OCC(O)C(CO)C#N	OC[C@@H](O)[C@@H](CO)C#N	
InChI=1S/C5H9NO3/c6-1-4(2-7)5(9)3-8/h4-5,7-9H,2-3H2	InChI=1S/C5H9NO3/c6-1-4(2-7)5(9)3-8/h4-5,7-9H,2-3H2/t4-,5-/m1/s1
