19
gdb 94899	2.88483	1.66812	1.2218	4.341	75.93	-0.2109	0.0623	0.2732	1054.0086	0.162629	-419.231013	-419.223337	-419.222393	-419.263159	29.521	
C	 0.3381562519	 1.5212866484	 0.1152523907	-0.40933
C	-0.0380011531	 0.0360809884	 0.0587899111	-0.004755
C	 0.6547623446	-0.7224433237	-1.1027576049	-0.101313
O	 1.8690196246	-1.2653266984	-0.5410100926	-0.262325
C	 1.7182297379	-1.2701102874	 0.7943548733	 0.491293
N	 2.5473408873	-1.617171714	 1.690172409	-0.3852
C	 1.8305406216	-1.3397140613	 2.9532031754	-0.160524
C	 0.6086599603	-0.4343072859	 2.5779147205	-0.202383
N	 0.471070298	-0.772634403	 1.1622149539	-0.116649
H	 1.4246331577	 1.6529689649	 0.1511197811	 0.138023
H	-0.0410505695	 2.0376535324	-0.7722844883	 0.122453
H	-0.0958697166	 2.009410082	 0.9926649485	 0.127059
H	-1.1256798212	-0.0637133871	-0.0246536652	 0.089409
H	 0.0368576004	-1.5491315212	-1.468786755	 0.122668
H	 0.9287616929	-0.0748492874	-1.938010038	 0.124616
H	 1.488571797	-2.2817651	 3.4018549696	 0.107843
H	 2.4920762268	-0.8554419965	 3.6767535288	 0.109285
H	-0.2943825934	-0.6697886131	 3.1472545446	 0.10948
H	 0.8423103229	 0.6306602829	 2.7199434876	 0.100351
111.1397	148.5107	201.9571	250.2364	273.537	333.6388	443.1218	473.6996	644.1672	694.4327	727.3888	750.8177	787.4744	856.0489	873.4882	923.6437	942.4774	980.0378	1013.109	1067.2543	1095.2301	1109.1779	1121.3884	1149.3368	1209.1235	1233.7665	1243.8144	1256.7573	1267.1058	1311.2164	1325.3828	1376.33	1382.2106	1405.6628	1444.9079	1490.8183	1497.3393	1503.8884	1515.8125	1530.4456	1765.133	2998.5471	3017.2803	3037.0315	3039.4407	3053.7596	3078.5144	3088.0283	3109.506	3113.6734	3118.8658
CC1COC2=NCCN12	C[C@H]1CO[C]2[N]CCN12	
InChI=1S/C6H10N2O/c1-5-4-9-6-7-2-3-8(5)6/h5H,2-4H2,1H3	InChI=1S/C6H10N2O/c1-5-4-9-6-7-2-3-8(5)6/h5H,2-4H2,1H3/t5-/m0/s1
