19
gdb 112632	3.37394	1.1038	0.87148	5.1463	80.06	-0.2437	-0.0502	0.1935	1333.3805	0.159259	-423.07475	-423.065895	-423.06495	-423.108583	32.972	
C	-0.1457483164	 1.4864004887	 0.0072918703	-0.486094
C	-0.0264769099	-0.0001677923	-0.0395262917	 0.325728
C	-0.0423998616	-0.782668742	-1.1330224426	-0.275024
C	 0.1311102415	-2.1930899063	-0.7628891961	 0.400556
O	 0.276464995	-3.1433329518	-1.5119705294	-0.37176
C	 0.1501831436	-2.2782706116	 0.770620767	-0.13442
C	 1.3315552851	-3.1394368383	 1.2499394836	-0.059353
O	 1.2178329358	-4.4714342434	 0.812056887	-0.427479
C	 0.1567769906	-0.80873624	 1.2286217192	-0.341953
H	 0.7354494844	 1.9299263387	 0.4873110234	 0.142115
H	-0.2551806795	 1.9216745088	-0.9884078788	 0.137608
H	-1.0095922254	 1.7839714627	 0.6148204116	 0.141946
H	-0.1312866493	-0.4524879066	-2.1605238981	 0.111983
H	-0.7709089952	-2.7839185041	 1.0837098333	 0.113174
H	 2.2741240834	-2.6719679491	 0.9114260518	 0.08064
H	 1.3585107128	-3.1578327189	 2.3456541959	 0.102942
H	 1.0141419184	-4.42732589	-0.1352221413	 0.296793
H	 1.1062457151	-0.5345491819	 1.7102569852	 0.122373
H	-0.6275405186	-0.5833566925	 1.9606388796	 0.120224
59.3895	136.1832	168.4582	178.3498	212.2479	288.4748	340.1594	387.9152	446.723	502.1814	577.9247	590.9063	653.3362	713.2438	787.177	866.7188	877.262	916.4905	1001.9504	1008.529	1028.7864	1070.6896	1096.4055	1103.42	1158.6166	1191.1357	1197.5892	1208.9204	1276.4129	1288.2015	1325.7392	1348.0766	1383.7625	1410.1766	1470.6234	1474.6516	1476.3964	1477.6995	1515.718	1674.0397	1774.4798	2938.9758	3014.2933	3024.9894	3041.657	3053.6177	3060.4057	3073.4474	3125.6018	3215.7444	3692.5513
CC1=CC(=O)C(CO)C1	CC1=CC(=O)[C@@H](CO)C1	
InChI=1S/C7H10O2/c1-5-2-6(4-8)7(9)3-5/h3,6,8H,2,4H2,1H3	InChI=1S/C7H10O2/c1-5-2-6(4-8)7(9)3-5/h3,6,8H,2,4H2,1H3/t6-/m1/s1
