17
gdb 114588	2.73813	1.19645	0.97002	3.0577	74.55	-0.2529	0.0079	0.2608	1222.1973	0.136322	-417.967571	-417.959016	-417.958072	-418.001095	31.499	
O	-0.0167544929	 1.3798557229	-0.2337085105	-0.423445
C	 0.0278899908	 0.0021276252	 0.1105293966	-0.102229
C	-1.3899552528	-0.5232362363	-0.0019129479	-0.03985
C	-2.0477359856	-0.6099101316	-1.4255796437	-0.227003
C	-2.2363517823	-2.1154158642	-1.2194088414	-0.107476
N	-0.8961743528	-2.6861277476	-1.016952227	-0.359073
C	-1.5922345981	-2.0452955701	 0.1380887755	 0.215234
C	-1.8864721952	-2.7801219565	 1.3218435437	 0.174282
N	-2.1236202795	-3.3642575394	 2.2933766866	-0.345207
H	 0.8845216278	 1.7138893377	-0.2577424657	 0.290904
H	 0.6810581733	-0.5660286613	-0.5649143222	 0.111738
H	 0.3945248364	-0.1445797647	 1.1396358711	 0.094809
H	-2.0427034552	 0.0160953686	 0.6881402963	 0.104099
H	-2.9860388233	-0.0573865036	-1.4845415001	 0.119031
H	-1.4063748177	-0.340060489	-2.266330918	 0.124357
H	-3.065000347	-2.7384723622	-1.5318218027	 0.121082
H	-0.9962828558	-3.6954895679	-0.9071771104	 0.248748
78.6899	127.4401	162.6229	167.3398	237.9267	267.4354	385.7721	421.0272	476.6359	536.0649	577.1345	625.8436	705.1449	828.0404	856.9059	893.8301	914.0169	978.3165	1008.1861	1046.409	1071.8134	1087.5448	1095.4493	1143.5054	1173.9963	1195.1467	1228.7195	1254.2025	1268.3834	1291.8432	1324.8272	1370.8459	1391.8785	1462.0248	1478.3609	1526.0839	2341.6521	2971.2979	3033.9333	3084.3781	3093.0873	3144.2326	3200.5774	3477.0966	3832.6067
OCC1CC2NC12C#N	OC[C@H]1C[C@H]2N[C@@]12C#N	
InChI=1S/C6H8N2O/c7-3-6-4(2-9)1-5(6)8-6/h4-5,8-9H,1-2H2	InChI=1S/C6H8N2O/c7-3-6-4(2-9)1-5(6)8-6/h4-5,8-9H,1-2H2/t4-,5-,6+/m1/s1
