12
gdb 130535	3.78476	1.63713	1.1428	4.1808	77.85	-0.2507	-0.1276	0.1231	953.8145	0.074446	-431.613869	-431.607826	-431.606882	-431.644077	24.601	
O	-0.1612019186	 1.33004802	 0.0107882736	-0.251476
N	 1.0867257694	 2.165633981	 0.0035279852	 0.034843
N	 2.2951788884	 1.5831922685	-0.0112474131	-0.151891
C	 2.4635069737	 0.15323113	-0.0208121859	-0.097785
C	 1.378032304	-0.6908142264	-0.0151489654	 0.255552
C	 1.0851944911	-2.102384166	-0.0202094051	-0.282464
C	-0.3006640153	-2.1988385876	-0.0075192514	-0.001439
N	-1.0305453875	-0.9353679001	 0.0064782895	-0.35881
C	 0.0061327665	-0.0523221967	 0.0014981147	 0.425037
H	 3.5174975805	-0.1693791941	-0.0326676139	 0.159481
H	 1.8112029661	-2.9190586723	-0.0316836738	 0.127976
H	-0.8899660782	-3.1288352964	-0.0070700304	 0.140978
272.3364	276.3268	314.1341	440.0419	489.4488	510.162	551.5882	611.5079	676.7259	702.8265	789.7336	821.2111	839.0147	845.6145	877.4613	942.5021	984.5517	996.4271	1017.8825	1110.3473	1147.8583	1204.002	1282.9215	1327.5758	1389.1247	1453.569	1563.3721	3043.7566	3064.3625	3131.5981
O1N=NC=C2C=CN=C12	o1nncc2ccnc12	
InChI=1S/C5H3N3O/c1-2-6-5-4(1)3-7-8-9-5/h1-3H	InChI=1S/C5H3N3O/c1-2-6-5-4(1)3-7-8-9-5/h1-3H
