17
gdb 33393	2.23186	1.34106	0.88244	1.3444	79.27	-0.2503	0.0249	0.2752	1278.941	0.13335	-384.587928	-384.57868	-384.577736	-384.62272	33.388	
C	-0.1572537842	-1.1485910772	 0.1358997773	-0.43439
C	-0.0464566071	 0.0456769275	 0.0743817296	 0.324405
C	 0.0509478826	 1.5051508867	-0.0321633257	-0.385605
C	 1.4433667192	 1.9646820282	-0.0020754977	 0.324419
C	 2.5739786001	 2.3697042715	-0.0042467649	-0.434401
C	-0.6661172979	 2.0110920261	-1.3059423278	-0.017861
C	-2.2042392327	 1.89493465	-1.2755912311	-0.089969
O	-2.3505276333	 3.3251701175	-1.1527467721	-0.273045
C	-0.9346423844	 3.529942716	-1.3408884018	-0.089971
H	-0.2430770946	-2.2052027964	 0.2011613934	 0.202144
H	-0.4718861963	 1.9454266518	 0.8304880574	 0.143694
H	 3.577829536	 2.7164739779	 0.0050609486	 0.202145
H	-0.1748462455	 1.5944943458	-2.1856695216	 0.100529
H	-2.6552879213	 1.513484237	-2.2000637208	 0.102813
H	-2.6325439355	 1.3559911571	-0.4220715406	 0.111138
H	-0.4864292157	 4.1198026133	-0.5324497157	 0.111142
H	-0.7132378794	 4.0144893373	-2.2999464366	 0.102812
65.5884	71.4876	123.4475	126.2967	175.4449	319.0007	343.5053	348.4615	496.5086	500.0404	560.9168	637.1131	637.9612	655.3821	657.759	827.588	837.6757	883.7705	931.6146	979.6817	1005.367	1037.4181	1077.7396	1085.6555	1136.073	1157.5348	1166.7152	1252.04	1263.7137	1309.1395	1316.635	1357.5418	1385.0604	1514.5024	1539.5564	2239.5887	2244.7917	2993.0665	3011.8157	3022.087	3061.0271	3061.2761	3109.8914	3502.7931	3503.6747
C#CC(C#C)C1COC1	C#CC(C#C)C1COC1	
InChI=1S/C8H8O/c1-3-7(4-2)8-5-9-6-8/h1-2,7-8H,5-6H2	InChI=1S/C8H8O/c1-3-7(4-2)8-5-9-6-8/h1-2,7-8H,5-6H2
