19
gdb 100579	4.0292	0.79494	0.72038	3.2522	74.5	-0.2512	-0.0218	0.2295	1563.525	0.158145	-456.373428	-456.363168	-456.362224	-456.409408	35.999	
C	-0.1120038338	 1.4892925064	-0.0452218863	-0.394203
C	-0.1740257678	-0.0479633325	-0.1441660977	-0.058494
C	-1.6188278671	-0.5469212714	-0.1093579869	-0.084498
O	-2.1575357538	-0.1706582917	 1.1526495599	-0.429679
C	 0.5407522782	-0.5459621381	-1.3859649472	 0.374003
N	-0.0933731286	-0.9743685071	-2.3965227626	-0.506799
N	 1.9521896515	-0.4516694107	-1.2782326845	-0.33907
C	 2.8791370977	-0.7799537276	-2.2348104877	 0.1666
O	 2.6368193738	-1.2074591808	-3.3411588456	-0.299371
H	 0.9165123729	 1.8580447418	 0.0213168417	 0.100448
H	-0.5746648867	 1.9441012951	-0.9270839661	 0.131271
H	-0.6555848537	 1.8182139823	 0.842189654	 0.146017
H	 0.3305316234	-0.4695848756	 0.7376459206	 0.088397
H	-2.179862262	-0.104250335	-0.9425815928	 0.111331
H	-1.6361971215	-1.6361868821	-0.2474376894	 0.101347
H	-3.0913394365	-0.3978540237	 1.1563368039	 0.289583
H	 0.5462057731	-1.247153819	-3.1429987302	 0.252408
H	 2.3201887374	-0.1113672045	-0.4023313775	 0.257335
H	 3.9113151835	-0.6066992358	-1.8730531256	 0.093374
46.8899	68.8361	114.4794	159.3684	215.6416	242.6284	247.0285	267.4672	274.4214	317.3431	362.1155	475.3329	557.5958	589.688	693.9744	785.4592	884.4618	923.5774	935.0546	972.007	1006.0637	1025.6246	1061.012	1080.3405	1125.2434	1164.7148	1190.1202	1237.1	1261.4247	1302.4127	1347.1514	1378.5995	1405.434	1440.669	1455.2033	1489.9502	1501.6687	1510.7281	1517.8456	1734.4072	1812.9542	2945.308	3001.5694	3009.6352	3041.1554	3049.3754	3105.578	3140.023	3489.2554	3614.2535	3839.4444
CC(CO)C(=N)NC=O	C[C@@H](CO)C(=N)NC=O	
InChI=1S/C5H10N2O2/c1-4(2-8)5(6)7-3-9/h3-4,8H,2H2,1H3,(H2,6,7,9)	InChI=1S/C5H10N2O2/c1-4(2-8)5(6)7-3-9/h3-4,8H,2H2,1H3,(H2,6,7,9)/t4-/m0/s1
