16
gdb 13492	3.13472	1.77026	1.45379	3.2256	60.08	-0.2754	0.0042	0.2796	906.1221	0.129938	-420.90327	-420.895312	-420.894368	-420.935805	28.872	
C	-0.0650306024	 1.5908742357	 0.0487119425	-0.419471
C	 0.022443659	 0.0651717355	 0.0150599517	 0.106367
O	 0.8141544002	-0.4479822001	 1.0803603724	-0.433156
C	-1.3689142899	-0.5829600226	 0.017805053	-0.19549
C	-1.464932479	-2.1117319286	 0.175657413	-0.10574
O	-2.1862522785	-1.9424978453	 1.4442811443	-0.232817
C	-2.0784436172	-0.5827911341	 1.3783366245	 0.445485
O	-2.4111287238	 0.2185433369	 2.1951810151	-0.334928
H	 0.9394331711	 2.0199065259	 0.090214813	 0.129137
H	-0.5709423731	 1.9772221666	-0.8418069792	 0.120429
H	-0.6306399791	 1.9231624437	 0.9259429942	 0.146361
H	 0.5448016786	-0.2523035888	-0.895617657	 0.098176
H	 0.5165100994	-0.0313404388	 1.8981792608	 0.294691
H	-1.993984548	-0.1744861045	-0.7807619125	 0.114265
H	-2.0795826254	-2.6486164999	-0.5482277525	 0.123795
H	-0.5140492818	-2.6160784316	 0.3504313267	 0.142899
77.7745	133.9289	143.6977	251.9333	259.0853	348.3255	384.7761	459.5396	492.8384	533.2291	720.228	754.9343	798.0117	903.4375	916.7167	959.2574	1005.832	1041.3276	1058.8734	1105.2707	1133.5015	1159.2126	1173.3815	1214.2652	1287.8454	1326.0168	1348.6657	1368.2689	1408.1561	1426.5419	1492.9848	1501.0492	1505.5303	1917.4684	3037.1907	3039.4829	3082.7907	3088.357	3109.7015	3124.291	3153.535	3788.9412
CC(O)C1COC1=O	C[C@@H](O)[C@H]1COC1=O	
InChI=1S/C5H8O3/c1-3(6)4-2-8-5(4)7/h3-4,6H,2H2,1H3	InChI=1S/C5H8O3/c1-3(6)4-2-8-5(4)7/h3-4,6H,2H2,1H3/t3-,4-/m1/s1
