23
gdb 83277	2.63871	1.32028	1.22971	1.1748	85.22	-0.241	0.0778	0.3188	1193.4369	0.207219	-388.294397	-388.285537	-388.284593	-388.32742	35.019	
C	-0.2454910276	 1.5174611274	-0.1130846527	-0.423814
C	-0.0228548326	 0.0230519018	-0.0131428408	-0.006373
C	 1.326865444	-0.6254628648	-0.2051269794	-0.064264
C	 2.6028973953	 0.179359574	-0.3762849702	-0.102834
O	 2.8139181108	 1.1478476129	 0.6389808235	-0.254785
C	 2.7501524745	 0.5938674169	 1.9508228524	 0.148902
C	 3.3116820759	 1.6350071474	 2.9070399277	-0.403622
C	 1.3075713773	 0.1860818966	 2.2820716905	-0.226572
C	 0.6718961145	-0.6376991367	 1.1643246064	-0.068266
H	 0.6206565858	 2.0828379628	 0.2345437218	 0.140746
H	-0.435677233	 1.8077870521	-1.1525572981	 0.11132
H	-1.1178111962	 1.8241858149	 0.4760634622	 0.109302
H	-0.850972637	-0.5594401527	-0.4111362293	 0.077044
H	 1.3422134241	-1.5633274256	-0.7540133093	 0.079324
H	 3.4579544731	-0.5184608527	-0.3989348858	 0.087103
H	 2.6048585593	 0.7342698088	-1.3211366104	 0.105395
H	 3.3863629048	-0.3087042191	 1.9788306565	 0.06046
H	 2.7151664224	 2.5518036324	 2.8637653174	 0.122845
H	 3.2960863278	 1.2609726624	 3.9354680576	 0.112012
H	 4.3422803606	 1.8852556261	 2.6416650066	 0.120231
H	 1.308767388	-0.3950025551	 3.2104783468	 0.095159
H	 0.7232722853	 1.0923270617	 2.4839893085	 0.101075
H	 0.2457761228	-1.5832789916	 1.4844057482	 0.079614
95.7004	165.704	214.1622	224.2839	245.9096	258.0126	306.554	410.8825	437.9343	465.7181	500.681	554.1776	726.24	752.3501	761.0958	812.0089	854.1493	905.4291	915.4713	953.1361	985.4546	1022.6448	1051.4497	1082.2591	1090.8231	1118.8125	1125.6725	1148.891	1151.8457	1166.2785	1170.285	1252.0411	1255.1338	1297.6969	1317.3188	1364.4891	1373.6596	1383.2101	1389.328	1404.3874	1411.6272	1423.3761	1455.4728	1477.9922	1485.0456	1495.0582	1501.1258	1506.3844	1514.2088	2941.1739	2953.3482	3027.0898	3029.251	3040.7056	3057.9441	3070.3512	3080.2258	3113.044	3117.3678	3119.8716	3134.9702	3139.7087	3151.8779
CC1C2COC(C)CC12	C[C@H]1[C@H]2CO[C@@H](C)C[C@@H]12	
InChI=1S/C8H14O/c1-5-3-7-6(2)8(7)4-9-5/h5-8H,3-4H2,1-2H3	InChI=1S/C8H14O/c1-5-3-7-6(2)8(7)4-9-5/h5-8H,3-4H2,1-2H3/t5-,6+,7-,8+/m0/s1
