19
gdb 41989	3.07985	1.58092	1.17788	2.6913	77.47	-0.2473	0.0064	0.2537	1069.7322	0.16203	-423.037453	-423.029959	-423.029015	-423.069837	29.069	
C	 0.0804498668	 1.1615401632	 0.3475235455	-0.057489
C	 1.4232999224	 1.9057033991	 0.1429741335	-0.338315
C	 2.3062330582	 0.7394928096	-0.1802501828	 0.250666
C	 3.4761546654	 0.3589345532	 0.3207894847	-0.21291
C	 3.9453223767	-1.0593302166	 0.1036952739	-0.255785
C	 2.7072069527	-1.9549205533	-0.0060932824	-0.081954
O	 1.8500729811	-1.5186789525	-1.0564974123	-0.256002
C	 1.4466026148	-0.1842108301	-1.0067287896	 0.194808
O	 0.1385692874	-0.0308373853	-0.4460220989	-0.281126
H	-0.0544766515	 0.8886528526	 1.4027933771	 0.101207
H	-0.7844626814	 1.7556230586	 0.0339818746	 0.104264
H	 1.3462148732	 2.6033089333	-0.7003301038	 0.115211
H	 1.7388112563	 2.4678820799	 1.0243590631	 0.112857
H	 4.0526837386	 1.018924217	 0.9638592992	 0.090444
H	 4.5619376309	-1.1596769427	-0.7991812776	 0.118677
H	 4.5633956839	-1.387266076	 0.9469306909	 0.106043
H	 2.9724685386	-2.9841834549	-0.2605910743	 0.10786
H	 2.1711399992	-1.9615250563	 0.9537641349	 0.100409
H	 1.4035940566	 0.1298593113	-2.0615713657	 0.081134
70.3577	106.8652	214.8131	310.9649	346.3965	423.2957	462.9549	538.6207	627.3404	678.6379	693.7778	832.9034	845.9118	856.152	909.3198	928.8009	957.7639	962.0993	998.6819	1044.589	1050.3158	1077.9069	1098.7388	1138.03	1171.4724	1199.4583	1222.5992	1230.3945	1280.6743	1300.7325	1321.9293	1348.8935	1370.2331	1388.2092	1395.4597	1429.8412	1469.5057	1483.6259	1503.4223	1527.9203	1763.6916	2973.6377	3005.2873	3010.1255	3023.4073	3027.8773	3064.8412	3070.1876	3096.6517	3109.712	3157.7337
C1CC2=CCCOC2O1	C1CC2=CCCO[C@H]2O1	
InChI=1S/C7H10O2/c1-2-6-3-5-9-7(6)8-4-1/h2,7H,1,3-5H2	InChI=1S/C7H10O2/c1-2-6-3-5-9-7(6)8-4-1/h2,7H,1,3-5H2/t7-/m0/s1
