19
gdb 114404	3.13601	1.15164	1.12621	3.9906	77.52	-0.234	0.0184	0.2524	1204.4032	0.159794	-419.175809	-419.16738	-419.166436	-419.209105	32.007	
C	-0.0142967999	 1.2865684149	-0.5284110373	-0.379332
C	-0.0204670545	-0.1854482887	-0.1012481378	-0.206665
C	-1.417808168	-0.6864572312	 0.2069414024	 0.148197
O	-2.325687127	-0.6056867041	-0.9287411703	-0.308442
C	-2.7138662151	-1.9882856924	-0.7904764081	 0.028259
C	-1.6965150442	-2.2028544282	 0.3656262524	-0.078438
N	-0.9744600218	-3.116705636	-0.5209488215	-0.333583
C	-1.8168016237	-2.9079968591	-1.6247402962	 0.387848
N	-1.8577707821	-3.2774638194	-2.830451296	-0.546818
H	 0.9974919693	 1.6194839465	-0.7768918352	 0.113594
H	-0.648274034	 1.4289821407	-1.4076253737	 0.145132
H	-0.3942734226	 1.9331521269	 0.2699991056	 0.114932
H	 0.4134698436	-0.8017705578	-0.8968096186	 0.097418
H	 0.6008387285	-0.3252589906	 0.7938495721	 0.096533
H	-1.8475277979	-0.1248307898	 1.0500181478	 0.077675
H	-3.7919530379	-2.1435099153	-0.7606090875	 0.101891
H	-1.9202798371	-2.5933763447	 1.357913796	 0.0928
H	 0.0238554623	-3.2763393025	-0.5454793027	 0.239047
H	-1.0444524978	-3.841180089	-3.0860736116	 0.209952
73.911	106.6931	173.0649	215.5758	251.1497	300.754	413.7056	447.1084	456.1253	540.0791	654.0195	724.1035	769.7922	815.5856	823.4545	850.2084	904.1048	924.8152	958.9476	983.4048	1013.1281	1036.4227	1056.1872	1098.02	1118.2531	1158.4278	1168.3695	1194.665	1262.4893	1283.7456	1287.9647	1300.7073	1344.7705	1352.8933	1357.4571	1405.8877	1412.7229	1477.3297	1499.2294	1510.1353	1797.3802	2991.0198	3019.5953	3039.2646	3066.7661	3106.659	3112.6318	3124.696	3126.8114	3452.3126	3578.8847
CCC1OC2C1NC2=N	CC[C@H]1O[C@@H]2[C@H]1N[C]2[NH]	
InChI=1S/C6H10N2O/c1-2-3-4-5(9-3)6(7)8-4/h3-5H,2H2,1H3,(H2,7,8)	InChI=1S/C6H10N2O/c1-2-3-4-5(9-3)6(7)8-4/h3-5H,2H2,1H3,(H2,7,8)/t3-,4+,5-/m1/s1
