17
gdb 80109	2.71595	1.50659	1.26394	5.0261	78.43	-0.2509	-0.017	0.2339	1044.442	0.136517	-380.861421	-380.853506	-380.852562	-380.893605	30.379	
C	-0.2197811855	 1.463926388	-0.0290235251	-0.326993
N	 0.0740536246	 0.040711642	 0.04343108	-0.123525
C	 1.4050678964	-0.5146634437	-0.2112315805	-0.108523
C	 2.5959347804	 0.3805771861	-0.1226945376	-0.077064
C	 2.7283655585	 0.9058606233	 1.0978370658	-0.079101
C	 1.6817052891	 0.3906586089	 2.0584849862	-0.342364
C	 0.7983998342	-0.5139239626	 1.1833894345	 0.162386
C	 0.2137902674	-1.6826157085	 1.7938600473	 0.245308
N	-0.2349494886	-2.6147162374	 2.310619343	-0.347246
H	 0.6089767538	 2.1255009257	 0.2544756757	 0.114957
H	-0.5108748509	 1.6978402631	-1.0572256955	 0.133914
H	-1.0751256952	 1.669877903	 0.6208633609	 0.135852
H	 1.4159668132	-1.3962648879	-0.8449990337	 0.116176
H	 3.2341509492	 0.5846663681	-0.9737329367	 0.112034
H	 3.4737621279	 1.6351552918	 1.3941367483	 0.112639
H	 2.1258283555	-0.1896673847	 2.8749988867	 0.140951
H	 1.10672957	 1.1983551948	 2.5283029006	 0.1306
133.6172	164.2755	177.1774	228.1882	251.4382	363.4993	442.733	479.506	547.7872	561.7912	597.6526	705.3644	730.7205	766.7806	838.7482	904.323	948.225	956.8057	991.1473	995.7069	1068.0581	1080.4286	1132.8865	1138.7986	1161.7164	1176.1293	1214.7111	1299.3045	1307.6548	1364.0259	1378.3166	1443.2801	1469.9985	1484.573	1506.0238	1665.2559	2355.4283	3011.3106	3037.8976	3070.4845	3085.9492	3114.6342	3159.1028	3193.582	3218.9159
CN1C2C=CCC12C#N	CN1[C@H]2C=CC[C@@]12C#N	
InChI=1S/C7H8N2/c1-9-6-3-2-4-7(6,9)5-8/h2-3,6H,4H2,1H3	InChI=1S/C7H8N2/c1-9-6-3-2-4-7(6,9)5-8/h2-3,6H,4H2,1H3/t6-,7-,9?/m0/s1
