20
gdb 12110	4.1739	1.21312	1.1569	1.3516	74.61	-0.2507	0.0754	0.3262	1135.4619	0.176318	-348.974235	-348.965753	-348.964809	-349.007453	32.515	
O	 0.2676697651	 1.3522985133	 0.0541604335	-0.473553
C	 0.0472247587	-0.0379619782	 0.0369236383	 0.436174
C	-1.4025775787	-0.4423958715	 0.2464390956	-0.27485
C	-2.3551143258	 0.1789391075	-0.7569370301	 0.019301
C	-2.5583198694	-0.4338040595	-2.1218222264	-0.256365
C	-3.6615959143	-0.4917394368	-1.0936993212	-0.277811
C	 0.9586267867	-0.8635360467	-0.8385581357	-0.316311
C	 1.1465129585	-0.8332845566	 0.6680199792	-0.304417
H	-0.0588622875	 1.706747462	-0.779950307	 0.282551
H	-1.4800683859	-1.5355151447	 0.1990802222	 0.088535
H	-1.7041982461	-0.1466278786	 1.2601190455	 0.104504
H	-2.3906602289	 1.2647051488	-0.7146269327	 0.082026
H	-2.68351189	 0.2231810678	-2.9757194596	 0.108359
H	-2.0293997159	-1.3537093987	-2.3474657134	 0.111189
H	-3.8714766905	-1.450394326	-0.6301006967	 0.110469
H	-4.5385490985	 0.128639663	-1.2422105672	 0.111061
H	 0.5724733513	-1.7690083594	-1.2941425364	 0.107412
H	 1.6864401165	-0.3273591664	-1.437497505	 0.110918
H	 1.9899482293	-0.2715933656	 1.0519589694	 0.121595
H	 0.8839712654	-1.7162093239	 1.2409517177	 0.109212
55.151	91.7428	154.2329	282.4859	313.7251	330.6415	349.3869	389.4997	437.5136	506.3948	734.3761	769.7769	779.443	808.5561	836.1441	881.8441	901.8384	923.4057	930.1266	976.4562	985.4875	1023.6902	1043.0818	1059.106	1075.8308	1078.2684	1125.8819	1148.9774	1187.5891	1199.6911	1223.028	1243.5117	1289.7463	1308.1993	1334.6918	1378.7768	1420.356	1452.1301	1467.8117	1473.367	1499.3285	1507.7178	3015.6422	3059.0019	3128.182	3130.8096	3132.3246	3136.4258	3137.2808	3205.6798	3215.74	3220.996	3231.4408	3801.9645
OC1(CC2CC2)CC1	OC1(CC2CC2)CC1	
InChI=1S/C7H12O/c8-7(3-4-7)5-6-1-2-6/h6,8H,1-5H2	InChI=1S/C7H12O/c8-7(3-4-7)5-6-1-2-6/h6,8H,1-5H2
