17
gdb 83726	2.50517	1.7645	1.30939	2.7186	66.96	-0.2539	-0.0344	0.2195	985.5459	0.136681	-458.969025	-458.96146	-458.960516	-459.001347	29.026	
O	 0.3682207781	 1.1692634444	 0.6161658226	-0.437623
C	 0.0426868447	-0.0929438137	 0.1047131976	 0.043568
C	-1.4589616353	-0.4045698608	 0.0274050135	-0.106037
C	-2.3277481304	 0.7056548633	-0.586527553	-0.080788
O	-2.3708268199	 0.0280790818	-1.8671087076	-0.294629
C	-1.6787477787	-1.125110879	-1.3435041567	 0.111389
C	-0.3225973197	-1.3111916135	-2.0264213266	-0.334613
C	 0.5349449684	-0.258559258	-1.3411986988	 0.354928
O	 1.4105448931	 0.4265673919	-1.8061437754	-0.317846
H	 1.0632627848	 1.5120556286	 0.0323498135	 0.294342
H	 0.5324878816	-0.8916234132	 0.6930380888	 0.094223
H	-1.8478115986	-0.8818922631	 0.9254451659	 0.087184
H	-3.3272849693	 0.8002574987	-0.1468614921	 0.105159
H	-1.8614637908	 1.6932284176	-0.6506472797	 0.124209
H	-2.3089877478	-2.0199500913	-1.3554173407	 0.08145
H	 0.0910500421	-2.3072206948	-1.819576953	 0.12842
H	-0.3643383823	-1.1691972388	-3.1077561783	 0.146663
88.881	101.474	234.4646	271.0482	349.3377	411.9384	455.4948	510.6731	574.8242	611.0241	687.9558	751.5709	836.6845	865.0964	881.8304	887.6031	971.3388	1013.4976	1019.7505	1036.0246	1095.7115	1106.156	1157.9737	1169.9779	1185.3697	1208.1154	1239.1019	1261.2375	1284.8359	1332.7385	1345.4971	1361.6461	1370.1917	1423.8544	1433.5808	1528.5774	1845.0398	2927.5156	3031.3833	3033.3601	3056.8662	3090.0794	3121.8531	3127.0373	3697.7286
OC1C2COC2CC1=O	O[C@H]1[C@H]2CO[C@H]2CC1=O	
InChI=1S/C6H8O3/c7-4-1-5-3(2-9-5)6(4)8/h3,5-6,8H,1-2H2	InChI=1S/C6H8O3/c7-4-1-5-3(2-9-5)6(4)8/h3,5-6,8H,1-2H2/t3-,5-,6-/m0/s1
