20
gdb 11138	6.2179	0.8813	0.83276	1.8134	71.99	-0.2604	0.0731	0.3335	1386.5465	0.176362	-386.117347	-386.108194	-386.10725	-386.151591	33.045	
O	-0.0270751601	 1.3827346542	-0.1734799545	-0.423023
C	 0.0208096788	-0.009939582	 0.1065481629	-0.097266
C	-1.3912774497	-0.5501921089	 0.0432782263	 0.058077
C	-2.105433187	-0.6088536383	-1.3356268106	-0.252784
C	-2.683464683	-1.9938269055	-0.9350152225	 0.058077
C	-2.7364738565	-3.0812391971	-1.9860102656	-0.097266
O	-3.1678854496	-4.2809530317	-1.3576622984	-0.423023
C	-1.6006162042	-2.0835999278	 0.1759383628	-0.252785
H	 0.8713646146	 1.7248944106	-0.1562717164	 0.285347
H	 0.6506350907	-0.5416604481	-0.6269272963	 0.075472
H	 0.4487730109	-0.2035395606	 1.1047081909	 0.082789
H	-2.0083450661	-0.0081313024	 0.7675455078	 0.078293
H	-2.8085065146	 0.1891290438	-1.5818749082	 0.101416
H	-1.3795458413	-0.6956483468	-2.1527528443	 0.09168
H	-3.6775867998	-1.8872282999	-0.4883346292	 0.078294
H	-3.4241733115	-2.7830619374	-2.7954036149	 0.082789
H	-1.7370201272	-3.2054669124	-2.4366233193	 0.075472
H	-3.1809577188	-4.9795444393	-2.0182397463	 0.285347
H	-0.7235766236	-2.6421390012	-0.1718783212	 0.091679
H	-1.8978306119	-2.4788692191	 1.1491559469	 0.101416
59.2947	83.6338	121.3994	211.061	214.843	257.9198	267.1542	378.6332	391.3106	444.1801	445.2062	637.1759	780.1593	822.4495	897.6883	932.9916	939.7122	977.5522	1036.2242	1044.382	1069.2805	1079.6768	1099.82	1129.0253	1161.7605	1196.7378	1226.0482	1238.3411	1245.6181	1270.2845	1274.0398	1274.8153	1292.8278	1307.4955	1364.3295	1378.4033	1458.7622	1464.9923	1476.929	1497.5509	1518.8907	1521.8579	2949.8166	2950.454	2976.2318	2976.987	3037.2077	3040.1276	3054.8772	3058.1217	3108.2056	3112.9695	3829.1916	3829.2283
OCC1CC(CO)C1	OC[C@H]1C[C@@H](CO)C1	
InChI=1S/C6H12O2/c7-3-5-1-6(2-5)4-8/h5-8H,1-4H2	InChI=1S/C6H12O2/c7-3-5-1-6(2-5)4-8/h5-8H,1-4H2/t5-,6+
