20
gdb 92017	2.87345	1.59499	1.21253	3.0478	77.82	-0.2402	0.0684	0.3085	1077.1503	0.173087	-403.116955	-403.109274	-403.108329	-403.14883	30.966	
C	 0.0628832778	 1.5494626608	 0.0464714191	-0.400227
C	-0.0084012741	 0.0171323694	 0.0051959972	-0.014573
C	 0.6450140214	-0.5348549289	-1.2817021201	-0.210779
C	 0.7118410305	-2.0558914683	-1.313383922	-0.061931
N	 2.0376092291	-2.6668248146	-1.087204474	-0.322626
C	 1.0042391718	-2.7736428741	-0.0445149186	-0.050366
C	 1.1676471226	-1.9628198499	 1.2110174128	 0.039241
O	 2.0414024437	-0.8348966963	 1.1735367427	-0.245112
C	 0.6319549131	-0.5901146608	 1.2421362799	 0.058896
H	 1.1049372964	 1.8856990355	 0.0678343434	 0.130746
H	-0.415433323	 1.9884358928	-0.8351420242	 0.111597
H	-0.4384141636	 1.9495572349	 0.9340330626	 0.110177
H	-1.0680715973	-0.2806865214	 0.0225273193	 0.072646
H	 0.0878094986	-0.164118164	-2.1483179645	 0.091418
H	 1.6631973681	-0.1428298171	-1.3533429772	 0.129867
H	 0.049680086	-2.5543576898	-2.0173581128	 0.08228
H	 2.1032286844	-3.5500933784	-1.5871174952	 0.229671
H	 0.538834045	-3.7436510074	 0.1180500344	 0.079357
H	 1.2153274556	-2.5311569125	 2.1401804898	 0.087504
H	 0.2928821838	-0.1852736798	 2.1974260474	 0.082214
113.5475	195.1599	229.6656	252.0897	319.0319	393.9822	413.4279	487.8013	555.0795	601.4065	688.4662	758.8926	815.1448	839.9483	851.3221	890.1902	916.8168	933.9005	974.558	979.1909	1015.929	1032.2231	1073.6597	1104.1391	1118.7551	1137.1203	1163.5925	1176.7371	1199.7068	1246.7033	1263.2827	1285.377	1313.6494	1340.1173	1367.4393	1389.2489	1404.1857	1410.4398	1458.2124	1465.0106	1479.0613	1496.945	1502.0144	2990.1714	3030.1478	3048.4006	3089.2893	3099.0914	3099.4996	3103.7188	3105.6505	3124.7289	3134.6479	3497.9024
CC1CC2NC2C2OC12	C[C@H]1C[C@H]2N[C@H]2[C@H]2O[C@@H]12	
InChI=1S/C7H11NO/c1-3-2-4-5(8-4)7-6(3)9-7/h3-8H,2H2,1H3	InChI=1S/C7H11NO/c1-3-2-4-5(8-4)7-6(3)9-7/h3-8H,2H2,1H3/t3-,4+,5+,6-,7+/m0/s1
