20
gdb 11478	3.30851	1.54796	1.40216	1.8153	71.5	-0.2379	0.081	0.3188	1014.4972	0.176717	-386.140222	-386.131602	-386.130658	-386.173762	31.38	
C	 0.0561384537	 0.8669607233	 0.4991366303	-0.237141
O	-0.0785944013	-0.3999758681	-0.101195934	-0.24309
C	 0.6581109919	-0.5582860526	-1.3034317939	 0.120585
C	 2.1500494604	-0.8246179757	-1.0637775153	-0.089042
O	 2.2555888893	-2.1978133464	-0.7345925113	-0.271747
C	 1.1399916824	-2.9298019005	-1.2712232164	 0.1536
C	 0.4712634366	-3.7013254884	-0.1387040679	-0.390498
C	 0.2284723882	-1.8794224307	-1.9475645641	-0.277079
H	 1.0845106963	 1.0727142269	 0.8308637213	 0.107804
H	-0.2506915766	 1.6728838849	-0.1865508818	 0.103543
H	-0.5981260445	 0.8799950929	 1.3741448765	 0.129475
H	 0.4944944579	 0.310663992	-1.9582832054	 0.061137
H	 2.7214787535	-0.5851529113	-1.9767115238	 0.08276
H	 2.5690795895	-0.2377604977	-0.240368892	 0.106076
H	 1.5263714862	-3.6371127922	-2.0181062329	 0.067552
H	 0.0357356603	-3.0032357385	 0.5808282455	 0.134798
H	-0.3204448549	-4.3507654755	-0.5276658857	 0.103909
H	 1.2062735833	-4.3260335197	 0.3768873389	 0.118755
H	-0.8342871122	-2.0684570976	-1.7859332322	 0.115897
H	 0.4130972799	-1.8380304651	-3.0247376158	 0.102703
53.2347	95.7689	137.8228	213.6986	257.47	277.6033	349.8025	378.6599	415.0745	456.7464	716.9024	781.3794	792.6002	853.9736	866.0575	904.7763	955.6808	990.7998	1035.6428	1054.936	1114.6223	1130.7441	1132.7414	1157.0538	1183.2896	1211.4837	1215.0572	1257.6556	1279.0305	1321.6236	1336.752	1377.534	1389.2308	1399.1744	1406.7345	1475.4835	1478.3551	1488.1954	1489.9432	1500.4616	1508.7458	1515.2904	2958.1159	2973.3456	2995.4229	2998.5267	3023.9613	3038.2935	3067.8343	3077.2398	3108.8215	3114.8457	3124.6391	3131.0999
COC1COC(C)C1	CO[C@H]1CO[C@@H](C)C1	
InChI=1S/C6H12O2/c1-5-3-6(7-2)4-8-5/h5-6H,3-4H2,1-2H3	InChI=1S/C6H12O2/c1-5-3-6(7-2)4-8-5/h5-6H,3-4H2,1-2H3/t5-,6+/m0/s1
