17
gdb 35482	3.28257	1.50468	1.43971	2.0951	75.87	-0.2267	0.0577	0.2844	967.6518	0.13673	-384.616835	-384.609756	-384.608812	-384.648294	28.697	
C	-0.071450221	-1.2649449882	-0.1683421631	-0.496087
C	-0.036256136	-0.0693624304	-0.0482590162	 0.367303
C	-0.0028149824	 1.3840998515	 0.0658138193	-0.190669
C	-0.6466892313	 1.9374152778	 1.3885786352	-0.232975
C	 0.5575386725	 2.4335385389	 2.1763078855	 0.095721
O	 1.4392696579	 1.2840690947	 2.4077581339	-0.302899
C	 2.2566842825	 1.7214761457	 1.3242156528	 0.109371
C	 1.5520157852	 3.0320037534	 1.1547915065	-0.172989
C	 1.4228511591	 1.9672047088	 0.0850694295	-0.08597
H	-0.0956287043	-2.3222852461	-0.2600190325	 0.192792
H	-0.5347542939	 1.802836353	-0.7962358032	 0.104483
H	-1.3300158413	 2.7647655331	 1.1679218298	 0.101183
H	-1.1960224099	 1.1651369919	 1.9303923473	 0.125566
H	 0.3516883842	 2.9729426349	 3.1022585814	 0.082416
H	 3.3017479416	 1.4359404175	 1.3248356378	 0.106249
H	 1.8889105777	 4.0526756983	 1.0419734852	 0.099419
H	 1.9583247794	 2.0857166253	-0.8499685491	 0.097085
92.5064	150.021	262.9734	366.2456	440.364	491.6627	549.3206	615.3532	630.2065	671.7735	730.6372	782.7972	792.3644	818.6709	840.9965	858.6264	908.7302	970.3814	984.0724	994.9658	1028.7374	1036.5974	1047.8783	1059.8092	1084.4038	1118.3157	1178.9195	1223.6857	1236.1888	1261.3791	1283.5449	1314.9529	1333.12	1349.386	1401.8211	1473.927	2236.2571	3031.9111	3051.6632	3103.0498	3121.6206	3180.5728	3188.6325	3212.5861	3505.9049
C#CC1CC2OC3C2C13	C#C[C@H]1C[C@H]2O[C@@H]3[C@H]2[C@H]13	
InChI=1S/C8H8O/c1-2-4-3-5-7-6(4)8(7)9-5/h1,4-8H,3H2	InChI=1S/C8H8O/c1-2-4-3-5-7-6(4)8(7)9-5/h1,4-8H,3H2/t4-,5+,6-,7+,8-/m0/s1
