15
gdb 132557	3.09701	1.4083	0.97463	2.8626	73.48	-0.2176	-0.0405	0.1772	1132.2744	0.112818	-458.159197	-458.151154	-458.15021	-458.192033	30.027	
C	-0.032947698	 1.5036199866	-0.0277283039	-0.484868
C	 0.0087785796	 0.0030008499	-0.0191563428	 0.184811
N	 0.0181525358	-0.6562988958	-1.1777412197	-0.355197
C	 0.0589876252	-1.9950340441	-1.1474728313	 0.350267
N	 0.1327382045	-2.6494612127	-2.3631218131	-0.570988
C	 0.0784613923	-2.6847481064	 0.0744481431	-0.083099
N	 0.0615038653	-2.0322448937	 1.2346846478	-0.279365
C	 0.0315766147	-0.7243485838	 1.1747458541	 0.266452
F	 0.0169650934	-0.0577519745	 2.3329888674	-0.073338
H	 0.8430290324	 1.9230790934	 0.4785432079	 0.143257
H	-0.0578997476	 1.8631246172	-1.0570207186	 0.138705
H	-0.913687776	 1.8757379713	 0.5063373274	 0.141973
H	-0.152453583	-2.0820048369	-3.1476089615	 0.257756
H	-0.2226593028	-3.592465949	-2.390014208	 0.254671
H	 0.108648694	-3.7704816516	 0.1121513212	 0.108963
68.5458	122.4324	221.1772	268.737	328.5527	359.4148	397.0423	482.0181	503.517	519.1452	544.766	601.7136	648.7348	726.8351	795.1412	801.978	900.8165	978.1316	1022.674	1056.3747	1111.3964	1188.4986	1280.2096	1323.4211	1375.3765	1404.5437	1452.9193	1465.0385	1479.0163	1510.3811	1608.5107	1619.3443	1645.1423	3041.3605	3094.9304	3149.2506	3159.2798	3576.7768	3688.3675
CC1=NC(N)=CN=C1F	Cc1nc(N)cnc1F	
InChI=1S/C5H6FN3/c1-3-5(6)8-2-4(7)9-3/h2H,1H3,(H2,7,9)	InChI=1S/C5H6FN3/c1-3-5(6)8-2-4(7)9-3/h2H,1H3,(H2,7,9)
