15
gdb 28739	3.53124	1.1967	0.89611	1.0345	73.27	-0.1879	-0.0053	0.1826	1217.4114	0.115292	-450.190922	-450.182874	-450.18193	-450.223725	29.719	
N	 0.108149071	 1.4253810975	 0.1263404522	-0.610454
C	-0.0189379407	 0.0336600442	 0.0112530737	 0.281128
C	-1.0857839944	-0.827009444	-0.0334372416	-0.158062
N	-0.6534793629	-2.1433176455	-0.0487256318	-0.350034
C	 0.6499943779	-2.057810968	-0.0260240542	 0.479745
N	 1.507402394	-3.1560802402	-0.0522196547	-0.39165
C	 2.865910928	-3.103100653	-0.0022645311	 0.148965
O	 3.5220836192	-2.0782246812	 0.0615595518	-0.339376
N	 1.1035924297	-0.7747455034	 0.0166929279	-0.320247
H	 0.5292082882	 1.8517991112	-0.6939574183	 0.248288
H	-0.7951704031	 1.8563538062	 0.2774140027	 0.251556
H	-2.1360622775	-0.5805744313	-0.0521170675	 0.09838
H	 1.0424049945	-4.0506092732	-0.0970847778	 0.275248
H	 3.3206144003	-4.1084785307	-0.0283187443	 0.097933
H	 2.0799883459	-0.5280715985	 0.094022843	 0.28858
96.7669	156.1699	173.3728	179.726	291.5809	323.778	406.1663	443.3551	592.0953	597.4196	613.704	673.0173	715.1268	726.9733	790.8	812.8663	870.407	1007.1827	1015.4305	1039.8683	1136.4372	1145.7118	1177.417	1230.8504	1297.4801	1422.4691	1432.342	1453.1814	1526.2504	1605.3381	1638.1039	1658.8741	1772.1312	2987.0837	3252.1439	3495.8822	3605.4861	3613.4757	3631.0013
NC1=CN=C(NC=O)N1	Nc1cnc(NC=O)[nH]1	
InChI=1S/C4H6N4O/c5-3-1-6-4(8-3)7-2-9/h1-2H,5H2,(H2,6,7,8,9)	InChI=1S/C4H6N4O/c5-3-1-6-4(8-3)7-2-9/h1-2H,5H2,(H2,6,7,8,9)
