19
gdb 101510	3.38031	0.68881	0.5931	1.9725	94.25	-0.2375	-0.0076	0.2299	1866.7963	0.155191	-385.831539	-385.820816	-385.819871	-385.86811	37.84	
C	-0.0119352603	 1.4279096874	-0.1319220048	-0.237283
O	-0.0199997024	 0.0285184698	 0.0330526395	-0.237446
C	-1.3069802648	-0.5636120601	 0.0275706558	 0.145176
C	-1.8313314516	-0.7762066685	-1.3947484493	-0.402757
C	-1.1657838129	-1.9039587756	 0.7762064477	-0.399628
C	-0.8308416929	-1.7452048367	 2.181738155	 0.371986
C	-0.5687594969	-1.6134109202	 3.3557316161	-0.223001
C	-0.2716917016	-1.4608040197	 4.6748672935	 0.294131
C	-0.009765262	-1.3267760837	 5.8462750006	-0.563283
H	 1.0270974993	 1.7537955487	-0.042471728	 0.131437
H	-0.3906569116	 1.7417499047	-1.1159706917	 0.104599
H	-0.6086657681	 1.9297568116	 0.6449896922	 0.110648
H	-2.0084885737	 0.0758325207	 0.5867818835	 0.077664
H	-2.8315572691	-1.2207413219	-1.3799269731	 0.117299
H	-1.8980262808	 0.1723654762	-1.9342978153	 0.120673
H	-1.1617670725	-1.4392328114	-1.9518847002	 0.125865
H	-2.101767505	-2.4683429887	 0.6808005171	 0.132546
H	-0.3873154395	-2.4908991396	 0.2717172652	 0.14413
H	 0.2228137664	-1.2080757031	 6.8750589761	 0.187244
48.7355	63.7495	92.9659	155.3414	184.4501	205.8632	227.3858	286.6765	314.0605	355.6496	392.3149	464.3676	510.3933	529.18	546.6297	587.4947	594.0811	745.2579	813.4157	890.0944	920.5049	1062.1724	1108.6431	1117.4094	1163.5029	1179.3403	1183.3782	1206.0664	1266.8355	1309.9755	1375.8262	1383.7269	1405.5142	1451.4071	1479.6292	1483.3302	1493.6579	1499.8217	1511.3791	2182.2588	2366.0523	2975.5224	2983.4406	3022.8507	3028.0246	3039.7471	3061.6953	3111.2541	3115.372	3117.2629	3507.1133
COC(C)CC#CC#C	CO[C@@H](C)CC#CC#C	
InChI=1S/C8H10O/c1-4-5-6-7-8(2)9-3/h1,8H,7H2,2-3H3	InChI=1S/C8H10O/c1-4-5-6-7-8(2)9-3/h1,8H,7H2,2-3H3/t8-/m0/s1
