16
gdb 55892	2.82874	1.04487	0.8514	1.403	71.59	-0.2488	0.0201	0.2689	1332.0822	0.124266	-434.105716	-434.096467	-434.095523	-434.141411	33.001	
N	-0.0850800339	 1.3385336126	 0.0257951273	-0.570203
C	 0.0508589658	-0.0380602612	 0.0006746121	 0.466887
O	 1.1064754072	-0.5974804008	-0.2284708846	-0.388923
N	-1.1032430155	-0.7220933055	 0.3386764135	-0.350708
C	-1.1616735921	-2.1340221162	 0.1974238233	 0.087775
C	-2.1678287492	-2.9497322692	 0.932995327	-0.328573
C	-2.305461674	-2.7987116461	-0.5857672609	-0.207474
C	-3.3431008734	-1.948595924	-1.086014909	 0.279749
N	-4.1514679594	-1.2073648301	-1.4578076264	-0.342884
H	 0.7021231327	 1.8163071028	-0.3845510901	 0.266591
H	-0.9820473534	 1.7450335791	-0.1921327368	 0.254433
H	-1.968904597	-0.2166211674	 0.4436780241	 0.252847
H	-0.172277243	-2.5406218102	 0.0322836916	 0.157423
H	-1.8800035162	-3.9260862386	 1.3052800286	 0.141446
H	-2.9033595336	-2.4325628228	 1.5393293099	 0.141058
H	-2.062763165	-3.6516350124	-1.2091701096	 0.140556
20.2115	62.1041	127.6165	174.2107	218.9529	279.7664	354.1975	401.2905	449.0326	476.5377	512.0124	560.2247	641.6552	650.8151	758.3267	773.9434	798.8128	867.8377	935.2756	987.2181	1062.5669	1076.4644	1094.6056	1114.0485	1140.0976	1184.9037	1252.7198	1311.3046	1357.3083	1404.9189	1482.562	1558.5104	1631.7629	1804.1933	2344.0853	3141.627	3179.343	3214.6122	3233.8671	3580.9459	3628.5298	3697.6341
NC(=O)NC1CC1C#N	NC(=O)N[C@H]1C[C@H]1C#N	
InChI=1S/C5H7N3O/c6-2-3-1-4(3)8-5(7)9/h3-4H,1H2,(H3,7,8,9)	InChI=1S/C5H7N3O/c6-2-3-1-4(3)8-5(7)9/h3-4H,1H2,(H3,7,8,9)/t3-,4-/m0/s1
