17
gdb 26580	2.36225	1.83611	1.04072	2.4752	83.33	-0.1826	-0.0242	0.1584	1112.3478	0.137086	-418.052405	-418.04407	-418.043126	-418.085091	32.139	
C	-0.0135638803	 1.5273967145	-0.0521205416	-0.514251
C	 0.0216757459	 0.0228896063	-0.0431944243	 0.20811
C	-1.1326149293	-0.7054294241	 0.0128428648	 0.165162
N	-2.4039762353	-0.1674681484	 0.026561884	-0.584039
C	-1.0939730192	-2.1689779659	 0.0192378215	 0.361378
N	-2.1660727355	-2.8567969193	 0.0982439981	-0.566411
O	 0.1386300334	-2.7679603002	-0.0584073781	-0.235519
C	 1.2833206343	-2.0322168775	-0.1143890191	 0.030752
C	 1.2688911534	-0.6913400525	-0.1051842339	-0.228464
H	 0.9713204551	 1.9468117294	-0.2712120848	 0.127395
H	-0.7170054032	 1.9017168893	-0.8056559524	 0.139008
H	-0.3332053813	 1.9366692604	 0.9165433063	 0.128023
H	-2.5124739235	 0.7319877864	 0.4679250079	 0.247374
H	-3.1109717104	-0.8505637536	 0.2672167852	 0.270161
H	-1.9652454365	-3.8553925957	 0.0948658707	 0.220381
H	 2.1588274963	-2.6640122176	-0.1647143943	 0.129371
H	 2.2063861361	-0.1509222816	-0.15211783	 0.101569
99.0277	132.8645	176.7121	278.87	284.1332	349.6381	392.9768	485.9865	504.6559	529.4153	531.1267	583.9868	616.3235	696.1233	758.5665	778.0877	819.5317	838.7627	890.3351	950.7618	1000.0362	1050.5787	1051.1767	1103.9376	1208.8246	1262.4343	1270.9097	1293.7868	1393.4976	1426.9312	1445.2556	1483.745	1501.3831	1598.8471	1634.9389	1677.1954	1715.8801	3007.81	3059.5751	3116.298	3204.2335	3240.5314	3508.8037	3546.5518	3672.5885
CC1=C(N)C(=N)OC=C1	C[C@H]1C(=C([NH])OC=C1)N	
InChI=1S/C6H8N2O/c1-4-2-3-9-6(8)5(4)7/h2-3,8H,7H2,1H3	InChI=1S/C6H9N2O/c1-4-2-3-9-6(8)5(4)7/h2-4,8H,7H2,1H3/t4-/m1/s1
