18
gdb 17580	2.66557	2.41716	1.83815	1.8277	71.01	-0.2474	0.0847	0.3321	830.1187	0.152748	-347.756112	-347.748476	-347.747532	-347.78743	29.664	
C	-0.0067801315	 1.5219571316	 0.0574925473	-0.496853
C	-0.018547853	 0.0205698488	 0.0224490674	 0.280155
C	 1.167071589	-0.83769685	-0.3593324871	-0.3822
C	 0.5946533769	-0.9822165634	 1.033334395	 0.280153
C	 1.3528839597	-0.7015688264	 2.2989777769	-0.496853
C	-0.6801726865	-1.7985755084	 0.9364889665	-0.041158
O	-1.7967899599	-0.9718761181	 1.3054258219	-0.253766
C	-1.2622504725	-0.8466816296	-0.0230978707	-0.04116
H	 0.9664061541	 1.9051820918	 0.3816073486	 0.117252
H	-0.2120838979	 1.9475485499	-0.9319547555	 0.120355
H	-0.765635691	 1.8979759637	 0.7513528131	 0.132293
H	 1.0626371805	-1.6370852591	-1.0889671158	 0.104818
H	 2.118853382	-0.3155938028	-0.4187648585	 0.111075
H	 2.0504974863	 0.1323279929	 2.1687679691	 0.117252
H	 0.665960339	-0.4431718774	 3.1114192156	 0.132294
H	 1.9399293291	-1.5717873766	 2.6158076338	 0.120355
H	-0.8167903021	-2.8713730037	 1.0153380205	 0.097994
H	-1.9457211921	-1.0251898931	-0.8457632284	 0.097994
179.6188	198.7292	198.8983	208.474	232.3166	375.5956	409.1391	492.6829	591.0783	618.5404	690.1541	782.3878	808.3791	850.8781	872.0536	903.574	963.2987	965.1925	989.5075	998.2422	1057.7092	1083.3387	1085.477	1112.5313	1187.9859	1203.5297	1229.6264	1281.8032	1342.6459	1355.2018	1388.3543	1413.1215	1425.5987	1484.352	1491.4083	1495.9397	1498.3283	1504.3162	3024.6078	3026.3702	3084.8404	3086.2618	3100.7334	3102.1786	3105.704	3173.8412	3185.7725	3188.3541
CC12CC1(C)C1OC21	C[C@@]12C[C@]1(C)[C@H]1O[C@@H]21	
InChI=1S/C7H10O/c1-6-3-7(6,2)5-4(6)8-5/h4-5H,3H2,1-2H3	InChI=1S/C7H10O/c1-6-3-7(6,2)5-4(6)8-5/h4-5H,3H2,1-2H3/t4-,5+,6+,7-
