27
gdb 118221	3.38655	0.60564	0.58626	1.3672	93.73	-0.2615	0.0715	0.333	2112.9646	0.249275	-390.708128	-390.695881	-390.694937	-390.746989	44.093	
C	 0.1447074603	 1.6176879204	 0.0219014315	-0.377925
C	 0.0064730132	 0.0921913831	 0.0126599967	-0.175948
C	 0.6151303312	-0.5507291214	-1.2397627688	-0.163535
C	 0.5999590911	-2.0912006719	-1.2639269496	 0.030348
C	-0.8293396765	-2.6513622126	-1.3135788895	-0.396434
C	 1.4563026725	-2.5991266303	-2.4399440428	-0.172858
C	 1.6989878612	-4.1086394557	-2.4764760467	 0.116971
C	 2.5877669851	-4.5158727821	-3.6529906746	-0.40098
O	 2.3043843879	-4.4584949996	-1.2315238684	-0.432317
H	 1.1971358965	 1.9207660434	-0.0155051252	 0.112076
H	-0.35688032	 2.0658682981	-0.8433361604	 0.111444
H	-0.295488299	 2.0545854966	 0.9239469807	 0.10826
H	 0.4940851379	-0.3251046937	 0.9038529857	 0.094198
H	-1.0546076116	-0.1710293488	 0.0952236687	 0.096402
H	 0.0959073128	-0.1690023078	-2.1318734091	 0.083197
H	 1.6559378224	-0.2104182056	-1.3305304956	 0.086017
H	 1.0747199625	-2.4495319671	-0.342080955	 0.090787
H	-1.3389224338	-2.3450889892	-2.2360777251	 0.104036
H	-0.8354836337	-3.7444376169	-1.2749713202	 0.114671
H	-1.4296967377	-2.2982622093	-0.4705117049	 0.112817
H	 0.9918402895	-2.301533528	-3.3899853028	 0.085576
H	 2.437355961	-2.1076165895	-2.402292942	 0.093244
H	 0.7322866374	-4.6284761732	-2.577330938	 0.063623
H	 2.7583665333	-5.5990569692	-3.6574836327	 0.100212
H	 2.1236653404	-4.250623216	-4.6087238657	 0.114193
H	 3.5607076955	-4.0183547796	-3.5872578655	 0.122549
H	 2.4687732702	-5.4064587244	-1.2374131907	 0.279374
21.129	63.0255	76.8014	117.1255	125.475	210.9253	231.5124	241.1391	247.5555	283.9688	288.8172	323.4128	362.7494	430.7402	444.3407	490.202	537.8201	742.1365	824.9209	838.2412	863.5664	890.4333	903.4389	946.7206	972.1835	1000.8262	1039.4705	1048.6172	1074.9988	1089.1042	1103.6734	1161.8204	1167.7039	1187.5745	1227.2897	1264.8174	1287.8599	1314.1306	1328.9661	1332.6107	1362.0372	1384.8955	1392.2433	1396.0247	1404.2915	1410.427	1415.0719	1430.7878	1467.6737	1482.4057	1492.2325	1493.6362	1496.2057	1498.8454	1499.4194	1508.2128	1513.0623	2966.2166	2992.6514	3010.9176	3018.5308	3022.8418	3025.109	3027.0551	3028.0061	3036.4754	3054.6334	3061.6368	3090.2795	3094.0499	3095.96	3098.9552	3109.4012	3110.3301	3820.6077
CCCC(C)CC(C)O	CCC[C@@H](C)C[C@@H](C)O	
InChI=1S/C8H18O/c1-4-5-7(2)6-8(3)9/h7-9H,4-6H2,1-3H3	InChI=1S/C8H18O/c1-4-5-7(2)6-8(3)9/h7-9H,4-6H2,1-3H3/t7-,8-/m1/s1
