18
gdb 31836	4.95357	1.01599	0.85316	1.8905	86.74	-0.2053	-0.0312	0.1741	1364.8454	0.148748	-398.188688	-398.179784	-398.17884	-398.222762	32.1	
C	 0.0702728832	 1.4459723099	 0.0304972852	-0.324825
N	-0.0272662298	 0.0044958455	 0.0060354207	-0.348586
C	-1.214059399	-0.6776151755	 0.0338829528	 0.388831
N	-1.1419336055	-1.9965305811	 0.2576237548	-0.329963
C	-2.2896757586	-2.670721644	 0.25131444	-0.061713
C	-3.5306966327	-2.0727215739	 0.0319258571	 0.298085
C	-4.8165502731	-2.8532943521	 0.0254347899	-0.47175
N	-3.5964569886	-0.7487569523	-0.1791707179	-0.28661
C	-2.4658395177	-0.0587492976	-0.1775094061	-0.095682
H	 1.1251392641	 1.7258207002	 0.0524345725	 0.132866
H	-0.3698775935	 1.8879371198	-0.8712029529	 0.136707
H	-0.4238032522	 1.8961226151	 0.904435697	 0.124553
H	 0.7580309395	-0.5348850335	 0.3338068816	 0.247188
H	-2.219391185	-3.7413347508	 0.4335940115	 0.102102
H	-4.6385789222	-3.9131437837	 0.2266904201	 0.117993
H	-5.5095297488	-2.4700872743	 0.7817265253	 0.134999
H	-5.3205236019	-2.7677153787	-0.9431876409	 0.135197
H	-2.5423803081	 1.0113583471	-0.3472718208	 0.100607
71.6504	76.938	126.3382	180.9084	200.5442	331.4045	346.4831	404.4004	442.4369	468.4582	554.2868	559.5557	663.3174	750.445	792.9181	872.4181	900.6079	957.3823	1005.7809	1037.7163	1061.7861	1092.7501	1157.9464	1179.1777	1251.3836	1278.2452	1313.7684	1337.3617	1404.0217	1414.8784	1466.9655	1474.4683	1476.4232	1485.0097	1495.721	1523.1628	1552.64	1587.7373	1631.58	2991.7235	3035.6549	3053.9063	3092.9321	3117.6842	3127.4771	3145.1028	3164.1284	3635.1028
CNC1=NC=C(C)N=C1	CNc1ncc(C)nc1	
InChI=1S/C6H9N3/c1-5-3-9-6(7-2)4-8-5/h3-4H,1-2H3,(H,7,9)	InChI=1S/C6H9N3/c1-5-3-9-6(7-2)4-8-5/h3-4H,1-2H3,(H,7,9)
