17
gdb 90580	3.40324	1.34047	1.03886	3.7008	75.41	-0.2405	-0.0111	0.2294	1146.6296	0.137073	-418.031986	-418.023991	-418.023046	-418.065118	29.373	
C	-0.2288026703	 1.5328472584	 0.221607693	-0.39972
C	 0.0236710672	 0.0502364625	-0.0191902856	-0.143182
C	 0.8188321944	-0.3592887427	-1.3274994361	-0.193693
N	 1.8134752692	-0.9966180414	-0.4361133845	-0.11488
C	 1.1919628071	-0.5916692639	 0.7286776536	 0.413095
N	 1.7678657664	-0.7974034489	 1.8440997335	-0.363062
C	 3.0224047059	-1.4688169038	 1.4258295999	-0.299105
C	 3.0659533962	-1.5224542355	-0.1378042563	 0.364467
O	 3.9346003636	-1.9138360036	-0.871863385	-0.354772
H	 0.6914682107	 2.1142404703	 0.1087649455	 0.130271
H	-0.9689120902	 1.9201203119	-0.4853054754	 0.126847
H	-0.6068925789	 1.6962195507	 1.2345729132	 0.144874
H	-0.8999667652	-0.5252818878	 0.0891967947	 0.116713
H	 0.3178597347	-1.0586309988	-1.9997115786	 0.136101
H	 1.2230109055	 0.4831497224	-1.8950397655	 0.136517
H	 3.8959603592	-0.927785347	 1.8032461386	 0.149308
H	 3.0717460344	-2.4872071528	 1.826434285	 0.150222
59.4415	107.635	180.6027	212.2432	264.1478	340.1509	391.4596	536.2485	557.8081	631.6502	674.7253	719.4616	753.2972	851.133	913.1033	954.3471	961.6375	967.3178	1024.4622	1089.3743	1109.2442	1137.4006	1169.028	1179.4894	1226.045	1244.976	1253.7463	1297.763	1344.4268	1379.9695	1414.6749	1440.0073	1493.7495	1494.9772	1509.2462	1740.6907	1850.2507	3041.4587	3056.0002	3064.9402	3074.759	3096.7531	3113.4746	3119.5975	3125.2293
CC1CN2C1=NCC2=O	C[C@H]1CN2C1=NCC2=O	
InChI=1S/C6H8N2O/c1-4-3-8-5(9)2-7-6(4)8/h4H,2-3H2,1H3	InChI=1S/C6H8N2O/c1-4-3-8-5(9)2-7-6(4)8/h4H,2-3H2,1H3/t4-/m0/s1
