21
gdb 120769	2.92894	0.96367	0.82079	2.0826	79.74	-0.2341	0.0676	0.3017	1480.8788	0.183051	-420.334818	-420.325305	-420.32436	-420.370281	34.267	
C	 0.0182406457	 1.3072196616	 0.502409435	-0.224805
O	-0.0803788637	-0.0832452726	 0.6967132533	-0.239876
C	 1.1740559102	-0.7309198918	 0.6370601403	-0.063813
C	 0.9311759133	-2.2085706251	 0.8169174711	-0.037994
N	 2.0972943609	-3.0368487925	 1.1666831121	-0.359406
C	 0.9952398737	-2.8989185482	 2.1333769724	-0.034463
C	 1.3270713609	-2.1986286771	 3.4201587284	-0.004131
C	 2.3449961349	-2.7851399661	 4.3280108462	-0.242071
N	 2.6331649714	-1.546963644	 3.5846703815	-0.316812
H	 0.4417164928	 1.5528477649	-0.4849370358	 0.101768
H	-0.9919250524	 1.7193256945	 0.5651448099	 0.125256
H	 0.6460726519	 1.7840926873	 1.2712687135	 0.110526
H	 1.6559711323	-0.5498281255	-0.3399590012	 0.084366
H	 1.8509095302	-0.3493223383	 1.4142363993	 0.116788
H	 0.2250382004	-2.6182314202	 0.0965112002	 0.092116
H	 2.0639584034	-3.9332082902	 0.6916464156	 0.237881
H	 0.3226575761	-3.7484693166	 2.2478915255	 0.088667
H	 0.4963206787	-1.6483262346	 3.8573921814	 0.099901
H	 2.2505196817	-2.6700977072	 5.4041346205	 0.114688
H	 2.8358029192	-3.7005147464	 4.0060939292	 0.109042
H	 3.1935775886	-1.7957220119	 2.7690764614	 0.242374
40.5735	86.8891	105.6526	163.9787	172.5435	234.7319	262.1334	313.8914	421.4345	428.0554	529.3044	626.9399	755.8428	822.5824	858.7801	883.0259	931.3686	964.5531	981.5076	1002.4808	1016.2884	1032.6535	1047.6953	1110.2114	1130.6886	1148.9407	1164.3247	1178.3303	1186.8661	1202.1734	1222.4322	1231.3637	1259.4661	1286.9109	1294.5355	1326.6405	1376.8273	1399.5294	1438.7903	1475.9168	1485.2652	1488.7363	1504.4017	1508.0527	1526.9929	2949.9571	2970.3552	3014.2099	3027.8466	3104.7678	3107.4553	3112.8414	3125.6152	3129.0721	3191.3371	3462.6621	3523.5622
COCC1NC1C1CN1	COC[C@H]1N[C@H]1[C@H]1CN1	
InChI=1S/C6H12N2O/c1-9-3-5-6(8-5)4-2-7-4/h4-8H,2-3H2,1H3	InChI=1S/C6H12N2O/c1-9-3-5-6(8-5)4-2-7-4/h4-8H,2-3H2,1H3/t4-,5-,6+/m1/s1
