21
gdb 95328	3.17169	1.30732	1.0581	1.7914	85.05	-0.2341	0.0162	0.2503	1202.1548	0.184355	-387.08176	-387.073694	-387.07275	-387.114146	32.071	
C	-0.1049296712	 1.5592053459	 0.0505117244	-0.386245
C	-0.0155133832	 0.0212239708	-0.0121910253	-0.005881
C	 0.6432685569	-0.4600901374	-1.338702821	-0.225563
C	 2.1839681246	-0.5908510441	-1.2763070461	-0.248609
C	 2.4497296642	-1.6429878347	-0.2139845052	 0.109598
O	 3.7268675046	-1.6777227057	 0.4890136865	-0.31169
C	 3.0522173715	-1.6523876168	 1.7808310728	-0.162398
C	 1.7728128645	-1.2792374946	 1.0745695768	 0.233165
C	 0.7194637214	-0.4905012924	 1.2121386089	-0.212503
H	 0.8883220582	 2.0158458091	-0.0166648067	 0.120889
H	-0.7140845307	 1.9472789106	-0.7722999077	 0.112817
H	-0.5586356907	 1.8918332607	 0.9899879336	 0.112867
H	-1.0471482076	-0.3581249819	 0.0007689336	 0.08148
H	 0.2306517534	-1.4405029882	-1.6084591997	 0.100004
H	 0.3572159994	 0.2224337815	-2.1453175112	 0.097012
H	 2.584680097	-0.8659401943	-2.2571112958	 0.097
H	 2.6498693221	 0.3527533618	-0.9725693838	 0.106918
H	 2.2150084806	-2.6476055728	-0.5990560185	 0.076013
H	 3.0696336344	-2.6420118213	 2.2597098773	 0.103786
H	 3.4833589069	-0.9135285105	 2.4661192909	 0.116031
H	 0.4121358338	-0.1023704155	 2.1811727162	 0.08531
95.0005	180.7878	219.8422	239.1961	306.9151	335.5578	404.1786	438.4694	454.9293	524.5455	664.4511	745.14	783.701	826.4242	864.1532	877.1148	922.902	967.5369	971.6693	985.7948	988.618	1026.6472	1046.5252	1084.7275	1111.7912	1129.6894	1139.6497	1153.5671	1176.7165	1220.6892	1279.5867	1304.8694	1320.5735	1328.8251	1338.4748	1366.3308	1373.1912	1390.2607	1409.3864	1486.01	1494.3388	1498.5956	1501.5022	1511.7125	1790.5141	2974.9386	2994.7617	2996.5795	3028.0177	3030.5712	3043.9406	3057.2952	3074.9703	3092.0364	3099.5392	3102.945	3145.8198
CC1CCC2OCC2=C1	C[C@H]1CC[C@H]2OC[C]2[CH]1	
InChI=1S/C8H12O/c1-6-2-3-8-7(4-6)5-9-8/h4,6,8H,2-3,5H2,1H3	InChI=1S/C8H12O/c1-6-2-3-8-7(4-6)5-9-8/h4,6,8H,2-3,5H2,1H3/t6-,8+/m0/s1
