21
gdb 71009	3.68874	1.41316	1.27409	1.9723	82.28	-0.2394	0.0813	0.3207	1072.443	0.184352	-387.03425	-387.026825	-387.025881	-387.065437	31.41	
C	 0.0372556857	 1.5518143982	-0.0632559895	-0.489548
C	 0.0138255309	 0.043195938	 0.0226580116	 0.330596
C	 0.9687566404	-0.8368511809	-0.9148220022	-0.352278
C	 0.6065078542	-1.8764770298	 0.1612641446	 0.4642
C	 0.6627207442	-0.7345697788	 1.2031083498	-0.316925
O	 0.831926402	-3.2450674178	 0.5317121844	-0.361002
C	-0.6025827742	-3.3374170354	 0.8465883426	-0.169614
C	-0.8678564172	-2.1196039821	-0.0817376894	-0.021689
C	-1.3914189523	-0.6663778787	 0.0102305227	-0.310791
H	 1.0563571746	 1.9432133005	 0.0187127071	 0.115907
H	-0.3804604203	 1.9018643467	-1.0142030245	 0.116685
H	-0.5579900214	 1.9975458382	 0.7422489587	 0.116764
H	 0.6615770564	-1.0433844948	-1.943550177	 0.094152
H	 1.9869566167	-0.4412442025	-0.8832636563	 0.100607
H	 1.6868157751	-0.418358361	 1.4150703421	 0.095654
H	 0.0910550486	-0.8289671894	 2.1303862481	 0.08826
H	-1.0157665744	-4.3014666468	 0.540192953	 0.110108
H	-0.7796689013	-3.1737235096	 1.9161071192	 0.10502
H	-1.0201465938	-2.5176639986	-1.088823464	 0.085823
H	-1.94721791	-0.4148578518	 0.9189596435	 0.103215
H	-2.0131441139	-0.3954826834	-0.8481741145	 0.094855
200.5277	218.1728	256.2595	282.3021	375.675	412.7867	441.8838	513.45	540.6078	571.9854	646.8034	721.3686	772.2523	811.0057	848.2602	897.4938	925.9602	931.2594	958.5918	990.4081	992.1836	1015.9053	1040.1361	1076.4829	1102.7458	1118.6573	1129.1899	1154.5783	1173.6387	1203.9843	1217.3191	1231.263	1239.5609	1256.8159	1291.4504	1323.7756	1335.6124	1392.0855	1414.0497	1482.6044	1489.0045	1492.4889	1495.8686	1513.5479	1526.8975	3023.6775	3031.395	3047.8703	3052.2198	3056.2554	3062.624	3085.3003	3094.5545	3097.0171	3104.776	3116.7205	3121.7253
CC12CC3(C1)OCC3C2	C[C@@]12C[C@]3(C1)OC[C@H]3C2	
InChI=1S/C8H12O/c1-7-2-6-3-9-8(6,4-7)5-7/h6H,2-5H2,1H3	InChI=1S/C8H12O/c1-7-2-6-3-9-8(6,4-7)5-7/h6H,2-5H2,1H3/t6-,7-,8-/m1/s1
