21
gdb 19305	6.38925	0.83765	0.8355	0.9939	79.53	-0.2294	0.0913	0.3207	1457.975	0.188968	-329.080376	-329.071849	-329.070905	-329.114192	31.638	
C	-0.0306889731	 1.4915635084	 0.2075405011	-0.206432
C	 0.111788867	-0.0323609753	 0.1880514918	-0.132749
N	-1.1928241239	-0.6811862892	 0.2689828208	-0.058972
C	-1.8633768075	-0.9421996886	-1.0006432633	-0.219024
C	-1.2639933066	-2.0545322732	-0.2129819256	-0.220903
C	 1.3045880316	 2.2036569177	 0.1925067741	 0.037035
C	 2.0189890554	 2.4701934956	-1.1106364725	-0.254873
C	 1.4194281172	 3.6130335984	-0.3278576752	-0.276431
H	-0.6242813579	 1.8086925571	-0.66007962	 0.091128
H	-0.6061623171	 1.7767556755	 1.0965858726	 0.107486
H	 0.6728295247	-0.3413807743	-0.7136558569	 0.078903
H	 0.6996715809	-0.359513792	 1.0551390177	 0.09886
H	-2.9385319141	-0.7875986797	-1.0131145858	 0.114889
H	-1.3508890022	-0.6536972279	-1.9179177014	 0.105579
H	-0.3541904212	-2.5058491783	-0.6068982609	 0.106613
H	-1.8927634787	-2.7279429129	 0.3628200108	 0.11465
H	 1.9472144402	 1.9630989731	 1.0367569066	 0.079684
H	 3.0988945861	 2.3761571133	-1.1423447615	 0.108924
H	 1.5223548392	 2.1727541079	-2.0290508855	 0.106622
H	 0.5227832061	 4.0807815954	-0.7216153432	 0.109638
H	 2.0899198941	 4.298844189	 0.1781923262	 0.109371
67.3668	70.5018	118.1569	151.4331	271.2161	319.0186	361.7781	437.094	468.2783	762.4367	773.276	786.5918	819.9191	829.7598	856.4055	898.1253	924.437	964.8506	1018.0186	1034.9448	1041.7005	1063.3574	1074.1649	1081.157	1113.4817	1117.1893	1139.8301	1160.1096	1179.4163	1198.7228	1207.3379	1228.9168	1261.747	1299.5124	1315.7379	1326.6663	1396.6103	1421.5388	1468.9822	1482.572	1493.1226	1501.9155	1508.5615	1526.0023	2929.5067	3018.2717	3037.3269	3063.3738	3089.764	3094.8006	3126.6763	3127.8396	3133.216	3172.8571	3187.2213	3204.4397	3219.9197
C(CN1CC1)C1CC1	C(CN1CC1)C1CC1	
InChI=1S/C7H13N/c1-2-7(1)3-4-8-5-6-8/h7H,1-6H2	InChI=1S/C7H13N/c1-2-7(1)3-4-8-5-6-8/h7H,1-6H2
