21
gdb 104282	2.29444	1.27554	1.06998	3.8179	78.82	-0.2418	-0.028	0.2138	1253.7845	0.179801	-424.217182	-424.207191	-424.206246	-424.252625	35.946	
C	 0.0678840627	 1.5824434389	-0.0987176735	-0.397296
C	-0.0222900032	 0.1044306284	 0.3021080452	-0.254368
C	-1.4185234693	-0.5052840123	 0.1246993666	 0.262944
C	-2.4687695914	 0.1324263585	 1.033213201	-0.456991
C	-1.8960224832	-0.67593138	-1.3430228975	-0.103734
O	-2.1001376725	-2.0921674292	-1.1720427248	-0.266886
C	-1.5189408441	-2.0789087379	 0.1302110891	-0.003563
C	-0.214049518	-2.8365069687	 0.2341180196	 0.140195
O	 0.3914166453	-3.3054047169	-0.6928837582	-0.242962
H	 1.1010662662	 1.9346155264	-0.0289831958	 0.122415
H	-0.2626995226	 1.7362084154	-1.1318504978	 0.12281
H	-0.541388913	 2.2222322132	 0.5460375152	 0.122395
H	 0.6945642999	-0.4661485476	-0.2995137169	 0.121065
H	 0.2931694528	-0.0076312121	 1.3478590985	 0.098642
H	-2.5850772803	 1.1996257337	 0.8207250051	 0.124331
H	-3.4450033347	-0.3417858434	 0.8922427914	 0.12839
H	-2.1909532433	 0.0286578827	 2.0883167714	 0.11739
H	-2.8236044416	-0.1575594174	-1.6123510039	 0.102754
H	-1.1316418248	-0.4687986946	-2.102585306	 0.10712
H	-2.2004675781	-2.4767187734	 0.8986958544	 0.086367
H	 0.1611589631	-2.9223251036	 1.2826466969	 0.068982
47.884	79.4422	107.2278	179.9443	222.123	227.9349	255.3663	286.5909	316.9467	351.4423	405.5513	466.056	628.9835	759.9905	773.0461	798.5707	885.5829	914.0639	937.9333	952.9586	988.1383	1016.3643	1028.8822	1047.176	1079.016	1112.1562	1164.5502	1169.169	1201.4226	1241.6559	1275.6869	1323.8418	1353.9534	1369.6446	1377.082	1410.1328	1416.3028	1419.4162	1483.7823	1493.9369	1496.3586	1505.4984	1511.3772	1527.5087	1836.3293	2838.8365	2984.9182	3014.0254	3019.9218	3030.8894	3038.8604	3060.3917	3064.2129	3098.1691	3104.1093	3106.6807	3115.6658
CCC1(C)COC1C=O	CC[C@@]1(C)CO[C@H]1C=O	
InChI=1S/C7H12O2/c1-3-7(2)5-9-6(7)4-8/h4,6H,3,5H2,1-2H3	InChI=1S/C7H12O2/c1-3-7(2)5-9-6(7)4-8/h4,6H,3,5H2,1-2H3/t6-,7-/m0/s1
