14
gdb 43893	2.82789	1.51942	1.15642	2.8054	68.76	-0.2618	-0.0187	0.2431	1027.6965	0.101711	-432.832528	-432.825139	-432.824195	-432.864604	27.699	
N	-0.0059614264	 1.0619940097	-0.6022228582	-0.53665
C	-0.0499508008	-0.0782449306	-0.1014797206	 0.480538
O	 0.9624424368	-0.8714153099	 0.4516578886	-0.292922
C	 0.0553381031	-1.9889779729	 0.6573037999	 0.296201
C	-0.6432293091	-1.9819228949	 2.0387881525	-0.22285
N	-1.6501996759	-1.0053491299	 1.5376718725	-0.314424
C	-1.1353200682	-1.1097272022	 0.1512931163	-0.204307
C	 0.5376988959	-3.2253290063	 0.0886608417	 0.235685
N	 0.8878796219	-4.2340471132	-0.3539675806	-0.32629
H	 0.9320337019	 1.464510648	-0.5752862711	 0.242641
H	-1.0525791156	-2.9654665616	 2.2910942186	 0.133269
H	-0.0247187115	-1.6155717675	 2.8624347743	 0.139921
H	-2.6051240576	-1.3274155572	 1.6301250785	 0.242621
H	-1.8304800747	-1.3620962614	-0.6471681725	 0.126568
97.2036	154.5687	191.3812	248.0509	359.4486	409.1355	482.9984	532.7748	577.535	655.4157	658.8658	776.594	830.8197	868.6164	870.943	955.234	985.5073	995.7629	1030.0788	1055.3322	1073.9936	1141.5281	1153.4598	1229.5147	1249.3126	1278.9327	1342.8331	1389.5731	1491.2146	1849.2461	2358.3356	3047.5996	3107.4389	3143.5413	3486.1567	3567.0603
N=C1OC2(CNC12)C#N	[NH][C]1O[C@]2(CN[C@@H]12)C#N	
InChI=1S/C5H5N3O/c6-1-5-2-8-3(5)4(7)9-5/h3,7-8H,2H2	InChI=1S/C5H5N3O/c6-1-5-2-8-3(5)4(7)9-5/h3,7-8H,2H2/t3-,5-/m0/s1
