19
gdb 40383	4.30651	1.20019	1.12256	2.8275	79.16	-0.1968	0.0702	0.2671	1140.7785	0.160928	-381.952419	-381.944954	-381.94401	-381.984378	30.194	
C	 0.341916388	 0.1471441578	-0.9165105726	-0.233466
N	-0.5336863609	 1.2248179021	-0.4214391918	-0.323834
C	 0.4019158001	 0.5723387944	 0.5092408377	-0.180904
C	-0.2199205657	-0.2247434745	 1.5926510177	 0.405204
N	-1.6105140561	-0.7220815248	 1.4872314567	-0.392492
C	-1.2076589139	 0.1439066817	 2.6277807515	-0.121287
C	-0.4624162854	-0.7197804687	 3.6876387544	-0.057436
C	-0.3178573547	-2.156102901	 3.2583692779	-0.289291
C	 0.5569651903	-1.1063573355	 2.6247435684	-0.124843
H	-0.1760581843	-0.7710553221	-1.1762179906	 0.131581
H	 1.172298104	 0.4075288498	-1.5670462449	 0.114697
H	-0.176010923	 2.1323910046	-0.70445962	 0.236446
H	 1.2875608552	 1.1324828709	 0.8066125766	 0.087022
H	-2.0584770022	-0.102313835	 0.8086305743	 0.24301
H	-1.7056365727	 1.0874252684	 2.8105702594	 0.092866
H	-0.279791845	-0.3848105966	 4.7001248915	 0.085575
H	 0.1935261822	-2.789014213	 3.9774347125	 0.10308
H	-1.0986934885	-2.6381217706	 2.6846828792	 0.141652
H	 1.6370833527	-1.1123606978	 2.698838232	 0.082418
87.6842	149.8192	189.5724	326.0473	359.0569	423.0226	498.8597	578.0816	652.0086	721.4797	753.1958	819.1817	849.8121	861.5745	875.1838	890.0619	917.5477	926.4841	939.5105	963.3894	987.0033	1000.273	1031.7542	1044.9918	1056.3185	1101.585	1115.3944	1121.3432	1153.6466	1187.5754	1191.2334	1219.0114	1242.2033	1278.5646	1284.7534	1299.6636	1341.2145	1398.4	1460.0537	1483.388	1511.4206	3110.8552	3115.5994	3137.0787	3186.0662	3193.4065	3202.7077	3204.3522	3234.0141	3448.3162	3515.3231
C1NC1C12NC1C1CC21	C1N[C@H]1[C@]12N[C@H]1[C@H]1C[C@@H]21	
InChI=1S/C7H10N2/c1-3-4(1)7(5-2-8-5)6(3)9-7/h3-6,8-9H,1-2H2	InChI=1S/C7H10N2/c1-3-4(1)7(5-2-8-5)6(3)9-7/h3-6,8-9H,1-2H2/t3-,4+,5+,6-,7-/m0/s1
