25
gdb 83362	2.01138	1.82975	1.47663	0.0829	90.61	-0.2791	0.0738	0.3529	1103.4808	0.231981	-352.393836	-352.385226	-352.384282	-352.426097	35.671	
C	-0.1486464791	 1.5336647937	-0.0284886438	-0.437725
C	 0.0550197484	 0.0198563297	-0.0012013366	 0.021875
C	 1.0536324812	-0.5714176359	-1.0260314024	-0.007658
C	 2.4142113074	-0.0425514306	-0.5166683788	-0.219062
C	 2.2369993505	-0.0602650066	 1.0328735701	-0.239668
C	 0.7884431577	-0.5806695183	 1.2361802793	 0.344002
C	 0.2022152787	-0.2894442973	 2.6089193219	-0.487302
C	 0.7907319706	-2.0845457112	 0.8568516841	-0.239468
C	 0.9712393232	-2.0778144851	-0.6945433558	-0.223359
H	 0.7855975859	 2.089366306	 0.0933838074	 0.116143
H	-0.5941625686	 1.8461867424	-0.9792135102	 0.111302
H	-0.826788497	 1.853205422	 0.7699932494	 0.113745
H	-0.9272323831	-0.4586161055	-0.1140171865	 0.054832
H	 0.8543288842	-0.3391066871	-2.075146503	 0.047787
H	 3.2440836711	-0.6696121626	-0.8562492937	 0.089868
H	 2.6114933918	 0.9693490963	-0.8825119305	 0.092394
H	 2.964353139	-0.7056010708	 1.5353882205	 0.089233
H	 2.3561587678	 0.9407118411	 1.4596237629	 0.089526
H	 0.2013190809	 0.7838313105	 2.8289204159	 0.110205
H	-0.8305782779	-0.6487609699	 2.6850697074	 0.107108
H	 0.7807077139	-0.7835933909	 3.3981993686	 0.110093
H	 1.5842554497	-2.6318969863	 1.3756649563	 0.088547
H	-0.1587085286	-2.5501056027	 1.1421017403	 0.087718
H	 0.1140922826	-2.541275479	-1.192822082	 0.090547
H	 1.8645428297	-2.6198584623	-1.0193252104	 0.089317
164.152	200.4977	228.2638	232.3783	234.2479	302.1291	334.3571	394.2507	409.9375	530.795	568.4364	592.9626	730.8703	752.8848	799.9134	815.9974	843.7683	886.3048	910.1357	940.3606	941.9136	968.776	975.1796	1006.4955	1036.8379	1059.778	1075.5725	1093.8574	1111.7441	1160.0871	1171.8694	1199.5502	1222.4041	1233.6008	1244.2089	1281.9463	1284.6865	1298.8997	1311.2462	1329.1466	1340.477	1363.6671	1395.8414	1411.1264	1416.4186	1481.434	1491.5323	1492.6321	1497.1616	1502.1635	1505.8957	1508.0715	1522.4233	3010.2817	3019.554	3033.7125	3035.1024	3040.5611	3048.3158	3052.1268	3068.3568	3072.535	3081.195	3083.1777	3085.7251	3089.9225	3092.622	3096.1721	3109.182
CC1C2CCC1(C)CC2	C[C@H]1[C@H]2CC[C@]1(C)CC2	
InChI=1S/C9H16/c1-7-8-3-5-9(7,2)6-4-8/h7-8H,3-6H2,1-2H3	InChI=1S/C9H16/c1-7-8-3-5-9(7,2)6-4-8/h7-8H,3-6H2,1-2H3/t7-,8-,9+/m0/s1
