18
gdb 69892	2.96181	1.51389	1.15708	2.9601	78.47	-0.2173	-0.0325	0.1848	1077.245	0.1467	-401.881251	-401.873184	-401.872239	-401.913485	31.482	
C	-0.0447346928	 1.5708503573	 0.2115640658	-0.500266
C	-0.0276681793	 0.0771308677	 0.0730049595	 0.281762
C	-0.8438747588	-0.8764645947	 0.899380314	-0.34096
C	 0.6633517459	-0.96851754	 0.9465248691	-0.112798
C	 1.2427014876	-1.639375763	-0.3184466572	-0.071463
N	 0.1813344029	-2.0721053226	-1.2023151267	-0.363888
C	 0.5357796951	-0.6265823977	-1.2019979089	 0.18355
C	 1.1438034868	-0.049517955	-2.3963867975	 0.045084
O	 1.5756362633	-0.721466602	-3.3142861531	-0.301164
H	 0.9191646776	 2.0169487472	-0.0614917534	 0.121105
H	-0.8126961587	 2.0234327923	-0.4277538165	 0.12781
H	-0.2608944587	 1.8578754985	 1.2451471455	 0.12486
H	-1.2832006816	-0.4286072971	 1.7857607713	 0.111737
H	-1.4278114973	-1.6628818894	 0.4389833236	 0.145719
H	 1.2404529414	-0.8108769764	 1.848008229	 0.096377
H	 2.2637795558	-1.9796359969	-0.439211765	 0.120099
H	 0.6117521966	-2.4402064907	-2.0542413329	 0.254521
H	 1.2081526142	 1.0578575926	-2.4164009767	 0.077912
133.2993	175.7798	183.0625	229.9304	289.7572	304.0711	406.8975	435.571	492.2165	555.1863	629.7053	734.6524	767.4575	787.8381	867.6984	873.4272	892.4027	920.6785	963.388	969.5784	999.9431	1033.1879	1052.5415	1082.7443	1097.391	1114.196	1176.9459	1209.6908	1248.48	1280.2969	1334.4566	1364.3838	1390.8464	1420.7672	1436.7665	1474.2726	1484.0134	1499.8307	1756.9349	2916.9925	3018.4544	3073.3791	3101.0832	3137.0106	3193.6198	3204.0112	3233.1269	3446.0914
CC12CC1C1NC21C=O	C[C@]12C[C@H]1[C@H]1N[C@@]21C=O	
InChI=1S/C7H9NO/c1-6-2-4(6)5-7(6,3-9)8-5/h3-5,8H,2H2,1H3	InChI=1S/C7H9NO/c1-6-2-4(6)5-7(6,3-9)8-5/h3-5,8H,2H2,1H3/t4-,5+,6-,7+/m0/s1
