21
gdb 90610	3.30661	1.35811	1.21098	1.2717	82.07	-0.2236	0.0696	0.2932	1121.6694	0.182598	-387.03613	-387.02779	-387.026846	-387.068417	33.678	
C	 0.0368446248	 1.57650863	 0.0348035746	-0.501196
C	 0.031005304	 0.0743733718	 0.0114003267	 0.359211
C	-0.9095439333	-0.7518982538	 0.8423412427	-0.339748
C	 0.5700845521	-0.9472103571	 1.0343514081	-0.096615
C	 1.2308470041	-1.7607428181	-0.096029528	-0.034742
C	 0.4720096205	-2.9246730434	-0.7953961791	 0.107131
O	-0.3712683381	-3.6765133556	 0.0494868011	-0.422169
C	-0.170921259	-1.9019738717	-1.8010611013	-0.303858
C	 0.6558996962	-0.7598508227	-1.1401910492	-0.074431
H	 1.02121371	 1.9807002297	-0.2298619763	 0.112077
H	-0.6908631274	 1.9893312298	-0.6757505188	 0.11603
H	-0.2234434768	 1.9562679289	 1.0286431179	 0.115217
H	-1.3863569849	-0.1965630886	 1.6456387099	 0.100962
H	-1.5258396041	-1.5444545502	 0.4358134561	 0.120594
H	 1.0361929967	-0.7704010083	 1.9971761692	 0.077965
H	 2.3060361388	-1.8926319784	 0.0288109272	 0.061697
H	 1.1810715333	-3.5846167015	-1.315814884	 0.065168
H	-0.7760190243	-4.3737982746	-0.476287969	 0.28243
H	 0.0853713063	-2.0955436595	-2.8461656941	 0.092186
H	-1.2566563276	-1.8048365087	-1.7218323398	 0.101066
H	 1.3223904687	-0.1919228883	-1.7899552339	 0.061028
129.429	172.6496	206.056	260.4176	271.8444	292.6076	375.336	413.0219	443.2785	586.5441	595.1	674.2388	733.4763	763.6355	832.2567	837.6915	883.7903	907.7889	929.5037	971.734	985.2738	987.0739	1017.9787	1056.1489	1069.939	1076.7774	1103.7982	1117.746	1132.4722	1184.789	1195.7117	1208.3914	1232.7601	1243.2278	1266.1	1304.2596	1317.0084	1325.8734	1392.9561	1418.3846	1425.8873	1471.6984	1484.7315	1498.5583	1506.4157	2985.0173	3013.1386	3055.2143	3068.759	3090.5111	3095.1715	3103.4503	3112.7936	3127.9023	3167.8559	3214.1412	3812.9758
CC12CC1C1C(O)CC21	C[C@]12C[C@H]1[C@H]1[C@@H](O)C[C@@H]21	
InChI=1S/C8H12O/c1-8-3-5(8)7-4(8)2-6(7)9/h4-7,9H,2-3H2,1H3	InChI=1S/C8H12O/c1-8-3-5(8)7-4(8)2-6(7)9/h4-7,9H,2-3H2,1H3/t4-,5+,6+,7+,8-/m1/s1
