18
gdb 44140	3.21336	1.21391	1.06454	3.9285	76.59	-0.2424	-0.0077	0.2347	1180.4847	0.147788	-401.912561	-401.904672	-401.903728	-401.945663	30.231	
O	-0.9039316341	 0.1313943399	-0.1385640208	-0.296059
C	-0.5457196744	 1.2628134955	-0.0418661881	 0.399607
C	-1.236709562	 2.6220439636	 0.167701087	-0.385381
C	 0.1731396271	 3.201758744	 0.0806882606	-0.050096
C	 1.1161611433	 2.5823556012	 1.0245175822	-0.009183
C	 0.795575882	 2.074457915	 2.3904196763	 0.005947
C	 1.8525710003	 1.3112089786	 3.1532298867	-0.261415
C	 1.4853814529	 2.7067679132	 3.5788687693	-0.281422
N	 0.7827980249	 1.8187563813	-0.234954377	-0.204283
H	-1.8618562854	 2.8770192739	-0.691955344	 0.14383
H	-1.8114771712	 2.7714590357	 1.084561874	 0.134458
H	 0.4436231741	 4.0510248704	-0.5359353722	 0.111204
H	 2.1374344937	 2.9511712736	 0.9421736726	 0.106902
H	-0.2276896222	 1.752535469	 2.5501934796	 0.100039
H	 1.5304994931	 0.4783985125	 3.7672812448	 0.123902
H	 2.8110688776	 1.1618229558	 2.667941578	 0.124555
H	 2.1972727105	 3.5027377376	 3.3861970275	 0.117249
H	 0.9076721896	 2.8398618693	 4.4863474934	 0.120147
52.6165	104.1352	175.0489	228.5311	311.3739	431.7316	475.8291	496.7801	587.9079	665.2751	734.0362	778.6897	794.7086	829.2668	858.2179	872.2155	937.333	953.2575	964.4178	996.3115	1026.834	1062.4331	1070.6929	1078.7681	1086.4894	1126.1719	1141.1146	1195.4443	1200.5586	1221.1275	1231.3772	1269.9865	1332.861	1360.4679	1456.7023	1471.9868	1473.9719	1509.104	1913.892	3071.0247	3122.1611	3124.2819	3134.8816	3141.18	3169.0678	3185.6492	3214.7139	3230.6893
O=C1CC2C(C3CC3)N12	O=C1C[C@H]2[C@@H](C3CC3)N12	
InChI=1S/C7H9NO/c9-6-3-5-7(8(5)6)4-1-2-4/h4-5,7H,1-3H2	InChI=1S/C7H9NO/c9-6-3-5-7(8(5)6)4-1-2-4/h4-5,7H,1-3H2/t5-,7+,8?/m0/s1
