18
gdb 81982	2.45968	1.43501	1.30507	2.9718	75.89	-0.2703	0.0345	0.3049	1069.1991	0.147091	-401.933723	-401.925003	-401.924058	-401.966708	33.139	
C	-0.1117883772	 1.5932789291	-0.0668458604	-0.446942
C	 0.0097251476	 0.0668223965	-0.0495155837	 0.084991
C	-1.2854708869	-0.5427601743	 0.2312063118	 0.240327
N	-2.3083447273	-1.0281084632	 0.4690382394	-0.34685
C	 0.712053555	-0.6330251925	-1.2348319737	-0.068998
C	 2.1460262558	-0.2047004421	-1.3386554148	-0.307918
C	 1.7747892235	-1.2333355688	-0.3098844219	-0.0429
C	 1.1390778872	-0.5725324062	 0.9022512583	 0.055622
O	 1.9880737464	 0.3158340662	 1.5777665483	-0.416066
H	 0.8691636433	 2.0551725219	-0.1844139501	 0.137114
H	-0.7565750343	 1.9187656708	-0.8881332726	 0.135621
H	-0.5476314371	 1.957473958	 0.868490857	 0.12626
H	 0.1824203356	-1.1084783187	-2.0499660362	 0.108515
H	 2.6700326296	-0.5972345673	-2.2038161746	 0.122276
H	 2.4705712605	 0.7845919352	-1.0356601242	 0.130188
H	 2.1952662859	-2.2303999143	-0.3112050025	 0.098235
H	 0.6876806311	-1.3013270437	 1.5833574708	 0.097979
H	 1.5605979514	 0.5937673533	 2.394414859	 0.292546
120.6039	152.6738	165.9537	186.6619	229.3853	292.0833	316.9478	399.6737	447.5734	505.6103	564.7177	587.7893	630.7775	753.7902	801.6051	834.1687	869.9885	935.8365	957.6359	994.6806	1015.0074	1028.8326	1067.8344	1088.3361	1125.3244	1128.4594	1161.5379	1198.4297	1206.4782	1236.6503	1271.6192	1331.2067	1360.5512	1409.2592	1435.4433	1484.1835	1486.5007	1502.8842	2345.1714	3048.9335	3051.1997	3114.3102	3135.9547	3146.3976	3195.2954	3203.4336	3219.9241	3817.975
CC1(C#N)C2CC2C1O	C[C@@]1(C#N)[C@H]2C[C@H]2[C@H]1O	
InChI=1S/C7H9NO/c1-7(3-8)5-2-4(5)6(7)9/h4-6,9H,2H2,1H3	InChI=1S/C7H9NO/c1-7(3-8)5-2-4(5)6(7)9/h4-6,9H,2H2,1H3/t4-,5+,6-,7-/m1/s1
