25
gdb 105516	1.70535	1.61357	1.09212	1.4686	88.25	-0.2587	0.071	0.3296	1295.8101	0.227849	-389.487004	-389.476498	-389.475554	-389.521913	40.224	
C	 0.6723235054	-0.1276791261	 1.3849014164	-0.394798
C	-0.0096591376	-0.0568361971	 0.0128183908	-0.24924
C	-1.4191456103	-0.6689482784	-0.0671647541	 0.38225
C	-1.9170405666	-0.7506260927	-1.5486385009	-0.262122
C	-1.5103421603	-2.2476032828	-1.5883144294	-0.211347
C	-1.3808432177	-2.2349725125	-0.0421662196	-0.269858
C	-2.4040381669	-0.0272531679	 0.9208118011	 0.050332
C	-2.5861180276	 1.4798428142	 0.718454599	-0.412527
O	-3.6560367306	-0.6999496753	 0.7569695475	-0.440546
H	 1.7099109108	 0.2141433506	 1.3169712872	 0.111012
H	 0.1712265823	 0.5001719962	 2.1283277737	 0.11579
H	 0.6869363566	-1.1514572836	 1.7735333448	 0.119854
H	-0.0472087285	 0.986952534	-0.3237781035	 0.093167
H	 0.6193967657	-0.5778356058	-0.7197600262	 0.094605
H	-2.9978584896	-0.6162468388	-1.6158818159	 0.111989
H	-1.4273418903	-0.0814715689	-2.2625101164	 0.081934
H	-2.2404804207	-2.9410294151	-2.01172197	 0.094876
H	-0.5543061169	-2.4128453602	-2.092357002	 0.095374
H	-0.4843543015	-2.6939951899	 0.3845659676	 0.083751
H	-2.2606852664	-2.6498478341	 0.4504814563	 0.115475
H	-2.0336152604	-0.2068659332	 1.94324008	 0.063295
H	-3.3644313848	 1.8623869838	 1.3894027766	 0.099648
H	-1.6693923392	 2.0350378258	 0.9362772244	 0.120501
H	-2.8906762186	 1.6981832251	-0.3098377634	 0.12728
H	-4.2828927463	-0.3075499074	 1.371734566	 0.279306
85.5185	107.3047	123.3572	202.1587	212.5746	235.8251	257.9827	276.04	299.8035	351.5656	373.0984	427.9402	462.2251	553.0762	630.2477	706.2192	781.8071	795.8558	853.5446	865.1211	902.4192	949.4822	953.1434	962.4659	999.9696	1028.6172	1043.4799	1055.7814	1110.0403	1114.1229	1149.1878	1184.9864	1214.0663	1214.935	1256.7253	1264.5235	1277.575	1290.6995	1296.059	1337.478	1366.2481	1376.862	1403.945	1411.3006	1422.3073	1470.996	1482.182	1484.692	1494.7052	1499.3933	1502.9755	1505.165	1513.06	2963.8655	3020.4789	3029.0055	3035.1772	3048.8023	3051.9337	3056.4509	3065.4446	3092.9862	3099.8216	3100.9427	3103.1626	3117.7929	3124.6175	3134.7391	3828.094
CCC1(CCC1)C(C)O	CCC1(CCC1)[C@@H](C)O	
InChI=1S/C8H16O/c1-3-8(7(2)9)5-4-6-8/h7,9H,3-6H2,1-2H3	InChI=1S/C8H16O/c1-3-8(7(2)9)5-4-6-8/h7,9H,3-6H2,1-2H3/t7-/m1/s1
