15
gdb 18496	6.32009	1.17551	1.1052	4.8606	64.09	-0.2559	0.0204	0.2763	1060.8609	0.118094	-399.744431	-399.737112	-399.736168	-399.777255	26.112	
N	-0.0926924398	 1.311386599	 0.0704496618	-0.437369
C	-0.060049013	 0.0509009296	 0.064932252	 0.126677
O	-1.2010060148	-0.6553452416	-0.071260386	-0.1861
C	-1.115762257	-2.0592798007	 0.0431859374	 0.125314
C	-1.5512531337	-2.7319452745	 1.3980081389	-0.294498
C	-2.5765728966	-3.531565252	 0.5842757546	 0.029669
O	-3.456701328	-2.5720056226	 0.0005187281	-0.227871
C	-2.2239698125	-2.8344828747	-0.6693940497	-0.005085
H	 0.8508003266	 1.6825650356	 0.1597694865	 0.229664
H	 0.8364729879	-0.580326309	 0.1515024399	 0.082101
H	-0.1254083544	-2.4137732057	-0.2682127759	 0.091095
H	-0.7535090409	-3.321494201	 1.854574963	 0.110054
H	-1.9944006493	-2.0552339702	 2.1303724157	 0.132424
H	-2.9499518426	-4.5361864721	 0.7376421168	 0.114127
H	-2.2741650619	-3.1427164301	-1.7069429729	 0.109798
39.9729	104.2191	114.3037	287.6074	359.9576	399.1026	512.4004	653.3577	756.9037	817.0078	823.896	852.2887	885.0955	919.7927	946.7144	1019.2474	1024.6697	1033.9112	1044.1082	1076.8904	1131.7505	1175.4309	1207.214	1238.6494	1243.8316	1282.3054	1292.6105	1384.6735	1387.4925	1429.4813	1466.4984	1748.2262	3008.2757	3033.6943	3077.6841	3141.782	3189.4572	3207.6171	3519.2001
N=COC1CC2OC12	[NH][CH]O[C@H]1C[C@H]2O[C@@H]12	
InChI=1S/C5H7NO2/c6-2-7-3-1-4-5(3)8-4/h2-6H,1H2	InChI=1S/C5H7NO2/c6-2-7-3-1-4-5(3)8-4/h2-6H,1H2/t3-,4+,5-/m0/s1
