13
gdb 20693	3.87795	1.99569	1.32844	4.2598	63.25	-0.2561	-0.0793	0.1768	861.7276	0.096935	-394.820621	-394.813814	-394.81287	-394.851966	24.577	
C	-0.0268243089	 1.4961192625	 0.0107291985	-0.482344
C	 0.0022831891	-0.0055844811	-0.0146454133	 0.326191
N	-0.0346588704	-0.6156930933	-1.163626987	-0.356363
C	-0.0074623394	-2.0095669404	-1.1874445156	 0.451661
O	-0.0369069785	-2.6885243104	-2.1862522924	-0.366931
N	 0.0590994561	-2.6253111694	 0.0797011387	-0.253148
N	 0.0977466328	-2.0258302068	 1.2634831909	-0.138211
C	 0.0702595436	-0.7260767713	 1.2318670141	-0.047131
H	 0.8683209382	 1.8891146748	 0.5060603651	 0.146583
H	-0.0786239671	 1.8842004627	-1.006282388	 0.159224
H	-0.8908662422	 1.8537562651	 0.5822173035	 0.146559
H	 0.0800465173	-3.6365203307	 0.0955736157	 0.28403
H	 0.1009487592	-0.2157283115	 2.1873051296	 0.129882
99.5433	122.9288	204.9124	310.4556	421.0311	506.7241	539.45	589.15	625.7559	733.6002	737.2709	804.125	884.2294	923.1707	989.8505	1053.6861	1061.3015	1130.7362	1199.0845	1285.7914	1396.9112	1421.3261	1426.1368	1466.5351	1478.0127	1570.8896	1653.7873	1825.1178	3037.6297	3093.063	3159.937	3202.8912	3594.5924
CC1=NC(=O)NN=C1	Cc1nc(=O)[nH]nc1	
InChI=1S/C4H5N3O/c1-3-2-5-7-4(8)6-3/h2H,1H3,(H,6,7,8)	InChI=1S/C4H5N3O/c1-3-2-5-7-4(8)6-3/h2H,1H3,(H,6,7,8)
