21
gdb 102500	2.08118	1.18933	0.83813	2.6977	80.86	-0.2455	0.0521	0.2976	1412.3638	0.179389	-424.177018	-424.166009	-424.165064	-424.212991	39.999	
C	-0.2697783517	 1.4119799078	-0.0541453304	-0.408198
C	 0.0755179737	-0.0942826979	-0.0542082132	-0.136299
C	 0.913107382	-0.378956142	-1.2225498097	 0.312916
C	 1.6330181322	-0.536378461	-2.1741147013	-0.467825
C	 0.7759577543	-0.5975817004	 1.2467741768	-0.033105
C	 0.2299350154	 0.0722606489	 2.5113606045	-0.104337
O	 0.920012918	-0.4795767068	 3.6244095498	-0.422296
C	 0.6532424984	-2.1298308768	 1.4004042616	-0.050178
O	 0.8204518225	-2.8665417646	 0.2030445669	-0.425131
H	 0.6237450395	 2.0208664423	 0.1139588344	 0.127735
H	-0.6895129086	 1.6959180803	-1.0223936715	 0.128093
H	-1.0067046767	 1.6519647679	 0.7166760204	 0.117914
H	-0.8615305897	-0.6565985704	-0.1644244997	 0.114437
H	 2.2448057256	-0.6945284854	-3.0276368222	 0.19595
H	 1.8390959253	-0.3319693772	 1.1760846488	 0.088169
H	 0.3795010102	 1.1592762722	 2.4653304233	 0.09465
H	-0.8558645987	-0.1116094447	 2.5869049382	 0.086981
H	 0.5836649503	-0.0637614825	 4.4232645812	 0.289066
H	 1.3479019567	-2.4620365512	 2.1816057934	 0.110778
H	-0.3596506297	-2.3701235416	 1.7490276068	 0.097989
H	 1.591454471	-2.5273417469	-0.2638611081	 0.28269
61.7302	88.4323	125.1732	158.5078	206.6556	227.246	231.2936	262.8397	286.5426	311.1399	332.6731	406.6524	412.2666	490.4851	553.9397	582.207	624.2571	639.8916	796.7966	871.3967	922.5061	977.0151	1022.3456	1046.3079	1078.5571	1100.6035	1105.262	1116.7444	1154.307	1220.5565	1240.5214	1269.2056	1314.4554	1320.3099	1341.2805	1370.971	1382.2956	1409.9495	1435.3733	1461.8526	1495.5094	1501.6834	1511.03	1526.7699	2224.8812	2953.6441	3011.0473	3017.9688	3018.8017	3029.9693	3044.8079	3058.8076	3118.3376	3122.5725	3503.0564	3808.7552	3834.2722
CC(C#C)C(CO)CO	C[C@@H](C#C)C(CO)CO	
InChI=1S/C7H12O2/c1-3-6(2)7(4-8)5-9/h1,6-9H,4-5H2,2H3	InChI=1S/C7H12O2/c1-3-6(2)7(4-8)5-9/h1,6-9H,4-5H2,2H3/t6-/m0/s1
