23
gdb 64234	2.92193	0.92211	0.8577	2.8405	86.85	-0.2455	-0.0181	0.2275	1480.6226	0.20339	-388.300861	-388.290668	-388.289724	-388.336486	37.769	
C	-0.0734254262	 1.545221865	-0.0933067514	-0.434582
C	-0.0180483042	 0.0157392016	-0.0391564712	 0.315017
C	-1.4047474092	-0.579583959	-0.2627083686	-0.452882
C	 1.1368597857	-0.5464349054	-0.9306243249	-0.25221
C	 2.0435160881	-0.6356302829	 0.3238259799	-0.238739
C	 0.7691203625	-0.542505313	 1.2038527978	 0.003243
C	 0.8141432265	 0.2450701724	 2.5165627471	-0.309035
C	 1.6086678531	-0.4960946333	 3.5673899138	 0.164166
O	 2.5995046979	-0.0805121791	 4.1107491665	-0.240976
H	 0.9127992623	 1.9998949613	 0.0435673616	 0.115628
H	-0.4541031768	 1.8736378631	-1.0668964246	 0.113061
H	-0.7393466399	 1.9522353604	 0.6758047842	 0.112212
H	-1.8154103924	-0.271169855	-1.2313689026	 0.114497
H	-1.3759177064	-1.6743084481	-0.2460828648	 0.108813
H	-2.1093240025	-0.2505808226	 0.510960823	 0.110601
H	 0.8940116198	-1.534456977	-1.3327504749	 0.09663
H	 1.4762197396	 0.0888110292	-1.7532573968	 0.095279
H	 2.6681865173	-1.5247089733	 0.43577922	 0.100844
H	 2.6823068173	 0.2453265818	 0.4371566177	 0.109416
H	 0.3993241908	-1.5544597637	 1.4140770153	 0.069589
H	 1.2527816	 1.2376493992	 2.3856138182	 0.117786
H	-0.2097528957	 0.3653909221	 2.901361471	 0.113933
H	 1.2071223623	-1.5095157337	 3.8097250235	 0.06771
48.0344	68.9039	119.4741	163.8574	218.0748	251.7002	270.2807	288.9879	347.8793	358.0689	427.5774	462.3456	538.9577	594.0136	725.6411	760.6697	841.7921	871.0309	910.4102	923.7846	948.8912	959.9463	984.5603	993.5983	1033.1492	1055.424	1112.1885	1140.3955	1184.3578	1199.0753	1221.4408	1233.3648	1249.1779	1274.0194	1277.7326	1297.4155	1321.1056	1388.5776	1401.6038	1418.9004	1429.3801	1462.392	1479.7743	1483.8785	1491.9965	1499.908	1505.0901	1507.2456	1833.7329	2843.028	3005.3836	3015.8222	3018.768	3027.0623	3050.6356	3059.1689	3080.6618	3090.1622	3090.9058	3097.3896	3098.7996	3105.434	3114.8699
CC1(C)CCC1CC=O	CC1(C)CC[C@H]1CC=O	
InChI=1S/C8H14O/c1-8(2)5-3-7(8)4-6-9/h6-7H,3-5H2,1-2H3	InChI=1S/C8H14O/c1-8(2)5-3-7(8)4-6-9/h6-7H,3-5H2,1-2H3/t7-/m0/s1
