16
gdb 11877	4.78729	1.54744	1.34127	4.3927	64.52	-0.2623	0.0152	0.2774	921.8894	0.131634	-383.774169	-383.7673	-383.766355	-383.805411	26.256	
O	-0.1917419624	 0.0707331779	 0.6278328475	-0.333265
C	-0.1453860775	 1.2328113373	 0.3522696949	 0.437281
C	-1.2094063041	 2.0940300999	-0.3263553291	-0.450921
C	-0.7354611403	 3.5057200533	-0.0482924491	 0.336023
C	-1.3291309168	 4.7416973598	-0.6540019245	-0.326485
C	-1.5300028783	 4.4506489883	 0.8160806766	-0.303545
C	 0.7655547608	 3.3468032013	 0.1488448956	-0.141102
O	 0.9500630416	 2.0006667051	 0.6169302559	-0.21825
H	-1.2057484841	 1.8526046174	-1.3971378705	 0.138395
H	-2.1985760129	 1.8507441063	 0.0647528989	 0.140743
H	-0.6577649878	 5.5505464017	-0.9259334567	 0.118655
H	-2.1765822681	 4.6274642238	-1.3216683745	 0.121854
H	-2.5143898211	 4.1339094933	 1.1445914864	 0.1219
H	-0.9943594366	 5.0619827211	 1.5351676154	 0.11998
H	 1.3223736624	 3.4667638526	-0.7896446804	 0.115134
H	 1.1846266453	 4.0266978011	 0.8951292637	 0.123603
82.413	171.5076	253.3171	329.0521	371.9392	472.2102	521.1002	565.7912	691.1055	778.8013	791.8085	838.1494	885.8512	903.056	956.0101	990.5216	1002.7492	1056.6271	1063.7858	1078.6522	1091.2012	1152.8904	1180.899	1188.1819	1228.2593	1261.7433	1303.969	1361.2734	1414.5786	1463.0614	1468.9516	1506.4259	1522.6207	1887.5875	3020.4989	3035.6233	3093.4178	3119.4749	3124.4975	3128.7687	3203.629	3218.586
O=C1CC2(CC2)CO1	O=C1CC2(CC2)CO1	
InChI=1S/C6H8O2/c7-5-3-6(1-2-6)4-8-5/h1-4H2	InChI=1S/C6H8O2/c7-5-3-6(1-2-6)4-8-5/h1-4H2
