23
gdb 120513	5.56473	0.63514	0.61522	0.9242	93.69	-0.2526	0.0515	0.3042	1900.2413	0.204375	-351.121228	-351.111033	-351.110088	-351.156891	37.932	
C	-0.4489711204	 1.7178260961	 0.6368089967	-0.379635
C	-0.145630869	 0.3008613769	 0.1420752847	-0.166697
C	-1.405918895	-0.5481192242	-0.0608057895	-0.173115
C	-1.118865868	-1.9703424612	-0.5438123347	 0.007331
C	-0.5597207443	-2.9347556425	 0.5450675447	-0.237184
C	-1.9918372375	-3.5402867344	 0.7154276583	-0.14262
C	-2.379201409	-2.8772127733	-0.6473340446	-0.250427
C	-2.1286303916	-4.9745313082	 0.8557941362	 0.299779
C	-2.2290530854	-6.1697366196	 0.9517683509	-0.451766
H	 0.4678571688	 2.301478687	 0.7658968429	 0.111621
H	-1.0893567252	 2.2559971538	-0.0709875846	 0.11369
H	-0.9690433721	 1.6976506514	 1.6011224086	 0.113453
H	 0.4074878911	 0.3526254611	-0.8051522259	 0.094872
H	 0.5227961743	-0.1991823918	 0.8547272936	 0.098052
H	-1.9758681397	-0.5836424735	 0.8791933891	 0.090158
H	-2.0612190902	-0.0522038894	-0.7905505108	 0.091975
H	-0.5180304976	-1.9240344976	-1.4576202621	 0.066504
H	 0.1343394407	-3.6718028873	 0.1356874469	 0.11052
H	-0.1124734777	-2.4880103101	 1.4367761485	 0.101575
H	-2.5151726527	-3.0406719238	 1.537185768	 0.10141
H	-3.3514607571	-2.3787802426	-0.6871091585	 0.100045
H	-2.3143725281	-3.5943671208	-1.4683624814	 0.109484
H	-2.3218529842	-7.223330216	 1.0427800931	 0.190975
49.4146	88.4852	99.693	140.4879	186.7394	213.0256	249.2757	308.716	365.4474	430.2394	512.258	517.2013	608.3772	622.2706	631.7689	743.7693	812.1582	831.7798	863.3886	891.8082	917.1671	943.3794	971.6597	983.3388	1047.5804	1054.4523	1074.2142	1101.9362	1139.2956	1141.8876	1222.5046	1225.3079	1250.1219	1260.1969	1271.4563	1281.2039	1310.6826	1333.0171	1350.8941	1375.3477	1399.0286	1413.2311	1472.3	1483.1544	1493.2948	1495.8989	1499.9652	1510.3683	2231.0606	2997.9389	3017.9228	3024.7552	3028.9919	3046.1323	3048.4239	3057.0006	3060.3033	3065.5094	3095.3851	3101.4814	3118.6547	3121.9154	3505.5507
CCCC1CC(C1)C#C	CCC[C@H]1C[C@@H](C1)C#C	
InChI=1S/C9H14/c1-3-5-9-6-8(4-2)7-9/h2,8-9H,3,5-7H2,1H3	InChI=1S/C9H14/c1-3-5-9-6-8(4-2)7-9/h2,8-9H,3,5-7H2,1H3/t8-,9-
