16
gdb 123830	3.59595	1.54507	1.12197	3.6199	70.08	-0.2451	-0.002	0.2431	1024.3426	0.128339	-434.068631	-434.061895	-434.060951	-434.099829	26.257	
C	-0.0022330803	 1.415863236	 0.0126786146	-0.083046
C	 1.4414251282	 1.9545389027	 0.0034904623	-0.329953
C	 2.1774959386	 1.2161705139	-1.0654780526	 0.266664
C	 1.6950604594	 0.0518447588	-1.6080631191	 0.278625
C	 0.4082004638	-0.593256059	-1.20066922	-0.189518
O	-0.0427886811	-0.0101358031	 0.0087935593	-0.24441
N	 2.6212527074	-0.2844060414	-2.5334762761	-0.287642
N	 3.6313211459	 0.619656469	-2.5617076102	-0.120936
N	 3.3588826847	 1.5278659614	-1.6699280086	-0.273656
H	-0.5322769193	 1.7211556842	 0.9177364865	 0.117593
H	-0.5517353695	 1.8100485317	-0.8569586749	 0.097647
H	 1.4380350828	 3.0337856527	-0.1827347808	 0.123793
H	 1.908118748	 1.7967766865	 0.98317628	 0.126409
H	-0.3514949938	-0.4845988468	-1.9946994841	 0.111105
H	 0.5242781418	-1.6641622802	-1.0004922126	 0.129528
H	 2.6565707136	-1.0741194163	-3.1579545838	 0.277797
114.7372	220.8391	287.0071	330.13	376.1993	456.8567	524.2386	549.9175	680.7467	706.5607	732.0339	749.2331	855.5672	947.1804	978.1283	1026.3167	1029.3029	1039.9527	1092.061	1116.8584	1196.8781	1214.7456	1236.2598	1244.5212	1288.6311	1322.5821	1350.3115	1375.8744	1388.3877	1423.0636	1476.3757	1489.5579	1497.946	1518.3939	1625.3101	2949.4725	2982.809	3035.9851	3061.0628	3080.6654	3104.2581	3657.4708
C1CC2=C(CO1)NN=N2	C1Cc2c(CO1)[nH]nn2	
InChI=1S/C5H7N3O/c1-2-9-3-5-4(1)6-8-7-5/h1-3H2,(H,6,7,8)	InChI=1S/C5H7N3O/c1-2-9-3-5-4(1)6-8-7-5/h1-3H2,(H,6,7,8)
