21
gdb 52681	1.92332	1.20592	0.8436	1.6127	87.47	-0.2437	0.0589	0.3027	1475.0557	0.179119	-387.051633	-387.040671	-387.039727	-387.089524	38.052	
C	-0.0603610626	 1.4800493444	 0.1650268676	-0.500328
C	-0.0480524206	 0.024683654	 0.1119636597	 0.076282
C	-0.0174060389	-1.1780654433	 0.0576696675	 0.079913
C	-0.093749405	-2.6374914184	 0.0076075238	-0.210194
C	-1.5417277411	-3.0719345241	-0.3233786559	-0.385548
C	 0.8726214051	-3.3082955179	-0.9746642573	 0.086096
O	 1.2927084351	-2.6029693415	-2.1392549121	-0.253039
C	 2.2970487599	-3.0085467237	-1.1954217131	 0.06273
C	 3.1044919379	-1.9450302331	-0.4973663828	-0.433089
H	 0.5913403283	 1.9097551611	-0.603735138	 0.151078
H	-1.0690128385	 1.8753663102	 0.0011986657	 0.147534
H	 0.2851645	 1.8486440063	 1.1373012489	 0.145305
H	 0.151285549	-3.036473585	 1.0037142209	 0.107336
H	-1.6338144871	-4.1621352943	-0.2862813831	 0.111602
H	-2.2447989622	-2.6396273808	 0.392380893	 0.123779
H	-1.8194839542	-2.7331322349	-1.3253110063	 0.138087
H	 0.5695380381	-4.3400445637	-1.1756568195	 0.081876
H	 2.8970989658	-3.8477478139	-1.5580771453	 0.083825
H	 2.4750717985	-1.1418629759	-0.1165417721	 0.147588
H	 3.6587899121	-2.3897841155	 0.3369602782	 0.11531
H	 3.8375349203	-1.51851553	-1.1907366798	 0.123857
27.8048	30.9751	83.855	127.2479	173.6727	199.1863	227.2906	262.9149	279.9879	307.8328	379.5765	409.8556	490.5463	545.746	626.9973	705.0769	781.297	822.5571	925.9507	960.8755	1012.833	1026.8303	1051.6411	1053.6516	1067.8449	1082.0175	1118.2505	1171.267	1177.4852	1203.961	1297.8822	1308.8612	1354.8755	1392.7692	1404.8484	1414.1947	1424.0415	1468.7094	1478.5186	1479.1168	1492.2537	1497.9995	1500.6495	1510.3538	2369.0589	2989.9382	3026.3078	3036.6237	3040.1157	3056.7049	3071.7486	3086.1137	3087.9228	3092.63	3114.923	3128.9498	3163.1636
CC#CC(C)C1OC1C	CC#C[C@@H](C)[C@H]1O[C@H]1C	
InChI=1S/C8H12O/c1-4-5-6(2)8-7(3)9-8/h6-8H,1-3H3	InChI=1S/C8H12O/c1-4-5-6(2)8-7(3)9-8/h6-8H,1-3H3/t6-,7+,8-/m1/s1
