14
gdb 12041	3.96158	1.75447	1.5658	2.8262	61.31	-0.2572	0.0131	0.2703	823.909	0.107353	-378.681403	-378.674344	-378.673399	-378.712465	26.743	
N	 0.0856031275	 1.4608899271	-0.0117381216	-0.554716
C	 0.0415754809	 0.0124634162	-0.0029606207	 0.134359
C	 0.2497515363	-0.6449813643	 1.4266621876	-0.287127
C	-1.1444566781	-1.2600059443	 1.3045996628	 0.046949
O	-2.0633515982	-0.1744863236	 1.0834456227	-0.249901
C	-1.3561382885	-0.7012236621	-0.0357309166	-0.021097
C	 0.9481612353	-0.5380135576	-1.0078794557	 0.257518
N	 1.6282555697	-0.9980296932	-1.821288433	-0.3301
H	-0.0734199729	 1.8202667302	-0.9488476265	 0.24124
H	-0.6733681868	 1.7947125902	 0.577776048	 0.248857
H	 1.0592470411	-1.3761136911	 1.4340690111	 0.140766
H	 0.3860962539	 0.0766942907	 2.2342483845	 0.129345
H	-1.5404281938	-2.1590986997	 1.7585480261	 0.121362
H	-1.9250550463	-1.0442128986	-0.8921797885	 0.122546
132.3922	169.5033	219.5478	301.8596	360.2568	413.3366	500.1164	539.2953	559.0842	666.8254	780.7197	830.5073	856.746	865.2633	927.4371	953.7079	967.9866	1018.5929	1033.9418	1058.0498	1121.6018	1211.0021	1225.5996	1248.5436	1266.198	1354.3284	1381.1794	1468.0244	1651.2712	2358.1269	3082.5178	3147.9013	3188.2784	3212.8205	3481.3676	3568.5981
NC1(CC2OC12)C#N	N[C@]1(C[C@H]2O[C@@H]12)C#N	
InChI=1S/C5H6N2O/c6-2-5(7)1-3-4(5)8-3/h3-4H,1,7H2	InChI=1S/C5H6N2O/c6-2-5(7)1-3-4(5)8-3/h3-4H,1,7H2/t3-,4-,5-/m1/s1
