19
gdb 38816	3.10775	1.7851	1.45965	1.6424	79.36	-0.1961	0.0299	0.2261	948.4135	0.163145	-382.047328	-382.040521	-382.039577	-382.078468	28.008	
C	 0.4619017293	 1.5068453706	 0.5463541894	-0.204318
C	 1.6092046722	 1.931870841	-0.3305336789	-0.067972
C	 2.0286068057	 0.9279831523	-1.0919887503	-0.064382
C	 1.2256564595	-0.3173675457	-0.8276824747	-0.031837
C	 1.931958902	-1.4548088283	-0.088374321	-0.056992
N	 2.3698041282	-1.059927264	 1.2653156016	-0.332262
C	 1.1055446471	-1.8040636065	 1.0909582596	-0.036186
C	-0.1056835523	-0.88328358	 1.1030088855	-0.17724
N	 0.1612116895	 0.1429118442	 0.0935454098	-0.07605
H	 0.7482417486	 1.5407000185	 1.6100618189	 0.104585
H	-0.4095182321	 2.1708160492	 0.4314630646	 0.094096
H	 2.0165287416	 2.9355216972	-0.3095941299	 0.095595
H	 2.8401664069	 0.9565840517	-1.8086699437	 0.092651
H	 0.8020419374	-0.7344580269	-1.7566971898	 0.070903
H	 2.4932272833	-2.2009261964	-0.6422914797	 0.080569
H	 3.0958599037	-1.6979463158	 1.5817914658	 0.229405
H	 1.0238232034	-2.8220242445	 1.4599264643	 0.082825
H	-1.0068776052	-1.4638152062	 0.8555876958	 0.092902
H	-0.2707646787	-0.4235380003	 2.0835766827	 0.103708
97.1245	177.8463	330.738	378.2412	393.4019	468.9517	598.2918	666.7324	675.8487	731.7156	798.5425	822.0303	870.1257	875.5044	886.1	930.6413	951.8391	959.5531	980.785	1012.5234	1030.7595	1052.9729	1087.5042	1108.9378	1127.3457	1145.1891	1160.5986	1168.4834	1209.4269	1245.8094	1267.5548	1308.8322	1321.0459	1346.2173	1357.0615	1366.7526	1384.7936	1427.3785	1497.0178	1514.4689	1696.2708	2950.9323	2964.6166	2978.741	2991.5596	3061.7915	3151.9283	3163.2769	3196.0171	3221.1989	3501.4856
C1C=CC2C3NC3CN12	C1C=C[C@H]2[C@H]3N[C@H]3CN12	
InChI=1S/C7H10N2/c1-2-6-7-5(8-7)4-9(6)3-1/h1-2,5-8H,3-4H2	InChI=1S/C7H10N2/c1-2-6-7-5(8-7)4-9(6)3-1/h1-2,5-8H,3-4H2/t5-,6-,7-/m0/s1
