14
gdb 51701	3.7757	1.02696	0.89144	4.9713	60.7	-0.291	-0.0032	0.2878	1252.6197	0.101104	-511.004323	-510.996435	-510.995491	-511.038283	27.148	
N	-0.1294466971	 1.2395953096	-0.28285564	-0.421424
C	-0.0591172154	-0.0007876203	-0.0954886505	 0.130706
O	-1.1984672904	-0.7468578835	-0.1635174892	-0.188444
C	-1.0501259274	-2.131603724	-0.0045402537	 0.169222
C	-2.4429133551	-2.770484895	 0.0493941252	-0.125397
O	-2.6077616605	-3.3305870439	-1.2521175705	-0.234384
C	-1.4291013825	-3.3239239566	-1.9179988087	 0.501038
O	-1.24173775	-3.7838012878	-2.9938371751	-0.356038
O	-0.4644849659	-2.718606868	-1.1524216749	-0.238342
H	 0.7910175268	 1.6639933652	-0.1883825417	 0.241245
H	 0.8366322696	-0.5911841147	 0.1315398306	 0.109085
H	-0.4086302402	-2.359357755	 0.8519071281	 0.115349
H	-2.5047008595	-3.5655611637	 0.7974843065	 0.137129
H	-3.2153782725	-2.0215771324	 0.2250859338	 0.160255
51.731	93.218	109.5115	162.7104	221.7275	389.1214	447.6568	548.3342	632.9053	735.296	768.0104	816.5893	829.7868	894.4834	919.9073	1005.0458	1041.4411	1046.143	1081.3728	1095.2366	1147.2223	1161.9602	1241.0952	1269.3666	1364.0484	1383.8171	1411.285	1433.2141	1510.1727	1759.1513	1945.7854	3050.2166	3066.8443	3077.974	3144.6594	3522.5223
N=COC1COC(=O)O1	[NH][CH]O[C@H]1COC(=O)O1	
InChI=1S/C4H5NO4/c5-2-8-3-1-7-4(6)9-3/h2-3,5H,1H2	InChI=1S/C4H5NO4/c5-2-8-3-1-7-4(6)9-3/h2-3,5H,1H2/t3-/m1/s1
