18
gdb 32666	2.85744	1.48662	1.05987	3.6791	82.4	-0.2108	-0.034	0.1768	1145.3274	0.14983	-402.026826	-402.018826	-402.017882	-402.059543	30.6	
C	-0.0792561516	 1.5564973865	 0.0090733906	-0.378392
C	 0.0706911705	 0.0351002899	-0.0127088583	-0.157704
N	 0.7690435678	-0.4781284456	 1.1727480071	-0.125661
C	 2.0992857221	-0.7621746632	 1.1215752008	 0.051698
C	 2.7830402884	-1.2275028974	 2.2034093573	-0.209819
C	 2.0662261756	-1.4165810611	 3.4141918642	-0.054521
C	 0.7350602612	-1.1370613408	 3.4855026359	-0.238124
C	-0.0080008915	-0.6298455846	 2.3527784572	 0.432241
O	-1.1973316052	-0.3379851252	 2.3414401307	-0.42361
H	 0.8967091631	 2.0511173907	 0.0414018188	 0.116344
H	-0.6037487597	 1.8919657848	-0.8908029047	 0.120525
H	-0.6608116161	 1.8599022837	 0.8817754743	 0.157767
H	-0.9149132913	-0.4335480482	-0.026815304	 0.146822
H	 0.6296479549	-0.2941394419	-0.8930961277	 0.106449
H	 2.5738524843	-0.5964433459	 0.16099437	 0.126565
H	 3.8389427724	-1.4468266857	 2.1251264365	 0.105449
H	 2.5883909398	-1.7899336695	 4.2901559528	 0.109268
H	 0.1638797652	-1.2722391964	 4.3956283684	 0.114706
81.7768	114.6716	186.0655	233.3005	333.1561	369.1481	437.98	492.3575	535.3208	570.1046	600.0786	728.4983	752.5994	765.5267	789.3566	866.4015	871.0962	929.9291	977.7304	1002.1799	1025.6704	1081.8562	1110.7407	1146.5739	1177.1349	1198.86	1236.4501	1289.0277	1378.7951	1390.8431	1409.2484	1431.3737	1468.2133	1489.9168	1501.1626	1508.8796	1573.5919	1660.6132	1752.7409	3043.7554	3064.5324	3107.9557	3126.9957	3144.8247	3173.86	3193.0354	3215.0231	3229.0162
CCN1C=CC=CC1=O	CCn1ccccc1=O	
InChI=1S/C7H9NO/c1-2-8-6-4-3-5-7(8)9/h3-6H,2H2,1H3	InChI=1S/C7H9NO/c1-2-8-6-4-3-5-7(8)9/h3-6H,2H2,1H3
