18
gdb 93286	2.12077	1.8544	1.24528	4.2182	71.96	-0.2397	0.0108	0.2505	1053.7571	0.148384	-439.110178	-439.101857	-439.100912	-439.143156	31.389	
C	-0.1188019356	 1.5669197328	-0.0536971445	-0.397172
C	 0.007292775	 0.0390279821	 0.0095889942	-0.096993
C	 0.8895101938	-0.5082980414	-1.1486123801	-0.185298
N	 2.2014834767	-0.6529095077	-0.5325732003	-0.328431
C	 2.1969325697	-0.7102470104	 0.832900883	 0.371723
O	 3.1362469446	-0.9392386611	 1.5616154181	-0.379703
C	 0.7592065247	-0.4335767432	 1.2469692774	 0.318367
C	 0.4267826652	-0.1576618271	 2.6447154265	-0.241677
O	 0.1791111743	-1.4464166467	 2.0793520967	-0.271334
H	 0.867679603	 2.0427786823	-0.0438097347	 0.130001
H	-0.6325613582	 1.8755012575	-0.9695634797	 0.119413
H	-0.6865969366	 1.9535332225	 0.797317538	 0.123253
H	-0.9845198603	-0.4188291814	-0.0113690177	 0.100214
H	 0.5131767604	-1.4694539061	-1.5227617469	 0.117258
H	 0.9275781132	 0.1901152762	-1.9907542347	 0.113255
H	 3.0253686537	-0.9196227973	-1.0483148211	 0.255251
H	 1.2366258026	-0.1192213466	 3.3706320522	 0.138743
H	-0.4609415164	 0.4283933854	 2.8786334235	 0.113131
67.5592	154.0273	200.0533	244.2792	258.6524	274.1545	327.3222	474.9643	485.8707	539.9137	582.0013	699.0748	723.2159	756.3516	838.8595	873.001	903.2675	958.0562	978.3694	1019.3075	1058.1168	1100.2447	1127.7037	1147.5249	1164.0174	1185.388	1234.4566	1259.9001	1302.4688	1339.5336	1357.9822	1408.5842	1423.307	1454.6853	1496.3752	1499.5897	1516.9547	1533.305	1838.7466	3013.4892	3035.953	3066.6922	3081.6526	3086.1318	3107.1082	3114.0213	3182.3008	3638.5543
CC1CNC(=O)C11CO1	C[C@H]1CNC(=O)[C@]21CO2	
InChI=1S/C6H9NO2/c1-4-2-7-5(8)6(4)3-9-6/h4H,2-3H2,1H3,(H,7,8)	InChI=1S/C6H9NO2/c1-4-2-7-5(8)6(4)3-9-6/h4H,2-3H2,1H3,(H,7,8)/t4-,6+/m0/s1
