19
gdb 32944	3.42426	0.99845	0.9179	2.4113	78.91	-0.2217	0.0062	0.2278	1374.7256	0.159808	-419.238596	-419.229305	-419.22836	-419.273899	32.929	
C	 1.1883743156	 0.7544271374	-0.4803068588	-0.316389
N	-0.0462174971	 0.172581422	 0.0385332771	-0.270806
C	-0.673796553	-0.7965636553	-0.8580792752	-0.273759
C	 0.1413070427	-2.017358437	-1.1690721449	 0.366391
N	 0.6572756903	-2.3937659663	-2.2955235485	-0.29884
C	 1.3298260751	-3.5737233638	-1.9952532778	-0.198594
C	 1.1921003852	-3.8568128663	-0.6776024141	 0.32404
C	 1.6617113891	-4.9403803561	 0.2204195021	-0.495195
O	 0.4240330208	-2.8577489432	-0.1318050016	-0.212302
H	 1.9717560808	 0.0235773379	-0.7395087771	 0.108368
H	 0.962606513	 1.3287679948	-1.3856330983	 0.126767
H	 1.5956646834	 1.4470020413	 0.2618373481	 0.118368
H	 0.1331534957	-0.2717388316	 0.9329963343	 0.223285
H	-1.6264811612	-1.1032367426	-0.4107073679	 0.119859
H	-0.8952208291	-0.3100529806	-1.8124759314	 0.13661
H	 1.8644496708	-4.1312904465	-2.7482675692	 0.118199
H	 2.2538168203	-5.6597201246	-0.3497920078	 0.141698
H	 2.2862788265	-4.54982735	 1.0317994943	 0.140378
H	 0.8226118712	-5.4749052095	 0.6797222466	 0.141922
29.4217	86.9413	131.5721	146.8529	205.492	226.561	289.8683	328.9489	401.9218	468.9062	624.5547	650.8349	700.3781	742.0346	810.0491	849.6707	919.145	958.1633	982.711	1001.4494	1036.4965	1067.6457	1116.2615	1142.3141	1159.7844	1185.144	1222.189	1252.0814	1311.757	1357.25	1372.3512	1419.0203	1455.2135	1465.2373	1472.6457	1487.6473	1491.2137	1495.626	1519.0746	1602.5493	1649.1272	2972.1978	3031.934	3039.9664	3061.6286	3083.3204	3101.9834	3106.7709	3129.1367	3260.2546	3524.2597
CNCC1=NC=C(C)O1	CNCc1ncc(C)o1	
InChI=1S/C6H10N2O/c1-5-3-8-6(9-5)4-7-2/h3,7H,4H2,1-2H3	InChI=1S/C6H10N2O/c1-5-3-8-6(9-5)4-7-2/h3,7H,4H2,1-2H3
