15
gdb 32489	6.73897	0.85743	0.76436	4.5187	75.04	-0.231	-0.0583	0.1726	1412.1854	0.111959	-457.787075	-457.778952	-457.778008	-457.820181	29.086	
C	-0.0254365405	 1.4033661755	 0.0347739435	-0.255004
O	-0.0064972877	-0.0153074411	 0.0204088006	-0.256274
C	 0.6006249786	-0.5733930363	-1.0450810797	 0.360624
C	 1.2087021899	 0.0127234613	-2.1288523039	-0.15224
O	 1.6896071806	-0.9394648125	-2.9657484658	-0.161868
C	 1.3892295625	-2.1466378402	-2.4179764012	 0.301204
C	 1.7896143699	-3.3621844421	-3.10965121	 0.074369
O	 2.3847100211	-3.4101856196	-4.1621936664	-0.27841
C	 0.7189880791	-1.9781975001	-1.233597793	-0.395482
H	 0.9938851581	 1.8113756349	 0.0432332855	 0.128113
H	-0.5633890279	 1.7995225685	-0.8365674203	 0.128113
H	-0.5433560895	 1.6995121503	 0.9474780087	 0.144037
H	 1.3696866342	 1.0336030882	-2.4282100062	 0.14685
H	 1.4866416949	-4.2808530625	-2.5608512291	 0.078881
H	 0.3540311166	-2.7518545242	-0.5766224026	 0.137087
76.7975	131.0915	153.4303	219.8351	259.4504	282.3074	379.6045	386.1086	568.8635	638.1616	659.4468	669.7977	738.5908	785.2537	833.764	953.8619	998.8678	1018.2437	1064.5768	1167.0174	1181.5268	1191.6917	1215.8194	1268.8292	1353.5675	1406.9002	1421.6296	1475.0773	1487.6958	1506.2736	1554.5268	1646.2709	1790.4003	2890.4132	3003.8821	3063.1301	3145.3853	3265.0988	3290.9454
COC1=COC(C=O)=C1	COc1coc(C=O)c1	
InChI=1S/C6H6O3/c1-8-6-2-5(3-7)9-4-6/h2-4H,1H3	InChI=1S/C6H6O3/c1-8-6-2-5(3-7)9-4-6/h2-4H,1H3
