22
gdb 88591	2.72806	1.10132	0.93832	2.514	83.81	-0.2129	0.0693	0.2822	1367.897	0.192707	-404.292323	-404.282281	-404.281337	-404.327976	37.207	
C	-0.6668751869	 3.1095145136	 0.6296062985	-0.415547
C	-1.078116794	 1.6525340391	 0.6561992139	-0.077883
C	-0.1326957359	 0.5653881619	 0.1900685144	 0.064409
O	 1.1885783415	 0.8936773063	-0.1327015203	-0.412022
C	-0.4970562017	 0.6509084599	 1.6505249163	-0.066108
C	 0.5191359151	 1.0574310431	 2.6729428646	 0.023701
C	 0.1814057923	 1.0155855532	 4.1279999519	-0.268608
N	 1.1659493631	 0.0957662429	 3.5725375172	-0.085437
C	 0.8214577976	-1.3153646419	 3.5056397873	-0.309303
H	 0.4186989711	 3.2237034133	 0.6674680497	 0.130892
H	-1.0182916206	 3.5892615725	-0.2909200043	 0.110583
H	-1.094859759	 3.6618436331	 1.4725610743	 0.122727
H	-2.1253228776	 1.4861095152	 0.4151875564	 0.082697
H	-0.544837086	-0.2624109837	-0.3875839333	 0.081996
H	 1.1883935897	 1.3217417694	-0.9954413756	 0.289678
H	-1.2007196692	-0.1012321776	 1.9915604705	 0.083884
H	 1.210347517	 1.8225345828	 2.3343001469	 0.097438
H	 0.5567872551	 1.7690900484	 4.8165979814	 0.108601
H	-0.7979880449	 0.613238848	 4.3903501388	 0.097366
H	-0.2544330458	-1.5262794581	 3.3971828141	 0.093819
H	 1.3478295661	-1.7768941072	 2.6641604908	 0.127609
H	 1.1615267333	-1.8002510443	 4.4267030464	 0.119509
23.2614	109.8206	154.9038	182.6362	197.289	228.0569	259.9847	298.5375	313.7606	391.1136	431.0287	500.2093	556.0201	637.335	743.4529	766.7634	799.7239	851.2462	902.6834	948.6207	997.7653	1011.1936	1031.572	1054.9479	1098.8084	1114.8025	1121.7669	1129.4911	1149.487	1161.2299	1180.2079	1200.1577	1210.8367	1254.593	1288.2075	1316.3632	1345.8741	1381.784	1414.7723	1430.3621	1448.6784	1469.1979	1490.9717	1500.8861	1503.8144	1507.5743	1513.9358	2974.1213	3034.2756	3063.3137	3075.0442	3088.9375	3089.6011	3101.1985	3119.8932	3135.1867	3151.6901	3158.9123	3168.2897	3802.468
CC1C(O)C1C1CN1C	C[C@H]1[C@@H](O)[C@H]1[C@H]1CN1C	
InChI=1S/C7H13NO/c1-4-6(7(4)9)5-3-8(5)2/h4-7,9H,3H2,1-2H3	InChI=1S/C7H13NO/c1-4-6(7(4)9)5-3-8(5)2/h4-7,9H,3H2,1-2H3/t4-,5-,6-,7-,8?/m1/s1
