17
gdb 22659	3.01961	1.09594	0.83268	3.7091	74.14	-0.2461	-0.0083	0.2378	1321.7453	0.136253	-455.138468	-455.129917	-455.128973	-455.172439	31.04	
O	-0.1664411996	 1.3200048006	 0.1265361694	-0.38938
N	-0.0030087804	-0.0738313192	 0.0799280263	-0.214587
C	-1.1274486866	-0.658760603	-0.0027052762	 0.379989
C	-1.2590321037	-2.1625603554	-0.0688691273	-0.2978
C	-2.6807249264	-2.3931251346	 0.4769481047	-0.182135
N	-3.3916361199	-1.178432669	 0.0837162502	-0.057489
C	-2.5000070696	-0.025032738	 0.0023316923	-0.24465
C	-4.6799539356	-1.1228267044	-0.3375622626	 0.139813
O	-5.2364070693	-0.116141362	-0.7253901545	-0.335306
H	 0.7405742929	 1.6326154442	 0.2122987592	 0.311255
H	-1.2014735424	-2.4945523376	-1.1127029761	 0.133459
H	-0.4802380595	-2.6780235126	 0.4947169041	 0.133742
H	-3.1700189236	-3.2763342256	 0.0597730322	 0.125503
H	-2.6586334422	-2.5005002522	 1.5703240896	 0.119545
H	-2.6104631251	 0.65755946	 0.8543846596	 0.145711
H	-2.7110553126	 0.5583557638	-0.8996439138	 0.160641
H	-5.1755361963	-2.113446255	-0.2917476373	 0.071688
53.4053	92.4644	162.1542	225.2188	281.1957	300.6588	331.8257	385.9181	475.6498	502.2503	529.7134	656.4142	698.9364	833.984	867.1409	900.9686	963.9473	978.2556	992.5144	1031.5457	1077.5046	1161.9577	1187.3899	1207.2797	1223.9123	1241.7418	1302.5623	1330.0569	1361.4241	1409.0615	1416.1029	1447.9768	1473.0715	1491.4533	1516.7473	1769.2911	1792.4067	2930.2542	3005.9019	3032.5045	3038.7521	3079.3164	3100.944	3126.7087	3819.6626
ON=C1CCN(C1)C=O	ON=C1CCN(C1)C=O	
InChI=1S/C5H8N2O2/c8-4-7-2-1-5(3-7)6-9/h4,9H,1-3H2	InChI=1S/C5H8N2O2/c8-4-7-2-1-5(3-7)6-9/h4,9H,1-3H2
