17
gdb 65701	5.05664	0.81607	0.77146	2.6282	76.96	-0.2512	-0.0316	0.2196	1450.2549	0.131158	-421.782281	-421.772526	-421.771582	-421.817622	34.602	
C	-0.2862298772	 1.6610915396	 0.2366000635	-0.462326
C	-0.1232603334	 0.1627841386	 0.1273069004	 0.368625
C	-1.2819511654	-0.5897808093	-0.5132892544	-0.338509
C	-1.4222859451	-0.2503219908	-1.987054004	 0.161607
O	-2.4521129643	 0.07875449	-2.5156399243	-0.239648
O	 1.1685685366	-0.2952544367	-0.2928953033	-0.276516
C	 0.765500697	-0.5764069223	 1.0604355343	-0.232503
C	 1.495201836	 0.0636242099	 2.1204824616	 0.331428
C	 2.0973538922	 0.5689271592	 3.029991621	-0.403073
H	-1.1722657251	 1.9060147191	 0.831216062	 0.132221
H	 0.5882662416	 2.1119728	 0.707287879	 0.146613
H	-0.4177572813	 2.1041286115	-0.7562030346	 0.137134
H	-1.0856045507	-1.6676204248	-0.4471168774	 0.128259
H	-2.2284681806	-0.3743440066	-0.009455728	 0.126606
H	-0.4759408458	-0.3393542513	-2.5646682683	 0.099323
H	 0.5338906452	-1.6265121933	 1.2403381604	 0.114802
H	 2.6337078703	 1.018645607	 3.8291215022	 0.205958
53.1609	60.6004	122.5585	144.8145	190.1929	225.8507	300.1597	343.7106	382.1029	406.9185	483.2215	560.5439	607.645	632.9644	673.6174	709.6973	813.4973	840.391	911.5592	954.7077	1003.9019	1050.9916	1063.7193	1103.0909	1119.5573	1191.6398	1255.5831	1304.512	1348.4348	1418.3502	1420.6587	1432.4866	1449.2202	1487.7586	1493.9785	1833.5081	2239.8325	2896.4322	3032.3074	3043.4041	3103.6259	3104.4628	3107.4568	3147.902	3500.9571
CC1(CC=O)OC1C#C	C[C@@]1(CC=O)O[C@H]1C#C	
InChI=1S/C7H8O2/c1-3-6-7(2,9-6)4-5-8/h1,5-6H,4H2,2H3	InChI=1S/C7H8O2/c1-3-6-7(2,9-6)4-5-8/h1,5-6H,4H2,2H3/t6-,7-/m0/s1
