16
gdb 123623	4.12831	1.55886	1.23408	2.7975	74.37	-0.2177	0.015	0.2326	972.6323	0.128902	-396.917644	-396.911325	-396.910381	-396.948146	25.866	
C	 0.0477817738	 1.4753646519	-0.0200515121	-0.238574
C	 1.3153583457	 0.688953545	 0.0341554278	-0.201298
N	-0.0220896987	 0.0126652098	-0.03172381	-0.1035
C	-0.188603894	-0.5964230149	-1.3837122867	-0.288325
C	 1.0840080412	-0.2548963668	-2.1116531887	 0.30843
N	 1.5819633711	-0.4821750678	-3.3159172452	-0.328152
N	 2.8098686866	 0.0885619339	-3.2452822711	-0.183949
C	 3.0869767539	 0.6616049358	-2.0361197613	-0.236991
C	 1.963438198	 0.4563102192	-1.2721038505	 0.280966
H	-0.3479690937	 1.9387653929	 0.8804288205	 0.115845
H	-0.1554372279	 2.0177785442	-0.9419227452	 0.11297
H	 1.8628090977	 0.5869730012	 0.9660895141	 0.099466
H	-0.3212891079	-1.6775425232	-1.2650919793	 0.126918
H	-1.0914909554	-0.204811649	-1.8640197441	 0.125061
H	 3.4161955197	 0.0318110614	-4.0458841513	 0.273709
H	 4.0310339298	 1.1487082463	-1.8511868269	 0.137425
159.4087	234.8371	359.9097	440.7183	444.7528	477.1133	607.8399	655.7146	691.5426	715.2624	745.087	781.6355	797.2054	840.9625	961.1902	975.9241	1011.8999	1028.6641	1056.4818	1071.4341	1114.5586	1140.2231	1150.521	1191.2833	1209.9491	1257.2751	1280.6218	1315.8476	1343.7735	1440.2535	1466.6792	1490.2609	1500.3557	1511.5998	1635.6912	3038.6909	3075.5055	3090.9223	3153.4899	3179.3321	3262.4274	3674.4645
C1C2N1CC1=NNC=C21	C1[C@H]2N1Cc1n[nH]cc21	
InChI=1S/C6H7N3/c1-4-5(8-7-1)2-9-3-6(4)9/h1,6H,2-3H2,(H,7,8)	InChI=1S/C6H7N3/c1-4-5(8-7-1)2-9-3-6(4)9/h1,6H,2-3H2,(H,7,8)/t6-,9?/m1/s1
