21
gdb 60565	2.79629	1.08146	0.91545	2.3123	78.85	-0.2532	0.0758	0.329	1354.262	0.180961	-424.18281	-424.173181	-424.172237	-424.217704	35.837	
C	 0.1735198673	 1.3506091107	 0.3778877065	-0.41967
C	-0.0754228653	-0.146207588	 0.1540724785	-0.027421
C	-1.5447635513	-0.5363544098	 0.2077708237	 0.09303
C	-2.6009714573	 0.2450645909	 0.8624113234	-0.189706
O	-2.4621549586	 0.2549296438	-0.5605692009	-0.243447
C	 0.4956027309	-0.6003280027	-1.1830822201	 0.00293
C	 1.9607517732	-0.9701910747	-1.3088409694	-0.347688
C	 0.8908795174	-2.0311001928	-1.4012106781	 0.085509
O	 0.6911213857	-2.9065718547	-0.325541727	-0.419632
H	 1.226105584	 1.5904534257	 0.2034630744	 0.113951
H	-0.4320294123	 1.9474340163	-0.3110070325	 0.132877
H	-0.0721590837	 1.6533400246	 1.4001348119	 0.10948
H	 0.425287844	-0.7202993441	 0.9425254893	 0.085564
H	-1.7091108136	-1.6098679261	 0.1086173054	 0.106265
H	-3.4865608546	-0.26452504	 1.2410380429	 0.109881
H	-2.3644834023	 1.1837624912	 1.3585949212	 0.110887
H	 0.0465530373	-0.1032115331	-2.0390322476	 0.099198
H	 2.5074262378	-0.6918955938	-2.2034245978	 0.110195
H	 2.5460549786	-0.9554106481	-0.3943257388	 0.111417
H	 0.6911176742	-2.4666198285	-2.3799849786	 0.087181
H	 1.4187591186	-3.5367044767	-0.3134784464	 0.289198
56.4872	72.9619	137.664	199.3226	224.3334	274.0585	281.7912	292.997	353.0632	411.6422	443.7073	604.2283	606.5213	746.4689	785.9038	832.5138	847.3428	870.0102	934.4354	969.3943	995.0697	1000.8172	1024.6968	1060.3733	1073.4439	1110.7064	1132.9218	1146.8512	1163.252	1177.1467	1185.8309	1196.9935	1235.5671	1280.7338	1292.2057	1304.0537	1355.3804	1393.0593	1401.0402	1426.251	1435.6829	1487.0606	1494.9691	1510.0921	1532.0088	3040.3112	3044.3561	3086.0042	3099.6941	3108.5483	3110.1612	3116.9871	3124.7842	3145.5325	3173.1938	3213.5038	3808.7194
CC(C1CO1)C1CC1O	C[C@@H]([C@H]1CO1)[C@H]1C[C@H]1O	
InChI=1S/C7H12O2/c1-4(7-3-9-7)5-2-6(5)8/h4-8H,2-3H2,1H3	InChI=1S/C7H12O2/c1-4(7-3-9-7)5-2-6(5)8/h4-8H,2-3H2,1H3/t4-,5-,6-,7-/m1/s1
