16
gdb 66755	2.72985	2.15418	1.53439	3.9389	70.38	-0.237	-0.0117	0.2254	876.5503	0.124721	-400.675712	-400.668868	-400.667924	-400.706786	27.249	
C	 0.022990012	 1.5228184872	 0.0557537262	-0.520085
C	 0.076058616	 0.0214182426	 0.013870731	 0.172968
C	-1.1662403687	-0.8502650273	 0.3417158409	-0.124951
C	-0.5212216161	-1.5601189207	 1.5151216733	-0.118292
C	-0.5297658471	-2.2534069	 0.1889811063	-0.042926
N	 0.8986985351	-1.9634878472	-0.1545334234	-0.220173
C	 0.8137432124	-0.9558237698	 1.0156498799	-0.055782
C	 0.7656045168	-0.8031464758	-1.0812374811	 0.404044
O	 1.1765503006	-0.6384338362	-2.1830171785	-0.305589
H	 1.0167245205	 1.9567614631	-0.0928230365	 0.132569
H	-0.6287264555	 1.9063700021	-0.7364535596	 0.136687
H	-0.3692878906	 1.8793332834	 1.0137764416	 0.126469
H	-2.2075156842	-0.6392784107	 0.1409083243	 0.10246
H	-0.8953703048	-1.8536669831	 2.485043787	 0.106946
H	-1.0517778102	-3.1323598798	-0.1627535332	 0.109625
H	 1.7268709437	-0.7289165279	 1.5597446816	 0.096031
132.2887	192.3896	215.0855	277.7235	388.9591	575.1111	619.5251	683.046	731.3908	766.9847	779.2279	793.4507	830.7353	840.2172	870.2752	896.1444	909.9079	953.3252	988.3579	1011.597	1038.4905	1047.8882	1064.5093	1111.79	1147.0499	1172.7924	1191.4117	1220.6167	1244.5834	1325.0363	1366.3109	1415.5445	1488.3549	1489.4216	1923.7099	3033.6275	3100.9312	3105.4064	3151.733	3210.5434	3212.2839	3228.4428
CC12C3C4C3N(C14)C2=O	C[C@]12[C@@H]3[C@H]4[C@@H]3N([C@@H]14)C2=O	
InChI=1S/C7H7NO/c1-7-3-2-4(3)8(5(2)7)6(7)9/h2-5H,1H3	InChI=1S/C7H7NO/c1-7-3-2-4(3)8(5(2)7)6(7)9/h2-5H,1H3/t2-,3+,4-,5+,7-/m0/s1
