15
gdb 131466	3.33294	1.57727	1.11965	2.893	73.46	-0.2136	-0.0328	0.1808	1018.2219	0.116078	-416.817069	-416.810173	-416.809229	-416.848308	27.084	
O	 0.2132241302	 1.4218617361	-0.1963984415	-0.416225
C	 0.0443618979	 0.021294863	-0.0435225171	-0.069702
C	 0.6265006303	-0.5451171267	 1.2627031762	-0.114083
C	-0.2687003655	-1.2992759278	 1.9267955883	-0.207495
C	-1.5063887683	-1.2763698117	 1.1498252923	 0.365234
C	-1.3739862972	-0.4977540863	 0.016066863	 0.161625
C	-2.6264129547	-0.5665970488	-0.6148727972	-0.167507
N	-3.4780446905	-1.3286132968	 0.0821911147	-0.228776
N	-2.7652915816	-1.7566392119	 1.1585263268	-0.338631
H	-0.3259011233	 1.8474104108	 0.4798002768	 0.284784
H	 0.5884579705	-0.4194217355	-0.8899129871	 0.116717
H	 1.6431763357	-0.3335774304	 1.5685411979	 0.112827
H	-0.1111697863	-1.821860311	 2.8612233081	 0.112392
H	-2.9676877508	-0.1032414272	-1.5288488068	 0.116187
H	-3.2151779163	-2.3649744159	 1.8211028057	 0.272652
139.6537	170.0525	289.1733	338.1847	361.1351	490.5718	510.342	559.4169	641.1832	676.4209	716.5366	717.3014	775.4054	849.7984	895.9612	940.3271	962.4197	977.6371	1070.8176	1081.9204	1089.7103	1167.9545	1218.4162	1236.9418	1249.0204	1303.1552	1345.5797	1389.0012	1416.7842	1455.4222	1544.218	1565.3014	1615.3572	3026.9592	3209.4279	3232.0806	3246.452	3674.3231	3801.809
OC1C=CC2=C1C=NN2	O[C@H]1C=Cc2c1cn[nH]2	
InChI=1S/C6H6N2O/c9-6-2-1-5-4(6)3-7-8-5/h1-3,6,9H,(H,7,8)	InChI=1S/C6H6N2O/c9-6-2-1-5-4(6)3-7-8-5/h1-3,6,9H,(H,7,8)/t6-/m0/s1
