19
gdb 66507	2.95564	1.90553	1.65659	1.4005	85.78	-0.1893	-0.0286	0.1607	911.4713	0.15963	-348.636765	-348.629769	-348.628825	-348.667531	29.54	
C	 0.0995214449	 1.418588795	 0.1190625265	-0.514409
C	 0.0009941654	-0.0754752731	 0.0718935248	 0.343384
C	 0.5407727656	-1.05291893	-0.9557617105	-0.145493
C	 1.2823678012	-1.0021345894	 0.3445159476	-0.160104
C	 0.5097504081	-2.1479848427	 0.9568031533	 0.075659
C	-0.1628304079	-2.0928949169	 2.1235051599	-0.129377
C	-1.5611579319	-1.5598594113	 1.7895415338	-0.26499
C	-1.2695595458	-0.9683163762	 0.363827572	-0.072694
C	-0.4211426216	-2.0781111708	-0.2870415615	-0.095631
H	 1.0572397844	 1.7637819336	-0.2857052103	 0.120247
H	-0.6959671469	 1.8899081598	-0.4713096417	 0.120138
H	 0.0178758204	 1.7967101678	 1.1454437571	 0.1204
H	 0.8613776436	-0.9119001364	-1.9787708852	 0.086408
H	 2.225159188	-0.5283676729	 0.5923655876	 0.088723
H	 0.307757401	-1.8466347169	 3.070667394	 0.089299
H	-2.3841554958	-2.2857942132	 1.7147424471	 0.105711
H	-1.8580108597	-0.8303027014	 2.5526470563	 0.103863
H	-2.1437892762	-0.5967920031	-0.1832826197	 0.057025
H	-0.8342455369	-2.975162262	-0.7438939613	 0.071842
190.0039	200.6967	247.0194	326.9203	383.5631	502.5201	547.8692	590.7416	654.7841	686.9998	743.09	771.4401	826.8382	858.0898	872.912	886.8346	896.4996	924.7888	931.5745	934.4246	986.5618	997.0421	1043.0626	1055.18	1086.5279	1114.9961	1145.5849	1158.9552	1172.5084	1212.5739	1225.9726	1235.4687	1273.6947	1277.3702	1321.9719	1378.9714	1414.5775	1466.2628	1482.4281	1496.0019	1589.5368	2995.1889	3014.1417	3047.5395	3054.6634	3070.0333	3088.4057	3133.7916	3164.3299	3179.6691	3208.6783
CC12C3C1C1=CCC2C31	C[C@@]12[C@H]3[C@@H]1[C]1[CH]C[C@@H]2[C@@H]31	
InChI=1S/C9H10/c1-9-5-3-2-4-6(5)8(9)7(4)9/h2,5-8H,3H2,1H3	InChI=1S/C9H10/c1-9-5-3-2-4-6(5)8(9)7(4)9/h2,5-8H,3H2,1H3/t5-,6+,7+,8-,9+/m1/s1
