22
gdb 62677	2.36947	1.70871	1.29166	1.5194	86.41	-0.2121	0.0695	0.2816	1104.0923	0.193079	-367.122779	-367.113735	-367.112791	-367.155637	36.09	
C	-0.069854372	 1.6014522079	 0.1014520954	-0.499219
C	 0.0592511943	 0.0713028185	 0.0407463252	 0.284049
C	-1.1695820486	-0.5309136098	-0.6472346882	-0.455963
C	 1.2938096744	-0.7518033583	-0.2967010974	-0.177684
C	 2.5905530148	-0.3636388503	 0.4188768698	-0.044464
C	 2.5362239266	 0.7877528685	 1.3399776179	-0.261318
N	 1.9618728221	-0.5021030689	 1.7816686801	-0.192044
C	 0.6487525769	-0.8670590178	 1.0798873533	 0.303459
C	-0.0730969904	-1.95912787	 1.8138122027	-0.46832
H	 0.7313451669	 2.1112451837	-0.4401522354	 0.131039
H	-1.011949146	 1.9079731754	-0.3633066537	 0.110115
H	-0.0894336034	 1.9808651702	 1.1269526296	 0.131994
H	-1.2969934381	-0.0735566341	-1.6346587559	 0.11735
H	-1.0872398894	-1.6105127199	-0.7928358473	 0.118614
H	-2.0802908562	-0.3347851075	-0.0700255755	 0.118133
H	 1.2859796575	-1.4570745512	-1.1198682863	 0.083192
H	 3.5229092923	-0.8760396681	 0.1991908081	 0.096008
H	 3.455216523	 0.9980622538	 1.8828040781	 0.118032
H	 1.925757139	 1.6571676032	 1.1647556675	 0.120787
H	-0.3875842207	-1.5898308486	 2.7978071248	 0.123564
H	-0.9598528958	-2.311752783	 1.284553214	 0.115923
H	 0.5928224628	-2.8105107037	 1.9864443633	 0.126752
109.1398	163.5345	191.3526	247.0546	275.5537	295.6506	338.7642	348.5889	374.2571	408.6672	506.0328	590.7187	611.6824	672.5936	682.3528	766.9158	821.8412	883.3074	905.9959	926.9612	976.8929	983.1187	992.8408	1021.8172	1031.8856	1058.6003	1099.3233	1107.9258	1118.1114	1138.783	1159.7165	1192.1989	1214.9076	1238.139	1286.2685	1358.9421	1399.486	1408.5611	1424.3173	1438.9056	1476.1247	1493.4213	1497.5006	1503.2161	1509.0104	1511.1276	1523.9649	3027.0942	3030.9362	3038.575	3087.0864	3088.0434	3096.5428	3112.4972	3116.7837	3127.8126	3135.9369	3146.1119	3173.539	3284.689
CC1(C)C2C3CN3C12C	CC1(C)[C@H]2[C@H]3CN3[C@@]12C	
InChI=1S/C8H13N/c1-7(2)6-5-4-9(5)8(6,7)3/h5-6H,4H2,1-3H3	InChI=1S/C8H13N/c1-7(2)6-5-4-9(5)8(6,7)3/h5-6H,4H2,1-3H3/t5-,6-,8-,9?/m1/s1
