14
gdb 124130	7.32903	0.73255	0.66877	2.5146	80.42	-0.2364	-0.0354	0.201	1606.977	0.100088	-436.66453	-436.656064	-436.65512	-436.699527	29.69	
C	-0.1274194732	 1.4565674609	-0.0322126403	-0.512217
C	-0.018162798	 0.0083444673	-0.0152812689	 0.277855
C	 0.0697760544	-1.1945239982	-0.001284109	-0.109793
C	 0.1770150436	-2.5968284939	 0.0147476196	 0.317524
C	 1.2525129245	-3.4388020008	-0.0108535625	-0.463262
C	 0.6555544696	-4.7237689544	 0.0279526638	 0.453428
O	 1.3206340791	-5.8885093739	 0.0211530663	-0.425099
N	-0.6557263562	-4.6734697783	 0.0728437452	-0.244425
O	-0.9710723529	-3.3173723457	 0.0647780676	-0.222201
H	 0.8620781852	 1.9246721191	-0.0010678429	 0.159892
H	-0.6350825015	 1.8028925704	-0.9391356443	 0.161671
H	-0.6981796975	 1.8180811585	 0.8300721123	 0.162013
H	 2.2972448918	-3.1861542006	-0.0507483018	 0.133007
H	 0.6657785609	-6.5991087005	 0.053866975	 0.311607
17.3012	87.1119	89.0398	238.5401	299.7643	362.7572	402.1737	450.1443	455.2071	477.7448	552.7745	681.7173	723.1659	726.8217	816.4853	939.8027	972.5892	1026.8413	1048.0021	1051.5668	1062.2591	1195.0197	1240.4559	1282.3596	1411.132	1470.9487	1473.0139	1526.3068	1556.703	1638.0817	2361.873	3030.6285	3093.0205	3098.1351	3295.9584	3778.2879
CC#CC1=CC(O)=NO1	CC#Cc1cc(O)no1	
InChI=1S/C6H5NO2/c1-2-3-5-4-6(8)7-9-5/h4H,1H3,(H,7,8)	InChI=1S/C6H5NO2/c1-2-3-5-4-6(8)7-9-5/h4H,1H3,(H,7,8)
