18
gdb 111910	2.2915	1.39906	0.9138	3.7837	74.93	-0.233	0.0053	0.2383	1274.8001	0.148767	-435.334295	-435.325367	-435.324423	-435.368036	33.288	
C	-0.0272409808	 1.5672904706	-0.0199382188	-0.387092
C	 0.0438731916	 0.0398933299	-0.0211641675	-0.16298
C	 0.6871931275	-0.5223223762	 1.2551267972	-0.11523
N	-0.0946400704	-0.2611235382	 2.4678201474	-0.318341
C	-0.332434317	-1.4020631165	 2.9982206387	 0.430253
N	-1.1146737745	-1.6257647809	 4.1082912737	-0.581192
N	 0.224837365	-2.5020800324	 2.3387799378	-0.381707
C	 0.8538495729	-2.0504193079	 1.181165495	 0.415671
O	 1.3767829638	-2.7350513824	 0.3377415894	-0.369782
H	 0.9747902057	 2.0086581834	 0.0242035674	 0.111528
H	-0.5153923599	 1.9371761112	-0.9267954528	 0.109395
H	-0.5893178809	 1.9260317492	 0.8463191961	 0.137183
H	-0.9635584939	-0.3826511068	-0.1185100561	 0.098833
H	 0.6257835985	-0.3252466443	-0.8748150382	 0.117003
H	 1.6872249269	-0.0776381509	 1.3646720225	 0.110169
H	-1.3303922425	-0.7677229722	 4.5973676511	 0.26763
H	-0.7982724051	-2.3587676463	 4.7273203599	 0.255435
H	 0.0128174731	-3.4720651494	 2.5108118972	 0.263225
84.6491	117.757	160.3743	168.6436	249.242	303.0038	346.1279	370.7461	436.0955	464.6765	562.441	616.2444	638.5604	665.1848	723.9107	753.1576	793.64	877.674	948.2697	975.9679	994.9078	1065.7521	1112.2195	1129.5459	1171.2933	1205.4342	1267.3007	1273.5212	1297.7208	1326.5118	1369.5111	1409.4598	1482.8662	1483.8327	1495.477	1509.3007	1627.4681	1731.6013	1852.8143	3003.9716	3033.1538	3036.1994	3075.264	3101.282	3122.8989	3559.1079	3643.4085	3662.8578
CCC1N=C(N)NC1=O	CC[C@H]1N=C(N)NC1=O	
InChI=1S/C5H9N3O/c1-2-3-4(9)8-5(6)7-3/h3H,2H2,1H3,(H3,6,7,8,9)	InChI=1S/C5H9N3O/c1-2-3-4(9)8-5(6)7-3/h3H,2H2,1H3,(H3,6,7,8,9)/t3-/m1/s1
