19
gdb 51628	4.75602	0.96054	0.94145	3.2737	78.08	-0.23	0.0228	0.2528	1300.9771	0.161596	-419.16334	-419.155566	-419.154622	-419.197202	29.522	
N	-0.0534464775	 1.2701253705	 0.0914922047	-0.443824
C	-0.0308402115	 0.0119983658	-0.0076508528	 0.117742
O	-1.1762085785	-0.6913509434	 0.0492274748	-0.195681
C	-1.0933267319	-2.1162923673	 0.0436642667	 0.124943
C	-1.3871974438	-2.7464882653	 1.4494383927	-0.205933
N	-2.632829815	-3.5258237524	 1.2054483667	-0.121338
C	-2.2671603193	-4.1612212471	-0.1261760189	-0.185937
C	-2.2903269637	-2.721363047	-0.6958491794	-0.062072
C	-3.4066166344	-2.5261888558	 0.3629429998	-0.179819
H	 0.8908681829	 1.6403633885	 0.0077582	 0.228563
H	 0.8605854364	-0.6149896567	-0.1533644496	 0.083421
H	-0.1306287507	-2.4237504463	-0.3804634621	 0.080574
H	-0.5925933985	-3.4106635367	 1.7986129707	 0.106783
H	-1.5593030275	-1.9688451375	 2.1969196652	 0.126242
H	-1.33002	-4.727182422	-0.128776363	 0.100066
H	-3.0862456417	-4.7874437463	-0.4852866457	 0.114929
H	-2.3965328033	-2.4802969931	-1.7541547923	 0.074175
H	-4.3673500289	-2.9528690109	 0.0685506099	 0.111047
H	-3.5415526432	-1.5397872469	 0.8108568525	 0.126118
21.8086	109.4529	123.1883	298.9614	357.9716	388.0388	475.2088	543.6099	644.7522	704.8653	815.5683	823.9868	839.536	857.3585	873.9311	886.9009	969.8245	975.665	980.1247	1033.259	1040.2237	1045.1467	1050.5134	1092.762	1115.998	1150.5172	1197.2999	1210.5045	1236.0931	1249.4262	1260.4232	1271.7605	1298.6805	1307.61	1329.8144	1391.411	1430.7206	1491.7984	1500.76	1536.4513	1743.5733	3010.8445	3038.3472	3050.8108	3067.24	3074.7919	3112.4366	3120.4468	3124.1869	3138.9753	3519.038
N=COC1CN2CC1C2	[NH][CH]O[C@H]1CN2C[C@H]1C2	
InChI=1S/C6H10N2O/c7-4-9-6-3-8-1-5(6)2-8/h4-7H,1-3H2	InChI=1S/C6H10N2O/c7-4-9-6-3-8-1-5(6)2-8/h4-7H,1-3H2/t6-/m0/s1
