19
gdb 113870	4.31995	0.78925	0.73494	0.5421	71.87	-0.2538	0.0708	0.3246	1543.2904	0.158402	-460.104035	-460.094819	-460.093875	-460.140171	32.302	
O	-0.2103513403	 1.4269871423	-0.7730945016	-0.416445
C	 0.0282429317	 0.3144043901	 0.07221362	-0.088134
C	-1.2536019883	-0.4328370812	 0.3454856026	 0.020998
O	-1.7719544783	-1.195824355	-0.7586481129	-0.273983
C	-1.3911535806	-1.897580515	 0.4308409247	 0.052457
C	-0.2690815819	-2.8917011581	 0.3261635865	-0.071694
C	 0.1901572736	-3.5366784472	 1.6570427575	-0.084397
O	-0.2198488581	-4.8469188172	 1.2241550832	-0.2694
C	-0.6799858889	-4.3388229362	-0.0443318369	-0.08295
H	-0.6138355553	 1.0831813735	-1.5783201676	 0.294019
H	 0.7856569092	-0.3566579373	-0.3549142916	 0.094015
H	 0.4277974459	 0.7204977655	 1.0080843465	 0.115469
H	-2.0126912244	 0.1700982994	 0.8474000319	 0.101354
H	-2.2448722817	-2.2656598494	 1.0069148674	 0.097842
H	 0.5425711831	-2.5010447563	-0.2866554117	 0.089122
H	 1.2662195775	-3.4844488904	 1.8619979641	 0.105729
H	-0.3558473924	-3.2078665303	 2.5516685803	 0.101784
H	-1.7565136513	-4.4976473531	-0.1875966455	 0.107437
H	-0.1390396292	-4.7836572541	-0.8876281668	 0.106777
34.4517	43.4117	74.2325	142.9322	171.9093	289.3595	325.7585	387.2368	413.9471	498.5496	575.8322	774.1561	802.1354	846.1025	884.7126	924.9083	940.5447	980.1218	1009.7366	1047.2678	1067.203	1071.4558	1086.1086	1114.1943	1156.7342	1165.2557	1165.7074	1209.9387	1232.0285	1243.7448	1294.359	1311.4248	1317.0808	1360.4767	1382.9497	1403.3053	1436.3294	1491.6308	1498.1198	1512.5046	1537.7907	3003.795	3012.65	3016.9892	3050.2506	3058.9691	3068.3553	3072.9533	3101.015	3118.9321	3801.0195
OCC1OC1C1COC1	OC[C@H]1O[C@H]1C1COC1	
InChI=1S/C6H10O3/c7-1-5-6(9-5)4-2-8-3-4/h4-7H,1-3H2	InChI=1S/C6H10O3/c7-1-5-6(9-5)4-2-8-3-4/h4-7H,1-3H2/t5-,6+/m1/s1
