15
gdb 127629	3.41847	1.72923	1.15691	1.6743	73.33	-0.2121	0.0115	0.2236	996.72	0.115415	-416.822899	-416.81575	-416.814806	-416.855134	26.56	
C	-0.001177854	 1.4115795483	 0.0255220455	-0.33841
N	-0.0276004287	-0.0324210335	 0.0392043155	-0.122672
N	 0.0167459185	-0.7496910848	-1.1296493577	-0.271942
C	 0.0568443491	-2.0370937326	-0.7879369796	-0.153792
C	 0.0488823507	-2.1940965912	 0.6202870819	 0.1664
C	 0.0021526145	-0.8919517123	 1.0719440442	 0.48661
O	-0.0203615693	-0.768024407	 2.4091100104	-0.227363
C	 0.0121915659	-2.0920577699	 2.8542151568	-0.012532
C	 0.0533946191	-2.9820636846	 1.8294963665	-0.354598
H	 1.0205853805	 1.7972094068	 0.1143643208	 0.142936
H	-0.4280675202	 1.7451312219	-0.920402651	 0.162062
H	-0.600412684	 1.7972367446	 0.854047859	 0.146673
H	 0.0831563627	-2.7827227374	-1.5684077739	 0.11632
H	 0.0014492314	-2.1995377381	 3.9257132518	 0.13915
H	 0.0835380039	-4.0547955301	 1.9393140397	 0.121158
50.0006	141.4051	231.1531	254.0837	345.2545	529.6815	585.1621	625.5558	629.4676	693.7225	705.6751	756.5583	824.7049	834.8066	861.1188	907.8123	992.8673	1018.5685	1116.3824	1147.4231	1151.8798	1208.0165	1254.9925	1289.1719	1321.044	1412.2604	1444.6366	1483.8367	1496.5546	1510.5966	1528.8088	1574.8531	1637.1817	3037.2032	3107.906	3158.058	3246.8072	3255.497	3290.7714
CN1N=CC2=C1OC=C2	Cn1ncc2c1occ2	
InChI=1S/C6H6N2O/c1-8-6-5(4-7-8)2-3-9-6/h2-4H,1H3	InChI=1S/C6H6N2O/c1-8-6-5(4-7-8)2-3-9-6/h2-4H,1H3
