16
gdb 48912	3.22067	1.56733	1.33181	3.5329	73.61	-0.2301	-0.0448	0.1853	966.9057	0.125024	-400.67102	-400.664101	-400.663157	-400.702564	27.214	
O	 0.155281536	-0.1353250355	-0.0647820426	-0.246201
C	 0.1409385087	 1.0629796043	-0.198907058	 0.027828
C	 1.3554135548	 1.9232703132	-0.1197652689	 0.258201
N	 2.7556150001	 1.3894413646	-0.0835142068	-0.363717
C	 2.8999115979	 2.8865994743	 0.0379208387	-0.02548
C	 1.8263718304	 3.0785902967	-1.0882742147	-0.087752
C	 1.0268086107	 4.3237343289	-0.7505174322	-0.112264
C	 0.9137463646	 4.2978530928	 0.5802576139	-0.109003
C	 1.6533948778	 3.0351320949	 0.9841124738	-0.12537
H	-0.8059127904	 1.62224033	-0.367519266	 0.084602
H	 2.9278408026	 0.943951025	 0.8219560443	 0.21486
H	 3.8744990059	 3.3742665017	 0.124138932	 0.087493
H	 2.0807791978	 2.8181353082	-2.1137771849	 0.09111
H	 0.6529096264	 5.0494882119	-1.4586450962	 0.11376
H	 0.4232593935	 4.996610826	 1.2432710078	 0.113437
H	 1.7252876132	 2.724663933	 2.0274329599	 0.078497
85.2251	150.1378	251.2992	324.275	480.2633	495.2165	508.96	648.9765	705.3221	750.2424	755.0141	796.8023	814.9497	913.7645	915.904	921.5406	941.045	968.5155	988.4493	1016.9548	1027.8418	1098.0015	1126.7246	1131.7008	1156.0516	1195.7528	1231.3239	1256.7613	1276.0433	1302.0829	1324.2784	1340.9923	1422.6137	1632.8341	1814.7029	2887.2359	3083.4466	3115.9454	3148.1663	3222.118	3248.225	3403.5674
O=CC12NC3C1C=CC23	O=C[C@@]12N[C@H]3[C@@H]1C=C[C@@H]23	
InChI=1S/C7H7NO/c9-3-7-4-1-2-5(7)6(4)8-7/h1-6,8H	InChI=1S/C7H7NO/c9-3-7-4-1-2-5(7)6(4)8-7/h1-6,8H/t4-,5+,6-,7+
