16
gdb 44382	3.55144	1.65254	1.39513	5.0979	67.44	-0.2524	0.0515	0.3039	921.9224	0.127474	-437.900509	-437.894005	-437.893061	-437.931385	26.414	
O	 0.0113107413	-0.0829450428	-0.1975633277	-0.383393
C	-0.0521728961	 1.1067029879	-0.0294504065	 0.452925
N	-1.2073419126	 1.8451897492	-0.117745448	-0.354811
C	-1.2746534145	 3.2010451935	 0.3838132228	-0.014305
C	-0.7628458804	 3.4448710347	 1.8527760102	-0.25326
C	 0.4860941898	 4.111694267	 1.2786655398	-0.096544
C	 1.0971506027	 3.2336964423	 0.2253189266	 0.1227
O	 1.0740312214	 1.8176942987	 0.2830756474	-0.25413
C	-0.0998024126	 4.0257947364	-0.1503894457	-0.117968
H	-2.040549578	 1.2816344549	-0.1742033869	 0.25822
H	-2.2663048678	 3.6064632958	 0.1881653764	 0.096214
H	-1.4026016046	 4.1493723215	 2.388954085	 0.111573
H	-0.6126280182	 2.5526063766	 2.4672260367	 0.116749
H	 1.0461155732	 4.9173525878	 1.7368727954	 0.09752
H	 2.0523324796	 3.5608872706	-0.1691579709	 0.118522
H	-0.1266090433	 4.7325885057	-0.9698145347	 0.099988
109.1089	199.0225	395.9391	432.7705	453.9775	462.4508	559.4283	600.5393	730.9585	744.8482	766.927	804.2971	832.3012	860.4067	893.6018	945.6239	965.6359	1006.7028	1027.4133	1035.0416	1075.4483	1092.9619	1111.7079	1166.3396	1183.4306	1218.5823	1246.1956	1258.3527	1294.6527	1349.5517	1391.3672	1430.8675	1452.516	1488.1048	1855.7793	3058.3506	3112.1467	3124.9945	3181.8775	3188.5297	3201.3045	3644.6785
O=C1NC2CC3C(O1)C23	O=C1N[C@H]2C[C@H]3[C@@H](O1)[C@@H]23	
InChI=1S/C6H7NO2/c8-6-7-3-1-2-4(3)5(2)9-6/h2-5H,1H2,(H,7,8)	InChI=1S/C6H7NO2/c8-6-7-3-1-2-4(3)5(2)9-6/h2-5H,1H2,(H,7,8)/t2-,3+,4-,5-/m1/s1
