14
gdb 24498	4.09269	1.71075	1.20645	3.7204	76.36	-0.228	-0.0346	0.1933	937.2719	0.106575	-395.819498	-395.813586	-395.812642	-395.849602	23.964	
N	-0.0280681817	 1.3247769668	 0.0098295112	-0.369638
C	 1.2569486798	 1.8410211663	 0.0000931619	-0.035283
C	 2.1694222988	 0.8232697869	-0.0144120232	-0.318862
C	 1.418057494	-0.3979470356	-0.0137495447	 0.233005
C	 0.0437037145	-0.0406001836	 0.0016539629	 0.397149
N	-0.9788129331	-0.888841813	 0.007012701	-0.35424
C	-0.5967450938	-2.1657093135	-0.0037125321	 0.052968
N	 0.6561849621	-2.6510518144	-0.0186386483	-0.268323
C	 1.657620544	-1.7719081818	-0.0236203763	-0.087089
H	-0.8848120028	 1.8517405494	 0.0210984726	 0.272092
H	 1.4107535916	 2.9088832722	 0.0044387345	 0.137392
H	 3.2422010088	 0.9344539808	-0.0242995898	 0.113425
H	-1.3936378004	-2.9046286677	 0.0000157202	 0.113496
H	 2.6675685183	-2.1774260228	-0.0357262099	 0.113907
226.5786	237.3249	420.0395	432.493	496.936	569.7519	614.5468	631.3133	650.3884	747.9043	789.5984	834.4047	856.9185	907.5042	912.9902	946.1939	996.7037	1084.6802	1110.8493	1139.3427	1217.1522	1276.243	1300.5923	1334.899	1378.4546	1429.4983	1439.4514	1495.2922	1543.6764	1604.2544	1641.0911	3146.1425	3170.792	3251.7969	3270.4345	3674.706
N1C=CC2=C1N=CN=C2	[nH]1ccc2c1ncnc2	
InChI=1S/C6H5N3/c1-2-8-6-5(1)3-7-4-9-6/h1-4H,(H,7,8,9)	InChI=1S/C6H5N3/c1-2-8-6-5(1)3-7-4-9-6/h1-4H,(H,7,8,9)
