21
gdb 69490	3.03608	1.47469	1.22848	1.6346	81.62	-0.2517	0.0924	0.3441	1114.8437	0.182343	-387.088284	-387.079806	-387.078862	-387.120659	33.836	
C	-0.0375583941	 1.5236271146	 0.0467944022	-0.483884
C	-0.0816455055	 0.0226385671	 0.1412451378	 0.430938
C	-1.3360225397	-0.7435026273	-0.2877856417	-0.302648
C	-1.3035762411	-2.0282091338	 0.5372658864	-0.067378
C	-1.4064400062	-1.8917863869	 2.0406432549	-0.33725
C	-0.0522396577	-2.0726812079	 1.3943473427	 0.349433
C	 0.7650743919	-3.3241802633	 1.6060946481	-0.487525
C	 0.6638985939	-0.7798232415	 1.1238396845	-0.115094
O	 1.1253109947	-0.6674023956	-0.2341616819	-0.306752
H	 0.9218551416	 1.9052453806	 0.4045532412	 0.128528
H	-0.1657474295	 1.8479255045	-0.9921551368	 0.126655
H	-0.8403396906	 1.9762827388	 0.6385566245	 0.119092
H	-2.2400501755	-0.1513235503	-0.0999687432	 0.096848
H	-1.2981290583	-0.9506205325	-1.3630828862	 0.109464
H	-1.6757658334	-2.9426028114	 0.0884676039	 0.082778
H	-1.6667405011	-0.9226508487	 2.4577126563	 0.104448
H	-1.8078595091	-2.7345257881	 2.5941553309	 0.109641
H	 0.1233669955	-4.208023574	 1.6776462388	 0.113265
H	 1.4597887569	-3.4756409781	 0.7732445922	 0.131983
H	 1.3531086282	-3.267058397	 2.5298496135	 0.114388
H	 1.3178197492	-0.3345602092	 1.8728447319	 0.08307
140.4358	180.4349	200.0603	216.5831	251.255	346.4361	356.6825	401.0894	416.4469	499.927	553.3178	607.6227	736.481	777.1951	826.8928	845.2532	876.3315	909.3826	936.4926	942.4711	972.8045	997.3498	1023.2767	1056.4599	1076.4327	1082.5136	1101.9917	1125.8601	1131.283	1215.6689	1237.2072	1262.9874	1275.9355	1314.4738	1350.3761	1391.1976	1411.0999	1418.0217	1451.3809	1480.7168	1486.3933	1488.4556	1494.6275	1499.4216	1503.8383	3024.8769	3027.3089	3034.1061	3069.4951	3086.805	3093.8869	3102.9403	3116.4861	3118.744	3123.1794	3167.7783	3202.97
CC12CC3CC3(C)C1O2	C[C@]12C[C@@H]3C[C@]3(C)[C@H]1O2	
InChI=1S/C8H12O/c1-7-3-5(7)4-8(2)6(7)9-8/h5-6H,3-4H2,1-2H3	InChI=1S/C8H12O/c1-7-3-5(7)4-8(2)6(7)9-8/h5-6H,3-4H2,1-2H3/t5-,6+,7-,8-/m0/s1
