20
gdb 7185	6.2948	0.78807	0.73704	3.0668	73.43	-0.2505	-0.021	0.2294	1535.5593	0.173481	-386.143252	-386.13311	-386.132166	-386.179303	34.316	
C	-0.0290803954	 1.3992390333	-0.0465164031	-0.22927
O	 0.0074290959	-0.0069828881	-0.0042243333	-0.23432
C	-1.2745034349	-0.5922716947	 0.0299858301	-0.05169
C	-1.1223888553	-2.1109747258	 0.1211099706	-0.009145
C	-0.3726495573	-2.5234069306	 1.3944482012	-0.390138
C	-2.504222251	-2.7864457435	 0.0247611586	-0.282033
C	-2.3999278451	-4.2845527644	-0.1527845934	 0.161049
O	-2.9783004857	-5.1059125991	 0.5097985973	-0.240146
H	 1.004330578	 1.7531681065	-0.0704609951	 0.12896
H	-0.551871828	 1.7677634545	-0.943480502	 0.104321
H	-0.5299336514	 1.8222355542	 0.8387462513	 0.105577
H	-1.8468630611	-0.2159876343	 0.8972126227	 0.085282
H	-1.8436897645	-0.3196963966	-0.8761035731	 0.0816
H	-0.5278446494	-2.4201497208	-0.7501727427	 0.088978
H	-0.9470836531	-2.2509893447	 2.2878703378	 0.11596
H	-0.2040510947	-3.6044042208	 1.4285431859	 0.120458
H	 0.5947064865	-2.0200311991	 1.4454912429	 0.137113
H	-3.1208484524	-2.580571224	 0.9055843843	 0.119848
H	-3.0358828806	-2.4008277475	-0.8584786726	 0.116517
H	-1.7232940805	-4.5944114445	-0.9853493473	 0.071079
55.8431	60.1197	92.76	107.6204	150.9309	215.2889	234.7934	263.4452	310.7704	359.8538	408.9591	496.5307	551.8962	776.2141	872.4482	931.3882	937.6836	990.2282	992.5407	1030.595	1132.5439	1155.6187	1158.5962	1172.116	1190.0188	1220.575	1233.2113	1269.0845	1283.4773	1353.7586	1377.0933	1405.7381	1424.6567	1429.6579	1459.409	1481.7473	1485.8766	1489.5836	1502.5646	1505.5411	1526.0988	1837.1259	2843.885	2936.7101	2964.4842	2971.1537	3002.6032	3013.4873	3014.333	3034.1008	3087.9704	3097.1167	3115.5216	3134.08
COCC(C)CC=O	COC[C@@H](C)CC=O	
InChI=1S/C6H12O2/c1-6(3-4-7)5-8-2/h4,6H,3,5H2,1-2H3	InChI=1S/C6H12O2/c1-6(3-4-7)5-8-2/h4,6H,3,5H2,1-2H3/t6-/m0/s1
