20
gdb 85295	2.52844	1.54355	1.16609	3.3462	79.88	-0.2165	-0.0121	0.2044	1123.9598	0.170278	-403.157592	-403.14884	-403.147896	-403.19058	33.761	
C	 0.0628758514	 1.4917259753	-0.0098176881	-0.328291
N	 0.0461919662	 0.0404649789	 0.0460432633	-0.107423
C	 0.5269540925	-0.6116989593	-1.1686866176	-0.295969
C	 1.1032468012	-1.9561474612	-0.7072348763	 0.419983
O	 1.2400437078	-2.9361359896	-1.3952317367	-0.329711
C	 1.3857272571	-1.8251256231	 0.7490933042	-0.217688
C	 2.2172030773	-0.6023941943	 1.1590607325	-0.340728
C	 0.7159049479	-0.5463632625	 1.2022450428	 0.353033
C	-0.0254463731	-0.4466736481	 2.5119915709	-0.465469
H	 1.0771982173	 1.9132116664	-0.1387547424	 0.094877
H	-0.5520788921	 1.8309539574	-0.8490588296	 0.124461
H	-0.3657394867	 1.9104456209	 0.9048745909	 0.122881
H	-0.2720814163	-0.7664075009	-1.9005977642	 0.133569
H	 1.3282728443	-0.0450953361	-1.6790422422	 0.108005
H	 1.4310030536	-2.7209805428	 1.3551394874	 0.109222
H	 2.7598748085	-0.70512406	 2.0925340118	 0.123441
H	 2.7549995216	-0.0617634866	 0.3872667689	 0.121124
H	-0.1010788807	 0.5918122147	 2.8519198977	 0.123562
H	-1.0392865527	-0.8437642852	 2.4063562882	 0.13103
H	 0.4930563948	-1.0089334039	 3.2937941987	 0.120091
111.817	126.7831	203.4362	213.5622	266.6601	282.2594	314.7597	375.1885	454.4874	493.3224	551.814	567.3474	633.6782	686.0219	789.76	834.5977	860.2484	915.7531	944.6981	1017.5587	1021.7405	1026.7774	1047.0278	1081.0295	1114.9573	1147.7895	1148.5851	1197.9428	1206.9534	1232.4948	1267.5964	1280.2644	1350.7203	1384.7757	1422.8486	1455.9962	1476.5255	1481.5915	1489.0955	1497.9461	1502.6504	1504.4111	1842.0804	2930.4874	2936.159	3036.4519	3068.5684	3069.2079	3099.2372	3112.0261	3118.9094	3130.2302	3199.6069	3217.0534
CN1CC(=O)C2CC12C	CN1CC(=O)[C@H]2C[C@@]12C	
InChI=1S/C7H11NO/c1-7-3-5(7)6(9)4-8(7)2/h5H,3-4H2,1-2H3	InChI=1S/C7H11NO/c1-7-3-5(7)6(9)4-8(7)2/h5H,3-4H2,1-2H3/t5-,7-/m1/s1
