19
gdb 51873	4.33869	0.93216	0.80532	4.2835	75.26	-0.2248	0.0217	0.2465	1414.6051	0.161023	-456.334873	-456.326391	-456.325447	-456.368581	31.477	
N	-0.0870120948	 1.2731618999	-0.0826750658	-0.438778
C	-0.0423910206	 0.0147906731	-0.0397173103	 0.132449
O	-1.1945694062	-0.6976482823	-0.0810647537	-0.183176
C	-1.0609301228	-2.0931056111	-0.0617653507	 0.203796
C	-2.4432539975	-2.7093577281	 0.1525821206	-0.199116
N	-2.4278056325	-4.1646187247	 0.0037612009	-0.292041
C	-1.7633907731	-4.5693493755	-1.2376798538	-0.164095
C	-0.396295586	-3.9044828758	-1.4118408495	-0.074293
O	-0.5150081715	-2.4891703377	-1.3026994185	-0.254846
H	 0.8553240194	 1.6546134604	-0.0285922422	 0.230374
H	 0.8541539488	-0.6120668039	 0.0346120957	 0.098275
H	-0.3723898683	-2.4029274885	 0.7497520331	 0.056166
H	-2.8244512583	-2.4427974548	 1.142347769	 0.11493
H	-3.1165388532	-2.2778571274	-0.5972364233	 0.130305
H	-1.9493386465	-4.5829658251	 0.7968126249	 0.216461
H	-1.6633091	-5.6597128422	-1.2528855839	 0.105026
H	-2.4075661364	-4.2819279525	-2.0780517397	 0.119826
H	 0.3066561733	-4.2843524302	-0.6496560788	 0.083329
H	 0.0318315563	-4.0991315935	-2.399591234	 0.115411
72.7374	106.5998	114.6013	223.1033	247.0208	350.0067	363.9002	429.1632	473.1806	522.0213	569.3007	704.8341	784.3029	824.5157	844.0355	890.4821	926.8151	983.2691	1034.4249	1040.0483	1051.6994	1083.217	1118.8697	1149.1136	1161.1092	1175.0329	1226.0087	1284.4206	1290.0288	1324.1811	1339.7797	1373.4215	1383.3663	1406.4485	1418.5269	1431.0608	1467.9496	1477.855	1485.9198	1496.5979	1752.5633	2902.7099	2955.756	3031.6237	3046.0146	3052.6754	3083.8731	3087.4353	3103.2241	3499.7248	3516.5057
N=COC1CNCCO1	[NH][CH]O[C@H]1CNCCO1	
InChI=1S/C5H10N2O2/c6-4-9-5-3-7-1-2-8-5/h4-7H,1-3H2	InChI=1S/C5H10N2O2/c6-4-9-5-3-7-1-2-8-5/h4-7H,1-3H2/t5-/m0/s1
