20
gdb 124599	3.90263	0.99116	0.96119	0.3256	82.77	-0.242	0.0088	0.2508	1365.6647	0.171092	-399.357154	-399.347603	-399.346659	-399.392814	34.068	
C	-0.068975648	 1.5174098057	 0.0238868323	-0.386094
C	 0.0516881388	-0.0088465898	-0.0001280767	 0.063721
C	 0.7434105806	-0.5245953965	-1.2650827615	-0.386095
N	 0.7563912685	-0.4830216478	 1.1952229618	 0.132788
N	 2.0120317789	-0.1496839586	 1.4584130582	-0.230094
C	 2.2677104869	-0.7745064855	 2.6094691923	-0.127061
C	 1.1234892018	-1.4836548186	 3.0119063763	 0.298868
C	 0.8843397214	-2.3379525035	 4.2146442337	-0.496578
N	 0.1756775618	-1.278448524	 2.0894715146	-0.286905
H	 0.9214543199	 1.9791786794	-0.0030847126	 0.142524
H	-0.6375205687	 1.85983751	-0.8456645022	 0.118678
H	-0.5837762891	 1.8538738186	 0.9279404863	 0.127284
H	-0.939553904	-0.4594180705	 0.0889354802	 0.115607
H	 1.7597499708	-0.1279544779	-1.3332098003	 0.142525
H	 0.7969750194	-1.6166882209	-1.2627594527	 0.127283
H	 0.1849262527	-0.207549343	-2.1506319307	 0.118678
H	 3.2333308558	-0.6895356747	 3.0833181971	 0.116321
H	 1.01576486	-1.7709063063	 5.1424094258	 0.132936
H	-0.1341524445	-2.7310218214	 4.1954062204	 0.142678
H	 1.578220707	-3.1846124145	 4.2501087278	 0.132935
26.4047	55.9419	119.2368	189.9023	221.5042	259.28	269.0347	297.9903	364.8209	419.9911	502.961	641.7534	697.0991	705.3811	714.3935	866.0621	893.903	937.587	953.1017	994.9751	1017.1486	1061.1159	1067.8879	1094.8854	1147.4094	1195.6687	1209.3403	1275.4984	1344.1976	1351.4251	1386.8473	1397.6921	1409.4608	1417.0956	1421.1717	1436.9862	1482.4973	1485.2601	1489.3539	1496.4912	1499.9994	1513.074	1559.4217	3038.3192	3044.3728	3048.3279	3090.0647	3091.2507	3118.	3122.0005	3127.8711	3133.4573	3135.2432	3260.3387
CC(C)N1N=CC(C)=N1	CC(C)n1ncc(C)n1	
InChI=1S/C6H11N3/c1-5(2)9-7-4-6(3)8-9/h4-5H,1-3H3	InChI=1S/C6H11N3/c1-5(2)9-7-4-6(3)8-9/h4-5H,1-3H3
