17
gdb 79938	2.9015	1.78861	1.60296	1.8364	72.91	-0.2289	-0.0093	0.2196	897.89	0.13789	-421.764391	-421.757597	-421.756653	-421.79526	27.933	
O	-0.1973748056	 1.4569945359	 0.0008793492	-0.429332
C	-0.0839644532	 0.0759053694	 0.0678914299	 0.127616
C	-0.3789085181	-0.7335298222	 1.334565306	-0.144057
C	-1.1548293007	 0.0416481678	 2.3456749318	-0.14941
C	-2.3862932772	 0.276381187	 1.8896959394	 0.113437
C	-3.264924509	 1.4571505006	 1.5544167289	-0.149563
O	-3.0481870005	 1.1314571826	 0.1369297774	-0.323085
C	-2.6088932798	-0.2557442271	 0.5046133099	 0.087113
C	-1.2828728596	-0.8264126863	 0.0668313708	-0.163687
H	-1.1303800778	 1.6668987669	-0.1516536151	 0.302135
H	 0.7707616677	-0.2888115654	-0.4977975412	 0.10334
H	 0.3081301664	-1.5289862248	 1.6023063819	 0.09248
H	-0.6784692578	 0.5326660057	 3.1862516369	 0.109565
H	-4.3284280907	 1.3630267874	 1.8053605997	 0.11492
H	-2.9023446148	 2.4553723637	 1.8133620636	 0.128663
H	-3.4526945734	-0.9322154923	 0.3302048207	 0.089204
H	-1.2751348359	-1.7081873588	-0.5619364198	 0.090661
160.0229	191.6604	296.8725	332.4383	388.9762	523.5067	559.4836	604.137	674.0457	722.1626	742.9566	797.4766	814.8983	850.5203	868.9618	887.696	935.6765	949.7443	965.9001	1014.6416	1029.9356	1058.9729	1073.5594	1105.	1123.5855	1144.3618	1220.3833	1238.2785	1279.6443	1315.8114	1320.7345	1335.894	1362.8993	1399.9924	1457.4602	1513.126	1709.5396	3026.955	3042.6392	3099.1103	3128.3255	3167.9529	3186.4269	3201.2254	3703.0769
OC1C2C=C3COC3C12	O[C@H]1[C@H]2[CH][C]3CO[C@H]3[C@@H]12	
InChI=1S/C7H8O2/c8-6-4-1-3-2-9-7(3)5(4)6/h1,4-8H,2H2	InChI=1S/C7H8O2/c8-6-4-1-3-2-9-7(3)5(4)6/h1,4-8H,2H2/t4-,5+,6-,7+/m0/s1
