16
gdb 52059	2.94123	0.9354	0.77971	3.8619	70.9	-0.2688	-0.0401	0.2287	1427.2456	0.12101	-437.873349	-437.864067	-437.863123	-437.908856	32.083	
O	-0.174545127	 0.0509152089	 0.2317185057	-0.230624
C	 0.0205333634	 1.1754150725	-0.1421327516	 0.141788
C	 1.407420074	 1.7801181942	-0.2744315939	-0.178654
O	 1.2722860609	 3.0212164256	-0.9500183092	-0.281873
C	 2.4638321049	 3.719147863	-1.1265897848	 0.304421
C	 3.3671059374	 3.3354173471	-2.2874481499	-0.313653
C	 2.5312068836	 4.5851164892	-2.3570422609	-0.30908
C	 3.0775067089	 4.1914520034	 0.0986466077	 0.241284
N	 3.5568542405	 4.5445809495	 1.0902352971	-0.345064
H	-0.8018000993	 1.8725137152	-0.4137802338	 0.102683
H	 1.8291977778	 1.9174542465	 0.7331941164	 0.15322
H	 2.0620008128	 1.0859241655	-0.8196166339	 0.133123
H	 4.4384772851	 3.4267561892	-2.1553299041	 0.146973
H	 3.0397394396	 2.4786181397	-2.8650376721	 0.140362
H	 1.6406003117	 4.5653974377	-2.973807886	 0.147368
H	 3.0195585257	 5.5479356227	-2.2714503567	 0.147725
49.8924	59.721	111.2242	132.0421	180.0766	219.9356	321.7566	347.129	409.0194	525.1155	574.7237	614.5421	703.4195	745.7515	776.5807	898.6672	919.2424	960.4538	988.3088	1061.645	1064.1924	1092.9978	1109.2927	1114.9307	1194.6701	1241.9462	1279.6494	1304.2038	1361.8464	1411.4852	1450.8506	1479.4708	1484.3778	1847.6481	2348.8253	2906.1506	2995.5726	3041.3238	3146.789	3153.1436	3237.264	3251.5732
O=CCOC1(CC1)C#N	O=CCOC1(CC1)C#N	
InChI=1S/C6H7NO2/c7-5-6(1-2-6)9-4-3-8/h3H,1-2,4H2	InChI=1S/C6H7NO2/c7-5-6(1-2-6)9-4-3-8/h3H,1-2,4H2
