14
gdb 31909	6.46786	0.93459	0.82084	0.8398	77.56	-0.2163	-0.0202	0.1961	1330.4193	0.100261	-436.681927	-436.673735	-436.67279	-436.714984	29.329	
C	-0.0482985482	 1.29995313	 0.0787664112	-0.24091
O	 0.04241422	-0.125965437	-0.0542103494	-0.250187
C	 0.6556420184	-0.5456012875	-1.1433782678	 0.498471
N	 1.1859636807	 0.1473600437	-2.1071248081	-0.373236
C	 1.6754122234	-0.8258698116	-2.9633300475	-0.205224
C	 1.4130953121	-2.0657942771	-2.4678659054	 0.178605
O	 0.7368757287	-1.8777697678	-1.261266815	-0.21637
C	 1.6704627998	-3.371473311	-2.9015327804	 0.245841
C	 1.8992174152	-4.489659241	-3.2878860888	-0.412319
H	 0.9499253083	 1.7440506954	 0.108389634	 0.14958
H	-0.6046496343	 1.7261287682	-0.7599225528	 0.14958
H	-0.5744202234	 1.4714341545	 1.0171620785	 0.143893
H	 2.1845536733	-0.5756312117	-3.8800734384	 0.135125
H	 2.100881696	-5.4748430272	-3.6285086401	 0.197151
85.1425	134.932	142.3468	170.4651	247.7274	319.4541	434.7456	461.8671	524.3424	555.5525	632.3353	663.632	697.7902	731.3384	757.8508	869.7938	965.0912	1002.4708	1084.3962	1177.1929	1182.9687	1211.692	1230.66	1279.3303	1401.745	1465.8432	1480.0523	1498.9973	1607.8946	1637.9786	2230.4933	3052.0024	3128.5925	3167.0054	3272.0042	3503.8443
COC1=NC=C(O1)C#C	COc1ncc(o1)C#C	
InChI=1S/C6H5NO2/c1-3-5-4-7-6(8-2)9-5/h1,4H,2H3	InChI=1S/C6H5NO2/c1-3-5-4-7-6(8-2)9-5/h1,4H,2H3
