20
gdb 101934	1.93262	1.44486	0.87381	4.8301	75.1	-0.2403	0.0304	0.2706	1319.7282	0.170165	-440.299656	-440.289657	-440.288713	-440.335239	36.649	
N	 0.6322815389	-0.0640400071	 0.836264054	-0.529525
C	-0.3174144127	 0.31350232	-0.0653998436	 0.40435
O	-0.2597174844	 1.3728834813	-0.6622001399	-0.371753
C	-1.4758259424	-0.6767735442	-0.2889652618	-0.13613
C	-1.8826586718	-0.6310352497	-1.7761907627	-0.067032
O	-3.1047630534	-1.2987528544	-2.0335751115	-0.427361
C	-1.2108829364	-2.0928376491	 0.1899021817	-0.023384
C	-1.4321787765	-2.4866099423	 1.6361610283	-0.290448
C	-2.3621569578	-2.9986984604	 0.5682069958	-0.292309
H	 1.3525428457	 0.6022513022	 1.0625529209	 0.2585
H	 0.5296558997	-0.8909409227	 1.3970854347	 0.2652
H	-2.3252073133	-0.2729506367	 0.280824208	 0.107586
H	-2.0206022909	 0.4106817032	-2.0664891833	 0.139161
H	-1.0647712779	-1.0378143004	-2.3925202557	 0.087579
H	-2.971135998	-2.2337155188	-1.8514207641	 0.286395
H	-0.3748400006	-2.5817756681	-0.3062951362	 0.095642
H	-0.7447359398	-3.1894793133	 2.0946995276	 0.117415
H	-1.814432764	-1.7297407706	 2.313663542	 0.12382
H	-3.3624957526	-2.582152596	 0.5316151793	 0.134177
H	-2.3027898417	-4.0485146128	 0.3022262964	 0.118118
32.0863	108.0109	115.9691	174.2602	199.4793	244.0769	260.8541	327.5567	358.8705	387.9892	409.2595	495.503	554.6713	625.8117	701.9179	785.4579	827.7988	829.7901	889.9802	939.6661	947.2468	1003.0988	1053.4706	1061.681	1078.2461	1086.5887	1111.2702	1145.177	1151.5789	1205.6646	1219.9727	1225.5555	1266.0613	1303.2667	1355.0638	1388.4252	1404.6046	1420.543	1472.6765	1503.8611	1507.5859	1605.6574	1785.0403	2976.7821	3014.8849	3126.3814	3128.4961	3134.3025	3136.7062	3208.7528	3225.7537	3602.0387	3741.2044	3827.2839
NC(=O)C(CO)C1CC1	NC(=O)[C@@H](CO)C1CC1	
InChI=1S/C6H11NO2/c7-6(9)5(3-8)4-1-2-4/h4-5,8H,1-3H2,(H2,7,9)	InChI=1S/C6H11NO2/c7-6(9)5(3-8)4-1-2-4/h4-5,8H,1-3H2,(H2,7,9)/t5-/m0/s1
