21
gdb 107024	2.963	1.27277	1.0695	1.1643	78.95	-0.2387	0.0686	0.3073	1221.6743	0.180456	-424.184232	-424.174432	-424.173487	-424.218658	36.365	
C	-0.2728683961	 1.3284835175	-0.0502431809	-0.25809
O	 0.2045802217	 0.0001036182	 0.1096444919	-0.290676
C	 0.7730256011	-0.511796754	-1.0365010583	 0.458579
C	-0.0467680577	-0.9997202254	-2.1984274279	-0.346295
C	 0.8537998522	-1.9704029412	-1.4635807778	-0.165492
C	 2.316580262	-1.7916135363	-1.8981109657	-0.016967
C	 2.7091933857	-2.0868534669	-3.339580003	-0.406222
C	 2.2218034083	-0.2786731391	-1.4433914199	 0.001077
O	 2.3875638769	 0.7384697569	-2.4114068742	-0.430129
H	 0.5342022792	 2.0165216347	-0.3339682475	 0.123002
H	-1.0583387525	 1.3800609945	-0.8167843044	 0.111316
H	-0.6871568282	 1.6355820687	 0.9127683084	 0.121684
H	-1.1001176501	-1.1130787444	-1.9621388022	 0.113819
H	 0.1600323834	-0.6835006245	-3.215689109	 0.119327
H	 0.4509025462	-2.8375636717	-0.9549745068	 0.092703
H	 2.9836274463	-2.3308206303	-1.2176143347	 0.071504
H	 2.0888553211	-1.5385125188	-4.0527518075	 0.126855
H	 3.7525111964	-1.8069284981	-3.5273758496	 0.102117
H	 2.6119903453	-3.1557062915	-3.5573927611	 0.115488
H	 2.8459812983	-0.0923486974	-0.5597378071	 0.072779
H	 3.3263374904	 0.8180070391	-2.6092199028	 0.283622
83.0292	103.9057	158.9848	173.8121	201.1791	214.8459	259.2697	287.0549	344.0268	395.2667	451.0577	512.9364	597.7429	660.8193	711.8721	795.5786	850.3587	894.0436	955.8771	969.4503	976.9494	1016.5025	1050.4903	1065.8026	1075.197	1098.8322	1136.7383	1144.6294	1176.5609	1183.1602	1214.0914	1240.7899	1247.7662	1280.9951	1325.1235	1359.3298	1373.0904	1411.4404	1431.0559	1473.2856	1487.3721	1490.7537	1496.0949	1504.3533	1509.1048	2999.6932	3014.9897	3029.9151	3050.5575	3057.1481	3088.4863	3118.6404	3120.6976	3126.3533	3188.6248	3212.6437	3812.739
COC12CC1C(C)C2O	CO[C@]12C[C@H]1[C@@H](C)[C@H]2O	
InChI=1S/C7H12O2/c1-4-5-3-7(5,9-2)6(4)8/h4-6,8H,3H2,1-2H3	InChI=1S/C7H12O2/c1-4-5-3-7(5,9-2)6(4)8/h4-6,8H,3H2,1-2H3/t4-,5+,6-,7-/m1/s1
