12
gdb 23958	2.02597	1.90041	0.98059	4.5884	78.4	-0.2482	-0.0643	0.1839	1092.142	0.077716	-398.357576	-398.350174	-398.349229	-398.389729	27.284	
C	 0.0866157245	-1.2284968846	-0.0049640897	-0.397789
C	 0.0396577129	-0.0261386004	 0.0022101887	 0.206532
C	 0.0035567598	 1.3837644728	 0.010397856	 0.049435
C	-1.1186769106	 2.1860064936	 0.0305633279	 0.200578
O	-0.7602417428	 3.4998480378	 0.0326674565	-0.168575
C	 0.5924535226	 3.5399361506	 0.0138532147	-0.007476
C	 1.1184182627	 2.2884321687	-0.0003717149	-0.278622
C	-2.4919953927	 1.8721604595	 0.048183778	 0.233566
N	-3.617510274	 1.5974956426	 0.0625302216	-0.341375
H	 0.1140940335	-2.2903439827	-0.0110794635	 0.202765
H	 1.0279068196	 4.5255737027	 0.013093199	 0.160848
H	 2.1610417845	 2.0167319194	-0.0165301043	 0.140113
104.9411	155.07	181.984	204.3167	438.8089	467.0648	513.7702	513.9941	606.5079	629.2184	631.3307	651.1855	670.1474	729.6756	789.1132	848.8797	911.3096	1069.2141	1098.4457	1179.2896	1255.0429	1280.3702	1419.8869	1518.421	1600.0501	2239.7588	2341.6674	3270.8972	3292.3282	3500.6582
C#CC1=C(OC=C1)C#N	C#Cc1c(occ1)C#N	
InChI=1S/C7H3NO/c1-2-6-3-4-9-7(6)5-8/h1,3-4H	InChI=1S/C7H3NO/c1-2-6-3-4-9-7(6)5-8/h1,3-4H
