21
gdb 115949	3.08912	1.26817	1.03861	0.7717	77.53	-0.2475	0.074	0.3215	1227.0743	0.183806	-424.217736	-424.209309	-424.208364	-424.251046	32.026	
C	 0.0372273271	 1.5221152129	 0.1318870961	-0.388373
C	-0.0671052599	 0.0016577359	-0.0297694899	-0.190075
C	 0.7194101997	-0.5445590166	-1.2239546422	-0.001316
C	 2.2426100949	-0.3114928727	-1.1763968273	-0.106987
O	 2.8153981403	-1.2931862032	-2.0422352347	-0.264593
C	 2.033706388	-2.4637478787	-1.9546057641	 0.060522
C	 2.171764993	-3.2906864648	-0.6572769728	-0.104703
O	 0.9088998868	-2.7938131044	-0.1583878601	-0.29683
C	 0.651041511	-2.0655512956	-1.384536808	 0.067889
H	 1.0690309418	 1.8407683028	 0.3151805678	 0.119091
H	-0.315142559	 2.0436350575	-0.7652624798	 0.113574
H	-0.5671735089	 1.8683466616	 0.9758599318	 0.115552
H	 0.2856793211	-0.5018194583	 0.8766130405	 0.11737
H	-1.1216271425	-0.2792702896	-0.1429714978	 0.096861
H	 0.3338097732	-0.1058381917	-2.1547603836	 0.076229
H	 2.5555716218	 0.6685437973	-1.5429109209	 0.112506
H	 2.6154921544	-0.4317431087	-0.1474317032	 0.099167
H	 2.1118543073	-3.0040913316	-2.8987333379	 0.090023
H	 2.1527395418	-4.3790349037	-0.7945562439	 0.101287
H	 3.0178558704	-3.016459903	-0.0167234922	 0.108923
H	-0.2579635223	-2.4222894954	-1.8789586578	 0.073881
85.6958	110.9881	161.8738	191.1811	236.7528	288.6255	377.4629	419.2552	490.248	642.3147	654.61	779.827	807.1515	849.3537	874.2237	905.0707	939.8306	960.7142	982.5849	1002.1339	1020.1718	1032.4686	1059.0094	1085.5368	1131.4249	1148.1902	1167.7847	1176.2653	1228.486	1245.2402	1248.672	1275.7678	1310.1561	1312.1127	1335.011	1351.3985	1373.1338	1381.51	1401.2711	1414.6352	1490.6882	1501.1042	1506.7553	1510.0002	1519.6602	2986.3557	3014.6174	3017.2764	3029.2834	3031.2289	3059.7526	3069.2967	3072.6026	3099.0529	3101.3514	3104.5751	3109.6283
CCC1COC2COC12	CC[C@H]1CO[C@H]2CO[C@@H]12	
InChI=1S/C7H12O2/c1-2-5-3-8-6-4-9-7(5)6/h5-7H,2-4H2,1H3	InChI=1S/C7H12O2/c1-2-5-3-8-6-4-9-7(5)6/h5-7H,2-4H2,1H3/t5-,6-,7-/m0/s1
