18
gdb 40872	4.04666	1.45183	1.33786	2.8996	74.17	-0.2338	0.0741	0.3079	986.1413	0.148964	-401.840851	-401.833959	-401.833015	-401.872341	27.56	
C	-0.0206707445	 1.4064300654	 0.1983079832	-0.18273
C	 1.4781342361	 1.4238420211	-0.0476116724	-0.093119
C	 1.3454204418	 0.1110661375	-0.7555672058	-0.028988
C	 2.0084352639	 0.1245362771	 0.5929871259	-0.171603
C	 0.7925546198	-0.5826258171	 1.1498271044	 0.325732
C	 0.8050764165	-2.1054998414	 1.369123427	-0.140313
O	 0.3065589477	-1.950935723	 2.7153917569	-0.277828
C	 0.2204071529	-0.519323499	 2.5745527095	-0.147238
N	-0.0102322705	-0.0942037871	-0.0364961708	-0.2111
H	-0.4206734978	 1.717000249	 1.1704292726	 0.102675
H	-0.5873578389	 1.8886332889	-0.6020853778	 0.112508
H	 2.1430677672	 2.2470336264	-0.2780180447	 0.095418
H	 1.6119519894	-0.2663809335	-1.7316319084	 0.104629
H	 3.056468383	-0.0064808456	 0.8330656724	 0.095798
H	 0.1089354018	-2.6551006397	 0.724777682	 0.11204
H	 1.7896814112	-2.5894336321	 1.3501950307	 0.09796
H	 0.8294811201	 0.0093256166	 3.3185606502	 0.101927
H	-0.8154721397	-0.1583829636	 2.6316400649	 0.104231
77.4417	179.8534	224.7561	333.9435	431.6473	470.9288	553.629	770.2865	775.7292	799.0935	812.9762	851.7626	860.2106	875.1322	907.6156	955.6795	979.7377	985.8701	1003.1723	1032.0429	1034.8687	1037.2849	1055.2757	1094.5239	1125.9607	1148.0954	1157.838	1163.2198	1178.6907	1206.2704	1220.1432	1291.0658	1304.2417	1321.0867	1358.5941	1392.2505	1495.9235	1513.3814	1522.3876	3001.3852	3016.476	3038.0573	3050.3181	3065.6835	3102.6114	3186.9696	3193.9344	3229.518
C1C2C3C2C2(COC2)N13	C1[C@@H]2[C@H]3[C@@H]2C2(COC2)N13	
InChI=1S/C7H9NO/c1-4-5-6(4)8(1)7(5)2-9-3-7/h4-6H,1-3H2	InChI=1S/C7H9NO/c1-4-5-6(4)8(1)7(5)2-9-3-7/h4-6H,1-3H2/t4-,5+,6-/m0/s1
