20
gdb 118012	1.93382	1.16154	0.89003	4.3558	76.1	-0.2743	0.0218	0.2961	1415.8719	0.168097	-440.292955	-440.282222	-440.281278	-440.329686	37.543	
C	 0.0439112735	 1.5278583851	-0.1231360134	-0.389583
C	-0.0226754883	 0.0118136367	-0.0682127458	-0.042691
O	 0.6568978996	-0.5043049323	-1.2038237616	-0.279938
C	 0.7384694949	-1.9190006303	-1.2886013001	 0.114753
C	-0.5056025664	-2.5279015723	-1.9340917761	-0.415201
C	 1.9994092998	-2.1706052556	-2.1455712868	-0.027403
O	 1.9373132645	-1.4615541865	-3.3612051898	-0.412897
C	 3.2129052801	-1.8140255838	-1.3736574622	 0.272859
N	 4.1565067497	-1.5398609776	-0.7660889777	-0.323087
H	 1.0839391425	 1.8652342732	-0.1220700995	 0.137511
H	-0.4409934059	 1.9027905112	-1.029004427	 0.127458
H	-0.4632200963	 1.9594534541	 0.7446073129	 0.122296
H	 0.4546715768	-0.3656404671	 0.8490261696	 0.104411
H	-1.0694577008	-0.3272482541	-0.060480492	 0.095929
H	 0.9008830551	-2.348256452	-0.2889094622	 0.090813
H	-1.4049481538	-2.2511535014	-1.3780089226	 0.124687
H	-0.6036092661	-2.173997366	-2.9630774532	 0.142162
H	-0.4403537577	-3.6206014265	-1.9428877571	 0.122217
H	 2.063806691	-3.2334626512	-2.4011205139	 0.13294
H	 1.6913070179	-0.5564751533	-3.1239988215	 0.302767
50.1311	52.4074	93.4835	146.3131	166.1606	219.043	240.8425	243.6495	301.4156	315.5703	386.0921	434.5324	488.0902	525.976	593.0477	696.9273	814.9373	823.4634	883.9627	946.1523	976.5332	1013.7802	1062.4027	1111.8846	1127.7536	1153.6003	1161.1397	1187.8596	1274.474	1298.2251	1304.1503	1358.2864	1372.8622	1403.2493	1407.0724	1427.5262	1443.5026	1483.2815	1491.0322	1495.6034	1500.4061	1529.173	2356.984	2980.9433	3002.3963	3013.6372	3047.2283	3047.5643	3068.9274	3116.839	3121.744	3126.2209	3136.6763	3760.8844
CCOC(C)C(O)C#N	CCO[C@@H](C)[C@@H](O)C#N	
InChI=1S/C6H11NO2/c1-3-9-5(2)6(8)4-7/h5-6,8H,3H2,1-2H3	InChI=1S/C6H11NO2/c1-3-9-5(2)6(8)4-7/h5-6,8H,3H2,1-2H3/t5-,6-/m0/s1
