20
gdb 70411	2.28133	1.50443	1.38268	3.4658	78.87	-0.2369	-0.0296	0.2073	1083.8965	0.168851	-403.117829	-403.108604	-403.10766	-403.151527	34.677	
C	 0.0646878198	 1.5268921241	 0.1226779562	-0.504264
C	-0.0205250302	 0.031507567	 0.0010988958	 0.309214
C	-0.9097240819	-0.8008234822	 0.8394830489	-0.293587
N	 0.5476928403	-0.9114941319	 1.0472752987	-0.157075
C	 1.0331085538	-1.8000534222	-0.0665281844	-0.214383
C	 0.5598671247	-0.8162774732	-1.1666602748	 0.143509
C	-0.4056714867	-1.2837802734	-2.2588237784	-0.476782
C	 1.7185711418	-0.0880049692	-1.8297638966	 0.119912
O	 2.8869001236	-0.2678941435	-1.6047470427	-0.246025
H	 1.0748657461	 1.8932248092	-0.0886483675	 0.136209
H	-0.628903884	 2.0201771444	-0.5684684623	 0.12258
H	-0.194745301	 1.836066284	 1.1390317134	 0.135021
H	-1.4203707898	-0.3016227963	 1.6580857139	 0.12081
H	-1.4495682831	-1.6503280726	 0.4270476706	 0.109121
H	 2.118923807	-1.8929994969	-0.0342359276	 0.13869
H	 0.5696432154	-2.7919706499	-0.0698939915	 0.099176
H	-1.3051573358	-1.7309667611	-1.829717385	 0.127296
H	-0.7186797397	-0.4478306254	-2.8952531394	 0.122834
H	 0.0668405171	-2.0340473632	-2.9025549112	 0.130311
H	 1.3965955524	 0.6656013821	-2.5863741162	 0.077432
69.8843	139.3465	179.4511	191.6208	218.4163	255.3171	315.6098	332.8019	386.6631	427.8442	487.4804	574.6202	609.8377	718.2575	748.5936	838.6677	855.9324	901.3093	922.0384	967.0112	985.2787	1014.9005	1035.5005	1094.7749	1108.1122	1128.7457	1148.5326	1179.3952	1225.5707	1251.5887	1263.8685	1314.5302	1362.9212	1405.4672	1418.6327	1429.2412	1483.4368	1487.1672	1490.0856	1493.7325	1497.8796	1514.7977	1829.5785	2855.412	3028.7093	3030.0907	3049.0132	3091.2728	3092.3557	3103.6861	3114.2964	3121.1194	3135.4422	3191.3434
CC12CN1CC2(C)C=O	C[C@]12CN1C[C@]2(C)C=O	
InChI=1S/C7H11NO/c1-6(5-9)3-8-4-7(6,8)2/h5H,3-4H2,1-2H3	InChI=1S/C7H11NO/c1-6(5-9)3-8-4-7(6,8)2/h5H,3-4H2,1-2H3/t6-,7-,8?/m1/s1
