23
gdb 108675	1.88969	1.32533	0.85937	1.9689	89.91	-0.2186	0.0254	0.244	1455.4973	0.204875	-388.308471	-388.298076	-388.297132	-388.345221	36.884	
C	-0.0465717217	 1.6910715595	 0.3803243141	-0.37248
C	 0.0054699403	 0.1944785182	 0.0205255861	-0.297148
C	-1.3449620522	-0.4555071236	-0.0437380104	 0.187419
C	-2.0008351569	-0.9513731175	-1.0978066241	 0.187005
C	-1.5864883603	-1.0104418507	-2.5383372343	-0.297126
C	-1.3298467286	-2.4409520197	-3.0480774072	-0.37239
C	-3.3323003628	-1.49514006	-0.6395438006	-0.14754
O	-3.3842243575	-1.2781902676	 0.7643897635	-0.264646
C	-2.188547174	-0.640673829	 1.1942563662	-0.147562
H	 0.9613568378	 2.1158411673	 0.4148982423	 0.114228
H	-0.6266446801	 2.2504049467	-0.360196114	 0.121307
H	-0.5098679408	 1.8545226918	 1.3581234285	 0.12223
H	 0.5241416574	 0.0711136265	-0.9357238107	 0.104317
H	 0.6190468144	-0.3264046475	 0.7692142592	 0.10502
H	-2.3713101337	-0.5519403932	-3.156483581	 0.104944
H	-0.6869250945	-0.4057192223	-2.6924321898	 0.104337
H	-0.5311803359	-2.9218747378	-2.4748971553	 0.121315
H	-2.2239348627	-3.0659029987	-2.9614895937	 0.122203
H	-1.0333563679	-2.428911728	-4.1014058059	 0.114213
H	-4.17622673	-0.9819072681	-1.1317963628	 0.095773
H	-3.4482100606	-2.57031193	-0.8524182618	 0.099404
H	-1.6790157414	-1.2647634717	 1.9484132738	 0.09582
H	-2.4345459782	 0.3138722756	 1.6873141679	 0.099357
37.9277	50.5563	94.9902	134.1464	168.5963	194.5502	219.9799	278.5952	301.6042	348.4916	471.0208	557.2453	587.6449	653.0558	782.8891	783.3316	818.5365	938.0902	954.643	967.157	975.7454	992.3998	1048.6531	1054.0748	1076.6196	1101.5945	1106.4835	1151.4002	1178.8356	1205.6833	1229.5766	1262.9897	1295.1949	1313.3963	1349.2949	1350.5716	1382.9806	1395.0447	1410.6934	1410.9624	1474.7637	1489.5896	1497.6545	1498.0135	1505.2639	1509.5692	1517.6435	1531.1351	1743.8536	2951.0212	2957.8693	2973.207	2973.8269	3009.0808	3010.6756	3038.2497	3038.5615	3063.5548	3069.2841	3108.9912	3109.2517	3111.4908	3112.0542
CCC1=C(CC)COC1	CCC1=C(CC)COC1	
InChI=1S/C8H14O/c1-3-7-5-9-6-8(7)4-2/h3-6H2,1-2H3	InChI=1S/C8H14O/c1-3-7-5-9-6-8(7)4-2/h3-6H2,1-2H3
