15
gdb 23909	4.75542	0.90129	0.88878	1.9432	51.37	-0.2657	0.083	0.3487	1283.8739	0.11385	-531.30323	-531.294587	-531.293643	-531.337684	29.28	
C	-0.0439071413	 1.3900127127	-0.0406640961	-0.233195
O	-0.0040004986	-0.018160946	-0.0115442822	-0.23325
C	 0.6688139718	-0.5199721502	 1.1188930388	-0.061827
C	 0.6423700586	-2.0422975614	 1.0278938776	-0.338143
C	 1.3399898403	-2.7056826935	 2.1938400581	 0.276973
F	 0.770317912	-2.3788080478	 3.367494852	-0.085195
F	 1.3013488152	-4.0418355178	 2.0889840255	-0.076455
F	 2.6338206656	-2.3466221743	 2.2707313702	-0.085179
H	 0.9670866369	 1.8257320163	-0.0695543085	 0.108153
H	-0.5814795099	 1.6819914664	-0.9456342431	 0.131468
H	-0.5698410644	 1.8009499567	 0.835307914	 0.10814
H	 1.7096121006	-0.1599042713	 1.1494076366	 0.104002
H	 0.1794152328	-0.1869069113	 2.0480776152	 0.104033
H	-0.3908775105	-2.3987875052	 1.0047331562	 0.140231
H	 1.133502721	-2.3714556033	 0.1082846857	 0.140244
65.0063	66.5223	126.554	134.4725	228.4235	286.313	327.6605	361.4798	463.4962	539.0702	568.9277	659.6972	809.1722	853.7383	991.4862	1020.6282	1070.9647	1162.447	1173.9718	1180.3943	1205.0713	1237.8294	1265.2974	1269.381	1324.114	1365.9219	1435.3806	1480.9926	1482.5206	1485.1032	1505.6054	1537.0724	2967.5634	2978.8654	3003.7596	3019.3361	3074.7348	3119.5364	3125.923
COCCC(F)(F)F	COCCC(F)(F)F	
InChI=1S/C4H7F3O/c1-8-3-2-4(5,6)7/h2-3H2,1H3	InChI=1S/C4H7F3O/c1-8-3-2-4(5,6)7/h2-3H2,1H3
