13
gdb 130168	5.11214	0.93957	0.79478	2.3303	62.83	-0.2239	-0.0259	0.198	1314.4541	0.090478	-486.108137	-486.100151	-486.099206	-486.141489	28.252	
N	-0.0816766737	 1.3617550866	 0.1484572886	-0.579545
C	-0.0145763323	-0.0082833788	 0.0410789118	 0.418324
N	-1.0840065574	-0.7883493272	 0.0508683578	-0.295705
N	-0.510301753	-2.0395566568	 0.0014190139	-0.286997
C	 0.8194721498	-1.9163707856	-0.0473063236	 0.516542
O	 1.5918697571	-3.0218877887	-0.1181292813	-0.240456
C	 2.9620131722	-2.8682138968	 0.0010418656	 0.160475
O	 3.6783185881	-3.8109748029	-0.0854941942	-0.244654
N	 1.1939147934	-0.6576018153	-0.0271248439	-0.415949
H	 0.6982185216	 1.8408395404	-0.2758887413	 0.262028
H	-0.9781414064	 1.7486258167	-0.1073830128	 0.262562
H	-1.074419	-2.8718953573	-0.0031610142	 0.288384
H	 3.2458047407	-1.8225601743	 0.1739854835	 0.15499
53.023	115.5783	153.3148	245.4296	312.5664	358.8135	392.3083	445.3898	470.7774	546.5198	603.994	715.9079	734.7256	781.2131	871.5193	1015.0789	1046.593	1061.5075	1085.6783	1116.3895	1172.3003	1309.4531	1395.6011	1429.4064	1513.9833	1588.9961	1604.639	1659.3669	1883.9236	3082.9482	3578.3154	3684.1304	3685.7433
NC1=NNC(OC=O)=N1	Nc1n[nH]c(OC=O)n1	
InChI=1S/C3H4N4O2/c4-2-5-3(7-6-2)9-1-8/h1H,(H3,4,5,6,7)	InChI=1S/C3H4N4O2/c4-2-5-3(7-6-2)9-1-8/h1H,(H3,4,5,6,7)
