19
gdb 61476	2.64276	0.88477	0.81983	1.6724	83.83	-0.2585	0.0308	0.2893	1503.7197	0.154941	-385.820574	-385.809925	-385.808981	-385.856443	38.817	
C	 0.9308422388	-0.2740611744	 1.2662642856	-0.402361
C	 0.0762530472	 0.0908887685	 0.0370047688	-0.134107
C	 0.7370305416	-0.4024786184	-1.2692965809	-0.193912
C	 0.0326160401	 0.1320400421	-2.5306841854	-0.071445
O	 0.0131609511	 1.5594483815	-2.5569547998	-0.416586
C	 0.6375786626	-0.4191951231	-3.7453391112	 0.291987
C	 1.1803035425	-0.8471672245	-4.7291946139	-0.436882
C	-1.2823690409	-0.4348581716	 0.1690328667	 0.340081
C	-2.3906423156	-0.8897881801	 0.2755881974	-0.49594
H	 1.0423972363	-1.3590936248	 1.3542571869	 0.126114
H	 1.9281183406	 0.1687749887	 1.180271388	 0.113499
H	 0.4671681897	 0.0937515131	 2.1850529018	 0.127755
H	 0.0103763537	 1.1838361311	-0.0316351566	 0.122527
H	 1.7833100745	-0.0733096546	-1.2866346405	 0.095592
H	 0.7411138557	-1.497402116	-1.2961069947	 0.117278
H	-1.022768322	-0.161389895	-2.485734828	 0.134655
H	 0.8904603383	 1.8546015266	-2.8256221378	 0.284835
H	 1.6370922258	-1.2300439703	-5.6083396498	 0.199709
H	-3.3747328002	-1.2765131889	 0.3736704635	 0.197202
50.9152	82.961	114.334	163.7596	209.6087	215.7348	259.0452	264.6449	305.2672	328.0693	423.4493	509.8073	557.5516	568.8742	575.5166	625.0926	631.3225	641.1433	673.8334	792.3116	852.7156	927.1871	951.1259	1005.0367	1056.8084	1094.7825	1107.9159	1150.2241	1193.4204	1276.1734	1287.614	1330.7842	1363.1929	1374.3636	1408.4272	1421.3853	1472.551	1492.2803	1500.4395	2230.8529	2232.5182	3030.8065	3035.3281	3039.9054	3051.8467	3086.725	3111.5473	3121.641	3502.3559	3504.1234	3804.0125
CC(CC(O)C#C)C#C	C[C@@H](C[C@@H](O)C#C)C#C	
InChI=1S/C8H10O/c1-4-7(3)6-8(9)5-2/h1-2,7-9H,6H2,3H3	InChI=1S/C8H10O/c1-4-7(3)6-8(9)5-2/h1-2,7-9H,6H2,3H3/t7-,8+/m1/s1
