16
gdb 44856	3.34427	1.65374	1.48317	1.9411	66.8	-0.229	-0.0246	0.2044	898.7882	0.126927	-437.87164	-437.865346	-437.864402	-437.902259	25.985	
O	 0.0134979906	 0.0214358654	 0.0168747734	-0.316801
C	-0.0081102893	 1.2218383553	 0.0249073254	 0.419539
C	-1.2570747698	 2.1423628459	 0.0304419398	-0.344535
C	-0.5822502323	 3.538903102	 0.0307321517	-0.074571
N	 0.6458801099	 3.3389529314	-0.7790180915	-0.286147
C	 1.1905090388	 2.2032064073	-0.0088696255	-0.178489
C	 1.1929406554	 2.7906502023	 1.4128522565	 0.050309
O	 1.3454372776	 4.207228162	 1.4804372985	-0.231478
C	 0.024107478	 3.6786322881	 1.4341383715	 0.064015
H	-1.8506936927	 1.975895728	-0.8744319467	 0.12969
H	-1.8957961791	 1.9192775807	 0.8911051637	 0.129095
H	-1.1924683478	 4.3681314486	-0.3270001041	 0.087743
H	 0.4020149984	 3.0413890171	-1.7211135559	 0.22707
H	 2.1216678971	 1.7893224344	-0.3913194669	 0.095804
H	 1.547390901	 2.2092168096	 2.2565602924	 0.119449
H	-0.6069300158	 3.8391186119	 2.3025672375	 0.109309
116.8559	294.8675	335.7944	440.5809	462.1585	539.4974	591.6496	613.511	721.349	775.1468	825.0935	840.3984	854.7138	909.2972	913.0286	937.5626	946.1526	976.4057	1005.8643	1027.7093	1044.2371	1097.2852	1120.0028	1137.3871	1196.8081	1212.8752	1228.1734	1247.5175	1283.638	1302.1131	1332.4986	1399.7837	1413.126	1460.422	1855.8042	3051.6857	3095.0779	3116.2594	3143.9463	3167.9163	3186.1037	3494.3316
O=C1CC2NC1C1OC21	O=C1C[C@@H]2N[C@H]1[C@H]1O[C@@H]21	
InChI=1S/C6H7NO2/c8-3-1-2-5-6(9-5)4(3)7-2/h2,4-7H,1H2	InChI=1S/C6H7NO2/c8-3-1-2-5-6(9-5)4(3)7-2/h2,4-7H,1H2/t2-,4+,5-,6+/m0/s1
