16
gdb 53004	4.54021	0.93529	0.86802	1.6216	78.99	-0.2324	0.0109	0.2433	1362.2861	0.123856	-400.718053	-400.709747	-400.708802	-400.752708	30.013	
C	 0.0206506632	 1.4668813325	-0.0258213193	-0.507878
C	 0.0082103363	 0.0121127413	-0.0089918959	 0.253459
C	 0.0072472812	-1.1920747106	 0.01107635	-0.14043
C	-0.0051595248	-2.62256641	 0.0283720451	 0.143509
C	-0.4827534427	-3.4271097775	-1.1798859433	-0.341593
C	-1.264081718	-3.5057188141	 0.0905405147	 0.02633
O	-0.9337473385	-4.5614335941	 0.9746064588	-0.209981
C	 0.3698363124	-4.3516714993	 1.304881992	 0.085266
N	 0.9641452317	-3.3192757943	 0.8625218003	-0.298508
H	 0.8671144752	 1.8547016141	 0.5514593655	 0.155447
H	 0.1096298111	 1.856184059	-1.0461177505	 0.148427
H	-0.8948166675	 1.8809198095	 0.4114028274	 0.14816
H	-0.9364782142	-2.8543668315	-1.9799420088	 0.13399
H	 0.1199899344	-4.2754249822	-1.4863628616	 0.129542
H	-2.2858550733	-3.1652797188	 0.1882891756	 0.126768
H	 0.8031911533	-5.1104109739	 1.94446829	 0.147492
18.1313	93.6823	100.9929	260.5025	304.7681	341.8681	403.3718	451.2016	516.9556	528.9144	634.544	747.2821	777.4262	829.796	903.4618	922.6395	949.6575	983.6272	1007.2723	1050.1606	1054.3961	1055.115	1073.2264	1093.7675	1141.2347	1208.9375	1301.5331	1334.699	1391.2057	1415.0565	1460.9679	1475.6866	1478.5835	1667.092	2373.3031	3026.0851	3085.4497	3089.9206	3135.2946	3210.5962	3232.4018	3235.6845
CC#CC12CC1OC=N2	CC#C[C@]12C[C@H]1OC=N2	
InChI=1S/C7H7NO/c1-2-3-7-4-6(7)9-5-8-7/h5-6H,4H2,1H3	InChI=1S/C7H7NO/c1-2-3-7-4-6(7)9-5-8-7/h5-6H,4H2,1H3/t6-,7+/m1/s1
