18
gdb 19946	3.81804	1.47689	1.13461	2.6016	72.83	-0.2332	-0.0164	0.2168	1062.9731	0.153417	-347.799712	-347.791884	-347.79094	-347.832631	29.054	
O	 0.2726667262	 0.0619520707	-0.1602159774	-0.293861
C	 0.0690344449	 1.2310668542	-0.0092109608	 0.383695
C	-1.1982962997	 2.0773940089	 0.2038115951	-0.338225
C	-0.2745505614	 3.2058764614	 0.7514729533	-0.255599
C	 0.9899301951	 2.4538362191	 0.2138880685	-0.096014
C	 2.2070101248	 2.289597497	 1.0799551419	 0.02576
C	 3.5321678755	 1.9081060066	 0.4700168374	-0.259212
C	 3.3338125966	 3.2954248399	 1.0246504547	-0.278881
H	-1.677322386	 2.3296477713	-0.7481019703	 0.130294
H	-1.953861739	 1.6531248543	 0.8693503629	 0.128107
H	-0.4427172025	 4.2079356449	 0.3556030237	 0.107688
H	-0.2824522591	 3.2518512487	 1.8432187959	 0.113121
H	 1.2786266894	 2.8536702668	-0.7677409928	 0.093936
H	 1.9983073943	 1.864648055	 2.0587017469	 0.08367
H	 4.1651267637	 1.2177963509	 1.0156416599	 0.116688
H	 3.5771388296	 1.7905199602	-0.6073612655	 0.115805
H	 3.2446086013	 4.1174091659	 0.321916267	 0.109612
H	 3.8323380764	 3.5577517543	 1.9511527497	 0.113416
58.9325	87.8268	134.1595	231.6276	298.6878	388.3428	440.4476	559.1808	671.3666	704.5526	757.8689	788.409	828.3052	884.8066	910.802	937.9199	940.4487	991.7765	1015.1207	1056.5333	1060.2855	1079.9782	1085.4423	1132.6025	1184.9813	1196.029	1202.412	1224.7312	1233.2916	1240.3278	1257.546	1293.6383	1420.2744	1443.9486	1471.6128	1492.3427	1506.052	1888.4364	3020.7758	3057.6804	3074.3879	3113.2083	3130.7171	3133.234	3135.8154	3139.3975	3210.0029	3225.9357
O=C1CCC1C1CC1	O=C1CC[C@H]1C1CC1	
InChI=1S/C7H10O/c8-7-4-3-6(7)5-1-2-5/h5-6H,1-4H2	InChI=1S/C7H10O/c8-7-4-3-6(7)5-1-2-5/h5-6H,1-4H2/t6-/m0/s1
