17
gdb 131644	2.96246	1.40444	0.99421	2.769	76.65	-0.2262	0.0324	0.2586	1167.5573	0.13795	-417.981709	-417.97364	-417.972695	-418.015551	29.154	
O	 0.5542592134	-0.0213849735	 0.9292032265	-0.418007
C	-0.1372143682	 0.2927728301	-0.2777056922	-0.210339
C	-1.4688599398	-0.3776246847	-0.2504035705	 0.004576
C	-1.8044393079	-1.6626333188	 0.1466048411	 0.348391
C	-1.6867482503	-3.056033619	 0.7507653491	-0.375711
C	-3.2559500728	-3.1347770459	 0.5479443717	-0.16933
N	-3.1274044111	-1.7866919416	-0.0238742975	 0.083609
N	-3.7612694874	-0.7070559229	-0.493746079	-0.314644
C	-2.7345053347	 0.1505848315	-0.6368187612	-0.066454
H	 1.4498923658	 0.3220489342	 0.851611745	 0.285113
H	-0.2787823929	 1.3791754005	-0.3903655737	 0.094335
H	 0.4493269163	-0.0434761274	-1.1488675109	 0.093618
H	-1.1161447609	-3.7853836557	 0.1715861025	 0.128679
H	-1.3645472762	-3.0893970734	 1.7932655177	 0.138913
H	-3.6140321937	-3.8875175642	-0.1588432634	 0.132962
H	-3.8457228152	-3.1701041051	 1.4673023434	 0.136762
H	-2.9289405744	 1.1418480158	-1.0230121886	 0.107527
34.305	95.2166	151.5969	221.133	262.534	303.8885	412.7201	503.3329	637.7697	657.7563	683.4452	739.3243	811.2783	854.9797	866.0369	895.4815	1018.97	1054.3518	1059.7294	1068.3375	1133.9389	1147.9837	1170.7814	1201.5026	1215.7442	1246.5677	1255.3258	1282.8753	1312.8957	1358.4945	1407.8515	1471.1827	1475.7753	1489.7201	1519.4043	1529.962	1617.8998	2955.9047	2987.8389	3063.782	3076.6868	3116.457	3131.5521	3232.8255	3818.0106
OCC1=C2CCN2N=C1	OCc1c2CCn2nc1	
InChI=1S/C6H8N2O/c9-4-5-3-7-8-2-1-6(5)8/h3,9H,1-2,4H2	InChI=1S/C6H8N2O/c9-4-5-3-7-8-2-1-6(5)8/h3,9H,1-2,4H2
