17
gdb 51901	5.93564	0.72994	0.66909	6.2663	73.56	-0.2258	-0.0084	0.2174	1620.1173	0.135848	-455.165306	-455.156443	-455.155498	-455.201056	30.574	
O	 0.063211083	-0.0306815226	 0.558091289	-0.249779
C	 0.2310540643	 0.8313269049	-0.2647199786	 0.155205
C	 1.0806466647	 2.0728867779	-0.0369027367	-0.238912
N	 0.8724988989	 3.0230425468	-1.1077440094	-0.401928
C	 1.001697973	 4.2557155879	-0.8681931288	 0.51264
N	 0.7603086682	 5.2764119675	-1.7735350062	-0.360336
C	 1.3915669942	 6.4990690902	-1.303823383	-0.184121
C	 1.3430260037	 6.2394665207	 0.2087910034	-0.08145
O	 1.3897255865	 4.8090801571	 0.3215583854	-0.24987
H	-0.2222333632	 0.7807011741	-1.2802439187	 0.083369
H	 0.8680416463	 2.4621026198	 0.9678470115	 0.132146
H	 2.1281947723	 1.7291979352	-0.0147766189	 0.129599
H	 0.8108272098	 5.0168209672	-2.746057878	 0.259578
H	 2.4264715145	 6.612344115	-1.6589453427	 0.113589
H	 0.8247743677	 7.3889888464	-1.589434755	 0.124822
H	 2.1890894004	 6.6579587008	 0.7560981622	 0.129432
H	 0.4075617057	 6.602793201	 0.6489992346	 0.126015
23.374	51.8384	111.2574	148.9697	207.206	239.1816	326.9565	409.3884	529.2787	599.9528	683.5439	691.2705	728.059	771.9433	896.3243	918.5941	955.5241	1040.2746	1061.275	1069.2006	1095.7489	1114.6907	1141.8106	1216.2054	1234.655	1241.9328	1258.8525	1326.1109	1346.5244	1401.2476	1415.5265	1438.3257	1447.4081	1517.4384	1530.1321	1809.4386	1838.6724	2887.995	2975.0099	2994.1987	3035.5237	3044.6567	3089.3857	3123.383	3642.0129
O=CCN=C1NCCO1	O=CCN=C1NCCO1	
InChI=1S/C5H8N2O2/c8-3-1-6-5-7-2-4-9-5/h3H,1-2,4H2,(H,6,7)	InChI=1S/C5H8N2O2/c8-3-1-6-5-7-2-4-9-5/h3H,1-2,4H2,(H,6,7)
