14
gdb 21922	3.77556	1.86484	1.29166	1.8665	59.04	-0.2131	0.0364	0.2495	881.6558	0.109654	-415.872085	-415.865092	-415.864148	-415.903301	26.262	
O	 0.6780966639	-0.0583384662	 0.7324198366	-0.421191
C	-0.1432101394	 0.3296951848	-0.3889072985	-0.211968
C	-1.5009703839	-0.288605287	-0.2936617797	 0.033103
C	-1.7399711161	-1.528644558	 0.2770171379	 0.394515
O	-0.9100087434	-2.3988909621	 0.8757249365	-0.430006
N	-3.0607510075	-1.7761483373	 0.1632030917	-0.262458
N	-3.729168102	-0.7642413009	-0.4582223818	-0.241633
C	-2.7831615054	 0.1269608967	-0.7255994093	-0.091147
H	 0.2932392852	 0.3488633509	 1.5173789829	 0.29243
H	-0.2036009046	 1.4231645714	-0.4678063221	 0.114953
H	 0.4156749343	-0.0245783782	-1.2629418983	 0.12966
H	-0.0634670403	-1.9245373504	 0.9615599413	 0.309182
H	-3.561629933	-2.5812394343	 0.4983714617	 0.276326
H	-3.0479037777	 1.0463481007	-1.229461809	 0.108236
103.3168	199.2854	237.7488	303.5722	388.547	439.8966	454.2298	486.1021	667.897	690.9134	701.0225	724.0857	761.6455	881.4739	949.7323	975.0297	1008.504	1097.1959	1175.9642	1204.3329	1242.8925	1262.9681	1335.7997	1387.1154	1400.8623	1423.6286	1461.4017	1508.775	1605.1255	1640.2941	3016.3774	3055.2882	3231.5477	3635.0599	3678.715	3796.3636
OCC1=C(O)NN=C1	OCc1c(O)[nH]nc1	
InChI=1S/C4H6N2O2/c7-2-3-1-5-6-4(3)8/h1,7H,2H2,(H2,5,6,8)	InChI=1S/C4H6N2O2/c7-2-3-1-5-6-4(3)8/h1,7H,2H2,(H2,5,6,8)
