20
gdb 95581	2.31429	1.57904	1.13633	2.0799	75.42	-0.2445	0.0115	0.256	1125.2516	0.171668	-440.284559	-440.275598	-440.274654	-440.318068	33.801	
C	-0.2794096324	 1.6028788081	 0.0866678672	-0.404089
C	-0.0141991111	 0.0924349137	 0.0095978473	 0.008464
C	 0.638953273	-0.3261161948	-1.3193704226	-0.17805
N	 1.9327358836	 0.2432926619	-1.6748181606	-0.230616
C	 2.9451632558	 0.2225048697	-0.9271704669	 0.112573
O	 3.1149591878	-0.2165766477	 0.3564398361	-0.232206
C	 2.1686733829	 0.1446030786	 1.3646675289	-0.094937
C	 0.7697907965	-0.4583031805	 1.205587696	 0.083291
O	 0.0118675839	-0.1736823659	 2.3764711073	-0.430764
H	 0.6278113732	 2.1892992837	-0.0846692285	 0.121634
H	-1.0021228526	 1.8957054414	-0.6812382021	 0.114032
H	-0.687953721	 1.8727404655	 1.063023842	 0.133098
H	-0.9863378508	-0.4166694856	 0.0405575487	 0.085696
H	 0.7395319919	-1.4218969596	-1.3341361468	 0.108724
H	-0.050810996	-0.0708478792	-2.1306592403	 0.106848
H	 3.9066151397	 0.5492620203	-1.3269296651	 0.116176
H	 2.612582161	-0.219724329	 2.296880763	 0.102439
H	 2.0984242621	 1.23621341	 1.432506566	 0.120802
H	 0.8813462418	-1.5464450737	 1.0692579602	 0.070603
H	 0.4279098106	-0.6137423169	 3.1247184801	 0.286282
73.9479	124.8998	205.2369	230.8034	259.8119	286.601	326.6947	337.4461	346.487	405.2077	509.6274	559.2331	640.4258	755.2731	804.54	875.8896	933.6893	941.8482	965.0042	984.1287	1009.412	1024.0641	1085.2117	1107.2331	1133.3233	1157.8429	1164.5845	1252.3858	1276.1748	1291.8834	1315.2196	1356.6042	1375.6842	1387.1542	1404.2911	1422.5292	1426.5522	1447.3946	1486.6032	1492.7414	1504.052	1511.6339	1752.834	2968.852	2996.6161	3024.6812	3038.2023	3046.5304	3059.8723	3086.3485	3108.989	3123.651	3130.9799	3816.4177
CC1CN=COCC1O	C[C@H]1CN=COC[C@H]1O	
InChI=1S/C6H11NO2/c1-5-2-7-4-9-3-6(5)8/h4-6,8H,2-3H2,1H3	InChI=1S/C6H11NO2/c1-5-2-7-4-9-3-6(5)8/h4-6,8H,2-3H2,1H3/t5-,6+/m0/s1
