19
gdb 95725	2.63107	1.29828	1.05815	3.7255	71.06	-0.2616	0.0134	0.275	1176.297	0.160545	-460.197978	-460.189434	-460.18849	-460.231435	32.253	
O	-0.3499651793	 1.4555550195	-0.0411539458	-0.438886
C	-0.0868352155	 0.057970783	-0.0495761992	 0.112742
C	 1.1578849021	-0.2708057702	 0.7922015951	-0.235316
C	 1.2897541193	-1.7567199243	 1.1298727056	-0.08699
O	 1.0418772575	-2.5979388766	-0.0035846248	-0.220676
C	-0.2330649591	-2.8001682132	-0.4382456058	 0.405767
O	-0.4085296456	-3.4750362266	-1.4151075891	-0.320836
C	-1.3637241523	-2.1728988446	 0.3721550125	-0.361622
C	-1.3623414991	-0.6186592442	 0.4572198522	-0.197279
H	 0.4101383949	 1.9069318682	-0.4220736805	 0.283318
H	 0.0899057049	-0.2796489621	-1.082782825	 0.094012
H	 2.0521159115	 0.0703912389	 0.2567264541	 0.103647
H	 1.1017094969	 0.2976633487	 1.7280020325	 0.113981
H	 2.3079903774	-1.9984244029	 1.4424730714	 0.126389
H	 0.6224403254	-2.0289076303	 1.9542818588	 0.114246
H	-2.281544783	-2.5283172992	-0.0957648001	 0.13777
H	-1.336012324	-2.60596538	 1.3780295987	 0.130888
H	-1.5457423063	-0.294816328	 1.4872631181	 0.110832
H	-2.1864841958	-0.2242258059	-0.1423138087	 0.128015
74.506	97.1071	161.7873	266.8867	285.719	333.6429	353.7682	406.6989	431.1519	495.883	536.5138	601.6741	716.4	755.3772	835.1581	842.6135	920.049	942.0532	984.0921	1038.0164	1079.0672	1090.8594	1102.7432	1111.7746	1183.2653	1202.1688	1244.4624	1263.886	1288.0071	1303.3276	1318.925	1353.4157	1358.7836	1391.4922	1415.0367	1448.6229	1480.6446	1485.9928	1503.1035	1523.1073	1845.3246	2976.4738	3029.1776	3045.0842	3050.3088	3059.0693	3078.0907	3099.5177	3109.0119	3133.5704	3817.7695
OC1CCOC(=O)CC1	O[C@H]1CCOC(=O)CC1	
InChI=1S/C6H10O3/c7-5-1-2-6(8)9-4-3-5/h5,7H,1-4H2	InChI=1S/C6H10O3/c7-5-1-2-6(8)9-4-3-5/h5,7H,1-4H2/t5-/m1/s1
