17
gdb 12710	2.92594	2.26102	1.70816	2.6264	69.08	-0.2572	0.0303	0.2875	834.5251	0.142672	-363.855319	-363.847996	-363.847052	-363.886693	27.976	
C	-0.0926074461	 1.5159042221	 0.0255722345	-0.492994
C	 0.0286560721	 0.0110823462	 0.0101369117	 0.202851
C	-1.2528877505	-0.8706209329	 0.2091477446	-0.280283
C	-0.5084041404	-1.7263860064	 1.2805259075	-0.233961
C	 0.7663844078	-0.8967432385	 1.044501773	 0.068673
O	 1.5865653202	-1.4520068184	-0.032720901	-0.276998
C	 0.9862823702	-0.6308982106	-0.9712313032	 0.402766
N	 1.2081929964	-0.4957982839	-2.1980633556	-0.555908
H	 0.8896639925	 1.9960666476	 0.0732605171	 0.128191
H	-0.585223229	 1.8609270491	-0.8894638527	 0.143561
H	-0.6860711272	 1.8567224614	 0.8802759102	 0.11523
H	-2.0859431454	-0.2958744225	 0.6201249106	 0.110376
H	-1.5987856598	-1.3933282974	-0.6842467479	 0.121169
H	-0.9165652739	-1.6078736722	 2.2872480427	 0.110213
H	-0.3914084113	-2.7909301188	 1.0694675581	 0.119946
H	 1.3844828282	-0.5560546722	 1.8753340609	 0.09091
H	 1.954062286	-1.1179474427	-2.5145130007	 0.226258
112.6398	176.3371	197.387	265.3379	281.1847	371.2794	480.3653	617.0942	655.7335	714.9885	742.6516	810.1442	861.5428	869.683	880.1595	927.3059	949.8184	983.8363	1003.7433	1018.4672	1114.486	1154.1332	1161.914	1216.0294	1222.5652	1230.8283	1246.9142	1274.688	1320.4112	1368.2461	1412.4062	1465.0013	1486.6343	1489.6437	1493.7838	1819.0455	3033.7949	3067.7038	3073.8745	3103.8194	3106.9346	3114.2422	3119.2457	3135.4791	3474.1113
CC12CCC1OC2=N	C[C@]12CC[C@H]1O[C]2[NH]	
InChI=1S/C6H9NO/c1-6-3-2-4(6)8-5(6)7/h4,7H,2-3H2,1H3	InChI=1S/C6H9NO/c1-6-3-2-4(6)8-5(6)7/h4,7H,2-3H2,1H3/t4-,6+/m1/s1
