14
gdb 45723	3.61855	1.19948	0.92961	1.7399	68.9	-0.2754	-0.0366	0.2388	1168.3279	0.100473	-436.689301	-436.681588	-436.680644	-436.721922	28.568	
O	-0.077614009	-0.085765859	-0.1297521204	-0.289957
C	-0.0835108369	 1.0846573659	 0.0956814867	 0.424874
C	-1.2820125205	 2.0025982884	 0.0784073494	-0.358167
C	-1.1702879552	 3.0784209112	 1.1803116032	-0.185468
N	 0.1404637652	 3.7390916635	 1.1453614756	-0.235719
C	 1.1128200856	 3.0431305506	 0.7541340835	 0.140871
O	 1.1177765687	 1.7207423995	 0.3638942887	-0.215638
C	-2.2549287671	 4.0514095475	 1.0710752119	 0.322137
C	-3.1742381666	 4.8153859146	 0.9596588471	-0.409032
H	-1.307871743	 2.5021219977	-0.8976840862	 0.157811
H	-2.1869230454	 1.4021073347	 0.1733347196	 0.155009
H	-1.2527382313	 2.5870917121	 2.1621124904	 0.137123
H	 2.1231701359	 3.4401051753	 0.7142401552	 0.152375
H	-3.9783825505	 5.5039670681	 0.8725685554	 0.203782
91.2349	121.0962	144.7659	244.6288	406.0765	426.2838	442.9376	486.7402	573.8295	589.6376	638.3252	659.6141	671.957	777.6228	822.8838	902.8411	954.0623	998.1537	1040.9813	1060.1922	1115.7026	1149.3307	1216.7299	1276.6472	1315.3025	1360.3193	1402.4949	1459.919	1738.6251	1891.8592	2248.5809	2989.4916	3052.1499	3140.1361	3189.073	3502.4332
O=C1CC(N=CO1)C#C	O=C1C[C@@H](N=CO1)C#C	
InChI=1S/C6H5NO2/c1-2-5-3-6(8)9-4-7-5/h1,4-5H,3H2	InChI=1S/C6H5NO2/c1-2-5-3-6(8)9-4-7-5/h1,4-5H,3H2/t5-/m0/s1
