19
gdb 99385	7.08254	0.5092	0.48648	3.5928	74.17	-0.2514	-0.0224	0.229	2175.3026	0.155704	-460.209432	-460.198701	-460.197757	-460.247956	35.205	
C	 0.1526214526	 1.3552381815	 0.1443786011	-0.240638
O	-0.0097449393	-0.0629910822	 0.0105245658	-0.233749
C	-1.2837282543	-0.5023101245	 0.0297030759	 0.450572
O	-2.2396151034	 0.2214737743	 0.1539709246	-0.354792
C	-1.3341451725	-2.0088233886	-0.1330521969	-0.331816
C	-2.7522775558	-2.5650465187	-0.0063253699	-0.184586
C	-2.8036346389	-4.0871989633	-0.2131979035	-0.281777
C	-4.2216441956	-4.6122219814	-0.1808649393	 0.16147
O	-4.6122394027	-5.5062542758	 0.5236402787	-0.23581
H	 1.2265343371	 1.5362836248	 0.1007495208	 0.13452
H	-0.3578221669	 1.8805292837	-0.6667580676	 0.141346
H	-0.2555249139	 1.7017015475	 1.0971882275	 0.141976
H	-0.9002230982	-2.2537917801	-1.1110103676	 0.133642
H	-0.6594945654	-2.4562971789	 0.6058998174	 0.136305
H	-3.1548184288	-2.3098058732	 0.9797092303	 0.127118
H	-3.4005319867	-2.0640543731	-0.7335791982	 0.122831
H	-2.3882558903	-4.3320357436	-1.2026387775	 0.118306
H	-2.2168398743	-4.6238519281	 0.5385463927	 0.122305
H	-4.9154316027	-4.0921975001	-0.8836015343	 0.072777
24.1527	46.4348	72.3521	96.3987	118.5158	121.8818	178.2876	247.0039	276.2874	335.9634	467.3888	517.8092	588.3253	698.8109	744.6528	808.554	898.5207	915.966	985.7725	1027.4337	1058.5072	1106.8184	1115.8502	1178.7297	1180.5164	1198.6227	1215.4835	1267.4935	1280.0098	1324.8103	1351.6387	1400.6045	1431.0944	1458.5607	1463.4112	1473.8877	1481.9533	1496.9503	1498.4447	1820.1486	1838.5767	2851.3897	3004.7488	3035.216	3050.3307	3052.4116	3067.4273	3084.1347	3101.0347	3126.8544	3159.9612
COC(=O)CCCC=O	COC(=O)CCCC=O	
InChI=1S/C6H10O3/c1-9-6(8)4-2-3-5-7/h5H,2-4H2,1H3	InChI=1S/C6H10O3/c1-9-6(8)4-2-3-5-7/h5H,2-4H2,1H3
