19
gdb 6523	2.7467	1.96367	1.38722	2.3083	73.38	-0.2478	-0.034	0.2138	964.9242	0.162756	-365.063781	-365.0545	-365.053555	-365.09711	33.876	
C	-0.0695535426	 1.466262253	-0.0774433267	-0.434809
C	 0.0121014742	-0.0450066179	 0.0507560905	 0.284473
C	-1.1702923287	-0.7537546539	-0.5843009504	-0.478413
N	 1.3533302048	-0.6089185014	-0.0915237756	-0.393839
C	 0.7431925879	-0.6466494464	 1.2500776503	 0.18749
C	 1.3680969385	 0.1946114468	 2.3472284176	-0.476534
C	 0.2902630679	-1.9865540093	 1.7268256212	 0.106196
O	 0.2337194458	-2.981381114	 1.0395901646	-0.274114
H	 0.8595275134	 1.9541998878	 0.2165502138	 0.131915
H	-0.2621762384	 1.7307279863	-1.1231402991	 0.124396
H	-0.8913821905	 1.8699419605	 0.5236236801	 0.118218
H	-1.1804816244	-0.5417522103	-1.6597086065	 0.123427
H	-1.1316688394	-1.834673842	-0.4514918925	 0.152299
H	-2.114185852	-0.3817175556	-0.1708533284	 0.119625
H	 1.2904186899	-1.5535215956	-0.4761916601	 0.240044
H	 1.6789540416	 1.1717298355	 1.9806510755	 0.136509
H	 0.6626509487	 0.3461453537	 3.1719841661	 0.121102
H	 2.2564513424	-0.3026904655	 2.7518475869	 0.130789
H	 0.019061531	-2.0260095818	 2.8045026425	 0.081225
94.6245	141.5781	157.6028	179.5499	214.712	253.1415	304.5547	310.3225	371.7668	392.6635	466.4967	479.6443	608.298	689.3844	747.0743	838.0124	930.2284	961.6124	992.2189	1000.4592	1018.9124	1076.1134	1114.1863	1118.915	1154.8384	1196.3815	1273.0926	1333.9354	1386.2267	1408.7249	1414.4024	1425.7068	1433.6809	1476.93	1484.236	1487.0716	1502.5466	1506.0824	1518.5501	1793.4947	2894.0109	3032.9993	3036.3359	3040.2664	3087.6321	3093.0077	3096.1919	3144.2555	3153.2604	3160.1823	3445.4341
CC1(C)NC1(C)C=O	CC1(C)N[C@]1(C)C=O	
InChI=1S/C6H11NO/c1-5(2)6(3,4-8)7-5/h4,7H,1-3H3	InChI=1S/C6H11NO/c1-5(2)6(3,4-8)7-5/h4,7H,1-3H3/t6-/m1/s1
