18
gdb 40154	2.64521	1.54103	1.24501	2.0376	71.31	-0.2376	0.0608	0.2984	1053.3752	0.147522	-439.007337	-438.999378	-438.998434	-439.040262	30.044	
C	 0.1344553748	 1.4816524817	-0.1383599737	-0.263956
O	 1.2368399567	 0.5609443591	-0.0368919829	-0.263111
C	-0.0732398814	 0.0428367001	 0.0013835858	 0.373968
C	-0.6485406858	-0.7906548581	 1.1469027103	-0.258164
N	-1.390471384	-1.5768492483	 0.1234163843	-0.375042
C	-0.6156346574	-0.9960079612	-0.9858919217	 0.198992
C	-1.2734356226	-0.6739205494	-2.3386650558	-0.123011
O	-0.2204033059	-1.3443527165	-3.0611947075	-0.273651
C	 0.3884061518	-1.8070553694	-1.8405534628	-0.131156
H	-0.0071467919	 2.1337035013	 0.7223480986	 0.122071
H	 0.0188198494	 1.9590251011	-1.1100089043	 0.125808
H	 0.1353124074	-1.3395921189	 1.6842470827	 0.112555
H	-1.2924990546	-0.2828578482	 1.8721254014	 0.112891
H	-1.3226828613	-2.584682251	 0.2145933466	 0.222375
H	-2.2500919417	-1.1581092259	-2.4698303662	 0.105068
H	-1.3551422772	 0.3854184674	-2.6119391547	 0.100635
H	 1.4389973995	-1.5069082181	-1.7582688917	 0.122076
H	 0.303322464	-2.8970340857	-1.7196437984	 0.091653
73.4165	95.3495	187.3204	241.3413	288.5592	345.6071	425.4058	503.8629	519.306	577.6484	687.3534	846.182	862.7659	883.4431	921.6975	929.5506	944.6723	988.9703	1003.8671	1022.8	1036.2314	1121.54	1126.0074	1133.5324	1148.2633	1150.8837	1161.7645	1172.1595	1219.309	1249.2112	1297.9094	1306.9373	1366.2957	1387.7352	1449.1354	1494.7806	1511.7672	1522.9471	1542.1369	2990.3892	3010.6234	3019.728	3055.8073	3066.7081	3072.1831	3086.2017	3174.4171	3530.8423
C1OC11CNC11COC1	C1O[C@]21CNC12COC1	
InChI=1S/C6H9NO2/c1-6(4-9-6)5(7-1)2-8-3-5/h7H,1-4H2	InChI=1S/C6H9NO2/c1-6(4-9-6)5(7-1)2-8-3-5/h7H,1-4H2/t6-/m0/s1
