16
gdb 9153	4.89884	0.76685	0.70994	1.3544	66.56	-0.2599	0.0191	0.2789	1547.1564	0.128307	-420.826639	-420.817104	-420.81616	-420.862283	32.713	
O	 0.3639659982	 0.7874968907	 0.8139538579	-0.398615
C	-0.0868603953	 0.137391429	-0.3648390972	-0.197999
C	-1.4132116785	-0.4652594628	-0.2322266396	 0.07839
C	-2.5192980495	-0.9313610166	-0.1175946157	 0.021888
C	-3.847144016	-1.4983008683	 0.087233882	-0.068093
O	-3.8030136565	-2.8404488849	 0.5916612547	-0.429536
C	-4.7014229423	-0.6372597669	 1.0383566267	-0.053539
O	-5.9484943778	-1.249755103	 1.2566875561	-0.417174
H	-0.3055795335	 1.4329392688	 1.0637788708	 0.288918
H	-0.0876122758	 0.8204155285	-1.2292234574	 0.124581
H	 0.6554918501	-0.639281598	-0.5791903416	 0.146691
H	-4.379295703	-1.5772746096	-0.8679891503	 0.126481
H	-3.105635183	-2.8748473165	 1.2568778427	 0.290424
H	-4.140802703	-0.488549728	 1.9771875228	 0.083549
H	-4.8815523532	 0.3471061084	 0.5952750127	 0.115991
H	-5.7521699908	-2.1826885209	 1.4160628353	 0.288045
29.9833	71.7135	95.3912	160.3369	208.3979	276.2838	311.575	326.3426	350.8073	388.9565	508.6004	517.6115	547.5882	606.0691	802.2699	875.5491	983.0025	1032.9039	1058.3242	1065.9838	1096.6873	1155.1179	1202.9882	1215.5625	1269.2607	1296.0214	1361.7228	1374.825	1413.0414	1420.3005	1436.005	1486.8763	1504.0249	2351.9898	2959.9763	2980.3332	3049.6879	3066.3075	3084.6159	3762.033	3799.2134	3816.0409
OCC#CC(O)CO	OCC#C[C@@H](O)CO	
InChI=1S/C5H8O3/c6-3-1-2-5(8)4-7/h5-8H,3-4H2	InChI=1S/C5H8O3/c6-3-1-2-5(8)4-7/h5-8H,3-4H2/t5-/m1/s1
