18
gdb 109026	3.30127	1.33293	1.05716	3.9837	79.16	-0.2477	-0.0475	0.2002	1165.936	0.148304	-401.967905	-401.95974	-401.958796	-402.00099	30.687	
C	 0.1450627218	 1.5342255866	-0.1373425692	-0.379693
C	-0.0690748013	 0.0254476761	 0.0791703313	-0.289986
C	 0.6293717652	-0.4828804643	 1.3010705193	 0.235482
C	 0.133967582	-0.9996373674	 2.4363115122	-0.224984
C	 1.2380673981	-1.4073727036	 3.3443523759	-0.068838
C	 2.1675856268	-2.48648372	 2.8839456705	-0.239971
N	 2.494315695	-1.0611882771	 2.6760934858	-0.124058
C	 2.1208063972	-0.5803988149	 1.3624567983	 0.31323
O	 2.9085234515	-0.3388816469	 0.4839868023	-0.328717
H	 1.2104680735	 1.7582576971	-0.2313374097	 0.148957
H	-0.3570074957	 1.8651726329	-1.051144547	 0.115323
H	-0.256105719	 2.1128780403	 0.7005729021	 0.115998
H	-1.1387201844	-0.2012097091	 0.1421467032	 0.101482
H	 0.3257608402	-0.5113748276	-0.7922933533	 0.124331
H	-0.9139040951	-1.1065970407	 2.6907252858	 0.118388
H	 1.1717894772	-1.183964769	 4.405622186	 0.113832
H	 2.79881218	-3.0009794861	 3.6029860086	 0.134998
H	 1.8737543771	-3.0693067464	 2.0145760679	 0.134226
63.9707	118.0208	189.5671	200.7707	271.2908	297.192	433.029	480.4763	523.399	596.4922	707.9731	730.2147	797.997	820.7136	843.5025	870.1078	895.3783	939.6408	961.5885	1023.2135	1045.91	1066.7131	1085.731	1092.9271	1120.1748	1157.1578	1217.8872	1266.0064	1272.4898	1338.8816	1352.3194	1365.2171	1404.9588	1474.9616	1496.716	1496.7832	1510.1318	1683.0801	1826.3729	3030.8558	3042.7355	3073.4166	3109.3753	3111.6177	3130.6599	3150.3285	3204.3988	3205.5222
CCC1=CC2CN2C1=O	CCC1=C[C@H]2CN2C1=O	
InChI=1S/C7H9NO/c1-2-5-3-6-4-8(6)7(5)9/h3,6H,2,4H2,1H3	InChI=1S/C7H9NO/c1-2-5-3-6-4-8(6)7(5)9/h3,6H,2,4H2,1H3/t6-,8?/m0/s1
