13
gdb 24544	3.92363	1.81471	1.24082	2.094	76.43	-0.2371	-0.0959	0.1412	907.3719	0.092902	-415.640248	-415.634464	-415.633519	-415.670271	23.29	
O	-0.0475596117	 1.2983738328	 0.0098020098	-0.169294
C	 1.1218083976	 1.9730437311	 0.0020162779	 0.019743
C	 2.3272899764	 1.3427268277	-0.0132940879	-0.082612
N	 2.4786331249	-0.0191535695	-0.0222618983	-0.332836
C	 1.3585678169	-0.6919553226	-0.0149542771	 0.297563
C	 1.0300642847	-2.0797083856	-0.0193633915	-0.26861
C	-0.3430040924	-2.1095766769	-0.0060084493	-0.022093
N	-0.9730864043	-0.8491519344	 0.0070826722	-0.34732
C	 0.0296953147	-0.0361852941	 0.0017094817	 0.379163
H	 0.9754710666	 3.0437184784	 0.0093337696	 0.155401
H	 3.2317027741	 1.9397352762	-0.0189050875	 0.129294
H	 1.715284567	-2.9116206795	-0.0306797774	 0.118041
H	-0.9729408245	-2.9898694438	-0.0046570568	 0.123561
217.4424	263.9166	393.5582	480.7214	538.373	559.998	612.3039	614.8901	742.4201	758.2222	810.6115	822.5614	859.6361	923.1733	928.334	940.862	1047.8595	1055.0741	1119.1114	1153.3782	1263.8189	1273.8553	1346.8295	1378.3605	1413.3997	1479.922	1557.0051	1630.5092	1648.4052	3202.0334	3224.262	3247.6619	3270.9456
O1C=CN=C2C=CN=C12	o1ccnc2ccnc12	
InChI=1S/C6H4N2O/c1-2-8-6-5(1)7-3-4-9-6/h1-4H	InChI=1S/C6H4N2O/c1-2-8-6-5(1)7-3-4-9-6/h1-4H
