14
gdb 46656	2.38004	1.76821	1.50777	5.3211	65.7	-0.2726	-0.0129	0.2597	916.474	0.102918	-432.889434	-432.882107	-432.881163	-432.92152	27.025	
O	 0.0054348658	-0.0458805725	 0.0290901329	-0.34351
C	-0.0180336773	 1.1519731969	-0.0116339079	 0.411328
N	-1.1135933075	 1.9744354876	-0.0308099098	-0.307222
C	-0.8220027724	 3.3927644156	-0.0022367733	-0.202581
C	 0.7059419286	 3.3807668336	 0.0077095164	-0.03848
C	 1.4161878309	 2.761159572	 1.1691882854	-0.173226
C	 0.6968490879	 2.4760230019	 2.3854884722	 0.321042
N	 0.1274813293	 2.2810542723	 3.3729871368	-0.33518
N	 1.1748755893	 1.9963031207	-0.0846831395	-0.157956
H	-2.031155175	 1.5887601263	 0.1198842182	 0.271626
H	-1.187676715	 3.905461203	-0.8992416085	 0.130909
H	-1.2493111918	 3.889224713	 0.877538025	 0.14272
H	 1.2347353535	 4.1198499158	-0.5841716497	 0.127142
H	 2.4636305538	 3.0008604437	 1.3255357217	 0.153389
99.9217	128.7128	155.3415	271.7368	353.096	456.8306	482.4907	567.1329	579.1475	677.0625	736.3962	758.9836	811.6651	840.4131	877.2234	958.8171	989.9822	1051.3584	1064.6569	1096.9928	1126.7881	1218.7959	1220.7537	1276.2536	1327.2005	1355.2564	1396.2681	1446.4814	1527.4647	1883.5376	2354.8593	3025.7923	3060.2003	3160.8701	3175.0823	3662.0807
O=C1NCC2C(C#N)N12	O=C1NC[C@H]2[C@@H](C#N)N12	
InChI=1S/C5H5N3O/c6-1-3-4-2-7-5(9)8(3)4/h3-4H,2H2,(H,7,9)	InChI=1S/C5H5N3O/c6-1-3-4-2-7-5(9)8(3)4/h3-4H,2H2,(H,7,9)/t3-,4+,8?/m1/s1
