18
gdb 73141	2.43686	1.83593	1.56109	3.7711	70.25	-0.2358	0.0578	0.2936	938.9725	0.149093	-439.042271	-439.034929	-439.033985	-439.073689	29.687	
O	 0.2342826914	 1.4020562933	 0.0030509607	-0.478262
C	 0.0081159238	 0.01605793	 0.0161693164	 0.355145
C	-1.3575858552	-0.3807816389	 0.6005872589	-0.097228
O	-0.738981113	-1.3193548317	 1.5076864127	-0.288442
C	 0.5874298653	-0.8655153191	 1.1670817823	 0.062598
C	 1.5130989687	-1.938338042	 0.5654127467	-0.242402
C	 1.3361519573	-1.830339536	-0.9445400889	-0.037445
N	-0.0469322207	-2.0684265568	-1.3903369096	-0.318042
C	 0.4416127324	-0.6810384533	-1.2691963986	-0.152657
H	 1.1303021255	 1.5629705072	-0.3129030285	 0.278866
H	-1.8419481171	 0.447923577	 1.1308517869	 0.101791
H	-2.0596600945	-0.871611002	-0.078415953	 0.112888
H	 1.0448871181	-0.3181733407	 2.0004405432	 0.074711
H	 2.5559495944	-1.7339173756	 0.8328596035	 0.096074
H	 1.2518248313	-2.9303905422	 0.9450436796	 0.126475
H	 2.1508479384	-2.1206823773	-1.6013732777	 0.087063
H	-0.0497903376	-2.3368580212	-2.3713252995	 0.233852
H	 0.5516467415	-0.076005881	-2.1647776052	 0.085016
132.23	220.396	251.8813	298.9013	351.7839	376.2797	417.3826	488.0882	590.1375	661.8829	707.9542	794.4473	837.3737	850.1139	888.1874	900.84	924.6439	969.3666	1011.1542	1021.0766	1042.4096	1053.2899	1074.2001	1118.7991	1135.1931	1154.0251	1184.0415	1192.2635	1217.6226	1245.8708	1268.5726	1314.9557	1325.9178	1349.2925	1387.2215	1394.6702	1422.247	1463.9367	1500.9271	3023.0754	3031.909	3048.846	3099.2541	3100.0442	3146.6019	3156.863	3499.4557	3798.8457
OC12COC1CC1NC21	O[C@]12CO[C@H]1C[C@H]1N[C@@H]21	
InChI=1S/C6H9NO2/c8-6-2-9-4(6)1-3-5(6)7-3/h3-5,7-8H,1-2H2	InChI=1S/C6H9NO2/c8-6-2-9-4(6)1-3-5(6)7-3/h3-5,7-8H,1-2H2/t3-,4+,5-,6-/m1/s1
