19
gdb 26180	4.03139	0.92239	0.89738	1.9673	78.88	-0.1984	0.0264	0.2248	1389.2553	0.158152	-423.059514	-423.050129	-423.049184	-423.093911	34.718	
C	-0.0600344923	 1.5374096869	-0.0165860693	-0.383215
C	-0.0207572555	-0.0019397354	 0.0395895108	-0.086525
C	 0.7196551302	-0.4922444883	 1.2988641264	-0.383161
C	-1.3947755502	-0.5870929635	-0.0487873434	 0.430839
C	-2.0007701046	-1.4084913177	-0.9519706371	-0.457833
C	-3.3389933716	-1.6121667364	-0.4750367928	 0.309453
O	-4.3266651364	-2.3593522063	-1.0393093034	-0.440896
C	-3.4532285886	-0.9037897878	 0.6799055301	-0.123307
O	-2.2648130794	-0.2737235017	 0.9458703007	-0.196119
H	 0.9534999746	 1.9493183466	 0.0215140441	 0.109613
H	-0.5393897348	 1.8871595185	-0.935554514	 0.117255
H	-0.623049298	 1.9388040018	 0.8312873536	 0.130152
H	 0.5204555521	-0.3656210798	-0.8422787182	 0.084579
H	 0.1906504743	-0.1769917954	 2.20318649	 0.130098
H	 0.7929754471	-1.5835724202	 1.3142616037	 0.117254
H	 1.7325146467	-0.0784638163	 1.3346541568	 0.109627
H	-1.5549296643	-1.8193557944	-1.8457587331	 0.10127
H	-3.9881511658	-2.7547092111	-1.8473628019	 0.300166
H	-4.2521780533	-0.7525000596	 1.3834879669	 0.13075
46.0937	118.5505	175.1058	198.0242	219.3972	256.7816	292.6494	296.534	394.9725	422.4592	495.7845	615.6117	630.7619	694.7298	715.109	716.3008	774.4367	873.6107	929.3885	957.6644	961.968	1007.4537	1056.9183	1119.6053	1146.3671	1158.6924	1178.3447	1204.6924	1284.5375	1327.9381	1331.6592	1352.7105	1393.6238	1415.5608	1448.2247	1485.6849	1491.2908	1499.3695	1510.4228	1588.517	1690.6158	3034.9074	3035.6375	3038.8526	3105.7013	3110.0204	3114.2779	3118.5748	3238.673	3297.5454	3848.2345
CC(C)C1=CC(O)=CO1	CC(C)c1cc(O)co1	
InChI=1S/C7H10O2/c1-5(2)7-3-6(8)4-9-7/h3-5,8H,1-2H3	InChI=1S/C7H10O2/c1-5(2)7-3-6(8)4-9-7/h3-5,8H,1-2H3
