20
gdb 11401	4.48343	1.21681	1.0915	1.4037	77.13	-0.2234	0.0367	0.2601	1155.0488	0.17716	-349.022113	-349.013485	-349.012541	-349.05528	32.055	
C	-0.1345489055	 1.5089615179	 0.038908771	-0.492504
C	 0.0011980534	 0.0200620279	-0.0173487523	 0.345957
C	-0.0416902495	-0.7614178839	-1.0982438937	-0.162643
C	 0.0866393787	-2.226989607	-0.7704043169	-0.258481
C	 0.5197765067	-2.2284667506	 0.7233530733	 0.023475
C	 2.0157582312	-2.500720516	 0.8657649769	-0.079345
O	 2.2854025501	-3.8074650304	 0.3778424204	-0.421792
C	 0.1750184326	-0.8063090355	 1.2416249731	-0.326371
H	 0.74923019	 1.9732403498	 0.4957755226	 0.120403
H	-0.2689880933	 1.9415017275	-0.9564141306	 0.120961
H	-0.9921850882	 1.8063636639	 0.6566975401	 0.122052
H	-0.1839969975	-0.3990121238	-2.1117435251	 0.078043
H	-0.8701947722	-2.7478728968	-0.9138654318	 0.098084
H	 0.8144240882	-2.7562884344	-1.394759328	 0.112144
H	-0.0079054398	-3.0031366237	 1.2870273619	 0.075108
H	 2.5786299085	-1.7392667051	 0.300729156	 0.086758
H	 2.3054008286	-2.408376424	 1.9250090804	 0.082014
H	 3.2375128772	-3.9398565967	 0.3807412926	 0.285204
H	 0.9579303397	-0.4026810638	 1.8992706465	 0.090667
H	-0.7473584389	-0.7996783055	 1.8393703536	 0.100266
61.3677	138.4101	171.3914	215.1097	253.9702	264.3577	310.363	364.376	433.7587	466.6948	619.257	735.1551	793.9938	841.0342	877.5435	906.6808	934.4552	956.5284	1016.7293	1032.8657	1035.6428	1071.655	1090.495	1103.2182	1171.1823	1182.5302	1191.5473	1245.5363	1277.1103	1285.5141	1290.6369	1326.9804	1350.5201	1372.9266	1413.9269	1452.7122	1479.3402	1486.5946	1490.8966	1500.1485	1520.2395	1727.0502	2958.908	2989.0838	3000.1447	3009.204	3013.215	3023.1029	3056.0867	3064.6187	3070.7341	3107.1742	3177.3918	3833.9484
CC1=CCC(CO)C1	CC1=CC[C@@H](CO)C1	
InChI=1S/C7H12O/c1-6-2-3-7(4-6)5-8/h2,7-8H,3-5H2,1H3	InChI=1S/C7H12O/c1-6-2-3-7(4-6)5-8/h2,7-8H,3-5H2,1H3/t7-/m1/s1
