17
gdb 85729	2.17381	1.41702	0.97104	5.3418	73.75	-0.2586	-0.0406	0.218	1210.8696	0.135022	-418.002194	-417.993171	-417.992227	-418.036723	32.077	
C	 0.0820195753	 1.5593976708	-0.0617418783	-0.405641
C	 0.1198417035	 0.0479476234	 0.0704240635	 0.049624
N	 1.109394201	-0.6562011055	-0.7820586655	-0.309289
C	 1.3587471906	-1.6475598086	 0.2792520311	-0.138923
C	 2.746146452	-2.1021233098	 0.406679376	 0.294442
N	 3.8343870282	-2.476471261	 0.5118601526	-0.317597
C	 0.7868466424	-0.6328241044	 1.3210891655	-0.143488
C	 1.8222009547	 0.233404338	 2.0019374996	 0.168883
O	 1.6733645779	 0.6847659804	 3.1079428288	-0.25148
H	 1.0829121573	 1.9926339742	 0.0056571241	 0.135129
H	-0.3423959684	 1.8424914691	-1.0306610774	 0.124892
H	-0.5451844181	 1.9984241969	 0.7207823618	 0.134828
H	-0.8975194213	-0.3580363328	-0.0386241927	 0.083076
H	 0.7756820102	-1.0293395521	-1.6647623027	 0.232124
H	 0.7150099695	-2.5378473484	 0.2373759999	 0.121436
H	 0.1064562297	-1.0355181359	 2.0700882864	 0.10977
H	 2.7326177356	 0.4483855857	 1.4038990773	 0.112214
57.8535	75.1041	125.0471	195.472	227.4228	249.6027	323.1968	350.0079	435.3433	474.8717	543.9119	570.9565	671.2402	769.423	830.7827	897.087	972.6387	985.5791	1005.6292	1038.1449	1071.668	1097.428	1145.4189	1160.5274	1164.3259	1240.0354	1272.0876	1331.8503	1341.8514	1386.3338	1406.6393	1420.9398	1431.866	1483.5268	1500.4766	1827.5865	2356.6673	2916.624	2978.6592	2999.5403	3041.1917	3107.2153	3128.3996	3131.9907	3525.4466
CC1NC(C#N)C1C=O	C[C@H]1N[C@@H](C#N)[C@H]1C=O	
InChI=1S/C6H8N2O/c1-4-5(3-9)6(2-7)8-4/h3-6,8H,1H3	InChI=1S/C6H8N2O/c1-4-5(3-9)6(2-7)8-4/h3-6,8H,1H3/t4-,5+,6+/m1/s1
