21
gdb 89153	2.32036	1.42901	1.19129	1.2314	78.18	-0.2431	0.074	0.3171	1163.0297	0.181126	-424.19971	-424.190389	-424.189445	-424.233286	36.131	
C	 0.1641058183	 1.6183672134	-0.0569387635	-0.415003
C	 0.1066141728	 0.0998341897	 0.0058848995	 0.051048
C	 1.034111562	-0.7448982619	-0.9242931971	-0.324112
C	 1.3162976038	-1.7189001304	 0.2619530435	 0.412126
O	 0.7853482682	-3.0097444944	 0.1624343842	-0.494007
C	 2.6787171833	-1.5278731171	 0.9446323542	 0.058589
O	 3.7701780817	-1.3814000162	 0.0629207519	-0.437745
C	 2.1100575724	-0.2775957853	 1.6864054776	-0.295281
C	 0.6702061333	-0.6693064228	 1.2296162804	-0.082077
H	 1.1839596111	 1.9957838035	 0.0711885778	 0.114291
H	-0.1969902991	 1.9808866857	-1.0260345583	 0.114143
H	-0.4603618925	 2.0723588609	 0.7209192443	 0.11216
H	-0.9289774264	-0.225400399	-0.143104168	 0.077786
H	 0.5421464657	-1.2143558541	-1.7794139053	 0.093304
H	 1.9285068109	-0.2215907943	-1.2705666801	 0.112883
H	 1.1980250173	-3.443148034	-0.5933559455	 0.278845
H	 2.8375338303	-2.35821212	 1.6477944853	 0.07062
H	 4.5681972521	-1.248181696	 0.5837948696	 0.284221
H	 2.2724301046	-0.2571815732	 2.765889657	 0.099158
H	 2.4754799214	 0.6601183414	 1.2608425576	 0.102104
H	-0.0165108811	-0.9570189158	 2.025795055	 0.066947
73.43	178.3677	211.3924	219.8332	237.9717	256.7294	265.9359	319.8237	384.5607	406.7646	495.045	541.1291	558.9477	639.0354	746.3711	777.1313	854.3624	876.9153	905.6993	936.3291	968.3382	989.5629	1030.0793	1052.3629	1094.4543	1111.1765	1136.6119	1138.9409	1158.8725	1189.6866	1210.1293	1233.7982	1250.5273	1270.5908	1293.8974	1302.2557	1334.411	1356.1634	1373.5034	1409.9355	1430.1586	1469.8717	1482.76	1494.6097	1499.7214	2998.9805	3025.6059	3038.0109	3062.6658	3066.9659	3088.9385	3096.2645	3105.4498	3120.0521	3123.8741	3791.4508	3818.7862
CC1CC2(O)C(O)CC12	C[C@H]1C[C@@]2(O)[C@@H](O)C[C@@H]12	
InChI=1S/C7H12O2/c1-4-3-7(9)5(4)2-6(7)8/h4-6,8-9H,2-3H2,1H3	InChI=1S/C7H12O2/c1-4-3-7(9)5(4)2-6(7)8/h4-6,8-9H,2-3H2,1H3/t4-,5-,6-,7-/m0/s1
