18
gdb 34383	2.5065	1.62163	1.29769	4.3486	81.06	-0.2626	-0.0028	0.2598	1039.5848	0.149866	-364.833902	-364.826359	-364.825415	-364.865908	29.562	
N	-0.0555713967	-1.1635127373	-0.0650015227	-0.34894
C	-0.0500283513	-0.0078367594	-0.0109306612	 0.213819
C	-0.0365285902	 1.4469566186	 0.0390483331	 0.160438
C	-0.355461795	 2.180624233	-1.3085536818	-0.267505
C	 0.8601290396	 3.1139176099	-1.0641171731	-0.231484
C	 1.3541059375	 2.195798471	 0.091754326	-0.045661
C	 1.4685944986	 2.8337089615	 1.4865419043	-0.283787
C	 0.0559003436	 2.7454109522	 2.0173932907	-0.056664
C	-0.7455099816	 2.0005397365	 1.2577119338	-0.141322
H	-0.2229917391	 1.5218690121	-2.1691720598	 0.124002
H	-1.3420126312	 2.6450996876	-1.3662033029	 0.113587
H	 1.5451727728	 3.2311589107	-1.9055178225	 0.111486
H	 0.5733853811	 4.1075761247	-0.7109637883	 0.11028
H	 2.2088056869	 1.5783444949	-0.1839143814	 0.091372
H	 2.1687539847	 2.2981890808	 2.1412159249	 0.119109
H	 1.829793133	 3.8681222972	 1.4269004472	 0.112333
H	-0.2520686485	 3.2359115575	 2.9345335552	 0.106172
H	-1.7884576543	 1.7807635583	 1.4541533983	 0.112765
107.0724	152.0109	175.1981	247.5308	349.2939	443.8007	513.9921	544.3552	557.7808	646.7175	723.1668	761.5488	777.7401	815.3968	878.1333	909.4786	940.3608	956.6524	978.5715	1000.1245	1020.1479	1052.4292	1104.8429	1106.4795	1157.321	1160.4208	1212.2381	1226.1926	1247.4984	1271.6505	1280.1652	1311.7694	1326.9653	1375.4089	1477.5889	1481.8816	1495.5331	1678.5223	2344.2075	3019.2147	3049.6409	3068.1093	3072.9005	3108.6023	3120.2041	3134.7844	3187.2112	3212.8116
N#CC12CCC1CC=C2	N#C[C@]12CC[C@H]1CC=C2	
InChI=1S/C8H9N/c9-6-8-4-1-2-7(8)3-5-8/h1,4,7H,2-3,5H2	InChI=1S/C8H9N/c9-6-8-4-1-2-7(8)3-5-8/h1,4,7H,2-3,5H2/t7-,8+/m1/s1
