17
gdb 6347	3.82492	1.25259	0.99458	2.3568	67.22	-0.2424	-0.0308	0.2116	1181.8644	0.139912	-401.059323	-401.049858	-401.048914	-401.094895	31.946	
C	-0.0799232178	 1.4006491102	-0.7398864986	-0.332227
N	 0.0762474876	-0.0214493168	-0.9719324685	-0.300039
C	 1.0915957842	-0.7344118496	-0.4283028799	 0.395869
O	 1.9242309636	-0.2868450349	 0.3403352626	-0.375708
C	 1.1097185453	-2.2313414952	-0.7957225733	-0.414697
C	 0.7499739864	-2.6163099744	-2.2262938672	 0.384207
C	 1.5876536762	-3.7069363909	-2.8553683574	-0.47093
O	-0.1679605515	-2.0933145719	-2.8261109053	-0.311994
H	 0.6075096287	 1.6867574192	 0.0567564729	 0.1656
H	 0.1558146033	 1.9854476663	-1.6371180701	 0.126095
H	-1.1052343541	 1.633283044	-0.4341414688	 0.124417
H	-0.4727864154	-0.4855140504	-1.6845714898	 0.26519
H	 2.0912291644	-2.6145358837	-0.5135791897	 0.137505
H	 0.3749494705	-2.7331512742	-0.1501407748	 0.15981
H	 1.6161333034	-4.5897580125	-2.2068988684	 0.146111
H	 1.1888689164	-3.9721824761	-3.8349186568	 0.146484
H	 2.6226435687	-3.3596375091	-2.9576458868	 0.154306
40.4688	63.9329	74.192	142.6567	160.3438	207.9254	291.9994	337.6014	393.2725	479.407	566.9642	576.0361	700.1724	719.7758	826.7171	863.0614	914.9542	976.6692	1041.3126	1098.2766	1151.8647	1174.6609	1182.2927	1201.0133	1267.5976	1332.2662	1384.7302	1438.8322	1443.9097	1460.8075	1474.1659	1497.2204	1501.9132	1590.5612	1782.1245	1794.578	3026.3433	3029.0976	3035.8377	3080.1742	3095.9554	3127.829	3153.4375	3155.7769	3555.5728
CNC(=O)CC(C)=O	CNC(=O)CC(=O)C	
InChI=1S/C5H9NO2/c1-4(7)3-5(8)6-2/h3H2,1-2H3,(H,6,8)	InChI=1S/C5H9NO2/c1-4(7)3-5(8)6-2/h3H2,1-2H3,(H,6,8)
