16
gdb 11389	5.57118	1.22768	1.06586	3.8051	67.62	-0.2362	-0.0425	0.1937	1067.9265	0.130665	-383.770755	-383.763062	-383.762118	-383.803323	28.03	
O	-0.084551278	 1.4665478895	 0.0300115571	-0.421681
C	 0.0382502227	 0.0558184347	-0.0511847143	-0.086856
C	-1.3700453588	-0.5384023123	 0.0310863839	-0.036217
C	-1.398578502	-2.0783838495	-0.0217348902	-0.367588
C	-2.1727957089	-2.5233650012	 1.2330916982	 0.381806
O	-2.4484228586	-3.6627383247	 1.5272982838	-0.329977
C	-2.497783016	-1.2928789154	 1.9913471891	-0.189307
C	-2.0592519581	-0.2114766934	 1.3374744626	-0.038476
H	 0.7963471144	 1.8515354288	 0.0161896222	 0.291885
H	 0.507806449	-0.2536131965	-0.9979778807	 0.095127
H	 0.6518386351	-0.3442067689	 0.7721603428	 0.092696
H	-1.9437862226	-0.0984297156	-0.7951846236	 0.102655
H	-1.8832873667	-2.4754093315	-0.9173597847	 0.133288
H	-0.3947182853	-2.5165321065	 0.0136947506	 0.128908
H	-3.0224813013	-1.3176196909	 2.937956723	 0.11433
H	-2.1575488349	 0.8159305034	 1.66780577	 0.129408
51.5522	125.3693	202.4624	247.0251	258.7886	364.6498	424.1639	495.1748	592.8179	658.0344	735.4431	816.5955	828.1868	841.5854	910.3948	1007.341	1016.8161	1055.686	1071.0493	1095.3448	1125.7665	1167.5586	1183.1289	1238.0673	1250.4767	1267.7774	1314.2158	1336.381	1366.7876	1449.8397	1453.4838	1522.1873	1647.1033	1816.447	2966.9208	2998.3249	3027.0025	3053.2428	3104.0143	3204.8872	3229.0346	3834.2663
OCC1CC(=O)C=C1	OC[C@H]1CC(=O)C=C1	
InChI=1S/C6H8O2/c7-4-5-1-2-6(8)3-5/h1-2,5,7H,3-4H2	InChI=1S/C6H8O2/c7-4-5-1-2-6(8)3-5/h1-2,5,7H,3-4H2/t5-/m1/s1
