23
gdb 104674	1.96434	1.68061	1.12398	1.2771	85.72	-0.2613	0.0728	0.3341	1204.9116	0.206316	-388.226609	-388.217445	-388.216501	-388.260455	35.765	
C	-1.4956890461	-0.5099003565	 0.0590936405	-0.379629
C	-0.0706721734	 0.0429757058	-0.0748857586	-0.274298
C	 0.7448531132	-0.5992940198	-1.2183137673	 0.418579
C	 0.4255355212	 0.1646647478	-2.5052847762	-0.178565
O	 1.0598562342	 1.4392153755	-2.4126115587	-0.421382
C	 2.2517761369	-0.9633557524	-0.9316474159	-0.076453
C	 1.7382282214	-2.1225317517	-0.0215392978	-0.232709
C	 0.8587726454	-2.1706876441	-1.3049265581	-0.104852
C	 2.1933987553	-1.9953318887	-2.0931572836	-0.241704
H	-2.0549694864	-0.4286801918	-0.8795647808	 0.111362
H	-1.4890564371	-1.5670731663	 0.3454757682	 0.115422
H	-2.057894087	 0.0373594941	 0.8224962865	 0.109825
H	-0.1081211842	 1.1191505069	-0.2729093278	 0.11012
H	 0.4417006097	-0.0577559076	 0.8850570326	 0.093695
H	 0.7547070001	-0.3643132058	-3.4064137561	 0.086946
H	-0.6669593699	 0.2793465361	-2.5874582073	 0.081854
H	 0.7648082584	 1.9756810861	-3.1540581583	 0.285695
H	 3.0563368643	-0.25961896	-0.7148691085	 0.074132
H	 2.427398552	-2.960458852	 0.1109578466	 0.085803
H	 1.256071813	-1.8697080557	 0.92146676	 0.093544
H	 0.0554145939	-2.877728738	-1.5232845663	 0.06391
H	 2.1583771804	-1.6241116089	-3.1158937656	 0.09206
H	 2.8930266946	-2.8316840531	-2.0163032473	 0.086647
81.4293	91.008	151.1005	216.422	225.9201	262.8993	344.5712	384.61	436.5039	470.9477	547.1465	594.6547	677.9841	786.5216	798.3702	803.9666	887.6071	895.8375	898.8791	924.4838	986.1713	1004.6293	1016.1403	1026.2735	1044.0165	1060.2039	1087.5636	1095.269	1107.2088	1115.0861	1177.8822	1187.4472	1192.1921	1207.2626	1226.3242	1247.9013	1249.4722	1263.8124	1285.8351	1336.951	1364.9311	1408.8873	1452.7854	1492.4991	1499.8957	1506.0733	1513.7558	1535.0377	1559.918	2978.0607	3030.4878	3040.4668	3055.1781	3066.6562	3068.6802	3079.4113	3086.4132	3099.581	3103.0856	3107.2489	3141.3326	3144.6356	3828.8732
CCC1(CO)C2CC1C2	CC[C@@]1(CO)[C@H]2C[C@@H]1C2	
InChI=1S/C8H14O/c1-2-8(5-9)6-3-7(8)4-6/h6-7,9H,2-5H2,1H3	InChI=1S/C8H14O/c1-2-8(5-9)6-3-7(8)4-6/h6-7,9H,2-5H2,1H3/t6-,7+,8-
