16
gdb 42961	2.51266	2.14058	1.38825	4.0213	68.35	-0.2439	-0.0034	0.2405	917.0212	0.126626	-437.876512	-437.869797	-437.868853	-437.907714	26.246	
O	-0.0958256023	 0.0261620379	 0.3601569196	-0.359862
C	-0.0799826209	 1.1993886691	 0.0739509018	 0.394721
C	-1.2832549339	 2.0994570596	-0.1824412989	-0.103347
O	-1.4564503577	 2.9315901603	 0.988010603	-0.242113
C	-0.8178698984	 3.4969239547	-0.152312033	 0.019436
C	 0.6960625629	 3.4592704035	-0.0699651698	-0.002776
C	 1.4687560848	 3.7096865504	 1.2607447226	-0.257469
C	 1.9557572368	 2.2321894343	 1.1736647956	-0.178359
N	 1.0352979159	 2.0238181573	 0.0249937919	-0.105809
H	-2.189334776	 1.7400838711	-0.6569349311	 0.1262
H	-1.3449702006	 4.308296615	-0.6451195155	 0.109455
H	 1.1434535113	 3.9400710682	-0.9472718686	 0.091186
H	 2.2394345048	 4.4804566542	 1.2300670846	 0.113583
H	 0.7964911223	 3.8841406107	 2.1017271904	 0.135119
H	 3.0055526188	 2.1127416574	 0.8926017489	 0.12091
H	 1.7307247522	 1.5819264763	 2.0219024085	 0.139126
119.1107	204.4314	207.5243	289.4759	446.4916	513.7052	615.7986	680.1352	685.1267	753.3648	792.537	814.8452	854.8163	888.5225	919.2843	935.7721	994.7889	1007.0663	1075.8463	1085.9036	1102.088	1124.4565	1178.63	1212.3328	1236.4061	1254.8354	1261.5269	1290.5535	1308.5637	1325.6351	1363.632	1403.0654	1479.1542	1515.0655	1826.5823	3041.8568	3061.6425	3088.5805	3116.3543	3152.2765	3163.7673	3190.9409
O=C1C2OC2C2CCN12	O=C1[C@H]2O[C@H]2[C@H]2CCN12	
InChI=1S/C6H7NO2/c8-6-5-4(9-5)3-1-2-7(3)6/h3-5H,1-2H2	InChI=1S/C6H7NO2/c8-6-5-4(9-5)3-1-2-7(3)6/h3-5H,1-2H2/t3-,4+,5+/m1/s1
