18
gdb 76871	2.38002	1.88428	1.44211	1.1745	70.12	-0.2546	0.0066	0.2611	964.2127	0.148834	-439.084682	-439.076743	-439.075799	-439.11753	30.275	
C	 0.2898694594	 1.6150285658	 0.088748066	-0.393023
C	 0.0903603034	 0.1080973955	 0.0451259704	-0.034598
C	 0.9539267183	-0.7082288084	-0.9937552465	 0.103843
O	 1.8941483168	-0.0150881207	-1.7681317312	-0.427041
C	 1.5306834632	-1.5676936539	 0.1672286887	 0.034592
O	 2.89861361	-1.2151780062	 0.4892606031	-0.245282
C	 2.8118972832	-0.3968186823	 1.5830122165	 0.102392
N	 1.6796704365	-0.0930881953	 2.0565957542	-0.24026
C	 0.6884537958	-0.7640051181	 1.2020704924	-0.036043
H	 1.3397920763	 1.8830022534	 0.2259855733	 0.116309
H	-0.0488622089	 2.0660798307	-0.8486047141	 0.121408
H	-0.2774339582	 2.0595231656	 0.9117713047	 0.120076
H	-0.9725969179	-0.1175101966	-0.0884608794	 0.074509
H	 0.3307700426	-1.2945571933	-1.6769569528	 0.086263
H	 2.7206952075	-0.0051315907	-1.2697040393	 0.291718
H	 1.467592745	-2.6536297504	 0.0891734052	 0.091969
H	 3.7721513058	-0.0697661556	 1.9660204597	 0.148488
H	-0.0381928188	-1.2978238796	 1.8168042092	 0.084681
43.3534	178.067	216.4954	219.2533	259.5107	345.4646	415.7874	512.2681	533.0011	619.4203	665.0066	775.9604	812.5038	841.9333	868.7477	894.5312	918.3403	958.5783	971.4627	1013.6077	1053.9778	1074.584	1108.6828	1147.0303	1154.1447	1189.5949	1245.5362	1258.5758	1281.474	1303.0855	1315.829	1326.4131	1340.9566	1366.7895	1413.4712	1430.8035	1488.5537	1491.5331	1698.0329	3041.8361	3046.8368	3058.1883	3091.6374	3107.6619	3113.5364	3126.1806	3218.8513	3773.3493
CC1C(O)C2OC=NC12	C[C@H]1[C@@H](O)[C@H]2OC=N[C@@H]12	
InChI=1S/C6H9NO2/c1-3-4-6(5(3)8)9-2-7-4/h2-6,8H,1H3	InChI=1S/C6H9NO2/c1-3-4-6(5(3)8)9-2-7-4/h2-6,8H,1H3/t3-,4+,5-,6+/m1/s1
