18
gdb 127846	2.54005	1.5588	0.97763	3.7491	87.45	-0.1973	-0.0177	0.1796	1196.6041	0.148518	-398.144094	-398.135421	-398.134477	-398.177273	32.416	
C	-0.070892686	 1.3978741157	-0.0771690825	-0.322322
N	-0.0148409741	-0.0505899962	-0.0307423253	-0.316991
C	 0.5847728346	-0.5976436757	 0.9724272736	 0.236082
C	 1.2328988995	 0.0517697541	 2.0987404097	-0.23705
C	 1.8112937163	-0.7076542404	 3.0588664078	 0.033656
N	 1.7906465569	-2.061982394	 2.9781147422	-0.236239
N	 1.2118912215	-2.7564405327	 1.968179834	-0.265817
C	 0.6424448813	-2.0742029677	 1.0207633976	 0.312054
C	 0.0058396928	-2.8503322771	-0.0902115802	-0.450383
H	 0.9286070457	 1.8610797718	-0.1087082771	 0.105082
H	-0.6061825214	 1.7101830869	-0.9780968904	 0.114389
H	-0.598495507	 1.8307953581	 0.7881444234	 0.105072
H	 1.2601752464	 1.129003002	 2.1814296733	 0.110285
H	 2.3140160595	-0.3003430664	 3.9293046376	 0.130508
H	 2.2151512937	-2.6410525778	 3.6817710413	 0.274767
H	 0.1271830237	-3.9212303968	 0.0782963712	 0.121727
H	-1.0560945848	-2.5965191484	-0.1653774695	 0.14257
H	 0.4485087314	-2.5649548755	-1.0495464166	 0.142611
95.0563	151.2894	165.6608	200.4356	219.6237	306.9818	326.057	413.1383	488.9973	513.762	535.7065	546.1055	598.8978	747.0171	751.2662	825.7791	875.6126	946.6728	972.069	1040.6853	1053.3456	1082.9679	1098.6528	1129.387	1166.1615	1194.9427	1278.0388	1362.8607	1408.9496	1418.7516	1433.8502	1461.5206	1462.8408	1489.0984	1503.5928	1518.6161	1639.0658	1643.6766	1678.4205	2959.7448	3003.2798	3047.9143	3090.2555	3103.2195	3148.7178	3191.9939	3232.2591	3669.0488
CN=C1C=CNN=C1C	C[N]C1=CCNN=C1C	
InChI=1S/C6H9N3/c1-5-6(7-2)3-4-8-9-5/h3-4H,1-2H3,(H,7,8)	InChI=1S/C6H10N3/c1-5-6(7-2)3-4-8-9-5/h3,8H,4H2,1-2H3
