19
gdb 122480	3.67281	0.6578	0.59169	3.6714	77.48	-0.2688	0.0154	0.2842	1833.3528	0.15867	-419.186846	-419.17697	-419.176026	-419.223028	34.569	
O	-0.1253840519	 1.4221572266	-0.393483803	-0.42165
C	-0.0049911766	 0.0657470096	 0.0056388312	-0.077277
C	-1.3895601335	-0.5643859049	-0.0664972601	-0.166735
C	-1.39520629	-2.0316408993	 0.3770861716	-0.209853
C	-2.7709424405	-2.6445943677	 0.2710424618	-0.006876
N	-3.187055656	-3.1124541666	-1.0515365321	-0.3095
C	-2.9952648078	-4.1065351656	 0.0255794267	-0.205838
C	-1.895244112	-5.0282268366	-0.1298106337	 0.331624
N	-1.0168470411	-5.7745030555	-0.2208027269	-0.335951
H	 0.751178789	 1.8172035058	-0.3859219436	 0.286875
H	 0.6871685441	-0.4857701287	-0.6509677165	 0.092375
H	 0.3883366769	-0.0147600166	 1.0328990509	 0.084382
H	-2.0706701647	 0.0261496202	 0.5591578553	 0.102452
H	-1.7580553062	-0.4899919575	-1.0956311344	 0.121924
H	-0.7010763658	-2.6147147251	-0.2376669796	 0.128291
H	-1.0498242926	-2.1160378412	 1.4157523383	 0.107328
H	-3.5331005071	-2.1768168077	 0.8943718197	 0.100613
H	-4.1816977229	-2.9701173517	-1.2053392235	 0.24647
H	-3.8749022414	-4.5556318174	 0.478892188	 0.131346
50.0668	70.215	86.4346	132.7504	156.8717	227.4707	261.4669	301.9143	327.7567	446.5084	466.2413	574.3585	629.8123	756.7246	804.5129	826.5457	871.9217	908.1554	957.741	1004.9598	1029.3718	1051.4704	1064.6438	1088.4985	1144.4065	1192.37	1209.6483	1231.9778	1243.1648	1257.5524	1303.9978	1310.8003	1319.607	1374.4983	1406.8937	1460.2928	1464.8185	1477.8858	1499.4591	1528.1663	2359.3982	2958.0853	2986.0773	3026.3251	3033.2356	3070.546	3088.9006	3111.8585	3148.41	3512.0737	3831.4349
OCCCC1NC1C#N	OCCC[C@H]1N[C@H]1C#N	
InChI=1S/C6H10N2O/c7-4-6-5(8-6)2-1-3-9/h5-6,8-9H,1-3H2	InChI=1S/C6H10N2O/c7-4-6-5(8-6)2-1-3-9/h5-6,8-9H,1-3H2/t5-,6+/m1/s1
