18
gdb 16300	3.47365	1.66119	1.39007	3.0167	73.49	-0.2431	-0.0233	0.2198	954.9602	0.153125	-347.794787	-347.786921	-347.785977	-347.826827	29.538	
C	-0.1135461141	 1.6014944249	-0.165202339	-0.408191
C	 0.051441842	 0.0937091617	-0.0180294532	-0.052984
C	 1.1644626331	-0.6370978834	-0.8472473629	-0.249938
C	 1.7426222321	-1.22695177	 0.4423564016	-0.070543
C	 2.1427521519	-0.1615109346	 1.3934092563	-0.325509
C	 0.6642136395	-0.4605023396	 1.2803868827	 0.25265
C	-0.0774258212	-1.036201347	 2.410366215	 0.05165
O	 0.4270701259	-1.5307282394	 3.3940029269	-0.277136
H	 0.82761218	 2.1319334263	 0.0122013608	 0.117558
H	-0.4541050822	 1.8596376576	-1.1738251116	 0.117873
H	-0.8520910097	 1.9872355211	 0.5460398481	 0.119622
H	-0.9117901942	-0.3969321922	-0.1971672528	 0.079527
H	 0.762795829	-1.3837889637	-1.5343530878	 0.110167
H	 1.8501770854	 0.0136062724	-1.4005925164	 0.102856
H	 2.0228569926	-2.2617061725	 0.5960593285	 0.110542
H	 2.5718557659	-0.5003835133	 2.3300319851	 0.144983
H	 2.5218266453	 0.7886104888	 1.0261735434	 0.114268
H	-1.1858694114	-1.0126993571	 2.2887699354	 0.062604
104.5911	160.9772	195.8881	223.3297	237.4411	300.6765	400.9967	452.3707	558.7055	651.645	733.4038	769.7412	830.7708	868.9523	898.0478	936.1334	952.8881	1013.862	1040.3632	1059.801	1082.8768	1093.5354	1112.2891	1150.5868	1178.5958	1221.9172	1243.7364	1275.0795	1295.8767	1363.6141	1389.236	1413.8389	1433.7819	1476.0104	1491.2489	1496.1135	1498.4695	1792.2623	2854.1466	3029.6847	3040.2055	3046.415	3096.1403	3101.0506	3114.8027	3118.2158	3194.1706	3219.4603
CC1CC2CC12C=O	C[C@H]1C[C@H]2C[C@@]12C=O	
InChI=1S/C7H10O/c1-5-2-6-3-7(5,6)4-8/h4-6H,2-3H2,1H3	InChI=1S/C7H10O/c1-5-2-6-3-7(5,6)4-8/h4-6H,2-3H2,1H3/t5-,6-,7+/m0/s1
