18
gdb 14156	3.83685	1.61346	1.38951	2.4868	67.77	-0.2406	0.0749	0.3155	938.3562	0.154283	-384.921462	-384.913707	-384.912763	-384.954298	29.019	
O	-0.2193683069	 1.4365381896	-0.1805681402	-0.418792
C	-0.119266204	 0.0444981369	-0.1118709601	 0.059922
C	-0.4134863071	-0.6672334902	 1.1876311976	-0.400741
C	-1.3966911302	-0.732105378	 0.043351112	 0.303136
C	-2.7420087543	-0.021898696	 0.0563497415	-0.298862
C	-3.3451802001	-0.5334512642	-1.2549544501	-0.07265
O	-2.9141127673	-1.8870989257	-1.3656537659	-0.258617
C	-1.6319850934	-2.0150625944	-0.7575766896	-0.129311
H	 0.5041677974	 1.8146022697	 0.3296674399	 0.289864
H	 0.6447386718	-0.3894364007	-0.7594977486	 0.084989
H	 0.1606275947	-1.5550651198	 1.4366470749	 0.111544
H	-0.6831769154	-0.04665559	 2.0369550763	 0.114395
H	-3.3487180358	-0.3497584466	 0.9078296253	 0.102365
H	-2.6365955324	 1.0634895184	 0.0922970641	 0.122606
H	-4.4385941911	-0.5299145404	-1.2737956687	 0.104304
H	-2.9811556481	 0.0634978277	-2.1064923471	 0.094172
H	-0.8537759515	-2.1611735362	-1.5224575339	 0.091301
H	-1.6482893065	-2.90765108	-0.1188749275	 0.100374
28.4825	172.0058	195.4568	255.9276	273.7473	345.5574	443.7441	491.3846	522.8721	666.6215	773.1292	811.0903	870.6285	891.5645	918.8191	945.4955	978.3502	997.0326	1039.3971	1064.5323	1086.5824	1109.0602	1136.6215	1172.3667	1196.6613	1225.2335	1236.7627	1259.7267	1299.7706	1308.8957	1331.1107	1365.5756	1406.7727	1426.0614	1485.2544	1489.6161	1515.5238	1528.4059	2974.9327	2982.8555	3028.9199	3044.7888	3082.5333	3087.1195	3115.8893	3126.3489	3204.8088	3808.4064
OC1CC11CCOC1	O[C@H]1C[C@]21CCOC2	
InChI=1S/C6H10O2/c7-5-3-6(5)1-2-8-4-6/h5,7H,1-4H2	InChI=1S/C6H10O2/c7-5-3-6(5)1-2-8-4-6/h5,7H,1-4H2/t5-,6+/m0/s1
