19
gdb 93804	2.53968	1.45534	1.04603	3.4775	72.14	-0.2518	0.0089	0.2606	1185.332	0.158643	-460.204881	-460.195972	-460.195028	-460.238653	33.099	
C	-0.2696540059	 1.5044325758	 0.1005611605	-0.40205
C	-0.1070329327	 0.0103712391	-0.1221422229	 0.125907
C	 0.8759064473	-0.3481830321	-1.2208034415	-0.111176
O	 0.9943199646	-1.7520549139	-1.3098850967	-0.255724
C	 1.5320457592	-2.3362955702	-0.1295336863	-0.02393
C	 3.0627615817	-2.4247815561	-0.1831892181	-0.396203
C	 1.0860378074	-1.6763569834	 1.1821404046	 0.3891
O	 1.4110467134	-2.1328812039	 2.2451972874	-0.332473
O	 0.334172141	-0.5568932532	 1.1361174866	-0.24109
H	 0.6951658702	 1.9719534049	 0.3190655029	 0.13085
H	-0.6953223632	 1.9768125029	-0.7899123057	 0.12424
H	-0.9384912581	 1.6889558141	 0.9444498287	 0.141821
H	-1.0751162802	-0.4486601468	-0.3592705682	 0.102413
H	 0.5078689541	 0.0012476917	-2.1894241896	 0.122099
H	 1.8483210757	 0.1337853799	-1.0289041571	 0.1005
H	 1.1227651804	-3.3516440063	-0.0934326719	 0.126989
H	 3.5180669712	-1.4309175188	-0.2361425364	 0.121442
H	 3.4355051546	-2.9249803386	 0.71252524	 0.149855
H	 3.3614729394	-2.9900782951	-1.0690555362	 0.127428
63.5783	101.8569	216.5435	225.2152	239.539	276.023	282.2674	377.4725	448.5364	465.3833	498.0618	529.9202	646.6851	693.7627	786.3353	874.8217	887.8873	957.5288	983.285	1014.7447	1083.9536	1103.8764	1124.0632	1146.5159	1153.8343	1183.7273	1250.0299	1294.3755	1326.68	1338.5317	1363.7274	1387.2583	1393.8377	1412.4816	1420.6233	1484.0975	1487.41	1494.3108	1497.9347	1500.1111	1836.3254	2979.2298	3033.4388	3046.0944	3049.4332	3058.6601	3095.176	3119.9714	3122.9773	3130.9329	3147.3156
CC1COC(C)C(=O)O1	C[C@H]1CO[C@@H](C)C(=O)O1	
InChI=1S/C6H10O3/c1-4-3-8-5(2)6(7)9-4/h4-5H,3H2,1-2H3	InChI=1S/C6H10O3/c1-4-3-8-5(2)6(7)9-4/h4-5H,3H2,1-2H3/t4-,5-/m0/s1
