15
gdb 23506	4.67536	1.28103	1.13239	2.2249	80.24	-0.2092	-0.064	0.1452	1046.6063	0.113198	-416.661517	-416.654704	-416.65376	-416.692597	27.187	
O	-0.2159647131	 1.3503567325	-0.0397577692	-0.387352
N	-0.0624075156	-0.0327017129	-0.22986581	-0.273025
C	-1.1401189719	-0.6545817013	 0.0750203892	 0.43735
C	-2.5077032801	-0.1937889069	 0.3277303519	-0.207049
C	-3.2326518156	-1.3222380476	 0.5261815633	 0.087712
C	-3.8836322404	-2.0618471281	-0.6316534461	-0.272946
C	-2.5411081576	-2.8587280598	-0.5267635174	-0.054835
C	-1.2712146444	-2.1441242089	 0.0165421523	-0.147212
N	-2.3994121843	-2.483914898	 0.9024629479	-0.106583
H	 0.6369387527	 1.6908616734	-0.3297424021	 0.308126
H	-2.8862231853	 0.743279179	-0.0568554627	 0.128891
H	-4.6957673266	-2.7510370195	-0.3791617206	 0.133852
H	-4.1304705774	-1.4757205813	-1.5170922716	 0.127191
H	-2.4520238743	-3.9023442344	-0.8271822917	 0.111684
H	-0.3857246261	-2.7708704162	 0.0729352767	 0.114194
125.8635	211.932	267.8987	375.0782	418.5088	442.0039	471.852	629.3712	664.0642	703.4019	746.4658	778.8873	814.3331	865.453	871.7926	923.4216	947.1631	990.4536	1007.544	1030.8154	1062.4468	1068.5575	1122.9611	1136.8241	1200.9754	1221.7543	1259.286	1308.2853	1324.4924	1412.0807	1488.634	1565.0486	1708.1966	3054.3432	3117.3663	3133.2075	3167.9614	3229.8181	3819.6121
ON=C1C=C2CC3C1N23	ON=C1[CH][C]2C[C@H]3[C@@H]1N23	
InChI=1S/C6H6N2O/c9-7-4-1-3-2-5-6(4)8(3)5/h1,5-6,9H,2H2	InChI=1S/C6H6N2O/c9-7-4-1-3-2-5-6(4)8(3)5/h1,5-6,9H,2H2/t5-,6+,8?/m0/s1
