17
gdb 12396	3.08725	2.21072	1.36435	5.0219	65.47	-0.2397	0.0551	0.2949	901.2902	0.144105	-401.049534	-401.041881	-401.040937	-401.081765	27.652	
C	-0.061214885	 1.4421126011	 0.0551577655	-0.337378
N	 0.0123290538	-0.0060190641	-0.0275997067	-0.149721
C	-1.2618761337	-0.7083069262	-0.0996289565	-0.14328
C	-1.0610512124	-2.1617519517	-0.5070175441	-0.237555
C	 0.1114600705	-2.7088146466	 0.2849446591	-0.067388
O	 1.2943051179	-1.9601288006	-0.0003168754	-0.247257
C	 1.2538266431	-0.5982423461	-0.0185135438	 0.476678
O	 2.29438231	 0.0151412373	-0.0406912648	-0.396437
H	 0.950610967	 1.8357563168	 0.1258778911	 0.17407
H	-0.5508113486	 1.8574309936	-0.8350701188	 0.119757
H	-0.6382588377	 1.7499186909	 0.937059648	 0.117699
H	-1.7733597757	-0.6546555221	 0.8746970669	 0.106943
H	-1.9063418331	-0.1887115291	-0.820494772	 0.111894
H	-1.9692526605	-2.7396552819	-0.3124083867	 0.112829
H	-0.8356909828	-2.2333978697	-1.5762922828	 0.124711
H	-0.0946689482	-2.6721016212	 1.3640699338	 0.110569
H	 0.3496350253	-3.7413630106	 0.0194492172	 0.123868
92.9118	121.6648	146.5894	211.631	316.0936	360.1194	432.8182	488.4073	560.8663	647.3035	725.5555	758.6102	903.7233	917.9892	958.7181	976.0626	1080.6513	1113.2775	1138.2247	1156.693	1172.8054	1232.9905	1234.3785	1277.2705	1306.3819	1345.1721	1382.0457	1421.6903	1434.0971	1458.7437	1480.2598	1499.0718	1507.0576	1518.4733	1544.3245	1816.5815	2975.3679	3009.4191	3011.2365	3027.972	3054.3592	3055.1344	3101.1207	3104.6623	3176.4204
CN1CCCOC1=O	CN1CCCOC1=O	
InChI=1S/C5H9NO2/c1-6-3-2-4-8-5(6)7/h2-4H2,1H3	InChI=1S/C5H9NO2/c1-6-3-2-4-8-5(6)7/h2-4H2,1H3
