18
gdb 54428	2.54452	1.58305	1.21688	4.0006	73.31	-0.2246	0.0197	0.2443	1062.2746	0.147431	-439.09556	-439.086932	-439.085987	-439.128551	33.386	
N	 0.1819084614	 1.0672039702	 0.461711842	-0.538063
C	-0.0201915296	-0.1366854472	-0.1440907331	 0.328189
O	 0.898188051	-0.7657621411	-0.6695713874	-0.407633
C	-1.3726280002	-0.7123144037	-0.0648246237	 0.137626
C	-1.876958805	-1.5985818576	-1.2056788016	-0.38122
C	-1.5183542871	-2.2527349338	 0.0770393582	 0.4111
O	-0.4968299275	-3.1571808778	 0.2168073046	-0.465741
C	-2.597179405	-2.0668507493	 1.1424249214	-0.269088
C	-2.4915214348	-0.5103407931	 0.9661720763	-0.31584
H	 1.0961557865	 1.4830866951	 0.3859863071	 0.262632
H	-0.5903130233	 1.6511189419	 0.7323170481	 0.262083
H	-2.910088774	-1.4794021269	-1.5261865317	 0.106563
H	-1.1541384127	-1.7388248756	-2.0015384039	 0.136809
H	 0.2885509042	-2.7339686052	-0.1730815293	 0.302142
H	-3.5663550864	-2.5310919215	 0.9369728984	 0.103368
H	-2.2451284549	-2.3886017549	 2.1238855208	 0.119955
H	-2.1569726843	-0.0162658436	 1.8813702835	 0.107722
H	-3.3900720182	-0.0031337762	 0.5988973603	 0.099396
82.9359	136.2566	181.1039	242.2492	249.3907	353.6136	389.1451	412.3277	460.9995	505.3516	547.8804	593.1782	628.5028	709.3105	725.1134	782.7499	797.2444	813.6153	927.6321	941.3203	964.2543	1017.5601	1072.0301	1084.5824	1105.3024	1145.8332	1200.2112	1219.7611	1230.9128	1243.5936	1285.0492	1378.3188	1427.8453	1439.7188	1469.1841	1480.5309	1506.2356	1613.2886	1726.1338	3040.7459	3058.5617	3099.3798	3101.7261	3128.2684	3218.1409	3598.3448	3646.0015	3733.2651
NC(=O)C12CC1(O)CC2	NC(=O)[C@@]12C[C@]1(O)CC2	
InChI=1S/C6H9NO2/c7-4(8)5-1-2-6(5,9)3-5/h9H,1-3H2,(H2,7,8)	InChI=1S/C6H9NO2/c7-4(8)5-1-2-6(5,9)3-5/h9H,1-3H2,(H2,7,8)/t5-,6-/m1/s1
