14
gdb 13743	3.09916	1.66784	1.40195	3.0916	64.09	-0.2418	0.0096	0.2514	911.1242	0.106391	-378.691052	-378.683022	-378.682078	-378.72364	29.411	
N	 1.0146766919	 0.0824800091	 0.6391615248	-0.522313
C	-0.0352429991	 0.0149280442	-0.2150508885	 0.404442
O	-0.1969021764	 0.7386121998	-1.1791860964	-0.370228
C	-1.0373614317	-1.0697308823	 0.1091813977	-0.114466
N	-0.7544584053	-1.9685804048	 1.2289604458	-0.34259
C	-1.8892583838	-1.0315949013	 1.35195165	-0.224856
C	-1.8009540639	 0.0087273657	 2.3386077834	 0.380454
C	-1.7695336927	 0.8801797384	 3.1654096588	-0.439118
H	 1.6750409653	 0.8343093311	 0.5391537659	 0.26163
H	 1.0598340998	-0.5400119772	 1.4291188965	 0.275113
H	-1.5265631649	-1.4559514836	-0.780549379	 0.115464
H	-1.0860210628	-2.9106611641	 1.0415421244	 0.247822
H	-2.8873034264	-1.4471166532	 1.2284081654	 0.123679
H	-1.7332436999	 1.6546411881	 3.8913104012	 0.204969
66.5057	108.2811	196.2386	260.929	276.7522	297.3566	472.0604	495.9435	532.9064	583.1613	622.8832	636.3585	668.6814	749.5719	786.4556	853.4562	893.8765	954.9282	991.8192	1069.8154	1107.6563	1165.5147	1204.445	1226.4678	1346.843	1405.781	1439.1458	1597.8947	1804.0959	2244.3435	3127.6824	3160.0939	3502.9625	3514.7177	3596.4318	3738.0441
NC(=O)C1NC1C#C	NC(=O)[C@H]1N[C@H]1C#C	
InChI=1S/C5H6N2O/c1-2-3-4(7-3)5(6)8/h1,3-4,7H,(H2,6,8)	InChI=1S/C5H6N2O/c1-2-3-4(7-3)5(6)8/h1,3-4,7H,(H2,6,8)/t3-,4-/m0/s1
