18
gdb 40999	3.92923	1.56838	1.49491	1.7402	76.18	-0.2377	0.0443	0.282	935.1518	0.149263	-401.792694	-401.786291	-401.785347	-401.823089	27.123	
C	 0.0394112812	 1.4916970615	 0.1675338577	-0.208813
O	 1.5004186402	 1.4392027737	-0.0593727185	-0.306
C	 1.3043487551	 0.2385381975	-0.8968675126	 0.094392
C	 1.3271309021	-1.2613707082	-0.5176465775	-0.088057
C	 0.770823325	-0.9478690935	 0.8779988981	-0.019239
C	-0.2019728248	-2.0514674013	 1.2741925074	-0.267977
C	-0.862233401	-2.2742217885	-0.1127525442	-0.166937
N	-0.2057030311	-1.2788525086	-0.9959467108	-0.209788
C	 0.0406401344	-0.0164198069	-0.1528044682	 0.250153
H	-0.2039495401	 1.7995581381	 1.1885001304	 0.118217
H	-0.446882077	 2.1403538706	-0.5696692599	 0.119186
H	 1.2938575382	 0.494965987	-1.9564206027	 0.095806
H	 1.9778629861	-2.0822715996	-0.8380439707	 0.078912
H	 1.4179044787	-0.5048215378	 1.6338449387	 0.085641
H	 0.3100887118	-2.942904472	 1.649630808	 0.103127
H	-0.909540101	-1.7252718978	 2.0431671052	 0.101999
H	-0.6876491298	-3.2755456422	-0.5167224289	 0.108328
H	-1.940640808	-2.0933633321	-0.1164314915	 0.11105
209.9701	248.358	288.5939	331.9828	489.2317	533.649	602.1224	701.2774	723.7518	751.4449	824.54	845.9225	865.954	874.165	904.5902	934.4491	950.521	964.2291	977.0115	1008.9783	1040.5982	1048.1318	1089.2722	1117.6964	1140.7632	1154.625	1179.5251	1193.2042	1234.8584	1248.6272	1267.5603	1272.3436	1284.6277	1312.2066	1331.662	1354.4174	1488.6552	1496.9024	1507.0975	3033.1344	3046.4933	3049.0423	3060.7692	3083.2528	3104.1529	3107.869	3111.0112	3129.5405
C1OC2C3C4CCN3C124	C1O[C@H]2[C@H]3[C@@H]4CCN3[C@]124	
InChI=1S/C7H9NO/c1-2-8-5-4(1)7(8)3-9-6(5)7/h4-6H,1-3H2	InChI=1S/C7H9NO/c1-2-8-5-4(1)7(8)3-9-6(5)7/h4-6H,1-3H2/t4-,5+,6-,7-/m0/s1
