19
gdb 70763	3.84517	1.30983	1.11969	0.9008	88.26	-0.2474	0.0435	0.291	1132.293	0.158027	-348.657111	-348.648964	-348.64802	-348.689256	32.686	
C	 0.0013601192	 1.4650388207	-0.0283485888	-0.52086
C	 0.028253171	-0.0371409403	-0.0590518081	 0.323279
C	 0.5651203517	-0.9622726463	-1.1708686282	-0.353841
C	 0.0582389042	-1.943427001	-0.0893095302	 0.263741
C	 0.0721154644	-3.3745835706	-0.0939162218	 0.089852
C	 0.0885227438	-4.5782794488	-0.1073865064	-0.379086
C	 0.5391320981	-0.9978983865	 1.0809723755	-0.111385
C	-0.8359068661	-1.0383376853	 1.7733369063	-0.275083
C	-1.1658477833	-1.0118358825	 0.2692851929	-0.11139
H	 1.0135627255	 1.877893361	-0.1034591023	 0.121512
H	-0.5834624648	 1.8648478276	-0.8642792554	 0.121513
H	-0.44405787	 1.8387464783	 0.9002082237	 0.12168
H	 0.0197254587	-0.9650295232	-2.1205923497	 0.094785
H	 1.6461125022	-0.9517403482	-1.3463197481	 0.094785
H	 0.1031967581	-5.6397691672	-0.1188013383	 0.174327
H	 1.5397894903	-1.0066278486	 1.5171242475	 0.074022
H	-1.0853632212	-1.9561056183	 2.3130825574	 0.104947
H	-1.120821303	-0.157589395	 2.3566861909	 0.093181
H	-2.1350546088	-1.0366722159	-0.2323530269	 0.074022
129.721	133.72	207.9505	256.6108	291.4891	393.0559	400.1077	512.1199	519.8568	536.5421	608.5086	640.4367	641.0376	700.3574	766.5722	863.0167	863.908	895.9867	914.2291	979.9971	998.071	1013.7905	1037.1714	1088.4341	1092.1329	1094.9155	1126.0079	1150.1441	1159.1184	1188.2408	1204.0152	1232.392	1267.4716	1279.3307	1365.1403	1412.5624	1485.9825	1490.2419	1503.2558	1508.4706	2227.5303	3025.0591	3033.1574	3046.8555	3089.9185	3092.4921	3093.1941	3095.8324	3101.2211	3105.7844	3502.8228
CC12CC3(C#C)C1CC23	C[C@@]12C[C@@]3(C#C)[C@@H]1C[C@@H]23	
InChI=1S/C9H10/c1-3-9-5-8(2)6(9)4-7(8)9/h1,6-7H,4-5H2,2H3	InChI=1S/C9H10/c1-3-9-5-8(2)6(9)4-7(8)9/h1,6-7H,4-5H2,2H3/t6-,7+,8-,9+
