19
gdb 47535	2.82683	1.53191	1.09071	2.5458	77.37	-0.2372	0.0165	0.2537	1112.1477	0.161904	-419.184867	-419.177183	-419.176239	-419.217076	30.237	
N	-0.0427876754	 1.382548804	-0.2317741426	-0.48062
C	-0.042302249	 0.1422020594	 0.0241895169	 0.366935
C	-1.341141512	-0.6346202551	 0.07746645	-0.295619
C	-1.6548955077	-1.2135644841	 1.4461959952	-0.000446
C	-2.142294294	-2.6147793096	 1.5884778667	-0.263711
N	-0.7986019006	-2.2485781856	 2.0263588592	-0.080724
C	 0.3415160628	-2.6813411025	 1.2224479693	-0.176718
C	 1.3705926495	-1.5605716912	 1.1210826902	-0.06801
O	 1.1321615944	-0.5587982451	 0.1206108303	-0.259165
H	 0.9196513882	 1.7285152548	-0.2497458381	 0.218278
H	-2.1347469715	 0.0542138356	-0.2177774967	 0.136679
H	-1.2964880875	-1.4297021276	-0.6738395471	 0.116824
H	-1.9843646869	-0.4732937806	 2.1729703912	 0.104224
H	-2.8391179354	-2.8873249862	 2.3764060471	 0.120596
H	-2.241050244	-3.1978193934	 0.6733297185	 0.110568
H	 0.8098852172	-3.5288057764	 1.7376568164	 0.112851
H	 0.0753581317	-3.0308574289	 0.2124757671	 0.098096
H	 1.4667667346	-1.0782284165	 2.1023198362	 0.12058
H	 2.3428039256	-1.975442301	 0.8441466503	 0.119382
90.4839	142.7016	250.413	299.9078	324.1347	360.7022	442.7279	480.3619	530.8171	574.0079	663.1205	732.3416	819.4473	825.9278	899.1789	909.9261	947.4888	964.0463	1013.504	1035.6167	1048.2935	1091.3486	1105.0089	1122.7555	1134.15	1159.6442	1173.7593	1233.1115	1254.3069	1306.9417	1310.7544	1337.2157	1341.2286	1386.1795	1416.4994	1425.8437	1470.4059	1495.9614	1499.9086	1518.1832	1738.3216	2981.6516	3028.1886	3049.7528	3059.4399	3089.5929	3104.2219	3114.6494	3128.6066	3179.3181	3455.5624
N=C1CC2CN2CCO1	[NH][C]1C[C@H]2CN2CCO1	
InChI=1S/C6H10N2O/c7-6-3-5-4-8(5)1-2-9-6/h5,7H,1-4H2	InChI=1S/C6H10N2O/c7-6-3-5-4-8(5)1-2-9-6/h5,7H,1-4H2/t5-,8?/m0/s1
