12
gdb 21509	5.29682	1.76635	1.32463	2.8587	56.46	-0.2821	-0.0362	0.2459	833.7777	0.086565	-410.904105	-410.897503	-410.896559	-410.93518	23.597	
N	-0.0957493709	 1.3289080664	 0.0090976628	-0.563002
C	 0.0815408466	-0.0067401449	 0.0022194718	 0.518775
O	 1.1257007909	-0.6132695959	-0.008600791	-0.366591
N	-1.1645611484	-0.7164103011	 0.0103006293	-0.045064
C	-1.3409813124	-2.0619274311	 0.0073958901	 0.055829
N	-2.6230447218	-2.3518898417	 0.0171085189	-0.282965
C	-3.211880322	-1.1177269916	 0.0258705235	 0.051597
N	-2.378835503	-0.0966294828	 0.0223501877	-0.259475
H	 0.7187720665	 1.916679936	 0.0030831622	 0.279784
H	-1.0257754524	 1.715353619	 0.0170461489	 0.29056
H	-0.5092887182	-2.7475691744	-0.0016873568	 0.179899
H	-4.2824580949	-0.9761591478	 0.0351661827	 0.140651
92.9833	165.6327	229.5781	259.8732	420.752	525.76	595.0941	648.208	678.5309	690.2568	770.4097	898.9597	923.2637	969.5777	1015.2623	1102.6425	1142.3848	1199.2026	1259.292	1311.2929	1336.6569	1417.3829	1438.0247	1555.5576	1593.9691	1853.6467	3261.4342	3288.224	3603.0268	3750.5585
NC(=O)N1C=NC=N1	NC(=O)n1cncn1	
InChI=1S/C3H4N4O/c4-3(8)7-2-5-1-6-7/h1-2H,(H2,4,8)	InChI=1S/C3H4N4O/c4-3(8)7-2-5-1-6-7/h1-2H,(H2,4,8)
