20
gdb 10234	3.28877	1.15589	0.90314	2.4836	68.93	-0.2549	0.0806	0.3355	1304.7017	0.174463	-423.247169	-423.237036	-423.236092	-423.282694	34.709	
C	 0.1910360047	 1.1004196898	-0.1398662141	-0.230786
O	 0.0538863277	-0.2917092166	 0.0259639668	-0.23436
C	-1.2809115476	-0.7319240164	-0.1132773412	-0.061012
C	-1.3423584698	-2.2460286475	 0.0527218362	 0.073663
C	-2.7844191213	-2.7331438729	 0.2303292473	-0.062668
O	-2.8402900716	-4.1403692273	 0.2796338898	-0.426301
O	-0.8519422114	-2.9393204931	-1.0897206792	-0.270118
C	 0.5549045663	-3.1078101468	-1.1442708402	-0.239367
H	 1.2478383459	 1.3436106308	-0.007042348	 0.129284
H	-0.1272354611	 1.4263834372	-1.1424271557	 0.107803
H	-0.399010024	 1.6575107582	 0.6049140415	 0.106508
H	-1.921489266	-0.2502397944	 0.6468808236	 0.085943
H	-1.679209881	-0.461396793	-1.1048006529	 0.096962
H	-0.7535373415	-2.5316835312	 0.9377582566	 0.082894
H	-3.1922388726	-2.3532860983	 1.1724871639	 0.107588
H	-3.403313753	-2.3327478487	-0.5908717846	 0.086671
H	-2.2736440441	-4.4338849474	-0.4457971676	 0.285428
H	 0.9275651772	-3.6333623332	-0.2524860717	 0.108751
H	 0.7647155389	-3.717204242	-2.0271709897	 0.120959
H	 1.0741671043	-2.1481379475	-1.2255979307	 0.132158
68.6942	91.6675	105.3684	120.6276	163.2223	194.2163	233.4114	261.5996	323.2831	348.9002	396.705	488.4261	506.6842	593.9898	824.1288	919.0823	972.8376	1067.5952	1087.8995	1092.1123	1118.7951	1143.5041	1170.2816	1184.8504	1187.2057	1203.7907	1224.0875	1250.7762	1277.8312	1292.2314	1377.8991	1398.8652	1426.3804	1445.7126	1476.779	1480.2266	1484.8455	1485.7606	1496.4475	1504.7702	1516.3611	1522.2159	2945.9966	2960.1789	2973.4121	2987.1686	2995.0945	3005.5923	3018.2612	3078.1757	3080.4141	3116.7656	3121.0916	3768.2789
COCC(CO)OC	COC[C@@H](CO)OC	
InChI=1S/C5H12O3/c1-7-4-5(3-6)8-2/h5-6H,3-4H2,1-2H3	InChI=1S/C5H12O3/c1-7-4-5(3-6)8-2/h5-6H,3-4H2,1-2H3/t5-/m1/s1
