16
gdb 69217	2.71125	1.63738	1.17139	1.5344	72.36	-0.2509	-0.0216	0.2293	1042.3098	0.125838	-434.096879	-434.089062	-434.088118	-434.12904	29.95	
C	-0.0301627169	 1.5353156276	 0.0263994234	-0.493908
C	 0.1187422737	 0.0417064745	 0.0218467062	 0.182645
N	-0.7552303774	-0.8474806471	 0.8305854256	-0.35839
C	 0.7080851749	-0.8083412812	 1.0891784247	-0.171711
C	 1.4118845545	-1.9521716127	 0.4257330528	 0.447113
N	 2.1300354823	-2.8050820575	 1.0284867133	-0.539601
N	 1.1279449963	-1.8218719407	-0.9389946257	-0.388635
C	 0.446899429	-0.659651509	-1.2852256462	 0.432442
O	 0.2028222002	-0.2907771485	-2.4064881639	-0.359802
H	 0.8792117857	 2.0215157289	-0.3393582567	 0.14137
H	-0.8531873583	 1.8352202047	-0.6287491882	 0.152863
H	-0.2330889507	 1.9032428467	 1.0368317989	 0.119493
H	-1.2135143608	-0.2740999421	 1.5388438863	 0.239591
H	 1.088889841	-0.4284007897	 2.0280613181	 0.119879
H	 2.5294653272	-3.4917508989	 0.3856467722	 0.215044
H	 1.4074453795	-2.4926227349	-1.6391493408	 0.261607
138.8669	142.4346	182.7805	251.1842	305.8858	344.7308	412.3435	519.5837	550.1336	573.5392	632.7434	689.4928	732.6335	777.4531	836.7441	866.5503	890.5257	896.1959	980.9589	1025.4377	1051.5279	1085.3843	1120.9481	1145.4397	1192.8642	1296.5015	1345.4868	1360.8797	1395.0851	1412.7569	1440.0453	1479.0022	1498.0805	1770.2893	1854.2848	3041.1296	3112.4484	3117.1534	3212.2513	3455.1654	3470.4069	3629.1144
CC12NC1C(=N)NC2=O	C[C@]12N[C@H]1[C]([NH])NC2=O	
InChI=1S/C5H7N3O/c1-5-2(8-5)3(6)7-4(5)9/h2,8H,1H3,(H2,6,7,9)	InChI=1S/C5H7N3O/c1-5-2(8-5)3(6)7-4(5)9/h2,8H,1H3,(H2,6,7,9)/t2-,5-/m0/s1
