18
gdb 75790	2.17708	1.46632	1.12026	4.1948	73.28	-0.2495	-0.0385	0.211	1153.5295	0.144963	-439.123142	-439.113587	-439.112643	-439.157611	34.449	
C	-0.1088364469	 1.5811390006	-0.1043515433	-0.418334
C	 0.0322845424	 0.0707983922	 0.0095827313	-0.21911
C	 1.1277381811	-0.6152983463	-0.8448012503	 0.452291
O	 1.3434466865	-0.7282216499	-2.0196244965	-0.35619
N	 1.7864238987	-1.0717504982	 0.2785333027	-0.356691
C	 0.794454649	-0.5795342577	 1.2394208424	 0.222008
C	 1.3407744847	 0.351656332	 2.3215822699	-0.453458
C	-0.0226733627	-1.6901746789	 1.8726909747	 0.128786
O	 0.1765461748	-2.8633943885	 1.6938758372	-0.249949
H	 0.8486098975	 2.0936449633	 0.0204492911	 0.130658
H	-0.4888996882	 1.8321477154	-1.098985276	 0.146401
H	-0.8117589747	 1.9779238194	 0.6348844749	 0.122902
H	-0.9346092164	-0.414276992	-0.16361176	 0.111486
H	 2.3765843665	-1.8877323027	 0.3690688275	 0.256593
H	 1.9148999965	 1.1665855441	 1.8769620156	 0.138969
H	 0.5284775017	 0.7819876674	 2.9163643301	 0.128854
H	 2.0023342482	-0.1957137825	 3.001183689	 0.133069
H	-0.8426948585	-1.3333245676	 2.5374274298	 0.081715
69.8314	83.6551	192.4459	195.7027	200.5176	241.8491	261.7064	312.2493	333.9571	380.7888	458.1553	522.3085	593.8053	679.6904	714.8384	793.1293	831.2667	890.9161	918.6778	997.0296	1033.7585	1066.8984	1105.0347	1142.8521	1179.5306	1193.6856	1220.8041	1283.4203	1345.9619	1367.3453	1402.5929	1410.7949	1419.8964	1482.275	1490.2609	1498.0236	1507.434	1830.2608	1898.7107	2871.313	3039.6883	3043.5301	3055.1098	3105.1929	3111.5672	3120.4119	3135.754	3596.8193
CC1C(=O)NC1(C)C=O	C[C@H]1C(=O)N[C@]1(C)C=O	
InChI=1S/C6H9NO2/c1-4-5(9)7-6(4,2)3-8/h3-4H,1-2H3,(H,7,9)	InChI=1S/C6H9NO2/c1-4-5(9)7-6(4,2)3-8/h3-4H,1-2H3,(H,7,9)/t4-,6+/m0/s1
