16
gdb 30328	2.98733	1.62284	1.14767	0.5754	70.06	-0.2393	-0.007	0.2324	1030.8652	0.127097	-437.913539	-437.906355	-437.90541	-437.945496	27.452	
O	-0.1282477193	 1.5080758293	-0.162752622	-0.42184
C	 0.1091399666	 0.1153440056	 0.0092123719	-0.016185
C	-1.1998918239	-0.7556314606	 0.1465050122	-0.238777
C	-1.4030579301	-1.6062911293	-1.1599828411	-0.355377
C	-0.0721421486	-1.4364624651	-1.8210150224	 0.242024
C	 0.7130855295	-0.5544848185	-1.1743025173	 0.273808
O	 1.8940389717	-0.4431975816	-1.8475342663	-0.194405
C	 1.7294835047	-1.3062215234	-2.8913269919	 0.039821
N	 0.5894419288	-1.9252101241	-2.9376366197	-0.339354
H	-0.5524069163	 1.6292527536	-1.0200140524	 0.278007
H	 0.7142437517	 0.0585023348	 0.9184005139	 0.104029
H	-1.0932668914	-1.4257544201	 1.0035874897	 0.117938
H	-2.0437030265	-0.0939551446	 0.3556124911	 0.116104
H	-1.6381877174	-2.6486131445	-0.9245148591	 0.12413
H	-2.2245961601	-1.2323115519	-1.7818570586	 0.119074
H	 2.5617592206	-1.3913178395	-3.5728980281	 0.151003
79.4302	146.4604	242.045	312.9029	340.9859	428.2469	477.3733	607.5564	657.1205	692.8653	719.9179	765.377	817.8556	839.7912	904.2907	948.5724	968.1231	1009.7987	1060.8827	1083.7795	1102.3077	1164.6524	1213.5617	1239.0114	1255.2559	1271.8126	1295.2055	1321.9575	1359.3331	1401.5443	1440.6153	1478.4867	1502.7712	1523.4867	1668.1855	3040.6348	3063.6917	3075.6299	3080.4185	3118.5855	3273.6001	3795.137
OC1CCC2=C1OC=N2	O[C@H]1CCc2c1ocn2	
InChI=1S/C6H7NO2/c8-5-2-1-4-6(5)9-3-7-4/h3,5,8H,1-2H2	InChI=1S/C6H7NO2/c8-5-2-1-4-6(5)9-3-7-4/h3,5,8H,1-2H2/t5-/m0/s1
