16
gdb 56873	3.39034	1.03956	0.84091	3.0095	72.8	-0.2627	0.0133	0.276	1319.985	0.122138	-437.839461	-437.830472	-437.829528	-437.873727	32.733	
O	 0.4250335949	 1.6096434274	 0.0061401954	-0.416279
C	 0.132789355	 0.2193824526	-0.0941265568	-0.066998
C	 0.7508492431	-0.3968251674	-1.2667093518	 0.286167
C	 1.3140129562	-0.8767365117	-2.2136970218	-0.428985
C	 0.5562742607	-0.4818536233	 1.2017485949	 0.116909
C	-0.2279148497	-0.0985007403	 2.4705085084	-0.379359
C	-0.6843300442	-1.5421512044	 2.4293513115	 0.438055
N	-1.4232117983	-2.2626336146	 3.1378227634	-0.534847
O	 0.034189619	-1.844993496	 1.2827827623	-0.259763
H	 1.3445202479	 1.7359491319	-0.2527460631	 0.293196
H	-0.9590178158	 0.146577563	-0.1738647229	 0.127264
H	 1.789774687	-1.3098302769	-3.0591900294	 0.208318
H	 1.6461081256	-0.4850742002	 1.2976326959	 0.097324
H	 0.3687183058	 0.1688826899	 3.3432050233	 0.139792
H	-1.0146542923	 0.6440223494	 2.3274016593	 0.148474
H	-1.475730925	-3.2152633492	 2.7729926114	 0.230731
63.5385	83.6573	125.1344	201.8219	241.4357	263.0997	354.3052	388.4978	462.0892	495.7276	522.6657	588.1163	644.8683	682.0064	756.8222	835.6818	870.1807	921.5011	966.4178	975.4641	1013.6207	1036.4962	1072.1388	1095.7845	1149.6901	1216.7673	1235.4737	1253.6131	1294.158	1324.056	1384.2799	1416.2077	1466.0386	1831.2544	2236.7207	3038.1994	3072.562	3093.494	3147.7885	3477.918	3500.8312	3812.0699
OC(C#C)C1CC(=N)O1	O[C@@H](C#C)[C@H]1C[C]([NH])O1	
InChI=1S/C6H7NO2/c1-2-4(8)5-3-6(7)9-5/h1,4-5,7-8H,3H2	InChI=1S/C6H7NO2/c1-2-4(8)5-3-6(7)9-5/h1,4-5,7-8H,3H2/t4-,5+/m0/s1
