18
gdb 67405	2.76012	1.55214	1.28914	2.0715	84.21	-0.23	0.0359	0.2659	1052.7554	0.146901	-364.720684	-364.712612	-364.711667	-364.752883	31.825	
C	-0.1192975646	 1.5135051278	 0.1262494854	-0.529988
C	-0.0329988563	 0.0394957127	-0.0632807896	 0.291867
C	 0.8674272769	-0.9433297917	-0.9218374237	-0.142276
C	 1.1976566191	-1.5973568854	 0.4279660298	-0.153628
N	-0.0294693481	-0.9747907029	 1.0237138989	-0.214854
C	-1.0664523351	-1.0450574822	-0.0992143556	 0.182435
C	-0.4262208731	-1.6865415534	-1.3353059635	-0.304877
C	-2.4416826191	-1.0121031356	 0.2560137473	 0.13359
C	-3.6170183383	-0.982908387	 0.5122785653	-0.352109
H	 0.8273815979	 1.923772382	 0.4948860191	 0.128087
H	-0.3653526583	 2.019178581	-0.8135604811	 0.127263
H	-0.8999631222	 1.7449148436	 0.8569319142	 0.14704
H	 1.6250819648	-0.682926479	-1.6584061468	 0.078412
H	 1.2437424083	-2.6912306823	 0.4778392078	 0.100113
H	 2.0690817196	-1.1653900036	 0.9268284902	 0.111565
H	-0.8710676222	-1.2755422189	-2.2443063142	 0.114603
H	-0.3871730143	-2.779134815	-1.3984138076	 0.101493
H	-4.6509544451	-0.9621505502	 0.7522832443	 0.181264
115.6259	156.9032	196.2436	222.7483	280.8702	408.3658	435.0109	505.0016	538.0154	557.2976	594.8128	654.4927	665.2325	688.8988	748.1088	836.4186	859.9514	921.591	941.764	989.8958	1006.2766	1054.5515	1069.9947	1102.8715	1114.69	1141.0452	1160.9918	1192.2872	1224.1803	1259.624	1300.9134	1309.0755	1399.0923	1441.04	1478.9343	1488.574	1492.541	1514.1765	2237.411	3030.5708	3036.4709	3047.8678	3093.2933	3102.1668	3113.7474	3114.2183	3134.4935	3503.6306
CC12C3CN1C2(C3)C#C	C[C@@]12[C@H]3CN1[C@@]2(C3)C#C	
InChI=1S/C8H9N/c1-3-8-4-6-5-9(8)7(6,8)2/h1,6H,4-5H2,2H3	InChI=1S/C8H9N/c1-3-8-4-6-5-9(8)7(6,8)2/h1,6H,4-5H2,2H3/t6-,7+,8-,9?/m1/s1
