27
gdb 120841	3.17351	0.59903	0.53898	0.0967	97.85	-0.2599	0.091	0.3508	2231.4543	0.251004	-353.560315	-353.548911	-353.547967	-353.597941	41.447	
C	 0.1239733176	 1.5363264975	-0.287212438	-0.381314
C	 0.2885826701	 0.0186712287	-0.1744736597	-0.15517
C	 0.4102747706	-0.4677311667	 1.2765900667	-0.189984
C	 0.5633957354	-1.9718724687	 1.381044105	-0.011921
C	 1.9210196516	-2.6310550355	 1.2867391918	-0.292244
C	 1.1513304965	-2.6689324593	 2.5877775678	-0.011922
C	 1.6481668831	-1.9353798546	 3.8173520106	-0.189982
C	 2.6374553617	-2.7662751126	 4.6467516229	-0.155171
C	 3.1362649654	-2.0351553968	 5.8956459253	-0.381314
H	 0.9812739612	 2.0614727321	 0.1491224893	 0.11175
H	 0.0370172342	 1.8534559525	-1.3312534254	 0.109675
H	-0.7736309608	 1.8784257528	 0.2402407904	 0.112231
H	-0.5661102927	-0.4797874328	-0.6508771943	 0.092019
H	 1.1758856342	-0.3013019755	-0.735361876	 0.097846
H	 1.263753177	 0.0334866491	 1.7489647139	 0.091246
H	-0.4783888794	-0.1464636913	 1.8387137661	 0.090748
H	-0.2465449032	-2.5157551428	 0.8980951315	 0.075401
H	 2.0310741815	-3.5413885582	 0.7072716828	 0.104232
H	 2.7861676725	-1.9744742693	 1.2444994806	 0.102955
H	 0.6908260418	-3.6271094926	 2.8220513684	 0.0754
H	 2.1303830078	-0.9939534815	 3.5275816097	 0.091246
H	 0.7944956195	-1.6555414829	 4.4512721049	 0.090748
H	 2.1578788231	-3.7095104842	 4.940409255	 0.092019
H	 3.4898716845	-3.0449515159	 4.0142874287	 0.097847
H	 3.6520745746	-1.1051010748	 5.6309377009	 0.11175
H	 2.3053235122	-1.7720282611	 6.5598994024	 0.112232
H	 3.8367117799	-2.6516591355	 6.4678796185	 0.109675
57.9621	73.0378	76.0516	101.6423	112.3031	174.9548	243.9958	244.8038	262.213	289.6575	335.0116	426.1635	450.7043	539.3738	738.6234	747.5772	790.6176	828.7693	851.5153	875.7446	885.6754	906.5371	907.0963	968.1453	975.9006	1040.1425	1053.583	1058.0742	1075.8372	1089.9931	1124.9311	1130.7661	1149.0081	1199.4355	1200.596	1245.72	1268.667	1268.8356	1301.6395	1305.4508	1325.7625	1331.7406	1377.3244	1388.127	1406.8748	1410.8427	1412.3384	1435.1805	1478.3095	1482.992	1493.0049	1493.078	1499.0612	1499.3034	1500.7832	1510.1382	1511.5749	3002.0145	3006.2016	3017.1828	3017.6295	3027.4301	3027.7112	3036.862	3043.1412	3057.1756	3063.8512	3093.6922	3094.0696	3099.6853	3099.8302	3111.5564	3119.2811	3124.2203	3203.2744
CCCC1CC1CCC	CCC[C@H]1C[C@H]1CCC	
InChI=1S/C9H18/c1-3-5-8-7-9(8)6-4-2/h8-9H,3-7H2,1-2H3	InChI=1S/C9H18/c1-3-5-8-7-9(8)6-4-2/h8-9H,3-7H2,1-2H3/t8-,9+
