18
gdb 39570	3.56066	1.54102	1.13609	1.2545	79.37	-0.22	-0.0028	0.2172	1050.2912	0.152355	-398.160265	-398.153229	-398.152285	-398.191939	27.424	
C	 0.0403277077	 1.5840027745	 0.0089332804	-0.200601
N	 1.4738548467	 1.9283508263	-0.1147842241	-0.263299
C	 2.1238889904	 0.8422372039	 0.0216070762	 0.074077
N	 1.3834804462	-0.322961144	 0.1705255022	-0.082858
C	 1.7816533857	-1.5051059736	 0.7647080565	 0.090887
N	 1.014777919	-2.3984526235	 1.2482021081	-0.271323
C	-0.4229771653	-2.1250732209	 1.2621895757	-0.154825
C	-0.7932890913	-0.6310908759	 1.216344201	-0.246761
C	-0.0435103694	 0.0316226174	 0.063877304	 0.028325
H	-0.3593185066	 2.0532044925	 0.9169844047	 0.11605
H	-0.5167052631	 1.9934839254	-0.8379127661	 0.120278
H	 3.2081439278	 0.7778968883	 0.0233539351	 0.137095
H	 2.8628889828	-1.6494205078	 0.7868224525	 0.116633
H	-0.8864314603	-2.6547265792	 0.417698369	 0.110744
H	-0.8374882196	-2.5825299894	 2.1669056403	 0.112621
H	-1.8740360223	-0.5038036833	 1.098609953	 0.107179
H	-0.504162449	-0.15024341	 2.1587232848	 0.11099
H	-0.4249522796	-0.3642101007	-0.886126903	 0.094789
90.25	150.999	223.4857	333.6643	441.1539	462.7464	514.1678	531.1947	600.0713	727.5086	786.5617	858.2615	872.089	896.6865	937.0992	944.959	954.9027	980.9567	1008.7602	1064.7878	1076.2998	1128.0513	1190.3005	1222.4086	1251.0325	1266.2652	1293.2114	1314.8668	1337.9568	1346.1835	1363.1408	1385.0022	1396.6992	1423.8499	1481.2208	1488.402	1496.6542	1683.3144	1720.0554	3006.8386	3012.7744	3027.2375	3036.4229	3063.103	3086.3117	3090.4198	3120.1236	3187.7745
C1N=CN2C=NCCC12	C1N=CN2C=NCC[C@@H]12	
InChI=1S/C6H9N3/c1-2-7-4-9-5-8-3-6(1)9/h4-6H,1-3H2	InChI=1S/C6H9N3/c1-2-7-4-9-5-8-3-6(1)9/h4-6H,1-3H2/t6-/m0/s1
