23
gdb 109787	2.64987	1.01554	0.85545	1.3207	86.9	-0.2375	0.0614	0.2989	1484.5973	0.204762	-388.259673	-388.249556	-388.248612	-388.295412	37.636	
C	-0.0445136847	 1.5221470728	-0.2645158252	-0.375882
C	 0.0093182901	 0.0486986403	 0.1590163774	-0.195968
C	-1.3582013528	-0.6044716803	 0.1528748016	-0.059579
C	-1.8748866397	-1.32713335	-1.0767186557	 0.060787
O	-1.0243306835	-1.5159020452	-2.1740782954	-0.416363
C	-1.5417616418	-2.1171164584	 0.160741958	-0.079522
C	-0.3869026182	-3.0700034861	 0.1823261371	 0.035883
C	 0.0614484707	-3.6849273006	 1.4870039593	-0.272903
C	-0.6323069255	-4.5349505219	 0.4515103905	-0.277167
H	 0.9490430735	 1.9807416164	-0.2393074185	 0.111509
H	-0.4357331637	 1.6302855547	-1.282796422	 0.101244
H	-0.6970347406	 2.1024442175	 0.3972715988	 0.114677
H	 0.6818249567	-0.4968456905	-0.5092469205	 0.106929
H	 0.4448673092	-0.0262399635	 1.1631491712	 0.099861
H	-2.1106237342	-0.0477703976	 0.7090359573	 0.07405
H	-2.9260831193	-1.2099543039	-1.341001967	 0.079314
H	-0.9512462493	-0.6775030847	-2.6419458495	 0.288997
H	-2.4013092358	-2.4697582884	 0.7268209947	 0.077241
H	 0.3909234356	-2.8545569872	-0.5401640888	 0.097201
H	 1.123351515	-3.8322817065	 1.6516615032	 0.107018
H	-0.4935963132	-3.4270812468	 2.3832545853	 0.106352
H	-1.6513055799	-4.8491452274	 0.653919307	 0.106932
H	-0.0464382987	-5.2637745723	-0.0975920187	 0.109391
46.1416	68.5272	112.1181	148.1932	199.2844	257.3647	265.0025	299.5028	313.7519	330.9032	538.9505	560.386	606.6774	749.1364	758.3716	793.0482	813.4861	824.976	848.0522	923.4277	932.0594	974.8113	998.7295	1037.6205	1049.6149	1057.4603	1069.4481	1076.2057	1116.8967	1136.2215	1145.7955	1186.5445	1199.2686	1213.7769	1223.6118	1251.6376	1291.9913	1296.9468	1315.2767	1339.6321	1403.441	1413.3155	1421.5342	1470.4327	1472.0595	1486.1373	1496.6362	1504.5855	1508.1056	3025.4986	3031.5622	3076.4658	3088.8117	3095.4433	3102.0764	3114.7388	3126.2876	3127.7162	3131.9986	3183.3712	3203.8018	3220.4525	3804.8908
CCC1C(O)C1C1CC1	CC[C@H]1[C@@H](O)[C@H]1C1CC1	
InChI=1S/C8H14O/c1-2-6-7(8(6)9)5-3-4-5/h5-9H,2-4H2,1H3	InChI=1S/C8H14O/c1-2-6-7(8(6)9)5-3-4-5/h5-9H,2-4H2,1H3/t6-,7+,8-/m1/s1
