14
gdb 44318	3.45311	1.94633	1.47153	4.8138	64.84	-0.2481	0.0008	0.2489	840.0681	0.102035	-436.580603	-436.574673	-436.573729	-436.610667	24.704	
O	 0.0151277578	 0.0542335042	-0.1337564929	-0.355243
C	 0.0311939804	 1.2517693637	-0.0482850085	 0.366203
N	-1.0558328381	 2.1485528355	-0.0724756571	-0.354606
C	-0.521543256	 3.4983203023	 0.2596590141	-0.071403
C	 0.73237114	 3.5863569899	-0.6285875898	-0.074834
C	 1.773941606	 3.9101631014	 0.4655758544	-0.014589
O	 2.5175884811	 2.6103263356	 0.2876973039	-0.382469
C	 1.1227232382	 2.2913069682	 0.1577776036	 0.307701
C	 0.6255760418	 3.2709610546	 1.2778997134	-0.094098
H	-1.942432235	 1.8268509247	 0.2860490843	 0.256567
H	-1.2901216102	 4.2650537366	 0.334851586	 0.094736
H	 0.8164142497	 3.7088059688	-1.7065449789	 0.10806
H	 2.3931234722	 4.7866685822	 0.6447768143	 0.109635
H	 0.5985389123	 3.0430541324	 2.3424391532	 0.10434
187.6608	304.1056	413.1924	414.6054	541.3407	563.2994	625.9552	703.4101	712.2555	755.8454	794.7838	806.521	868.7171	888.2574	893.7254	937.477	963.2045	1002.1355	1045.799	1066.9179	1098.2953	1121.4838	1150.7737	1172.9074	1201.3116	1212.9057	1277.5512	1303.4157	1320.1618	1378.3129	1869.2982	3129.6986	3136.6047	3142.5917	3154.8235	3628.8507
O=C1NC2C3C4OC13C24	O=C1N[C@@H]2[C@H]3[C@@H]4O[C@]13[C@H]24	
InChI=1S/C6H5NO2/c8-5-6-1-3(7-5)2(6)4(1)9-6/h1-4H,(H,7,8)	InChI=1S/C6H5NO2/c8-5-6-1-3(7-5)2(6)4(1)9-6/h1-4H,(H,7,8)/t1-,2+,3+,4-,6+
