15
gdb 10931	5.89078	1.37457	1.27207	5.4415	66.04	-0.2705	0.025	0.2955	957.6548	0.118231	-362.644784	-362.637406	-362.636462	-362.676386	27.266	
C	 0.0721588455	 1.5541390398	 0.0106326852	-0.501578
C	-0.0779630669	 0.0738592617	 0.1249259839	 0.419919
C	-1.3635039152	-0.7685429014	 0.0186067792	-0.304288
C	-0.6918499287	-1.8277229701	 0.9770621762	-0.174657
C	-0.5364659007	-3.1914988425	 0.4958113219	 0.284341
N	-0.4166729657	-4.2769439757	 0.1169794647	-0.324273
C	 0.5709514824	-0.934762994	 0.9836587896	-0.048053
O	 0.9789859375	-0.7650477305	-0.3695567669	-0.265506
H	 1.0882966787	 1.8554817287	 0.2771670547	 0.142318
H	-0.1229870991	 1.8833959788	-1.0159559974	 0.140584
H	-0.6341055615	 2.0691171378	 0.6693873938	 0.129498
H	-2.2422555575	-0.3096155555	 0.4755989519	 0.120397
H	-1.6022530306	-1.1173420147	-0.9870993841	 0.134936
H	-1.1825982607	-1.8384810117	 1.9537535811	 0.129525
H	 1.3268944124	-0.8632387407	 1.757081546	 0.116838
98.4495	146.4658	196.614	266.7407	315.1824	373.8095	449.154	514.7187	585.686	677.9682	728.7014	798.3056	875.2776	896.5315	926.1964	965.8013	1019.8693	1035.2964	1055.1467	1101.8223	1155.6886	1195.4047	1206.9754	1250.9809	1277.952	1331.8717	1406.945	1457.3775	1476.6762	1486.1091	1498.3335	2358.5672	3038.3476	3079.6658	3085.57	3101.5907	3126.3894	3144.888	3190.2533
CC12CC(C#N)C1O2	C[C@]12C[C@@H](C#N)[C@H]1O2	
InChI=1S/C6H7NO/c1-6-2-4(3-7)5(6)8-6/h4-5H,2H2,1H3	InChI=1S/C6H7NO/c1-6-2-4(3-7)5(6)8-6/h4-5H,2H2,1H3/t4-,5+,6-/m0/s1
