19
gdb 64771	2.32598	1.55158	1.20816	0.9377	75.98	-0.2455	0.0514	0.2969	1113.0575	0.157032	-423.000864	-422.991596	-422.990652	-423.034953	34.489	
C	-0.0611436721	 1.550607978	 0.1777181251	-0.415955
C	 0.0079809093	 0.0294335134	 0.0540303066	 0.440076
C	-1.4070885381	-0.5877318052	-0.0399826902	-0.389194
C	-1.4110514703	-2.0324430867	-0.2235170738	 0.321167
C	-1.4376072764	-3.224298278	-0.3759413325	-0.451786
O	 0.7799760483	-0.2940448215	-1.0958773259	-0.293573
C	 1.7899592501	-1.2229665087	-0.7162853552	-0.097593
C	 1.9727158997	-0.927510245	 0.7706662722	-0.100543
O	 0.6666952464	-0.5430109143	 1.175479836	-0.285086
H	 0.9473687908	 1.9531784117	 0.2975320546	 0.12114
H	-0.5028062184	 1.9871390995	-0.7222124712	 0.125278
H	-0.6611878019	 1.8387758944	 1.0450043701	 0.121892
H	-1.9502490824	-0.3278960454	 0.8761731465	 0.136593
H	-1.931897676	-0.1050878519	-0.8724413038	 0.134875
H	-1.4630346267	-4.2773595484	-0.5082899801	 0.193688
H	 1.4516386757	-2.2524379817	-0.8821737497	 0.115986
H	 2.6833548194	-1.0286218682	-1.31605599	 0.108846
H	 2.2761561854	-1.7957201397	 1.3607848092	 0.116601
H	 2.6937070371	-0.1129949625	 0.933951572	 0.097585
69.0147	89.4903	138.7549	209.3304	214.4211	307.7762	326.1562	344.2172	379.7423	397.5796	584.2124	607.1876	637.0143	658.0204	670.9735	802.978	843.85	902.7894	908.8083	948.0588	954.7679	994.1368	1072.5272	1079.6158	1118.9047	1150.8408	1168.7085	1226.2354	1235.8333	1258.5327	1261.5397	1349.5844	1379.2402	1387.1775	1404.5563	1453.3885	1483.1134	1485.8109	1513.217	1520.7541	2239.575	2994.9653	3034.8953	3035.7034	3049.1861	3074.9752	3093.1061	3102.9002	3126.8509	3131.3934	3506.5334
CC1(CC#C)OCCO1	CC1(CC#C)OCCO1	
InChI=1S/C7H10O2/c1-3-4-7(2)8-5-6-9-7/h1H,4-6H2,2H3	InChI=1S/C7H10O2/c1-3-4-7(2)8-5-6-9-7/h1H,4-6H2,2H3
