23
gdb 89511	2.17434	1.67326	1.23467	1.5929	83.88	-0.2512	0.0616	0.3128	1138.3968	0.207108	-388.302477	-388.29374	-388.292795	-388.33537	35.252	
C	 0.0436565495	 1.6093910966	-0.0713690198	-0.480477
C	 0.0179223054	 0.0913562923	 0.0381213514	 0.374368
C	-1.3461789329	-0.4979403433	 0.528988636	-0.332424
C	-0.6815309786	-0.9333981189	 1.8617365566	 0.158437
O	-0.9017099388	-2.2406246168	 2.339550644	-0.43279
C	 0.722007526	-0.5488753236	 1.295813751	-0.088259
C	 1.5884182158	-1.7049438673	 0.7693901245	-0.232865
C	 1.0614141827	-2.0092086828	-0.6499905112	-0.223632
C	 0.6120254974	-0.6355560014	-1.1814334454	-0.251938
H	 1.0650667163	 1.9783223312	-0.2202330467	 0.110613
H	-0.5621243781	 1.956649003	-0.9170340819	 0.112618
H	-0.3533050974	 2.084027393	 0.8328914619	 0.111526
H	-2.1733872808	 0.2122687623	 0.6135492664	 0.096927
H	-1.6942927825	-1.3496624826	-0.0661398327	 0.088089
H	-0.9638363011	-0.279996584	 2.6916712688	 0.087712
H	-0.7649490939	-2.855058568	 1.6111011565	 0.279601
H	 1.2905686692	 0.1265134499	 1.9402268737	 0.057773
H	 2.6315625192	-1.3759291126	 0.7097695961	 0.098731
H	 1.5684418763	-2.5754795782	 1.4332964638	 0.099989
H	 1.8104240729	-2.4888145305	-1.2864609169	 0.097532
H	 0.2061036359	-2.6961276133	-0.6079237485	 0.084767
H	-0.0965305232	-0.7068745949	-2.0141292947	 0.091818
H	 1.4854023604	-0.07892178	-1.5458099528	 0.091885
73.0283	204.8238	232.8441	246.9307	274.8567	286.5336	315.5722	369.3217	432.3685	513.1675	548.517	560.1135	652.5248	755.1377	802.689	825.822	879.8457	888.9616	910.8279	921.3247	953.8211	971.2051	1003.1824	1028.0243	1068.5889	1075.5871	1088.1043	1121.3832	1144.9196	1168.6946	1227.0199	1233.3239	1240.8302	1264.7543	1277.5798	1283.0771	1302.5892	1321.6092	1338.5027	1348.5538	1363.5342	1416.0166	1435.1459	1477.5863	1483.8121	1489.7298	1494.1787	1498.0266	1506.7028	3015.9848	3018.0369	3022.3972	3038.6858	3039.528	3061.8068	3068.9816	3074.9334	3078.8715	3082.4614	3086.8462	3090.2546	3097.0787	3812.5561
CC12CC(O)C1CCC2	C[C@]12C[C@@H](O)[C@H]1CCC2	
InChI=1S/C8H14O/c1-8-4-2-3-6(8)7(9)5-8/h6-7,9H,2-5H2,1H3	InChI=1S/C8H14O/c1-8-4-2-3-6(8)7(9)5-8/h6-7,9H,2-5H2,1H3/t6-,7-,8+/m1/s1
