14
gdb 131053	3.98453	1.05555	0.91237	4.0872	64.22	-0.2705	-0.0437	0.2267	1210.4063	0.100983	-470.002698	-469.994639	-469.993695	-470.037468	27.709	
O	 0.6924944934	 0.9078042837	 1.3356805984	-0.317988
C	 0.3215161128	 1.4538748296	 0.3186401461	 0.161715
N	 1.0766659074	 1.5604728503	-0.8105038778	-0.267671
C	 2.4505290889	 1.0770453468	-0.827300254	-0.2883
C	 3.4215210326	 2.0514673116	-0.2321266518	 0.400029
C	 3.826984305	 2.2971437135	 1.0430219157	-0.188676
N	 4.7141888331	 3.3450245134	 0.9837327599	-0.105526
N	 4.8681588848	 3.7375471919	-0.1987634415	-0.009883
O	 4.0348420209	 2.9159040659	-1.0404548276	-0.216373
H	-0.6807573029	 1.9063998183	 0.1981495628	 0.093591
H	 0.7501619284	 2.1398913868	-1.5674952717	 0.263001
H	 2.4770175682	 0.1541136426	-0.2448009194	 0.168171
H	 2.7372453586	 0.8541089827	-1.8570865669	 0.14328
H	 3.5422923488	 1.8221732727	 1.9654117578	 0.164631
25.5673	46.9831	128.4203	225.9507	266.3411	326.5272	415.9293	499.2119	615.5244	661.7005	701.5115	745.4793	791.5573	850.5995	959.7448	988.0383	1010.5014	1033.1562	1053.2253	1116.3988	1196.9366	1230.4711	1277.3501	1384.5088	1395.4886	1423.3175	1451.1127	1457.5255	1517.8681	1605.9238	1799.3397	2961.1391	3082.5598	3138.1576	3303.3338	3638.9711
O=CNCC1=CN=NO1	O=CNCc1cnno1	
InChI=1S/C4H5N3O2/c8-3-5-1-4-2-6-7-9-4/h2-3H,1H2,(H,5,8)	InChI=1S/C4H5N3O2/c8-3-5-1-4-2-6-7-9-4/h2-3H,1H2,(H,5,8)
