16
gdb 50248	2.46822	1.66739	1.2682	3.7337	69.71	-0.2568	-0.0287	0.2281	1007.6574	0.124085	-437.873095	-437.865419	-437.864475	-437.905974	28.423	
N	-0.0854846238	 1.2121675726	-0.4446573716	-0.546764
C	-0.0322277068	 0.0389851168	-0.0086244007	 0.450501
O	 0.9006230474	-0.5853409211	 0.8027845638	-0.264347
C	 0.1795278512	-1.8549600528	 0.7328137404	 0.107527
C	-0.8127242113	-2.0338825272	 1.8990532769	-0.265706
C	-1.9257055725	-1.3716164902	 1.0392400785	-0.101921
C	-2.579234094	-0.1176395881	 1.566356851	 0.154061
O	-2.4335818131	 0.297958055	 2.6871212103	-0.240508
C	-0.9085973253	-1.1853646578	-0.1496216114	-0.202513
H	 0.703951965	 1.7721197475	-0.1181894181	 0.234296
H	 0.8335710968	-2.6688546428	 0.4239887234	 0.102217
H	-1.0122164962	-3.0762088181	 2.1546642829	 0.115834
H	-0.5494938885	-1.4800581332	 2.8011944338	 0.145403
H	-2.7189819748	-2.0673038722	 0.7448684655	 0.110438
H	-3.221883489	 0.4139144039	 0.8307668999	 0.092791
H	-1.2063910853	-1.4931033423	-1.1488015148	 0.10869
72.6409	91.0973	143.7543	238.4179	343.8268	384.0379	441.9676	597.3041	608.9498	725.616	749.222	807.7273	852.0801	870.917	872.5833	921.8959	947.3377	982.1851	1010.0248	1028.2173	1059.9199	1094.6758	1115.4348	1162.8373	1188.2507	1201.3514	1243.4701	1269.6633	1293.2701	1326.88	1345.1474	1419.9923	1467.6386	1819.4614	1828.4387	2895.8106	3055.1017	3083.4961	3129.1132	3145.8124	3152.0353	3479.2018
N=C1OC2CC(C=O)C12	[NH][C]1O[C@H]2C[C@@H](C=O)[C@@H]12	
InChI=1S/C6H7NO2/c7-6-5-3(2-8)1-4(5)9-6/h2-5,7H,1H2	InChI=1S/C6H7NO2/c7-6-5-3(2-8)1-4(5)9-6/h2-5,7H,1H2/t3-,4-,5+/m0/s1
