20
gdb 116808	3.09799	0.80611	0.68057	3.1905	79.85	-0.241	0.0305	0.2715	1691.2318	0.168806	-440.250826	-440.240896	-440.239952	-440.287194	34.844	
C	 0.969961902	-0.3964828846	 0.7675522271	-0.399115
C	 0.1073544777	-0.0659151526	-0.4552747833	-0.109375
N	 0.6713036293	-0.244754779	-1.783197284	-0.227479
C	 1.8501686672	-0.6509422217	-1.9245162922	 0.122685
O	 2.3621472672	-0.789697211	-3.1777517803	-0.211057
C	 3.6715951301	-1.3413747388	-3.2555906589	-0.121937
C	 3.6737143654	-2.8351972799	-3.0536555151	 0.08236
C	 4.8368687927	-3.5228802654	-2.4809818349	-0.177633
O	 3.6683648242	-3.2871205305	-1.6949373987	-0.228499
H	 1.284963475	-1.4453169451	 0.7730026907	 0.128866
H	 1.8683072496	 0.2286202177	 0.8159374205	 0.116244
H	 0.3934473804	-0.2171683308	 1.6801845482	 0.113112
H	-0.8127398649	-0.6644114369	-0.4186549669	 0.112186
H	-0.2291876274	 0.9775778154	-0.3896795702	 0.110699
H	 2.5540571529	-0.9180045547	-1.1297166442	 0.097243
H	 4.0307847828	-1.0967497556	-4.2597849326	 0.125277
H	 4.3411680812	-0.8710413285	-2.5228222078	 0.110851
H	 3.006355534	-3.3914960726	-3.7119994613	 0.112701
H	 5.0271691856	-4.5627656474	-2.7401476181	 0.124558
H	 5.7169659851	-2.9481212179	-2.194506268	 0.118313
44.4687	55.1889	76.1813	159.5884	175.503	226.0902	264.7385	327.2205	339.5664	386.6751	424.1081	533.6322	605.3705	780.1692	795.8039	863.352	893.6618	943.6375	980.996	987.6243	1040.6514	1086.7203	1095.2999	1096.6426	1143.3767	1147.8577	1160.5803	1170.0691	1215.3277	1287.8225	1310.8546	1314.6309	1377.5183	1379.3337	1397.619	1425.6183	1450.8844	1481.4051	1487.8475	1493.7886	1507.0177	1530.553	1779.8858	3014.4378	3019.6393	3031.0678	3033.7851	3073.3493	3086.4577	3091.8142	3099.9809	3106.7665	3121.1413	3174.0485
CCN=COCC1CO1	CCN=COC[C@H]1CO1	
InChI=1S/C6H11NO2/c1-2-7-5-8-3-6-4-9-6/h5-6H,2-4H2,1H3	InChI=1S/C6H11NO2/c1-2-7-5-8-3-6-4-9-6/h5-6H,2-4H2,1H3/t6-/m0/s1
