17
gdb 28231	4.81297	1.16161	0.9508	2.9443	76.67	-0.1854	0.046	0.2313	1195.7588	0.138705	-418.025291	-418.017206	-418.016262	-418.058272	29.932	
N	 0.1604010504	 1.3898233344	-0.1293800532	-0.610345
C	-0.0181726713	-0.0085809787	-0.0440939633	 0.289313
C	-1.1388683321	-0.8182069715	 0.0050210451	-0.413169
C	-0.6621571722	-2.1590318412	 0.0176979792	 0.272802
C	 0.6999496026	-2.1217330612	-0.0163466475	 0.242146
C	 1.2963276924	-3.4865748152	 0.0312924303	-0.176077
O	 0.1437650744	-4.3373383104	 0.0669204451	-0.280438
C	-1.0910485969	-3.5894695675	 0.083003166	-0.18085
N	 1.106303843	-0.8169087101	-0.0540431932	-0.388838
H	 0.2435167167	 1.8254331767	 0.7852365474	 0.243568
H	-0.6238058267	 1.8239018164	-0.6011061685	 0.246805
H	-2.1592626311	-0.467673082	 0.0424822121	 0.086956
H	 1.9069762699	-3.7414944559	-0.8494755098	 0.102123
H	 1.9179912694	-3.6683545795	 0.92327358	 0.101123
H	-1.646776984	-3.8424160439	 0.9984934742	 0.102063
H	-1.7047787549	-3.9085698574	-0.7722058857	 0.103597
H	 2.0385812404	-0.4594805831	-0.1729217982	 0.259222
87.276	99.5515	137.1667	240.1827	270.9156	299.3568	467.8662	496.8498	526.3791	640.7295	650.4208	723.5032	756.775	772.7728	818.7036	877.9045	893.0361	1016.2973	1022.1017	1061.5667	1070.0538	1125.0033	1153.4472	1163.5771	1189.3713	1212.7689	1243.9153	1334.8722	1345.4542	1415.889	1456.278	1519.2631	1527.0893	1533.2828	1543.8326	1625.6026	1656.7898	2959.8886	2974.9917	2982.0616	3000.4445	3241.6253	3486.3298	3587.0091	3676.0563
NC1=CC2=C(COC2)N1	Nc1cc2c(COC2)[nH]1	
InChI=1S/C6H8N2O/c7-6-1-4-2-9-3-5(4)8-6/h1,8H,2-3,7H2	InChI=1S/C6H8N2O/c7-6-1-4-2-9-3-5(4)8-6/h1,8H,2-3,7H2
