23
gdb 101180	3.51123	0.95315	0.88133	1.3884	86.52	-0.2582	0.0761	0.3342	1452.2154	0.205934	-388.238803	-388.229541	-388.228597	-388.273211	35.578	
C	 0.0255573449	 1.5750667395	-0.2876423654	-0.384327
C	-0.062063283	 0.0574951651	-0.1107762564	-0.180915
C	-1.5060480479	-0.4624293495	-0.0607346543	 0.069105
O	-2.2336166756	-0.101732507	-1.2391850521	-0.432048
C	-1.5548276343	-1.9713733214	 0.1426297493	 0.059546
C	-1.3325858476	-2.6534906063	 1.5340078203	-0.060463
C	-2.7646180608	-2.1935393072	 1.9404492882	-0.22464
C	-2.8888747923	-2.7123823523	 0.4770219817	-0.056098
C	-2.0074417485	-3.9162071562	 0.9223914903	-0.222411
H	 1.0642834478	 1.9056589067	-0.3823868567	 0.10678
H	-0.5212174427	 1.888067542	-1.1808426561	 0.127926
H	-0.4142906624	 2.0968062211	 0.5696498389	 0.11284
H	 0.4616610608	-0.4466808892	-0.9365331599	 0.082054
H	 0.4543997004	-0.2488445271	 0.8078057041	 0.098028
H	-2.0346859628	 0.0591142443	 0.7436483664	 0.083318
H	-1.8385810649	-0.5775057269	-1.9789525959	 0.273722
H	-0.9849437744	-2.4514269446	-0.6674762616	 0.046001
H	-0.4294158296	-2.6242491958	 2.1463583554	 0.067675
H	-3.2603760813	-2.796647123	 2.706148793	 0.088796
H	-2.9300929714	-1.1310548002	 2.1220620151	 0.096528
H	-3.7886944081	-2.7434934139	-0.1378904464	 0.074129
H	-1.453305991	-4.4397178762	 0.1379150548	 0.085849
H	-2.4597090551	-4.6156639319	 1.6304221174	 0.088606
55.8163	93.0916	127.8196	206.0654	235.7331	278.5757	281.2302	347.5922	438.7328	484.058	570.7149	600.5122	776.163	776.8371	807.8009	877.2428	895.7837	899.4198	906.5722	917.2053	980.1579	1007.6438	1016.7944	1029.3092	1054.6372	1075.5544	1088.2171	1108.4427	1113.9873	1133.5818	1145.8094	1171.4797	1190.1243	1214.4541	1231.6018	1247.7786	1254.8851	1267.5778	1285.0787	1330.2527	1381.1528	1403.785	1418.3814	1435.3415	1479.4554	1495.5749	1504.7833	1509.327	1542.623	2984.763	3001.4896	3036.3057	3045.5591	3046.9598	3058.4813	3068.1546	3092.56	3100.4951	3110.4094	3113.083	3122.413	3128.7511	3790.5114
CCC(O)C1C2CC1C2	CC[C@@H](O)[C@H]1[C@H]2C[C@@H]1C2	
InChI=1S/C8H14O/c1-2-7(9)8-5-3-6(8)4-5/h5-9H,2-4H2,1H3	InChI=1S/C8H14O/c1-2-7(9)8-5-3-6(8)4-5/h5-9H,2-4H2,1H3/t5-,6+,7-,8-/m1/s1
