19
gdb 42114	2.21748	1.7949	1.13974	2.2593	79.16	-0.2397	-0.0238	0.2159	1090.9001	0.160998	-423.005416	-422.99744	-422.996496	-423.037784	30.942	
C	 0.0020685252	 1.431582334	-0.0540208006	 0.027755
O	 1.2916984885	 1.9771990458	-0.0496367516	-0.239053
C	 2.1274742887	 1.5439745202	 1.0210968775	-0.115444
C	 1.5723803999	 1.8040549602	 2.3976814042	-0.086178
C	 1.2138223172	 0.8519784045	 3.2674429704	-0.084627
C	 1.2162680713	-0.5974687914	 3.004895456	-0.091188
C	 0.4981561464	-1.2290089861	 2.0694272363	-0.054106
C	-0.5340774371	-0.5840037993	 1.1715978067	-0.129452
O	-0.0081145301	 0.0261982944	-0.0117676646	-0.24408
H	-0.5985334673	 1.8278667001	 0.7807076626	 0.077766
H	-0.4301113556	 1.7562848236	-1.0066398357	 0.106636
H	 2.356925731	 0.4803374345	 0.9058738036	 0.115414
H	 3.0542031447	 2.1127462756	 0.8894119631	 0.111093
H	 1.5163063288	 2.8461628228	 2.7059685025	 0.095789
H	 0.9384390119	 1.1506069975	 4.279471836	 0.100199
H	 1.8482047732	-1.196114332	 3.6616002502	 0.100845
H	 0.6144667949	-2.3055735037	 1.970953546	 0.096067
H	-1.2410484265	-1.3508558011	 0.8364582796	 0.105687
H	-1.101137955	 0.1611963303	 1.7437226379	 0.106874
119.7157	150.4419	193.0035	235.4292	300.7805	337.3741	420.9472	460.5493	494.6326	556.1482	595.7292	714.0422	769.5192	786.8208	904.0651	931.8086	938.2945	982.2947	992.5848	1003.6249	1017.3564	1043.3011	1075.7779	1101.3515	1143.9411	1181.6043	1241.2771	1256.0028	1294.138	1310.2987	1330.6944	1379.4549	1398.6384	1415.5826	1442.6303	1457.7836	1488.1458	1497.9279	1513.3778	1695.2923	1699.5261	2963.3396	3016.6018	3045.4502	3063.8082	3067.7215	3091.0711	3113.4948	3121.0609	3154.4558	3160.8355
C1OCC=CC=CCO1	C1OCC=CC=CCO1	
InChI=1S/C7H10O2/c1-2-4-6-9-7-8-5-3-1/h1-4H,5-7H2/b3-1-,4-2-	InChI=1S/C7H10O2/c1-2-4-6-9-7-8-5-3-1/h1-4H,5-7H2/b3-1-,4-2-
