18
gdb 108809	3.44526	1.0456	0.81437	3.5573	76.92	-0.2001	0.0036	0.2037	1375.129	0.146673	-439.126206	-439.116759	-439.115814	-439.160929	33.385	
C	-0.0025560347	 1.4740981948	 0.0093681012	-0.350554
N	-0.026178935	 0.0298819985	 0.0007661782	-0.087089
C	-1.180419554	-0.7753250312	 0.0030430026	-0.090017
C	-0.8795970513	-2.0781504269	-0.0065411149	 0.224701
C	-1.8346765341	-3.2216663762	-0.0075045559	-0.177232
O	-3.1586479978	-2.7150450732	 0.0038184392	-0.415537
C	 0.6222107426	-2.2092918314	-0.0165034492	-0.468617
C	 1.1146767194	-0.7520670085	-0.0107880962	 0.419311
O	 2.2559199495	-0.3439531577	-0.0153293347	-0.386826
H	 1.045516579	 1.7786462628	 0.0033128322	 0.166691
H	-0.5019780415	 1.8870101874	-0.8746190829	 0.129814
H	-0.4884924078	 1.8763361325	 0.9057280347	 0.129818
H	-2.1556709039	-0.312818358	 0.0117402379	 0.139554
H	-1.6572976765	-3.8561879749	-0.8949917363	 0.094973
H	-1.6462944705	-3.8668486171	 0.8699783262	 0.094972
H	-3.7652092999	-3.4604401058	 0.0023830103	 0.291656
H	 1.0278793525	-2.7339131665	 0.8568995827	 0.142192
H	 1.0171352239	-2.7233922386	-0.9010174954	 0.142192
64.7228	121.7601	129.8183	157.0549	163.1836	221.4612	267.9817	302.0302	373.262	441.9642	517.2073	587.4962	635.9819	652.1996	811.5543	851.8714	924.7446	941.5365	1028.4664	1046.5775	1070.5775	1107.7181	1150.283	1155.7941	1164.5553	1207.8857	1240.8013	1244.1735	1313.2832	1334.6688	1406.044	1436.9679	1456.3175	1473.0968	1494.2032	1512.6284	1516.5033	1718.9576	1814.4623	2931.4977	2939.4155	3022.4339	3038.8603	3070.8957	3074.8875	3143.0852	3258.5158	3842.5364
CN1C=C(CO)CC1=O	CN1C=C(CO)CC1=O	
InChI=1S/C6H9NO2/c1-7-3-5(4-8)2-6(7)9/h3,8H,2,4H2,1H3	InChI=1S/C6H9NO2/c1-7-3-5(4-8)2-6(7)9/h3,8H,2,4H2,1H3
