21
gdb 116168	3.17002	1.06418	0.84115	2.6177	75.98	-0.2524	0.0764	0.3288	1393.5186	0.182545	-461.365202	-461.355975	-461.355031	-461.399084	34.712	
C	 0.0286520272	 1.362977816	-0.0233475524	-0.241471
O	 0.0561612076	-0.0540969829	 0.006053411	-0.235536
C	 0.708575212	-0.5861598466	 1.1048754554	 0.213078
C	 0.5169087173	-2.0999394071	 1.0999097513	-0.216985
C	 1.3152417539	-2.7440853085	 2.2320927769	 0.114164
O	 1.1832974209	-4.1509644862	 2.0939170268	-0.4359
C	 2.7748777146	-2.2765616752	 2.1741347999	-0.230829
C	 2.8337856606	-0.7470685517	 2.1181596427	-0.082757
O	 2.0872340177	-0.2469829991	 1.0231704512	-0.25774
H	 1.0361625954	 1.7835156811	-0.1071098582	 0.13018
H	-0.5599919816	 1.6483878895	-0.8976064612	 0.126865
H	-0.4517828301	 1.7694378136	 0.8796435542	 0.102753
H	 0.304972512	-0.1469380146	 2.0426309053	 0.043952
H	-0.5452536071	-2.3420460043	 1.1942166366	 0.109914
H	 0.8699383861	-2.4866049826	 0.1384684346	 0.12177
H	 0.8839508199	-2.4170752988	 3.195191778	 0.061068
H	 1.6850332493	-4.5678284608	 2.8019727119	 0.278831
H	 3.3333320879	-2.6394045276	 3.04680798	 0.083949
H	 3.2431995421	-2.6955604278	 1.276487669	 0.115306
H	 2.458174582	-0.3190667006	 3.0644090166	 0.086832
H	 3.8588787225	-0.3939000458	 1.9791687706	 0.112555
96.4904	127.4018	164.6189	173.6842	245.2216	284.9523	309.3721	328.6532	386.277	418.5976	481.8872	513.7575	558.6371	622.3008	819.2137	869.7527	898.3117	956.2193	984.867	1022.8284	1066.2593	1075.8165	1102.7092	1118.392	1148.4189	1170.1844	1179.86	1193.8156	1225.3436	1249.8309	1273.7236	1285.394	1310.806	1339.6226	1375.0326	1394.8346	1413.9297	1420.0123	1440.9344	1472.6364	1481.9903	1483.4737	1491.1144	1500.8151	1513.1815	2868.9689	2937.3431	2954.7537	2992.2263	3024.5396	3059.2964	3075.4708	3079.1721	3092.2414	3111.2349	3128.827	3812.9024
COC1CC(O)CCO1	CO[C@H]1C[C@@H](O)CCO1	
InChI=1S/C6H12O3/c1-8-6-4-5(7)2-3-9-6/h5-7H,2-4H2,1H3	InChI=1S/C6H12O3/c1-8-6-4-5(7)2-3-9-6/h5-7H,2-4H2,1H3/t5-,6+/m0/s1
