21
gdb 31224	2.18941	1.31248	0.8986	0.636	86.34	-0.2069	0.0258	0.2327	1380.012	0.18234	-387.136783	-387.127199	-387.126255	-387.172317	34.952	
C	-0.4361912521	 1.7465782802	-0.2956568275	-0.369042
C	-0.0078323758	 0.2992022313	 0.0038171811	-0.293286
C	 0.812771868	-0.3135554004	-1.0799149786	 0.271683
C	 2.0966825887	-0.7732975034	-1.1562676007	 0.160737
C	 3.1280103185	-0.8237469319	-0.0662539021	-0.306032
C	 3.4386386517	-2.2522789365	 0.412310974	-0.363177
C	 2.2675246826	-1.2332031146	-2.5112462478	-0.265641
C	 1.0894788985	-1.0158870761	-3.1439114172	-0.021511
O	 0.1903938788	-0.4573866205	-2.2916179151	-0.187044
H	 0.4365208805	 2.3968541294	-0.4096687268	 0.119451
H	-1.0134649527	 1.7935834592	-1.2229450957	 0.131573
H	-1.056411674	 2.1433958627	 0.5139292732	 0.110478
H	 0.5686335257	 0.2641205604	 0.9333962061	 0.111305
H	-0.903631275	-0.3131340318	 0.1726399773	 0.11517
H	 4.0560011383	-0.3569995431	-0.4211390046	 0.105584
H	 2.7950278607	-0.2209416881	 0.7857411377	 0.100483
H	 2.5421396426	-2.7316043632	 0.8177073921	 0.118648
H	 3.8008713452	-2.8745721653	-0.4122104495	 0.1187
H	 4.2066037005	-2.2463169308	 1.1925067515	 0.109308
H	 3.1588712673	-1.6626800323	-2.9431354967	 0.104444
H	 0.7390536919	-1.188361435	-4.1482755709	 0.12817
38.5488	52.0244	146.0783	165.2257	195.1561	221.2629	293.1023	328.178	371.4456	476.8915	603.3708	645.7938	661.1977	725.5622	750.3689	783.5777	788.0426	821.7645	908.6203	956.1385	975.0889	1012.3183	1053.109	1070.6501	1084.7515	1089.8944	1161.9518	1183.5602	1231.7519	1269.4768	1297.9102	1302.8852	1353.2878	1360.6516	1404.6803	1407.9138	1436.0815	1471.4503	1486.3658	1495.6894	1496.0566	1507.3132	1508.018	1550.8223	1659.8398	3020.0892	3022.2782	3034.8764	3040.5267	3062.3255	3079.9348	3105.7211	3109.8335	3110.6679	3122.6406	3244.8994	3280.462
CCC1=C(CC)C=CO1	CCc1c(CC)cco1	
InChI=1S/C8H12O/c1-3-7-5-6-9-8(7)4-2/h5-6H,3-4H2,1-2H3	InChI=1S/C8H12O/c1-3-7-5-6-9-8(7)4-2/h5-6H,3-4H2,1-2H3
