17
gdb 16755	4.81607	1.51724	1.41214	1.1996	68.46	-0.2373	0.0222	0.2595	948.4036	0.143115	-363.869965	-363.862697	-363.861753	-363.901883	27.376	
C	 0.1988861184	 1.0011254061	-0.7312081291	-0.381147
C	-0.2760975335	 0.3024303253	 0.5541086345	-0.273946
C	-1.5836935004	-0.3950056622	 0.3790365128	 0.395932
N	-2.6991849045	-0.0910447453	 0.9201428809	-0.307088
C	-3.6765461385	-1.0136131455	 0.3943515538	-0.019451
C	-3.9044224951	-0.9553378965	-1.1045685881	-0.319024
C	-2.905380143	-1.9246907452	-0.5443314856	 0.059357
O	-1.5639327322	-1.4736365753	-0.4682588743	-0.247824
H	 1.1658788214	 1.4846597451	-0.5674916065	 0.119698
H	 0.30811386	 0.2823987169	-1.5474967032	 0.134994
H	-0.5159362704	 1.7680756135	-1.0445263782	 0.127689
H	 0.4713396628	-0.4373174922	 0.8645886231	 0.121865
H	-0.3964320105	 1.0222439224	 1.366356199	 0.132302
H	-4.4724510455	-1.3216582836	 1.0611771939	 0.101328
H	-4.8272949406	-1.3871824304	-1.476218132	 0.120425
H	-3.5476920704	-0.0838175228	-1.6436600038	 0.123938
H	-2.988284348	-2.9980877904	-0.6531490969	 0.110951
57.3277	126.9876	215.0517	288.0706	369.5182	380.3742	480.1008	641.5627	725.05	748.608	761.3899	782.986	822.1922	908.4268	937.2857	975.1656	983.261	1015.4241	1045.9933	1075.6272	1082.4077	1096.3593	1130.3797	1142.8207	1186.8947	1242.5994	1290.85	1328.8049	1363.5148	1374.3262	1408.6895	1461.8094	1473.046	1497.8423	1509.152	1704.5543	3043.0475	3045.9872	3108.9508	3117.8108	3130.0253	3131.6281	3184.3501	3199.7293	3224.4597
CCC1=NC2CC2O1	CCC1=N[C@H]2C[C@H]2O1	
InChI=1S/C6H9NO/c1-2-6-7-4-3-5(4)8-6/h4-5H,2-3H2,1H3	InChI=1S/C6H9NO/c1-2-6-7-4-3-5(4)8-6/h4-5H,2-3H2,1H3/t4-,5+/m0/s1
