18
gdb 89604	4.29454	0.91719	0.87324	3.988	76.3	-0.2651	0.0315	0.2966	1338.7008	0.147497	-401.932433	-401.92381	-401.922865	-401.966193	32.255	
O	-0.1794335087	 1.466379865	-0.1455296585	-0.429048
C	-0.0639535867	 0.0659944339	-0.0398558766	 0.126219
C	 0.3592076832	-0.5514558489	 1.3429907727	-0.33637
C	-0.9918861252	-1.276346769	 1.3903415487	 0.37047
C	-1.1885973778	-2.6978352004	 1.8610390767	-0.458236
C	-1.0717032045	-2.8253522506	 3.3172745433	 0.266139
N	-0.9700004769	-2.9093249224	 4.4651787355	-0.308001
C	-2.0992000745	-0.2656111843	 1.3428800004	-0.310497
C	-1.4089708404	-0.6433755041	 0.0575440702	-0.128029
H	 0.706086356	 1.8438855994	-0.1514162409	 0.285937
H	 0.5499553215	-0.3436293436	-0.8528330291	 0.073513
H	 1.2174407691	-1.2232791107	 1.2568931657	 0.10324
H	 0.5418470251	 0.1654864425	 2.1487390293	 0.109465
H	-2.1764883027	-3.0657247375	 1.560338082	 0.151581
H	-0.4492956194	-3.3651621885	 1.4004126759	 0.14898
H	-3.1027912249	-0.6645985856	 1.4529584729	 0.115106
H	-1.9605281544	 0.7257225697	 1.7626824659	 0.129795
H	-1.9495654688	-1.079922935	-0.7738337341	 0.089737
57.4915	86.1532	154.7051	248.6416	286.3067	320.9723	377.589	394.9641	428.2225	445.3451	570.9694	666.2839	730.1831	827.9272	866.6153	899.2224	923.4702	932.7223	971.3251	980.7421	990.2852	1037.0348	1067.406	1088.1394	1119.3957	1170.1076	1175.6826	1216.0745	1240.1389	1275.783	1290.4236	1330.6501	1338.4954	1403.3483	1424.0632	1456.81	1476.4878	1504.3415	2361.588	3009.4277	3030.7231	3052.3368	3071.5028	3107.8845	3125.9575	3182.4782	3211.5133	3815.7275
OC1CC2(CC#N)CC12	O[C@H]1C[C@@]2(CC#N)C[C@@H]12	
InChI=1S/C7H9NO/c8-2-1-7-3-5(7)6(9)4-7/h5-6,9H,1,3-4H2	InChI=1S/C7H9NO/c8-2-1-7-3-5(7)6(9)4-7/h5-6,9H,1,3-4H2/t5-,6-,7+/m0/s1
