18
gdb 89860	2.87847	1.16467	0.97115	4.1707	76.94	-0.2893	-0.0038	0.2855	1252.7701	0.146444	-401.933798	-401.925135	-401.924191	-401.967637	32.226	
C	 0.6629092544	 1.3987750594	 0.0321920537	-0.39379
C	-0.0424581489	 0.0476620863	-0.002435349	 0.026275
C	 0.6003960416	-0.9948148632	-0.9782935807	-0.336723
C	 1.1817328156	-1.6961691678	 0.2459162218	 0.473912
C	 0.2992678647	-0.8946721654	 1.2008001547	-0.33657
O	 1.4593264991	-3.0785659003	 0.3470703084	-0.264337
C	 2.5633044412	-2.1722305872	 0.4681850308	-0.219782
C	 3.5221652746	-2.169919253	-0.6143797586	 0.311241
N	 4.2933451402	-2.1356506274	-1.4749475554	-0.330036
H	 1.7423255308	 1.2810794701	 0.1826137802	 0.118894
H	 0.5176112615	 1.9424138801	-0.9070603407	 0.123772
H	 0.2792887104	 2.0232891534	 0.8459242641	 0.119808
H	-1.1145850993	 0.1884308578	-0.1556761394	 0.082069
H	-0.1363230407	-1.62403448	-1.4845793693	 0.123737
H	 1.3121008212	-0.6167459785	-1.7165317185	 0.127899
H	 0.7827119896	-0.4389850046	 2.0688721123	 0.111217
H	-0.5556205934	-1.4862167872	 1.5397947594	 0.123605
H	 3.0006789073	-2.1040146224	 1.4625521962	 0.13881
47.1929	122.1916	136.1849	245.453	289.1577	314.0667	334.3947	380.3373	398.2689	519.0218	578.051	601.7697	784.013	802.4935	826.4189	861.4178	885.9983	925.87	958.7055	1000.0477	1037.8215	1046.5334	1074.4682	1132.5543	1156.3743	1169.2812	1216.7292	1229.594	1263.196	1282.4629	1333.8016	1363.8919	1414.4641	1456.2614	1461.8012	1490.2171	1496.6371	1499.3896	2358.6137	3027.0449	3058.2596	3063.1322	3074.4277	3097.4773	3100.7716	3113.9991	3118.909	3132.2489
CC1CC2(C1)OC2C#N	C[C@H]1C[C@@]2(C1)O[C@H]2C#N	
InChI=1S/C7H9NO/c1-5-2-7(3-5)6(4-8)9-7/h5-6H,2-3H2,1H3	InChI=1S/C7H9NO/c1-5-2-7(3-5)6(4-8)9-7/h5-6H,2-3H2,1H3/t5-,6-,7-/m0/s1
