14
gdb 130996	7.43216	0.766	0.69745	4.6352	64.12	-0.2491	-0.0327	0.2164	1487.4146	0.101132	-470.022393	-470.014336	-470.013392	-470.056647	27.483	
O	-0.1743357869	 0.2159756024	 0.5279475096	-0.23623
C	 0.0780378768	 1.1383801485	-0.1994493059	 0.138742
C	 1.3933928019	 1.892371469	-0.1501845367	-0.152926
O	 1.3358326219	 2.9070167103	-1.1442241691	-0.255531
C	 2.4175786114	 3.6828933374	-1.2513310463	 0.457954
N	 3.4994928743	 3.5500100497	-0.4979905082	-0.308963
N	 4.2837209706	 4.5511571787	-0.9909665479	-0.198649
C	 3.6440059286	 5.201531135	-1.9778238375	 0.035611
N	 2.4489235526	 4.6782541034	-2.1755325998	-0.328287
H	-0.6323731598	 1.513979258	-0.9675108593	 0.10543
H	 1.5421702173	 2.323462234	 0.8480533569	 0.151452
H	 2.228102686	 1.2040317321	-0.3343270384	 0.151449
H	 5.1999399701	 4.7042564868	-0.6044789292	 0.285252
H	 4.0730000151	 6.0331651746	-2.5163856582	 0.154697
48.9615	63.385	122.3	125.8576	309.2425	344.7428	407.1955	484.1085	590.9124	668.1565	730.4281	774.5564	785.1007	864.2173	992.2288	1006.2131	1056.711	1100.2001	1110.1697	1112.8476	1186.747	1234.3897	1303.3435	1332.0222	1374.7254	1410.7936	1468.6561	1480.2197	1535.5198	1585.1956	1847.0441	2908.2327	3026.6276	3066.0701	3260.4186	3674.1568
O=CCOC1=NNC=N1	O=CCOc1n[nH]cn1	
InChI=1S/C4H5N3O2/c8-1-2-9-4-5-3-6-7-4/h1,3H,2H2,(H,5,6,7)	InChI=1S/C4H5N3O2/c8-1-2-9-4-5-3-6-7-4/h1,3H,2H2,(H,5,6,7)
