18
gdb 51622	5.47313	0.75751	0.74939	1.8609	74.99	-0.2529	0.0261	0.279	1517.7222	0.147102	-439.076438	-439.067833	-439.066888	-439.110878	31.626	
O	 0.5089573919	-0.542678006	 0.5290602245	-0.319866
C	 0.0998146531	 0.5758896582	 0.3039250869	 0.152221
N	 0.8639735439	 1.6275003868	-0.1048093405	-0.286206
C	 2.2850173031	 1.5393132589	-0.3248849912	 0.062765
C	 2.8556216131	 2.0167436164	-1.6958876879	-0.344681
C	 3.998421695	 2.665690658	-0.91189952	 0.46768
C	 5.4405660577	 2.5628174971	-1.1324208192	-0.26379
O	 4.7307619031	 3.7968879566	-1.3321572611	-0.270405
C	 3.2147820043	 2.5620021411	 0.3984549891	-0.344515
H	-0.9650746205	 0.863279059	 0.410495817	 0.075562
H	 0.4055629687	 2.5125182552	-0.2591769071	 0.245294
H	 2.5642650881	 0.5094028346	-0.1043699749	 0.13131
H	 3.0957517998	 1.255480195	-2.4409257626	 0.118837
H	 2.2165590726	 2.7785622621	-2.155839242	 0.109476
H	 6.1204966456	 2.5499769949	-0.281434933	 0.118989
H	 5.819126633	 2.0921194245	-2.0389343287	 0.118975
H	 2.691971493	 3.500042277	 0.6153432347	 0.109497
H	 3.7371694845	 2.2283636105	 1.2973253058	 0.118856
38.1407	59.2903	177.9395	205.0224	307.6939	322.8547	327.7419	412.0299	462.4404	530.988	537.357	702.5375	802.373	817.0882	862.9744	877.1204	900.0958	972.9346	987.0452	1027.5222	1042.5684	1057.1483	1126.2017	1128.9292	1160.1526	1192.1582	1198.1716	1211.5492	1232.8781	1262.6925	1284.7788	1366.2368	1432.562	1437.7344	1463.2448	1490.9936	1531.0503	1543.6135	1806.9768	2936.3708	3047.5863	3052.8754	3080.7813	3111.676	3115.302	3135.6435	3168.4496	3620.721
O=CNC1CC2(CO2)C1	O=CN[C@H]1C[C@]2(CO2)C1	
InChI=1S/C6H9NO2/c8-4-7-5-1-6(2-5)3-9-6/h4-5H,1-3H2,(H,7,8)	InChI=1S/C6H9NO2/c8-4-7-5-1-6(2-5)3-9-6/h4-5H,1-3H2,(H,7,8)/t5-,6+
