14
gdb 81122	2.64732	1.76656	1.29597	4.8145	66.99	-0.2661	-0.0253	0.2408	950.2053	0.10039	-436.635084	-436.627775	-436.626831	-436.666695	28.298	
O	 0.1046156318	 1.3823806534	 0.0587542308	-0.413521
C	 0.0660500748	 0.0027734462	 0.0310719496	 0.114791
C	-0.0819916682	-0.6302717483	 1.4534943338	-0.027262
O	-1.5033337388	-0.2798092342	 1.415629757	-0.301995
C	-1.3948413849	-0.6710517429	 0.0165362061	 0.268417
C	-1.0015122742	-2.1486660269	 0.1052636895	-0.133081
C	-0.1025679201	-2.1177451916	 1.0945002406	-0.091546
C	-2.4434188203	-0.2192272404	-0.8666389644	 0.147884
N	-3.2363515022	 0.1538045682	-1.6199013376	-0.330579
H	 0.2156962218	 1.7144074283	-0.8380454415	 0.302882
H	 0.7965509797	-0.4474755041	-0.6503453053	 0.091545
H	 0.4531532507	-0.2577109551	 2.3233026829	 0.105768
H	-1.3569707259	-2.9497936494	-0.5241891098	 0.137492
H	 0.5012530158	-2.9050289632	 1.5196097882	 0.129205
122.0269	167.9072	253.039	280.0139	327.3734	483.0038	490.9862	523.1684	550.0422	567.4728	673.0596	716.2344	747.2997	864.7324	891.4064	905.7907	914.5591	926.7444	994.0562	1003.9839	1075.3259	1137.0872	1162.7309	1214.3819	1255.9831	1262.1421	1295.7846	1311.4097	1430.8814	1603.1135	2362.0049	3050.0927	3166.0387	3243.5114	3269.2947	3823.2472
OC1C2OC1(C=C2)C#N	O[C@H]1[C@H]2O[C@@]1(C=C2)C#N	
InChI=1S/C6H5NO2/c7-3-6-2-1-4(9-6)5(6)8/h1-2,4-5,8H	InChI=1S/C6H5NO2/c7-3-6-2-1-4(9-6)5(6)8/h1-2,4-5,8H/t4-,5-,6-/m0/s1
