23
gdb 70673	2.35307	1.60008	1.20684	0.209	90.36	-0.2333	0.0263	0.2596	1156.1125	0.207761	-351.162051	-351.153576	-351.152632	-351.194419	34.634	
C	 0.0986132529	 1.565106546	 0.1513802099	-0.465658
C	 0.047853316	 0.0520451163	 0.0700024031	 0.388331
C	-0.910380438	-0.6865926489	 0.9789569183	-0.372375
C	 0.5792265936	-0.7400446243	 1.2394493754	-0.015909
C	 1.3985864635	-1.9896851393	 0.9927867602	-0.238749
C	 2.7819414385	-1.6681482631	 0.4039814452	-0.236579
C	 2.7963685501	-1.0383673147	-0.96795277	-0.025941
C	 1.785535237	-0.5617108153	-1.6989945902	-0.060527
C	 0.3153858018	-0.5099508403	-1.3256444517	-0.339967
H	 1.0651169024	 1.9419095737	-0.203124	 0.119232
H	-0.6850519145	 2.023086158	-0.4645069477	 0.109582
H	-0.0397898628	 1.9142333618	 1.179648696	 0.108448
H	-1.531086592	-0.1070790504	 1.6548293022	 0.103539
H	-1.3904480496	-1.5831577656	 0.5978399416	 0.102432
H	 0.9318524106	-0.1443480687	 2.0796672586	 0.072967
H	 1.5267827091	-2.5415967346	 1.9322588129	 0.091135
H	 0.8669410049	-2.667805024	 0.3162897923	 0.098181
H	 3.3282939124	-1.0108040073	 1.0987304236	 0.103797
H	 3.3816037391	-2.5886146754	 0.3616010328	 0.098367
H	 3.7911756485	-0.9816443129	-1.409481788	 0.079444
H	 2.0316020323	-0.1723243982	-2.6850011279	 0.079599
H	-0.123891883	-1.5105275123	-1.4175357595	 0.107215
H	-0.2177900427	 0.1034147896	-2.061862907	 0.093434
132.8842	148.1873	231.0994	265.6769	314.7043	344.9462	362.379	397.6928	410.9196	441.2546	558.1029	657.0651	684.1068	767.7397	804.4581	839.7918	883.5799	895.6254	920.2914	937.0303	950.3846	986.7672	1002.3164	1012.1054	1050.3241	1060.4675	1072.8982	1111.3462	1123.5592	1141.8833	1192.7534	1230.9862	1245.523	1276.0959	1301.917	1321.3936	1358.316	1360.8238	1387.4349	1412.471	1424.8538	1436.4379	1472.3383	1477.6109	1490.3263	1492.5211	1503.3604	1506.7713	1724.324	2986.4272	3012.7949	3018.052	3023.0564	3031.482	3050.4199	3068.4643	3078.5847	3097.7985	3117.0841	3118.2793	3119.42	3147.2261	3201.4493
CC12CC1CCC=CC2	C[C@]12C[C@H]1CCC=CC2	
InChI=1S/C9H14/c1-9-6-4-2-3-5-8(9)7-9/h2,4,8H,3,5-7H2,1H3	InChI=1S/C9H14/c1-9-6-4-2-3-5-8(9)7-9/h2,4,8H,3,5-7H2,1H3/t8-,9+/m1/s1
