12
gdb 23794	3.93278	1.86815	1.26653	1.8814	61.71	-0.2202	-0.0594	0.1608	851.9599	0.085424	-418.812339	-418.80617	-418.805225	-418.842719	23.576	
F	 0.0485440775	 0.0339491331	 0.0023054318	-0.064398
C	-0.0444334898	 1.3602369969	 0.0109823673	 0.301049
C	-1.2356174707	 1.9868448467	 0.0304797851	-0.276717
C	-1.2756728211	 3.4386135453	 0.0391422471	 0.410638
N	-2.3753083783	 4.0966917583	 0.0576212724	-0.558277
N	 0.0121712675	 4.0130132617	 0.0250657281	-0.298794
N	 1.1982176165	 3.3926178076	 0.0056853115	-0.162541
C	 1.1870994503	 2.0957172479	-0.001428871	-0.105922
H	-2.1757238499	 1.4522544523	 0.0401115637	 0.143958
H	-2.2166759288	 5.1052854039	 0.0611542379	 0.200164
H	 0.0824043203	 5.0201798839	 0.0297862178	 0.26839
H	 2.1417460465	 1.5846482124	-0.0170956017	 0.14245
151.4036	219.4284	343.2877	413.0135	477.5481	508.0071	556.828	608.0615	674.757	715.8681	742.9766	785.2551	872.6091	912.2692	944.649	1021.0402	1110.6514	1164.4114	1221.4462	1284.1842	1358.554	1428.5062	1459.6327	1599.438	1674.602	1723.4021	3213.6998	3236.3492	3462.8802	3612.0929
FC1=CC(=N)NN=C1	F[C@@H]1C=C([NH])NN=C1	
InChI=1S/C4H4FN3/c5-3-1-4(6)8-7-2-3/h1-2H,(H2,6,8)	InChI=1S/C4H5FN3/c5-3-1-4(6)8-7-2-3/h1-3,6,8H/t3-/m1/s1
