16
gdb 61747	3.73349	0.89682	0.7752	3.9172	75.55	-0.2507	-0.0406	0.2101	1417.7967	0.120359	-437.876068	-437.866079	-437.865134	-437.912228	33.933	
C	-0.1495224155	 1.3172887339	 0.1375361205	-0.3482
N	-0.0524091767	-0.1143314968	-0.0938418647	-0.113864
C	-0.0187389293	-0.9718854122	 1.0752904137	-0.26319
C	-1.383330907	-1.1022145406	 1.7402462021	 0.154943
O	-1.5454684247	-1.2296751575	 2.92376507	-0.228254
C	 0.0685082419	-0.6992007411	-1.3308054839	 0.320216
O	 0.1769303776	-1.9037959715	-1.4908668529	-0.366756
C	 0.0592204119	 0.2003869244	-2.4755580642	 0.182388
C	 0.0620453364	 0.8519559755	-3.4864641784	-0.385615
H	 0.7134947097	 1.6749761276	 0.7127983527	 0.136697
H	-0.1804782463	 1.8436452484	-0.8152229007	 0.161758
H	-1.0583318711	 1.5599459117	 0.700893965	 0.138336
H	 0.2815938212	-1.9702827768	 0.7372554968	 0.178925
H	 0.7070746366	-0.6106602267	 1.8118595602	 0.129467
H	-2.2362711526	-1.0886299117	 1.0230997418	 0.089872
H	 0.065429108	 1.4240148134	-4.3824065681	 0.213276
45.9339	63.6717	84.5646	134.9229	163.3664	181.5039	273.3904	308.8304	365.1711	399.9897	447.7965	546.7673	626.3248	656.0307	688.6871	741.411	755.4864	760.3366	1005.9184	1043.5418	1066.6771	1148.1933	1157.0779	1214.7362	1303.2787	1338.1646	1410.1361	1423.8793	1439.2549	1469.8749	1486.581	1525.7806	1730.7582	1841.4776	2222.8573	2874.3957	3019.546	3041.1805	3069.2152	3097.6517	3162.422	3494.5455
CN(CC=O)C(=O)C#C	CN(CC=O)C(=O)C#C	
InChI=1S/C6H7NO2/c1-3-6(9)7(2)4-5-8/h1,5H,4H2,2H3	InChI=1S/C6H7NO2/c1-3-6(9)7(2)4-5-8/h1,5H,4H2,2H3
