17
gdb 44613	2.85547	1.92638	1.53193	4.198	69.55	-0.2637	0.0088	0.2725	895.6702	0.139514	-421.868325	-421.861952	-421.861008	-421.899036	26.167	
O	-0.0329509656	 0.032022217	 0.2103482962	-0.337705
C	 0.0014135692	 1.2059359831	-0.0071028073	 0.434771
O	-1.136503913	 1.9545988264	-0.1726105661	-0.219296
C	-0.7955051833	 3.2787438846	-0.5418190461	 0.082285
C	-0.0394250447	 4.146634347	 0.4385706667	-0.079259
C	 0.3788134305	 3.5413423364	 1.7814312291	-0.249036
C	 1.5125036417	 2.5455764051	 1.4283678171	-0.203609
C	 1.2170479571	 2.1421904796	-0.0415202645	-0.192486
C	 0.6862242216	 3.4231208571	-0.6891133424	-0.113615
H	-1.5189682456	 3.7062790207	-1.2239020151	 0.114047
H	-0.223443361	 5.2129961122	 0.3701006953	 0.09423
H	 0.720313174	 4.3176668087	 2.4699171315	 0.108685
H	-0.4612933986	 3.029081035	 2.2620081961	 0.12565
H	 2.4824175932	 3.0520437489	 1.4600525773	 0.107519
H	 1.5584399537	 1.6816709545	 2.0968697697	 0.124051
H	 2.0591648771	 1.6636725843	-0.5398018129	 0.104169
H	 1.1725502134	 3.9019074194	-1.5284050245	 0.099597
124.5593	231.851	262.9222	455.2966	498.8877	565.0541	643.9561	725.3692	736.7236	756.7819	788.9503	798.8323	837.188	862.494	904.4232	942.2988	955.6595	1012.5232	1020.9554	1043.4528	1061.6512	1068.3774	1094.6229	1147.6375	1166.6279	1182.1578	1197.9011	1260.4223	1282.0012	1286.4773	1324.1194	1341.5584	1351.8017	1409.6581	1486.9928	1503.074	1886.7826	3051.5104	3054.3969	3098.4865	3111.4396	3128.6103	3174.6831	3195.3825	3205.2284
O=C1OC2C3CCC1C23	O=C1O[C@H]2[C@H]3CC[C@@H]1[C@@H]23	
InChI=1S/C7H8O2/c8-7-4-2-1-3-5(4)6(3)9-7/h3-6H,1-2H2	InChI=1S/C7H8O2/c8-7-4-2-1-3-5(4)6(3)9-7/h3-6H,1-2H2/t3-,4+,5-,6-/m0/s1
