16
gdb 53818	3.40275	1.11856	0.91707	2.5575	65.75	-0.2483	-0.0722	0.1762	1237.8781	0.123561	-475.043375	-475.034451	-475.033507	-475.078444	31.138	
N	 0.034733303	 1.2661881783	 0.1027578738	-0.519902
C	 0.0185680472	-0.0826496579	 0.1221230315	 0.333908
O	 0.9492329495	-0.8126998408	 0.4096147934	-0.351743
C	-1.3602078352	-0.6639041148	-0.2706881594	 0.281466
O	-2.2905231775	 0.0712580307	-0.5145436895	-0.307922
C	-1.4221798603	-2.1650382568	-0.2867960889	-0.134687
C	-1.4295430249	-2.837939537	 1.1159647691	-0.070466
O	-2.7467863724	-3.3685660275	 0.8909049845	-0.268762
C	-2.8120714513	-2.804349163	-0.4375083425	-0.09716
H	 0.8694518407	 1.7657494307	 0.3585582508	 0.27193
H	-0.8126574863	 1.7581651991	-0.1313965993	 0.281225
H	-0.6326455103	-2.5473929483	-0.935712188	 0.12286
H	-0.6733405435	-3.6186752125	 1.2491832112	 0.119855
H	-1.3951645995	-2.1571897798	 1.9748095143	 0.11126
H	-3.633702091	-2.0887418705	-0.5457133544	 0.124266
H	-2.8916936084	-3.5789517701	-1.2087076666	 0.103873
46.9656	60.7456	83.8803	151.3884	235.7272	307.554	333.7548	367.497	454.6054	530.1736	605.7612	658.7836	697.2758	814.0553	830.0389	883.5932	934.3212	1008.8546	1034.3994	1048.358	1088.3596	1104.4814	1130.6116	1152.7944	1167.2551	1210.5318	1306.1193	1338.8905	1373.5084	1391.2491	1512.1528	1535.2752	1589.9829	1793.9737	1805.5371	3023.1011	3033.1894	3073.3373	3081.8212	3106.8895	3594.8152	3735.4771
NC(=O)C(=O)C1COC1	NC(=O)C(=O)C1COC1	
InChI=1S/C5H7NO3/c6-5(8)4(7)3-1-9-2-3/h3H,1-2H2,(H2,6,8)	InChI=1S/C5H7NO3/c6-5(8)4(7)3-1-9-2-3/h3H,1-2H2,(H2,6,8)
