14
gdb 10366	2.50762	2.19127	1.42277	4.7541	67.89	-0.2574	-0.0076	0.2498	884.7368	0.10689	-341.529388	-341.521746	-341.520802	-341.561324	28.013	
C	-0.0100405696	-1.2240687911	-0.0411765289	-0.453076
C	-0.0498718853	-0.0232618093	-0.0207631433	 0.304391
C	-0.0372932066	 1.4382636845	 0.0179500847	 0.009426
C	-0.2193922765	 2.0245500852	 1.4674450928	-0.264722
C	 1.3167259415	 2.1943058103	 1.4789722106	-0.158186
N	 1.3189007592	 2.0528194076	 0.0019076408	-0.322652
C	-0.9381731509	 1.9837402558	-1.0110171362	 0.2644
N	-1.6567252207	 2.4301313162	-1.7976259825	-0.336986
H	 0.0124195602	-2.2860645625	-0.0676321174	 0.212806
H	-0.7597100384	 2.9706220318	 1.4468914222	 0.143074
H	-0.6665209259	 1.346553701	 2.1913867202	 0.133294
H	 1.7094340528	 3.1521997302	 1.8291698839	 0.120781
H	 1.8229513748	 1.381038748	 2.0130139745	 0.112535
H	 2.0370995552	 1.4571760224	-0.3962512913	 0.234916
115.8394	130.5975	181.8773	185.8424	272.9421	465.7681	488.7105	535.7519	585.5456	588.2546	649.2165	665.4227	704.077	772.3675	924.1693	927.9895	968.2702	1022.6877	1041.1244	1101.0619	1168.7982	1196.8897	1213.1732	1266.4585	1326.0772	1388.1863	1479.2038	1523.4404	2233.7988	2360.6169	3028.4623	3091.1972	3106.8419	3174.7687	3498.1488	3535.7836
C#CC1(CCN1)C#N	C#C[C@]1(CCN1)C#N	
InChI=1S/C6H6N2/c1-2-6(5-7)3-4-8-6/h1,8H,3-4H2	InChI=1S/C6H6N2/c1-2-6(5-7)3-4-8-6/h1,8H,3-4H2/t6-/m0/s1
