21
gdb 110207	2.07979	1.603	1.0855	1.609	80.27	-0.2299	0.0804	0.3103	1216.2769	0.179318	-424.167285	-424.15752	-424.156576	-424.201527	36.363	
C	 0.0134725834	 1.4095590477	-0.2648487583	-0.240344
O	-0.0134993819	 0.1245276475	 0.3224284005	-0.254266
C	-1.2279729372	-0.5422938265	 0.1567893115	 0.084511
C	-1.4924182073	-1.4815462877	-1.0710019763	 0.362939
C	-1.8795251558	-1.1690180857	-2.4822562885	-0.520698
C	-0.4151436009	-2.4517980635	-0.5255239021	-0.303405
C	-1.3017843087	-2.0005376359	 0.6645685405	 0.356373
C	-1.3664895317	-2.5150370202	 2.0669038768	-0.519905
O	-2.4951316535	-2.1592584378	-0.2097330717	-0.372179
H	 0.9779466955	 1.8587454908	-0.0171157009	 0.129584
H	-0.0867430249	 1.3665916817	-1.359014877	 0.11004
H	-0.7897595892	 2.0494319637	 0.130488033	 0.110445
H	-2.0940113954	 0.0758582641	 0.4297821009	 0.071307
H	-1.0501625995	-0.6826691686	-3.0056144021	 0.126626
H	-2.1346800174	-2.0862282168	-3.0225754466	 0.132855
H	-2.7462804578	-0.5011293206	-2.5070665083	 0.129789
H	-0.5451006295	-3.4940449359	-0.8234471886	 0.095469
H	 0.6237372561	-2.1186690746	-0.5369687259	 0.105251
H	-0.4385221166	-2.2735229842	 2.5944121221	 0.134495
H	-2.2012123291	-2.0562769073	 2.6058158925	 0.130479
H	-1.4998896587	-3.6009254001	 2.0766591887	 0.130636
84.9411	148.3968	170.8425	187.6103	194.6179	210.7691	225.628	279.5937	343.6817	379.6165	491.0275	562.2289	578.5552	600.3165	672.9002	706.7831	846.6155	868.2481	924.5108	953.4372	1013.8312	1036.2664	1055.4442	1072.0034	1115.8509	1151.938	1158.8988	1174.1946	1179.0336	1185.7868	1232.1918	1242.7449	1290.3066	1331.9243	1388.9965	1407.4725	1424.8891	1475.9914	1478.3572	1479.5486	1487.6532	1488.5563	1489.9386	1500.4047	1512.0704	2983.4596	3025.0033	3033.9268	3036.1213	3039.4974	3072.2357	3108.2086	3110.549	3113.5677	3115.6304	3118.3167	3150.1783
COC1C2(C)CC1(C)O2	CO[C@H]1[C@@]2(C)C[C@]1(C)O2	
InChI=1S/C7H12O2/c1-6-4-7(2,9-6)5(6)8-3/h5H,4H2,1-3H3	InChI=1S/C7H12O2/c1-6-4-7(2,9-6)5(6)8-3/h5H,4H2,1-3H3/t5-,6+,7-
