21
gdb 71578	3.15376	1.47665	1.44264	1.5165	81.85	-0.2321	0.0922	0.3243	1048.2618	0.182844	-387.067395	-387.05948	-387.058536	-387.099066	32.637	
C	-0.0222263283	 1.5016543761	 0.1236491958	-0.507769
C	 0.0255483972	-0.0029220094	 0.0196909421	 0.293261
C	 0.9016252764	-0.7454845116	-1.0324566703	-0.295573
C	 0.8314817382	-1.9217306542	-0.0486263241	-0.118813
C	 0.7079939767	-0.9484392768	 1.1344026148	 0.078574
O	-0.3020630641	-1.7182486527	 1.7876421382	-0.331012
C	-0.672927607	-2.1232592943	 0.422825805	 0.418914
C	-1.4188844145	-3.4227859171	 0.341799747	-0.504075
C	-1.2916252789	-0.8050500522	-0.0899691263	-0.280424
H	 0.9822028051	 1.9273774859	 0.2262366959	 0.111826
H	-0.4805826347	 1.9497004427	-0.7660114769	 0.116372
H	-0.6103946688	 1.8173669986	 0.9926934297	 0.120794
H	 0.495813853	-0.857946982	-2.0427946567	 0.091068
H	 1.9190755674	-0.3449876922	-1.0897529094	 0.095996
H	 1.4840025556	-2.7936654152	-0.0580380681	 0.069494
H	 1.5072655212	-0.5673406074	 1.7696154682	 0.07671
H	-2.3746264116	-3.3505567526	 0.8718196014	 0.128893
H	-1.6252820731	-3.6778428985	-0.7026561097	 0.120475
H	-0.8388610833	-4.2344039056	 0.7901412128	 0.126767
H	-2.0814561555	-0.468922672	 0.5865138227	 0.098975
H	-1.6740093809	-0.8459109394	-1.1144738721	 0.089548
195.1345	201.4179	210.164	222.2487	300.0607	334.994	437.9692	469.7061	532.737	561.6749	644.3096	686.3457	730.5476	800.1203	826.9516	856.5658	869.2785	905.4102	917.8257	955.0736	973.5565	1009.0769	1017.5034	1045.0843	1057.2581	1122.38	1137.3501	1159.0096	1175.519	1199.1022	1203.8925	1229.4021	1249.9108	1255.1122	1299.6784	1340.2033	1361.2202	1412.4315	1417.3829	1477.277	1478.8405	1491.9958	1492.9188	1494.3668	1505.0228	3020.4908	3036.0844	3039.8676	3053.1044	3082.8624	3089.5111	3092.986	3105.1442	3109.9465	3114.5711	3119.5009	3131.0787
CC12CC3C1OC3(C)C2	C[C@@]12C[C@H]3[C@@H]1O[C@@]3(C)C2	
InChI=1S/C8H12O/c1-7-3-5-6(7)9-8(5,2)4-7/h5-6H,3-4H2,1-2H3	InChI=1S/C8H12O/c1-7-3-5-6(7)9-8(5,2)4-7/h5-6H,3-4H2,1-2H3/t5-,6-,7-,8-/m0/s1
