17
gdb 46690	2.82284	1.82177	1.4328	3.2672	70.63	-0.2327	-0.0215	0.2111	932.2698	0.138023	-421.809026	-421.802248	-421.801304	-421.840195	27.246	
O	 0.0983702768	-0.0344281138	-0.0085075127	-0.318219
C	-0.0205557814	 1.1673273273	 0.0277330682	 0.405703
C	-1.3450293695	 1.9095865989	 0.0419195983	-0.315557
C	-1.412085032	 3.0155603454	-1.0456523864	-0.238445
C	-0.086098032	 3.6970072256	-1.3497043763	-0.052303
C	 0.9533625074	 4.1124840006	-0.3463683393	 0.085958
O	 0.9419452329	 3.2911189687	 0.824401323	-0.296621
C	 1.1768811284	 2.1054238922	 0.0135274491	-0.005548
C	 1.2337351605	 2.9538188547	-1.2741320593	-0.17045
H	-2.1566266299	 1.1891082938	-0.077877395	 0.116926
H	-1.4339065226	 2.3703279735	 1.0315801083	 0.14235
H	-1.7648003652	 2.5601982223	-1.9792201681	 0.116362
H	-2.1641643277	 3.7609682232	-0.7633941236	 0.110881
H	-0.1234662966	 4.380451513	-2.1961836754	 0.097456
H	 1.3793311455	 5.105263285	-0.2580496638	 0.109524
H	 2.1015830412	 1.5973521049	 0.2940659217	 0.102889
H	 1.9303337343	 2.8235314747	-2.0903043887	 0.109093
113.6915	166.0652	286.9781	398.6961	426.4004	466.2585	526.6859	623.9744	697.5263	715.8461	785.2837	801.7264	817.5631	872.4309	928.3123	938.1584	987.0091	994.6697	1023.0249	1041.7245	1055.346	1073.7401	1097.2657	1132.8858	1188.9688	1229.9454	1236.4689	1253.898	1258.48	1294.8879	1331.013	1335.51	1377.4068	1438.1356	1461.4057	1496.6666	1823.7372	3027.306	3051.3051	3066.5102	3099.1369	3118.9242	3131.5886	3180.5833	3211.8257
O=C1CCC2C3OC1C23	O=C1CC[C@H]2[C@H]3O[C@@H]1[C@@H]23	
InChI=1S/C7H8O2/c8-4-2-1-3-5-6(3)9-7(4)5/h3,5-7H,1-2H2	InChI=1S/C7H8O2/c8-4-2-1-3-5-6(3)9-7(4)5/h3,5-7H,1-2H2/t3-,5+,6-,7+/m1/s1
