22
gdb 23165	1.86512	1.35728	0.84994	0.9001	86.7	-0.2395	0.0091	0.2487	1424.1912	0.192154	-404.307855	-404.297585	-404.29664	-404.343616	37.841	
C	-0.1598519866	 1.6832743759	 0.0886138828	-0.386607
C	-0.0519136747	 0.1656793394	-0.0879794655	-0.1822
C	-1.4183231944	-0.5299334531	-0.0218293564	-0.09212
C	-1.4485970624	-2.1093383079	-0.0934502426	 0.011352
C	-0.1933642912	-2.8651170862	-0.5057446673	-0.408667
C	-1.8622327797	-2.1637581657	 1.413572156	-0.339709
C	-2.0117944547	-0.6593264404	 1.3705536485	 0.424626
N	-2.4930088106	 0.2287267254	 2.1354946841	-0.243112
O	-2.9546031333	-0.3415146206	 3.3403896045	-0.393983
H	 0.8284410638	 2.1532768296	 0.0700800079	 0.106907
H	-0.7587574217	 2.1302033846	-0.7128163033	 0.111134
H	-0.6415746056	 1.9303855096	 1.0390773023	 0.141686
H	 0.415826426	-0.0654610255	-1.0532360624	 0.095501
H	 0.6106414231	-0.2455544539	 0.6833305692	 0.095449
H	-2.092055904	-0.0517761595	-0.7422450372	 0.08248
H	-2.28455008	-2.4272841862	-0.7237408631	 0.078523
H	 0.6693848447	-2.5907045501	 0.1096292809	 0.117785
H	-0.3454939127	-3.94459457	-0.3969923387	 0.115618
H	 0.0677995123	-2.6726546605	-1.5519646183	 0.116772
H	-2.7649383762	-2.7239221	 1.6710424497	 0.124042
H	-1.0578491604	-2.4944158937	 2.0810322509	 0.12033
H	-3.3071624516	 0.4257155885	 3.8035847479	 0.304194
31.8762	106.5188	136.1054	174.2195	187.7414	233.7554	253.3186	291.7566	345.9599	367.7244	397.2801	445.9472	508.7327	575.8727	667.9568	781.033	795.1129	825.8806	885.8556	904.1793	956.0496	968.2358	1016.8339	1030.662	1059.3375	1097.3389	1112.8233	1144.2658	1176.578	1197.9108	1229.2401	1250.5658	1269.7312	1294.9988	1331.9068	1363.8863	1369.7537	1401.9148	1411.8084	1415.1289	1459.6818	1484.3359	1496.2384	1497.9428	1500.3566	1510.0794	1775.2821	3020.102	3030.689	3032.2644	3033.429	3042.6238	3054.8912	3059.8558	3093.133	3098.0688	3099.1003	3105.4745	3117.4583	3819.1058
CCC1C(C)CC1=NO	CC[C@H]1[C@@H](C)CC1=NO	
InChI=1S/C7H13NO/c1-3-6-5(2)4-7(6)8-9/h5-6,9H,3-4H2,1-2H3	InChI=1S/C7H13NO/c1-3-6-5(2)4-7(6)8-9/h5-6,9H,3-4H2,1-2H3/t5-,6-/m0/s1
