19
gdb 101380	2.5998	1.25081	0.9639	1.7849	70.65	-0.2508	0.0553	0.3061	1239.0671	0.157854	-460.105209	-460.096129	-460.095184	-460.139443	33.774	
O	 0.3577165507	 0.3859266789	 0.9644023233	-0.407784
C	-0.124413834	 0.1788126476	-0.3537167648	-0.092566
C	-1.4676202594	-0.5632871011	-0.4198434597	 0.080449
O	-1.9489900424	-0.5542805577	-1.7633995184	-0.432109
C	-1.4189869882	-1.9857655312	 0.1239909676	-0.023675
C	-1.2085994126	-2.2482667518	 1.6648013751	-0.269362
C	-2.5650517214	-2.9619682746	 1.6772013354	 0.030621
O	-3.5404445476	-2.0092070631	 1.2313454126	-0.247153
C	-2.7750947435	-2.7076252853	 0.2432091228	 0.015328
H	-0.2250277765	 1.0206625706	 1.3934861609	 0.288183
H	-0.2299161245	 1.1233655214	-0.9065784132	 0.099741
H	 0.6474092304	-0.4131607575	-0.8634625557	 0.096416
H	-2.2160297221	-0.0008086879	 0.1514658965	 0.097261
H	-1.3406129779	-1.0773309461	-2.2980126736	 0.278041
H	-0.7067032907	-2.5815482491	-0.4615988696	 0.064986
H	-0.3583977073	-2.9050256568	 1.8598088194	 0.107304
H	-1.1378752391	-1.3693325817	 2.3055514539	 0.109533
H	-2.9175394172	-3.765189013	 2.3136531597	 0.103836
H	-3.3260144368	-3.2582281116	-0.5098924823	 0.10095
52.834	123.5647	139.2736	176.9867	243.4724	292.3404	317.1165	376.5771	388.9497	421.4921	503.0016	606.1713	736.3981	797.5544	844.7709	861.7869	924.7074	933.503	960.8001	1007.4571	1010.6119	1019.4059	1056.7506	1066.6906	1104.0136	1121.7147	1158.9107	1179.769	1207.4197	1236.4746	1240.6225	1256.2058	1277.6458	1326.2753	1377.6723	1382.7707	1401.7583	1416.2513	1421.448	1476.4692	1502.8383	2998.8002	3023.5694	3039.2404	3060.1229	3084.2965	3143.8795	3182.053	3197.8794	3792.0811	3817.7003
OCC(O)C1CC2OC12	OC[C@@H](O)[C@H]1C[C@H]2O[C@@H]12	
InChI=1S/C6H10O3/c7-2-4(8)3-1-5-6(3)9-5/h3-8H,1-2H2	InChI=1S/C6H10O3/c7-2-4(8)3-1-5-6(3)9-5/h3-8H,1-2H2/t3-,4-,5-,6+/m1/s1
