22
gdb 107128	2.66477	1.30877	1.14146	1.7802	86.26	-0.1985	0.0837	0.2823	1226.5561	0.193301	-367.139832	-367.130734	-367.12979	-367.173354	35.668	
C	 0.1745713681	 1.5462525433	 0.0652802252	-0.377758
C	-0.0174575594	 0.0293033612	-0.0671345806	-0.304851
C	-1.4516224917	-0.4071846712	-0.0139991339	 0.366906
N	-1.9113995082	-1.6975227614	-0.5903621112	-0.391544
C	-2.5234104894	-0.4119377309	-1.0316703972	-0.186619
C	-3.578034352	 0.0500197603	 0.0236144102	 0.362479
C	-4.5898006275	 1.1148476514	-0.2808753178	-0.493306
C	-3.6632645035	-0.9190108543	 1.1718231785	-0.341587
C	-2.4818812014	 0.0185800747	 1.0828171553	-0.160001
H	 1.2348539992	 1.8093224039	 0.0049744958	 0.113791
H	-0.3532638155	 2.0801775305	-0.7314016219	 0.11815
H	-0.2042096954	 1.91629027	 1.0228455954	 0.123268
H	 0.4156488259	-0.3105360871	-1.0173901892	 0.092198
H	 0.5454105455	-0.4821556852	 0.7262903082	 0.106869
H	-1.2331432353	-1.9588808144	-1.3064630058	 0.220421
H	-2.5101280762	-0.1167555267	-2.074375998	 0.084002
H	-5.3938931582	 0.7327943993	-0.9226358293	 0.118295
H	-5.0510083152	 1.4920334424	 0.6376611677	 0.117372
H	-4.1328894431	 1.9679421957	-0.7977108507	 0.112341
H	-4.3886919602	-0.644111928	 1.9326102321	 0.099044
H	-3.5342565201	-1.9827608453	 1.0198296391	 0.138233
H	-2.2679957564	 0.7603038618	 1.8425047981	 0.082296
75.5217	116.4647	195.0832	217.5752	231.978	275.346	307.4484	396.3187	430.8468	485.4212	534.8753	563.1436	643.8628	772.1105	793.3116	804.6316	849.9889	880.7578	907.0237	919.1772	939.0029	951.6306	974.1356	1009.2408	1031.4463	1044.344	1095.3009	1096.3945	1106.2455	1112.2426	1138.9153	1213.436	1218.8605	1254.0678	1308.7164	1340.9258	1358.0086	1376.1446	1410.2483	1420.4081	1445.6198	1475.5084	1477.1258	1485.1034	1498.5854	1500.3234	1507.5979	3005.2799	3013.1612	3038.133	3039.3074	3066.2604	3094.0948	3108.5628	3110.1369	3130.7399	3179.6265	3183.3401	3228.3493	3461.9006
CCC12NC1C1(C)CC21	CC[C@]12N[C@H]1[C@@]1(C)C[C@@H]21	
InChI=1S/C8H13N/c1-3-8-5-4-7(5,2)6(8)9-8/h5-6,9H,3-4H2,1-2H3	InChI=1S/C8H13N/c1-3-8-5-4-7(5,2)6(8)9-8/h5-6,9H,3-4H2,1-2H3/t5-,6+,7+,8-/m1/s1
