16
gdb 45708	3.12083	1.59146	1.10816	3.1126	69.74	-0.2411	-0.0308	0.2102	1043.0126	0.126459	-437.920421	-437.913371	-437.912427	-437.952162	26.988	
O	-0.1666408475	-0.0254357634	 0.1119741646	-0.289479
C	-0.0784205731	 1.166684319	 0.0276423515	 0.352433
C	-1.2255944736	 2.187883374	-0.2071199161	-0.26918
N	-0.75404395	 3.4740467235	 0.3290241169	-0.317989
C	 0.4955500656	 3.3453101571	 0.5060065615	 0.439728
O	 1.3210758745	 4.1898964635	 1.1480428904	-0.247612
C	 2.5546647704	 3.4768298699	 1.4309295056	-0.086005
C	 2.2484610651	 1.9700942247	 1.2433144094	-0.270656
C	 1.1709977045	 2.0497872441	 0.1579198848	-0.229263
H	-1.4509144879	 2.2462747125	-1.2816214209	 0.133251
H	-2.1441790171	 1.865280764	 0.2934655964	 0.14033
H	 3.323560332	 3.8236065984	 0.7308883922	 0.12166
H	 2.8557697255	 3.7417658279	 2.4460794192	 0.133619
H	 3.1354336886	 1.4020118205	 0.9601084613	 0.126046
H	 1.8420002334	 1.5402217474	 2.1634038122	 0.133358
H	 1.6272605395	 2.1083503369	-0.841102689	 0.129759
95.4014	166.5691	236.4113	265.3811	359.3088	496.6649	541.4445	585.824	636.323	667.9883	721.9427	786.2119	850.0895	917.6279	933.2415	953.968	1000.7416	1002.7478	1057.1191	1092.7548	1157.4908	1165.8648	1184.6238	1210.2088	1238.0138	1264.4216	1284.9358	1315.7576	1328.971	1417.6817	1465.4997	1494.7447	1519.2016	1752.5991	1870.6971	3010.6475	3014.1958	3042.5785	3070.4932	3081.2861	3117.474	3133.8434
O=C1CN=C2OCCC12	O=C1C[N][C]2OCC[C@@H]12	
InChI=1S/C6H7NO2/c8-5-3-7-6-4(5)1-2-9-6/h4H,1-3H2	InChI=1S/C6H7NO2/c8-5-3-7-6-4(5)1-2-9-6/h4H,1-3H2/t4-/m0/s1
