15
gdb 66399	2.32766	1.55208	1.29065	4.0046	71.98	-0.2615	-0.0099	0.2516	1040.5561	0.110189	-420.588914	-420.58055	-420.579605	-420.621913	30.873	
C	-0.0536598923	 1.5998259921	-0.0127159261	-0.499961
C	 0.0548176928	 0.105473757	-0.0282156458	 0.076992
C	 0.6719924696	-0.9107230536	-0.952565912	 0.047141
O	 1.1515800234	-1.7120826239	 0.1525123037	-0.2563
C	 0.6648108947	-0.7665872121	 1.0521622452	 0.433486
O	 0.8149146902	-0.7378287551	 2.2274565936	-0.317496
C	-0.8255091118	-0.8264459134	-0.9102565938	-0.298714
C	-1.6686806181	-1.8653678853	-0.3948522762	 0.330371
C	-2.3880385555	-2.7273014249	 0.0335337401	-0.411912
H	 0.8913532424	 2.0590646956	 0.2930861387	 0.142875
H	-0.3162049459	 1.9844243961	-1.0024861291	 0.130275
H	-0.8278451271	 1.9224795438	 0.6904000691	 0.150565
H	 1.3126227861	-0.8200450119	-1.8188317807	 0.135948
H	-1.2442523741	-0.2671330846	-1.7462110474	 0.131055
H	-3.0135822445	-3.4943970399	 0.4185128508	 0.205674
98.152	127.5266	151.4908	196.761	244.4692	297.8231	363.384	477.6257	504.65	613.8634	627.5738	664.8197	670.5025	734.3133	762.97	827.3767	873.0693	917.3593	938.317	983.2339	1033.223	1068.7247	1103.9196	1109.8612	1239.0861	1261.0971	1327.3769	1417.78	1451.7796	1483.63	1495.3876	1948.6879	2243.7596	3040.3333	3108.5711	3113.7467	3121.7143	3220.7781	3502.6937
CC12C(OC1=O)C2C#C	C[C@@]12[C@@H](OC1=O)[C@H]2C#C	
InChI=1S/C7H6O2/c1-3-4-5-7(4,2)6(8)9-5/h1,4-5H,2H3	InChI=1S/C7H6O2/c1-3-4-5-7(4,2)6(8)9-5/h1,4-5H,2H3/t4-,5+,7-/m1/s1
