13
gdb 25301	4.50804	1.06804	0.86347	7.6128	68.07	-0.2335	-0.0867	0.1467	1218.7754	0.089976	-452.795899	-452.788273	-452.787329	-452.829126	26.689	
O	-0.0825377207	 0.0265325563	 0.003289946	-0.221313
C	-0.0289834643	 1.2268856703	 0.0088227218	 0.079869
C	 1.3311872996	 1.9662183193	-0.0022489307	 0.183328
O	 2.3697770638	 1.3400784259	-0.0169483902	-0.298213
C	 1.2850472058	 3.4318471007	 0.0063246919	 0.195298
C	 2.3733467696	 4.2808900507	-0.0009751307	-0.13783
N	 1.8477652334	 5.5382580486	 0.0117366194	-0.23441
C	 0.4806032457	 5.4179690506	 0.0261621375	 0.015062
N	 0.1101899427	 4.1654197189	 0.0233500859	-0.302439
H	-0.9297039018	 1.8685771604	 0.0216862221	 0.119538
H	 3.4316570774	 4.0842494041	-0.0137266801	 0.170838
H	 2.3707626162	 6.3991597204	 0.0106801749	 0.281661
H	-0.1716880274	 6.2782061436	 0.0381013022	 0.148612
57.516	88.985	157.8065	201.266	295.1671	394.2487	496.2697	553.9812	591.2558	672.9504	716.1571	805.6934	835.6747	849.1962	912.8773	947.4882	1019.643	1029.8243	1107.4335	1122.1333	1246.2487	1314.8272	1367.2973	1402.4328	1432.041	1538.4436	1563.9919	1770.27	1830.9278	2966.9811	3257.3363	3292.6895	3655.8752
O=CC(=O)C1=CNC=N1	O=CC(=O)c1c[nH]cn1	
InChI=1S/C5H4N2O2/c8-2-5(9)4-1-6-3-7-4/h1-3H,(H,6,7)	InChI=1S/C5H4N2O2/c8-2-5(9)4-1-6-3-7-4/h1-3H,(H,6,7)
