20
gdb 38956	2.82877	1.7907	1.47653	1.7071	76.47	-0.2269	0.0729	0.2998	963.5531	0.175207	-403.134066	-403.127119	-403.126175	-403.165495	28.388	
C	 0.2940661525	 1.6138984402	 0.5787288011	-0.264845
C	 1.3267025928	 0.7257501618	-0.0070043391	-0.008714
C	 2.2381420636	-0.0380168558	 0.9441302713	-0.256666
C	 1.2968625115	-0.8813614597	 1.8407733622	-0.043658
C	 1.0459082699	-0.385100256	 3.2838385017	-0.096249
O	-0.2204738361	 0.2649056193	 3.2870746842	-0.241238
C	-1.0359063595	-0.4281355822	 2.3483983844	-0.100899
C	-0.1146701712	-0.7722820055	 1.1715413903	-0.002168
N	-0.0658786059	 0.2580984401	 0.1152529575	-0.106072
H	 0.3188953409	 1.8091878323	 1.6462502759	 0.138189
H	-0.133827109	 2.4118941762	-0.0217872466	 0.111258
H	 1.6854649516	 0.9089609324	-1.0164002772	 0.086452
H	 2.9016350826	-0.6921046875	 0.370130989	 0.105475
H	 2.8795047441	 0.6287073404	 1.530307498	 0.107681
H	 1.6415532265	-1.9170061916	 1.8697591182	 0.080534
H	 1.0321774587	-1.2367082233	 3.9822510929	 0.09147
H	 1.7895952435	 0.3346718998	 3.6384485686	 0.107204
H	-1.4457331547	-1.3478038799	 2.7969770128	 0.08943
H	-1.8643588673	 0.226031783	 2.0672123708	 0.1215
H	-0.4160978645	-1.7066113542	 0.6903679642	 0.081315
76.5661	221.0431	268.4606	336.7854	371.0896	451.3668	579.0011	671.7328	701.287	730.2124	763.9938	838.864	863.0793	877.957	902.467	926.9346	936.8912	973.9976	1000.8777	1025.3876	1061.6619	1098.2398	1106.1156	1120.0779	1127.8599	1137.0954	1174.2207	1204.0433	1215.5788	1227.8718	1274.3865	1279.2401	1291.1963	1313.4496	1349.1993	1352.4043	1357.3875	1392.0833	1404.0192	1490.3839	1503.607	1516.4894	1519.1071	2971.3732	2977.8447	3043.8205	3064.6761	3076.1928	3079.882	3091.7557	3106.8007	3115.0185	3140.4988	3205.5694
C1C2CC3COCC3N12	C1[C@H]2C[C@H]3COC[C@H]3N12	
InChI=1S/C7H11NO/c1-5-3-9-4-7(5)8-2-6(1)8/h5-7H,1-4H2	InChI=1S/C7H11NO/c1-5-3-9-4-7(5)8-2-6(1)8/h5-7H,1-4H2/t5-,6+,7+,8?/m0/s1
