22
gdb 15836	4.11405	1.02372	0.87475	1.0032	79.43	-0.2501	0.0922	0.3423	1388.7143	0.198789	-350.185539	-350.175849	-350.174905	-350.220278	34.861	
C	 0.1266486781	 1.3268714788	 0.0569450289	-0.226088
O	-0.0162018836	-0.0699210373	-0.0074800634	-0.234262
C	 0.6772427271	-0.6460237574	-1.0947006617	-0.046948
C	 0.437999948	-2.1570743468	-1.1008888365	-0.013872
C	-1.0531712235	-2.4864230158	-1.2509592529	-0.391259
C	 1.2694387245	-2.8137559192	-2.1876617483	 0.040576
C	 2.7287968512	-3.1256837388	-1.9666994581	-0.27467
C	 1.7199018248	-4.2453646399	-2.0497520306	-0.277386
H	 1.1806517965	 1.6265163427	 0.1746715781	 0.101079
H	-0.2681291918	 1.8216803112	-0.8451991275	 0.101473
H	-0.4374096311	 1.6764889388	 0.925465621	 0.124434
H	 0.3295112745	-0.2043090112	-2.0466349932	 0.076909
H	 1.7567422417	-0.4342195489	-1.0156769469	 0.084617
H	 0.7820705926	-2.5371520036	-0.1288368107	 0.075076
H	-1.2224334834	-3.5656287605	-1.1891345767	 0.110141
H	-1.6381074337	-1.992830081	-0.4717186929	 0.128807
H	-1.4297525068	-2.1449264568	-2.223022034	 0.104906
H	 1.0019450258	-2.502734957	-3.1959754466	 0.077
H	 3.4204349594	-2.9914245616	-2.7910956116	 0.108839
H	 3.1525049115	-2.9007359899	-0.9929249252	 0.110438
H	 1.4696735441	-4.7675361925	-1.1316570992	 0.110811
H	 1.7205810441	-4.8765877831	-2.9314876322	 0.109379
71.3152	96.8516	107.9153	139.0337	220.682	223.0734	237.4362	296.8394	344.1738	390.7517	460.7057	518.7094	769.1385	821.3501	831.1136	894.2483	924.0971	937.5568	971.6786	997.6344	1004.6392	1058.8515	1079.725	1129.5509	1141.913	1156.4495	1170.6476	1190.0557	1199.4606	1206.9127	1226.2639	1234.6623	1269.0027	1298.7628	1356.4361	1396.1803	1418.934	1425.1841	1471.3538	1480.821	1484.7628	1492.5036	1502.6905	1503.7254	1508.2302	1527.6964	2936.4132	2965.9604	2976.4039	3007.2336	3014.685	3030.4991	3095.8738	3109.5809	3121.2671	3126.6339	3128.2748	3132.1061	3204.1493	3219.3225
COCC(C)C1CC1	COC[C@@H](C)C1CC1	
InChI=1S/C7H14O/c1-6(5-8-2)7-3-4-7/h6-7H,3-5H2,1-2H3	InChI=1S/C7H14O/c1-6(5-8-2)7-3-4-7/h6-7H,3-5H2,1-2H3/t6-/m1/s1
