21
gdb 108618	2.71266	1.37343	1.07289	1.3998	85.71	-0.2012	0.033	0.2341	1203.6143	0.182878	-387.059291	-387.050425	-387.049481	-387.093038	33.77	
C	-0.0283293948	 1.5133028398	 0.1932600853	-0.522805
C	 0.0073673947	 0.0310572546	 0.0341955803	 0.221872
C	-0.010456896	-0.7814541644	-1.0323784737	 0.242469
C	-0.0719446947	-0.5651432983	-2.5035515936	-0.217114
O	-0.122619902	 0.8177898623	-2.8161037349	-0.410622
C	 0.0526528813	-2.1905438091	-0.4084803842	-0.113665
C	-0.9751938924	-2.0284082967	 0.7609565148	-0.206991
C	 0.0799693752	-0.9647527392	 1.2138672336	-0.098987
C	 1.1555281645	-1.9688074639	 0.6800417986	-0.206992
H	 0.8603282339	 1.8729991897	 0.729593205	 0.115217
H	-0.0777996486	 2.0123316344	-0.773881975	 0.151645
H	-0.8941463844	 1.82380155	 0.7938644122	 0.115261
H	 0.8060760431	-1.0439580572	-2.9756276221	 0.093637
H	-0.9546248315	-1.0934936993	-2.9094452663	 0.093624
H	-0.1606320566	 0.9047510543	-3.7726591341	 0.288211
H	 0.0514741694	-3.0543550419	-1.0755485818	 0.050907
H	-1.9757632262	-1.6698739942	 0.5067370022	 0.088541
H	-1.02810575	-2.9018333011	 1.4197007798	 0.086815
H	 0.1070113408	-0.557989507	 2.2256374424	 0.053619
H	 1.3069111518	-2.8365166173	 1.3310243195	 0.086816
H	 2.1123572924	-1.5554885755	 0.3514721219	 0.08854
49.868	168.7349	175.071	191.551	202.662	243.2008	310.7471	370.6615	512.5271	526.264	606.9788	641.9826	685.0013	821.0371	841.5728	865.2294	877.8085	895.9401	990.5969	1010.4604	1030.8461	1038.6363	1051.2403	1060.9142	1069.9247	1090.0269	1113.06	1121.7058	1178.6019	1205.4288	1225.6638	1238.3253	1240.6525	1247.3692	1266.1723	1274.9203	1327.6872	1409.343	1467.4172	1478.2334	1486.4405	1489.5342	1507.5286	1516.6099	1740.7158	2924.4128	2931.2265	3008.4106	3036.2591	3044.9115	3045.4327	3098.9595	3106.9503	3107.5286	3112.4838	3157.5104	3835.2988
CC1=C(CO)C2CC1C2	CC1=C(CO)[C@@H]2C[C@H]1C2	
InChI=1S/C8H12O/c1-5-6-2-7(3-6)8(5)4-9/h6-7,9H,2-4H2,1H3	InChI=1S/C8H12O/c1-5-6-2-7(3-6)8(5)4-9/h6-7,9H,2-4H2,1H3/t6-,7+
