17
gdb 98213	2.62959	1.07276	0.9056	3.2775	66.33	-0.2652	-0.0554	0.2098	1311.0518	0.131229	-496.122874	-496.112633	-496.111689	-496.159625	35.272	
C	 0.1671893233	 1.3869466476	 0.1894020018	-0.492271
C	 0.0501660211	-0.1012128451	-0.0164187595	 0.380279
O	 0.9948867734	-0.8176107379	-0.2526546793	-0.304545
C	-1.3430929104	-0.7621782342	 0.0855114968	-0.060137
O	-1.2526963848	-2.1177802724	-0.2162694748	-0.414898
C	-1.8946716843	-0.5549220144	 1.511794181	 0.346749
O	-1.4300564891	-1.137772464	 2.4636400126	-0.319061
C	-3.0675914903	 0.3907982942	 1.695709437	-0.143826
O	-3.3841686071	 0.562950537	 3.0410718452	-0.415775
H	 1.1794255044	 1.7145646359	-0.0492056395	 0.160434
H	-0.5571762165	 1.9264297991	-0.429322908	 0.148319
H	-0.050201965	 1.6337807606	 1.2353568315	 0.168367
H	-2.0135076081	-0.2552127083	-0.6270433955	 0.102883
H	-0.2994868086	-2.3056817909	-0.26150456	 0.301715
H	-2.8306271782	 1.3562400505	 1.2184494433	 0.115102
H	-3.9120171425	-0.0299454035	 1.1187794954	 0.12896
H	-2.8402928473	-0.0853485643	 3.5165250921	 0.297704
26.9424	59.9955	95.9815	113.01	176.1663	214.2301	302.7306	308.0442	354.3191	401.2169	414.3246	444.861	499.7514	573.8621	626.4049	742.4223	805.0057	879.2495	969.306	989.897	1028.4796	1066.9758	1147.1926	1148.2417	1202.2387	1230.0317	1249.6657	1309.7456	1358.5818	1389.0652	1427.9549	1446.7155	1461.4427	1473.9164	1484.2431	1798.1755	1819.7483	2948.0886	2983.3328	2986.4635	3039.5239	3102.7026	3156.7128	3656.2936	3689.6933
CC(=O)C(O)C(=O)CO	CC(=O)[C@@H](O)C(=O)CO	
InChI=1S/C5H8O4/c1-3(7)5(9)4(8)2-6/h5-6,9H,2H2,1H3	InChI=1S/C5H8O4/c1-3(7)5(9)4(8)2-6/h5-6,9H,2H2,1H3/t5-/m1/s1
