21
gdb 57568	4.13784	0.64925	0.63911	2.0645	76.65	-0.2624	-0.0346	0.2278	1814.7036	0.177215	-461.365595	-461.354407	-461.353463	-461.403054	39.13	
C	-0.0134478773	 1.5365131181	 0.0270151467	-0.405832
C	 0.056914174	 0.0104855359	 0.014807441	 0.340321
C	 0.7601347206	-0.5260253171	 1.2716640691	-0.41251
O	-1.2921574417	-0.4520283043	-0.0289543107	-0.467723
C	 0.7737157997	-0.4684006383	-1.2558078507	-0.078548
O	 0.6611017613	-1.8830224114	-1.3063944038	-0.269562
C	 1.1771844279	-2.4593977555	-2.4779327341	-0.143169
C	 0.9800585538	-3.963955429	-2.3991460448	 0.139202
O	 1.3330484516	-4.7265217477	-3.2576553034	-0.233049
H	 0.9872347782	 1.9789044094	 0.0389253165	 0.111856
H	-0.5520602906	 1.9017801645	-0.851920491	 0.121565
H	-0.5502158448	 1.8742185204	 0.9176138848	 0.128074
H	 0.1865906131	-0.2480523983	 2.159733345	 0.122265
H	 0.8366867963	-1.615992054	 1.2328206599	 0.119928
H	 1.7720903022	-0.1181243845	 1.3688913675	 0.107543
H	-1.2471976168	-1.3912357386	-0.2447224406	 0.281337
H	 0.2922249768	-0.0240974502	-2.1402574986	 0.096802
H	 1.8335795995	-0.1694193408	-1.2511523165	 0.09276
H	 0.670521587	-2.081468436	-3.3817938947	 0.127742
H	 2.2527679696	-2.2498714342	-2.6006254819	 0.126843
H	 0.4747312698	-4.2998414787	-1.4664977596	 0.094155
43.159	54.5726	93.0421	98.7583	154.6752	191.824	237.9171	253.5251	287.3842	338.9222	378.4298	405.006	434.7969	478.5881	494.4549	605.7225	739.9813	786.3233	908.0151	924.8023	949.2658	988.2304	1021.3667	1030.9349	1076.4031	1113.1375	1158.2885	1169.7827	1207.8428	1240.4856	1255.6199	1297.9646	1334.4412	1374.2342	1392.531	1405.8225	1419.9819	1432.776	1475.6153	1478.8435	1486.0623	1497.9231	1508.3469	1513.4785	1847.1105	2894.5374	2966.1425	2977.8132	2997.6822	3018.2648	3037.7115	3044.6413	3108.7649	3118.7618	3120.9747	3126.421	3790.1531
CC(C)(O)COCC=O	CC(C)(O)COCC=O	
InChI=1S/C6H12O3/c1-6(2,8)5-9-4-3-7/h3,8H,4-5H2,1-2H3	InChI=1S/C6H12O3/c1-6(2,8)5-9-4-3-7/h3,8H,4-5H2,1-2H3
