14
gdb 24527	3.95582	1.75661	1.21644	5.1524	78.9	-0.2349	-0.0587	0.1762	932.2485	0.107108	-395.810987	-395.805232	-395.804288	-395.840972	23.452	
N	-0.0257508819	 1.337772498	 0.0097697027	-0.375651
C	 1.1243680661	 2.0638522651	 0.0028342969	-0.020074
C	 2.3489544335	 1.4345612557	-0.0125561764	-0.124238
C	 2.4459510024	 0.0264121928	-0.0215306252	-0.205408
C	 1.2785399848	-0.706657157	-0.0144692491	 0.278872
N	 1.0040808365	-2.045662877	-0.0195015046	-0.353526
C	-0.3284255452	-2.0660358265	-0.0067471367	 0.023129
N	-1.0050759099	-0.8697209953	 0.0066319899	-0.375649
C	 0.0069790695	-0.0159806042	 0.0017252408	 0.376774
H	-0.9258618302	 1.7997063058	 0.021083816	 0.28137
H	 1.0081187138	 3.1387568262	 0.0100945601	 0.141744
H	 3.2420582244	 2.0461767347	-0.0176712934	 0.115289
H	 3.4152885224	-0.4602452497	-0.0336602832	 0.12565
H	-0.8803882861	-2.9986162288	-0.006759138	 0.111717
232.2168	267.6841	401.9625	442.4119	558.5687	587.845	629.4342	644.2261	735.8723	771.2118	784.8816	816.5635	906.5077	915.7946	939.8578	951.5973	976.8281	1043.4946	1116.5927	1178.2208	1214.143	1236.603	1277.9961	1327.3979	1350.8175	1452.9213	1466.102	1492.3334	1533.9439	1638.3591	1668.5934	3193.9379	3215.4636	3216.5815	3235.8106	3592.187
N1C=CC=C2N=CN=C12	[nH]1cccc2ncnc12	
InChI=1S/C6H5N3/c1-2-5-6(7-3-1)9-4-8-5/h1-4H,(H,7,8,9)	InChI=1S/C6H5N3/c1-2-5-6(7-3-1)9-4-8-5/h1-4H,(H,7,8,9)
