14
gdb 132089	3.00941	1.45671	0.98759	3.2292	71.05	-0.2285	-0.0738	0.1547	1101.6776	0.099949	-477.995206	-477.987373	-477.986429	-478.028151	28.539	
C	 0.0836478686	 1.4925346173	 0.0344335061	-0.489041
C	-0.0287518994	 0.0098590233	-0.0020943959	 0.274684
C	-1.1640423631	-0.7074881034	-0.1384454019	 0.113283
F	-2.3612902822	-0.1205033652	-0.2603271104	-0.073571
C	-1.0745990325	-2.1313515382	-0.1518511555	-0.052587
N	 0.043686988	-2.770029895	-0.0394728443	-0.303655
C	 1.2196854009	-2.0398497201	 0.1015999303	 0.42876
N	 2.3871576565	-2.5102808403	 0.2221847067	-0.522479
O	 1.1446673476	-0.6373824704	 0.116188858	-0.231983
H	 0.7327840468	 1.8401173016	-0.7760268138	 0.162416
H	-0.8998824834	 1.9514868115	-0.0659649614	 0.15445
H	 0.5404501478	 1.8115003356	 0.9771024397	 0.162417
H	-1.9920892951	-2.7097667645	-0.2620450143	 0.139957
H	 2.3243247596	-3.5263737523	 0.1987293266	 0.23735
58.7672	131.4408	169.9672	264.8652	329.4931	347.8565	432.107	478.1645	515.7569	582.3232	593.8292	731.0062	759.2677	796.4391	858.3985	864.672	985.9468	991.1792	1048.1397	1060.3367	1191.8765	1220.3744	1280.7113	1359.2559	1406.7287	1442.0929	1471.9643	1472.7963	1605.5525	1714.4247	1738.0894	3045.2804	3102.296	3135.7288	3159.782	3525.5149
CC1=C(F)C=NC(=N)O1	C[C@@H]1C(=CN=C([NH])O1)F	
InChI=1S/C5H5FN2O/c1-3-4(6)2-8-5(7)9-3/h2,7H,1H3	InChI=1S/C5H6FN2O/c1-3-4(6)2-8-5(7)9-3/h2-3,7H,1H3/t3-/m1/s1
