16
gdb 68730	2.45941	1.66008	1.35158	4.682	75.57	-0.2281	0.0186	0.2466	990.9389	0.125875	-396.875857	-396.868178	-396.867233	-396.907845	30.027	
N	 0.2264715631	 1.4426278489	-0.126104369	-0.588997
C	 0.106465793	 0.0473727578	-0.0687000982	 0.335867
C	-0.2650325721	-0.72206746	 1.1476331337	-0.373219
C	-1.1848917937	-0.9402905749	-0.0498254534	 0.137061
C	-2.5496524299	-0.5554718985	-0.0393134066	 0.20577
N	-3.6587300304	-0.2176403769	-0.0258290744	-0.357979
C	-0.4889019002	-1.7638018431	-1.1009945138	-0.14098
N	-0.2281185941	-0.8929038713	-2.272595571	-0.328933
C	 0.6982473803	-0.8647206789	-1.1110690492	-0.106287
H	-0.2761558575	 1.9215957719	 0.6108304227	 0.247697
H	-0.0746886847	 1.8026292558	-1.0257972708	 0.259476
H	 0.3453302046	-1.5494442682	 1.5019905228	 0.123424
H	-0.7089171587	-0.1357506328	 1.9480822839	 0.136878
H	-0.5030743373	-2.842700926	-1.1962103743	 0.109298
H	 0.204650114	-1.4728622707	-2.993671383	 0.232238
H	 1.7447607838	-1.1221936929	-1.2226897894	 0.108689
110.002	139.1704	216.2883	297.4035	340.8189	393.6129	440.5733	539.0097	551.1125	597.1399	635.2666	641.6613	736.444	802.508	809.1629	854.7843	856.8764	931.1266	976.6027	984.4368	1030.6335	1069.0098	1119.0805	1123.1316	1138.3275	1157.8347	1233.6892	1277.9103	1335.205	1361.6777	1389.6915	1417.9301	1499.0576	1652.6052	2330.1106	3107.5417	3184.2091	3192.198	3195.5135	3456.6428	3517.29	3609.3559
NC12CC1(C#N)C1NC21	N[C@@]12C[C@]1(C#N)[C@H]1N[C@@H]21	
InChI=1S/C6H7N3/c7-2-5-1-6(5,8)4-3(5)9-4/h3-4,9H,1,8H2	InChI=1S/C6H7N3/c7-2-5-1-6(5,8)4-3(5)9-4/h3-4,9H,1,8H2/t3-,4+,5-,6+/m0/s1
