19
gdb 100520	2.16022	1.35934	0.94735	0.8074	73.76	-0.2363	-0.077	0.1593	1299.3545	0.154211	-460.183561	-460.17259	-460.171646	-460.220675	37.208	
C	-0.1024261441	 1.1510141078	-1.3696114307	-0.246163
O	-0.1244570627	-0.0459670871	-0.6120658843	-0.26404
C	 1.0588826816	-0.8375559672	-0.7079765802	 0.035457
C	 1.8051855485	-0.8677790976	 0.6159519127	-0.394888
C	 0.5489938021	-2.2146209088	-1.1355300718	 0.284045
O	 0.6843194353	-3.2268980495	-0.4918063272	-0.29397
C	-0.1897809439	-2.2504219811	-2.4957290826	 0.328521
C	-1.1674864227	-3.3802730822	-2.6889097321	-0.481315
O	 0.0819519715	-1.4295928135	-3.3425303945	-0.290278
H	 0.7402407351	 1.7952685934	-1.0793001742	 0.108748
H	-0.0412104672	 0.9410971972	-2.4444264989	 0.13791
H	-1.0359076649	 1.6773283615	-1.1555747503	 0.128333
H	 1.7011718658	-0.4586936865	-1.5135112429	 0.104822
H	 1.1653003713	-1.2747726077	 1.4022538799	 0.137656
H	 2.6972650649	-1.4959807591	 0.5425281337	 0.126302
H	 2.1101069632	 0.1441328142	 0.8957681697	 0.117846
H	-2.0280184947	-3.2282464525	-2.026154852	 0.15528
H	-1.5031172593	-3.41200721	-3.7256403109	 0.141986
H	-0.70996836	-4.3270089113	-2.3904855034	 0.16375
42.0656	62.7979	83.2884	122.2831	159.4744	188.6183	202.1664	221.9378	282.642	316.7874	356.483	415.8367	446.2103	544.9304	586.5136	681.1403	772.5794	849.165	911.3638	993.9324	1042.7317	1063.0991	1085.2768	1135.8646	1157.5505	1182.6924	1217.9121	1252.4469	1350.3132	1363.6484	1380.5825	1407.7419	1457.0435	1461.4497	1476.6074	1483.0419	1485.2431	1489.2734	1512.0652	1798.9489	1809.9173	2993.329	3030.3451	3043.4986	3050.8182	3063.4491	3112.7314	3119.1851	3124.535	3135.4929	3163.7759
COC(C)C(=O)C(C)=O	CO[C@@H](C)C(=O)C(=O)C	
InChI=1S/C6H10O3/c1-4(7)6(8)5(2)9-3/h5H,1-3H3	InChI=1S/C6H10O3/c1-4(7)6(8)5(2)9-3/h5H,1-3H3/t5-/m0/s1
