18
gdb 126654	6.34622	0.71832	0.65694	3.7392	75.95	-0.2306	0.0097	0.2402	1695.0674	0.148487	-435.276848	-435.267883	-435.266939	-435.312015	31.514	
C	 0.0194693745	 1.5341543094	 0.0280265988	-0.382431
C	 0.1679568732	 0.0112148371	 0.0088956783	-0.191008
C	 0.5124891447	-0.5186567452	-1.3825011341	-0.130935
N	 0.632830629	-1.9711250836	-1.3680892485	-0.408488
C	 1.2787549145	-2.6778834366	-2.3151185819	 0.559973
N	 1.2638470222	-3.9806907321	-2.4805044904	-0.382886
C	 2.1183671155	-4.1170271985	-3.53807945	 0.053071
N	 2.6361187996	-3.0224948346	-4.022213207	-0.143705
O	 2.0572460759	-2.022543208	-3.1843149459	-0.22068
H	 0.9500134527	 2.0267672235	-0.2732351837	 0.125371
H	-0.7691481444	 1.866184772	-0.655670541	 0.1225
H	-0.2365049585	 1.8898258106	 1.0297820267	 0.123137
H	 0.9469467269	-0.3050020367	 0.7119726655	 0.116134
H	-0.76755809	-0.4533173181	 0.3498489665	 0.1002
H	-0.248070921	-0.1924888484	-2.1080816838	 0.113478
H	 1.4685337891	-0.1076720904	-1.718701541	 0.142758
H	-0.0463920483	-2.5020402425	-0.8453622527	 0.264539
H	 2.3677745444	-5.075911068	-3.9713330758	 0.138972
38.4901	66.7596	93.1654	165.6557	238.2567	271.6486	301.5946	341.4677	452.8543	547.4385	630.9159	755.5777	770.6921	772.9042	878.2179	893.8372	916.5612	939.3977	976.4869	1006.6692	1050.2166	1097.2238	1146.4754	1169.3483	1214.2895	1270.6743	1282.1716	1316.5023	1333.1339	1371.8031	1406.196	1415.796	1465.6737	1491.3795	1500.5517	1505.1849	1522.6916	1576.0021	1679.2191	2991.1342	3016.6731	3036.952	3063.0587	3093.6537	3105.6615	3114.3446	3248.2616	3635.3208
CCCNC1=NC=NO1	CCCNc1ncno1	
InChI=1S/C5H9N3O/c1-2-3-6-5-7-4-8-9-5/h4H,2-3H2,1H3,(H,6,7,8)	InChI=1S/C5H9N3O/c1-2-3-6-5-7-4-8-9-5/h4H,2-3H2,1H3,(H,6,7,8)
