17
gdb 61085	3.5804	0.8015	0.66022	2.4581	81.53	-0.2501	-0.0146	0.2355	1620.8491	0.133616	-417.998572	-417.988717	-417.987773	-418.034062	34.262	
C	 1.0324624932	 1.0366801187	 0.1973862286	-0.337458
N	-0.0487110129	 0.1118676693	-0.1247359135	-0.093195
C	-0.759887637	-0.5060577408	 0.885254754	 0.165765
O	-0.566466763	-0.3474309816	 2.0663690339	-0.31956
C	-0.3638997397	-0.1479592424	-1.4483909979	 0.131357
N	 0.2704111553	 0.4035042934	-2.3964621435	-0.281733
C	-0.0955130148	 0.1004506538	-3.7766587392	-0.258198
C	-1.1954558207	-0.8412032024	-4.0002647988	 0.28367
C	-2.1014249257	-1.6169897114	-4.1545412941	-0.46207
H	 1.970354761	 0.6789563975	-0.2340171184	 0.146388
H	 0.8184490986	 2.0219728039	-0.2234629232	 0.146405
H	 1.1045673208	 1.089983585	 1.2823505445	 0.164218
H	-1.5444026685	-1.1738165169	 0.4845019347	 0.093126
H	-1.1890961921	-0.8547077829	-1.5777360332	 0.122275
H	-0.3306548322	 1.0519770406	-4.2718914805	 0.146833
H	 0.8052189946	-0.2723783485	-4.2822582935	 0.146833
H	-2.8990565667	-2.2996097954	-4.3164576999	 0.205344
56.6533	100.0151	112.174	118.7417	191.84	224.404	311.3862	322.6973	331.3753	357.171	399.9021	489.2935	608.1816	620.8248	671.1968	788.6309	890.781	928.9235	953.6378	1021.8885	1024.0242	1033.7826	1100.6156	1160.061	1263.6368	1306.0937	1343.8103	1370.9589	1423.2886	1446.7283	1456.5196	1467.7544	1487.3501	1510.3365	1739.6856	1821.7517	2227.5901	2967.181	3017.991	3037.1934	3060.865	3079.0338	3124.2149	3178.2281	3502.1522
CN(C=O)C=NCC#C	CN(C=O)C=NCC#C	
InChI=1S/C6H8N2O/c1-3-4-7-5-8(2)6-9/h1,5-6H,4H2,2H3	InChI=1S/C6H8N2O/c1-3-4-7-5-8(2)6-9/h1,5-6H,4H2,2H3
