24
gdb 120730	2.60162	0.88049	0.73024	0.8384	87.22	-0.2219	0.0747	0.2966	1653.3635	0.215058	-405.51672	-405.505725	-405.50478	-405.553448	40.057	
C	-2.3243263772	-1.0597651047	 2.7856901313	-0.375823
C	-1.3578043783	-1.0872940463	 1.5975946641	 0.074818
C	-1.3315594623	 0.2643949175	 0.8804436831	-0.393515
N	-0.0179132848	-1.3943789354	 2.1027462786	-0.079172
C	 0.2732635708	-2.7746765728	 2.4630531193	-0.266904
C	 0.9723541318	-2.1389514136	 1.3105267377	 0.002095
C	 0.769107381	-2.6636821834	-0.0987314776	-0.20392
C	 1.3536488815	-1.7539027697	-1.1752266346	-0.079402
O	 1.1917926218	-2.4099461447	-2.4234296211	-0.420722
H	-2.0056032681	-0.3090935639	 3.5157814412	 0.121908
H	-3.3373724238	-0.8140036333	 2.4525261311	 0.108719
H	-2.3590918489	-2.0299590583	 3.2904316491	 0.112185
H	-1.7152271711	-1.8570682195	 0.8914717644	 0.05928
H	-1.0028669289	 1.0489325281	 1.5692163534	 0.122546
H	-0.6450896248	 0.2547805182	 0.0295063938	 0.118394
H	-2.3275156228	 0.5229933136	 0.5073079367	 0.109538
H	 0.7776327852	-2.9357003936	 3.4129462647	 0.108494
H	-0.4719829589	-3.5319946006	 2.2150874952	 0.102794
H	 1.9856789901	-1.7764977025	 1.4886609761	 0.083866
H	 1.2688892308	-3.6367611341	-0.1846639534	 0.113365
H	-0.2880797894	-2.8436158747	-0.3150913769	 0.112192
H	 0.8465571649	-0.7770381901	-1.1709159561	 0.09652
H	 2.4181522728	-1.56616746	-0.957379443	 0.086467
H	 1.5526693285	-1.8426815764	-3.1107611471	 0.286278
38.7783	69.6134	108.1918	163.3416	190.1091	208.919	236.8134	255.4387	267.4976	335.448	347.0317	408.6165	450.6164	487.3521	552.2054	710.2	782.8877	832.8422	881.5437	925.0656	929.4532	959.5589	1002.8572	1038.5223	1051.0381	1060.5837	1089.9522	1113.179	1120.8496	1148.8739	1182.6784	1188.556	1197.234	1231.7667	1239.6345	1305.823	1321.9826	1333.5869	1357.3813	1366.6153	1395.9712	1415.0199	1423.7637	1458.8801	1481.6029	1485.1978	1488.9896	1494.6257	1508.3706	1510.8393	1525.2152	2941.9838	2964.0476	2999.3725	3035.3872	3037.1975	3041.4355	3074.8267	3083.6847	3098.6412	3107.8284	3108.9973	3114.5459	3117.4348	3161.393	3831.5643
CC(C)N1CC1CCO	CC(C)N1C[C@H]1CCO	
InChI=1S/C7H15NO/c1-6(2)8-5-7(8)3-4-9/h6-7,9H,3-5H2,1-2H3	InChI=1S/C7H15NO/c1-6(2)8-5-7(8)3-4-9/h6-7,9H,3-5H2,1-2H3/t7-,8?/m1/s1
