17
gdb 62298	3.39621	1.45801	1.17278	1.6115	77.57	-0.2343	0.0425	0.2768	1050.557	0.133712	-384.557954	-384.550165	-384.549221	-384.58988	30.979	
C	-0.1337379578	 1.5777497492	-0.0200769371	-0.462181
C	-0.0592579913	 0.0485552018	-0.0103900786	 0.106012
C	-1.3440773452	-0.5553613225	-0.3346196586	 0.269408
C	-2.4085748709	-1.0476883855	-0.603205036	-0.449158
C	 1.1763913412	-0.6099477186	-0.697036918	-0.122694
C	 2.1037875932	-0.3269429723	 0.5273243523	 0.05923
O	 2.5762138256	-1.6996241071	 0.6372268978	-0.331815
C	 1.1661154651	-1.821195375	 0.2845497536	 0.09301
C	 0.7105979018	-0.6208494743	 1.1690897109	-0.122704
H	 0.8362270535	 2.0208836492	 0.2248736366	 0.117606
H	-0.4391557635	 1.9438820379	-1.0048868168	 0.130038
H	-0.8674785455	 1.933891263	 0.7092836071	 0.13004
H	-3.3469426158	-1.4842918312	-0.839989964	 0.192821
H	 1.4505048553	-0.6164620836	-1.7518465275	 0.088975
H	 2.8092042373	 0.4823525494	 0.7081258945	 0.102185
H	 0.7299806214	-2.8111434081	 0.1699051786	 0.110249
H	 0.4569075454	-0.6397188022	 2.228848285	 0.088976
128.2152	159.2241	207.7474	240.4524	274.2727	452.6097	464.5804	519.6419	593.1115	616.6893	621.9561	641.8841	775.941	800.3481	802.101	831.2599	882.5328	883.9756	906.9612	943.6949	973.9584	1026.2789	1095.5725	1102.1892	1117.4748	1142.5691	1153.7267	1177.2732	1185.4133	1202.4731	1222.2474	1299.3526	1330.2322	1411.8303	1484.1659	1497.4591	2227.482	3038.5631	3110.6588	3111.6364	3119.9536	3122.9748	3136.3445	3152.2705	3503.558
CC1(C#C)C2C3OC2C13	C[C@@]1(C#C)[C@H]2[C@@H]3O[C@H]2[C@H]13	
InChI=1S/C8H8O/c1-3-8(2)4-6-5(8)7(4)9-6/h1,4-7H,2H3	InChI=1S/C8H8O/c1-3-8(2)4-6-5(8)7(4)9-6/h1,4-7H,2H3/t4-,5+,6-,7+,8-
