22
gdb 107401	3.01426	1.18122	1.09972	1.911	80.85	-0.2311	0.0771	0.3083	1238.9679	0.195261	-404.333044	-404.323996	-404.323052	-404.366802	34.897	
C	 0.609739964	 1.470060162	-0.0010367377	-0.403038
C	-0.0178167294	 0.069681133	-0.0328361107	 0.013314
C	 0.4794497039	-0.8322408023	-1.2051485863	-0.177152
N	 1.3083430676	-1.9300283688	-0.6725453829	-0.138628
C	 2.4741122061	-1.4713072559	 0.1021220015	-0.307028
C	 1.2318796281	-1.8755698645	 0.8069234777	 0.317519
C	 1.1328765593	-3.2230879148	 1.486425094	-0.146774
O	-0.1189152233	-3.8388634361	 1.2291502377	-0.419642
C	 0.2619358796	-0.7823609177	 1.2354493066	-0.301361
H	 1.6963979323	 1.4405948693	 0.1293488177	 0.1189
H	 0.4052683252	 2.0102783211	-0.9317434807	 0.11512
H	 0.1972898476	 2.0623810302	 0.8228476273	 0.116528
H	-1.0986350425	 0.2095628825	-0.1368483999	 0.080188
H	-0.3702139215	-1.2916687701	-1.7209516555	 0.102485
H	 1.0441361829	-0.2668387614	-1.9548733594	 0.103218
H	 3.3262730059	-2.1461896217	 0.0774273875	 0.1117
H	 2.7392688373	-0.4184687694	 0.071225355	 0.111568
H	 1.9665768973	-3.8613920504	 1.158219416	 0.089083
H	 1.2042884112	-3.1133056817	 2.5742958918	 0.10695
H	-0.1860032122	-3.8995007887	 0.2685579268	 0.288808
H	 0.6558788488	-0.1760785739	 2.0580103847	 0.099959
H	-0.6528658583	-1.2655032208	 1.5916427587	 0.118284
73.7309	97.0478	170.7504	198.7072	225.6994	312.7554	362.0332	380.0669	416.859	458.203	518.6974	603.2361	686.151	732.9728	789.6976	807.8255	885.7912	913.1395	927.7221	933.2484	961.6173	982.3178	1030.1588	1061.8759	1071.7784	1095.7754	1117.735	1148.1061	1178.3824	1193.0921	1223.114	1253.9855	1277.1649	1288.6924	1326.042	1353.404	1369.6989	1375.7469	1404.0993	1416.1879	1430.7974	1486.2885	1491.9957	1496.951	1497.3488	1504.135	1517.261	2994.4092	3027.8908	3032.6717	3040.8571	3050.1281	3069.3433	3074.9771	3090.0416	3095.994	3098.3577	3107.7633	3191.3236	3787.6517
CC1CN2CC2(CO)C1	C[C@H]1CN2C[C@@]2(CO)C1	
InChI=1S/C7H13NO/c1-6-2-7(5-9)4-8(7)3-6/h6,9H,2-5H2,1H3	InChI=1S/C7H13NO/c1-6-2-7(5-9)4-8(7)3-6/h6,9H,2-5H2,1H3/t6-,7-,8?/m1/s1
