19
gdb 120567	3.25337	0.89899	0.82855	3.5203	77.68	-0.256	0.021	0.277	1441.5437	0.15771	-419.183532	-419.173689	-419.172745	-419.218879	35.443	
C	 0.046816828	 1.5201536218	-0.2676963251	-0.462846
C	 0.083122664	 0.0199696772	-0.0257031644	 0.144825
C	 1.389020539	-0.7194817583	-0.0165854063	-0.275826
N	 0.6244526439	-0.5701514041	 1.2095636076	-0.117855
C	 1.1443043159	 0.3016912733	 2.2636469893	-0.142508
C	 1.7607799793	-0.5662949221	 3.3608842006	-0.067856
O	 2.8222334494	-1.3695143472	 2.8755796821	-0.419046
C	-1.0916827313	-0.67592633	-0.5224596215	 0.271076
N	-2.0291367481	-1.206995912	-0.9413490214	-0.338989
H	 0.9782182464	 1.9947865717	 0.0443151254	 0.132614
H	-0.0975685571	 1.7208445254	-1.3328587055	 0.147951
H	-0.7823088748	 1.9827184951	 0.2761764787	 0.144159
H	 1.452543992	-1.7226058088	-0.4287712284	 0.13513
H	 2.2818809783	-0.1088956954	-0.1436924049	 0.128464
H	 1.9029833136	 1.0083647236	 1.8948436244	 0.099026
H	 0.3131835312	 0.8793952602	 2.6845372241	 0.111634
H	 2.1859742039	 0.0794907407	 4.1364172827	 0.110831
H	 0.9738934713	-1.1790066999	 3.8228599344	 0.104228
H	 2.4260381252	-2.058835251	 2.3330137581	 0.294988
41.0773	93.4052	128.228	178.7849	189.1336	229.9644	276.1393	313.6968	374.5715	394.5072	446.8413	490.4666	571.7693	603.0562	682.5355	767.3588	862.8932	899.8716	932.1814	935.8937	997.7133	1059.2952	1082.1172	1096.3715	1126.2147	1135.5774	1172.2551	1223.5835	1260.3463	1289.5051	1361.043	1387.7822	1400.7992	1415.1761	1420.507	1477.9088	1487.1016	1494.8937	1499.3831	1509.944	2356.6505	2985.9266	3008.8091	3051.3402	3067.7538	3081.0298	3094.3068	3116.8062	3143.462	3187.5654	3823.2595
CC1(CN1CCO)C#N	C[C@]1(CN1CCO)C#N	
InChI=1S/C6H10N2O/c1-6(4-7)5-8(6)2-3-9/h9H,2-3,5H2,1H3	InChI=1S/C6H10N2O/c1-6(4-7)5-8(6)2-3-9/h9H,2-3,5H2,1H3/t6-,8?/m1/s1
