14
gdb 48046	7.75186	0.46318	0.43947	3.1437	76.02	-0.2789	-0.0743	0.2046	2263.9829	0.097571	-436.646217	-436.636449	-436.635505	-436.683123	31.188	
O	-0.0384857869	-0.0458252705	 0.0019928958	-0.222791
C	 0.0106035597	 1.1617500672	 0.007101771	 0.023581
C	 1.2362221186	 1.9223098593	-0.0001422989	 0.098169
C	 2.2419955482	 2.5888073274	-0.0058782787	 0.05082
C	 3.4812150942	 3.3441358563	-0.0132432622	-0.21394
O	 3.1987853732	 4.7346697158	-0.0032757509	-0.23359
C	 4.3776259607	 5.507057486	-0.0097827072	-0.180597
C	 4.0168472087	 6.9260922108	 0.0012211794	 0.27264
N	 3.7668372601	 8.0528250796	 0.0096286203	-0.283573
H	-0.9056104819	 1.7849994091	 0.017965039	 0.111714
H	 4.0865253602	 3.0633356846	 0.8654169073	 0.141883
H	 4.0702347295	 3.0727219271	-0.9058169372	 0.141884
H	 5.0057403651	 5.2954420821	 0.8709168348	 0.1469
H	 4.9896204907	 5.3051056551	-0.9039966925	 0.1469
44.6442	54.1496	73.7199	95.6195	139.9221	187.6898	221.0769	318.0305	384.4729	395.1218	449.0954	580.5056	627.455	840.5572	961.5991	1002.7541	1020.297	1023.593	1045.2229	1136.2943	1166.5766	1247.5145	1257.9174	1372.7319	1419.6529	1441.6079	1481.549	1502.2794	1771.229	2337.6265	2377.2496	2932.1711	2960.2831	2974.2899	2982.8601	3001.434
O=CC#CCOCC#N	O=CC#CCOCC#N	
InChI=1S/C6H5NO2/c7-3-6-9-5-2-1-4-8/h4H,5-6H2	InChI=1S/C6H5NO2/c7-3-6-9-5-2-1-4-8/h4H,5-6H2
