20
gdb 70427	2.79171	1.52356	1.30331	0.8774	78.84	-0.2233	0.0784	0.3017	1069.9071	0.17089	-403.091429	-403.083025	-403.082081	-403.124434	32.374	
C	 0.0486968669	 1.5220194057	-0.1288211997	-0.521208
C	 0.1443574309	 0.0346603192	-0.0153459938	 0.269712
N	-0.8472800174	-0.801562128	 0.7128569332	-0.379313
C	 0.5944410613	-0.8743407544	 1.0759315599	-0.107971
C	 1.2203916875	-1.8520791012	 0.0793357687	-0.297543
C	 0.7271953217	-0.9212252731	-1.0732712602	 0.445196
C	-0.0572861957	-1.3724789706	-2.3161444179	-0.349457
C	 1.0791040647	-0.6964165714	-3.1059190117	-0.079657
O	 1.7766825057	-0.3546815755	-1.8856660991	-0.32504
H	 0.9717248725	 1.9248576065	-0.5558787128	 0.143662
H	-0.7818455473	 1.8212046941	-0.779935023	 0.122776
H	-0.1107580216	 1.9849436822	 0.8511131725	 0.115757
H	-1.2977420461	-0.1893033063	 1.3943007292	 0.223143
H	 0.9221898785	-0.6415411847	 2.0820741418	 0.091024
H	 2.3127410777	-1.8527498792	 0.1008896157	 0.115317
H	 0.8360183147	-2.8753765739	 0.0987686209	 0.101016
H	-0.1299582174	-2.4539069638	-2.4415070034	 0.113101
H	-1.0506751882	-0.9335397766	-2.4205389253	 0.114937
H	 1.6816361471	-1.3515085129	-3.7455266045	 0.103606
H	 0.7985890844	 0.1969911439	-3.6768683506	 0.100942
76.6658	121.1692	187.09	205.8776	231.4479	321.7083	423.4963	438.21	464.0494	543.2247	648.0323	747.2953	778.2659	853.5206	860.9283	869.6079	903.3269	916.5234	949.8495	975.5687	1015.8822	1018.7423	1032.7836	1087.7495	1109.1959	1139.7752	1149.1197	1168.3058	1172.0852	1208.7389	1211.9938	1239.7486	1272.568	1310.6717	1346.2891	1361.6351	1400.1431	1441.661	1470.0622	1480.0875	1487.221	1501.0444	1530.9044	3019.5585	3023.4983	3059.1777	3060.84	3082.3593	3083.3992	3110.9204	3124.5578	3135.8107	3184.7279	3455.0683
CC12NC1CC21CCO1	C[C@]12N[C@H]1C[C@]12CCO1	
InChI=1S/C7H11NO/c1-6-5(8-6)4-7(6)2-3-9-7/h5,8H,2-4H2,1H3	InChI=1S/C7H11NO/c1-6-5(8-6)4-7(6)2-3-9-7/h5,8H,2-4H2,1H3/t5-,6-,7-/m0/s1
