19
gdb 92483	2.5759	1.71963	1.69377	1.0248	69.84	-0.2501	0.0826	0.3327	944.007	0.161406	-460.167377	-460.159904	-460.15896	-460.199206	29.503	
C	-0.1154170007	 1.5321655484	-0.0128502872	-0.407162
C	 0.0460319507	 0.0201938119	 0.0066207627	 0.115527
O	 0.7633562416	-0.3999000177	-1.1735987188	-0.300242
C	 1.8543996105	-1.2467575203	-0.8251063683	 0.040149
C	 2.8337459161	-0.4473149934	 0.0353227063	-0.069977
O	 2.1406478512	-0.0071754275	 1.2135019892	-0.269765
C	 0.8196765712	-0.5056382006	 1.2272647982	 0.173107
O	 0.8029962555	-1.9177054887	 1.2269850272	-0.273124
C	 1.3335860957	-2.4271052048	-0.0051699082	-0.077266
H	 0.8531054731	 2.0238692399	 0.1070087199	 0.13206
H	-0.555455079	 1.8453333636	-0.9633752914	 0.126813
H	-0.7765521951	 1.8594115553	 0.7966618562	 0.113975
H	-0.9410546675	-0.4641453512	 0.0012092197	 0.084092
H	 2.3161253311	-1.578131772	-1.7583432122	 0.089172
H	 3.6945129224	-1.0614277975	 0.3323717912	 0.10367
H	 3.1976764091	 0.4288023494	-0.5135070146	 0.109433
H	 0.3717021357	-0.1853629928	 2.1693754453	 0.094107
H	 0.5467948623	-2.95673906	-0.5569649077	 0.108227
H	 2.1392287561	-3.1349722521	 0.2265485225	 0.107204
85.1963	220.8343	226.7912	278.0352	318.2293	416.5621	423.0497	470.2124	565.5955	628.0362	711.6133	813.3888	837.5112	873.4728	892.5001	942.4513	954.7448	963.7612	985.3959	1039.5871	1086.8044	1110.5182	1119.3072	1137.2104	1141.4327	1178.0432	1222.5454	1247.4028	1321.804	1328.3017	1334.959	1350.6386	1370.0339	1384.9044	1401.9281	1410.235	1414.6271	1487.8711	1494.7118	1507.2567	1518.1186	3000.9356	3010.9948	3015.9439	3042.4241	3055.6293	3060.9426	3090.6806	3109.3068	3114.6637	3131.8871
CC1OC2COC1OC2	C[C@H]1O[C@H]2CO[C@@H]1OC2	
InChI=1S/C6H10O3/c1-4-6-7-2-5(9-4)3-8-6/h4-6H,2-3H2,1H3	InChI=1S/C6H10O3/c1-4-6-7-2-5(9-4)3-8-6/h4-6H,2-3H2,1H3/t4-,5-,6+/m1/s1
