21
gdb 102467	2.05637	1.01896	0.80906	2.5507	75.58	-0.2641	-0.028	0.2361	1505.2418	0.179313	-461.375175	-461.364112	-461.363168	-461.412577	38.562	
C	 0.0702013809	 0.1508642629	-1.3276964482	-0.400203
C	-0.3901058347	 0.012574016	 0.1257064268	-0.170032
C	 0.6863724195	-0.5689954063	 1.0627955464	-0.07661
C	 0.2550369316	-0.4840050698	 2.5361443311	-0.088946
O	 0.1475686076	 0.8881026286	 2.8745520716	-0.42078
C	 0.9743006402	-2.0250728411	 0.7376312459	 0.357923
O	 0.102230576	-2.8709845572	 0.7128154725	-0.345488
C	 2.4086709012	-2.4362873781	 0.4534756331	-0.140707
O	 2.5177546627	-3.806710188	 0.2229344608	-0.420086
H	 0.3255809337	-0.8198484163	-1.7670742605	 0.122012
H	-0.7186046354	 0.5904373808	-1.9452916308	 0.120325
H	 0.9514822214	 0.7972072966	-1.4074015213	 0.11626
H	-0.6807701097	 0.9885158908	 0.5236815638	 0.119466
H	-1.2711088739	-0.6370357269	 0.1786696295	 0.115328
H	 1.6136737851	 0.0095400946	 0.9591664404	 0.087692
H	-0.7007684864	-1.0140805281	 2.6559568198	 0.111451
H	 0.9977172929	-0.9906504034	 3.1735388682	 0.090794
H	-0.2130940271	 0.9523259797	 3.763643552	 0.291869
H	 2.7589951556	-1.8462095064	-0.4118658489	 0.119664
H	 3.0323234468	-2.1176484235	 1.3066186296	 0.116448
H	 1.6077780421	-4.141259585	 0.2820814984	 0.29362
25.8273	82.6503	103.5696	116.7988	179.9905	186.7272	215.0539	243.4151	258.7523	327.5048	349.0206	389.4713	440.0193	494.2845	565.6082	700.4624	794.4697	837.696	890.7409	959.6305	982.9741	1025.4032	1054.459	1071.8585	1092.5995	1126.5308	1149.2196	1169.9968	1231.6694	1247.1639	1262.6966	1289.3764	1307.7361	1329.8301	1370.2556	1386.7292	1415.6112	1447.9403	1453.4388	1486.0156	1490.504	1501.2766	1504.95	1520.988	1787.0179	2960.3052	2968.1017	2975.4508	3014.7282	3029.9544	3033.2339	3050.6104	3084.7597	3105.7416	3110.0465	3675.0813	3833.1928
CCC(CO)C(=O)CO	CC[C@@H](CO)C(=O)CO	
InChI=1S/C6H12O3/c1-2-5(3-7)6(9)4-8/h5,7-8H,2-4H2,1H3	InChI=1S/C6H12O3/c1-2-5(3-7)6(9)4-8/h5,7-8H,2-4H2,1H3/t5-/m0/s1
