20
gdb 57213	2.50274	1.292	1.10016	3.9141	74.93	-0.2557	0.0173	0.273	1195.3816	0.169464	-440.312623	-440.302797	-440.301852	-440.347152	37.084	
C	-0.0663686012	 1.5141451208	 0.3283031384	-0.473615
C	 0.003928232	 0.0226611466	 0.0630893917	 0.365432
C	 1.2945429524	-0.5736477211	-0.4665568311	-0.328503
C	 0.8704103208	-0.8198355423	 0.961539076	-0.307364
C	-1.3072027667	-0.6083083913	-0.3919629641	-0.027691
O	-2.2846202344	-0.4936786835	 0.6078349975	-0.439156
C	-1.8725795421	 0.0213008698	-1.6835385186	 0.370274
N	-1.0421172952	 0.071364336	-2.7526613931	-0.514691
O	-3.0301883725	 0.4077922827	-1.7142184246	-0.382518
H	 0.8787158642	 1.8863839864	 0.73425801	 0.110535
H	-0.2825517132	 2.0785973222	-0.5862783237	 0.11466
H	-0.8592409193	 1.7245721889	 1.0514275711	 0.141355
H	 1.2477095805	-1.4157941807	-1.1518191044	 0.107682
H	 2.1274058133	 0.0977609829	-0.6473973754	 0.11389
H	 1.4193689567	-0.3169462749	 1.7500611991	 0.115308
H	 0.5233463235	-1.8128853104	 1.2250235671	 0.122636
H	-1.1155515939	-1.6726560867	-0.6175634453	 0.081284
H	-3.062256739	-0.1309856041	 0.1479409173	 0.293186
H	-0.0602653353	-0.1205883002	-2.6527420582	 0.271251
H	-1.3697886703	 0.5217523891	-3.5917825398	 0.266046
63.4221	84.6541	155.7885	210.3045	243.711	281.9946	303.61	313.5867	344.008	406.784	430.9634	500.3555	543.1488	557.8005	642.5022	685.5315	788.3781	796.8092	866.5972	881.2213	929.5731	954.8229	968.9665	1038.7394	1070.6442	1083.0166	1099.2948	1125.5998	1146.2891	1190.5273	1242.3109	1306.742	1315.6109	1360.5266	1387.6258	1416.3236	1458.0296	1469.0266	1489.2724	1500.732	1509.8625	1614.2765	1783.5666	2940.9878	3030.84	3095.0641	3116.1481	3118.6546	3135.1402	3198.9625	3221.1285	3598.5592	3634.884	3732.996
CC1(CC1)C(O)C(N)=O	CC1(CC1)[C@@H](O)C(=O)N	
InChI=1S/C6H11NO2/c1-6(2-3-6)4(8)5(7)9/h4,8H,2-3H2,1H3,(H2,7,9)	InChI=1S/C6H11NO2/c1-6(2-3-6)4(8)5(7)9/h4,8H,2-3H2,1H3,(H2,7,9)/t4-/m0/s1
