16
gdb 128052	4.30932	1.07614	0.8659	11.0498	79.52	-0.2256	-0.0414	0.1842	1281.0586	0.125391	-430.244714	-430.235725	-430.234781	-430.279118	31.276	
C	 0.0965691507	 1.3823794499	 0.0022184101	-0.352243
N	-0.0951864726	-0.0504227726	 0.0202018515	-0.292036
C	-1.270094767	-0.6869792759	 0.0052209811	 0.339198
N	-2.4122221296	 0.0248765729	-0.0145904769	-0.56414
H	-3.2906584829	-0.4599855678	 0.0344805488	 0.290769
H	-2.4204241177	 1.0232960023	 0.0936653775	 0.276111
C	-1.2582400703	-2.0983034354	-0.0040651236	 0.315465
C	-2.2518250394	-3.091012284	-0.0050865745	-0.193892
N	-1.6439684403	-4.2699101699	-0.0103601206	-0.20691
N	-0.2977466329	-4.0269775716	-0.0119316429	-0.135288
N	-0.0512652933	-2.7482561301	-0.0088063108	-0.307576
H	 1.1666422334	 1.5892906711	-0.0203635894	 0.163855
H	-0.3547498358	 1.841603516	-0.8864033416	 0.145886
H	-0.3177082533	 1.862361836	 0.8985947695	 0.142602
H	 0.6930704259	-0.6894869689	 0.0181413933	 0.289539
H	-3.330419905	-3.0100969021	-0.0031321814	 0.08866
75.9992	93.8754	108.4672	155.9013	165.5018	216.0422	293.8291	416.0755	478.3837	483.9927	650.4658	667.5377	710.7641	733.6145	760.7572	841.2047	945.5375	966.593	1017.4528	1061.3062	1129.3728	1152.1316	1179.5788	1190.7715	1253.6527	1277.6052	1358.5341	1428.9073	1452.1492	1489.4422	1499.6807	1515.4824	1577.4097	1656.8104	1676.9631	3009.2974	3059.6177	3147.406	3219.1716	3537.8298	3632.2296	3752.7414
CNC(=[NH2+])C1=CN=N[N-]1	CNC(=[NH2])c1cnnn1	
InChI=1S/C4H6N5/c1-6-4(5)3-2-7-9-8-3/h2H,1H3,(H2-,5,6,7,8,9)/q-1/p+1	InChI=1S/C4H8N5/c1-6-4(5)3-2-7-9-8-3/h2,6H,5H2,1H3,(H,7,8,9)
