16
gdb 69413	3.24439	1.19777	1.14383	5.381	73.98	-0.2561	-0.0104	0.2457	1112.5303	0.124661	-400.750102	-400.742313	-400.741368	-400.782331	30.146	
O	-0.0079415462	 1.4410199842	 0.0394492439	-0.462984
C	 0.0206223919	 0.0508141534	 0.0402802885	 0.382198
C	-0.3951481557	-0.7341045189	-1.1862917093	-0.359681
C	-1.2624313807	-0.7506942372	 0.0542083283	-0.091678
C	-1.0720654614	-1.9168220075	 1.0357506135	-0.204088
C	 0.3723544636	-1.750563548	 1.5066472197	-0.085394
C	 0.9418044747	-0.6714557241	 0.9722461327	-0.14508
C	-2.0246045102	-1.8901572416	 2.1510763171	 0.268605
N	-2.775862294	-1.872707133	 3.0290631186	-0.323304
H	 0.6438624395	 1.7585672032	-0.5944586976	 0.288869
H	-0.791609167	-0.159975088	-2.0178092207	 0.121991
H	 0.1716243838	-1.618145344	-1.4608137579	 0.118325
H	-2.2196035153	-0.248124714	 0.0144100268	 0.123907
H	-1.2035959721	-2.8801217072	 0.5247350736	 0.136579
H	 0.8379635596	-2.4680407684	 2.1700972552	 0.122071
H	 1.9595174994	-0.3429123989	 1.1493045076	 0.109665
94.6032	151.7987	239.16	282.9851	298.4583	372.6372	426.0863	440.9299	531.8562	577.4402	616.1545	744.225	762.0719	791.5558	829.0926	892.1523	941.7834	960.6479	967.8526	999.106	1015.9197	1058.2682	1071.4737	1109.4226	1130.7075	1225.4764	1237.3597	1256.3972	1294.2239	1340.6921	1347.4652	1408.271	1474.8544	1671.7691	2357.7395	3023.2312	3122.432	3197.5779	3207.1055	3217.788	3226.2954	3804.7637
OC12CC1C(C=C2)C#N	O[C@]12C[C@H]1[C@@H](C=C2)C#N	
InChI=1S/C7H7NO/c8-4-5-1-2-7(9)3-6(5)7/h1-2,5-6,9H,3H2	InChI=1S/C7H7NO/c8-4-5-1-2-7(9)3-6(5)7/h1-2,5-6,9H,3H2/t5-,6-,7+/m0/s1
