16
gdb 102911	2.49158	1.04249	0.86386	2.265	71.16	-0.2756	-0.0051	0.2704	1343.4664	0.121396	-437.837182	-437.827398	-437.826454	-437.872895	34.095	
O	-1.0714536582	 2.3388171174	-0.2674289482	-0.410686
C	-0.2589952558	 1.3172067394	 0.2550056345	-0.068706
C	-1.0496345426	 0.0297052983	 0.5311442061	-0.101277
O	-2.0413407759	 0.4157660376	 1.4982822843	-0.247727
C	-2.8606420044	-0.6259159864	 1.9742466738	-0.194915
C	-2.1224085094	-1.5816111017	 2.8224880796	 0.254189
N	-1.5293517157	-2.3264112597	 3.4768697432	-0.301478
C	-1.6593940768	-0.5376429828	-0.672240562	 0.361177
C	-2.1570051987	-1.0240367687	-1.6520092773	-0.473796
H	-1.8052629148	 2.4509688797	 0.3475419787	 0.294017
H	 0.5194760539	 1.1084896442	-0.4838020518	 0.126637
H	 0.2257849517	 1.613249247	 1.1976399589	 0.105134
H	-0.3718334658	-0.7114428175	 0.9815033056	 0.123582
H	-3.6490124281	-0.1578258687	 2.5702733762	 0.163594
H	-3.3319451311	-1.1780136956	 1.1499138898	 0.15891
H	-2.5888317383	-1.4437564725	-2.5275018712	 0.211346
40.0813	80.0033	101.6121	145.9648	178.7514	250.8711	283.4311	331.0478	375.0016	400.6516	416.0977	580.4958	600.0746	635.6336	691.1561	702.3157	853.5489	872.1662	910.1475	995.665	1039.425	1074.775	1102.6804	1126.5145	1235.7404	1285.7189	1325.0734	1350.2389	1391.2673	1401.0424	1428.7316	1470.5806	1491.9191	2234.2086	2359.0162	2991.6769	3003.1576	3027.1653	3099.5141	3100.1118	3499.3077	3804.2884
OCC(OCC#N)C#C	OC[C@@H](OCC#N)C#C	
InChI=1S/C6H7NO2/c1-2-6(5-8)9-4-3-7/h1,6,8H,4-5H2	InChI=1S/C6H7NO2/c1-2-6(5-8)9-4-3-7/h1,6,8H,4-5H2/t6-/m0/s1
