18
gdb 70213	3.57423	1.31433	1.11866	3.6941	71.78	-0.2578	0.0044	0.2622	1109.102	0.148605	-439.108551	-439.100479	-439.099534	-439.141139	30.812	
C	 0.0646274489	 1.5623695708	-0.0564562104	-0.456571
C	 0.0211838984	 0.0555171302	 0.0437061493	 0.28923
C	-1.281987553	-0.5660880665	-0.4265046434	-0.142225
O	-1.2856055114	-1.9986290645	-0.4286286868	-0.225882
C	-0.7763171117	-2.7050458259	 0.616704447	 0.391108
O	-0.9519076576	-3.8900075821	 0.6610577582	-0.316539
C	 0.0245840517	-1.9332927575	 1.6555969065	-0.374704
C	 0.7063681533	-0.6900106896	 1.1240531362	-0.056315
N	 1.2772917484	-0.6546664003	-0.2373306713	-0.371227
H	 1.0250163248	 1.93425374	 0.306932254	 0.138602
H	-0.0512061971	 1.8895773312	-1.0958610697	 0.125947
H	-0.7340486923	 2.0236167157	 0.535294227	 0.11887
H	-2.111598844	-0.201626966	 0.195097844	 0.119227
H	-1.4972861365	-0.2861678572	-1.462303436	 0.131619
H	-0.6623463917	-1.6526641172	 2.4664303984	 0.141977
H	 0.7354385455	-2.6428008372	 2.0876997604	 0.148462
H	 1.2969470858	-0.1450819504	 1.8572658256	 0.098622
H	 1.0996340485	-1.5283614435	-0.7294955089	 0.239799
81.8009	175.6715	184.1519	222.8735	288.9775	352.0226	379.8247	442.7045	503.218	562.4971	608.1925	691.6422	752.6037	767.6566	839.4713	895.7934	933.3829	957.6815	1009.8385	1040.1397	1087.3228	1098.186	1117.0464	1144.2964	1187.9851	1194.4406	1246.9044	1265.0988	1303.4228	1337.3159	1356.3192	1411.8268	1419.1452	1458.841	1470.9109	1489.7475	1496.6563	1513.5221	1854.3527	3012.4883	3024.1622	3032.5933	3081.0651	3093.1406	3095.9435	3128.2214	3131.05	3488.0666
CC12COC(=O)CC1N2	C[C@]12COC(=O)C[C@H]1N2	
InChI=1S/C6H9NO2/c1-6-3-9-5(8)2-4(6)7-6/h4,7H,2-3H2,1H3	InChI=1S/C6H9NO2/c1-6-3-9-5(8)2-4(6)7-6/h4,7H,2-3H2,1H3/t4-,6+/m1/s1
