25
gdb 65915	2.87535	1.09267	1.06618	0.0328	92.27	-0.2692	0.0766	0.3458	1340.4684	0.229721	-352.339839	-352.330474	-352.32953	-352.374003	36.703	
C	-0.0280501555	 1.812993344	-0.019612564	-0.477074
C	 0.0854138682	 0.291586119	-0.0067610302	 0.33128
C	 1.0596249742	-0.3199892265	-1.0718291082	-0.253871
C	 1.7039219392	-1.1942591012	 0.0363883107	-0.207497
C	 1.0153763356	-0.3049704531	 1.1053584794	-0.253882
C	-1.2647612003	-0.4310200789	-0.0292220484	 0.029823
C	-2.3668777727	-0.1335015126	 1.0317184914	-0.246258
C	-3.4292889778	-0.3774456629	-0.0736236539	-0.208574
C	-2.32274139	-0.1484499292	-1.1381255366	-0.246262
H	 0.9673114016	 2.269240334	-0.0023398957	 0.106527
H	-0.5380601117	 2.1780629928	-0.9179378949	 0.113685
H	-0.5744200004	 2.1903531962	 0.8518497531	 0.113683
H	 0.5993964199	-0.8388930476	-1.9175835616	 0.091746
H	 1.7536736159	 0.4281641516	-1.4664129371	 0.090643
H	 1.3262129682	-2.2200073889	 0.035801958	 0.101218
H	 2.7952375335	-1.2380033069	 0.0588600092	 0.093479
H	 1.693026444	 0.4487275218	 1.5174963335	 0.090644
H	 0.5210073806	-0.8123240315	 1.9387620239	 0.091747
H	-1.0709576365	-1.5113094176	-0.0178485205	 0.063643
H	-2.3991682045	-0.7641172773	 1.9237944193	 0.091587
H	-2.3589901876	 0.9132860499	 1.3489321928	 0.09948
H	-3.7818885027	-1.4129606567	-0.0736664561	 0.099499
H	-4.2987714591	 0.2837490505	-0.0958517541	 0.093663
H	-2.3016570148	 0.8938560262	-1.4691746356	 0.099482
H	-2.3189153275	-0.7913475651	-2.0219710745	 0.091589
62.9013	106.7246	141.7084	185.35	221.0818	277.8784	319.3503	326.8552	437.0294	450.2937	578.3364	651.5053	717.4966	782.2062	783.9552	787.8664	869.6098	891.9183	900.8769	934.6767	947.3461	947.432	958.3048	975.9012	993.7228	1018.3851	1053.3316	1077.8762	1092.8513	1152.5478	1183.4042	1199.7742	1213.9517	1215.3831	1242.3074	1253.9929	1256.3356	1263.6614	1275.6503	1277.2114	1282.5673	1297.6707	1326.5083	1383.9116	1415.225	1474.6649	1478.4058	1482.4578	1486.1919	1496.6835	1500.902	1507.2474	1513.0303	3016.258	3024.6747	3044.8324	3048.1196	3053.4498	3053.5315	3060.8218	3062.5952	3086.347	3090.2891	3092.0751	3095.4994	3095.6336	3105.2424	3115.3136	3118.6267
CC1(CCC1)C1CCC1	CC1(CCC1)C1CCC1	
InChI=1S/C9H16/c1-9(6-3-7-9)8-4-2-5-8/h8H,2-7H2,1H3	InChI=1S/C9H16/c1-9(6-3-7-9)8-4-2-5-8/h8H,2-7H2,1H3
