19
gdb 76872	2.42979	1.77098	1.42272	2.203	74.89	-0.2492	0.0049	0.2541	987.5867	0.161283	-423.021684	-423.014056	-423.013112	-423.054072	30.723	
O	-0.1177658276	 1.4921759648	 0.266705038	-0.433728
C	-0.0411592128	 0.1142557804	 0.0245703379	 0.112069
C	 0.4226786593	-0.7286440371	 1.261185971	 0.07017
O	 0.5034997894	 0.0491474057	 2.4421287247	-0.43842
C	-0.8546786748	-1.6310935419	 1.1098416737	-0.089463
C	-1.8725373008	-1.4872933402	 2.208942448	-0.118634
C	-2.8140461572	-0.5900844407	 1.9012031361	-0.060944
C	-2.6417285849	 0.0038651496	 0.5218109067	-0.279027
C	-1.3798846029	-0.6960026541	-0.0348869989	-0.068946
H	 0.1618214922	 1.598345449	 1.1897794264	 0.285408
H	 0.577150176	-0.0658788776	-0.8629891479	 0.070667
H	 1.3815737886	-1.239647417	 1.147427592	 0.085696
H	-0.3817525611	 0.0652776119	 2.8340122394	 0.281787
H	-0.625681292	-2.6685704916	 0.8538850769	 0.070986
H	-1.8188178816	-2.0399840481	 3.1412197486	 0.10413
H	-3.6409800391	-0.3160239641	 2.5490921727	 0.100731
H	-3.5282916924	-0.1752898184	-0.0981526222	 0.106748
H	-2.4979833601	 1.0902530666	 0.5580281549	 0.130822
H	-1.5625130586	-1.1696618073	-1.0003379382	 0.069949
43.031	201.0214	251.9385	285.4185	358.5485	383.4684	509.2545	533.9673	602.3991	607.2032	643.774	741.2521	777.0418	802.2803	832.4244	837.9799	880.1381	926.4895	952.3729	978.5492	1002.954	1028.9057	1072.5472	1108.6161	1124.9317	1135.7293	1161.7194	1184.1748	1223.5905	1235.3896	1253.774	1283.6767	1301.8984	1320.7028	1324.5162	1361.2573	1380.6614	1419.1467	1432.2739	1482.0568	1666.3192	3025.3365	3030.7235	3063.0477	3069.509	3083.1493	3098.5775	3173.8416	3198.9011	3683.8314	3714.5669
OC1C(O)C2C=CCC12	O[C@H]1[C@@H](O)[C@H]2C=CC[C@@H]12	
InChI=1S/C7H10O2/c8-6-4-2-1-3-5(4)7(6)9/h1-2,4-9H,3H2	InChI=1S/C7H10O2/c8-6-4-2-1-3-5(4)7(6)9/h1-2,4-9H,3H2/t4-,5+,6-,7+/m0/s1
