19
gdb 65910	2.46967	1.3383	1.14972	1.2775	76.06	-0.2452	-0.0927	0.1525	1160.5343	0.156923	-423.037742	-423.028343	-423.027399	-423.072269	33.986	
C	-0.4020542238	 1.4427357868	 0.225471684	-0.473077
C	-0.0885400948	-0.0531246298	 0.0710999608	 0.248429
C	 1.0447563786	-0.3353336221	-0.9801589655	-0.258064
C	 2.0427487975	-0.5165254884	 0.1949271776	-0.213878
C	 0.8472954829	-0.6117716159	 1.1812314029	-0.265826
C	-1.3566154974	-0.8394302102	-0.1547848241	 0.22441
O	-1.802687333	-1.6714602586	 0.6035474782	-0.287229
C	-2.1418500433	-0.6116859663	-1.4608191065	 0.09269
O	-1.8060881776	 0.133771555	-2.3431178116	-0.224677
H	 0.5253658422	 2.0001145571	 0.3913603352	 0.124607
H	-0.8830067921	 1.842534748	-0.6700483023	 0.145335
H	-1.0545997477	 1.6199372081	 1.0873396106	 0.124387
H	 0.880983567	-1.2630182752	-1.5354607305	 0.10569
H	 1.2362156136	 0.4648024105	-1.6974465059	 0.114894
H	 2.7057126642	-1.3824515633	 0.142548661	 0.104774
H	 2.6556859026	 0.372872515	 0.3606258223	 0.107242
H	 0.9074740059	-0.0228155891	 2.0995623246	 0.100753
H	 0.5856473145	-1.6384987215	 1.4443977608	 0.119912
H	-3.0608888093	-1.2352178402	-1.5047213817	 0.109627
64.0318	108.3838	113.4466	156.2249	210.8758	252.1244	274.1267	318.2707	356.1896	468.8433	551.6023	607.8895	647.2686	705.5033	797.122	849.5748	876.0007	930.3732	938.2734	947.6099	992.7276	1010.3409	1054.8291	1120.1724	1162.0754	1186.947	1215.1156	1241.9972	1259.9563	1274.6749	1278.975	1320.4792	1366.5483	1404.6999	1476.3611	1484.3144	1495.3593	1506.1087	1506.6012	1787.7646	1821.8133	2913.7234	3035.3384	3061.2635	3065.62	3072.0259	3099.8469	3107.2222	3121.6949	3130.5051	3132.2263
CC1(CCC1)C(=O)C=O	CC1(CCC1)C(=O)C=O	
InChI=1S/C7H10O2/c1-7(3-2-4-7)6(9)5-8/h5H,2-4H2,1H3	InChI=1S/C7H10O2/c1-7(3-2-4-7)6(9)5-8/h5H,2-4H2,1H3
