23
gdb 60461	4.77771	0.58417	0.54505	1.2321	84.03	-0.2492	0.0869	0.3361	2087.2541	0.202773	-425.403483	-425.392618	-425.391674	-425.441481	38.223	
C	 0.0142767895	 1.5457154495	 0.1984244932	-0.392745
C	 0.0188222827	 0.0219243166	 0.0409934103	 0.159777
C	 0.7847918216	-0.4228734669	-1.200345181	-0.386635
O	 0.6383233321	-0.6262311007	 1.1474946507	-0.260383
C	-0.1296005353	-0.6695690016	 2.3297573579	-0.055116
C	 0.6322690962	-1.502706308	 3.3571059525	-0.234569
C	-0.1320759452	-1.6428420977	 4.6490739816	 0.094466
C	 0.5285210293	-1.64254479	 5.9594309947	-0.179711
O	-0.1748053968	-0.488693335	 5.4975896551	-0.236193
H	 1.0398342971	 1.9185277528	 0.2875557734	 0.12138
H	-0.4512040568	 2.0184003137	-0.6724417368	 0.113061
H	-0.5437178097	 1.8620969103	 1.0840917566	 0.118947
H	-1.0244033362	-0.3308330598	-0.0355570966	 0.061402
H	 1.827738641	-0.0958359032	-1.1385236311	 0.122191
H	 0.7731921559	-1.5125854993	-1.2861302302	 0.11823
H	 0.3412158579	 0.0053077771	-2.1040882489	 0.110904
H	-0.3087066764	 0.3354513989	 2.7393984016	 0.107564
H	-1.1175748251	-1.1205276306	 2.1284516773	 0.079422
H	 0.8282520541	-2.4962062886	 2.9357767033	 0.108396
H	 1.6013100659	-1.0315968902	 3.5513180862	 0.111954
H	-1.0915846078	-2.1594851715	 4.5732518253	 0.090203
H	 0.0721085128	-2.1651208286	 6.7991326633	 0.113571
H	 1.6119016932	-1.5399640371	 6.0111086814	 0.113885
21.5329	46.8159	87.4113	113.7374	136.5193	206.7663	224.3954	259.9237	280.7305	379.3192	400.4467	452.1353	478.771	529.3451	774.7002	817.1225	832.0983	877.8241	925.1495	932.6461	946.1886	951.6616	1019.8453	1066.3859	1104.0454	1118.8317	1153.2011	1154.1209	1158.9548	1174.1995	1182.2636	1201.3255	1240.1825	1290.9732	1304.4409	1312.4954	1365.2108	1371.6254	1397.653	1414.3704	1435.6053	1450.8074	1476.9151	1480.6712	1485.4048	1495.6839	1509.0247	1528.9207	1531.1748	2945.3932	2953.2873	3007.814	3037.1552	3039.5361	3042.4736	3077.4605	3082.019	3096.3871	3107.1391	3113.7358	3116.2329	3122.1487	3166.8166
CC(C)OCCC1CO1	CC(C)OCC[C@H]1CO1	
InChI=1S/C7H14O2/c1-6(2)8-4-3-7-5-9-7/h6-7H,3-5H2,1-2H3	InChI=1S/C7H14O2/c1-6(2)8-4-3-7-5-9-7/h6-7H,3-5H2,1-2H3/t7-/m0/s1
