15
gdb 126077	3.97342	1.10862	1.01884	3.904	67.69	-0.2797	-0.0537	0.226	1167.5819	0.11202	-453.881787	-453.87412	-453.873176	-453.914848	27.736	
C	-0.0941807735	 1.5286425732	-0.179660728	-0.435851
C	-0.0295798917	 0.0421987416	 0.036853342	 0.080986
O	 1.2369689836	-0.5980471305	-0.1183471592	-0.236163
C	 0.6580333917	-0.6067886511	 1.181454326	-0.069361
C	 1.3464653059	 0.1329352018	 2.2603036984	 0.346547
N	 2.2297577226	 1.0812434581	 2.0715696908	-0.154022
O	 2.6049978274	 1.4961111534	 3.31778641	-0.14084
N	 1.9558441511	 0.800179849	 4.2953107774	-0.05854
C	 1.1837915668	-0.0401591396	 3.6668241004	-0.113201
H	 0.7324495606	 2.0394434972	 0.3170108932	 0.162279
H	-0.0436749783	 1.7480809896	-1.2509897596	 0.137214
H	-1.0424275013	 1.9242277011	 0.1994386334	 0.124552
H	-0.857253032	-0.528461907	-0.3901736527	 0.100576
H	 0.2820690276	-1.5786546256	 1.5046248278	 0.103832
H	 0.5507543896	-0.7266624916	 4.2075542301	 0.151993
48.9448	131.9698	171.4118	204.0892	293.3865	387.3775	424.564	512.7172	649.0115	706.9438	751.0605	801.2324	861.5307	895.0621	898.899	934.7377	988.7416	1013.0255	1034.0704	1082.4637	1089.474	1159.2536	1170.907	1194.0542	1288.6959	1339.8919	1404.2771	1432.7929	1460.9233	1480.4021	1493.2006	1507.1009	1610.4086	3042.5715	3084.9452	3101.664	3105.1817	3146.1421	3268.104
CC1OC1C1=NON=C1	C[C@H]1O[C@H]1c1nonc1	
InChI=1S/C5H6N2O2/c1-3-5(8-3)4-2-6-9-7-4/h2-3,5H,1H3	InChI=1S/C5H6N2O2/c1-3-5(8-3)4-2-6-9-7-4/h2-3,5H,1H3/t3-,5-/m1/s1
