17
gdb 36038	2.49865	1.29902	1.00628	2.4455	73.16	-0.2591	0.042	0.301	1202.0144	0.133117	-421.7413	-421.732402	-421.731458	-421.775636	32.534	
C	-0.3217086183	-0.6482459142	 1.4877660134	-0.456013
C	-0.088122821	 0.0324800632	 0.5252700877	 0.306018
C	 0.2187392955	 0.870628646	-0.6279412379	-0.429844
C	 1.3166556299	 1.8925453262	-0.3398486556	 0.378149
C	 2.7244917592	 1.5397427782	-0.5621391999	-0.215978
O	 2.0071901904	 2.3520873406	-1.5000691206	-0.270321
C	 0.9600193557	 2.9423490393	 0.6728206285	-0.000659
C	 1.3477151458	 4.3438776472	 0.4924330875	-0.171661
O	 0.0062661239	 3.9154815973	 0.2371736472	-0.239034
H	-0.5392476919	-1.2553985811	 2.3313766742	 0.200661
H	 0.5354294214	 0.2543833204	-1.4764208471	 0.14073
H	-0.6785087457	 1.415602099	-0.9465995059	 0.157154
H	 3.5040507594	 2.05501585	-0.0038116377	 0.118298
H	 2.9784526927	 0.5390488934	-0.9078425524	 0.122249
H	 0.782851925	 2.5606233404	 1.6783148743	 0.111546
H	 1.4759483801	 4.9800860795	 1.3668609385	 0.114434
H	 1.9194540178	 4.6181499546	-0.3903504242	 0.13427
51.8509	77.5415	123.3237	201.6511	246.0229	319.5161	354.4187	366.2817	435.1876	491.8636	617.65	627.085	652.7945	710.5312	847.8647	869.2403	883.799	918.8245	940.7806	971.4036	1019.9232	1037.4513	1099.661	1126.986	1159.5462	1167.092	1168.6624	1188.6818	1254.8992	1288.0832	1323.7645	1401.6536	1445.8424	1467.9511	1517.2971	1530.066	2239.9138	3034.8226	3076.4113	3089.0219	3093.6256	3116.7448	3178.5198	3192.1217	3505.1085
C#CCC1(CO1)C1CO1	C#CC[C@]1(CO1)[C@H]1CO1	
InChI=1S/C7H8O2/c1-2-3-7(5-9-7)6-4-8-6/h1,6H,3-5H2	InChI=1S/C7H8O2/c1-2-3-7(5-9-7)6-4-8-6/h1,6H,3-5H2/t6-,7+/m1/s1
