21
gdb 94894	2.6674	1.46977	1.01096	1.3155	85.12	-0.2197	0.0314	0.2511	1215.3286	0.184885	-387.1194	-387.111009	-387.110065	-387.152461	32.416	
O	-0.1235728204	 1.4841520839	 0.0278965429	-0.438773
C	-0.0215446558	 0.0616418366	 0.0062553424	-0.01695
C	 0.5940052225	-0.5439907536	 1.3067750322	-0.237965
C	-0.2577504099	-1.7986105112	 1.6604991986	-0.349015
C	-1.5062556263	-1.5636233568	 0.857286506	 0.264695
C	-1.3817714886	-0.5660482088	-0.0182720561	 0.300219
C	-2.5921595369	-0.3890128937	-0.8890134885	-0.346126
C	-3.6395127409	-1.3003081737	-0.1752641391	-0.199798
C	-2.8317649469	-2.2642713663	 0.749336825	-0.340193
H	 0.7641178899	 1.844589896	-0.0619092114	 0.279738
H	 0.558993496	-0.2424422212	-0.8826553194	 0.062183
H	 1.6605493895	-0.7672923099	 1.2098527147	 0.087662
H	 0.4809272837	 0.2146793831	 2.0874137047	 0.112334
H	 0.2443393526	-2.7268961567	 1.3531047869	 0.103304
H	-0.4398783081	-1.8948750276	 2.7377291014	 0.101909
H	-2.9245833766	 0.6515428306	-0.9621803365	 0.114122
H	-2.3929846152	-0.7221527258	-1.918100212	 0.097946
H	-4.2953594242	-0.6784103404	 0.4415174198	 0.107377
H	-4.2796872888	-1.8359224807	-0.8810005058	 0.095178
H	-2.7152639937	-3.2618804834	 0.3011706408	 0.101559
H	-3.3236866919	-2.4221426804	 1.7165272337	 0.100594
94.7063	116.816	167.0906	203.2018	257.5566	285.4856	430.6133	440.1424	530.5112	562.6192	627.9748	679.6825	731.1379	829.8072	865.1104	900.9168	907.7066	922.5899	960.1226	988.1341	993.119	1018.2629	1072.9341	1093.506	1138.3405	1169.6237	1178.4947	1202.3349	1215.6285	1236.2151	1240.8725	1250.6975	1287.5302	1305.4135	1325.0165	1329.4788	1347.5512	1381.6557	1442.5752	1482.4057	1483.1575	1490.1738	1499.9739	1506.758	1735.4367	2934.851	3000.262	3000.8211	3007.3887	3040.9895	3042.7416	3053.7484	3056.4736	3068.5947	3100.3073	3101.6136	3818.1153
OC1CCC2=C1CCC2	O[C@H]1CCC2=C1CCC2	
InChI=1S/C8H12O/c9-8-5-4-6-2-1-3-7(6)8/h8-9H,1-5H2	InChI=1S/C8H12O/c9-8-5-4-6-2-1-3-7(6)8/h8-9H,1-5H2/t8-/m0/s1
