17
gdb 105603	2.19699	1.50826	1.2475	2.7394	70.67	-0.2327	-0.0537	0.179	1088.8443	0.132415	-458.958297	-458.948984	-458.948039	-458.992686	32.909	
C	 0.0343657216	 1.5580574539	 0.0389536458	-0.275216
O	 0.1583759995	 0.1352757631	 0.1471887612	-0.294027
C	 0.5830342693	-0.5388166468	-0.9890132574	 0.225236
C	 0.3456591815	-2.0877690225	-0.9211044947	-0.291486
C	-0.3035864263	-2.0888183726	-2.3344486105	-0.337542
C	-0.3944058293	-0.5664430631	-2.2293505034	 0.336558
O	-1.0684957502	 0.273448059	-2.7459314894	-0.282362
C	 2.0138721728	-0.2485285282	-1.4166094456	 0.128079
O	 2.7383973453	 0.5532040154	-0.889244371	-0.256415
H	 1.0111084642	 2.0328807337	-0.0805231218	 0.143785
H	-0.6208138497	 1.8329545113	-0.793452487	 0.140842
H	-0.4182326039	 1.8852322406	 0.9771631775	 0.129287
H	 1.2343833612	-2.7057472122	-0.7876599472	 0.123269
H	-0.3696780206	-2.295045061	-0.1248472567	 0.143765
H	 0.3883007229	-2.3910179974	-3.1285199944	 0.141272
H	-1.246750569	-2.6211998711	-2.4743476234	 0.143467
H	 2.3614000207	-0.8639386221	-2.2796979819	 0.081489
78.6022	109.3327	111.3176	161.3586	202.3708	247.7138	255.5518	317.7814	357.5204	451.6109	509.5877	600.0251	696.5498	748.8486	786.4584	811.2598	908.9102	936.559	1020.7051	1043.0194	1067.3878	1072.229	1136.7507	1180.0101	1200.5404	1218.5388	1228.122	1253.9934	1290.099	1429.5008	1439.9352	1477.3791	1482.8759	1491.0993	1518.8659	1822.8387	1887.8015	2850.1703	3043.1335	3054.0318	3090.2644	3118.6247	3122.9731	3137.5909	3153.5599
COC1(CCC1=O)C=O	CO[C@]1(CCC1=O)C=O	
InChI=1S/C6H8O3/c1-9-6(4-7)3-2-5(6)8/h4H,2-3H2,1H3	InChI=1S/C6H8O3/c1-9-6(4-7)3-2-5(6)8/h4H,2-3H2,1H3/t6-/m1/s1
