17
gdb 64082	3.4448	1.23582	1.11902	5.5207	71.54	-0.2645	-0.0542	0.2103	1123.7094	0.135123	-459.003666	-458.995142	-458.994198	-459.036621	32.161	
C	-0.1478379684	 1.5552760243	-0.0076589228	-0.432313
C	 0.0060498583	 0.0302340515	 0.017765802	 0.278056
O	-1.2803968063	-0.5978164469	 0.005430644	-0.454985
C	 0.7217241092	-0.4438348552	-1.2461751724	-0.074928
O	 1.1367819583	-1.8121133469	-1.2115763003	-0.237448
C	 1.7216382209	-2.303233509	-0.0919514331	 0.414902
O	 2.2577753898	-3.3807254066	-0.117675583	-0.338293
C	 1.6105312005	-1.4860561716	 1.1407720267	-0.202412
C	 0.8031628235	-0.4288298758	 1.2187361448	-0.095838
H	 0.822818366	 2.0609493689	-0.0047363838	 0.126716
H	-0.7062591632	 1.863180803	-0.8961523359	 0.134117
H	-0.7042963111	 1.8901057392	 0.8744842089	 0.115507
H	-1.694777437	-0.4612105932	 0.8644788748	 0.282231
H	 0.0447845769	-0.3661427042	-2.0995167223	 0.134707
H	 1.5983118816	 0.1896540163	-1.4277863807	 0.11247
H	 2.1735079321	-1.8646268508	 1.9859316111	 0.128951
H	 0.6751188288	 0.1131341771	 2.1540247021	 0.108561
74.2818	196.3468	213.2626	222.2372	239.6508	302.4034	329.5938	394.0389	438.5416	471.7138	518.9377	585.3983	718.2531	725.0443	794.538	850.99	869.0337	927.0462	940.4948	1005.2412	1017.108	1091.3758	1121.4302	1152.9842	1166.7742	1203.444	1242.7957	1306.4102	1383.9107	1396.9353	1406.9302	1431.2457	1488.1537	1492.251	1495.6059	1697.9522	1826.0127	3032.6202	3039.0143	3103.5243	3114.8978	3122.17	3145.1614	3209.071	3807.3118
CC1(O)COC(=O)C=C1	C[C@@]1(O)COC(=O)C=C1	
InChI=1S/C6H8O3/c1-6(8)3-2-5(7)9-4-6/h2-3,8H,4H2,1H3	InChI=1S/C6H8O3/c1-6(8)3-2-5(7)9-4-6/h2-3,8H,4H2,1H3/t6-/m0/s1
