23
gdb 102305	2.34209	0.94461	0.72594	4.7135	87.28	-0.2342	0.0357	0.2699	1648.7985	0.203628	-384.484801	-384.473501	-384.472557	-384.522205	40.448	
C	 0.4843278056	 1.0538170309	 0.3043261131	-0.395509
C	-0.4557884813	 0.3994438536	-0.7103795778	-0.196664
C	-1.599249895	-0.4245868852	-0.0730248638	-0.112752
N	-2.5211461041	-1.0214206402	-1.0338685582	-0.290452
C	-3.8548353209	-0.4266835418	-1.1625723546	 0.061784
C	-3.8698616385	 1.0303171229	-1.6597787802	-0.382927
C	-4.6964118442	-1.3274200705	-2.0694520546	-0.394177
C	-1.0318521334	-1.4861986741	 0.792021521	 0.303038
N	-0.5712809796	-2.3083895415	 1.4612005296	-0.336735
H	 1.2671792241	 1.6214344509	-0.2065245038	 0.121733
H	-0.0574186681	 1.7467328503	 0.9575031866	 0.119085
H	 0.9688441129	 0.3049659246	 0.9373077731	 0.149496
H	-0.9222354024	 1.1607668927	-1.3442152717	 0.110094
H	 0.1133181129	-0.2633921818	-1.3741529658	 0.114551
H	-2.1702395229	 0.2380049554	 0.5902726025	 0.123384
H	-2.0766806365	-1.1305403116	-1.9384838092	 0.216967
H	-4.297679252	-0.4498213907	-0.1575977365	 0.09107
H	-3.4440661787	 1.0997179581	-2.6678602008	 0.11031
H	-4.8934181016	 1.4179221486	-1.700293424	 0.11621
H	-3.2951262279	 1.6909827169	-1.0028063726	 0.112605
H	-4.7075384972	-2.3519435131	-1.6902547228	 0.131511
H	-5.7253308264	-0.9620343672	-2.1357870033	 0.116933
H	-4.286637005	-1.3448423772	-3.0870645062	 0.110444
27.7939	63.0443	96.1693	144.1026	174.3128	230.5321	239.1372	256.9684	268.8885	291.6733	323.1392	392.2128	428.3453	476.7426	559.1141	582.0023	657.2752	767.4163	834.2899	884.286	924.3546	937.3898	944.4627	957.6366	1043.7634	1093.0554	1103.2573	1138.1788	1147.6914	1193.3898	1208.2526	1267.5271	1306.712	1340.5421	1352.9217	1363.6409	1385.9641	1397.6676	1415.7826	1417.0268	1479.9209	1481.7706	1485.6506	1490.066	1499.5849	1505.5927	1508.4666	1510.5769	2352.0953	3012.7636	3023.1106	3025.9737	3031.7125	3036.1238	3039.8426	3079.6904	3092.0759	3098.4135	3101.3619	3107.3519	3121.539	3128.4652	3533.6103
CCC(NC(C)C)C#N	CC[C@@H](NC(C)C)C#N	
InChI=1S/C7H14N2/c1-4-7(5-8)9-6(2)3/h6-7,9H,4H2,1-3H3	InChI=1S/C7H14N2/c1-4-7(5-8)9-6(2)3/h6-7,9H,4H2,1-3H3/t7-/m1/s1
