16
gdb 13962	5.11971	1.22658	1.11512	2.1121	65.36	-0.2373	-0.0286	0.2087	1049.8965	0.129041	-383.698113	-383.690542	-383.689598	-383.731013	27.305	
O	-0.6619598666	 0.5931084437	 0.5734201723	-0.23452
C	 0.1530207512	 0.9043982916	-0.2550000907	 0.165105
C	 1.2610422865	 1.9211899206	-0.0403560475	-0.394085
C	 1.2645878535	 2.9757698075	-1.1142292374	 0.261879
C	 1.9035360959	 2.8103548606	-2.4858093127	-0.342299
C	 2.3200113544	 3.9447191027	-1.6034889353	 0.048678
O	 1.3982190592	 5.029472514	-1.7029814504	-0.282452
C	 0.337958516	 4.1924695374	-1.1670743001	-0.124269
H	 0.1414306093	 0.4543421394	-1.2744067222	 0.079319
H	 1.1473287895	 2.3528019119	 0.9592550034	 0.125434
H	 2.2143479856	 1.3743789159	-0.0669369663	 0.124031
H	 2.6110592415	 1.9892423579	-2.5575360874	 0.116206
H	 1.3443465567	 3.0189745332	-3.3939189983	 0.121178
H	 3.3311685216	 4.1602627615	-1.2770687492	 0.110239
H	-0.5357440742	 4.1467124836	-1.8277753049	 0.1107
H	 0.03467195	 4.5474434586	-0.1751154833	 0.114856
48.8689	73.9962	167.5368	297.0249	308.2171	376.9798	452.4881	477.511	663.1662	759.1604	807.524	845.9162	913.3906	929.4688	968.8679	994.3316	1002.0922	1029.2392	1052.7311	1070.1255	1086.1095	1119.0765	1157.8331	1181.6749	1260.2027	1276.7415	1316.1318	1321.9421	1405.5434	1424.658	1453.4775	1481.5201	1516.61	1835.8694	2869.4659	3015.3159	3022.8804	3073.2505	3087.4201	3113.4623	3179.2059	3205.3447
O=CCC12CC1OC2	O=CC[C@]12C[C@H]1OC2	
InChI=1S/C6H8O2/c7-2-1-6-3-5(6)8-4-6/h2,5H,1,3-4H2	InChI=1S/C6H8O2/c7-2-1-6-3-5(6)8-4-6/h2,5H,1,3-4H2/t5-,6-/m1/s1
