16
gdb 79111	2.504	1.96884	1.52709	2.1498	67.16	-0.2435	-0.0243	0.2192	897.4021	0.125561	-437.86377	-437.856738	-437.855793	-437.895153	27.806	
O	 0.0715369606	 1.4541041371	 0.0844447251	-0.426178
C	 0.0045560401	 0.0554721559	-0.0356350074	 0.113255
C	-1.3877572134	-0.5325683102	-0.0501326441	-0.060941
C	-2.0594359112	-0.4190128069	-1.3711568311	-0.027328
C	-1.6394126398	 0.6108931049	-2.3962359541	-0.364703
C	-0.1285585207	 0.3774247763	-2.510679352	 0.4486
O	 0.6363809506	 0.9048547376	-3.2727121417	-0.319476
C	 0.2126991067	-0.6354913441	-1.4314546773	-0.193187
N	-1.0263103796	-1.4794943483	-1.1880486114	-0.150466
H	 0.996335411	 1.7205457898	 0.1251838963	 0.294069
H	 0.6236567688	-0.4495370878	 0.7152088702	 0.097662
H	-1.9247987565	-0.8775090872	 0.827545519	 0.099384
H	-3.0689231553	-0.8147609607	-1.4113129055	 0.105976
H	-2.1202445945	 0.4354701323	-3.364130035	 0.136337
H	-1.8289711289	 1.6471964146	-2.104234157	 0.15102
H	 1.1291525321	-1.1965833334	-1.5985064638	 0.095973
108.328	165.0246	289.8719	303.314	396.7587	432.3939	552.5859	562.6376	630.2706	693.6447	723.6663	773.939	785.7602	805.204	917.0834	961.9229	971.1933	984.3124	1006.5775	1050.9716	1069.3966	1126.6813	1162.3902	1167.2927	1185.1852	1202.7696	1225.9346	1243.4555	1281.8206	1318.3385	1355.8737	1415.8248	1437.7251	1450.2179	1855.6987	3035.7318	3059.797	3108.6108	3149.0721	3162.3205	3174.2856	3811.0731
OC1C2C3CC(=O)C1N23	O[C@H]1[C@H]2[C@H]3CC(=O)[C@@H]1N23	
InChI=1S/C6H7NO2/c8-3-1-2-4-6(9)5(3)7(2)4/h2,4-6,9H,1H2	InChI=1S/C6H7NO2/c8-3-1-2-4-6(9)5(3)7(2)4/h2,4-6,9H,1H2/t2-,4-,5+,6+,7?/m1/s1
