19
gdb 49112	3.02182	1.29091	0.96396	4.0987	87.05	-0.2398	-0.0505	0.1893	1224.6066	0.160363	-385.895954	-385.888027	-385.887083	-385.928616	30.407	
O	-0.1201159277	 0.0811513506	 0.169835579	-0.280678
C	 0.007453348	 1.2844306286	 0.0675934918	 0.063483
C	 1.2830062717	 1.9702267988	-0.0866850666	 0.057219
C	 1.4740726343	 3.2950600629	-0.1845148466	 0.246966
C	 0.939683512	 4.6429814029	 0.2319120481	-0.321143
C	 2.3744647953	 4.8730146934	 0.8434128214	-0.240386
C	 2.9112694398	 3.7032297511	-0.0650146971	-0.035435
C	 3.6141428606	 2.4142236166	 0.4146814462	-0.249029
C	 2.6453211012	 1.2777227789	-0.0482461889	-0.307078
H	-0.8799318185	 1.9566753178	 0.0871178602	 0.058601
H	 0.7631190081	 5.3138952061	-0.6150607273	 0.124619
H	 0.0718225814	 4.6713991135	 0.8936220255	 0.122293
H	 2.815002414	 5.8613630095	 0.6978758768	 0.109447
H	 2.4043565856	 4.6078141279	 1.9026887506	 0.116309
H	 3.3403294821	 4.1073657141	-0.9895715672	 0.087631
H	 4.6276471026	 2.294131434	 0.0233283493	 0.101337
H	 3.6810860331	 2.4115982774	 1.5084776007	 0.106571
H	 2.6343913908	 0.4216995433	 0.6315672647	 0.126316
H	 2.9261490659	 0.8871252426	-1.0347279608	 0.112958
94.6416	141.3455	172.9564	208.9335	277.3244	355.625	420.0557	498.8641	597.2806	619.196	704.0466	753.0749	795.5155	814.314	883.5052	908.7544	932.6684	954.1728	989.7746	1020.4525	1057.2928	1066.2125	1085.8354	1128.1811	1170.3664	1191.7463	1197.028	1227.096	1247.2833	1254.9874	1272.5552	1302.1068	1326.4291	1344.4001	1419.098	1470.6611	1480.5572	1485.1969	1498.2066	1709.0567	1770.5543	2871.4303	3028.5855	3034.3886	3044.2549	3054.7906	3067.6139	3093.4723	3102.9342	3113.5344	3132.9797
O=CC1=C2CCC2CC1	O=C[C]1[C]2CC[C@H]2CC1	
InChI=1S/C8H10O/c9-5-7-2-1-6-3-4-8(6)7/h5-6H,1-4H2	InChI=1S/C8H10O/c9-5-7-2-1-6-3-4-8(6)7/h5-6H,1-4H2/t6-/m1/s1
