16
gdb 30559	4.80622	0.98616	0.82244	4.7013	76.87	-0.2075	-0.0049	0.2026	1352.7772	0.125576	-434.09514	-434.08707	-434.086126	-434.128364	29.333	
C	 0.1865804128	 1.3047039078	-0.5464892476	-0.321877
N	 0.5536697341	 0.0048739907	-1.0777859236	-0.248161
C	 0.3401543565	-1.0037827853	-0.3478546548	 0.13662
O	 0.615810835	-2.2803811471	-0.6725146406	-0.243204
C	 1.1735861081	-2.6482194459	-1.8650474892	 0.384814
C	 1.4895286792	-3.9117611059	-2.2870881841	-0.189047
N	 2.0323428153	-3.845116947	-3.5496060067	-0.255159
C	 2.0396178277	-2.5714876964	-3.8706389956	 0.011127
N	 1.5248715278	-1.7904434203	-2.875818086	-0.301375
H	-0.2492598089	 1.2591636449	 0.4624466427	 0.110906
H	 1.070815653	 1.9501804501	-0.5123158415	 0.13705
H	-0.5376241443	 1.7829467276	-1.2146734701	 0.137041
H	-0.0987971042	-0.9817790543	 0.6537583344	 0.11632
H	 1.3567010315	-4.842595226	-1.7598742422	 0.1139
H	 2.3995374416	-2.1524267569	-4.797829377	 0.129676
H	 1.3902079948	-0.7908432661	-2.8038835183	 0.28137
56.7847	147.0616	159.7778	211.2745	271.6215	323.0752	373.6666	389.735	621.972	640.2981	669.7862	720.2666	743.3069	792.5434	824.874	927.7747	977.1994	1013.965	1062.7829	1094.1957	1137.4025	1140.8875	1151.1839	1229.7596	1262.7682	1304.4424	1374.4139	1406.3299	1446.7974	1452.0332	1482.2062	1505.1235	1513.3827	1609.8455	1732.9837	2992.9501	3072.1381	3088.594	3094.4871	3254.8948	3264.3992	3582.584
CN=COC1=CN=CN1	CN=COc1cnc[nH]1	
InChI=1S/C5H7N3O/c1-6-4-9-5-2-7-3-8-5/h2-4H,1H3,(H,7,8)	InChI=1S/C5H7N3O/c1-6-4-9-5-2-7-3-8-5/h2-4H,1H3,(H,7,8)
