16
gdb 97029	2.28852	1.61523	1.06814	3.9373	73.83	-0.2322	-0.0312	0.201	1123.6079	0.123302	-434.085662	-434.076688	-434.075744	-434.120527	30.78	
C	 0.1913187841	 1.3984522047	 0.0846975512	-0.343547
N	 0.0963345645	-0.0509990829	 0.041198436	-0.306923
C	 0.5849557413	-0.6538355164	-0.9545532084	 0.44125
N	 1.2158781869	-0.146502782	-2.1026748746	-0.359336
C	 1.5028338612	-1.2004597919	-2.949663508	 0.069769
N	 1.1708187319	-2.3658425252	-2.5399638471	-0.261818
C	 0.6024574935	-2.1569785363	-1.1917868411	-0.187316
C	 1.4875810033	-2.9464899319	-0.2159890441	 0.168789
O	 2.1065477914	-2.4730101614	 0.694668183	-0.223897
H	 1.2166818932	 1.7251582911	 0.3096114109	 0.125508
H	-0.1171944625	 1.8800990412	-0.8575765687	 0.098701
H	-0.45522485	 1.7812451179	 0.8777916169	 0.133722
H	 1.4328875829	 0.819491432	-2.2742850653	 0.268765
H	 1.9773542452	-1.0078832913	-3.9066515432	 0.141786
H	-0.4066563253	-2.584487381	-1.1380046439	 0.13359
H	 1.5276402885	-4.0278760665	-0.4651347336	 0.100958
56.284	63.8273	114.6331	126.4038	213.2212	252.5627	265.6714	370.3421	467.4996	533.9589	615.4294	672.6585	764.6942	803.8012	884.7909	942.2155	952.6683	1005.7577	1033.2876	1057.7916	1100.0857	1105.879	1161.6508	1201.0204	1225.3867	1290.8136	1346.3687	1407.2759	1413.2615	1435.3623	1491.3781	1509.237	1668.0973	1787.0861	1849.794	2914.2559	2967.0556	3029.7035	3038.7781	3105.5045	3194.167	3683.4571
CN=C1NC=NC1C=O	CN=C1NC=N[C@H]1C=O	
InChI=1S/C5H7N3O/c1-6-5-4(2-9)7-3-8-5/h2-4H,1H3,(H,6,7,8)	InChI=1S/C5H7N3O/c1-6-5-4(2-9)7-3-8-5/h2-4H,1H3,(H,6,7,8)/t4-/m0/s1
