18
gdb 35121	2.42983	1.44376	1.22668	4.0909	82.18	-0.2591	-0.0064	0.2527	1103.5149	0.149698	-364.830711	-364.822616	-364.821672	-364.86386	30.686	
N	-0.287766357	-1.1017444868	-0.5894087489	-0.333378
C	-0.1727520067	 0.0193089219	-0.3299552037	 0.280659
C	-0.0158998977	 1.4480639585	 0.0058372349	-0.237994
C	-0.7916181053	 1.7868161525	 1.2733442048	-0.068726
C	-0.3834139752	 1.5114371676	 2.5079779246	-0.038804
C	 0.9212472994	 0.8360521682	 2.8423029164	-0.275495
C	 2.148904227	 1.6744504313	 2.4509884412	-0.242876
C	 2.326113504	 1.9405139667	 0.9805885999	-0.0234
C	 1.4599586211	 1.8325616705	-0.0256167352	-0.072492
H	-0.4909295064	 1.9929487528	-0.8191072648	 0.132162
H	-1.7525337212	 2.2654880095	 1.1127090213	 0.104968
H	-1.0258200289	 1.7978220377	 3.337080876	 0.099618
H	 0.9655522559	 0.6241867627	 3.9145203491	 0.105324
H	 0.9781788236	-0.1335442734	 2.330770902	 0.138221
H	 2.1270457335	 2.6351884839	 2.9861680929	 0.11738
H	 3.0531248447	 1.1653159261	 2.8091928565	 0.11253
H	 3.3292574662	 2.2680998716	 0.710744324	 0.096793
H	 1.823331903	 2.0373974387	-1.0292696611	 0.105509
43.3726	135.8661	191.5186	220.7776	328.0744	341.7182	419.2587	457.1726	538.8658	586.7242	639.6935	716.3641	739.9714	773.781	832.9526	874.2301	907.2863	952.6216	992.0388	994.7805	1009.5181	1050.2808	1072.1982	1088.652	1195.1438	1244.1671	1261.2051	1291.3216	1296.112	1339.0141	1355.1153	1379.9437	1415.4668	1429.2588	1469.0524	1492.5393	1732.0565	1738.2193	2346.107	3003.5777	3026.0137	3032.7055	3041.9974	3083.6483	3130.9128	3153.3954	3163.5291	3181.6723
N#CC1C=CCCC=C1	N#C[C@H]1C=CCCC=C1	
InChI=1S/C8H9N/c9-7-8-5-3-1-2-4-6-8/h3-6,8H,1-2H2	InChI=1S/C8H9N/c9-7-8-5-3-1-2-4-6-8/h3-6,8H,1-2H2
