23
gdb 70241	2.75299	1.30127	1.1716	1.5062	84.36	-0.2368	0.0648	0.3016	1200.057	0.205164	-388.295101	-388.285886	-388.284942	-388.328234	37.275	
C	 0.0565525405	 1.5413349262	 0.0241728947	-0.439241
C	 0.0016958154	 0.0110214681	-0.0054319117	 0.328483
C	-1.4603788685	-0.4583907644	-0.1142737399	-0.418967
C	 0.8165917831	-0.5904679707	-1.1939858177	-0.264716
C	 1.2783569696	-1.9667906857	-0.7250737121	-0.113548
C	 2.5293643616	-2.0275057534	 0.1357897984	-0.314119
C	 1.18829103	-1.9991359361	 0.791627866	 0.423999
O	 0.8382776906	-3.1461606045	 1.5081620231	-0.473951
C	 0.6535884805	-0.6367256796	 1.2507977773	-0.331231
H	 1.0888552808	 1.8972787004	 0.1117410567	 0.108196
H	-0.3689039278	 1.9705265694	-0.8901813224	 0.109499
H	-0.5089469545	 1.945035402	 0.8717109175	 0.109821
H	-1.9348143021	-0.0643785578	-1.0197847866	 0.11155
H	-1.5244374142	-1.5518326283	-0.1593515539	 0.102555
H	-2.0492792655	-0.1230257454	 0.7466262572	 0.109583
H	 0.2051671984	-0.6497489137	-2.0999851086	 0.094089
H	 1.6720293808	 0.0530436271	-1.4350298813	 0.091283
H	 1.0366348921	-2.847963756	-1.3086823091	 0.083967
H	 3.0499506095	-2.9785136596	 0.1646498297	 0.115906
H	 3.1699971879	-1.1516833035	 0.1959585811	 0.102431
H	-0.1164972722	-3.2591007374	 1.4424893715	 0.276474
H	 1.461896736	-0.0068646719	 1.6412096869	 0.095001
H	-0.0669380822	-0.764492225	 2.0651001032	 0.092937
76.9892	181.8498	237.2918	265.992	299.3183	305.7371	310.603	367.8522	381.5593	417.2411	429.254	447.2233	558.853	605.1078	740.7413	763.2044	847.6976	865.5761	901.9965	918.1712	923.1326	946.0275	955.8232	964.9479	988.4226	1036.6105	1054.696	1066.5401	1083.6459	1115.6675	1187.0895	1205.571	1232.6272	1257.9144	1267.95	1294.8147	1304.4612	1323.9841	1343.8639	1398.8111	1413.7488	1419.5706	1477.6387	1483.1873	1487.7995	1488.1791	1504.0767	1507.4007	1507.4878	3018.3592	3019.9609	3023.4572	3031.1253	3072.9994	3076.7194	3086.2832	3086.7051	3092.5665	3094.1352	3115.2193	3171.856	3211.917	3791.3611
CC1(C)CC2CC2(O)C1	CC1(C)C[C@H]2C[C@@]2(O)C1	
InChI=1S/C8H14O/c1-7(2)3-6-4-8(6,9)5-7/h6,9H,3-5H2,1-2H3	InChI=1S/C8H14O/c1-7(2)3-6-4-8(6,9)5-7/h6,9H,3-5H2,1-2H3/t6-,8+/m0/s1
