20
gdb 70617	2.43291	1.8409	1.31894	2.2763	78.05	-0.2323	0.081	0.3134	1033.0178	0.171441	-403.116888	-403.108796	-403.107852	-403.149106	32.21	
C	 0.0900159196	 1.4851801208	-0.0194515262	-0.48266
C	-0.0271668838	-0.0174714853	-0.0014389634	 0.254432
C	-0.6070045442	-0.7526326571	 1.1585817773	-0.297303
N	 0.8417226363	-0.787710354	 0.9205293046	-0.135399
C	 1.2891961042	-2.0012897251	 0.2057214001	-0.158116
C	 0.4032456498	-2.1770969669	-1.0519180404	-0.342323
C	-0.098008092	-0.7617405434	-1.3161637647	 0.413444
C	-0.9666414595	-0.3893680773	-2.4353344843	-0.261891
O	 0.4303425781	-0.0759404307	-2.4610917761	-0.273974
H	 0.9058567602	 1.8016084718	-0.6736352467	 0.13948
H	-0.8340022905	 1.9475910692	-0.3844556264	 0.114416
H	 0.2809981661	 1.8573573583	 0.9896644514	 0.126195
H	-0.90614096	-0.1931335186	 2.040795587	 0.114727
H	-1.1969836381	-1.6483052271	 0.9773241887	 0.105927
H	 2.3330415645	-1.8394155061	-0.0812036105	 0.116627
H	 1.2574280298	-2.8643392984	 0.8772404267	 0.106478
H	 0.9560635095	-2.5565183294	-1.9133440802	 0.122165
H	-0.4341921477	-2.8573843976	-0.8689554313	 0.111374
H	-1.2878508122	-1.1518236099	-3.144574191	 0.112956
H	-1.63548842	 0.4659156266	-2.3465900847	 0.113446
103.0735	170.1757	225.7544	261.236	268.7722	366.5466	405.7001	439.7787	456.6672	559.3892	617.3364	671.1683	768.9979	786.8811	807.4858	870.5725	901.7538	934.3773	952.3391	975.4712	986.8419	1041.0911	1081.2499	1107.0847	1111.7229	1128.4701	1144.9457	1165.1812	1174.8201	1208.216	1244.1002	1301.3507	1320.9217	1343.7637	1369.3593	1412.958	1427.3291	1477.6464	1481.9387	1497.1408	1501.7095	1518.6885	1534.4504	3041.3546	3050.0823	3056.7665	3077.7718	3092.7772	3102.1672	3108.5708	3119.8211	3134.4922	3161.5496	3184.1949
CC12CN1CCC21CO1	C[C@]12CN1CC[C@]12CO1	
InChI=1S/C7H11NO/c1-6-4-8(6)3-2-7(6)5-9-7/h2-5H2,1H3	InChI=1S/C7H11NO/c1-6-4-8(6)3-2-7(6)5-9-7/h2-5H2,1H3/t6-,7-,8?/m1/s1
