20
gdb 65600	3.52513	1.16711	1.15137	3.9477	78.86	-0.2452	-0.0158	0.2293	1152.7766	0.171429	-403.150091	-403.141692	-403.140748	-403.182988	32.643	
C	 0.5005658775	 1.2902329177	 0.0396161321	-0.441865
C	-0.0992861309	-0.1189983511	 0.0006230095	 0.211427
C	 0.4136993258	-0.9554948547	-1.2218046564	-0.265491
C	 1.5087443893	-1.8547682351	-0.6816069677	-0.028034
N	 2.5280057238	-1.1318317732	 0.1115505572	-0.332367
C	 1.4416552519	-1.8670472249	 0.7970764034	-0.028076
C	 0.30159419	-0.975954271	 1.2506679492	-0.265418
C	-1.6171597027	-0.0485758947	-0.0671970092	 0.123073
O	-2.2759540663	 0.9573699785	-0.0872243573	-0.252152
H	 1.5884897818	 1.2304389899	 0.0892893871	 0.141961
H	 0.2106566382	 1.8557649531	-0.8507505208	 0.116975
H	 0.1293217172	 1.8415759462	 0.9083969182	 0.117061
H	-0.3871358369	-1.5879610694	-1.6281213937	 0.09832
H	 0.7523737647	-0.2992351322	-2.0287611173	 0.116968
H	 1.8123797299	-2.7268136308	-1.252293339	 0.087404
H	 3.3780701274	-1.6893603067	 0.1454292444	 0.231764
H	 1.6929704846	-2.7486903356	 1.3783538209	 0.087412
H	 0.5653193148	-0.3331260981	 2.0955233992	 0.117003
H	-0.5322686543	-1.6143474076	 1.5724799598	 0.098339
H	-2.1081019856	-1.0526384902	-0.0987942296	 0.065699
75.6441	124.8176	223.0894	260.7167	279.0259	349.6459	354.7458	390.1507	397.3802	489.5348	644.6045	723.1737	775.3734	785.5997	847.2541	870.8765	907.2402	934.0598	936.0957	955.1749	984.8361	993.1853	1037.389	1087.5968	1128.4299	1144.417	1149.9673	1164.4021	1187.2232	1223.8631	1253.1318	1317.9788	1319.163	1352.6407	1361.593	1399.4393	1427.2319	1440.2552	1473.6256	1479.3834	1492.4716	1505.2675	1832.5872	2825.9317	3019.4986	3022.346	3047.6463	3084.5775	3086.6606	3112.3277	3150.3945	3154.2848	3165.2369	3499.6549
CC1(CC2NC2C1)C=O	C[C@]1(C[C@H]2N[C@H]2C1)C=O	
InChI=1S/C7H11NO/c1-7(4-9)2-5-6(3-7)8-5/h4-6,8H,2-3H2,1H3	InChI=1S/C7H11NO/c1-7(4-9)2-5-6(3-7)8-5/h4-6,8H,2-3H2,1H3/t5-,6+,7-
