15
gdb 131499	4.02297	1.20668	1.06605	5.7971	66.93	-0.2748	-0.0129	0.2619	1101.2952	0.11362	-450.077176	-450.069752	-450.068808	-450.10989	27.469	
O	 0.0996035796	 1.3512374573	 0.6640601715	-0.410295
C	 0.067799156	 0.0557808811	 0.1556255427	 0.086362
C	-0.4686533589	-0.9840684146	 1.0934853591	-0.334986
C	-1.2800724639	-0.5912436102	-0.116879677	 0.024433
N	-2.4836707347	 0.1725706185	 0.0117628778	 0.022733
C	-2.8825779571	 1.11492626	 0.8883182461	 0.049369
N	-4.0818543512	 1.5378095654	 0.5462374689	-0.228198
N	-4.4153309619	 0.834741926	-0.5652841813	-0.092721
N	-3.4746457761	 0.0168320117	-0.9004370502	-0.134238
H	 0.0020127053	 1.9715129405	-0.0678425512	 0.303439
H	 0.8878462989	-0.211689884	-0.5087671318	 0.113439
H	-0.0236395919	-1.9719836402	 1.1055907388	 0.140259
H	-0.8060873969	-0.6223737944	 2.0584832096	 0.145995
H	-1.3720522041	-1.2879245067	-0.9397017104	 0.139914
H	-2.2888777231	 1.4617432496	 1.7151824374	 0.174496
47.2563	132.7686	184.9322	274.	367.5297	376.395	455.5109	548.7295	669.3917	719.5716	734.924	786.4633	840.5763	863.1814	940.5223	990.5686	1025.029	1034.1143	1072.4811	1089.6751	1114.4766	1127.005	1156.6995	1170.6039	1213.7322	1231.1454	1293.5297	1312.3136	1403.6111	1426.1609	1453.975	1486.8308	1513.7409	3118.74	3144.9484	3207.7677	3236.9567	3311.711	3795.6826
OC1CC1N1C=NN=N1	O[C@H]1C[C@H]1n1cnnn1	
InChI=1S/C4H6N4O/c9-4-1-3(4)8-2-5-6-7-8/h2-4,9H,1H2	InChI=1S/C4H6N4O/c9-4-1-3(4)8-2-5-6-7-8/h2-4,9H,1H2/t3-,4+/m1/s1
