22
gdb 58308	3.54455	0.85426	0.72689	1.1432	79.38	-0.2369	0.0747	0.3116	1600.2506	0.191998	-441.4467	-441.436214	-441.43527	-441.482755	38.458	
C	-0.0477339689	 1.5470760618	-0.0934061698	-0.410524
C	-0.007749424	 0.0281141793	 0.0440943252	 0.130889
O	 0.7206929779	-0.382260705	 1.1992572334	-0.432254
C	-1.4114664179	-0.5947093676	 0.0485847313	 0.096903
O	-2.0398954398	-0.220003743	-1.1702981907	-0.443396
C	-1.3661142682	-2.1171207702	 0.2066804667	-0.1475
N	-2.716931845	-2.6665553306	 0.1013257022	-0.094225
C	-3.0878778383	-3.2492739809	-1.1915293012	-0.230131
C	-2.813479903	-4.1170104868	-0.0167827023	-0.219511
H	 0.967715787	 1.951800392	-0.115884677	 0.118339
H	-0.5732065062	 1.8364327401	-1.0056716081	 0.141868
H	-0.5789474499	 1.9968168398	 0.7560021594	 0.10027
H	 0.5432934351	-0.3972190048	-0.8037070182	 0.094173
H	 0.3619385654	 0.0981389042	 1.9538501324	 0.278104
H	-1.9733935556	-0.1812588178	 0.9054253332	 0.057272
H	-2.9323777309	-0.5802011642	-1.143114402	 0.296534
H	-0.6831606365	-2.5472350005	-0.5474878104	 0.083317
H	-0.9625940272	-2.3586645697	 1.1936973579	 0.112345
H	-4.1102718655	-3.0744963436	-1.5163040306	 0.114643
H	-2.3461834165	-3.2300667655	-1.9873151925	 0.121969
H	-1.8861277467	-4.6872610633	-0.0263814955	 0.113678
H	-3.6283998353	-4.5832615735	 0.5296633965	 0.117237
47.9061	71.4585	98.92	130.9594	226.7508	241.959	292.5985	301.9972	332.43	369.0125	403.8186	413.8983	469.0885	488.0172	573.0324	770.5669	836.217	852.6404	901.458	910.325	953.8998	1012.2094	1029.9942	1052.3058	1088.0647	1102.1539	1116.0151	1120.2443	1129.5158	1150.992	1175.6757	1193.3862	1221.8458	1271.7835	1314.0956	1316.9725	1323.5819	1365.358	1394.6888	1396.6583	1414.2605	1440.061	1481.8126	1490.5135	1495.0203	1496.6927	1522.479	2937.7013	2950.9272	3022.5799	3043.6445	3093.3207	3097.1256	3100.9248	3101.4016	3140.0809	3177.0282	3191.6304	3797.5833	3819.9351
CC(O)C(O)CN1CC1	C[C@@H](O)[C@@H](O)CN1CC1	
InChI=1S/C6H13NO2/c1-5(8)6(9)4-7-2-3-7/h5-6,8-9H,2-4H2,1H3	InChI=1S/C6H13NO2/c1-5(8)6(9)4-7-2-3-7/h5-6,8-9H,2-4H2,1H3/t5-,6+/m1/s1
