13
gdb 24505	4.03965	1.81529	1.25247	3.6183	72.78	-0.2456	-0.0571	0.1885	897.0873	0.094869	-411.870658	-411.865009	-411.864065	-411.900561	22.703	
N	-0.0392107156	 1.3353523087	 0.0097801886	-0.368356
C	 1.2765164147	 1.7394914983	-0.00039009	 0.029722
N	 2.1421123357	 0.7593156667	-0.0140379534	-0.312623
C	 1.3623118499	-0.3814413841	-0.0130925732	 0.332575
C	-0.014817419	-0.0398557542	 0.0018222809	 0.395924
N	-1.0201481318	-0.8961653043	 0.006504099	-0.345343
C	-0.6001244185	-2.1681913404	-0.0046002836	-0.040118
C	 0.757029401	-2.5301420942	-0.0194407373	-0.038224
N	 1.7620652104	-1.6497221361	-0.0239836274	-0.313206
H	-0.8584957047	 1.9204616733	 0.0207994678	 0.279477
H	 1.5334096751	 2.789812147	 0.0030802249	 0.148158
H	-1.3676233056	-2.9363085352	-0.0016679311	 0.116578
H	 1.0286547284	-3.5821335254	-0.0279077854	 0.115436
246.4377	257.7442	450.4667	483.1385	504.6824	568.0794	620.5623	660.6941	661.916	793.3636	844.682	878.3806	891.9924	921.7931	934.1775	975.0195	1075.3133	1085.7123	1188.5917	1261.5315	1277.6781	1346.7801	1370.3905	1402.1618	1415.9035	1513.7672	1516.5834	1605.1503	1640.9119	3163.7362	3183.6727	3241.8073	3659.6845
N1C=NC2=C1N=CC=N2	[nH]1cnc2c1nccn2	
InChI=1S/C5H4N4/c1-2-7-5-4(6-1)8-3-9-5/h1-3H,(H,6,7,8,9)	InChI=1S/C5H4N4/c1-2-7-5-4(6-1)8-3-9-5/h1-3H,(H,6,7,8,9)
