21
gdb 66218	4.21942	0.63968	0.62051	2.0722	85.18	-0.2589	0.0551	0.314	1852.0277	0.179337	-387.044838	-387.034488	-387.033544	-387.081026	37.594	
C	 0.2986288778	 1.5337594688	-0.4236823018	-0.463197
C	 0.0221410708	 0.0687408943	-0.1588282666	 0.425229
C	-1.408092157	-0.4124034249	-0.3390236456	-0.264902
C	-2.3930415587	 0.2172091116	 0.6547621434	-0.17511
C	-3.8112733604	-0.3723009747	 0.5175572101	-0.356675
C	-4.767263581	 0.2239349656	 1.4425915116	 0.290091
C	-5.5354758201	 0.7325632748	 2.2146272504	-0.433788
C	 1.1214761012	-0.9014498707	-0.279339286	-0.231159
O	 0.6763276492	-0.4628458111	 1.006556245	-0.275879
H	 1.3562408686	 1.7573440235	-0.2653422921	 0.127338
H	 0.0359254983	 1.7984504991	-1.4537499253	 0.119572
H	-0.2841997638	 2.173373583	 0.2462151564	 0.131908
H	-1.730115566	-0.2033377242	-1.3683881015	 0.097544
H	-1.4229929048	-1.5017842206	-0.2176522518	 0.101746
H	-2.0310331141	 0.0538586208	 1.6751201819	 0.128721
H	-2.4493970899	 1.3009564335	 0.50856182	 0.111122
H	-4.1669436374	-0.2353119976	-0.5125886253	 0.126995
H	-3.7729273758	-1.4574420939	 0.6813852875	 0.130715
H	-6.2216979436	 1.1738612929	 2.8938687778	 0.192993
H	 0.9039444375	-1.9415940684	-0.5206725201	 0.107877
H	 2.1142466391	-0.5599812617	-0.5714646679	 0.108859
45.9095	82.1397	90.8258	111.1097	192.2925	212.2459	277.5161	348.7359	357.7607	366.8366	417.0465	468.371	552.2306	615.5283	634.912	729.282	740.7389	825.0047	855.6565	909.923	928.1805	967.9293	999.4693	1032.3288	1052.2814	1085.9579	1111.9982	1135.9482	1157.6419	1184.9892	1260.6169	1270.7713	1308.0092	1325.7166	1351.6347	1383.5775	1408.6192	1425.9347	1470.1738	1473.2799	1487.923	1499.1753	1502.9576	1532.7227	2239.1707	3012.3194	3016.5267	3038.7519	3041.17	3048.91	3060.4164	3075.779	3097.4739	3104.1727	3125.2143	3160.0464	3507.8471
CC1(CCCC#C)CO1	C[C@@]1(CCCC#C)CO1	
InChI=1S/C8H12O/c1-3-4-5-6-8(2)7-9-8/h1H,4-7H2,2H3	InChI=1S/C8H12O/c1-3-4-5-6-8(2)7-9-8/h1H,4-7H2,2H3/t8-/m1/s1
