16
gdb 19236	3.18993	1.97972	1.54629	1.9564	69.89	-0.2494	0.0421	0.2915	863.5835	0.128791	-346.529918	-346.52229	-346.521346	-346.561635	28.911	
C	-0.1396069164	 1.5631995691	-0.1651423065	-0.40817
C	 0.0049382712	 0.0561160169	-0.0381818422	-0.02466
C	 0.6840941662	-0.6901245344	-1.1986439401	 0.020317
O	 2.025716204	-0.1966385902	-1.2963610104	-0.234603
C	 1.7506330694	-1.2115964431	-0.334083155	 0.021624
C	 1.1459737634	-0.5326081246	 0.9152864553	-0.242122
C	 1.9873608144	 0.3761326807	 1.6649321948	 0.35632
C	 2.6784479906	 1.135432297	 2.2910036305	-0.467695
H	 0.8043647969	 2.0108846398	-0.4840563295	 0.143919
H	-0.9110730183	 1.8153043049	-0.9008256464	 0.111332
H	-0.4231852701	 2.012250122	 0.7914130162	 0.122893
H	-0.9483635927	-0.4130249566	 0.223319538	 0.081737
H	 0.2412064496	-1.1004099312	-2.098858931	 0.106007
H	 2.3370513934	-2.1217725934	-0.3802679493	 0.110415
H	 0.7093385958	-1.2831261274	 1.5822231583	 0.106425
H	 3.2974026827	 1.8030833604	 2.8373535973	 0.196259
110.0564	134.9151	212.5573	213.511	300.7842	363.9172	496.5742	542.6032	617.1992	630.7417	640.7561	719.3848	776.3924	851.5682	860.4701	889.3402	896.604	997.0191	1015.1424	1049.5983	1068.9833	1109.4529	1118.1349	1187.2354	1235.6009	1242.9986	1269.0975	1329.5817	1355.5712	1390.69	1410.4426	1487.3225	1500.0436	2234.2907	3038.7837	3051.8523	3068.4014	3104.0191	3132.0232	3179.9373	3195.309	3503.9655
CC1C2OC2C1C#C	C[C@H]1[C@H]2O[C@H]2[C@H]1C#C	
InChI=1S/C7H8O/c1-3-5-4(2)6-7(5)8-6/h1,4-7H,2H3	InChI=1S/C7H8O/c1-3-5-4(2)6-7(5)8-6/h1,4-7H,2H3/t4-,5+,6-,7+/m1/s1
