25
gdb 41946	2.06835	1.83391	1.4964	0.0015	90.27	-0.2774	0.0697	0.347	1083.0047	0.23553	-352.399087	-352.391559	-352.390615	-352.430428	32.565	
C	-0.0260595049	 1.5246009582	-0.1409326859	-0.193213
C	 1.3844877098	 2.1368988995	-0.0355563614	-0.19819
C	 2.2678686504	 1.5203230869	 1.0713838178	 0.023873
C	 1.8347836237	 1.8444777034	 2.5181742199	-0.19819
C	 0.5201276542	 1.1699237377	 2.9566950481	-0.193211
C	 0.4268546868	-0.3053643707	 2.520271446	-0.198189
C	 0.8957950423	-0.5747678932	 1.0734280767	 0.023873
C	-0.0234572489	-0.0129630286	-0.0334576623	-0.198191
C	 2.3129136931	-0.0061862344	 0.8886418408	-0.209856
H	-0.6730986448	 1.9491022071	 0.6315051808	 0.101471
H	-0.4786850686	 1.8200914226	-1.0950684719	 0.085349
H	 1.906048085	 1.9867157239	-0.9908966	 0.08881
H	 1.3078713943	 3.2225890916	 0.1017832992	 0.084691
H	 3.2787671862	 1.9269642265	 0.9396940018	 0.057406
H	 2.6421013197	 1.5086711982	 3.1835541613	 0.088809
H	 1.7583725887	 2.9300617037	 2.6564628097	 0.084691
H	 0.4280691833	 1.2312789459	 4.0477130325	 0.085348
H	-0.3328235063	 1.7281335949	 2.5612194242	 0.10147
H	 1.0579371158	-0.9102718957	 3.1859145262	 0.088808
H	-0.5986652453	-0.6690237271	 2.6599704263	 0.084691
H	 0.9269713877	-1.6641179112	 0.9431987711	 0.057406
H	-1.0491574483	-0.3764764559	 0.1052953473	 0.084691
H	 0.3218153232	-0.4323273675	-0.9885362162	 0.08881
H	 2.6961465408	-0.2581392669	-0.1084444606	 0.079422
H	 3.0003399521	-0.455670549	 1.6166092584	 0.079422
150.8576	227.906	295.2649	336.7635	378.3311	387.6549	387.7176	491.8503	521.87	631.7198	704.5978	759.4936	762.6226	829.7329	834.2599	851.3712	860.4022	894.1128	929.8688	969.5394	981.048	1013.1585	1039.9005	1048.8674	1081.4454	1086.839	1129.2075	1130.6219	1133.6849	1145.152	1152.7804	1250.0036	1277.6696	1283.4391	1291.6235	1328.1406	1335.9505	1345.7962	1358.1363	1363.5668	1377.6626	1386.788	1395.906	1397.4674	1402.6542	1411.6722	1480.1772	1481.6048	1484.4255	1491.5828	1498.5816	1508.2987	1528.3695	3000.3509	3001.4523	3006.7815	3007.4108	3007.791	3022.2286	3027.8113	3033.5049	3039.3184	3043.0348	3045.7713	3048.1305	3049.6978	3049.7597	3076.038	3098.5084
C1CC2CCCC(C1)C2	C1C[C@H]2CCC[C@@H](C1)C2	
InChI=1S/C9H16/c1-3-8-5-2-6-9(4-1)7-8/h8-9H,1-7H2	InChI=1S/C9H16/c1-3-8-5-2-6-9(4-1)7-8/h8-9H,1-7H2/t8-,9+
