14
gdb 8591	5.20145	1.83242	1.74881	4.19	62.15	-0.2687	-0.0123	0.2564	761.2922	0.107651	-382.434401	-382.428634	-382.42769	-382.464109	23.306	
O	-0.2159590953	-0.0001533171	-0.4027584132	-0.293163
C	-0.0204879633	 1.1037616236	-0.0276252946	 0.373926
O	-1.0084368381	 2.0467764667	 0.3614808246	-0.308676
C	 0.076238969	 2.8852933564	 0.8625248347	 0.391633
C	 0.9423893199	 4.1795602595	 0.8358110332	-0.29861
C	 1.870010971	 2.9303552557	 1.2453528701	-0.087608
C	 0.7445084598	 2.4861298028	 2.2006132723	-0.262623
C	 1.1327394839	 2.1569247613	 0.0781756135	-0.197057
H	 1.1342539247	 4.6279949693	-0.1395074552	 0.12139
H	 0.778023437	 4.9270453693	 1.6155460623	 0.115626
H	 2.9383403144	 2.9834377179	 1.4516472089	 0.104562
H	 0.5475143522	 3.1207858138	 3.0658552761	 0.106207
H	 0.7149200093	 1.42360252	 2.4507561657	 0.119074
H	 1.3322909255	 2.5403105908	-0.9258994084	 0.115319
151.4761	301.0564	416.7759	467.1319	544.7628	553.514	648.7042	725.3679	732.8927	823.757	838.2121	860.486	922.6773	952.9726	974.6708	1017.113	1019.9286	1031.4891	1087.2093	1107.9032	1145.0268	1168.965	1182.8157	1196.475	1226.3608	1232.9753	1319.8412	1494.056	1532.7195	1940.3023	3068.066	3072.4744	3077.6731	3123.43	3143.2247	3150.966
O=C1OC23CC(C2)C13	O=C1O[C@@]23C[C@@H](C2)[C@@H]13	
InChI=1S/C6H6O2/c7-5-4-3-1-6(4,2-3)8-5/h3-4H,1-2H2	InChI=1S/C6H6O2/c7-5-4-3-1-6(4,2-3)8-5/h3-4H,1-2H2/t3-,4-,6-/m0/s1
