18
gdb 108959	2.91745	1.38085	1.21316	1.0395	72.03	-0.2075	0.0116	0.2191	1082.0559	0.149479	-435.242781	-435.234128	-435.233184	-435.276627	32.486	
N	 0.0227586253	 1.5220936991	-0.5535891163	-0.53226
C	-0.0539192534	 0.1261954253	-0.2318821817	-0.007779
C	-1.3589972579	-0.5220180616	 0.1556637856	-0.068935
N	-2.5542379223	 0.0735534077	-0.3713976047	-0.322266
C	-2.4469410714	 0.1130692146	-1.7495590487	 0.312954
C	-3.4048218114	 0.9318569516	-2.562194857	-0.165829
O	-3.0033710562	 2.3028849028	-2.5712080612	-0.415307
N	-1.448026835	-0.5294504456	-2.2494909533	-0.294605
C	-0.642392376	-0.96146566	-1.1402649022	-0.046436
H	 0.5401928296	 1.6652245403	-1.4157499271	 0.232168
H	-0.9002699234	 1.9185005781	-0.6985274883	 0.229009
H	 0.7882847318	-0.235230615	 0.3533813126	 0.098475
H	-1.4626506701	-1.1101752063	 1.0602354596	 0.101664
H	-3.0882304379	 0.7577627298	 0.1406269611	 0.25557
H	-3.455761146	 0.512385869	-3.5730454782	 0.124686
H	-4.406997949	 0.9153939638	-2.1231872223	 0.118329
H	-2.161462075	 2.337222204	-3.0392839295	 0.288835
H	-0.1128700517	-1.9007426075	-1.2484591684	 0.091727
37.1253	102.3697	183.5989	241.4779	251.5097	315.2595	360.7743	386.7127	423.9366	561.5313	586.4858	670.0094	753.5543	766.6513	775.751	810.0609	857.7803	938.0348	953.0855	977.2307	1015.5431	1030.6477	1044.6549	1081.0649	1111.3245	1128.7876	1187.2256	1234.8484	1262.2408	1271.8627	1323.1165	1349.7956	1373.317	1409.4638	1417.8417	1467.1682	1495.1335	1655.5643	1670.3024	3042.8136	3097.9994	3132.6379	3167.9303	3179.7179	3496.2044	3570.4896	3637.9213	3805.3402
NC1C2NC(CO)=NC12	N[C@H]1[C@H]2NC(=N[C@@H]12)CO	
InChI=1S/C5H9N3O/c6-3-4-5(3)8-2(1-9)7-4/h3-5,9H,1,6H2,(H,7,8)	InChI=1S/C5H9N3O/c6-3-4-5(3)8-2(1-9)7-4/h3-5,9H,1,6H2,(H,7,8)/t3-,4+,5-
