12
gdb 11682	5.12091	1.56278	1.36566	2.8013	62.48	-0.2885	-0.0288	0.2597	860.4213	0.084038	-377.496993	-377.490526	-377.489582	-377.52772	24.139	
N	-0.0324993609	 1.1804158936	-0.0607486543	-0.539084
C	-0.0574765722	-0.063970713	 0.0241517079	 0.455958
O	 0.9887488354	-0.9886090036	 0.1767616724	-0.29067
C	 0.0509360721	-2.0818821033	 0.0147881088	 0.332573
C	-0.9404285748	-2.0608261903	 1.1333516841	-0.322401
C	-1.1234983918	-1.1106598871	-0.0434830308	-0.242188
C	 0.411003149	-3.1858690369	-0.8082812207	 0.229904
N	 0.6903964534	-4.0953331191	-1.4658110673	-0.332069
H	 0.9163803164	 1.5505489954	 0.0085592453	 0.244897
H	-1.6469894146	-2.8838825491	 1.1571082228	 0.157552
H	-0.6132844153	-1.6877282694	 2.0981102956	 0.152989
H	-1.9980381967	-1.1090370072	-0.6763849038	 0.15254
112.6534	171.4054	257.1246	417.8928	426.7494	508.6373	543.4326	613.2691	646.2052	735.1515	853.9693	866.2141	892.8981	934.6962	968.0618	988.7981	998.3022	1069.9115	1088.5861	1136.5593	1226.5968	1272.0333	1373.3767	1474.5609	1850.6847	2358.1448	3134.7847	3232.2181	3244.2961	3491.2431
N=C1OC2(CC12)C#N	[NH][C]1O[C@]2(C[C@@H]12)C#N	
InChI=1S/C5H4N2O/c6-2-5-1-3(5)4(7)8-5/h3,7H,1H2	InChI=1S/C5H4N2O/c6-2-5-1-3(5)4(7)8-5/h3,7H,1H2/t3-,5+/m0/s1
