18
gdb 41558	3.23551	1.91864	1.71454	0.9494	72.75	-0.2398	0.0676	0.3074	856.2692	0.151254	-401.880477	-401.874444	-401.8735	-401.910608	25.803	
C	 0.001321119	 1.5030014761	-0.2676918019	-0.099349
O	 1.3969354785	 1.6016381706	 0.1024510514	-0.296239
C	 1.4580122661	 0.1902406571	 0.4403771684	 0.126111
C	 1.4480612734	-0.1461537611	 1.9421752318	-0.091757
C	 0.6189797803	 0.9211791231	 2.7185348798	-0.249808
C	-0.6232227483	 0.0434085701	 2.5059103355	-0.04613
C	 0.2228938648	-1.1210487843	 2.1013402785	-0.06379
N	-0.7456900288	-0.5670520711	 1.1656368616	-0.109898
C	-0.0161011832	-0.0100481587	 0.0225096015	-0.031494
H	-0.6492826916	 2.115628755	 0.3671750606	 0.107109
H	-0.1521599733	 1.7762192588	-1.317332115	 0.107297
H	 2.2508311049	-0.315805258	-0.119948847	 0.075068
H	 2.4109106375	-0.4258745392	 2.3668318709	 0.072211
H	 0.8844969249	 0.922146408	 3.779014166	 0.10403
H	 0.6379205655	 1.9436884139	 2.3398278268	 0.119818
H	-1.5323620541	 0.066633557	 3.096953046	 0.093784
H	 0.2113822426	-2.1668784996	 2.3833953032	 0.093768
H	-0.2112520782	-0.6431242578	-0.8449854083	 0.089267
179.9605	252.2329	349.0512	479.8187	527.7409	622.6429	680.3718	693.001	810.6351	814.5306	831.9726	855.7444	875.3173	903.1652	923.2374	955.3418	976.1144	979.4538	1004.7316	1041.488	1045.2093	1063.1221	1084.272	1119.0965	1133.3083	1162.2422	1177.9055	1204.3913	1220.1884	1250.1591	1263.7985	1270.4193	1305.3905	1326.8114	1342.1524	1351.7221	1373.5527	1502.5985	1516.2262	3026.5379	3052.9359	3069.0925	3071.927	3093.2465	3124.9727	3129.5723	3166.9477	3188.645
C1OC2C3CC4C3N4C12	C1O[C@H]2[C@H]3C[C@@H]4[C@H]3N4[C@@H]12	
InChI=1S/C7H9NO/c1-3-6-4(1)8(6)5-2-9-7(3)5/h3-7H,1-2H2	InChI=1S/C7H9NO/c1-3-6-4(1)8(6)5-2-9-7(3)5/h3-7H,1-2H2/t3-,4+,5-,6-,7-,8?/m0/s1
