21
gdb 36919	4.72819	0.84275	0.78892	1.3827	85.29	-0.2282	0.0184	0.2465	1519.1034	0.182985	-387.079388	-387.070702	-387.069758	-387.113717	32.618	
C	-0.0874616395	 1.554198249	-0.1610565384	-0.221373
C	-0.1182864187	 0.0416134738	-0.1917069426	 0.042691
C	-0.3332657155	-0.744471974	 1.0784882382	-0.257619
C	-1.4091789672	-0.7047177996	 0.019406947	-0.280736
C	 1.3103539845	 2.111162937	 0.1466005958	 0.095828
O	 2.2405503189	 1.6891980952	-0.8614185027	-0.279785
C	 2.8840178821	 2.8132734836	-1.453737444	-0.11284
C	 2.2777800206	 4.0122240958	-0.7802708044	-0.09728
C	 1.3981512028	 3.6141276963	 0.1304531142	-0.094673
H	-0.4167482625	 1.9638042796	-1.1244494908	 0.097222
H	-0.7870603545	 1.9238340335	 0.6010705953	 0.08476
H	 0.5757287514	-0.3915023733	-0.9052112361	 0.098946
H	 0.2202724372	-1.6662318316	 1.2191669497	 0.110444
H	-0.5096897781	-0.1913246099	 1.9959359049	 0.104274
H	-2.302439676	-0.1244676612	 0.2288376174	 0.105694
H	-1.5916976159	-1.5997408575	-0.5652556386	 0.109063
H	 1.6384471106	 1.7019912222	 1.1174722155	 0.080738
H	 3.9729224707	 2.7513241238	-1.2938823458	 0.10297
H	 2.7193079261	 2.8104679538	-2.5427953388	 0.1041
H	 2.5507843859	 5.0310752036	-1.0245437864	 0.104841
H	 0.8051527072	 4.2426936797	 0.7829248806	 0.102735
64.056	71.6645	105.7523	138.521	265.4105	309.6462	382.4825	426.1932	519.8512	705.052	750.7618	775.7368	798.3162	820.9133	830.9467	850.7934	902.81	941.3867	955.4139	958.9053	998.6381	1029.8809	1043.4813	1050.1643	1059.5392	1076.7858	1110.2373	1131.0765	1145.996	1161.6371	1198.9933	1200.1129	1225.9904	1261.0792	1275.8529	1323.6409	1360.7353	1379.139	1387.7856	1414.1416	1467.26	1474.4976	1507.9183	1522.0887	1692.0823	2952.9933	2968.7436	2986.0321	3012.2065	3055.7523	3125.4362	3130.591	3160.9129	3203.0563	3204.2656	3218.706	3229.1031
C(C1CC1)C1OCC=C1	C(C1CC1)[C@H]1OCC=C1	
InChI=1S/C8H12O/c1-2-8(9-5-1)6-7-3-4-7/h1-2,7-8H,3-6H2	InChI=1S/C8H12O/c1-2-8(9-5-1)6-7-3-4-7/h1-2,7-8H,3-6H2/t8-/m0/s1
