17
gdb 109474	2.14888	1.74025	0.99933	2.5572	70.92	-0.2266	-0.033	0.1936	1154.3896	0.135678	-455.163755	-455.154935	-455.153991	-455.197502	32.287	
C	-0.0240838074	 1.4591399699	 0.087740032	-0.24794
O	 0.2791166502	 0.0817695021	-0.0968060316	-0.257721
C	 0.6812819017	-0.5775744684	 1.0756038499	-0.069944
C	-0.4381536734	-0.976806627	 2.0633271966	 0.365229
O	-1.382243813	-0.3051308336	 2.3837074734	-0.302609
C	-0.1056144582	-2.4116998324	 2.4879708536	-0.267541
N	 0.876504208	-2.9093486027	 1.5273215527	-0.293776
C	 1.2558503713	-1.9451025348	 0.771504808	 0.34991
N	 2.1741304915	-2.0528308623	-0.2340894207	-0.563442
H	 0.8490808119	 2.0035208494	 0.478829848	 0.107601
H	-0.2804545795	 1.8570116943	-0.8963813332	 0.130274
H	-0.8669067953	 1.5938282714	 0.7717185305	 0.150918
H	 1.4284531951	 0.0239389975	 1.6270437276	 0.107052
H	 0.2889658494	-2.4128707688	 3.5148531193	 0.13077
H	-1.0078082698	-3.0343919078	 2.5028941518	 0.136686
H	 2.3644490014	-2.9938492401	-0.5471117064	 0.259224
H	 2.0785969261	-1.3660356568	-0.9674241516	 0.265308
61.3656	120.9421	175.4166	203.5329	245.3688	266.2782	309.4523	404.0581	472.1293	478.175	555.4226	572.8333	610.4193	671.9504	708.0831	792.7692	942.6785	969.4247	1010.77	1019.0356	1098.8642	1163.9217	1177.3397	1184.2549	1200.1644	1217.8358	1244.4888	1292.9582	1347.0183	1433.8429	1466.0901	1476.8549	1482.5914	1517.2574	1620.5921	1724.561	1859.0258	2931.5303	2991.4544	3005.268	3057.6287	3088.1085	3133.9367	3567.8328	3682.2761
COC1C(=O)CN=C1N	CO[C@H]1C(=O)C[N][C]1N	
InChI=1S/C5H8N2O2/c1-9-4-3(8)2-7-5(4)6/h4H,2H2,1H3,(H2,6,7)	InChI=1S/C5H8N2O2/c1-9-4-3(8)2-7-5(4)6/h4H,2H2,1H3,(H2,6,7)/t4-/m0/s1
