16
gdb 102350	1.87286	1.42705	1.1827	5.1192	69.33	-0.2699	-0.0109	0.2591	1145.9988	0.123282	-434.066728	-434.056776	-434.055832	-434.101631	34.676	
N	-0.0264763777	 1.4942530751	 0.0341802553	-0.503682
C	-0.0028596816	 0.0440942759	-0.0023050439	-0.188838
C	-1.4515634189	-0.5309385342	-0.0130641171	-0.113514
C	-1.4174098712	-2.0971201482	-0.0550181762	-0.082537
O	-2.6910513582	-2.6732645569	-0.0465456419	-0.403108
C	-2.1701029775	-0.1365457045	 1.2090753345	 0.316296
N	-2.7307799417	 0.0589986774	 2.1998739184	-0.331635
C	-2.1604665208	-0.0203406349	-1.197304441	 0.323723
N	-2.6480386281	 0.3872657493	-2.1615055828	-0.329679
H	 0.8789512324	 1.8611183514	 0.3019494285	 0.246079
H	-0.2568188225	 1.8784151091	-0.8764295946	 0.253025
H	 0.5204228696	-0.3978801538	-0.865345024	 0.114743
H	 0.485266532	-0.3229580538	 0.9054556761	 0.133577
H	-0.9374649679	-2.3998811014	-0.989322126	 0.140877
H	-0.7921821676	-2.4317121658	 0.7851909976	 0.118088
H	-3.1024775704	-2.5053269448	 0.8098517571	 0.306586
97.2652	104.6701	121.7108	144.4547	178.129	200.6933	228.8138	265.9734	389.095	393.2773	411.6818	489.4567	511.3458	585.4206	665.6854	695.2272	824.083	881.6483	966.3679	999.5033	1069.6575	1109.141	1119.1296	1128.6158	1209.7099	1286.7948	1347.5243	1385.0473	1414.2506	1425.8944	1492.2511	1501.4357	1662.5454	2360.1182	2365.8703	2973.5504	3005.9513	3086.2898	3104.1673	3517.1993	3602.3205	3792.64
NCC(CO)(C#N)C#N	NCC(CO)(C#N)C#N	
InChI=1S/C5H7N3O/c6-1-5(2-7,3-8)4-9/h9H,1,4,6H2	InChI=1S/C5H7N3O/c6-1-5(2-7,3-8)4-9/h9H,1,4,6H2
