17
gdb 64701	2.98915	1.01941	0.93939	4.1249	74.26	-0.2649	-0.0111	0.2538	1286.4783	0.134254	-418.020461	-418.011213	-418.010269	-418.055077	32.804	
C	 0.3317901559	 1.3819407653	 0.0008646621	-0.471472
C	-0.0050338562	-0.095505686	-0.0156116941	 0.284447
C	-1.4421721535	-0.447237009	 0.3746977311	-0.388243
C	-1.7715587655	-0.0038375617	 1.7295848293	 0.268276
N	-2.0083443938	 0.3626958247	 2.7993613493	-0.304664
C	 0.6962548952	-0.9994955041	-0.9942553828	-0.288538
N	 0.9873699845	-1.066586738	 0.4198942472	-0.083272
C	 2.2320148111	-0.7893337545	 0.9687415414	 0.13543
O	 3.2837813262	-1.102123535	 0.4697728332	-0.280941
H	 1.3719570605	 1.5492299311	-0.2903257191	 0.143113
H	-0.3105374238	 1.92435618	-0.7005836101	 0.134781
H	 0.1761070278	 1.8111250483	 0.9953757602	 0.156945
H	-2.142962638	 0.019139406	-0.3276457707	 0.157412
H	-1.5848448452	-1.5301143421	 0.3146889106	 0.163081
H	 0.1751225786	-1.854992786	-1.4164468131	 0.128898
H	 1.4585677365	-0.5621545256	-1.6340433976	 0.143488
H	 2.1439499897	-0.3071447835	 1.9597112231	 0.101259
53.4942	100.5006	116.2679	188.6146	219.3463	260.4039	316.4656	360.8032	389.3156	392.1858	448.473	547.1975	610.4088	770.3625	853.8037	898.4135	921.1195	956.9006	968.9475	1012.5056	1042.0531	1099.9768	1125.0044	1140.5417	1196.6156	1238.222	1304.8012	1326.7766	1409.0462	1414.7317	1427.867	1452.3532	1486.3274	1501.6865	1515.6878	1801.8978	2363.5967	2969.7873	3040.7624	3048.7183	3099.7983	3108.2463	3108.7095	3124.7439	3197.0284
CC1(CC#N)CN1C=O	C[C@@]1(CC#N)CN1C=O	
InChI=1S/C6H8N2O/c1-6(2-3-7)4-8(6)5-9/h5H,2,4H2,1H3	InChI=1S/C6H8N2O/c1-6(2-3-7)4-8(6)5-9/h5H,2,4H2,1H3/t6-,8?/m1/s1
