18
gdb 45171	2.88254	1.91372	1.62389	3.1798	76.17	-0.2508	0.0277	0.2785	895.8388	0.151374	-401.934665	-401.928338	-401.927394	-401.965094	26.923	
N	-0.067002839	 1.2706941995	-0.1147435767	-0.552053
C	-0.042023729	 0.0136899093	 0.0150468748	 0.411874
O	 1.1233567617	-0.7143911753	 0.068603729	-0.258016
C	 0.9368512051	-2.0188473221	 0.6389257856	 0.086948
C	 0.1747440472	-1.8747635693	 1.9810519299	-0.252674
C	-1.1071312875	-1.9957670656	 1.1418764435	-0.039551
C	-0.3188043587	-2.7610153895	 0.0312298895	-0.041079
C	-1.0315741213	-1.9560622568	-1.0580898473	-0.239767
C	-1.2606117261	-0.8628419615	 0.0385689	-0.107265
H	 0.886902879	 1.6391961083	-0.1339892685	 0.2179
H	 1.9091621404	-2.5085327899	 0.6047830115	 0.089153
H	 0.3071874877	-2.7560600061	 2.6155641774	 0.107147
H	 0.369492627	-0.9679101199	 2.5607945547	 0.113417
H	-2.0457554608	-2.3432841836	 1.5734005065	 0.074793
H	-0.22844104	-3.8470535662	-0.0131116146	 0.070903
H	-0.485442667	-1.6633535134	-1.9584768081	 0.11376
H	-1.9727317391	-2.4362532465	-1.3385055476	 0.108055
H	-2.1689795696	-0.2655055512	 0.0186868903	 0.096455
139.5371	322.02	347.4429	410.6114	448.8249	512.6383	602.5309	662.0843	752.3387	766.1432	787.424	826.6341	836.9216	886.4626	908.6077	949.096	954.4258	970.6557	977.9341	1025.9109	1047.284	1054.7838	1070.6548	1103.4213	1120.6564	1168.5188	1187.6678	1214.4675	1239.3065	1250.9118	1273.9122	1286.6342	1291.0889	1304.1973	1340.5285	1391.3067	1479.8436	1488.4971	1767.7599	3051.4748	3058.1356	3100.663	3108.9735	3112.9263	3114.5736	3125.0999	3147.9079	3456.2493
N=C1OC2CC3C2CC13	[NH][C]1O[C@H]2C[C@@H]3[C@H]2C[C@H]13	
InChI=1S/C7H9NO/c8-7-5-1-4-3(5)2-6(4)9-7/h3-6,8H,1-2H2	InChI=1S/C7H9NO/c8-7-5-1-4-3(5)2-6(4)9-7/h3-6,8H,1-2H2/t3-,4-,5+,6+/m1/s1
