17
gdb 86760	2.98109	1.21176	1.00402	3.0699	76.03	-0.2306	0.0235	0.2541	1198.0038	0.136061	-417.987688	-417.978888	-417.977944	-418.021052	33.679	
N	-0.0158796477	 1.3346235221	 0.0262002575	-0.571883
C	-0.054510621	-0.028204336	-0.0124938631	 0.381288
N	-1.11753202	-0.7413887796	 0.0082992709	-0.28182
C	-0.7052692855	-2.1633913618	 0.0238907256	-0.165632
C	 0.7857274346	-2.1778621693	-0.4368751705	-0.266925
C	 1.2660986674	-0.7838085036	-0.0132025787	 0.033709
O	 2.1788621442	-0.1383318222	-0.8903590405	-0.440568
C	-0.8797108991	-2.7542501236	 1.3535676224	 0.374215
C	-1.0043357721	-3.2424195573	 2.4452103605	-0.502237
H	 0.8067150157	 1.746988798	-0.3877064997	 0.264195
H	-0.8868329033	 1.8069401281	-0.1635033306	 0.259016
H	-1.3361984581	-2.7181614883	-0.6803668987	 0.106095
H	 1.3603854815	-3.0008501898	-0.0090373739	 0.107896
H	 0.8317726088	-2.2364203263	-1.528537118	 0.114313
H	 1.6658304269	-0.7919502404	 1.0121380572	 0.100958
H	 3.0616652353	-0.4758111848	-0.7140985152	 0.293334
H	-1.1319737376	-3.6690838052	 3.4090007648	 0.194044
71.4193	112.3254	196.6561	255.5666	266.5844	295.3149	390.6981	414.5433	470.5586	503.592	544.5514	567.0112	614.1133	622.5813	636.9158	697.5635	770.8357	810.5651	841.3636	955.9682	984.2918	1011.4862	1064.2859	1112.9214	1148.6578	1200.2887	1217.5659	1245.1052	1300.1953	1321.8679	1348.5003	1386.2152	1452.063	1487.8117	1618.6004	1729.058	2231.559	2992.1313	3032.568	3065.1604	3128.2018	3504.951	3574.9244	3690.768	3836.0156
NC1=NC(CC1O)C#C	N[C]1[N][C@@H](C[C@H]1O)C#C	
InChI=1S/C6H8N2O/c1-2-4-3-5(9)6(7)8-4/h1,4-5,9H,3H2,(H2,7,8)	InChI=1S/C6H8N2O/c1-2-4-3-5(9)6(7)8-4/h1,4-5,9H,3H2,(H2,7,8)/t4-,5-/m1/s1
