18
gdb 105912	2.30973	1.85782	1.25773	1.7662	71.54	-0.226	0.0567	0.2827	1028.2697	0.147045	-438.967023	-438.958804	-438.95786	-438.999842	31.233	
C	-0.6394934886	 0.8225427205	 0.0117494762	-0.269647
O	 0.7419856355	 0.5675875918	 0.2308220265	-0.287121
C	 0.9924452187	-0.2733051666	 1.2758866888	 0.424911
C	 0.7038278588	-0.1006433245	 2.7867754161	 0.053829
O	-0.6226102013	-0.0696107261	 3.2597520566	-0.443036
C	 1.4662250007	-1.4381418391	 2.7135199169	-0.128196
C	 0.8125657577	-1.852955043	 1.3461027222	-0.129451
N	 2.1044905007	-2.0712167332	 0.6207042441	-0.342453
C	 2.3773666412	-0.9219966083	 1.5474419056	-0.090172
H	-1.1147572879	 1.2538803411	 0.9003181298	 0.134401
H	-0.7016408777	 1.5307326644	-0.8164969053	 0.132023
H	-1.1724835025	-0.0977749382	-0.2664857384	 0.109537
H	 1.2228240775	 0.7270032842	 3.2786199991	 0.092842
H	-1.092336621	-0.8319855942	 2.9042905139	 0.283682
H	 1.7652802401	-2.1121977915	 3.5140914207	 0.0828
H	-0.0729102562	-2.4654454888	 1.1686116164	 0.080313
H	 2.5597578696	-2.91676169	 0.9764391908	 0.206518
H	 3.3396100547	-0.4150606884	 1.6197778398	 0.089221
80.2509	156.6878	172.1648	206.0802	277.4201	311.6304	343.4168	414.5661	551.1422	583.6315	635.9791	753.3517	805.7639	835.6517	883.3046	898.2372	920.7949	948.5967	1000.5026	1035.2498	1068.1644	1075.2729	1092.927	1103.2972	1124.0846	1165.1647	1172.5464	1183.4253	1222.1802	1241.3071	1254.0173	1284.2035	1293.4047	1300.5882	1369.1393	1450.5169	1488.6952	1492.5553	1509.2069	3000.3858	3069.6091	3079.8142	3097.9374	3118.1471	3132.0411	3143.1865	3393.617	3805.5536
COC12C(O)C3C1NC23	CO[C@@]12[C@@H](O)[C@H]3[C@@H]1N[C@@H]23	
InChI=1S/C6H9NO2/c1-9-6-3-2(5(6)8)4(6)7-3/h2-5,7-8H,1H3	InChI=1S/C6H9NO2/c1-9-6-3-2(5(6)8)4(6)7-3/h2-5,7-8H,1H3/t2-,3-,4+,5-,6-/m0/s1
