19
gdb 40546	3.69499	1.19934	1.03084	1.7606	82.42	-0.2224	0.0098	0.2322	1204.907	0.160226	-385.866137	-385.858454	-385.85751	-385.898619	30.26	
C	-0.1662023313	 1.4425618257	-0.1921052428	-0.276019
C	 1.2378441211	 1.0357646691	 0.1445209307	-0.270184
C	 0.150301701	-0.0212638639	 0.0638562754	-0.102448
C	-0.3248229129	-0.7109898644	 1.2757739037	 0.383046
C	-0.665621478	-2.0031340676	 1.3889521241	-0.211578
C	-1.1104609637	-2.3795173983	 2.7868320556	-0.286657
C	-0.9144191613	-1.0841822183	 3.5644825372	 0.046991
O	 0.4368075557	-0.6212548944	 3.6133895663	-0.261598
C	-0.4511031962	-0.0543017791	 2.6212840324	-0.091156
H	-0.739389557	 1.9794316579	 0.5557056412	 0.116137
H	-0.394039003	 1.7309298852	-1.2121716168	 0.116067
H	 1.9854664938	 1.0477315025	-0.6406543069	 0.116837
H	 1.6216018507	 1.2819465045	 1.1284698258	 0.129403
H	 0.1737881072	-0.6517196821	-0.8198312318	 0.082795
H	-0.5953357332	-2.730601831	 0.5872889899	 0.09073
H	-2.16080806	-2.6990852511	 2.8155611898	 0.108899
H	-0.5174726497	-3.1993810567	 3.2108219724	 0.12266
H	-1.5146429869	-0.8616540056	 4.4427589111	 0.093237
H	-0.6499003764	 1.0067179875	 2.7413718628	 0.092839
72.7171	130.1544	174.2036	305.3931	332.8358	386.5846	421.9171	556.913	664.3147	739.0386	784.5239	807.327	820.8777	825.7961	859.5427	866.8635	915.1958	918.7353	932.5761	956.972	1015.3685	1032.8088	1045.2799	1059.5696	1077.0489	1103.6314	1132.7849	1182.7044	1193.2388	1199.1237	1232.8647	1256.7982	1280.7534	1309.2978	1368.3252	1396.8257	1414.4187	1462.8161	1470.3645	1501.5609	1690.7325	3019.8233	3055.3876	3134.479	3138.3416	3144.7666	3151.3249	3158.7583	3187.4709	3213.2092	3228.7732
C1CC1C1=CCC2OC12	C1CC1C1=CC[C@H]2O[C@@H]12	
InChI=1S/C8H10O/c1-2-5(1)6-3-4-7-8(6)9-7/h3,5,7-8H,1-2,4H2	InChI=1S/C8H10O/c1-2-5(1)6-3-4-7-8(6)9-7/h3,5,7-8H,1-2,4H2/t7-,8+/m1/s1
