19
gdb 79389	2.40989	1.54624	1.45383	2.295	75.38	-0.2471	0.0679	0.315	1029.8095	0.157879	-422.954604	-422.94606	-422.945116	-422.987028	33.649	
C	 0.0104318145	 1.4581395453	-0.0121369656	-0.530017
C	 0.0284348724	-0.0435412359	-0.0635788584	 0.264784
C	 0.5345716452	-0.9718888986	-1.1951366316	 0.099005
O	 1.8874310941	-0.9364522579	-1.5782456677	-0.453467
C	 0.0521818502	-1.9639209566	-0.1201088528	-0.174525
C	 0.529326412	-1.044254183	 1.0563046596	-0.119478
C	-0.8462070138	-1.0704985023	 1.7566329088	-0.336807
C	-1.1547632215	-1.0176493258	 0.247137957	 0.370507
O	-2.3720526928	-0.9157574922	-0.3997015601	-0.477051
H	 1.0142641819	 1.8635811899	-0.17830134	 0.122714
H	-0.6465264921	 1.863155886	-0.7892123173	 0.131856
H	-0.3475438103	 1.8260745123	 0.9556110905	 0.119542
H	-0.0436735237	-0.9488695943	-2.12273301	 0.090962
H	 2.428971668	-0.9943039798	-0.7836469385	 0.279052
H	 0.0465732214	-3.0553921713	-0.1177124278	 0.066631
H	 1.511386324	-1.0544655871	 1.5256388254	 0.074956
H	-1.1057516748	-1.9933336982	 2.2866400567	 0.088093
H	-1.119555742	-0.1931405164	 2.3511717966	 0.09827
H	-2.8875139528	-1.7080066739	-0.213312845	 0.284972
169.4729	184.4399	188.0021	223.0434	260.0413	281.5334	332.0754	354.7638	399.5109	539.8705	562.7857	643.9998	662.7028	717.7023	804.5114	865.1911	873.6803	884.7908	935.1245	945.5593	994.6258	1005.1242	1056.7994	1076.5764	1107.1935	1120.1205	1145.3535	1160.0888	1194.8918	1201.7264	1239.3704	1272.7368	1274.1001	1288.8224	1319.957	1387.5293	1409.84	1449.2456	1484.4918	1492.7136	1514.2476	3028.676	3036.3397	3082.8442	3093.7976	3096.504	3098.1473	3100.2697	3129.432	3805.1365	3805.3868
CC12C(O)C3C1CC23O	C[C@@]12[C@@H](O)[C@H]3[C@@H]1C[C@@]23O	
InChI=1S/C7H10O2/c1-6-3-2-7(6,9)4(3)5(6)8/h3-5,8-9H,2H2,1H3	InChI=1S/C7H10O2/c1-6-3-2-7(6,9)4(3)5(6)8/h3-5,8-9H,2H2,1H3/t3-,4+,5-,6-,7-/m0/s1
