18
gdb 36244	4.21253	1.1036	1.04099	4.2698	78.71	-0.2624	0.0379	0.3003	1174.8476	0.149446	-364.776579	-364.769195	-364.768251	-364.809064	28.912	
N	 0.0225295758	-1.1348091547	 0.1511037346	-0.31167
C	-0.0178961856	 0.0129206663	 0.0201959507	 0.259887
C	-0.0316004433	 1.465811775	-0.1376176766	-0.377595
C	 1.3758614576	 2.0772572873	-0.0234119809	 0.028778
C	 1.5443168332	 3.5921765363	 0.0355582379	-0.09923
C	 1.4765741313	 4.0194753618	 1.5137284499	-0.061485
C	 1.2571587141	 2.7654614966	 2.3562558265	-0.238224
C	 2.1624275656	 2.0417101863	 1.3223388992	-0.072607
C	 2.75179201	 3.4605739681	 0.9317322743	-0.082289
H	-0.4583384197	 1.7064928652	-1.1186483297	 0.148802
H	-0.7068076476	 1.8947902701	 0.6090883026	 0.151908
H	 2.0101238649	 1.6670254571	-0.8152841413	 0.093351
H	 1.3867459789	 4.3103099461	-0.7593630598	 0.08883
H	 1.2674393313	 5.0488984961	 1.7749532248	 0.089585
H	 1.766035311	 2.8522590723	 3.3198617845	 0.107935
H	 0.241896066	 2.3879063342	 2.5238153086	 0.090917
H	 2.7296873527	 1.1563889172	 1.5986308251	 0.086559
H	 3.7538116539	 3.8542215786	 0.8511172393	 0.096548
50.4671	115.188	228.4787	294.9223	394.4232	453.5011	487.9255	575.6262	707.3252	739.5481	780.2964	790.7027	805.0732	856.882	903.0164	933.1421	950.4346	987.1135	994.6014	1011.7593	1027.624	1031.8969	1045.6185	1072.2044	1099.2629	1133.2774	1159.427	1170.1013	1198.7337	1235.0444	1246.8054	1270.4995	1314.3982	1328.1761	1368.2313	1393.9988	1463.6171	1512.9766	2358.8953	3035.1584	3046.7238	3061.5532	3093.673	3098.5739	3149.2355	3191.1228	3200.0156	3231.8136
N#CCC1C2C3CC1C23	N#CC[C@H]1[C@H]2[C@H]3C[C@@H]1[C@@H]23	
InChI=1S/C8H9N/c9-2-1-4-5-3-6-7(4)8(5)6/h4-8H,1,3H2	InChI=1S/C8H9N/c9-2-1-4-5-3-6-7(4)8(5)6/h4-8H,1,3H2/t4-,5+,6-,7+,8-/m1/s1
