16
gdb 44339	4.53722	1.46162	1.4049	2.7489	74.62	-0.238	-0.0205	0.2175	934.1148	0.127338	-400.729063	-400.723011	-400.722067	-400.759233	25.652	
N	-0.0689418873	 1.2252802078	-0.0321379071	-0.56033
C	-0.0620708905	-0.0327961488	-0.0082363024	 0.432484
O	 1.0555617398	-0.8521889752	-0.0316958424	-0.262465
C	 0.4588755085	-2.1538163309	 0.0142040308	 0.106442
C	-0.7624467312	-2.1234585309	-0.9763084918	-0.091937
C	-1.5568573978	-3.3500076593	-0.5608312796	-0.108396
C	-1.5100021416	-3.3244047875	 0.7743889504	-0.108397
C	-0.6901288109	-2.0838831824	 1.0859112495	-0.091936
C	-1.2065893108	-1.0012896392	 0.0504869523	-0.127528
H	 0.8861770761	 1.5882319505	-0.0725917575	 0.225626
H	 1.2189159613	-2.9337584338	 0.002521419	 0.098046
H	-0.6197076604	-1.8906885892	-2.0309453143	 0.082179
H	-2.0057532918	-4.0714365653	-1.2278603366	 0.112769
H	-1.9100894567	-4.0191577937	 1.4983664263	 0.112769
H	-0.4742036858	-1.8110610641	 2.1182676393	 0.082179
H	-2.2163685309	-0.599425838	 0.0781835443	 0.098494
164.0121	297.6153	395.2026	444.8362	516.3682	569.2883	652.1566	681.3989	706.6984	737.7461	849.3907	859.8649	905.3465	912.3599	922.6959	926.8237	940.1243	954.9116	961.6198	1006.5567	1022.2244	1056.0696	1078.1929	1143.3672	1180.3032	1192.4794	1196.4732	1201.9132	1243.1272	1245.8912	1300.2756	1327.0936	1356.421	1630.4562	1807.2567	3128.7529	3129.6652	3144.1944	3163.0332	3227.9474	3253.7906	3461.0943
N=C1OC2C3C=CC2C13	[NH][C]1O[C@@H]2[C@H]3C=C[C@@H]2[C@@H]13	
InChI=1S/C7H7NO/c8-7-5-3-1-2-4(5)6(3)9-7/h1-6,8H	InChI=1S/C7H7NO/c8-7-5-3-1-2-4(5)6(3)9-7/h1-6,8H/t3-,4+,5-,6+
