18
gdb 49564	2.18237	1.86024	1.27533	1.808	76.2	-0.2346	-0.0272	0.2074	1032.3945	0.146635	-401.889833	-401.881738	-401.880794	-401.923188	30.628	
O	-0.6212459156	 0.6433796102	 0.5523668987	-0.249187
C	 0.1017200056	 1.0840370029	-0.3056586354	 0.148388
C	 1.280735874	 1.9939613251	-0.0762021431	-0.207224
C	 1.2475119263	 3.3428472954	-0.8131878087	-0.060361
C	 0.2182999909	 4.2370780771	-0.2414702431	-0.240637
N	 1.5098998529	 4.1163133867	 0.4647267854	-0.155474
C	 1.4349140732	 2.8244977129	 1.203587504	 0.380508
C	 0.8106396298	 2.6828246398	 2.5543163731	-0.323546
C	 2.3123789927	 2.5539974032	 2.3778809176	-0.34818
H	-0.0709247302	 0.838452354	-1.3803960899	 0.078239
H	 2.193426037	 1.4352567162	-0.3186931583	 0.112174
H	 1.7816647447	 3.5658926326	-1.7301935265	 0.104306
H	 0.0828193812	 5.2043309826	-0.7149396166	 0.125052
H	-0.6723381361	 3.8213761078	 0.2238289914	 0.131837
H	 0.4383454062	 3.5890443685	 3.0209226517	 0.119472
H	 0.2282974743	 1.79092672	 2.746617349	 0.143359
H	 2.7626525236	 1.570704874	 2.4700261721	 0.11502
H	 2.9326584195	 3.3754424809	 2.7194417587	 0.126256
35.3511	143.0093	168.6789	223.5139	258.9924	321.2951	441.2117	507.7937	550.7658	690.2537	714.7511	757.6115	774.2887	794.3314	881.3284	907.0555	935.6424	967.6211	986.3923	1001.6276	1050.3398	1057.2908	1068.2508	1076.2582	1092.7875	1117.6037	1156.9877	1179.8508	1189.5328	1217.5962	1251.6582	1305.9704	1351.7756	1384.8862	1426.1406	1453.6981	1492.3869	1503.342	1821.6629	2851.5039	3037.6716	3111.6726	3128.8152	3141.378	3171.1271	3206.1513	3216.7521	3240.5443
O=CC1C2CN2C11CC1	O=C[C@H]1[C@H]2CN2C21CC2	
InChI=1S/C7H9NO/c9-4-5-6-3-8(6)7(5)1-2-7/h4-6H,1-3H2	InChI=1S/C7H9NO/c9-4-5-6-3-8(6)7(5)1-2-7/h4-6H,1-3H2/t5-,6+,8?/m0/s1
