18
gdb 53229	3.51563	0.83213	0.75205	3.4516	84.75	-0.2331	0.0316	0.2646	1585.6581	0.145918	-401.949273	-401.939138	-401.938194	-401.986653	34.028	
C	 0.0179492661	 1.5679377539	-0.1136731228	-0.497534
C	 0.0457362365	 0.1155858897	-0.0245218394	 0.054049
C	 0.0671875636	-1.0868015452	 0.0406801055	 0.101615
C	 0.0670053242	-2.5293565319	 0.1235441137	-0.331403
C	 0.1725928009	-3.1855531291	 1.5435110792	-0.182834
N	-1.1215854213	-3.8139767874	 1.2856502991	-0.067886
C	-1.9386751748	-4.7007175135	 2.0712229497	-0.343814
C	-1.3234082005	-3.2559482496	 0.0516205934	 0.406204
O	-2.223906872	-3.3339322203	-0.7387251925	-0.367603
H	 0.755171543	 1.9369217342	-0.8351955782	 0.149382
H	-0.9670996329	 1.9259617539	-0.4326822759	 0.153548
H	 0.2411862407	 2.0303896716	 0.8542105865	 0.147116
H	 0.7698101358	-2.9725919655	-0.5892772274	 0.125464
H	 0.999249239	-3.893441038	 1.6704235711	 0.110825
H	 0.1656817233	-2.4685324735	 2.3703574256	 0.119927
H	-2.2311675672	-4.2409028854	 3.0231840995	 0.130442
H	-2.8400927006	-4.9182723546	 1.4934432736	 0.163763
H	-1.4191165638	-5.6426934494	 2.2855711893	 0.12874
15.6324	62.273	83.4927	131.4496	154.4616	182.6479	246.7218	255.6264	313.0281	411.3883	451.7731	535.7503	596.0952	754.1981	776.1869	811.7276	932.5764	981.7604	1023.1921	1051.6005	1053.4216	1068.1124	1125.3665	1161.0464	1176.0089	1194.4287	1252.6865	1288.6263	1346.5811	1414.0446	1418.6867	1448.1455	1477.0078	1478.4044	1482.5807	1510.6137	1533.0844	1886.9457	2371.3035	3014.3	3026.6963	3033.1314	3059.7513	3065.6502	3086.2329	3087.4259	3088.6209	3130.0914
CC#CC1CN(C)C1=O	CC#C[C@H]1CN(C)C1=O	
InChI=1S/C7H9NO/c1-3-4-6-5-8(2)7(6)9/h6H,5H2,1-2H3	InChI=1S/C7H9NO/c1-3-4-6-5-8(2)7(6)9/h6H,5H2,1-2H3/t6-/m0/s1
