15
gdb 128026	5.04559	0.95307	0.80563	3.863	74.88	-0.2402	-0.0223	0.2179	1369.4205	0.113391	-450.124825	-450.116662	-450.115717	-450.158468	28.649	
C	-0.1663250489	 1.6066966639	-0.0797813741	-0.313902
N	 0.0695187704	 0.1794707391	-0.0649738613	-0.176667
C	-0.9152260636	-0.575303758	 0.1518211654	 0.089777
N	-0.8379349399	-1.9644502146	 0.194963546	-0.430797
C	 0.2411573249	-2.7805639401	 0.026734701	 0.571098
N	 0.1852039346	-4.0878329544	 0.0913948626	-0.373956
C	 1.4933185331	-4.4118578949	-0.1401525478	 0.052696
N	 2.3087335223	-3.4132006817	-0.3342693647	-0.126479
O	 1.4506383439	-2.2868964547	-0.2203031107	-0.182418
H	 0.4617159417	 2.0877920736	 0.6782427126	 0.136255
H	 0.1366409469	 2.0162509052	-1.0498354858	 0.136242
H	-1.2160215242	 1.8877138547	 0.1059779364	 0.097503
H	-1.9435780115	-0.2318880434	 0.3309748719	 0.094763
H	-1.6894291854	-2.4722665347	 0.3758725751	 0.280011
H	 1.8530495957	-5.4307051301	-0.1655966165	 0.145873
54.7094	120.066	120.1898	204.5177	270.0603	302.1067	371.916	376.2082	538.1585	639.8933	681.8551	768.764	786.7174	886.8175	935.5982	971.4667	979.1636	1009.7334	1044.2186	1140.7262	1148.2931	1180.906	1208.9124	1283.9226	1384.1145	1413.9755	1446.4443	1477.9043	1480.348	1502.9467	1566.7501	1654.475	1777.4532	2968.4035	3022.0062	3064.0873	3083.9454	3256.1614	3649.0854
CN=CNC1=NC=NO1	CN=CNc1ncno1	
InChI=1S/C4H6N4O/c1-5-2-6-4-7-3-8-9-4/h2-3H,1H3,(H,5,6,7,8)	InChI=1S/C4H6N4O/c1-5-2-6-4-7-3-8-9-4/h2-3H,1H3,(H,5,6,7,8)
