18
gdb 85017	2.32696	1.71259	1.07111	3.012	75.72	-0.2389	0.0036	0.2425	1130.3232	0.148706	-435.336225	-435.327166	-435.326222	-435.370035	33.021	
C	 0.0255781608	 1.5569693674	-0.0444660798	-0.403249
C	-0.018339593	 0.0277735824	 0.0192761154	-0.091993
N	 0.6633260207	-0.6522641803	-1.077472516	-0.3702
C	 1.8125367181	-1.2996095281	-0.6382456986	 0.428942
N	 2.7538084369	-1.8751260209	-1.2710754944	-0.577628
N	 1.7823742768	-1.2563319417	 0.7604092003	-0.115286
C	 2.7636794687	-1.9203702646	 1.5943988742	-0.337376
C	 0.738769559	-0.5013937809	 1.243420947	 0.41788
O	 0.4790985038	-0.2836049437	 2.4041430814	-0.384124
H	 1.0570276543	 1.9161840096	-0.1152301444	 0.129258
H	-0.5330621512	 1.9260352187	-0.9102455625	 0.12052
H	-0.4255726183	 1.9708132249	 0.8609217843	 0.152755
H	-1.0617339867	-0.3025664375	 0.0954435062	 0.118394
H	 0.6973396107	-0.2154071056	-1.9850703758	 0.245814
H	 2.6057086541	-1.8261051978	-2.2771824011	 0.211974
H	 3.7636447491	-1.5279597728	 1.3931975747	 0.148026
H	 2.4853148981	-1.7323257952	 2.6319313608	 0.157854
H	 2.7691086083	-2.9939037739	 1.3906314183	 0.148437
95.5961	98.4697	141.2464	186.8867	234.5246	259.7403	284.7222	378.1508	384.094	441.2204	583.6908	606.8345	677.2949	710.9241	727.3954	762.8641	793.422	926.8682	958.739	1039.1889	1089.3023	1100.8148	1130.0917	1161.5025	1165.3067	1226.3444	1291.1081	1343.1468	1369.9592	1399.9621	1412.7908	1431.1106	1483.7468	1487.7642	1494.8289	1496.3227	1516.1938	1752.4487	1839.0392	3029.6517	3039.7855	3056.1541	3111.9958	3121.5599	3130.1178	3160.3811	3508.4662	3632.6108
CC1NC(=N)N(C)C1=O	C[C@H]1N[C]([NH])N(C)C1=O	
InChI=1S/C5H9N3O/c1-3-4(9)8(2)5(6)7-3/h3H,1-2H3,(H2,6,7)	InChI=1S/C5H9N3O/c1-3-4(9)8(2)5(6)7-3/h3H,1-2H3,(H2,6,7)/t3-/m1/s1
