20
gdb 88701	2.19168	1.46087	1.1276	0.5759	86.54	-0.2079	0.0424	0.2503	1182.2132	0.169138	-365.927411	-365.918126	-365.917181	-365.96128	35.547	
C	 1.5405679205	 0.6380286987	-0.3041670938	-0.42126
C	 0.1380847168	 0.1964624241	 0.0505199764	 0.029213
C	-0.1159252416	-1.1198378287	 0.7118975098	-0.273992
N	-0.353707474	 0.1292155239	 1.4266039247	-0.102385
C	 0.4067462938	 0.5698904888	 2.5513487058	 0.049514
C	 0.3712787224	-0.1742484341	 3.8439827083	-0.309947
C	 1.7232746959	 0.0225805161	 3.1623450622	-0.219266
C	 2.4873108456	-1.0914102734	 2.6893745177	 0.319908
C	 3.1898855797	-2.001367452	 2.3283900341	-0.447977
H	 2.2940840726	 0.1650108983	 0.3282664452	 0.143279
H	 1.7577456858	 0.3711079347	-1.3441999137	 0.119108
H	 1.6459480527	 1.7255296221	-0.2172783842	 0.115724
H	-0.6249221253	 0.5629252314	-0.6361129875	 0.087866
H	-1.0101780122	-1.6941710199	 0.4797623022	 0.108702
H	 0.7541663305	-1.7120262087	 0.9752377887	 0.137019
H	 0.3538572935	 1.652485231	 2.6366866163	 0.104888
H	 0.1759104271	 0.3536966724	 4.7707591863	 0.119936
H	-0.0271405476	-1.1822826196	 3.8039426471	 0.132119
H	 2.342002971	 0.8098822815	 3.5868748666	 0.112783
H	 3.7947931828	-2.8103489167	 2.0015066181	 0.194768
64.0439	134.2329	162.3125	201.5649	210.8519	242.2427	315.8012	381.2757	425.4751	501.0061	541.7291	570.5565	641.727	651.8723	682.3741	738.3667	788.3772	817.2766	880.5782	907.7988	945.875	1003.5775	1025.2291	1053.7628	1072.673	1120.2839	1123.2484	1125.8472	1151.0728	1167.1024	1168.4639	1198.4179	1234.356	1364.7656	1376.1294	1404.1684	1409.5204	1426.3674	1483.975	1496.1646	1500.5477	1511.4096	2221.6456	3033.5295	3088.8701	3099.0566	3105.7937	3125.5442	3134.8789	3138.1226	3139.4069	3205.5365	3225.5376	3502.8507
CC1CN1C1CC1C#C	C[C@H]1CN1[C@H]1C[C@H]1C#C	
InChI=1S/C8H11N/c1-3-7-4-8(7)9-5-6(9)2/h1,6-8H,4-5H2,2H3	InChI=1S/C8H11N/c1-3-7-4-8(7)9-5-6(9)2/h1,6-8H,4-5H2,2H3/t6-,7+,8-,9?/m0/s1
