20
gdb 82754	2.19511	2.17642	1.52557	0.9317	77.5	-0.2244	0.0756	0.3	967.2965	0.17194	-403.097535	-403.089851	-403.088907	-403.129088	31.452	
C	-0.0751462254	 1.5297764914	-0.0682607458	-0.426798
C	 0.0769049454	 0.015106475	 0.0101547234	 0.031215
C	 1.065814868	-0.6256505719	-0.9868211188	-0.098374
N	 2.3404837299	 0.0916544003	-0.616781004	-0.329632
C	 2.276499545	-0.7585667569	 0.6006944677	-0.108701
C	 1.4919083024	-1.8828218587	-0.0779024129	 0.09268
O	 0.5709272763	-2.0225380275	 1.0019890418	-0.329767
C	 0.8225046049	-0.5900999688	 1.2349319302	 0.415871
C	 0.5493610548	-0.1294967861	 2.6356027503	-0.515654
H	 0.8952194268	 2.027592159	-0.0321846213	 0.140256
H	-0.5682456174	 1.8185994429	-1.0029101463	 0.110782
H	-0.6947152203	 1.8997612874	 0.7555827609	 0.108677
H	-0.900380052	-0.4742195302	-0.0423418973	 0.078233
H	 0.8038998415	-0.6849247555	-2.0424343326	 0.068389
H	 3.0946672712	-0.2747992859	-1.1978494353	 0.216054
H	 3.1411767361	-0.8590184245	 1.255868262	 0.076416
H	 1.8682850837	-2.8072250366	-0.5164265411	 0.082109
H	 1.1343861515	-0.7074859974	 3.3565316893	 0.126733
H	 0.8090137285	 0.9279221265	 2.7447663761	 0.131117
H	-0.5113527509	-0.2491167926	 2.8806938536	 0.130393
180.7677	204.5688	212.4673	224.1077	299.8777	338.7869	502.8661	517.242	543.9369	626.0714	688.4075	725.0279	779.7945	826.5684	835.546	842.6269	858.8218	912.8808	953.6348	998.6531	1015.043	1021.7507	1035.4937	1063.8382	1095.5798	1131.8157	1134.4432	1159.8852	1174.5975	1182.5805	1242.5588	1266.8037	1289.5218	1302.8479	1330.056	1364.4384	1374.7465	1403.5867	1415.0036	1477.1071	1492.78	1493.5984	1509.616	3035.5364	3038.1705	3064.7252	3091.6093	3107.5155	3114.7394	3116.5679	3126.26	3132.8869	3139.2665	3455.4336
CC1C2NC3C2OC13C	C[C@H]1[C@H]2N[C@@H]3[C@H]2O[C@]13C	
InChI=1S/C7H11NO/c1-3-4-5-6(8-4)7(3,2)9-5/h3-6,8H,1-2H3	InChI=1S/C7H11NO/c1-3-4-5-6(8-4)7(3,2)9-5/h3-6,8H,1-2H3/t3-,4+,5-,6+,7+/m0/s1
