17
gdb 18146	4.93314	1.27723	1.22784	2.4009	69.24	-0.2421	-0.0275	0.2146	1027.1538	0.141722	-363.821011	-363.813352	-363.812408	-363.85325	28.218	
C	-0.0698017449	 1.558275543	 0.0283972819	-0.427257
C	 0.0839577077	 0.0567473868	-0.0316959944	 0.021547
C	 0.570054592	-0.7302087238	-1.1850030088	-0.065411
C	 1.6692583517	-0.0125205149	-1.9785105913	-0.105023
C	 2.4148268845	 0.0964554387	-0.6109005854	-0.191467
N	 1.3581575596	-0.6768806605	 0.1243579037	-0.14586
C	 2.3917917857	-0.9162039187	-2.9418882232	 0.157863
O	 2.6409878717	-0.6415783293	-4.0872208068	-0.257548
H	 0.6043226198	 2.0928568504	-0.6436743503	 0.128215
H	-1.0931008851	 1.832070442	-0.2477720944	 0.130416
H	 0.1075582211	 1.9214799187	 1.046503404	 0.131857
H	-0.6843012314	-0.4671943487	 0.5351124257	 0.103761
H	 0.0755116266	-1.638851229	-1.516700069	 0.10218
H	 1.3918441937	 0.90896998	-2.4957759076	 0.09512
H	 3.3525384119	-0.4635796493	-0.5861993655	 0.122145
H	 2.5992321339	 1.1057506654	-0.2337890243	 0.11658
H	 2.7002970814	-1.8940361709	-2.5023749342	 0.082883
84.5848	110.8627	174.6536	263.0345	285.6485	355.1661	440.7745	459.4881	568.4384	709.5064	783.0867	794.046	850.7444	912.231	942.8995	953.2237	1008.8175	1037.4911	1071.2741	1088.8555	1116.4548	1131.4545	1161.664	1201.1136	1232.3519	1260.8418	1279.5479	1293.6165	1360.6568	1416.2232	1430.1161	1440.7265	1487.7014	1502.9366	1510.7152	1831.4112	2857.8208	3041.2323	3061.6485	3082.8519	3100.7948	3111.8133	3115.8403	3133.2727	3150.9552
CC1C2C(CN12)C=O	C[C@H]1[C@H]2[C@@H](CN12)C=O	
InChI=1S/C6H9NO/c1-4-6-5(3-8)2-7(4)6/h3-6H,2H2,1H3	InChI=1S/C6H9NO/c1-4-6-5(3-8)2-7(4)6/h3-6H,2H2,1H3/t4-,5-,6-,7?/m0/s1
