14
gdb 45461	2.8473	1.69129	1.21166	6.1174	63.	-0.2385	-0.078	0.1605	973.8311	0.102256	-473.840026	-473.832922	-473.831977	-473.872067	26.372	
O	-0.0319721589	-0.0532237744	-0.2659672634	-0.341185
C	-0.0413018197	 1.140017554	-0.0928602605	 0.308301
N	-1.1368662925	 1.9639703975	-0.0236291708	-0.313335
C	-0.8905007008	 3.3598346378	 0.26690333	-0.06784
C	-0.886212841	 3.7543066525	 1.7620355856	-0.080678
O	 0.5554803449	 3.6538172994	 1.8175511236	-0.277959
C	 0.647163367	 3.4625944897	 0.3836705061	 0.00177
C	 1.1857019763	 2.0714169688	 0.0642588477	 0.321124
O	 2.3296482926	 1.7315412405	-0.0360202605	-0.270975
H	-2.0661371805	 1.5725916357	-0.0645027074	 0.263798
H	-1.4168013108	 4.0244213161	-0.4199558602	 0.109357
H	-1.2224383421	 4.7796253623	 1.9577770761	 0.115871
H	-1.380895062	 3.0591560227	 2.4476759907	 0.121209
H	 1.1727940273	 4.2742784274	-0.1253650669	 0.110543
78.7088	128.2477	215.0789	317.5909	385.8555	430.8606	509.7872	574.1447	629.9769	654.4915	722.9501	817.4995	853.496	888.9796	903.9373	988.5824	1016.487	1054.2234	1106.2113	1118.4148	1165.847	1230.4857	1244.3197	1273.8715	1287.1395	1344.262	1366.5258	1430.5649	1511.8725	1844.8562	1870.4645	3027.1429	3083.1689	3088.0563	3100.0903	3621.2016
O=C1NC2COC2C1=O	O=C1N[C@H]2CO[C@H]2C1=O	
InChI=1S/C5H5NO3/c7-3-4-2(1-9-4)6-5(3)8/h2,4H,1H2,(H,6,8)	InChI=1S/C5H5NO3/c7-3-4-2(1-9-4)6-5(3)8/h2,4H,1H2,(H,6,8)/t2-,4+/m0/s1
