19
gdb 83954	2.29537	1.72253	1.442	1.6828	70.14	-0.2378	0.0617	0.2995	1007.6905	0.159779	-460.129043	-460.120854	-460.11991	-460.161314	31.834	
C	-0.108610415	 1.5678372798	-0.0020505438	-0.425173
C	 0.0617677801	 0.0615875092	 0.0177741063	 0.011409
C	 1.1851512111	-0.6182648493	-0.8249709965	 0.048562
O	 2.3860945324	 0.1489447205	-0.7195539646	-0.279975
C	 2.9082964847	 0.1584085315	 0.5962470832	 0.02375
O	 1.9145035037	 0.1249461252	 1.6013985365	-0.281617
C	 0.771085196	-0.640210966	 1.2182624256	 0.086519
C	 1.1841584473	-1.7684355848	 0.2330483503	 0.068016
O	 0.1178627554	-2.6816373433	 0.0906241646	-0.440311
H	 0.8358386146	 2.0811893516	 0.1872857202	 0.130115
H	-0.4865574442	 1.9028790901	-0.974013545	 0.112724
H	-0.8261109904	 1.8868305588	 0.7615193637	 0.114737
H	-0.8814081181	-0.4535232157	-0.1761039004	 0.092822
H	 1.0355302793	-0.8439764396	-1.8838581819	 0.071649
H	 3.5952517046	-0.6924063217	 0.7268141341	 0.096715
H	 3.4657270781	 1.0915226707	 0.7188021595	 0.119637
H	 0.2223412036	-0.8948406833	 2.1261392835	 0.086018
H	 2.1317182462	-2.286081631	 0.4205082663	 0.07617
H	 0.2953909208	-3.2309095324	-0.6800578114	 0.288233
138.8511	189.7826	225.0211	244.4051	277.8719	290.7773	298.8721	371.7746	483.3121	521.5056	585.3968	645.5699	763.6184	835.4391	899.9773	922.1769	931.6074	946.3111	1018.117	1025.5537	1049.8162	1075.0279	1108.6836	1146.5768	1156.1894	1169.0554	1195.4799	1200.9397	1243.4115	1261.9323	1273.5269	1313.3667	1337.3054	1348.5671	1374.7632	1410.8296	1431.856	1443.0837	1492.0806	1493.2591	1544.133	2967.8291	3037.5083	3040.6338	3079.1015	3082.1336	3093.8493	3095.2871	3108.0197	3133.9024	3810.6289
CC1C2OCOC1C2O	C[C@H]1[C@H]2OCO[C@@H]1[C@H]2O	
InChI=1S/C6H10O3/c1-3-5-4(7)6(3)9-2-8-5/h3-7H,2H2,1H3	InChI=1S/C6H10O3/c1-3-5-4(7)6(3)9-2-8-5/h3-7H,2H2,1H3/t3-,4-,5+,6-
