15
gdb 31876	4.93823	1.03069	0.85724	4.4479	71.48	-0.2453	-0.0521	0.1932	1263.4611	0.11361	-453.99209	-453.984205	-453.983261	-454.024996	29.162	
O	 0.4277137122	 0.7688141272	 0.8400910155	-0.428213
C	-0.0188844936	 0.122533209	-0.3215280029	-0.117275
C	-1.4281931427	-0.4139593277	-0.1870023986	 0.326701
N	-2.0374512622	-0.2059531361	 0.9813802331	-0.29952
C	-3.2779209281	-0.6678525239	 1.1256096576	-0.043526
C	-3.9234398805	-1.3463842883	 0.0947240973	 0.300982
O	-5.1869758538	-1.7984990455	 0.2878405903	-0.43101
C	-3.1974100795	-1.5108292169	-1.0870427848	-0.107913
N	-1.9595691699	-1.0509213397	-1.2334237836	-0.270196
H	-0.3062886421	 0.7120498758	 1.4700305573	 0.290682
H	 0.0054857988	 0.8077091883	-1.1831985713	 0.115263
H	 0.6439531355	-0.7180004484	-0.579672304	 0.115316
H	-3.7812555021	-0.5024703303	 2.0746319821	 0.132597
H	-5.4972537911	-2.2446367677	-0.5081722586	 0.30658
H	-3.6377048709	-2.0323538556	-1.9382040694	 0.10953
53.1797	125.247	211.4009	334.0738	349.8955	369.4538	374.5234	432.7828	441.5141	525.7008	587.7743	654.7881	764.7023	775.1634	876.9239	934.9802	969.9424	1041.7189	1047.3812	1117.3894	1188.7074	1242.2217	1258.902	1277.2605	1306.861	1324.0052	1336.2309	1450.0747	1456.0939	1495.2442	1513.8155	1606.2098	1640.4228	2984.8261	3000.1593	3117.1465	3169.6005	3703.4468	3809.1062
OCC1=NC=C(O)C=N1	OCc1ncc(O)cn1	
InChI=1S/C5H6N2O2/c8-3-5-6-1-4(9)2-7-5/h1-2,8-9H,3H2	InChI=1S/C5H6N2O2/c8-3-5-6-1-4(9)2-7-5/h1-2,8-9H,3H2
