18
gdb 41860	2.59422	2.16723	1.66171	2.2601	73.77	-0.2374	0.023	0.2604	875.5161	0.152309	-401.961333	-401.954989	-401.954045	-401.99189	26.481	
C	-0.0430936477	 1.5307817023	-0.1259400407	-0.246577
C	 1.4304160448	 1.9711354838	 0.0401083903	-0.206597
C	 2.0878127628	 0.8771435574	 0.9023129646	 0.087786
O	 1.9763001486	 1.2309718638	 2.3057617523	-0.238653
C	 0.8366034703	 0.902794773	 2.9475375406	 0.122602
N	-0.0876555437	 0.1136010732	 2.5860427396	-0.269192
C	 0.1120108774	-0.6135276438	 1.3716924457	 0.007957
C	-0.0036975869	 0.0067510395	-0.0063473254	-0.051121
C	 1.354415946	-0.40888961	 0.5402390651	-0.13141
H	-0.6815278266	 1.9715756319	 0.646982673	 0.121264
H	-0.4483833569	 1.8373558013	-1.0932017773	 0.101799
H	 1.9219028664	 1.9664110948	-0.9393105571	 0.104676
H	 1.5621281899	 2.9645007367	 0.4771228585	 0.107156
H	 3.163499683	 0.8024473678	 0.739447614	 0.095117
H	 0.7869744565	 1.4122746194	 3.9083424141	 0.121323
H	-0.2672466273	-1.6283875453	 1.4418594264	 0.097725
H	-0.4935557267	-0.5925628551	-0.7650875961	 0.087414
H	 1.9208895101	-1.2520026807	 0.1650419625	 0.08873
128.7459	223.0336	364.205	425.6798	485.0645	575.1752	606.3376	664.364	725.8126	759.7377	778.904	809.5258	857.0527	897.8945	924.4134	954.7325	966.4335	982.0387	998.2571	1021.7569	1039.0476	1057.6116	1111.2285	1117.4166	1146.5977	1199.2316	1216.2971	1221.4921	1289.8	1305.5492	1324.5411	1349.6721	1358.3457	1373.6242	1411.0384	1418.4048	1476.8471	1504.239	1710.966	3044.2718	3052.6181	3095.3344	3106.2867	3109.0684	3149.5866	3156.7115	3174.0904	3186.7632
C1CC2OC=NC3C1C23	C1C[C@H]2OC=N[C@H]3[C@@H]1[C@@H]23	
InChI=1S/C7H9NO/c1-2-5-6-4(1)7(6)8-3-9-5/h3-7H,1-2H2	InChI=1S/C7H9NO/c1-2-5-6-4(1)7(6)8-3-9-5/h3-7H,1-2H2/t4-,5+,6-,7-/m0/s1
