16
gdb 59293	2.65585	1.52074	1.22712	1.1	64.5	-0.2751	-0.0322	0.2429	1041.352	0.123931	-475.068106	-475.059833	-475.058889	-475.101262	30.429	
C	 0.1020950017	 1.131713491	 0.9772695545	-0.432563
C	-0.1058663238	 0.3773213083	-0.3337548717	 0.128355
O	 0.8590826648	-0.6459301626	-0.52528043	-0.435707
C	-1.5396838144	-0.2071804178	-0.4495497144	-0.142264
N	-1.8595806577	-0.6079963305	-1.82028259	-0.242615
C	-2.0955830774	-1.848443156	-1.7636785579	 0.117
O	-2.0314306967	-2.4801083575	-0.5404117179	-0.198374
C	-1.6733496091	-1.4917374736	 0.3668563855	 0.428493
O	-1.4870449774	-1.7191321895	 1.5231414088	-0.325983
H	 1.1320861288	 1.4939514387	 1.0315065645	 0.131739
H	-0.5708318725	 1.9919245115	 1.0484051069	 0.123456
H	-0.091104617	 0.4793314388	 1.8353355597	 0.146955
H	 0.0152036627	 1.053407181	-1.1857415155	 0.115785
H	 0.9821733817	-1.0975171828	 0.3180405014	 0.293621
H	-2.2632730845	 0.5396871658	-0.1037388836	 0.131242
H	-2.3604412091	-2.4982748749	-2.5883849104	 0.160859
73.1212	109.895	164.4568	238.8734	264.9383	337.3592	381.8295	421.6135	465.7325	528.1171	589.4851	676.937	733.3499	859.3551	868.8426	887.3258	926.8024	951.0985	1029.9336	1049.4048	1066.4689	1089.5192	1141.4569	1151.5456	1243.6893	1263.0614	1321.0909	1342.2054	1353.3944	1407.6831	1429.5294	1493.5054	1503.9287	1702.3442	1898.9255	3039.4548	3056.4558	3070.4991	3113.7616	3124.4956	3233.5388	3794.5312
CC(O)C1N=COC1=O	C[C@@H](O)[C@H]1N=COC1=O	
InChI=1S/C5H7NO3/c1-3(7)4-5(8)9-2-6-4/h2-4,7H,1H3	InChI=1S/C5H7NO3/c1-3(7)4-5(8)9-2-6-4/h2-4,7H,1H3/t3-,4-/m1/s1
