15
gdb 37718	3.81221	2.05849	1.59349	0.7703	67.37	-0.2359	-0.0014	0.2344	807.1702	0.115653	-416.702898	-416.697342	-416.696397	-416.732503	23.642	
C	-0.0708264971	 1.521066878	 0.0101940711	-0.254155
N	 1.4528386803	 1.2537499827	-0.0097766127	-0.179994
C	 1.2371824641	 0.0600419833	 0.9407870552	-0.073244
C	 1.87887425	-0.9708080753	 0.0190638825	 0.098222
O	 1.1721836011	-2.2401979682	 0.0506631646	-0.256604
C	-0.1848467953	-2.1827054048	 0.0713970589	 0.110548
N	-0.9055585608	-1.1288377539	 0.0659623467	-0.370324
C	-0.0312972386	-0.0025456044	 0.0339930075	 0.343819
C	 1.2076233476	 0.0303294075	-0.9142837214	-0.073242
H	-0.4061302042	 2.0479980783	 0.9086556171	 0.113024
H	-0.4348300006	 2.019111863	-0.89356057	 0.113027
H	 1.2733758576	 0.1667428344	 2.0239282917	 0.095041
H	 2.9431416797	-1.2024753963	 0.0058132573	 0.103053
H	-0.6115930739	-3.1817913908	 0.0941260104	 0.135788
H	 1.2092438302	 0.1022718464	-2.0008891088	 0.095041
280.3463	335.5308	411.7504	459.0351	556.1016	607.6018	625.2106	776.2976	790.1773	845.1921	863.1612	884.1875	895.3845	912.1348	924.1854	964.9145	964.9307	1033.3847	1045.4297	1090.3556	1104.1206	1113.6396	1150.3275	1186.3805	1221.2663	1223.1776	1249.6038	1282.2295	1322.1002	1356.207	1393.6795	1521.4198	1645.192	3047.5554	3111.4396	3121.6265	3129.5452	3138.5927	3182.5215
C1N2C3C4OC=NC13C24	C1N2[C@@H]3[C@H]4O[CH][N][C@@]13[C@@H]24	
InChI=1S/C6H6N2O/c1-6-4-3(9-2-7-6)5(6)8(1)4/h2-5H,1H2	InChI=1S/C6H6N2O/c1-6-4-3(9-2-7-6)5(6)8(1)4/h2-5H,1H2/t3-,4-,5+,6+
