16
gdb 45226	3.22392	1.82309	1.4498	5.1748	66.87	-0.2353	0.0024	0.2377	895.4762	0.127335	-437.882193	-437.875896	-437.874951	-437.912849	25.714	
O	 0.0391029486	 0.0100456481	-0.421834227	-0.337408
C	 0.049383148	 1.1600464158	-0.0985907492	 0.471866
O	-1.0842920215	 1.8329569237	 0.2635707203	-0.231588
C	-0.8184081831	 3.2106984179	 0.5513745411	 0.085238
C	-0.3897267788	 3.5066069586	 2.019537434	-0.227402
C	 1.0889554095	 3.5756620791	 1.5635646951	-0.01821
N	 1.6755748654	 2.2052578646	 1.4499941971	-0.323543
C	 1.2395408901	 2.1143850619	 0.0129560534	-0.163119
C	 0.6291993906	 3.5250009744	 0.0718068946	-0.083849
H	-1.6507467679	 3.7913653743	 0.155093451	 0.099513
H	-0.7662469597	 4.4806548306	 2.3453292937	 0.108185
H	-0.6368840993	 2.7441016227	 2.7598574973	 0.125203
H	 1.7379698565	 4.3360644558	 1.9981208645	 0.079195
H	 2.6868440645	 2.221397137	 1.5160530271	 0.230302
H	 2.0206210924	 1.8743083996	-0.7076119339	 0.101294
H	 0.8121556347	 4.2652227358	-0.7032210091	 0.084324
122.3338	232.4219	343.6836	405.0932	445.5068	617.317	656.8098	696.6553	706.487	745.6747	800.8909	816.63	865.3969	887.1568	916.8767	937.3465	963.1719	990.3946	1020.5212	1056.6349	1074.6096	1133.9411	1149.5577	1168.0649	1198.5042	1204.9251	1229.9508	1249.8815	1282.544	1293.5866	1344.4824	1373.0553	1390.6835	1456.2964	1889.0004	3062.96	3107.2664	3116.3425	3118.7739	3135.3934	3144.8475	3541.9711
O=C1OC2CC3NC1C23	O=C1O[C@H]2C[C@H]3N[C@@H]1[C@@H]23	
InChI=1S/C6H7NO2/c8-6-5-4-2(7-5)1-3(4)9-6/h2-5,7H,1H2	InChI=1S/C6H7NO2/c8-6-5-4-2(7-5)1-3(4)9-6/h2-5,7H,1H2/t2-,3+,4-,5-/m1/s1
