18
gdb 53421	2.88255	1.03395	1.00868	2.0412	80.33	-0.2384	0.0251	0.2635	1313.2546	0.148294	-401.936921	-401.92792	-401.926976	-401.972756	31.625	
C	 0.0402242166	 1.5399060415	-0.0720190418	-0.496958
C	 0.0564361857	 0.0846475614	-0.0299792	 0.029622
C	 0.0691927109	-1.1189624295	 0.0016265618	 0.116875
C	 0.0735818091	-2.5785542426	 0.0490895211	-0.224489
C	 0.713942813	-3.1049172851	 1.3441578667	-0.07143
O	-0.0920786667	-2.8041658373	 2.4870117049	-0.219591
C	-1.4319024346	-2.9011789973	 2.302541285	 0.139063
N	-2.0848430487	-3.0917551863	 1.2380942039	-0.263168
C	-1.3542258183	-3.1759670496	-0.0198822208	-0.155372
H	 0.6494264411	 1.9218030333	-0.8987218769	 0.147139
H	-0.9778085645	 1.9217147568	-0.2062422738	 0.150807
H	 0.4346916091	 1.9683892892	 0.8558995367	 0.149514
H	 0.6621188538	-2.9645142146	-0.7933909513	 0.105962
H	 0.8373578057	-4.193589296	 1.2770792579	 0.110304
H	 1.6867414132	-2.6482837586	 1.5330490888	 0.126594
H	-1.9421966678	-2.7812898058	 3.2563872531	 0.123849
H	-1.936883255	-2.6597958314	-0.7885198125	 0.121633
H	-1.2943597325	-4.2291143181	-0.3244710428	 0.109645
15.3284	73.893	93.3558	167.6977	211.6502	296.9931	313.8711	413.4614	452.4731	497.4618	586.4042	636.8106	727.6417	846.5877	884.6066	925.2738	955.0925	963.4428	1003.529	1052.1439	1053.9497	1066.489	1084.8402	1164.2772	1188.5564	1240.008	1257.668	1278.5511	1363.2716	1365.0262	1402.8866	1414.7247	1418.167	1478.0074	1478.7158	1480.9698	1505.4713	1740.1028	2371.4068	3014.2696	3018.6988	3026.9571	3032.226	3077.1929	3087.6247	3088.603	3117.5794	3159.7489
CC#CC1COC=NC1	CC#C[C@H]1COC=NC1	
InChI=1S/C7H9NO/c1-2-3-7-4-8-6-9-5-7/h6-7H,4-5H2,1H3	InChI=1S/C7H9NO/c1-2-3-7-4-8-6-9-5-7/h6-7H,4-5H2,1H3/t7-/m1/s1
