19
gdb 10403	2.52496	1.88405	1.36089	4.0521	75.25	-0.3014	0.0327	0.3341	996.6414	0.165706	-327.941982	-327.933517	-327.932572	-327.974792	31.329	
C	 0.106188039	 1.4252108831	-0.2468648149	-0.399566
C	-0.1096863886	-0.0735286786	-0.0257059189	-0.233715
C	-1.5854806228	-0.4870600493	 0.1476956752	 0.17447
C	-2.4129116109	-0.4514486193	-1.1875716986	-0.251675
C	-2.2179769394	-1.9839416426	-1.3264745969	-0.215057
C	-1.7770918554	-2.0445681069	 0.1594116865	-0.258765
C	-2.1897528207	 0.216044062	 1.2741072763	 0.244623
N	-2.6782638186	 0.7658904321	 2.1671749737	-0.358979
H	 1.1699433101	 1.6437893351	-0.3771631038	 0.120048
H	-0.4170286256	 1.7810312772	-1.1404302547	 0.120574
H	-0.2561873865	 2.0059211831	 0.6065173198	 0.145702
H	 0.2949470647	-0.6405092875	-0.8727500416	 0.103197
H	 0.4449148233	-0.4017000946	 0.8614723266	 0.114529
H	-3.4540573716	-0.1740029613	-1.0133337017	 0.124902
H	-2.0080694237	 0.1856004764	-1.9767129406	 0.111994
H	-3.1009206003	-2.5651137208	-1.5970155072	 0.111223
H	-1.4119159922	-2.2451394221	-2.0161176354	 0.111663
H	-0.8819550106	-2.6216920267	 0.4029793339	 0.110693
H	-2.5858605103	-2.3507582693	 0.8254958223	 0.124141
105.5733	117.5801	165.7489	187.7991	214.3919	263.3658	341.578	403.4745	540.0062	565.6499	611.7984	701.0445	786.2808	796.3751	853.1462	886.6602	950.5493	956.8347	971.6523	1020.921	1037.8842	1058.4267	1131.3621	1174.1657	1210.8462	1215.8921	1260.3391	1270.32	1276.5243	1287.4633	1334.2241	1363.0069	1416.8152	1472.7366	1483.3502	1485.9456	1498.6326	1505.4103	1507.29	2344.2261	3029.0364	3041.8684	3065.3779	3068.6662	3071.3502	3077.0367	3109.8397	3113.8544	3118.2658	3127.7387	3137.9985
CCC1(CCC1)C#N	CCC1(CCC1)C#N	
InChI=1S/C7H11N/c1-2-7(6-8)4-3-5-7/h2-5H2,1H3	InChI=1S/C7H11N/c1-2-7(6-8)4-3-5-7/h2-5H2,1H3
