18
gdb 82219	2.46726	1.84061	1.37353	1.8967	69.71	-0.233	0.0644	0.2974	972.5052	0.148841	-439.040254	-439.032603	-439.031659	-439.071903	31.297	
O	 0.0691764509	 1.4325088928	 0.0652732767	-0.441603
C	 0.0228593842	 0.0200483829	-0.0195399063	 0.042714
C	 0.7656386444	-0.6749129788	 1.1229690848	-0.076843
N	 0.2027549444	-0.3009128792	 2.4384447911	-0.356577
C	-0.1667222548	-1.5967073075	 1.8152198486	-0.048706
C	-1.5000800047	-1.5943821189	 1.0921490442	-0.088212
C	-2.3156784669	-0.3133812459	 1.1450412341	-0.353226
C	-1.4001353707	-0.5851533321	-0.0185215055	 0.37666
O	-1.9617681711	-0.8731491775	-1.2641861579	-0.472699
H	-0.1036698394	 1.642147706	 0.9921348841	 0.289914
H	 0.4787494723	-0.2461124595	-0.978662266	 0.093883
H	 1.8321283826	-0.8544611388	 1.039459092	 0.092178
H	 0.8974898082	-0.4550420341	 3.1641209893	 0.235611
H	 0.1748529256	-2.5089223943	 2.2916052397	 0.090394
H	-2.0116064367	-2.5380583876	 0.9463698528	 0.094225
H	-3.3736875052	-0.4177390186	 0.9295686724	 0.108811
H	-2.0549579978	 0.4294777511	 1.8883217634	 0.126823
H	-2.2782632551	-0.0431924401	-1.6388086676	 0.286652
119.102	218.9268	261.0642	297.5846	330.5573	409.237	413.3034	467.8896	525.4458	577.0003	658.9811	674.9597	712.3018	820.2586	823.4124	882.692	901.6588	917.7176	951.4342	980.4388	990.3001	1033.0231	1053.8906	1069.5368	1078.934	1090.6564	1131.3162	1164.0808	1198.6614	1243.2705	1256.2725	1295.4717	1315.5521	1326.9237	1365.3901	1404.6148	1412.1932	1436.8581	1478.9922	3067.7299	3139.7143	3164.4229	3174.4451	3190.4671	3236.2548	3509.2999	3770.6869	3790.5733
OC1C2NC2C2CC12O	O[C@H]1[C@H]2N[C@H]2[C@H]2C[C@@]12O	
InChI=1S/C6H9NO2/c8-5-4-3(7-4)2-1-6(2,5)9/h2-5,7-9H,1H2	InChI=1S/C6H9NO2/c8-5-4-3(7-4)2-1-6(2,5)9/h2-5,7-9H,1H2/t2-,3+,4+,5+,6+/m1/s1
