21
gdb 38050	3.34468	1.65771	1.415	0.342	85.5	-0.2186	0.0174	0.2359	997.319	0.186362	-349.925704	-349.918868	-349.917924	-349.956518	29.641	
C	-0.0177908797	 1.628180763	 0.2428852508	-0.253475
C	 1.501303848	 1.3464275824	 0.0182329334	-0.11441
C	 1.7641161856	 0.4154094122	 1.2210634634	-0.081597
C	 0.7109538796	-0.4133960434	 1.2265049028	-0.199249
C	-0.0940990379	 0.0645185395	 0.0185323917	 0.35837
C	-1.2643889027	-0.5630050407	-0.7033854755	-0.35236
C	-1.1803074331	 0.0773481862	-2.124555076	-0.20027
C	 0.2969352294	 0.5733106272	-2.3448143271	-0.272526
C	 1.0474696644	 0.2656897167	-1.0330931013	 0.033239
H	-0.3171185613	 1.9990072704	 1.225596976	 0.088641
H	-0.4883427357	 2.220337984	-0.5465850629	 0.092459
H	 2.2270388181	 2.1322920373	-0.1945114516	 0.05309
H	 2.6125225569	 0.459236995	 1.889932391	 0.095343
H	 0.4710771377	-1.2290902652	 1.8942801092	 0.097678
H	-1.1271431613	-1.649977881	-0.7603779472	 0.097826
H	-2.2356493782	-0.3823172468	-0.2318337971	 0.095761
H	-1.4898368994	-0.6300899129	-2.8988180634	 0.096886
H	-1.8693566571	 0.9247788186	-2.1896179227	 0.102538
H	 0.7669114417	 0.0485463892	-3.1806793014	 0.097587
H	 0.309754621	 1.6358153956	-2.6037221063	 0.102636
H	 1.739241974	-0.5740718072	-1.1417447558	 0.061833
122.3141	254.3676	305.0362	377.018	460.9571	528.9938	551.0853	653.7707	664.1482	683.8445	730.1357	762.031	817.6975	844.1234	867.1899	886.3526	896.5483	903.245	938.8437	964.4478	985.6139	988.3298	1048.991	1057.3506	1074.4642	1093.8686	1116.6865	1143.3064	1206.9726	1215.1551	1221.7498	1223.1745	1244.9923	1247.6761	1262.5858	1297.1787	1321.0063	1326.7144	1347.5173	1368.3385	1485.6801	1487.6523	1502.2064	1516.3456	1605.9432	3028.5658	3049.7394	3055.7931	3058.2166	3065.9506	3073.8096	3086.4983	3105.0584	3105.7217	3120.1946	3212.8209	3239.5598
C1C2C=CC11CCCC21	C1[C@H]2C=C[C@]31CCC[C@@H]23	
InChI=1S/C9H12/c1-2-8-7-3-5-9(8,4-1)6-7/h3,5,7-8H,1-2,4,6H2	InChI=1S/C9H12/c1-2-8-7-3-5-9(8,4-1)6-7/h3,5,7-8H,1-2,4,6H2/t7-,8+,9+/m1/s1
