17
gdb 107524	2.15379	1.61227	1.1182	3.9382	72.98	-0.2403	0.0112	0.2515	1114.9084	0.135395	-417.951232	-417.942617	-417.941673	-417.984856	31.506	
C	 0.2174027996	 1.3476514935	-0.2209042269	-0.264628
O	-0.2313798095	 0.0455826444	 0.1510156756	-0.28024
C	 0.5217255641	-0.544471187	 1.1271680834	 0.412553
C	 1.9269813021	-1.0586844363	 0.9282686703	-0.331791
C	 0.8406790137	-1.9988122237	 1.3818003978	-0.111288
N	 0.689801679	-1.8432908699	 2.8495571268	-0.318238
C	 0.1953207274	-0.4365476309	 2.6377824845	-0.213873
C	 0.8714273428	 0.5886714231	 3.4322174211	 0.301492
N	 1.4055768701	 1.4208204981	 4.0310206221	-0.329668
H	 1.2570471181	 1.3222738847	-0.5702928891	 0.122985
H	-0.4321727548	 1.6821351026	-1.0316480407	 0.134619
H	 0.1426029435	 2.0527545543	 0.6165297614	 0.132092
H	 2.1947050377	-1.156022224	-0.1191955516	 0.126924
H	 2.7375964944	-0.8021313127	 1.6045683761	 0.136108
H	 0.5568227823	-2.9036262104	 0.8606806118	 0.116745
H	-0.0695298345	-2.4158936792	 3.2053954608	 0.234703
H	-0.8869345162	-0.3454241266	 2.7718517565	 0.131504
82.4655	104.5709	133.2516	167.4895	235.3729	323.0614	360.9017	410.9794	450.1379	543.9797	552.3674	676.3178	722.22	811.6579	867.3913	913.336	931.7272	979.0382	997.7043	1027.6241	1050.5136	1065.5561	1083.3091	1108.8057	1177.2466	1177.7236	1206.7046	1226.6066	1264.8993	1338.9647	1372.5601	1401.4267	1467.3469	1488.1926	1501.4057	1505.8404	2353.8845	3011.0549	3067.9424	3073.0715	3119.0208	3135.3165	3205.2179	3217.5673	3519.7479
COC12CC1NC2C#N	CO[C@]12C[C@H]1N[C@H]2C#N	
InChI=1S/C6H8N2O/c1-9-6-2-4(6)8-5(6)3-7/h4-5,8H,2H2,1H3	InChI=1S/C6H8N2O/c1-9-6-2-4(6)8-5(6)3-7/h4-5,8H,2H2,1H3/t4-,5+,6-/m1/s1
