14
gdb 129376	4.58648	1.06542	0.86506	1.969	68.28	-0.2432	-0.0413	0.2019	1239.6952	0.101851	-470.008845	-470.000946	-470.000002	-470.041512	29.761	
N	-0.1785052131	 1.3245134059	-0.1856691078	-0.554258
C	 0.055990439	-0.0265283145	-0.0678382362	 0.233751
N	 1.1807926411	-0.6368444753	-0.0349667955	-0.51166
C	-1.1650575658	-0.8538898386	-0.0200061237	 0.506449
C	-1.3508740931	-2.1994793776	 0.014553931	-0.434002
C	-2.7640173545	-2.3210004228	 0.0648342254	 0.478857
O	-3.4409856995	-3.4760883287	 0.111416992	-0.415682
N	-3.3792590001	-1.1588476637	 0.0624876274	-0.25777
O	-2.3525195373	-0.2147198487	 0.0070766202	-0.247785
H	 0.5835629324	 1.9504717885	 0.0168713003	 0.254721
H	-1.10183695	 1.6677651556	 0.026225824	 0.273749
H	 1.9626422893	 0.0189747136	-0.0770539089	 0.20808
H	-0.6025004251	-2.9712226862	 0.0056915935	 0.152006
H	-4.3841454933	-3.2655306975	 0.1373299383	 0.313545
67.0075	150.9377	181.3097	348.6664	362.3591	392.4121	413.9792	433.4705	453.1278	531.6645	583.8761	626.9918	706.7768	745.7183	761.0065	849.5215	851.1745	969.7031	991.6613	1042.1587	1095.1683	1113.8979	1152.8694	1224.076	1297.9379	1402.7637	1532.1863	1558.1854	1631.2409	1670.695	1710.3192	3307.4716	3462.7712	3592.6194	3711.7395	3780.005
NC(=N)C1=CC(O)=NO1	NC(=N)c1cc(O)no1	
InChI=1S/C4H5N3O2/c5-4(6)2-1-3(8)7-9-2/h1H,(H3,5,6)(H,7,8)	InChI=1S/C4H5N3O2/c5-4(6)2-1-3(8)7-9-2/h1H,(H3,5,6)(H,7,8)
