19
gdb 121099	3.74458	0.82257	0.71725	2.7832	73.47	-0.2241	0.0541	0.2782	1560.0012	0.160277	-456.363508	-456.354115	-456.35317	-456.3989	33.896	
N	-0.0145755899	 1.3399534109	-0.1013521557	-0.574464
C	-0.0742742532	-0.0261923372	-0.0647054628	 0.471052
N	-1.1041478433	-0.7406877214	 0.1664815255	-0.356106
C	-0.6800943622	-2.1400434806	 0.0186593	 0.009596
C	-1.5353312633	-2.8974199085	-1.0022686794	-0.203515
C	-3.0030117065	-3.0066764436	-0.5866736056	-0.063201
O	-3.7786247944	-3.7548459584	-1.5137352233	-0.42245
C	 0.8210069733	-2.0432310246	-0.3860757211	-0.126591
O	 1.1104698581	-0.6306202429	-0.3555103393	-0.253481
H	 0.8954299306	 1.7366102615	 0.0736557358	 0.263279
H	-0.7776012433	 1.7983369052	 0.3711472194	 0.268143
H	-0.7786715124	-2.6451157484	 0.9902391734	 0.078073
H	-1.4657165125	-2.3805705445	-1.9700480677	 0.085583
H	-1.1323080327	-3.9082453609	-1.1455714832	 0.098316
H	-3.0806891666	-3.5459596785	 0.3644785441	 0.104746
H	-3.4162984588	-2.002325377	-0.4255840645	 0.113254
H	-3.8222576728	-3.2482285954	-2.3307031014	 0.279033
H	 1.4984965672	-2.5481165205	 0.3072752109	 0.115923
H	 1.0103735227	-2.4107844852	-1.4003522154	 0.112808
34.3071	93.8092	100.0738	156.8268	202.4751	296.6611	329.254	345.3247	390.2053	448.8789	510.7943	547.3034	695.1146	729.9346	746.6721	798.7405	878.8078	937.6721	957.2931	986.9055	1047.5397	1056.7404	1074.0389	1094.0905	1110.4473	1180.1053	1186.4017	1231.3269	1278.4078	1308.0901	1321.3718	1345.1076	1378.8083	1402.1377	1419.6122	1434.1409	1478.6124	1514.7408	1524.551	1619.4649	1757.573	2990.278	3007.1244	3020.8686	3043.7082	3049.6545	3076.0341	3097.2091	3593.425	3707.1378	3817.5564
NC1=NC(CCO)CO1	NC1=N[C@@H](CCO)CO1	
InChI=1S/C5H10N2O2/c6-5-7-4(1-2-8)3-9-5/h4,8H,1-3H2,(H2,6,7)	InChI=1S/C5H10N2O2/c6-5-7-4(1-2-8)3-9-5/h4,8H,1-3H2,(H2,6,7)/t4-/m0/s1
