19
gdb 53706	2.73335	0.62085	0.52522	4.1681	84.97	-0.2431	0.0366	0.2797	2056.8084	0.157935	-382.05197	-382.041174	-382.040229	-382.091103	36.022	
C	-0.2684595977	 0.5443490709	 1.3254740578	-0.496468
C	-0.1961905686	-0.5209607012	 0.3354344889	 0.031972
C	-0.1202762434	-1.3974529217	-0.4881260867	 0.089997
C	-0.0849765786	-2.480243518	-1.4794546974	-0.32249
N	-1.2145731123	-3.4175956819	-1.4314994682	-0.280008
C	-1.3214427669	-4.1424693567	-0.1710186016	-0.125381
C	-2.4528409033	-5.1803931576	-0.2783547011	-0.343578
C	-2.5983458853	-5.9723866417	 0.9397512653	 0.256104
N	-2.699370168	-6.5916363464	 1.910055188	-0.304579
H	 0.1874922221	 0.2402856711	 2.2739426674	 0.151635
H	 0.2542498788	 1.4423594767	 0.9783131212	 0.151474
H	-1.3068210107	 0.8261601502	 1.5318301635	 0.149339
H	-0.0487618763	-2.0554839015	-2.4895668099	 0.133759
H	 0.8374436979	-3.0629698968	-1.3605097406	 0.136253
H	-2.0709330965	-2.8917678105	-1.5862425166	 0.220698
H	-0.3736718926	-4.6638895112	 0.0043820796	 0.125745
H	-1.4949030901	-3.4937373342	 0.7016915109	 0.115926
H	-3.4069066132	-4.678311799	-0.4810525458	 0.14754
H	-2.2586994454	-5.8464434503	-1.1252752747	 0.162061
13.57	40.1749	64.3415	100.6216	127.6235	157.2919	221.5645	293.306	297.6747	385.3871	391.8912	401.4322	535.8336	574.476	732.3084	787.6769	821.7361	930.1675	949.4997	1018.4701	1052.4418	1053.8922	1062.8232	1120.4256	1130.6521	1155.5739	1207.1921	1273.9285	1312.0996	1326.8277	1359.6134	1404.0548	1415.2894	1466.8338	1469.5099	1477.2933	1478.8486	1501.8927	1518.5178	2362.3167	2364.5601	2985.6726	3024.4718	3028.1021	3039.1374	3058.3193	3062.5817	3089.1115	3090.0717	3091.2328	3497.0344
CC#CCNCCC#N	CC#CCNCCC#N	
InChI=1S/C7H10N2/c1-2-3-6-9-7-4-5-8/h9H,4,6-7H2,1H3	InChI=1S/C7H10N2/c1-2-3-6-9-7-4-5-8/h9H,4,6-7H2,1H3
