20
gdb 118441	1.83048	1.37122	0.85291	12.9359	75.2	-0.1792	-0.0135	0.1657	1378.4628	0.169294	-477.383156	-477.372888	-477.371944	-477.419532	36.301	
C	-0.2412870926	 1.4636466425	 0.2400505689	-0.385619
C	-0.8267744522	 0.2173104246	-0.3963470865	-0.064187
O	-0.7886923965	-0.8345687268	 0.5957304019	-0.319328
C	-1.1670175974	-2.1630880371	 0.1693450482	-0.024815
C	-2.635214399	-2.3641720457	 0.5667146066	-0.21393
N	-2.7972246517	-1.6030165776	 1.8898554992	-0.433242
H	-3.7186358	-1.1938160295	 2.0305870745	 0.310127
H	-2.560848458	-2.1773191388	 2.6979539477	 0.312413
H	-2.0428827709	-0.8678315548	 1.7513268802	 0.325616
C	-1.010164255	-2.589248099	-1.3560806047	 0.354297
O	-1.9142341676	-3.3843364922	-1.6754984994	-0.464666
O	-0.0438022091	-2.114902198	-1.960958186	-0.449351
H	-0.2458614721	 2.2856334313	-0.481997441	 0.126989
H	-0.8133315071	 1.783559621	 1.1191218591	 0.093361
H	 0.791494539	 1.28446833	 0.5513164111	 0.13669
H	-1.8660359726	 0.391907274	-0.7164620527	 0.074866
H	-0.2569711079	-0.1267858521	-1.26079385	 0.182895
H	-0.5312826454	-2.8323218788	 0.7626188152	 0.098349
H	-3.3099120929	-1.9002257465	-0.1516380019	 0.168058
H	-2.9121340312	-3.4049319166	 0.7011523695	 0.171478
42.9682	65.1257	92.2689	121.8893	198.6715	206.0063	249.3074	311.9868	362.8298	374.0294	395.7333	452.3044	552.7841	632.2166	768.451	780.799	820.5753	826.4569	891.5587	900.2109	949.8431	1008.1161	1043.9076	1097.1875	1114.2928	1122.0189	1184.0567	1256.0754	1264.293	1287.4369	1301.013	1340.6275	1359.6064	1378.1068	1408.4015	1431.1158	1467.8561	1484.2328	1499.4745	1533.6521	1623.1338	1687.1805	1795.9785	2859.7589	2979.2496	3030.0428	3032.3179	3094.593	3123.0307	3128.6102	3131.6297	3211.4096	3480.8667	3556.2135
CCOC(C[NH3+])C([O-])=O	CCO[C@@H](C[NH3])C(=O)[O]	
InChI=1S/C5H11NO3/c1-2-9-4(3-6)5(7)8/h4H,2-3,6H2,1H3,(H,7,8)	InChI=1S/C5H11NO3/c1-2-9-4(3-6)5(7)8/h4H,2-3H2,1,6H3/t4-/m0/s1
