14
gdb 127223	3.13923	1.27282	0.91083	6.2392	73.21	-0.2414	-0.0178	0.2236	1198.474	0.102358	-432.908812	-432.900684	-432.89974	-432.941948	29.08	
C	-0.0024094191	 1.3864960301	 0.1280638863	-0.318371
N	 0.0244496954	-0.0541256684	-0.0007420736	 0.047403
C	-0.1129786502	-0.7902866886	-1.1135018805	-0.103612
C	-0.017120931	-2.1273590572	-0.7398583431	-0.011675
C	-0.100700981	-3.2682549008	-1.5660937185	 0.207286
N	-0.1699107953	-4.2022042316	-2.2481224902	-0.353767
C	 0.1835251606	-2.0639101556	 0.6657931415	 0.377358
O	 0.3323105621	-3.1238621473	 1.4696511004	-0.410502
N	 0.2086246261	-0.8198750806	 1.1111145241	-0.372305
H	 0.9444632667	 1.7444932452	 0.5405835576	 0.15804
H	-0.1578581118	 1.824270129	-0.8589095616	 0.147581
H	-0.8154283229	 1.6890643245	 0.7931804831	 0.158024
H	-0.266592375	-0.3460397095	-2.0839122633	 0.162359
H	 0.4516241753	-2.7950364893	 2.3700920978	 0.312181
77.58	135.2383	140.0922	199.6828	295.3185	333.5393	418.2085	425.3879	536.6632	538.0397	608.1317	622.6342	662.4571	739.4445	822.8577	823.6725	1015.6322	1085.03	1153.2919	1182.7211	1213.4369	1254.8802	1333.719	1427.1647	1457.4622	1470.6004	1489.4786	1536.2951	1578.5858	1617.292	2347.6649	3053.0206	3121.0682	3153.0578	3268.3752	3792.2619
CN1C=C(C#N)C(O)=N1	Cn1cc(C#N)c(O)n1	
InChI=1S/C5H5N3O/c1-8-3-4(2-6)5(9)7-8/h3H,1H3,(H,7,9)	InChI=1S/C5H5N3O/c1-8-3-4(2-6)5(9)7-8/h3H,1H3,(H,7,9)
