20
gdb 37593	2.75229	2.29877	1.97729	1.6048	79.59	-0.2215	0.0932	0.3146	832.6657	0.177358	-366.009215	-366.003616	-366.002672	-366.038697	25.809	
C	-0.0140784047	 1.5872302209	-0.0342126154	-0.232941
C	 1.4601274044	 1.9046072079	 0.1402072392	-0.030762
C	 2.0309662317	 0.8913943999	 1.0507836592	-0.032445
C	 1.1292825731	-0.3485467409	 1.026905396	-0.054346
C	 2.0614535523	-1.2985153579	 0.2388336664	-0.207627
C	 2.1270152092	-0.3493925271	-0.9769544115	 0.016636
C	 0.655465245	-0.3493544737	-1.3918495348	-0.209009
C	 0.0144047365	 0.0527867558	-0.0339452729	-0.042016
N	 2.5182033919	 0.9663864614	-0.34715041	-0.134654
H	-0.561477559	 2.0067426417	 0.8197766359	 0.094805
H	-0.463390715	 1.9915488033	-0.9467869352	 0.097577
H	 1.7867931722	 2.9408005064	 0.1522736045	 0.086222
H	 2.7256959318	 1.0873303308	 1.8632171536	 0.079422
H	 0.754905873	-0.6924347169	 1.9913448386	 0.060554
H	 3.0266541168	-1.443388954	 0.7315141308	 0.09999
H	 1.6312297699	-2.275128207	-0.0025941799	 0.090171
H	 2.8446366979	-0.6005605943	-1.7594089502	 0.067019
H	 0.4198930135	 0.3659075618	-2.18455045	 0.094223
H	 0.3554162841	-1.3438859081	-1.7371239581	 0.091749
H	-0.9551153745	-0.4093663801	 0.154193584	 0.065432
290.7882	433.0707	457.0234	506.5293	578.3906	611.1228	684.9113	730.5452	781.9168	805.1064	839.8691	855.5478	879.9338	895.8196	928.7951	939.674	949.9193	954.7323	975.1555	986.5528	1026.921	1041.7358	1048.3517	1072.3386	1110.9751	1120.8911	1162.3549	1167.2307	1192.7622	1227.2008	1232.1789	1255.0991	1281.8938	1288.434	1298.6975	1315.4377	1325.7755	1339.6583	1350.0197	1400.538	1488.1787	1501.0369	1517.3647	3022.7783	3045.7336	3056.0017	3071.765	3093.7092	3100.8309	3101.4458	3108.3272	3114.5181	3135.2134	3150.4287
C1C2C3C4CC(CC14)N23	C1[C@H]2[C@H]3[C@@H]4C[C@@H](C[C@H]14)N23	
InChI=1S/C8H11N/c1-4-2-7-8-6(4)3-5(1)9(7)8/h4-8H,1-3H2	InChI=1S/C8H11N/c1-4-2-7-8-6(4)3-5(1)9(7)8/h4-8H,1-3H2/t4-,5-,6-,7+,8-,9?/m1/s1
