17
gdb 97271	3.68515	0.91515	0.73984	1.1498	78.68	-0.2535	-0.0892	0.1642	1488.2997	0.133315	-455.172312	-455.162268	-455.161324	-455.208581	33.858	
C	 0.0666387609	 1.3810887363	 0.1098777531	-0.316673
N	 0.1774856007	-0.0630142027	 0.1356400684	-0.238515
C	 0.4622914713	-0.6459011329	-0.9491460441	 0.11922
N	 0.5934153764	-2.0417962909	-1.0335961976	-0.167824
C	 0.3923593921	-2.8470282518	 0.1798015434	-0.334686
C	 0.9061556993	-2.5661097952	-2.2683393885	 0.33071
O	 1.0730385634	-1.8987830886	-3.2755847715	-0.34809
C	 1.0664029799	-4.0836675952	-2.4419896604	 0.090908
O	 0.9519334049	-4.9388443275	-1.6066005997	-0.238358
H	 0.7789625125	 1.8133886906	 0.8217549428	 0.133397
H	 0.2484676727	 1.8240858267	-0.8811076065	 0.107512
H	-0.9343039432	 1.6751611243	 0.4455892525	 0.1334
H	 0.6333378123	-0.1562824285	-1.9093461911	 0.141639
H	-0.4310773604	-3.5495573726	 0.0482323239	 0.147118
H	 1.2925074734	-3.4111607927	 0.4256093399	 0.147117
H	 0.161086745	-2.1454282461	 0.9789145679	 0.1688
H	 1.3157422188	-4.2950039532	-3.5015170826	 0.124325
25.1029	100.9176	132.7311	148.9494	161.2771	185.4621	217.4494	244.0101	341.9526	386.9568	423.1403	486.0276	551.8729	601.0701	697.8347	825.0763	989.4592	1010.4455	1033.4004	1074.1026	1140.5031	1143.2039	1156.0803	1169.5445	1297.7482	1359.945	1379.6	1411.3865	1445.9594	1465.4818	1479.9171	1496.5115	1502.4856	1505.0677	1738.4856	1755.2995	1832.2314	2947.2126	2984.9483	3066.4189	3075.31	3080.7401	3121.0423	3147.9235	3178.2963
CN=CN(C)C(=O)C=O	CN=CN(C)C(=O)C=O	
InChI=1S/C5H8N2O2/c1-6-4-7(2)5(9)3-8/h3-4H,1-2H3	InChI=1S/C5H8N2O2/c1-6-4-7(2)5(9)3-8/h3-4H,1-2H3
