23
gdb 120219	4.21394	0.84421	0.82601	1.7539	85.55	-0.2316	0.0878	0.3194	1535.4488	0.207242	-388.271651	-388.262947	-388.262003	-388.305465	33.818	
C	 1.9440662267	 1.5751520982	 0.2952406677	-0.381481
C	 1.9521146127	 0.0549225247	 0.4755046497	-0.157708
C	 0.663648812	-0.4818960234	 1.1154397683	-0.229508
C	 0.6589739286	-2.000936256	 1.2516449794	 0.044719
C	 1.5061244844	-2.6583599447	 2.4035016987	-0.076185
C	 0.3008190424	-2.3608862116	 3.3524044668	-0.245728
C	-0.4757232411	-2.6966998339	 2.0577172486	 0.084196
O	-0.1933926498	-4.0937418071	 1.8624631722	-0.283662
C	 1.235425015	-4.1370518286	 2.1015726301	-0.084041
H	 1.836578306	 2.0883839995	 1.2574254434	 0.113425
H	 2.8711535057	 1.9276810218	-0.167448174	 0.111864
H	 1.1117104071	 1.8936557965	-0.3422791508	 0.114443
H	 2.0993071195	-0.429592203	-0.4986725795	 0.096204
H	 2.8124208911	-0.2369146779	 1.0912659989	 0.096953
H	 0.5157481721	 0.0089542749	 2.0842505545	 0.094595
H	-0.1925931487	-0.1840161987	 0.4940104028	 0.09537
H	 0.8117758776	-2.4532854647	 0.2643588099	 0.068103
H	 2.5307406804	-2.3671502691	 2.6338441224	 0.068514
H	 0.142719507	-3.0246171702	 4.2059447581	 0.097743
H	 0.2336341552	-1.3188319318	 3.661262225	 0.104136
H	-1.5390670691	-2.5129929791	 1.9067333438	 0.074046
H	 1.755221095	-4.504373137	 1.2086964388	 0.097283
H	 1.4555028203	-4.805514739	 2.9426687652	 0.096719
78.3676	83.8614	120.5039	238.306	291.1056	302.1547	333.4296	372.8738	499.6289	568.403	653.9309	737.4368	793.5352	846.6025	847.6261	890.3598	907.8545	914.4035	933.4382	946.2489	968.7374	1001.7799	1030.4189	1046.554	1071.2592	1072.4559	1114.2767	1119.136	1128.0143	1152.6113	1185.9968	1221.6713	1234.3574	1252.3268	1264.2798	1272.7608	1293.1177	1311.5263	1334.7	1360.4084	1388.0429	1407.9318	1414.3604	1480.5257	1491.6003	1498.9954	1500.9406	1512.303	1529.8004	3009.6616	3018.8937	3019.4314	3028.8692	3031.1025	3043.03	3058.4041	3065.6544	3076.9478	3095.5531	3101.3518	3119.5296	3128.389	3150.9931
CCCC1C2CC1OC2	CCC[C@H]1[C@H]2C[C@@H]1OC2	
InChI=1S/C8H14O/c1-2-3-7-6-4-8(7)9-5-6/h6-8H,2-5H2,1H3	InChI=1S/C8H14O/c1-2-3-7-6-4-8(7)9-5-6/h6-8H,2-5H2,1H3/t6-,7-,8-/m0/s1
