15
gdb 66898	2.55176	1.95277	1.52209	3.3211	68.86	-0.2348	-0.037	0.1978	901.2281	0.113063	-416.781098	-416.774124	-416.77318	-416.81234	27.178	
C	 0.0318665751	 1.5293201689	-0.0129561112	-0.518921
C	-0.0267365327	 0.0366231535	 0.0265511878	 0.329471
C	 0.4818592337	-1.0036544362	-0.9673213934	-0.220356
N	 1.1097993498	-0.8074754735	 0.3853643955	-0.181059
C	 0.5926811508	-1.7130525074	 1.3896449904	 0.032457
N	-0.6669438598	-1.7734294898	 1.5275243012	-0.174783
C	-1.1979289298	-0.9217498533	 0.4473156409	-0.211556
C	-0.8718152836	-1.6482331465	-0.8918177246	 0.454343
O	-1.5358606493	-2.2524726822	-1.6832147195	-0.31896
H	 0.9977694371	 1.8592750505	-0.4033998355	 0.146742
H	-0.7600139659	 1.9306420293	-0.652749118	 0.140588
H	-0.0960007397	 1.9478132779	 0.9905998778	 0.143521
H	 1.1369172352	-0.9201797714	-1.8253042147	 0.129238
H	 1.305911095	-2.270339159	 1.9863363322	 0.143937
H	-2.2115545059	-0.5659166109	 0.6127944811	 0.105341
128.2188	188.6508	238.7667	289.8331	381.3373	463.7907	506.3904	599.7078	616.2251	706.4104	726.3001	788.9879	822.6386	889.0693	910.7449	930.4375	950.6923	973.9509	1019.9671	1044.7471	1079.6523	1110.1455	1127.6456	1182.2276	1215.0595	1247.5882	1299.6327	1389.125	1424.1333	1480.1312	1489.485	1672.7774	1877.6613	3041.655	3108.4852	3127.7074	3161.8898	3203.3422	3213.8876
CC12C3N1C=NC2C3=O	C[C@@]12[C@H]3N1[CH][N][C@@H]2C3=O	
InChI=1S/C6H6N2O/c1-6-4-3(9)5(6)8(6)2-7-4/h2,4-5H,1H3	InChI=1S/C6H6N2O/c1-6-4-3(9)5(6)8(6)2-7-4/h2,4-5H,1H3/t4-,5+,6-,8?/m1/s1
