18
gdb 47503	2.75104	1.5	1.10113	3.7646	72.55	-0.2286	0.0115	0.2401	1111.0128	0.149078	-439.098454	-439.090602	-439.089658	-439.131065	30.44	
O	 0.0518294807	 0.1044327532	 0.5870704591	-0.321124
C	-0.0135199637	 1.1810692806	 0.0609039659	 0.377226
C	-1.3434774904	 1.9029341892	-0.1753813846	-0.305398
N	-1.3364599141	 3.0577577231	-1.0673432626	-0.287902
C	-0.1387773247	 3.8610582103	-0.8289455118	-0.256611
C	 1.1151941393	 3.0447502491	-1.01998869	 0.444012
C	 1.8047886865	 2.9694317356	-2.3564955589	-0.322714
C	 2.4662417372	 3.6604081536	-1.1770322003	-0.323095
O	 1.132304222	 1.8269761311	-0.276089523	-0.262714
H	-2.0594995581	 1.155484361	-0.5235300716	 0.144614
H	-1.687784216	 2.2180455976	 0.8197840734	 0.146791
H	-1.3265563045	 2.7363271113	-2.0312033134	 0.225154
H	-0.1284675771	 4.7223868236	-1.5031924916	 0.113349
H	-0.1857508672	 4.2475689342	 0.1978577954	 0.118887
H	 2.202272187	 2.0049206934	-2.6495948999	 0.134073
H	 1.4254145116	 3.5779560336	-3.1711135652	 0.116885
H	 2.5394526508	 4.7426768339	-1.1784612988	 0.121415
H	 3.2921836007	 3.1455876156	-0.7002110122	 0.137153
88.2523	94.2824	233.0773	263.3567	357.7822	400.2009	437.6683	466.4613	525.8049	550.5601	610.5875	751.8334	772.9204	817.6843	846.34	914.2072	928.01	952.4068	986.145	1000.0047	1008.9542	1055.1087	1081.8565	1103.0556	1149.3822	1189.7336	1198.6582	1239.2483	1288.3486	1323.2814	1346.4812	1353.661	1397.5251	1452.7343	1453.7486	1477.7646	1491.8157	1499.606	1845.9596	3019.6673	3025.7672	3089.7147	3114.3828	3133.4655	3138.4516	3222.0156	3235.0516	3504.5713
O=C1CNCC2(CC2)O1	O=C1CNCC2(CC2)O1	
InChI=1S/C6H9NO2/c8-5-3-7-4-6(9-5)1-2-6/h7H,1-4H2	InChI=1S/C6H9NO2/c8-5-3-7-4-6(9-5)1-2-6/h7H,1-4H2
