19
gdb 81564	4.32872	1.07663	1.00573	3.368	77.21	-0.2301	0.044	0.274	1241.0897	0.159881	-419.176278	-419.167822	-419.166877	-419.209308	32.685	
C	 0.0897874491	 1.7174579667	 0.0481831556	-0.442737
C	-0.0335941647	 0.2071117845	-0.0352858482	 0.057271
C	 1.0239283394	-0.6821063786	-0.7625821358	-0.050413
C	 2.0069264809	-0.4596354869	 0.4209646772	-0.240775
C	 0.601270521	-0.7475574968	 1.0281682395	-0.02067
N	 0.4051243708	-1.844208888	 0.0077161832	-0.148669
C	 1.0678574383	-3.0653021184	 0.1913384496	 0.396526
N	 1.3782582928	-3.6989883191	-0.9988499873	-0.544133
O	 1.3092446179	-3.5413988112	 1.2831967864	-0.384902
H	 1.0952094862	 2.0656064989	 0.2954399935	 0.121896
H	-0.1937294729	 2.1742741203	-0.9062466211	 0.122568
H	-0.592547068	 2.109008774	 0.8102988696	 0.126032
H	-1.0540028424	-0.0924142382	-0.2883405314	 0.083641
H	 1.2359295607	-0.7525546206	-1.830464333	 0.083022
H	 2.7552495048	-1.2368035051	 0.5790934796	 0.128929
H	 2.4347530752	 0.5351547993	 0.5526829889	 0.096179
H	 0.3251473752	-0.8975847356	 2.0701237008	 0.103582
H	 0.8219642796	-3.4654796591	-1.806613445	 0.253813
H	 1.5891145462	-4.6798327662	-0.8944280522	 0.25884
86.0904	142.9452	147.675	176.3126	302.8213	330.8591	409.6578	457.0191	524.1163	532.1142	580.4732	641.9674	729.495	766.5307	782.9577	800.7997	833.5672	898.4898	928.0644	1003.9841	1010.7358	1049.5478	1054.0781	1090.2096	1112.1244	1120.6829	1139.828	1166.9181	1181.2047	1202.1096	1234.9388	1254.6299	1276.8909	1370.4272	1400.4258	1421.3212	1495.3391	1497.1863	1527.4366	1617.3575	1793.0969	3037.9262	3076.2163	3081.0785	3094.7637	3107.0272	3121.4652	3143.1376	3149.211	3579.0961	3697.3723
CC1C2CC1N2C(N)=O	C[C@H]1[C@H]2C[C@@H]1N2C(=O)N	
InChI=1S/C6H10N2O/c1-3-4-2-5(3)8(4)6(7)9/h3-5H,2H2,1H3,(H2,7,9)	InChI=1S/C6H10N2O/c1-3-4-2-5(3)8(4)6(7)9/h3-5H,2H2,1H3,(H2,7,9)/t3-,4+,5-
