21
gdb 81020	2.49865	1.78759	1.3365	1.6333	82.32	-0.2305	0.0108	0.2413	1053.2295	0.182848	-387.090149	-387.081928	-387.080984	-387.12207	33.496	
C	-0.0904611349	 1.5346335336	-0.0788499306	-0.429999
C	-0.0284489319	 0.0146474639	-0.0253835886	-0.018799
C	 1.1961264713	-0.6045838575	-0.7530046256	 0.033676
O	 1.9669431538	-0.4905965977	 0.4836232059	-0.329241
C	 0.7026505415	-0.59351313	 1.2131895238	 0.390907
C	 0.735905459	 0.1291358762	 2.5397638363	-0.475928
C	 0.3666372869	-2.0968126305	 1.3496936128	-0.293186
C	 0.5409954751	-2.7906343531	 0.0157981043	-0.068267
C	 0.9449913707	-2.0700972657	-1.0293553213	-0.061484
H	 0.8895561247	 1.9751069169	 0.1264114223	 0.131371
H	-0.4088805588	 1.8682958145	-1.0724488458	 0.112515
H	-0.8054010988	 1.9350058132	 0.6479963905	 0.114013
H	-0.9966941921	-0.4292214287	-0.2734736024	 0.066837
H	 1.6584734735	-0.0542532118	-1.5760941963	 0.067329
H	 0.9807581342	 1.1859901462	 2.4147869097	 0.124351
H	-0.232434224	 0.0508572508	 3.0461427389	 0.115472
H	 1.4939067184	-0.3218818287	 3.1892565117	 0.12576
H	 1.0232195663	-2.5512405756	 2.104719816	 0.10942
H	-0.6601783467	-2.2213980403	 1.7213218477	 0.103408
H	 0.3452277579	-3.857053979	-0.0481948034	 0.092612
H	 1.0890569039	-2.483776067	-2.0215880759	 0.089234
183.0393	191.8859	234.1017	252.5398	269.5353	325.213	369.88	383.2971	488.8654	505.303	539.8992	659.5265	696.0888	764.495	803.9523	866.8623	885.5243	896.1699	941.9807	948.8209	960.5229	976.78	1001.0623	1048.609	1074.9351	1103.6278	1115.4781	1160.0891	1189.0931	1221.7885	1231.9403	1247.6549	1279.2621	1321.3153	1358.7346	1382.5837	1388.3324	1403.2453	1408.9725	1463.1796	1478.8623	1488.8981	1498.7067	1507.2582	1697.7729	3005.7406	3030.8689	3034.6998	3036.5949	3064.3538	3081.5334	3092.5154	3100.2069	3113.1848	3128.6213	3163.8751	3192.9171
CC1C2OC1(C)CC=C2	C[C@H]1[C@H]2O[C@]1(C)CC=C2	
InChI=1S/C8H12O/c1-6-7-4-3-5-8(6,2)9-7/h3-4,6-7H,5H2,1-2H3	InChI=1S/C8H12O/c1-6-7-4-3-5-8(6,2)9-7/h3-4,6-7H,5H2,1-2H3/t6-,7-,8+/m0/s1
