16
gdb 10817	4.74371	1.55448	1.23735	3.4645	68.62	-0.2344	-0.0567	0.1777	961.9331	0.130496	-383.766683	-383.759332	-383.758388	-383.798334	27.543	
C	-0.0878583309	 1.5262921157	-0.0246018273	-0.402912
C	 0.0058047798	 0.0026943611	 0.0133463604	 0.090559
O	 0.6227979036	-0.4043231107	-1.1957362749	-0.256196
C	 0.9248375871	-1.7839674457	-1.2549359372	-0.189112
C	 1.8203825769	-2.2464447882	-0.1066944369	 0.353482
O	 2.5548511526	-3.2061412385	-0.2148080594	-0.319977
C	 1.6484179709	-1.4916803764	 1.1488006544	-0.1762
C	 0.7611945831	-0.4926660874	 1.2190502732	-0.050795
H	 0.9127341136	 1.9667001489	-0.0467084355	 0.134645
H	-0.6254939275	 1.8399713884	-0.9224369818	 0.134337
H	-0.6207088882	 1.9024090177	 0.8533832547	 0.119135
H	-1.0210433542	-0.4128753695	 0.0615573598	 0.085154
H	 0.0055107329	-2.3978609866	-1.2372686821	 0.110371
H	 1.432070915	-1.9672133221	-2.2044077154	 0.138014
H	 2.2176740709	-1.8327698605	 2.0076657833	 0.114263
H	 0.5507258643	 0.0041036936	 2.1637579446	 0.115232
76.4425	193.8885	225.0033	269.4743	326.9395	411.3473	424.6482	491.6	546.7929	615.3257	743.2822	766.7791	820.5133	873.4822	925.004	1013.1352	1014.8766	1050.6338	1098.8236	1130.7133	1147.4444	1188.6046	1247.3146	1280.4298	1331.9767	1345.2753	1377.4748	1401.3542	1409.9282	1467.0244	1484.2384	1500.6538	1678.9389	1790.7214	2900.2883	2944.9313	3048.7088	3114.279	3125.15	3132.874	3153.8595	3190.7598
CC1OCC(=O)C=C1	C[C@H]1OCC(=O)C=C1	
InChI=1S/C6H8O2/c1-5-2-3-6(7)4-8-5/h2-3,5H,4H2,1H3	InChI=1S/C6H8O2/c1-5-2-3-6(7)4-8-5/h2-3,5H,4H2,1H3/t5-/m1/s1
