16
gdb 16931	3.57042	2.15186	1.90761	2.6342	62.81	-0.2331	-0.0185	0.2145	760.6319	0.133028	-383.772271	-383.766128	-383.765184	-383.802514	24.527	
O	 0.0026885812	 0.011740729	 0.0701318898	-0.317447
C	-0.0282839405	 1.2108120226	 0.0156393892	 0.422627
C	-1.2608357821	 2.1345639212	-0.0193105886	-0.338652
C	-0.5650147298	 3.5063051351	 0.063409776	 0.071829
C	 0.0317835964	 3.7232325232	 1.4740020585	-0.220304
C	 1.267428071	 2.7731744294	 1.4348394608	-0.234748
C	 1.150844128	 2.1958154816	-0.001233216	-0.035012
O	 0.606939887	 3.2897345198	-0.7474857678	-0.26221
H	-1.7821867242	 2.0162031157	-0.974339627	 0.138375
H	-1.9584924795	 1.8997103217	 0.7880838927	 0.127169
H	-1.1322736922	 4.3433940228	-0.3415636441	 0.087758
H	 0.3352818344	 4.7636563067	 1.6055596814	 0.113585
H	-0.6758245416	 3.4742304201	 2.2685901874	 0.107141
H	 2.20301357	 3.3267799141	 1.5359342247	 0.118292
H	 1.2459871356	 1.9955249091	 2.202092101	 0.121017
H	 2.0649045963	 1.8197934779	-0.4558603281	 0.100581
115.3409	214.2501	361.385	435.7623	508.5013	556.5999	604.3283	692.846	779.1392	812.3391	826.4992	862.84	893.4959	927.8086	949.2952	963.1869	992.5548	1032.8582	1053.251	1089.7334	1146.6675	1174.5306	1215.0145	1224.7148	1254.83	1267.3374	1292.3735	1315.0842	1337.6002	1348.6175	1446.1496	1482.7781	1504.2506	1867.6446	3063.3614	3067.9704	3076.3904	3109.3862	3117.1852	3126.3105	3130.3609	3152.1823
O=C1CC2CCC1O2	O=C1C[C@H]2CC[C@@H]1O2	
InChI=1S/C6H8O2/c7-5-3-4-1-2-6(5)8-4/h4,6H,1-3H2	InChI=1S/C6H8O2/c7-5-3-4-1-2-6(5)8-4/h4,6H,1-3H2/t4-,6+/m1/s1
