25
gdb 123000	4.40068	0.57307	0.55244	0.9462	90.86	-0.2498	0.0839	0.3337	2136.4815	0.227035	-389.474822	-389.463785	-389.462841	-389.511785	39.913	
C	-0.1048192017	 1.4269937106	-0.1040818211	-0.226513
O	-0.1900015138	 0.0252013018	-0.1637597751	-0.230834
C	 0.7105175883	-0.5412752781	-1.0913950307	-0.0486
C	 0.5484882227	-2.054973246	-1.0709744257	-0.197773
C	 1.5055151858	-2.7600216219	-2.0415843234	-0.268628
C	 1.332722755	-4.2716173726	-2.1033386963	 0.39454
C	 1.6457356441	-5.0223782351	-0.8218007603	-0.462114
C	 0.230439818	-4.8136835589	-2.983402163	-0.29295
C	 1.6750354842	-4.954888414	-3.4059237505	-0.316519
H	 0.8982452665	 1.7647006954	 0.2036536463	 0.100505
H	-0.3373246317	 1.8947897715	-1.0746499124	 0.100448
H	-0.833361063	 1.7701001046	 0.6349063779	 0.124592
H	 0.5156616261	-0.1458807122	-2.1045315339	 0.079977
H	 1.7484872577	-0.2617242816	-0.8359891825	 0.080517
H	 0.7129001995	-2.4018743971	-0.0448815153	 0.107836
H	-0.4892736661	-2.3020899225	-1.3238467874	 0.107052
H	 1.361051172	-2.3468564957	-3.0485656989	 0.089231
H	 2.5440070775	-2.5279218129	-1.7641341862	 0.092114
H	 0.9761237277	-4.7320717547	-0.0050855292	 0.119974
H	 1.539432541	-6.1023846955	-0.9640990037	 0.110861
H	 2.6744396236	-4.8306672363	-0.4929408714	 0.111556
H	-0.2968356649	-5.7045488117	-2.6584469956	 0.106895
H	-0.3910509055	-4.1071855717	-3.5243853525	 0.10636
H	 2.0267025952	-4.3447969034	-4.2317613522	 0.105398
H	 2.1251484618	-5.941414672	-3.363623527	 0.106076
56.6909	62.209	98.8672	121.1452	138.3174	218.4007	227.9301	240.285	289.6477	342.0456	358.1814	412.2096	419.8458	525.6551	722.329	759.4137	788.4397	858.5811	877.0954	923.3746	947.7634	954.5443	994.9131	1025.122	1051.1414	1058.3388	1077.6093	1078.6566	1107.7571	1138.064	1165.2837	1180.6158	1188.1189	1221.8399	1226.704	1280.5382	1294.1884	1313.3368	1323.408	1364.1406	1393.348	1421.5721	1427.6328	1469.7749	1480.1132	1482.5063	1485.7145	1496.264	1499.3121	1502.1358	1507.5781	1513.2052	1532.7071	2935.9682	2960.6242	2965.3804	3000.1951	3005.5756	3023.4197	3036.2251	3040.0544	3082.342	3086.4943	3099.868	3109.9625	3123.3355	3128.2537	3200.0458	3214.5871
COCCCC1(C)CC1	COCCCC1(C)CC1	
InChI=1S/C8H16O/c1-8(5-6-8)4-3-7-9-2/h3-7H2,1-2H3	InChI=1S/C8H16O/c1-8(5-6-8)4-3-7-9-2/h3-7H2,1-2H3
