20
gdb 22319	3.62601	0.81618	0.71767	1.9464	79.17	-0.2459	0.0071	0.253	1583.1579	0.16746	-440.231931	-440.221481	-440.220537	-440.268965	36.895	
C	-0.7607496485	 0.9155753685	 0.7823837915	-0.420307
C	 0.0428082596	-0.2571415752	 0.281596687	 0.081163
O	 1.2139754356	 0.0325593939	-0.4901523608	-0.262765
C	 1.3848925424	-0.6451677323	 0.7566511909	 0.066856
C	 2.1911463797	 0.0727055187	 1.8246252935	-0.314449
C	 2.123972122	-0.6280534969	 3.1589467051	 0.347684
C	 0.8361378912	-0.6558023457	 3.9379699083	-0.473173
N	 3.2065460602	-1.1861458586	 3.549538304	-0.158922
O	 3.0417913502	-1.8332891543	 4.7847455285	-0.39941
H	-0.1293908584	 1.6872034069	 1.2275823291	 0.127965
H	-1.3103549881	 1.3717663441	-0.0477165521	 0.131786
H	-1.4953928938	 0.5873572197	 1.5258599721	 0.122986
H	-0.5640793137	-1.060200237	-0.1436394674	 0.088663
H	 1.6580792486	-1.6975892079	 0.6487662631	 0.095857
H	 3.2363895868	 0.1045971387	 1.5029657562	 0.129572
H	 1.8432564175	 1.1063865519	 1.923349386	 0.110432
H	 0.3879835971	-1.6556651117	 3.9082000494	 0.14548
H	 1.0264131644	-0.4315203857	 4.9909457669	 0.151287
H	 0.1137056385	 0.0576551998	 3.5380415129	 0.122618
H	 3.9293839286	-2.1638208668	 4.9582535158	 0.306678
38.2341	41.1302	68.4872	125.7121	180.1348	215.9161	298.9473	315.8038	357.2499	384.1506	405.5192	423.0583	508.0199	557.5058	660.2921	773.4597	805.4476	823.2389	928.4183	963.4049	983.2025	998.749	1027.7808	1040.2618	1094.1518	1106.5773	1164.7564	1183.8148	1216.0187	1277.0934	1300.6289	1317.9575	1394.1899	1398.9799	1401.0088	1416.8688	1463.8559	1470.7063	1476.1962	1483.3582	1494.1738	1508.8404	1727.1026	3038.1366	3042.4911	3049.7141	3072.0922	3084.6704	3098.322	3101.379	3103.1544	3133.1643	3141.2811	3821.825
CC1OC1CC(C)=NO	C[C@H]1O[C@H]1CC(=NO)C	
InChI=1S/C6H11NO2/c1-4(7-8)3-6-5(2)9-6/h5-6,8H,3H2,1-2H3	InChI=1S/C6H11NO2/c1-4(7-8)3-6-5(2)9-6/h5-6,8H,3H2,1-2H3/t5-,6+/m1/s1
