19
gdb 112784	2.04848	1.44791	0.92085	5.3159	78.17	-0.2357	0.0163	0.252	1301.0543	0.157684	-419.177194	-419.167559	-419.166615	-419.212028	33.999	
C	-0.0296458	 1.377257807	-0.2131113009	-0.240376
O	-0.100653503	 0.0754295853	 0.3304456279	-0.230985
C	-1.34813163	-0.5262555967	 0.1759172769	 0.125246
C	-1.6045424307	-1.2227760552	-1.1910864383	-0.209585
N	-1.1851873057	-2.5021357288	-0.5904209148	-0.055272
C	-1.8747541898	-3.7221371332	-0.9446406043	-0.333955
C	-1.3538803802	-1.9657969165	 0.7700750544	-0.16927
C	-0.318269556	-2.3304164479	 1.735807904	 0.322167
N	 0.4759647443	-2.6405097943	 2.5151531262	-0.330313
H	 0.9740836512	 1.7534208693	-0.0069072324	 0.14192
H	-0.1937902701	 1.3803505527	-1.3004334359	 0.111851
H	-0.7680722641	 2.0476951205	 0.2527136317	 0.110786
H	-2.1525564017	 0.1277875466	 0.5362760292	 0.080876
H	-2.668100893	-1.1933934503	-1.4780655518	 0.090709
H	-0.9913579635	-0.895682898	-2.036682824	 0.117836
H	-1.6942602956	-3.949971171	-1.9996805705	 0.131447
H	-1.4826476333	-4.5530097551	-0.3499069575	 0.139691
H	-2.9685609716	-3.6660189453	-0.7856883028	 0.094092
H	-2.3378113273	-2.1944404892	 1.2137500129	 0.103133
80.2069	107.2374	112.6296	151.0474	190.9203	225.218	262.4351	316.1639	324.3068	378.1072	431.6764	553.4436	559.5434	764.6755	815.937	843.4497	948.1438	996.5446	1008.7828	1059.826	1072.5405	1129.7048	1161.9239	1181.3342	1186.5373	1189.2188	1231.6816	1241.5082	1267.0803	1286.0279	1322.2646	1364.391	1394.0559	1451.4329	1481.7185	1485.3327	1488.9503	1496.9877	1505.2613	1508.4601	2362.9229	2927.3183	2956.5874	2974.4582	2981.5206	3022.9629	3033.2507	3067.198	3072.0259	3110.5072	3129.9365
COC1CN(C)C1C#N	CO[C@H]1CN(C)[C@H]1C#N	
InChI=1S/C6H10N2O/c1-8-4-6(9-2)5(8)3-7/h5-6H,4H2,1-2H3	InChI=1S/C6H10N2O/c1-8-4-6(9-2)5(8)3-7/h5-6H,4H2,1-2H3/t5-,6-/m0/s1
