16
gdb 57158	2.86949	1.06656	0.95712	2.6021	73.89	-0.2471	-0.0763	0.1708	1263.2286	0.121634	-437.901354	-437.891586	-437.890642	-437.937134	34.589	
C	 0.0532799543	 1.4432549886	-0.4225740618	-0.398814
C	 0.0024276305	-0.0779592385	-0.1243374207	-0.192725
C	 1.1469946255	-0.4410909237	 0.8441038482	 0.381531
N	 0.8778292036	-0.3059233331	 2.1664657213	-0.517007
O	 2.2342032081	-0.7507541205	 0.3964220405	-0.368967
C	-1.4098215488	-0.4340883897	 0.3192106054	 0.215812
O	-1.8022435536	-0.3802363693	 1.4709399709	-0.316321
C	-2.3112575826	-0.8053554039	-0.7538734609	 0.273424
C	-3.0395264558	-1.1102829781	-1.6627442342	-0.385119
H	 1.0528641874	 1.7023376102	-0.7787256527	 0.151774
H	-0.6742753181	 1.7130823504	-1.1931754649	 0.132357
H	-0.1618366143	 2.0199052722	 0.480827424	 0.140389
H	 0.2237741133	-0.6134144575	-1.0503047542	 0.124369
H	-0.0816974468	-0.2185858949	 2.4710581062	 0.278716
H	 1.5956482178	-0.5865640494	 2.8152076962	 0.257516
H	-3.6959365005	-1.3835669929	-2.4534960534	 0.223067
27.1463	57.0376	131.9991	192.3281	227.7509	247.7406	268.4185	290.6716	374.477	424.7176	460.7027	578.2457	629.6953	647.1929	656.0818	714.2757	748.2201	769.5019	811.3204	840.3008	999.1684	1064.6352	1074.1544	1114.2676	1149.9013	1297.7022	1345.433	1354.7568	1401.7065	1495.7536	1497.966	1608.5629	1743.6709	1801.1513	2210.8464	3047.0383	3092.2917	3124.8412	3137.3696	3491.9417	3543.317	3696.8103
CC(C(N)=O)C(=O)C#C	C[C@@H](C(=O)N)C(=O)C#C	
InChI=1S/C6H7NO2/c1-3-5(8)4(2)6(7)9/h1,4H,2H3,(H2,7,9)	InChI=1S/C6H7NO2/c1-3-5(8)4(2)6(7)9/h1,4H,2H3,(H2,7,9)/t4-/m1/s1
