13
gdb 48215	1.65332	1.54534	1.34806	3.2016	71.97	-0.2594	-0.0566	0.2028	1076.4859	0.082873	-419.352828	-419.343128	-419.342183	-419.387987	33.278	
O	-0.7472217819	 0.9677726321	-0.5489766961	-0.224707
C	 0.1255758073	 1.0213415398	 0.2673475518	 0.154358
C	 1.3810134201	 1.9460402485	 0.1218421042	-0.314982
C	 1.2858997173	 2.6568871331	-1.2622412469	 0.171132
O	 1.1839595732	 3.8379780509	-1.4015280345	-0.224221
C	 1.3658355913	 2.8756557563	 1.24484313	 0.325456
C	 1.2904485099	 3.612471238	 2.1894633219	-0.413637
C	 2.5568630447	 1.0767027407	 0.1162173649	 0.290336
C	 3.4888827849	 0.320522462	 0.0582839499	-0.436016
H	 0.1303692432	 0.4282489309	 1.2023197797	 0.12425
H	 1.3362001747	 1.9436321124	-2.1069959541	 0.117775
H	 1.2456841665	 4.2816981565	 3.0135775892	 0.213002
H	 4.3289009189	-0.3295846512	 0.0240990698	 0.217252
63.6374	75.2757	118.6357	137.8904	151.4539	211.36	248.0198	365.5546	440.3124	472.0075	485.1338	550.239	622.0192	649.0641	655.9741	663.7976	667.2024	733.6795	925.8849	974.3986	1044.8175	1078.6552	1171.6705	1395.2432	1407.1405	1832.6679	1858.8419	2231.6314	2243.3841	2951.106	2954.8982	3496.7029	3498.9607
O=CC(C=O)(C#C)C#C	O=CC(C=O)(C#C)C#C	
InChI=1S/C7H4O2/c1-3-7(4-2,5-8)6-9/h1-2,5-6H	InChI=1S/C7H4O2/c1-3-7(4-2,5-8)6-9/h1-2,5-6H
