19
gdb 77100	2.83081	1.30682	1.17182	3.2351	80.1	-0.2219	0.0194	0.2413	1138.9261	0.158731	-382.041806	-382.032965	-382.032021	-382.075355	33.213	
C	 0.0626610407	 1.5666693816	 0.0058855984	-0.345801
N	-0.0018270832	 0.1357671914	 0.2195778252	-0.099346
C	-1.2423956246	-0.5061218647	 0.7063874851	-0.130243
C	-0.3611599492	-1.5048847008	 1.522734951	-0.329687
C	 0.7878680882	-0.5303214751	 1.2598384083	 0.387437
C	 2.2580082009	-0.771261661	 1.2336372955	-0.331702
C	 1.6492005527	 0.1310406759	 2.2986748548	-0.32739
C	-2.0983827831	 0.3374306676	 1.5536685572	 0.273768
N	-2.7583155552	 1.0292778132	 2.2044227246	-0.332003
H	 1.0758647038	 1.8348193155	-0.3096560729	 0.127002
H	-0.6188460415	 1.8420392993	-0.805174192	 0.131025
H	-0.1989348072	 2.1633158338	 0.8943654102	 0.124861
H	-1.8592366444	-0.9320538165	-0.0917647764	 0.120034
H	-0.653254461	-1.659983138	 2.5606567337	 0.131611
H	-0.2537820084	-2.4640530495	 1.01321828	 0.123311
H	 2.6243106255	-1.749678055	 1.5280083688	 0.117297
H	 2.8359641808	-0.2977781671	 0.4460987392	 0.118937
H	 1.8347858408	 1.1965973068	 2.2151501302	 0.121831
H	 1.5968635944	-0.2305363974	 3.3207573293	 0.119057
60.1282	138.2717	189.0267	199.5969	218.6861	267.1704	318.5508	362.6695	459.8917	489.9891	570.6857	641.3145	693.8937	763.4671	788.124	842.104	894.5121	911.8717	954.8672	979.571	1006.0389	1048.0613	1066.6703	1070.5345	1147.9717	1153.2845	1182.0294	1184.2612	1193.7457	1247.4882	1252.9398	1306.9964	1342.5566	1384.6352	1451.9456	1454.9302	1485.4364	1486.5519	1499.0287	1507.823	2342.9728	2977.4742	3051.1181	3069.9702	3086.3151	3105.8777	3123.6492	3128.0884	3151.6074	3202.8977	3217.578
CN1C(CC11CC1)C#N	CN1[C@@H](CC21CC2)C#N	
InChI=1S/C7H10N2/c1-9-6(5-8)4-7(9)2-3-7/h6H,2-4H2,1H3	InChI=1S/C7H10N2/c1-9-6(5-8)4-7(9)2-3-7/h6H,2-4H2,1H3/t6-/m0/s1
