16
gdb 18330	3.20155	2.31926	1.58139	2.0433	63.58	-0.2401	-0.029	0.2111	813.0683	0.131427	-383.747427	-383.740703	-383.739759	-383.778812	25.443	
O	-0.144887414	 0.094261847	 0.3354643166	-0.303636
C	-0.0578409642	 1.2805461356	 0.1586131057	 0.369643
C	-1.2324807867	 2.2697303243	 0.1466086105	-0.191846
O	-0.7225411564	 3.5286626859	-0.247529529	-0.263214
C	 0.6915728746	 3.5415156213	-0.0835449289	 0.128608
C	 1.2482683171	 3.7502237735	 1.3585943718	-0.253963
C	 2.0047750721	 2.3948908006	 1.2440215084	-0.232707
C	 1.2154842657	 2.0893703291	-0.0665450814	-0.168614
H	-2.0069092078	 1.9475104553	-0.5574790521	 0.138619
H	-1.6845450417	 2.297163711	 1.150949677	 0.124811
H	 1.1005919897	 4.2216966308	-0.8323851959	 0.089519
H	 1.8613863003	 4.6399032631	 1.5143632957	 0.10958
H	 0.4505012282	 3.7461294441	 2.1058211014	 0.114592
H	 3.0722947803	 2.5170554929	 1.0508144763	 0.115737
H	 1.8806384248	 1.6772546957	 2.0577941903	 0.11934
H	 1.7751724979	 1.6911698697	-0.9148703865	 0.103531
67.0169	131.2328	215.7123	386.2882	443.5117	534.8137	608.9278	662.2107	707.5768	739.8943	797.2964	873.5596	909.259	925.0924	947.3126	966.5055	1017.1416	1055.2757	1093.8729	1108.6189	1177.4168	1183.2865	1209.2695	1227.8392	1240.2467	1253.9916	1265.1525	1299.2026	1323.7024	1370.9507	1475.1079	1484.5573	1496.787	1851.1463	2984.5271	3068.3024	3071.3331	3073.1072	3092.0245	3102.2688	3115.9487	3132.5128
O=C1COC2CCC12	O=C1CO[C@H]2CC[C@@H]12	
InChI=1S/C6H8O2/c7-5-3-8-6-2-1-4(5)6/h4,6H,1-3H2	InChI=1S/C6H8O2/c7-5-3-8-6-2-1-4(5)6/h4,6H,1-3H2/t4-,6-/m0/s1
