17
gdb 34539	4.06469	1.14386	0.96108	3.5743	82.2	-0.2379	-0.0482	0.1897	1196.1258	0.138315	-380.869721	-380.862189	-380.861244	-380.901886	28.943	
N	 0.0784433635	-1.1677506187	-0.0520236486	-0.334374
C	 0.0085550818	-0.0113843222	-0.0231017479	 0.208637
C	-0.031850794	 1.4140652056	 0.0089257462	 0.155898
C	-1.1959315303	 2.0761248907	 0.1027001965	-0.142268
C	-1.221234777	 3.5529678833	 0.0590753848	-0.056463
C	-1.0679978571	 4.3947976356	 1.2839611298	-0.240482
N	 0.0153262962	 4.2996469524	 0.3058984768	-0.094131
C	 1.1840869218	 3.4906497541	 0.7033096832	-0.165553
C	 1.2786058663	 2.1759303974	-0.0784253827	-0.299517
H	-2.1403242222	 1.5419904197	 0.1431648253	 0.122183
H	-1.8294569871	 3.9605432411	-0.7493599977	 0.11349
H	-1.5728343708	 5.3550340243	 1.3463031381	 0.123724
H	-0.9410041389	 3.8770305433	 2.2329402875	 0.118593
H	 2.0810057278	 4.0948789073	 0.532491252	 0.116192
H	 1.1519343348	 3.2533053914	 1.7753457071	 0.10544
H	 2.0970617271	 1.5710978082	 0.321369008	 0.130859
H	 1.517829858	 2.3694738764	-1.1317210083	 0.137772
100.219	141.1992	172.0586	280.8645	391.5889	408.0848	466.3278	503.5634	569.8434	598.3802	657.8052	750.8182	780.6267	828.8048	901.8921	910.7777	967.1809	995.2302	1034.0046	1062.0852	1089.4933	1103.7498	1121.4889	1150.3704	1177.4837	1237.1503	1267.731	1308.6141	1323.8084	1359.4198	1386.3113	1402.022	1474.9297	1493.9107	1515.8209	1683.013	2332.7288	3007.9998	3034.7128	3067.0804	3095.0468	3095.4499	3096.5151	3180.1387	3186.8594
N#CC1=CC2CN2CC1	N#CC1=C[C@H]2CN2CC1	
InChI=1S/C7H8N2/c8-4-6-1-2-9-5-7(9)3-6/h3,7H,1-2,5H2	InChI=1S/C7H8N2/c8-4-6-1-2-9-5-7(9)3-6/h3,7H,1-2,5H2/t7-,9?/m0/s1
