14
gdb 51691	3.76162	1.0186	0.88972	4.616	61.03	-0.2747	-0.0168	0.2579	1251.7432	0.100686	-510.998002	-510.990098	-510.989154	-511.031898	27.356	
N	-0.2660232991	 1.2283185937	 0.0693739693	-0.563599
C	-0.0840412179	-0.0087728049	 0.1206028253	 0.494912
O	 0.9484903574	-0.6844010031	 0.6969923106	-0.243671
C	 0.8183686694	-2.0786944845	 0.4248144486	-0.129888
C	-0.625277926	-2.2037642157	-0.0660494457	 0.171167
O	-1.4360449984	-2.6344376793	 1.012246128	-0.194567
C	-2.6952063952	-3.0537910224	 0.707302552	 0.181446
O	-3.469901596	-3.387770904	 1.5456611826	-0.251534
O	-0.9586739517	-0.8931482404	-0.4509725542	-0.213613
H	 0.5031053326	 1.7225449794	 0.5147937281	 0.241333
H	 1.5369379349	-2.3754224807	-0.3457781978	 0.134432
H	 0.9870442091	-2.6470960552	 1.3398312328	 0.15541
H	-0.7634216586	-2.858942781	-0.9301403107	 0.119289
H	-2.8953495706	-3.0574943719	-0.379881579	 0.098883
48.0811	102.2546	127.416	152.7238	235.1049	378.9945	438.8181	511.8378	645.814	712.6567	733.3456	813.0187	832.4787	898.7833	934.3633	989.387	1019.4243	1039.6909	1077.6843	1109.3376	1126.1677	1167.6249	1226.4066	1249.6954	1364.6306	1382.6178	1416.4521	1444.5899	1509.9178	1817.9758	1885.746	2974.7433	3057.4843	3086.9947	3139.5628	3544.1508
N=C1OCC(OC=O)O1	[NH][C]1OC[C@@H](OC=O)O1	
InChI=1S/C4H5NO4/c5-4-7-1-3(9-4)8-2-6/h2-3,5H,1H2	InChI=1S/C4H5NO4/c5-4-7-1-3(9-4)8-2-6/h2-3,5H,1H2/t3-/m0/s1
