17
gdb 123336	6.67351	0.71859	0.68348	1.9264	81.16	-0.237	0.0175	0.2545	1598.2678	0.137013	-380.861519	-380.852939	-380.851995	-380.896056	31.206	
C	 0.0177940128	-1.2372119123	 0.1094123219	-0.436745
C	-0.0221931755	-0.0367177419	 0.0651388635	 0.29227
C	-0.0260072674	 1.4190484536	 0.011149473	-0.340719
C	 1.4060020605	 2.0151471776	-0.0679466388	-0.320995
C	 1.4083407627	 3.5097504548	-0.1153878337	 0.370969
C	 1.3503365701	 4.4036678758	-1.1691823418	-0.300157
C	 1.3368140203	 5.679287402	-0.5669645353	-0.001118
N	 1.3831284392	 5.602905649	 0.7597719084	-0.228124
N	 1.4206656886	 4.2787221074	 1.0065187783	-0.244791
H	 0.0354367642	-2.2981614214	 0.1478034382	 0.197978
H	-0.6016647303	 1.7616257293	-0.8566698907	 0.142641
H	-0.5385223015	 1.822844069	 0.8929468719	 0.133513
H	 1.9846875714	 1.6589341514	 0.7916041216	 0.118717
H	 1.9016210562	 1.6224772132	-0.959900994	 0.134708
H	 1.3277721559	 4.1612218186	-2.2196694568	 0.101518
H	 1.3012514099	 6.6474951561	-1.0447234673	 0.110563
H	 1.4789686729	 3.9643986178	 1.9609640115	 0.269772
44.452	59.4032	94.7035	182.3238	310.7375	351.1001	362.7757	471.3307	527.1792	624.1846	647.7161	674.8112	695.3934	750.8801	763.6788	806.4421	895.6741	937.6892	968.0689	1006.4483	1007.4231	1037.907	1063.2416	1136.0896	1170.8828	1239.6124	1286.2356	1292.7262	1322.5873	1366.8669	1374.5262	1441.2756	1473.3166	1491.6171	1495.2572	1604.1796	2239.308	3030.5059	3048.0405	3063.983	3102.2232	3243.238	3265.8484	3506.4468	3663.4609
C#CCCC1=CC=NN1	C#CCCc1ccn[nH]1	
InChI=1S/C7H8N2/c1-2-3-4-7-5-6-8-9-7/h1,5-6H,3-4H2,(H,8,9)	InChI=1S/C7H8N2/c1-2-3-4-7-5-6-8-9-7/h1,5-6H,3-4H2,(H,8,9)
