21
gdb 109689	2.38979	1.22034	1.1083	2.2433	75.33	-0.2311	0.0569	0.288	1246.521	0.180326	-461.326199	-461.315971	-461.315026	-461.360857	37.966	
C	 0.0913748676	 1.1370286829	-0.5332646379	-0.254711
O	-0.1078805195	 0.0083749861	 0.3093909368	-0.279833
C	-1.3641865647	-0.5880563088	 0.1954211848	 0.393847
C	-2.4858121879	 0.1382744528	 0.9051294922	-0.456265
C	-1.6589870379	-1.3812800277	-1.0614446325	 0.029047
O	-0.7232067417	-1.4013854276	-2.0928037681	-0.428225
C	-1.3379861352	-2.1108429678	 0.2349461746	-0.193912
C	-0.0187492429	-2.8503314945	 0.3077559973	-0.116014
O	 0.1823501384	-3.7297992392	-0.8153976092	-0.41891
H	 1.1162043769	 1.4734895602	-0.3585980676	 0.121874
H	-0.0313975397	 0.867587536	-1.586283611	 0.142398
H	-0.5909779211	 1.9603898764	-0.2811953014	 0.102477
H	-2.6354389013	 1.1423023262	 0.493910441	 0.122379
H	-3.4295273889	-0.4048378819	 0.7992588334	 0.115535
H	-2.2634663326	 0.2360176321	 1.9728682077	 0.124951
H	-2.6953480034	-1.3976549487	-1.4014656314	 0.081726
H	-0.2866232269	-2.266879065	-2.0608944003	 0.297462
H	-2.1730224471	-2.5870619194	 0.7426482617	 0.081905
H	 0.8104683819	-2.1439591671	 0.2720822374	 0.145465
H	 0.0562182633	-3.4148165452	 1.2459995429	 0.100651
H	-0.5308257073	-4.3770750597	-0.8124303405	 0.288152
88.7451	128.3961	166.4111	183.9758	192.7665	209.0458	270.2415	276.3225	308.1774	335.7499	367.2403	418.5442	519.3139	596.8527	643.5649	671.3305	721.5373	809.144	837.7915	949.7072	970.7458	985.5368	1033.4802	1083.5553	1096.8073	1113.2816	1130.0531	1161.688	1180.6485	1204.3623	1222.9495	1257.4241	1300.2656	1348.9001	1373.0099	1408.9572	1410.3941	1422.0487	1440.5699	1474.2954	1481.7124	1496.8615	1500.3566	1510.9326	1511.6873	3006.7543	3022.0964	3033.6134	3086.7952	3088.6825	3099.2033	3109.3917	3127.5687	3130.4923	3143.6168	3680.1061	3810.4645
COC1(C)C(O)C1CO	CO[C@@]1(C)[C@@H](O)[C@H]1CO	
InChI=1S/C6H12O3/c1-6(9-2)4(3-7)5(6)8/h4-5,7-8H,3H2,1-2H3	InChI=1S/C6H12O3/c1-6(9-2)4(3-7)5(6)8/h4-5,7-8H,3H2,1-2H3/t4-,5+,6-/m1/s1
