12
gdb 130591	3.5093	1.69529	1.14308	4.3255	67.25	-0.2489	-0.1135	0.1354	950.3096	0.079405	-435.477369	-435.471186	-435.470241	-435.508073	23.628	
O	 0.0270896216	-0.0253885752	 0.0036462552	-0.281514
C	-0.0001289408	 1.1761423765	 0.0100088989	 0.281108
C	-1.2137613527	 2.0864843337	 0.0312103871	-0.189354
C	-0.8296498427	 3.3753378055	 0.032363969	-0.215107
C	 0.6541755024	 3.4357724024	 0.0123415055	 0.150139
C	 1.1386006981	 2.1671977585	-0.0006517393	 0.288183
O	 2.4646277199	 2.1397766154	-0.0189728447	-0.212705
N	 2.9102279135	 3.4699379735	-0.0185017505	-0.12414
C	 1.8241531472	 4.2252834384	 0.0002957456	-0.115851
H	-2.2198108432	 1.6931106629	 0.0430600027	 0.135659
H	-1.4819049474	 4.2386954306	 0.0456329403	 0.136338
H	 1.9514680142	 5.2983360378	 0.0039341303	 0.147244
147.2743	206.7117	286.1344	372.6675	529.711	602.1877	632.6885	643.3766	671.2311	703.0852	741.5289	844.3059	865.61	906.9756	957.988	970.9557	1043.3514	1071.5103	1135.4272	1192.0908	1311.23	1369.3759	1398.5682	1480.2184	1586.5687	1625.3863	1834.3221	3221.7415	3249.8482	3252.5091
O=C1C=CC2=C1ON=C2	O=C1C=Cc2c1onc2	
InChI=1S/C6H3NO2/c8-5-2-1-4-3-7-9-6(4)5/h1-3H	InChI=1S/C6H3NO2/c8-5-2-1-4-3-7-9-6(4)5/h1-3H
