21
gdb 89894	4.44785	1.01341	0.97342	1.8613	82.54	-0.2457	0.0822	0.3279	1306.6615	0.18216	-387.042656	-387.034321	-387.033376	-387.075661	32.801	
C	 0.060641787	 1.5891796451	 0.0058480456	-0.408147
C	 0.0840181081	 0.0690920001	-0.0085592157	 0.061291
C	 1.1239747125	-0.6631402119	-0.9050579018	-0.29962
C	 1.3377128165	-1.6881512925	 0.2341806479	 0.37543
C	 0.7151326597	-3.1323662629	 0.1480888582	-0.334647
C	 2.1067123896	-3.694185536	 0.4674162998	 0.041368
O	 2.9953049134	-3.2195073822	-0.5508973136	-0.249812
C	 2.6854173991	-2.3442951644	 0.5438632923	-0.070229
C	 0.6794575916	-0.685143967	 1.2156783839	-0.318787
H	 1.0567861395	 1.9953691696	 0.2170253549	 0.109805
H	-0.2639456812	 1.9913992347	-0.9604718896	 0.114892
H	-0.6238983341	 1.9713083452	 0.7717446189	 0.112878
H	-0.9204711286	-0.3140325249	-0.2215046775	 0.072266
H	 0.790050555	-1.0485094421	-1.8711890444	 0.101235
H	 2.0184469575	-0.0509508631	-1.0659353983	 0.097133
H	-0.0195504267	-3.3157530447	 0.9369941574	 0.103978
H	 0.3050261628	-3.4397789772	-0.8176516813	 0.107243
H	 2.3794842934	-4.6127087285	 0.9740048766	 0.101652
H	 3.5189260451	-1.9522891561	 1.1177878687	 0.092753
H	 1.433560584	-0.0747201966	 1.7269128302	 0.094372
H	-0.0108912143	-1.0819626945	 1.9654966979	 0.094948
69.126	110.6157	217.8143	244.7267	302.7397	312.8323	380.8397	424.259	448.3545	566.0624	692.0935	784.4689	822.3933	831.2986	846.662	861.0807	892.1864	899.0295	922.1202	951.856	966.93	981.3075	1034.1081	1056.6045	1078.8681	1103.1146	1137.2573	1163.9738	1189.7235	1202.4105	1229.7144	1234.113	1239.331	1258.3942	1274.1903	1287.1545	1313.7188	1374.5071	1386.7071	1411.0803	1469.0622	1471.9667	1492.1217	1495.7315	1498.3519	3020.7416	3030.4136	3035.1725	3045.5403	3055.3738	3086.0655	3089.11	3091.882	3104.8962	3113.0308	3167.0277	3188.8158
CC1CC2(CC3OC23)C1	C[C@H]1C[C@]2(C[C@H]3O[C@@H]23)C1	
InChI=1S/C8H12O/c1-5-2-8(3-5)4-6-7(8)9-6/h5-7H,2-4H2,1H3	InChI=1S/C8H12O/c1-5-2-8(3-5)4-6-7(8)9-6/h5-7H,2-4H2,1H3/t5-,6-,7-,8+/m1/s1
