15
gdb 70957	3.53099	1.39605	1.20501	4.5207	66.24	-0.2702	-0.0133	0.2569	1007.61	0.111322	-457.655691	-457.648394	-457.647449	-457.687403	28.512	
O	 0.1277256887	 1.4304992565	-0.0616252942	-0.453314
C	 0.0814779194	 0.0615708087	-0.0227872017	 0.370169
C	 0.6074147533	-0.9801388742	-1.1903318782	-0.369228
C	-0.0564313239	-1.7655871236	-0.0436038691	 0.398809
C	 0.6970832539	-0.9035193096	 1.0057643318	-0.347052
O	-0.8572547973	-2.874377874	 0.4500240071	-0.308717
C	-1.8331039529	-1.9288774973	 0.8601263692	 0.374466
O	-2.7789830746	-2.1472469331	 1.5342821958	-0.291918
C	-1.2233070252	-0.8015919155	-0.0353191128	-0.247406
H	 0.9761039875	 1.7269357815	 0.2863731944	 0.295963
H	 0.077544779	-0.935488835	-2.1415221859	 0.123913
H	 1.690778595	-1.0538444253	-1.3120028164	 0.109244
H	 1.7855304178	-0.9893219783	 1.0244042146	 0.102792
H	 0.2624729043	-0.8853376066	 2.0078195244	 0.121503
H	-1.8028685349	-0.7512597243	-0.960688889	 0.120776
116.2265	149.9397	218.8804	324.7315	392.89	442.8399	475.2238	554.0765	572.4101	605.7974	685.4396	708.8349	741.107	817.2946	874.1512	921.5221	962.2829	1001.1873	1020.8954	1036.072	1056.0328	1100.639	1113.6438	1128.159	1153.0496	1213.4283	1219.251	1273.8087	1333.0137	1367.3443	1490.8516	1535.3321	1942.4749	3063.0517	3069.7182	3081.7279	3135.7874	3157.2375	3808.4391
OC12CC3(C1)OC(=O)C23	O[C@@]12C[C@]3(C1)OC(=O)[C@@H]23	
InChI=1S/C6H6O3/c7-4-3-5(8)1-6(3,2-5)9-4/h3,8H,1-2H2	InChI=1S/C6H6O3/c7-4-3-5(8)1-6(3,2-5)9-4/h3,8H,1-2H2/t3-,5-,6+/m0/s1
