19
gdb 40177	3.03787	1.55177	1.3319	0.9713	74.26	-0.2472	0.086	0.3331	1020.757	0.160316	-422.996739	-422.989287	-422.988343	-423.028426	30.116	
C	-0.1019120454	 1.5057889816	-0.0158718223	-0.310766
C	 1.2585587595	 0.8335612471	-0.0258135735	-0.335846
C	 0.0170639366	 0.0038283814	 0.0267391711	 0.443641
C	-0.3499380977	-0.7788848333	 1.2730938298	-0.301393
C	-1.7653256127	-1.3053886576	 1.176330422	 0.057613
O	-2.7728233913	-0.35674791	 0.8191182834	-0.254229
C	-2.4169561041	-1.3619606219	-0.1408923594	 0.024666
C	-1.6632758865	-0.884367026	-1.3701661591	-0.115744
O	-0.26989882	-0.7050149496	-1.1517028847	-0.295463
H	-0.4257036895	 2.0260824616	 0.8783119278	 0.117161
H	-0.4403841053	 1.9478827582	-0.9459588438	 0.117989
H	 1.8034946133	 0.8271845373	-0.9627413229	 0.123712
H	 1.8782486989	 0.8898764534	 0.8629293595	 0.110394
H	 0.3289397437	-1.6348462176	 1.3827443031	 0.109997
H	-0.2394319601	-0.1569455107	 2.1685388645	 0.108125
H	-2.0682997614	-2.0163190462	 1.9456640896	 0.089769
H	-3.2004972642	-2.098174457	-0.3193914892	 0.094985
H	-1.7428308703	-1.6303906225	-2.166659966	 0.110045
H	-2.1246019034	 0.0496788417	-1.7263940999	 0.105344
106.964	172.7512	274.0961	316.3057	353.4884	377.9847	422.1542	501.08	549.3023	681.7093	764.5668	766.1388	804.5769	823.4808	872.145	913.7955	927.0067	943.4885	982.172	987.6495	1043.1881	1048.103	1055.5363	1076.039	1088.7022	1116.8086	1159.8751	1185.6644	1223.6374	1271.9995	1287.6299	1293.7098	1317.6719	1373.9235	1385.7596	1408.3331	1452.7281	1467.6086	1476.4009	1485.7968	1500.1007	2988.8719	3023.6011	3070.3941	3081.9358	3101.7694	3116.2461	3134.4017	3140.4356	3219.3125	3233.3698
C1CC11CC2OC2CO1	C1CC21C[C@H]1O[C@H]1CO2	
InChI=1S/C7H10O2/c1-2-7(1)3-5-6(9-5)4-8-7/h5-6H,1-4H2	InChI=1S/C7H10O2/c1-2-7(1)3-5-6(9-5)4-8-7/h5-6H,1-4H2/t5-,6+/m1/s1
