14
gdb 25527	5.56507	0.98751	0.83869	2.1976	69.92	-0.1883	-0.0106	0.1777	1269.4251	0.101261	-470.048337	-470.040059	-470.039115	-470.081978	29.584	
N	-0.6726370719	 1.1955734002	-0.7712670819	-0.602722
C	-0.2462033253	 0.0781756081	-0.3570938925	 0.471206
N	-0.8003881651	-0.7287798	 0.6035849498	-0.33539
C	-0.0304274297	-1.8873065748	 0.7817234534	-0.177773
C	 0.9895985114	-1.771937909	-0.0775525461	 0.420315
N	 2.0846951469	-2.5574179886	-0.3964066654	-0.408849
C	 2.3553828611	-3.7614004173	 0.1940318045	 0.140508
O	 1.6681146619	-4.2649229396	 1.0551984437	-0.304252
O	 0.8982098471	-0.5938957056	-0.7892074054	-0.254073
H	-0.0655533868	 1.5772682756	-1.4903077401	 0.225217
H	-1.6438714559	-0.4844429718	 1.0883700318	 0.279072
H	-0.2649411905	-2.6673661857	 1.4792724042	 0.178495
H	 2.7028029744	-2.1992071228	-1.1084520615	 0.272001
H	 3.2764425626	-4.2183998187	-0.2096249344	 0.096245
50.8137	95.3413	158.7615	184.5368	292.5235	306.1672	378.562	492.5751	515.6182	595.6356	618.3731	696.7688	723.9155	744.9471	755.9421	865.935	935.604	990.1844	998.3738	1031.8913	1092.3455	1154.8939	1204.5197	1279.6973	1362.922	1396.155	1427.2927	1547.68	1733.9684	1791.454	1807.8939	2977.124	3337.5182	3552.7153	3633.4527	3716.2527
N=C1NC=C(NC=O)O1	[NH][C@@H]1NC=C(NC=O)O1	
InChI=1S/C4H5N3O2/c5-4-6-1-3(9-4)7-2-8/h1-2H,(H2,5,6)(H,7,8)	InChI=1S/C4H6N3O2/c5-4-6-1-3(9-4)7-2-8/h1-2,4-6H,(H,7,8)/t4-/m1/s1
