20
gdb 95451	2.91984	1.19843	0.95049	0.8603	82.03	-0.229	0.0111	0.24	1283.6691	0.17141	-403.125468	-403.116637	-403.115693	-403.159965	32.559	
C	-0.2156192872	 1.440345602	-0.0673887258	-0.396898
C	-0.1059451019	-0.0673233286	 0.1632124313	 0.057598
O	 0.273628409	-0.7107628907	-1.056550032	-0.280409
C	 1.4107753166	-1.5417058431	-0.8517953606	-0.11195
C	 1.8104691285	-1.3120957648	 0.5764849544	-0.241764
C	 0.9492618275	-0.4877844011	 1.1694217171	 0.310638
C	 0.9189499571	-0.0198301053	 2.5715549139	-0.115801
C	 0.3363137887	-0.8859843929	 3.6408662917	-0.229888
N	 1.7791477997	-0.6053762314	 3.6087043648	-0.317217
H	 0.7612724071	 1.8639554339	-0.3190137706	 0.120337
H	-0.9021722697	 1.6354663302	-0.8956480723	 0.128147
H	-0.6030137802	 1.9471819157	 0.8224864758	 0.114393
H	-1.0956487338	-0.4459635537	 0.473489549	 0.079769
H	 1.1529442777	-2.5959568557	-1.0481485213	 0.101711
H	 2.2033302988	-1.2678122245	-1.5652004853	 0.107149
H	 2.6865199985	-1.7696177547	 1.0200943425	 0.099079
H	 0.7873314733	 1.0543185662	 2.6900703878	 0.103042
H	-0.2038067713	-0.4355367353	 4.4689049259	 0.12198
H	-0.0077814924	-1.8741619659	 3.3481642216	 0.116655
H	 2.270679934	-1.4119641004	 3.2317833622	 0.23343
41.196	76.315	146.7078	182.423	237.4518	275.4992	299.3769	424.3671	443.4281	559.3442	673.1052	763.1594	800.6645	812.5525	840.4036	867.1778	887.5847	945.2635	972.0871	998.5945	1034.0443	1047.2224	1063.5856	1098.4487	1118.3799	1119.6218	1143.6209	1173.5049	1198.1077	1205.8227	1257.4387	1279.6894	1301.5402	1333.13	1371.5216	1382.7632	1402.3532	1422.5151	1487.5948	1495.087	1503.7851	1524.211	1722.7518	2943.34	2962.2	2990.2566	3038.5175	3109.2672	3111.4661	3120.9053	3122.1746	3199.134	3204.6884	3504.9736
CC1OCC=C1C1CN1	C[C@H]1OCC=C1[C@H]1CN1	
InChI=1S/C7H11NO/c1-5-6(2-3-9-5)7-4-8-7/h2,5,7-8H,3-4H2,1H3	InChI=1S/C7H11NO/c1-5-6(2-3-9-5)7-4-8-7/h2,5,7-8H,3-4H2,1H3/t5-,7-/m1/s1
