16
gdb 19187	3.28152	2.14168	1.73591	2.5552	64.72	-0.2369	0.0035	0.2404	792.8859	0.131532	-383.699388	-383.692737	-383.691793	-383.729671	27.219	
O	 0.153052399	 1.4879516235	-0.1210754957	-0.440683
C	 0.0641851908	 0.1063370238	-0.0267791666	 0.178965
C	 0.1555116273	-0.6233166101	 1.3689486205	-0.173489
C	-1.0420165605	-0.0227007096	 2.090400434	-0.111429
C	-2.0107606474	-0.024900119	 1.1594424958	-0.114654
C	-1.3331953871	-0.6271119555	-0.0669865924	-0.135721
C	-0.5885481378	-1.8167736118	 0.6311491887	 0.157294
O	 0.1625110725	-2.5871170565	-0.2692226096	-0.43857
H	-0.4712988248	 1.8510414592	 0.5217632223	 0.27383
H	 0.7629260965	-0.3119313239	-0.7503793702	 0.10876
H	 1.0948148938	-0.7574690617	 1.9055624359	 0.059887
H	-1.0849999372	 0.2847291395	 3.126029535	 0.10335
H	-3.0435467298	 0.2841459956	 1.2377941029	 0.104354
H	-1.9026142244	-0.7667926404	-0.9846490199	 0.069453
H	-1.2148178975	-2.4341590622	 1.2864484091	 0.071475
H	 0.6380096767	-3.2583536809	 0.2300701003	 0.287179
229.6117	254.2539	298.4762	315.8295	333.9631	496.4256	514.6774	570.7978	600.7054	736.425	774.8286	802.3954	833.3689	878.8243	917.635	925.6946	933.1433	939.8577	996.597	1084.5246	1104.3938	1130.8132	1154.2797	1166.6313	1183.9292	1220.2788	1239.6991	1250.4213	1278.6467	1312.3342	1341.0573	1411.8904	1454.378	1603.6441	3032.862	3117.6252	3130.6523	3138.675	3216.4945	3242.1722	3745.6725	3821.1965
OC1C2C=CC1C2O	O[C@H]1[C@H]2C=C[C@@H]1[C@H]2O	
InChI=1S/C6H8O2/c7-5-3-1-2-4(5)6(3)8/h1-8H	InChI=1S/C6H8O2/c7-5-3-1-2-4(5)6(3)8/h1-8H/t3-,4+,5-,6-
