17
gdb 37622	2.93196	2.33564	2.0581	1.4856	73.18	-0.2384	0.0128	0.2512	774.4572	0.140201	-384.666232	-384.660836	-384.659892	-384.695525	24.583	
O	-0.0253019282	 1.4593717112	 0.0121535851	-0.250087
C	 1.3333287222	 1.8122034568	 0.0562596072	 0.061807
C	 1.9601801006	 0.9737445969	 1.185753462	-0.101224
C	 2.5983111063	 0.0627235331	 0.1616747319	-0.07536
C	 1.2902697255	-0.3236930488	 0.8165554998	-0.064415
C	 0.0366936162	 0.0037901762	-0.0469496443	-0.000433
C	 0.2577089164	-0.3327374724	-1.4998786044	-0.070305
C	 1.35178298	 0.2345150381	-2.0207319632	-0.05946
C	 2.1913148648	 0.9647723877	-1.0231443585	-0.119829
H	 1.4403758977	 2.8946536053	 0.029015889	 0.084041
H	 2.2518346005	 1.2771125992	 2.1817891875	 0.090065
H	 3.4927859342	-0.5455865782	 0.225544315	 0.085483
H	 1.2694833922	-1.1553234323	 1.5078626118	 0.093781
H	-0.8906112895	-0.3902230254	 0.3690613113	 0.07333
H	-0.4645869792	-0.9132036153	-2.0621122993	 0.09388
H	 1.623199269	 0.177738379	-3.0696258711	 0.093302
H	 3.0164216015	 1.541807319	-1.4412472396	 0.065425
361.4412	412.6672	449.0936	590.1725	623.8492	666.6966	694.9156	704.1013	746.7389	786.958	802.5299	826.0905	866.2619	913.1948	920.877	950.9971	955.091	960.2151	981.7833	1013.0998	1035.0298	1037.0544	1057.9741	1065.5069	1092.7852	1150.5374	1154.5208	1210.7238	1250.1917	1261.891	1273.9985	1288.3077	1317.2805	1347.699	1380.9938	1390.3067	1664.0582	3106.8843	3112.7789	3143.7963	3173.4501	3179.0822	3200.9242	3203.5007	3215.0595
O1C2C3C4C3C1C=CC24	O1[C@H]2[C@@H]3[C@H]4[C@@H]3[C@@H]1C=C[C@@H]24	
InChI=1S/C8H8O/c1-2-4-6-5-3(1)8(9-4)7(5)6/h1-8H	InChI=1S/C8H8O/c1-2-4-6-5-3(1)8(9-4)7(5)6/h1-8H/t3-,4+,5-,6+,7-,8-/m1/s1
