16
gdb 7740	3.42187	1.83057	1.23155	5.702	71.25	-0.2129	-0.0193	0.1936	945.8534	0.132836	-379.949345	-379.942044	-379.941099	-379.980678	28.229	
N	 0.0652726309	 1.3591163102	 0.1582040808	-0.560703
C	-0.0140979539	 0.002469294	-0.008941934	 0.392134
C	-1.1813604997	-0.6853008893	-0.0543371303	-0.290043
C	-1.2161374977	-2.13731442	-0.063759123	 0.400931
O	-2.2475134777	-2.7875084595	-0.0375016599	-0.362897
C	 0.1446849611	-2.840380094	-0.0536387362	-0.281123
N	 1.1719947761	-2.0135252639	-0.6820919706	-0.306439
C	 1.3127466487	-0.7189081182	-0.0379849518	-0.246371
H	 0.8878824201	 1.8336469262	-0.1783430912	 0.256909
H	-0.7879441012	 1.8903806134	 0.0784455953	 0.262052
H	-2.1386733612	-0.1721695373	-0.0397907382	 0.079557
H	 0.3688823175	-3.0955076293	 1.0017007771	 0.095295
H	 0.0410353905	-3.7799044168	-0.6011684062	 0.124957
H	 2.0629683858	-2.4968139665	-0.6752889442	 0.225282
H	 2.0419756941	-0.1209373633	-0.6001025764	 0.103957
H	 1.6857009067	-0.7713767558	 1.0056182689	 0.106503
118.1759	166.9597	259.3827	340.5218	392.0445	435.1262	450.4507	487.3506	496.7024	549.4269	612.4865	648.9929	745.1096	865.297	877.1261	938.0968	984.4934	1001.0012	1050.1232	1100.0975	1169.1922	1206.3391	1260.8984	1282.2302	1283.8351	1313.4034	1387.2007	1434.6272	1475.0328	1491.1303	1496.3459	1642.0397	1683.3612	1759.8332	2892.0812	2903.9833	3030.0502	3101.866	3169.4085	3532.3572	3581.6209	3692.5246
NC1=CC(=O)CNC1	NC1=CC(=O)CNC1	
InChI=1S/C5H8N2O/c6-4-1-5(8)3-7-2-4/h1,7H,2-3,6H2	InChI=1S/C5H8N2O/c6-4-1-5(8)3-7-2-4/h1,7H,2-3,6H2
