17
gdb 34211	3.87094	1.36979	1.35033	1.2667	78.34	-0.2272	0.0483	0.2756	1000.1243	0.137673	-384.658366	-384.65154	-384.650596	-384.689325	28.446	
C	 0.0643084713	-1.1553913169	-0.0405667904	-0.345327
C	 0.0060629459	 0.0462613055	 0.0046712049	 0.068392
C	-0.0607064755	 1.4657870714	 0.0594454391	 0.209624
C	-1.1189212199	 2.2454320798	 0.8456158798	-0.293901
C	-0.6453903908	 3.6419975172	 0.3926895569	 0.032773
C	 0.8497789392	 3.6375622368	 0.7814171207	-0.23228
C	 1.1930787844	 2.3738686026	 0.0057351019	-0.167227
C	 0.2216400456	 2.3739017646	-1.1411717023	 0.051974
O	-0.6036790636	 3.5105298265	-1.0413306572	-0.257211
H	 0.1147389209	-2.2148556634	-0.0799155379	 0.17597
H	-2.1332948044	 2.0194740708	 0.5085013658	 0.116641
H	-1.0478457568	 2.0989833234	 1.9262088661	 0.110468
H	-1.2495597666	 4.5036995107	 0.6664058524	 0.088218
H	 1.3762697202	 4.5185268645	 0.4037860754	 0.11201
H	 1.0058130675	 3.5516437375	 1.8598075567	 0.10798
H	 2.1852551721	 1.9513441299	-0.0652568149	 0.103822
H	 0.4083778705	 2.0196821392	-2.1442302471	 0.118075
142.4484	152.2699	398.3793	413.8569	485.6123	500.2834	525.7274	567.1731	578.6964	646.8669	663.8122	721.1419	806.6986	874.1655	888.4738	894.9777	910.3941	942.5267	962.2812	982.0722	1013.0313	1022.9803	1060.7759	1084.3295	1135.323	1149.2494	1172.3329	1208.6544	1240.7926	1275.8202	1278.2233	1302.2162	1340.0366	1396.6057	1476.0167	1494.8882	2234.6398	3061.6665	3069.7836	3114.0507	3123.9808	3155.9152	3220.871	3236.4452	3505.0705
C#CC12CC3CC1C2O3	C#C[C@@]12C[C@H]3C[C@@H]1[C@@H]2O3	
InChI=1S/C8H8O/c1-2-8-4-5-3-6(8)7(8)9-5/h1,5-7H,3-4H2	InChI=1S/C8H8O/c1-2-8-4-5-3-6(8)7(8)9-5/h1,5-7H,3-4H2/t5-,6-,7+,8-/m1/s1
