21
gdb 114105	3.16127	1.18955	1.0103	2.7428	79.25	-0.2394	0.0644	0.3039	1272.6161	0.181163	-424.180264	-424.171052	-424.170108	-424.214501	34.129	
C	 0.1927216042	 1.6286355058	 0.5302372292	-0.236199
O	 0.5823413234	 0.3899600976	-0.0186100759	-0.237393
C	 0.6939095091	-0.623758719	 0.9317729972	 0.17195
C	-0.5930608722	-1.2790502497	 1.5346249212	-0.344723
C	-0.0060234193	-2.690076882	 1.205329107	 0.297583
C	 0.1843828566	-3.675177249	 2.3340937821	-0.50177
C	-0.471031325	-3.1863122573	-0.1743633476	-0.110489
O	 0.5009433973	-2.3595035515	-0.852106635	-0.284821
C	 1.134215224	-1.9916966443	 0.3860731659	 0.021294
H	 0.9129728098	 1.9837201959	 1.2847619158	 0.102035
H	 0.1551465441	 2.3497055396	-0.2896027702	 0.129398
H	-0.8005514442	 1.5774565727	 1.0014431991	 0.107352
H	 1.3750971436	-0.3237733613	 1.7475566696	 0.060239
H	-0.7619624593	-1.0815991588	 2.5958274875	 0.098082
H	-1.5046203983	-1.0452016085	 0.9782118669	 0.107159
H	-0.7829434949	-4.035086781	 2.705603542	 0.121595
H	 0.7626244058	-4.5473459309	 2.0104792099	 0.120691
H	 0.7091259135	-3.2184178037	 3.1802381966	 0.118332
H	-0.2806800015	-4.2540389695	-0.3564736261	 0.09165
H	-1.5013260015	-2.9500442862	-0.4691912154	 0.099589
H	 2.1979690349	-2.248503889	 0.4011125504	 0.068445
58.9757	99.872	166.201	195.0617	210.7053	241.263	287.7423	342.8649	390.3349	434.1049	510.106	628.0626	698.5351	797.1925	837.3625	878.1816	923.8643	940.6861	967.0972	999.928	1014.7261	1041.2129	1081.9263	1110.2587	1149.0729	1149.8268	1178.8625	1184.9023	1190.2285	1221.813	1249.4507	1253.1335	1285.4572	1305.6808	1332.3592	1380.6097	1388.4563	1414.1654	1472.8613	1483.1887	1488.7254	1491.4374	1493.0481	1508.6404	1523.6924	2944.2363	2971.8679	2990.4145	3019.0741	3021.4662	3045.0436	3056.3382	3060.9625	3083.7484	3095.1887	3114.6551	3116.4768
COC1CC2(C)COC12	CO[C@H]1C[C@@]2(C)CO[C@@H]12	
InChI=1S/C7H12O2/c1-7-3-5(8-2)6(7)9-4-7/h5-6H,3-4H2,1-2H3	InChI=1S/C7H12O2/c1-7-3-5(8-2)6(7)9-4-7/h5-6H,3-4H2,1-2H3/t5-,6-,7-/m0/s1
