17
gdb 74967	2.51563	1.65874	1.44903	2.7379	74.19	-0.2275	-0.0106	0.2169	991.1323	0.136759	-421.840588	-421.833092	-421.832148	-421.87242	29.086	
C	-0.0814079536	 1.5023563119	 0.0467708498	-0.514149
C	-0.0217158032	 0.0125300132	 0.003663446	 0.339879
C	-0.0418031072	-0.8135875798	-1.0638678821	-0.18558
C	 0.0765901299	-2.2426311541	-0.5890336992	-0.205729
C	 1.4575920557	-2.4033916926	 0.097467893	-0.075049
O	 1.3944642022	-1.5231116188	 1.2367258692	-0.280445
C	 0.0916606091	-0.8829671871	 1.2172778892	-0.109717
C	-0.7749975274	-2.0529485131	 0.7025076957	 0.436052
O	-1.7486266892	-2.6031757911	 1.114770265	-0.322141
H	 0.8319904804	 1.9195637916	 0.4877618078	 0.141615
H	-0.2019918258	 1.9258008932	-0.9544145997	 0.129133
H	-0.9175732963	 1.8483557325	 0.6665362984	 0.136654
H	-0.1134711789	-0.5216807688	-2.1048239817	 0.106961
H	-0.2158790445	-3.0380103945	-1.2700643497	 0.09306
H	 1.6181742684	-3.4327870537	 0.4413534622	 0.111623
H	 2.2883496841	-2.1060000492	-0.552032243	 0.105408
H	-0.1129456538	-0.4694128098	 2.2016550591	 0.092426
123.6727	175.286	200.6954	247.0645	295.3392	402.3035	457.1999	541.1663	577.4244	642.0434	712.6273	772.6983	828.5675	860.7569	887.6268	898.5888	911.8356	974.8064	981.4925	1009.4734	1058.9947	1067.0146	1101.4728	1154.7462	1176.5277	1215.6956	1228.3157	1276.4022	1276.9349	1335.4359	1368.8717	1413.2867	1478.0271	1485.8099	1524.6831	1659.2526	1901.338	3018.3514	3022.8313	3063.1108	3074.1193	3110.0078	3155.224	3161.1711	3202.1096
CC1=CC2COC1C2=O	CC1=C[C@H]2CO[C@@H]1C2=O	
InChI=1S/C7H8O2/c1-4-2-5-3-9-7(4)6(5)8/h2,5,7H,3H2,1H3	InChI=1S/C7H8O2/c1-4-2-5-3-9-7(4)6(5)8/h2,5,7H,3H2,1H3/t5-,7-/m0/s1
