18
gdb 106239	2.61534	1.31848	1.05406	3.06	74.19	-0.2579	0.0178	0.2756	1184.9612	0.146432	-439.053646	-439.044682	-439.043738	-439.087523	33.184	
C	 0.1942134835	 1.7558362095	 0.379735046	-0.420223
C	 0.0645805021	 0.2505534546	 0.4148447455	-0.084731
C	 1.0973680671	-0.7320030523	-0.1745863436	-0.267796
C	 2.4658521496	-0.27412063	 0.1968406573	 0.440713
N	 3.5548896522	-0.1237840321	-0.4034784361	-0.556431
O	 2.1608150843	-0.1111902572	 1.5547270601	-0.30727
C	 0.8302426723	-0.6554753936	 1.3164122096	 0.404659
C	 0.3322852781	-1.6519943201	 2.3264044098	-0.188599
O	-0.955333571	-2.1413046152	 2.000258645	-0.402182
H	 1.1999311277	 2.0729982472	 0.6627650936	 0.142977
H	-0.0189799628	 2.1406475276	-0.6221286421	 0.129213
H	-0.5128535859	 2.2196829462	 1.0759358422	 0.117804
H	-0.9368596834	-0.1315470743	 0.2231876465	 0.10182
H	 0.8449755194	-1.479386816	-0.9121961686	 0.124941
H	 4.2918417744	 0.1732664648	 0.2384624562	 0.229549
H	 1.0025943305	-2.5173771959	 2.348170289	 0.132376
H	 0.3619833159	-1.1931454624	 3.3266232615	 0.110771
H	-1.596206424	-1.4549772906	 2.2105571781	 0.292409
63.6384	130.8497	164.4476	183.521	202.2968	269.7033	315.0568	381.7354	410.1899	462.9888	588.2821	656.4915	681.5111	719.4697	797.444	864.2699	894.6749	905.6444	941.0306	970.8938	1014.6546	1034.046	1064.1214	1087.7353	1119.9404	1129.6815	1146.9511	1211.2105	1225.4683	1285.2375	1321.6851	1389.2582	1407.1207	1416.5531	1475.4377	1491.2346	1499.8727	1508.9785	1830.2038	2991.5909	3040.9863	3077.6932	3101.2543	3126.3641	3141.5849	3231.0298	3477.5795	3824.3915
CC1C2C(=N)OC12CO	C[C@H]1[C@H]2[C]([NH])O[C@@]12CO	
InChI=1S/C6H9NO2/c1-3-4-5(7)9-6(3,4)2-8/h3-4,7-8H,2H2,1H3	InChI=1S/C6H9NO2/c1-3-4-5(7)9-6(3,4)2-8/h3-4,7-8H,2H2,1H3/t3-,4-,6-/m0/s1
