17
gdb 73018	2.90317	1.54038	1.22942	2.3577	68.4	-0.2196	0.0451	0.2647	1034.5773	0.135185	-458.878179	-458.870328	-458.869384	-458.910655	29.954	
O	 0.2596712072	 1.3877499202	 0.050437818	-0.455518
C	 0.0382874729	 0.0361004293	 0.0447001703	 0.270881
C	-0.8846698535	-0.675302629	-0.9203830012	-0.135725
O	-1.1791082573	-1.7014826093	 0.0708425883	-0.284466
C	-0.4432552402	-1.0038109596	 1.0831141808	-0.098975
C	 0.9956908101	-0.9309571038	 0.6744868962	 0.369973
C	 2.0319907571	-1.9382326537	 0.1880175598	-0.374588
C	 2.9707766603	-1.196118563	 1.1639542379	-0.073842
O	 1.9126682072	-0.2821291796	 1.5706344122	-0.339448
H	 1.080230751	 1.5219727343	 0.5480987012	 0.297897
H	-1.7860652353	-0.0993936163	-1.1592744032	 0.122125
H	-0.4502181029	-1.0892069857	-1.8381240038	 0.106534
H	-0.8249660023	-0.9869231085	 2.0978540071	 0.115767
H	 1.8150462874	-2.9765845715	 0.4413038651	 0.129014
H	 2.3003805175	-1.8679338825	-0.8676724534	 0.118608
H	 3.3330611036	-1.7799965108	 2.0156891011	 0.117929
H	 3.8074438372	-0.6568850004	 0.7086011938	 0.113833
87.9559	142.5182	184.4797	243.5216	277.5533	405.0715	425.3643	453.3973	539.4667	575.5821	694.414	749.6775	797.798	852.0514	901.4635	944.8524	954.9922	988.0032	1005.2828	1018.841	1048.6852	1072.5121	1109.0414	1138.352	1147.6823	1166.7806	1201.3208	1213.6718	1244.5933	1283.0721	1322.6761	1345.8359	1434.8392	1475.6338	1490.0866	1520.8657	1528.5859	3023.9524	3041.5188	3075.3431	3081.0819	3089.2219	3137.6325	3179.0028	3725.0596
OC12COC1C21CCO1	O[C@]12CO[C@H]1[C@]12CCO1	
InChI=1S/C6H8O3/c7-5-3-8-4(5)6(5)1-2-9-6/h4,7H,1-3H2	InChI=1S/C6H8O3/c7-5-3-8-4(5)6(5)1-2-9-6/h4,7H,1-3H2/t4-,5-,6+/m1/s1
