22
gdb 80478	2.0335	1.66936	1.50148	2.355	81.28	-0.213	0.0639	0.2769	1073.1384	0.195013	-404.329105	-404.320119	-404.319175	-404.361976	35.476	
C	-0.1578590354	 1.5741026938	 0.021147067	-0.445626
C	-0.0223100983	 0.0711364549	-0.0915729329	 0.017014
C	 0.6603536204	-0.6543284562	-1.2000337851	-0.047658
C	 1.6656436862	 0.0751784746	-2.0867288183	-0.26523
C	 2.785672353	 0.5901304201	-1.141943324	 0.064843
O	 2.7822190044	 2.0038132903	-0.9544329683	-0.406599
C	 2.5203884311	-0.144373014	 0.2073623453	 0.045697
C	 2.797262973	 0.6660128675	 1.4706586993	-0.391866
N	 1.1750123661	-0.7558992265	 0.1782683017	-0.127395
H	 0.693258575	 2.120600736	-0.3831639508	 0.152388
H	-1.061359689	 1.888870338	-0.5150993738	 0.108931
H	-0.2873950436	 1.8667745737	 1.0690075079	 0.11802
H	-0.9002529344	-0.4393686174	 0.3056785113	 0.085378
H	 0.2006496867	-1.5486625707	-1.6162128841	 0.079622
H	 2.0752552704	-0.6254030053	-2.8214066996	 0.104032
H	 1.2240676812	 0.9068604284	-2.646716752	 0.10146
H	 3.7729825642	 0.2981557635	-1.524679941	 0.073225
H	 2.996042118	 2.4131317301	-1.7982018432	 0.284805
H	 3.1960282079	-1.0097890092	 0.215013665	 0.082798
H	 2.1965966341	 1.5751313443	 1.5139516634	 0.133226
H	 2.5749911988	 0.05584973	 2.3503304872	 0.11884
H	 3.8496197202	 0.961694034	 1.5111257652	 0.114093
127.253	163.1596	210.5913	235.1931	250.694	274.534	292.4299	310.937	412.1483	449.6961	513.5264	560.588	668.0033	713.6115	736.232	758.7609	789.7503	877.2289	903.1521	953.7278	1003.5976	1005.4402	1026.3462	1057.9282	1084.2661	1113.7449	1143.9933	1152.138	1158.504	1184.8751	1217.048	1238.8199	1282.7797	1314.4916	1340.1583	1361.5548	1374.2025	1382.5333	1406.4086	1423.4189	1432.6829	1437.3037	1483.2601	1488.8712	1497.1013	1510.5328	1521.6528	2992.9034	3015.4383	3028.8146	3043.3523	3053.2804	3080.4306	3081.7813	3090.3236	3117.9698	3118.3401	3148.4133	3159.1163	3825.7688
CC1C2CC(O)C(C)N12	C[C@H]1[C@H]2C[C@@H](O)[C@@H](C)N12	
InChI=1S/C7H13NO/c1-4-6-3-7(9)5(2)8(4)6/h4-7,9H,3H2,1-2H3	InChI=1S/C7H13NO/c1-4-6-3-7(9)5(2)8(4)6/h4-7,9H,3H2,1-2H3/t4-,5+,6+,7+,8?/m0/s1
