17
gdb 50856	5.78156	0.77618	0.72184	4.0305	73.65	-0.2542	-0.0013	0.253	1560.3587	0.135356	-455.16256	-455.153409	-455.152465	-455.198006	32.085	
N	 0.2869832782	 1.1511522421	-0.359357925	-0.399502
C	-0.0308758482	-0.0175181601	 0.009408081	 0.084106
N	-1.3336438038	-0.4464029179	 0.2364312642	-0.376092
C	-2.5114206259	 0.2764914147	 0.1167123038	 0.53895
O	-2.6382125989	 1.419870313	-0.2158964915	-0.354489
O	-3.5295253538	-0.5633650655	 0.4674976896	-0.286853
C	-4.8257579904	-0.0039941718	 0.3737183606	 0.162552
C	-5.6646791211	-0.3638900217	-0.8141780833	-0.277716
C	-5.9472793565	-0.9727491188	 0.5471006578	-0.300839
H	 1.2987912828	 1.2150668057	-0.4569320796	 0.229356
H	 0.6698511355	-0.8410438784	 0.19724662	 0.095978
H	-1.4535189142	-1.4007477243	 0.5351029691	 0.262518
H	-4.8885826596	 0.9950050526	 0.7865747186	 0.125135
H	-6.3387886424	 0.3869381884	-1.2099468346	 0.12577
H	-5.2118416877	-1.0091267386	-1.5581202828	 0.123894
H	-5.6789448034	-2.013506997	 0.6881962453	 0.124405
H	-6.8217795007	-0.6503734323	 1.1004514969	 0.122827
39.2741	62.9165	92.9506	132.7381	189.4272	239.4629	328.3758	403.3831	435.7679	570.3528	574.1439	749.4954	771.0811	795.9962	822.1191	826.5018	850.036	953.1825	976.5123	1005.5484	1057.9048	1061.8505	1075.2532	1112.6582	1130.6294	1190.2479	1191.7159	1205.215	1242.0888	1264.7522	1392.3284	1430.9688	1456.1956	1498.1272	1546.9026	1740.6783	1868.5448	3034.3848	3141.3531	3144.4095	3192.9769	3224.2854	3238.5602	3503.0198	3649.9178
N=CNC(=O)OC1CC1	N=CNC(=O)OC1CC1	
InChI=1S/C5H8N2O2/c6-3-7-5(8)9-4-1-2-4/h3-4H,1-2H2,(H2,6,7,8)	InChI=1S/C5H8N2O2/c6-3-7-5(8)9-4-1-2-4/h3-4H,1-2H2,(H2,6,7,8)
