16
gdb 71337	3.35386	1.46648	1.22203	3.9978	71.05	-0.2299	0.0213	0.2512	1015.0088	0.123491	-437.809324	-437.801794	-437.80085	-437.841428	28.889	
O	-0.2227403088	 1.223308298	-0.2936102163	-0.458033
C	 0.0015014577	-0.1092887817	-0.0615054562	 0.392366
C	 0.7790190241	-0.8196877657	 1.0714590104	-0.33353
C	 0.1539009095	-1.9699500064	 0.2529160875	-0.065716
C	-1.1525920432	-1.1635538947	-0.040153476	-0.071447
N	-1.0576661971	-1.4499178293	-1.5004341613	-0.083736
C	-1.690241362	-0.7792552831	-2.5156376414	 0.135874
O	-1.1637412193	-0.4485881216	-3.5558132333	-0.323004
C	 0.3613672649	-1.2438838785	-1.1122553961	-0.090237
H	 0.5800676177	 1.6281650461	-0.6405241881	 0.296584
H	 1.8696001158	-0.7429390319	 1.0467420732	 0.103476
H	 0.4005375463	-0.6785042993	 2.0870821031	 0.110174
H	 0.2113124298	-3.0430678989	 0.4104287721	 0.101577
H	-2.0877152746	-1.1461105339	 0.5176382934	 0.103277
H	-2.7731024742	-0.6494408974	-2.3125129241	 0.070959
H	 1.1926634935	-1.3100092717	-1.8102193669	 0.111414
82.1944	168.9057	220.1051	242.7828	347.3006	363.5179	430.9449	492.4672	613.8278	698.9428	723.2409	758.4059	833.2869	861.6287	875.6403	925.7737	990.2827	1002.8348	1026.4991	1030.2693	1069.1173	1082.0136	1088.4124	1123.3141	1162.1696	1168.9709	1189.7257	1217.929	1280.7271	1289.1353	1362.5024	1393.4725	1419.2681	1516.005	1788.5402	2924.6877	3055.8602	3117.1247	3136.6024	3154.0644	3170.4297	3807.241
OC12CC3C1N(C=O)C23	O[C@@]12C[C@H]3[C@@H]1N(C=O)[C@@H]23	
InChI=1S/C6H7NO2/c8-2-7-4-3-1-6(4,9)5(3)7/h2-5,9H,1H2	InChI=1S/C6H7NO2/c8-2-7-4-3-1-6(4,9)5(3)7/h2-5,9H,1H2/t3-,4-,5+,6-
