24
gdb 118523	2.81858	0.76612	0.6631	4.1016	90.03	-0.3096	0.0367	0.3463	1787.1657	0.215999	-368.446278	-368.435052	-368.434107	-368.483581	39.949	
C	-0.7581160054	 1.4720306338	-0.8779483049	-0.381012
C	-0.4870566824	 0.0445367202	-0.3938396246	-0.183611
C	-1.7694680539	-0.7841635233	-0.2530621267	-0.173593
C	-1.5443760366	-2.2659333731	 0.1023697779	 0.012406
C	-0.7928921213	-2.4978982174	 1.4310284648	-0.195323
C	-1.4512382296	-1.9127286709	 2.6865225623	-0.385335
C	-2.9085016192	-3.0030981328	 0.0628235371	-0.35451
C	-2.7947161878	-4.4464290897	 0.2605117637	 0.263517
N	-2.6863923888	-5.5868456978	 0.4153217927	-0.31678
H	 0.1700285683	 2.0445645221	-0.9677995392	 0.115252
H	-1.2464222106	 1.4722936543	-1.8587746612	 0.11556
H	-1.4139017505	 2.0086788071	-0.1832089336	 0.11546
H	 0.1926301323	-0.4576811918	-1.0950740443	 0.098901
H	 0.0408162369	 0.0834650679	 0.5661797797	 0.104811
H	-2.4246288071	-0.3178153402	 0.4951208775	 0.098287
H	-2.3217014731	-0.7366233501	-1.2017965867	 0.09201
H	-0.9269476044	-2.706525713	-0.6916241321	 0.090546
H	-0.6613255206	-3.5776998191	 1.5650773151	 0.123224
H	 0.217112667	-2.0859923241	 1.3307950726	 0.103516
H	-2.4486549979	-2.3291044306	 2.8623582632	 0.119405
H	-0.8489500866	-2.1420673179	 3.5705266868	 0.122406
H	-1.5492938685	-0.8238671369	 2.6315745136	 0.118329
H	-3.5850341397	-2.6011634163	 0.8257131905	 0.149376
H	-3.3941967203	-2.8289080407	-0.9039886542	 0.147158
49.2631	60.7755	88.8508	112.042	144.557	196.94	234.5862	247.7538	264.076	311.6107	365.4214	398.6282	411.8783	527.685	582.7586	741.3341	775.6793	780.0073	871.6748	885.6091	939.983	954.2211	975.0261	995.1831	1033.2785	1049.7865	1091.5745	1127.0356	1151.1181	1173.8482	1223.4979	1256.1735	1285.9073	1307.7912	1323.8057	1330.5695	1367.9989	1376.9344	1387.8416	1401.9447	1413.7307	1415.1604	1465.5998	1484.2401	1491.4772	1493.5543	1499.3886	1505.1503	1506.9056	1512.6367	2358.13	3006.0487	3014.5924	3020.1556	3030.0311	3036.2148	3037.4851	3044.3347	3045.853	3061.5406	3071.1273	3081.37	3096.8507	3104.1966	3104.7292	3107.3378
CCCC(CC)CC#N	CCC[C@@H](CC)CC#N	
InChI=1S/C8H15N/c1-3-5-8(4-2)6-7-9/h8H,3-6H2,1-2H3	InChI=1S/C8H15N/c1-3-5-8(4-2)6-7-9/h8H,3-6H2,1-2H3/t8-/m1/s1
