15
gdb 16214	3.1738	2.27023	1.50762	0.8797	62.	-0.2489	-0.0378	0.2111	822.3618	0.119944	-399.788222	-399.781365	-399.780421	-399.819385	25.524	
O	 0.1016045842	 0.0573203722	-0.2457256842	-0.327887
C	 0.0380202958	 1.2419864596	-0.0260908522	 0.308766
C	-1.206954319	 2.0998422388	 0.1804653594	-0.183536
O	-0.7358608241	 3.373650399	 0.5847063713	-0.253737
C	 0.5740122832	 3.5738686399	 0.0411681622	-0.175132
C	 1.196380859	 2.1927810847	 0.0362124232	 0.23126
C	 2.4261873925	 1.7594599845	 0.7636415559	-0.266575
N	 2.4224417192	 1.8730551256	-0.6928951605	-0.351805
H	-1.7705996856	 2.1445211415	-0.7671629702	 0.124504
H	-1.866847596	 1.6921086726	 0.9513682742	 0.143691
H	 0.5224808805	 3.9768016655	-0.9822817136	 0.109757
H	 1.0890587912	 4.297025344	 0.6768426946	 0.124066
H	 3.0086591386	 2.5124002329	 1.2876753508	 0.131574
H	 2.4186614939	 0.7686300348	 1.2100590911	 0.136575
H	 2.3112954367	 0.9429145645	-1.099958272	 0.24848
102.4281	178.133	242.7087	254.7833	344.5629	448.8927	561.8011	584.0999	654.3339	725.7422	836.6617	902.3715	942.5218	961.8544	984.9162	1010.0934	1071.5064	1082.71	1100.9786	1112.7044	1158.2228	1201.6871	1238.3783	1282.5213	1315.9515	1317.6105	1364.0682	1420.3665	1475.1174	1500.0693	1516.1497	1839.4123	2967.03	2989.0431	3091.6729	3105.3322	3108.342	3203.0314	3451.4511
O=C1COCC11CN1	O=C1COC[C@]21CN2	
InChI=1S/C5H7NO2/c7-4-1-8-3-5(4)2-6-5/h6H,1-3H2	InChI=1S/C5H7NO2/c7-4-1-8-3-5(4)2-6-5/h6H,1-3H2/t5-/m0/s1
