12
gdb 132845	3.15513	1.56749	1.04722	3.8076	66.34	-0.2643	-0.0956	0.1687	1017.4803	0.077938	-476.824879	-476.818022	-476.817078	-476.856678	24.75	
F	 0.2509098467	 0.1876669451	-0.5141320577	-0.023025
C	 0.1159433681	 1.4632466453	-0.2250231166	 0.319886
N	-1.1074866981	 1.9416358389	-0.246520118	-0.288886
C	-1.2397103846	 3.237061436	 0.0477059371	-0.003894
C	-0.1412603644	 4.0365880848	 0.360048548	-0.030704
N	 1.0920585297	 3.5378042071	 0.3777961107	-0.274112
C	 1.2458992433	 2.2426049386	 0.0860328701	 0.064731
C	 2.6484021856	 1.7361560819	 0.1207335421	 0.107297
O	 2.9901596665	 0.604703054	-0.1111537219	-0.244104
H	-2.2470217403	 3.6438540115	 0.03306089	 0.140044
H	-0.2607255194	 5.0890507087	 0.5977380526	 0.132693
H	 3.3639004268	 2.5406341979	 0.3917779135	 0.100074
87.3367	178.0591	201.4413	296.0403	420.0196	463.3943	470.9265	581.8233	589.7835	681.2358	767.485	813.9425	891.8575	923.7835	995.4463	1047.112	1093.1951	1191.6588	1263.1003	1276.4544	1342.5918	1400.822	1445.1278	1492.9163	1593.0742	1599.8395	1818.7291	2924.2791	3170.0469	3189.2697
FC1=NC=CN=C1C=O	Fc1nccnc1C=O	
InChI=1S/C5H3FN2O/c6-5-4(3-9)7-1-2-8-5/h1-3H	InChI=1S/C5H3FN2O/c6-5-4(3-9)7-1-2-8-5/h1-3H
