19
gdb 22409	5.19005	0.74316	0.6694	1.8261	77.84	-0.2165	0.0106	0.2271	1635.5189	0.157342	-456.259867	-456.250201	-456.249257	-456.294906	34.821	
O	 0.1089844598	 1.4130533183	 0.0442237135	-0.411305
C	 0.0030812811	-0.0045916753	 0.0686343283	-0.076134
C	-1.472695674	-0.3740776434	 0.0623735275	-0.134944
N	-2.116513195	-0.0549948826	-1.1954801387	-0.085742
C	-2.4428463139	 1.370086067	-1.493136095	-0.250486
C	-3.8089605971	 0.901374655	-1.933634955	 0.407192
C	-3.5332570026	-0.4707633052	-1.3606423952	-0.264015
N	-4.7378224764	 1.4756299805	-2.5675362776	-0.234658
O	-5.8282444724	 0.6027281709	-2.7567858113	-0.395926
H	 1.030511935	 1.6462992654	-0.0980979699	 0.289459
H	 0.4856564551	-0.4567289978	-0.8096901343	 0.097524
H	 0.47399967	-0.4205420703	 0.9736180299	 0.085059
H	-1.552793193	-1.456867456	 0.2171985688	 0.103543
H	-1.9633758706	 0.1178003744	 0.9256264453	 0.085195
H	-2.4710186438	 2.0128469162	-0.6014237044	 0.11966
H	-1.7982397457	 1.8413030225	-2.2400806679	 0.123492
H	-3.6917777336	-1.3315640582	-2.0191349894	 0.126454
H	-4.0718718138	-0.646083893	-0.4146655283	 0.108901
H	-6.4419242291	 1.1517954617	-3.2562592963	 0.306729
60.5836	84.4236	111.6971	177.0567	224.9772	257.8098	273.7879	324.7001	348.2199	381.4277	469.8592	490.5665	535.9081	680.7736	776.7328	886.1472	912.7489	931.9657	957.4593	978.0474	1047.7832	1061.1592	1089.6573	1102.2942	1123.7225	1153.4882	1182.8514	1217.0281	1238.092	1264.9628	1279.7716	1319.9433	1331.4143	1400.4605	1410.1476	1458.5847	1474.7104	1477.9668	1503.6491	1511.4685	1812.845	2910.9919	2971.2772	2973.8506	3006.3385	3021.9267	3055.07	3060.6234	3082.9587	3818.63	3836.4793
OCCN1CC(C1)=NO	OCCN1CC(=NO)C1	
InChI=1S/C5H10N2O2/c8-2-1-7-3-5(4-7)6-9/h8-9H,1-4H2	InChI=1S/C5H10N2O2/c8-2-1-7-3-5(4-7)6-9/h8-9H,1-4H2
