21
gdb 115271	2.86144	1.23155	1.1567	2.2183	74.62	-0.2479	0.0784	0.3263	1197.3019	0.181197	-461.372895	-461.363362	-461.362418	-461.407019	35.882	
C	 0.1824232136	 1.4845107414	 0.2913489215	-0.41554
C	 0.039750531	-0.0124250759	-0.0001587239	 0.360782
C	-1.4197982451	-0.4202904911	-0.1802047521	-0.428657
C	 0.9407466426	-0.4732187602	-1.1641247032	-0.133605
O	 2.1726565753	-0.7934073401	-0.5344719029	-0.280113
C	 1.8426817891	-1.3014289735	 0.7456776097	 0.207674
C	 2.9562408434	-0.8979823165	 1.7118968589	-0.089109
O	 3.2965556837	 0.4649601441	 1.593788853	-0.413932
O	 0.5901527759	-0.7556433364	 1.1054484546	-0.307265
H	 1.2299566556	 1.7371944085	 0.4686051905	 0.128789
H	-0.2027571642	 2.0868953307	-0.5382284863	 0.105471
H	-0.3785190586	 1.7425161545	 1.1941278849	 0.123966
H	-1.8620280514	 0.0913998422	-1.0416295908	 0.116048
H	-1.5037510016	-1.4995824537	-0.3347372889	 0.118253
H	-2.0011199872	-0.1541471352	 0.7068596394	 0.128941
H	 0.5194832579	-1.3586421367	-1.6633072141	 0.0945
H	 1.1273759542	 0.3030482758	-1.9094978636	 0.116199
H	 1.7520287398	-2.4023046489	 0.711470789	 0.065865
H	 2.6110309688	-1.0691988829	 2.7354066556	 0.122235
H	 3.8230970737	-1.5534318728	 1.5285341937	 0.090811
H	 3.4317569135	 0.6142668964	 0.6498952848	 0.288688
71.1496	112.3066	167.0693	201.8604	235.8642	261.3147	285.3006	341.7908	343.5483	409.5187	447.2412	459.044	599.7792	663.6416	752.614	801.3014	856.4935	890.7521	920.3	928.2906	961.9275	994.6966	1037.267	1047.3354	1072.4185	1103.6261	1161.6474	1190.1361	1211.02	1239.9981	1266.4167	1287.2648	1351.0103	1370.3857	1386.9198	1400.4709	1413.3569	1420.7268	1440.6551	1473.186	1487.2922	1491.8339	1495.5098	1507.0789	1515.1885	2936.06	2981.3228	2994.3196	3037.2202	3042.7248	3097.1701	3104.8771	3108.4141	3114.7671	3121.1392	3136.2892	3785.5547
CC1(C)COC(CO)O1	CC1(C)CO[C@@H](CO)O1	
InChI=1S/C6H12O3/c1-6(2)4-8-5(3-7)9-6/h5,7H,3-4H2,1-2H3	InChI=1S/C6H12O3/c1-6(2)4-8-5(3-7)9-6/h5,7H,3-4H2,1-2H3/t5-/m1/s1
