22
gdb 59607	3.51974	0.97901	0.79775	3.3645	83.75	-0.2532	0.0332	0.2864	1472.5384	0.194626	-404.384135	-404.37471	-404.373766	-404.418456	35.521	
C	-0.0716721724	 1.5581129816	 0.0392732429	-0.398172
C	 0.0283103236	 0.0253218852	 0.0671942901	 0.014157
C	 0.752075119	-0.4433076534	 1.3374470462	-0.393716
C	-1.3532177371	-0.6318522726	-0.0663261921	 0.020346
C	-2.1167641935	-0.2548464471	-1.3493718977	-0.10683
O	-3.0300009738	-1.3336263192	-1.5992901097	-0.238434
C	-2.6224131384	-2.4653857284	-0.9466813263	 0.407726
N	-3.2208709847	-3.5755200062	-0.9964171457	-0.542943
C	-1.3604671691	-2.1668133681	-0.1689996465	-0.328935
H	 0.9188415495	 2.0140400761	 0.1341150151	 0.116587
H	-0.5152311194	 1.9259464891	-0.8914173449	 0.117042
H	-0.6855732008	 1.9249873264	 0.8705579613	 0.116353
H	 0.6256361576	-0.2922639616	-0.800822554	 0.073281
H	 0.1867817008	-0.1645425336	 2.2348265521	 0.11551
H	 0.8886338634	-1.5285848408	 1.3526888725	 0.120848
H	 1.7418176985	 0.0180324923	 1.4140968578	 0.114369
H	-1.9673563689	-0.3358633802	 0.7951727265	 0.082523
H	-2.7022177044	 0.6632442668	-1.2664635161	 0.120495
H	-1.4342655987	-0.1578803766	-2.2057984418	 0.106127
H	-4.0391424733	-3.5113877296	-1.6050668092	 0.219469
H	-0.4960218934	-2.5209857517	-0.7459530676	 0.126287
H	-1.3579375145	-2.6938681085	 0.7848393172	 0.13791
74.3152	97.7241	158.4216	177.7052	224.0681	243.3449	312.0079	343.1061	376.5781	452.4082	492.1886	518.1065	610.0509	681.8447	836.7703	867.8322	894.5826	896.638	912.1693	929.2624	965.8377	985.2233	1014.8142	1045.5863	1071.9577	1113.8835	1142.5221	1162.4574	1194.0905	1205.7632	1251.0043	1269.773	1286.1795	1326.8822	1338.6961	1352.9534	1387.4678	1401.7236	1412.4295	1423.8755	1472.7021	1486.7279	1492.8489	1506.2661	1510.6671	1521.904	1779.5094	2989.2906	3004.5019	3017.4761	3026.547	3031.0619	3035.3789	3091.7547	3096.9814	3100.9642	3105.8314	3107.6525	3133.1429	3467.536
CC(C)C1COC(=N)C1	CC(C)[C@H]1CO[C]([NH])C1	
InChI=1S/C7H13NO/c1-5(2)6-3-7(8)9-4-6/h5-6,8H,3-4H2,1-2H3	InChI=1S/C7H13NO/c1-5(2)6-3-7(8)9-4-6/h5-6,8H,3-4H2,1-2H3/t6-/m1/s1
