18
gdb 46993	2.68571	1.76061	1.45263	3.6883	70.59	-0.2223	-0.0194	0.2029	951.8878	0.150713	-439.099637	-439.092466	-439.091522	-439.131246	28.46	
O	 0.0365979091	-0.0818701665	-0.0010159413	-0.314055
C	-0.02718531	 1.120463582	 0.0570446161	 0.421563
C	-1.3519510214	 1.8820446326	 0.1495093592	-0.270969
N	-1.242043749	 3.071591584	 1.0118766909	-0.305742
C	 0.0007602159	 3.8367680035	 0.8628830453	-0.020962
C	 0.3883796846	 4.1523934691	-0.594494805	-0.081944
O	 1.0193584443	 2.9589278499	-1.0836354503	-0.279301
C	 1.1938950264	 2.0429767897	 0.0090668222	 0.00087
C	 1.1699493807	 2.9226721395	 1.2636420916	-0.237607
H	-1.6326583745	 2.1202735467	-0.8923880396	 0.120192
H	-2.1109088796	 1.2024533077	 0.5450287151	 0.129395
H	-2.0414247895	 3.6751929798	 0.8556382802	 0.22353
H	-0.0762793997	 4.7368330598	 1.4772581733	 0.081441
H	-0.4817678447	 4.3828126855	-1.2204991718	 0.100267
H	 1.0922668797	 4.9935481785	-0.6585092177	 0.101859
H	 2.103082238	 1.4628201549	-0.1568211536	 0.094946
H	 2.1070314868	 3.4773012958	 1.3639535152	 0.111348
H	 0.9682960328	 2.3734622478	 2.1851281001	 0.125167
99.1806	162.3044	233.3899	356.6186	410.0815	439.2143	456.689	510.4634	629.3451	703.7429	724.3263	776.5621	836.3097	879.9735	884.8414	918.2585	964.3814	973.1516	1014.4003	1045.9562	1062.4648	1087.6998	1104.4001	1166.7247	1186.6703	1217.2615	1235.1524	1253.7313	1300.4801	1301.7842	1313.5306	1322.1987	1372.475	1392.1716	1472.7003	1481.9335	1490.097	1520.2714	1836.3443	2942.3261	3006.4545	3054.4467	3064.7338	3089.5621	3093.165	3108.8364	3129.01	3529.7237
O=C1CNC2COC1C2	O=C1CN[C@@H]2CO[C@H]1C2	
InChI=1S/C6H9NO2/c8-5-2-7-4-1-6(5)9-3-4/h4,6-7H,1-3H2	InChI=1S/C6H9NO2/c8-5-2-7-4-1-6(5)9-3-4/h4,6-7H,1-3H2/t4-,6-/m0/s1
