14
gdb 130654	3.2102	1.83029	1.17639	5.2922	70.57	-0.2229	-0.0335	0.1895	958.2033	0.104638	-432.909996	-432.903481	-432.902537	-432.940962	25.245	
O	 0.0306228395	-0.01794889	-0.0206354324	-0.323058
C	 0.0053816093	 1.1794297391	-0.015190835	 0.422496
C	-1.2288654653	 2.1057705693	 0.0256404401	-0.300997
N	-0.7021941702	 3.4700255119	-0.1272857413	-0.423093
C	 0.6754046663	 3.3870951934	-0.0404605276	 0.474885
C	 1.8108940258	 4.1535804477	-0.0058317106	-0.386971
C	 2.8577618451	 3.1780227298	 0.00214446	 0.047288
N	 2.4352366532	 1.924921086	-0.0261518045	-0.275024
N	 1.0762806563	 2.0733195868	-0.0431373787	-0.044853
H	-1.9166012566	 1.8382810238	-0.7816300151	 0.158897
H	-1.7468999289	 1.9562684732	 0.9798365032	 0.153123
H	-1.1548005996	 4.2022341064	 0.3988182809	 0.259659
H	 1.9014460883	 5.2261553083	 0.0031150069	 0.112778
H	 3.9215710468	 3.3730631842	 0.0231058039	 0.12487
138.481	178.9132	299.1841	316.1059	503.4197	554.9489	563.807	634.3801	652.0699	690.2075	712.1919	761.1812	778.1291	918.5683	939.3904	988.1191	1039.9951	1056.363	1062.7449	1135.3771	1195.0543	1238.9461	1289.2181	1331.7316	1343.3682	1375.2283	1447.0989	1474.6441	1512.6264	1650.7771	1875.9292	3048.1026	3095.8556	3233.9466	3282.2716	3612.232
O=C1CNC2=CC=NN12	O=C1CNc2ccnn12	
InChI=1S/C5H5N3O/c9-5-3-6-4-1-2-7-8(4)5/h1-2,6H,3H2	InChI=1S/C5H5N3O/c9-5-3-6-4-1-2-7-8(4)5/h1-2,6H,3H2
