21
gdb 100028	3.02741	1.07885	1.00147	3.9822	74.18	-0.2517	0.0588	0.3105	1280.6011	0.180645	-461.338059	-461.328142	-461.327198	-461.372194	38.404	
C	-0.2219444139	 1.63284563	 0.0631441393	-0.436997
C	-0.1213389909	 0.1067435175	-0.0495846459	 0.338472
O	 0.4709970197	-0.4325589062	 1.1434277559	-0.493658
C	-1.5300815956	-0.5179842097	-0.0504136216	-0.067233
O	-2.231160061	-0.2266721342	 1.1388274692	-0.43151
C	 0.650622849	-0.3992859396	-1.2748535695	-0.069089
C	 1.2426673816	 0.5034714519	-2.3425673498	-0.339921
C	 2.1380497531	-0.2195828553	-1.3733574681	 0.084034
O	 2.7438525381	 0.4878699593	-0.319753046	-0.424062
H	 0.7662872286	 2.0834681388	 0.1813641729	 0.111015
H	-0.6991336622	 2.0659828968	-0.8215482702	 0.110708
H	-0.8333652737	 1.8789311437	 0.933437536	 0.128912
H	 1.3746791246	-0.0965172773	 1.1823088794	 0.295631
H	-2.1179250306	-0.1214339874	-0.8847638411	 0.103845
H	-1.4250571774	-1.6056749783	-0.1917968246	 0.084109
H	-1.6143789317	-0.4375173284	 1.8516375495	 0.291111
H	 0.3021973556	-1.3679790693	-1.6237898875	 0.089676
H	 1.2181127648	 0.1745334546	-3.3759562568	 0.113964
H	 1.1412362369	 1.5738420691	-2.2062338374	 0.121281
H	 2.7290814647	-1.0578664593	-1.7387317983	 0.093816
H	 3.4587064104	 1.0256003734	-0.6749202354	 0.295896
76.2952	132.8311	168.5508	238.0509	259.2118	273.5434	290.6712	334.2305	349.1119	394.376	423.8602	436.5296	473.8621	503.7711	544.7051	663.4858	742.0788	810.613	844.6828	874.5527	919.4067	959.0462	986.3283	1016.7607	1062.1591	1066.4314	1081.6472	1134.5221	1139.8097	1153.2235	1174.0946	1220.5627	1243.7331	1261.1462	1290.5839	1359.5087	1379.1365	1398.432	1409.6396	1427.6361	1438.4944	1483.6649	1494.4171	1504.94	1506.6315	2974.3669	3046.6369	3076.9981	3111.4503	3118.3315	3134.7833	3139.8931	3139.9541	3227.3063	3776.9537	3786.3505	3813.905
CC(O)(CO)C1CC1O	C[C@@](O)(CO)[C@H]1C[C@H]1O	
InChI=1S/C6H12O3/c1-6(9,3-7)4-2-5(4)8/h4-5,7-9H,2-3H2,1H3	InChI=1S/C6H12O3/c1-6(9,3-7)4-2-5(4)8/h4-5,7-9H,2-3H2,1H3/t4-,5+,6+/m0/s1
