23
gdb 104212	2.45905	1.26823	1.15486	1.7237	85.1	-0.2522	0.0809	0.3331	1244.5915	0.204143	-388.269505	-388.25975	-388.258806	-388.303778	37.285	
C	-0.1110237232	 1.6049262985	 0.0299811735	-0.392967
C	-0.2774047306	 0.0999060031	-0.2120488032	-0.240049
C	 0.6896009236	-0.4974920353	-1.2405086372	 0.248947
C	 0.4909657751	 0.0798460154	-2.6457555594	-0.439629
C	 2.2012325151	-0.5435359683	-0.8188587218	-0.266524
C	 2.2717516382	-2.0495071155	-1.2101868662	-0.326912
C	 0.7463006547	-2.0422602844	-1.2897288753	 0.429479
C	-0.2063135003	-3.0214827546	-0.7628098006	-0.267766
O	-0.016039141	-2.8446780062	-2.1747327565	-0.276145
H	 0.9141717475	 1.8483572887	 0.3298491244	 0.117627
H	-0.3440400022	 2.1912693548	-0.8637246131	 0.120591
H	-0.7782847324	 1.9444009243	 0.8282084568	 0.113021
H	-0.1416509656	-0.4301255655	 0.7394106659	 0.089131
H	-1.3083953145	-0.1046448726	-0.5315325551	 0.09678
H	 0.6756072138	 1.1582385025	-2.6621176686	 0.112688
H	 1.1734967687	-0.3845808142	-3.3644151042	 0.116512
H	-0.5286227887	-0.103207515	-2.9994046558	 0.122724
H	 2.8708314931	 0.1287185277	-1.3594711825	 0.099744
H	 2.337418553	-0.3843968519	 0.2540669092	 0.099379
H	 2.7277687293	-2.2158161495	-2.1900305338	 0.116627
H	 2.7305563192	-2.7329656864	-0.4919739608	 0.103998
H	 0.1584172506	-3.9655247413	-0.358079826	 0.110048
H	-1.1733733534	-2.6980366543	-0.3800247697	 0.112696
78.6501	97.9161	159.5497	205.7608	213.988	268.5282	286.2348	309.7901	351.2266	359.1281	471.3152	487.5816	572.2724	663.0707	751.0203	791.0865	851.2251	880.1469	889.6541	907.1503	928.8827	952.6226	974.3026	1017.2572	1041.3166	1059.8385	1117.9393	1130.5918	1141.0542	1168.5343	1176.7461	1211.2353	1227.7035	1246.2971	1260.6087	1293.6609	1327.1981	1366.0374	1408.9771	1414.3211	1421.054	1473.0348	1480.2981	1491.0261	1495.0697	1499.2967	1505.8202	1510.6836	1535.3883	3009.4146	3034.61	3037.3323	3043.9226	3059.3375	3064.1442	3076.4255	3100.5661	3102.5382	3105.2147	3106.8461	3112.7013	3121.8705	3161.5461
CCC1(C)CCC11CO1	CC[C@@]1(C)CC[C@]21CO2	
InChI=1S/C8H14O/c1-3-7(2)4-5-8(7)6-9-8/h3-6H2,1-2H3	InChI=1S/C8H14O/c1-3-7(2)4-5-8(7)6-9-8/h3-6H2,1-2H3/t7-,8+/m0/s1
