19
gdb 95029	2.43663	1.95416	1.44769	2.4262	72.54	-0.2473	0.072	0.3192	958.4761	0.161197	-422.992167	-422.984842	-422.983898	-423.023878	29.721	
O	 0.0343682033	 1.4415741951	 0.0378308527	-0.443027
C	 0.0155734952	 0.0263008505	-0.0010428319	 0.141949
C	 0.7653775859	-0.6410898339	 1.186297544	-0.238546
C	 0.0649915578	-1.9895078244	 1.4594566997	-0.233011
C	-1.3881073969	-1.795587093	 1.0006520114	-0.05275
C	-2.3879175674	-1.0141261149	 1.8817610941	 0.020159
O	-1.8332569167	 0.2733257564	 2.2047214734	-0.256803
C	-2.4467153549	 0.0956487558	 0.9167497208	 0.004044
C	-1.4072764455	-0.5845759647	 0.0025604191	-0.086988
H	-0.3248643813	 1.6964291145	 0.8959625632	 0.289823
H	 0.5092540067	-0.2349512715	-0.9433813272	 0.084675
H	 1.8325433203	-0.7569576622	 0.9764042013	 0.09287
H	 0.6710304612	 0.0127832609	 2.0569032029	 0.111998
H	 0.522370916	-2.784291116	 0.8588050535	 0.099371
H	 0.1459716106	-2.2970120168	 2.5066954952	 0.103169
H	-1.8523895958	-2.7046264655	 0.6112879711	 0.076205
H	-3.1354038179	-1.3972780585	 2.5673587774	 0.104127
H	-3.2523350074	 0.7732065793	 0.6603608575	 0.106686
H	-1.7943133432	-0.803152341	-0.9939030484	 0.076049
87.0027	175.7054	227.0169	319.7033	407.0404	443.338	475.7662	538.894	627.0725	690.2207	743.3385	785.2316	793.9802	855.037	870.8765	900.2906	916.7314	932.9998	960.7823	978.7089	1038.1591	1054.7913	1073.2899	1088.2596	1103.7264	1131.3178	1171.7104	1213.6292	1231.3984	1243.2657	1252.2112	1277.89	1291.8176	1328.6632	1334.9723	1349.8139	1363.5024	1386.9364	1438.2502	1480.5967	1494.1273	3035.0735	3045.3339	3059.5004	3078.305	3084.1421	3101.9919	3109.9112	3177.7059	3195.4418	3791.7401
OC1CCC2C3OC3C12	O[C@H]1CC[C@H]2[C@H]3O[C@H]3[C@@H]12	
InChI=1S/C7H10O2/c8-4-2-1-3-5(4)7-6(3)9-7/h3-8H,1-2H2	InChI=1S/C7H10O2/c8-4-2-1-3-5(4)7-6(3)9-7/h3-8H,1-2H2/t3-,4+,5-,6-,7+/m1/s1
