21
gdb 93656	2.42593	1.46125	1.15419	1.7346	78.32	-0.2332	-0.0218	0.2114	1174.2762	0.181176	-424.271798	-424.262212	-424.261268	-424.305951	36.456	
C	 0.0182092168	 1.6041606598	 0.0272507842	-0.406286
C	 0.0521480659	 0.0812651864	-0.0675896678	-0.08157
C	 0.8470034039	-0.5422922013	-1.2309698322	-0.231845
C	 1.1435733465	-1.9811616473	-0.7592498474	-0.245665
C	 1.4632688742	-1.8407389178	 0.7320468716	 0.307242
C	 1.2104566143	-3.0640403921	 1.6002955351	-0.452465
O	 2.8335820073	-1.4177201272	 0.8165202165	-0.471791
C	 0.6456510033	-0.596464779	 1.1666612383	 0.373834
O	 0.5809202395	-0.2035170832	 2.3061816327	-0.348707
H	 1.0332364504	 2.0147881807	 0.0245340527	 0.122808
H	-0.5264611636	 2.041670999	-0.8145026262	 0.114154
H	-0.465839543	 1.9155462696	 0.9567597271	 0.135972
H	-0.9824437589	-0.2972183603	-0.1205602655	 0.102862
H	 0.304786849	-0.5099536528	-2.1791744653	 0.098337
H	 1.787725889	 0.0022735834	-1.364095907	 0.117803
H	 0.2567975511	-2.6128224762	-0.884481563	 0.09755
H	 1.9711618544	-2.4501054801	-1.2966347562	 0.114199
H	 1.8998690727	-3.8682906018	 1.3277594864	 0.123616
H	 1.3610612022	-2.809757245	 2.6546209788	 0.127542
H	 0.1839344614	-3.4280290053	 1.4880222103	 0.11461
H	 2.9769562835	-1.1120466394	 1.7210977069	 0.2878
46.4157	166.8568	192.0039	210.8907	225.7326	239.4519	288.0312	351.8276	357.7549	391.5651	427.6659	510.0527	550.9692	593.396	678.6799	725.8023	823.1789	870.9801	910.3408	939.3687	953.2066	982.4542	999.9122	1039.5727	1075.5658	1117.6607	1143.7028	1159.384	1198.3646	1226.8662	1261.1745	1304.6376	1307.942	1335.9865	1354.5397	1387.5608	1401.9674	1408.9159	1476.2723	1485.5926	1492.1525	1494.1843	1497.9956	1498.7844	1829.8698	2974.7995	3033.3299	3040.0805	3046.5815	3053.779	3100.9227	3104.4082	3108.1638	3111.5472	3116.8194	3121.6455	3779.9319
CC1CCC(C)(O)C1=O	C[C@H]1CC[C@@](C)(O)C1=O	
InChI=1S/C7H12O2/c1-5-3-4-7(2,9)6(5)8/h5,9H,3-4H2,1-2H3	InChI=1S/C7H12O2/c1-5-3-4-7(2,9)6(5)8/h5,9H,3-4H2,1-2H3/t5-,7+/m0/s1
