15
gdb 66284	2.10469	1.6661	1.44292	3.2686	66.39	-0.2676	-0.0134	0.2542	989.6314	0.111491	-457.764965	-457.756695	-457.755751	-457.797751	30.918	
O	 0.144682905	 1.5453709889	 0.31355871	-0.45258
C	-0.0319992592	 0.1741460832	 0.0585412765	 0.093987
C	-1.499441123	-0.1917809911	-0.2102325964	-0.272564
C	-1.3537739443	-1.3659773349	-1.1865433082	-0.09361
O	-0.1537459783	-1.0902414747	-1.948612374	-0.214024
C	 0.6135984928	-0.194372058	-1.3030999542	 0.413605
O	 1.6239602055	 0.2790559822	-1.7361541767	-0.355488
C	 0.5617512291	-0.6765501187	 1.0985182933	 0.324534
C	 1.0487083847	-1.3836386521	 1.939711825	-0.491924
H	 1.0298601068	 1.7656898805	-0.0124378693	 0.297788
H	-2.0574613035	-0.4528097693	 0.6888113862	 0.132793
H	-1.9731368789	 0.6657615948	-0.6958076269	 0.135275
H	-1.2201543644	-2.3203583938	-0.6680674199	 0.13625
H	-2.176521089	-1.4532161405	-1.8971984227	 0.136402
H	 1.4887771669	-1.9963100965	 2.6880451372	 0.209556
93.4233	131.613	183.2657	221.9234	256.4839	352.6488	400.6999	422.8372	480.7665	587.4383	637.0036	642.1347	666.6301	681.4079	708.8156	767.8115	841.3891	946.1735	973.7199	1039.3351	1045.8195	1123.9627	1166.1141	1197.4135	1240.2049	1244.6133	1322.2731	1392.0524	1405.636	1485.966	1518.8825	1880.2133	2228.5211	3063.7559	3076.9091	3129.1439	3146.5293	3497.8062	3737.6972
OC1(CCOC1=O)C#C	O[C@]1(CCOC1=O)C#C	
InChI=1S/C6H6O3/c1-2-6(8)3-4-9-5(6)7/h1,8H,3-4H2	InChI=1S/C6H6O3/c1-2-6(8)3-4-9-5(6)7/h1,8H,3-4H2/t6-/m0/s1
