16
gdb 48508	4.98263	1.3007	1.29369	2.9829	73.64	-0.2364	-0.0308	0.2056	991.2228	0.125151	-400.658975	-400.652309	-400.651365	-400.690308	26.07	
O	-0.2762520329	 0.4612775679	 0.886966468	-0.275172
C	 0.0853738675	 1.0082627558	-0.1310021255	 0.003574
C	 1.2603092039	 1.8748981	-0.2124689146	 0.271753
C	 1.8697346588	 2.826784335	 0.8357571312	-0.123108
C	 2.66003321	 1.6450358449	 0.3425362379	-0.061635
N	 3.3631719101	 2.1520899314	-0.8780059681	-0.15174
C	 3.7923620551	 3.5511158774	-0.4903234466	-0.1805
C	 2.3065059999	 3.8612481038	-0.2348683035	-0.074822
C	 1.9840961504	 2.7291519097	-1.2703598433	-0.109407
H	-0.4691081252	 0.8747103907	-1.0868515056	 0.073614
H	 1.5335070089	 2.9636271925	 1.8534193006	 0.117768
H	 3.0098244421	 0.8159670798	 0.9421633632	 0.116955
H	 4.502894129	 3.6091676449	 0.3390718056	 0.110054
H	 4.1950708405	 4.0578141447	-1.3719097497	 0.114024
H	 1.8594488728	 4.8541863169	-0.226594021	 0.080147
H	 1.7518992292	 2.8574036946	-2.3256321485	 0.088493
94.9412	152.431	183.2394	398.2398	466.6423	563.352	701.1166	722.2085	780.7798	801.2981	822.1614	831.2803	862.4523	876.0411	912.235	924.5094	959.533	1011.5209	1018.0778	1026.8809	1054.3273	1062.9091	1117.1206	1135.4763	1157.754	1190.2404	1208.0631	1217.7614	1238.0452	1262.453	1296.0677	1396.0215	1443.8811	1497.7725	1787.2319	2876.8383	3054.4818	3115.7774	3127.5332	3140.5883	3215.004	3230.5246
O=CC12C3C1N1CC3C21	O=C[C@@]12[C@H]3[C@@H]1N1C[C@H]3[C@H]21	
InChI=1S/C7H7NO/c9-2-7-4-3-1-8(5(3)7)6(4)7/h2-6H,1H2	InChI=1S/C7H7NO/c9-2-7-4-3-1-8(5(3)7)6(4)7/h2-6H,1H2/t3-,4-,5-,6+,7+/m1/s1
