21
gdb 95026	2.43306	1.79446	1.36591	1.2348	80.21	-0.2374	0.0682	0.3056	1029.2103	0.184954	-387.062381	-387.054598	-387.053654	-387.094569	31.634	
O	 0.319847968	 1.0635304664	-0.7589745508	-0.433361
C	 0.0577480419	-0.0960975085	 0.0173093176	 0.123892
C	 0.4497529068	 0.040319398	 1.5149991763	-0.263787
C	-0.5868927779	-0.7782120654	 2.3263901023	-0.233255
C	-1.8472063433	-0.8769082874	 1.4387551538	-0.018769
C	-2.9290298548	 0.2237926314	 1.4672708294	-0.065772
C	-2.3673675913	 1.6007895369	 1.2584318088	-0.280634
C	-2.504933228	 0.6975943632	 0.0679151581	-0.037735
C	-1.4443280865	-0.4179031123	 0.002248948	-0.033684
H	 1.2704071385	 1.2128325694	-0.7594230413	 0.280179
H	 0.5940192086	-0.9594912619	-0.4093779668	 0.058368
H	 1.4744033401	-0.3005252393	 1.698988847	 0.083959
H	 0.4200202056	 1.1008287458	 1.7806660033	 0.111931
H	-0.1986530664	-1.7839515798	 2.5212163376	 0.095365
H	-0.7939442173	-0.3256134039	 3.3009977177	 0.101666
H	-2.2968662951	-1.8711522467	 1.475963038	 0.066304
H	-3.9288545386	 0.079057114	 1.859946181	 0.078193
H	-3.1125104612	 2.3904818985	 1.2949230669	 0.107049
H	-1.4051151139	 1.9073342627	 1.649369748	 0.109988
H	-3.1304067218	 0.9777394997	-0.7706848213	 0.081777
H	-1.6939557834	-1.1393995009	-0.7780116836	 0.068325
78.3702	149.4581	228.6889	279.3241	306.0253	405.1353	447.8684	519.0296	607.6936	656.1957	724.3058	749.1432	758.0784	800.4432	845.6954	903.3801	925.5245	934.4188	948.9626	997.0297	1008.9348	1021.7207	1045.9947	1057.0342	1072.1602	1086.4416	1095.7093	1125.9478	1157.8159	1183.5083	1191.0161	1217.5801	1236.9876	1265.8556	1289.6876	1300.7132	1320.3475	1339.7046	1344.2393	1371.7659	1374.1948	1429.17	1480.4585	1491.3279	1514.811	2954.4817	3035.7924	3046.9251	3073.7323	3079.2106	3089.5756	3097.2313	3133.7962	3169.8759	3184.2743	3214.3062	3818.5199
OC1CCC2C3CC3C12	O[C@H]1CC[C@H]2[C@H]3C[C@H]3[C@@H]12	
InChI=1S/C8H12O/c9-7-2-1-4-5-3-6(5)8(4)7/h4-9H,1-3H2	InChI=1S/C8H12O/c9-7-2-1-4-5-3-6(5)8(4)7/h4-9H,1-3H2/t4-,5+,6+,7-,8-/m0/s1
