17
gdb 15582	3.17334	1.82429	1.27822	3.0149	67.62	-0.2738	0.0279	0.3017	947.9999	0.143527	-363.884577	-363.876758	-363.875814	-363.918343	28.271	
C	-0.157097372	 1.5788285451	-0.0520115673	-0.410178
C	 0.0448333739	 0.064887516	-0.0229989988	-0.011456
C	 0.9436549377	-0.4558006477	-1.170284866	-0.087928
O	 1.6402861095	-1.5792603089	-0.6572429131	-0.234106
C	 2.022389216	-1.2226120353	 0.651691318	-0.098411
C	 0.7699802904	-0.5160845197	 1.2495840232	-0.171417
C	 1.1126083226	 0.4627756339	 2.2725906843	 0.27157
N	 1.3984121593	 1.2339646707	 3.0852669553	-0.333259
H	 0.7941336796	 2.1116624418	 0.0441196554	 0.135082
H	-0.617618627	 1.8788888307	-0.99900662	 0.119706
H	-0.8087068998	 1.914737428	 0.7589322754	 0.136685
H	-0.9308299714	-0.424320421	-0.0889162458	 0.096294
H	 0.3816551918	-0.7788411169	-2.0494444442	 0.118622
H	 1.6532406308	 0.3305144068	-1.477564913	 0.095927
H	 2.3051614269	-2.1270169612	 1.1932840797	 0.128205
H	 2.8767929567	-0.5282693126	 0.6458965985	 0.111721
H	 0.1263839948	-1.2675638798	 1.7151645285	 0.132943
12.1054	151.3765	199.4279	232.3731	287.1183	333.1467	406.1787	500.1956	553.3548	625.7183	635.453	769.3033	895.1506	943.0513	959.0977	985.5069	1022.9591	1042.4173	1100.6957	1122.9268	1130.9674	1157.5486	1227.3023	1259.4312	1300.6763	1312.1823	1334.9755	1349.7507	1374.6989	1400.95	1422.017	1493.0403	1497.8304	1505.8773	1519.5593	2354.7256	2968.4362	2990.3778	3039.644	3057.7157	3075.9696	3103.821	3108.5564	3117.231	3120.186
CC1COCC1C#N	C[C@H]1COC[C@H]1C#N	
InChI=1S/C6H9NO/c1-5-3-8-4-6(5)2-7/h5-6H,3-4H2,1H3	InChI=1S/C6H9NO/c1-5-3-8-4-6(5)2-7/h5-6H,3-4H2,1H3/t5-,6+/m0/s1
