23
gdb 111975	2.26405	1.29993	1.05264	1.6802	86.69	-0.2501	0.01	0.2601	1293.3023	0.205928	-388.306374	-388.296655	-388.295711	-388.340615	37.293	
C	 0.1023170556	 1.4359411015	-0.4579119189	-0.388804
C	-0.027410128	-0.0900155882	-0.4211718925	-0.169245
C	-1.3897535738	-0.5859279673	 0.1105453071	-0.050091
C	-2.5480333411	-0.1721868595	-0.7738098808	-0.058935
C	-3.1009710643	-1.20104041	-1.4177120875	-0.126116
C	-2.3866542962	-2.4954094652	-1.113871564	 0.089671
O	-1.6026101494	-2.939376754	-2.2257935035	-0.432681
C	-1.5712241168	-2.1383811711	 0.1638166143	-0.030036
C	-0.3196953085	-2.9880915951	 0.3687021701	-0.400396
H	 1.1010635801	 1.7376591406	-0.7881135882	 0.113783
H	-0.6220968365	 1.8885010447	-1.142369527	 0.117095
H	-0.0637862699	 1.8695921205	 0.5349114352	 0.114818
H	 0.1426541051	-0.4956582853	-1.4272098565	 0.0827
H	 0.7676224919	-0.5011617796	 0.2112882405	 0.101661
H	-1.5091305374	-0.1656338943	 1.119110473	 0.07067
H	-2.8623081962	 0.8615533572	-0.8742407282	 0.097177
H	-3.9149046521	-1.1412352767	-2.1318650541	 0.095214
H	-3.0661508594	-3.3317775493	-0.9180990833	 0.081212
H	-1.1884978046	-2.1605101223	-2.6128252006	 0.276264
H	-2.2533306053	-2.3284129734	 1.0020834002	 0.077026
H	 0.3695886794	-2.9092630246	-0.4749470753	 0.120309
H	 0.2132696029	-2.6969840113	 1.2800283978	 0.105809
H	-0.5892720556	-4.0449493173	 0.4644607821	 0.112895
71.9251	111.9203	186.5863	209.0744	236.4153	253.05	262.6664	296.1887	326.0712	396.1957	454.6098	521.5136	569.9965	694.6506	749.0259	773.0643	787.5255	831.452	856.8602	938.2344	958.9037	985.109	989.7521	1003.7375	1040.2382	1058.3799	1102.1214	1111.866	1136.7796	1154.8415	1176.3096	1238.6762	1255.5494	1276.9671	1317.7655	1331.9966	1343.1152	1364.8263	1372.2316	1375.7007	1412.6042	1416.2689	1430.3513	1484.3784	1493.9011	1501.1321	1505.8665	1509.4627	1674.2879	2997.0899	3020.3055	3023.8469	3032.3177	3038.6397	3055.0501	3061.5297	3097.1696	3098.5814	3106.1242	3126.4183	3176.9876	3203.554	3804.1044
CCC1C=CC(O)C1C	CC[C@H]1C=C[C@@H](O)[C@H]1C	
InChI=1S/C8H14O/c1-3-7-4-5-8(9)6(7)2/h4-9H,3H2,1-2H3	InChI=1S/C8H14O/c1-3-7-4-5-8(9)6(7)2/h4-9H,3H2,1-2H3/t6-,7-,8+/m0/s1
