17
gdb 46227	2.66197	1.3807	1.11221	2.9744	81.13	-0.2366	-0.0259	0.2106	1136.1013	0.133827	-384.65253	-384.643906	-384.642962	-384.686126	32.338	
O	 0.0188830992	 0.0619250005	-0.2866834075	-0.304928
C	-0.0235489842	 1.2334606818	-0.0434278505	 0.355332
C	-1.1348955492	 2.2083728315	 0.3992798365	-0.338545
C	-0.0484777064	 3.3272446086	 0.5185037983	-0.32996
C	 1.0061874633	 2.3340654131	-0.0009011282	 0.226002
C	 2.4627582683	 2.1807090786	 0.3317803528	-0.342707
C	 2.0791269889	 2.590616025	-1.0680569057	-0.260169
C	 2.2402337558	 1.7001589003	-2.1783077732	 0.351273
C	 2.3831063824	 0.9702211288	-3.1228454756	-0.449253
H	-1.8901252513	 2.377526774	-0.3734721956	 0.13626
H	-1.6421550085	 1.9226565069	 1.3242969005	 0.132694
H	-0.2168800835	 4.1982649192	-0.1181188619	 0.113751
H	 0.1259624089	 3.665985481	 1.5425263307	 0.114918
H	 2.9169111257	 2.9321731664	 0.9689354666	 0.127052
H	 2.8211486152	 1.1665138288	 0.4706252272	 0.147624
H	 2.2111703856	 3.6446185874	-1.3006586649	 0.120459
H	 2.5016533299	 0.3125429681	-3.9478093696	 0.200197
66.8073	93.076	133.9852	220.9473	235.8273	301.8445	444.3167	470.3331	511.4682	538.1496	598.7715	650.0012	656.8198	712.4462	754.1894	779.1737	852.0827	878.8942	927.4741	951.5737	1032.234	1049.2076	1068.18	1084.4182	1112.5154	1127.0605	1174.1034	1212.9709	1237.8233	1244.9236	1325.9063	1395.5446	1439.5975	1470.8454	1491.6356	1882.5639	2240.6133	3064.3891	3070.1721	3110.9579	3126.7828	3132.344	3136.558	3228.5122	3505.2398
O=C1CCC11CC1C#C	O=C1CC[C@]21C[C@H]2C#C	
InChI=1S/C8H8O/c1-2-6-5-8(6)4-3-7(8)9/h1,6H,3-5H2	InChI=1S/C8H8O/c1-2-6-5-8(6)4-3-7(8)9/h1,6H,3-5H2/t6-,8+/m1/s1
