12
gdb 21939	7.13411	1.27934	1.09324	6.8173	52.5	-0.2564	-0.0018	0.2546	984.8915	0.083398	-451.803412	-451.79601	-451.795065	-451.836445	25.318	
O	 0.0319371199	 1.409211656	-0.1114285065	-0.383376
C	 0.0032004576	 0.0121191077	 0.0044699756	-0.180768
C	-1.4218358328	-0.449256282	 0.0204687644	 0.426038
N	-2.456128238	 0.3193375266	 0.081475301	-0.158572
O	-3.5707273086	-0.5627268046	 0.083300507	-0.228518
C	-3.1537643941	-1.8644835506	 0.0229825829	 0.512634
O	-3.8580382108	-2.831872768	 0.0083638414	-0.390078
N	-1.7671341045	-1.7754331175	-0.0153100907	-0.427768
H	 0.9377956999	 1.7036556559	 0.0195090407	 0.303002
H	 0.5147613487	-0.4915660703	-0.8345868593	 0.117023
H	 0.4852245765	-0.345070838	 0.9303941947	 0.124313
H	-1.1640967439	-2.5772582751	-0.0781530412	 0.286071
22.8581	146.244	186.3883	196.5628	317.8379	386.9338	444.8168	540.404	639.5075	683.6037	760.332	768.8005	918.0917	971.9532	1021.8304	1041.5295	1121.5065	1199.8964	1230.3986	1251.3044	1267.1279	1438.8523	1505.0658	1521.9926	1665.1667	1905.7705	2951.2092	2973.744	3685.2505	3842.3223	22.8532	146.2423	186.3872	196.5615	317.8379	386.9337	444.8165	540.4039	639.5073	683.6037	760.3321	768.8004	918.0912	971.9529	1021.8304	1041.5294	1121.5062	1199.8963	1230.3985	1251.3042	1267.1278	1438.8522	1505.0654	1521.9925	1665.1665	1905.7706	2951.2091	2973.7439	3685.2505	3842.3218
OCC1=NOC(=O)N1	OCc1noc(=O)[nH]1	
InChI=1S/C3H4N2O3/c6-1-2-4-3(7)8-5-2/h6H,1H2,(H,4,5,7)	InChI=1S/C3H4N2O3/c6-1-2-4-3(7)8-5-2/h6H,1H2,(H,4,5,7)
