15
gdb 26044	3.28906	1.14004	1.06315	3.085	72.35	-0.239	-0.0091	0.2298	1161.2916	0.11419	-416.834888	-416.826817	-416.825873	-416.86828	29.323	
N	-0.1588244517	 1.4295872089	 0.1235711852	-0.498668
C	 0.0148036326	-0.0223896059	-0.0033744019	-0.243415
C	 0.782089869	-0.4113546378	-1.2150635246	 0.259154
N	 1.3659123447	-0.6663698534	-2.1798681614	-0.325134
C	 0.6446248611	-0.5919513688	 1.2277576141	 0.428708
C	 0.2389208635	-1.5010861052	 2.1516658959	-0.285545
C	 1.3025625437	-1.603013366	 3.107265254	-0.165516
C	 2.2685110868	-0.7474063266	 2.686502453	-0.012246
O	 1.8857578849	-0.1237420775	 1.5399766877	-0.185273
H	 0.7497625119	 1.8590611457	 0.2739887294	 0.25172
H	-0.5215679804	 1.8089034692	-0.7467509215	 0.245756
H	-0.9773274377	-0.4782885594	-0.0926946593	 0.146398
H	-0.6997086499	-2.0325939126	 2.1560804596	 0.120515
H	 1.336142723	-2.2291663504	 3.9845403694	 0.120977
H	 3.2400840286	-0.4744415602	 3.0633299404	 0.142567
52.595	99.8023	171.1803	209.8494	272.1519	337.6597	403.0202	468.6789	589.8107	613.4777	705.075	754.6889	760.1208	818.2346	853.2995	861.155	902.8595	940.2374	966.8978	1035.7788	1080.9644	1101.4098	1174.3084	1189.5047	1241.3007	1269.6052	1318.5394	1385.6868	1418.5993	1537.4739	1643.0418	1659.1466	2345.0595	3061.3508	3255.7811	3266.7961	3290.5943	3492.9959	3575.0998
NC(C#N)C1=CC=CO1	N[C@@H](C#N)c1ccco1	
InChI=1S/C6H6N2O/c7-4-5(8)6-2-1-3-9-6/h1-3,5H,8H2	InChI=1S/C6H6N2O/c7-4-5(8)6-2-1-3-9-6/h1-3,5H,8H2/t5-/m0/s1
