22
gdb 118500	1.88883	1.25664	0.91373	2.88	78.58	-0.2393	0.0627	0.302	1399.9233	0.193145	-441.443794	-441.433403	-441.432459	-441.480153	37.104	
C	 0.0000904265	 1.2698923223	-0.2888217888	-0.387374
C	 0.0654443359	-0.1919093415	 0.1183375071	-0.046107
O	-1.1909103614	-0.7931713538	-0.1690567008	-0.27559
C	-1.2843221018	-2.185958127	 0.1294272761	 0.043289
C	-1.6980286597	-2.3680826026	 1.5971774847	-0.062869
O	-2.8750653773	-1.6501349599	 1.9005112462	-0.418419
C	-2.2759697032	-2.8147617664	-0.8326779303	 0.026055
C	-3.4298628134	-2.0594722174	-1.3675060257	-0.223429
N	-2.2966249153	-2.4166310807	-2.2459203608	-0.338044
H	 0.9573751136	 1.7606487815	-0.0904478804	 0.122707
H	-0.2235644346	 1.3634209046	-1.3553196173	 0.129779
H	-0.7790082801	 1.794176425	 0.2720989628	 0.126861
H	 0.859458916	-0.7156908065	-0.4359803502	 0.099875
H	 0.3017170573	-0.2815188686	 1.1889638076	 0.100045
H	-0.3003986618	-2.6597521555	-0.0223831618	 0.073705
H	-1.8978092207	-3.4265752647	 1.7975515139	 0.110162
H	-0.863604209	-2.0659438953	 2.2517243845	 0.082917
H	-2.7634191784	-0.7815785339	 1.4951002118	 0.285508
H	-2.3866601626	-3.8862855672	-0.6763134217	 0.091525
H	-4.3608799593	-2.5759206507	-1.5812107892	 0.115312
H	-3.5358724291	-1.0212125132	-1.0725114591	 0.115061
H	-1.7099699319	-1.5892553284	-2.3416101986	 0.229028
56.0248	71.1926	83.9502	112.1356	156.0037	217.724	251.6886	287.6581	311.3551	368.2265	423.5573	452.9857	556.9007	690.9336	801.1368	821.044	860.3124	874.831	903.8376	944.8424	973.9632	979.9431	1053.937	1066.8301	1096.4061	1109.8641	1128.0523	1147.4877	1160.4386	1187.0108	1201.5372	1233.8122	1280.5258	1297.1109	1310.2237	1316.8815	1361.2712	1389.3324	1405.1115	1419.3268	1432.3569	1441.6055	1484.1554	1498.2479	1504.0381	1507.246	1530.5048	2959.4767	2972.0561	2985.3349	3014.8188	3045.6338	3067.5421	3120.4014	3121.2007	3122.1992	3126.4325	3212.777	3485.3223	3784.1702
CCOC(CO)C1CN1	CCO[C@@H](CO)[C@H]1CN1	
InChI=1S/C6H13NO2/c1-2-9-6(4-8)5-3-7-5/h5-8H,2-4H2,1H3	InChI=1S/C6H13NO2/c1-2-9-6(4-8)5-3-7-5/h5-8H,2-4H2,1H3/t5-,6+/m1/s1
