19
gdb 113732	3.39635	0.86954	0.77563	1.2626	78.69	-0.2603	0.022	0.2822	1524.8566	0.155542	-422.963785	-422.953451	-422.952506	-423.000048	36.784	
C	-0.1405906285	 1.4635951772	-0.6090545678	-0.383324
C	 0.022059862	 0.2149318217	 0.266919825	-0.207804
C	-1.2937995822	-0.4943390035	 0.4758573909	 0.078052
O	-1.8218074323	-1.2637102041	-0.6195045654	-0.259968
C	-1.4837395192	-1.9474396878	 0.5850038623	 0.035396
C	-0.3389934356	-2.9527617471	 0.5231407436	-0.083357
O	 0.2557965561	-3.1059373465	 1.8104103664	-0.416337
C	-0.8009973619	-4.2318457751	-0.0201318831	 0.290097
C	-1.2117839531	-5.2907865525	-0.413540116	-0.437101
H	 0.8168155048	 1.9740873207	-0.7470551444	 0.115747
H	-0.5295735379	 1.1938119302	-1.5954003786	 0.134855
H	-0.8385280774	 2.1767397135	-0.1569754907	 0.116187
H	 0.7491884544	-0.4620163574	-0.1902498601	 0.106869
H	 0.4216797076	 0.4918873952	 1.2505703377	 0.110917
H	-2.053340741	 0.1210969306	 0.9654769404	 0.088611
H	-2.3421335795	-2.3088486314	 1.1563197748	 0.090747
H	 0.4464851473	-2.5529639605	-0.1246071461	 0.126855
H	-0.2901104823	-3.7206837059	 2.3126344542	 0.289475
H	-1.5604772814	-6.2238737372	-0.7825183929	 0.204084
32.9573	73.0087	107.7127	149.1979	195.4433	219.952	241.9508	247.3773	311.6272	400.4397	475.714	480.4012	575.2972	598.9462	640.0936	677.801	752.2863	820.6409	858.1422	930.5984	958.2205	1024.4321	1037.965	1056.1887	1105.0394	1113.5385	1172.5305	1180.2636	1243.9951	1281.9232	1298.9269	1301.1648	1345.3877	1396.3539	1410.0349	1418.1798	1471.803	1494.4974	1499.2212	1509.8846	2234.204	3036.3807	3037.3524	3065.3288	3074.8285	3082.9074	3092.0068	3110.0475	3117.5503	3502.5261	3812.8752
CCC1OC1C(O)C#C	CC[C@H]1O[C@H]1[C@@H](O)C#C	
InChI=1S/C7H10O2/c1-3-5(8)7-6(4-2)9-7/h1,5-8H,4H2,2H3	InChI=1S/C7H10O2/c1-3-5(8)7-6(4-2)9-7/h1,5-8H,4H2,2H3/t5-,6+,7-/m0/s1
