18
gdb 78182	2.38521	1.65528	1.29591	2.6406	72.64	-0.2107	-0.0163	0.1944	1037.4616	0.147423	-439.075307	-439.067008	-439.066064	-439.107963	31.779	
C	 0.0614469981	 1.5284735526	-0.0220114622	-0.323039
N	 0.0767041823	 0.0750634752	 0.0223913381	-0.064379
C	 0.5159642504	-0.5950435282	-1.1961680802	-0.275601
C	 1.1359564995	-1.915062524	-0.7337311262	 0.415119
O	 1.3374429115	-2.8823165932	-1.4237721835	-0.329564
C	 1.3995524792	-1.8035118227	 0.7360558846	-0.258887
C	 2.2350460137	-0.5963443185	 1.1886849897	 0.07644
O	 2.9632818595	 0.1691032764	 0.2797391959	-0.41045
C	 0.7413251367	-0.5041808573	 1.1659177728	-0.047655
H	 1.0564198589	 1.9685697826	-0.1930704368	 0.121458
H	-0.6100299518	 1.861016147	-0.8204041512	 0.119896
H	-0.3305836086	 1.9164083204	 0.9239219649	 0.116816
H	-0.3146200912	-0.7831774199	-1.886250238	 0.126456
H	 1.2921057661	-0.0356095223	-1.7434448051	 0.119674
H	 1.4217978121	-2.7121008787	 1.3238822081	 0.112007
H	 2.7049917498	-0.7297073104	 2.1636421237	 0.101909
H	 3.7401969678	-0.332921821	 0.0085257891	 0.296889
H	 0.205821686	-0.4167640881	 2.1071576762	 0.102912
104.7084	135.1555	197.785	236.8481	295.3481	325.366	336.9895	403.4432	465.0814	548.0302	614.7209	649.0037	670.6218	756.087	794.8417	855.4261	901.6747	946.6718	1015.3432	1035.75	1056.3048	1086.2743	1106.1824	1149.6767	1172.001	1203.6195	1207.2241	1223.5032	1264.5369	1290.9468	1311.0381	1342.5193	1371.7968	1443.9624	1455.7301	1477.0914	1494.3583	1514.0078	1838.9454	2977.7357	2984.3297	3051.7649	3064.8141	3096.0323	3098.81	3145.5497	3200.7533	3792.928
CN1CC(=O)C2C(O)C12	CN1CC(=O)[C@H]2[C@@H](O)[C@@H]12	
InChI=1S/C6H9NO2/c1-7-2-3(8)4-5(7)6(4)9/h4-6,9H,2H2,1H3	InChI=1S/C6H9NO2/c1-7-2-3(8)4-5(7)6(4)9/h4-6,9H,2H2,1H3/t4-,5+,6-/m1/s1
