17
gdb 106078	3.03942	1.57363	1.38146	3.347	74.3	-0.2172	-0.0585	0.1587	990.6832	0.13497	-417.844922	-417.837229	-417.836285	-417.877046	29.686	
C	-0.3082701771	 1.3064809809	-0.0676506993	-0.265105
O	 0.2164090012	-0.006435967	-0.2059049639	-0.279951
C	 0.7436525527	-0.5098581855	 0.9469957189	 0.371798
C	 1.0585329882	-1.9055113688	 1.2763350581	-0.136996
C	 2.5998793414	-1.9986763553	 1.3132677247	-0.187928
N	 2.9498729951	-0.7344987073	 2.0206238659	-0.149663
C	 1.9142399339	-0.0037565854	 1.9067579943	 0.036716
N	 1.0651440634	 0.1220600296	 3.1098047417	-0.332142
C	 0.2442725285	-0.9078686343	 2.2784584304	-0.124484
H	 0.469262504	 2.014546519	 0.2514328404	 0.123508
H	-0.6818395871	 1.6044992873	-1.0487841131	 0.13822
H	-1.1349203986	 1.332739305	 0.6553571	 0.116057
H	 0.439329753	-2.7177395497	 0.9010782101	 0.099656
H	 2.9900698708	-2.8037513549	 1.9432580563	 0.131977
H	 3.0163025677	-2.1278014073	 0.30292396	 0.118733
H	 0.477209136	 0.961587462	 3.0608945322	 0.221659
H	-0.7337634831	-1.2037075883	 2.6455779833	 0.117945
91.0683	159.5918	184.2953	281.5946	286.0894	388.8703	481.55	485.5272	554.8968	597.9162	683.7154	730.2311	766.9756	860.2341	904.9055	919.3092	941.4064	952.2143	991.737	1021.4842	1067.6194	1099.3431	1112.9277	1129.1501	1160.2988	1177.8116	1187.4947	1237.4453	1254.6744	1278.8766	1299.9969	1433.2359	1477.2127	1488.4932	1502.7004	1506.4651	1606.8261	2994.9354	2997.3218	3051.6812	3080.1777	3133.4252	3146.4673	3167.2245	3369.731
COC12C3CN=C1NC23	CO[C@@]12[C@H]3C[N][C]1N[C@@H]23	
InChI=1S/C6H8N2O/c1-9-6-3-2-7-5(6)8-4(3)6/h3-4H,2H2,1H3,(H,7,8)	InChI=1S/C6H8N2O/c1-9-6-3-2-7-5(6)8-4(3)6/h3-4H,2H2,1H3,(H,7,8)/t3-,4+,6+/m0/s1
