17
gdb 10619	2.58158	1.72317	1.25965	3.5787	69.53	-0.2795	0.0261	0.3056	1013.6202	0.14128	-363.863542	-363.854782	-363.853837	-363.896887	31.487	
C	-0.0707490784	 1.503684922	-0.08964955	-0.41853
C	 0.0834016874	 0.0016543589	 0.0139800583	-0.033077
C	 1.414017599	-0.678277159	-0.1120090104	-0.308233
C	 0.7071131976	-0.6764704933	 1.237144783	 0.133977
C	 1.3028479588	 0.1167738117	 2.3982990616	-0.135759
O	 2.3672683081	-0.565273242	 3.0285832693	-0.412684
C	 0.1108781734	-1.9157930819	 1.6693182842	 0.22971
N	-0.3499012829	-2.9014107489	 2.0655545972	-0.350538
H	 0.8104917452	 2.0391619892	 0.2723805081	 0.126572
H	-0.2155131192	 1.7876232211	-1.1372601434	 0.132384
H	-0.9398792204	 1.8576835332	 0.4740407086	 0.131972
H	-0.7541694391	-0.5524578075	-0.4000873345	 0.11342
H	 1.4797948741	-1.6144723866	-0.6531739737	 0.138246
H	 2.3028028507	-0.0581788947	-0.1686262499	 0.132122
H	 1.7251632534	 1.0510824083	 2.0223696607	 0.114457
H	 0.5068241859	 0.3730120564	 3.1128837745	 0.107675
H	 2.0131518363	-1.367229547	 3.4294606965	 0.298286
71.2159	139.6994	148.7894	176.9722	215.4967	272.1574	334.3915	371.7789	398.672	485.0697	568.0405	583.0832	697.4979	799.137	887.8642	917.9548	949.1788	959.6017	1020.6201	1075.7088	1081.4952	1095.3128	1128.8079	1185.1946	1202.3979	1287.7487	1305.3351	1385.6355	1406.9674	1418.6206	1432.2823	1483.9444	1492.6169	1504.095	1505.6011	2340.0553	2998.1759	3039.2357	3100.6277	3103.6963	3118.5954	3139.7464	3153.625	3231.0527	3800.846
CC1CC1(CO)C#N	C[C@H]1C[C@]1(CO)C#N	
InChI=1S/C6H9NO/c1-5-2-6(5,3-7)4-8/h5,8H,2,4H2,1H3	InChI=1S/C6H9NO/c1-5-2-6(5,3-7)4-8/h5,8H,2,4H2,1H3/t5-,6+/m0/s1
