19
gdb 10601	3.01565	1.57132	1.24068	2.3215	67.71	-0.2513	0.0675	0.3188	1039.825	0.165289	-402.168594	-402.159669	-402.158725	-402.20197	32.928	
C	 0.0656128103	 1.4732986168	-0.1952504125	-0.406662
C	 0.1091189621	-0.0101589406	 0.0868654654	-0.046845
N	 1.4315549508	-0.6534049505	 0.179777614	-0.378191
C	 0.5452420168	-0.6404303433	 1.3658108708	 0.266253
C	 1.1307743966	 0.1512288309	 2.5191660065	-0.131994
O	 2.2642004522	-0.535332441	 3.0604518415	-0.42272
C	-0.0789632275	-1.9636056393	 1.7784759926	-0.129713
O	 0.8867791241	-2.8977149862	 2.2287485115	-0.430442
H	 0.8985302371	 1.9995159308	 0.2749856198	 0.129212
H	 0.1317247478	 1.6506902031	-1.273895422	 0.125405
H	-0.8728693911	 1.9123093455	 0.1600501131	 0.120224
H	-0.6601846723	-0.5729122885	-0.442865084	 0.084678
H	 1.4231656271	-1.5791695541	-0.2422347893	 0.238171
H	 1.4116386405	 1.1630642935	 2.2068789017	 0.101538
H	 0.4107821964	 0.2362830307	 3.3395001097	 0.113797
H	 2.884197263	-0.6232507711	 2.3243814037	 0.29807
H	-0.8488703213	-1.7790341263	 2.5472064703	 0.086531
H	-0.5827962348	-2.4247214867	 0.9205565536	 0.09508
H	 1.4668657123	-2.4155352438	 2.8358490236	 0.287608
92.1393	100.4614	155.7586	194.6998	227.4291	269.6203	345.0998	361.1559	430.895	446.8803	517.2602	568.227	641.8736	742.327	849.5545	902.9265	935.444	966.0526	973.0596	1024.21	1048.9274	1071.0608	1081.5887	1108.2046	1135.4608	1201.5377	1229.6458	1244.7395	1308.3648	1351.1628	1376.5563	1392.4419	1409.4482	1429.601	1463.6234	1470.0996	1491.27	1493.5229	1504.0374	1511.3596	2957.4488	3035.4498	3040.693	3048.2568	3087.714	3097.3124	3099.5484	3133.7461	3494.3879	3719.0669	3772.295
CC1NC1(CO)CO	C[C@H]1NC1(CO)CO	
InChI=1S/C5H11NO2/c1-4-5(2-7,3-8)6-4/h4,6-8H,2-3H2,1H3	InChI=1S/C5H11NO2/c1-4-5(2-7,3-8)6-4/h4,6-8H,2-3H2,1H3/t4-/m1/s1
