20
gdb 117237	2.42607	1.08903	0.88976	1.581	77.37	-0.2513	0.0094	0.2608	1412.7603	0.169444	-440.298883	-440.28887	-440.287926	-440.334886	35.402	
C	-1.0312107495	 0.8309774383	-0.0366485034	-0.39328
C	 0.2482257362	 0.0175165007	-0.0579497823	-0.042206
O	 0.1400374542	-0.9390248661	-1.1317385255	-0.230464
C	 1.181122254	-1.7765087114	-1.2680602415	 0.45788
O	 2.1613426083	-1.7545260156	-0.5614410193	-0.377196
C	 1.0298524945	-2.7521070848	-2.393218005	-0.152607
N	-0.3056390433	-3.0548991381	-2.9346984641	-0.324961
C	 0.6606553417	-2.3909263524	-3.8052821076	 0.017369
C	 0.3420676893	-0.9934623602	-4.2760462657	-0.406834
H	-1.169423181	 1.3714713766	-0.9774142129	 0.129271
H	-1.9000533614	 0.1857704365	 0.1194220693	 0.134408
H	-0.9915488424	 1.5616350514	 0.7768360719	 0.121887
H	 1.1314236842	 0.6421825708	-0.2259552175	 0.120407
H	 0.4061480442	-0.5238721264	 0.8797923712	 0.124166
H	 1.74657317	-3.5610484037	-2.2830332364	 0.106215
H	-0.3719088192	-4.0475939329	-3.142391518	 0.237971
H	 1.1609762399	-3.0110518003	-4.5495914754	 0.091535
H	-0.1614563357	-0.4266543194	-3.4930098278	 0.147304
H	 1.2571489427	-0.4663492027	-4.5665056672	 0.118453
H	-0.3149844369	-1.0347067803	-5.151379593	 0.120683
41.946	72.4391	105.4262	127.1703	184.1718	224.2525	260.2791	281.9463	353.0835	386.8857	437.3486	489.6526	636.7513	750.4598	797.8648	809.1859	851.8421	882.0685	918.6219	968.9611	1010.4241	1024.1495	1053.4326	1085.8258	1134.4528	1141.1709	1173.9422	1183.1813	1243.4352	1252.7472	1291.375	1316.5362	1387.3227	1405.5545	1414.5741	1427.2963	1459.0841	1485.7028	1494.3896	1497.444	1500.4481	1520.343	1800.4708	3039.7977	3046.4362	3052.0659	3090.234	3097.8698	3100.0351	3119.8594	3127.419	3154.6847	3158.567	3506.6642
CCOC(=O)C1NC1C	CCOC(=O)[C@H]1N[C@H]1C	
InChI=1S/C6H11NO2/c1-3-9-6(8)5-4(2)7-5/h4-5,7H,3H2,1-2H3	InChI=1S/C6H11NO2/c1-3-9-6(8)5-4(2)7-5/h4-5,7H,3H2,1-2H3/t4-,5-/m0/s1
