20
gdb 116393	2.4235	1.41302	0.9482	3.407	76.43	-0.2347	0.0268	0.2615	1266.3793	0.172161	-440.328661	-440.319712	-440.318768	-440.362703	33.26	
C	-0.0180983548	 1.5617176095	 0.0152232594	-0.393724
C	-0.0110362697	 0.0330228152	-0.0372879628	-0.179759
C	-1.415591876	-0.5653586453	-0.0272480233	 0.009087
O	-2.087103906	-0.1449571709	-1.2099353593	-0.259512
C	-3.3296821794	-0.790815453	-1.3807874587	-0.078232
C	-3.1051175974	-2.2723356719	-1.6557245954	-0.156262
N	-2.2400185126	-2.8127775763	-0.6190839011	-0.327324
C	-1.3668343458	-2.0929793144	 0.1428768347	 0.393511
O	-0.6210665274	-2.6173755162	 0.9504060707	-0.380632
H	 1.0017677061	 1.9563096725	-0.016752055	 0.112311
H	-0.5728317107	 1.9804311226	-0.8286430624	 0.130276
H	-0.4864020812	 1.9227713746	 0.9380003436	 0.111452
H	 0.4997239811	-0.3122955818	-0.9441060203	 0.10285
H	 0.5269371024	-0.3916625978	 0.8137584671	 0.12959
H	-1.9639974513	-0.185646619	 0.8547967229	 0.0935
H	-3.9628626072	-0.6629065923	-0.4874157462	 0.098586
H	-3.8288761102	-0.3153835159	-2.2292623673	 0.116199
H	-4.0622571491	-2.8070963083	-1.6522033039	 0.112627
H	-2.6542246756	-2.3961911081	-2.6503509287	 0.117101
H	-2.1556667851	-3.8139418732	-0.5154881842	 0.248354
64.7009	99.9433	149.3935	183.609	227.3595	310.2038	324.7891	400.9949	466.1897	477.5506	515.4586	572.0171	682.9381	688.2307	765.6712	855.6804	901.9383	927.8673	955.2813	991.6723	1062.6342	1088.8086	1118.4191	1126.8656	1155.3051	1167.7953	1262.9991	1273.7526	1286.413	1306.1686	1342.4639	1360.378	1387.2448	1395.7513	1409.291	1415.1361	1478.7267	1481.2577	1495.4691	1497.1236	1509.0847	1518.8766	1785.1377	2936.4501	2974.9241	3004.9345	3035.5494	3043.894	3056.7356	3096.8571	3097.3512	3107.811	3125.1473	3603.8492
CCC1OCCNC1=O	CC[C@H]1OCCNC1=O	
InChI=1S/C6H11NO2/c1-2-5-6(8)7-3-4-9-5/h5H,2-4H2,1H3,(H,7,8)	InChI=1S/C6H11NO2/c1-2-5-6(8)7-3-4-9-5/h5H,2-4H2,1H3,(H,7,8)/t5-/m1/s1
