20
gdb 93029	2.59343	1.77464	1.32999	2.5293	79.4	-0.2381	0.029	0.2671	1027.8679	0.173113	-403.149223	-403.141444	-403.1405	-403.18151	30.855	
C	-0.6580395017	 1.4722246355	 0.257674931	-0.394756
C	 0.0627649651	 0.1573802623	-0.0266337791	 0.130615
O	 0.8569881557	 0.3918624267	-1.2163683115	-0.257995
C	 2.148534513	 0.0371356482	-1.4387696255	 0.128624
N	 3.0578207138	-0.4649827995	-0.7210070712	-0.261737
C	 2.857014502	-0.8075742119	 0.6687168804	 0.027056
C	 1.596318702	-1.6892973627	 0.909670374	-0.250565
C	 0.8066181121	-0.3838510317	 1.1875256471	-0.017363
C	 2.1586815982	 0.3184451863	 1.4897028687	-0.243365
H	 0.0460990885	 2.2375009022	 0.5981399183	 0.127551
H	-1.1493368336	 1.8370833216	-0.6474525821	 0.129376
H	-1.4172929325	 1.329964694	 1.0326042898	 0.117293
H	-0.6763309676	-0.5989516556	-0.327110113	 0.090897
H	 2.3717338435	 0.2865098247	-2.4762027792	 0.119343
H	 3.7999979531	-1.1871458783	 1.0676348096	 0.072736
H	 1.2745740859	-2.3193537819	 0.0759417119	 0.102734
H	 1.6937303658	-2.3035808445	 1.8090244687	 0.09897
H	 0.0845482179	-0.4251821476	 2.0085480158	 0.073004
H	 2.412722336	 0.2677318092	 2.5519029982	 0.100436
H	 2.3058953427	 1.341708693	 1.1356948182	 0.107148
59.889	201.5269	243.3183	296.0001	309.0784	337.9022	388.5521	464.4862	564.0406	576.8117	718.8471	799.6288	810.9014	841.2874	857.6131	886.7695	929.1536	946.123	959.2835	986.953	1011.7717	1057.5683	1077.9573	1110.649	1132.4975	1139.8411	1160.1082	1180.4288	1227.7693	1256.602	1274.7834	1281.7548	1340.4624	1364.097	1376.0469	1394.6682	1405.6713	1435.2355	1469.2008	1487.3763	1492.3681	1498.1914	1733.6634	3002.8773	3042.8371	3050.8932	3054.5668	3065.3687	3078.3735	3109.9784	3113.1479	3117.1431	3126.8556	3139.0437
CC1OC=NC2CC1C2	C[C@H]1OC=N[C@@H]2C[C@H]1C2	
InChI=1S/C7H11NO/c1-5-6-2-7(3-6)8-4-9-5/h4-7H,2-3H2,1H3	InChI=1S/C7H11NO/c1-5-6-2-7(3-6)8-4-9-5/h4-7H,2-3H2,1H3/t5-,6-,7+/m1/s1
