23
gdb 101118	3.09141	1.07857	0.9268	1.4702	85.89	-0.2286	0.0854	0.314	1389.534	0.204641	-388.25723	-388.247548	-388.246604	-388.29189	36.658	
C	 0.1406564493	 1.4688675959	 0.0294769302	-0.397249
C	-0.0210584018	-0.0473669888	-0.1123811874	-0.166928
C	-1.4804276708	-0.5437500751	-0.0184235075	-0.084681
C	-2.3581804487	-0.04628104	-1.1739799615	-0.410747
C	-1.4887034223	-2.0437676971	 0.0910045407	 0.508399
C	-1.476924838	-3.0675143933	-1.0045693336	-0.333326
C	-2.5470558423	-3.1294278365	 0.0725648044	-0.206627
C	-1.9066154501	-3.601817851	 1.3682282303	-0.088296
O	-0.8593938839	-2.6008153332	 1.2625382077	-0.33394
H	 1.1986443027	 1.7490322478	 0.0206612543	 0.112819
H	-0.348002464	 2.0140782655	-0.7842234945	 0.114457
H	-0.2876730939	 1.8253767975	 0.9732026606	 0.114122
H	 0.4036033844	-0.3798952428	-1.0689070747	 0.092776
H	 0.5572471903	-0.5474502961	 0.6719946759	 0.12037
H	-1.9012838662	-0.1614515437	 0.9229027295	 0.077722
H	-2.4473500715	 1.0427745273	-1.153969265	 0.120715
H	-1.9354140223	-0.3261172609	-2.1451213523	 0.118035
H	-3.3701228247	-0.459719981	-1.1117667008	 0.114243
H	-1.8374304143	-2.7370846322	-1.9732444483	 0.114132
H	-0.6840256007	-3.8105467259	-1.0363713623	 0.110047
H	-3.6062724716	-3.08686992	-0.1432753783	 0.097462
H	-2.5213798493	-3.4225080336	 2.2580660826	 0.10546
H	-1.5051112106	-4.6223479129	 1.3973193798	 0.101036
60.0476	85.3244	142.2046	197.5538	228.0745	257.8433	265.268	330.5835	357.6757	407.064	467.7703	476.8314	697.6352	748.7233	780.9313	820.4442	862.9092	882.402	953.9366	962.2721	974.8301	983.3614	992.9507	999.1892	1016.8824	1043.0369	1072.5056	1089.9699	1122.4043	1140.2019	1159.4828	1173.5167	1189.9006	1269.4296	1290.9934	1326.6436	1341.8415	1361.8645	1378.8558	1401.3549	1409.509	1414.6877	1485.4966	1486.6774	1496.7602	1503.7611	1506.5635	1510.1747	1520.5139	2998.4116	3017.2753	3023.7341	3032.1204	3035.7702	3064.1652	3069.6376	3097.9314	3099.7471	3104.232	3112.6428	3116.2309	3197.0808	3209.3206
CCC(C)C12CC1CO2	CC[C@@H](C)[C@]12C[C@H]1CO2	
InChI=1S/C8H14O/c1-3-6(2)8-4-7(8)5-9-8/h6-7H,3-5H2,1-2H3	InChI=1S/C8H14O/c1-3-6(2)8-4-7(8)5-9-8/h6-7H,3-5H2,1-2H3/t6-,7+,8-/m1/s1
