15
gdb 14219	4.865	1.81837	1.61908	3.3099	65.45	-0.2469	-0.0126	0.2343	812.8012	0.11913	-362.628066	-362.621472	-362.620528	-362.658565	25.503	
C	-0.0327391804	 1.4560349465	 0.0655038797	-0.495237
C	 0.0587480126	-0.0329490228	-0.0757520849	 0.337778
C	-0.5817370461	-0.8996145185	-1.1590487124	-0.294238
C	-0.415897326	-2.0351562889	-0.1316008427	-0.142709
N	-0.3289911945	-0.9658052598	 1.0165511011	-0.17876
C	 1.1451077936	-0.8273873115	 0.6060136423	-0.237335
C	 1.0980911946	-2.2017218501	 0.0240896428	 0.479489
O	 1.8652568168	-3.1153851038	-0.072074325	-0.333052
H	 0.5977366508	 1.956266178	-0.677054135	 0.132518
H	-1.0650793834	 1.7907290006	-0.0789949854	 0.13231
H	 0.2907380984	 1.772577569	 1.0612926116	 0.137801
H	-1.6316772466	-0.6209508208	-1.288501833	 0.118329
H	-0.1005928069	-1.006150445	-2.1358660364	 0.115063
H	-1.0995813282	-2.8758887334	-0.0506555496	 0.108997
H	 1.8839154152	-0.3711534696	 1.2526374468	 0.119046
149.2708	191.117	244.6742	314.1263	431.5748	471.6706	548.7904	648.001	706.2789	762.2321	789.9062	817.4332	870.8078	938.5024	959.8369	982.4991	1007.5749	1019.8433	1074.5393	1106.6256	1133.7422	1164.7272	1195.2699	1242.1702	1261.2864	1306.7151	1380.0463	1420.7161	1481.8768	1490.692	1499.8929	1895.4758	3036.0805	3049.4202	3103.2712	3104.9148	3116.1606	3166.87	3207.4148
CC12CC3N1C2C3=O	C[C@]12C[C@@H]3N1[C@H]2C3=O	
InChI=1S/C6H7NO/c1-6-2-3-4(8)5(6)7(3)6/h3,5H,2H2,1H3	InChI=1S/C6H7NO/c1-6-2-3-4(8)5(6)7(3)6/h3,5H,2H2,1H3/t3-,5-,6+,7?/m0/s1
