20
gdb 13165	3.47239	1.40646	1.0592	0.6502	80.85	-0.2556	0.0568	0.3124	1148.5006	0.175981	-311.831084	-311.822275	-311.821331	-311.86441	33.047	
C	-0.1066898753	 1.5156987106	 0.0120812393	-0.393329
C	 0.034839089	-0.0175386049	-0.0651824051	-0.182288
C	 0.7597168545	-0.4210499112	-1.2699177244	 0.334233
C	 1.3787424205	-0.746597972	-2.2482890473	-0.47717
C	 0.71017928	-0.5876420649	 1.1909845918	 0.078681
C	-0.0384306263	-0.4876795526	 2.5511134761	-0.238782
C	 0.4866375681	-1.9077759266	 2.8956516313	-0.21647
C	 0.7725697155	-2.1272225333	 1.3853124722	-0.229983
H	 0.8775690916	 1.9907250751	 0.0670988875	 0.124507
H	-0.6219627843	 1.9065616872	-0.8690890003	 0.123916
H	-0.6773082593	 1.7999062883	 0.901440334	 0.118357
H	-0.975585796	-0.449658519	-0.1190866418	 0.096313
H	 1.9147530155	-1.0387135797	-3.1169911326	 0.191951
H	 1.7143089507	-0.1574124023	 1.2792689894	 0.076145
H	 0.2226945071	 0.3341745278	 3.2220818088	 0.096486
H	-1.1245099978	-0.4855645999	 2.406049301	 0.096951
H	 1.4092138708	-1.8662937344	 3.4816323241	 0.102587
H	-0.2037192118	-2.5968270038	 3.3874316713	 0.096354
H	-0.0646848488	-2.6233565802	 0.8832075062	 0.09993
H	 1.6953825963	-2.6377890042	 1.1029564585	 0.10161
76.3142	117.4793	132.2946	204.0197	228.2115	247.8994	374.7151	383.3823	474.599	549.8514	622.4181	630.6908	647.5948	760.1994	785.2487	855.704	895.5255	933.5058	948.7151	959.6661	997.8014	1021.1244	1066.1378	1103.9007	1121.4236	1186.6024	1202.7775	1233.7797	1255.7274	1260.9037	1272.143	1291.3275	1306.811	1330.6104	1376.5393	1406.0577	1477.6902	1485.5499	1492.5294	1498.6305	1509.3207	2231.3598	2991.6382	3038.8887	3041.7361	3043.9534	3053.2868	3058.4179	3097.2069	3106.3042	3113.7494	3119.4774	3120.6799	3504.5266
CC(C#C)C1CCC1	C[C@@H](C#C)C1CCC1	
InChI=1S/C8H12/c1-3-7(2)8-5-4-6-8/h1,7-8H,4-6H2,2H3	InChI=1S/C8H12/c1-3-7(2)8-5-4-6-8/h1,7-8H,4-6H2,2H3/t7-/m0/s1
