18
gdb 57764	2.85681	0.72389	0.63903	2.6071	81.66	-0.2728	0.0132	0.2861	1781.9744	0.144906	-401.933047	-401.922413	-401.921468	-401.971523	36.757	
C	-0.0262009111	 1.5838433593	 0.3446808253	-0.388149
C	-0.0064317532	 0.0810896033	 0.0318007957	-0.022384
O	 0.8673186226	-0.6309534281	 0.902025407	-0.409859
C	-1.361428756	-0.4866847145	 0.0437694708	 0.088533
C	-2.4740013043	-0.9422206441	 0.1034410383	 0.069401
C	-3.8138205334	-1.531034877	 0.1548926261	-0.306028
C	-3.7716577155	-3.0757191542	 0.2653972881	-0.379618
C	-4.5974407961	-0.9561955786	 1.2632070073	 0.28951
N	-5.2235881462	-0.5235768514	 2.1320698578	-0.320283
H	 0.9964391534	 1.9691473329	 0.3303955143	 0.129324
H	-0.6253387345	 2.1278047492	-0.3910952906	 0.128616
H	-0.4589399357	 1.7637754036	 1.334014785	 0.12422
H	 0.4249235685	-0.0656534242	-0.965727408	 0.122468
H	 0.4825317883	-0.6029653208	 1.7855128914	 0.285324
H	-4.3452028019	-1.2696384903	-0.7707444109	 0.158794
H	-3.2619647664	-3.3776781376	 1.1823412954	 0.149326
H	-4.7860424658	-3.4813231245	 0.2736145905	 0.139902
H	-3.2273948326	-3.4829944629	-0.5890181036	 0.140904
5.4275	64.6425	87.3528	173.3597	199.7012	219.6895	230.7747	256.5729	298.8489	352.9925	385.8572	443.0886	492.9011	550.5984	587.7084	618.4956	724.3668	825.8636	899.2765	974.1466	1025.4464	1057.27	1074.8123	1094.5645	1120.9589	1184.1049	1285.9269	1295.9395	1325.0512	1335.5365	1400.5991	1408.0473	1417.2996	1487.9619	1489.228	1491.4006	1496.4332	2360.9637	2368.1947	3017.8844	3039.6165	3043.3093	3058.4031	3116.9231	3130.1368	3141.3165	3147.1384	3800.0534
CC(O)C#CC(C)C#N	C[C@@H](O)C#C[C@@H](C)C#N	
InChI=1S/C7H9NO/c1-6(5-8)3-4-7(2)9/h6-7,9H,1-2H3	InChI=1S/C7H9NO/c1-6(5-8)3-4-7(2)9/h6-7,9H,1-2H3/t6-,7-/m1/s1
