19
gdb 116748	5.65611	0.62623	0.56979	1.0035	80.3	-0.2445	0.005	0.2495	1951.5529	0.157859	-456.393412	-456.383049	-456.382105	-456.429858	35.5	
C	 0.352703084	 1.3457872315	 0.4090301187	-0.396082
C	 0.1266629072	-0.1554784568	 0.6068104853	-0.109326
N	 0.4784919876	-1.0642274117	-0.4736066701	-0.263604
C	 0.9612812102	-0.613895627	-1.5514498998	 0.122671
N	 1.2959026695	-1.4845412384	-2.5804406851	-0.396095
C	 1.8245089363	-1.065991046	-3.7776261099	 0.539027
O	 2.0584575233	 0.0804837628	-4.0786236308	-0.402347
O	 2.0429738151	-2.1386208189	-4.5690873402	-0.266327
C	 2.5961359961	-1.8302081427	-5.8529501344	-0.236472
H	 1.4079304544	 1.5802708327	 0.2330817833	 0.124369
H	-0.2272014309	 1.7387077323	-0.4328550359	 0.124368
H	 0.0387656639	 1.8844952464	 1.3080550548	 0.114792
H	 0.6765175644	-0.4921255467	 1.4962265643	 0.112394
H	-0.9311091351	-0.3363039959	 0.841643429	 0.112393
H	 1.1666514563	 0.4264262826	-1.8076717653	 0.132106
H	 1.1393577685	-2.4702742638	-2.4306833224	 0.266328
H	 3.5650189314	-1.3356938615	-5.7484786658	 0.143332
H	 2.7103461674	-2.7879682456	-6.3606579788	 0.135151
H	 1.9255720303	-1.1769774334	-6.4167163869	 0.143321
56.6665	73.375	96.368	98.9037	164.2709	207.6112	223.6243	263.9177	326.3847	338.5408	376.2492	461.2799	614.6122	625.7779	731.5816	779.0729	779.8193	882.3794	979.0115	1010.5862	1062.638	1094.706	1102.4581	1148.938	1183.0465	1215.5838	1230.6638	1266.5851	1311.3092	1356.7114	1385.0832	1409.5848	1465.1533	1481.5799	1482.6792	1495.5988	1498.5832	1505.0388	1529.0343	1763.6396	1825.8224	3013.2242	3031.8609	3033.8653	3053.0157	3102.3988	3108.3858	3128.1716	3128.9671	3159.6776	3628.2466
CCN=CNC(=O)OC	CCN=CNC(=O)OC	
InChI=1S/C5H10N2O2/c1-3-6-4-7-5(8)9-2/h4H,3H2,1-2H3,(H,6,7,8)	InChI=1S/C5H10N2O2/c1-3-6-4-7-5(8)9-2/h4H,3H2,1-2H3,(H,6,7,8)
