17
gdb 125813	2.91612	1.33284	0.9711	1.9358	73.9	-0.2488	-0.0098	0.239	1191.0263	0.136752	-417.977381	-417.969154	-417.96821	-418.011574	29.815	
C	-0.0653352289	 1.5047116295	 0.0083380929	-0.496966
C	-0.0461779367	 0.0106270492	 0.0160491791	 0.320607
N	-0.0624594475	-0.6604032392	-1.1102480237	-0.197594
O	-0.0355543244	-2.0073127241	-0.7557756764	-0.169431
C	 0.0010195177	-2.0984291525	 0.5806451504	-0.011583
C	-0.0132372693	-0.8659805081	 1.1525924177	 0.070602
C	 0.025578293	-0.4935715016	 2.5843057449	-0.138673
C	-1.2275491844	-0.1709365068	 3.3245765534	-0.230145
N	-0.483261698	-1.4057756129	 3.6219745461	-0.315462
H	 0.8467962006	 1.911234666	 0.4584773169	 0.139554
H	-0.1418992018	 1.8736200764	-1.0158946576	 0.15296
H	-0.9119636738	 1.887170804	 0.587643835	 0.139641
H	 0.0422224975	-3.0991928485	 0.9832075445	 0.152416
H	 0.9274995896	 0.0313069835	 2.8957996406	 0.108759
H	-1.2111027733	 0.5757267952	 4.1130859485	 0.124515
H	-2.1659488748	-0.2485599486	 2.7825694357	 0.118362
H	-0.9570079654	-2.1913225915	 3.182186162	 0.23244
24.6428	126.5871	147.745	165.4933	266.7714	295.5853	413.9422	488.0381	595.877	622.4561	699.8463	721.8563	838.2841	850.8489	881.7769	910.6929	944.6746	960.1891	1000.0463	1030.9436	1068.0774	1096.6892	1142.0767	1157.1736	1170.4708	1199.2274	1256.6262	1296.7503	1305.0432	1391.9758	1410.752	1429.9678	1476.7898	1481.0768	1505.6113	1535.0077	1654.4726	3041.0302	3095.9576	3111.4073	3113.8307	3142.2779	3201.6979	3257.8301	3498.9372
CC1=NOC=C1C1CN1	Cc1nocc1[C@H]1CN1	
InChI=1S/C6H8N2O/c1-4-5(3-9-8-4)6-2-7-6/h3,6-7H,2H2,1H3	InChI=1S/C6H8N2O/c1-4-5(3-9-8-4)6-2-7-6/h3,6-7H,2H2,1H3/t6-/m1/s1
