21
gdb 105106	2.43185	1.36455	1.01857	2.9474	77.42	-0.2431	0.0698	0.3129	1238.8718	0.181726	-424.182936	-424.173732	-424.172788	-424.217302	33.999	
C	-0.0073795185	 0.5933867831	 0.7836446358	-0.385579
C	-0.4102604154	 0.4852678257	-0.6924020596	-0.25312
C	 0.5286997781	-0.3603900595	-1.5381412231	 0.396232
C	 0.8186486319	 0.0790442028	-2.9127499334	-0.237804
O	 1.7758204976	 0.2753290614	-1.8678447468	-0.272082
C	 0.6405173316	-1.8264538052	-1.1803546556	-0.097935
C	 1.6076766393	-2.7383586561	-1.968031479	-0.102105
O	 2.1864360009	-3.2462601603	-0.7496114659	-0.274907
C	 1.5105827507	-2.2452959919	 0.033631628	-0.088951
H	-0.0567285479	-0.3725822787	 1.2954747737	 0.123477
H	 1.0123335005	 0.9781557148	 0.8785025356	 0.134923
H	-0.6763411897	 1.2776310342	 1.3137764834	 0.115798
H	-1.4230689603	 0.0694616407	-0.7740379452	 0.100317
H	-0.446642325	 1.4887570931	-1.1293582879	 0.105775
H	 1.1009642996	-0.6460469774	-3.6746713274	 0.113263
H	 0.3521174438	 0.986237132	-3.2946475469	 0.113368
H	-0.3632047319	-2.2578071695	-1.1208644029	 0.083823
H	 1.1602367647	-3.5323064112	-2.5760715925	 0.100873
H	 2.3485961484	-2.1902567593	-2.5633606017	 0.111546
H	 2.2003098242	-1.4631874807	 0.3750447472	 0.111254
H	 0.9924809276	-2.677154058	 0.8972586241	 0.101835
70.392	97.4168	117.575	172.2168	227.5418	258.1289	268.721	351.9057	386.9279	507.7314	532.7328	630.3832	758.3281	805.7883	861.792	878.3715	892.7283	943.1106	971.1369	996.9278	1023.748	1039.5961	1056.8692	1073.7891	1100.9215	1130.0024	1133.9898	1171.2383	1173.4918	1194.0716	1227.6276	1263.2735	1298.9744	1316.5898	1348.3022	1365.091	1402.8107	1409.9107	1416.5566	1474.654	1500.4644	1503.5678	1508.0004	1525.0775	1534.9337	3012.7916	3023.5775	3025.383	3041.4747	3054.1465	3066.1447	3070.1892	3077.7963	3081.9513	3109.1916	3117.1377	3165.5144
CCC1(CO1)C1COC1	CC[C@]1(CO1)C1COC1	
InChI=1S/C7H12O2/c1-2-7(5-9-7)6-3-8-4-6/h6H,2-5H2,1H3	InChI=1S/C7H12O2/c1-2-7(5-9-7)6-3-8-4-6/h6H,2-5H2,1H3/t7-/m0/s1
