18
gdb 52606	2.47675	1.01579	0.90764	5.1265	77.	-0.2452	0.0182	0.2634	1398.1174	0.145174	-439.097215	-439.086687	-439.085742	-439.134819	36.67	
C	-0.1230783481	 1.5091141136	-0.0718760466	-0.499366
C	-0.0742675551	 0.0544916422	-0.0677600832	 0.028749
C	-0.0357418732	-1.148628066	-0.0406894333	 0.1318
C	 0.0367169793	-2.609056312	-0.0528112853	-0.102667
C	-1.3741137981	-3.2348744616	-0.021383747	-0.41222
N	 0.7703609385	-3.1312537397	-1.2346775936	-0.554031
H	 1.6240738433	-4.2090376452	 0.0036003409	 0.307838
H	 0.1308066167	-3.2844493025	-2.0077689547	 0.245311
H	 1.4503267558	-2.4438488633	-1.5458507452	 0.250488
C	 0.7701367631	-3.1215882431	 1.2333238003	 0.448173
O	 0.5286849811	-2.7054492989	 2.3314653777	-0.34427
O	 1.6397013101	-4.1046188834	 0.9832801597	-0.374844
H	 0.4806467911	 1.9260166611	-0.8854113563	 0.148138
H	-1.1487522514	 1.8718626768	-0.199349649	 0.151781
H	 0.2601802146	 1.9162192402	 0.86989158	 0.160086
H	-1.9666784093	-2.8690314646	-0.8651122242	 0.123176
H	-1.3030026885	-4.3256504568	-0.0769464788	 0.129923
H	-1.8753195397	-2.9587295169	 0.9069299185	 0.161937
12.4285	53.1942	86.1481	119.682	232.506	261.3278	275.1838	289.21	304.8835	346.2666	368.5072	451.7183	468.834	546.1086	610.4599	713.5607	764.2488	825.9192	886.1369	908.9287	979.9069	1007.3804	1051.071	1053.6443	1081.7486	1159.9056	1194.1935	1246.5633	1313.5942	1397.013	1413.196	1432.9136	1476.0712	1477.6914	1488.4898	1494.8778	1653.4462	1875.3225	2369.2232	3029.3708	3041.8049	3090.3507	3093.9621	3114.7306	3152.1389	3425.9926	3502.2609	3581.8625
CC#CC(C)([NH3+])C([O-])=O	CC#C[C@@](C)(N)C(=O)O	
InChI=1S/C6H9NO2/c1-3-4-6(2,7)5(8)9/h7H2,1-2H3,(H,8,9)	InChI=1S/C6H9NO2/c1-3-4-6(2,7)5(8)9/h7H2,1-2H3,(H,8,9)/t6-/m1/s1
