19
gdb 41619	3.46195	1.51676	1.2875	2.1303	80.73	-0.2339	0.0121	0.246	1024.5157	0.16201	-385.850032	-385.843132	-385.842188	-385.881298	28.165	
C	 0.121811084	 1.6415517276	-0.023944108	-0.252583
C	 1.6718930359	 1.3484889083	-0.0255357873	-0.314474
C	 1.2877458198	-0.0152426464	 0.499833599	 0.304703
C	 1.4672112726	-0.8722638288	 1.5015510173	-0.266723
C	 0.1527476149	-1.5612909293	 1.820619513	 0.099737
O	-0.4053386117	-1.0976499089	 3.0796292017	-0.290087
C	-1.3004586438	-0.1969382842	 2.3946408866	-0.089236
C	-0.9234961233	-0.7620411168	 1.0068254211	-0.114077
C	-0.1297893659	 0.0873507019	 0.0036061146	-0.050056
H	-0.1852668907	 2.1329282675	 0.9014901954	 0.115349
H	-0.2774601194	 2.1915220193	-0.8790918763	 0.102503
H	 2.065313989	 1.3267134788	-1.0472810076	 0.114247
H	 2.3213932213	 1.9719824294	 0.5926526475	 0.114469
H	 2.342741695	-0.9853093713	 2.1301460539	 0.099233
H	 0.1669623147	-2.656763367	 1.789714594	 0.075703
H	-2.340295586	-0.3471627124	 2.7061582943	 0.102137
H	-1.0323783859	 0.8544075922	 2.5609900942	 0.096665
H	-1.717777172	-1.3575513792	 0.5556755048	 0.074507
H	-0.2675249487	-0.2725590006	-1.0228941182	 0.077984
112.9525	174.5642	248.9763	339.0453	436.1308	444.7148	619.149	653.4763	675.4391	772.3188	804.0514	813.8474	853.6577	864.7838	891.4041	928.4898	936.8491	985.7691	989.6533	1002.8116	1019.689	1048.7984	1096.8169	1106.0973	1124.1128	1164.2445	1179.7726	1201.9167	1218.6676	1232.4284	1248.4069	1266.1303	1290.5944	1314.0243	1327.4246	1342.3429	1375.2411	1473.6326	1485.4824	1522.8489	1724.4261	3014.1547	3027.8936	3039.447	3050.1659	3057.1924	3067.2629	3104.7786	3108.6054	3130.8728	3202.5857
C1CC2=CC3OCC3C12	C1C[C]2[CH][C@H]3OC[C@H]3[C@@H]12	
InChI=1S/C8H10O/c1-2-6-5(1)3-8-7(6)4-9-8/h3,6-8H,1-2,4H2	InChI=1S/C8H10O/c1-2-6-5(1)3-8-7(6)4-9-8/h3,6-8H,1-2,4H2/t6-,7-,8+/m0/s1
