19
gdb 33245	5.70043	0.68929	0.65356	3.6738	78.91	-0.2201	0.0328	0.2529	1725.449	0.160333	-419.236188	-419.22709	-419.226146	-419.271409	32.229	
C	-0.0429793885	 1.3814345625	 0.0210603374	-0.226105
O	-0.0554553207	-0.0232820567	-0.0226802797	-0.230465
C	 0.6740076192	-0.543282942	-1.1140743317	-0.042421
C	 0.572199691	-2.0678903893	-1.0784120183	-0.322199
C	 1.2856608621	-2.7081943565	-2.2267101001	 0.281108
C	 2.3836879442	-3.5300750407	-2.20551139	-0.194037
N	 2.6465035818	-3.8339453472	-3.5245035811	-0.229721
C	 1.7113136506	-3.1908937856	-4.2772779864	 0.011471
N	 0.8779489696	-2.5049157459	-3.5317635597	-0.30249
H	 0.9793736098	 1.7803506723	 0.1254324764	 0.098699
H	-0.4888485291	 1.8243826063	-0.8840903866	 0.102745
H	-0.6305206295	 1.6895440498	 0.8898545179	 0.122284
H	 0.2744388252	-0.167089361	-2.0688226371	 0.107366
H	 1.7311086221	-0.230682631	-1.0564222315	 0.078785
H	 0.9811697696	-2.432050565	-0.1303612466	 0.103042
H	-0.4900908244	-2.3368563033	-1.0976164388	 0.120227
H	 2.9833029072	-3.9200503765	-1.39982897	 0.127221
H	 3.3853966153	-4.4264400579	-3.8631920453	 0.266198
H	 1.6889254043	-3.2635457121	-5.3545841387	 0.128292
44.5104	82.2975	94.9029	111.3919	230.7913	260.0864	329.406	341.3122	460.3835	514.2956	659.7739	696.0821	727.3555	767.4434	804.1004	820.254	949.9958	976.8008	996.3668	1053.9309	1063.3816	1096.2877	1134.619	1162.2113	1180.7125	1220.3505	1227.6687	1248.9427	1286.1588	1304.4867	1324.0128	1361.1978	1418.2113	1456.3039	1480.6845	1482.9142	1484.8079	1505.4634	1528.0705	1532.8757	1601.8812	2951.9498	2966.9259	3001.0483	3006.4826	3041.3242	3088.7175	3107.8861	3249.3199	3272.5092	3669.1956
COCCC1=CNC=N1	COCCc1c[nH]cn1	
InChI=1S/C6H10N2O/c1-9-3-2-6-4-7-5-8-6/h4-5H,2-3H2,1H3,(H,7,8)	InChI=1S/C6H10N2O/c1-9-3-2-6-4-7-5-8-6/h4-5H,2-3H2,1H3,(H,7,8)
