20
gdb 101765	2.42602	1.11433	0.83013	6.1998	72.58	-0.2377	0.0336	0.2713	1404.4832	0.169763	-477.451198	-477.441226	-477.440282	-477.486518	36.162	
C	-0.6680143656	 1.3838990206	-0.2234726793	-0.395135
C	 0.0091543268	 0.0655917171	 0.1431540389	 0.122816
C	 0.8759058801	-0.4891309713	-0.9892266895	-0.162408
N	 1.3971406083	-1.8141193078	-0.6219850599	-0.508422
H	 1.2976788662	-1.9542661542	 1.2544281929	 0.328674
H	 0.7515769297	-2.5481460066	-0.8960449227	 0.247388
H	 2.2760220699	-2.0058220335	-1.0888145361	 0.247723
O	 0.8887861903	 0.2426703569	 1.2526717895	-0.253278
C	 0.3531110157	-0.0438893762	 2.5232818664	-0.222009
C	 0.3978710299	-1.5250022859	 2.9354101029	 0.367604
O	 1.0021284425	-2.3715235697	 2.1038759375	-0.381843
O	-0.0799243258	-1.8748531494	 3.9840583701	-0.334337
H	 0.0815040586	 2.1341556445	-0.494122509	 0.127932
H	-1.3537746944	 1.25331411	-1.0668237035	 0.117091
H	-1.2438436422	 1.7700611821	 0.6223481139	 0.127461
H	-0.7575389001	-0.6839556321	 0.3957623906	 0.079893
H	 0.3051504852	-0.4932569088	-1.9279836581	 0.097631
H	 1.7237497212	 0.1905633492	-1.1211953771	 0.124656
H	 0.9515504054	 0.5062238069	 3.2565257655	 0.143843
H	-0.6835981916	 0.299758408	 2.632727527	 0.124718
57.3628	83.3521	140.4358	157.7394	227.2138	237.1897	257.0625	299.245	315.4594	380.4396	424.7581	520.24	550.4405	569.892	663.8618	814.407	865.1921	869.0478	898.8374	936.6546	952.4992	1022.6458	1056.3345	1073.3021	1097.5094	1140.1818	1146.1028	1235.9667	1266.4177	1289.4739	1325.8604	1353.0905	1361.8094	1376.9049	1401.0272	1410.5731	1424.4203	1466.2926	1483.3843	1490.9386	1498.3826	1658.8866	1849.6087	2980.7508	3011.2187	3028.2562	3039.4002	3086.3089	3088.4673	3111.982	3116.8134	3298.9383	3512.2566	3592.6718
CC(C[NH3+])OCC([O-])=O	C[C@@H](CN)OCC(=O)O	
InChI=1S/C5H11NO3/c1-4(2-6)9-3-5(7)8/h4H,2-3,6H2,1H3,(H,7,8)	InChI=1S/C5H11NO3/c1-4(2-6)9-3-5(7)8/h4H,2-3,6H2,1H3,(H,7,8)/t4-/m0/s1
