15
gdb 17870	3.3892	2.17311	2.02495	1.7161	66.	-0.2298	-0.0088	0.221	744.2516	0.12133	-362.652784	-362.64667	-362.645726	-362.682842	24.344	
O	 0.0430456091	 0.0124318788	-0.1564649255	-0.322202
C	 0.0138776827	 1.1931133967	 0.0246425412	 0.433347
C	-1.0856439988	 2.2789327959	 0.0375021417	-0.138964
C	-1.2880940202	 2.8727057853	 1.4398713102	-0.236446
C	 0.0623981295	 3.147188992	 2.0630598111	-0.070303
C	 1.1769960411	 2.8878337788	 1.3785546476	-0.024114
C	 1.0256433818	 2.3592184477	-0.0328363591	-0.187311
N	-0.0846428461	 3.1505154834	-0.695493437	-0.308255
H	-2.0226169159	 2.0745100039	-0.484992073	 0.091673
H	-1.8860058205	 3.7914213824	 1.3772878649	 0.120226
H	-1.8601957478	 2.167722115	 2.057860454	 0.120528
H	 0.0937602137	 3.5496413818	 3.0710863877	 0.099645
H	 2.1686963826	 3.0275600306	 1.7938187448	 0.102967
H	 1.9566875904	 2.2593077617	-0.5905254541	 0.088429
H	-0.1081875615	 2.8835180058	-1.6796894546	 0.230781
136.6164	240.2102	358.8365	441.7304	478.8118	524.6818	555.4353	662.3476	764.8545	803.6459	857.5032	863.0953	885.2057	948.1253	955.4817	974.364	996.4794	1049.4416	1079.5287	1091.8992	1125.095	1150.6123	1198.1997	1230.8428	1268.5092	1336.1223	1343.9156	1373.0174	1399.9912	1470.2883	1698.1873	1887.2106	3014.9696	3045.0857	3096.6507	3121.4137	3170.2403	3198.481	3460.657
O=C1C2CC=CC1N2	O=C1[C@H]2CC=C[C@@H]1N2	
InChI=1S/C6H7NO/c8-6-4-2-1-3-5(6)7-4/h1-2,4-5,7H,3H2	InChI=1S/C6H7NO/c8-6-4-2-1-3-5(6)7-4/h1-2,4-5,7H,3H2/t4-,5+/m0/s1
