16
gdb 48502	3.60919	1.5805	1.37255	3.2557	72.72	-0.2449	-0.03	0.2149	940.8964	0.125437	-400.672475	-400.66595	-400.665006	-400.703542	25.917	
O	-0.2039085138	 0.1814058187	-0.4199421152	-0.266737
C	 0.0796263721	 1.2207950528	 0.126698434	 0.032483
C	 1.3984048427	 1.857920751	 0.0458636539	 0.284069
C	 2.0863239849	 2.5499065437	 1.1994458654	-0.082847
C	 3.5495034703	 2.5139724264	 0.713910494	-0.07714
C	 3.7692527574	 1.1510672123	 0.0098249134	-0.25043
C	 2.5861483391	 1.5871508556	-0.8894137989	-0.138207
C	 2.9097604435	 3.0892650808	-0.5931616161	 0.026854
N	 1.5570237115	 3.371910682	 0.0856012633	-0.212441
H	-0.6568971052	 1.7875071146	 0.7396178322	 0.080321
H	 1.6779180325	 2.6040196208	 2.2017736686	 0.109085
H	 4.3097158001	 3.0157698473	 1.3080795503	 0.086863
H	 4.7130343866	 1.1348187329	-0.5439263651	 0.108907
H	 3.6637651763	 0.2351088928	 0.5973867552	 0.110411
H	 2.3865566255	 1.1680692707	-1.8717030886	 0.096612
H	 3.3414368266	 3.8158532176	-1.2763302567	 0.092199
107.1785	160.4924	259.6124	405.5454	451.6384	547.2299	680.416	740.6802	762.2326	784.7871	824.9324	849.3387	857.5864	887.6877	908.6617	952.4974	960.5603	987.91	1004.0982	1036.6556	1069.04	1073.0985	1110.8464	1172.8101	1189.0742	1200.7223	1215.3155	1220.9029	1256.4768	1286.5193	1303.3355	1378.8421	1427.6917	1484.9609	1803.9469	2882.3009	3053.1011	3112.5986	3143.3841	3154.695	3164.8688	3186.2295
O=CC12C3C4CC1C4N23	O=C[C@@]12[C@H]3[C@H]4C[C@@H]1[C@H]4N23	
InChI=1S/C7H7NO/c9-2-7-4-1-3-5(4)8(7)6(3)7/h2-6H,1H2	InChI=1S/C7H7NO/c9-2-7-4-1-3-5(4)8(7)6(3)7/h2-6H,1H2/t3-,4+,5-,6+,7-,8?/m0/s1
