20
gdb 53172	2.85293	1.08152	0.93279	1.8999	87.65	-0.2261	0.0374	0.2635	1365.2071	0.169875	-365.945023	-365.935441	-365.934497	-365.980886	34.567	
C	 0.0096751043	 1.5804198151	-0.1837432445	-0.498776
C	 0.0203216344	 0.1278748307	-0.0883473872	 0.029676
C	 0.0318539314	-1.0760698231	-0.0262012941	 0.15323
C	 0.0478818249	-2.5225934673	 0.0612275855	-0.194175
C	 0.3014898286	-3.205660708	 1.4586802709	 0.001697
C	 0.6363879252	-2.3685479195	 2.6842338741	-0.413789
C	-1.0978080851	-3.7975872742	 1.3079084491	-0.032685
C	-2.1222285284	-2.7700430971	 1.0424051938	-0.241298
N	-1.2953889186	-3.2279994493	-0.0889717311	-0.133366
H	 0.8171405971	 1.9421754401	-0.8298494941	 0.150378
H	-0.9359612924	 1.9405688872	-0.6038337249	 0.152346
H	 0.1350865369	 2.048065276	 0.7990938622	 0.147761
H	 0.7149507664	-2.9317685964	-0.7020257071	 0.105596
H	 1.0564598277	-3.9863864403	 1.3302821406	 0.084169
H	-0.0875728635	-1.5640199881	 2.8369726064	 0.123343
H	 0.6465732243	-2.9931692188	 3.5842093057	 0.114019
H	 1.6246171753	-1.9081619989	 2.582858072	 0.119971
H	-1.3610133323	-4.8265552381	 1.5334843122	 0.091021
H	-3.1519524725	-3.1050813705	 0.9630783359	 0.119188
H	-2.0036766338	-1.7517110995	 1.4021040044	 0.121693
19.8636	85.8906	93.0795	182.7609	192.5391	236.4795	284.9093	341.5197	399.282	468.8224	485.1392	587.5932	695.5098	751.1762	771.0885	788.1669	884.8415	905.3806	963.2687	993.5275	1048.2156	1051.3499	1053.7735	1069.7929	1092.2449	1110.0187	1139.1764	1147.3661	1199.0971	1212.8222	1238.4936	1278.9845	1352.2658	1370.9094	1374.1648	1414.0861	1414.7574	1476.886	1478.395	1489.3961	1495.0423	1505.6489	2359.6284	3027.0503	3035.5178	3057.3637	3072.6666	3087.6526	3089.0209	3099.0883	3116.1614	3120.1223	3155.3715	3203.2114
CC#CC1C(C)C2CN12	CC#C[C@H]1[C@@H](C)[C@H]2CN12	
InChI=1S/C8H11N/c1-3-4-7-6(2)8-5-9(7)8/h6-8H,5H2,1-2H3	InChI=1S/C8H11N/c1-3-4-7-6(2)8-5-9(7)8/h6-8H,5H2,1-2H3/t6-,7+,8-,9?/m1/s1
