17
gdb 12358	2.82772	2.22002	1.52272	3.1222	70.36	-0.214	-0.0508	0.1632	870.2413	0.143809	-363.886178	-363.878726	-363.877782	-363.917814	28.295	
C	-0.2028773678	 1.5046357302	 0.082175814	-0.386896
C	 0.0404883795	-0.0080478926	-0.0300021655	-0.091065
N	 0.7616331296	-0.3473415951	-1.2663902317	-0.298449
C	 2.1776604191	 0.015033367	-1.2454219835	-0.230046
C	 2.8857114828	-0.2890918784	 0.048144212	-0.041437
C	 2.2205191593	-0.5723722749	 1.1753106928	-0.155471
C	 0.7440979731	-0.5126156755	 1.2375836638	 0.370546
O	 0.1255003281	-0.795467403	 2.2449820045	-0.3401
H	 0.7355297631	 2.0600730726	 0.18151353	 0.118329
H	-0.7218892841	 1.8627017	-0.8107106256	 0.126794
H	-0.8126094496	 1.7185398341	 0.9635261749	 0.137074
H	-0.9322772663	-0.5078530184	-0.0694950943	 0.100733
H	 0.694979594	-1.3504133648	-1.4068290582	 0.223536
H	 2.6781603505	-0.4993736558	-2.0738732908	 0.120352
H	 2.2887760432	 1.0885990618	-1.4651983698	 0.130824
H	 3.9741813356	-0.2574349625	 0.0407543188	 0.10734
H	 2.72706882	-0.8164711646	 2.1042191584	 0.107935
81.1894	192.361	227.1322	241.8004	337.8449	374.201	446.9737	497.1533	556.7887	635.4941	719.8565	774.9652	822.245	840.4157	871.7676	919.0182	999.3783	1030.7168	1039.3466	1047.3008	1126.0434	1146.9849	1191.3276	1255.633	1261.1499	1303.6257	1346.2886	1390.4668	1394.9647	1401.3265	1467.2942	1490.7331	1493.0486	1503.8978	1680.0696	1775.4472	2991.2823	3043.2811	3056.2758	3065.4525	3113.8954	3131.4507	3139.9005	3184.3883	3514.7214
CC1NCC=CC1=O	C[C@H]1NCC=CC1=O	
InChI=1S/C6H9NO/c1-5-6(8)3-2-4-7-5/h2-3,5,7H,4H2,1H3	InChI=1S/C6H9NO/c1-5-6(8)3-2-4-7-5/h2-3,5,7H,4H2,1H3/t5-/m1/s1
