14
gdb 44130	2.59186	1.71846	1.35969	4.4854	66.79	-0.2479	0.0276	0.2754	946.3361	0.101185	-436.677298	-436.669948	-436.669003	-436.70926	28.173	
O	 0.0315391089	-0.0020218822	-0.0859656704	-0.370814
C	-0.0218632485	 1.1868258901	 0.0130260102	 0.470419
N	-1.1443026647	 1.9955704023	 0.1161231066	-0.360026
C	-0.8063712668	 3.3762062324	 0.0552959982	-0.054401
C	 0.68894513	 3.3460017793	 0.0464520204	 0.074081
O	 1.0923283092	 2.0030035351	 0.0592382683	-0.229122
C	-0.0386302486	 3.8702871967	-1.1906422062	-0.302491
C	-0.0703739516	 3.1403324884	-2.4174208103	 0.315646
C	-0.111654328	 2.5056557599	-3.437984413	-0.403948
H	-2.0103716289	 1.6282617615	-0.2442214942	 0.271327
H	-1.3989682583	 4.071016943	 0.6382997027	 0.125654
H	 1.3319946946	 3.9946266995	 0.6264011329	 0.131545
H	-0.0021810803	 4.9535368094	-1.2751425644	 0.126348
H	-0.1321501868	 1.9460274146	-4.3401391207	 0.205782
89.4157	135.974	191.9004	335.6871	376.2292	455.3727	503.4907	592.8856	621.8165	650.3547	671.0317	705.3363	755.9275	766.6062	776.6786	801.066	909.5683	951.3137	1019.7489	1025.8674	1081.1226	1106.6317	1146.3231	1176.1171	1212.5537	1357.7503	1371.2497	1373.7652	1420.1101	1909.538	2239.9464	3142.9677	3179.8544	3205.3183	3504.2316	3651.5355
O=C1NC2C(O1)C2C#C	O=C1N[C@H]2[C@@H](O1)[C@H]2C#C	
InChI=1S/C6H5NO2/c1-2-3-4-5(3)9-6(8)7-4/h1,3-5H,(H,7,8)	InChI=1S/C6H5NO2/c1-2-3-4-5(3)9-6(8)7-4/h1,3-5H,(H,7,8)/t3-,4+,5-/m0/s1
