18
gdb 50110	3.72508	0.68629	0.61001	3.0455	80.25	-0.252	-0.0307	0.2213	1765.4753	0.145242	-401.896039	-401.88643	-401.885485	-401.931712	34.217	
O	-0.1818499416	 0.2245543663	 0.7804258902	-0.256121
C	 0.3707813447	 0.6683860094	-0.1945437815	 0.173752
C	 1.3776004278	 1.7659808515	-0.1386072266	-0.139892
N	 2.2972713055	 1.8567383266	-1.2935142072	-0.330318
C	 1.3471193262	 2.9404382319	-1.0784390011	-0.012852
C	 0.2902501991	 3.1658192463	-2.1364661363	-0.192662
C	 0.8565105281	 3.9802949882	-3.3201753332	-0.350832
C	-0.1364268704	 4.2355179618	-4.3552587361	 0.287089
C	-0.9766206963	 4.4299704893	-5.1923470703	-0.429072
H	 0.1743413607	 0.2749280064	-1.2148257931	 0.089103
H	 1.7564918869	 1.95814934	 0.8624034649	 0.107075
H	 3.2305110879	 2.1031312654	-0.9765858503	 0.244997
H	 1.7360276887	 3.8597759934	-0.6380033575	 0.097852
H	-0.0829423519	 2.2102803188	-2.5121497407	 0.122486
H	-0.5610640041	 3.6984653614	-1.6988122131	 0.120886
H	 1.2550881592	 4.9351239948	-2.9515295964	 0.126753
H	 1.7074301635	 3.4350710753	-3.7469047023	 0.145491
H	-1.7094946839	 4.6076345432	-5.9397266494	 0.196265
62.6636	68.0869	77.9596	121.9824	207.0396	249.8186	312.4303	347.2987	425.6891	433.9685	525.3306	530.9554	620.6352	641.4658	767.1252	812.0442	860.6006	914.792	966.6274	979.5579	1014.4183	1025.5376	1040.6938	1057.4975	1130.6899	1173.5571	1220.3093	1236.3634	1259.9104	1285.7422	1318.5482	1361.2009	1376.6891	1422.4759	1467.3369	1474.2606	1485.909	1822.5852	2240.7158	2906.6127	3016.8084	3050.7805	3059.6563	3092.2097	3116.0713	3146.958	3507.3124	3516.921
O=CC1NC1CCC#C	O=C[C@H]1N[C@H]1CCC#C	
InChI=1S/C7H9NO/c1-2-3-4-6-7(5-9)8-6/h1,5-8H,3-4H2	InChI=1S/C7H9NO/c1-2-3-4-6-7(5-9)8-6/h1,5-8H,3-4H2/t6-,7+/m0/s1
