20
gdb 110500	2.68749	1.37748	1.15288	1.5081	77.57	-0.239	0.0631	0.3021	1146.8079	0.171158	-403.089184	-403.08066	-403.079716	-403.122327	32.813	
C	-0.0613498989	 1.5276939976	-0.0009200409	-0.500062
C	-0.0145368895	 0.0273968038	 0.0138479555	 0.309995
C	 0.3678081029	-0.7914580196	-1.2428948414	-0.28713
C	-0.5889269714	-1.8221999805	-0.6793329713	-0.040298
C	-0.4981443706	-1.8072283692	 0.8142406373	-0.0804
C	 0.5229437898	-0.7630126642	 1.2383509054	-0.031049
C	 1.9985705333	-1.1052510985	 1.4028898005	-0.105464
O	 2.2472416836	-1.8415698967	 2.5941795566	-0.418159
N	-1.3545619373	-0.7953022953	 0.1072948446	-0.189363
H	 0.9495739727	 1.9454477074	-0.0752690325	 0.122185
H	-0.6418249437	 1.8901443306	-0.8552891022	 0.126789
H	-0.5235962281	 1.9137629894	 0.9129619235	 0.128626
H	-0.0524986057	-0.3276084149	-2.1399872255	 0.109255
H	 1.4162336883	-1.0488993172	-1.4224429741	 0.096966
H	-1.1065473282	-2.6133297443	-1.2104972989	 0.094448
H	-0.9560794927	-2.5819208425	 1.4204846167	 0.091234
H	 0.17042804	-0.2737832794	 2.1536350337	 0.089257
H	 2.377678218	-1.6442850708	 0.5225716356	 0.088262
H	 2.5858579336	-0.1846292538	 1.4982590198	 0.110318
H	 1.7969712038	-2.688379612	 2.5132273977	 0.284589
69.2872	169.8224	177.7949	200.5492	260.0774	303.0057	314.2485	378.4292	498.5898	561.387	617.8497	713.4292	769.1197	793.7851	818.7613	827.9401	888.8121	954.952	976.0419	1010.7697	1027.7363	1037.4783	1055.3537	1065.0791	1103.9368	1114.0401	1123.82	1143.6801	1185.6478	1212.9526	1237.6406	1248.9198	1320.7364	1338.0525	1362.2795	1377.2949	1403.6257	1411.9702	1427.227	1479.9643	1491.1355	1502.1739	1504.8833	2995.4138	3029.0643	3046.5141	3048.1667	3066.0347	3096.4418	3098.5617	3107.8284	3164.5146	3179.7573	3817.2934
CC12CC3C(C1CO)N23	C[C@@]12C[C@H]3[C@@H]([C@H]1CO)N23	
InChI=1S/C7H11NO/c1-7-2-5-6(8(5)7)4(7)3-9/h4-6,9H,2-3H2,1H3	InChI=1S/C7H11NO/c1-7-2-5-6(8(5)7)4(7)3-9/h4-6,9H,2-3H2,1H3/t4-,5+,6-,7-,8?/m1/s1
