17
gdb 124982	2.88072	1.15483	0.88126	2.5748	76.54	-0.236	-0.0344	0.2016	1291.8512	0.135879	-418.043691	-418.034649	-418.033705	-418.07974	31.183	
C	-0.2154600806	 1.5889668391	 0.2016416318	-0.515378
C	-0.0485094114	 0.1065033778	 0.0639744604	 0.108131
C	 0.0599485813	-0.6433862112	-1.0968202123	 0.264182
C	 0.0707221955	-0.266560996	-2.5464588485	-0.383662
C	 1.4576002101	-0.4846165885	-3.1388876164	 0.159243
O	 1.7063491225	-1.2880481388	-3.9988188406	-0.235228
N	 0.2087578909	-1.9379947041	-0.696997896	-0.243968
N	 0.1906460701	-2.0905256513	 0.6378009442	-0.22288
C	 0.037165335	-0.854278118	 1.1002497397	-0.0665
H	 0.7314262824	 2.0915542985	 0.432506299	 0.133931
H	-0.6072799671	 2.0404392488	-0.7152173117	 0.122508
H	-0.9137276571	 1.8331601654	 1.0082932055	 0.135149
H	-0.6476282887	-0.8499151128	-3.131630417	 0.132941
H	-0.1854866693	 0.7946738493	-2.6394033724	 0.133749
H	 2.2522944893	 0.1462909376	-2.6824449975	 0.088859
H	 0.3069208764	-2.7506197823	-1.283537362	 0.278348
H	-0.0149850192	-0.6848409635	 2.1665845939	 0.110575
26.7935	49.2528	59.2521	155.324	231.536	254.2698	348.7848	404.6949	474.1174	518.2859	634.4814	685.6806	696.5657	726.3989	846.8238	883.4526	948.2977	1000.6455	1008.1294	1052.3949	1064.1471	1146.1262	1165.1214	1194.9437	1245.8073	1290.5289	1316.5295	1378.4497	1418.954	1422.3056	1444.2603	1458.1007	1484.9877	1497.6398	1512.0829	1626.2731	1831.4498	2889.7044	3027.8241	3042.9424	3081.892	3097.6731	3103.2976	3237.2	3660.4154
CC1=C(CC=O)NN=C1	Cc1c(CC=O)[nH]nc1	
InChI=1S/C6H8N2O/c1-5-4-7-8-6(5)2-3-9/h3-4H,2H2,1H3,(H,7,8)	InChI=1S/C6H8N2O/c1-5-4-7-8-6(5)2-3-9/h3-4H,2H2,1H3,(H,7,8)
