19
gdb 113573	3.99402	0.99467	0.91109	2.4757	79.51	-0.214	0.0116	0.2256	1321.3741	0.158764	-423.004886	-422.996211	-422.995267	-423.038677	32.561	
O	 0.2095366561	 1.2631573097	-0.2100248154	-0.421613
C	 0.0462295944	-0.0701395827	 0.2573206171	-0.076957
C	-1.3906201066	-0.5321012899	 0.191003185	-0.11302
C	-1.9461991214	-1.0724101417	-1.1205019982	-0.372532
C	-1.7179437853	-2.0010560122	 0.0440130047	 0.428663
O	-0.6476130967	-2.9223631055	-0.054047857	-0.311346
C	-0.9884929277	-4.1244638226	 0.640291713	-0.12978
C	-2.3867680334	-3.899672566	 1.1471424398	-0.112878
C	-2.7920596871	-2.6825067042	 0.7980096291	-0.148378
H	-0.1325944899	 1.2918957835	-1.1097654542	 0.279955
H	 0.6865377817	-0.7753260601	-0.2900448575	 0.103303
H	 0.3915545227	-0.0591294355	 1.2965040211	 0.110898
H	-2.0772438423	 0.0534031649	 0.7976027185	 0.090397
H	-2.96228282	-0.8270230416	-1.4110016874	 0.113835
H	-1.2495081032	-1.1839745083	-1.9463424477	 0.121203
H	-0.9176056931	-4.9789452166	-0.0500449142	 0.110019
H	-0.2677855123	-4.3026828862	 1.4539284919	 0.108945
H	-2.9423485625	-4.6391144959	 1.7085272997	 0.108818
H	-3.7451613035	-2.218121349	 1.0139898318	 0.110469
69.3295	93.1907	141.5513	168.5863	274.1789	332.9187	354.925	392.2675	440.4379	538.2247	630.514	731.3161	782.9966	832.3892	858.3762	877.4012	888.0987	918.5822	949.4774	957.5383	1012.7574	1039.0432	1045.4605	1055.1025	1066.0442	1098.3683	1121.4051	1152.8339	1195.8699	1218.1381	1244.5014	1280.5052	1337.2562	1379.9193	1384.3052	1412.6751	1434.7561	1479.1012	1509.058	1520.2135	1680.9091	2976.0442	2995.2359	3014.5188	3073.641	3120.6571	3137.6586	3211.426	3213.8126	3237.194	3808.7023
OCC1CC11OCC=C1	OC[C@H]1C[C@]21OCC=C2	
InChI=1S/C7H10O2/c8-5-6-4-7(6)2-1-3-9-7/h1-2,6,8H,3-5H2	InChI=1S/C7H10O2/c8-5-6-4-7(6)2-1-3-9-7/h1-2,6,8H,3-5H2/t6-,7-/m1/s1
