21
gdb 123240	12.20238	0.37647	0.36941	3.0413	77.81	-0.2565	-0.0272	0.2293	2796.4139	0.178438	-461.352489	-461.34109	-461.340145	-461.391371	37.523	
O	-0.0496818292	 1.4319933552	-0.0886335367	-0.421118
C	 0.0250534319	 0.015244974	-0.0611959297	-0.074023
C	-1.3973528852	-0.5260048508	-0.0011219068	-0.168939
C	-1.4467210853	-2.0555463964	 0.032842788	-0.205412
C	-2.8712451854	-2.5876944801	 0.0926888275	-0.050527
O	-2.8257108124	-4.0019993468	 0.1211036617	-0.249454
C	-4.0903743711	-4.6044419321	 0.1765083846	-0.144279
C	-3.8989860815	-6.1109752125	 0.201065528	 0.139278
O	-4.8058198104	-6.8984299359	 0.2488115528	-0.237928
H	 0.8456178901	 1.7805554031	-0.1260540576	 0.286471
H	 0.5333682284	-0.3760149507	-0.95787891	 0.085893
H	 0.5939481451	-0.3385089686	 0.8144277585	 0.085896
H	-1.8880865035	-0.108220403	 0.8865633573	 0.108021
H	-1.9481626929	-0.1452939099	-0.870041018	 0.108024
H	-0.9567494533	-2.4731826806	-0.8551605946	 0.108232
H	-0.8967910915	-2.4360951922	 0.9022120313	 0.108238
H	-3.3887657588	-2.207115854	 0.9896520672	 0.091916
H	-3.4491888419	-2.244682978	-0.782259615	 0.09191
H	-4.655903658	-4.3053063097	 1.0760568035	 0.120914
H	-4.7159659237	-4.3418612668	-0.6942402087	 0.120902
H	-2.8316390015	-6.4229280041	 0.1704614167	 0.095984
35.0088	58.5261	67.3518	79.8161	101.8513	137.4516	159.3212	175.3252	262.5439	262.616	329.1933	467.442	474.5375	585.7373	739.9512	756.1908	816.7755	946.8593	989.2364	1026.3686	1038.8913	1064.7944	1076.8384	1114.4607	1115.183	1175.4387	1183.5689	1220.4226	1234.8759	1238.6539	1288.6436	1297.061	1313.837	1321.9486	1344.7186	1378.348	1402.9424	1438.9703	1466.6011	1482.4871	1491.9179	1502.7073	1527.612	1532.096	1845.3849	2899.0093	2951.0957	2959.5047	2960.9242	2980.3283	2984.5262	2985.7217	3025.9729	3034.8478	3058.5754	3083.1426	3831.1204
OCCCCOCC=O	OCCCCOCC=O	
InChI=1S/C6H12O3/c7-3-1-2-5-9-6-4-8/h4,7H,1-3,5-6H2	InChI=1S/C6H12O3/c7-3-1-2-5-9-6-4-8/h4,7H,1-3,5-6H2
