19
gdb 81919	2.41556	1.66793	1.25196	2.0476	75.15	-0.2327	-0.0207	0.212	1060.1562	0.159751	-423.044035	-423.035628	-423.034684	-423.076753	32.614	
C	 0.1448089664	 1.6371187956	-0.0180377477	-0.394008
C	 0.0831295689	 0.1088265673	-0.023230058	-0.005763
C	 0.7774381499	-0.5534847873	-1.2205493829	-0.049678
C	 2.2665215597	-0.6226218312	-1.2021360762	-0.286938
C	 1.4477875687	-1.8379398184	-0.753898222	-0.162187
C	 1.2266516604	-1.936109068	 0.7135786138	 0.400412
O	 1.4154348421	-2.8953031238	 1.4237196461	-0.345267
C	 0.6836179059	-0.5760612614	 1.2231463412	-0.026973
O	 1.7666020713	 0.1910412323	 1.7504169912	-0.424623
H	 1.176754189	 1.9900170656	 0.0322373278	 0.135673
H	-0.3134616104	 2.0387171948	-0.9276609714	 0.109129
H	-0.3919375236	 2.0506103858	 0.8413806974	 0.117468
H	-0.9704240406	-0.1975485206	-0.0593875394	 0.084164
H	 0.268314512	-0.5294824123	-2.1778954169	 0.092763
H	 2.7803308887	-0.7439897425	-2.1493118345	 0.121403
H	 2.8136939537	-0.0692845697	-0.4490596626	 0.145635
H	 1.4971171294	-2.7483472236	-1.3374139641	 0.105412
H	-0.0725935995	-0.7497937956	 1.9994681293	 0.087103
H	 2.1651256981	-0.331226347	 2.4561878689	 0.296276
85.0219	174.8722	213.5849	241.43	255.4111	277.4906	375.5529	403.7938	462.1313	502.9951	564.5192	683.8629	729.1263	772.9009	809.0259	857.4625	880.5914	935.7595	954.3366	985.6665	993.5859	1057.8055	1072.3451	1092.4226	1104.7079	1131.6213	1161.7509	1198.1257	1213.9177	1220.9061	1305.2186	1323.4266	1338.1971	1358.4565	1378.3019	1407.0046	1422.4369	1485.9023	1494.3313	1499.1812	1825.8531	3012.3462	3029.0978	3042.2442	3104.2712	3133.7971	3143.4196	3169.3125	3199.8468	3237.3779	3799.7782
CC1C2CC2C(=O)C1O	C[C@H]1[C@H]2C[C@H]2C(=O)[C@H]1O	
InChI=1S/C7H10O2/c1-3-4-2-5(4)7(9)6(3)8/h3-6,8H,2H2,1H3	InChI=1S/C7H10O2/c1-3-4-2-5(4)7(9)6(3)8/h3-6,8H,2H2,1H3/t3-,4+,5+,6-/m0/s1
