18
gdb 103250	3.0459	1.21629	1.13872	3.646	72.36	-0.2512	-0.015	0.2362	1144.3316	0.146507	-439.065482	-439.056815	-439.055871	-439.098707	32.762	
C	-0.0887378727	 1.5994190782	-0.1800833963	-0.47345
C	-0.0807343323	 0.0855022792	-0.1939295696	 0.279139
C	-1.3306180742	-0.5359033507	 0.4187855022	-0.107186
O	-1.4154138911	-0.2518490168	 1.7989916256	-0.416232
C	 0.656447686	-0.746114278	-1.15888784	-0.079759
C	 1.9637846203	-0.1211853761	-1.6419256577	-0.39569
C	 2.3109085987	-0.0116977224	-0.1476684301	 0.400589
O	 3.2403994247	 0.3755261487	 0.4874623513	-0.293968
N	 1.1162369714	-0.6962268128	 0.3140520077	-0.230372
H	 0.8632916892	 2.0462641705	-0.4709035234	 0.134236
H	-0.8614500672	 1.9686711208	-0.8628787539	 0.127989
H	-0.3365266845	 1.9443977239	 0.8271220159	 0.153787
H	-2.2253106199	-0.1070953549	-0.0457090146	 0.113
H	-1.3309939574	-1.6188495431	 0.2273166491	 0.095034
H	-0.5987742363	-0.5894186872	 2.1886403331	 0.296835
H	 0.2501925361	-1.6721028427	-1.5505430783	 0.111147
H	 2.6218734324	-0.8339587103	-2.1455573614	 0.1472
H	 1.9202282968	 0.8012478139	-2.2244840695	 0.137701
94.2403	128.0627	161.6479	184.9891	270.3586	309.9578	351.666	423.9371	468.715	489.8532	542.3828	591.9781	624.8981	721.3528	805.8571	842.6095	886.1125	941.6598	964.5815	1006.5632	1028.3101	1039.3124	1065.7498	1080.0051	1108.0184	1149.6932	1213.3842	1223.4033	1234.1714	1306.3768	1380.7665	1415.5652	1426.1958	1432.9416	1456.6143	1484.9156	1497.3651	1506.0228	1914.3956	2997.3753	3046.8445	3073.8673	3075.4169	3115.2537	3128.584	3140.1097	3178.6127	3778.6302
CC1(CO)C2CC(=O)N12	C[C@@]1(CO)[C@H]2CC(=O)N12	
InChI=1S/C6H9NO2/c1-6(3-8)4-2-5(9)7(4)6/h4,8H,2-3H2,1H3	InChI=1S/C6H9NO2/c1-6(3-8)4-2-5(9)7(4)6/h4,8H,2-3H2,1H3/t4-,6-,7?/m1/s1
