20
gdb 18259	4.1523	1.48699	1.24289	1.7613	73.93	-0.2541	0.0886	0.3427	1041.8066	0.178332	-349.009103	-349.001373	-349.000429	-349.041131	29.765	
C	 0.0814360259	 1.5249925908	-0.0300818428	-0.384863
C	 0.0002800476	-0.0035206588	 0.0276224046	-0.183438
C	-1.4323416101	-0.5507007536	 0.0128763975	 0.016136
C	-2.2353110319	-0.2319155989	-1.2789450958	-0.225837
C	-3.2521969062	-1.3866060889	-1.4504726974	-0.247974
C	-2.5795080098	-2.5626572217	-0.7711153171	 0.050573
O	-1.2010154804	-2.7273149895	-1.1392984088	-0.266158
C	-1.509567523	-2.0662898809	 0.0996155192	 0.035539
H	 1.1205232189	 1.8662455807	 0.0093148767	 0.112385
H	-0.3600949397	 1.9167071809	-0.9520689624	 0.118929
H	-0.4504134719	 1.9822767156	 0.8122608966	 0.110837
H	 0.5458487563	-0.4398771475	-0.8182293745	 0.110447
H	 0.5066134384	-0.3576692435	 0.9351945426	 0.090055
H	-1.9718920627	-0.1517465149	 0.8856547433	 0.067192
H	-2.721751046	 0.7451561945	-1.2379926509	 0.097918
H	-1.549894245	-0.2208219089	-2.1308611329	 0.114958
H	-4.1945444503	-1.1729283272	-0.9304327336	 0.100773
H	-3.4950082562	-1.5811441615	-2.4998610183	 0.107415
H	-3.1203100391	-3.4854981008	-0.5751902901	 0.089031
H	-1.1840758448	-2.5895084759	 0.9964624941	 0.086081
101.5045	127.8571	190.611	239.8641	284.7079	373.3276	403.9618	489.7002	650.3304	669.6066	774.9543	821.1209	832.9455	856.2441	877.5944	929.4049	944.7364	972.2788	1005.7514	1028.1549	1038.3992	1070.531	1094.1652	1141.0688	1152.084	1200.4282	1224.0955	1259.7539	1282.3731	1304.7095	1318.7486	1328.7691	1338.2416	1365.9473	1390.5085	1412.8443	1439.4769	1480.851	1488.2173	1495.7449	1502.3052	1508.0548	2989.9858	3018.9854	3030.7161	3033.0449	3056.3426	3063.7172	3081.8334	3097.2165	3104.8464	3112.0624	3131.0418	3147.0006
CCC1CCC2OC12	CC[C@H]1CC[C@H]2O[C@@H]12	
InChI=1S/C7H12O/c1-2-5-3-4-6-7(5)8-6/h5-7H,2-4H2,1H3	InChI=1S/C7H12O/c1-2-5-3-4-6-7(5)8-6/h5-7H,2-4H2,1H3/t5-,6+,7-/m0/s1
