19
gdb 73160	2.63479	1.59174	1.34905	2.4167	75.08	-0.2412	0.0614	0.3025	1030.4338	0.158964	-422.973136	-422.965148	-422.964204	-423.005395	31.785	
O	-0.2721070806	 1.2870650414	-0.341282581	-0.464358
C	-0.0074613694	-0.046301071	-0.0558303887	 0.278576
C	-1.2608857086	-0.8955382803	 0.1865230633	-0.110366
O	-0.6760226976	-1.5082292262	 1.3605409617	-0.291547
C	 0.5021451394	-0.6815526069	 1.2899452435	 0.038132
C	 1.6638139621	-1.3743420129	 0.5352364154	-0.327018
C	 1.1401813827	-0.7675083313	-0.7820577189	 0.2968
C	 1.122183662	-1.3636740969	-2.1569254793	-0.321564
C	 1.972988783	-0.1481327524	-1.8708919428	-0.347073
H	 0.5683266142	 1.733465692	-0.4933235784	 0.282811
H	-2.1373575281	-0.2878765144	 0.4427854133	 0.108099
H	-1.526992796	-1.6287585464	-0.5834282048	 0.102181
H	 0.7062180208	-0.1480117639	 2.2213120673	 0.077742
H	 2.6563060802	-1.0119662975	 0.8218229616	 0.099447
H	 1.6398623527	-2.4639517031	 0.6100908199	 0.113496
H	 1.6216927053	-2.3157605147	-2.3036682686	 0.117809
H	 0.2329601912	-1.2257105305	-2.764302681	 0.11841
H	 1.6457060211	 0.7977019934	-2.2938795796	 0.111629
H	 3.0505998258	-0.2675758185	-1.8196964928	 0.116796
82.9102	202.9366	230.564	238.142	336.8403	345.1443	381.1204	441.7936	466.8891	547.9869	655.6266	737.8814	786.3172	820.0857	872.0418	885.8786	919.8879	925.0407	974.7616	987.6092	1009.9715	1049.9431	1058.5586	1071.1527	1082.5547	1098.1491	1135.084	1161.9405	1170.7601	1191.7825	1212.5275	1255.9905	1282.3268	1317.5105	1333.5964	1380.5541	1398.5012	1460.1512	1468.7804	1498.386	1512.5891	3018.9332	3047.3118	3071.7025	3083.5181	3111.7398	3115.7202	3124.9309	3196.7818	3213.4139	3802.8354
OC12COC1CC21CC1	O[C@]12CO[C@H]1CC12CC1	
InChI=1S/C7H10O2/c8-7-4-9-5(7)3-6(7)1-2-6/h5,8H,1-4H2	InChI=1S/C7H10O2/c8-7-4-9-5(7)3-6(7)1-2-6/h5,8H,1-4H2/t5-,7+/m0/s1
