23
gdb 117937	2.606	0.82655	0.68584	1.7277	83.45	-0.2629	0.0191	0.282	1756.3775	0.203092	-425.474896	-425.463412	-425.462468	-425.513087	39.549	
C	-0.1713921309	 1.3216908169	-0.6540478188	-0.382306
C	-0.0517143556	-0.0959291621	-0.0866563672	-0.175359
C	-1.4117165337	-0.7922540397	 0.0402903367	-0.166582
C	-1.3354146902	-2.2593944665	 0.5315318969	-0.106608
C	-0.8019006681	-2.397407189	 1.9604232424	-0.392006
C	-2.7214026351	-2.8762682519	 0.4271322718	 0.439947
O	-3.484717024	-3.0580669268	 1.3427522991	-0.364097
O	-3.0186549684	-3.182520294	-0.8557894793	-0.236977
C	-4.326448993	-3.7257503607	-1.0688079945	-0.23983
H	 0.8092303487	 1.799913482	-0.7398187332	 0.112782
H	-0.6269967671	 1.3128588961	-1.6503891209	 0.115162
H	-0.7948179349	 1.9537230779	-0.0119212583	 0.116294
H	 0.6016776309	-0.6967246495	-0.7332871784	 0.09612
H	 0.4409092209	-0.0522753328	 0.8913577335	 0.102695
H	-2.0545256272	-0.2230413644	 0.7254593185	 0.103757
H	-1.9089363238	-0.7803863128	-0.9366328847	 0.106893
H	-0.6893742079	-2.8075986157	-0.1651117643	 0.094382
H	-0.787278622	-3.4449917068	 2.2733670335	 0.121325
H	 0.2160023217	-2.0077249218	 2.0371771889	 0.113387
H	-1.4395539038	-1.8548203859	 2.6635921572	 0.132428
H	-4.4000660469	-3.9141943319	-2.1401132302	 0.130563
H	-4.4546070383	-4.6549165193	-0.5075658738	 0.139559
H	-5.0967896112	-3.0181772713	-0.7511958851	 0.13847
29.4121	65.0932	90.7815	103.2312	123.2723	187.0633	196.6196	229.9924	248.1694	294.3356	315.1163	343.7688	393.4231	491.3088	682.6635	745.484	756.9154	843.1607	871.558	886.6903	932.5021	1000.8799	1017.6706	1047.2026	1067.2023	1119.8876	1134.6501	1179.0401	1180.9983	1206.5568	1218.4184	1262.5494	1302.208	1330.2253	1345.3173	1376.2258	1392.6785	1411.3713	1415.7349	1471.9404	1481.2891	1482.8079	1493.0719	1494.205	1498.0119	1498.9636	1500.7858	1511.2295	1816.6788	3013.3417	3022.7377	3030.4248	3037.2141	3048.7935	3050.1234	3053.6122	3073.4809	3098.8869	3103.1156	3119.6342	3123.509	3128.1259	3155.8959
CCCC(C)C(=O)OC	CCC[C@@H](C)C(=O)OC	
InChI=1S/C7H14O2/c1-4-5-6(2)7(8)9-3/h6H,4-5H2,1-3H3	InChI=1S/C7H14O2/c1-4-5-6(2)7(8)9-3/h6H,4-5H2,1-3H3/t6-/m1/s1
