19
gdb 112031	3.22171	1.30194	1.05804	0.5832	76.35	-0.2414	0.0185	0.2599	1159.5221	0.160583	-423.008016	-422.999924	-422.99898	-423.040934	30.717	
O	 0.0183101056	 1.3802705058	-0.1179304296	-0.427091
C	 0.0451042393	-0.0415609652	-0.0671781445	-0.082538
C	-1.4062842663	-0.5173325364	 0.0065147686	-0.0528
C	-2.2230477387	-0.1931890418	-1.2277159361	-0.059553
C	-2.8791313492	-1.2485792492	-1.7110486349	-0.097102
C	-2.6131881197	-2.5003286194	-0.920491433	-0.121713
C	-1.4810289516	-3.4048881268	-1.4651310363	-0.074022
O	-0.5162321042	-2.786578711	-0.5873571514	-0.293378
C	-1.5482323798	-2.0484643132	 0.1145877521	 0.09188
H	 0.91553202	 1.6895004335	-0.2715441672	 0.286873
H	 0.5257714687	-0.4713362105	-0.9546564475	 0.104312
H	 0.5974785689	-0.3980252549	 0.8165509094	 0.087849
H	-1.8510618993	-0.0359502086	 0.8896093811	 0.085012
H	-2.2441441725	 0.8077465389	-1.6420581784	 0.10828
H	-3.5222612408	-1.2386210135	-2.5847383178	 0.093297
H	-3.5107546645	-3.0159409339	-0.5707085459	 0.080575
H	-1.6016812274	-4.473308469	-1.2414090048	 0.095523
H	-1.2180558417	-3.2824886644	-2.5220911727	 0.102953
H	-1.6470921768	-2.4064840804	 1.1452158489	 0.071646
90.6631	110.3888	177.001	219.4202	260.8075	301.9192	383.5557	460.6948	551.9232	690.836	759.7151	786.5422	822.7765	853.4288	880.2024	894.0313	927.2563	982.0106	1003.9756	1032.1088	1060.5334	1067.1414	1071.6287	1088.4319	1110.395	1139.2712	1165.3915	1222.1501	1226.3672	1242.7816	1254.1896	1302.8782	1311.6559	1325.1479	1343.5442	1360.4724	1390.7278	1449.4525	1521.3608	1522.6304	1675.4562	2977.6486	2999.2452	3006.5113	3042.2381	3047.7626	3060.7779	3081.1007	3182.8075	3215.9212	3833.0897
OCC1C=CC2COC12	OC[C@H]1C=C[C@H]2CO[C@@H]12	
InChI=1S/C7H10O2/c8-3-5-1-2-6-4-9-7(5)6/h1-2,5-8H,3-4H2	InChI=1S/C7H10O2/c8-3-5-1-2-6-4-9-7(5)6/h1-2,5-8H,3-4H2/t5-,6+,7+/m1/s1
