21
gdb 119285	2.45109	1.13389	0.91787	4.3649	83.57	-0.2369	0.0295	0.2664	1386.9046	0.182506	-383.267857	-383.258158	-383.257214	-383.302743	35.676	
C	 0.0147828044	 1.5798082809	-0.0217683783	-0.391902
C	-0.1003145625	 0.0591792161	-0.0501975129	-0.130641
N	 0.7515821658	-0.4998542189	-1.1032783725	-0.350271
C	 0.7111500231	-1.9391802066	-1.2460684058	 0.173575
C	-0.6007678916	-2.6925191106	-1.7130347484	-0.254117
C	 0.2738526359	-3.5547094899	-2.6577758689	-0.218213
C	 1.412289156	-2.511551383	-2.5209358095	-0.263574
C	 1.2474793805	-2.5693856316	-0.0308783488	 0.296637
N	 1.652038922	-3.0928887927	 0.917143797	-0.353852
H	 1.05361834	 1.8844592391	 0.1319079579	 0.133413
H	-0.3326209536	 2.0219290101	-0.9631431693	 0.110576
H	-0.5957595369	 1.9970835479	 0.784003264	 0.121183
H	 0.236661854	-0.3565047536	 0.9060418925	 0.133368
H	-1.1592908231	-0.2328692466	-0.1648789611	 0.085569
H	 0.5092273375	-0.0837864773	-1.9973373255	 0.215355
H	-1.1960475246	-3.2004152626	-0.9529150914	 0.119989
H	-1.2388416679	-1.9938674115	-2.2627345899	 0.103383
H	 0.5426540038	-4.5106341126	-2.2026299908	 0.127187
H	-0.1100585128	-3.7420865529	-3.661637521	 0.107913
H	 1.3818823379	-1.7613731591	-3.3168998107	 0.106713
H	 2.4379451924	-2.8641165044	-2.4075120665	 0.127708
74.8181	93.6128	120.0454	138.753	196.5315	220.3817	258.9275	341.513	393.9309	401.2553	525.0281	578.2819	673.7374	691.1874	743.5807	793.7932	819.8322	873.7499	907.6967	920.6982	940.3632	988.1079	1014.0474	1051.7219	1076.0718	1112.9542	1148.0271	1186.6906	1210.016	1213.7446	1250.1142	1275.3938	1278.8537	1292.4069	1323.0533	1387.3299	1415.019	1469.4419	1477.5742	1487.6664	1498.4536	1501.3484	1505.9285	1523.8677	2351.905	2944.4403	3033.1691	3057.9013	3061.4767	3063.4843	3076.6198	3101.7489	3119.9816	3124.1929	3129.6339	3138.4428	3512.3141
CCNC1(CCC1)C#N	CCNC1(CCC1)C#N	
InChI=1S/C7H12N2/c1-2-9-7(6-8)4-3-5-7/h9H,2-5H2,1H3	InChI=1S/C7H12N2/c1-2-9-7(6-8)4-3-5-7/h9H,2-5H2,1H3
