15
gdb 128309	6.87637	0.8994	0.80146	1.398	80.2	-0.2064	-0.0277	0.1787	1375.4343	0.113587	-412.980098	-412.971579	-412.970635	-413.013324	30.903	
C	-0.0684182242	 1.4258659364	 0.1372623608	-0.320749
N	-0.0484146978	 0.0050547426	-0.1580805616	-0.392382
C	-1.2028595441	-0.7239658942	-0.0645592046	 0.419375
N	-2.4153349757	-0.1680009035	-0.0317488069	-0.283204
N	-3.2162387198	-1.2645953363	 0.0024692278	-0.26433
C	-2.4778226668	-2.3969264991	 0.00396265	 0.224391
N	-1.186331279	-2.087680086	-0.0374142395	-0.387872
C	-3.0526733492	-3.6877074926	 0.0435742963	 0.266954
C	-3.5714174524	-4.7724766891	 0.0784138794	-0.388537
H	 0.9269420138	 1.8373874853	-0.043519896	 0.122423
H	-0.7761671696	 1.9271920294	-0.5277986512	 0.149951
H	-0.3655268247	 1.6503256077	 1.1721108122	 0.1184
H	 0.7659189523	-0.5097851173	 0.1378319906	 0.251143
H	-4.2168417157	-1.1640314675	 0.0338575585	 0.281496
H	-4.0169005071	-5.7364055558	 0.1074043043	 0.202942
83.5283	128.0663	148.9604	174.1865	223.7825	338.309	414.314	432.3454	492.9527	517.8326	551.5757	604.3854	651.8735	684.2401	728.1184	768.1385	778.1711	998.5676	1065.6736	1106.3793	1157.9592	1169.5065	1195.5161	1266.7403	1350.9839	1421.8522	1456.5485	1481.6024	1492.972	1517.3941	1568.6643	1617.6416	2242.8699	2998.8213	3088.9447	3131.8378	3499.9751	3633.828	3673.8968
CNC1=NNC(=N1)C#C	CNc1n[nH]c(n1)C#C	
InChI=1S/C5H6N4/c1-3-4-7-5(6-2)9-8-4/h1H,2H3,(H2,6,7,8,9)	InChI=1S/C5H6N4/c1-3-4-7-5(6-2)9-8-4/h1H,2H3,(H2,6,7,8,9)
