12
gdb 27396	2.09114	2.02381	1.02867	6.2198	59.41	-0.2546	-0.0189	0.2356	1036.8313	0.07879	-506.019349	-506.011912	-506.010968	-506.051536	27.336	
N	 0.1055572749	 1.2967821186	-0.0820995307	-0.564962
C	-0.0360842826	-0.0425081702	-0.0309970913	 0.50745
N	-1.158064811	-0.647880135	-0.0045795145	-0.375729
C	-1.1663903795	-2.0561955126	 0.0014673936	 0.387866
O	-2.1911565131	-2.6838746258	 0.0161406206	-0.332019
N	 0.0934355223	-2.7207446882	-0.0056529876	-0.423263
C	 1.1396106504	-2.0054491222	-0.023268951	 0.498621
O	 2.3754272694	-2.4888380692	-0.0283630479	-0.378289
O	 1.2032689369	-0.6518616664	-0.0397542705	-0.217439
H	 1.0069475709	 1.7081402882	 0.0881410243	 0.280737
H	-0.7240427821	 1.8490142298	 0.0526672034	 0.289848
H	 2.2851160836	-3.4531539671	-0.0168921085	 0.32718
95.4957	179.152	194.5149	255.5199	337.7306	388.8939	504.4813	550.2465	551.9052	569.0883	621.3803	672.2196	725.9139	754.6606	814.2423	913.2822	953.2984	996.3644	1144.2061	1237.5649	1244.7747	1370.9703	1466.9057	1599.3831	1677.0542	1773.7979	1850.6262	3619.4102	3751.2334	3770.3144
NC1=NC(=O)N=C(O)O1	Nc1nc(=O)nc(O)o1	
InChI=1S/C3H3N3O3/c4-1-5-2(7)6-3(8)9-1/h(H3,4,5,6,7,8)	InChI=1S/C3H3N3O3/c4-1-5-2(7)6-3(8)9-1/h(H3,4,5,6,7,8)
