24
gdb 122718	5.64632	0.4596	0.43182	2.8017	92.09	-0.2398	0.0303	0.2702	2639.2727	0.214721	-405.553755	-405.542051	-405.541107	-405.592857	40.021	
C	-0.0727369456	 1.3761669339	-0.350530343	-0.385281
C	-0.2893686176	 0.0459132061	 0.3748638928	-0.181653
C	-1.3703632674	-0.7984753582	-0.2821605408	-0.056857
O	-1.4987255979	-2.0109102862	 0.4607179419	-0.209425
C	-2.4257762552	-2.8844478606	 0.0087259527	 0.124806
N	-2.6022511952	-3.9762587831	 0.6051339235	-0.23626
C	-3.5924063578	-4.9301751914	 0.1379403581	-0.110041
C	-4.4346251637	-4.5991653717	-1.1018497553	-0.180942
C	-5.4176546444	-5.7260528603	-1.4330925728	-0.388938
H	 0.7077401104	 1.9647626024	 0.139368551	 0.12221
H	 0.2334613036	 1.2200729452	-1.390845544	 0.118
H	-0.9865700262	 1.9804710583	-0.3607562608	 0.117997
H	 0.6400007646	-0.5339725257	 0.3958457368	 0.115034
H	-0.5716959602	 0.2212179108	 1.418892297	 0.115025
H	-2.3289401447	-0.2590222086	-0.2909918546	 0.101368
H	-1.1036870854	-1.0226290098	-1.3255185871	 0.101374
H	-2.9630921875	-2.5365739021	-0.8830308754	 0.073569
H	-3.066387317	-5.8802191741	-0.0339933146	 0.108148
H	-4.2676382482	-5.1309758558	 0.9820860932	 0.108148
H	-4.9900673534	-3.6667812497	-0.937035516	 0.097733
H	-3.7770415611	-4.4233550699	-1.9630668557	 0.097733
H	-6.0160434142	-5.4864554683	-2.3172078545	 0.112555
H	-4.8905348735	-6.6655139461	-1.6326613889	 0.11785
H	-6.1087734923	-5.905688825	-0.6022160734	 0.11785
20.1512	55.8143	74.9356	105.2285	137.5102	152.4659	177.6055	231.5892	235.8933	282.3477	292.9873	314.4428	430.6991	482.5969	660.0061	749.3259	763.5123	882.5278	891.2645	898.3175	914.0593	985.7806	1018.5841	1037.8533	1060.7806	1083.6754	1118.591	1152.7511	1163.2951	1188.0665	1244.3741	1268.6827	1283.607	1320.3222	1322.0788	1327.9845	1335.1024	1396.015	1406.5633	1413.4383	1415.6325	1441.2723	1481.8168	1492.0584	1493.9823	1500.5082	1500.9865	1506.6977	1510.5855	1523.006	1780.0545	2983.2507	2999.5809	3014.8725	3018.0586	3021.9878	3030.8779	3032.3902	3034.6876	3044.1885	3052.6909	3076.7199	3097.558	3102.3078	3103.5692	3111.4431
CCCOC=NCCC	CCCOC=NCCC	
InChI=1S/C7H15NO/c1-3-5-8-7-9-6-4-2/h7H,3-6H2,1-2H3	InChI=1S/C7H15NO/c1-3-5-8-7-9-6-4-2/h7H,3-6H2,1-2H3
