23
gdb 94619	3.20403	0.9212	0.79414	1.3309	85.68	-0.2522	0.0733	0.3255	1525.0839	0.205793	-388.262822	-388.25329	-388.252346	-388.297847	36.11	
O	 0.3312613703	 0.9782711677	-0.7114695857	-0.430159
C	 0.0540553049	-0.1410430928	 0.0994748522	 0.129229
C	-0.2166451312	 0.0634754985	 1.6136910313	-0.25891
C	-1.4015225356	-0.9334728055	 1.482039308	-0.226815
C	-1.3781042207	-0.7213207388	-0.0636599498	-0.016384
C	-2.4092389752	 0.274264202	-0.6057196318	-0.204136
C	-3.8014731367	-0.3144379865	-0.7177760355	 0.032638
C	-4.8050728262	-0.1980454314	 0.4047456277	-0.252946
C	-5.0031378623	 0.5821924791	-0.8717904173	-0.280858
H	 1.2204267124	 1.2855928413	-0.5094186213	 0.282423
H	 0.8045808535	-0.9307422286	-0.0545377634	 0.061881
H	 0.5858447051	-0.1775084521	 2.3158489799	 0.088224
H	-0.5601403939	 1.0841021414	 1.804433564	 0.105732
H	-1.1208747372	-1.9511828584	 1.7658690494	 0.09761
H	-2.3275456274	-0.6758902205	 1.9984335539	 0.105246
H	-1.4265240035	-1.6384162106	-0.6603444022	 0.061472
H	-2.4407528642	 1.1719447902	 0.0249980148	 0.089191
H	-2.0739112693	 0.6156105699	-1.5922596567	 0.110823
H	-3.8421851201	-1.2444028443	-1.2814628384	 0.076467
H	-5.4625383631	-1.0369731908	 0.6057170308	 0.106874
H	-4.5148879987	 0.3570043598	 1.2908485603	 0.106798
H	-4.8404318064	 1.6548807472	-0.8388620842	 0.108653
H	-5.7954114947	 0.2765064531	-1.5464216757	 0.106946
48.5171	90.3354	124.4886	135.9295	232.2357	239.8463	303.6603	359.7468	398.1225	442.1602	537.3085	652.34	760.2676	775.3405	800.9877	831.2946	849.9904	881.1456	911.069	918.5765	952.5592	960.1369	985.1394	1036.8466	1057.3031	1077.9604	1092.0237	1101.0702	1136.1949	1142.6299	1174.8361	1193.9301	1201.2631	1227.7164	1229.6473	1244.5807	1259.4392	1266.481	1287.2099	1326.5238	1336.8623	1379.7446	1418.9455	1421.6323	1468.4119	1479.8277	1481.3393	1499.4125	1508.094	2981.5245	3024.3308	3040.8853	3054.754	3063.9197	3068.7802	3105.9382	3123.1068	3125.018	3127.5289	3132.9189	3203.7883	3219.2142	3819.7072
OC1CCC1CC1CC1	O[C@H]1CC[C@H]1CC1CC1	
InChI=1S/C8H14O/c9-8-4-3-7(8)5-6-1-2-6/h6-9H,1-5H2	InChI=1S/C8H14O/c9-8-4-3-7(8)5-6-1-2-6/h6-9H,1-5H2/t7-,8-/m0/s1
