19
gdb 90978	2.6364	1.86687	1.33736	2.9503	74.39	-0.2287	0.0685	0.2973	987.9397	0.159393	-422.970057	-422.962312	-422.961368	-423.001867	31.205	
C	-0.0897127914	 1.5020527052	 0.0311239296	-0.51446
C	-0.0606430383	-0.0050624715	 0.024063842	 0.369216
C	 1.1224418551	-0.779471588	-0.6480341351	-0.005739
O	 2.0332920125	-0.4030264539	 0.4410262173	-0.322964
C	 0.7716219218	-0.7869538307	 1.0976356063	 0.019847
C	 0.6175144192	-2.0113823409	 0.1540203174	-0.036973
C	-0.8534901124	-2.2465609076	-0.1544296023	-0.291082
C	-1.3553700812	-0.7715276007	-0.2217869592	 0.040153
O	-2.2709853722	-0.4273107925	 0.8099222961	-0.440346
H	 0.9038812589	 1.8941463968	 0.2624970015	 0.133619
H	-0.4000542553	 1.8947520767	-0.9441433513	 0.109614
H	-0.8015188082	 1.8667876932	 0.7770665892	 0.133677
H	 1.4995136563	-0.7172782598	-1.6705857368	 0.084373
H	 0.7246850639	-0.7295750465	 2.1851617696	 0.092141
H	 1.3014763877	-2.8483548737	 0.2871335772	 0.079255
H	-1.002388726	-2.7906102593	-1.0929037337	 0.098833
H	-1.3710200838	-2.7900304306	 0.6422113889	 0.102881
H	-1.7821347978	-0.5289652695	-1.2066953842	 0.063486
H	-3.0984847989	-0.8894798668	 0.6447679074	 0.28447
108.3157	228.9805	244.6892	277.4676	299.6456	314.0172	394.5905	491.054	524.2205	661.7652	686.5603	712.6336	776.6618	791.1833	856.9694	884.4487	897.371	920.3508	947.1618	991.6986	1006.0329	1035.2212	1080.1394	1098.2553	1120.3776	1151.3232	1171.7113	1185.8068	1217.9579	1228.3629	1237.9232	1262.6733	1282.9298	1296.7354	1341.4356	1367.3638	1402.5166	1435.5185	1484.9429	1493.5656	1497.4105	2983.1838	3034.7811	3045.2349	3091.2178	3098.9457	3099.9002	3118.124	3126.8512	3137.7037	3821.6794
CC12C3OC1C3CC2O	C[C@@]12[C@H]3O[C@@H]1[C@H]3C[C@H]2O	
InChI=1S/C7H10O2/c1-7-4(8)2-3-5(7)9-6(3)7/h3-6,8H,2H2,1H3	InChI=1S/C7H10O2/c1-7-4(8)2-3-5(7)9-6(3)7/h3-6,8H,2H2,1H3/t3-,4-,5-,6+,7+/m1/s1
