17
gdb 11252	4.63019	1.34464	1.19921	4.1706	73.88	-0.2652	-0.0022	0.2629	1034.8645	0.143342	-326.759399	-326.751737	-326.750793	-326.791669	28.45	
C	 0.0521716506	 1.6520349281	 0.0011772803	-0.400635
C	 0.0174761576	 0.1204419534	 0.0516130762	-0.008939
C	 0.6754536132	-0.5549565897	-1.1799627746	-0.23753
C	 1.3976033456	-1.828396184	-0.6383648757	-0.191973
C	 1.5315923125	-1.5261655018	 0.848757711	-0.085683
C	 0.7857041317	-0.485151043	 1.20515041	-0.049158
C	 0.6345815028	-3.0623743159	-0.8659855258	 0.266081
N	 0.0316029482	-4.033170392	-1.0418249502	-0.327845
H	 1.0831836019	 2.0182710002	-0.0545484161	 0.118549
H	-0.4881692979	 2.0275793414	-0.8738060933	 0.120871
H	-0.4126038751	 2.0882094682	 0.8913217237	 0.11877
H	-1.0344523519	-0.1915612464	 0.1304908096	 0.097738
H	-0.0337535538	-0.7843392304	-1.97709947	 0.123538
H	 1.4363732599	 0.1143234554	-1.593455738	 0.11134
H	 2.3725454898	-1.9663156888	-1.1202971448	 0.12603
H	 2.1343872247	-2.1431012086	 1.503630582	 0.114824
H	 0.6995362703	-0.1043393262	 2.2175313056	 0.104021
58.6466	143.6826	202.0539	236.1965	298.1737	342.7334	471.0184	480.8627	581.2277	668.0854	751.1937	792.2223	811.5398	851.0997	920.927	941.0207	976.8734	989.4068	1019.7366	1073.9758	1113.8422	1130.1322	1145.8695	1211.7241	1250.1223	1300.2824	1315.517	1326.6903	1348.8507	1380.3378	1409.5361	1487.8497	1497.2196	1498.9542	1688.259	2350.5795	2994.5679	3029.9068	3038.653	3060.1989	3100.5314	3103.1437	3121.2752	3186.2722	3219.0552
CC1CC(C=C1)C#N	C[C@H]1C[C@@H](C=C1)C#N	
InChI=1S/C7H9N/c1-6-2-3-7(4-6)5-8/h2-3,6-7H,4H2,1H3	InChI=1S/C7H9N/c1-6-2-3-7(4-6)5-8/h2-3,6-7H,4H2,1H3/t6-,7-/m1/s1
