19
gdb 65640	3.01887	1.3587	1.1816	1.4768	75.81	-0.2459	-0.0269	0.219	1102.6188	0.158337	-423.002794	-422.99436	-422.993416	-423.036063	31.688	
C	 0.2430464812	 1.5688215618	 0.3513471387	-0.469559
C	 0.0154219999	 0.0814440121	 0.1011446108	 0.206979
C	 0.8637691662	-0.631296122	-0.9959538493	-0.304924
C	 1.4258571771	-1.6265575614	 0.0510210813	-0.064124
C	 2.6724949954	-1.1299942219	 0.8019861523	-0.085257
O	 1.8614510034	-0.3910657647	 1.7544554008	-0.28696
C	 0.6486146791	-0.8912874236	 1.1744088203	 0.072102
C	-1.4622200618	-0.2197403005	-0.0062862796	 0.110483
O	-1.9823230654	-0.9186128572	-0.8389854154	-0.251631
H	 1.2698506786	 1.7369028177	 0.6835932139	 0.141618
H	 0.0634581037	 2.1493178469	-0.5594198339	 0.123794
H	-0.4252193797	 1.9492053075	 1.1327771671	 0.119408
H	 0.2313435117	-1.0962605197	-1.7540370861	 0.132949
H	 1.6135205389	-0.0024601996	-1.4831714865	 0.098507
H	 1.3421336286	-2.6917255746	-0.156075358	 0.087304
H	 3.2501596275	-1.9113506759	 1.3102594642	 0.10873
H	 3.3565105411	-0.4791906496	 0.2437633343	 0.104666
H	-0.0129147623	-1.3453413531	 1.9181599562	 0.078602
H	-2.0691634536	 0.2498856077	 0.803366079	 0.077313
74.6211	93.1034	205.1891	219.8647	255.1314	303.6671	339.5929	395.0683	422.3685	577.0579	672.2369	770.4259	808.4889	831.5505	851.6324	910.4445	918.3144	949.4966	983.1109	996.3217	1009.5511	1038.2585	1059.7136	1137.3217	1143.6393	1162.506	1203.0249	1217.224	1225.3572	1256.8695	1274.0256	1302.0442	1327.8607	1359.3163	1401.9807	1422.1317	1478.2419	1488.7412	1498.9831	1523.0601	1818.8164	2856.3844	3016.4926	3030.7661	3061.4684	3063.0341	3065.7338	3094.8727	3125.2105	3127.4853	3134.0489
CC1(CC2COC12)C=O	C[C@]1(C[C@H]2CO[C@@H]12)C=O	
InChI=1S/C7H10O2/c1-7(4-8)2-5-3-9-6(5)7/h4-6H,2-3H2,1H3	InChI=1S/C7H10O2/c1-7(4-8)2-5-3-9-6(5)7/h4-6H,2-3H2,1H3/t5-,6+,7-/m0/s1
