21
gdb 59795	2.90152	0.93856	0.79815	1.8413	83.98	-0.239	-0.0485	0.1905	1524.1828	0.179433	-420.447479	-420.436487	-420.435543	-420.483958	39.49	
C	-0.3196237142	 1.8583508872	 0.3061640405	-0.377276
C	-0.1836247512	 0.4170587316	-0.19184652	 0.050813
C	 0.7981961974	-0.3882364429	 0.6771752886	-0.37849
N	-1.4995300675	-0.2111772289	-0.1720385441	-0.279053
C	-1.7457157763	-1.1900526468	-0.9585409478	 0.239771
N	-0.9243418458	-1.8134454495	-1.8601180317	-0.54988
C	-3.1343905305	-1.8082570473	-0.9194514661	 0.371949
C	-4.0872032791	-1.3158244776	 0.1391241105	-0.472806
O	-3.4276469337	-2.6596011431	-1.7338677789	-0.319198
H	 0.6475338978	 2.3713180673	 0.293830046	 0.104137
H	-1.0174215068	 2.419561603	-0.3218366885	 0.113646
H	-0.7070627205	 1.8679276423	 1.3298588149	 0.120379
H	 0.2215212719	 0.4572826739	-1.2202621244	 0.050943
H	 0.9105228707	-1.41129366	 0.3066854731	 0.120062
H	 1.7849512551	 0.0858232391	 0.6864691803	 0.111492
H	 0.4300315854	-0.4388607715	 1.706592971	 0.124724
H	-0.0896021043	-1.351922595	-2.1779176773	 0.258227
H	-1.4004012076	-2.4211267967	-2.5111257245	 0.26922
H	-4.17439989	-0.2279149087	 0.094585625	 0.157475
H	-5.0575913116	-1.7935410947	 0.0011367716	 0.131991
H	-3.6894662893	-1.5474161317	 1.1321099617	 0.151876
51.63	77.207	100.0197	123.1862	149.2241	220.0669	251.9126	271.5935	340.6369	351.2657	378.4102	423.7252	440.684	504.3184	546.7435	574.7556	619.5974	720.0479	791.4245	834.5267	929.9511	945.2351	956.6046	976.0072	1039.586	1114.8135	1139.5683	1154.7714	1190.6552	1206.7246	1328.5369	1358.4922	1385.5119	1391.6464	1400.5333	1415.9247	1452.832	1459.4788	1481.9521	1487.9536	1496.2525	1510.7882	1594.2526	1721.6715	1788.6883	2913.5521	3034.4252	3038.47	3056.9339	3106.4072	3111.8115	3112.9021	3115.4559	3123.9151	3162.6698	3575.9902	3709.8639
CC(C)N=C(N)C(C)=O	CC(C)N=C(N)C(=O)C	
InChI=1S/C6H12N2O/c1-4(2)8-6(7)5(3)9/h4H,1-3H3,(H2,7,8)	InChI=1S/C6H12N2O/c1-4(2)8-6(7)5(3)9/h4H,1-3H3,(H2,7,8)
