22
gdb 78499	2.45914	1.57221	1.27777	1.6721	86.58	-0.2139	0.09	0.3039	1138.2679	0.193536	-367.155304	-367.146203	-367.145258	-367.188378	35.388	
C	-0.0534614436	 1.6077814783	 0.0786140661	-0.428147
C	 0.0869211096	 0.0985876374	-0.0298482889	 0.072681
C	 0.8100646229	-0.5810259314	-1.180626737	-0.203023
C	 2.3055678354	-0.6709045693	-0.7748238019	 0.27024
C	 3.4018369489	-0.902978634	-1.7716959361	-0.509705
C	 2.3785067785	-0.0290891914	 0.5993416906	-0.233354
N	 1.0270336244	-0.6256047527	 0.9337613609	-0.223299
C	 1.2892876738	-1.6354713934	-0.2211950953	 0.344538
C	 1.1598483317	-3.1148842087	-0.1199613177	-0.529066
H	 0.8561662113	 2.1409341475	-0.2080340917	 0.117865
H	-0.85762885	 1.9533034973	-0.5799379214	 0.115037
H	-0.3137062454	 1.8920665878	 1.1043242767	 0.125453
H	-0.8960435653	-0.3632114318	 0.1177091677	 0.075466
H	 0.508700024	-0.7078525015	-2.2147894604	 0.078614
H	 3.7157532449	 0.0342232039	-2.2462133984	 0.121618
H	 4.2843975453	-1.3460226126	-1.295750736	 0.118939
H	 3.0809576552	-1.5815919099	-2.5695819858	 0.118097
H	 3.134836988	-0.5039107479	 1.2326634926	 0.099201
H	 2.4560893197	 1.0576601498	 0.7079678081	 0.089875
H	 0.1342558444	-3.4101025866	 0.128315595	 0.128534
H	 1.4238187793	-3.5874098411	-1.0722309635	 0.122794
H	 1.820789537	-3.5207996298	 0.6539418566	 0.127642
144.7739	168.3809	188.2487	192.9535	197.7728	223.4427	285.3683	344.6895	375.6983	492.6133	568.7717	593.4454	662.9802	693.4554	747.7424	806.4553	851.2224	877.1536	904.6112	933.6015	957.5378	972.0308	1035.4117	1055.3159	1089.4922	1108.2915	1124.2912	1141.8561	1150.8866	1175.8495	1218.7815	1233.3146	1255.2576	1285.7483	1339.2446	1394.9969	1407.617	1407.6707	1417.4026	1471.8547	1476.4848	1488.105	1488.4444	1493.9114	1495.2286	1508.0099	1526.8445	3019.7326	3024.6725	3032.389	3035.6357	3042.1399	3078.9276	3084.7074	3086.5401	3088.5528	3097.1194	3098.344	3119.4612	3170.9219
CC1C2C3(C)CN1C23C	C[C@H]1[C@H]2[C@@]3(C)CN1[C@@]23C	
InChI=1S/C8H13N/c1-5-6-7(2)4-9(5)8(6,7)3/h5-6H,4H2,1-3H3	InChI=1S/C8H13N/c1-5-6-7(2)4-9(5)8(6,7)3/h5-6H,4H2,1-3H3/t5-,6-,7+,8-/m0/s1
