21
gdb 59493	2.21661	1.1268	0.93383	3.989	83.49	-0.233	0.029	0.2621	1374.5342	0.181113	-383.255155	-383.245179	-383.244235	-383.291265	36.519	
C	-0.453306447	-2.2552345225	-2.9805538527	-0.394604
C	-0.4137852577	-1.1360325631	-1.9338136196	 0.058373
C	-0.3091204358	 0.2356735516	-2.6109877853	-0.366465
N	-1.586018449	-1.0877641885	-1.0266562927	-0.083596
C	-2.5583942707	-2.1633393567	-0.9019308651	-0.269588
C	-1.6477226507	-1.8212260523	 0.2254310209	 0.022403
C	-0.5791341343	-2.8274567158	 0.6425703806	-0.377145
C	 0.596178127	-2.1913802298	 1.2416153614	 0.271818
N	 1.5186061665	-1.68156423	 1.7157147215	-0.310879
H	 0.4170837562	-2.1746790043	-3.6385272818	 0.123657
H	-0.4340831076	-3.2563807068	-2.538615168	 0.108696
H	-1.3522210107	-2.1775512179	-3.6018316851	 0.125055
H	 0.4828772113	-1.2691469788	-1.3151659533	 0.098226
H	-0.2680951366	 1.0275558081	-1.8594200291	 0.124522
H	 0.5889737506	 0.2972228576	-3.2343945952	 0.106642
H	-1.1836813668	 0.4173523341	-3.2445925961	 0.1153
H	-3.6030220773	-1.8604630766	-0.8863038935	 0.119498
H	-2.377316308	-3.1094389675	-1.4087047458	 0.109308
H	-2.027871926	-1.2392673283	 1.0639906314	 0.106373
H	-1.0047977976	-3.5201164133	 1.3782981695	 0.158805
H	-0.2521466459	-3.4328753691	-0.2083449921	 0.153602
20.6271	60.1359	131.2195	183.2207	240.9455	265.2409	295.4472	337.6525	367.1796	383.9597	392.3411	467.3188	509.0313	576.984	691.6633	806.7436	865.4361	901.7716	926.9793	944.2305	951.3851	966.8286	1019.1168	1080.2315	1109.7253	1127.3644	1142.1671	1157.9744	1166.0337	1194.5486	1238.0904	1309.1508	1338.5965	1350.5068	1382.5689	1398.2731	1414.4718	1419.7828	1454.7831	1484.2194	1485.7445	1499.631	1506.7904	1522.8702	2360.4224	3023.2039	3032.4584	3037.3291	3045.7285	3088.7606	3094.1436	3100.7642	3103.6295	3112.0885	3114.3502	3124.8453	3172.5951
CC(C)N1CC1CC#N	CC(C)N1C[C@H]1CC#N	
InChI=1S/C7H12N2/c1-6(2)9-5-7(9)3-4-8/h6-7H,3,5H2,1-2H3	InChI=1S/C7H12N2/c1-6(2)9-5-7(9)3-4-8/h6-7H,3,5H2,1-2H3/t7-,9?/m1/s1
