13
gdb 131043	4.70129	1.14186	0.91872	4.3899	70.29	-0.2411	-0.0741	0.1671	1156.2762	0.090961	-448.954458	-448.947215	-448.946271	-448.987175	25.621	
O	 1.8710977828	 4.1985408037	 0.061508812	-0.245651
C	 1.0396072237	 3.3359298463	 0.0544807198	 0.160059
N	 1.2587796331	 1.962002163	-0.0359627069	-0.40362
C	 2.4494660885	 1.2594200171	-0.1386897664	 0.445744
C	 2.407344832	-0.1492314566	-0.2280776755	-0.049576
N	 3.5060001729	-0.8707495132	-0.3271189229	-0.163513
N	 4.6907226684	-0.2472055409	-0.3435533968	-0.194887
C	 4.677357283	 1.078885226	-0.2575579251	 0.107673
N	 3.6145989785	 1.8845947527	-0.1537690078	-0.277203
H	-0.0495383183	 3.530271815	 0.1215179851	 0.093048
H	 0.4226232165	 1.3956345997	-0.0288530063	 0.263695
H	 1.4681499266	-0.6980343202	-0.2190140185	 0.119733
H	 5.6509425523	 1.5607004174	-0.2717645607	 0.144498
44.5119	150.6649	166.6695	263.1472	339.0811	379.0208	538.0847	569.2923	607.167	677.6527	815.9985	820.9505	896.1382	918.0205	1001.4401	1015.6529	1021.9937	1064.8196	1112.0391	1188.9604	1294.8475	1310.7644	1365.1062	1448.1691	1471.982	1518.9828	1581.4102	1610.9647	1852.2134	2935.3916	3152.9501	3183.9608	3609.4191
O=CNC1=CN=NC=N1	O=CNc1cnncn1	
InChI=1S/C4H4N4O/c9-3-6-4-1-7-8-2-5-4/h1-3H,(H,5,6,8,9)	InChI=1S/C4H4N4O/c9-3-6-4-1-7-8-2-5-4/h1-3H,(H,5,6,8,9)
