19
gdb 39083	3.49061	1.66622	1.44415	1.8513	79.04	-0.2331	0.0099	0.2431	950.1043	0.162795	-385.861117	-385.854737	-385.853793	-385.891396	27.735	
C	-0.0715099463	 1.604884141	 0.2665772589	-0.272541
C	 1.4263595251	 1.3932129141	 0.0153734733	 0.063139
O	 1.8160581823	 0.5813973281	 1.154179945	-0.288527
C	 0.7466597122	-0.4073348355	 1.2324799504	-0.15835
C	-0.0679100931	 0.0359020851	 0.0264793232	 0.301734
C	-1.1664043984	-0.6064803638	-0.7523746453	-0.234058
C	-0.9699356826	-0.3837462029	-2.0581428557	-0.050059
C	 0.2982533076	 0.4196673479	-2.3435895187	-0.344829
C	 1.0749062502	 0.2913709538	-1.0152020647	 0.01319
H	-0.3596860303	 1.9765244052	 1.2523084712	 0.098586
H	-0.5990732149	 2.1410085866	-0.5215655672	 0.105161
H	 2.1628875706	 2.1846972456	-0.1167890102	 0.074059
H	 1.1635113985	-1.4161899948	 1.1350439416	 0.101606
H	 0.2333590701	-0.3197329582	 2.197259935	 0.096635
H	-2.0260649869	-1.1096904225	-0.3252088818	 0.097636
H	-1.6501434652	-0.6877653602	-2.8472608218	 0.096123
H	 0.8653741282	 0.0229394544	-3.1918149253	 0.107417
H	 0.0440162513	 1.4552545883	-2.605443551	 0.11391
H	 1.8330526716	-0.4944828824	-1.0805167569	 0.079169
232.348	263.7434	355.783	400.8713	465.7052	486.0519	539.9777	638.6401	700.861	737.6999	781.2923	826.1403	857.0976	878.3098	897.2076	923.3316	952.8521	954.9827	962.484	990.1385	1029.511	1047.3442	1074.26	1096.7725	1112.369	1153.7722	1171.3788	1187.0267	1199.8268	1226.175	1245.858	1249.0573	1277.8535	1299.4125	1339.7144	1369.8888	1393.1593	1477.7901	1501.6125	1530.4961	1646.3862	3021.8528	3022.0018	3057.0775	3064.5212	3075.2001	3077.4508	3129.7822	3149.9796	3179.4884	3206.4025
C1C2OCC11C=CCC21	C1[C@H]2OC[C@]31C=CC[C@@H]23	
InChI=1S/C8H10O/c1-2-6-7-4-8(6,3-1)5-9-7/h1,3,6-7H,2,4-5H2	InChI=1S/C8H10O/c1-2-6-7-4-8(6,3-1)5-9-7/h1,3,6-7H,2,4-5H2/t6-,7+,8+/m0/s1
