20
gdb 16367	2.58799	2.02981	1.37112	1.7437	74.78	-0.2517	0.0755	0.3272	990.3109	0.176	-348.983416	-348.974991	-348.974047	-349.015946	32.027	
C	-0.6198613091	 0.9571890518	-1.5058533179	-0.418146
C	 0.2540995633	-0.1551638401	-0.9481752179	-0.044383
C	 1.776304511	-0.1860746622	-1.2898781829	-0.258493
C	 2.087717745	-0.618775237	 0.1766195341	-0.044383
C	 3.2930232065	-0.0321450658	 0.8944255756	-0.418146
C	 0.6731900113	-0.1401034721	 0.5273455735	 0.438897
C	 0.2545477156	 0.7787462985	 1.5885313884	-0.266092
O	-0.1092282268	-0.610655074	 1.6088786113	-0.28102
H	-0.1861996795	 1.9423150002	-1.301602961	 0.11147
H	-0.7335364434	 0.8612098279	-2.590972237	 0.116826
H	-1.6226467597	 0.9313372493	-1.0652563946	 0.12254
H	-0.1929652287	-1.1316461104	-1.1702821838	 0.084514
H	 2.0970222808	-0.8568668152	-2.089189164	 0.099222
H	 2.1583177041	 0.8189911969	-1.4983666358	 0.097701
H	 2.1078270056	-1.7133780223	 0.2410909281	 0.084514
H	 3.2963731113	 1.0617816433	 0.8347022179	 0.11147
H	 3.2983728691	-0.312890077	 1.9534469355	 0.12254
H	 4.2278682297	-0.3932378123	 0.4525050447	 0.116826
H	 0.9641162477	 1.0853941942	 2.3560275708	 0.112072
H	-0.5673699441	 1.4726126862	 1.4165672951	 0.112072
79.0612	202.2473	210.5036	220.4387	227.4494	255.2331	311.139	423.1425	471.6805	498.8547	545.8593	670.7652	811.1859	852.8728	864.8624	883.1749	925.9241	939.1104	962.4264	1023.2411	1071.7802	1123.9626	1125.0425	1148.4564	1160.8223	1164.0842	1168.474	1181.4597	1250.0077	1266.6406	1287.2669	1360.4513	1385.5208	1408.3454	1410.065	1427.5765	1492.2243	1495.4719	1497.1749	1497.7737	1500.7064	1536.999	3026.2963	3026.7446	3033.8465	3036.6978	3050.8133	3080.2415	3094.7383	3095.0393	3096.0939	3096.3116	3114.1576	3164.7152
CC1CC(C)C11CO1	C[C@H]1C[C@@H](C)[C@]21CO2	
InChI=1S/C7H12O/c1-5-3-6(2)7(5)4-8-7/h5-6H,3-4H2,1-2H3	InChI=1S/C7H12O/c1-5-3-6(2)7(5)4-8-7/h5-6H,3-4H2,1-2H3/t5-,6+,7+
