17
gdb 8603	4.2744	1.94469	1.75137	3.2276	69.72	-0.2063	0.044	0.2503	799.0306	0.142786	-363.693009	-363.686404	-363.68546	-363.723266	26.958	
O	 0.0920939721	 1.4735656218	-0.1375190471	-0.408751
C	 0.0702476146	 0.0745588249	-0.0161898421	 0.055526
C	 0.3087081005	-0.5343989356	 1.4565316741	-0.381001
C	-1.22840159	-0.7233245366	 1.4924880717	 0.241923
C	-2.5855443093	-1.4998570649	 1.444407657	-0.249515
N	-2.8253597439	-0.3180405897	 0.4446861029	-0.18228
C	-2.1354306983	 0.5329296761	 1.5200842327	-0.192346
C	-1.343577973	-0.6500799772	-0.0002105064	 0.029058
H	 1.0053464174	 1.7675338877	-0.054375877	 0.289635
H	 0.7177359105	-0.3892967435	-0.7732035548	 0.081688
H	 0.8820956804	-1.4642424523	 1.4057632816	 0.107771
H	 0.7573313102	 0.135167977	 2.196932719	 0.101338
H	-2.5868389986	-2.4847161342	 0.9701260015	 0.105295
H	-3.267508645	-1.4579981117	 2.2994476054	 0.103106
H	-2.749424176	 0.6835053969	 2.4134237039	 0.088051
H	-1.7397865399	 1.4729142484	 1.1415139942	 0.136696
H	-1.3134005818	-1.5639408771	-0.5988107968	 0.073805
196.9156	227.4406	252.273	356.3223	415.8749	446.8942	558.8222	600.9352	696.2724	747.4277	764.9815	827.9621	863.7603	889.4789	900.6655	925.1929	986.5379	1004.4178	1027.1895	1067.9026	1076.7037	1157.3911	1167.6263	1171.8015	1187.854	1194.2753	1209.827	1216.1192	1240.2393	1281.6495	1297.932	1359.3224	1416.6841	1460.949	1508.1079	1551.4547	2995.921	3043.0829	3046.9501	3055.2725	3073.6107	3111.4358	3119.4999	3166.8867	3807.8213
OC1CC23CN(C2)C13	O[C@H]1C[C@@]23CN(C2)[C@@H]13	
InChI=1S/C6H9NO/c8-4-1-6-2-7(3-6)5(4)6/h4-5,8H,1-3H2	InChI=1S/C6H9NO/c8-4-1-6-2-7(3-6)5(4)6/h4-5,8H,1-3H2/t4-,5-/m0/s1
