15
gdb 16762	5.57984	1.50373	1.3047	2.9874	61.22	-0.2524	0.0118	0.2642	921.8053	0.119573	-399.790481	-399.783505	-399.782561	-399.821891	25.998	
O	 0.1157353567	 1.3609810758	 0.10942667	-0.420688
C	 0.0099889627	-0.0370157958	 0.0589550262	-0.129739
C	-1.4216514596	-0.4753530901	 0.0701383724	 0.37584
N	-2.4145906417	 0.3248717031	 0.0556147986	-0.333857
C	-3.6010126799	-0.4987748018	 0.0274980585	-0.018206
C	-3.7516096444	-1.3940326285	-1.187150858	-0.318432
C	-3.0878850019	-1.9286115683	 0.0473540102	 0.056271
O	-1.6702543273	-1.8101223324	 0.1047269749	-0.240751
H	-0.7895655118	 1.7023694614	 0.07937317	 0.299022
H	 0.4927920255	-0.4394864209	-0.8459136681	 0.120459
H	 0.5233119117	-0.4987316758	 0.9160605717	 0.123637
H	-4.4697426251	-0.1326669392	 0.5600357376	 0.109597
H	-4.7455651433	-1.776422206	-1.3917443328	 0.126962
H	-3.1465299644	-1.1800319187	-2.0618239069	 0.130783
H	-3.4647492473	-2.7675473028	 0.6166823858	 0.1191
79.3893	167.7811	212.7498	291.6386	370.9409	424.1356	483.0957	636.8016	701.8163	747.9936	766.8643	820.257	928.4041	946.6882	990.3062	1024.394	1044.3343	1057.3631	1082.5853	1109.9694	1123.7387	1135.3545	1186.0734	1240.5535	1246.3256	1315.5382	1351.1222	1368.5525	1461.5247	1481.1839	1507.064	1704.5753	2984.3035	3006.8411	3133.4151	3189.8829	3206.3296	3227.84	3728.9168
OCC1=NC2CC2O1	OCC1=N[C@H]2C[C@H]2O1	
InChI=1S/C5H7NO2/c7-2-5-6-3-1-4(3)8-5/h3-4,7H,1-2H2	InChI=1S/C5H7NO2/c7-2-5-6-3-1-4(3)8-5/h3-4,7H,1-2H2/t3-,4+/m0/s1
