12
gdb 21646	7.24327	1.36516	1.14989	1.8177	67.2	-0.2165	-0.03	0.1865	955.7881	0.08562	-373.697737	-373.690808	-373.689864	-373.728591	26.021	
N	-0.0597128374	 1.3516486799	 0.1493970187	-0.599005
C	 0.0054898866	-0.0211550574	 0.0520197681	 0.377984
N	-1.080064416	-0.7925268211	 0.0128212489	-0.268834
N	-0.5320832668	-2.0333616461	-0.0118260749	-0.260161
C	 0.8175786113	-1.9607634642	 0.0040046866	 0.221432
N	 1.1930392746	-0.685303955	 0.0438582779	-0.363155
C	 1.6490031346	-3.1030496326	-0.0189726151	 0.269343
C	 2.3309498951	-4.0937852982	-0.0400966703	-0.384948
H	 0.7630522046	 1.8154156361	-0.2057946826	 0.261498
H	-0.9219564986	 1.7480196041	-0.1940811389	 0.258808
H	-1.119709687	-2.8497412058	-0.0422600152	 0.283089
H	 2.945072389	-4.9605430098	-0.0573030932	 0.203948
142.1608	149.445	302.2389	328.2315	394.9657	439.4538	525.8446	554.7823	573.3675	606.1989	610.349	686.4511	730.9375	770.8709	795.4046	1025.3281	1072.4856	1097.3597	1192.3199	1280.6944	1402.1812	1451.7193	1553.5659	1572.9362	1647.7933	2242.888	3498.9612	3577.4877	3671.8663	3684.6644
NC1=NNC(=N1)C#C	Nc1n[nH]c(n1)C#C	
InChI=1S/C4H4N4/c1-2-3-6-4(5)8-7-3/h1H,(H3,5,6,7,8)	InChI=1S/C4H4N4/c1-2-3-6-4(5)8-7-3/h1H,(H3,5,6,7,8)
