22
gdb 117686	3.87744	0.7346	0.72203	4.0574	82.61	-0.2741	0.0293	0.3034	1636.0334	0.191534	-404.368441	-404.3574	-404.356456	-404.404694	39.793	
C	 0.0582161954	 1.6056083937	 0.0714630654	-0.420182
C	 0.0346120768	 0.066558194	 0.1013488494	 0.231202
C	 0.8273718814	-0.4528020942	 1.3145780839	-0.420185
C	-1.4145336237	-0.474271348	 0.1024494568	-0.179507
C	-2.2883009271	-0.0833568064	 1.2910648424	-0.103842
O	-3.5570995617	-0.6860022867	 1.076532117	-0.418066
C	 0.6864591469	-0.4791520345	-1.2056565321	-0.355786
C	 2.0773721426	-0.0710799388	-1.3910948732	 0.269879
N	 3.1770513375	 0.2595585992	-1.5245241826	-0.323306
H	 1.0811451413	 1.9786334931	-0.0368617424	 0.139914
H	-0.533080965	 1.994892764	-0.7648862731	 0.114619
H	-0.3489307179	 2.0275195531	 0.9944576107	 0.119197
H	 0.4285404504	-0.052892778	 2.2509039836	 0.119198
H	 0.7900494607	-1.5463085563	 1.3738006063	 0.11461
H	 1.8782512597	-0.1546111924	 1.251342515	 0.139906
H	-1.9285312922	-0.1378389701	-0.8068783869	 0.10428
H	-1.3931951097	-1.5705402594	 0.0577874819	 0.104249
H	-1.8397881875	-0.4359352775	 2.2318955188	 0.090976
H	-2.3795356196	 1.0110291431	 1.3592799237	 0.090976
H	-4.12813953	-0.4551711815	 1.8149397519	 0.287619
H	 0.6481584788	-1.5746763512	-1.208932828	 0.147122
H	 0.1117659227	-0.1401486653	-2.0754027683	 0.147129
65.4379	74.9979	111.2922	113.8615	201.6665	247.2398	262.7029	269.0132	311.8526	319.2308	330.8859	398.5826	401.7709	404.6049	453.6782	623.5468	761.09	795.8224	885.5194	889.5863	947.4005	958.542	995.3584	1000.5961	1035.3938	1070.8555	1074.4109	1180.2846	1191.1764	1229.6811	1233.5803	1263.2747	1296.527	1329.7351	1344.6984	1353.9384	1404.1924	1426.7298	1458.3122	1461.7357	1484.2923	1485.1797	1496.5172	1508.1263	1513.4976	1530.1819	2356.7981	2980.0841	3006.9649	3020.7736	3032.172	3035.0309	3040.3375	3064.1262	3078.2635	3101.5499	3104.085	3111.1576	3115.549	3830.2877
CC(C)(CCO)CC#N	CC(C)(CCO)CC#N	
InChI=1S/C7H13NO/c1-7(2,3-5-8)4-6-9/h9H,3-4,6H2,1-2H3	InChI=1S/C7H13NO/c1-7(2,3-5-8)4-6-9/h9H,3-4,6H2,1-2H3
