21
gdb 72278	3.06986	1.56133	1.31841	1.4392	82.08	-0.2294	0.0877	0.3171	1057.0813	0.185	-387.071093	-387.063489	-387.062545	-387.102617	31.175	
C	-0.0755759941	 1.5652822793	 0.0045719204	-0.498369
C	-0.0156283873	 0.064715125	-0.0451329154	 0.34169
C	 0.6426172104	-0.7248269432	-1.1871060038	-0.290451
C	-0.4090603248	-1.8666171731	-0.9849688037	-0.036646
C	 0.1681860832	-3.122575876	-0.3386466707	-0.086539
O	 1.1304937459	-2.7851800102	 0.6491505888	-0.245034
C	 0.6325413686	-1.9450207288	 1.6771470366	-0.106793
C	-0.222938636	-0.7880266311	 1.1907152753	-0.083765
C	-1.1519564637	-0.9650666926	 0.0236091742	-0.138355
H	 0.9048942627	 1.9952561976	 0.2443333459	 0.119621
H	-0.3895870167	 1.9810070317	-0.9602607552	 0.114038
H	-0.782434658	 1.9141139877	 0.7650293574	 0.114426
H	 0.4929406177	-0.2145561952	-2.1432074674	 0.091765
H	 1.6967301266	-0.9925023958	-1.0825419894	 0.104121
H	-0.9802642764	-2.1132982655	-1.8821763801	 0.068966
H	-0.6410742451	-3.7359177242	 0.0945843774	 0.082969
H	 0.7063946409	-3.7367291521	-1.0680147278	 0.103095
H	 0.027339885	-2.5388358107	 2.3861697985	 0.083875
H	 1.5156285126	-1.5873551376	 2.2183677663	 0.105269
H	-0.6519456988	-0.220344518	 2.0144445807	 0.080965
H	-2.2240660629	-0.8147668471	 0.0807706221	 0.075151
170.3183	202.0609	235.6617	269.864	298.0602	379.2021	391.5933	487.0499	554.6672	625.197	710.4094	739.8375	797.2099	826.7421	874.8468	886.437	935.6584	962.5768	965.3926	972.1652	1031.3408	1042.0906	1064.0228	1090.7928	1099.374	1124.0928	1151.5027	1167.5631	1226.5153	1234.9846	1242.3101	1270.5534	1302.6038	1312.579	1324.473	1331.051	1384.0841	1413.0378	1423.9726	1461.3523	1484.486	1490.0393	1493.0156	1502.5559	1503.5379	2938.9731	2957.4837	3016.3827	3051.2772	3056.8964	3069.1082	3073.5986	3087.4197	3090.6787	3106.8629	3128.2663	3171.8143
CC12CC3COCC1C23	C[C@@]12C[C@H]3COC[C@@H]1[C@@H]23	
InChI=1S/C8H12O/c1-8-2-5-3-9-4-6(8)7(5)8/h5-7H,2-4H2,1H3	InChI=1S/C8H12O/c1-8-2-5-3-9-4-6(8)7(5)8/h5-7H,2-4H2,1H3/t5-,6+,7-,8+/m0/s1
