19
gdb 58172	2.63172	1.09982	0.99917	3.5032	78.91	-0.2592	-0.0702	0.189	1292.2503	0.15566	-423.01132	-423.00102	-423.000075	-423.04669	37.458	
C	 0.1393468789	 1.5597276807	-0.1091425072	-0.418769
C	 0.0432353164	 0.0341320366	-0.0040973932	 0.134451
O	 0.8338869359	-0.4751278634	 1.0569036991	-0.440941
C	-1.4169156591	-0.4758586811	 0.0781823265	-0.104226
C	-1.4816869097	-2.0169109229	 0.007664713	-0.406133
C	-2.1175557622	-0.0184621417	 1.3517623284	 0.222895
O	-1.5303457979	 0.2996361911	 2.3705855154	-0.320175
C	-3.5697546313	-0.0090296558	 1.3040665091	 0.271822
C	-4.7720256233	 0.0016797961	 1.2416003069	-0.384977
H	 1.1889829343	 1.8532138374	-0.1920412418	 0.126342
H	-0.3937619938	 1.9310973197	-0.9914888865	 0.107438
H	-0.2797176711	 2.0463938053	 0.7766229417	 0.128507
H	 0.4736685522	-0.4007642131	-0.9153905421	 0.080285
H	 0.4150399918	-0.1605706062	 1.8702571488	 0.292307
H	-1.9846749837	-0.0683043555	-0.7678546118	 0.094154
H	-2.5050696686	-2.3840421589	 0.1246004564	 0.124548
H	-1.1063227757	-2.3573919858	-0.9616939112	 0.125454
H	-0.8530115161	-2.4497651037	 0.7890502729	 0.148261
H	-5.8345483672	 0.0163015315	 1.2040074558	 0.218758
40.1086	119.8883	136.2948	186.5943	214.2522	228.5832	244.654	260.8277	287.1996	362.2705	401.9184	488.0387	551.7384	575.8431	637.6858	650.0743	713.4607	749.5005	778.1354	831.959	924.6093	992.9489	1021.3512	1050.7736	1081.9052	1107.7328	1124.3681	1176.243	1291.766	1295.4442	1361.7445	1378.6764	1401.1573	1404.941	1451.2194	1491.7884	1495.8324	1501.9649	1503.9768	1740.25	2210.0125	3023.2374	3032.0537	3038.4401	3046.0171	3107.8372	3115.8806	3123.9028	3136.6052	3492.5955	3742.6523
CC(O)C(C)C(=O)C#C	C[C@@H](O)[C@@H](C)C(=O)C#C	
InChI=1S/C7H10O2/c1-4-7(9)5(2)6(3)8/h1,5-6,8H,2-3H3	InChI=1S/C7H10O2/c1-4-7(9)5(2)6(3)8/h1,5-6,8H,2-3H3/t5-,6-/m1/s1
