23
gdb 118719	2.50973	1.1525	0.92648	1.5909	85.74	-0.2285	0.0793	0.3078	1394.8395	0.204528	-388.252608	-388.242819	-388.241874	-388.288447	36.582	
C	-0.1016298661	 1.5680016282	 0.2033709511	-0.380986
C	-0.1954041033	 0.0423458259	 0.2940069763	-0.162488
C	 0.9762434167	-0.576215808	 1.0713729527	-0.257259
C	 0.8987402124	-2.0885900869	 1.2068252573	 0.307647
C	 1.0662538815	-2.876586452	-0.083250172	-0.466184
C	 1.4696701235	-2.8364549669	 2.4123231989	-0.18963
C	 1.1860189696	-2.0889307226	 3.708803707	-0.112119
O	-0.2189090948	-1.9407562655	 3.3675880604	-0.289673
C	-0.0273679594	-2.7393119001	 2.1944471937	 0.062314
H	 0.815858184	 1.880356226	-0.3084761515	 0.110655
H	-0.9486872311	 1.9884816377	-0.3478172887	 0.109431
H	-0.0939056549	 2.0234915528	 1.1999151137	 0.115957
H	-1.1327576818	-0.2405504376	 0.7885926828	 0.107586
H	-0.2411502784	-0.3762208433	-0.7187312317	 0.092601
H	 1.9238335203	-0.3113491806	 0.5814362022	 0.08605
H	 1.0021496643	-0.1164899053	 2.063473123	 0.107637
H	 2.0575739152	-2.7050845323	-0.5183108289	 0.118938
H	 0.9636830492	-3.9530429504	 0.0906164723	 0.114155
H	 0.3184822541	-2.5909578106	-0.8294609176	 0.123309
H	 2.1425988721	-3.6775847713	 2.3065111788	 0.092153
H	 1.295794037	-2.7186607413	 4.5992693845	 0.108195
H	 1.6817747227	-1.1257472774	 3.8787239136	 0.10504
H	-0.7890631527	-3.4757471686	 1.9589233722	 0.09667
18.4065	75.5255	150.9791	209.7202	224.607	242.7718	265.4168	320.5312	327.2323	393.5255	471.9618	527.4371	724.0118	739.4895	767.7304	827.1932	865.6798	876.9126	907.4038	952.4113	964.5738	984.8495	1009.4416	1034.935	1047.1372	1050.4377	1078.5485	1097.5893	1107.9777	1142.4539	1162.3168	1207.1348	1247.976	1268.7325	1300.0447	1320.3871	1327.6952	1346.1472	1392.5092	1409.4186	1416.4078	1421.7577	1472.319	1490.7099	1495.2189	1498.8826	1505.8098	1508.6624	1518.0288	3009.6415	3021.2928	3025.6642	3027.611	3029.1249	3055.972	3066.1952	3084.2038	3090.0343	3096.2874	3099.8803	3101.9037	3160.2787	3192.3671
CCCC1(C)C2COC12	CCC[C@@]1(C)[C@H]2CO[C@@H]12	
InChI=1S/C8H14O/c1-3-4-8(2)6-5-9-7(6)8/h6-7H,3-5H2,1-2H3	InChI=1S/C8H14O/c1-3-4-8(2)6-5-9-7(6)8/h6-7H,3-5H2,1-2H3/t6-,7+,8-/m0/s1
