18
gdb 73998	2.93535	2.16036	1.62386	2.0788	81.02	-0.2009	-0.0245	0.1763	876.2763	0.149001	-364.703573	-364.696899	-364.695955	-364.734301	27.715	
C	 0.2895652351	 1.2476699578	-0.1239543068	-0.47646
C	-0.3038577365	-0.122233981	-0.0489967981	 0.269829
C	-0.5563379386	-0.9485873916	-1.0973590706	-0.089932
C	 0.7031337586	-1.3075679991	-1.9157495747	-0.279231
C	 0.8098688328	-2.4428878629	-0.8167069962	-0.03977
C	 0.888423108	-2.099718917	 0.7092502944	-0.073098
C	-0.0852961863	-0.9876773079	 1.1265293616	-0.119966
N	-0.5704271429	-2.3683854155	 0.9367944081	-0.148264
C	-0.7086589586	-2.3815234162	-0.5664775047	-0.004292
H	 1.3021578338	 1.2741173973	 0.301398841	 0.1246
H	 0.3318792376	 1.6043643507	-1.1564476842	 0.12973
H	-0.3084358028	 1.9674174612	 0.4490608323	 0.133609
H	 0.5498679007	-1.7661230697	-2.8988237327	 0.107061
H	 1.4811307936	-0.5435253359	-1.9830316895	 0.106705
H	 1.3158760445	-3.3760891452	-1.074244457	 0.087336
H	 1.6404918226	-2.4720517681	 1.3959900631	 0.101228
H	-0.0470251201	-0.6429496123	 2.1559474884	 0.092122
H	-1.4437315015	-3.0652642446	-0.9859549044	 0.078794
131.5837	198.9249	261.4511	364.1921	494.767	579.799	591.4176	655.5033	699.9327	731.7183	772.4097	808.3582	817.9961	848.5794	909.6051	925.7194	929.3533	958.5119	983.9971	1001.7052	1028.5737	1053.6679	1054.7593	1071.242	1120.1025	1130.3126	1152.969	1201.3158	1203.7038	1215.0079	1249.9759	1269.514	1303.4672	1345.3827	1404.5754	1469.9788	1485.9077	1497.3502	1604.9575	3009.8556	3039.1696	3059.2214	3087.887	3105.5818	3112.7599	3130.5846	3153.2835	3177.3398
CC1=C2CC3C4C1N4C23	C[C]1[C]2C[C@H]3[C@H]4[C@@H]1N4[C@@H]23	
InChI=1S/C8H9N/c1-3-4-2-5-7(4)9-6(3)8(5)9/h5-8H,2H2,1H3	InChI=1S/C8H9N/c1-3-4-2-5-7(4)9-6(3)8(5)9/h5-8H,2H2,1H3/t5-,6-,7+,8+,9?/m1/s1
