17
gdb 75385	2.6879	1.83596	1.28973	1.537	68.29	-0.234	0.0195	0.2535	974.6555	0.139347	-455.162398	-455.15508	-455.154136	-455.194388	28.338	
N	 0.1099607201	 1.1848220196	-0.3390144665	-0.572334
C	 0.0200052966	-0.1639299228	-0.1050185476	 0.345205
N	-1.0507408455	-0.8539955461	-0.2090771507	-0.276362
C	-0.7670491572	-2.236665179	 0.1886323758	-0.188571
C	 0.7634079078	-2.372561178	 0.3746851216	 0.068441
O	 1.439460496	-2.9811934652	-0.7287538842	-0.258198
C	 1.9908861994	-1.948131244	-1.5099200499	 0.011989
O	 2.3104784289	-0.8921830836	-0.6245752071	-0.258182
C	 1.2693741232	-0.9114734501	 0.3467384209	-0.025545
H	 1.0131775084	 1.5054039015	-0.6559908341	 0.260645
H	-0.6708851484	 1.5814949012	-0.8423803906	 0.257173
H	-1.2984664193	-2.4745306624	 1.119460465	 0.104839
H	-1.1260924741	-2.9375409452	-0.5725507018	 0.117173
H	 1.0374731791	-2.931896009	 1.271747629	 0.090673
H	 2.9108904453	-2.3001955683	-1.9846143343	 0.122549
H	 1.2709972987	-1.6072096197	-2.2739676802	 0.093628
H	 1.6791161209	-0.5267125989	 1.2836940448	 0.106876
71.4723	180.5294	220.4056	285.0806	383.7588	420.1277	451.1939	559.0371	596.5007	675.6717	734.0275	743.0778	785.7857	859.253	898.9802	947.1398	981.2019	982.8761	1017.2659	1038.0486	1077.6555	1113.1263	1165.7356	1181.8264	1220.8526	1229.0981	1248.7815	1285.5789	1330.4123	1337.3035	1362.3356	1412.2973	1427.7346	1488.7146	1541.642	1629.1051	1734.4629	2951.8822	3020.492	3069.3144	3082.9199	3089.8089	3095.9745	3563.5299	3674.2087
NC1=NCC2OCOC12	NC1=NC[C@H]2OCO[C@@H]12	
InChI=1S/C5H8N2O2/c6-5-4-3(1-7-5)8-2-9-4/h3-4H,1-2H2,(H2,6,7)	InChI=1S/C5H8N2O2/c6-5-4-3(1-7-5)8-2-9-4/h3-4H,1-2H2,(H2,6,7)/t3-,4-/m1/s1
