17
gdb 55822	3.5597	1.1453	1.0825	2.5445	68.47	-0.2411	0.0148	0.2559	1176.5571	0.134272	-458.944021	-458.935461	-458.934517	-458.978712	30.447	
C	-0.290212121	 1.33824544	 0.1027696657	-0.483268
C	-0.1420534178	-0.1448761394	-0.1261759927	 0.438167
O	 0.6224301906	-0.6723440263	-0.8887361327	-0.344298
O	-1.0071037273	-0.8341017383	 0.6672222522	-0.249584
C	-1.0364435761	-2.2293526657	 0.4663489331	 0.124242
C	-2.3034407372	-2.9710046173	 0.7670476509	-0.21217
C	-3.4860211417	-2.1594986391	 0.2444131581	-0.082484
O	-2.8775625013	-2.0184856141	-1.068029304	-0.282391
C	-1.7851757249	-2.8374602316	-0.6699453563	 0.06576
H	 0.4853322021	 1.8696001762	-0.4473172269	 0.148847
H	-1.2758156695	 1.6638940322	-0.2433952143	 0.156469
H	-0.2255928147	 1.5688113783	 1.1692670478	 0.147841
H	-0.1155529657	-2.7372834946	 0.7366675936	 0.119023
H	-2.3584383451	-3.808516379	 1.449245231	 0.107239
H	-4.4093848751	-2.74270061	 0.1716417439	 0.114526
H	-3.6818768808	-1.1932871215	 0.7194683363	 0.117544
H	-1.3730823146	-3.5301767599	-1.3943928958	 0.114536
39.6536	65.9815	95.8744	151.8559	247.7858	284.314	379.5872	472.5841	589.5148	604.9838	713.8644	734.1917	783.916	827.036	910.8669	944.7539	970.1663	979.5715	995.2079	1041.9643	1042.6814	1060.514	1065.081	1088.5282	1135.883	1170.0558	1190.3255	1248.3577	1262.3921	1313.3455	1355.0603	1393.3185	1440.5182	1469.658	1475.7898	1510.1319	1838.2131	3043.0582	3057.7006	3096.4064	3123.63	3162.4423	3169.7528	3186.011	3205.9249
CC(=O)OC1C2COC12	CC(=O)O[C@H]1[C@H]2CO[C@@H]12	
InChI=1S/C6H8O3/c1-3(7)9-6-4-2-8-5(4)6/h4-6H,2H2,1H3	InChI=1S/C6H8O3/c1-3(7)9-6-4-2-8-5(4)6/h4-6H,2H2,1H3/t4-,5+,6-/m0/s1
