19
gdb 92639	3.13463	1.47975	1.12125	1.2539	78.33	-0.2219	0.0226	0.2445	1115.9348	0.161069	-419.186791	-419.178611	-419.177667	-419.219703	30.582	
C	 0.0394941413	 1.1505411883	-0.5137204723	-0.332785
N	 0.0895683574	 0.0844157117	 0.4622855777	-0.126425
C	-0.9839737483	-0.9158390721	 0.7086194133	-0.218511
C	 0.1464407585	-1.8915871126	 1.1895413688	 0.030052
O	 0.258724898	-3.1997591282	 0.6929118628	-0.279838
C	 1.4061930395	-3.4230115902	-0.1452936025	-0.068496
C	 2.5850252263	-2.4822745563	 0.1530291262	-0.180288
N	 2.1819230421	-1.0766858933	-0.0504328793	-0.343791
C	 1.0611725483	-0.9005250858	 0.5131283542	 0.369911
H	 1.0056407171	 1.6598796651	-0.5294735097	 0.152829
H	-0.168591132	 0.7773909164	-1.528300177	 0.116735
H	-0.7337616824	 1.8730400077	-0.2377245	 0.126912
H	-1.741132383	-0.6060226197	 1.4337591176	 0.11096
H	-1.4571843139	-1.2717130606	-0.2149678044	 0.114819
H	 0.218224273	-1.904956061	 2.282816651	 0.104139
H	 1.6892602594	-4.4685062787	 0.0124980951	 0.108505
H	 1.1198242081	-3.2976732142	-1.1997754377	 0.099965
H	 2.9543221841	-2.6549148062	 1.174451727	 0.106603
H	 3.4060528166	-2.7186024304	-0.5307218709	 0.108704
97.5965	116.6218	146.6841	202.9867	272.8885	327.3305	390.4757	449.8002	504.9993	570.2443	625.3953	735.574	796.9726	831.7087	885.0372	937.4221	985.134	999.7507	1047.3403	1072.8182	1093.8751	1107.1941	1123.7292	1161.6278	1182.85	1201.0845	1231.8469	1261.1292	1272.5265	1284.9347	1343.7806	1363.8206	1402.09	1410.6268	1452.9401	1485.5138	1491.1015	1500.8105	1505.0457	1514.4193	1786.5184	2989.2214	2995.2002	3005.2841	3026.7471	3040.2088	3077.5793	3078.5878	3083.7516	3098.037	3132.0723
CN1CC2OCCN=C12	CN1C[C@H]2OCC[N][C]12	
InChI=1S/C6H10N2O/c1-8-4-5-6(8)7-2-3-9-5/h5H,2-4H2,1H3	InChI=1S/C6H10N2O/c1-8-4-5-6(8)7-2-3-9-5/h5H,2-4H2,1H3/t5-/m1/s1
