16
gdb 5309	4.52991	1.53811	1.19804	2.4292	66.28	-0.2218	0.0251	0.2468	977.7573	0.132226	-379.960349	-379.952773	-379.951829	-379.992484	28.139	
C	 0.1235465264	 1.4314711241	 0.8405334165	-0.4015
C	-0.1395862466	 0.287945693	-0.1368397151	-0.002929
O	 0.8429278692	-0.7504663482	-0.0306260793	-0.432564
C	-1.5184770684	-0.2860523673	 0.0028557207	 0.292126
C	-2.6938188952	 0.1390995106	 0.572503688	-0.18095
N	-3.695441655	-0.787671629	 0.3884068473	-0.260133
C	-3.135888626	-1.7685578995	-0.282510143	 0.013208
N	-1.8248818217	-1.5140219527	-0.5475968721	-0.293032
H	 1.1447610696	 1.798074832	 0.7120546002	 0.126704
H	-0.569320085	 2.2606649492	 0.6687986741	 0.130206
H	-0.003629434	 1.0950167442	 1.8752838875	 0.117966
H	 0.0008837741	 0.6615973834	-1.1600420572	 0.106009
H	 0.7988425002	-1.0925268353	 0.8704276261	 0.280351
H	-2.8792532989	 1.0632048186	 1.0985431022	 0.106138
H	-3.6220595421	-2.6805536905	-0.5958121369	 0.129113
H	-1.1516576267	-2.1156127326	-0.9937110289	 0.269288
59.5886	170.9257	185.2518	247.6462	331.3076	370.5184	457.4895	485.2218	576.6396	635.9243	689.7471	729.4933	815.4815	853.4761	888.6542	934.8194	999.8113	1036.7933	1084.2052	1099.9308	1127.0721	1150.3463	1238.7047	1273.9657	1288.519	1344.0321	1386.6803	1403.5962	1417.2787	1430.0979	1488.8947	1493.0147	1503.486	1603.8759	3017.4915	3038.6848	3109.4237	3128.624	3248.0655	3251.4912	3658.8921	3785.3349
CC(O)C1=CN=CN1	C[C@@H](O)c1cnc[nH]1	
InChI=1S/C5H8N2O/c1-4(8)5-2-6-3-7-5/h2-4,8H,1H3,(H,6,7)	InChI=1S/C5H8N2O/c1-4(8)5-2-6-3-7-5/h2-4,8H,1H3,(H,6,7)/t4-/m1/s1
