18
gdb 126984	3.23217	1.05046	0.8048	3.4404	76.47	-0.2176	-0.0053	0.2123	1418.3839	0.146181	-439.078566	-439.069251	-439.068306	-439.113903	32.53	
C	 0.0850128035	 1.5447439905	 0.0191756414	-0.39174
C	 0.1092811213	 0.0291462926	-0.0438519185	-0.056957
O	 0.7529309291	-0.4481179927	 1.135237572	-0.276183
C	 0.8678253923	-1.7920377128	 1.251298217	 0.154942
C	 1.4527970138	-2.4393743135	 2.3027261544	 0.324244
C	 2.0966589517	-1.9544621364	 3.5489986839	-0.500782
O	 1.3881566409	-3.7697693213	 2.0826003341	-0.20796
N	 0.7558612649	-4.0209258891	 0.8754066239	-0.144546
C	 0.4491867765	-2.8415939024	 0.3865345023	-0.077568
H	 1.101623028	 1.943912303	 0.0706967321	 0.133451
H	-0.4030043092	 1.9496085936	-0.8720109415	 0.123208
H	-0.4645912866	 1.8843672765	 0.9012591464	 0.133457
H	-0.9107598121	-0.3780061908	-0.0993030187	 0.107319
H	 0.657844571	-0.3182461381	-0.9313777895	 0.107331
H	 1.5836359591	-2.3363773355	 4.4382423335	 0.146833
H	 3.1431032878	-2.2727671703	 3.6079291937	 0.14682
H	 2.0632030413	-0.8631985144	 3.5696456464	 0.149328
H	-0.0590024832	-2.7835367789	-0.564369673	 0.128805
45.0403	82.3411	91.1614	131.7062	231.6237	243.7473	265.0565	346.6467	346.8797	490.9497	634.0487	645.4105	682.6179	756.8278	827.0488	881.1742	914.6683	933.7924	960.3972	1014.1075	1063.7374	1077.8713	1133.484	1185.4127	1186.3668	1241.9079	1272.3093	1298.7384	1399.2899	1404.9179	1420.9498	1445.9395	1475.919	1483.4503	1486.5509	1500.0824	1510.9774	1527.8066	1694.1171	2989.9475	3025.8752	3036.3567	3048.9041	3090.3989	3124.7221	3127.2332	3136.1097	3251.3766
CCOC1=C(C)ON=C1	CCOc1c(C)onc1	
InChI=1S/C6H9NO2/c1-3-8-6-4-7-9-5(6)2/h4H,3H2,1-2H3	InChI=1S/C6H9NO2/c1-3-8-6-4-7-9-5(6)2/h4H,3H2,1-2H3
