18
gdb 117310	4.46352	0.81314	0.73226	1.7451	73.34	-0.2295	0.0192	0.2486	1564.5949	0.147717	-472.470183	-472.460431	-472.459487	-472.505683	34.98	
C	-0.7124417215	 1.2107140038	 0.3361714962	-0.385874
C	 0.1313197732	-0.018675871	 0.0375265423	-0.052131
O	-0.6261452288	-1.021118604	-0.6732886789	-0.273125
C	-1.3716074488	-1.8496692658	 0.0842483257	 0.562006
O	-1.4246207898	-1.812531693	 1.2995561838	-0.43124
N	-2.0396752128	-2.7219627177	-0.7275022913	-0.392444
C	-2.8993394417	-3.779028162	-0.3698255709	 0.425073
N	-3.2623924705	-3.8084200672	 0.9502125324	-0.55355
N	-3.266514249	-4.538624796	-1.3306052211	-0.559784
H	-0.0904833237	 1.9804509188	 0.8041258073	 0.122509
H	-1.1379536276	 1.6237155891	-0.5828359086	 0.128304
H	-1.5240872912	 0.9600818835	 1.0230112565	 0.145856
H	 0.9597363653	 0.2173717078	-0.6341770624	 0.117326
H	 0.5251928816	-0.4600452551	 0.9555604263	 0.135115
H	-1.8602254567	-2.6713832821	-1.7187863997	 0.274211
H	-2.7047216249	-3.25684479	 1.5909640426	 0.28088
H	-3.6491461296	-4.6733767818	 1.2870235382	 0.250682
H	-3.9067321034	-5.2588481475	-1.0031078983	 0.206187
54.8227	63.8879	107.9571	132.7142	178.7891	246.2607	345.534	356.6032	405.0594	439.2486	454.939	549.6213	588.4698	637.8143	720.9499	741.7776	773.9021	798.0645	817.5735	878.7355	951.1029	1018.4491	1097.7064	1117.5974	1144.8622	1157.8849	1199.4944	1240.3211	1332.2714	1395.1483	1415.6299	1453.7434	1483.4481	1485.6511	1503.7878	1518.5986	1626.8157	1740.4412	1791.2212	3046.3897	3073.6513	3114.5107	3122.7646	3142.8208	3510.5936	3524.1061	3640.0622	3698.6042
CCOC(=O)NC(N)=N	CCOC(=O)NC(=N)N	
InChI=1S/C4H9N3O2/c1-2-9-4(8)7-3(5)6/h2H2,1H3,(H4,5,6,7,8)	InChI=1S/C4H9N3O2/c1-2-9-4(8)7-3(5)6/h2H2,1H3,(H4,5,6,7,8)
