18
gdb 124999	3.10779	1.19556	0.88229	3.2978	76.09	-0.1946	0.0338	0.2284	1291.5394	0.148364	-435.286066	-435.276459	-435.275515	-435.32061	34.604	
C	-0.1425639172	 1.6021243129	 0.0748039154	-0.529133
C	-0.0209393165	 0.1126980426	-0.0031505075	 0.051108
C	 0.0542279386	-0.7017409917	-1.1194597478	 0.322478
C	 0.0902263834	-0.3991670508	-2.5817971041	-0.195433
O	-0.3957637958	-1.5425310083	-3.2772380284	-0.423362
N	 0.1430451272	-1.974756739	-0.6720421944	-0.258046
N	 0.1135295722	-2.0665641112	 0.6805465925	-0.316236
C	 0.0226003867	-0.8033285195	 1.0834750044	 0.292806
N	-0.0977520061	-0.481100947	 2.4399901215	-0.5898
H	 0.8151319991	 2.0982425119	 0.2836549508	 0.118637
H	-0.522123641	 2.0253609022	-0.8609240045	 0.119042
H	-0.8353273322	 1.8917658763	 0.8727916711	 0.135378
H	-0.5206085731	 0.4930363663	-2.7884193653	 0.108303
H	 1.1195430173	-0.1636245634	-2.898584867	 0.108204
H	-0.1960440885	-1.4329505373	-4.2112030049	 0.294519
H	 0.0964981023	-2.8018541994	-1.240823823	 0.273404
H	 0.0792047775	-1.2931311323	 3.0188618369	 0.246922
H	 0.5098266662	 0.2781050077	 2.7212480746	 0.241208
61.3822	114.7742	144.5044	189.6514	229.4744	241.8182	257.3862	286.3847	334.9218	378.0174	486.6583	535.4959	601.3526	663.4702	701.759	742.1061	773.8833	813.4773	961.2397	1027.5937	1056.4911	1065.0701	1088.1212	1145.4877	1200.3935	1217.3757	1241.8522	1257.6178	1322.7195	1419.982	1428.1173	1472.4128	1483.2585	1499.2767	1513.277	1537.5779	1539.6548	1631.1889	1653.2718	2962.5935	2994.3611	3008.6967	3062.155	3095.3636	3529.8415	3622.5213	3692.4955	3837.5246
CC1=C(CO)NN=C1N	Cc1c(CO)[nH]nc1N	
InChI=1S/C5H9N3O/c1-3-4(2-9)7-8-5(3)6/h9H,2H2,1H3,(H3,6,7,8)	InChI=1S/C5H9N3O/c1-3-4(2-9)7-8-5(3)6/h9H,2H2,1H3,(H3,6,7,8)
