20
gdb 16596	3.30585	1.65097	1.39097	1.5874	74.75	-0.2421	0.0708	0.3129	994.352	0.176654	-348.974811	-348.966409	-348.965465	-349.007081	32.397	
C	-0.0380443884	 1.5300353457	-0.0096445634	-0.416852
C	 0.1142582135	 0.0229359981	-0.0573788994	-0.011016
C	 0.7140744891	-0.7685098045	-1.187097466	-0.075326
C	 1.3909774715	-0.7396307074	 0.1926703774	-0.12629
C	 2.6160273615	-0.0280233731	-0.4017316935	 0.136413
O	 3.8328731499	-0.7307098941	-0.2781221736	-0.431794
C	 1.9273392447	-0.0598500505	-1.8203483816	-0.028737
C	 2.6598296947	-0.8873081464	-2.8705709377	-0.40699
H	 0.8083884766	 2.0560558174	-0.4577576341	 0.123419
H	-0.9400521586	 1.8437523056	-0.5464755937	 0.116085
H	-0.1295532302	 1.8772337776	 1.0252802258	 0.117922
H	-0.7395249215	-0.4949420988	 0.3782122838	 0.085217
H	 0.1708195888	-1.5788429595	-1.6627074532	 0.076351
H	 1.4586281375	-1.5102092706	 0.9540324702	 0.080183
H	 2.8303516397	 0.9702111804	-0.0074501297	 0.080194
H	 3.672023388	-1.652022324	-0.507832509	 0.277818
H	 1.7117344036	 0.9306939146	-2.2381908517	 0.06447
H	 2.831723913	-1.9177186896	-2.5381529418	 0.097656
H	 2.0670381706	-0.9438087421	-3.7895795146	 0.11446
H	 3.6312600959	-0.4488120286	-3.115165854	 0.126817
109.7622	183.581	198.1634	219.9811	252.7135	293.7409	330.3575	364.725	422.6967	549.2539	570.2904	714.3019	762.5212	800.077	826.4264	893.3178	925.6026	947.4649	996.9118	1016.7203	1035.6124	1056.5672	1073.8607	1103.0137	1120.7974	1142.0543	1150.8955	1207.2634	1235.1338	1242.9587	1289.8928	1302.1661	1331.9725	1368.8941	1411.1253	1416.0544	1435.291	1443.8671	1490.5072	1496.0766	1504.1496	1504.9992	3025.6561	3029.364	3034.6185	3057.6102	3088.8926	3090.5437	3107.5971	3113.469	3125.1539	3152.9567	3165.6363	3808.9299
CC1C2C1C(O)C2C	C[C@H]1[C@@H]2[C@H]1[C@@H](O)[C@H]2C	
InChI=1S/C7H12O/c1-3-5-4(2)7(8)6(3)5/h3-8H,1-2H3	InChI=1S/C7H12O/c1-3-5-4(2)7(8)6(3)5/h3-8H,1-2H3/t3-,4-,5-,6-,7-/m0/s1
