16
gdb 52012	2.74547	0.80884	0.65105	2.9928	76.43	-0.2637	-0.0374	0.2263	1623.9297	0.121022	-400.730987	-400.721166	-400.720222	-400.767139	33.589	
O	-0.1237715795	-0.0567926888	-0.0888541862	-0.229564
C	-0.0259369966	 1.1410711524	-0.0496110356	 0.157284
C	 1.2835295073	 1.9014469077	-0.0679216091	-0.296024
C	 1.3306865295	 2.9030074221	-1.230807653	-0.202602
C	 2.6061406019	 3.7943047439	-1.2133502841	-0.326914
C	 2.6694792417	 4.6626622103	-2.3890289901	 0.31092
C	 2.6991865907	 5.3514534203	-3.3711178548	-0.40033
C	 2.6739611701	 4.5833257403	 0.0287642484	 0.299676
N	 2.7079451751	 5.1748278214	 1.0202926401	-0.32235
H	-0.9306781134	 1.7909630879	 0.0034745937	 0.080577
H	 1.3625469265	 2.4468456663	 0.8830789292	 0.150246
H	 2.1041371034	 1.1799516519	-0.1214572298	 0.127947
H	 1.320126944	 2.3756398925	-2.1891151182	 0.138001
H	 0.4530267717	 3.5572433728	-1.2122321703	 0.136785
H	 3.4835441949	 3.132514501	-1.2160135971	 0.162759
H	 2.7343709725	 5.9688367878	-4.2351857631	 0.213587
51.2661	66.7077	100.2392	121.6772	130.7856	215.7882	265.141	329.9056	362.4204	464.5666	525.8928	575.3272	589.3916	654.1071	672.9825	760.1223	819.9076	894.057	990.9109	1014.1009	1038.7113	1092.6309	1108.7961	1189.5722	1256.9835	1294.8615	1312.0029	1341.7433	1375.5809	1430.5985	1466.4206	1492.1753	1840.1905	2250.0886	2363.5593	2861.172	3017.7794	3022.2696	3056.7732	3092.7392	3111.6217	3501.164
O=CCCC(C#C)C#N	O=CCC[C@@H](C#C)C#N	
InChI=1S/C7H7NO/c1-2-7(6-8)4-3-5-9/h1,5,7H,3-4H2	InChI=1S/C7H7NO/c1-2-7(6-8)4-3-5-9/h1,5,7H,3-4H2/t7-/m1/s1
