21
gdb 38164	2.54233	1.86087	1.25156	0.312	87.33	-0.2247	0.0244	0.2491	1059.5386	0.185213	-349.946276	-349.938703	-349.937758	-349.978669	30.906	
C	 0.0151011203	 1.4709188261	 0.0750446638	-0.354218
C	 1.3464732079	 0.7364120821	-0.020756251	-0.138774
C	 2.1809602756	 0.5761505743	 1.1984998938	-0.059099
C	 1.9935293466	-0.4191809402	 2.0680041259	-0.068185
C	 0.95337877	-1.5030684484	 1.8819804158	-0.277011
C	-0.2764947225	-1.017375169	 1.0942180812	-0.057241
C	-0.879722213	-1.9744856637	 0.0160101252	-0.235201
C	-0.5429949106	-0.9394358545	-1.1049122872	-0.322768
C	 0.0556196818	-0.0242511481	-0.031460496	 0.381005
H	-0.2540932486	 1.9129695159	 1.0298759045	 0.1086
H	-0.3104419369	 2.0335423564	-0.7953087267	 0.105224
H	 1.882564325	 0.8532182311	-0.9603643339	 0.084863
H	 2.9592106335	 1.3152984557	 1.3759860921	 0.083016
H	 2.6298189036	-0.4908548866	 2.9465665828	 0.08332
H	 1.4215296914	-2.3453846319	 1.3507586032	 0.106197
H	 0.651487368	-1.905539258	 2.8555390435	 0.099648
H	-1.0282653338	-0.6330272745	 1.79131168	 0.065572
H	-0.3531960253	-2.9278745144	-0.0766755806	 0.09778
H	-1.944772399	-2.1849982592	 0.1349865918	 0.100024
H	 0.1602168467	-1.2930060508	-1.8649391646	 0.09784
H	-1.4179877409	-0.5271894422	-1.6158629435	 0.099407
40.0266	160.1587	284.5663	305.335	363.9278	459.4928	480.0596	500.2882	554.0868	716.9905	728.8991	758.4775	793.6437	813.4746	860.0381	902.6469	925.0049	935.2139	943.8326	981.351	994.49	998.8545	1036.3256	1058.9193	1083.1151	1099.7104	1118.8749	1130.9633	1189.4579	1214.2262	1222.7303	1240.452	1245.8751	1256.9207	1278.0559	1303.9399	1348.194	1355.0334	1398.9235	1427.5643	1475.3533	1481.0484	1485.8504	1499.0617	1705.5257	2993.8067	3036.9138	3045.41	3057.4661	3062.2169	3087.7323	3112.7157	3115.7517	3123.5665	3140.0578	3165.0531	3201.6146
C1C2C=CCC3CCC123	C1[C@H]2C=CC[C@@H]3CC[C@]123	
InChI=1S/C9H12/c1-2-7-4-5-9(7)6-8(9)3-1/h1,3,7-8H,2,4-6H2	InChI=1S/C9H12/c1-2-7-4-5-9(7)6-8(9)3-1/h1,3,7-8H,2,4-6H2/t7-,8-,9-/m1/s1
