14
gdb 132651	3.21379	1.41445	0.98306	2.358	69.53	-0.2084	-0.0124	0.196	1095.7407	0.102817	-474.223618	-474.215958	-474.215014	-474.255394	29.838	
N	-0.0056696363	 1.3408919571	 0.1490751859	-0.55643
C	 0.0019354988	-0.0271246251	 0.065047116	 0.423861
N	-1.1920859589	-0.632947477	 0.0196329065	-0.332888
C	-1.1528631146	-1.9715819033	-0.0085224414	-0.099988
C	 0.0266088586	-2.6714720561	 0.0110862939	 0.160654
F	 0.071055643	-4.0179951919	-0.0254609077	-0.095728
C	 1.2301184168	-1.9463813753	 0.048175673	 0.2897
N	 2.4317957773	-2.5894163844	 0.0955281838	-0.57291
N	 1.2101368644	-0.6152500899	 0.0659100911	-0.381264
H	 0.8522539196	 1.8074108786	-0.0933222342	 0.256753
H	-0.865323654	 1.7909022267	-0.1182252496	 0.25962
H	-2.1001029193	-2.5039573329	-0.0517835825	 0.119955
H	 2.4577343081	-3.5586908936	-0.1722994061	 0.266268
H	 3.2457544766	-2.030442343	-0.1018443188	 0.262397
131.6401	225.4948	277.2542	338.9502	354.7724	388.3409	429.9624	448.419	472.8292	491.0838	499.7286	550.2821	595.9604	735.8511	786.1243	789.5588	815.8389	969.8816	978.6049	1053.5717	1167.1187	1244.0517	1297.5917	1324.247	1395.8703	1486.4	1516.2036	1606.6798	1618.5394	1650.1465	1659.0291	3161.2385	3603.0236	3605.8077	3729.5478	3731.9865
NC1=NC=C(F)C(N)=N1	Nc1ncc(F)c(N)n1	
InChI=1S/C4H5FN4/c5-2-1-8-4(7)9-3(2)6/h1H,(H4,6,7,8,9)	InChI=1S/C4H5FN4/c5-2-1-8-4(7)9-3(2)6/h1H,(H4,6,7,8,9)
