17
gdb 43805	2.42057	1.6889	1.18397	4.2304	73.33	-0.2678	0.0086	0.2764	1063.9003	0.135289	-421.821543	-421.813684	-421.81274	-421.853911	30.252	
O	-0.0858136166	 0.1634867176	-0.447779551	-0.344283
C	 0.0190998555	 1.2811781102	-0.0551093293	 0.451559
O	-0.9553891069	 2.0776694795	 0.5176250449	-0.304068
C	-0.0179544098	 3.1782955706	 0.6738827319	 0.419919
C	-0.4429499652	 4.5884398902	 0.4812411513	-0.333426
C	-0.0596123553	 4.0651573644	 1.864671476	-0.333441
C	 1.0736827924	 2.3436292571	 0.0559414436	 0.012089
C	 2.5216045362	 2.1552787833	 0.4139241288	-0.316384
C	 2.145417849	 2.67038105	-0.946387183	-0.316452
H	 0.2350377268	 5.2669987517	-0.0264004502	 0.122596
H	-1.4948859528	 4.7689017756	 0.2897806711	 0.138531
H	-0.8611291105	 3.9037800915	 2.5769368433	 0.138534
H	 0.8802587407	 4.3862284811	 2.3021254808	 0.122587
H	 2.947693218	 2.8516766344	 1.1284472853	 0.127456
H	 2.8761335363	 1.1342357451	 0.5025863982	 0.143701
H	 2.2399811467	 2.0053121696	-1.7977531409	 0.143675
H	 2.3136110955	 3.7198313583	-1.1641638907	 0.127408
108.0592	176.8529	177.2892	197.4584	255.9086	332.3415	516.6003	516.9286	542.2169	625.0712	729.5292	756.4191	774.4988	823.0699	855.2282	875.8561	935.6993	955.2665	961.0827	1008.907	1028.7975	1041.954	1049.5629	1074.9932	1076.7534	1085.2246	1182.392	1194.9757	1207.8365	1239.113	1355.1983	1433.4678	1448.874	1458.9242	1492.3604	1521.3352	1939.6794	3131.9724	3133.9316	3134.2837	3135.9645	3215.7424	3217.3122	3228.8714	3231.2994
O=C1OC2(CC2)C11CC1	O=C1OC2(CC2)C21CC2	
InChI=1S/C7H8O2/c8-5-6(1-2-6)7(9-5)3-4-7/h1-4H2	InChI=1S/C7H8O2/c8-5-6(1-2-6)7(9-5)3-4-7/h1-4H2
