17
gdb 107895	2.31407	1.9768	1.24586	1.2606	67.27	-0.2321	0.041	0.2732	990.0323	0.135576	-458.85821	-458.850617	-458.849673	-458.89018	30.054	
O	 0.4754550179	 0.3872516719	 0.8723710837	-0.399849
C	-0.1897716547	 0.1591864751	-0.3705445717	-0.233209
C	-1.51040794	-0.5367528543	-0.1718171512	 0.436477
O	-2.4271299785	-0.6159263526	-1.3009978959	-0.361671
C	-3.1252073159	-1.2784924744	-0.1976542642	 0.072253
C	-1.8556887727	-1.9730656395	 0.3723245255	-0.188912
C	-2.1396613246	-1.4390692594	 1.7944719458	 0.137017
O	-1.0823393997	-1.2322893382	 2.6826544205	-0.454188
C	-2.6396052225	-0.2796068684	 0.8953126789	-0.206795
H	 0.0621873294	 1.1487505919	 1.2938691691	 0.30145
H	-0.3584570114	 1.0970448387	-0.9154845543	 0.123171
H	 0.4806367594	-0.4614932007	-0.9723106006	 0.136036
H	-4.1193060244	-1.6830590017	-0.3772490329	 0.101565
H	-1.4201469171	-2.9152626044	 0.0390972263	 0.085528
H	-2.9213006292	-1.9671107833	 2.3474547778	 0.086986
H	-0.3489189129	-0.8319283159	 2.1890347997	 0.284792
H	-3.0955745732	 0.6781734552	 1.1503312937	 0.079349
92.084	200.849	239.1019	261.6898	316.5106	363.8463	435.8876	552.5158	554.1838	652.3548	675.5095	732.3387	787.1071	827.827	847.1433	862.9612	910.322	930.4965	980.9253	1034.9978	1050.9295	1074.7205	1082.2152	1098.726	1114.8882	1151.0305	1171.8076	1202.3182	1246.7865	1258.9383	1261.6437	1345.2864	1365.6157	1387.1332	1401.1074	1483.5037	1496.6021	3026.4529	3077.5984	3093.2871	3110.1017	3120.7125	3143.1065	3673.7862	3814.232
OCC12OC3C1C(O)C23	OC[C@@]12O[C@H]3[C@@H]1[C@@H](O)[C@@H]23	
InChI=1S/C6H8O3/c7-1-6-2-4(8)3(6)5(2)9-6/h2-5,7-8H,1H2	InChI=1S/C6H8O3/c7-1-6-2-4(8)3(6)5(2)9-6/h2-5,7-8H,1H2/t2-,3+,4+,5-,6+
