15
gdb 29549	3.35329	1.59347	1.08844	1.7627	73.68	-0.218	-0.0108	0.2072	1033.1258	0.116284	-416.843486	-416.836699	-416.835755	-416.874437	27.153	
N	-0.0030148278	 1.3560836585	 0.128427786	-0.572735
C	 0.0001890446	-0.016443323	 0.0344825571	 0.253348
N	-1.0777881387	-0.7273254524	 0.0185748362	-0.324044
C	-0.7180577639	-2.156268497	-0.0021461525	-0.288914
C	 0.788751021	-2.1822121095	-0.0202170114	 0.188499
C	 1.9079149551	-2.9415556681	-0.0427509599	-0.163975
O	 3.013588358	-2.1269999145	-0.0275202584	-0.151527
C	 2.5841185271	-0.8346327465	 0.0068901857	-0.189862
C	 1.225803356	-0.8210932725	 0.0111879915	 0.20648
H	 0.771730941	 1.8343962126	-0.3044748971	 0.251753
H	-0.9013887176	 1.7757284665	-0.0648077208	 0.257149
H	-1.1406190629	-2.6603406239	 0.8764708568	 0.125479
H	-1.1667760291	-2.6356791825	-0.881248474	 0.123935
H	 2.1194144854	-3.9971775377	-0.0681288784	 0.143063
H	 3.3601481917	-0.08805118	 0.0309038594	 0.141352
189.2404	222.0545	275.8185	292.0894	394.0719	520.3857	554.4259	602.812	621.068	639.8005	650.2737	725.8699	755.7055	772.4944	789.8435	932.6422	966.9435	984.6092	1052.6804	1081.9791	1141.7893	1162.4814	1186.8889	1244.8775	1264.4066	1292.1901	1393.4427	1422.3461	1474.393	1597.1439	1618.2481	1660.5514	1679.5916	3024.392	3047.3772	3275.3629	3281.1039	3569.8891	3681.6363
NC1=NCC2=COC=C12	NC1=NCc2cocc12	
InChI=1S/C6H6N2O/c7-6-5-3-9-2-4(5)1-8-6/h2-3H,1H2,(H2,7,8)	InChI=1S/C6H6N2O/c7-6-5-3-9-2-4(5)1-8-6/h2-3H,1H2,(H2,7,8)
