19
gdb 95423	2.94385	1.12555	0.8423	0.7965	87.22	-0.2269	-0.0146	0.2123	1348.3312	0.159164	-385.88038	-385.871577	-385.870632	-385.91362	34.089	
O	-0.0454911181	 1.4380984182	-0.0268497076	-0.440969
C	 0.014139341	 0.0188174923	-0.0108522283	 0.128363
C	-1.4169565381	-0.5017474079	 0.0586945557	-0.203425
C	-1.4316916041	-2.0325587299	 0.169565593	-0.268533
C	-0.4497464613	-2.6906921889	-0.7582778509	-0.121978
C	 0.5220360215	-2.0327278346	-1.4121722358	 0.128791
C	 0.7214515316	-0.5338100129	-1.254036847	-0.332841
C	 1.4142650844	-2.7076679936	-2.2925193981	 0.217257
C	 2.1961125318	-3.2284844667	-3.0477217407	-0.409023
H	 0.854547654	 1.7750463043	-0.0835844889	 0.280404
H	 0.5561280382	-0.3293832766	 0.885244599	 0.067411
H	-1.9333353997	-0.0432072681	 0.9070817291	 0.104406
H	-1.9431889077	-0.184111434	-0.849469858	 0.108418
H	-1.2092990358	-2.3418856772	 1.202305646	 0.116089
H	-2.439663771	-2.4164613635	-0.0318985494	 0.112831
H	-0.5387475871	-3.7645612405	-0.8966709582	 0.094316
H	 0.3361890612	-0.0092863872	-2.1385564303	 0.12405
H	 1.7957698661	-0.3154200016	-1.2112182077	 0.103349
H	 2.874321283	-3.7045422017	-3.711357602	 0.191083
93.1435	140.1196	171.2461	218.4812	285.7815	341.5977	361.8227	398.8218	433.9771	479.8042	547.9148	554.3947	588.7344	615.2745	634.6253	798.2778	855.9616	876.3138	907.3882	952.4321	959.6975	1044.8581	1079.3295	1089.8303	1101.2936	1151.8436	1167.7467	1209.7206	1251.4017	1288.9166	1315.2798	1341.8041	1363.8788	1367.6613	1389.1194	1441.1786	1474.2789	1479.4029	1501.7308	1692.0752	2217.7953	2950.951	2994.9203	3019.3368	3034.0678	3047.1519	3055.2362	3091.5611	3169.3164	3503.8706	3813.7205
OC1CCC=C(C1)C#C	O[C@H]1CCC=C(C1)C#C	
InChI=1S/C8H10O/c1-2-7-4-3-5-8(9)6-7/h1,4,8-9H,3,5-6H2	InChI=1S/C8H10O/c1-2-7-4-3-5-8(9)6-7/h1,4,8-9H,3,5-6H2/t8-/m0/s1
