18
gdb 106339	5.11458	0.94865	0.92613	4.3	78.71	-0.2699	0.0252	0.295	1290.6776	0.147721	-401.909681	-401.901297	-401.900353	-401.942926	31.432	
C	-0.0190460453	 1.3417961205	 0.0131098729	-0.268364
O	 0.0421948616	-0.0723100387	-0.0725872653	-0.283744
C	 0.6797518791	-0.5467657681	-1.1851483214	 0.424825
C	 2.1739044818	-0.3443932091	-1.6172768196	-0.323171
C	 1.5275368459	-1.3070225467	-2.66244559	 0.216743
C	 0.8546443994	-2.0566521171	-1.4667854217	-0.309426
C	 0.2848553419	-0.3627386056	-2.6919315663	-0.323167
C	 2.1788910426	-1.8992086298	-3.7972792769	 0.168542
N	 2.7037527547	-2.3745792258	-4.7117279406	-0.356011
H	 0.984336439	 1.78724581	 0.0487965993	 0.119247
H	-0.5681049892	 1.7735700037	-0.8345869822	 0.119235
H	-0.5474120216	 1.5793230865	 0.9379593917	 0.138286
H	 2.4646115171	 0.6382428253	-1.9943958473	 0.109875
H	 2.937261483	-0.7820816709	-0.9707909954	 0.114099
H	 1.527212535	-2.6063601579	-0.8055196642	 0.114528
H	-0.0492554031	-2.6216949858	-1.7023444354	 0.114532
H	-0.6543939379	-0.816952321	-3.0139963382	 0.114099
H	 0.4460617562	 0.6186340006	-3.1427429694	 0.109871
72.5073	123.9464	143.169	186.6866	236.5431	382.3084	414.4409	515.2298	532.2393	545.8778	571.3795	572.1973	636.819	779.2724	816.6206	933.0318	953.1666	990.8574	1037.4451	1039.9498	1056.8942	1123.8972	1129.0701	1132.4401	1153.3564	1165.9119	1167.7236	1171.8797	1181.2117	1236.5136	1278.5229	1353.7225	1486.0498	1489.2096	1494.3339	1496.5588	1505.0052	1562.1234	2353.9577	2999.2981	3054.9902	3065.8752	3066.9599	3074.4416	3133.1257	3138.117	3142.3868	3144.9277
COC12CC(C1)(C2)C#N	CO[C@@]12C[C@@](C1)(C2)C#N	
InChI=1S/C7H9NO/c1-9-7-2-6(3-7,4-7)5-8/h2-4H2,1H3	InChI=1S/C7H9NO/c1-9-7-2-6(3-7,4-7)5-8/h2-4H2,1H3/t6-,7+
