19
gdb 61927	2.50833	1.08189	0.89864	2.8163	75.71	-0.2459	0.0021	0.248	1348.9534	0.158516	-419.178426	-419.168835	-419.16789	-419.214182	34.097	
C	 0.1412259748	 1.2040540014	-0.4942128819	-0.399681
C	 0.1817033735	-0.1915044605	 0.1309434986	 0.077009
O	 0.5113076365	-0.1150297224	 1.52810808	-0.250368
C	 1.875109789	 0.0148232247	 1.8272078384	-0.196496
C	 2.6498072726	-1.2064940377	 1.5257580443	 0.254698
N	 3.2483076315	-2.1641916734	 1.2821061655	-0.300189
C	-1.1609670871	-0.8935105097	 0.0281216378	 0.015117
C	-1.5254263469	-2.0022031909	 0.9371182633	-0.24445
N	-2.192308332	-0.6885253043	 1.0545241312	-0.322537
H	 1.1054775954	 1.7149506148	-0.412653384	 0.115784
H	-0.1021327908	 1.131349662	-1.5585243237	 0.129659
H	-0.6214667028	 1.8174426675	-0.0062305219	 0.13746
H	 0.9361954206	-0.8074736298	-0.3808328767	 0.102757
H	 2.3446189183	 0.857513621	 1.3001567226	 0.144789
H	 1.9467294787	 0.217820372	 2.9001061695	 0.163851
H	-1.5496399565	-0.9063014185	-0.9885584	 0.093145
H	-2.1589065799	-2.8082637793	 0.578746939	 0.11806
H	-0.8076313482	-2.2808483694	 1.701894786	 0.122062
H	-1.7721979467	-0.1894466374	 1.836233882	 0.23933
27.7214	81.7317	92.8836	193.0826	223.756	225.279	261.6742	337.4403	370.5562	396.0856	486.4142	558.1438	653.8903	752.8811	842.926	863.2682	901.2342	931.4398	958.7525	989.2674	1016.0895	1056.9291	1102.1361	1120.303	1128.2011	1150.2761	1163.3449	1203.4704	1274.7643	1290.5994	1309.9228	1350.4149	1378.33	1398.8021	1409.5365	1424.2142	1472.5946	1493.2803	1496.3864	1504.6524	2358.1423	2998.1902	3014.4818	3042.3164	3089.4845	3109.9923	3119.1331	3122.8548	3126.9123	3209.8702	3496.5812
CC(OCC#N)C1CN1	C[C@@H](OCC#N)[C@H]1CN1	
InChI=1S/C6H10N2O/c1-5(6-4-8-6)9-3-2-7/h5-6,8H,3-4H2,1H3	InChI=1S/C6H10N2O/c1-5(6-4-8-6)9-3-2-7/h5-6,8H,3-4H2,1H3/t5-,6-/m1/s1
