19
gdb 32832	5.54651	0.73671	0.68721	1.3801	79.88	-0.2102	0.0252	0.2354	1659.4868	0.158657	-423.058958	-423.0495	-423.048556	-423.094066	33.817	
C	 0.139530586	 1.5571441135	-0.1231459959	-0.500125
C	 0.0101940976	 0.0723598505	 0.0165868759	 0.268439
C	-0.2827338436	-0.8266921033	-0.959042729	-0.117647
O	-0.312485361	-2.096298938	-0.4635253351	-0.187669
C	-0.0301655436	-2.0133992883	 0.870574578	 0.372368
C	-0.0157861183	-3.2907914444	 1.6336840904	-0.294878
C	-1.3938801639	-3.9530812939	 1.7219425301	-0.067701
O	-1.2377447417	-5.1558560542	 2.4576839116	-0.419289
C	 0.1726558644	-0.7125289949	 1.2122761284	-0.386888
H	 1.1405021445	 1.9019960417	 0.1604858725	 0.129375
H	-0.0415442194	 1.8744401157	-1.1539805307	 0.123397
H	-0.5750381608	 2.0856479219	 0.5182805228	 0.128407
H	-0.4861377665	-0.7292885865	-2.0132387376	 0.126195
H	 0.6769321222	-4.006366552	 1.1742159898	 0.123999
H	 0.3489303548	-3.0941143839	 2.6460834884	 0.120799
H	-2.0991062676	-3.2652267747	 2.2142031992	 0.090209
H	-1.7717343458	-4.1446577574	 0.7068495863	 0.101183
H	-2.0915410984	-5.5959100364	 2.4994337741	 0.286974
H	 0.4143124711	-0.3467582655	 2.1990905607	 0.102852
51.1397	90.2929	99.9181	137.5941	233.3415	251.2493	260.5959	345.0303	360.2841	404.784	618.1483	627.2931	683.9922	737.7945	777.1801	795.6092	815.772	951.9961	986.4639	1008.0125	1018.6861	1058.4002	1065.2058	1079.7107	1162.7723	1166.7637	1207.3179	1239.6379	1252.3628	1295.2237	1312.3019	1339.5623	1400.5585	1421.9411	1454.0982	1478.1053	1483.2371	1499.012	1529.0748	1588.2753	1663.9435	2977.1279	3013.0054	3027.9447	3038.4622	3077.8776	3098.6468	3108.9417	3245.1795	3269.412	3832.9922
CC1=COC(CCO)=C1	Cc1coc(CCO)c1	
InChI=1S/C7H10O2/c1-6-4-7(2-3-8)9-5-6/h4-5,8H,2-3H2,1H3	InChI=1S/C7H10O2/c1-6-4-7(2-3-8)9-5-6/h4-5,8H,2-3H2,1H3
