22
gdb 95580	2.27436	1.56411	1.12442	2.3783	82.69	-0.2381	0.0201	0.2582	1181.3225	0.195032	-404.363459	-404.354258	-404.353314	-404.397267	35.096	
C	-0.1942374831	 1.5012499667	-0.0002369642	-0.413928
C	 0.0732646065	-0.0117692355	-0.0098047458	 0.017811
C	 0.6946144331	-0.4614844814	-1.3368889684	-0.214193
C	 0.6860238035	-1.9787715993	-1.5531322898	-0.1572
N	 1.4813292499	-2.8177086808	-0.6710525294	-0.243006
C	 1.4957813029	-2.7249471768	 0.5851819829	 0.110932
O	 0.8962976518	-1.856862784	 1.44966074	-0.250956
C	 0.8920024904	-0.4303607977	 1.2242069445	 0.134858
C	 2.3279648845	 0.0952976831	 1.2845363254	-0.411921
H	 0.7173633887	 2.0769568734	-0.1924512145	 0.12052
H	-0.9161749858	 1.765229762	-0.7789404792	 0.118692
H	-0.6041734102	 1.8326426566	 0.959911516	 0.114028
H	-0.8948153284	-0.522170553	 0.0946487904	 0.079077
H	 0.1273643092	-0.0115035582	-2.1616254292	 0.095339
H	 1.717709861	-0.0776945775	-1.4314197202	 0.103025
H	-0.3548591764	-2.3337305288	-1.4971820235	 0.109352
H	 1.02021803	-2.1854413013	-2.5756789563	 0.103129
H	 2.0255200654	-3.4890842632	 1.1574178539	 0.111008
H	 0.3563272336	-0.0616656236	 2.1055313966	 0.08948
H	 2.9423653894	-0.3055464377	 0.4743037817	 0.134689
H	 2.3484993946	 1.186661616	 1.2234517408	 0.122097
H	 2.7836218496	-0.200842629	 2.2330078284	 0.127167
64.2088	109.9728	204.0943	225.8908	241.4859	283.7604	310.9332	325.2879	385.2222	400.4148	508.434	552.515	578.0341	731.3798	806.386	833.692	839.7771	905.2255	956.3751	973.1504	986.6775	992.6055	1034.0114	1059.3012	1088.5934	1130.6281	1141.6109	1156.8676	1202.3858	1226.8603	1290.7103	1331.7711	1356.3845	1361.3384	1386.1367	1389.7392	1405.4232	1411.7749	1424.7447	1433.6086	1478.1663	1488.4619	1490.466	1498.5187	1504.2518	1509.8486	1753.3904	2990.0195	3004.3278	3023.3377	3031.2657	3048.9458	3051.5373	3055.0319	3064.2378	3097.4526	3104.266	3115.9905	3123.4117	3128.593
CC1CCN=COC1C	C[C@H]1CCN=CO[C@H]1C	
InChI=1S/C7H13NO/c1-6-3-4-8-5-9-7(6)2/h5-7H,3-4H2,1-2H3	InChI=1S/C7H13NO/c1-6-3-4-8-5-9-7(6)2/h5-7H,3-4H2,1-2H3/t6-,7-/m0/s1
