18
gdb 14557	3.39174	1.75004	1.43753	0.5803	67.27	-0.2253	0.0654	0.2907	934.1058	0.152644	-384.88802	-384.880023	-384.879079	-384.92015	30.494	
C	 0.0492879211	 1.4992567212	 0.1972449319	-0.400151
C	 0.0225601571	-0.0039236388	-0.1088328963	-0.24247
C	-1.3703333398	-0.5902926469	-0.0271241872	 0.374911
O	-2.3300438533	 0.009262511	-0.8652634647	-0.47452
C	-1.6857455864	-2.0692321025	 0.0790051728	-0.176692
C	-0.7312341715	-2.7571048557	 1.043421382	-0.106005
O	-0.9807752486	-1.7561119875	 2.0721219919	-0.285962
C	-1.9687719669	-1.1365192392	 1.2444192146	 0.020226
H	 1.0705761435	 1.8881939489	 0.1550935563	 0.118888
H	-0.5426350085	 2.0670418732	-0.5290354282	 0.11142
H	-0.3440046957	 1.7059136676	 1.1987323326	 0.121983
H	 0.4253152298	-0.1856861078	-1.1127746648	 0.101461
H	 0.6685124473	-0.5252739813	 0.6029348165	 0.118602
H	-2.5060157546	 0.8941402213	-0.5272737527	 0.287369
H	-2.3623331652	-2.5435520104	-0.6180923789	 0.107624
H	-1.0858914209	-3.7388866388	 1.3764568141	 0.113412
H	 0.3283511168	-2.8214021725	 0.7703786197	 0.107216
H	-2.8887053043	-0.7893992218	 1.7026136103	 0.102689
79.0598	179.7014	210.5382	259.5598	281.8035	311.612	370.6762	408.8024	497.6243	522.6177	686.6912	766.3741	793.3066	828.414	912.7768	940.8212	955.3945	989.759	1005.3217	1016.4372	1041.365	1073.7332	1093.6903	1111.184	1158.7476	1183.116	1229.3975	1271.1042	1299.2283	1313.2586	1339.1386	1368.2994	1405.5352	1441.6222	1470.9853	1502.463	1511.4362	1519.1591	3026.486	3031.0225	3035.7309	3073.3158	3085.6573	3106.6496	3108.6992	3169.6534	3213.6686	3801.5147
CCC1(O)C2COC12	CC[C@@]1(O)[C@H]2CO[C@@H]12	
InChI=1S/C6H10O2/c1-2-6(7)4-3-8-5(4)6/h4-5,7H,2-3H2,1H3	InChI=1S/C6H10O2/c1-2-6(7)4-3-8-5(4)6/h4-5,7H,2-3H2,1H3/t4-,5+,6+/m0/s1
