20
gdb 99296	5.24094	0.61742	0.5782	1.7581	77.85	-0.2457	0.034	0.2796	1924.0367	0.169432	-440.297237	-440.286907	-440.285963	-440.334753	35.335	
C	 0.2694926583	 1.3732528374	 0.2266542917	-0.333633
N	 0.4552536889	-0.048919126	 0.0156800941	-0.313792
C	 0.3105622858	-0.6384354262	-1.2061400394	 0.416235
O	 0.0336159973	-0.015097151	-2.2170967451	-0.378798
C	 0.4970048599	-2.1541372949	-1.214089624	-0.312289
C	 1.1828106211	-2.6342059584	-2.4992699299	-0.20445
C	 1.205607779	-4.1374057169	-2.6000230678	 0.089617
C	 2.3501388795	-4.8758214863	-3.1447717887	-0.180208
O	 2.1206958473	-4.8233829495	-1.7351600096	-0.242091
H	 1.1849381448	 1.8446441223	 0.6014598659	 0.125178
H	 0.0125890343	 1.8116787756	-0.7382557791	 0.17188
H	-0.541320974	 1.5699257257	 0.9371677813	 0.124739
H	 0.6974411652	-0.6277630874	 0.8021342515	 0.245635
H	 1.0559696284	-2.4962376876	-0.3365100618	 0.111083
H	-0.5043206794	-2.6007341998	-1.1439641929	 0.127257
H	 0.6527790559	-2.2073237434	-3.3568632267	 0.131661
H	 2.2100728057	-2.2550028708	-2.5345092409	 0.105882
H	 0.2251635174	-4.6159684078	-2.659272262	 0.089259
H	 2.1996252055	-5.8499512344	-3.6083760313	 0.113461
H	 3.2220346592	-4.3258360007	-3.4972434754	 0.113375
30.386	53.0305	80.7379	82.1748	130.1779	170.3588	236.9785	288.4897	371.3291	423.4057	460.113	484.3596	631.2015	708.9648	785.155	803.5123	872.0969	905.5046	950.3263	995.919	1035.464	1082.3277	1103.2199	1118.0887	1154.8656	1159.3008	1167.4648	1172.5952	1206.08	1237.0965	1284.7385	1296.4706	1328.2348	1383.6663	1438.0201	1451.1227	1464.0164	1481.9777	1492.8699	1500.8364	1531.9121	1560.0646	1775.4542	3021.833	3026.8325	3047.8831	3070.0418	3078.1515	3079.0521	3083.1172	3102.484	3154.2335	3166.6019	3651.7914
CNC(=O)CCC1CO1	CNC(=O)CC[C@H]1CO1	
InChI=1S/C6H11NO2/c1-7-6(8)3-2-5-4-9-5/h5H,2-4H2,1H3,(H,7,8)	InChI=1S/C6H11NO2/c1-7-6(8)3-2-5-4-9-5/h5H,2-4H2,1H3,(H,7,8)/t5-/m0/s1
