17
gdb 36545	3.81161	0.95848	0.89135	3.9043	77.27	-0.2275	0.0457	0.2732	1346.9574	0.136487	-417.982654	-417.973974	-417.973029	-418.017265	31.479	
C	 0.1748019116	-1.0807210416	-0.3797589487	-0.485823
C	 0.1400241527	 0.086726384	-0.0957490716	 0.340637
C	 0.099924629	 1.5090650586	 0.2530034761	-0.309855
N	 1.4168679979	 2.1421432875	 0.1889795845	-0.37616
C	 1.7657938288	 2.6568289103	-0.9114066991	 0.50849
N	 2.9545032979	 3.3361195048	-1.1291076103	-0.358851
C	 3.2062948408	 3.4176702334	-2.5591698444	-0.183868
C	 1.7581955521	 3.3995813934	-3.0698408186	-0.081033
O	 1.0421556903	 2.6579467805	-2.0720137663	-0.247282
H	 0.2038935829	-2.1118447144	-0.6300325083	 0.189955
H	-0.6350200276	 2.0091296146	-0.3938432786	 0.128968
H	-0.2653642167	 1.6062276342	 1.2823473871	 0.12717
H	 3.7033372255	 3.1051249276	-0.4950313453	 0.25949
H	 3.7297419692	 4.3379252999	-2.831573096	 0.122136
H	 3.7780401748	 2.5605576442	-2.9441596488	 0.114356
H	 1.3415510103	 4.4114761846	-3.1317527787	 0.122851
H	 1.6354405505	 2.8966075984	-4.0303865332	 0.128818
25.4132	90.5592	158.656	211.9075	220.8134	283.1673	329.2956	446.3651	535.5562	597.4033	608.7422	643.3015	682.6752	730.0984	735.7811	888.5087	912.8161	936.7896	955.6553	1007.2282	1047.9628	1070.2696	1109.5777	1142.2907	1216.2693	1237.4802	1249.5233	1283.8271	1342.6651	1360.4915	1415.0369	1437.4953	1481.8834	1516.2633	1530.5092	1794.1089	2234.7056	2995.4825	3001.3557	3041.6881	3044.866	3087.5722	3121.6368	3507.4832	3639.7249
C#CCN=C1NCCO1	C#CCN=C1NCCO1	
InChI=1S/C6H8N2O/c1-2-3-7-6-8-4-5-9-6/h1H,3-5H2,(H,7,8)	InChI=1S/C6H8N2O/c1-2-3-7-6-8-4-5-9-6/h1H,3-5H2,(H,7,8)
