21
gdb 84100	2.55276	1.52198	1.09883	1.7433	84.46	-0.2308	0.013	0.2438	1194.1961	0.180998	-387.099529	-387.090256	-387.089312	-387.132869	35.529	
C	-0.0591831621	 1.6008343602	 0.0920259052	-0.391848
C	 0.0069465121	 0.0685237216	 0.0054433979	-0.061108
C	 0.7768302232	-0.4448066052	-1.1981969359	-0.184924
C	 1.774806871	-1.2752376936	-0.8788446144	 0.276805
C	 2.739080234	-1.9476286997	-1.8043459798	-0.504553
C	 1.8393130707	-1.4278384126	 0.6220990863	 0.324119
C	 2.407279223	-2.652462335	 1.2824090271	-0.500321
O	 2.136294984	-0.1609958108	 1.2740377321	-0.302109
C	 0.7690769763	-0.575386276	 1.1636438673	-0.033185
H	 0.9485521772	 2.0124814366	 0.1905541091	 0.136821
H	-0.521794753	 2.0256378234	-0.8044819793	 0.110809
H	-0.6491530901	 1.9206996704	 0.9570786491	 0.112515
H	-1.0191887495	-0.3278629234	-0.0052298077	 0.078577
H	 0.5524390647	-0.1083746398	-2.206082461	 0.088114
H	 2.5205357487	-1.7061315376	-2.8479389788	 0.124868
H	 3.7718448171	-1.641895784	-1.5940591733	 0.13331
H	 2.708294278	-3.0390929162	-1.697315621	 0.125327
H	 3.4706026088	-2.7688160093	 1.0458563119	 0.127665
H	 2.3092523489	-2.5780409669	 2.3679804506	 0.1314
H	 1.8881692015	-3.5557765551	 0.9441081354	 0.123053
H	 0.2702772257	-0.777009817	 2.1093647792	 0.084666
135.5755	148.8043	186.1348	197.2243	228.5904	233.1673	248.4965	295.2771	414.0413	432.7088	527.9666	552.2361	603.6561	665.2925	718.185	795.8271	857.52	867.5168	889.2514	937.8855	991.4865	1019.0955	1033.5566	1048.599	1070.483	1098.729	1114.8369	1124.8778	1151.0806	1239.9615	1286.3096	1316.4718	1331.1136	1353.0307	1398.9706	1406.9949	1415.0812	1443.3418	1478.1089	1482.6637	1489.0348	1494.7251	1498.228	1504.2596	1706.7738	2996.1248	3018.834	3034.7058	3037.0268	3065.2731	3095.0193	3101.5305	3111.3983	3124.4695	3124.8206	3132.0692	3174.6078
CC1C=C(C)C2(C)OC12	C[C@H]1C=C(C)[C@@]2(C)O[C@@H]12	
InChI=1S/C8H12O/c1-5-4-6(2)8(3)7(5)9-8/h4-5,7H,1-3H3	InChI=1S/C8H12O/c1-5-4-6(2)8(3)7(5)9-8/h4-5,7H,1-3H3/t5-,7-,8+/m0/s1
