21
gdb 96426	1.84416	1.80223	1.16988	2.8076	78.38	-0.234	-0.0262	0.2078	1154.4789	0.182889	-424.245628	-424.236797	-424.235853	-424.279036	33.685	
C	 0.0169668245	 1.5516440275	-0.0083024687	-0.422797
C	 0.0892739194	 0.0209123652	-0.0142157238	 0.011134
C	 0.7408032155	-0.5360691364	-1.289765012	-0.204859
C	 0.7602669509	-2.0690814829	-1.2529647564	-0.214412
C	 1.4351469057	-2.5527156636	 0.0289462857	-0.073231
O	 0.8258001028	-1.9894777888	 1.19390912	-0.256962
C	 0.7912975882	-0.582538435	 1.2353932018	 0.005861
C	 2.1510844653	 0.0470527628	 1.5237163081	 0.151788
O	 3.207962169	-0.5294972296	 1.5007856385	-0.248629
H	 0.9998532532	 2.0105093385	-0.158138886	 0.123023
H	-0.6302082802	 1.899122158	-0.819908071	 0.121552
H	-0.3947789662	 1.9369946452	 0.9310182402	 0.116056
H	-0.9364004275	-0.369121591	 0.0292597637	 0.087832
H	 0.1966041078	-0.1737512601	-2.169385704	 0.095817
H	 1.7677355193	-0.1535535372	-1.3763642042	 0.103719
H	-0.2680365735	-2.4501020007	-1.2898870173	 0.100424
H	 1.2906465331	-2.4766812666	-2.1209370624	 0.096803
H	 1.3289328449	-3.6344468567	 0.1491489892	 0.105378
H	 2.5044050844	-2.3128358172	 0.0153425411	 0.120725
H	 0.1784372895	-0.3304413977	 2.1149901791	 0.10096
H	 2.0956066637	 1.1254936061	 1.7995726281	 0.079819
81.7133	113.0493	204.1645	229.8554	276.0925	281.6271	310.8637	345.3653	426.9915	439.9087	516.844	568.0848	730.4565	777.048	833.0118	872.3367	883.6789	915.4276	938.5467	987.1761	1010.766	1022.6133	1052.7478	1110.3889	1132.8457	1158.8482	1192.0153	1208.7154	1250.2895	1287.6396	1302.7726	1329.6756	1346.3438	1377.3313	1384.2789	1391.0212	1407.467	1414.6943	1428.1382	1481.7814	1492.4866	1496.5706	1504.5103	1514.4668	1830.9477	2862.7969	2991.8744	3008.6544	3018.982	3026.9574	3030.261	3044.6233	3061.6059	3075.2687	3096.4664	3098.4716	3101.3392
CC1CCCOC1C=O	C[C@H]1CCCO[C@H]1C=O	
InChI=1S/C7H12O2/c1-6-3-2-4-9-7(6)5-8/h5-7H,2-4H2,1H3	InChI=1S/C7H12O2/c1-6-3-2-4-9-7(6)5-8/h5-7H,2-4H2,1H3/t6-,7-/m0/s1
