23
gdb 58589	2.20526	1.516	1.24509	2.1867	80.31	-0.2535	0.0728	0.3263	1162.6327	0.205922	-425.436069	-425.426482	-425.425538	-425.470058	37.082	
C	 0.1483516194	 1.4400043638	 0.2313388734	-0.414972
C	-0.1218654119	-0.0664343594	 0.1451787131	 0.118544
O	 0.3653345363	-0.7190908324	 1.3136590904	-0.456766
C	-1.5966573363	-0.4599939684	-0.1644621038	 0.266279
C	-2.0540375264	 0.1255717201	-1.5047821439	-0.463367
C	-1.7308118699	-2.0118907777	-0.1166899583	-0.269751
C	-2.2652877147	-2.3150251106	 1.3035675123	-0.087168
O	-2.3316508782	-1.0603406886	 1.9941961234	-0.265074
C	-2.5369333413	-0.0672695515	 0.9944805546	-0.132063
H	 1.2033013625	 1.5925435716	 0.4734066552	 0.126805
H	-0.0630877003	 1.9529575175	-0.7115815641	 0.111303
H	-0.4417301335	 1.9170535134	 1.0211698047	 0.112515
H	 0.4854472092	-0.4676077378	-0.6784963557	 0.076427
H	-0.3375944158	-0.689341477	 1.9778779653	 0.289318
H	-1.3787901065	-0.1677157421	-2.3158331655	 0.120139
H	-3.0562672714	-0.233627535	-1.7608013215	 0.113692
H	-2.0910776486	 1.2190019839	-1.484419212	 0.120784
H	-2.4343733835	-2.3594564471	-0.8781720847	 0.095129
H	-0.7703965424	-2.4978982009	-0.2971078378	 0.12104
H	-3.2675860812	-2.7642146621	 1.2672659677	 0.097532
H	-1.6118866254	-2.9717796955	 1.8822109043	 0.118329
H	-2.3265854362	 0.9056813524	 1.4450783564	 0.112367
H	-3.5860531742	-0.0672630567	 0.6552084465	 0.088957
74.3818	98.6823	203.8794	226.685	238.4316	251.0145	315.2376	328.9319	350.7244	400.4976	464.2512	521.4092	542.9038	581.7905	703.5369	754.9787	816.3925	872.2904	907.3178	928.2707	944.8833	979.1197	1010.6964	1024.9003	1049.38	1085.9923	1095.5583	1126.4447	1166.1168	1190.2521	1203.0314	1239.9182	1268.2343	1296.7521	1307.2347	1323.8757	1357.9893	1376.2885	1396.1472	1404.1713	1416.3165	1449.367	1486.6374	1490.5473	1493.7527	1495.7666	1506.1599	1513.2307	1526.0324	2967.898	3003.7861	3005.1817	3030.8005	3039.4097	3063.6514	3095.0806	3096.8864	3098.5786	3102.6795	3110.0522	3120.9499	3121.4418	3726.5101
CC(O)C1(C)CCOC1	C[C@@H](O)[C@@]1(C)CCOC1	
InChI=1S/C7H14O2/c1-6(8)7(2)3-4-9-5-7/h6,8H,3-5H2,1-2H3	InChI=1S/C7H14O2/c1-6(8)7(2)3-4-9-5-7/h6,8H,3-5H2,1-2H3/t6-,7+/m1/s1
