19
gdb 93807	2.44169	1.50057	1.10171	3.4076	72.05	-0.2623	0.0079	0.2702	1156.8484	0.158903	-460.213491	-460.204645	-460.203701	-460.247258	32.8	
C	-0.0218367217	 1.5088060447	 0.0718977009	-0.405844
C	-0.0354374447	 0.0061754076	-0.0884117055	 0.221174
O	 0.7726346317	-0.3559487519	-1.1582319932	-0.233525
C	 0.8118177672	-1.7700209872	-1.3012841539	-0.115099
C	 1.5269620224	-2.378586428	-0.0933042158	-0.118866
C	 3.0528856238	-2.176023483	-0.1667876068	-0.395083
C	 1.0208228354	-1.7760538547	 1.2174117842	 0.40084
O	 1.2060537779	-2.2948762396	 2.2841078287	-0.329484
O	 0.4115975912	-0.5647051047	 1.1640506066	-0.245263
H	 1.0036876518	 1.8524065669	 0.2268509304	 0.139595
H	-0.4260164447	 1.9791868691	-0.8274861983	 0.131811
H	-0.6284942702	 1.7952584985	 0.933244635	 0.139413
H	-1.0583886778	-0.3752486214	-0.2461303823	 0.082285
H	-0.2125040889	-2.1632601185	-1.3965472569	 0.101506
H	 1.3467598037	-1.9804723434	-2.2309433935	 0.117564
H	 1.315070164	-3.4507378903	-0.0338179772	 0.110051
H	 3.2957707996	-1.1150878183	-0.2743354716	 0.136004
H	 3.5321254544	-2.5555795534	 0.7379518184	 0.145083
H	 3.4621790149	-2.7098918424	-1.0300287091	 0.117839
65.7117	93.1027	209.2991	223.8654	250.0437	259.7229	294.4919	356.0966	453.3439	490.2702	504.1189	596.9386	709.858	740.7529	777.1604	873.2334	879.9696	960.7572	977.866	1005.3255	1048.0881	1093.9116	1117.9056	1130.5238	1144.8501	1181.0188	1264.5706	1286.0216	1326.4258	1331.9438	1386.6462	1388.005	1403.3458	1415.7381	1433.7481	1482.1766	1486.7924	1493.2514	1504.4858	1509.4065	1842.9103	2963.6769	2985.898	3044.1393	3059.7216	3067.2817	3095.0177	3115.9327	3136.9398	3141.2315	3146.8131
CC1OCC(C)C(=O)O1	C[C@H]1OC[C@@H](C)C(=O)O1	
InChI=1S/C6H10O3/c1-4-3-8-5(2)9-6(4)7/h4-5H,3H2,1-2H3	InChI=1S/C6H10O3/c1-4-3-8-5(2)9-6(4)7/h4-5H,3H2,1-2H3/t4-,5+/m1/s1
