18
gdb 97297	4.87094	0.968	0.85596	3.252	85.32	-0.2148	-0.0127	0.2021	1372.2129	0.148674	-398.123357	-398.115195	-398.114251	-398.156495	30.407	
C	-0.0544641759	 1.4219106777	-0.038582042	-0.309794
N	 0.0359515016	-0.0215198059	-0.0553921562	-0.228858
C	-1.0462606413	-0.6773011042	 0.0054215609	 0.10247
N	-1.085542596	-2.0572683625	-0.0129333036	-0.07472
C	 0.0006663109	-2.9186169229	-0.1375395133	 0.058158
N	-0.2799103618	-4.1668095005	-0.2077536478	-0.263502
C	-1.7132418563	-4.2832327555	-0.0732239088	 0.000608
C	-2.3281919638	-3.8305062155	 1.2335812501	-0.310501
C	-2.2741761471	-2.8678979977	 0.0742911106	-0.039356
H	 0.5163129566	 1.8200190546	 0.8087682511	 0.127495
H	 0.400912053	 1.83332257	-0.9473052492	 0.127741
H	-1.0872268145	 1.8015222438	 0.0320854618	 0.095775
H	-2.0446071336	-0.2240371356	 0.077381608	 0.088121
H	 0.9949445574	-2.4940897349	-0.1700148051	 0.161712
H	-2.1912124052	-5.0702760375	-0.643896904	 0.104375
H	-3.3043871771	-4.2366819483	 1.4737976649	 0.12182
H	-1.6714079404	-3.6647804751	 2.0810440334	 0.126692
H	-3.1675187966	-2.48278325	-0.4023804007	 0.111765
70.258	127.3403	152.723	194.0075	301.5375	369.1466	379.5665	389.8837	472.6539	619.0354	733.5759	745.847	810.3572	826.1965	927.7477	930.4658	961.2901	982.8875	997.957	1035.9211	1054.9078	1069.1903	1092.5467	1116.358	1140.1402	1154.0392	1189.5979	1251.5294	1287.9225	1307.6832	1340.8927	1411.647	1439.3067	1451.0827	1467.0317	1477.8512	1504.3465	1645.8975	1750.8874	2965.412	3022.6696	3053.6122	3070.381	3132.0799	3177.4393	3184.6738	3226.6964	3245.9476
CN=CN1C=NC2CC12	CN=CN1C=N[C@H]2C[C@@H]12	
InChI=1S/C6H9N3/c1-7-3-9-4-8-5-2-6(5)9/h3-6H,2H2,1H3	InChI=1S/C6H9N3/c1-7-3-9-4-8-5-2-6(5)9/h3-6H,2H2,1H3/t5-,6+/m0/s1
