20
gdb 99760	2.00948	1.34745	1.04132	2.0128	72.02	-0.2334	0.0218	0.2552	1259.7841	0.16884	-477.447551	-477.436881	-477.435937	-477.484305	38.02	
C	 0.4889843199	 0.9326648669	 0.5008539989	-0.2437
O	 0.1077630913	-0.3688615594	 0.0862557938	-0.274039
C	-1.2924759411	-0.5559903534	-0.0900621055	 0.02839
C	-1.4302626615	-1.8769116508	-0.8686300503	 0.087204
C	-0.9741561179	-1.7350860272	-2.3198815496	-0.401778
O	-0.6969499139	-2.9100099558	-0.2009430116	-0.43504
C	-2.018584219	-0.5146299733	 1.2753007039	 0.364447
N	-1.9643293417	-1.6618132609	 1.9952110561	-0.515107
O	-2.5557548489	 0.5087812706	 1.6632679256	-0.37642
H	 1.5769669351	 0.9243524852	 0.5982964295	 0.125414
H	 0.1983336356	 1.6846669066	-0.2463923164	 0.115356
H	 0.0360055724	 1.2068909105	 1.4604332206	 0.140175
H	-1.7194613189	 0.2719803243	-0.6721117541	 0.090293
H	-2.4777125054	-2.1951633231	-0.8382640496	 0.100494
H	 0.0503972265	-1.3538266619	-2.3604350726	 0.127554
H	-1.008068637	-2.7077772662	-2.8167182233	 0.125859
H	-1.620793426	-1.0410773475	-2.866477119	 0.118593
H	 0.1894010923	-2.5470891705	-0.0667263826	 0.295297
H	-1.5158397775	-2.4814892492	 1.6097052735	 0.271273
H	-2.3966573241	-1.679501875	 2.9042293927	 0.255735
18.187	88.6314	111.304	167.1731	195.542	203.7292	242.3913	273.1531	331.2917	337.4491	386.4743	403.5966	468.0909	528.7648	588.2861	659.7954	702.9034	790.2832	869.0666	895.3293	949.5105	982.7814	1052.0813	1085.2577	1111.5404	1139.7875	1151.0119	1186.8884	1213.251	1297.0498	1302.7691	1361.5252	1371.0861	1376.8216	1402.0802	1431.3075	1480.5172	1485.3292	1491.1935	1499.9009	1511.355	1611.4362	1788.2408	3002.1263	3021.862	3042.4937	3061.4054	3071.7642	3115.231	3124.2118	3128.4928	3536.3223	3701.0905	3762.9407
COC(C(C)O)C(N)=O	CO[C@@H]([C@@H](C)O)C(=O)N	
InChI=1S/C5H11NO3/c1-3(7)4(9-2)5(6)8/h3-4,7H,1-2H3,(H2,6,8)	InChI=1S/C5H11NO3/c1-3(7)4(9-2)5(6)8/h3-4,7H,1-2H3,(H2,6,8)/t3-,4+/m1/s1
