13
gdb 45933	2.9957	1.50696	1.01555	2.7634	62.93	-0.2846	-0.0744	0.2102	1061.2203	0.090358	-489.946165	-489.938691	-489.937746	-489.978971	26.923	
N	-0.0579749436	 1.3038056913	 0.2697908069	-0.450122
C	-0.0021073036	 0.0800075381	-0.0285175267	 0.292468
O	 1.173176663	-0.5781141914	-0.2356991393	-0.252577
C	 1.2013871644	-1.7778370794	-1.0028389301	-0.205735
C	 0.0149232693	-2.7053183334	-0.8107777953	 0.399339
O	 0.0523822403	-3.8770277294	-1.0946746844	-0.324668
N	-1.1281697831	-2.0827645666	-0.3436929212	-0.381248
C	-1.2891114273	-0.7305662782	-0.0463079529	 0.373071
O	-2.367602565	-0.2673178106	 0.210837169	-0.292943
H	 0.8800342138	 1.7111615657	 0.2681451959	 0.240396
H	 1.2697189312	-1.5385013321	-2.0732261048	 0.155832
H	 2.1067428012	-2.3152079616	-0.7186400327	 0.168988
H	-1.9655016907	-2.6517523726	-0.2821406244	 0.277199
60.5656	115.3489	137.2874	347.9807	388.7705	428.4613	442.5626	488.1688	562.8033	604.6726	651.4651	739.4811	793.8727	816.371	912.8165	935.2437	983.9334	1022.3635	1149.6346	1226.5424	1256.4509	1333.7931	1355.1643	1403.6122	1415.5777	1481.7035	1742.5906	1826.4865	1839.672	3022.3679	3135.3317	3470.7812	3570.8913
N=C1OCC(=O)NC1=O	[NH][C]1OCC(=O)NC1=O	
InChI=1S/C4H4N2O3/c5-3-4(8)6-2(7)1-9-3/h5H,1H2,(H,6,7,8)	InChI=1S/C4H4N2O3/c5-3-4(8)6-2(7)1-9-3/h5H,1H2,(H,6,7,8)
