22
gdb 7491	3.62287	1.21195	1.10932	1.5055	78.21	-0.2392	0.0799	0.319	1217.2333	0.199055	-350.202387	-350.192991	-350.192047	-350.236799	34.369	
C	-0.0223396315	 1.6157298162	 0.0582068658	-0.3819
C	 0.022922102	 0.085264523	 0.0356850416	-0.172028
C	 0.4889116826	-0.4722562189	-1.3147728619	-0.209873
C	 0.7198848065	-1.9856789337	-1.3317556652	 0.438199
C	-0.5382642118	-2.8003387097	-1.0605270465	-0.436876
C	 1.5868762949	-2.4864497875	-2.5193230463	-0.337051
C	 2.6441795882	-2.7961031468	-1.4441911611	-0.062562
O	 1.7755257263	-2.3501340446	-0.3858578142	-0.322621
H	 0.9662087066	 2.0443550731	-0.141271987	 0.113466
H	-0.7095534458	 2.0058746161	-0.7013483949	 0.11016
H	-0.356263799	 1.9895684944	 1.0312514411	 0.110761
H	 0.7037040334	-0.2799225752	 0.8129151614	 0.118096
H	-0.9709224268	-0.3073302779	 0.2811234717	 0.094081
H	-0.2340842062	-0.2163550971	-2.1022510829	 0.088737
H	 1.4330483216	 0.0151864927	-1.590679835	 0.08937
H	-1.3152889606	-2.5725997359	-1.7989413349	 0.111845
H	-0.3172319408	-3.8702974095	-1.1106752457	 0.114235
H	-0.9365360098	-2.5866164745	-0.0648167852	 0.127592
H	 1.1864293484	-3.3565669422	-3.0429360173	 0.104262
H	 1.8604070067	-1.7222068023	-3.24922364	 0.104207
H	 2.9184748742	-3.8521735394	-1.3311047686	 0.099294
H	 3.5646151611	-2.2010780602	-1.4991382949	 0.098607
61.2946	85.9344	102.49	170.4727	226.8336	250.3669	313.0138	330.4121	351.7216	420.6786	477.4529	696.1106	746.7667	784.9398	852.8357	857.0186	894.95	902.3393	953.35	969.5872	995.4963	1026.0561	1046.7442	1063.6088	1100.0617	1163.301	1173.8592	1209.6564	1213.776	1253.3011	1266.3535	1296.5822	1321.6698	1343.6827	1354.336	1397.113	1406.0948	1411.7004	1471.1137	1486.7655	1490.0068	1493.6221	1498.8227	1500.7642	1510.0675	1532.5581	3007.4975	3011.3737	3026.438	3031.5258	3036.087	3044.6255	3047.4972	3070.8764	3073.5334	3096.9933	3100.0093	3106.2677	3118.285	3128.197
CCCC1(C)CCO1	CCC[C@@]1(C)CCO1	
InChI=1S/C7H14O/c1-3-4-7(2)5-6-8-7/h3-6H2,1-2H3	InChI=1S/C7H14O/c1-3-4-7(2)5-6-8-7/h3-6H2,1-2H3/t7-/m0/s1
