12
gdb 128929	4.35243	1.0237	0.93064	4.6943	61.88	-0.2759	-0.0358	0.2402	1189.7648	0.077478	-468.784158	-468.776649	-468.775705	-468.817934	25.8	
N	 0.1561237145	-0.9929972845	-0.5694664846	-0.300533
C	 0.183771611	 0.0752749378	-0.1311441672	 0.274563
C	 0.2231760939	 1.4358794568	 0.4245416212	-0.298392
N	 1.5296356197	 2.0631268065	 0.249087149	-0.359977
C	 1.7623775991	 2.6178147456	-0.8491030861	 0.574893
O	 2.9515862146	 3.2473331625	-1.1307100784	-0.184875
C	 2.798516737	 3.7251887372	-2.3828663079	 0.111767
N	 1.6757640501	 3.4829297426	-2.9384477962	-0.099271
O	 0.9675451202	 2.7424984561	-1.9483510553	-0.245434
H	-0.5932558813	 2.0133382923	-0.0300540713	 0.162689
H	 0.0206146248	 1.3700354861	 1.4975800927	 0.166338
H	 3.6142551365	 4.270758441	-2.8303224159	 0.198231
23.6723	99.6266	182.9137	206.5297	312.8165	371.6187	464.3906	594.4949	627.0592	708.0887	733.9426	886.5719	891.2357	900.7789	923.5389	948.083	1015.3166	1095.6511	1142.6476	1202.0067	1275.7183	1303.5805	1363.7635	1480.0115	1671.7053	1821.8776	2363.9618	3021.0303	3085.6794	3290.4787
N#CCN=C1OC=NO1	N#CCN=c1ocno1	
InChI=1S/C4H3N3O2/c5-1-2-6-4-8-3-7-9-4/h3H,2H2	InChI=1S/C4H3N3O2/c5-1-2-6-4-8-3-7-9-4/h3H,2H2
