18
gdb 45904	2.58226	1.52002	1.04246	5.5392	82.87	-0.2106	-0.0243	0.1863	1137.4666	0.150125	-401.967363	-401.959259	-401.958315	-402.000078	31.075	
O	 0.102892299	-0.269877141	 0.4607093692	-0.340669
C	 0.0307567363	 0.9468567694	 0.4092479242	 0.336498
C	-1.3707531182	 1.5969050044	 0.375429297	-0.372746
C	-1.5773128277	 2.5771244703	 1.4923902605	-0.03915
C	-1.2085518475	 3.857654045	 1.4470322406	-0.056851
C	-0.5256505393	 4.4558372008	 0.2484423745	-0.225555
N	 0.9216728786	 4.233964675	 0.2617260197	-0.287065
C	 1.5987024497	 3.0585440432	 0.3195738236	 0.027098
C	 1.2618266849	 1.7398383646	 0.3716314974	-0.17484
H	-1.4966157665	 2.073820285	-0.6026096469	 0.114748
H	-2.0803832185	 0.7703976382	 0.4353547101	 0.121611
H	-2.0030943163	 2.1794647547	 2.4104840226	 0.104353
H	-1.327920989	 4.4934465682	 2.3198032353	 0.09324
H	-0.9445664831	 4.0565750964	-0.6830922592	 0.125088
H	-0.6696271641	 5.5388855828	 0.2199419782	 0.11358
H	 1.4938215645	 5.0596411435	 0.2789778316	 0.252144
H	 2.6708707345	 3.2462738275	 0.3192929791	 0.114469
H	 2.1227197325	 1.078862492	 0.3881326125	 0.094048
77.8398	142.1322	217.2343	245.1368	281.917	308.9421	454.6739	482.0371	507.4111	531.2943	582.1447	673.7747	697.7204	795.9876	813.4334	861.5858	899.5892	946.7164	968.4338	991.6301	1003.2346	1025.6698	1081.2716	1116.3565	1195.5473	1254.4968	1279.1472	1299.9266	1301.3375	1361.332	1381.446	1417.0585	1457.4252	1474.0109	1502.7882	1542.492	1671.3215	1709.4788	1736.9652	3028.1588	3050.2835	3093.5244	3120.2417	3143.0426	3152.5709	3175.5909	3179.0078	3663.8775
O=C1CC=CCNC=C1	O=C1CC=CCNC=C1	
InChI=1S/C7H9NO/c9-7-3-1-2-5-8-6-4-7/h1-2,4,6,8H,3,5H2/b2-1-,6-4-	InChI=1S/C7H9NO/c9-7-3-1-2-5-8-6-4-7/h1-2,4,6,8H,3,5H2/b2-1-,6-4-
