23
gdb 96567	2.35239	1.41657	1.03004	0.8969	88.17	-0.233	0.0195	0.2525	1265.2238	0.207358	-388.29601	-388.287113	-388.286169	-388.329073	35.158	
C	 0.0599305192	 1.6487949153	-0.059767806	-0.409294
C	 0.0269275597	 0.1146277962	-0.0409025527	-0.002207
C	 0.7066810056	-0.4667287207	-1.3031748258	-0.193102
C	 0.7892497894	-1.996047123	-1.3218711719	-0.076095
O	-0.4651255281	-2.6055647251	-1.0431511162	-0.248584
C	-0.5639795853	-3.330974242	 0.1667400336	-0.064848
C	-0.8741197373	-2.4614418495	 1.4031455535	-0.25792
C	 0.2540468034	-1.5566653458	 1.841150027	-0.081287
C	 0.6378020336	-0.4385718217	 1.2216402508	-0.030011
H	 1.0907126854	 2.0203935722	-0.0152169632	 0.111262
H	-0.3952290208	 2.0420156976	-0.9747580348	 0.110984
H	-0.4819546002	 2.0674761947	 0.7940790797	 0.114682
H	-1.0190699518	-0.2092852372	-0.0864559743	 0.087381
H	 0.1487780569	-0.1194952501	-2.1815850112	 0.100509
H	 1.7277417731	-0.0722889374	-1.4035386257	 0.089062
H	 1.1070327826	-2.3268030063	-2.3202583324	 0.092446
H	 1.5437359756	-2.3416061896	-0.6051971633	 0.096066
H	-1.3872152479	-4.0399387164	 0.0207713678	 0.101101
H	 0.3513888464	-3.9171309898	 0.3409693373	 0.089869
H	-1.7751135424	-1.8786323351	 1.1763058426	 0.116844
H	-1.1388112925	-3.139316948	 2.2232424746	 0.094261
H	 0.8041611949	-1.8705189843	 2.7259302274	 0.08325
H	 1.4862840604	 0.114907776	 1.6240289334	 0.075629
115.7407	169.0716	185.6489	224.9361	240.3524	289.7698	311.5293	373.8034	410.0203	458.5026	530.9755	570.143	615.8186	751.5019	783.1209	804.936	854.6527	878.5929	942.044	952.7566	1001.5933	1003.9538	1023.4232	1039.3982	1068.9821	1099.3648	1135.8458	1142.5388	1177.5431	1212.0711	1252.6328	1275.2931	1291.6036	1305.7008	1322.9026	1347.3843	1352.3142	1370.0304	1401.2142	1409.1775	1422.0772	1435.5201	1475.9483	1476.2285	1490.774	1497.5891	1502.5066	1508.0654	1714.711	2985.1608	3002.0868	3015.8753	3025.9064	3026.1003	3036.4283	3047.7517	3060.2405	3065.8659	3068.4243	3092.9697	3102.7926	3119.3304	3150.4183
CC1CCOCCC=C1	C[C@H]1CCOCCC=C1	
InChI=1S/C8H14O/c1-8-4-2-3-6-9-7-5-8/h2,4,8H,3,5-7H2,1H3/b4-2-	InChI=1S/C8H14O/c1-8-4-2-3-6-9-7-5-8/h2,4,8H,3,5-7H2,1H3/b4-2-/t8-/m1/s1
