16
gdb 26971	3.1088	1.3964	1.04173	1.5586	72.56	-0.1908	0.0401	0.2309	1120.7982	0.126147	-434.066353	-434.058589	-434.057645	-434.098947	29.507	
O	-0.203516813	 1.3428500454	 0.1326989992	-0.438056
C	-0.0301634856	 0.0090147355	 0.0292172931	 0.319012
C	 0.2201691315	-0.8091066389	-1.038261866	 0.191985
N	 0.3150500853	-2.1188161333	-0.6141845423	-0.310759
C	 0.1252741227	-2.0870014297	 0.6812945623	-0.006602
N	-0.0913163766	-0.8051860422	 1.1298065806	-0.308117
N	 0.3531116634	-0.3336510187	-2.3590311148	-0.217463
C	 1.3157344042	-1.0246303541	-3.2296737066	-0.220616
C	-0.1439293607	-1.1986082841	-3.439244241	-0.220607
H	-0.1150135546	 1.6844557932	-0.7680402002	 0.31053
H	 0.1296769723	-2.9329631644	 1.3510802816	 0.128793
H	-0.2627323277	-0.5033651402	 2.0740490322	 0.272475
H	 1.8917862306	-0.3788008337	-3.8863587496	 0.1118
H	 1.8547489262	-1.8597030079	-2.7924121807	 0.137905
H	-0.575632357	-2.149383203	-3.1413530046	 0.137921
H	-0.6477550008	-0.6814991438	-4.2509866831	 0.111798
65.6411	158.923	175.5861	289.388	291.0997	419.1766	460.633	482.5543	537.9222	588.4472	669.5099	728.1197	732.4666	756.1379	826.3423	851.2744	915.2416	964.1448	1041.2063	1088.9476	1113.0751	1125.5039	1132.0789	1165.6916	1184.1283	1224.8509	1244.4604	1301.2429	1358.92	1417.8699	1477.1885	1502.3438	1509.8193	1554.0748	1682.3441	3111.2953	3114.379	3200.8734	3215.3267	3255.8542	3669.7522	3768.2798
OC1=C(N=CN1)N1CC1	Oc1c(nc[nH]1)N1CC1	
InChI=1S/C5H7N3O/c9-5-4(6-3-7-5)8-1-2-8/h3,9H,1-2H2,(H,6,7)	InChI=1S/C5H7N3O/c9-5-4(6-3-7-5)8-1-2-8/h3,9H,1-2H2,(H,6,7)
