17
gdb 46109	4.26347	0.92948	0.86962	4.0234	73.62	-0.2669	0.0103	0.2772	1327.405	0.135643	-421.841985	-421.833548	-421.832604	-421.875689	31.195	
O	-0.0006309011	 0.6839952987	 1.2865631345	-0.332671
C	-0.0684713805	 1.537945849	 0.452792263	 0.43298
C	-1.2636625408	 1.932014276	-0.4127962683	-0.382818
C	-0.8836882383	 3.3129206887	-0.9613651225	-0.021551
C	-1.4080515305	 4.4499671548	-0.0529078848	-0.365337
C	-1.0281174024	 5.7752101901	-0.5254388589	 0.287402
C	-0.6971674475	 6.8532779319	-0.9416212249	-0.429679
C	 0.654405564	 3.2222409597	-0.9479762372	-0.088604
O	 0.9887530664	 2.3352390101	 0.1327526411	-0.217954
H	-1.3624561206	 1.1888017864	-1.2116007421	 0.139202
H	-2.1826350947	 1.9061029757	 0.1757378866	 0.138415
H	-1.2503114377	 3.4783316608	-1.9766106209	 0.099493
H	-2.5009589967	 4.3795850705	 0.0089174077	 0.13725
H	-1.0336000598	 4.3020607462	 0.9690507181	 0.147142
H	-0.4156506792	 7.8144988941	-1.2946590353	 0.201869
H	 1.0450432939	 2.8010566553	-1.8814346211	 0.11643
H	 1.1410640955	 4.1816261921	-0.762504805	 0.138432
61.8643	89.8646	146.0099	174.8659	322.9649	342.749	352.0706	472.0674	528.6707	556.4639	626.8238	652.6885	690.2807	719.7297	826.8956	848.1911	896.6036	930.5378	971.9834	1006.1234	1034.4466	1077.5066	1108.4117	1170.4759	1188.9506	1219.933	1231.4217	1272.4581	1305.1844	1343.7649	1379.3187	1397.4643	1462.1482	1471.2911	1523.8483	1886.9669	2238.7059	3020.0235	3040.6999	3054.4272	3058.6338	3091.7794	3118.1816	3121.6553	3505.4233
O=C1CC(CC#C)CO1	O=C1C[C@@H](CC#C)CO1	
InChI=1S/C7H8O2/c1-2-3-6-4-7(8)9-5-6/h1,6H,3-5H2	InChI=1S/C7H8O2/c1-2-3-6-4-7(8)9-5-6/h1,6H,3-5H2/t6-/m1/s1
