22
gdb 57190	2.29801	1.30901	1.03825	4.8492	77.54	-0.2495	0.0144	0.264	1261.3551	0.192683	-441.529161	-441.518818	-441.517874	-441.563919	39.385	
C	 0.0076648627	 1.5663501742	 0.0036442093	-0.412282
C	-0.0691312422	 0.0263644222	 0.0284178333	 0.264425
C	 0.4992527835	-0.4943220759	 1.3618135287	-0.426364
C	-1.5501743723	-0.3819979353	-0.1023467386	-0.416586
C	 0.7457157086	-0.5371807029	-1.1802201233	-0.159912
N	 2.1017214339	 0.0185496789	-1.3648285339	-0.548654
H	 2.0691830353	 0.9307494875	-1.8038905952	 0.249256
H	 2.5684306349	 0.1335967969	-0.4697532618	 0.2462
H	 2.5238749292	-1.6792208672	-1.9380821749	 0.306435
C	 0.871442249	-2.0859757328	-1.2130582222	 0.436205
O	 0.0255544383	-2.8524509259	-0.8302168646	-0.337479
O	 2.0182082073	-2.5052937621	-1.7588593053	-0.3649
H	 1.0226819874	 1.938558363	 0.1749222483	 0.096334
H	-0.3444580944	 1.9694295098	-0.9534846475	 0.106626
H	-0.6294945036	 1.9840091672	 0.789443579	 0.12029
H	-0.0435957654	-0.0521715527	 2.2033053088	 0.115913
H	 0.4076710123	-1.5806760386	 1.431782745	 0.147424
H	 1.5561430091	-0.2288946568	 1.4925610731	 0.095238
H	-1.9816871823	 0.0106404838	-1.0308484944	 0.100847
H	-1.6618411251	-1.4653547069	-0.1046260425	 0.161081
H	-2.1272031801	 0.0351834202	 0.7300679147	 0.103444
H	 0.1875846936	-0.287685987	-2.0929394661	 0.116456
62.8034	92.9958	198.6585	224.5904	257.0235	262.4902	279.2828	311.3047	327.9282	353.468	372.9997	386.9787	419.3531	504.3244	546.1547	578.2096	718.6356	778.8981	844.1349	867.5244	911.8905	935.0732	938.2705	964.1329	987.739	1033.7888	1047.3116	1098.5246	1157.7088	1203.5139	1227.3808	1246.9226	1264.2828	1314.3059	1391.5376	1398.7734	1401.5513	1429.1524	1435.4723	1478.4128	1488.4528	1495.7536	1503.6774	1511.1764	1527.0574	1655.7965	1853.0915	3020.8122	3023.2099	3024.1264	3031.9217	3083.6887	3086.5931	3091.8822	3102.7548	3127.2497	3162.2619	3432.1014	3507.4943	3595.2792
CC(C)(C)C([NH3+])C([O-])=O	CC(C)(C)[C@@H](N)C(=O)O	
InChI=1S/C6H13NO2/c1-6(2,3)4(7)5(8)9/h4H,7H2,1-3H3,(H,8,9)	InChI=1S/C6H13NO2/c1-6(2,3)4(7)5(8)9/h4H,7H2,1-3H3,(H,8,9)/t4-/m0/s1
