14
gdb 28753	6.83249	0.85412	0.75921	3.0175	67.92	-0.1992	0.0078	0.207	1391.6433	0.101397	-470.029814	-470.021459	-470.020514	-470.063968	29.532	
O	 0.1762465393	 1.3099632212	 0.3620061085	-0.433353
C	 0.1424097391	-0.0111218238	 0.0714145547	 0.369522
C	 0.1309111357	-0.7624763555	-1.0660688928	-0.238751
N	 0.0909443913	-2.1186098151	-0.7323434777	-0.349071
C	 0.0799620784	-2.1430909156	 0.5630873145	 0.500775
N	 0.1095198787	-0.9007517831	 1.1275886079	-0.389635
O	 0.0439413306	-3.2069088505	 1.4021732647	-0.229937
C	 0.0163842346	-4.4543150554	 0.8398177546	 0.111775
N	-0.0183698685	-5.4473464149	 1.6117113542	-0.433571
H	 0.1965472746	 1.8043162484	-0.4633465815	 0.313274
H	 0.14801734	-0.4347158119	-2.0929301919	 0.107358
H	 0.1080313625	-0.6755071042	 2.1083719263	 0.282369
H	 0.0287384558	-4.4250962831	-0.2506662968	 0.151563
H	-0.035372612	-6.3055087265	 1.0635923553	 0.237682
29.3919	91.7767	160.4174	217.2834	238.2989	347.5588	377.9912	454.6382	459.1417	531.6168	651.4043	696.0904	712.8222	750.8674	819.8813	837.7417	988.7668	1047.9519	1062.7791	1074.0035	1148.929	1182.6332	1246.5084	1278.3456	1292.2118	1396.3047	1483.2397	1503.711	1610.9168	1646.5157	1748.1353	3130.9042	3258.7241	3515.9868	3670.1166	3844.7284
OC1=CN=C(N1)OC=N	Oc1cnc([nH]1)O[CH][NH]	
InChI=1S/C4H5N3O2/c5-2-9-4-6-1-3(8)7-4/h1-2,5,8H,(H,6,7)	InChI=1S/C4H5N3O2/c5-2-9-4-6-1-3(8)7-4/h1-2,5,8H,(H,6,7)
