20
gdb 100447	3.82161	0.62265	0.54894	3.9578	87.39	-0.2481	-0.0151	0.233	2021.7309	0.16835	-403.16515	-403.153817	-403.152873	-403.204598	38.741	
C	 0.1173832932	 1.5166787189	-0.0327363453	-0.395684
C	 0.0105186025	-0.0084411601	-0.1119829816	-0.159786
C	-1.4400254883	-0.5435294811	-0.0023242922	-0.156925
C	-2.3390184403	-0.1000969241	-1.1751651555	-0.385601
C	-1.4343632911	-1.9998904439	 0.1209393466	 0.036228
C	-1.4091431058	-3.2027504439	 0.2107874224	 0.068212
C	-1.3104391971	-4.6477092773	 0.3534331928	 0.256894
N	-2.4454338121	-5.3158898041	-0.0122102105	-0.519907
O	-0.306735273	-5.2087272069	 0.7496215768	-0.336074
H	 1.1663842819	 1.8272511324	-0.0416265842	 0.119805
H	-0.3766691592	 2.0108651205	-0.8745768857	 0.120808
H	-0.333073075	 1.8983543012	 0.8905881304	 0.116306
H	 0.4459690763	-0.3704055354	-1.0510271792	 0.109505
H	 0.600575588	-0.45861388	 0.6929885976	 0.117373
H	-1.8721895205	-0.1402347682	 0.9257803083	 0.110021
H	-2.4131450115	 0.989398865	-1.2175889801	 0.121815
H	-1.9325316611	-0.4561158697	-2.1269146865	 0.127672
H	-3.348299955	-0.5051596575	-1.0650809063	 0.122353
H	-3.2875806434	-4.8243473306	-0.2542898526	 0.263226
H	-2.4728564885	-6.3133354952	 0.1221672647	 0.26376
6.7537	63.6551	69.2602	118.1511	125.1926	171.6341	214.3032	228.1901	269.5404	309.0271	350.369	460.1104	495.9242	544.2214	573.9108	608.7946	708.6939	773.5309	777.6015	829.6107	948.0842	975.2803	1013.6872	1051.0049	1089.2276	1123.0654	1131.0411	1188.5077	1280.9257	1312.3968	1338.5704	1346.6392	1376.3282	1406.3416	1414.3461	1483.3682	1492.6951	1498.8173	1505.0067	1509.5666	1606.4902	1772.4627	2341.7561	2995.2855	3033.6094	3039.3584	3045.4469	3075.616	3102.6521	3110.4931	3118.0091	3125.8941	3602.0401	3744.6991
CCC(C)C#CC(N)=O	CC[C@@H](C)C#CC(=O)N	
InChI=1S/C7H11NO/c1-3-6(2)4-5-7(8)9/h6H,3H2,1-2H3,(H2,8,9)	InChI=1S/C7H11NO/c1-3-6(2)4-5-7(8)9/h6H,3H2,1-2H3,(H2,8,9)/t6-/m1/s1
