20
gdb 64335	2.54571	1.39623	1.135	5.3684	75.59	-0.2475	0.0575	0.305	1161.9705	0.171546	-440.348771	-440.33987	-440.338926	-440.382297	34.201	
C	 0.0308109683	 1.5132593678	 0.0422845596	-0.42128
C	-0.0691311287	-0.0186885341	-0.0291462402	 0.267032
C	-1.550837321	-0.4405951229	-0.0322568065	-0.39811
C	 0.6651826367	-0.5488988684	-1.272337928	-0.238258
C	 1.0568324413	-2.0034469051	-1.0729166221	-0.084924
O	 1.9387793238	-2.143901044	 0.0435933664	-0.23746
C	 1.6271147897	-1.5049156577	 1.2026800624	 0.458241
O	 2.2372928524	-1.7508048051	 2.2135854678	-0.398232
N	 0.6013660762	-0.5954955783	 1.1450847243	-0.380426
H	 1.0761315918	 1.8326683001	 0.0788494542	 0.127955
H	-0.4434159436	 1.9727783838	-0.8305770915	 0.121951
H	-0.4764539997	 1.8960826557	 0.9350915918	 0.11601
H	-2.0876115823	 0.0298148298	-0.8626062453	 0.116254
H	-1.6572766665	-1.5252739812	-0.1195121319	 0.122177
H	-2.0360786828	-0.1354668505	 0.9002991004	 0.11773
H	 0.0293141708	-0.4422171548	-2.1564327074	 0.10926
H	 1.5762566494	 0.0346076096	-1.4442475452	 0.115878
H	 0.1754437964	-2.6406058041	-0.9227692793	 0.113749
H	 1.6096827204	-2.3922414273	-1.9309951916	 0.12326
H	 0.4394343975	-0.1525697435	 2.0369522919	 0.249192
58.812	117.0969	230.4454	250.5463	260.2615	319.4237	332.3551	360.9505	449.5709	471.9927	501.9136	533.7222	547.2275	666.459	749.2237	764.3469	855.3313	900.8138	930.0779	969.1912	996.5746	1002.1295	1024.6529	1063.2423	1114.9712	1186.77	1206.4025	1248.8037	1277.2334	1293.1536	1328.8917	1371.7742	1400.496	1418.4737	1434.7716	1450.593	1473.9104	1480.622	1489.9538	1503.913	1506.6024	1514.9101	1841.1744	3023.4108	3030.4882	3037.0206	3046.9571	3095.2744	3098.7386	3103.8831	3107.3907	3115.608	3118.0629	3623.2902
CC1(C)CCOC(=O)N1	CC1(C)CCOC(=O)N1	
InChI=1S/C6H11NO2/c1-6(2)3-4-9-5(8)7-6/h3-4H2,1-2H3,(H,7,8)	InChI=1S/C6H11NO2/c1-6(2)3-4-9-5(8)7-6/h3-4H2,1-2H3,(H,7,8)
