18
gdb 37611	3.04209	2.5128	2.27094	1.6845	75.84	-0.2055	0.0752	0.2807	745.4078	0.152606	-364.744031	-364.739005	-364.738061	-364.773012	23.441	
C	-0.0260344766	 1.5602525321	 0.0614819454	-0.23246
C	 1.4862086937	 1.7698921963	-0.0198943855	-0.043524
C	 2.0099992736	 0.8753793493	-1.1933885589	-0.062737
C	 0.9722831892	-0.3155109696	-1.2278516288	-0.071879
C	 0.0290036551	 0.0415019299	-0.0500249216	 0.000906
N	 1.0923545092	-0.4352685558	 0.9331962015	-0.166329
C	 2.0957918986	 0.7163912555	 0.9454988526	-0.016555
C	 2.9144952675	 0.0555300903	-0.2024927496	-0.064059
C	 1.866461835	-1.0815246278	-0.2128686007	 0.000292
H	-0.4594184873	 1.9002311305	 1.0085005383	 0.106077
H	-0.57361716	 2.0198526279	-0.7689102694	 0.0993
H	 1.8755424594	 2.7863670805	 0.041638555	 0.063379
H	 2.351656484	 1.3120799583	-2.1300230885	 0.064283
H	 0.6099664786	-0.691309649	-2.1852361123	 0.059647
H	-0.906137273	-0.5120446761	 0.0480272528	 0.069381
H	 2.4666886635	 0.9872510271	 1.9350739817	 0.066399
H	 3.9970171824	-0.0364667922	-0.2589443831	 0.062563
H	 2.0465893571	-2.1566826872	-0.1818072192	 0.065318
374.7176	544.5542	555.1627	638.6382	693.128	727.479	795.3847	801.1834	825.3612	833.5237	851.8031	870.4369	882.8925	895.7989	904.7722	939.7422	951.6113	969.1013	992.6973	1001.9197	1029.0128	1043.6629	1104.9823	1121.981	1144.0133	1163.6482	1181.2487	1187.9206	1201.4453	1219.8111	1228.6757	1231.9765	1252.8524	1267.5591	1281.2358	1283.4717	1311.9896	1324.5523	1471.022	3040.3032	3087.5605	3090.814	3091.2678	3096.8694	3106.2709	3112.6441	3123.1381	3136.2498
C1C2C3C4C1N1C2C3C41	C1[C@@H]2[C@@H]3[C@@H]4[C@H]1N1[C@H]2[C@H]3[C@H]41	
InChI=1S/C8H9N/c1-2-4-5-3(1)9-7(2)6(4)8(5)9/h2-8H,1H2	InChI=1S/C8H9N/c1-2-4-5-3(1)9-7(2)6(4)8(5)9/h2-8H,1H2/t2-,3+,4-,5+,6+,7-,8+/m1/s1
