19
gdb 35977	3.20152	1.15751	0.92264	4.9333	76.67	-0.2322	0.0193	0.2515	1264.2884	0.1613	-419.203634	-419.195086	-419.194142	-419.23714	32.023	
N	 0.3298243629	-1.2213717512	 0.593189878	-0.314535
C	 0.2055360053	-0.116921651	 0.2793694319	 0.281298
C	-0.0209090088	 1.289832922	-0.0894889538	-0.038398
C	-1.0062118164	 1.9528968997	 0.9172816428	-0.17655
N	-1.4630159442	 3.2695867104	 0.5293928558	-0.283425
C	-0.5886479605	 4.4135478929	 0.7780207193	-0.166393
C	 0.9216849461	 4.2476452636	 0.465376521	-0.210399
C	 1.2498744311	 3.2477524137	-0.6437530594	-0.069558
O	 1.2454933308	 1.900723136	-0.1771758417	-0.249363
H	-0.5129105288	 1.296083079	-1.0795499311	 0.105197
H	-1.8682689655	 1.2813809074	 1.0171093821	 0.123677
H	-0.5236068286	 2.0072103049	 1.8986267606	 0.131872
H	-1.810137016	 3.2682146056	-0.4210969749	 0.219212
H	-0.9954840309	 5.2407765773	 0.1873788521	 0.108515
H	-0.6934650859	 4.7138215969	 1.8285099454	 0.113039
H	 1.3397036161	 5.2275134348	 0.203429003	 0.102163
H	 1.4614224535	 3.9119519571	 1.3576480991	 0.118374
H	 0.5716280089	 3.3558012031	-1.50524247	 0.08584
H	 2.2697294407	 3.4127373879	-1.0026113103	 0.119434
74.9369	97.6172	150.4043	239.7806	291.5363	319.7781	363.8984	373.0826	505.6544	525.6534	551.7148	576.5015	649.129	778.2362	839.7488	870.5439	926.4572	950.6085	1012.8475	1023.8925	1047.1404	1068.58	1129.9969	1152.1373	1189.6291	1239.6225	1268.6124	1285.9427	1309.0881	1350.5628	1362.9691	1375.5951	1383.3237	1403.7689	1418.285	1469.5987	1476.7696	1490.3725	1496.0518	1511.9064	2364.9504	2938.4258	2982.2413	3019.432	3027.6994	3035.2802	3063.4738	3085.2583	3087.7262	3090.7088	3555.1386
N#CC1CNCCCO1	N#C[C@H]1CNCCCO1	
InChI=1S/C6H10N2O/c7-4-6-5-8-2-1-3-9-6/h6,8H,1-3,5H2	InChI=1S/C6H10N2O/c7-4-6-5-8-2-1-3-9-6/h6,8H,1-3,5H2/t6-/m0/s1
