17
gdb 37750	2.71706	2.45308	1.52606	1.1275	86.5	-0.1704	-0.0506	0.1198	864.5242	0.138164	-347.475969	-347.46972	-347.468776	-347.506106	26.602	
C	-0.2775248753	 1.3478484037	 0.0682455872	-0.313816
C	 1.3071716606	 1.1296863773	 0.1764184127	-0.060414
C	 2.0590206705	 0.1532990439	 1.0854363633	-0.095281
C	 2.3548274774	-1.0308422004	 0.4920360141	-0.133436
C	 1.5784320278	-1.1394234581	-0.7528292495	 0.102014
C	 0.4953161603	-1.9106067955	-1.055928917	-0.16104
C	-0.6957346316	-1.0081920611	-1.1563641513	-0.154536
C	-0.2816961327	 0.275358598	-1.0536164119	 0.109363
C	 1.2162833906	 0.2778279979	-1.1043509813	-0.083118
H	-0.8855622233	 1.0883724377	 0.9367638607	 0.119671
H	-0.5125863254	 2.373912248	-0.2334720165	 0.109941
H	 1.8426783114	 2.0815332886	 0.1037384582	 0.080379
H	 2.3983983929	 0.4180502021	 2.0826742142	 0.095794
H	 2.9003608429	-1.8340744167	 0.9747102662	 0.103228
H	 0.3847772773	-2.972034766	-0.8636255886	 0.097644
H	-1.6945096665	-1.3977611552	-0.9841524281	 0.096597
H	 1.7140788531	 0.6766871957	-1.9945346024	 0.087011
201.1497	259.3807	309.5046	446.2019	493.7069	567.1706	656.5823	680.2233	686.7694	720.5524	785.0426	804.2369	854.4274	869.9132	874.3471	914.3222	935.4093	958.1002	972.9174	982.4979	1007.0148	1051.0451	1104.9037	1116.346	1147.7197	1171.6656	1205.0416	1233.3015	1243.1028	1281.3288	1294.1111	1308.9776	1349.1374	1464.3114	1525.0862	1562.6841	1606.1213	3038.7975	3048.1912	3060.8371	3115.8487	3169.9687	3173.4323	3195.6226	3199.8402
C1C2C3C=C4C=CC13C24	C1[C@H]2C=C[C]3[CH][CH][C]1[C@@H]23	
InChI=1S/C9H8/c1-2-9-4-6-7(9)3-5(1)8(6)9/h1-3,6-8H,4H2	InChI=1S/C9H8/c1-3-7-5-8-4-2-6(1)9(7)8/h1-4,7,9H,5H2/t7-,9-/m1/s1
