19
gdb 37456	2.78205	2.06782	1.73545	1.5937	76.07	-0.2338	0.0707	0.3045	874.7344	0.163195	-385.859233	-385.852995	-385.852051	-385.889479	27.093	
C	-0.0062475734	 1.4878153335	 0.1111119516	-0.300714
C	 1.3125899603	 0.7531702881	 0.0761558099	-0.036664
C	 0.0160422409	-0.0198692354	 0.0601869332	-0.035713
C	-0.0735265855	-0.6797404692	-1.3365023265	 0.057359
O	-0.7776244916	 0.1546721581	-2.268472873	-0.265186
C	 0.1408960343	 0.9667895664	-2.9983684296	-0.108284
C	 1.5348705761	 0.4980840597	-2.6308167215	-0.078815
C	 2.0621079704	 0.3978409998	-1.1989873937	-0.064983
C	 1.38030371	-0.7790159782	-1.8589945299	-0.09569
H	-0.2750437126	 1.9425520547	 1.0597675778	 0.10544
H	-0.3665424447	 2.0312324806	-0.7501050489	 0.127843
H	 1.9258946337	 0.7894358434	 0.970585667	 0.080477
H	-0.3263624996	-0.5887186059	 0.9175768021	 0.078895
H	-0.5952882494	-1.6385049858	-1.2995432355	 0.079581
H	-0.0253242887	 0.8093483702	-4.0733728404	 0.098774
H	-0.0406082475	 2.0291575221	-2.7899839826	 0.100634
H	 2.296155751	 0.585037856	-3.3991907845	 0.088921
H	 3.1446852697	 0.4271247901	-1.132409269	 0.083085
H	 1.8398427266	-1.7253108083	-2.1165170164	 0.085038
178.6197	245.1037	316.6189	485.2814	544.8101	610.7732	668.068	680.7623	743.735	762.6168	773.2515	815.4356	825.7814	878.5133	915.0602	933.1044	955.6134	987.6402	999.331	1010.1527	1023.1013	1036.1408	1052.6328	1059.131	1095.268	1101.8408	1107.6023	1131.0708	1164.7467	1209.8056	1223.4836	1266.8548	1278.6198	1325.0571	1335.1924	1361.8097	1366.8892	1385.8794	1416.2897	1490.0555	1535.0307	3001.1088	3028.5325	3087.3879	3139.8058	3149.9818	3159.0614	3165.5596	3170.2364	3186.0011	3250.0448
C1C2C1C1OCC3C2C13	C1[C@H]2[C@@H]1[C@H]1OC[C@H]3[C@@H]2[C@@H]13	
InChI=1S/C8H10O/c1-3-4(1)8-7-5(2-9-8)6(3)7/h3-8H,1-2H2	InChI=1S/C8H10O/c1-3-4(1)8-7-5(2-9-8)6(3)7/h3-8H,1-2H2/t3-,4+,5-,6+,7-,8+/m0/s1
