17
gdb 49423	3.45743	1.50722	1.47156	2.0658	70.34	-0.2419	-0.0278	0.2141	939.1589	0.137913	-421.828122	-421.821384	-421.82044	-421.85974	26.699	
O	-0.7635028451	 0.8893301641	 0.4642795513	-0.24795
C	 0.1552332874	 0.9934707233	-0.3107030309	 0.134175
C	 1.3031703083	 1.9647571527	-0.2014559043	-0.087705
C	 1.1963272063	 3.1868284729	-1.1276981176	-0.134152
C	 0.5404688469	 4.3091141067	-0.3193899996	-0.108277
C	 0.2400766672	 3.7510746591	 1.0673059209	-0.234976
C	 1.4476287721	 2.7925296677	 1.1013296902	 0.037923
O	 2.5513753548	 3.6558453117	 0.7705195379	-0.257308
C	 2.044454647	 4.223670884	-0.4221201296	 0.083643
H	 0.2133206159	 0.3325516365	-1.2064548142	 0.081842
H	 2.2307084665	 1.4178942297	-0.4168068956	 0.097747
H	 1.1286810013	 3.1118066023	-2.2043738996	 0.096833
H	-0.036873169	 5.0943081797	-0.7875360897	 0.093702
H	 0.3184179893	 4.5121460599	 1.8486460142	 0.106744
H	-0.7107330489	 3.2256545286	 1.145301756	 0.137608
H	 1.6561242716	 2.2542445735	 2.0220694631	 0.091916
H	 2.7011604083	 4.9348172176	-0.9022260423	 0.108237
56.8757	195.2901	219.9734	369.7951	455.6415	560.0687	657.3799	692.3576	705.1219	801.2238	806.1439	823.8489	870.4516	897.0349	941.6861	958.4686	968.8852	985.0852	1017.7573	1022.4358	1041.8272	1053.7401	1082.6102	1086.4152	1090.6652	1163.1336	1209.5112	1237.7751	1245.941	1275.7375	1303.9541	1321.9226	1361.6617	1377.9154	1433.5163	1490.4066	1818.8969	2862.2005	3030.5628	3073.3876	3154.7855	3165.1998	3207.4423	3213.3693	3228.6825
O=CC1C2C3CC1OC23	O=C[C@H]1[C@H]2[C@H]3C[C@@H]1O[C@@H]23	
InChI=1S/C7H8O2/c8-2-4-5-1-3-6(4)7(3)9-5/h2-7H,1H2	InChI=1S/C7H8O2/c8-2-4-5-1-3-6(4)7(3)9-5/h2-7H,1H2/t3-,4-,5+,6-,7-/m1/s1
