20
gdb 13890	3.73697	1.44276	1.29004	2.8043	70.27	-0.2381	0.0625	0.3006	1034.8979	0.177752	-386.144756	-386.136214	-386.13527	-386.1783	31.568	
C	 0.0110700068	 1.5158378795	-0.1779449563	-0.41009
C	 0.0643344274	-0.0061423342	-0.0246972933	 0.10386
O	 0.8214548905	-0.6072233981	-1.0748984926	-0.433091
C	 0.6974535163	-0.4533797868	 1.2970830363	 0.022906
C	 0.768754271	-1.9986708188	 1.4636792115	-0.248276
C	 2.2755505788	-2.2737602345	 1.6146224861	-0.072499
O	 2.8276568416	-1.0784155267	 2.1465805673	-0.247348
C	 2.1763764644	-0.0164539489	 1.4685968867	-0.095878
H	 1.0166659795	 1.946795242	-0.1673567198	 0.130755
H	-0.4648448473	 1.7937645607	-1.1257118495	 0.104677
H	-0.5718382538	 1.9711964287	 0.6294522105	 0.118051
H	-0.9680843721	-0.3935137923	-0.0485456127	 0.065632
H	 0.4486658533	-0.3217457686	-1.9144099004	 0.282821
H	 0.0945708415	-0.0258085269	 2.1039741043	 0.072739
H	 0.2259605809	-2.3149260857	 2.3581192473	 0.098767
H	 0.3463630411	-2.5208845097	 0.6028203827	 0.109744
H	 2.5131110279	-3.0886362463	 2.3034410136	 0.100416
H	 2.7220798482	-2.5014271179	 0.6338537536	 0.095875
H	 2.6331751449	 0.149327458	 0.4816733757	 0.101934
H	 2.2999285293	 0.8868113367	 2.071534619	 0.099004
37.3004	102.3879	208.4555	243.1491	256.6526	273.7613	288.4216	356.7969	468.9361	592.8559	617.8043	664.0667	784.8942	868.9395	893.3691	944.0784	963.2449	982.6436	989.4938	1046.1904	1056.5864	1078.3134	1123.8562	1140.7505	1161.4175	1216.086	1243.8158	1250.2536	1272.6865	1309.8159	1321.3624	1343.0984	1374.7277	1386.9781	1404.982	1412.3329	1418.1488	1484.7544	1494.2591	1500.5433	1506.8167	1523.1501	2954.6734	2980.5614	2998.3115	3028.6175	3050.7929	3066.3514	3089.5806	3092.5129	3094.5771	3115.4929	3119.1221	3825.3964
CC(O)C1CCOC1	C[C@@H](O)[C@H]1CCOC1	
InChI=1S/C6H12O2/c1-5(7)6-2-3-8-4-6/h5-7H,2-4H2,1H3	InChI=1S/C6H12O2/c1-5(7)6-2-3-8-4-6/h5-7H,2-4H2,1H3/t5-,6+/m1/s1
