21
gdb 117486	2.37037	1.05431	0.74618	0.7784	85.67	-0.2145	-0.0521	0.1624	1573.1095	0.17942	-420.427385	-420.416206	-420.415262	-420.46531	38.793	
C	 0.1085301683	 1.5498900483	 0.1626152959	-0.406969
C	 0.0434084777	 0.0261881645	 0.167424742	-0.088833
N	-1.2950409124	-0.4312563857	-0.1374732499	-0.297182
C	-1.6058930766	-1.7526622756	-0.2628078267	 0.228405
N	-0.672465278	-2.63005767	-0.2207843749	-0.305824
C	-0.8450413759	-4.0558550539	-0.3636081247	-0.322001
C	-3.1295057996	-1.9129368951	-0.4409920022	 0.360726
C	-3.7319322042	-3.2362684936	-0.846780781	-0.487259
O	-3.8375393536	-0.9438764058	-0.2596503442	-0.311833
H	 1.1229195816	 1.8877125752	 0.3910246356	 0.123214
H	-0.1736822942	 1.9536529244	-0.8149526189	 0.125226
H	-0.5628650137	 1.9793994218	 0.9147974265	 0.120018
H	 0.7321290074	-0.396358147	-0.5730425872	 0.12
H	 0.3713988937	-0.3731455907	 1.1388167513	 0.105466
H	-2.0821213306	 0.1871085988	-0.0143859617	 0.255252
H	 0.1252653462	-4.5352576461	-0.2003145965	 0.120277
H	-1.542227467	-4.4979262888	 0.3628523445	 0.108046
H	-1.1807173028	-4.3570188294	-1.3665357059	 0.110413
H	-3.2526295705	-3.6300130027	-1.7476254703	 0.149067
H	-3.5949536964	-3.9851027563	-0.0606569723	 0.151766
H	-4.7978079692	-3.0870624324	-1.0236587094	 0.142026
23.3641	44.6353	98.7476	116.6218	137.34	221.3734	255.9906	259.1333	270.8383	312.9677	358.5644	395.2256	423.3862	504.5339	559.8521	614.236	701.579	773.1253	803.1929	907.3299	985.917	1034.0663	1041.3924	1076.6309	1103.967	1138.7202	1168.5074	1199.8624	1224.8169	1285.2862	1303.6961	1377.4584	1387.0842	1414.1966	1439.271	1451.9386	1469.5107	1493.634	1497.1913	1498.8657	1518.8441	1525.6761	1529.0028	1704.5021	1776.1565	2978.8198	2995.7458	3027.8948	3034.8762	3048.7097	3052.176	3074.924	3102.1166	3116.1542	3118.762	3153.4592	3624.5472
CCNC(=NC)C(C)=O	CCNC(=NC)C(=O)C	
InChI=1S/C6H12N2O/c1-4-8-6(7-3)5(2)9/h4H2,1-3H3,(H,7,8)	InChI=1S/C6H12N2O/c1-4-8-6(7-3)5(2)9/h4H2,1-3H3,(H,7,8)
