18
gdb 5982	3.34844	1.25683	1.15315	2.9514	65.23	-0.2531	-0.0295	0.2236	1120.3566	0.149686	-422.073931	-422.064143	-422.063199	-422.108954	33.943	
C	-0.047772985	 1.3600187044	-0.1732858901	-0.233419
O	-0.048502121	-0.0499592561	-0.10964881	-0.254816
C	 0.8245549647	-0.6557076226	-1.0413685061	-0.091755
C	 0.5912615184	-2.1747663768	-0.9384171319	 0.260416
C	 1.0865998274	-2.7269116643	 0.4058543854	-0.425805
O	-0.783966604	-2.4507330692	-1.1500133099	-0.478679
C	 1.3382963182	-2.8362270388	-2.0947301563	 0.136852
O	 2.5381652951	-2.8860093345	-2.174194015	-0.261454
H	 0.9464408989	 1.7725400278	 0.0525794969	 0.116034
H	-0.3553998495	 1.7199986657	-1.1665634281	 0.113865
H	-0.7596007737	 1.7194797344	 0.5731574439	 0.133907
H	 0.5903196782	-0.3076230843	-2.0606365174	 0.095597
H	 1.8757965139	-0.4145401081	-0.8282215253	 0.113139
H	 0.6568102019	-2.1481177361	 1.2269946974	 0.127975
H	 0.7809515813	-3.7708282678	 0.5119654889	 0.126311
H	 2.1771366665	-2.6706535835	 0.4576968357	 0.133925
H	-1.2683480591	-1.7832732691	-0.648144973	 0.290387
H	 0.6665323179	-3.2558745812	-2.8748726855	 0.097521
44.0303	86.2826	122.0266	159.026	230.0301	237.0469	259.6324	286.2583	334.6145	377.101	423.0394	436.8385	517.4363	645.4048	789.4488	916.5703	948.5277	960.3422	1000.4638	1018.521	1134.3668	1155.4403	1171.4434	1200.763	1209.4666	1229.6043	1287.6547	1364.4531	1382.0689	1408.1661	1413.8895	1478.7441	1486.938	1492.9548	1495.7481	1501.1926	1522.271	1833.0632	2905.0183	2970.3774	2985.846	3028.1029	3035.5234	3049.8891	3121.5945	3130.9526	3133.6353	3782.8746
COCC(C)(O)C=O	COC[C@@](C)(O)C=O	
InChI=1S/C5H10O3/c1-5(7,3-6)4-8-2/h3,7H,4H2,1-2H3	InChI=1S/C5H10O3/c1-5(7,3-6)4-8-2/h3,7H,4H2,1-2H3/t5-/m0/s1
