18
gdb 66234	4.46267	0.70525	0.68533	3.8046	74.22	-0.2609	0.0035	0.2643	1650.5253	0.145464	-439.062539	-439.052985	-439.05204	-439.098056	34.1	
O	-0.1395511978	 1.3681813267	-0.2693860114	-0.469228
C	 0.0298348498	-0.0033187247	-0.0547668223	 0.423512
C	 1.113921453	-0.6060734349	-0.9057800737	-0.130338
O	 2.33065907	 0.050423353	-0.5533837206	-0.256806
C	 3.3989882019	-0.2869272515	-1.4008412427	-0.180514
C	 4.590370008	 0.4652978478	-0.9958531186	 0.263629
N	 5.5419670416	 1.0466971896	-0.6975735331	-0.289018
C	-0.2288469473	-0.5493404903	 1.3289290515	-0.312317
C	-1.2257591917	-0.7719536671	 0.2079718849	-0.313169
H	 0.7099965038	 1.782558182	-0.0747017683	 0.291013
H	 1.1984582179	-1.6902935453	-0.737524222	 0.096532
H	 0.895673366	-0.434156498	-1.9716091804	 0.104378
H	 3.6309024702	-1.3635431651	-1.353958533	 0.142107
H	 3.1736643309	-0.0495999191	-2.4534931265	 0.143704
H	 0.357367271	-1.391833577	 1.6795342169	 0.11503
H	-0.4926848836	 0.1754911937	 2.0898372417	 0.124568
H	-2.1390011592	-0.1889438948	 0.2280030795	 0.132224
H	-1.3299201346	-1.767630105	-0.209688202	 0.114691
41.7812	79.8941	90.6561	143.3928	211.1318	285.0026	338.2691	371.8811	386.0247	391.7879	452.3508	483.4189	596.6905	753.5372	778.1912	895.9808	921.7618	939.7396	959.6326	986.1587	1026.1429	1035.481	1049.5889	1069.5271	1085.075	1144.7011	1189.9905	1226.5369	1252.8586	1293.3241	1319.2945	1364.9773	1408.5329	1448.3027	1456.1893	1490.6062	1507.7019	1510.5105	2374.5269	2970.2598	2978.4718	2997.674	3019.4096	3137.1131	3140.3852	3223.1557	3236.5425	3787.0783
OC1(COCC#N)CC1	OC1(COCC#N)CC1	
InChI=1S/C6H9NO2/c7-3-4-9-5-6(8)1-2-6/h8H,1-2,4-5H2	InChI=1S/C6H9NO2/c7-3-4-9-5-6(8)1-2-6/h8H,1-2,4-5H2
