20
gdb 76833	2.2292	1.74284	1.34238	3.6712	78.34	-0.2332	0.0021	0.2353	1057.195	0.171035	-403.147331	-403.138779	-403.137835	-403.180347	32.955	
C	-0.0131950274	 1.6407436334	 0.0882689356	-0.413527
C	 0.0364568265	 0.1189634246	 0.022292141	-0.028631
C	 1.1099681526	-0.5435638919	-0.924509104	 0.026162
C	 1.9272391297	 0.2890642413	-1.8941875947	-0.402839
N	 1.8273601617	-1.0861611659	 0.2877995881	-0.148213
C	 0.7229009376	-0.6390390197	 1.2055790432	 0.011579
C	 1.7602633046	 0.0594848467	 2.1133589277	-0.389514
C	 2.7599182408	-0.2670965902	 0.9769979581	 0.390734
O	 3.8720432816	 0.072862181	 0.6898750593	-0.332153
H	 0.9707668039	 2.0883783865	 0.2551641179	 0.12939
H	-0.4078555862	 2.0573950373	-0.8439852078	 0.123044
H	-0.6691969386	 1.9676527644	 0.9022483909	 0.121523
H	-0.9703745736	-0.261951845	-0.1715074234	 0.078346
H	 0.672728132	-1.3920566785	-1.4607784834	 0.0912
H	 2.3900942474	 1.155741918	-1.418092021	 0.135766
H	 2.7291033827	-0.3157748089	-2.3274436963	 0.139594
H	 1.287464188	 0.6404010076	-2.7104216108	 0.116967
H	 0.1264379686	-1.4301105962	 1.6645681761	 0.082863
H	 1.6403628583	 1.1272473014	 2.3049554831	 0.134162
H	 1.9518540199	-0.450416086	 3.0609785406	 0.133544
68.1562	154.1349	212.7272	218.7659	246.3996	283.463	365.7504	419.2777	459.5543	504.2983	550.7605	671.5111	710.714	745.179	792.7433	811.378	920.5754	969.7867	971.7524	990.4442	1015.0709	1039.6701	1070.5546	1082.3417	1110.2166	1162.0839	1173.7181	1179.4206	1209.4344	1237.7415	1261.936	1308.5497	1330.9134	1362.4297	1384.7534	1414.9567	1419.0454	1446.5685	1484.2155	1488.4305	1501.3513	1508.2448	1876.1135	3036.0887	3040.815	3046.2879	3060.9637	3074.5566	3088.5127	3100.4146	3110.2404	3113.1012	3134.2511	3135.5125
CC1C(C)N2C1CC2=O	C[C@H]1[C@@H](C)N2[C@H]1CC2=O	
InChI=1S/C7H11NO/c1-4-5(2)8-6(4)3-7(8)9/h4-6H,3H2,1-2H3	InChI=1S/C7H11NO/c1-4-5(2)8-6(4)3-7(8)9/h4-6H,3H2,1-2H3/t4-,5+,6-/m0/s1
