22
gdb 88997	4.09594	0.82166	0.75606	1.9671	82.88	-0.2263	0.0865	0.3128	1585.3066	0.193655	-404.295536	-404.286019	-404.285075	-404.331108	34.577	
C	-0.306118922	 1.3698296788	-0.309697342	-0.410917
C	 0.4607506805	 0.0695972333	-0.2033445622	 0.033055
C	 1.8760193855	 0.0384337132	 0.2630222608	-0.25321
N	 0.8129471981	-0.5453175601	 1.077866555	-0.089321
C	 0.4539869641	 0.1132243175	 2.3270665123	-0.166542
C	 1.0794883618	-0.6322799445	 3.4970383901	 0.159905
C	 2.5719833069	-0.3951342676	 3.8237862518	-0.282409
C	 2.0461972551	 0.0764271827	 5.193485628	-0.062136
O	 0.6753487074	-0.060364967	 4.7644210867	-0.295238
H	 0.0595459327	 2.12777155	 0.3870990662	 0.121777
H	-0.2114244491	 1.7757257625	-1.3224181336	 0.122137
H	-1.3735566953	 1.216397099	-0.1154361817	 0.124821
H	 0.1648861867	-0.6712863116	-0.9457832248	 0.089243
H	 2.596453406	-0.6569136587	-0.160480191	 0.11179
H	 2.3022437469	 0.9871089546	 0.5905702851	 0.102807
H	 0.7522135402	 1.17321533	 2.3793607424	 0.082572
H	-0.6356987262	 0.074803434	 2.4474141574	 0.111511
H	 0.8057446447	-1.693259496	 3.4316492137	 0.082119
H	 3.2112585205	-1.2785988767	 3.8272153442	 0.111074
H	 3.043927863	 0.3864990409	 3.224499974	 0.106072
H	 2.2782898204	-0.5900816314	 6.0343624293	 0.099611
H	 2.2832990521	 1.1064001969	 5.4853117684	 0.101277
50.2207	68.2386	79.3295	140.0131	180.4964	240.2288	296.4203	375.1485	411.4401	446.7916	511.2889	751.4121	756.3811	801.812	827.0612	878.8809	902.8031	929.4468	950.3427	958.0162	1021.1871	1033.1854	1041.3796	1055.6121	1114.0447	1122.7502	1141.9516	1150.3144	1163.8369	1187.3902	1190.0187	1215.671	1254.778	1267.008	1276.5035	1336.6195	1341.0915	1375.4764	1399.5299	1406.5586	1422.2687	1483.109	1491.5415	1493.3816	1500.3515	1513.0736	1532.2306	2962.6814	3010.2861	3022.624	3035.5656	3051.9435	3054.7718	3077.4797	3081.7591	3093.1986	3098.6851	3125.834	3134.3356	3168.8032
CC1CN1CC1CCO1	C[C@H]1CN1C[C@H]1CCO1	
InChI=1S/C7H13NO/c1-6-4-8(6)5-7-2-3-9-7/h6-7H,2-5H2,1H3	InChI=1S/C7H13NO/c1-6-4-8(6)5-7-2-3-9-7/h6-7H,2-5H2,1H3/t6-,7+,8?/m0/s1
