13
gdb 21487	5.21899	1.61978	1.23842	2.8286	61.39	-0.2335	-0.0297	0.2038	895.8695	0.099147	-390.974725	-390.967926	-390.966982	-391.006195	25.061	
N	-0.1002314117	 1.3211648874	 0.231531285	-0.525643
C	 0.0578656434	-0.0314443353	 0.0666515051	 0.261686
N	 1.2277992346	-0.5461010024	-0.0293664393	-0.529345
C	-1.2131501107	-0.7905605247	 0.0474999504	 0.312579
N	-2.4042953004	-0.1798570047	 0.0237778786	-0.294553
N	-3.2651343241	-1.1825187775	-0.0000916103	-0.064815
N	-2.7527836837	-2.4064910615	 0.0083831938	-0.190962
C	-1.4414689297	-2.1816261133	 0.0381100833	-0.141642
H	 0.7153803371	 1.879822398	 0.037176465	 0.257446
H	-0.9978251978	 1.7205188974	 0.0130557377	 0.26692
H	 1.1769438889	-1.5594007529	-0.1024800038	 0.212273
H	-4.2605881752	-1.0265069939	-0.0224037816	 0.299364
H	-0.7428316608	-3.0021840765	 0.0558228761	 0.136692
52.1031	209.0645	216.387	379.7656	421.9844	484.7331	510.5162	542.2653	643.6527	663.6988	722.7836	770.9538	821.2445	888.1458	995.3283	1019.0563	1110.5108	1143.8709	1167.8935	1216.3539	1241.2303	1334.6696	1386.8983	1416.1197	1509.7278	1555.1093	1618.931	1709.8222	3275.6539	3514.863	3594.9849	3661.2349	3721.0734
NC(=N)C1=NNN=C1	NC(=N)c1n[nH]nc1	
InChI=1S/C3H5N5/c4-3(5)2-1-6-8-7-2/h1H,(H3,4,5)(H,6,7,8)	InChI=1S/C3H5N5/c4-3(5)2-1-6-8-7-2/h1H,(H3,4,5)(H,6,7,8)
