15
gdb 12631	3.40568	2.0121	1.34727	4.1438	63.86	-0.2191	-0.0217	0.1973	887.8831	0.118615	-399.830336	-399.822426	-399.821482	-399.862721	28.276	
C	 0.0277261214	 1.4511478794	-0.0036022402	-0.353605
N	-0.0358875591	 0.0069707832	-0.0383448793	-0.080709
C	 0.0108674408	-0.7908365278	-1.1954279618	-0.015137
C	 0.063261882	-2.0964269013	-0.9142487183	-0.211938
C	 0.0205024843	-2.2637180002	 0.5853485059	-0.00625
O	 1.0180341881	-3.0739419541	 1.1699341559	-0.411135
C	 0.0387601137	-0.7906730061	 1.0922447552	 0.350352
O	 0.1208453612	-0.3981398278	 2.232392861	-0.364377
H	 0.9348610195	 1.8262687455	-0.4920752919	 0.13078
H	-0.8451977788	 1.8982999802	-0.4911920792	 0.133657
H	 0.0419363899	 1.7463403115	 1.0470701008	 0.170607
H	-0.0105633652	-0.3002907877	-2.1597036702	 0.130484
H	 0.08201975	-2.9087607342	-1.6241961302	 0.114461
H	-0.9313065967	-2.7070171491	 0.9060934819	 0.128716
H	 1.875924979	-2.7067057716	 0.9296560504	 0.284092
90.2638	122.0538	148.4825	243.4459	288.8546	301.7212	324.4829	502.8127	552.7006	591.2665	701.8879	721.2632	759.5068	869.1544	918.658	969.6539	999.0139	1078.9055	1102.2687	1154.7487	1159.1256	1233.2873	1257.8392	1297.355	1329.0099	1405.7235	1417.7492	1456.6429	1494.4885	1511.6349	1668.8563	1827.7757	3023.5568	3033.9164	3079.5323	3143.9271	3221.7624	3258.3956	3804.3952
CN1C=CC(O)C1=O	CN1C=C[C@@H](O)C1=O	
InChI=1S/C5H7NO2/c1-6-3-2-4(7)5(6)8/h2-4,7H,1H3	InChI=1S/C5H7NO2/c1-6-3-2-4(7)5(6)8/h2-4,7H,1H3/t4-/m1/s1
