14
gdb 131952	4.66209	1.07693	0.87965	6.9125	68.95	-0.2686	-0.0725	0.1961	1237.7704	0.10156	-469.949753	-469.941877	-469.940932	-469.983183	27.734	
C	-0.0286834147	 1.4922203243	 0.089497738	-0.504348
C	 0.001957599	 0.009872968	-0.08715826	 0.404018
C	-0.0273931271	-0.7862245342	-1.2134792192	-0.381522
C	 0.0300940251	-2.0971376827	-0.7027624924	 0.438318
N	 0.0905441721	-2.148377903	 0.6190159989	-0.252762
N	 0.0719472933	-0.8566910277	 0.9667347445	-0.236854
N	 0.0273060474	-3.3186948865	-1.4854817879	 0.368134
O	-0.0318164778	-3.1699574118	-2.7031894842	-0.368879
O	 0.0818427229	-4.3866819431	-0.8989161083	-0.346405
H	 0.8739799819	 1.8576340844	 0.5914038707	 0.147422
H	-0.0921537627	 1.9808712667	-0.8841969903	 0.156066
H	-0.8930056263	 1.810182267	 0.6828200608	 0.147163
H	-0.0815244443	-0.4849313358	-2.2444554974	 0.144665
H	 0.109484351	-0.6242638457	 1.946709657	 0.284983
67.8641	68.9945	158.314	192.3302	315.0896	343.9653	415.6079	549.5412	569.4803	648.2272	685.0849	688.0736	793.0075	842.5917	845.1674	991.3997	1007.2408	1035.969	1065.1262	1132.5443	1224.351	1302.3906	1393.9008	1415.6372	1432.2777	1439.6095	1483.0452	1487.3772	1512.7738	1609.9222	1644.2289	3037.211	3090.8207	3139.2861	3300.3754	3650.8869
CC1=CC(=NN1)N(=O)=O	Cc1cc(n[nH]1)N(=O)=O	
InChI=1S/C4H5N3O2/c1-3-2-4(6-5-3)7(8)9/h2H,1H3,(H,5,6)	InChI=1S/C4H5N3O2/c1-3-2-4(6-5-3)7(8)9/h2H,1H3,(H,5,6)
