27
gdb 117657	2.60205	0.91358	0.80343	1.2932	92.32	-0.2577	0.0651	0.3228	1643.5951	0.248805	-390.707931	-390.695825	-390.694881	-390.744963	45.131	
C	 0.0951364109	 1.6198575742	-0.0445782543	-0.384497
C	-0.06529438	 0.0971850636	 0.0006320459	-0.174746
C	 0.6188362211	-0.5279834417	 1.2240587895	-0.209105
C	 0.7316137376	-2.0723105246	 1.2152796515	 0.346552
C	-0.6489233509	-2.7178566742	 1.0516048828	-0.413366
O	 1.4724145903	-2.4983747084	 0.0610379735	-0.46735
C	 1.4311704461	-2.5792170411	 2.5209900604	 0.038861
C	 1.4784120366	-4.1142526836	 2.5984036271	-0.404052
C	 2.8563663494	-2.0242130575	 2.6940660347	-0.420969
H	 1.1514576513	 1.9080747429	-0.0946016575	 0.109754
H	-0.4071103375	 2.0471467154	-0.9182400059	 0.11097
H	-0.3314010027	 2.0924990316	 0.8476277674	 0.111728
H	-1.1332778236	-0.1475845876	-0.0020981802	 0.098239
H	 0.3563649755	-0.350889771	-0.9061748169	 0.106878
H	 1.6305263855	-0.107990741	 1.2938584885	 0.083313
H	 0.1023310311	-0.2129888673	 2.1406467886	 0.09034
H	-1.1461928692	-2.3390028671	 0.1570603661	 0.121568
H	-0.5586785272	-3.7993308853	 0.9405857328	 0.124676
H	-1.2828763625	-2.5062535199	 1.9185117071	 0.106774
H	 2.3129603543	-2.0287569082	 0.0595798308	 0.275949
H	 0.8272957328	-2.2090338514	 3.3611415921	 0.067446
H	 1.9279578762	-4.5257853118	 1.6893826422	 0.126787
H	 2.0824888409	-4.4352067481	 3.4529607509	 0.102399
H	 0.4864895661	-4.5564651323	 2.7165816757	 0.112536
H	 3.5128059275	-2.3505934768	 1.8778631437	 0.107162
H	 2.8900411229	-0.9331767295	 2.7444389172	 0.116407
H	 3.2959173476	-2.4047546692	 3.6211122863	 0.115744
51.7383	89.5898	91.9838	140.5047	189.8618	218.6333	233.0791	252.3072	287.2587	314.7244	315.6112	324.3164	371.6091	379.249	387.1206	455.2354	502.4271	608.7761	735.222	749.0558	837.8897	871.5699	911.8679	924.1065	937.5157	946.9032	965.2108	1013.2207	1047.9172	1067.8877	1086.3529	1110.7906	1154.6973	1174.9891	1201.8502	1220.1304	1267.4291	1316.7119	1324.5109	1334.805	1347.3148	1381.6623	1387.8334	1399.8415	1410.0628	1414.5619	1423.5603	1473.16	1484.9547	1490.293	1494.8643	1495.9674	1500.5355	1509.4178	1511.8731	1513.4216	1523.8756	3005.9632	3012.9084	3026.0869	3028.8132	3037.5683	3040.5915	3046.307	3052.941	3071.5827	3091.7506	3096.766	3099.722	3105.0488	3115.6264	3119.6589	3128.2658	3141.7526	3813.6902
CCCC(C)(O)C(C)C	CCC[C@@](C)(O)C(C)C	
InChI=1S/C8H18O/c1-5-6-8(4,9)7(2)3/h7,9H,5-6H2,1-4H3	InChI=1S/C8H18O/c1-5-6-8(4,9)7(2)3/h7,9H,5-6H2,1-4H3/t8-/m1/s1
