18
gdb 110951	2.80896	1.21122	1.01842	1.6135	73.5	-0.2471	0.0007	0.2478	1208.6541	0.146707	-439.027287	-439.018329	-439.017384	-439.061109	32.937	
C	 0.0269864764	 1.4796903639	-0.0638839296	-0.524339
C	-0.0051890696	-0.0138427224	 0.0381723226	 0.16551
N	 0.5710467551	-0.945449593	-1.0458182007	-0.345747
C	 0.054853807	-1.9191307905	 0.0101509844	-0.178732
C	 0.6845621147	-0.9670497403	 1.0755782447	-0.01536
C	 2.201039791	-0.927225881	 1.2103421291	-0.117543
O	 2.6879369353	-2.0462020397	 1.9408796019	-0.417927
C	-1.1911567484	-1.010449035	 0.056284428	 0.414994
O	-2.3782633974	-1.0408458519	-0.0506078476	-0.329123
H	 1.0506278115	 1.847491507	-0.1812655912	 0.138723
H	-0.5636824037	 1.8239415925	-0.9188359356	 0.136549
H	-0.399939434	 1.9271709905	 0.8389584957	 0.140114
H	-0.027697441	-0.9556089913	-1.8768600769	 0.229203
H	 0.1574384723	-2.9969727963	-0.1019814657	 0.097146
H	 0.2097518508	-1.0059920259	 2.0594922959	 0.09283
H	 2.6738570465	-0.8436086272	 0.2263688905	 0.118109
H	 2.4852997528	-0.0474520347	 1.7980547278	 0.111338
H	 2.6050087607	-2.8211539446	 1.3765886065	 0.284255
81.8674	126.0207	154.3461	171.746	208.4281	274.3377	297.4436	333.237	404.4023	523.9833	575.1479	649.9713	712.5331	762.0927	803.327	818.173	840.2939	899.5507	993.5766	1025.4463	1065.1075	1068.162	1091.1958	1108.0371	1149.6557	1163.5109	1180.2028	1217.7049	1254.3152	1270.8812	1344.941	1365.0185	1407.3139	1411.4146	1425.8758	1481.4426	1487.4598	1505.5059	1901.1141	3039.1023	3041.2728	3077.2053	3093.2005	3109.4236	3114.9681	3140.411	3404.8064	3821.5933
CC12NC(C1CO)C2=O	C[C@@]12N[C@@H]([C@H]1CO)C2=O	
InChI=1S/C6H9NO2/c1-6-3(2-8)4(7-6)5(6)9/h3-4,7-8H,2H2,1H3	InChI=1S/C6H9NO2/c1-6-3(2-8)4(7-6)5(6)9/h3-4,7-8H,2H2,1H3/t3-,4+,6-/m1/s1
