21
gdb 109354	3.06321	1.11774	0.8652	1.329	86.14	-0.2227	0.0221	0.2448	1366.1679	0.183189	-387.092329	-387.083186	-387.082242	-387.126555	34.433	
O	 0.1284540844	 1.4422620623	 0.2137147923	-0.413621
C	 0.046141711	 0.0453424954	 0.0149965192	-0.139527
C	-1.3887355806	-0.4259637401	-0.0611113627	 0.249505
C	-2.392440574	 0.4528531967	-0.0513635009	-0.108597
C	-3.8812172065	 0.2234424243	-0.0817169928	-0.242258
C	-4.3643305524	-1.2050290839	 0.2207912204	-0.259143
C	-3.8863975108	-2.2109585494	-0.7944885484	-0.0491
C	-2.6034996606	-2.5239521885	-0.9574167004	-0.0472
C	-1.4791882745	-1.9434028439	-0.129772003	-0.354231
H	 1.0543388047	 1.6950531257	 0.1683728325	 0.288282
H	 0.5628427472	-0.2538568465	-0.915239962	 0.091613
H	 0.5518310944	-0.5016507888	 0.8322464044	 0.089116
H	-2.104838257	 1.4998475115	-0.0079383481	 0.10226
H	-4.3420253581	 0.9110720561	 0.6410679194	 0.098858
H	-4.271083083	 0.5360132294	-1.0622546952	 0.106915
H	-4.0100413337	-1.4883552058	 1.2217571101	 0.106989
H	-5.4579549204	-1.2075218179	 0.2688053162	 0.093264
H	-4.6330071333	-2.6809163889	-1.4300929892	 0.083049
H	-2.3227276527	-3.2528220366	-1.7135104333	 0.084575
H	-0.5257509377	-2.3216509794	-0.5184675694	 0.096491
H	-1.5365005764	-2.342986032	 0.8963737908	 0.122762
46.0382	123.1052	163.6759	208.6922	221.8195	267.4308	302.2728	347.6455	415.7523	466.3842	514.2393	623.0714	688.4217	703.5851	797.8619	849.6669	879.3223	907.34	939.8584	969.9251	989.7431	1030.3424	1046.9584	1061.5104	1083.0694	1099.0007	1142.4892	1194.898	1221.3834	1235.7521	1245.2452	1268.098	1277.4933	1341.1094	1368.5295	1379.6425	1397.1571	1418.4942	1455.374	1468.8539	1474.7102	1487.7178	1508.4337	1729.5911	1753.8106	2928.0639	2941.3237	2969.6516	2993.0895	3006.8868	3025.4096	3038.8838	3070.5551	3143.11	3167.004	3168.0313	3843.0397
OCC1=CCCC=CC1	OCC1=CCCC=CC1	
InChI=1S/C8H12O/c9-7-8-5-3-1-2-4-6-8/h1,3,6,9H,2,4-5,7H2	InChI=1S/C8H12O/c9-7-8-5-3-1-2-4-6-8/h1,3,6,9H,2,4-5,7H2
