23
gdb 94446	2.7669	1.28868	1.16897	0.062	91.45	-0.2292	0.0259	0.2551	1215.6408	0.207229	-351.164604	-351.155959	-351.155014	-351.197688	34.36	
C	-0.647335389	 1.2560295386	-0.0289544392	-0.420119
C	 0.1446686195	-0.038438464	-0.126438374	 0.001522
C	 1.5623829806	-0.0224506148	-0.7568072174	-0.234764
C	 1.9876532319	-1.1038356891	 0.265671261	-0.270718
C	 0.7531414215	-0.7179316134	 1.1541287224	 0.337156
C	 1.0837010154	 0.212645872	 2.3516571458	-0.282652
C	 1.0026608002	-0.6832249039	 3.6145250166	-0.263676
C	 0.1508944824	-1.839552909	 3.1473122535	-0.07492
C	 0.0141567698	-1.845187125	 1.8220482667	-0.142652
H	-0.0586640474	 2.0601624552	 0.4252770042	 0.113641
H	-0.9521930315	 1.5965042818	-1.0250284751	 0.111099
H	-1.5570427583	 1.1275174357	 0.5688201761	 0.115128
H	-0.4647738804	-0.7915188624	-0.6422194186	 0.065757
H	 1.6508369006	-0.2600111831	-1.8200103401	 0.090578
H	 2.0683680574	 0.9314249077	-0.5737317112	 0.096178
H	 1.8866112497	-2.1143240127	-0.1419544566	 0.094681
H	 2.9741360365	-1.0154961024	 0.7292376762	 0.092682
H	 2.0490070597	 0.7162341715	 2.2469840815	 0.091328
H	 0.3194578574	 0.9925440706	 2.427350626	 0.103121
H	 1.9931880121	-1.0380913579	 3.9327037624	 0.104832
H	 0.578118115	-0.1539295788	 4.4752505943	 0.099859
H	-0.251720475	-2.5852058499	 3.8245826644	 0.088776
H	-0.5161096481	-2.5985105868	 1.2470920813	 0.083163
92.7995	108.0186	196.4731	213.715	246.0286	315.8547	358.3611	453.4615	455.728	518.591	625.6221	703.0598	744.5547	787.7362	806.6316	856.6478	892.8366	899.8352	925.1991	940.0692	954.0527	962.6077	976.8901	1005.9837	1053.2809	1068.272	1105.8987	1120.7204	1151.4683	1174.718	1189.254	1201.5709	1242.8424	1247.179	1263.8944	1267.7694	1301.5575	1316.6764	1326.7104	1373.9298	1386.5954	1407.9584	1477.9666	1483.9331	1492.0497	1497.801	1500.5292	1503.9272	1679.171	3007.7481	3017.4262	3024.3847	3044.9524	3045.0885	3049.6041	3057.1036	3087.3738	3090.8724	3092.7951	3096.463	3107.3448	3168.3058	3197.265
CC1CCC11CCC=C1	C[C@H]1CC[C@]21CCC=C2	
InChI=1S/C9H14/c1-8-4-7-9(8)5-2-3-6-9/h2,5,8H,3-4,6-7H2,1H3	InChI=1S/C9H14/c1-8-4-7-9(8)5-2-3-6-9/h2,5,8H,3-4,6-7H2,1H3/t8-,9+/m0/s1
