17
gdb 57131	2.88436	0.88681	0.73392	1.8329	89.89	-0.244	-0.0145	0.2295	1537.8877	0.133057	-384.613061	-384.60353	-384.602586	-384.648035	34.357	
C	-0.1896552441	 1.5268045711	 0.15633398	-0.385413
C	 0.0438089882	 0.0039798911	 0.0293144427	-0.24819
C	 0.7520199258	-0.5189795772	 1.1915150308	 0.478983
C	 1.3602085002	-0.9339159979	 2.1523171	-0.316667
C	 2.0398706777	-1.3988168168	 3.2359201915	 0.300247
C	 2.6446918235	-1.8127229875	 4.1956041144	-0.564336
C	-1.2856857926	-0.703232658	-0.2292697128	 0.106591
C	-1.6482315765	-2.0118505003	 0.3220567563	-0.190053
O	-2.1915967117	-0.8010909402	 0.862681687	-0.229808
H	 0.7556788677	 2.0539853561	 0.3025469283	 0.130448
H	-0.666147108	 1.9108191322	-0.7510808329	 0.118227
H	-0.8423270642	 1.7344908725	 1.0075178385	 0.148784
H	 0.6699157704	-0.1751472014	-0.8577634574	 0.1164
H	 3.1737287034	-2.1741790128	 5.0421194878	 0.191531
H	-1.7496462114	-0.3949774076	-1.1687751289	 0.095241
H	-2.3568237112	-2.6416491381	-0.2137133317	 0.115588
H	-0.9460103572	-2.5308200253	 0.9701578364	 0.132428
64.2725	76.2946	108.544	198.1124	224.1067	240.3802	251.6297	360.2226	415.0848	503.2238	531.5109	546.1487	571.4056	594.5018	607.8978	705.028	795.2354	867.0863	935.9829	986.6902	1012.239	1070.5633	1087.879	1113.8544	1162.4309	1172.1026	1200.9921	1292.0517	1299.1079	1347.9341	1401.0759	1427.9863	1491.0243	1501.2988	1523.3793	2181.5648	2361.9401	2997.0018	3045.9716	3085.515	3094.7513	3121.1329	3137.8668	3187.3674	3505.0538
CC(C#CC#C)C1CO1	C[C@@H](C#CC#C)[C@H]1CO1	
InChI=1S/C8H8O/c1-3-4-5-7(2)8-6-9-8/h1,7-8H,6H2,2H3	InChI=1S/C8H8O/c1-3-4-5-7(2)8-6-9-8/h1,7-8H,6H2,2H3/t7-,8+/m0/s1
