21
gdb 96610	1.92435	1.45521	1.01461	2.615	84.44	-0.2169	-0.0276	0.1893	1298.8653	0.178314	-420.414773	-420.403149	-420.402205	-420.45228	39.314	
C	 0.04433673	 1.453733278	 0.1984944943	-0.333066
N	 0.0121942708	 0.004889185	 0.1995172116	-0.31333
C	-1.0869617507	-0.6407743382	 0.1618720913	 0.320823
N	-1.1103064323	-2.0189872762	 0.2834473395	-0.10304
C	 0.1693543004	-2.7017780319	 0.3936828902	-0.320729
C	-2.1571578408	-2.7880337091	-0.3717855104	-0.34246
C	-2.4632758588	 0.0309535473	 0.1017999351	 0.288458
C	-3.210820378	 0.0994585486	 1.418727323	-0.478434
O	-2.8791455501	 0.5289633859	-0.9182247923	-0.295653
H	 0.7050624037	 1.7916220491	-0.6082560999	 0.128508
H	-0.9241314231	 1.9537962626	 0.0620114047	 0.113197
H	 0.4895581964	 1.812413058	 1.1355008855	 0.116686
H	 0.8168883834	-2.1484981209	 1.0729806433	 0.150725
H	-0.0028877836	-3.7110507318	 0.7795427678	 0.112792
H	 0.6856616972	-2.7773895713	-0.5745624991	 0.11954
H	-3.1003545934	-2.2387001181	-0.3815223386	 0.143645
H	-1.9039664441	-3.0322645173	-1.4150747266	 0.125285
H	-2.3156363311	-3.7266929243	 0.1689318367	 0.126462
H	-3.2718886552	-0.8896525316	 1.8826167052	 0.145993
H	-2.64944854	 0.7369294792	 2.1127666984	 0.153088
H	-4.2067605907	 0.5175255871	 1.2637179004	 0.141513
38.1019	84.0052	114.229	128.3922	132.8579	155.7152	181.0755	195.1772	216.8416	256.7816	298.7679	368.7683	407.464	443.2149	554.2601	603.2577	674.8689	724.2262	914.8668	968.1498	1033.3424	1049.6374	1079.6516	1112.8965	1123.9925	1134.4566	1172.272	1180.4926	1224.2402	1290.4099	1374.181	1401.9581	1441.7729	1449.8376	1459.4896	1465.1454	1471.228	1475.8948	1486.4786	1491.4608	1503.8868	1509.1356	1531.0677	1709.8115	1801.7083	2986.8182	2997.7071	3001.9357	3036.2203	3055.923	3068.6359	3069.5277	3080.4799	3102.6236	3129.5957	3150.5517	3155.4926
CN=C(N(C)C)C(C)=O	CN=C(N(C)C)C(=O)C	
InChI=1S/C6H12N2O/c1-5(9)6(7-2)8(3)4/h1-4H3	InChI=1S/C6H12N2O/c1-5(9)6(7-2)8(3)4/h1-4H3
