22
gdb 97661	2.82542	0.80369	0.68484	1.409	93.77	-0.2292	0.0518	0.2809	1769.9662	0.191912	-367.176106	-367.165213	-367.164269	-367.212992	39.068	
C	-0.0283094431	 1.6193251733	 0.0224477639	-0.363495
C	 0.0068068705	 0.0803116478	-0.0049418582	-0.31907
C	 0.6751039673	-0.457431991	-1.1856901989	 0.120965
C	 1.2454250154	-0.8862117911	-2.1572608153	 0.054378
C	 1.8864674618	-1.3723599669	-3.3567539649	 0.081149
C	 1.7238259982	-0.465331425	-4.5659375494	-0.464077
N	 3.1977406773	-2.0479829939	-3.1548105829	-0.356233
C	 2.042303577	-2.8473691949	-3.5858480736	-0.018808
C	 1.5386568473	-3.8939257855	-2.6250826392	-0.402649
H	 0.9846123419	 2.0306723419	 0.0111224147	 0.129182
H	-0.5610255337	 2.011736785	-0.8481786859	 0.125559
H	-0.5352627891	 1.9735887919	 0.925044461	 0.113084
H	 0.5133639653	-0.2897832827	 0.8958035481	 0.130797
H	-1.0182009637	-0.3097946331	 0.0456808094	 0.126256
H	 2.1904918561	 0.508347006	-4.3841263661	 0.129644
H	 2.1880109776	-0.912495224	-5.4512673123	 0.108949
H	 0.6655988575	-0.2921515642	-4.7845408033	 0.131188
H	 3.8016864171	-1.8383229973	-3.946908424	 0.225649
H	 2.0122962948	-3.1408542568	-4.6355155705	 0.078863
H	 1.5564541309	-3.5145249083	-1.6014826353	 0.137668
H	 0.51151781	-4.1843233551	-2.8708772218	 0.114088
H	 2.1662404737	-4.7903417961	-2.6722068653	 0.116914
30.6557	71.1331	110.0271	151.3858	178.7741	197.81	229.0744	251.556	282.4824	349.4507	357.3627	463.6786	497.9533	531.559	581.2797	613.4633	759.9944	786.8212	821.2431	897.6822	953.4838	973.4176	1027.7504	1038.756	1070.1002	1090.0208	1094.821	1104.5592	1133.7714	1148.6633	1240.5679	1280.9112	1286.8403	1346.3431	1370.9462	1405.2523	1409.4132	1412.4644	1449.0531	1475.1733	1481.2526	1487.9296	1493.108	1494.8055	1501.9491	1505.6355	2361.2832	3017.6565	3029.8847	3036.3551	3043.6639	3044.7293	3097.1666	3097.8513	3102.2778	3106.024	3116.5676	3123.1075	3136.7917	3485.75
CCC#CC1(C)NC1C	CCC#C[C@@]1(C)N[C@H]1C	
InChI=1S/C8H13N/c1-4-5-6-8(3)7(2)9-8/h7,9H,4H2,1-3H3	InChI=1S/C8H13N/c1-4-5-6-8(3)7(2)9-8/h7,9H,4H2,1-3H3/t7-,8+/m0/s1
