16
gdb 14485	4.70065	1.79103	1.71918	1.5072	67.99	-0.2152	0.0757	0.2909	817.8559	0.129104	-346.49057	-346.483695	-346.48275	-346.521001	27.714	
C	-0.0360726044	 1.5004004013	-0.0121543002	-0.521575
C	 0.0102367835	 0.0074299051	 0.0165917366	 0.368302
C	-0.0684152554	-1.0132313221	-1.1124799691	-0.131871
C	 0.7924489704	-2.0122201572	-0.2886123445	-0.13761
C	 0.8849343341	-0.984134461	 0.8512871664	-0.260841
C	-0.2423060544	-2.0089082927	 0.810139507	 0.395065
O	-0.5529962943	-3.0414266484	 1.6536783315	-0.451531
C	-1.1289491918	-1.0069055261	-0.0142420199	-0.247292
H	 0.9302063849	 1.9276351175	-0.3052853611	 0.121057
H	-0.7853878829	 1.8484454186	-0.7318652131	 0.120996
H	-0.3009357848	 1.9140278274	 0.9683870661	 0.11803
H	-0.1890748232	-0.8633624212	-2.1782196951	 0.081317
H	 1.4996692068	-2.7815177678	-0.5666713873	 0.090555
H	 1.6801198646	-0.8394872922	 1.571332657	 0.084657
H	-0.8115907561	-2.6719036547	 2.5062384343	 0.287159
H	-2.1962404071	-0.8410655467	-0.0911886985	 0.083583
195.8184	215.5861	246.2212	315.0784	354.3988	388.7428	537.5049	621.1887	667.2755	764.7384	782.4343	798.5366	819.6439	853.6069	863.1535	882.3983	907.5148	939.1692	973.3381	990.3487	1058.0116	1086.1519	1097.0937	1119.3081	1152.3791	1210.7704	1239.0213	1256.7101	1307.1168	1403.428	1433.4414	1466.0153	1481.6953	1498.5989	3017.0544	3075.6043	3089.3946	3181.6017	3193.5389	3197.1524	3212.7152	3776.458
CC12C3C4C1C4(O)C23	C[C@@]12[C@H]3[C@H]4[C@@H]1[C@@]4(O)[C@@H]23	
InChI=1S/C7H8O/c1-6-2-3-5(6)7(3,8)4(2)6/h2-5,8H,1H3	InChI=1S/C7H8O/c1-6-2-3-5(6)7(3,8)4(2)6/h2-5,8H,1H3/t2-,3-,4+,5-,6-,7-/m0/s1
