19
gdb 82775	3.03353	1.92751	1.79961	0.3284	76.79	-0.2041	0.0704	0.2745	873.8387	0.162476	-381.99162	-381.985119	-381.984174	-382.022072	27.683	
C	-0.1208149638	 1.6200063494	-0.0616422753	-0.431604
C	 0.0257162839	 0.1087414546	-0.0278299919	 0.068396
C	 0.5483616083	-0.6616660696	-1.2299883913	-0.004103
C	 1.2788163945	-1.6166768859	-0.2774164233	-0.032295
C	 2.5676873819	-1.3341316453	-1.061742549	-0.049612
C	 2.8631051391	 0.0482010976	-0.6674780222	-0.033381
C	 2.3415259944	 0.2666797365	 0.7403327152	-0.198361
N	 1.116416589	-0.5428029838	 0.8192964507	-0.159371
N	 1.8936353412	-0.1889998546	-1.7904253936	-0.180994
H	 0.7237667514	 2.1148092024	-0.5475094931	 0.134403
H	-1.0226396143	 1.8782658858	-0.6265614916	 0.121015
H	-0.2344328207	 2.029352061	 0.9479179769	 0.126346
H	-0.9234258392	-0.3337879684	 0.3011620368	 0.080743
H	-0.0948141477	-0.966124878	-2.0579951592	 0.07383
H	 0.9698784731	-2.6187643991	 0.0124000455	 0.077341
H	 3.2303216511	-2.0398052915	-1.5491431922	 0.09467
H	 3.767469846	 0.5398246595	-1.0132776797	 0.096784
H	 3.0860882178	-0.0959075286	 1.4619460377	 0.104005
H	 2.1268228639	 1.3073478778	 0.9920104796	 0.112185
160.0296	237.6424	288.48	419.1088	485.3534	548.8739	626.5359	638.728	669.9961	756.1507	777.1472	789.0472	852.0005	855.8557	890.8186	922.1296	931.5316	939.1953	979.7652	1006.4651	1040.6771	1059.2399	1078.7237	1096.5666	1135.611	1152.7854	1185.6842	1194.234	1221.9836	1243.9355	1262.0612	1283.3698	1300.5979	1311.2224	1329.7453	1385.0122	1399.9313	1407.4362	1490.9859	1495.4934	1519.5867	3013.4308	3015.2686	3037.3297	3085.7597	3099.3183	3105.6675	3120.8003	3131.9336	3159.4835	3180.1687
CC1C2C3C4C(CN13)N24	C[C@H]1[C@@H]2[C@H]3[C@@H]4[C@H](CN13)N24	
InChI=1S/C7H10N2/c1-3-5-7-6-4(9(5)6)2-8(3)7/h3-7H,2H2,1H3	InChI=1S/C7H10N2/c1-3-5-7-6-4(9(5)6)2-8(3)7/h3-7H,2H2,1H3/t3-,4-,5+,6-,7-,9?/m0/s1
