20
gdb 69809	3.13721	1.58576	1.26011	1.5247	84.27	-0.2257	0.0191	0.2448	1059.5241	0.173264	-365.994299	-365.986719	-365.985775	-366.025767	31.42	
C	-0.0332831151	 1.5260533186	 0.0032357464	-0.483529
C	 0.0081042606	 0.0124202816	-0.0016128147	 0.307301
N	-0.79046319	-0.7090144919	 1.0319348013	-0.369048
C	 0.6809747027	-0.7205831708	 1.1153348302	-0.104714
C	 1.395999626	-2.018711192	 0.8602758609	-0.026058
C	 0.6232082841	-3.2703261731	 0.5580719589	-0.295267
C	 1.3774466821	-2.5671326267	-0.5598224889	-0.087658
C	 0.6647346735	-1.7821861177	-1.588341134	-0.068936
C	 0.0399478285	-0.6258313622	-1.3428997381	-0.107399
H	 0.8148813563	 1.9473660163	-0.546858343	 0.127766
H	-0.9510757504	 1.8924050193	-0.4725194187	 0.122407
H	-0.0019650222	 1.9209826634	 1.0241854372	 0.110016
H	-1.1633613349	-0.0346772503	 1.697627504	 0.221489
H	 1.1377806919	-0.1014240797	 1.8839150567	 0.075347
H	 2.328163999	-2.128157275	 1.4040308313	 0.080087
H	 1.0218934439	-4.2155561394	 0.9096546043	 0.105389
H	-0.4563002557	-3.1817333914	 0.559705312	 0.142015
H	 2.2728845081	-3.0751993279	-0.9065600572	 0.083259
H	 0.66983858	-2.1801849986	-2.6002867922	 0.087515
H	-0.4593992083	-0.0961736524	-2.1506219764	 0.080016
165.8531	177.2878	223.9341	310.5286	341.1347	384.3441	480.0998	485.4493	550.2941	632.5113	679.5725	715.9658	775.2558	791.7317	825.3949	871.7581	876.9831	908.3847	965.0005	976.3111	986.6019	1007.8907	1033.4749	1052.2419	1070.4952	1103.3233	1118.2637	1125.4596	1136.3259	1174.1312	1212.8483	1223.7466	1288.5765	1331.3926	1381.95	1401.1468	1415.5927	1435.8792	1445.1225	1477.5713	1486.2046	1502.7635	1702.34	3022.6854	3086.0386	3098.9964	3126.5134	3136.2394	3138.9298	3145.2955	3163.8364	3166.8084	3238.7283	3479.0851
CC12NC1C1CC1C=C2	C[C@]12N[C@H]1[C@H]1C[C@H]1C=C2	
InChI=1S/C8H11N/c1-8-3-2-5-4-6(5)7(8)9-8/h2-3,5-7,9H,4H2,1H3	InChI=1S/C8H11N/c1-8-3-2-5-4-6(5)7(8)9-8/h2-3,5-7,9H,4H2,1H3/t5-,6+,7+,8-/m1/s1
