17
gdb 92037	2.92384	1.62613	1.23249	2.0926	66.26	-0.2616	0.0545	0.3161	1001.9548	0.136942	-458.924254	-458.916981	-458.916037	-458.955857	28.887	
O	-0.0003116418	 1.4274781896	 0.0091954141	-0.434462
C	 0.0395853134	 0.0079495941	-0.0383093665	 0.102635
C	 0.8671423163	-0.5662507632	 1.128667696	-0.267797
C	 0.8236486351	-2.0860916072	 1.208173833	 0.011676
O	-0.0270450881	-2.6578501519	 2.2112472229	-0.236938
C	-0.4239350965	-2.7793092114	 0.8496906018	 0.040264
C	-1.5982078858	-1.9553110147	 0.3828941913	 0.009404
O	-1.9699616215	-0.8355207296	 1.1845706833	-0.244309
C	-1.3578196355	-0.5790976741	-0.0861369458	 0.008182
H	-0.4560944526	 1.6743895936	 0.8225664871	 0.287201
H	 0.5310330592	-0.2239893997	-0.9922730447	 0.095539
H	 1.8961964178	-0.2118073844	 1.0293365949	 0.111875
H	 0.4655411415	-0.1691318492	 2.0663154366	 0.126593
H	 1.7666795689	-2.6162493501	 1.0826450746	 0.098586
H	-0.3882330059	-3.7917542755	 0.4472250451	 0.092194
H	-2.4395687067	-2.5134617746	-0.0259937775	 0.097986
H	-2.0193517776	-0.1421748516	-0.8337625661	 0.101371
112.0601	194.3018	250.3165	336.9704	378.1166	405.4934	407.3626	498.3949	585.5145	621.9306	704.855	772.9033	821.1048	844.6891	887.1692	920.0642	964.6943	979.2549	1030.1579	1056.6328	1078.0974	1089.2075	1119.5947	1135.9843	1148.5464	1207.7156	1259.0108	1281.0965	1292.1236	1331.6071	1363.515	1370.3845	1384.429	1426.8286	1451.5996	1464.572	1476.1259	3031.0428	3058.3793	3101.9652	3106.3972	3116.4147	3122.2998	3128.9165	3792.923
OC1CC2OC2C2OC12	O[C@H]1C[C@H]2O[C@H]2[C@H]2O[C@@H]12	
InChI=1S/C6H8O3/c7-2-1-3-5(8-3)6-4(2)9-6/h2-7H,1H2	InChI=1S/C6H8O3/c7-2-1-3-5(8-3)6-4(2)9-6/h2-7H,1H2/t2-,3+,4-,5+,6-/m0/s1
