23
gdb 111803	2.75323	1.31088	1.25321	1.6872	83.85	-0.2334	0.0769	0.3103	1177.7114	0.20886	-388.309526	-388.30132	-388.300375	-388.342239	32.889	
C	-0.003806904	 1.6015988096	-0.1546972576	-0.383092
C	 0.0147337012	 0.0731929531	-0.0285645765	-0.219022
C	-1.3825369649	-0.5330622658	 0.1121776577	 0.040617
C	-1.4843410591	-2.0710489612	 0.2865294391	-0.063627
C	-0.8506622723	-2.3017170237	 1.681105487	-0.216324
C	-1.3309173783	-1.0493358062	 2.4839757826	-0.217129
C	-2.1578777133	-0.2943189691	 1.4249247351	 0.104048
O	-3.3736673431	-1.0300935473	 1.2116839699	-0.285489
C	-3.0061624256	-2.1986123505	 0.4503824201	-0.079999
H	 1.0058436826	 1.9979498948	-0.3002108566	 0.112176
H	-0.6135092688	 1.9209610076	-1.0070302618	 0.116615
H	-0.4185356953	 2.0740219764	 0.7419107971	 0.118788
H	 0.4908236659	-0.3556734523	-0.9198929972	 0.095807
H	 0.6498595927	-0.2116130384	 0.8170101853	 0.09948
H	-1.9978024372	-0.2006620613	-0.7329941168	 0.070182
H	-1.0706086151	-2.6844252445	-0.5160929565	 0.060217
H	-1.1914595297	-3.2409819898	 2.1257845746	 0.096984
H	 0.2396762146	-2.3511789591	 1.6201244396	 0.09702
H	-1.9626604959	-1.3075637518	 3.3365241676	 0.105879
H	-0.4947308139	-0.4497944524	 2.8570764366	 0.094499
H	-2.4285392888	 0.7313847138	 1.6785891937	 0.069026
H	-3.5343469785	-2.1883978717	-0.5129011674	 0.09122
H	-3.3027342033	-3.1036597702	 0.9957381643	 0.092125
75.03	171.83	201.662	210.1295	283.4349	336.3421	398.417	435.2378	513.9958	603.3638	724.6149	768.819	795.5669	844.4344	845.9866	877.1756	897.6399	909.426	955.8937	964.991	976.5959	1004.0937	1029.2565	1037.8467	1065.8728	1080.5559	1110.3005	1147.0474	1159.6067	1181.9044	1210.2518	1235.1937	1248.5676	1275.0252	1288.5185	1307.6933	1310.3904	1331.531	1346.5542	1360.1464	1378.441	1411.6264	1415.8306	1477.1816	1494.3889	1501.1207	1504.1196	1510.2651	1530.985	3001.1598	3024.3584	3031.0788	3033.6107	3039.4587	3052.2193	3059.5855	3070.2203	3090.8471	3098.8797	3101.9468	3103.7904	3112.754	3114.161
CCC1C2CCC1OC2	CC[C@H]1[C@H]2CC[C@@H]1OC2	
InChI=1S/C8H14O/c1-2-7-6-3-4-8(7)9-5-6/h6-8H,2-5H2,1H3	InChI=1S/C8H14O/c1-2-7-6-3-4-8(7)9-5-6/h6-8H,2-5H2,1H3/t6-,7-,8-/m0/s1
