15
gdb 31203	2.35333	1.54832	0.946	3.6761	79.55	-0.1934	0.0083	0.2017	1186.2915	0.112224	-416.801354	-416.792747	-416.791803	-416.835013	31.044	
C	-0.0772638352	 1.465139042	-0.1191885874	-0.336291
N	 0.2978916297	 0.0709174261	 0.0785326362	-0.404313
C	 0.709245323	-0.6971490822	-0.968923742	 0.349277
C	 0.7016873437	-2.0543421281	-1.1989541846	 0.034111
N	 1.3431028434	-2.2867436916	-2.4248396003	-0.297909
C	 1.6741866378	-1.1238814391	-2.8501460622	 0.043317
O	 1.3199486831	-0.088408469	-2.0130521468	-0.181411
C	 0.153005977	-3.0460534584	-0.3643988308	 0.212711
C	-0.3375100048	-3.8548683011	 0.3839537521	-0.433287
H	 0.7500801231	 2.0025075382	-0.5868039975	 0.155031
H	-0.970190457	 1.5891683234	-0.7483679577	 0.127328
H	-0.2687104683	 1.9145957357	 0.8570783696	 0.136144
H	-0.2710872438	-0.4492108062	 0.7310366692	 0.260637
H	 2.176375677	-0.8444737411	-3.7614460486	 0.14953
H	-0.7565809988	-4.5833937686	 1.0322642908	 0.185125
71.8063	117.6785	141.0908	169.7224	219.5472	302.8137	401.4996	447.8464	510.1321	523.5595	584.5205	622.4492	654.1192	683.576	740.7252	759.9507	774.7827	940.5094	1041.8177	1075.4355	1094.1755	1150.629	1184.8311	1249.9387	1303.1855	1435.9046	1453.1369	1485.1992	1492.0323	1516.7019	1578.7631	1664.6602	2221.9666	3003.2162	3101.4803	3142.3701	3289.1064	3503.755	3605.9809
CNC1=C(N=CO1)C#C	CNc1c(nco1)C#C	
InChI=1S/C6H6N2O/c1-3-5-6(7-2)9-4-8-5/h1,4,7H,2H3	InChI=1S/C6H6N2O/c1-3-5-6(7-2)9-4-8-5/h1,4,7H,2H3
