15
gdb 54738	4.40787	1.17063	1.06314	3.1624	65.69	-0.2336	0.0282	0.2618	1106.1854	0.111813	-453.869836	-453.862345	-453.861401	-453.902198	28.896	
N	-0.0788183542	 1.3092522833	 0.0250682517	-0.538386
C	-0.0014216675	-0.064757048	-0.0217139953	 0.400082
O	 0.922154665	-0.7074411104	 0.4294971903	-0.365684
N	-1.109998178	-0.6365558514	-0.6836677861	-0.109089
C	-2.4145222675	-0.6940955069	-0.0057581866	-0.11341
C	-3.4717145746	-1.2454404595	-1.0383972239	-0.002772
O	-2.816881593	-1.4936130285	-2.2784718713	-0.210366
C	-2.6632570876	-2.4511453024	-1.2325630698	-0.001693
C	-1.5938760796	-1.919712261	-0.2040359999	-0.075528
H	 0.7891760409	 1.7697465124	 0.2496240204	 0.263763
H	-0.6586238459	 1.7666538457	-0.6607705034	 0.263242
H	-2.6082279902	-0.1328744148	 0.8983871368	 0.121718
H	-4.5411708554	-1.0751431937	-1.0418628094	 0.117355
H	-2.9314542655	-3.4809082068	-1.4321208827	 0.118895
H	-1.015788517	-2.4907433781	 0.508283349	 0.131873
64.2342	145.526	167.157	314.162	401.9753	464.4378	491.931	523.6061	581.0143	650.2226	755.5662	777.553	782.9282	801.128	829.016	831.5254	872.153	908.7782	956.9813	996.1799	1010.6681	1031.9026	1085.1673	1114.5192	1167.6867	1204.8679	1252.0761	1256.3349	1320.5114	1373.033	1387.7191	1615.4531	1804.827	3190.6712	3205.6863	3214.4696	3233.6791	3586.2257	3708.6905
NC(=O)N1C2C3OC3C12	NC(=O)N1[C@H]2[C@H]3O[C@H]3[C@@H]12	
InChI=1S/C5H6N2O2/c6-5(8)7-1-2(7)4-3(1)9-4/h1-4H,(H2,6,8)	InChI=1S/C5H6N2O2/c6-5(8)7-1-2(7)4-3(1)9-4/h1-4H,(H2,6,8)/t1-,2+,3-,4+,7?
