16
gdb 64988	2.51572	1.2524	1.06982	2.7961	67.38	-0.2856	-0.0322	0.2534	1169.7783	0.121174	-475.021979	-475.012676	-475.011732	-475.057144	32.251	
C	-0.2979600367	 1.3924587325	-0.0551234772	-0.471321
C	-0.2631152324	-0.1181861669	-0.0038650317	 0.325035
C	 0.8837276301	-0.8813633148	-0.5011574357	-0.206882
O	 0.6905459286	-0.6960507877	 0.9104180472	-0.272869
C	-1.5999444462	-0.8117607412	 0.009101161	 0.327479
N	-1.9735072666	-1.5704688771	-0.9229813254	-0.465472
O	-2.4546470936	-0.4812253329	 1.0566589879	-0.217013
C	-2.0038581498	-0.450150455	 2.3561715604	 0.140503
O	-2.7214293578	-0.097010977	 3.2371138729	-0.247336
H	 0.7208221358	 1.7848637095	-0.0232346673	 0.139426
H	-0.781250679	 1.7314944225	-0.9767805805	 0.145096
H	-0.8546878829	 1.8075884211	 0.7900555163	 0.145017
H	 0.7307460985	-1.8921236403	-0.8678315765	 0.144777
H	 1.7311260681	-0.3424311102	-0.9200654711	 0.123727
H	-2.9154917611	-1.925858415	-0.7429073415	 0.241111
H	-0.966913225	-0.7967571873	 2.4617185211	 0.148721
39.6761	81.5393	107.9174	180.912	201.4662	235.4489	283.2065	331.2617	356.5177	461.2358	508.4681	625.5671	710.7204	741.0735	832.3316	901.8742	925.4848	949.0985	1025.2372	1044.5054	1061.0179	1094.462	1106.3502	1135.3062	1169.3484	1233.5218	1323.6339	1401.5963	1418.1424	1428.5712	1480.9167	1495.6054	1527.2142	1760.0758	1871.4102	3046.4829	3067.1467	3105.888	3115.1585	3135.0001	3205.0938	3463.6286
CC1(CO1)C(=N)OC=O	C[C@]1(CO1)[C]([NH])OC=O	
InChI=1S/C5H7NO3/c1-5(2-9-5)4(6)8-3-7/h3,6H,2H2,1H3	InChI=1S/C5H7NO3/c1-5(2-9-5)4(6)8-3-7/h3,6H,2H2,1H3/t5-/m0/s1
