17
gdb 29279	4.46824	1.09937	0.93027	1.4044	76.9	-0.2105	0.0209	0.2313	1266.2035	0.136719	-418.016873	-418.008763	-418.007819	-418.050196	29.725	
C	-0.4204820787	 1.3760858445	 0.1097272619	-0.491016
C	-0.0310364969	-0.052780582	-0.0583882421	 0.25922
C	 0.6046914383	-0.6597273997	-1.0857992142	-0.127924
O	 0.7468853587	-1.9962084043	-0.7793329292	-0.184357
C	 0.171287913	-2.1136279776	 0.4377734621	 0.447801
N	-0.3109628837	-1.0105026008	 0.9211899434	-0.374593
N	 0.2396811734	-3.359977398	 1.0288805864	-0.161609
C	-0.8220133584	-3.7310142784	 1.9536083293	-0.212662
C	-0.7180898228	-4.4007488549	 0.6270516111	-0.231011
H	 0.0561717492	 1.8091506325	 0.9956521429	 0.138283
H	-0.1294172916	 1.9681190473	-0.761809602	 0.122376
H	-1.5028391303	 1.4731244311	 0.2468127135	 0.135348
H	 0.9986528561	-0.3427465441	-2.0355776902	 0.138005
H	-0.4865271225	-4.244041992	 2.8492088867	 0.128602
H	-1.6200271034	-3.0092597506	 2.0972311159	 0.14852
H	-1.4534812201	-4.1380636998	-0.1283575034	 0.133683
H	-0.2981727002	-5.3975350234	 0.5411721578	 0.131333
54.1944	130.0332	149.638	182.4935	258.5139	327.5817	392.9296	519.5613	562.3137	645.9402	695.0435	719.9221	768.0042	817.6845	895.0281	929.4711	976.0181	1016.4291	1028.2693	1048.5926	1067.1265	1114.3142	1129.1795	1138.2856	1172.1668	1182.1342	1215.4323	1268.8981	1316.3273	1405.805	1419.516	1474.5897	1490.949	1493.5727	1518.4825	1620.8747	1648.3511	3036.166	3091.0771	3119.5724	3120.4605	3127.1722	3207.8569	3222.2251	3294.5819
CC1=COC(=N1)N1CC1	Cc1coc(n1)N1CC1	
InChI=1S/C6H8N2O/c1-5-4-9-6(7-5)8-2-3-8/h4H,2-3H2,1H3	InChI=1S/C6H8N2O/c1-5-4-9-6(7-5)8-2-3-8/h4H,2-3H2,1H3
