18
gdb 112454	2.40105	1.35764	0.98622	2.6444	69.55	-0.2595	0.0245	0.2841	1207.8317	0.147692	-476.234438	-476.225571	-476.224627	-476.268258	32.944	
O	-0.0884912038	 1.4450834897	 0.1155371733	-0.425006
C	 0.0284174955	 0.0390260782	 0.0034597747	-0.075817
C	-1.3268724105	-0.6365385237	 0.1489844276	 0.099024
O	-2.1691489697	-0.175408038	-0.9355706746	-0.269987
C	-2.9974553886	-1.1745203994	-1.3672492274	 0.42756
N	-3.826017364	-1.0735931683	-2.3122348826	-0.54152
C	-2.7599086326	-2.4046206676	-0.5183294548	-0.334183
C	-1.355391904	-2.1698775423	 0.051415093	 0.075872
O	-0.3349286765	-2.5717048766	-0.848646791	-0.431677
H	-0.6815182433	 1.7302390242	-0.5884049594	 0.292086
H	 0.4811733986	-0.2655659202	-0.9472967213	 0.118921
H	 0.6872294175	-0.290134583	 0.8133921436	 0.113604
H	-1.7896358124	-0.3157439857	 1.0912588285	 0.094205
H	-3.8034877938	-0.134453988	-2.713342575	 0.2215
H	-3.503350822	-2.4366993005	 0.2869107831	 0.133304
H	-2.8568747772	-3.3227109516	-1.1002207889	 0.130074
H	-1.2125799246	-2.6283193306	 1.0387294327	 0.080406
H	-0.4361175487	-3.5127383566	-1.0215673616	 0.291634
97.3819	102.8665	117.4379	178.876	264.5165	307.6793	366.0596	393.2138	421.6209	496.7135	504.8459	527.1366	673.1017	792.9874	824.7688	874.0606	894.0012	908.7717	936.7042	1007.6337	1039.0505	1076.5418	1090.9691	1100.7979	1118.9095	1188.1703	1206.576	1237.2758	1275.5446	1285.1074	1319.3798	1360.3787	1382.4928	1402.2532	1422.0032	1433.0879	1460.267	1494.2714	1783.8991	3014.3464	3030.1255	3040.5717	3052.4349	3093.2167	3123.1485	3473.1055	3809.7099	3825.149
OCC1OC(=N)CC1O	OC[C@H]1O[C]([NH])C[C@H]1O	
InChI=1S/C5H9NO3/c6-5-1-3(8)4(2-7)9-5/h3-4,6-8H,1-2H2	InChI=1S/C5H9NO3/c6-5-1-3(8)4(2-7)9-5/h3-4,6-8H,1-2H2/t3-,4-/m1/s1
