20
gdb 60187	2.76905	0.99575	0.83582	5.214	81.14	-0.2598	0.0345	0.2943	1447.3053	0.168633	-403.147623	-403.137687	-403.136743	-403.183367	35.949	
C	 0.0987012348	 1.5098612196	-0.0084175156	-0.391275
C	 0.0223249229	-0.011109472	-0.0027340877	 0.148716
C	 0.2676986147	-0.6058411633	 1.3845822595	-0.393937
O	-1.2804074072	-0.3391948543	-0.5085916296	-0.251784
C	-1.4523692709	-1.6501335531	-0.9023418571	 0.143087
C	-2.1315168688	-2.6366001658	 0.0040004975	-0.314945
C	-2.8747789901	-2.0723377091	-1.2077720771	-0.227093
C	-3.9520640021	-1.1456519575	-1.0043590638	 0.29851
N	-4.8369738481	-0.4161121891	-0.8549438721	-0.337214
H	 1.0862000843	 1.8447933283	 0.3217581772	 0.115188
H	-0.0868284336	 1.8984739692	-1.0127168925	 0.127799
H	-0.6541950912	 1.9296911652	 0.6656697289	 0.132457
H	 0.7719534669	-0.414684247	-0.7033330152	 0.070403
H	-0.4811626298	-0.2381435119	 2.0933791458	 0.127433
H	 0.2246387372	-1.6980101326	 1.3696026938	 0.121443
H	 1.2582524267	-0.3143879985	 1.7476986108	 0.119143
H	-0.6891513908	-2.0299464223	-1.583689537	 0.09872
H	-1.8486002489	-3.6826582772	-0.0304704299	 0.127907
H	-2.4527873659	-2.2684117084	 0.9704189047	 0.148366
H	-3.0155320902	-2.7331585603	-2.0561890704	 0.137076
34.9056	80.1697	96.0706	199.1686	209.984	221.4233	260.0693	324.7502	342.8448	406.1819	470.8349	478.0404	560.4244	641.5812	757.926	817.2795	831.9414	867.8728	929.6365	940.5659	945.2207	993.5517	1036.2859	1063.1637	1123.8442	1126.916	1145.6705	1160.6206	1178.0318	1204.3214	1245.4157	1355.2591	1366.5347	1374.5273	1399.8686	1415.0551	1425.5378	1476.4973	1479.3528	1487.3258	1493.8358	1511.0333	2359.0054	2966.6947	3039.7699	3046.4604	3089.7699	3110.9004	3119.787	3121.3539	3127.7993	3144.4748	3171.6343	3244.2908
CC(C)OC1CC1C#N	CC(C)O[C@H]1C[C@H]1C#N	
InChI=1S/C7H11NO/c1-5(2)9-7-3-6(7)4-8/h5-7H,3H2,1-2H3	InChI=1S/C7H11NO/c1-5(2)9-7-3-6(7)4-8/h5-7H,3H2,1-2H3/t6-,7-/m0/s1
