18
gdb 75120	3.23676	1.2458	0.94006	3.6444	78.4	-0.2167	-0.0083	0.2084	1235.1181	0.148747	-439.120335	-439.111885	-439.110941	-439.15358	31.658	
C	-0.2627725467	 1.4884358005	 0.1086013778	-0.467978
C	 0.0538211779	 0.0184882874	 0.0073304209	 0.226788
C	 0.0597909985	-0.5836056364	-1.187447233	-0.054601
N	 0.2618142736	-1.9260987715	-1.5317221429	-0.337599
C	 0.2024599379	-3.0818014417	-0.7845252163	 0.387306
O	 0.2614373327	-4.1728510232	-1.3156917854	-0.354142
C	 0.0549331683	-2.9211631904	 0.7258043352	-0.203625
O	 0.9004847264	-1.9335205862	 1.2691021254	-0.233374
C	 0.3433415737	-0.6410523432	 1.3310322583	-0.168337
H	 0.5696617191	 2.0471201806	 0.5560738123	 0.126242
H	-0.4747840724	 1.9248612438	-0.8706504396	 0.124637
H	-1.1376143355	 1.6667137672	 0.7484065663	 0.125148
H	-0.1332647077	 0.021905807	-2.0676608179	 0.103236
H	 0.340140881	-2.1238801343	-2.5191491975	 0.253783
H	-1.0025084042	-2.7232654427	 0.9648807851	 0.113542
H	 0.3309432439	-3.8823216523	 1.1643791808	 0.141718
H	 1.0787387239	-0.0357225446	 1.8764170135	 0.120329
H	-0.5735011503	-0.6455974998	 1.9509035069	 0.096928
84.6265	92.7426	181.8387	277.7627	295.2703	325.2638	351.5263	397.6667	448.0928	482.1114	535.7646	601.7583	677.3924	771.32	811.9898	865.9107	892.2103	965.3151	998.4758	1015.9897	1038.718	1091.3297	1154.288	1185.6006	1205.1386	1256.3864	1317.4081	1348.3737	1381.0053	1407.4157	1420.143	1432.3263	1470.3469	1475.5654	1483.8406	1489.6945	1502.088	1754.7712	1790.1656	2921.524	2982.4648	3010.052	3039.6552	3052.7779	3112.7001	3115.1696	3172.5499	3607.6773
CC1=CNC(=O)COC1	CC1=CNC(=O)COC1	
InChI=1S/C6H9NO2/c1-5-2-7-6(8)4-9-3-5/h2H,3-4H2,1H3,(H,7,8)	InChI=1S/C6H9NO2/c1-5-2-7-6(8)4-9-3-5/h2H,3-4H2,1H3,(H,7,8)
