16
gdb 125008	2.39407	1.87692	1.05939	2.1677	79.64	-0.204	-0.0409	0.1631	1079.1204	0.125575	-430.245637	-430.237305	-430.23636	-430.278258	31.659	
C	 0.0434881475	 1.5020732266	-0.0345614024	-0.501145
C	-0.0033366858	 0.0012710141	-0.0634670407	 0.274863
C	-1.1847207115	-0.6928822231	 0.0117442951	 0.261791
N	-2.4246241798	-0.1492933702	 0.0892660342	-0.590684
C	-1.1450733847	-2.151421756	-0.0151488034	 0.387031
N	-2.2307281706	-2.8351994791	 0.076789716	-0.581269
N	 0.1475930667	-2.6205033232	-0.1385041718	-0.327872
N	 1.3070092151	-1.8999939206	-0.2198579944	-0.088071
N	 1.2140916346	-0.6363737343	-0.1801237015	-0.254588
H	 1.0779936922	 1.8346244076	-0.1304896168	 0.151799
H	-0.5403836142	 1.939975392	-0.8539516576	 0.131247
H	-0.3591688889	 1.9053911553	 0.9042942546	 0.124068
H	-2.5429051984	 0.8127749471	 0.3529736103	 0.261154
H	-3.1680164559	-0.805603383	 0.2839241498	 0.281086
H	-2.0671534958	-3.8405786704	 0.0526046782	 0.205457
H	 0.3120562493	-3.6162036326	-0.1687010695	 0.265133
114.256	136.4326	180.5037	277.1888	285.5598	302.3192	347.2416	497.0059	519.323	527.7997	555.5518	569.7959	603.5377	679.2541	693.0999	767.7347	793.5613	906.4767	952.2469	997.3676	1057.5697	1058.8211	1132.0076	1215.8402	1296.344	1329.8069	1364.4218	1407.7818	1470.563	1485.8044	1496.8153	1531.9166	1608.2605	1647.6208	1700.5444	3012.6016	3059.1449	3141.868	3490.23	3568.7749	3617.1517	3720.8474
CC1=C(N)C(=N)NN=N1	Cc1c(N)c([NH])[nH]nn1	
InChI=1S/C4H7N5/c1-2-3(5)4(6)8-9-7-2/h1H3,(H2,5,9)(H2,6,7,8)	InChI=1S/C4H12N5/c1-2-3(5)4(6)8-9-7-2/h2-4,6-9H,5H2,1H3
