16
gdb 34686	4.52561	1.11078	1.09849	4.5182	72.92	-0.2689	0.0194	0.2884	1115.9137	0.125705	-400.694985	-400.688026	-400.687081	-400.726455	27.227	
N	-0.0599281978	-1.0387349926	-0.063200385	-0.32591
C	-0.0015387887	 0.1156288889	-0.0183718485	 0.264753
C	 0.0627244636	 1.5507166322	 0.0381605096	-0.197187
C	 0.5703651064	 2.1484145766	 1.3408738161	-0.078121
C	 1.4410054532	 2.1724868891	 0.0853372874	-0.064542
C	 1.2994947052	 3.7135901406	 0.0427785569	 0.089939
O	 0.1775836673	 4.2448463429	-0.7004816553	-0.294625
C	-0.6177920504	 4.380119473	 0.5117813023	-0.112213
C	 0.4786667056	 3.69225978	 1.3465367711	-0.087078
H	-0.7044295315	 2.0523495305	-0.5413975643	 0.152119
H	 0.6601206924	 1.5232358426	 2.2197134352	 0.119799
H	 2.325281502	 1.5993844496	-0.1619888047	 0.115229
H	 2.220875837	 4.2803134448	-0.1041805239	 0.093973
H	-0.7712596201	 5.4361735002	 0.7617400802	 0.114235
H	-1.5902544914	 3.8813972217	 0.4324522517	 0.113304
H	 0.8205104173	 4.1680165198	 2.263432061	 0.096326
136.2638	150.3609	219.5684	277.1263	416.3341	502.9649	530.1143	535.0631	700.1621	782.2494	803.2017	849.3899	871.8778	880.3183	932.4425	966.6846	966.7646	984.3507	1026.8096	1034.1115	1053.7309	1070.8249	1091.5573	1152.0434	1165.2553	1191.1967	1211.8889	1265.7016	1267.4469	1288.6727	1324.7743	1350.46	1394.1125	1519.262	2357.3607	3026.117	3073.4094	3094.4486	3137.0313	3173.5908	3196.5819	3206.3964
N#CC1C2C1C1OCC21	N#C[C@H]1[C@H]2[C@@H]1[C@H]1OC[C@@H]21	
InChI=1S/C7H7NO/c8-1-3-5-4-2-9-7(4)6(3)5/h3-7H,2H2	InChI=1S/C7H7NO/c8-1-3-5-4-2-9-7(4)6(3)5/h3-7H,2H2/t3-,4-,5+,6+,7-/m0/s1
