20
gdb 63495	3.01917	1.14265	0.98208	4.0057	77.04	-0.2377	0.0328	0.2705	1269.487	0.168023	-440.300926	-440.290713	-440.289769	-440.335672	37.806	
C	-0.129221444	 1.5767017895	 0.0422364011	-0.443026
C	 0.0096596675	 0.0715962607	 0.0210262672	 0.315969
O	-1.1822692683	-0.5791251555	-0.3613977436	-0.467005
C	 1.3148808433	-0.5936638575	-0.3514161761	-0.370309
C	 0.7892512537	-0.6847706309	 1.0770453554	 0.320448
C	 1.5102405508	 0.0246134551	 2.2059635643	-0.460739
N	 0.1813953353	-1.9334860748	 1.4596752298	-0.32251
C	 0.8778408931	-3.0157136342	 1.8940818478	 0.147088
O	 2.0737542792	-3.055757124	 2.0994189743	-0.328123
H	 0.7918915818	 2.0718060658	 0.3558844551	 0.124778
H	-0.3747950437	 1.9423777451	-0.9618224864	 0.112996
H	-0.9359107667	 1.8796071654	 0.7170379936	 0.129252
H	-1.2468464752	-0.5538315072	-1.321734725	 0.289313
H	 1.2644937559	-1.4992436385	-0.945370798	 0.116226
H	 2.1807244682	 0.0329382707	-0.5384301696	 0.116091
H	 1.9884731022	 0.9441481099	 1.8618535732	 0.111756
H	 0.8148447278	 0.2777241745	 3.0133107437	 0.116427
H	 2.2825208735	-0.6352489458	 2.6065947782	 0.162976
H	-0.783243424	-2.0575382712	 1.189492975	 0.257532
H	 0.2087899594	-3.884571587	 2.0631363702	 0.070858
58.5958	142.3847	181.3569	193.3732	200.7504	222.5771	243.3745	272.8509	300.7253	392.7778	402.6832	433.8727	492.2203	528.8626	572.4139	672.1391	704.0125	847.5086	881.2609	907.1206	950.3007	975.5392	1008.5032	1030.7912	1043.3111	1081.415	1117.4923	1175.1331	1183.8606	1241.2839	1307.9519	1310.3977	1385.5692	1408.2663	1419.1539	1432.2616	1472.2346	1474.2034	1488.8197	1496.025	1512.0141	1526.7184	1801.0059	2920.0958	3033.4834	3044.24	3095.4378	3114.78	3131.4935	3132.9938	3140.7673	3225.7609	3612.1676	3809.4452
CC1(O)CC1(C)NC=O	C[C@@]1(O)C[C@]1(C)NC=O	
InChI=1S/C6H11NO2/c1-5(7-4-8)3-6(5,2)9/h4,9H,3H2,1-2H3,(H,7,8)	InChI=1S/C6H11NO2/c1-5(7-4-8)3-6(5,2)9/h4,9H,3H2,1-2H3,(H,7,8)/t5-,6+/m0/s1
