18
gdb 122263	2.83043	0.82932	0.70715	4.9601	73.25	-0.2733	0.0036	0.2769	1590.43	0.145526	-439.066264	-439.056446	-439.055502	-439.102121	34.231	
O	 0.0101929527	 1.3595681377	 0.4001405379	-0.417661
C	 0.0394103347	 0.0096475868	-0.0291082421	-0.076211
C	-1.3660218479	-0.5555231765	 0.1328098934	-0.175744
C	-1.4569816873	-2.0242716315	-0.2962758136	-0.293459
C	-2.8477629571	-2.6014910157	-0.1149340144	 0.261527
C	-3.0636549203	-3.9887507461	 0.3450822637	-0.211688
O	-3.2459798703	-2.887599654	 1.2305588056	-0.248107
C	-3.8906198182	-1.9970969502	-0.9326961914	 0.267146
N	-4.6934972147	-1.510773182	-1.6068744508	-0.332705
H	 0.8908078316	 1.7307188875	 0.2940356012	 0.288139
H	 0.3532576086	-0.0699010295	-1.0834251405	 0.086966
H	 0.7514556584	-0.5856188567	 0.5669660333	 0.085484
H	-1.6680721043	-0.4590680212	 1.1811672148	 0.128369
H	-2.0585656018	 0.0551699011	-0.4572279431	 0.132694
H	-1.1671529098	-2.1355562513	-1.3487291294	 0.120748
H	-0.7688871339	-2.6369866976	 0.2965978297	 0.114945
H	-3.970643663	-4.5164933067	 0.0582541783	 0.140402
H	-2.1900418074	-4.609725604	 0.5361749875	 0.129154
51.9189	73.8606	106.8086	130.5336	180.2608	234.8523	258.5915	294.7619	325.3209	394.8205	480.5352	576.4057	601.2507	712.9078	758.4725	829.4422	889.5591	918.4829	952.7022	1030.3097	1051.7482	1086.794	1100.0334	1133.7374	1171.6464	1204.7604	1234.1585	1254.5698	1297.5652	1310.3713	1321.4823	1367.5593	1401.0085	1466.278	1470.9047	1500.2587	1520.3158	1528.8631	2358.0195	2954.0005	2979.1166	3030.1273	3048.355	3072.3593	3092.5522	3098.8602	3188.5585	3832.6845
OCCCC1(CO1)C#N	OCCC[C@]1(CO1)C#N	
InChI=1S/C6H9NO2/c7-4-6(5-9-6)2-1-3-8/h8H,1-3,5H2	InChI=1S/C6H9NO2/c7-4-6(5-9-6)2-1-3-8/h8H,1-3,5H2/t6-/m1/s1
