22
gdb 57954	2.79571	0.9946	0.85875	2.5579	82.82	-0.2387	-0.0188	0.2198	1458.6768	0.192774	-404.343017	-404.332655	-404.331711	-404.379556	37.193	
C	 0.5726992605	 0.8368749535	-0.128248074	-0.383517
C	-0.3252804852	-0.3625133252	 0.2085348845	-0.057589
C	-0.3320453657	-0.6495075841	 1.7236015012	-0.399033
C	-1.7610142839	-0.0833068745	-0.2536771241	 0.393889
O	-2.308028464	 0.9618495021	 0.0165858462	-0.321736
C	-2.5023989468	-1.1735657576	-1.0303461557	-0.329619
C	-2.9830382967	-2.2883466236	-0.1168187955	 0.030477
C	-3.2044109093	-3.6592794155	-0.6352889979	-0.249342
N	-2.0942862401	-3.3879318785	 0.2983643987	-0.310646
H	 1.5878590342	 0.6722863733	 0.2453694917	 0.111239
H	 0.6313850548	 1.0066580781	-1.20820559	 0.111983
H	 0.1707204683	 1.7427624489	 0.3324933378	 0.141584
H	 0.0493184374	-1.2510310808	-0.3139743314	 0.062799
H	-0.9182817839	-1.5412108372	 1.9635228415	 0.14548
H	 0.6901228884	-0.8095172896	 2.080709136	 0.11441
H	-0.7557583059	 0.2028878828	 2.2631037766	 0.134269
H	-3.3635086651	-0.6999952463	-1.5120197043	 0.126933
H	-1.8513926843	-1.5931396473	-1.8080875803	 0.100041
H	-3.6291923549	-1.9438616621	 0.6882861776	 0.110168
H	-4.0039618462	-4.273745089	-0.231860397	 0.124799
H	-2.9695671504	-3.8504613651	-1.6795831946	 0.113322
H	-1.2203610712	-3.3442400424	-0.220841067	 0.230088
38.6264	45.9443	90.8269	147.4725	213.6217	236.8857	244.8964	281.2369	302.7451	344.8794	390.4833	463.1891	601.9824	701.834	762.071	806.5777	829.1688	889.5855	927.6267	934.3534	941.9473	974.9935	978.7619	1040.3007	1068.0227	1110.4155	1115.8266	1128.0642	1165.2671	1188.8227	1211.8384	1249.8066	1266.1645	1298.8797	1308.4352	1336.2331	1366.8252	1392.1478	1414.2932	1415.3298	1465.2719	1486.9354	1491.9331	1502.3258	1513.6063	1515.7176	1803.3014	3022.9845	3032.0613	3036.6706	3040.1656	3091.1606	3104.7449	3108.562	3109.3633	3120.4188	3128.2591	3130.4322	3194.5612	3493.1975
CC(C)C(=O)CC1CN1	CC(C)C(=O)C[C@H]1CN1	
InChI=1S/C7H13NO/c1-5(2)7(9)3-6-4-8-6/h5-6,8H,3-4H2,1-2H3	InChI=1S/C7H13NO/c1-5(2)7(9)3-6-4-8-6/h5-6,8H,3-4H2,1-2H3/t6-/m0/s1
