21
gdb 94573	2.78516	1.33269	1.15729	2.8333	77.66	-0.2456	0.0692	0.3147	1163.1902	0.183813	-424.195255	-424.186767	-424.185823	-424.22871	32.538	
O	 0.2629256499	 1.1860667766	-0.5007881418	-0.440298
C	 0.0334709576	-0.0624117003	 0.0976412047	 0.156223
C	-0.22526531	-0.1326223865	 1.6267925979	-0.244247
C	-1.384919597	-1.1323426793	 1.3666527405	-0.238684
C	-1.347019473	-0.7777941584	-0.1485213866	-0.079208
C	-2.4064303177	 0.1784791771	-0.6541084945	 0.141724
C	-3.9077274146	-0.1121068163	-0.4304375609	-0.301484
C	-3.935531192	 1.2732202228	 0.2448089293	-0.061504
O	-2.4979790211	 1.3910607216	 0.15490056	-0.30775
H	-0.4553450239	 1.7706652141	-0.2236559203	 0.29427
H	 0.8688650323	-0.699807939	-0.2061128631	 0.083606
H	 0.6021418795	-0.4651988691	 2.2583110432	 0.092614
H	-0.5963014353	 0.8256987853	 1.9976708433	 0.109054
H	-1.10743265	-2.1723929276	 1.5533505172	 0.099897
H	-2.3198429643	-0.9284470923	 1.8943330321	 0.096322
H	-1.3125215685	-1.6321572661	-0.833817786	 0.069252
H	-2.1755257018	 0.4503643085	-1.6927604146	 0.086748
H	-4.5149642589	-0.2302062588	-1.328573231	 0.112197
H	-4.1018809885	-0.9434003242	 0.2497422155	 0.116159
H	-4.4420114171	 2.0572955502	-0.3319304972	 0.105477
H	-4.2816976255	 1.3138099917	 1.2832063021	 0.109635
83.7403	108.7816	127.1707	169.2288	243.0811	302.012	416.127	509.9275	556.9397	562.5283	693.2341	706.6653	756.0923	801.6015	853.6569	894.8755	922.9142	931.8285	954.3805	964.2708	986.4952	1024.3422	1056.2166	1068.9889	1125.1366	1131.9813	1143.4116	1169.804	1186.7145	1217.2951	1233.7572	1255.1524	1258.4185	1263.9073	1276.6836	1289.3769	1328.5498	1355.7429	1376.8234	1387.6392	1457.4299	1472.147	1491.52	1492.8094	1530.2104	3011.6391	3020.6296	3043.1463	3060.0382	3064.3158	3066.9833	3070.7692	3082.343	3105.2658	3126.3169	3137.8202	3755.6712
OC1CCC1C1CCO1	O[C@H]1CC[C@H]1[C@H]1CCO1	
InChI=1S/C7H12O2/c8-6-2-1-5(6)7-3-4-9-7/h5-8H,1-4H2	InChI=1S/C7H12O2/c8-6-2-1-5(6)7-3-4-9-7/h5-8H,1-4H2/t5-,6+,7-/m1/s1
