14
gdb 20620	3.30967	2.05142	1.27649	1.8911	59.58	-0.2085	0.0469	0.2554	888.2177	0.10711	-415.883791	-415.875623	-415.874679	-415.916545	29.024	
C	 0.0386129556	 1.5765786327	-0.0259606558	-0.519966
C	 0.05847974	 0.0811565935	-0.0179953945	-0.025218
C	 0.0008276527	-0.7984438849	-1.083853514	 0.391813
O	-0.0935562142	-0.6151208249	-2.4185681684	-0.429443
N	 0.046037548	-2.0563324591	-0.6013355222	-0.272864
N	 0.1332110766	-2.0793574773	 0.767268846	-0.35071
C	 0.140529785	-0.7992048091	 1.0902752406	 0.371339
O	 0.2153141988	-0.3889183203	 2.3753131643	-0.42904
H	 1.030511527	 2.0142704126	 0.1399662436	 0.134208
H	-0.3344264818	 1.9706974348	-0.9795809623	 0.09837
H	-0.6198962385	 1.9653321455	 0.7571197799	 0.14449
H	-0.0792966777	 0.3305486235	-2.5990249304	 0.310405
H	 0.0179059121	-2.9138552496	-1.1226669994	 0.275649
H	 0.2420098963	-1.1844797574	 2.9219748127	 0.300968
48.6028	167.2827	224.1505	234.14	252.0892	280.8033	317.9012	412.8676	457.8178	544.9722	586.6945	666.7214	725.1132	733.0559	802.9888	955.9918	1063.2067	1098.475	1152.1423	1194.2355	1227.1313	1290.5907	1367.6841	1425.1795	1472.4322	1477.3356	1503.1493	1564.0534	1603.2646	1672.5711	3014.8652	3064.0301	3092.0414	3699.8009	3791.2921	3830.9873
CC1=C(O)NN=C1O	Cc1c(O)[nH]nc1O	
InChI=1S/C4H6N2O2/c1-2-3(7)5-6-4(2)8/h1H3,(H3,5,6,7,8)	InChI=1S/C4H6N2O2/c1-2-3(7)5-6-4(2)8/h1H3,(H3,5,6,7,8)
