17
gdb 51596	4.11797	0.74651	0.68997	3.5766	75.92	-0.266	-0.0026	0.2634	1598.2915	0.133012	-421.793782	-421.784361	-421.783417	-421.829381	33.205	
O	 0.2834797272	 0.0216593378	 0.3879135958	-0.267512
C	 0.3982528474	 1.2012807641	 0.5230845101	 0.174975
O	 0.8054973704	 2.0089464723	-0.4830755539	-0.186959
C	 0.8602456865	 3.3940543698	-0.1986026913	 0.07313
C	 2.0064944487	 3.9330092311	 0.6182060718	-0.31243
C	 1.9493751729	 4.1707776638	-0.8739712348	-0.0251
C	 2.9338566042	 3.4695555159	-1.8007117369	-0.377047
C	 4.211492765	 4.1698875098	-1.8846984192	 0.305105
C	 5.2550605044	 4.7625054328	-1.9458925391	-0.443596
H	 0.1921617343	 1.7550787773	 1.4578156144	 0.086754
H	-0.1223187834	 3.8480113688	-0.1067532984	 0.116266
H	 1.8172262349	 4.7560845706	 1.2977230981	 0.126627
H	 2.7379441494	 3.2128392471	 0.9700548628	 0.134935
H	 1.6778241337	 5.1722205555	-1.1926849575	 0.109163
H	 3.0915217758	 2.4412589131	-1.4587557398	 0.147871
H	 2.4934902762	 3.386871679	-2.8025662908	 0.140399
H	 6.1829843224	 5.2750302212	-2.0053241513	 0.197421
39.7333	73.4903	98.0098	144.055	162.6812	255.9642	322.9297	341.9976	425.7714	496.8125	568.3148	621.2683	634.9385	645.5837	793.0882	834.912	887.0695	926.484	964.7931	1023.6436	1042.1074	1050.0527	1070.8821	1121.9377	1140.566	1163.4751	1177.3939	1243.5015	1252.6393	1324.2765	1375.287	1413.6465	1426.2014	1469.1751	1485.9913	1870.6945	2241.2518	2970.5531	3031.1858	3074.9823	3136.7941	3145.2651	3162.6272	3226.2591	3507.1834
O=COC1CC1CC#C	O=CO[C@H]1C[C@H]1CC#C	
InChI=1S/C7H8O2/c1-2-3-6-4-7(6)9-5-8/h1,5-7H,3-4H2	InChI=1S/C7H8O2/c1-2-3-6-4-7(6)9-5-8/h1,5-7H,3-4H2/t6-,7+/m1/s1
