20
gdb 75607	2.39921	1.64777	1.14334	1.5413	76.97	-0.2446	0.0139	0.2585	1128.3684	0.171877	-440.292902	-440.284329	-440.283385	-440.325905	32.627	
C	-0.019117566	 1.4934197299	 0.0156020596	-0.460699
C	-0.0279203362	-0.0059275833	-0.009330252	 0.380164
N	-1.0881694362	-0.6839845849	-0.0796453623	-0.253132
C	-0.9879959698	-2.1435358576	-0.0968518264	-0.156028
C	-0.7942833584	-2.7527986927	 1.3031987636	-0.191068
C	 0.6209308725	-2.6771128249	 1.8835713094	-0.071861
O	 1.0364497493	-1.3471311203	 2.2011730136	-0.221134
C	 1.8482069233	-0.7309592659	 1.2608478407	-0.021082
O	 1.2315926289	-0.5939117734	-0.0130364968	-0.261123
H	 0.5664094703	 1.8794126008	-0.8254726922	 0.138779
H	-1.0396048424	 1.871277486	-0.0397146532	 0.146524
H	 0.4501861602	 1.8667542634	 0.9330433447	 0.133393
H	-1.9286798988	-2.5205726655	-0.5095790832	 0.098769
H	-0.17709078	-2.4813642871	-0.7556498802	 0.103338
H	-1.4905601744	-2.2766016315	 2.002570308	 0.117455
H	-1.0643089105	-3.8160051391	 1.2582954638	 0.09678
H	 0.6494442198	-3.2331452352	 2.8272769155	 0.108157
H	 1.3436435302	-3.1417691267	 1.1976950384	 0.098612
H	 2.1037422777	 0.2474885303	 1.6862355612	 0.108467
H	 2.7614284505	-1.3051919722	 1.0530843078	 0.105689
106.8984	143.8497	180.8744	192.757	236.3349	318.6242	370.6183	397.1226	411.4577	494.0038	559.0643	607.2372	702.7648	761.9248	803.3914	904.3538	910.0916	940.8809	998.4436	1003.0996	1056.351	1069.4283	1102.2954	1125.1921	1147.1145	1173.7862	1223.6407	1241.4991	1291.1254	1304.0561	1329.1832	1374.5574	1388.7544	1403.3456	1411.8341	1442.9943	1464.1471	1471.7388	1478.9614	1490.7762	1501.1051	1514.0764	1771.3808	3002.2595	3008.3655	3016.1325	3026.6909	3038.9088	3059.2829	3065.7078	3071.8217	3081.3739	3093.9123	3159.711
CC1=NCCCOCO1	CC1=NCCCOCO1	
InChI=1S/C6H11NO2/c1-6-7-3-2-4-8-5-9-6/h2-5H2,1H3/b7-6-	InChI=1S/C6H11NO2/c1-6-7-3-2-4-8-5-9-6/h2-5H2,1H3/b7-6-
