19
gdb 40434	4.08543	1.20488	1.0696	2.3381	74.98	-0.2524	0.0839	0.3363	1165.8232	0.159988	-422.99589	-422.98806	-422.987116	-423.02846	30.248	
C	-0.3515950924	 1.1961799886	-0.3105953395	-0.269722
C	 1.0331025072	 1.2361786028	 0.2814433196	-0.263487
C	 0.3285755075	-0.0878635094	 0.0843753428	-0.117948
C	-0.1410009746	-0.8515704319	 1.2752575438	 0.394644
C	 0.7411096793	-1.907131535	 1.9216084158	-0.136881
O	-0.1004715204	-2.6519149562	 2.7933134076	-0.257785
C	-1.4553678227	-2.5341843639	 2.3714429908	-0.100821
C	-1.5217128862	-1.2541679712	 1.572935582	-0.052197
O	-0.9177635313	-0.1449291663	 2.2553299859	-0.289929
H	-1.1651860277	 1.5324316532	 0.3211439025	 0.130675
H	-0.4714669697	 1.4033636779	-1.367826143	 0.110665
H	 1.8715004461	 1.4701344202	-0.3646812922	 0.113122
H	 1.1260175686	 1.6023884602	 1.297753878	 0.127926
H	 0.7003586579	-0.7178117964	-0.7190516039	 0.088675
H	 1.1816090935	-2.5452350265	 1.1374988748	 0.090445
H	 1.5532430235	-1.4817328524	 2.5201508121	 0.11841
H	-1.7620342015	-3.3802905438	 1.7340490452	 0.093597
H	-2.0844008639	-2.5273889847	 3.2677803895	 0.119268
H	-2.365929333	-1.0256323953	 0.9287466783	 0.101344
76.0871	148.6943	181.5936	214.9649	289.8676	365.5771	450.6588	464.729	625.0667	699.883	769.579	794.3846	826.0046	879.1142	896.247	912.0846	927.8044	932.1455	982.3347	1015.7497	1057.7792	1068.1167	1090.4657	1093.1415	1116.7733	1131.1347	1140.0487	1181.4422	1203.8126	1221.5894	1227.8827	1244.1504	1280.3136	1349.9293	1378.5034	1406.4554	1459.4059	1479.8145	1498.6326	1502.2088	1510.6209	2966.9317	2974.3723	3069.5102	3073.1963	3138.2883	3141.5536	3147.0998	3161.6417	3222.0855	3237.2211
C1CC1C12COCC1O2	C1CC1[C@]12COC[C@H]1O2	
InChI=1S/C7H10O2/c1-2-5(1)7-4-8-3-6(7)9-7/h5-6H,1-4H2	InChI=1S/C7H10O2/c1-2-5(1)7-4-8-3-6(7)9-7/h5-6H,1-4H2/t6-,7-/m1/s1
