16
gdb 66885	2.64888	2.06226	1.44948	3.8756	72.5	-0.2191	-0.0197	0.1994	914.4873	0.124573	-400.727503	-400.720276	-400.719332	-400.758981	28.287	
C	 0.0537282486	 1.537192504	 0.0965802735	-0.505182
C	 0.0522663999	 0.0414266506	-0.005490125	 0.154141
C	-0.9857885221	-0.8633700597	 0.7695243029	-0.132356
C	-1.4992293634	-2.0965191649	 0.0814992614	-0.096795
C	-0.4486377099	-2.7396909699	-0.4284587209	-0.090152
N	 0.7863743801	-1.9973369344	-0.1827972581	-0.207801
C	 0.4653515315	-1.0714008237	 0.9614011828	-0.067057
C	 0.6790083452	-0.7941219828	-1.0638617625	 0.386577
O	 1.091657114	-0.630868796	-2.1692097571	-0.314176
H	 1.0470533277	 1.9436481076	-0.1184725821	 0.140787
H	-0.648777796	 1.9759290974	-0.6191020071	 0.142421
H	-0.240024444	 1.8662225066	 1.0980971308	 0.124672
H	-1.5770881481	-0.3225447667	 1.4999732741	 0.104651
H	-2.538882098	-2.3865399153	 0.0313756035	 0.116309
H	-0.4072595457	-3.6294926376	-1.0395538267	 0.128162
H	 1.0843185801	-1.0281463252	 1.8487920207	 0.115799
127.5057	158.3881	228.5475	234.8989	373.7135	428.3445	511.2929	626.2393	656.4242	714.9042	753.6713	795.7771	825.0498	834.1254	853.332	899.3032	901.3395	927.2583	937.2794	997.0985	1024.9105	1040.2459	1070.8813	1097.6449	1137.7244	1196.115	1243.3038	1296.5335	1334.197	1402.0096	1421.4396	1483.1706	1494.5608	1635.4401	1905.9059	3036.4253	3103.8771	3107.3367	3181.3965	3195.8217	3231.0326	3256.8358
CC12C3C=CN(C13)C2=O	C[C@]12[C@H]3C=CN([C@@H]13)C2=O	
InChI=1S/C7H7NO/c1-7-4-2-3-8(5(4)7)6(7)9/h2-5H,1H3	InChI=1S/C7H7NO/c1-7-4-2-3-8(5(4)7)6(7)9/h2-5H,1H3/t4-,5+,7-/m0/s1
