18
gdb 15389	3.77799	1.13134	0.94282	0.4734	75.48	-0.2448	0.0478	0.2926	1251.6664	0.15159	-347.744181	-347.73518	-347.734236	-347.778323	32.181	
C	 0.1103249401	 1.3481021486	-0.1170764838	-0.225174
O	 0.2571549424	-0.050871459	-0.1006260351	-0.232944
C	 0.4452781048	-0.5617472176	 1.2038457619	-0.079343
C	 0.5397992571	-2.0605688713	 1.1164833313	-0.017112
C	 1.844723164	-2.7199912891	 0.7864633275	-0.280344
C	 1.2748524159	-2.853485235	 2.1917082028	-0.201065
C	 1.9090781661	-2.2040266025	 3.3025514262	 0.337696
C	 2.4365211673	-1.6767385107	 4.2470256848	-0.476327
H	 1.0021119428	 1.8590994811	 0.2803773215	 0.103021
H	-0.0346882304	 1.6505225134	-1.1571203682	 0.125691
H	-0.7604565107	 1.6763617444	 0.4733295737	 0.102272
H	 1.3591760296	-0.1475459463	 1.6584231652	 0.096644
H	-0.3970530749	-0.2680597167	 1.8538532438	 0.088794
H	-0.3562910088	-2.5372442624	 0.7306844516	 0.09908
H	 1.8433799728	-3.6044046909	 0.1598761652	 0.119947
H	 2.7130609625	-2.0813060233	 0.6712981434	 0.12948
H	 0.8348378091	-3.8168432467	 2.4325359769	 0.114762
H	 2.9051548103	-1.211128016	 5.0780224514	 0.194921
69.009	84.4729	102.5672	185.4726	218.6633	234.0982	330.5774	365.6525	449.9893	527.2263	577.4284	610.3641	648.2352	770.5128	827.1232	889.1726	919.7085	951.7168	1001.6511	1056.1148	1067.1553	1123.4671	1132.5177	1152.7751	1176.0214	1196.5712	1220.7896	1238.6835	1273.3888	1363.6892	1390.8545	1444.2705	1481.9754	1484.87	1488.0802	1504.6733	1525.3324	2233.926	2953.3986	2968.0016	2997.0036	3008.313	3112.6567	3141.2108	3144.7437	3159.2958	3231.833	3505.1939
COCC1CC1C#C	COC[C@H]1C[C@H]1C#C	
InChI=1S/C7H10O/c1-3-6-4-7(6)5-8-2/h1,6-7H,4-5H2,2H3	InChI=1S/C7H10O/c1-3-6-4-7(6)5-8-2/h1,6-7H,4-5H2,2H3/t6-,7-/m1/s1
