15
gdb 81519	3.77402	1.29333	1.08118	3.7429	67.04	-0.2507	0.0077	0.2584	1077.7453	0.111861	-453.866237	-453.858221	-453.857277	-453.898402	30.832	
N	 0.2106251458	 1.4778692904	-0.0200696678	-0.538205
C	 0.1205297437	 0.0512030227	-0.0258771651	 0.043926
C	-0.0846281535	-0.6202426908	 1.3554023054	-0.025905
O	-1.4869807562	-0.1471525172	 1.3597111972	-0.311419
C	-1.2809406421	-0.6744378916	-0.0080796049	-0.024222
C	-0.6085814086	-1.9135270549	 0.6330673617	 0.289621
O	 0.2236089601	-2.6652632709	-0.1984437259	-0.467461
C	-1.4772516127	-2.7584714824	 1.4570658035	 0.243684
N	-2.0907150953	-3.513082754	 2.0815199023	-0.333659
H	 0.1832775352	 1.8531494961	-0.9612830302	 0.236746
H	-0.5642949442	 1.8699466666	 0.5063709706	 0.244245
H	 0.8762598445	-0.39652271	-0.6711115984	 0.111475
H	 0.4823734142	-0.5266755307	 2.2815583552	 0.114311
H	-2.1257723124	-0.6453831317	-0.6960186277	 0.113083
H	 0.6243333915	-3.3752828717	 0.3156151542	 0.30378
136.9495	145.2565	243.2219	280.1338	301.7504	339.3749	369.2025	378.8537	475.7822	522.4608	574.2013	672.4023	729.7875	757.7536	789.1428	851.1519	869.7921	910.4412	960.6462	1016.746	1106.7846	1110.6482	1123.9656	1155.2196	1190.4654	1208.1638	1210.4746	1271.2599	1279.6379	1375.5045	1444.2486	1647.3099	2355.3913	3124.4492	3127.4462	3134.3388	3506.4967	3594.3314	3810.1586
NC1C2OC1C2(O)C#N	N[C@H]1[C@H]2O[C@@H]1[C@]2(O)C#N	
InChI=1S/C5H6N2O2/c6-1-5(8)3-2(7)4(5)9-3/h2-4,8H,7H2	InChI=1S/C5H6N2O2/c6-1-5(8)3-2(7)4(5)9-3/h2-4,8H,7H2/t2-,3+,4-,5-
