20
gdb 114045	2.83159	1.1987	0.99691	1.7823	76.16	-0.1972	0.0632	0.2604	1264.5478	0.169022	-440.222519	-440.21303	-440.212086	-440.256452	35.789	
C	 0.0474116844	 1.6102663275	 0.0513756115	-0.374811
C	 0.136471235	 0.0967061094	-0.1357331579	-0.129784
N	 0.5738517638	-0.5557952062	 1.0923186046	-0.065167
C	-0.3836269773	-0.7282899578	 2.2183504263	-0.24446
C	-0.0016824527	-2.2119803361	 2.30261313	 0.320009
O	 0.3010350638	-2.8662544975	 3.4810846861	-0.458713
C	-0.3001765926	-2.9070794148	 1.0168059509	 0.012343
O	-1.4878259208	-2.6393663215	 0.3255327587	-0.421642
C	 0.9004604728	-1.9744035575	 1.0861051484	-0.143386
H	 1.012621439	 2.0173834126	 0.3658950363	 0.122085
H	-0.255618404	 2.0998503132	-0.8795504931	 0.108138
H	-0.6924577953	 1.8674922502	 0.8171776394	 0.11797
H	-0.8317943719	-0.2900641646	-0.4942092898	 0.083735
H	 0.8825074875	-0.1357100486	-0.906267162	 0.094343
H	-0.0874988222	-0.1619092908	 3.1068002677	 0.109378
H	-1.4335864136	-0.5249784289	 1.9754615588	 0.106003
H	-0.482501196	-3.347519667	 3.7692847382	 0.289271
H	-0.0056458634	-3.9590123311	 1.0446737373	 0.090818
H	-1.3112013896	-2.7306835368	-0.6166129959	 0.288116
H	 1.9076131032	-2.3152743238	 0.8646076347	 0.095753
89.5777	129.9232	170.0139	198.9947	238.9994	243.7829	292.1096	333.2087	353.8724	375.0087	422.4911	521.437	590.4618	669.8551	704.919	810.6237	835.8053	860.2715	933.9924	948.2497	978.2689	1004.099	1059.4823	1062.181	1109.0084	1133.4669	1142.5011	1202.7797	1208.5981	1227.0864	1272.1111	1278.5586	1289.9868	1310.6651	1339.0535	1367.1621	1388.9973	1409.0824	1478.4832	1488.523	1494.1755	1504.3034	1514.6752	2967.4627	3025.2394	3035.6964	3040.0925	3080.2997	3081.152	3102.5759	3116.6699	3152.2917	3795.4791	3808.0746
CCN1CC2(O)C(O)C12	CCN1C[C@@]2(O)[C@@H](O)[C@@H]12	
InChI=1S/C6H11NO2/c1-2-7-3-6(9)4(7)5(6)8/h4-5,8-9H,2-3H2,1H3	InChI=1S/C6H11NO2/c1-2-7-3-6(9)4(7)5(6)8/h4-5,8-9H,2-3H2,1H3/t4-,5+,6+/m1/s1
