21
gdb 73025	2.80054	1.20077	1.03036	1.7173	83.27	-0.2261	0.0784	0.3045	1272.9564	0.182139	-387.032473	-387.023724	-387.02278	-387.066268	33.499	
C	 0.0418225087	 1.5663360375	 0.0471831284	-0.501246
C	 0.010474588	 0.0667223597	 0.0230367538	 0.25045
C	-0.8400462844	-0.7802376999	-0.9233031531	-0.13741
O	-1.0837401441	-1.7748177778	 0.1077456776	-0.288888
C	-0.3720633973	-0.9741109307	 1.0584275078	 0.029892
C	 1.0694485346	-0.8291311918	 0.6616690754	-0.101804
C	 1.8361377294	-1.9063917829	-0.0374128266	 0.01005
C	 3.1922949668	-1.6214456453	-0.6374248619	-0.270251
C	 3.0792430153	-2.4822961823	 0.5963059192	-0.274672
H	 0.6322293759	 1.9673512908	-0.7857573808	 0.123123
H	-0.9668247463	 1.9895611432	-0.0259341715	 0.119149
H	 0.4920952826	 1.9371709062	 0.973645296	 0.12091
H	-1.7796599897	-0.2914816051	-1.2085082639	 0.103685
H	-0.3596997558	-1.2043531552	-1.813021479	 0.10414
H	-0.7733901654	-0.9144600359	 2.0648169775	 0.097528
H	 1.646492332	-0.2728289999	 1.4004646284	 0.080347
H	 1.209477395	-2.6136259428	-0.5699280285	 0.100239
H	 3.4522833545	-2.0959676489	-1.5775270166	 0.10903
H	 3.5970246031	-0.6212455116	-0.5201109843	 0.106887
H	 3.4087936416	-2.0600561139	 1.5404634618	 0.107318
H	 3.2580163356	-3.5477946934	 0.5031219302	 0.111524
50.6428	127.3762	164.3768	189.7717	250.2683	292.42	336.0145	343.8519	485.3472	570.0893	628.4582	765.087	781.1162	822.7246	835.4972	877.7909	906.3674	925.7095	951.4899	959.2258	992.3169	1008.0282	1014.475	1058.1017	1064.2814	1075.9493	1090.998	1134.8131	1145.3682	1166.7498	1186.3269	1200.2177	1226.3294	1246.79	1271.8475	1299.9469	1318.1944	1398.3805	1418.9304	1470.6015	1483.6144	1487.5361	1498.8643	1509.1942	1517.2976	3016.153	3020.9572	3065.6412	3076.574	3095.5161	3111.7643	3125.9423	3130.8824	3165.5054	3168.9026	3203.504	3219.5758
CC12COC1C2C1CC1	C[C@]12CO[C@H]1[C@H]2C1CC1	
InChI=1S/C8H12O/c1-8-4-9-7(8)6(8)5-2-3-5/h5-7H,2-4H2,1H3	InChI=1S/C8H12O/c1-8-4-9-7(8)6(8)5-2-3-5/h5-7H,2-4H2,1H3/t6-,7+,8-/m1/s1
