19
gdb 84286	2.97807	1.61374	1.48052	2.051	80.3	-0.2301	-0.0093	0.2209	973.9004	0.16198	-385.848983	-385.841936	-385.840992	-385.880105	29.424	
O	-0.0102482764	 1.4287956823	 0.169297819	-0.433482
C	 0.0510859787	 0.0206952478	-0.0166923595	 0.105527
C	 0.6416584032	-0.6693626522	 1.2141961813	-0.167324
C	-0.1193418267	-1.7003566616	 1.6026017615	 0.127258
C	-0.769142827	-1.7948802212	 2.9595180696	-0.261026
C	-1.9925171675	-0.8645121305	 2.5981631955	-0.22483
C	-2.2314996986	-1.0639233927	 1.0726680055	-0.049662
C	-1.29864955	-0.6857499691	-0.1348110419	-0.093076
C	-1.1859497539	-2.0031968046	 0.5626498779	-0.12798
H	-0.6177940132	 1.5907582625	 0.8997879473	 0.276791
H	 0.6229053272	-0.1051446252	-0.9450259625	 0.090753
H	 1.3392861924	-0.1286812562	 1.8462947584	 0.094572
H	-1.1142715837	-2.7993665572	 3.2240580462	 0.102797
H	-0.1632114362	-1.3989744707	 3.7771072057	 0.104381
H	-2.8997881679	-1.1527366445	 3.1403838308	 0.102522
H	-1.7613238238	 0.1690757	 2.875561468	 0.096082
H	-3.2668560347	-1.1739993509	 0.7631965611	 0.087471
H	-1.8322421411	-0.6048475278	-1.0779807841	 0.082498
H	-1.3399108008	-2.9832417982	 0.1260042203	 0.086728
122.3361	218.6354	288.1165	340.2125	372.0438	452.1702	550.6864	605.898	636.8939	646.7346	744.3157	785.9714	820.4272	852.8557	860.2596	864.9809	886.759	932.0727	980.5338	995.2788	1035.9457	1040.9257	1057.3608	1062.4083	1098.5051	1120.4841	1131.043	1170.4568	1197.8514	1241.9662	1259.8997	1272.7391	1288.0707	1301.3433	1316.4446	1340.5586	1382.0349	1422.947	1481.6115	1497.0854	1663.4634	3024.6521	3035.829	3051.7214	3078.4964	3117.7698	3143.8321	3152.943	3174.5832	3181.5507	3799.1195
OC1C=C2CCC3C1C23	O[C@H]1[CH][C]2CC[C@H]3[C@@H]1[C@@H]23	
InChI=1S/C8H10O/c9-6-3-4-1-2-5-7(4)8(5)6/h3,5-9H,1-2H2	InChI=1S/C8H10O/c9-6-3-4-1-2-5-7(4)8(5)6/h3,5-9H,1-2H2/t5-,6+,7+,8+/m1/s1
