19
gdb 84429	2.3605	1.71569	1.31491	2.0498	76.53	-0.2216	-0.0032	0.2183	1042.1388	0.158748	-423.0217	-423.013163	-423.012219	-423.054156	33.979	
C	-0.0306626755	 1.5515154244	 0.08593761	-0.488588
C	-0.0419134989	 0.0437658348	 0.0633262459	 0.220575
C	 1.2349749544	-0.7348512934	-0.2934830891	-0.376587
C	 0.6861361898	-0.8256740573	 1.0893263212	 0.369139
O	 1.4458279109	-0.3050537286	 2.127206113	-0.47449
C	-0.2382328969	-1.9986403959	 1.4464397407	 0.010651
O	-0.650041855	-1.8976094354	 2.820180142	-0.443765
C	-1.3854266	-1.8527243061	 0.476256319	-0.158174
C	-1.2876865735	-0.7224266401	-0.2348473328	-0.122913
H	 0.8896755141	 1.9134756037	 0.5532503686	 0.135152
H	-0.091686013	 1.9772275103	-0.9222058845	 0.116108
H	-0.8724208428	 1.9461111313	 0.6662836682	 0.111721
H	 1.1592111769	-1.5803473069	-0.9704759389	 0.108699
H	 2.1441674851	-0.1482444777	-0.3885487625	 0.120699
H	 0.9480546208	-0.5208598222	 2.9295597257	 0.284739
H	 0.2753656677	-2.9631853029	 1.3730905686	 0.099949
H	-1.4046065484	-1.2971339288	 2.8390773001	 0.282657
H	-2.1750039592	-2.5908653788	 0.3997322508	 0.10215
H	-2.0045078366	-0.3977917404	-0.983394246	 0.102278
121.23	170.5462	204.283	239.6777	289.5583	342.1051	358.0029	395.9561	475.0372	498.3386	541.6298	559.1409	615.536	693.8121	742.7535	772.3738	816.0062	891.0406	923.6605	955.1927	966.1244	971.0167	1003.8532	1045.1886	1066.4289	1099.0042	1107.2309	1165.3809	1229.5452	1241.6202	1267.776	1303.3967	1343.7648	1379.8554	1406.4202	1414.3953	1434.7902	1490.256	1490.9926	1500.7493	1650.609	3025.0555	3059.0274	3081.8939	3109.4713	3115.0889	3172.1277	3206.9448	3209.1562	3726.2664	3793.1584
CC12CC1(O)C(O)C=C2	C[C@@]12C[C@]1(O)[C@@H](O)C=C2	
InChI=1S/C7H10O2/c1-6-3-2-5(8)7(6,9)4-6/h2-3,5,8-9H,4H2,1H3	InChI=1S/C7H10O2/c1-6-3-2-5(8)7(6,9)4-6/h2-3,5,8-9H,4H2,1H3/t5-,6+,7-/m0/s1
