18
gdb 36492	4.00621	1.03575	0.90309	4.1716	74.79	-0.2442	0.0319	0.2761	1269.414	0.149202	-401.949715	-401.941802	-401.940857	-401.982652	30.04	
N	 0.0080681756	-1.1625371157	-0.1545054985	-0.307904
C	-0.0114852789	-0.0113505531	-0.0541942696	 0.262713
C	-0.0062258299	 1.4458766184	 0.07080368	-0.35667
C	 1.4151230825	 2.0415260117	 0.0448316688	-0.013628
C	 2.1823318986	 1.7466127535	-1.2703267638	-0.105337
O	 3.0632699024	 2.8433611751	-1.4885431585	-0.252837
C	 2.5220057945	 3.9716577209	-0.8532725033	 0.119155
C	 1.0885592937	 4.3419227673	-1.1265643423	-0.334586
C	 1.4625363412	 3.5599703721	 0.1267208594	-0.103444
H	-0.6052481549	 1.8696825545	-0.7432713352	 0.152577
H	-0.5099374418	 1.7146732012	 1.0057324365	 0.154522
H	 1.9754928905	 1.6349276045	 0.8938162457	 0.102848
H	 2.7791348553	 0.832884533	-1.2278093834	 0.132887
H	 1.4762887329	 1.6456825303	-2.1082296471	 0.102262
H	 3.2714092231	 4.7291725327	-0.659271024	 0.109073
H	 0.8091793478	 5.3804881923	-0.9874466378	 0.121179
H	 0.5611779571	 3.8464390049	-1.9350550546	 0.120408
H	 1.3585693504	 4.0317881865	 1.0967324177	 0.096781
71.4358	109.87	165.5309	247.0457	322.887	396.1888	414.0865	452.8141	518.3655	665.2929	696.3308	770.5664	805.9871	854.9518	904.1304	927.8076	954.1184	977.3268	993.8631	1039.4667	1043.8006	1077.9147	1080.0013	1103.9372	1123.9273	1168.6015	1199.9409	1219.8482	1253.2325	1291.755	1322.1291	1329.3825	1365.7214	1387.3851	1408.6652	1465.3647	1478.4316	1526.0902	2360.2804	2992.0862	3042.639	3050.0079	3085.5438	3103.9068	3134.8145	3176.0187	3192.2294	3220.2253
N#CCC1COC2CC12	N#CC[C@H]1CO[C@H]2C[C@@H]12	
InChI=1S/C7H9NO/c8-2-1-5-4-9-7-3-6(5)7/h5-7H,1,3-4H2	InChI=1S/C7H9NO/c8-2-1-5-4-9-7-3-6(5)7/h5-7H,1,3-4H2/t5-,6-,7-/m0/s1
