23
gdb 68033	1.99511	1.69275	1.38544	1.6498	86.27	-0.2266	0.0811	0.3077	1136.6927	0.202274	-388.250793	-388.240642	-388.239698	-388.284678	39.24	
C	 0.1902974191	 1.383995507	 0.0435157923	-0.518145
C	 0.0417326663	-0.0995317382	-0.096707613	 0.376352
C	 0.6981947925	-1.0664590212	-1.1144109421	-0.322389
C	 0.0128696263	-1.9059428769	-0.0066148065	 0.376346
C	 0.1143030161	-3.3721408819	 0.2807213533	-0.518144
O	 0.6023350646	-0.9604154524	 0.9811959081	-0.379324
C	-1.2591564298	-0.9831525745	-0.0711846603	 0.27149
C	-2.0869166985	-0.9059877785	 1.2105392672	-0.464648
C	-2.1821788899	-1.0291034556	-1.2885709909	-0.483349
H	 1.2469706171	 1.6596719965	 0.1141029625	 0.131992
H	-0.2415207941	 1.8928953174	-0.8244038936	 0.124154
H	-0.3210373676	 1.7415080835	 0.9427221252	 0.131387
H	 0.3301757431	-1.1117114811	-2.1397387698	 0.089627
H	 1.788210388	-1.0814270891	-1.0652945106	 0.097935
H	 1.1617636853	-3.6729547792	 0.3800972892	 0.131992
H	-0.4067667548	-3.6219595755	 1.2101984486	 0.131386
H	-0.3348607767	-3.9508321439	-0.5329730096	 0.124154
H	-1.4468186121	-0.8722879398	 2.0918114486	 0.136379
H	-2.7249202284	-0.0143608615	 1.2046553706	 0.106567
H	-2.7530810356	-1.7729431305	 1.2923471069	 0.106566
H	-2.8497371119	-1.8962607309	-1.2235603807	 0.117503
H	-2.8213861046	-0.138756568	-1.311394403	 0.117504
H	-1.6622737943	-1.0853488158	-2.2461100524	 0.114663
145.9858	171.2681	178.6415	183.4325	189.3384	209.7229	222.9083	242.0809	359.649	399.0186	401.4202	473.3053	535.046	596.1205	607.9016	664.9005	691.1064	692.7774	766.906	862.8625	922.0708	947.0798	967.4614	1005.0954	1006.4155	1026.9426	1072.7162	1131.5065	1145.1599	1158.9265	1159.9353	1186.3643	1237.4434	1264.9037	1282.7636	1372.0826	1392.8851	1406.6378	1411.9025	1426.0292	1475.6327	1477.3172	1479.2581	1486.207	1489.9947	1490.7496	1506.2221	1514.0598	1515.8981	3026.1997	3032.5438	3036.5109	3036.9969	3075.1635	3076.6357	3083.3275	3109.2066	3109.2135	3111.2806	3111.4204	3127.9175	3147.6154	3149.7489
CC12CC(C)(O1)C2(C)C	C[C@@]12C[C@@](C)(O1)C2(C)C	
InChI=1S/C8H14O/c1-6(2)7(3)5-8(6,4)9-7/h5H2,1-4H3	InChI=1S/C8H14O/c1-6(2)7(3)5-8(6,4)9-7/h5H2,1-4H3/t7-,8+
