16
gdb 22402	7.2442	0.6511	0.61712	3.3075	72.21	-0.2567	-0.0098	0.2469	1692.7972	0.121773	-474.986398	-474.977463	-474.976518	-475.021469	31.511	
O	-0.2558895568	 1.3451200412	 0.1509881273	-0.391317
N	-0.0261099905	-0.0410299696	 0.1622966891	-0.2248
C	-1.1024133159	-0.6792195801	-0.0226144459	 0.412022
C	-2.5441544676	-0.3248767921	-0.3323132927	-0.344532
C	-2.7266906093	-1.8045336525	-0.7735711048	 0.127142
C	-1.3451423355	-2.1680660895	-0.1531177329	-0.338484
O	-3.8355537786	-2.4696494649	-0.18678514	-0.185787
C	-4.6942543811	-3.1319782482	-0.9890796614	 0.165717
O	-5.6463143573	-3.7164910401	-0.5715044312	-0.26953
H	 0.6296479287	 1.7001060711	 0.2850807258	 0.310052
H	-3.1279968768	-0.0993746379	 0.5659697573	 0.147727
H	-2.7166026205	 0.4564629016	-1.075330228	 0.135495
H	-2.7476735497	-1.9234045604	-1.8615852216	 0.100323
H	-0.6500359519	-2.7473132812	-0.7644066339	 0.130397
H	-1.4734462726	-2.6634568217	 0.8149234078	 0.144585
H	-4.4148562145	-3.0687559055	-2.0591690351	 0.08099
38.9319	47.3495	149.2315	193.2043	234.1605	285.2829	342.0217	376.7102	398.3823	475.2107	546.497	590.5405	733.1961	787.2694	836.58	948.4523	962.5417	977.4047	1042.295	1044.538	1048.5671	1107.6652	1171.6915	1172.6176	1205.7336	1222.3171	1256.9391	1269.7526	1381.1484	1408.052	1440.8343	1444.6898	1467.8106	1793.2909	1870.9055	2945.3471	3056.7718	3057.4042	3063.0571	3119.7742	3121.9345	3815.9025
ON=C1CC(C1)OC=O	ON=C1C[C@@H](C1)OC=O	
InChI=1S/C5H7NO3/c7-3-9-5-1-4(2-5)6-8/h3,5,8H,1-2H2	InChI=1S/C5H7NO3/c7-3-9-5-1-4(2-5)6-8/h3,5,8H,1-2H2/t5-
