21
gdb 109856	2.48774	1.39478	1.06479	2.2942	78.35	-0.2377	0.0605	0.2982	1204.2704	0.182198	-424.194437	-424.185231	-424.184287	-424.227849	35.706	
C	-0.0633295491	 1.5375352044	 0.1122800355	-0.497614
C	 0.017021018	 0.039734414	 0.0183299161	 0.33393
C	-0.833365092	-0.8814569025	 0.8533513174	-0.33415
C	 0.6605287979	-0.9686288706	 0.9872326047	-0.105057
C	 1.2419926709	-1.7546840183	-0.184024675	 0.116449
O	 0.7973406878	-3.0892477816	-0.2810252782	-0.443761
C	 0.6084242247	-0.7185303254	-1.1831895615	-0.082338
C	-0.3098134315	-1.2755533911	-2.256992997	-0.123069
O	 0.4660723864	-2.2188816095	-3.0090690625	-0.427006
H	 0.8816209367	 2.0075188511	-0.1846769353	 0.115232
H	-0.8506130346	 1.9400513101	-0.5372508466	 0.116837
H	-0.2887729886	 1.8571278671	 1.1351220342	 0.118279
H	-1.3394652125	-0.3974157386	 1.6830696589	 0.105534
H	-1.3826209228	-1.7127813511	 0.4236747915	 0.117418
H	 1.1670312215	-0.7809775907	 1.9265367246	 0.080476
H	 2.338558927	-1.7007792269	-0.2076936095	 0.064722
H	 0.880071869	-3.3238771382	-1.2155795734	 0.285373
H	 1.39979619	-0.1348050672	-1.6644876891	 0.072534
H	-1.1797542565	-1.7705501313	-1.8075692166	 0.100617
H	-0.6792697477	-0.4691528991	-2.9078862398	 0.093711
H	-0.1033404846	-2.6162826245	-3.6748836986	 0.291882
123.5929	129.2429	171.2581	210.7868	241.9416	264.5719	326.102	338.8604	353.8726	471.5875	500.259	541.4018	559.4116	689.4152	722.8222	798.0567	820.0953	896.3365	959.6562	967.6453	993.18	1003.7844	1030.0245	1043.066	1071.7933	1098.5815	1102.9647	1109.3579	1155.2935	1187.9729	1223.7232	1248.483	1258.0863	1276.538	1300.98	1353.0465	1366.9265	1394.9567	1420.1066	1428.0481	1455.2521	1486.6302	1496.8097	1501.9372	1518.0937	2990.5427	3003.7563	3017.2921	3037.1947	3060.3652	3073.6637	3093.4718	3125.4153	3179.532	3206.6594	3749.0163	3826.3134
CC12CC1C(O)C2CO	C[C@]12C[C@H]1[C@@H](O)[C@H]2CO	
InChI=1S/C7H12O2/c1-7-2-4(7)6(9)5(7)3-8/h4-6,8-9H,2-3H2,1H3	InChI=1S/C7H12O2/c1-7-2-4(7)6(9)5(7)3-8/h4-6,8-9H,2-3H2,1H3/t4-,5+,6+,7-/m0/s1
