16
gdb 24699	3.72223	1.64313	1.16274	2.2763	79.47	-0.2092	-0.0328	0.1765	1006.8384	0.129282	-396.994933	-396.988418	-396.987474	-397.025759	25.978	
C	 0.0155569913	 1.4290988809	 0.1266132104	-0.173638
C	 1.4809711493	 1.8998327053	-0.0920262724	-0.325137
C	 2.2456227622	 0.5994609491	-0.0321335227	 0.308458
N	 3.5393259767	 0.4084074141	 0.0664508541	-0.329843
C	 3.9253397075	-0.8904712289	 0.0704605139	-0.059135
C	 3.0152496532	-1.9302191428	-0.0181705404	-0.025893
N	 1.6818541027	-1.744076996	-0.1171911709	-0.363107
C	 1.3255381656	-0.4713010729	-0.129103339	 0.389181
N	 0.0410329511	 0.006360035	-0.2539577435	-0.371986
H	-0.2737655088	 1.5521778278	 1.1801856763	 0.109974
H	-0.6997003844	 1.9822996523	-0.4868208147	 0.118543
H	 1.5995330343	 2.363142727	-1.0790723706	 0.131405
H	 1.8060374886	 2.629317729	 0.6525415919	 0.130148
H	 4.9892031169	-1.0852182567	 0.1559807148	 0.1042
H	 3.3562099762	-2.9618414562	-0.0047945562	 0.107778
H	-0.7215957423	-0.5953099268	 0.0185460391	 0.249055
142.3703	196.7279	292.5275	434.5434	440.3391	503.6605	559.6032	579.5309	631.0296	709.4166	771.8836	817.3183	856.9261	871.9049	912.5042	941.6633	966.691	1048.9347	1070.6037	1084.8518	1147.7471	1191.0767	1223.1415	1242.7366	1272.992	1311.8892	1315.3223	1359.3294	1418.4728	1472.3241	1479.7626	1490.8434	1531.7822	1625.3313	1629.2965	2997.8023	3036.8863	3089.0027	3109.4066	3163.1278	3188.3588	3618.6682
C1CC2=NC=CN=C2N1	C1Cc2nccnc2N1	
InChI=1S/C6H7N3/c1-2-8-6-5(1)7-3-4-9-6/h3-4H,1-2H2,(H,8,9)	InChI=1S/C6H7N3/c1-2-8-6-5(1)7-3-4-9-6/h3-4H,1-2H2,(H,8,9)
