18
gdb 76461	2.21127	1.3424	1.20386	2.8	75.52	-0.2386	-0.0469	0.1917	1151.816	0.143848	-439.0735	-439.063722	-439.062778	-439.107864	34.803	
C	 0.1623754595	 1.4680071768	 0.894118012	-0.436428
C	 0.1978524982	 0.0332268528	 0.4216051622	-0.018715
N	 1.2388793905	-0.5454518452	-0.366784489	-0.136057
C	 2.3889695718	 0.2354390469	-0.8230797998	-0.334919
C	 1.1495309633	-1.0187980394	 1.0343321681	 0.076638
C	 2.1049677836	-0.6251276745	 2.1092385096	 0.090737
O	 2.7300725507	 0.4122125957	 2.1610691429	-0.283335
C	 0.5980125239	-2.4073428745	 1.1386478249	 0.12241
O	 0.6561654609	-3.0958616716	 2.1265888306	-0.261166
H	 1.1150438565	 1.7957020223	 1.3082984498	 0.169158
H	-0.1060708336	 2.1195148838	 0.055011132	 0.132629
H	-0.6097478757	 1.5828071506	 1.6606694838	 0.133574
H	-0.7871983837	-0.3693230456	 0.1767060898	 0.108676
H	 2.7916468415	 0.9370037252	-0.088604957	 0.155358
H	 3.1805772863	-0.4627760684	-1.1083970151	 0.134034
H	 2.0784835004	 0.7792877561	-1.7201940595	 0.130646
H	 2.2130612466	-1.4029826217	 2.888465067	 0.123059
H	 0.1104802094	-2.7503843393	 0.1998801777	 0.093701
90.6698	139.4883	168.6953	187.1389	196.7541	222.5195	224.5056	263.4471	269.6877	373.1366	424.5923	465.7524	547.5797	663.0446	704.3712	750.9946	814.3182	982.9309	1015.2351	1037.3713	1057.274	1068.504	1120.2122	1139.7618	1160.7565	1188.6475	1275.4255	1355.6021	1392.3552	1408.9464	1417.9555	1429.0653	1451.4042	1478.2333	1495.7097	1498.7525	1519.2991	1784.3399	1818.5584	2900.0116	2964.1599	3041.1798	3044.6638	3082.1904	3104.1653	3115.188	3123.829	3163.3745
CC1N(C)C1(C=O)C=O	C[C@H]1N(C)C1(C=O)C=O	
InChI=1S/C6H9NO2/c1-5-6(3-8,4-9)7(5)2/h3-5H,1-2H3	InChI=1S/C6H9NO2/c1-5-6(3-8,4-9)7(5)2/h3-5H,1-2H3/t5-,7?/m1/s1
