15
gdb 26567	2.39339	1.87851	1.05389	3.7019	75.17	-0.1815	-0.0164	0.1651	1057.2691	0.113891	-453.971474	-453.963392	-453.962448	-454.003799	30.892	
N	 0.0497604399	 1.4007141339	 0.0291429015	-0.59694
C	 0.0104423551	 0.0086015106	 0.0466723123	 0.101663
C	-1.1402783279	-0.6980830303	 0.0982859376	 0.382016
O	-2.3592375429	-0.1162251188	 0.070004696	-0.425225
O	-1.2104241023	-2.05447265	 0.1767779516	-0.234265
C	-0.0451800169	-2.7478541969	 0.2066486645	 0.043343
C	 1.154632761	-2.1537342923	 0.147512514	-0.233653
C	 1.2843888698	-0.7059206913	 0.0430549069	 0.267312
N	 2.3733739816	-0.0181667834	-0.0579220523	-0.571931
H	 0.9603715694	 1.7145473148	-0.2881316189	 0.263645
H	-0.7193223445	 1.8408163063	-0.4552156837	 0.246156
H	-3.0275674421	-0.8095358551	 0.1167060256	 0.306972
H	-0.223625594	-3.8119545872	 0.2804188258	 0.139134
H	 2.0466090315	-2.7694737537	 0.1674470175	 0.107783
H	 3.1909812422	-0.6280808365	-0.0587004683	 0.20399
122.1612	157.1407	195.7161	283.2818	297.8144	351.1591	357.5724	496.1988	502.6064	526.012	548.1918	576.1856	683.5035	704.055	738.6445	795.4085	853.2396	865.1967	922.6854	975.691	1046.916	1137.5386	1161.2893	1279.0522	1298.1709	1328.5006	1331.6332	1418.7196	1476.6722	1605.9684	1621.2554	1690.4588	1755.5825	3197.0545	3235.0909	3469.1149	3521.8258	3643.9533	3821.0765
NC1=C(O)OC=CC1=N	NC1=C(O)OCC=C1[NH]	
InChI=1S/C5H6N2O2/c6-3-1-2-9-5(8)4(3)7/h1-2,6,8H,7H2	InChI=1S/C5H7N2O2/c6-3-1-2-9-5(8)4(3)7/h1,6,8H,2,7H2
