18
gdb 29650	2.37421	1.62469	0.97999	4.7397	76.23	-0.1721	0.0537	0.2258	1184.5236	0.147881	-435.3287	-435.319002	-435.318057	-435.362907	34.889	
C	-0.0641852181	 1.4294845501	 0.0258674093	-0.347959
N	-0.0257311426	-0.0131917347	 0.0431718105	-0.153367
C	-0.0653801001	-0.7625918096	-1.1243018179	 0.446363
O	-0.1265422091	-0.3585114024	-2.2729238978	-0.45107
N	-0.0223168127	-2.0749338987	-0.6745541684	-0.38863
C	-0.000889172	-2.1264878855	 0.7200343841	 0.200119
N	-0.0547978712	-3.3744775046	 1.362439457	-0.607692
C	 0.0202201958	-0.8522739355	 1.1764706029	 0.244529
C	 0.092758127	-0.3229851846	 2.5653567831	-0.506355
H	 0.8307471554	 1.8643445735	 0.4853445984	 0.124837
H	-0.1075100392	 1.7297756441	-1.0226417982	 0.170801
H	-0.9478839778	 1.817379982	 0.5454701842	 0.125472
H	-0.2060054596	-2.856787385	-1.278622291	 0.264142
H	 0.8272691774	-3.877946288	 1.3174380621	 0.246503
H	-0.3189117963	-3.2806897302	 2.3346613411	 0.246912
H	 0.225779557	-1.1457112475	 3.2734660607	 0.119118
H	 0.9393144342	 0.3617746324	 2.6997258914	 0.133316
H	-0.8130668282	 0.2223040543	 2.8603512882	 0.132961
100.6276	145.7873	157.9986	163.1364	176.8272	234.7896	260.4316	285.6421	313.1691	347.8355	443.7711	555.7659	625.196	634.5461	639.4868	740.4278	751.7645	796.9852	888.3053	994.4712	1063.2093	1083.133	1156.9727	1162.7774	1186.3422	1228.5988	1295.6117	1356.7551	1409.1903	1420.4672	1451.8495	1466.1839	1472.8622	1498.0305	1499.7878	1516.1375	1640.3724	1735.886	1820.1992	3012.5804	3022.9404	3056.0015	3073.7856	3106.5121	3142.1712	3482.7239	3604.7378	3689.4082
CN1C(=O)NC(N)=C1C	Cn1c(=O)[nH]c(N)c1C	
InChI=1S/C5H9N3O/c1-3-4(6)7-5(9)8(3)2/h6H2,1-2H3,(H,7,9)	InChI=1S/C5H9N3O/c1-3-4(6)7-5(9)8(3)2/h6H2,1-2H3,(H,7,9)
