20
gdb 121636	3.2003	0.87326	0.72913	2.7888	74.25	-0.2426	0.055	0.2976	1585.7787	0.168866	-477.454494	-477.44355	-477.442606	-477.492078	36.973	
C	-0.0279894037	 1.3442059074	 0.0360413918	-0.339784
N	 0.1027801432	-0.097832914	-0.0644215521	-0.144511
C	 0.2186070851	-0.8316096979	 1.181738884	-0.339097
C	 0.0023011942	-0.6789910318	-1.2953708237	 0.533262
O	-0.1171547248	-0.0817783053	-2.3442720684	-0.421912
O	 0.0609878831	-2.0384058596	-1.2191063788	-0.290253
C	-0.0065497153	-2.7222848427	-2.4831452709	-0.068942
C	-0.0541134665	-4.2041353489	-2.1601665416	-0.0696
O	-1.2087041649	-4.5547820649	-1.4222437714	-0.419274
H	 0.8455828536	 1.7735143819	 0.5418546168	 0.121826
H	-0.1053789833	 1.7571765566	-0.9679589286	 0.170566
H	-0.9234220061	 1.6173775418	 0.6100244774	 0.120978
H	-0.7229101634	-0.8134856703	 1.7487024278	 0.122659
H	 0.4934216173	-1.8651096837	 0.9867366476	 0.153021
H	 0.9946702711	-0.3742129543	 1.8068661102	 0.126402
H	-0.9047052784	-2.4041964804	-3.0189366147	 0.131415
H	 0.8692171357	-2.4693274857	-3.0900012758	 0.1167
H	-0.0904194321	-4.7709147191	-3.0962382711	 0.115955
H	 0.8678825625	-4.4924194522	-1.630215855	 0.09287
H	-1.2339439272	-3.9672163271	-0.6592252437	 0.287717
31.0953	66.2126	98.4576	116.5999	130.6554	160.2445	189.7047	223.2788	292.7187	341.4019	376.9189	393.8338	486.3922	539.6788	628.9415	770.3342	838.359	884.7685	909.7482	1024.7864	1072.8966	1086.8034	1104.922	1128.7413	1136.1408	1181.7677	1205.1042	1235.7977	1262.4938	1293.2435	1376.8243	1386.5844	1431.6065	1434.8181	1438.5833	1471.3506	1491.0055	1498.0926	1500.842	1504.5282	1506.2749	1547.3473	1798.7109	2981.0954	3004.253	3012.8707	3052.5147	3056.8942	3060.0819	3081.929	3111.1206	3172.4798	3180.4672	3811.1944
CN(C)C(=O)OCCO	CN(C)C(=O)OCCO	
InChI=1S/C5H11NO3/c1-6(2)5(8)9-4-3-7/h7H,3-4H2,1-2H3	InChI=1S/C5H11NO3/c1-6(2)5(8)9-4-3-7/h7H,3-4H2,1-2H3
