19
gdb 102922	3.08384	0.74587	0.62808	2.5545	78.51	-0.2528	-0.0263	0.2265	1729.0628	0.155361	-422.995143	-422.984483	-422.983539	-423.032125	37.024	
O	 0.1853562603	 1.4207962401	 0.184421236	-0.413428
C	 0.0901528267	 0.0216164047	-0.0157880406	-0.086709
C	-1.3611427598	-0.47756128	-0.0002977907	-0.104484
C	-1.4199194135	-2.0175052696	-0.0702692489	-0.210262
C	-2.8406321516	-2.5591650971	-0.3331099462	-0.364465
C	-2.8778691982	-4.015015879	-0.3876559603	 0.288795
C	-2.8775045047	-5.2161976568	-0.4287036214	-0.429337
C	-2.0454887701	 0.0087861323	 1.2653489955	 0.182327
O	-3.1294031952	 0.5293995384	 1.3085490303	-0.25539
H	-0.2768159195	 1.8611479048	-0.5365910881	 0.288912
H	 0.5791784911	-0.2961293121	-0.9490628635	 0.100094
H	 0.6486211221	-0.4322658878	 0.8113791264	 0.119008
H	-1.9090064335	-0.0514898144	-0.851155596	 0.086495
H	-0.7510272761	-2.3666872612	-0.8646512084	 0.118618
H	-1.0366525094	-2.4460031604	 0.8639512412	 0.119181
H	-3.5267110589	-2.1994543132	 0.443324947	 0.150272
H	-3.2165428337	-2.1461933471	-1.2780463743	 0.135609
H	-2.8938944344	-6.2771351075	-0.4662080606	 0.196645
H	-1.4615369116	-0.1872369543	 2.1958351826	 0.078119
48.5524	65.9615	83.1768	101.7496	138.2796	196.7832	250.8739	304.9875	339.5599	346.1923	363.5808	437.7152	545.6901	570.8268	621.5511	644.3434	757.9709	860.5821	939.6418	954.2117	976.5277	1020.3859	1058.0099	1069.7809	1111.4668	1123.7703	1179.5887	1209.0616	1274.1054	1303.5234	1331.599	1349.5953	1381.9966	1388.3141	1411.257	1429.2612	1473.0836	1492.4115	1507.9122	1834.6939	2240.5432	2854.5874	2991.8293	3024.1318	3026.6785	3037.524	3054.7904	3065.7705	3081.5245	3507.0106	3812.7361
OCC(CCC#C)C=O	OC[C@@H](CCC#C)C=O	
InChI=1S/C7H10O2/c1-2-3-4-7(5-8)6-9/h1,5,7,9H,3-4,6H2	InChI=1S/C7H10O2/c1-2-3-4-7(5-8)6-9/h1,5,7,9H,3-4,6H2/t7-/m0/s1
