14
gdb 129108	5.06246	1.30827	1.04776	5.1866	70.47	-0.2168	-0.0005	0.2164	1048.3253	0.104144	-429.041759	-429.034937	-429.033993	-429.072943	26.469	
N	-0.0778160511	 1.2534110692	-0.0667097653	-0.519202
C	-0.0085475548	-0.0068857605	 0.0119944649	 0.379482
C	-1.2405058111	-0.9432965107	 0.0180090295	-0.41283
C	-0.5890481304	-2.2918992045	-0.0373124297	 0.269337
C	 0.7694905684	-2.1349244921	-0.0041773242	 0.438681
N	 1.2768328393	-3.3738196308	-0.0058652979	-0.347583
N	 0.2355534874	-4.2893817358	-0.0571559957	-0.137627
N	-0.8782027532	-3.612959606	-0.0632591067	-0.277144
N	 1.1656999949	-0.8123376359	 0.1115527116	-0.456428
H	 0.8417705185	 1.6970227751	-0.0521400127	 0.212885
H	-1.824925036	-0.7710716207	 0.9281364782	 0.156015
H	-1.8871205513	-0.7020492927	-0.8302728852	 0.156637
H	 2.2245383253	-3.7112244245	-0.0000682459	 0.279584
H	 2.054502574	-0.4560780602	-0.2033417209	 0.258194
107.7151	222.7424	302.3931	342.4956	355.5749	486.5627	528.3675	539.467	560.6494	689.2736	728.5332	748.1899	822.8987	855.4503	863.1654	921.2956	967.7772	1026.1758	1047.4178	1154.907	1190.9507	1217.4607	1247.4182	1305.1202	1327.2873	1365.8274	1433.9337	1463.5493	1574.4055	1629.2937	1764.1237	3057.0437	3095.5839	3463.7271	3630.9784	3676.0584
N=C1CC2=C(NN=N2)N1	[NH][C]1Cc2c([nH]nn2)N1	
InChI=1S/C4H5N5/c5-3-1-2-4(6-3)8-9-7-2/h1H2,(H3,5,6,7,8,9)	InChI=1S/C4H5N5/c5-3-1-2-4(6-3)8-9-7-2/h1H2,(H3,5,6,7,8,9)
