12
gdb 20646	4.11877	1.88	1.30117	4.7289	60.09	-0.2764	-0.1039	0.1725	863.7057	0.082269	-414.645094	-414.638176	-414.637232	-414.676385	24.801	
C	 0.0105118214	 1.5121480273	 0.0132933811	-0.461487
C	-0.0585404473	 0.0201111702	 0.041471273	 0.368343
C	-1.1618924127	-0.7212270737	-0.1631066036	-0.317418
C	-1.0956134754	-2.1717444815	-0.1084946052	 0.485301
O	-2.0023205957	-2.9401953874	-0.2715643107	-0.327648
O	 0.1689699649	-2.6727596609	 0.1634720408	-0.262657
N	 1.3093981805	-1.8285930294	 0.3729032109	 0.069517
N	 1.1732072004	-0.6054811752	 0.310720924	-0.163475
H	 0.7250051275	 1.8420884869	-0.7481367155	 0.161529
H	-0.9661568867	 1.9501654291	-0.1983085222	 0.141999
H	 0.3739256494	 1.8909424048	 0.9742862833	 0.161525
H	-2.1291488661	-0.2810540902	-0.373260286	 0.144471
123.9698	147.4008	174.9339	303.7168	396.202	409.8548	510.2622	527.1233	634.8629	733.9783	759.8249	774.4829	889.6662	914.4896	955.304	1045.4384	1067.9808	1183.2849	1214.6579	1335.3304	1416.1766	1469.0338	1477.7884	1595.4896	1689.0776	1852.0961	3044.9461	3103.4224	3145.4891	3215.6763
CC1=CC(=O)ON=N1	CC1=N[N]OC(=O)[CH]1	
InChI=1S/C4H4N2O2/c1-3-2-4(7)8-6-5-3/h2H,1H3	InChI=1S/C4H4N2O2/c1-3-2-4(7)8-6-5-3/h2H,1H3
