19
gdb 64190	2.3243	1.4069	1.3484	3.1503	72.08	-0.2589	-0.0293	0.2297	1087.326	0.155994	-460.167393	-460.157884	-460.15694	-460.20109	36.08	
C	-0.1709923531	 1.4942203815	 0.2578088864	-0.444331
C	 0.0020629798	 0.006370054	-0.0063456479	 0.350822
O	-1.2491693951	-0.6422533689	-0.1553304792	-0.480282
C	 1.0978041079	-0.3302359604	-1.0635181722	-0.285417
C	 2.0919570099	-0.611396171	 0.0909736957	-0.293035
C	 0.8873870052	-0.6986810807	 1.0860961188	 0.291239
O	 1.0209733677	-0.0623313249	 2.3145688064	-0.485247
C	 0.4560385503	-2.1350679393	 1.2978182076	 0.135032
O	 0.2670725592	-2.5738477054	 2.4074977743	-0.287629
H	 0.7893626652	 1.9948706471	 0.4046620374	 0.131112
H	-0.668077758	 1.9667491703	-0.5991989913	 0.103523
H	-0.7741783168	 1.6509051954	 1.1548655748	 0.13909
H	-1.8209070905	-0.0922102255	-0.7011816028	 0.279754
H	 0.832135302	-1.2319536816	-1.6205482966	 0.110099
H	 1.3636980322	 0.4591828349	-1.7701877428	 0.101508
H	 2.7372013738	-1.4887910678	 0.0069573228	 0.108686
H	 2.7052320961	 0.2539367026	 0.3493146558	 0.126704
H	 0.7511993169	-0.7178735005	 2.9797245493	 0.291893
H	 0.3448039873	-2.7644436198	 0.3963676633	 0.10648
92.258	122.3428	194.9703	225.3571	236.9761	268.902	306.2564	320.1618	353.4815	394.4519	438.7983	479.6305	529.4981	579.7829	645.3945	753.1981	834.1098	875.9502	900.121	907.3579	936.2899	953.3662	991.862	1069.2346	1102.6975	1122.5766	1181.4944	1204.4862	1219.1336	1228.8317	1267.4991	1302.7266	1355.7296	1390.7787	1409.1639	1441.5415	1473.8124	1484.032	1488.5898	1494.1427	1806.3758	2972.4129	3025.2277	3064.1986	3072.4959	3103.8352	3114.8842	3132.5008	3135.6566	3661.0463	3807.9953
CC1(O)CCC1(O)C=O	C[C@@]1(O)CC[C@]1(O)C=O	
InChI=1S/C6H10O3/c1-5(8)2-3-6(5,9)4-7/h4,8-9H,2-3H2,1H3	InChI=1S/C6H10O3/c1-5(8)2-3-6(5,9)4-7/h4,8-9H,2-3H2,1H3/t5-,6+/m1/s1
