20
gdb 107860	3.4731	1.34927	1.29689	2.4769	77.91	-0.2223	0.0669	0.2892	1063.5539	0.173301	-403.088247	-403.080745	-403.079801	-403.120197	30.318	
O	-0.0609407121	 1.3952262305	-0.0470946673	-0.423328
C	-0.0058921364	-0.0235925679	 0.0433956133	-0.213876
C	-1.4173143195	-0.5435167002	-0.0010970291	 0.33843
C	-2.3270348969	-0.4515877677	-1.243965545	-0.196057
N	-3.0895465168	-1.6183109346	-0.6849215952	-0.156879
C	-3.4059690929	-1.2601489165	 0.7927114369	-0.001245
C	-2.5713686676	-2.490273274	 1.2103742898	-0.239533
C	-1.7862108689	-2.0891535396	-0.036338404	-0.055774
C	-2.4290220688	-0.0978656118	 1.0772829405	-0.254693
H	 0.839549351	 1.7326228869	-0.0454404345	 0.289112
H	 0.5756355668	-0.4513941553	-0.7899009134	 0.08352
H	 0.480027046	-0.3463347907	 0.9797630691	 0.084103
H	-2.8942691077	 0.4682719637	-1.4153894897	 0.101257
H	-1.844215905	-0.7690987769	-2.173859675	 0.0988
H	-4.4580842659	-1.1475319073	 1.050664535	 0.071467
H	-2.0908858478	-2.4839746915	 2.1914247461	 0.092569
H	-3.0990026812	-3.4310547479	 1.0403845149	 0.112837
H	-1.1431957065	-2.7622434407	-0.606950241	 0.07039
H	-2.0382306923	-0.1222693815	 2.098690877	 0.091654
H	-2.8274130075	 0.8997880831	 0.8821346114	 0.107245
81.123	164.996	239.4524	289.1027	349.9525	422.9415	471.5809	491.0527	637.7437	662.5604	752.5827	781.863	832.9687	881.0904	886.7732	908.6134	933.428	964.1824	975.6035	1001.5049	1015.9701	1023.3888	1054.2351	1070.2413	1099.0142	1131.4057	1151.2461	1178.8171	1188.4651	1207.4831	1223.0619	1241.5062	1253.9631	1273.4405	1279.523	1289.9535	1315.3206	1363.4599	1466.8924	1480.358	1499.529	1514.4333	1523.2931	2953.5993	2980.7399	3042.2362	3059.8221	3067.142	3095.724	3098.5929	3112.367	3125.4318	3131.1696	3829.5049
OCC12CN3C(CC13)C2	OC[C@@]12CN3[C@@H](C[C@H]13)C2	
InChI=1S/C7H11NO/c9-4-7-2-5-1-6(7)8(5)3-7/h5-6,9H,1-4H2	InChI=1S/C7H11NO/c9-4-7-2-5-1-6(7)8(5)3-7/h5-6,9H,1-4H2/t5-,6+,7+/m0/s1
