16
gdb 100235	2.70614	1.16069	0.97464	7.6276	69.32	-0.2889	0.0075	0.2964	1225.3124	0.123514	-434.0804	-434.070855	-434.069911	-434.11502	34.008	
N	-0.215728461	 1.4030427937	 0.1551856371	-0.529776
C	 0.0849999492	-0.0087140244	-0.064560843	-0.200461
C	 0.8609392202	-0.5250335268	 1.1772332499	 0.216532
O	 0.1713183636	-0.1647735425	 2.3413741922	-0.430043
C	 0.9763164908	-2.0627517239	 1.1424964503	-0.368869
C	 1.704799074	-2.6173050536	 2.2806332449	 0.287164
N	 2.2794423039	-3.079659464	 3.1688495699	-0.295263
C	 2.2149524014	 0.0974253988	 1.1526857762	 0.270213
N	 3.2379087288	 0.6310690965	 1.0889320014	-0.330791
H	 0.5756114348	 1.9887042044	-0.0917928172	 0.259382
H	-1.0086630436	 1.7032585605	-0.3981139906	 0.252244
H	-0.8594325365	-0.5600820945	-0.1064128515	 0.124768
H	 0.652768253	-0.2247821281	-0.9804160171	 0.116663
H	-0.1876217174	 0.720212831	 2.1484120343	 0.298959
H	-0.0404908665	-2.4682848372	 1.1438179608	 0.165766
H	 1.4676578853	-2.37781735	 0.2159114425	 0.163511
63.9151	107.6322	116.4003	182.0034	196.0353	269.8512	289.5288	350.9605	385.4749	394.3473	441.3464	485.6971	587.2549	621.1668	690.1029	721.4857	850.95	903.1899	933.9652	953.6758	1035.0876	1063.4288	1092.4802	1157.8839	1206.7999	1283.4156	1327.1791	1343.7335	1405.678	1427.4181	1448.7911	1489.9111	1656.6237	2350.4434	2373.4796	3005.7766	3054.3525	3086.6241	3102.7119	3519.3559	3607.0124	3633.2883
NCC(O)(CC#N)C#N	NC[C@@](O)(CC#N)C#N	
InChI=1S/C5H7N3O/c6-2-1-5(9,3-7)4-8/h9H,1,3,7H2	InChI=1S/C5H7N3O/c6-2-1-5(9,3-7)4-8/h9H,1,3,7H2/t5-/m0/s1
