16
gdb 129477	4.35938	1.05694	0.9319	2.5622	71.57	-0.2391	0.0046	0.2437	1225.6186	0.126658	-434.120897	-434.112895	-434.111951	-434.154674	29.419	
N	 0.6266013222	 0.0059272777	-0.6019300663	-0.509924
C	-0.2976968439	 0.2172865796	 0.36313725	 0.385454
O	-0.3190422824	 1.1760451277	 1.1095984899	-0.357268
C	-1.4135935891	-0.8442976535	 0.4499521192	-0.268994
N	-1.0372458823	-2.1983807688	 0.0914282202	 0.062409
C	-0.9243295824	-3.2717767432	 0.9105422952	-0.015886
C	-0.5173343593	-4.3355139492	 0.1307936949	-0.237388
C	-0.4034949447	-3.7955525202	-1.1632726278	-0.000391
N	-0.7220241936	-2.5018722116	-1.1877563459	-0.279135
H	 1.3330067014	 0.7084903277	-0.7454508923	 0.261659
H	 0.5280936509	-0.7667396382	-1.246105164	 0.278126
H	-1.7730112457	-0.8428228945	 1.4784895456	 0.151841
H	-2.2337967353	-0.5221674666	-0.2001840416	 0.155636
H	-1.1448785569	-3.1965212059	 1.9636213418	 0.140767
H	-0.3358280618	-5.3480083503	 0.4514042062	 0.112797
H	-0.111469307	-4.2895947205	-2.0783482752	 0.120295
46.8654	54.5439	141.7917	296.7397	338.6933	386.6523	393.9195	516.6863	584.1314	629.3126	673.1957	694.3629	770.465	797.4493	838.8816	868.4821	894.5647	934.0709	970.4453	990.2944	1074.2861	1113.8506	1122.4957	1188.8311	1255.6723	1313.6803	1342.8497	1368.5508	1378.6281	1432.1382	1462.378	1488.5312	1558.0628	1619.2548	1808.6699	3062.3499	3150.9783	3246.17	3260.8569	3282.4554	3540.7041	3703.498
NC(=O)CN1C=CC=N1	NC(=O)Cn1cccn1	
InChI=1S/C5H7N3O/c6-5(9)4-8-3-1-2-7-8/h1-3H,4H2,(H2,6,9)	InChI=1S/C5H7N3O/c6-5(9)4-8-3-1-2-7-8/h1-3H,4H2,(H2,6,9)
