16
gdb 30411	2.63273	1.59279	0.99954	2.1443	80.	-0.202	-0.0224	0.1796	1138.5566	0.125622	-434.091759	-434.083533	-434.082588	-434.12467	30.699	
C	-0.1455997317	 1.3636462771	 0.0201025404	-0.332496
N	-0.1238374758	-0.0801115925	-0.0986361783	-0.331757
C	 0.5836875566	-0.6406754383	-1.0043741394	 0.354931
N	 1.3827167469	 0.0334824153	-1.9388540221	-0.333615
C	 2.0784085641	-0.6459413423	-2.7626275008	 0.11891
O	 2.1520195423	-1.9795388827	-2.8602701941	-0.177982
C	 1.3714946009	-2.7117584419	-1.9879881331	-0.058218
C	 0.5774842839	-2.1157409394	-1.0760269842	 0.198009
N	-0.2781276292	-2.7601808029	-0.2131191782	-0.584972
H	 0.4686069173	 1.8809990119	-0.7238186773	 0.131191
H	-1.1819238074	 1.7130020882	-0.0649860138	 0.121347
H	 0.1961096064	 1.6457524023	 1.0237657299	 0.119104
H	 2.7148389884	-0.1685207349	-3.5023879114	 0.139915
H	 1.4801305582	-3.7745687013	-2.1480652056	 0.124504
H	-0.0415806507	-3.6987618236	 0.0670965797	 0.246562
H	-0.5850972604	-2.1439593449	 0.5301809482	 0.264569
83.3623	114.5341	210.6547	229.5536	286.0289	341.3199	394.0754	456.1373	497.7077	543.8182	561.3451	589.4255	619.9835	767.8454	788.9114	795.968	874.627	951.1001	1050.7644	1061.77	1098.5528	1129.7417	1148.0189	1196.6863	1262.4149	1344.6236	1418.6126	1428.5318	1441.8623	1487.4434	1495.5155	1604.8444	1662.3513	1694.5134	1711.7761	3013.1566	3062.9984	3096.2233	3183.7544	3238.0073	3533.1726	3670.1085
CN=C1N=COC=C1N	CN=c1ncocc1N	
InChI=1S/C5H7N3O/c1-7-5-4(6)2-9-3-8-5/h2-3H,6H2,1H3	InChI=1S/C5H7N3O/c1-7-5-4(6)2-9-3-8-5/h2-3H,6H2,1H3
