23
gdb 111051	2.91972	1.12619	0.9618	0.8244	87.07	-0.247	0.0939	0.3409	1367.5276	0.205188	-388.240194	-388.230683	-388.229739	-388.274831	35.773	
C	 0.0511730639	 1.5779366996	 0.0429500074	-0.381077
C	 0.0275038785	 0.0481385504	-0.0499746793	-0.313491
C	 0.7184151049	-0.4935491627	-1.2767173508	 0.312121
C	 0.3388030131	-0.2837160249	-2.7782024141	-0.266001
C	 1.5885695416	-1.2051369991	-2.8079248732	-0.104792
C	 2.2087223464	-0.2828341059	-1.7200943779	-0.262503
C	 0.9000089035	-1.9888434432	-1.6454607628	 0.14227
O	 1.6659013549	-2.7395897391	-0.7464199625	-0.261386
C	 1.9848376176	-4.0286441894	-1.2216549272	-0.239818
H	 1.0784602929	 1.9561581321	 0.0700848617	 0.119049
H	-0.4488331591	 2.036455667	-0.816820155	 0.115759
H	-0.4564215149	 1.9252761576	 0.9479240533	 0.111019
H	 0.5052461713	-0.3861533348	 0.8372594811	 0.109827
H	-1.0117718924	-0.3072058717	-0.0431584646	 0.09419
H	-0.6102817644	-0.7145349176	-3.1137160312	 0.085053
H	 0.4820641334	 0.7237876144	-3.1748772501	 0.094303
H	 2.0799471367	-1.6107118641	-3.6928662716	 0.066562
H	 2.478277695	 0.7262747473	-2.0437537849	 0.083547
H	 2.9716811768	-0.7234788828	-1.0785189437	 0.104745
H	-0.0162985717	-2.5347727199	-1.9212171012	 0.052491
H	 1.0791067811	-4.6078574188	-1.4606871524	 0.104249
H	 2.6163020338	-3.992110107	-2.1216511085	 0.108028
H	 2.5317740068	-4.5427104775	-0.4275317825	 0.125856
65.4464	79.0395	140.0267	183.6652	205.9315	224.6308	290.4902	321.6974	366.233	494.7006	559.4944	594.8215	631.3123	752.3371	792.5591	832.6688	905.0427	920.0157	930.3316	948.849	985.5573	1018.3537	1032.1357	1062.1217	1063.1833	1093.4562	1105.2388	1141.6389	1161.9234	1175.8753	1183.681	1190.525	1217.0686	1225.2908	1241.413	1249.4555	1304.0673	1315.4866	1377.6886	1406.6438	1410.7994	1480.5535	1481.8711	1488.5052	1492.9817	1499.7864	1506.7941	1508.0491	1535.4336	2972.3969	2981.0851	3015.7422	3025.3068	3034.0701	3044.4196	3050.728	3062.4955	3102.1929	3105.4251	3106.44	3113.5743	3115.5472	3142.7382
CCC12CC(C1)C2OC	CC[C@@]12C[C@@H](C1)[C@H]2OC	
InChI=1S/C8H14O/c1-3-8-4-6(5-8)7(8)9-2/h6-7H,3-5H2,1-2H3	InChI=1S/C8H14O/c1-3-8-4-6(5-8)7(8)9-2/h6-7H,3-5H2,1-2H3/t6-,7-,8+/m1/s1
