16
gdb 81060	2.61882	1.4121	1.31451	2.9484	65.51	-0.2512	0.0138	0.265	1033.3944	0.123581	-474.983615	-474.975391	-474.974447	-475.016807	31.234	
N	-0.0515645677	 1.0724442544	-0.5935942582	-0.537429
C	 0.040861463	-0.0975267548	 0.0902984248	 0.261139
O	 1.0464797845	-0.5192533112	 0.6262624209	-0.365973
C	-1.2403774853	-0.8821232619	 0.1188084051	 0.287709
C	-2.0869720273	-1.3277980989	 1.3279026485	-0.2526
C	-2.884740413	-1.6303430513	 0.0466243152	-0.025043
O	-2.4740786416	-0.2995923921	-0.5005493549	-0.388432
C	-1.6023906781	-2.2309816734	-0.5984069282	 0.168477
O	-1.5170079324	-2.287045975	-1.974926861	-0.436906
H	 0.750218301	 1.6804262919	-0.6278737741	 0.26621
H	-0.9410122684	 1.3961681809	-0.9347489086	 0.278082
H	-1.7181911913	-2.1662300729	 1.9210266643	 0.120479
H	-2.480300151	-0.5099700863	 1.930305704	 0.121503
H	-3.930957127	-1.9065977573	-0.0802322931	 0.106558
H	-1.1907790484	-3.1465671974	-0.1720769103	 0.109628
H	-1.896360017	-1.4536372848	-2.2902265443	 0.286597
47.1256	133.3749	178.9672	267.0107	294.0991	346.4151	428.4872	455.9848	523.0653	557.7358	588.8616	656.9191	684.6568	731.3016	761.4481	811.087	893.1068	901.5873	953.6965	1004.9732	1021.0022	1090.5	1104.3847	1139.1792	1161.8482	1190.3422	1200.2251	1230.0784	1243.4764	1310.5576	1404.6005	1445.3458	1496.4039	1609.58	1801.192	3085.8363	3120.7929	3131.6181	3168.8903	3596.5449	3734.7674	3738.8972
NC(=O)C12CC(O1)C2O	NC(=O)[C@@]12C[C@@H](O1)[C@H]2O	
InChI=1S/C5H7NO3/c6-4(8)5-1-2(9-5)3(5)7/h2-3,7H,1H2,(H2,6,8)	InChI=1S/C5H7NO3/c6-4(8)5-1-2(9-5)3(5)7/h2-3,7H,1H2,(H2,6,8)/t2-,3-,5+/m1/s1
