17
gdb 130448	3.21345	1.27437	0.94744	7.2391	70.83	-0.2079	0.0237	0.2316	1198.8076	0.138019	-455.145843	-455.138005	-455.13706	-455.178559	29.757	
N	-1.2376381247	 1.3116315286	 0.2649776299	-0.51271
H	-1.4641065713	 0.3544780447	 0.0111414581	 0.253114
H	-0.8823026773	 1.7597211743	-0.5758808646	 0.249726
H	-2.5713180558	 2.1892765633	 0.857562006	 0.324599
C	-0.2051621784	 1.3370417951	 1.3257456086	-0.166382
C	 0.040116806	 2.7694754591	 1.8175469167	-0.328866
C	-1.1012342082	 3.3973262255	 2.567336119	-0.012404
C	-2.4553831388	 3.3664952098	 2.3105754932	 0.431833
O	-3.19118338	 2.7733606694	 1.3928670389	-0.413099
O	-3.1277206552	 4.0959442788	 3.2036568171	-0.201837
N	-2.2124110495	 4.6609374396	 4.1175034919	-0.166576
C	-1.0431250168	 4.2289613448	 3.7147583779	-0.030906
H	-0.5684793883	 0.7195646785	 2.1531269819	 0.129167
H	 0.7428079695	 0.9029388057	 0.9783178448	 0.102486
H	 0.9203647876	 2.752342113	 2.4697969274	 0.117263
H	 0.332849881	 3.3824426791	 0.9501244283	 0.107469
H	-0.1627262699	 4.5311999107	 4.2684272649	 0.117123
60.8494	171.6968	251.8655	253.9536	289.6325	337.2418	369.0221	480.9008	487.3486	630.6814	663.9774	739.2758	741.0415	862.423	901.1046	911.5028	922.0822	943.9258	947.2099	1021.4106	1043.9144	1070.6934	1148.9366	1188.8361	1207.0494	1270.342	1323.1215	1325.0474	1354.1698	1417.2325	1427.9629	1480.5798	1506.8317	1530.6497	1582.7902	1647.082	1669.1895	2976.5309	2991.9922	3010.3349	3063.8101	3085.2792	3217.5969	3488.8851	3567.344
[NH3+]CCC1=C([O-])ON=C1	NCCc1c(O)onc1	
InChI=1S/C5H8N2O2/c6-2-1-4-3-7-9-5(4)8/h3,8H,1-2,6H2	InChI=1S/C5H8N2O2/c6-2-1-4-3-7-9-5(4)8/h3,8H,1-2,6H2
