20
gdb 111389	2.10959	1.56268	1.06814	1.653	79.04	-0.2341	-0.0261	0.208	1192.3556	0.169669	-403.110301	-403.101172	-403.100227	-403.145185	33.292	
C	 0.2257169815	 1.5486615263	 0.1759318973	-0.383893
C	 0.0782069789	 0.0240197092	 0.1149581177	-0.192188
C	 0.5839994988	-0.5340493911	-1.2067519763	 0.049447
C	 0.4261041456	-2.0392716288	-1.6067331195	-0.148818
C	-0.3100679757	-3.0390060349	-0.7524908911	 0.140293
O	-0.4209434275	-2.9931552203	 0.446997101	-0.249654
C	-0.3202031473	-1.5391036873	-2.8465434599	-0.052997
C	-1.4731943358	-0.7026235865	-2.4571161172	-0.247833
N	-0.1351226576	-0.0862048957	-2.4654262891	-0.128489
H	 1.2746291439	 1.8494352052	 0.0767021847	 0.114041
H	-0.3327317102	 2.0308929687	-0.6320207653	 0.13266
H	-0.1456918319	 1.9401350764	 1.1274694497	 0.11273
H	 0.6432462454	-0.4514564741	 0.9236296875	 0.117163
H	-0.9650663642	-0.2589411969	 0.2850366792	 0.104786
H	 1.6285706482	-0.2352643143	-1.3360427892	 0.088925
H	 1.3932304527	-2.4869935335	-1.8639750231	 0.11146
H	-0.7703522674	-3.8705707161	-1.3383010471	 0.079058
H	-0.1586322466	-1.8854922252	-3.8618083703	 0.101342
H	-2.1084307947	-0.3249557692	-3.2519740662	 0.127182
H	-1.9891110561	-0.8805148717	-1.5167787029	 0.124783
33.1742	93.0906	138.5094	150.4479	205.2797	237.9295	298.7999	379.7308	444.9905	531.1284	658.8309	675.6875	728.8683	776.783	803.8062	836.7217	893.5011	945.5684	976.0484	990.5582	1026.3523	1051.6981	1062.8593	1107.1371	1118.3502	1125.1537	1126.5395	1179.2172	1196.2236	1232.1932	1272.9985	1291.3562	1322.5049	1334.0354	1364.4833	1401.6706	1411.8785	1424.4481	1476.32	1498.5237	1500.9111	1509.4716	1820.5053	2845.1228	3035.729	3042.0889	3054.4661	3059.5575	3083.6351	3105.6813	3112.9447	3115.2633	3165.6562	3201.7748
CCC1C(C=O)C2CN12	CC[C@H]1[C@@H](C=O)[C@H]2CN12	
InChI=1S/C7H11NO/c1-2-6-5(4-9)7-3-8(6)7/h4-7H,2-3H2,1H3	InChI=1S/C7H11NO/c1-2-6-5(4-9)7-3-8(6)7/h4-7H,2-3H2,1H3/t5-,6+,7-,8?/m1/s1
