19
gdb 40886	3.37461	1.55021	1.37111	2.9166	74.53	-0.2249	0.0792	0.3041	999.1712	0.161229	-422.982944	-422.975817	-422.974873	-423.014532	28.605	
C	-0.0340655261	 1.3497355782	-0.320275285	-0.085378
C	 1.4273304268	 1.5325219127	 0.1372711537	-0.379034
C	 1.2485578356	 0.1295303976	 0.7414382535	 0.528308
O	-0.1037282587	 0.0423463264	 0.2901365388	-0.328936
C	 2.2439214852	-1.0348388304	 0.4649331387	-0.164371
C	 3.0473801307	-0.4651998727	 1.6765520144	-0.25415
C	 1.6126339651	-0.2129132196	 2.2061544203	 0.021506
O	 1.0819530511	-1.5310637214	 2.3789127785	-0.279565
C	 1.4784731561	-2.1776284902	 1.1424246878	-0.079437
H	-0.7621035421	 2.0415828988	 0.117801635	 0.108389
H	-0.1923058263	 1.3020657183	-1.4037455594	 0.106215
H	 2.1661039923	 1.6090230514	-0.6628553824	 0.114439
H	 1.593850702	 2.3355499202	 0.8580618055	 0.115424
H	 2.6804763238	-1.2163852814	-0.51664121	 0.070399
H	 3.6564485416	-1.1629153947	 2.2536134068	 0.10677
H	 3.6054813831	 0.4418185131	 1.4396258567	 0.106179
H	 1.3629036538	 0.4090127077	 3.0644950726	 0.078248
H	 0.5887395628	-2.4827735069	 0.5821582428	 0.117399
H	 2.0983721032	-3.054420937	 1.3602546319	 0.097594
92.7719	182.3048	217.2044	305.6226	396.7526	426.5245	512.9722	584.82	707.828	779.3043	810.2684	844.2995	864.8299	891.5615	921.0144	946.2485	956.8692	969.9286	982.0109	1023.8992	1038.7292	1066.2641	1077.2107	1122.0383	1138.0362	1154.1046	1165.1238	1174.4872	1203.015	1216.2511	1233.7845	1258.5777	1261.8174	1273.2504	1322.2581	1354.3244	1374.9093	1483.8832	1489.0505	1519.542	1532.9683	3026.3259	3033.4268	3068.1179	3072.6996	3078.7834	3082.1196	3124.9981	3126.4638	3137.6748	3143.9586
C1CC2(O1)C1CC2OC1	C1C[C@@]2(O1)[C@H]1C[C@@H]2OC1	
InChI=1S/C7H10O2/c1-2-9-7(1)5-3-6(7)8-4-5/h5-6H,1-4H2	InChI=1S/C7H10O2/c1-2-9-7(1)5-3-6(7)8-4-5/h5-6H,1-4H2/t5-,6-,7+/m0/s1
