17
gdb 124989	3.10615	0.98138	0.7907	2.9362	71.51	-0.2553	-0.0343	0.221	1411.0316	0.134404	-455.129814	-455.120585	-455.11964	-455.165132	32.168	
C	 0.2384110517	 1.5378893958	 0.2491681501	-0.494111
C	-0.0041068456	 0.0775785781	 0.1183354363	 0.322856
C	-1.1283701353	-0.6804889996	-0.0417671265	 0.161396
C	-2.5675656708	-0.310790865	-0.1775242922	-0.332138
C	-3.0842908577	-0.4512719647	-1.6215451247	-0.057121
O	-4.4445428634	-0.0805738343	-1.7429530862	-0.413056
N	-0.7018144696	-1.993227286	-0.0959348314	-0.170458
N	 0.5462039688	-2.0718091412	 0.0193670736	-0.017799
O	 1.0510170345	-0.7411194837	 0.1625582418	-0.211637
H	 0.8619664021	 1.9048046131	-0.5724660539	 0.158655
H	-0.7067124948	 2.0838429656	 0.2363143528	 0.148056
H	 0.7596388322	 1.7629286418	 1.1849345363	 0.158312
H	-3.1668696355	-0.9547917372	 0.4781115895	 0.117312
H	-2.7279044044	 0.7197034892	 0.154424127	 0.116586
H	-2.5265354569	 0.2245342079	-2.2783929414	 0.11441
H	-2.9026617648	-1.4757167278	-1.9773347646	 0.113069
H	-4.9759213205	-0.7478554919	-1.2970783667	 0.285667
37.7866	92.9579	107.6817	122.7623	242.7228	245.4797	296.4105	357.2953	366.7927	422.1319	657.9681	666.5565	671.5837	719.9785	781.803	794.9487	990.5171	1014.316	1027.6097	1031.3582	1065.9136	1075.7515	1132.9601	1214.7569	1242.1819	1305.329	1319.019	1380.5398	1401.2404	1413.1499	1423.9157	1461.9115	1474.402	1477.1241	1486.857	1510.2901	1653.2155	3005.1626	3032.277	3045.6333	3072.0157	3094.6974	3104.0831	3138.379	3816.8615
CC1=C(CCO)N=NO1	Cc1c(CCO)nno1	
InChI=1S/C5H8N2O2/c1-4-5(2-3-8)6-7-9-4/h8H,2-3H2,1H3	InChI=1S/C5H8N2O2/c1-4-5(2-3-8)6-7-9-4/h8H,2-3H2,1H3
