19
gdb 46037	2.8509	1.35539	1.14174	2.7348	75.85	-0.2506	0.0217	0.2722	1134.6983	0.161625	-419.202744	-419.19464	-419.193696	-419.236173	30.592	
N	 0.1986485707	 1.1274031742	 0.1003967517	-0.53744
C	 0.1448932865	-0.1152729622	-0.1080829891	 0.406986
C	-0.8580753224	-1.0797616646	 0.4851598095	-0.300588
C	-0.7447987841	-2.3110145047	-0.4229980479	-0.24482
C	 0.6966536996	-2.2061375614	-0.9695626637	 0.058134
O	 1.0141472083	-0.8014564792	-0.9209897838	-0.248175
C	 1.7200758675	-3.0130051078	-0.1893586996	 0.007561
C	 3.1440519244	-2.6112197704	-0.1459141278	-0.244592
N	 2.303571716	-2.5213828993	 1.0660314612	-0.322402
H	 0.9777353171	 1.5460670762	-0.410767726	 0.222471
H	-0.5653178456	-1.3107802427	 1.5149495259	 0.14307
H	-1.8514954303	-0.6323718979	 0.5203130554	 0.140826
H	-0.9162823121	-3.254223989	 0.0988343481	 0.119423
H	-1.4595998592	-2.2463981146	-1.2481695731	 0.116827
H	 0.7474301793	-2.5049632812	-2.0220675579	 0.099296
H	 1.4841768519	-4.0763361589	-0.1722984299	 0.096097
H	 3.9224223491	-3.3676904984	-0.1117140695	 0.119794
H	 3.4162454546	-1.6852071854	-0.6431630502	 0.12655
H	 2.0488611487	-1.5457270125	 1.2036810869	 0.240982
67.9339	80.8169	122.2316	224.9266	265.7522	402.44	457.268	519.2464	553.5866	649.3644	738.6505	773.381	812.4362	846.986	881.043	896.9882	910.0062	957.6754	973.7259	992.8424	999.1091	1053.8751	1085.054	1092.1277	1122.9383	1149.2694	1176.3188	1189.8721	1219.5475	1265.1967	1270.0571	1297.0019	1309.6592	1321.786	1357.1183	1387.0397	1420.3602	1475.4193	1497.7429	1506.7842	1779.4593	3047.5937	3059.7472	3068.0465	3114.4316	3118.7449	3121.0999	3135.2057	3207.9941	3471.8662	3497.5077
N=C1CCC(O1)C1CN1	[NH][C]1CC[C@@H](O1)[C@H]1CN1	
InChI=1S/C6H10N2O/c7-6-2-1-5(9-6)4-3-8-4/h4-5,7-8H,1-3H2	InChI=1S/C6H10N2O/c7-6-2-1-5(9-6)4-3-8-4/h4-5,7-8H,1-3H2/t4-,5-/m1/s1
