18
gdb 105846	2.106	1.61322	1.21599	1.0012	73.79	-0.2295	0.0153	0.2448	1107.0997	0.147948	-435.21218	-435.203261	-435.202317	-435.245757	33.342	
C	 0.2039649375	 1.394843195	-0.3293891303	-0.334198
N	-0.119239277	 0.0128552842	 0.039466261	-0.377271
C	 0.5511120563	-0.462889648	 1.1833278329	 0.171392
C	 2.0245869201	-0.9858943077	 1.0934582029	-0.018994
N	 3.1491886192	-0.6159843784	 1.8920828707	-0.528121
C	 0.9609385864	-1.8762124768	 1.6037809883	-0.008719
O	 0.7035183305	-1.5542175574	 3.0002664045	-0.289156
C	 0.2113947064	-0.2945198885	 2.6321484259	 0.377724
N	-0.3687655737	 0.5780392747	 3.3199246412	-0.559925
H	 1.2680521504	 1.4606204091	-0.5780966414	 0.122853
H	-0.3651191734	 1.6663891954	-1.2228361683	 0.120366
H	-0.0111602835	 2.1272186011	 0.4617241435	 0.130171
H	-1.1227756078	-0.0942269536	 0.1441249114	 0.23013
H	 2.2568799244	-1.1601098016	 0.0440319495	 0.120171
H	 3.409525847	 0.3529471249	 1.7417274286	 0.237441
H	 2.928687147	-0.7303982885	 2.8760351219	 0.247711
H	 0.6553390789	-2.8564646305	 1.2636117031	 0.12806
H	-0.4573498786	 0.2901997665	 4.2959254244	 0.230366
84.9037	123.6721	150.1139	186.2233	255.8256	281.5389	298.4298	351.8654	424.6021	470.2727	614.4605	648.8876	701.8633	733.7387	790.7796	823.2306	861.8481	877.3703	917.031	934.737	942.7761	1002.4737	1036.9831	1060.9665	1111.2207	1161.4763	1188.4668	1189.9508	1247.6576	1266.6298	1288.1025	1375.9996	1452.0645	1478.4206	1484.5622	1495.3361	1523.4461	1654.0176	1820.2143	3001.8073	3076.3018	3111.8129	3136.0232	3212.3365	3476.8626	3506.3557	3520.1336	3587.7832
CNC12C(N)C1OC2=N	CN[C@]12[C@@H](N)[C@H]1O[C]2[NH]	
InChI=1S/C5H9N3O/c1-8-5-2(6)3(5)9-4(5)7/h2-3,7-8H,6H2,1H3	InChI=1S/C5H9N3O/c1-8-5-2(6)3(5)9-4(5)7/h2-3,7-8H,6H2,1H3/t2-,3+,5+/m0/s1
