17
gdb 30159	3.72977	1.2775	1.01458	3.3326	76.23	-0.1902	0.0395	0.2297	1162.5968	0.137662	-418.015918	-418.008051	-418.007107	-418.048466	29.938	
C	-0.3506211924	 1.6190702616	-0.2271608734	-0.397708
C	-0.0066104883	 0.1562804601	-0.0195564085	 0.053905
C	 0.7173592031	-0.6046345871	-1.2024254271	-0.412008
C	 1.8702302982	-0.7734689438	-0.2295914679	 0.232786
C	 3.0699722518	-1.1679160785	 0.3102608823	 0.187937
O	 4.0763778387	-1.8660258507	-0.2648289535	-0.437254
N	 3.1444713928	-0.7379045877	 1.6075645541	-0.352455
C	 2.0101350827	-0.0960378385	 1.8792272221	-0.045953
N	 1.227134977	-0.0994174283	 0.7781228824	-0.00455
H	 0.5063420383	 2.1668562918	-0.6299132212	 0.135434
H	-1.1842886121	 1.710138741	-0.9308664737	 0.129439
H	-0.6509027738	 2.0907213006	 0.713795431	 0.129325
H	-0.859378179	-0.3965284464	 0.3857396709	 0.105811
H	 0.2165471392	-1.5210404776	-1.5254711661	 0.124528
H	 0.9102750392	 0.0225960373	-2.0776901033	 0.121603
H	 4.7558368837	-1.9574767908	 0.4141616511	 0.298378
H	 1.7573573609	 0.363640067	 2.820866741	 0.130781
66.0455	158.0912	224.9545	270.1491	311.6103	359.1693	369.7208	435.7067	547.1405	642.5134	657.5013	697.9963	710.1505	758.5818	767.8733	890.9739	916.2609	987.3359	1064.1331	1080.335	1096.3122	1111.1285	1181.4528	1200.8151	1230.6911	1259.3669	1307.075	1345.5863	1368.3072	1378.218	1411.7145	1429.5272	1471.7965	1487.6385	1494.1583	1497.5548	1681.5812	3038.5313	3054.156	3064.2798	3100.4091	3109.6599	3120.363	3267.2085	3802.7472
CC1CC2=C(O)N=CN12	C[C@H]1Cc2c(O)ncn12	
InChI=1S/C6H8N2O/c1-4-2-5-6(9)7-3-8(4)5/h3-4,9H,2H2,1H3	InChI=1S/C6H8N2O/c1-4-2-5-6(9)7-3-8(4)5/h3-4,9H,2H2,1H3/t4-/m0/s1
