12
gdb 44198	5.87957	1.05672	0.97123	1.5161	59.33	-0.2935	-0.0477	0.2459	1112.2334	0.077504	-472.611833	-472.604837	-472.603893	-472.643852	25.08	
O	-0.3458987494	 0.2323624803	 0.592324571	-0.289353
C	-0.0946840849	 1.2839590147	 0.1162997587	 0.455441
O	-0.9899703925	 2.2536872866	-0.3348130226	-0.253007
C	 0.0739217133	 3.1335638385	-0.7638635019	 0.055875
C	 0.5518783112	 4.0558915136	 0.3858808544	-0.058611
O	 1.4801896825	 3.0393119268	 0.8450682297	-0.27982
C	 1.1326752574	 2.1507335744	-0.2417797581	-0.074461
C	 1.2432501212	 5.2710639013	-0.0392676931	 0.297086
N	 1.7730534017	 6.230221788	-0.404711761	-0.298764
H	-0.0595321128	 3.5133253643	-1.7722154324	 0.145441
H	-0.217449461	 4.2894209699	 1.1284656938	 0.159729
H	 1.9893697834	 1.7189153117	-0.7559145386	 0.140444
82.8702	133.4438	184.6526	285.801	365.2818	463.6498	474.1003	557.2677	715.6224	763.4752	815.1089	878.509	927.8501	947.0443	966.7526	987.3058	1035.7792	1049.9246	1081.9382	1198.7683	1206.3942	1232.6443	1279.3718	1309.0104	1355.1245	1963.2742	2363.6408	3075.5009	3144.5929	3175.7285
O=C1OC2C(OC12)C#N	O=C1O[C@H]2[C@@H](O[C@@H]12)C#N	
InChI=1S/C5H3NO3/c6-1-2-3-4(8-2)5(7)9-3/h2-4H	InChI=1S/C5H3NO3/c6-1-2-3-4(8-2)5(7)9-3/h2-4H/t2-,3-,4+/m0/s1
