21
gdb 53155	4.44787	0.82077	0.76117	0.0286	94.23	-0.2352	0.0537	0.2888	1600.7911	0.181976	-349.884397	-349.874985	-349.874041	-349.920415	34.642	
C	-0.9096281247	 1.4517985472	-0.8691610239	-0.502267
C	-0.7158530764	 0.0252685534	-0.6509600498	 0.142688
C	-0.5566657772	-1.155771303	-0.4689493244	-0.007355
C	-0.332970749	-2.5763476062	-0.2852651366	-0.166937
C	-0.1925835035	-3.1711047186	 1.1632610168	-0.055607
C	-1.7190478351	-2.9284722763	 1.3371321566	-0.233719
C	-1.5533143429	-3.5462193361	-0.0806550496	-0.055608
C	-0.5671086636	-4.5700949459	 0.572059354	 0.050344
C	 0.4082353709	-5.4074857018	-0.2423812552	-0.445832
H	-0.2574947042	 1.8254943196	-1.6666125891	 0.145839
H	-1.9432327687	 1.6754871192	-1.1566633976	 0.145767
H	-0.6873083621	 2.0285139982	 0.0358259677	 0.14576
H	 0.4154111408	-2.9284171834	-0.9977539845	 0.085562
H	 0.6010774114	-2.9413041847	 1.8765885527	 0.069941
H	-2.22725128	-3.5487862936	 2.0801228499	 0.08583
H	-2.0453380936	-1.8890157607	 1.3805969258	 0.107942
H	-2.3384706884	-3.7516227854	-0.8106401618	 0.069942
H	-1.0650179826	-5.2098019418	 1.3096393905	 0.061434
H	 0.9492033816	-4.8415211862	-1.0048513021	 0.120592
H	 1.1537672073	-5.86812725	 0.4152991816	 0.117841
H	-0.1223871899	-6.2199148841	-0.7512545908	 0.117841
12.3671	92.8459	93.4106	169.2692	253.6098	273.6082	305.9086	306.9012	451.5311	502.1281	509.6174	558.7213	754.184	781.0482	820.5873	852.1881	863.6882	901.7958	908.6156	1015.2	1021.0653	1031.8681	1052.7438	1054.1173	1072.9977	1076.5467	1107.368	1137.1296	1148.3892	1185.0025	1202.1077	1207.5415	1240.8539	1245.9671	1259.8547	1377.5229	1414.3598	1414.8512	1425.9151	1478.7096	1478.9241	1494.1773	1501.4731	1516.5778	2362.156	3023.7534	3032.3398	3038.5921	3061.6425	3081.1053	3082.8315	3083.7454	3089.2664	3093.0654	3100.161	3117.2446	3139.0929
CC#CC1C2CC1C2C	CC#C[C@H]1[C@H]2C[C@@H]1[C@H]2C	
InChI=1S/C9H12/c1-3-4-7-8-5-9(7)6(8)2/h6-9H,5H2,1-2H3	InChI=1S/C9H12/c1-3-4-7-8-5-9(7)6(8)2/h6-9H,5H2,1-2H3/t6-,7-,8-,9+
