15
gdb 130415	3.00172	1.37516	0.95705	6.0427	72.51	-0.2426	-0.0738	0.1688	1163.5618	0.114519	-446.275011	-446.267017	-446.266073	-446.308209	29.146	
N	-0.0400677746	 1.0912218886	-0.0578819238	-0.525341
H	 1.5045664062	 0.2485927192	 1.29182884	 0.284532
H	-0.0328298516	 1.7705702978	-0.8081650904	 0.253192
H	-0.5873619284	 0.298688198	-0.3757560773	 0.25105
C	-0.6034170343	 1.6652250255	 1.1627016682	-0.257682
C	-0.0124182714	 1.0140146108	 2.3962515625	 0.455465
N	 1.1267295424	 0.3281364136	 2.2321787303	-0.322524
C	 1.7481041483	-0.2793611357	 3.3176645113	 0.446018
N	 2.8175781566	-0.9454660256	 3.1653273274	-0.541572
N	 1.0872687637	-0.082468339	 4.5611666575	-0.213368
N	 0.0136935465	 0.5784484749	 4.649648716	-0.05906
N	-0.6050900158	 1.1603855206	 3.5484954065	-0.311529
H	-0.3412194235	 2.7282663126	 1.2094180023	 0.157057
H	-1.6949226336	 1.610386106	 1.2522825292	 0.146809
H	 3.1105974293	-1.3043636973	 4.0738890402	 0.236953
69.5655	98.506	165.2287	212.3876	260.6075	406.1307	425.5048	471.0203	577.6783	580.552	642.8197	753.3763	786.2777	800.9871	851.8086	876.7453	894.8764	929.5445	972.3134	1068.708	1089.015	1139.9684	1176.8413	1230.1982	1297.8116	1329.4904	1390.3745	1455.745	1471.6795	1549.727	1611.8348	1666.6362	1745.3694	3036.5303	3078.5056	3500.1489	3518.1851	3526.2386	3609.204
[NH3+]CC1=NC(=N)N=N[N-]1	NCc1[nH]c([NH])nnn1	
InChI=1S/C3H5N6/c4-1-2-6-3(5)8-9-7-2/h1,4H2,(H-,5,6,7,8)/q-1/p+1	InChI=1S/C3H11N6/c4-1-2-6-3(5)8-9-7-2/h2-3,5-9H,1,4H2
