15
gdb 37117	3.28492	1.78296	1.78093	0.651	67.2	-0.243	-0.0046	0.2384	833.6446	0.113132	-420.539027	-420.532828	-420.531884	-420.569281	25.668	
C	-0.0443699864	 1.5988579956	 0.0389750632	-0.355708
C	 1.4193271135	 2.0232118887	 0.1391988926	-0.059503
C	 2.2779109884	 1.0068775726	-0.0206984776	-0.148192
C	 1.5198125857	-0.2608373615	-0.1753616865	 0.218807
O	 0.690236393	-0.6234772312	 0.9482423783	-0.28062
C	 0.0745098844	 0.0951371604	-0.1187554276	 0.247551
C	-0.200012638	-0.8807120803	-1.260445933	-0.053574
O	 0.6173352843	-0.4930414361	-2.3734467615	-0.229212
C	 1.2356417842	-1.2362651132	-1.3127368565	-0.047542
H	-0.6227821869	 1.8948074644	 0.9211547368	 0.129393
H	-0.5321933312	 2.0462514684	-0.834737965	 0.132122
H	 1.7047363453	 3.0459838489	 0.3637970944	 0.106218
H	 3.3575506263	 1.0791594989	 0.0023974288	 0.110697
H	-1.0733077639	-1.4866207311	-1.4675600878	 0.114368
H	 1.7111789513	-2.1739606745	-1.5702541584	 0.115194
187.9094	222.4907	361.5697	419.1976	495.385	561.047	619.1487	681.6062	693.9479	748.1058	788.9289	846.7406	859.2492	863.8539	880.4621	924.6086	927.3698	951.3021	977.2301	1000.6333	1045.4609	1128.5601	1154.0584	1179.3616	1195.5062	1258.6836	1261.6377	1318.1664	1337.6289	1364.9564	1377.8908	1458.2626	1637.6692	3042.15	3078.1602	3184.5518	3194.4796	3209.483	3221.6097
C1C=CC23OC12C1OC31	C1C=C[C@@]23O[C@@]12[C@H]1O[C@@H]31	
InChI=1S/C7H6O2/c1-2-6-4-5(8-4)7(6,3-1)9-6/h1-2,4-5H,3H2	InChI=1S/C7H6O2/c1-2-6-4-5(8-4)7(6,3-1)9-6/h1-2,4-5H,3H2/t4-,5+,6+,7-/m1/s1
