18
gdb 112098	2.45593	1.42842	0.97116	1.3057	73.59	-0.2382	-0.0355	0.2027	1217.3485	0.147423	-439.113101	-439.104243	-439.103299	-439.148182	31.544	
C	-0.1045772483	 1.6119275712	-0.1032183543	-0.386749
C	-0.1060343578	 0.0832730319	-0.0822639647	-0.166199
C	 0.8135945049	-0.5315352911	-1.1638986573	-0.082205
N	 2.1934729429	-0.0969365141	-0.979885076	-0.266531
C	 3.1285793784	-0.9416143883	-0.9288226749	 0.127422
O	 3.0849383813	-2.2943069375	-0.9853396798	-0.221678
C	 1.8032440509	-2.9111645365	-0.8481248326	-0.17462
C	 0.6114357639	-2.0390344118	-1.2229896787	 0.333277
O	-0.4451978889	-2.5529334332	-1.5017383081	-0.307142
H	 0.9065701409	 2.0018121824	 0.0338864545	 0.140967
H	-0.4853036568	 1.9916825536	-1.0577119727	 0.115204
H	-0.7416898712	 2.0086744818	 0.6929178417	 0.112262
H	 0.2224036164	-0.2784801213	 0.9003821798	 0.096609
H	-1.1144408322	-0.3074377591	-0.2491578459	 0.122829
H	 0.4746160116	-0.1416948929	-2.1347357457	 0.124245
H	 4.1640715071	-0.6182425564	-0.839819869	 0.132521
H	 1.8001882427	-3.8130279042	-1.4637091586	 0.153241
H	 1.6702284942	-3.2167047247	 0.2002433425	 0.146547
27.0386	75.3011	105.3691	181.5589	223.5442	290.3696	340.4952	444.0454	485.1815	510.3028	577.6774	608.4873	737.1254	785.4766	850.8349	917.233	959.6885	966.9	979.2567	1008.4644	1069.1887	1113.0457	1128.1117	1181.9607	1232.6515	1243.3185	1270.3	1297.2282	1337.2513	1363.5804	1366.5165	1409.1226	1414.4624	1468.7849	1485.9682	1493.6781	1508.8069	1748.7708	1820.5656	3004.638	3008.9857	3030.863	3039.4964	3087.5894	3104.4593	3114.7991	3131.407	3161.2572
CCC1N=COCC1=O	CC[C@H]1N=COCC1=O	
InChI=1S/C6H9NO2/c1-2-5-6(8)3-9-4-7-5/h4-5H,2-3H2,1H3	InChI=1S/C6H9NO2/c1-2-5-6(8)3-9-4-7-5/h4-5H,2-3H2,1H3/t5-/m1/s1
