16
gdb 77837	3.4597	1.27185	1.05208	1.5296	77.48	-0.2491	-0.0055	0.2436	1130.4096	0.122103	-400.647018	-400.638756	-400.637812	-400.679668	31.329	
C	 0.0118368227	 1.5410428116	-0.07271867	-0.344266
N	-0.004553086	 0.0828026082	 0.0624681317	-0.085342
C	-1.1535325628	-0.5727173626	 0.8096979387	-0.141319
C	-0.2066311813	-1.8049957189	 0.9907498024	-0.215043
C	 0.081137107	-2.619779544	-0.170446868	 0.324311
C	 0.3093497706	-3.3625627872	-1.0871930435	-0.426572
C	 0.6933827501	-0.5523796288	 1.253117255	-0.141318
C	-0.4884008595	 0.0259456733	 2.0803857754	 0.407854
O	-0.7119589665	 0.7755697043	 2.9771714028	-0.31282
H	 1.003097097	 1.8390553905	-0.4260959652	 0.134543
H	-0.7170694243	 1.8201143986	-0.8389426274	 0.134543
H	-0.2155028716	 2.0972410811	 0.8489836612	 0.132177
H	-2.1759986628	-0.5546211796	 0.4379639218	 0.110062
H	-0.4126096427	-2.4110714625	 1.8764832606	 0.118249
H	 0.5141486626	-4.0005526422	-1.9109385727	 0.194877
H	 1.7725507975	-0.5111431819	 1.3859565671	 0.110062
118.2404	141.9405	159.0162	197.0878	301.2854	313.1187	408.1566	425.3665	539.7152	547.1807	629.6678	640.9314	658.2858	726.5421	785.575	807.3628	821.1642	901.4316	976.368	1049.6228	1070.6337	1089.0758	1099.9635	1161.1773	1169.4721	1170.2869	1196.74	1200.2784	1248.6053	1367.3394	1450.6015	1494.0802	1500.9283	1903.8696	2240.413	2993.5817	3084.2315	3084.9616	3117.3045	3148.6237	3152.3573	3504.6546
CN1C2C(C#C)C1C2=O	CN1[C@H]2[C@@H](C#C)[C@@H]1C2=O	
InChI=1S/C7H7NO/c1-3-4-5-7(9)6(4)8(5)2/h1,4-6H,2H3	InChI=1S/C7H7NO/c1-3-4-5-7(9)6(4)8(5)2/h1,4-6H,2H3/t4-,5+,6-
