23
gdb 115673	2.18258	1.20019	0.96004	2.5549	86.1	-0.2376	-0.0104	0.2272	1384.1874	0.204024	-388.310529	-388.300152	-388.299208	-388.346697	37.508	
C	 0.0602409908	 1.4177647682	 0.110090606	-0.391654
C	 0.0040513899	-0.0872816381	-0.1711000946	-0.179593
C	-1.3769069688	-0.6839460986	 0.1075358869	 0.012692
C	-2.4639147839	-0.329621819	-0.9516187344	-0.226609
C	-2.3186221068	-1.7472320297	-1.5614500023	-0.23505
C	-1.5690026641	-2.206823473	-0.28978353	-0.099609
C	-0.311931708	-3.034980146	-0.4623918574	 0.379812
C	 0.2058738472	-3.7403187905	 0.7790154825	-0.479935
O	 0.2633795536	-3.1131178046	-1.5260989082	-0.310721
H	 1.0529572694	 1.82277024	-0.108394946	 0.115186
H	-0.6635242656	 1.9676989181	-0.5005071509	 0.119723
H	-0.164437778	 1.6324638706	 1.1609922163	 0.112029
H	 0.2895440728	-0.2850095257	-1.2111046389	 0.116842
H	 0.7550266463	-0.595539126	 0.4478798499	 0.093381
H	-1.6589123574	-0.4682210401	 1.1433662004	 0.065718
H	-3.4455306381	-0.1635135189	-0.500007553	 0.098281
H	-2.2421206227	 0.5153652433	-1.6090489896	 0.099085
H	-3.236898164	-2.2835926288	-1.8101059571	 0.096646
H	-1.6489432329	-1.7752876734	-2.4233543071	 0.127099
H	-2.2296571992	-2.6906277438	 0.4366752307	 0.07209
H	-0.4903151992	-4.5372694382	 1.0670625504	 0.139645
H	 1.1888558638	-4.1717930917	 0.5859061536	 0.139407
H	 0.2580609149	-3.0469133242	 1.6258617828	 0.135533
46.5332	78.661	112.6851	120.7983	130.5712	215.7581	221.8783	269.2437	346.6326	389.6956	414.4633	567.7804	599.1776	676.6617	754.3198	764.3582	812.4374	876.2301	927.9426	936.0124	947.2397	963.2522	992.1625	1008.38	1029.715	1069.4922	1088.5758	1134.6956	1154.6528	1189.6396	1223.9488	1234.7393	1253.1346	1270.8324	1277.2571	1305.3565	1345.2905	1365.7596	1383.2026	1390.6084	1411.8064	1462.1528	1475.1146	1481.6043	1484.6668	1498.7037	1500.5848	1507.7244	1799.3315	3021.0836	3031.3241	3031.5649	3036.4837	3053.2731	3056.9242	3064.5532	3072.646	3091.9415	3097.3595	3101.8504	3105.5374	3130.7332	3149.3408
CCC1CCC1C(C)=O	CC[C@H]1CC[C@H]1C(=O)C	
InChI=1S/C8H14O/c1-3-7-4-5-8(7)6(2)9/h7-8H,3-5H2,1-2H3	InChI=1S/C8H14O/c1-3-7-4-5-8(7)6(2)9/h7-8H,3-5H2,1-2H3/t7-,8-/m0/s1
