17
gdb 77403	2.19675	2.02705	1.2715	2.0499	67.74	-0.2421	0.0526	0.2947	989.1485	0.134128	-458.876092	-458.867753	-458.866809	-458.908316	32.587	
O	 0.1713645517	 1.4412049824	-0.2465775312	-0.452031
C	 0.0779945381	 0.0467358939	-0.0874013959	 0.013333
C	 0.0473543879	-0.5786238905	 1.3116231936	 0.362262
O	 1.0907184866	-0.5192906401	 2.2057568157	-0.47077
C	-1.4787051051	-0.2333481958	 1.5510442076	-0.223861
C	-1.8182803799	-1.6929986419	 1.9171723483	-0.289661
C	-0.760190162	-1.839227032	 0.8024829789	-0.156681
C	-1.3137703894	-0.6133859397	 0.0186087349	 0.398038
O	-2.3055930869	-0.7060761881	-0.9303223003	-0.478752
H	-0.2029888984	 1.8630016348	 0.5345533336	 0.286348
H	 0.7687976411	-0.4036907029	-0.807486807	 0.08997
H	 0.8327427245	-0.9679842334	 3.0193172302	 0.289739
H	-1.8918569209	 0.689670208	 1.9623394402	 0.067547
H	-1.5378345055	-2.0354117494	 2.9198068972	 0.080571
H	-2.8279859893	-2.0329038605	 1.6738262848	 0.111922
H	-0.3314787757	-2.7359229862	 0.3543102029	 0.079328
H	-2.440411777	 0.1731385815	-1.3022717835	 0.292696
178.253	185.318	219.0242	259.3536	263.8385	277.1938	314.2385	332.2118	439.432	558.2609	578.1242	611.8088	647.394	765.2983	794.9497	881.3307	889.1333	906.3386	974.949	993.8271	1019.7748	1045.1383	1089.2367	1102.9127	1111.6178	1134.0932	1157.5875	1170.7057	1233.862	1253.7961	1272.7774	1308.3059	1310.585	1374.8689	1407.8973	1484.3556	1512.3891	3034.4954	3070.7753	3091.8344	3103.8306	3115.9699	3793.1875	3796.7633	3808.1653
OC1C2(O)C3CC2C13O	O[C@H]1[C@@]2(O)[C@@H]3C[C@H]2[C@]13O	
InChI=1S/C6H8O3/c7-4-5(8)2-1-3(5)6(2,4)9/h2-4,7-9H,1H2	InChI=1S/C6H8O3/c7-4-5(8)2-1-3(5)6(2,4)9/h2-4,7-9H,1H2/t2-,3+,4-,5+,6-
