16
gdb 13772	3.67392	1.42305	1.18514	1.004	66.91	-0.2639	0.0139	0.2778	1020.2427	0.127395	-383.676403	-383.667723	-383.666778	-383.710153	31.61	
C	 0.5585226275	 0.3813987151	-0.4973956711	-0.417695
C	 0.0097244069	-0.0069432604	 0.872534159	 0.084053
O	-0.2285656682	 1.1447458792	 1.6818719273	-0.426295
C	-1.2628622183	-0.8466449678	 0.8349876177	 0.039013
O	-2.071468908	-0.8421580089	-0.3425816543	-0.241418
C	-1.4826094222	-2.0903536003	 0.0628634464	-0.152295
C	-0.5066342825	-2.7103475388	-0.7927517487	 0.327918
C	 0.2734574474	-3.308255601	-1.4855095768	-0.413406
H	 1.4285505617	 1.0283744437	-0.3602678479	 0.120733
H	 0.85449288	-0.4953474462	-1.076079328	 0.139318
H	-0.2000491996	 0.919418725	-1.0747924546	 0.123419
H	 0.7645331291	-0.5759499015	 1.4293627331	 0.103393
H	-0.7992193947	 1.7380981909	 1.1801616348	 0.282631
H	-1.830894966	-0.7596518016	 1.7633703839	 0.104802
H	-2.2058904219	-2.7937476218	 0.4773431943	 0.119964
H	 0.9690671086	-3.8208066454	-2.103463545	 0.205864
27.4102	130.2931	194.4423	234.7122	254.3598	273.9927	326.5203	383.6366	422.2185	531.3025	598.3128	614.3223	628.3881	673.1594	773.9127	837.0549	886.4402	952.7363	975.885	1048.1768	1078.6093	1115.518	1148.7628	1156.701	1281.9149	1292.5623	1359.349	1372.5378	1406.1584	1420.388	1443.1998	1490.2162	1499.9593	2236.6755	3039.8223	3049.429	3092.9396	3104.5726	3121.8294	3145.0404	3501.1487	3795.5227
CC(O)C1OC1C#C	C[C@@H](O)[C@H]1O[C@H]1C#C	
InChI=1S/C6H8O2/c1-3-5-6(8-5)4(2)7/h1,4-7H,2H3	InChI=1S/C6H8O2/c1-3-5-6(8-5)4(2)7/h1,4-7H,2H3/t4-,5+,6-/m1/s1
