19
gdb 89827	2.78142	1.37159	1.12055	3.0068	75.11	-0.2393	-0.021	0.2182	1140.4409	0.158369	-423.043553	-423.035038	-423.034094	-423.077031	32.386	
C	 0.0858353883	 1.5757169975	 0.0309656286	-0.399687
C	-0.0256423163	 0.0402970681	-0.0135962342	-0.093473
C	 0.6848513803	-0.588736257	-1.2310636569	-0.309437
C	 2.0982810263	-0.8742642272	-0.7332527703	 0.425022
C	 3.2256764354	-1.2089546454	-1.6021180667	-0.257027
O	 3.0983137266	 0.1065795661	-1.0494229052	-0.271929
C	 1.9810230623	-1.2666696763	 0.7266713786	-0.403797
C	 0.7067554631	-0.5550752862	 1.2043500533	 0.403238
O	 0.3410308097	-0.4627692104	 2.3467311222	-0.319483
H	 1.1280779227	 1.8975479261	-0.0596254181	 0.141642
H	-0.4765315423	 2.0219792387	-0.7947184982	 0.118842
H	-0.314805711	 1.9575131691	 0.973617935	 0.137017
H	-1.081544859	-0.2396888855	 0.0470735485	 0.096557
H	 0.1999111792	-1.5304315809	-1.5147838197	 0.107161
H	 0.7014419279	 0.0611666782	-2.1092305019	 0.116127
H	 4.054257107	-1.8000989381	-1.2134232758	 0.11496
H	 3.0751466963	-1.2797752083	-2.6792349519	 0.113525
H	 1.8263874425	-2.3477176833	 0.8399091878	 0.13575
H	 2.851803961	-0.9886589752	 1.3238930048	 0.144992
57.1275	86.6135	220.9548	244.6801	278.8905	323.7568	358.7564	388.2255	483.602	514.7161	558.0297	641.7342	751.9062	762.5523	829.1575	852.1833	901.0275	917.6724	949.0537	982.7951	1021.0262	1039.4123	1101.6167	1124.8404	1136.6675	1166.8394	1181.1421	1213.4572	1241.1699	1258.7013	1272.5245	1314.4718	1335.1911	1403.3955	1421.6051	1442.8658	1477.6084	1498.0373	1501.5461	1534.4877	1847.1273	3035.0006	3038.1634	3039.8232	3066.4849	3076.6918	3105.3941	3111.4037	3119.5593	3124.9686	3161.1212
CC1CC2(CO2)CC1=O	C[C@H]1C[C@]2(CO2)CC1=O	
InChI=1S/C7H10O2/c1-5-2-7(4-9-7)3-6(5)8/h5H,2-4H2,1H3	InChI=1S/C7H10O2/c1-5-2-7(4-9-7)3-6(5)8/h5H,2-4H2,1H3/t5-,7+/m0/s1
