21
gdb 65510	3.45431	1.16013	1.12561	1.8109	81.6	-0.2473	0.086	0.3333	1196.7234	0.181985	-387.036542	-387.02803	-387.027086	-387.069666	33.612	
C	 0.0898873033	 1.5921289016	-0.0831953952	-0.483117
C	 0.0234005442	 0.0690734247	-0.0663018858	 0.299847
C	 0.9914925368	-0.6617001529	-1.0904812699	-0.312805
C	 1.7156036052	-1.2911839775	 0.1033904402	 0.039112
O	 2.2146521077	-0.2174515735	 0.9138546762	-0.256042
C	 0.8463479134	-0.6023786416	 1.0676351211	-0.003498
C	-1.3692938403	-0.5322797991	-0.1234092959	-0.015605
C	-2.5711167671	 0.075017337	 0.5590441374	-0.285918
C	-2.491859684	 0.0459894866	-0.9484302685	-0.284165
H	 1.1286392629	 1.9074189544	 0.0392103512	 0.136849
H	-0.2775109874	 2.0008444507	-1.0301033753	 0.115364
H	-0.4939136429	 2.0376459177	 0.7289058743	 0.114604
H	 0.4611033437	-1.3831913112	-1.7163973792	 0.105436
H	 1.6138977791	-0.0189805615	-1.7183436535	 0.10499
H	 2.2362887196	-2.2395127371	 0.170976635	 0.10043
H	 0.514343705	-0.8822318142	 2.0620617051	 0.096251
H	-1.3459209478	-1.6202911468	-0.0966921823	 0.077506
H	-3.2670736893	-0.5935083384	 1.0539667348	 0.110477
H	-2.463389298	 1.0368273468	 1.0471657791	 0.115299
H	-2.3251286098	 0.9880196817	-1.4584136696	 0.114636
H	-3.1352464742	-0.6395597973	-1.4889043092	 0.110351
56.9093	153.8404	192.9641	231.5073	275.9017	315.6199	350.4334	417.4806	460.9391	529.3407	645.1425	774.3248	792.9734	821.011	834.348	841.8661	861.1937	889.2946	924.8434	943.0918	961.1059	985.3386	1003.8229	1046.182	1058.6771	1071.1084	1081.7109	1126.385	1150.5962	1152.8903	1157.113	1201.9167	1222.4996	1229.9986	1250.3949	1275.3857	1306.0053	1380.2814	1398.0534	1421.4364	1468.8807	1472.9604	1494.5171	1508.0835	1511.4503	3037.7993	3062.0352	3100.7304	3113.9883	3121.0977	3123.8324	3136.1401	3140.525	3168.3046	3187.853	3212.7744	3227.2735
CC1(CC2OC12)C1CC1	C[C@]1(C[C@H]2O[C@@H]12)C1CC1	
InChI=1S/C8H12O/c1-8(5-2-3-5)4-6-7(8)9-6/h5-7H,2-4H2,1H3	InChI=1S/C8H12O/c1-8(5-2-3-5)4-6-7(8)9-6/h5-7H,2-4H2,1H3/t6-,7-,8+/m1/s1
