21
gdb 7842	4.17965	1.12781	0.96484	2.1023	75.82	-0.2283	0.0872	0.3155	1274.3449	0.187143	-366.23466	-366.22519	-366.224246	-366.269267	34.733	
C	-0.0672588242	 1.5610769992	-0.2251022009	-0.386864
C	-0.04616479	 0.0497671384	-0.0488286343	 0.139269
O	 0.6617865279	-0.5006237627	-1.1513808523	-0.440968
C	 0.6068546163	-0.3729087356	 1.2740901809	-0.140481
N	 0.7367551979	-1.8305375415	 1.2950651179	-0.11341
C	 2.0800283503	-2.4049223623	 1.192943835	-0.254788
C	 1.3170705085	-2.4941591627	 2.4671624126	 0.031685
C	 1.7515613982	-1.7312743963	 3.6990333092	-0.412288
H	 0.9528639582	 1.9583349968	-0.2389036566	 0.119662
H	-0.5465229161	 1.8243578671	-1.1715501372	 0.124342
H	-0.6186668173	 2.0415952526	 0.5891553119	 0.109198
H	-1.0807343558	-0.3311914894	-0.0437189961	 0.06559
H	 0.6615875112	-1.4549563541	-1.0139304011	 0.29046
H	 1.5745123206	 0.1432014701	 1.3790184894	 0.087217
H	-0.0332094347	-0.0588651495	 2.1075895857	 0.097346
H	 2.1868773942	-3.2689601702	 0.5413784097	 0.111348
H	 2.9203813982	-1.7122514924	 1.1643489435	 0.113034
H	 0.8259241331	-3.4408280785	 2.6906082614	 0.089795
H	 2.3095865216	-0.8257770087	 3.4492523741	 0.122678
H	 0.8893093534	-1.4422925776	 4.3104908551	 0.123547
H	 2.3975905185	-2.3618456826	 4.3188156722	 0.12363
39.0649	86.6429	138.1034	198.4663	211.4618	240.3304	316.2941	345.2603	438.2179	449.1235	454.9777	477.8407	528.6213	757.6415	812.8251	856.3353	904.0474	931.8333	945.6654	956.7232	1035.9852	1047.5441	1069.1256	1116.9027	1134.9575	1149.6446	1166.4666	1183.4501	1194.8938	1279.8177	1286.7928	1330.7479	1343.6552	1395.2024	1401.0964	1406.6505	1424.5994	1442.5976	1475.8772	1484.1426	1492.2275	1500.4154	1501.8782	1513.8229	2961.2443	2974.0242	3035.7704	3039.7897	3054.4893	3088.3447	3093.5616	3100.9633	3110.9875	3121.236	3128.0486	3171.7807	3798.0474
CC(O)CN1CC1C	C[C@@H](O)CN1C[C@H]1C	
InChI=1S/C6H13NO/c1-5-3-7(5)4-6(2)8/h5-6,8H,3-4H2,1-2H3	InChI=1S/C6H13NO/c1-5-3-7(5)4-6(2)8/h5-6,8H,3-4H2,1-2H3/t5-,6-,7?/m1/s1
