20
gdb 40545	3.71117	1.17088	1.00006	1.425	85.17	-0.2211	0.0204	0.2415	1243.5001	0.173	-365.980961	-365.973145	-365.972201	-366.013787	30.94	
C	 0.9464012944	 1.3808343425	 0.2586369938	-0.247568
C	 0.8899991141	 0.2540250315	-0.7397825794	-0.273037
C	-0.2331436814	 0.4226478444	 0.2494220521	-0.119801
C	-0.4403603766	-0.5096869206	 1.3792370784	 0.378666
C	 0.0647691619	-1.73538736	 1.5674418367	-0.195937
C	-0.3698404848	-2.3607347041	 2.877666805	-0.254543
C	-1.2105381466	-1.2621628215	 3.5202254358	-0.037493
N	-0.4488303193	-0.0275745784	 3.8163884279	-0.334577
C	-1.266454233	-0.1212462033	 2.5703042519	-0.153627
H	 1.6451264743	 1.2900496823	 1.0822916141	 0.127317
H	 0.7862302207	 2.3950568942	-0.0906711044	 0.108245
H	 0.6915101526	 0.4936035421	-1.7785694971	 0.109509
H	 1.5732254421	-0.5759333146	-0.600496087	 0.115134
H	-1.1529161919	 0.8472830526	-0.1489210105	 0.083399
H	 0.7381267143	-2.2413380796	 0.8847871195	 0.086962
H	-0.9583952224	-3.2741974302	 2.7168347521	 0.10195
H	 0.4837407485	-2.6379159984	 3.5085574702	 0.116166
H	-2.0462762762	-1.5221726405	 4.160889833	 0.084226
H	-0.9758679681	 0.5062171605	 4.5067059424	 0.223705
H	-2.1293361727	 0.5289683011	 2.4645303557	 0.081305
52.6727	117.8259	186.1441	294.7342	323.1281	396.6636	405.0975	564.6793	666.2874	730.8681	785.0906	809.9554	815.9454	832.8655	835.3445	857.0806	908.129	921.2173	923.1473	942.5693	985.8863	1002.1828	1057.2479	1063.613	1082.1928	1092.0661	1127.8806	1132.737	1160.9696	1168.4811	1191.8813	1197.7658	1232.6559	1248.1095	1273.5009	1323.8	1370.128	1406.063	1423.5843	1467.4582	1468.3879	1502.7277	1698.9592	3015.3532	3052.0013	3116.1963	3135.0972	3140.1129	3155.7267	3168.9355	3193.619	3215.449	3230.9859	3467.1451
C1CC1C1=CCC2NC12	C1CC1C1=CC[C@H]2N[C@@H]12	
InChI=1S/C8H11N/c1-2-5(1)6-3-4-7-8(6)9-7/h3,5,7-9H,1-2,4H2	InChI=1S/C8H11N/c1-2-5(1)6-3-4-7-8(6)9-7/h3,5,7-9H,1-2,4H2/t7-,8+/m1/s1
