20
gdb 88626	3.30628	1.2443	1.21053	1.4343	78.31	-0.2264	0.0842	0.3105	1142.0654	0.17102	-403.07487	-403.066449	-403.065505	-403.108603	31.99	
C	 0.4439227128	 1.4223424269	-0.1927230025	-0.431573
C	-0.0198523881	 0.0304165822	 0.1507783245	 0.081219
O	 0.9541316159	-1.0220179782	 0.0997894194	-0.254097
C	 0.3959570742	-0.6837296182	 1.3718864738	 0.015848
C	 1.2260898345	-0.0482589418	 2.454063753	-0.029715
C	 2.2535143946	-0.7133916751	 3.2800792693	-0.05432
C	 3.1122441135	-1.6920435426	 2.4804337606	-0.257021
C	 3.4461974729	-0.4973959558	 1.5555601759	-0.145268
N	 2.6095561784	 0.4661856629	 2.3747297788	-0.16663
H	 1.3632374279	 1.6788102951	 0.3375449348	 0.156887
H	 0.6213847787	 1.5097242291	-1.2697713798	 0.126789
H	-0.3280675754	 2.1513470244	 0.0773400239	 0.121371
H	-0.9783098174	-0.2591684364	-0.2843796284	 0.088718
H	-0.291027168	-1.4410158218	 1.7593575325	 0.09309
H	 0.6198070932	 0.66004653	 3.0210826735	 0.102103
H	 2.2607315366	-0.617409374	 4.3621540911	 0.090611
H	 3.9759229799	-2.0608940088	 3.0359531854	 0.108729
H	 2.5866794889	-2.5432512018	 2.0389401763	 0.113096
H	 4.4880782563	-0.1802455205	 1.6319641608	 0.105325
H	 3.1540917506	-0.5712750058	 0.510588257	 0.13484
32.2867	129.442	176.8791	195.0059	260.7484	321.7831	356.0018	422.1924	521.1822	652.4646	732.6721	768.5056	777.3084	792.1088	815.7406	827.4949	906.4644	952.3578	970.8517	997.101	1008.891	1038.1738	1064.8975	1079.2232	1099.4713	1139.7044	1171.8426	1175.8772	1182.001	1231.0804	1239.638	1265.8884	1296.7024	1304.0138	1360.6722	1383.5908	1418.1832	1436.1113	1466.8065	1484.6038	1492.0408	1502.693	1509.1812	3038.012	3062.5317	3066.6109	3081.7802	3090.7441	3096.0228	3098.7345	3118.9717	3139.4036	3149.7348	3166.7548
CC1OC1C1C2CCN12	C[C@H]1O[C@H]1[C@H]1[C@H]2CCN12	
InChI=1S/C7H11NO/c1-4-7(9-4)6-5-2-3-8(5)6/h4-7H,2-3H2,1H3	InChI=1S/C7H11NO/c1-4-7(9-4)6-5-2-3-8(5)6/h4-7H,2-3H2,1H3/t4-,5-,6-,7-,8?/m1/s1
