19
gdb 53335	4.5567	0.91304	0.89293	1.6413	84.58	-0.2368	0.0426	0.2794	1401.2932	0.15964	-385.842964	-385.834557	-385.833613	-385.877271	31.378	
C	 0.075940509	 1.4865355713	-0.0277984966	-0.50165
C	 0.037245014	 0.0325330795	 0.0248664501	 0.119702
C	 0.0109186915	-1.1704242104	 0.0761066773	 0.061023
C	-0.0181667337	-2.6263546297	 0.1079682214	-0.090906
O	 0.3874913759	-3.1526195673	 1.4057148536	-0.285225
C	-0.7600558376	-3.9380986695	 1.7746171671	 0.116292
C	-1.0932762582	-4.7142329879	 0.4770596259	-0.241758
C	-1.422219043	-3.266022556	-0.0023728026	-0.059659
C	-1.9561247633	-3.0138758245	 1.4421344698	-0.235722
H	 0.769242272	 1.8394553158	-0.7991567489	 0.149111
H	-0.9117082422	 1.9048822295	-0.2511915395	 0.147797
H	 0.4042314642	 1.9057221349	 0.9297204805	 0.152734
H	 0.6615642062	-3.0243736821	-0.6567216833	 0.097297
H	-0.5856117116	-4.4000979411	 2.7448696005	 0.08018
H	-0.2749946038	-5.2523296493	-0.0080285925	 0.099218
H	-1.9827847536	-5.3413245471	 0.557723992	 0.100395
H	-1.9943680987	-3.0439406196	-0.901382451	 0.079774
H	-2.9267209985	-3.4813437839	 1.6153781114	 0.099431
H	-1.9281307887	-1.9951174125	 1.8322390548	 0.111966
32.2768	85.9259	93.9975	233.6769	293.285	355.8384	440.1523	448.3951	516.1173	545.4286	673.2188	803.6639	843.2011	852.8535	855.9732	874.5085	914.4307	948.5146	966.8865	999.4802	1037.7129	1051.2895	1051.8639	1056.0028	1089.5227	1102.8057	1131.6861	1186.9416	1211.5337	1240.6647	1248.1408	1277.0038	1278.6076	1328.5202	1370.1834	1413.5185	1473.397	1477.0395	1478.4012	1506.6307	2369.672	3014.7743	3027.3295	3065.027	3078.1057	3088.1704	3089.5159	3132.2861	3135.0043	3139.5454	3145.1727
CC#CC1OC2CC1C2	CC#C[C@H]1O[C@@H]2C[C@H]1C2	
InChI=1S/C8H10O/c1-2-3-8-6-4-7(5-6)9-8/h6-8H,4-5H2,1H3	InChI=1S/C8H10O/c1-2-3-8-6-4-7(5-6)9-8/h6-8H,4-5H2,1H3/t6-,7+,8-/m1/s1
