18
gdb 118622	1.95031	0.99319	0.68341	2.588	77.21	-0.2661	0.0133	0.2795	1601.7554	0.144308	-439.033973	-439.023473	-439.022529	-439.07078	36.184	
O	 0.0513768904	 1.4853400148	-0.1408364498	-0.416816
C	 0.0708385161	 0.0692722538	-0.0711189187	-0.079089
C	-1.3426596279	-0.5168719762	 0.0099293996	-0.213437
C	-1.3548753626	-2.0488378935	 5.6199*^-6	-0.102828
O	-0.6510821263	-2.473744017	 1.1822045834	-0.189117
C	-0.3286840236	-3.7842581015	 1.2564914112	 0.133397
N	 0.3026018923	-4.2134610379	 2.2598746737	-0.439492
C	-2.7136745089	-2.5910643	-0.0386222803	 0.338786
C	-3.8305774664	-3.0326896645	-0.0712567598	-0.438452
H	-0.2077999175	 1.8202420365	 0.7233443401	 0.285295
H	 0.559023631	-0.2672647876	-0.9934780637	 0.109163
H	 0.6767224744	-0.2904099536	 0.7702400112	 0.121135
H	-1.8419048723	-0.1778518211	 0.9249695466	 0.11706
H	-1.9330421716	-0.1568614079	-0.8379161904	 0.124468
H	-0.8040333135	-2.4065733093	-0.8832341354	 0.112988
H	-0.6661494975	-4.3711723563	 0.3928272909	 0.097998
H	 0.4727061208	-5.2123095297	 2.1620476922	 0.231366
H	-4.8180503268	-3.4237676492	-0.0980929706	 0.207575
62.3034	78.3493	84.3697	95.8126	116.338	193.4325	243.0209	281.6068	300.342	348.109	444.0565	502.538	579.6441	636.266	651.663	683.3351	789.1714	820.1948	905.4887	980.8406	1033.8177	1040.4433	1053.8968	1073.7226	1112.7516	1114.1473	1184.3772	1275.5345	1291.1499	1311.7758	1353.882	1362.8093	1405.6435	1420.3411	1427.3614	1475.7224	1514.6587	1747.6	2237.179	2989.0295	3022.3042	3041.2136	3048.1206	3065.7746	3105.3029	3500.5614	3518.0315	3819.8114
OCCC(OC=N)C#C	OCC[C@@H](O[CH][NH])C#C	
InChI=1S/C6H9NO2/c1-2-6(3-4-8)9-5-7/h1,5-8H,3-4H2	InChI=1S/C6H9NO2/c1-2-6(3-4-8)9-5-7/h1,5-8H,3-4H2/t6-/m0/s1
