21
gdb 121969	5.45365	0.54705	0.5271	5.0097	81.11	-0.2366	0.0223	0.2589	2059.3273	0.18082	-420.394195	-420.383339	-420.382395	-420.431211	37.573	
C	-0.0496089185	 1.535374811	-0.0531387579	-0.341873
N	-0.0044853657	 0.0783438659	 0.0189607756	-0.067485
C	 0.7084604793	-0.4198627331	 1.1961680452	-0.13374
C	 2.1989192767	-0.0764130413	 1.1878018541	-0.191409
C	 2.9587365694	-0.8115008288	 2.2860560686	-0.072991
O	 4.3045683511	-0.3663995231	 2.2481510107	-0.418872
C	-1.3386323292	-0.5022111451	-0.050610349	-0.276294
C	-1.9882143175	-0.2490110551	-1.3429463693	 0.274187
N	-2.515849462	-0.0506071089	-2.3510759355	-0.308185
H	 0.9620874	 1.93829068	-0.1213658733	 0.136078
H	-0.5910714608	 1.8409316859	-0.9519212088	 0.148766
H	-0.5476031912	 1.9905171322	 0.8241299176	 0.095518
H	 0.2463102566	-0.0507971742	 2.1343639441	 0.080935
H	 0.5991577734	-1.511761697	 1.2036039626	 0.1004
H	 2.6260623106	-0.3384127438	 0.2141638292	 0.122121
H	 2.35879029	 0.996529011	 1.3340687108	 0.115177
H	 2.4964868232	-0.6021475043	 3.2653248796	 0.085913
H	 2.8922614772	-1.8997267391	 2.1221218269	 0.087307
H	 4.7958101021	-0.8304060133	 2.9322176465	 0.28749
H	-1.2613775726	-1.5876213559	 0.0768651505	 0.151225
H	-2.0184347024	-0.1366669929	 0.7449350716	 0.125734
46.9909	69.4529	97.5953	107.9158	140.0146	191.0787	251.7423	266.958	294.3632	334.0232	359.2209	395.0709	425.1193	498.0444	603.169	776.6214	862.5791	889.8088	938.303	998.8669	1025.3208	1045.1921	1073.7815	1087.1191	1128.5052	1161.8709	1186.8118	1215.706	1238.5114	1270.3116	1297.4203	1310.0966	1324.5988	1342.2328	1379.6047	1431.7985	1464.0547	1466.9067	1474.5493	1492.5209	1502.8602	1504.5076	1510.854	1530.7205	2366.0148	2896.8128	2910.3666	2932.3492	2956.4594	2981.6633	3034.2208	3052.6379	3065.5149	3091.7869	3100.6519	3137.8971	3831.6655
CN(CCCO)CC#N	CN(CCCO)CC#N	
InChI=1S/C6H12N2O/c1-8(5-3-7)4-2-6-9/h9H,2,4-6H2,1H3	InChI=1S/C6H12N2O/c1-8(5-3-7)4-2-6-9/h9H,2,4-6H2,1H3
