18
gdb 20874	6.48856	1.04133	0.96275	1.9389	74.13	-0.2384	0.0281	0.2666	1243.8696	0.155707	-344.017519	-344.009492	-344.008548	-344.051077	29.108	
C	 0.068610041	 1.5586778661	-0.028970964	-0.378884
C	 0.2912754732	 0.0454053177	-0.0756680567	-0.155329
C	 0.4607404425	-0.5754166335	 1.3237066457	-0.288561
C	 0.682223955	-2.0576363664	 1.2909679817	 0.342922
N	-0.3054106421	-2.8987734542	 1.5988044211	-0.290793
N	 0.2269166855	-4.1264678543	 1.4349918179	-0.180968
C	 1.5207472636	-4.0958076628	 1.0364290817	-0.019135
C	 1.8569266898	-2.7646546118	 0.929191809	-0.277723
H	 0.9138776634	 2.0701820979	 0.4454967908	 0.111427
H	-0.0508466445	 1.9754837159	-1.0339598765	 0.110152
H	-0.8309813398	 1.8086426699	 0.544528702	 0.115438
H	-0.5532008136	-0.442263686	-0.5770378675	 0.105712
H	 1.1778068742	-0.1811751648	-0.681123929	 0.09527
H	 1.3030749948	-0.088117656	 1.8316451109	 0.098409
H	-0.4332648891	-0.3737471917	 1.923215427	 0.112819
H	-0.3420595198	-4.9331151119	 1.6254862864	 0.272457
H	 2.085502091	-4.9996210054	 0.8696928287	 0.129113
H	 2.8115496449	-2.3576704387	 0.6365396508	 0.097674
33.4838	85.1662	122.0568	245.3263	311.3884	338.0174	377.4132	496.4471	658.8628	692.4006	742.4766	758.9782	779.4231	840.7977	873.5428	898.9802	946.9489	990.958	1043.9951	1068.4026	1079.7369	1111.6351	1117.8775	1208.233	1253.3483	1291.0372	1313.3284	1326.0765	1382.093	1407.5963	1412.2972	1470.7826	1480.5693	1489.9493	1494.4986	1500.0702	1509.4563	1575.7303	3020.7606	3027.1996	3030.0888	3055.8533	3081.161	3097.4233	3101.0806	3252.8376	3271.9706	3679.8763
CCCC1=NNC=C1	CCCc1n[nH]cc1	
InChI=1S/C6H10N2/c1-2-3-6-4-5-7-8-6/h4-5H,2-3H2,1H3,(H,7,8)	InChI=1S/C6H10N2/c1-2-3-6-4-5-7-8-6/h4-5H,2-3H2,1H3,(H,7,8)
