20
gdb 36615	5.00249	0.75006	0.71694	4.1425	84.29	-0.2619	0.0392	0.3011	1592.5837	0.171592	-366.006054	-365.997268	-365.996324	-366.040322	32.762	
N	-0.0004880084	-1.211496215	-0.0894835342	-0.306524
C	-0.0029288283	-0.0562081212	-0.1224933551	 0.256891
C	 0.0220539307	 1.4037990176	-0.1586361774	-0.33577
C	 1.4166884023	 1.986758553	 0.1718932528	-0.325748
C	 1.4103896719	 3.4890253954	 0.1446938418	 0.400192
C	 1.5525329875	 4.2843271424	-1.1279942424	-0.320878
C	 2.5667710713	 4.4783265863	-0.0328459135	-0.12014
C	 1.9898879558	 5.387503369	 1.0576859039	-0.217582
C	 0.8006904776	 4.3869882165	 1.237065534	-0.291671
H	-0.2949445151	 1.7370571313	-1.1530429601	 0.154776
H	-0.7222524315	 1.7816305617	 0.5517263451	 0.15458
H	 1.7273339482	 1.6231152105	 1.1585152371	 0.118801
H	 2.1440507703	 1.5997550559	-0.5501017076	 0.119904
H	 1.9034707596	 3.7231310869	-1.9891374213	 0.111222
H	 0.8486422388	 5.0779305895	-1.3716222289	 0.105154
H	 3.618441402	 4.2707774871	-0.1933716864	 0.089391
H	 2.6170514328	 5.4449760089	 1.9496563024	 0.107386
H	 1.7357536672	 6.4054717239	 0.7449237756	 0.099659
H	-0.2059603264	 4.7719535829	 1.0425325177	 0.095591
H	 0.8066656138	 3.9155363173	 2.2235979065	 0.104765
58.9053	87.1155	99.6135	195.0099	242.7716	327.0573	368.3172	403.5642	430.1439	521.1129	676.3207	730.8743	766.8676	787.2986	842.362	884.5063	929.6447	949.7316	965.2358	972.563	981.2888	1009.533	1038.2337	1041.9383	1085.836	1111.4434	1149.1622	1175.0315	1223.1277	1242.4245	1254.1422	1265.5486	1293.2937	1299.4171	1334.0756	1371.0853	1406.5158	1466.9781	1481.2135	1485.5989	1489.11	1512.4989	2360.7519	3032.9536	3040.0539	3046.5848	3051.2527	3069.9854	3090.1761	3091.6023	3098.9029	3113.0656	3176.2509	3191.9172
N#CCCC12CC1CC2	N#CCC[C@]12C[C@H]1CC2	
InChI=1S/C8H11N/c9-5-1-3-8-4-2-7(8)6-8/h7H,1-4,6H2	InChI=1S/C8H11N/c9-5-1-3-8-4-2-7(8)6-8/h7H,1-4,6H2/t7-,8+/m1/s1
