18
gdb 10698	2.5102	1.95855	1.39125	2.14	68.25	-0.2564	-0.0362	0.2202	962.9929	0.151094	-384.934697	-384.925944	-384.924999	-384.967832	31.908	
C	-0.1788780516	 1.5310270133	 0.3540023168	-0.39854
C	-0.108673298	 0.0515485282	-0.0658690488	-0.044338
C	 0.9452672011	-0.7028481048	 0.7517631405	-0.416607
C	-1.4976922409	-0.564053408	 0.0195293317	 0.300661
C	-1.7954062747	-1.889893503	 0.6135028781	-0.225606
O	-2.0943487219	-0.7008835906	 1.3248174628	-0.26649
C	-2.5057229896	-0.1206385096	-1.0033437844	 0.135181
O	-2.2360748441	 0.4478007949	-2.0300912845	-0.262872
H	 0.8039298846	 2.0011642525	 0.2556868265	 0.113889
H	-0.8821085168	 2.0887211412	-0.2695561263	 0.132397
H	-0.4962029455	 1.6191730037	 1.39811556	 0.128217
H	 0.1656672597	 0.0141553683	-1.1268134557	 0.1007
H	 0.6485146542	-0.7709677309	 1.8038691849	 0.131014
H	 1.113065375	-1.7152945481	 0.3722670453	 0.113498
H	 1.901252931	-0.1729224758	 0.7097532023	 0.11803
H	-2.6582865886	-2.4593183409	 0.2677679264	 0.120453
H	-0.9717332514	-2.4830465767	 1.0016372323	 0.130962
H	-3.5517789523	-0.3750078335	-0.719806858	 0.089452
68.0577	133.8621	189.6849	218.	239.4944	266.2625	305.3721	367.3191	383.2167	448.5987	503.1817	607.1755	690.4721	839.0244	881.6531	893.9729	931.9309	962.463	979.0134	1036.8627	1108.4215	1131.8459	1143.801	1168.4254	1189.17	1247.6162	1337.5417	1340.0809	1377.4632	1396.3254	1411.6315	1428.229	1492.5343	1493.9894	1507.1727	1515.4341	1526.5835	1825.8062	2887.5433	3035.2716	3041.37	3045.6862	3088.0977	3106.0373	3107.8966	3113.3972	3124.1922	3185.3118
CC(C)C1(CO1)C=O	CC(C)[C@]1(CO1)C=O	
InChI=1S/C6H10O2/c1-5(2)6(3-7)4-8-6/h3,5H,4H2,1-2H3	InChI=1S/C6H10O2/c1-5(2)6(3-7)4-8-6/h3,5H,4H2,1-2H3/t6-/m1/s1
