15
gdb 14087	3.74874	1.66789	1.39516	2.8756	63.44	-0.2559	0.024	0.2799	898.679	0.118596	-399.771846	-399.764432	-399.763488	-399.803542	27.535	
O	-0.1395460705	 1.3879986739	-0.0612496388	-0.42034
C	-0.0456208888	-0.0007672686	 0.0423812027	 0.040929
C	-0.5308445139	-0.6863155614	 1.2914202431	-0.38638
C	-1.3592170702	-0.719180827	 0.0326088824	 0.191684
C	-2.7370712941	-0.1543777185	-0.2789618347	-0.143074
O	-3.006406887	-1.3439582744	-1.0979123197	-0.269895
C	-1.7635505665	-1.8795185931	-0.8068460956	 0.38936
N	-1.224029909	-2.9573024057	-1.153349784	-0.564388
H	 0.5727797184	 1.7767911652	 0.4574040409	 0.295048
H	 0.7683435149	-0.4660214555	-0.5122756875	 0.11515
H	-0.0557014111	-1.6128785056	 1.5952723019	 0.141009
H	-0.8926275364	-0.0524411291	 2.0946141879	 0.123658
H	-3.4422624553	-0.0894378771	 0.5534284617	 0.121422
H	-2.7584141747	 0.7556483096	-0.8817060332	 0.136909
H	-1.8353816258	-3.5070945025	-1.758070117	 0.228909
121.3061	143.4399	179.2226	254.5948	290.5368	367.5479	452.6481	544.48	601.1072	674.3187	772.103	831.0968	849.1059	882.8358	913.8136	953.6453	998.6578	1034.2676	1040.3476	1088.809	1100.6805	1141.0896	1167.6247	1192.0866	1249.0519	1289.925	1318.8007	1380.0858	1426.3176	1495.6043	1515.8398	1826.5232	3065.0039	3116.7591	3128.266	3130.1607	3226.2462	3487.5037	3806.1358
OC1CC11COC1=N	O[C@H]1C[C@]21CO[C]2[NH]	
InChI=1S/C5H7NO2/c6-4-5(2-8-4)1-3(5)7/h3,6-7H,1-2H2	InChI=1S/C5H7NO2/c6-4-5(2-8-4)1-3(5)7/h3,6-7H,1-2H2/t3-,5+/m0/s1
