21
gdb 100509	3.00741	0.94547	0.83511	1.8224	81.29	-0.246	-0.0506	0.1954	1486.5698	0.180863	-420.445051	-420.434305	-420.433361	-420.481424	38.775	
C	 0.0359891818	 1.547785833	-0.0045541069	-0.397074
C	-0.0226880858	 0.0180192328	-0.0377539964	-0.169666
C	-1.4517522989	-0.5486314331	-0.0475885756	-0.063056
C	-2.2343805564	-0.2030349569	-1.3359907627	-0.404459
C	-1.4313062151	-2.0582245346	 0.0961329838	 0.371618
O	-0.4852744664	-2.7478324308	-0.2261507144	-0.337877
C	-2.6745451365	-2.744506967	 0.6662352909	 0.263001
N	-2.5999425555	-4.1030369232	 0.5629096003	-0.53302
N	-3.6139422329	-2.0156170227	 1.1438728169	-0.510323
H	 1.0723061453	 1.8922458997	 0.0673395395	 0.113502
H	-0.3945516026	 1.9965618243	-0.9050183028	 0.117785
H	-0.5073724489	 1.9488298921	 0.8586145069	 0.114797
H	 0.5195912736	-0.3630012243	-0.9101385411	 0.108304
H	 0.5050443377	-0.3816750439	 0.8361099945	 0.098708
H	-2.0264141153	-0.1530418351	 0.7959190459	 0.116264
H	-1.7199655025	-0.5941068842	-2.2205751647	 0.121065
H	-3.2426558423	-0.6215580176	-1.3008504378	 0.137965
H	-2.3254790294	 0.8804459651	-1.4455282926	 0.124163
H	-1.6932545249	-4.4740465476	 0.3195414379	 0.270656
H	-3.2231203934	-4.6819536366	 1.09943309	 0.251935
H	-4.3838485015	-2.5823092397	 1.5072459883	 0.205712
48.572	63.3992	79.1502	159.621	205.7248	217.4071	264.5078	276.8535	324.7423	351.1147	365.4601	434.2077	478.7298	533.8624	556.2804	617.9166	759.0082	787.2719	814.2662	849.0549	880.9436	970.9924	980.8933	1021.6922	1061.0373	1096.0886	1114.1756	1137.5253	1144.1546	1196.0785	1289.0584	1322.192	1338.4144	1385.8367	1395.4293	1415.2883	1430.4245	1481.6843	1495.9199	1499.1806	1507.9349	1513.3663	1597.1981	1714.9237	1782.8802	3032.6961	3036.5562	3040.7538	3061.9482	3075.681	3100.6165	3105.5368	3115.571	3131.1258	3438.9688	3577.4399	3712.1487
CCC(C)C(=O)C(N)=N	CC[C@@H](C)C(=O)C(=N)N	
InChI=1S/C6H12N2O/c1-3-4(2)5(9)6(7)8/h4H,3H2,1-2H3,(H3,7,8)	InChI=1S/C6H12N2O/c1-3-4(2)5(9)6(7)8/h4H,3H2,1-2H3,(H3,7,8)/t4-/m1/s1
