19
gdb 105648	2.02905	1.4217	1.28355	4.4388	76.54	-0.2397	0.022	0.2617	1144.1017	0.15863	-419.190547	-419.180985	-419.180041	-419.224679	35.104	
C	 0.0303096147	 1.3690918731	 0.1241127109	-0.263816
O	-0.0019054448	-0.0417116008	-0.0248668253	-0.291844
C	 0.640139007	-0.5525334516	-1.1716400259	 0.281935
C	 2.1964969775	-0.5857567115	-1.0311813026	-0.274599
C	 2.0698896371	-1.9917198194	-0.3904855708	-0.26178
C	 0.6542153783	-2.1118316683	-1.0468676607	 0.01622
N	-0.4972831901	-2.6933566138	-0.4143822101	-0.520274
C	 0.0850036352	 0.0169263588	-2.4076172187	 0.234476
N	-0.3251214921	 0.4620525046	-3.3927258175	-0.349219
H	 1.0569993542	 1.7523118327	 0.1951641408	 0.114692
H	-0.4780865124	 1.871175964	-0.7084880325	 0.141572
H	-0.4960890166	 1.5912742422	 1.0541276676	 0.136925
H	 2.6862667481	-0.6058819247	-2.0069478993	 0.125783
H	 2.6313691619	 0.2140719663	-0.4301916884	 0.117759
H	 2.8142609778	-2.7415072615	-0.6646803562	 0.10314
H	 1.9977068302	-1.9346040971	 0.6982749127	 0.111299
H	 0.7597597473	-2.5356959642	-2.0504186236	 0.105599
H	-0.390397048	-3.6970219471	-0.3164603567	 0.232119
H	-0.6306579655	-2.2942641719	 0.5083065363	 0.240014
106.101	118.4023	144.7378	170.5093	189.66	215.9577	269.6925	322.2018	365.8458	415.5911	498.9296	533.0384	597.4809	614.4146	703.5842	777.6329	823.6837	885.3642	928.2428	966.3325	1023.4918	1052.9065	1087.6199	1123.5186	1135.3957	1176.1718	1184.7393	1216.0744	1234.3507	1238.2839	1259.9765	1288.6066	1304.2844	1424.6554	1468.8572	1482.0942	1488.5296	1491.8143	1509.0602	1646.0303	2346.4769	3006.5942	3064.5852	3067.581	3070.984	3080.6476	3124.3557	3132.4711	3140.6115	3512.9606	3599.2284
COC1(CCC1N)C#N	CO[C@]1(CC[C@H]1N)C#N	
InChI=1S/C6H10N2O/c1-9-6(4-7)3-2-5(6)8/h5H,2-3,8H2,1H3	InChI=1S/C6H10N2O/c1-9-6(4-7)3-2-5(6)8/h5H,2-3,8H2,1H3/t5-,6-/m1/s1
