18
gdb 43985	3.07398	1.57995	1.34655	2.5376	76.18	-0.2345	-0.0134	0.2211	997.7558	0.150036	-401.933124	-401.925977	-401.925033	-401.964575	28.892	
O	-0.0807838459	-0.0031697761	-0.2014550586	-0.311828
C	-0.0361450563	 1.1942259942	-0.2367250674	 0.345104
C	-1.154070181	 2.2823613771	-0.3801158149	-0.431267
C	-0.1158861447	 3.2540487379	 0.2088142779	 0.257015
C	-0.0251042121	 4.0149142145	 1.5117154412	-0.285954
C	 1.4289232274	 3.7342645435	 2.0027254026	-0.207513
C	 1.826608603	 2.3204503545	 1.4673165827	-0.29435
C	 0.9911732024	 2.1959449592	 0.219134026	 0.120237
N	 1.0206792413	 3.3736714169	-0.6713208351	-0.372264
H	-1.5505444224	 2.5323609657	-1.3681709823	 0.11789
H	-1.986259105	 2.0269916071	 0.2829525325	 0.134846
H	-0.2229036724	 5.0869406361	 1.4170975538	 0.112657
H	-0.7623686165	 3.6033084584	 2.2105362781	 0.108906
H	 2.1004697482	 4.4803337014	 1.5732604713	 0.128042
H	 1.5144566738	 3.8023735745	 3.0904235866	 0.102609
H	 2.9038631241	 2.2402891922	 1.2997816101	 0.115225
H	 1.5384846807	 1.5301356299	 2.1688248187	 0.117518
H	 0.7922974355	 3.134699183	-1.6327689133	 0.243126
97.8647	209.1553	242.3236	321.3724	401.2036	461.3889	537.0335	579.6239	587.266	645.5835	683.2267	744.4764	780.3659	851.0205	864.5723	894.3005	917.5025	959.5171	982.2142	1036.1057	1045.3784	1083.1169	1097.1083	1122.2803	1174.5303	1199.9597	1204.1876	1215.8242	1249.3221	1279.581	1331.1795	1341.158	1378.5986	1403.8928	1464.7206	1483.5087	1487.2352	1501.0721	1862.7438	3043.4718	3052.636	3054.3859	3071.6801	3086.4298	3096.6099	3107.7955	3123.1362	3500.5274
O=C1CC23CCCC12N3	O=C1C[C@@]23CCC[C@@]12N3	
InChI=1S/C7H9NO/c9-5-4-6-2-1-3-7(5,6)8-6/h8H,1-4H2	InChI=1S/C7H9NO/c9-5-4-6-2-1-3-7(5,6)8-6/h8H,1-4H2/t6-,7+/m0/s1
