14
gdb 132905	3.14245	1.4337	0.99056	4.2025	69.45	-0.2366	-0.0625	0.1741	1107.1607	0.100713	-478.010607	-478.002925	-478.001981	-478.043219	28.175	
C	-0.0288182952	 1.5305786584	 0.0177671605	-0.498419
C	-0.0077943914	 0.0314348161	-0.0209133488	 0.028419
C	-0.0402566685	-0.7106105708	-1.1471094176	 0.044812
O	-0.0209082478	-2.0449582218	-1.165148105	-0.193101
C	 0.0366970091	-2.7697973843	 0.0383994059	 0.438888
N	 0.0506708552	-4.0246963568	-0.0963558742	-0.525357
N	 0.0717340249	-2.05145449	 1.224377676	-0.371301
C	 0.0504089297	-0.7770976857	 1.1686123074	 0.30717
F	 0.0846503715	-0.1124445158	 2.3150943411	-0.051003
H	 0.8657036958	 1.9299288012	 0.506844356	 0.14773
H	-0.074740484	 1.9415604907	-0.994045727	 0.132682
H	-0.8938170448	 1.9034440029	 0.5759620905	 0.147735
H	-0.0853039334	-0.294170916	-2.1477554196	 0.152713
H	 0.0929578691	-4.450383108	 0.8274069149	 0.239032
67.8685	153.7985	211.3153	259.2824	279.6647	378.7388	409.0938	472.3856	562.3373	578.4495	721.11	731.6837	762.5375	788.853	851.7831	856.5994	937.7594	1021.615	1071.6584	1088.4722	1208.7414	1233.9447	1298.1278	1342.8673	1419.2947	1436.1687	1476.4902	1498.4208	1620.3281	1730.4564	1751.9464	3038.6196	3095.4058	3120.3611	3202.1451	3529.645
CC1=COC(=N)N=C1F	CC1=C(N=C(OC1)[NH])F	
InChI=1S/C5H5FN2O/c1-3-2-9-5(7)8-4(3)6/h2,7H,1H3	InChI=1S/C5H6FN2O/c1-3-2-9-5(7)8-4(3)6/h7H,2H2,1H3
