13
gdb 133426	3.15421	1.43595	0.98674	2.7909	66.43	-0.2203	-0.0343	0.1859	1068.9711	0.090332	-490.204844	-490.197304	-490.19636	-490.237487	28.137	
F	 0.0502132461	 0.0517800301	-0.144854405	-0.056955
C	-0.0682283803	 1.3625984813	-0.0348244456	 0.425365
N	-1.1879329498	 1.8783185949	 0.2510459614	-0.307057
N	-1.1700190306	 3.2548735644	 0.3343890412	-0.342303
C	-0.100448116	 4.1154089404	 0.1464537882	 0.373068
N	-0.1376917582	 5.3867378222	 0.2348887291	-0.497431
C	 1.201429964	 3.4346279983	-0.1905342977	 0.375964
N	 2.2591425645	 4.1051720821	-0.3868021168	-0.472204
N	 1.1016754781	 2.0370543935	-0.2566527088	-0.452907
H	-2.0690630331	 3.646430403	 0.5620665841	 0.266649
H	-1.0765809258	 5.7173464932	 0.4678706996	 0.207627
H	 3.056591775	 3.5044472715	-0.6048833355	 0.212435
H	 1.9265813761	 1.4984077351	-0.4770503144	 0.26775
56.2206	104.2951	310.0618	350.8451	374.143	407.9958	466.4497	480.6617	504.2936	525.1642	604.3482	650.4269	715.9255	772.6469	807.0779	830.8964	875.1105	1011.1713	1071.5299	1130.1122	1227.0925	1284.1571	1291.6429	1400.0835	1462.0341	1523.1721	1708.3599	1743.1203	1786.4538	3451.0579	3457.5758	3616.9859	3649.8634
FC1=NNC(=N)C(=N)N1	Fc1n[nH]c([NH])c([NH])[nH]1	
InChI=1S/C3H4FN5/c4-3-7-1(5)2(6)8-9-3/h(H2,6,8)(H2,5,7,9)	InChI=1S/C3H4FN5/c4-3-7-1(5)2(6)8-9-3/h(H2,6,8)(H2,5,7,9)
