16
gdb 67346	2.9056	1.91452	1.33118	2.2459	67.96	-0.2384	0.0012	0.2396	929.4619	0.124497	-437.852065	-437.844893	-437.843949	-437.883334	28.546	
C	-0.0649064428	 1.537516072	 0.033452917	-0.509308
C	-0.0444489166	 0.0353141804	 0.0518581335	 0.180338
C	 1.0836511366	-0.8061435038	-0.6717881839	 0.011714
O	 2.0477335817	-0.5130033533	 0.3876230523	-0.315241
C	 0.7929105399	-0.7891325054	 1.0969203105	 0.023717
C	 0.4900955885	-1.9888496896	 0.1638047225	-0.035207
N	-0.9495589762	-2.0602749729	 0.0061286641	-0.35235
C	-1.3423047713	-0.7392904565	-0.1911022504	 0.382145
O	-2.4284636182	-0.3266431798	-0.5135968037	-0.361404
H	 0.9456676171	 1.9295449946	 0.1740405294	 0.13519
H	-0.4624005123	 1.9057559532	-0.9167892652	 0.135903
H	-0.7085624189	 1.9266730335	 0.8282349078	 0.133275
H	 1.4241375736	-0.7543149909	-1.7073790787	 0.102175
H	 0.7850070114	-0.724908947	 2.1856928528	 0.10499
H	 1.0278075071	-2.9267497616	 0.27281589	 0.109383
H	-1.4140123996	-2.807872863	-0.4871016079	 0.25468
149.7646	196.5393	235.1396	306.7164	382.3064	411.7095	426.3137	565.9253	631.2792	677.9414	695.9259	728.5405	773.8222	847.2737	858.6241	882.3188	906.6267	931.255	1020.3212	1038.2289	1099.8117	1127.5265	1137.0586	1146.2802	1164.9292	1192.7542	1210.7953	1284.8196	1325.2852	1346.1942	1395.9739	1413.1145	1488.6628	1490.9385	1856.4104	3044.9153	3107.0548	3111.1153	3116.548	3126.4295	3169.4062	3625.3483
CC12C3OC1C3NC2=O	C[C@@]12[C@H]3O[C@@H]1[C@H]3NC2=O	
InChI=1S/C6H7NO2/c1-6-3-2(4(6)9-3)7-5(6)8/h2-4H,1H3,(H,7,8)	InChI=1S/C6H7NO2/c1-6-3-2(4(6)9-3)7-5(6)8/h2-4H,1H3,(H,7,8)/t2-,3-,4+,6+
