17
gdb 68985	2.81593	1.3979	1.12222	1.5757	73.09	-0.2276	0.0349	0.2625	1103.7376	0.132974	-421.73892	-421.729988	-421.729044	-421.772824	33.411	
O	-0.6885720073	 0.7620263863	 1.0154715418	-0.45682
C	-0.2412540584	-0.263066027	 0.2070783739	 0.294081
C	-0.0278682686	-1.7071222198	 0.611324256	-0.399195
C	-0.9091886391	-1.3662502456	-0.5731955149	 0.38246
C	-2.3403398864	-1.7813164528	-0.7927125241	-0.457555
C	-3.1402659147	-1.5903303058	 0.4141891838	 0.285799
C	-3.7686049363	-1.4119254047	 1.4243036747	-0.448708
O	-0.0967953951	-1.1298539161	-1.7294072788	-0.330899
C	 0.5226567393	 0.019968403	-1.0766393745	-0.124952
H	-1.4903964785	 0.4644808474	 1.4615329453	 0.292508
H	 0.9188542939	-2.2195149125	 0.4546714166	 0.111959
H	-0.5726456527	-1.9960922017	 1.5057205267	 0.122607
H	-2.7529774504	-1.180920888	-1.6131410478	 0.149239
H	-2.3908081632	-2.8301781052	-1.1151399132	 0.145894
H	-4.3520585623	-1.2776338732	 2.3018244837	 0.206087
H	 0.2092664477	 0.9528305583	-1.5567821858	 0.117598
H	 1.6152564222	-0.0520441327	-1.0563332633	 0.109898
44.1376	105.8094	172.3951	215.9148	241.7929	342.9457	350.6089	377.6544	422.6355	466.8144	530.8623	626.5757	639.663	656.0395	738.9857	745.9064	867.3142	917.6799	951.9517	962.4495	972.8031	1008.7995	1039.1072	1072.9804	1117.7697	1138.6026	1158.0865	1228.1099	1255.5285	1303.3321	1347.0421	1405.0174	1418.1976	1473.2619	1496.4202	1524.2356	2233.2701	3015.4986	3036.656	3052.5649	3093.0771	3103.0709	3202.1255	3501.3485	3793.6165
OC12CC1(CC#C)OC2	O[C@@]12C[C@]1(CC#C)OC2	
InChI=1S/C7H8O2/c1-2-3-7-4-6(7,8)5-9-7/h1,8H,3-5H2	InChI=1S/C7H8O2/c1-2-3-7-4-6(7,8)5-9-7/h1,8H,3-5H2/t6-,7+/m1/s1
