16
gdb 42791	2.5202	1.68817	1.42712	4.4744	69.51	-0.246	-0.0257	0.2203	957.6107	0.126843	-437.931683	-437.924547	-437.923603	-437.963341	27.709	
O	 0.0183095911	 0.0316053672	 0.0020732232	-0.312088
C	-0.0117512351	 1.2250405046	-0.017309519	 0.434208
C	-1.1216922996	 2.2889885169	 0.0668672391	-0.151608
C	-0.0582317211	 3.1585824692	 0.8064593898	-0.248585
C	 1.0396825262	 2.3477322162	 0.0439374012	-0.246972
C	 1.1589910982	 2.9292958073	-1.3733386436	 0.407072
O	 2.214469857	 3.1659928324	-1.9166075474	-0.368028
N	-0.0622297942	 3.1668935657	-1.9525992143	-0.308173
C	-1.3502640467	 2.8525574307	-1.3447063192	-0.171416
H	-2.0644256604	 2.0355971105	 0.5522778552	 0.099986
H	-0.0859303781	 4.2332567011	 0.6165346257	 0.121194
H	-0.0384962926	 2.9647246164	 1.8799200664	 0.125653
H	 2.0264633499	 2.1723063716	 0.4651079301	 0.113288
H	-0.0347508439	 3.5733610821	-2.8755762601	 0.255422
H	-1.8922128147	 2.1130824554	-1.9481680622	 0.130413
H	-1.9705469961	 3.7567723429	-1.2874634247	 0.119633
114.7626	140.3646	211.6637	353.9485	410.975	465.5456	490.9548	539.2111	548.1178	691.4928	714.2991	770.6525	804.3458	844.8732	900.9685	919.998	981.7231	1013.4659	1033.057	1079.172	1102.5499	1113.9238	1137.3667	1200.7504	1204.1878	1257.2973	1269.5528	1283.6324	1320.1927	1381.8901	1469.842	1495.427	1529.9003	1814.5217	1899.5808	3008.6029	3041.9804	3076.4402	3118.8639	3138.467	3158.7948	3624.4107
O=C1C2CC1C(=O)NC2	O=C1[C@H]2C[C@@H]1C(=O)NC2	
InChI=1S/C6H7NO2/c8-5-3-1-4(5)6(9)7-2-3/h3-4H,1-2H2,(H,7,9)	InChI=1S/C6H7NO2/c8-5-3-1-4(5)6(9)7-2-3/h3-4H,1-2H2,(H,7,9)/t3-,4-/m0/s1
