18
gdb 56517	2.6323	1.22788	1.05248	3.4744	78.48	-0.2523	0.0222	0.2746	1196.7756	0.145618	-398.090696	-398.080249	-398.079305	-398.1255	38.366	
C	-0.001699768	 1.561499699	 0.1240334407	-0.426803
C	-0.0167492552	 0.0263320551	 0.0340447113	 0.037547
N	 0.7308801012	-0.5137830666	 1.181074634	-0.513188
C	-1.4015781814	-0.4691891228	-0.0104932094	 0.338886
C	-2.5207620581	-0.9074256038	 0.0236702353	-0.464628
C	 0.7280616122	-0.4653773415	-1.2544524008	-0.131965
N	 0.0755888385	 0.0072738207	-2.4718421277	-0.495805
C	 2.1615719739	-0.104915585	-1.196905229	 0.285726
N	 3.2731932772	 0.2072757469	-1.2595357534	-0.338719
H	 1.0294447032	 1.9235559375	 0.1530500836	 0.150226
H	-0.5286198295	 2.0056872396	-0.7230390512	 0.135771
H	-0.5134388233	 1.8848246847	 1.0348177133	 0.128434
H	 0.3725925458	-0.1039263339	 2.0386450689	 0.23764
H	 0.5668290292	-1.5142492182	 1.2576527515	 0.235476
H	-3.5132750492	-1.2853534292	 0.0392526937	 0.197629
H	 0.664769022	-1.5591715589	-1.25036252	 0.129943
H	 0.3236785784	 0.9750315774	-2.6519898242	 0.245721
H	 0.402326293	-0.5264271611	-3.2703994966	 0.24811
66.3302	124.0819	169.1896	189.4145	211.09	228.1518	249.2466	269.9152	291.274	353.0753	383.7846	427.0941	485.5504	555.1589	580.2169	625.6142	632.4815	651.9714	747.0172	844.7095	855.5794	910.626	976.1581	991.5536	1030.2798	1131.578	1144.8217	1192.1714	1228.4518	1302.2546	1347.4281	1396.4035	1405.222	1490.3794	1498.9648	1662.3142	1671.0486	2227.3836	2345.8151	3049.8813	3055.5446	3122.8076	3140.1562	3489.6573	3500.448	3510.6254	3568.4042	3587.5209
CC(N)(C#C)C(N)C#N	C[C@@](N)(C#C)[C@@H](N)C#N	
InChI=1S/C6H9N3/c1-3-6(2,9)5(8)4-7/h1,5H,8-9H2,2H3	InChI=1S/C6H9N3/c1-3-6(2,9)5(8)4-7/h1,5H,8-9H2,2H3/t5-,6+/m0/s1
