16
gdb 25479	5.2939	0.9713	0.82072	2.3894	87.07	-0.2163	-0.027	0.1893	1339.253	0.127973	-397.002025	-396.994526	-396.993582	-397.034388	28.292	
N	-0.5024061064	-2.9859450358	-0.1809449769	-0.477894
C	-1.5708758207	-2.3049334962	-0.0477743411	 0.093035
N	-1.5560967484	-0.9473897831	-0.2852516	-0.359647
C	-2.6334816816	-0.0824846141	-0.181808757	 0.471636
N	-3.8096044152	-0.5999061398	 0.182987338	-0.33452
C	-4.8498584757	 0.2309093403	 0.2836304713	 0.006849
C	-4.7844807822	 1.5951661718	 0.0332320146	-0.146278
C	-3.5501573791	 2.1238996588	-0.3471485741	-0.058666
C	-2.4563856785	 1.2841026972	-0.4587797823	-0.229494
H	-0.6855739269	-3.9647519704	 0.0305466469	 0.226373
H	-2.5572854805	-2.6664792819	 0.2456387856	 0.13586
H	-0.6611361191	-0.5691334973	-0.560179352	 0.256068
H	-5.7893135345	-0.2283277096	 0.5829365764	 0.110459
H	-5.6644867122	 2.2186640107	 0.1320339771	 0.100883
H	-3.4422452322	 3.1834036756	-0.5550029226	 0.109146
H	-1.482847267	 1.6626020739	-0.7521438639	 0.096189
82.0021	151.6542	169.3493	224.5322	407.3587	418.7871	463.8153	533.3169	614.1673	631.6143	685.0713	762.8802	795.5086	818.755	878.9148	905.51	980.6812	995.0178	1001.1319	1067.7057	1083.9631	1112.2403	1127.2943	1176.5278	1242.9918	1312.1083	1334.7998	1351.7765	1394.1833	1438.5725	1514.2088	1521.9405	1619.0608	1643.1899	1726.8294	3132.1766	3152.8735	3174.7791	3190.8169	3210.8013	3508.5277	3616.2092
N=CNC1=NC=CC=C1	N=CNc1ncccc1	
InChI=1S/C6H7N3/c7-5-9-6-3-1-2-4-8-6/h1-5H,(H2,7,8,9)	InChI=1S/C6H7N3/c7-5-9-6-3-1-2-4-8-6/h1-5H,(H2,7,8,9)
