15
gdb 35382	4.32759	1.32215	1.20857	1.2138	69.81	-0.2411	0.021	0.2621	1009.4302	0.11212	-420.511346	-420.504556	-420.503612	-420.542635	27.125	
C	-0.083359477	-1.2181310661	-0.0410665672	-0.442554
C	-0.0551560535	-0.0176681551	-0.0022450728	 0.33794
C	 0.003027631	 1.4381145624	 0.0228914146	-0.106574
O	-0.4871851016	 1.9672795853	 1.288912727	-0.270735
C	 0.6167478702	 2.6840282801	 1.7750711091	 0.09478
C	 1.3567838621	 3.4367597857	 0.6299430164	 0.010119
O	 2.642937075	 3.2435551145	 1.3024077055	-0.314688
C	 1.9588049477	 1.9572160444	 1.464915883	 0.030318
C	 1.4218202114	 2.0104922397	 0.0019372882	-0.077312
H	-0.1188487995	-2.2793621299	-0.0707090185	 0.204495
H	-0.6177685505	 1.8488627077	-0.7834745033	 0.117827
H	 0.4213044169	 3.147957381	 2.7387429857	 0.108287
H	 1.1555227715	 4.3976845676	 0.1578666807	 0.099742
H	 2.4754688548	 1.1541354042	 1.9873369762	 0.105993
H	 2.0798589314	 1.7997081085	-0.8375013046	 0.102362
98.6509	151.9643	301.6008	402.9176	462.2086	482.2138	561.0351	631.9661	671.6258	685.4861	738.6405	785.8369	822.4339	876.8521	887.8327	901.5052	922.893	976.5864	992.5671	1014.5858	1029.2866	1082.6718	1140.8578	1146.4138	1150.3977	1180.076	1224.3329	1255.3085	1269.2115	1282.3312	1349.7329	1368.163	2240.1199	3026.3699	3127.8381	3138.6962	3162.4218	3169.8292	3501.3929
C#CC1OC2C3OC2C13	C#C[C@H]1O[C@@H]2[C@H]3O[C@@H]2[C@@H]13	
InChI=1S/C7H6O2/c1-2-3-4-5-7(8-3)6(4)9-5/h1,3-7H	InChI=1S/C7H6O2/c1-2-3-4-5-7(8-3)6(4)9-5/h1,3-7H/t3-,4-,5-,6+,7+/m1/s1
