20
gdb 102705	2.40843	0.87282	0.6741	4.9291	73.78	-0.2384	0.0442	0.2827	1633.5883	0.169616	-477.435099	-477.424409	-477.423465	-477.471999	37.107	
O	-0.0998862321	 1.3270002298	 0.2301648243	-0.42358
C	-0.0321027115	-0.077315666	 0.0306553139	-0.094642
C	-1.4562833491	-0.6201919449	-0.1058454651	-0.000048
C	-2.1783225579	 0.0779045285	-1.2605350862	-0.08226
O	-3.5395123467	-0.35829903	-1.288321899	-0.427628
C	-1.4111106739	-2.1492002754	-0.2690545034	-0.160256
N	-2.7132140591	-2.7709019673	-0.1067900931	-0.278956
C	-2.9124858393	-3.8560873325	 0.6794199537	 0.150156
O	-2.0496733899	-4.4552346938	 1.2910238772	-0.3354
H	 0.7966697857	 1.6648010675	 0.3101916783	 0.290845
H	 0.5482832616	-0.3213666826	-0.8752516974	 0.088342
H	 0.4598142593	-0.5765728531	 0.8786949006	 0.102025
H	-1.996132191	-0.3851658932	 0.8196647267	 0.103142
H	-2.1198185648	 1.1628177713	-1.1202652001	 0.120861
H	-1.6726198377	-0.1705257	-2.2086268438	 0.084766
H	-3.989126491	 0.0953384824	-2.0065580116	 0.293005
H	-0.9879003415	-2.3976189463	-1.2541832696	 0.102042
H	-0.7595396815	-2.6009501132	 0.4839667014	 0.139343
H	-3.495095464	-2.3089571145	-0.5473470232	 0.259809
H	-3.9810163254	-4.1499945467	 0.7054795864	 0.068433
39.6199	71.5659	95.3418	139.471	175.054	219.3731	251.3937	259.1435	273.6329	296.5508	370.7531	397.5055	438.3379	554.2445	641.8051	767.623	861.4309	916.8111	958.2542	998.3529	1033.3837	1055.0171	1074.3066	1094.5502	1111.2017	1154.5642	1226.5439	1233.4227	1236.66	1254.1551	1273.9118	1300.7031	1325.2839	1371.7673	1403.2206	1428.1291	1448.5512	1466.3311	1503.0526	1521.792	1523.7973	1541.198	1798.7496	2930.7205	2958.555	2966.4029	2989.9514	3003.4458	3047.5427	3064.8396	3097.9535	3613.0354	3834.7758	3839.1585
OCC(CO)CNC=O	OCC(CO)CNC=O	
InChI=1S/C5H11NO3/c7-2-5(3-8)1-6-4-9/h4-5,7-8H,1-3H2,(H,6,9)	InChI=1S/C5H11NO3/c7-2-5(3-8)1-6-4-9/h4-5,7-8H,1-3H2,(H,6,9)
