22
gdb 87215	2.99557	0.98239	0.90955	1.7924	82.98	-0.2374	0.0814	0.3189	1424.6817	0.191866	-404.304425	-404.294413	-404.293468	-404.339753	36.788	
C	-0.4121692452	 1.4109733577	 0.6249483369	-0.423925
C	-0.1551897097	-0.0733932739	 0.5800386266	 0.036556
O	 0.8762032762	-0.5418201583	-0.2994551102	-0.306536
C	 1.0392193005	-0.7600195026	 1.1126320327	 0.390345
C	 2.184681309	-0.0312936711	 1.7756471525	-0.462283
C	 0.9091037738	-2.2267827751	 1.498798372	-0.218872
N	 0.6648086974	-2.3785402664	 2.9291862063	-0.063964
C	-0.7296274855	-2.4610661703	 3.3526847937	-0.219289
C	 0.1431625613	-3.6675705303	 3.3641111872	-0.216887
H	 0.5135424701	 1.9872635975	 0.6668434873	 0.128635
H	-0.9612204116	 1.7224888726	-0.2700987007	 0.128663
H	-1.0240996851	 1.6656349385	 1.4972746174	 0.121342
H	-1.0678928311	-0.6729842914	 0.5258835428	 0.075166
H	 2.2151762036	 1.0246085484	 1.504796466	 0.119412
H	 2.1040574281	-0.1256038056	 2.8617041383	 0.140026
H	 3.1349452732	-0.4840958808	 1.4707669123	 0.122512
H	 0.1226678565	-2.6895651928	 0.8780475268	 0.087358
H	 1.8510452238	-2.7390330875	 1.2640416572	 0.106335
H	-0.9767727271	-1.9476044442	 4.2774038998	 0.116888
H	-1.5009711103	-2.4157964134	 2.5853756969	 0.109861
H	-0.0478883239	-4.4234427386	 2.6036460784	 0.110909
H	 0.5461221461	-4.0520463122	 4.2968240699	 0.117747
64.8704	70.4664	136.9624	150.9166	158.5614	233.2029	273.5848	315.4852	355.7366	400.9249	461.4411	478.5076	522.5522	722.1912	766.8139	784.8697	841.7974	897.593	905.3998	971.3524	977.8121	1004.8494	1032.7218	1036.5201	1062.0751	1112.6787	1116.8604	1131.1411	1137.4105	1170.9789	1174.1133	1184.2114	1254.0684	1273.1685	1323.3005	1362.4544	1377.4976	1409.2678	1415.9975	1464.1175	1474.5917	1483.3834	1489.8178	1495.2954	1500.8713	1519.878	1525.4544	2955.8286	3037.9172	3041.0911	3045.7311	3065.4826	3093.371	3097.6156	3098.1115	3110.3702	3134.4799	3148.7716	3176.2108	3190.6104
CC1OC1(C)CN1CC1	C[C@H]1O[C@]1(C)CN1CC1	
InChI=1S/C7H13NO/c1-6-7(2,9-6)5-8-3-4-8/h6H,3-5H2,1-2H3	InChI=1S/C7H13NO/c1-6-7(2,9-6)5-8-3-4-8/h6H,3-5H2,1-2H3/t6-,7-/m1/s1
