18
gdb 127649	3.08078	1.46308	1.05627	3.0611	79.73	-0.2101	0.0313	0.2414	1133.8976	0.149432	-398.116072	-398.107829	-398.106884	-398.149496	30.267	
C	-0.0187526533	 1.3715093628	-0.0053829403	-0.327305
N	 0.0242916332	-0.0730321563	-0.0073522449	-0.01921
N	 0.1018213357	-0.7567479376	-1.1747109957	-0.276851
C	 0.1199047017	-2.0348781855	-0.8130425829	 0.0027
C	 0.0424492438	-2.1962633749	 0.5849589503	-0.321191
C	-0.0238387079	-0.9010044069	 1.0711069005	 0.412856
N	-0.05112304	-0.3640555503	 2.363571668	-0.173319
C	-1.3554423123	-0.0535926069	 2.9764606865	-0.230373
C	-0.5385427929	-1.2029299813	 3.4491945974	-0.220615
H	 0.5123132458	 1.7467380248	 0.8720766012	 0.149781
H	 0.4675063559	 1.722091121	-0.9158151723	 0.155455
H	-1.0485231876	 1.747202953	 0.0149706832	 0.130746
H	 0.1921809856	-2.8016454347	-1.5709106969	 0.106402
H	 0.0602941912	-3.1094777868	 1.1561383226	 0.097799
H	-1.3894009776	 0.8706051895	 3.5445188008	 0.126118
H	-2.2458501501	-0.2824865066	 2.3967684584	 0.130151
H	-0.8963371297	-2.1983837681	 3.1999464228	 0.130113
H	 0.0246596384	-1.1330691451	 4.3746196913	 0.126743
59.8286	109.7348	160.1372	189.3954	195.5696	322.1848	390.5899	516.4883	565.2893	662.4515	709.722	733.685	766.4736	824.8122	879.2681	884.4292	922.1032	946.9378	1029.0633	1042.1337	1069.6359	1113.2327	1137.2472	1152.3588	1161.0718	1175.5121	1192.27	1229.6178	1298.1235	1324.2125	1378.4054	1430.5046	1456.2407	1487.4248	1489.5611	1505.1859	1515.3011	1528.6853	1583.5541	3033.0536	3110.1869	3113.1399	3117.2622	3160.3918	3198.1894	3212.7186	3238.4067	3271.0699
CN1N=CC=C1N1CC1	Cn1nccc1N1CC1	
InChI=1S/C6H9N3/c1-8-6(2-3-7-8)9-4-5-9/h2-3H,4-5H2,1H3	InChI=1S/C6H9N3/c1-8-6(2-3-7-8)9-4-5-9/h2-3H,4-5H2,1H3
