18
gdb 108451	2.34325	1.66822	1.22649	4.2567	72.01	-0.2513	0.0223	0.2736	1058.0365	0.148638	-439.088954	-439.080704	-439.07976	-439.121873	31.28	
O	 0.0069912378	 1.4167749977	-0.0700796579	-0.423067
C	 0.0942153115	 0.0084343534	 0.0613401834	-0.170564
C	-1.2964782631	-0.5865194196	 0.0875063598	 0.1789
C	-2.2077308691	-0.4103115649	 1.3435063707	-0.278111
C	-2.5968774469	-1.9180822585	 1.2841569478	-0.227528
C	-1.7326807107	-2.0951255033	 0.0057182182	-0.056989
N	-2.4069990687	-1.7563286102	-1.2528729108	-0.333804
C	-2.0944726476	-0.4173297622	-1.2155450578	 0.40522
O	-2.3438919874	 0.5169165848	-1.9389094288	-0.386302
H	-0.5601719126	 1.5936341636	-0.8332648355	 0.30066
H	 0.6812806	-0.4432774849	-0.7555919673	 0.092008
H	 0.6290538019	-0.1872985638	 0.9976932924	 0.104014
H	-1.6320727397	-0.1460578859	 2.2333493095	 0.117852
H	-3.0188296723	 0.3118894028	 1.2348411367	 0.120532
H	-2.2165434307	-2.4921255466	 2.1324731068	 0.111781
H	-3.6570681742	-2.1478836948	 1.1569146628	 0.105723
H	-1.0394858744	-2.9345395076	-0.06200624	 0.091029
H	-3.1229424536	-2.24562585	-1.77298286	 0.248647
100.6342	119.9179	142.8462	212.6237	278.6308	326.8667	432.8652	479.6773	492.9448	495.9331	654.5726	730.5186	736.6596	764.9191	840.671	878.7155	909.057	947.6694	959.987	1007.2946	1048.6545	1072.5864	1108.7241	1120.3302	1154.704	1205.3653	1218.6369	1235.9626	1250.8018	1275.7212	1322.9183	1335.4441	1370.9057	1378.1117	1448.8699	1472.9604	1490.6616	1513.2975	1861.8869	2966.0442	3056.8649	3065.6418	3074.2571	3103.5913	3113.6409	3131.0503	3583.665	3750.3912
OCC12CCC1NC2=O	OC[C@]12CC[C@H]1NC2=O	
InChI=1S/C6H9NO2/c8-3-6-2-1-4(6)7-5(6)9/h4,8H,1-3H2,(H,7,9)	InChI=1S/C6H9NO2/c8-3-6-2-1-4(6)7-5(6)9/h4,8H,1-3H2,(H,7,9)/t4-,6-/m1/s1
