18
gdb 36689	5.07805	0.8011	0.75915	2.4906	79.12	-0.2315	0.0361	0.2675	1505.571	0.146119	-401.843268	-401.834576	-401.833632	-401.87751	32.225	
C	-0.0725012515	-1.1707556021	-0.1448262288	-0.415488
C	 0.0395641644	 0.0108469798	 0.0364197717	 0.283147
C	 0.141854195	 1.4444344027	 0.2744095572	-0.213597
O	 1.3397476649	 1.9455030772	-0.2896827569	-0.25145
C	 1.4707211629	 3.3311408239	-0.1387683213	 0.191494
C	 1.8635695321	 3.9451769741	 1.2647078669	-0.269383
C	 3.064541257	 4.5899539786	 0.5657737648	-0.04708
N	 3.8848790637	 3.4597474231	 0.0805096514	-0.316196
C	 2.737136701	 3.9304017566	-0.7329787677	-0.103055
H	-0.1620153239	-2.2160844825	-0.3086981339	 0.199213
H	-0.7332850392	 1.9554350536	-0.1641965541	 0.114898
H	 0.1104696249	 1.6409703893	 1.358770429	 0.123227
H	 0.5813311103	 3.8483798783	-0.5319989552	 0.068456
H	 1.1205464322	 4.6475678328	 1.6469935698	 0.100994
H	 2.1355937063	 3.2191739946	 2.0340703551	 0.11617
H	 3.4965888385	 5.5653531045	 0.7484951503	 0.095793
H	 4.7199810992	 3.8536509895	-0.3530480076	 0.229282
H	 2.8816127621	 4.2658329662	-1.7523929108	 0.093576
51.2324	91.1128	98.1142	189.2296	260.3566	333.9011	371.1151	425.8985	486.8375	607.0905	617.8853	673.8831	683.0572	800.8158	829.3489	855.2497	900.2033	956.2594	961.7979	994.3094	1029.8078	1032.244	1037.7648	1065.3528	1097.6225	1130.8243	1150.0817	1168.9966	1214.2823	1253.9351	1257.6522	1297.4189	1335.7761	1365.5724	1387.2576	1434.6801	1468.4758	1500.3024	2248.8403	2949.5622	2974.7701	2980.2085	3070.0884	3132.14	3188.3211	3202.8324	3469.3894	3506.8159
C#CCOC1CC2NC12	C#CCO[C@H]1C[C@H]2N[C@@H]12	
InChI=1S/C7H9NO/c1-2-3-9-6-4-5-7(6)8-5/h1,5-8H,3-4H2	InChI=1S/C7H9NO/c1-2-3-9-6-4-5-7(6)8-5/h1,5-8H,3-4H2/t5-,6+,7-/m1/s1
