17
gdb 19267	2.93268	2.03787	1.47081	3.6852	68.98	-0.2314	0.0176	0.249	903.697	0.142276	-363.856474	-363.848793	-363.847849	-363.888923	28.353	
C	-0.2682469811	 1.5304707943	 0.2569040929	-0.385474
C	-0.0774816527	 0.0444298925	-0.0663504437	-0.15964
N	-1.282567468	-0.7597304428	 0.0119589851	-0.091221
C	-2.2652691482	-0.8950894999	 1.0913453903	-0.00685
C	-3.4181191632	 0.0477973091	 0.9098144848	-0.288789
C	-3.3281529561	-1.2202505225	 0.0617531445	-0.220772
C	-2.2269297268	-1.0143692346	-0.9820839398	 0.413039
O	-2.1410900681	-1.0258369042	-2.1801505757	-0.367672
H	 0.6912628599	 2.0536766601	 0.1957007069	 0.120584
H	-0.957511968	 2.0020368517	-0.4501843475	 0.130294
H	-0.66217031	 1.6707186613	 1.2682548735	 0.123486
H	 0.2914467064	-0.0778835045	-1.0895535552	 0.139461
H	 0.6783258398	-0.3880887958	 0.6004781715	 0.109361
H	-2.027984393	-1.431338494	 2.000904808	 0.114054
H	-4.189226658	 0.0262403493	 1.6756266972	 0.124008
H	-3.2601877434	 1.0198649228	 0.4536539089	 0.127733
H	-4.0816062594	-1.9938010129	 0.0772541483	 0.118399
53.6574	123.9665	193.7759	221.3214	283.4915	347.5747	457.7775	533.7497	684.4732	705.2858	751.9405	783.9818	826.1103	850.062	916.3066	944.9462	973.0109	984.6231	1043.4956	1049.1047	1076.1319	1093.5238	1117.8793	1184.8228	1222.3089	1245.4902	1286.9988	1336.9709	1379.35	1395.0242	1406.5732	1478.1352	1482.9256	1493.1892	1503.2719	1879.0382	3031.5187	3037.7737	3086.4333	3110.4121	3117.1542	3118.3712	3199.5263	3207.6745	3232.685
CCN1C2CC2C1=O	CCN1[C@H]2C[C@H]2C1=O	
InChI=1S/C6H9NO/c1-2-7-5-3-4(5)6(7)8/h4-5H,2-3H2,1H3	InChI=1S/C6H9NO/c1-2-7-5-3-4(5)6(7)8/h4-5H,2-3H2,1H3/t4-,5+/m1/s1
