14
gdb 25942	2.97919	1.65201	1.06449	1.5915	65.09	-0.2299	0.0008	0.2307	1034.3482	0.102605	-470.069588	-470.062106	-470.061162	-470.101705	28.549	
N	-0.0334398178	 1.334878605	 0.1393604148	-0.571355
C	 0.0875157414	-0.0174921064	 0.0069587917	 0.448857
N	 1.131844956	-0.7429996824	-0.0968609021	-0.55744
N	-1.1594549847	-0.6997197978	 0.0357977756	-0.192021
C	-1.2827032892	-2.0961479893	 0.0425068727	-0.082405
C	-2.5897423728	-2.3604439143	 0.0401347543	-0.056492
O	-3.3115334175	-1.1800998162	 0.0267008635	-0.210099
C	-2.4282342317	-0.1376482959	 0.0191356835	 0.532091
O	-2.7570538557	 1.0252360707	-0.0021935944	-0.424662
H	 0.7704342803	 1.8923305192	-0.0909792477	 0.2571
H	-0.9555717772	 1.743900525	 0.0386554298	 0.290678
H	 1.9764497873	-0.1759738394	-0.0889950855	 0.214336
H	-0.4082873256	-2.7199728402	 0.0473522529	 0.188461
H	-3.1590574729	-3.2722922481	 0.0482590809	 0.162951
84.7819	140.5349	266.748	269.7926	357.3569	421.1424	446.9928	561.1335	583.3685	613.1763	652.014	710.7202	719.7742	775.3291	786.9179	795.8077	836.285	912.6234	1028.509	1087.0391	1120.4498	1127.5471	1138.0935	1231.7506	1276.34	1392.55	1457.135	1631.3586	1663.1401	1735.8033	1848.0488	3304.7581	3331.5916	3505.9884	3519.5334	3704.4232
NC(=N)N1C=COC1=O	NC(=N)n1ccoc1=O	
InChI=1S/C4H5N3O2/c5-3(6)7-1-2-9-4(7)8/h1-2H,(H3,5,6)	InChI=1S/C4H5N3O2/c5-3(6)7-1-2-9-4(7)8/h1-2H,(H3,5,6)
