14
gdb 11214	3.5766	1.78509	1.41457	5.1737	58.04	-0.2543	-0.0429	0.2115	863.5762	0.108671	-415.91262	-415.905528	-415.904584	-415.944375	25.62	
O	 0.0992689787	-0.1254031015	 0.054252917	-0.234531
C	 0.0466161275	 1.0682536363	 0.1802645732	 0.162705
C	 1.2492984388	 1.9924205029	 0.0053371381	-0.08001
C	 1.4910890678	 2.8992335271	 1.2411078432	-0.187481
N	 2.4619410567	 2.1097736559	 1.9725213043	-0.33428
C	 3.1480348633	 1.2356292565	 1.1381207452	 0.43796
O	 4.1121771779	 0.5698005301	 1.4249292607	-0.394362
N	 2.5034352115	 1.2804766838	-0.1062235215	-0.332711
H	-0.9101657599	 1.5941818965	 0.4045586809	 0.085325
H	 1.0373240728	 2.6109140006	-0.8785409645	 0.115032
H	 1.8819916599	 3.8763918234	 0.9273609081	 0.12059
H	 0.572687398	 3.0666587372	 1.8144735759	 0.120847
H	 2.9642875226	 2.4904065363	 2.7581589175	 0.258285
H	 2.4947933042	 0.403110465	-0.6080205482	 0.262631
84.2216	128.8155	185.7521	273.1282	347.366	471.4747	514.8465	557.6679	671.5223	717.086	735.2605	775.7502	848.0774	936.5559	966.4638	994.7548	1077.7389	1103.7883	1153.8174	1215.637	1243.8888	1274.7224	1344.3325	1375.9482	1401.506	1418.0196	1442.7317	1531.1953	1838.9829	1864.441	2869.1493	3001.6506	3015.843	3058.59	3609.5183	3650.7522
O=CC1CNC(=O)N1	O=C[C@H]1CNC(=O)N1	
InChI=1S/C4H6N2O2/c7-2-3-1-5-4(8)6-3/h2-3H,1H2,(H2,5,6,8)	InChI=1S/C4H6N2O2/c7-2-3-1-5-4(8)6-3/h2-3H,1H2,(H2,5,6,8)/t3-/m1/s1
