16
gdb 72368	2.51894	1.76018	1.45233	1.8282	68.72	-0.2459	-0.0428	0.2031	950.4898	0.123909	-437.908364	-437.90063	-437.899686	-437.940838	28.994	
C	-0.2898665157	 1.4515490248	-0.0529613413	-0.468074
C	 0.0162169079	-0.025453474	-0.0262633262	 0.281621
O	-1.2033002971	-0.7983136702	-0.146683354	-0.251445
C	-1.1240382376	-1.7610545111	 0.8092424084	 0.104915
N	-0.119719585	-1.8155636379	 1.5826885736	-0.258677
C	 0.7751618134	-0.7366012311	 1.1544387908	-0.070447
C	 1.9037129366	-1.2074011619	 0.1907895116	-0.354123
C	 1.1348740527	-0.5578004599	-0.9764696557	 0.357406
O	 1.3259929977	-0.4558273612	-2.1502023029	-0.281853
H	 0.6271738571	 2.034205262	 0.077871976	 0.128889
H	-0.7350733076	 1.7293471017	-1.0124713982	 0.150893
H	-0.9867754264	 1.7126822375	 0.7489866387	 0.134757
H	-1.9772725298	-2.4296709196	 0.8353498555	 0.148208
H	 1.1002158816	-0.1305791993	 2.0017029349	 0.09266
H	 2.8867276306	-0.7552436539	 0.3568393021	 0.138272
H	 2.0217720017	-2.2922068858	 0.1202362565	 0.146998
61.5919	171.9342	197.1034	244.4446	285.2663	324.6867	470.8689	503.8321	558.6344	612.4452	670.3697	774.2725	801.3691	835.184	895.4698	921.3574	956.6239	973.8488	1025.1044	1041.0347	1111.6376	1125.0884	1145.5232	1176.8225	1192.528	1224.0231	1295.8976	1307.8582	1333.1084	1406.7734	1425.1558	1479.1729	1487.6261	1684.3075	1898.026	3041.3474	3058.2465	3097.9162	3115.5276	3116.8902	3122.2184	3218.6801
CC12OC=NC1CC2=O	C[C@]12OC=N[C@H]1CC2=O	
InChI=1S/C6H7NO2/c1-6-4(2-5(6)8)7-3-9-6/h3-4H,2H2,1H3	InChI=1S/C6H7NO2/c1-6-4(2-5(6)8)7-3-9-6/h3-4H,2H2,1H3/t4-,6-/m0/s1
