23
gdb 41351	2.61461	1.78855	1.60783	0.0868	87.86	-0.2533	0.078	0.3313	997.2621	0.210895	-351.142178	-351.135245	-351.134301	-351.172882	30.664	
C	 0.0138437338	 1.5422693243	 0.2689321726	-0.294307
C	 1.5483406296	 1.4451310361	-0.0719603093	-0.331753
C	 1.1862053482	 0.2128249949	-0.9470595633	 0.374545
C	 0.5844936111	 0.6248153105	-2.3293525572	-0.250055
C	-0.825244873	-0.0420795171	-2.3534907035	-0.208749
C	-0.8054755173	-0.8796803073	-1.0656507303	-0.061634
C	 0.3106181216	-1.980024349	-1.2300609526	-0.203715
C	 1.7007515112	-1.2194975763	-1.0868291366	-0.320618
C	-0.0608188434	 0.019689181	-0.0721353028	 0.055912
H	-0.2567849716	 1.829136991	 1.2871261189	 0.093802
H	-0.5241553415	 2.1871015726	-0.4291362192	 0.106899
H	 2.0231495182	 2.3005497953	-0.5600059893	 0.091201
H	 2.1296784798	 1.174800208	 0.8148141912	 0.098215
H	 0.5155118561	 1.7100972981	-2.4368027563	 0.093632
H	 1.2241072065	 0.2704762065	-3.1428006836	 0.092512
H	-1.6212844013	 0.7091045006	-2.3210666342	 0.090861
H	-0.9942210493	-0.6542637037	-3.2446997972	 0.089457
H	-1.7725518943	-1.3001404214	-0.779690824	 0.050305
H	 0.2118882192	-2.7441161594	-0.4536759541	 0.096886
H	 0.2185934475	-2.4884937827	-2.1944199374	 0.094153
H	 2.3540719016	-1.3924717961	-1.9478998053	 0.087668
H	 2.2328879131	-1.5532095887	-0.190664193	 0.090517
H	 0.1882694643	-0.5366185573	 0.8391062466	 0.064265
177.3665	281.4131	312.5121	337.1392	396.8791	441.1383	548.2693	589.6961	644.0204	725.9211	775.0227	802.9852	815.1569	827.6268	854.3457	874.0893	893.608	910.2866	917.9088	960.7568	977.8279	1006.6573	1026.1326	1051.5978	1072.3523	1079.7224	1111.8949	1135.7949	1163.3357	1195.164	1199.181	1216.0318	1227.2279	1236.4505	1248.2876	1278.0912	1280.1913	1290.0155	1301.93	1324.4904	1337.1527	1338.0388	1390.1864	1481.3018	1484.5761	1491.6526	1500.42	1504.3334	1524.5572	3031.9511	3039.8913	3040.5624	3049.4317	3053.5982	3057.1975	3071.6338	3075.8303	3078.8551	3084.9497	3096.9093	3100.7916	3102.9439	3126.7373
C1CC23CCC(CC2)C13	C1C[C@@]23CC[C@@H](CC2)[C@H]13	
InChI=1S/C9H14/c1-4-9-5-2-7(1)8(9)3-6-9/h7-8H,1-6H2	InChI=1S/C9H14/c1-4-9-5-2-7(1)8(9)3-6-9/h7-8H,1-6H2/t7-,8-,9+/m0/s1
