21
gdb 6372	4.36301	0.95609	0.93389	3.3235	76.93	-0.2395	0.0384	0.2779	1394.9958	0.186699	-366.315288	-366.304958	-366.304014	-366.352289	36.156	
C	 0.1312765365	 1.494614376	 0.2075815454	-0.366047
C	-0.0041720006	-0.0218657735	 0.0638706041	-0.299646
C	-1.4640555359	-0.457023791	-0.0715406881	 0.424088
O	-2.3065319594	 0.2488999503	-0.6002811615	-0.38047
N	-1.7407801669	-1.6985662009	 0.4248400212	-0.322997
C	-3.0518124493	-2.3330421606	 0.3238194602	 0.05463
C	-3.0281075781	-3.4909930951	-0.6820905528	-0.38071
C	-3.5364382353	-2.7818346579	 1.7063359598	-0.38576
H	 1.1814620241	 1.797564702	 0.1724092708	 0.106443
H	-0.4115231029	 1.9935091833	-0.5975393692	 0.145753
H	-0.2919303833	 1.8400312091	 1.1557286245	 0.120158
H	 0.5138795243	-0.3569628084	-0.8447185258	 0.126768
H	 0.4752877072	-0.5424244112	 0.9014035457	 0.09483
H	-0.9883918011	-2.2327963463	 0.8305731022	 0.234983
H	-3.7097703043	-1.5464203723	-0.0544627613	 0.126325
H	-2.3406702633	-4.2815596388	-0.3573379145	 0.105019
H	-4.0228937158	-3.9364795602	-0.7834072707	 0.118008
H	-2.7061836917	-3.1418090709	-1.6669177197	 0.127557
H	-4.536980792	-3.2202845293	 1.6409545193	 0.120072
H	-2.8700247907	-3.542943562	 2.1310962312	 0.10605
H	-3.5743861814	-1.9371408123	 2.3995725694	 0.124945
17.6144	38.3635	83.0634	160.8794	202.8142	230.1188	255.4562	287.1054	302.7221	413.79	435.4984	463.1589	471.4712	592.9366	694.6012	808.1661	845.4423	900.9226	930.8476	947.9876	964.6423	1029.711	1088.5676	1096.2108	1146.7873	1179.6728	1192.5608	1228.6113	1287.9982	1350.0996	1366.6575	1387.2717	1398.5625	1407.6404	1417.5228	1465.4894	1484.0597	1488.8914	1492.6617	1495.6858	1505.4191	1506.0237	1536.6516	1771.5257	3022.2735	3024.9207	3029.1076	3047.5975	3059.1545	3081.6543	3091.0957	3108.8733	3113.2196	3116.7816	3119.6099	3140.0446	3624.9999
CCC(=O)NC(C)C	CCC(=O)NC(C)C	
InChI=1S/C6H13NO/c1-4-6(8)7-5(2)3/h5H,4H2,1-3H3,(H,7,8)	InChI=1S/C6H13NO/c1-4-6(8)7-5(2)3/h5H,4H2,1-3H3,(H,7,8)
