13
gdb 132202	2.01706	1.80601	0.95354	5.1597	64.95	-0.2302	-0.0194	0.2108	1104.8035	0.089229	-497.898622	-497.891214	-497.89027	-497.930522	28.198	
N	 0.1380190645	 1.3382058835	 0.1797366449	-0.56678
C	-0.0364676343	-0.0171905122	 0.0636996816	 0.457649
C	-1.1994531397	-0.7041712247	 0.0272749324	-0.364279
C	-1.2241940654	-2.1627577838	-0.0151751043	 0.416849
O	-2.2500738376	-2.8268759758	-0.0451765451	-0.387967
C	 0.1186117262	-2.7720598233	-0.0266098983	-0.473051
C	 1.1951212853	-1.9859915388	-0.0001454299	 0.399989
F	 2.4415692412	-2.3991296548	-0.0156226001	-0.03792
O	 1.1801087127	-0.6410908334	 0.0453106882	-0.230992
H	 1.0136801404	 1.6936087314	-0.1748292867	 0.269523
H	-0.6635700884	 1.9001111158	-0.0595227377	 0.273147
H	-2.1423485535	-0.1726251102	 0.0352781752	 0.108553
H	 0.2255058186	-3.8469906137	-0.0618491502	 0.135279
162.2926	182.8275	198.996	301.3957	337.6565	368.8843	496.7085	504.4661	534.9187	580.1608	628.0035	645.6088	680.7424	722.2179	836.4341	864.007	934.6654	946.0949	1037.3339	1121.2037	1207.6249	1245.1917	1286.2724	1388.8695	1423.8783	1624.9134	1672.9479	1743.6097	1752.6236	3216.8521	3240.3048	3583.1121	3696.2279
NC1=CC(=O)C=C(F)O1	Nc1cc(=O)cc(F)o1	
InChI=1S/C5H4FNO2/c6-4-1-3(8)2-5(7)9-4/h1-2H,7H2	InChI=1S/C5H4FNO2/c6-4-1-3(8)2-5(7)9-4/h1-2H,7H2
