19
gdb 31032	2.52307	1.23583	0.87965	1.898	80.88	-0.1752	0.0435	0.2188	1347.0897	0.159481	-419.239275	-419.229618	-419.228674	-419.273853	35.694	
C	 0.0797947593	 1.5776120659	 0.4090696681	-0.364208
C	-0.0073465073	 0.1371683078	-0.1225214029	-0.303575
C	-1.3899367044	-0.4369974604	-0.0547294186	 0.301301
C	-2.1678477971	-0.781266967	-1.1127782227	 0.153354
N	-1.943100796	-0.7349391448	-2.4880521737	-0.597591
O	-3.395295871	-1.2692967509	-0.6504150176	-0.202524
C	-3.3510858162	-1.2201261299	 0.6991021918	 0.377772
N	-4.5234581097	-1.5942195073	 1.3460740337	-0.594761
C	-2.1584657005	-0.7260985886	 1.1328203893	-0.389447
H	 1.1058185249	 1.9550297894	 0.3497970989	 0.106311
H	-0.5636206468	 2.2459150794	-0.1716352094	 0.117589
H	-0.2404127861	 1.6365483483	 1.4543858251	 0.113957
H	 0.3275271384	 0.1068465554	-1.1640277705	 0.114634
H	 0.6829319162	-0.4958962967	 0.4511024302	 0.096969
H	-1.9668972335	-1.6529773817	-2.9220685176	 0.238688
H	-2.6121183997	-0.1453858552	-2.9740588015	 0.240654
H	-5.004646174	-2.3479090825	 0.8708455028	 0.251065
H	-4.3692329859	-1.83009853	 2.3168647589	 0.252098
H	-1.8548532005	-0.5855027512	 2.1584600256	 0.087714
53.4593	125.5183	178.186	187.6212	210.6303	226.3431	284.1585	288.5001	315.262	415.4632	521.0936	582.2378	654.0487	658.6269	681.8062	723.0538	756.2913	770.6378	798.2194	816.1058	965.3027	1015.8486	1034.4834	1076.3093	1096.5798	1107.2396	1197.6191	1212.3171	1234.1248	1308.2683	1344.1859	1373.0987	1406.7813	1456.7593	1483.1346	1496.0918	1506.3667	1613.5819	1650.3897	1668.7417	1714.8409	3015.496	3033.3566	3077.1833	3103.545	3109.0773	3249.3186	3483.1917	3539.1829	3543.9117	3640.6705
CCC1=C(N)OC(N)=C1	CCc1c(N)oc(N)c1	
InChI=1S/C6H10N2O/c1-2-4-3-5(7)9-6(4)8/h3H,2,7-8H2,1H3	InChI=1S/C6H10N2O/c1-2-4-3-5(7)9-6(4)8/h3H,2,7-8H2,1H3
