21
gdb 111005	2.50729	1.39431	1.10889	1.3954	77.94	-0.2369	0.0599	0.2967	1194.5137	0.182629	-424.202194	-424.193491	-424.192546	-424.235395	34.073	
C	-0.108561202	 1.5735245942	-0.0382322557	-0.383064
C	-0.1651247204	 0.0421152266	-0.0949940941	-0.222926
C	 0.666076112	-0.5302346434	-1.2387123819	 0.009088
C	 2.2120506273	-0.6536705468	-1.0942419394	 0.08856
C	 1.9963424575	-1.9495337192	-0.2796254816	-0.320137
C	 0.8272648136	-2.0814166788	-1.3174682527	 0.340559
O	-0.2952712087	-2.8842415137	-1.1561603756	-0.485417
C	 1.6473248967	-2.1899519947	-2.6182220228	-0.136107
O	 2.6154190612	-1.146300954	-2.3901975858	-0.277837
H	 0.9111525609	 1.9314705835	 0.1404055762	 0.115686
H	-0.4529486737	 2.0175767507	-0.9785672942	 0.117337
H	-0.7425575131	 1.9612060965	 0.7650859093	 0.112872
H	 0.1465757624	-0.3685052488	 0.8707827976	 0.097541
H	-1.20333993	-0.2824807758	-0.2354488801	 0.112925
H	 0.3626177615	-0.0608716278	-2.181793673	 0.070833
H	 2.8668917698	 0.1590270242	-0.7879034453	 0.082622
H	 2.8027164736	-2.686856682	-0.3073620057	 0.094072
H	 1.6474592084	-1.791138439	 0.7393418511	 0.10997
H	-0.0244988309	-3.8082882293	-1.1924209971	 0.283629
H	 2.1500040216	-3.1595940538	-2.7374265946	 0.086987
H	 1.0514587722	-1.9820558484	-3.5147066846	 0.102807
74.5851	140.3093	210.0449	229.86	269.9519	282.8681	348.2557	389.9182	455.8252	494.618	536.0757	610.7779	663.5433	760.052	832.6721	856.6355	885.6699	911.9075	942.8103	962.3266	987.3698	1010.015	1043.645	1067.3552	1086.9144	1103.2865	1131.8585	1157.0749	1173.1287	1187.7068	1228.9933	1237.2883	1265.7319	1290.3816	1300.2934	1336.1904	1350.0753	1380.1577	1412.9005	1417.1134	1481.4899	1495.3148	1500.9078	1509.5288	1530.0212	3004.4323	3031.5936	3035.9236	3038.1462	3055.6049	3069.077	3075.5644	3101.2513	3104.6237	3147.8175	3156.0644	3801.2691
CCC1C2CC1(O)CO2	CC[C@H]1[C@H]2C[C@]1(O)CO2	
InChI=1S/C7H12O2/c1-2-5-6-3-7(5,8)4-9-6/h5-6,8H,2-4H2,1H3	InChI=1S/C7H12O2/c1-2-5-6-3-7(5,8)4-9-6/h5-6,8H,2-4H2,1H3/t5-,6+,7-/m0/s1
