15
gdb 29351	2.00268	1.91786	0.98302	5.6971	76.53	-0.1844	0.0119	0.1963	1124.2285	0.114769	-413.039023	-413.030261	-413.029317	-413.072091	32.586	
N	 0.0513292007	 1.3928463069	 0.1425478246	-0.614924
C	 0.0008828134	 0.0007726779	 0.0562500801	 0.167686
C	-1.0958159627	-0.8174824906	 0.0298833544	-0.169076
N	-0.6373436535	-2.1418986831	 0.0071298818	-0.300373
C	 0.7144907246	-2.1721300829	 0.0247131298	 0.256023
N	 1.4270178479	-3.3633654695	 0.0918567483	-0.610354
C	 1.1656910593	-0.8530709922	 0.0432807745	 0.085702
C	 2.5135395931	-0.4526363346	 0.0068761922	 0.160808
N	 3.6270750802	-0.1232342182	-0.034276534	-0.383538
H	 0.8976192106	 1.7840483538	-0.2501567934	 0.256757
H	-0.7592450157	 1.8542805842	-0.2464436831	 0.24505
H	-2.1487918019	-0.5955178143	 0.0135170645	 0.116151
H	-1.2189550193	-2.9525671283	 0.1277175409	 0.265346
H	 1.1900985142	-4.0267313472	-0.6367233973	 0.254034
H	 2.4261000891	-3.1999116919	 0.0921980167	 0.270707
114.7257	136.6416	199.4946	205.1763	239.0841	283.9643	305.2719	416.2711	448.6341	535.8006	544.6121	587.6854	600.9394	631.3788	673.086	694.8329	728.8288	771.7724	790.2831	1040.4351	1070.3796	1131.8333	1154.6077	1253.7024	1306.6717	1357.3371	1446.181	1544.4226	1597.4159	1632.5083	1659.2555	1665.0209	2315.5241	3280.7949	3524.9163	3545.9274	3619.2008	3640.0246	3683.3309
NC1=CNC(N)=C1C#N	Nc1c[nH]c(N)c1C#N	
InChI=1S/C5H6N4/c6-1-3-4(7)2-9-5(3)8/h2,9H,7-8H2	InChI=1S/C5H6N4/c6-1-3-4(7)2-9-5(3)8/h2,9H,7-8H2
