17
gdb 26990	3.19164	1.17843	0.88864	2.978	80.71	-0.2116	0.0338	0.2454	1278.8494	0.135788	-380.884391	-380.875435	-380.874491	-380.919081	32.425	
C	-0.790910965	 1.4567808942	 0.4211439962	-0.492532
C	-0.281598276	 0.0829477049	 0.1248907309	 0.194623
C	 0.2401128545	-0.4090751775	-1.0484767735	 0.250382
C	 0.4473746376	 0.2055809468	-2.4057408588	-0.472103
C	 1.5440375661	-0.407379764	-3.1526432955	 0.284947
C	 2.4295497479	-0.952779346	-3.75568948	-0.440017
N	 0.5355362371	-1.7317016898	-0.7898197266	-0.292727
C	 0.2000441909	-1.9751138435	 0.5060821305	 0.000678
N	-0.2998032426	-0.9093342468	 1.0854693177	-0.311603
H	-0.5172350159	 2.1675209293	-0.3644146731	 0.110833
H	-1.8831693378	 1.469551129	 0.5147631203	 0.131832
H	-0.3828389985	 1.8203656538	 1.3691774026	 0.137438
H	-0.4691173203	 0.1335847227	-3.010278465	 0.149229
H	 0.6379169596	 1.2785765992	-2.2855414559	 0.152682
H	 3.2224645732	-1.4051339694	-4.2985153239	 0.202977
H	 0.996907631	-2.3535377846	-1.4341568913	 0.266883
H	 0.347650518	-2.9395645583	 0.9688757656	 0.126478
33.0324	79.9014	116.4591	220.8537	235.5636	280.5355	330.0938	380.7811	493.877	544.013	625.4891	639.8676	657.9382	668.515	695.865	773.8072	807.7756	940.6438	953.9289	965.1098	983.1619	1062.1607	1103.1731	1148.8959	1220.1699	1258.2122	1287.328	1331.4118	1380.7216	1415.4182	1461.558	1471.336	1475.2355	1493.3165	1522.8922	1628.9213	2237.0676	2993.8048	3030.8746	3051.7941	3086.6239	3110.9018	3249.9216	3503.9794	3651.0107
CC1=C(CC#C)NC=N1	Cc1c(CC#C)[nH]cn1	
InChI=1S/C7H8N2/c1-3-4-7-6(2)8-5-9-7/h1,5H,4H2,2H3,(H,8,9)	InChI=1S/C7H8N2/c1-3-4-7-6(2)8-5-9-7/h1,5H,4H2,2H3,(H,8,9)
