17
gdb 93595	4.87975	0.99451	0.85467	5.9843	76.32	-0.275	-0.045	0.23	1320.0559	0.136992	-418.035197	-418.026827	-418.025883	-418.068307	30.666	
C	-0.0356571208	 1.5426064611	-0.0202905577	-0.411567
C	 0.024165736	 0.014609727	-0.0033877071	-0.024503
C	 0.7448224531	-0.5304530011	-1.2329680702	-0.081436
O	 0.8360998236	-1.9669252279	-1.2006954205	-0.257017
C	 1.0531246698	-2.5040990119	 0.0216450814	 0.289577
N	 1.0558183981	-1.9545968875	 1.1619761119	-0.303941
C	 0.7376499927	-0.5327657386	 1.240028115	-0.166388
C	 1.3094743112	-3.9271148976	-0.0837073982	 0.295768
N	 1.5122278837	-5.0611978218	-0.1666512166	-0.318977
H	 0.9703024175	 1.9770309909	-0.040045792	 0.124136
H	-0.5789564355	 1.9120567542	-0.8959499051	 0.124266
H	-0.5441296353	 1.9217637268	 0.8713817428	 0.129867
H	-0.9975924995	-0.3863666646	-0.0150663854	 0.099898
H	 0.2190455156	-0.2958723181	-2.1609939097	 0.130571
H	 1.7628681075	-0.1235934608	-1.298182176	 0.120478
H	 1.6745377634	 0.0147546644	 1.41677152	 0.122803
H	 0.1258710189	-0.3796045445	 2.1357475575	 0.126467
78.7288	157.3772	172.7188	210.8866	213.3188	293.7165	398.8787	419.771	433.6119	491.6735	595.2227	640.2769	724.1417	804.2403	887.8075	903.0371	943.387	967.6374	1031.4152	1056.2488	1135.7787	1160.7844	1181.4266	1230.3487	1241.7373	1299.767	1328.253	1360.9358	1376.2661	1410.405	1424.5972	1478.2166	1497.9213	1498.9964	1509.9782	1726.0814	2368.1377	3010.9768	3018.7737	3029.9993	3036.3377	3064.5562	3099.3148	3108.3036	3110.7456
CC1COC(=NC1)C#N	C[C@H]1COC(=NC1)C#N	
InChI=1S/C6H8N2O/c1-5-3-8-6(2-7)9-4-5/h5H,3-4H2,1H3	InChI=1S/C6H8N2O/c1-5-3-8-6(2-7)9-4-5/h5H,3-4H2,1H3/t5-/m1/s1
