21
gdb 58206	2.69706	1.07605	0.80885	1.3969	79.89	-0.2558	0.017	0.2728	1421.9139	0.18182	-420.420817	-420.41043	-420.409485	-420.456088	38.417	
C	 0.0710024856	 1.5724088964	-0.106431508	-0.398695
C	 0.0058998101	 0.0565948051	 0.0657072798	 0.15021
O	 0.6946121664	-0.2273999581	 1.26799683	-0.450652
C	-1.4471075834	-0.4950555027	 0.0761955841	 0.000745
C	-2.2618421733	-0.0007569525	-1.1282580248	-0.426865
C	-1.4413270934	-2.0504129599	 0.1096296162	-0.132005
N	-0.7399751857	-2.5827997514	 1.2923512413	-0.514414
C	-2.8084387914	-2.6059040486	 0.0173439848	 0.264033
N	-3.8665270515	-3.0722954359	-0.000482834	-0.327033
H	 1.1064779096	 1.8916090374	 0.035946113	 0.129161
H	-0.2559854681	 1.8928168551	-1.0979190033	 0.113398
H	-0.5418673902	 2.0742663278	 0.6498911997	 0.118364
H	 0.5222664999	-0.4115846321	-0.7952795721	 0.053345
H	 0.5690594683	-1.1746013799	 1.4417216198	 0.286899
H	-1.9221261558	-0.1440192456	 1.0025006001	 0.090351
H	-3.2561350031	-0.4537778992	-1.1536657779	 0.146076
H	-2.3936569197	 1.0817892403	-1.090378211	 0.132105
H	-1.7582316019	-0.2447094492	-2.071398752	 0.119611
H	-0.8915578647	-2.3986894694	-0.7742102409	 0.135999
H	-1.2839362741	-2.3905923932	 2.1297244787	 0.255743
H	-0.6527425736	-3.5923743943	 1.2244565766	 0.253625
59.0285	85.0949	146.6264	205.1928	224.7117	240.2415	271.7455	279.5477	343.1269	358.4156	376.1499	385.2771	486.2195	510.3308	573.4755	607.1052	706.6846	827.3375	844.0277	907.4895	946.1387	973.1114	986.2331	1053.1946	1068.3373	1095.0951	1117.6414	1157.2375	1166.4625	1220.5501	1275.4256	1315.707	1332.6927	1358.5087	1377.3007	1391.2051	1402.4782	1419.4946	1471.3593	1487.5553	1498.0213	1502.198	1513.4526	1655.2275	2344.4195	2902.763	3019.2945	3035.8455	3042.0184	3044.4594	3110.2314	3116.5297	3130.573	3139.1472	3492.1751	3572.4407	3637.5538
CC(O)C(C)C(N)C#N	C[C@@H](O)[C@@H](C)[C@@H](N)C#N	
InChI=1S/C6H12N2O/c1-4(5(2)9)6(8)3-7/h4-6,9H,8H2,1-2H3	InChI=1S/C6H12N2O/c1-4(5(2)9)6(8)3-7/h4-6,9H,8H2,1-2H3/t4-,5-,6+/m1/s1
