15
gdb 27641	3.22148	1.21201	0.88554	5.4437	76.95	-0.2061	0.0104	0.2166	1244.2146	0.113442	-416.87399	-416.8655	-416.864556	-416.907088	31.15	
C	-0.0593465425	 1.5082225819	 0.0681309164	-0.50226
C	-0.0080251514	 0.0228356266	-0.0489621176	 0.330258
C	-0.0362164589	-0.8017205655	-1.1364917856	-0.348271
C	 0.0423542444	-2.1631333791	-0.6690324435	 0.055442
C	 0.0495526337	-3.3741794501	-1.3882493528	 0.166067
N	 0.0593653417	-4.4013273558	-1.9297315878	-0.377189
C	 0.1160982785	-2.094434187	 0.7135394115	 0.329896
O	 0.2051945542	-3.042400153	 1.6603465511	-0.420767
N	 0.0860289021	-0.7911578363	 1.0817749139	-0.359861
H	 0.836968378	 1.9162602089	 0.5517743837	 0.132199
H	-0.1298548541	 1.9521565053	-0.9270206693	 0.145975
H	-0.9277430726	 1.8479058709	 0.6463228668	 0.132257
H	-0.1051320872	-0.4940252366	-2.1675374342	 0.117025
H	 0.2147129338	-3.9060326335	 1.2283531814	 0.32591
H	 0.1267567305	-0.4775985668	 2.037130806	 0.273318
119.3202	120.8736	142.1685	214.0763	270.0633	316.0634	359.8343	423.236	480.1219	510.9281	531.7487	592.919	638.5176	658.7353	706.5853	799.7805	801.7939	988.9531	1017.5355	1065.497	1158.3959	1169.5108	1215.1665	1261.9683	1366.4036	1396.0913	1421.3235	1477.8195	1494.5441	1567.0023	1599.0621	1645.9958	2323.1611	3018.3314	3063.1827	3128.5628	3265.3926	3670.4442	3794.2221
CC1=CC(C#N)=C(O)N1	Cc1cc(C#N)c(O)[nH]1	
InChI=1S/C6H6N2O/c1-4-2-5(3-7)6(9)8-4/h2,8-9H,1H3	InChI=1S/C6H6N2O/c1-4-2-5(3-7)6(9)8-4/h2,8-9H,1H3
