12
gdb 23997	5.21956	0.9607	0.81136	1.6439	80.42	-0.2586	-0.07	0.1887	1269.9293	0.080252	-394.599843	-394.592594	-394.591649	-394.631919	26.353	
N	 0.1722316518	-1.1201557008	-0.0048489395	-0.327989
C	 0.056617077	 0.0326208951	 0.0027997343	 0.208452
C	-0.0733198552	 1.4393632396	 0.0116075438	 0.223667
C	-1.2116422542	 2.2369188641	 0.0315408905	-0.209518
C	-0.7866759877	 3.5761267207	 0.0322505224	-0.209519
C	 0.6032440417	 3.5714477601	 0.0127096661	 0.22368
N	 1.0216365422	 2.2653094207	 0.0003515421	-0.37108
C	 1.5204876874	 4.6459206302	 0.0051851943	 0.208441
N	 2.2794148961	 5.5213127291	-0.0011078367	-0.327986
H	-2.2256839433	 1.8715062365	 0.0439520134	 0.141818
H	-1.4044962905	 4.4593517606	 0.0453235003	 0.141816
H	 1.9816550049	 1.9606797439	-0.0146280612	 0.298217
118.3132	119.5294	203.9904	205.9786	475.724	501.0117	509.2701	533.3521	542.5927	597.8855	640.9494	667.0695	692.5538	816.4658	888.6313	996.1814	1010.0799	1076.1469	1200.0727	1272.1162	1315.3196	1409.4856	1452.1709	1490.4861	1591.7455	2342.242	2344.7299	3267.165	3280.5625	3664.5628
N#CC1=CC=C(N1)C#N	N#Cc1ccc([nH]1)C#N	
InChI=1S/C6H3N3/c7-3-5-1-2-6(4-8)9-5/h1-2,9H	InChI=1S/C6H3N3/c7-3-5-1-2-6(4-8)9-5/h1-2,9H
