16
gdb 30123	3.88697	1.19761	1.05327	1.6857	72.3	-0.2266	-0.0046	0.222	1131.8644	0.125452	-437.894352	-437.886796	-437.885852	-437.926806	28.744	
O	 0.1313837413	 1.4437696748	 0.1744206796	-0.424434
C	 0.033197011	 0.0609653649	 0.0954620887	 0.145688
C	-0.4856925359	-0.7849532295	 1.2164256957	-0.346385
C	-1.3025174795	-0.6592846124	-0.073841193	-0.199097
C	-2.5627940309	 0.0796484227	-0.08947133	 0.376073
C	-3.735998943	-0.0400703172	-0.76165011	-0.208624
N	-4.6043542163	 0.9785372126	-0.3799229186	-0.249205
C	-3.9372828475	 1.6597253747	 0.4847637029	 0.066424
O	-2.6831752937	 1.1854020347	 0.7272101175	-0.210159
H	-0.6609816498	 1.7867760443	 0.6039543782	 0.295364
H	 0.8594834636	-0.3296997893	-0.4893725793	 0.116834
H	-0.0159009113	-1.7386247872	 1.4313086184	 0.122966
H	-0.8812532849	-0.2679762896	 2.084719292	 0.128353
H	-1.3134794036	-1.5164891449	-0.7383501227	 0.106107
H	-4.0192570095	-0.783921657	-1.4886425838	 0.126739
H	-4.2346956599	 2.5384152983	 1.0343860044	 0.153356
69.6512	139.9612	175.0873	292.8184	345.9266	374.4191	457.5768	525.076	659.1882	668.5166	733.5916	761.0397	812.6391	821.6839	843.8693	921.0149	938.9749	970.6109	1014.4703	1036.1489	1058.4945	1106.6819	1119.2109	1122.9429	1137.8926	1223.6378	1238.0856	1260.5354	1332.0686	1366.7933	1368.9564	1448.2687	1482.5683	1561.175	1639.5027	3130.5991	3165.9185	3173.4142	3222.2878	3268.3586	3281.1198	3796.415
OC1CC1C1=CN=CO1	O[C@H]1C[C@H]1c1cnco1	
InChI=1S/C6H7NO2/c8-5-1-4(5)6-2-7-3-9-6/h2-5,8H,1H2	InChI=1S/C6H7NO2/c8-5-1-4(5)6-2-7-3-9-6/h2-5,8H,1H2/t4-,5+/m1/s1
