20
gdb 22386	2.61673	1.50893	1.13526	0.9797	82.71	-0.2347	0.0243	0.259	1133.0664	0.171515	-403.109305	-403.101041	-403.100097	-403.141689	33.068	
C	-0.0616950183	 1.540816158	 0.0230363737	-0.500395
C	-0.0022666501	 0.034043284	 0.028948141	 0.253057
C	 0.9421436979	-0.8018601044	-0.9124833599	-0.261791
C	 0.6675613175	-1.9310787519	 0.1201845973	-0.034301
C	 0.6453019398	-0.8053168363	 1.19215141	-0.26179
C	-0.8382190908	-2.2011536015	-0.0926618084	-0.307203
C	-1.2822293293	-0.7465143866	-0.15282818	 0.440418
N	-2.425609787	-0.2223446597	-0.3132271878	-0.293582
O	-3.4211627519	-1.2147892663	-0.4553570809	-0.398295
H	 0.933372704	 1.9742536245	 0.1640961241	 0.107207
H	-0.4682738427	 1.9099644509	-0.92380167	 0.127634
H	-0.7144653185	 1.9071039648	 0.8216621659	 0.127635
H	 0.629541922	-0.9548928087	-1.9497669355	 0.096841
H	 1.9706188649	-0.4340211324	-0.875315943	 0.098765
H	 1.3213434773	-2.7977371633	 0.2109689721	 0.066324
H	 1.6437649133	-0.437813491	 1.4420731567	 0.098764
H	 0.0580756735	-0.961554125	 2.1020151167	 0.096842
H	-1.0654501301	-2.7385419012	-1.0188691329	 0.120485
H	-1.3125123701	-2.7414953337	 0.7327810701	 0.120481
H	-4.2176233514	-0.6851076001	-0.5668523791	 0.302904
114.1024	183.6869	193.5849	255.4021	291.7431	333.9921	392.0082	444.3911	451.2818	562.2385	577.629	590.1591	684.8372	802.787	811.8809	866.5925	867.8585	895.2435	930.1553	967.7565	976.6172	1003.3458	1033.5883	1062.2648	1064.3407	1097.7775	1129.0825	1146.6243	1196.0515	1199.6428	1243.816	1256.0345	1275.7796	1309.8102	1345.1236	1408.5713	1417.8874	1473.2858	1485.6184	1486.6286	1490.2819	1524.5246	1779.3203	3035.9401	3048.438	3051.2638	3054.5578	3092.0331	3106.0909	3106.1187	3111.8176	3115.248	3121.7646	3819.6971
CC12CC(C1)CC2=NO	C[C@@]12C[C@@H](C1)CC2=NO	
InChI=1S/C7H11NO/c1-7-3-5(4-7)2-6(7)8-9/h5,9H,2-4H2,1H3	InChI=1S/C7H11NO/c1-7-3-5(4-7)2-6(7)8-9/h5,9H,2-4H2,1H3/t5-,7+
