20
gdb 114186	3.31528	1.0747	0.92003	3.5314	83.11	-0.2378	0.0357	0.2734	1354.7511	0.170688	-403.162571	-403.153277	-403.152332	-403.197431	33.692	
C	-0.2350718815	 1.5623622718	-0.0695412054	-0.377412
C	 0.2024511637	 0.0954722011	-0.0206965327	-0.153464
N	 0.8201709129	-0.3606698192	-1.242696078	-0.097019
C	 0.2907699312	-0.6056402967	-2.593407813	-0.258878
C	 1.6989865083	-1.1147315237	-2.9493196096	 0.188193
C	 2.1296299382	-2.2927904934	-3.7733196582	-0.315558
C	 2.5372221256	-0.8987817856	-4.1749129189	-0.316834
C	 2.0905240412	-0.8243148365	-1.5122595922	 0.378276
O	 3.077871034	-0.9373560432	-0.8299780676	-0.393309
H	 0.6211915978	 2.2161867675	-0.2582595928	 0.131423
H	-0.9742164662	 1.7307126752	-0.8595054651	 0.119277
H	-0.6906908714	 1.8548341422	 0.8815811502	 0.120501
H	 0.9485151171	-0.0560551467	 0.7659080535	 0.14046
H	-0.6585066289	-0.5447201852	 0.2186294014	 0.105882
H	-0.5059639902	-1.3588741633	-2.6259220356	 0.108659
H	-0.0356877944	 0.2983329436	-3.1199020163	 0.111221
H	 2.8825772013	-2.9436895929	-3.3417020179	 0.136063
H	 1.3755460988	-2.7973957445	-4.3681463787	 0.118534
H	 2.0596159175	-0.456055538	-5.0426845201	 0.118482
H	 3.5683604951	-0.5999249922	-4.019015593	 0.135505
50.764	68.5653	138.3449	175.9929	214.9236	216.984	278.4846	344.2525	377.0873	503.9092	565.5873	731.3905	753.7648	774.9748	795.0218	825.7074	871.0469	917.273	950.3126	988.9754	1006.2873	1058.8263	1070.1973	1077.0682	1093.7511	1105.9701	1145.8114	1194.4304	1203.9099	1230.6186	1252.2971	1335.6586	1388.7749	1404.5603	1410.6825	1423.7755	1458.6691	1480.143	1492.5888	1502.2545	1504.5058	1526.135	1870.2317	3005.0627	3019.5965	3038.8181	3064.5986	3083.6971	3110.2645	3119.9662	3130.1623	3132.3649	3212.0115	3226.1124
CCN1CC2(CC2)C1=O	CCN1CC2(CC2)C1=O	
InChI=1S/C7H11NO/c1-2-8-5-7(3-4-7)6(8)9/h2-5H2,1H3	InChI=1S/C7H11NO/c1-2-8-5-7(3-4-7)6(8)9/h2-5H2,1H3
