22
gdb 118794	2.12679	1.06765	0.81511	4.3503	87.8	-0.2785	0.0319	0.3105	1509.163	0.192969	-367.232678	-367.222395	-367.221451	-367.268178	37.681	
C	-0.0678408929	 1.5977999768	-0.073617649	-0.381851
C	-0.1709181745	 0.0720112476	-0.150919185	-0.171635
C	 0.9171616053	-0.5456314893	-1.041473945	-0.255094
C	 0.8134608563	-2.0571246386	-1.1886539859	 0.343066
C	 1.0600436076	-2.8641931	 0.073118954	-0.462883
C	-0.1617942225	-2.6040960696	-2.1909017011	-0.313252
C	 1.331772205	-2.6957998517	-2.482291587	-0.231499
C	 1.9067221491	-1.8997301292	-3.5283452921	 0.292594
N	 2.3757238861	-1.2570381858	-4.3692454378	-0.35034
H	 0.8991630796	 1.9094174024	 0.3362605172	 0.117487
H	-0.1670789367	 2.0525972177	-1.065195796	 0.1205
H	-0.8509098737	 2.016462788	 0.5658632866	 0.113263
H	-0.1082030162	-0.3459883572	 0.8609973236	 0.099359
H	-1.1577760904	-0.2122368796	-0.5382335346	 0.098752
H	 0.8716313761	-0.0812734596	-2.0332792794	 0.118314
H	 1.9068199184	-0.2936444773	-0.6367641459	 0.102945
H	 0.3114652653	-2.6361071384	 0.8383320749	 0.129775
H	 1.0114487766	-3.9396175858	-0.1236159113	 0.117291
H	 2.0472927176	-2.6423966696	 0.4931417605	 0.126829
H	-0.6727732976	-3.5370832151	-1.9797802748	 0.123861
H	-0.7319435789	-1.9008652409	-2.7876238218	 0.134759
H	 1.7879978505	-3.6755053748	-2.3836337002	 0.127757
73.9387	87.9954	103.7208	145.2786	203.0158	225.6167	247.2022	299.9012	332.7934	354.7137	407.3593	428.0902	558.4735	607.9484	726.5943	746.6503	791.9122	859.8026	875.646	903.4894	942.7789	965.2859	999.8603	1044.417	1052.3325	1079.392	1099.5677	1121.0225	1127.334	1145.4275	1242.0482	1297.5674	1307.2192	1334.694	1341.4315	1397.3516	1406.045	1414.4444	1423.8882	1477.1381	1485.8502	1492.7665	1496.705	1499.6504	1504.6829	1511.6912	2347.7745	3015.7846	3025.9069	3032.3044	3032.5716	3049.5113	3072.1553	3099.3547	3100.2454	3104.7478	3105.6872	3137.4462	3162.5564	3226.8342
CCCC1(C)CC1C#N	CCC[C@@]1(C)C[C@H]1C#N	
InChI=1S/C8H13N/c1-3-4-8(2)5-7(8)6-9/h7H,3-5H2,1-2H3	InChI=1S/C8H13N/c1-3-4-8(2)5-7(8)6-9/h7H,3-5H2,1-2H3/t7-,8-/m0/s1
