18
gdb 8384	4.13468	1.4085	1.27608	1.2607	68.8	-0.2229	0.0706	0.2935	1023.2739	0.152073	-384.90403	-384.895811	-384.894867	-384.936801	30.951	
C	-0.6760482016	 1.3494257277	 0.1898459776	-0.395477
C	 0.0444151183	 0.027208686	 0.0277267251	 0.15381
C	 0.8633693586	-0.2013184503	-1.2674246398	-0.369668
C	 2.0478372508	-0.2729757178	-0.3183656419	 0.451932
C	 3.2325841544	-1.1939186005	-0.3311821514	-0.403831
C	 3.403170128	 0.3128459478	-0.4962048987	 0.015581
O	 3.6828800752	 0.8536942784	-1.7541970227	-0.421258
O	 1.2532943048	-0.0449210737	 0.8406587172	-0.324736
H	-0.0195022786	 2.1834545415	-0.0761603334	 0.124835
H	-1.5619102111	 1.3824340368	-0.454290787	 0.114893
H	-1.0015370527	 1.4835922892	 1.2262252098	 0.125843
H	-0.6215777807	-0.8078007518	 0.2795164937	 0.077471
H	 0.6355909505	-1.1171489523	-1.8153742422	 0.108478
H	 0.8859968685	 0.643470253	-1.9585520489	 0.12335
H	 3.5490795129	-1.6311323733	 0.6102297392	 0.121679
H	 3.3688940218	-1.8192489794	-1.2085513882	 0.114137
H	 3.8189107528	 0.8506455617	 0.3565932284	 0.094418
H	 4.5937211682	 0.634475657	-1.9778606269	 0.288544
47.705	166.79	190.2347	235.4772	289.2058	341.2397	375.6637	397.9215	443.0885	509.8007	578.8819	777.072	817.108	863.6663	889.3648	909.7963	911.8663	940.4167	992.6064	1014.7765	1068.8476	1092.3794	1105.5797	1129.7186	1166.5164	1196.0866	1211.9653	1241.9707	1288.0652	1315.4732	1348.8282	1384.6841	1407.6822	1417.9205	1482.5522	1485.6235	1494.4442	1506.8413	3019.9436	3032.798	3076.3749	3098.7268	3104.3637	3113.9688	3121.8667	3130.7055	3217.1008	3798.7829
CC1CC2(CC2O)O1	C[C@H]1C[C@]2(C[C@H]2O)O1	
InChI=1S/C6H10O2/c1-4-2-6(8-4)3-5(6)7/h4-5,7H,2-3H2,1H3	InChI=1S/C6H10O2/c1-4-2-6(8-4)3-5(6)7/h4-5,7H,2-3H2,1H3/t4-,5+,6+/m0/s1
