18
gdb 85619	2.06509	1.92918	1.18989	4.0634	72.81	-0.2499	-0.0065	0.2434	1054.603	0.1498	-439.118825	-439.110715	-439.109771	-439.151417	31.464	
O	 0.0995395635	 1.3945901025	 0.2357152179	-0.436829
C	 0.0337715724	-0.006956205	 0.0036373449	 0.080278
C	-1.4178345099	-0.5174245959	 0.0986021683	-0.340226
C	-2.2279116619	 0.1142255671	-1.0195529358	 0.364979
O	-2.8171886173	 1.1742035882	-0.8731742309	-0.37542
N	-2.18598468	-0.539565858	-2.2187889311	-0.274559
C	-1.1463823134	-1.51188403	-2.5575653099	-0.241616
C	 0.2720558218	-1.0092150139	-2.3531160484	-0.074826
C	 0.74583361	-0.3673582694	-1.2840096762	-0.046368
H	-0.6494008179	 1.80504834	-0.2181267217	 0.293663
H	 0.6019150173	-0.4574841992	 0.8281984954	 0.095356
H	-1.4364565889	-1.6100833001	 0.0581014444	 0.11352
H	-1.8425879443	-0.1884348703	 1.0479529912	 0.134255
H	-2.5788797645	-0.0020920242	-2.9794451159	 0.247454
H	-1.3159924367	-2.439895566	-1.9953023465	 0.134041
H	-1.2897897617	-1.7746678126	-3.6080186472	 0.122836
H	 0.9519750318	-1.1946607986	-3.1814940609	 0.09944
H	 1.7795580498	-0.0288170346	-1.3034221774	 0.10402
89.6214	119.9434	230.4849	259.35	345.3427	365.9443	383.9351	458.5972	488.3027	520.5295	549.2209	650.8516	717.8932	748.0494	794.3089	832.3644	897.8586	910.9528	949.837	992.2327	1012.2639	1059.8821	1085.7403	1116.6349	1185.8458	1223.5915	1270.1182	1283.9798	1319.3801	1339.1618	1378.8448	1407.7809	1416.6339	1441.0003	1455.187	1480.6506	1497.4396	1717.5157	1771.8639	3014.8526	3017.4757	3068.7732	3098.499	3134.5204	3142.3496	3165.022	3595.7371	3748.3701
OC1CC(=O)NCC=C1	O[C@H]1CC(=O)NCC=C1	
InChI=1S/C6H9NO2/c8-5-2-1-3-7-6(9)4-5/h1-2,5,8H,3-4H2,(H,7,9)	InChI=1S/C6H9NO2/c8-5-2-1-3-7-6(9)4-5/h1-2,5,8H,3-4H2,(H,7,9)/t5-/m1/s1
