21
gdb 88532	3.32844	1.19378	1.08474	1.6994	83.36	-0.2555	0.0936	0.3491	1215.9078	0.182932	-387.022694	-387.014412	-387.013467	-387.056082	32.273	
C	 0.1920350846	 1.3887255712	-0.5213762016	-0.433859
C	-0.1113551882	 0.0433863598	 0.0859591015	 0.086916
O	 0.9643800663	-0.8953072375	 0.1867508632	-0.264294
C	 0.3510146573	-0.4376917272	 1.4016565725	-0.123802
C	 1.2027397651	 0.2904056573	 2.3851545265	 0.382829
C	 0.7056604834	 0.9968423027	 3.6879835943	-0.256522
C	 2.256177606	 1.1132577417	 3.7148062245	-0.061838
C	 2.3070054149	-0.3748124959	 3.2726689977	-0.246004
C	 2.1877312592	 1.4889277781	 2.2082007573	-0.259319
H	 1.1563697528	 1.7726305611	-0.1888285676	 0.138791
H	 0.2166586597	 1.3060379914	-1.6132752149	 0.126516
H	-0.5873170548	 2.1132381341	-0.2606089398	 0.119626
H	-1.0395741326	-0.4060260864	-0.2771910371	 0.083634
H	-0.2738844748	-1.1990123642	 1.8785410807	 0.080199
H	 0.1422053899	 1.9249949932	 3.5548628806	 0.089092
H	 0.2477190192	 0.3558185841	 4.4470198793	 0.089744
H	 2.8643805924	 1.5937463975	 4.4810874941	 0.073145
H	 1.9643788286	-1.1167881178	 3.9998294232	 0.087982
H	 3.208182727	-0.7078772717	 2.7515945668	 0.0985
H	 3.0823925512	 1.2983457791	 1.6097696992	 0.099014
H	 1.7434106827	 2.4596184494	 1.9719883896	 0.089651
43.5697	128.4439	172.1946	207.8353	263.6827	382.5304	404.1094	498.8943	543.1385	562.9011	680.4496	774.0476	800.1634	812.9524	860.3552	889.6732	945.3024	949.3716	961.9829	964.6675	988.2821	1000.3608	1034.6251	1083.6803	1099.7127	1104.0346	1140.5028	1143.3032	1160.0734	1163.7843	1166.1602	1178.1325	1231.9643	1237.1749	1241.3843	1283.4632	1335.8604	1397.9341	1421.2872	1468.6877	1492.716	1497.05	1498.9593	1507.3915	1556.2881	3039.2408	3042.5735	3047.4557	3052.9103	3056.0776	3073.3502	3096.0927	3107.7716	3113.2206	3115.7657	3118.6418	3155.8202
CC1OC1C12CC(C1)C2	C[C@H]1O[C@H]1[C@@]12C[C@@H](C1)C2	
InChI=1S/C8H12O/c1-5-7(9-5)8-2-6(3-8)4-8/h5-7H,2-4H2,1H3	InChI=1S/C8H12O/c1-5-7(9-5)8-2-6(3-8)4-8/h5-7H,2-4H2,1H3/t5-,6-,7-,8-/m1/s1
