18
gdb 103311	2.22642	1.92173	1.19641	2.7005	73.	-0.2436	0.012	0.2556	1043.9538	0.146732	-439.01979	-439.01125	-439.010306	-439.052673	32.658	
C	 0.0078906374	 1.6896496562	 0.3879413979	-0.470733
C	-0.058082588	 0.2124275368	 0.0111978505	 0.328051
C	-1.4458958933	-0.1205851053	-0.5439032475	-0.147288
O	-1.6027553279	-1.4361149925	-1.0412930735	-0.406649
C	 1.1915885843	-0.3765423999	-0.7324518332	-0.187112
N	 1.9440049642	-0.2095372928	 0.5917942804	-0.320931
C	 0.5963485257	-0.7905125473	 1.0218248474	-0.211333
C	 0.834716468	-1.7676042679	-0.1628594244	 0.436085
O	 1.0022878525	-2.9302106318	-0.3698236185	-0.347886
H	 0.984059222	 1.9509917683	 0.7949221904	 0.15178
H	-0.1844319253	 2.3173542973	-0.489203518	 0.118478
H	-0.7570626609	 1.9290043249	 1.1352291607	 0.11564
H	-2.2000132045	 0.1130300698	 0.2233658393	 0.098514
H	-1.6461001717	 0.5428228778	-1.3932440091	 0.119147
H	-1.7150913343	-2.0472368331	-0.3069737667	 0.297522
H	 1.6306086018	-0.0782181563	-1.6830363271	 0.098396
H	 2.6840477506	-0.9117896707	 0.6773374302	 0.235426
H	 0.3610716194	-0.9644048035	 2.0717126414	 0.092893
84.2167	177.472	193.3005	222.4695	229.0268	324.577	355.8456	375.6609	433.8345	475.9689	584.5897	652.1857	703.9929	748.9445	792.674	798.8707	871.1801	934.6356	958.4759	979.3491	1046.5841	1089.8763	1103.2049	1109.1241	1127.7146	1143.3481	1155.9812	1199.195	1239.6539	1270.2178	1276.3295	1307.0198	1393.0087	1399.4467	1420.3625	1486.7335	1498.5007	1504.7175	1897.2995	2989.1302	3034.8234	3062.5463	3088.7004	3125.4173	3140.8869	3154.7173	3413.6017	3832.4093
CC1(CO)C2NC1C2=O	C[C@@]1(CO)[C@H]2N[C@@H]1C2=O	
InChI=1S/C6H9NO2/c1-6(2-8)4-3(9)5(6)7-4/h4-5,7-8H,2H2,1H3	InChI=1S/C6H9NO2/c1-6(2-8)4-3(9)5(6)7-4/h4-5,7-8H,2H2,1H3/t4-,5+,6+
