13
gdb 25064	6.10865	0.91779	0.80185	0.1278	65.27	-0.2368	-0.0018	0.235	1304.2839	0.089352	-452.77225	-452.764602	-452.763658	-452.805283	27.361	
N	 0.2281490465	 1.1445882031	-0.8544898222	-0.571125
C	 0.1154587941	 0.0142637621	-0.3264283021	 0.498033
O	 0.9946343602	-0.6432964826	 0.5027060053	-0.217572
C	 0.4183284887	-1.8597201863	 0.8186627615	-0.124576
C	-0.7606548131	-1.9453915682	 0.2121059175	 0.320768
C	-1.8368412157	-2.9745601452	 0.1540522937	-0.458368
C	-1.5019131271	-4.1509014355	 0.953723514	 0.277951
N	-1.2266052991	-5.0749225145	 1.5885271113	-0.294505
O	-0.9788093708	-0.7894608807	-0.5122300607	-0.231732
H	 1.1087498354	 1.5809922597	-0.5955476701	 0.243554
H	 0.9636138794	-2.5222698658	 1.4664937189	 0.187326
H	-2.7838657788	-2.551027383	 0.5130311144	 0.18512
H	-2.0105831096	-3.281096053	-0.8855934516	 0.185125
51.9219	107.2993	165.3874	279.9194	280.981	383.3044	449.8123	511.0812	579.125	718.352	725.9174	768.1847	770.9563	780.1016	910.982	947.6581	963.5673	993.7368	1014.6069	1098.251	1201.7251	1216.8451	1232.3702	1322.0675	1389.6164	1462.2788	1746.399	1822.1089	2376.807	3028.6933	3057.9372	3310.1288	3552.7102
N=C1OC=C(CC#N)O1	[NH][C@@H]1OC=C(CC#N)O1	
InChI=1S/C5H4N2O2/c6-2-1-4-3-8-5(7)9-4/h3,7H,1H2	InChI=1S/C5H5N2O2/c6-2-1-4-3-8-5(7)9-4/h3,5,7H,1H2/t5-/m1/s1
