19
gdb 65967	2.21238	1.54196	1.32776	1.4082	76.01	-0.2351	-0.0372	0.1979	1076.4262	0.158024	-419.162383	-419.153303	-419.152359	-419.196821	33.609	
C	-0.2353598594	 1.6541755865	 0.1041880506	-0.43735
C	 0.0748294325	 0.1713486508	-0.0158683558	 0.130286
N	 1.326147164	-0.1598140504	-0.7516531969	-0.360143
C	 1.7775424106	-1.115365453	 0.2987102082	-0.23763
C	 0.6849170937	-0.5668901221	 1.2116208522	 0.312871
C	 0.7419423392	-0.0866335572	 2.605246203	-0.299089
N	 0.0004201582	-1.3162570037	 2.2529483558	-0.365798
C	-1.1269200532	-0.6276103031	-0.4991175721	 0.124951
O	-2.2747966873	-0.2786491667	-0.3915645133	-0.254703
H	 0.6231755885	 2.184277397	 0.5210156441	 0.122891
H	-0.4594925868	 2.0779605422	-0.8798051672	 0.124969
H	-1.1123629925	 1.8140171589	 0.7374866228	 0.129968
H	 1.1811793266	-0.5721144112	-1.6689058043	 0.218523
H	 1.6262562366	-2.176594136	 0.0637764978	 0.109959
H	 2.8164592201	-0.9656567633	 0.6107763992	 0.113228
H	 1.6406646756	-0.2495458607	 3.1946554906	 0.125318
H	 0.181880465	 0.8076815033	 2.8654546926	 0.122757
H	-1.000932931	-1.1310115358	 2.2320028327	 0.242466
H	-0.8623524604	-1.6092459057	-0.96087375	 0.076524
29.2229	101.4373	192.4927	201.6605	245.6334	267.6933	293.5672	359.812	424.648	452.2036	506.9536	579.7342	687.465	760.6516	830.0742	875.0285	924.5837	937.3331	958.9885	968.0827	999.2997	1002.5182	1054.1052	1069.6449	1124.2883	1138.8872	1163.5272	1172.7822	1243.7299	1260.3474	1279.2627	1305.5655	1373.3449	1397.2576	1419.3628	1424.5175	1480.842	1488.5651	1515.0663	1516.3349	1818.724	2846.8889	3018.2401	3046.6991	3068.5432	3105.8623	3114.8131	3138.0064	3191.7186	3483.7754	3504.6174
CC1(NCC11CN1)C=O	C[C@]1(NC[C@]21CN2)C=O	
InChI=1S/C6H10N2O/c1-5(4-9)6(2-7-5)3-8-6/h4,7-8H,2-3H2,1H3	InChI=1S/C6H10N2O/c1-5(4-9)6(2-7-5)3-8-6/h4,7-8H,2-3H2,1H3/t5-,6+/m0/s1
