16
gdb 32936	4.82919	0.88413	0.77462	1.6148	68.51	-0.2099	0.0309	0.2408	1446.1728	0.123852	-475.050319	-475.041765	-475.040821	-475.084668	30.605	
C	-0.0060602892	 1.443602327	 0.1977405812	-0.38778
C	-0.0901048432	-0.00718675	-0.2311199933	-0.063973
O	-1.2414059925	-0.5921054927	 0.4205703379	-0.273241
C	-1.4883322631	-1.8640507165	 0.1268784215	 0.378011
C	-2.522016277	-2.5243433807	-0.4333415513	-0.220344
N	-2.2697687519	-3.9039170568	-0.3919840074	-0.380422
C	-1.1132298691	-3.9774440287	 0.1721786333	 0.480996
O	-0.3863060098	-5.0608989026	 0.4445710319	-0.39987
O	-0.5477509814	-2.8138761759	 0.5327469321	-0.209056
H	 0.8564703986	 1.9225320023	-0.2747160715	 0.12417
H	-0.9089446989	 1.9866683293	-0.0943482707	 0.133333
H	 0.1066463345	 1.5180491158	 1.2827219863	 0.136074
H	-0.2174135926	-0.1036144129	-1.3169502573	 0.109769
H	 0.8069046747	-0.5641197511	 0.061897827	 0.124172
H	-3.4269409048	-2.1172678068	-0.8518883817	 0.126922
H	-0.8981162843	-5.8182410598	 0.1322212421	 0.321237
52.5492	61.3345	114.9328	239.2868	262.0301	324.117	369.5484	411.4551	439.7438	527.1222	640.7231	700.5406	743.2989	770.2037	817.4324	825.4025	894.8028	973.1807	1015.1291	1049.0472	1123.0115	1129.88	1179.3879	1226.3512	1241.414	1286.5361	1292.5112	1397.42	1421.0451	1482.9338	1491.4389	1499.7719	1520.9078	1659.8614	1706.0736	3021.4643	3048.4743	3070.2971	3123.8908	3128.5345	3277.6627	3804.1188
CCOC1=CN=C(O)O1	CCOc1cnc(O)o1	
InChI=1S/C5H7NO3/c1-2-8-4-3-6-5(7)9-4/h3H,2H2,1H3,(H,6,7)	InChI=1S/C5H7NO3/c1-2-8-4-3-6-5(7)9-4/h3H,2H2,1H3,(H,6,7)
