21
gdb 109244	2.55073	1.43206	1.07024	1.7967	84.15	-0.2311	0.0114	0.2425	1215.1596	0.181687	-387.095431	-387.08637	-387.085426	-387.129056	34.678	
C	-0.0464651096	 1.5893686939	 0.086070537	-0.375211
C	 0.0315376478	 0.0541817531	-0.0135638483	-0.301102
C	 0.7391871263	-0.4467750387	-1.2413762838	 0.296094
C	 1.9913632756	-0.915038661	-1.305554513	-0.183622
C	 2.3960017867	-1.3463219447	-2.6987427044	-0.292328
C	 1.1142420861	-1.1423030987	-3.4939716944	-0.016148
O	 0.0110953483	-1.9340092328	-3.0436033913	-0.300221
C	 0.0967741901	-0.5487518386	-2.607007679	 0.315055
C	-1.0318973965	 0.3364607194	-3.0576689799	-0.498172
H	 0.9562559702	 2.0276208086	 0.08250526	 0.119889
H	-0.6036494401	 2.0240370305	-0.7486183709	 0.120208
H	-0.5469838372	 1.890010588	 1.0119442395	 0.113737
H	 0.5522033408	-0.3290796611	 0.8710616771	 0.106091
H	-0.9842193759	-0.3607581678	 0.0225036781	 0.106748
H	 2.6482608099	-1.0324340953	-0.4495851143	 0.090081
H	 3.2142524974	-0.7352351321	-3.1024083628	 0.107868
H	 2.7322779712	-2.3900401378	-2.7312663046	 0.121409
H	 1.1463660901	-0.9570559018	-4.5652399059	 0.087178
H	-1.9022778224	 0.2334519685	-2.4003737693	 0.126784
H	-0.7331315554	 1.3897063658	-3.0580521396	 0.125336
H	-1.3400986633	 0.0598601727	-4.0687860405	 0.130326
66.3896	134.3874	187.818	216.3916	242.4361	261.3723	307.3	322.0374	401.2035	462.214	576.6711	630.1854	661.0714	747.709	784.1089	810.4463	820.797	863.5567	924.2178	950.9391	959.3734	993.0419	1035.149	1061.3691	1070.5928	1088.0918	1113.0796	1152.82	1185.9035	1237.8502	1278.3923	1297.6727	1313.7913	1352.7133	1361.461	1402.1413	1408.4996	1438.4196	1462.3212	1477.8922	1487.6503	1493.8901	1500.1895	1507.8707	1695.8369	3020.7395	3021.3904	3035.5724	3039.6807	3056.9022	3062.7998	3097.2664	3108.4232	3116.8705	3124.7485	3137.7438	3182.1238
CCC1=CCC2OC12C	CCC1=CC[C@H]2O[C@@]12C	
InChI=1S/C8H12O/c1-3-6-4-5-7-8(6,2)9-7/h4,7H,3,5H2,1-2H3	InChI=1S/C8H12O/c1-3-6-4-5-7-8(6,2)9-7/h4,7H,3,5H2,1-2H3/t7-,8+/m1/s1
