12
gdb 25218	2.45706	1.9208	1.31253	5.5036	64.09	-0.2673	-0.0896	0.1777	921.1374	0.077674	-472.66126	-472.654143	-472.653198	-472.693267	25.606	
O	 0.2029280396	-0.1837596638	-0.179260994	-0.269757
C	 0.0873519436	 0.9967186831	-0.1885386623	 0.357826
O	-1.1819936333	 1.5562860529	-0.3587040831	-0.200616
C	-1.4465766102	 2.8318675301	-0.7123925681	 0.088042
C	-0.6465391589	 3.7247469079	-1.3243227683	-0.167606
C	 0.7416669735	 3.5050596527	-1.6771800014	-0.002436
N	 1.5770391649	 2.7365280172	-1.0777055133	-0.222273
C	 1.2023838281	 2.0271751667	 0.0527937005	 0.272827
O	 1.7212654793	 2.1167265519	 1.1337406375	-0.282303
H	-2.4840683638	 3.0638281356	-0.4982627561	 0.15482
H	-1.1096786035	 4.6534362735	-1.6384206733	 0.129586
H	 1.1198094007	 4.0585897721	-2.538395888	 0.14189
93.5201	111.4119	241.1119	297.725	314.3579	409.9108	477.688	557.5212	636.8649	713.3094	763.3489	788.7536	835.405	900.9153	947.9628	976.0873	982.1951	1008.1781	1122.8508	1181.7439	1320.0398	1413.9255	1445.948	1617.9608	1700.834	1815.9125	1894.859	3119.459	3193.2845	3211.965
O=C1OC=CC=NC1=O	O=c1occcnc1=O	
InChI=1S/C5H3NO3/c7-4-5(8)9-3-1-2-6-4/h1-3H	InChI=1S/C5H3NO3/c7-4-5(8)9-3-1-2-6-4/h1-3H
