18
gdb 73911	2.87638	1.38965	1.02555	4.792	85.53	-0.24	-0.0333	0.2068	1167.6074	0.148761	-364.844812	-364.83666	-364.835716	-364.877428	31.124	
C	-0.0370217224	 1.5070712391	 0.1077022882	-0.518004
C	-0.0158456273	 0.0169157596	 0.0307990669	 0.246759
C	 0.0084965709	-0.7444165988	-1.084499822	 0.085308
C	-0.0295927902	-2.2357844953	-0.7790233453	-0.32935
C	 0.051873087	-2.279614601	 0.7446277039	-0.045542
C	 1.2664775354	-1.6892663225	 1.4008068125	-0.279219
C	 0.0124656617	-0.842853576	 1.2459947302	-0.118989
C	 0.0679758912	-0.2442879532	-2.4106707624	 0.196496
N	 0.1105664892	 0.1443602511	-3.5026443551	-0.355383
H	 0.8345248397	 1.8786964087	 0.660067126	 0.141099
H	-0.0453020117	 1.965070142	-0.8835904105	 0.153368
H	-0.9231207125	 1.8502734643	 0.6560615349	 0.138457
H	-0.9596202624	-2.6845547221	-1.1486483303	 0.124715
H	 0.7934637692	-2.7752588047	-1.261763621	 0.127701
H	-0.4834958532	-3.0607338447	 1.2701236542	 0.096511
H	 1.5048603201	-2.0357140415	 2.4007045736	 0.11942
H	 2.1272531852	-1.4348248284	 0.7904075456	 0.12146
H	-0.52856091	-0.5357152667	 2.1341201107	 0.095191
117.0793	144.5621	167.645	192.8193	295.2152	319.2275	362.3664	512.7785	528.8936	580.1379	615.9578	634.7275	739.7662	799.795	817.4806	891.1274	907.9462	979.0855	994.1471	1023.8217	1060.0199	1070.7219	1080.2521	1099.9378	1118.8338	1182.9479	1185.5926	1213.5692	1233.1283	1323.6996	1361.8159	1381.4802	1414.553	1474.1776	1478.2076	1480.3848	1488.0182	1673.9191	2325.5618	3025.4039	3031.3883	3064.3622	3073.9132	3126.3464	3129.9906	3171.4828	3187.0301	3217.0096
CC1=C(CC2CC12)C#N	CC1=C(C[C@H]2C[C@@H]12)C#N	
InChI=1S/C8H9N/c1-5-7(4-9)2-6-3-8(5)6/h6,8H,2-3H2,1H3	InChI=1S/C8H9N/c1-5-7(4-9)2-6-3-8(5)6/h6,8H,2-3H2,1H3/t6-,8-/m0/s1
