17
gdb 86690	2.3997	1.34609	0.972	5.317	73.59	-0.2532	-0.0444	0.2088	1211.8951	0.135007	-418.005627	-417.996585	-417.99564	-418.040229	32.077	
C	-0.1029947724	 1.6141813254	 0.0616434123	-0.401903
C	 0.0230886291	 0.1044856945	 0.0690860705	 0.05951
N	 0.9425002102	-0.4714881438	-0.9388463237	-0.322794
C	 1.4424951109	-1.4854952976	 0.0038662313	-0.062062
C	 2.9438701382	-1.7113822699	-0.0474210611	 0.160211
O	 3.4614387957	-2.7776469643	 0.1556784361	-0.238697
C	 0.8717101806	-0.612197539	 1.1813146265	-0.216485
C	 1.8398041373	 0.2333715096	 1.8620117765	 0.30206
N	 2.5993506812	 0.9117234891	 2.40959645	-0.330375
H	 0.8794084921	 2.0880790779	 0.1224982161	 0.148684
H	-0.5879510664	 1.9427992399	-0.8634746456	 0.123648
H	-0.7139419685	 1.9577342085	 0.9028691987	 0.126723
H	-0.9745088777	-0.3589733254	 0.0536532793	 0.082351
H	 0.5172449257	-0.826489856	-1.788231363	 0.230485
H	 0.9401981315	-2.4610181838	-0.0203738047	 0.095897
H	 3.5255197965	-0.7983206493	-0.2950992229	 0.104807
H	 0.3012856362	-1.1719449658	 1.9231945437	 0.137939
57.2291	69.748	133.3255	161.0924	216.6587	292.7746	333.2494	350.7312	420.0472	444.5409	533.6975	623.1146	669.2878	783.2379	817.8511	892.1825	953.3497	978.455	1002.6229	1050.7295	1098.3459	1111.4126	1123.4604	1150.7312	1166.4826	1244.1279	1277.7775	1315.0167	1351.8488	1384.4995	1389.2216	1409.4159	1424.5452	1484.8771	1492.9267	1834.4077	2354.1599	2919.4171	2989.0514	3028.0973	3040.2505	3106.8219	3112.9797	3133.0489	3534.4173
CC1NC(C=O)C1C#N	C[C@H]1N[C@@H](C=O)[C@H]1C#N	
InChI=1S/C6H8N2O/c1-4-5(2-7)6(3-9)8-4/h3-6,8H,1H3	InChI=1S/C6H8N2O/c1-4-5(2-7)6(3-9)8-4/h3-6,8H,1H3/t4-,5+,6+/m1/s1
