21
gdb 86088	2.6117	1.34738	0.98062	2.1495	86.17	-0.23	0.0171	0.2471	1274.7298	0.181887	-387.097176	-387.088206	-387.087262	-387.130639	34.604	
C	 0.0134286618	 1.6008550966	-0.0834890568	-0.418191
C	 0.1197231959	 0.0816999957	 0.0202924774	-0.054765
C	 0.8444863345	-0.6040114381	-1.1664734132	-0.326255
C	 1.5835777281	-1.770385275	-0.5398596054	 0.306801
C	 2.2347361399	-2.8236515664	-1.3771305542	-0.48764
C	 1.5815496709	-1.6756218754	 0.7929170308	-0.256611
C	 0.8524212015	-0.4681616814	 1.2557565929	 0.434981
C	 1.2750133828	 0.326273447	 2.4228136663	-0.251788
O	 0.127145003	-0.5216720271	 2.4955631367	-0.289619
H	 1.0034042988	 2.0680058294	-0.1311314822	 0.113863
H	-0.5357355858	 1.8902886419	-0.9854945151	 0.113581
H	-0.5211066018	 2.019983238	 0.7750458442	 0.125047
H	-0.89368947	-0.3343246052	 0.0814076999	 0.095232
H	 0.1527115274	-0.9216637299	-1.956255159	 0.101746
H	 1.5574425237	 0.0836195771	-1.6452381178	 0.103964
H	 2.9808566856	-2.3865893357	-2.0532910688	 0.1267
H	 2.7318210392	-3.5803394019	-0.7644190812	 0.125615
H	 1.4981690494	-3.3285964507	-2.0152440598	 0.127686
H	 2.0611173832	-2.3607587767	 1.4830464966	 0.094836
H	 2.1349918468	 0.0033622528	 3.0103913698	 0.105237
H	 1.0729696951	 1.3958146651	 2.4585609787	 0.10958
73.437	136.9483	186.9692	250.1316	255.3524	263.0451	308.3172	388.7021	432.9912	456.8715	505.1472	523.1811	594.4841	727.5117	831.9697	857.9029	881.2807	895.6645	921.9933	938.593	959.2229	1017.9425	1033.2	1075.2246	1119.2848	1129.1469	1139.2189	1149.0222	1172.9965	1211.0824	1230.5621	1295.1236	1309.0225	1338.9833	1374.3464	1399.2021	1413.3893	1417.0713	1478.9819	1485.962	1489.1354	1497.4298	1504.6962	1528.1211	1716.9528	2999.8262	3017.0069	3025.7301	3029.5333	3048.0473	3062.3338	3074.1361	3097.1026	3101.72	3112.4494	3159.3769	3195.9824
CC1CC(C)=CC11CO1	C[C@H]1CC(=C[C@]21CO2)C	
InChI=1S/C8H12O/c1-6-3-7(2)8(4-6)5-9-8/h4,7H,3,5H2,1-2H3	InChI=1S/C8H12O/c1-6-3-7(2)8(4-6)5-9-8/h4,7H,3,5H2,1-2H3/t7-,8+/m0/s1
