20
gdb 38846	2.81271	1.8515	1.53049	2.7466	76.48	-0.2361	0.0715	0.3077	948.1337	0.175799	-403.143138	-403.13637	-403.135426	-403.174085	28.419	
C	-0.0076745671	 1.5690283268	 0.0125757761	-0.231864
C	 1.495100124	 1.9486129412	-0.0630151082	-0.218525
C	 2.179685811	 0.5845375785	 0.1551639153	 0.073801
O	 1.3005823552	-0.3322665667	-0.4871912482	-0.250525
C	 0.0039381106	 0.0129446857	 0.0100237117	 0.095532
C	-0.1729851489	-0.6002967908	 1.4095955428	-0.218275
C	 1.045766451	-0.3080196104	 2.2807135382	-0.031222
N	 2.2413820574	-1.1394294678	 2.0253788832	-0.328132
C	 2.2606533879	 0.2764430667	 1.6446807188	-0.039712
H	-0.4893440416	 1.9656299463	 0.9101989723	 0.09881
H	-0.5576254108	 1.9545530831	-0.8487053951	 0.105844
H	 1.753025691	 2.3423623476	-1.0490495381	 0.10465
H	 1.7848470253	 2.6939752737	 0.6828385325	 0.094961
H	 3.1578252676	 0.492448404	-0.3252344357	 0.078907
H	-0.7272591463	-0.4057391528	-0.6858891438	 0.074056
H	-1.0775491804	-0.1959156203	 1.8782862562	 0.09074
H	-0.3027966062	-1.6837910377	 1.3218499425	 0.113974
H	 0.8440422147	-0.0435878819	 3.3158062998	 0.080993
H	 2.7610019909	-1.2684986188	 2.8899254856	 0.227197
H	 2.8717848646	 0.9646272334	 2.2263619642	 0.07879
119.7483	221.1776	301.39	381.3007	422.7149	451.7434	557.1059	632.1557	738.0045	769.837	789.0105	823.7018	834.2337	862.9201	895.7326	912.3064	919.1532	960.6152	986.6416	995.0923	1015.8216	1053.0758	1070.973	1092.5651	1111.3984	1166.1123	1176.7568	1197.9199	1223.2779	1241.1269	1251.676	1270.0617	1295.2385	1319.2555	1329.4185	1340.7666	1361.9027	1389.6596	1407.1529	1454.4438	1470.8557	1485.4219	1506.3003	3036.7578	3057.5841	3065.6576	3073.1344	3079.8989	3083.717	3097.9393	3116.4601	3118.1857	3133.2347	3498.3221
C1CC2OC1CC1NC21	C1C[C@@H]2O[C@H]1C[C@H]1N[C@@H]21	
InChI=1S/C7H11NO/c1-2-6-7-5(8-7)3-4(1)9-6/h4-8H,1-3H2	InChI=1S/C7H11NO/c1-2-6-7-5(8-7)3-4(1)9-6/h4-8H,1-3H2/t4-,5-,6+,7-/m1/s1
