17
gdb 132770	2.27944	1.79292	1.01614	1.4498	78.73	-0.2524	-0.0146	0.2377	1138.4998	0.13573	-426.050251	-426.041728	-426.040784	-426.083712	30.962	
C	 0.0123563525	 1.5244979989	 0.0274040943	-0.500296
C	 0.0020970466	 0.0212432773	-0.0059140438	 0.119195
C	-0.0514038829	-0.7140937856	-1.1919763214	-0.056883
N	-0.0623094829	-2.0458157311	-1.260460357	-0.284267
C	-0.0186388699	-2.7155922987	-0.1081666386	-0.056882
C	 0.0373903216	-2.1228309428	 1.1550931229	 0.119194
C	 0.0857428113	-2.9157654194	 2.4317710769	-0.500296
C	 0.0459589264	-0.7329430432	 1.1607807715	 0.195004
F	 0.0985570634	-0.0947783915	 2.3377020727	-0.071374
H	 0.9139883331	 1.9073202859	 0.5169841848	 0.14083
H	-0.0254020733	 1.9320946961	-0.9857066579	 0.129712
H	-0.8431427147	 1.9177909671	 0.5865693801	 0.140842
H	-0.0874640007	-0.1812457002	-2.1405167564	 0.106918
H	-0.0282109147	-3.8017329693	-0.1800239239	 0.106918
H	 0.9922962967	-2.6953058993	 3.0051742879	 0.140845
H	-0.7645653049	-2.6809261852	 3.0806159073	 0.140828
H	 0.0679692622	-3.9875714689	 2.2199454805	 0.129712
88.9283	93.2739	140.2323	240.1352	256.901	277.2901	285.9884	484.7555	493.5362	499.6162	591.2227	600.4314	666.8057	779.2568	846.311	919.8491	955.6472	966.3691	1015.8976	1058.7476	1066.0273	1066.3072	1194.7172	1246.3929	1304.5952	1318.3911	1323.9864	1416.3824	1419.5969	1447.7965	1471.0318	1480.1033	1480.8602	1497.1965	1526.4824	1610.2274	1651.3348	3037.9932	3038.5548	3092.8186	3092.8959	3122.746	3122.9828	3142.005	3145.9342
CC1=CN=CC(C)=C1F	Cc1cncc(C)c1F	
InChI=1S/C7H8FN/c1-5-3-9-4-6(2)7(5)8/h3-4H,1-2H3	InChI=1S/C7H8FN/c1-5-3-9-4-6(2)7(5)8/h3-4H,1-2H3
