20
gdb 58921	2.80152	1.56822	1.22641	1.0116	78.3	-0.234	0.0589	0.2928	1086.7418	0.169765	-403.040264	-403.031809	-403.030865	-403.073405	32.77	
C	-0.0058832622	 1.5488207238	 0.0870767223	-0.39334
C	 0.0487677944	 0.0138884965	 0.0442555918	-0.13528
C	 0.6439873309	-0.504895159	-1.2723386927	-0.38614
C	 0.7978553604	-0.5134622156	 1.2335435362	 0.539357
O	 0.3099397447	-0.1741565016	 2.5763963043	-0.365536
C	 1.478788021	-0.9920453834	 2.8423461108	 0.065868
C	 1.2426941052	-1.9597934642	 1.6403390819	-0.143266
N	 2.6029947986	-1.7757340565	 1.034502913	-0.34896
C	 2.3110616034	-0.4362180785	 1.6441557663	-0.126015
H	 0.9940063967	 1.9772544193	-0.0459131539	 0.113596
H	-0.6437455215	 1.9323338187	-0.7151668073	 0.110602
H	-0.4006274804	 1.8999652975	 1.0436698961	 0.136501
H	-0.9778509891	-0.3673143209	 0.1389598815	 0.08868
H	 1.6751351754	-0.1620916442	-1.4006555693	 0.127798
H	 0.65508628	-1.5973154916	-1.309507973	 0.12538
H	 0.0553823091	-0.1373065571	-2.1186890045	 0.108792
H	 1.7594846999	-1.1914664302	 3.8776416517	 0.09294
H	 0.6766996055	-2.8911920203	 1.5973134172	 0.088186
H	 3.3031846476	-2.2682976978	 1.5949776427	 0.211459
H	 2.9956847504	 0.411824055	 1.608016815	 0.089377
54.4499	163.8448	180.5048	207.2595	241.4575	311.702	363.1314	449.4548	505.0311	546.5952	625.8662	762.7539	772.2432	814.8606	851.4771	873.1549	878.6323	906.8551	929.4518	934.6003	970.6559	998.45	1029.7196	1078.456	1101.9313	1119.1813	1147.7552	1149.522	1152.1978	1186.6147	1209.7773	1247.9851	1271.0894	1291.2542	1340.5052	1353.0264	1398.3147	1401.9144	1427.8354	1483.4082	1488.5478	1500.4184	1511.1332	3009.1988	3034.469	3042.1539	3099.734	3103.5405	3111.0093	3112.5752	3119.5677	3123.7543	3124.1639	3404.885
CC(C)C12OC3C1NC23	CC(C)[C@@]12O[C@H]3[C@@H]1N[C@@H]23	
InChI=1S/C7H11NO/c1-3(2)7-5-4(9-7)6(7)8-5/h3-6,8H,1-2H3	InChI=1S/C7H11NO/c1-3(2)7-5-4(9-7)6(7)8-5/h3-6,8H,1-2H3/t4-,5-,6+,7+
