20
gdb 100279	1.92875	1.52198	1.06195	4.7676	70.96	-0.2469	0.0076	0.2545	1209.1714	0.170175	-477.449496	-477.439643	-477.438699	-477.48393	36.534	
C	 0.8353146155	-0.1660820743	 1.3573141186	-0.335612
N	 0.1239185219	-0.0398218544	 0.0814379371	-0.341227
H	-0.7736119756	-0.51094879	 0.1639054362	 0.23308
H	-0.3902679109	 1.3790530382	-1.0120193875	 0.301294
C	 0.7904469895	-0.5325167189	-1.1455674596	 0.045946
C	 2.2880293542	-0.1886860238	-1.160799805	-0.408364
C	 0.5746591718	-2.0548158977	-1.3445268603	-0.076223
O	 1.2037870333	-2.5659376349	-2.4904872634	-0.418766
C	 0.1412935306	 0.2201973157	-2.3345394246	 0.444146
O	-0.4550252414	 1.3609549823	-1.997876376	-0.363981
O	 0.1881726813	-0.1801295618	-3.4757869911	-0.368238
H	 1.1969369387	-1.1817265856	 1.5721991451	 0.120822
H	 1.6889039022	 0.5142790137	 1.3833944443	 0.142899
H	 0.152435345	 0.1277535429	 2.1586583346	 0.132183
H	 2.8207036243	-0.7261964894	-0.371796899	 0.125004
H	 2.7105024903	-0.4983512086	-2.1168786369	 0.155935
H	 2.4520316432	 0.8850054464	-1.0298402532	 0.125072
H	 0.9943671873	-2.5852214271	-0.4813386722	 0.103873
H	-0.5135258575	-2.2500392123	-1.3513383523	 0.081194
H	 0.9023822665	-2.0041308704	-3.222861395	 0.300962
73.7483	128.668	171.6388	195.1575	223.6378	243.5033	266.6759	312.1962	324.3664	366.1923	396.0763	427.7571	571.0895	602.4361	640.196	744.2657	771.1774	805.6683	872.3574	946.0897	949.4022	988.7683	1076.3387	1105.7709	1109.3449	1154.2396	1168.7625	1206.2155	1231.9407	1239.3194	1295.8533	1383.146	1407.786	1432.0846	1459.0367	1476.6594	1482.3683	1495.3787	1496.3511	1498.1288	1510.5288	1525.3001	1828.8685	2934.7481	3001.6487	3049.6555	3052.4124	3092.776	3119.8949	3129.9613	3154.6277	3385.573	3492.0491	3680.1421
C[NH2+]C(C)(CO)C([O-])=O	CN[C@@](C)(CO)C(=O)O	
InChI=1S/C5H11NO3/c1-5(3-7,6-2)4(8)9/h6-7H,3H2,1-2H3,(H,8,9)	InChI=1S/C5H11NO3/c1-5(3-7,6-2)4(8)9/h6-7H,3H2,1-2H3,(H,8,9)/t5-/m0/s1
