21
gdb 110001	1.95206	1.50721	1.07651	2.4859	79.37	-0.2457	-0.0255	0.2202	1230.9262	0.180214	-424.216122	-424.206135	-424.205191	-424.251554	35.748	
C	 0.1460773798	 1.6455183235	-0.5356182025	-0.256578
O	 0.4347873037	 0.32460663	-0.1075138897	-0.236229
C	 0.7974072365	-0.5350087677	-1.1455091939	 0.147669
C	 1.2582164672	-1.9484775753	-0.6987719944	-0.033606
C	 0.8737967604	-2.3410842297	 0.7248415118	-0.390615
C	 0.3587253707	-2.5560488246	-1.8177250369	-0.263947
C	-0.3407234662	-1.1837661854	-2.0355497227	-0.144507
C	-1.7135883757	-1.0532582247	-1.4238109545	 0.173101
O	-2.5076321536	-0.1984843429	-1.7277794785	-0.260959
H	 1.0157377721	 2.0968329572	-1.0371007997	 0.104881
H	-0.7127464143	 1.6719577615	-1.2174699606	 0.138029
H	-0.0894338259	 2.2264090258	 0.358753311	 0.129844
H	 1.538147028	-0.0535796652	-1.8016404917	 0.071928
H	 2.3300737321	-2.1146108894	-0.8400188301	 0.0748
H	-0.194581666	-2.2018574055	 0.9158128254	 0.121531
H	 1.1120112282	-3.3955265555	 0.8999329858	 0.111588
H	 1.416148342	-1.7379572907	 1.4577595349	 0.128717
H	 0.911966055	-2.890511629	-2.6972581155	 0.109012
H	-0.2993903749	-3.3697504752	-1.4965771997	 0.104261
H	-0.3887264745	-0.8020942354	-3.0575390522	 0.093394
H	-1.9653588245	-1.8088298318	-0.6445471464	 0.077687
47.142	79.2329	142.7919	170.0338	190.1992	214.2164	224.1739	277.1579	314.6595	376.4341	447.014	505.2241	555.7937	743.1277	800.661	819.0894	865.2577	926.3861	944.3026	998.662	1011.7094	1030.4784	1084.2102	1096.7586	1130.6727	1162.2564	1181.9417	1191.315	1216.0196	1239.0064	1257.9504	1273.1117	1290.2615	1322.2381	1365.5545	1385.1056	1413.7227	1429.9783	1480.5239	1484.9826	1491.6738	1493.513	1498.2771	1512.845	1817.4264	2865.4515	2979.9002	2989.5059	3038.978	3052.1406	3058.4337	3062.6406	3089.3793	3106.0874	3115.0073	3119.5465	3124.8266
COC1C(C)CC1C=O	CO[C@H]1[C@@H](C)C[C@H]1C=O	
InChI=1S/C7H12O2/c1-5-3-6(4-8)7(5)9-2/h4-7H,3H2,1-2H3	InChI=1S/C7H12O2/c1-5-3-6(4-8)7(5)9-2/h4-7H,3H2,1-2H3/t5-,6-,7-/m0/s1
