21
gdb 119303	2.05363	1.20301	0.88953	1.0448	84.73	-0.2541	0.0481	0.3022	1387.2959	0.180762	-387.040698	-387.030711	-387.029766	-387.075706	37.134	
O	-0.3423034746	 1.4195507975	 0.3213023164	-0.42115
C	-0.0572217199	 0.0390146061	 0.1383336474	-0.087421
C	-1.3900871167	-0.6794794543	-0.0339567619	-0.229907
C	-1.2776480643	-2.2120243772	-0.1478740762	 0.129947
C	-0.9848936661	-2.9105096601	 1.2328638195	-0.250851
C	-2.4998535443	-3.1962507997	 1.3930121453	-0.216921
C	-2.6946014143	-2.892599175	-0.1144596864	-0.254216
C	-0.4208385698	-2.6075287581	-1.254401214	 0.270528
C	 0.2786506702	-2.9555205592	-2.1700932899	-0.457659
H	 0.4931340186	 1.8931280449	 0.3667158392	 0.285314
H	 0.5704709799	-0.1287971206	-0.7482919045	 0.101996
H	 0.4851950627	-0.3708974568	 1.0057437104	 0.08428
H	-2.0304923359	-0.4309339801	 0.8204698554	 0.10519
H	-1.8863559623	-0.2868631602	-0.9286001547	 0.111365
H	-0.3992506427	-3.8222207497	 1.0999829292	 0.11223
H	-0.5029857846	-2.2914977666	 1.9933234176	 0.103355
H	-2.7774924479	-4.1960053099	 1.7323720909	 0.101847
H	-2.9988378723	-2.4672875745	 2.0361936373	 0.107941
H	-3.5330954561	-2.2533251742	-0.4022024356	 0.103653
H	-2.7150453176	-3.7978777165	-0.7244066599	 0.111311
H	 0.8965882979	-3.2608233556	-2.9777690953	 0.189168
80.3593	102.8194	116.3107	152.5182	176.86	214.6535	259.289	318.9282	367.2963	397.8427	525.9415	533.2944	617.9978	620.5399	635.7144	716.967	793.0546	804.4717	864.298	920.3312	949.5569	955.2621	984.3822	1015.0329	1043.2317	1065.4217	1098.6454	1163.9917	1198.7647	1211.7891	1243.8255	1251.4203	1256.523	1269.4878	1277.8993	1301.6904	1331.5849	1342.3988	1462.7341	1473.2388	1483.6306	1488.1511	1505.3118	1528.9435	2224.1239	2969.7127	3017.0203	3036.3202	3062.3758	3065.3447	3072.0548	3082.0045	3106.6455	3121.9976	3132.4314	3501.5331	3831.58
OCCC1(CCC1)C#C	OCCC1(CCC1)C#C	
InChI=1S/C8H12O/c1-2-8(6-7-9)4-3-5-8/h1,9H,3-7H2	InChI=1S/C8H12O/c1-2-8(6-7-9)4-3-5-8/h1,9H,3-7H2
