18
gdb 56985	2.8828	1.27208	0.99	5.7141	75.45	-0.2473	0.0202	0.2675	1198.082	0.148782	-398.077193	-398.068662	-398.067718	-398.110684	31.918	
N	-0.0585055772	 1.4958699573	 0.0869555867	-0.501585
C	-0.1095998828	 0.0302738233	 0.0366815838	-0.160503
C	-1.5151918734	-0.4054611411	 0.0553535683	 0.313249
N	-2.6191512697	-0.7446043314	 0.0445740246	-0.316551
C	 0.6141094914	-0.5808051504	-1.1775611339	 0.063165
C	 2.1588404576	-0.4360060213	-1.2812854373	-0.304508
C	 2.1890802051	-1.9602555009	-1.3832795732	-0.003368
C	 1.5544540451	-2.5774548818	-0.2080675358	-0.241753
N	 0.6730191392	-2.0836917317	-1.2872770004	-0.135034
H	 0.9122930812	 1.7934848661	 0.1174830468	 0.240626
H	-0.4630307964	 1.8863757006	-0.7598476186	 0.242794
H	 0.3507322768	-0.3358307404	 0.9615702374	 0.129141
H	 0.1193292505	-0.2121233375	-2.080853389	 0.09914
H	 2.4780538	 0.0826983733	-2.1859599819	 0.120625
H	 2.6920312329	-0.0079505616	-0.4249703533	 0.10262
H	 2.7538614253	-2.5284270372	-2.114172922	 0.105252
H	 1.5450912574	-3.6606556817	-0.1452615196	 0.13347
H	 1.5884063271	-2.0760868437	 0.7562436575	 0.11322
59.4222	124.2669	171.6795	214.8326	246.1121	290.7928	363.9881	395.5661	462.6556	540.5442	602.5438	729.0531	761.0316	786.427	821.5491	858.1664	913.1207	955.522	967.6336	1002.0049	1052.1468	1074.1364	1103.4037	1110.5695	1117.4871	1133.5501	1168.8807	1202.8703	1230.0581	1266.9764	1285.5534	1294.72	1363.3932	1385.3542	1406.0065	1487.4105	1507.0187	1654.5197	2365.4649	3040.2439	3046.2833	3067.1346	3113.2801	3122.961	3173.9884	3204.0981	3488.4306	3574.9389
NC(C#N)C1CC2CN12	N[C@@H](C#N)[C@H]1C[C@H]2CN12	
InChI=1S/C6H9N3/c7-2-5(8)6-1-4-3-9(4)6/h4-6H,1,3,8H2	InChI=1S/C6H9N3/c7-2-5(8)6-1-4-3-9(4)6/h4-6H,1,3,8H2/t4-,5-,6+,9?/m0/s1
