20
gdb 15801	6.13835	0.9026	0.85135	2.4737	76.93	-0.2407	-0.0066	0.2341	1426.8312	0.175723	-349.024292	-349.01512	-349.014176	-349.058984	32.725	
C	-0.0262875288	 1.5748069413	-0.033259296	-0.38663
C	 0.0070586434	 0.0453561062	 0.012773949	-0.160769
C	 0.6933263337	-0.5678649281	-1.2066027077	-0.292563
C	 0.7442435604	-2.0882425145	-1.1946548948	 0.377613
O	 0.2744138619	-2.7442736144	-0.2865850942	-0.334786
C	 1.4066245221	-2.735905666	-2.3659595108	-0.101635
C	 2.1653354064	-4.0308518927	-2.1114062626	-0.24704
C	 0.8583063716	-4.0803751201	-2.8231741925	-0.247044
H	 0.9848147331	 1.9961034246	-0.0719153607	 0.11157
H	-0.5668696482	 1.9368794662	-0.9152949666	 0.111574
H	-0.522674092	 1.985788633	 0.851156454	 0.114822
H	 0.5209226604	-0.2949847321	 0.9181112931	 0.111908
H	-1.0103492912	-0.3534743927	 0.0856828759	 0.111957
H	 0.1958779134	-0.2576964673	-2.1378967737	 0.118685
H	 1.7255553627	-0.1997553533	-1.3062313548	 0.118653
H	 1.7966908344	-2.0707879645	-3.1284672347	 0.08473
H	 3.0782685308	-4.1879564457	-2.6741351141	 0.116605
H	 2.1840063089	-4.364031374	-1.0801194848	 0.137871
H	 0.0023211093	-4.4466635818	-2.2681662054	 0.137875
H	 0.8458750274	-4.272585834	-3.8898000684	 0.116604
51.0626	67.447	108.9567	133.1484	243.9638	259.9805	267.2791	319.5382	384.1748	575.4373	661.0187	746.295	788.2754	829.6267	832.0811	855.3747	888.2337	912.1572	938.5067	1044.908	1054.43	1077.3135	1093.0104	1110.385	1112.0525	1132.6234	1145.687	1211.3982	1223.6866	1248.5914	1311.0378	1321.4983	1384.7832	1411.3315	1414.8749	1451.3618	1452.95	1484.6375	1486.7304	1499.9929	1508.0584	1784.3037	3001.8207	3026.9521	3027.062	3049.7776	3074.1287	3099.2318	3102.5533	3140.6582	3142.0954	3170.2137	3228.1223	3242.6079
CCCC(=O)C1CC1	CCCC(=O)C1CC1	
InChI=1S/C7H12O/c1-2-3-7(8)6-4-5-6/h6H,2-5H2,1H3	InChI=1S/C7H12O/c1-2-3-7(8)6-4-5-6/h6H,2-5H2,1H3
