18
gdb 26941	2.91648	1.36555	0.98478	1.3645	78.51	-0.2174	0.0157	0.2331	1191.1576	0.14868	-401.952839	-401.944513	-401.943569	-401.986398	30.823	
C	 0.0033788672	 1.4250004566	-0.2439666907	-0.493277
C	-0.1026762996	-0.0461813348	-0.0551944707	 0.273346
C	-1.1524646951	-0.9162438013	 0.0432672041	 0.139881
C	-0.5681529312	-2.2163842426	 0.2633217396	-0.274924
C	 0.7737389632	-2.0356604662	 0.2689620196	-0.01689
O	 1.0753415495	-0.7223298932	 0.0771081018	-0.17873
C	-2.6051180324	-0.6220036444	-0.0218831134	-0.126272
C	-3.1849630086	 0.2037071782	-1.1141904682	-0.23646
N	-3.4372436442	-1.2460072519	-1.0764488965	-0.317279
H	 0.5670131455	 1.6753530788	-1.1501632381	 0.136673
H	-0.9924524001	 1.8635393569	-0.3233682946	 0.141224
H	 0.5189650423	 1.896705251	 0.600324673	 0.139729
H	-1.0972093046	-3.1480951254	 0.391593115	 0.117056
H	 1.6163462995	-2.6966940269	 0.3867810428	 0.133829
H	-3.1188956792	-0.6049245902	 0.9383002776	 0.1022
H	-4.0549715283	 0.8249420457	-0.9207346066	 0.117547
H	-2.5097139258	 0.590919207	-1.8717406297	 0.111702
H	-2.8203899983	-1.7034981674	-1.7447629451	 0.230644
56.3533	117.4121	155.2421	165.5669	236.7367	313.4673	391.89	475.5364	598.8594	625.9383	686.4699	716.1164	750.966	830.5194	842.7423	870.9697	912.7364	957.8212	964.9089	1002.6273	1063.2836	1063.3652	1106.7172	1143.8694	1146.8702	1172.3101	1187.005	1237.4725	1248.4419	1285.8665	1306.9513	1387.1564	1413.6182	1450.5931	1475.6435	1487.2653	1507.7098	1554.1825	1657.2166	3030.9625	3079.4098	3108.1767	3112.6292	3140.863	3197.1096	3251.8828	3284.3196	3489.3992
CC1=C(C=CO1)C1CN1	Cc1c(cco1)[C@H]1CN1	
InChI=1S/C7H9NO/c1-5-6(2-3-9-5)7-4-8-7/h2-3,7-8H,4H2,1H3	InChI=1S/C7H9NO/c1-5-6(2-3-9-5)7-4-8-7/h2-3,7-8H,4H2,1H3/t7-/m1/s1
