22
gdb 70751	2.39837	1.58044	1.17215	1.7948	81.38	-0.2326	0.0788	0.3114	1145.7508	0.196344	-404.33216	-404.323768	-404.322824	-404.36457	33.673	
C	 0.0379040552	 1.5098752098	-0.0343027697	-0.448963
C	-0.0127909565	-0.0018549055	 0.0067882785	 0.32249
C	-1.3047919604	-0.603683568	-0.5314991784	-0.154474
O	-2.3625044875	-0.5357150398	 0.411577835	-0.239665
C	-2.436072085	-1.6414678352	 1.2953711753	-0.064272
C	-1.2969468923	-1.7694240183	 2.3167740802	-0.193958
C	 0.0897728287	-2.0081588308	 1.6911366848	-0.24405
C	 0.6774794677	-0.7380780732	 1.0964875658	-0.025776
N	 1.2761701392	-0.6831492058	-0.2528632312	-0.392566
H	 0.9543364686	 1.8819136692	 0.4301574093	 0.12153
H	 0.0120847624	 1.8731639727	-1.0682158744	 0.114638
H	-0.8235356333	 1.9306280304	 0.4949912217	 0.126112
H	-1.6402058074	-0.0365344645	-1.4075585935	 0.104716
H	-1.1480620874	-1.6444445858	-0.8550783105	 0.078974
H	-3.3871332448	-1.523492687	 1.8249018911	 0.106892
H	-2.4980622775	-2.5757715042	 0.7097612841	 0.083856
H	-1.2702998997	-0.8714978753	 2.9459964325	 0.107475
H	-1.5536758993	-2.6088500844	 2.9761968327	 0.094725
H	 0.7775091166	-2.3988780022	 2.4492396406	 0.103342
H	 0.0131993971	-2.7912311377	 0.925427284	 0.090732
H	 1.2229272512	-0.1292776642	 1.8168713783	 0.089108
H	 1.1121981344	-1.5683914101	-0.730408746	 0.219135
132.5303	166.9781	216.6696	260.7441	307.6776	335.1639	344.6709	396.7783	435.3546	463.6598	525.2656	569.3109	742.0695	765.0426	822.7192	878.122	902.0501	918.2746	958.9994	977.4159	989.269	1028.7117	1047.0582	1075.8655	1107.8253	1122.7255	1131.8857	1149.9673	1186.5942	1250.6885	1259.5387	1276.7781	1313.6557	1338.6965	1351.3301	1368.8535	1383.7565	1393.417	1411.1588	1423.0564	1458.9507	1476.5099	1482.7525	1488.4453	1490.1877	1498.6122	1503.5812	2950.1633	2976.5208	3019.5039	3022.049	3030.5228	3056.9937	3061.6852	3066.2055	3074.4781	3094.9204	3110.5825	3122.668	3469.1763
CC12COCCCC1N2	C[C@]12COCCC[C@H]1N2	
InChI=1S/C7H13NO/c1-7-5-9-4-2-3-6(7)8-7/h6,8H,2-5H2,1H3	InChI=1S/C7H13NO/c1-7-5-9-4-2-3-6(7)8-7/h6,8H,2-5H2,1H3/t6-,7+/m1/s1
