21
gdb 106271	2.72902	1.219	1.00581	1.9686	79.17	-0.2446	0.0645	0.3091	1262.6902	0.181052	-424.176002	-424.166408	-424.165464	-424.210081	36.448	
C	 0.0111139475	 1.4620059545	 0.0381962084	-0.511513
C	 0.0101639757	-0.04195753	-0.0059283596	 0.279183
C	 0.6016604134	-0.974280699	-1.105941777	-0.285941
C	 0.0039876526	-1.9504907994	-0.0522114099	 0.268352
C	 0.0037317363	-3.4550264805	-0.0812678431	-0.200984
O	 1.3118763933	-4.0128797327	-0.0856078129	-0.413956
C	 0.6491229325	-1.0239027535	 1.0317552138	-0.349474
C	-1.2315949888	-0.9924149205	-0.0329520716	 0.109585
O	-2.1682841739	-1.0100973263	 1.0092741462	-0.453886
H	 1.0297340949	 1.8599364869	 0.1003410808	 0.11905
H	-0.4597567585	 1.8795869449	-0.8583676329	 0.122311
H	-0.5471058532	 1.8271148688	 0.9074822996	 0.119725
H	 0.1162865835	-0.950111434	-2.0867435229	 0.088862
H	 1.6896677197	-0.9817801003	-1.1975285778	 0.098341
H	-0.5948939616	-3.8401889639	 0.7604472739	 0.089524
H	-0.4732624782	-3.8080765289	-1.0024910325	 0.113269
H	 1.7477669066	-3.7335656046	 0.725964964	 0.282056
H	 1.7422907553	-1.0191518467	 1.0822746714	 0.092983
H	 0.2344931337	-1.0468999272	 2.0463970715	 0.071891
H	-1.8185936209	-0.9715826725	-0.9562273633	 0.079147
H	-1.7079523898	-0.9840719051	 1.8541856739	 0.281474
79.2382	130.3157	180.3039	197.9783	207.9557	243.4534	278.0049	318.8202	350.3402	370.8076	510.8351	537.8123	595.1627	651.9247	671.7023	755.2535	814.9032	883.8102	899.8822	941.9041	988.8628	1011.5597	1027.6293	1050.2455	1076.8623	1110.397	1127.1507	1139.1366	1147.3573	1165.788	1181.6361	1215.0231	1242.3828	1282.6711	1305.6057	1353.1577	1375.5837	1410.555	1419.653	1452.9255	1488.7285	1489.0184	1496.7347	1504.5963	1551.5062	2971.7399	3024.7453	3027.6889	3048.7342	3064.7299	3072.1858	3086.0299	3093.6204	3096.1195	3121.421	3814.1162	3816.3777
CC12CC(CO)(C1)C2O	C[C@@]12C[C@@](CO)(C1)[C@H]2O	
InChI=1S/C7H12O2/c1-6-2-7(3-6,4-8)5(6)9/h5,8-9H,2-4H2,1H3	InChI=1S/C7H12O2/c1-6-2-7(3-6,4-8)5(6)9/h5,8-9H,2-4H2,1H3/t5-,6-,7+/m0/s1
