16
gdb 97782	3.14139	0.78894	0.66749	3.636	80.19	-0.2658	-0.0124	0.2534	1672.2878	0.122183	-400.708743	-400.699251	-400.698307	-400.745408	32.49	
C	 0.0023722096	 1.5794103663	-0.1991772534	-0.369142
C	-0.0137283065	 0.0987599348	 0.2239293089	-0.322305
C	-1.3507617562	-0.4808590502	 0.2298669308	 0.166692
C	-2.4603143845	-0.9500708041	 0.2181625723	 0.062352
C	-3.7826917454	-1.4995513186	 0.2298962882	-0.164829
O	-4.3425903863	-1.9558964391	-1.0129508581	-0.215219
C	-4.0514285917	-2.9414252492	-0.031099983	-0.097185
C	-2.97093118	-3.8601070316	-0.316555133	 0.313555
N	-2.1268565766	-4.6226457672	-0.519283738	-0.320971
H	 1.0261021344	 1.9637157538	-0.1856039393	 0.121911
H	-0.3982782725	 1.6992457992	-1.2090335587	 0.135716
H	-0.6030082569	 2.1853469414	 0.4800689424	 0.130595
H	 0.6235413924	-0.488399014	-0.4487106733	 0.146571
H	 0.4241930625	-0.0067357591	 1.2245566931	 0.139607
H	-4.5069452573	-0.9964084395	 0.8700045903	 0.12965
H	-4.918146705	-3.4024891929	 0.4400264608	 0.143002
15.8454	57.638	103.6504	144.888	212.285	230.8122	242.4197	352.1667	424.7292	474.5871	541.617	586.5141	609.8666	727.1208	783.8422	830.6603	864.3617	962.0115	974.4864	1067.3654	1082.9974	1103.6647	1121.6688	1178.6214	1271.4106	1284.5193	1348.6142	1371.3888	1410.518	1418.5	1470.0044	1495.6522	1505.171	2363.3676	2367.3302	3028.0397	3048.5536	3058.3701	3114.3628	3123.4941	3128.2718	3130.6354
CCC#CC1OC1C#N	CCC#C[C@H]1O[C@H]1C#N	
InChI=1S/C7H7NO/c1-2-3-4-6-7(5-8)9-6/h6-7H,2H2,1H3	InChI=1S/C7H7NO/c1-2-3-4-6-7(5-8)9-6/h6-7H,2H2,1H3/t6-,7+/m1/s1
