19
gdb 24423	3.32737	1.51252	1.0852	0.856	81.28	-0.2051	0.0272	0.2323	1110.6492	0.163233	-385.947536	-385.940442	-385.939498	-385.978928	28.805	
C	-0.0216368545	 1.4990423256	-0.0480573848	-0.19457
C	 1.3935303904	 2.1013620763	 0.0133253956	-0.195408
C	 2.1014042426	 1.7914858386	 1.3485652483	-0.326174
C	 1.903891601	 0.3478156455	 1.7104173818	 0.208864
C	 0.9632406895	-0.4294104512	 1.1090505707	 0.304223
C	 0.000260519	-0.0420177214	 0.0431965192	-0.326222
O	 0.9898363291	-1.6958447094	 1.6106761138	-0.197512
C	 1.9723519493	-1.7188350589	 2.5561545358	-0.020598
C	 2.5644565592	-0.5016254272	 2.6634392924	-0.314648
H	-0.6171476093	 1.8970552068	 0.7833193416	 0.103118
H	-0.5234825206	 1.806311944	-0.9712885351	 0.095593
H	 1.9912752306	 1.6935447025	-0.8121966258	 0.100718
H	 1.3452550489	 3.1848821074	-0.1390815267	 0.093103
H	 3.1681640743	 2.0339740241	 1.2724225547	 0.103339
H	 1.7017910303	 2.4408738844	 2.140703813	 0.106468
H	-1.0017307388	-0.4310469153	 0.2595515556	 0.113491
H	 0.2956850619	-0.4756496203	-0.9232410663	 0.112374
H	 2.119647114	-2.6637154351	 3.052480916	 0.128838
H	 3.370409183	-0.2389610966	 3.3317240503	 0.105003
113.3275	208.2473	282.679	309.6109	363.9164	440.6407	488.0438	614.8692	653.6474	667.1733	703.3295	735.378	816.2509	836.6932	852.9392	909.3072	921.967	930.78	962.847	1064.2475	1067.9134	1100.2955	1129.2341	1152.5429	1156.352	1189.3301	1246.5739	1257.7972	1263.8051	1285.6013	1341.7534	1368.3565	1372.9078	1388.4381	1452.1452	1479.7698	1487.7525	1491.2248	1501.7225	1540.4373	1665.597	3000.8314	3002.5167	3021.8548	3028.3076	3048.763	3053.4717	3072.3915	3078.2179	3246.5758	3282.5414
C1CCC2=C(C1)OC=C2	C1CCc2c(C1)occ2	
InChI=1S/C8H10O/c1-2-4-8-7(3-1)5-6-9-8/h5-6H,1-4H2	InChI=1S/C8H10O/c1-2-4-8-7(3-1)5-6-9-8/h5-6H,1-4H2
