21
gdb 117796	2.16556	1.1213	1.00224	2.3428	81.38	-0.2493	0.0512	0.3005	1352.8759	0.17892	-424.17604	-424.165046	-424.164102	-424.211949	39.688	
C	-0.1662474246	 1.3414528281	-0.1256220681	-0.23376
O	-0.2189661284	-0.0666207415	-0.2011669222	-0.255351
C	 0.676027119	-0.6025153688	-1.1616028431	-0.0956
C	 0.6577024044	-2.1431548483	-1.0485305859	 0.029169
C	 1.3773549628	-2.6007841694	 0.2387375561	-0.425363
C	-0.8198438933	-2.6455162628	-0.9940275267	-0.074415
O	-1.6787021357	-1.9864784169	-1.8987606438	-0.427284
C	 1.3386156753	-2.68217134	-2.2267889566	 0.33096
C	 1.9092786864	-3.1214329203	-3.1895255952	-0.485849
H	 0.8328631323	 1.69106007	 0.1745499464	 0.112995
H	-0.4202480648	 1.8116072717	-1.0879638683	 0.111264
H	-0.8934952076	 1.6558784425	 0.6265868601	 0.131342
H	 0.3711541713	-0.3023656677	-2.1733742039	 0.112243
H	 1.6969805663	-0.2290256274	-0.9901091262	 0.100587
H	 0.9499346202	-2.0832554905	 1.1018938384	 0.128641
H	 1.2645593466	-3.6792739192	 0.3841156888	 0.124038
H	 2.4464687964	-2.3784030389	 0.1870840612	 0.122617
H	-0.8389896642	-3.7083449649	-1.2507464119	 0.115555
H	-1.1746118152	-2.5379683628	 0.0392449051	 0.096554
H	-1.8277318706	-1.1093564312	-1.5273037532	 0.288004
H	 2.4016252033	-3.5149566519	-4.0440969311	 0.193653
81.5197	94.1026	113.3863	123.7112	182.6271	212.9132	231.6258	243.4942	271.9387	339.1767	367.0897	420.2757	454.5915	509.4195	558.1025	596.6506	623.9806	641.1736	767.4865	885.6389	911.1639	970.8873	988.2243	1008.0437	1088.9526	1142.4154	1146.8123	1173.8573	1191.5658	1203.5644	1233.2316	1280.7447	1288.0028	1393.7272	1398.6111	1419.994	1425.9524	1478.8936	1485.8381	1489.2513	1495.1987	1498.3548	1502.8934	1525.4717	2232.7049	2977.8453	2990.7583	3016.031	3028.4193	3034.5087	3042.8565	3093.6206	3116.4241	3118.1226	3125.1783	3502.7475	3797.2132
COCC(C)(CO)C#C	COC[C@@](C)(CO)C#C	
InChI=1S/C7H12O2/c1-4-7(2,5-8)6-9-3/h1,8H,5-6H2,2-3H3	InChI=1S/C7H12O2/c1-4-7(2,5-8)6-9-3/h1,8H,5-6H2,2-3H3/t7-/m1/s1
