23
gdb 102161	1.57157	1.25529	0.85636	1.9332	87.59	-0.2523	0.0585	0.3108	1489.3814	0.202435	-388.258668	-388.247331	-388.246386	-388.295175	41.441	
C	 0.6153706816	-0.3801519107	 1.4932100067	-0.395696
C	-0.3018135717	-0.0095060669	 0.3162061146	 0.022114
C	-0.7996386436	 1.4375735299	 0.4532427282	-0.400292
C	 0.3259605327	-0.274514334	-1.0754023791	 0.041458
C	 1.7025651752	 0.3670290799	-1.2635285644	-0.102649
O	 2.0367203105	 0.2797382333	-2.644197304	-0.423784
C	 0.4130465549	-1.7830135894	-1.423984487	-0.37806
C	-0.8840927501	-2.4416558279	-1.5050893615	 0.303223
C	-1.963181387	-2.9683686884	-1.5735188731	-0.450126
H	 0.9738927543	-1.4124733766	 1.4317456135	 0.114248
H	 1.4909183287	 0.2767122387	 1.5475247542	 0.111561
H	 0.0761068929	-0.2794802295	 2.4406027699	 0.113642
H	-1.1844324211	-0.6589375477	 0.3696659294	 0.093358
H	 0.0241897355	 2.159929173	 0.4324100934	 0.111506
H	-1.4919196412	 1.6974506714	-0.3541981794	 0.115198
H	-1.3269019649	 1.5759924612	 1.4029830764	 0.11049
H	-0.3312839352	 0.1844628637	-1.8245651494	 0.091549
H	 1.6777256075	 1.4164243018	-0.9352542017	 0.088943
H	 2.4514542102	-0.1538597554	-0.6468675398	 0.08636
H	 2.9357348345	 0.6005913606	-2.7582302247	 0.287494
H	 0.9331481467	-1.8752572696	-2.3831557488	 0.148256
H	 1.0392954504	-2.2996678066	-0.684373447	 0.120593
H	-2.9101129407	-3.4436016609	-1.6400784464	 0.190611
52.9343	83.8365	111.7712	138.059	217.5734	221.4886	243.5673	251.4415	266.956	300.5262	330.2359	352.6455	428.4085	456.841	549.5495	558.6371	608.7093	632.0802	763.353	873.7878	913.1608	929.9223	964.1008	969.1796	998.4672	1009.6357	1060.2998	1107.8302	1132.9186	1152.1709	1203.0584	1227.433	1240.5147	1265.4541	1316.7162	1340.7408	1349.9111	1379.2385	1394.1711	1403.3773	1426.1616	1455.5037	1477.6328	1485.9075	1497.5388	1508.3008	1510.374	1522.8481	2234.2574	2976.0297	3007.9553	3018.8656	3026.4241	3029.0642	3034.1942	3039.2478	3075.9869	3090.4844	3098.3701	3099.8183	3101.8577	3506.945	3834.1751
CC(C)C(CO)CC#C	CC(C)[C@@H](CO)CC#C	
InChI=1S/C8H14O/c1-4-5-8(6-9)7(2)3/h1,7-9H,5-6H2,2-3H3	InChI=1S/C8H14O/c1-4-5-8(6-9)7(2)3/h1,7-9H,5-6H2,2-3H3/t8-/m1/s1
