23
gdb 110629	2.34414	1.35794	1.04789	0.2514	89.83	-0.1993	0.083	0.2824	1290.9948	0.205223	-351.083796	-351.074596	-351.073651	-351.117632	36.135	
C	-0.6615846194	 1.4676471233	-0.423741363	-0.403224
C	 0.0365844221	 0.2084929886	 0.1065765704	-0.20956
C	 0.8074697096	-0.5157256996	-1.004205654	-0.054706
C	 2.1351991614	-1.250048339	-0.998542476	-0.147539
C	 2.3718231267	-2.2944385711	 0.1226048165	-0.044521
C	 1.2692555282	-2.4189399377	 1.135097847	-0.307955
C	 1.0720790921	-2.9902216371	-0.2459858761	-0.109427
C	 0.8477496538	-1.9694778158	-1.4060536192	 0.319712
C	 0.417108739	-2.4721738495	-2.7546637206	-0.489668
H	 0.0640225603	 2.1779841888	-0.8352378755	 0.11636
H	-1.3709374053	 1.2187402363	-1.2207120919	 0.11643
H	-1.2160689568	 1.9783680782	 0.3697859372	 0.109337
H	 0.7140517116	 0.4939241826	 0.9191819459	 0.108437
H	-0.7186410832	-0.4535117032	 0.5423811842	 0.109559
H	 0.779276285	 0.0762263531	-1.9216924326	 0.079139
H	 2.9457684611	-0.9278073641	-1.6426764045	 0.078151
H	 3.3439518405	-2.7444221543	 0.2785622543	 0.08484
H	 1.4570342158	-3.1827271312	 1.8859659835	 0.106383
H	 0.7194558396	-1.572367411	 1.5173447176	 0.111462
H	 0.9047171192	-4.0492260606	-0.3998417754	 0.082643
H	-0.6430129869	-2.7580107161	-2.7554832568	 0.115582
H	 0.5549048403	-1.7064481569	-3.5250393791	 0.11395
H	 0.9935436352	-3.3562022435	-3.0540482019	 0.114616
50.094	170.9575	186.8442	208.9958	220.0884	270.5379	293.0648	345.3453	384.3678	481.7159	555.6016	639.6846	687.1764	753.8541	763.3844	797.5679	844.1356	879.7545	902.0487	919.3454	932.0797	967.9413	983.6627	1009.9274	1031.8424	1061.2186	1075.9884	1083.5271	1086.0062	1116.9614	1130.588	1164.2788	1183.636	1220.9154	1266.3083	1294.4696	1308.7176	1322.9505	1339.3902	1378.2139	1408.3929	1412.4908	1473.0958	1482.703	1486.5329	1498.8023	1499.7325	1503.3175	1509.379	3010.2283	3028.4736	3032.6391	3063.8094	3067.4891	3076.8129	3093.2521	3099.7416	3102.5987	3132.5143	3165.3507	3179.0605	3192.472	3250.2658
CCC1C2C3CC3C12C	CC[C@H]1[C@H]2[C@H]3C[C@H]3[C@@]12C	
InChI=1S/C9H14/c1-3-6-8-5-4-7(5)9(6,8)2/h5-8H,3-4H2,1-2H3	InChI=1S/C9H14/c1-3-6-8-5-4-7(5)9(6,8)2/h5-8H,3-4H2,1-2H3/t5-,6-,7+,8+,9+/m0/s1
