15
gdb 14297	3.89544	1.88535	1.80391	0.5423	60.94	-0.2371	0.0181	0.2552	798.5172	0.118743	-399.794369	-399.787032	-399.786087	-399.825988	26.88	
C	 0.0532703249	 1.4268726145	 0.1423871705	-0.480827
C	 0.0014816516	-0.0523843835	-0.0046120405	 0.413218
N	 0.0321979544	-0.7199393951	-1.0949142026	-0.320771
C	 0.0346777471	-2.1121752872	-0.7219658023	-0.110743
C	 1.2259202334	-2.5558786369	 0.1095641882	 0.070862
O	 2.3661028924	-1.7686783052	 0.2101562925	-0.419573
C	-0.0339931805	-2.1184523161	 0.808678821	 0.01284
O	-0.0967903639	-0.752486373	 1.1620381887	-0.230678
H	 0.9815831336	 1.724918872	 0.6401046055	 0.153412
H	 0.0045317311	 1.8934368641	-0.8410217238	 0.152535
H	-0.7776965284	 1.7762843913	 0.7623288751	 0.146821
H	-0.4647035249	-2.8056635619	-1.3881835935	 0.10069
H	 1.4026586071	-3.6306605979	 0.122781786	 0.100942
H	 2.5500370495	-1.4019535013	-0.6623269792	 0.297429
H	-0.6165331775	-2.7588471138	 1.4579239443	 0.113845
113.9837	131.8553	154.6954	254.7821	298.6106	341.1315	565.4597	601.6903	652.533	684.4692	772.5451	778.7091	821.3443	917.4656	963.3931	993.4351	1028.5139	1057.1785	1070.7178	1081.2479	1119.3338	1136.7337	1211.4665	1251.7421	1327.4783	1341.649	1356.6738	1412.8307	1415.6038	1473.3325	1478.4704	1699.8338	3051.823	3110.4217	3113.2549	3164.69	3178.3796	3201.1548	3793.327
CC1=NC2C(O)C2O1	CC1=N[C@H]2[C@@H](O)[C@H]2O1	
InChI=1S/C5H7NO2/c1-2-6-3-4(7)5(3)8-2/h3-5,7H,1H3	InChI=1S/C5H7NO2/c1-2-6-3-4(7)5(3)8-2/h3-5,7H,1H3/t3-,4+,5-/m0/s1
