18
gdb 107497	2.04526	1.95654	1.28195	3.9436	71.85	-0.2411	0.0693	0.3104	1032.2914	0.14726	-439.005114	-438.997062	-438.996118	-439.03756	31.233	
O	-0.0110193149	 1.4290744341	 0.190711005	-0.41992
C	-0.0279306291	 0.062257337	-0.1642361559	-0.168259
C	-1.3854995294	-0.5683378663	-0.0309100972	 0.2207
C	-1.9026267216	-1.6934427932	-0.8416349156	-0.293944
N	-2.5403181009	-0.3743618229	-1.0107181517	-0.154966
C	-3.4784620359	-0.2288549419	 0.1636560643	-0.252887
C	-2.312780243	-0.351782561	 1.144034817	 0.382534
C	-2.1841145217	-0.7017637724	 2.5592616167	-0.273495
O	-2.043485919	 0.6606841528	 2.1099057457	-0.280051
H	-0.4227905965	 1.5006542777	 1.0613573234	 0.296679
H	 0.2976648618	-0.0022924044	-1.2080003862	 0.119068
H	 0.691792269	-0.5234450566	 0.4357696468	 0.08661
H	-1.3191835036	-1.9968344099	-1.7062198274	 0.128508
H	-2.4597525422	-2.4999370447	-0.3675859002	 0.110665
H	-3.9177637181	 0.770671208	 0.1759544264	 0.136965
H	-4.2683687509	-0.9858692837	 0.2016451256	 0.111375
H	-3.0751812601	-0.8932854143	 3.1545235707	 0.126367
H	-1.2710469338	-1.1699471682	 2.9235043026	 0.124052
105.9264	148.3459	181.9572	228.2253	303.0087	394.376	415.2477	450.6472	498.7767	533.8216	582.9873	666.7768	740.5548	827.1776	847.8105	881.6371	903.9618	969.4395	975.6246	1014.426	1073.2264	1081.0809	1106.7305	1120.0343	1125.8665	1144.4626	1161.7866	1194.3804	1217.7019	1273.7125	1314.4887	1347.9869	1388.5033	1444.2655	1453.6488	1483.5047	1488.5988	1507.0449	1535.2283	2942.6172	3051.1018	3070.9008	3088.0758	3095.9898	3122.7824	3177.1288	3189.4783	3768.7649
OCC12CN1CC21CO1	OC[C@]12CN1C[C@]12CO1	
InChI=1S/C6H9NO2/c8-3-5-1-7(5)2-6(5)4-9-6/h8H,1-4H2	InChI=1S/C6H9NO2/c8-3-5-1-7(5)2-6(5)4-9-6/h8H,1-4H2/t5-,6+,7?/m0/s1
