19
gdb 71029	3.87042	1.602	1.34439	1.799	79.32	-0.2361	0.0922	0.3283	988.2777	0.160554	-385.801731	-385.794821	-385.793877	-385.832518	28.934	
C	-0.0530122105	 1.4923749352	-0.0659337894	-0.510397
C	 0.0520346104	-0.0084653416	-0.0305996756	 0.292527
C	 0.7052866379	-0.9424278113	-1.1126368501	-0.386289
C	 0.1997277117	-1.8959703856	-0.0154401588	 0.272508
C	-0.0275204616	-3.2478938548	 0.6208439238	-0.189466
O	-0.7056500228	-2.7983565582	 1.8246761577	-0.300126
C	-0.7616157247	-1.3532354367	 1.7058139349	 0.087982
C	 0.587553177	-0.9006741715	 1.136234045	-0.121775
C	-1.0913902695	-1.0392283746	 0.2422095859	-0.121773
H	 0.9378965702	 1.9578208623	-0.1121096395	 0.119409
H	-0.6195994997	 1.8292894217	-0.9412281078	 0.11941
H	-0.5603917618	 1.8693721451	 0.8287341876	 0.120452
H	 0.2046572574	-0.995595558	-2.0850284697	 0.096621
H	 1.7899661809	-0.8647661356	-1.2408601285	 0.096621
H	-0.6855705001	-3.9146187526	 0.0521445319	 0.103908
H	 0.8890313534	-3.7846728886	 0.8906070454	 0.103908
H	-1.2641218076	-0.9592659113	 2.5884444785	 0.076001
H	 1.5691981587	-0.858662919	 1.6107822135	 0.070239
H	-2.0282904693	-1.155541565	-0.304852785	 0.070238
209.6054	231.7478	232.886	319.4015	384.7503	467.1767	467.4558	574.163	711.5694	731.9106	738.0139	821.5236	840.1703	865.6687	887.7566	898.2472	928.1053	965.9214	991.9111	1013.1151	1014.0595	1041.3861	1078.8488	1120.518	1139.6963	1143.2306	1151.5235	1179.4718	1185.2514	1189.4711	1227.7081	1232.0572	1255.3484	1315.3069	1351.5902	1375.9672	1411.2822	1485.9504	1493.2249	1510.3765	1522.3401	3024.5166	3026.5434	3035.5208	3068.9956	3089.686	3094.9189	3095.2919	3100.8108	3102.9002	3130.2289
CC12CC34COC(C13)C24	C[C@@]12C[C@@]34CO[C@@H]([C@H]13)[C@@H]24	
InChI=1S/C8H10O/c1-7-2-8-3-9-4(5(7)8)6(7)8/h4-6H,2-3H2,1H3	InChI=1S/C8H10O/c1-7-2-8-3-9-4(5(7)8)6(7)8/h4-6H,2-3H2,1H3/t4-,5+,6-,7+,8+
