16
gdb 67316	3.25921	1.44273	1.21827	3.3584	73.52	-0.2446	0.025	0.2696	1020.5087	0.125891	-396.841832	-396.83446	-396.833516	-396.873585	28.875	
N	 0.173681263	 1.3760026142	-0.0483048209	-0.631184
C	 0.0589827575	-0.0322936704	-0.0697712656	 0.366181
C	 0.3335126803	-0.9886522116	 1.1303652229	-0.066544
N	-1.0861445305	-0.8968322295	 1.5990124823	-0.356855
C	-1.1897151353	-1.0017141556	 0.106905982	-0.08212
C	 0.0393747727	-1.9458019177	-0.0724557055	-0.06312
C	 0.7505228459	-0.9934390474	-1.0723100309	-0.218279
C	 0.2797774696	-0.9754142906	-2.448583778	 0.260521
N	-0.1140866283	-0.9508921656	-3.5358846536	-0.332998
H	-0.2447309489	 1.7917509999	-0.8753854472	 0.246205
H	-0.3076255601	 1.7486267492	 0.7656095016	 0.251892
H	 1.1963163639	-0.9882997814	 1.7975432327	 0.093133
H	-1.375178601	-1.7733212253	 2.0413620917	 0.21332
H	-2.1347663796	-1.0067369094	-0.4352118065	 0.101218
H	 0.0415758148	-3.0341434714	-0.0690521348	 0.095699
H	 1.8438754258	-0.9940606075	-1.0393098501	 0.122931
125.7913	127.4209	248.9795	308.5977	328.4207	401.4399	454.1969	527.6272	608.3431	665.9452	748.2468	808.0827	833.8621	847.0778	871.0927	893.8231	901.1625	944.8558	956.2351	1030.4052	1035.6798	1065.9499	1096.0676	1122.2991	1138.7518	1162.9539	1210.9251	1217.361	1283.9911	1288.3355	1316.6302	1349.5662	1414.3574	1643.5641	2349.6312	3075.5867	3112.4125	3125.6265	3145.3501	3407.474	3492.2347	3573.6048
NC12C3NC1C3C2C#N	N[C@@]12[C@H]3N[C@@H]1[C@H]3[C@H]2C#N	
InChI=1S/C6H7N3/c7-1-2-3-4-6(2,8)5(3)9-4/h2-5,9H,8H2	InChI=1S/C6H7N3/c7-1-2-3-4-6(2,8)5(3)9-4/h2-5,9H,8H2/t2-,3-,4-,5+,6-/m1/s1
