19
gdb 67047	2.1258	2.03576	1.58963	0.9608	73.69	-0.2188	0.0635	0.2823	960.7468	0.159187	-422.9975	-422.989549	-422.988604	-423.029296	32.005	
C	 0.0642751757	 1.5124556068	 0.0574359588	-0.486645
C	-0.0132660478	 0.0149875032	-0.0896664856	 0.3482
C	 0.7940850096	-0.6527514088	-1.2032990461	-0.24107
C	 0.3583508389	-2.1434384123	-1.1281395015	-0.234188
C	-0.9425791363	-2.1033641622	-0.3250108431	-0.125157
C	-0.8609098199	-1.4592763744	 1.0663206956	-0.004817
O	 0.3291247546	-0.680504243	 1.1704686997	-0.340296
C	-1.4041918754	-0.6936452642	-0.0977446533	 0.264462
O	-2.6266652701	-0.1859033377	-0.4749468821	-0.452485
H	 1.0929155012	 1.822885925	 0.2657251237	 0.131668
H	-0.2649458577	 2.0064056827	-0.8622981879	 0.125703
H	-0.5636358697	 1.8574048819	 0.8848285293	 0.11517
H	 0.5216450777	-0.20815368	-2.1680856584	 0.100239
H	 1.8698722501	-0.5164197655	-1.0587681372	 0.103379
H	 0.1989535197	-2.5722608454	-2.1212952546	 0.100816
H	 1.1156121116	-2.751718935	-0.6253175629	 0.110528
H	-1.698148224	-2.8737398219	-0.4361323633	 0.091573
H	-1.2843037661	-1.8818825858	 1.9700361134	 0.103326
H	-2.8824108222	 0.4946286366	 0.1581460854	 0.289597
178.0945	188.3263	212.6936	222.3004	303.7351	345.6601	389.748	445.8683	506.0667	573.3571	626.8469	680.7209	741.8204	766.9388	820.1754	858.548	893.4532	908.6121	940.1326	955.8563	1003.2942	1022.9467	1024.747	1056.3037	1115.1794	1150.1233	1180.3198	1203.335	1219.7482	1257.232	1268.1233	1293.7035	1313.528	1322.1593	1359.0896	1409.3785	1469.954	1475.6708	1489.0514	1494.1905	1500.6367	3033.3189	3038.1617	3057.2676	3085.3218	3102.0921	3107.4174	3112.278	3176.2753	3186.0361	3789.298
CC12CCC3C(O1)C23O	C[C@@]12CC[C@H]3[C@@H](O1)[C@@]23O	
InChI=1S/C7H10O2/c1-6-3-2-4-5(9-6)7(4,6)8/h4-5,8H,2-3H2,1H3	InChI=1S/C7H10O2/c1-6-3-2-4-5(9-6)7(4,6)8/h4-5,8H,2-3H2,1H3/t4-,5+,6-,7+/m0/s1
