19
gdb 96052	2.71957	1.16636	0.94079	3.7945	73.14	-0.2526	0.004	0.2566	1278.5218	0.158425	-460.19414	-460.18499	-460.184046	-460.229502	32.332	
C	 0.0035853376	 1.4854439105	 0.0487542465	-0.409975
C	 0.0822324213	-0.0323270159	 0.079877235	 0.145156
O	 0.7219787514	-0.5079840468	-1.1052363311	-0.278301
C	 1.6067746839	-1.588131509	-0.8054371363	-0.062687
C	 1.32761315	-1.9791058674	 0.6530886452	-0.253446
C	 0.8674512197	-0.6491169023	 1.2506221031	 0.069763
O	 2.0248131946	 0.1453871107	 1.5599065038	-0.190387
C	 2.1617879867	 0.627708276	 2.8089576274	 0.171941
O	 3.0950744453	 1.2892079848	 3.149322913	-0.274422
H	 1.0036229934	 1.9230342273	 0.035458114	 0.145224
H	-0.5311430838	 1.806475791	-0.8485674669	 0.131915
H	-0.5386144486	 1.8632496137	 0.9222831185	 0.110288
H	-0.9389078264	-0.4477466926	 0.1267816491	 0.073189
H	 1.4220324806	-2.4091247758	-1.5062601717	 0.106533
H	 2.6451377852	-1.2544455963	-0.9309636531	 0.114389
H	 0.5100266806	-2.7042042143	 0.713886316	 0.115494
H	 2.1967996815	-2.3892552503	 1.1702235284	 0.120756
H	 0.2498707475	-0.7589783946	 2.1483943722	 0.087226
H	 1.3224669694	 0.3411196212	 3.4733099869	 0.077345
38.8785	58.0898	112.1541	148.9285	229.2502	246.8386	298.3464	354.3014	398.083	515.2696	601.8748	675.4016	757.2909	820.9746	872.8694	905.8831	935.6211	982.5184	1004.7918	1039.6611	1044.1162	1060.2555	1117.4891	1141.2437	1164.6124	1197.2368	1214.184	1226.2124	1285.5965	1325.6927	1358.2658	1377.54	1384.9317	1398.5468	1410.8179	1443.1609	1478.3242	1488.7388	1499.3711	1529.6283	1866.7596	2940.7243	2953.206	3018.3359	3045.8873	3051.8404	3060.7148	3073.3307	3116.9897	3126.6418	3143.0184
CC1OCCC1OC=O	C[C@H]1OCC[C@H]1OC=O	
InChI=1S/C6H10O3/c1-5-6(9-4-7)2-3-8-5/h4-6H,2-3H2,1H3	InChI=1S/C6H10O3/c1-5-6(9-4-7)2-3-8-5/h4-6H,2-3H2,1H3/t5-,6-/m1/s1
