19
gdb 41978	2.4742	2.10842	1.64124	1.0863	72.89	-0.2293	0.0783	0.3077	903.5235	0.163386	-423.013025	-423.006447	-423.005503	-423.043699	27.534	
C	 0.0297366714	 1.5762873508	 0.0063062833	-0.11233
O	 1.3816843771	 1.9945067615	-0.2187882916	-0.262383
C	 2.0108599298	 0.9904279634	-0.9804744392	 0.079073
C	 2.5896044346	-0.2124635118	-0.275913558	-0.064272
C	 2.7266141259	-0.3808632148	 1.2266335684	-0.22945
C	 1.4612731931	 0.0050382496	 2.0054854235	-0.087972
O	 0.2733185926	-0.467417643	 1.3814211133	-0.263427
C	 0.0697440375	 0.038121307	 0.0688619476	 0.079529
C	 1.211105981	-0.281578394	-0.9080652136	-0.131425
H	-0.3294373265	 2.0340783894	 0.9319034116	 0.117591
H	-0.6108377396	 1.9045451367	-0.8260281321	 0.095814
H	 2.4681244548	 1.3521588106	-1.8968257421	 0.093868
H	 3.3725531141	-0.709147894	-0.8447702525	 0.085877
H	 2.9483974642	-1.4376724778	 1.4176699078	 0.105965
H	 3.5754274732	 0.1979501729	 1.6095055736	 0.104079
H	 1.4731620627	-0.4569083016	 2.9966598619	 0.103373
H	 1.419661011	 1.092288178	 2.1444587347	 0.109883
H	-0.8747721279	-0.4030021778	-0.2574011229	 0.087539
H	 1.0155825711	-0.9156010849	-1.7638186935	 0.088669
164.4036	222.6034	290.7987	394.8034	435.2664	491.3679	538.069	702.0318	702.4022	736.5697	766.3835	811.5971	820.0399	872.7785	914.5705	950.1238	975.9029	984.9262	1006.3378	1034.3941	1061.3475	1090.7964	1093.7104	1116.9032	1132.8774	1154.6538	1194.7907	1237.5025	1262.5854	1270.2541	1295.5619	1307.5895	1343.2421	1372.5445	1380.5787	1383.1869	1415.6643	1440.6238	1483.7827	1503.2038	1512.2154	2992.5154	3026.7817	3028.4644	3065.0496	3088.6587	3090.6762	3098.6969	3126.9084	3148.1773	3183.2532
C1OC2C3CCOC1C23	C1O[C@H]2[C@H]3CCO[C@@H]1[C@@H]23	
InChI=1S/C7H10O2/c1-2-8-5-3-9-7-4(1)6(5)7/h4-7H,1-3H2	InChI=1S/C7H10O2/c1-2-8-5-3-9-7-4(1)6(5)7/h4-7H,1-3H2/t4-,5-,6-,7-/m0/s1
