17
gdb 65884	3.82144	0.80431	0.74185	1.8526	91.71	-0.2449	-0.0236	0.2212	1552.2509	0.133264	-384.619415	-384.610081	-384.609137	-384.654086	34.028	
C	-0.1503079644	 1.695944137	-0.0388229658	-0.432352
C	 0.0046156698	 0.1784646502	-0.0614790417	 0.152147
C	 0.8192938955	-0.424858077	-1.2490963574	-0.318783
C	 1.7796660837	-0.927292709	-0.1574577136	-0.066803
O	 1.0304225832	-0.2577585801	 0.8798900766	-0.298084
C	-1.2665196168	-0.4916357673	 0.1923167364	 0.582585
C	-2.321904252	-1.049014075	 0.3965783282	-0.398498
C	-3.5065197378	-1.6763331619	 0.6279540295	 0.310838
C	-4.5581234791	-2.2338406935	 0.8320119381	-0.576487
H	 0.8177273374	 2.1671739774	-0.2293060786	 0.12115
H	-0.8649951483	 2.0207351509	-0.8011109052	 0.129317
H	-0.5131675059	 2.0219557252	 0.9395334184	 0.14039
H	 0.3050954265	-1.188145054	-1.8316990893	 0.125133
H	 1.2311453509	 0.3335372402	-1.916902744	 0.116505
H	 1.7896168518	-2.0142191696	-0.013848865	 0.111628
H	 2.8119970356	-0.5646813524	-0.2098924723	 0.108267
H	-5.4824924903	-2.7232267813	 1.0144014356	 0.193047
57.7723	88.6959	102.9874	215.9955	228.5662	249.4909	326.6926	346.9875	468.7157	500.4667	525.7536	557.6438	575.7489	601.0789	615.5235	761.6713	820.8866	870.9114	888.3562	973.697	995.6273	1021.3676	1073.1871	1118.7073	1162.5628	1188.3207	1212.2467	1258.7663	1290.2563	1348.8341	1401.8894	1477.5268	1483.3406	1491.5483	1530.5082	2179.1673	2355.0325	3026.0003	3042.4291	3068.5585	3088.048	3121.3956	3127.1702	3151.7211	3504.4655
CC1(CCO1)C#CC#C	C[C@]1(CCO1)C#CC#C	
InChI=1S/C8H8O/c1-3-4-5-8(2)6-7-9-8/h1H,6-7H2,2H3	InChI=1S/C8H8O/c1-3-4-5-8(2)6-7-9-8/h1H,6-7H2,2H3/t8-/m1/s1
