18
gdb 89336	1.9903	1.71389	1.12706	3.0629	78.23	-0.2548	0.0123	0.2671	1138.6718	0.146061	-401.939041	-401.930121	-401.929177	-401.972388	33.315	
C	-0.08470788	 1.5290263848	-0.0267201436	-0.416814
C	 0.1186408363	 0.0320187952	 0.0376256582	 0.099946
O	 1.2069414	-0.4567970136	-0.8006646129	-0.333029
C	 1.770692884	-1.1957497118	 0.2816233427	 0.424572
C	 2.2585397235	-2.5788415611	 0.0082515819	-0.483551
C	 2.2304536701	-0.268226551	 1.3522244042	-0.378431
C	 0.7457262828	-0.6239080968	 1.2787474179	 0.052893
C	 0.0326356735	-1.2391856405	 2.3415276407	 0.195571
N	-0.5593981778	-1.7434702202	 3.2002308521	-0.355833
H	 0.8052457846	 2.0738693405	 0.2978352932	 0.125928
H	-0.3150540038	 1.8285561813	-1.0537074534	 0.137559
H	-0.9260830641	 1.818862528	 0.6108260409	 0.134927
H	-0.801082458	-0.4974741747	-0.2372505391	 0.102876
H	 3.1309218239	-2.5427688561	-0.6536304221	 0.143039
H	 2.5549679799	-3.0728905936	 0.9371171636	 0.13957
H	 1.4830886823	-3.1758027972	-0.4793926472	 0.141588
H	 2.7442110128	-0.7302131118	 2.1886451417	 0.141064
H	 2.5555720498	 0.7370656987	 1.1033970413	 0.128124
107.4813	153.7512	160.6246	185.205	221.1516	226.9315	338.0633	370.0487	452.6607	497.5881	540.4306	558.2065	591.6902	697.5736	745.1169	818.395	876.5471	901.55	952.2062	976.9059	1036.9117	1061.6435	1093.7061	1100.3213	1131.4207	1176.2165	1220.5028	1254.1731	1325.1843	1373.7556	1395.1692	1412.9269	1429.3925	1472.2337	1484.1848	1486.905	1491.7785	1500.992	2340.0025	3039.8168	3040.5968	3044.3284	3108.0273	3115.0427	3124.8896	3128.2464	3129.9541	3222.8408
CC1OC2(C)CC12C#N	C[C@H]1O[C@@]2(C)C[C@@]12C#N	
InChI=1S/C7H9NO/c1-5-7(4-8)3-6(7,2)9-5/h5H,3H2,1-2H3	InChI=1S/C7H9NO/c1-5-7(4-8)3-6(7,2)9-5/h5H,3H2,1-2H3/t5-,6+,7-/m1/s1
