14
gdb 20983	3.45789	2.21942	1.36547	1.8445	60.44	-0.1929	0.0478	0.2407	843.6322	0.108578	-412.05358	-412.045889	-412.044945	-412.086065	27.65	
C	 0.0011597553	 1.445506989	-0.0535924584	-0.336632
N	 0.0202105617	-0.0006042075	-0.0068662193	-0.125586
C	-1.1252258471	-0.805768427	 0.0112930237	 0.429708
N	-2.3134058651	-0.3397358602	-0.023181033	-0.607783
N	-0.5958443178	-2.0875581361	 0.1153430401	-0.327703
N	 0.8084929776	-2.0941299928	-0.0284623953	-0.349306
C	 1.0990253928	-0.8381340937	-0.0564269245	 0.482795
O	 2.327559936	-0.3135727189	-0.1107931027	-0.416894
H	 0.8666599559	 1.8400423243	 0.4813544323	 0.145226
H	 0.0157660006	 1.8155758398	-1.084411143	 0.139643
H	-0.9227651457	 1.7776614721	 0.422289103	 0.17143
H	-3.0063987646	-1.0816290545	 0.0286619401	 0.210711
H	-1.0752330369	-2.8869661744	-0.2645069942	 0.263999
H	 2.9511598275	-1.0516984901	-0.1044808788	 0.320392
41.4304	144.9759	185.4258	268.2062	347.0049	360.1321	404.9705	438.5247	570.6111	632.0102	680.1295	708.8473	734.4958	758.1697	794.6139	1003.2042	1057.5505	1075.8882	1159.9754	1213.7448	1255.3358	1279.2223	1365.761	1401.8098	1438.5155	1490.358	1510.2838	1586.3179	1702.1801	1750.7798	3042.5731	3116.2393	3157.4711	3529.0803	3658.8247	3795.3788
CN1C(=N)NN=C1O	CN1[C@H]([NH])NN=C1O	
InChI=1S/C3H6N4O/c1-7-2(4)5-6-3(7)8/h1H3,(H2,4,5)(H,6,8)	InChI=1S/C3H7N4O/c1-7-2(4)5-6-3(7)8/h2,4-5H,1H3,(H,6,8)/t2-/m1/s1
