19
gdb 57048	2.35885	1.42585	0.98096	1.5698	77.16	-0.2505	0.0401	0.2906	1221.9934	0.157067	-422.971682	-422.962129	-422.961185	-423.00619	35.261	
C	 0.1097322765	 1.4795286999	 0.0420811566	-0.408231
C	 0.021224617	-0.054980394	-0.0343822867	-0.157681
C	-1.3514739187	-0.5453193151	 0.0863911538	 0.309036
C	-2.4756294499	-0.9721335731	 0.1444849431	-0.480566
C	 0.6251345194	-0.5754533593	-1.3474066818	 0.109223
O	 2.0370570549	-0.2951213071	-1.4490783808	-0.295414
C	 2.3648051393	-1.702508775	-1.5235542426	-0.084151
C	 0.8852073438	-2.1058815214	-1.4355569795	 0.055911
O	 0.6118054955	-2.8724375025	-0.2893409139	-0.429962
H	 1.1500694107	 1.7872254051	-0.0891853925	 0.14153
H	-0.494824058	 1.9444953309	-0.742570359	 0.123615
H	-0.2482689033	 1.8423280013	 1.0088220578	 0.124366
H	 0.6125509947	-0.4882593636	 0.7806932523	 0.121048
H	-3.4744419046	-1.3265586644	 0.2158935915	 0.201292
H	 0.0757586047	-0.1540167055	-2.2000479477	 0.078355
H	 2.8817556866	-1.951291122	-2.4567591031	 0.105406
H	 2.959027625	-2.0394197687	-0.6670706169	 0.116019
H	 0.479802691	-2.57249608	-2.3416678168	 0.078331
H	-0.3432560845	-2.8665143257	-0.1500838938	 0.291873
73.6404	87.0406	123.3153	197.4579	207.4947	234.571	291.7586	386.0544	404.0879	425.9524	462.593	526.8092	602.0267	632.6616	647.4828	790.0485	826.8994	872.7203	909.2418	965.7893	1004.9625	1030.1146	1042.681	1077.3797	1096.1552	1152.3573	1158.3333	1190.2199	1231.7749	1274.6041	1277.9021	1326.3416	1334.3424	1350.0101	1377.6966	1404.295	1432.7695	1496.3904	1498.4849	1514.1697	2223.503	3009.1057	3024.5595	3034.8011	3044.5553	3049.5776	3084.413	3119.5892	3132.4426	3500.7482	3782.6621
CC(C#C)C1OCC1O	C[C@@H](C#C)[C@H]1OC[C@H]1O	
InChI=1S/C7H10O2/c1-3-5(2)7-6(8)4-9-7/h1,5-8H,4H2,2H3	InChI=1S/C7H10O2/c1-3-5(2)7-6(8)4-9-7/h1,5-8H,4H2,2H3/t5-,6+,7+/m0/s1
