19
gdb 37999	3.26921	1.81937	1.50904	0.7381	85.33	-0.2203	-0.0056	0.2148	929.9413	0.162135	-348.663606	-348.657204	-348.656259	-348.69388	27.982	
C	 0.1310447707	 1.619220001	-0.0576194105	-0.285896
C	 1.3655012252	 0.7179035774	-0.0544279735	-0.085403
C	 2.0254542618	 0.7700113632	 1.2810326225	-0.161851
C	 1.6738554764	-0.1334666839	 2.2047840929	 0.161368
C	 0.9038222424	 0.2274599177	 3.4650644243	-0.276787
C	-0.2304856886	-0.6272091873	 2.8121971941	-0.081817
C	-0.3862610732	-0.7145406437	 1.2531337622	-0.033406
C	-0.0339345518	 0.127437886	 0.0369106684	-0.023139
C	 0.777066076	-1.3425784331	 1.938496524	-0.148472
H	-0.0482467348	 2.2121950765	 0.8337562106	 0.115786
H	-0.1480707053	 2.1075750837	-0.9861832264	 0.106818
H	 1.9184139656	 0.6248384931	-0.9839144394	 0.086797
H	 2.4011115551	 1.7388385397	 1.6101848421	 0.087056
H	 1.2139216879	-0.2917613058	 4.3796753664	 0.105017
H	 0.746484246	 1.2904008542	 3.674111281	 0.094903
H	-1.0220520756	-1.0854315822	 3.3993155578	 0.087153
H	-1.2268899243	-1.3804632568	 1.0577354698	 0.080949
H	-0.40679438	-0.3428598965	-0.8695567865	 0.08256
H	 1.0781524665	-2.3824271232	 1.9154478802	 0.088363
187.1013	247.1315	384.5061	436.0213	496.318	518.7472	559.2125	620.9542	750.6454	768.4596	772.701	810.5317	835.9559	845.4816	858.3292	907.962	928.5938	948.5899	987.3663	994.7509	1023.7755	1057.0606	1063.1757	1067.5542	1079.683	1099.808	1107.8101	1116.4697	1135.6161	1158.9	1214.1018	1235.7737	1246.2515	1312.6118	1324.8437	1349.0285	1388.694	1409.023	1482.1094	1497.2738	1673.5452	3024.8489	3082.3153	3099.9804	3116.1195	3121.069	3134.6712	3142.6269	3150.0717	3185.8539	3209.114
C1C2C=C3CC4C(C12)C34	C1[C@H]2[CH][C]3C[C@H]4[C@@H]([C@@H]12)[C@@H]34	
InChI=1S/C9H10/c1-4-2-6(4)9-7-3-5(1)8(7)9/h1,4,6-9H,2-3H2	InChI=1S/C9H10/c1-4-2-6(4)9-7-3-5(1)8(7)9/h1,4,6-9H,2-3H2/t4-,6+,7-,8+,9-/m1/s1
