21
gdb 58654	1.84182	1.46386	1.13355	3.1175	83.77	-0.2659	0.0186	0.2845	1243.0615	0.180964	-383.275264	-383.264935	-383.263991	-383.310288	37.719	
C	 0.2536129013	 1.1179616476	 0.7782717485	-0.406577
C	-0.3044505989	-0.1813374102	 1.3751616978	-0.033516
C	-0.5794904254	-0.0533891548	 2.879502277	-0.407127
C	-1.5554233673	-0.6257045482	 0.6174800872	 0.168731
N	-1.3387060915	-1.269971194	-0.698123204	-0.366562
C	-1.9334507124	-2.0649913	 0.380040709	-0.039428
C	-1.1498832879	-3.2423025005	 0.9069399831	-0.408056
C	-2.6770742723	 0.2889553256	 0.7089637383	 0.252191
N	-3.5647096531	 1.0290592709	 0.7731980533	-0.355005
H	 1.1852116734	 1.4002806876	 1.2779706946	 0.115344
H	 0.4606617865	 0.9964675405	-0.2888242271	 0.129572
H	-0.4553983075	 1.944193805	 0.8988463391	 0.134051
H	 0.4383158071	-0.9688834627	 1.2170258143	 0.089787
H	 0.3347335224	 0.225708059	 3.4116250661	 0.119197
H	-1.3306138216	 0.7183068897	 3.0789610551	 0.138635
H	-0.9438672076	-0.9944333741	 3.3035896959	 0.116644
H	-2.0414040778	-0.9713168395	-1.3696292195	 0.248648
H	-3.0067139461	-2.238808256	 0.318657412	 0.106478
H	-0.0767458849	-3.0451833859	 0.9162377763	 0.136392
H	-1.4719691315	-3.5014770607	 1.9204668733	 0.129058
H	-1.321553085	-4.113744869	 0.2664736396	 0.131544
66.462	137.5149	142.7415	156.7603	184.5484	218.8004	225.5457	254.2249	320.9628	347.8372	393.0504	464.1645	506.8222	578.2745	613.8408	648.5004	806.0412	860.7382	890.7843	934.3077	956.2152	968.9725	1026.3247	1029.9129	1069.0481	1110.2921	1138.681	1145.0366	1198.1709	1241.2862	1266.4489	1323.1359	1337.9825	1368.6769	1400.7631	1409.5117	1423.1716	1452.4534	1485.2397	1489.1638	1491.3376	1498.4571	1503.4858	1512.9316	2340.3193	3034.6705	3038.043	3043.1765	3063.7489	3103.6951	3104.5496	3108.0588	3112.0101	3116.1831	3117.9882	3143.1256	3509.7297
CC(C)C1(NC1C)C#N	CC(C)[C@]1(N[C@H]1C)C#N	
InChI=1S/C7H12N2/c1-5(2)7(4-8)6(3)9-7/h5-6,9H,1-3H3	InChI=1S/C7H12N2/c1-5(2)7(4-8)6(3)9-7/h5-6,9H,1-3H3/t6-,7+/m0/s1
