16
gdb 28105	5.20665	1.2686	1.02658	2.0004	79.98	-0.1783	0.025	0.2034	1120.8786	0.127687	-396.986866	-396.979371	-396.978427	-397.018607	28.896	
C	-0.0170209592	 1.4834545215	 0.0831580028	-0.502315
C	-0.0011647576	-0.0031007697	-0.0505585189	 0.337911
C	-0.0437960615	-0.7840328604	-1.1949813299	-0.411437
C	-0.0013079601	-2.1289698927	-0.738664931	 0.333135
C	 0.0646632397	-2.1271458649	 0.6447284566	 0.342257
N	 0.0646878126	-0.8214893124	 1.0697263895	-0.442302
N	 0.1096121884	-3.3740677172	 1.1924120611	-0.362987
C	 0.0715312877	-4.160469206	 0.1309540651	-0.013126
N	 0.003429714	-3.4723206523	-1.0624983086	-0.406646
H	 0.8871937665	 1.8650498709	 0.5747244774	 0.127007
H	-0.0748313738	 1.9449954621	-0.9052013513	 0.135669
H	-0.8774315808	 1.8379161052	 0.6652727261	 0.126923
H	-0.0978403002	-0.402384341	-2.2023883393	 0.091273
H	 0.1055526417	-0.5018672481	 2.0212749922	 0.259556
H	 0.0895464919	-5.2394745283	 0.1574394383	 0.123458
H	-0.0338930393	-3.8870333366	-1.97681182	 0.261623
113.061	148.3237	264.9695	278.2661	331.2018	385.0595	436.8293	504.6383	559.0862	628.2051	647.1942	742.6002	752.5592	767.3937	776.2862	827.567	959.9954	989.2871	1009.4895	1059.5986	1090.9057	1159.5558	1172.005	1241.3212	1294.8669	1381.7578	1396.9823	1415.4285	1461.3594	1477.6729	1489.3459	1505.8551	1525.9375	1578.5773	1609.5548	3012.7391	3055.1063	3122.1513	3250.8243	3255.3037	3684.0884	3685.139
CC1=CC2=C(N1)N=CN2	Cc1cc2c([nH]1)nc[nH]2	
InChI=1S/C6H7N3/c1-4-2-5-6(9-4)8-3-7-5/h2-3,9H,1H3,(H,7,8)	InChI=1S/C6H7N3/c1-4-2-5-6(9-4)8-3-7-5/h2-3,9H,1H3,(H,7,8)
