17
gdb 40396	4.48677	1.1995	1.12564	3.0085	72.15	-0.203	0.0584	0.2614	1099.5029	0.136231	-417.86219	-417.854906	-417.853962	-417.894091	28.769	
C	 0.5006817293	 1.4341124937	 0.0996587083	-0.179531
O	 1.1071979757	 0.2111534613	-0.3374374542	-0.236761
C	-0.2752486753	 0.1852641751	 0.0277617721	-0.082007
C	-0.606081948	-0.6001322892	 1.2388875421	 0.373793
N	 0.380206346	-0.8517286268	 2.3084358629	-0.361027
C	-0.2667610434	-1.9937508719	 1.6137055036	-0.125219
C	-1.7051646166	-2.194786069	 2.1912013746	-0.057874
N	-1.9432599583	-1.1812842325	 3.2477371488	-0.30549
C	-2.0526745113	-0.8068449227	 1.8183544359	-0.13827
H	 0.8326580017	 1.7945387119	 1.0710726026	 0.131024
H	 0.3796048825	 2.1913917703	-0.6727912755	 0.120651
H	-0.9584441107	 0.0602719627	-0.8141469789	 0.097404
H	 1.2885127255	-0.7411834416	 1.8506808542	 0.239534
H	 0.3120467336	-2.7344789094	 1.0778383886	 0.104512
H	-2.2882594272	-3.1037293498	 2.126724598	 0.096924
H	-2.8988116362	-1.3316715706	 3.5748555493	 0.229311
H	-2.9617273173	-0.3959305814	 1.3982339476	 0.093026
84.5029	160.0366	186.3893	338.4812	356.4864	420.8387	506.7539	613.4139	671.0927	745.3908	802.7635	807.2742	840.9775	858.3012	881.854	891.9627	909.5063	929.5239	956.0433	980.6299	1006.9274	1070.1162	1091.1692	1101.2857	1107.7018	1153.245	1164.6223	1173.0557	1231.4029	1242.357	1274.9338	1299.5013	1308.5789	1362.2555	1398.4588	1470.6752	1523.4913	3090.9738	3095.9896	3187.1783	3191.2647	3200.7635	3209.3307	3442.905	3458.2851
C1OC1C12NC1C1NC21	C1O[C@H]1[C@]12N[C@H]1[C@H]1N[C@@H]21	
InChI=1S/C6H8N2O/c1-2(9-1)6-4-3(7-4)5(6)8-6/h2-5,7-8H,1H2	InChI=1S/C6H8N2O/c1-2(9-1)6-4-3(7-4)5(6)8-6/h2-5,7-8H,1H2/t2-,3+,4-,5+,6-/m1/s1
