14
gdb 19813	4.25071	2.11548	1.88316	4.8371	60.57	-0.2299	0.0264	0.2564	724.2614	0.109183	-378.674239	-378.668331	-378.667387	-378.704083	23.661	
O	-0.0381496588	 0.0293991184	 0.1759083959	-0.353093
C	-0.0012310746	 1.2219912471	 0.0752254637	 0.43317
N	-1.0024509748	 2.1878518095	 0.0002218847	-0.315063
C	-0.0899518783	 3.3282498644	-0.0010688293	 0.013085
C	 0.4519977797	 3.8651259497	 1.3627860564	-0.075536
N	 0.491271674	 2.7198294517	 2.2955718813	-0.327768
C	 1.5840296954	 2.9007160449	 1.3144483873	-0.040085
C	 1.0954274358	 2.3187937883	-0.038435073	-0.215097
H	-1.9319454315	 2.1186220625	 0.3919060564	 0.24797
H	-0.2538010266	 4.0740620093	-0.7783437016	 0.091663
H	 0.4089156275	 4.8853560102	 1.7230564924	 0.097883
H	 0.8249587885	 3.0691743142	 3.1927167658	 0.23728
H	 2.6122092091	 3.0055900647	 1.6343735713	 0.103774
H	 1.8106338946	 2.2820837951	-0.8563708414	 0.101816
148.8141	249.787	370.5154	469.9452	484.4122	595.8634	687.422	723.9067	760.1712	799.7516	813.5616	880.4657	888.6673	939.8795	952.7321	957.5311	1006.0052	1034.5186	1089.7995	1108.2733	1134.7779	1155.003	1190.8788	1211.8929	1269.8321	1304.9544	1333.9602	1344.0625	1371.4772	1900.9307	3117.535	3155.7752	3188.4972	3206.5937	3486.3297	3591.0693
O=C1NC2C3NC3C12	O=C1N[C@H]2[C@H]3N[C@H]3[C@@H]12	
InChI=1S/C5H6N2O/c8-5-1-2-4(6-2)3(1)7-5/h1-4,6H,(H,7,8)	InChI=1S/C5H6N2O/c8-5-1-2-4(6-2)3(1)7-5/h1-4,6H,(H,7,8)/t1-,2+,3-,4+/m1/s1
