25
gdb 112906	2.38813	1.14184	0.87264	1.4522	89.07	-0.2368	0.0814	0.3182	1473.1265	0.228608	-389.517915	-389.50765	-389.506706	-389.553192	38.78	
C	 0.1851712797	 1.7402906917	 0.026904612	-0.387096
C	 0.1931250047	 0.2132121918	-0.103367439	-0.200959
C	 0.6026399621	-0.5041405502	 1.1862707557	 0.009283
C	-0.3619129406	-0.3677051215	 2.374878089	-0.244069
C	 0.1085660396	-1.4982363302	 3.2934252265	 0.156489
C	-0.9323336273	-2.0497067	 4.2553322762	-0.398058
O	 0.530033355	-2.5445951807	 2.4130692431	-0.292916
C	 0.7697387158	-2.0444275856	 1.0906879838	 0.124345
C	-0.167796986	-2.7637159012	 0.1219690767	-0.391389
H	 1.1687693178	 2.1177148549	 0.3283003556	 0.113984
H	-0.0754885535	 2.2145053148	-0.924358551	 0.112326
H	-0.5413895396	 2.0765210445	 0.7736283238	 0.118788
H	-0.8001863767	-0.1282254189	-0.4185653641	 0.098529
H	 0.8839920951	-0.0729438246	-0.9073119875	 0.095906
H	 1.5731712812	-0.095995609	 1.5020284936	 0.071484
H	-0.3202393753	 0.610186642	 2.8609436617	 0.098849
H	-1.3978527139	-0.5427400882	 2.0561389787	 0.09504
H	 0.9801735924	-1.1481759161	 3.8732863998	 0.06078
H	-1.8154948337	-2.3940313056	 3.7080337354	 0.115256
H	-0.525672734	-2.8965230066	 4.8154775148	 0.123496
H	-1.2403571313	-1.2809870771	 4.9717781804	 0.109203
H	 1.8056792649	-2.2907429999	 0.8180068199	 0.068905
H	-1.2147834387	-2.5042817899	 0.3084377257	 0.111441
H	 0.0710620398	-2.524140615	-0.919086485	 0.10863
H	-0.0616511173	-3.8436678293	 0.2570858743	 0.121752
55.4432	97.8514	120.4514	174.9028	227.9323	238.8934	268.1589	287.6541	321.8726	382.2527	421.14	455.6316	477.5672	571.9216	680.8607	777.1567	795.7494	834.0633	900.6518	913.9877	938.1299	968.1203	977.4967	1031.5308	1042.0797	1064.3522	1094.5	1099.2354	1147.9953	1156.9181	1173.6089	1188.2463	1212.6181	1268.5345	1311.9585	1319.7592	1330.4917	1358.2813	1378.2112	1387.8492	1395.092	1400.1102	1409.8301	1412.5554	1414.6976	1482.5054	1484.5977	1490.3232	1493.4502	1497.923	1500.3399	1501.6471	1508.5081	2943.9713	2988.7078	3007.7848	3017.9802	3027.1342	3031.847	3036.5466	3038.1506	3056.9147	3097.3034	3099.7177	3104.9449	3108.9322	3110.1811	3115.4457	3116.203
CCC1CC(C)OC1C	CC[C@H]1C[C@@H](C)O[C@H]1C	
InChI=1S/C8H16O/c1-4-8-5-6(2)9-7(8)3/h6-8H,4-5H2,1-3H3	InChI=1S/C8H16O/c1-4-8-5-6(2)9-7(8)3/h6-8H,4-5H2,1-3H3/t6-,7+,8+/m1/s1
