20
gdb 39421	2.45398	1.91093	1.35978	1.8303	78.3	-0.2153	0.0776	0.2929	1003.1938	0.173446	-403.083712	-403.076291	-403.075346	-403.115221	30.32	
C	-0.1206580633	 1.5310336851	 0.0643493694	-0.369231
C	 1.2305524953	 0.8686261241	 0.00304551	 0.125086
O	 2.1151887785	 0.7471330963	 1.0750655022	-0.243595
C	 1.7690970482	 1.1851222918	 2.3777044838	-0.061298
C	 0.4313511045	 0.6774972997	 2.9566714684	-0.1965
N	 0.0974080844	-0.676549252	 2.5318579593	-0.0831
C	-1.2878500005	-0.9245375511	 2.1338714605	-0.262672
C	-0.1950629725	-0.9536478019	 1.1209551694	 0.01208
C	-0.0181641153	 0.0148768452	-0.012203878	-0.06864
H	-0.4536515814	 2.0189862665	 0.967423515	 0.120688
H	-0.451612991	 2.0356385109	-0.8379287421	 0.114461
H	 1.7996994423	 0.9788507382	-0.9149801111	 0.100419
H	 2.5960993141	 0.821342143	 2.9934997333	 0.119443
H	 1.7713312307	 2.2848928814	 2.4343797783	 0.092183
H	 0.5307433422	 0.6681335461	 4.0499094095	 0.108145
H	-0.3754869034	 1.3916884057	 2.7425966737	 0.093232
H	-1.7381652348	-1.8451535287	 2.4972246081	 0.11196
H	-1.9623047281	-0.0687982182	 2.1077920626	 0.105147
H	 0.1701319202	-1.9405493289	 0.8357732548	 0.094475
H	-0.2989342001	-0.4191468731	-0.9686051972	 0.087719
144.9435	183.6552	228.6756	284.6098	344.8552	405.9398	469.6074	494.5554	640.2955	659.5078	708.5001	759.3661	771.6079	798.1295	874.9903	879.6947	948.9201	954.9378	992.4152	1031.1334	1048.774	1081.6903	1086.5253	1091.9121	1124.2142	1126.1047	1140.3959	1145.1649	1176.3488	1203.962	1253.0713	1273.2431	1304.372	1344.5666	1372.5447	1393.125	1404.4671	1419.1219	1428.3918	1476.6185	1498.0716	1506.2745	1529.4708	2980.4866	2996.5386	3029.4007	3083.5367	3089.7887	3094.0783	3132.2474	3143.523	3155.893	3169.2532	3254.4889
C1C2OCCN3CC3C12	C1[C@H]2OCCN3C[C@H]3[C@@H]12	
InChI=1S/C7H11NO/c1-2-9-7-3-5(7)6-4-8(1)6/h5-7H,1-4H2	InChI=1S/C7H11NO/c1-2-9-7-3-5(7)6-4-8(1)6/h5-7H,1-4H2/t5-,6+,7-,8?/m1/s1
