16
gdb 30226	3.57446	1.29735	1.00107	1.7785	73.78	-0.1873	0.0376	0.2249	1135.7042	0.125251	-437.874532	-437.866603	-437.865659	-437.907039	30.135	
O	 0.168622356	 1.4789809184	 0.2059461782	-0.424029
C	 0.0812430643	 0.0947605847	-0.0136804876	 0.003422
C	-1.3548843816	-0.5790964477	 0.0794319097	-0.20854
N	-1.1767598142	-0.9513373895	-1.3371581026	-0.037127
C	 0.1000832874	-0.434018164	-1.4399930787	 0.229026
C	 0.6869817834	-0.929454238	-2.5792131582	-0.305407
C	-0.2993976915	-1.7791447313	-3.1821049777	-0.280003
C	-1.419181744	-1.8055783901	-2.3590571724	 0.31826
O	-2.6124613439	-2.4445823769	-2.4431673505	-0.431461
H	-0.2455693487	 1.9169212679	-0.5462541063	 0.281459
H	 0.8026408575	-0.3626220696	 0.6688460765	 0.108176
H	-1.4248303515	-1.4359168487	 0.7552537601	 0.128701
H	-2.1818120669	 0.1131322698	 0.2580369599	 0.122311
H	 1.6763243687	-0.7320245731	-2.9614482234	 0.100738
H	-0.2150154625	-2.2820298728	-4.1348055048	 0.087543
H	-2.6021354525	-3.0001883593	-3.2285031622	 0.30693
98.2349	117.3719	242.2546	248.3867	285.4023	350.2883	384.5484	451.4176	559.9093	627.2496	650.6137	678.084	726.787	761.7744	789.8347	799.6048	865.4617	973.2871	1020.8962	1036.3919	1108.5921	1134.7438	1148.4168	1198.7992	1232.4887	1259.8217	1264.0932	1294.325	1310.6565	1372.8816	1431.5175	1484.3106	1521.5606	1585.5976	1585.8991	3055.4857	3078.6228	3116.064	3228.7021	3255.6594	3798.4531	3844.4713
OC1CN2C1=CC=C2O	O[C@H]1Cn2c1ccc2O	
InChI=1S/C6H7NO2/c8-5-3-7-4(5)1-2-6(7)9/h1-2,5,8-9H,3H2	InChI=1S/C6H7NO2/c8-5-3-7-4(5)1-2-6(7)9/h1-2,5,8-9H,3H2/t5-/m0/s1
