21
gdb 90240	3.4853	1.3928	1.32124	1.7614	82.56	-0.2417	0.0567	0.2984	1072.6492	0.184239	-386.985988	-386.978559	-386.977615	-387.017333	31.155	
C	-0.1123745207	 1.567003648	 0.0153998091	-0.420484
C	 0.0731881837	 0.0501523458	 0.0040449385	 0.060125
C	 1.1020027007	-0.5008029896	-1.0298532139	-0.243725
C	 2.0559822943	-1.3180152182	-0.1130611143	 0.230471
C	 2.229847512	-2.7616641624	-0.6651737301	-0.202041
O	 0.8798840884	-3.0741800414	-0.1306164813	-0.32806
C	 1.1441791575	-1.998435622	 0.8475795685	 0.150912
C	 0.706013829	-0.5502020028	 1.2643701581	-0.108441
C	 2.2916886616	-0.2861538155	 1.0481099583	-0.335137
H	 0.8317500883	 2.0926677155	 0.1939685926	 0.112602
H	-0.5064133913	 1.9161540564	-0.9450563662	 0.116233
H	-0.8177606774	 1.8764405766	 0.7944096353	 0.112257
H	-0.9042167043	-0.4160677251	-0.1617212787	 0.079745
H	 0.62719913	-1.1229668728	-1.7897581832	 0.108431
H	 1.6510076696	 0.3010434345	-1.5356908976	 0.089124
H	 2.2724464116	-2.900867996	-1.748700011	 0.112427
H	 2.9895442035	-3.3715118746	-0.1628534946	 0.106937
H	 1.6592712246	-2.4685366522	 1.6946601948	 0.07628
H	 0.2328864804	-0.3418581491	 2.2266825935	 0.065357
H	 2.8929886075	-0.6577763993	 1.8781508331	 0.111948
H	 2.589236631	 0.7327499141	 0.7883063491	 0.105038
149.819	221.26	246.8833	313.9523	323.5939	415.0943	461.8701	489.6883	603.288	615.2022	725.3707	778.1136	788.0934	829.4673	858.1072	881.3997	910.5011	926.5596	930.2296	978.7555	995.0038	1019.6819	1031.2737	1063.6255	1084.2003	1115.7403	1128.7823	1146.6126	1167.9089	1205.1389	1210.8883	1235.2	1250.5863	1259.2881	1296.2195	1317.9024	1329.9571	1376.3933	1409.0332	1414.822	1481.778	1495.7308	1498.4127	1504.2509	1507.9564	3014.9765	3028.9698	3032.7822	3038.2284	3045.2207	3068.7193	3091.9167	3094.6825	3099.7987	3103.0651	3117.6703	3141.7242
CC1CC23COC2C1C3	C[C@H]1C[C@]23CO[C@@H]2[C@H]1C3	
InChI=1S/C8H12O/c1-5-2-8-3-6(5)7(8)9-4-8/h5-7H,2-4H2,1H3	InChI=1S/C8H12O/c1-5-2-8-3-6(5)7(8)9-4-8/h5-7H,2-4H2,1H3/t5-,6-,7+,8-/m0/s1
