14
gdb 13159	3.96267	1.57588	1.15209	5.5793	65.02	-0.2672	-0.0481	0.2191	977.539	0.107756	-378.739423	-378.731674	-378.73073	-378.772577	26.162	
O	-0.013141276	-0.0524259499	 0.3018920346	-0.349265
C	-0.0631888378	 1.1503214864	 0.1382189609	 0.311979
C	 1.151698034	 1.9964678004	 0.1780892315	 0.221252
N	 2.1130861582	 2.6366550819	 0.2135222271	-0.327629
N	-1.1810551298	 1.8604431888	-0.0934401887	-0.084261
C	-1.4853573823	 3.2816115545	-0.3164107826	-0.172837
C	-2.985094707	 2.8810845519	-0.4492991146	-0.243883
C	-2.5671919174	 1.4011052348	-0.2045623466	-0.167486
H	-1.2388508786	 3.9224823547	 0.5352529007	 0.138815
H	-1.0224050732	 3.6937967986	-1.2178458018	 0.138809
H	-3.6335494374	 3.3022057279	 0.3183563666	 0.129696
H	-3.4176658879	 3.0739878579	-1.4305218996	 0.129693
H	-2.7278549453	 0.7111916221	-1.0382551338	 0.137555
H	-2.9439742095	 0.9397592999	 0.7130600463	 0.137564
54.4885	114.8951	118.5082	146.6309	241.6319	330.9518	483.6523	517.733	666.9643	747.4577	770.083	839.0351	873.1889	935.1209	952.3119	1036.2877	1139.9277	1141.5848	1192.1936	1205.8829	1229.1225	1273.749	1302.7271	1335.5395	1441.1049	1493.9857	1507.4402	1529.2106	1771.2549	2347.7111	3048.8163	3054.8255	3096.3948	3098.2266	3102.3589	3158.3924
O=C(C#N)N1CCC1	O=C(C#N)N1CCC1	
InChI=1S/C5H6N2O/c6-4-5(8)7-2-1-3-7/h1-3H2	InChI=1S/C5H6N2O/c6-4-5(8)7-2-1-3-7/h1-3H2
