23
gdb 106141	2.3545	1.50451	1.18945	0.4649	90.06	-0.2281	0.0901	0.3181	1199.3003	0.205999	-351.121352	-351.112364	-351.11142	-351.154775	35.154	
C	 0.1578555694	 1.4457375738	-0.270314759	-0.370746
C	-0.0843257756	-0.0323550651	 0.0688878209	-0.335837
C	 0.6374416489	-0.4897935791	 1.2962043556	 0.344482
C	 2.099435592	-0.7747291416	 1.5879701301	-0.157688
C	 2.1051244192	 0.1552560115	 2.7970959342	-0.231829
C	 0.5675293461	-0.0554759994	 2.8280601629	-0.112754
C	 0.4036509507	-1.5543678294	 3.1921048591	-0.279116
C	 1.0222286672	-1.8559055376	 1.826902749	 0.280741
C	 1.0484553675	-3.1734831853	 1.10986494	-0.507231
H	 1.2219445487	 1.6389118664	-0.4402861222	 0.117773
H	-0.3888950093	 1.7389935254	-1.1720672446	 0.108417
H	-0.172300944	 2.0959182861	 0.5467000153	 0.116973
H	-1.163380864	-0.2044636931	 0.1869155421	 0.097164
H	 0.2285165424	-0.6569927812	-0.7783668743	 0.099276
H	 2.8926118495	-0.9473788998	 0.8695471786	 0.074007
H	 2.6693431972	-0.1361364778	 3.6917079429	 0.082061
H	 2.3723787286	 1.1776313943	 2.5141134251	 0.094662
H	-0.0923212839	 0.6977949829	 3.2554353497	 0.06334
H	 0.909389324	-1.9116009669	 4.0985894678	 0.079635
H	-0.6483299613	-1.8568006048	 3.2200017025	 0.089481
H	 0.048991588	-3.6209990187	 1.0557523158	 0.114109
H	 1.4174344705	-3.0634918291	 0.0841220359	 0.114892
H	 1.7048944881	-3.8905236314	 1.6177329825	 0.118189
80.3608	120.4961	187.8517	204.0321	230.2798	273.638	312.5055	364.5252	426.3354	529.5779	581.4436	623.2273	705.7536	764.9066	787.6479	843.7982	890.0736	907.6251	929.3479	946.5892	973.5438	980.868	990.7112	999.9993	1044.604	1089.3424	1093.4886	1118.9621	1136.5761	1158.2174	1175.5924	1205.5067	1220.701	1236.0278	1266.2634	1284.9345	1310.7855	1342.4493	1358.1484	1405.8821	1415.7799	1460.978	1476.8466	1487.9425	1492.0007	1497.8321	1499.4057	1508.5611	1514.2867	3003.9998	3013.4758	3017.7652	3023.9468	3033.0577	3037.3825	3074.3684	3077.1075	3086.6632	3087.637	3102.0801	3105.524	3125.4013	3178.3927
CCC12C3CC1CC23C	CC[C@@]12[C@H]3C[C@@H]1C[C@@]23C	
InChI=1S/C9H14/c1-3-9-6-4-7(9)8(9,2)5-6/h6-7H,3-5H2,1-2H3	InChI=1S/C9H14/c1-3-9-6-4-7(9)8(9,2)5-6/h6-7H,3-5H2,1-2H3/t6-,7+,8-,9+/m1/s1
