19
gdb 37925	2.86032	2.10317	1.99302	1.5578	76.1	-0.2353	0.0778	0.3131	829.1731	0.163553	-385.850527	-385.844684	-385.84374	-385.880341	25.866	
C	-0.0493478213	 1.5165659464	 0.0370026897	-0.23639
C	 1.4979358942	 1.524240017	-0.041031489	-0.058012
C	 2.192537701	 0.9830915682	 1.2625429994	-0.042376
C	 1.3965984652	 1.0614610705	 2.5619428532	-0.099729
O	 0.3562983638	 0.0741243855	 2.4530360312	-0.273036
C	 0.5428439354	-0.6658639704	 1.258262072	 0.115883
C	-0.0163693272	-0.0218021646	-0.0642621196	-0.066822
C	 1.4569222816	 0.0565823299	-0.6085689051	-0.04996
C	 1.9907577057	-0.4686715651	 0.7585216811	-0.078844
H	-0.5402598122	 1.9576482866	 0.9091486141	 0.106287
H	-0.4740851816	 1.954322157	-0.8715718371	 0.09578
H	 1.9912826598	 2.3608545361	-0.5361497344	 0.062876
H	 3.2263782517	 1.3172455498	 1.3630238427	 0.069951
H	 2.023326372	 0.8260405828	 3.433771845	 0.095023
H	 0.9407992986	 2.0458669519	 2.7261974747	 0.101752
H	 0.2037069483	-1.6904407104	 1.4256967866	 0.075121
H	-0.8360754122	-0.5447179044	-0.5573487695	 0.058656
H	 1.787219357	-0.2483676758	-1.5977174174	 0.061884
H	 2.7487283304	-1.2337219613	 0.9234519423	 0.061958
210.8973	305.5835	407.9082	484.207	591.0292	644.2115	680.9494	745.7812	769.4146	796.2401	844.8629	846.0488	866.7431	909.0686	947.692	951.9291	959.8455	970.5766	995.2405	1007.1333	1031.5959	1066.5587	1084.0968	1106.0367	1127.0474	1143.6237	1166.8709	1186.1082	1192.932	1217.2282	1245.1291	1253.9411	1265.1246	1272.2334	1296.3739	1305.6774	1325.0313	1338.2278	1387.4757	1483.267	1521.9995	3000.2108	3043.929	3048.6219	3082.6212	3091.9986	3099.63	3103.3105	3104.7388	3112.7809	3151.5506
C1C2C3COC4C1C2C34	C1[C@H]2[C@H]3CO[C@H]4[C@@H]1[C@@H]2[C@@H]34	
InChI=1S/C8H10O/c1-3-5-2-9-8-4(1)6(3)7(5)8/h3-8H,1-2H2	InChI=1S/C8H10O/c1-3-5-2-9-8-4(1)6(3)7(5)8/h3-8H,1-2H2/t3-,4-,5+,6+,7+,8-/m0/s1
