19
gdb 68570	2.69352	1.927	1.53722	1.4628	79.36	-0.231	0.0032	0.2342	945.9298	0.160531	-385.901181	-385.893908	-385.892964	-385.932166	30.498	
C	 0.0293804072	 1.5426280613	 0.0591512104	-0.460385
C	-0.0265648863	 0.0272529934	-0.0055652659	 0.329134
C	 0.7027585464	-0.5575087378	-1.2484027111	-0.281853
C	 1.0654705336	-2.0133468409	-1.0523071049	-0.05311
C	 0.8152877533	-2.6488576283	 0.0925119024	-0.059099
C	 0.1453220007	-1.8573966173	 1.2064885481	-0.035505
O	 0.6289219995	-0.5146050313	 1.1531167705	-0.275987
C	-1.3324391124	-1.687235964	 0.844790064	-0.083199
C	-1.4231792729	-0.5840034752	 0.1094924399	-0.118298
H	 1.0686896288	 1.8814886905	 0.1086517954	 0.124594
H	-0.4345197815	 1.9839988571	-0.828907965	 0.112865
H	-0.4966905388	 1.9049887087	 0.9463332467	 0.125435
H	 0.0763940479	-0.4441774896	-2.1449897251	 0.102886
H	 1.6138910702	 0.0262075196	-1.4401117632	 0.109971
H	 1.5341488932	-2.5254025741	-1.8888311582	 0.089712
H	 1.0437315979	-3.6997173906	 0.238561877	 0.088772
H	 0.3444924676	-2.2627506414	 2.2014417583	 0.079508
H	-2.1064312304	-2.4097497571	 1.0680237423	 0.10585
H	-2.2940935839	-0.1931755428	-0.4011543316	 0.098711
199.8098	215.6703	287.2622	294.8984	349.1731	417.056	463.189	513.9507	585.7739	637.873	676.8576	735.5101	742.7929	826.8643	858.7322	875.7191	890.0874	929.9244	943.2432	949.3306	965.1804	978.9332	986.2731	1039.9981	1084.539	1135.4161	1173.9813	1186.7309	1212.2666	1242.955	1284.9896	1321.0651	1342.2619	1359.9686	1389.2237	1407.8013	1456.2943	1482.7292	1494.5344	1661.4678	1698.8797	3003.4877	3032.7332	3039.0759	3083.4514	3110.7203	3121.1881	3152.6324	3184.3784	3205.5407	3232.6529
CC12CC=CC(O1)C=C2	C[C@@]12CC=C[C@@H](O1)C=C2	
InChI=1S/C8H10O/c1-8-5-2-3-7(9-8)4-6-8/h2-4,6-7H,5H2,1H3	InChI=1S/C8H10O/c1-8-5-2-3-7(9-8)4-6-8/h2-4,6-7H,5H2,1H3/t7-,8+/m1/s1
