25
gdb 115945	2.975	1.17294	0.96964	0.1455	91.6	-0.2753	0.077	0.3523	1357.5981	0.231352	-352.370549	-352.361569	-352.360625	-352.404322	35.385	
C	 0.0042235012	 1.6253639904	 0.029186373	-0.38263
C	-0.0646102676	 0.0953255659	-0.0362678768	-0.192919
C	 0.7833609053	-0.5167869729	-1.1560406166	 0.052525
C	 2.3099290556	-0.314733118	-1.0408080249	-0.220811
C	 2.8889935987	-1.3045444839	-2.0706030768	-0.223167
C	 1.9726014301	-2.5395237892	-1.9960659053	-0.003194
C	 2.2044293319	-3.4899454963	-0.785813415	-0.220371
C	 0.9177777589	-2.9495609128	-0.1025725956	-0.227367
C	 0.6351970673	-2.0407090257	-1.3397895313	-0.020582
H	 1.0190548508	 1.9745673132	 0.2454008907	 0.116826
H	-0.3048770888	 2.0763316758	-0.9207565	 0.111072
H	-0.6531575219	 2.0173545357	 0.811757432	 0.108706
H	 0.2443667566	-0.3213137579	 0.9306331608	 0.093414
H	-1.1096785858	-0.2107435127	-0.1775665935	 0.089548
H	 0.4657105255	-0.0536826199	-2.1034390873	 0.062431
H	 2.6233535099	 0.7164450878	-1.2263132152	 0.092807
H	 2.6457375656	-0.5723198165	-0.0271904958	 0.093686
H	 2.8314391803	-0.861644445	-3.0723247985	 0.091954
H	 3.9409506247	-1.5491285751	-1.888332371	 0.089524
H	 1.8911793238	-3.0499704258	-2.9582742174	 0.057276
H	 2.159664239	-4.5514234181	-1.042227086	 0.094947
H	 3.135649069	-3.3163861525	-0.2371535389	 0.090936
H	 0.1494204931	-3.7024561469	 0.0891323925	 0.094585
H	 1.093734753	-2.4109709899	 0.8323178317	 0.095342
H	-0.2883926664	-2.2981784394	-1.8641656846	 0.055463
81.2734	92.3025	148.5797	191.6537	235.9893	286.5618	346.3792	374.6902	471.9979	577.1897	583.3766	741.2476	744.2986	767.2367	815.3464	821.0661	874.1953	882.2854	937.8805	948.4084	957.7027	965.1459	980.7534	1001.5041	1037.3945	1063.0207	1079.9061	1092.5081	1145.1742	1172.6563	1178.6893	1193.5813	1224.8803	1237.6785	1259.2139	1268.4012	1273.6506	1291.7484	1309.3729	1318.2791	1330.4848	1335.4472	1346.3889	1377.8602	1392.055	1412.5214	1476.4111	1486.1018	1487.1473	1491.1086	1500.3386	1504.9663	1508.9883	2976.88	3015.7988	3020.695	3027.5921	3029.7629	3045.0649	3048.8176	3059.4142	3063.7758	3072.5046	3077.9423	3087.5794	3091.6206	3095.8765	3102.6654	3112.6525
CCC1CCC2CCC12	CC[C@H]1CC[C@H]2CC[C@@H]12	
InChI=1S/C9H16/c1-2-7-3-4-8-5-6-9(7)8/h7-9H,2-6H2,1H3	InChI=1S/C9H16/c1-2-7-3-4-8-5-6-9(7)8/h7-9H,2-6H2,1H3/t7-,8-,9-/m0/s1
