21
gdb 107228	2.79887	1.42849	1.10301	1.6852	82.18	-0.1986	0.0719	0.2705	1166.7146	0.181472	-387.015723	-387.006688	-387.005743	-387.049153	35.121	
C	-0.0252649015	 1.5353487519	 0.0905759074	-0.497384
C	 0.0135017208	 0.0343743014	 0.0088339285	 0.282459
C	-0.8804317071	-0.8458230748	 0.8445461936	-0.352379
C	 0.6159917937	-0.9723437036	 0.9770569801	-0.102026
C	 1.2904204547	-1.7221112265	-0.2031433818	-0.093703
C	 0.3286534753	-2.1934013634	-1.2658184313	-0.361213
C	 0.6887543696	-0.7344646753	-1.1849867482	 0.305557
C	 1.3652922562	-0.0138297753	-2.317000822	-0.193715
O	 2.2412300624	-0.9230288183	-2.9711168682	-0.418668
H	 0.9525393589	 1.9858653512	-0.1136926769	 0.116865
H	-0.7427076382	 1.9627764791	-0.6216762839	 0.116131
H	-0.3293118055	 1.8557717594	 1.0923798413	 0.116405
H	-1.3512457659	-0.3212156634	 1.6717945101	 0.104911
H	-1.5035746203	-1.6312761189	 0.4327440866	 0.108828
H	 1.124566782	-0.7762240962	 1.9131678454	 0.08242
H	 2.3131440864	-2.0740418689	-0.1661203982	 0.09264
H	 0.818042619	-2.6980450528	-2.0919612952	 0.129481
H	-0.6592274604	-2.5780797483	-1.0392883709	 0.102377
H	 0.610423918	 0.3788803984	-3.0202700817	 0.086458
H	 1.9255804038	 0.8524914238	-1.92990264	 0.085489
H	 2.630317598	-0.4705627995	-3.7245440046	 0.289066
75.649	133.4941	184.3556	213.3874	219.9343	289.248	317.0132	376.0226	447.6209	462.0737	503.4082	597.1021	646.9631	765.187	800.7856	853.4895	864.3637	896.0106	912.9002	959.5278	967.1842	990.6655	995.4569	1043.0143	1054.9125	1063.7433	1091.0378	1097.2196	1104.6677	1123.2034	1163.2035	1217.7174	1255.4605	1257.6875	1276.1147	1293.8631	1353.4662	1393.3576	1419.2831	1465.3098	1485.5058	1487.1645	1502.0069	1515.144	1522.6897	2945.8221	2976.5396	3016.1726	3072.4728	3093.8781	3121.2692	3138.561	3179.2351	3196.6178	3200.9828	3218.8712	3838.8684
CC12CC1C1CC21CO	C[C@]12C[C@H]1[C@H]1C[C@@]21CO	
InChI=1S/C8H12O/c1-7-2-5(7)6-3-8(6,7)4-9/h5-6,9H,2-4H2,1H3	InChI=1S/C8H12O/c1-7-2-5(7)6-3-8(6,7)4-9/h5-6,9H,2-4H2,1H3/t5-,6+,7-,8-/m0/s1
