18
gdb 119223	1.919	1.19716	0.85102	3.6765	73.23	-0.2682	0.0268	0.295	1372.0336	0.14584	-439.07309	-439.063216	-439.062272	-439.108257	35.316	
O	 0.0453672196	 1.4850256213	 0.2372967476	-0.413412
C	 0.0077506517	 0.0719028922	 0.3314971197	-0.067678
C	-1.2842181392	-0.509096201	-0.2542927091	-0.291225
C	-1.369986936	-2.0245736872	-0.1196740575	 0.13571
C	-1.7782993811	-2.6348306362	 1.2263341118	-0.354527
C	-2.7252327665	-2.6927452325	 0.0650129407	 0.065343
O	-3.8303875038	-1.8495998156	 0.0166809823	-0.413386
C	-0.4062963989	-2.7659506284	-0.8956303287	 0.249561
N	 0.3688789179	-3.3523305197	-1.5238441968	-0.350188
H	 0.1293419798	 1.7179984193	-0.6927787921	 0.285285
H	 0.8837458294	-0.3901275999	-0.1481259935	 0.110613
H	 0.0677276019	-0.1586864498	 1.400623099	 0.113189
H	-2.146789693	-0.0609783639	 0.2430995628	 0.130727
H	-1.356017293	-0.2419290739	-1.3162855995	 0.109012
H	-1.2882397528	-3.5448225178	 1.5512954118	 0.140631
H	-1.9998322201	-1.9178926007	 2.0097711674	 0.133797
H	-2.8525608134	-3.6537310024	-0.4310970088	 0.118115
H	-4.4713365925	-2.1550390039	 0.667491823	 0.298433
72.7993	94.8515	132.9945	147.961	172.4202	238.2794	274.9208	297.7656	332.054	396.2108	430.3438	500.1053	573.2679	601.0813	717.0188	784.451	825.3166	904.5987	946.0673	990.6905	1024.5177	1056.2898	1062.1039	1077.0103	1110.4398	1148.4666	1196.9956	1260.9203	1271.211	1308.5785	1320.6068	1333.0905	1401.3244	1419.36	1424.6478	1474.6009	1490.6787	1513.8787	2346.6552	2996.0767	3032.7413	3072.4449	3117.7031	3119.2307	3140.1966	3236.2174	3809.0264	3818.0178
OCCC1(CC1O)C#N	OCC[C@]1(C[C@H]1O)C#N	
InChI=1S/C6H9NO2/c7-4-6(1-2-8)3-5(6)9/h5,8-9H,1-3H2	InChI=1S/C6H9NO2/c7-4-6(1-2-8)3-5(6)9/h5,8-9H,1-3H2/t5-,6+/m1/s1
