22
gdb 116616	2.21115	1.10082	0.79687	1.9764	86.39	-0.2463	0.0306	0.2769	1535.3227	0.193215	-404.355903	-404.345669	-404.344725	-404.392496	36.274	
C	 0.6662912619	 0.0756195278	 0.5770712716	-0.360159
C	-0.4425805629	 0.5937727624	-0.3393124901	-0.14844
N	-1.6682584407	-0.1759326289	-0.135932585	-0.333008
C	-2.2839650621	-0.6304927087	-1.1254197167	 0.466295
O	-2.0079657482	-0.5261834158	-2.4825220391	-0.268637
C	-3.1510879063	-1.3695605507	-2.8156395838	-0.106026
C	-3.5240471358	-1.4852595987	-1.3197253424	-0.144623
C	-3.5236806281	-2.8705753414	-0.6734723162	-0.19423
C	-3.7011250002	-2.8091619992	 0.8468794807	-0.383613
H	 1.5688377052	 0.6866640886	 0.4750482356	 0.10729
H	 0.3436964349	 0.1007064024	 1.6219462476	 0.122722
H	 0.9241826851	-0.9587753326	 0.3289317183	 0.115306
H	-0.6608514258	 1.6392540344	-0.0851462911	 0.106596
H	-0.1093989227	 0.5795289247	-1.3852946176	 0.109286
H	-3.8548382341	-0.8387759332	-3.4615476823	 0.117477
H	-2.8243937145	-2.298033087	-3.2933252717	 0.116327
H	-4.4415934273	-0.9452275626	-1.0647776099	 0.101964
H	-4.325672037	-3.468995944	-1.1243577433	 0.098111
H	-2.5818262852	-3.3776408817	-0.9181888429	 0.10227
H	-2.9184381898	-2.1945890305	 1.2993198003	 0.152622
H	-4.6684016613	-2.3680464521	 1.1121403921	 0.112227
H	-3.6585690153	-3.8100962131	 1.2866540758	 0.110244
28.7224	77.7855	101.1073	123.761	174.6715	199.8575	246.9266	266.2015	318.9402	363.6072	429.5905	532.6116	676.3809	731.9981	778.3331	813.0147	827.7251	902.3886	928.5837	971.0487	973.7647	1011.5049	1063.9954	1084.0587	1106.8165	1110.3754	1131.5439	1154.3226	1171.0424	1191.1901	1239.4376	1287.9578	1301.7909	1322.3326	1361.391	1381.7174	1384.5039	1406.6659	1413.294	1487.257	1488.3179	1492.5792	1497.8636	1509.67	1511.9757	1515.9845	1834.5307	3009.9163	3019.3537	3035.758	3037.4582	3044.9629	3049.0804	3053.5124	3067.1134	3101.8843	3108.2101	3112.1801	3116.8146	3126.031
CCN=C1OCC1CC	CCN=C1OC[C@H]1CC	
InChI=1S/C7H13NO/c1-3-6-5-9-7(6)8-4-2/h6H,3-5H2,1-2H3	InChI=1S/C7H13NO/c1-3-6-5-9-7(6)8-4-2/h6H,3-5H2,1-2H3/t6-/m1/s1
