19
gdb 69920	3.01864	1.77478	1.63802	1.5174	77.36	-0.2325	0.0086	0.2411	924.5137	0.161125	-385.86133	-385.85437	-385.853426	-385.89212	29.476	
C	 0.0339074611	 1.4909499771	 0.0064432544	-0.488261
C	-0.0470510472	-0.0160180016	 0.0313584367	 0.364534
C	-0.9137202366	-0.7507209839	 1.0231381012	-0.350173
C	 0.5906649443	-0.869648288	 1.1015475926	-0.092542
C	 1.3654726849	-1.93138506	 0.2513396012	 0.013216
O	 1.7805498261	-1.1240978777	-0.8694465967	-0.246734
C	 0.4424644372	-0.7645985048	-1.2648485952	-0.05295
C	-0.2137671969	-2.138299791	-1.3682905264	-0.083448
C	 0.3685800281	-2.8730124469	-0.420252314	-0.084538
H	 1.0138708484	 1.820750052	-0.3561019898	 0.12772
H	-0.7314156766	 1.9246936727	-0.6485499062	 0.114044
H	-0.1126060128	 1.91175874	 1.0062735029	 0.114295
H	-1.3862982832	-0.1411512812	 1.7891511472	 0.103136
H	-1.5024689393	-1.6038834034	 0.7077633179	 0.110701
H	 1.1224750352	-0.4226766944	 1.9334580532	 0.089731
H	 2.2274212186	-2.3753075791	 0.7466904105	 0.075485
H	 0.4593614621	-0.1432110857	-2.1597054845	 0.072054
H	-1.0403049235	-2.395035162	-2.0164215543	 0.106668
H	 0.1335218703	-3.8779943919	-0.0980141807	 0.107062
178.2465	213.0782	280.4849	340.8288	375.0907	493.1836	524.7551	593.9268	628.5676	716.8667	746.7618	771.9097	830.1325	842.7593	872.5077	895.4819	902.8926	928.4611	937.7557	964.0211	972.4052	987.3982	1004.9138	1054.3872	1088.5868	1097.6423	1123.983	1130.4701	1207.5641	1226.253	1253.7359	1261.6751	1280.1093	1325.0246	1333.8708	1388.269	1414.9447	1481.5296	1489.9984	1499.3205	1636.9808	3021.1805	3081.6763	3099.0411	3120.0787	3125.8131	3134.3982	3176.2838	3210.3442	3217.1813	3242.8986
CC12CC1C1OC2C=C1	C[C@]12C[C@H]1[C@@H]1O[C@H]2C=C1	
InChI=1S/C8H10O/c1-8-4-5(8)6-2-3-7(8)9-6/h2-3,5-7H,4H2,1H3	InChI=1S/C8H10O/c1-8-4-5(8)6-2-3-7(8)9-6/h2-3,5-7H,4H2,1H3/t5-,6+,7-,8-/m0/s1
