16
gdb 18074	4.63221	1.38973	1.31881	4.1194	65.04	-0.2679	0.004	0.2719	961.6866	0.130626	-383.726918	-383.719676	-383.718732	-383.759036	26.421	
O	 0.2276990814	 0.1204443048	 0.1838068663	-0.275133
C	 0.3764554131	 1.2936547872	 0.3486610735	 0.174113
O	 0.9607874977	 2.0887418593	-0.5730337674	-0.190984
C	 1.0207764744	 3.4729056653	-0.2667561838	 0.108672
C	 1.8857717504	 4.0318374262	 0.820992348	-0.105079
C	 3.171681775	 3.2100497326	 0.9766334502	-0.231699
C	 3.4892882509	 3.4272689091	-0.5365327131	-0.22242
C	 2.2102642934	 4.2617215809	-0.6787659704	-0.099026
H	 0.0624169512	 1.8481347325	 1.2529754118	 0.082741
H	 0.0644982909	 3.9704431973	-0.4055309713	 0.111979
H	 1.4837151121	 4.7182938237	 1.5573179449	 0.094378
H	 3.8981843871	 3.7036492279	 1.6243748882	 0.112472
H	 3.049000157	 2.1774051662	 1.3161668997	 0.11156
H	 4.3935055049	 4.0187760531	-0.6879529801	 0.109777
H	 3.5371039159	 2.5331920767	-1.1621856194	 0.122232
H	 2.1039662046	 5.1559614074	-1.281179307	 0.096419
63.962	138.9048	157.8181	248.1376	278.8546	481.7316	498.0939	698.3921	734.3559	759.2889	795.734	819.3955	934.6909	961.7468	969.8649	1005.6448	1019.182	1033.4479	1054.2115	1082.577	1133.5057	1148.9883	1169.0897	1205.1233	1229.4334	1250.4328	1268.1625	1303.4749	1349.4901	1409.4078	1438.4322	1478.9112	1501.6991	1866.6107	2965.0589	3059.0912	3074.8257	3111.786	3131.9889	3145.1467	3174.2313	3187.3095
O=COC1C2CCC12	O=CO[C@H]1[C@H]2CC[C@@H]12	
InChI=1S/C6H8O2/c7-3-8-6-4-1-2-5(4)6/h3-6H,1-2H2	InChI=1S/C6H8O2/c7-3-8-6-4-1-2-5(4)6/h3-6H,1-2H2/t4-,5+,6-
