18
gdb 34198	3.95914	1.4049	1.23621	1.4207	82.11	-0.2119	0.0333	0.2453	1036.4613	0.148748	-364.715263	-364.708056	-364.707112	-364.746568	29.573	
C	-0.0086432134	-1.22734652	 0.037044636	-0.362585
C	-0.0183329788	-0.0240606582	 0.0046372495	 0.102436
C	-0.0204927604	 1.4120700496	-0.0355632851	 0.201417
C	-1.1425704258	 2.1836509768	 0.7324497751	-0.284168
C	-1.2159928351	 3.2437723504	-0.3957586718	-0.052919
C	-0.0096343878	 4.2023128345	-0.3886672863	-0.17348
N	 0.8900549098	 3.1734605883	-1.0170238547	-0.14628
C	 1.3318195927	 2.1768392636	 0.0102101953	-0.219984
C	-0.337275655	 2.3160330226	-1.2909062566	-0.045575
H	-0.0004709021	-2.2886683275	 0.0654984265	 0.184388
H	-2.052545307	 1.5797448662	 0.7621663307	 0.117586
H	-0.9070220372	 2.5237767161	 1.7458005945	 0.098928
H	-2.1988511517	 3.6311014052	-0.6642973321	 0.073719
H	-0.1327607406	 5.0450423075	-1.0764027635	 0.109209
H	 0.3355844466	 4.5867474071	 0.5779918982	 0.098394
H	 1.6346521379	 2.6025048088	 0.9732782274	 0.101505
H	 2.1524696109	 1.5726808379	-0.3865184929	 0.117642
H	-0.5443660832	 1.9614362912	-2.2994646303	 0.079767
138.3629	141.0229	290.426	326.5342	440.223	456.0184	521.4168	543.293	608.6612	620.776	626.0227	728.6794	809.6254	814.1999	881.2969	901.3497	913.2428	939.2937	946.304	975.4439	984.3616	1035.8517	1077.1586	1121.4237	1155.4307	1170.341	1178.9027	1197.7381	1205.4253	1228.2688	1243.8547	1262.1891	1303.1764	1322.0872	1338.9232	1482.082	1492.3566	1509.5409	2227.6368	3029.0832	3037.4437	3049.8005	3079.9215	3093.9288	3101.6904	3112.5573	3127.396	3502.1452
C#CC12CC3CN(C1)C23	C#C[C@@]12C[C@H]3CN(C1)[C@@H]23	
InChI=1S/C8H9N/c1-2-8-3-6-4-9(5-8)7(6)8/h1,6-7H,3-5H2	InChI=1S/C8H9N/c1-2-8-3-6-4-9(5-8)7(6)8/h1,6-7H,3-5H2/t6-,7+,8+/m0/s1
