16
gdb 130299	3.19773	1.5623	1.07142	3.2835	71.7	-0.2042	0.0097	0.2139	1073.956	0.127828	-434.044804	-434.037463	-434.036519	-434.076545	28.462	
N	 0.0037318469	 1.4023320978	-0.1534492269	-0.596027
C	 0.046070776	 0.0237642772	-0.0289780516	 0.292338
N	-1.063971021	-0.6984134759	 0.0143098237	-0.24251
O	-0.6553750596	-2.056864719	 0.0611781454	-0.24101
C	 0.6775323992	-2.0642719344	 0.0445104758	 0.390185
C	 1.190897371	-0.8204596384	-0.012479168	 0.111699
N	 2.6079211875	-0.7696898088	 0.0252598882	-0.429165
C	 2.9863769203	-2.2014064725	 0.2848829018	-0.165484
C	 1.7307324149	-3.1231156007	 0.0413510796	-0.365201
H	 0.7288472323	 1.8745276907	 0.3695684842	 0.258106
H	-0.9111865994	 1.7833349048	 0.0506867616	 0.25972
H	 2.9905129494	-0.4555839136	-0.8623613615	 0.232611
H	 3.8428126721	-2.4854096631	-0.3301561327	 0.113331
H	 3.2868935947	-2.2834643359	 1.3339816696	 0.126579
H	 1.6285485328	-3.8672864959	 0.8356057075	 0.130642
H	 1.767141953	-3.6636684924	-0.9135312765	 0.124187
126.4947	160.7816	241.6062	266.8334	332.2523	385.6393	504.6666	591.4321	603.3243	632.2729	678.394	736.3926	756.6486	786.7873	807.069	901.2205	921.8418	929.1125	969.9281	1061.197	1090.962	1136.5195	1181.8027	1236.1641	1271.6766	1287.632	1366.3098	1378.3396	1406.316	1486.0043	1504.3988	1516.3817	1560.7843	1643.3996	1697.3417	3020.9713	3052.6603	3089.1646	3113.2662	3485.0873	3545.6071	3645.2094
NC1=NOC2=C1NCC2	Nc1noc2c1NCC2	
InChI=1S/C5H7N3O/c6-5-4-3(9-8-5)1-2-7-4/h7H,1-2H2,(H2,6,8)	InChI=1S/C5H7N3O/c6-5-4-3(9-8-5)1-2-7-4/h7H,1-2H2,(H2,6,8)
