21
gdb 110906	2.4988	1.56491	1.18335	2.2534	78.39	-0.2351	0.0836	0.3186	1136.0149	0.182721	-424.193781	-424.185149	-424.184205	-424.227026	32.983	
C	 0.1844195919	 1.3814811288	 0.0548325494	-0.240755
O	-0.1181650541	 0.0188496177	-0.1331171685	-0.240934
C	 0.6040760184	-0.5905364321	-1.1744397006	 0.153844
C	 2.049181791	-1.0056810992	-0.7943673493	 0.03456
C	 2.4478922483	-1.9593047101	-1.9419821446	-0.247365
C	 1.3763275006	-2.7868871656	-1.2004950135	 0.075877
O	 1.8233591847	-2.1741252375	 0.0505418269	-0.291166
C	 0.0544618266	-2.0308972025	-1.4784994218	-0.036001
C	-1.1005221861	-2.4795077776	-0.5880941084	-0.3943
H	 1.2276372819	 1.5426579421	 0.3642033306	 0.106667
H	 0.0039537961	 1.9669896955	-0.860982587	 0.102706
H	-0.4726426377	 1.7512517781	 0.8456749668	 0.129178
H	 0.5940583041	 0.0576317483	-2.0646197904	 0.057616
H	 2.7201205634	-0.2641453191	-0.3608265868	 0.078548
H	 2.2693561361	-1.6595446395	-2.9785940787	 0.093418
H	 3.4524831456	-2.3608553785	-1.8069401595	 0.112554
H	 1.3582821739	-3.8770904402	-1.1795675831	 0.077037
H	-0.2279563892	-2.1174659048	-2.5330331743	 0.069565
H	-0.796207515	-2.4738311403	 0.4603890434	 0.140263
H	-1.9615415371	-1.8148229931	-0.6911238507	 0.118891
H	-1.4151253835	-3.4931433004	-0.8592656	 0.099797
86.9122	127.6537	179.1159	211.1223	213.4884	274.9726	311.4365	434.5643	464.9989	493.0416	631.9047	732.6955	791.9648	839.4946	854.911	879.2387	881.7071	928.8854	960.6278	999.9429	1013.4355	1044.2157	1073.2448	1091.4523	1111.2346	1140.3068	1167.3591	1181.8606	1191.7754	1216.7551	1229.1418	1243.3297	1273.9689	1290.5788	1304.6876	1333.4836	1368.8311	1393.0645	1410.2196	1479.4671	1485.5742	1488.3261	1490.1116	1502.1874	1509.3657	2970.0499	2979.1795	3022.6267	3041.3563	3049.6503	3062.0517	3111.9365	3114.3257	3116.6897	3124.0409	3138.4444	3142.0214
COC1C2CC(O2)C1C	CO[C@H]1[C@@H]2C[C@@H](O2)[C@H]1C	
InChI=1S/C7H12O2/c1-4-5-3-6(9-5)7(4)8-2/h4-7H,3H2,1-2H3	InChI=1S/C7H12O2/c1-4-5-3-6(9-5)7(4)8-2/h4-7H,3H2,1-2H3/t4-,5-,6+,7-/m1/s1
