15
gdb 24382	3.78636	1.63116	1.15084	1.8854	72.65	-0.1883	0.006	0.1944	987.8212	0.116339	-416.841733	-416.835055	-416.83411	-416.87285	26.246	
C	 0.0125800346	 1.5400134256	-0.037136542	-0.280938
N	 1.3938302771	 2.0452241826	 0.0356519238	-0.243686
C	 2.3686413677	 1.2652590534	 0.2613826305	 0.077562
N	 2.3167435508	-0.1145343446	 0.4962961338	-0.432062
C	 1.0774358381	-0.6689719916	 0.2320922555	 0.391195
C	-0.0500003924	 0.036676502	-0.0190699212	 0.16741
C	-1.0657772289	-0.9622627806	-0.2127545412	-0.305151
C	-0.4591145582	-2.167754869	-0.0605073443	-0.031845
O	 0.8822774959	-1.9993364661	 0.2219582875	-0.200761
H	-0.5497393838	 1.9839475517	 0.7988053048	 0.115609
H	-0.4464485067	 1.9558341209	-0.9447466998	 0.116027
H	 3.3784102315	 1.6715971849	 0.3100849645	 0.118406
H	 3.145970806	-0.6629747492	 0.3245340316	 0.258998
H	-2.1097358812	-0.8033041775	-0.4360245034	 0.113184
H	-0.7913604207	-3.1898947925	-0.10879536	 0.136052
93.9108	239.2096	292.0888	380.5411	405.9724	502.5936	532.4384	607.5976	626.2694	662.6458	711.1678	757.0249	826.1241	883.4248	917.4408	931.2483	940.3253	1034.7657	1045.0149	1082.5777	1139.3361	1188.1496	1249.4713	1260.1962	1288.0924	1361.786	1397.5864	1415.3838	1505.354	1520.549	1547.4149	1682.6902	1748.2842	2977.7475	3007.3118	3137.9065	3251.1986	3299.1729	3616.9507
C1N=CNC2=C1C=CO2	C1N=CNc2c1cco2	
InChI=1S/C6H6N2O/c1-2-9-6-5(1)3-7-4-8-6/h1-2,4H,3H2,(H,7,8)	InChI=1S/C6H6N2O/c1-2-9-6-5(1)3-7-4-8-6/h1-2,4H,3H2,(H,7,8)
