16
gdb 125930	2.80797	1.62378	1.08677	3.843	71.	-0.2167	0.0211	0.2379	1076.829	0.12583	-434.079109	-434.071227	-434.070283	-434.111967	29.056	
C	-0.6502734607	 1.5471400061	-0.3408496434	-0.399755
C	 0.0119498715	 0.2082586105	-0.08790549	 0.049616
C	 1.0065421299	-0.3572600072	-1.1910569375	-0.38988
C	 2.0323994818	-0.3311806757	-0.0801830718	 0.411066
N	 3.179939401	-0.6921109975	 0.3911598413	-0.328309
N	 3.0425319345	-0.2968999806	 1.7256268416	-0.319752
C	 1.7961360397	 0.2177286899	 2.0898916904	 0.438509
O	 1.3957182222	 0.5613574608	 3.1779310294	-0.421477
N	 1.1905887167	 0.2391145804	 0.8233119399	-0.131412
H	 0.0830648125	 2.290665311	-0.666498833	 0.132152
H	-1.4148277372	 1.445479548	-1.1177320471	 0.129493
H	-1.1337353799	 1.9150604651	 0.568600222	 0.149202
H	-0.7159656352	-0.5415183552	 0.2350039517	 0.116882
H	 0.758458141	-1.344166363	-1.5848579165	 0.144166
H	 1.1902489382	 0.3327825316	-2.0175278634	 0.140389
H	 3.7836851841	-0.491392184	 2.3758945563	 0.27911
60.9294	129.7539	200.7641	232.679	259.1696	386.5192	396.6044	443.57	589.4912	660.2237	678.3629	701.1781	731.893	779.8656	837.8196	906.0555	1012.7912	1041.9748	1068.3139	1088.3679	1104.9606	1159.9412	1181.407	1226.0176	1245.4232	1283.1088	1364.6137	1373.3288	1412.4563	1430.4583	1474.7001	1485.2111	1495.5253	1679.4943	1845.0454	3041.6271	3071.1465	3080.675	3116.5021	3122.8966	3137.8087	3694.1819
CC1CC2=NNC(=O)N12	C[C@H]1Cc2n[nH]c(=O)n12	
InChI=1S/C5H7N3O/c1-3-2-4-6-7-5(9)8(3)4/h3H,2H2,1H3,(H,7,9)	InChI=1S/C5H7N3O/c1-3-2-4-6-7-5(9)8(3)4/h3H,2H2,1H3,(H,7,9)/t3-/m0/s1
