15
gdb 57170	3.24527	1.22926	0.8966	2.179	71.4	-0.2706	-0.0568	0.2138	1211.4804	0.110639	-453.977451	-453.967988	-453.967043	-454.012315	33.464	
C	-1.1764091183	 1.1388319673	-0.2323455106	-0.352859
N	-0.2277388853	 0.0452140769	 0.018788167	-0.215813
C	-0.1374406251	-0.4042719177	 1.3899166297	 0.496625
N	 0.7394517727	-1.4015509461	 1.6174812669	-0.555677
O	-0.8260585084	 0.1162301464	 2.2436243667	-0.397416
C	 0.5004870985	-0.4837400661	-1.0263359108	 0.3404
O	 1.3156903919	-1.3935639814	-0.9374804246	-0.381659
C	 0.2477238326	 0.1186787004	-2.3230554318	 0.197313
C	 0.0995758703	 0.5594708214	-3.4318650714	-0.373618
H	-1.6237873548	 1.3911535724	 0.725769551	 0.182344
H	-0.6610284524	 2.0103544931	-0.6416266596	 0.141472
H	-1.9539837129	 0.8234198049	-0.9315076287	 0.141379
H	 1.2739197459	-1.7971579299	 0.8547878512	 0.293532
H	 0.8046012438	-1.729998766	 2.5649222089	 0.266381
H	-0.0292848583	 0.9476695344	-4.4132293639	 0.217595
59.6813	71.2039	103.9075	156.0191	227.1395	287.0811	331.917	353.9	385.34	436.565	471.104	571.563	645.7844	659.165	671.6571	701.4556	734.4496	767.4414	781.6128	905.5171	1116.8815	1144.1017	1159.4122	1221.2711	1343.4836	1355.2977	1449.691	1502.9912	1505.8861	1578.5161	1721.427	1818.42	2225.4014	3060.7637	3126.5849	3187.538	3492.915	3512.1053	3719.739
CN(C(N)=O)C(=O)C#C	CN(C(=O)N)C(=O)C#C	
InChI=1S/C5H6N2O2/c1-3-4(8)7(2)5(6)9/h1H,2H3,(H2,6,9)	InChI=1S/C5H6N2O2/c1-3-4(8)7(2)5(6)9/h1H,2H3,(H2,6,9)
