18
gdb 39771	3.02306	1.8359	1.48523	1.4891	74.48	-0.23	0.0761	0.3062	928.4462	0.149313	-401.850558	-401.843878	-401.842934	-401.881249	28.252	
C	-0.0247294159	 1.5068781472	 0.0100211731	-0.378859
C	 1.3535691443	 0.8678672334	-0.0075760013	-0.326602
C	 0.135493602	 0.0215891648	 0.0010710047	 0.47794
C	-0.4953886255	-0.9696672965	 0.982190269	-0.037479
O	-1.6012855433	-1.1077779405	 0.0137530447	-0.305879
C	-0.5159344513	-0.9600621638	-0.9762726503	-0.037473
C	 0.2459673443	-2.2885393059	-0.7518643179	-0.049991
N	 1.5304395656	-2.1456059625	-0.024194591	-0.326645
C	 0.2615040559	-2.2958003731	 0.7288293602	-0.049991
H	-0.3603615804	 1.9821919901	 0.926365895	 0.112631
H	-0.3794872566	 1.9911026689	-0.8943753295	 0.112632
H	 1.9338041071	 0.9150853797	-0.9228917036	 0.114222
H	 1.9528939374	 0.9061955378	 0.8957766026	 0.114222
H	-0.8160107968	-0.7159302168	 1.9920488806	 0.077546
H	-0.8576472395	-0.6964641007	-1.9766445733	 0.077547
H	 0.0450507172	-3.1633121296	-1.3579570325	 0.098748
H	 2.0010303162	-3.0503108903	-0.0335701154	 0.228681
H	 0.073257919	-3.176495212	 1.3303968151	 0.098748
178.6128	216.7164	262.3885	386.4736	409.5797	509.5431	608.3189	667.9871	707.2248	747.7518	778.6652	831.036	838.448	856.6397	893.3523	893.7229	915.3257	919.6193	951.054	965.4904	1013.0641	1052.2072	1052.3855	1072.5325	1074.8172	1106.8271	1142.0565	1177.8352	1184.2708	1193.9709	1222.8699	1243.2319	1257.3676	1299.1268	1332.9783	1383.2435	1431.048	1462.9326	1518.1259	3123.0705	3128.4679	3130.6526	3132.9814	3185.0706	3195.2684	3201.1339	3217.8467	3467.6524
C1CC11C2OC1C1NC21	C1CC21[C@H]1O[C@@H]2[C@H]2N[C@@H]12	
InChI=1S/C7H9NO/c1-2-7(1)5-3-4(8-3)6(7)9-5/h3-6,8H,1-2H2	InChI=1S/C7H9NO/c1-2-7(1)5-3-4(8-3)6(7)9-5/h3-6,8H,1-2H2/t3-,4+,5+,6-
