22
gdb 17345	3.94264	1.22792	1.04183	0.	83.25	-0.2392	0.0899	0.3292	1229.2093	0.199791	-313.049068	-313.040015	-313.03907	-313.082912	34.125	
C	-0.0969338375	 1.5810192236	-0.10235922	-0.402077
C	-0.0200939351	 0.0738225942	 0.007420663	 0.001708
C	 1.2753157047	-0.6627174422	-0.2388430385	-0.307196
C	 0.6773612198	-0.6362532791	 1.1512949271	 0.001645
C	 1.3501045995	 0.1015007014	 2.2668929639	 0.001645
C	 0.7521340958	 0.1279926728	 3.6570236865	-0.307195
C	 2.0475333755	-0.6085736423	 3.410784299	 0.001707
C	 2.1243459257	-2.1157701581	 3.5205849285	-0.402078
H	 0.8332381932	 2.0630209564	 0.2118653242	 0.114638
H	-0.2852868356	 1.884260442	-1.138363722	 0.113499
H	-0.9053346474	 1.987543156	 0.5157923807	 0.116399
H	-0.9136882765	-0.4303476229	-0.3533152577	 0.078461
H	 1.2623529953	-1.5900211573	-0.8017195232	 0.104444
H	 2.1629936832	-0.05875289	-0.4048800921	 0.104716
H	 0.1937706405	-1.5579449697	 1.4621927185	 0.073764
H	 1.8337169305	 1.0231792974	 1.9559899744	 0.073764
H	 0.7651057001	 1.0553030847	 4.2198889174	 0.104444
H	-0.1355563491	-0.4759546457	 3.8230567134	 0.104716
H	 2.9411328598	-0.1044147191	 3.7715232647	 0.078461
H	 1.194167497	-2.5977600991	 3.206361028	 0.114638
H	 2.9327440142	-2.5223169822	 2.9024447698	 0.116399
H	 2.3126861964	-2.4190002507	 4.5565949944	 0.113499
43.7321	120.4176	176.0476	190.9487	221.6763	227.6438	331.8053	372.926	423.0317	430.4469	558.2457	745.6249	770.6446	794.8431	846.8708	865.0074	877.6223	906.1191	921.4787	983.1178	1009.6009	1048.0951	1049.3571	1068.5601	1072.7185	1110.0375	1110.1978	1145.0294	1152.1592	1195.1901	1197.945	1206.0136	1232.3106	1266.9328	1320.1406	1398.1106	1398.8528	1418.5369	1423.9523	1453.2975	1488.984	1493.4463	1494.4941	1494.5177	1502.8072	1511.5154	3028.801	3028.8664	3085.9457	3086.0635	3099.9977	3101.3217	3120.4718	3120.5677	3127.7367	3129.306	3139.4539	3149.2081	3204.4755	3205.0443
CC1CC1C1CC1C	C[C@H]1C[C@H]1[C@H]1C[C@H]1C	
InChI=1S/C8H14/c1-5-3-7(5)8-4-6(8)2/h5-8H,3-4H2,1-2H3	InChI=1S/C8H14/c1-5-3-7(5)8-4-6(8)2/h5-8H,3-4H2,1-2H3/t5-,6+,7+,8-
