19
gdb 93940	2.65814	1.47133	1.19901	3.7903	71.43	-0.2379	0.0407	0.2786	1089.9322	0.161689	-456.390179	-456.381559	-456.380615	-456.423773	32.907	
N	-0.0282507662	 0.9687650193	-0.5010144452	-0.543239
C	-0.1856532388	-0.3569313087	-0.1569891635	 0.421261
O	 0.6320111788	-1.2103924346	-0.4800736036	-0.412515
N	-1.3394464699	-0.6333672785	 0.5644921551	-0.104821
C	-2.6331282799	-0.0397551805	 0.152763834	-0.189425
C	-3.5172193331	-1.2476938146	-0.2834221715	-0.230097
C	-2.5656343542	-2.4624299698	-0.2403114267	 0.154901
O	-1.9051278104	-2.6066091085	-1.4891195283	-0.456439
C	-1.5908384289	-2.0486437658	 0.8622537462	-0.23478
H	 0.8810593393	 1.1811671286	-0.8799343139	 0.264662
H	-0.4266035672	 1.6726417344	 0.0996446442	 0.259022
H	-3.0888182897	 0.5014408095	 0.9892703033	 0.105021
H	-2.46716095	 0.6688148002	-0.6595553654	 0.130757
H	-4.350331289	-1.3877684945	 0.4120868764	 0.098307
H	-3.9262298127	-1.1232538708	-1.2871523115	 0.12078
H	-3.1003691179	-3.3909232585	-0.0056620639	 0.069643
H	-0.9582444511	-2.458342339	-1.3595927432	 0.299576
H	-0.6548428184	-2.6051792752	 0.8604770837	 0.145043
H	-2.0604210608	-2.1341594929	 1.849695214	 0.102342
57.0399	100.7123	125.907	276.764	295.2293	340.3276	432.4156	457.5021	458.6071	475.0225	524.6775	583.6454	655.0474	781.6782	792.6896	801.9696	819.1776	875.9391	913.1872	969.5617	997.3387	1018.2401	1089.3972	1095.5856	1121.5493	1176.8252	1209.1076	1233.9999	1265.9716	1300.0971	1318.8672	1332.4669	1366.229	1385.7663	1425.0398	1437.3931	1478.1607	1489.5921	1522.0495	1616.2083	1751.9915	3026.6507	3035.7496	3039.142	3065.0344	3115.0084	3131.8521	3152.5979	3589.9987	3709.9683	3738.1734
NC(=O)N1CCC(O)C1	NC(=O)N1CC[C@@H](O)C1	
InChI=1S/C5H10N2O2/c6-5(9)7-2-1-4(8)3-7/h4,8H,1-3H2,(H2,6,9)	InChI=1S/C5H10N2O2/c6-5(9)7-2-1-4(8)3-7/h4,8H,1-3H2,(H2,6,9)/t4-/m1/s1
