23
gdb 120085	3.79128	0.88078	0.80778	0.242	89.45	-0.2028	0.0803	0.2831	1546.7236	0.205954	-351.077432	-351.068477	-351.067533	-351.111695	34.977	
C	-0.6935720503	 1.5593929981	 0.1964053636	-0.384697
C	-0.4848754784	 0.0503550818	 0.3387310109	-0.187767
C	 0.8110219726	-0.312573243	 1.0790136634	-0.207143
C	 0.984876466	-1.830361336	 1.2016858227	-0.003459
C	 2.2002335582	-2.7105163039	 1.0261496607	-0.097114
C	 3.5030844192	-2.2890034458	 1.7616713193	-0.051416
C	 3.4190456992	-1.0202499318	 2.5671376568	-0.301578
C	 2.7545934952	-2.2681026892	 3.0837282346	-0.051393
C	 1.4478278377	-2.6894178453	 2.3550909261	-0.097141
H	 0.1289003312	 2.0224882366	-0.3603974278	 0.113803
H	-1.6235563088	 1.7864023043	-0.3343023568	 0.110632
H	-0.7422473168	 2.0469726504	 1.1766319901	 0.113802
H	-1.3376511103	-0.3915316552	 0.8710054987	 0.097273
H	-0.4724931941	-0.4158506788	-0.655403585	 0.097279
H	 1.6570621962	 0.1296959042	 0.5401487466	 0.106623
H	 0.789529583	 0.1540280057	 2.0707792557	 0.106604
H	 0.1424968485	-2.3430132728	 0.7329577178	 0.084576
H	 2.2154657948	-3.502618322	 0.2869627856	 0.081154
H	 4.4525252824	-2.7597192222	 1.5411728272	 0.084868
H	 4.3441973765	-0.783767712	 3.0871549523	 0.106492
H	 2.8755738488	-0.1445417529	 2.2456640242	 0.112585
H	 3.0477540266	-2.720549727	 4.0223337654	 0.084865
H	 0.8110987226	-3.4632084532	 2.7672542377	 0.081154
45.4745	94.4908	130.1911	214.5819	255.6568	279.7064	350.7244	397.5667	465.0296	644.8297	685.1914	698.8459	707.9074	754.5517	777.2661	862.015	864.2228	890.0519	909.9536	919.2643	928.8768	970.1029	1012.6631	1016.1989	1030.718	1055.8265	1056.2278	1074.1628	1087.2939	1106.8399	1118.5719	1145.4993	1180.1962	1231.0788	1262.4317	1267.4658	1291.1216	1296.9245	1331.2964	1333.6804	1364.2703	1384.1183	1413.0687	1449.3292	1483.3336	1491.8428	1500.6002	1500.6754	1511.0275	3011.7368	3023.3989	3028.9252	3038.8361	3067.8237	3084.6782	3094.5971	3100.3564	3133.4246	3168.1374	3178.5939	3186.1329	3197.1547	3246.6145
CCCC1C2C3CC3C12	CCC[C@H]1[C@H]2[C@H]3C[C@H]3[C@@H]12	
InChI=1S/C9H14/c1-2-3-5-8-6-4-7(6)9(5)8/h5-9H,2-4H2,1H3	InChI=1S/C9H14/c1-2-3-5-8-6-4-7(6)9(5)8/h5-9H,2-4H2,1H3/t5-,6-,7+,8-,9+
