18
gdb 71725	2.61585	2.05125	1.49677	1.1475	73.82	-0.219	0.0636	0.2827	925.3136	0.148172	-401.888264	-401.880879	-401.879935	-401.919477	30.161	
C	-0.0831685474	 1.5122064969	 0.0605024394	-0.520277
C	 0.0257642163	 0.0211393455	 0.0183447384	 0.289751
C	 0.8185905465	-0.8517183303	-0.9717027972	-0.112766
C	 1.0587309419	-2.1467169369	-0.2810431759	-0.045822
C	 0.9280001021	-1.9981607021	 1.2136375925	-0.308174
C	-0.1271907929	-0.9054864443	 1.2195971162	 0.323673
O	-0.6161716232	-0.3383715225	 2.3871356974	-0.475598
C	-1.018022137	-1.0760087737	 0.006254856	-0.152394
N	-0.2482617053	-1.9064653084	-0.9894206639	-0.162773
H	 0.8903114895	 1.9744849104	 0.2634922963	 0.120578
H	-0.4545324051	 1.9163328193	-0.8875829176	 0.120398
H	-0.767066545	 1.8174618537	 0.8570328566	 0.137725
H	 1.30563684	-0.5169998457	-1.8814304348	 0.093208
H	 1.6757010905	-2.9155461349	-0.7315902324	 0.097489
H	 0.580895449	-2.9169301324	 1.7007529342	 0.099896
H	 1.8638822853	-1.6801305867	 1.6847870714	 0.112739
H	-1.2328977384	-0.9588965139	 2.7913665539	 0.288355
H	-2.1009280368	-1.0575375143	 0.0040233893	 0.093992
187.3776	205.622	224.8593	288.3	339.5952	374.4616	432.4229	541.6624	600.7841	636.8754	706.6783	740.7087	748.8233	805.5667	818.1589	892.7508	923.1746	953.9455	965.1442	982.9513	1001.1374	1039.6082	1059.0704	1112.0553	1134.6392	1157.894	1160.7207	1201.9922	1219.2808	1233.3928	1284.1711	1305.0019	1363.4566	1368.9319	1415.1599	1459.8245	1487.8951	1489.8722	1498.8602	3025.7108	3038.2969	3081.7324	3086.1725	3116.3478	3163.9239	3186.0482	3188.1453	3790.8056
CC12C3C4CC1(O)C2N34	C[C@@]12[C@H]3[C@H]4C[C@]1(O)[C@@H]2N34	
InChI=1S/C7H9NO/c1-6-4-3-2-7(6,9)5(6)8(3)4/h3-5,9H,2H2,1H3	InChI=1S/C7H9NO/c1-6-4-3-2-7(6,9)5(6)8(3)4/h3-5,9H,2H2,1H3/t3-,4-,5-,6+,7+,8?/m1/s1
