17
gdb 108398	2.56916	1.32052	1.09287	2.303	72.93	-0.2604	0.0039	0.2643	1144.8984	0.136092	-417.965155	-417.956637	-417.955693	-417.998691	31.334	
O	 0.1846047179	 1.3767130622	-0.1314403705	-0.404526
C	 0.0332698478	-0.0162266925	 0.081810622	-0.172445
C	-1.4121531937	-0.4334832585	 0.052333709	 0.307829
C	-2.4582108206	-0.1004835111	 1.1166931282	-0.312296
C	-2.938916144	-1.5658524594	 0.9564827882	-0.163483
N	-1.8547455102	-1.8752062224	-0.053306251	-0.181147
C	-2.0570174733	-0.942199694	-1.1961320721	-0.218359
C	-3.3648498883	-0.5194203791	-1.6257085269	 0.311403
N	-4.4145466359	-0.1779134372	-1.9724126085	-0.343636
H	-0.1444530954	 1.5821418035	-1.0130969045	 0.289216
H	 0.6064163665	-0.6184823613	-0.6396614099	 0.103473
H	 0.4503334758	-0.2129184455	 1.0751519019	 0.123468
H	-2.008755862	 0.101860022	 2.090094485	 0.124029
H	-3.1630804087	 0.6978643352	 0.8768825657	 0.133195
H	-2.779862584	-2.1859192487	 1.839159298	 0.125439
H	-3.9505716219	-1.7267131244	 0.577045377	 0.138747
H	-1.38777459	-1.1809572187	-2.0182985116	 0.139093
69.029	109.8583	147.8576	194.7378	283.6242	302.4394	366.9072	389.3132	434.1766	552.1983	578.277	693.8551	771.5384	784.9474	817.9734	877.8804	933.6782	967.586	972.7646	1017.5118	1063.0401	1077.5646	1103.855	1170.5411	1185.2397	1217.8414	1240.1049	1282.5956	1301.5817	1326.1833	1367.927	1409.8905	1427.0729	1484.612	1499.4594	1508.5256	2348.6183	2991.5382	3075.2826	3076.728	3081.4693	3126.5902	3143.2411	3152.394	3809.4664
OCC12CCN1C2C#N	OC[C@]12CCN1[C@H]2C#N	
InChI=1S/C6H8N2O/c7-3-5-6(4-9)1-2-8(5)6/h5,9H,1-2,4H2	InChI=1S/C6H8N2O/c7-3-5-6(4-9)1-2-8(5)6/h5,9H,1-2,4H2/t5-,6-,8?/m0/s1
