17
gdb 77768	2.78009	1.54344	1.15383	3.9453	73.65	-0.2391	0.0151	0.2542	1068.2104	0.135024	-421.764594	-421.756765	-421.755821	-421.796664	30.768	
O	-0.0199406926	 1.4166105179	-0.0796904924	-0.436887
C	 0.0088766053	 0.0217901288	 0.0148955998	 0.163458
C	-0.0190504199	-0.6583690045	 1.4372608092	-0.333302
C	-1.4733847351	-0.1345681167	 1.4952563847	 0.465674
O	-2.2468731396	 0.3452516128	 2.2586863854	-0.318529
C	-1.3923822954	-0.6533486973	 0.0362467438	-0.302088
C	-0.6621823653	-1.8534333363	 0.6921557981	 0.435247
C	-0.0510462622	-3.0725026772	 0.085951138	-0.366993
C	-1.1396702772	-3.1823231481	 1.1518657553	-0.36019
H	 0.8637050408	 1.7563301269	 0.0941155051	 0.289941
H	 0.7164068699	-0.4461486806	-0.6780729054	 0.085869
H	 0.7571173801	-0.6792121586	 2.199832276	 0.090584
H	-2.1413596538	-0.6657527028	-0.7519666452	 0.097895
H	-0.3140540683	-3.3356257224	-0.9335138871	 0.121937
H	 0.9609301032	-3.3443981352	 0.3685276024	 0.119838
H	-0.8481020429	-3.5257096945	 2.1391383946	 0.123256
H	-2.122631877	-3.5175325521	 0.8370525477	 0.124292
127.0309	172.8442	217.9177	238.2935	273.4333	391.3514	407.0216	472.1215	506.906	590.2149	700.2623	737.2765	779.1667	785.9624	809.2336	912.8175	927.6017	950.3579	951.3807	1011.085	1037.7126	1053.6905	1074.7594	1084.4629	1115.6442	1119.6	1149.4629	1166.4067	1181.234	1204.5226	1232.4184	1301.9766	1397.5351	1429.6112	1463.7538	1515.6757	1930.8862	3053.8099	3125.2488	3129.1472	3142.6203	3155.1236	3203.5469	3217.2644	3820.4391
OC1C2C(=O)C1C21CC1	O[C@H]1[C@H]2C(=O)[C@@H]1C12CC1	
InChI=1S/C7H8O2/c8-5-3-6(9)4(5)7(3)1-2-7/h3-5,8H,1-2H2	InChI=1S/C7H8O2/c8-5-3-6(9)4(5)7(3)1-2-7/h3-5,8H,1-2H2/t3-,4+,5-
