21
gdb 111926	3.86931	1.18964	1.10156	0.9932	89.76	-0.2065	-0.0272	0.1793	1207.5887	0.182996	-349.857011	-349.849107	-349.848163	-349.889332	31.901	
C	-0.0111268651	 1.5952263903	 0.0750906471	-0.381621
C	 0.0879957174	 0.0677433961	 0.0493964376	-0.185129
C	 0.6965678841	-0.4860585711	-1.2475688257	-0.009396
C	 2.2158154008	-0.2861487548	-1.2757980695	-0.107214
C	 2.8207693368	-1.4061358172	-1.7170725498	 0.038858
C	 3.272671859	-2.4055796294	-0.6432253903	-0.258702
C	 1.834991101	-2.9916790894	-0.9098937455	-0.065769
C	 0.6747137852	-2.0238046891	-1.396261746	-0.060736
C	 1.7951228703	-2.4041435564	-2.291102954	-0.124484
H	 0.9732582262	 2.0638046683	-0.0292112513	 0.119834
H	-0.6370882868	 1.9617456499	-0.7460906216	 0.115057
H	-0.4494929934	 1.9496021311	 1.0131396609	 0.111812
H	 0.6771803771	-0.2878416305	 0.9044027904	 0.097511
H	-0.9133122986	-0.3660788734	 0.1683418259	 0.095078
H	 0.1423679274	-0.05175367	-2.0950025817	 0.073749
H	 2.6796020958	 0.3568414454	-0.5310168713	 0.09168
H	 4.0162020029	-3.1534837029	-0.9435261584	 0.102777
H	 3.5241099502	-1.9971225735	 0.3400876681	 0.097987
H	 1.5501254405	-4.0059958687	-0.6389055639	 0.087793
H	-0.2832368975	-2.5385470209	-1.4703876552	 0.073589
H	 1.7868688266	-2.8821719638	-3.261730326	 0.087326
96.28	125.3955	190.2532	247.2495	348.1132	379.0595	442.7132	504.4249	609.0722	668.8389	722.4448	765.9444	779.6061	795.0568	820.8714	870.343	900.9009	908.0973	958.1568	964.3357	983.9907	1006.9474	1034.076	1039.1654	1055.8944	1065.5184	1088.8231	1115.2685	1127.8595	1134.4964	1213.2229	1224.6761	1248.4909	1272.4693	1276.8102	1300.5187	1325.5831	1371.8876	1375.7252	1411.657	1485.3353	1498.5286	1500.5176	1505.3608	1591.9787	2966.8542	3018.8165	3023.4311	3031.472	3051.477	3088.1309	3098.1638	3103.1617	3114.2035	3133.3609	3148.6157	3196.3231
CCC1C=C2CC3C1C23	CC[C@H]1[CH][C]2C[C@H]3[C@@H]1[C@@H]23	
InChI=1S/C9H12/c1-2-5-3-6-4-7-8(5)9(6)7/h3,5,7-9H,2,4H2,1H3	InChI=1S/C9H12/c1-2-5-3-6-4-7-8(5)9(6)7/h3,5,7-9H,2,4H2,1H3/t5-,7-,8+,9-/m0/s1
