18
gdb 99195	5.99986	0.55018	0.51005	2.2854	79.24	-0.2449	0.0135	0.2584	2133.2776	0.144853	-439.08505	-439.073953	-439.073009	-439.124938	36.092	
C	-0.0944337507	 1.4360619163	-0.0529928196	-0.498899
C	-0.0686385649	-0.0160167622	 0.0336513192	 0.133922
C	-0.0529823214	-1.2168884047	 0.1043561656	 0.012721
C	 0.0055606978	-2.6636611276	 0.1961354557	-0.232307
O	-1.3251484217	-3.2026957197	 0.0051266108	-0.237831
C	-1.4103960718	-4.5447206233	 0.0669997478	 0.429357
O	-0.4700953319	-5.2738551888	 0.264880095	-0.358351
C	-2.8493534473	-5.0102252404	-0.1461805541	-0.272176
N	-3.046285298	-6.4473330311	-0.0975979666	-0.485594
H	 0.5431199741	 1.7984702905	-0.8665691338	 0.152153
H	-1.1112364866	 1.7970279559	-0.2420650285	 0.155803
H	 0.2539650056	 1.8973933893	 0.8773364621	 0.152155
H	 0.6707510528	-3.0904822593	-0.56239688	 0.147739
H	 0.3821366196	-2.9922029769	 1.1709566789	 0.147738
H	-3.4758185905	-4.5198657895	 0.6080164348	 0.140758
H	-3.1896233133	-4.617208118	-1.111309281	 0.140757
H	-2.4455577858	-6.8871880767	-0.7895543337	 0.236026
H	-2.709211136	-6.7974837738	 0.7951088072	 0.236028
17.332	23.7279	44.4608	69.2766	133.6582	181.606	201.9408	222.8555	296.2008	297.7265	378.374	404.1487	534.6882	578.0583	683.223	783.4965	917.5008	920.0376	965.024	974.9118	1009.6636	1051.2836	1056.3065	1152.3284	1179.7353	1183.6537	1213.0899	1248.5328	1367.7989	1388.5926	1406.1349	1414.2851	1455.5478	1475.4365	1478.1778	1489.1937	1678.3095	1814.8441	2381.9998	3029.8555	3041.5285	3043.8303	3074.947	3079.4243	3092.1902	3092.9614	3493.9113	3561.2808
CC#CCOC(=O)CN	CC#CCOC(=O)CN	
InChI=1S/C6H9NO2/c1-2-3-4-9-6(8)5-7/h4-5,7H2,1H3	InChI=1S/C6H9NO2/c1-2-3-4-9-6(8)5-7/h4-5,7H2,1H3
