21
gdb 37627	2.66908	2.12151	1.92779	0.0988	82.73	-0.244	0.0902	0.3342	874.6644	0.188274	-349.95473	-349.948676	-349.947731	-349.984598	27.488	
C	-0.0355008434	 1.5526879864	 0.0504444093	-0.214314
C	 1.4613247997	 1.888330474	 0.0390381864	-0.056001
C	 2.0709802896	 0.9435489824	 1.1033318283	-0.08306
C	 2.6044977207	 0.0452779954	 0.0093636913	-0.076353
C	 1.3213383116	-0.3157067496	 0.7473287701	-0.043412
C	 0.0255274019	 0.0055599728	-0.0274700096	-0.028604
C	 0.1843596413	-0.4171845923	-1.5045549325	-0.20415
C	 1.2823145194	 0.4580516079	-2.1689161378	-0.221729
C	 2.1950174384	 1.0388937512	-1.0825495107	-0.010523
H	-0.4937956614	 1.8923714298	 0.9862351333	 0.089548
H	-0.5963158798	 1.9950772043	-0.7807250774	 0.086981
H	 1.7172844303	 2.947310395	 0.0740169807	 0.057633
H	 2.4707508573	 1.1867945515	 2.0787449997	 0.077593
H	 3.4746619232	-0.6016687288	 0.0102182035	 0.073059
H	 1.3619035213	-1.1689305611	 1.4141399984	 0.075967
H	-0.8449667263	-0.4778881791	 0.4231419102	 0.054605
H	 0.4621999084	-1.4762912862	-1.546102053	 0.0919
H	-0.7659157784	-0.318495851	-2.0405316502	 0.086957
H	 1.8679755119	-0.1294486773	-2.8846804471	 0.090998
H	 0.8308191165	 1.276394036	-2.7427379402	 0.093048
H	 3.0452170679	 1.5824655289	-1.5010191027	 0.059859
226.9351	337.8092	371.7575	467.6727	536.0586	620.3212	626.587	712.6215	764.0801	785.743	797.4377	820.1168	825.1652	884.38	894.8438	912.3625	936.7084	961.545	980.3007	1008.1119	1015.4919	1041.2642	1048.9244	1060.5667	1071.4189	1076.9326	1098.8143	1109.9052	1168.428	1204.0047	1224.3115	1235.9125	1248.0042	1276.7211	1283.6752	1306.2685	1316.9046	1327.795	1336.1523	1364.7167	1376.8846	1394.3678	1483.6504	1491.7139	1508.5536	3023.5646	3031.0653	3034.6975	3056.0127	3068.6688	3075.2522	3075.8183	3079.2431	3109.6129	3164.9818	3180.9674	3200.9472
C1C2C3C4C3C1CCC24	C1[C@H]2[C@@H]3[C@H]4[C@@H]3[C@@H]1CC[C@@H]24	
InChI=1S/C9H12/c1-2-5-6-3-4(1)7-8(5)9(6)7/h4-9H,1-3H2	InChI=1S/C9H12/c1-2-5-6-3-4(1)7-8(5)9(6)7/h4-9H,1-3H2/t4-,5+,6-,7+,8-,9+/m1/s1
