14
gdb 27390	2.07232	2.01197	1.02202	6.8739	70.05	-0.2233	0.003	0.2263	1080.2169	0.103425	-466.240889	-466.233077	-466.232133	-466.273138	29.87	
N	 0.1032968191	 1.3025176618	 0.1377813396	-0.569031
C	-0.0428335825	-0.0467923754	 0.0374851723	 0.473516
N	-1.1628957643	-0.6443026999	 0.0327500216	-0.32857
C	-1.166013275	-2.0482977968	 0.0026907661	 0.356101
N	-2.2818696428	-2.6631924561	 0.0077794351	-0.519747
N	 0.0754719981	-2.7249118318	-0.0328291512	-0.373748
C	 1.1389531696	-2.0272204499	-0.052668623	 0.475275
N	 2.3916350452	-2.5469353622	-0.1579458247	-0.56894
O	 1.1969911664	-0.6529961169	-0.0130739767	-0.253076
H	 0.961735705	 1.7019196597	-0.2054464384	 0.267234
H	-0.7408632032	 1.8290899035	-0.0213976457	 0.280481
H	-2.0890972246	-3.6653164968	-0.0206932777	 0.21346
H	 2.4569806444	-3.5378659662	 0.0103159014	 0.278459
H	 3.1586009647	-1.976721173	 0.1594297912	 0.268585
97.5293	178.0386	195.1925	321.5269	354.8791	399.9553	403.332	488.8532	504.3553	550.8597	557.607	575.0631	674.7119	714.434	718.1488	783.1386	905.2143	911.3742	932.3659	976.1948	1091.3749	1198.7011	1199.1303	1293.1082	1387.8176	1423.1296	1599.1316	1617.7267	1700.3872	1711.1047	1809.8017	3480.8633	3598.1056	3600.5493	3720.932	3723.6936
NC1=NC(=N)N=C(N)O1	NC1=N[C@@H]([NH])N=C(N)O1	
InChI=1S/C3H5N5O/c4-1-7-2(5)9-3(6)8-1/h(H5,4,5,6,7,8)	InChI=1S/C3H6N5O/c4-1-7-2(5)9-3(6)8-1/h1,4H,(H2,5,7)(H2,6,8)
