17
gdb 112374	2.82266	1.28878	0.94203	3.3626	71.37	-0.2606	-0.0026	0.258	1235.5157	0.136651	-455.212839	-455.20422	-455.203275	-455.247155	30.736	
C	-0.055282421	 1.561289784	 0.2137040873	-0.382614
C	-0.1206978569	 0.0647881329	-0.098988264	-0.155262
N	-1.4666741778	-0.4783507947	-0.0373183824	-0.140272
C	-2.2237164492	-0.6769453672	 1.1778693977	-0.268508
C	-3.492419463	-1.3095877476	 0.6457712718	 0.405617
N	-4.485297809	-1.6614048754	 1.3290787464	-0.522305
O	-3.3681971318	-1.4312568778	-0.7181957058	-0.23162
C	-2.1296441641	-0.9327728842	-1.1369767493	 0.489276
O	-1.7878893767	-0.9424108765	-2.2842038835	-0.386534
H	 0.9788735574	 1.9115433589	 0.1453446776	 0.128789
H	-0.6595865991	 2.1323457929	-0.4967463942	 0.137705
H	-0.413278593	 1.7805725493	 1.2246881231	 0.122628
H	 0.2375727979	-0.1313932458	-1.1120915837	 0.153705
H	 0.5179363468	-0.4969227416	 0.5954458317	 0.112374
H	-1.7167839643	-1.3470443722	 1.8841142757	 0.146835
H	-2.448257983	 0.2582032081	 1.7036186593	 0.150548
H	-5.2154377332	-2.0631044033	 0.7394960322	 0.239638
48.1108	82.1619	133.9077	184.379	205.0423	305.8227	351.595	401.7924	547.5858	569.6044	598.017	679.7423	758.7245	795.2914	821.452	895.366	903.046	957.5735	1031.9916	1042.1297	1072.8352	1099.419	1137.4086	1193.2288	1248.4457	1275.2467	1335.632	1357.7496	1399.9917	1415.1685	1447.6318	1483.3457	1493.8408	1502.3774	1515.9833	1799.6523	1906.6759	3021.6485	3024.4735	3042.1068	3058.9783	3102.8766	3119.9579	3126.5667	3488.1551
CCN1CC(=N)OC1=O	CCN1C[C]([NH])OC1=O	
InChI=1S/C5H8N2O2/c1-2-7-3-4(6)9-5(7)8/h6H,2-3H2,1H3	InChI=1S/C5H8N2O2/c1-2-7-3-4(6)9-5(7)8/h6H,2-3H2,1H3
