22
gdb 118915	2.46095	1.07387	0.9768	3.3227	83.01	-0.2406	0.0398	0.2804	1383.4968	0.193139	-404.385017	-404.374757	-404.373813	-404.420436	37.308	
C	-0.1101115246	 1.5903934991	 0.0992384418	-0.381129
C	-0.0480317495	 0.0626013621	 0.0176941504	-0.17915
C	 0.8401852506	-0.5442441114	 1.1136709083	-0.231916
C	 0.8310489783	-2.0786001438	 1.1704544446	 0.158068
C	 1.3389299106	-2.7466876393	-0.1061885493	-0.451201
C	 1.4230601129	-2.6706522012	 2.4970153414	-0.215723
N	 0.0775436426	-3.1570296259	 2.8069030411	-0.326222
C	-0.521365443	-2.666240585	 1.6755777228	 0.412794
O	-1.6544794771	-2.6941566265	 1.2687940402	-0.375921
H	 0.886392502	 2.0364043803	 0.0008579472	 0.1093
H	-0.7394653686	 2.0048787585	-0.6942332216	 0.11325
H	-0.5251939403	 1.9192763851	 1.0585434378	 0.114393
H	-1.0549142543	-0.3604236794	 0.1015256956	 0.132502
H	 0.3291881966	-0.2302653427	-0.9692138202	 0.095816
H	 1.8766706254	-0.201386217	 0.9827006719	 0.091411
H	 0.5116094148	-0.1569964652	 2.0878861337	 0.096106
H	 2.3394388177	-2.3832422001	-0.3670976987	 0.114686
H	 1.3916477378	-3.8337656612	 0.0112691976	 0.119208
H	 0.6714376679	-2.5384737603	-0.9463245908	 0.140058
H	 2.1660423584	-3.4635029611	 2.3605659241	 0.107355
H	 1.8047009085	-1.9266845087	 3.2042537956	 0.108026
H	-0.2961880468	-3.6583076762	 3.5991543564	 0.248289
75.3727	86.0294	99.0354	168.1548	191.2701	216.0916	245.526	285.4794	314.7884	334.3351	387.7962	484.7316	532.3336	714.9872	750.8977	756.2601	766.704	852.4128	895.2189	898.7092	957.8907	982.3132	1000.6442	1048.4911	1069.6085	1096.9679	1154.6208	1156.8952	1184.5041	1228.1859	1248.4549	1272.9741	1309.5329	1321.2167	1349.1331	1391.3015	1395.7264	1411.5138	1414.9723	1480.4223	1494.9647	1495.3989	1498.8116	1501.1933	1512.5365	1527.1275	1878.9816	2998.494	3027.0027	3029.4159	3030.6454	3034.4136	3040.0814	3074.1618	3079.7393	3096.6733	3098.7967	3102.8952	3117.4442	3607.7304
CCCC1(C)CNC1=O	CCC[C@@]1(C)CNC1=O	
InChI=1S/C7H13NO/c1-3-4-7(2)5-8-6(7)9/h3-5H2,1-2H3,(H,8,9)	InChI=1S/C7H13NO/c1-3-4-7(2)5-8-6(7)9/h3-5H2,1-2H3,(H,8,9)/t7-/m0/s1
