19
gdb 82440	2.65619	1.70852	1.22155	2.4519	75.12	-0.2338	0.0712	0.3051	1043.2424	0.158286	-422.971909	-422.963479	-422.962534	-423.004156	33.592	
C	-0.0370088966	 1.4499572107	 0.0600500191	-0.505801
C	-0.0160194692	-0.0453722432	-0.029757817	 0.261134
C	 0.0277355533	-1.0923433621	 1.0941213728	-0.255326
C	-0.3939133133	-2.1277459569	-0.0280882823	-0.111543
C	 1.0915893664	-2.2180373608	-0.4786633817	-0.302426
C	 1.2468196446	-0.8685942807	 0.2165934649	 0.345545
O	 2.4162317336	-0.1944231501	 0.5002629671	-0.461051
C	-0.9593337586	-0.9348687813	-0.8469037042	 0.111919
O	-2.3257237138	-0.658421475	-0.6302937308	-0.447144
H	 0.6166794399	 1.8047702178	 0.8611687156	 0.128879
H	 0.3103214935	 1.903749138	-0.8752968786	 0.124591
H	-1.0526196291	 1.8129885775	 0.2488021302	 0.11733
H	-0.1180264498	-1.0238679146	 2.1626894051	 0.091566
H	-0.9953856655	-3.0221120502	 0.1192694206	 0.076224
H	 1.630391403	-3.007718366	 0.0564395859	 0.090349
H	 1.296595383	-2.2923189135	-1.5532518743	 0.094119
H	 2.9406012334	-0.7373062715	 1.0993338402	 0.286144
H	-0.8360812347	-0.9730015104	-1.9352601014	 0.077527
H	-2.4515184701	-0.5616023277	 0.3220091288	 0.277962
162.8548	168.3192	214.6824	263.3312	274.9983	309.74	350.8033	391.8924	425.3942	465.2675	513.4523	646.9569	668.5163	746.4111	800.9829	823.1477	861.4936	896.3193	906.2806	928.88	974.8554	1035.3856	1065.1299	1067.3357	1089.1811	1126.7282	1135.034	1166.4305	1213.0817	1217.2517	1244.5968	1277.3044	1278.6245	1302.5622	1358.8926	1414.813	1430.3977	1449.9888	1483.4336	1496.8302	1510.0238	3025.4064	3031.4639	3049.1293	3079.9119	3089.6391	3117.2529	3142.369	3218.6758	3773.1632	3794.9943
CC12C3C(CC13O)C2O	C[C@]12[C@H]3[C@H](C[C@@]13O)[C@H]2O	
InChI=1S/C7H10O2/c1-6-4-3(5(6)8)2-7(4,6)9/h3-5,8-9H,2H2,1H3	InChI=1S/C7H10O2/c1-6-4-3(5(6)8)2-7(4,6)9/h3-5,8-9H,2H2,1H3/t3-,4+,5+,6+,7-/m0/s1
