18
gdb 81316	3.84775	1.11573	1.03568	4.8634	84.97	-0.2466	-0.0458	0.2008	1204.2327	0.149429	-364.803918	-364.796273	-364.795329	-364.835959	30.117	
C	-0.1796160756	 1.5219072187	 0.0289641666	-0.438586
C	 0.0206029406	 0.0128553991	 0.035966972	 0.056576
C	 1.180448932	-0.6010974534	-0.8541872172	-0.080754
C	 2.1508030498	-0.225051116	 0.3204270403	-0.224917
C	 0.9053719235	-0.6286610636	 1.175002846	-0.136321
C	 0.7888442834	-2.1120729165	 0.7726487655	 0.248795
C	 0.971348829	-2.0814425256	-0.561088863	-0.183326
C	 0.5338832355	-3.1985966139	 1.6337928692	 0.157369
N	 0.3244441241	-4.0724234423	 2.366917377	-0.353883
H	 0.7463871927	 2.0866637895	 0.1610684239	 0.122602
H	-0.6309701922	 1.8388247505	-0.9175301279	 0.124375
H	-0.865340152	 1.8144544633	 0.8315876673	 0.127026
H	-0.94449612	-0.484139456	-0.1003787056	 0.080627
H	 1.3536740788	-0.2943477396	-1.8847708431	 0.072605
H	 3.0518379362	-0.8307027273	 0.4355814791	 0.107573
H	 2.398540197	 0.8366028892	 0.3679016623	 0.107769
H	 0.7944660114	-0.3733661671	 2.2276001758	 0.081788
H	 0.9603158859	-2.8975638691	-1.2687133983	 0.130681
112.7585	152.1612	199.4725	277.1557	309.234	450.225	457.2497	497.9388	571.9885	583.6398	627.0441	772.1927	784.22	824.1372	860.0348	872.6261	886.1811	933.86	991.0636	1019.4222	1057.3158	1072.5919	1093.5855	1113.2254	1119.6559	1172.081	1221.2993	1227.9654	1239.3418	1249.593	1256.1406	1291.8324	1383.8643	1415.2238	1489.474	1494.8767	1512.0703	1633.9615	2330.5772	3035.8164	3061.2654	3076.0584	3095.0618	3118.1915	3128.4899	3135.3737	3139.9542	3244.2587
CC1C2CC1C(=C2)C#N	C[C@H]1[C@H]2C[C@@H]1C(=C2)C#N	
InChI=1S/C8H9N/c1-5-6-2-7(4-9)8(5)3-6/h2,5-6,8H,3H2,1H3	InChI=1S/C8H9N/c1-5-6-2-7(4-9)8(5)3-6/h2,5-6,8H,3H2,1H3/t5-,6+,8-/m0/s1
