17
gdb 87320	2.12862	1.34326	0.98981	2.8802	75.52	-0.2557	-0.0381	0.2176	1242.6169	0.131459	-421.782973	-421.773278	-421.772334	-421.818133	34.587	
C	 0.2265322039	 1.4044491788	-0.170867277	-0.428763
C	 0.4418066372	-0.0828494831	-0.0613514371	 0.026695
O	 1.7437554541	-0.5534942993	 0.2649041191	-0.275106
C	 0.7008556337	-0.8024940313	 1.2154435005	 0.274893
C	 0.7736240382	-0.1231437617	 2.5742437227	-0.450326
C	 1.9415691415	-0.5432439227	 3.3415755617	 0.321026
C	 2.907144222	-0.8901383704	 3.9655024569	-0.443993
C	 0.2588037207	-2.2395988229	 1.2304581572	 0.130265
O	-0.3270476397	-2.759460574	 2.1439215086	-0.252719
H	 0.785100321	 1.9542128513	 0.5882523928	 0.139671
H	 0.5645818863	 1.7512427585	-1.152709651	 0.140441
H	-0.8373908661	 1.645745399	-0.0782657917	 0.134189
H	-0.0433431914	-0.6634416056	-0.8504753162	 0.098701
H	 0.7768787282	 0.9639467958	 2.4600711442	 0.133625
H	-0.1387243651	-0.3935977862	 3.1187360605	 0.157804
H	 3.7581743243	-1.1993223793	 4.5200318343	 0.200255
H	 0.5164478611	-2.7833973067	 0.2946620146	 0.09334
39.4532	102.8369	116.9005	165.1899	219.7307	248.6508	273.5429	326.9479	343.9317	435.5822	463.6162	535.1572	571.8184	620.7885	649.6731	766.6347	816.2274	877.011	926.2196	963.7201	1001.3705	1026.5412	1050.7529	1122.4331	1167.603	1213.0617	1290.1813	1315.4119	1352.3207	1402.8726	1410.1663	1448.8738	1457.8736	1486.56	1503.6808	1828.7392	2245.7264	2896.0522	3043.8651	3048.8434	3073.7183	3096.807	3106.7246	3142.5672	3507.2359
CC1OC1(CC#C)C=O	C[C@H]1O[C@]1(CC#C)C=O	
InChI=1S/C7H8O2/c1-3-4-7(5-8)6(2)9-7/h1,5-6H,4H2,2H3	InChI=1S/C7H8O2/c1-3-4-7(5-8)6(2)9-7/h1,5-6H,4H2,2H3/t6-,7-/m1/s1
