18
gdb 60633	3.01128	1.12957	0.88472	3.6471	68.38	-0.2599	0.0158	0.2757	1283.4349	0.146473	-476.235515	-476.226043	-476.225099	-476.270337	35.18	
N	-0.0828658236	 1.2858079853	-0.0318514433	-0.517883
C	-0.0052611889	-0.063445592	-0.1017260323	 0.375576
O	 1.0307952762	-0.674081199	-0.3103854337	-0.380982
C	-1.3273491316	-0.8299743957	 0.0613685109	 0.021152
O	-1.0400525361	-2.2103296591	 0.0620579511	-0.452391
C	-2.0781411667	-0.4586250962	 1.3270650549	-0.078593
C	-3.3458831185	 0.3811017035	 1.2539853979	-0.331034
C	-3.4293806528	-1.0961843864	 1.5125516239	 0.123045
O	-3.9322056855	-1.8977418224	 0.4885648117	-0.429614
H	 0.7643015669	 1.8255455244	-0.1015594234	 0.268854
H	-0.9343239403	 1.742730483	 0.2464635958	 0.273927
H	-1.9570753161	-0.5840060652	-0.8076441001	 0.101692
H	-0.0914049566	-2.2694764313	-0.1482278555	 0.296069
H	-1.4597297286	-0.3614682515	 2.214921188	 0.094673
H	-3.5649989933	 1.067028584	 2.0645521707	 0.115086
H	-3.6741612652	 0.7092930105	 0.2729311115	 0.123996
H	-3.6953167725	-1.4149035026	 2.519828864	 0.091281
H	-3.2662427168	-2.5746313994	 0.3084575278	 0.305147
51.7792	64.3232	128.9616	207.9698	268.2664	275.8345	335.7922	373.8178	421.2882	457.4615	471.3808	501.7418	551.69	627.1492	644.8393	704.8448	800.4271	850.25	886.257	895.1052	996.8376	1014.1012	1062.3936	1096.2027	1128.802	1133.6675	1157.9085	1171.4589	1236.9387	1254.5738	1328.129	1348.1751	1354.4448	1407.5816	1416.1446	1454.0061	1480.2065	1617.6117	1786.6578	2986.7536	3104.3194	3131.6387	3148.2175	3222.0106	3600.043	3638.242	3734.3203	3763.5247
NC(=O)C(O)C1CC1O	NC(=O)[C@@H](O)[C@H]1C[C@H]1O	
InChI=1S/C5H9NO3/c6-5(9)4(8)2-1-3(2)7/h2-4,7-8H,1H2,(H2,6,9)	InChI=1S/C5H9NO3/c6-5(9)4(8)2-1-3(2)7/h2-4,7-8H,1H2,(H2,6,9)/t2-,3+,4-/m0/s1
