20
gdb 115170	2.58113	1.34293	1.02385	4.6071	75.99	-0.2366	0.0385	0.2751	1225.0677	0.17087	-440.325955	-440.316493	-440.315549	-440.360476	34.349	
C	-0.0474893106	 1.419623637	-0.1939339815	-0.237585
O	 0.0100827148	 0.0317513678	 0.0399005376	-0.236558
C	-1.2489341418	-0.6106691482	 0.054877851	 0.107248
C	-1.7386233415	-0.934128436	-1.382615713	-0.188947
N	-1.1601405743	-2.2395136584	-1.628657125	-0.30984
C	-0.7541711613	-2.910522252	-0.5084461904	 0.425903
O	-0.2590286542	-4.0157017289	-0.4736982015	-0.389308
C	-1.0828545561	-2.0041683232	 0.6893703802	-0.136761
C	-0.0888653267	-2.1355922484	 1.8378415031	-0.400543
H	 0.9763129015	 1.797149607	-0.1427824439	 0.134207
H	-0.4595477232	 1.6656941174	-1.1844011669	 0.104556
H	-0.6557591111	 1.9323211701	 0.5674046692	 0.108732
H	-1.9789868492	 0.012039189	 0.5906696703	 0.066987
H	-2.8374805869	-0.9498912666	-1.4298394988	 0.103242
H	-1.3806561502	-0.1903730159	-2.1012079245	 0.115195
H	-1.1125878569	-2.6729812303	-2.5362811579	 0.250625
H	-2.0773048526	-2.3255143538	 1.0311018947	 0.10186
H	 0.8832279489	-1.7268879454	 1.5582445593	 0.139291
H	-0.4397813642	-1.6072783979	 2.7292947481	 0.104616
H	 0.0364410355	-3.1936555733	 2.0806269898	 0.137082
65.0384	102.8429	148.1308	179.2539	192.7757	220.1255	252.1088	326.5618	406.144	436.477	513.4902	520.8652	637.2161	727.1897	759.5845	785.5934	859.3834	936.0695	954.0807	1016.6358	1068.0986	1076.9452	1122.0594	1132.3692	1164.3109	1182.9798	1207.3523	1242.3288	1257.4808	1261.8708	1309.6858	1338.1781	1375.8841	1387.605	1405.2044	1445.7654	1479.8589	1487.755	1490.5246	1503.2042	1508.0666	1517.6741	1831.1445	2974.544	2989.8226	3004.1375	3016.939	3021.8674	3051.9011	3072.2952	3118.5954	3121.7057	3146.1989	3649.4318
COC1CNC(=O)C1C	CO[C@H]1CNC(=O)[C@H]1C	
InChI=1S/C6H11NO2/c1-4-5(9-2)3-7-6(4)8/h4-5H,3H2,1-2H3,(H,7,8)	InChI=1S/C6H11NO2/c1-4-5(9-2)3-7-6(4)8/h4-5H,3H2,1-2H3,(H,7,8)/t4-,5-/m0/s1
