15
gdb 69221	2.72904	1.63699	1.17219	2.9616	66.55	-0.2601	-0.0358	0.2243	1021.719	0.113631	-453.997365	-453.9897	-453.988756	-454.029473	28.956	
C	-0.0439847469	 1.5441045733	 0.0182827294	-0.493203
C	 0.1161436045	 0.0514155649	 0.0193505317	 0.184613
N	-0.7528202217	-0.8417545208	 0.8271368573	-0.352967
C	 0.7100494697	-0.7852631722	 1.09336829	-0.247925
C	 1.4177198555	-1.9428001186	 0.4294457247	 0.483741
O	 2.1036166364	-2.7950603765	 0.9294570575	-0.346818
N	 1.1395055885	-1.8138435868	-0.9335646735	-0.383797
C	 0.4572610715	-0.65140723	-1.2853185957	 0.442444
O	 0.2202323351	-0.2802057722	-2.4055189584	-0.349279
H	 0.8644567751	 2.034920433	-0.3432683899	 0.144139
H	-0.8645505332	 1.8355280712	-0.6434302817	 0.155768
H	-0.2562870819	 1.9136885857	 1.026079261	 0.121449
H	-1.2221025021	-0.2707257068	 1.5305975224	 0.24299
H	 1.0863349827	-0.4001540929	 2.0324331107	 0.124314
H	 1.4477647468	-2.4909622513	-1.6164062556	 0.274531
139.3426	141.1408	183.9119	251.1631	309.1358	351.8837	421.415	531.64	553.4589	626.4816	637.863	702.7936	760.2902	778.8609	836.2869	877.9177	889.773	974.2123	1021.3455	1049.3542	1085.6025	1126.3749	1173.4849	1287.1798	1320.8812	1353.3998	1367.545	1412.5116	1436.751	1478.6648	1498.0888	1841.1153	1880.4733	3042.7223	3114.4116	3119.5736	3207.7961	3466.8411	3626.7193
CC12NC1C(=O)NC2=O	C[C@]12N[C@H]1C(=O)NC2=O	
InChI=1S/C5H6N2O2/c1-5-2(7-5)3(8)6-4(5)9/h2,7H,1H3,(H,6,8,9)	InChI=1S/C5H6N2O2/c1-5-2(7-5)3(8)6-4(5)9/h2,7H,1H3,(H,6,8,9)/t2-,5-/m0/s1
