20
gdb 6021	2.57553	1.70831	1.37788	1.2628	76.43	-0.251	0.0517	0.3027	1019.2065	0.173101	-348.97823	-348.968169	-348.967225	-349.011986	37.768	
C	-0.1545920626	 1.5368170401	-0.084624184	-0.430517
C	-0.0124806831	 0.0180906506	-0.0109410265	 0.136687
O	 0.5584778095	-0.5020360718	-1.2070644602	-0.43751
C	 0.7649452989	-0.5084767999	 1.2483433963	 0.05446
C	 0.7332582788	-2.0544435703	 1.2287091445	-0.409262
C	 2.2330406835	-0.0261295312	 1.2428313339	-0.425941
C	 0.0924671623	-0.0324186573	 2.4601453089	 0.346534
C	-0.4656806015	 0.3449667594	 3.4568349614	-0.499098
H	 0.8212517169	 2.0252010012	-0.1937280035	 0.108688
H	-0.7637043069	 1.8058733186	-0.9519017496	 0.123804
H	-0.6285222933	 1.9330568123	 0.8159880784	 0.139451
H	-1.0136478577	-0.4257037946	 0.0370488807	 0.094329
H	 1.2997966666	 0.0616827566	-1.4510517177	 0.28097
H	 1.1771944063	-2.4175323668	 0.2992897776	 0.130647
H	 1.2886742539	-2.4622338664	 2.0775358714	 0.115021
H	-0.295380833	-2.4216586346	 1.2878909217	 0.119262
H	 2.305810151	 1.0625551288	 1.3035562827	 0.12258
H	 2.7709519511	-0.4426806957	 2.0982370872	 0.127515
H	 2.7361766032	-0.3666912289	 0.3322041834	 0.109475
H	-0.956698614	 0.6784057499	 4.3374178133	 0.192907
79.8668	149.3961	181.9298	219.049	242.8017	248.2623	267.4371	294.47	301.6498	346.5132	388.086	447.8384	508.2423	538.9247	575.4336	623.7004	633.5017	700.247	841.2703	913.473	941.9071	960.018	1006.2875	1047.6044	1084.4339	1109.238	1172.9891	1222.0247	1238.3426	1303.1288	1361.0505	1387.1499	1402.2404	1412.4906	1420.155	1481.8118	1487.6647	1494.4945	1496.1041	1504.8255	1512.0069	2225.8741	3032.7782	3041.5775	3043.9643	3047.2984	3103.8761	3113.7694	3116.9642	3124.1309	3135.0057	3136.1225	3501.2538	3811.9203
CC(O)C(C)(C)C#C	C[C@@H](O)C(C)(C)C#C	
InChI=1S/C7H12O/c1-5-7(3,4)6(2)8/h1,6,8H,2-4H3	InChI=1S/C7H12O/c1-5-7(3,4)6(2)8/h1,6,8H,2-4H3/t6-/m1/s1
