21
gdb 38810	2.8831	1.71696	1.40925	0.2667	85.01	-0.2347	0.0306	0.2653	1007.1129	0.186763	-349.968462	-349.961462	-349.960518	-349.999648	29.536	
C	 0.2725610138	 1.6575400343	 0.437598801	-0.290643
C	 1.3689797245	 0.7541243492	-0.0677036195	-0.021082
C	 2.2825872423	 0.0843384596	 0.9509966574	-0.247317
C	 1.3632817944	-0.6819943676	 1.9377847881	-0.009888
C	 1.1149295827	-0.031927548	 3.330202242	-0.276166
C	-0.3870229737	-0.0630727236	 3.4859415549	-0.065396
C	-1.0080518237	-0.4768476707	 2.3828518624	-0.064247
C	-0.0485030109	-0.7839659429	 1.2578366675	-0.065555
C	-0.0374533737	 0.2205658711	 0.0999928952	-0.037883
H	 0.2632746338	 1.9591172804	 1.4800710951	 0.11394
H	-0.0952242721	 2.4198622085	-0.2411212769	 0.104776
H	 1.771090319	 0.9534714476	-1.0557632231	 0.075861
H	 2.9430999169	-0.6172920983	 0.4289236125	 0.094679
H	 2.9334563214	 0.7981031388	 1.4695479821	 0.095847
H	 1.7606040817	-1.6866031591	 2.1018806209	 0.075539
H	 1.6261837696	-0.5777654326	 4.132614637	 0.098629
H	 1.4967966413	 0.9973728012	 3.3817457692	 0.102255
H	-0.8813185068	 0.2464003066	 4.4012300562	 0.087462
H	-2.0839327257	-0.5530840309	 2.264561503	 0.08631
H	-0.2217411905	-1.7840716932	 0.8420981047	 0.067698
H	-0.6660594044	 0.0180360395	-0.7605184896	 0.075182
111.6416	178.6878	293.2538	367.5651	380.556	486.6826	572.911	641.6553	707.2065	730.437	774.5345	793.3407	808.844	838.8511	883.2083	902.6871	930.9072	965.0462	970.4752	981.5152	1009.6962	1031.0745	1050.6627	1061.5808	1072.8175	1093.6061	1108.0773	1120.4031	1134.6529	1171.5639	1207.2483	1230.149	1234.3685	1287.3385	1306.1869	1316.9474	1327.2239	1328.1515	1362.8426	1375.4696	1397.605	1488.754	1491.9066	1504.0449	1687.2033	3008.5176	3022.0867	3028.9835	3037.4358	3059.0465	3075.8441	3129.1583	3153.3903	3164.0769	3172.1618	3198.2983	3210.7821
C1C2CC3CC=CC3C12	C1[C@H]2C[C@H]3CC=C[C@H]3[C@@H]12	
InChI=1S/C9H12/c1-2-6-4-7-5-9(7)8(6)3-1/h1,3,6-9H,2,4-5H2	InChI=1S/C9H12/c1-2-6-4-7-5-9(7)8(6)3-1/h1,3,6-9H,2,4-5H2/t6-,7-,8-,9+/m1/s1
