16
gdb 54331	2.57142	1.3652	0.98718	6.8323	66.88	-0.2624	0.0009	0.2633	1170.1234	0.122281	-475.057181	-475.048135	-475.047191	-475.091645	32.782	
N	 1.1046429772	-0.5561876777	 0.0449782583	-0.53744
C	-0.0742741552	 0.1321169812	-0.0240608707	 0.356568
O	-0.1220188696	 1.3451122873	-0.0677052717	-0.353305
C	-1.339737031	-0.6928666559	-0.136514663	 0.315789
C	-1.4390844122	-1.7839004431	-1.1906715414	-0.308794
C	-1.4411028367	-2.1372741002	 0.2704521044	-0.330268
O	-2.4976164248	 0.0479362244	 0.1440787529	-0.222698
C	-2.8348509742	 1.032141119	-0.7366050611	 0.174969
O	-3.7635202195	 1.7515791408	-0.537197891	-0.274704
H	 1.9320858039	 0.002543922	 0.1836751745	 0.27062
H	 1.1453352858	-1.5158055916	 0.3400004871	 0.262403
H	-2.3784198238	-1.8491418528	-1.7274168066	 0.144074
H	-0.553451251	-1.991111338	-1.7800148324	 0.136149
H	-0.5812883324	-2.6345506782	 0.7050478565	 0.117312
H	-2.3868675887	-2.415593977	 0.7198640227	 0.152643
H	-2.1899599378	 1.0528424097	-1.6285547085	 0.096683
38.5318	89.0843	162.0835	233.5951	242.9249	283.5658	301.3712	367.1449	403.5071	469.9307	521.0406	552.8695	599.5186	741.9875	757.2035	785.6549	900.2167	937.2373	973.1694	1013.1408	1027.6657	1055.8126	1083.203	1095.4304	1146.0859	1191.7812	1231.2991	1302.8473	1393.1185	1426.4999	1460.3109	1494.0166	1619.9947	1791.8756	1872.4171	3022.5538	3142.9211	3145.2774	3226.8291	3241.4975	3600.7121	3729.4434
NC(=O)C1(CC1)OC=O	NC(=O)C1(CC1)OC=O	
InChI=1S/C5H7NO3/c6-4(8)5(1-2-5)9-3-7/h3H,1-2H2,(H2,6,8)	InChI=1S/C5H7NO3/c6-4(8)5(1-2-5)9-3-7/h3H,1-2H2,(H2,6,8)
