21
gdb 64237	3.0034	0.92482	0.86088	3.7411	79.78	-0.2453	-0.0207	0.2245	1448.2852	0.179554	-424.223189	-424.21308	-424.212136	-424.259306	36.117	
C	-0.0986041683	 1.558587643	-0.1417701011	-0.445074
C	-0.0640811849	 0.0357005447	-0.0211607079	 0.250512
C	-1.4368493682	-0.5737554883	-0.2869771651	-0.456547
C	 1.1301578192	-0.6017208518	-0.7806414465	-0.102883
O	 1.8414409098	-0.8546599506	 0.4481406101	-0.29838
C	 0.6784476545	-0.5210807158	 1.2366355176	 0.107421
C	 1.0173202101	 0.374222796	 2.4262228773	-0.304651
C	 1.9482580177	-0.3311271615	 3.3923455766	 0.155263
O	 1.7055443131	-0.5177173544	 4.5576152898	-0.242041
H	 0.891068072	 2.0022664201	 0.0014953888	 0.123689
H	-0.4473585264	 1.8483835802	-1.1391522034	 0.117888
H	-0.7811519119	 2.0048434524	 0.5894167758	 0.119968
H	-1.7946391542	-0.3122499419	-1.2891076973	 0.119138
H	-1.4113418749	-1.6656628256	-0.2139051715	 0.119521
H	-2.176829688	-0.2056946674	 0.432787139	 0.120867
H	 0.8870487134	-1.5331734523	-1.3097048782	 0.09713
H	 1.694915265	 0.0552997291	-1.4522647124	 0.102728
H	 0.1931689557	-1.4375940789	 1.6070270951	 0.077711
H	 1.5259324947	 1.2768215374	 2.0664316876	 0.118718
H	 0.1098417428	 0.6635498749	 2.9650236082	 0.119821
H	 2.8997900386	-0.6807745895	 2.9373406676	 0.099202
46.7869	61.6327	71.3153	158.1877	210.0461	243.6989	266.9795	288.2866	344.0914	371.4982	440.2777	470.2739	532.311	640.7747	800.9335	844.4014	865.6211	919.6585	936.0214	960.0646	983.2453	1019.6593	1027.9646	1059.7145	1095.4145	1110.1198	1162.7476	1205.7796	1224.1218	1233.2072	1269.33	1294.8724	1308.4438	1366.553	1395.222	1405.6103	1422.8083	1425.5169	1448.9171	1485.9139	1488.2166	1503.2259	1508.5495	1527.2201	1829.3315	2907.6406	2976.1509	3005.3718	3025.4886	3031.4698	3037.3302	3058.0454	3090.6562	3096.2813	3100.7145	3102.6177	3108.7659
CC1(C)COC1CC=O	CC1(C)CO[C@H]1CC=O	
InChI=1S/C7H12O2/c1-7(2)5-9-6(7)3-4-8/h4,6H,3,5H2,1-2H3	InChI=1S/C7H12O2/c1-7(2)5-9-6(7)3-4-8/h4,6H,3,5H2,1-2H3/t6-/m0/s1
