20
gdb 101876	2.07731	1.06191	0.85008	3.5275	75.15	-0.2652	0.0057	0.2709	1444.3726	0.168542	-440.281926	-440.27131	-440.270366	-440.319025	37.017	
C	-1.4999208506	 1.0799023711	 0.6265922221	-0.386702
C	-0.9699709225	-0.3444330442	 0.4482147319	-0.184374
C	-1.6306345611	-1.0859477074	-0.7143886211	 0.10436
O	-1.3978274794	-0.4586690625	-1.9726904119	-0.429305
C	-1.1675246387	-2.5490279444	-0.8225935479	-0.107114
O	-1.3681663717	-3.3318556629	 0.3531226793	-0.223808
C	-2.6319882262	-3.9249628887	 0.4880381778	-0.198292
C	-3.6676360666	-3.0195956243	 1.0289350985	 0.265803
N	-4.4738544226	-2.3125580616	 1.4595961732	-0.30876
H	-0.9648779928	 1.6039544155	 1.4238546172	 0.111429
H	-1.3892476803	 1.6542128038	-0.2974676123	 0.12261
H	-2.5633648875	 1.0690100681	 0.8871883116	 0.130409
H	 0.1177050838	-0.3274484113	 0.2752527192	 0.079725
H	-1.1217153565	-0.929568532	 1.3613935534	 0.119012
H	-2.718538194	-1.0569943811	-0.5868924245	 0.108605
H	-0.4482758206	-0.3141226713	-2.0576647581	 0.279843
H	-1.6561846936	-3.0192250067	-1.6873892328	 0.106381
H	-0.0845378643	-2.5687970951	-0.9968111134	 0.10394
H	-2.9960550967	-4.3325326961	-0.4670752282	 0.14388
H	-2.5202536881	-4.7616294389	 1.185725156	 0.162358
26.8957	66.9855	87.7615	113.345	186.6109	225.7027	240.2877	277.2515	307.4915	363.7047	382.9391	434.477	483.7633	520.6418	593.3707	776.5199	823.9383	892.4254	947.9884	972.483	989.7288	1031.6017	1041.039	1091.152	1118.797	1145.217	1159.8175	1253.131	1270.766	1316.2787	1331.4419	1338.6003	1387.0772	1398.9566	1406.182	1411.2777	1426.6215	1464.7437	1483.768	1489.5251	1499.0213	1508.6565	2354.9705	2991.0246	3001.1276	3007.4128	3041.245	3050.1806	3070.334	3078.2439	3079.5654	3109.0643	3119.4843	3790.6779
CCC(O)COCC#N	CC[C@@H](O)COCC#N	
InChI=1S/C6H11NO2/c1-2-6(8)5-9-4-3-7/h6,8H,2,4-5H2,1H3	InChI=1S/C6H11NO2/c1-2-6(8)5-9-4-3-7/h6,8H,2,4-5H2,1H3/t6-/m1/s1
