19
gdb 115637	2.5251	1.17715	0.9828	2.5829	72.02	-0.2253	0.0629	0.2882	1264.6043	0.157324	-460.107246	-460.09787	-460.096925	-460.141807	34.41	
O	-0.1183093914	 1.4086816727	-0.118505324	-0.42276
C	-0.0938303151	 0.0483040221	 0.2886832374	-0.09511
C	-1.4693180108	-0.527576288	 0.0167606393	-0.112154
C	-1.8198357043	-0.745510179	-1.4726039896	-0.086025
O	-1.8388374871	-2.1877562075	-1.3019090088	-0.314647
C	-1.6036159343	-2.043554443	 0.0942613238	 0.4328
C	-0.8376995742	-3.0557082148	 0.8977687476	-0.409425
C	-2.331162535	-2.8421940133	 1.1170401626	 0.013832
O	-2.7733582915	-2.1425027818	 2.2430123854	-0.421442
H	 0.7564494156	 1.7824744689	 0.0214313761	 0.288433
H	 0.6633489474	-0.5253747547	-0.2695902841	 0.091613
H	 0.14228695	-0.0466044761	 1.3605939338	 0.089942
H	-2.2209867506	 0.0172303205	 0.5906962347	 0.103809
H	-2.7962417961	-0.3644394561	-1.7897944452	 0.107922
H	-1.0533554204	-0.4299198255	-2.1882181417	 0.10907
H	-0.5295191874	-3.9674180336	 0.3963062026	 0.123737
H	-0.1581655722	-2.6897564655	 1.6614534271	 0.115282
H	-2.9967125986	-3.6219908743	 0.745973003	 0.095987
H	-2.6603490138	-2.710567281	 3.0126936201	 0.289135
60.5622	97.4197	143.7709	167.1827	226.7617	259.134	289.0921	326.5333	411.2249	440.1632	458.2216	529.826	599.7308	805.4805	853.5449	869.4924	898.7976	933.9757	956.5274	990.9583	1007.3284	1024.1674	1077.0079	1080.613	1100.6657	1143.0496	1158.8364	1171.0181	1205.7032	1210.7297	1264.2831	1269.9996	1287.014	1330.2697	1343.9933	1386.8008	1415.0185	1461.1199	1492.0915	1519.6983	1531.4727	2966.2768	2996.9619	3034.5272	3081.623	3102.162	3103.9015	3124.4404	3218.2013	3797.9452	3831.8929
OCC1COC11CC1O	OC[C@H]1CO[C@]21C[C@H]2O	
InChI=1S/C6H10O3/c7-2-4-3-9-6(4)1-5(6)8/h4-5,7-8H,1-3H2	InChI=1S/C6H10O3/c7-2-4-3-9-6(4)1-5(6)8/h4-5,7-8H,1-3H2/t4-,5+,6-/m0/s1
