23
gdb 84852	2.307	1.71609	1.20819	0.316	89.54	-0.2356	0.0247	0.2603	1142.221	0.208028	-351.16494	-351.156534	-351.15559	-351.197891	33.605	
C	-0.3299911319	 1.4798270333	-0.0072508888	-0.404843
C	 0.1113903572	 0.0124141984	-0.0739567456	-0.034168
C	 1.0744887058	-0.2528971404	-1.209377025	-0.045358
C	 1.7988418817	-1.3711030469	-1.2620909066	-0.078098
C	 1.6741829326	-2.4312666284	-0.1966191325	-0.279101
C	 1.4808345889	-1.8385646497	 1.2098894135	-0.008816
C	 2.7314752263	-1.1355799039	 1.8179131724	-0.220253
C	 2.004076804	 0.2334820359	 1.7571985909	-0.221114
C	 0.7071058613	-0.4752278985	 1.2597119066	 0.013845
H	 0.5198907907	 2.1423037086	 0.1883103712	 0.11954
H	-0.7858502301	 1.7952260449	-0.9518174444	 0.110539
H	-1.0654923882	 1.6356457104	 0.7888047119	 0.108632
H	-0.7916281562	-0.5934604698	-0.2562351933	 0.080688
H	 1.1518204297	 0.4935512261	-1.9968168462	 0.077276
H	 2.4721228851	-1.5533636534	-2.0954742461	 0.082596
H	 0.8148944004	-3.0763411351	-0.4355715234	 0.10583
H	 2.5500747585	-3.0909506725	-0.1989682585	 0.097653
H	 1.0564057304	-2.6045948521	 1.8649880673	 0.060031
H	 2.9780679198	-1.4703979708	 2.8287365052	 0.093388
H	 3.6354165188	-1.2066340879	 1.2059467118	 0.093873
H	 1.9109750124	 0.7647732326	 2.7074389507	 0.090966
H	 2.434557961	 0.9191193302	 1.0227203948	 0.099111
H	-0.0791218682	-0.4736205912	 2.0211649041	 0.057784
69.2853	111.8838	214.3381	236.5455	287.2772	330.738	379.8343	451.9169	509.1411	557.2488	675.5638	715.7781	749.7127	756.1417	796.4069	856.4121	881.4229	919.8878	944.6655	965.062	989.2731	994.3722	996.6897	1035.9682	1070.9108	1094.0457	1107.4419	1123.899	1152.9704	1194.3845	1225.4477	1232.3429	1242.6972	1267.2844	1272.2777	1290.9913	1307.3277	1328.5979	1334.3403	1346.098	1376.2419	1404.2833	1420.5018	1471.3156	1478.6705	1492.0801	1497.8237	1499.4693	1705.6748	2959.3174	2988.4721	3029.526	3042.1634	3047.3909	3050.0967	3056.27	3063.0662	3093.5495	3097.223	3100.4064	3114.4884	3141.056	3167.9583
CC1C=CCC2CCC12	C[C@H]1C=CC[C@H]2CC[C@@H]12	
InChI=1S/C9H14/c1-7-3-2-4-8-5-6-9(7)8/h2-3,7-9H,4-6H2,1H3	InChI=1S/C9H14/c1-7-3-2-4-8-5-6-9(7)8/h2-3,7-9H,4-6H2,1H3/t7-,8-,9-/m0/s1
