18
gdb 46539	3.92916	1.15031	1.06186	4.6436	72.02	-0.2377	0.0346	0.2723	1165.5884	0.148928	-439.115485	-439.107484	-439.106539	-439.148717	30.091	
O	 0.1645411291	-0.0785015213	 0.1225516723	-0.378463
C	 0.0451874238	 1.1255031441	 0.1127392945	 0.410089
C	-1.2454361497	 1.9385958672	-0.0385009998	-0.397098
C	-0.8636805559	 3.3676170602	 0.353391093	 0.432793
C	-1.7266456241	 4.5604500944	-0.1090062652	-0.355261
C	-2.0263283066	 4.7538293394	 1.3892881649	-0.069369
O	-1.1751468776	 3.644684119	 1.745712573	-0.314577
C	 0.6575073295	 3.4254046891	 0.0952631025	-0.212856
N	 1.0617246071	 2.0393172483	 0.2125836331	-0.309822
H	-1.5645176362	 1.8823914237	-1.0858781409	 0.127955
H	-2.0443782641	 1.53715254	 0.5861086924	 0.141616
H	-1.1690284459	 5.3719762451	-0.5816933053	 0.112691
H	-2.5804419248	 4.2999091307	-0.7365865341	 0.116491
H	-1.6797207345	 5.695156459	 1.8313366961	 0.106651
H	-3.066412753	 4.5828464728	 1.6908202018	 0.108762
H	 0.8673801036	 3.8366246368	-0.9039586144	 0.103518
H	 1.1389870687	 4.0626525348	 0.8428859027	 0.124324
H	 2.0212114108	 1.7336249568	 0.2388435734	 0.252555
69.0158	73.1958	149.0981	249.5376	360.2766	377.522	442.3546	469.1583	511.6983	591.2621	687.5242	771.9072	786.6612	857.1357	866.363	886.6858	913.3273	971.6863	980.7279	1023.4204	1071.162	1088.2615	1145.948	1160.3367	1181.8863	1206.1868	1238.1717	1241.5023	1261.5586	1273.5593	1313.6002	1346.0414	1360.4136	1442.0816	1442.7978	1489.3112	1515.7752	1532.8575	1838.0589	2985.6681	3022.9359	3051.7848	3062.3819	3073.9416	3078.8932	3129.5258	3132.6563	3645.9176
O=C1CC2(CCO2)CN1	O=C1C[C@]2(CCO2)CN1	
InChI=1S/C6H9NO2/c8-5-3-6(4-7-5)1-2-9-6/h1-4H2,(H,7,8)	InChI=1S/C6H9NO2/c8-5-3-6(4-7-5)1-2-9-6/h1-4H2,(H,7,8)/t6-/m1/s1
