20
gdb 82838	2.71432	1.64822	1.58047	0.8448	78.17	-0.2073	0.071	0.2783	994.4841	0.171198	-403.087594	-403.079666	-403.078722	-403.119469	31.62	
C	-0.2419282871	 1.5346568301	 0.0142209658	-0.425294
C	 0.0430569011	 0.0481640357	-0.0571675549	 0.053879
C	 0.6606953201	-0.5560129836	-1.3323717257	 0.018931
O	 1.8010723608	 0.2138318807	-1.7829275523	-0.306854
C	 2.6618282942	-0.3887058409	-0.7859817961	 0.044526
C	 2.445572603	 0.2420429258	 0.5946935261	-0.194602
N	 1.1630200418	-0.526466564	 0.7970744971	-0.220326
C	 1.558478126	-1.4130104171	-0.4042721698	 0.347917
C	 1.6417044972	-2.8992314139	-0.2590339557	-0.527493
H	 0.553629607	 2.1152470332	-0.4584558756	 0.134046
H	-1.1777408257	 1.7646216165	-0.5058919946	 0.11748
H	-0.3465785361	 1.857777314	 1.0554285363	 0.124649
H	-0.8550064554	-0.5222785684	 0.2126396754	 0.080589
H	 0.0340120877	-0.8915306856	-2.1635265088	 0.072356
H	 3.6638489484	-0.592036875	-1.1732166122	 0.076176
H	 3.1806730894	-0.1065375978	 1.3288265959	 0.10713
H	 2.3742906309	 1.3306272444	 0.6514712013	 0.110136
H	 0.6752928783	-3.3146684251	 0.0456015319	 0.130269
H	 1.9350087168	-3.3683131208	-1.204328432	 0.126752
H	 2.3768346315	-3.1747100481	 0.5045386879	 0.129733
153.6742	202.8186	211.0449	226.3055	254.6527	292.6425	418.2053	462.6335	524.9249	625.7157	687.0723	700.669	786.9381	831.4712	841.3329	853.7318	889.9173	943.8504	952.6338	975.9791	1000.4766	1061.9898	1069.4734	1105.7404	1143.6451	1150.3519	1168.7228	1187.9233	1195.5987	1220.4826	1282.9059	1287.2196	1296.3225	1331.6711	1362.7048	1376.4323	1401.2887	1415.5004	1481.3758	1482.1145	1485.288	1487.0773	1512.2811	3019.2765	3030.0646	3037.1148	3039.9608	3066.7544	3073.9277	3099.6669	3101.3999	3102.042	3107.122	3126.9997
CC1C2OC3CN1C23C	C[C@H]1[C@H]2O[C@H]3CN1[C@@]23C	
InChI=1S/C7H11NO/c1-4-6-7(2)5(9-6)3-8(4)7/h4-6H,3H2,1-2H3	InChI=1S/C7H11NO/c1-4-6-7(2)5(9-6)3-8(4)7/h4-6H,3H2,1-2H3/t4-,5-,6+,7+/m0/s1
