17
gdb 49513	3.95775	1.32308	1.26952	2.1799	71.26	-0.2531	-0.0251	0.228	1013.0535	0.136862	-421.780508	-421.773659	-421.772715	-421.811909	27.335	
O	-0.6469699242	 0.8065451659	 0.6271604377	-0.247362
C	 0.1694054734	 0.9981005352	-0.240660123	 0.108531
C	 1.3616385291	 1.9029820519	-0.1460992323	-0.056545
C	 1.1868854648	 3.2980077713	-0.8450496073	-0.106786
C	 0.4394576942	 3.7386412889	 0.4609563722	-0.232123
C	 1.4927376373	 2.7799667591	 1.1264039366	-0.085586
C	 2.7782382252	 3.5854918775	 0.8267328007	 0.033836
O	 3.6276047369	 3.0569051034	-0.2085191798	-0.250644
C	 2.5661360493	 3.9495843494	-0.574513409	 0.038491
H	 0.0909570362	 0.4700737995	-1.2196654444	 0.07823
H	 2.2488678646	 1.3493491055	-0.4649582039	 0.11579
H	 0.7537859202	 3.3995139992	-1.839916619	 0.07482
H	 0.4882448705	 4.7986284843	 0.7258939687	 0.096812
H	-0.5838158057	 3.3709281017	 0.5361631044	 0.130481
H	 1.3509791552	 2.3633316765	 2.121229248	 0.083491
H	 3.2629336498	 4.2032091735	 1.5743349587	 0.109006
H	 2.860335853	 4.8819535174	-1.0438220783	 0.109558
92.3113	182.0942	256.564	341.2252	399.8558	462.7783	583.9112	685.443	693.729	785.0018	813.6227	838.8245	861.1596	871.6138	899.3244	929.798	956.8829	973.365	1006.1589	1021.8827	1058.0591	1072.3725	1088.5203	1100.4684	1118.1897	1207.8394	1214.589	1228.9385	1241.5835	1250.6121	1269.9358	1290.8884	1352.3476	1398.3685	1428.1392	1506.2663	1815.6522	2860.5593	3064.3539	3081.5613	3119.3918	3143.1554	3147.3373	3174.122	3186.4944
O=CC1C2CC1C1OC21	O=C[C@H]1[C@H]2C[C@@H]1[C@H]1O[C@@H]21	
InChI=1S/C7H8O2/c8-2-5-3-1-4(5)7-6(3)9-7/h2-7H,1H2	InChI=1S/C7H8O2/c8-2-5-3-1-4(5)7-6(3)9-7/h2-7H,1H2/t3-,4+,5+,6+,7-
