17
gdb 94478	3.44877	0.88439	0.78736	5.9076	76.3	-0.2734	0.0034	0.2768	1463.4373	0.135459	-418.01563	-418.006527	-418.005583	-418.051634	31.584	
C	-0.3047982727	 1.4217656257	 0.1177665042	-0.405432
C	 0.0489718874	-0.0499248093	-0.0565429203	-0.152095
C	 1.1555425188	-0.4382012552	-1.0673085859	-0.091315
O	 1.9549056944	-1.0130412066	 0.0175180693	-0.264477
C	 1.0099958082	-0.6475225901	 0.951060678	 0.483223
N	 1.0066278116	-0.7728509122	 2.1994190919	-0.331981
C	 2.1688348976	-1.4013153526	 2.8233858914	-0.303735
C	 2.7870546679	-0.4949534286	 3.7995959957	 0.274801
N	 3.2893439451	 0.2095339496	 4.5646980086	-0.30851
H	 0.5955599253	 2.0369862168	 0.2096706353	 0.132052
H	-0.8852795829	 1.7858398033	-0.7353375375	 0.12528
H	-0.9005179994	 1.5614991922	 1.0235547874	 0.149732
H	-0.8542300209	-0.6570880452	-0.1648942832	 0.115913
H	 0.9065581182	-1.1985753668	-1.810341946	 0.127778
H	 1.6850678995	 0.3965640214	-1.5335139992	 0.128807
H	 1.8379759604	-2.2973358482	 3.3624445698	 0.158775
H	 2.9407362815	-1.714484004	 2.1086078606	 0.161184
13.3316	78.1166	124.8904	186.6081	209.4554	227.1591	287.7588	375.1964	387.4308	473.0047	598.1792	669.7175	743.2566	827.5152	889.4293	924.9501	928.5198	969.6129	1012.9618	1035.7533	1077.7416	1123.0053	1143.9823	1160.7268	1185.0635	1248.0108	1266.8099	1328.5885	1365.1319	1370.764	1413.5742	1474.5134	1494.2459	1495.4775	1517.8612	1828.4218	2366.4494	3023.8536	3042.4832	3062.2854	3066.1086	3073.4201	3114.0748	3124.4962	3129.5799
CC1COC1=NCC#N	C[C@H]1COC1=NCC#N	
InChI=1S/C6H8N2O/c1-5-4-9-6(5)8-3-2-7/h5H,3-4H2,1H3	InChI=1S/C6H8N2O/c1-5-4-9-6(5)8-3-2-7/h5H,3-4H2,1H3/t5-/m0/s1
