18
gdb 73233	2.21516	1.93096	1.45167	3.0258	72.55	-0.2375	0.0227	0.2602	975.3336	0.150655	-435.253305	-435.245537	-435.244593	-435.285381	30.526	
N	 0.024256638	 1.446069221	 0.1002794223	-0.591597
C	-0.0037124194	 0.0111283058	-0.0173187619	 0.217386
C	 0.2598546997	-0.7195875264	-1.3705666956	-0.22023
N	-0.8338060598	-1.6633252513	-1.0377134778	-0.32002
C	-1.348019407	-0.7690363286	 0.0267980169	-0.042461
C	-1.390416771	-1.4208291098	 1.4018563144	-0.086579
O	-0.0198013101	-1.4634429018	 1.8508859788	-0.243892
C	 0.7601652904	-0.6067207016	 1.1441325936	 0.410083
N	 1.9635221314	-0.3238283852	 1.4043817364	-0.557865
H	 0.9591497312	 1.7325734327	 0.3783884656	 0.249765
H	-0.1910301539	 1.8907054817	-0.7859482211	 0.224912
H	 0.0440884635	-0.0509463886	-2.2172037998	 0.084163
H	 1.2411508118	-1.180376946	-1.5189859696	 0.120553
H	-1.4838636794	-1.8583262481	-1.7893213982	 0.222112
H	-2.2468810293	-0.1931936841	-0.2142507029	 0.074443
H	-1.9751893617	-0.8333763455	 2.119326873	 0.113783
H	-1.7630257908	-2.4473329401	 1.373409711	 0.121747
H	 2.2849081662	-0.811923204	 2.2413597551	 0.223696
93.3052	182.1509	234.6164	260.3707	304.1189	330.84	407.932	490.9655	584.0832	626.0928	675.8829	717.7583	744.8	823.9285	852.3141	881.3294	891.4882	948.0583	974.224	1016.0885	1042.6495	1048.0137	1068.9617	1071.4235	1118.5512	1144.0455	1180.7752	1241.9229	1244.9396	1272.5675	1327.1426	1354.287	1359.4516	1386.9618	1416.9597	1501.3431	1516.5834	1648.1006	1771.6896	2989.3037	3037.2133	3062.9427	3077.826	3110.2669	3480.3831	3491.0894	3547.6598	3576.6486
NC12CNC1COC2=N	N[C@]12CN[C@H]1CO[C]2[NH]	
InChI=1S/C5H9N3O/c6-4-5(7)2-8-3(5)1-9-4/h3,6,8H,1-2,7H2	InChI=1S/C5H9N3O/c6-4-5(7)2-8-3(5)1-9-4/h3,6,8H,1-2,7H2/t3-,5+/m0/s1
