15
gdb 34265	4.26276	1.35248	1.22427	4.8356	70.48	-0.2372	0.0006	0.2378	996.0482	0.114919	-416.7604	-416.753739	-416.752795	-416.791475	26.265	
N	 0.0201051302	-1.1193223609	-0.0928272301	-0.341654
C	-0.0070452999	 0.0374126096	-0.0439903264	 0.171283
C	-0.0386050494	 1.4593068056	 0.0073855749	 0.22126
N	-1.1397835828	 2.2342385085	 0.6306179181	-0.366396
C	-0.7572706147	 3.3927288924	-0.2734605756	-0.072275
C	 0.156756283	 4.2890918068	 0.5501515389	-0.052574
O	 1.2569554567	 3.4261382902	 0.8980928036	-0.256758
C	 1.2255937496	 2.3449854867	 0.0199490636	 0.085576
C	 0.2356989227	 2.5038126998	-1.07914951	-0.211971
H	-2.016945965	 1.8437210532	 0.2910313159	 0.234959
H	-1.5837621046	 3.8820664214	-0.7845170685	 0.097827
H	 0.5212399136	 5.1529708471	-0.0239361441	 0.10324
H	-0.3188843153	 4.6270965961	 1.4732907294	 0.132349
H	 2.1809475485	 1.8564566247	-0.1247786114	 0.135434
H	 0.3941970375	 2.4248066089	-2.1464990783	 0.119699
136.8003	155.8797	261.6961	405.3523	429.2307	496.287	542.3878	607.2388	712.2509	731.761	769.3602	833.9025	873.3484	882.5401	910.3901	928.1842	954.1021	1022.2196	1036.5382	1044.2313	1071.9315	1129.1279	1150.8655	1196.8707	1233.3772	1245.8021	1254.8781	1288.068	1331.3827	1388.3374	1427.711	1499.1231	2339.7472	3007.5444	3112.9364	3144.2516	3197.9761	3209.6541	3480.1621
N#CC12NC3COC1C23	N#C[C@@]12N[C@H]3CO[C@@H]1[C@@H]23	
InChI=1S/C6H6N2O/c7-2-6-4-3(8-6)1-9-5(4)6/h3-5,8H,1H2	InChI=1S/C6H6N2O/c7-2-6-4-3(8-6)1-9-5(4)6/h3-5,8H,1H2/t3-,4-,5+,6-/m0/s1
