14
gdb 19963	4.22185	1.48379	1.16165	2.1954	57.59	-0.2763	-0.0008	0.2756	969.4687	0.107083	-419.671015	-419.663957	-419.663013	-419.70326	24.874	
O	-0.3333494206	 0.1241770433	 0.3269449005	-0.315413
C	-0.1692665016	 1.260572181	 0.0253827163	 0.441184
O	-1.0625973325	 2.1160371966	-0.5655809319	-0.235863
C	-0.1072084945	 3.2265981903	-0.5338583358	-0.096707
C	 0.9543089968	 2.3111914846	 0.1083036303	-0.21677
C	 1.4555611105	 2.6448394203	 1.4861323577	 0.084668
C	 2.7005509913	 2.0726492064	 2.0100847925	-0.177296
O	 2.6497739972	 3.4257682625	 1.552176613	-0.234701
H	 0.1042758786	 3.5856214597	-1.5420742037	 0.134117
H	-0.4801490991	 4.0380115896	 0.0949026321	 0.133004
H	 1.7946139385	 2.0737716405	-0.5483317725	 0.123807
H	 0.6873179492	 2.9412630193	 2.2021638046	 0.107469
H	 2.8206770668	 1.9441718619	 3.0840310749	 0.127793
H	 3.2793266693	 1.389224634	 1.3909229021	 0.124708
60.5427	123.3531	147.2988	278.5982	330.2523	410.3077	548.1924	665.1606	753.3928	826.949	864.7247	921.1368	937.3708	961.7235	965.1632	1074.309	1102.1453	1117.817	1152.5423	1156.5109	1166.9204	1188.3182	1200.6501	1281.7959	1297.8877	1349.7088	1449.9722	1516.1835	1530.198	1940.2067	3076.1076	3089.7453	3093.2982	3104.2136	3140.1108	3181.0443
O=C1OCC1C1CO1	O=C1OC[C@H]1[C@H]1CO1	
InChI=1S/C5H6O3/c6-5-3(1-8-5)4-2-7-4/h3-4H,1-2H2	InChI=1S/C5H6O3/c6-5-3(1-8-5)4-2-7-4/h3-4H,1-2H2/t3-,4+/m0/s1
