20
gdb 22071	2.54162	1.15678	0.97535	1.6329	79.38	-0.2402	0.011	0.2512	1295.0422	0.167435	-440.240031	-440.229957	-440.229013	-440.274583	37.885	
C	-0.5683112254	 1.2347058482	-0.1491142959	-0.418504
C	-0.0305661199	-0.1820180059	-0.0143543636	-0.084791
C	 1.1880825255	-0.6149579853	-0.8005368954	 0.405815
C	 1.7673839547	-1.4041961908	 0.3518480271	-0.379157
C	 0.7302148284	-0.6631595062	 1.2728710712	 0.384953
C	 1.3576778067	 0.4439241868	 2.1108371301	-0.448577
O	-0.11096007	-1.4892606965	 2.0535454666	-0.479342
N	 1.5762638165	-0.2559704721	-1.9507768964	-0.249837
O	 2.8216868982	-0.8363590915	-2.2695841899	-0.394737
H	 0.2172061487	 1.9813002193	-0.0018442159	 0.118365
H	-0.9822161276	 1.3874976346	-1.1499770848	 0.131654
H	-1.3647426465	 1.4201804512	 0.5786324849	 0.120675
H	-0.838791699	-0.9071876951	-0.1755105578	 0.106897
H	 1.5461583987	-2.4738943879	 0.2842618809	 0.124166
H	 2.8324301556	-1.2652474598	 0.5541146948	 0.118181
H	 1.9897961643	 1.0996511209	 1.5046329133	 0.128893
H	 0.5856498656	 1.051692861	 2.5915093839	 0.127368
H	 1.993112667	 0.0117433863	 2.894077138	 0.107566
H	 0.3699693903	-1.7472314371	 2.8475455148	 0.275959
H	 2.996583328	-0.4683011802	-3.1422344359	 0.304454
58.7155	150.8172	176.4774	199.4723	229.5817	265.6251	276.9642	288.1086	343.9184	354.06	395.5747	415.2131	482.3359	524.5642	558.7723	673.2126	733.1472	810.1054	863.6137	881.0187	953.033	969.0929	1000.1249	1049.5792	1067.008	1089.5497	1135.4164	1164.5316	1185.279	1204.3212	1231.4909	1289.2059	1353.1571	1369.2663	1403.3283	1407.1448	1411.1105	1455.0476	1484.5615	1488.524	1498.7961	1502.6311	1787.4914	3024.4109	3028.0687	3040.6029	3054.8934	3091.7636	3110.3069	3111.382	3114.8027	3119.0034	3801.313	3817.8929
CC1C(CC1(C)O)=NO	C[C@H]1C(=NO)C[C@]1(C)O	
InChI=1S/C6H11NO2/c1-4-5(7-9)3-6(4,2)8/h4,8-9H,3H2,1-2H3	InChI=1S/C6H11NO2/c1-4-5(7-9)3-6(4,2)8/h4,8-9H,3H2,1-2H3/t4-,6-/m0/s1
