16
gdb 25927	2.71945	1.64406	1.03346	1.8607	73.47	-0.195	-0.0386	0.1563	1098.5974	0.125261	-434.129663	-434.121386	-434.120442	-434.162554	31.046	
C	-0.0304163617	 1.4944917517	-0.0219557288	-0.501798
C	 0.0729412485	-0.0146127723	 0.0048104593	 0.437076
O	 1.1378385341	-0.5937117294	 0.0590753596	-0.341117
N	-1.1377684277	-0.713913969	-0.0333698842	-0.144661
C	-2.4363622955	-0.1809253337	 0.0314148067	 0.005184
N	-3.3357926437	-1.109165197	 0.0695258498	-0.257948
C	-2.6530978081	-2.3177832279	 0.0266417336	-0.172571
C	-1.3022177972	-2.1108196915	-0.0387109571	 0.333149
N	-0.2360030205	-2.9714064488	-0.1851946792	-0.601526
H	 0.9806685986	 1.8991735303	-0.0319841675	 0.157176
H	-0.5737360711	 1.8365333601	-0.9074111434	 0.158392
H	-0.5607867006	 1.8649866921	 0.8605262239	 0.158506
H	-2.6110749275	 0.8818163011	 0.0520782708	 0.133424
H	-3.174859913	-3.2616366356	 0.0360251958	 0.105089
H	-0.4116511895	-3.9041620499	 0.1559958685	 0.255136
H	 0.6527605546	-2.5796891201	 0.0951415722	 0.27649
79.4068	141.3918	161.9752	245.0088	286.2199	346.077	359.116	448.6818	502.7627	586.181	609.2379	661.3959	662.4393	686.7956	730.7158	748.6383	786.1999	913.104	965.6221	1057.3954	1098.8867	1102.0946	1128.1235	1241.0213	1286.4536	1310.5569	1347.1172	1394.0612	1448.7454	1471.6698	1479.9555	1556.9009	1594.8963	1653.739	1792.0283	3053.2846	3119.9768	3169.476	3256.1206	3278.4143	3551.113	3670.0685
CC(=O)N1C=NC=C1N	CC(=O)n1cncc1N	
InChI=1S/C5H7N3O/c1-4(9)8-3-7-2-5(8)6/h2-3H,6H2,1H3	InChI=1S/C5H7N3O/c1-4(9)8-3-7-2-5(8)6/h2-3H,6H2,1H3
