19
gdb 73088	2.41255	1.84145	1.35584	2.0622	75.97	-0.2466	0.0055	0.2521	1013.0391	0.159603	-423.011181	-423.003211	-423.002267	-423.043629	30.97	
C	-0.0708333347	 1.5237918297	-0.046390989	-0.458649
C	-0.0034689874	 0.0055316267	-0.0055233621	 0.329223
C	-1.2282019858	-0.7701455835	 0.5221967819	-0.107858
O	-0.439092812	-1.4458738417	 1.5242273123	-0.300826
C	 0.7334931822	-0.6582924035	 1.1871028372	 0.065836
C	 1.9554319282	-1.4432673548	 0.8465559613	-0.09002
C	 2.4694225665	-1.3845811977	-0.3790329209	-0.071859
C	 1.7723541753	-0.6383708501	-1.4844618808	-0.139406
O	 0.3765527142	-0.5226584316	-1.2682235614	-0.295494
H	 0.9136632961	 1.9543611711	-0.2599085519	 0.12092
H	-0.7595082098	 1.8474977337	-0.8327781849	 0.127799
H	-0.415237984	 1.9306485266	 0.9090350785	 0.119893
H	-2.0144411759	-0.1489811171	 0.9700262514	 0.092266
H	-1.6649849215	-1.4622152933	-0.2045343892	 0.113018
H	 0.9531816196	 0.0507204718	 1.9994962262	 0.072442
H	 2.4246528358	-2.0191906816	 1.6391633056	 0.101608
H	 3.3999110603	-1.886891788	-0.6293981932	 0.09966
H	 2.2377085248	 0.3516485931	-1.6379190383	 0.101223
H	 1.8768892481	-1.1802840998	-2.4305113429	 0.120225
72.053	171.3577	207.7032	241.4112	309.9951	361.259	393.3391	471.3176	497.3566	532.8443	648.7102	717.2481	801.5165	845.3888	874.3276	929.4938	940.495	959.9143	990.8583	992.251	1014.0377	1049.9286	1067.6402	1102.9561	1145.9948	1178.54	1195.4589	1225.7439	1234.5288	1274.5088	1288.7786	1348.7337	1380.0404	1395.2907	1403.4808	1412.916	1484.0307	1489.3481	1495.6882	1509.5495	1719.2655	2944.5805	2985.4215	3016.3656	3034.6955	3065.1332	3081.9664	3102.3455	3114.9284	3157.3917	3179.5252
CC12COC1C=CCO2	C[C@]12CO[C@H]1C=CCO2	
InChI=1S/C7H10O2/c1-7-5-8-6(7)3-2-4-9-7/h2-3,6H,4-5H2,1H3	InChI=1S/C7H10O2/c1-7-5-8-6(7)3-2-4-9-7/h2-3,6H,4-5H2,1H3/t6-,7-/m0/s1
