18
gdb 125760	2.92039	1.25364	0.91894	2.1582	75.29	-0.2434	-0.0063	0.2371	1268.8568	0.146382	-439.09178	-439.082327	-439.081383	-439.126356	33.649	
C	-0.0265780551	 1.472454548	 0.0054748905	-0.496755
C	 0.0149544883	-0.0215027973	 0.0182628619	 0.331972
N	 0.1182858924	-0.689975181	-1.1065619537	-0.211729
O	 0.1253810548	-2.0341509941	-0.7472455855	-0.219509
C	 0.0334924584	-2.1332110403	 0.5940918741	 0.312066
C	 0.0257734459	-3.5220881923	 1.1590279343	-0.180128
O	-0.9230421775	-3.6899442082	 2.2018525038	-0.400785
C	-0.0453309861	-0.8926481518	 1.1531605496	 0.006988
C	-0.1506014876	-0.511731736	 2.5970099852	-0.523643
H	 0.8064470463	 1.8938519931	 0.578435456	 0.136475
H	 0.0326511916	 1.8414201857	-1.0200431931	 0.150953
H	-0.9522591553	 1.843767785	 0.458673094	 0.135179
H	-0.1301668004	-4.2314110894	 0.3339449012	 0.123299
H	 0.9961355212	-3.7573930695	 1.6099084875	 0.136038
H	-1.7906080853	-3.4706905941	 1.8451798061	 0.28914
H	 0.7666792724	-0.0290165195	 2.9550187057	 0.131238
H	-0.9689699469	 0.198033169	 2.7633139234	 0.12748
H	-0.3368035673	-1.3930289773	 3.2132859989	 0.151723
59.897	125.7275	140.616	147.7259	201.6002	233.2135	271.556	310.3863	370.0827	404.9104	459.7634	602.8368	659.9635	685.7771	703.619	786.7849	947.072	960.4859	975.2894	1031.0725	1054.8976	1071.6473	1080.9743	1133.2669	1181.2753	1233.7361	1278.2	1378.5846	1406.4204	1414.7598	1424.3775	1455.6244	1474.0551	1480.9957	1494.7547	1500.0707	1501.6674	1537.5241	1675.3428	3011.5374	3027.7969	3038.116	3068.0296	3074.8269	3091.3174	3136.4062	3139.6638	3809.9083
CC1=NOC(CO)=C1C	Cc1noc(CO)c1C	
InChI=1S/C6H9NO2/c1-4-5(2)7-9-6(4)3-8/h8H,3H2,1-2H3	InChI=1S/C6H9NO2/c1-4-5(2)7-9-6(4)3-8/h8H,3H2,1-2H3
