18
gdb 74908	2.87113	1.57666	1.1276	1.2064	74.6	-0.2276	0.022	0.2496	1093.8472	0.148315	-439.075449	-439.067463	-439.066519	-439.108039	30.497	
C	-0.2079130433	 1.5621055991	 0.1586482324	-0.439664
C	-0.0183746914	 0.0988011174	-0.1361914451	 0.380252
N	-0.8800749138	-0.7487253283	 0.2400243114	-0.296242
C	-0.9025466249	-2.1506959273	-0.0052632315	-0.006354
C	-1.5044093435	-2.6859837916	-1.29241608	-0.31495
C	-0.0487417612	-2.9053941083	-1.0005433116	 0.063576
O	 0.8723678554	-2.1955224584	-1.7829417845	-0.231326
C	 1.6931860921	-1.3586549405	-1.0379183203	 0.010423
O	 1.1422375678	-0.063478042	-0.8429098753	-0.251153
H	 0.6263382849	 1.9405661303	 0.7580910924	 0.134442
H	-0.2164512393	 2.1334969059	-0.7752157922	 0.13921
H	-1.1456214915	 1.7123948418	 0.6907619175	 0.142085
H	-1.1732983278	-2.705967649	 0.8892337489	 0.102607
H	-2.1883762986	-3.5255425339	-1.246304628	 0.116557
H	-1.7207187132	-1.9505003695	-2.0591657708	 0.132214
H	 0.2931904256	-3.9042898663	-0.7331007128	 0.093745
H	 1.9338361745	-1.8011285434	-0.0612871158	 0.10143
H	 2.6029417083	-1.183694476	-1.6156751546	 0.123147
93.8698	130.8466	166.6301	265.1448	310.6776	338.3303	399.4458	461.9826	482.6454	625.9889	678.9233	702.8448	771.3987	792.4919	814.4162	875.3357	980.2459	997.91	1043.7228	1045.8632	1062.1602	1081.1213	1094.5806	1124.9299	1161.629	1166.995	1216.7361	1230.7052	1267.9845	1328.4681	1373.8275	1392.0671	1403.0794	1454.8352	1472.5716	1476.0564	1477.7217	1506.6495	1770.3233	3007.5865	3047.1918	3103.3321	3108.1728	3116.6268	3133.0415	3140.3403	3170.7748	3234.3259
CC1=NC2CC2OCO1	CC1=N[C@H]2C[C@H]2OCO1	
InChI=1S/C6H9NO2/c1-4-7-5-2-6(5)9-3-8-4/h5-6H,2-3H2,1H3	InChI=1S/C6H9NO2/c1-4-7-5-2-6(5)9-3-8-4/h5-6H,2-3H2,1H3/t5-,6+/m0/s1
