17
gdb 48981	3.3518	1.47942	1.31438	2.8033	72.38	-0.2497	-0.033	0.2167	988.2487	0.137053	-421.82687	-421.81971	-421.818766	-421.858639	28.218	
O	-0.0555142511	-0.0027026056	-0.1147138918	-0.251246
C	 0.024946649	 1.1894718129	 0.0471022567	 0.056491
C	 1.3042087369	 1.9692532658	 0.0341783165	 0.153943
C	 2.6276691704	 1.1521147744	-0.0661524944	-0.096816
O	 3.5970762285	 2.1155177344	-0.4995201804	-0.277494
C	 2.8802144245	 3.3734374909	-0.6329079203	 0.051649
C	 1.5286155116	 2.9115430466	-1.1957722504	-0.262948
C	 2.4814089369	 3.8151101197	 0.7674278781	-0.086286
C	 1.5246655161	 2.9704186748	 1.1663688354	-0.131697
H	-0.8873787394	 1.808436762	 0.2110296069	 0.07988
H	 2.9211690529	 0.722180036	 0.8968988727	 0.106924
H	 2.5401542006	 0.3488217625	-0.8045086578	 0.121007
H	 3.491774319	 4.0482048078	-1.2292188618	 0.081783
H	 1.6200065891	 2.3739543125	-2.1429588404	 0.116918
H	 0.7813431257	 3.7029172597	-1.2654484791	 0.112547
H	 2.9835055261	 4.5724156658	 1.3550222575	 0.11215
H	 1.0729025534	 2.88829544	 2.1471726525	 0.113196
69.686	186.5351	253.1206	316.6721	403.8416	434.2492	486.3434	521.3776	656.0263	725.9911	747.7429	798.6029	806.4119	876.9437	894.7749	935.2973	948.288	966.396	971.6554	1001.2732	1036.861	1075.218	1102.9208	1124.7935	1166.7215	1218.8085	1222.2314	1260.5563	1282.4822	1292.6907	1347.1682	1363.3219	1425.3184	1484.1772	1523.6045	1630.0873	1820.9482	2865.5518	3042.0036	3071.8801	3088.1701	3140.5491	3141.5363	3201.39	3229.0074
O=CC12COC(C1)C=C2	O=C[C@@]12CO[C@@H](C1)C=C2	
InChI=1S/C7H8O2/c8-4-7-2-1-6(3-7)9-5-7/h1-2,4,6H,3,5H2	InChI=1S/C7H8O2/c8-4-7-2-1-6(3-7)9-5-7/h1-2,4,6H,3,5H2/t6-,7+/m1/s1
