23
gdb 96158	2.54753	1.41216	0.99912	1.2028	85.34	-0.2416	0.0841	0.3257	1262.4796	0.207969	-388.286818	-388.278314	-388.277369	-388.319453	34.222	
C	 0.0358385843	 1.5750413124	-0.0413744613	-0.401827
C	-0.0211626987	 0.0416465793	 0.0158125514	 0.023496
C	 0.6770910278	-0.5251866702	-1.2365007421	-0.06436
O	 0.5775746277	-1.9195170332	-1.4517354179	-0.246177
C	 1.3187639977	-2.7222075382	-0.544862866	-0.106629
C	 0.5442822532	-3.0366575303	 0.7170343225	-0.002649
C	 1.1967393028	-2.9544971173	 2.0783080182	-0.323754
C	 0.1902822045	-1.9123745921	 1.6579272693	 0.003128
C	 0.5960746795	-0.4858183726	 1.3288233628	-0.229543
H	 1.0714203323	 1.9339366531	 0.0025871172	 0.113777
H	-0.4096580245	 1.9606656969	-0.9644319211	 0.112623
H	-0.5025884136	 2.0192454222	 0.8014381187	 0.113922
H	-1.0732836343	-0.2714113814	-0.0224680202	 0.07789
H	 0.2339089019	-0.0675745804	-2.1279775557	 0.099879
H	 1.7413437541	-0.2264254135	-1.2098705416	 0.077572
H	 1.5534518391	-3.6478947204	-1.0821488143	 0.102357
H	 2.2768477761	-2.2350104109	-0.3050964251	 0.082979
H	-0.213967513	-3.8038561916	 0.5890278264	 0.084689
H	 0.9174162958	-3.6830750856	 2.8315266728	 0.110162
H	 2.2402808357	-2.6555502926	 2.1188542762	 0.108509
H	-0.7923389888	-1.9925709221	 2.1158620791	 0.08228
H	 1.6891381137	-0.4016510975	 1.265584532	 0.089872
H	 0.2989535868	 0.167144946	 2.1589772787	 0.091804
124.8856	157.7517	216.0256	251.2784	290.9933	328.1842	354.6749	379.9323	435.2127	439.2086	534.7627	586.3645	797.6173	804.7235	833.1032	867.5952	886.1917	927.3038	942.9298	962.7813	977.9791	1005.2782	1039.7863	1062.9497	1074.9512	1090.1701	1131.3695	1138.7653	1160.4666	1182.0018	1194.2963	1242.998	1252.047	1288.7463	1303.4364	1334.9004	1343.8148	1372.5366	1385.2401	1402.3741	1409.2633	1426.9927	1433.4982	1480.5574	1486.0777	1491.4549	1497.8184	1501.8445	1505.31	2936.0069	2981.9987	3010.9545	3019.3616	3026.7692	3047.0021	3058.5235	3062.4218	3090.6841	3102.7266	3123.8591	3132.3155	3148.0293	3208.7785
CC1COCC2CC2C1	C[C@H]1COC[C@H]2C[C@H]2C1	
InChI=1S/C8H14O/c1-6-2-7-3-8(7)5-9-4-6/h6-8H,2-5H2,1H3	InChI=1S/C8H14O/c1-6-2-7-3-8(7)5-9-4-6/h6-8H,2-5H2,1H3/t6-,7-,8-/m1/s1
