15
gdb 132605	3.1412	1.38561	0.96347	3.1843	74.75	-0.1863	-0.0091	0.1771	1138.6526	0.114277	-458.161687	-458.153867	-458.152923	-458.193613	30.616	
N	 0.0304577198	 1.3855055517	 0.1210034102	-0.571546
C	-0.018453402	-0.0020458119	 0.0483064344	 0.357942
C	-1.2270580678	-0.7080594127	 0.0455306653	-0.180944
C	-1.1915394392	-2.096394771	 0.0378157662	-0.130456
C	 0.0286109652	-2.7744889065	 0.0328066439	 0.124048
N	 0.1509932783	-4.1707273354	 0.091134077	-0.602086
C	 1.1537647753	-1.9464225601	 0.0293920121	 0.289
F	 2.3531628308	-2.5500976951	 0.0067950719	-0.092167
N	 1.160607804	-0.6390475328	 0.0337089973	-0.377545
H	 0.9250857769	 1.7610068729	-0.159553557	 0.253572
H	-0.7488712773	 1.8709186448	-0.2970876496	 0.24674
H	-2.1736790892	-0.1798167595	 0.0573295282	 0.088022
H	-2.117242188	-2.664140787	 0.0402624443	 0.098337
H	-0.5780082757	-4.6629214906	-0.407250548	 0.244741
H	 1.0632496489	-4.4900438369	-0.2046892762	 0.252341
134.2109	240.0187	246.801	295.4161	319.4588	343.7648	362.8403	465.2492	490.1271	539.2211	580.8152	596.0019	672.4525	709.6111	748.1163	769.5682	818.5814	833.2611	943.1343	985.4005	1077.1357	1129.539	1164.3302	1245.4612	1318.96	1341.7152	1392.1803	1485.3458	1522.8355	1623.5256	1635.4194	1643.646	1681.4521	3172.5075	3194.3746	3548.6549	3567.4971	3646.6309	3676.3743
NC1=CC=C(N)C(F)=N1	Nc1ccc(N)c(F)n1	
InChI=1S/C5H6FN3/c6-5-3(7)1-2-4(8)9-5/h1-2H,7H2,(H2,8,9)	InChI=1S/C5H6FN3/c6-5-3(7)1-2-4(8)9-5/h1-2H,7H2,(H2,8,9)
