17
gdb 58794	3.79764	1.08124	0.9701	2.4816	69.06	-0.2482	-0.0313	0.2169	1223.2445	0.133213	-458.935937	-458.927137	-458.926193	-458.969842	32.622	
C	 0.3880267195	 0.5194245861	-0.9632580731	-0.416888
C	 0.0767431723	 0.0725911667	 0.464408166	-0.000382
O	 0.3345259817	 1.1009761865	 1.4165549577	-0.423207
C	-1.3354078465	-0.4174400925	 0.6383218147	 0.420988
C	-1.9467833138	-1.1362049316	 1.8543306709	-0.417088
C	-2.9097894055	-1.8227000301	 0.8390900992	 0.432396
O	-3.6846790698	-2.727301262	 0.9114144914	-0.294775
C	-2.3014629665	-1.0300967897	-0.3178026225	-0.194761
O	-2.4068149853	 0.3542669181	 0.0857476859	-0.281133
H	 1.3957978077	 0.9393257898	-0.998985834	 0.13118
H	 0.3363877919	-0.3210828599	-1.6621278643	 0.121135
H	-0.325988296	 1.2806079055	-1.2920966721	 0.131937
H	 0.7514186553	-0.7425813158	 0.7515170699	 0.101284
H	-0.2415628643	 1.8439538982	 1.2007152811	 0.289432
H	-1.2985249918	-1.8792861602	 2.3286208836	 0.136828
H	-2.3863389177	-0.4851121661	 2.6112320374	 0.139599
H	-2.2428039412	-1.2396227328	-1.3793960317	 0.123455
51.2384	92.5055	167.9735	226.0361	252.5142	320.3331	353.8116	399.8118	444.3604	477.4423	508.8858	577.2573	673.0134	697.6668	774.5643	862.951	903.1194	952.045	979.4077	995.8882	1032.6662	1047.7249	1070.7466	1101.7741	1132.828	1180.6806	1204.4639	1215.9106	1294.7329	1358.728	1402.3827	1411.5349	1425.1245	1451.5468	1490.2927	1500.706	1903.3668	3044.3498	3048.4721	3071.033	3115.9674	3132.2738	3137.309	3195.9559	3792.2553
CC(O)C12CC(=O)C1O2	C[C@@H](O)[C@]12CC(=O)[C@H]1O2	
InChI=1S/C6H8O3/c1-3(7)6-2-4(8)5(6)9-6/h3,5,7H,2H2,1H3	InChI=1S/C6H8O3/c1-3(7)6-2-4(8)5(6)9-6/h3,5,7H,2H2,1H3/t3-,5-,6-/m1/s1
