19
gdb 111461	2.164	1.77224	1.0824	2.2436	77.26	-0.2391	-0.0008	0.2383	1148.1255	0.157969	-423.000668	-422.991863	-422.990918	-423.034342	32.559	
C	 0.4314769816	 1.1652880866	 0.4427385614	-0.232594
O	-0.3465488645	 0.4785077117	-0.5116172277	-0.241832
C	 0.4113530025	-0.2792096404	-1.4301508795	 0.036701
C	 1.1411679451	-1.5018584413	-0.8556453375	-0.008032
O	 0.290749776	-2.4652918933	-0.2334533753	-0.251079
C	 0.6863050403	-2.6758917887	-1.6099839997	 0.004391
C	-0.3349608734	-2.1992220108	-2.5910990314	-0.202864
C	-0.5289954376	-0.8823396975	-2.4717865587	 0.283433
C	-1.5342936114	-0.0227905651	-3.1627254026	-0.488268
H	 0.9643200385	 0.4775799492	 1.1147312447	 0.116752
H	 1.1710570053	 1.8268386647	-0.0366905474	 0.100534
H	-0.253258032	 1.7742426141	 1.037620524	 0.129931
H	 1.1573335452	 0.3767928681	-1.9195141326	 0.064526
H	 2.1396224563	-1.4112391851	-0.4366400641	 0.095864
H	 1.3038302566	-3.5515905977	-1.7843888181	 0.097123
H	-0.8739037385	-2.8569566376	-3.2626877385	 0.098943
H	-2.1493887109	-0.6005881863	-3.8571667605	 0.122232
H	-2.1883204077	 0.4570973172	-2.4267030602	 0.151179
H	-1.0465050115	 0.7861217621	-3.7217868262	 0.123061
70.2173	123.6215	177.7646	187.5152	200.5019	248.6121	292.8548	395.7055	479.0604	529.1087	542.6967	684.6001	720.5859	807.692	839.5071	880.6981	904.5016	923.6746	973.9731	1018.7972	1038.7567	1049.1006	1072.0115	1109.8284	1156.0476	1182.4513	1196.4549	1221.535	1253.5397	1287.5805	1310.178	1347.0755	1361.8444	1407.4424	1421.7799	1473.5589	1478.643	1486.85	1491.1597	1508.1234	1710.6245	2914.2939	2973.5599	3023.8383	3030.0347	3080.6386	3116.6014	3119.9371	3145.9325	3165.7986	3203.3799
COC1C2OC2C=C1C	CO[C@H]1[C@H]2O[C@H]2C=C1C	
InChI=1S/C7H10O2/c1-4-3-5-7(9-5)6(4)8-2/h3,5-7H,1-2H3	InChI=1S/C7H10O2/c1-4-3-5-7(9-5)6(4)8-2/h3,5-7H,1-2H3/t5-,6+,7-/m0/s1
