12
gdb 131923	4.25023	1.31997	1.00718	3.3119	64.54	-0.287	-0.1094	0.1776	1053.4877	0.079255	-468.76833	-468.761679	-468.760735	-468.800564	23.801	
O	-0.068422574	 0.0007082178	 0.0035732422	-0.357026
N	-0.0099090689	 1.2236476212	 0.0068752298	 0.402591
O	 0.9989005451	 1.8969452381	 0.0024213652	-0.317462
C	-1.331788755	 1.9422927499	 0.0174919138	 0.394649
N	-1.276951394	 3.2556950637	 0.0200983861	-0.268077
C	-2.4606237658	 3.8733390945	 0.0295604051	 0.076057
N	-3.6608323722	 3.291136674	 0.0364692298	-0.232844
C	-3.6682422533	 1.9565244767	 0.0335027428	 0.034347
C	-2.4991330885	 1.1989344076	 0.0237546598	-0.180789
H	-2.4406306209	 4.9592489682	 0.0318079155	 0.144618
H	-4.6416828481	 1.4733841525	 0.0391008104	 0.142741
H	-2.4876864644	 0.1191128358	 0.0211735196	 0.161195
37.2083	158.8247	248.9013	382.3719	386.7988	477.0923	527.562	671.8623	717.9387	722.9502	813.0525	870.134	895.0237	993.0838	1009.8917	1028.9248	1078.2153	1163.6213	1197.1594	1263.6794	1333.4837	1396.6182	1418.555	1483.7027	1588.1275	1632.2047	1677.6505	3173.0533	3186.6146	3254.7671
O=N(=O)C1=NC=NC=C1	O=N(=O)c1ncncc1	
InChI=1S/C4H3N3O2/c8-7(9)4-1-2-5-3-6-4/h1-3H	InChI=1S/C4H3N3O2/c8-7(9)4-1-2-5-3-6-4/h1-3H
