22
gdb 103430	2.24456	1.38769	1.28516	0.7121	81.58	-0.228	0.0738	0.3018	1174.2224	0.192842	-404.307832	-404.298167	-404.297223	-404.341685	37.235	
C	 0.7071694619	-0.9807645828	 1.2973767944	-0.382013
C	-0.0517867909	-0.3492481946	 0.1258105599	-0.241045
C	 0.651281684	-0.5389061462	-1.2136975486	 0.409421
O	 1.9755089077	-0.0219786827	-1.1949728665	-0.490896
C	 0.7346058885	-1.9625989652	-1.7845308537	-0.083411
N	-0.6622117837	-2.4065233911	-2.0072069578	-0.345955
C	 0.0198615674	-1.5639791322	-3.0217466419	-0.06066
C	-0.1192783642	-0.1107671887	-2.5453992593	-0.042595
C	-1.5144085278	 0.4959659332	-2.4978330776	-0.419442
H	 0.780211179	-2.0667291721	 1.1752585392	 0.118463
H	 1.7244082799	-0.5858568005	 1.3647036979	 0.118968
H	 0.1975836029	-0.7874940233	 2.2460472722	 0.106678
H	-1.054836559	-0.7783054909	 0.0521606884	 0.122316
H	-0.1843255959	 0.7285682868	 0.3027862008	 0.078576
H	 1.9211688848	 0.9143701328	-0.9735849554	 0.273948
H	 1.5436997705	-2.6668621472	-1.6365139376	 0.093755
H	-0.6204966888	-3.3704660372	-2.3356381157	 0.229477
H	 0.1442032254	-1.9196044534	-4.0376848032	 0.087798
H	 0.5717542923	 0.5278776529	-3.1041319742	 0.073698
H	-2.2208395802	-0.1880008503	-2.0213993554	 0.137258
H	-1.5244364748	 1.4424617012	-1.946149458	 0.106841
H	-1.8778116288	 0.7040645316	-3.5106159977	 0.108822
94.4558	139.3505	168.3967	209.5927	213.5133	266.7313	272.7934	293.0925	326.7993	378.2181	481.4822	522.4474	560.5864	657.0955	730.5475	788.5216	826.2593	848.2191	874.3081	911.7768	941.2933	966.3142	1005.2419	1027.9318	1038.0999	1074.1836	1091.0337	1103.5844	1120.7024	1135.59	1159.952	1199.1024	1222.4892	1269.5882	1294.6247	1305.976	1360.5374	1369.487	1377.2485	1405.4906	1407.8381	1416.8505	1476.4365	1490.35	1496.7504	1506.6216	1508.4374	2999.8208	3030.7861	3039.3066	3062.4717	3087.1233	3089.7437	3103.3939	3120.5492	3124.8511	3178.7617	3198.0153	3478.9588	3798.1807
CCC1(O)C2NC2C1C	CC[C@@]1(O)[C@H]2N[C@H]2[C@H]1C	
InChI=1S/C7H13NO/c1-3-7(9)4(2)5-6(7)8-5/h4-6,8-9H,3H2,1-2H3	InChI=1S/C7H13NO/c1-3-7(9)4(2)5-6(7)8-5/h4-6,8-9H,3H2,1-2H3/t4-,5+,6+,7+/m1/s1
