15
gdb 96799	3.19609	1.41034	1.04751	2.9541	69.82	-0.2739	-0.0236	0.2503	1109.2767	0.112884	-453.964451	-453.956731	-453.955786	-453.997139	28.089	
C	-0.042486944	 1.4340288961	 0.0354114083	-0.342366
N	-0.0850359896	-0.018868011	 0.0544691247	-0.321901
C	 0.471854544	-0.6630214632	 0.9704998324	 0.457461
O	 1.183858409	-0.1188727644	 2.0404869249	-0.235927
C	 1.8229751353	-1.1224517719	 2.7529533675	 0.448272
O	 2.5232482966	-0.8969176339	 3.6838770087	-0.316265
N	 1.5231731795	-2.4032264888	 2.194448726	-0.167455
C	 0.0879167721	-2.7340717768	 2.3817811598	-0.254668
C	 0.5621434876	-2.1408376535	 1.1043505268	-0.129966
H	 0.5875857274	 1.8764170514	 0.8139096277	 0.137376
H	 0.314900955	 1.7590871233	-0.9468793273	 0.138238
H	-1.0628958002	 1.8173073409	 0.1447990126	 0.139157
H	-0.1151431654	-3.7982071031	 2.4253059248	 0.15251
H	-0.4922270348	-2.117501953	 3.0620050104	 0.153592
H	 0.6357802474	-2.737428322	 0.2038733927	 0.141944
95.7554	121.7696	160.1825	203.737	261.2464	357.2497	449.7072	512.0791	639.9074	668.574	722.5561	786.4722	826.7505	833.5549	869.9843	949.4755	967.4706	1042.3356	1071.0552	1081.9321	1118.777	1133.5086	1153.5765	1165.0525	1246.3503	1272.2003	1364.5792	1440.7566	1492.516	1496.547	1504.8361	1826.0984	1932.5841	3027.3911	3091.9461	3104.4443	3128.0897	3202.7651	3226.6785
CN=C1OC(=O)N2CC12	CN=C1OC(=O)N2C[C@@H]12	
InChI=1S/C5H6N2O2/c1-6-4-3-2-7(3)5(8)9-4/h3H,2H2,1H3	InChI=1S/C5H6N2O2/c1-6-4-3-2-7(3)5(8)9-4/h3H,2H2,1H3/t3-,7?/m0/s1
