21
gdb 117176	3.80784	0.75041	0.6768	0.6276	76.28	-0.2631	0.0175	0.2807	1726.1392	0.179504	-461.401726	-461.390574	-461.389629	-461.439348	38.357	
C	-0.034369624	 1.5021846927	-0.2226858731	-0.391331
C	 0.0050252561	-0.0035932225	-0.0474645952	-0.043252
O	 0.6500637548	-0.5613870762	-1.2097048026	-0.25029
C	 0.8000559543	-1.9006266602	-1.2156829872	 0.447583
O	 0.4138565563	-2.618328808	-0.3243858433	-0.367207
C	 1.5219155906	-2.363873254	-2.4677976085	-0.101606
C	 2.9847322128	-1.8815488581	-2.4635497968	-0.397911
C	 1.4173517914	-3.8830076161	-2.5976213035	-0.076273
O	 1.9939168845	-4.241296325	-3.8458295433	-0.427053
H	 0.9759265063	 1.9116067846	-0.3111137808	 0.129608
H	-0.5960397579	 1.776778771	-1.1199952648	 0.130107
H	-0.5191127065	 1.9642577292	 0.6424591761	 0.123062
H	 0.5649101053	-0.2993431694	 0.8453062672	 0.12181
H	-0.9981365354	-0.4328584915	 0.0404270729	 0.121236
H	 1.016649113	-1.9090355733	-3.3283013371	 0.108802
H	 3.5184359166	-2.2702049431	-1.5890734727	 0.118744
H	 3.489262942	-2.2455270437	-3.3603685986	 0.141175
H	 3.035782857	-0.7909053704	-2.4406900369	 0.12571
H	 1.940145158	-4.3590439927	-1.7556777396	 0.10067
H	 0.3628554925	-4.1873466275	-2.5392058606	 0.097597
H	 1.9879593023	-5.2000392356	-3.9127088817	 0.288822
31.0716	60.4625	93.1538	111.2804	144.1431	223.4173	237.9958	248.4059	252.1802	285.6375	331.4731	357.0351	397.2054	487.3561	692.2242	764.9576	807.8124	858.6671	877.6256	933.9629	944.6365	1046.9083	1058.1253	1080.3703	1121.034	1135.8587	1163.3459	1183.1103	1200.4952	1259.3704	1267.6194	1291.1438	1341.273	1350.2229	1391.6593	1404.7916	1424.0791	1460.3942	1485.9394	1496.4841	1496.8434	1505.0665	1518.0938	1520.5109	1805.0059	2994.6347	3025.2539	3041.3789	3046.1568	3050.1604	3051.3179	3088.489	3117.256	3120.4849	3125.9199	3144.042	3839.52
CCOC(=O)C(C)CO	CCOC(=O)[C@@H](C)CO	
InChI=1S/C6H12O3/c1-3-9-6(8)5(2)4-7/h5,7H,3-4H2,1-2H3	InChI=1S/C6H12O3/c1-3-9-6(8)5(2)4-7/h5,7H,3-4H2,1-2H3/t5-/m0/s1
