23
gdb 100972	2.29136	1.07657	1.00148	2.4184	82.08	-0.2494	0.0738	0.3232	1388.7373	0.202809	-425.410861	-425.399939	-425.398994	-425.446403	40.729	
C	-0.2229060948	 1.6123971399	 0.1550025142	-0.379181
C	-0.1685117527	 0.0866766629	 0.2712225001	-0.19937
C	-1.4481228269	-0.5935597412	-0.2372736612	 0.072422
O	-1.691533132	-0.2789747721	-1.6089750925	-0.441543
C	-1.4604070544	-2.1043780725	-0.0033713284	 0.332347
C	-0.4941482455	-2.9195369964	-0.8430438335	-0.487541
C	-1.7380247654	-2.5817307323	 1.413503073	-0.37303
C	-2.7785564108	-2.7505421834	 0.33204433	 0.053792
O	-3.9210484385	-1.9452646397	 0.3474820688	-0.414089
H	 0.7183918273	 2.0699101562	 0.4744969904	 0.105528
H	-0.4218548229	 1.9149576796	-0.8765311429	 0.125003
H	-1.0245766315	 2.0239776521	 0.7782049568	 0.114292
H	 0.693668052	-0.296533823	-0.2936266887	 0.083976
H	-0.0015326716	-0.2083653802	 1.3138159765	 0.098448
H	-2.3082791724	-0.1711056868	 0.2907808928	 0.096934
H	-0.8920051378	-0.4841407651	-2.1054789097	 0.275359
H	 0.549420536	-2.6610895603	-0.631089958	 0.118013
H	-0.6089259437	-3.989343774	-0.644397476	 0.116166
H	-0.6773054239	-2.7665869656	-1.9123601556	 0.118854
H	-1.2105658411	-3.4532006736	 1.788125667	 0.105487
H	-1.943963947	-1.8209837815	 2.160645766	 0.108992
H	-2.94213809	-3.7552334392	-0.05976576	 0.081771
H	-4.4645867224	-2.217882934	 1.0938109711	 0.28737
68.9709	95.4696	142.7092	192.0695	204.2648	233.8864	244.6663	263.9719	294.2742	302.8428	309.5672	404.1881	439.8771	468.2505	516.9903	573.7408	746.9497	788.5612	811.9965	875.6614	901.2674	932.9743	976.0304	984.8156	1032.333	1040.9897	1061.3255	1098.8435	1102.6338	1115.1427	1138.7814	1177.4217	1244.2004	1265.8829	1280.9021	1326.9647	1330.0892	1347.0136	1391.0367	1405.8662	1412.0942	1422.9076	1434.9292	1484.0878	1486.3455	1494.5774	1496.0065	1507.0637	1509.6492	3005.4606	3027.6606	3036.2853	3056.2739	3077.0216	3087.9511	3090.5775	3100.2836	3100.9839	3119.5562	3120.4804	3207.4293	3803.9721	3807.929
CCC(O)C1(C)CC1O	CC[C@@H](O)[C@@]1(C)C[C@H]1O	
InChI=1S/C7H14O2/c1-3-5(8)7(2)4-6(7)9/h5-6,8-9H,3-4H2,1-2H3	InChI=1S/C7H14O2/c1-3-5(8)7(2)4-6(7)9/h5-6,8-9H,3-4H2,1-2H3/t5-,6-,7-/m1/s1
