16
gdb 74352	3.52332	1.12643	0.85871	5.5872	82.67	-0.2013	-0.0376	0.1638	1294.4074	0.123613	-437.937447	-437.928588	-437.927644	-437.971566	31.786	
C	-0.0137263541	 1.5601590187	 0.0124138876	-0.51679
C	 0.0079470119	 0.0623802702	-0.0242497254	 0.205215
C	-0.0071103949	-0.8013344514	-1.1479546322	-0.328176
C	 0.0379772651	-2.0971058185	-0.6949036648	 0.24653
O	 0.081905859	-2.0776653649	 0.6885238245	-0.186855
C	 0.0646708689	-0.7916917379	 1.0617944331	 0.311325
N	 0.1646936063	-0.5488129701	 2.4079326324	-0.593865
H	-0.1258595812	-1.317229609	 2.9959977532	 0.271332
H	-0.1981811012	 0.3431001922	 2.7093398674	 0.26522
C	 0.0373827543	-3.3574616663	-1.386990067	 0.056754
O	 0.0726567482	-4.4606895146	-0.8776453348	-0.309166
H	 0.9581931061	 1.9843807437	 0.2929429274	 0.137002
H	-0.2766534912	 1.9664742168	-0.9675945964	 0.136023
H	-0.7526837004	 1.9436594829	 0.72741603	 0.119383
H	-0.0510632071	-0.5038972078	-2.18592446	 0.123385
H	-0.0014211098	-3.2222389441	-2.4918912251	 0.062682
48.5035	102.7927	159.9548	223.9338	237.5968	252.9874	306.7221	377.6959	413.4995	514.0943	564.3193	631.1006	640.5576	715.264	729.5981	832.9598	855.2639	964.3912	999.5939	1009.6335	1061.6316	1084.1748	1162.2791	1234.5086	1297.7999	1368.2661	1398.1776	1420.2887	1476.6179	1488.2027	1509.4177	1567.2076	1632.9127	1662.4426	1770.0164	2868.8306	3016.3717	3061.2903	3112.0729	3241.0728	3568.7976	3676.8638
CC1=C[C-](OC1=[NH2+])C=O	Cc1cc(oc1N)C=O	
InChI=1S/C6H6NO2/c1-4-2-5(3-8)9-6(4)7/h2-3,7H,1H3/q-1/p+1	InChI=1S/C6H7NO2/c1-4-2-5(3-8)9-6(4)7/h2-3H,7H2,1H3
