23
gdb 95823	3.0266	1.17387	0.91422	1.8434	82.41	-0.2499	0.0819	0.3318	1360.4851	0.206304	-425.440207	-425.430866	-425.429922	-425.474106	35.899	
C	 0.1862848564	 1.6034198527	 0.1070363711	-0.397646
C	 0.0152522782	 0.0907266679	 0.0230556508	 0.131243
C	 0.6235956726	-0.487464941	-1.2664843212	-0.193248
C	 0.1331816252	-1.8852929118	-1.6943171483	-0.225172
C	-0.1779227821	-2.8683356441	-0.5478803308	 0.147174
C	-0.1100822927	-4.3196672844	-1.0085273096	-0.40235
O	 0.7218528161	-2.7254189886	 0.5514417806	-0.248501
C	 0.3489987119	-1.7646002285	 1.5019212144	 0.007859
O	 0.675061949	-0.4463392479	 1.1725926363	-0.246115
H	 1.2450693551	 1.8706438246	 0.0295334157	 0.124995
H	-0.3564821053	 2.1000657766	-0.7025411992	 0.111424
H	-0.1905300416	 1.9758183527	 1.0630529906	 0.120309
H	-1.0600279453	-0.1520317745	 0.0806140149	 0.060754
H	 0.4418281048	 0.2096382994	-2.0926332027	 0.09214
H	 1.7064494408	-0.5078532376	-1.1056446444	 0.115848
H	-0.7783782363	-1.792517418	-2.2984648897	 0.096536
H	 0.888887203	-2.3287784898	-2.3538895591	 0.099559
H	-1.1955706405	-2.663702722	-0.1780055622	 0.064892
H	 0.9131836432	-4.5713731367	-1.3047448278	 0.126762
H	-0.4110793338	-4.995599856	-0.2038168508	 0.118164
H	-0.767378823	-4.483970506	-1.8681400374	 0.112959
H	-0.7368282584	-1.8479509844	 1.6990385783	 0.071821
H	 0.9128208026	-1.9889060524	 2.4108937705	 0.110594
68.5696	134.6731	185.9179	226.6913	236.1501	264.174	309.5266	341.7983	372.027	391.6495	473.4485	502.9734	586.8536	658.0918	758.8385	816.7556	853.156	875.6884	930.8199	943.1712	1019.3874	1057.8198	1068.5777	1075.4591	1099.4063	1126.9322	1142.8296	1155.1529	1171.223	1208.6388	1253.6612	1278.3059	1316.8507	1332.2625	1346.6743	1383.0452	1389.6887	1396.7998	1405.1889	1411.2753	1412.4022	1453.2924	1470.4532	1484.242	1486.0408	1492.5699	1494.853	1500.3651	1502.3162	2918.6635	2950.6664	2968.2554	3019.9028	3037.6156	3040.0921	3043.6821	3055.7942	3086.0086	3098.7816	3112.4617	3114.7703	3120.4983	3123.326
CC1CCC(C)OCO1	C[C@H]1CC[C@@H](C)OCO1	
InChI=1S/C7H14O2/c1-6-3-4-7(2)9-5-8-6/h6-7H,3-5H2,1-2H3	InChI=1S/C7H14O2/c1-6-3-4-7(2)9-5-8-6/h6-7H,3-5H2,1-2H3/t6-,7+
