15
gdb 27335	3.32782	1.43232	1.00313	3.858	74.2	-0.1987	-0.0058	0.193	1110.0144	0.115238	-450.16872	-450.160847	-450.159903	-450.200718	30.881	
N	 0.0249400925	 1.3327526682	 0.1357050165	-0.564703
C	-0.0359414457	-0.0272602781	 0.0533085182	 0.47821
N	-1.1573510066	-0.6586486177	 0.0503385547	-0.404225
C	-1.1483866408	-2.0482043023	 0.0302297927	 0.315274
N	-2.1994919076	-2.7808520143	-0.0130803422	-0.559611
C	 0.1687216783	-2.7222281986	 0.0409801014	 0.230156
N	 0.1473280075	-4.1019000707	 0.108144542	-0.589132
C	 1.2697331565	-1.9531619369	 0.0163784247	-0.077324
O	 1.194502321	-0.5690563141	 0.0155523304	-0.21756
H	 0.8758648801	 1.7745483521	-0.1714307397	 0.267406
H	-0.83776182	 1.8108498032	-0.0654743376	 0.27464
H	-3.0289774835	-2.1864464357	-0.0250004599	 0.214584
H	-0.7701084555	-4.4597686235	-0.131727634	 0.268908
H	 0.9150838976	-4.5910972236	-0.3255876416	 0.242578
H	 2.2957766264	-2.2902096479	 0.0060870645	 0.120799
105.1678	187.6969	312.557	321.0744	352.3559	375.041	406.1363	418.9434	470.0049	491.1952	543.3272	582.4876	636.7102	736.5704	756.5557	786.5706	789.6599	812.4385	891.1177	926.3307	1050.2854	1121.327	1206.1052	1220.0416	1299.4978	1331.3814	1427.1754	1464.2445	1604.8108	1612.7948	1669.4554	1705.0957	1725.5487	3241.5659	3479.3777	3529.868	3605.2703	3658.7193	3729.2064
NC1=NC(=N)C(N)=CO1	N[C@@H]1N=C([NH])C(=CO1)N	
InChI=1S/C4H6N4O/c5-2-1-9-4(7)8-3(2)6/h1H,5H2,(H3,6,7,8)	InChI=1S/C4H7N4O/c5-2-1-9-4(7)8-3(2)6/h1,4,6H,5,7H2/t4-/m1/s1
