19
gdb 48417	3.07132	1.08376	0.96987	2.591	77.35	-0.2405	-0.0303	0.2102	1285.4043	0.158823	-419.155464	-419.146599	-419.145655	-419.18968	32.444	
O	 0.1858725391	-0.1471089508	 0.4685390186	-0.279872
C	-0.0167399319	 0.9970516451	 0.1335764681	 0.115358
C	 1.0786084886	 2.002726179	-0.0356195678	 0.247892
C	 0.7602806201	 3.2053264875	-0.8914639261	-0.249362
N	 0.3289133929	 2.7651459049	-2.2131464668	-0.074358
C	 0.4860269934	 3.7242167945	-3.3021564032	-0.225624
C	 1.3893076393	 2.5456952539	-3.1950349711	-0.210076
C	 2.0317379699	 2.0938428296	 1.1194491118	-0.269987
N	 2.4428122734	 1.4538661681	-0.1235540132	-0.337512
H	-1.0410250166	 1.3708168507	-0.0649333098	 0.094681
H	-0.063343326	 3.7739837148	-0.4396932767	 0.107129
H	 1.6423135003	 3.8667560161	-0.9238522566	 0.094759
H	-0.3165399631	 3.7422975898	-4.033652532	 0.119546
H	 0.9071789539	 4.6995851435	-3.0634860645	 0.110656
H	 2.4138928053	 2.7184031908	-2.8754336381	 0.130511
H	 1.2523668103	 1.6891128394	-3.8482136447	 0.119859
H	 2.500615054	 3.0512959808	 1.3313649243	 0.124252
H	 1.8236995343	 1.470765037	 1.9846351021	 0.133185
H	 2.3626309929	 0.4419891855	-0.0112095244	 0.248964
66.1382	88.6597	110.1456	181.4807	257.5707	314.6414	336.0468	340.2218	386.0728	464.2755	665.8191	767.1733	769.9287	828.3126	862.4242	893.8427	914.3926	948.603	1011.3564	1016.086	1022.8346	1036.3661	1071.7625	1114.2028	1120.2431	1120.6325	1147.7882	1173.2666	1180.8814	1256.8891	1300.9129	1321.1988	1331.2293	1353.1296	1404.6266	1434.4435	1480.6612	1495.3763	1499.9451	1523.7254	1801.1213	2937.138	2961.9498	3038.0664	3097.8576	3108.5535	3113.3618	3183.3961	3201.4251	3202.1722	3456.8165
O=CC1(CN2CC2)CN1	O=C[C@@]1(CN2CC2)CN1	
InChI=1S/C6H10N2O/c9-5-6(3-7-6)4-8-1-2-8/h5,7H,1-4H2	InChI=1S/C6H10N2O/c9-5-6(3-7-6)4-8-1-2-8/h5,7H,1-4H2/t6-/m0/s1
