14
gdb 19173	3.89946	1.84903	1.49488	3.2245	57.6	-0.2392	-0.0102	0.2291	819.3691	0.107069	-419.625212	-419.618508	-419.617564	-419.655758	26.424	
O	 0.238715637	 1.3634596094	-0.2204674664	-0.444124
C	 0.0620814733	 0.0004725029	-0.0508348137	 0.187412
C	 0.0004221801	-0.6436723488	 1.4013955325	-0.265704
C	-1.4626241862	-0.1077747509	 1.4994539226	 0.132418
O	-1.569981484	 1.285551031	 1.7299045664	-0.445966
C	-1.3941154192	-0.6370720167	 0.0132089411	-0.294874
C	-0.660772798	-1.8118302197	 0.6596039621	 0.447728
O	-0.6162805415	-3.0020289476	 0.6097016096	-0.314529
H	-0.3321769604	 1.8073595573	 0.4232406229	 0.292815
H	 0.745208045	-0.4964318935	-0.7422827169	 0.108243
H	 0.7606433805	-0.6498228439	 2.1782469493	 0.101762
H	-2.132758596	-0.6538529972	 2.1720635109	 0.100552
H	-2.487123988	 1.5437681308	 1.5884054128	 0.299762
H	-2.1751096027	-0.6346786031	-0.7438714531	 0.094505
161.4014	275.3353	297.3327	317.4815	342.4164	439.7693	538.5534	572.4204	611.8045	635.3808	734.146	748.4333	760.9545	861.7051	924.7446	1016.0901	1024.0304	1064.5551	1091.915	1113.2437	1126.5107	1167.3177	1193.8512	1209.9752	1248.3936	1310.8805	1347.7779	1450.1712	1500.3353	1924.54	3046.3874	3097.4817	3149.8633	3160.7207	3719.222	3812.8127
OC1C2C(O)C1C2=O	O[C@H]1[C@H]2[C@@H](O)[C@@H]1C2=O	
InChI=1S/C5H6O3/c6-3-1-4(7)2(3)5(1)8/h1-4,6-7H	InChI=1S/C5H6O3/c6-3-1-4(7)2(3)5(1)8/h1-4,6-7H/t1-,2+,3-,4+
