20
gdb 120452	2.44337	1.22372	1.15847	3.3568	76.46	-0.2415	0.0261	0.2676	1216.8901	0.17062	-440.307716	-440.298041	-440.297096	-440.343447	34.578	
C	 0.1567306817	 1.6374260055	 0.0550183159	-0.403214
C	 0.1016632074	 0.1163405948	-0.0102041905	-0.13375
C	 0.813301816	-0.5840172999	-1.2121392695	-0.192766
N	 1.6542129887	-1.2838631302	-0.2283649774	-0.056058
C	 2.9341973785	-1.9455828011	-0.3297292304	-0.228714
C	 4.0984010037	-0.9630476216	-0.5394882522	-0.044051
O	 4.0333703255	 0.1524749472	 0.3247511645	-0.417746
C	 1.1578465204	-0.6054840731	 0.8551369235	 0.416627
O	 1.5210652865	-0.5750665219	 2.0083648174	-0.408768
H	 1.1780147002	 1.9946604687	-0.1118672766	 0.137014
H	-0.4971281363	 2.0919520067	-0.6958438849	 0.117712
H	-0.1619826537	 1.9851860417	 1.0418949558	 0.138092
H	-0.9126275603	-0.2551628888	 0.1601139457	 0.101113
H	 0.2026221099	-1.2516102011	-1.8279469902	 0.109455
H	 1.3663153141	 0.1095593559	-1.8552707832	 0.116901
H	 3.0780354095	-2.4835348106	 0.6145885133	 0.136193
H	 2.9149299726	-2.6910814425	-1.1325717791	 0.114702
H	 5.042961207	-1.5204884718	-0.4281523154	 0.092315
H	 4.0812377994	-0.5604937866	-1.5594298914	 0.105977
H	 3.7191277591	-0.1391221412	 1.1904463449	 0.298967
24.6813	78.0361	114.0381	169.5139	208.5528	234.3999	256.7168	333.7509	370.4166	412.3513	483.8921	547.7612	645.7157	738.5542	766.7763	831.684	871.1242	902.5135	933.4066	1003.8245	1033.3551	1086.8969	1106.0694	1110.8978	1141.1412	1144.9842	1176.8951	1222.8476	1253.2794	1264.8536	1312.9358	1351.295	1382.3317	1390.3617	1403.2964	1423.67	1437.1758	1469.664	1495.8622	1498.0633	1514.6609	1523.1332	1845.9524	2973.0453	3033.2299	3037.4161	3039.7321	3050.8156	3072.8304	3086.3716	3087.9211	3110.0462	3116.6695	3768.1069
CC1CN(CCO)C1=O	C[C@H]1CN(CCO)C1=O	
InChI=1S/C6H11NO2/c1-5-4-7(2-3-8)6(5)9/h5,8H,2-4H2,1H3	InChI=1S/C6H11NO2/c1-5-4-7(2-3-8)6(5)9/h5,8H,2-4H2,1H3/t5-/m0/s1
