21
gdb 115853	2.67555	1.40191	1.20621	2.2139	77.89	-0.2444	0.0745	0.3189	1142.0752	0.183791	-424.211457	-424.202834	-424.20189	-424.244545	33.386	
C	-0.3228903501	 1.1779691897	 0.0346565921	-0.238648
O	 0.0801393423	-0.1730614541	-0.0232815586	-0.255597
C	 0.7973595821	-0.6171715976	 1.1339078085	 0.115251
C	-0.1065474662	-0.779052546	 2.3902001521	-0.238716
C	 0.2851254524	-2.1216525258	 3.0499618665	-0.219546
C	 1.0163219737	-2.9229421332	 1.9807355647	-0.089177
C	 0.364016599	-3.0850824825	 0.6327947589	 0.116199
O	-0.9909351054	-2.7930210123	 0.4496131138	-0.434464
C	 1.3767500644	-1.9873623617	 0.8363083623	-0.136897
H	 0.5414901999	 1.8458676984	 0.1718305295	 0.10743
H	-0.8042798225	 1.4152225954	-0.917178564	 0.128456
H	-1.0370282274	 1.3659693751	 0.8490113459	 0.111935
H	 1.6097200552	 0.0996703261	 1.3288949914	 0.069128
H	-0.0008414662	 0.0610415162	 3.0820053051	 0.092794
H	-1.1463599093	-0.8113633286	 2.0593213555	 0.118525
H	 0.9639436015	-1.9559268023	 3.8936734342	 0.097733
H	-0.5906577099	-2.6493177687	 3.4407358563	 0.11111
H	 1.7040019234	-3.6978760853	 2.302556627	 0.082092
H	 0.7066562248	-3.9363907614	 0.0455600909	 0.086265
H	-1.0276145604	-1.9784815506	-0.0697575604	 0.292922
H	 2.3225310689	-2.0364356108	 0.3089986783	 0.083205
108.4935	127.6035	173.404	186.7508	223.4433	287.8993	391.2677	451.9251	456.9648	518.1095	549.0036	698.7042	731.529	777.4564	784.7526	821.6795	871.9576	943.2087	967.3714	989.0077	1027.5267	1043.6211	1054.6978	1097.6202	1105.8957	1120.6777	1136.0105	1182.8292	1202.396	1220.8304	1228.0699	1240.407	1300.9881	1325.4233	1330.3773	1344.6105	1368.1761	1386.4707	1396.2303	1439.6398	1477.7807	1481.6832	1488.6228	1502.9173	1510.3609	2977.6793	2983.5897	3033.2517	3040.424	3064.7828	3078.1235	3104.533	3114.7484	3118.8188	3161.8785	3174.5998	3748.2158
COC1CCC2C(O)C12	CO[C@H]1CC[C@H]2[C@@H](O)[C@@H]12	
InChI=1S/C7H12O2/c1-9-5-3-2-4-6(5)7(4)8/h4-8H,2-3H2,1H3	InChI=1S/C7H12O2/c1-9-5-3-2-4-6(5)7(4)8/h4-8H,2-3H2,1H3/t4-,5+,6-,7-/m1/s1
