20
gdb 104509	2.50514	1.14819	0.91366	4.2121	79.16	-0.2699	0.0333	0.3032	1321.5867	0.169297	-403.151019	-403.141028	-403.140084	-403.186216	36.522	
C	 0.2659371926	-0.9849350915	 1.9057684381	-0.391555
C	 0.0619463424	-0.4612625554	 0.4783069096	-0.251888
C	-1.3422464904	-0.6803490266	-0.0673854754	 0.332678
C	-2.461931298	 0.0717825912	 0.6523321594	-0.420566
C	-2.3360990145	 1.5257250787	 0.5243067613	 0.275574
N	-2.2238355279	 2.6707861495	 0.4162103486	-0.315072
C	-1.5083346765	-0.8821918746	-1.5630771754	-0.37463
C	-1.704081317	-2.0378525765	-0.6103099239	 0.055077
O	-0.7355619755	-3.0393054805	-0.5111009153	-0.41932
H	 1.2995512968	-0.8244184925	 2.2266134953	 0.117129
H	-0.3770254525	-0.4755533988	 2.6315256945	 0.112969
H	 0.0577980715	-2.0574261143	 1.9558332782	 0.136309
H	 0.2925440289	 0.6102999807	 0.4332085298	 0.117335
H	 0.7698802154	-0.9644052876	-0.185034656	 0.109854
H	-3.4379577963	-0.2207857203	 0.2497768554	 0.145326
H	-2.4758987437	-0.1810067062	 1.7185905857	 0.154487
H	-2.3765298175	-0.4635858329	-2.0617834071	 0.117647
H	-0.6007497352	-0.8814880496	-2.1572770253	 0.120922
H	-2.7263843571	-2.3830745917	-0.4480137602	 0.08503
H	-0.7564743554	-3.558797381	-1.3215059571	 0.292695
49.2528	89.4407	119.2479	182.6908	227.2299	260.4583	286.0668	288.6565	338.5881	394.9042	409.1094	444.6817	484.9408	622.2215	708.5882	780.2339	827.5653	890.6586	916.0113	929.6928	953.4913	1009.0974	1024.7706	1046.2761	1062.6286	1103.5173	1127.8575	1178.1793	1215.706	1255.6272	1289.0115	1314.3794	1334.6685	1348.162	1390.279	1408.7004	1432.4064	1463.6433	1480.078	1493.8485	1505.5343	1506.407	2360.3618	3036.9679	3038.2703	3044.5508	3079.4668	3084.4572	3089.5775	3107.5744	3120.7354	3129.5665	3218.3071	3808.4927
CCC1(CC#N)CC1O	CC[C@@]1(CC#N)C[C@H]1O	
InChI=1S/C7H11NO/c1-2-7(3-4-8)5-6(7)9/h6,9H,2-3,5H2,1H3	InChI=1S/C7H11NO/c1-2-7(3-4-8)5-6(7)9/h6,9H,2-3,5H2,1H3/t6-,7-/m1/s1
