23
gdb 91702	2.45168	1.66237	1.46354	0.2459	89.	-0.2328	0.0269	0.2597	1064.1162	0.209908	-351.190805	-351.183109	-351.182165	-351.222443	32.367	
C	-0.3495552996	 1.5226190635	-0.0121409266	-0.417684
C	 0.0093803647	 0.0380856321	 0.0079066684	 0.065566
C	 0.8712528202	-0.434708689	-1.2052780594	-0.223306
C	 1.9359280149	-1.4117445793	-0.6267083829	-0.003707
C	 1.3249478911	-1.8205862545	 0.7298946181	-0.225854
C	 0.8369747134	-0.4497304393	 1.2325428486	-0.056019
C	 2.0462672624	 0.4300801839	 1.4815732514	-0.0598
C	 3.1581624377	 0.3071853189	 0.7545143917	-0.050322
C	 3.2775389594	-0.6960214503	-0.3669389277	-0.253933
H	 0.5513916732	 2.1446355196	-0.0194470168	 0.118339
H	-0.9358478712	 1.7713858592	-0.9033844247	 0.108806
H	-0.9459206271	 1.8023452194	 0.8637213363	 0.105358
H	-0.9260260324	-0.5368983732	 0.0124800233	 0.063829
H	 0.2455210271	-0.9279947811	-1.955390261	 0.091862
H	 1.3481685586	 0.4155512077	-1.7045542738	 0.093213
H	 2.1030573601	-2.2651939636	-1.2899974333	 0.056575
H	 0.481477611	-2.5068358565	 0.5928357025	 0.084611
H	 2.0465868501	-2.2938823713	 1.4023459105	 0.089811
H	 0.2197591813	-0.5127096802	 2.1339610757	 0.053839
H	 1.9856911771	 1.1779794342	 2.2677675766	 0.081138
H	 4.0217978797	 0.9364354119	 0.9574217085	 0.080462
H	 4.0635248971	-1.42820714	-0.127801734	 0.098148
H	 3.6155696316	-0.1929066222	-1.2838403413	 0.099071
112.0555	214.7641	254.1732	309.1746	353.9877	382.965	438.1027	462.4426	517.6782	609.7702	674.0787	725.2347	794.8359	822.928	851.1472	881.6067	891.87	913.0321	937.8288	952.6829	992.1174	1001.1074	1008.5949	1044.188	1055.9151	1070.8724	1111.2412	1135.0029	1162.2768	1185.9528	1191.0789	1215.1659	1254.6123	1264.1934	1307.3381	1321.9805	1334.2565	1339.0688	1357.831	1370.9685	1387.4853	1410.5873	1416.4899	1473.6535	1490.646	1500.0956	1501.4583	1507.1155	1708.6669	2992.7623	3006.5484	3019.6089	3026.9874	3035.2112	3041.1699	3058.066	3063.4087	3083.0027	3088.6965	3089.9674	3103.2536	3142.3422	3167.5705
CC1CC2CC1C=CC2	C[C@H]1C[C@@H]2C[C@H]1C=CC2	
InChI=1S/C9H14/c1-7-5-8-3-2-4-9(7)6-8/h2,4,7-9H,3,5-6H2,1H3	InChI=1S/C9H14/c1-7-5-8-3-2-4-9(7)6-8/h2,4,7-9H,3,5-6H2,1H3/t7-,8+,9+/m0/s1
