19
gdb 128843	5.59226	0.68252	0.65904	2.7019	78.73	-0.2419	0.0239	0.2657	1727.3298	0.160344	-419.21906	-419.209929	-419.208985	-419.254811	32.167	
C	 0.1378436448	 1.3404154741	 0.1601883267	-0.227173
O	-0.089506845	-0.0288950246	-0.0635879959	-0.22828
C	 0.7214998788	-0.5592038804	-1.0886042939	-0.044012
C	 0.3722626466	-2.0384994692	-1.2618014757	-0.310504
C	 1.21604074	-2.7022675322	-2.3072806107	 0.324813
N	 0.770573671	-2.8309397585	-3.5577286076	-0.28601
N	 1.7790966046	-3.4309739894	-4.2188880896	-0.179583
C	 2.8506865363	-3.6916686495	-3.433038332	-0.018424
C	 2.5251501187	-3.2294948405	-2.1770127432	-0.27843
H	 1.1784267863	 1.5394655791	 0.4642236388	 0.100233
H	-0.0753486169	 1.9436092087	-0.7369714872	 0.102781
H	-0.5303829735	 1.6577565305	 0.9647677639	 0.124619
H	 0.5548355565	-0.0214222242	-2.0367502987	 0.095586
H	 1.7896599754	-0.4444674282	-0.8348140538	 0.082994
H	 0.4996990335	-2.5388497326	-0.2959753451	 0.110517
H	-0.6820664216	-2.1199700528	-1.5396022099	 0.124263
H	 1.6607401326	-3.6476579922	-5.1935996077	 0.274019
H	 3.7333549656	-4.1773234999	-3.8183326622	 0.131312
H	 3.1368150962	-3.2705697682	-1.2900795263	 0.101278
25.2377	82.6495	92.9419	107.2017	232.7906	258.185	335.2899	345.0937	453.0426	506.9494	662.5566	704.4866	759.7996	778.2063	802.1522	842.6138	947.0085	986.5426	1000.0347	1046.8888	1059.9655	1070.5371	1115.0083	1162.0058	1179.4095	1208.9809	1225.742	1233.9789	1286.2765	1305.7027	1326.4184	1405.9461	1417.88	1473.4973	1480.2256	1485.0537	1485.2663	1495.1335	1504.8974	1531.2132	1574.4218	2950.0353	2967.5969	2985.32	3007.5245	3052.744	3106.5652	3110.3756	3254.0092	3272.9857	3678.5826
COCCC1=NNC=C1	COCCc1n[nH]cc1	
InChI=1S/C6H10N2O/c1-9-5-3-6-2-4-7-8-6/h2,4H,3,5H2,1H3,(H,7,8)	InChI=1S/C6H10N2O/c1-9-5-3-6-2-4-7-8-6/h2,4H,3,5H2,1H3,(H,7,8)
