16
gdb 51301	3.13069	1.23628	0.89607	1.2607	76.46	-0.2399	-0.0635	0.1764	1245.2185	0.125664	-434.104158	-434.095921	-434.094977	-434.137746	29.65	
N	 0.3706590909	 1.2091239091	 0.0027253142	-0.404959
C	 0.060818255	-0.0207362121	 0.0008694697	 0.076106
N	-1.242060952	-0.489184461	 0.0112796896	-0.360952
C	-2.4306547521	 0.1945228223	 0.0256395726	 0.316072
N	-2.6526099524	 1.4536611639	 0.0321061073	-0.248437
C	-4.1075229513	 1.6819673132	 0.0476906316	-0.170157
C	-4.823354444	 0.3140177992	 0.0497598633	-0.356616
C	-3.6666149203	-0.6676227781	 0.0352092698	 0.350297
O	-3.6671218535	-1.8753893817	 0.0314161387	-0.332691
H	 1.3844097957	 1.3074414929	-0.0062379613	 0.227947
H	 0.7672904216	-0.8602165451	-0.0088391198	 0.095023
H	-1.3774438895	-1.4918754841	 0.0093984338	 0.26499
H	-4.3545052666	 2.2825625824	 0.929798386	 0.125596
H	-4.3722942422	 2.2893077381	-0.8245725358	 0.125579
H	-5.4437393631	 0.1436438257	 0.9346344987	 0.14609
H	-5.460204186	 0.1498949554	-0.8245616384	 0.146113
67.6945	101.2478	151.7712	168.1807	259.6268	264.8564	423.326	503.3251	587.2342	627.8639	655.3604	671.2399	750.0993	817.6232	823.1319	852.8219	966.2527	1009.454	1025.7085	1041.4707	1058.9062	1145.6779	1169.4194	1232.0852	1245.4829	1270.6364	1302.2826	1336.9448	1426.1821	1441.7772	1494.9018	1580.9723	1699.4466	1744.7294	1827.9727	3038.4991	3044.5418	3066.0234	3071.7986	3107.4389	3502.1878	3583.8375
N=CNC1=NCCC1=O	N=CNC1=NCCC1=O	
InChI=1S/C5H7N3O/c6-3-8-5-4(9)1-2-7-5/h3H,1-2H2,(H2,6,7,8)	InChI=1S/C5H7N3O/c6-3-8-5-4(9)1-2-7-5/h3H,1-2H2,(H2,6,7,8)
