18
gdb 96950	5.23596	1.18661	1.1001	2.3727	79.95	-0.2423	0.0248	0.2671	1143.6829	0.149282	-401.913978	-401.906671	-401.905727	-401.94612	28.353	
C	-0.0753297816	 1.4353105459	 0.1044226393	-0.336902
N	-0.0226301999	-0.0183415496	 0.1308184384	-0.349364
C	-1.0891823083	-0.6755430811	 0.0435361257	 0.461024
O	-2.3782912665	-0.1749691382	-0.0811835359	-0.276185
C	-3.1578169199	-1.3735548635	-0.1343128916	 0.120111
C	-2.6066076596	-2.4098308985	 0.8835154566	-0.072926
C	-3.0020116102	-3.5448735932	-0.0878983166	-0.262785
C	-2.4347850085	-2.4378679138	-1.0050156258	-0.072926
C	-1.2951533665	-2.1589309147	 0.0468193034	-0.153229
H	 0.5377249137	 1.7987266905	-0.7282146611	 0.124508
H	-1.0849252772	 1.8498897702	 0.0064373389	 0.124481
H	 0.378468667	 1.8247730987	 1.0228866006	 0.124508
H	-4.2167093516	-1.1437730171	-0.2340657796	 0.09615
H	-2.6953761884	-2.3775779567	 1.9696105378	 0.087104
H	-2.4155239157	-4.4634663376	-0.0209010792	 0.107225
H	-4.0691413996	-3.7669554057	-0.1816910221	 0.09848
H	-2.3260441283	-2.4378446357	-2.0897728572	 0.087104
H	-0.4295653388	-2.8098534398	 0.1352362285	 0.093622
70.5942	113.7463	213.0889	289.1048	373.4356	442.0132	474.9303	673.2196	687.7891	726.0816	803.4377	815.3189	853.9322	892.615	909.5443	917.8556	960.8042	1000.455	1019.0894	1037.6304	1072.0268	1073.1724	1110.97	1126.158	1132.1284	1133.7109	1169.2742	1185.8664	1191.3268	1227.7569	1242.5765	1262.2855	1292.7169	1355.2474	1438.4737	1494.7655	1495.7249	1520.6356	1828.1233	3016.6269	3053.6443	3076.9132	3088.3781	3114.0537	3114.5693	3119.089	3150.5114	3165.886
CN=C1OC2C3CC2C13	CN=C1O[C@@H]2[C@H]3C[C@@H]2[C@@H]13	
InChI=1S/C7H9NO/c1-8-7-5-3-2-4(5)6(3)9-7/h3-6H,2H2,1H3	InChI=1S/C7H9NO/c1-8-7-5-3-2-4(5)6(3)9-7/h3-6H,2H2,1H3/t3-,4+,5-,6+
