19
gdb 76554	2.30557	1.43457	1.2238	1.8268	71.37	-0.2167	0.0361	0.2528	1122.7454	0.157184	-460.108406	-460.099085	-460.098141	-460.142548	34.681	
C	-0.3151782724	 1.4550978995	 0.047048818	-0.393879
C	 0.0036530257	-0.0338080142	-0.0147703731	-0.121775
C	 1.3004798635	-0.4243213133	-0.7685421737	-0.086816
O	 1.905780012	-0.9527542532	 0.437813863	-0.313802
C	 0.7200642498	-0.6714999921	 1.1763453256	 0.384538
C	 0.7235971458	-0.3049510071	 2.6349470126	-0.001878
O	-0.1916096134	 0.6308975356	 3.1244856875	-0.428757
C	 0.1793881871	-1.6528594893	 2.1733686251	-0.068939
O	-1.2212453615	-1.7898832352	 2.1861282917	-0.427559
H	 0.550164616	 2.0283630574	 0.3934744068	 0.126561
H	-0.5945080963	 1.8228232803	-0.9465830063	 0.109331
H	-1.1412805273	 1.6611328275	 0.731149148	 0.123311
H	-0.8729773266	-0.6035571131	-0.3328200206	 0.093839
H	 1.194482823	-1.1966959728	-1.5387929156	 0.104378
H	 1.8765856477	 0.4165788831	-1.172356109	 0.104143
H	 1.6764169622	-0.2793641293	 3.1570834276	 0.111529
H	-1.0652752742	 0.2343011767	 3.0000755988	 0.284263
H	 0.7558877008	-2.5567691673	 2.3620151214	 0.102881
H	-1.4724531019	-2.1809482733	 3.0307852521	 0.298631
57.3779	114.1731	161.2075	221.3288	238.6685	263.1692	284.7718	305.1154	362.9045	440.9924	489.2945	553.3018	637.3414	661.9629	764.8938	834.6433	881.2776	905.9513	937.7992	956.378	1010.7491	1058.9818	1076.6145	1104.1634	1117.1322	1148.4792	1151.8416	1173.2784	1188.231	1239.0613	1253.8753	1293.327	1331.3699	1342.7262	1383.6133	1403.8035	1416.2029	1479.3322	1491.2147	1495.4342	1525.8874	3021.4235	3037.2976	3064.5817	3079.3891	3105.6484	3121.3197	3126.4638	3149.5598	3739.1869	3793.1334
CC1COC11C(O)C1O	C[C@H]1CO[C@]21[C@@H](O)[C@H]2O	
InChI=1S/C6H10O3/c1-3-2-9-6(3)4(7)5(6)8/h3-5,7-8H,2H2,1H3	InChI=1S/C6H10O3/c1-3-2-9-6(3)4(7)5(6)8/h3-5,7-8H,2H2,1H3/t3-,4-,5+,6+/m0/s1
