17
gdb 94758	4.22543	1.16554	1.02867	2.0082	76.01	-0.2577	0.0167	0.2745	1174.158	0.134203	-421.778171	-421.769832	-421.768888	-421.810899	31.725	
C	 0.2269219957	 1.5789665541	-0.0496946011	-0.40369
C	 0.0630097223	 0.0681892784	 0.0111196483	 0.115808
O	 0.7410701981	-0.5069676992	-1.1097859767	-0.275214
C	 1.2394093959	-1.7915394933	-0.7783168745	-0.169878
C	 1.4246798184	-1.7821982548	 0.7338871506	 0.261676
O	 2.1161714864	-0.5983852503	 1.1842955177	-0.282825
C	 0.68982967	-0.6023667488	 1.2205037475	-0.076992
C	 1.6269548291	-3.0015019622	 1.4564401608	 0.186094
C	 1.8026963894	-4.0490119866	 2.018952401	-0.357361
H	 1.282657837	 1.8414575128	 0.0524573123	 0.140934
H	-0.1382910582	 1.9571383724	-1.0079010055	 0.130998
H	-0.3418372992	 2.0607359504	 0.7516475011	 0.11531
H	-1.007170455	-0.201890158	-0.0082911867	 0.074749
H	 0.5342550342	-2.5935893573	-1.0467933908	 0.105387
H	 2.1756880393	-1.9465479351	-1.3229053051	 0.126671
H	 0.2257797312	-0.5540245651	 2.2017513001	 0.112298
H	 1.9597155852	-4.9679388975	 2.5280383612	 0.196035
106.83	135.4811	163.0698	229.3622	254.0843	326.1996	399.068	445.7733	514.4002	554.4714	581.274	622.0448	674.0196	679.7026	776.6733	839.2486	880.3575	905.6444	958.7073	1021.8473	1047.2207	1066.364	1091.8884	1127.9854	1151.357	1204.3843	1232.1179	1273.3924	1333.2497	1358.2584	1378.8329	1405.4275	1444.1156	1485.1375	1498.6712	1505.0708	2244.0665	2955.1853	2989.0634	3047.2576	3083.6784	3120.5894	3135.144	3160.4536	3501.0165
CC1OCC2(OC12)C#C	C[C@H]1OC[C@]2(O[C@@H]12)C#C	
InChI=1S/C7H8O2/c1-3-7-4-8-5(2)6(7)9-7/h1,5-6H,4H2,2H3	InChI=1S/C7H8O2/c1-3-7-4-8-5(2)6(7)9-7/h1,5-6H,4H2,2H3/t5-,6+,7-/m1/s1
