18
gdb 112415	2.36788	1.36546	0.96245	4.4218	67.92	-0.2661	0.0474	0.3136	1220.7943	0.148521	-476.273629	-476.26492	-476.263975	-476.307233	32.407	
C	 0.0619458568	 1.571793095	-0.2775414351	-0.406023
C	-0.0356212581	 0.079194328	 0.0559667637	-0.013119
N	 0.5553197413	-0.7698899838	-0.9711403031	-0.365101
C	 1.8491692163	-1.1286460904	-0.6542752909	 0.470819
O	 2.6892483869	-1.5972746728	-1.3685446607	-0.388627
O	 2.0414915455	-0.8679262525	 0.677423836	-0.268619
C	 0.8046458062	-0.4105012345	 1.2632775556	 0.100336
C	 1.1484128364	 0.5841047794	 2.36088544	-0.079112
O	 1.8996606259	-0.0331108562	 3.384876937	-0.420453
H	 1.1010663637	 1.8824779477	-0.4199906792	 0.138516
H	-0.4832713338	 1.7826108355	-1.2032600656	 0.121883
H	-0.3820728174	 2.185089469	 0.5125300176	 0.130298
H	-1.0855233543	-0.1880910062	 0.2150032388	 0.09897
H	 0.3477294212	-0.6364385947	-1.9485474461	 0.259143
H	 0.3180483306	-1.2807450743	 1.7207801674	 0.10598
H	 1.6810399196	 1.4451793157	 1.9320455906	 0.100788
H	 0.2268309743	 0.9528060632	 2.8243282182	 0.115156
H	 2.685794429	-0.4062818781	 2.9695209957	 0.299164
92.7953	115.0584	138.3133	184.972	277.0189	288.9467	399.3765	413.4922	437.8595	478.423	514.1924	556.3118	689.6793	734.8131	772.7079	831.8049	899.3762	966.8183	990.0629	1014.6021	1071.0252	1105.6322	1118.2145	1130.4358	1148.8854	1221.3392	1239.9114	1315.7555	1322.4603	1384.8776	1393.3746	1409.2658	1414.6798	1420.0742	1439.8734	1492.3596	1497.8076	1502.4169	1895.2879	3001.7729	3032.3711	3038.8818	3051.4896	3077.1566	3107.0024	3121.0524	3640.4723	3802.8663
CC1NC(=O)OC1CO	C[C@H]1NC(=O)O[C@H]1CO	
InChI=1S/C5H9NO3/c1-3-4(2-7)9-5(8)6-3/h3-4,7H,2H2,1H3,(H,6,8)	InChI=1S/C5H9NO3/c1-3-4(2-7)9-5(8)6-3/h3-4,7H,2H2,1H3,(H,6,8)/t3-,4+/m1/s1
