20
gdb 109256	3.50279	1.11077	0.92645	1.7528	81.15	-0.2204	0.04	0.2603	1294.1376	0.172518	-403.133433	-403.124884	-403.12394	-403.166876	32.56	
O	-0.0349298701	 1.3118850611	-0.6442001827	-0.415161
C	-0.0397796815	-0.0424727222	-0.2347184105	-0.146426
C	-1.4118123752	-0.4663009965	 0.2184322369	 0.276079
C	-2.4688523685	 0.3393792887	 0.132617374	-0.130535
C	-3.8628709847	-0.0209699358	 0.5649271432	-0.264863
C	-4.0523173	-1.4940353342	 0.8564543956	-0.026207
N	-3.7268404071	-2.4215121012	-0.2442885757	-0.3325
C	-2.8795468715	-2.3982573089	 0.9616955423	-0.028656
C	-1.4738670669	-1.8661216963	 0.78122048	-0.301684
H	 0.8317713667	 1.508815148	-1.0090051689	 0.288137
H	 0.2800621334	-0.7084537892	-1.0564167939	 0.094167
H	 0.6780348003	-0.2098343768	 0.5895023907	 0.086013
H	-2.3263856135	 1.3358495604	-0.2717612038	 0.102369
H	-4.1272210135	 0.5538614497	 1.4653890922	 0.104272
H	-4.5813510113	 0.2937971706	-0.2048648759	 0.109444
H	-4.9218748426	-1.7356805833	 1.4646594445	 0.076041
H	-4.3486040951	-3.2250479315	-0.2138131681	 0.226118
H	-2.9606713052	-3.244444835	 1.6413112448	 0.07578
H	-0.9064577606	-2.5540695775	 0.1365146153	 0.103188
H	-0.9634639432	-1.8880147199	 1.7561622599	 0.104423
67.7317	103.3376	203.8599	217.9023	233.612	328.9134	342.2097	415.8107	447.3248	535.6685	574.9584	723.5551	782.7831	801.1397	814.8788	879.2626	904.0433	956.6795	973.1427	981.5909	1028.6398	1052.6034	1068.1063	1078.5407	1124.2123	1145.0532	1181.3956	1192.3875	1224.936	1234.6489	1240.8714	1263.785	1282.8796	1332.1854	1373.7305	1396.2158	1409.8765	1460.7826	1467.9524	1470.6063	1474.152	1509.6138	1756.3883	2929.9177	2944.9286	2988.9036	2994.8166	3011.257	3021.9003	3114.607	3126.0958	3189.5096	3502.236	3844.5021
OCC1=CCC2NC2C1	OCC1=CC[C@H]2N[C@H]2C1	
InChI=1S/C7H11NO/c9-4-5-1-2-6-7(3-5)8-6/h1,6-9H,2-4H2	InChI=1S/C7H11NO/c9-4-5-1-2-6-7(3-5)8-6/h1,6-9H,2-4H2/t6-,7+/m1/s1
