21
gdb 113858	3.7443	0.89533	0.80592	1.7274	80.38	-0.2355	0.0864	0.3219	1501.3429	0.181598	-424.176241	-424.166817	-424.165873	-424.211655	33.881	
C	-0.2935622891	 1.4471793983	 0.2501161579	-0.231127
O	-0.3818315077	 0.1434618092	 0.7896680071	-0.236958
C	-1.3722693333	-0.6276502706	 0.1849824345	 0.115986
C	-1.0818127064	-1.3200436493	-1.1209981914	-0.333865
C	-1.1715651264	-2.1155363858	 0.1711524755	-0.064509
C	 0.0711007595	-2.7183758617	 0.7557536117	 0.161576
C	-0.0002440104	-3.326128137	 2.1763031236	-0.294717
C	 0.5084708871	-4.6106553962	 1.4965865899	-0.062661
O	 0.3762743602	-4.021675458	 0.1866856657	-0.298437
H	 0.5000327469	 1.9667783635	 0.7919772184	 0.127391
H	-0.0481431477	 1.4273795282	-0.8212102031	 0.111244
H	-1.2353536405	 2.0018759138	 0.3791255337	 0.10637
H	-2.3848456393	-0.2536984091	 0.3479300294	 0.084861
H	-1.872088088	-1.4225317664	-1.8561503828	 0.113197
H	-0.087775367	-1.1858498763	-1.5349148469	 0.124178
H	-2.0639862475	-2.7201006921	 0.3100266972	 0.085478
H	 0.9150410799	-2.031219841	 0.6249623514	 0.078721
H	 0.6455199599	-2.8736423982	 2.9297422342	 0.110988
H	-1.0164970832	-3.3992384477	 2.5697793917	 0.105759
H	 1.5513345107	-4.8693178523	 1.7249597082	 0.096056
H	-0.1084062876	-5.5102106512	 1.6070832541	 0.10047
47.3728	74.2304	105.722	132.5344	181.1105	204.1266	302.9555	363.0132	369.3605	488.7307	589.3886	737.3474	784.141	816.3146	841.0978	873.7129	942.7065	958.8206	985.8429	1005.2565	1019.3277	1032.4221	1053.0453	1088.523	1105.5239	1134.3791	1164.8154	1168.2689	1184.1184	1199.984	1214.7892	1230.2607	1255.9531	1258.6455	1282.6605	1323.0143	1355.611	1392.3443	1439.107	1473.2517	1485.0616	1489.9822	1491.0992	1508.9278	1532.6007	2983.9423	3005.6458	3036.5474	3038.3826	3050.3941	3076.5006	3080.7241	3119.3343	3133.1783	3134.0535	3143.488	3222.7089
COC1CC1C1CCO1	CO[C@H]1C[C@H]1[C@H]1CCO1	
InChI=1S/C7H12O2/c1-8-7-4-5(7)6-2-3-9-6/h5-7H,2-4H2,1H3	InChI=1S/C7H12O2/c1-8-7-4-5(7)6-2-3-9-6/h5-7H,2-4H2,1H3/t5-,6+,7-/m0/s1
