20
gdb 72133	2.12416	2.02116	1.72538	1.3403	77.87	-0.2244	0.0767	0.3011	958.9677	0.171716	-403.106906	-403.099077	-403.098132	-403.138568	31.853	
C	 0.045643377	 1.5234114779	-0.0890012672	-0.52715
C	-0.015688241	 0.0239149226	-0.0788454205	 0.259615
N	 0.5318253365	-0.7802693922	-1.2078877995	-0.360587
C	-0.242429609	-1.9135358174	-0.5827960612	-0.115347
C	 0.6421858844	-2.1691829883	 0.6479035929	-0.191503
C	 0.3082349906	-0.7923731458	 1.2473061433	 0.036673
O	-1.1202221845	-0.9358148471	 1.5121277622	-0.33349
C	-1.2713841392	-0.8668801251	 0.0864034019	 0.417519
C	-2.6598857746	-0.6613424744	-0.4358632786	-0.517882
H	 1.0844191041	 1.8704763658	-0.0881967395	 0.131515
H	-0.4468141945	 1.9384554172	-0.9756811789	 0.115276
H	-0.4533390802	 1.9284521327	 0.7968624713	 0.134859
H	 0.0414029142	-0.4771145971	-2.05079192	 0.208973
H	-0.543503683	-2.7413601442	-1.2231338197	 0.067702
H	 0.3009218487	-2.9682970118	 1.3082353713	 0.103538
H	 1.685414783	-2.3103333287	 0.3613784081	 0.108627
H	 0.8739188942	-0.3887690632	 2.0858561199	 0.078389
H	-3.1128104387	 0.2357337169	-0.0032437424	 0.130654
H	-2.6484075205	-0.5549116641	-1.5256818642	 0.118141
H	-3.2943743275	-1.5189485439	-0.1879884494	 0.134479
177.1985	197.1739	209.666	247.968	270.493	303.5312	484.2227	509.9284	517.0767	624.2223	643.4873	703.6932	753.827	798.0133	851.568	862.4965	896.7022	912.692	926.8858	935.9791	963.9112	1003.6991	1027.6363	1095.0191	1101.709	1128.9805	1146.0374	1154.9614	1175.3183	1226.9424	1257.8699	1273.9261	1301.5562	1318.795	1335.6731	1380.7614	1407.7714	1417.5922	1468.3968	1475.737	1486.9647	1491.4865	1496.4833	3028.9282	3034.4145	3080.7857	3092.4617	3102.1225	3108.5596	3110.4376	3130.9305	3134.431	3144.4754	3443.0693
CC12NC3CC1OC23C	C[C@@]12N[C@H]3C[C@@H]1O[C@@]23C	
InChI=1S/C7H11NO/c1-6-5-3-4(8-6)7(6,2)9-5/h4-5,8H,3H2,1-2H3	InChI=1S/C7H11NO/c1-6-5-3-4(8-6)7(6,2)9-5/h4-5,8H,3H2,1-2H3/t4-,5-,6+,7+/m0/s1
