20
gdb 106418	2.69734	1.46533	1.22551	2.0715	80.03	-0.2362	0.0878	0.324	1115.4393	0.171057	-403.056561	-403.048167	-403.047223	-403.089612	32.411	
C	-0.0344345177	 1.3115150431	 0.0302381953	-0.262903
O	 0.0757895075	-0.0976988352	-0.0489241636	-0.295771
C	 0.7035931044	-0.5602008256	-1.180157457	 0.344748
C	 0.2807876438	-0.4054765366	-2.6871180538	-0.295091
C	 1.5318852705	-1.3381629588	-2.6808406142	-0.140691
C	 2.1867576815	-0.3654354142	-1.6513732936	-0.289921
C	 0.8936492939	-2.0477482984	-1.4736627569	 0.404814
C	 1.204683865	-3.2025665752	-0.6272927163	-0.358801
N	-0.0502159262	-3.139193573	-1.4460395921	-0.416744
H	 0.9526677839	 1.7939657954	 0.0408849528	 0.116059
H	-0.6155762789	 1.7191106898	-0.8084169224	 0.116561
H	-0.5511975003	 1.5390654235	 0.9649303986	 0.130279
H	-0.6660229665	-0.8627859978	-2.9801139397	 0.106932
H	 0.4232748994	 0.5798577291	-3.1378942544	 0.088253
H	 2.0091403062	-1.7934310243	-3.5437462436	 0.089533
H	 2.4503961071	 0.6215713879	-2.0384196145	 0.090246
H	 2.9647098515	-0.7784134906	-1.0055916681	 0.098395
H	 1.9119399389	-3.9619713112	-0.9493394155	 0.118891
H	 1.1165158095	-3.0878267788	 0.4502092906	 0.11956
H	-0.8359316035	-2.9069759592	-0.8410404416	 0.23565
71.5091	145.4282	165.4397	213.8805	256.567	277.3694	398.5923	466.6415	485.2163	617.4714	621.9009	663.1617	788.7915	807.0083	899.5968	908.4474	933.627	946.3099	955.0397	972.1274	1003.9774	1048.3105	1051.0773	1070.3778	1088.3162	1125.7305	1127.5079	1155.6931	1180.8745	1183.0548	1202.9061	1203.9484	1221.7669	1261.0414	1264.1172	1320.8504	1449.0024	1484.7775	1485.4431	1487.6219	1506.0593	1514.2925	1554.5687	2996.1327	3049.9547	3059.0742	3062.6497	3105.8536	3123.9114	3130.9869	3135.0051	3163.7204	3191.0538	3481.7313
COC12CC(C1)C21CN1	CO[C@@]12C[C@@H](C1)[C@]12CN1	
InChI=1S/C7H11NO/c1-9-6-2-5(3-6)7(6)4-8-7/h5,8H,2-4H2,1H3	InChI=1S/C7H11NO/c1-9-6-2-5(3-6)7(6)4-8-7/h5,8H,2-4H2,1H3/t5-,6-,7-/m0/s1
