21
gdb 83516	2.64627	1.72974	1.55276	1.8487	79.51	-0.253	0.0821	0.335	985.4019	0.185917	-387.090586	-387.083425	-387.082481	-387.12161	30.292	
C	-0.118855517	 1.5453056335	 0.0040609226	-0.439416
C	 0.0353661754	 0.0267743957	 0.0096914856	 0.046826
C	 1.0066533274	-0.5782677146	-1.0357550522	-0.078029
C	 2.3900399634	-0.0699130834	-0.5374012526	-0.212051
C	 2.2308199599	-0.0803002468	 1.0204811055	-0.212052
C	 0.7758958553	-0.5933020143	 1.2219401183	-0.078026
C	 0.8508036732	-2.0692767482	 0.8169696661	 0.049027
O	-0.1974215386	-2.5567504153	-0.0313046294	-0.264305
C	 1.0000767556	-2.0595500376	-0.6434851622	 0.04903
H	 0.8302693276	 2.0789201936	 0.1046315485	 0.114817
H	-0.5859138389	 1.8792682046	-0.9288556162	 0.115067
H	-0.7654236768	 1.8675334681	 0.8275464697	 0.115068
H	-0.9509084992	-0.4279564602	-0.0941469459	 0.094165
H	 0.7891495562	-0.3611572508	-2.0833454262	 0.059332
H	 3.2054638588	-0.7166095774	-0.8757714307	 0.09581
H	 2.6028296597	 0.9336811778	-0.9146477311	 0.100236
H	 2.961789401	-0.7325325197	 1.508237417	 0.09581
H	 2.3615760201	 0.9179314601	 1.4461887413	 0.100236
H	 0.3506779839	-0.389718238	 2.2066399368	 0.059332
H	 1.3140913667	-2.8061028802	 1.4674672818	 0.094563
H	 1.5863707463	-2.7883625968	-1.1964654469	 0.094562
194.1789	241.2933	265.972	286.5449	331.0279	380.8557	489.0908	592.981	612.5074	716.2655	759.8649	808.9243	826.8983	862.8035	886.5113	892.5049	903.1801	935.3693	957.7907	962.5926	993.0185	1008.9927	1042.8482	1055.6289	1099.3546	1123.894	1125.8461	1152.4564	1181.7809	1211.6103	1236.6639	1254.6895	1278.8226	1290.8833	1295.0545	1319.035	1336.1769	1337.5049	1383.9267	1413.0535	1425.8305	1486.0667	1497.4686	1509.9453	1516.0195	3033.7592	3049.6873	3059.2171	3083.3561	3090.3961	3091.8674	3094.3916	3095.7935	3105.1928	3116.1504	3146.0067	3158.5077
CC1C2CCC1C1OC21	C[C@H]1[C@H]2CC[C@@H]1[C@H]1O[C@@H]21	
InChI=1S/C8H12O/c1-4-5-2-3-6(4)8-7(5)9-8/h4-8H,2-3H2,1H3	InChI=1S/C8H12O/c1-4-5-2-3-6(4)8-7(5)9-8/h4-8H,2-3H2,1H3/t4-,5+,6-,7-,8+
