19
gdb 68393	2.55188	1.94736	1.43604	2.6374	73.32	-0.2562	0.0733	0.3294	953.5975	0.161051	-423.006445	-422.999339	-422.998394	-423.037337	30.083	
O	-0.1835047063	 1.3754210008	-0.0060574165	-0.498879
C	 0.0299395047	-0.0104229135	 0.0018116244	 0.38963
C	 0.9543170135	-0.6946969792	-1.0531913049	-0.283912
C	 1.183013402	-1.7890754276	 0.0343203204	-0.028086
C	 0.8926584345	-0.6886166807	 1.0979074848	-0.284795
C	 0.0543958614	-2.8356231547	-0.0071542757	-0.239471
C	-1.3092201632	-2.1648582437	-0.0905443712	 0.04363
O	-1.7624145256	-1.4424799375	 1.0656896429	-0.254977
C	-1.3303517123	-0.6966285488	-0.0745261011	 0.021505
H	 0.6733483809	 1.8108537582	 0.0482786135	 0.275713
H	 0.5197017458	-0.9862488592	-2.0140729746	 0.093691
H	 1.8623958421	-0.1078464563	-1.22475964	 0.088714
H	 2.1639218545	-2.2662900897	 0.0637152437	 0.067617
H	 1.789674916	-0.0939956009	 1.2997016732	 0.08274
H	 0.4033269054	-0.9678768844	 2.0303258757	 0.120346
H	 0.1793208936	-3.4739714783	-0.8907046342	 0.102075
H	 0.0966381524	-3.4930960734	 0.8695868764	 0.112763
H	-2.1004802489	-2.712720723	-0.6001627452	 0.092891
H	-2.1055831506	-0.1289759081	-0.5855958117	 0.098804
206.8045	263.8245	300.7328	336.7241	384.2652	404.218	437.0833	469.906	546.3022	612.3521	680.9421	781.5725	838.2473	852.5236	860.7489	876.3176	911.1791	936.9522	963.4159	1006.5612	1021.4747	1048.4714	1071.1739	1094.7813	1105.757	1133.8246	1154.6145	1180.694	1207.3274	1226.3215	1260.1723	1279.7402	1294.8393	1310.9314	1347.1211	1379.7013	1407.9436	1452.7637	1469.1852	1475.6052	1507.0794	3026.7968	3042.1451	3053.574	3065.2637	3091.028	3100.2252	3117.8953	3137.9964	3142.258	3815.9515
OC12CC(C1)CC1OC21	O[C@@]12C[C@@H](C1)C[C@H]1O[C@@H]21	
InChI=1S/C7H10O2/c8-7-2-4(3-7)1-5-6(7)9-5/h4-6,8H,1-3H2	InChI=1S/C7H10O2/c8-7-2-4(3-7)1-5-6(7)9-5/h4-6,8H,1-3H2/t4-,5-,6-,7-/m1/s1
