15
gdb 30516	2.56793	1.64998	1.01084	1.1432	75.19	-0.2162	-0.0418	0.1744	1113.4904	0.11256	-453.966334	-453.958109	-453.957164	-453.999984	29.619	
C	-0.1361869869	 1.4090806948	 0.0531277866	-0.322336
N	-0.1654085991	-0.0429839335	 0.0783338726	-0.306222
C	 0.610805668	-0.6580450842	 0.8580422746	 0.383723
O	 1.4985557118	 0.0254131258	 1.6984158919	-0.235939
C	 2.3264568371	-0.6498355873	 2.5306107815	 0.116965
N	 2.4050777008	-1.9128002287	 2.6540353477	-0.266071
C	 1.5557717804	-2.6671524959	 1.8537987644	-0.144834
C	 0.6823374081	-2.1125106553	 0.9815846716	 0.254404
O	-0.1654177898	-2.7894522695	 0.1799816891	-0.402994
H	 0.8523160881	 1.7942289269	-0.2310590948	 0.123438
H	-0.8688046748	 1.7670399727	-0.6732265939	 0.124655
H	-0.3783416679	 1.8410820691	 1.0334167737	 0.123416
H	 2.9427936919	 0.0320514246	 3.1064375839	 0.142124
H	 1.6309380615	-3.7451579108	 1.9669883441	 0.105194
H	-0.048312729	-3.7353068585	 0.3290575272	 0.304477
38.8065	110.9737	194.3494	205.9024	246.7122	327.6259	407.566	504.5196	505.1108	549.008	590.9497	598.309	736.1224	751.9058	876.9832	893.756	917.2312	1043.1475	1062.6974	1107.0109	1111.4123	1172.0078	1188.9088	1239.5229	1324.2956	1403.7303	1436.7635	1468.357	1488.4467	1498.993	1629.6974	1675.7909	1764.8688	3002.3316	3052.4669	3112.9492	3163.5074	3205.0641	3800.4497
CN=C1OC=NC=C1O	C[N]C1=C(CN=CO1)O	
InChI=1S/C5H6N2O2/c1-6-5-4(8)2-7-3-9-5/h2-3,8H,1H3	InChI=1S/C5H7N2O2/c1-6-5-4(8)2-7-3-9-5/h3,8H,2H2,1H3
