21
gdb 13711	5.72866	0.78158	0.73112	2.2903	76.25	-0.2212	0.0802	0.3014	1580.648	0.18726	-366.225767	-366.216053	-366.215109	-366.260994	34.4	
C	 0.0863733414	 1.5090028946	-0.4295734865	-0.411784
C	 0.048689708	 0.0427148217	-0.0549313715	 0.03085
C	 1.2987122569	-0.760919319	 0.0718630181	-0.25386
N	 0.4804932798	-0.4721087175	 1.2460485768	-0.079433
C	 1.0268700273	 0.4326917376	 2.2508362235	-0.144274
C	 1.7681428753	-0.3661729104	 3.3235188048	-0.160367
C	 2.3219274239	 0.5129480285	 4.4362588879	-0.074048
O	 3.0048157236	-0.3261820244	 5.3560695611	-0.42025
H	 1.0223016709	 1.9931937746	-0.1412822512	 0.120096
H	-0.0193030828	 1.6158845192	-1.5144464005	 0.122075
H	-0.7391232192	 2.058913564	 0.0364484867	 0.121611
H	-0.8385419984	-0.4725109934	-0.4225914602	 0.08802
H	 1.3392627957	-1.7999604758	-0.2453625417	 0.111746
H	 2.2395753702	-0.2195198099	-0.0352620169	 0.101148
H	 1.7071182961	 1.1913670237	 1.8266841924	 0.07836
H	 0.1875853336	 0.9758225783	 2.7044078727	 0.098847
H	 1.0921004914	-1.1122266252	 3.7532820119	 0.11635
H	 2.5982532712	-0.9170790512	 2.8657873525	 0.107057
H	 3.0006401105	 1.2722466985	 4.0125431241	 0.080711
H	 1.4981369863	 1.0558262637	 4.9291664733	 0.08291
H	 3.3446133885	 0.2233629324	 6.0680872025	 0.284233
54.7557	79.8146	104.2023	130.343	182.5394	233.0292	264.7357	296.469	361.4175	417.2596	445.7359	547.0241	754.5929	772.3517	813.597	881.8399	907.4021	950.7189	1025.3867	1028.7602	1048.8421	1067.5279	1087.0872	1113.8555	1145.7715	1149.3455	1187.4808	1189.0776	1234.742	1241.426	1305.8381	1313.6935	1319.2788	1339.7199	1397.7627	1410.3572	1422.5691	1464.4469	1487.6494	1493.5215	1499.6567	1504.0238	1516.0749	1530.1025	2946.0287	2955.3297	2977.1907	3032.7155	3034.6337	3045.3513	3079.2298	3091.4485	3093.8591	3097.452	3124.5335	3167.4037	3830.5798
CC1CN1CCCO	C[C@H]1CN1CCCO	
InChI=1S/C6H13NO/c1-6-5-7(6)3-2-4-8/h6,8H,2-5H2,1H3	InChI=1S/C6H13NO/c1-6-5-7(6)3-2-4-8/h6,8H,2-5H2,1H3/t6-,7?/m0/s1
