15
gdb 84270	3.32459	1.47484	1.12524	2.7436	67.83	-0.2545	-0.0356	0.2188	1034.4285	0.112173	-457.725781	-457.718314	-457.71737	-457.757791	28.261	
O	 0.4447916273	 1.3488944902	-0.1160528492	-0.436478
C	 0.2982798184	-0.0370005604	 0.0013398832	 0.030965
C	 0.7281500025	-0.6063100209	 1.3531287902	-0.239436
C	-0.0626092881	-1.6362923929	 1.6519295092	 0.182587
C	-0.887666419	-2.2883720033	 2.7319212405	-0.149561
O	-2.0619331323	-2.1663276077	 1.8583739091	-0.298352
C	-1.2193247663	-1.8343549539	 0.7247666548	 0.009057
C	-1.2194826209	-0.4454922834	 0.0617468688	 0.295891
O	-2.1105663466	 0.3213529776	-0.1703184556	-0.293691
H	-0.4521542935	 1.7092841629	-0.1882693781	 0.298335
H	 0.7919203873	-0.5370411527	-0.8462807474	 0.105952
H	 1.4542274439	-0.1054812352	 1.9810815058	 0.125933
H	-0.674247415	-3.3440994362	 2.9384233349	 0.122379
H	-0.9985179772	-1.7394340159	 3.6721832369	 0.134741
H	-1.2065768705	-2.6401354482	-0.0206909831	 0.111677
97.9058	162.4026	234.1863	278.9453	332.6085	348.3871	394.7923	488.662	574.4092	675.4845	703.6916	784.2897	797.5267	896.5298	901.1291	932.5476	974.9668	1002.4531	1010.1963	1068.3789	1095.8746	1132.6435	1150.0781	1184.5892	1221.1031	1280.0459	1300.4722	1331.2725	1348.6134	1402.1515	1506.4451	1722.46	1858.1475	2979.1035	3020.4232	3029.2143	3087.9579	3217.1032	3710.9414
OC1C=C2COC2C1=O	O[C@H]1[CH][C]2CO[C@H]2C1=O	
InChI=1S/C6H6O3/c7-4-1-3-2-9-6(3)5(4)8/h1,4,6-7H,2H2	InChI=1S/C6H6O3/c7-4-1-3-2-9-6(3)5(4)8/h1,4,6-7H,2H2/t4-,6+/m0/s1
