18
gdb 24138	5.2596	0.96854	0.85758	1.2207	78.86	-0.1801	0.0615	0.2416	1347.7583	0.148574	-401.955638	-401.94752	-401.946576	-401.989089	31.062	
C	 0.2497304407	 0.9374905371	 1.2629345724	-0.280088
C	 1.0850689196	 1.0553469958	 0.0028365396	-0.294997
C	-0.1663335998	 0.2429281534	-0.0036035972	 0.137729
O	 0.0121858366	-1.1447017732	-0.1030871009	-0.273093
C	-1.0024345219	-1.8916652363	 0.4009554644	 0.403232
C	-2.1500836935	-1.5996633262	 1.100005367	-0.281433
C	-2.8065926162	-2.850350055	 1.3303733637	-0.142313
C	-2.0440927376	-3.841507829	 0.7714328116	-0.096877
N	-0.9354336699	-3.2414478574	 0.2021884939	-0.324369
H	 0.6366291796	 0.3099820005	 2.0571739726	 0.130463
H	-0.3251148674	 1.7946848882	 1.5955039724	 0.117531
H	 1.0916620818	 1.993132235	-0.5406544877	 0.118396
H	 2.0186701749	 0.5053932371	-0.0248439717	 0.127364
H	-1.0408366702	 0.6044667146	-0.5403265921	 0.102444
H	-2.4736915353	-0.6223593463	 1.4161149681	 0.093141
H	-3.738338404	-2.9917229127	 1.8562498294	 0.089457
H	-2.1776337872	-4.9093973434	 0.7256490998	 0.112589
H	-0.19675905	-3.6978013724	-0.3033495552	 0.260822
58.0715	65.3579	146.3682	272.2283	359.6275	363.6743	429.7476	484.9799	622.9313	639.3835	691.8673	700.3692	754.3818	758.5387	824.5883	830.852	843.3645	892.3203	969.754	987.1989	1019.8475	1048.0236	1057.8248	1073.6037	1103.7748	1123.6303	1144.1549	1189.1416	1192.2099	1234.9488	1275.9141	1295.1132	1390.6305	1418.5692	1454.86	1489.8674	1501.8533	1527.2213	1621.0618	3127.0014	3140.1942	3144.5941	3224.5218	3238.2013	3246.0913	3271.1812	3278.6086	3688.2912
C1CC1OC1=CC=CN1	C1CC1Oc1ccc[nH]1	
InChI=1S/C7H9NO/c1-2-7(8-5-1)9-6-3-4-6/h1-2,5-6,8H,3-4H2	InChI=1S/C7H9NO/c1-2-7(8-5-1)9-6-3-4-6/h1-2,5-6,8H,3-4H2
