19
gdb 118308	5.79778	0.58198	0.54954	4.6603	70.21	-0.2718	0.0128	0.2847	1931.565	0.156348	-497.307541	-497.297023	-497.296079	-497.344242	36.197	
O	 0.1485150641	 1.2152180528	 0.2611259858	-0.421575
C	 0.043154121	-0.1605988051	-0.0674237731	-0.073724
C	-1.4288770848	-0.5432557092	 0.038945182	-0.206118
C	-1.6821073872	-2.0233989554	-0.2508013296	 0.111675
O	-0.969446151	-2.8828382324	 0.6340934557	-0.42609
C	-3.1762276339	-2.3547496607	-0.2288688027	-0.10904
O	-3.4061539872	-3.6904615698	-0.6717433456	-0.175494
C	-3.404883787	-4.6688190537	 0.2570543469	 0.189928
O	-3.4873303587	-5.8246562651	-0.0268059449	-0.276154
H	 1.0767321592	 1.4634754476	 0.2232326028	 0.289298
H	 0.4002848724	-0.3593433769	-1.0910121509	 0.092046
H	 0.6377118454	-0.7883454451	 0.6113881926	 0.098976
H	-1.7856911074	-0.2929883789	 1.0482157169	 0.101108
H	-2.0067767927	 0.0760442799	-0.6568620293	 0.115853
H	-1.3022735079	-2.2785905823	-1.2474385231	 0.110441
H	-1.1362653832	-2.5873120149	 1.5369618314	 0.282162
H	-3.58195969	-2.210485929	 0.7832103459	 0.103584
H	-3.7304342668	-1.7068772072	-0.9131062806	 0.128425
H	-3.3490096743	-4.2788918144	 1.2905581698	 0.064699
51.6662	65.5958	90.6429	115.4159	155.7578	192.2378	271.5119	282.6947	311.4892	347.6511	375.6971	388.142	474.4803	572.4364	683.4428	799.5763	885.4501	954.3663	1003.1554	1031.6767	1050.4014	1064.9111	1087.9361	1100.4247	1124.6671	1166.9985	1209.8933	1239.8336	1280.2474	1297.298	1307.5981	1357.7736	1368.4469	1405.3852	1422.3749	1432.647	1463.2844	1483.2101	1494.3389	1531.0871	1870.7196	2959.7673	2971.2061	3005.305	3013.0517	3018.5825	3051.1058	3072.9817	3102.6835	3789.8035	3831.8903
OCCC(O)COC=O	OCC[C@@H](O)COC=O	
InChI=1S/C5H10O4/c6-2-1-5(8)3-9-4-7/h4-6,8H,1-3H2	InChI=1S/C5H10O4/c6-2-1-5(8)3-9-4-7/h4-6,8H,1-3H2/t5-/m1/s1
