14
gdb 24872	3.47551	1.28641	0.93889	2.2229	87.1	-0.2094	-0.0715	0.1378	1162.3858	0.102492	-395.728388	-395.720896	-395.719952	-395.760417	28.711	
N	-0.1669179762	 1.328638157	 0.0091942308	-0.568707
C	-0.006678589	 0.0567452333	 0.0011809047	 0.34891
N	-1.1333313076	-0.7651006862	 0.0029120871	-0.404632
C	-1.074093875	-2.1361068699	-0.005204762	 0.243181
C	 0.1530758285	-2.7405814526	-0.0155270184	-0.136676
N	 1.314528363	-2.0106270753	-0.0178982128	-0.221801
C	 1.2382558184	-0.7188564874	-0.0101625195	-0.056825
C	-2.2985796579	-2.8511926314	-0.0023742712	 0.249451
C	-3.346798572	-3.4428013219	 0.0001883566	-0.402478
H	 0.7369313024	 1.7978499663	 0.0067562106	 0.217048
H	-2.0290757763	-0.2976970825	 0.0105700161	 0.272247
H	 0.2380391588	-3.8182032104	-0.0221191051	 0.125566
H	 2.1670737828	-0.1498188644	-0.0121354756	 0.120895
H	-4.2661001099	-3.9757033846	 0.0024066889	 0.213822
126.3907	141.6888	147.9651	352.6674	392.2958	449.9607	485.5829	544.8174	563.519	600.7628	626.2871	684.2134	689.9204	700.0545	740.0059	785.5667	850.7451	935.5944	949.1656	1041.913	1112.7981	1149.0778	1229.2091	1351.654	1363.5423	1400.5413	1478.1362	1559.0432	1625.562	1698.5078	2231.7377	3139.2854	3229.9169	3496.9638	3502.2412	3611.4683
N=C1NC(=CN=C1)C#C	[NH]c1[nH]c(cnc1)C#C	
InChI=1S/C6H5N3/c1-2-5-3-8-4-6(7)9-5/h1,3-4H,(H2,7,9)	InChI=1S/C6H10N3/c1-2-5-3-8-4-6(7)9-5/h1,5-9H,3-4H2
