20
gdb 87281	2.65357	1.32378	1.04227	2.9256	80.54	-0.2346	-0.0226	0.212	1217.8097	0.168992	-403.112879	-403.103687	-403.102743	-403.146609	34.58	
C	 0.0106652126	 1.2878374498	-0.1803525655	-0.429724
C	 0.3149135461	-0.1685216163	 0.0871582934	-0.012786
C	 1.713043608	-0.7071863337	 0.0885366187	-0.338093
C	 0.9264145499	-0.6794075557	 1.394148894	 0.212255
C	 1.3472847239	 0.3257881388	 2.4133907669	 0.120957
O	 2.0267789684	 1.3014289274	 2.1950100899	-0.275107
N	 0.3542921037	-1.8420364575	 2.034511065	-0.1317
C	 0.1232875723	-3.0667560106	 1.2846029834	-0.232696
C	 1.220552944	-2.9951587916	 2.2872485081	-0.228005
H	 0.7714200769	 1.9391389282	 0.2530655578	 0.154874
H	-0.0200375104	 1.4684831926	-1.2604445515	 0.11826
H	-0.9626673435	 1.5717944503	 0.2334340059	 0.120134
H	-0.436827209	-0.8584505555	-0.2908273414	 0.097886
H	 1.9108666359	-1.6682889172	-0.3739248654	 0.115525
H	 2.5270417997	 0.0083617291	 0.0326001404	 0.138764
H	 0.9649388293	 0.0962793929	 3.4308186428	 0.087334
H	-0.8052069543	-3.5817337221	 1.5148613705	 0.12275
H	 0.4112844151	-3.1104868418	 0.2366251487	 0.117301
H	 2.2372955893	-2.9579481567	 1.9013068766	 0.120057
H	 1.1132001919	-3.4602097704	 3.2625559616	 0.122013
82.3869	153.464	160.6853	205.8256	221.7038	226.2257	270.4458	314.227	431.3632	445.6672	490.8909	548.6807	716.2521	761.1115	802.7015	853.645	897.8259	898.2785	905.6864	958.474	1023.0383	1033.9334	1054.6931	1075.8022	1091.898	1117.9219	1122.9133	1126.2932	1173.3608	1184.1343	1195.7267	1212.4258	1310.1636	1336.896	1389.6922	1414.6317	1425.5052	1468.3755	1491.9333	1500.2588	1505.2161	1520.822	1806.6125	2910.2364	3036.861	3093.8458	3103.0748	3106.74	3127.4151	3128.0898	3145.6672	3182.1697	3197.8411	3219.2607
CC1CC1(C=O)N1CC1	C[C@H]1C[C@]1(C=O)N1CC1	
InChI=1S/C7H11NO/c1-6-4-7(6,5-9)8-2-3-8/h5-6H,2-4H2,1H3	InChI=1S/C7H11NO/c1-6-4-7(6,5-9)8-2-3-8/h5-6H,2-4H2,1H3/t6-,7+/m0/s1
