15
gdb 132274	2.02879	1.77696	0.95289	4.9521	73.49	-0.2136	-0.043	0.1706	1151.6316	0.11361	-458.154502	-458.146704	-458.14576	-458.187098	29.191	
C	-0.009749604	 1.4999207517	 0.0629877461	-0.49604
C	-0.0032495348	 0.005869467	-0.0470288157	 0.426151
C	-0.0655350555	-0.6800885259	-1.2254576306	-0.390492
C	-0.0467030999	-2.0985880173	-1.1080019878	 0.352028
F	-0.1072335442	-2.7738106903	-2.250226753	-0.064652
N	 0.0217197056	-2.7886132268	-0.0283916472	-0.373969
C	 0.0863219598	-2.1106282693	 1.182561245	 0.420815
N	 0.1586342758	-2.6271551136	 2.3464366936	-0.573668
N	 0.0694656684	-0.6994745241	 1.1065950706	-0.37109
H	 0.9009951414	 1.8558009835	 0.557134092	 0.15386
H	-0.0710667241	 1.959435014	-0.9239849844	 0.151722
H	-0.8632159238	 1.840499426	 0.6595746527	 0.153861
H	-0.1251811096	-0.1893681426	-2.1844780261	 0.118047
H	 0.1622214564	-3.6409988628	 2.2571866561	 0.225849
H	 0.1175234686	-0.2303725197	 1.9995904687	 0.267578
108.8783	128.0679	185.1546	231.2954	291.0196	362.5659	512.1573	524.3795	564.0287	575.6853	629.0948	633.8702	724.4058	757.3814	770.1294	838.1662	930.6741	980.7324	1033.8593	1063.5525	1072.7486	1135.1884	1179.3461	1290.2527	1330.5964	1414.1642	1422.2019	1468.8494	1479.1298	1514.5851	1617.1356	1688.4567	1736.0316	3039.7333	3096.0023	3148.6911	3251.0788	3523.1899	3616.4881
CC1=CC(F)=NC(=N)N1	C[C@@H]1C=C(F)N=C([NH])N1	
InChI=1S/C5H6FN3/c1-3-2-4(6)9-5(7)8-3/h2H,1H3,(H2,7,8,9)	InChI=1S/C5H7FN3/c1-3-2-4(6)9-5(7)8-3/h2-3,7H,1H3,(H,8,9)/t3-/m1/s1
