20
gdb 69829	3.16242	1.52349	1.22943	3.0427	78.07	-0.2383	0.069	0.3073	1073.8049	0.172654	-403.123722	-403.115947	-403.115003	-403.155488	31.493	
C	-0.021574787	 1.5273055796	 0.0588490281	-0.470774
C	-0.0318954513	 0.0177072183	 0.076909157	 0.397278
C	-1.2485017397	-0.6596181142	-0.5379631118	-0.277378
C	-1.086746835	-2.1874568821	-0.6494918285	-0.217507
C	-0.6990394897	-2.8197344215	 0.6808675134	-0.041938
N	 0.7005830706	-3.2688345573	 0.8214122462	-0.321922
C	 0.2454005287	-2.0756476579	 1.5552143282	-0.053658
C	 0.7322346109	-0.7282704662	 1.0986343585	 0.000032
O	 1.2221453842	-0.6100528002	-0.2379538437	-0.27824
H	 0.8819809208	 1.9147549929	 0.5366248737	 0.126004
H	-0.0503739685	 1.9009670269	-0.9708205659	 0.124779
H	-0.8948279687	 1.9292034144	 0.5843202805	 0.118411
H	-2.1266825077	-0.4071895712	 0.0723064649	 0.098299
H	-1.4323834189	-0.2357893278	-1.5329658027	 0.102259
H	-2.0198875386	-2.6242604816	-1.0186677082	 0.09119
H	-0.3046892212	-2.4110660623	-1.378589222	 0.13374
H	-1.4638451317	-3.413249693	 1.1762313694	 0.081026
H	 0.7492270344	-4.057636497	 1.4616279409	 0.229102
H	 0.1216962804	-2.1549699356	 2.6333856837	 0.078169
H	 1.3066386681	-0.1616606841	 1.8331324584	 0.081128
157.7903	186.1633	196.8036	268.9527	335.9166	368.2644	409.1364	465.1464	503.1811	577.4741	684.1732	705.5366	784.9957	798.5867	830.9331	892.2764	902.1362	923.2285	955.6715	985.4988	1010.0798	1030.3709	1048.2323	1093.7904	1111.3745	1120.9048	1166.6269	1197.0763	1225.3457	1236.9662	1253.2307	1276.1232	1333.9379	1359.2128	1376.947	1407.8039	1412.3216	1457.6547	1459.2339	1476.2632	1483.0087	1488.3166	1504.5726	3014.5667	3032.2688	3050.0005	3058.1577	3091.0104	3094.1769	3110.4674	3119.1236	3123.8238	3134.1712	3497.5227
CC12CCC3NC3C1O2	C[C@]12CC[C@H]3N[C@H]3[C@H]1O2	
InChI=1S/C7H11NO/c1-7-3-2-4-5(8-4)6(7)9-7/h4-6,8H,2-3H2,1H3	InChI=1S/C7H11NO/c1-7-3-2-4-5(8-4)6(7)9-7/h4-6,8H,2-3H2,1H3/t4-,5-,6-,7+/m1/s1
