22
gdb 58867	2.5315	1.39007	1.07847	2.6659	81.58	-0.2311	0.0651	0.2962	1220.5233	0.193775	-404.313207	-404.303774	-404.30283	-404.34722	36.402	
C	-0.1061625348	 1.5597591572	 0.2455778037	-0.389976
C	 0.0043952365	 0.0401050814	 0.0237899782	-0.117142
C	 0.8583036689	-0.6275450013	 1.1102447407	-0.408404
C	-1.368946142	-0.5652610089	-0.1151648987	 0.356471
N	-2.3006318894	-0.7656295581	 1.0288597376	-0.399254
C	-1.9508773555	-1.9132406803	 0.1426410502	-0.12463
C	-2.9026924861	-1.8121322535	-1.0463844183	-0.260084
C	-2.336784344	-0.3612491515	-1.3024556335	 0.089852
O	-3.213089602	 0.7275288901	-1.2081921772	-0.438463
H	 0.8807541749	 2.0323969761	 0.2160900612	 0.107795
H	-0.7377640216	 2.0244261139	-0.5165164292	 0.138002
H	-0.5545552542	 1.7760276492	 1.2217788233	 0.115274
H	 0.5096517808	-0.1220225566	-0.9392452176	 0.08131
H	 0.9410568032	-1.7073524735	 0.9513775633	 0.117101
H	 1.8697006392	-0.2097408196	 1.1089645416	 0.119847
H	 0.445470496	-0.4594901117	 2.1120310846	 0.112988
H	-1.7382219815	-0.8468726842	 1.8745617734	 0.228373
H	-1.4869816569	-2.7983725479	 0.5609389231	 0.093443
H	-2.6699534072	-2.5030611816	-1.8601326053	 0.101033
H	-3.9677057426	-1.8649554816	-0.8064357479	 0.103633
H	-1.8221986987	-0.2809435766	-2.26352444	 0.085011
H	-3.535229513	 0.709166829	-0.2957783533	 0.28782
59.5071	123.5787	187.0526	201.1687	239.972	257.4952	292.5714	318.0089	411.5777	439.8362	493.7827	541.4877	596.6699	677.9925	683.2943	824.7378	859.9907	889.8199	916.8135	927.7011	936.6355	963.6794	983.368	1009.3245	1035.2597	1093.1665	1112.5604	1125.1047	1142.2876	1158.8055	1175.8854	1207.6102	1227.1034	1282.1328	1286.5291	1330.3562	1343.8377	1375.1486	1399.0559	1416.1362	1429.0983	1449.5825	1476.0342	1487.3743	1492.8659	1504.1775	1513.7002	2999.8251	3028.4798	3033.6009	3060.863	3080.8162	3092.5177	3099.8913	3107.0009	3117.6764	3121.3848	3187.435	3485.3013	3742.5784
CC(C)C12NC1CC2O	CC(C)[C@]12N[C@H]1C[C@H]2O	
InChI=1S/C7H13NO/c1-4(2)7-5(8-7)3-6(7)9/h4-6,8-9H,3H2,1-2H3	InChI=1S/C7H13NO/c1-4(2)7-5(8-7)3-6(7)9/h4-6,8-9H,3H2,1-2H3/t5-,6+,7-/m0/s1
