20
gdb 98618	4.04888	1.01668	0.93344	1.7595	80.81	-0.2369	-0.0226	0.2144	1343.778	0.170387	-403.120255	-403.111323	-403.110379	-403.154745	33.098	
C	 0.2752897622	 1.6210541935	 0.3625959845	-0.381894
C	 0.4795937928	 0.1206560466	 0.1784476678	-0.283386
C	 0.2184532784	-0.3608079491	-1.2442130261	 0.379834
O	-0.0730198035	 0.4133802617	-2.1339544953	-0.331441
C	 0.3491215437	-1.8427402574	-1.4295578525	-0.096137
C	-0.5344022475	-2.6864310859	-2.2880730922	-0.042179
C	-0.985515652	-2.0019989049	-3.5764539474	-0.244292
C	 0.5209579301	-1.8060485211	-3.8740564533	-0.144783
N	 0.9255584458	-2.5452208125	-2.6146228638	-0.157402
H	 0.9318956945	 2.1872258744	-0.3025566022	 0.133633
H	-0.7520646783	 1.907987722	 0.1235069839	 0.1301
H	 0.4862820494	 1.9161493942	 1.3941419512	 0.110333
H	 1.5038730275	-0.1781940223	 0.4440498121	 0.129575
H	-0.1658262127	-0.4581257683	 0.854546162	 0.123484
H	 0.682782282	-2.3519776266	-0.5285450729	 0.095985
H	-0.9433584721	-3.6088444543	-1.8845034116	 0.09822
H	-1.4742536476	-2.6956360694	-4.2632158869	 0.108018
H	-1.5922027846	-1.1026233796	-3.4681734265	 0.127851
H	 0.8803402577	-2.3844298182	-4.7272764099	 0.109962
H	 0.8856289543	-0.7822250126	-3.9351848408	 0.134518
34.9821	84.6649	162.1808	190.4211	216.9563	284.6446	334.858	348.0815	415.0918	568.1403	680.12	737.9724	758.788	774.3816	787.9625	828.8352	864.1991	941.1358	948.0688	992.1391	1010.747	1029.8777	1049.9085	1072.415	1092.1456	1116.3468	1141.542	1180.6306	1219.786	1238.9113	1268.6496	1277.2285	1292.203	1357.7222	1360.8464	1414.3693	1426.0662	1450.5824	1474.5657	1492.3101	1495.7613	1497.619	1781.2509	3011.9977	3038.2475	3051.9611	3079.148	3085.469	3122.5865	3128.2552	3134.3974	3136.8784	3149.469	3157.815
CCC(=O)C1C2CCN12	CCC(=O)[C@H]1[C@H]2CCN12	
InChI=1S/C7H11NO/c1-2-6(9)7-5-3-4-8(5)7/h5,7H,2-4H2,1H3	InChI=1S/C7H11NO/c1-2-6(9)7-5-3-4-8(5)7/h5,7H,2-4H2,1H3/t5-,7-,8?/m1/s1
