19
gdb 31966	3.11487	1.07475	0.85854	2.614	80.96	-0.1903	0.0253	0.2156	1400.3041	0.159718	-419.243036	-419.23366	-419.232716	-419.278179	33.392	
C	-0.2179832046	 1.5543492962	-0.2113725512	-0.376747
C	 0.0565394354	 0.0473881201	-0.0689448444	-0.287573
C	 0.8303163407	-0.5235618212	-1.2049560857	 0.381746
N	 1.9953089361	-1.0777601551	-1.2093271415	-0.297242
C	 2.2198777329	-1.4511949474	-2.5335577706	-0.225262
C	 1.1504337054	-1.0714231928	-3.282526415	 0.37433
N	 0.8461747734	-1.0779097449	-4.6291827085	-0.39236
C	-0.5149648313	-1.4309632516	-5.0323281778	-0.332899
O	 0.2463162528	-0.4771130447	-2.4514941645	-0.210602
H	 0.7182883078	 2.1184631315	-0.2554532948	 0.128462
H	-0.7819643925	 1.7635642437	-1.1245729968	 0.128816
H	-0.7988685415	 1.920767604	 0.6400938616	 0.115048
H	 0.6337314314	-0.1559418616	 0.8363858554	 0.133253
H	-0.8970823109	-0.487907403	 0.0270841725	 0.115423
H	 3.1209161122	-1.9544968561	-2.843859044	 0.104435
H	 1.5541440743	-1.5691824255	-5.1567708455	 0.245305
H	-0.5959263124	-1.3272006093	-6.1166832657	 0.127787
H	-0.8049104646	-2.4542754188	-4.7501836041	 0.116319
H	-1.2181133746	-0.7355812233	-4.5703784895	 0.15176
48.4807	72.4602	127.067	153.1419	173.8925	222.6618	315.591	328.203	421.9695	468.7566	597.4106	646.2558	699.3351	720.35	757.9032	774.7628	794.2442	956.9783	979.2766	990.7994	1058.7106	1075.7745	1089.4338	1138.4685	1149.7487	1159.9685	1239.4117	1288.9651	1297.1698	1357.1136	1375.5588	1408.4821	1451.4382	1471.5813	1481.26	1491.5714	1498.0265	1507.0056	1516.2544	1638.1957	1662.8448	2991.4689	3026.1693	3043.1234	3097.564	3101.7202	3115.478	3125.5954	3140.1376	3265.3843	3594.8122
CCC1=NC=C(NC)O1	CCc1ncc(NC)o1	
InChI=1S/C6H10N2O/c1-3-5-8-4-6(7-2)9-5/h4,7H,3H2,1-2H3	InChI=1S/C6H10N2O/c1-3-5-8-4-6(7-2)9-5/h4,7H,3H2,1-2H3
