19
gdb 108213	3.10618	1.50759	1.31621	3.189	69.57	-0.2586	0.0753	0.3339	1028.257	0.161259	-460.172054	-460.164428	-460.163484	-460.204043	30.29	
O	-0.0393446143	 1.4036305221	 0.0604430706	-0.417836
C	-0.0155411547	 0.0057873591	-0.0926755433	-0.13421
C	-1.405232898	-0.5971904996	-0.0709427446	 0.447917
C	-1.546780587	-2.1328453765	-0.043690511	-0.262214
C	-3.0251236019	-2.2848649505	-0.5139312257	-0.22581
C	-3.4194890781	-0.8014064161	-0.6893808411	 0.036479
C	-3.5052981453	-0.1301970946	 0.6945359426	-0.091231
O	-2.1187074129	-0.0703986343	 1.0695524694	-0.326178
O	-2.2031908802	-0.2145066265	-1.1753942726	-0.274774
H	-0.7094184007	 1.5785424482	 0.7334630281	 0.289998
H	 0.4524479131	-0.2213609039	-1.0556513877	 0.119422
H	 0.5775416464	-0.4862161772	 0.6958653326	 0.092778
H	-0.8449300878	-2.6032896274	-0.7375469747	 0.109419
H	-1.3658096821	-2.5267951459	 0.957612123	 0.114099
H	-3.0924006788	-2.8119405021	-1.4677459791	 0.112123
H	-3.6576896065	-2.805051453	 0.2094875881	 0.105482
H	-4.2439591498	-0.5914933694	-1.3689759233	 0.090237
H	-3.9197817654	 0.8826281244	 0.6393499069	 0.109308
H	-4.0703180561	-0.7150099069	 1.4282747418	 0.10499
105.6396	153.9063	216.2083	289.9988	369.7128	379.3461	422.9256	439.5864	582.0878	648.1516	689.9884	773.5838	833.7345	842.5938	854.8353	865.8879	942.8803	952.8981	994.8775	1013.8613	1022.6481	1052.5416	1085.0021	1102.0179	1126.3043	1164.5651	1190.8581	1211.6825	1236.6986	1260.8407	1293.9813	1315.2912	1323.4742	1351.7963	1372.2534	1382.9737	1457.8398	1478.7342	1494.6761	1499.6617	1523.3701	2973.1518	3031.9434	3064.799	3073.1902	3079.1089	3083.5625	3112.2808	3130.9658	3139.0922	3776.6869
OCC12CCC(CO1)O2	OC[C@@]12CC[C@@H](CO1)O2	
InChI=1S/C6H10O3/c7-4-6-2-1-5(9-6)3-8-6/h5,7H,1-4H2	InChI=1S/C6H10O3/c7-4-6-2-1-5(9-6)3-8-6/h5,7H,1-4H2/t5-,6-/m0/s1
