18
gdb 105662	1.94498	1.43773	1.21051	2.2377	74.37	-0.2407	0.0241	0.2648	1144.8456	0.146229	-439.011077	-439.001703	-439.000759	-439.045264	35.045	
O	 0.020859848	 1.2591214492	-0.4949371846	-0.419204
C	-0.030920592	-0.0640276841	-0.0280308142	-0.057425
C	-1.4964727324	-0.5140427441	 0.145180397	 0.03333
N	-2.200471191	-0.2745907588	-1.1715303712	-0.368476
C	-2.2482498887	-1.7413081398	-1.4526132836	-0.21417
C	-1.7504704834	-2.0637664441	-0.0228069053	 0.079424
O	-0.7153139838	-2.9790389844	 0.1798310996	-0.419292
C	-2.1276202637	 0.1108678447	 1.2908822706	 0.289343
C	-2.6805861091	 0.6016982189	 2.2397004959	-0.44613
H	-0.6216610173	 1.2858297819	-1.2204950265	 0.285924
H	 0.4733094157	-0.7511088171	-0.7309573199	 0.053226
H	 0.501806729	-0.1121169694	 0.9249576624	 0.12508
H	-3.1279313607	 0.1039292051	-1.0138263205	 0.235174
H	-3.2307823117	-2.1339580332	-1.7274944178	 0.117401
H	-1.5346075908	-2.0229302116	-2.236690532	 0.10628
H	-2.5636545025	-2.3799541799	 0.6332342748	 0.11107
H	-0.0143730421	-2.8039964866	-0.4570143599	 0.287951
H	-3.1536259835	 1.0463180033	 3.0803220551	 0.200495
71.9771	103.2533	149.9866	174.7205	190.522	293.0896	332.6637	374.3882	419.3808	483.2033	526.9631	560.9393	597.096	620.9677	651.6184	658.042	737.1866	834.393	916.8342	939.5654	967.3874	1010.3931	1034.4075	1084.7762	1108.6423	1141.4252	1168.8255	1192.6842	1245.3019	1277.2336	1286.6153	1327.8234	1382.1098	1392.6451	1439.5409	1447.3877	1497.2572	1507.2831	2228.8613	2934.6761	3026.6564	3086.6745	3099.1097	3104.4972	3500.0856	3541.2927	3706.806	3809.8224
OCC1(NCC1O)C#C	OC[C@]1(NC[C@H]1O)C#C	
InChI=1S/C6H9NO2/c1-2-6(4-8)5(9)3-7-6/h1,5,7-9H,3-4H2	InChI=1S/C6H9NO2/c1-2-6(4-8)5(9)3-7-6/h1,5,7-9H,3-4H2/t5-,6-/m1/s1
