18
gdb 57935	3.25845	0.97801	0.77157	4.283	71.1	-0.2444	0.0038	0.2481	1446.2076	0.147316	-472.455368	-472.445474	-472.44453	-472.490699	36.068	
C	 0.0212382378	 1.5469973378	 0.6512747431	-0.398177
C	-0.1333090541	 0.1941632829	-0.027442634	 0.057627
O	 0.6661259016	-0.821934228	 0.5933337937	-0.437188
C	-1.6008427747	-0.2457544368	-0.134968432	 0.332187
N	-2.5320293832	 0.6128280613	-0.19213398	-0.515792
N	-1.7085178823	-1.641882522	-0.2065692771	-0.396834
C	-2.8826585192	-2.3636343309	-0.3457241083	 0.475239
N	-2.6855857509	-3.7328285834	-0.3420644672	-0.563925
O	-3.9881259029	-1.860785735	-0.4238730083	-0.37823
H	 1.0694959274	 1.8563058136	 0.6362605307	 0.117604
H	-0.5931984855	 2.2921587398	 0.1451199213	 0.159574
H	-0.3218715536	 1.4968734866	 1.6913028663	 0.114699
H	 0.2574661309	 0.2513877896	-1.0515999863	 0.118263
H	 0.5477938632	-0.7389848607	 1.5468137204	 0.287367
H	-3.4346526515	 0.1473338	-0.302374782	 0.25104
H	-0.8418341316	-2.1237852584	-0.0088950779	 0.254532
H	-1.807663194	-4.1017717463	-0.6732282418	 0.254842
H	-3.5008362075	-4.25192537	-0.6297368105	 0.267171
48.2713	81.7095	104.3388	163.9729	224.7132	292.297	312.8879	362.7885	390.5072	406.6402	419.131	480.4778	518.9771	541.9213	631.9425	671.2318	737.5652	781.3374	861.9106	924.8569	965.1632	972.4897	1047.5109	1094.3525	1107.5844	1125.2921	1149.9118	1277.5979	1295.8232	1335.3302	1391.2039	1401.0636	1413.7668	1484.7473	1490.5558	1520.6732	1627.2569	1730.347	1808.2896	3031.0856	3041.0713	3112.2034	3155.8645	3471.3579	3577.2917	3585.7225	3699.3756	3793.7556
CC(O)C(=N)NC(N)=O	C[C@@H](O)C(=N)NC(=O)N	
InChI=1S/C4H9N3O2/c1-2(8)3(5)7-4(6)9/h2,8H,1H3,(H4,5,6,7,9)	InChI=1S/C4H9N3O2/c1-2(8)3(5)7-4(6)9/h2,8H,1H3,(H4,5,6,7,9)/t2-/m1/s1
