15
gdb 44882	3.0247	1.56354	1.38375	3.1609	65.07	-0.2394	-0.0271	0.2122	951.4838	0.112389	-457.719254	-457.712366	-457.711421	-457.750637	26.933	
O	 0.0425197224	 0.0683398098	 0.0602845537	-0.315833
C	 0.0195817136	 1.2644018871	 0.0479295342	 0.460422
C	-1.1857759598	 2.2378414961	 0.0849054734	-0.347038
C	-0.3602298317	 3.5355045339	 0.0262270755	-0.034245
O	 0.6316048264	 3.2112259845	-1.0078355747	-0.296743
C	 1.1844090381	 2.2736265199	-0.0238426714	-0.157875
C	 0.7560439278	 3.2901779774	 1.0475023094	 0.486039
C	 1.5145819206	 4.1708349145	 1.9175442004	-0.287655
O	 0.6540310802	 3.1232832637	 2.4321797153	-0.270685
H	-1.8341449663	 2.1163577483	-0.7857734977	 0.141086
H	-1.7722781176	 2.1074964463	 0.9985186356	 0.144184
H	-0.8607606192	 4.4918021795	-0.114938532	 0.102305
H	 2.1962778585	 1.9239736643	-0.2113853191	 0.109266
H	 2.5796442462	 4.0052354801	 2.0652586052	 0.134544
H	 1.1646924706	 5.1848542047	 2.1011215521	 0.132229
107.8611	178.3322	255.438	338.4776	412.6674	448.3781	529.867	579.5944	651.4525	661.7181	800.8368	830.2475	839.4194	891.1481	906.0183	944.2538	952.6652	976.2253	1016.3343	1111.2081	1112.6999	1133.0359	1162.3762	1164.1225	1176.1041	1206.0867	1232.3855	1269.4524	1294.2965	1445.0337	1466.3907	1554.0817	1889.8769	3073.0167	3096.0333	3128.2843	3140.7975	3169.5269	3187.1275
O=C1CC2OC1C21CO1	O=C1C[C@@H]2O[C@H]1[C@]12CO1	
InChI=1S/C6H6O3/c7-3-1-4-6(2-8-6)5(3)9-4/h4-5H,1-2H2	InChI=1S/C6H6O3/c7-3-1-4-6(2-8-6)5(3)9-4/h4-5H,1-2H2/t4-,5+,6+/m0/s1
