23
gdb 15829	3.10758	1.23972	0.94127	0.9836	82.8	-0.2293	0.0895	0.3187	1323.5289	0.21078	-330.306225	-330.296551	-330.295607	-330.340655	35.633	
C	 0.0521213405	 1.5252440006	 0.0548159426	-0.379421
C	 0.0296651327	-0.0051270654	-0.0081751227	-0.176304
C	-1.3957334449	-0.568032168	-0.0273566979	-0.152182
C	-1.5140404491	-2.0991955299	 0.0014102789	 0.050992
C	-2.9820173332	-2.5250001901	 0.0908447297	-0.390071
N	-0.9274439816	-2.6782311015	-1.2124585947	-0.059962
C	 0.4755985425	-3.0756860605	-1.1624543545	-0.218411
C	-0.6021508525	-4.0998836351	-1.1634573401	-0.226413
H	 1.0765298021	 1.9108082096	 0.0637980694	 0.108717
H	-0.460420802	 1.9632982668	-0.8089844371	 0.114777
H	-0.4506131877	 1.8929756864	 0.9565466604	 0.111048
H	 0.5701630742	-0.3384370527	-0.9004613794	 0.109995
H	 0.5735004303	-0.4131440327	 0.8546696711	 0.086847
H	-1.94413055	-0.1730859204	 0.8385805862	 0.085601
H	-1.9192065039	-0.2025111368	-0.9205111576	 0.099617
H	-0.9857481945	-2.4755991715	 0.9002152872	 0.048581
H	-3.5344405331	-2.1708074417	-0.7852010646	 0.123109
H	-3.0764131349	-3.6142054595	 0.1314232033	 0.110959
H	-3.4514108444	-2.1102226372	 0.9879855737	 0.109916
H	 1.0581964653	-2.8801137826	-2.0586131603	 0.113473
H	 1.0165415356	-2.9316939699	-0.2285644538	 0.109349
H	-0.7739543937	-4.6331103814	-0.229064919	 0.106407
H	-0.8272859276	-4.6715010163	-2.0594253307	 0.113375
83.7512	91.4408	118.1639	174.8571	219.7994	236.7789	250.9233	299.5663	336.4034	357.8829	495.3963	532.0126	706.8191	757.0903	824.731	875.2089	881.4162	907.5998	933.5223	986.735	1011.8902	1022.2	1047.2586	1071.9936	1109.3733	1117.5949	1120.8386	1142.5968	1174.3976	1184.8439	1206.7052	1274.7198	1301.4476	1316.3412	1333.8191	1361.7024	1382.2517	1399.2451	1409.5553	1414.0165	1472.4748	1488.7359	1490.5039	1492.8504	1499.9522	1501.8113	1509.8276	1517.84	2898.0391	3011.0343	3017.9106	3028.046	3038.4593	3049.4583	3070.8833	3088.518	3095.135	3097.3764	3100.1028	3110.0082	3112.9004	3171.1071	3185.8216
CCCC(C)N1CC1	CCC[C@@H](C)N1CC1	
InChI=1S/C7H15N/c1-3-4-7(2)8-5-6-8/h7H,3-6H2,1-2H3	InChI=1S/C7H15N/c1-3-4-7(2)8-5-6-8/h7H,3-6H2,1-2H3/t7-/m1/s1
