21
gdb 68893	2.28023	1.75848	1.27629	1.2872	84.08	-0.2278	0.0235	0.2514	1085.6687	0.182773	-387.094127	-387.085406	-387.084462	-387.126785	34.823	
C	 0.0231416918	 1.5278800458	-0.0110031847	-0.457779
C	 0.0137451635	 0.0094301058	 0.0288019132	 0.268598
C	 1.3460184321	-0.7101783436	-0.1972703874	-0.397259
C	 0.686839862	-0.714849146	 1.1647417847	 0.356784
O	 1.2361275327	 0.1112355071	 2.1614018784	-0.471034
C	 0.0337580344	-2.0009841066	 1.6801999896	-0.270008
C	-1.5023973364	-1.9550569344	 1.5882618193	-0.259324
C	-1.9424326229	-1.4993694574	 0.2173502762	-0.072955
C	-1.2321010669	-0.6218768561	-0.4916075548	-0.114071
H	 0.9371530593	 1.9274068049	 0.4311956778	 0.127557
H	-0.0507982516	 1.8840317369	-1.0450734072	 0.108733
H	-0.8264922604	 1.9383969123	 0.5448626139	 0.119152
H	 1.3514264785	-1.629631093	-0.7740425303	 0.106086
H	 2.2208162553	-0.0792240945	-0.3219586049	 0.104635
H	 2.0500429293	-0.3027986633	 2.4685438227	 0.278858
H	 0.3938405073	-2.8606945814	 1.1043176466	 0.099016
H	 0.3485464484	-2.1516638394	 2.7182060322	 0.092694
H	-1.9226368969	-2.9403214068	 1.8176794068	 0.096939
H	-1.8986090855	-1.2714431597	 2.3527912107	 0.116833
H	-2.8639618534	-1.9089570383	-0.1877012934	 0.085449
H	-1.5652074205	-0.3076772122	-1.4790582494	 0.081094
119.1083	153.455	181.0551	253.5719	272.1927	301.0671	400.0939	405.9735	439.186	467.2603	521.428	533.0269	659.2283	681.9311	731.9306	789.4801	874.4685	900.632	914.9982	940.5152	953.8376	977.4799	995.6402	1030.4914	1031.4114	1047.0739	1104.696	1138.3636	1173.7264	1193.2967	1230.4936	1250.2135	1288.2458	1305.8906	1350.4935	1376.967	1406.3548	1408.4552	1419.5288	1468.7858	1482.9149	1485.1493	1488.5928	1504.6222	1710.5994	3006.821	3030.7987	3033.3681	3061.3968	3080.992	3088.7088	3117.6567	3135.1354	3136.8285	3166.6982	3211.2344	3794.7271
CC12CC1(O)CCC=C2	C[C@@]12C[C@]1(O)CCC=C2	
InChI=1S/C8H12O/c1-7-4-2-3-5-8(7,9)6-7/h2,4,9H,3,5-6H2,1H3	InChI=1S/C8H12O/c1-7-4-2-3-5-8(7,9)6-7/h2,4,9H,3,5-6H2,1H3/t7-,8-/m1/s1
