16
gdb 66709	2.90138	1.7017	1.28871	1.9648	80.32	-0.2147	0.0168	0.2315	994.8733	0.122244	-363.462265	-363.454583	-363.453639	-363.494094	30.311	
C	-0.0230096786	 1.4906476211	 0.0497330333	-0.524308
C	 0.0959493987	 0.0096130945	-0.0302650267	 0.286262
C	 0.2793251071	-0.9898053939	-1.2056471291	-0.171128
C	-0.6253015704	-1.9300720055	-0.4551864188	-0.01003
C	 0.8556658482	-2.0154695077	-0.2223558244	-0.186566
C	 0.6795252264	-0.9894510296	 0.9316229753	 0.299226
C	 1.2871703708	-0.8416881631	 2.1987227429	 0.030829
C	 1.8385550089	-0.7143275532	 3.2616891784	-0.372155
N	-0.8313269851	-0.9328246557	 0.6837507867	-0.252081
H	 0.8950281788	 1.9785643241	-0.2949835444	 0.128296
H	-0.856089565	 1.8493757701	-0.5646741733	 0.130828
H	-0.2063910201	 1.7909515531	 1.0855861198	 0.144896
H	 0.4770557527	-0.8704154109	-2.2611589181	 0.101757
H	-1.3597240997	-2.6588590847	-0.7720698871	 0.105609
H	 1.566192328	-2.8107679203	-0.3924975649	 0.106231
H	 2.3124733194	-0.6046523183	 4.2054467604	 0.182334
117.6504	157.547	201.8881	263.016	285.3172	461.5845	484.018	544.2859	579.0015	622.7571	673.5182	703.8455	744.5445	754.5767	784.7578	815.7525	856.6209	875.2592	924.1744	989.2162	996.8155	1009.1783	1029.4216	1066.5973	1087.5274	1155.1876	1174.9504	1230.7968	1308.4922	1341.9471	1395.8761	1440.1235	1475.7025	1488.5129	2227.99	3031.123	3096.1783	3115.5774	3195.609	3217.5204	3231.9558	3502.4231
CC12C3C4C3C1(C#C)N24	C[C@@]12[C@@H]3[C@H]4[C@@H]3[C@]1(C#C)N24	
InChI=1S/C8H7N/c1-3-8-5-4-6(5)9(8)7(4,8)2/h1,4-6H,2H3	InChI=1S/C8H7N/c1-3-8-5-4-6(5)9(8)7(4,8)2/h1,4-6H,2H3/t4-,5+,6-,7+,8-,9?/m0/s1
