19
gdb 115026	2.08202	1.49968	0.9473	4.4734	81.69	-0.2272	-0.0032	0.224	1260.9989	0.159438	-382.079788	-382.070874	-382.06993	-382.113873	32.65	
C	 0.0111875935	 1.4934402914	-0.2316848026	-0.390619
C	 0.0299502919	 0.0262981563	 0.1928282329	-0.127969
N	-1.3039750576	-0.5515110876	 0.2438393536	-0.062301
C	-2.2324240505	 0.0022402909	 1.2355776955	-0.210354
C	-3.1236626048	-1.1610342868	 1.5667169401	-0.07855
C	-2.6469982273	-2.2884348137	 1.0543958159	-0.078805
C	-1.3519408708	-2.0129994793	 0.3181924591	-0.153702
C	-1.2983327164	-2.6252122114	-1.0252634181	 0.292092
N	-1.2397282906	-3.1196340683	-2.0679312605	-0.331265
H	 1.0324402141	 1.8783774031	-0.3060161759	 0.118684
H	-0.4756975203	 1.603811339	-1.2047475035	 0.133251
H	-0.5249356466	 2.1164258782	 0.4911476783	 0.120138
H	 0.6101571986	-0.5497799677	-0.5366545248	 0.118796
H	 0.5509070816	-0.0738615925	 1.1659667187	 0.078847
H	-1.712630731	 0.3634379308	 2.144553573	 0.097506
H	-2.7866881711	 0.8591939839	 0.8303561147	 0.12102
H	-4.0187183196	-1.0618871955	 2.1677120351	 0.116174
H	-3.0609317423	-3.283874569	 1.1386795024	 0.12652
H	-0.5012368108	-2.4404281117	 0.8861159761	 0.110538
75.7887	82.4336	154.8188	165.4902	230.4036	258.4252	345.114	392.2146	406.261	516.3889	564.8116	620.488	719.5102	794.4047	812.2621	861.567	936.4989	961.1107	963.8872	978.1551	1037.4432	1052.1289	1086.4877	1124.6183	1136.4257	1189.8464	1207.8948	1224.1703	1279.3484	1320.0564	1342.6212	1350.2425	1388.4172	1402.6397	1422.2959	1490.399	1493.0782	1509.3506	1520.1089	1697.334	2357.1431	2891.0439	2904.586	2911.9638	3019.0921	3042.3895	3057.2187	3111.239	3122.0526	3212.7271	3240.615
CCN1CC=CC1C#N	CCN1CC=C[C@H]1C#N	
InChI=1S/C7H10N2/c1-2-9-5-3-4-7(9)6-8/h3-4,7H,2,5H2,1H3	InChI=1S/C7H10N2/c1-2-9-5-3-4-7(9)6-8/h3-4,7H,2,5H2,1H3/t7-/m0/s1
