23
gdb 122204	3.41166	0.72941	0.69087	1.9935	82.23	-0.2525	0.0743	0.3268	1732.7174	0.204199	-425.412515	-425.402074	-425.401129	-425.448454	38.5	
O	 0.0854331341	 1.3223407109	-0.2109785981	-0.422085
C	 0.0559773829	-0.0960557433	-0.1618402009	-0.074862
C	-1.3946606707	-0.5288280566	 0.0064691289	-0.194497
C	-1.5535352995	-2.0497309035	 0.1037440977	-0.235732
C	-3.00902956	-2.5245155875	 0.202123404	 0.42093
O	-3.6558424496	-1.9910926237	 1.3435098729	-0.48472
C	-3.7976224995	-2.4463959212	-1.1471700754	-0.277168
C	-3.5270069702	-3.9614275105	-1.3536205824	-0.211586
C	-3.147583185	-4.0662559766	 0.1482310587	-0.257853
H	 1.0006778493	 1.601715074	-0.3047591789	 0.285753
H	 0.469538398	-0.5362153006	-1.0842789446	 0.084719
H	 0.6572308156	-0.4796187752	 0.6787193374	 0.086808
H	-1.7800686633	-0.0449633654	 0.912713753	 0.101693
H	-1.971727339	-0.1316358605	-0.8377137793	 0.109512
H	-1.087429917	-2.5240302928	-0.7701525138	 0.093509
H	-1.01756817	-2.4199545502	 0.9873567427	 0.100651
H	-3.6546899283	-1.030555199	 1.2731117264	 0.276665
H	-4.8532688637	-2.2433731092	-0.9500492317	 0.103969
H	-3.4372502086	-1.7547921112	-1.9136860266	 0.090514
H	-4.364849436	-4.5714849319	-1.6962437101	 0.100184
H	-2.6759887986	-4.1470424275	-2.0142509357	 0.101152
H	-2.266810676	-4.6553079546	 0.4176236117	 0.091355
H	-3.9916549947	-4.3823524138	 0.7654476138	 0.111091
63.834	76.8235	106.4636	142.5894	163.3736	259.4199	262.3471	277.1612	299.8124	341.3351	419.6628	466.2314	502.3775	644.3229	728.7244	765.7699	791.2578	860.3343	867.8758	918.2941	935.389	976.6956	982.23	1024.3568	1033.3488	1045.814	1074.4768	1090.9116	1175.7224	1195.2671	1199.1375	1225.6428	1230.8712	1249.8529	1264.9278	1278.4718	1290.1126	1303.2299	1318.5455	1332.5776	1349.9515	1400.6834	1462.5341	1467.8968	1477.7491	1483.432	1500.0986	1505.5959	1528.6802	2959.198	2984.8393	3013.8162	3025.0857	3047.9041	3055.0271	3058.8675	3066.8353	3073.7926	3103.4001	3115.5066	3127.6751	3808.2084	3830.5127
OCCCC1(O)CCC1	OCCCC1(O)CCC1	
InChI=1S/C7H14O2/c8-6-2-5-7(9)3-1-4-7/h8-9H,1-6H2	InChI=1S/C7H14O2/c8-6-2-5-7(9)3-1-4-7/h8-9H,1-6H2
