17
gdb 90214	3.01588	1.74444	1.54951	2.5924	71.99	-0.2179	0.0362	0.254	909.5527	0.134978	-421.656512	-421.649405	-421.648461	-421.687705	28.974	
O	 0.4061379021	 1.1421292102	-0.4790454268	-0.41404
C	 0.0522972808	-0.1353733397	-0.0311005423	 0.052558
C	 0.1555666604	-0.4096762049	 1.5266140572	-0.366819
C	-1.3938779303	-0.3884648128	 1.626527841	 0.172727
C	-2.3735151017	 0.8065952814	 1.634156926	-0.316154
C	-2.9150865862	-0.067879739	 0.4787845741	-0.149589
C	-2.4848699298	-1.4123615303	 1.2126976042	 0.052864
O	-1.7426380107	-1.9514962756	 0.090227767	-0.343327
C	-1.4711364014	-0.5068704004	 0.078557176	 0.292135
H	 0.0363532842	 1.799003325	 0.119435003	 0.288132
H	 0.5858287512	-0.8479028635	-0.6643532054	 0.119306
H	 0.6069429273	-1.3753010873	 1.7599795678	 0.133041
H	 0.6731131435	 0.3692796763	 2.0933364851	 0.112086
H	-3.0120225069	 0.9293077684	 2.5139413984	 0.10414
H	-1.9714594154	 1.7817752822	 1.3378161198	 0.088082
H	-3.7940011111	 0.0815294959	-0.1543321436	 0.084497
H	-3.1044328361	-2.1002208161	 1.7968523685	 0.090361
116.0385	209.8692	288.257	334.08	378.5796	416.284	482.4005	532.8135	619.1844	727.9171	743.0364	758.8364	812.3089	828.097	861.0521	907.1792	914.5215	944.6537	998.7197	1013.8391	1042.2244	1066.307	1096.859	1123.3426	1147.7117	1158.3416	1170.4825	1210.9334	1225.9945	1238.4271	1251.3783	1272.5842	1291.823	1308.0766	1418.482	1446.7256	1517.7746	3035.0291	3058.399	3066.702	3081.7014	3087.457	3092.3351	3133.433	3818.4605
OC1CC23CC4C2OC134	O[C@H]1C[C@]23C[C@@H]4[C@H]2O[C@]134	
InChI=1S/C7H8O2/c8-4-2-6-1-3-5(6)9-7(3,4)6/h3-5,8H,1-2H2	InChI=1S/C7H8O2/c8-4-2-6-1-3-5(6)9-7(3,4)6/h3-5,8H,1-2H2/t3-,4+,5-,6-,7-/m1/s1
