18
gdb 9827	3.847	1.42905	1.15549	2.2916	68.99	-0.237	-0.0111	0.226	1076.0795	0.151111	-384.950336	-384.941381	-384.940436	-384.984102	32.692	
C	-0.0006256798	 1.4950116523	 0.0896612597	-0.378451
C	 0.0836723098	-0.0250998108	-0.0126891729	-0.284473
C	 0.6772802007	-0.5025060428	-1.3280781956	 0.318649
O	 0.9954756406	 0.2639876686	-2.2144508469	-0.331486
C	 0.8691475807	-1.9856775687	-1.4911399268	 0.279743
O	 0.4835857406	-2.8023951938	-0.4204165679	-0.456139
C	 0.7905005105	-2.5441774856	-2.9021023621	-0.30299
C	 2.1201730453	-2.4245029346	-2.2229020957	-0.268587
H	 0.9919912289	 1.9463057629	 0.0127439003	 0.130475
H	-0.6062378024	 1.9089270561	-0.7204644629	 0.129972
H	-0.4436549814	 1.7935831913	 1.0438489644	 0.107758
H	 0.6744110826	-0.4620647317	 0.8018798419	 0.136765
H	-0.9089357935	-0.4854553507	 0.0959623587	 0.108433
H	-0.4654302645	-2.9555586112	-0.4809850207	 0.286331
H	 0.3565945795	-3.5335116182	-2.9953054468	 0.116937
H	 0.5545423743	-1.8363792738	-3.687879597	 0.139417
H	 2.789659632	-1.6382730195	-2.5500390602	 0.139003
H	 2.5816392261	-3.32827558	-1.8433174696	 0.128642
53.2683	80.2846	182.6779	192.4822	259.2338	298.9227	316.5187	321.0714	408.0875	453.1663	554.2734	581.5985	725.8377	783.5201	799.2306	852.276	874.6702	947.2024	984.211	1007.199	1037.2226	1067.8672	1082.2569	1096.0384	1122.6137	1205.411	1264.0164	1269.7193	1301.5244	1349.2946	1379.9008	1413.8494	1436.5532	1440.658	1471.6482	1492.4757	1497.6043	1783.1348	3016.2333	3050.4319	3057.3688	3121.3429	3126.2126	3138.6773	3147.181	3234.3771	3250.0845	3800.5785
CCC(=O)C1(O)CC1	CCC(=O)C1(O)CC1	
InChI=1S/C6H10O2/c1-2-5(7)6(8)3-4-6/h8H,2-4H2,1H3	InChI=1S/C6H10O2/c1-2-5(7)6(8)3-4-6/h8H,2-4H2,1H3
