21
gdb 46052	4.10171	0.91111	0.78535	2.9362	82.77	-0.2333	-0.0117	0.2216	1469.5035	0.183082	-387.116508	-387.107911	-387.106967	-387.150348	33.027	
O	-0.168531707	-0.0114267281	-0.1939580081	-0.313312
C	-0.0885350423	 1.1777412422	-0.0260084687	 0.397958
C	-1.2646907528	 2.1294923004	 0.2320641333	-0.321711
C	-0.6665672374	 3.5378622266	 0.1104117677	-0.227594
C	 0.8083312138	 3.3731302151	 0.5578049105	 0.011463
C	 1.2011603743	 2.0042467869	-0.0288973218	-0.329546
C	 1.7087834996	 4.5166368926	 0.1565609254	 0.027329
C	 1.8013452664	 5.7595764806	 1.0064092305	-0.276714
C	 2.9732787292	 4.8127201248	 0.9239413778	-0.276022
H	-2.0977555395	 1.9134156353	-0.4411453131	 0.126714
H	-1.6214888392	 1.9347310854	 1.2523255893	 0.129676
H	-0.6908007449	 3.8681423825	-0.9359495178	 0.101639
H	-1.1971696945	 4.290973735	 0.6980763288	 0.104586
H	 0.8219576829	 3.2926504915	 1.6545369466	 0.069661
H	 2.0089178612	 1.4860449462	 0.492630395	 0.126075
H	 1.5157219383	 2.1143595975	-1.0769711468	 0.125414
H	 1.7615485258	 4.6748025582	-0.9192094859	 0.078254
H	 1.8782717659	 6.721198394	 0.5114333562	 0.112502
H	 1.2355624144	 5.783049852	 1.9324080062	 0.109995
H	 3.1915672053	 4.2022929818	 1.794364045	 0.110821
H	 3.8523406404	 5.1256864297	 0.37175696	 0.112811
64.3673	90.464	140.5136	162.0063	282.8675	360.5176	404.6928	459.8506	502.2803	557.7238	578.0626	723.8945	778.1781	811.0232	828.4322	849.277	900.212	909.0251	927.6105	949.8288	991.2353	1004.1918	1057.9403	1078.719	1092.4179	1105.3704	1136.9721	1159.0538	1162.5866	1198.6542	1224.0751	1228.6539	1243.493	1259.5401	1294.656	1304.7846	1332.891	1350.0572	1431.1444	1447.8629	1452.1938	1470.4023	1498.5443	1507.4403	1846.6902	2997.3534	3018.977	3029.6143	3034.8897	3096.8934	3106.437	3108.7923	3120.2715	3128.4759	3133.6767	3206.5001	3221.5201
O=C1CCC(C1)C1CC1	O=C1CC[C@@H](C1)C1CC1	
InChI=1S/C8H12O/c9-8-4-3-7(5-8)6-1-2-6/h6-7H,1-5H2	InChI=1S/C8H12O/c9-8-4-3-7(5-8)6-1-2-6/h6-7H,1-5H2/t7-/m0/s1
