25
gdb 101811	3.75101	0.64388	0.57518	2.2106	86.93	-0.2471	0.0764	0.3235	2012.5273	0.225212	-426.626092	-426.614056	-426.613112	-426.66443	42.557	
C	-0.2060963268	 1.5344518652	 0.2081832524	-0.388192
C	-0.0482920802	 0.0336642495	-0.0115886732	 0.162604
C	 0.857545742	-0.6089927779	 1.0440543265	-0.392672
O	-1.3613490031	-0.5145574284	 0.0078604744	-0.261121
C	-1.4895909282	-1.8094151836	-0.5394837897	-0.068329
C	-2.9769964764	-2.1523491457	-0.6372839455	 0.02099
C	-3.7237580495	-1.1911591509	-1.5681740655	-0.386745
C	-3.1513075228	-3.6083066228	-1.0690259198	-0.079079
O	-4.5335005186	-3.9286965199	-1.0039454729	-0.422592
H	 0.7655164864	 2.036066457	 0.1728119291	 0.110216
H	-0.8521617287	 1.9670151131	-0.5601859875	 0.120242
H	-0.6601862936	 1.727938123	 1.185306473	 0.122517
H	 0.3918088434	-0.1386745718	-1.0092104923	 0.061183
H	 0.4323716722	-0.4665543623	 2.0429523774	 0.12145
H	 0.9831676935	-1.6820974027	 0.8741789298	 0.115176
H	 1.8520998674	-0.1519939513	 1.0230099202	 0.112952
H	-1.0245665798	-1.8450261347	-1.5413751672	 0.0778
H	-0.9734453344	-2.556569585	 0.0848646583	 0.081728
H	-3.3982453758	-2.0631076159	 0.3725838949	 0.091949
H	-3.3257581542	-1.2541893291	-2.589196778	 0.098869
H	-4.7859674989	-1.4413719906	-1.6049137818	 0.128192
H	-3.6092918761	-0.1610122429	-1.2248256551	 0.124689
H	-2.7625478863	-3.7403461206	-2.0931113056	 0.081204
H	-2.564312641	-4.2665804836	-0.4076529315	 0.081093
H	-4.6510123206	-4.8220987879	-1.3385845304	 0.285877
32.2454	54.4258	94.3239	116.3285	146.0336	204.1631	225.334	238.9451	245.2929	264.3504	271.1887	314.674	399.5794	422.0599	439.5023	511.0863	550.4012	822.988	857.1085	921.8191	923.8625	935.5676	941.0457	950.4903	963.2192	1068.4776	1107.4351	1120.5896	1153.1189	1165.7314	1173.6336	1182.3911	1199.2997	1245.5495	1264.5841	1285.352	1317.8513	1363.7145	1371.2942	1384.6205	1397.1165	1398.6024	1413.6821	1437.6562	1461.5723	1479.8191	1485.252	1495.0265	1498.4511	1500.3348	1508.5987	1518.4977	1527.4117	2937.9096	2950.7159	2953.9435	2973.7694	2983.864	3026.6195	3036.1881	3038.3915	3042.3209	3106.8511	3108.3242	3111.9561	3115.9807	3121.9178	3140.7281	3835.4664
CC(C)OCC(C)CO	CC(C)OC[C@@H](C)CO	
InChI=1S/C7H16O2/c1-6(2)9-5-7(3)4-8/h6-8H,4-5H2,1-3H3	InChI=1S/C7H16O2/c1-6(2)9-5-7(3)4-8/h6-8H,4-5H2,1-3H3/t7-/m0/s1
