17
gdb 37417	3.68662	1.83726	1.6959	1.2835	69.1	-0.2459	0.0809	0.3268	838.5056	0.139508	-421.783005	-421.777376	-421.776432	-421.812668	24.784	
C	-0.0468651732	 1.5615558555	 0.0603886158	-0.248654
C	 1.4825175642	 1.3690971764	-0.0016847018	 0.080655
O	 1.7556704882	 0.7618908707	 1.2697315411	-0.286037
C	 0.8734284675	-0.3973461474	 1.1957925843	 0.039647
C	 1.7917280953	-1.4908863541	 0.6562434928	 0.046051
O	 1.2775670592	-2.254037889	-0.4386368881	-0.259863
C	 2.0695895939	-1.0816751912	-0.7244144994	 0.027651
C	 1.2174255908	 0.1396009982	-0.9673845398	-0.07596
C	-0.0149561076	 0.0145578976	-0.0083095863	-0.064551
H	-0.4405262179	 2.0489993899	 0.9545032283	 0.103133
H	-0.4726504023	 1.9968953161	-0.8463086133	 0.102807
H	 2.2032441018	 2.1596521137	-0.2032426369	 0.083193
H	 0.3926814943	-0.5626539223	 2.1600449054	 0.07676
H	 2.5151380139	-1.9831264713	 1.2980822697	 0.103818
H	 3.0174133774	-1.2608689213	-1.2214575227	 0.099948
H	 0.9980842662	 0.42093757	-1.9963772803	 0.081374
H	-0.8776255918	-0.6037673717	-0.2382597787	 0.090027
289.0205	335.6935	394.6166	506.5319	516.2213	623.4297	740.8884	760.7302	806.2081	846.1134	861.3219	871.5284	881.0054	897.2104	922.9944	942.6079	960.0715	981.8984	1009.5214	1022.8136	1027.8988	1065.1362	1084.4239	1109.2221	1117.4437	1176.3778	1221.0308	1233.3155	1235.8335	1255.3802	1277.9454	1285.2396	1306.7391	1327.3276	1339.5026	1422.8408	1489.4196	3069.6295	3114.1614	3126.356	3133.993	3140.4771	3164.5254	3164.9705	3177.1505
C1C2OC3C4OC4C2C13	C1[C@H]2O[C@@H]3[C@H]4O[C@H]4[C@H]2[C@H]13	
InChI=1S/C7H8O2/c1-2-4-3(1)8-5(2)7-6(4)9-7/h2-7H,1H2	InChI=1S/C7H8O2/c1-2-4-3(1)8-5(2)7-6(4)9-7/h2-7H,1H2/t2-,3+,4-,5-,6-,7+/m0/s1
