19
gdb 75798	3.03915	1.22486	1.03362	1.1903	75.32	-0.2426	-0.0256	0.217	1193.0037	0.157527	-423.011702	-423.002819	-423.001874	-423.046257	32.413	
C	-0.527283255	 1.3190056828	-0.1018822121	-0.416181
C	 0.08258205	-0.0754426587	-0.1109977792	-0.163841
C	 1.4453891563	-0.2704386946	-0.7963660224	 0.39564
O	 1.946162255	 0.1949064682	-1.7786338487	-0.295303
C	 1.9551360273	-1.1606815947	 0.3473416888	-0.425997
C	 0.7159734473	-0.7123571173	 1.1717648606	 0.265347
C	 0.9122148388	 0.1058099591	 2.4675071432	-0.125499
O	 0.1740534262	-0.8593137617	 3.2421822484	-0.270833
C	-0.0646124266	-1.6777185402	 2.081111065	-0.135243
H	 0.1723295629	 2.0597307645	 0.2972153821	 0.125762
H	-0.7804921878	 1.6221661749	-1.1217583934	 0.139169
H	-1.4404702805	 1.3527158195	 0.500839815	 0.125991
H	-0.6272963047	-0.7940918881	-0.545496151	 0.104884
H	 1.9373801688	-2.2237995163	 0.0816308532	 0.132388
H	 2.945452214	-0.9189074564	 0.7435932935	 0.133186
H	 1.951458775	 0.2005232015	 2.8089379083	 0.102288
H	 0.4392931407	 1.0953954929	 2.4921472844	 0.10538
H	-1.1361768983	-1.7726352627	 1.8576120705	 0.100705
H	 0.3662726907	-2.6823696329	 2.1874472237	 0.102158
47.4807	52.976	175.7571	182.4638	221.9647	271.2863	342.655	392.2117	458.1517	489.2813	563.4555	717.3108	740.0558	830.858	847.0956	857.6407	948.5725	954.4003	987.7181	1036.2338	1044.1859	1049.3515	1101.3487	1125.0785	1150.8706	1159.0287	1170.8519	1178.4356	1219.9071	1252.4263	1271.9086	1311.0418	1331.9138	1384.4854	1407.684	1437.4945	1491.276	1494.406	1507.5928	1532.2315	1891.6436	2993.8276	3008.856	3010.8044	3037.9092	3038.4309	3046.9379	3050.7537	3104.6524	3107.452	3116.0763
CC1C(=O)CC11COC1	C[C@H]1C(=O)CC21COC2	
InChI=1S/C7H10O2/c1-5-6(8)2-7(5)3-9-4-7/h5H,2-4H2,1H3	InChI=1S/C7H10O2/c1-5-6(8)2-7(5)3-9-4-7/h5H,2-4H2,1H3/t5-/m0/s1
