17
gdb 97963	3.23649	0.61609	0.57719	2.9056	74.69	-0.2494	0.0291	0.2786	1923.5562	0.135022	-455.142773	-455.132377	-455.131433	-455.18103	35.674	
N	-0.3643119994	 0.9623361119	 0.8373091757	-0.559161
C	-0.1985504023	-0.3103944777	 0.311262118	 0.455263
O	 0.630542349	-1.0950317196	 0.7313922801	-0.383415
N	-1.0691241468	-0.5984973624	-0.7263707266	-0.332889
C	-1.1928576732	-1.9786758332	-1.1848482166	-0.293203
C	-2.4342852465	-2.6226328228	-0.7587498316	 0.055692
C	-3.4813175189	-3.1178672471	-0.4256194569	 0.032212
C	-4.7075492798	-3.762331266	 0.0436732387	-0.186661
O	-4.86351089	-3.7228068161	 1.4547456406	-0.401746
H	 0.4114127742	 1.2467923663	 1.4157838291	 0.262882
H	-0.7081123243	 1.6854786856	 0.2234764701	 0.24945
H	-1.9105632129	-0.0448023139	-0.7832871422	 0.243985
H	-1.1205457635	-2.0146832484	-2.2792392443	 0.132978
H	-0.3233220292	-2.5059631263	-0.7806420236	 0.176596
H	-5.5866196602	-3.2529460235	-0.3669781113	 0.137791
H	-4.73659844	-4.7965046648	-0.3362756584	 0.119964
H	-4.0407396361	-4.0374776819	 1.8440125792	 0.290264
20.2844	25.3955	66.8131	120.9587	171.3161	267.4236	284.9509	302.6183	351.098	393.2876	419.1452	489.0766	526.4814	554.2954	602.4842	656.3056	766.8139	783.525	905.7554	988.9198	1038.7147	1045.0673	1097.6435	1134.3462	1158.3856	1216.1279	1270.6488	1319.0722	1355.8053	1385.9221	1420.4591	1469.2225	1492.5687	1527.4938	1627.7213	1805.9381	2358.2616	2973.7438	3024.376	3059.4556	3091.453	3576.5234	3615.5057	3691.2102	3815.4015
NC(=O)NCC#CCO	NC(=O)NCC#CCO	
InChI=1S/C5H8N2O2/c6-5(9)7-3-1-2-4-8/h8H,3-4H2,(H3,6,7,9)	InChI=1S/C5H8N2O2/c6-5(9)7-3-1-2-4-8/h8H,3-4H2,(H3,6,7,9)
