17
gdb 10280	2.5071	1.75995	1.08603	3.0158	70.74	-0.2436	0.029	0.2725	1081.9664	0.139925	-363.871978	-363.862583	-363.861639	-363.906594	33.679	
C	 0.3134307049	 1.5133802923	 0.5069051569	-0.395101
C	 0.3595410827	-0.0059810241	 0.3497767035	-0.165383
C	 0.4121032809	-0.4678440702	-1.1288576468	-0.300363
C	 1.6288524154	-0.0321954042	-1.8061240171	 0.329242
C	 2.642879477	 0.3178451058	-2.3522356075	-0.454158
C	 0.1491708053	-1.9956381214	-1.2004254854	 0.426648
N	 1.0187247192	-2.7169529763	-1.9482884761	-0.538478
O	-0.8023046105	-2.4800559143	-0.6197621397	-0.367504
H	 1.1952645859	 1.9876420779	 0.0654196306	 0.126835
H	-0.5731497158	 1.934830808	 0.0198392046	 0.115951
H	 0.2750684209	 1.7903261959	 1.5646388145	 0.117418
H	 1.2314103745	-0.413681886	 0.8741565169	 0.104839
H	-0.526779366	-0.4720630572	 0.7871567093	 0.133401
H	-0.4496573515	-0.0197885822	-1.6438409226	 0.135101
H	 3.5305640948	 0.6438117167	-2.8360884507	 0.201824
H	 1.8108687894	-2.2843213926	-2.3920938612	 0.268156
H	 0.8799961526	-3.711321278	-2.0166427691	 0.261572
29.3715	100.2806	157.8087	191.3064	205.23	262.8484	269.0873	340.0754	398.1424	497.7856	514.1662	566.2467	616.6667	626.2514	647.7553	713.1971	774.4748	856.6019	924.8649	967.8603	1058.2618	1100.5943	1111.0774	1133.5764	1253.6458	1271.9783	1339.4244	1346.302	1363.6425	1413.5693	1490.7899	1497.5959	1507.4596	1605.8734	1798.3072	2223.2195	3012.7947	3034.1366	3046.4267	3094.5033	3107.2088	3119.1046	3499.6631	3596.7921	3733.8553
CCC(C#C)C(N)=O	CC[C@@H](C#C)C(=O)N	
InChI=1S/C6H9NO/c1-3-5(4-2)6(7)8/h1,5H,4H2,2H3,(H2,7,8)	InChI=1S/C6H9NO/c1-3-5(4-2)6(7)8/h1,5H,4H2,2H3,(H2,7,8)/t5-/m1/s1
