15
gdb 130197	2.44988	1.83911	1.05123	4.3362	76.38	-0.1755	-0.0127	0.1628	1056.6447	0.114749	-450.137448	-450.129328	-450.128384	-450.169571	31.56	
N	 0.0211638927	 1.2983564139	 0.1392279703	-0.547441
C	-0.0069399429	-0.0638067794	 0.0599637006	 0.37274
N	-1.1574886391	-0.6846792019	 0.053479383	-0.310096
N	-1.1106117069	-2.0358937413	 0.0303756824	-0.245177
C	 0.0331336816	-2.7683414112	 0.0139155688	-0.114071
C	 1.2467133334	-2.1502060069	 0.0007243392	 0.260773
O	 2.4481108558	-2.8028938077	-0.0293815033	-0.449301
C	 1.3175339436	-0.711669023	 0.0083206498	 0.199828
N	 2.3715571155	 0.0366840921	-0.0330341905	-0.596197
H	 0.9177913362	 1.6981443413	-0.101129305	 0.273454
H	-0.8147602981	 1.7969332146	-0.1156045086	 0.251934
H	-2.0117818181	-2.4790277446	 0.039892215	 0.273029
H	-0.0917091102	-3.8458355518	 0.0057638606	 0.11304
H	 2.3037604866	-3.753984497	-0.0517727084	 0.296254
H	 3.21152066	-0.539826477	-0.0761311839	 0.221233
111.2873	237.8663	264.1187	294.8439	316.0081	329.3536	339.9256	431.8876	481.897	511.06	537.5862	558.6402	565.3548	577.7629	719.3258	783.5899	814.3277	850.3738	895.3563	994.6596	1033.8466	1148.4829	1189.8708	1282.6521	1309.5954	1352.8673	1428.033	1464.1023	1547.8176	1587.6117	1628.474	1654.8424	1674.637	3183.933	3485.5374	3562.1411	3681.8412	3706.8805	3830.6674
NC1=NNC=C(O)C1=N	NC1=NNCC(=C1[NH])O	
InChI=1S/C4H6N4O/c5-3-2(9)1-7-8-4(3)6/h1H,(H2,5,7)(H3,6,8,9)	InChI=1S/C4H7N4O/c5-3-2(9)1-7-8-4(3)6/h5,7,9H,1H2,(H2,6,8)
