19
gdb 11832	3.70485	1.6566	1.33109	2.3809	72.05	-0.2081	0.0779	0.286	982.0635	0.163972	-365.012004	-365.003675	-365.00273	-365.044476	31.17	
C	-0.2276258196	 1.5465008352	 0.1035668031	-0.408821
C	 0.0148758038	 0.0393448719	 0.033642974	-0.038786
N	 1.1439271663	-0.4415407701	-0.8136787498	-0.079003
C	 1.6813585719	 0.3599409005	-1.8877122139	-0.325052
C	 1.9925552482	-0.7482360738	 0.3521735577	-0.252612
C	 0.760928176	-0.5570832321	 1.23676983	 0.430486
C	 0.6214948944	-0.3336245881	 2.6724092632	-0.267181
O	 0.2271620651	-1.5729610619	 2.0613292791	-0.268457
H	 0.6700068703	 2.0921155955	 0.4115537505	 0.11754
H	-0.5512863022	 1.9417338441	-0.8646370967	 0.121013
H	-1.0191520912	 1.7624960745	 0.828639272	 0.120562
H	-0.9243229347	-0.4777706319	-0.2016921305	 0.087375
H	 2.097868044	 1.3333318775	-1.5683248545	 0.090575
H	 2.4846490275	-0.1955986288	-2.3841220662	 0.122446
H	 0.9051630571	 0.5522153197	-2.6358832741	 0.121145
H	 2.4354782171	-1.7508064509	 0.3491745262	 0.112779
H	 2.7863873733	-0.0072040826	 0.5467668404	 0.086095
H	 1.4982999977	-0.3885917416	 3.3170874709	 0.114929
H	-0.195163475	 0.2779984528	 3.0543547688	 0.114965
73.2353	198.1433	211.6602	231.9911	248.9985	275.5311	322.7181	347.6141	452.7112	512.45	535.4932	722.154	802.8705	839.0181	878.7208	951.6988	969.9422	1001.786	1067.3693	1080.2224	1108.7712	1124.7864	1137.7365	1164.2499	1164.8374	1184.0624	1222.6298	1231.385	1295.4	1321.9163	1364.2105	1401.9179	1449.6824	1452.776	1482.6833	1492.6451	1496.5023	1505.8845	1512.685	1545.0454	2932.6462	2957.2151	3017.9687	3034.1935	3050.812	3052.5364	3077.9698	3093.9683	3103.4613	3107.8392	3162.4704
CC1N(C)CC11CO1	C[C@H]1N(C)C[C@]21CO2	
InChI=1S/C6H11NO/c1-5-6(4-8-6)3-7(5)2/h5H,3-4H2,1-2H3	InChI=1S/C6H11NO/c1-5-6(4-8-6)3-7(5)2/h5H,3-4H2,1-2H3/t5-,6-/m1/s1
