20
gdb 97719	4.97262	0.68923	0.66296	1.4114	92.29	-0.2283	0.0384	0.2667	1795.6313	0.170787	-365.951154	-365.941847	-365.940903	-365.987622	33.966	
C	 0.1041398179	 1.4515533481	-0.4568196025	-0.362986
C	-0.0360107971	 0.1466274197	 0.348925837	-0.326395
C	-1.3842506249	-0.4084419258	 0.3122486522	 0.23805
C	-2.5042558962	-0.8517153471	 0.2533493309	-0.110039
C	-3.8325542694	-1.3694111347	 0.2431902626	 0.153837
C	-4.8190654165	-1.3372563461	 1.4323214097	-0.297656
C	-5.3879366334	-2.7191537895	 0.9725234445	-0.238572
C	-4.4025588134	-2.7059572758	-0.2017857388	-0.091288
N	-4.5609381983	-1.5180227199	-1.0230912518	-0.346763
H	 1.1307851438	 1.8259885946	-0.4010193094	 0.112323
H	-0.1474662738	 1.2866086808	-1.5077974907	 0.131821
H	-0.5665094486	 2.2221392996	-0.0672151363	 0.127132
H	 0.6739134873	-0.5980821772	-0.0342195978	 0.129502
H	 0.2536437122	 0.3269939369	 1.3923839226	 0.12725
H	-4.316357484	-1.3961520455	 2.3993429626	 0.117597
H	-5.5045341035	-0.4834452728	 1.4423085934	 0.097841
H	-5.1870344194	-3.5099589674	 1.6987605636	 0.111651
H	-6.4466015373	-2.7600596819	 0.6947652076	 0.099648
H	-3.8931093639	-3.5582549045	-0.6366643937	 0.103099
H	-5.5007873214	-1.1256800518	-0.9731236659	 0.223946
8.8774	78.0359	96.0765	169.3515	216.9397	278.7253	329.0552	410.2681	456.7585	481.5831	531.8329	577.2813	749.87	781.1705	784.7015	811.7762	851.2179	926.6436	942.8411	952.0928	1014.4522	1051.017	1055.3141	1080.861	1084.464	1103.8536	1138.3786	1165.5991	1206.3696	1226.8097	1249.2354	1283.7108	1285.8209	1295.5387	1347.6025	1408.0216	1431.4912	1473.3186	1479.0891	1494.1944	1498.3825	1505.589	2359.8083	3016.308	3043.1307	3043.2571	3043.6306	3051.8379	3102.2751	3116.6561	3122.2823	3124.5552	3181.6512	3447.0535
CCC#CC12CCC1N2	CCC#C[C@]12CC[C@H]1N2	
InChI=1S/C8H11N/c1-2-3-5-8-6-4-7(8)9-8/h7,9H,2,4,6H2,1H3	InChI=1S/C8H11N/c1-2-3-5-8-6-4-7(8)9-8/h7,9H,2,4,6H2,1H3/t7-,8+/m1/s1
