17
gdb 105726	2.31166	1.51706	1.2142	5.3946	74.27	-0.2453	-0.0125	0.2327	1091.9245	0.136187	-418.007711	-417.998976	-417.998032	-418.041297	31.965	
N	-0.0824818587	 1.4669068635	-0.1900635724	-0.502791
C	-0.0355732295	 0.022404591	-0.027883842	-0.175114
C	-1.4638822804	-0.5321362338	 0.113649573	 0.200113
O	-2.200473345	-0.1948084542	-1.0667751285	-0.295815
C	-2.8304131382	-1.3572247806	-1.6118925829	-0.134336
C	-2.2969314519	-2.5017781808	-0.8008770839	-0.08964
C	-1.5288704827	-2.045604581	 0.1789026871	-0.128295
C	-2.134000435	 0.0597504753	 1.3007128447	 0.286172
N	-2.6677256829	 0.4573161442	 2.2450855871	-0.341338
H	 0.8544600426	 1.8499632794	-0.2442860466	 0.23414
H	-0.5564395086	 1.6928180938	-1.058573559	 0.242755
H	 0.4270649758	-0.5322210745	-0.8615654806	 0.091308
H	 0.525098514	-0.2164347008	 0.8830274233	 0.116459
H	-3.924758421	-1.2696204536	-1.5348832952	 0.125364
H	-2.578233046	-1.430335224	-2.6784249713	 0.120225
H	-2.5398312746	-3.5366792442	-1.0045934022	 0.123502
H	-1.0222952379	-2.6121156295	 0.9481560495	 0.127294
80.0472	112.0244	164.5437	171.6805	206.299	274.5267	343.6667	398.1585	459.8082	523.3279	562.2478	652.6599	738.6482	775.5244	829.4167	835.5469	897.756	951.2525	959.6559	1006.1818	1045.2792	1077.2365	1083.0616	1117.0132	1138.1505	1162.2317	1202.4187	1219.5603	1325.7061	1345.1901	1378.9866	1421.4866	1493.911	1516.2469	1650.8722	1692.6413	2354.0887	2959.4636	2993.2857	3028.6602	3064.771	3217.2203	3243.1086	3511.22	3594.4277
NCC1(OCC=C1)C#N	NC[C@]1(OCC=C1)C#N	
InChI=1S/C6H8N2O/c7-4-6(5-8)2-1-3-9-6/h1-2H,3-4,7H2	InChI=1S/C6H8N2O/c7-4-6(5-8)2-1-3-9-6/h1-2H,3-4,7H2/t6-/m0/s1
