17
gdb 28614	5.01041	0.9853	0.82759	3.7063	87.79	-0.2503	-0.0576	0.1927	1351.9326	0.136782	-384.782146	-384.773932	-384.772988	-384.816398	29.974	
C	-0.0130885282	 1.5303294245	-0.0003677739	-0.492288
C	 0.0047326086	 0.0230756327	-0.0072358439	 0.297779
C	-0.0601460659	-0.6956981253	-1.203581929	-0.181448
C	-0.0428402422	-2.0864350686	-1.198722893	-0.188684
C	 0.0398779934	-2.786757201	 0.0057207833	 0.192792
C	 0.0578061143	-4.2632982511	 0.0038767388	 0.09139
O	 0.1271542237	-4.9572181147	 0.9925175599	-0.272399
C	 0.1053422192	-2.0737904897	 1.2107613585	-0.1745
C	 0.0877370867	-0.6899851853	 1.1997766815	-0.171951
H	 0.8936906686	 1.9340273649	 0.4639162473	 0.138883
H	-0.0824125537	 1.9360404742	-1.0126045515	 0.127414
H	-0.8630720519	 1.9128003904	 0.5758145884	 0.138833
H	-0.1246970621	-0.1593515192	-2.1452258552	 0.098643
H	-0.0937684653	-2.6361962144	-2.1347155316	 0.104165
H	 0.0008615213	-4.7183828746	-1.0114400179	 0.06659
H	 0.1692460043	-2.6319880679	 2.1383080507	 0.126041
H	 0.1386830594	-0.142601425	 2.1366024375	 0.098737
18.7397	97.929	187.2031	195.607	315.2688	346.7272	407.5025	421.526	501.7246	612.3649	649.7887	729.4667	768.9691	829.0111	857.1745	871.3817	952.8744	987.1883	1008.4695	1031.4556	1046.0595	1061.5802	1133.1636	1189.8844	1229.9933	1235.4719	1326.5608	1346.8398	1412.9851	1423.1223	1448.9731	1483.4879	1494.7126	1538.1292	1610.7169	1647.9537	1796.1466	2870.4086	3032.8353	3086.3895	3119.8507	3162.6317	3168.8058	3181.2529	3201.9159
CC1=CC=C(C=O)C=C1	Cc1ccc(C=O)cc1	
InChI=1S/C8H8O/c1-7-2-4-8(6-9)5-3-7/h2-6H,1H3	InChI=1S/C8H8O/c1-7-2-4-8(6-9)5-3-7/h2-6H,1H3
