19
gdb 102487	2.28608	1.04578	0.79853	2.0798	69.19	-0.2621	-0.039	0.2231	1448.047	0.155713	-497.289079	-497.278469	-497.277525	-497.326034	36.587	
C	-0.0979439876	 1.3082842054	-0.0400562617	-0.247221
O	 0.222013295	-0.0705411616	 0.0238407865	-0.242043
C	 0.7363768028	-0.6180147407	-1.165199883	-0.00549
C	 1.300476162	-1.995802152	-0.7614887098	-0.069921
O	 2.2672176046	-1.854125675	 0.2493929463	-0.416529
C	-0.3186074141	-0.7587700031	-2.2614506663	 0.325128
O	-1.5069675309	-0.6964499851	-2.0318083904	-0.318404
C	 0.1514774426	-0.9838647046	-3.6944230605	-0.132483
O	-0.9296698604	-1.1598834733	-4.5576713328	-0.418848
H	 0.775855317	 1.9063427852	-0.3386472942	 0.110307
H	-0.9225026469	 1.4991833013	-0.7361404678	 0.133814
H	-0.4054085955	 1.6071354689	 0.9641431865	 0.136715
H	 1.5694835268	-0.0036029926	-1.5481126656	 0.085794
H	 0.4586346985	-2.6298822167	-0.4429287221	 0.112346
H	 1.7889998156	-2.4735019703	-1.6152471805	 0.116885
H	 1.8532833259	-1.3098258843	 0.930870122	 0.293334
H	 0.764745663	-0.1128607648	-3.9852607859	 0.118732
H	 0.8274024804	-1.8538535256	-3.7234915124	 0.122397
H	-1.7178924386	-1.0407419311	-4.0030959882	 0.295486
28.9699	83.5335	108.0292	112.1987	172.8846	177.8997	234.8711	252.9851	328.4753	357.5624	412.6195	449.2504	459.9907	505.602	566.5198	735.7016	840.079	911.3174	964.658	1004.5689	1074.7981	1084.5812	1107.3783	1149.0045	1170.6538	1183.1083	1201.194	1238.758	1265.3956	1275.6373	1312.5671	1381.0601	1388.5957	1433.3017	1452.1662	1481.6399	1487.4976	1489.1792	1499.2319	1509.606	1796.0815	2956.1935	2968.3549	2989.6158	2993.6528	2995.3547	3071.6352	3094.2556	3128.6497	3677.7948	3785.4293
COC(CO)C(=O)CO	CO[C@@H](CO)C(=O)CO	
InChI=1S/C5H10O4/c1-9-5(3-7)4(8)2-6/h5-7H,2-3H2,1H3	InChI=1S/C5H10O4/c1-9-5(3-7)4(8)2-6/h5-7H,2-3H2,1H3/t5-/m0/s1
