21
gdb 76551	2.48715	1.31269	1.14187	2.8285	78.82	-0.2305	0.0601	0.2906	1210.2041	0.180713	-424.191247	-424.181502	-424.180558	-424.225926	35.94	
C	-0.1657793747	 1.4434493028	-0.2273465387	-0.398625
C	 0.0690378521	-0.0501973796	-0.2055560274	-0.142467
C	 1.488136527	-0.6255702437	-0.1706950556	 0.030046
O	 2.5790046335	 0.2332039385	-0.0457093875	-0.436692
C	 0.5939928346	-0.7336819695	 1.0244401057	 0.397548
O	 0.9934369257	 0.032288655	 2.1727953201	-0.323213
C	 0.6405962439	-1.0699586039	 3.0496298989	-0.080565
C	 0.1147337099	-1.9166815632	 1.8656933506	-0.141864
C	-1.3785944005	-2.2156444533	 1.8515010182	-0.40151
H	 0.6301138836	 1.9698808068	 0.3022923301	 0.131291
H	-0.1852493491	 1.8157346872	-1.2565411697	 0.118337
H	-1.1180101457	 1.7027071164	 0.2467354691	 0.112813
H	-0.6380614182	-0.6440172498	-0.7825661266	 0.083404
H	 1.701496709	-1.5075055074	-0.7714460166	 0.091226
H	 2.6566128073	 0.4309210776	 0.8992094804	 0.2941
H	 1.5187645836	-1.466774616	 3.5702954827	 0.108441
H	-0.1137636553	-0.7656303035	 3.7837569464	 0.10821
H	 0.6904991889	-2.8309455222	 1.6946423215	 0.084727
H	-1.9641341932	-1.307161979	 2.026723547	 0.125514
H	-1.6881416226	-2.6323069552	 0.887351953	 0.121622
H	-1.6394374295	-2.9437595477	 2.6268602784	 0.117658
67.2014	108.3735	128.0131	160.4684	207.812	219.3513	244.9503	289.4119	393.196	428.7782	471.7874	551.0556	618.0009	643.5002	771.1685	799.7173	862.983	887.5112	921.6213	959.5188	984.499	1007.709	1038.6329	1074.3614	1111.546	1117.5483	1143.6274	1153.0467	1164.7019	1181.4376	1195.1638	1252.1045	1282.513	1331.2021	1340.6086	1371.4009	1398.0525	1412.567	1413.781	1465.739	1487.7245	1495.3951	1497.3211	1503.5402	1524.5433	3027.9618	3032.4625	3040.2224	3057.9218	3080.4392	3098.283	3099.913	3106.4518	3114.5775	3124.7501	3138.6679	3718.8791
CC1C(O)C11OCC1C	C[C@H]1[C@@H](O)[C@]21OC[C@H]2C	
InChI=1S/C7H12O2/c1-4-3-9-7(4)5(2)6(7)8/h4-6,8H,3H2,1-2H3	InChI=1S/C7H12O2/c1-4-3-9-7(4)5(2)6(7)8/h4-6,8H,3H2,1-2H3/t4-,5+,6-,7+/m1/s1
