17
gdb 123846	3.55209	1.52521	1.10772	2.2608	73.8	-0.2345	0.0194	0.2539	1051.4851	0.14044	-418.03354	-418.026651	-418.025707	-418.064806	27.324	
C	 0.0038233226	 1.4192707373	 0.0130161274	-0.082721
C	 1.4514324132	 1.9389420516	-0.0233684448	-0.320283
C	 2.169548028	 1.205518692	-1.1126514051	 0.300094
N	 3.3186768615	 1.5696312188	-1.6738834219	-0.316274
N	 3.5559619911	 0.6014362014	-2.5825073255	-0.187211
C	 2.5960569059	-0.3587985327	-2.6128594328	-0.163511
C	 1.668416023	 0.0019995098	-1.6599610832	 0.162697
C	 0.3677669579	-0.5873964421	-1.1975827132	-0.202263
O	-0.0405142289	-0.0006749721	 0.0302256026	-0.247481
H	-0.5089694163	 1.7483397395	 0.9205554153	 0.10847
H	-0.5560009174	 1.8067025899	-0.8543428591	 0.090405
H	 1.4684620658	 3.0212670898	-0.1893940109	 0.114728
H	 1.9294029801	 1.751610765	 0.9459211629	 0.121383
H	 4.3890749069	 0.6546986743	-3.1428760211	 0.273362
H	 2.6536483692	-1.1947572013	-3.2924534608	 0.132695
H	-0.4190059239	-0.4457779527	-1.959638006	 0.09775
H	 0.4444218713	-1.6625547785	-1.0052792439	 0.11816
112.2125	214.4803	300.3556	333.6096	383.6908	460.5073	489.6634	524.1937	653.9523	681.133	718.8704	739.4437	776.7099	860.8321	944.138	967.8288	981.2836	1028.0399	1073.2265	1089.1897	1116.4508	1162.2067	1208.0924	1217.0185	1249.9477	1304.9494	1311.0368	1349.2855	1362.6254	1404.7991	1434.6191	1472.1316	1475.7675	1491.4671	1501.2677	1518.5754	1612.0243	2943.3531	2970.9061	3032.4849	3065.1855	3079.6517	3093.2911	3256.0372	3679.6983
C1CC2=NNC=C2CO1	C1Cc2n[nH]cc2CO1	
InChI=1S/C6H8N2O/c1-2-9-4-5-3-7-8-6(1)5/h3H,1-2,4H2,(H,7,8)	InChI=1S/C6H8N2O/c1-2-9-4-5-3-7-8-6(1)5/h3H,1-2,4H2,(H,7,8)
