17
gdb 62467	2.28264	1.7711	1.27232	1.3389	75.16	-0.2459	-0.0935	0.1524	1026.0689	0.134615	-421.887454	-421.878673	-421.877729	-421.92088	32.234	
C	-0.031954823	 1.5491842393	 0.0110133739	-0.417099
C	-0.0193943029	 0.0110588512	 0.0022776135	 0.007222
C	-1.4497501246	-0.5526507293	-0.0464238969	-0.417102
C	 0.8155306004	-0.5200695158	-1.1717425387	 0.372827
O	 0.5920414378	-0.3372873644	-2.3447528153	-0.326786
C	 1.9561410302	-1.304617013	-0.6137941015	-0.168608
C	 1.9136468678	-1.3125739566	 0.7265873879	-0.168606
C	 0.7397039509	-0.5342525397	 1.220438649	 0.372827
O	 0.4423228663	-0.3652833387	 2.3790262247	-0.326786
H	 0.981498764	 1.9615699501	 0.0454604922	 0.121087
H	-0.5198713196	 1.9202635162	-0.8941657769	 0.137864
H	-0.576138606	 1.9096650158	 0.887956914	 0.137868
H	-1.9535054699	-0.2054566285	-0.9524033838	 0.137868
H	-1.4528850046	-1.6473128326	-0.0528711018	 0.121086
H	-2.0101337357	-0.2157972817	 0.8297103491	 0.137863
H	 2.6887852474	-1.7812777635	-1.2541617828	 0.139237
H	 2.6044358316	-1.797073819	 1.4063770634	 0.139237
56.5211	177.919	198.7912	214.2579	230.172	267.1153	282.6664	291.4952	399.6102	550.7623	571.5763	661.6028	680.1515	703.0455	786.3841	803.4484	887.327	941.9516	967.5619	1017.8871	1028.9641	1061.4048	1096.7692	1155.1169	1158.9808	1231.2157	1297.2037	1338.8645	1388.4976	1413.8909	1480.9926	1484.5262	1499.0241	1508.6173	1626.8083	1799.6539	1836.2642	3039.33	3041.4045	3110.902	3112.8986	3126.8641	3129.9165	3204.1952	3226.4577
CC1(C)C(=O)C=CC1=O	CC1(C)C(=O)C=CC1=O	
InChI=1S/C7H8O2/c1-7(2)5(8)3-4-6(7)9/h3-4H,1-2H3	InChI=1S/C7H8O2/c1-7(2)5(8)3-4-6(7)9/h3-4H,1-2H3
