19
gdb 68056	2.0597	1.80984	1.15775	1.7443	82.89	-0.2354	0.0413	0.2768	1127.1204	0.155768	-385.807975	-385.798779	-385.797835	-385.841254	35.445	
C	 0.0554850494	 1.443348707	 0.1233111628	-0.513268
C	-0.0073134273	-0.0376774747	-0.0661084689	 0.404998
C	 0.5767404625	-0.9444150503	-1.1786040888	-0.310065
C	 0.0483656531	-1.8444027203	-0.033276189	 0.404996
C	 0.2020102808	-3.3108974587	 0.209722317	-0.513268
O	 0.6643816542	-0.9033028366	 0.9348016602	-0.3676
C	-1.2587478236	-0.9794712755	 0.0049388781	-0.283834
C	-2.0558716858	-0.9821501045	 1.2095500619	 0.322016
C	-2.7522848731	-0.9857945983	 2.1901534756	-0.436527
H	 1.0960641586	 1.7799642808	 0.1535872675	 0.13465
H	-0.4522822992	 1.9543447903	-0.7005978607	 0.126235
H	-0.4318972202	 1.7240316424	 1.0615620243	 0.144546
H	 0.0702609598	-0.9776299603	-2.1473596708	 0.090538
H	 1.6635670529	-0.9124621475	-1.2634483368	 0.105819
H	 1.2613060905	-3.5814735588	 0.2511039218	 0.134652
H	-0.2682752488	-3.5868142182	 1.1580580969	 0.144546
H	-0.2723500777	-3.8817645917	-0.5945560617	 0.126235
H	-1.875271333	-1.0148995484	-0.8990824568	 0.093412
H	-3.3546449032	-0.9884512569	 3.0645106874	 0.191918
107.7063	147.8842	193.1621	196.1012	220.9071	229.6692	332.2242	377.0628	403.9513	495.13	515.2189	596.3255	624.3134	633.6751	662.9971	673.6241	731.6939	757.7077	861.8518	901.5	937.6394	1009.1823	1025.2817	1048.5373	1086.5194	1120.7674	1149.8859	1153.5499	1172.8825	1209.1764	1259.4728	1343.6719	1383.1503	1408.3505	1423.8457	1475.4625	1476.9794	1486.8198	1488.024	1503.7632	2234.2727	3041.0141	3041.0993	3050.2144	3062.583	3115.5933	3115.7647	3119.6424	3119.6868	3144.5524	3504.1308
CC12CC(C)(O1)C2C#C	C[C@@]12C[C@@](C)(O1)[C@H]2C#C	
InChI=1S/C8H10O/c1-4-6-7(2)5-8(6,3)9-7/h1,6H,5H2,2-3H3	InChI=1S/C8H10O/c1-4-6-7(2)5-8(6,3)9-7/h1,6H,5H2,2-3H3/t6-,7-,8+
