18
gdb 76596	2.83638	1.05501	1.01286	4.564	80.38	-0.2847	-0.0808	0.2038	1278.9329	0.145897	-401.966273	-401.956695	-401.955751	-402.000941	34.304	
C	 0.5896473335	 0.8587536777	 1.5720582259	-0.422369
C	 0.401834946	-0.2361127743	 0.5464851754	-0.021746
C	 0.1238484177	 0.0109815553	-0.8953184473	-0.021745
C	-0.0043986557	 1.3867745184	-1.5089600711	-0.422369
C	 1.4891463062	-0.5938371346	-0.4933314023	-0.172298
C	 2.7329917849	 0.1830020201	-0.5999917157	 0.309042
O	 2.8789520199	 1.3744567328	-0.4239266883	-0.312882
C	 3.9159065187	-0.6344889242	-0.9681682983	 0.221396
N	 4.8403305056	-1.2675402718	-1.2548940484	-0.304673
H	 1.1518527007	 1.7059101586	 1.179953758	 0.159296
H	-0.3876128368	 1.2170543248	 1.9133736833	 0.12426
H	 1.1265855897	 0.4765134292	 2.4459390685	 0.127163
H	-0.0595967079	-1.1333043958	 0.9517996888	 0.106039
H	-0.507555164	-0.7351309074	-1.371551898	 0.10604
H	 0.7128552793	 2.0961097389	-1.0967906452	 0.159293
H	 0.1554894216	 1.3396988795	-2.5907630029	 0.127164
H	-1.0147461253	 1.7744604189	-1.3392235401	 0.124262
H	 1.6197485159	-1.6499183962	-0.6995039221	 0.114126
49.9913	141.0857	154.5011	164.1385	200.0585	215.8015	265.2877	285.309	357.3746	386.9344	503.8472	511.6464	609.0452	691.0975	784.6125	796.0417	817.3932	903.5349	948.0651	985.2756	1024.5544	1079.9094	1083.4779	1111.0953	1141.3778	1154.4182	1193.3321	1270.1535	1379.5922	1404.7094	1422.5705	1423.6988	1435.7002	1487.6788	1495.8659	1506.462	1516.6316	1755.9449	2334.9641	3041.6499	3043.71	3098.1842	3099.3675	3128.7328	3138.9301	3155.9853	3162.2574	3179.1865
CC1C(C)C1C(=O)C#N	C[C@H]1[C@@H](C)[C@H]1C(=O)C#N	
InChI=1S/C7H9NO/c1-4-5(2)7(4)6(9)3-8/h4-5,7H,1-2H3	InChI=1S/C7H9NO/c1-4-5(2)7(4)6(9)3-8/h4-5,7H,1-2H3/t4-,5+,7-
