21
gdb 94821	3.77732	1.11228	0.96994	1.9228	86.11	-0.2406	0.0089	0.2495	1290.9325	0.18335	-387.095823	-387.087432	-387.086488	-387.128649	33.233	
C	-0.0438355933	 1.5697810546	 0.008995273	-0.402629
C	-0.0021348201	 0.034344788	-0.0018248064	-0.019344
C	 0.6509043842	-0.5087593039	-1.2838286988	-0.21465
C	 0.879881715	-2.0222921403	-1.1940783532	-0.304642
C	 1.763863622	-2.3632791834	-0.0091728726	 0.419128
C	 2.3671617313	-3.7016796515	 0.097428605	-0.245678
O	 3.1662515961	-2.5943740829	-0.3056547672	-0.282868
C	 1.517662707	-1.5595469239	 1.2120448784	-0.121278
C	 0.7065477186	-0.5002748081	 1.2208021794	-0.058423
H	 0.9685829875	 1.987801714	-0.0086919411	 0.121609
H	-0.5821169915	 1.9517483331	-0.8645056649	 0.113019
H	-0.5467449735	 1.9475751195	 0.9054294578	 0.111947
H	-1.045113349	-0.3220454124	 0.028786447	 0.082764
H	 0.0300363674	-0.2656953703	-2.1528849211	 0.091325
H	 1.6165875937	-0.0077927066	-1.4304706195	 0.108882
H	-0.0861299258	-2.5313855002	-1.0741873227	 0.100966
H	 1.3440712044	-2.4099322631	-2.1057321843	 0.107041
H	 2.5973206986	-4.117882948	 1.0785066003	 0.108442
H	 2.1594324447	-4.4408042565	-0.6771569003	 0.107995
H	 2.0357395594	-1.8726321896	 2.1144941403	 0.089298
H	 0.5416998634	 0.0368752117	 2.1530092109	 0.087095
66.0615	186.4966	218.9404	255.5892	291.6125	331.2833	357.4338	405.2962	421.8002	527.9603	585.7981	658.6047	722.3025	753.7478	784.7736	843.7634	892.1608	941.9077	952.0613	963.1969	984.411	1001.2885	1028.9878	1075.3895	1114.9884	1122.291	1133.9876	1161.9578	1180.6318	1234.8606	1238.6431	1302.6215	1317.0404	1339.6287	1351.5899	1373.7838	1388.0991	1406.2907	1445.4851	1471.6483	1489.889	1497.005	1500.3007	1526.4125	1709.7956	2964.1802	3017.2921	3026.0874	3029.9509	3067.093	3072.1539	3086.7066	3098.5938	3101.899	3139.3316	3150.7825	3169.2806
CC1CCC2(CO2)C=C1	C[C@H]1CC[C@]2(CO2)C=C1	
InChI=1S/C8H12O/c1-7-2-4-8(5-3-7)6-9-8/h2,4,7H,3,5-6H2,1H3	InChI=1S/C8H12O/c1-7-2-4-8(5-3-7)6-9-8/h2,4,7H,3,5-6H2,1H3/t7-,8+/m1/s1
