21
gdb 96604	2.26099	1.47704	1.02373	2.4144	74.76	-0.2386	0.0626	0.3012	1209.4176	0.183463	-461.34034	-461.331442	-461.330498	-461.373822	34.016	
O	-0.1818253159	 1.528966835	 0.253169617	-0.434452
C	-0.0088843086	 0.1342284143	 0.0094491652	 0.08255
C	 0.8468900851	-0.4723483757	 1.1428472498	-0.113991
O	 0.6265076448	-1.8412313006	 1.4012523205	-0.229573
C	 1.2083021738	-2.769699164	 0.505068709	-0.075369
C	 0.4777047081	-2.9130828953	-0.840935033	-0.230609
C	-1.0570143008	-2.7808492092	-0.7504649682	-0.059503
O	-1.5440699691	-1.486018284	-1.0590995857	-0.247783
C	-1.419620752	-0.4810453629	-0.0732732573	-0.077537
H	 0.6879773059	 1.9402698348	 0.2878380948	 0.284237
H	 0.4646183802	-0.01803167	-0.9705114631	 0.074563
H	 1.919154414	-0.2814393274	 0.96223425	 0.078686
H	 0.5599760659	 0.0507842	 2.0616935797	 0.115715
H	 2.2718427772	-2.5309678513	 0.3427176317	 0.088706
H	 1.1661598003	-3.7248322257	 1.0397660647	 0.109772
H	 0.8315126045	-2.1810831393	-1.5740802998	 0.112733
H	 0.7345067101	-3.8987745913	-1.2479438252	 0.098197
H	-1.52002407	-3.4303980669	-1.4994769827	 0.10378
H	-1.412648492	-3.1025391609	 0.2392404667	 0.100108
H	-1.7401026395	-0.8508031105	 0.9103489349	 0.10183
H	-2.0961754221	 0.3216840706	-0.3797657391	 0.117939
83.4349	124.2376	192.2009	233.6601	256.9016	307.8937	328.4973	370.5338	395.7883	444.2012	484.6797	525.931	564.5575	767.6655	869.9149	873.6704	904.2852	913.0504	972.5407	1018.1618	1042.6451	1052.7538	1099.8619	1106.5666	1126.8757	1158.2117	1174.1913	1232.7602	1254.4569	1273.4821	1304.2155	1315.4171	1345.5248	1358.3505	1370.1942	1383.1048	1393.3325	1409.1526	1424.2319	1449.2937	1475.8014	1478.7652	1488.5866	1494.2537	1498.2416	2953.4344	2976.5965	3002.2325	3003.516	3015.5308	3034.8799	3058.8615	3070.2038	3078.6988	3086.7971	3094.464	3813.4438
OC1COCCCOC1	OC1COCCCOC1	
InChI=1S/C6H12O3/c7-6-4-8-2-1-3-9-5-6/h6-7H,1-5H2	InChI=1S/C6H12O3/c7-6-4-8-2-1-3-9-5-6/h6-7H,1-5H2
