19
gdb 33357	6.10857	0.64674	0.60557	1.5108	99.33	-0.2366	-0.0072	0.2294	1824.917	0.159428	-348.722578	-348.713354	-348.712409	-348.758443	33.718	
C	-0.2658817658	-3.8728737638	-0.6241695195	-0.57662
C	-0.1674201316	-2.6910065836	-0.3948368929	 0.289777
C	-0.0570093918	-1.3597505416	-0.1366176837	-0.193835
C	 0.0438139611	-0.1756025152	 0.0973878752	 0.363089
C	 0.1703940818	 1.2409265242	 0.3851851274	-0.204749
C	-0.3299797693	 1.6613452687	 1.7898829869	-0.197441
C	 0.2620573509	 3.0730589452	 1.992300573	-0.214073
C	 1.5257423233	 3.144913272	 1.0823411419	-0.214054
C	 1.6256100758	 1.7726260099	 0.381422369	-0.197451
H	-0.3519114098	-4.9114716234	-0.8255609411	 0.187005
H	-0.403133568	 1.8026666846	-0.3667315581	 0.106699
H	-1.4190884025	 1.6309927689	 1.8717807917	 0.1069
H	 0.0732641839	 0.959752051	 2.5278764918	 0.11195
H	-0.4635610405	 3.8363600226	 1.6950951624	 0.103536
H	 0.4973827579	 3.2586257695	 3.0433975217	 0.103436
H	 1.4155555577	 3.9433185707	 0.3421466598	 0.103537
H	 2.4326785856	 3.3685035661	 1.6498727502	 0.10344
H	 2.2498830799	 1.0835304026	 0.9601261633	 0.111953
H	 2.0474248514	 1.8283167713	-0.624935919	 0.106902
17.5816	74.4557	74.5246	180.0349	220.2715	285.7208	407.3617	470.0467	491.2365	526.602	528.9876	590.2189	595.1366	628.3471	748.2587	819.8223	820.1992	887.3728	896.7788	956.5468	972.4955	976.9132	1052.5949	1074.3946	1185.0076	1185.8345	1198.0787	1230.5825	1256.3617	1292.5096	1310.4618	1320.1434	1330.2281	1339.0177	1376.893	1486.4863	1495.4213	1498.6063	1519.4521	2179.7561	2358.7724	2996.8653	3048.2041	3049.6464	3054.0004	3061.3078	3083.4483	3099.6956	3106.4656	3114.9599	3506.6178
C#CC#CC1CCCC1	C#CC#CC1CCCC1	
InChI=1S/C9H10/c1-2-3-6-9-7-4-5-8-9/h1,9H,4-5,7-8H2	InChI=1S/C9H10/c1-2-3-6-9-7-4-5-8-9/h1,9H,4-5,7-8H2
