21
gdb 101354	3.38926	0.78418	0.70348	1.8993	75.62	-0.2542	0.0608	0.315	1629.2876	0.180946	-461.330618	-461.320214	-461.319269	-461.366651	37.745	
O	 0.1589465839	 1.391093329	 0.1046185576	-0.426029
C	 0.072831743	-0.0115637125	 0.2167927617	-0.061465
C	-1.3638549205	-0.4926170476	-0.0107497579	 0.082113
O	-1.8433226419	 0.069595221	-1.2457532713	-0.446569
C	-1.4808132243	-1.9971040375	 0.025975172	-0.052382
C	-1.9470234755	-2.7121454653	 1.2752050189	-0.292859
C	-2.8175551684	-2.7057756096	 0.0477564476	 0.003839
C	-4.1257821693	-1.9583601681	 0.0225117612	-0.095431
O	-5.1160885701	-2.8119641403	 0.5831677106	-0.422836
H	-0.3980076664	 1.616513649	-0.6524874476	 0.284006
H	 0.7371491568	-0.5177095039	-0.508934015	 0.068968
H	 0.4132013905	-0.2899944927	 1.2199173423	 0.111641
H	-1.9988513027	-0.0354983143	 0.7547730372	 0.094516
H	-1.469639589	-0.4514352205	-1.9660641125	 0.281603
H	-0.7027067559	-2.5029679729	-0.5443114166	 0.079826
H	-1.4518956247	-3.6320270296	 1.5642479983	 0.115802
H	-2.2624162875	-2.0956515017	 2.1114127488	 0.11895
H	-2.8577588104	-3.6381661278	-0.5088368032	 0.091859
H	-4.0449374723	-1.0202044843	 0.591192555	 0.086556
H	-4.3771628538	-1.6847650018	-1.0135814299	 0.092485
H	-5.9677934715	-2.3733216686	 0.4976879526	 0.285407
50.5011	86.6207	99.2806	129.8179	200.9595	244.6645	263.4115	291.6703	300.5227	349.4074	403.8682	470.9389	520.2322	537.5929	602.2847	803.4704	840.4949	866.1991	906.8988	911.7992	1002.9982	1034.1895	1055.6853	1070.6261	1073.1332	1080.1041	1103.1791	1139.4202	1151.009	1177.439	1212.3591	1231.483	1256.7119	1270.0396	1287.61	1302.3592	1382.4118	1386.9468	1412.2063	1433.753	1445.3432	1475.0626	1496.9855	1504.8393	1516.9221	2927.3372	2981.4132	3009.5142	3063.7988	3075.2093	3110.8465	3131.316	3146.2238	3217.0448	3759.731	3794.303	3825.9278
OCC(O)C1CC1CO	OC[C@@H](O)[C@H]1C[C@H]1CO	
InChI=1S/C6H12O3/c7-2-4-1-5(4)6(9)3-8/h4-9H,1-3H2	InChI=1S/C6H12O3/c7-2-4-1-5(4)6(9)3-8/h4-9H,1-3H2/t4-,5-,6+/m0/s1
