20
gdb 119362	3.01349	1.06193	0.92852	3.3198	80.33	-0.2454	0.0015	0.2469	1359.5421	0.170268	-403.09947	-403.090494	-403.08955	-403.133815	33.334	
C	 0.0093537905	 1.5490691403	-0.021737695	-0.384592
C	-0.0110056003	 0.0215144854	 0.0603683418	-0.168191
C	-1.4312564239	-0.5580487301	-0.0247139913	-0.346081
C	-1.4472586862	-2.056893607	 0.0371417223	 0.205621
C	-2.6512020577	-3.0611774265	-0.0221083806	-0.29531
C	-1.3760929292	-3.9588363886	-0.0325574487	-0.158062
N	-0.6951470603	-2.9569727742	-0.9642193697	-0.353297
C	-0.8713954207	-3.0342343913	 1.0906300097	 0.496723
O	-0.3761113482	-3.0509503771	 2.1702548892	-0.325404
H	 1.0312732934	 1.9348473031	 0.0416219503	 0.115804
H	-0.4219139775	 1.9028787276	-0.965154277	 0.111825
H	-0.5672662438	 1.9992046069	 0.7941657629	 0.114654
H	 0.59503173	-0.4082682597	-0.7449460303	 0.117309
H	 0.4493927665	-0.3090451795	 0.9986845764	 0.121752
H	-2.043351762	-0.1742051827	 0.8022882805	 0.112086
H	-1.9211491227	-0.2228319086	-0.9493864319	 0.09978
H	-3.3444960556	-3.1182322596	 0.8235462514	 0.113313
H	-3.1780550053	-3.0464669088	-0.9812632999	 0.107173
H	-1.2907866079	-5.0339790746	-0.1723786051	 0.102954
H	-1.2361450991	-2.9457951052	-1.836554655	 0.211943
63.9004	81.9211	119.2016	190.2169	231.2617	247.8037	313.6826	377.0663	483.9123	546.1946	691.3734	692.9	752.4862	772.5041	791.689	814.516	863.4683	899.8511	917.4731	932.8593	987.0421	1038.0989	1049.8916	1052.5892	1097.5048	1119.7419	1139.0095	1173.1321	1198.4571	1235.8889	1271.9875	1290.1867	1310.725	1332.6263	1363.3122	1402.1602	1414.6432	1476.7578	1494.334	1495.513	1499.9633	1510.6544	1935.9438	3010.1007	3028.5066	3034.9846	3041.903	3043.7175	3073.6009	3098.8906	3104.8325	3108.2127	3152.7552	3366.9057
CCCC12CC(N1)C2=O	CCC[C@@]12C[C@@H](N1)C2=O	
InChI=1S/C7H11NO/c1-2-3-7-4-5(8-7)6(7)9/h5,8H,2-4H2,1H3	InChI=1S/C7H11NO/c1-2-3-7-4-5(8-7)6(7)9/h5,8H,2-4H2,1H3/t5-,7+/m1/s1
