21
gdb 100508	3.01838	0.92919	0.81747	0.3815	79.7	-0.2357	-0.0805	0.1552	1519.4468	0.17829	-424.27099	-424.259788	-424.258844	-424.308509	38.7	
C	 0.0466672236	 1.5574169243	-0.031182274	-0.39761
C	-0.008231757	 0.0290510705	-0.1067076163	-0.170966
C	-1.4346861935	-0.5427668776	-0.1193880714	-0.06129
C	-2.2336551159	-0.1659022545	-1.3889822647	-0.409209
C	-1.4113587575	-2.0566844988	-0.0082639581	 0.261002
O	-0.4616792788	-2.7481257839	-0.2996370177	-0.293599
C	-2.7039012486	-2.7447092022	 0.5128075123	 0.311924
C	-2.6993025114	-4.253452106	 0.4957994907	-0.472637
O	-3.6279358593	-2.0752682075	 0.9136298601	-0.279896
H	 1.082532566	 1.9023902345	 0.0426307606	 0.116704
H	-0.391591786	 2.0304310105	-0.9153044458	 0.118918
H	-0.4907667563	 1.9323417542	 0.847313876	 0.115463
H	 0.5258514568	-0.3263771536	-0.9949154011	 0.110309
H	 0.5288603456	-0.394990005	 0.7495222835	 0.101957
H	-2.0016610127	-0.1686259257	 0.7414375441	 0.106018
H	-1.7247953259	-0.5270809848	-2.2890965258	 0.12506
H	-3.2402071238	-0.5901273525	-1.3616011747	 0.136057
H	-2.3338282864	 0.9192995881	-1.4665212239	 0.129661
H	-1.8459721349	-4.6328749556	 1.0657662367	 0.158319
H	-3.6357182854	-4.6290009828	 0.9085624188	 0.140002
H	-2.5628067685	-4.6149648316	-0.5288232993	 0.153813
42.6871	55.2468	73.7131	103.764	148.1882	195.578	211.577	253.0408	269.3201	310.6432	338.3922	409.9512	437.323	533.6459	584.7673	720.0115	752.6033	782.824	832.2042	922.0212	970.6757	975.3972	1011.3092	1032.4437	1062.7732	1102.3151	1136.9152	1191.1041	1237.2815	1289.9809	1327.4889	1337.8871	1382.8075	1391.0369	1398.9012	1415.3149	1451.8492	1459.6078	1481.7976	1496.8795	1498.4943	1507.4083	1513.3586	1794.6829	1804.8088	3033.4018	3038.1547	3040.8304	3047.0075	3050.0457	3072.177	3101.2444	3107.0796	3112.1432	3117.3315	3128.6811	3162.2228
CCC(C)C(=O)C(C)=O	CC[C@@H](C)C(=O)C(=O)C	
InChI=1S/C7H12O2/c1-4-5(2)7(9)6(3)8/h5H,4H2,1-3H3	InChI=1S/C7H12O2/c1-4-5(2)7(9)6(3)8/h5H,4H2,1-3H3/t5-/m1/s1
