21
gdb 112480	2.35126	1.15325	0.8637	1.1369	82.42	-0.2392	0.0257	0.2649	1431.4484	0.181764	-420.403614	-420.393201	-420.392257	-420.439578	36.777	
C	 0.3490567461	 1.5137835453	-0.0302155001	-0.387307
C	 0.2249113241	-0.0124111918	 0.0049592268	-0.181216
C	 0.4567698409	-0.6446182089	-1.3525016904	 0.137443
O	 1.8464417539	-0.4849033404	-1.8102833792	-0.284815
C	 2.0703187097	-1.8521138012	-1.75574408	 0.433602
N	 3.1233721643	-2.5145651253	-1.8870414453	-0.335193
C	 4.3732791106	-1.8155248809	-2.1550173198	-0.33757
C	 0.6209891961	-2.1915620065	-1.4264106547	-0.161562
N	 0.2711670628	-2.9856339223	-0.2690094194	-0.512573
H	 1.3398991193	 1.8122392455	-0.3846072316	 0.134858
H	-0.3944798625	 1.9559433931	-0.7024931677	 0.115911
H	 0.1984365484	 1.9438557585	 0.9641371092	 0.115298
H	 0.9421756469	-0.4265645468	 0.7239622481	 0.095586
H	-0.7709098379	-0.3147215287	 0.3497054982	 0.117321
H	-0.218698052	-0.2201555776	-2.1030291914	 0.085448
H	 4.307269788	-0.7266616101	-2.0443621644	 0.124626
H	 5.1470977232	-2.1953182809	-1.4795163873	 0.122648
H	 4.703062726	-2.0403794816	-3.1760290444	 0.12753
H	 0.1025071623	-2.6012263183	-2.2977413843	 0.109456
H	 0.2983379395	-3.9707695702	-0.5091730509	 0.24341
H	 0.9554864405	-2.857945151	 0.4700365484	 0.237099
64.6466	90.1583	97.3432	146.359	168.8441	195.1901	208.0133	228.186	286.0273	326.9802	444.9323	484.8108	587.9259	674.4457	737.7491	782.0278	818.8894	852.5788	894.7078	939.4517	985.2502	1042.4958	1063.403	1083.7873	1118.7034	1123.2568	1131.1707	1178.9672	1196.5728	1223.4236	1238.4584	1276.2724	1307.5776	1346.7588	1407.9958	1413.292	1430.1803	1440.7776	1472.5163	1493.8093	1497.7141	1498.6548	1508.2447	1671.5019	1838.089	3015.2674	3032.1748	3037.0683	3049.7291	3072.5698	3078.3181	3078.9331	3087.5839	3105.3094	3118.1971	3508.3486	3583.394
CCC1OC(=NC)C1N	CC[C@H]1OC(=NC)[C@H]1N	
InChI=1S/C6H12N2O/c1-3-4-5(7)6(8-2)9-4/h4-5H,3,7H2,1-2H3	InChI=1S/C6H12N2O/c1-3-4-5(7)6(8-2)9-4/h4-5H,3,7H2,1-2H3/t4-,5+/m1/s1
