19
gdb 84292	2.30849	1.66998	1.23172	3.0088	77.29	-0.2412	-0.0538	0.1874	1080.9776	0.15806	-423.067086	-423.058112	-423.057168	-423.100344	34.49	
C	-0.3610997676	 1.5274438406	-0.0477798622	-0.420735
C	 0.0368641274	 0.0485217492	 0.0052395636	-0.063468
C	 0.974724396	-0.372397919	-1.1053981388	-0.048035
C	 1.9488967726	-1.2050172016	-0.7118250525	-0.197932
C	 1.7969092074	-1.466759264	 0.7285110216	 0.340671
O	 2.3195848912	-2.3177853669	 1.4157135613	-0.361317
C	 0.7552688451	-0.4673023294	 1.282751054	 0.271868
C	 1.5007394464	 0.6166025985	 2.0760691473	-0.425906
O	-0.1548506852	-1.1528003347	 2.1251247198	-0.480457
H	 0.5073196556	 2.1899317725	 0.0074784294	 0.123069
H	-0.8859675151	 1.7442334972	-0.9840636979	 0.116652
H	-1.0349278415	 1.7785573111	 0.7761095477	 0.134313
H	-0.8806062658	-0.5488743317	-0.0817880806	 0.117539
H	 0.8251802338	-0.0308897959	-2.1256271102	 0.116489
H	 2.6995901516	-1.6771493974	-1.3323575442	 0.121296
H	 2.194135991	 1.185465992	 1.4484968684	 0.116286
H	 0.7870995616	 1.3071889825	 2.5321964115	 0.126221
H	 2.0787655543	 0.1370990823	 2.8717975593	 0.127127
H	 0.369515051	-1.8269561854	 2.5809719525	 0.286317
61.0267	184.0897	240.6461	248.7066	272.6789	283.7344	298.9191	326.8438	375.0608	412.7231	499.4621	543.9952	610.2011	684.9564	726.192	740.5713	846.3468	853.9081	915.8382	955.7844	998.4521	1016.783	1060.3147	1088.5913	1095.9129	1134.7581	1162.1862	1181.6418	1229.7061	1308.1937	1335.9707	1359.4029	1393.5676	1394.861	1412.4313	1483.5428	1489.7754	1504.1732	1506.2879	1636.4376	1806.0103	3020.7957	3037.6723	3040.9641	3105.0068	3111.1223	3119.6526	3125.3887	3178.2127	3224.8319	3735.9655
CC1C=CC(=O)C1(C)O	C[C@H]1C=CC(=O)[C@]1(C)O	
InChI=1S/C7H10O2/c1-5-3-4-6(8)7(5,2)9/h3-5,9H,1-2H3	InChI=1S/C7H10O2/c1-5-3-4-6(8)7(5,2)9/h3-5,9H,1-2H3/t5-,7+/m0/s1
