17
gdb 128814	3.58701	1.04157	0.85554	4.2351	71.4	-0.2273	0.0231	0.2503	1335.8009	0.1375	-451.338642	-451.32969	-451.328746	-451.373068	31.958	
C	 0.5474797002	 0.5439336311	-0.486499536	-0.232338
O	-0.3466051919	 0.1752893937	 0.5445159895	-0.231109
C	 0.2496888542	-0.5751399089	 1.5882201357	-0.182083
C	 0.4498600584	-2.0230331561	 1.2513557515	 0.343692
N	-0.3093512331	-2.9659483729	 1.7764621937	-0.267879
N	 0.1960090533	-4.0970598697	 1.1947351638	-0.248548
C	 1.2123433307	-3.776011954	 0.3635475926	 0.410281
N	 1.9713744117	-4.7044209791	-0.3199453165	-0.599903
N	 1.4051784318	-2.4706656141	 0.3725248833	-0.358205
H	 0.9606724378	-0.3266140712	-1.0098879243	 0.128077
H	-0.0204845486	 1.1572925095	-1.1910369273	 0.117653
H	 1.3871131957	 1.1399726686	-0.0939407194	 0.097533
H	 1.2147716447	-0.1296883081	 1.8760168656	 0.096787
H	-0.4329024525	-0.5160327832	 2.4394174891	 0.124007
H	-0.1554302941	-5.0006424585	 1.4623493882	 0.274705
H	 1.4542119185	-5.4758239587	-0.718563802	 0.256868
H	 2.5635304532	-4.2586859984	-1.0072001977	 0.270463
43.9621	105.9124	125.6656	206.6079	257.3029	262.5173	294.8325	389.3507	429.4088	448.1305	486.1832	636.6572	664.7121	755.8463	761.584	834.2195	936.083	1002.9008	1017.5913	1064.6688	1112.687	1131.6168	1158.3415	1185.496	1211.7179	1300.3687	1338.6774	1383.4736	1410.2053	1470.9489	1481.1346	1484.8932	1491.8543	1515.1505	1562.339	1604.7225	1660.1624	2976.5509	2987.2689	3056.5495	3105.7032	3112.1805	3558.9758	3657.5644	3673.0172
COCC1=NNC(N)=N1	COCc1n[nH]c(N)n1	
InChI=1S/C4H8N4O/c1-9-2-3-6-4(5)8-7-3/h2H2,1H3,(H3,5,6,7,8)	InChI=1S/C4H8N4O/c1-9-2-3-6-4(5)8-7-3/h2H2,1H3,(H3,5,6,7,8)
