18
gdb 117404	7.33358	0.5779	0.54112	1.24	75.94	-0.2636	-0.0188	0.2448	2038.8391	0.143648	-476.233366	-476.22284	-476.221896	-476.270392	34.782	
C	 0.066702201	 1.4173083557	 0.2246964996	-0.226613
O	 0.0558556886	 0.0224016762	 0.0161524363	-0.214166
C	 0.5892688655	-0.6847613222	 1.0914394723	-0.175358
C	 0.5410001466	-2.1691271232	 0.7877122178	 0.425369
O	 0.1199922401	-2.6880375443	-0.2030756667	-0.31335
O	 1.0726765203	-2.8379759388	 1.862706635	-0.226743
C	 1.1288606417	-4.2113535164	 1.8035751164	 0.114868
N	 1.6119884689	-4.829999845	 2.7801132589	-0.191737
C	 1.6587762864	-6.2766805381	 2.6896496033	-0.319128
H	 1.0893564015	 1.8008431251	 0.3645993239	 0.110067
H	-0.3667143413	 1.8774134247	-0.6654361712	 0.138161
H	-0.5320785156	 1.7029927556	 1.1035249027	 0.110073
H	 1.6388179019	-0.4124595541	 1.2978632737	 0.126828
H	 0.0344945494	-0.5100201551	 2.0295329655	 0.126837
H	 0.7307877423	-4.627078502	 0.8755059749	 0.13506
H	 1.0981232837	-6.7074107747	 3.5262006643	 0.136101
H	 1.2542082501	-6.681741153	 1.7495504019	 0.107623
H	 2.6966348988	-6.6100869305	 2.7963315112	 0.136108
48.9299	67.4733	88.9469	99.04	111.1772	210.4701	214.4371	233.271	323.3731	328.9171	368.9549	390.2328	576.6503	582.8216	740.2315	936.1531	990.8802	1013.8269	1034.5882	1063.4612	1114.8765	1141.6679	1174.3025	1175.5545	1183.6075	1188.7133	1245.0467	1248.7937	1368.3184	1418.6291	1447.2372	1470.982	1481.0065	1486.7272	1491.325	1501.292	1515.3208	1779.1978	1869.1075	2958.76	2976.6413	2982.7591	2985.5512	3021.889	3071.8738	3089.7973	3114.0893	3127.2522
COCC(=O)OC=NC	COCC(=O)OC=NC	
InChI=1S/C5H9NO3/c1-6-4-9-5(7)3-8-2/h4H,3H2,1-2H3	InChI=1S/C5H9NO3/c1-6-4-9-5(7)3-8-2/h4H,3H2,1-2H3
