21
gdb 65093	3.02263	1.3741	1.13701	1.739	82.31	-0.2378	0.0852	0.323	1163.3315	0.181809	-387.04607	-387.037442	-387.036497	-387.079324	33.921	
C	-0.0471854602	 1.5032463759	 0.1228517555	-0.474571
C	 0.0320868892	-0.0041636667	-0.0285169253	 0.231548
C	 1.2122075861	-0.586425265	-0.7760499886	-0.310901
C	 1.1233553432	-0.7447930006	 0.7195179464	-0.298151
C	-1.2827953093	-0.6875582712	-0.1552982009	 0.412142
C	-1.5920644319	-2.1685195476	-0.4665746887	-0.307545
C	-2.9596607888	-1.7071191411	-1.0825373958	-0.238698
C	-2.5837394933	-0.2671880976	-0.7177597112	-0.059048
O	-2.3560417096	-0.2433639199	 0.6990182668	-0.297186
H	 0.9506146587	 1.9304063495	 0.2590329367	 0.10919
H	-0.4894980011	 1.9667304042	-0.7664900088	 0.113568
H	-0.6623022933	 1.7742460584	 0.9847816245	 0.13797
H	 1.0624709768	-1.4657642415	-1.3922358354	 0.111584
H	 1.9352535288	 0.1152748329	-1.1778669158	 0.112481
H	 1.7906665476	-0.1608600389	 1.3440550782	 0.113343
H	 0.8957617198	-1.7299793468	 1.1118755519	 0.116242
H	-0.932062493	-2.6170699413	-1.2120198349	 0.107579
H	-1.6442442605	-2.8147847142	 0.4126058746	 0.108392
H	-3.0116906772	-1.8814930232	-2.1599208968	 0.103953
H	-3.8679417045	-2.0833126566	-0.6059369594	 0.110317
H	-2.8982112874	 0.6617649013	-1.1805691029	 0.097792
50.9931	163.3366	196.9118	205.4953	284.4563	307.3136	344.7951	405.0039	472.2295	515.9005	545.3932	732.7382	776.1923	782.2549	822.1214	860.5241	867.2861	921.8042	931.1375	949.2163	951.766	960.7459	1007.2531	1041.1346	1056.1451	1071.2303	1080.3595	1122.3627	1127.3934	1159.4371	1190.9242	1211.5684	1217.3888	1236.0647	1272.7574	1319.1856	1330.0941	1412.6636	1456.985	1462.9116	1469.3497	1486.0081	1491.3245	1501.4342	1516.9651	3033.2556	3063.4477	3070.9766	3096.6234	3114.7836	3120.8053	3130.7842	3133.2703	3137.4615	3178.7426	3211.0531	3225.3746
CC1(CC1)C12CCC1O2	CC1(CC1)[C@]12CC[C@H]1O2	
InChI=1S/C8H12O/c1-7(4-5-7)8-3-2-6(8)9-8/h6H,2-5H2,1H3	InChI=1S/C8H12O/c1-7(4-5-7)8-3-2-6(8)9-8/h6H,2-5H2,1H3/t6-,8+/m1/s1
