22
gdb 115054	2.55462	1.18144	0.87094	1.6409	82.79	-0.2429	0.0244	0.2674	1410.0848	0.194486	-404.377358	-404.367682	-404.366738	-404.412699	35.289	
C	-0.1110689714	 1.7044861877	-0.0552878717	-0.392481
C	-0.0026217866	 0.1909062122	 0.1524728347	-0.180028
C	-1.3456442247	-0.5202453493	 0.0115623534	 0.081947
O	-1.8491564104	-0.298134235	-1.342829748	-0.233379
C	-1.9553804517	-1.5251616483	-1.8989836783	 0.114567
N	-1.71864757	-2.560603244	-1.211613759	-0.272958
C	-1.3712112078	-2.0818488187	 0.1452181987	 0.00512
C	-0.0987198984	-2.7617378737	 0.6645752939	-0.174839
C	-0.2730541916	-4.2753883052	 0.8162832131	-0.387819
H	 0.8666268144	 2.1846620882	 0.0460868169	 0.113176
H	-0.5026803864	 1.9324485496	-1.0499953305	 0.135132
H	-0.7839413314	 2.1572753811	 0.6816688929	 0.113764
H	 0.7074248973	-0.2350452938	-0.5655281212	 0.107942
H	 0.3956130724	-0.0195124273	 1.1517287104	 0.10392
H	-2.0732657376	-0.0579906175	 0.6869427189	 0.08875
H	-2.252583146	-1.5177161609	-2.9425024525	 0.13685
H	-2.1948816692	-2.3704798145	 0.8124483588	 0.084889
H	 0.7305339258	-2.5534435063	-0.0206860741	 0.101184
H	 0.1716678197	-2.3231974373	 1.6329950152	 0.093814
H	 0.6503455318	-4.7424930191	 1.1718855763	 0.106751
H	-1.0651228368	-4.5106810911	 1.5362602856	 0.109906
H	-0.5461634714	-4.7278239966	-0.1399342632	 0.143793
36.8568	104.6374	116.0906	155.2625	214.5615	225.1278	253.2709	311.2426	343.2167	450.7048	478.5957	574.4258	743.2818	758.0858	801.2575	823.6967	876.7567	891.5086	942.1285	964.2066	966.409	1008.7592	1057.001	1065.4494	1092.0646	1116.2257	1136.35	1157.7754	1171.9325	1276.0334	1295.1948	1301.6627	1318.376	1325.8687	1346.5414	1367.151	1393.2242	1403.0921	1409.772	1412.9021	1471.6728	1486.6353	1495.9272	1497.318	1509.0078	1510.1398	1711.4601	3000.9403	3026.8991	3035.9974	3036.8084	3038.7425	3048.9466	3067.479	3079.838	3100.6237	3104.2163	3123.8868	3129.2813	3206.9538
CCC1OC=NC1CC	CC[C@H]1OC=N[C@H]1CC	
InChI=1S/C7H13NO/c1-3-6-7(4-2)9-5-8-6/h5-7H,3-4H2,1-2H3	InChI=1S/C7H13NO/c1-3-6-7(4-2)9-5-8-6/h5-7H,3-4H2,1-2H3/t6-,7+/m0/s1
