22
gdb 73817	2.59534	1.44512	1.02772	1.791	90.89	-0.2111	0.0263	0.2375	1241.1147	0.194335	-367.217764	-367.208395	-367.207451	-367.251695	35.679	
C	 0.057766793	 1.5215897115	-0.1099263132	-0.493416
C	-0.0057460862	 0.0271692496	-0.0684595009	 0.207578
C	-1.0661464038	-0.7572631843	 0.1823883423	 0.167904
C	-2.4690648466	-0.33559153	 0.5013452871	-0.517739
C	-0.6848503033	-2.2029343422	 0.0814581821	 0.29315
C	-1.4916432516	-3.3050409665	 0.6624822187	-0.297858
N	-1.4393364162	-3.129514821	-0.8002272069	-0.358536
C	 0.8408899929	-2.2349840529	-0.0051805728	-0.29726
C	 1.2392483464	-0.7859012936	-0.3651617926	-0.308013
H	 0.7690375109	 1.9043010133	 0.6337447432	 0.12537
H	 0.4186694902	 1.8691084345	-1.0869571464	 0.12578
H	-0.9085476009	 1.9950358299	 0.0789934227	 0.119989
H	-2.6230324519	 0.7343102517	 0.3462732512	 0.127198
H	-3.2028138053	-0.8622116258	-0.1228185873	 0.117106
H	-2.7273589137	-0.5612837332	 1.543622391	 0.130823
H	-0.9916136051	-4.1977160894	 1.0316010785	 0.112115
H	-2.4115770051	-3.059334738	 1.1875119687	 0.104182
H	-2.2965553074	-2.6855154048	-1.1237219425	 0.223453
H	 1.2608160587	-2.5088337038	 0.9685372594	 0.101508
H	 1.1766069659	-2.9757209777	-0.733664461	 0.113084
H	 1.5196300797	-0.6813772816	-1.4230227209	 0.105601
H	 2.1041639095	-0.4350856658	 0.2111754996	 0.097981
74.6311	130.5117	145.6792	165.0302	240.1399	262.7496	303.7521	342.6911	401.1861	437.3991	486.2498	587.4886	620.2146	646.1282	751.2698	838.6751	873.4785	895.4103	929.5415	969.2807	970.2738	998.6565	1006.4301	1048.9615	1064.8079	1085.1851	1110.1234	1118.2094	1167.6556	1181.2489	1220.6369	1242.4618	1266.593	1301.6984	1338.3801	1348.241	1390.1774	1412.9504	1420.8427	1478.3634	1479.6886	1482.663	1485.8459	1493.0223	1498.1842	1510.0249	1729.714	3005.2957	3014.5416	3016.8224	3037.1048	3053.7576	3056.4038	3057.8082	3097.9166	3112.022	3113.6772	3121.7681	3179.7919	3483.8376
CC1=C(C)C2(CN2)CC1	CC1=C(C)[C@]2(CN2)CC1	
InChI=1S/C8H13N/c1-6-3-4-8(5-9-8)7(6)2/h9H,3-5H2,1-2H3	InChI=1S/C8H13N/c1-6-3-4-8(5-9-8)7(6)2/h9H,3-5H2,1-2H3/t8-/m1/s1
