16
gdb 21252	6.94345	1.26713	1.08626	2.7954	68.34	-0.2095	0.0462	0.2557	1082.3854	0.130878	-379.935535	-379.927393	-379.926449	-379.968307	28.944	
C	 0.0072247183	 1.429252087	-0.0366535649	-0.263107
O	-0.0505819871	 0.0125627832	-0.0070162286	-0.256484
C	 0.5563715113	-0.6468765074	-1.0113090726	 0.522594
C	 0.6382647879	-2.0083556777	-1.2078031255	-0.450775
C	 1.3824263965	-2.1480699004	-2.4057817135	 0.378803
C	 1.777660285	-3.4138144318	-3.0988807367	-0.487754
N	 1.7340371811	-0.9705745838	-2.9132374852	-0.312134
N	 1.2174840387	-0.0577142718	-2.0413266012	-0.296102
H	 1.0433993812	 1.7896011301	 0.0130936615	 0.127568
H	-0.4774486871	 1.8317924506	-0.9361081742	 0.12759
H	-0.5329253931	 1.7769858697	 0.8443525444	 0.149395
H	 0.221096463	-2.7743970668	-0.5762468474	 0.1021
H	 0.8999532238	-4.0025065135	-3.3877195744	 0.125932
H	 2.3484922761	-3.1793935044	-3.9999925887	 0.136706
H	 2.3946326422	-4.0478679242	-2.4526136639	 0.125921
H	 1.3578063324	 0.9195934613	-2.221292089	 0.269748
64.314	105.0447	190.632	215.2823	233.7433	329.5309	336.9144	416.0751	493.6867	615.2923	678.9604	691.2449	740.7953	770.0179	987.0469	1002.8473	1023.8114	1065.4011	1079.6946	1149.2291	1176.2578	1189.0246	1218.6993	1306.2937	1404.7328	1427.0768	1471.7894	1479.3924	1483.154	1493.0588	1494.2377	1510.4869	1543.5081	1631.8068	3000.6929	3034.2005	3059.9634	3085.3523	3130.9159	3144.798	3273.5172	3700.0713
COC1=CC(C)=NN1	COc1cc(C)n[nH]1	
InChI=1S/C5H8N2O/c1-4-3-5(8-2)7-6-4/h3H,1-2H3,(H,6,7)	InChI=1S/C5H8N2O/c1-4-3-5(8-2)7-6-4/h3H,1-2H3,(H,6,7)
