20
gdb 117365	2.85912	0.92137	0.75176	2.969	77.23	-0.2392	0.0316	0.2708	1557.1999	0.169983	-440.30091	-440.290947	-440.290003	-440.337811	34.984	
C	 0.8504625233	 1.1079476205	-0.2063463997	-0.370759
C	 0.6225164788	-0.3723102304	 0.1105768276	-0.143376
N	 0.9386433679	-1.2481600336	-1.0059078644	-0.301627
C	-0.0189944274	-1.8452635761	-1.7675590529	 0.380775
O	-1.2161100627	-1.7168911904	-1.5795094013	-0.377963
C	 0.535671444	-2.6905895532	-2.9243329668	-0.334147
C	 1.6248230895	-3.6570350604	-2.5196031023	 0.082397
C	 2.8106568888	-3.8906027783	-3.3533141504	-0.178919
O	 2.8965584522	-3.0804705066	-2.1769038061	-0.239861
H	 1.8932738968	 1.3007472293	-0.4805619766	 0.112405
H	 0.2147032665	 1.4260475864	-1.0376122658	 0.131868
H	 0.6121638341	 1.7263382351	 0.6651342951	 0.116825
H	 1.2257277539	-0.6703893097	 0.9764501528	 0.105023
H	-0.4266754693	-0.5520456846	 0.3545974154	 0.14537
H	 1.9049418866	-1.416489678	-1.2452230472	 0.263758
H	-0.3110582729	-3.2340426295	-3.3503002835	 0.134153
H	 0.9226633653	-2.0128076887	-3.6944666649	 0.12073
H	 1.3167998608	-4.4528006264	-1.8409576061	 0.109084
H	 3.3380368313	-4.8410982315	-3.2967274019	 0.123464
H	 2.9126954624	-3.3570247838	-4.297131911	 0.1208
24.9679	56.4517	80.1523	110.6879	165.4531	218.6695	296.0099	343.4042	351.3717	443.3208	464.9893	571.6751	626.8194	728.2555	774.6417	797.3425	868.7699	888.775	921.5853	948.6158	967.1506	1076.9642	1098.0474	1100.3779	1131.9278	1158.9225	1170.8459	1180.73	1228.7664	1287.7325	1292.1264	1306.4553	1328.0273	1393.9228	1410.3745	1436.5728	1459.011	1481.4099	1492.4271	1502.2628	1527.5053	1566.2446	1781.5069	3034.5483	3034.7432	3043.8952	3088.8153	3097.4162	3107.5861	3114.4873	3120.9239	3125.978	3178.0718	3606.1053
CCNC(=O)CC1CO1	CCNC(=O)C[C@H]1CO1	
InChI=1S/C6H11NO2/c1-2-7-6(8)3-5-4-9-5/h5H,2-4H2,1H3,(H,7,8)	InChI=1S/C6H11NO2/c1-2-7-6(8)3-5-4-9-5/h5H,2-4H2,1H3,(H,7,8)/t5-/m0/s1
