19
gdb 98444	3.23935	1.11317	0.96734	4.1228	73.07	-0.2389	0.0255	0.2644	1276.2602	0.159348	-456.345294	-456.335618	-456.334674	-456.380755	34.352	
C	-0.0740414056	 1.4493024802	 0.1307470699	-0.334767
N	 0.0636067325	 0.0150675573	-0.0083569333	-0.317686
C	 0.6095472706	-0.5664239294	-1.1045862774	 0.371571
O	 1.063985315	 0.0453149896	-2.0585502044	-0.392326
C	 0.5773473714	-2.1007180396	-1.0877443464	 0.135171
N	 0.3810769386	-2.6220155231	 0.2617871766	-0.585952
C	-0.4153750455	-2.7098379232	-2.1153887732	-0.090021
O	 0.6308724112	-3.4306429049	-2.7836818305	-0.27153
C	 1.6454583311	-2.7741720725	-1.9928403101	-0.103932
H	 0.4152012244	 1.8073488201	 1.043257167	 0.12461
H	 0.40158395	 1.9110886105	-0.7356768659	 0.168735
H	-1.1276982458	 1.7501031112	 0.1606039048	 0.126369
H	-0.309632012	-0.6149675025	 0.6869287381	 0.258047
H	 0.1691614268	-3.6147221775	 0.2249403252	 0.242218
H	 1.2387584206	-2.5299463029	 0.8010882345	 0.236651
H	-1.1774533484	-3.3703214367	-1.6812196184	 0.098228
H	-0.8966483729	-1.9753945622	-2.7710192637	 0.119644
H	 2.2321855625	-2.0651397624	-2.5834879809	 0.128812
H	 2.3007622158	-3.4915012319	-1.483214902	 0.086157
46.4881	71.8123	95.2701	130.9396	217.7684	245.883	299.3753	338.4947	369.7078	394.9915	436.6439	545.2204	657.7662	754.7593	785.914	850.9971	878.0598	914.8036	964.9795	976.7863	1015.4921	1035.8681	1049.6447	1152.1483	1155.6492	1162.6589	1167.4698	1180.202	1226.9434	1265.0843	1305.9237	1343.2764	1375.594	1438.6987	1493.7204	1494.8427	1500.8237	1521.3104	1565.6174	1654.3053	1774.1825	3008.2757	3021.5668	3026.3898	3066.829	3077.8626	3097.2542	3149.025	3481.0245	3560.3461	3600.9232
CNC(=O)C1(N)COC1	CNC(=O)C1(N)COC1	
InChI=1S/C5H10N2O2/c1-7-4(8)5(6)2-9-3-5/h2-3,6H2,1H3,(H,7,8)	InChI=1S/C5H10N2O2/c1-7-4(8)5(6)2-9-3-5/h2-3,6H2,1H3,(H,7,8)
