19
gdb 61674	4.47527	0.78857	0.75857	5.9799	77.64	-0.2493	0.0206	0.2699	1526.9778	0.159501	-419.186206	-419.177145	-419.176201	-419.220869	32.811	
O	 0.0879708796	 1.4454396401	-0.1535509469	-0.422336
C	 0.044017264	 0.0577226645	 0.0784738882	-0.008527
C	 0.6257070012	-0.7061770772	-1.1347311763	-0.182835
N	-0.0227051063	-0.2158697517	-2.3322324383	-0.093725
C	-1.328361029	-0.7844426865	-2.7513759907	-0.168354
C	-0.8686522204	-0.6672841185	-4.22388158	-0.230009
C	 0.5648354543	-0.5292349096	-3.6559787732	-0.164478
C	 0.800218319	-0.2643521364	 1.2978440238	 0.286681
N	 1.3900570046	-0.5613954517	 2.2453359307	-0.317947
H	-0.0279011001	 1.5168040985	-1.116500982	 0.287958
H	-0.9932126136	-0.2815441938	 0.243585966	 0.113168
H	 1.6947326179	-0.4800064034	-1.2047660194	 0.131819
H	 0.5127291851	-1.7939745873	-0.9884710831	 0.104181
H	-1.4529485179	-1.8308795833	-2.4318784827	 0.097971
H	-2.2051438183	-0.2112677156	-2.4360874137	 0.115069
H	-1.0650338332	-1.5190610153	-4.8742584898	 0.115725
H	-1.2217265864	 0.2467022278	-4.7038399816	 0.121506
H	 1.2142487205	 0.2515341103	-4.0628928135	 0.114496
H	 1.1083613692	-1.4856112009	-3.6642230472	 0.099635
64.9318	77.9679	100.9199	167.3008	208.8604	269.1639	341.3505	374.8734	439.1165	528.4433	570.4386	599.3334	689.8667	775.1963	843.3639	879.3854	925.4205	940.6813	962.6955	991.8823	1023.9557	1105.8351	1119.3633	1134.4157	1151.9601	1210.2065	1219.1965	1227.5229	1265.815	1273.9879	1299.614	1303.9368	1338.2645	1353.3714	1383.6007	1449.7703	1480.5344	1490.696	1505.1591	1533.5327	2365.9403	2954.1434	2963.5102	2984.3161	2996.6028	3074.1482	3076.1005	3080.5177	3093.3769	3149.5188	3652.5325
OC(CN1CCC1)C#N	O[C@@H](CN1CCC1)C#N	
InChI=1S/C6H10N2O/c7-4-6(9)5-8-2-1-3-8/h6,9H,1-3,5H2	InChI=1S/C6H10N2O/c7-4-6(9)5-8-2-1-3-8/h6,9H,1-3,5H2/t6-/m1/s1
