21
gdb 92887	3.00637	1.16331	0.89022	1.3713	88.55	-0.2122	-0.0169	0.1953	1346.568	0.183101	-387.108334	-387.099249	-387.098305	-387.142018	34.953	
C	 0.0168543432	 1.5728037847	 0.1931120208	-0.481231
C	-0.019797297	 0.0737994084	-0.0039202254	 0.305921
C	-1.1930964568	-0.5765024701	-0.0465506441	-0.178528
C	-1.393316426	-2.0544272285	-0.2372952146	-0.257399
C	-0.5322251803	-2.9208814132	 0.6900491094	 0.115511
O	-1.1598866156	-4.2016367267	 0.7406988897	-0.435781
C	 0.9114695895	-3.0712893219	 0.2050488279	-0.285585
C	 1.6902098649	-1.828221157	-0.116134422	-0.069913
C	 1.3004339751	-0.5472242128	-0.1836540924	-0.114316
H	 0.5102388852	 2.0690855469	-0.652289016	 0.12268
H	-0.9875447319	 1.9911501152	 0.2927626903	 0.118461
H	 0.588556797	 1.842021931	 1.0899646127	 0.124074
H	-2.098519115	 0.0124341691	 0.0793506001	 0.080077
H	-2.4381428532	-2.3107728023	-0.0405499337	 0.111703
H	-1.1957817685	-2.3457783746	-1.2787205367	 0.112629
H	-0.5355441242	-2.4600214127	 1.6895223944	 0.071989
H	-0.6320710886	-4.770345833	 1.3104778628	 0.278968
H	 1.4757763282	-3.6393584639	 0.9616245503	 0.094374
H	 0.8962168965	-3.7215026655	-0.6825229458	 0.120439
H	 2.7415783944	-2.0223886726	-0.3230448923	 0.088707
H	 2.0880024832	 0.1701796896	-0.4123194254	 0.07722
66.4437	120.8591	186.6337	239.2032	273.8682	310.6941	342.4243	345.3342	363.5779	436.2233	452.5221	554.7795	624.6786	692.4187	761.0151	823.524	859.6136	892.7572	896.8259	935.9493	1014.7956	1017.1122	1050.4829	1070.3628	1075.6551	1095.3048	1106.8846	1164.6457	1188.6355	1244.2989	1272.6124	1291.3317	1336.7361	1346.3175	1372.5337	1407.0697	1413.343	1431.1267	1455.5782	1467.6399	1479.7864	1481.9545	1495.4652	1689.4212	1724.0286	2978.4484	2984.9096	3007.8023	3018.1265	3020.2784	3065.6438	3085.3274	3115.3663	3118.6505	3142.8259	3148.9261	3813.4164
CC1=CCC(O)CC=C1	CC1=CC[C@@H](O)CC=C1	
InChI=1S/C8H12O/c1-7-3-2-4-8(9)6-5-7/h2-3,5,8-9H,4,6H2,1H3	InChI=1S/C8H12O/c1-7-3-2-4-8(9)6-5-7/h2-3,5,8-9H,4,6H2,1H3/t8-/m0/s1
