19
gdb 112853	2.88706	1.35661	1.07609	2.4205	72.02	-0.256	0.078	0.334	1179.7757	0.158057	-460.140364	-460.131602	-460.130658	-460.174147	32.159	
C	 0.163208468	 1.3370707523	 0.1566759024	-0.238198
O	 0.0932056995	-0.0743885012	 0.0475639955	-0.236985
C	 0.5880687084	-0.5679144539	-1.1476812104	 0.225445
O	 1.9899863199	-0.3381230826	-1.2503999939	-0.298298
C	 2.6607480909	-1.4544370105	-1.8444513599	 0.113328
C	 4.0124237227	-1.6348931261	-1.1702058372	-0.400723
C	 1.6981833975	-2.6184946635	-1.6771448606	 0.011036
O	 1.2638287057	-2.777691063	-0.3243394959	-0.238314
C	 0.4177831474	-2.0715562866	-1.2347271286	-0.024072
H	 1.2016462711	 1.685476213	 0.1800568941	 0.131998
H	-0.3575486958	 1.8274110585	-0.6801583085	 0.103573
H	-0.3323140735	 1.607194987	 1.0913437092	 0.129055
H	 0.0756184314	-0.0788192238	-2.0000995812	 0.054196
H	 2.7960345264	-1.2740425308	-2.9239891407	 0.073822
H	 3.8681801482	-1.8889837815	-0.1175203808	 0.143611
H	 4.5810227139	-2.4335515901	-1.6574777898	 0.112597
H	 4.5924430449	-0.710713121	-1.2346505297	 0.126945
H	 1.8023084371	-3.5246667537	-2.267619524	 0.102418
H	-0.5536499537	-2.5095579624	-1.4421607001	 0.108568
73.5404	105.4174	158.4738	178.1324	226.627	241.4477	331.409	377.5613	480.4422	503.1484	569.9565	674.7266	805.8769	836.2343	844.1941	898.3998	939.5766	949.5162	1004.162	1032.4292	1048.4943	1076.9268	1101.2944	1129.5971	1153.7875	1168.7612	1180.0183	1234.3626	1258.163	1307.5543	1337.7966	1368.4865	1375.024	1400.9254	1412.0703	1448.4296	1481.6589	1485.09	1485.8717	1499.591	1510.8203	2903.3426	2965.5973	2989.7447	3045.4454	3070.3642	3117.6279	3128.5892	3136.9581	3153.8203	3171.5958
COC1OC(C)C2OC12	CO[C@H]1O[C@@H](C)[C@H]2O[C@@H]12	
InChI=1S/C6H10O3/c1-3-4-5(9-4)6(7-2)8-3/h3-6H,1-2H3	InChI=1S/C6H10O3/c1-3-4-5(9-4)6(7-2)8-3/h3-6H,1-2H3/t3-,4+,5+,6-/m0/s1
