16
gdb 93459	2.95022	1.45257	1.00893	2.1775	67.68	-0.2748	-0.0261	0.2487	1127.9708	0.123864	-475.064078	-475.05589	-475.054946	-475.097387	30.067	
C	-0.1386813478	 1.5256813573	-0.0634101354	-0.397171
C	 0.0898796444	 0.0279102282	 0.0277968103	 0.018232
O	 0.8132755599	-0.3903457911	-1.1246075273	-0.240019
C	 0.9327244507	-1.7871779844	-1.1839588507	-0.219506
C	 1.4971568054	-2.4111246575	 0.0821279022	 0.388042
O	 1.9280005169	-3.5223700651	 0.147832868	-0.292069
O	 1.4909816046	-1.6211065081	 1.2070711677	-0.230375
C	 0.8683458363	-0.3788228218	 1.2627932294	 0.414946
N	 0.947751368	 0.32747783	 2.2997494926	-0.4897
H	 0.8185672883	 2.0486175748	-0.1194010881	 0.140738
H	-0.7212315331	 1.7503619037	-0.9598109229	 0.125618
H	-0.6723804291	 1.8784349728	 0.8196473011	 0.149603
H	-0.8816183169	-0.4988519314	 0.0548397692	 0.098152
H	-0.0379876348	-2.2738106979	-1.3821945241	 0.133745
H	 1.6052940681	-2.0368700383	-2.0071624079	 0.16075
H	 1.5006389093	-0.1417748212	 3.019894456	 0.239016
52.4477	113.2929	200.0303	230.0753	288.2397	357.4188	365.8747	444.9912	478.5188	538.0537	567.8669	658.0988	706.3967	798.9873	874.0207	907.331	932.4514	1023.8438	1054.159	1085.2994	1116.679	1142.1173	1159.2738	1207.2796	1274.0393	1304.2488	1356.308	1382.3424	1385.1502	1411.1582	1464.7989	1480.7647	1492.2095	1773.228	1880.3005	2940.9123	2968.1827	3063.7735	3118.1871	3140.274	3158.4454	3472.8587
CC1OCC(=O)OC1=N	C[C@H]1OCC(=O)O[C]1[NH]	
InChI=1S/C5H7NO3/c1-3-5(6)9-4(7)2-8-3/h3,6H,2H2,1H3	InChI=1S/C5H7NO3/c1-3-5(6)9-4(7)2-8-3/h3,6H,2H2,1H3/t3-/m1/s1
