17
gdb 9835	3.88999	1.55785	1.23706	1.9871	65.89	-0.2259	0.0165	0.2425	1005.0251	0.141167	-401.009617	-401.000862	-400.999918	-401.043071	31.365	
C	-0.0781797414	 1.355848773	-0.0012799723	-0.240301
O	 0.0069274424	-0.0736841062	-0.0357065228	-0.241841
C	 0.6010139886	-0.5855484136	-1.1304033677	 0.465505
O	 1.0243761917	 0.0908546623	-2.0383797037	-0.386357
C	 0.6231016952	-2.0816445144	-1.1043491729	 0.168593
N	 0.2870834499	-2.6916407607	 0.1594959345	-0.572339
C	 0.2647744069	-2.7207094568	-2.4517639694	-0.293881
C	 1.6838648048	-2.7268438967	-1.9591864596	-0.274861
H	 0.9192209801	 1.8008578725	-0.035340116	 0.142843
H	-0.6569501681	 1.7292222852	-0.849992125	 0.139315
H	-0.5736626334	 1.6005099725	 0.9383037018	 0.132293
H	-0.6508006088	-2.4217114871	 0.4398242064	 0.234356
H	 0.2941830698	-3.7021447516	 0.0674222679	 0.226683
H	-0.3032410411	-3.6438321544	-2.4026600405	 0.108943
H	 0.0182228867	-2.0616753557	-3.2759461036	 0.1336
H	 2.3892181841	-2.0642678251	-2.4454406726	 0.142307
H	 2.1001705728	-3.6565488033	-1.5854827844	 0.115142
60.1977	113.7809	153.5003	181.1535	222.5835	291.9868	323.1779	347.177	411.8626	466.5043	567.857	754.121	782.3903	792.7494	852.5251	894.8396	898.6553	968.7187	991.8218	1035.3557	1054.3154	1088.4043	1154.9383	1179.4674	1200.7619	1206.8975	1232.7013	1339.0925	1406.755	1450.8098	1474.9154	1481.0411	1483.5668	1497.4588	1647.3647	1802.975	3052.3717	3127.1675	3132.7682	3138.317	3158.8	3225.0135	3239.5552	3497.1821	3581.4825
COC(=O)C1(N)CC1	COC(=O)C1(N)CC1	
InChI=1S/C5H9NO2/c1-8-4(7)5(6)2-3-5/h2-3,6H2,1H3	InChI=1S/C5H9NO2/c1-8-4(7)5(6)2-3-5/h2-3,6H2,1H3
