19
gdb 12518	3.39601	1.85147	1.29849	1.8032	73.55	-0.2346	0.02	0.2546	980.6263	0.166723	-365.083301	-365.075385	-365.074441	-365.115599	29.74	
C	-0.2055353357	 1.5066149524	 0.0239241962	-0.441501
C	 0.0369145158	 0.0242208566	-0.0374594392	 0.368134
N	-0.0048581718	-0.6047401949	-1.132224956	-0.272578
C	 0.0539696581	-2.0567422689	-1.2238234474	-0.145414
C	 1.2713579478	-2.755226313	-0.6036438128	-0.200586
C	 1.2746992185	-2.7190134432	 0.9243107076	-0.194185
C	 1.3668686688	-1.3066695975	 1.4858145189	-0.068588
O	 0.2257234951	-0.4821912381	 1.2304698169	-0.265538
H	 0.6771839825	 2.0234252575	 0.4165804716	 0.128283
H	-0.4499459174	 1.8911475785	-0.9654340722	 0.138375
H	-1.0278793217	 1.7158477505	 0.7164973767	 0.13749
H	-0.8587845332	-2.4751783057	-0.7714837333	 0.104597
H	 0.0130150348	-2.3073539442	-2.2889547333	 0.100747
H	 1.2769732187	-3.7969560413	-0.945854785	 0.096529
H	 2.1877957922	-2.2914131987	-0.9917146378	 0.10066
H	 0.3669805466	-3.1975688536	 1.3137218705	 0.104843
H	 2.1277423938	-3.2882235701	 1.315039538	 0.097025
H	 1.4452347365	-1.3340869971	 2.5763869552	 0.111692
H	 2.2640052507	-0.8053609092	 1.0951063553	 0.100014
68.5669	157.2338	193.3414	241.2022	293.2135	348.9214	383.9759	403.5427	517.1469	608.7482	672.9941	756.6524	833.3313	848.3916	875.0425	933.3179	989.4117	1014.2202	1051.3348	1063.5729	1106.1752	1124.5187	1138.1049	1210.9836	1216.1296	1260.1806	1302.6025	1324.2328	1372.4664	1378.9542	1396.1961	1404.9084	1422.8151	1471.8727	1472.958	1478.8075	1481.0391	1494.2658	1499.45	1762.6285	2987.9851	3004.8972	3019.1165	3022.6067	3040.4835	3057.2968	3061.7212	3069.1645	3088.1971	3095.0852	3163.0798
CC1=NCCCCO1	CC1=NCCCCO1	
InChI=1S/C6H11NO/c1-6-7-4-2-3-5-8-6/h2-5H2,1H3	InChI=1S/C6H11NO/c1-6-7-4-2-3-5-8-6/h2-5H2,1H3
