14
gdb 50899	5.67744	0.68599	0.6706	2.0789	64.5	-0.2728	-0.0452	0.2277	1594.5967	0.097926	-473.864625	-473.85533	-473.854386	-473.901384	30.452	
O	-0.1619822089	 0.102215508	-0.0061985374	-0.226583
C	 0.0909583422	 1.2742046719	-0.0633278912	 0.163812
C	 1.4855682887	 1.8100000495	-0.377184094	-0.401772
C	 1.4245690868	 3.0781845154	-1.1943361288	 0.446347
O	 0.643600047	 3.9756641079	-1.0217895305	-0.341791
O	 2.3686299446	 3.0730001156	-2.172487033	-0.230854
C	 2.4092718328	 4.246528309	-2.9937386716	-0.201501
C	 3.2597213595	 5.284222264	-2.4023971371	 0.270324
N	 3.9378805893	 6.1023609065	-1.9510428191	-0.287205
H	-0.6690090346	 2.059731829	 0.1224761661	 0.11826
H	 1.9461401062	 2.0769735804	 0.5848715719	 0.176772
H	 2.0978096751	 1.0390307092	-0.8447925774	 0.157319
H	 2.8272132065	 3.9291524068	-3.9510146478	 0.172427
H	 1.4009246348	 4.6422503971	-3.1377930102	 0.184446
26.7993	36.7214	76.636	94.3793	193.2629	262.9297	315.4189	362.1516	381.3195	470.3657	584.9764	609.2878	729.4234	777.3347	890.1921	932.5598	1012.7138	1044.3596	1055.6827	1064.8373	1145.9387	1218.9125	1299.0183	1316.0522	1399.8008	1411.9997	1436.2722	1458.8545	1823.9653	1847.3578	2370.6146	2940.7103	3031.194	3081.1886	3136.5347	3144.6477
O=CCC(=O)OCC#N	O=CCC(=O)OCC#N	
InChI=1S/C5H5NO3/c6-2-4-9-5(8)1-3-7/h3H,1,4H2	InChI=1S/C5H5NO3/c6-2-4-9-5(8)1-3-7/h3H,1,4H2
