23
gdb 68594	2.01382	1.83943	1.53439	1.6997	84.53	-0.2333	0.0768	0.3101	1062.515	0.205614	-388.279231	-388.270233	-388.269289	-388.311873	36.252	
C	 0.125257696	 1.46556824	-0.1096716953	-0.510708
C	 0.038443082	-0.0415564262	-0.0846743025	 0.260751
C	 0.4184605127	-0.9552742136	-1.3001362212	-0.294166
C	-0.3675975161	-1.9862881006	-0.4635473177	 0.065184
O	 0.4785498981	-2.1604951766	 0.6893778896	-0.279475
C	 0.8264629914	-0.7914742467	 0.9998364551	-0.122906
C	-1.3395559276	-0.8419726066	-0.0273792255	 0.309222
C	-2.0377796532	-1.0118452987	 1.3232449476	-0.475452
C	-2.3748196407	-0.3965298905	-1.0652608181	-0.470114
H	 1.1604936586	 1.7989625972	-0.2473733559	 0.119174
H	-0.4696922535	 1.8881238103	-0.9254467906	 0.120023
H	-0.2379692316	 1.9008595281	 0.8287809909	 0.11819
H	-0.0453850835	-0.6678345038	-2.2409781511	 0.101123
H	 1.4789954432	-1.1711639565	-1.4520206994	 0.095574
H	-0.6950331155	-2.9604986691	-0.8266002454	 0.070503
H	 1.910691867	-0.646985625	 0.9133759559	 0.094556
H	 0.5204198436	-0.5422612811	 2.0222179585	 0.094958
H	-1.4268165824	-1.568160851	 2.0348064764	 0.137411
H	-2.2890709801	-0.0382458227	 1.7608584848	 0.109085
H	-2.97846413	-1.5595904295	 1.1977124909	 0.109639
H	-3.1370258724	-1.1728013029	-1.1974455481	 0.11623
H	-2.8928925405	 0.503778031	-0.7150087108	 0.116875
H	-1.9618261456	-0.1698747257	-2.0494225783	 0.114324
171.7914	177.718	190.4633	209.1516	224.03	303.0641	328.3703	358.5299	412.6647	449.9631	514.0702	531.3055	604.897	647.739	681.8497	794.3896	859.8288	906.2042	926.0705	945.2057	956.0055	959.8441	980.4653	992.5246	1012.119	1039.5324	1082.4577	1135.6473	1163.2417	1184.1181	1196.1773	1210.5235	1228.9809	1246.9654	1263.097	1286.5271	1309.0224	1379.1874	1398.9257	1412.3456	1421.6503	1479.9014	1487.4376	1493.7776	1493.9936	1498.6577	1513.2854	1516.2247	1538.8187	3017.2778	3023.9838	3028.1572	3034.2029	3057.7778	3076.4208	3081.0722	3083.4042	3085.9364	3097.4309	3122.8175	3125.0904	3140.9942	3160.6652
CC12CC(OC1)C2(C)C	C[C@@]12C[C@@H](OC1)C2(C)C	
InChI=1S/C8H14O/c1-7(2)6-4-8(7,3)5-9-6/h6H,4-5H2,1-3H3	InChI=1S/C8H14O/c1-7(2)6-4-8(7,3)5-9-6/h6H,4-5H2,1-3H3/t6-,8-/m1/s1
