18
gdb 77162	2.88408	1.25021	1.02858	3.2955	73.6	-0.2634	0.0275	0.2909	1207.3615	0.14693	-439.063537	-439.054921	-439.053976	-439.097383	31.496	
C	-0.429629169	 1.2483486154	 0.1701186076	-0.412761
C	 0.0606235979	-0.1876093693	 0.0481403179	-0.144172
C	 0.9806223495	-0.5754810247	-1.1428756064	 0.084023
O	 2.0381143531	-0.9501839223	-0.2045885575	-0.271919
C	 1.2644100077	-0.5794535644	 0.8814992649	 0.448942
N	 1.5336347586	-0.5609865811	 2.1040717253	-0.546095
C	 0.5431868123	-1.7187772852	-2.0158090211	 0.050154
C	 1.3383684976	-2.9446317912	-2.1548537961	-0.170724
O	 0.1591534016	-2.9141581432	-1.3434870961	-0.231807
H	 0.3871296274	 1.9617845523	 0.0218230059	 0.124401
H	-1.2105497328	 1.4613121367	-0.5667110285	 0.120421
H	-0.8453503413	 1.4187446185	 1.1668837332	 0.146273
H	-0.7581880002	-0.9011445407	 0.1729729966	 0.126762
H	 1.3068017043	 0.2714021869	-1.7572494674	 0.092753
H	 2.4826026784	-0.8920554958	 2.2858029665	 0.228145
H	-0.1150992468	-1.4245342286	-2.8358023736	 0.100134
H	 1.2623644655	-3.5329893222	-3.0676145939	 0.118621
H	 2.2714228564	-3.0279145612	-1.6040651473	 0.136847
66.9766	88.5657	170.333	209.7385	217.1669	234.704	310.5561	397.4933	504.7171	612.7523	654.3531	728.3013	798.1643	830.6493	866.2715	888.399	902.67	931.9697	988.561	1012.8371	1075.2948	1083.7159	1095.0469	1122.3395	1132.938	1166.6646	1170.7111	1212.2754	1251.2852	1283.4216	1289.4916	1353.9293	1384.2447	1412.3029	1432.8504	1494.6908	1497.4228	1520.9429	1830.3565	3039.0646	3048.8096	3082.7635	3092.3434	3100.8054	3110.0094	3120.9969	3197.4117	3477.3263
CC1C(OC1=N)C1CO1	C[C@H]1[C@@H](O[C]1[NH])[C@H]1CO1	
InChI=1S/C6H9NO2/c1-3-5(4-2-8-4)9-6(3)7/h3-5,7H,2H2,1H3	InChI=1S/C6H9NO2/c1-3-5(4-2-8-4)9-6(3)7/h3-5,7H,2H2,1H3/t3-,4+,5+/m0/s1
