18
gdb 15636	3.20994	1.59148	1.17315	0.7883	69.99	-0.2371	0.0235	0.2606	1038.8664	0.153805	-384.944853	-384.936397	-384.935453	-384.978088	30.819	
O	 0.0351867491	 1.4054345667	 0.1572690303	-0.418153
C	 0.0153634217	-0.0096011727	 0.2324440425	-0.181408
C	-1.3812087591	-0.5097239665	 0.0592858481	 0.2779
C	-2.4929246128	 0.2108960674	-0.0948975077	-0.152904
C	-3.7243006867	-0.6428851206	-0.2722960656	-0.263146
C	-3.2040572452	-2.0784550625	-0.0034929124	-0.242194
C	-1.6566525989	-1.9950105383	-0.0610457726	 0.038669
O	-1.0802617931	-2.5376957894	-1.2551070281	-0.433776
H	 0.943902639	 1.6966716199	 0.2725164946	 0.28915
H	 0.6516805972	-0.4692780209	-0.5420364095	 0.105551
H	 0.4076749915	-0.3649908536	 1.2025664478	 0.094205
H	-2.5170058959	 1.2939395686	-0.1080371138	 0.109234
H	-4.525940818	-0.3609116828	 0.4202240233	 0.1071
H	-4.1471774753	-0.5253496585	-1.2796646993	 0.104061
H	-3.5155556428	-2.4060470475	 0.9928156784	 0.10578
H	-3.5695744916	-2.8208683012	-0.7174150993	 0.10465
H	-1.1909495258	-2.583295024	 0.7376273037	 0.080559
H	-1.3764476832	-1.9850555842	-1.9876115004	 0.274721
76.5132	82.7519	184.8084	205.5066	242.4465	275.3074	347.5202	363.2954	471.0757	573.0282	664.2898	729.7632	773.4864	854.2345	869.3358	936.4251	939.3946	1004.4011	1036.494	1045.8785	1071.8675	1080.808	1154.2359	1163.7409	1214.4035	1230.0513	1245.6456	1267.9487	1284.2909	1307.0388	1324.8588	1355.6288	1429.5256	1463.6193	1477.5917	1498.8731	1510.782	1725.9006	2939.3448	2974.2925	3012.3519	3042.6448	3048.0076	3064.6376	3107.3313	3211.8278	3792.1376	3837.3961
OCC1=CCCC1O	OCC1=CCC[C@H]1O	
InChI=1S/C6H10O2/c7-4-5-2-1-3-6(5)8/h2,6-8H,1,3-4H2	InChI=1S/C6H10O2/c7-4-5-2-1-3-6(5)8/h2,6-8H,1,3-4H2/t6-/m1/s1
