22
gdb 7280	3.76736	1.05019	0.87358	2.8603	79.35	-0.2469	-0.018	0.2289	1360.941	0.197046	-350.226754	-350.216433	-350.215489	-350.262676	36.636	
C	-0.0675149252	 1.550486269	 0.081440254	-0.399934
C	-0.0365645989	 0.015202244	-0.0014419046	 0.045776
C	-1.4780315614	-0.5190821706	 0.0037046724	-0.399827
C	 0.7787611353	-0.4850031484	-1.2231512063	 0.033961
C	 2.1910226711	 0.1223558826	-1.2808686825	-0.409713
C	 0.8833654414	-2.0272389105	-1.2591511296	-0.283232
C	 1.453988731	-2.5345559083	-2.5628145092	 0.160591
O	 2.3881435968	-3.2862626797	-2.6731872846	-0.244539
H	 0.9257405444	 1.9816167818	 0.2253185006	 0.118053
H	-0.4943397389	 1.9844297167	-0.8312509041	 0.111876
H	-0.6904978155	 1.8743282286	 0.9212152123	 0.112267
H	 0.4672622189	-0.3589044158	 0.9024255771	 0.07351
H	-2.0078627066	-0.2251265857	-0.9107167838	 0.11262
H	-1.5285817066	-1.6079346631	 0.0852937862	 0.115935
H	-2.0344830838	-0.1074363169	 0.8515990057	 0.114447
H	 0.234497243	-0.1686921884	-2.1271183128	 0.07233
H	 2.1669914454	 1.2029081095	-1.4363237168	 0.120468
H	 2.7376081238	-0.074251694	-0.3507787368	 0.119384
H	 2.7760124601	-0.3124018305	-2.0975654751	 0.125854
H	 1.4974333594	-2.4060373859	-0.4353603248	 0.115913
H	-0.1151513419	-2.4740330005	-1.1711593373	 0.116765
H	 0.9197741681	-2.1530820038	-3.46694005	 0.067493
46.7037	60.8342	73.2434	180.4196	204.4144	218.1694	235.7583	284.5525	359.8528	360.8349	407.4662	434.5257	467.9009	542.5585	765.6525	815.3853	892.0832	928.0212	938.3501	962.2639	966.921	989.465	1036.2513	1077.6393	1145.0438	1166.7117	1180.7117	1192.6319	1231.177	1275.5722	1325.506	1349.2459	1361.345	1378.7735	1401.0494	1413.8155	1423.0046	1430.9198	1460.9516	1486.2915	1491.4147	1497.4864	1505.5079	1506.3968	1520.4064	1834.2402	2837.1687	2978.8528	2998.1885	3026.3659	3030.6798	3032.6351	3035.6158	3089.8961	3090.7278	3095.8888	3097.413	3109.0238	3116.0231	3127.108
CC(C)C(C)CC=O	CC(C)[C@@H](C)CC=O	
InChI=1S/C7H14O/c1-6(2)7(3)4-5-8/h5-7H,4H2,1-3H3	InChI=1S/C7H14O/c1-6(2)7(3)4-5-8/h5-7H,4H2,1-3H3/t7-/m0/s1
