20
gdb 102098	2.20582	1.16785	0.96263	4.1912	76.22	-0.2476	-0.0273	0.2203	1324.0546	0.16824	-440.25376	-440.243692	-440.242748	-440.289769	35.772	
C	-1.6301210639	 0.3614191126	 2.0617969912	-0.419736
C	-0.8269079179	-0.6828779439	 1.3178736271	 0.029616
C	-0.1020694081	-0.3526572619	 0.0585845268	-0.260231
N	 0.641767416	-0.699365781	 1.2710217851	-0.112703
C	 1.4307712026	 0.3340882246	 1.9347797404	-0.088051
C	 1.8372373427	-0.2013623832	 3.3215472878	-0.063397
O	 2.5154710369	-1.4333537973	 3.2072959276	-0.425801
C	 2.6907793802	 0.5989535686	 1.1125313956	 0.184751
O	 3.359204508	 1.5907494988	 1.2382088408	-0.256245
H	-1.272821823	 1.377629662	 1.879712229	 0.12971
H	-2.6732476519	 0.3173812719	 1.7322170008	 0.13089
H	-1.6176298324	 0.1809278654	 3.1420059836	 0.131167
H	-1.2391199428	-1.6873813489	 1.4002314039	 0.099413
H	-0.0386746946	-1.0643074359	-0.7599756434	 0.122617
H	-0.10680766	 0.6928543619	-0.2478246226	 0.119064
H	 0.9183215154	 1.2989020284	 2.0595873756	 0.084685
H	 2.5155314785	 0.5103831903	 3.8013343552	 0.127147
H	 0.9339017201	-0.2875747976	 3.9474813144	 0.088993
H	 1.9956836836	-1.9547183741	 2.5803555492	 0.288015
H	 2.9558091605	-0.2041167705	 0.3916667219	 0.090096
45.1612	60.0638	112.2419	141.2038	179.1426	207.8601	258.8663	279.4224	369.4027	391.9625	492.1936	503.0316	542.8774	619.12	774.8567	810.2984	870.6006	904.5837	932.7496	981.8	1016.9508	1038.0417	1058.5104	1104.8042	1117.1627	1122.7401	1144.3408	1166.6961	1193.3873	1232.543	1266.7186	1313.3834	1337.2903	1378.0502	1403.1638	1411.2042	1422.8051	1433.6916	1492.4097	1497.7051	1507.1243	1509.1385	1837.4725	2903.3721	2970.3509	3004.0778	3039.3854	3089.5781	3091.349	3099.748	3108.9492	3128.4306	3181.1877	3749.637
CC1CN1C(CO)C=O	C[C@H]1CN1[C@@H](CO)C=O	
InChI=1S/C6H11NO2/c1-5-2-7(5)6(3-8)4-9/h3,5-6,9H,2,4H2,1H3	InChI=1S/C6H11NO2/c1-5-2-7(5)6(3-8)4-9/h3,5-6,9H,2,4H2,1H3/t5-,6+,7?/m0/s1
