19
gdb 56313	2.66742	0.93339	0.77166	4.6456	75.77	-0.257	0.0154	0.2725	1519.2856	0.157156	-456.343075	-456.332806	-456.331861	-456.38054	35.043	
C	-0.1049430909	 1.2329048093	 0.198524255	-0.432396
C	-0.452225074	-0.1515908662	-0.2712400661	 0.390152
N	-0.2924336112	-0.5181699263	-1.4692842949	-0.511275
O	-0.9422793462	-0.873382078	 0.7941933683	-0.251079
C	-1.0833191241	-2.2834532461	 0.6958497203	-0.102592
C	-2.4700475887	-2.7287488934	 0.2599203658	-0.080515
O	-2.6075677828	-2.5838567428	-1.1500018927	-0.1827
C	-3.8209774483	-2.2390811407	-1.6352500003	 0.134849
N	-4.0300209302	-2.2679429422	-2.8768104353	-0.432456
H	 0.6664105417	 1.19062439	 0.9738825352	 0.135109
H	 0.248352764	 1.8254885302	-0.6438584955	 0.147986
H	-0.983363861	 1.7109365104	 0.6436298067	 0.134899
H	-0.6329763262	-1.4596210491	-1.6581924629	 0.237776
H	-0.3239793483	-2.7090281539	 0.0293719364	 0.128844
H	-0.9054530782	-2.66653158	 1.7060483222	 0.122346
H	-2.6066822056	-3.7855999624	 0.5262056933	 0.117295
H	-3.2280587223	-2.1361600762	 0.787663877	 0.119244
H	-4.5323928684	-1.9424836198	-0.8521104136	 0.090838
H	-4.9756656493	-1.9516722626	-3.0803009588	 0.233676
23.3321	57.9298	89.204	99.1309	146.4903	154.7634	209.5788	312.5776	351.1031	411.651	521.8929	557.5138	593.3778	606.7157	788.5654	821.0141	895.9818	907.0637	919.2148	1008.2882	1025.3622	1041.2603	1074.1939	1091.047	1125.1897	1140.9767	1148.2289	1256.8878	1298.328	1312.5737	1331.7254	1397.7905	1402.8978	1420.0465	1427.9719	1474.2877	1478.6875	1480.8373	1494.158	1750.2454	1752.08	3008.4723	3023.9091	3038.1391	3049.707	3063.0187	3091.4695	3106.5723	3170.3365	3509.086	3522.7962
CC(=N)OCCOC=N	C[C]([NH])OCCO[CH][NH]	
InChI=1S/C5H10N2O2/c1-5(7)9-3-2-8-4-6/h4,6-7H,2-3H2,1H3	InChI=1S/C5H10N2O2/c1-5(7)9-3-2-8-4-6/h4,6-7H,2-3H2,1H3
