21
gdb 94060	4.23834	0.93915	0.81088	4.6182	83.34	-0.2368	0.0293	0.2661	1431.0479	0.184772	-383.299665	-383.290811	-383.289867	-383.333012	34.042	
C	-0.0351678109	 1.5645239366	 0.0132382118	-0.401784
C	 0.0125572658	 0.0350067833	-0.0103102255	 0.034213
C	 0.7059785066	-0.5014359466	-1.2739065672	-0.21006
C	 0.8130294586	-2.0320096777	-1.2605468161	-0.208695
C	 1.490236778	-2.4987305562	 0.0503851538	-0.103825
N	 0.8513418016	-1.9862383863	 1.2670953928	-0.295347
C	 0.7190957997	-0.526585224	 1.2385134078	-0.163915
C	 1.5606534342	-3.9642543557	 0.1119784175	 0.267769
N	 1.5921582869	-5.1189077032	 0.1319114988	-0.319917
H	 0.9756936435	 1.9889558469	 0.0183015581	 0.116357
H	-0.5555750485	 1.9588792142	-0.8656254657	 0.115935
H	-0.5548936838	 1.9341048231	 0.9036129912	 0.115088
H	-1.0201051501	-0.3462281213	-0.0036003224	 0.068482
H	 0.1701674629	-0.1729804847	-2.1714318885	 0.101079
H	 1.7144482564	-0.0671234916	-1.3389446829	 0.097205
H	-0.1846119495	-2.4844298663	-1.3185164788	 0.109367
H	 1.3808544256	-2.394702096	-2.1239684851	 0.114207
H	 2.5246553683	-2.1244346299	 0.052671957	 0.12751
H	-0.065413271	-2.4142656037	 1.364937525	 0.225032
H	 1.7307741306	-0.0991979342	 1.3011545878	 0.104234
H	 0.1935668552	-0.2199552666	 2.1490880807	 0.107065
80.3959	147.8587	203.0974	210.8808	239.1605	298.6704	329.8325	372.685	426.045	456.2523	539.0942	561.0439	586.3873	745.1223	792.8885	856.3367	866.1062	923.31	938.5536	977.605	1007.4701	1031.384	1056.9025	1104.2398	1121.2274	1141.5939	1160.3367	1200.6384	1259.1904	1284.3257	1317.0851	1327.8931	1338.008	1359.3055	1373.1068	1378.8762	1400.3543	1414.9039	1475.0534	1481.4007	1488.723	1495.3958	1498.9959	1500.8323	2363.1771	2984.7174	3002.3345	3004.4073	3010.5125	3027.0642	3032.8691	3063.3148	3072.4038	3081.363	3092.9945	3099.7449	3501.9838
CC1CCC(NC1)C#N	C[C@H]1CC[C@@H](NC1)C#N	
InChI=1S/C7H12N2/c1-6-2-3-7(4-8)9-5-6/h6-7,9H,2-3,5H2,1H3	InChI=1S/C7H12N2/c1-6-2-3-7(4-8)9-5-6/h6-7,9H,2-3,5H2,1H3/t6-,7+/m0/s1
