14
gdb 42292	2.78192	1.3346	0.99909	2.2432	70.23	-0.273	-0.0717	0.2014	1138.7288	0.099204	-436.652715	-436.644332	-436.643388	-436.686853	29.674	
N	-0.3570637894	 1.1173688218	-0.5590136642	-0.528401
C	-0.137940916	-0.0241769405	-0.0973752482	 0.435327
O	 0.9951462799	-0.6001281395	 0.422781644	-0.246708
C	 0.2981466198	-1.8662218693	 0.674298195	-0.108359
C	-0.9999223639	-1.2719955782	 0.1065108049	-0.249863
C	-2.1508116778	-1.0921689268	 1.0875207675	 0.227224
O	-2.0700954	-1.4196054866	 2.2507324438	-0.280861
C	-3.3405991493	-0.4885987666	 0.5288046853	 0.278734
C	-4.3240303141	 0.0026228517	 0.0395197349	-0.397199
H	 0.4789127136	 1.7033290516	-0.5288892279	 0.236279
H	 0.7478488278	-2.6782647549	 0.1005647759	 0.124646
H	 0.2661447142	-2.0944595166	 1.7397042104	 0.151807
H	-1.3623158968	-1.6958337014	-0.8322352275	 0.135191
H	-5.1947915379	 0.4446306354	-0.3811275039	 0.222183
38.2806	103.6998	121.9733	170.5303	247.4634	295.3778	427.0026	471.8876	551.9477	608.6051	653.3296	707.6728	718.9695	736.8937	817.4125	861.2521	945.5144	957.894	998.9933	1021.5107	1067.3714	1133.9454	1165.2585	1175.23	1224.4961	1328.7264	1358.0049	1511.8655	1766.3095	1822.5051	2217.1651	3083.9015	3101.7676	3156.3128	3481.8132	3494.4978
N=C1OCC1C(=O)C#C	[NH][C]1OC[C@H]1C(=O)C#C	
InChI=1S/C6H5NO2/c1-2-5(8)4-3-9-6(4)7/h1,4,7H,3H2	InChI=1S/C6H5NO2/c1-2-5(8)4-3-9-6(4)7/h1,4,7H,3H2/t4-/m0/s1
