16
gdb 117874	4.17656	0.56868	0.51381	5.0507	80.3	-0.2801	-0.0517	0.2283	2006.5738	0.122178	-437.857223	-437.847125	-437.846181	-437.89338	34.562	
O	-0.0693196154	 1.4496843984	-0.0305951162	-0.421398
C	 0.0359222688	 0.0374285571	 0.0223536257	-0.081299
C	-1.3828333927	-0.519450531	-0.0275279373	-0.18526
C	-1.4047379071	-2.0567261558	 0.0313404063	-0.102684
O	-0.7852739546	-2.5733030902	 1.2030194801	-0.404569
C	-2.7712526209	-2.5689161565	-0.1165983491	 0.078424
C	-3.9049678337	-2.9788339213	-0.2005683033	 0.082705
C	-5.1841568472	-3.4460227168	-0.3000391706	 0.205203
N	-6.2730002036	-3.8419482259	-0.3836736434	-0.331482
H	 0.8132466775	 1.8214796089	 0.0560690988	 0.29046
H	 0.6160988943	-0.3561471717	-0.8290500896	 0.089652
H	 0.532870724	-0.3025314703	 0.9413379589	 0.105286
H	-1.9634883185	-0.112921717	 0.8090819191	 0.116065
H	-1.8737388737	-0.1841249928	-0.9473038352	 0.129212
H	-0.8021813921	-2.4533312855	-0.7962199798	 0.136967
H	-1.3194287551	-2.3106070998	 1.9620703255	 0.292718
60.3071	74.7608	86.0796	137.5059	178.7348	244.6999	260.3837	274.0581	325.2079	364.3036	390.1038	525.8716	548.433	583.4848	595.8659	767.3125	803.3497	920.885	1022.7072	1076.6481	1082.078	1093.9759	1161.322	1209.7241	1232.9291	1282.0208	1302.1561	1322.1153	1359.318	1413.8125	1464.0054	1485.0116	1531.9044	2262.5284	2399.9294	2964.7441	3023.5251	3031.4239	3045.2873	3092.7133	3795.8581	3832.7012
OCCC(O)C#CC#N	OCC[C@@H](O)C#CC#N	
InChI=1S/C6H7NO2/c7-4-1-2-6(9)3-5-8/h6,8-9H,3,5H2	InChI=1S/C6H7NO2/c7-4-1-2-6(9)3-5-8/h6,8-9H,3,5H2/t6-/m0/s1
