22
gdb 91942	2.02403	1.73159	1.42751	2.7876	80.32	-0.2263	0.0681	0.2944	1080.7553	0.194175	-404.330879	-404.321859	-404.320914	-404.36369	36.081	
C	 0.8832372096	 1.4624048352	-0.4014705048	-0.420374
C	 0.184225162	 0.173862195	 0.0556331122	-0.047705
C	 0.1465790431	-0.9538308235	-1.0202740103	-0.174518
N	 1.0604570654	-2.0441470135	-0.6301396167	-0.097032
C	 2.4347077823	-1.5972590546	-0.3654935151	-0.268279
C	 1.4782290987	-1.7731326381	 0.7541767378	-0.023603
C	 0.7642475971	-0.5532580823	 1.3181944549	 0.377432
C	 1.6419691993	 0.2984448868	 2.2367503728	-0.447053
O	-0.3164196789	-1.1166835856	 2.0775657317	-0.479154
H	 1.9301775756	 1.3120113748	-0.6795192455	 0.122387
H	 0.371702721	 1.8677371432	-1.280879294	 0.117847
H	 0.8559691967	 2.233456029	 0.3750694214	 0.114695
H	-0.8457779345	 0.445242707	 0.3095655846	 0.071775
H	-0.8560154998	-1.3874382134	-1.0791407897	 0.112993
H	 0.4072703423	-0.58617666	-2.0186147551	 0.099218
H	 3.1952947993	-2.3536337431	-0.5379455156	 0.11536
H	 2.7324438841	-0.5950883865	-0.658013142	 0.107336
H	 1.558847614	-2.6231428932	 1.4254690326	 0.095845
H	 2.5192576121	 0.6931225769	 1.7182155735	 0.119759
H	 1.0810785069	 1.1505178925	 2.6402535397	 0.104812
H	 1.9830675475	-0.3081651443	 3.0804530643	 0.125443
H	-0.7802273137	-0.3902071625	 2.5074512434	 0.272815
105.1894	199.3325	222.023	258.8414	269.4188	298.5526	310.6641	346.9087	373.4707	417.413	442.4367	513.7116	602.332	684.6614	719.8991	777.8046	857.9392	875.6307	890.6536	937.0301	941.4444	998.2864	1022.8603	1032.4757	1073.6525	1095.8311	1113.6789	1116.0706	1139.7732	1160.4796	1191.1582	1213.0893	1250.6627	1260.773	1291.8987	1332.9744	1352.8392	1368.5268	1404.449	1409.6592	1421.7401	1486.7604	1491.2699	1492.8482	1500.947	1504.1425	1516.2158	3027.8043	3036.5129	3038.3185	3048.1444	3086.859	3096.815	3097.8508	3109.2383	3118.6654	3124.8961	3153.2698	3199.3957	3806.8526
CC1CN2CC2C1(C)O	C[C@H]1CN2C[C@H]2[C@]1(C)O	
InChI=1S/C7H13NO/c1-5-3-8-4-6(8)7(5,2)9/h5-6,9H,3-4H2,1-2H3	InChI=1S/C7H13NO/c1-5-3-8-4-6(8)7(5,2)9/h5-6,9H,3-4H2,1-2H3/t5-,6-,7+,8?/m0/s1
