19
gdb 102150	2.44545	1.08118	0.81718	3.1079	76.92	-0.2358	-0.0295	0.2062	1412.6639	0.156561	-419.230342	-419.219559	-419.218615	-419.268274	36.619	
C	-0.2927657922	-1.73725141	-0.4607338928	-0.335121
N	-0.4561593261	-0.6535503544	 0.5083944783	-0.291093
C	 0.637034797	-0.4066435555	 1.4365331437	-0.083395
C	 1.822017435	 0.4460562535	 0.9110318887	-0.348327
C	 2.5984016899	-0.2048877546	-0.1390617495	 0.262377
N	 3.2236526359	-0.7241857338	-0.9613383791	-0.315141
C	 0.0320427151	 0.2913680862	 2.678540475	 0.385542
C	-0.9350484056	-0.5342320233	 3.4974216504	-0.477627
O	 0.3178256685	 1.4341701538	 2.9511685863	-0.295856
H	-0.1186659524	-2.67498127	 0.0773306331	 0.127584
H	-1.2261364894	-1.8478399734	-1.0206149143	 0.125117
H	 0.5282816301	-1.5988647157	-1.175666977	 0.141608
H	-0.7298050011	 0.2074371866	 0.0481491445	 0.226883
H	 1.0153889403	-1.3860889557	 1.7555886569	 0.109736
H	 1.4426229444	 1.4060291742	 0.5463328487	 0.158567
H	 2.4925859379	 0.68849	 1.7418766451	 0.164572
H	-0.3789738179	-1.310687698	 4.0374418864	 0.14196
H	-1.4484437056	 0.1015202305	 4.2193714491	 0.143748
H	-1.6482350539	-1.0381393306	 2.8417898167	 0.158864
25.5348	31.3241	94.621	125.3907	128.3946	184.5153	224.2309	251.9927	330.7343	352.5557	393.5163	410.1404	540.3743	577.5605	601.195	708.2229	842.0643	857.1092	920.0229	983.4691	1002.4077	1036.8703	1055.8401	1145.4491	1150.1657	1166.0162	1184.2851	1251.6631	1287.6316	1344.6908	1356.8195	1375.5087	1445.7288	1460.1607	1464.3999	1476.9429	1492.4694	1497.2663	1523.5255	1811.5215	2356.1941	3017.062	3036.396	3042.1646	3060.266	3080.2702	3097.9207	3106.6059	3116.6493	3163.1798	3533.3151
CNC(CC#N)C(C)=O	CN[C@@H](CC#N)C(=O)C	
InChI=1S/C6H10N2O/c1-5(9)6(8-2)3-4-7/h6,8H,3H2,1-2H3	InChI=1S/C6H10N2O/c1-5(9)6(8-2)3-4-7/h6,8H,3H2,1-2H3/t6-/m0/s1
