18
gdb 30815	2.28463	1.38493	0.91397	0.8019	75.64	-0.2088	0.0316	0.2404	1292.06	0.147213	-439.142638	-439.133515	-439.132571	-439.176836	33.177	
C	-0.3535113202	 1.6360066539	-0.2171782784	-0.371592
C	 0.0775385668	 0.1764931934	 0.0130084016	-0.29809
C	 0.8653328879	-0.3984875933	-1.1080896674	 0.264637
C	 2.1251570845	-0.8649837321	-1.2837772142	 0.16309
C	 3.2475871311	-0.9743886973	-0.3087208489	-0.493141
N	 2.2876342648	-1.2817775396	-2.6163996245	-0.431294
C	 1.135688022	-1.0412619057	-3.1446942087	 0.45723
O	 0.7380940771	-1.2498694632	-4.3993045008	-0.401427
O	 0.2100573567	-0.5141754972	-2.33791723	-0.206973
H	 0.5181346026	 2.2869023991	-0.3344029448	 0.121041
H	-0.9618978257	 1.7220514358	-1.1217326761	 0.133624
H	-0.9451760186	 2.0021468002	 0.6272665137	 0.11356
H	 0.6861132054	 0.1044526859	 0.9201723951	 0.115709
H	-0.8144650067	-0.4392920596	 0.1903109829	 0.117736
H	 3.5777686004	-2.0142162359	-0.2094277768	 0.136775
H	 4.1133881595	-0.3929999109	-0.6441437513	 0.136538
H	 2.9549976027	-0.6123196684	 0.6799090088	 0.121966
H	 1.4938903098	-1.6290649949	-4.8657269703	 0.320608
60.1286	126.5718	144.8376	197.0471	213.6877	269.7551	282.9668	331.1181	424.5023	449.584	529.4208	620.6831	625.7298	688.9942	748.5971	779.0941	810.9853	968.1017	991.4173	1021.1855	1054.3373	1065.1051	1084.3199	1151.9959	1209.4305	1230.8841	1295.3627	1320.4372	1368.4907	1406.9023	1421.1184	1471.0741	1474.2426	1491.5804	1495.478	1500.9801	1508.0411	1660.0552	1700.7249	3018.2527	3035.0905	3041.2408	3077.1258	3087.6673	3112.8783	3121.0401	3122.607	3808.3087
CCC1=C(C)N=C(O)O1	CCc1c(C)nc(O)o1	
InChI=1S/C6H9NO2/c1-3-5-4(2)7-6(8)9-5/h3H2,1-2H3,(H,7,8)	InChI=1S/C6H9NO2/c1-3-5-4(2)7-6(8)9-5/h3H2,1-2H3,(H,7,8)
