16
gdb 126354	2.95876	1.32509	0.92556	4.0576	76.26	-0.2548	-0.0891	0.1657	1225.2454	0.123587	-434.048112	-434.039784	-434.03884	-434.082114	30.072	
C	-0.0860723189	 1.5352022957	 0.142098871	-0.378518
C	 0.0193104935	 0.0228072142	-0.0326270211	-0.288768
C	 0.731158201	-0.4196514919	-1.2817990171	 0.30882
N	 1.2003305326	 0.4395461182	-2.1147453875	-0.308449
C	 1.8484549046	-0.0216019908	-3.2519896579	 0.451756
N	 2.3316429597	 0.7685271735	-4.1103357471	-0.503841
O	 1.9711133527	-1.4120112675	-3.4546712273	-0.270617
N	 1.4667843299	-2.331122106	-2.5599291068	-0.038889
C	 0.8772570865	-1.851458121	-1.5271959004	-0.010224
H	 0.9040604311	 1.9956136338	 0.1767951809	 0.141864
H	-0.6249020577	 1.9895164124	-0.6926418886	 0.141913
H	-0.6143885831	 1.7711652864	 1.0695643329	 0.115231
H	 0.5362578475	-0.4363242465	 0.8229869896	 0.13161
H	-0.9775684953	-0.4423211037	-0.0376282891	 0.131645
H	 2.7662412321	 0.245488473	-4.8710129571	 0.234786
H	 0.4864793539	-2.5896971597	-0.8338336644	 0.141682
40.7949	87.0642	163.6252	178.6192	235.8639	373.375	379.8148	472.1134	564.9004	591.3409	609.4603	702.239	757.7267	799.3519	854.7122	868.0335	907.6144	925.6611	990.8916	1006.034	1054.9888	1096.1991	1118.0752	1186.7669	1280.7283	1280.823	1349.5507	1398.9878	1419.644	1455.1331	1491.2093	1497.8987	1623.2887	1702.875	1742.8072	3006.5885	3028.8478	3056.1915	3129.3883	3133.9816	3186.9234	3498.1428
CCC1=NC(=N)ON=C1	CC[C]1N=C([NH])ON=C1	
InChI=1S/C5H7N3O/c1-2-4-3-7-9-5(6)8-4/h3,6H,2H2,1H3	InChI=1S/C5H7N3O/c1-2-4-3-7-9-5(6)8-4/h3,6H,2H2,1H3
