15
gdb 131218	4.31546	0.87983	0.7748	3.6588	68.77	-0.2279	-0.0203	0.2076	1394.0314	0.112419	-453.9723	-453.963813	-453.962869	-454.006808	30.152	
O	 0.4126693755	 1.3009295811	 0.0358281287	-0.425887
C	 0.1613517746	-0.0197902803	-0.0667728326	 0.467446
C	 0.3031151235	-0.9499021771	-1.0756393585	-0.44156
C	-0.16731512	-2.1569509001	-0.4952183911	 0.340388
C	-0.2106082056	-3.5163017254	-1.1266402777	-0.369051
C	 1.1846431656	-4.1106071918	-1.2451904178	 0.158843
O	 1.6711511683	-4.5205580041	-2.2662857724	-0.240569
N	-0.5574754062	-1.9880248477	 0.7634526377	-0.295327
N	-0.3461051851	-0.6669474291	 1.0042015243	-0.250856
H	 0.7735610371	 1.6145880915	-0.7992362807	 0.316819
H	 0.6797468881	-0.7885226344	-2.0726309598	 0.110436
H	-0.8013160961	-4.1736634067	-0.4771114848	 0.140244
H	-0.6636959265	-3.497415557	-2.1216246714	 0.124337
H	 1.7453224172	-4.1330360839	-0.2834122263	 0.084613
H	-0.5813774701	-0.269836455	 1.8977880225	 0.280125
38.6167	58.2078	135.9597	264.1162	270.4225	286.4511	398.1947	440.5138	457.0499	497.2211	621.7933	688.7426	717.8929	751.2746	762.4803	848.3734	996.5694	1006.5163	1054.8045	1058.3584	1150.1029	1164.3546	1183.3268	1207.8046	1288.1174	1354.9154	1418.9828	1439.3141	1451.6045	1491.7642	1564.4343	1627.926	1834.0135	2880.8131	3042.555	3107.6539	3261.5356	3678.7412	3844.8344
OC1=CC(CC=O)=NN1	Oc1cc(CC=O)n[nH]1	
InChI=1S/C5H6N2O2/c8-2-1-4-3-5(9)7-6-4/h2-3H,1H2,(H2,6,7,9)	InChI=1S/C5H6N2O2/c8-2-1-4-3-5(9)7-6-4/h2-3H,1H2,(H2,6,7,9)
