16
gdb 107902	3.6727	1.28436	1.20694	4.0286	69.29	-0.2404	-0.0015	0.2389	1058.2576	0.123497	-437.817994	-437.81027	-437.809326	-437.850531	28.874	
C	-0.027616108	 1.3170475961	-0.2021825268	-0.265439
O	-0.1025987768	-0.0541003538	 0.1803740763	-0.278242
C	-1.3579045467	-0.5722354588	 0.1401809423	 0.427556
C	-2.5513435691	-0.3470223595	 1.0721991352	-0.261969
N	-3.137956539	-1.6280951178	 0.4859679136	-0.218822
C	-1.7365589296	-1.98302489	-0.0211673721	-0.113966
C	-1.9941574221	-1.0907200518	-1.2312677884	-0.309837
C	-3.4371809619	-1.1584710517	-0.9068543968	 0.440809
O	-4.4885359947	-0.9754611158	-1.4315643274	-0.31386
H	 1.0216251256	 1.6054798046	-0.1256878602	 0.14098
H	-0.3733808366	 1.4577572223	-1.233952036	 0.125666
H	-0.6258061178	 1.9512387397	 0.4640576248	 0.126114
H	-2.2940988121	-0.4934734789	 2.1244395489	 0.127484
H	-3.1919366117	 0.5321168111	 0.950759082	 0.124429
H	-1.2584596222	-2.9466974312	 0.0639203829	 0.130284
H	-1.4457435773	-1.0042991246	-2.1598710882	 0.118812
94.432	117.9853	153.9117	207.0577	320.8586	391.0498	489.3259	507.8088	565.9912	665.2139	705.0858	790.4168	833.4903	849.8976	896.9768	911.8002	939.5083	974.7875	995.7518	1045.8194	1082.5517	1085.8012	1117.539	1150.6349	1179.1952	1192.5783	1218.1723	1259.138	1289.1237	1412.6195	1487.9485	1492.73	1502.6894	1513.9423	1923.6182	3010.8805	3050.6287	3072.5221	3114.6239	3141.2315	3210.6305	3243.1244
COC12CN3C1C2C3=O	CO[C@]12CN3[C@H]1[C@H]2C3=O	
InChI=1S/C6H7NO2/c1-9-6-2-7-4(6)3(6)5(7)8/h3-4H,2H2,1H3	InChI=1S/C6H7NO2/c1-9-6-2-7-4(6)3(6)5(7)8/h3-4H,2H2,1H3/t3-,4-,6-/m0/s1
