15
gdb 114938	3.20614	1.09133	0.86109	3.7036	68.44	-0.2768	-0.0627	0.2141	1275.1279	0.113124	-453.958326	-453.950068	-453.949124	-453.992077	29.348	
O	 0.0084185569	 1.3857414776	 0.2041065998	-0.414587
C	-0.0162700218	-0.0221365109	 0.2079982186	-0.067128
C	-1.3875016237	-0.5795334619	-0.1486697429	 0.054764
C	-1.5088094658	-2.1224963096	-0.0559717715	-0.216299
N	-2.4542658122	-2.375059005	 1.0436392371	-0.29547
C	-2.8224201615	-1.2296989893	 1.4463240499	 0.321843
O	-2.3403452087	-0.1073976344	 0.8589980404	-0.273423
C	-3.7538185134	-1.0083505209	 2.5179027062	 0.287222
N	-4.4997176842	-0.8204581163	 3.3793028654	-0.307698
H	-0.6443932894	 1.6847251556	 0.8472482387	 0.296696
H	 0.7070146472	-0.3565588129	-0.5442695792	 0.123879
H	 0.2960995606	-0.4411634267	 1.1790095868	 0.100991
H	-1.7216389079	-0.1691798253	-1.1046819611	 0.115048
H	-1.8907339714	-2.5771659968	-0.9746958478	 0.139829
H	-0.5497397044	-2.6016062532	 0.1723754296	 0.134332
54.3504	115.3125	146.0438	183.7307	230.5535	369.8812	409.7265	417.2677	481.2573	565.6099	571.18	716.4317	750.5524	840.0929	906.6739	948.5156	1002.9271	1028.6073	1041.1051	1099.2829	1115.1091	1198.8413	1231.6379	1247.0475	1315.8893	1331.6916	1368.7037	1404.1589	1428.9222	1491.5473	1493.8911	1704.873	2374.6576	2974.086	3042.5463	3070.4625	3080.8187	3095.4912	3806.1542
OCC1CN=C(O1)C#N	OC[C@H]1CN=C(O1)C#N	
InChI=1S/C5H6N2O2/c6-1-5-7-2-4(3-8)9-5/h4,8H,2-3H2	InChI=1S/C5H6N2O2/c6-1-5-7-2-4(3-8)9-5/h4,8H,2-3H2/t4-/m1/s1
