13
gdb 43549	2.53757	1.51583	1.08763	4.0275	65.13	-0.2747	-0.0238	0.2509	1062.1243	0.086949	-456.514552	-456.506729	-456.505785	-456.547258	28.45	
O	 0.0048785164	 0.1001803665	-0.7595445198	-0.320335
C	 0.0443225552	 1.153717729	-0.2185823131	 0.425425
O	-0.9731384416	 1.8219196314	 0.4316992616	-0.261589
C	-0.1392582442	 3.0098868215	 0.7068550726	-0.133536
C	-0.0663371841	 3.3509326526	 2.1082611238	 0.330664
C	 0.022162098	 3.652095975	 3.2678179447	-0.427061
C	 1.0462611851	 2.2574373976	 0.0716018878	 0.215048
C	 2.4622167301	 2.1897672136	 0.4259388093	-0.242539
O	 2.0033041592	 2.7785405107	-0.801466598	-0.243137
H	-0.4885607185	 3.8473654422	 0.0966650416	 0.145017
H	 0.0877322107	 3.9170025808	 4.2948889586	 0.216811
H	 2.8474974071	 2.888612088	 1.1651118055	 0.144878
H	 2.9916386167	 1.2459348011	 0.3191294453	 0.150353
87.5667	119.4732	214.5229	226.9945	248.2592	332.2174	413.3635	510.2833	604.962	635.4879	641.2365	692.0944	734.7034	782.3467	859.7858	893.2758	923.3354	1013.0322	1042.4272	1079.944	1124.5947	1161.6743	1180.5628	1241.4114	1355.7894	1438.4089	1528.0529	1954.0196	2243.8781	3080.2695	3101.7939	3202.1462	3498.2912
O=C1OC(C#C)C11CO1	O=C1O[C@@H](C#C)[C@]21CO2	
InChI=1S/C6H4O3/c1-2-4-6(3-8-6)5(7)9-4/h1,4H,3H2	InChI=1S/C6H4O3/c1-2-4-6(3-8-6)5(7)9-4/h1,4H,3H2/t4-,6-/m0/s1
