21
gdb 59131	4.01975	1.06827	0.97529	1.9949	81.75	-0.2295	0.0721	0.3016	1291.7221	0.181367	-386.998668	-386.990219	-386.989275	-387.031817	32.993	
C	 0.0383660248	 1.5254378461	-0.0980180789	-0.388757
C	 0.0799080392	 0.0074682855	 0.1299237579	 0.015404
C	 0.7847583431	-0.3315730834	 1.4513434878	-0.388756
C	-1.3272997472	-0.5884624408	 0.0935679916	-0.011601
C	-2.0707646255	-0.7064631162	-1.2602229442	-0.111876
C	-1.3404404067	-2.037141839	-1.6363343895	 0.089052
O	-2.5656655908	-2.7722523923	-1.9271660468	-0.331624
C	-2.8905126812	-1.9403229643	-0.7736164232	 0.082267
C	-1.5037477887	-2.1172063394	-0.0831249169	-0.111877
H	 1.0460706409	 1.9538158025	-0.0957589396	 0.110914
H	-0.4303265459	 1.7761837687	-1.0549477813	 0.113524
H	-0.5346796909	 2.022926432	 0.69377124	 0.112231
H	 0.6614309182	-0.4414607179	-0.6882926047	 0.068017
H	 0.2407745942	 0.0935397463	 2.3034980133	 0.11223
H	 0.851609693	-1.4131767918	 1.6060194787	 0.113524
H	 1.8017396228	 0.0737245177	 1.4728951036	 0.110914
H	-1.9390122445	-0.1614659098	 0.8999853774	 0.062453
H	-2.4117284487	 0.0656199776	-1.9502876801	 0.081551
H	-0.470027094	-2.2133347455	-2.2667852782	 0.096257
H	-3.8935871108	-1.9906870547	-0.3507886478	 0.094601
H	-1.202185951	-2.9437360712	 0.5606659412	 0.081551
68.6403	149.9803	162.0388	213.704	238.7441	306.2729	399.6959	417.193	493.5693	567.8507	751.1404	778.8747	796.2227	833.5402	836.062	874.4126	892.4047	908.329	924.6797	929.8797	964.9802	975.527	1012.7445	1029.1112	1095.629	1131.8081	1132.3632	1138.002	1155.0111	1172.6326	1179.1903	1187.8777	1201.9106	1241.1617	1279.6289	1319.5548	1337.2218	1348.9174	1400.124	1413.2139	1426.1127	1486.4448	1490.765	1504.1076	1509.4119	2997.2911	3016.211	3023.3686	3028.607	3087.8147	3093.8407	3099.5386	3102.018	3110.8716	3115.175	3122.9433	3136.75
CC(C)C1C2C3OC2C13	CC(C)[C@H]1[C@H]2[C@@H]3O[C@H]2[C@H]13	
InChI=1S/C8H12O/c1-3(2)4-5-7-6(4)8(5)9-7/h3-8H,1-2H3	InChI=1S/C8H12O/c1-3(2)4-5-7-6(4)8(5)9-7/h3-8H,1-2H3/t4-,5-,6+,7-,8+
