18
gdb 23346	4.13087	0.89656	0.86332	2.5194	77.4	-0.2346	0.0361	0.2707	1375.4292	0.14698	-438.96747	-438.958776	-438.957832	-439.001206	32.582	
O	 0.2629869568	 0.560809331	 1.025807933	-0.417766
C	-0.0841893792	 0.3530090558	-0.3374817512	-0.14118
C	-1.4531158716	-0.3018860307	-0.3429863964	 0.057951
C	-1.9920990791	-1.0572079842	-1.6169678406	-0.174215
C	-1.0269506982	-2.241862987	-1.2488557241	-0.244788
C	-1.6385140056	-1.7965117576	 0.1254178562	-0.131149
C	-2.944902216	-1.7246785427	-0.6357323219	 0.507775
N	-4.1388833931	-2.0794448429	-0.454323083	-0.328124
O	-4.9447352357	-1.7353919914	-1.5736079321	-0.40767
H	 1.0927227871	 1.0462052945	 1.0546132302	 0.289043
H	-0.1550609092	 1.3087624668	-0.881520848	 0.091669
H	 0.6743129927	-0.2537109058	-0.8497867611	 0.090252
H	-2.1731537794	 0.3854256261	 0.1094201147	 0.094004
H	-2.21264615	-0.646719144	-2.5992571812	 0.095514
H	-1.3150792404	-3.2306961367	-1.6090023347	 0.114052
H	 0.0392803329	-2.066213206	-1.3897070532	 0.104403
H	-1.4516263232	-2.2111101173	 1.11259415	 0.097309
H	-5.8082472188	-2.058051348	-1.2956507366	 0.30292
64.0623	114.9225	140.2996	220.7383	252.7802	307.4489	358.616	397.3404	437.1162	473.3167	582.2545	709.246	733.3681	781.2645	788.8395	853.3253	890.3808	936.5839	997.424	1021.4979	1045.3913	1060.517	1082.4859	1093.0076	1104.44	1134.0393	1147.9695	1188.5807	1207.2266	1218.7804	1239.3006	1256.4676	1270.445	1399.4566	1408.304	1464.6491	1506.3323	1534.3852	1829.5468	2973.4944	3018.0587	3077.0298	3083.4364	3148.7971	3153.0191	3159.1486	3822.6995	3828.9914
OCC1C2CC1C2=NO	OC[C@H]1[C@H]2C[C@@H]1C2=NO	
InChI=1S/C6H9NO2/c8-2-5-3-1-4(5)6(3)7-9/h3-5,8-9H,1-2H2	InChI=1S/C6H9NO2/c8-2-5-3-1-4(5)6(3)7-9/h3-5,8-9H,1-2H2/t3-,4+,5+
