13
gdb 129233	2.78335	1.55918	0.99936	3.3887	71.3	-0.2542	-0.1121	0.1421	1071.8238	0.090329	-448.909122	-448.901775	-448.900831	-448.941412	26.623	
N	 0.2361347709	 1.3845715512	-0.4637807517	-0.540106
C	 0.122593943	 0.1371139464	-0.2195983521	 0.351796
N	 1.1868930401	-0.7891144898	-0.1665677984	-0.295042
N	 1.1402913142	-2.1044213659	 0.0826826325	-0.014755
N	 0.0154915216	-2.6577822272	 0.3109637629	-0.222814
C	-1.1218799619	-1.8704952707	 0.2919090694	-0.002441
C	-1.1398035357	-0.536550113	 0.0463955026	 0.097086
C	-2.4213129542	 0.2221074231	 0.0487603725	 0.097439
O	-3.4899250273	-0.3011537505	 0.265234511	-0.259075
H	 1.20159283	 1.6713138888	-0.6248133783	 0.214455
H	 2.1301582482	-0.4625086757	-0.3325099916	 0.278229
H	-2.0475248822	-2.3980031054	 0.4931682154	 0.165572
H	-2.3209706965	 1.3007795988	-0.1624665842	 0.129655
101.6312	119.1226	203.5709	227.8928	355.8891	373.4564	510.0996	556.7537	565.8951	654.531	698.1794	771.3248	804.1573	825.8629	925.6328	988.7137	1056.2282	1062.0285	1072.1734	1151.5863	1201.2962	1263.9205	1352.8253	1403.2063	1451.9524	1529.952	1619.1434	1734.1167	1792.9325	2995.3066	3211.4648	3479.664	3589.4729
N=C1NN=NC=C1C=O	[NH]c1[nH]nncc1C=O	
InChI=1S/C4H4N4O/c5-4-3(2-9)1-6-8-7-4/h1-2H,(H2,5,6,7)	InChI=1S/C4H9N4O/c5-4-3(2-9)1-6-8-7-4/h2-8H,1H2
