14
gdb 26622	2.4049	1.89107	1.05863	4.1381	71.78	-0.1915	-0.0287	0.1627	1036.839	0.101462	-473.856018	-473.848416	-473.847472	-473.887838	29.428	
O	-0.032264621	 1.384632606	 0.0083393528	-0.422637
C	-0.0001237804	 0.0275541682	 0.0007117526	 0.269079
C	-1.1645341059	-0.677019821	 0.0031538944	 0.219969
O	-2.3836766421	-0.1036524177	 0.0128997115	-0.428664
C	-1.1475130742	-2.1260382406	-0.0048771246	 0.326109
N	-2.2549965623	-2.7627236545	-0.0024011047	-0.594536
O	 0.0729084469	-2.7609799236	-0.0149795643	-0.225921
C	 1.2239775411	-2.044944215	-0.0172869376	 0.0528
C	 1.2398564988	-0.7025910988	-0.0100064349	-0.281566
H	 0.8675463714	 1.7252963311	 0.0052872366	 0.301793
H	-3.0047257868	-0.85658904	 0.0121476499	 0.306998
H	-2.1297839909	-3.7715503572	-0.008627569	 0.227061
H	 2.0952533054	-2.6844942154	-0.0255161612	 0.141083
H	 2.1894257102	-0.1797935315	-0.0122777748	 0.108431
135.5929	186.3846	266.579	292.4102	300.1668	341.1589	489.1689	509.4514	534.2393	556.7741	583.1578	631.3751	706.1743	734.5602	744.2015	772.2155	854.4655	874.8169	997.0294	1048.7882	1112.2901	1207.713	1266.7102	1288.1318	1328.3116	1365.4506	1444.3699	1468.0977	1631.1715	1701.4305	1749.0275	3195.1498	3242.3165	3535.8956	3607.2703	3834.6331
OC1=C(O)C(=N)OC=C1	O[C@@H]1C(=C([NH])OC=C1)O	
InChI=1S/C5H5NO3/c6-5-4(8)3(7)1-2-9-5/h1-2,6-8H	InChI=1S/C5H6NO3/c6-5-4(8)3(7)1-2-9-5/h1-3,6-8H/t3-/m0/s1
