17
gdb 63612	2.9384	1.07116	0.95577	3.8061	78.1	-0.2657	-0.0697	0.1961	1293.8406	0.131398	-421.790668	-421.780958	-421.780014	-421.825434	34.985	
C	 0.2747540736	 1.4441171047	-0.498332752	-0.46748
C	-0.0145780514	 0.0321699929	-0.0441799312	 0.388735
C	-1.2467085935	-0.6155189132	-0.6401039816	-0.447432
O	 1.1228088419	-0.8243325538	 0.0635960347	-0.262942
C	 0.4694810581	-0.4777296986	 1.275864145	-0.122052
C	 1.2164025085	 0.394649775	 2.2450596769	 0.251011
O	 2.2070080819	 1.0323798512	 1.9613326883	-0.293776
C	 0.6276310639	 0.4334935966	 3.5744765725	 0.25305
C	 0.1305594238	 0.4509093878	 4.6708305849	-0.427601
H	 1.1825841105	 1.8285159049	-0.0339196392	 0.165846
H	 0.4081479486	 1.4547231285	-1.5854580559	 0.128384
H	-0.5648326291	 2.1052175521	-0.2593652388	 0.121183
H	-1.1707286396	-0.6280877972	-1.7327778727	 0.132743
H	-1.3569344533	-1.6450141714	-0.2919963784	 0.130488
H	-2.1477677882	-0.053645018	-0.3738667408	 0.127348
H	-0.1054283346	-1.2762906459	 1.7460493416	 0.103295
H	-0.2956236211	 0.4813996042	 5.6444170666	 0.2192
50.471	111.3887	161.4143	171.5361	210.1056	219.369	262.438	319.942	360.8803	406.9123	454.9443	492.6076	613.1788	656.6843	684.7113	708.5456	756.1698	831.7186	898.6825	940.3841	951.311	1013.2858	1059.7609	1082.4522	1124.6578	1166.5807	1265.5571	1333.8127	1408.1938	1417.3763	1430.6518	1474.8792	1483.6169	1500.3145	1508.7542	1763.6396	2210.7216	3036.7627	3042.6092	3098.7061	3104.7661	3107.1661	3128.6286	3158.4985	3492.2983
CC1(C)OC1C(=O)C#C	CC1(C)O[C@H]1C(=O)C#C	
InChI=1S/C7H8O2/c1-4-5(8)6-7(2,3)9-6/h1,6H,2-3H3	InChI=1S/C7H8O2/c1-4-5(8)6-7(2,3)9-6/h1,6H,2-3H3/t6-/m0/s1
