16
gdb 52833	2.6742	1.00878	0.95271	2.7688	75.54	-0.2345	0.0107	0.2452	1340.4337	0.121971	-437.873517	-437.863703	-437.862759	-437.909555	33.735	
C	-0.0185400153	 1.5132726123	-0.0167075556	-0.500429
C	 0.0349004972	 0.0596909011	 0.00526711	 0.025338
C	 0.0818798536	-1.1439834678	 0.0264431424	 0.072323
C	 0.1094978424	-2.5955184022	 0.0027078046	 0.083588
O	 1.0326193202	-3.1295938326	-0.9240199423	-0.449531
C	 0.2359856773	-3.3219695522	 1.3808266705	-0.188428
N	-1.1240892103	-3.829307192	 1.1715193823	-0.322295
C	-1.3078135815	-3.2912308187	-0.0727092376	 0.371506
O	-2.1772832342	-3.3655758076	-0.8957441235	-0.359414
H	 0.8667483228	 1.9331018219	-0.5065308571	 0.154252
H	-0.9015829366	 1.8699910801	-0.5577417808	 0.156447
H	-0.0611882066	 1.921953565	 0.9987278203	 0.153318
H	 0.7698475138	-2.817703448	-1.7980934543	 0.294665
H	 1.0145664765	-4.0892163511	 1.3675879168	 0.129305
H	 0.3464373808	-2.6669458735	 2.2477164442	 0.123893
H	-1.6673259802	-4.5091781549	 1.6824497802	 0.255461
31.4408	79.5424	87.5676	142.7347	166.7085	244.3244	287.1951	326.8047	335.9457	421.556	459.1434	518.6423	571.5718	640.8225	743.9385	783.6152	902.3641	932.2819	999.6498	1016.8476	1051.9945	1052.7602	1144.9446	1163.1938	1177.5752	1247.7091	1292.4685	1359.0418	1397.9456	1413.4045	1475.1541	1477.0461	1516.4414	1902.3667	2363.5455	3029.9175	3059.615	3092.7849	3093.2302	3120.0091	3613.9301	3801.4055
CC#CC1(O)CNC1=O	CC#C[C@@]1(O)CNC1=O	
InChI=1S/C6H7NO2/c1-2-3-6(9)4-7-5(6)8/h9H,4H2,1H3,(H,7,8)	InChI=1S/C6H7NO2/c1-2-3-6(9)4-7-5(6)8/h9H,4H2,1H3,(H,7,8)/t6-/m1/s1
