14
gdb 29666	3.45052	1.35422	0.97854	4.2649	73.25	-0.2168	-0.0287	0.1881	1118.0486	0.10004	-436.70798	-436.699662	-436.698718	-436.741167	29.935	
C	 0.003508092	 1.4385930773	 0.0632136222	-0.348095
N	 0.0131070756	-0.008917368	 0.0444461389	-0.208826
C	-0.0119874885	-0.7494069797	-1.1139280452	 0.487006
O	-0.0442258251	-0.3869749158	-2.2578790679	-0.407712
O	 0.0074940876	-2.0814536945	-0.7144650861	-0.201534
C	 0.0429572467	-2.123707888	 0.6493974086	-0.136395
C	 0.0477200061	-0.8728275515	 1.1545145611	 0.148669
C	 0.0789825636	-0.4246364052	 2.4865667862	 0.288043
C	 0.1056109151	-0.0173196135	 3.6196270354	-0.460911
H	 0.9035836998	 1.8288823323	 0.5471595666	 0.14577
H	-0.0254003498	 1.770300075	-0.975347711	 0.17462
H	-0.8759251046	 1.8164806194	 0.5927889934	 0.145765
H	 0.062187194	-3.0904836014	 1.1198820547	 0.167494
H	 0.1291304675	 0.3311633237	 4.6227947431	 0.206104
91.5393	116.5111	136.1403	170.7771	273.7395	295.1929	439.1659	462.6371	536.454	558.4689	620.3226	629.8807	696.0095	705.7654	738.7063	761.9735	793.7083	974.4292	1026.7575	1154.8645	1160.8494	1189.3847	1274.6475	1346.5452	1406.6721	1462.1719	1490.2795	1512.9627	1653.806	1886.7517	2234.672	3044.6706	3106.8222	3156.9894	3303.2532	3498.9661
CN1C(=O)OC=C1C#C	Cn1c(=O)occ1C#C	
InChI=1S/C6H5NO2/c1-3-5-4-9-6(8)7(5)2/h1,4H,2H3	InChI=1S/C6H5NO2/c1-3-5-4-9-6(8)7(5)2/h1,4H,2H3
