16
gdb 34490	3.01348	1.37816	1.00408	3.4135	79.08	-0.26	-0.0561	0.2039	1135.063	0.125866	-400.733618	-400.726184	-400.72524	-400.765817	28.021	
N	-0.0617085732	-1.1139774652	 0.221553595	-0.336337
C	-0.0652860187	 0.036717463	 0.0818625899	 0.199894
C	-0.0402751519	 1.4423941769	-0.094056687	 0.067463
C	-1.0838311028	 2.2676389622	-0.2178462853	 0.109348
C	-2.4531916394	 2.5937153288	 0.3106035784	-0.155931
O	-1.9109747305	 3.8754103565	 0.7616094122	-0.298999
C	-0.7181702561	 3.704994992	-0.0851356369	 0.112943
C	 0.7012900305	 3.6683659863	 0.5028777872	-0.255829
C	 1.2418853131	 2.2888588081	-0.0017457435	-0.306896
H	-3.2388373091	 2.7375684727	-0.4410683726	 0.124108
H	-2.8282993628	 1.9733571329	 1.1300489307	 0.139707
H	-0.8097558294	 4.3411718063	-0.9746555224	 0.094604
H	 1.3312912517	 4.5095383728	 0.2044382656	 0.110643
H	 0.6291643825	 3.656989841	 1.5946217151	 0.131984
H	 1.961722955	 1.8415955153	 0.6885166632	 0.134713
H	 1.7432884611	 2.3782266904	-0.9726703596	 0.128584
106.6337	139.4349	170.7831	252.6592	353.2003	387.9075	500.6646	552.2428	590.7691	621.0139	691.3806	770.9326	853.0871	901.5714	919.674	928.9141	970.6114	1018.5124	1056.8375	1063.1904	1119.314	1143.3834	1152.3163	1180.943	1235.9969	1265.4374	1287.1167	1322.6587	1329.4826	1349.8008	1479.4917	1494.8066	1503.6686	1733.1892	2332.9351	3021.9527	3029.6064	3041.2862	3063.9507	3091.5894	3099.3506	3120.6239
N#CC1=C2COC2CC1	N#C[C]1[C]2CO[C@H]2CC1	
InChI=1S/C7H7NO/c8-3-5-1-2-7-6(5)4-9-7/h7H,1-2,4H2	InChI=1S/C7H7NO/c8-3-5-1-2-7-6(5)4-9-7/h7H,1-2,4H2/t7-/m0/s1
