23
gdb 120376	2.59714	0.9985	0.80067	1.2118	87.23	-0.2365	0.025	0.2616	1509.8386	0.20601	-388.29973	-388.289947	-388.289003	-388.334698	36.674	
C	-0.700871471	 1.3035628746	-0.0370049196	-0.412894
C	 0.099637186	 0.0031828007	-0.0825278748	 0.025189
C	 1.3437313076	 0.0440444346	-1.0077614154	-0.259088
C	 2.2525893805	-0.9917614306	-0.3923224597	-0.070899
C	 1.8583630615	-1.3293502413	 0.8345186289	-0.065112
C	 0.6364996694	-0.5480297236	 1.2813256518	-0.061978
C	 0.9846393413	 0.5354158207	 2.3229861833	-0.16822
C	 1.5201599669	-0.0310995017	 3.6321136186	-0.081613
O	 1.6966324042	 1.0546207523	 4.5319002612	-0.422445
H	-0.0971979693	 2.1416976337	 0.3254103239	 0.120165
H	-1.0607531541	 1.5661143073	-1.0377466048	 0.108844
H	-1.5772651743	 1.2160764626	 0.6143539739	 0.112102
H	-0.5546347927	-0.7822530777	-0.481113117	 0.075722
H	 1.0880914815	-0.1698724448	-2.0521009335	 0.098481
H	 1.8205234205	 1.0359079087	-1.0066144055	 0.101831
H	 3.1288171055	-1.3826061965	-0.8985717528	 0.088356
H	 2.3659213603	-2.0417012316	 1.4761199441	 0.087996
H	-0.115433442	-1.2084801735	 1.7352439878	 0.065197
H	 1.727911681	 1.2304629466	 1.9149995786	 0.103615
H	 0.0921344082	 1.1252968473	 2.5598650379	 0.104709
H	 0.806674321	-0.7695150421	 4.0359531426	 0.08022
H	 2.4714148614	-0.5576327701	 3.4592525842	 0.08612
H	 2.0704708668	 0.7099984042	 5.3479813264	 0.283703
67.4707	94.2075	127.3613	141.9326	243.5492	261.2738	268.1979	287.5934	354.3276	388.5889	488.8896	523.0961	632.6517	738.21	763.152	804.5097	826.8616	888.1398	924.8123	954.6963	976.165	980.3837	1009.8229	1035.0038	1068.0835	1082.18	1099.9581	1121.1746	1138.4746	1167.6556	1185.3005	1224.9412	1239.8617	1282.8987	1302.1343	1311.8911	1330.7998	1340.3098	1367.0722	1372.7028	1378.0993	1413.7259	1462.2158	1486.7959	1490.2546	1499.2761	1505.5757	1527.848	1684.5976	2955.8286	2993.2862	2993.823	2999.4169	3021.1642	3029.346	3035.4789	3052.673	3081.4789	3092.3522	3102.5957	3175.1922	3201.1161	3829.5387
CC1CC=CC1CCO	C[C@H]1CC=C[C@H]1CCO	
InChI=1S/C8H14O/c1-7-3-2-4-8(7)5-6-9/h2,4,7-9H,3,5-6H2,1H3	InChI=1S/C8H14O/c1-7-3-2-4-8(7)5-6-9/h2,4,7-9H,3,5-6H2,1H3/t7-,8-/m0/s1
