14
gdb 34793	2.41093	1.54908	1.11642	4.334	71.95	-0.2886	-0.0224	0.2662	1055.8611	0.102457	-395.676964	-395.669641	-395.668697	-395.709049	27.385	
N	-0.1181806525	-1.2246897636	-0.0643820364	-0.314691
C	-0.0684608096	-0.0698599565	-0.0447152226	 0.272291
C	-0.0097893672	 1.381798651	-0.0012091954	-0.187499
C	 0.1073303747	 2.1308117086	 1.3721389243	-0.045913
C	 1.5592764815	 1.6079995394	 1.5143730371	-0.249658
C	 1.3797327457	 2.1236808873	 0.0575993705	 0.236529
N	 0.696702886	 3.336109083	 0.6630337705	-0.331745
C	 2.354444456	 2.2217328923	-1.0008932512	 0.17481
N	 3.1259900566	 2.291194566	-1.858259731	-0.329286
H	-0.7187586767	 1.8237049917	-0.705740168	 0.133985
H	-0.6628974511	 2.2250259366	 2.1341578441	 0.122694
H	 2.2137133626	 2.2220523924	 2.1298795502	 0.141988
H	 1.7043194126	 0.5369945443	 1.6452845259	 0.150116
H	 0.0205600013	 3.7199934576	-0.005718788	 0.226379
98.0549	169.3278	175.7353	217.9816	436.2563	450.3233	506.5472	525.0901	562.4278	583.7525	644.5053	767.3065	838.9085	906.3044	931.7948	940.735	968.9438	1044.7525	1055.649	1093.78	1121.6592	1161.0573	1209.1247	1213.3451	1264.4121	1265.8005	1298.6086	1372.8747	1499.6377	2353.687	2361.1455	3090.367	3108.848	3154.3062	3192.9049	3387.2594
N#CC1C2CC1(N2)C#N	N#C[C@H]1[C@H]2C[C@@]1(N2)C#N	
InChI=1S/C6H5N3/c7-2-4-5-1-6(4,3-8)9-5/h4-5,9H,1H2	InChI=1S/C6H5N3/c7-2-4-5-1-6(4,3-8)9-5/h4-5,9H,1H2/t4-,5+,6+/m0/s1
