16
gdb 8697	2.4553	1.74631	1.39207	1.3297	62.29	-0.2514	0.0246	0.2759	954.5765	0.127527	-420.824845	-420.815716	-420.814772	-420.858162	33.624	
O	 0.0739522671	 1.4542513327	 0.003333701	-0.418017
C	 0.0124901142	 0.042991978	-0.0066993938	-0.108112
C	-1.4392491475	-0.5034010922	 0.0009465272	 0.115683
O	-1.392793138	-1.9214037842	-0.0210927257	-0.458717
C	-2.200696359	-0.0360515215	 1.2663850553	-0.111173
O	-1.702692003	-0.718873579	 2.4116066939	-0.430244
C	-2.1329008994	-0.0083437911	-1.1903905003	 0.331578
C	-2.6678437006	 0.475496836	-2.152709073	-0.464128
H	-0.363362043	 1.7622449213	-0.7997759363	 0.28919
H	 0.5356598495	-0.3995058715	-0.8643916587	 0.112358
H	 0.5185306615	-0.301241698	 0.9019338264	 0.094892
H	-1.3379483331	-2.1786543332	 0.9112444625	 0.291335
H	-2.1230816197	 1.0508849822	 1.3662855493	 0.12262
H	-3.2524252638	-0.3167532991	 1.1720879217	 0.127823
H	-0.9201879388	-0.2546842892	 2.7255237554	 0.299861
H	-3.1592708565	 0.8702256987	-3.0080976951	 0.205052
88.2264	126.4838	145.4533	198.3425	256.9126	291.9074	340.5727	362.1075	407.7813	446.7083	494.1768	510.3181	562.8726	611.9139	636.223	680.5135	761.1974	888.4088	930.8898	1052.6952	1071.1775	1100.7452	1101.7233	1156.106	1205.7986	1249.0634	1356.2944	1374.7205	1395.1281	1412.7226	1426.8392	1486.002	1504.5894	2230.0608	3021.4644	3057.469	3075.845	3119.7666	3497.7788	3730.0166	3784.4972	3826.4867
OCC(O)(CO)C#C	OCC(O)(CO)C#C	
InChI=1S/C5H8O3/c1-2-5(8,3-6)4-7/h1,6-8H,3-4H2	InChI=1S/C5H8O3/c1-2-5(8,3-6)4-7/h1,6-8H,3-4H2
