21
gdb 111137	3.07911	1.21398	0.98399	2.0401	79.55	-0.2489	0.0727	0.3216	1258.9564	0.181359	-424.160056	-424.150853	-424.149909	-424.193759	35.825	
C	-0.1523263233	 1.5442688485	 0.946657618	-0.48405
C	-0.0621605053	 0.0716880342	 0.5592822404	 0.467685
O	-1.3838842162	-0.4374076374	 0.4675094413	-0.476668
C	 0.9694219088	-0.4111592879	-0.5256465988	-0.142428
C	 2.0763971782	-0.2085407864	 0.5503669693	-0.246274
C	 0.9007010465	-0.9054026672	 1.2974075248	-0.116027
C	 0.8275942751	-1.8585241837	 0.0544431895	 0.069654
C	-0.3455334071	-2.7946466656	-0.2465100783	-0.129715
O	 0.2313853086	-4.0517719927	-0.6050744528	-0.439695
H	 0.812224662	 2.034805423	 1.077670623	 0.12482
H	-0.6937007121	 2.1000188594	 0.1693806569	 0.105835
H	-0.7197034131	 1.6433674694	 1.8773065492	 0.128061
H	-1.8991703171	 0.1680295004	-0.0752259483	 0.275068
H	 1.010710208	-0.1225107931	-1.5786703401	 0.06169
H	 2.9723507023	-0.8180239745	 0.420534499	 0.09923
H	 2.3383860664	 0.8083271256	 0.838194686	 0.089945
H	 0.8593751136	-1.1893780777	 2.3509421306	 0.067771
H	 1.7381574329	-2.4512988726	-0.0706249838	 0.084421
H	-0.999720714	-2.8978816559	 0.6281239238	 0.098695
H	-0.9627445321	-2.4012282299	-1.0646039643	 0.082264
H	-0.488659652	-4.6651397859	-0.7784204153	 0.279717
56.1309	177.3426	193.7545	200.8202	264.437	283.0207	325.8504	341.8657	384.2306	418.3338	442.8945	557.0317	630.3016	674.0964	768.6484	778.0728	879.4241	890.9842	897.5388	959.4645	1004.107	1016.2422	1025.8815	1058.4431	1063.067	1079.4556	1098.1319	1117.5689	1142.1228	1180.6977	1190.4469	1193.3594	1227.0515	1232.3585	1253.177	1262.0077	1267.325	1372.1696	1387.7425	1414.4756	1454.0192	1492.5584	1495.0457	1503.7889	1535.8526	3005.4147	3022.7281	3039.1223	3066.8989	3077.1477	3085.3218	3089.5634	3098.3402	3137.0541	3153.8614	3811.8252	3828.8589
CC1(O)C2CC1C2CO	C[C@@]1(O)[C@H]2C[C@@H]1[C@H]2CO	
InChI=1S/C7H12O2/c1-7(9)5-2-6(7)4(5)3-8/h4-6,8-9H,2-3H2,1H3	InChI=1S/C7H12O2/c1-7(9)5-2-6(7)4(5)3-8/h4-6,8-9H,2-3H2,1H3/t4-,5-,6+,7+
