16
gdb 25569	4.06309	1.03109	0.84776	3.1583	72.73	-0.192	-0.0235	0.1685	1299.6893	0.123837	-437.906483	-437.898122	-437.897178	-437.940915	30.109	
O	 1.0427455837	 0.8598897202	 1.2159107609	-0.239228
C	 0.7787436907	 1.657363541	 0.3577003987	 0.18023
C	 1.2001785187	 1.492992039	-1.1004889113	-0.263201
N	 1.1477845271	 2.7517644798	-1.8307611384	-0.401753
C	 2.1807234504	 3.6588231601	-1.6567173533	 0.434364
C	 2.7367002907	 4.6190090236	-2.4499122106	-0.304799
C	 3.7098503987	 5.2819272854	-1.625030957	-0.156702
C	 3.6785907605	 4.6770669522	-0.4151320791	-0.032793
O	 2.7360997572	 3.6724780533	-0.4215631587	-0.175509
H	 0.1721914852	 2.569512236	 0.5506612203	 0.091916
H	 2.1807535395	 0.9982178191	-1.124621437	 0.136258
H	 0.4740953557	 0.810570615	-1.5580902968	 0.136678
H	 0.8845645899	 2.6584962701	-2.7996295167	 0.251465
H	 2.4921518559	 4.8281458316	-3.4786424808	 0.09783
H	 4.3520699591	 6.099764895	-1.9126810995	 0.110457
H	 4.217059807	 4.7970241485	 0.5084790592	 0.134786
37.4816	58.0146	129.4212	187.4235	286.5378	332.7812	401.6138	518.3858	604.3723	624.2804	665.9017	678.0742	709.4996	745.0818	776.03	837.7106	898.7268	954.0029	1025.4062	1033.1386	1084.3048	1092.0199	1121.4016	1177.1877	1234.358	1259.5253	1310.2657	1330.759	1399.1559	1415.412	1448.8975	1479.4748	1571.4881	1657.6417	1845.0356	2898.8055	3013.6097	3072.8743	3252.8086	3266.1707	3300.7752	3622.3254
O=CCNC1=CC=CO1	O=CCNc1ccco1	
InChI=1S/C6H7NO2/c8-4-3-7-6-2-1-5-9-6/h1-2,4-5,7H,3H2	InChI=1S/C6H7NO2/c8-4-3-7-6-2-1-5-9-6/h1-2,4-5,7H,3H2
