17
gdb 27178	3.11782	1.28118	0.97879	2.7052	76.66	-0.1856	0.0301	0.2157	1195.608	0.137693	-418.033657	-418.025563	-418.024619	-418.066896	30.714	
O	 0.3381337085	 1.3627318484	 0.0075972139	-0.441867
C	 0.1531383972	 0.0202802017	-0.0194177209	 0.256321
C	-0.0810113665	-0.7416203109	-1.139241974	 0.240196
N	-0.1962271386	-2.031155355	-0.6290703447	-0.329223
C	-0.0296032024	-1.9676609079	 0.7172774155	 0.001981
N	 0.1844553376	-0.7309146577	 1.1193801804	-0.339396
C	-0.1964108812	-0.3701791842	-2.5561414652	-0.084153
C	 0.316913131	-1.2574782684	-3.6733643115	-0.27551
C	-1.1655659646	-1.0554462146	-3.4996515277	-0.275464
H	 0.4778730886	 1.5951614709	 0.9331598062	 0.29872
H	-0.3717989737	-2.8641283302	-1.1645796352	 0.262856
H	-0.0735317241	-2.84019479	 1.3504483006	 0.129484
H	-0.0681852498	 0.696543283	-2.7023801235	 0.107818
H	 0.8097794433	-0.7848489384	-4.5156511109	 0.120048
H	 0.7410459947	-2.2186677162	-3.4001422036	 0.104054
H	-1.7548856092	-1.878503608	-3.1076098904	 0.104086
H	-1.6940067707	-0.4436340625	-4.2222709491	 0.120048
44.6882	147.6439	148.395	289.6586	299.5848	336.2976	425.2365	471.2803	513.0538	593.5437	668.4053	732.3648	734.4687	767.837	790.7272	810.5258	901.3783	913.9023	958.2197	1057.2286	1062.0186	1069.5049	1079.8111	1132.4326	1139.0652	1199.0463	1208.9594	1237.3124	1273.0809	1342.443	1395.7845	1412.8481	1471.1468	1490.9644	1516.9575	1521.1439	1688.0107	3125.8852	3131.1831	3175.2718	3204.7441	3221.5691	3258.973	3668.3166	3809.391
OC1=C(NC=N1)C1CC1	Oc1c([nH]cn1)C1CC1	
InChI=1S/C6H8N2O/c9-6-5(4-1-2-4)7-3-8-6/h3-4,9H,1-2H2,(H,7,8)	InChI=1S/C6H8N2O/c9-6-5(4-1-2-4)7-3-8-6/h3-4,9H,1-2H2,(H,7,8)
