18
gdb 56957	2.23355	1.18472	0.85714	3.2269	79.07	-0.2505	-0.029	0.2216	1355.2261	0.144824	-401.896382	-401.886716	-401.885771	-401.931656	34.865	
C	-0.0451075833	 1.4958019035	 0.0013025252	-0.397442
C	 0.069967051	-0.0312839357	 0.1850417817	-0.16706
C	 0.7484483086	-0.3769993261	 1.4329131945	 0.330459
C	 1.2899657665	-0.6529087006	 2.4698033725	-0.465415
C	-1.3161326868	-0.6680988466	 0.1332191225	-0.00149
N	-1.8815586965	-0.904630354	-1.1836560881	-0.340024
C	-1.5914662647	-2.0728204066	-0.3188893965	-0.1275
C	-0.5211036661	-2.989284053	-0.8046812646	 0.179114
O	-0.449847015	-4.150662938	-0.4919667677	-0.256226
H	 0.9436417225	 1.9605263361	 0.0059054684	 0.130704
H	-0.5347097199	 1.7162968117	-0.9512941026	 0.130476
H	-0.6320251495	 1.940450365	 0.8109352931	 0.124589
H	 0.6528277188	-0.4258844308	-0.6549862163	 0.115155
H	 1.7783419218	-0.9076001839	 3.3777734652	 0.200866
H	-1.9813517145	-0.3146190656	 0.9209317327	 0.104643
H	-2.8809928556	-0.7237338549	-1.2057715736	 0.245857
H	-2.4132791989	-2.5870081808	 0.1732768308	 0.107683
H	 0.2077430817	-2.5210001498	-1.5008295174	 0.08561
38.8793	84.5976	131.6244	184.5619	203.2835	236.7965	274.1674	313.481	412.2388	427.9843	496.9781	524.7842	579.3548	636.9511	648.3574	792.8593	851.4909	900.6202	918.7136	961.1497	993.8016	1030.2977	1054.5224	1082.2005	1113.5731	1146.6581	1200.9068	1229.2157	1251.6836	1297.816	1323.6187	1365.4353	1400.3624	1419.8219	1466.0071	1495.6286	1497.6148	1824.8443	2237.671	2901.001	3042.2118	3045.7517	3110.6285	3119.2268	3129.0859	3150.4031	3503.9376	3517.7586
CC(C#C)C1NC1C=O	C[C@@H](C#C)[C@H]1N[C@H]1C=O	
InChI=1S/C7H9NO/c1-3-5(2)7-6(4-9)8-7/h1,4-8H,2H3	InChI=1S/C7H9NO/c1-3-5(2)7-6(4-9)8-7/h1,4-8H,2H3/t5-,6-,7+/m0/s1
