20
gdb 30770	2.88117	1.26996	0.92935	1.4526	84.26	-0.1881	0.0439	0.232	1287.8068	0.170436	-403.182397	-403.172502	-403.171558	-403.217553	35.5	
C	-0.1802002348	 1.4052455554	 0.0865104192	-0.336618
N	 0.0654726502	-0.0175980034	-0.0053190679	-0.030078
C	 0.3504201106	-0.6970008395	-1.1670363028	-0.110683
C	 0.4820438957	-2.0285188205	-0.8612580829	-0.278432
C	 0.2738619124	-2.1688362648	 0.5398359513	 0.22275
C	 0.3537726778	-3.4424385019	 1.3202784203	-0.212151
O	-0.846867454	-3.6235309988	 2.0794197989	-0.413777
C	 0.0155894629	-0.906494425	 1.0470146179	 0.215833
C	-0.2804566887	-0.4689500572	 2.444120829	-0.51202
H	 0.4955385983	 1.8788626717	 0.8063203252	 0.13658
H	-0.0118463232	 1.85750482	-0.8922805171	 0.138416
H	-1.2111498442	 1.6165320761	 0.3922041358	 0.137543
H	 0.4278257294	-0.1688286918	-2.1041668545	 0.10971
H	 0.7050148924	-2.8226600679	-1.5582472931	 0.088253
H	 0.5045699259	-4.2797110117	 0.6218232949	 0.089772
H	 1.2232803154	-3.4324353383	 1.9985930459	 0.085689
H	-0.7263497075	-4.4048277792	 2.6290037436	 0.280878
H	 0.5291097626	 0.1326449811	 2.8794001593	 0.116232
H	-1.1956780813	 0.133355762	 2.503108368	 0.120877
H	-0.4324084	-1.3505562463	 3.0679131588	 0.151227
66.1488	73.1697	124.3992	141.1174	197.6177	241.1761	257.0186	281.3864	317.9001	404.7891	471.4515	597.398	618.5696	675.0572	699.4519	713.3892	765.1511	796.2328	949.5426	1003.1441	1034.3409	1054.5294	1062.3173	1097.7766	1129.7291	1149.2844	1196.2933	1234.7938	1255.9849	1273.4231	1367.6466	1398.4416	1412.2371	1451.406	1464.0197	1477.0081	1484.4385	1485.4584	1495.6223	1518.3561	1519.4872	1535.8419	1612.0535	2953.7439	2993.3732	3007.6012	3029.5366	3052.2878	3083.5771	3135.9175	3144.377	3236.8547	3262.2438	3808.7799
CN1C=CC(CO)=C1C	Cn1ccc(CO)c1C	
InChI=1S/C7H11NO/c1-6-7(5-9)3-4-8(6)2/h3-4,9H,5H2,1-2H3	InChI=1S/C7H11NO/c1-6-7(5-9)3-4-8(6)2/h3-4,9H,5H2,1-2H3
