20
gdb 97145	2.95312	1.27348	1.16121	2.735	82.48	-0.2376	0.0297	0.2673	1184.1184	0.171554	-403.157605	-403.148781	-403.147836	-403.191292	32.837	
C	 0.0112546815	 1.4031629121	-0.1274938911	-0.327399
N	-0.0321081967	-0.0456612558	-0.2407524023	-0.337615
C	-1.0963310728	-0.6543817909	 0.0491950511	 0.449101
O	-2.2721232277	-0.04152968	 0.4327047493	-0.25851
C	-3.1920535052	-0.9973413599	 0.9857335023	-0.10758
C	-2.6556958006	-2.3739674518	 0.6370326842	-0.094347
C	-2.4139080035	-2.6775074401	-0.8158405711	-0.013978
C	-3.0462213276	-1.9190088073	-1.9631814315	-0.424599
C	-1.2828481573	-2.1283370814	 0.0429736327	-0.162004
H	 1.0094915175	 1.7038140579	 0.205984794	 0.117345
H	-0.147617447	 1.8591482272	-1.1132034534	 0.122056
H	-0.7373182076	 1.8174468657	 0.5585508828	 0.117634
H	-3.2392507524	-0.8581074678	 2.0724950499	 0.115562
H	-4.1812055295	-0.7852539438	 0.5660309997	 0.116851
H	-2.8397948389	-3.180793971	 1.3361832674	 0.097684
H	-2.2934478646	-3.739966201	-1.0136354575	 0.09486
H	-3.1458296143	-0.852374787	-1.7501982613	 0.140026
H	-2.4406310225	-2.0211441423	-2.8693710603	 0.127744
H	-4.0439236603	-2.3148204293	-2.1828667762	 0.11675
H	-0.4149507905	-2.7407119736	 0.2450190212	 0.110419
77.2599	95.4882	185.0654	196.8516	218.7638	248.4041	259.3037	415.2551	460.0578	502.0358	662.7636	701.5811	751.6068	765.4	799.4523	845.0709	917.8045	968.4452	989.84	1014.1952	1033.3308	1049.3916	1078.6853	1096.0331	1123.8045	1133.2771	1136.0834	1164.3844	1203.9605	1217.7005	1236.7672	1338.5512	1358.9903	1383.7705	1423.1541	1436.4063	1441.0046	1491.6679	1497.8146	1500.6274	1503.6645	1522.0525	1797.2067	3010.2358	3029.2247	3037.7891	3066.0137	3071.5054	3089.5216	3096.1618	3122.0395	3141.1153	3183.1022	3213.6133
CN=C1OCC2C(C)C12	CN=C1OC[C@H]2[C@@H](C)[C@@H]12	
InChI=1S/C7H11NO/c1-4-5-3-9-7(8-2)6(4)5/h4-6H,3H2,1-2H3	InChI=1S/C7H11NO/c1-4-5-3-9-7(8-2)6(4)5/h4-6H,3H2,1-2H3/t4-,5+,6-/m1/s1
