19
gdb 64712	3.76307	1.10969	1.03925	3.5415	78.88	-0.2485	0.0306	0.2791	1200.6186	0.15923	-382.045748	-382.037186	-382.036241	-382.078876	32.734	
C	-0.0663374437	 1.6885797679	 0.1199286422	-0.458747
C	 0.0417704755	 0.1746722806	 0.0137276424	 0.330617
C	-1.3516215678	-0.4681195186	-0.1409501451	-0.377474
C	-2.0127636742	-0.1017914777	-1.3907696837	 0.263504
N	-2.5143744522	 0.196644589	-2.3884000674	-0.316989
C	 1.085703217	-0.4423568716	-0.9677577514	-0.309839
C	 1.6918338111	-1.129869031	 0.2522776989	-0.012392
C	 2.0846334165	-0.1455934568	 1.2746470304	-0.246221
N	 0.6634497831	-0.5339999484	 1.2056160918	-0.160098
H	 0.9123399194	 2.1677074172	 0.1944319449	 0.121704
H	-0.5667037839	 2.0976497996	-0.7634214432	 0.147735
H	-0.6498423688	 1.9666708056	 1.0043816032	 0.12919
H	-1.2531465389	-1.5574299312	-0.0942724466	 0.154512
H	-1.9814258321	-0.1718972147	 0.7051190921	 0.155719
H	 0.6408400835	-1.1210882664	-1.6976148414	 0.123077
H	 1.7409853157	 0.2544341177	-1.4975824915	 0.111704
H	 1.9739279324	-2.1757600393	 0.3111181269	 0.099706
H	 2.5634040458	-0.5157548541	 2.1758820475	 0.128067
H	 2.3955175219	 0.8529413222	 0.98032637	 0.116228
72.7571	128.6206	187.6971	225.468	258.1749	347.2109	371.6611	404.244	419.0396	454.7479	545.4529	683.1533	760.8702	770.2446	821.282	860.7841	903.507	935.8361	953.6947	972.5782	989.4393	1015.3339	1063.1042	1110.8851	1119.4473	1135.0322	1148.3875	1159.3321	1226.0391	1258.7123	1277.3169	1312.1275	1321.385	1365.5224	1414.8993	1458.9661	1486.5143	1490.4292	1500.6416	1513.5097	2359.8766	3039.4225	3052.3805	3062.7565	3093.2378	3108.6308	3116.2168	3119.8584	3125.2649	3167.7915	3204.4065
CC1(CC#N)CC2CN12	C[C@@]1(CC#N)C[C@H]2CN12	
InChI=1S/C7H10N2/c1-7(2-3-8)4-6-5-9(6)7/h6H,2,4-5H2,1H3	InChI=1S/C7H10N2/c1-7(2-3-8)4-6-5-9(6)7/h6H,2,4-5H2,1H3/t6-,7+,9?/m0/s1
