16
gdb 50252	2.40511	1.71051	1.27357	4.3796	68.87	-0.2485	-0.0267	0.2218	1000.3122	0.124366	-437.896687	-437.888918	-437.887974	-437.929653	28.718	
O	-0.6997012562	 0.8885399148	-0.4661002413	-0.243871
C	 0.2160049953	 0.9393022747	 0.315056834	 0.152675
C	 1.3739860119	 1.9003893128	 0.1984851916	-0.093085
C	 1.2826978876	 3.0223740562	-0.8688246959	-0.262056
C	 1.4051895608	 4.0939811028	 0.2504756676	 0.023368
N	 0.1471778097	 4.5033495	 0.8770984303	-0.319818
C	 0.1304460375	 3.4981028397	 1.8266934184	 0.438517
O	-0.6762417946	 3.1680231709	 2.6521270094	-0.359818
C	 1.5030404917	 2.9768823936	 1.3416622196	-0.228743
H	 0.2615322117	 0.2614900687	 1.1956134492	 0.091356
H	 2.2939395073	 1.309520067	 0.1313199919	 0.108563
H	 2.1203529435	 3.0260304573	-1.5689132086	 0.112992
H	 0.3458611541	 3.0356788512	-1.4282083326	 0.129661
H	 2.1419068954	 4.8891849106	 0.1366737004	 0.094789
H	-0.6317508863	 5.0215934277	 0.4926713118	 0.252795
H	 2.3087494806	 2.879539662	 2.0653174842	 0.102677
69.3826	89.4208	142.8727	243.2078	338.4487	380.6243	465.1264	510.3465	610.1168	642.8779	744.9865	757.0342	815.5963	851.2426	872.469	929.8484	951.6456	993.8684	1029.0599	1055.9937	1092.0155	1113.8318	1141.9524	1161.3686	1169.4074	1226.5932	1261.5153	1276.0525	1323.3753	1344.1655	1366.4784	1419.243	1475.6136	1823.0907	1889.757	2894.8431	3053.7549	3079.3779	3110.6158	3138.2878	3150.0908	3584.9761
O=CC1CC2NC(=O)C12	O=C[C@H]1C[C@H]2NC(=O)[C@@H]12	
InChI=1S/C6H7NO2/c8-2-3-1-4-5(3)6(9)7-4/h2-5H,1H2,(H,7,9)	InChI=1S/C6H7NO2/c8-2-3-1-4-5(3)6(9)7-4/h2-5H,1H2,(H,7,9)/t3-,4-,5+/m1/s1
