15
gdb 34063	3.99967	1.45775	1.24903	4.5338	77.67	-0.2371	-0.0699	0.1672	975.6507	0.113312	-379.553882	-379.547072	-379.546128	-379.584916	26.978	
N	-0.0910483937	-1.0810432597	-0.1190502959	-0.340999
C	-0.0373676042	 0.0738170697	-0.0691410356	 0.255733
C	-0.0527654764	 1.5003460112	 0.0213968947	 0.153676
C	-1.3881560456	 2.3331011221	 0.3062543841	-0.310003
C	-0.5270859468	 3.494556931	-0.2057274515	 0.008219
C	 0.1888396066	 4.1186571618	 0.7503067075	-0.095959
C	 1.5360934746	 3.4209206637	 0.8613946652	-0.187576
N	 1.3396096844	 2.164636993	 0.0775350129	-0.139859
C	 0.4080143914	 2.518894692	-0.9602172136	-0.1168
H	-2.1620131152	 1.9440840987	-0.3628881774	 0.135856
H	-1.7621089718	 2.4016590607	 1.3292510947	 0.126491
H	-0.2679168448	 4.5730194596	 1.6242189143	 0.118117
H	 2.4185337391	 3.9156429662	 0.4364879943	 0.135392
H	 1.7457370745	 3.2128581876	 1.9159899686	 0.136994
H	 0.6133182579	 2.4233487924	-2.0195573723	 0.120717
143.3351	162.4316	273.1744	377.0031	409.333	506.094	522.9671	544.2117	605.5069	695.0998	762.79	779.3214	853.2022	871.6359	894.3527	921.1138	984.1146	1000.0494	1009.8045	1035.2395	1068.3089	1086.165	1129.1259	1187.1349	1201.0868	1216.8031	1281.9024	1302.334	1351.5839	1468.1363	1501.8993	1583.5567	2349.3183	3029.6173	3050.9938	3082.4565	3126.4137	3176.3276	3194.2957
N#CC12CC3=CCN1C23	N#C[C@@]12C[C]3[CH]CN1[C@@H]23	
InChI=1S/C7H6N2/c8-4-7-3-5-1-2-9(7)6(5)7/h1,6H,2-3H2	InChI=1S/C7H6N2/c8-4-7-3-5-1-2-9(7)6(5)7/h1,6H,2-3H2/t6-,7-,9?/m1/s1
