23
gdb 64313	2.49311	1.42365	1.14433	0.5465	94.76	-0.2108	-0.0187	0.1921	1208.853	0.20692	-351.178125	-351.169078	-351.168134	-351.21156	36.092	
C	 0.0222763028	 1.5646570958	 0.0122418435	-0.412536
C	-0.0512361597	 0.0214890898	 0.0164645086	 0.216522
C	-1.5338045563	-0.3987048358	 0.1418657556	-0.405508
C	 0.5567796264	-0.475451349	-1.3174063263	-0.219199
C	 0.4220480021	-1.9638289296	-1.6612292896	-0.275191
C	 1.1473675066	-2.9330158499	-0.7759966334	-0.070113
C	 1.5507930785	-2.7650335367	 0.4921964536	-0.066225
C	 1.3697555969	-1.632592544	 1.3963382317	-0.094464
C	 0.7060265213	-0.4793422544	 1.2265347147	-0.071792
H	 1.0558607457	 1.9111233886	-0.0934212059	 0.114497
H	-0.5605721739	 1.9806477021	-0.816205927	 0.10765
H	-0.3770958824	 1.9793956789	 0.9439349116	 0.108836
H	-2.1081353083	-0.04656394	-0.724066509	 0.105244
H	-1.6392338752	-1.4842855098	 0.2094376965	 0.1246
H	-1.9844681194	 0.0322325441	 1.0419605711	 0.10995
H	 0.0828119065	 0.0919218115	-2.1284212826	 0.08827
H	 1.6190892656	-0.2045810337	-1.3318561945	 0.101861
H	-0.6404265021	-2.2455900484	-1.714147703	 0.112249
H	 0.7910456214	-2.1024501904	-2.6865893127	 0.102484
H	 1.3690574644	-3.8931781035	-1.2386128903	 0.084653
H	 2.0796144736	-3.6023142263	 0.9435349117	 0.079764
H	 1.8301463399	-1.7775511562	 2.3719582631	 0.080354
H	 0.6856484956	 0.1992001569	 2.0783407926	 0.078093
44.2708	206.3136	223.7775	260.9071	282.721	291.9856	304.0868	383.797	406.7685	420.561	435.9844	554.6442	626.0542	690.2862	721.5943	813.3382	826.3032	864.4048	882.9954	918.8779	939.554	955.8978	991.4192	1000.8591	1012.346	1017.8967	1042.3582	1092.9045	1145.8966	1180.9977	1226.7752	1250.4921	1278.5372	1298.5053	1325.158	1374.8213	1387.5318	1392.6648	1410.1995	1439.3975	1461.4243	1466.9823	1478.5029	1488.5838	1490.4585	1501.0021	1514.8579	1681.6245	1713.5699	2997.5106	3015.1334	3021.6407	3026.5368	3031.1001	3062.9826	3089.2015	3097.1055	3099.3214	3116.4689	3119.5796	3128.6369	3143.6687	3157.5041
CC1(C)CCC=CC=C1	CC1(C)CCC=CC=C1	
InChI=1S/C9H14/c1-9(2)7-5-3-4-6-8-9/h3-5,7H,6,8H2,1-2H3	InChI=1S/C9H14/c1-9(2)7-5-3-4-6-8-9/h3-5,7H,6,8H2,1-2H3
