17
gdb 59629	2.86688	1.29943	1.17185	2.5155	64.24	-0.2654	0.0027	0.2682	1112.8984	0.135025	-496.139197	-496.13057	-496.129626	-496.172829	31.542	
C	 0.1344478216	 1.4238065166	 0.0681560897	-0.427617
C	-0.1251404488	-0.0799774451	 0.0838027574	 0.100882
O	 0.3000113197	-0.6929510878	 1.2927309024	-0.437086
C	-1.6034959962	-0.4159091331	-0.1721442196	 0.215953
O	-1.8106515771	-1.802733531	-0.3387838814	-0.262915
C	-2.2779569803	-2.3278396426	 0.887622739	-0.217788
C	-2.731778918	-1.1131547386	 1.6818546661	 0.390561
O	-3.2899382144	-1.0571640764	 2.7346568424	-0.322046
O	-2.381067044	-0.0114536781	 0.9557622022	-0.235398
H	 1.1895716814	 1.6224067486	 0.271522358	 0.134831
H	-0.1174763607	 1.8596236353	-0.9038793958	 0.126019
H	-0.4718512292	 1.9275612529	 0.829228829	 0.134079
H	 0.4446396704	-0.5720658239	-0.7124361847	 0.106851
H	 0.001804304	-0.1376919111	 2.0222385925	 0.294792
H	-1.984739517	 0.1023222668	-1.0593278165	 0.105481
H	-3.1161357226	-3.0084297206	 0.7103001602	 0.143263
H	-1.4914746987	-2.8543699719	 1.440540859	 0.150138
84.6921	85.3261	146.0229	226.4275	245.0674	287.3243	353.4562	375.338	469.9957	510.0717	566.8094	623.6704	684.5346	802.2599	844.3742	879.7579	920.0143	976.2559	1029.6411	1034.5282	1060.9816	1082.9068	1113.2808	1151.783	1213.2325	1229.9792	1298.5788	1317.4972	1348.3509	1375.2284	1394.3816	1408.1264	1421.2736	1489.7908	1492.8172	1500.0953	1904.5802	3036.8132	3042.3156	3052.2293	3060.3826	3092.6395	3107.6964	3126.3456	3802.1183
CC(O)C1OCC(=O)O1	C[C@@H](O)[C@H]1OCC(=O)O1	
InChI=1S/C5H8O4/c1-3(6)5-8-2-4(7)9-5/h3,5-6H,2H2,1H3	InChI=1S/C5H8O4/c1-3(6)5-8-2-4(7)9-5/h3,5-6H,2H2,1H3/t3-,5+/m1/s1
