20
gdb 97255	3.30178	1.18617	0.94139	2.3783	78.86	-0.2409	0.0229	0.2638	1283.1832	0.171909	-440.289746	-440.280794	-440.27985	-440.324022	32.706	
C	 0.0569506291	 1.4777896847	-0.1822739578	-0.323388
N	 0.0234842638	 0.0257763011	-0.1661319646	-0.273779
C	-1.0557310391	-0.5817660304	 0.0921843502	 0.37786
C	-1.0862050044	-2.0945672647	 0.0779441188	-0.26328
C	-1.6323897181	-2.7337412711	 1.3677133936	-0.247831
C	-3.1648226228	-2.7604650824	 1.4045353589	-0.07239
O	-3.7690789283	-1.6220028141	 0.7902310965	-0.225499
C	-3.2466944656	-0.3917184677	 1.1613926146	 0.01181
O	-2.2320228652	 0.1003139592	 0.2908778672	-0.256441
H	 1.0183055639	 1.8113778083	 0.2212054553	 0.117569
H	 0.0058099683	 1.8333004872	-1.219266703	 0.12574
H	-0.756630483	 1.9527356351	 0.3772092153	 0.113047
H	-1.6893004802	-2.4275236649	-0.7759296199	 0.123725
H	-0.056392489	-2.4075552086	-0.0965434274	 0.128074
H	-1.2719588192	-3.7648380489	 1.449425494	 0.111657
H	-1.2287531075	-2.2044711043	 2.2383312304	 0.113125
H	-3.544548654	-3.6111075277	 0.8308772958	 0.119523
H	-3.5272716559	-2.8664282703	 2.4376581195	 0.100286
H	-4.0458287419	 0.3472735303	 1.0716052265	 0.125079
H	-2.8696367309	-0.4081995607	 2.1951083161	 0.095111
56.7708	85.3614	130.4322	197.8929	239.3506	293.1843	307.1611	350.8829	402.8208	525.5723	549.1091	638.1091	717.4817	744.8295	846.1538	894.907	916.843	964.0451	1030.7135	1037.4928	1074.7671	1096.6984	1120.1171	1125.4653	1152.6899	1180.3842	1211.2256	1245.6554	1266.8171	1302.3464	1331.7461	1362.5886	1376.7781	1412.4172	1434.9914	1455.1284	1471.6926	1489.8462	1492.1389	1496.1856	1505.907	1520.3063	1758.2222	2987.8637	2999.5927	3015.38	3036.4707	3043.591	3069.9261	3072.0833	3091.6817	3092.7599	3107.2393	3129.6968
CN=C1CCCOCO1	CN=C1CCCOCO1	
InChI=1S/C6H11NO2/c1-7-6-3-2-4-8-5-9-6/h2-5H2,1H3	InChI=1S/C6H11NO2/c1-7-6-3-2-4-8-5-9-6/h2-5H2,1H3
