18
gdb 63047	2.65867	2.0672	1.56475	2.4957	69.73	-0.228	0.0528	0.2808	896.1888	0.149016	-439.020639	-439.013678	-439.012734	-439.051452	29.411	
C	-0.0122290452	 1.560972529	-0.0188782189	-0.446892
C	 0.0551421316	 0.0455395788	 0.0084688812	 0.489383
O	-1.2616445418	-0.4495761433	-0.0646074593	-0.502283
C	 1.0109662181	-0.6173904123	-1.0271166359	-0.150958
N	 2.3131485698	 0.0600826451	-0.6834556473	-0.331043
C	 2.2563455951	-0.79621509	 0.5306148485	-0.051179
C	 1.4237275558	-1.8916829125	-0.1420730502	 0.078232
O	 0.527324006	-2.0109606984	 0.9799139921	-0.313137
C	 0.8372609419	-0.5924499024	 1.1986640362	-0.004094
H	 0.9843892998	 2.0014353804	-0.008617747	 0.139923
H	-0.5351935017	 1.8902669059	-0.9219810481	 0.122148
H	-0.5832458733	 1.9154102167	 0.8445819852	 0.116468
H	-1.2087856973	-1.3674511369	 0.2408552688	 0.283164
H	 0.6978076838	-0.656532183	-2.06836914	 0.078758
H	 3.0475834808	-0.3189795615	-1.2811330091	 0.221695
H	 3.1365897823	-0.9354349964	 1.1557590128	 0.088376
H	 1.7576313142	-2.828227833	-0.5875936912	 0.093055
H	 0.6633642402	-0.2579736461	 2.2196551421	 0.088383
191.9754	231.7132	251.9082	375.4035	388.9096	479.7417	528.2805	565.0773	584.1665	615.8521	738.4091	780.4404	812.0208	831.557	848.2036	859.3249	911.4543	940.4329	958.2682	963.9498	1006.5217	1031.4906	1033.3286	1092.0899	1134.9973	1146.262	1159.5037	1183.3326	1201.3822	1208.8528	1233.497	1275.33	1292.9548	1341.5496	1349.9888	1392.8119	1432.5427	1488.1946	1498.6108	3048.0694	3109.6138	3125.0762	3137.2243	3146.3527	3150.148	3159.0784	3456.7725	3717.8912
CC1(O)C2NC3C2OC13	C[C@@]1(O)[C@H]2N[C@@H]3[C@H]2O[C@H]13	
InChI=1S/C6H9NO2/c1-6(8)4-3-2(7-4)5(6)9-3/h2-5,7-8H,1H3	InChI=1S/C6H9NO2/c1-6(8)4-3-2(7-4)5(6)9-3/h2-5,7-8H,1H3/t2-,3-,4+,5+,6-/m1/s1
