15
gdb 132271	2.03656	1.71377	0.93603	3.7555	74.93	-0.2141	-0.0423	0.1718	1167.5409	0.111759	-461.955588	-461.94775	-461.946806	-461.988064	29.576	
C	 0.083081196	 1.4780504047	 0.0066618139	-0.470564
C	-0.0611198082	-0.0069408442	-0.0146357742	 0.413148
C	-1.2174127158	-0.6924835968	-0.1231642293	-0.385754
C	-1.142509038	-2.1225696351	-0.1247066554	 0.34878
F	-2.2925844454	-2.7819231467	-0.2328755575	-0.065852
C	 0.0264378376	-2.782511494	-0.0227008498	-0.336631
C	 1.259850239	-2.0387450141	 0.0935707366	 0.392696
N	 2.4093957506	-2.5656868051	 0.1951296944	-0.53948
O	 1.1321584203	-0.6358287013	 0.0895851146	-0.277865
H	 0.7210339366	 1.8110815078	-0.8190499852	 0.151951
H	-0.8904799456	 1.9630448609	-0.0783565247	 0.139649
H	 0.5631074887	 1.8014754469	 0.9364965316	 0.151939
H	-2.1691675374	-0.1883666019	-0.2061985273	 0.122338
H	 0.0869891703	-3.8612185974	-0.0236836188	 0.135656
H	 3.1317044613	-1.8494996236	 0.2647150311	 0.21999
131.2036	150.4864	189.2163	214.006	283.288	347.716	473.6008	518.5216	539.1961	542.2048	614.9812	667.8491	693.9637	796.8769	828.2921	850.713	871.679	976.1194	1004.9132	1044.8856	1064.1271	1093.924	1160.8041	1234.5893	1244.4495	1359.8202	1414.7527	1434.3108	1467.5307	1487.8671	1639.6628	1695.5157	1751.6445	3040.7011	3096.8382	3144.7458	3241.8268	3244.2687	3499.4486
CC1=CC(F)=CC(=N)O1	C[C@H]1C=C(F)C=C([NH])O1	
InChI=1S/C6H6FNO/c1-4-2-5(7)3-6(8)9-4/h2-3,8H,1H3	InChI=1S/C6H7FNO/c1-4-2-5(7)3-6(8)9-4/h2-4,8H,1H3/t4-/m0/s1
