17
gdb 31103	2.48351	1.259	0.8734	3.1066	73.63	-0.1822	0.0334	0.2156	1294.9824	0.136258	-455.160259	-455.150901	-455.149957	-455.194528	34.291	
N	 0.1291237284	 1.3524249866	 0.09785222	-0.593575
C	-0.0712360287	-0.0146376443	-0.0472537063	 0.376384
C	-1.1691051	-0.7827776405	-0.28581869	-0.38495
C	-0.7237073168	-2.1510514465	-0.1816962122	 0.246893
C	-1.5643442754	-3.3782976384	-0.3339962036	-0.180142
O	-2.732330647	-3.3487716108	 0.4847136266	-0.417144
C	 0.6043549507	-2.1122861839	 0.1002198708	 0.162545
N	 1.5473409057	-3.1219894596	 0.2850336339	-0.597025
O	 1.0209485821	-0.7838292619	 0.1813431485	-0.200742
H	 1.0270039604	 1.6564217804	-0.2585628842	 0.252391
H	-0.6171939389	 1.8955085758	-0.314267164	 0.254374
H	-2.1709985556	-0.4421836433	-0.4919156785	 0.102007
H	-1.944249809	-3.4658768201	-1.3587624862	 0.108773
H	-0.9458491958	-4.2644227655	-0.1337151736	 0.104246
H	-2.4381591863	-3.1810158354	 1.3861324862	 0.279374
H	 2.1929760091	-3.212615545	-0.4940666911	 0.243347
H	 2.0953659672	-2.9859253677	 1.1286005337	 0.243244
62.8485	126.9553	163.8669	207.2425	214.4095	249.4723	292.2957	304.3287	358.2453	419.5774	536.9284	599.9229	656.527	660.3193	687.3102	729.2249	761.5978	782.6748	833.9277	973.0797	1011.8989	1021.2494	1084.7265	1102.4705	1187.2626	1195.3653	1217.1394	1262.9033	1352.4472	1373.6027	1421.8723	1456.453	1504.2579	1614.4257	1649.8035	1670.5096	1710.8578	3008.471	3055.0471	3261.4506	3485.2672	3538.8459	3551.5837	3641.0257	3810.4673
NC1=CC(CO)=C(N)O1	Nc1cc(CO)c(N)o1	
InChI=1S/C5H8N2O2/c6-4-1-3(2-8)5(7)9-4/h1,8H,2,6-7H2	InChI=1S/C5H8N2O2/c6-4-1-3(2-8)5(7)9-4/h1,8H,2,6-7H2
