15
gdb 68156	2.63359	1.8178	1.28814	3.1301	65.9	-0.2391	-0.0847	0.1545	952.6646	0.11275	-457.774496	-457.767201	-457.766256	-457.806077	28.487	
O	 0.026939039	 1.4136985449	 0.0429792872	-0.478065
C	-0.0138828834	 0.0429356628	 0.0434493164	 0.335905
C	 0.3260127649	-0.8432557581	 1.2936468335	-0.304832
C	-0.4353088832	-1.9515312042	 0.4909057826	-0.156606
C	-1.3380596531	-0.7937863024	-0.0541796643	-0.304731
C	 0.5097351076	-2.1514420184	-0.6831114908	 0.359623
O	 0.9153207849	-3.1413993104	-1.2200671763	-0.298023
C	 0.8192227327	-0.6534067166	-1.0101841097	 0.258662
O	 1.5107279143	-0.1352835219	-1.8446488475	-0.326969
H	 0.620344569	 1.6760422623	-0.6775322635	 0.297721
H	 1.3743091014	-1.0080259999	 1.5550160524	 0.123487
H	-0.2433770802	-0.5170229109	 2.166488289	 0.132307
H	-0.8452362911	-2.8384449757	 0.9644235665	 0.10572
H	-2.061859693	-0.463073863	 0.6936415372	 0.13231
H	-1.8166281499	-0.9132353785	-1.0294264729	 0.12349
109.9699	211.1113	251.8045	297.0643	345.7526	421.0858	465.6317	512.2473	557.3163	567.4832	669.945	725.3548	758.0961	870.8794	885.8192	946.9927	951.9859	963.5334	965.2393	1016.8098	1033.6789	1132.8163	1144.9521	1165.938	1216.8689	1228.1078	1273.1812	1368.7006	1404.1739	1485.1666	1521.2858	1862.1077	1886.4491	3064.1915	3064.5375	3131.2316	3131.6825	3170.4451	3711.8235
OC12CC(C1)C(=O)C2=O	O[C@@]12C[C@@H](C1)C(=O)C2=O	
InChI=1S/C6H6O3/c7-4-3-1-6(9,2-3)5(4)8/h3,9H,1-2H2	InChI=1S/C6H6O3/c7-4-3-1-6(9,2-3)5(4)8/h3,9H,1-2H2/t3-,6-
