18
gdb 74945	3.56125	1.35927	1.15945	1.9283	77.22	-0.2439	0.0105	0.2544	1096.8176	0.14998	-401.988425	-401.980969	-401.980025	-402.020519	28.817	
C	-0.1935241688	 1.5372332835	 0.0309230848	-0.487972
C	-0.0273906594	 0.0518742877	-0.0244379172	 0.327263
C	-0.1156400238	-0.7260965845	-1.1070586106	-0.198303
C	 0.1037578909	-2.1750172668	-0.7926360464	 0.047643
O	 1.2974963952	-2.7074537517	-1.4537253908	-0.232968
C	 2.2132240724	-2.8304148748	-0.4680911729	 0.114536
N	 1.9015386842	-2.5886185929	 0.7372543818	-0.274552
C	 0.4799190697	-2.1934798124	 0.7218238454	-0.014609
C	 0.2524644315	-0.749891364	 1.2286994159	-0.309085
H	 0.7108315037	 2.0147411671	 0.4280524599	 0.133495
H	-0.4013603102	 1.9609991612	-0.9548675676	 0.126901
H	-1.0128152871	 1.8170807948	 0.7050781417	 0.12935
H	-0.3175946274	-0.3771813835	-2.1136099086	 0.095415
H	-0.7206445482	-2.8293559316	-1.0878591179	 0.09182
H	 3.1931785026	-3.1520067235	-0.8053300697	 0.136653
H	-0.0919158163	-2.9184375963	 1.3079060081	 0.085163
H	 1.1302717619	-0.382959191	 1.771844641	 0.123256
H	-0.5941359509	-0.6924470214	 1.9256398231	 0.105995
91.1923	140.3808	186.0656	290.7201	332.9285	412.9677	476.4343	523.308	613.1727	641.2046	818.051	834.2704	852.0786	870.2577	882.8311	916.6551	957.6489	965.9038	991.7194	1016.4931	1053.658	1061.7028	1083.2427	1124.9411	1171.7392	1198.1108	1270.2874	1288.004	1299.8222	1315.4179	1331.4706	1352.867	1365.8753	1413.6323	1477.2536	1478.846	1486.3085	1692.8177	1717.7241	3019.2929	3023.4546	3059.1776	3068.5861	3070.5357	3077.1233	3115.9233	3195.3155	3206.401
CC1=CC2OC=NC2C1	CC1=C[C@H]2OC=N[C@H]2C1	
InChI=1S/C7H9NO/c1-5-2-6-7(3-5)9-4-8-6/h3-4,6-7H,2H2,1H3	InChI=1S/C7H9NO/c1-5-2-6-7(3-5)9-4-8-6/h3-4,6-7H,2H2,1H3/t6-,7+/m0/s1
