21
gdb 109775	2.44885	1.15199	0.92372	3.2679	75.66	-0.2306	0.0608	0.2914	1354.4863	0.179487	-461.321576	-461.311004	-461.31006	-461.357428	38.288	
C	 0.2968287005	 1.2349847533	 0.1023411597	-0.245331
O	-0.2408881936	-0.0171258524	-0.3008301551	-0.254128
C	 0.5327061924	-0.6366520571	-1.2927392094	 0.045133
C	 1.5014355874	-1.6862210763	-0.797738248	 0.078002
O	 1.5914900459	-1.8805136449	 0.5799324613	-0.426263
C	 0.2461358911	-2.0974318398	-1.5497317972	-0.145207
C	-0.8940557624	-2.8333404772	-0.86561315	 0.13631
C	-2.2602083741	-2.4020808975	-1.40211321	-0.402847
O	-0.7126810128	-4.2434248929	-0.965276957	-0.430561
H	 1.3142956834	 1.1294292828	 0.5013854927	 0.125134
H	 0.3211268889	 1.9417975586	-0.7390654492	 0.117542
H	-0.3606133383	 1.6295000663	 0.8801103919	 0.133629
H	 0.7884704631	 0.0151691322	-2.1280816585	 0.087053
H	 2.465987593	-1.8093101429	-1.2798067765	 0.101438
H	 0.8973140932	-1.3403304149	 0.9799832034	 0.293219
H	 0.3963433599	-2.4034370705	-2.5844159291	 0.078296
H	-0.8539016168	-2.6342371872	 0.2084007064	 0.088139
H	-2.3247703222	-2.5686266431	-2.485248608	 0.098062
H	-3.0536032522	-2.980485467	-0.9201921639	 0.119116
H	-2.4272709481	-1.3381693088	-1.2128003337	 0.131516
H	-0.8073835381	-4.4841308607	-1.8935012599	 0.271746
54.9782	88.1567	102.01	152.5402	191.2763	250.3939	265.7775	271.2276	276.4297	328.9168	378.481	430.5388	454.5001	597.8433	619.376	669.5959	769.3821	794.8362	857.5865	921.0525	991.5803	1025.9716	1069.6741	1083.6174	1093.9588	1106.8839	1124.4692	1148.721	1166.4088	1182.9158	1208.2648	1248.3608	1279.2468	1317.1793	1319.1167	1369.6157	1395.3485	1397.7909	1424.3658	1457.8045	1481.1013	1487.1515	1494.2974	1496.5966	1508.7976	2996.404	3022.1648	3054.5359	3077.5227	3095.8952	3099.5646	3115.2927	3124.9233	3125.4594	3160.8487	3759.8189	3799.0363
COC1C(O)C1C(C)O	CO[C@H]1[C@@H](O)[C@H]1[C@@H](C)O	
InChI=1S/C6H12O3/c1-3(7)4-5(8)6(4)9-2/h3-8H,1-2H3	InChI=1S/C6H12O3/c1-3(7)4-5(8)6(4)9-2/h3-8H,1-2H3/t3-,4-,5+,6-/m1/s1
