20
gdb 54405	3.23577	1.2966	1.19448	3.4529	78.58	-0.2365	0.0335	0.27	1120.7151	0.173261	-403.179621	-403.171299	-403.170355	-403.213056	32.333	
N	 0.1703105235	 1.0519856394	-0.6890415418	-0.533129
C	-0.0254458105	 0.0472609357	 0.2154202921	 0.269823
O	 0.7813960452	-0.2130686755	 1.0896704879	-0.375665
C	-1.3087583802	-0.7307971609	 0.0628994767	 0.280082
C	-2.2756876642	-0.6783399231	-1.1605318762	-0.298354
C	-2.7485325944	-2.0459573992	-0.585491218	-0.028211
C	-1.2669432873	-2.2727387474	-0.1719387355	-0.239811
C	-3.3916807193	-1.6296446194	 0.7517992884	-0.217061
C	-2.2956681109	-0.6335504071	 1.2530220627	-0.240921
H	 0.9843666409	 1.6355420917	-0.5839879505	 0.258108
H	-0.5288839221	 1.3072542762	-1.3632027475	 0.259961
H	-3.0044797788	 0.1378473833	-1.2123908822	 0.087191
H	-1.755015132	-0.7864515597	-2.1158862897	 0.098454
H	-3.2866078805	-2.7648902236	-1.2033789061	 0.062256
H	-0.62600027	-2.5468311941	-1.013084803	 0.100572
H	-1.0550052559	-2.9091822416	 0.6904668923	 0.103415
H	-4.3647113407	-1.1493163123	 0.6143027085	 0.09554
H	-3.5287298951	-2.4786544596	 1.4272339195	 0.100412
H	-1.8166445236	-0.9418048001	 2.1843459636	 0.12165
H	-2.675937804	 0.3834855772	 1.3867826986	 0.095688
34.7723	157.3448	171.1588	190.726	302.0629	364.9862	413.1215	482.4298	509.4696	586.0811	628.7676	675.19	762.7445	830.9778	835.2388	842.9326	889.3872	921.9754	935.6344	977.126	980.7065	1000.3462	1010.5647	1083.1797	1087.487	1118.3007	1127.0145	1151.3381	1199.6154	1202.158	1235.3954	1246.8108	1260.5848	1270.4716	1316.6726	1325.872	1389.8213	1489.7948	1496.9908	1503.263	1534.3611	1611.1055	1783.3224	3037.6312	3052.345	3061.1854	3065.2736	3094.0604	3102.6806	3114.5138	3118.6639	3125.4527	3601.7661	3742.1191
NC(=O)C12CC(C1)CC2	NC(=O)[C@@]12C[C@@H](C1)CC2	
InChI=1S/C7H11NO/c8-6(9)7-2-1-5(3-7)4-7/h5H,1-4H2,(H2,8,9)	InChI=1S/C7H11NO/c8-6(9)7-2-1-5(3-7)4-7/h5H,1-4H2,(H2,8,9)/t5-,7-
