23
gdb 121100	4.85364	0.68872	0.63682	1.338	82.62	-0.2387	0.0763	0.315	1801.3718	0.205442	-425.434352	-425.424173	-425.423229	-425.470378	36.814	
C	 0.057340428	 1.5692477049	 0.0781349133	-0.396466
C	 0.1053497245	 0.0517861432	-0.0109924045	 0.155663
C	 0.8561161385	-0.5196095495	-1.2177222108	-0.251911
C	 1.3207261663	-1.8902558873	-0.7014111478	-0.006974
C	 2.4862688382	-2.5064998315	-1.4752298012	-0.19681
C	 2.8995773715	-3.8816526715	-0.9628464297	-0.078078
O	 3.9432142124	-4.3583842713	-1.7984524702	-0.41981
C	 1.6225496738	-1.5603491118	 0.7733066699	-0.068641
O	 0.7901912304	-0.464090317	 1.1386849268	-0.280499
H	 1.0691050825	 1.986680787	 0.0631319582	 0.116578
H	-0.5068273726	 1.986901423	-0.7623622849	 0.110375
H	-0.4285957524	 1.8827785863	 1.0063889215	 0.124303
H	-0.9261367795	-0.3398400664	-0.0079836476	 0.062948
H	 0.2327855082	-0.583544134	-2.1136326472	 0.100332
H	 1.7243774847	 0.1094188259	-1.4528629117	 0.098171
H	 0.4652806749	-2.5790793657	-0.7358435132	 0.074119
H	 2.2204633733	-2.6059178969	-2.5342513789	 0.106398
H	 3.356473496	-1.8393267475	-1.4310659576	 0.104894
H	 3.2324482273	-3.81144014	 0.0853485886	 0.090009
H	 2.0306110138	-4.5605904086	-0.9826565216	 0.08418
H	 4.2258688701	-5.2161400622	-1.4684844912	 0.285724
H	 1.424248171	-2.4021578165	 1.4478245906	 0.096557
H	 2.6796383294	-1.2751376625	 0.8967913592	 0.08894
54.8017	70.8871	97.6241	112.0423	184.7589	237.6518	265.5145	288.0259	323.2787	381.3784	451.7985	468.6168	593.6237	659.971	793.4568	834.7894	886.5706	902.5429	916.9237	970.2485	1006.6139	1015.8269	1039.7046	1070.5999	1081.5197	1123.174	1139.1657	1153.4153	1173.6784	1205.5648	1223.1342	1240.0279	1266.3735	1280.1811	1313.1008	1328.9006	1346.3784	1364.9285	1373.712	1396.2028	1406.9396	1415.3691	1463.3596	1484.8164	1487.5688	1492.7708	1499.4322	1526.7858	1529.4534	2950.3152	2957.6628	2972.9298	2984.6309	3005.2136	3026.749	3032.0592	3037.2202	3042.2485	3072.9053	3097.1193	3109.5757	3116.0789	3830.7638
CC1CC(CCO)CO1	C[C@H]1C[C@@H](CCO)CO1	
InChI=1S/C7H14O2/c1-6-4-7(2-3-8)5-9-6/h6-8H,2-5H2,1H3	InChI=1S/C7H14O2/c1-6-4-7(2-3-8)5-9-6/h6-8H,2-5H2,1H3/t6-,7+/m0/s1
