18
gdb 9855	3.54001	1.34574	1.23526	2.9873	63.59	-0.2493	0.0544	0.3037	1046.5145	0.152146	-422.0491	-422.040255	-422.039311	-422.082335	33.078	
O	-0.0528882455	 1.4557447187	 0.0420735415	-0.429335
C	-0.0857535225	 0.0804089547	 0.3602941924	-0.068021
C	-1.4013514254	-0.550642416	-0.1128836597	 0.046347
O	-1.5975183501	-0.2226481097	-1.491159271	-0.450988
C	-1.4394568143	-2.0543687173	 0.0850559089	 0.391864
O	-0.5682546949	-2.7209177422	-0.8068777836	-0.477855
C	-1.5567619296	-2.6281877138	 1.4675762783	-0.296268
C	-2.7063819392	-2.7542244573	 0.4865198865	-0.34141
H	-0.4305571785	 1.516990425	-0.8453692137	 0.283199
H	 0.7560892905	-0.4662263898	-0.0976171493	 0.089825
H	 0.0129652514	-0.011259657	 1.4469359723	 0.105051
H	-2.2335948469	-0.0810086208	 0.4223329084	 0.092675
H	-0.9598898753	-0.7663815395	-1.9735142307	 0.277137
H	-1.1039782845	-3.1007681396	-1.51037899	 0.290542
H	-0.9742735453	-3.5187023806	 1.6715210398	 0.126921
H	-1.6645356634	-1.9485605814	 2.3060527871	 0.121645
H	-3.5984008622	-2.1578711927	 0.6440156869	 0.124954
H	-2.8886996843	-3.7376027608	 0.064594596	 0.113717
76.6485	119.2966	165.1454	208.0053	261.4148	300.568	326.8588	356.5816	456.9536	485.6975	525.4911	537.1161	584.7348	769.684	812.343	868.7657	908.3886	936.4127	948.2182	984.7995	1049.7632	1069.72	1077.9001	1084.4844	1103.7077	1187.201	1195.0768	1237.3072	1266.4187	1301.9568	1343.1729	1359.2509	1382.5613	1433.2957	1443.0413	1455.6149	1495.5662	1511.1861	2966.3009	3060.2149	3076.7774	3128.1189	3139.6452	3213.5146	3233.3975	3755.6431	3762.536	3817.9087
OCC(O)C1(O)CC1	OC[C@@H](O)C1(O)CC1	
InChI=1S/C5H10O3/c6-3-4(7)5(8)1-2-5/h4,6-8H,1-3H2	InChI=1S/C5H10O3/c6-3-4(7)5(8)1-2-5/h4,6-8H,1-3H2/t4-/m1/s1
