17
gdb 108416	2.04781	1.42256	1.00332	2.5186	69.78	-0.2414	-0.029	0.2124	1196.7919	0.13436	-458.912512	-458.903835	-458.902891	-458.946504	31.402	
O	 0.0996531549	 1.4165748574	-0.1774464678	-0.407499
C	 0.0671872703	 0.0199778685	 0.0697155071	-0.178659
C	-1.3289705455	-0.5255643332	 0.0943879901	 0.215643
C	-2.3462145255	-0.3556663589	 1.221650068	-0.138622
O	-2.8981012951	-1.6795567304	 0.9622684964	-0.282938
C	-1.8996186321	-1.9070530711	-0.0285742386	 0.022517
C	-2.056226162	-0.9599351356	-1.1999088783	-0.194934
C	-3.370855964	-0.4408344063	-1.6481468049	 0.147957
O	-3.5871846039	-0.0721256717	-2.7790457192	-0.271837
H	-0.2996351174	 1.571745011	-1.0406006453	 0.290535
H	 0.6711068171	-0.540187812	-0.6612586243	 0.097769
H	 0.5368014835	-0.1146881588	 1.0507288912	 0.120385
H	-1.870500658	-0.3304665998	 2.2082213321	 0.12337
H	-3.094913552	 0.4383074913	 1.1503865594	 0.122894
H	-1.459462602	-2.8949999124	-0.1025350678	 0.124301
H	-1.3593149521	-1.1392805195	-2.015177907	 0.112091
H	-4.1644490962	-0.4240683484	-0.8750281212	 0.097027
64.3301	101.4086	135.928	199.0676	242.9437	297.6314	331.7773	384.3853	436.5391	467.3283	555.4978	713.4723	746.2794	877.1277	908.9149	941.0712	962.0553	986.3001	1012.0881	1053.4928	1058.9891	1062.1334	1085.4464	1116.001	1154.219	1188.9246	1239.5408	1258.0199	1300.2204	1327.5733	1377.1684	1414.4426	1427.2085	1465.1442	1496.4236	1518.6223	1805.0329	2936.1443	2982.9597	3040.7096	3065.1831	3097.8086	3152.4668	3183.6262	3805.7612
OCC12COC1C2C=O	OC[C@]12CO[C@H]1[C@H]2C=O	
InChI=1S/C6H8O3/c7-1-4-5-6(4,2-8)3-9-5/h1,4-5,8H,2-3H2	InChI=1S/C6H8O3/c7-1-4-5-6(4,2-8)3-9-5/h1,4-5,8H,2-3H2/t4-,5+,6-/m1/s1
