17
gdb 50534	2.5602	1.38213	1.05149	2.2919	68.69	-0.2521	-0.0334	0.2187	1143.9101	0.134655	-458.917805	-458.909354	-458.90841	-458.952207	29.856	
O	 0.0085502469	-0.0697995728	-0.3467943269	-0.251088
C	-0.017955603	 1.0845646607	 0.0001645929	 0.137913
C	 1.1864203753	 1.9930238009	-0.0426246776	-0.158909
C	 0.959236921	 3.4466864947	-0.5205517768	-0.088281
O	 1.5328149876	 3.9957884342	 0.6826009178	-0.280734
C	 1.6501404955	 2.6943011218	 1.2816435089	 0.093403
C	 0.781025905	 2.5384273513	 2.5042710253	 0.040481
C	 0.291246018	 3.7154290883	 3.2325909958	-0.170705
O	-0.5747620055	 2.9640044988	 2.3742276493	-0.235021
H	-0.9499744239	 1.5570189077	 0.3726521495	 0.112602
H	 1.9980722258	 1.4730378382	-0.5520737895	 0.105253
H	 1.5162182545	 3.7423495519	-1.4150778292	 0.117124
H	-0.0941599655	 3.7313929731	-0.631587636	 0.119117
H	 2.6892623515	 2.46357478	 1.551890836	 0.094145
H	 0.9162532755	 1.6007215342	 3.0467227304	 0.104939
H	 0.0750180562	 3.6352295304	 4.2961696626	 0.119874
H	 0.5554983152	 4.7021622064	 2.8626555074	 0.139886
48.4082	66.5611	116.1034	179.7837	244.3117	298.2656	327.3943	439.3162	492.1643	631.1589	760.8662	812.6704	864.0124	889.6795	904.531	957.0815	974.6489	1006.1804	1048.0047	1082.6088	1095.7106	1112.226	1142.2708	1164.2017	1171.9956	1174.8315	1232.6887	1265.9631	1281.4001	1310.4915	1352.7393	1377.0053	1424.2841	1432.3985	1511.1443	1519.7239	1820.3056	2930.9369	3017.3012	3026.948	3079.9519	3096.0378	3104.1877	3115.8997	3202.2617
O=CC1COC1C1CO1	O=C[C@H]1CO[C@H]1[C@H]1CO1	
InChI=1S/C6H8O3/c7-1-4-2-9-6(4)5-3-8-5/h1,4-6H,2-3H2	InChI=1S/C6H8O3/c7-1-4-2-9-6(4)5-3-8-5/h1,4-6H,2-3H2/t4-,5+,6+/m0/s1
