17
gdb 34636	3.14217	1.35544	1.00881	2.2678	83.31	-0.2308	-0.0283	0.2025	1161.2806	0.136144	-384.652913	-384.645011	-384.644066	-384.685411	30.551	
C	 0.1136708866	-1.2053843881	-0.1570663752	-0.430266
C	 0.0147527321	-0.0088029821	-0.0551112956	 0.230324
C	-0.0441398988	 1.4078004585	 0.0542421373	 0.162371
C	-1.2035994735	 2.0876783837	 0.0608479084	-0.143446
C	-1.2843803431	 3.5868157456	 0.15447837	-0.262956
C	-0.0801862994	 4.2271015878	 0.8722652895	-0.238127
C	 1.2438423339	 3.5629386351	 0.5194356181	 0.039776
O	 1.7048810632	 2.55789385	 1.432311076	-0.248516
C	 1.2571166823	 2.1464809342	 0.1314079818	-0.06621
H	 0.1876358025	-2.26148695	-0.2378442548	 0.195092
H	-2.1362969411	 1.5384282751	-0.0292921988	 0.103501
H	-1.377243354	 3.9940772625	-0.8641339758	 0.122988
H	-2.211239997	 3.8730339266	 0.6633787063	 0.114682
H	-0.0370148009	 5.2959919472	 0.6417569478	 0.102122
H	-0.2110986439	 4.1368166745	 1.9554239086	 0.127692
H	 2.0361359658	 4.2093403687	 0.1436973005	 0.093519
H	 2.0499932153	 1.7640837408	-0.5096910243	 0.097455
83.8211	139.6388	173.4085	250.547	369.7486	415.3652	427.9782	505.1346	547.611	580.7461	620.4933	642.3727	661.5588	778.1109	798.8792	864.9338	889.2334	906.0051	952.8442	979.5858	1052.2547	1086.3529	1089.2326	1131.4186	1176.9883	1211.5305	1260.4828	1286.5612	1324.1621	1349.4088	1378.637	1393.8209	1461.4579	1473.7382	1482.4806	1682.6522	2220.4983	2993.6702	3047.1623	3062.6656	3091.3741	3112.6918	3126.353	3173.5562	3502.9926
C#CC1=CCCC2OC12	C#CC1=CCC[C@H]2O[C@@H]12	
InChI=1S/C8H8O/c1-2-6-4-3-5-7-8(6)9-7/h1,4,7-8H,3,5H2	InChI=1S/C8H8O/c1-2-6-4-3-5-7-8(6)9-7/h1,4,7-8H,3,5H2/t7-,8+/m1/s1
