16
gdb 128181	3.92319	1.16309	0.90477	3.3011	81.57	-0.2055	-0.0427	0.1628	1246.5774	0.124816	-434.041235	-434.032809	-434.031864	-434.074677	30.68	
C	-0.0834435932	 1.4721954215	 0.0963225133	-0.325847
N	 0.1569933366	 0.0429817387	-0.0392976412	-0.359991
C	 0.6672689962	-0.7267055027	 0.9648577965	 0.5046
C	 0.6308620235	-2.084890001	 1.0190561935	-0.32032
C	 1.2650950787	-2.7684927982	 2.1079884268	 0.291646
N	 1.28392619	-4.0516365439	 2.2403609804	-0.550442
C	 1.8872465383	-1.8312578207	 3.0600604466	-0.015808
N	 1.9041601244	-0.5518287316	 3.0067447578	-0.071636
O	 1.2611883412	 0.0418055986	 1.9132530054	-0.279366
H	 0.8362487442	 1.982155632	 0.3871069129	 0.160519
H	-0.3984411891	 1.8568860869	-0.8754544846	 0.133462
H	-0.8579832035	 1.7088430937	 0.8379715263	 0.132843
H	-0.4421604071	-0.4561948935	-0.6766129384	 0.25843
H	 0.1346641774	-2.6517950173	 0.2417404096	 0.102256
H	 1.7886803467	-4.313284549	 3.0894507505	 0.203861
H	 2.4037711458	-2.2290364137	 3.9323560845	 0.135793
74.3135	116.5612	138.0621	190.2603	213.746	363.9801	397.9667	450.1378	482.3281	515.0507	621.0729	671.9323	709.5852	734.9608	804.3154	847.0544	923.903	948.1541	951.352	992.6864	1069.4619	1148.0882	1164.2991	1172.6306	1268.9391	1312.0628	1382.6936	1423.1117	1468.1654	1485.628	1489.8502	1521.7338	1638.5806	1673.4488	1702.3573	3016.2286	3105.8094	3145.7886	3152.9997	3211.3465	3445.2918	3641.8555
CNC1=CC(=N)C=NO1	CN[C]1C=C([NH])C=NO1	
InChI=1S/C5H7N3O/c1-7-5-2-4(6)3-8-9-5/h2-3,6-7H,1H3	InChI=1S/C5H7N3O/c1-7-5-2-4(6)3-8-9-5/h2-3,6-7H,1H3
