17
gdb 70813	2.54233	1.97132	1.43677	1.8575	72.35	-0.2142	0.0122	0.2264	929.6529	0.135629	-421.769135	-421.761655	-421.76071	-421.800379	30.674	
O	-0.0342021994	 1.344589203	 0.0544514827	-0.472067
C	 0.0355299051	-0.0278433374	 0.0276020814	 0.41685
C	 0.7327545559	-0.9645536877	 1.0437529041	-0.392856
C	 0.0407974118	-1.8878138898	 0.0117837582	 0.416856
O	 0.0831797663	-3.2599829744	-0.0554578144	-0.47207
C	-1.2402395563	-0.935805077	-0.0100225322	-0.179042
C	-1.7534183127	-0.9320521914	-1.4308341103	-0.104523
C	-0.6470452312	-0.9596291456	-2.1814284326	-0.104513
C	 0.4832258093	-0.9718029438	-1.1792301588	-0.179016
H	 0.8564466774	 1.6966374206	 0.1576173743	 0.286972
H	 1.8272561093	-0.9697393684	 1.0445913029	 0.089095
H	 0.3287862719	-0.966060307	 2.0609892894	 0.089089
H	-0.1537790946	-3.618426469	 0.8066383956	 0.286963
H	-1.9231474322	-0.9248561981	 0.8408469516	 0.059863
H	-2.7900720639	-0.9204218132	-1.7350608305	 0.099263
H	-0.5463706026	-0.9621510416	-3.2571600076	 0.099264
H	 1.5262439358	-0.9862555193	-1.4991707338	 0.059871
212.4029	222.2013	248.6839	264.9472	315.6805	357.0997	435.9736	521.0078	583.238	612.6713	617.6367	721.4558	737.8686	753.4653	824.1608	871.3953	904.469	914.1537	948.4614	994.6583	996.3003	1034.9043	1061.986	1095.3464	1104.285	1124.1769	1125.9075	1131.6743	1240.8381	1260.0478	1280.6301	1320.3965	1333.4657	1355.7948	1412.786	1515.7782	1629.4411	3037.8771	3100.2417	3107.2378	3111.149	3223.7857	3249.8307	3809.4187	3809.4664
OC12CC3(O)C1C=CC23	O[C@@]12C[C@@]3(O)[C@@H]1C=C[C@@H]23	
InChI=1S/C7H8O2/c8-6-3-7(9)4(6)1-2-5(6)7/h1-2,4-5,8-9H,3H2	InChI=1S/C7H8O2/c8-6-3-7(9)4(6)1-2-5(6)7/h1-2,4-5,8-9H,3H2/t4-,5+,6+,7-
