17
gdb 70137	2.38885	1.93937	1.24937	2.8076	74.1	-0.2349	-0.0257	0.2092	999.3261	0.136326	-421.847944	-421.840361	-421.839417	-421.879732	30.335	
O	 0.0277943221	 1.3474093451	-0.008399185	-0.477856
C	 0.0139997378	-0.0362128899	-0.0323532439	 0.356659
C	-0.5318086646	-0.6981870222	-1.2752608587	-0.343278
C	-1.3341205306	-0.765781718	 0.0092738361	-0.157352
C	-1.398192269	-2.06115338	 0.7274917319	-0.036134
C	-0.3119264899	-2.7113065914	 1.1457613002	-0.096481
C	 1.083610209	-2.1516791702	 0.9959857114	-0.383383
C	 1.106341387	-0.6524800432	 0.7666751184	 0.338436
O	 1.945057421	 0.0741216535	 1.2693822387	-0.356838
H	 0.8120323896	 1.5669440504	 0.5227654949	 0.293965
H	-0.8574129935	 0.0038205829	-2.0343060425	 0.139126
H	-0.0852423566	-1.6151840349	-1.643672753	 0.123934
H	-2.1954840207	-0.1094706839	 0.0694169546	 0.113438
H	-2.3825319781	-2.4989063393	 0.8680440986	 0.09963
H	-0.3985554	-3.6866663919	 1.6145766067	 0.102003
H	 1.7009964591	-2.3532028248	 1.8762987538	 0.141422
H	 1.5986534471	-2.6381873621	 0.1525491779	 0.142709
98.8415	173.9306	268.2492	347.0083	369.4301	414.3153	438.9514	479.442	502.2985	540.7056	623.1643	652.6701	723.9865	808.9516	836.5011	876.7031	894.6609	955.8604	967.7943	985.5054	989.3337	1045.3393	1071.5187	1093.0687	1131.2483	1186.7652	1190.0963	1241.7958	1310.5934	1327.096	1393.4297	1411.8669	1440.3483	1452.5657	1479.054	1713.4683	1766.6483	2995.2437	3086.6455	3135.9597	3159.3598	3175.7029	3184.9926	3234.1398	3664.8001
OC12CC1C=CCC2=O	O[C@]12C[C@H]1C=CCC2=O	
InChI=1S/C7H8O2/c8-6-3-1-2-5-4-7(5,6)9/h1-2,5,9H,3-4H2	InChI=1S/C7H8O2/c8-6-3-1-2-5-4-7(5,6)9/h1-2,5,9H,3-4H2/t5-,7-/m1/s1
