17
gdb 106026	2.73578	1.69511	1.29494	2.6888	73.76	-0.2341	0.0141	0.2483	1009.6662	0.13588	-417.914895	-417.907051	-417.906107	-417.947483	29.654	
C	-0.161235017	 1.30743882	 0.0199611797	-0.267748
O	 0.1690582613	-0.0806534578	 0.032325098	-0.285764
C	 0.7938182638	-0.4971126164	-1.1015413119	 0.378264
C	 0.0057685432	-0.9126009943	-2.40217293	-0.154254
C	 1.0350207373	-0.8749914266	-3.5196385888	-0.191248
N	 2.0497904548	-1.4441383352	-2.5260713106	-0.219115
C	 0.8520951677	-1.89556246	-1.6641330019	-0.108869
C	 2.1842500772	-0.2999250763	-1.587156001	 0.332101
N	 3.152751075	 0.4345420403	-1.2782764794	-0.569797
H	 0.7390907215	 1.9227075289	-0.0859476226	 0.148287
H	-0.8574984707	 1.5396353917	-0.7970521504	 0.112218
H	-0.6404468557	 1.5215253714	 0.9766369434	 0.133774
H	-1.0750111122	-0.8345439723	-2.4171658598	 0.105831
H	 0.8478038337	-1.6003672405	-4.3160048585	 0.119021
H	 1.3312446259	 0.0882060048	-3.9487737116	 0.113891
H	 0.7304336109	-2.8687224787	-1.2129387869	 0.124537
H	 3.9782796433	 0.1813892209	-1.8271580979	 0.228871
73.4501	157.2373	170.4795	184.8825	292.8744	370.1424	454.1118	477.5127	617.0274	666.6135	741.7685	779.4393	822.1383	855.9154	862.008	893.2366	943.7083	960.6751	961.9641	992.7016	1016.9947	1050.9923	1092.1828	1124.0266	1159.0449	1180.4801	1191.5105	1217.8543	1246.0816	1297.1294	1311.3652	1410.5685	1486.8417	1497.4762	1506.3776	1509.045	1822.6817	3008.9003	3042.556	3080.9909	3102.0755	3138.3357	3186.6395	3236.4909	3449.7583
COC12C3CN(C13)C2=N	CO[C@]12[C@H]3CN([C@@H]13)[C]2[NH]	
InChI=1S/C6H8N2O/c1-9-6-3-2-8(4(3)6)5(6)7/h3-4,7H,2H2,1H3	InChI=1S/C6H8N2O/c1-9-6-3-2-8(4(3)6)5(6)7/h3-4,7H,2H2,1H3/t3-,4+,6+/m0/s1
