18
gdb 71330	3.19143	1.52312	1.23244	1.98	76.89	-0.2423	-0.0318	0.2105	1036.5681	0.146144	-401.859807	-401.851775	-401.850831	-401.892578	30.426	
C	 0.2533886065	 1.4677393528	-0.014515972	-0.527215
C	 0.1936392751	-0.031299627	-0.028603235	 0.36383
C	 0.8351129278	-0.9771424031	-1.0548930547	-0.297101
C	-0.0031680886	-1.8680746045	-0.1462127514	 0.00006
C	 0.327564412	-1.0661718004	 1.1469677657	-0.120109
C	-1.1670951931	-0.9789569487	 1.4186873006	-0.045592
C	-1.7968149319	 0.1423128396	 2.1997109649	 0.132894
O	-1.2238639103	 0.8130771374	 3.0226134704	-0.247958
N	-1.1614621742	-0.8320594997	-0.1098073717	-0.216804
H	 1.2960813394	 1.7953072088	 0.0603355239	 0.127883
H	-0.161429112	 1.8681890824	-0.9453610513	 0.130649
H	-0.2926175106	 1.8989037354	 0.8266776965	 0.147012
H	 0.4882488711	-0.8731508003	-2.0868711662	 0.108671
H	 1.9202351506	-1.0964082591	-0.9998570186	 0.101328
H	-0.2373755263	-2.9314797299	-0.217568461	 0.085206
H	 1.1661514646	-1.2009910187	 1.8353882098	 0.078329
H	-1.6704353774	-1.9135761007	 1.7119854336	 0.092734
H	-2.8758775228	 0.3021723757	 1.9710461066	 0.086181
66.8512	141.0731	179.4035	199.0806	293.9697	315.0715	406.2147	449.2377	615.6188	670.537	714.4534	724.1765	819.9146	838.5115	862.083	898.8543	910.6492	956.8595	1004.0694	1012.1769	1032.2605	1064.3265	1071.4086	1132.0349	1144.6288	1157.9385	1164.7574	1209.7332	1222.6522	1246.3759	1293.4579	1332.8733	1388.0272	1412.6655	1416.3048	1485.2578	1488.9886	1494.5946	1818.9909	2870.4782	2992.9518	3039.7086	3054.0037	3071.6401	3101.6499	3105.4648	3119.9563	3138.0388
CC12CC3C1C(C=O)N23	C[C@@]12C[C@H]3[C@@H]1[C@@H](C=O)N23	
InChI=1S/C7H9NO/c1-7-2-4-6(7)5(3-9)8(4)7/h3-6H,2H2,1H3	InChI=1S/C7H9NO/c1-7-2-4-6(7)5(3-9)8(4)7/h3-6H,2H2,1H3/t4-,5+,6+,7+/m0/s1
