16
gdb 26874	2.98663	1.39449	0.9563	4.1741	77.98	-0.1938	-0.038	0.1559	1165.7765	0.124509	-437.961399	-437.952743	-437.951799	-437.996148	31.421	
C	 0.0046063784	 1.526563764	 0.0317226632	-0.500368
C	-0.0682881949	 0.0306718682	 0.0145115406	 0.324807
C	-1.2293240199	-0.6856740828	-0.0808789566	 0.245289
O	-2.424424186	-0.0123715669	-0.1651499227	-0.459538
C	-1.1599380941	-2.1060557706	-0.0861957924	-0.149518
C	 0.0257018898	-2.7702700463	 0.0006754445	-0.257183
C	 1.2849110324	-2.0593049794	 0.1049477193	 0.420215
O	 2.4037605047	-2.5454254909	 0.1885743655	-0.412038
N	 1.1114224535	-0.6659313284	 0.1023498265	-0.426745
H	 0.625094259	 1.8998877916	-0.791715007	 0.139853
H	-0.9929836509	 1.9533399776	-0.066434256	 0.163689
H	 0.4462010066	 1.88926245	 0.9677253199	 0.140915
H	-3.1358994527	-0.6525223481	-0.2543149133	 0.298222
H	-2.0883356479	-2.6698144953	-0.1621988914	 0.099402
H	 0.0773866484	-3.8514431374	-0.0040609904	 0.118184
H	 1.9778437035	-0.1492845955	 0.1737754303	 0.254813
15.312	123.8627	142.1562	191.235	286.4366	334.1116	353.8313	436.5164	476.7445	504.2239	580.2864	587.221	688.4387	734.5951	754.2583	792.5645	841.5427	911.8674	968.082	1030.8489	1061.1247	1103.8422	1177.9588	1214.2774	1245.4996	1286.5906	1366.0465	1411.1882	1452.6382	1458.1365	1487.6759	1494.4963	1602.667	1693.0022	1777.9169	3026.9621	3075.7914	3139.5556	3159.1368	3220.3513	3597.5081	3846.5454
CC1=C(O)C=CC(=O)N1	Cc1c(O)ccc(=O)[nH]1	
InChI=1S/C6H7NO2/c1-4-5(8)2-3-6(9)7-4/h2-3,8H,1H3,(H,7,9)	InChI=1S/C6H7NO2/c1-4-5(8)2-3-6(9)7-4/h2-3,8H,1H3,(H,7,9)
