22
gdb 72436	2.32466	2.08039	1.49094	1.4372	84.07	-0.2257	0.0853	0.3111	995.7477	0.197758	-367.206627	-367.199301	-367.198357	-367.23766	31.487	
C	-0.0355803443	 1.5079610681	 0.0378672367	-0.486264
C	 0.0211608416	-0.01040312	 0.0470170238	 0.32355
C	 0.7221854407	-0.6664845824	-1.1811676653	-0.231571
C	 0.9957817213	-2.1301438273	-0.6998125864	-0.199244
C	 0.4151454487	-2.1238731752	 0.7329887328	 0.011991
C	 0.7959776941	-0.7012561689	 1.1920527571	-0.284968
N	-1.0603702525	-2.1323729046	 0.5192706104	-0.10088
C	-1.8451880257	-1.2602230089	 1.4079351323	-0.279691
C	-1.334284208	-0.7264960732	 0.1198518745	-0.035692
H	 0.9689622058	 1.9410534764	-0.0203398777	 0.112285
H	-0.6045332159	 1.8785988033	-0.8226056043	 0.113653
H	-0.5176451976	 1.8931926188	 0.942853899	 0.11409
H	 0.0915997992	-0.6275228368	-2.0745793231	 0.095237
H	 1.6521978558	-0.1379349099	-1.4153087945	 0.089514
H	 0.4943983225	-2.8795644301	-1.3155318939	 0.108316
H	 2.0656425299	-2.3569101433	-0.6885900534	 0.091771
H	 0.7274943508	-2.9572878461	 1.3642618993	 0.063269
H	 1.873001825	-0.5222475849	 1.1271578858	 0.092733
H	 0.4715209753	-0.4247748497	 2.19607482	 0.095012
H	-2.8915257571	-1.5461857157	 1.4652340504	 0.114001
H	-1.4326971045	-0.9190659033	 2.3514530477	 0.11068
H	-2.0194481353	-0.5802227664	-0.7130764814	 0.082208
204.5274	225.7307	264.3299	300.6553	368.7571	382.6669	507.5201	528.5664	565.7807	594.7455	715.9266	760.7811	799.1367	836.4528	837.6968	882.3894	893.4976	903.208	951.5194	959.3589	990.4143	1010.3749	1028.157	1038.8124	1079.6247	1094.71	1108.3123	1140.5544	1163.6887	1170.2323	1204.5508	1226.8582	1252.2756	1256.5275	1262.996	1286.5173	1309.1106	1322.0588	1332.7715	1386.3701	1412.8628	1482.1863	1484.489	1494.6386	1496.3591	1505.4899	1536.9696	3023.8568	3041.5672	3061.8399	3069.3611	3082.1344	3087.5993	3094.2141	3102.0425	3114.2054	3117.5242	3121.5393	3127.5099	3200.9773
CC12CCC(C1)N1CC21	C[C@@]12CC[C@@H](C1)N1C[C@@H]21	
InChI=1S/C8H13N/c1-8-3-2-6(4-8)9-5-7(8)9/h6-7H,2-5H2,1H3	InChI=1S/C8H13N/c1-8-3-2-6(4-8)9-5-7(8)9/h6-7H,2-5H2,1H3/t6-,7-,8+,9?/m0/s1
