20
gdb 111395	1.88998	1.72321	1.04518	2.8763	80.15	-0.2167	-0.0323	0.1845	1198.9345	0.169635	-403.102317	-403.093299	-403.092355	-403.136472	33.476	
C	-0.3010265992	 2.0109010492	-0.6318343974	-0.390805
C	 0.1694258604	 0.6527271652	-0.1144706147	-0.135699
N	 0.594658671	-0.2167429189	-1.2046807014	-0.094506
C	 1.1396085798	-1.5363272986	-0.9078672357	 0.001502
C	 0.1046204764	-2.5299337162	-0.4588565832	-0.303849
C	 0.2199111816	-2.1844811397	-1.9277067547	-0.105038
C	-0.3512527664	-0.7826505161	-2.2185605443	-0.056683
C	-1.8456616675	-0.6465679675	-2.0282297631	 0.155008
O	-2.6023779482	-0.3469409879	-2.918552827	-0.257591
H	 0.4859360607	 2.4887888543	-1.2218022596	 0.128807
H	-1.1868460728	 1.9160568069	-1.2688943482	 0.132126
H	-0.5642524176	 2.6683118497	 0.2020962119	 0.117136
H	 1.0490138977	 0.7879764833	 0.527290879	 0.106944
H	-0.6087836841	 0.2051289661	 0.5282818514	 0.08239
H	 2.2030375621	-1.6662959689	-0.73700167	 0.098601
H	 0.4899572207	-3.5139998233	-0.2091490806	 0.120021
H	-0.7470445553	-2.2267258615	 0.1410813881	 0.114862
H	 0.4446962375	-2.9198324404	-2.6875698525	 0.107003
H	-0.1143059213	-0.4221188137	-3.2246061311	 0.10219
H	-2.2291555655	-0.8736089221	-1.0098358868	 0.077582
61.5567	99.5016	133.702	192.2657	220.5572	259.8464	305.7996	388.0633	439.7721	499.7406	528.7667	644.2848	777.3677	791.8137	813.1636	848.5697	919.2396	951.7746	980.7178	983.2205	1038.4181	1048.6196	1056.1643	1075.0646	1083.1444	1113.5353	1126.9725	1179.159	1199.7558	1225.5768	1265.0352	1280.7086	1303.2505	1306.9498	1353.4891	1392.2217	1415.0105	1432.0893	1485.6806	1491.8162	1497.7423	1518.0301	1814.2461	2890.1483	2948.1506	3038.9281	3041.9501	3058.3577	3107.412	3121.6778	3127.7658	3163.4144	3206.2855	3214.4849
CCN1C2CC2C1C=O	CCN1[C@H]2C[C@H]2[C@H]1C=O	
InChI=1S/C7H11NO/c1-2-8-6-3-5(6)7(8)4-9/h4-7H,2-3H2,1H3	InChI=1S/C7H11NO/c1-2-8-6-3-5(6)7(8)4-9/h4-7H,2-3H2,1H3/t5-,6+,7-/m1/s1
