18
gdb 33243	5.70712	0.7417	0.66458	1.1539	74.33	-0.2385	0.0076	0.2461	1663.0907	0.14745	-439.107887	-439.098969	-439.098024	-439.143159	31.034	
C	-0.0069041924	 1.4967208552	 0.0396182931	-0.387462
C	 0.015950265	-0.0218711869	 0.0217668821	-0.021952
O	 0.699112688	-0.4741024367	 1.1744527431	-0.24739
C	 0.7788504721	-1.8768099762	 1.2598124541	-0.170302
C	 1.5174748557	-2.2355691797	 2.5048385032	 0.225878
C	 2.0588495017	-1.4266702599	 3.445221275	-0.090975
O	 2.6348162823	-2.2204982277	 4.4030013159	-0.141801
C	 2.4028022786	-3.4786323209	 3.9741368036	 0.072835
N	 1.7486265999	-3.5611678984	 2.8623840109	-0.312524
H	 1.0114514643	 1.8955553577	 0.0401292733	 0.127496
H	-0.529833142	 1.8800956532	-0.8414729951	 0.117143
H	-0.5193554137	 1.8619933268	 0.9340849052	 0.127548
H	-1.0103755026	-0.4257295748	 0.0075118252	 0.089452
H	 0.5203405652	-0.3922348027	-0.8865677851	 0.08944
H	-0.2262944281	-2.3328041594	 1.2765576718	 0.108115
H	 1.2971585853	-2.3002320861	 0.3819205038	 0.108004
H	 2.1240715267	-0.3634591549	 3.5847178016	 0.156894
H	 2.7783757338	-4.2801682586	 4.5905861784	 0.149601
40.758	68.0646	98.0857	119.5737	242.1893	269.7047	274.1274	348.6184	495.9691	635.4352	675.7048	740.3294	773.7281	820.4618	845.9934	907.3581	936.7488	1005.4928	1045.3247	1051.0693	1091.0643	1133.8955	1148.4234	1172.3113	1188.8763	1240.9848	1242.4542	1255.4518	1296.2215	1339.4529	1389.6526	1407.5707	1454.9335	1483.3307	1499.0174	1507.6579	1533.5404	1555.9218	1641.4367	2948.6126	2961.0698	2969.586	2983.3589	3045.5636	3120.8167	3122.1412	3276.9172	3317.9729
CCOCC1=COC=N1	CCOCc1cocn1	
InChI=1S/C6H9NO2/c1-2-8-3-6-4-9-5-7-6/h4-5H,2-3H2,1H3	InChI=1S/C6H9NO2/c1-2-8-3-6-4-9-5-7-6/h4-5H,2-3H2,1H3
