18
gdb 20058	4.44616	1.58439	1.43647	1.4735	72.71	-0.2331	0.0185	0.2517	934.01	0.154718	-347.79041	-347.783105	-347.782161	-347.822393	27.667	
C	-0.2927914559	 1.3578853111	-0.1103384459	-0.258922
C	 1.1429334113	 1.0260499326	 0.2211720542	-0.268199
C	 0.1398297153	-0.077304471	 0.0147104012	 0.00634
C	-0.3205154136	-0.9298264054	 1.1877610758	 0.060796
O	-0.330922162	-0.1681874407	 2.4006334452	-0.276301
C	-1.5942362042	-0.2776596671	 3.0526399214	-0.113904
C	-2.4520320115	-1.0746360532	 2.1106151655	-0.098954
C	-1.7307715345	-1.4502091168	 1.062265519	-0.079361
H	-0.9002609401	 1.7643577162	 0.6900506769	 0.116666
H	-0.5256272999	 1.7431731983	-1.0968526149	 0.103771
H	 1.9017857144	 1.1806006731	-0.5380642429	 0.104149
H	 1.466892519	 1.2122421744	 1.2382221267	 0.127502
H	 0.2262493184	-0.6457638118	-0.9081398704	 0.078058
H	 0.3925286679	-1.7657175421	 1.3026434948	 0.079299
H	-1.4727688852	-0.776786151	 4.0280814206	 0.103964
H	-1.9960180218	 0.7271116652	 3.2521065146	 0.106299
H	-3.4945837571	-1.2955844199	 2.3015620783	 0.105096
H	-2.0627515105	-2.0416432018	 0.2184469599	 0.103701
83.0726	85.8133	193.2699	235.6303	359.479	435.927	561.7458	686.6489	767.0735	782.1403	793.159	823.1365	839.2656	912.0716	931.077	950.3768	961.2005	994.7998	1040.9821	1046.8381	1063.8184	1078.2892	1084.8199	1119.1713	1134.9183	1156.2212	1198.9763	1199.4273	1230.8273	1297.8989	1350.5926	1358.1153	1378.8621	1402.7682	1455.9995	1500.3287	1520.8175	1693.3902	2935.571	2968.6848	2997.3064	3134.2363	3136.5668	3142.4856	3205.6562	3219.5973	3230.518	3233.902
C1CC1C1OCC=C1	C1CC1[C@H]1OCC=C1	
InChI=1S/C7H10O/c1-2-7(8-5-1)6-3-4-6/h1-2,6-7H,3-5H2	InChI=1S/C7H10O/c1-2-7(8-5-1)6-3-4-6/h1-2,6-7H,3-5H2/t7-/m0/s1
