19
gdb 111180	1.96887	1.71001	1.06061	3.3242	81.63	-0.2271	0.0157	0.2428	1177.7474	0.159403	-382.002973	-381.994539	-381.993594	-382.036353	31.998	
C	 0.7478875969	-0.5532381201	-1.6249627418	-0.3727
C	 0.1804535851	-0.1301536779	-0.2703966385	-0.163956
N	-1.1147789162	-0.7818314984	-0.0554237189	-0.096855
C	-1.853640551	-0.6383400202	 1.2531635463	-0.042164
C	-2.7003647459	-1.8505960884	 0.7778188345	-0.213813
C	-1.2064955006	-2.1818735893	 0.5146625203	-0.045816
C	-0.9268662879	-1.6817674036	 1.9823415976	-0.125575
C	 0.396420068	-1.3602616945	 2.4845679783	 0.258803
N	 1.4260827694	-1.1522446969	 2.9705356682	-0.340254
H	 1.6770343013	-0.0156732539	-1.8360188542	 0.117866
H	 0.9747396204	-1.6248175193	-1.6405688325	 0.115099
H	 0.0306982672	-0.3477369709	-2.4243135317	 0.12381
H	 0.926569844	-0.3110300721	 0.5117635238	 0.129564
H	-0.0183641154	 0.9486507576	-0.2751930953	 0.105048
H	-2.1872263765	 0.3267237424	 1.6361671209	 0.100591
H	-3.2225795153	-2.4341309883	 1.5370704583	 0.102547
H	-3.28766834	-1.6676038602	-0.1193730832	 0.119655
H	-0.7743079949	-3.0527547149	 0.0218052558	 0.102099
H	-1.4332391284	-2.266332481	 2.7567724621	 0.126051
59.0663	143.5124	164.2458	212.6944	214.6168	312.3219	397.8033	459.513	500.9019	542.0222	622.2237	742.1415	749.4758	794.0891	817.669	877.8669	893.9818	898.9029	967.9405	1022.1167	1049.8642	1069.2859	1084.771	1093.6787	1111.0006	1136.1816	1177.7085	1186.3731	1199.8516	1206.1848	1231.9977	1277.8772	1312.5565	1372.6067	1392.8986	1410.9107	1489.9369	1493.8902	1494.6432	1512.2918	2340.6729	3029.4461	3038.5293	3060.0078	3066.2755	3089.6311	3105.6263	3115.7894	3122.6501	3123.7638	3180.0303
CCN1C2CC1C2C#N	CCN1[C@H]2C[C@@H]1[C@H]2C#N	
InChI=1S/C7H10N2/c1-2-9-6-3-7(9)5(6)4-8/h5-7H,2-3H2,1H3	InChI=1S/C7H10N2/c1-2-9-6-3-7(9)5(6)4-8/h5-7H,2-3H2,1H3/t5-,6-,7+
