22
gdb 103343	2.82114	1.34063	1.08777	1.8719	83.19	-0.2003	0.0618	0.2621	1202.396	0.192958	-404.242383	-404.232897	-404.231953	-404.276453	36.402	
C	 0.7171914508	 1.388254569	 0.2111182052	-0.332059
N	 0.7489230866	-0.07349197	 0.2277892842	-0.097541
C	-0.4982385294	-0.899802023	 0.4438535234	-0.103421
C	 0.4927074367	-2.095139643	 0.5778564904	-0.217767
C	 1.0227341461	-0.9323851877	 1.4553102156	-0.069322
C	-0.4327348593	-0.7143103837	 2.01632078	 0.350892
C	-0.7548575743	 0.6336417688	 2.6876358964	-0.486423
C	-1.0690963207	-1.814039108	 2.8909213515	-0.140614
O	-0.284906834	-2.1262433108	 4.0365350175	-0.421461
H	 1.547564427	 1.7891290478	 0.8032014239	 0.118297
H	 0.8735348466	 1.7154693854	-0.8240376869	 0.115265
H	-0.2096813384	 1.8568421659	 0.5613740492	 0.107496
H	-1.3664625555	-0.8105372559	-0.2145373053	 0.07357
H	 0.1708128493	-3.0100316385	 1.0665248312	 0.101753
H	 1.0799462019	-2.2797169182	-0.3195303024	 0.104499
H	 1.9689189308	-0.8716269124	 1.9970980162	 0.076454
H	-1.7058388041	 1.0457642939	 2.3315344535	 0.123468
H	-0.8673394865	 0.4954263002	 3.7703228725	 0.091417
H	 0.0135266279	 1.3922310477	 2.5582231796	 0.12971
H	-2.0803127584	-1.4854553547	 3.1821940473	 0.082353
H	-1.191788644	-2.7598447969	 2.36451743	 0.111025
H	-0.2174953091	-1.3347843759	 4.579926007	 0.282409
72.5756	112.7373	134.6224	180.7154	247.1298	269.3755	324.4015	350.4771	369.5387	434.899	473.387	535.2306	653.7393	674.1422	732.1777	756.322	809.4755	877.6784	892.5849	933.5301	962.2437	1020.5598	1023.1945	1058.8121	1063.8171	1081.5353	1126.1929	1128.2689	1140.2875	1160.0963	1168.9991	1186.3195	1201.3507	1218.9395	1250.1936	1269.9605	1307.6804	1372.3386	1413.6216	1424.1248	1444.1145	1479.5178	1487.1815	1495.1964	1506.7353	1532.9209	1541.0532	2968.1352	3008.9013	3023.5558	3054.8492	3072.8307	3076.2918	3087.0849	3091.9594	3112.2499	3129.2899	3165.5356	3191.4959	3816.4135
CN1C2CC1C2(C)CO	CN1[C@H]2C[C@@H]1[C@]2(C)CO	
InChI=1S/C7H13NO/c1-7(4-9)5-3-6(7)8(5)2/h5-6,9H,3-4H2,1-2H3	InChI=1S/C7H13NO/c1-7(4-9)5-3-6(7)8(5)2/h5-6,9H,3-4H2,1-2H3/t5-,6+,7+
