20
gdb 118627	1.80679	1.15944	0.76519	2.068	77.8	-0.2572	-0.0398	0.2175	1514.1251	0.168774	-440.328607	-440.318251	-440.317306	-440.365086	35.908	
C	-0.058405177	 1.2673583835	 0.2361485893	-0.387078
C	 0.0267333688	-0.2490327844	 0.0434748231	-0.165202
C	 0.6609435917	-0.6278440323	-1.2991141205	-0.179955
C	 0.7964708521	-2.1535123255	-1.5233285149	-0.080984
N	-0.466278368	-2.8549020286	-1.63029851	-0.272718
C	-1.0082362809	-3.5317813505	-0.5812150608	 0.154255
O	-0.6165846953	-3.4663911908	 0.5655119241	-0.326084
C	 1.5982568328	-2.3899475262	-2.7892955026	 0.159427
O	 1.1723996009	-2.9664609713	-3.7586119056	-0.256156
H	 0.9345701049	 1.7304024139	 0.2116559875	 0.112716
H	-0.6608167438	 1.7364071459	-0.549988993	 0.114289
H	-0.5169676647	 1.5155931743	 1.197994946	 0.119284
H	 0.6056247187	-0.7006090585	 0.8571047197	 0.113555
H	-0.973446263	-0.6884840736	 0.1102732552	 0.119237
H	 0.0736073387	-0.2046311433	-2.1245764605	 0.105377
H	 1.6627463626	-0.1814232075	-1.3674031755	 0.099734
H	 1.3549757313	-2.573804202	-0.6752588887	 0.129644
H	-0.7227109327	-3.1314696187	-2.5690797096	 0.258011
H	-1.8746815426	-4.1478283311	-0.8906765131	 0.08472
H	 2.6193950852	-1.9539072531	-2.7773839901	 0.097927
60.0728	73.5636	85.1358	105.45	181.7845	210.3868	242.6235	244.1295	294.6187	339.4995	382.2963	510.12	589.2706	704.36	738.0908	774.2348	862.277	865.9779	906.6909	982.8491	1016.2987	1033.6425	1047.8852	1102.6404	1139.8819	1160.5054	1224.3827	1249.36	1273.8008	1331.7997	1337.001	1364.7461	1394.229	1412.6565	1414.1235	1428.6062	1471.6597	1486.0926	1499.5761	1506.387	1518.0716	1796.0247	1824.9632	2914.4333	2948.0135	3009.9448	3024.6848	3028.7875	3045.5797	3052.9587	3078.8234	3102.9726	3105.973	3583.3316
CCCC(NC=O)C=O	CCC[C@@H](NC=O)C=O	
InChI=1S/C6H11NO2/c1-2-3-6(4-8)7-5-9/h4-6H,2-3H2,1H3,(H,7,9)	InChI=1S/C6H11NO2/c1-2-3-6(4-8)7-5-9/h4-6H,2-3H2,1H3,(H,7,9)/t6-/m1/s1
