19
gdb 99307	5.78772	0.61897	0.58385	1.2126	73.15	-0.2672	0.0157	0.2829	1887.1478	0.156937	-460.174576	-460.164563	-460.163619	-460.211708	33.976	
C	 0.0957348339	 1.2838267259	 0.2198043962	-0.239955
O	 0.2313742385	-0.1305846666	 0.0345795023	-0.233731
C	 0.6125565655	-0.5174987665	-1.1997359492	 0.44707
O	 0.8290101975	 0.2515436384	-2.1029354911	-0.357
C	 0.7219060287	-2.0256217987	-1.2791637967	-0.324337
C	 1.1842729462	-2.5124206514	-2.6545884021	-0.213817
C	 1.2754603916	-4.0167327711	-2.7117876042	 0.090784
C	 2.344319343	-4.7132123801	-3.4360982823	-0.180025
O	 2.3724363096	-4.6143904744	-2.0107603282	-0.238854
H	 1.0462175734	 1.790603625	 0.0344116588	 0.140617
H	-0.6564106189	 1.6923902162	-0.4599791744	 0.139482
H	-0.2129967017	 1.4193290089	 1.2563928781	 0.133133
H	 1.4118862079	-2.3649379392	-0.4985685302	 0.150571
H	-0.2551781974	-2.4479986783	-1.0129509892	 0.130454
H	 0.4911522526	-2.1572737682	-3.425527336	 0.117175
H	 2.1611088601	-2.0779382607	-2.8871654491	 0.119168
H	 0.3316891667	-4.5499330944	-2.5749519959	 0.089605
H	 2.1716199157	-5.7127100313	-3.8329924919	 0.114381
H	 3.1019264471	-4.1313313233	-3.9597863248	 0.11528
27.0811	52.3424	90.3341	122.224	125.0059	175.1135	231.4718	291.4791	357.2031	439.5105	490.8161	586.5533	698.1968	770.5564	813.4352	870.1366	909.3955	950.3683	1002.8466	1016.8364	1072.5169	1105.961	1120.5724	1159.8212	1170.3185	1179.7726	1198.7126	1211.1768	1216.5713	1291.5066	1309.6466	1311.7801	1393.0368	1450.8428	1457.8326	1473.5832	1476.2836	1482.466	1498.3024	1532.2097	1818.4064	3039.2526	3050.769	3051.5183	3074.4531	3080.2818	3083.6444	3103.7092	3125.1411	3158.2391	3168.0498
COC(=O)CCC1CO1	COC(=O)CC[C@H]1CO1	
InChI=1S/C6H10O3/c1-8-6(7)3-2-5-4-9-5/h5H,2-4H2,1H3	InChI=1S/C6H10O3/c1-8-6(7)3-2-5-4-9-5/h5H,2-4H2,1H3/t5-/m0/s1
