19
gdb 81604	4.05036	0.93292	0.88419	3.4671	80.85	-0.2425	0.0311	0.2736	1365.6871	0.160151	-382.003107	-381.994691	-381.993746	-382.036829	31.701	
C	-0.0511079421	 1.6485155256	-0.8355509671	-0.445659
C	 0.0201798522	 0.2751480287	-0.1933031762	 0.094249
C	 0.8704122742	-0.8999931882	-0.7453303751	-0.09287
C	 2.078537211	-0.1148011053	-0.1892720341	-0.179403
N	 1.0491578877	 0.039254623	 0.9512239847	-0.181759
C	 0.8092835201	-1.4643201192	 0.6965655967	 0.081824
C	-0.429570466	-2.1048250033	 1.3339729581	-0.397895
C	-0.5318025958	-3.5166918506	 0.9701314066	 0.260999
N	-0.59720353	-4.6301922402	 0.6683263979	-0.306259
H	 0.8811821959	 1.9865416942	-1.2909511502	 0.125206
H	-0.8183545634	 1.6420082088	-1.6170622412	 0.126072
H	-0.3486951874	 2.3891872848	-0.0859619903	 0.136097
H	-0.9890352526	 0.0117412266	 0.1306924054	 0.06689
H	 0.7740711098	-1.4384202346	-1.6941741092	 0.078323
H	 2.9647362285	-0.6830767408	 0.1045780336	 0.107763
H	 2.3633957215	 0.8241065912	-0.6596408303	 0.109151
H	 1.6823819326	-2.0530741192	 0.9934566789	 0.09393
H	-0.3392471994	-2.0252458783	 2.4237766355	 0.167043
H	-1.3650595271	-1.611917743	 1.0587682863	 0.156298
40.952	116.5956	160.0796	248.0501	257.7061	323.6439	385.9348	401.9508	474.0959	593.4011	629.6688	732.6604	771.6723	798.4494	808.5658	869.0678	908.3236	956.5632	992.3836	1025.8335	1036.4184	1065.3905	1079.9539	1133.2513	1145.5871	1159.8731	1165.876	1188.1382	1225.0535	1238.9513	1252.5091	1285.207	1314.9083	1410.2928	1433.7772	1447.5293	1466.1932	1495.0604	1495.5614	1548.4081	2363.2216	3042.2604	3046.7033	3051.0676	3059.8948	3073.3674	3079.7619	3102.5249	3106.5081	3130.2078	3159.0342
CC1C2CN1C2CC#N	C[C@H]1[C@H]2CN1[C@H]2CC#N	
InChI=1S/C7H10N2/c1-5-6-4-9(5)7(6)2-3-8/h5-7H,2,4H2,1H3	InChI=1S/C7H10N2/c1-5-6-4-9(5)7(6)2-3-8/h5-7H,2,4H2,1H3/t5-,6+,7-/m0/s1
