14
gdb 17702	5.27541	2.03095	1.99946	1.9514	59.01	-0.2398	0.0685	0.3083	695.3964	0.107869	-382.441763	-382.436215	-382.43527	-382.471018	23.242	
O	-0.1276210883	 1.4237470605	 0.0127964254	-0.451127
C	 0.036549386	 0.0650186777	-0.0236182824	 0.36697
C	 0.0815770399	-0.9980761683	 1.0517412233	-0.194953
C	-1.0198827129	-0.9958422135	-0.0413840163	-0.144921
C	-0.2784057904	-1.8690531824	-1.0904520691	 0.089569
O	 0.4070270583	-2.9251341156	-0.3825518478	-0.292255
C	 1.1211832978	-1.8635091733	 0.2909265649	 0.08588
C	 0.9218188896	-0.8799165939	-0.9113517279	-0.194779
H	 0.6369316522	 1.8137804322	 0.4517311831	 0.290693
H	-0.1618665835	-0.9522476581	 2.1043400259	 0.096987
H	-2.0702186826	-0.9320492662	 0.2058076888	 0.09953
H	-0.7563362008	-2.1828535557	-2.0165881165	 0.084136
H	 2.0559714411	-2.1751539757	 0.7540034412	 0.081136
H	 1.6639609235	-0.6342014777	-1.6664290326	 0.083134
262.0307	311.1918	351.3944	549.1041	592.969	596.7456	745.7047	748.2088	790.8728	823.3555	829.9772	856.4243	883.6347	897.3256	926.0372	940.5456	997.3524	1020.5765	1032.1813	1097.8471	1099.1087	1162.6844	1163.5882	1197.2553	1203.0064	1245.2982	1264.0052	1303.4156	1317.6161	1488.416	3133.8908	3138.6582	3157.6679	3210.835	3220.9801	3789.2977
OC12C3C1C1OC3C21	O[C@@]12[C@H]3[C@@H]1[C@@H]1O[C@H]3[C@H]21	
InChI=1S/C6H6O2/c7-6-1-2(6)5-3(6)4(1)8-5/h1-5,7H	InChI=1S/C6H6O2/c7-6-1-2(6)5-3(6)4(1)8-5/h1-5,7H/t1-,2+,3-,4+,5-,6-
