22
gdb 106814	2.40389	1.46945	1.08132	3.0783	82.27	-0.2297	0.0692	0.2989	1219.4154	0.194263	-404.338727	-404.32944	-404.328496	-404.372469	35.37	
C	-0.3112814007	 1.4962857168	-0.1256888684	-0.376598
C	 0.1873888442	 0.0562197201	 0.0684300436	-0.296268
C	 0.8446351189	-0.5143215812	-1.1639737193	 0.274689
C	 2.1866208061	 0.0372263527	-1.6210379882	-0.113767
O	 2.7200282984	-0.9104969182	-2.5355398826	-0.25358
C	 2.1660646441	-2.1898829457	-2.2655043205	-0.106774
C	 0.8323947975	-1.943417248	-1.5805810478	 0.23448
C	 0.1682091458	-3.0788304715	-0.8496181277	-0.497847
N	 0.0365698846	-0.9441493793	-2.3354567094	-0.401112
H	 0.5144693368	 2.1774833712	-0.353850284	 0.125295
H	-1.0269259244	 1.5567734064	-0.9518339141	 0.125179
H	-0.8056560492	 1.8632558471	 0.778620368	 0.114476
H	 0.9007008727	 0.025500465	 0.9024233205	 0.103277
H	-0.6547147992	-0.5819506653	 0.3619968831	 0.094509
H	 2.1112572754	 0.993988722	-2.1480094263	 0.11057
H	 2.846316942	 0.1688640409	-0.7457847132	 0.081452
H	 2.0711923571	-2.7192090387	-3.2198590538	 0.108878
H	 2.8183501952	-2.780301385	-1.5992654488	 0.081422
H	 0.853809243	-3.5419328453	-0.1314549601	 0.125662
H	-0.7181073129	-2.7448003476	-0.3019314826	 0.118555
H	-0.151961107	-3.8579983156	-1.5510940107	 0.129867
H	-0.9362129882	-1.0236851207	-2.0391992875	 0.217636
80.7129	147.3987	186.5819	201.6999	206.7621	234.8062	278.5989	343.8675	359.5964	458.541	499.5478	555.0138	650.1175	689.8683	775.8948	784.2457	872.6251	934.0709	957.2801	959.5089	993.7312	1012.991	1037.6475	1071.9729	1090.4918	1099.982	1122.2975	1144.6963	1161.1086	1227.9685	1250.2301	1267.0813	1304.2436	1321.0337	1360.6419	1383.1873	1399.0745	1412.6639	1420.767	1459.0912	1477.7231	1489.0208	1498.7505	1500.573	1501.9821	1509.4162	1513.8126	2952.9635	2960.7111	3019.6654	3028.5053	3038.3501	3055.3563	3063.5526	3068.6195	3087.2423	3105.0615	3109.5583	3110.5898	3462.3437
CCC12COCC1(C)N2	CC[C@@]12COC[C@]1(C)N2	
InChI=1S/C7H13NO/c1-3-7-5-9-4-6(7,2)8-7/h8H,3-5H2,1-2H3	InChI=1S/C7H13NO/c1-3-7-5-9-4-6(7,2)8-7/h8H,3-5H2,1-2H3/t6-,7+/m0/s1
