17
gdb 126131	4.44745	1.07906	0.87765	1.3364	77.15	-0.2609	-0.0418	0.2191	1299.1428	0.136698	-418.064557	-418.0562	-418.055255	-418.098351	30.127	
C	 0.0795980268	 1.5005591619	 0.0096061398	-0.383105
C	-0.0445690563	-0.0211778408	 0.0032089339	-0.299659
C	-1.4870627393	-0.4735831465	 0.0122705789	 0.451036
O	-2.4462673406	 0.257805858	 0.0237101426	-0.319566
N	-1.6862571164	-1.8779279255	 0.0064689763	-0.042263
C	-2.9014382616	-2.5132422501	 0.0128229942	 0.004136
C	-2.6406628132	-3.8559619667	 0.0036730698	-0.245038
C	-1.2215051554	-3.9467673919	-0.0080601657	 0.009841
N	-0.646736408	-2.7583434918	-0.00640281	-0.255233
H	 1.1331361529	 1.7922137145	 0.0027724097	 0.114411
H	-0.4067365259	 1.939520331	-0.8651338518	 0.132728
H	-0.3929603377	 1.9309937506	 0.8960528697	 0.132739
H	 0.4452741273	-0.468403105	-0.8688932548	 0.146708
H	 0.4586619591	-0.4767138627	 0.8633220219	 0.146693
H	-3.8122765712	-1.939254892	 0.0230936385	 0.163194
H	-3.357056776	-4.6612160012	 0.0051177667	 0.118118
H	-0.6084320045	-4.8368312317	-0.0176043097	 0.125259
55.8726	90.2075	160.4533	170.2531	198.6214	297.3328	384.5552	525.6331	551.6912	626.7346	670.0529	722.0804	794.22	805.905	880.9723	912.9858	925.2972	930.1128	991.1667	1032.8309	1063.2273	1085.3507	1102.2882	1127.6145	1230.7414	1273.9282	1277.3975	1347.0528	1392.6399	1416.1618	1422.8919	1444.0484	1451.4042	1492.0602	1499.2076	1577.395	1817.6556	3053.1391	3056.1746	3082.3161	3125.5719	3128.9923	3240.0295	3271.5029	3297.817
CCC(=O)N1C=CC=N1	CCC(=O)n1cccn1	
InChI=1S/C6H8N2O/c1-2-6(9)8-5-3-4-7-8/h3-5H,2H2,1H3	InChI=1S/C6H8N2O/c1-2-6(9)8-5-3-4-7-8/h3-5H,2H2,1H3
