16
gdb 49432	3.50423	1.60192	1.32109	4.1151	77.39	-0.2076	-0.0603	0.1473	957.5085	0.124226	-400.637559	-400.630674	-400.62973	-400.668791	27.355	
O	 0.7192415509	-0.0074157796	 0.7926453485	-0.308172
C	 0.4526603733	 1.1373041615	 0.4994843296	 0.138406
N	 1.0846407788	 1.8553561833	-0.4811112659	-0.087219
C	 1.4193119962	 3.3169529596	-0.458999292	-0.038575
C	 2.9393477891	 3.7296227127	-0.0741177005	-0.061576
C	 3.9833245213	 2.7746305601	 0.5466021194	-0.260017
C	 3.4173426519	 1.4206308953	 0.086395829	-0.121797
C	 2.4951242392	 1.6921789174	-0.8587485404	 0.094953
C	 2.5573997089	 3.1367253027	-1.3833752337	-0.136495
H	-0.3694197	 1.7174562504	 0.9640288759	 0.081689
H	 0.6316353126	 4.0631640349	-0.4700602084	 0.1207
H	 3.0465007097	 4.8079951567	 0.0359461017	 0.090159
H	 4.996242677	 3.0515607909	 0.219594442	 0.117208
H	 3.9961967322	 2.7636385784	 1.6431355529	 0.124495
H	 3.2878867403	 0.6050934613	 0.7878314481	 0.13934
H	 2.7101175787	 3.4671348944	-2.4020793364	 0.106902
104.6056	194.2132	253.3825	339.2274	395.6018	492.8759	520.9491	605.3223	648.3595	758.371	776.7651	810.3517	832.7655	875.7029	896.521	943.2355	945.2615	974.0838	980.3516	1017.5089	1039.1914	1058.6571	1102.4645	1134.2779	1177.8678	1210.7657	1259.1698	1273.2813	1281.3725	1327.2567	1368.6782	1411.2106	1472.4627	1570.1965	1782.4544	2937.6967	2994.9096	3055.8658	3128.0082	3171.5445	3200.6577	3205.3611
O=CN1C2C3CC=C1C23	O=CN1[C@H]2[C@H]3C[CH][C]1[C@@H]23	
InChI=1S/C7H7NO/c9-3-8-5-2-1-4-6(5)7(4)8/h2-4,6-7H,1H2	InChI=1S/C7H7NO/c9-3-8-5-2-1-4-6(5)7(4)8/h2-4,6-7H,1H2/t4-,6-,7-/m0/s1
