16
gdb 93391	2.92605	1.61028	1.22593	2.6363	66.04	-0.2673	-0.012	0.2553	1000.9022	0.12562	-475.006388	-474.998922	-474.997978	-475.038509	28.733	
O	 0.0994041005	 1.3970653971	-0.1377014804	-0.429646
C	 0.0421777607	-0.0067458145	-0.0077094821	 0.100341
C	 0.8008017984	-0.5097058789	 1.2202065148	-0.120388
O	 0.0984647851	-0.2777271276	 2.4543725697	-0.25684
C	-1.1324759693	-0.8508739594	 2.5741554577	 0.387215
N	-1.5946319112	-1.280288984	 3.6703596573	-0.509037
C	-1.9804234148	-0.881384138	 1.3456607477	-0.012617
O	-2.2559716871	 0.4111811323	 0.7718097313	-0.246578
C	-1.412787381	-0.4810320236	 0.0442176644	-0.018606
H	-0.5955994062	 1.747505658	 0.435705801	 0.299072
H	 0.5314119241	-0.4258104061	-0.8944208882	 0.096231
H	 1.0114537587	-1.5838257591	 1.1223658696	 0.106842
H	 1.7439110458	 0.0303657049	 1.3182578126	 0.134874
H	-0.8953752982	-1.1776963912	 4.4098101348	 0.228616
H	-2.8371289597	-1.5452032167	 1.4070905148	 0.128155
H	-1.8550207057	-0.8724161632	-0.8697637249	 0.112368
73.6583	170.5405	224.8401	309.7822	369.8757	392.1252	434.0847	488.4633	517.8068	639.5614	707.6582	758.7038	802.805	852.6636	870.2908	915.457	939.777	958.3862	1000.8043	1070.9988	1083.9544	1117.769	1141.3077	1162.8053	1259.0126	1267.4078	1310.6121	1319.6531	1339.8826	1372.4178	1416.1717	1439.8735	1445.5123	1490.3637	1753.3025	3012.102	3052.975	3125.3267	3132.8326	3175.1344	3461.2819	3763.0396
OC1COC(=N)C2OC12	O[C@H]1CO[C]([NH])[C@H]2O[C@@H]12	
InChI=1S/C5H7NO3/c6-5-4-3(9-4)2(7)1-8-5/h2-4,6-7H,1H2	InChI=1S/C5H7NO3/c6-5-4-3(9-4)2(7)1-8-5/h2-4,6-7H,1H2/t2-,3-,4-/m0/s1
