16
gdb 78094	2.81408	1.23212	1.01481	5.0762	69.68	-0.2659	0.0303	0.2962	1164.1674	0.123375	-437.857085	-437.848618	-437.847674	-437.890089	31.827	
O	-0.1555466745	 1.4028675891	 0.0654610191	-0.418801
C	-0.1247167352	 0.0065098173	 0.0173758816	 0.006706
C	-0.4844715329	-0.87257913	 1.1953686347	-0.179794
C	-1.5545984004	-0.151249197	 2.0408561729	-0.142918
C	-2.500312896	-0.1151768224	 0.7849396536	-0.312642
C	-1.392158202	-0.7733834033	-0.0448783438	 0.371397
O	-1.6283946524	-1.7446380922	-0.9955274997	-0.454601
C	-2.0636216318	-0.9214074397	 3.1629712939	 0.268876
N	-2.4643323239	-1.5352408975	 4.0571759783	-0.326943
H	 0.638057164	 1.7080605165	 0.5188925505	 0.294131
H	 0.6644151758	-0.4221158531	-0.6016038267	 0.102972
H	 0.153138067	-1.6727050876	 1.5489677129	 0.117066
H	-1.2484752913	 0.8379404521	 2.3915112596	 0.120285
H	-3.3500117423	-0.7873786891	 0.9072081647	 0.140047
H	-2.8401292037	 0.8739540856	 0.4715702876	 0.121276
H	-1.6671760504	-1.3251627787	-1.8625028294	 0.292944
90.057	156.1649	191.1315	232.2211	262.9758	300.6004	342.6789	370.8134	469.2868	509.1371	556.918	595.8976	636.335	756.5764	805.113	858.3145	918.0133	956.4248	988.6	1029.3808	1039.7804	1070.7974	1133.0091	1138.715	1208.5946	1217.0791	1229.6941	1267.8991	1287.1967	1305.2837	1340.5743	1362.2896	1464.4087	1502.0493	2356.4184	3075.3055	3079.817	3106.0145	3147.3847	3201.6366	3794.8892	3799.7908
OC1C2C(CC12O)C#N	O[C@H]1[C@H]2[C@@H](C[C@@]12O)C#N	
InChI=1S/C6H7NO2/c7-2-3-1-6(9)4(3)5(6)8/h3-5,8-9H,1H2	InChI=1S/C6H7NO2/c7-2-3-1-6(9)4(3)5(6)8/h3-5,8-9H,1H2/t3-,4+,5-,6-/m0/s1
