20
gdb 97248	2.35982	1.51724	0.97356	2.1642	79.14	-0.2405	0.0188	0.2593	1243.0497	0.170585	-440.292126	-440.282837	-440.281892	-440.326667	33.784	
C	 0.1083033121	 1.4942700248	-0.0902064936	-0.325713
N	 0.0997528567	 0.0410285098	-0.0619423427	-0.291111
C	 0.4431294337	-0.5717073657	 0.986436397	 0.390192
O	 0.8857122476	 0.0855796901	 2.1041758832	-0.266473
C	 0.7526204698	-0.5611303478	 3.3761636922	-0.078695
C	 1.0899122916	-2.0353270994	 3.2790901541	-0.090217
O	 0.2677411153	-2.6325688194	 2.299486441	-0.253672
C	 0.527386747	-2.0965994251	 1.0038885711	 0.024612
C	-0.4287456318	-2.7601794499	 0.0281356824	-0.392219
H	 1.0462220222	 1.849005101	-0.5363268284	 0.125196
H	-0.7046272651	 1.8384616074	-0.7365286446	 0.120486
H	 0.0088431576	 1.9583311807	 0.8972683594	 0.11864
H	 1.4255136581	-0.0316269517	 4.0568064403	 0.116226
H	-0.2788457826	-0.4402832315	 3.7316360418	 0.116321
H	 2.1559683842	-2.1693492132	 3.030283817	 0.097064
H	 0.8881031413	-2.5385975705	 4.2295067796	 0.115175
H	 1.5691360474	-2.3482753861	 0.7296616486	 0.089013
H	-1.4626111354	-2.5318598311	 0.29912377	 0.126104
H	-0.2485119879	-2.3919478473	-0.9815832996	 0.143241
H	-0.2867529417	-3.8434803151	 0.0593234411	 0.115832
54.9844	84.3254	155.2592	186.8578	217.4776	230.3592	310.1555	335.4711	433.7851	454.6772	460.0682	551.8176	615.2796	701.3824	786.8467	871.7225	919.663	944.5531	1027.1331	1043.6153	1078.4838	1111.9892	1122.6552	1128.6213	1150.1948	1164.7642	1174.4415	1224.9652	1273.6435	1302.0588	1356.1502	1364.5826	1405.3762	1407.3028	1423.2851	1436.5577	1482.0798	1488.3806	1489.3135	1494.9157	1496.7092	1500.7042	1770.1083	2927.8464	2971.8864	3016.0653	3025.1769	3058.9382	3073.1542	3087.8658	3094.91	3097.8302	3130.0067	3161.9326
CN=C1OCCOC1C	CN=C1OCCO[C@H]1C	
InChI=1S/C6H11NO2/c1-5-6(7-2)9-4-3-8-5/h5H,3-4H2,1-2H3	InChI=1S/C6H11NO2/c1-5-6(7-2)9-4-3-8-5/h5H,3-4H2,1-2H3/t5-/m0/s1
