20
gdb 122400	4.87965	0.66726	0.62329	4.1539	78.09	-0.2481	0.0383	0.2864	1814.7309	0.169569	-440.30377	-440.293934	-440.29299	-440.340013	34.677	
C	-0.158821815	 1.4816100323	-0.1963027528	-0.385113
C	 0.0308089926	-0.015637037	-0.0252209165	-0.028923
O	 0.6775574573	-0.5239443356	-1.1772895454	-0.253834
C	 0.9039093454	-1.9143242928	-1.1293666709	-0.059924
C	 1.5733570381	-2.3172337186	-2.4291283849	 0.0392
C	 1.6288530378	-3.8406535103	-2.741989834	-0.413867
C	 0.7128995293	-3.5088972666	-3.9511097637	 0.430612
O	 0.1866550325	-4.1283523668	-4.8348888464	-0.357304
N	 0.7282262643	-2.1758737835	-3.6191188833	-0.313314
H	 0.8068669435	 1.979171835	-0.3225655575	 0.128161
H	-0.7716002881	 1.6933772738	-1.0771369957	 0.126606
H	-0.655702902	 1.9048313438	 0.6815823909	 0.118438
H	 0.6352707914	-0.2304195043	 0.8720345009	 0.088643
H	-0.9414602386	-0.5171948511	 0.1144005844	 0.090255
H	 1.5513755571	-2.1807703399	-0.2759400001	 0.090054
H	-0.0468522415	-2.4619125344	-1.0124735568	 0.088718
H	 2.5330373859	-1.797756635	-2.5247878985	 0.093118
H	 2.6101652982	-4.2332713242	-3.0114427082	 0.133776
H	 1.1642033708	-4.4894192305	-1.9962431414	 0.129265
H	 0.256727111	-1.372318714	-4.0061502101	 0.255431
39.2648	64.0824	89.2928	112.6309	165.9907	247.3255	276.3679	326.4512	387.6391	451.0127	492.6206	521.4	564.3074	733.2847	821.3065	831.7293	897.3403	919.529	946.2882	1015.0557	1044.1129	1065.5001	1082.5706	1136.8101	1155.8495	1171.4092	1186.0152	1194.0865	1203.445	1253.0408	1279.0802	1297.9459	1360.3572	1382.5437	1397.7971	1412.4609	1453.5405	1460.9679	1483.7095	1499.2047	1506.1712	1533.6781	1897.9587	2947.5967	2961.9914	2982.7678	2985.1071	3045.9314	3052.0583	3085.0584	3120.9848	3122.2243	3145.3131	3622.0145
CCOCC1CC(=O)N1	CCOC[C@H]1CC(=O)N1	
InChI=1S/C6H11NO2/c1-2-9-4-5-3-6(8)7-5/h5H,2-4H2,1H3,(H,7,8)	InChI=1S/C6H11NO2/c1-2-9-4-5-3-6(8)7-5/h5H,2-4H2,1H3,(H,7,8)/t5-/m1/s1
