15
gdb 16563	3.29775	2.78466	2.23686	1.7789	59.31	-0.255	0.0146	0.2696	674.3181	0.122918	-399.818815	-399.81324	-399.812296	-399.84831	22.476	
C	-0.0137908991	 1.5446534538	-0.0308715259	-0.074854
O	 1.3756545608	 1.9575498328	-0.0115197616	-0.257523
C	 2.172937151	 0.8132120948	-0.038515251	 0.221937
C	 1.3328853829	-0.2517408268	-0.7380284824	-0.276558
C	 0.0436330465	 0.0147662867	 0.0568641794	-0.017276
N	 0.2332165362	-0.4043410904	 1.4563828196	-0.269524
C	 1.3938667157	-0.2061802915	 1.9269459866	 0.124864
O	 2.4602306569	 0.3641501828	 1.3119189432	-0.23882
H	-0.5311846216	 1.9950535249	 0.8194939507	 0.125221
H	-0.4765796662	 1.8884541813	-0.9645269032	 0.105129
H	 3.14470646	 1.0599180612	-0.4639064203	 0.102063
H	 1.2248756335	-0.0177195899	-1.8004755723	 0.114641
H	 1.7215171502	-1.2637259796	-0.6174611519	 0.123013
H	-0.8493599183	-0.4654447309	-0.3451065946	 0.087146
H	 1.6495223416	-0.5045439591	 2.9414138337	 0.130542
173.0649	331.8342	423.6412	433.0704	499.9712	617.9952	715.6103	774.7114	829.8559	848.6121	904.1755	922.9555	932.529	945.0282	972.0943	989.416	1059.0569	1090.6072	1118.2289	1144.7184	1175.7977	1217.4991	1246.2115	1304.1498	1319.0814	1346.327	1369.0884	1392.1526	1400.8409	1482.2746	1515.3531	1708.5772	3027.0185	3071.3051	3103.8998	3106.3586	3136.2768	3137.6047	3167.7027
C1OC2CC1N=CO2	C1O[C@@H]2C[C@H]1N=CO2	
InChI=1S/C5H7NO2/c1-4-2-7-5(1)8-3-6-4/h3-5H,1-2H2	InChI=1S/C5H7NO2/c1-4-2-7-5(1)8-3-6-4/h3-5H,1-2H2/t4-,5+/m1/s1
