17
gdb 50936	2.63596	1.0022	0.78475	2.9606	69.87	-0.259	-0.0461	0.2129	1409.8975	0.132074	-458.945675	-458.936045	-458.9351	-458.982343	32.329	
O	 0.0707884073	-0.0185535186	 0.2291734066	-0.235728
C	 0.0255670078	 1.1582877347	-0.0190257202	 0.15237
C	 1.2494109589	 2.0483861392	-0.1046023469	-0.297592
C	 1.29310696	 2.9179083081	-1.3903430538	-0.12545
C	 0.1890984128	 3.9641511553	-1.3358913433	 0.141555
O	-0.8068995419	 3.935732332	-2.0121234822	-0.25072
C	 2.6703342249	 3.5500934119	-1.5196798969	 0.074954
C	 2.9049968662	 4.886608304	-2.0782008574	-0.191115
O	 2.9565819357	 4.6580649278	-0.6652015759	-0.232034
H	-0.9460467021	 1.6690476784	-0.1990931479	 0.097498
H	 1.2531454968	 2.7136705828	 0.7711902214	 0.142912
H	 2.1379305553	 1.4137085425	-0.0384396878	 0.132081
H	 1.1106099844	 2.2884191903	-2.268667408	 0.114704
H	 0.361367246	 4.7663300218	-0.5863121214	 0.108772
H	 3.4814448625	 2.8227448586	-1.5883365863	 0.107545
H	 3.8599527726	 5.1137970176	-2.548040519	 0.129676
H	 2.064835923	 5.4871421236	-2.4247316411	 0.130572
47.2673	53.1191	60.6489	83.1295	169.0212	219.9701	266.3241	345.2846	389.4776	437.8869	530.6571	599.6323	786.0034	797.1205	876.8509	909.1227	951.4072	983.8437	1027.2377	1061.2436	1094.2638	1112.5393	1135.4276	1163.3728	1175.8054	1207.8664	1269.9115	1284.8865	1324.6984	1339.4016	1408.9119	1430.4633	1438.5163	1461.8525	1534.2192	1828.1331	1834.6061	2895.5338	2907.641	3017.1233	3057.2496	3088.4873	3093.0321	3097.0779	3177.4001
O=CCC(C=O)C1CO1	O=CC[C@@H](C=O)[C@H]1CO1	
InChI=1S/C6H8O3/c7-2-1-5(3-8)6-4-9-6/h2-3,5-6H,1,4H2	InChI=1S/C6H8O3/c7-2-1-5(3-8)6-4-9-6/h2-3,5-6H,1,4H2/t5-,6+/m0/s1
