21
gdb 98216	2.67462	1.14938	0.85023	3.9768	82.43	-0.2503	-0.0093	0.241	1417.4364	0.180852	-420.444942	-420.434446	-420.433502	-420.480954	37.726	
C	 0.6244881436	 1.9055034445	 1.7909014646	-0.381938
C	 1.0626590909	 0.5006511152	 2.2068845777	-0.222103
C	 0.8572448792	-0.5322628806	 1.117649014	 0.365058
N	 0.6211782414	-0.140597984	-0.0708979214	-0.493466
N	 0.8532457642	-1.9162233232	 1.4925398081	-0.150933
C	 0.1580498057	-2.8263946049	 0.5831271061	-0.367296
C	 1.6173655763	-2.4149065126	 2.5508938549	 0.399211
C	 1.5249016958	-3.9097437642	 2.8298012091	-0.504053
O	 2.3361777139	-1.7126359375	 3.2312308657	-0.342383
H	-0.4371140116	 1.9340633017	 1.5302522098	 0.116596
H	 0.7974410523	 2.6031998234	 2.6161077866	 0.102619
H	 1.1819070554	 2.2507316642	 0.9182000044	 0.134846
H	 2.1167040501	 0.4933335528	 2.4938561642	 0.149229
H	 0.5295836305	 0.1746533644	 3.1063481701	 0.111237
H	 0.5202761973	-0.9074396241	-0.7330606357	 0.213736
H	 0.7809892507	-3.1333555874	-0.2672601046	 0.135545
H	-0.1593738178	-3.7219658678	 1.1120617436	 0.142469
H	-0.7357550825	-2.3318607388	 0.1969975796	 0.150779
H	 1.8334718111	-4.5113502384	 1.9697189161	 0.142341
H	 2.1920071884	-4.1142551323	 3.6662285176	 0.153098
H	 0.5086965951	-4.2121867004	 3.1025367494	 0.145407
47.5829	67.4461	101.8298	183.2577	201.6872	212.7306	238.5838	253.6087	307.7458	370.1534	426.7146	439.0914	535.1942	585.4303	602.2455	611.6479	722.5788	807.1211	880.0577	895.0004	982.3743	1017.5565	1041.5721	1051.6704	1092.516	1115.4049	1144.189	1160.8898	1210.3455	1279.5592	1290.1019	1350.0868	1393.262	1395.5514	1412.2868	1454.5304	1457.1778	1474.9416	1489.959	1490.2323	1500.898	1503.3004	1523.1143	1703.5011	1782.1219	3018.9464	3045.9446	3047.4423	3060.3584	3100.2905	3106.3783	3110.8258	3117.1657	3136.754	3162.3814	3171.2662	3500.2115
CCC(=N)N(C)C(C)=O	CCC(=N)N(C)C(=O)C	
InChI=1S/C6H12N2O/c1-4-6(7)8(3)5(2)9/h7H,4H2,1-3H3	InChI=1S/C6H12N2O/c1-4-6(7)8(3)5(2)9/h7H,4H2,1-3H3
