19
gdb 74059	2.59192	1.35482	1.10009	3.5703	79.48	-0.2363	-0.0475	0.1888	1184.1142	0.15754	-423.078247	-423.069013	-423.068069	-423.112037	34.799	
C	-0.102406785	 1.4471355067	 0.0610674526	-0.486736
C	-0.0085946249	-0.0401380775	-0.0121741585	 0.3187
C	-0.0524614688	-0.8002003644	-1.1226033544	-0.289048
C	 0.1105253222	-2.2136699216	-0.7715646316	 0.351065
O	 0.3028230023	-3.1712418281	-1.4918893969	-0.369446
C	 0.0589800706	-2.3304666961	 0.7704960641	 0.304141
C	-1.2642414155	-2.9824995617	 1.1926813867	-0.430618
O	 1.1619744983	-3.103657787	 1.2143653763	-0.47818
C	 0.1824938118	-0.8698207709	 1.2412328304	-0.351724
H	 0.7964010526	 1.8673555944	 0.5291085398	 0.143773
H	-0.2267321283	 1.900881629	-0.9246556179	 0.135808
H	-0.9471535291	 1.7475072125	 0.6936709361	 0.141089
H	-0.141264736	-0.4438542982	-2.1414970015	 0.112494
H	-1.3655155641	-3.959753902	 0.7108771779	 0.12836
H	-1.274461479	-3.1220619842	 2.277524779	 0.124088
H	-2.1252099018	-2.3686718789	 0.906515364	 0.113094
H	 1.2726654703	-3.7998483558	 0.5512514911	 0.286216
H	 1.1796702639	-0.7028843552	 1.6647000089	 0.137111
H	-0.5435037194	-0.600606841	 2.0172933638	 0.109813
62.1452	135.7536	170.2662	230.5599	259.9111	280.187	295.3291	344.9446	396.2439	431.6958	452.5453	546.3125	552.0868	635.2909	731.2318	748.5238	870.7492	879.2757	911.8378	928.877	975.8959	1015.14	1026.4824	1114.825	1120.8636	1155.203	1157.4541	1215.1219	1234.8613	1321.4498	1342.4012	1392.9129	1394.5405	1409.7623	1464.4203	1475.6277	1477.4382	1487.2323	1494.1521	1668.1278	1801.0655	3024.0041	3032.0266	3036.598	3071.8754	3074.9102	3106.9835	3117.9766	3125.0753	3211.6398	3742.0952
CC1=CC(=O)C(C)(O)C1	CC1=CC(=O)[C@@](C)(O)C1	
InChI=1S/C7H10O2/c1-5-3-6(8)7(2,9)4-5/h3,9H,4H2,1-2H3	InChI=1S/C7H10O2/c1-5-3-6(8)7(2,9)4-5/h3,9H,4H2,1-2H3/t7-/m0/s1
