20
gdb 98865	4.09695	0.99776	0.8185	3.0028	85.34	-0.2047	0.0031	0.2078	1429.0012	0.171307	-403.199902	-403.19057	-403.189626	-403.235018	33.457	
C	-0.0319546582	 1.5595621366	 0.0364856437	-0.374694
C	 0.0136787874	 0.0337502485	-0.0242672947	-0.309142
C	 0.7298977827	-0.4669052236	-1.2770694404	 0.412226
O	 1.1978242918	 0.2869155172	-2.1153517437	-0.376994
N	 0.8301590744	-1.8245092575	-1.4292661997	-0.101655
C	 1.5034919516	-2.4104433734	-2.6060502129	-0.15761
C	 1.395380916	-3.9459474737	-2.3900171886	-0.284136
C	 0.6512788439	-4.0633541114	-1.0780232917	-0.160669
C	 0.3674939518	-2.8521108636	-0.5981977582	 0.012565
H	 0.9766396025	 1.9790703618	 0.0381282882	 0.133226
H	-0.5503662303	 1.9679850588	-0.8339228639	 0.133436
H	-0.5505773149	 1.8908783794	 0.9407116584	 0.1041
H	 0.5201168104	-0.3720077973	 0.8609418364	 0.120484
H	-1.0016297518	-0.3829315432	-0.0053278537	 0.120584
H	 1.0065797723	-2.0691522553	-3.5175999303	 0.13082
H	 2.5359153159	-2.0547501974	-2.6497422314	 0.130803
H	 0.8576343042	-4.4328065259	-3.2119778791	 0.116927
H	 2.3836745274	-4.4182681857	-2.3451414627	 0.116922
H	 0.3906223174	-4.9981748376	-0.6038341305	 0.103867
H	-0.1529017144	-2.6007332968	 0.3137327247	 0.12894
47.621	79.1877	117.1073	135.0234	167.3602	208.9547	298.0653	367.373	464.8033	537.3579	575.4476	685.2142	725.3486	771.815	818.1795	829.2688	854.6844	925.3443	931.0924	948.0642	1000.7406	1035.7713	1065.659	1097.0775	1101.4304	1141.6305	1203.562	1247.824	1248.1802	1289.0022	1310.0505	1322.2077	1331.6284	1402.3972	1413.9915	1447.4106	1470.3442	1490.2206	1494.9998	1498.6723	1521.1651	1685.4968	1750.984	3022.2459	3028.8528	3050.9006	3052.9952	3054.5396	3067.3401	3103.9662	3124.2732	3134.4212	3235.9385	3261.6323
CCC(=O)N1CCC=C1	CCC(=O)N1CCC=C1	
InChI=1S/C7H11NO/c1-2-7(9)8-5-3-4-6-8/h3,5H,2,4,6H2,1H3	InChI=1S/C7H11NO/c1-2-7(9)8-5-3-4-6-8/h3,5H,2,4,6H2,1H3
