15
gdb 127949	3.97699	1.21365	0.93538	3.1367	76.89	-0.2461	-0.0755	0.1706	1194.2267	0.113784	-446.283649	-446.275301	-446.274357	-446.317401	29.769	
C	-0.3179493354	 1.4407839335	 0.1265858561	-0.34608
N	-0.0308063618	 0.0314288767	-0.0682424268	-0.332035
C	 0.7128569978	-0.5684909212	 0.7644104381	 0.537512
N	 1.3199710376	-0.0215102508	 1.8986957121	-0.315451
N	 2.1142292001	-0.6724667681	 2.7836655773	-0.024454
N	 2.367512004	-1.8909040817	 2.6227306464	-0.238299
C	 1.8267233393	-2.6092807837	 1.5108831393	 0.46397
N	 2.0670035703	-3.8424393855	 1.3245392574	-0.525244
N	 1.0224587376	-1.9040099455	 0.6349407387	-0.401298
H	 0.5867892481	 2.0684846822	 0.1022677038	 0.116561
H	-0.9682142478	 1.7842088888	-0.6808462456	 0.140334
H	-0.8435834551	 1.6428448744	 1.0731763987	 0.116557
H	 1.1844076226	 0.9493679412	 2.124665174	 0.286568
H	 2.6738187629	-4.17501171	 2.0729970367	 0.240216
H	 0.6304038098	-2.3931208003	-0.1570737963	 0.281145
67.8489	77.5539	113.633	206.5439	234.8876	374.1365	393.0444	498.6151	539.2392	560.8661	601.7647	627.2988	708.4926	752.7656	758.7434	872.0065	919.6164	1024.8291	1060.5174	1076.5778	1114.8749	1140.2313	1171.0872	1317.747	1390.0831	1416.5882	1439.6367	1457.3938	1502.8059	1511.1798	1599.8106	1739.9987	1778.9584	2967.0248	3013.3695	3108.765	3508.7806	3620.7101	3677.3748
CN=C1NN=NC(=N)N1	CN=c1[nH]nnc([NH])[nH]1	
InChI=1S/C3H6N6/c1-5-3-6-2(4)7-9-8-3/h1H3,(H3,4,5,6,7,8)	InChI=1S/C3H9N6/c1-5-3-6-2(4)7-9-8-3/h2,4,7,9H,1H3,(H2,5,6,8)
