15
gdb 7312	3.49143	1.45993	1.07389	6.7774	59.64	-0.2619	-0.0006	0.2612	1050.1789	0.116785	-436.990372	-436.981576	-436.980632	-437.024518	30.617	
C	-0.1665190696	 1.7714642242	-0.1140990024	-0.429427
C	 0.1204595864	 0.2781525349	-0.0134442542	 0.006892
O	 0.9168319818	 0.082362573	 1.15109349	-0.180539
C	 1.6644308288	-1.0473628753	 1.2216431224	 0.188643
O	 2.2895761971	-1.3272597464	 2.1976835285	-0.278384
C	-1.1059749674	-0.6616651037	 0.0728131279	 0.406717
N	-2.2623915159	-0.203757533	-0.478019647	-0.523668
O	-0.9930963332	-1.7708355415	 0.5529885235	-0.347726
H	 0.7752772049	 2.3239248349	-0.0862717076	 0.148791
H	-0.665701496	 2.0152335756	-1.0568819188	 0.12246
H	-0.7844006186	 2.1109732925	 0.7218162017	 0.144838
H	 0.6824706351	-0.0462538812	-0.9023592426	 0.116273
H	 1.6525563397	-1.6325551705	 0.2869301726	 0.08942
H	-2.3982223968	 0.7601312204	-0.7242082284	 0.265392
H	-3.0745181363	-0.796116854	-0.4052073155	 0.270318
33.0589	90.3078	179.6397	230.5878	238.9666	273.721	301.2463	349.975	385.348	468.9782	546.3284	590.1151	634.4847	743.7177	809.5172	949.1032	1023.2437	1049.2252	1082.1619	1128.0481	1145.1719	1191.4842	1321.2761	1348.5225	1369.7138	1412.4631	1438.8447	1495.0257	1500.3091	1621.7125	1802.2428	1870.208	2993.3816	3003.5783	3046.2387	3119.43	3132.9598	3602.9516	3739.5318
CC(OC=O)C(N)=O	C[C@@H](OC=O)C(=O)N	
InChI=1S/C4H7NO3/c1-3(4(5)7)8-2-6/h2-3H,1H3,(H2,5,7)	InChI=1S/C4H7NO3/c1-3(4(5)7)8-2-6/h2-3H,1H3,(H2,5,7)/t3-/m1/s1
