18
gdb 83125	2.06831	1.85076	1.45788	2.7365	72.83	-0.2489	0.0171	0.266	1002.8061	0.148077	-439.091076	-439.082698	-439.081754	-439.123664	32.077	
C	 0.0211549785	 1.5370014774	-0.0024199741	-0.478014
C	 0.0637329056	 0.0309073733	 0.0267421723	 0.185497
C	-0.8298638032	-0.7793978255	 0.9570627152	 0.097659
O	-1.5910830339	-1.8808205556	 0.5748725142	-0.428547
C	 0.6554802801	-0.8324894048	 1.1494356696	-0.176401
C	 1.3358435057	-1.9956283289	 0.458350158	-0.126762
O	 0.9082999466	-1.9450215714	-0.9210474779	-0.265935
C	 0.4122711207	-0.6936131763	-1.2256381659	 0.351108
N	 0.2591526999	-0.255860226	-2.3989775331	-0.543972
H	 1.0009705703	 1.9572445317	-0.2510965266	 0.126151
H	-0.6875227669	 1.8772665949	-0.7623779029	 0.150526
H	-0.2875095052	 1.939103517	 0.9669311716	 0.113046
H	-1.3896392777	-0.1819003548	 1.669162563	 0.115365
H	-1.1672859499	-2.3148721145	-0.1753572032	 0.30069
H	 1.1261087583	-0.3974423804	 2.0235761985	 0.101941
H	 2.4275417141	-1.9122681209	 0.4960861856	 0.123161
H	 1.0401820569	-2.97205691	 0.8545773699	 0.128865
H	 0.6046330099	-0.9284910854	-3.0851244342	 0.225622
122.2292	174.3717	182.2367	215.6352	241.7354	266.3839	345.647	439.6991	456.7474	548.0397	590.8747	683.9199	710.2723	765.7593	827.3429	850.9218	891.8958	917.5241	961.4013	973.7672	1024.8016	1048.9632	1080.7831	1093.0987	1124.2168	1160.8753	1214.6995	1226.1836	1247.9034	1315.4494	1339.4536	1364.7312	1414.1329	1421.0608	1467.4031	1483.7437	1498.1344	1519.3625	1775.3039	3039.6662	3040.8497	3087.0346	3105.6404	3120.5031	3169.3774	3181.3738	3479.7419	3787.5697
CC12C(O)C1COC2=N	C[C@]12[C@@H](O)[C@H]1CO[C]2[NH]	
InChI=1S/C6H9NO2/c1-6-3(4(6)8)2-9-5(6)7/h3-4,7-8H,2H2,1H3	InChI=1S/C6H9NO2/c1-6-3(4(6)8)2-9-5(6)7/h3-4,7-8H,2H2,1H3/t3-,4+,6-/m1/s1
