16
gdb 79125	4.027	1.35253	1.15238	3.1356	68.94	-0.2245	-0.0178	0.2068	1033.9745	0.125251	-437.831006	-437.824102	-437.823158	-437.862193	27.609	
O	 0.0003691279	 1.4439288061	-0.1150875168	-0.432427
C	 0.0201164126	 0.0503434991	-0.012944479	 0.138116
C	-0.0491527756	-0.6169750988	 1.3835783646	-0.086749
C	-1.5181068202	-0.0941579053	 1.5705092363	-0.146659
C	-1.3566109994	-0.6139973831	 0.096416644	-0.059909
N	-0.6513279661	-1.8397448574	 0.6868742608	-0.142444
C	-1.5997148983	-2.4383110104	 1.6479009429	-0.289003
C	-2.236987064	-1.2011087319	 2.3006865429	 0.404166
O	-3.0761029664	-1.1385056437	 3.1595543711	-0.324285
H	 0.9077667922	 1.7629849055	-0.1125597558	 0.293468
H	 0.7094932177	-0.4315253251	-0.7150432392	 0.090775
H	 0.7206736496	-0.7229954941	 2.1509371512	 0.089957
H	-1.7483056162	 0.9410960062	 1.804225118	 0.104545
H	-2.1351454106	-0.7128541591	-0.6620461447	 0.095465
H	-2.3401587145	-3.058818336	 1.1334565558	 0.132844
H	-1.0757121286	-3.0628128019	 2.3780867178	 0.13214
147.4353	202.4697	256.1651	276.2068	431.5601	448.1911	527.0096	604.6053	631.8236	706.615	714.9252	802.8677	828.0484	850.3494	911.9403	929.2383	941.3821	1017.6702	1047.4223	1081.2928	1090.6027	1118.7712	1147.076	1162.9	1169.027	1190.9583	1221.9882	1225.0116	1232.4469	1283.4678	1286.6996	1309.5831	1442.1953	1464.1142	1864.2675	3052.032	3055.5971	3094.4487	3102.5207	3105.5398	3171.9108	3830.3904
OC1C2C3C1N2CC3=O	O[C@H]1[C@H]2[C@H]3[C@@H]1N2CC3=O	
InChI=1S/C6H7NO2/c8-2-1-7-4-3(2)5(7)6(4)9/h3-6,9H,1H2	InChI=1S/C6H7NO2/c8-2-1-7-4-3(2)5(7)6(4)9/h3-6,9H,1H2/t3-,4+,5-,6-
