17
gdb 54015	2.17161	1.59544	0.97144	1.98	72.85	-0.2672	-0.0342	0.233	1193.8915	0.133524	-455.20422	-455.194508	-455.193564	-455.239499	34.038	
C	 0.2788607936	 1.6484030082	-0.0230484819	-0.47429
C	 0.1375693576	 0.1566318584	 0.158231832	 0.423844
O	 0.2848623035	-0.3662911657	 1.23857187	-0.326035
N	-0.1163363552	-0.6644802977	-0.9919577787	-0.200593
C	-0.0017643012	-2.0525082414	-0.7717116792	 0.095589
N	-0.4055961634	-2.9219897324	-1.6012937459	-0.46247
C	-0.5306490362	-0.1017569149	-2.2456359758	 0.406992
C	-0.1959015483	-0.8550816782	-3.5093959312	-0.461839
O	-1.0939573109	 0.9652450611	-2.2678835822	-0.314166
H	 0.8552882397	 1.9102140823	-0.9120449599	 0.143755
H	-0.7030006118	 2.1102375876	-0.1371744687	 0.176185
H	 0.7659794856	 2.0264972435	 0.8762224877	 0.140391
H	 0.4467878436	-2.2495715267	 0.200383461	 0.152101
H	-0.210246451	-3.8543228606	-1.2403640082	 0.238849
H	-0.9278630711	-1.6469247451	-3.6756363219	 0.182146
H	-0.2338588107	-0.1344685469	-4.3275738136	 0.138756
H	 0.7814432862	-1.3378030316	-3.4556679135	 0.140786
50.7334	69.9177	119.559	161.5348	199.9736	223.574	273.4256	303.7939	393.0044	409.3636	462.8845	579.3011	600.9246	619.746	631.5734	718.8293	838.5144	944.905	988.5166	1045.3934	1056.1361	1064.3854	1090.1095	1143.9234	1212.725	1255.7076	1338.8505	1396.3231	1398.6746	1419.8785	1452.1104	1454.8344	1468.6269	1476.0229	1723.1405	1800.737	1809.6958	3068.2352	3070.9248	3147.7881	3148.6938	3150.6754	3161.6187	3164.4453	3500.5322
CC(=O)N(C=N)C(C)=O	CC(=O)N(C=N)C(=O)C	
InChI=1S/C5H8N2O2/c1-4(8)7(3-6)5(2)9/h3,6H,1-2H3	InChI=1S/C5H8N2O2/c1-4(8)7(3-6)5(2)9/h3,6H,1-2H3
