18
gdb 36342	5.34398	0.79559	0.75883	1.5196	78.6	-0.246	0.0476	0.2936	1494.2716	0.146159	-401.857913	-401.849021	-401.848076	-401.892272	32.6	
C	 0.0198667252	-1.1700101389	-0.5346085462	-0.442655
C	-0.0075955186	-0.0331687737	-0.1463380212	 0.302562
C	-0.006142796	 1.3437422147	 0.3362898517	-0.357203
C	 1.3782205087	 1.9730418492	 0.30489675	-0.089435
N	 1.7716327246	 2.6271038137	-0.9571531092	-0.363464
C	 1.5766804432	 3.4347799006	 0.2354748944	 0.271841
C	 0.6044172525	 4.6039704064	 0.3630441663	-0.131515
O	 1.5829505028	 5.3472785263	 1.1268752661	-0.274478
C	 2.5784496759	 4.3136527685	 0.980864043	-0.147265
H	 0.0303511289	-2.1720588375	-0.8853100683	 0.196598
H	-0.6810123015	 1.9537059996	-0.2752674181	 0.139243
H	-0.393604243	 1.3731180106	 1.3635117036	 0.132962
H	 2.140826793	 1.4042265351	 0.8350814722	 0.09781
H	 2.7603079456	 2.4888562291	-1.1528384717	 0.234723
H	 0.3542127464	 5.0944190721	-0.5857140954	 0.113079
H	-0.3136293707	 4.4260957734	 0.9369783787	 0.105991
H	 2.9363384348	 3.9409849637	 1.9491842065	 0.107993
H	 3.4384046482	 4.6492347572	 0.3835895576	 0.103213
51.1275	87.081	112.404	184.9808	221.1912	336.3092	349.5132	411.3259	433.5856	500.7746	607.3175	619.1158	643.3591	828.5549	841.2855	881.5285	931.0203	950.4015	962.6387	983.1633	1021.9506	1026.8509	1030.9696	1091.2691	1129.6754	1147.6206	1158.9834	1184.261	1257.2061	1273.2296	1302.7802	1319.6215	1332.631	1386.5073	1457.448	1503.0799	1503.1012	1528.8757	2240.9083	2993.8919	3015.6775	3020.8185	3042.3371	3060.4953	3064.7041	3120.5872	3497.3044	3507.0894
C#CCC1NC11COC1	C#CC[C@H]1NC21COC2	
InChI=1S/C7H9NO/c1-2-3-6-7(8-6)4-9-5-7/h1,6,8H,3-5H2	InChI=1S/C7H9NO/c1-2-3-6-7(8-6)4-9-5-7/h1,6,8H,3-5H2/t6-/m1/s1
