16
gdb 34811	4.26129	1.30568	1.23501	5.1394	71.86	-0.2687	0.0246	0.2934	1018.5718	0.126441	-400.702058	-400.695424	-400.69448	-400.733001	26.867	
N	 0.0386786045	-1.1964813159	 0.0148006749	-0.322201
C	 0.0134832829	-0.0410562792	 0.0120062167	 0.279088
C	-0.0667197088	 1.4082588813	-0.0420642015	-0.187772
C	-0.0760962749	 2.0878080301	 1.3617043744	 0.06215
O	 1.361367075	 1.7946223786	 1.437153282	-0.292203
C	 1.3230484262	 2.1145681299	 0.003934698	 0.062159
C	 1.0148243131	 3.6230973538	 0.0232031152	-0.049183
C	-0.3711001489	 4.1190090012	-0.3022967123	-0.306588
C	-0.0773631838	 3.6022086249	 1.0830918275	-0.049183
H	-0.800851733	 1.7005638816	-0.7928044001	 0.118403
H	-0.6531938537	 1.6945053555	 2.1959411813	 0.106546
H	 2.1817044151	 1.7487206828	-0.5551241156	 0.10655
H	 1.8502001402	 4.3107251394	 0.0585947468	 0.112028
H	-0.4669795662	 5.1980030604	-0.3798329896	 0.123402
H	-1.0248720707	 3.5914688104	-0.9863895051	 0.124776
H	-0.080445707	 4.2738007654	 1.9321453374	 0.112027
153.1564	154.7235	330.3652	360.2017	442.7144	527.6255	533.1213	610.5033	667.8723	786.3255	804.8342	826.2704	859.8976	863.1786	904.3093	915.1278	944.2971	993.1777	1021.6517	1037.7311	1072.2481	1090.0714	1095.1048	1097.2456	1156.6632	1190.5396	1195.6036	1249.7042	1255.5679	1285.9328	1309.0989	1353.123	1388.8176	1506.3385	2362.8404	3111.1399	3135.2159	3151.2488	3153.2149	3192.5502	3198.2449	3213.4134
N#CC1C2OC1C1CC21	N#C[C@H]1[C@H]2O[C@@H]1[C@H]1C[C@@H]21	
InChI=1S/C7H7NO/c8-2-5-6-3-1-4(3)7(5)9-6/h3-7H,1H2	InChI=1S/C7H7NO/c8-2-5-6-3-1-4(3)7(5)9-6/h3-7H,1H2/t3-,4+,5+,6+,7-
