17
gdb 24642	4.40389	1.15304	0.98475	0.9788	83.02	-0.2426	-0.0425	0.2001	1199.4315	0.138862	-380.906703	-380.899475	-380.898531	-380.938887	27.77	
C	-0.236924786	 1.2951133957	-0.3439455511	-0.267814
C	 1.1632893924	 1.1758696995	 0.1731325293	-0.267822
C	 0.2816382765	-0.0590514493	 0.1076948485	-0.079051
C	-0.2276132018	-0.7165199965	 1.3349787608	 0.338093
N	-0.3281323716	-2.0524929856	 1.2984982384	-0.310086
C	-0.7852325945	-2.655992357	 2.3968739404	-0.018306
C	-1.1459340901	-1.9480968122	 3.5372002848	-0.017793
N	-1.0516057531	-0.6161292757	 3.5895408657	-0.235038
C	-0.596015221	-0.0144881776	 2.4948426827	-0.072687
H	-0.9784001186	 1.7806837848	 0.2812455224	 0.123143
H	-0.388811879	 1.438349086	-1.4077949408	 0.123268
H	 1.9854018542	 1.2361462705	-0.5310412406	 0.123266
H	 1.3871069194	 1.5792612125	 1.1547684638	 0.123143
H	 0.5082392965	-0.7772487857	-0.6715590867	 0.103256
H	-0.8654612589	-3.7399816929	 2.3637325913	 0.113122
H	-1.5164500237	-2.4561534781	 4.423221813	 0.11389
H	-0.5196404404	 1.0693930414	 2.5383678281	 0.107417
65.657	142.9975	185.1833	312.087	398.1935	427.3697	553.0815	559.0541	641.999	774.2754	787.2979	809.5799	829.329	860.2395	920.8633	934.4654	966.0407	990.7677	1027.2117	1052.4438	1060.8309	1080.0477	1084.3568	1139.9856	1197.0398	1203.2838	1219.4531	1238.8343	1261.0525	1332.0464	1402.9389	1438.821	1472.3146	1498.3645	1515.9113	1576.4062	1616.3902	3135.0069	3137.5601	3150.887	3152.6964	3174.7514	3182.0714	3214.3913	3229.8255
C1CC1C1=NC=CN=C1	C1CC1c1nccnc1	
InChI=1S/C7H8N2/c1-2-6(1)7-5-8-3-4-9-7/h3-6H,1-2H2	InChI=1S/C7H8N2/c1-2-6(1)7-5-8-3-4-9-7/h3-6H,1-2H2
