18
gdb 124842	3.36179	1.38831	1.25957	5.3661	78.06	-0.247	0.015	0.2619	1066.6246	0.148329	-398.105886	-398.097855	-398.09691	-398.138316	30.621	
C	-0.2653623581	 1.6240620307	-0.2166768589	-0.428077
C	-0.0471418295	 0.1241323691	-0.0808124324	 0.303506
C	-1.2945654365	-0.6238707709	 0.366734795	-0.428035
C	 0.7689097445	-0.5568500744	-1.264722528	-0.439211
C	 1.865883828	-0.7918179938	-0.2349080474	 0.308902
C	 3.041808198	-1.1734783331	 0.3738047738	-0.210778
N	 2.9473309108	-0.7901615053	 1.6862923975	-0.185263
N	 1.7959896984	-0.1997736183	 1.9298341225	-0.197357
N	 1.1624936112	-0.2149987708	 0.7468199185	 0.082593
H	 0.6542684044	 2.1303949133	-0.5214723967	 0.134594
H	-1.038214006	 1.8234395509	-0.9656412992	 0.128361
H	-0.5942797575	 2.0529186659	 0.7345941382	 0.142344
H	-2.096071027	-0.4868934455	-0.3659449612	 0.12835
H	-1.096698486	-1.6939109015	 0.47094433	 0.134601
H	-1.6458957123	-0.2442356112	 1.3308213156	 0.142354
H	 0.3033471628	-1.4570964645	-1.6716714047	 0.13091
H	 1.02595788	 0.1212073264	-2.081398188	 0.130865
H	 3.9197889948	-1.6726259471	 0.0005617553	 0.121341
83.8374	172.2074	217.5012	226.8763	287.1519	323.8998	336.4178	432.2205	505.9659	617.1374	688.6204	694.2074	701.929	828.5807	835.8946	913.2723	958.6183	963.5815	1003.6323	1022.6819	1071.2314	1094.5925	1109.6792	1149.0053	1189.5798	1213.7122	1251.2227	1271.6729	1272.7562	1321.263	1405.4382	1421.2324	1471.0651	1476.8908	1483.6442	1496.2586	1504.3796	1506.9328	1543.2905	3039.7612	3044.2606	3072.2909	3112.4235	3118.0356	3120.923	3124.0192	3125.777	3283.2149
CC1(C)CC2=CN=NN12	CC1(C)Cc2cnnn12	
InChI=1S/C6H9N3/c1-6(2)3-5-4-7-8-9(5)6/h4H,3H2,1-2H3	InChI=1S/C6H9N3/c1-6(2)3-5-4-7-8-9(5)6/h4H,3H2,1-2H3
