18
gdb 94225	3.40584	1.07603	0.98056	2.0931	72.06	-0.2618	0.0133	0.2752	1242.9691	0.145598	-439.082871	-439.073439	-439.072495	-439.117636	34.022	
C	-0.2077080512	 1.4854813681	 0.0276273465	-0.397288
C	 0.0677006282	-0.0047923957	 0.0058684524	 0.098785
O	 1.1850581318	-0.361960304	-0.8474090864	-0.289755
C	 1.999150927	-0.7473886429	 0.2769053681	-0.126078
C	 0.7919884333	-0.6133371086	 1.2370189746	 0.330209
O	 0.9085130168	 0.2788551708	 2.3111464152	-0.470114
C	 0.182121611	-1.9577917048	 1.6854811851	-0.389292
C	 1.0088780051	-2.5828527615	 2.7153818164	 0.239732
N	 1.700749152	-3.0108695945	 3.5368327372	-0.30219
H	 0.6677101384	 2.0444741975	 0.3639700149	 0.134221
H	-0.4760085403	 1.8176649286	-0.9796126243	 0.126747
H	-1.0394700514	 1.711863498	 0.701925635	 0.124437
H	-0.8335409135	-0.5550743184	-0.2972962595	 0.07737
H	 2.4374138377	-1.7444614244	 0.15353527	 0.109671
H	 2.7929113929	-0.0205030307	 0.4878547567	 0.11
H	 1.4659002352	-0.121060057	 2.990389292	 0.298594
H	-0.8199843753	-1.7817729496	 2.0917720783	 0.161023
H	 0.0852544825	-2.635310981	 0.8310808279	 0.163929
51.2099	77.2567	115.1363	205.4964	223.5015	276.0449	325.0785	342.2748	399.0898	404.505	438.7872	480.702	565.9832	711.3428	813.1194	877.5435	889.2074	911.313	956.4198	999.3398	1019.8038	1056.8657	1089.469	1127.7879	1145.7178	1159.6468	1217.7492	1271.4687	1292.1955	1299.5107	1347.6577	1373.3567	1406.5664	1407.5637	1456.227	1484.4253	1487.656	1516.6022	2355.7782	3007.2903	3020.4005	3046.9008	3051.1011	3070.8784	3098.6752	3116.5178	3138.3754	3780.4188
CC1OCC1(O)CC#N	C[C@H]1OC[C@]1(O)CC#N	
InChI=1S/C6H9NO2/c1-5-6(8,2-3-7)4-9-5/h5,8H,2,4H2,1H3	InChI=1S/C6H9NO2/c1-5-6(8,2-3-7)4-9-5/h5,8H,2,4H2,1H3/t5-,6-/m1/s1
