17
gdb 106567	2.02548	1.61166	1.17555	1.2017	64.23	-0.2569	0.0488	0.3057	1091.2724	0.134321	-496.016538	-496.007893	-496.006949	-496.049811	32.756	
O	-0.0543992041	 1.3513713177	-0.084388263	-0.416057
C	-0.0260894092	-0.0596913388	 0.0421831225	-0.203403
C	-1.4076005542	-0.625979519	 0.153561327	 0.273773
O	-2.3333929774	-0.3191964191	-0.988236129	-0.385754
C	-3.1556005994	-1.1165141203	-0.0337245165	-0.041792
C	-1.9498499571	-2.0910900006	 0.111440403	 0.136531
O	-1.6075096344	-2.8814933351	-0.9758431264	-0.447496
C	-2.588250053	-0.2385979799	 1.0936597531	 0.100834
O	-2.6619308273	-0.7513197602	 2.3923156765	-0.432155
H	-0.6717130342	 1.5518195458	-0.7977465246	 0.29564
H	 0.4973199275	-0.5388956758	-0.8002249097	 0.105556
H	 0.5376639569	-0.2905321939	 0.9529508103	 0.12018
H	-4.1900344546	-1.3115870818	-0.3154531486	 0.101419
H	-1.8816921234	-2.6791105601	 1.025088935	 0.112946
H	-1.7115354947	-2.312051403	-1.75171994	 0.287507
H	-2.874219586	 0.8136634759	 1.0081710377	 0.095393
H	-2.2164871055	-0.1387507218	 2.9858191527	 0.296878
77.295	141.0218	204.0217	222.2435	259.3671	277.984	346.4496	389.3625	428.7079	497.8097	580.6044	604.4108	654.4196	718.2781	762.8643	830.3878	855.4476	907.8665	944.728	988.503	1051.6989	1083.1715	1109.8244	1146.9054	1157.5803	1178.5821	1207.6186	1217.1962	1240.3345	1284.8092	1304.7332	1329.1088	1371.5285	1421.1021	1433.6506	1463.9463	1492.0508	2985.512	3071.0754	3077.4558	3127.9539	3145.2446	3743.8452	3797.2019	3826.3962
OCC12OC(C1O)C2O	OC[C@@]12O[C@@H]([C@H]1O)[C@H]2O	
InChI=1S/C5H8O4/c6-1-5-3(7)2(9-5)4(5)8/h2-4,6-8H,1H2	InChI=1S/C5H8O4/c6-1-5-3(7)2(9-5)4(5)8/h2-4,6-8H,1H2/t2-,3-,4-,5+/m1/s1
