19
gdb 110424	4.56612	1.05	0.96588	1.599	75.1	-0.2408	0.0752	0.316	1239.0999	0.158976	-422.959903	-422.951637	-422.950693	-422.992506	32.446	
O	-0.1200618739	 1.3949833308	 0.2364783865	-0.425942
C	-0.0587641487	 0.0109828713	-0.0877539755	-0.09822
C	-1.4586837566	-0.5573179308	 0.0473778113	 0.013701
C	-1.5065524318	-2.0836312759	 0.0586699642	-0.158647
C	-1.4113682776	-2.1397633353	 1.5757882052	-0.132084
C	-1.9527086848	-0.650970406	 1.5222891887	-0.054683
C	-3.396314232	-1.2197854627	 1.4092949039	-0.309853
C	-2.7146747669	-2.4983361965	 0.9286706677	 0.385972
O	-3.2502954063	-3.7679492344	 0.8618350948	-0.464411
H	 0.7661664985	 1.7603989654	 0.1633920577	 0.285725
H	 0.3069633057	-0.1389811636	-1.1168233513	 0.080623
H	 0.6250105744	-0.5290989363	 0.5865274186	 0.085816
H	-2.130008357	-0.0303330179	-0.6428143608	 0.064454
H	-1.0894584089	-2.7890836195	-0.6507600597	 0.079862
H	-0.762643361	-2.6845305651	 2.245196574	 0.093609
H	-1.7168204964	 0.1426554172	 2.2258339989	 0.083888
H	-3.8528425497	-1.3708660423	 2.3915450018	 0.102187
H	-4.0961039471	-0.6963833219	 0.7462189156	 0.083515
H	-3.7181734799	-3.8568295765	 0.0240225283	 0.284488
98.6772	146.2821	208.2975	254.7517	281.2896	327.2759	359.2455	410.5716	464.9491	515.1655	625.7403	749.378	782.1296	794.2501	832.0192	868.2517	921.3861	930.0975	952.1462	990.6425	1017.9917	1022.922	1051.0381	1069.3908	1094.3749	1120.1057	1129.9699	1158.4946	1183.4482	1209.9837	1228.8287	1243.465	1260.6622	1281.5892	1298.7325	1309.8621	1375.6738	1438.8199	1458.9823	1504.5027	1518.3126	2962.3187	2990.7196	3022.6412	3030.3745	3097.021	3157.157	3181.2629	3229.8777	3789.9022	3831.6115
OCC1C2C3C1CC23O	OC[C@H]1[C@H]2[C@H]3[C@@H]1C[C@@]23O	
InChI=1S/C7H10O2/c8-2-4-3-1-7(9)5(3)6(4)7/h3-6,8-9H,1-2H2	InChI=1S/C7H10O2/c8-2-4-3-1-7(9)5(3)6(4)7/h3-6,8-9H,1-2H2/t3-,4-,5-,6+,7+/m1/s1
