19
gdb 109025	3.19935	1.30277	1.03338	3.1863	82.73	-0.2356	-0.0456	0.19	1203.8204	0.159938	-385.920917	-385.912586	-385.911642	-385.954069	31.75	
C	 0.1176642286	 1.5060047976	-0.1706731214	-0.377887
C	-0.0552840765	-0.0046950603	 0.0707852768	-0.290559
C	 0.6465408552	-0.4759454889	 1.3075699439	 0.194554
C	 0.1303158808	-0.9254972056	 2.463739785	-0.188376
C	 1.1785814454	-1.3709574546	 3.4323428632	-0.079316
C	 1.988320249	-2.5623147536	 2.9688279144	-0.276459
C	 2.4895912446	-1.1438048083	 2.7300309182	-0.147166
C	 2.1432528505	-0.5302088171	 1.392629359	 0.348295
O	 2.9228094378	-0.1447704156	 0.549387053	-0.342724
H	 1.1768065825	 1.7562281417	-0.2649291736	 0.147682
H	-0.3919342657	 1.8093356147	-1.0902492862	 0.111361
H	-0.3014616404	 2.0859557182	 0.657790033	 0.112421
H	-1.1197188788	-0.2570016327	 0.1316400268	 0.098281
H	 0.3547967632	-0.5440280454	-0.7921829622	 0.117796
H	-0.9294054472	-1.0248478318	 2.6758594073	 0.109416
H	 1.0524379559	-1.1955610855	 4.4941102637	 0.101519
H	 2.5251648055	-3.1396805519	 3.7149027431	 0.123839
H	 1.6168021597	-3.1348441697	 2.1256799996	 0.126839
H	 3.39211332	-0.8235408512	 3.2336999664	 0.110483
66.4779	122.3255	185.6621	201.1351	258.1911	293.5538	408.8387	474.5613	495.0842	611.7428	659.6313	726.2652	791.6613	804.8879	829.7247	836.1142	898.682	925.3233	949.4757	951.5056	993.5594	1038.3259	1069.4087	1083.4584	1092.3278	1098.1313	1136.4798	1184.8073	1223.6018	1275.2158	1320.3264	1341.7058	1353.1966	1357.8167	1402.7412	1476.3437	1480.4544	1496.3387	1512.2076	1678.0459	1800.6138	3027.3583	3040.8415	3068.3416	3107.83	3127.2408	3133.5505	3179.0277	3188.5407	3205.2795	3220.728
CCC1=CC2CC2C1=O	CCC1=C[C@H]2C[C@H]2C1=O	
InChI=1S/C8H10O/c1-2-5-3-6-4-7(6)8(5)9/h3,6-7H,2,4H2,1H3	InChI=1S/C8H10O/c1-2-5-3-6-4-7(6)8(5)9/h3,6-7H,2,4H2,1H3/t6-,7+/m0/s1
