19
gdb 71102	2.74075	1.45674	1.27077	3.2233	81.69	-0.2404	-0.0204	0.22	1079.5077	0.158825	-385.861808	-385.853636	-385.852692	-385.894484	31.392	
C	 0.134008791	 1.6062659236	-0.0651553454	-0.504879
C	-0.0110220743	 0.1093082665	-0.0047768209	 0.23696
C	 0.286029509	-0.7870305465	-1.2449801462	-0.267484
C	-0.6594533095	-1.8149071897	-0.6263371923	-0.095623
C	-0.4666475216	-1.7732254324	 0.8656887963	-0.095579
C	 0.5980247158	-0.7200036734	 1.1661601018	-0.267498
C	-1.3538773145	-0.7153297688	 0.191707141	 0.238889
C	-2.7752873596	-0.4543464203	 0.3681700041	-0.011455
O	-3.6184216567	-1.3165889401	 0.5009680733	-0.283734
H	 1.1845800003	 1.8852728724	-0.2088459002	 0.12415
H	-0.4386541629	 2.0319700491	-0.8963505556	 0.121422
H	-0.2114237356	 2.0807900882	 0.8598067732	 0.121422
H	-0.1340574786	-0.3615836584	-2.1604770257	 0.104388
H	 1.3300958215	-1.0757772358	-1.4147336188	 0.093488
H	-1.1736790331	-2.6362613275	-1.1073697968	 0.11215
H	-0.8360389224	-2.5631613016	 1.5059993332	 0.112153
H	 1.6529067928	-1.0065901577	 1.0802650055	 0.093521
H	 0.4217299426	-0.2421295802	 2.1337126128	 0.104369
H	-3.0560388343	 0.6234960224	 0.3746325506	 0.063341
99.4619	130.9589	168.7198	221.6253	269.2415	305.1671	389.0774	471.524	529.9568	599.4619	693.4875	712.0085	782.3525	829.127	843.0091	890.0644	904.5271	945.3588	983.216	1003.0647	1005.5277	1034.0281	1051.4868	1094.7703	1122.3446	1125.2324	1158.2016	1209.7389	1220.5981	1244.2735	1256.4984	1304.5513	1344.1701	1398.9846	1417.6104	1442.9562	1486.7661	1490.6952	1495.4972	1509.1704	1775.2728	2864.1321	3023.7891	3027.6781	3035.0583	3088.7344	3093.3136	3097.9827	3099.8738	3208.2182	3217.7707
CC12CC3C(C1)C23C=O	C[C@@]12C[C@H]3[C@@H](C1)[C@@]23C=O	
InChI=1S/C8H10O/c1-7-2-5-6(3-7)8(5,7)4-9/h4-6H,2-3H2,1H3	InChI=1S/C8H10O/c1-7-2-5-6(3-7)8(5,7)4-9/h4-6H,2-3H2,1H3/t5-,6+,7+,8-
