18
gdb 69895	2.95634	1.52393	1.15708	2.7092	77.74	-0.2303	-0.0282	0.2021	1073.3843	0.14623	-401.878664	-401.870522	-401.869578	-401.911024	31.649	
C	 0.0594446533	 1.5105328604	 0.1879671679	-0.488794
C	-0.1276049914	 0.0339478546	 0.0047189351	 0.272427
C	-0.9002798767	-0.8262207124	 0.9224945447	-0.298235
N	 0.5778666872	-0.9592748879	 0.9017451999	-0.178321
C	 1.0185792893	-1.6976340337	-0.3296517951	-0.012208
C	 0.0064565983	-2.1712106021	-1.2953452717	-0.352769
C	 0.3306290067	-0.6868148322	-1.2882603875	 0.160286
C	 0.9645181203	-0.0615540603	-2.4516781401	 0.057802
O	 1.4459570896	-0.6750928337	-3.3810990424	-0.287323
H	 1.0621064835	 1.8250499317	-0.1215367346	 0.13141
H	-0.6702477948	 2.0749772122	-0.4042621576	 0.128076
H	-0.0681857263	 1.7796519756	 1.2397054056	 0.133645
H	-1.2373018694	-0.3671421599	 1.8474193747	 0.128774
H	-1.5399181337	-1.6297566828	 0.5782398758	 0.122704
H	 2.0571467384	-2.000440254	-0.366328293	 0.130569
H	 0.4347799411	-2.6556050587	-2.1672852117	 0.156379
H	-0.9748545786	-2.5334247955	-1.0152096824	 0.126069
H	 0.9934168132	 1.0495301388	-2.4319267476	 0.069508
115.4222	166.5049	186.0246	230.3682	282.2828	323.1958	396.2098	474.366	478.1458	535.7151	598.4329	702.3913	714.5925	762.5465	836.2992	860.6878	913.03	944.7514	952.207	1001.5493	1033.2399	1053.3729	1074.5679	1085.6542	1106.4584	1111.1	1134.1034	1168.659	1265.6842	1307.1045	1330.6849	1381.6006	1418.9264	1441.7036	1471.2559	1482.8041	1494.1777	1524.6623	1778.0437	2891.3404	3029.8063	3091.3186	3118.4214	3129.2279	3144.1025	3202.0246	3214.5721	3228.005
CC12CN1C1CC21C=O	C[C@]12CN1[C@H]1C[C@@]21C=O	
InChI=1S/C7H9NO/c1-6-3-8(6)5-2-7(5,6)4-9/h4-5H,2-3H2,1H3	InChI=1S/C7H9NO/c1-6-3-8(6)5-2-7(5,6)4-9/h4-5H,2-3H2,1H3/t5-,6+,7-,8?/m0/s1
