15
gdb 81120	2.62811	1.73482	1.28275	4.7662	70.78	-0.254	-0.0222	0.2318	968.8102	0.114279	-416.767642	-416.760588	-416.759644	-416.798976	28.163	
O	 0.2121002114	 1.3250317016	-0.1762797147	-0.426321
C	 0.1016246696	-0.0363062294	-0.0502044364	 0.188953
C	 0.025248217	-0.6356625153	 1.4191845056	-0.128289
N	-1.3853836729	-0.1137241292	 1.4126301747	-0.356267
C	-1.3939239971	-0.6477645102	 0.0068773957	 0.1443
C	-1.0542823778	-2.1330113169	 0.1471682026	-0.133151
C	-0.1090464779	-2.1194233991	 1.0953029785	-0.096244
C	-2.4468974878	-0.225466099	-0.8888025249	 0.160126
N	-3.276855263	 0.1151932374	-1.6173819797	-0.333033
H	-0.4089963292	 1.7114829923	 0.459154302	 0.298851
H	 0.7814705491	-0.518506496	-0.7517284876	 0.111606
H	 0.6856711125	-0.2990008609	 2.2161941616	 0.090697
H	-2.0087707896	-0.641047729	 2.0265017112	 0.220599
H	-1.4515685245	-2.9357345164	-0.4553993786	 0.133552
H	 0.4897976501	-2.9287033599	 1.4865351198	 0.124623
129.1362	166.7668	278.0244	326.2695	472.5427	490.9063	522.6341	552.2644	558.2642	602.2406	648.2003	706.3765	735.2032	849.0392	874.3284	894.1562	908.3013	940.1453	980.9939	1017.1809	1069.2589	1083.7703	1166.2237	1182.7828	1193.3606	1247.1439	1266.3198	1306.9564	1315.3834	1320.586	1436.3143	1601.641	2359.5368	3138.3574	3144.5359	3236.3636	3262.8286	3443.4392	3734.8386
OC1C2NC1(C=C2)C#N	O[C@H]1[C@H]2N[C@@]1(C=C2)C#N	
InChI=1S/C6H6N2O/c7-3-6-2-1-4(8-6)5(6)9/h1-2,4-5,8-9H	InChI=1S/C6H6N2O/c7-3-6-2-1-4(8-6)5(6)9/h1-2,4-5,8-9H/t4-,5-,6-/m0/s1
