25
gdb 101825	3.00049	0.68572	0.5843	1.8873	86.71	-0.2488	0.0759	0.3247	1992.742	0.225257	-426.627262	-426.615333	-426.614388	-426.665302	42.513	
C	 0.1209881664	 1.423265291	 0.1041094925	-0.232383
O	-0.0622617695	 0.0397377386	-0.0716043159	-0.243973
C	 0.6589917837	-0.5310614843	-1.1607034391	 0.133454
C	 2.1465503504	-0.6906642721	-0.8337904701	-0.401875
C	-0.0031384126	-1.8719809228	-1.4752300623	-0.18345
C	-1.4731725825	-1.7497246873	-1.8833636007	-0.193227
C	-2.1113144421	-3.0954295056	-2.2469929198	 0.132445
C	-3.5975919336	-2.9646495779	-2.5804699663	-0.401732
O	-1.4036764143	-3.7442366142	-3.3057711594	-0.430385
H	 1.1467235525	 1.6842888679	 0.4035380059	 0.104658
H	-0.1213397083	 1.9862105047	-0.8116311863	 0.099875
H	-0.5590732419	 1.7401170845	 0.8994241551	 0.124068
H	 0.5547194659	 0.1326826851	-2.0381638428	 0.055443
H	 2.2744833923	-1.3398350273	 0.0383275923	 0.122426
H	 2.6775138805	-1.1386459017	-1.6796051948	 0.115008
H	 2.6208646088	 0.2708446499	-0.6174041977	 0.112588
H	 0.5547812236	-2.3700317357	-2.2747199896	 0.103859
H	 0.079812512	-2.5125083827	-0.5871680133	 0.098805
H	-2.0391181728	-1.2834611808	-1.0702854432	 0.111038
H	-1.563924574	-1.0749311853	-2.7493713604	 0.072857
H	-1.9976513417	-3.779047584	-1.3956268357	 0.087009
H	-3.7472802922	-2.2794555664	-3.4249062458	 0.102957
H	-4.0140318045	-3.9381419951	-2.8534192346	 0.121245
H	-4.1617103885	-2.5691378333	-1.7296846145	 0.116173
H	-1.5184222577	-3.2078920552	-4.0985561533	 0.273117
40.1503	70.1513	75.2198	122.9683	150.16	197.6446	222.5623	239.3291	249.5283	291.329	296.4589	309.8308	409.2317	453.5226	463.0089	507.3056	540.6969	759.0989	832.0437	848.2593	916.6339	931.9451	946.8837	1010.3224	1044.4969	1062.0112	1103.4829	1117.1392	1121.8616	1151.9795	1177.3751	1181.3864	1193.7624	1242.5986	1268.1098	1300.8999	1338.4265	1339.2156	1377.3436	1386.8349	1398.082	1402.8729	1406.8073	1420.5921	1471.6141	1477.7075	1482.4209	1487.6119	1493.6881	1494.8325	1496.8887	1505.5196	1513.5869	2936.741	2973.0094	2986.2121	3020.7673	3021.3385	3025.5171	3033.4101	3040.161	3071.9813	3088.6202	3094.6852	3105.386	3111.3813	3114.3582	3117.4518	3791.8316
COC(C)CCC(C)O	CO[C@@H](C)CC[C@@H](C)O	
InChI=1S/C7H16O2/c1-6(8)4-5-7(2)9-3/h6-8H,4-5H2,1-3H3	InChI=1S/C7H16O2/c1-6(8)4-5-7(2)9-3/h6-8H,4-5H2,1-3H3/t6-,7+/m1/s1
