14
gdb 27380	2.10295	1.88715	0.99548	4.0138	70.23	-0.2121	-0.001	0.2111	1099.502	0.103013	-470.051933	-470.044367	-470.043423	-470.083909	29.129	
N	 0.1397644874	 1.3306862886	 0.1647758386	-0.575496
C	-0.0469755082	-0.0257956833	 0.0540268578	 0.422577
C	-1.1962643401	-0.7195442957	 0.0189119297	-0.248914
C	-1.1726278254	-2.1735432865	-0.0072197056	 0.336215
N	-2.2496175599	-2.8623519657	-0.0298558942	-0.544534
N	 0.1149632008	-2.7699139848	-0.0144153851	-0.443841
C	 1.1332466738	-2.0135894355	 0.0058056679	 0.491476
O	 2.3862404459	-2.4680298187	-0.0076688764	-0.385263
O	 1.1745061906	-0.6624495514	 0.0425433344	-0.227019
H	 1.0016457573	 1.6709682406	-0.2373433586	 0.266428
H	-0.6649938855	 1.8897954054	-0.07367189	 0.269111
H	-2.1509939822	-0.2123378312	 0.0175014737	 0.108576
H	-2.0057581513	-3.8540488885	-0.0505507348	 0.209792
H	 2.3166903266	-3.4323993533	-0.0330316375	 0.320894
134.3067	175.725	205.154	294.1621	342.1114	366.1042	504.5194	547.2581	548.4037	567.8962	577.4457	651.4485	672.7941	695.7162	755.407	836.4279	896.7188	927.5352	959.0338	1023.9641	1125.4166	1148.9543	1247.3553	1276.6687	1322.2312	1431.1532	1452.45	1626.714	1679.8334	1712.042	1768.5137	3231.1925	3466.7461	3573.1841	3684.2857	3788.6379
NC1=CC(=N)N=C(O)O1	N[C@@H]1C=C([NH])N=C(O)O1	
InChI=1S/C4H5N3O2/c5-2-1-3(6)9-4(8)7-2/h1H,6H2,(H2,5,7,8)	InChI=1S/C4H6N3O2/c5-2-1-3(6)9-4(8)7-2/h1,3,5H,6H2,(H,7,8)/t3-/m0/s1
