16
gdb 79422	2.79025	1.66754	1.28861	0.5818	71.11	-0.2194	-0.0387	0.1807	980.017	0.123784	-437.727063	-437.719569	-437.718624	-437.759141	28.912	
O	 0.3187812822	 1.3491749264	 0.417529673	-0.402824
C	 0.0460018102	 0.0117530958	 0.0990192301	-0.054896
C	-1.4349766561	-0.4717493131	-0.0731249063	 0.016398
N	-2.7973116675	 0.1711410267	-0.5414468876	-0.172168
C	-1.9062648768	 0.9650453751	-1.5050904398	-0.188216
C	-1.271130789	-0.4579565432	-1.5849180195	 0.068614
C	-2.7669299487	-0.9308069109	-1.642112106	-0.253479
C	 0.2718797806	-0.4486823458	-1.4441976694	 0.281357
O	 1.2467562208	-0.7069740197	-2.0750005664	-0.280035
H	 1.2673905193	 1.491085532	 0.3170998594	 0.30053
H	 0.5780516278	-0.6782456564	 0.7718596198	 0.104704
H	-1.6065355079	-1.4186932602	 0.4425542342	 0.089378
H	-2.4235598527	 1.3102536573	-2.4037713391	 0.105135
H	-1.3473782214	 1.7651274153	-1.0245551321	 0.149025
H	-2.9801782823	-1.9354744887	-1.2708955569	 0.118352
H	-3.3776220286	-0.6709849104	-2.5096854234	 0.118126
75.6521	186.8756	220.1529	277.3695	283.7893	381.5445	510.3544	546.0327	576.6644	633.5101	700.3449	778.5691	815.0938	827.448	872.7432	902.5283	935.4515	985.4675	1002.8077	1031.9489	1068.482	1105.2561	1138.2611	1165.6907	1168.812	1179.1067	1195.9318	1204.8026	1266.6438	1276.4555	1357.2082	1407.6706	1504.3741	1547.9702	1887.6867	2984.9656	3063.121	3070.8538	3088.3939	3141.5167	3172.6075	3794.7566
OC1C2N3CC2(C3)C1=O	O[C@H]1[C@H]2N3C[C@@]2(C3)C1=O	
InChI=1S/C6H7NO2/c8-3-4-6(5(3)9)1-7(4)2-6/h3-4,8H,1-2H2	InChI=1S/C6H7NO2/c8-3-4-6(5(3)9)1-7(4)2-6/h3-4,8H,1-2H2/t3-,4+/m0/s1
