17
gdb 34606	3.81993	1.18295	1.00654	3.1875	80.24	-0.2434	-0.0431	0.2003	1166.3864	0.138246	-380.871485	-380.863928	-380.862984	-380.903763	28.958	
N	 0.2168314169	-0.91633407	 0.7773006549	-0.334113
C	 0.0967853572	 0.1685382011	 0.3891056018	 0.214509
C	-0.0092065465	 1.5041885941	-0.1075316957	 0.150649
C	-1.1261209334	 2.2182749135	 0.0863548932	-0.134402
C	-1.2959367438	 3.6158286147	-0.4361457702	-0.209523
N	-0.0779447334	 4.3342461552	-0.8071065845	-0.095641
C	 0.9791839204	 4.4132148457	 0.2028711946	-0.249927
C	 1.1521160736	 3.5624520819	-1.0060821795	-0.012706
C	 1.1690275304	 2.0473716607	-0.8861511469	-0.321526
H	-1.9623959293	 1.7788129	 0.6221926542	 0.120236
H	-1.9445122938	 3.5785052679	-1.3244913587	 0.134584
H	-1.8386208754	 4.2220539969	 0.2999782744	 0.127408
H	 1.4785026285	 5.3750018239	 0.2791439359	 0.121178
H	 0.8247363344	 3.9019297906	 1.1513975814	 0.118289
H	 1.7729442584	 3.9431208956	-1.8145727693	 0.098417
H	 2.1073032063	 1.7188966623	-0.4240592781	 0.13593
H	 1.1598519295	 1.6032350558	-1.8903792276	 0.136637
73.4937	162.4096	187.9786	300.7373	349.6427	387.4355	431.2141	545.1139	568.3709	593.3163	669.6355	741.5209	795.2496	852.9123	869.9378	929.9144	960.3854	983.1678	1022.1505	1072.9743	1081.1385	1117.5249	1136.4531	1155.3792	1175.4378	1245.5582	1271.6844	1319.5699	1325.1493	1357.1958	1382.1692	1415.6977	1468.8854	1479.9768	1509.2593	1700.4801	2336.1691	2997.4109	3022.3315	3044.8747	3057.7828	3099.6251	3123.2883	3176.2027	3186.23
N#CC1=CCN2CC2C1	N#CC1=CCN2C[C@H]2C1	
InChI=1S/C7H8N2/c8-4-6-1-2-9-5-7(9)3-6/h1,7H,2-3,5H2	InChI=1S/C7H8N2/c8-4-6-1-2-9-5-7(9)3-6/h1,7H,2-3,5H2/t7-,9?/m1/s1
