18
gdb 66186	3.40209	1.20291	1.17421	0.3541	71.58	-0.2527	0.0154	0.2681	1118.7709	0.147744	-439.074181	-439.06587	-439.064926	-439.107842	30.717	
C	 0.0750790307	 1.4491990785	 0.2877181441	-0.455469
C	-0.0181453704	-0.0712665235	 0.1415035599	 0.262513
C	 0.6713631685	-0.5805372441	-1.1660127049	-0.152636
O	 1.7812562203	-1.3858369679	-0.6995716506	-0.219625
C	 1.6781909294	-1.3873329167	 0.6479149163	 0.11388
N	 0.757222528	-0.7324364931	 1.2207251241	-0.296355
C	-1.4503202702	-0.5873443632	 0.2072869337	 0.064076
C	-2.5782507941	 0.1386026256	 0.7956198113	-0.183174
O	-2.4114512586	 0.0654917238	-0.6257473922	-0.246535
H	 1.0978774652	 1.7832206601	 0.0928628658	 0.118834
H	-0.5977855127	 1.9406469574	-0.4210580874	 0.13555
H	-0.1859662227	 1.7532947076	 1.3039487445	 0.131978
H	 0.0228404328	-1.2134527704	-1.7780817125	 0.127876
H	 1.0702467815	 0.2265772641	-1.7849547033	 0.123351
H	 2.4363932944	-1.9770867236	 1.151985262	 0.142906
H	-1.5116312482	-1.6772474291	 0.1855126924	 0.094063
H	-3.4213305103	-0.4236393332	 1.1937367057	 0.119042
H	-2.4312626536	 1.1236125177	 1.2306540211	 0.119725
54.7062	63.9304	206.9872	235.7165	272.9361	316.3752	363.6748	389.6965	493.8066	568.9467	654.3066	788.6001	854.7185	862.6204	873.0952	934.065	962.2822	966.8388	970.0763	985.1834	1022.8261	1099.8892	1120.2711	1153.0733	1159.9998	1177.7798	1195.9226	1201.5157	1266.6394	1314.4916	1321.6191	1375.4048	1395.5709	1434.6297	1489.0604	1501.1033	1518.5442	1532.6873	1699.3108	3044.8663	3059.2193	3089.1736	3099.7682	3109.306	3119.633	3130.1862	3188.562	3212.6637
CC1(COC=N1)C1CO1	C[C@]1(COC=N1)[C@H]1CO1	
InChI=1S/C6H9NO2/c1-6(5-2-9-5)3-8-4-7-6/h4-5H,2-3H2,1H3	InChI=1S/C6H9NO2/c1-6(5-2-9-5)3-8-4-7-6/h4-5H,2-3H2,1H3/t5-,6+/m1/s1
