17
gdb 49286	3.06899	1.39188	1.0218	2.5519	77.12	-0.2495	-0.0582	0.1912	1132.2828	0.136311	-421.825126	-421.81744	-421.816496	-421.85755	29.176	
O	-0.117160314	-0.0292404767	 0.0162194388	-0.268584
C	-0.0297540776	 1.1769241708	 0.0360418313	 0.088063
C	 1.2405130635	 1.9207692123	 0.1037864651	 0.211694
C	 1.2387949744	 3.2598944388	 0.0411160636	-0.15803
C	 2.5232864105	 4.0375773076	 0.0793651977	-0.124284
O	 3.5681776324	 3.3620412628	 0.7578855594	-0.258357
C	 3.7514927699	 2.0136763375	 0.4153465612	 0.084441
C	 3.3082834374	 1.0087732708	 1.4418331148	-0.300584
C	 2.5274976787	 1.1833055599	 0.1486855114	-0.151517
H	-0.934799788	 1.8245062417	-0.0130814208	 0.066202
H	 0.3074154997	 3.8136702839	-0.0525566409	 0.110127
H	 2.8180801874	 4.2972819841	-0.953625023	 0.115777
H	 2.3859100568	 4.9830058557	 0.6144908901	 0.128158
H	 4.6572634631	 1.830729038	-0.158506981	 0.095841
H	 3.8783978824	 0.0949510825	 1.5653806886	 0.119844
H	 2.8771750333	 1.4167489809	 2.3487716559	 0.125899
H	 2.6061860599	 0.3702292194	-0.5652933921	 0.115311
89.8014	163.4315	171.1147	225.4872	301.9376	393.5158	408.4971	554.6498	582.0474	609.7649	721.0246	785.6003	804.428	827.1616	848.6637	964.1272	982.3662	1005.2626	1035.5316	1045.2688	1056.5988	1076.0036	1103.5232	1119.1683	1174.9261	1200.2106	1231.9297	1264.7047	1305.681	1362.9379	1398.2863	1421.491	1436.3553	1473.8632	1484.0105	1697.4933	1793.2229	2871.0153	2945.0921	3070.0208	3124.7869	3140.144	3160.6909	3166.8543	3234.8263
O=CC1=CCOC2CC12	O=CC1=CCO[C@H]2C[C@@H]12	
InChI=1S/C7H8O2/c8-4-5-1-2-9-7-3-6(5)7/h1,4,6-7H,2-3H2	InChI=1S/C7H8O2/c8-4-5-1-2-9-7-3-6(5)7/h1,4,6-7H,2-3H2/t6-,7-/m0/s1
