18
gdb 127283	4.69158	1.23463	1.00266	2.0005	81.27	-0.1847	0.0307	0.2154	1185.3593	0.151364	-398.146099	-398.138284	-398.13734	-398.178777	29.416	
C	-0.0693564371	 1.3686393861	 0.1293975562	-0.310897
N	 0.0759627331	-0.0574867888	-0.025695035	 0.045536
C	-0.1084774451	-0.7985617708	-1.157936281	-0.224503
C	 0.0067562526	-2.1158949036	-0.7851201042	 0.198872
C	 0.0394321991	-3.5504171186	-1.2235180076	-0.357765
C	-0.0416172255	-4.2797985886	 0.1597465977	-0.161544
N	 0.4977171857	-3.3135953953	 1.1501269011	-0.393037
C	 0.2677300131	-2.0545099493	 0.5947403249	 0.401729
N	 0.3062666412	-0.8289332121	 1.0861951976	-0.407954
H	 0.7699276351	 1.7647669275	 0.706923729	 0.146587
H	-0.0753196795	 1.8345110791	-0.85827259	 0.131184
H	-1.000388592	 1.62258568	 0.6494549733	 0.135243
H	-0.3074642081	-0.3176886231	-2.1032610811	 0.12586
H	-0.7787073966	-3.858932608	-1.8804047059	 0.110181
H	 0.9782441758	-3.799707852	-1.7347565073	 0.11606
H	-1.0910333728	-4.5262869027	 0.3786946275	 0.099405
H	 0.5352383985	-5.208292907	 0.1759299037	 0.107323
H	 0.1723272027	-3.4475160027	 2.097995441	 0.23772
62.082	129.7412	186.2585	249.3081	293.1959	313.209	507.1354	538.4391	584.8317	606.8497	681.1882	743.0016	784.0942	799.8612	844.4338	876.7148	937.0346	982.4891	1038.6234	1067.9637	1080.2706	1149.2898	1150.2149	1178.7768	1200.7406	1246.6902	1302.8279	1311.9141	1322.8744	1397.4542	1442.4796	1465.8803	1472.7401	1478.7037	1498.1037	1513.0985	1524.0025	1558.0406	1652.3828	2990.4401	3019.3837	3029.9697	3077.7835	3087.1046	3097.0746	3136.1265	3250.5503	3579.8703
CN1C=C2CCNC2=N1	Cn1cc2CCNc2n1	
InChI=1S/C6H9N3/c1-9-4-5-2-3-7-6(5)8-9/h4H,2-3H2,1H3,(H,7,8)	InChI=1S/C6H9N3/c1-9-4-5-2-3-7-6(5)8-9/h4H,2-3H2,1H3,(H,7,8)
