20
gdb 18869	3.03838	2.34284	1.99077	0.1992	76.84	-0.2477	0.0881	0.3358	813.9754	0.180008	-311.855906	-311.849169	-311.848225	-311.886289	27.925	
C	-0.2654556751	 1.5718158043	 0.064319529	-0.421247
C	 0.0530403956	 0.0811585055	-0.0066884571	 0.041743
C	 0.630233577	-0.5556331504	-1.2753559398	-0.082057
C	 2.1460704894	-0.4335029048	-1.3611617611	-0.025195
C	 2.8856018935	 0.6452279883	-0.57272344	-0.23556
C	 2.4570310823	 0.3910842588	 0.9002742761	-0.204969
C	 1.2502335242	-0.5536247352	 0.7927216361	-0.06116
C	 1.5362238029	-1.4531779989	-0.4444679488	-0.083623
H	 0.5892089009	 2.2014210571	-0.1963019676	 0.116805
H	-1.0765837392	 1.8202815416	-0.6298759687	 0.110783
H	-0.5969048577	 1.8566154827	 1.0697719976	 0.10978
H	-0.8509542622	-0.4789566316	 0.2607975216	 0.069204
H	 0.0567144095	-0.8165355325	-2.159005431	 0.072379
H	 2.5670649777	-0.7760155708	-2.3009025533	 0.076436
H	 3.9679176742	 0.5341770263	-0.6974781631	 0.093469
H	 2.6337744566	 1.6552648376	-0.9118569466	 0.098792
H	 3.2636779399	-0.1043693283	 1.4522101752	 0.093298
H	 2.2188910858	 1.3145004042	 1.4376932959	 0.093884
H	 0.9787284111	-1.0368367277	 1.7320457428	 0.058553
H	 1.6880974837	-2.5237428064	-0.4757348873	 0.078685
192.7233	202.7013	240.8958	267.7122	432.6398	523.5619	595.7146	674.0138	740.416	763.4984	785.2403	806.1623	844.5531	885.4769	893.2314	933.6738	952.426	978.4121	1001.0608	1032.2618	1049.3961	1063.766	1083.9147	1105.3243	1116.0514	1144.8804	1162.0712	1220.955	1225.6706	1236.8363	1269.9228	1296.7147	1308.1359	1330.0854	1348.9213	1384.8627	1406.5841	1414.7304	1483.3764	1493.2599	1501.1107	1511.3306	3023.9882	3029.8729	3034.6741	3044.6561	3067.7637	3084.2341	3087.6487	3101.3564	3114.6198	3154.0152	3166.8921	3200.4172
CC1C2C3CCC1C23	C[C@H]1[C@H]2[C@H]3CC[C@@H]1[C@@H]23	
InChI=1S/C8H12/c1-4-5-2-3-6-7(4)8(5)6/h4-8H,2-3H2,1H3	InChI=1S/C8H12/c1-4-5-2-3-6-7(4)8(5)6/h4-8H,2-3H2,1H3/t4-,5+,6-,7+,8-/m1/s1
