19
gdb 115657	2.91861	1.15192	0.96357	2.4633	71.05	-0.2496	0.0597	0.3092	1254.9961	0.158342	-460.108594	-460.099646	-460.098701	-460.143204	32.155	
O	-0.1051492905	 1.4396984218	-0.1116517018	-0.421016
C	-0.0569859889	 0.0705207745	 0.2585529738	-0.102212
C	-1.4324194072	-0.5086205206	-0.0062982901	-0.106653
C	-1.8197845664	-0.6809891827	-1.4873510816	-0.084321
O	-1.9094151151	-2.1175452155	-1.3313679968	-0.308645
C	-1.5880156962	-2.0444543319	 0.0609464983	 0.3485
C	-0.5227847916	-3.015967784	 0.609924101	-0.133247
O	-1.4262857744	-3.4927070656	 1.6265388235	-0.274256
C	-2.5250872984	-2.7473463631	 1.0621430966	-0.128999
H	 0.7679862332	 1.8208553185	 0.0194986312	 0.290748
H	 0.6969164741	-0.476759377	-0.3310222135	 0.091418
H	 0.2046608569	-0.0509160293	 1.3219687378	 0.09616
H	-2.1727815496	 0.0330909875	 0.5878640423	 0.090538
H	-2.7771799794	-0.2435075796	-1.7897285115	 0.107989
H	-1.0482552711	-0.3935799146	-2.2106537248	 0.109196
H	-0.2583960018	-3.7938982737	-0.118439842	 0.110673
H	 0.3925182149	-2.5903897078	 1.0379602357	 0.101287
H	-3.0236024104	-2.115161576	 1.8072491915	 0.102174
H	-3.2636726481	-3.3935243209	 0.5701776505	 0.110665
57.3347	77.7571	113.734	156.3489	246.8895	272.5948	301.7707	354.6028	454.4191	472.9284	527.402	815.2102	829.7986	896.7797	908.1686	925.0764	936.3419	994.0822	1017.3487	1030.1057	1038.3939	1092.94	1100.6834	1148.94	1150.6862	1151.309	1169.4656	1192.8516	1225.8272	1246.7616	1269.8243	1292.853	1297.9329	1339.4324	1375.3687	1382.3918	1462.581	1493.8207	1518.038	1521.0051	1530.8287	2960.8049	2991.6547	3004.8918	3017.0088	3030.1083	3061.0159	3061.0561	3070.8183	3085.8311	3830.4933
OCC1COC11COC1	OC[C@H]1COC21COC2	
InChI=1S/C6H10O3/c7-1-5-2-9-6(5)3-8-4-6/h5,7H,1-4H2	InChI=1S/C6H10O3/c7-1-5-2-9-6(5)3-8-4-6/h5,7H,1-4H2/t5-/m0/s1
