12
gdb 42379	8.59709	0.59265	0.55631	6.9089	81.47	-0.2878	-0.083	0.2048	1800.8247	0.074485	-398.308192	-398.299146	-398.298201	-398.343374	30.595	
O	-0.1815432898	-0.125707879	 0.0014101363	-0.249624
C	-0.1077380536	 1.0771481685	 0.0055915367	 0.256886
C	 1.2279246745	 1.8453439576	-0.0022297063	-0.488978
C	 2.3953824075	 0.988204543	-0.016273772	 0.093265
C	 3.3722550663	 0.2802064824	-0.0280016283	 0.070664
C	 4.4813080462	-0.516196576	-0.0412812575	 0.212559
N	 5.4282177545	-1.1886414649	-0.0525897099	-0.332741
C	-1.2723691728	 1.9396630646	 0.0186636258	 0.235462
C	-2.2248714366	 2.6751262187	 0.0294746317	-0.386098
H	 1.226970823	 2.514984964	-0.8729967259	 0.181109
H	 1.2418387118	 2.506493451	 0.874916346	 0.181144
H	-3.0812224008	 3.3059692401	 0.0392155534	 0.226352
32.6558	61.394	146.91	150.0462	204.5475	236.0628	352.7269	372.4622	436.9514	559.8567	571.2998	586.917	606.7015	668.1515	718.5567	746.1737	829.85	934.6409	1081.7961	1175.9577	1207.2878	1326.4875	1427.9378	1792.049	2214.9937	2273.54	2409.423	3024.076	3055.3114	3490.476
O=C(CC#CC#N)C#C	O=C(CC#CC#N)C#C	
InChI=1S/C7H3NO/c1-2-7(9)5-3-4-6-8/h1H,5H2	InChI=1S/C7H3NO/c1-2-7(9)5-3-4-6-8/h1H,5H2
