19
gdb 116961	7.03549	0.47447	0.4657	0.7936	83.27	-0.2456	0.0371	0.2827	2364.7745	0.156346	-422.954502	-422.944194	-422.94325	-422.992664	34.703	
C	 0.4836200762	 1.3654311117	-0.0111620991	-0.218145
O	 0.5228826223	-0.0410166608	 0.0479461198	-0.228606
C	 0.0966117265	-0.6339741375	-1.1645225889	-0.202543
C	 0.1481549182	-2.0855469578	-1.0617283786	 0.023622
C	 0.1735869234	-3.2869774867	-1.002884388	 0.129942
C	 0.2395589507	-4.7423759018	-0.9267666226	-0.384029
C	 1.4538621638	-5.3203946448	-1.6339493451	 0.109597
C	 1.4312817128	-6.6679213918	-2.2125318382	-0.181413
O	 1.3452364744	-5.5068222075	-3.0422384292	-0.225086
H	 1.1425137749	 1.7619109927	-0.8004825095	 0.104562
H	-0.5358739223	 1.7401341038	-0.1973092499	 0.104181
H	 0.8263294562	 1.739443795	 0.956117586	 0.130266
H	-0.931893667	-0.3127303843	-1.4069857192	 0.113751
H	 0.7336194526	-0.296243702	-2.0010372326	 0.115613
H	 0.265271385	-5.0509361457	 0.1274170268	 0.137041
H	-0.6627290024	-5.186969956	-1.3639570314	 0.136207
H	 2.410584645	-4.9105854768	-1.3091439024	 0.104373
H	 2.3544930263	-7.2392631728	-2.2958424731	 0.117147
H	 0.5215183234	-7.2643566768	-2.1491576548	 0.11352
14.9038	50.7114	68.9732	102.9922	114.7343	231.6702	263.9606	300.6345	321.6915	379.3029	395.4932	478.4003	555.1481	787.2145	818.4413	862.1218	937.9693	959.3401	978.1696	1026.9939	1094.9632	1107.4073	1136.5456	1158.0888	1168.2235	1178.3435	1182.6055	1220.2372	1245.072	1254.7785	1293.34	1320.3514	1411.7713	1438.653	1450.2216	1477.2404	1484.3813	1495.8534	1516.7246	1530.3379	2376.9968	2942.7031	2959.8213	2967.5138	3009.2752	3017.0139	3058.3771	3081.8377	3112.4825	3119.7315	3168.334
COCC#CCC1CO1	COCC#CC[C@H]1CO1	
InChI=1S/C7H10O2/c1-8-5-3-2-4-7-6-9-7/h7H,4-6H2,1H3	InChI=1S/C7H10O2/c1-8-5-3-2-4-7-6-9-7/h7H,4-6H2,1H3/t7-/m0/s1
