14
gdb 132017	2.35438	1.87982	1.0465	4.4066	71.6	-0.2038	-0.0201	0.1837	1045.1258	0.101732	-477.987541	-477.979954	-477.97901	-478.019469	29.095	
N	 0.0877061791	 1.3761696308	 0.1588330692	-0.571173
C	-0.0014305175	 0.0053189685	 0.0531263531	 0.297008
C	-1.1532333338	-0.7033909085	 0.0154480873	 0.112727
F	-2.3007902906	-0.0062428757	 0.0004081297	-0.081435
C	-1.1991876164	-2.1496890239	-0.0092693715	 0.202859
N	-2.3180535479	-2.7850779894	-0.0409156368	-0.552268
C	 0.1524630251	-2.7229243145	-0.0055121104	-0.230127
C	 1.2476385547	-1.9562990472	 0.0146660639	 0.050996
O	 1.216929163	-0.5956798969	 0.0478452099	-0.22546
H	 0.8833319192	 1.7754419183	-0.3202496241	 0.263043
H	-0.781213983	 1.8438603989	-0.0565574193	 0.272434
H	-2.145480117	-3.7916173159	-0.0613808997	 0.204543
H	 0.2667406303	-3.800797227	-0.0268544709	 0.114896
H	 2.2677068746	-2.3164112374	 0.0111424495	 0.141958
120.6258	182.7711	271.2842	284.956	307.8756	339.7437	481.364	493.9685	523.9868	548.0981	587.4089	676.7576	696.0514	719.7716	796.4563	851.3701	866.435	936.0131	985.1463	1031.8271	1137.3713	1223.181	1266.0693	1279.3185	1349.7812	1423.2057	1467.2328	1623.6241	1633.3091	1694.818	1742.642	3197.2291	3234.4912	3452.9596	3559.5902	3668.6371
NC1=C(F)C(=N)C=CO1	N[C@@H]1C(=C([NH])C=CO1)F	
InChI=1S/C5H5FN2O/c6-4-3(7)1-2-9-5(4)8/h1-2,7H,8H2	InChI=1S/C5H6FN2O/c6-4-3(7)1-2-9-5(4)8/h1-2,5,7H,8H2/t5-/m0/s1
