24
gdb 118642	2.78271	0.71124	0.59393	3.7872	90.75	-0.3077	0.0356	0.3433	1987.2695	0.215972	-368.450438	-368.439091	-368.438147	-368.487823	39.982	
C	-0.0037990918	 1.6160412579	 0.0139204484	-0.382644
C	 0.0246431368	 0.0855880755	-0.01493361	-0.184449
C	-1.3778907548	-0.5300895581	 0.0121556679	-0.178331
C	-1.395111965	-2.0758547609	-0.0035292864	-0.149202
C	-2.8243379858	-2.6464657255	 0.1437145462	-0.17833
C	-2.8862092484	-4.1734903813	 0.249848427	-0.184447
C	-4.3170966207	-4.6950863944	 0.4061403937	-0.382646
C	-0.7589620277	-2.5865175811	-1.224242045	 0.291826
N	-0.270983226	-2.9806294206	-2.1957538356	-0.345712
H	 1.0085587572	 2.0304653696	-0.0020581493	 0.118129
H	-0.5414334381	 2.0180752415	-0.851744217	 0.119234
H	-0.5024702458	 1.9888559234	 0.9156441897	 0.113808
H	 0.5543351009	-0.2567331377	-0.9116403458	 0.125321
H	 0.5996997951	-0.287903781	 0.8427996141	 0.096876
H	-1.9058888648	-0.2067156396	 0.917775887	 0.101162
H	-1.9632788903	-0.1613439878	-0.8392902502	 0.112142
H	-0.791130017	-2.4361448954	 0.8411726558	 0.120585
H	-3.2652213178	-2.1955712601	 1.0413879015	 0.101164
H	-3.4297650033	-2.3070974225	-0.7059309869	 0.112143
H	-2.4265342493	-4.6183879744	-0.6404367473	 0.125327
H	-2.2798205342	-4.5010041634	 1.1047859103	 0.096874
H	-4.3336707655	-5.786209363	 0.4839032842	 0.118128
H	-4.7935523719	-4.2894655927	 1.305713564	 0.113805
H	-4.936772372	-4.4133901684	-0.4521743662	 0.119235
68.4513	78.5837	83.4337	106.0547	108.5756	176.6199	246.6723	250.5903	254.5059	258.3199	301.3614	388.3541	431.2872	564.1465	626.4129	743.4053	747.8379	797.9275	868.7532	883.6711	919.6088	934.9229	1016.0577	1027.2231	1053.439	1072.507	1075.653	1129.86	1150.2826	1158.7178	1243.5022	1259.6249	1279.6182	1325.8607	1329.7584	1330.4201	1342.484	1374.918	1388.3532	1404.747	1414.5073	1414.9344	1478.8776	1487.2859	1493.2319	1495.0161	1501.028	1501.1716	1510.3046	1511.4555	2349.9896	3013.1493	3018.053	3019.4649	3025.0198	3029.0725	3031.5014	3033.2428	3052.8223	3056.1764	3072.4314	3077.3533	3098.8984	3099.3952	3106.8495	3106.9587
CCCC(CCC)C#N	CCCC(CCC)C#N	
InChI=1S/C8H15N/c1-3-5-8(7-9)6-4-2/h8H,3-6H2,1-2H3	InChI=1S/C8H15N/c1-3-5-8(7-9)6-4-2/h8H,3-6H2,1-2H3
