21
gdb 118286	2.41057	0.72137	0.57492	2.0058	76.79	-0.2567	-0.0287	0.2281	1891.9414	0.177782	-461.356333	-461.34494	-461.343996	-461.395015	38.369	
C	-0.0884286116	 1.5362919561	-0.0598072424	-0.406176
C	-0.0222946419	 0.0080653613	-0.0226921208	 0.134756
C	 0.7109621197	-0.5622190946	-1.233852298	-0.177082
C	 0.7356018562	-2.0854508121	-1.2687707842	-0.079628
O	 1.3720819998	-2.4739375043	-2.4774854177	-0.421829
O	 0.6680425868	-0.4636347599	 1.1367481308	-0.262184
C	-0.029055983	-0.3537923656	 2.3488119181	-0.151879
C	 0.7299346654	-1.1434425724	 3.4029362713	 0.140731
O	 0.4212387103	-1.1744338175	 4.5640315933	-0.23771
H	 0.920795243	 1.9597527629	-0.0626958978	 0.128033
H	-0.6073617363	 1.8714380868	-0.9629134415	 0.122188
H	-0.6290047519	 1.9405444931	 0.8008217981	 0.118106
H	-1.0500799241	-0.3954796716	 0.0000228001	 0.067223
H	 0.2271323641	-0.1982549985	-2.1469625028	 0.107768
H	 1.7405977556	-0.1865794546	-1.2435546147	 0.113597
H	 1.2716656399	-2.4649970681	-0.3886799377	 0.100345
H	-0.2960120628	-2.474183505	-1.220133338	 0.078077
H	 1.4674441167	-3.4305706836	-2.4717997081	 0.286102
H	-0.1302216253	 0.684764164	 2.6998577198	 0.125772
H	-1.0496687527	-0.7688227002	 2.2754698017	 0.119171
H	 1.6026472921	-1.7012877662	 2.9968397204	 0.094622
45.5902	48.2966	68.1408	81.9223	111.8778	161.1701	181.5381	231.1589	260.7676	311.8649	325.0815	406.3515	469.2103	507.2386	581.5392	739.273	797.3301	861.6181	935.0048	973.7812	1017.549	1046.5238	1064.4114	1112.2803	1113.2712	1128.2067	1164.3125	1180.104	1229.81	1237.5756	1254.3422	1312.7036	1320.5236	1342.1207	1385.2059	1390.3677	1408.1155	1414.4387	1460.7007	1478.4972	1480.3091	1492.5005	1501.3729	1530.4163	1844.6659	2896.445	2946.4019	2957.173	2960.3032	3004.5476	3026.3043	3039.5769	3045.2656	3089.2462	3113.0377	3117.2497	3832.647
CC(CCO)OCC=O	C[C@@H](CCO)OCC=O	
InChI=1S/C6H12O3/c1-6(2-3-7)9-5-4-8/h4,6-7H,2-3,5H2,1H3	InChI=1S/C6H12O3/c1-6(2-3-7)9-5-4-8/h4,6-7H,2-3,5H2,1H3/t6-/m0/s1
