12
gdb 42180	2.19912	1.69906	1.04847	4.4261	66.29	-0.3097	-0.1216	0.1881	1057.7528	0.07676	-431.657681	-431.649501	-431.648557	-431.691152	28.324	
O	 0.1890323225	 0.6927712802	 1.3729233207	-0.28924
C	 0.0033294075	 1.3990020409	 0.4111118206	 0.284535
C	 1.0903707372	 1.7067325472	-0.5231676292	 0.251742
N	 1.9595088248	 1.9214566924	-1.2544054593	-0.297443
C	-1.3496842398	 1.9819828839	 0.1080655415	 0.062689
C	-2.4805692117	 0.9669954844	 0.1503377448	-0.231293
N	-2.3285077491	 1.9364512653	 1.2090647387	-0.306483
C	-1.4197667214	 3.1072353687	-0.7912419244	 0.245744
N	-1.4656666434	 3.9961438042	-1.5275519784	-0.317682
H	-3.3147577364	 1.1309739659	-0.5241018039	 0.168575
H	-2.1882467171	-0.0648934167	 0.3227799332	 0.158876
H	-1.8585380931	 1.5080302235	 2.0083956958	 0.269981
52.6687	112.3139	183.4228	217.793	247.0768	289.2958	329.09	451.2807	504.7326	550.0055	584.5215	670.6587	757.2919	850.432	861.6185	955.6797	1004.7626	1061.318	1122.4218	1152.935	1259.4169	1322.3135	1357.8797	1494.3054	1772.6097	2345.5271	2367.999	3122.7386	3226.0536	3465.7419
O=C(C#N)C1(CN1)C#N	O=C(C#N)[C@]1(CN1)C#N	
InChI=1S/C5H3N3O/c6-1-4(9)5(2-7)3-8-5/h8H,3H2	InChI=1S/C5H3N3O/c6-1-4(9)5(2-7)3-8-5/h8H,3H2/t5-/m1/s1
