23
gdb 122079	2.04956	0.89305	0.65156	0.693	89.33	-0.2602	0.0408	0.301	1810.0467	0.202031	-388.259115	-388.247651	-388.246707	-388.296654	40.534	
C	 0.0259072324	 1.507419447	 0.2142030494	-0.382619
C	-0.0717388002	 0.0164062668	-0.1177835647	-0.182013
C	-1.4669842181	-0.5408251746	 0.1267654591	-0.041033
O	-1.4641964077	-1.918172482	-0.2081435099	-0.246974
C	-2.7168488877	-2.5659258276	-0.0588936834	-0.05591
C	-2.5986327667	-3.9527913617	-0.709319981	-0.182017
C	-2.2986333951	-3.8771896176	-2.2073041029	-0.390053
C	-3.1216109353	-2.6672617379	 1.3514044024	 0.337639
C	-3.4491258879	-2.7623241534	 2.5043617726	-0.465727
H	 1.0366136015	 1.8845271999	 0.0337593014	 0.116923
H	-0.663284563	 2.0995940508	-0.3980799324	 0.115714
H	-0.2173280967	 1.6989740152	 1.2651175909	 0.117912
H	 0.197236507	-0.1585514978	-1.1659519942	 0.103973
H	 0.6409859477	-0.555436336	 0.487297261	 0.108641
H	-1.7578084265	-0.4047596893	 1.1796113947	 0.099516
H	-2.2099761584	-0.0047846861	-0.489172966	 0.081257
H	-3.4903244915	-1.9878678371	-0.5962058136	 0.087363
H	-1.8076298686	-4.5003325045	-0.1857590881	 0.116342
H	-3.5343158448	-4.4921248477	-0.5282255119	 0.107289
H	-2.1951143501	-4.8795313131	-2.6331430973	 0.11149
H	-3.1044307314	-3.3671584026	-2.7474059204	 0.110328
H	-1.3716966501	-3.3281661123	-2.3875027437	 0.135313
H	-3.7409008287	-2.8430648683	 3.522407548	 0.196647
56.2614	59.7934	99.7782	119.4522	144.8148	146.5286	215.6754	228.6776	242.8206	287.1597	353.5357	381.1563	473.7636	536.426	599.0422	625.5116	670.3959	766.467	775.3611	872.272	903.2521	912.8717	958.176	983.6114	1043.1984	1060.8575	1107.0703	1127.2418	1141.7877	1175.9862	1193.0344	1269.263	1286.2885	1316.2371	1316.4479	1332.7472	1360.8898	1382.3381	1406.0219	1413.0501	1439.9358	1477.4596	1492.6102	1495.4254	1500.3931	1507.8749	1510.0567	1526.9818	2228.6855	2938.0897	2954.9356	3004.1852	3031.9142	3037.3223	3038.5347	3048.1771	3071.6586	3085.8184	3100.1177	3104.5228	3108.1116	3130.8655	3502.4401
CCCOC(CC)C#C	CCCO[C@@H](CC)C#C	
InChI=1S/C8H14O/c1-4-7-9-8(5-2)6-3/h2,8H,4,6-7H2,1,3H3	InChI=1S/C8H14O/c1-4-7-9-8(5-2)6-3/h2,8H,4,6-7H2,1,3H3/t8-/m1/s1
