17
gdb 12981	2.70026	2.5979	1.60279	3.6345	68.19	-0.2363	0.0338	0.2701	836.0305	0.143813	-363.904964	-363.897587	-363.896643	-363.936304	28.187	
C	-0.0257857481	 1.5461330489	 0.007993257	-0.480973
C	 0.0663984909	 0.0430641277	 0.0292979483	 0.226698
C	-0.8063997603	-0.8054685707	 0.9361147611	-0.317877
C	 0.684607157	-0.8080391154	 1.1209986989	-0.089407
C	 1.4535010062	-1.9417635491	 0.4486632155	-0.182088
N	 1.0652604076	-1.8154586806	-0.9465052022	-0.32118
C	 0.4122644012	-0.6508935401	-1.2699657069	 0.371045
O	 0.167943682	-0.25822892	-2.391001746	-0.388872
H	 0.9352687384	 2.0024003627	-0.2513339152	 0.123683
H	-0.7541010459	 1.86402181	-0.743908181	 0.143614
H	-0.3376824623	 1.9368847831	 0.9811354863	 0.110043
H	-1.3936559333	-0.2673626835	 1.6729862761	 0.116591
H	-1.2905139817	-1.6874011595	 0.5279547906	 0.121709
H	 1.1087748414	-0.3623302577	 2.0125034267	 0.094998
H	 2.5367566051	-1.811452303	 0.5803182339	 0.109563
H	 1.1832222816	-2.925499983	 0.8531614193	 0.112384
H	 1.4123410405	-2.4188186298	-1.6742469427	 0.250069
123.5433	166.1444	210.6428	258.2001	297.2517	406.3826	473.3217	492.7492	583.4108	689.9054	721.1627	780.0825	827.1564	843.4316	887.848	955.6428	983.3646	1037.4184	1053.8857	1063.6259	1111.2008	1116.7135	1122.4397	1199.7608	1223.8528	1270.2743	1332.8916	1337.0933	1404.2112	1420.3266	1445.3937	1482.7865	1492.8742	1500.8812	1529.2765	1822.0762	3000.9913	3035.9305	3036.7876	3102.0072	3114.4662	3123.1985	3184.8975	3211.345	3649.8235
CC12CC1CNC2=O	C[C@]12C[C@H]1CNC2=O	
InChI=1S/C6H9NO/c1-6-2-4(6)3-7-5(6)8/h4H,2-3H2,1H3,(H,7,8)	InChI=1S/C6H9NO/c1-6-2-4(6)3-7-5(6)8/h4H,2-3H2,1H3,(H,7,8)/t4-,6-/m0/s1
