18
gdb 9280	4.28046	0.92526	0.82864	1.9928	65.48	-0.2617	-0.0332	0.2284	1369.681	0.150092	-422.069889	-422.06018	-422.059236	-422.105681	32.972	
C	-0.0481090269	 1.5204779517	 0.2061146175	-0.400307
C	-0.0375218592	-0.0010634777	 0.0621086427	 0.121272
C	-1.4468502467	-0.5890304696	-0.0373793595	-0.063313
O	-2.1400346839	-0.1047630647	-1.1707258985	-0.418939
O	 0.6101871869	-0.4289994656	-1.1402259826	-0.279307
C	 2.0023714963	-0.2566883487	-1.1920163951	-0.151423
C	 2.5325172119	-1.0406655903	-2.3820341204	 0.142735
O	 3.6733593219	-0.9935445413	-2.7556952981	-0.234307
H	 0.9627371313	 1.9370496128	 0.2125185179	 0.116731
H	-0.6147009196	 1.9686954051	-0.6133961867	 0.138798
H	-0.5267817605	 1.8007410129	 1.1496443672	 0.121723
H	 0.4763028369	-0.4569793822	 0.9249207405	 0.068806
H	-1.3694984942	-1.6868371506	-0.0526808403	 0.092449
H	-2.0317391695	-0.3019372142	 0.8422087803	 0.109507
H	-1.5711632916	-0.2876028193	-1.9275968051	 0.290371
H	 2.3049519817	 0.7951494083	-1.3021504722	 0.130195
H	 2.493406786	-0.6420117265	-0.2816320989	 0.122779
H	 1.7629456891	-1.6754354101	-2.8748698388	 0.09223
51.7787	58.689	93.688	103.6865	172.7829	219.3645	271.6612	309.4099	368.2555	429.6037	468.0658	525.3224	674.135	741.4057	822.9925	917.1953	929.668	1005.3857	1045.5333	1093.0043	1114.475	1130.6966	1140.5083	1171.0531	1234.4581	1249.2008	1329.5527	1355.6446	1378.5795	1387.2228	1410.6418	1413.8265	1432.6944	1480.1304	1490.5059	1498.6592	1501.5786	1846.0939	2894.8681	2964.3742	2967.1713	2993.6329	3015.0586	3047.9182	3083.468	3113.6918	3135.7707	3799.743
CC(CO)OCC=O	C[C@@H](CO)OCC=O	
InChI=1S/C5H10O3/c1-5(4-7)8-3-2-6/h2,5,7H,3-4H2,1H3	InChI=1S/C5H10O3/c1-5(4-7)8-3-2-6/h2,5,7H,3-4H2,1H3/t5-/m0/s1
