21
gdb 105383	2.86579	1.04658	0.8897	3.055	79.97	-0.2463	-0.0224	0.2239	1378.1578	0.179908	-424.219899	-424.209557	-424.208613	-424.255733	37.207	
C	 1.8906889346	 0.124238725	-1.2117960789	-0.417558
C	 1.3469126035	-0.9338507467	-0.2736014816	-0.04878
C	 2.1374985249	-1.4201183106	 0.9163069303	-0.324965
C	 0.8511797157	-0.6499147169	 1.1334280698	 0.331157
C	 0.9383262649	 0.7566740435	 1.7055332933	-0.153382
O	 1.0891786981	 0.7605418157	 3.1204026781	-0.420654
C	-0.3721082706	-1.4265141268	 1.6134811988	-0.356141
C	-0.341007377	-1.711359447	 3.1020225801	 0.163051
O	-1.1668559919	-1.3170939725	 3.8898130151	-0.261964
H	 2.5416173341	 0.8391659009	-0.7021915181	 0.122281
H	 2.4857781672	-0.3452527466	-2.0027026281	 0.122738
H	 1.0854278659	 0.6886422246	-1.6950562046	 0.120152
H	 0.7747596912	-1.7020432419	-0.7895314058	 0.083004
H	 2.1550950185	-2.4827513469	 1.1351055144	 0.108831
H	 3.0667547317	-0.9090687252	 1.1480938885	 0.118894
H	 1.8154870817	 1.2737675521	 1.3081528255	 0.106528
H	 0.0543966211	 1.3379435709	 1.402891891	 0.095044
H	 0.2192265296	 0.6891256469	 3.5254502946	 0.29876
H	-1.3000072303	-0.8888841728	 1.387448329	 0.114081
H	-0.4058624782	-2.3965772404	 1.0993779874	 0.113663
H	 0.5170418353	-2.3348981854	 3.4360598512	 0.085258
59.2457	67.3038	106.9458	157.3827	160.5765	216.9083	241.6667	291.3045	353.4639	380.6496	408.6285	451.8838	501.2749	545.4749	722.8184	798.8872	856.1986	882.5145	922.4	932.9246	967.8649	993.9456	1032.8984	1058.2276	1063.6955	1086.8843	1109.8206	1130.0928	1177.5798	1194.7503	1216.3384	1282.8509	1309.3871	1348.1671	1401.6581	1408.4797	1410.6179	1423.9932	1432.8358	1459.145	1485.7467	1495.5968	1503.5532	1505.4134	1814.732	2894.4234	2993.043	3017.3611	3032.8767	3077.3622	3088.3052	3089.6452	3110.4579	3127.2489	3129.7697	3209.2281	3828.1419
CC1CC1(CO)CC=O	C[C@H]1C[C@]1(CO)CC=O	
InChI=1S/C7H12O2/c1-6-4-7(6,5-9)2-3-8/h3,6,9H,2,4-5H2,1H3	InChI=1S/C7H12O2/c1-6-4-7(6,5-9)2-3-8/h3,6,9H,2,4-5H2,1H3/t6-,7-/m0/s1
