19
gdb 117507	2.16771	1.04006	0.78388	2.2325	78.32	-0.2492	-0.0258	0.2234	1485.1436	0.15494	-423.006269	-422.9954	-422.994456	-423.043295	37.879	
C	-0.0404370459	 1.5071177545	 0.3371914022	-0.478473
C	 0.0986826382	 0.0372866545	 0.0043928283	 0.389886
O	 1.162874633	-0.4858019299	-0.2162612454	-0.293519
C	-1.2240926964	-0.7797198784	-0.0499675244	-0.277331
C	-1.0223229395	-2.1672684218	-0.6907978532	-0.202966
C	-0.7971204304	-2.0971602318	-2.2039364492	-0.073218
O	-0.6452727272	-3.3833680322	-2.7803277864	-0.419235
C	-1.7623144257	-0.8726091548	 1.3048963353	 0.306772
C	-2.1732094298	-0.9593938546	 2.4316001971	-0.442476
H	 0.9446677189	 1.9488091572	 0.4896775433	 0.145586
H	-0.5421297516	 2.0208447403	-0.4919461041	 0.143618
H	-0.6636885519	 1.6442683951	 1.2251399878	 0.156906
H	-1.9337938197	-0.1958960579	-0.6561957895	 0.11433
H	-0.1591354369	-2.6416468135	-0.2127039759	 0.117387
H	-1.8988607049	-2.7895671388	-0.4909829626	 0.115246
H	-1.6757816825	-1.6574341707	-2.6912653865	 0.105738
H	 0.0638601624	-1.4528432425	-2.4294931204	 0.105138
H	 0.1864488122	-3.748771079	-2.4620041698	 0.285041
H	-2.5501115121	-1.0404418357	 3.4211883533	 0.201569
42.6626	73.7645	95.3413	115.4408	128.8142	143.0026	260.0273	288.8924	309.9125	338.4162	405.9213	431.0934	536.948	572.1217	615.9755	629.7225	644.3782	732.2404	815.15	945.0648	964.9563	1000.9059	1050.8351	1066.3763	1078.6689	1109.2827	1160.3131	1192.4205	1252.8546	1298.6449	1321.2257	1349.2724	1381.4688	1406.6518	1421.5023	1463.377	1474.3944	1476.0113	1511.601	1821.3034	2230.3904	2992.0669	3009.7492	3039.747	3055.3173	3059.7186	3108.996	3109.431	3158.6625	3503.4829	3816.1903
CC(=O)C(CCO)C#C	CC(=O)[C@@H](CCO)C#C	
InChI=1S/C7H10O2/c1-3-7(4-5-8)6(2)9/h1,7-8H,4-5H2,2H3	InChI=1S/C7H10O2/c1-3-7(4-5-8)6(2)9/h1,7-8H,4-5H2,2H3/t7-/m1/s1
