14
gdb 56494	2.18364	1.41068	0.88854	5.3832	72.37	-0.2876	-0.0085	0.2791	1219.4991	0.099261	-395.697967	-395.688474	-395.68753	-395.732704	33.134	
N	 0.0292130796	 1.5048410293	 0.0202405484	-0.487731
C	 0.0305153851	 0.0504685681	-0.0215197787	-0.129888
C	 0.6917108343	-0.4978356754	-1.2241439358	 0.267359
N	 1.2265628844	-0.8487407545	-2.1868694546	-0.307114
C	 0.714394973	-0.506897608	 1.2771393489	-0.330051
C	 0.0292704632	-0.0413283915	 2.4805315547	 0.344432
C	-0.5370225585	 0.3188440995	 3.4744187823	-0.404702
C	 0.7693760558	-1.9772344748	 1.2483372398	 0.300635
N	 0.8022486902	-3.1309144928	 1.2231876673	-0.306913
H	 0.9543965957	 1.8704899192	-0.1861060737	 0.250489
H	-0.5999523318	 1.8754007697	-0.6839547033	 0.257354
H	-1.0075771809	-0.2948181282	-0.0135759732	 0.162366
H	 1.7499712676	-0.1396782841	 1.2802728834	 0.168495
H	-1.0351346377	 0.6432717135	 4.3551480143	 0.215271
52.7546	110.7554	131.7148	169.7125	201.2626	227.192	267.2766	341.5173	360.8512	476.0076	483.6135	559.3222	577.7727	604.0841	658.2537	671.837	831.7839	886.9328	946.2842	1001.0065	1055.0943	1129.1857	1174.2867	1272.5215	1309.5112	1333.0678	1395.5765	1666.3622	2253.9774	2350.3131	2370.2591	3022.4796	3081.9961	3501.5916	3505.5344	3588.9417
NC(C#N)C(C#C)C#N	N[C@@H](C#N)[C@@H](C#C)C#N	
InChI=1S/C6H5N3/c1-2-5(3-7)6(9)4-8/h1,5-6H,9H2	InChI=1S/C6H5N3/c1-2-5(3-7)6(9)4-8/h1,5-6H,9H2/t5-,6-/m0/s1
