23
gdb 76336	2.06697	1.45039	1.28512	2.4426	81.51	-0.2408	0.0583	0.2991	1186.3749	0.202797	-425.418485	-425.407753	-425.406809	-425.453401	40.604	
C	-0.9015594241	 0.9494548952	-0.445143258	-0.438332
C	 0.0649291732	-0.1991153303	-0.1980037181	-0.022365
C	 1.3607682567	-0.2637435405	-1.0713292927	 0.059806
O	 1.7291421423	 0.9509705391	-1.6939307776	-0.423671
C	 2.205273632	-0.5161174916	 0.2206577449	 0.298623
C	 2.55264727	-2.0001776657	 0.3714103465	-0.445726
C	 3.4410889248	 0.3589647839	 0.4012181783	-0.431818
C	 0.957456841	-0.1391298126	 1.0849155732	 0.05979
O	 1.1019716654	 1.14473916	 1.6590701248	-0.423657
H	-0.3815903925	 1.9089637464	-0.4032680515	 0.140051
H	-1.3815362521	 0.8601446089	-1.4268056295	 0.105609
H	-1.7047451359	 0.9599323673	 0.3010450205	 0.105612
H	-0.4672362641	-1.1555351369	-0.2422728255	 0.064559
H	 1.3868686969	-1.0898637798	-1.7971944104	 0.048505
H	 1.1137892112	 1.1149557266	-2.4153675264	 0.283143
H	 3.2956346793	-2.3023014331	-0.3749638635	 0.11502
H	 2.9701970088	-2.2018158323	 1.3640721425	 0.115018
H	 1.674056495	-2.643163835	 0.2441449675	 0.107363
H	 3.1984616988	 1.4152926145	 0.2949529907	 0.14103
H	 3.8751479397	 0.2033726556	 1.3946029577	 0.104887
H	 4.2003936064	 0.1030465327	-0.345367042	 0.1049
H	 0.7030803795	-0.8786038846	 1.8585454835	 0.04851
H	 0.2718168275	 1.3748420221	 2.0879243053	 0.283145
50.6461	183.1658	187.6827	221.5497	236.4452	238.9817	248.9297	258.3956	268.8703	297.2945	308.5697	331.9766	482.58	492.1331	516.4024	517.2213	688.283	763.8612	849.9091	879.9645	883.8024	954.3237	964.7519	994.5848	1001.6615	1025.4209	1109.4888	1146.7291	1155.5706	1162.2458	1185.9661	1232.0079	1241.2039	1259.0495	1278.3	1306.9487	1343.4794	1350.1223	1396.7741	1397.8598	1404.7957	1412.9521	1440.8284	1480.0269	1483.664	1498.6814	1499.9873	1503.0352	1508.3339	2978.3124	2980.7173	3021.175	3025.0406	3038.1562	3047.0156	3078.2857	3087.3026	3092.3181	3098.2456	3127.3623	3159.0864	3819.4504	3819.8561
CC1C(O)C(C)(C)C1O	C[C@H]1[C@@H](O)C(C)(C)[C@H]1O	
InChI=1S/C7H14O2/c1-4-5(8)7(2,3)6(4)9/h4-6,8-9H,1-3H3	InChI=1S/C7H14O2/c1-4-5(8)7(2,3)6(4)9/h4-6,8-9H,1-3H3/t4-,5+,6-
