19
gdb 7143	3.52319	0.98982	0.81569	1.6054	69.91	-0.256	0.029	0.285	1419.2649	0.164074	-402.20667	-402.196939	-402.195995	-402.242336	33.574	
C	-0.3724905706	 1.1862002665	-0.8767894626	-0.3907
C	-0.0068764285	-0.1087958067	-0.1761245949	-0.02896
O	 0.7344795187	-0.9112630508	-1.1091618128	-0.24363
C	 1.1451666358	-2.1222543219	-0.6789285135	 0.389187
N	 0.8920473267	-2.5245230999	 0.499303325	-0.530867
C	 1.876350996	-2.8466968104	-1.7856943342	-0.291795
C	 0.9511555711	-3.2113395881	-2.9608579497	-0.058761
O	 1.6343987965	-3.9188816473	-3.9796548329	-0.413458
H	 0.5241873579	 1.7266744143	-1.1936424702	 0.125627
H	-0.98711393	 0.9929327987	-1.7608324415	 0.125449
H	-0.9398349404	 1.829139876	-0.1972897017	 0.121169
H	 0.6086909342	 0.0632553188	 0.7129542876	 0.119633
H	-0.891532548	-0.6656397324	 0.1497214081	 0.119745
H	 1.274220465	-3.4559730954	 0.6466857974	 0.220454
H	 2.6796494492	-2.1982990927	-2.1579233372	 0.111072
H	 2.3354608119	-3.7571563901	-1.3921078194	 0.11429
H	 0.1591489707	-3.8814047394	-2.6108388164	 0.119987
H	 0.4694902624	-2.3016633168	-3.3435147409	 0.108351
H	 2.2566531715	-3.3132039224	-4.3948899201	 0.283207
47.7387	81.5117	88.505	105.5393	189.5207	227.6732	267.2844	305.6656	358.2105	378.7676	441.1898	621.8895	710.5229	790.3911	805.944	861.8243	871.5125	959.3844	1022.2271	1038.1885	1065.7391	1085.6693	1117.1235	1136.7971	1162.4837	1183.9556	1287.5472	1291.1746	1305.3335	1362.2553	1394.5473	1404.8338	1415.4146	1434.5721	1476.1776	1486.0795	1496.3617	1515.3579	1521.1137	1721.3082	3018.2263	3032.0097	3044.4085	3047.9785	3078.6967	3083.7085	3107.4302	3119.2383	3122.2732	3513.2791	3815.6533
CCOC(=N)CCO	CCO[C]([NH])CCO	
InChI=1S/C5H11NO2/c1-2-8-5(6)3-4-7/h6-7H,2-4H2,1H3	InChI=1S/C5H11NO2/c1-2-8-5(6)3-4-7/h6-7H,2-4H2,1H3
