23
gdb 119772	4.35595	0.72689	0.67152	2.1495	89.32	-0.2387	0.0178	0.2565	1769.0751	0.205697	-388.31367	-388.303612	-388.302668	-388.349575	36.985	
C	 0.1148614009	 1.5488972258	 0.1040276524	-0.378442
C	 0.2221567569	 0.0221134354	 0.0991585471	-0.159454
C	 0.4503963881	-0.5514403053	-1.3136612162	-0.295755
C	 0.5558547024	-2.048090176	-1.3511389792	 0.342961
C	-0.3131550095	-2.8973500421	-1.9090325967	-0.230042
C	 0.1414201342	-4.3335007758	-1.8469984133	 0.108527
O	 0.4807399511	-4.8416354084	-3.1413855176	-0.435167
C	 1.3350027943	-4.2790874339	-0.8547027516	-0.241643
C	 1.735582988	-2.7879373348	-0.7468594965	-0.31072
H	 1.0297583672	 2.0117856141	-0.2825548631	 0.114284
H	-0.7169564319	 1.8896975905	-0.5224435218	 0.115536
H	-0.0509771916	 1.9328921454	 1.1153154732	 0.11316
H	 1.0408650418	-0.2892017619	 0.7589314757	 0.100563
H	-0.692006905	-0.4173495239	 0.5164113127	 0.102217
H	-0.3668578912	-0.225254439	-1.9680366707	 0.100063
H	 1.372408971	-0.1113526714	-1.721937746	 0.098177
H	-1.2178312522	-2.6066674521	-2.4334898289	 0.085677
H	-0.638125061	-5.0176475496	-1.4958096654	 0.081837
H	 1.010283385	-4.1657441267	-3.5789648327	 0.270244
H	 1.0152565197	-4.6494413117	 0.1240407142	 0.103121
H	 2.1445497867	-4.9269087938	-1.1993985298	 0.104789
H	 2.6566592995	-2.5505835374	-1.298000848	 0.102531
H	 1.9267031555	-2.4899154373	 0.2900971822	 0.107537
51.1148	78.1603	86.0188	101.1799	207.0206	244.1135	304.9684	311.1869	326.2668	405.9957	493.9852	504.9427	644.8496	744.9064	753.1192	775.8914	853.4889	859.538	878.8674	906.2867	919.2517	964.5861	991.6991	1039.6664	1056.2458	1068.8773	1091.5942	1111.2018	1158.4836	1178.474	1231.068	1250.1031	1269.4452	1287.1866	1293.9439	1309.9645	1326.0189	1334.8046	1363.6957	1381.587	1412.1997	1430.6615	1476.2832	1478.2553	1491.9477	1496.3689	1499.0841	1509.6615	1706.5775	2996.6695	3008.7255	3027.5678	3029.6272	3045.298	3046.6013	3053.5482	3065.2432	3067.9372	3097.4511	3102.5535	3108.472	3183.124	3796.7584
CCCC1=CC(O)CC1	CCCC1=C[C@@H](O)CC1	
InChI=1S/C8H14O/c1-2-3-7-4-5-8(9)6-7/h6,8-9H,2-5H2,1H3	InChI=1S/C8H14O/c1-2-3-7-4-5-8(9)6-7/h6,8-9H,2-5H2,1H3/t8-/m0/s1
