15
gdb 34145	2.92191	1.67921	1.36094	1.5989	71.86	-0.2402	0.0076	0.2478	948.6158	0.112143	-420.518375	-420.511492	-420.510548	-420.549589	27.545	
C	-0.0416352275	-1.1585120841	 0.1142293632	-0.360615
C	-0.0383042807	 0.0436693242	 0.07966233	 0.046559
C	-0.0138319212	 1.4665209829	-0.0042841613	 0.375047
O	-0.6596206371	 2.2959676575	 1.0264027059	-0.343978
C	-0.0890812474	 3.2748096896	 0.1002936623	-0.002596
C	 1.2184005951	 2.4433261504	-0.064646528	-0.130785
C	 1.6363720535	 2.5356014099	-1.5201581416	-0.117812
O	 0.3503027029	 2.5304085723	-2.187556105	-0.268553
C	-0.5501392513	 2.4368492803	-1.125880358	 0.05632
H	-0.0525491332	-2.2201065039	 0.1502374096	 0.189795
H	-0.2166723723	 4.3313728454	 0.3266225196	 0.101471
H	 1.9588927243	 2.4175114028	 0.7316923641	 0.100174
H	 2.1741318429	 3.4591096582	-1.7628752021	 0.116378
H	 2.2287358814	 1.6782761889	-1.8585197407	 0.123437
H	-1.5879124594	 2.4010908257	-1.4480163178	 0.115158
126.4324	152.8501	296.867	355.5368	451.3186	512.5199	528.3552	588.1344	612.3802	693.3989	702.3882	740.0636	782.5377	805.4447	904.3023	925.7736	943.2608	957.3022	976.5894	1029.3972	1035.875	1101.9309	1110.9234	1160.9748	1185.9508	1214.9555	1229.7644	1261.8774	1273.8218	1336.8929	1394.5573	1514.9168	2235.0615	3034.196	3076.5784	3143.8058	3158.1934	3170.3898	3499.5726
C#CC12OC3C1COC23	C#C[C@@]12O[C@H]3[C@@H]1CO[C@@H]23	
InChI=1S/C7H6O2/c1-2-7-4-3-8-6(7)5(4)9-7/h1,4-6H,3H2	InChI=1S/C7H6O2/c1-2-7-4-3-8-6(7)5(4)9-7/h1,4-6H,3H2/t4-,5-,6+,7+/m0/s1
