16
gdb 6873	2.83228	1.69134	1.45787	2.4381	66.41	-0.2415	0.0275	0.269	925.8136	0.129045	-379.915262	-379.906433	-379.905488	-379.94816	32.211	
C	-0.085807523	 1.5870132426	 0.0685517249	-0.463851
C	-0.0227025918	 0.0814173624	-0.0336155292	 0.378186
O	-1.1401046491	-0.583988861	 0.4781149469	-0.451571
C	 0.5742955823	-0.6108763185	-1.201608803	-0.012314
N	 1.0545176731	 0.0927264089	-2.347105882	-0.513934
C	 1.3188418653	-0.6656914457	 0.1733184753	-0.314012
C	 2.5353017924	 0.0650933396	 0.3159787862	 0.286374
N	 3.5116356932	 0.6860148167	 0.3862004995	-0.351958
H	 0.8285912016	 2.0700628857	-0.2817157596	 0.141793
H	-0.931578223	 1.963018844	-0.5138454049	 0.14358
H	-0.2242937045	 1.8871327027	 1.1136924954	 0.1233
H	-1.2346214138	-0.3408383418	 1.4068825768	 0.285699
H	 0.093513147	-1.5516365767	-1.4493795611	 0.126765
H	 1.5293553695	 0.9523339612	-2.0924869334	 0.246605
H	 1.731406492	-0.474038184	-2.8488402357	 0.245656
H	 1.2538861786	-1.598693756	 0.7217782039	 0.129683
114.0697	134.0419	165.7811	180.6438	233.1298	272.843	336.448	379.573	403.8108	426.7073	504.7674	562.9841	640.8224	682.0366	794.9018	845.4103	875.3224	910.8807	994.6502	1034.5334	1069.1997	1088.1203	1160.704	1186.1729	1265.8368	1289.9649	1315.6531	1377.9994	1419.842	1464.5593	1488.2531	1520.0376	1665.2981	2332.6206	3038.2859	3105.0765	3135.2733	3171.2619	3179.9725	3507.2147	3584.6114	3784.7738
CC1(O)C(N)C1C#N	C[C@@]1(O)[C@@H](N)[C@H]1C#N	
InChI=1S/C5H8N2O/c1-5(8)3(2-6)4(5)7/h3-4,8H,7H2,1H3	InChI=1S/C5H8N2O/c1-5(8)3(2-6)4(5)7/h3-4,8H,7H2,1H3/t3-,4+,5+/m1/s1
