17
gdb 17265	3.14137	2.16919	1.82213	2.1333	68.77	-0.2365	0.0696	0.3061	805.4633	0.142895	-363.777847	-363.770882	-363.769938	-363.80851	27.95	
O	-0.1232341898	 1.3313448535	 0.0461579032	-0.476094
C	 0.0097253093	-0.0420596128	 0.0253849142	 0.300493
C	 0.6119952524	-0.9635672343	-1.0919135221	-0.290806
C	 0.0344930516	-1.9247982077	-0.0068297559	-0.135546
C	 0.6705008104	-0.9974107718	 1.074635591	-0.283747
C	-1.1885469767	-0.9915724053	 0.0423641168	 0.434022
C	-2.481063358	-0.9629488532	 0.7314063432	-0.360685
N	-2.3851567136	-1.0098405527	-0.7641569894	-0.416103
H	 0.7495322809	 1.7315868137	-0.0274491413	 0.286861
H	 0.1054425506	-0.9583084884	-2.0588931553	 0.107412
H	 1.7011244575	-0.9549821926	-1.194335992	 0.084221
H	 0.0435572202	-3.0107098177	-0.025067205	 0.089593
H	 1.7633187622	-0.9932164881	 1.1122517707	 0.085957
H	 0.2231857805	-1.0174468547	 2.0708552902	 0.098884
H	-2.8975654553	-1.8602030748	 1.1811440352	 0.118968
H	-2.7979782926	-0.03163665	 1.1942053514	 0.120509
H	-2.5668476594	-0.0822199629	-1.1434737549	 0.23606
191.9654	210.5036	223.0767	262.5038	391.0934	434.0055	474.0774	620.0707	642.835	659.5822	762.0511	802.3913	900.4768	910.611	927.1561	945.6134	960.2814	972.2022	1004.9411	1046.59	1051.1985	1073.1718	1110.0954	1128.3914	1132.8997	1179.7548	1199.3684	1203.9379	1256.6009	1260.8325	1295.6889	1349.6718	1458.9874	1487.6538	1514.8503	1558.3714	3051.3793	3056.7193	3105.3818	3126.174	3130.5596	3164.1545	3190.2335	3480.9129	3814.7968
OC12CC(C1)C21CN1	O[C@@]12C[C@@H](C1)[C@]12CN1	
InChI=1S/C6H9NO/c8-5-1-4(2-5)6(5)3-7-6/h4,7-8H,1-3H2	InChI=1S/C6H9NO/c8-5-1-4(2-5)6(5)3-7-6/h4,7-8H,1-3H2/t4-,5-,6-/m0/s1
