19
gdb 56581	2.93812	0.9318	0.91852	3.9988	75.9	-0.2635	0.0342	0.2977	1377.0383	0.15841	-419.187603	-419.177717	-419.176773	-419.223054	35.296	
C	-0.4512891552	 1.3488226405	-0.3042672122	-0.415839
C	 0.1035758971	-0.0240103112	 0.1227624558	-0.145035
C	 0.7376660083	-0.6890236001	-1.0199915631	 0.272743
N	 1.2306358239	-1.2201155752	-1.9201553685	-0.321241
C	 1.1125138339	 0.053353243	 1.3102661552	 0.09827
O	 2.1902357831	 0.9282249704	 1.0192873304	-0.428052
C	 0.4271267344	 0.4013851867	 2.6134374288	-0.027769
C	 0.0371054774	-0.6748366953	 3.5607406998	-0.242777
N	 1.1563111936	 0.2250556759	 3.8755216233	-0.317011
H	 0.3636158559	 2.0101331877	-0.6081685679	 0.143385
H	-1.1308973577	 1.2397816199	-1.1521030955	 0.145352
H	-1.0048587132	 1.8163300202	 0.5140831174	 0.129569
H	-0.7275508996	-0.6641025318	 0.4450998562	 0.12964
H	 1.5708485351	-0.9371485522	 1.4171531633	 0.101694
H	 1.9290685401	 1.8261095705	 1.2496469127	 0.291925
H	-0.1750773558	 1.3092617045	 2.5930731131	 0.096416
H	-0.8409457972	-0.5542645445	 4.1882480933	 0.126771
H	 0.2536803189	-1.7023661333	 3.2782329804	 0.119766
H	 2.0452200271	-0.2369149557	 3.6946132974	 0.242195
50.8851	64.8839	130.8631	189.7249	204.5505	233.0083	255.2439	282.4925	325.3659	355.0112	443.7872	512.2301	577.038	680.7363	809.5644	818.1795	876.1977	902.1717	948.4828	964.7292	996.9631	1053.8403	1076.7505	1097.853	1125.3525	1134.0357	1156.7297	1191.8021	1247.5184	1281.2332	1290.6208	1309.1697	1319.7395	1359.3868	1409.6776	1411.3061	1443.265	1497.1111	1507.065	1515.5443	2359.0599	3035.8278	3041.9126	3054.635	3108.5621	3110.6903	3131.7086	3136.2305	3195.5446	3494.5085	3815.3535
CC(C#N)C(O)C1CN1	C[C@@H](C#N)[C@@H](O)[C@H]1CN1	
InChI=1S/C6H10N2O/c1-4(2-7)6(9)5-3-8-5/h4-6,8-9H,3H2,1H3	InChI=1S/C6H10N2O/c1-4(2-7)6(9)5-3-8-5/h4-6,8-9H,3H2,1H3/t4-,5+,6+/m0/s1
