21
gdb 59145	3.09606	1.30473	1.1972	2.2114	82.71	-0.1994	0.0636	0.263	1159.4282	0.181356	-383.157933	-383.149186	-383.148242	-383.191419	34.344	
C	-0.1197406469	 1.5531383223	 0.4139273466	-0.379986
C	 0.2353398568	 0.0897826838	 0.1288323461	 0.091523
C	 0.9827615868	-0.5534162162	 1.2946187586	-0.382584
N	-1.029746087	-0.633828696	-0.0882634815	-0.060134
C	-1.6878591676	-1.0444940731	-1.2842883336	-0.067968
C	-0.8252818869	-1.9166286446	-2.2779190525	-0.080244
N	 0.5603925543	-2.0401185861	-1.7521476829	-0.331853
C	-0.5274273151	-2.879327733	-1.2027781646	-0.078499
C	-1.3628984432	-2.0223314097	-0.1796139892	-0.066671
H	 0.7883342777	 2.1523074285	 0.5416061021	 0.101685
H	-0.6924471618	 1.9818878918	-0.4148413295	 0.107275
H	-0.7264480304	 1.6379745266	 1.3214051672	 0.110623
H	 0.8668255282	 0.0420402333	-0.7604055169	 0.096765
H	 1.8885795124	 0.014963502	 1.5265627674	 0.107414
H	 0.3552562874	-0.5761959945	 2.1925572135	 0.110922
H	 1.2760738729	-1.5772179807	 1.0476074847	 0.121413
H	-2.6419765374	-0.6131207	-1.5710928802	 0.092709
H	-1.054100285	-2.0902508951	-3.3211415302	 0.09288
H	 1.0763977243	-2.6160025989	-2.4175534588	 0.23026
H	-0.4863130796	-3.9605836288	-1.2276896174	 0.092365
H	-2.0177975198	-2.4717225914	 0.5602182613	 0.092104
42.7786	153.5206	186.6731	225.0993	252.2071	318.2938	335.8969	376.5088	441.4004	564.5708	654.4893	694.3977	721.3713	739.2718	795.5218	848.7495	869.8073	884.9933	903.2906	920.8697	927.1639	947.8291	975.2889	1012.8322	1025.0927	1039.8221	1103.6845	1107.8426	1135.5871	1158.4694	1189.743	1228.9929	1232.0735	1291.2586	1299.2562	1335.4849	1349.827	1366.5378	1393.9914	1408.2781	1425.304	1483.0496	1487.2247	1494.0491	1509.3807	3028.0639	3035.3495	3080.1032	3098.4082	3101.7283	3114.1863	3118.0602	3149.0671	3159.5944	3192.4234	3206.4916	3464.6176
CC(C)N1C2C3NC3C12	CC(C)N1[C@H]2[C@H]3N[C@H]3[C@@H]12	
InChI=1S/C7H12N2/c1-3(2)9-6-4-5(8-4)7(6)9/h3-8H,1-2H3	InChI=1S/C7H12N2/c1-3(2)9-6-4-5(8-4)7(6)9/h3-8H,1-2H3/t4-,5+,6-,7+,9?
