19
gdb 101939	2.24024	1.30679	0.88285	5.719	71.47	-0.2473	0.0203	0.2676	1304.0947	0.160372	-456.345771	-456.336661	-456.335717	-456.380257	33.425	
N	 0.0313230876	 1.0054570158	 0.1477918116	-0.526427
H	 0.1915729272	 0.0030329864	 0.1830587619	 0.246249
H	 0.9415282886	 1.4529261768	 0.1329114958	 0.252075
H	-1.2430728165	 1.4928272667	-0.9684113857	 0.312586
C	-0.7578236005	 1.4484135205	 1.3137245288	-0.186974
C	-2.2456983245	 1.0740865976	 1.139714905	-0.190227
C	-3.0296333187	 1.3506062947	 2.4037321867	 0.054461
C	-4.1637419958	 0.4924481072	 2.7984819281	-0.235446
N	-2.9032750356	 0.4539694183	 3.5693580483	-0.340789
C	-2.9031495698	 1.7739852904	-0.0724386631	 0.420929
O	-4.0230046322	 2.2121966693	-0.0352381396	-0.328232
O	-2.1500206165	 1.8410360059	-1.1759433536	-0.383041
H	-0.3919143564	 1.0314088257	 2.2612183492	 0.118445
H	-0.6627918371	 2.5372534091	 1.3854009455	 0.132968
H	-2.2929849899	-0.0075345371	 0.9330010631	 0.090698
H	-3.0760561189	 2.4026843322	 2.6755092231	 0.102803
H	-5.0111141857	 0.9221781378	 3.3230163877	 0.127028
H	-4.4100745412	-0.3496151938	 2.1569461754	 0.112431
H	-2.3766986941	-0.3783199735	 3.3102018717	 0.220463
67.2173	78.8174	142.6118	162.1198	251.9238	266.6836	329.1227	358.62	406.8961	443.2305	516.9212	611.7566	727.3989	802.9785	831.6049	869.2574	898.6532	932.6678	954.4408	976.3782	1015.3859	1023.6788	1068.8144	1074.2693	1126.2991	1154.6384	1162.1423	1198.8654	1243.6962	1254.3214	1277.5939	1306.4034	1320.4999	1349.5211	1415.3806	1435.5237	1493.7648	1510.5085	1515.6985	1650.255	1851.3487	2980.3493	3015.2377	3077.3287	3115.0625	3136.1721	3202.0493	3226.9546	3477.4956	3502.2304	3584.2401
[NH3+]CC(C1CN1)C([O-])=O	NC[C@@H]([C@H]1CN1)C(=O)O	
InChI=1S/C5H10N2O2/c6-1-3(5(8)9)4-2-7-4/h3-4,7H,1-2,6H2,(H,8,9)	InChI=1S/C5H10N2O2/c6-1-3(5(8)9)4-2-7-4/h3-4,7H,1-2,6H2,(H,8,9)/t3-,4+/m0/s1
