22
gdb 93774	2.33562	1.46536	1.10979	1.6253	83.53	-0.2374	0.0306	0.2679	1221.1846	0.194145	-404.384455	-404.374906	-404.373962	-404.418394	36.043	
C	-0.1000901635	 1.5847648021	-0.1290332395	-0.393521
C	 0.0164206961	 0.0584229934	-0.0118243223	-0.027993
C	 0.7753221444	-0.5369439446	-1.1965339352	-0.082987
O	 2.1570602678	-0.1521226804	-1.1830877485	-0.26302
C	 2.7531856754	-0.0915407922	 0.0425881017	 0.391244
C	 4.2244394259	 0.1657673107	-0.1041119655	-0.452289
N	 2.2011425136	-0.2187501589	 1.1769004502	-0.316785
C	 0.7522384403	-0.4274899154	 1.2586132084	 0.05586
C	 0.2394441025	 0.1917539007	 2.5602933876	-0.395825
H	 0.8784948621	 2.0700140281	-0.0701112987	 0.131755
H	-0.5526229047	 1.8620876423	-1.0869322678	 0.10935
H	-0.7260180569	 1.9980891071	 0.6655703204	 0.12027
H	-0.9932067314	-0.3716546498	-0.0187435684	 0.073627
H	 0.7195698797	-1.6334197624	-1.1807432228	 0.104745
H	 0.3837445275	-0.1872445093	-2.1558439764	 0.109511
H	 4.3937801585	 1.0847168014	-0.6744903489	 0.135573
H	 4.6792856977	 0.2533929677	 0.881578914	 0.142201
H	 4.6991831064	-0.6496506672	-0.659543911	 0.134996
H	 0.5867968599	-1.5130380275	 1.3319787008	 0.079344
H	 0.4341813575	 1.2673162304	 2.5904625727	 0.120117
H	-0.8374872503	 0.028659668	 2.6773678557	 0.101398
H	 0.7562271416	-0.2608467342	 3.4104569633	 0.122429
94.4177	128.7668	167.6246	187.0223	203.2127	248.6524	287.3491	306.0552	359.7057	404.5781	447.7334	555.8818	566.6854	633.315	728.726	777.2156	855.1891	870.0448	935.0679	968.8613	984.5006	1016.5923	1035.9777	1062.1021	1064.9053	1121.1383	1145.696	1160.2696	1197.7019	1250.3799	1271.1385	1311.848	1329.4361	1360.3263	1378.2274	1396.9248	1405.5556	1408.3732	1425.7402	1475.5565	1477.6109	1486.0333	1492.9175	1499.3101	1505.6399	1514.2294	1745.0047	2980.0513	3014.4909	3030.1083	3038.0902	3042.2332	3046.8299	3087.5852	3103.1555	3105.4017	3111.0111	3120.1896	3124.3768	3166.9089
CC1COC(C)=NC1C	C[C@H]1COC(=N[C@H]1C)C	
InChI=1S/C7H13NO/c1-5-4-9-7(3)8-6(5)2/h5-6H,4H2,1-3H3	InChI=1S/C7H13NO/c1-5-4-9-7(3)8-6(5)2/h5-6H,4H2,1-3H3/t5-,6-/m0/s1
