18
gdb 50265	3.7259	1.27876	1.14149	3.2938	72.58	-0.2401	0.0249	0.265	1088.968	0.150296	-439.097592	-439.090305	-439.08936	-439.129698	28.33	
O	-0.038847455	-0.0239267436	 0.2666509188	-0.342232
C	 0.0197183842	 1.1854729777	 0.1805642222	 0.148805
N	 1.1628678696	 1.9040300381	 0.0156876066	-0.06359
C	 2.4454177343	 1.2049082975	-0.1187511457	-0.157512
C	 3.3819557056	 2.0772480568	-0.9461227992	 0.07103
C	 2.6232981089	 2.8084724073	-2.0729928664	-0.252583
C	 2.3431672517	 3.8028401465	-0.9284423065	 0.081247
C	 1.1488932849	 3.3648692097	-0.0833569552	-0.170114
O	 3.5429490362	 3.3459816715	-0.2427608983	-0.297467
H	-0.8760037123	 1.8377705903	 0.2198793359	 0.069992
H	 2.8993627618	 1.0184060761	 0.8630262834	 0.123757
H	 2.2505973026	 0.2377988535	-0.5898205254	 0.140116
H	 4.3369770723	 1.5897595524	-1.1530134561	 0.08928
H	 3.3010401696	 3.2265000429	-2.8173289277	 0.118981
H	 1.7813294095	 2.3035749862	-2.5499445591	 0.113766
H	 2.3497857205	 4.8788474615	-1.1169717674	 0.087487
H	 0.2029948062	 3.6845560399	-0.5343779471	 0.116937
H	 1.2381589596	 3.8385799858	 0.9038734772	 0.122099
57.2398	229.0809	239.2367	311.4157	339.9217	381.3092	405.0483	550.2432	569.9637	698.1944	808.3363	855.7112	867.8416	884.3828	893.6171	938.4581	989.1008	1009.7908	1031.2006	1035.5809	1076.2481	1092.9103	1101.2998	1196.8507	1206.5443	1235.4351	1259.2343	1267.1347	1320.7845	1339.5313	1345.3838	1359.7103	1392.163	1416.3195	1444.5486	1485.4794	1490.8576	1498.2469	1792.4146	2927.6332	3009.9506	3028.0949	3070.3517	3080.8934	3090.33	3095.4748	3103.6238	3149.2757
O=CN1CC2CC(C1)O2	O=CN1C[C@H]2C[C@@H](C1)O2	
InChI=1S/C6H9NO2/c8-4-7-2-5-1-6(3-7)9-5/h4-6H,1-3H2	InChI=1S/C6H9NO2/c8-4-7-2-5-1-6(3-7)9-5/h4-6H,1-3H2/t5-,6+
