17
gdb 75931	2.65909	1.62871	1.1687	0.9837	68.55	-0.254	-0.0391	0.2149	1047.6535	0.134731	-458.959887	-458.951779	-458.950835	-458.992489	31.121	
O	 0.3948974495	 1.0061323874	-0.7238550035	-0.435169
C	 0.1018051644	-0.2222774887	-0.126785166	-0.022569
C	 0.4090410647	-0.23481844	 1.3706765013	 0.332587
O	 1.2208666041	 0.4762247543	 1.9040935616	-0.316365
C	-0.5980564571	-1.1833909717	 2.0104501468	-0.189248
O	-1.433877483	-1.6108600513	 0.9420793863	-0.289975
C	-1.3625735534	-0.6276437687	-0.0782009785	 0.398289
C	-2.4761767277	 0.3675359406	-0.2444677754	-0.324911
C	-2.2732439326	-0.7676112387	-1.2398679937	-0.345213
H	 0.9933594762	 1.4656808582	-0.116008872	 0.296913
H	 0.6752034208	-1.0431891054	-0.5951011485	 0.105072
H	-0.1202143395	-2.052924062	 2.472526346	 0.143225
H	-1.1575871716	-0.6407018465	 2.7869940609	 0.133959
H	-3.3189320533	 0.2874948137	 0.4326170443	 0.1206
H	-2.2081063226	 1.3711588775	-0.5531842599	 0.134392
H	-1.8850060604	-0.527533488	-2.2237522599	 0.129919
H	-2.9798559785	-1.5895267909	-1.2102829397	 0.128495
82.9788	153.5524	220.8555	232.089	273.5671	361.5507	382.1428	464.8089	506.157	510.6913	617.1314	654.2921	736.8396	766.1	796.0461	889.2018	907.9926	982.9552	991.8886	1029.4252	1045.0106	1074.2729	1081.7679	1105.2775	1162.4304	1191.8617	1206.9572	1225.3916	1252.4762	1335.939	1349.8936	1364.6024	1418.9636	1443.2791	1474.1859	1501.6669	1857.3033	2941.5274	3002.224	3083.55	3136.3324	3141.848	3223.4726	3239.9326	3719.6727
OC1C(=O)COC11CC1	O[C@H]1C(=O)COC21CC2	
InChI=1S/C6H8O3/c7-4-3-9-6(1-2-6)5(4)8/h5,8H,1-3H2	InChI=1S/C6H8O3/c7-4-3-9-6(1-2-6)5(4)8/h5,8H,1-3H2/t5-/m0/s1
