13
gdb 132888	3.0536	1.37223	0.94677	5.5089	65.68	-0.2058	-0.0408	0.1651	1108.3602	0.089516	-497.904759	-497.897407	-497.896463	-497.936514	28.156	
O	-0.0827599241	 1.4020307261	 0.0114426663	-0.442302
C	 0.0328871961	 0.0411867726	 0.0027685416	 0.315825
C	 1.2079367345	-0.6411682433	-0.0076323268	-0.114602
N	 1.1936929944	-2.0190676882	-0.0156967995	-0.368657
C	 0.0675529439	-2.8387918978	-0.0144374288	 0.343653
O	 0.1447394235	-4.0555408031	-0.0220298411	-0.394575
C	-1.1642795896	-2.0510379329	-0.0030934301	 0.149382
F	-2.2883399648	-2.7532422772	-0.0011376843	-0.052094
C	-1.188519139	-0.6968708334	 0.005035753	-0.262139
H	 0.793437235	 1.800861761	 0.0089564315	 0.300775
H	 2.181974421	-0.1686109729	-0.0101166035	 0.121872
H	 2.0674200991	-2.5261529441	-0.0234366041	 0.266209
H	-2.13236243	-0.1638179967	 0.0133077559	 0.136653
125.196	226.5341	293.0773	301.9432	348.3307	355.3748	426.9024	462.3119	511.4134	597.7354	606.6483	658.9463	710.0611	768.2594	788.9305	826.1226	918.1796	991.8359	1121.5786	1175.0447	1233.7375	1242.9742	1315.5624	1372.8259	1451.2927	1504.333	1618.7911	1699.9598	1784.5481	3205.2243	3207.7795	3614.7133	3826.9036
OC1=CNC(=O)C(F)=C1	Oc1c[nH]c(=O)c(F)c1	
InChI=1S/C5H4FNO2/c6-4-1-3(8)2-7-5(4)9/h1-2,8H,(H,7,9)	InChI=1S/C5H4FNO2/c6-4-1-3(8)2-7-5(4)9/h1-2,8H,(H,7,9)
