15
gdb 69019	2.98022	1.34542	1.10376	2.6197	74.47	-0.2444	-0.0358	0.2086	1100.0163	0.10881	-420.574903	-420.566275	-420.565331	-420.608179	31.896	
C	-0.0594731998	 1.5611208633	 0.0739130516	-0.51032
C	 0.1651211209	 0.0914270012	-0.0154642695	 0.195544
O	-0.6821432619	-0.8006558416	 0.7387165829	-0.304241
C	 0.7330284752	-0.9269481246	 0.9388922657	 0.197594
C	 1.2192375203	-1.8539653844	-0.1905999213	-0.432181
C	 0.6793007527	-0.7718718894	-1.1720462937	 0.39892
O	 0.780508649	-0.5974835045	-2.3485785169	-0.29351
C	 1.2909676504	-0.7327536231	 2.2304650318	 0.180705
C	 1.7920625413	-0.5880650666	 3.31394379	-0.358381
H	 0.7765382555	 2.1023769916	-0.3781907966	 0.142891
H	-0.9729510541	 1.8396570954	-0.4609080634	 0.150332
H	-0.160633873	 1.8653034488	 1.11869895	 0.148163
H	 2.3053821094	-1.9476304232	-0.2749405652	 0.144143
H	 0.749472031	-2.8386420834	-0.2126700659	 0.141786
H	 2.226373023	-0.4583813493	 4.2747009703	 0.198557
87.2166	118.0085	146.4257	194.7379	241.4799	296.9344	395.904	476.8667	504.458	551.4524	572.3801	599.4789	617.8698	675.7363	682.1984	709.9769	766.7574	840.4787	975.0859	1005.2374	1054.5724	1085.5915	1115.5369	1180.3109	1191.1398	1288.7476	1396.1089	1430.4032	1453.8539	1476.545	1485.1559	1900.1406	2242.2106	3045.3188	3074.3907	3114.1582	3130.7138	3138.5542	3499.7657
CC12OC1(CC2=O)C#C	C[C@]12O[C@]1(CC2=O)C#C	
InChI=1S/C7H6O2/c1-3-7-4-5(8)6(7,2)9-7/h1H,4H2,2H3	InChI=1S/C7H6O2/c1-3-7-4-5(8)6(7,2)9-7/h1H,4H2,2H3/t6-,7+/m1/s1
