18
gdb 7610	3.33884	1.59404	1.30998	3.5765	69.11	-0.2438	0.0224	0.2662	998.7414	0.152895	-381.144744	-381.135549	-381.134605	-381.178273	33.336	
C	-0.2050367811	 1.5056351773	 0.1290692074	-0.406551
C	-0.017431085	 0.0086980982	 0.0804476618	-0.00384
N	 1.262541854	-0.5135096648	-0.3929217034	-0.364167
C	 0.8854951738	-0.7555017981	 1.0118002967	 0.205393
C	 1.7287633219	-0.0713447912	 2.0680308731	-0.496195
C	 0.4009108749	-2.1664703728	 1.273114683	 0.36984
N	 0.4488055166	-2.5985830836	 2.5632863978	-0.541389
O	-0.0045711398	-2.8773258264	 0.3663698716	-0.385496
H	 0.7194200058	 2.0230133387	 0.3928321469	 0.125079
H	-0.5194809626	 1.8724960723	-0.8539505366	 0.127124
H	-0.9808681699	 1.7812209095	 0.851649517	 0.115726
H	-0.8981433902	-0.5515974502	-0.2284461991	 0.102805
H	 1.091048109	-1.3826814252	-0.8995717034	 0.244648
H	 2.1382040335	 0.8614230756	 1.6792673246	 0.142022
H	 1.1465653158	 0.1689684944	 2.9661968637	 0.11234
H	 2.5755009187	-0.7008764633	 2.3625594643	 0.127646
H	 0.7306050493	-2.0082991205	 3.3245065304	 0.261498
H	 0.0910816552	-3.5176478202	 2.7648922241	 0.263517
72.4733	145.845	152.696	180.5069	194.4275	241.3127	292.3876	351.6022	396.7737	446.4058	479.0944	573.4261	596.8756	682.1813	747.6596	814.4094	847.2016	938.8717	995.3471	1045.0154	1082.6292	1096.764	1107.5471	1118.2624	1140.1353	1256.6428	1272.9648	1342.6546	1386.4436	1408.4101	1417.8877	1450.7332	1482.7864	1489.7337	1500.5478	1510.3139	1615.6082	1768.4395	3025.6738	3037.6016	3085.801	3095.9682	3120.3483	3136.5058	3144.7479	3462.8693	3611.617	3749.0806
CC1NC1(C)C(N)=O	C[C@H]1N[C@]1(C)C(=O)N	
InChI=1S/C5H10N2O/c1-3-5(2,7-3)4(6)8/h3,7H,1-2H3,(H2,6,8)	InChI=1S/C5H10N2O/c1-3-5(2,7-3)4(6)8/h3,7H,1-2H3,(H2,6,8)/t3-,5+/m1/s1
