23
gdb 121117	3.10907	1.03927	0.91733	0.5424	82.03	-0.2533	0.0833	0.3366	1416.8258	0.205612	-425.445408	-425.435576	-425.434632	-425.481	36.264	
C	-0.0134995456	 0.9675533257	 0.2732713164	-0.380154
C	-0.1157474927	-0.0736041659	-0.8391336055	-0.062772
O	-1.3946542798	-0.7047571261	-0.8844235801	-0.256468
C	-1.5475257044	-1.7915794352	-0.0000468766	 0.223538
C	-3.0031561725	-2.2858210608	-0.1149054702	-0.26914
C	-2.8721552336	-3.7487712705	-0.58447793	-0.219945
C	-1.4410960437	-3.8134320817	-1.1487002774	 0.116287
C	-1.3370731838	-3.4771637379	-2.6369801491	-0.395513
O	-0.7120870933	-2.8822733449	-0.3345058868	-0.262659
H	 0.9566122973	 1.473777352	 0.2275880967	 0.113595
H	-0.801401488	 1.7191988392	 0.1685235157	 0.123411
H	-0.1038725224	 0.5142170093	 1.2652719295	 0.120156
H	 0.0070905944	 0.4090119827	-1.8141010489	 0.10192
H	 0.6699238575	-0.8329431035	-0.7459741975	 0.111254
H	-1.2565799937	-1.491953086	 1.0151663247	 0.068488
H	-3.5316833145	-2.2004130425	 0.8365765868	 0.106404
H	-3.5218857036	-1.6598457047	-0.843491579	 0.122866
H	-2.9655248805	-4.4338205014	 0.2630012448	 0.10377
H	-3.628000947	-4.026491118	-1.3232062326	 0.102632
H	-0.9805054904	-4.7900928493	-0.9672064502	 0.075699
H	-1.805762021	-2.5149401079	-2.8595651438	 0.131664
H	-0.2865627897	-3.4195511213	-2.9363310382	 0.11906
H	-1.8231461791	-4.2537131613	-3.2377038288	 0.105906
46.4398	57.344	114.483	143.5646	204.362	248.4945	282.0189	337.8956	352.1303	417.9003	480.9937	557.2754	678.6976	754.5498	790.6318	800.5624	843.2323	865.8239	901.5348	910.1917	961.8797	998.1336	1024.4977	1044.6458	1071.7839	1096.5373	1113.7963	1127.3275	1143.4094	1198.3152	1227.4975	1237.2071	1295.8199	1315.7564	1327.694	1335.9571	1374.0135	1386.0334	1392.4861	1407.0111	1408.953	1415.894	1482.0322	1488.5185	1490.8377	1494.9801	1500.4677	1504.7422	1513.6066	3016.3569	3035.1506	3037.2969	3038.5151	3046.7448	3062.513	3076.2407	3080.4469	3102.8649	3106.664	3108.6127	3118.1016	3125.8323	3129.9253
CCOC1CCC(C)O1	CCO[C@H]1CC[C@@H](C)O1	
InChI=1S/C7H14O2/c1-3-8-7-5-4-6(2)9-7/h6-7H,3-5H2,1-2H3	InChI=1S/C7H14O2/c1-3-8-7-5-4-6(2)9-7/h6-7H,3-5H2,1-2H3/t6-,7-/m1/s1
