16
gdb 89703	3.697	1.25502	1.15355	3.4339	68.95	-0.2693	-0.0092	0.2601	1066.0287	0.125425	-437.871375	-437.86404	-437.863096	-437.903113	28.911	
O	 0.0374618199	 1.3702002876	-0.0018565437	-0.441088
C	 0.0146467974	-0.0343138782	-0.0322629957	 0.170529
C	 0.5432392584	-0.7087044382	 1.2823016328	-0.311782
C	-0.8003246712	-1.3381670338	 1.7197235532	 0.314701
C	-1.2819482431	-2.0637484005	 0.4356596606	-0.273934
C	-1.4258371442	-0.5873981249	 0.026635546	 0.018911
O	-1.7616490007	-0.2670679909	 1.4257273029	-0.335004
C	-0.9092453634	-1.916578336	 3.0434044694	 0.186763
N	-0.9696698911	-2.4034517417	 4.0893363516	-0.329667
H	-0.5377429956	 1.6324469874	 0.7293604808	 0.287263
H	 0.5632977139	-0.3407946777	-0.9255011908	 0.098277
H	 1.3237941085	-1.4553458745	 1.1229868667	 0.123557
H	 0.9001022277	 0.0395748429	 1.9914487699	 0.13172
H	-0.572842721	-2.7038546362	-0.0927416027	 0.117039
H	-2.2458334614	-2.5507163109	 0.5783954558	 0.139014
H	-2.1519154542	-0.2202823246	-0.6958802769	 0.1037
117.5042	154.1893	211.2556	342.7321	422.6338	452.9871	486.3178	524.7713	541.9487	543.6781	616.4253	735.2053	826.5146	838.2596	849.3008	901.5177	933.2448	962.1178	995.6578	1014.9324	1064.0839	1116.53	1132.5114	1167.7707	1186.4056	1225.8574	1244.2991	1270.6636	1285.76	1304.251	1326.2414	1438.1989	1476.9613	1496.2194	2364.3252	3081.0659	3084.0932	3096.7792	3141.1246	3152.8301	3163.2595	3764.9858
OC1CC2(CC1O2)C#N	O[C@H]1C[C@@]2(C[C@H]1O2)C#N	
InChI=1S/C6H7NO2/c7-3-6-1-4(8)5(2-6)9-6/h4-5,8H,1-2H2	InChI=1S/C6H7NO2/c7-3-6-1-4(8)5(2-6)9-6/h4-5,8H,1-2H2/t4-,5+,6+/m0/s1
