16
gdb 19695	4.87017	1.74437	1.61137	2.0826	63.7	-0.2311	0.0743	0.3054	837.9876	0.130288	-383.652302	-383.645524	-383.644579	-383.683571	25.651	
C	-0.2677249137	 1.2417720022	-0.0813302442	-0.240725
O	 0.2456807076	-0.0572539247	 0.1147529044	-0.245343
C	 0.7635591304	-0.6318255565	-1.0442729198	 0.196773
C	 1.267250902	-2.0555717577	-0.9242021683	-0.191326
C	 0.0423185815	-2.9280659868	-1.2355902927	 0.105844
O	-1.0892830172	-2.0765408716	-1.4036906319	-0.280994
C	-0.2062944201	-1.1937256811	-2.1402465608	 0.00024
C	 0.8288668939	-2.3544419782	-2.3622503101	-0.15119
H	 0.4976977696	 1.9255164837	-0.4821006684	 0.101028
H	-1.1280315502	 1.2452322434	-0.7663863929	 0.111319
H	-0.5954189849	 1.6118965038	 0.8926179282	 0.129786
H	 1.5177301787	 0.016645684	-1.5178640241	 0.065952
H	 2.1378543746	-2.4201672054	-0.3957743132	 0.096552
H	-0.1016871056	-3.9387680104	-0.8789917883	 0.113017
H	-0.7135007792	-0.5780700834	-2.8794204342	 0.085935
H	 1.3517813825	-2.7585612315	-3.2163902537	 0.103132
71.1444	172.7197	193.8176	276.189	405.785	553.4919	637.3998	762.5257	769.6196	788.5382	808.0264	838.2866	886.6955	948.7069	977.3037	1001.9426	1016.285	1028.5382	1040.7915	1066.597	1089.2265	1143.8233	1166.8732	1170.6059	1182.2572	1225.174	1232.1371	1256.636	1327.0741	1372.1787	1392.8329	1482.5029	1491.0005	1507.0496	2972.7364	2985.859	3026.5362	3119.0247	3149.4948	3208.6493	3213.6241	3230.1446
COC1C2C3OC1C23	CO[C@H]1[C@H]2[C@H]3O[C@@H]1[C@@H]23	
InChI=1S/C6H8O2/c1-7-5-2-3-4(2)8-6(3)5/h2-6H,1H3	InChI=1S/C6H8O2/c1-7-5-2-3-4(2)8-6(3)5/h2-6H,1H3/t2-,3+,4-,5+,6-/m1/s1
