19
gdb 92282	3.37719	1.40453	1.20781	1.0818	76.22	-0.2499	0.0156	0.2655	1090.376	0.160677	-423.050068	-423.042364	-423.04142	-423.082587	29.844	
C	 0.0949234881	 1.6036318924	-0.0419228718	-0.402307
C	 0.1313618001	 0.0935638956	 0.0167394419	 0.229152
O	 0.7283661065	-0.4310155962	-1.1488859899	-0.268672
C	 1.2132770951	-1.7224210375	-0.8019832027	 0.073132
C	 2.5553669979	-1.9991930596	-1.5033373191	-0.284061
C	 3.5784489593	-1.7544711647	-0.4201338503	-0.0617
C	 3.0290099396	-1.5384992092	 0.7733466344	-0.0877
C	 1.5245616892	-1.5838439467	 0.7185435319	 0.064585
O	 0.9286698899	-0.3422984944	 1.1040561155	-0.2839
H	 1.1105023644	 1.9887933698	-0.1594770335	 0.131534
H	-0.5167704209	 1.9314818534	-0.8863647692	 0.125397
H	-0.3358844429	 2.000578402	 0.88056164	 0.127649
H	-0.8883897569	-0.3247084014	 0.1269484629	 0.054767
H	 0.4515262038	-2.4834502445	-1.0143012512	 0.07064
H	 2.605217834	-3.0282432847	-1.8803776003	 0.109094
H	 2.6788210246	-1.3370837589	-2.3673443765	 0.125201
H	 4.6444558394	-1.7640581356	-0.6220314986	 0.097703
H	 3.563161525	-1.3423060119	 1.6953800648	 0.102073
H	 1.097339104	-2.392590928	 1.3266317816	 0.077412
69.436	115.9314	208.9926	272.2027	293.2487	403.713	465.9839	496.8403	611.7417	683.2456	741.2579	781.7133	827.3481	864.9934	878.474	888.0746	917.2476	963.8391	981.038	1006.3511	1056.6185	1059.1011	1080.1741	1126.7408	1129.4847	1147.6272	1162.1365	1208.6603	1260.1918	1310.7378	1321.3568	1340.9739	1343.2851	1380.4771	1393.6264	1400.1358	1439.1374	1471.0826	1484.4907	1486.365	1686.8231	2907.9966	3004.5542	3020.0639	3036.1897	3054.2386	3073.5199	3133.5546	3140.2169	3183.6816	3214.1517
CC1OC2CC=CC2O1	C[C@H]1O[C@H]2CC=C[C@H]2O1	
InChI=1S/C7H10O2/c1-5-8-6-3-2-4-7(6)9-5/h2-3,5-7H,4H2,1H3	InChI=1S/C7H10O2/c1-5-8-6-3-2-4-7(6)9-5/h2-3,5-7H,4H2,1H3/t5-,6-,7+/m1/s1
