18
gdb 84945	2.12784	1.75799	1.24	3.8265	74.6	-0.2578	-0.0117	0.2461	1065.6391	0.148677	-439.080603	-439.072132	-439.071188	-439.114211	31.709	
O	 0.5219619908	 1.0867250471	 0.5432744653	-0.42777
C	 0.0881616282	-0.1966701586	 0.0860620119	 0.05471
C	-1.4274849361	-0.2723761204	 0.0629389094	-0.097882
C	-2.2736369245	 0.0961091549	-0.9013564932	-0.059285
C	-1.9789608778	 0.6571328751	-2.2729649003	-0.261944
C	-0.7213863723	 0.1475316663	-2.9684533323	-0.093907
O	 0.4830716589	 0.4063550813	-2.2319766025	-0.275067
C	 0.75244153	-0.5149378226	-1.2336484621	 0.341761
N	 1.5455221312	-1.4855812191	-1.3733681493	-0.474094
H	 0.2944453332	 1.715597158	-0.1521105918	 0.284499
H	 0.4748423872	-0.9117200931	 0.8136958229	 0.116513
H	-1.8594159598	-0.5997216438	 1.0053562337	 0.102724
H	-3.334626408	 0.0399460905	-0.6650369337	 0.0987
H	-2.8258695136	 0.441109082	-2.9362739614	 0.114025
H	-1.9299188332	 1.7543672897	-2.2088765438	 0.123494
H	-0.799236619	-0.9295084793	-3.1653901052	 0.113096
H	-0.5932397663	 0.6611310251	-3.9253161833	 0.117934
H	 1.9102725412	-1.5051758331	-2.3294704244	 0.222493
50.883	80.6615	210.7081	242.1494	270.7448	329.9544	360.1967	395.8191	445.0568	534.8676	621.4822	703.4237	723.2056	770.5866	823.0262	847.3289	899.9376	949.9465	966.2048	1009.1211	1029.2882	1047.7046	1064.2571	1087.9772	1132.5483	1242.728	1256.0863	1261.7226	1303.7996	1321.3219	1356.5582	1387.3217	1407.8732	1421.9206	1435.4616	1466.1429	1498.919	1720.1989	1757.7696	3002.5038	3023.6161	3052.5296	3094.5452	3110.0004	3136.6918	3164.875	3447.5684	3794.3657
OC1C=CCCOC1=N	O[C@H]1C=CCCO[C]1[NH]	
InChI=1S/C6H9NO2/c7-6-5(8)3-1-2-4-9-6/h1,3,5,7-8H,2,4H2	InChI=1S/C6H9NO2/c7-6-5(8)3-1-2-4-9-6/h1,3,5,7-8H,2,4H2/t5-/m0/s1
