19
gdb 57011	2.95196	1.20579	0.93597	1.3968	81.88	-0.2374	0.0254	0.2629	1260.1307	0.158584	-385.861764	-385.852814	-385.85187	-385.895631	33.989	
O	 0.850478879	 0.1300368861	-1.0212120981	-0.419139
C	 0.0460027509	 0.008982657	 0.1496717946	-0.052413
C	-1.281836212	-0.5175255908	-0.1833730281	 0.296758
C	-2.343680358	-0.9947727513	-0.4853014644	-0.447701
C	 0.7361001013	-0.8357226834	 1.2498997862	-0.007393
C	 2.1328185095	-0.2431104518	 1.5870755655	-0.279056
C	 1.89534137	 0.5068952503	 2.8754793823	-0.056227
C	 0.7122013178	 0.2180589073	 3.41369814	-0.059362
C	-0.061197863	-0.7791459861	 2.5840718761	-0.270402
H	 0.8363091557	-0.723096084	-1.4698059858	 0.283046
H	-0.0563232591	 1.035394543	 0.5243244841	 0.122898
H	-3.2908079933	-1.3955178008	-0.7508798712	 0.198809
H	 0.8117452295	-1.8606665731	 0.8730325884	 0.067923
H	 2.8801248142	-1.0357938374	 1.7290454371	 0.098845
H	 2.5062696179	 0.3864286709	 0.7731971087	 0.124022
H	 2.6325891227	 1.1771158054	 3.3038229686	 0.090568
H	 0.3332456333	 0.6141346587	 4.3494273051	 0.090344
H	-1.1071819713	-0.4918633214	 2.4267975206	 0.112867
H	-0.0905994752	-1.7608192785	 3.0756983703	 0.105613
71.2051	85.5122	138.5593	225.728	254.7615	306.9633	343.7533	383.5879	446.628	497.8041	585.594	629.1024	670.1754	686.3264	744.7117	793.8613	851.9098	905.2592	923.453	948.5565	976.449	978.7553	986.9296	1049.8498	1079.8983	1084.7274	1130.9588	1177.9368	1185.8325	1239.441	1271.2479	1294.1958	1308.5781	1329.8567	1370.1974	1376.6421	1421.3311	1489.9934	1497.331	1688.696	2228.9279	3011.801	3016.1905	3034.9948	3056.2261	3061.6826	3076.2523	3180.9633	3206.5644	3502.9201	3801.3744
OC(C#C)C1CC=CC1	O[C@@H](C#C)[C@H]1CC=CC1	
InChI=1S/C8H10O/c1-2-8(9)7-5-3-4-6-7/h1,3-4,7-9H,5-6H2	InChI=1S/C8H10O/c1-2-8(9)7-5-3-4-6-7/h1,3-4,7-9H,5-6H2/t8-/m0/s1
