25
gdb 86182	2.24688	1.39101	1.12068	1.3249	88.09	-0.2574	0.0629	0.3203	1274.0522	0.228056	-389.522782	-389.512459	-389.511515	-389.557301	40.274	
C	 0.4056006218	 1.5671154723	 0.125657415	-0.398181
C	-0.0334991213	 0.114174821	-0.0819005586	 0.04417
C	 0.7344215664	-0.5783152333	-1.2451849269	-0.230496
C	 1.168835368	-1.9592615822	-0.7161605483	 0.034443
C	 2.3332912462	-2.5893880596	-1.4778800549	-0.415399
C	 1.4220639191	-1.689336981	 0.7850978301	 0.382043
C	 1.5403261873	-2.9444406058	 1.6475727994	-0.455945
O	 2.6450019148	-0.936664076	 0.8444217874	-0.473812
C	 0.2314865384	-0.7852679846	 1.1596511267	-0.256329
H	 1.4697246697	 1.6063855784	 0.3806919502	 0.121722
H	 0.2537124556	 2.1611653416	-0.7823598814	 0.107602
H	-0.1581030126	 2.0450404157	 0.9347751178	 0.10279
H	-1.1072492131	 0.1099517778	-0.2989670298	 0.062862
H	 0.1317338274	-0.6576896745	-2.1551205104	 0.08564
H	 1.6257137485	 0.0048246847	-1.5004678779	 0.103888
H	 0.3055181694	-2.6376820927	-0.7633700094	 0.062118
H	 3.227033857	-1.9655798947	-1.396772582	 0.133317
H	 2.5791808091	-3.5848765372	-1.093268958	 0.106178
H	 2.0860023773	-2.6996647179	-2.5390086376	 0.105325
H	 2.4134471336	-3.5341312132	 1.3540894411	 0.123783
H	 1.6550806033	-2.6796013675	 2.7059559654	 0.101309
H	 0.6488535416	-3.5738376367	 1.5604627552	 0.112851
H	 2.7951556802	-0.6970046887	 1.7646480229	 0.273936
H	 0.4438203679	-0.2035158725	 2.0645467128	 0.07692
H	-0.6420760955	-1.4080972033	 1.3824604614	 0.089264
56.9223	128.0807	214.9784	235.6636	247.9651	254.1508	267.4642	279.3178	300.8095	364.0255	392.0857	403.7018	432.5007	530.6968	567.0614	622.9594	734.9163	811.9156	850.7669	889.1395	918.1351	930.8302	943.3228	957.3071	999.1065	1038.9498	1059.6313	1077.8102	1101.3863	1120.9167	1153.4079	1172.2028	1205.7798	1228.3769	1252.7487	1290.0789	1304.0012	1334.7552	1342.524	1362.6651	1368.3755	1394.7818	1403.8879	1407.3471	1410.3085	1478.4955	1489.5298	1490.8963	1495.3828	1499.0113	1500.8916	1504.8612	1506.4179	3005.1801	3022.0544	3024.589	3026.4225	3034.8282	3035.8336	3044.2169	3068.1469	3084.9779	3089.3985	3090.3049	3094.2465	3105.2212	3115.373	3123.2822	3811.7835
CC1CC(C)C(C)(O)C1	C[C@H]1C[C@@H](C)[C@@](C)(O)C1	
InChI=1S/C8H16O/c1-6-4-7(2)8(3,9)5-6/h6-7,9H,4-5H2,1-3H3	InChI=1S/C8H16O/c1-6-4-7(2)8(3,9)5-6/h6-7,9H,4-5H2,1-3H3/t6-,7+,8-/m0/s1
