17
gdb 23578	2.75545	1.54222	1.20442	1.6696	75.71	-0.2306	0.0076	0.2382	1054.6061	0.135969	-417.902355	-417.89453	-417.893586	-417.934596	30.229	
C	 0.0460757821	 1.6185820962	 0.0927694361	-0.42504
C	 0.1333451352	 0.1020956335	 0.0204360527	 0.021142
C	 0.8844789179	-0.6133465668	-1.0993500227	-0.057752
C	 2.3414589116	-0.7281131813	-0.7404713713	-0.151764
N	 1.3164903679	-1.7338036812	-0.2178883078	-0.159928
C	 1.1075277175	-0.6816497609	 0.9404813408	-0.13
C	 2.4826775816	-0.1552117435	 0.6100155872	 0.507379
N	 3.4790906396	 0.3325652181	 1.2202552017	-0.308627
O	 3.1546626568	 0.6031598026	 2.5679983564	-0.398769
H	 1.0352100214	 2.0802269969	 0.0220972661	 0.132978
H	-0.5712355174	 2.0104257266	-0.7224670408	 0.120349
H	-0.4082649436	 1.9378648228	 1.0365537398	 0.125186
H	-0.8600798196	-0.3521283567	 0.1028900558	 0.09241
H	 0.5534538188	-0.8016355517	-2.1156647181	 0.102122
H	 3.1089357932	-1.0019577679	-1.4521955366	 0.11514
H	 0.8468116779	-1.0057572072	 1.9436690632	 0.107612
H	 3.9961857389	 0.9160758405	 2.9160756873	 0.307562
102.5005	177.9414	203.5383	214.4233	307.6105	322.5231	410.4394	502.3612	559.0466	661.7758	676.0152	740.1669	771.1622	790.4853	820.3037	901.7436	913.6133	936.4516	985.1539	1021.3954	1029.6799	1060.0284	1103.7834	1119.7791	1145.1748	1175.1847	1187.6855	1201.8069	1281.3814	1311.8062	1349.0097	1383.8114	1416.2905	1423.6091	1493.9485	1496.8328	1802.1532	3035.7997	3053.4687	3101.3254	3114.4557	3168.1659	3172.8404	3214.6284	3822.3806
CC1C2C3N2C1C3=NO	C[C@H]1[C@H]2[C@@H]3N2[C@H]1C3=NO	
InChI=1S/C6H8N2O/c1-2-4-3(7-9)6-5(2)8(4)6/h2,4-6,9H,1H3	InChI=1S/C6H8N2O/c1-2-4-3(7-9)6-5(2)8(4)6/h2,4-6,9H,1H3/t2-,4-,5+,6-,8?/m1/s1
