17
gdb 9784	2.98973	1.78348	1.36887	4.1574	67.76	-0.2775	0.0316	0.309	951.0738	0.140342	-363.86326	-363.854593	-363.853648	-363.896556	31.257	
C	-0.4334149554	 1.5778532997	-0.4394219968	-0.39536
C	-0.0420949724	 0.1226992798	-0.0988130101	-0.212215
C	-1.243763272	-0.6483865899	 0.2341978245	 0.288852
N	-2.1929925456	-1.2467926144	 0.5107614752	-0.334745
C	 0.7692156183	-0.5223308724	-1.2376336842	 0.407243
C	 2.1975298103	-0.0317604017	-1.3523300165	-0.467851
C	 0.4135558668	-1.8422501629	-1.7798939902	-0.228796
O	 0.0582904078	-0.6359719774	-2.4705702108	-0.267977
H	 0.4596250992	 2.1919920754	-0.5759429408	 0.127823
H	-1.0176930406	 1.5967325832	-1.361766664	 0.158572
H	-1.0295092981	 2.0141405755	 0.3649496575	 0.138915
H	 0.5889842925	 0.1235498577	 0.7992827423	 0.127611
H	 2.7728658656	-0.296108049	-0.4586908116	 0.12714
H	 2.677119336	-0.486165823	-2.2218192134	 0.137378
H	 2.2410006725	 1.0546580091	-1.4744184153	 0.133049
H	 1.1883321209	-2.4392297908	-2.2591489958	 0.113784
H	-0.4212728159	-2.400685579	-1.3643633601	 0.146575
45.0676	157.3096	180.5212	214.5023	218.7044	264.8425	341.1072	367.3411	393.2335	472.3675	565.1088	582.4675	720.2554	815.9564	861.8652	918.4364	928.2248	995.8024	1035.1258	1064.7567	1106.8553	1137.2317	1142.3881	1179.1517	1223.4391	1305.3997	1341.3322	1395.2841	1406.919	1418.5159	1481.2112	1494.103	1498.0505	1503.1353	1531.7764	2358.2749	3033.525	3042.561	3058.8181	3092.9984	3107.4251	3130.9896	3135.1909	3145.4288	3189.8723
CC(C#N)C1(C)CO1	C[C@@H](C#N)[C@@]1(C)CO1	
InChI=1S/C6H9NO/c1-5(3-7)6(2)4-8-6/h5H,4H2,1-2H3	InChI=1S/C6H9NO/c1-5(3-7)6(2)4-8-6/h5H,4H2,1-2H3/t5-,6+/m0/s1
