15
gdb 104954	2.89801	0.83036	0.7026	3.7828	74.83	-0.272	-0.0706	0.2014	1554.9602	0.109355	-457.702632	-457.693138	-457.692194	-457.738717	32.069	
O	 0.2913189617	 1.2244494956	 0.0137650566	-0.403439
C	 0.0019451172	-0.0805870263	-0.4322042252	-0.130002
C	-1.4154173165	-0.4938949773	-0.067061693	 0.117765
C	-1.6824549073	-1.8578515582	 0.4411600588	-0.201199
O	-1.5790603759	-0.7671872539	 1.3451245427	-0.259165
C	-2.4848138409	 0.2453340371	-0.6848273791	 0.106929
C	-3.353179175	 0.8649818093	-1.2517935232	 0.082494
C	-4.4171847065	 1.6039090963	-1.8829522964	 0.016429
O	-4.4076380222	 1.9624301079	-3.0377023141	-0.225087
H	 0.1798514862	 1.2311309087	 0.9714481686	 0.297552
H	 0.1215229068	-0.0748008668	-1.5196302829	 0.131031
H	 0.693607364	-0.8249447256	-0.0104532784	 0.09913
H	-2.6780868092	-2.2802330531	 0.3238652069	 0.134132
H	-0.8627975872	-2.5748666892	 0.4639027308	 0.127863
H	-5.2714720653	 1.8249829655	-1.2117326822	 0.105566
41.2672	66.2602	84.329	112.7042	207.7448	221.0799	288.888	317.5727	418.3944	452.4412	515.2398	550.9257	621.1287	729.5948	808.2316	896.8364	951.1312	985.1067	1019.9847	1049.4275	1088.7818	1130.5592	1171.7698	1208.7157	1285.4688	1344.1685	1404.4582	1420.1255	1422.9182	1486.7177	1516.9964	1767.896	2324.7655	2924.4845	2997.3288	3088.5818	3094.0551	3184.1885	3801.191
OCC1(CO1)C#CC=O	OC[C@]1(CO1)C#CC=O	
InChI=1S/C6H6O3/c7-3-1-2-6(4-8)5-9-6/h3,8H,4-5H2	InChI=1S/C6H6O3/c7-3-1-2-6(4-8)5-9-6/h3,8H,4-5H2/t6-/m0/s1
