19
gdb 82340	2.27938	1.67537	1.31715	3.2157	78.1	-0.2444	0.0271	0.2716	1048.7683	0.161184	-382.071864	-382.063722	-382.062777	-382.104403	31.353	
C	 0.0622125763	 1.601079378	-0.0764413695	-0.41154
C	 0.117467302	 0.0747199989	-0.0022926052	 0.002182
C	 0.7774448752	-0.6081825259	-1.193831148	-0.02183
C	 2.2609541614	-0.6681295928	-1.2580583378	-0.267097
N	 1.491042204	-1.827060961	-0.7760870512	-0.09339
C	 1.3894348869	-1.906466793	 0.6853085783	-0.173104
C	 0.8732146938	-0.530181182	 1.2283110026	-0.206732
C	 1.9482133231	 0.3152941809	 1.742382527	 0.292199
N	 2.8016401654	 0.9743710182	 2.1618514151	-0.349297
H	 1.0645875615	 2.0350921355	-0.1235670567	 0.143657
H	-0.4871145028	 1.9161274858	-0.9689640852	 0.120732
H	-0.4477598215	 2.0239114627	 0.7946189825	 0.124768
H	-0.909681582	-0.3063809976	 0.0571441305	 0.093017
H	 0.1960379512	-0.6759930929	-2.1095132349	 0.095827
H	 2.7461562469	-0.8256460863	-2.2165935642	 0.123246
H	 2.8473025209	-0.0898840297	-0.5494191918	 0.144217
H	 0.651197918	-2.6775884297	 0.9260517714	 0.119454
H	 2.3439038948	-2.2003713607	 1.1287459384	 0.132327
H	 0.1783020549	-0.6876108182	 2.0582329988	 0.131364
100.3091	151.4404	188.6424	217.5411	265.355	324.1555	385.8608	471.4852	485.3799	569.2369	657.8654	720.2854	749.3044	784.2359	856.9014	873.2809	914.8626	964.8207	1001.3181	1013.5664	1038.8702	1054.2911	1106.5693	1118.7295	1144.1943	1159.9579	1175.8874	1198.0368	1247.7562	1282.0261	1307.2453	1339.2674	1356.4695	1360.8806	1394.9588	1419.4748	1494.0542	1495.5073	1498.4954	1516.2102	2345.06	3025.6557	3041.4908	3054.2191	3073.3759	3107.4162	3110.464	3118.9675	3122.1473	3143.9891	3203.9339
CC1C2CN2CC1C#N	C[C@H]1[C@H]2CN2C[C@H]1C#N	
InChI=1S/C7H10N2/c1-5-6(2-8)3-9-4-7(5)9/h5-7H,3-4H2,1H3	InChI=1S/C7H10N2/c1-5-6(2-8)3-9-4-7(5)9/h5-7H,3-4H2,1H3/t5-,6-,7-,9?/m1/s1
