19
gdb 80926	2.79164	1.42398	1.27128	2.6767	76.05	-0.2494	0.0683	0.3177	1087.351	0.157951	-422.948531	-422.940053	-422.939108	-422.981049	33.123	
C	-0.1353041464	 1.6005611278	-0.0077960572	-0.453694
C	 0.0149787853	 0.0870733178	 0.0091260916	-0.004649
C	 1.181111432	-0.6310106597	-0.7513286848	-0.181961
C	 2.1675833199	-0.1685380998	 0.3706105806	-0.316738
C	 0.8684941145	-0.6406078199	 1.1170204472	 0.27815
O	 0.6230396464	-0.7393252715	 2.4687193554	-0.471408
C	 0.8849029582	-1.832416565	 0.1592873493	 0.523968
C	 0.1856268245	-3.1009131378	 0.0559162685	-0.323537
O	 1.6202719323	-3.0181796586	 0.2816044026	-0.308526
H	 0.8070989067	 2.1379280167	 0.1238597886	 0.119107
H	-0.5707590346	 1.9313596451	-0.9566893949	 0.12364
H	-0.8164592739	 1.9228001053	 0.7883680814	 0.117942
H	-0.9601561749	-0.3861255062	-0.1529048907	 0.069833
H	 1.3626614195	-0.6368861462	-1.8227576011	 0.086312
H	 3.0535926851	-0.7882077667	 0.5171891339	 0.119345
H	 2.411383388	 0.8934979755	 0.4082476319	 0.090963
H	 0.7397116243	 0.1280828997	 2.8705441622	 0.286966
H	-0.386224911	-3.4794530329	 0.9012513394	 0.126933
H	-0.1016239359	-3.4954967935	-0.9174983939	 0.117353
163.7331	175.4119	191.88	202.2663	223.2691	270.1443	365.5309	395.0348	466.9327	493.2346	603.4485	657.4999	686.0497	744.2158	806.2301	832.8921	896.9062	918.9027	946.1103	995.3085	1021.5113	1042.8868	1056.1718	1102.6946	1109.1892	1117.1892	1125.8763	1147.2431	1170.9995	1182.5099	1220.5525	1224.2022	1283.0325	1355.4521	1405.8093	1421.0312	1470.499	1496.4544	1501.4369	1523.2082	1576.483	3032.421	3042.3139	3081.857	3087.5696	3088.5525	3116.3358	3148.4407	3157.5014	3175.1047	3812.8157
CC1C2CC1(O)C21CO1	C[C@H]1[C@H]2C[C@]1(O)[C@]12CO1	
InChI=1S/C7H10O2/c1-4-5-2-6(4,8)7(5)3-9-7/h4-5,8H,2-3H2,1H3	InChI=1S/C7H10O2/c1-4-5-2-6(4,8)7(5)3-9-7/h4-5,8H,2-3H2,1H3/t4-,5+,6+,7+/m0/s1
