21
gdb 118995	2.61453	1.1284	0.9854	2.1488	74.29	-0.2506	0.0815	0.3321	1310.8679	0.18105	-461.364807	-461.354931	-461.353987	-461.400088	35.789	
C	-0.0091804096	 1.5173175399	 0.0204930773	-0.414753
C	 0.0021374593	-0.0119638201	-0.005641872	 0.436313
C	-1.4111240587	-0.5939633115	-0.0402276197	-0.19949
C	-1.4562412018	-2.1156844034	-0.0113622856	-0.091677
O	-2.8266666889	-2.4958259619	-0.0312294392	-0.425364
O	 0.7227335582	-0.4962175552	-1.1357931791	-0.283353
C	 2.060228052	-0.7117404917	-0.7175351698	-0.11117
C	 1.8831166844	-1.1675921997	 0.7316197724	-0.091713
O	 0.7126878748	-0.4804405425	 1.1515754646	-0.301983
H	 1.0124658898	 1.9049307781	-0.0092374985	 0.113986
H	-0.5600131337	 1.9098632849	-0.8384638515	 0.122069
H	-0.4831111008	 1.8739524172	 0.9387158642	 0.126255
H	-1.9689655264	-0.2045108808	 0.817584957	 0.112693
H	-1.9149586901	-0.2365994431	-0.9444527058	 0.113067
H	-0.9160586584	-2.5166082188	-0.8802617749	 0.094602
H	-0.9545620722	-2.478579929	 0.8976615621	 0.09435
H	-2.8683784725	-3.4561639631	-0.0184545878	 0.283369
H	 2.5101265448	-1.464756676	-1.3687699531	 0.114725
H	 2.6546183511	 0.2117282958	-0.7787015987	 0.099926
H	 1.7346414296	-2.255109906	 0.7921088908	 0.098465
H	 2.718459429	-0.889017963	 1.3815487573	 0.109684
65.3042	78.4198	98.5664	168.2299	217.9621	221.7182	255.994	326.2339	335.4923	367.6981	394.3422	564.9226	660.8094	683.8487	781.4144	798.7758	872.8598	905.6289	932.197	952.8745	1025.2961	1031.6537	1059.0298	1074.9134	1089.4557	1150.1923	1157.5449	1166.0895	1225.2771	1234.609	1247.595	1255.2887	1274.8417	1314.2011	1361.0745	1377.1972	1385.445	1404.4523	1456.7738	1474.3698	1483.624	1488.4042	1516.2943	1525.2099	1537.2159	2989.1969	2993.2997	3002.6965	3024.8376	3046.2792	3053.4142	3076.5265	3097.9341	3102.7163	3125.2394	3128.3124	3831.8652
CC1(CCO)OCCO1	CC1(CCO)OCCO1	
InChI=1S/C6H12O3/c1-6(2-3-7)8-4-5-9-6/h7H,2-5H2,1H3	InChI=1S/C6H12O3/c1-6(2-3-7)8-4-5-9-6/h7H,2-5H2,1H3
