17
gdb 47619	2.85728	1.38573	0.9643	3.6855	84.96	-0.2414	-0.0576	0.1838	1195.3174	0.135898	-384.701463	-384.69322	-384.692276	-384.734346	31.418	
O	 0.022189526	-0.0303924326	 0.1411923058	-0.306448
C	-0.0084071507	 1.1736002388	 0.023228281	 0.322671
C	-1.3181005196	 1.9478461966	-0.0570281346	-0.303261
C	-1.2111779607	 3.1897817055	-0.9472468089	-0.226111
C	-0.0734816994	 4.097911446	-0.468122287	-0.250098
C	 1.1898394273	 3.3340184208	-0.207968764	-0.126178
C	 1.2462516875	 1.9995043755	-0.0060153878	 0.002918
C	 2.4821357339	 1.3242570933	 0.2042649782	 0.254193
C	 3.5256626665	 0.7521477955	 0.3834837096	-0.391778
H	-2.0949677647	 1.2563815503	-0.392030034	 0.125819
H	-1.5770186087	 2.2485637287	 0.9690970241	 0.125303
H	-1.0094783423	 2.8791043834	-1.9796012168	 0.11549
H	-2.1591547673	 3.7364466514	-0.9592077586	 0.105881
H	 0.1261001067	 4.8931517028	-1.195979379	 0.118053
H	-0.3669366102	 4.6190086168	 0.4574829788	 0.126091
H	 2.1171384018	 3.9008121653	-0.1805311652	 0.112371
H	 4.4406698742	 0.2372182218	 0.5416398285	 0.195084
75.6486	142.9171	157.0809	255.2892	303.1394	365.7324	426.0034	439.4466	501.2937	572.9399	592.8207	607.2184	643.281	687.4235	729.1566	837.2159	879.5445	882.6846	930.9292	986.2747	1070.0521	1084.1992	1104.6985	1150.5658	1183.7179	1266.6119	1268.2371	1346.5492	1363.5292	1373.286	1378.9699	1458.356	1469.4913	1496.5801	1659.2733	1790.9477	2229.9595	2986.3787	3010.1938	3035.1226	3054.0927	3082.983	3104.3473	3164.544	3503.6501
O=C1CCCC=C1C#C	O=C1CCCC=C1C#C	
InChI=1S/C8H8O/c1-2-7-5-3-4-6-8(7)9/h1,5H,3-4,6H2	InChI=1S/C8H8O/c1-2-7-5-3-4-6-8(7)9/h1,5H,3-4,6H2
