21
gdb 50373	2.55298	1.48935	1.31973	2.5393	81.3	-0.2457	-0.0217	0.224	1083.8739	0.184523	-387.109155	-387.101142	-387.100198	-387.14203	31.282	
O	-0.6939613888	 0.6115968852	-0.4259469472	-0.249203
C	 0.4222209994	 0.7363577073	 0.0171746939	 0.14236
C	 1.2695286912	 1.970282268	-0.1080411184	-0.078975
C	 0.7306103285	 3.1423529584	-0.9600907676	-0.260695
C	 0.8956151748	 4.1155223729	 0.2432171126	 0.010021
C	-0.398835781	 4.6890176744	 0.8351435053	-0.211989
C	-1.0294804873	 3.5065439462	 1.5975382177	-0.216661
C	 0.1830248974	 2.7727925455	 2.2057616074	-0.217511
C	 1.3107422643	 2.9116748718	 1.1634186073	-0.034492
H	 0.8939950414	-0.0925958578	 0.5950197862	 0.073643
H	 2.2833383652	 1.6540251674	-0.3766063854	 0.083846
H	 1.3259834956	 3.381809896	-1.843496611	 0.099309
H	-0.3054442882	 2.9853415379	-1.2708016029	 0.121818
H	 1.6646326785	 4.8745314359	 0.0869042828	 0.063457
H	-0.1595494367	 5.4989273168	 1.5353897585	 0.092496
H	-1.0609507003	 5.105831869	 0.0692913488	 0.097584
H	-1.7508289713	 3.8253630119	 2.355096933	 0.093412
H	-1.5581623329	 2.844502198	 0.9038360815	 0.126603
H	 0.4983373708	 3.2792015635	 3.1257961991	 0.096264
H	-0.0396376088	 1.7362896777	 2.4777199212	 0.099506
H	 2.2967389882	 2.9561411841	 1.6286178572	 0.069206
78.0735	85.4851	203.6809	249.0999	267.4045	362.8113	410.9596	553.8945	593.6437	639.6923	727.5884	762.1286	815.349	852.1674	869.0786	887.3371	902.2777	931.7568	957.2674	975.0309	1000.6074	1028.5288	1061.4176	1079.3645	1114.1806	1147.6924	1154.4837	1167.0623	1195.5765	1222.609	1256.8654	1270.2132	1278.4633	1312.7587	1317.3945	1335.0158	1351.0828	1356.2478	1368.5976	1424.6185	1482.8831	1486.4518	1492.5344	1513.7782	1812.9904	2855.615	3028.094	3033.0891	3047.2786	3054.9453	3066.0691	3076.906	3079.6247	3081.4319	3093.2738	3102.8945	3120.9813
O=CC1CC2CCCC12	O=C[C@H]1C[C@H]2CCC[C@@H]12	
InChI=1S/C8H12O/c9-5-7-4-6-2-1-3-8(6)7/h5-8H,1-4H2	InChI=1S/C8H12O/c9-5-7-4-6-2-1-3-8(6)7/h5-8H,1-4H2/t6-,7-,8-/m1/s1
