19
gdb 112594	3.27826	0.95747	0.86765	2.4537	77.14	-0.2588	0.025	0.2838	1393.0981	0.158509	-419.193643	-419.184057	-419.183113	-419.22838	34.867	
C	 0.183414494	 1.2721181059	-0.252671297	-0.245133
O	 0.0307762017	-0.009955173	 0.3191301768	-0.235733
C	-1.2655607781	-0.5185884488	 0.2027856205	 0.167905
C	-1.7149669544	-1.1054161349	-1.1682310445	-0.287997
C	-2.2952088113	-2.3401383601	-0.4044123792	 0.127678
N	-1.951250048	-3.6374511474	-0.9746693839	-0.540418
C	-1.4398149754	-1.9127531401	 0.8321835151	-0.289174
C	-3.7379099624	-2.1923332267	-0.1483886605	 0.231362
N	-4.8776704786	-2.1164355759	 0.0370114061	-0.345352
H	 1.2168076741	 1.5815599988	-0.0819795486	 0.132292
H	-0.0094076071	 1.2650410959	-1.335750767	 0.110962
H	-0.4913354834	 2.0062915816	 0.2138917652	 0.110198
H	-2.0020429616	 0.2038477013	 0.5855197595	 0.082435
H	-2.4005248704	-0.5307420582	-1.7921355597	 0.11623
H	-0.8488976884	-1.4330965663	-1.747836827	 0.128033
H	-2.2462130964	-4.3808598043	-0.3455847137	 0.24154
H	-2.4638985053	-3.7809023964	-1.8417665602	 0.24102
H	-0.49381639	-2.4573896767	 0.8068719495	 0.134046
H	-1.8957312088	-1.9841591448	 1.8199283187	 0.120107
57.7076	98.3954	152.1011	179.6419	199.1345	219.8401	269.8214	364.4014	371.8489	421.0983	450.1081	533.6466	594.2022	630.5115	713.9947	834.7462	861.5181	901.6986	939.2748	947.7645	1010.6554	1026.5631	1079.1967	1140.0468	1158.5728	1184.3945	1202.0363	1220.6073	1246.1359	1270.0942	1282.5959	1288.2548	1310.6096	1396.4678	1460.0043	1479.3663	1486.7789	1492.964	1508.9618	1655.1548	2335.9216	2978.401	2991.7315	3028.3223	3074.9178	3083.3041	3121.4067	3144.0284	3150.363	3474.9567	3553.0327
COC1CC(N)(C1)C#N	CO[C@H]1C[C@@](N)(C1)C#N	
InChI=1S/C6H10N2O/c1-9-5-2-6(8,3-5)4-7/h5H,2-3,8H2,1H3	InChI=1S/C6H10N2O/c1-9-5-2-6(8,3-5)4-7/h5H,2-3,8H2,1H3/t5-,6+
