16
gdb 81194	3.20862	1.66137	1.50019	0.7093	68.13	-0.2427	0.001	0.2436	907.302	0.126059	-437.800283	-437.793712	-437.792767	-437.830878	27.058	
O	 0.0404428647	 1.3946781205	 0.0268596006	-0.442908
C	 0.0235281422	-0.0051868468	 0.0423139335	 0.132338
C	-0.0242879691	-0.6465509401	 1.4319293257	-0.148674
C	-1.544308572	-0.1642261298	 1.5263132726	-0.322057
C	-1.3585546644	-0.7764571695	 0.1047470314	 0.282555
N	-1.9548849989	-1.2929146822	-1.1171097238	-0.360367
C	-1.1992656544	-2.3044089234	-1.3330944264	 0.08404
O	-0.2363890535	-2.6797212513	-0.4124446207	-0.257791
C	-0.6329372191	-1.9211853481	 0.7601046566	 0.090676
H	-0.0955326719	 1.6858341437	-0.8801772083	 0.292828
H	 0.7513675365	-0.429767777	-0.6567557549	 0.084481
H	 0.7199641487	-0.584341348	 2.2245787946	 0.091174
H	-2.1881907411	-0.7170123943	 2.2137086752	 0.105456
H	-1.6761608877	 0.9122844739	 1.5971896799	 0.134367
H	-1.2229864668	-2.93032073	-2.2180492139	 0.141844
H	-1.1781136532	-2.5896858776	 1.4310192378	 0.092038
215.2646	243.5871	302.8914	342.4414	388.0142	465.5413	531.2357	583.1051	628.3146	734.4406	784.8788	837.0841	874.9936	899.1202	917.6029	942.4737	949.6762	967.3595	1022.6337	1049.624	1057.055	1090.3067	1142.2214	1145.7005	1181.193	1196.4712	1210.5334	1226.0849	1262.5286	1315.3576	1318.1406	1386.3978	1441.8158	1504.3409	1603.2313	3055.8567	3077.2606	3084.0791	3129.9833	3181.2926	3218.978	3824.462
OC1C2CC11N=COC21	O[C@H]1[C@H]2C[C@]31[N][CH]O[C@@H]23	
InChI=1S/C6H7NO2/c8-4-3-1-6(4)5(3)9-2-7-6/h2-5,8H,1H2	InChI=1S/C6H7NO2/c8-4-3-1-6(4)5(3)9-2-7-6/h2-5,8H,1H2/t3-,4+,5+,6-/m1/s1
