19
gdb 101557	2.24848	1.02397	0.98205	2.2258	73.48	-0.2448	-0.0891	0.1557	1368.871	0.154803	-460.173476	-460.162798	-460.161854	-460.211001	36.099	
C	-0.278265399	 1.1657842586	 0.2278142812	-0.240472
O	-0.3613591522	-0.1717527559	-0.2133376014	-0.254699
C	 0.6432676498	-0.5595147469	-1.1458632589	 0.150003
C	 2.0037330543	-0.779728594	-0.4859001604	-0.408844
C	 0.1052175873	-1.836799883	-1.8063690551	-0.321533
C	-1.2483022378	-1.5421467117	-2.4172909951	 0.310503
O	-1.4213333693	-0.8298306551	-3.379227206	-0.29475
C	-2.4832959996	-2.1800015459	-1.7672764186	 0.090699
O	-2.4312218745	-3.0205517464	-0.9096140461	-0.213646
H	 0.6195469446	 1.3545515037	 0.8327644431	 0.11108
H	-0.2832366468	 1.8711838089	-0.6170215148	 0.111863
H	-1.1577864668	 1.3517577616	 0.8487740515	 0.13247
H	 0.7279857785	 0.2159442855	-1.9242541899	 0.086048
H	 1.9288986995	-1.5438862772	 0.2938464068	 0.130262
H	 2.7393447096	-1.1076802114	-1.226933709	 0.120941
H	 2.3809500171	 0.1406600253	-0.0314808814	 0.121581
H	 0.7890482665	-2.1551829907	-2.5988756904	 0.127715
H	 0.0118600212	-2.6325859298	-1.0634775751	 0.136937
H	-3.4336115024	-1.8006917257	-2.1992316003	 0.103844
25.6017	60.1761	76.4059	123.3607	134.2911	194.7599	229.0313	242.679	287.6932	334.8241	440.9842	467.6354	491.5605	544.8082	648.5885	800.9714	821.6402	907.7962	927.2176	998.1506	1067.2139	1102.7145	1116.2658	1161.1501	1171.3281	1184.9551	1215.8262	1260.0508	1321.5166	1362.9795	1375.7227	1385.7109	1405.8473	1464.0576	1477.5185	1482.4299	1491.6356	1502.3005	1511.5751	1803.4458	1826.0007	2922.8484	2977.4912	2985.7765	3035.728	3042.5756	3064.5591	3112.4656	3116.1391	3117.9719	3126.8743
COC(C)CC(=O)C=O	CO[C@@H](C)CC(=O)C=O	
InChI=1S/C6H10O3/c1-5(9-2)3-6(8)4-7/h4-5H,3H2,1-2H3	InChI=1S/C6H10O3/c1-5(9-2)3-6(8)4-7/h4-5H,3H2,1-2H3/t5-/m0/s1
