14
gdb 132045	2.40145	1.85722	1.0541	2.3394	70.41	-0.2344	-0.0528	0.1816	1049.7955	0.100415	-478.003799	-477.996065	-477.995121	-478.036268	28.389	
C	 0.0220614005	 1.5122979645	 0.0112874531	-0.476857
C	-0.0239169814	 0.0177008787	 0.0234797508	 0.169626
C	-1.161059507	-0.6964901671	-0.1089830668	 0.164277
F	-2.3436918329	-0.1107726136	-0.2629261604	-0.04966
C	-1.1776761557	-2.1488281286	-0.0936088522	 0.314288
N	-2.2122481343	-2.8628024424	-0.214433243	-0.527766
O	 0.0952340827	-2.7101050651	 0.0718245293	-0.220463
C	 1.1784077951	-1.9142408533	 0.1961264312	 0.124577
N	 1.1987596989	-0.6431073077	 0.1829893324	-0.320312
H	 0.672527516	 1.8590132995	-0.7987225076	 0.148063
H	-0.9720976725	 1.9403184937	-0.1177507536	 0.143761
H	 0.4549815866	 1.8801588169	 0.9476101947	 0.148065
H	-1.9811695252	-3.8551686376	-0.1738834138	 0.23283
H	 2.0815890992	-2.503950768	 0.3152118059	 0.149571
111.1554	129.3689	158.3013	286.7709	299.93	318.4647	495.5516	503.0936	520.9926	530.3279	616.0753	680.8931	753.7289	847.6566	874.5705	936.1257	940.1545	980.9775	1061.5187	1107.193	1144.8812	1225.6803	1278.1249	1376.7513	1409.9816	1423.9009	1477.8902	1478.8526	1652.8631	1695.9222	1759.5052	3043.234	3097.2095	3156.5645	3200.5829	3502.1021
CC1=C(F)C(=N)OC=N1	C[C@H]1C(=C([NH])OC=N1)F	
InChI=1S/C5H5FN2O/c1-3-4(6)5(7)9-2-8-3/h2,7H,1H3	InChI=1S/C5H6FN2O/c1-3-4(6)5(7)9-2-8-3/h2-3,7H,1H3/t3-/m0/s1
