21
gdb 69821	3.13009	1.51056	1.25893	1.3931	81.76	-0.2331	0.084	0.3171	1081.8774	0.184175	-387.069993	-387.062182	-387.061238	-387.101626	32.283	
C	 0.1120948698	 1.5258564223	-0.0159005257	-0.475331
C	-0.0129845983	 0.0202539211	 0.033337999	 0.326059
C	-0.9541913308	-0.6355381285	 1.0113289743	-0.344356
C	 0.5429802582	-0.7599813718	 1.2091977236	-0.0738
C	 1.3177562309	-2.0192757728	 0.9150888139	-0.053915
C	 0.6859558228	-3.3914530324	 0.8012815851	-0.320273
C	 1.0960873014	-2.6460127928	-0.4365849254	 0.089947
O	 0.0679822699	-2.0927039207	-1.2087281689	-0.256381
C	 0.152111129	-0.6743966993	-1.3110642842	-0.136336
H	 1.0846333051	 1.8336942025	-0.4191018624	 0.114841
H	-0.6649968273	 1.9724578328	-0.6487400813	 0.115709
H	 0.0143586424	 1.961838382	 0.9832808058	 0.115677
H	-1.4935649152	 0.0000530272	 1.7058534703	 0.10358
H	-1.5074711898	-1.5037646121	 0.6727667933	 0.123828
H	 0.9509343784	-0.1710306245	 2.025312987	 0.079456
H	 2.3420437463	-1.9966553805	 1.2740729508	 0.085207
H	 1.2763795602	-4.2499820923	 1.1020334652	 0.109106
H	-0.3780435036	-3.4826275414	 0.9866219351	 0.122719
H	 1.9462736085	-2.9993981775	-1.0190166479	 0.083251
H	-0.6478661336	-0.381902421	-2.0001828874	 0.106339
H	 1.1124951659	-0.3785515003	-1.76611686	 0.084674
172.0569	205.7126	221.9937	269.8732	324.4245	361.2696	414.6978	453.6298	489.4853	534.1763	665.998	716.6732	778.3914	802.2842	826.6383	867.8236	921.0369	935.6371	945.5347	993.287	1000.0927	1041.0633	1052.4468	1059.7105	1076.3558	1081.2151	1119.8564	1123.5011	1145.7515	1149.7902	1178.3331	1235.8645	1258.2099	1301.3642	1328.2412	1357.2447	1388.4604	1406.255	1417.0272	1428.2183	1478.9815	1489.6503	1490.87	1495.5085	1506.9431	2963.0102	3016.4983	3062.3694	3073.0272	3096.475	3102.6264	3132.4023	3138.3893	3140.6484	3156.2071	3221.3524	3228.7919
CC12CC1C1CC1OC2	C[C@]12C[C@H]1[C@H]1C[C@H]1OC2	
InChI=1S/C8H12O/c1-8-3-6(8)5-2-7(5)9-4-8/h5-7H,2-4H2,1H3	InChI=1S/C8H12O/c1-8-3-6(8)5-2-7(5)9-4-8/h5-7H,2-4H2,1H3/t5-,6+,7-,8-/m1/s1
