18
gdb 7462	3.82387	1.20155	1.07464	1.7536	77.08	-0.2417	0.0371	0.2788	1191.9657	0.151486	-347.767088	-347.757837	-347.756893	-347.802733	32.018	
C	 0.1111359696	 1.5420962557	-0.1089028961	-0.499077
C	 0.0891788923	 0.0879846097	-0.0488494586	 0.02112
C	 0.06098487	-1.115401321	-0.0017575847	 0.114383
C	 0.0350091867	-2.574074671	 0.0558477175	 0.226401
C	 0.9316142117	-3.1942430927	-1.0113695862	-0.429401
C	 0.1615821104	-3.1717999448	 1.4918383448	-0.318819
C	-1.3039516228	-3.5973585669	 1.3004503148	-0.064706
O	-1.3278926745	-3.0951613867	-0.0506210995	-0.304297
H	 0.7942409722	 1.8999118497	-0.8870694436	 0.148774
H	-0.8845755167	 1.9402661864	-0.3333723316	 0.153228
H	 0.43418463	 1.9766492367	 0.8435870868	 0.147624
H	 1.9674109116	-2.8664689739	-0.8790329348	 0.122576
H	 0.8898190897	-4.2852264219	-0.9467160269	 0.114928
H	 0.5961830611	-2.8888774226	-2.0062047449	 0.133662
H	 0.8791639334	-3.9912010309	 1.5623054624	 0.110029
H	 0.3534910447	-2.4464328885	 2.2816056769	 0.117376
H	-1.5074822207	-4.6738246653	 1.3391565122	 0.101863
H	-2.0264614789	-3.0774651822	 1.9416685215	 0.104337
19.2952	57.054	113.1326	120.6049	230.1415	288.5441	300.8108	348.6126	363.5174	499.5245	542.4158	592.573	769.9522	826.7789	869.0118	891.8814	972.6994	994.6039	1025.2386	1050.9816	1054.1058	1070.5229	1118.6669	1162.7583	1191.8721	1213.2943	1258.6521	1294.5298	1349.8018	1399.6941	1413.5744	1476.7646	1478.1022	1478.5056	1484.2859	1491.214	1531.1597	2364.1227	3017.0164	3026.7626	3039.0362	3056.341	3083.491	3087.3847	3088.9056	3116.5362	3122.9737	3147.2993
CC#CC1(C)CCO1	CC#C[C@@]1(C)CCO1	
InChI=1S/C7H10O/c1-3-4-7(2)5-6-8-7/h5-6H2,1-2H3	InChI=1S/C7H10O/c1-3-4-7(2)5-6-8-7/h5-6H2,1-2H3/t7-/m0/s1
