14
gdb 124920	2.02081	1.90233	0.98593	5.7006	71.31	-0.2449	-0.0164	0.2285	1113.4537	0.102111	-432.918093	-432.909727	-432.908782	-432.951986	29.776	
C	-0.0491727079	 1.4931448597	 0.0861543949	-0.512948
C	 0.0238714341	 0.0107242694	-0.0534018206	 0.305345
C	-0.0094212085	-0.79454607	-1.1920148172	-0.050348
C	-0.1254428567	-0.3640876222	-2.5305584707	 0.20002
N	-0.2214548225	 0.0109359015	-3.6229227161	-0.363174
C	 0.099165448	-2.1224934425	-0.6898034383	 0.359306
O	 0.108891084	-3.2280754438	-1.4454475667	-0.410679
N	 0.1911748828	-2.1529596541	 0.6248710754	-0.326206
N	 0.1424999553	-0.8374102803	 0.9844537873	-0.265349
H	 0.8501570546	 1.8950932816	 0.5650166474	 0.149364
H	-0.1425961837	 1.9515516816	-0.8998822235	 0.172254
H	-0.913566542	 1.7967981867	 0.686398465	 0.149358
H	 0.1921318194	-3.9867942204	-0.8532433204	 0.311371
H	 0.196605703	-0.6038294272	 1.9613649334	 0.281687
33.515	128.1709	139.897	213.1029	272.1269	364.6861	416.4279	421.4328	478.5676	545.0465	553.7773	595.6283	654.3876	670.5042	755.1976	806.0773	1003.4718	1059.5359	1059.8026	1142.6178	1225.5773	1282.6887	1332.9884	1416.6495	1445.0172	1483.025	1491.849	1544.5521	1578.273	1621.3369	2343.6517	3039.0823	3094.5444	3140.917	3675.7044	3791.5399
CC1=C(C#N)C(O)=NN1	Cc1c(C#N)c(O)n[nH]1	
InChI=1S/C5H5N3O/c1-3-4(2-6)5(9)8-7-3/h1H3,(H2,7,8,9)	InChI=1S/C5H5N3O/c1-3-4(2-6)5(9)8-7-3/h1H3,(H2,7,8,9)
