19
gdb 71345	3.36697	1.48485	1.20654	1.7304	79.78	-0.2266	0.0944	0.321	1071.7271	0.158045	-385.783204	-385.775523	-385.774579	-385.814967	31.162	
C	 0.0515584868	 1.4639575703	-0.1302554665	-0.52773
C	 0.0180112677	-0.0264784451	-0.0345227496	 0.507198
O	 0.5700798746	-0.8256796281	-1.1319905655	-0.372622
C	 0.1009782135	-1.8093303736	-0.1680765166	 0.108909
C	 0.5477322745	-0.9951762713	 1.0873140886	-0.271905
C	-0.8395572067	-1.1072737834	 1.714075242	 0.417895
C	-1.3698988161	-1.9827446537	 2.7993168718	-0.353523
C	-1.4433536745	-0.464172458	 2.9186915726	-0.343298
C	-1.1810790441	-1.0113654013	 0.2294424581	-0.271899
H	 1.0827168963	 1.819752755	-0.2181486313	 0.134329
H	-0.5074739468	 1.8048767017	-1.0071020302	 0.134327
H	-0.3963261986	 1.907190833	 0.7641296701	 0.133544
H	 0.2223693382	-2.868036684	-0.3927274184	 0.095832
H	 1.5351913975	-0.9859176947	 1.5495078959	 0.080067
H	-2.297089994	-2.5211166671	 2.6289506816	 0.112654
H	-0.6654755774	-2.5058331582	 3.4386283259	 0.112654
H	-0.7878345618	 0.0178029444	 3.6375607094	 0.11175
H	-2.4194238588	 0.0025419478	 2.8279038134	 0.11175
H	-2.1463993403	-1.0203922435	-0.2773709112	 0.080067
127.0518	198.492	211.2409	258.6069	296.5271	329.2974	501.5704	551.3512	559.1084	667.6012	735.3617	768.9335	774.2606	800.7086	820.8028	885.6763	887.3079	917.921	940.9574	964.427	990.3092	996.7658	1048.2795	1077.6144	1080.8396	1104.4714	1110.6031	1138.2591	1153.8738	1155.6752	1183.1092	1185.1878	1245.9318	1277.2341	1360.1546	1411.8081	1427.7346	1463.1457	1474.9111	1490.4784	1518.7238	3039.6165	3111.5185	3114.9614	3115.4205	3118.6226	3119.1546	3122.6185	3134.3316	3195.3587	3209.7095
CC12OC3C1C1(CC1)C23	C[C@@]12O[C@H]3[C@@H]1C1(CC1)[C@@H]23	
InChI=1S/C8H10O/c1-7-5-4(9-7)6(7)8(5)2-3-8/h4-6H,2-3H2,1H3	InChI=1S/C8H10O/c1-7-5-4(9-7)6(7)8(5)2-3-8/h4-6H,2-3H2,1H3/t4-,5-,6+,7+
