16
gdb 24317	2.81966	2.43429	1.5051	2.6176	75.17	-0.1832	-0.0144	0.1688	849.4844	0.127359	-400.68518	-400.679046	-400.678102	-400.715413	25.394	
C	-0.1679291648	 1.4865068084	-0.0490582704	-0.317988
C	 1.3880092036	 1.7417020697	 0.0960068003	-0.02015
C	 2.2006078909	 1.7115532999	 1.4313134452	-0.105384
O	 3.0274097816	 0.4840400838	 1.3458469553	-0.261633
C	 2.2086977818	-0.3698516716	 0.6570836608	 0.213182
C	 1.4088059696	-1.4553801468	 0.9780345273	-0.230152
C	 0.1171235973	-1.1923795115	 0.3792606592	-0.152624
C	 0.2024082122	-0.0045335322	-0.3297904293	 0.026388
N	 1.5627718756	 0.3426084496	-0.3050671575	 0.0362
H	-0.7492185848	 1.6131189844	 0.8670188073	 0.127517
H	-0.6296895796	 2.0622371468	-0.853962302	 0.123831
H	 1.7983180859	 2.4691917174	-0.6090990343	 0.10161
H	 2.8865939537	 2.5514742322	 1.5474838582	 0.129264
H	 1.556535662	 1.6319385431	 2.3146188309	 0.122891
H	 1.653260568	-2.2794740532	 1.6306543979	 0.108994
H	-0.767782753	-1.78406859	 0.5706332211	 0.098053
162.3512	289.8613	327.5189	378.7856	549.1975	610.925	633.6936	663.8409	719.7037	730.5637	778.2474	829.7534	849.4393	861.3945	884.6789	905.8112	992.5817	1009.3742	1030.1816	1040.4974	1116.2214	1138.8078	1201.1682	1208.0322	1221.9175	1248.2236	1253.4477	1308.4069	1328.2405	1358.3802	1405.7571	1447.8558	1471.7866	1494.8207	1540.4714	3041.5125	3064.9263	3071.3871	3121.6677	3134.7905	3224.8659	3253.117
C1C2COC3=CC=C1N23	C1[C@H]2CO[C]3C=C[C]1N23	
InChI=1S/C7H7NO/c1-2-7-8-5(1)3-6(8)4-9-7/h1-2,6H,3-4H2	InChI=1S/C7H7NO/c1-2-7-8-5(1)3-6(8)4-9-7/h1-2,6H,3-4H2/t6-/m0/s1
