17
gdb 32143	2.78183	1.42002	0.95127	2.0263	79.92	-0.2345	-0.0382	0.1964	1214.8257	0.136624	-418.065642	-418.057214	-418.05627	-418.099011	30.463	
C	-0.0114883994	 1.3996893521	-0.163188814	-0.232984
O	-0.028802073	-0.0239499033	-0.0588197444	-0.26079
C	-1.2316267179	-0.6173425286	 0.0155134654	 0.406546
C	-1.2515888124	-2.0228516893	 0.118627595	-0.084143
N	-2.3947653541	-2.6789894902	 0.1960063434	-0.229826
C	-3.5213191767	-1.9497059173	 0.1718227191	-0.077349
C	-3.5056239777	-0.5637436494	 0.0702461276	 0.31182
C	-4.7651253084	 0.2558582458	 0.0429000991	-0.469411
N	-2.3381990348	 0.1029089837	-0.0085286242	-0.399803
H	 1.0426084152	 1.6752793924	-0.2104777398	 0.131539
H	-0.5331746567	 1.7344478413	-1.0644014354	 0.135455
H	-0.4875542444	 1.863642534	 0.7054379066	 0.135455
H	-0.3223083336	-2.5844788782	 0.1356600599	 0.120557
H	-4.4593290922	-2.4930337833	 0.2356767078	 0.10559
H	-5.6541202011	-0.3752716616	 0.1118490281	 0.126148
H	-4.7763937064	 0.9686107216	 0.8739448658	 0.140598
H	-4.8215933464	 0.8405651503	-0.8810643399	 0.140598
90.0741	115.17	166.0367	202.4577	202.8282	244.4501	358.0592	467.5344	483.8737	553.3101	624.9541	628.1632	718.7681	781.8501	887.3663	944.6465	960.3838	1016.6767	1038.2824	1059.6254	1075.5892	1178.2818	1186.2827	1211.5604	1256.086	1282.266	1353.6847	1410.2658	1431.531	1466.6764	1475.228	1480.0627	1485.9978	1500.0041	1506.6111	1589.4507	1621.136	3040.1998	3041.9036	3099.01	3112.0987	3128.1739	3149.8325	3169.9014	3174.5426
COC1=CN=CC(C)=N1	COc1cncc(C)n1	
InChI=1S/C6H8N2O/c1-5-3-7-4-6(8-5)9-2/h3-4H,1-2H3	InChI=1S/C6H8N2O/c1-5-3-7-4-6(8-5)9-2/h3-4H,1-2H3
