17
gdb 33114	4.64496	0.79748	0.71349	2.939	71.57	-0.2066	0.0288	0.2354	1540.0233	0.136764	-455.176715	-455.16782	-455.166876	-455.211012	32.411	
N	 0.0549457981	 1.3410688767	 0.0913543633	-0.588276
C	-0.048667713	-0.024840736	 0.0206039623	 0.45453
N	-1.1282501541	-0.7435043372	-0.0015262249	-0.383571
C	-0.6548498365	-2.0628135612	 0.00791081	 0.257713
C	-1.594241227	-3.2217376876	 0.014419546	-0.331156
C	-2.4104043666	-3.3076150051	 1.3155903321	-0.055502
O	-3.3164370519	-4.398437782	 1.315127853	-0.417595
C	 0.6952305899	-2.0450334601	 0.0297261466	-0.146002
O	 1.1068832435	-0.7209102506	 0.0374856647	-0.182059
H	 0.8932587123	 1.7250904499	-0.3191217985	 0.264776
H	-0.7894283767	 1.8151671029	-0.1919689432	 0.27086
H	-2.2915619192	-3.1240954929	-0.8289774011	 0.102762
H	-1.0443531579	-4.1577207276	-0.1253753025	 0.110054
H	-1.7358084945	-3.477121419	 2.161063709	 0.112715
H	-2.9211648812	-2.3502528044	 1.4895007304	 0.110269
H	-3.9896483045	-4.2196295815	 0.6509545967	 0.281121
H	 1.4743439094	-2.7861466642	 0.031559126	 0.139363
61.4871	91.3882	101.6447	247.5226	283.4311	301.1091	322.4764	357.3053	391.6179	455.8822	588.8924	653.9795	684.1356	714.6283	767.6152	789.7912	800.8849	968.3526	1002.0287	1015.9827	1046.4826	1074.1384	1106.5096	1137.0737	1156.9548	1230.6899	1292.4175	1303.1894	1330.1378	1396.6428	1413.3197	1446.4422	1474.2175	1512.2427	1603.7717	1644.8165	1685.0818	3011.0683	3015.8847	3073.5708	3093.4869	3301.6059	3578.4229	3687.5862	3816.7074
NC1=NC(CCO)=CO1	Nc1nc(CCO)co1	
InChI=1S/C5H8N2O2/c6-5-7-4(1-2-8)3-9-5/h3,8H,1-2H2,(H2,6,7)	InChI=1S/C5H8N2O2/c6-5-7-4(1-2-8)3-9-5/h3,8H,1-2H2,(H2,6,7)
