25
gdb 95510	2.0573	1.6008	1.15838	0.2209	94.06	-0.2357	0.0326	0.2682	1232.1086	0.229479	-352.386506	-352.376871	-352.375927	-352.419909	38.672	
C	-0.0262412103	 1.5802866837	-0.0937120252	-0.420654
C	 0.0526414715	 0.0499943632	-0.011233096	 0.021598
C	 0.6689161827	-0.5297719323	-1.2960836722	-0.213946
C	 0.5639648553	-2.0579658698	-1.3401413282	-0.266122
C	 0.9396132379	-2.6714595232	-0.0191019926	-0.081355
C	 1.0455179457	-1.9731210428	 1.109252047	-0.05248
C	 0.778467804	-0.4873890644	 1.261539727	 0.247587
C	 2.1235093471	 0.2283431341	 1.5252657804	-0.415185
C	-0.1257796472	-0.2973089564	 2.4994762949	-0.426835
H	 0.9593348432	 2.0262798914	-0.2634343595	 0.11553
H	-0.667216793	 1.8799044644	-0.9295966045	 0.109161
H	-0.4429586158	 2.0267811715	 0.8140622413	 0.111159
H	-0.978125003	-0.3298747458	 0.0471017066	 0.066785
H	 0.1749631215	-0.0914030885	-2.1709651674	 0.086468
H	 1.7243802534	-0.2349834424	-1.3596345411	 0.097294
H	-0.459455357	-2.3608819668	-1.6092703619	 0.104559
H	 1.2037548797	-2.4622495203	-2.1350268296	 0.098585
H	 1.1322826775	-3.7421492398	-0.0056850951	 0.080197
H	 1.3417479952	-2.4837676713	 2.0251491648	 0.074113
H	 2.784115819	 0.1842362438	 0.654441625	 0.113978
H	 1.9741987086	 1.2795035683	 1.7914474389	 0.110268
H	 2.6497003844	-0.250818797	 2.3579131377	 0.108085
H	 0.3609609579	-0.6911436054	 3.3986294936	 0.107231
H	-0.3432263564	 0.7598460308	 2.6816556379	 0.110861
H	-1.0771439519	-0.8252407851	 2.3769388382	 0.113116
92.8479	185.1049	217.6537	234.7712	267.3986	282.8779	294.5914	299.5066	336.7744	397.1295	449.039	463.02	504.5741	534.7305	679.459	712.7019	756.5666	836.1337	878.4153	916.6276	937.0316	948.848	950.3726	973.8712	1009.0478	1018.529	1050.8914	1063.649	1102.2961	1133.9399	1153.9711	1173.4886	1226.4857	1230.7563	1270.4347	1283.3376	1327.6092	1364.3062	1372.9224	1383.8196	1395.8732	1406.3144	1410.19	1433.1065	1475.618	1482.0786	1484.881	1494.0234	1500.1525	1503.843	1509.7516	1511.7994	1726.3008	2989.5224	2993.0197	3020.3411	3027.5867	3031.9872	3035.5964	3039.1326	3061.5325	3092.038	3095.6161	3098.5571	3102.9039	3108.0124	3110.2569	3121.3574	3152.7521
CC1CCC=CC1(C)C	C[C@H]1CCC=CC1(C)C	
InChI=1S/C9H16/c1-8-6-4-5-7-9(8,2)3/h5,7-8H,4,6H2,1-3H3	InChI=1S/C9H16/c1-8-6-4-5-7-9(8,2)3/h5,7-8H,4,6H2,1-3H3/t8-/m0/s1
