17
gdb 76014	2.56714	1.22478	1.07294	3.038	81.57	-0.2407	0.0036	0.2443	1190.5306	0.133788	-380.833315	-380.823533	-380.822589	-380.867639	35.701	
C	-0.0983368694	 1.5614774097	 0.0122857216	-0.426875
C	 0.0207514815	 0.0548502093	 0.0649983264	-0.04455
C	 1.3340741302	-0.6679577637	-0.2367108178	-0.269777
C	 2.5345118985	 0.0860219648	-0.4138428576	 0.29364
N	 3.5040591822	 0.7136742896	-0.5051674808	-0.345612
C	 0.6998909726	-0.6593567764	 1.2045684299	 0.074055
N	 1.2710394489	 0.1024410065	 2.2800997889	-0.553955
C	 0.1565549166	-1.9254097275	 1.6235870572	 0.317208
C	-0.2791260655	-2.9921131618	 1.9657609624	-0.417996
H	 0.8395937906	 2.0674799497	 0.2528805076	 0.139361
H	-0.3846250013	 1.8784842516	-0.9950933084	 0.13605
H	-0.864980424	 1.9090970694	 0.7108871078	 0.140743
H	-0.8434296968	-0.4716344086	-0.3274792907	 0.116609
H	 1.281985216	-1.5947066918	-0.7958823453	 0.140679
H	 1.973277126	-0.451389541	 2.7611193665	 0.247117
H	 1.7333555621	 0.9382220768	 1.938892671	 0.249091
H	-0.6737420085	-3.9286307867	 2.2746342712	 0.204212
106.616	120.9564	145.722	154.404	162.3338	194.5818	263.7588	343.4198	382.6682	449.7804	478.1602	543.9411	598.7171	609.302	616.0954	674.0183	693.1537	761.8897	827.7181	878.9769	945.2963	997.0279	1011.0872	1039.8801	1122.1297	1145.0139	1179.2855	1301.8667	1311.533	1348.3437	1420.5103	1438.5092	1491.6336	1501.0496	1655.5104	2241.688	2337.6049	3047.1938	3112.9078	3124.2617	3163.5518	3184.0749	3500.4429	3507.6934	3591.7407
CC1C(C#N)C1(N)C#C	C[C@H]1[C@@H](C#N)[C@]1(N)C#C	
InChI=1S/C7H8N2/c1-3-7(9)5(2)6(7)4-8/h1,5-6H,9H2,2H3	InChI=1S/C7H8N2/c1-3-7(9)5(2)6(7)4-8/h1,5-6H,9H2,2H3/t5-,6+,7-/m0/s1
