14
gdb 28406	3.27712	1.42056	0.99099	2.537	72.03	-0.1904	-0.0304	0.16	1095.1535	0.101454	-473.866269	-473.858725	-473.857781	-473.898069	29.331	
O	 0.0801855012	 1.3229674919	 0.0071180702	-0.408156
C	-0.0530138462	-0.0124632534	 0.0012252745	 0.461085
C	-1.2221459754	-0.6778536205	 0.0044384716	-0.287403
C	-1.1891090526	-2.1131556899	-0.0028498281	-0.181685
C	-0.0034873955	-2.7670824286	-0.0126996994	 0.286777
O	 0.1229286775	-4.1115514334	-0.0200638207	-0.431887
C	 1.2438551529	-2.024640785	-0.0160115386	 0.325266
N	 2.3637669861	-2.6332886971	-0.0251762846	-0.581177
O	 1.148523863	-0.6454773266	-0.0086130342	-0.267693
H	 1.0221518433	 1.5328163312	 0.0028583619	 0.310374
H	-2.1496088804	-0.1246098022	 0.0123440824	 0.119706
H	-2.1135971928	-2.6779046476	-0.0004964739	 0.119802
H	 1.0821586344	-4.2788231472	-0.0263013368	 0.307277
H	 3.1620493646	-2.0033098116	-0.0264674742	 0.227712
130.9101	176.4326	276.1924	320.996	346.9881	382.2392	399.2628	473.5164	520.8598	562.3514	602.6056	653.7435	754.1469	754.808	782.3114	784.8311	804.1918	912.2042	970.6999	1040.206	1101.2557	1200.0141	1214.9324	1285.5409	1292.533	1338.2746	1424.1475	1476.9558	1658.8045	1698.2651	1754.3198	3208.2885	3243.2285	3531.6489	3646.2691	3809.1537
OC1=CC=C(O)C(=N)O1	OC1=CCC(=C([NH])O1)O	
InChI=1S/C5H5NO3/c6-5-3(7)1-2-4(8)9-5/h1-2,6-8H	InChI=1S/C5H6NO3/c6-5-3(7)1-2-4(8)9-5/h2,6-8H,1H2
