17
gdb 30267	4.71882	1.28514	1.04872	5.0239	74.32	-0.1981	0.0378	0.2359	1120.7778	0.138895	-418.041312	-418.033992	-418.033048	-418.073253	28.063	
C	-0.5924749463	 1.4363056592	-0.032427271	-0.408816
C	 0.1968684151	 0.1450599046	 0.0243487413	 0.113461
C	 1.0990121827	-0.1374645193	-1.2149184256	-0.218863
N	 2.2443617747	-0.7360789617	-0.559391334	-0.05418
C	 3.4407660802	-1.3560742708	-0.8230821434	-0.018602
N	 4.1288418161	-1.5230593615	 0.2807805319	-0.266564
C	 3.3767152991	-0.98124715	 1.3147117145	-0.229881
C	 2.2177695066	-0.4903832637	 0.7857319034	 0.367928
O	 1.1021839789	 0.1830354221	 1.1603131762	-0.289582
H	 0.0764750337	 2.2909300753	-0.1685830033	 0.135205
H	-1.3024829805	 1.409286229	-0.865114264	 0.12643
H	-1.1554635198	 1.5794864384	 0.893138429	 0.142088
H	-0.474210737	-0.7107569458	 0.1758443398	 0.101967
H	 0.6162337928	-0.8152267861	-1.9228622059	 0.134163
H	 1.3742429729	 0.7864020802	-1.738899971	 0.126056
H	 3.7316339062	-1.672651806	-1.8125421285	 0.127689
H	 3.7164498345	-0.9878972239	 2.3363920306	 0.1115
80.1231	168.5734	225.4817	269.3658	307.6167	443.9925	474.7414	581.9791	660.6921	678.5823	755.8466	760.1793	789.1011	796.0629	838.2728	906.8044	946.7107	963.8929	1080.9383	1105.6415	1127.4871	1154.1451	1186.7673	1222.0055	1252.5034	1261.4089	1312.03	1355.1886	1388.5568	1394.3745	1416.2841	1447.1676	1483.7183	1497.1926	1503.1096	1532.3231	1627.8217	3016.3656	3027.8551	3045.5792	3100.0216	3118.9423	3130.2567	3257.7928	3274.435
CC1CN2C=NC=C2O1	C[C@H]1Cn2cncc2O1	
InChI=1S/C6H8N2O/c1-5-3-8-4-7-2-6(8)9-5/h2,4-5H,3H2,1H3	InChI=1S/C6H8N2O/c1-5-3-8-4-7-2-6(8)9-5/h2,4-5H,3H2,1H3/t5-/m0/s1
