21
gdb 60014	3.0152	0.82644	0.75774	4.0957	80.83	-0.2494	0.0162	0.2657	1586.9071	0.180773	-420.404911	-420.394403	-420.393459	-420.440983	37.724	
C	 0.3354965505	 1.5435147955	-0.2822258987	-0.386983
C	 0.1845219576	 0.0341632493	-0.1461451686	 0.13855
O	 0.9836922044	-0.5856428492	-1.1342596411	-0.434621
C	 0.6129943809	-0.4598040189	 1.2436157145	-0.164443
N	 0.6285192597	-1.9276415147	 1.2987177849	-0.085251
C	 1.5856158249	-2.4557134211	 2.2680837526	-0.342253
C	-0.7094750787	-2.4741539404	 1.5084294993	-0.285115
C	-0.768166305	-3.9132262784	 1.2262992658	 0.273908
N	-0.8206871727	-5.0476296653	 1.0158465042	-0.303694
H	 1.3760116495	 1.8392652759	-0.1146168352	 0.122567
H	 0.0516022501	 1.857785203	-1.2897087615	 0.131621
H	-0.3014335791	 2.0686796659	 0.436553032	 0.110827
H	-0.8798940482	-0.2198698362	-0.3064873378	 0.060261
H	 1.1020697069	-1.4981330861	-0.8333966583	 0.280659
H	 1.6378773138	-0.1184816898	 1.4186670793	 0.11205
H	-0.0216490887	-0.0178476921	 2.0323774147	 0.086586
H	 1.3482576794	-2.1625430356	 3.3060890459	 0.104448
H	 1.5999106164	-3.5476956125	 2.2150466008	 0.151148
H	 2.5858761014	-2.0896771766	 2.0252517576	 0.135592
H	-1.0761087602	-2.3113747405	 2.5397581221	 0.133708
H	-1.415174393	-1.9728782522	 0.8392389975	 0.160435
54.8292	64.917	105.4171	170.6733	183.771	223.9281	246.7354	288.1391	367.3736	382.8132	391.2683	408.2642	468.1577	505.4462	541.0923	598.042	851.5355	854.3848	931.3563	949.5196	952.9233	998.8144	1052.3699	1076.2061	1102.3996	1148.5903	1176.118	1186.5039	1237.6118	1289.1638	1309.5395	1317.9683	1362.5343	1384.3886	1395.6667	1409.5226	1447.7209	1458.8024	1473.9603	1484.1244	1489.788	1495.7805	1501.2364	1506.5924	2366.9769	2920.1536	2930.9879	2948.6353	2956.4041	3040.8452	3080.4419	3084.0144	3084.5495	3113.0347	3123.9594	3127.6326	3726.7271
CC(O)CN(C)CC#N	C[C@@H](O)CN(C)CC#N	
InChI=1S/C6H12N2O/c1-6(9)5-8(2)4-3-7/h6,9H,4-5H2,1-2H3	InChI=1S/C6H12N2O/c1-6(9)5-8(2)4-3-7/h6,9H,4-5H2,1-2H3/t6-/m1/s1
