17
gdb 84477	3.64182	1.22942	1.0941	4.5313	75.77	-0.2192	-0.0214	0.1978	1136.382	0.135636	-418.011318	-418.002952	-418.002007	-418.044728	30.502	
C	-0.2618876053	 1.3629357418	-0.0708360094	-0.339911
N	 0.1215168581	-0.0291427158	-0.0404791031	-0.023184
C	 0.4070659459	-0.8111710482	-1.1331032269	 0.030261
N	 0.3542083747	-2.087408236	-0.9713997447	-0.331645
C	 0.0175802315	-2.3126175642	 0.4043875367	 0.237033
C	 0.9559035859	-1.796901896	 1.4893841999	-0.333483
C	-0.1499440862	-0.8968063184	 1.0662789052	-0.062089
C	-0.8731982884	-3.4514020824	 0.7235254575	 0.086817
O	-1.2659882903	-3.7171627062	 1.8359467585	-0.281943
H	 0.3175189009	 1.9542730715	 0.6467308807	 0.138451
H	-0.0789096141	 1.760949344	-1.0719012187	 0.140752
H	-1.3287935412	 1.492429242	 0.1575322441	 0.133844
H	 0.6645016776	-0.3313547058	-2.0720493237	 0.129481
H	 0.8261063277	-2.2909945096	 2.4455154758	 0.145959
H	 1.9719876202	-1.5567963308	 1.1950043644	 0.123149
H	-0.964929324	-0.628856314	 1.730585359	 0.118943
H	-1.1674792028	-4.0460799118	-0.1671850355	 0.087567
62.0927	111.6848	152.0281	196.1732	240.8863	325.4686	349.1929	440.7232	509.1175	597.9671	619.3742	660.014	740.7054	807.6744	884.0231	926.7497	949.4464	978.1214	1045.1184	1051.1047	1069.377	1084.6284	1098.0975	1155.1534	1223.1415	1246.416	1289.9277	1334.6991	1359.6433	1411.7186	1422.204	1450.3366	1467.9387	1478.9866	1524.8783	1630.3716	1804.7985	2913.1826	3007.0995	3065.4425	3121.3813	3132.1227	3169.0545	3193.5795	3235.6551
CN1C=NC2(CC12)C=O	CN1C=N[C@]2(C[C@@H]12)C=O	
InChI=1S/C6H8N2O/c1-8-4-7-6(3-9)2-5(6)8/h3-5H,2H2,1H3	InChI=1S/C6H8N2O/c1-8-4-7-6(3-9)2-5(6)8/h3-5H,2H2,1H3/t5-,6-/m1/s1
