16
gdb 129666	3.12248	1.31592	0.99416	4.992	72.8	-0.2148	0.0024	0.2172	1159.0875	0.127076	-430.212648	-430.204556	-430.203612	-430.246063	29.561	
N	 0.2453892543	 1.3693628411	 0.5373571914	-0.614125
C	 0.0357049403	 0.0642300455	 0.0912652078	 0.216351
C	-1.0859454729	-0.6640442584	-0.2590855538	 0.314372
N	-0.6892767416	-1.9441173888	-0.5299500941	-0.277183
N	 0.595637388	-2.0544981009	-0.3868368461	-0.123428
N	 1.0455835686	-0.8384146516	-0.0003224118	-0.205656
C	-2.4988166329	-0.2511409357	-0.3317043967	-0.115405
C	-3.4219047199	-0.9132735386	-1.2937708053	-0.235502
N	-3.5540761411	-1.1683114636	 0.1473129654	-0.321988
H	 0.8505156303	 1.9134145691	-0.0678075327	 0.257423
H	-0.6269907367	 1.8662205931	 0.6621767605	 0.261954
H	 2.0213771183	-0.7097803457	 0.2148679544	 0.278698
H	-2.6845900105	 0.790949076	-0.0779701447	 0.069495
H	-4.2363958827	-0.347165871	-1.7377393808	 0.114103
H	-2.9948352416	-1.6914206721	-1.9192221178	 0.134461
H	-3.11385937	-2.0620135083	 0.3615090243	 0.24643
48.6681	131.8537	161.6067	178.5186	275.3026	303.1489	456.6833	499.1893	541.5444	631.3136	682.9562	738.3536	758.5695	779.038	827.9944	887.9901	974.6318	999.9687	1026.1287	1065.3115	1105.2111	1115.3252	1135.855	1179.8502	1200.3461	1272.3406	1295.2538	1311.101	1337.7242	1393.4381	1419.9829	1499.6664	1530.2326	1634.5524	1666.5299	3109.7879	3116.7352	3204.876	3486.7027	3521.7506	3616.6673	3657.1274
NC1=C(N=NN1)C1CN1	Nc1c(nn[nH]1)[C@H]1CN1	
InChI=1S/C4H7N5/c5-4-3(2-1-6-2)7-9-8-4/h2,6H,1H2,(H3,5,7,8,9)	InChI=1S/C4H7N5/c5-4-3(2-1-6-2)7-9-8-4/h2,6H,1H2,(H3,5,7,8,9)/t2-/m1/s1
