16
gdb 55504	2.75894	1.26031	1.07208	2.9998	68.39	-0.2519	-0.0445	0.2074	1170.6622	0.122573	-471.243126	-471.233635	-471.232691	-471.277949	33.914	
C	-0.1010760575	 1.1886669206	-0.3169691245	-0.468041
C	-0.2149764774	-0.2501529687	 0.0824256456	 0.410043
N	-1.1185229824	-0.8685234023	 0.7078433402	-0.476722
O	 0.924774826	-0.9465105712	-0.2816606278	-0.225053
C	 0.8178696948	-2.2316631393	-0.7056207119	 0.449922
O	 1.6010519234	-3.0704309602	-0.3581433534	-0.317918
C	-0.2277593972	-2.5065431328	-1.7807519162	 0.259851
N	-0.4606414506	-3.8456896884	-1.9114046064	-0.535674
N	-0.7149571646	-1.521572322	-2.431021787	-0.517808
H	 0.8559902491	 1.5997201502	 0.0174292241	 0.14998
H	-0.1309453709	 1.2500810538	-1.408635014	 0.17175
H	-0.9157307572	 1.7787602545	 0.10560971	 0.127213
H	-1.8923822313	-0.2461278832	 0.9326453425	 0.229278
H	 0.2146413308	-4.457143701	-1.4776214125	 0.276853
H	-0.9178512141	-4.1814232667	-2.7428682071	 0.255523
H	-1.3555718509	-1.8319605834	-3.1637326016	 0.210804
66.2532	80.9994	95.6062	161.6633	174.0124	292.1346	349.1018	372.2924	410.9958	452.3763	512.5637	535.9155	568.4641	593.8951	638.7209	743.6428	812.4808	864.4774	875.7358	950.3506	1021.6229	1069.8644	1075.0096	1102.3927	1135.2547	1208.3605	1333.0714	1404.4986	1429.7457	1470.5365	1482.3674	1617.5282	1728.8554	1751.1881	1842.2147	3051.7911	3121.9373	3146.5924	3456.7487	3511.7456	3582.6818	3707.8478
CC(=N)OC(=O)C(N)=N	C[C]([NH])OC(=O)C(=N)N	
InChI=1S/C4H7N3O2/c1-2(5)9-4(8)3(6)7/h5H,1H3,(H3,6,7)	InChI=1S/C4H7N3O2/c1-2(5)9-4(8)3(6)7/h5H,1H3,(H3,6,7)
