25
gdb 121291	3.93143	0.79047	0.69087	0.2123	94.9	-0.2343	0.0336	0.2679	1737.1223	0.230479	-352.386999	-352.377345	-352.3764	-352.421733	36.949	
C	 0.035625281	 1.6358210087	-0.0070953218	-0.379334
C	-0.0454142343	 0.1064825329	 0.0157750826	-0.174865
C	 0.695749202	-0.5095973341	 1.2091493045	-0.176821
C	 0.7297601489	-2.0451950894	 1.23602638	 0.029515
C	 1.5986178277	-2.5670818216	 2.3920477853	-0.202949
C	 1.7545517783	-4.093411783	 2.345626394	-0.263608
C	 0.4424486352	-4.783420067	 2.0791111852	-0.038852
C	-0.6413155171	-4.1447761209	 1.6407645442	-0.061969
C	-0.6748172118	-2.6711855361	 1.3240619696	-0.24066
H	 1.0756017553	 1.9762010625	-0.0645566913	 0.112426
H	-0.4995498319	 2.0529087631	-0.8660436545	 0.109325
H	-0.4020377928	 2.0685970023	 0.8995669039	 0.112807
H	-1.0989719544	-0.1972438766	 0.0314209551	 0.098634
H	 0.3735752043	-0.2960845492	-0.9164366395	 0.09268
H	 1.7298460357	-0.1374372206	 1.2099455347	 0.085511
H	 0.2445875739	-0.1441495632	 2.1436130783	 0.087584
H	 1.1873569933	-2.3907268758	 0.2962073277	 0.067647
H	 2.5835976286	-2.086269127	 2.3715898212	 0.086359
H	 1.1301426771	-2.2804543617	 3.3436969796	 0.094206
H	 2.4831757886	-4.3765779611	 1.5707196839	 0.103975
H	 2.181000747	-4.4575761647	 3.2892744433	 0.098647
H	 0.4002349609	-5.8547277727	 2.2627092334	 0.079244
H	-1.5661133414	-4.6969462757	 1.487502239	 0.07877
H	-1.266967903	-2.1430227088	 2.088908545	 0.099686
H	-1.2178776209	-2.5180613603	 0.3833909168	 0.102041
75.4664	86.9572	123.4191	162.216	214.0015	252.4312	295.2803	349.2684	393.2162	429.5263	507.3256	516.2124	672.0802	740.0409	745.5187	812.2042	864.5333	872.0651	906.8	930.2589	941.4733	969.0863	1004.7455	1022.3669	1045.6176	1051.9047	1077.8189	1099.7357	1132.0117	1138.4084	1164.4552	1211.4092	1235.836	1264.9761	1286.9146	1301.3223	1324.6079	1336.3728	1346.175	1367.0645	1380.2968	1391.55	1400.7025	1412.9586	1419.2691	1474.2341	1478.7449	1481.881	1492.3211	1497.5604	1500.5393	1510.9576	1727.615	2976.3143	2986.7357	2992.6843	2996.3701	3013.388	3017.513	3027.592	3028.3439	3036.0438	3040.9947	3057.9111	3061.2724	3095.7186	3100.0754	3136.5809	3161.102
CCCC1CCC=CC1	CCC[C@H]1CCC=CC1	
InChI=1S/C9H16/c1-2-6-9-7-4-3-5-8-9/h3-4,9H,2,5-8H2,1H3	InChI=1S/C9H16/c1-2-6-9-7-4-3-5-8-9/h3-4,9H,2,5-8H2,1H3/t9-/m1/s1
