23
gdb 107659	3.05359	1.20442	1.02394	1.2394	85.06	-0.2438	0.0795	0.3233	1280.9777	0.207478	-388.289112	-388.280327	-388.279383	-388.322322	34.592	
C	-0.3756789176	 1.4765717397	-0.014528661	-0.380638
C	 0.1875015527	 0.0519832088	 0.0656658942	-0.259061
C	 0.7932692163	-0.4477674536	-1.2370898465	 0.381709
C	-0.1460601933	-1.0403955005	-2.2584194022	-0.332764
C	 0.7925481056	-1.9435684199	-1.4867908218	-0.103044
C	 1.9878101739	-2.5883926834	-2.1855866758	-0.100337
O	 3.1461009708	-1.7705983908	-2.2261119811	-0.237748
C	 2.8602565543	-0.4780326644	-2.7214404928	-0.100068
C	 2.0192290331	 0.3194908076	-1.7196078587	-0.273859
H	 0.4058250419	 2.2072590326	-0.2455081458	 0.118105
H	-1.143122564	 1.5532929815	-0.7922401196	 0.116306
H	-0.830410546	 1.7707980638	 0.9364554573	 0.111122
H	 0.9489081026	 0.0036412685	 0.8562334613	 0.095893
H	-0.6128432641	-0.6341667549	 0.3697168428	 0.090125
H	-1.2041628222	-1.0735806246	-2.0185896173	 0.104854
H	 0.0603181362	-0.88918543	-3.3142821418	 0.105184
H	 0.3377525156	-2.5575106327	-0.7149312331	 0.082942
H	 2.288719733	-3.4941135274	-1.6516633557	 0.108247
H	 1.7135071567	-2.8848620514	-3.2127116528	 0.08619
H	 3.8233839526	 0.0142176665	-2.8850374493	 0.105922
H	 2.3538126246	-0.544270001	-3.6999838959	 0.084045
H	 1.7338461968	 1.2817587338	-2.162816472	 0.09541
H	 2.6526857004	 0.5416060718	-0.8512410325	 0.101464
90.663	134.9034	164.7271	225.1103	255.396	347.037	354.8743	367.7416	400.2742	508.506	524.6156	631.4576	698.1363	777.342	795.074	869.0188	895.8638	914.8154	917.4887	965.5106	982.8488	991.8848	1047.8085	1062.3773	1070.0438	1074.6845	1099.1571	1120.7302	1151.247	1167.4003	1234.6544	1257.0314	1266.0217	1275.592	1323.0611	1340.8448	1367.6233	1374.5292	1393.8177	1409.1692	1417.02	1423.8173	1480.3051	1480.8358	1496.1514	1497.6316	1499.1345	1508.5284	1512.7899	2950.8148	2960.1224	3010.0696	3017.5138	3034.9335	3046.1641	3056.6011	3079.9968	3082.4014	3102.8166	3105.5185	3116.5405	3144.518	3199.1661
CCC12CC1COCC2	CC[C@]12C[C@H]1COCC2	
InChI=1S/C8H14O/c1-2-8-3-4-9-6-7(8)5-8/h7H,2-6H2,1H3	InChI=1S/C8H14O/c1-2-8-3-4-9-6-7(8)5-8/h7H,2-6H2,1H3/t7-,8-/m0/s1
