22
gdb 114382	3.36629	1.02159	0.95414	2.6615	82.65	-0.2228	0.0702	0.293	1352.5711	0.193153	-404.297434	-404.287703	-404.286759	-404.331798	36.804	
C	-0.077181471	 1.5806782453	 0.2999559203	-0.472548
C	 0.0275988334	 0.0927575744	 0.0256279043	 0.340146
C	-1.086569095	-0.693549522	 0.6991983165	-0.437253
C	 0.5398895738	-0.5387028704	-1.217833772	-0.12854
C	 1.7276460052	 0.1387871374	-1.8991037979	 0.032256
C	 1.5427586561	 1.3780035024	-2.7571352737	-0.113422
O	 2.8268515323	 1.7363551438	-3.2518731236	-0.421225
C	 2.3980235168	 0.1746347333	-0.5014809954	-0.196558
N	 1.3000671009	-0.6604505537	 0.1117164223	-0.175743
H	-1.0321952111	 1.9630906561	-0.0763208266	 0.119156
H	-0.0552728455	 1.7588501507	 1.3815977569	 0.121073
H	 0.7159109235	 2.1761789965	-0.1486794714	 0.122446
H	-2.0659374938	-0.3973329509	 0.3072319206	 0.109447
H	-0.9547819051	-1.7664885047	 0.5411050591	 0.126833
H	-1.0826799031	-0.5105811048	 1.7789554557	 0.118233
H	 0.0237495482	-1.3960351188	-1.6438695096	 0.083784
H	 2.2481859795	-0.5974334189	-2.5192346911	 0.095838
H	 0.8464272911	 1.1417740529	-3.5795571909	 0.085487
H	 1.0973875134	 2.2034462193	-2.1853823084	 0.08765
H	 2.7360319349	 2.5367183186	-3.7769377217	 0.287361
H	 3.3423213809	-0.3689811397	-0.450274358	 0.112696
H	 2.5389663647	 1.1547414033	-0.0371992555	 0.102882
68.0035	113.1744	150.2689	205.0371	226.9194	256.1452	293.0634	308.6948	354.8365	386.3259	422.3358	468.2869	565.4012	636.0743	736.1161	790.6576	845.0146	882.1984	913.2223	955.1412	971.5379	1004.2007	1023.9391	1043.5776	1070.1061	1080.497	1108.297	1133.2055	1151.8223	1171.7366	1212.1961	1242.6796	1268.8443	1286.9802	1295.4615	1315.4071	1379.2424	1407.0659	1416.6991	1424.6956	1460.2978	1478.1434	1485.9763	1500.0445	1508.0012	1518.9555	1525.7586	2961.431	3020.2159	3030.8642	3036.9328	3062.6908	3063.5358	3087.9898	3096.6644	3119.0727	3122.2502	3131.7971	3157.541	3831.1014
CC1(C)C2C(CO)CN12	CC1(C)[C@H]2[C@@H](CO)CN12	
InChI=1S/C7H13NO/c1-7(2)6-5(4-9)3-8(6)7/h5-6,9H,3-4H2,1-2H3	InChI=1S/C7H13NO/c1-7(2)6-5(4-9)3-8(6)7/h5-6,9H,3-4H2,1-2H3/t5-,6-,8?/m1/s1
