18
gdb 67247	3.30978	1.50846	1.30315	2.7789	75.75	-0.2395	0.0856	0.325	1025.184	0.147746	-401.86124	-401.853773	-401.852829	-401.89286	29.67	
C	 0.1732129134	 1.5759597604	 0.1550795697	-0.531362
C	-0.0353008112	 0.1124967371	-0.031144704	 0.364247
C	 0.4357181428	-0.8674856412	-1.0535136458	-0.228454
N	 0.8929244375	-0.9718295183	 0.3833882663	-0.189521
C	-0.2378365822	-1.6673207178	 1.0933686844	-0.155526
C	-1.2448384749	-0.8835114057	 0.2371956389	-0.257826
C	-0.9484228643	-1.4462239269	-1.1549048595	 0.548869
C	-1.8183900698	-1.5643657478	-2.3183563668	-0.298487
O	-1.3201568583	-2.7266737378	-1.6248759603	-0.289079
H	 1.207781354	 1.8381376511	-0.0860816665	 0.139341
H	-0.4897373076	 2.1559674067	-0.4959138341	 0.126587
H	-0.0198614638	 1.8788285872	 1.1899985963	 0.129097
H	 1.2071579204	-0.7735948707	-1.8061766161	 0.103257
H	-0.2433304346	-2.7596057828	 1.0134524327	 0.115526
H	-0.2186068217	-1.3633740928	 2.1424570545	 0.107756
H	-2.2604853984	-0.6523430697	 0.5521297702	 0.079349
H	-2.8885690746	-1.3867673946	-2.2191056342	 0.117264
H	-1.4159873066	-1.4149115062	-3.3197095558	 0.118962
127.6642	200.0065	238.6946	263.575	287.0697	353.1626	482.6084	512.1959	583.6795	645.2282	752.7689	768.6994	819.5158	859.9448	902.25	919.3713	929.9354	960.8165	985.8549	1025.4253	1052.4935	1057.9248	1099.9461	1115.968	1133.7058	1139.4211	1164.3372	1184.7735	1195.4283	1229.6929	1239.6544	1303.536	1399.7843	1442.9152	1458.3841	1481.17	1491.799	1508.4923	1548.7032	3030.8824	3047.6345	3079.6925	3093.1637	3110.8353	3112.1344	3137.9552	3164.9345	3209.021
CC12C3N1CC2C31CO1	C[C@@]12[C@H]3N1C[C@@H]2[C@]13CO1	
InChI=1S/C7H9NO/c1-6-4-2-8(6)5(6)7(4)3-9-7/h4-5H,2-3H2,1H3	InChI=1S/C7H9NO/c1-6-4-2-8(6)5(6)7(4)3-9-7/h4-5H,2-3H2,1H3/t4-,5+,6+,7-,8?/m0/s1
