16
gdb 50973	2.73904	0.82088	0.66845	2.0385	70.91	-0.2668	-0.0551	0.2117	1588.1251	0.120659	-437.91015	-437.900223	-437.899279	-437.947224	32.641	
O	-0.5205286234	 0.6404612638	 0.8748638353	-0.226984
C	 0.0985927676	 0.8963613184	-0.123755506	 0.14683
C	 1.3191277027	 1.8008924736	-0.1452324609	-0.286595
C	 1.2384200325	 2.9207196012	-1.2134860809	-0.171086
C	 2.4626694089	 3.866168885	-1.1186674378	-0.286601
C	 2.3943234962	 5.0424041263	-2.0779167005	 0.146832
O	 2.5505782261	 6.1854836847	-1.7388211427	-0.22699
C	 1.1248412187	 2.3484648884	-2.5610065824	 0.280955
N	 1.0549455198	 1.8885506989	-3.6192373526	-0.319008
H	-0.1884953109	 0.4692476314	-1.1092530616	 0.110034
H	 1.4362241568	 2.243938153	 0.8466120828	 0.140507
H	 2.2000394406	 1.1785111251	-0.3523346595	 0.144229
H	 0.3306124851	 3.5097900577	-1.0301162638	 0.153079
H	 2.5505560018	 4.2563638116	-0.1019161191	 0.140514
H	 3.3703959502	 3.2922108998	-1.3485936068	 0.144246
H	 2.1947606171	 4.774404721	-3.1382958834	 0.110037
43.1365	55.8634	66.6067	93.7871	154.5051	158.4207	247.2784	315.2877	326.4451	481.2562	488.6562	560.9336	596.3626	799.6682	811.3339	815.9507	965.7219	1007.6543	1017.7709	1081.4658	1100.9379	1117.2952	1200.032	1223.1702	1266.8328	1322.2465	1338.3289	1361.3814	1427.7992	1432.7103	1454.1847	1465.0664	1835.4031	1838.9494	2354.2468	2902.5383	2904.7114	3025.308	3030.3321	3042.8333	3113.142	3117.8306
O=CCC(CC=O)C#N	O=CCC(CC=O)C#N	
InChI=1S/C6H7NO2/c7-5-6(1-3-8)2-4-9/h3-4,6H,1-2H2	InChI=1S/C6H7NO2/c7-5-6(1-3-8)2-4-9/h3-4,6H,1-2H2
