18
gdb 75418	3.10077	1.2692	0.98933	4.0994	82.58	-0.2308	-0.0481	0.1827	1212.9807	0.149084	-401.997926	-401.989561	-401.988617	-402.030869	31.812	
C	 0.0060021077	 1.5585838133	-0.0840791678	-0.484621
C	-0.0546896782	 0.0544263614	 0.0232268791	 0.303092
C	-1.2208740709	-0.6074802395	 0.0697653206	-0.152707
C	-1.2901746297	-2.111631213	 0.1331044514	-0.23972
N	-0.628401939	-2.6540265959	 1.3123345678	-0.308807
C	 0.7246272879	-2.6656741626	 1.5106167593	 0.36817
O	 1.2443454976	-3.3251353302	 2.3984608831	-0.383509
C	 1.5560189243	-1.8131488842	 0.6147967651	-0.168943
C	 1.2359026914	-0.6401851686	 0.038279599	-0.124106
H	 0.5309118115	 1.9972553319	 0.7725988129	 0.136644
H	 0.5572469615	 1.86424461	-0.9819449954	 0.129435
H	-0.9937725253	 1.9964042489	-0.1322192612	 0.125307
H	-2.1550041484	-0.0530369657	 0.0514613581	 0.093726
H	-2.3299521956	-2.4435456096	 0.1605470883	 0.116498
H	-0.8391007424	-2.5409404277	-0.774451046	 0.124585
H	-1.1480258269	-3.2434053326	 1.9450965402	 0.247365
H	 2.5863864551	-2.1521617588	 0.5771814412	 0.118269
H	 2.0492048895	-0.097655837	-0.4431209758	 0.099324
72.9017	157.6051	189.1177	255.0277	273.658	320.2287	366.7686	401.5399	466.5754	512.9814	560.055	664.5111	711.2129	750.6221	751.5071	838.289	861.8563	923.8266	929.3325	1022.8685	1029.2942	1065.0369	1070.7477	1136.8739	1185.8853	1233.189	1299.0778	1326.236	1364.8512	1391.4015	1413.4005	1437.95	1461.3772	1478.2302	1484.932	1492.4719	1649.3928	1708.4412	1761.1623	2988.3738	3024.7861	3076.0533	3105.355	3120.2618	3128.9165	3165.5759	3188.8604	3621.865
CC1=CCNC(=O)C=C1	CC1=CCNC(=O)C=C1	
InChI=1S/C7H9NO/c1-6-2-3-7(9)8-5-4-6/h2-4H,5H2,1H3,(H,8,9)	InChI=1S/C7H9NO/c1-6-2-3-7(9)8-5-4-6/h2-4H,5H2,1H3,(H,8,9)
