19
gdb 113336	2.60452	1.07118	0.87504	0.9282	79.55	-0.2429	0.0369	0.2797	1376.4219	0.155583	-422.954605	-422.944318	-422.943374	-422.989986	37.069	
C	 0.0559241338	 1.2672822781	-0.3577910358	-0.253029
O	-0.0473255866	-0.0070659581	 0.2564594379	-0.274682
C	-1.3190155861	-0.5832321681	 0.1556361373	 0.207108
C	-1.6710192044	-1.2912939284	-1.1452483488	-0.332615
C	-1.3426226078	-2.0956927295	 0.0864175506	-0.060531
C	-0.0573882965	-2.8787667385	 0.1620709072	-0.102603
O	-0.2562885097	-4.0942447102	-0.5516876341	-0.421663
C	-2.3614633389	 0.0945932471	 0.8880553508	 0.323223
C	-3.2220367969	 0.6744519097	 1.4966149259	-0.480208
H	 1.0880173557	 1.596871128	-0.2213408601	 0.127316
H	-0.1695355482	 1.215051373	-1.432109716	 0.109442
H	-0.6214077418	 1.99333457	 0.1094799479	 0.124738
H	-2.6956522336	-1.2542302241	-1.494859754	 0.124275
H	-0.9127548512	-1.2497186961	-1.9200638663	 0.125094
H	-2.181579169	-2.5645749514	 0.5903401789	 0.107719
H	 0.7622427961	-2.2861794193	-0.2636110666	 0.101002
H	 0.1906115866	-3.0752054927	 1.2167873526	 0.092823
H	 0.54495091	-4.6195937921	-0.4667714872	 0.285842
H	-3.9824006715	 1.1788475227	 2.03980802	 0.196749
64.3557	112.075	129.8247	143.9945	166.0125	200.5589	250.7178	264.0657	331.5022	373.7132	427.3497	479.7937	554.9799	580.0734	658.9244	678.3399	679.2008	844.675	898.3735	913.7422	948.1385	1031.4353	1044.9663	1059.8687	1092.5183	1107.2838	1166.9863	1184.6936	1214.4062	1238.9708	1251.0788	1271.9035	1283.6117	1399.3637	1463.4039	1475.6852	1480.7371	1485.3556	1510.4274	1525.8927	2229.3904	2981.9218	3000.4609	3039.5205	3060.574	3126.1198	3139.134	3166.4226	3233.3691	3501.7742	3825.2818
COC1(CC1CO)C#C	CO[C@]1(C[C@H]1CO)C#C	
InChI=1S/C7H10O2/c1-3-7(9-2)4-6(7)5-8/h1,6,8H,4-5H2,2H3	InChI=1S/C7H10O2/c1-3-7(9-2)4-6(7)5-8/h1,6,8H,4-5H2,2H3/t6-,7-/m0/s1
