21
gdb 95316	2.54018	1.67343	1.39938	2.0177	76.61	-0.2395	0.0735	0.3129	1023.0232	0.186212	-424.24821	-424.240657	-424.239713	-424.279752	31.15	
O	-0.0817015292	 1.4437727182	 0.0962698573	-0.445222
C	 0.0224237436	 0.0270625764	 0.0079895771	 0.127997
C	 0.8702795533	-0.5481003289	 1.1590964378	-0.231732
C	 0.676192789	-2.0635914778	 1.3624873775	-0.222931
C	-0.8158833708	-2.4204595754	 1.2584469413	 0.120501
C	-1.339791477	-2.064459839	-0.1379337742	-0.244362
C	-1.4080164621	-0.5378256398	 0.0247566982	-0.024487
C	-2.0467102596	-0.4411180041	 1.4173530727	-0.0844
O	-1.5866146515	-1.5946758557	 2.1430529665	-0.28298
H	 0.8041029559	 1.8019679057	 0.2132450184	 0.279967
H	 0.4779571086	-0.2525748593	-0.9571874966	 0.059726
H	 1.9294218136	-0.3123812577	 0.9976633513	 0.082961
H	 0.5671289391	-0.0317729104	 2.0758478835	 0.121224
H	 1.2323285124	-2.642410891	 0.6141171618	 0.091751
H	 1.0663471523	-2.3524408891	 2.3436512133	 0.103522
H	-0.9921364299	-3.4622807146	 1.5419665371	 0.07079
H	-0.6798494215	-2.3936255688	-0.9451747121	 0.095596
H	-2.3336344986	-2.490317472	-0.3054279472	 0.101465
H	-2.0040926227	-0.0314287471	-0.7379654462	 0.075646
H	-1.7550694883	 0.4713314572	 1.947382666	 0.113181
H	-3.1428580169	-0.4689624967	 1.3552992965	 0.091785
150.0515	213.0702	265.8474	274.4935	353.7657	377.3556	402.973	439.6098	548.519	566.3227	732.2105	757.5944	822.248	840.8888	883.6915	897.1262	923.3166	943.7288	963.4114	1005.4559	1020.3497	1039.4006	1049.4443	1097.6768	1100.2603	1121.7077	1162.6462	1182.9537	1192.7024	1237.3279	1242.2152	1275.7432	1309.6588	1320.1438	1334.5301	1348.2623	1359.6747	1369.0428	1389.0226	1400.54	1431.2217	1480.9897	1496.8695	1501.3295	1535.0259	2948.6304	3010.7917	3025.2007	3033.0024	3051.6861	3067.2826	3073.0642	3074.1976	3086.8431	3088.4457	3103.6072	3814.2701
OC1CCC2CC1CO2	O[C@H]1CC[C@@H]2C[C@H]1CO2	
InChI=1S/C7H12O2/c8-7-2-1-6-3-5(7)4-9-6/h5-8H,1-4H2	InChI=1S/C7H12O2/c8-7-2-1-6-3-5(7)4-9-6/h5-8H,1-4H2/t5-,6+,7-/m0/s1
