23
gdb 86075	1.98489	1.78076	1.12184	0.1576	93.39	-0.2112	0.0309	0.2422	1208.4817	0.206508	-351.15408	-351.145142	-351.144198	-351.187298	35.141	
C	-0.0782462298	 1.592876824	-0.0818796737	-0.38988
C	-0.0175175972	 0.0633133261	-0.0436416233	-0.00786
C	 0.931354213	-0.4958507076	-1.1629660843	-0.302177
C	 2.2796155914	-0.6937415689	-0.4641274232	 0.138216
C	 3.5782071453	-0.7008719317	-1.2055742934	-0.495815
C	 2.0539712788	-0.7792880365	 0.8449750247	 0.244433
C	 2.6091507154	-0.4608992069	 2.216156821	-0.325979
C	 1.2404948388	 0.2785091588	 2.4678032082	-0.243415
C	 0.6342947358	-0.509339793	 1.2458886146	-0.039619
H	 0.9229609557	 2.0316065015	-0.0065167186	 0.115317
H	-0.5200476939	 1.938365493	-1.0224681937	 0.108851
H	-0.6825966479	 1.9919312399	 0.7393870499	 0.11098
H	-1.0333875032	-0.324775131	-0.1738743388	 0.060332
H	 0.5468360385	-1.4363933954	-1.5832360869	 0.095688
H	 1.0144135322	 0.2019532318	-2.0067372602	 0.09071
H	 3.6412495303	-1.5536518279	-1.8946702068	 0.123903
H	 3.6939461561	 0.2014369481	-1.8203223708	 0.119053
H	 4.430705459	-0.7625834201	-0.5230388438	 0.119738
H	 2.7138429651	-1.3390842468	 2.8630088356	 0.106557
H	 3.5299887855	 0.1258836697	 2.2740674584	 0.103883
H	 0.7694163966	 0.121579334	 3.4414134085	 0.094188
H	 1.3262738636	 1.3502702943	 2.2783449459	 0.106561
H	 0.0974974209	-1.3953771257	 1.6086773004	 0.066335
92.8758	144.7097	177.7714	210.6825	253.0896	272.618	310.8022	359.619	441.4034	468.4054	584.3925	642.1737	678.0552	711.8116	774.5638	847.2707	867.1271	892.7154	917.7644	923.6955	982.2495	997.5637	1025.1554	1046.28	1067.1804	1100.5346	1118.2356	1128.2189	1134.3071	1196.3047	1206.3349	1221.1566	1231.4026	1243.7208	1263.5404	1284.3266	1324.9982	1335.0752	1366.7063	1405.5333	1410.7181	1473.8813	1478.4171	1484.6149	1486.3981	1491.7854	1497.0655	1504.0439	1772.1432	2997.2799	3010.1058	3010.3751	3026.9696	3034.4531	3039.2609	3045.6112	3052.7903	3064.5624	3090.4941	3095.399	3098.1385	3103.8229	3127.9228
CC1CC(C)=C2CCC12	C[C@H]1C[C](C)[C]2CC[C@@H]12	
InChI=1S/C9H14/c1-6-5-7(2)9-4-3-8(6)9/h6,8H,3-5H2,1-2H3	InChI=1S/C9H14/c1-6-5-7(2)9-4-3-8(6)9/h6,8H,3-5H2,1-2H3/t6-,8-/m0/s1
