19
gdb 103000	2.0416	1.39996	1.14449	3.4294	77.36	-0.2497	0.0208	0.2705	1190.4378	0.158188	-419.19513	-419.185197	-419.184253	-419.229805	35.953	
C	 0.0175100925	 1.4031288913	 0.3443626898	-0.346296
N	-0.0505308011	-0.0276210832	 0.0211092581	-0.359397
C	-1.3843165367	-0.5677073668	-0.0249378599	 0.077484
C	-2.3718946419	 0.1455339907	-0.8005397213	 0.255302
N	-3.1488235589	 0.7334899655	-1.4268514199	-0.356979
C	-1.5365283481	-2.0978862545	 0.0844386826	-0.11113
C	-0.3438293344	-3.0210768922	-0.0145210501	-0.419964
C	-1.8042823995	-1.2491222442	 1.2922708791	 0.111011
O	-0.9025617708	-1.1845964637	 2.3396921442	-0.424286
H	 1.0658496601	 1.7116805891	 0.356993805	 0.128256
H	-0.53155247	 2.0388151676	-0.3640764372	 0.138609
H	-0.4000692064	 1.5626987568	 1.3426139946	 0.145011
H	 0.4465690952	-0.221926322	-0.8413996287	 0.239342
H	-2.4308390184	-2.4611761062	-0.4141487124	 0.113422
H	 0.517387496	-2.6390907564	 0.5351469027	 0.127856
H	-0.6000963398	-3.9988541675	 0.4053019571	 0.136025
H	-0.0454458876	-3.173671555	-1.0567990796	 0.124506
H	-2.8284007629	-1.1250742954	 1.6266723007	 0.125373
H	-0.0666190672	-0.8834458739	 1.9476616454	 0.295853
94.0168	125.8945	135.6197	151.4066	165.3176	203.3154	225.701	296.2568	325.2392	444.0508	459.3733	556.8073	573.5618	594.0393	633.2737	705.9969	749.6886	833.283	874.6125	969.2932	1007.4033	1061.5117	1083.7515	1093.7992	1141.2177	1153.7451	1164.3039	1178.8621	1234.3518	1297.4774	1336.4353	1387.5198	1419.0645	1450.5342	1460.2879	1466.273	1491.1642	1495.361	1503.9623	1520.0065	2330.6608	3009.5536	3044.3046	3088.6689	3102.3153	3124.8689	3137.2348	3154.4388	3180.021	3526.0744	3674.457
CNC1(C#N)C(C)C1O	CN[C@@]1(C#N)[C@@H](C)[C@H]1O	
InChI=1S/C6H10N2O/c1-4-5(9)6(4,3-7)8-2/h4-5,8-9H,1-2H3	InChI=1S/C6H10N2O/c1-4-5(9)6(4,3-7)8-2/h4-5,8-9H,1-2H3/t4-,5+,6-/m0/s1
