20
gdb 55444	3.29697	1.0923	0.96625	3.2351	81.29	-0.2321	0.0143	0.2463	1290.1287	0.172389	-403.205498	-403.196363	-403.195419	-403.240458	33.699	
N	 0.0052804506	 1.3187877637	-0.2767377609	-0.52148
C	 0.062472918	 0.0190363906	 0.1392497121	 0.394312
O	 1.090166934	-0.4854496983	 0.5458591504	-0.359071
C	-1.2837991597	-0.7253054856	 0.0882039812	-0.134426
C	-1.0661018682	-2.231276555	-0.120318726	-0.207191
C	-2.3275016718	-3.0339890227	 0.2140461175	-0.220114
C	-2.7376804599	-2.8292289673	 1.6788507809	-0.236849
C	-2.6771789629	-1.378288409	 2.0763449173	-0.058018
C	-2.0518571831	-0.4415770075	 1.3655745556	-0.041538
H	 0.847359375	 1.8696807422	-0.2434822146	 0.259202
H	-0.8264142448	 1.7260959324	-0.6653255672	 0.256898
H	-1.8572961605	-0.313928425	-0.7576124373	 0.075537
H	-0.7493566132	-2.4196267795	-1.1516950374	 0.092184
H	-0.2364420414	-2.5390679496	 0.5239190823	 0.129894
H	-3.1509250683	-2.7141537211	-0.4382302782	 0.09372
H	-2.162674708	-4.0975249551	 0.0117927613	 0.09369
H	-3.7490077059	-3.2183998533	 1.8515052243	 0.099856
H	-2.0822690255	-3.4140849258	 2.3413631598	 0.113434
H	-3.1822006694	-1.0958677999	 2.9974738576	 0.085696
H	-2.0614936952	 0.5917815357	 1.7047247811	 0.084265
40.1786	70.512	84.0489	186.623	245.2076	282.2823	343.4687	418.2572	463.4831	527.202	576.0719	620.8409	672.0886	725.1234	750.6231	819.5274	863.3326	905.953	921.4499	944.5458	1007.0154	1015.9431	1060.833	1071.4843	1083.4687	1112.0606	1158.0093	1206.8973	1241.5328	1264.9764	1272.3636	1321.267	1348.9185	1371.1209	1374.9781	1391.9189	1418.2484	1474.9831	1493.1312	1500.153	1614.6681	1720.9604	1798.1341	2971.2337	2999.8295	3018.4802	3041.8328	3045.1169	3070.6265	3094.8088	3138.1046	3161.9284	3602.9706	3741.1621
NC(=O)C1CCCC=C1	NC(=O)[C@H]1CCCC=C1	
InChI=1S/C7H11NO/c8-7(9)6-4-2-1-3-5-6/h2,4,6H,1,3,5H2,(H2,8,9)	InChI=1S/C7H11NO/c8-7(9)6-4-2-1-3-5-6/h2,4,6H,1,3,5H2,(H2,8,9)/t6-/m1/s1
