13
gdb 5141	6.03239	1.33816	1.14937	2.0842	63.53	-0.2384	0.0097	0.2481	966.9679	0.098103	-357.69495	-357.688121	-357.687177	-357.72706	24.249	
N	-0.1297130244	-0.9391093555	-0.9030495233	-0.304701
C	-0.0682143487	 0.0663194754	-0.3370268673	 0.256238
C	 0.0377574426	 1.3689691621	 0.3268373011	-0.454511
C	 1.4109139606	 1.9634502211	 0.2189854828	 0.316256
C	 2.1712383502	 2.677391042	 1.1083563666	-0.164654
N	 3.3583664856	 3.066218143	 0.5340078503	-0.249249
C	 3.3232424356	 2.58981211	-0.6883009501	 0.020694
N	 2.1620389395	 1.919638164	-0.9371162327	-0.29794
H	-0.7258183185	 2.0272851184	-0.1106319248	 0.169482
H	-0.2219647563	 1.2541864172	 1.3838759689	 0.176528
H	 1.9261627766	 2.9336597788	 2.1284094837	 0.114388
H	 4.0988457842	 2.6906479356	-1.4325794945	 0.138279
H	 1.923596003	 1.4159382479	-1.7766958007	 0.27919
35.9259	110.6008	256.937	322.5827	378.0191	487.1977	542.9167	647.8056	682.3671	746.8045	819.9924	849.8362	932.2665	933.8242	937.5955	1020.0954	1117.0599	1149.1636	1212.3514	1259.7114	1276.5708	1327.0541	1387.4803	1438.6013	1458.0222	1505.6381	1610.8001	2362.5954	3015.1267	3086.6472	3245.6011	3255.9472	3648.9511
N#CCC1=CN=CN1	N#CCc1cnc[nH]1	
InChI=1S/C5H5N3/c6-2-1-5-3-7-4-8-5/h3-4H,1H2,(H,7,8)	InChI=1S/C5H5N3/c6-2-1-5-3-7-4-8-5/h3-4H,1H2,(H,7,8)
