19
gdb 68691	2.6678	1.89973	1.58247	1.9435	74.57	-0.2487	0.0028	0.2515	939.5285	0.16085	-423.039541	-423.032256	-423.031311	-423.070612	30.271	
C	 0.0832863943	 1.4998950763	 0.0234775859	-0.459978
C	-0.0562480066	-0.0037876496	 0.0056318973	 0.419731
O	 0.5856772106	-0.5449842456	-1.1392491323	-0.264996
C	 0.0927340876	-1.8901073003	-1.1822278954	 0.021244
C	 0.8644260124	-2.6390342463	-0.0778653516	-0.221094
C	 0.6020325666	-1.93133908	 1.2701653489	-0.073672
O	 0.5931266339	-0.5042483178	 1.1741660256	-0.291818
C	-1.3729937244	-1.7191813804	-0.8022453543	-0.106314
C	-1.467077639	-0.5905916301	-0.1075029362	-0.120933
H	 1.1423199108	 1.7674553617	 0.0384935111	 0.135388
H	-0.3827250223	 1.9274735612	-0.8669968611	 0.126847
H	-0.3952014009	 1.9109149947	 0.9156349996	 0.124535
H	 0.2699384178	-2.3013376754	-2.1789345566	 0.080554
H	 0.56528446	-3.6905162096	 0.0004460249	 0.096341
H	 1.9275265789	-2.604699098	-0.3347635041	 0.114539
H	-0.3555814512	-2.2798211577	 1.6792505869	 0.096423
H	 1.3817178391	-2.1743709188	 1.9969447238	 0.108155
H	-2.1465716679	-2.4496518078	-1.0009840585	 0.107191
H	-2.3310522897	-0.1802044066	 0.3979486362	 0.107856
194.6862	218.6106	279.9341	298.4268	342.1192	375.4457	463.5669	503.1267	608.8559	635.3166	657.3184	751.1934	792.3171	836.4163	847.3832	863.3955	898.1274	919.0179	932.096	947.29	962.4983	1030.2478	1065.3591	1082.7998	1120.3717	1141.8415	1178.8389	1218.6516	1249.8318	1287.6845	1307.561	1344.8405	1347.611	1366.9513	1410.8539	1415.1999	1471.6937	1479.9852	1486.2526	1505.0066	1665.0846	3014.0749	3041.4222	3057.3375	3083.7484	3084.5967	3097.3889	3136.9901	3140.8313	3209.1341	3235.4967
CC12OC(CCO1)C=C2	C[C@@]12O[C@@H](CCO1)C=C2	
InChI=1S/C7H10O2/c1-7-4-2-6(9-7)3-5-8-7/h2,4,6H,3,5H2,1H3	InChI=1S/C7H10O2/c1-7-4-2-6(9-7)3-5-8-7/h2,4,6H,3,5H2,1H3/t6-,7+/m1/s1
