19
gdb 74797	2.67989	1.71166	1.51035	2.2133	75.03	-0.2454	0.0088	0.2542	981.5352	0.161532	-423.037577	-423.03017	-423.029226	-423.069103	29.75	
C	-0.0739211112	 1.5029592158	 0.0529359019	-0.507669
C	-0.0896855796	 0.0152246873	-0.0377921226	 0.328548
C	-0.0921037202	-0.7969788484	-1.0936269884	-0.219784
C	 0.024038296	-2.225905187	-0.5811675408	 0.032231
C	 1.4991224813	-2.6398624755	-0.4070944969	-0.218568
C	 2.2172903817	-1.562752722	 0.4386358381	-0.072295
O	 1.4272635905	-1.068991651	 1.5272388645	-0.267684
C	 0.0590021578	-0.8945174713	 1.1875954378	 0.08376
O	-0.4903910958	-2.1179571721	 0.7577419146	-0.240966
H	 0.8271781854	 1.8466591956	 0.5757251035	 0.141398
H	-0.0979476437	 1.9706573882	-0.9348059453	 0.126487
H	-0.9303218545	 1.8755119733	 0.6289761126	 0.131947
H	-0.0787943727	-0.5200288059	-2.1404301533	 0.100463
H	-0.564101727	-2.9671484521	-1.1273798291	 0.080929
H	 1.5166903933	-3.6082560474	 0.1020571632	 0.114488
H	 2.0167400035	-2.749152318	-1.3670461316	 0.09617
H	 3.1268858413	-1.9648722508	 0.8923397909	 0.109366
H	 2.5098361076	-0.7289410108	-0.2132413806	 0.096523
H	-0.4379895238	-0.5698837977	 2.1039184814	 0.084658
144.866	171.3404	232.4681	285.1011	335.0224	394.7071	466.5026	507.8581	594.2623	647.7741	688.1517	790.6829	827.2887	838.5954	872.9186	905.4239	931.4265	936.8591	974.5899	1005.9729	1024.6991	1056.593	1072.203	1080.569	1122.1928	1197.7547	1222.5203	1259.1739	1268.7078	1308.0879	1324.6418	1352.8905	1362.3042	1374.7358	1411.6125	1415.1323	1470.9412	1477.5179	1488.3408	1505.3042	1716.8847	3013.6792	3020.8298	3041.0856	3069.358	3084.3983	3085.3902	3097.5005	3102.817	3113.7352	3210.8404
CC1=CC2CCOC1O2	CC1=C[C@H]2CCO[C@@H]1O2	
InChI=1S/C7H10O2/c1-5-4-6-2-3-8-7(5)9-6/h4,6-7H,2-3H2,1H3	InChI=1S/C7H10O2/c1-5-4-6-2-3-8-7(5)9-6/h4,6-7H,2-3H2,1H3/t6-,7-/m1/s1
