20
gdb 18366	3.22748	2.10392	1.55147	1.3647	73.95	-0.2463	0.0788	0.3251	898.257	0.178954	-349.007216	-348.999788	-348.998844	-349.039025	28.874	
C	-0.0052877443	 1.5747847611	-0.1055918905	-0.412858
C	 0.1580400637	 0.0666942349	-0.0365765422	 0.137876
O	 1.0494078313	-0.3587755292	-1.0691125138	-0.263532
C	 1.3656619648	-1.7161417961	-0.7833864889	-0.092815
C	 1.5107709337	-1.8090420432	 0.7421526736	-0.028014
C	 2.8318664713	-1.2469105175	 1.3358719474	-0.217437
C	 2.0975694997	 0.0556455219	 1.7563644097	-0.224667
C	 0.7484741893	-0.5340786499	 1.2481521788	-0.031484
H	 0.9470830334	 2.0871169223	 0.0530511007	 0.124613
H	-0.3872274351	 1.8674677822	-1.0875461723	 0.125953
H	-0.7150926003	 1.9157225969	 0.6545124527	 0.113562
H	-0.8284496163	-0.4055094553	-0.2013809814	 0.057114
H	 0.5542433743	-2.3776602639	-1.1302586418	 0.082759
H	 2.2773578864	-1.9718763659	-1.3318839083	 0.103028
H	 1.1950961837	-2.7804270606	 1.1273234222	 0.065802
H	 3.2151506704	-1.8303104504	 2.1765405219	 0.097008
H	 3.6422231139	-1.1163560798	 0.6127956855	 0.098252
H	 2.1216508562	 0.2755621092	 2.8260561401	 0.096173
H	 2.4298346737	 0.9460572737	 1.2185194451	 0.104895
H	-0.0087520199	-0.6823367905	 2.0203174413	 0.063772
63.0996	172.4144	216.2582	242.0925	327.5525	364.1033	514.5277	587.6386	678.4515	738.0307	753.2729	810.8622	854.753	869.8073	895.4246	957.8912	962.5081	984.6296	1013.2319	1039.6888	1063.3215	1117.1406	1118.8397	1149.2859	1174.8907	1179.5132	1227.1678	1243.8679	1260.0629	1270.8858	1280.5398	1321.5793	1331.3458	1352.8034	1381.6799	1395.6688	1413.7876	1471.8791	1483.2126	1491.8042	1501.497	1506.8808	2923.0871	2962.7923	3045.3761	3052.5988	3067.1119	3078.4876	3081.441	3093.6544	3100.629	3115.8871	3120.6451	3125.9199
CC1OCC2CCC12	C[C@H]1OC[C@H]2CC[C@@H]12	
InChI=1S/C7H12O/c1-5-7-3-2-6(7)4-8-5/h5-7H,2-4H2,1H3	InChI=1S/C7H12O/c1-5-7-3-2-6(7)4-8-5/h5-7H,2-4H2,1H3/t5-,6-,7+/m1/s1
