14
gdb 43445	3.06588	1.49507	1.08524	2.6073	64.17	-0.2834	-0.034	0.2493	1048.9144	0.100767	-473.850028	-473.842648	-473.841704	-473.882605	27.335	
N	-0.0455569779	 1.2502762765	 0.0874076786	-0.508181
C	-0.0489196904	-0.0012322911	 0.0116183543	 0.414071
C	-1.2664488381	-0.8996963943	-0.0079382895	-0.424822
C	-0.6714633258	-2.2888166133	 0.0572750986	 0.274646
C	-1.2125415892	-3.4632896112	 0.7608615396	-0.227929
O	-1.2493813717	-3.3683894906	-0.6597118859	-0.247161
C	 0.8258404402	-2.1249846627	-0.0713364048	 0.406263
O	 1.670027261	-2.9597065353	-0.1495254051	-0.316265
O	 1.107817291	-0.7737372163	-0.0712297512	-0.220514
H	 0.9058303796	 1.6211437533	 0.0782321952	 0.241828
H	-1.9370607633	-0.6546651388	 0.8174279296	 0.15768
H	-1.8189923747	-0.7592874172	-0.9419579343	 0.169839
H	-0.5224994138	-4.2039694263	 1.1592795722	 0.148708
H	-2.172265307	-3.3673403428	 1.2661869427	 0.131837
47.9936	139.2374	258.6052	270.5536	349.9467	363.8638	490.4253	526.2653	596.6693	637.327	743.3722	749.8568	855.7213	874.1274	910.8363	916.2124	955.4906	1022.6715	1044.3641	1093.4249	1130.8551	1171.9334	1177.9213	1239.519	1270.1065	1314.5455	1419.6867	1460.7893	1515.7987	1799.8291	1920.0605	3072.3478	3091.4485	3123.7972	3191.6374	3484.5736
N=C1CC2(CO2)C(=O)O1	[NH][C]1C[C@]2(CO2)C(=O)O1	
InChI=1S/C5H5NO3/c6-3-1-5(2-8-5)4(7)9-3/h6H,1-2H2	InChI=1S/C5H5NO3/c6-3-1-5(2-8-5)4(7)9-3/h6H,1-2H2/t5-/m0/s1
