26
gdb 123015	4.36374	0.54107	0.51288	1.2321	94.45	-0.2196	0.0838	0.3034	2284.1118	0.239186	-369.591776	-369.580591	-369.579647	-369.629175	40.447	
C	 0.0457006052	 1.5618422439	 0.0129456992	-0.379181
C	-0.0646696653	 0.054599963	-0.2320716	-0.164192
C	-1.4248385755	-0.5249560203	 0.1712109793	-0.159361
C	-1.5433597785	-2.0328534263	-0.0714848893	-0.175359
C	-2.9043141758	-2.6100236441	 0.3436630892	-0.222038
C	-2.9943073271	-4.1134985805	 0.1710744285	 0.027211
C	-4.3061204127	-4.8021493783	-0.000726742	-0.265006
N	-3.3365545895	-4.7814855658	-1.0897145114	-0.077994
C	-3.6711733398	-4.0011593662	-2.2702483988	-0.311832
H	 1.027244353	 1.9453572844	-0.2828882098	 0.110698
H	-0.7117046444	 2.1123326051	-0.5564673094	 0.112614
H	-0.1002131627	 1.8025770698	 1.0719956105	 0.112788
H	 0.1188106864	-0.158996176	-1.29347469	 0.094096
H	 0.7278641548	-0.4662599064	 0.3215272645	 0.094292
H	-1.6091387046	-0.3120366416	 1.2338405627	 0.090566
H	-2.2190401687	-0.0029962878	-0.3813810304	 0.090097
H	-1.3625686929	-2.2479508049	-1.1328393506	 0.099546
H	-0.7491510049	-2.5548702239	 0.4800925309	 0.094518
H	-3.0836934851	-2.38091399	 1.4033069874	 0.09887
H	-3.706414794	-2.1073706556	-0.2087195944	 0.095461
H	-2.2178568573	-4.6517156952	 0.7165986493	 0.083936
H	-4.5012267502	-5.7702370333	 0.4544522138	 0.109546
H	-5.1840085104	-4.161335166	-0.0918300771	 0.099344
H	-4.2484005415	-3.0843830953	-2.0723570612	 0.098019
H	-2.7526225991	-3.7217835454	-2.7969467796	 0.121253
H	-4.2657360994	-4.6280210335	-2.9430665814	 0.122108
48.8351	56.7145	91.1997	117.1035	137.479	188.5455	232.7481	249.514	285.2335	300.7192	358.3897	411.5926	473.0883	529.6111	726.4165	738.3387	761.8571	788.4629	855.3168	900.1384	920.5281	974.5387	1003.6628	1035.2239	1048.3932	1057.0511	1071.9656	1095.2408	1113.1213	1132.3052	1139.9358	1166.5204	1199.0605	1206.2737	1235.5256	1259.3774	1293.3048	1325.4485	1328.9429	1332.6121	1341.2541	1380.6259	1400.6454	1413.5035	1425.7154	1446.3856	1476.2338	1482.2126	1487.3803	1492.3529	1500.1006	1501.0813	1505.8234	1512.2403	1514.5571	2978.1489	2999.3397	3007.9417	3014.4518	3018.6113	3023.3852	3028.3694	3040.2007	3052.7527	3063.1537	3067.6662	3077.6837	3092.8765	3094.3664	3096.3757	3100.4829	3164.4374
CCCCCC1CN1C	CCCCC[C@H]1CN1C	
InChI=1S/C8H17N/c1-3-4-5-6-8-7-9(8)2/h8H,3-7H2,1-2H3	InChI=1S/C8H17N/c1-3-4-5-6-8-7-9(8)2/h8H,3-7H2,1-2H3/t8-,9?/m0/s1
