21
gdb 81349	2.46022	1.4509	1.32396	1.4551	77.46	-0.2488	0.0665	0.3153	1098.0604	0.183389	-424.208676	-424.200075	-424.199131	-424.241164	34.427	
C	-0.1450565628	 1.5347785326	-0.0403178936	-0.424117
C	 0.0676058115	 0.0218240912	-0.0493890596	-0.014053
C	 0.9908096209	-0.5291898746	-1.1568648153	-0.037331
C	 1.1734930838	-2.0061510281	-0.6946518803	-0.249885
C	 1.9475978687	-1.3345948483	 0.476054846	-0.075111
C	 2.4090382442	-0.2746503224	-0.5772882576	 0.153665
O	 3.40632058	-0.7083455314	-1.4797212631	-0.452923
C	 0.8418794085	-0.5640276725	 1.2040916717	 0.101639
O	 1.4382106924	 0.406758423	 2.0517589065	-0.43417
H	 0.7940427927	 2.0860044244	 0.0480067159	 0.130967
H	-0.6407899514	 1.8539065317	-0.9629505798	 0.11542
H	-0.7891009356	 1.8428520339	 0.7921948645	 0.099489
H	-0.9127938184	-0.4626157563	-0.127336793	 0.06787
H	 0.7568193785	-0.2662744563	-2.1893525155	 0.061609
H	 0.2733015074	-2.5802398552	-0.4543992875	 0.08193
H	 1.8316998779	-2.5735622339	-1.3493270315	 0.116354
H	 2.6598349619	-1.8743711184	 1.1020236399	 0.057131
H	 2.6347682443	 0.725685474	-0.194102389	 0.074777
H	 4.2424633138	-0.7285008924	-1.0038788168	 0.282335
H	 0.2005607322	-1.2338341615	 1.7937545966	 0.061638
H	 0.7368373696	 0.8956910406	 2.4923942916	 0.282767
142.2502	193.6041	205.7498	265.1744	271.7713	292.0949	317.2181	362.7573	397.2612	482.5566	514.0322	565.7864	685.9105	774.0719	819.1073	871.5216	889.0406	906.8273	926.3374	955.3049	1002.6065	1011.7351	1042.9108	1058.9655	1093.3288	1100.0885	1117.1112	1147.2054	1155.855	1183.8666	1209.6137	1235.5936	1251.6373	1270.6166	1282.5303	1310.0381	1320.7887	1345.596	1374.5768	1407.426	1425.1246	1433.7675	1494.5084	1497.5209	1501.5011	2992.4472	3026.607	3032.6819	3054.3625	3057.5061	3086.3757	3104.1032	3107.8406	3122.4297	3157.928	3817.3351	3825.7436
CC1C2CC(C2O)C1O	C[C@H]1[C@@H]2C[C@@H]([C@H]2O)[C@H]1O	
InChI=1S/C7H12O2/c1-3-4-2-5(6(3)8)7(4)9/h3-9H,2H2,1H3	InChI=1S/C7H12O2/c1-3-4-2-5(6(3)8)7(4)9/h3-9H,2H2,1H3/t3-,4-,5+,6-,7-/m0/s1
