20
gdb 67559	2.8891	1.99017	1.4901	1.5124	81.63	-0.2174	0.0917	0.3091	947.0406	0.173253	-365.931559	-365.924647	-365.923703	-365.962261	29.646	
C	 0.0044466538	 1.4881568739	-0.0203324827	-0.510606
C	 0.0906476608	-0.0177242026	 0.0474505602	 0.389438
C	 0.5625042917	-0.7193559554	-1.2198041263	-0.097255
C	 1.7663933642	-1.6223718085	-1.1089380114	-0.311564
C	 0.3874406344	-2.1654988357	-0.824571317	-0.060726
C	-0.1424231684	-1.9704409789	 0.5773889269	 0.0181
C	 0.5806069581	-0.8060793986	 1.3058565346	-0.13442
C	-0.7765608025	-0.5037991891	 1.9445638692	-0.19951
N	-1.1914431322	-0.8159701109	 0.5082091403	-0.195205
H	 0.987821178	 1.9065903821	-0.2605263956	 0.123726
H	-0.6883637278	 1.788365694	-0.8139029237	 0.129713
H	-0.3354937721	 1.9447034302	 0.9119479211	 0.120189
H	 0.2568148411	-0.3326437673	-2.1847357971	 0.088461
H	 2.2232817327	-1.9320464774	-2.0432757856	 0.111746
H	 2.4724593138	-1.4887456501	-0.2962667486	 0.114076
H	-0.0618325796	-2.902315315	-1.4783819087	 0.093735
H	-0.4742893456	-2.8400571785	 1.1467095843	 0.070173
H	 1.575919325	-0.8012386512	 1.7674478343	 0.057736
H	-1.1632089842	-1.2236442351	 2.6717625066	 0.095382
H	-0.996860611	 0.5148731441	 2.2690272191	 0.096811
189.0169	225.4023	302.1354	335.6609	372.2491	478.0794	524.3847	615.7532	663.4534	680.4861	739.0994	782.7302	824.4675	838.1171	859.4071	905.5323	921.7076	934.9995	941.4302	1008.2525	1024.9131	1043.5999	1060.4204	1078.3594	1084.5942	1094.9085	1107.0986	1119.692	1165.4241	1190.1041	1201.446	1226.044	1234.118	1250.6742	1274.7121	1333.9633	1341.182	1385.0318	1414.328	1485.4599	1490.0657	1492.3207	1540.1203	3016.0472	3036.8556	3058.9102	3097.6434	3106.2531	3113.4025	3122.8088	3130.3114	3179.8288	3192.5537	3213.6942
CC12C3CC3C3C1CN23	C[C@@]12[C@H]3C[C@H]3[C@H]3[C@@H]1CN23	
InChI=1S/C8H11N/c1-8-5-2-4(5)7-6(8)3-9(7)8/h4-7H,2-3H2,1H3	InChI=1S/C8H11N/c1-8-5-2-4(5)7-6(8)3-9(7)8/h4-7H,2-3H2,1H3/t4-,5+,6+,7+,8-/m1/s1
