22
gdb 117757	2.50624	1.01718	0.88754	4.4508	83.34	-0.2686	0.0434	0.312	1464.4597	0.191335	-404.362117	-404.350925	-404.349981	-404.398581	39.377	
C	-0.1160479413	 1.5443985216	 0.0980389248	-0.407691
C	 0.0184972334	 0.0253733018	-0.0334020411	-0.198336
C	 0.767569888	-0.4685850399	-1.3026481048	 0.052721
C	 2.2268375076	 0.033621635	-1.347149137	-0.412167
C	 0.7435268057	-2.0118912831	-1.3069573849	-0.06604
O	 1.4165505025	-2.4831920584	-2.4454428086	-0.234166
C	 1.3998823915	-3.8877673466	-2.5591056091	-0.230422
C	 0.0506614905	 0.010088675	-2.4977840474	 0.296783
N	-0.5300855324	 0.4097724322	-3.4138155558	-0.355476
H	 0.8568086161	 2.0332773483	 0.2007729177	 0.122962
H	-0.6218888319	 1.973134265	-0.7720777069	 0.146651
H	-0.7045729842	 1.793411367	 0.9857203366	 0.120413
H	 0.5536971859	-0.3773622321	 0.8351078641	 0.103487
H	-0.9795721935	-0.4278641306	-0.0258187739	 0.113233
H	 2.7422108299	-0.2674071574	-0.4289655285	 0.115873
H	 2.7494467166	-0.4043048312	-2.1982114056	 0.153392
H	 2.2723572363	 1.1210967509	-1.4300501979	 0.133518
H	 1.2308835351	-2.3720512249	-0.3843696438	 0.090458
H	-0.2992916089	-2.3679614002	-1.2939765004	 0.100496
H	 1.895614662	-4.3714232433	-1.7028297454	 0.106032
H	 0.3726854576	-4.2769736864	-2.6290075886	 0.112586
H	 1.9393501437	-4.1450535226	-3.4730360137	 0.135693
68.0173	86.9285	101.996	135.3042	161.538	199.6244	217.0931	226.9745	267.4084	293.5117	338.1124	370.3864	385.2855	451.1004	582.8787	633.9241	714.3206	791.5953	883.2335	934.6789	965.5885	1000.9325	1021.4585	1063.5469	1087.017	1157.8977	1174.2722	1184.2497	1205.8002	1225.6392	1241.0998	1274.3299	1340.7467	1366.3879	1397.5314	1417.6916	1421.6746	1476.9611	1482.2688	1485.8931	1488.7902	1498.9653	1500.7257	1506.3564	1510.0812	1524.0801	2352.6386	2951.4992	2976.5199	2991.9174	3023.2616	3028.0929	3045.3506	3048.5337	3067.0704	3113.982	3120.4976	3123.7501	3126.0459	3153.3909
CCC(C)(COC)C#N	CC[C@@](C)(COC)C#N	
InChI=1S/C7H13NO/c1-4-7(2,5-8)6-9-3/h4,6H2,1-3H3	InChI=1S/C7H13NO/c1-4-7(2,5-8)6-9-3/h4,6H2,1-3H3/t7-/m1/s1
