19
gdb 115781	2.75084	0.94753	0.75816	2.6514	73.76	-0.271	0.0075	0.2785	1482.0598	0.157885	-460.166213	-460.156732	-460.155788	-460.201692	33.514	
O	-0.0271944617	 1.28926549	-0.246121412	-0.424479
C	 0.0439211255	-0.1283970933	-0.2913874903	-0.077875
C	-1.3268166362	-0.6536187542	 0.1090048349	-0.034638
C	-2.4314195419	-0.4041246883	-0.9609710724	-0.223065
C	-2.2496958768	-1.8668310557	-1.4596766938	-0.257594
C	-1.522017101	-2.1737626906	-0.1349495844	 0.127202
O	-0.335519045	-2.9596251833	-0.2406917249	-0.187908
C	-0.1983896897	-4.0423092857	 0.5478084151	 0.164164
O	 0.7692825414	-4.7410518891	 0.5263352839	-0.275755
H	 0.8328365353	 1.6402145965	-0.4946274016	 0.28918
H	 0.3115969988	-0.4838472749	-1.2983208137	 0.094017
H	 0.8049049463	-0.5181674805	 0.4005774354	 0.099349
H	-1.5512529835	-0.3052944954	 1.1207722156	 0.081418
H	-3.4135680111	-0.2319139826	-0.5152725901	 0.106402
H	-2.2258292441	 0.3959095788	-1.6729604197	 0.120854
H	-3.1417359785	-2.4535776296	-1.6883722452	 0.105596
H	-1.5581053685	-1.9346047959	-2.3026856656	 0.12494
H	-2.1892384647	-2.6204316717	 0.6112572168	 0.09061
H	-1.0754719048	-4.2060037744	 1.204841212	 0.077582
43.7783	94.1367	111.0425	139.0212	178.8863	251.8707	273.1816	302.0049	390.8148	409.8216	502.3932	638.2466	722.7844	799.1414	857.4544	899.1493	930.225	948.4317	969.5773	1044.9462	1061.1772	1074.1996	1091.5104	1128.6029	1157.5214	1180.1538	1202.6197	1238.1069	1248.3321	1254.8786	1260.8139	1292.538	1302.6201	1360.4623	1381.178	1440.3143	1462.1134	1483.7093	1501.169	1521.026	1865.6252	2942.054	2982.0115	3012.4731	3036.3198	3070.5867	3071.7554	3081.5198	3121.9305	3138.1145	3831.3611
OCC1CCC1OC=O	OC[C@H]1CC[C@H]1OC=O	
InChI=1S/C6H10O3/c7-3-5-1-2-6(5)9-4-8/h4-7H,1-3H2	InChI=1S/C6H10O3/c7-3-5-1-2-6(5)9-4-8/h4-7H,1-3H2/t5-,6-/m1/s1
