16
gdb 35102	2.34788	1.79325	1.17734	1.8282	74.52	-0.247	0.0121	0.2591	1040.8628	0.123668	-400.705205	-400.697316	-400.696372	-400.738093	30.069	
C	-0.1016539126	-1.2461442542	 0.2204529389	-0.466976
C	-0.0553763345	-0.049367035	 0.1251595822	 0.373073
C	 0.0251324989	 1.4014752976	-0.0206332817	-0.27612
N	-0.6485372596	 2.1102913693	 1.0983643066	-0.260755
C	 0.2374648251	 2.8605009883	 1.6081425039	 0.113016
O	 1.4900834043	 2.8834300578	 1.1038936212	-0.24136
C	 1.4679744824	 1.9638859718	 0.0028291659	 0.419652
C	 2.721189291	 1.2087043971	-0.2753122592	-0.327279
C	 2.2718204965	 2.3286155591	-1.2012499537	-0.325559
H	-0.1574741629	-2.3024049107	 0.3161491891	 0.201732
H	-0.4785321199	 1.6843211016	-0.9543046401	 0.122718
H	 0.0827590016	 3.5214791194	 2.4536968433	 0.146467
H	 3.568667467	 1.4042746917	 0.3717825884	 0.130848
H	 2.6204554223	 0.1816381764	-0.608029007	 0.136125
H	 1.871444231	 2.0681860509	-2.1761444329	 0.124495
H	 2.8227557195	 3.2617631587	-1.1663183549	 0.129923
44.1955	141.3913	188.6592	281.3459	299.7296	389.3512	470.7838	512.7655	538.3609	604.6148	626.0864	657.1544	760.7355	800.9062	847.1799	892.1154	924.2909	948.944	970.5577	980.3068	1011.3307	1051.5816	1055.1548	1078.9088	1161.9004	1186.9164	1225.0566	1255.8127	1331.8499	1339.7729	1363.4814	1451.2261	1496.971	1699.1285	2239.6793	3014.4879	3129.4322	3139.8179	3217.4785	3218.0213	3234.4909	3501.9895
C#CC1N=COC11CC1	C#C[C@H]1N=COC21CC2	
InChI=1S/C7H7NO/c1-2-6-7(3-4-7)9-5-8-6/h1,5-6H,3-4H2	InChI=1S/C7H7NO/c1-2-6-7(3-4-7)9-5-8-6/h1,5-6H,3-4H2/t6-/m1/s1
