21
gdb 40762	2.69085	1.28518	0.97548	1.805	82.79	-0.249	0.0724	0.3214	1270.8059	0.182369	-387.045115	-387.036516	-387.035572	-387.078892	33.078	
C	-0.2588064984	 1.4553314469	-0.2205870136	-0.277027
C	 1.2004330398	 1.1966836216	 0.054685999	-0.266994
C	 0.2275977065	 0.0416241544	-0.0098199969	 0.006747
C	-0.1342774296	-0.7123183947	 1.2383501592	-0.059627
C	-1.3601592777	-1.6835487885	 1.2307741645	-0.24953
C	-0.5370678793	-2.7110732407	 2.063945997	-0.322498
C	 0.7124489933	-1.9177717502	 1.6785634686	 0.452052
C	 1.9685917392	-2.4066725511	 1.1069515765	-0.265225
O	 1.9082856616	-1.8462466846	 2.4285074289	-0.275659
H	-0.8520439879	 1.9078859452	 0.5673864491	 0.111154
H	-0.548384577	 1.7562936983	-1.2212430658	 0.110558
H	 1.9070865951	 1.3217045682	-0.7582761702	 0.10987
H	 1.5922803147	 1.4696057516	 1.0286918952	 0.120471
H	 0.2846933952	-0.5774172536	-0.9024262268	 0.076322
H	-0.2154557374	-0.0161844712	 2.0827631082	 0.076242
H	-2.2862267412	-1.3126606676	 1.6726938776	 0.103293
H	-1.5735889579	-2.0499290953	 0.2228405995	 0.103449
H	-0.7401663921	-2.6341019952	 3.1362176456	 0.114575
H	-0.5836001719	-3.7621160609	 1.7699545891	 0.104278
H	 2.1623945885	-3.4781869891	 1.0639734991	 0.11012
H	 2.5027286166	-1.8053901436	 0.3728599763	 0.117431
61.6095	86.5352	140.1435	207.5014	284.7771	318.5304	362.193	409.8789	490.4815	570.9637	707.9342	766.7928	805.3014	826.7259	849.669	882.9073	894.5537	911.3869	914.295	956.006	981.791	997.951	1056.4133	1074.6971	1077.7015	1094.1318	1128.9862	1136.276	1154.345	1165.9634	1197.1807	1202.7096	1215.5687	1224.0745	1246.3079	1264.3978	1271.0517	1313.6883	1424.9392	1432.4008	1470.786	1476.5049	1496.1354	1505.5142	1532.82	3028.9267	3058.7312	3065.4263	3078.9378	3108.7807	3125.0772	3128.8417	3130.2863	3136.3236	3166.8371	3208.4723	3223.6707
C1CC1C1CCC11CO1	C1CC1[C@H]1CC[C@]21CO2	
InChI=1S/C8H12O/c1-2-6(1)7-3-4-8(7)5-9-8/h6-7H,1-5H2	InChI=1S/C8H12O/c1-2-6(1)7-3-4-8(7)5-9-8/h6-7H,1-5H2/t7-,8-/m1/s1
