19
gdb 23475	2.78234	1.31277	1.03902	1.2262	79.11	-0.2224	-0.0034	0.219	1194.0591	0.158803	-419.117614	-419.108989	-419.108045	-419.151229	32.578	
C	 0.2033555422	 1.5693903122	-0.2567830814	-0.410379
C	 0.0104931572	 0.0950767185	 0.0624053076	 0.022206
C	 0.6761610185	-0.9734422559	-0.8487088879	-0.193465
N	 1.2752719284	-1.6880410724	 0.3291726711	-0.130006
C	 2.707342147	-1.2938643668	 0.5569294371	-0.280356
C	 2.2463866392	-0.148873919	 1.4358634385	 0.41796
N	 2.7702386347	 0.7648707595	 2.1372772769	-0.240305
O	 4.1724850126	 0.7317008377	 2.0346479576	-0.390806
C	 0.8043700198	-0.5491445132	 1.2344828783	-0.106066
H	 1.2620270694	 1.8188980603	-0.3749002459	 0.12458
H	-0.3132713055	 1.8340741373	-1.1858563318	 0.116035
H	-0.1983370876	 2.2026860004	 0.5412855558	 0.123698
H	-1.0543460865	-0.1189679673	 0.1935892553	 0.084899
H	-0.0074939614	-1.608425862	-1.4189959419	 0.107399
H	 1.4274871971	-0.5694818195	-1.5390007802	 0.097384
H	 3.273191575	-2.0652707746	 1.0911739095	 0.13185
H	 3.2640933544	-1.0221665873	-0.3471848477	 0.123706
H	 4.4371610076	 1.449842712	 2.6195541	 0.308625
H	 0.2439344579	-0.8031261999	 2.1385934991	 0.09304
60.4115	93.3036	195.901	210.6927	261.0198	325.7558	365.9203	408.2488	429.0225	480.2018	594.0289	641.7394	741.8546	767.7091	871.3359	891.9837	899.2901	926.7937	955.8797	978.3406	989.8055	1034.8002	1074.8023	1117.2244	1156.3999	1170.6226	1187.1079	1188.7916	1203.6635	1254.1984	1270.4502	1304.9289	1322.9762	1366.1303	1409.0135	1415.5766	1469.4812	1493.0771	1494.9916	1506.0967	1784.088	3020.4455	3031.5812	3032.9202	3053.5782	3069.6159	3074.6562	3084.8507	3097.5946	3110.6372	3816.9994
CC1CN2CC(=NO)C12	C[C@H]1CN2CC(=NO)[C@@H]12	
InChI=1S/C6H10N2O/c1-4-2-8-3-5(7-9)6(4)8/h4,6,9H,2-3H2,1H3	InChI=1S/C6H10N2O/c1-4-2-8-3-5(7-9)6(4)8/h4,6,9H,2-3H2,1H3/t4-,6+/m0/s1
