16
gdb 74842	2.51867	1.76433	1.13237	2.4048	71.95	-0.2252	0.0014	0.2266	1042.103	0.127325	-434.115759	-434.10832	-434.107376	-434.147488	29.455	
N	-0.0046253562	 1.3760353484	-0.1381519273	-0.567274
C	-0.0577275741	-0.0088291647	-0.0546017858	 0.428466
N	-1.1713247581	-0.6192592367	 0.0713014175	-0.311121
C	-1.1692242925	-2.0396037075	-0.0145393168	 0.011621
C	-0.7318353445	-2.7285223313	-1.2697841687	-0.302261
C	 0.1625902163	-2.8077555258	-0.0399453572	-0.169545
C	 1.4004875009	-1.9979105859	 0.0047322592	 0.420442
O	 2.5183581351	-2.4344641478	 0.1789316298	-0.368654
N	 1.1872275247	-0.6300793075	-0.1673255224	-0.384065
H	 0.7508335344	 1.8133861466	 0.3731548663	 0.249791
H	-0.9021601593	 1.7835081241	 0.0876901905	 0.263867
H	-1.9809446438	-2.5012405217	 0.5378773847	 0.102999
H	-1.2308885206	-3.6468148578	-1.5571199452	 0.126963
H	-0.403298474	-2.1089566174	-2.0970693053	 0.131662
H	 0.2540499571	-3.7656531323	 0.456803726	 0.113572
H	 2.0280081645	-0.0706988527	-0.1886862053	 0.253537
125.6182	163.1513	234.5603	341.7309	352.5813	429.9211	484.1601	515.5298	536.2665	573.8068	656.221	688.7755	755.115	765.0529	778.9646	806.0276	884.0152	959.4819	982.9181	1022.1736	1042.5071	1067.0321	1113.4215	1124.2118	1187.7662	1263.9687	1277.5106	1322.6244	1359.7753	1394.0808	1475.1339	1492.4535	1631.6692	1747.1239	1807.7614	3137.2948	3160.823	3192.6866	3229.2356	3545.7205	3608.9695	3651.2402
NC1=NC2CC2C(=O)N1	NC1=N[C@H]2C[C@H]2C(=O)N1	
InChI=1S/C5H7N3O/c6-5-7-3-1-2(3)4(9)8-5/h2-3H,1H2,(H3,6,7,8,9)	InChI=1S/C5H7N3O/c6-5-7-3-1-2(3)4(9)8-5/h2-3H,1H2,(H3,6,7,8,9)/t2-,3+/m1/s1
