18
gdb 54545	3.40039	1.43173	1.21504	3.2707	75.33	-0.2407	0.0229	0.2636	1048.7504	0.148637	-401.931531	-401.923578	-401.922634	-401.964779	30.793	
N	 0.1242207474	 1.1410096331	-0.5338460448	-0.533682
C	-0.0228811697	 0.082013658	 0.3152021177	 0.263412
O	 0.8098906441	-0.203555143	 1.1566094784	-0.367906
C	-1.2784988206	-0.7293028313	 0.1428940617	 0.253301
C	-2.1469518573	-1.0257443864	 1.4050024512	-0.262046
C	-2.5285441075	-2.3285546167	 0.7140111638	-0.067116
C	-2.6353745898	-2.0335487826	-0.7929950591	-0.071881
C	-2.3236639279	-0.5524701267	-0.9972026775	-0.314621
C	-1.2954638087	-2.2928226578	-0.1514385063	-0.101866
H	 0.9195607898	 1.7449847947	-0.4042494518	 0.259656
H	-0.6024233309	 1.4239580105	-1.1666545297	 0.261783
H	-1.5008865565	-1.1986005901	 2.2678035588	 0.12726
H	-2.9289517141	-0.297814585	 1.652457305	 0.086336
H	-3.0093463357	-3.1985825339	 1.1421822627	 0.088874
H	-3.1858267215	-2.6910726371	-1.4532066311	 0.088631
H	-3.1191757539	 0.1872305408	-0.8434071649	 0.091032
H	-1.8468251228	-0.3906863037	-1.9694870822	 0.098297
H	-0.5079809043	-3.0059445528	-0.3428463518	 0.100535
26.8978	173.2609	176.1994	203.2216	368.9067	401.4896	428.167	492.4459	579.5238	639.6079	723.7785	741.5777	747.3413	791.3574	799.0257	914.3301	922.9315	937.5287	966.5504	997.7508	1004.4198	1025.6382	1039.102	1075.4663	1087.0236	1107.7611	1136.9063	1166.9563	1174.2072	1201.0646	1248.6049	1278.8414	1295.682	1362.5668	1392.2085	1490.6022	1507.0485	1612.8299	1782.7769	3018.1729	3030.0328	3079.4432	3120.3505	3193.8372	3201.374	3234.1437	3603.133	3741.8972
NC(=O)C12CC3C(C1)C23	NC(=O)[C@@]12C[C@H]3[C@@H](C1)[C@@H]23	
InChI=1S/C7H9NO/c8-6(9)7-1-3-4(2-7)5(3)7/h3-5H,1-2H2,(H2,8,9)	InChI=1S/C7H9NO/c8-6(9)7-1-3-4(2-7)5(3)7/h3-5H,1-2H2,(H2,8,9)/t3-,4+,5-,7-
