14
gdb 10795	4.75128	1.58541	1.2582	2.0589	57.65	-0.2631	-0.0404	0.2227	901.3196	0.107362	-419.734106	-419.727153	-419.726209	-419.765828	25.354	
O	 0.0075672639	-0.0113960829	 0.4573307308	-0.289889
C	-0.0534774846	 1.1255766851	 0.0632069095	 0.367949
C	-1.3346333165	 1.921192926	-0.0891503589	-0.31739
C	-1.1767226944	 2.952575515	-1.2171241067	-0.364216
C	-0.0067112705	 3.8813171912	-0.9444470384	 0.42193
O	-0.0143939326	 5.065355441	-1.1238595103	-0.313037
O	 1.0997255281	 3.2909325142	-0.4114796734	-0.220283
C	 1.2089200777	 1.8661165834	-0.382950302	-0.177978
H	-2.1669582789	 1.2336619935	-0.2556247845	 0.143032
H	-1.5262435468	 2.4367385743	 0.8615576957	 0.15175
H	-1.0034136687	 2.4406648461	-2.1727877623	 0.140616
H	-2.0657439279	 3.5714661713	-1.3403661726	 0.14959
H	 2.0267355177	 1.6315653193	 0.3004225104	 0.161885
H	 1.4891579034	 1.4882922724	-1.3768996173	 0.146042
58.9634	153.0447	200.1284	366.7565	419.809	424.3606	510.5439	539.1015	615.3527	696.9569	736.3972	786.6706	895.2549	932.2115	981.5484	1061.2981	1101.5337	1146.2589	1166.397	1197.8705	1251.9123	1283.4811	1321.3894	1347.7332	1375.3551	1456.5659	1467.6414	1478.0725	1835.639	1864.2475	3013.2237	3029.847	3040.4805	3111.4158	3125.4616	3133.5602
O=C1CCC(=O)OC1	O=C1CCC(=O)OC1	
InChI=1S/C5H6O3/c6-4-1-2-5(7)8-3-4/h1-3H2	InChI=1S/C5H6O3/c6-4-1-2-5(7)8-3-4/h1-3H2
