19
gdb 51805	4.06302	0.96074	0.85785	4.3325	76.84	-0.2714	0.0134	0.2847	1358.1154	0.160395	-423.052474	-423.044309	-423.043365	-423.086364	30.56	
O	-0.0157827972	-0.0044027895	-0.2557096362	-0.280458
C	 0.01896915	 1.189338559	-0.2973099435	 0.163614
O	 0.9815604797	 1.9140759777	 0.2944975513	-0.187807
C	 0.9453044501	 3.3487187131	 0.1672816373	 0.126126
C	 1.0758231212	 3.9996906888	 1.5592401206	-0.263541
C	 1.7747386085	 5.3525401294	 1.3086731897	-0.220433
C	 2.6172863794	 5.1287670343	 0.057170416	-0.027056
C	 3.4618638676	 3.8842103776	-0.0003611585	-0.284129
C	 2.0992640703	 3.892511111	-0.6499542433	-0.048786
H	-0.7326754379	 1.8158690161	-0.8184700911	 0.071943
H	-0.0039223108	 3.6281787163	-0.3088039395	 0.086316
H	 0.1100533489	 4.101848739	 2.0593595742	 0.107612
H	 1.6903659999	 3.3452108292	 2.1834995931	 0.129837
H	 1.0338520503	 6.135613849	 1.1101710634	 0.104611
H	 2.3633726429	 5.6789886513	 2.1724555743	 0.106496
H	 2.9395373363	 5.9946187488	-0.5101321348	 0.087539
H	 4.314655383	 3.8950323252	-0.6694787396	 0.116985
H	 3.6156067656	 3.2947854428	 0.8971012081	 0.123476
H	 2.0331683322	 3.8351700806	-1.7304165614	 0.087655
34.5099	98.1262	149.1189	246.5149	286.8027	343.581	390.9513	428.643	600.8867	635.8482	717.1964	779.7767	826.5729	840.3329	890.7991	939.8557	959.0394	982.5114	998.7361	1032.3868	1045.3704	1061.1749	1064.1749	1093.5454	1110.9773	1140.7056	1190.2942	1204.5793	1218.1558	1233.7711	1303.8948	1328.9778	1330.7037	1355.6503	1385.6831	1400.5169	1444.4729	1487.0986	1495.4193	1511.8833	1862.5458	2933.9784	3017.4981	3037.4113	3066.888	3077.2604	3113.651	3138.0458	3169.4141	3178.1958	3220.9917
O=COC1CCC2CC12	O=CO[C@H]1CC[C@H]2C[C@@H]12	
InChI=1S/C7H10O2/c8-4-9-7-2-1-5-3-6(5)7/h4-7H,1-3H2	InChI=1S/C7H10O2/c8-4-9-7-2-1-5-3-6(5)7/h4-7H,1-3H2/t5-,6+,7-/m0/s1
