19
gdb 38497	3.11588	1.74696	1.60673	1.6091	77.1	-0.2223	0.0708	0.2931	922.8477	0.162647	-381.990362	-381.98364	-381.982696	-382.021018	28.475	
C	 0.0079087449	 1.4434299418	 0.0620700742	-0.241635
C	 1.2793317417	 0.677040661	 0.0279972192	-0.141105
N	-0.0512602548	-0.0235301675	 0.063220639	-0.099286
C	-0.327050485	-0.5903263535	-1.2984162948	-0.276728
C	 0.9089382725	-0.3119782687	-2.1307742783	 0.241453
C	 1.2105920997	 0.5453481435	-3.3767126205	-0.268905
C	 2.2467199541	 1.3577965859	-2.5138905218	-0.273749
C	 1.8836010169	 0.4572377654	-1.3146418476	 0.250797
N	 2.1840552008	-0.934824832	-1.7132270305	-0.40425
H	-0.3121325109	 1.9172535651	 0.9856902014	 0.119855
H	-0.2931359258	 1.9680710434	-0.8434346519	 0.108192
H	 1.8735271308	 0.5822360015	 0.9333297497	 0.096283
H	-0.5379992557	-1.6592746398	-1.1814331886	 0.111768
H	-1.2212379455	-0.1241586384	-1.7265064727	 0.111242
H	 1.6045221232	 0.0006978844	-4.2373880173	 0.110661
H	 0.3588237103	 1.1539561721	-3.6900623936	 0.10195
H	 3.2908864658	 1.3116326818	-2.8296604323	 0.111185
H	 1.9533945018	 2.3996566512	-2.372302058	 0.105441
H	 1.9932707552	-1.5393560474	-0.9151954955	 0.236831
165.7376	222.0514	308.5074	381.3831	450.6088	468.149	520.756	645.1531	668.2239	719.5325	745.8824	766.2077	793.3397	837.0825	867.7004	930.0594	933.3289	966.3738	977.3493	1016.4246	1047.85	1074.6741	1092.3796	1112.3498	1118.3176	1132.6292	1158.3944	1206.5013	1225.568	1233.3178	1239.7704	1251.5065	1297.3816	1333.8527	1358.4452	1368.0157	1402.9394	1466.3092	1486.0452	1497.9122	1509.6334	3033.3941	3063.5462	3072.7761	3073.57	3095.7064	3116.1736	3135.0203	3137.1835	3184.5704	3484.2918
C1C2N1CC13CCC21N3	C1[C@H]2N1C[C@@]13CC[C@@]21N3	
InChI=1S/C7H10N2/c1-2-7-5-3-9(5)4-6(1,7)8-7/h5,8H,1-4H2	InChI=1S/C7H10N2/c1-2-7-5-3-9(5)4-6(1,7)8-7/h5,8H,1-4H2/t5-,6+,7-,9?/m1/s1
