17
gdb 79524	3.22259	1.55654	1.29349	2.4157	66.51	-0.2309	0.0504	0.2813	977.9036	0.13685	-458.890243	-458.882999	-458.882055	-458.921966	28.871	
O	 0.0953679944	 1.4000393688	 0.2241166916	-0.441872
C	-0.0067712818	 0.0026278027	 0.0636864542	 0.085285
C	-1.4158005126	-0.5199267684	-0.1854384902	-0.07041
C	-1.3218306502	-1.9374703681	-0.8189061185	 0.030367
O	-2.5342342147	-1.705479198	-1.6150441739	-0.314962
C	-1.7577894195	-0.458560296	-1.7061314831	 0.048943
C	-0.437368521	-1.2588895513	-1.9065081161	-0.03528
C	 0.7052454717	-0.5116868009	-1.2510667283	 0.02685
O	 1.0885000547	 0.5726994047	-2.0918485187	-0.434247
H	 0.0894537868	 1.7696107548	-0.6693572105	 0.28034
H	 0.4312504798	-0.4463000276	 0.9617085291	 0.08546
H	-2.205975646	-0.3171637733	 0.5352675408	 0.086988
H	-1.2030024703	-2.9089316104	-0.3377866401	 0.094112
H	-2.170758847	 0.355343767	-2.3005310995	 0.100047
H	-0.2778178696	-1.7737843809	-2.8519855464	 0.088289
H	 1.5682512467	-1.1542287954	-1.0375862855	 0.075961
H	 1.8952270085	 0.9554566023	-1.7303078146	 0.29413
94.4183	174.1074	212.1197	316.5781	366.0213	486.7846	504.0241	573.1154	603.1855	682.7528	734.4425	772.4421	809.1594	873.9318	887.6971	904.2752	916.0158	969.6405	981.6218	1013.2378	1042.0208	1093.6947	1105.292	1131.521	1149.4115	1165.8757	1182.6409	1222.3857	1229.0696	1249.7207	1274.0518	1276.9239	1314.2527	1339.0399	1368.9187	1429.7102	1447.3351	3023.8592	3053.3797	3110.7779	3126.8809	3145.1565	3150.3544	3749.6657	3812.8073
OC1C2C3OC2C3C1O	O[C@H]1[C@@H]2[C@H]3O[C@@H]2[C@H]3[C@H]1O	
InChI=1S/C6H8O3/c7-3-1-5-2(4(3)8)6(1)9-5/h1-8H	InChI=1S/C6H8O3/c7-3-1-5-2(4(3)8)6(1)9-5/h1-8H/t1-,2+,3-,4+,5-,6+
