20
gdb 81565	2.97019	1.18779	1.13092	1.6342	79.94	-0.2368	-0.019	0.2178	1213.3201	0.169595	-403.085375	-403.076328	-403.075384	-403.119803	33.525	
C	-0.1105370939	 1.654416511	-0.0629175525	-0.451972
C	-0.013576923	 0.1434661604	-0.1437423225	 0.098817
C	 0.7986695674	-0.6215948446	-1.2273846587	-0.09176
C	 2.0446291673	-0.174002857	-0.4312390605	-0.184395
N	 1.0794210798	-0.577515775	 0.7022413565	-0.183889
C	 0.7782494926	-1.7863290677	-0.2187906687	-0.022421
C	-0.4805691645	-2.5894025659	 0.0699666438	 0.331369
C	-0.5805435503	-3.16268699	 1.4685129022	-0.478711
O	-1.316621151	-2.7797948659	-0.7843066528	-0.298406
H	 0.8002718114	 2.1818051864	-0.3526879951	 0.122258
H	-0.9169053235	 1.999469556	-0.7186607216	 0.127319
H	-0.3636487624	 1.9543063723	 0.9594627487	 0.132755
H	-1.0012427529	-0.2786240352	 0.0614885451	 0.087002
H	 0.6410235665	-0.6568077344	-2.3091637333	 0.076699
H	 2.936379321	-0.8049558279	-0.480548472	 0.10138
H	 2.3219540896	 0.8793062075	-0.4246150566	 0.106016
H	 1.6311606045	-2.4772944959	-0.2507085864	 0.090033
H	-0.4773754749	-2.3608053824	 2.2069610454	 0.159051
H	-1.5295319694	-3.6853415959	 1.5932417528	 0.138343
H	 0.2485886558	-3.8575337758	 1.6477847361	 0.140514
38.8437	121.3366	145.7134	156.3958	171.1248	278.5146	344.2423	387.2393	471.9215	521.6789	592.209	630.8441	739.9773	779.1117	780.0994	843.3086	866.3787	904.9683	938.9204	990.6443	1028.6011	1039.9481	1048.1893	1074.3945	1109.312	1143.0771	1148.6301	1162.3554	1191.5415	1216.5893	1229.6019	1246.8085	1275.0884	1376.4936	1395.9257	1408.869	1441.4477	1461.5211	1469.1102	1493.9744	1494.1906	1546.2727	1806.3844	3022.281	3037.9191	3041.8381	3060.4177	3065.2603	3074.9228	3099.6029	3102.3609	3126.1374	3146.4578	3154.5733
CC1C2CN1C2C(C)=O	C[C@H]1[C@H]2CN1[C@H]2C(=O)C	
InChI=1S/C7H11NO/c1-4-6-3-8(4)7(6)5(2)9/h4,6-7H,3H2,1-2H3	InChI=1S/C7H11NO/c1-4-6-3-8(4)7(6)5(2)9/h4,6-7H,3H2,1-2H3/t4-,6+,7-/m0/s1
