23
gdb 107064	3.69386	1.08921	0.96646	0.9352	85.69	-0.242	0.0873	0.3294	1338.3808	0.205929	-388.288809	-388.279545	-388.278601	-388.322426	35.898	
C	 0.0655423196	 1.2931600634	 0.3164000201	-0.252648
O	-0.0548253868	 0.0045375224	-0.2545383351	-0.291403
C	-1.3280768094	-0.547201213	-0.1387336665	 0.457657
C	-1.7446790342	-1.1566415943	 1.1789911115	-0.359118
C	-1.4700599563	-2.0377024479	-0.0315298264	-0.109607
C	-2.6528651697	-2.4822834224	-0.8851911147	 0.032832
C	-3.4778359165	-3.6323964729	-0.3054034766	-0.396695
C	-3.4632493099	-1.1776732861	-1.1011518342	-0.238942
C	-2.4303723136	-0.0312444602	-1.0593207431	-0.284806
H	 1.1122088687	 1.5903515534	 0.2157097536	 0.123319
H	-0.5617594875	 2.0342877199	-0.1991935738	 0.107653
H	-0.2061012537	 1.2904344545	 1.38180797	 0.106194
H	-0.98417744	-1.1757288148	 1.9519370444	 0.112401
H	-2.7573458327	-1.0303815051	 1.5491823999	 0.105542
H	-0.5819223737	-2.6591248807	 0.0050310285	 0.087206
H	-2.2471507389	-2.8013979967	-1.8555315533	 0.072546
H	-3.8661441801	-3.3737895386	 0.686088646	 0.112574
H	-4.3321436033	-3.8704014833	-0.9487563144	 0.108961
H	-2.8766797708	-4.5416411094	-0.2002713946	 0.111258
H	-4.033969734	-1.1948218441	-2.0337312462	 0.097515
H	-4.1926568322	-1.0598082937	-0.2915173509	 0.099863
H	-2.8735778907	 0.9166823461	-0.7354969295	 0.092716
H	-1.9863534944	 0.1334733031	-2.0485251446	 0.104983
95.2234	125.1232	178.1777	190.6416	229.6078	246.5042	307.1232	372.1363	393.2219	414.8442	511.37	584.545	605.314	686.0089	792.5418	835.5762	891.5033	910.5722	948.1925	965.1205	975.7132	982.8932	1002.019	1040.4317	1053.4024	1063.4335	1113.6159	1132.6433	1155.342	1182.9069	1195.2517	1212.366	1231.2002	1259.7087	1280.4623	1312.2838	1328.9076	1341.87	1369.1414	1395.401	1411.8044	1472.2401	1485.9865	1488.4198	1493.2272	1496.7957	1499.1161	1508.944	1513.0923	2988.7459	3002.2954	3025.7793	3031.1755	3039.9368	3041.4488	3071.7871	3090.5975	3094.0291	3097.0903	3114.7651	3127.4293	3170.579	3214.7552
COC12CC1C(C)CC2	CO[C@]12C[C@H]1[C@@H](C)CC2	
InChI=1S/C8H14O/c1-6-3-4-8(9-2)5-7(6)8/h6-7H,3-5H2,1-2H3	InChI=1S/C8H14O/c1-6-3-4-8(9-2)5-7(6)8/h6-7H,3-5H2,1-2H3/t6-,7-,8+/m0/s1
