18
gdb 74483	3.27732	1.31512	1.021	3.1379	84.57	-0.2253	-0.0219	0.2034	1192.4992	0.147545	-401.971295	-401.963039	-401.962094	-402.004029	31.767	
C	 0.0328785194	 1.5165470657	-0.0225183787	-0.486363
C	-0.0342408764	 0.0269971739	-0.0066500737	 0.276548
C	-1.0866927655	-0.7990614554	-0.0723781106	-0.319622
C	-0.6171554861	-2.1935812063	-0.0192874409	 0.419536
C	-1.3102212666	-3.3208911158	 0.7028791795	-0.321028
C	-1.1999569738	-3.3411815591	-0.8041911718	-0.321027
O	 0.794901459	-2.1302664814	 0.0831899227	-0.275895
C	 1.1772709127	-0.8080169228	 0.0933607682	 0.305164
N	 2.3720246212	-0.3934602552	 0.1754327858	-0.55092
H	 0.6448869724	 1.8640154834	-0.8614365712	 0.147202
H	-0.9614820387	 1.9625419829	-0.1013240233	 0.118281
H	 0.5177536878	 1.888258677	 0.8861587664	 0.147215
H	-2.1316006748	-0.5290273611	-0.1522952034	 0.119759
H	-0.6692981712	-3.9928458449	 1.2618096103	 0.136542
H	-2.2735257179	-3.1187396631	 1.1579425336	 0.123871
H	-2.0863856509	-3.1531853317	-1.3998456347	 0.123873
H	-0.4858254349	-4.0265995621	-1.2456979684	 0.136547
H	 3.0250412544	-1.175737274	 0.2341080803	 0.220317
113.904	125.2824	157.6824	233.4261	278.2334	320.559	363.6136	491.5168	509.8565	539.238	620.0931	739.5442	765.2476	788.1272	838.3402	868.9713	874.9207	910.0819	928.451	931.7441	986.4661	1015.4162	1056.9625	1068.6114	1068.6374	1071.2448	1160.8426	1192.7881	1219.6202	1290.0159	1370.1818	1395.4196	1416.4396	1451.6961	1471.3727	1484.4334	1491.3272	1699.4985	1752.2214	3040.119	3095.9646	3124.6681	3137.1073	3139.0274	3219.913	3223.4624	3237.7928	3484.6525
CC1=CC2(CC2)OC1=N	CC1=C(OC2([CH]1)CC2)[NH]	
InChI=1S/C7H9NO/c1-5-4-7(2-3-7)9-6(5)8/h4,8H,2-3H2,1H3	InChI=1S/C7H9NO/c1-5-4-7(2-3-7)9-6(5)8/h4,8H,2-3H2,1H3
