23
gdb 123237	10.24665	0.35557	0.35127	3.1215	84.99	-0.2481	-0.0191	0.229	2970.8606	0.202898	-425.437582	-425.42608	-425.425136	-425.476323	38.964	
O	-0.0662410328	 1.5049459659	-0.0949730699	-0.421094
C	 0.0447820434	 0.0902973354	-0.0530329513	-0.073952
C	-1.3622987526	-0.4904904736	-0.0074191527	-0.165576
C	-1.3777363215	-2.0211519194	 0.0371227862	-0.188571
C	-2.7935055122	-2.6057788095	 0.0862713189	-0.17418
C	-2.8130089737	-4.1375359756	 0.1277732688	-0.194252
C	-4.2370969688	-4.7176810294	 0.1908007293	-0.273017
C	-4.2339164571	-6.2266096074	 0.1185443991	 0.159932
O	-4.7195737362	-6.9632249092	 0.9376008175	-0.237499
H	 0.8203798937	 1.876112942	-0.1192907768	 0.285308
H	 0.5770407635	-0.2945272222	-0.9388784397	 0.082679
H	 0.6117972149	-0.2392431953	 0.8334755028	 0.083412
H	-1.8777328024	-0.0817986268	 0.8704503449	 0.105675
H	-1.9133710656	-0.1323852744	-0.8858321796	 0.10476
H	-0.8516752237	-2.4202859261	-0.8413249532	 0.094348
H	-0.8124100391	-2.3693301429	 0.9127376147	 0.096308
H	-3.3200483588	-2.211579135	 0.9656291803	 0.101402
H	-3.3621752841	-2.2599081152	-0.7877803451	 0.097169
H	-2.2973244995	-4.5335152187	-0.7577291639	 0.100935
H	-2.242160394	-4.4886979483	 0.9969719122	 0.110781
H	-4.757757251	-4.4113139497	 1.1028953105	 0.121253
H	-4.8124686781	-4.3473281867	-0.6708125138	 0.116848
H	-3.7193648042	-6.6367899679	-0.7837620894	 0.067331
39.013	52.3176	77.4021	85.3273	108.5796	147.3684	158.6374	199.473	251.0985	265.2002	335.0774	441.4564	479.741	534.4238	735.8882	752.118	790.5161	841.1789	915.924	972.9065	1002.0189	1017.6332	1028.8649	1051.2104	1067.3223	1079.7612	1113.2991	1165.5531	1198.4926	1218.2745	1249.3379	1260.7762	1294.662	1301.0972	1315.5212	1334.1782	1336.3383	1347.3954	1388.6713	1403.6723	1431.592	1464.4207	1465.0401	1485.2991	1488.5694	1499.486	1512.2048	1529.895	1837.0179	2843.6287	2956.3586	2981.0166	3004.0992	3007.4087	3009.7493	3019.2399	3028.3771	3031.202	3042.1918	3062.5657	3076.8973	3097.6221	3830.2376
OCCCCCCC=O	OCCCCCCC=O	
InChI=1S/C7H14O2/c8-6-4-2-1-3-5-7-9/h6,9H,1-5,7H2	InChI=1S/C7H14O2/c8-6-4-2-1-3-5-7-9/h6,9H,1-5,7H2
