17
gdb 108731	2.9518	1.25464	0.94354	5.3817	76.29	-0.232	-0.0422	0.1898	1217.4618	0.136062	-421.840191	-421.832054	-421.83111	-421.873165	30.564	
O	 0.0276522181	 1.3845020376	-0.077780928	-0.407988
C	-0.0246305382	-0.0221869559	 0.0213085717	-0.177562
C	-1.4434479631	-0.4805308339	 0.0454625946	 0.318497
C	-2.5490773803	 0.2814797221	 0.0039302252	-0.316187
C	-3.7660225997	-0.570085137	 0.0571046536	 0.408935
O	-4.9179724243	-0.2063350756	 0.1216897419	-0.342894
C	-3.2821386103	-2.0096970592	 0.0426239333	-0.158455
C	-2.4899966959	-2.4321060632	-1.1823638623	-0.279889
C	-1.7790761137	-1.9424499138	 0.0624571845	-0.144636
H	 0.9488131647	 1.6571320333	-0.0428239948	 0.294644
H	 0.4882619196	-0.5155129408	-0.8238812683	 0.10997
H	 0.476768894	-0.3875072272	 0.9355921821	 0.10756
H	-2.580523384	 1.3585132581	-0.0735829725	 0.127418
H	-3.8513187034	-2.7572180176	 0.579399468	 0.110667
H	-2.4627200517	-3.4954676877	-1.3981227035	 0.122899
H	-2.4935417876	-1.7865516998	-2.0542769008	 0.129574
H	-1.1724511044	-2.6348653293	 0.6352014953	 0.097445
85.2443	147.9591	174.4741	196.6581	236.8342	317.7789	409.2168	453.6097	544.6733	611.1296	642.625	753.696	793.561	822.4788	853.1565	880.9279	924.5154	955.0571	988.2694	1029.6801	1058.5091	1077.1777	1084.3159	1095.348	1150.1777	1171.1975	1188.824	1217.9766	1250.5016	1291.0662	1319.093	1364.0791	1464.3999	1480.3804	1496.4756	1668.1313	1810.657	2942.2314	2955.9733	3127.1201	3174.6954	3204.7181	3220.1542	3249.4497	3840.1573
OCC1=CC(=O)C2CC12	OCC1=CC(=O)[C@H]2C[C@@H]12	
InChI=1S/C7H8O2/c8-3-4-1-7(9)6-2-5(4)6/h1,5-6,8H,2-3H2	InChI=1S/C7H8O2/c8-3-4-1-7(9)6-2-5(4)6/h1,5-6,8H,2-3H2/t5-,6-/m0/s1
