21
gdb 66379	2.26588	1.45419	1.29482	1.703	78.34	-0.2399	-0.0286	0.2113	1129.6717	0.182067	-424.254183	-424.245206	-424.244262	-424.287622	34.384	
C	 0.1079238782	 1.5431734776	 0.2147122983	-0.43306
C	 0.001822937	 0.0183561194	 0.0813608219	 0.263475
C	 0.5723984804	-0.4770796085	-1.2559644221	-0.221323
C	 0.7515545803	-2.0018241797	-1.2779572513	-0.223862
C	 1.5126254831	-2.4644542494	-0.0294784669	-0.193791
C	 0.8158627692	-1.9306866596	 1.2193674931	-0.079104
O	 0.7088996417	-0.5094672728	 1.2031550424	-0.288204
C	-1.4855928542	-0.3254080647	 0.2406951309	 0.12825
O	-2.2578865185	-0.5258779672	-0.6599844704	-0.253307
H	 1.1640464675	 1.8250620043	 0.238285002	 0.131957
H	-0.3796918105	 2.0387478757	-0.6288627856	 0.13099
H	-0.3557262568	 1.8858589653	 1.1447278171	 0.125835
H	-0.096660285	-0.1572080776	-2.0598383594	 0.116776
H	 1.5412242033	 0.0122164	-1.4118697151	 0.096199
H	-0.233081057	-2.4844603119	-1.3072320611	 0.114164
H	 1.2760485808	-2.3036527794	-2.190247009	 0.097514
H	 1.5657441694	-3.5579448818	 0.0193791997	 0.096596
H	 2.5423562576	-2.0863409557	-0.052528368	 0.10253
H	-0.1834667062	-2.3898672643	 1.3104072136	 0.091293
H	 1.372145535	-2.170737887	 2.1298295227	 0.10965
H	-1.8078324352	-0.3356086229	 1.3083088871	 0.087421
73.6522	141.0568	173.851	219.9141	284.0987	297.0534	317.8781	329.7772	428.0819	451.2264	470.2477	567.941	582.1172	743.3541	821.2344	851.4797	877.5981	916.7825	922.0405	948.3014	988.8158	1006.6477	1063.7627	1074.2679	1107.3812	1137.0327	1194.2188	1200.0145	1236.9603	1255.4172	1304.3279	1313.5645	1361.6536	1369.9229	1379.0866	1390.2417	1404.7446	1410.5892	1465.2709	1477.9065	1482.041	1492.2395	1497.1928	1505.9584	1831.4572	2864.8578	2960.026	3027.9946	3033.0028	3036.5374	3042.8705	3072.1618	3080.6418	3086.9718	3097.6028	3116.7456	3130.3842
CC1(CCCCO1)C=O	C[C@]1(CCCCO1)C=O	
InChI=1S/C7H12O2/c1-7(6-8)4-2-3-5-9-7/h6H,2-5H2,1H3	InChI=1S/C7H12O2/c1-7(6-8)4-2-3-5-9-7/h6H,2-5H2,1H3/t7-/m0/s1
