19
gdb 76495	3.23304	1.00173	0.95647	3.0465	72.29	-0.2312	0.0507	0.2819	1298.2149	0.157628	-460.115791	-460.106648	-460.105704	-460.149612	34.928	
O	 0.2495207975	 1.3185509539	 0.4865592291	-0.430259
C	 0.1901659658	-0.0791990991	 0.321885548	-0.054032
C	-0.7016647571	-0.8166595884	 1.2978874875	 0.029914
O	-1.3044457203	-0.0736105126	 2.3121832444	-0.430088
C	-1.1340272183	-0.6102107284	-0.1360741908	 0.28274
C	-2.3785762084	 0.1858847224	-0.5374571468	-0.336229
C	-2.8783090012	-1.0986942725	-1.2646165844	 0.175719
O	-3.5088007156	-0.9904743838	-2.5130302537	-0.431948
C	-1.439002003	-1.6922591933	-1.1765057184	-0.359605
H	 0.9958435584	 1.5151520357	 1.064467745	 0.295977
H	 1.1025931916	-0.5421601698	-0.052283006	 0.089596
H	-0.4283973787	-1.8141288406	 1.632002462	 0.099633
H	-1.1097083779	 0.8529298004	 2.1122005474	 0.28453
H	-2.9964316034	 0.5803016115	 0.2722665171	 0.112995
H	-2.1524917297	 0.9930903315	-1.2435679562	 0.098952
H	-3.5712770468	-1.6598283265	-0.6324078793	 0.100821
H	-2.935951287	-0.4765793558	-3.0923711257	 0.276125
H	-0.8870109429	-1.5366386651	-2.1120381511	 0.091843
H	-1.3376892632	-2.7397364394	-0.8789244781	 0.103316
65.0283	150.3239	153.7933	235.8336	243.0529	281.0402	307.8162	368.8533	417.8622	464.5744	492.5106	504.829	598.7756	656.5931	724.3422	806.9737	834.9448	866.507	925.3189	973.3877	999.7091	1045.3066	1058.8064	1079.8143	1107.7048	1124.3035	1163.509	1169.905	1188.4448	1213.9944	1237.4653	1262.708	1277.1518	1309.3219	1326.6762	1338.1677	1408.89	1434.9961	1467.0021	1479.7525	1489.7655	3025.4058	3042.2817	3076.5168	3093.7311	3105.1719	3110.8494	3144.6479	3738.9093	3793.8408	3803.5627
OC1C(O)C11CC(O)C1	O[C@H]1[C@@H](O)[C@]21C[C@@H](O)C2	
InChI=1S/C6H10O3/c7-3-1-6(2-3)4(8)5(6)9/h3-5,7-9H,1-2H2	InChI=1S/C6H10O3/c7-3-1-6(2-3)4(8)5(6)9/h3-5,7-9H,1-2H2/t3-,4-,5+,6-/m0/s1
