19
gdb 92312	2.39545	1.71688	1.14561	2.6177	75.93	-0.2059	-0.0198	0.1861	1097.879	0.160407	-419.19013	-419.181833	-419.180889	-419.223331	31.191	
C	 0.0143256007	 1.5543903333	 0.1433499813	-0.329648
N	 0.0488665726	 0.1112691402	 0.1752622123	-0.076894
C	-1.2021890449	-0.6614024505	 0.2964960992	-0.161721
C	-0.4858268002	-1.6319410745	 1.2708296409	-0.026498
N	 0.0633140342	-2.8588722099	 0.6703985438	-0.306212
C	 1.422623082	-2.5836702209	 0.1774691286	-0.286414
C	 1.9114885104	-1.3048139675	 0.879972129	 0.423322
O	 3.0529653563	-0.9467208176	 1.008030225	-0.317369
C	 0.6508715165	-0.5763602041	 1.3422299683	-0.117088
H	 1.035209583	 1.9487799083	 0.1402824531	 0.135474
H	-0.4781080542	 1.8908140757	-0.7751173878	 0.124939
H	-0.524736348	 1.9962004831	 1.0030722508	 0.091638
H	-2.0132508856	-0.1007972332	 0.7893464974	 0.085199
H	-1.5746952888	-1.0904391026	-0.6396601543	 0.10866
H	-1.0345569382	-1.8650079442	 2.1826582954	 0.082788
H	 0.1050571989	-3.5809865481	 1.3778783398	 0.225867
H	 2.1050219769	-3.4158796501	 0.3650897282	 0.127842
H	 1.4214599455	-2.3989405904	-0.9047851519	 0.142022
H	 0.7770941429	 0.022399693	 2.2508406107	 0.074093
86.5076	94.2368	142.5315	218.3254	274.576	318.0423	395.864	443.769	525.3855	581.4884	650.8089	734.1667	745.5606	802.3265	835.9582	865.5024	954.2943	979.3751	987.3824	1018.7105	1047.3988	1112.1252	1132.8701	1161.8972	1173.0661	1192.4038	1204.7683	1225.5753	1226.2073	1265.4307	1294.96	1303.2246	1329.6581	1373.5813	1452.2227	1464.1036	1471.0545	1487.8413	1498.3572	1509.2261	1850.5481	2926.5521	2968.4524	3025.3469	3048.7933	3061.0694	3066.358	3105.1202	3105.2433	3115.3865	3556.8937
CN1CC2NCC(=O)C12	CN1C[C@H]2NCC(=O)[C@@H]12	
InChI=1S/C6H10N2O/c1-8-3-4-6(8)5(9)2-7-4/h4,6-7H,2-3H2,1H3	InChI=1S/C6H10N2O/c1-8-3-4-6(8)5(9)2-7-4/h4,6-7H,2-3H2,1H3/t4-,6+/m1/s1
