15
gdb 24977	4.72995	1.27696	1.02323	3.4041	68.65	-0.214	0.0256	0.2396	1100.3408	0.115395	-453.938796	-453.931726	-453.930782	-453.970559	26.74	
N	-0.0899188911	 1.2281162094	 0.0483377703	-0.567233
C	-0.0098708714	-0.021856803	 0.0302752645	 0.457112
O	 1.1419313921	-0.8037997671	 0.0237650405	-0.261143
C	 0.6915271247	-2.1066957903	 0.0471529767	 0.244789
C	-0.6273132465	-2.1239587718	 0.0478092518	 0.260652
C	-1.1853964292	-3.4903894895	-0.1534163025	-0.290048
N	 0.060190205	-4.3213159507	-0.0961015424	-0.303504
C	 1.2837868096	-3.4590536324	-0.157664871	-0.289772
O	-1.1195716587	-0.8394693457	 0.0254587673	-0.234843
H	 0.8340722752	 1.6512391022	 0.0511707916	 0.240448
H	-1.8987029559	-3.8175088822	 0.6111065075	 0.124556
H	-1.6836900978	-3.5921595015	-1.1276292609	 0.131663
H	 0.0678801325	-4.8076727397	 0.7909128392	 0.234402
H	 1.7808267323	-3.5480382523	-1.1339501965	 0.130049
H	 2.0080381993	-3.7692070452	 0.603804884	 0.122872
111.4034	129.8567	244.5874	259.7256	310.6578	526.511	546.8633	607.2313	726.0075	727.0309	742.1979	754.7947	773.1537	864.2373	890.7206	906.2395	949.264	1026.3242	1041.069	1060.8879	1095.3952	1184.2227	1212.3688	1251.2107	1285.4913	1309.2197	1378.4034	1397.1233	1465.9745	1514.4932	1520.3579	1782.3764	1823.4674	3003.4161	3005.924	3052.9852	3055.3939	3552.5291	3563.5129
N=C1OC2=C(CNC2)O1	[NH][C@H]1OC2=C(CNC2)O1	
InChI=1S/C5H6N2O2/c6-5-8-3-1-7-2-4(3)9-5/h6-7H,1-2H2	InChI=1S/C5H7N2O2/c6-5-8-3-1-7-2-4(3)9-5/h5-7H,1-2H2
