24
gdb 6556	3.54607	1.16525	1.13189	0.0972	85.12	-0.2681	0.0774	0.3454	1241.9936	0.221788	-314.270457	-314.260655	-314.259711	-314.30457	37.55	
C	-0.0452844501	 1.5425084359	 0.2026091827	-0.401424
C	 0.0160288087	 0.0146967566	 0.0172714331	 0.271329
C	 0.7462853024	-0.6175459448	 1.2155684699	-0.396453
C	-1.4209356501	-0.5362631186	-0.0436144247	-0.402955
C	 0.7201770464	-0.3456180423	-1.3174343384	-0.208037
C	 2.1621732762	 0.0958577451	-1.4743132363	 0.019892
C	 3.3071219866	-0.8033470826	-1.0731630074	-0.251313
C	 3.0287502457	-0.5425455183	-2.5320885753	-0.279603
H	 0.951962167	 1.981369118	 0.3063888522	 0.111068
H	-0.5389908195	 2.0259402289	-0.6481207386	 0.105694
H	-0.6105344054	 1.7995806335	 1.1051551836	 0.106446
H	 0.222891145	-0.3900171652	 2.1509987963	 0.103444
H	 0.7948824823	-1.7081193011	 1.1195294564	 0.102624
H	 1.7701043738	-0.2439129801	 1.3043198083	 0.1178
H	-1.9771404897	-0.1035830241	-0.88284908	 0.106024
H	-1.422302382	-1.6250134682	-0.1684176405	 0.105706
H	-1.9707609173	-0.3054636938	 0.8754627422	 0.105288
H	 0.6730980731	-1.4352818855	-1.4529650458	 0.082418
H	 0.1281949229	 0.0846297735	-2.13800866	 0.088725
H	 2.3321369239	 1.1589291498	-1.3279348129	 0.081448
H	 4.1891822697	-0.3562524229	-0.6273621299	 0.107324
H	 3.0652527567	-1.7859319105	-0.6814784556	 0.109453
H	 2.5988107982	-1.3494757161	-3.1171747447	 0.107753
H	 3.7181614755	 0.0855884329	-3.0855360548	 0.107351
54.9873	107.7275	169.779	217.1736	260.541	268.3902	294.2178	314.005	328.7721	375.5033	411.0499	425.3487	495.6929	736.994	779.0394	810.7743	833.4523	883.9445	910.0469	929.6287	935.1142	951.5398	958.0573	994.6458	1034.3736	1055.0993	1067.0392	1078.3508	1128.4541	1144.3468	1199.5763	1223.092	1229.386	1241.9303	1271.2306	1313.9439	1348.3086	1397.6503	1398.2169	1416.6542	1431.6559	1468.0436	1476.3119	1479.4364	1485.9338	1488.0326	1502.0423	1507.7129	1508.8781	1518.6097	2995.4059	3020.0475	3023.412	3030.7022	3031.6042	3085.7563	3087.7158	3090.5005	3094.4576	3099.7411	3110.5472	3126.3751	3131.0738	3143.1486	3203.3936	3218.9838
CC(C)(C)CC1CC1	CC(C)(C)CC1CC1	
InChI=1S/C8H16/c1-8(2,3)6-7-4-5-7/h7H,4-6H2,1-3H3	InChI=1S/C8H16/c1-8(2,3)6-7-4-5-7/h7H,4-6H2,1-3H3
