19
gdb 113685	3.65975	0.85166	0.77858	1.5129	74.	-0.2577	0.0102	0.2679	1511.0998	0.157651	-460.176918	-460.166885	-460.165941	-460.212864	34.888	
C	 0.1257375715	 1.3694009981	 0.193226223	-0.239754
O	 0.3225633621	-0.0422747108	 0.05296742	-0.237639
C	 0.3082613328	-0.5022169751	-1.2167638314	 0.458491
O	 0.1441983895	 0.2155184075	-2.1770026859	-0.38067
C	 0.5067792642	-1.9742797934	-1.2382353627	-0.169314
C	-0.0949266664	-2.7655519287	-2.3877598383	-0.277644
C	 1.3883559001	-2.6385742803	-2.2935802361	 0.018729
C	 2.1754474606	-1.8497312033	-3.3094412352	-0.118153
O	 2.4660699541	-2.7369662145	-4.3851020949	-0.42465
H	 0.9124599065	 1.9232517758	-0.3254131125	 0.138945
H	-0.8412061874	 1.6677859005	-0.2198571368	 0.140634
H	 0.1612915999	 1.5687667798	 1.2643690118	 0.132204
H	 0.5144562634	-2.4293231635	-0.2559300463	 0.104893
H	-0.5658829554	-3.7124013065	-2.1509724111	 0.119468
H	-0.5930344808	-2.1737597299	-3.1477619184	 0.139744
H	 1.9219179818	-3.5100503121	-1.9242812536	 0.102092
H	 1.5953427272	-0.9816149148	-3.6414661135	 0.1236
H	 3.1040460523	-1.4764707143	-2.8469607299	 0.082914
H	 2.9229845339	-2.2333793646	-5.0650815283	 0.286111
46.9275	82.7424	111.6135	135.9087	154.3694	217.4833	236.5436	259.2012	318.2207	385.5267	410.9408	506.0165	673.0974	791.5303	810.7301	842.0719	880.4084	913.8082	976.8597	990.8727	1052.6607	1068.0463	1076.651	1120.8168	1139.8791	1169.5118	1179.5753	1200.6194	1215.0508	1227.3199	1264.7133	1283.2809	1386.424	1419.0943	1468.6881	1474.7788	1481.1722	1490.6065	1498.4048	1530.326	1797.4297	2966.5726	3051.0228	3063.2749	3124.8206	3141.1237	3149.8838	3157.4186	3192.3802	3234.2414	3830.1361
COC(=O)C1CC1CO	COC(=O)[C@H]1C[C@H]1CO	
InChI=1S/C6H10O3/c1-9-6(8)5-2-4(5)3-7/h4-5,7H,2-3H2,1H3	InChI=1S/C6H10O3/c1-9-6(8)5-2-4(5)3-7/h4-5,7H,2-3H2,1H3/t4-,5-/m0/s1
