18
gdb 49246	2.95216	1.48119	1.08795	2.949	79.6	-0.2225	-0.06	0.1625	1107.3204	0.149026	-401.945385	-401.937744	-401.9368	-401.977889	28.934	
O	-0.0224620414	 0.1293213996	 0.4473695504	-0.269335
C	 0.070239116	 1.3329901359	 0.3410103244	 0.06748
C	 1.3217107584	 2.0328673732	 0.0457021283	 0.233926
C	 1.4536872618	 3.3596181028	-0.1000932012	-0.165663
C	 2.8772213659	 3.7279337763	-0.4451053247	-0.224726
N	 3.6263020904	 2.4695964667	-0.3278674104	-0.097491
C	 4.1721728297	 2.1636429036	 1.0255653374	-0.167461
C	 3.4139924238	 0.8139912049	 1.0431898099	-0.239465
C	 2.644766949	 1.343046087	-0.1930279016	-0.082825
H	-0.8174551496	 1.992369211	 0.4673662155	 0.069913
H	 0.6473852535	 4.0815617436	-0.0175894131	 0.114506
H	 2.9341719075	 4.1449452858	-1.4624059857	 0.12072
H	 3.2927833849	 4.4928197809	 0.2246927226	 0.117008
H	 5.2651548528	 2.1213863682	 1.0585026842	 0.106518
H	 3.8274078633	 2.8618701277	 1.8010911884	 0.092373
H	 4.0431098443	-0.047046754	 0.8126093153	 0.115253
H	 2.8163682157	 0.5931690299	 1.9277150581	 0.116079
H	 2.591363564	 0.6618704465	-1.0497847778	 0.09319
88.3698	128.3565	156.2978	253.9333	276.88	389.4675	477.7264	520.1872	681.1673	707.5126	735.5587	778.8917	824.631	837.0851	917.2071	947.1711	954.3591	983.8793	1027.8518	1036.7708	1064.0047	1075.1787	1121.0629	1174.6469	1204.6369	1210.0682	1233.755	1238.9286	1263.5118	1289.3264	1327.4224	1338.5143	1364.006	1419.5396	1482.5275	1487.4811	1516.1921	1670.8042	1781.6222	2879.6591	2986.4003	3002.8364	3031.2194	3038.6467	3068.8128	3087.9826	3142.7613	3189.9993
O=CC1=CCN2CCC12	O=CC1=CCN2CC[C@@H]12	
InChI=1S/C7H9NO/c9-5-6-1-3-8-4-2-7(6)8/h1,5,7H,2-4H2	InChI=1S/C7H9NO/c9-5-6-1-3-8-4-2-7(6)8/h1,5,7H,2-4H2/t7-/m0/s1
