16
gdb 26959	3.20833	1.41135	1.04822	3.3204	71.92	-0.1935	0.0353	0.2288	1102.8048	0.126602	-434.07546	-434.067644	-434.0667	-434.108091	29.558	
N	-0.4571752912	 0.9097759789	 1.0205197341	-0.621524
C	-0.2104023224	-0.2429010677	 0.2645600769	 0.211908
C	-0.9648918677	-0.9530061004	-0.6429441635	 0.23336
N	-0.205253543	-1.9512088109	-1.2236262359	-0.323217
C	 0.9764288524	-1.8631627953	-0.6696328656	-0.006134
N	 1.0308433348	-0.839843161	 0.2406977546	-0.2785
C	-2.3742637304	-0.7382560605	-1.0247223025	-0.028812
C	-3.4818574833	-0.7337226689	-0.0512064094	-0.179892
O	-2.979595339	 0.4951823993	-0.5867526948	-0.244659
H	-0.4248003682	 0.7442441545	 2.0217756412	 0.24098
H	-1.3727004489	 1.2717512654	 0.7723141812	 0.266576
H	 1.8235671162	-2.5021621271	-0.8676354326	 0.126798
H	 1.8438602591	-0.5019434558	 0.7285829521	 0.264235
H	-2.6127902106	-1.0184114997	-2.0500787007	 0.110013
H	-4.4895010867	-0.9975755443	-0.3691780109	 0.120104
H	-3.2601196611	-0.9094967465	 1.0001242955	 0.108764
60.8706	161.3661	194.6077	271.1097	319.3285	362.7495	409.3703	461.427	515.6493	660.0963	678.5313	714.9294	731.0127	779.169	836.2909	859.4961	905.6047	953.5315	998.6523	1089.7494	1097.6842	1114.7349	1146.8611	1171.3084	1213.3049	1264.6925	1281.7237	1290.493	1398.22	1419.5615	1490.6124	1516.2299	1542.385	1627.8567	1670.7772	3083.6706	3121.6404	3175.2521	3253.3112	3489.4228	3578.3579	3660.1407
NC1=C(N=CN1)C1CO1	Nc1c(nc[nH]1)[C@H]1CO1	
InChI=1S/C5H7N3O/c6-5-4(3-1-9-3)7-2-8-5/h2-3H,1,6H2,(H,7,8)	InChI=1S/C5H7N3O/c6-5-4(3-1-9-3)7-2-8-5/h2-3H,1,6H2,(H,7,8)/t3-/m1/s1
