25
gdb 58738	3.40817	1.05252	0.96136	0.0565	93.74	-0.2796	0.0846	0.3642	1401.7021	0.228128	-352.328969	-352.31912	-352.318176	-352.36322	38.559	
C	-0.0158722975	 1.5286613569	-0.0172158858	-0.391694
C	-0.0500171539	-0.005800097	 0.0341835684	-0.100946
C	 0.7452702702	-0.5370715884	 1.2357111582	-0.39169
C	-1.4722523247	-0.5281572874	 0.037060034	 0.388896
C	-2.5754409268	-0.2691947099	-1.0362220021	-0.307247
C	-3.2487054787	-1.1900782819	 0.0252312493	 0.332684
C	-4.659749491	-1.7153479255	 0.0165854706	-0.507678
C	-1.9300542575	-2.0202279567	 0.0230199584	-0.307233
C	-2.5841765472	-0.2885744156	 1.1106322239	-0.293463
H	 1.0148304852	 1.8951540304	-0.0634448416	 0.107692
H	-0.5487962703	 1.9130035085	-0.8923802457	 0.113987
H	-0.4824617174	 1.9607081436	 0.8754873863	 0.114156
H	 0.428655803	-0.3846835062	-0.881262521	 0.069189
H	 0.3095384596	-0.1878465934	 2.1788240638	 0.114171
H	 0.7567609717	-1.6311643759	 1.2574940595	 0.113973
H	 1.783310275	-0.1905453621	 1.2011797057	 0.107692
H	-2.9620839812	 0.7520206083	-1.1120104931	 0.0825
H	-2.4062183392	-0.7048354261	-2.0266094179	 0.080206
H	-4.8492107964	-2.3237369998	-0.8748706338	 0.115734
H	-4.8535821548	-2.3403320571	 0.895533765	 0.115608
H	-5.3862320867	-0.8950342371	 0.0223825966	 0.115608
H	-1.711195686	-2.5904985321	-0.8859215446	 0.080208
H	-1.7229972512	-2.6098697697	 0.9216692211	 0.082497
H	-2.4276314035	-0.7436934008	 2.0936928589	 0.082578
H	-2.9712889208	 0.731195635	 1.2015574261	 0.082571
59.9229	146.5892	156.0481	206.146	222.3842	248.8104	292.6234	294.1603	340.3757	429.5563	455.8318	543.1196	553.2189	596.1161	635.1939	779.2999	789.1478	878.6279	925.4908	926.8643	943.3592	952.0053	959.3138	973.6235	996.364	1045.259	1074.0867	1074.4829	1104.6055	1114.9777	1145.4757	1145.8648	1175.7984	1181.1718	1190.9103	1213.7847	1214.362	1303.5737	1332.8927	1345.1993	1372.2189	1396.978	1411.3906	1418.472	1488.7356	1489.6418	1490.108	1491.1812	1494.4919	1496.8065	1503.3377	1512.1275	1559.4368	2991.1958	3023.341	3026.5186	3029.923	3030.5305	3031.6172	3042.9421	3090.4619	3090.8312	3091.0909	3092.6206	3097.8102	3098.6945	3100.0449	3102.8856	3104.5044
CC(C)C12CC(C)(C1)C2	CC(C)[C@@]12C[C@@](C)(C1)C2	
InChI=1S/C9H16/c1-7(2)9-4-8(3,5-9)6-9/h7H,4-6H2,1-3H3	InChI=1S/C9H16/c1-7(2)9-4-8(3,5-9)6-9/h7H,4-6H2,1-3H3/t8-,9-
