20
gdb 128097	2.04545	1.74867	0.99811	3.1345	83.67	-0.1951	0.0368	0.2319	1227.2298	0.171415	-399.345118	-399.335187	-399.334243	-399.380392	35.035	
C	 0.8679285564	 0.2699286076	 0.7030418556	-0.33324
N	-0.1707671052	 0.2386218811	-0.3287260849	-0.394284
C	-1.3381954825	-0.4753541674	-0.0491923128	 0.301401
C	-1.5185727982	-1.835314305	 0.1693906125	 0.149689
C	-0.4743833004	-2.9077732046	 0.1624698314	-0.51586
C	-2.9120410584	-1.9613096005	 0.3489633589	-0.072858
N	-3.5557277595	-0.8040814121	 0.24199547	-0.288939
N	-2.5726663084	 0.105193141	 0.0205536392	-0.014362
C	-2.9176795758	 1.4900170926	-0.1978804687	-0.338586
H	 1.7276242681	 0.827004524	 0.3208765208	 0.123563
H	 0.5399824015	 0.730114922	 1.6476295324	 0.111532
H	 1.2000472615	-0.7476357589	 0.9213136337	 0.143588
H	-0.3610042741	 1.1619400402	-0.6926039463	 0.231112
H	 0.036835453	-3.0134934749	 1.1285480659	 0.119858
H	-0.9186420713	-3.880067583	-0.0709725097	 0.122609
H	 0.2944403752	-2.703846088	-0.5910749242	 0.127798
H	-3.4725089359	-2.8667546829	 0.5380274325	 0.100527
H	-2.2576094501	 2.149453597	 0.3752883096	 0.129014
H	-2.8643921331	 1.7673211659	-1.2582075954	 0.133467
H	-3.9423811627	 1.6249456159	 0.1470291198	 0.163969
50.9333	107.5687	131.3217	137.9853	169.2512	188.8991	252.5186	277.524	299.7487	389.0724	498.959	575.6976	636.9464	661.5289	703.951	748.7873	803.4109	875.0586	1001.0051	1003.7629	1054.0513	1065.9246	1076.0736	1146.2184	1149.3776	1189.6394	1221.7756	1255.6229	1325.3761	1391.2983	1409.9629	1423.7277	1448.2838	1454.5797	1474.8361	1485.8874	1489.1521	1491.8165	1504.0843	1507.3577	1517.2567	1562.5303	1632.9166	2986.0302	3012.541	3019.7201	3065.6239	3079.8955	3086.399	3101.304	3127.529	3158.956	3228.6125	3584.3505
CNC1=C(C)C=NN1C	CNc1c(C)cnn1C	
InChI=1S/C6H11N3/c1-5-4-8-9(3)6(5)7-2/h4,7H,1-3H3	InChI=1S/C6H11N3/c1-5-4-8-9(3)6(5)7-2/h4,7H,1-3H3
