20
gdb 63731	2.69734	1.28358	1.17021	3.9606	80.95	-0.2288	-0.0254	0.2034	1182.9543	0.169246	-403.135299	-403.125898	-403.124953	-403.169465	35.102	
C	-0.5352099882	 1.5412526645	 0.150727022	-0.439181
C	 0.0014950882	 0.1201675737	-0.0262121673	 0.198644
C	-1.1033223215	-0.929083564	 0.1301076892	-0.435852
C	 0.9352163521	-0.1015001773	-1.2736238499	-0.399712
C	 2.0824603054	-0.5104244929	-0.3325840798	 0.23762
C	 3.0364830617	-1.64850951	-0.4714529731	-0.287675
N	 3.5243089919	-0.2684717703	-0.4458477113	-0.349952
C	 1.230001654	-0.1837939332	 0.8730467373	 0.338001
O	 1.4084468098	-0.1705926336	 2.057189081	-0.313652
H	 0.2576956852	 2.2880831381	 0.0413095842	 0.119784
H	-1.3103088272	 1.757625288	-0.5928785871	 0.116356
H	-0.9723566675	 1.6623348733	 1.1467360838	 0.134285
H	-1.8960334666	-0.7674884206	-0.6088781557	 0.117595
H	-0.7174292362	-1.9447911615	-0.0052875055	 0.117477
H	-1.5485682559	-0.8698852181	 1.1281231939	 0.133759
H	 0.6005656266	-0.8715957909	-1.9726154707	 0.107795
H	 1.134255604	 0.8206910442	-1.8273423182	 0.107988
H	 3.2867676631	-2.2366641412	 0.4070358517	 0.139296
H	 3.0235152514	-2.1940377002	-1.4121275195	 0.119861
H	 3.7326212997	 0.0467662722	-1.391491225	 0.237563
44.4839	163.3052	200.3171	210.5582	227.8866	234.1368	269.0993	279.2645	320.9827	387.2133	504.1975	564.3687	712.0952	720.4952	765.882	824.0202	871.3758	906.2857	922.2406	964.515	968.0975	984.4538	994.265	1025.0285	1039.4443	1122.3093	1136.0269	1178.5748	1210.7544	1241.5602	1261.8285	1267.395	1301.9541	1388.7135	1396.5577	1417.767	1481.8915	1483.6739	1486.4863	1500.0413	1502.2496	1506.6748	1885.3334	3026.7407	3030.0158	3055.3315	3094.9888	3098.0429	3103.8335	3104.8212	3109.5587	3110.7352	3196.4174	3486.1755
CC1(C)CC2(CN2)C1=O	CC1(C)C[C@]2(CN2)C1=O	
InChI=1S/C7H11NO/c1-6(2)3-7(4-8-7)5(6)9/h8H,3-4H2,1-2H3	InChI=1S/C7H11NO/c1-6(2)3-7(4-8-7)5(6)9/h8H,3-4H2,1-2H3/t7-/m0/s1
