20
gdb 93800	2.44644	1.44339	1.04676	3.8558	75.42	-0.225	0.0139	0.2389	1206.0681	0.171605	-440.324101	-440.315081	-440.314137	-440.357976	33.913	
C	-0.2000734304	 1.5230401792	 0.1193527586	-0.395339
C	-0.1113813888	 0.0213056003	-0.1020303783	 0.132333
C	 0.7871073324	-0.3864610911	-1.2635860594	-0.193818
N	 0.966503601	-1.831156364	-1.3372383985	-0.294345
C	 1.5315101079	-2.3734831808	-0.096473968	-0.127982
C	 3.0701875229	-2.3629133104	-0.1366019308	-0.369805
C	 1.0654101353	-1.7037619522	 1.2067600045	 0.401367
O	 1.3482191118	-2.1548199989	 2.284921851	-0.333248
O	 0.3544365862	-0.5538497994	 1.143232366	-0.24177
H	 0.794700163	 1.945770175	 0.2901775214	 0.129431
H	-0.6412612747	 2.0099466624	-0.7558152942	 0.120165
H	-0.8209763317	 1.7441515946	 0.9908275788	 0.137456
H	-1.1185307094	-0.3853692808	-0.2770783811	 0.084
H	 0.3572823528	-0.0238250165	-2.2030706649	 0.112692
H	 1.7694539085	 0.0897843747	-1.1536251038	 0.117439
H	 0.0681470848	-2.2668038535	-1.5199936232	 0.220864
H	 1.2104939774	-3.4161176843	-0.0085566334	 0.113757
H	 3.4590057053	-1.3449753061	-0.2406911215	 0.118477
H	 3.4718866259	-2.7887163081	 0.7847055276	 0.14432
H	 3.4127673898	-2.9466779301	-0.9938120812	 0.124007
61.782	95.4882	217.1254	226.3786	240.5113	275.1792	283.0688	377.7346	445.9418	461.6505	486.0321	537.254	646.1144	705.8669	773.057	789.658	873.2285	892.8712	955.6376	979.6545	1024.6028	1071.4977	1082.9562	1117.7152	1158.1005	1169.4363	1181.5498	1236.5421	1272.6743	1305.3172	1332.6171	1372.7715	1388.1469	1397.3629	1406.2042	1410.9364	1475.7448	1484.55	1488.916	1494.0723	1499.8037	1500.5045	1830.2903	2994.6059	3033.7444	3044.3652	3049.2935	3064.8703	3084.4037	3117.356	3121.0076	3128.5081	3146.99	3514.2373
CC1CNC(C)C(=O)O1	C[C@H]1CN[C@@H](C)C(=O)O1	
InChI=1S/C6H11NO2/c1-4-3-7-5(2)6(8)9-4/h4-5,7H,3H2,1-2H3	InChI=1S/C6H11NO2/c1-4-3-7-5(2)6(8)9-4/h4-5,7H,3H2,1-2H3/t4-,5-/m0/s1
