16
gdb 33689	4.05885	1.44926	1.36346	1.177	79.28	-0.2216	0.0316	0.2532	964.7252	0.125373	-363.521517	-363.514888	-363.513944	-363.552289	27.535	
C	 0.1170616603	-1.1844373141	-0.0309092349	-0.35908
C	 0.0411443115	 0.0170344739	 0.006186262	 0.041906
C	-0.0679579965	 1.4273888351	 0.0262171681	 0.292377
C	 0.0950676301	 2.3338258293	 1.2422799663	-0.150171
C	-0.9791352151	 3.4016842382	 1.178123297	-0.173794
N	-1.1209318923	 3.6028342904	-0.2706087909	-0.116753
C	 0.1810209769	 3.367004665	-0.9206652053	-0.062744
C	 1.0179723133	 2.5103958738	 0.0675947629	-0.154675
C	-0.8824897724	 2.3301186756	-0.9611635691	-0.144536
H	 0.1886582391	-2.2430379635	-0.0602657757	 0.177592
H	 0.460599535	 1.9071392816	 2.1673433214	 0.108382
H	-1.9337220796	 3.0763055214	 1.6022821584	 0.1162
H	-0.6758192279	 4.3396071481	 1.6540127941	 0.113004
H	 0.5489722542	 4.0580613702	-1.6669920581	 0.101838
H	 2.0894713587	 2.3767639982	 0.0808705707	 0.107702
H	-1.5483339053	 1.9870156569	-1.741847617	 0.10275
140.2916	155.4579	390.7504	458.5322	486.279	510.3383	559.2293	594.2155	653.4326	717.6259	754.9544	774.4006	785.1779	835.1037	863.6235	886.3221	901.2723	946.3725	963.2135	980.3017	996.3416	1037.8238	1053.3523	1084.2951	1131.0865	1170.6145	1204.2013	1217.6253	1232.5457	1265.9912	1302.7422	1327.236	1412.9823	1495.3576	2231.2491	3053.7182	3102.1356	3198.7289	3209.556	3210.7992	3232.8531	3504.111
C#CC12C3CN4C(C13)C24	C#C[C@@]12[C@@H]3CN4[C@@H]([C@H]13)[C@@H]24	
InChI=1S/C8H7N/c1-2-8-4-3-9-6(5(4)8)7(8)9/h1,4-7H,3H2	InChI=1S/C8H7N/c1-2-8-4-3-9-6(5(4)8)7(8)9/h1,4-7H,3H2/t4-,5-,6+,7+,8-,9?/m1/s1
