19
gdb 95867	2.40743	1.33115	1.09045	2.8894	75.08	-0.2505	0.0293	0.2797	1170.7352	0.161716	-419.225797	-419.217295	-419.21635	-419.258812	32.576	
O	-0.0946060959	 1.4689088821	 0.0731053665	-0.437201
C	 0.0429798599	 0.0562319676	 0.0527504837	 0.120074
C	 0.751298977	-0.4820840937	 1.3023752614	-0.205939
C	 0.7262624716	-2.0132219217	 1.3228088204	-0.182152
N	-0.6633351368	-2.477665428	 1.2516390379	-0.277913
C	-1.3589871359	-2.0555024448	 0.0386468588	-0.149885
C	-1.3706859798	-0.5165294998	-0.0420750527	-0.189116
C	-0.7797083015	-2.6516685506	-1.1940956449	 0.267336
N	-0.3024564632	-3.154283171	-2.1201663114	-0.336983
H	 0.7869081771	 1.8547584862	 0.097509553	 0.282633
H	 0.6086377457	-0.2597897594	-0.839574419	 0.084459
H	 1.7891395703	-0.1283612453	 1.3306571257	 0.088658
H	 0.2387071875	-0.0912034232	 2.1883973938	 0.113445
H	 1.3443514982	-2.4047856324	 0.49610179	 0.107229
H	 1.1572472436	-2.3883790988	 2.2556871124	 0.109821
H	-0.7031880542	-3.4868572395	 1.3421271755	 0.23293
H	-2.3934394375	-2.4105749371	 0.1010129511	 0.12825
H	-1.9595538678	-0.1428964871	 0.8011894712	 0.121992
H	-1.8504321684	-0.1859529337	-0.9669673235	 0.122364
100.0101	118.2886	201.8374	256.0312	273.3486	341.0663	341.7198	395.3792	413.6829	481.4518	532.2057	604.6548	690.4053	779.2168	804.3929	831.9324	901.4728	910.8061	955.3783	1009.0201	1060.282	1078.0151	1116.9096	1118.4359	1150.5846	1194.3347	1210.1849	1249.606	1294.4331	1305.4374	1334.3106	1345.193	1351.2304	1393.6535	1407.2627	1442.5373	1472.2422	1489.7168	1490.4771	1507.6322	2338.1909	2953.9273	2966.1342	3030.521	3050.8947	3063.4718	3077.0711	3083.8595	3113.4771	3535.7704	3817.0713
OC1CCNC(C1)C#N	O[C@H]1CCN[C@@H](C1)C#N	
InChI=1S/C6H10N2O/c7-4-5-3-6(9)1-2-8-5/h5-6,8-9H,1-3H2	InChI=1S/C6H10N2O/c7-4-5-3-6(9)1-2-8-5/h5-6,8-9H,1-3H2/t5-,6-/m0/s1
