18
gdb 88190	3.51288	1.23224	1.07683	2.0748	74.13	-0.2309	0.025	0.2558	1141.1899	0.148713	-439.07932	-439.071325	-439.070381	-439.111797	30.958	
O	-0.0164210116	 1.3858944553	-0.0567384079	-0.426571
C	-0.002741875	-0.0119208735	-0.0164816069	 0.047045
C	-0.4521421901	-0.7283880295	 1.2311881962	-0.373567
C	-1.3422560869	-0.6934359301	-0.0070194766	 0.342409
C	-2.6080348524	 0.1416156845	-0.0168594648	-0.287222
C	-3.7916095983	-0.7964750728	 0.1895917142	-0.082279
O	-3.7778943588	-1.8635106283	-0.7734913477	-0.226331
C	-2.5539852088	-2.3534344498	-1.0812635184	 0.109459
N	-1.4098306581	-1.9163270904	-0.7565458826	-0.311087
H	 0.7036035666	 1.7059323079	 0.4966668432	 0.28922
H	 0.7647128673	-0.4941413747	-0.6197373793	 0.099513
H	 0.0198043923	-1.6702703905	 1.4840336932	 0.121237
H	-0.7618701085	-0.1143741977	 2.0710273583	 0.110082
H	-2.5948656828	 0.9156056626	 0.7533024737	 0.111811
H	-2.7097894602	 0.6475391035	-0.9839541172	 0.121248
H	-3.764023526	-1.2397795269	 1.1933845844	 0.113525
H	-4.7518916109	-0.2928585146	 0.0586979473	 0.117488
H	-2.6533273777	-3.2448912251	-1.697018439	 0.124021
86.7647	168.2458	208.7548	254.6718	288.8342	358.3549	385.1496	455.8879	487.0383	552.2498	608.4277	692.5112	793.815	827.5244	866.6949	896.6762	925.4362	962.9043	977.9322	995.9016	1028.9005	1037.4818	1096.9165	1109.9575	1146.6656	1170.7531	1212.9424	1261.2125	1269.5919	1302.526	1317.6855	1369.646	1399.4123	1413.8424	1420.2423	1479.3618	1481.8709	1507.9017	1718.5799	3024.8456	3047.4053	3105.1081	3111.3656	3119.7995	3130.668	3163.8304	3229.8554	3805.1037
OC1CC11CCOC=N1	O[C@H]1C[C@]21CCOC=N2	
InChI=1S/C6H9NO2/c8-5-3-6(5)1-2-9-4-7-6/h4-5,8H,1-3H2	InChI=1S/C6H9NO2/c8-5-3-6(5)1-2-9-4-7-6/h4-5,8H,1-3H2/t5-,6-/m0/s1
