18
gdb 8370	4.69873	1.28928	1.17647	2.8807	72.94	-0.2406	-0.0196	0.221	1064.1286	0.152094	-347.802882	-347.794874	-347.793929	-347.8356	30.308	
C	 0.0585250475	 1.53170738	-0.2212871047	-0.406213
C	 0.0794376734	 0.0270032467	-0.0742713538	-0.049379
C	 1.3905160899	-0.7297764424	-0.073213075	-0.350879
C	 0.5766211491	-0.6261847215	 1.1848367791	 0.350626
C	 0.9868463755	 0.0750939392	 2.4955005222	-0.424244
C	 0.3176847055	-1.0913921423	 3.2494427387	 0.409636
O	 0.1759450493	-1.3532379064	 4.4073790019	-0.287366
C	-0.0932938063	-1.7913788118	 1.9391194398	-0.425201
H	 0.9175170019	 1.9911593088	 0.278906748	 0.117466
H	 0.0953211565	 1.825064721	-1.2760424494	 0.121333
H	-0.8494092155	 1.9656995602	 0.2128727978	 0.118211
H	-0.7511646016	-0.4831650325	-0.558127971	 0.085041
H	 1.4380972886	-1.689984396	-0.5774603678	 0.112122
H	 2.306826738	-0.1491041477	-0.1330781262	 0.111087
H	 2.0616126178	 0.1631756746	 2.686484614	 0.129341
H	 0.521527508	 1.0472941	 2.6917410827	 0.130103
H	-1.1768902454	-1.8919474244	 1.8127385514	 0.128573
H	 0.3631037278	-2.7786875357	 1.8089504125	 0.129745
39.6953	174.2627	199.8884	210.3045	310.9273	395.7253	417.4057	426.2185	490.3687	525.9377	675.1516	718.3607	772.554	862.2987	879.4145	900.1059	926.2587	981.7259	1036.9744	1055.1805	1066.5315	1081.94	1106.3294	1130.6262	1182.8893	1190.6168	1198.3269	1214.3952	1234.2899	1330.567	1412.3101	1427.3668	1428.4651	1447.9591	1489.4854	1492.931	1507.4596	1897.842	3027.1337	3039.345	3045.039	3088.5584	3089.6071	3092.0772	3095.8259	3116.1898	3127.4672	3201.1105
CC1CC11CC(=O)C1	C[C@H]1CC21CC(=O)C2	
InChI=1S/C7H10O/c1-5-2-7(5)3-6(8)4-7/h5H,2-4H2,1H3	InChI=1S/C7H10O/c1-5-2-7(5)3-6(8)4-7/h5H,2-4H2,1H3/t5-/m0/s1
