19
gdb 80918	2.81351	1.43548	1.26636	1.8678	76.25	-0.2446	0.0784	0.323	1083.1299	0.157666	-422.942691	-422.934325	-422.933381	-422.975137	33.065	
O	 0.1229785716	 1.3954960354	-0.1317495671	-0.458066
C	 0.1014681006	 0.0090752959	-0.0794436503	 0.168379
C	-0.0363160899	-0.6740074994	 1.3126577063	-0.121431
O	-1.416120745	-0.1110691001	 1.3815998973	-0.37754
C	-1.299181906	-0.6922455673	-0.0056855625	 0.24035
C	-2.4768367541	-0.5857082697	-0.9175558622	-0.524119
C	-0.6080017076	-1.9064207062	 0.6219724004	 0.436088
C	-0.0314020816	-3.1700919258	 0.0804100396	-0.3603
C	-1.1312888718	-3.1948999234	 1.1385470278	-0.355076
H	-0.5365887644	 1.6727635447	 0.522336473	 0.284668
H	 0.837477454	-0.3908763128	-0.7795006713	 0.092542
H	 0.5826263839	-0.5901358602	 2.206132538	 0.094806
H	-2.6818701951	 0.4636539578	-1.1505258228	 0.138752
H	-2.2738867368	-1.1103758594	-1.856772483	 0.130466
H	-3.3677635501	-1.0236803592	-0.4575869802	 0.136863
H	-0.2926349097	-3.4703492508	-0.9297214092	 0.116796
H	 0.9709472563	-3.4563258144	 0.3826779827	 0.118829
H	-0.8613951673	-3.4984473735	 2.1446651442	 0.120255
H	-2.1225811171	-3.5114714218	 0.8301322293	 0.117738
153.9429	172.1328	175.1363	211.3146	224.7419	325.5449	347.5012	470.873	486.156	600.7886	610.684	637.7868	729.5338	757.1146	768.4748	778.3454	849.0572	904.0207	925.6787	937.3991	970.062	1013.0595	1052.3507	1079.7604	1088.2425	1108.5844	1122.0341	1160.3751	1180.2647	1181.7636	1208.2042	1224.2746	1304.1895	1318.2545	1403.8688	1429.6092	1460.5679	1462.0278	1476.2758	1486.4501	1528.0265	3038.5855	3104.5106	3111.8687	3115.0692	3122.8634	3123.1169	3128.1684	3200.7561	3215.191	3722.7305
OC1C2OC1(C)C21CC1	O[C@H]1[C@H]2O[C@]1(C)C12CC1	
InChI=1S/C7H10O2/c1-6-4(8)5(9-6)7(6)2-3-7/h4-5,8H,2-3H2,1H3	InChI=1S/C7H10O2/c1-6-4(8)5(9-6)7(6)2-3-7/h4-5,8H,2-3H2,1H3/t4-,5+,6-/m0/s1
