25
gdb 119049	1.66952	1.26966	0.82129	1.7886	89.22	-0.2523	0.0768	0.3291	1557.3792	0.226207	-389.493004	-389.481685	-389.480741	-389.530181	41.022	
C	 0.6014405884	 1.6370280627	 2.5586280363	-0.379201
C	 0.4177140437	 0.1328587329	 2.3378275162	-0.168166
C	 1.5261164538	-0.4753100871	 1.4654098629	-0.264296
C	 1.3813515067	-1.9704664744	 1.2284129504	 0.396442
C	 0.2734306866	-2.4105945643	 0.2804823509	-0.251237
C	 0.5304851215	-2.0103020703	-1.1782775477	-0.381156
O	 2.6206785412	-2.6778114442	 1.0129061963	-0.314636
C	 1.8870379378	-2.9503134672	 2.2136065854	 0.028141
C	 2.555220797	-2.6269776914	 3.5267870385	-0.425825
H	 0.5921941044	 2.1809130694	 1.6075417954	 0.115534
H	-0.1958901298	 2.0483792347	 3.1853260751	 0.111667
H	 1.5567377414	 1.8511460786	 3.0506185145	 0.115082
H	 0.3957180342	-0.381480267	 3.3068725734	 0.099008
H	-0.5611694876	-0.0478090274	 1.8770515844	 0.100408
H	 1.5480408082	 0.0387218033	 0.4960802932	 0.100313
H	 2.5027277392	-0.2868628049	 1.9209984265	 0.106557
H	 0.1836554634	-3.5004945135	 0.33997809	 0.100396
H	-0.6852152349	-1.9997545191	 0.6206765788	 0.09817
H	-0.2425491254	-2.4226317264	-1.8335895807	 0.110951
H	 0.5305087613	-0.9243264096	-1.314471183	 0.115641
H	 1.499745988	-2.3932067331	-1.5105034041	 0.135253
H	 1.3996679114	-3.9289317673	 2.2044451582	 0.078094
H	 2.9878705793	-1.6251859831	 3.5375562534	 0.125291
H	 1.8353295094	-2.7060040566	 4.3488792389	 0.119152
H	 3.3606324906	-3.3435100249	 3.7211189968	 0.128419
35.7199	75.7936	90.5378	146.6768	173.362	178.7516	220.8236	244.7396	276.1372	317.9624	328.2068	397.6137	422.9321	484.4587	580.7154	719.2386	739.6034	774.3457	799.5726	861.2566	907.6244	929.2219	953.9846	985.1867	1028.6595	1039.7192	1058.6171	1088.5726	1120.938	1135.3288	1140.2247	1177.045	1238.3326	1259.0908	1295.3616	1304.8512	1325.4993	1349.6597	1382.7159	1393.6227	1405.4938	1410.7203	1413.0738	1465.9052	1477.9576	1481.9981	1491.7239	1492.6331	1500.2378	1503.8621	1506.5541	1509.0857	1516.2458	3022.1227	3029.1805	3031.5269	3034.8252	3037.5548	3042.5849	3052.5781	3066.1019	3071.8591	3084.7819	3095.6725	3098.9771	3102.9434	3108.0397	3118.9007	3137.4394
CCCC1(CC)OC1C	CCC[C@@]1(CC)O[C@H]1C	
InChI=1S/C8H16O/c1-4-6-8(5-2)7(3)9-8/h7H,4-6H2,1-3H3	InChI=1S/C8H16O/c1-4-6-8(5-2)7(3)9-8/h7H,4-6H2,1-3H3/t7-,8+/m0/s1
