19
gdb 58489	2.24973	1.29721	1.08005	4.3655	76.78	-0.2691	0.0183	0.2873	1215.7359	0.157253	-419.197852	-419.187802	-419.186858	-419.232773	36.504	
C	-0.4114574111	 1.4019163545	 0.0723417593	-0.419395
C	 0.1764134693	 0.0036620152	-0.1248247255	 0.086699
O	 1.1791370086	-0.0205067722	-1.1358605335	-0.442507
C	 0.8477620791	-0.5317673366	 1.1339846767	 0.331323
C	 2.0945458277	 0.1953183478	 1.5927074754	-0.481566
N	-0.1001712174	-1.0388660672	 2.1270811621	-0.353258
C	 0.7700243314	-2.0047678893	 1.4168033234	-0.250165
C	 0.1194089881	-2.9391915084	 0.5304524997	 0.346227
N	-0.3770317683	-3.6978735785	-0.1870907678	-0.348366
H	 0.3715581506	 2.1354319564	 0.2845992388	 0.123173
H	-0.9353768441	 1.7220062476	-0.8346660683	 0.112447
H	-1.1341754678	 1.399154287	 0.8936137558	 0.135522
H	-0.6413879571	-0.6849865097	-0.3773392431	 0.096734
H	 0.7692893739	 0.2253072598	-1.970672854	 0.289724
H	 1.8523667323	 1.2087019784	 1.9292948329	 0.130237
H	 2.5731006413	-0.3298188148	 2.4252696753	 0.113597
H	 2.8089837598	 0.2730993075	 0.7703072311	 0.159477
H	 0.2535988734	-0.9020444395	 3.0714299585	 0.241104
H	 1.6066981503	-2.436717148	 1.9592424732	 0.128993
54.2129	112.6472	142.7292	203.2112	220.763	227.1348	251.6198	274.7354	311.849	356.3801	411.8056	463.7419	524.9022	585.1688	616.4374	708.0048	819.436	878.2109	921.1597	938.0438	964.6348	1020.7066	1050.0804	1064.894	1106.936	1130.8605	1141.5717	1206.0298	1220.0371	1310.7917	1347.2462	1376.236	1399.7891	1411.9989	1423.1769	1451.7342	1480.6886	1494.207	1499.3909	1513.6083	2358.3567	3014.6636	3036.1952	3040.9127	3101.4824	3105.5675	3123.5464	3133.8316	3147.6114	3496.7079	3830.2616
CC(O)C1(C)NC1C#N	C[C@@H](O)[C@@]1(C)N[C@H]1C#N	
InChI=1S/C6H10N2O/c1-4(9)6(2)5(3-7)8-6/h4-5,8-9H,1-2H3	InChI=1S/C6H10N2O/c1-4(9)6(2)5(3-7)8-6/h4-5,8-9H,1-2H3/t4-,5+,6-/m1/s1
