15
gdb 34509	4.33629	1.34168	1.18426	5.7211	77.18	-0.2346	-0.0463	0.1883	1013.3312	0.115411	-379.632318	-379.625837	-379.624892	-379.663212	26.1	
N	 0.1068151861	-1.1459532741	 0.0528985792	-0.348468
C	 0.0221027664	 0.0099631864	 0.0215949292	 0.191145
C	-0.0367587079	 1.4205954397	-0.0526717185	 0.248012
C	-1.1224504685	 2.2074341132	 0.0749506486	-0.153671
C	-0.7149047204	 3.6275479302	 0.0151961764	-0.090592
C	 0.5280384502	 4.0608468359	 0.8583595242	-0.02008
N	 1.2396395053	 2.8799678026	 1.3659675198	-0.318725
C	 1.1890282061	 2.3240729739	-0.0621029591	-0.170139
C	 0.67230485	 3.7038522815	-0.5862501683	-0.110815
H	-2.1333570547	 1.8662360748	 0.2560684237	 0.130045
H	-1.4311131382	 4.4141349902	-0.1862937509	 0.102694
H	 0.5245012388	 5.0057059463	 1.3879194659	 0.11051
H	 2.2019626612	 3.1655233599	 1.5371842626	 0.229482
H	 2.1213110157	 1.897095747	-0.423187366	 0.096278
H	 0.9441014001	 4.2528618125	-1.479654607	 0.104323
121.615	162.1894	386.2044	397.7767	500.2624	519.1895	573.1068	636.6902	697.9249	751.7708	782.7353	800.2717	829.7338	852.7722	904.376	911.1073	944.3073	983.7356	1016.515	1043.7894	1053.2842	1086.449	1098.5422	1158.2594	1194.7038	1232.3791	1253.1996	1279.0405	1337.809	1350.3853	1389.3258	1643.4479	2331.7759	3152.2414	3178.8089	3192.8232	3203.3688	3225.7622	3482.01
N#CC1=CC2C3NC1C23	N#CC1=C[C@H]2[C@H]3N[C@@H]1[C@@H]23	
InChI=1S/C7H6N2/c8-2-3-1-4-5-6(3)9-7(4)5/h1,4-7,9H	InChI=1S/C7H6N2/c8-2-3-1-4-5-6(3)9-7(4)5/h1,4-7,9H/t4-,5-,6+,7-/m1/s1
