17
gdb 126020	3.05969	1.57593	1.08818	4.1302	74.09	-0.2204	0.0043	0.2247	1081.1283	0.138721	-418.001434	-417.994091	-417.993147	-418.033187	28.643	
C	-0.2418791315	 1.558841529	-0.0213195203	-0.398704
C	 0.0273496311	 0.0531215671	 0.0053709322	-0.137276
C	 0.9469450169	-0.4315707522	-1.170814483	-0.177452
N	 1.7002274931	-1.5879911105	-0.6339169262	-0.398421
C	 1.7646674285	-1.4104974894	 0.7347594533	 0.423425
N	 2.4956140195	-1.9342827772	 1.6819610547	-0.283791
O	 1.9827586027	-1.3163155715	 2.8561488241	-0.189641
C	 0.9864620578	-0.4656135286	 2.5212317838	-0.088556
C	 0.796936651	-0.47226345	 1.1849968505	 0.165014
H	 0.6899849718	 2.1243545759	 0.0775406631	 0.124092
H	-0.7243838578	 1.8537263962	-0.9590762599	 0.119376
H	-0.9037121636	 1.8523574238	 0.7990317841	 0.123014
H	-0.9320126693	-0.4767915586	-0.0674880507	 0.102941
H	 0.3705414631	-0.7233271398	-2.052745882	 0.115111
H	 1.6242838893	 0.3863894859	-1.4596715317	 0.104926
H	 2.5466803479	-1.8521509181	-1.1169976234	 0.250952
H	 0.5355376495	 0.058930008	 3.3497771014	 0.144989
115.4207	178.167	227.0033	270.6411	326.3768	446.2799	504.6147	521.9648	565.3078	618.6737	675.8082	759.2743	787.4954	839.4186	867.3028	901.3206	943.1321	959.2145	1012.8225	1058.5444	1110.8178	1118.8369	1132.245	1170.5284	1224.0301	1289.8761	1299.1442	1320.92	1357.4565	1402.7942	1415.4111	1465.395	1495.89	1499.2542	1517.0943	1596.4432	1697.8283	2987.0869	3010.1086	3035.4111	3086.7971	3104.5974	3111.4087	3258.0681	3605.3283
CC1CNC2=NOC=C12	C[C@H]1CNc2nocc12	
InChI=1S/C6H8N2O/c1-4-2-7-6-5(4)3-9-8-6/h3-4H,2H2,1H3,(H,7,8)	InChI=1S/C6H8N2O/c1-4-2-7-6-5(4)3-9-8-6/h3-4H,2H2,1H3,(H,7,8)/t4-/m0/s1
