15
gdb 27600	3.4167	1.20206	0.88922	0.8274	86.52	-0.2228	-0.0292	0.1936	1227.4571	0.113364	-383.530312	-383.522691	-383.521747	-383.562198	30.05	
O	 0.1001456084	 1.361056691	 0.1143403413	-0.442641
C	 0.0681871625	 0.0013714583	 0.0406303021	 0.422936
C	 0.06984017	-0.6815197612	-1.1728159105	-0.376234
C	 0.0360533602	-2.0842796164	-1.1952882721	 0.193575
C	 0.0006030324	-2.7926761326	 0.0145794223	-0.229981
C	-0.0005990597	-2.0967280005	 1.2189371922	-0.078245
C	 0.0328251702	-0.7076129891	 1.243821936	-0.199086
C	 0.0379607676	-2.776867349	-2.4410147301	 0.222233
C	 0.0395825	-3.3620107524	-3.4936586912	-0.415058
H	 0.1225562545	 1.7257630459	-0.7765840821	 0.298789
H	 0.0972555857	-0.1347108449	-2.1105594859	 0.094263
H	-0.0254759863	-3.8751274533	-0.0023861431	 0.104563
H	-0.0280257548	-2.6450165683	 2.154698567	 0.102568
H	 0.0322015632	-0.1561533796	 2.1767556699	 0.109112
H	 0.0409477361	-3.8801655378	-4.4203203058	 0.193205
139.209	143.2435	232.4126	374.642	376.3401	389.2376	467.2402	474.9894	536.873	556.2941	582.2986	639.3898	641.7244	705.3529	731.7228	806.9486	866.7237	899.4538	955.3695	965.5012	1008.7768	1099.9912	1177.3513	1189.3569	1202.1116	1309.4254	1346.1423	1348.1498	1472.6385	1529.9079	1629.4163	1641.5113	2226.7134	3171.6229	3181.4256	3203.7543	3212.3153	3503.5124	3822.0811
OC1=CC(=CC=C1)C#C	Oc1cc(ccc1)C#C	
InChI=1S/C8H6O/c1-2-7-4-3-5-8(9)6-7/h1,3-6,9H	InChI=1S/C8H6O/c1-2-7-4-3-5-8(9)6-7/h1,3-6,9H
