18
gdb 118319	1.96765	1.41295	0.98374	1.9105	70.83	-0.2629	-0.0287	0.2342	1248.3434	0.145747	-476.271064	-476.261079	-476.260135	-476.306569	34.828	
C	-0.0960114738	 1.5027966854	 0.0271631543	-0.506495
C	-0.1060383465	-0.0151768191	-0.012344692	 0.426042
O	-0.1977000139	-0.6736569971	 1.0022020547	-0.341752
N	 0.0001297622	-0.6553884973	-1.252967072	-0.127642
C	-0.0169102334	-2.1250735407	-1.2716618856	-0.172258
C	-1.4145598703	-2.6974477865	-1.061198504	-0.077727
O	-2.2510001962	-2.2098221762	-2.0965705414	-0.414537
C	 0.1386084856	 0.0184388133	-2.461652005	 0.176573
O	 0.3070181074	-0.5200137257	-3.5268396351	-0.30255
H	 0.8323418256	 1.9152987639	-0.3784512714	 0.151601
H	-0.9295559464	 1.9294860325	-0.5384818704	 0.153574
H	-0.1884431784	 1.7925018373	 1.0733859374	 0.155329
H	 0.3640837138	-2.4213436895	-2.2489734584	 0.15155
H	 0.6443506394	-2.490288704	-0.4838237736	 0.130784
H	-1.3324626558	-3.7959451815	-1.0851220292	 0.091833
H	-1.783351318	-2.4082699072	-0.0691216401	 0.116056
H	-3.1545764149	-2.4751203103	-1.9040214608	 0.290663
H	 0.0923208935	 1.1118914625	-2.3527532675	 0.098957
57.4666	87.1428	99.785	168.1601	194.2618	226.6552	242.7352	270.699	329.1193	371.8182	425.4465	513.4155	537.3743	612.3006	656.2383	775.5854	882.4586	950.5938	993.7735	1026.7509	1037.387	1056.1328	1103.8799	1135.2604	1206.573	1256.9837	1297.9882	1345.0146	1373.9938	1392.3944	1412.9658	1453.5422	1457.5251	1464.7374	1480.2266	1487.8485	1526.5333	1768.8471	1823.1312	2978.4667	3027.4647	3045.416	3052.743	3093.19	3118.3724	3156.2593	3162.8048	3838.1775
CC(=O)N(CCO)C=O	CC(=O)N(CCO)C=O	
InChI=1S/C5H9NO3/c1-5(9)6(4-8)2-3-7/h4,7H,2-3H2,1H3	InChI=1S/C5H9NO3/c1-5(9)6(4-8)2-3-7/h4,7H,2-3H2,1H3
