19
gdb 39964	4.72106	1.01281	0.98234	1.6931	75.86	-0.2413	0.0583	0.2996	1259.199	0.15831	-422.974061	-422.965931	-422.964987	-423.007469	31.093	
C	 0.1999989366	 1.5670175352	-0.0163848604	-0.260831
O	 1.2748469363	 0.6298804658	-0.1937075184	-0.27359
C	-0.0341507147	 0.1240309121	-0.0213626645	 0.456207
C	-0.4715498756	-0.7918359782	 1.12543406	-0.372363
C	-1.4782789978	-1.4504791028	 0.1418479342	 0.446969
C	-1.851385405	-2.9430008108	 0.1553532983	-0.361214
C	-3.2906999621	-2.4402918589	 0.3733611245	-0.070956
O	-2.8557454503	-1.0642092152	 0.3475218246	-0.317617
C	-0.779836294	-0.7343156963	-1.0472581779	-0.372369
H	 0.2075713993	 2.1118756144	 0.9269385705	 0.115816
H	-0.0509539458	 2.1601133142	-0.8950467335	 0.115816
H	 0.3276500725	-1.4753487116	 1.429789447	 0.112916
H	-0.9174597254	-0.328667198	 2.0083981333	 0.116937
H	-1.6730705423	-3.4711891721	-0.7834229804	 0.11298
H	-1.4224165843	-3.5180737816	 0.9783645086	 0.112972
H	-4.0015268366	-2.658875414	-0.4323445825	 0.104239
H	-3.7501912312	-2.7051662322	 1.3330181124	 0.104228
H	-1.4502147967	-0.2292812353	-1.7462006273	 0.116941
H	-0.1018071128	-1.3952273245	-1.5968177884	 0.11292
44.6161	79.1011	223.0056	296.971	309.6421	335.6259	382.0142	414.2477	455.5209	642.3881	774.2537	811.1434	812.8952	861.4315	875.2453	878.647	894.8672	906.1755	962.069	982.3853	1025.6799	1051.2124	1124.1323	1124.5008	1139.7143	1144.5507	1165.811	1190.6705	1206.2865	1207.0628	1226.7426	1240.7089	1257.8576	1308.5643	1358.3139	1430.8721	1442.052	1470.2104	1487.3384	1533.4891	1538.7963	3020.1362	3051.0829	3056.5784	3059.7156	3073.7562	3079.6981	3118.6569	3119.2148	3127.8526	3166.7509
C1OC11CC2(CCO2)C1	C1O[C@]21C[C@]1(CCO1)C2	
InChI=1S/C7H10O2/c1-2-8-6(1)3-7(4-6)5-9-7/h1-5H2	InChI=1S/C7H10O2/c1-2-8-6(1)3-7(4-6)5-9-7/h1-5H2/t6-,7-
