18
gdb 37452	2.59246	1.96627	1.95292	2.9237	69.16	-0.2396	0.0677	0.3072	849.211	0.15204	-439.056393	-439.050092	-439.049147	-439.086702	26.657	
C	-0.0140616466	 1.5574070018	 0.0295829306	-0.060583
O	 1.3259785629	 2.0764699326	 0.0332561826	-0.258394
C	 2.2862957673	 1.0621271924	-0.0527743406	 0.203513
O	 2.204450647	 0.17899261	 1.0613614028	-0.277556
C	 0.9115676309	-0.4397287511	 1.1490352072	-0.05696
C	 0.0299682253	 0.0251205915	-0.0296129374	-0.105335
C	 0.7641340721	-0.4132689311	-1.2937079058	-0.03586
N	 1.0832951755	 0.6459334519	-2.2724404486	-0.338631
C	 2.1090654376	 0.2060999407	-1.3114817359	-0.065196
H	-0.5083542834	 1.8810974242	 0.9548726987	 0.094178
H	-0.5485903872	 1.9739083449	-0.8282602291	 0.119749
H	 3.2626630298	 1.54388366	 0.0173741223	 0.089171
H	 1.0402963916	-1.5302208953	 1.144154411	 0.096088
H	 0.45422189	-0.1549791927	 2.1057090823	 0.102727
H	-0.9783632883	-0.3903083426	 0.0522466326	 0.075028
H	 0.6211049162	-1.4317771388	-1.6423205712	 0.0895
H	 1.2702760027	 0.2193720011	-3.1764161245	 0.234112
H	 2.9781271766	-0.3425253295	-1.660375087	 0.094447
193.6648	303.489	334.6664	354.5968	429.9918	550.8812	586.1812	604.1351	691.9623	784.1684	833.88	860.7757	888.7551	899.6657	903.8244	949.0799	955.2319	979.0736	992.9231	1037.4196	1068.7045	1082.1434	1115.6238	1135.582	1155.121	1194.9547	1221.8377	1224.304	1245.5119	1298.4616	1329.3343	1349.0186	1356.9239	1379.5109	1398.9169	1419.1337	1444.7589	1508.0716	1525.6372	3004.5351	3017.1097	3040.3002	3072.295	3087.4364	3107.4916	3149.4809	3164.1526	3507.2025
C1OC2OCC1C1NC21	C1O[C@H]2OC[C@@H]1[C@H]1N[C@@H]21	
InChI=1S/C6H9NO2/c1-3-2-9-6(8-1)5-4(3)7-5/h3-7H,1-2H2	InChI=1S/C6H9NO2/c1-3-2-9-6(8-1)5-4(3)7-5/h3-7H,1-2H2/t3-,4-,5-,6+/m1/s1
