15
gdb 22655	6.39262	0.85891	0.7608	2.2149	79.92	-0.2133	-0.0454	0.1679	1386.984	0.112815	-453.941113	-453.932987	-453.932042	-453.974147	29.534	
O	-0.0834651197	 1.3191999625	 0.0079830931	-0.393075
N	 0.0249917998	-0.0813873141	 0.0038815096	-0.241667
C	-1.1310032179	-0.6291035123	 0.0114906981	 0.379431
C	-1.2729114338	-2.1463412986	 0.0090326841	-0.26403
N	-2.7335508283	-2.3241641942	 0.019844458	-0.082056
C	-3.390523044	-3.5274699616	 0.0220958545	 0.153163
O	-4.5946277698	-3.6502966539	 0.0313162934	-0.315976
C	-3.3579193578	-1.0807941524	 0.0275595614	 0.03162
C	-2.4723274776	-0.0658498472	 0.0231195566	-0.273827
H	 0.8391737125	 1.5943371217	 0.0015299544	 0.30872
H	-0.8292065248	-2.5982437358	-0.8834199324	 0.15188
H	-0.8155505799	-2.6024004154	 0.8924307494	 0.15188
H	-2.6860079944	-4.380111677	 0.0149110982	 0.085661
H	-4.4376232019	-1.0634557613	 0.0359019609	 0.171139
H	-2.6999805925	 0.9867344196	 0.0273286307	 0.137135
63.2563	172.2568	175.2902	253.5052	264.1927	274.9362	362.2429	391.2739	433.7252	617.0457	647.8841	716.3313	791.2003	802.715	880.1801	922.2043	954.3364	990.0602	995.2604	1025.4806	1092.4935	1201.2235	1223.4795	1249.1217	1296.0786	1334.3552	1399.2539	1433.343	1444.5129	1492.6441	1625.6711	1727.2552	1795.7423	2960.5993	3049.5441	3090.1674	3260.231	3287.37	3823.5452
ON=C1CN(C=O)C=C1	ON=C1CN(C=O)C=C1	
InChI=1S/C5H6N2O2/c8-4-7-2-1-5(3-7)6-9/h1-2,4,9H,3H2	InChI=1S/C5H6N2O2/c8-4-7-2-1-5(3-7)6-9/h1-2,4,9H,3H2
