25
gdb 99982	2.57542	1.07881	0.93438	0.6069	94.51	-0.2578	0.0543	0.3122	1427.9393	0.22522	-352.335539	-352.323965	-352.323021	-352.37146	43.743	
C	-0.005182672	 1.573394371	 0.2072200303	-0.406376
C	-0.0416491981	 0.0634055494	-0.0616149696	-0.191595
C	 0.6910741498	-0.4258399883	-1.3384893677	 0.270817
C	-0.0173133715	 0.0923173827	-2.603269949	-0.420804
C	 2.1511527982	 0.0662001203	-1.3334910888	-0.42171
C	 0.712768859	-2.0017099706	-1.3211471985	-0.161777
C	-0.6710110047	-2.6818168622	-1.2169234591	-0.411338
C	 1.4305270867	-2.5542335732	-2.4720109404	 0.327885
C	 1.9923539398	-3.0317521091	-3.4227577299	-0.469581
H	 1.0110996931	 1.9371701097	 0.382532083	 0.119765
H	-0.4280211477	 2.1474098066	-0.6231961153	 0.118273
H	-0.594724535	 1.8091638522	 1.0989264962	 0.112254
H	 0.3872609907	-0.4564264352	 0.8064027315	 0.087511
H	-1.091432575	-0.2453377547	-0.1137911366	 0.096715
H	 0.0441014819	 1.1826242313	-2.6665956776	 0.11147
H	 0.4464067857	-0.3188765818	-3.5044379391	 0.12624
H	-1.0780119509	-0.1780608193	-2.6151494909	 0.108685
H	 2.6675815897	-0.2347141853	-0.4142199003	 0.103972
H	 2.7035693701	-0.3505811986	-2.1794849089	 0.12799
H	 2.2030985829	 1.1558754322	-1.4055858832	 0.110886
H	 1.2795829857	-2.2836154151	-0.421640302	 0.099206
H	-0.5484653715	-3.7679602227	-1.2215612616	 0.12551
H	-1.183150221	-2.4049363501	-0.2931207657	 0.118152
H	-1.3103156425	-2.4182743182	-2.0634984584	 0.127449
H	 2.4993509367	-3.452058701	-4.2556872484	 0.190401
65.284	80.6238	143.3465	187.1106	204.9854	235.7316	242.012	258.5353	278.138	312.3836	341.6924	350.3876	392.4242	412.3106	440.0508	558.5975	586.6824	618.3738	632.6509	715.6912	786.2107	812.2654	893.6894	927.1694	945.8968	1001.2441	1010.7764	1027.7217	1040.7088	1080.8446	1099.6344	1123.4063	1198.5131	1231.8008	1243.5107	1304.8673	1333.1921	1351.1062	1370.1068	1401.5021	1406.0425	1408.9313	1428.6753	1480.4904	1485.7108	1490.006	1496.6171	1500.9129	1505.4994	1512.7327	1514.2606	1515.8721	2225.7616	2993.6535	3008.377	3031.3873	3039.0783	3042.6898	3052.0134	3061.2699	3099.4499	3101.2213	3107.2349	3112.6053	3116.6659	3122.3628	3122.8193	3133.1028	3503.5572
CCC(C)(C)C(C)C#C	CCC(C)(C)[C@@H](C)C#C	
InChI=1S/C9H16/c1-6-8(3)9(4,5)7-2/h1,8H,7H2,2-5H3	InChI=1S/C9H16/c1-6-8(3)9(4,5)7-2/h1,8H,7H2,2-5H3/t8-/m0/s1
