13
gdb 132593	3.16205	1.37807	0.9655	1.5905	64.14	-0.2621	-0.0576	0.2045	1094.4352	0.088201	-502.058182	-502.050817	-502.049872	-502.090556	26.823	
C	-0.0316529283	 1.5172576584	-0.0039283837	-0.486223
C	-0.008391665	 0.0166117033	-0.0177044885	 0.18819
N	-0.0436150277	-0.6392859455	-1.1782189277	-0.268373
C	-0.0217905553	-1.9726426387	-1.1613382454	-0.152826
C	 0.0365783836	-2.6536213361	 0.0483429676	 0.307113
F	 0.0582546362	-3.9771465822	 0.0645570915	-0.056476
N	 0.0728276539	-2.0438241237	 1.2161933525	-0.340634
C	 0.0500412143	-0.7333687181	 1.1658169598	 0.289078
F	 0.0855205673	-0.0912536106	 2.3263006959	-0.052771
H	 0.8613889404	 1.9223540799	 0.4835818951	 0.144703
H	-0.0777571568	 1.8869436383	-1.0287997847	 0.147555
H	-0.8961172912	 1.8944744338	 0.5525817671	 0.144703
H	-0.0504514714	-2.5052969189	-2.1054877795	 0.135961
83.5977	123.5222	247.2889	274.8701	352.4771	356.7558	497.8754	504.7155	553.0478	578.1018	691.0904	737.3916	786.0572	791.3909	910.8319	988.4536	1046.7914	1060.9995	1195.071	1254.5458	1295.5021	1350.7253	1408.6403	1445.7402	1479.1818	1479.7177	1507.5181	1604.6583	1625.783	3042.3647	3096.2907	3151.106	3193.8673
CC1=NC=C(F)N=C1F	Cc1ncc(F)nc1F	
InChI=1S/C5H4F2N2/c1-3-5(7)9-4(6)2-8-3/h2H,1H3	InChI=1S/C5H4F2N2/c1-3-5(7)9-4(6)2-8-3/h2H,1H3
