17
gdb 113013	2.08329	1.49551	1.20156	4.8051	64.6	-0.2495	-0.0337	0.2158	1099.016	0.133622	-496.069046	-496.0598	-496.058856	-496.103713	32.746	
O	-0.1080697382	 1.1282086104	-0.7677071223	-0.422329
C	 0.0060294328	-0.1978414712	-0.293807681	-0.071523
C	-1.3317260026	-0.6485647468	 0.2830171353	 0.066875
O	-2.3874474586	-0.4675142451	-0.705047012	-0.290636
C	-2.5437192847	-1.8773249459	-0.8827949589	 0.003693
C	-2.0274454733	-2.3908740934	-2.2171443752	 0.159815
O	-1.4726950737	-1.7039912127	-3.0325100252	-0.239202
C	-1.6189775965	-2.1757201628	 0.326013662	 0.026083
O	-0.5839997526	-3.0788266605	 0.0294101354	-0.414592
H	-0.8137622898	 1.1049198538	-1.4267354414	 0.296708
H	 0.3280764888	-0.8866659479	-1.0843218708	 0.116161
H	 0.7717040509	-0.1981749437	 0.4904031193	 0.099344
H	-1.5696992144	-0.085993359	 1.1924723374	 0.085957
H	-3.5881378183	-2.2002436705	-0.7679824248	 0.103409
H	-2.2187907294	-3.4732362374	-2.3870642131	 0.088202
H	-2.1769282005	-2.4795082397	 1.218640306	 0.093837
H	-0.0935137698	-3.2732971776	 0.8339025292	 0.298197
53.3952	100.1367	122.9767	172.1367	213.1409	237.9518	254.3732	310.0773	452.9876	470.0577	516.5538	555.6791	693.207	785.7799	821.3467	844.0726	913.7882	968.4231	994.1545	1043.4612	1086.0043	1091.2623	1117.6735	1172.4339	1179.3699	1221.597	1244.2882	1281.7204	1311.4039	1330.5993	1358.8376	1405.644	1412.9533	1427.226	1438.8614	1500.3719	1836.5798	2892.6065	3012.2998	3029.2704	3037.8063	3053.2025	3079.3386	3779.9267	3828.5008
OCC1OC(C=O)C1O	OC[C@H]1O[C@@H](C=O)[C@H]1O	
InChI=1S/C5H8O4/c6-1-3-5(8)4(2-7)9-3/h1,3-5,7-8H,2H2	InChI=1S/C5H8O4/c6-1-3-5(8)4(2-7)9-3/h1,3-5,7-8H,2H2/t3-,4+,5+/m0/s1
