17
gdb 109135	4.25892	1.03675	0.88226	5.2422	71.96	-0.2326	0.0104	0.243	1295.4391	0.136748	-455.185178	-455.176499	-455.175554	-455.218939	31.239	
C	-0.138820978	 1.4718102845	-0.007005353	-0.31423
N	 0.0921957852	 0.0375634954	-0.0349432905	-0.342678
C	 0.7194008319	-0.5818486903	 1.0098961654	 0.374977
N	 1.2197076499	 0.0769052519	 1.9839950838	-0.300983
C	 1.9685687555	-0.714248382	 2.9485175668	-0.308051
C	 1.4115852976	-2.103400062	 3.2287840724	 0.405829
O	 1.4687948928	-2.6614760081	 4.2879271325	-0.322042
O	 0.7906594496	-2.7127073698	 2.1805442564	-0.215089
C	 0.8566406722	-2.0851426553	 0.9015687311	-0.176022
H	 0.8077521831	 1.9852269049	 0.1739334367	 0.154656
H	-0.540067008	 1.7842573953	-0.9733855906	 0.122206
H	-0.833548847	 1.7683519899	 0.7891334381	 0.133137
H	-0.5629351061	-0.5170324427	-0.5611984464	 0.245574
H	 3.0144848783	-0.8380077233	 2.6218881026	 0.131519
H	 2.0102250969	-0.1922695987	 3.9066516864	 0.14545
H	 0.0577518375	-2.5359355385	 0.3059142988	 0.126789
H	 1.8108923186	-2.3302758912	 0.4138199795	 0.138959
63.0256	130.4681	146.141	181.7658	214.0789	275.0317	384.3174	403.0706	441.8912	489.0065	553.0928	607.1782	632.2094	784.6721	809.0539	894.3735	986.7729	1006.9594	1068.9355	1073.827	1130.671	1151.7734	1180.1332	1211.5381	1239.3464	1261.543	1312.6128	1340.5311	1422.4309	1452.8331	1471.3445	1477.1343	1493.0057	1507.0103	1551.284	1729.4094	1859.861	2976.3944	3010.5807	3024.2329	3086.7708	3100.8086	3106.5527	3141.433	3640.3278
CNC1=NCC(=O)OC1	CNC1=NCC(=O)OC1	
InChI=1S/C5H8N2O2/c1-6-4-3-9-5(8)2-7-4/h2-3H2,1H3,(H,6,7)	InChI=1S/C5H8N2O2/c1-6-4-3-9-5(8)2-7-4/h2-3H2,1H3,(H,6,7)
