21
gdb 61544	3.4155	0.93953	0.86961	3.6118	80.81	-0.2465	0.0262	0.2726	1408.2315	0.181716	-420.407202	-420.397208	-420.396264	-420.442497	36.198	
C	-0.2131338879	 1.3477198316	 0.1614895981	-0.35651
N	 0.0088012313	-0.0746564648	-0.0426293391	-0.023535
C	-0.0715426402	-0.9694558048	 1.0974951328	-0.260882
C	-1.4604677981	-1.0709659877	 1.7166567681	 0.337955
C	-2.5641518107	-1.5157871127	 0.7811119372	-0.449004
C	-1.5243522879	-1.4240125946	 3.158047385	-0.281477
N	-1.862795563	-0.0591950311	 2.7155765093	-0.342954
C	 0.3486260817	-0.5329534058	-1.2838904857	 0.154577
O	 0.4652007388	 0.1463715416	-2.281149832	-0.341091
H	 0.4873078783	 1.7428141947	 0.9088209709	 0.117618
H	-0.0435999115	 1.8480444587	-0.7919190642	 0.170261
H	-1.2342084729	 1.5460618486	 0.5028884544	 0.146316
H	 0.2487354751	-1.9617545112	 0.7586016075	 0.121806
H	 0.6423638559	-0.6469644064	 1.8709795883	 0.096734
H	-2.3742465168	-2.5278907129	 0.4060243964	 0.115383
H	-3.5239297129	-1.5117541931	 1.3018160294	 0.132546
H	-2.6426860641	-0.8470443787	-0.0816358041	 0.133069
H	-2.3614296329	-2.006646925	 3.5322456849	 0.121068
H	-0.5913494936	-1.5815154896	 3.694590212	 0.110099
H	-1.0861944292	 0.5654149816	 2.9213595607	 0.226213
H	 0.5112746905	-1.6289972683	-1.28220873	 0.071809
55.2008	79.1776	115.8728	169.1345	206.982	261.0127	292.7059	320.2616	344.8614	351.8557	388.0994	419.4717	479.8613	716.52	730.7368	831.0625	872.1537	913.3724	923.2137	949.1287	988.7893	1028.2532	1052.6883	1083.9049	1090.09	1111.758	1147.0821	1157.6809	1234.2421	1263.928	1278.4268	1331.385	1359.0543	1398.062	1424.1305	1431.107	1438.9509	1446.6245	1476.2243	1486.2306	1497.3813	1499.0465	1515.6132	1524.1604	1797.9016	2933.4225	2985.0941	3017.4645	3036.9956	3058.1001	3079.4826	3100.992	3103.2932	3131.2624	3157.7097	3188.122	3488.6978
CN(CC1(C)CN1)C=O	CN(C[C@@]1(C)CN1)C=O	
InChI=1S/C6H12N2O/c1-6(3-7-6)4-8(2)5-9/h5,7H,3-4H2,1-2H3	InChI=1S/C6H12N2O/c1-6(3-7-6)4-8(2)5-9/h5,7H,3-4H2,1-2H3/t6-/m1/s1
