21
gdb 61264	4.59661	0.79446	0.76653	4.2243	84.04	-0.2276	0.0242	0.2518	1542.7808	0.182595	-383.254409	-383.244877	-383.243933	-383.289489	34.822	
C	 0.2070575742	 1.5198787382	-0.096024787	-0.349402
N	 0.0136002125	 0.0804719934	 0.0251644556	-0.075473
C	 0.6591725402	-0.4584715914	 1.2135046423	-0.28658
C	 2.1218357744	-0.3236490488	 1.1590163406	 0.273113
N	 3.2714943082	-0.2146155662	 1.1327181575	-0.310031
C	-1.3510412267	-0.3972511485	-0.1171745142	 0.103565
C	-2.5687555521	 0.1884051317	 0.6773742863	-0.253502
C	-3.4334351352	-0.0992164323	-0.5792798463	-0.207712
C	-2.1326561309	-0.1346209043	-1.4288288459	-0.26089
H	 1.2781877455	 1.7386252505	-0.1200512823	 0.148816
H	-0.2235850253	 1.8781199672	-1.032464542	 0.130614
H	-0.2381936833	 2.0961476633	 0.7343727455	 0.101582
H	 0.3172676133	 0.0119599446	 2.155603381	 0.130422
H	 0.4258909821	-1.5259432094	 1.2927022879	 0.15096
H	-1.3220338109	-1.4804103233	 0.0482291271	 0.080855
H	-2.848522288	-0.2866116494	 1.6208690178	 0.09517
H	-2.4610509089	 1.2642674388	 0.8427437541	 0.106153
H	-3.9104105012	-1.0816857343	-0.5267906199	 0.106503
H	-4.1892481138	 0.6399250236	-0.8501893384	 0.103384
H	-1.9148916243	 0.8504440888	-1.849301267	 0.10777
H	-2.0413455796	-0.8786345221	-2.2230566727	 0.104685
47.8412	69.6822	131.8605	161.4355	225.7401	229.0713	305.1101	354.1564	390.6476	412.2969	462.0807	558.1011	667.5547	754.2958	787.7859	881.9667	895.5679	923.8457	935.8827	960.9439	984.8989	1011.7767	1035.8393	1088.8732	1119.9482	1149.5357	1193.1008	1207.5576	1227.1804	1250.0488	1255.6739	1258.3186	1278.7491	1291.8624	1316.9396	1380.3711	1427.8442	1461.9342	1473.9598	1478.2558	1486.7816	1495.1095	1509.4231	1512.9054	2364.242	2920.0527	2950.1072	3034.4361	3058.2954	3064.6688	3065.8323	3069.3671	3086.035	3106.8619	3114.6708	3128.0543	3134.6285
CN(CC#N)C1CCC1	CN(CC#N)C1CCC1	
InChI=1S/C7H12N2/c1-9(6-5-8)7-3-2-4-7/h7H,2-4,6H2,1H3	InChI=1S/C7H12N2/c1-9(6-5-8)7-3-2-4-7/h7H,2-4,6H2,1H3
