17
gdb 31491	3.21918	1.14104	0.85237	3.2227	73.11	-0.1993	0.0086	0.2079	1322.6186	0.135319	-455.179833	-455.17022	-455.169275	-455.214974	33.519	
C	 0.0712668689	 1.4891394407	 0.331344218	-0.502126
C	-0.0093551886	 0.0309872921	 0.0775902378	 0.267878
C	-1.0124464466	-0.8641844507	-0.131820924	 0.176857
N	-2.3958179207	-0.6933617024	-0.1285076467	-0.601477
N	-0.4701818374	-2.1331121818	-0.3033209508	-0.374589
C	 0.8095151752	-1.9573622489	-0.1960478781	 0.363751
C	 1.8376356379	-3.0396718325	-0.2914501254	-0.142724
O	 1.2387335264	-4.2729381404	-0.6014329061	-0.421795
O	 1.1808569406	-0.69070152	 0.030244342	-0.215663
H	 0.6020981923	 1.7099360223	 1.26491681	 0.141711
H	 0.5854156589	 2.0274738898	-0.4745279848	 0.136108
H	-0.9368687411	 1.9028785685	 0.4221597742	 0.131415
H	-2.699667766	 0.1919336287	-0.5103406109	 0.246963
H	-2.857579746	-1.4580566566	-0.6029957113	 0.254496
H	 2.5766499842	-2.7752238151	-1.0624616948	 0.121637
H	 2.3883834946	-3.0967951024	 0.6619170049	 0.117726
H	 0.2828364373	-4.1328717612	-0.5586183142	 0.299834
46.9679	86.2444	150.26	174.2936	180.4061	244.9306	246.4492	249.7005	352.2616	383.9234	506.2078	640.0196	649.7855	680.0234	694.9587	760.518	814.0009	976.0666	1027.5072	1041.0362	1065.1935	1083.3793	1110.8946	1182.3654	1237.2301	1273.2584	1299.9483	1360.9913	1401.1943	1433.3235	1469.8453	1481.0838	1496.8537	1512.9735	1612.4182	1642.2232	1713.1739	2972.4695	3004.2419	3019.8561	3067.7797	3113.6978	3549.4527	3644.3914	3744.2341
CC1=C(N)N=C(CO)O1	Cc1c(N)nc(CO)o1	
InChI=1S/C5H8N2O2/c1-3-5(6)7-4(2-8)9-3/h8H,2,6H2,1H3	InChI=1S/C5H8N2O2/c1-3-5(6)7-4(2-8)9-3/h8H,2,6H2,1H3
