21
gdb 77312	2.83418	1.15494	0.88447	2.9588	85.88	-0.2375	-0.0182	0.2193	1350.4886	0.181238	-387.126443	-387.116873	-387.115929	-387.161379	35.21	
C	 0.0461644894	 1.6259093018	 0.0069188946	-0.407243
C	 0.095689065	 0.0938408577	 0.0100702201	-0.092189
C	 0.8870570327	-0.4851348689	-1.2074040388	-0.057381
C	 1.6238985929	-1.7383785246	-0.660596111	-0.299868
C	 1.6056988098	-1.5251309851	 0.8317804671	-0.175045
C	 0.7875549673	-0.5424122251	 1.2085264521	 0.334135
C	 0.4826119174	-0.1093224735	 2.6088629309	-0.497049
C	-0.0309152227	-0.7900187824	-2.363792626	 0.152276
O	-0.0422169284	-0.2140171519	-3.421377584	-0.255904
H	 1.0528190484	 2.0499367199	 0.089464018	 0.11964
H	-0.3983130305	 1.9952737774	-0.9226998635	 0.130735
H	-0.5531323116	 2.0090385138	 0.8385923857	 0.116606
H	-0.9447879037	-0.2723757077	-0.0162334997	 0.078821
H	 1.6124195475	 0.260412202	-1.5452987141	 0.092434
H	 1.0980853462	-2.6673638847	-0.9302883005	 0.106776
H	 2.6320710265	-1.8282374788	-1.0793587871	 0.115206
H	 2.1741616402	-2.150245725	 1.5127930701	 0.089254
H	 1.0262768438	-0.7126468012	 3.3405555162	 0.1252
H	 0.7469528026	 0.9421158996	 2.7733770718	 0.130523
H	-0.5901207483	-0.1974267093	 2.8256636871	 0.125336
H	-0.7518276543	-1.618888984	-2.1562011591	 0.06774
53.1916	54.6031	178.3947	221.9901	238.9537	247.1352	264.6002	283.2993	391.5266	411.5651	417.1438	561.5152	598.9319	677.8981	796.761	823.7802	864.1883	915.4862	976.2746	982.5174	1017.6901	1035.9399	1053.903	1074.7687	1095.8576	1113.9002	1122.7534	1194.1303	1205.015	1248.5632	1291.6815	1318.1834	1321.5523	1345.6094	1353.6163	1410.6127	1415.6469	1428.9429	1479.6383	1486.4817	1489.7205	1499.7758	1502.4288	1726.5689	1830.0188	2829.9902	2954.3885	2990.2104	3018.6332	3032.8343	3055.7031	3066.5886	3076.3003	3103.0719	3107.1783	3112.7198	3183.9469
CC1C(CC=C1C)C=O	C[C@H]1[C@@H](CC=C1C)C=O	
InChI=1S/C8H12O/c1-6-3-4-8(5-9)7(6)2/h3,5,7-8H,4H2,1-2H3	InChI=1S/C8H12O/c1-6-3-4-8(5-9)7(6)2/h3,5,7-8H,4H2,1-2H3/t7-,8+/m1/s1
