18
gdb 105825	2.52257	1.44035	1.22815	2.7761	71.44	-0.2192	0.0558	0.275	1082.856	0.147671	-438.982764	-438.974744	-438.9738	-439.015358	31.609	
O	 0.0981322415	 1.3895628068	 0.0302190432	-0.415161
C	 0.0244752269	-0.0256881257	-0.0952419294	-0.16895
C	-1.3870071074	-0.5232099937	-0.0262497713	 0.234349
C	-2.0533233368	-1.0409119442	 1.2324265824	 0.078146
O	-3.2017662873	-0.5817492854	 1.848695486	-0.426912
C	-1.9310955016	-1.9826795287	 0.0564958528	-0.203419
C	-2.8753193858	-1.6540043472	-1.1248355045	-0.044677
N	-3.7762065025	-0.527338382	-0.7382322084	-0.372725
C	-2.3790104546	-0.2683836497	-1.1934818286	-0.106803
H	-0.3584033767	 1.6269626004	 0.844933981	 0.287226
H	 0.4760357984	-0.2520100137	-1.0690988726	 0.10518
H	 0.6314198157	-0.536624866	 0.6697641461	 0.088299
H	-1.3042722828	-1.2779535708	 1.988571363	 0.101827
H	-3.8206898513	-0.4088518899	 1.1160266424	 0.300263
H	-1.3612699572	-2.9036891378	 0.0975603423	 0.092698
H	-3.1624253248	-2.3405850774	-1.9099554657	 0.104445
H	-4.3950421551	-0.3429866831	-1.5263619778	 0.237922
H	-2.1830364787	 0.378342688	-2.0383568009	 0.108292
80.1923	126.7172	249.4307	271.6941	293.6749	346.7058	405.4595	459.3143	522.1611	624.2645	684.2142	717.9453	730.5485	775.7818	825.4305	833.8164	890.5839	901.3248	916.0511	963.475	992.8697	1010.6768	1044.851	1064.3425	1101.8646	1124.7285	1129.9904	1205.4168	1226.7291	1242.5116	1267.356	1309.4159	1328.8521	1339.721	1370.038	1420.0433	1431.8353	1497.8037	1506.2542	2972.8074	3046.2342	3109.9769	3177.3385	3198.8151	3211.5784	3482.0074	3583.3643	3804.0129
OCC12C(O)C1C1NC21	OC[C@]12[C@@H](O)[C@H]1[C@H]1N[C@@H]21	
InChI=1S/C6H9NO2/c8-1-6-2(5(6)9)3-4(6)7-3/h2-5,7-9H,1H2	InChI=1S/C6H9NO2/c8-1-6-2(5(6)9)3-4(6)7-3/h2-5,7-9H,1H2/t2-,3-,4-,5+,6+/m1/s1
