19
gdb 56654	2.5145	1.16162	1.00478	3.2945	75.75	-0.2593	0.0186	0.2779	1274.3386	0.157174	-419.200883	-419.190707	-419.189763	-419.236148	36.628	
C	-0.215336467	 1.6876934401	 0.5236023567	-0.429993
C	-0.310266912	 0.1850146014	 0.4957189434	 0.033969
O	 0.4969983098	-0.5191059556	-0.4669240927	-0.305216
C	 0.7457512354	-0.7500338047	 0.9268999747	 0.371829
C	 2.0873144217	-0.3026572785	 1.4577266217	-0.484665
C	 0.3037120386	-2.1750425126	 1.3234302013	-0.181046
N	 1.1246276821	-3.2556820637	 0.7754151872	-0.511054
C	 0.2191506803	-2.3014337547	 2.7860682232	 0.296905
N	 0.1657990926	-2.3587815235	 3.9386767818	-0.325002
H	 0.816063996	 2.0378482377	 0.4602855521	 0.131246
H	-0.7682469562	 2.1106466812	-0.3213827326	 0.136791
H	-0.6629127833	 2.0761353488	 1.4444445535	 0.133914
H	-1.3347691496	-0.1911537268	 0.5487524973	 0.091697
H	 2.3610971457	 0.6775459393	 1.0675571424	 0.136867
H	 2.0747361088	-0.2576339252	 2.550900899	 0.1517
H	 2.8703614991	-1.0062603803	 1.1560988377	 0.122692
H	-0.7091905843	-2.3133335899	 0.9266829485	 0.135364
H	 1.1975862556	-3.1142284128	-0.2286802431	 0.251724
H	 2.0651675966	-3.2206349902	 1.1563260979	 0.242279
45.0818	119.8332	146.2663	161.6375	195.5988	206.502	267.285	292.6845	313.3006	368.1039	382.1787	473.3683	523.627	557.0769	600.2598	731.7718	785.1232	875.0737	884.3126	909.7038	971.8367	1003.7356	1056.0796	1084.7812	1130.4501	1143.7477	1173.9013	1202.5348	1241.7876	1285.1774	1367.2936	1404.184	1414.9386	1419.9793	1462.3307	1475.5368	1486.0644	1499.2585	1519.1987	1653.7113	2362.4429	3043.2866	3044.1929	3047.8055	3078.5141	3105.4669	3108.5948	3139.4096	3153.374	3492.355	3580.5904
CC1OC1(C)C(N)C#N	C[C@H]1O[C@]1(C)[C@@H](N)C#N	
InChI=1S/C6H10N2O/c1-4-6(2,9-4)5(8)3-7/h4-5H,8H2,1-2H3	InChI=1S/C6H10N2O/c1-4-6(2,9-4)5(8)3-7/h4-5H,8H2,1-2H3/t4-,5+,6+/m1/s1
