17
gdb 28306	5.035	1.27258	1.02884	3.513	84.06	-0.1969	-0.0212	0.1757	1144.697	0.138646	-380.92791	-380.920549	-380.919605	-380.959721	28.369	
C	 0.0017027663	 1.4721967224	 0.0385004325	-0.487325
C	 0.0178494656	-0.0212104954	-0.0196813068	 0.269641
C	-0.0739861225	-0.8260541979	-1.1389574549	-0.233249
N	-0.0114472935	-2.1130792473	-0.6622537366	 0.000253
C	-0.0338963933	-3.4893511221	-1.1193288534	-0.242129
C	 0.0982679592	-4.2424491257	 0.1939331546	-0.102777
C	 0.1810047348	-3.3819251268	 1.2233814973	-0.186254
C	 0.1129901964	-2.0281194132	 0.6978311802	 0.370304
N	 0.1347913545	-0.7848575996	 1.1272233857	-0.407198
H	 0.922072289	 1.8593226535	 0.4892410901	 0.131565
H	-0.0965358014	 1.9044363173	-0.9612408843	 0.113098
H	-0.8316326855	 1.8340760908	 0.6506345594	 0.13156
H	-0.1740671892	-0.591400708	-2.1856937173	 0.123842
H	-0.9683616437	-3.728728171	-1.6418919411	 0.139499
H	 0.7954554305	-3.703375744	-1.8048710834	 0.139499
H	 0.1179536454	-5.3218240479	 0.2388737521	 0.114825
H	 0.2813072077	-3.6230040551	 2.2714429158	 0.124846
110.5247	126.3029	248.3175	272.5499	287.0241	440.1512	497.1117	561.1409	646.2474	684.6567	721.3095	748.9098	781.167	788.9631	892.2416	938.3507	949.2532	986.777	989.3499	1015.4939	1062.6026	1093.1524	1168.1902	1185.6312	1197.4114	1271.0671	1305.8158	1344.8467	1403.7817	1407.8471	1436.7077	1475.1455	1482.5565	1494.0418	1566.15	1577.4257	1622.9533	3027.5776	3031.7591	3058.9521	3085.465	3112.5234	3234.4655	3256.567	3270.0495
CC1=CN2CC=CC2=N1	Cc1cn2CC=Cc2n1	
InChI=1S/C7H8N2/c1-6-5-9-4-2-3-7(9)8-6/h2-3,5H,4H2,1H3	InChI=1S/C7H8N2/c1-6-5-9-4-2-3-7(9)8-6/h2-3,5H,4H2,1H3
