18
gdb 45425	2.53716	1.74075	1.7148	3.508	72.04	-0.2531	0.0245	0.2776	924.5773	0.15144	-439.109341	-439.102372	-439.101428	-439.14068	27.918	
N	-0.0583426323	 1.2820750559	 0.0422065609	-0.546527
C	-0.023629591	 0.0206708785	-0.0011269268	 0.427927
O	 1.1306291279	-0.7158498737	-0.0369752551	-0.26445
C	 0.8701853892	-2.1392203559	-0.0384176215	 0.065209
C	 0.1354912533	-2.5064011733	 1.2568929468	-0.225248
C	-1.2182531517	-1.7435453554	 1.2621416808	-0.227993
C	-1.2494408452	-0.8654362143	-0.0002406088	 0.016179
O	-1.2195241203	-1.707757898	-1.1597863074	-0.277944
C	 0.0004359828	-2.4439082623	-1.2544497625	-0.070233
H	 0.890085809	 1.6649630406	 0.0520866309	 0.21894
H	 1.8465090735	-2.6202947506	-0.116776175	 0.093607
H	-0.0097981809	-3.5899698704	 1.3000577114	 0.111131
H	 0.7589705484	-2.2253836845	 2.1095972862	 0.117821
H	-2.0678357706	-2.4302762801	 1.2222568735	 0.114295
H	-1.3298165464	-1.1238457285	 2.1561524357	 0.121073
H	-2.1490806804	-0.2577572734	-0.0765519301	 0.108695
H	 0.525288627	-2.1552942046	-2.1742703399	 0.112806
H	-0.2239403723	-3.51786887	-1.3055396091	 0.104712
103.0259	180.3587	284.5138	363.0634	384.2623	418.055	532.9971	536.1934	643.07	736.9954	796.4176	832.8874	841.0396	879.6101	889.175	908.6231	950.4422	962.2024	1014.5866	1047.3113	1067.9912	1086.6145	1101.0957	1121.0977	1201.0628	1234.0834	1256.4942	1263.0976	1293.5613	1327.7092	1337.9808	1351.7012	1372.0028	1401.8962	1405.4386	1475.1309	1494.208	1517.2418	1775.5088	3008.273	3046.1991	3054.2378	3064.0135	3094.3952	3105.265	3114.8483	3143.4647	3455.2144
N=C1OC2CCC1OC2	[NH][C]1O[C@H]2CC[C@@H]1OC2	
InChI=1S/C6H9NO2/c7-6-5-2-1-4(9-6)3-8-5/h4-5,7H,1-3H2	InChI=1S/C6H9NO2/c7-6-5-2-1-4(9-6)3-8-5/h4-5,7H,1-3H2/t4-,5-/m0/s1
