18
gdb 48282	2.45909	1.02908	0.80859	2.0831	74.31	-0.2316	-0.0541	0.1776	1425.6521	0.144774	-439.068568	-439.059121	-439.058176	-439.104352	33.275	
O	 0.3039533379	-0.0363904614	-1.390356663	-0.243551
C	 0.1824757477	 1.0313612543	-0.8498051821	 0.146313
C	 1.2872711548	 1.6648522939	-0.0048216407	-0.138285
N	 2.5196992255	 0.9300571576	-0.1075712631	-0.321629
C	 3.2770015258	 0.7870003174	 1.1068270292	 0.052469
C	 2.7981111282	-0.0821359178	 2.2561962381	-0.269649
C	 3.9680851501	-0.5091603804	 1.3952138506	-0.286042
C	 1.4264979955	 3.1331083914	-0.4314350149	 0.140143
O	 0.5455257885	 3.9430637022	-0.3159351079	-0.243379
H	-0.7403219269	 1.6384767537	-0.9203726952	 0.124036
H	 0.8678892831	 1.6897758305	 1.0190402708	 0.125666
H	 2.3433064156	 0.0405674954	-0.563312169	 0.240001
H	 3.813798533	 1.690800139	 1.3860488511	 0.095111
H	 2.9926074703	 0.2397131471	 3.2734834711	 0.11563
H	 1.8648654132	-0.6194058266	 2.1224105307	 0.115007
H	 3.8057538951	-1.3289802708	 0.7024137019	 0.12097
H	 4.9664717933	-0.4803070111	 1.8163378827	 0.120811
H	 2.4155393994	 3.3652758255	-0.8818890203	 0.106378
41.1279	62.8325	100.6725	138.2904	170.5015	228.5748	308.3334	340.1308	403.3291	482.6705	577.7185	676.6021	700.7741	772.5324	815.9713	834.5856	865.3247	881.9355	962.925	1002.7471	1040.6523	1047.2323	1080.2545	1092.8501	1134.6117	1177.5359	1193.5974	1201.4583	1230.7984	1260.244	1302.6436	1372.3544	1386.8096	1399.4289	1460.9504	1490.8552	1507.8597	1804.506	1840.6587	2909.6514	2932.9814	2960.7293	3126.7283	3129.1815	3134.8758	3210.3641	3225.1612	3525.7051
O=CC(NC1CC1)C=O	O=CC(NC1CC1)C=O	
InChI=1S/C6H9NO2/c8-3-6(4-9)7-5-1-2-5/h3-7H,1-2H2	InChI=1S/C6H9NO2/c8-3-6(4-9)7-5-1-2-5/h3-7H,1-2H2
