18
gdb 99828	1.97431	1.37147	1.27325	3.3697	73.	-0.2666	-0.0443	0.2223	1157.0918	0.14295	-439.104992	-439.094318	-439.093374	-439.141138	36.856	
C	 0.2468294003	 1.4084429508	-0.2044600359	-0.259286
O	 0.4828175498	 0.007302006	-0.1686669226	-0.267982
C	 0.8651495562	-0.539499338	 1.0792850802	 0.11763
C	 2.2084319792	-0.0195640816	 1.6018667855	-0.429216
C	-0.2014128216	-0.3153674573	 2.0870768046	 0.262326
N	-1.0477093736	-0.1471784805	 2.8568356079	-0.338298
C	 0.9307807827	-2.0944595225	 0.8462525421	 0.371119
C	-0.1186981767	-2.6753425356	-0.0684642909	-0.478555
O	 1.7817015117	-2.7449555255	 1.3931901233	-0.283811
H	 1.1645493261	 1.9834268411	-0.0329566853	 0.123757
H	-0.124826483	 1.6258293795	-1.2073929381	 0.141803
H	-0.509570651	 1.7074522754	 0.5322916424	 0.139038
H	 2.1388709606	 1.0255433008	 1.9088648751	 0.132011
H	 2.52450309	-0.6214264528	 2.4543539324	 0.162813
H	 2.9556688441	-0.1180919452	 0.810577067	 0.138317
H	 0.0327323787	-2.3020468491	-1.084944456	 0.164819
H	-0.0477196949	-3.762942033	-0.0499110818	 0.145177
H	-1.1175941686	-2.3513564225	 0.23998681	 0.158338
39.7738	94.7889	130.7991	140.4508	159.9669	184.441	215.8665	230.5928	300.8746	361.8237	371.5763	431.8069	462.0118	563.9882	594.4769	620.7489	676.6025	852.1313	889.304	964.2645	1037.4672	1078.867	1121.3025	1163.5079	1170.9482	1180.9329	1201.4456	1247.8815	1382.9891	1400.1781	1457.1691	1466.3717	1472.9596	1480.9335	1485.6787	1496.7918	1508.783	1835.9267	2341.0025	3014.5331	3054.0879	3062.5376	3078.7876	3121.4802	3134.0913	3142.179	3159.3501	3163.2468
COC(C)(C#N)C(C)=O	CO[C@@](C)(C#N)C(=O)C	
InChI=1S/C6H9NO2/c1-5(8)6(2,4-7)9-3/h1-3H3	InChI=1S/C6H9NO2/c1-5(8)6(2,4-7)9-3/h1-3H3/t6-/m0/s1
