16
gdb 52138	4.34475	0.91602	0.7854	5.3086	67.13	-0.2615	0.0022	0.2637	1393.2394	0.124295	-475.053155	-475.044599	-475.043655	-475.088122	29.017	
O	 0.5798252605	 0.1129902312	 0.2876688905	-0.2711
C	 0.7926395421	 1.2647642384	 0.5058270422	 0.195836
O	 0.4739350262	 2.2367237056	-0.3829314904	-0.163733
C	 0.8071249408	 3.5661161305	-0.0234323274	-0.202438
C	 2.2773711707	 3.8512031764	-0.1549163859	 0.408597
N	 3.2025372521	 2.9928650838	-0.2509462122	-0.300764
C	 4.4609357779	 3.7529921528	-0.3326038641	-0.185953
C	 4.0298771479	 5.2399426866	-0.2219899593	-0.112329
O	 2.5832339068	 5.1734957988	-0.1352039859	-0.256585
H	 1.2373358935	 1.6613427452	 1.4365287374	 0.083514
H	 0.2473902689	 4.2215194422	-0.6943182975	 0.157664
H	 0.4864315687	 3.7983117023	 1.0018441159	 0.139615
H	 5.1325468944	 3.4490403392	 0.4761396654	 0.12547
H	 4.9661375519	 3.5299259888	-1.2776179172	 0.128117
H	 4.4012919617	 5.7389726194	 0.6769956959	 0.125665
H	 4.288966006	 5.841286929	-1.0966293273	 0.128423
41.9395	72.1262	91.6116	154.5016	210.7742	243.1353	320.8474	405.4884	586.3669	670.7969	726.2122	766.6569	828.2352	924.9751	978.7383	985.9854	1006.6672	1029.4588	1039.0139	1085.1088	1121.3178	1156.1963	1214.2254	1232.2217	1246.1093	1293.0881	1332.6411	1372.721	1422.4784	1437.0873	1482.6376	1502.6264	1525.7988	1754.8842	1878.2459	2975.6437	3020.4794	3049.918	3063.4234	3080.5451	3113.7851	3114.4374
O=COCC1=NCCO1	O=COCC1=NCCO1	
InChI=1S/C5H7NO3/c7-4-8-3-5-6-1-2-9-5/h4H,1-3H2	InChI=1S/C5H7NO3/c7-4-8-3-5-6-1-2-9-5/h4H,1-3H2
