19
gdb 98533	3.64365	1.05333	0.94643	3.9531	76.84	-0.2371	-0.0151	0.222	1284.914	0.158473	-422.978743	-422.969988	-422.969043	-423.01362	32.212	
O	 0.0237331659	 1.3571206068	-0.0770712301	-0.39526
C	-0.041255679	-0.0319096634	 0.1074554923	-0.185855
C	-1.4750308927	-0.5146706749	-0.0911895399	 0.224335
O	-2.3950469809	 0.241192716	-0.2882676736	-0.281337
C	-1.6689529837	-2.0035910703	-0.0307088305	 0.275081
C	-1.1073094376	-3.0302443	 1.0100703366	-0.264093
C	-1.9475687254	-3.8640405176	 0.0011611797	-0.053689
C	-3.0290424643	-2.7455192379	 0.0691756076	-0.250539
C	-1.2690179231	-3.0473153988	-1.1342056994	-0.250388
H	 0.9304483077	 1.6361267859	 0.079397671	 0.292126
H	 0.6032181929	-0.5885888897	-0.5953905529	 0.107095
H	 0.2684466086	-0.3430816972	 1.1209786934	 0.11234
H	-0.0268492681	-3.1997606613	 1.0063936075	 0.091919
H	-1.4979702406	-2.9450069549	 2.0277007278	 0.099862
H	-2.1130035586	-4.9412063336	 0.0223798915	 0.078438
H	-3.5694027943	-2.6367313946	 1.0126186621	 0.098011
H	-3.6968096581	-2.6495603257	-0.7893368601	 0.104005
H	-1.8080619204	-2.970289831	-2.0816296965	 0.105348
H	-0.1989519986	-3.2116432078	-1.2889920367	 0.0926
22.818	78.8168	138.1557	187.6828	239.0912	278.339	350.7783	448.9907	520.1335	555.5213	578.4819	747.8423	783.379	805.432	880.0868	907.1114	925.6326	961.1831	965.2434	998.1	1015.3121	1028.0085	1095.4578	1100.7586	1134.347	1138.7144	1145.4558	1162.6107	1168.0064	1221.7875	1231.6593	1237.6124	1247.1901	1252.5863	1319.6999	1441.7252	1492.4611	1496.6114	1499.564	1552.1516	1815.6133	2949.185	2969.8578	3046.0745	3051.3606	3063.6844	3111.4766	3113.0978	3120.2003	3130.7861	3835.8187
OCC(=O)C12CC(C1)C2	OCC(=O)[C@@]12C[C@@H](C1)C2	
InChI=1S/C7H10O2/c8-4-6(9)7-1-5(2-7)3-7/h5,8H,1-4H2	InChI=1S/C7H10O2/c8-4-6(9)7-1-5(2-7)3-7/h5,8H,1-4H2/t5-,7-
