22
gdb 12113	2.96992	1.85824	1.44413	0.0512	81.3	-0.24	0.0864	0.3265	990.8872	0.199805	-313.046998	-313.038445	-313.037501	-313.079351	34.398	
C	 0.0298273753	 1.494730273	 0.2582381254	-0.478545
C	 0.0017482405	-0.0089543987	 0.0340970364	 0.313676
C	 1.0461023941	-0.5486013284	-0.9214301016	-0.297743
C	 1.2072851427	-0.7567983277	 0.5650712527	-0.308224
C	-1.3683081502	-0.6779449504	 0.0413411717	 0.313672
C	-1.3931047136	-2.1836410158	 0.2519618696	-0.478544
C	-2.5656438373	 0.0648849507	 0.5973232863	-0.308226
C	-2.426924581	-0.1295773672	-0.8932981845	-0.297742
H	 1.0473092943	 1.876536962	 0.1322952203	 0.110177
H	-0.6069949098	 2.0334272952	-0.4522988835	 0.116061
H	-0.2958979882	 1.7580595839	 1.2701001086	 0.118788
H	 0.7935765529	-1.4115584267	-1.528097733	 0.108832
H	 1.6965482194	 0.1625838105	-1.4199078063	 0.104327
H	 1.9645804045	-0.1799669333	 1.086121063	 0.103236
H	 1.0832391688	-1.7611382272	 0.9505824809	 0.109416
H	-1.052071177	-2.4563094817	 1.2562778829	 0.118788
H	-2.4124123096	-2.5643267144	 0.1379533863	 0.110177
H	-0.7671888256	-2.7156972073	-0.4731222027	 0.116061
H	-3.3150346318	-0.5167747633	 1.124398861	 0.103236
H	-2.4357181055	 1.0656357513	 0.9901616095	 0.109417
H	-2.1835294954	 0.7389555184	-1.4957259881	 0.108832
H	-3.0848637476	-0.836185213	-1.388440465	 0.104327
60.3703	241.0866	250.8171	263.8959	282.2403	344.93	360.8118	361.8776	398.5137	408.4642	514.3486	585.8671	779.3874	788.6086	807.6008	855.3363	861.6102	909.1077	928.5113	946.2724	957.4248	971.5347	1028.6914	1042.7602	1059.6501	1076.9467	1078.7828	1084.9312	1115.3131	1122.9915	1189.0766	1189.5056	1222.5086	1280.567	1336.3925	1371.0903	1417.6807	1420.0021	1464.4577	1470.8532	1492.9438	1494.2804	1504.5919	1509.6638	1509.9672	1513.9577	3028.1816	3028.3836	3089.3665	3089.6599	3099.7956	3101.2011	3127.6149	3128.3354	3136.4157	3136.9925	3206.4939	3206.5747	3224.2216	3224.8607
CC1(CC1)C1(C)CC1	CC1(CC1)C1(C)CC1	
InChI=1S/C8H14/c1-7(3-4-7)8(2)5-6-8/h3-6H2,1-2H3	InChI=1S/C8H14/c1-7(3-4-7)8(2)5-6-8/h3-6H2,1-2H3
