17
gdb 28779	3.16908	1.7003	1.1197	1.0003	83.02	-0.1845	0.005	0.1894	1050.4125	0.138829	-380.909296	-380.901769	-380.900824	-380.941295	29.404	
N	 0.2034965063	 1.425163586	 0.042595429	-0.611202
C	 0.0285125476	 0.0239721451	-0.0183971324	 0.2043
C	-1.080093222	-0.8010548143	-0.0481474828	-0.197554
C	-0.6334174783	-2.1619915963	-0.0521149779	-0.3211
C	 0.7384177471	-2.1306220811	-0.0361295873	 0.346851
C	 1.9859079027	-2.9731675831	-0.02000854	-0.417766
C	 3.0748342716	-1.9101533129	 0.0405063274	-0.14297
C	 2.5225161335	-0.6905638549	 0.0506369456	-0.013986
N	 1.1264678565	-0.8030867366	-0.0023484457	-0.00932
H	 0.2546751063	 1.8466179067	-0.8809937522	 0.242052
H	-0.5706847187	 1.8607491747	 0.529589232	 0.244852
H	-2.1057122109	-0.4630247597	-0.0716805463	 0.081988
H	-1.2593978902	-3.0410024431	-0.0713311734	 0.091451
H	 2.0326826216	-3.6472593038	 0.8455682417	 0.130849
H	 2.0876824742	-3.6095312848	-0.9095718861	 0.128694
H	 4.1326721559	-2.1235064874	 0.0744626504	 0.10591
H	 2.9774047569	 0.2871523455	 0.097555258	 0.13695
87.3375	166.0272	185.625	267.9876	315.3154	444.1435	527.2902	619.1855	626.9838	662.0136	682.9907	717.2869	755.2042	770.8406	792.599	830.0792	888.4246	917.8643	937.7883	951.9597	1017.9086	1042.192	1135.4513	1141.7795	1166.8813	1213.7107	1234.8922	1272.6194	1310.3655	1339.5892	1407.7563	1461.1365	1478.0148	1540.1105	1603.1807	1652.8808	1660.0451	3015.1033	3035.5856	3234.1252	3242.5796	3251.0667	3267.808	3484.2628	3583.0564
NC1=CC=C2CC=CN12	Nc1ccc2CC=Cn12	
InChI=1S/C7H8N2/c8-7-4-3-6-2-1-5-9(6)7/h1,3-5H,2,8H2	InChI=1S/C7H8N2/c8-7-4-3-6-2-1-5-9(6)7/h1,3-5H,2,8H2
