18
gdb 65817	3.66196	0.81988	0.766	4.4938	72.41	-0.2675	0.0341	0.3016	1484.2175	0.146397	-439.075692	-439.066473	-439.065529	-439.110478	33.139	
O	-0.1818349934	 1.457562014	 0.0362179686	-0.473451
C	 0.0189014308	 0.0664981184	 0.0065955332	 0.32628
C	-1.3581759767	-0.5848266575	-0.041046667	-0.212555
C	-2.1865315596	-0.1035861578	-1.2491097558	-0.350802
C	-3.5093574952	-0.7199646575	-1.2950332543	 0.257919
N	-4.5523317371	-1.2170330019	-1.3177770238	-0.30513
C	 1.0509464252	-0.5049664845	-1.0057621005	-0.129319
O	 1.6908856074	-1.2654332953	 0.0345952279	-0.26534
C	 0.9666105338	-0.5616275207	 1.0619471839	-0.133899
H	 0.6751827923	 1.8966933761	 0.0486107122	 0.286762
H	-1.2379127497	-1.6716597949	-0.0746867484	 0.133593
H	-1.8940531426	-0.3426726886	 0.8826011759	 0.130851
H	-2.2980893506	 0.9834643572	-1.2045305369	 0.173916
H	-1.6672245155	-0.3312618094	-2.1875238761	 0.148651
H	 0.6834312198	-1.1410358205	-1.8190734446	 0.11061
H	 1.7132980941	 0.2670870697	-1.4264748519	 0.093297
H	 1.5902869963	 0.1851971367	 1.5757735095	 0.093723
H	 0.5292459105	-1.2385647636	 1.8040156481	 0.114894
56.8601	94.6991	115.4967	142.6034	221.2413	301.4506	341.4053	347.8746	399.6795	426.2131	476.9463	536.1687	697.1394	779.5448	841.0811	918.316	928.6416	957.2956	983.1681	1011.6122	1028.3348	1037.0314	1100.0819	1133.6207	1147.771	1161.306	1171.1726	1255.8847	1287.5629	1299.8982	1327.2102	1364.1855	1381.0811	1416.5923	1468.4205	1484.1678	1503.4217	1529.1209	2363.2365	2982.82	2996.0454	3044.9793	3056.7321	3058.6922	3067.4184	3093.1685	3111.9923	3811.4284
OC1(CCC#N)COC1	OC1(CCC#N)COC1	
InChI=1S/C6H9NO2/c7-3-1-2-6(8)4-9-5-6/h8H,1-2,4-5H2	InChI=1S/C6H9NO2/c7-3-1-2-6(8)4-9-5-6/h8H,1-2,4-5H2
