17
gdb 52530	3.70767	0.76682	0.74567	4.4853	82.01	-0.2582	-0.0597	0.1985	1615.4424	0.132255	-421.797773	-421.787706	-421.786762	-421.835504	34.031	
C	-0.2570523111	 1.6152534105	 0.7596987098	-0.502721
C	-0.1199492323	 0.2293091136	 0.3483684708	 0.084324
C	-0.0254785702	-0.9234803938	 0.0020334486	 0.024078
C	 0.0961961057	-2.3083593882	-0.4023817396	 0.222786
O	-0.8449796371	-2.9576271184	-0.8090238175	-0.297562
C	 1.496129985	-2.8549975817	-0.3002406709	-0.065504
O	 1.6534598265	-4.2667845306	-0.3359377323	-0.229555
C	 2.144913572	-3.5394035292	-1.453084743	 0.084987
C	 1.4821222795	-3.7692027996	-2.7842885687	-0.432444
H	 0.7181091028	 2.0811874867	 0.934084868	 0.15921
H	-0.7839523332	 2.1980138268	-0.0033582229	 0.165594
H	-0.8358366451	 1.6846517192	 1.6873021343	 0.167131
H	 2.1376018356	-2.330079954	 0.4078750614	 0.103115
H	 3.2343453013	-3.4612903235	-1.4791195156	 0.098375
H	 0.396938167	-3.7965022247	-2.6801522599	 0.165926
H	 1.7621671266	-2.9787765213	-3.4887354239	 0.120876
H	 1.8189117169	-4.7240446217	-3.2013789686	 0.131386
11.3717	41.4499	83.9238	149.1161	177.1296	204.7431	245.5127	310.6447	359.8361	395.2449	441.6057	456.5469	573.899	740.9691	780.9518	835.1452	854.9849	949.3926	1007.8358	1039.2031	1043.6331	1054.6082	1079.0669	1163.6879	1167.1675	1201.3676	1281.9701	1387.5299	1409.1407	1410.8595	1446.7141	1469.131	1472.6611	1490.8139	1502.0557	1755.8428	2337.239	3032.5875	3040.7842	3081.3443	3096.4508	3100.849	3101.3456	3112.7611	3154.3361
CC#CC(=O)C1OC1C	CC#CC(=O)[C@H]1O[C@H]1C	
InChI=1S/C7H8O2/c1-3-4-6(8)7-5(2)9-7/h5,7H,1-2H3	InChI=1S/C7H8O2/c1-3-4-6(8)7-5(2)9-7/h5,7H,1-2H3/t5-,7-/m0/s1
