21
gdb 95354	2.9522	1.34855	1.07403	0.3791	77.57	-0.2385	0.0712	0.3097	1173.9316	0.184903	-424.218419	-424.210423	-424.209479	-424.250644	32.231	
O	-0.0179777203	 1.4292151023	 0.0375376801	-0.430761
C	 0.041784308	 0.0105017123	-0.0001901842	 0.099926
C	 0.7361118647	-0.5433561118	 1.2506425633	-0.10666
O	 0.825351651	-1.9567559002	 1.2286642359	-0.261141
C	-0.3955732557	-2.6242144854	 1.0133175334	 0.165894
C	-1.5192833592	-2.6654448922	 2.0874854564	-0.268496
C	-2.5384187781	-2.6289039244	 0.9118613015	-0.235699
C	-1.4211834916	-2.0471125658	-0.0038400344	-0.052758
C	-1.3913370149	-0.5094976341	-0.0460600395	-0.218757
H	 0.8816239434	 1.7699384179	-0.0017247727	 0.283227
H	 0.5931190472	-0.3397037363	-0.888232511	 0.068966
H	 1.7682285671	-0.1805911288	 1.3154571984	 0.092126
H	 0.1976558602	-0.1783222694	 2.1401347068	 0.094574
H	-0.1139260711	-3.644325168	 0.7363664815	 0.08328
H	-1.536265559	-3.5218989154	 2.7645037119	 0.098467
H	-1.5559890887	-1.7493640329	 2.6827020125	 0.10888
H	-2.8406166334	-3.6329473631	 0.6030526971	 0.102346
H	-3.4351992428	-2.0189887118	 1.041843933	 0.101487
H	-1.3517234482	-2.4541099496	-1.0164602899	 0.066785
H	-1.9152046792	-0.0858659851	 0.820030906	 0.103885
H	-1.9042981893	-0.1318734982	-0.9359341762	 0.104428
119.576	159.1011	240.8408	292.3517	300.8253	364.8448	395.243	445.9785	460.1085	493.1305	625.4644	664.0467	760.5806	836.9534	884.5541	911.7554	922.0166	928.2435	950.5798	994.578	1016.5541	1064.4928	1088.2299	1089.9647	1123.7826	1142.9447	1163.8026	1196.8452	1212.4739	1240.6859	1250.9743	1256.611	1272.2815	1289.355	1304.6154	1326.1016	1342.5831	1367.0785	1396.2777	1413.8476	1440.5896	1479.8859	1491.1496	1500.5223	1511.8908	2966.8272	2982.5888	3031.5063	3052.859	3060.7399	3061.3807	3068.4736	3071.0715	3085.0031	3109.351	3125.8229	3812.8802
OC1COC2CCC2C1	O[C@H]1CO[C@H]2CC[C@H]2C1	
InChI=1S/C7H12O2/c8-6-3-5-1-2-7(5)9-4-6/h5-8H,1-4H2	InChI=1S/C7H12O2/c8-6-3-5-1-2-7(5)9-4-6/h5-8H,1-4H2/t5-,6+,7-/m0/s1
