16
gdb 35350	3.85628	1.39221	1.26224	4.3063	74.24	-0.2682	-0.0046	0.2636	1001.1258	0.124903	-400.614235	-400.607387	-400.606443	-400.645383	27.55	
N	-0.6459152146	-1.1525323801	-0.3780128951	-0.336207
C	-0.3640380739	-0.0517487223	-0.1645633414	 0.3293
C	-0.0321774222	 1.352254383	 0.0575640152	-0.126284
O	-0.0272357055	 1.7274764499	 1.4890211204	-0.334593
C	 1.4129225306	 1.7981201626	 1.3792481671	 0.41388
C	 2.7324022261	 2.6115373147	 1.4679110263	-0.297713
C	 2.8818334085	 1.4728505468	 0.3313863256	-0.09722
C	 2.2552490716	 0.4889465692	 1.3351460443	-0.281735
C	 1.4389648604	 1.9135900429	-0.1216675054	-0.081688
H	-0.7508531789	 1.9718627595	-0.4843203663	 0.143067
H	 2.696034627	 3.644551463	 1.1180596971	 0.115886
H	 3.3757854597	 2.4874996138	 2.3428187552	 0.113459
H	 3.7703745571	 1.3216076642	-0.2809037249	 0.10181
H	 2.8404192669	 0.2594784201	 2.2270236976	 0.104422
H	 1.7824906909	-0.4008489547	 0.9235397494	 0.13704
H	 1.3746578762	 2.9216238173	-0.532258765	 0.096576
134.3666	149.254	322.8829	352.4436	435.1524	466.8181	542.084	564.068	624.5735	689.374	734.0688	809.562	838.9482	879.1243	907.9848	939.7368	951.569	988.4763	1008.5281	1026.2894	1047.6439	1082.7801	1109.5067	1138.9234	1158.8108	1172.2979	1192.7879	1218.9891	1226.8511	1256.4153	1323.8059	1379.6614	1495.743	1538.9834	2351.8435	3062.09	3083.8106	3087.4381	3101.5191	3121.0018	3143.5203	3166.472
N#CC1OC23CC(C2)C13	N#C[C@H]1O[C@@]23C[C@@H](C2)[C@@H]13	
InChI=1S/C7H7NO/c8-3-5-6-4-1-7(6,2-4)9-5/h4-6H,1-2H2	InChI=1S/C7H7NO/c8-3-5-6-4-1-7(6,2-4)9-5/h4-6H,1-2H2/t4-,5-,6+,7-/m1/s1
