20
gdb 115315	2.80723	1.22302	0.95625	3.7145	76.39	-0.2464	0.0257	0.2721	1284.175	0.171699	-440.336761	-440.32749	-440.326546	-440.371461	33.9	
C	 0.0296006659	 1.5647226497	 0.2095824242	-0.381225
C	-0.1042220335	 0.0807867658	-0.1431978363	-0.159026
N	-1.4687891409	-0.4105446865	-0.0694490437	-0.07427
C	-2.1768505298	-0.6574077018	 1.1834534946	-0.185244
C	-3.6445046	-0.8370817427	 0.7364359959	-0.246938
C	-3.5091160815	-1.3812483621	-0.687333173	 0.049074
O	-4.5668138032	-1.0347868082	-1.5423455838	-0.441615
C	-2.1903979411	-0.7673397168	-1.1646160476	 0.385758
O	-1.8837188344	-0.6287091237	-2.3359382267	-0.421324
H	 1.075895213	 1.8754245781	 0.1310534457	 0.123193
H	-0.5633729842	 2.1776770903	-0.4748779457	 0.137015
H	-0.3019226851	 1.7719232843	 1.2319921514	 0.118936
H	 0.2237008389	-0.092494724	-1.1716282782	 0.144772
H	 0.5285252561	-0.5254978314	 0.5185860797	 0.105902
H	-1.786682774	-1.5568520766	 1.6821779175	 0.109195
H	-2.0526121573	 0.1812777152	 1.8752646596	 0.118494
H	-4.2101997168	-1.4844801441	 1.4083123074	 0.112973
H	-4.1465149507	 0.1335620866	 0.6830837737	 0.125473
H	-3.3668449668	-2.4769311147	-0.6622229334	 0.086295
H	-4.1554508944	-0.8905624173	-2.4078172114	 0.292562
44.9574	89.9001	128.9883	192.0321	213.3981	260.5199	312.8769	375.5618	420.869	434.509	525.7194	560.4617	612.5083	734.2427	776.136	796.3991	886.3248	921.2184	962.647	997.5335	1034.645	1083.9106	1106.0479	1127.3171	1166.0798	1187.2667	1223.34	1255.0724	1273.7114	1300.8934	1306.6225	1349.1539	1376.6527	1398.1506	1412.2012	1430.832	1466.1618	1481.3032	1493.9801	1496.2079	1502.3264	1534.3528	1797.5865	2938.7268	2996.1328	3018.2819	3041.249	3064.0094	3075.1349	3096.2277	3114.5022	3124.0976	3126.7417	3721.2166
CCN1CCC(O)C1=O	CCN1CC[C@@H](O)C1=O	
InChI=1S/C6H11NO2/c1-2-7-4-3-5(8)6(7)9/h5,8H,2-4H2,1H3	InChI=1S/C6H11NO2/c1-2-7-4-3-5(8)6(7)9/h5,8H,2-4H2,1H3/t5-/m1/s1
