19
gdb 40117	2.16988	2.07489	1.27058	1.8611	80.79	-0.2377	0.0109	0.2487	1031.3347	0.159841	-385.867237	-385.859567	-385.858623	-385.899586	30.798	
C	 0.3199092073	 1.5029971559	-0.0493981682	-0.327951
C	 1.38697354	 0.4472773555	 0.0783905456	-0.291607
C	-0.0673851455	 0.0498534773	-0.0019278753	 0.267659
C	-0.7764347032	-0.5647544458	 1.2136117722	-0.358798
C	-1.392071964	-1.8259445944	 0.6553758712	-0.089799
C	-1.2656851869	-1.910687692	-0.6682113498	-0.137022
C	-0.5516801823	-0.7284015899	-1.2189658505	 0.367052
C	-0.8623452734	-0.1613222381	-2.542132655	-0.253138
O	 0.3379101669	-0.9114887904	-2.3330359534	-0.286816
H	 0.0862422049	 2.1102734103	 0.819430019	 0.109896
H	 0.2417886271	 2.0345939778	-0.9919964346	 0.112952
H	 1.9946353763	 0.2392588395	-0.7943845638	 0.133358
H	 1.8908260189	 0.3326940437	 1.0324247779	 0.107735
H	-0.0881912745	-0.7702531333	 2.0428156717	 0.109754
H	-1.5529698038	 0.1018709158	 1.6148389113	 0.111665
H	-1.8969478234	-2.5514189287	 1.2832217536	 0.100375
H	-1.6330340612	-2.7061555742	-1.3053622342	 0.103984
H	-1.6104776986	-0.6400672205	-3.1745003402	 0.108591
H	-0.7265848345	 0.9040222916	-2.7221849573	 0.112113
45.0798	232.5722	250.0841	282.7858	311.5534	390.1817	444.063	505.3619	571.0299	574.6116	745.8683	764.589	780.0051	844.1276	856.4034	889.5852	930.9913	935.7761	962.0636	974.7216	989.8034	995.2068	1033.9306	1061.1753	1085.2852	1103.1713	1127.9151	1162.1918	1182.0729	1192.4715	1195.3513	1269.3282	1282.464	1337.9121	1381.1087	1420.5048	1464.3617	1487.711	1501.5162	1531.6659	1681.7473	3005.5436	3040.7603	3075.159	3125.435	3133.9497	3160.5732	3190.4938	3205.2949	3216.5751	3230.0721
C1CC11CC=CC11CO1	C1CC21CC=C[C@]12CO1	
InChI=1S/C8H10O/c1-2-7(4-5-7)8(3-1)6-9-8/h1,3H,2,4-6H2	InChI=1S/C8H10O/c1-2-7(4-5-7)8(3-1)6-9-8/h1,3H,2,4-6H2/t8-/m1/s1
