16
gdb 36458	3.72674	1.00165	0.86218	4.9208	69.56	-0.2744	0.0251	0.2995	1297.8425	0.123205	-437.849191	-437.840854	-437.839909	-437.883045	29.834	
N	-0.0034571445	-1.1507218065	-0.3803248547	-0.296909
C	 0.0056869432	-0.0337866467	-0.086090111	 0.271192
C	 0.0264684	 1.3763345018	 0.2969327431	-0.364685
C	 1.3549374128	 2.0570540976	-0.0428555927	 0.057649
O	 1.5664667693	 2.1819547499	-1.4642461104	-0.287754
C	 1.7915968648	 3.6101344703	-1.3814967693	-0.151236
C	 1.435171659	 3.5785286804	 0.1006246393	 0.350923
C	 0.7102533676	 4.5196513332	 0.952067964	-0.257908
O	 2.1151500871	 4.2609161559	 1.1220513677	-0.250584
H	-0.791995747	 1.8979157077	-0.2100491284	 0.155517
H	-0.1490680855	 1.4481969152	 1.3770540059	 0.157296
H	 2.1875811849	 1.5350694578	 0.4462384688	 0.11414
H	 2.8352110117	 3.8799291743	-1.5826010076	 0.126352
H	 1.1277806204	 4.1721924155	-2.0472979832	 0.12026
H	 0.4607459401	 5.5080832215	 0.569495031	 0.129888
H	 0.0710250962	 4.1560688321	 1.7552222174	 0.12586
61.6222	93.636	111.637	203.6637	280.591	335.4467	386.4463	392.9399	476.828	538.6919	590.3968	821.4764	845.6044	878.1081	911.1915	943.0481	956.6107	1009.9711	1030.0174	1088.207	1103.8743	1124.5785	1149.9771	1165.7403	1189.9324	1227.4998	1262.5794	1308.0493	1339.3881	1387.3034	1449.3549	1454.4769	1514.3429	1544.3769	2367.2587	3025.1593	3032.2768	3044.0292	3079.167	3087.3674	3092.576	3175.3157
N#CCC1OCC11CO1	N#CC[C@H]1OC[C@]21CO2	
InChI=1S/C6H7NO2/c7-2-1-5-6(3-8-5)4-9-6/h5H,1,3-4H2	InChI=1S/C6H7NO2/c7-2-1-5-6(3-8-5)4-9-6/h5H,1,3-4H2/t5-,6-/m1/s1
