16
gdb 82704	2.81291	1.67638	1.27034	2.42	69.64	-0.2554	-0.0363	0.219	982.6932	0.12418	-437.822274	-437.814751	-437.813807	-437.854359	28.679	
O	 0.288653654	 1.1450308746	-0.0835697401	-0.437555
C	-0.0784466166	-0.2042318934	 0.0105307772	 0.082717
C	 0.1386632228	-0.8604309253	 1.3922262847	-0.126413
C	-0.7531040529	-0.0038680898	 2.3112872491	-0.148342
N	-1.9715499911	-0.54444833	 1.6075267417	-0.187691
C	-1.1772188278	-1.6833135956	 1.1276537167	-0.10119
C	-1.5469418569	-0.5987997373	 0.1528495846	 0.224487
C	-2.5910924027	-0.5469668599	-0.8776300376	 0.040633
O	-2.3779546021	-0.1346137199	-1.9957240811	-0.27641
H	-0.0223645471	 1.4737476664	-0.9342561624	 0.298608
H	 0.3756814432	-0.8135911426	-0.7819898152	 0.089544
H	 1.1163810135	-1.2335620663	 1.6867331525	 0.087734
H	-0.7789632146	-0.3607449583	 3.342930291	 0.116665
H	-0.6338971838	 1.0808588971	 2.2715505058	 0.129667
H	-1.4706263806	-2.72338959	 1.1753158235	 0.115317
H	-3.5933354273	-0.9017296695	-0.5595612703	 0.092227
92.3611	149.6151	226.0337	264.3126	307.357	341.1718	449.1971	514.5061	599.0512	678.7845	729.8773	803.5567	822.6728	852.8159	917.1533	939.2565	950.6109	991.0028	1008.9549	1028.3127	1061.2332	1131.8937	1143.8474	1160.7852	1177.9221	1185.9977	1243.0772	1282.7255	1287.2603	1316.6548	1372.1925	1423.6429	1428.6002	1501.4322	1792.6538	2921.3764	3024.7645	3072.5721	3137.3971	3150.7771	3211.8667	3813.6522
OC1C2CN3C2C13C=O	O[C@H]1[C@H]2CN3[C@H]2[C@]13C=O	
InChI=1S/C6H7NO2/c8-2-6-4-3(5(6)9)1-7(4)6/h2-5,9H,1H2	InChI=1S/C6H7NO2/c8-2-6-4-3(5(6)9)1-7(4)6/h2-5,9H,1H2/t3-,4+,5-,6+,7?/m0/s1
