16
gdb 125708	3.01068	1.46479	0.99743	1.5598	77.43	-0.2511	-0.0811	0.17	1158.2046	0.123003	-434.062822	-434.054331	-434.053387	-434.096099	31.13	
C	-0.2779970461	 1.4651932264	 0.0142305534	-0.451563
C	 0.0185043769	-0.0028161371	-0.0270369784	 0.381916
N	 0.1874466999	-0.5328808732	-1.1882966175	-0.126857
O	 0.4650868941	-1.9098224282	-1.2066172982	-0.2775
C	 0.5510015734	-2.6455546069	-0.0562852836	 0.364822
N	 0.8016322075	-3.8903737737	-0.0714938308	-0.51706
C	 0.335346198	-1.9100106207	 1.2044013961	 0.284575
C	 0.4196772582	-2.6751033492	 2.4839367074	-0.464897
N	 0.0816428575	-0.6480135178	 1.2099057121	-0.331298
H	 0.4874561719	 1.9809756804	 0.6028967778	 0.14658
H	-0.309010137	 1.8804444541	-0.9931310746	 0.148637
H	-1.2371922417	 1.6350615354	 0.5137140744	 0.146553
H	 0.9205457402	-4.2261065575	-1.0295289405	 0.234129
H	 1.400788032	-3.1524525427	 2.5711732813	 0.160579
H	 0.2432444897	-2.0073191848	 3.3271013196	 0.140885
H	-0.3107743746	-3.4903807444	 2.4815428714	 0.1605
64.7415	144.0953	171.8768	203.2764	278.3801	313.5143	327.0312	382.6404	489.3244	499.2414	558.5394	612.7332	668.3434	761.5073	789.3992	882.3669	908.707	958.7476	1031.296	1047.3051	1050.91	1067.7938	1076.5539	1221.864	1313.6742	1371.4732	1406.9868	1419.1761	1455.5791	1461.8429	1469.6466	1472.5924	1615.9324	1675.8139	1717.7125	3046.8045	3050.852	3105.6113	3107.6295	3158.7673	3161.7617	3470.0371
CC1=NOC(=N)C(C)=N1	CC1=NOC(=C(C)[N]1)[NH]	
InChI=1S/C5H7N3O/c1-3-5(6)9-8-4(2)7-3/h6H,1-2H3	InChI=1S/C5H7N3O/c1-3-5(6)9-8-4(2)7-3/h6H,1-2H3
