16
gdb 17395	4.88145	1.70621	1.59156	0.7997	63.78	-0.2393	0.0706	0.3099	838.0274	0.130438	-383.676059	-383.669356	-383.668412	-383.707153	25.606	
C	 0.0032108343	 1.3783904977	-0.2958599623	-0.077429
C	 1.4562117013	 1.5478357354	 0.1885378502	-0.3482
C	 1.2821841407	 0.1272783368	 0.7487536547	 0.452782
C	 2.2249082039	-1.090835927	 0.4681891885	-0.329855
C	 2.3074818497	-1.3119819782	 1.9832962253	 0.03821
O	 2.8009984145	-0.0907993395	 2.5533650112	-0.247872
C	 1.4024197545	-0.1847694798	 2.2525605857	-0.058677
O	-0.0396347014	 0.0166779899	 0.1935997477	-0.322457
H	-0.7402529971	 2.0111985723	 0.2033390205	 0.105434
H	-0.1588778144	 1.4242721733	-1.3783161054	 0.107421
H	 2.1984931989	 1.63180297	-0.606853195	 0.116212
H	 1.6373734594	 2.3252002208	 0.9322213541	 0.120513
H	 1.6635379389	-1.8693019945	-0.0548654101	 0.123434
H	 3.1727396091	-0.8967766742	-0.0401958447	 0.107468
H	 2.4805260342	-2.22441908	 2.5411631219	 0.107283
H	 0.6898816735	-0.0008545533	 3.0489300276	 0.105734
90.0298	128.1676	250.7705	375.4613	400.9109	462.5235	551.5452	774.3421	781.7515	845.1524	856.9563	864.8459	873.1207	914.0285	959.5336	974.1846	986.2435	1016.9253	1038.7627	1099.3031	1138.4634	1151.1694	1171.9117	1199.1831	1212.7436	1223.0146	1243.9076	1269.5906	1309.8048	1353.2292	1380.9004	1459.8291	1486.7656	1532.4616	3024.3561	3062.1845	3067.509	3083.0302	3125.977	3137.3334	3180.2593	3197.3413
C1CC2(CC3OC23)O1	C1C[C@]2(C[C@H]3O[C@@H]23)O1	
InChI=1S/C6H8O2/c1-2-7-6(1)3-4-5(6)8-4/h4-5H,1-3H2	InChI=1S/C6H8O2/c1-2-7-6(1)3-4-5(6)8-4/h4-5H,1-3H2/t4-,5-,6-/m1/s1
