16
gdb 22355	2.48868	1.31025	0.96328	3.3173	68.81	-0.2468	-0.0291	0.2177	1191.1896	0.122696	-475.007898	-474.999334	-474.99839	-475.041583	31.869	
O	-0.1323704478	 1.2933063192	 0.3921266503	-0.38561
N	-0.0349068112	-0.1035826102	 0.4219058537	-0.22684
C	-1.0939303279	-0.6547576375	-0.0164797375	 0.374931
C	-2.3821993013	-0.0317014192	-0.4751682202	-0.421703
C	-3.3764900197	-1.2048315502	-0.5000226112	 0.399892
O	-4.5162973791	-1.1440167987	-0.8726332149	-0.301847
C	-2.6706926425	-2.4524956392	 0.0478679997	-0.326409
C	-1.177649169	-2.1693734635	-0.1177588276	 0.026724
O	-0.8325725663	-2.5809323385	-1.4403120088	-0.431074
H	 0.7034150167	 1.5694118483	 0.7845179191	 0.310743
H	-2.7219213547	 0.7618843173	 0.1983889076	 0.159109
H	-2.3073059695	 0.4199565542	-1.4705598456	 0.16255
H	-2.9295651096	-2.5438812955	 1.1102411458	 0.135766
H	-2.9929669092	-3.3601552601	-0.4644231925	 0.145793
H	-0.5461965034	-2.6609875553	 0.6305272882	 0.087572
H	 0.0685962645	-2.2834391712	-1.6083090362	 0.290402
68.9102	82.5488	170.5783	204.0519	347.5196	365.8387	386.378	446.8444	456.2793	463.8322	495.2083	570.9075	614.5494	735.9336	769.7978	806.8359	863.1708	920.6731	980.1092	1000.8404	1039.6772	1132.6883	1140.7413	1189.927	1196.3191	1235.2082	1261.972	1298.6415	1332.5159	1402.2901	1405.5296	1422.21	1438.1557	1756.7827	1862.1771	3040.8247	3052.7951	3056.0584	3091.9062	3132.7249	3806.0318	3811.1732
ON=C1CC(=O)CC1O	ON=C1CC(=O)C[C@H]1O	
InChI=1S/C5H7NO3/c7-3-1-4(6-9)5(8)2-3/h5,8-9H,1-2H2	InChI=1S/C5H7NO3/c7-3-1-4(6-9)5(8)2-3/h5,8-9H,1-2H2/t5-/m1/s1
