16
gdb 10894	2.96264	1.96825	1.51096	3.8886	65.73	-0.2336	-0.0089	0.2246	877.2992	0.128692	-383.727563	-383.719591	-383.718646	-383.759669	29.569	
C	-0.1028269011	 1.6196615273	-0.0098386125	-0.424792
C	 0.0649677607	 0.1061878133	 0.0129060673	-0.159664
C	 1.1361670102	-0.594123779	-0.8718408359	 0.428532
O	 1.2928718378	-0.6337322972	-2.0611504108	-0.326001
C	 1.7513391339	-1.3129059175	 0.2830659844	-0.272202
C	 2.1280173343	-0.2852075724	 1.3662670319	-0.357541
C	 0.6950587447	-0.6111056837	 1.2143869998	 0.421645
O	-0.1204593608	-1.1274644993	 2.1933437469	-0.454573
H	 0.8233126708	 2.1374041065	 0.2585877579	 0.116703
H	-0.38670023	 1.9479048597	-1.0143196412	 0.138038
H	-0.8843435948	 1.941619696	 0.6855301264	 0.126008
H	-0.8883487569	-0.3868149185	-0.217881181	 0.114387
H	 2.1908255878	-2.3029375681	 0.2859242843	 0.111379
H	 2.6222656678	-0.7506420355	 2.2168342428	 0.117259
H	 2.5448967523	 0.6835281488	 1.1027923459	 0.128076
H	 0.3913569232	-1.2632196904	 2.9967671637	 0.292747
106.4972	169.7624	180.1036	200.4123	241.7033	307.6678	396.1717	491.1193	517.3144	577.5143	667.4654	716.6013	753.3951	785.2363	890.8775	918.9809	961.015	1011.5745	1051.9169	1087.609	1090.4714	1113.8724	1124.0301	1171.3123	1198.0295	1237.0083	1334.596	1391.7895	1408.1853	1417.0545	1493.2002	1498.2574	1507.7192	1876.5253	3037.1046	3038.0783	3100.9657	3106.858	3111.4194	3178.1135	3194.9044	3826.7201
CC1C(=O)C2CC12O	C[C@H]1C(=O)[C@H]2C[C@@]12O	
InChI=1S/C6H8O2/c1-3-5(7)4-2-6(3,4)8/h3-4,8H,2H2,1H3	InChI=1S/C6H8O2/c1-3-5(7)4-2-6(3,4)8/h3-4,8H,2H2,1H3/t3-,4+,6+/m0/s1
