17
gdb 17860	4.43914	1.67154	1.48285	2.7041	69.	-0.2341	0.0778	0.312	897.3192	0.141895	-363.755734	-363.748669	-363.747724	-363.786797	27.598	
C	-0.0522893269	 1.5606519165	-0.1375168648	-0.392608
C	-0.0298950201	 0.0588052267	 0.0136902674	-0.121674
N	 1.3041977148	-0.6004090763	-0.1191946516	-0.412661
C	 0.614173878	-0.6336342174	 1.1405097798	 0.473226
C	 1.1555299965	-0.301162293	 2.5418185103	-0.045357
C	-0.2049561513	-0.7456363532	 3.1344342155	-0.217217
C	 0.2429804946	-1.7904333879	 2.0815664361	-0.064182
O	 1.6147206804	-1.7128558495	 2.6440865807	-0.312489
H	 0.8326297879	 2.0043046327	 0.3260392306	 0.127608
H	-0.0583515164	 1.8456368375	-1.1948784657	 0.123583
H	-0.9443544207	 1.9887678873	 0.3328497503	 0.11583
H	-0.8738300352	-0.4615698704	-0.440019155	 0.085935
H	 1.2374910342	-1.4894877504	-0.6084308207	 0.233751
H	 1.8429128866	 0.4783717801	 2.8670371377	 0.102197
H	-0.1518317631	-1.0979651767	 4.1646348355	 0.110258
H	-1.0894640019	-0.1392336258	 2.9236378254	 0.098931
H	-0.1605018972	-2.7797720402	 1.8622217687	 0.09487
144.3225	166.2308	195.8867	265.1622	391.1305	446.9931	488.7069	585.8789	678.2643	749.4731	796.3628	825.9526	860.6322	887.5197	901.1778	917.9944	1001.9691	1020.9096	1026.6151	1059.1235	1085.0195	1105.7845	1124.6993	1142.9275	1170.2937	1193.0281	1223.2668	1237.966	1249.9048	1262.8633	1360.6488	1411.9192	1473.1069	1483.7154	1493.4792	1530.9689	3033.9547	3065.6976	3096.7117	3099.1046	3113.9312	3124.4588	3135.7168	3154.7729	3500.6165
CC1NC11C2CC1O2	C[C@H]1N[C@]21[C@H]1C[C@@H]2O1	
InChI=1S/C6H9NO/c1-3-6(7-3)4-2-5(6)8-4/h3-5,7H,2H2,1H3	InChI=1S/C6H9NO/c1-3-6(7-3)4-2-5(6)8-4/h3-5,7H,2H2,1H3/t3-,4-,5+,6-/m1/s1
