19
gdb 74799	2.71278	1.66288	1.50195	2.6398	74.71	-0.2445	0.007	0.2516	986.0742	0.161588	-423.037124	-423.02974	-423.028795	-423.06864	29.715	
C	-0.0620548367	 1.5085528457	 0.0475219122	-0.506827
C	-0.0739553882	 0.0183029241	-0.02427902	 0.326246
C	-0.1004056931	-0.7941061711	-1.080085236	-0.224767
C	 0.0390114598	-2.2203417592	-0.5616146281	 0.143914
O	-0.4966023556	-2.1312484876	 0.7449939336	-0.241801
C	 0.0439197763	-0.8857155023	 1.2055165696	-0.018823
C	 1.5219770005	-1.1825047621	 1.5309316116	-0.224749
C	 2.2130427826	-1.7217862147	 0.2564809958	-0.071768
O	 1.39774414	-2.6289607455	-0.4910616446	-0.26458
H	 0.8448505462	 1.8777468296	 0.5431834062	 0.131809
H	-0.1097990461	 1.9596596249	-0.9468715942	 0.131728
H	-0.9100747269	 1.8823600924	 0.635008736	 0.133472
H	-0.0969104067	-0.523056255	-2.1277194372	 0.103725
H	-0.4798703869	-3.0036316268	-1.1154844458	 0.088447
H	-0.5244558766	-0.5505169029	 2.0773612016	 0.077381
H	 2.0589311324	-0.2960033964	 1.8882717737	 0.095545
H	 1.5403000715	-1.9327961818	 2.3270185883	 0.11594
H	 2.5066279929	-0.8774969208	-0.3814364006	 0.095977
H	 3.1196816247	-2.2770275306	 0.5108672681	 0.109131
145.3168	169.0594	239.0089	283.7492	330.0777	446.6921	454.9314	496.2038	588.352	642.6117	677.7418	801.5075	833.2918	839.3435	874.5049	900.6849	911.799	948.9892	977.11	1016.5618	1031.5078	1046.5848	1055.952	1092.2999	1119.8794	1198.2631	1222.0556	1260.187	1268.7599	1308.6223	1323.202	1352.0426	1366.1685	1374.3147	1414.3966	1416.4209	1471.5755	1479.9383	1486.529	1504.8657	1712.5289	3012.9624	3019.1383	3039.8604	3064.9755	3076.3253	3084.89	3097.2463	3114.9208	3115.1187	3219.9832
CC1=CC2OC1CCO2	CC1=C[C@@H]2O[C@H]1CCO2	
InChI=1S/C7H10O2/c1-5-4-7-8-3-2-6(5)9-7/h4,6-7H,2-3H2,1H3	InChI=1S/C7H10O2/c1-5-4-7-8-3-2-6(5)9-7/h4,6-7H,2-3H2,1H3/t6-,7-/m0/s1
