14
gdb 26743	3.4521	1.2829	0.93674	3.7005	67.86	-0.1971	-0.0295	0.1676	1144.864	0.10029	-473.86343	-473.8551	-473.854156	-473.89622	30.456	
O	-0.0462448662	 1.3912019364	-0.1059302212	-0.458366
C	 0.0218527858	 0.0226730454	-0.0038093872	 0.142444
C	 0.0569815734	-0.7945128068	-1.0932298561	 0.337683
O	 0.0831868269	-0.5268474573	-2.4190698219	-0.444676
N	 0.0426117631	-2.1133979438	-0.653945194	-0.105871
C	 0.0625702866	-3.246540359	-1.4598979256	 0.173017
O	 0.0621980468	-4.3703134761	-1.0266516834	-0.302532
C	 0.0096653472	-2.1117630401	 0.7452034798	-0.076284
C	-0.0122811874	-0.8173067992	 1.1657171078	-0.27615
H	 0.5873591146	 1.7850444344	 0.5027175756	 0.302509
H	 0.0852504573	 0.4340739747	-2.5091743064	 0.316862
H	 0.0787189145	-2.9903958538	-2.5304917348	 0.122219
H	 0.0014090868	-3.0512203858	 1.2683878986	 0.155249
H	-0.0519495295	-0.4810948089	 2.1908238287	 0.113899
103.2975	185.3814	203.477	216.2376	259.6611	300.4098	308.9923	344.8543	416.3202	536.1948	614.4663	643.9669	692.0929	719.5078	746.1894	821.8984	848.4425	1011.4155	1038.6391	1069.0121	1150.0189	1241.9648	1251.1502	1290.1683	1380.363	1396.4916	1443.6507	1518.8497	1547.7717	1710.7658	1816.688	3028.0747	3247.6791	3305.5429	3803.2548	3809.3244
OC1=C(O)N(C=O)C=C1	Oc1c(O)n(C=O)cc1	
InChI=1S/C5H5NO3/c7-3-6-2-1-4(8)5(6)9/h1-3,8-9H	InChI=1S/C5H5NO3/c7-3-6-2-1-4(8)5(6)9/h1-3,8-9H
