17
gdb 47224	2.4879	1.82357	1.2876	2.8634	75.7	-0.2412	-0.0157	0.2255	999.206	0.138844	-417.983505	-417.976188	-417.975244	-418.015273	28.867	
N	-0.0688064129	 1.2422431464	 0.5242678664	-0.515198
C	-0.0356405536	 0.0634761692	 0.0505355823	 0.406661
O	 1.1504646941	-0.5364788192	-0.2183834749	-0.265643
C	 1.2802881588	-1.8794605113	-0.7360839202	-0.130653
C	 0.6789720868	-2.0559434997	-2.1069563318	-0.112672
C	-0.6142339131	-1.8763034049	-2.3747369951	-0.001392
C	-1.6449063526	-1.496006886	-1.3770291379	-0.084046
N	-1.5216025082	-2.0352278523	-0.0089486592	-0.345521
C	-1.3540975461	-0.5916808575	-0.2111465388	-0.094063
H	 0.8838786683	 1.593519277	 0.6439870131	 0.217305
H	 2.3611691624	-2.0267438698	-0.774739019	 0.115409
H	 0.8522574463	-2.5861881551	-0.0235748387	 0.152643
H	 1.3557120441	-2.3239861583	-2.9125560888	 0.102578
H	-0.9681154778	-1.9862979867	-3.3962164318	 0.097018
H	-2.6511988215	-1.4006952056	-1.7767674938	 0.096554
H	-2.4389773568	-2.2259621074	 0.3829346892	 0.244763
H	-2.156558448	 0.0701624412	 0.097217719	 0.116255
83.3189	211.2839	259.3528	292.877	332.7368	393.3635	435.4395	584.4114	633.2274	664.5868	701.8593	775.5491	801.6569	823.8648	872.0165	911.7834	930.0447	942.1819	980.2501	990.8736	1025.0743	1061.8445	1093.1522	1148.7537	1177.2973	1205.9728	1228.3014	1261.7008	1292.6841	1337.5342	1398.5882	1412.2098	1441.8956	1461.3365	1492.6549	1719.526	1723.0979	3081.1616	3128.603	3137.4072	3160.8119	3172.465	3182.9569	3462.2084	3517.3776
N=C1OCC=CC2NC12	[NH][C]1OCC=C[C@H]2N[C@@H]12	
InChI=1S/C6H8N2O/c7-6-5-4(8-5)2-1-3-9-6/h1-2,4-5,7-8H,3H2	InChI=1S/C6H8N2O/c7-6-5-4(8-5)2-1-3-9-6/h1-2,4-5,7-8H,3H2/t4-,5-/m1/s1
