13
gdb 42609	2.75249	2.13809	1.49713	5.3808	63.08	-0.2717	-0.0319	0.2398	841.311	0.090532	-452.723229	-452.71705	-452.716106	-452.753936	24.343	
N	-0.0927489046	 1.2769959885	 0.1721310416	-0.523984
C	-0.0431122247	 0.0449187183	-0.0427131686	 0.420983
O	 1.1103915622	-0.7353466112	-0.0815847105	-0.235116
C	 0.7075358617	-2.0318232842	-0.455940964	 0.077025
C	-0.6605789408	-2.0035428132	-0.9660166408	-0.069226
C	-0.4084607407	-2.7563207596	 0.3563447479	-0.260742
C	-1.2149978137	-1.6978395161	 1.0151488147	 0.437491
O	-1.7754228208	-1.5249662062	 2.0439624267	-0.287014
N	-1.1795437136	-0.8213927227	-0.2135196322	-0.216781
H	 0.8421309503	 1.6552767836	 0.3251329961	 0.240923
H	 1.5101897567	-2.6379183799	-0.8536705997	 0.146031
H	-1.1042044554	-2.333309854	-1.8939091309	 0.139743
H	-0.3589729965	-3.8147931932	 0.5763810097	 0.130667
134.9651	147.5143	413.8115	428.1835	482.6466	599.5469	647.4722	711.6576	772.6967	777.2805	819.2713	841.932	854.0082	875.7722	893.4625	916.7928	965.1465	1013.3235	1020.7106	1050.139	1055.8542	1108.9014	1127.882	1214.0432	1263.0693	1292.7753	1397.4913	1800.6551	1943.6517	3209.1465	3221.6112	3234.8191	3502.721
N=C1OC2C3C2C(=O)N13	[NH][C]1O[C@@H]2[C@H]3[C@@H]2C(=O)N13	
InChI=1S/C5H4N2O2/c6-5-7-2-1(4(7)8)3(2)9-5/h1-3,6H	InChI=1S/C5H4N2O2/c6-5-7-2-1(4(7)8)3(2)9-5/h1-3,6H/t1-,2+,3-/m0/s1
