20
gdb 105920	3.26368	1.54595	1.34852	1.9399	80.86	-0.2155	0.0801	0.2956	1035.9705	0.172372	-365.927618	-365.920197	-365.919253	-365.959568	29.891	
C	 0.1110460861	 1.3543370639	-0.513246243	-0.375402
C	-0.1538941641	 0.1054041764	 0.3391909707	-0.323774
C	-1.5044387907	-0.503348048	 0.0998898534	 0.366456
C	-2.8239333236	 0.0153639631	 0.7200885053	-0.142306
C	-2.355108002	-1.3907583489	 0.9608708342	-0.10767
N	-3.1287343483	-1.8515489654	-0.2662561004	-0.183789
C	-3.8151868227	-0.4677013847	-0.3479760682	-0.007289
C	-3.1965333323	-0.2400932945	-1.7379432007	-0.248825
C	-2.0921622916	-1.1492306238	-1.1713411354	-0.064165
H	 1.1097212414	 1.7580181428	-0.3208728583	 0.11302
H	 0.0463104431	 1.1243130176	-1.5821181324	 0.120025
H	-0.6198779874	 2.1405823851	-0.2981148762	 0.117791
H	 0.6236992774	-0.6439341761	 0.1388366771	 0.102153
H	-0.0600458411	 0.3580183566	 1.4033281118	 0.100444
H	-2.8615709784	 0.8639926056	 1.3912142845	 0.085463
H	-2.1671047633	-1.9755910197	 1.8530249025	 0.092062
H	-4.8872792528	-0.4097565336	-0.1581119765	 0.075025
H	-3.7705788504	-0.7496203489	-2.5168824617	 0.111353
H	-2.9434031615	 0.7769823653	-2.046725074	 0.098422
H	-1.4515534879	-1.7689467928	-1.8007218028	 0.071007
82.1673	134.1443	200.6004	307.5559	349.7327	419.4289	534.6609	621.4753	733.0395	768.3548	777.4522	796.7668	811.3411	863.0808	878.4557	902.9361	919.1686	933.1719	948.9746	977.2627	996.1442	1005.7836	1021.1557	1041.6	1084.1829	1088.734	1113.0598	1160.6411	1163.6028	1202.4347	1209.501	1232.9846	1252.9163	1279.5003	1294.979	1327.5117	1356.8568	1408.2111	1435.7715	1475.5249	1480.9128	1497.1575	1506.8102	3012.5459	3033.6784	3043.7895	3059.0183	3100.6728	3102.5349	3107.1093	3110.0029	3121.3674	3179.7471	3196.4325
CCC12C3C1N1C3CC21	CC[C@]12[C@@H]3[C@H]1N1[C@@H]3C[C@@H]21	
InChI=1S/C8H11N/c1-2-8-5-3-4-6(8)7(8)9(4)5/h4-7H,2-3H2,1H3	InChI=1S/C8H11N/c1-2-8-5-3-4-6(8)7(8)9(4)5/h4-7H,2-3H2,1H3/t4-,5+,6+,7-,8+/m1/s1
