18
gdb 74459	3.96143	1.15269	1.06563	2.5134	78.51	-0.237	-0.0329	0.2041	1177.6107	0.14719	-401.905266	-401.897054	-401.89611	-401.938378	31.023	
C	 0.0157580527	 1.5081443027	 0.2182060209	-0.51965
C	 0.0527375423	 0.0323716286	 0.0360738837	 0.392049
C	 0.2029615991	-0.7382954786	-1.044156628	-0.237364
C	 0.1461657152	-2.1582448579	-0.4420944431	 0.224664
C	-1.0731599958	-2.0308560311	 0.5196247601	-0.257515
C	-0.0673422067	-1.0178318639	 1.1553167937	-0.120175
N	 1.0856129596	-1.9390720306	 0.7541828398	-0.356114
C	 0.4103604561	-3.3379420318	-1.3223988783	 0.026025
O	-0.4103250102	-4.1772067674	-1.596403253	-0.243342
H	 0.8272366551	 1.8440419681	 0.8759917569	 0.137651
H	 0.1139581925	 2.0303754683	-0.737246306	 0.131086
H	-0.9222394096	 1.8306592109	 0.6877215452	 0.130718
H	 0.3389871556	-0.4833012891	-2.0847148658	 0.113741
H	-2.0163082957	-1.6551564913	 0.1161003658	 0.10449
H	-1.2342839037	-2.9273723238	 1.1266025064	 0.102666
H	-0.1157249498	-0.6882866119	 2.1932060656	 0.072942
H	 1.0056434133	-2.7760722515	 1.3434233134	 0.209704
H	 1.4526760401	-3.3923891997	-1.710860517	 0.088423
56.7776	139.3618	178.0605	212.0012	228.6108	328.9187	421.3624	507.5388	542.9097	586.756	639.2922	704.2585	771.2733	796.6354	836.804	876.1058	895.6418	941.1652	996.3633	1009.947	1029.2793	1053.9079	1068.6616	1096.6534	1133.3224	1159.3879	1198.9395	1220.2797	1249.6311	1263.9174	1327.6638	1351.4352	1412.7372	1416.0405	1477.2225	1484.3857	1503.0916	1690.8794	1825.4797	2879.995	3018.3081	3049.8707	3065.1281	3112.2897	3117.9045	3121.056	3240.8944	3370.6645
CC1=CC2(CC1N2)C=O	CC1=C[C@@]2(C[C@H]1N2)C=O	
InChI=1S/C7H9NO/c1-5-2-7(4-9)3-6(5)8-7/h2,4,6,8H,3H2,1H3	InChI=1S/C7H9NO/c1-5-2-7(4-9)3-6(5)8-7/h2,4,6,8H,3H2,1H3/t6-,7-/m1/s1
