21
gdb 107881	3.3085	1.26617	1.08696	1.16	83.26	-0.2121	0.0687	0.2808	1217.47	0.182145	-383.155608	-383.147003	-383.146059	-383.18874	33.413	
C	 0.0340207492	 1.5162614444	 0.0877498439	-0.38778
C	-0.0882321765	-0.0079168377	-0.031165217	-0.322902
C	-1.5087560722	-0.4896392626	-0.052865858	 0.365406
N	-2.5092729209	-0.1597300493	-1.1276023834	-0.388349
C	-3.2797383491	-1.033251218	-0.1865100381	-0.05129
C	-2.0363491097	-1.9521398401	 0.0641435362	-0.057975
N	-2.0726926997	-1.8757391847	 1.5559146616	-0.127788
C	-3.0645870649	-2.7254979147	 2.2083567841	-0.32084
C	-2.5561520472	-0.5321311116	 1.1189908394	-0.077024
H	 1.0836893173	 1.8233738349	 0.1080974769	 0.117028
H	-0.4414045315	 2.020218354	-0.7603145802	 0.121346
H	-0.4387876045	 1.8818194428	 1.0054689516	 0.116961
H	 0.4098752839	-0.350910878	-0.946252661	 0.109315
H	 0.4130111027	-0.4975237474	 0.8117454363	 0.12103
H	-2.8205076279	 0.8111818838	-1.0330985639	 0.204959
H	-4.3232787785	-1.295705487	-0.3604891469	 0.083883
H	-1.7137817399	-2.8327405486	-0.4931184957	 0.085318
H	-2.697854041	-3.7571873895	 2.2284803609	 0.119852
H	-3.1923646896	-2.3981724967	 3.2455665265	 0.118369
H	-4.0560064056	-2.7246128269	 1.724417891	 0.095564
H	-2.8499602544	 0.2581153128	 1.8149708058	 0.074916
73.9636	153.965	177.7632	218.6902	237.2518	288.3135	315.3352	373.3499	512.956	577.7381	641.2776	734.9635	758.0539	771.4888	805.309	843.0461	863.0389	907.8459	921.8323	951.0786	991.7378	1020.3864	1073.6242	1089.7046	1099.8354	1106.6534	1149.6221	1154.8276	1167.5906	1173.7296	1192.5519	1211.7863	1264.9828	1268.3814	1298.5889	1314.7937	1340.2479	1405.0014	1411.4674	1449.126	1472.4713	1492.0939	1497.4857	1500.272	1506.5461	2961.8392	3031.5072	3035.2379	3060.9583	3071.0681	3080.719	3096.7758	3104.5778	3106.755	3108.4346	3119.8975	3393.8255
CCC12NC3C1N(C)C23	CC[C@@]12N[C@H]3[C@@H]1N(C)[C@@H]23	
InChI=1S/C7H12N2/c1-3-7-5-4(8-7)6(7)9(5)2/h4-6,8H,3H2,1-2H3	InChI=1S/C7H12N2/c1-3-7-5-4(8-7)6(7)9(5)2/h4-6,8H,3H2,1-2H3/t4-,5-,6+,7+
