19
gdb 87910	3.48794	1.11936	0.97371	2.0726	76.24	-0.2417	-0.0239	0.2179	1257.7309	0.157862	-423.037533	-423.028908	-423.027964	-423.071005	32.685	
C	-0.136680022	 1.534313581	-0.0315529721	-0.410942
C	-0.0480499374	 0.0317365346	 0.1166636108	-0.076061
C	 1.2322285049	-0.7251577823	-0.2137637561	-0.358484
C	 0.7364084194	-0.6104153535	 1.2083899046	 0.438029
C	 1.5160329728	 0.0905987376	 2.3023588961	-0.418152
C	 1.8946600705	-1.0762069074	 3.2216756895	 0.371643
O	 2.6886801782	-1.0718211838	 4.1223513881	-0.296585
C	 1.0613080749	-2.2731093036	 2.7495960626	-0.192826
O	 0.1481834261	-1.7607176147	 1.7978875051	-0.289601
H	 0.8072625258	 2.0212714879	 0.2331268341	 0.115998
H	-0.3701896179	 1.8100826055	-1.0653440679	 0.123326
H	-0.9190970727	 1.9538290855	 0.6104108956	 0.122593
H	-0.9597371423	-0.5070030353	-0.1288476829	 0.101738
H	 1.1356691333	-1.6897144017	-0.6992279784	 0.120528
H	 2.1056190249	-0.1480688506	-0.5039207987	 0.109804
H	 2.4056760286	 0.6292601269	 1.9730675287	 0.137909
H	 0.886856623	 0.7865748258	 2.8722995823	 0.139831
H	 1.7391579353	-3.0269773964	 2.316512622	 0.122938
H	 0.5122751146	-2.7365172555	 3.5741108266	 0.138314
70.1699	124.4646	151.9941	189.7168	238.5866	345.9243	403.8439	443.7816	462.9138	475.0013	542.6521	629.1377	741.5654	776.2984	823.8615	847.8068	878.4499	908.7305	953.409	1004.9655	1013.7467	1051.2401	1073.4833	1099.9045	1121.5132	1142.2788	1176.1246	1186.3771	1214.3763	1229.6357	1240.2631	1327.7973	1350.482	1409.2465	1423.9218	1448.2873	1474.7374	1487.952	1492.4739	1509.0188	1864.2571	2978.387	3030.2496	3035.6509	3092.5169	3093.3174	3099.4354	3123.633	3124.5834	3146.3068	3218.766
CC1CC11CC(=O)CO1	C[C@H]1C[C@]21CC(=O)CO2	
InChI=1S/C7H10O2/c1-5-2-7(5)3-6(8)4-9-7/h5H,2-4H2,1H3	InChI=1S/C7H10O2/c1-5-2-7(5)3-6(8)4-9-7/h5H,2-4H2,1H3/t5-,7+/m0/s1
