21
gdb 114010	2.30704	1.119	0.83157	3.0146	80.67	-0.2275	0.0282	0.2557	1434.3669	0.181837	-420.401001	-420.390917	-420.389973	-420.437476	35.814	
C	 0.2266792243	 1.3306728984	 0.2508851693	-0.375063
C	 0.138507339	-0.1626083554	 0.5550328264	-0.123614
N	-1.2238602413	-0.637520877	 0.3120783497	-0.070492
C	-1.568394461	-1.075815693	-1.0336118229	-0.257272
C	-1.5035266121	-2.0527888392	 0.0920374579	 0.001459
C	-0.4489259283	-3.1435877448	 0.0873556504	-0.195494
N	-0.0714915866	-3.5865545367	 1.4235380207	-0.269973
C	 1.1722642961	-3.4047225698	 1.9409150551	 0.161845
O	 2.105356579	-2.8873666922	 1.3620957014	-0.327878
H	 1.2286447006	 1.7089712163	 0.474473473	 0.115045
H	 0.0188078257	 1.5281624578	-0.8061420595	 0.114218
H	-0.5006122361	 1.8893446619	 0.8468371428	 0.122866
H	 0.8981111001	-0.705891175	-0.0265192201	 0.103938
H	 0.3684452218	-0.3437310392	 1.6105575267	 0.109016
H	-2.5231054875	-0.7379906512	-1.4286213247	 0.113465
H	-0.7669336447	-1.1306464122	-1.7717364317	 0.107138
H	-2.4450889511	-2.369689178	 0.5440213387	 0.081781
H	-0.8368283279	-3.9986872941	-0.4813479811	 0.114065
H	 0.4736586987	-2.8203314346	-0.3955348294	 0.150273
H	-0.7727578004	-4.0056161716	 2.0138757104	 0.247304
H	 1.2469074918	-3.7960777303	 2.9747884372	 0.077373
33.1982	59.8244	80.0217	147.0105	177.9884	231.1927	267.3036	298.8522	358.4035	375.6264	459.2872	532.3125	554.4989	733.275	764.2643	805.3484	808.9038	913.7509	951.747	987.5362	1012.2067	1032.2133	1049.5613	1092.653	1103.5781	1122.3536	1139.6637	1174.8423	1193.9576	1209.2137	1273.5014	1314.703	1339.8367	1361.6832	1392.6221	1412.4264	1425.5995	1429.7794	1481.2523	1482.6835	1490.1596	1506.3831	1515.4935	1535.9605	1799.9487	2937.7119	2996.9794	3024.4726	3038.1159	3064.7908	3078.2704	3082.2604	3107.7055	3119.3033	3136.3672	3167.7248	3630.8471
CCN1CC1CNC=O	CCN1C[C@H]1CNC=O	
InChI=1S/C6H12N2O/c1-2-8-4-6(8)3-7-5-9/h5-6H,2-4H2,1H3,(H,7,9)	InChI=1S/C6H12N2O/c1-2-8-4-6(8)3-7-5-9/h5-6H,2-4H2,1H3,(H,7,9)/t6-,8?/m1/s1
