19
gdb 8200	2.72361	2.46639	1.62893	1.6539	76.25	-0.2211	0.0206	0.2417	872.9502	0.16563	-327.921832	-327.914059	-327.913115	-327.95314	30.728	
C	-0.0859764819	 1.5119246499	-0.0105154598	-0.493
C	 0.1175281612	 0.0191410572	 0.0012845561	 0.27982
C	 0.4458141105	-0.6879355629	-1.318258824	-0.303513
C	 1.2637153209	-1.885591432	-0.8857022877	-0.080187
C	 1.4567255526	-1.9101712075	 0.4329787554	-0.095088
C	 0.771902897	-0.7565726457	 1.1022448315	 0.26162
C	 1.3284803655	-0.1906155949	 2.3823898265	-0.499921
N	-0.7106671731	-0.8307823276	 0.8942867992	-0.406263
H	 0.760275447	 2.0234656972	-0.4824586249	 0.121686
H	-0.9877037359	 1.7762539629	-0.5758620497	 0.125223
H	-0.2010323387	 1.9158079617	 1.0001423007	 0.112608
H	-0.4670254006	-0.9841398581	-1.849408375	 0.11656
H	 1.0108145624	-0.0322241988	-1.9953760013	 0.098932
H	 1.6129634993	-2.635122499	-1.5869813125	 0.093185
H	 2.002786849	-2.6677629286	 0.983820707	 0.091143
H	 2.3914109058	 0.0525789576	 2.2762833141	 0.12512
H	 0.8041399731	 0.7200176353	 2.687602226	 0.114215
H	 1.2350139093	-0.9149951488	 3.2000987013	 0.125835
H	-1.1542056336	-0.2159003078	 1.5784123671	 0.212026
177.8633	192.2581	204.9473	240.4463	275.7808	348.8865	407.4153	470.9398	516.4421	556.3789	662.64	708.7073	747.4665	784.4391	880.9833	903.7747	947.5603	953.5242	966.7384	978.4041	1042.1887	1064.0246	1092.9354	1101.8089	1115.8497	1168.7975	1199.4627	1261.7529	1301.982	1342.8343	1389.0329	1415.1643	1416.298	1425.9082	1465.2289	1480.5377	1492.0677	1492.9968	1509.1564	1674.7104	3011.4138	3023.7669	3027.6973	3054.165	3082.64	3085.537	3098.7584	3106.0444	3183.3747	3208.5328	3442.7005
CC12CC=CC1(C)N2	C[C@@]12CC=C[C@]1(C)N2	
InChI=1S/C7H11N/c1-6-4-3-5-7(6,2)8-6/h3-4,8H,5H2,1-2H3	InChI=1S/C7H11N/c1-6-4-3-5-7(6,2)8-6/h3-4,8H,5H2,1-2H3/t6-,7+/m0/s1
