22
gdb 6501	3.29717	1.42932	1.14711	1.0507	78.84	-0.2397	0.0823	0.322	1153.4867	0.197291	-350.195954	-350.186235	-350.185291	-350.230443	36.333	
C	-0.1686165782	 1.4978299382	-0.3123946393	-0.380793
C	 0.0462898637	 0.0241499617	 0.0367775208	 0.131596
C	 0.9977898701	-0.660768175	-0.9429202351	-0.381171
O	 0.6202501722	-0.0851114267	 1.3473787419	-0.306363
C	-0.2134502349	-0.5808941317	 2.3579429774	 0.446615
C	-1.2844056156	 0.373425102	 2.8434713802	-0.450383
C	-0.4819496407	-2.0693505236	 2.3650169639	-0.319092
C	 0.4989007878	-1.454248389	 3.346188953	-0.309113
H	 0.7845899645	 2.0349185536	-0.2738145772	 0.121813
H	-0.5817976379	 1.6025129586	-1.321229511	 0.108497
H	-0.8553801143	 1.9767322733	 0.3901996077	 0.115411
H	-0.9187366787	-0.5008331673	 0.0244055326	 0.074609
H	 1.9845653743	-0.1885572069	-0.8992321707	 0.12287
H	 1.1171499066	-1.7186579076	-0.6931085975	 0.114586
H	 0.6254353265	-0.5866130833	-1.9697865082	 0.108632
H	-2.0179618296	 0.5893707206	 2.058971247	 0.11581
H	-1.8262750618	-0.0512602039	 3.6936551408	 0.112633
H	-0.8349241309	 1.3204165881	 3.1601805174	 0.122751
H	-1.4368042041	-2.4246768212	 2.7381169678	 0.10805
H	-0.0663092035	-2.6571625617	 1.554808668	 0.115056
H	 1.5531708729	-1.626519177	 3.1644393066	 0.120481
H	 0.2188635716	-1.3892018814	 4.3919476239	 0.107507
42.0229	76.1945	185.5891	206.485	246.0671	251.2702	301.4732	315.1131	332.4256	373.4037	458.5016	467.7008	519.6325	711.8448	777.3462	823.2673	854.2633	910.0073	923.3312	927.9916	936.9623	956.344	1028.6579	1045.5337	1057.476	1075.938	1123.5308	1145.0688	1148.4015	1187.4942	1205.258	1291.9311	1333.1826	1358.2584	1382.5558	1398.8446	1414.6395	1415.8838	1453.5889	1478.7452	1482.0683	1487.047	1489.6581	1497.3481	1505.9234	1508.2566	3009.0532	3029.8061	3034.5616	3039.7074	3093.4882	3103.9235	3109.4494	3112.2899	3114.671	3120.2618	3132.5394	3138.642	3217.4057	3232.5503
CC(C)OC1(C)CC1	CC(C)OC1(C)CC1	
InChI=1S/C7H14O/c1-6(2)8-7(3)4-5-7/h6H,4-5H2,1-3H3	InChI=1S/C7H14O/c1-6(2)8-7(3)4-5-7/h6H,4-5H2,1-3H3
