12
gdb 130243	3.28922	1.5298	1.04952	3.7091	61.89	-0.2527	-0.0802	0.1725	1027.5022	0.076928	-505.940767	-505.933112	-505.932168	-505.973628	27.968	
N	-0.0062466053	 1.3528937586	 0.0445302085	-0.546653
C	-0.0450507127	-0.0038557512	-0.0242470072	 0.281054
N	-1.1622199366	-0.6439683974	-0.0453100592	-0.178196
O	-1.0649395365	-2.0476751299	-0.1959806961	-0.271519
C	 0.1018366592	-2.6949307704	-0.4518417624	 0.507579
N	 0.1808304399	-3.9004552475	-0.7817382185	-0.520785
O	 1.2721649631	-1.9929193954	-0.291034197	-0.209591
C	 1.2930295194	-0.6596216668	-0.0758513688	 0.439061
O	 2.3246515486	-0.071276757	 0.0754245909	-0.316594
H	 0.8748738094	 1.7520921227	 0.3282551694	 0.287149
H	-0.8523869868	 1.837338999	 0.2975448262	 0.27879
H	-0.7462884617	-4.3116108048	-0.8664724759	 0.249704
42.0353	122.6214	243.0686	309.8433	371.4988	389.072	441.7889	488.1998	503.6441	538.9163	603.0595	686.0887	695.4592	796.1465	815.0224	828.3222	929.8382	973.8564	1067.6505	1143.4621	1236.4102	1305.6282	1456.2489	1608.4076	1689.0326	1773.0568	1863.682	3538.8665	3590.2457	3716.1048
NC1=NOC(=N)OC1=O	NC1=NO[C]([NH])OC1=O	
InChI=1S/C3H3N3O3/c4-1-2(7)8-3(5)9-6-1/h5H,(H2,4,6)	InChI=1S/C3H3N3O3/c4-1-2(7)8-3(5)9-6-1/h5H,(H2,4,6)
