20
gdb 94380	2.81743	1.5461	1.26858	3.0183	78.46	-0.2282	0.0766	0.3047	1060.7419	0.172299	-403.087199	-403.079363	-403.078419	-403.119325	31.721	
O	 0.386942712	 0.7503487803	-0.7444661893	-0.442158
C	 0.0781056967	-0.3111525049	 0.1198473817	 0.125555
C	-0.0635189473	 0.0237369025	 1.6187982101	-0.246357
C	-1.2344417047	-1.0035178882	 1.6746532903	-0.330304
C	-1.3708014622	-0.8543888759	 0.1419360623	 0.361395
C	-2.5113858268	 0.074078688	-0.4131436935	-0.295236
C	-2.8394648687	-1.0172089375	-1.435995088	-0.032312
N	-1.5818853075	-1.282282139	-2.1851193715	-0.351512
C	-1.816552843	-1.9240510081	-0.8568695439	-0.170808
H	 0.1430489749	 0.4412751869	-1.6276675873	 0.288555
H	 0.7765164887	-1.1534023491	-0.0174208806	 0.056844
H	 0.7992910471	-0.1352862432	 2.2684041043	 0.096374
H	-0.4239585784	 1.0484476839	 1.7417149559	 0.113625
H	-0.88726977	-2.0016283233	 1.9601796822	 0.1011
H	-2.105991579	-0.7509104209	 2.2829263683	 0.099751
H	-3.3104699021	 0.2089208226	 0.3204696501	 0.101725
H	-2.2043845005	 1.0415194435	-0.8162688426	 0.114144
H	-3.7980123103	-1.2416206313	-1.8878099981	 0.092872
H	-1.7971456404	-1.9776219822	-2.8992499559	 0.229413
H	-1.8002560588	-3.0028746041	-0.7542510544	 0.087333
106.6107	135.0489	210.1698	286.3362	338.9057	422.9069	428.2788	474.7296	536.2498	589.4717	666.9216	754.4796	798.7972	818.7685	838.7353	862.2949	903.3187	926.3741	937.484	964.0589	980.0754	1000.4597	1074.0861	1080.8948	1098.9712	1102.8793	1141.4616	1173.6536	1179.3089	1198.1342	1224.9182	1244.1655	1253.5951	1265.1951	1269.4026	1300.5131	1330.7915	1361.8055	1374.3185	1429.131	1476.3253	1482.3901	1498.2406	2958.8736	3050.5533	3063.0907	3068.1654	3101.5894	3123.6097	3126.4022	3176.8885	3192.1905	3472.121	3756.4065
OC1CCC11CC2NC12	O[C@H]1CC[C@]21C[C@H]1N[C@@H]21	
InChI=1S/C7H11NO/c9-5-1-2-7(5)3-4-6(7)8-4/h4-6,8-9H,1-3H2	InChI=1S/C7H11NO/c9-5-1-2-7(5)3-4-6(7)8-4/h4-6,8-9H,1-3H2/t4-,5+,6-,7-/m1/s1
