23
gdb 58945	2.49514	1.29548	1.07905	1.2799	85.4	-0.2389	0.0755	0.3145	1263.1216	0.204763	-388.266795	-388.256979	-388.256035	-388.301149	37.615	
C	 0.0434931323	 1.4985675805	-0.1289970397	-0.387081
C	 0.0237529994	-0.0247087302	 0.0819889775	-0.082305
C	 0.8141121247	-0.4225949502	 1.3378218687	-0.390952
C	-1.3987568051	-0.5398129463	 0.1065880961	 0.356482
C	-2.4319043416	-0.2591124709	 1.2156501227	-0.2851
C	-2.9708042263	-1.7167120383	 1.0805296931	-0.218107
C	-1.9603122636	-1.9826305814	-0.0393337474	-0.19237
C	-2.1193845125	-0.9606294143	-1.1312541433	 0.04659
O	-3.3513467498	-0.3810637562	-1.4647187288	-0.427455
H	 1.0703788451	 1.8736808469	-0.1923605625	 0.106201
H	-0.4803692647	 1.7780634859	-1.0481659371	 0.120831
H	-0.4471957757	 2.0143495755	 0.7043436959	 0.116507
H	 0.5205048439	-0.4907747432	-0.7808727924	 0.067263
H	 0.4011617438	 0.0486956785	 2.2364128706	 0.114607
H	 0.7979143456	-1.5065958179	 1.4894051439	 0.111156
H	 1.8593139082	-0.106953527	 1.2544620935	 0.108316
H	-1.9724668982	-0.0778037541	 2.1892887288	 0.098176
H	-3.1418269709	 0.5424076957	 1.0001743742	 0.108949
H	-2.7782738215	-2.3155025621	 1.9730911374	 0.098868
H	-4.0254248319	-1.8204969518	 0.807935973	 0.089909
H	-1.4342549826	-2.916489893	-0.2094547911	 0.076552
H	-1.4597613051	-1.1221926901	-1.9860439729	 0.077951
H	-3.8997729936	-1.0614694459	-1.8692005104	 0.285011
55.7481	129.2617	193.0002	220.355	230.1752	256.589	260.5149	280.9636	307.0571	345.8031	452.1198	520.7354	568.3292	643.2146	759.1962	793.9257	810.2637	859.9085	905.4507	926.8579	952.5885	960.1517	966.4411	1003.0216	1030.1946	1047.9993	1081.1042	1125.6824	1137.4873	1144.5768	1191.5953	1222.1665	1234.06	1244.1455	1253.9272	1296.9644	1315.1891	1331.5826	1340.1744	1376.7402	1396.404	1417.0942	1464.0117	1474.7991	1486.4411	1492.1083	1501.8749	1506.5609	1512.1421	2999.3162	3026.9255	3031.0775	3052.2882	3069.4107	3084.5433	3091.7419	3098.0501	3101.8311	3103.1083	3105.9556	3124.8285	3159.9601	3804.7856
CC(C)C12CCC1C2O	CC(C)[C@]12CC[C@H]1[C@H]2O	
InChI=1S/C8H14O/c1-5(2)8-4-3-6(8)7(8)9/h5-7,9H,3-4H2,1-2H3	InChI=1S/C8H14O/c1-5(2)8-4-3-6(8)7(8)9/h5-7,9H,3-4H2,1-2H3/t6-,7+,8+/m0/s1
