23
gdb 113846	3.35716	0.96758	0.86285	1.6862	86.45	-0.2456	0.08	0.3256	1470.9362	0.205801	-388.26294	-388.253351	-388.252407	-388.298155	35.386	
C	-0.0264453387	 1.4465476061	-0.4927735368	-0.371396
C	-0.0158268887	 0.0821343672	 0.2067323504	-0.21022
C	-1.3829492252	-0.5753771394	 0.2042027676	 0.006294
C	-1.865980659	-1.3825963037	-0.9819637984	-0.297779
C	-1.5894746778	-2.0662900334	 0.3342869754	-0.048443
C	-0.4645335938	-3.0631170361	 0.4747633644	 0.125783
C	-0.735466276	-4.5064672492	-0.0185341227	-0.286445
C	 0.5045451104	-4.286492234	-0.9040981802	-0.061194
O	 0.6087996057	-2.9077214083	-0.4904739642	-0.283855
H	 0.9638175019	 1.9124406582	-0.4687613859	 0.106982
H	-0.3266805044	 1.3476445902	-1.5413379566	 0.115748
H	-0.73039602	 2.1355944518	-0.0119214869	 0.106865
H	 0.7103734302	-0.5790272838	-0.2740418949	 0.131427
H	 0.321360363	 0.2099679515	 1.2444546934	 0.087788
H	-2.1508671349	 0.0241945503	 0.6907738795	 0.074542
H	-2.8916448539	-1.2744208807	-1.3174565054	 0.101182
H	-1.1422851895	-1.5603727177	-1.7706099777	 0.121836
H	-2.4566810264	-2.3685798453	 0.9193191521	 0.081359
H	-0.0564588394	-3.0298921037	 1.4957344793	 0.07405
H	-0.6661771017	-5.2968230867	 0.730092072	 0.106886
H	-1.6708740216	-4.6067675454	-0.5721213322	 0.112838
H	 1.3923245442	-4.8628587641	-0.6137976129	 0.100871
H	 0.3600023356	-4.3789471036	-1.9864865891	 0.104879
66.8044	76.3556	93.4207	123.3486	208.3317	241.5683	246.8361	294.5725	404.2084	523.5449	594.8918	699.2552	759.9434	798.49	801.2857	843.8498	858.3115	918.0238	935.4408	956.0828	978.0944	994.2472	1019.7852	1035.3077	1067.5876	1083.4981	1110.3533	1118.9862	1145.4522	1148.7485	1170.1485	1200.1955	1217.541	1239.6101	1257.7484	1281.0717	1308.6345	1345.3144	1353.1229	1376.7591	1402.9449	1409.0704	1429.2446	1484.6886	1488.2031	1496.259	1498.1788	1509.9852	1530.2966	2988.1654	3014.9094	3015.9582	3027.9642	3058.7163	3078.8251	3082.3816	3100.4399	3102.1422	3113.9203	3123.143	3130.3143	3136.0829	3217.7205
CCC1CC1C1CCO1	CC[C@H]1C[C@H]1[C@H]1CCO1	
InChI=1S/C8H14O/c1-2-6-5-7(6)8-3-4-9-8/h6-8H,2-5H2,1H3	InChI=1S/C8H14O/c1-2-6-5-7(6)8-3-4-9-8/h6-8H,2-5H2,1H3/t6-,7+,8+/m0/s1
