21
gdb 63702	2.58526	1.49784	1.20358	1.4957	78.2	-0.2376	0.071	0.3086	1129.1772	0.180334	-424.202102	-424.192867	-424.191923	-424.235877	35.934	
C	-0.5976378858	 1.4828163391	-0.0171168379	-0.458233
C	 0.0258965939	 0.0961208914	 0.0234540535	 0.407081
O	-0.9538929011	-0.9052741961	-0.2359896329	-0.482164
C	 1.3306120306	-0.1439667687	-0.8142006157	-0.333712
C	 2.031421678	-0.7018686522	 0.4530625733	 0.459879
C	 2.7650996024	-2.0140025	 0.3918823775	-0.477535
O	 2.7867809293	 0.3397439742	 1.1295369535	-0.330359
C	 1.6783057246	 0.6385126485	 2.007602298	-0.104476
C	 0.7654207103	-0.3753153356	 1.306420382	-0.154288
H	 0.1340260654	 2.2675035569	 0.1946364817	 0.123712
H	-1.0073233319	 1.6833638795	-1.0151722954	 0.10683
H	-1.415789161	 1.5579591156	 0.7061331012	 0.123742
H	-1.303676231	-0.7505756089	-1.1208543391	 0.272875
H	 1.1796343048	-0.8716771663	-1.6162104113	 0.093852
H	 1.8204230781	 0.7489736018	-1.2091618171	 0.102067
H	 3.6637980385	-1.916164241	-0.2280664407	 0.125728
H	 3.0748506949	-2.3354718188	 1.3908087414	 0.121235
H	 2.1289783184	-2.7893883967	-0.046190891	 0.123189
H	 1.9131079599	 0.3772208699	 3.0473993785	 0.100592
H	 1.3873488381	 1.695050539	 1.971461964	 0.097325
H	 0.2186183136	-1.0950291017	 1.9136001067	 0.082663
38.8669	207.0722	212.202	224.6727	258.768	296.1362	303.8772	363.6577	373.5096	393.7554	421.0544	494.8032	589.03	667.4996	732.9461	825.3949	859.339	898.8556	915.1375	920.5431	950.683	989.9427	1008.2602	1015.577	1056.2319	1099.3316	1108.9837	1160.7511	1171.5036	1183.9232	1212.1307	1222.494	1255.8241	1295.9484	1325.1396	1350.8281	1373.4892	1406.5794	1409.2331	1448.9598	1481.0952	1488.1174	1488.6855	1492.6575	1527.5319	3011.7123	3024.327	3030.7425	3052.6672	3056.1171	3089.7757	3099.5914	3112.9959	3116.2545	3122.6195	3126.7329	3792.8188
CC1(O)CC2(C)OCC12	C[C@@]1(O)C[C@@]2(C)OC[C@@H]12	
InChI=1S/C7H12O2/c1-6(8)4-7(2)5(6)3-9-7/h5,8H,3-4H2,1-2H3	InChI=1S/C7H12O2/c1-6(8)4-7(2)5(6)3-9-7/h5,8H,3-4H2,1-2H3/t5-,6+,7+/m0/s1
