23
gdb 119146	2.92204	0.94603	0.81307	1.7919	81.56	-0.259	0.0849	0.3439	1540.8921	0.203507	-425.413425	-425.40284	-425.401896	-425.449378	39.165	
C	-0.0014344996	 1.6266456621	-0.1587939647	-0.38321
C	-0.007460207	 0.1010685971	-0.0244764673	-0.184961
C	 0.8544593998	-0.5781032255	-1.093522075	-0.245695
C	 0.7546424805	-2.0945661652	-1.1765803143	 0.353256
C	 0.4396150108	-2.9173186795	 0.0001286673	-0.228367
O	-0.5649599561	-2.6511578049	-0.9872372579	-0.280284
C	 1.454821233	-2.6860252565	-2.4040791599	 0.090644
C	 1.627514815	-4.2038853625	-2.3910480191	-0.424793
O	 0.7374359937	-2.2704905252	-3.5656387498	-0.433921
H	 1.0124318608	 2.0317048425	-0.0643001296	 0.112466
H	-0.3904577251	 1.9380865001	-1.1343901375	 0.117673
H	-0.6199531013	 2.0954802968	 0.6127189414	 0.111323
H	 0.3509034139	-0.1709381344	 0.9760381345	 0.092589
H	-1.0319664205	-0.2779898705	-0.1028037018	 0.117741
H	 0.5854920682	-0.1892818635	-2.0830956128	 0.121067
H	 1.9113758803	-0.3175402737	-0.9430539436	 0.098037
H	 0.7706563096	-3.9511909399	 0.0580779388	 0.112346
H	 0.2742576507	-2.4374392341	 0.9622629333	 0.114244
H	 2.4393208685	-2.2124716494	-2.4985136567	 0.085071
H	 0.6670374065	-4.7001168108	-2.2164026603	 0.12712
H	 2.0084237824	-4.5250032575	-3.363465411	 0.125303
H	 2.333948977	-4.5272699329	-1.6203092987	 0.113394
H	-0.1706260911	-2.5745181028	-3.4421233352	 0.28896
57.2172	65.727	97.496	143.5024	246.1389	253.2468	276.2524	298.8379	314.2614	349.4712	365.1387	412.4576	477.7944	498.2797	627.252	707.1094	750.215	816.7683	861.4295	891.8139	926.2035	929.8966	972.72	1033.7398	1052.9411	1071.1602	1105.166	1122.5969	1129.1478	1153.4609	1180.5303	1198.1796	1269.5836	1290.8612	1318.8807	1331.2458	1372.8159	1388.1782	1400.5454	1410.1677	1416.5516	1423.7653	1484.8819	1492.1905	1495.7631	1499.23	1504.6087	1512.6803	1535.1217	3015.2298	3026.228	3029.571	3037.7576	3043.605	3059.1788	3075.192	3099.4938	3102.945	3104.1892	3110.8008	3124.8583	3186.8832	3780.2403
CCCC1(CO1)C(C)O	CCC[C@]1(CO1)[C@@H](C)O	
InChI=1S/C7H14O2/c1-3-4-7(5-9-7)6(2)8/h6,8H,3-5H2,1-2H3	InChI=1S/C7H14O2/c1-3-4-7(5-9-7)6(2)8/h6,8H,3-5H2,1-2H3/t6-,7+/m1/s1
