14
gdb 24041	4.55256	1.09406	0.88686	3.7468	73.97	-0.262	-0.0658	0.1962	1209.3615	0.103237	-395.790818	-395.783486	-395.782542	-395.824113	26.346	
N	-0.9571760427	 0.0167098043	-1.4551580742	-0.306579
C	-0.4301415751	 0.4961767767	-0.5459550654	 0.27254
C	 0.2372206011	 1.1027425567	 0.6024644521	-0.429084
C	 1.5551977843	 1.7911259716	 0.285690415	 0.305473
N	 2.1656399349	 2.3455267946	 1.3365527275	-0.289095
C	 3.3235124966	 2.9585077243	 1.0993712462	-0.018925
C	 3.8745393995	 3.0209218269	-0.1795481829	-0.006811
N	 3.2698207038	 2.4696473897	-1.2305903595	-0.234419
C	 2.1090419003	 1.8548821318	-0.9938306562	-0.050337
H	-0.4405915813	 1.8293961019	 1.0650695739	 0.180324
H	 0.4131377647	 0.3309439076	 1.3606168021	 0.180327
H	 3.8260478344	 3.4119425607	 1.9497052614	 0.124788
H	 4.8205655805	 3.5250643848	-0.3573639592	 0.125226
H	 1.607068299	 1.4015583582	-1.8434546306	 0.146572
22.2249	128.7695	182.5138	328.5249	371.8569	418.4487	459.2795	474.8411	621.6963	668.0528	775.8514	835.1972	851.5187	947.8695	966.8025	986.5231	1002.0954	1033.9895	1079.881	1199.6207	1218.8236	1225.516	1257.0207	1303.5621	1350.6657	1435.1299	1449.5919	1504.7012	1584.224	1616.4505	2368.2024	3047.0056	3079.9319	3160.1188	3177.2787	3182.088
N#CCC1=NC=CN=C1	N#CCc1nccnc1	
InChI=1S/C6H5N3/c7-2-1-6-5-8-3-4-9-6/h3-5H,1H2	InChI=1S/C6H5N3/c7-2-1-6-5-8-3-4-9-6/h3-5H,1H2
