20
gdb 6866	3.23975	1.80976	1.56636	1.7875	70.32	-0.2449	0.0763	0.3213	921.9499	0.178111	-386.15737	-386.149493	-386.148549	-386.188849	31.452	
C	-0.0352760301	 1.5730536843	 0.0079828768	-0.422496
C	 0.0102804967	 0.050082562	-0.0004894525	 0.369064
O	-1.3424153088	-0.4077289253	 0.0631234607	-0.480393
C	 0.6944502172	-0.4975125357	-1.2726909744	-0.214993
C	 0.8091675054	-2.0280672335	-1.2156309772	-0.227219
C	 1.4223155299	-2.46968428	 0.1149092228	-0.06844
O	 0.7170081659	-1.9198566965	 1.2246599242	-0.261791
C	 0.7610907118	-0.4985433655	 1.2224452475	-0.11715
H	 0.9708754283	 2.0001684062	-0.0478659231	 0.10929
H	-0.6109539316	 1.9344860582	-0.8493241866	 0.125149
H	-0.5222352536	 1.9359223869	 0.9180034746	 0.119342
H	-1.3092228277	-1.2950187941	 0.4419564274	 0.283104
H	 0.1206294394	-0.1848877199	-2.1509728223	 0.101596
H	 1.6948682168	-0.0532088422	-1.3605199903	 0.088678
H	-0.1873407457	-2.4732584284	-1.3168879406	 0.107537
H	 1.4148739641	-2.4069382991	-2.0463024652	 0.096906
H	 1.3811127991	-3.5557585231	 0.2372331771	 0.108133
H	 2.4806179077	-2.1616904998	 0.1666070447	 0.088421
H	 1.8049965542	-0.1452416904	 1.2317550412	 0.085614
H	 0.2705775511	-0.1737566241	 2.1448605051	 0.10965
147.6055	208.0164	224.1277	282.401	313.6602	360.4329	411.3709	437.2366	472.5754	494.9878	518.4824	607.664	746.8908	851.4178	862.5285	899.6043	917.402	928.5014	985.0539	1021.3368	1039.1634	1071.5746	1103.5514	1117.0014	1190.0869	1214.9747	1230.0032	1263.2267	1306.5374	1324.6607	1349.5481	1355.1972	1376.4908	1404.9101	1412.8342	1426.8206	1472.0287	1485.0523	1486.5081	1486.9487	1497.9073	1502.4168	2963.9171	2977.8527	3021.486	3036.6318	3039.0443	3074.9737	3081.7293	3085.7764	3088.9925	3113.3306	3113.984	3775.0231
CC1(O)CCCOC1	C[C@@]1(O)CCCOC1	
InChI=1S/C6H12O2/c1-6(7)3-2-4-8-5-6/h7H,2-5H2,1H3	InChI=1S/C6H12O2/c1-6(7)3-2-4-8-5-6/h7H,2-5H2,1H3/t6-/m1/s1
