17
gdb 29812	2.47989	1.3905	0.90098	6.1563	82.19	-0.2315	-0.0544	0.1771	1267.693	0.135483	-418.061346	-418.052257	-418.051313	-418.095843	31.621	
C	 0.1168036979	 1.4553979608	 0.0451729795	-0.34854
N	 0.0518427729	 0.0013970057	 0.0221088843	-0.023755
C	 0.0981690002	-0.7727644544	-1.1012651076	-0.190497
C	 0.0072967044	-2.0888736692	-0.6818350918	 0.271402
C	 0.0113431119	-3.3284865848	-1.5173837304	-0.489568
N	-0.0931865073	-2.1280941678	 0.6732110754	-0.318844
C	-0.0655579808	-0.8673025993	 1.0873988406	 0.219053
C	-0.1455001751	-0.4084226221	 2.473916632	 0.079538
O	-0.2488071595	-1.1293734145	 3.4385186971	-0.258182
H	 0.9843884294	 1.8011343428	 0.6130506486	 0.157205
H	 0.2079816911	 1.8154652235	-0.9803532002	 0.149736
H	-0.7886654274	 1.8823974394	 0.4839428208	 0.157205
H	 0.189721183	-0.3348754837	-2.0828054644	 0.135572
H	 0.0992867909	-3.0889592921	-2.5804522066	 0.117265
H	 0.8455165591	-3.9817425464	-1.2419511175	 0.142012
H	-0.9094357851	-3.9017425918	-1.3690959729	 0.142022
H	-0.1032662556	 0.6982664338	 2.5907066232	 0.058375
79.1521	80.7606	131.8696	181.6818	183.9506	196.0449	271.8014	347.88	390.2795	534.444	613.5435	654.2978	680.5762	700.2427	768.7572	881.9497	1012.8977	1014.1083	1023.436	1062.3599	1075.9298	1147.3713	1193.2681	1201.8134	1329.8584	1377.7176	1403.9304	1427.4326	1461.3121	1476.4195	1480.0522	1487.1109	1492.3001	1508.2563	1522.9364	1579.5493	1796.12	2867.8103	3039.6571	3052.1435	3098.1557	3118.9027	3118.9883	3145.733	3257.3506
CN1C=C(C)N=C1C=O	Cn1cc(C)nc1C=O	
InChI=1S/C6H8N2O/c1-5-3-8(2)6(4-9)7-5/h3-4H,1-2H3	InChI=1S/C6H8N2O/c1-5-3-8(2)6(4-9)7-5/h3-4H,1-2H3
