17
gdb 128122	1.90824	1.70458	0.94156	2.9793	72.69	-0.2021	-0.0099	0.1922	1219.0707	0.136363	-455.119714	-455.110844	-455.109899	-455.153824	31.825	
C	-0.3149297366	 1.3066124405	-0.1012327806	-0.330377
N	 0.0888443708	-0.0806153789	 0.0555212925	-0.397768
C	 0.6634704461	-0.7309485146	-1.0283584397	 0.124384
C	 0.7493852434	-2.0804607081	-1.246114344	 0.296175
C	 0.219876981	-3.2358822263	-0.4656852993	-0.197201
O	-1.0996175695	-2.9782323022	 0.0182076472	-0.408823
O	 1.4267281244	-2.3156133522	-2.3956448687	-0.212821
N	 1.8068037609	-1.1143908887	-2.957411846	-0.1446
C	 1.3517146558	-0.1830926179	-2.150070543	-0.029693
H	 0.5634826685	 1.9370916919	-0.2752928323	 0.133815
H	-1.0231729564	 1.4749526461	-0.9286841159	 0.111361
H	-0.7807788717	 1.6452503998	 0.8269219079	 0.130412
H	-0.6034224763	-0.6629197871	 0.5079399493	 0.246195
H	 0.2680407145	-4.1458102493	-1.0788768376	 0.126009
H	 0.817998545	-3.4142454779	 0.4353204887	 0.136836
H	-1.6685285538	-2.8605328423	-0.7508575851	 0.289754
H	 1.5297936939	 0.8539039771	-2.3949706735	 0.126342
66.4678	110.977	144.7688	175.2584	198.7825	258.3035	338.3173	376.2303	430.5882	471.9911	617.2955	631.7341	693.7377	718.3624	788.0692	884.7527	947.0743	959.6893	974.287	1045.4847	1072.0546	1131.4146	1152.3387	1174.0968	1215.3187	1244.1133	1270.4912	1373.4963	1408.0204	1440.4337	1473.0274	1481.9184	1491.6306	1494.8754	1517.2244	1529.8904	1686.0884	2972.541	3018.516	3063.8804	3066.2789	3120.8717	3248.5543	3575.51	3801.7619
CNC1=C(CO)ON=C1	CNc1c(CO)onc1	
InChI=1S/C5H8N2O2/c1-6-4-2-7-9-5(4)3-8/h2,6,8H,3H2,1H3	InChI=1S/C5H8N2O2/c1-6-4-2-7-9-5(4)3-8/h2,6,8H,3H2,1H3
