23
gdb 120294	3.11629	0.89468	0.80967	1.3942	86.49	-0.2412	0.081	0.3222	1535.3834	0.205164	-388.261535	-388.251669	-388.250725	-388.296606	36.956	
C	-0.1305183508	 1.5556761037	 0.1038796403	-0.495694
C	-0.0273701367	 0.0580936329	 0.0356820035	 0.325433
C	-1.2463415431	-0.8819954894	 0.0238247383	-0.283438
C	-0.478923745	-1.8790191531	 0.9485930651	-0.226859
C	 0.72792046	-0.9331478194	 0.9397614656	-0.113421
C	 1.2017359272	-0.6542510913	-0.4691838508	-0.050287
C	 1.2566156486	-1.666633377	-1.5953555305	-0.215108
C	 2.499603639	-2.5468272108	-1.5189741712	-0.06289
O	 2.4742383721	-3.4380666882	-2.6246502415	-0.422719
H	 0.839906891	 2.0126167533	 0.3256534985	 0.114269
H	-0.481174039	 1.9754400377	-0.8475427256	 0.117839
H	-0.8350342767	 1.8729996493	 0.8819716141	 0.112565
H	-2.1092459055	-0.4388411502	 0.52802858	 0.097372
H	-1.5752718731	-1.2507279899	-0.9532598838	 0.094877
H	-0.9409340577	-1.9628694652	 1.934690647	 0.099688
H	-0.3129370717	-2.8903460875	 0.5626616827	 0.096378
H	 1.3585933895	-0.7241727357	 1.7973437896	 0.074545
H	 2.0632488107	 0.0143801992	-0.4664902186	 0.075149
H	 0.3779520838	-2.3184333822	-1.5939149242	 0.108373
H	 1.2566953935	-1.1507464374	-2.5637088764	 0.102018
H	 3.4041533682	-1.9162024108	-1.5371307991	 0.079671
H	 2.5057581643	-3.0938918391	-0.5624994237	 0.08864
H	 3.2525374512	-4.0004023888	-2.5752568795	 0.283599
57.0798	88.7937	124.2908	201.5426	217.0832	249.1379	264.3364	277.0847	316.92	380.7947	465.2429	560.0053	618.5296	723.1263	785.0228	801.9163	817.5263	887.9006	932.1221	949.8517	957.9412	989.522	996.9307	1025.9931	1062.2514	1075.9075	1103.9688	1115.2152	1147.8083	1158.5438	1212.9697	1224.8215	1235.1561	1242.7051	1249.8171	1270.1181	1304.1501	1316.6724	1323.4898	1358.1022	1414.3746	1459.0482	1471.9261	1479.2386	1485.8657	1495.5421	1499.49	1512.0455	1526.8949	2958.5828	2986.5856	3014.5569	3034.7993	3041.081	3048.4119	3070.7508	3084.2181	3087.4102	3089.6439	3104.8185	3107.7025	3163.2551	3830.07
CC12CCC1C2CCO	C[C@]12CC[C@H]1[C@H]2CCO	
InChI=1S/C8H14O/c1-8-4-2-6(8)7(8)3-5-9/h6-7,9H,2-5H2,1H3	InChI=1S/C8H14O/c1-8-4-2-6(8)7(8)3-5-9/h6-7,9H,2-5H2,1H3/t6-,7+,8-/m0/s1
