20
gdb 13148	3.58868	1.12001	0.94994	2.2572	70.94	-0.2547	0.0755	0.3302	1256.1616	0.176663	-386.120208	-386.111242	-386.110298	-386.153999	32.957	
O	-0.3137865744	 1.4446124621	 0.4118210199	-0.422071
C	-0.1039487232	 0.0701873947	 0.1227517703	-0.078576
C	-1.4634213471	-0.6173842284	 0.1119109388	-0.192664
C	-1.3709474872	-2.1198435305	-0.1506309154	-0.039959
C	-0.981076341	-2.979374792	 1.0920802122	-0.230588
C	-2.4852158875	-3.2883062745	 1.328891072	-0.258542
C	-2.7541939376	-2.8527817331	-0.1342196595	 0.152732
O	-3.9304473804	-2.1608084755	-0.4655882635	-0.429259
H	 0.5406954356	 1.8854784942	 0.4134409012	 0.28541
H	 0.3820336228	-0.0629464746	-0.8576940803	 0.086252
H	 0.5502159019	-0.398675876	 0.8753797575	 0.087027
H	-1.9493883412	-0.4158684957	 1.0763763856	 0.094756
H	-2.0839302576	-0.1456962237	-0.6593437477	 0.113526
H	-0.7742660675	-2.2938440542	-1.0527164969	 0.063225
H	-0.4124655495	-3.8713910171	 0.8177148095	 0.102757
H	-0.4501088673	-2.4672207369	 1.8982516302	 0.099162
H	-2.7711337709	-4.3013171511	 1.6211208227	 0.100082
H	-2.9350402714	-2.5857836602	 2.0387207141	 0.096105
H	-2.7288776694	-3.716711359	-0.8050541801	 0.089029
H	-4.0239314072	-1.4191454688	 0.1412343793	 0.281596
87.636	106.3808	131.0078	147.7212	261.2761	265.4782	321.5254	332.9962	412.7938	458.4182	556.1151	653.6031	753.4466	798.111	870.4919	897.4841	929.1181	963.1476	968.6313	1024.5753	1060.9342	1079.2575	1084.6432	1144.3654	1154.6477	1196.0214	1224.4689	1226.2985	1243.3411	1257.1463	1275.398	1291.4037	1314.3567	1323.6334	1324.3795	1388.354	1437.0037	1460.7961	1480.6258	1492.1584	1503.4798	1527.3876	2962.0423	2988.1715	3014.7516	3038.4188	3049.1261	3061.7043	3066.7304	3069.8636	3101.8968	3117.1851	3815.6514	3830.6513
OCCC1CCC1O	OCC[C@H]1CC[C@H]1O	
InChI=1S/C6H12O2/c7-4-3-5-1-2-6(5)8/h5-8H,1-4H2	InChI=1S/C6H12O2/c7-4-3-5-1-2-6(5)8/h5-8H,1-4H2/t5-,6-/m1/s1
