15
gdb 48308	3.8388	0.7617	0.66832	1.6694	68.92	-0.2694	-0.054	0.2153	1565.5386	0.110845	-453.991265	-453.981933	-453.980989	-454.026868	31.109	
O	-0.2405237221	-0.0073302264	 0.0117292126	-0.249225
C	-0.0859634078	 1.1788752712	-0.010222353	 0.162207
N	 1.1440911947	 1.8612529448	-0.0068434906	-0.086883
C	 1.1246359497	 3.3198591945	 0.0226155149	-0.212991
C	 1.1302118506	 3.8721632455	 1.4670020218	-0.332573
C	 1.1106697926	 5.3319531686	 1.4838550719	 0.260646
N	 1.0948791723	 6.4867839722	 1.4615965006	-0.286383
C	 2.3918714711	 1.2123643784	-0.0327908977	 0.162209
O	 2.5787955817	 0.0307690225	-0.014190129	-0.249228
H	-0.9260667839	 1.9021928105	-0.0448366024	 0.092078
H	 1.9923440668	 3.7004528599	-0.521495525	 0.155301
H	 0.2372927965	 3.6767466373	-0.5056671868	 0.155304
H	 0.260073788	 3.4932876725	 2.0142560626	 0.168727
H	 2.0199861641	 3.51703898	 1.9983807608	 0.168728
H	 3.2113443358	 1.9581078085	-0.0826901507	 0.092081
54.5502	67.9014	92.2175	145.4911	173.4311	230.7829	258.4447	373.2971	390.9461	415.326	500.9265	526.0751	735.6293	763.6128	952.9365	959.8779	1015.3308	1022.6638	1035.4359	1039.9545	1177.8399	1208.7399	1301.4151	1310.1512	1375.7891	1404.8192	1446.8141	1458.1225	1470.948	1503.398	1806.8915	1883.5871	2367.1675	2917.4762	2928.0358	3050.1696	3076.3145	3089.3912	3123.6373
O=CN(CCC#N)C=O	O=CN(CCC#N)C=O	
InChI=1S/C5H6N2O2/c6-2-1-3-7(4-8)5-9/h4-5H,1,3H2	InChI=1S/C5H6N2O2/c6-2-1-3-7(4-8)5-9/h4-5H,1,3H2
