20
gdb 69725	3.60587	1.61424	1.41483	1.5507	81.95	-0.2195	0.0995	0.3191	991.443	0.172892	-365.929543	-365.922574	-365.92163	-365.960375	29.603	
C	-0.0175975471	 1.5154839368	 0.0275456817	-0.483941
C	-0.0091743528	 0.0080074756	-0.0038490162	 0.329057
C	-0.6311021474	-0.8259248622	 1.1011165166	-0.350388
C	 0.8557057115	-0.8822801608	 0.8553239433	-0.047083
N	 1.3968797295	-1.9130902293	-0.0524361784	-0.14331
C	 0.2826944171	-2.2531704482	-1.0520816019	-0.028244
C	 1.3535656569	-2.4281385437	-2.1417070723	-0.251162
C	 1.7118070288	-1.1591533738	-1.3604212398	-0.011141
C	 0.1970887175	-0.7236403423	-1.3273736425	-0.091221
H	 0.8202269227	 1.9303663522	-0.545639464	 0.114763
H	-0.9422016594	 1.9260232589	-0.3957370809	 0.116852
H	 0.0659141521	 1.8889207974	 1.053361983	 0.115952
H	-0.9415395299	-0.2880236651	 1.9924690565	 0.10605
H	-1.261293465	-1.6769932327	 0.8692798907	 0.111834
H	 1.5502481607	-0.5119822966	 1.600855582	 0.088977
H	-0.5202108963	-2.9447318789	-0.793346324	 0.079903
H	 2.026978947	-3.2766244984	-2.0145045164	 0.108117
H	 1.0279102349	-2.2996748651	-3.1752328197	 0.094676
H	 2.5942094147	-0.5208408687	-1.4426132753	 0.078028
H	-0.3003754257	-0.347914245	-2.2255967723	 0.062281
195.0378	199.0483	251.9455	335.7955	405.1296	449.7104	514.9794	577.3625	681.6466	734.0967	797.7135	801.4586	821.7127	859.176	888.2288	914.1115	929.9355	953.3784	961.4609	974.4481	1011.8041	1040.9446	1044.2355	1066.258	1096.4765	1103.3732	1113.5174	1135.3201	1136.2747	1159.7519	1174.9503	1221.0053	1224.5708	1237.4834	1281.9705	1294.066	1317.322	1393.4711	1418.8954	1487.0286	1492.1735	1498.1309	1502.3595	3018.4012	3074.4509	3074.8032	3077.2418	3091.4535	3093.5257	3102.872	3128.3742	3147.8604	3174.5462	3209.3261
CC12CC1N1C3CC1C23	C[C@]12C[C@H]1N1[C@@H]3C[C@H]1[C@H]23	
InChI=1S/C8H11N/c1-8-3-6(8)9-4-2-5(9)7(4)8/h4-7H,2-3H2,1H3	InChI=1S/C8H11N/c1-8-3-6(8)9-4-2-5(9)7(4)8/h4-7H,2-3H2,1H3/t4-,5+,6-,7-,8+/m1/s1
