21
gdb 109247	3.1376	1.28293	1.1217	1.6706	83.64	-0.2265	0.0124	0.2389	1195.2583	0.184146	-387.084706	-387.076602	-387.075658	-387.117359	32.073	
C	-0.2525620167	 1.526660357	-0.0442553314	-0.373815
C	 0.0994255908	 0.0298590455	 0.0329676533	-0.304295
C	 0.7811705165	-0.4846239833	-1.2022756211	 0.367561
C	 2.0386324379	-0.9312642644	-1.2631050143	-0.184027
C	 2.5986016337	-1.4085871909	-2.5877004354	-0.258499
C	 1.5240372323	-1.2388528024	-3.6711854051	 0.091156
C	 0.8742914316	 0.16258948	-3.6296221365	-0.241972
C	 0.030057772	-0.5205366173	-2.5283245898	-0.007331
O	 0.2786179651	-1.8087321388	-3.1719105175	-0.295102
H	 0.651239845	 2.1335673546	-0.157601224	 0.119451
H	-0.9072304131	 1.7426610258	-0.8953846978	 0.118898
H	-0.7712142083	 1.8527905624	 0.8625310835	 0.114959
H	 0.7399261035	-0.1504703624	 0.9036147541	 0.100662
H	-0.8251979911	-0.5410495923	 0.2005802894	 0.105551
H	 2.6715547831	-0.9785254928	-0.3803294755	 0.082556
H	 3.5048391221	-0.8488900677	-2.8582826906	 0.102891
H	 2.8949142666	-2.4640338083	-2.522226201	 0.113565
H	 1.8160029473	-1.6623827397	-4.6358875951	 0.07327
H	 1.483814261	 1.0261022788	-3.3570963546	 0.098863
H	 0.2945819847	 0.3592892105	-4.5332270099	 0.105501
H	-1.037447944	-0.3028214543	-2.4428613707	 0.070157
86.0385	115.2233	212.6826	268.0335	314.0587	350.3524	373.4952	458.2151	477.1684	633.0581	676.6189	764.4412	785.9046	824.8719	836.3311	872.3361	895.3852	940.1571	957.7429	962.4105	965.648	1003.2396	1060.5626	1070.1145	1091.8185	1094.3096	1122.7834	1172.4674	1190.1037	1224.6521	1251.9099	1269.3313	1299.2207	1325.4886	1337.5565	1357.4919	1370.4015	1375.1024	1407.7968	1466.6498	1479.0189	1486.6228	1499.2136	1506.5254	1722.1318	3005.0316	3010.0741	3033.6451	3039.5699	3059.3891	3067.2809	3075.5932	3083.0134	3102.9471	3108.8713	3135.5507	3154.9926
CCC1=CCC2CC1O2	CCC1=CC[C@@H]2C[C@H]1O2	
InChI=1S/C8H12O/c1-2-6-3-4-7-5-8(6)9-7/h3,7-8H,2,4-5H2,1H3	InChI=1S/C8H12O/c1-2-6-3-4-7-5-8(6)9-7/h3,7-8H,2,4-5H2,1H3/t7-,8-/m1/s1
