16
gdb 17479	3.517	2.53561	1.99457	1.1234	67.77	-0.2253	0.0157	0.2411	723.4339	0.131492	-346.569037	-346.562779	-346.561835	-346.598876	26.059	
O	-0.0978795152	 1.4229006612	 0.0002909933	-0.498901
C	-0.0196716217	 0.0283748766	 0.0556515166	 0.378221
C	 0.3258416038	-0.7596662288	-1.2775513781	-0.284149
C	-0.8383098522	-1.6914522789	-0.9631266612	-0.071851
C	-0.9025914638	-2.0643069064	 0.5455216039	-0.08425
C	 0.3068703087	-1.8430772692	 1.3877987797	-0.075795
C	 0.7881383454	-0.6163019587	 1.1644081073	-0.178323
C	-1.3871499866	-0.7263572255	 0.0568820364	-0.10759
H	 0.7961653728	 1.7764913155	-0.0552092078	 0.27799
H	 0.074003946	-0.126846398	-2.1327284582	 0.107733
H	 1.3352806402	-1.1709227928	-1.3869576562	 0.083835
H	-1.3747781779	-2.2985660958	-1.6824251394	 0.087871
H	-1.6234988751	-2.835940526	 0.7897955261	 0.084883
H	 0.7401160807	-2.6002774628	 2.0295573276	 0.098342
H	 1.706767732	-0.1934543467	 1.5556534389	 0.089292
H	-2.3713045372	-0.2974305237	 0.1976400111	 0.092693
172.3993	309.5708	314.189	391.1628	431.8366	550.3067	606.4689	712.5804	721.5303	745.2287	764.4909	787.4895	829.1446	907.5553	927.9266	933.4081	964.2052	975.6907	1001.6302	1025.2881	1043.2264	1073.2742	1107.6959	1119.6023	1151.6395	1206.8236	1239.6242	1257.7379	1300.0254	1354.5429	1370.4106	1383.6053	1481.4404	1644.3226	3035.5773	3106.4294	3176.372	3181.369	3187.8652	3197.5994	3216.8304	3810.3433
OC12CC3C(C=C1)C23	O[C@@]12C[C@H]3[C@@H](C=C1)[C@@H]23	
InChI=1S/C7H8O/c8-7-2-1-4-5(3-7)6(4)7/h1-2,4-6,8H,3H2	InChI=1S/C7H8O/c8-7-2-1-4-5(3-7)6(4)7/h1-2,4-6,8H,3H2/t4-,5+,6-,7-/m1/s1
