20
gdb 101059	2.25036	1.18142	1.03151	3.2239	79.69	-0.2793	0.0242	0.3035	1300.8125	0.169374	-403.156721	-403.146735	-403.145791	-403.191757	36.49	
C	-0.0527685635	 1.5975378739	-0.0961817146	-0.384358
C	-0.1582559093	 0.07333292	-0.1837995153	-0.202536
C	 0.8388607798	-0.5343338014	-1.1786631694	 0.044643
O	 2.1817979467	-0.2005746362	-0.8671526464	-0.430558
C	 0.6715311577	-2.051460957	-1.3267580041	 0.186901
C	-0.3611542374	-2.5984195355	-2.299954492	-0.297287
C	 1.0965914851	-2.7081338537	-2.6291338931	-0.30091
C	 0.9129932969	-2.7868952462	-0.1109252508	 0.231774
N	 1.1309850748	-3.3347547818	 0.8854519973	-0.355368
H	 0.962251355	 1.8998482376	 0.1733568063	 0.130858
H	-0.2941422654	 2.0665098083	-1.0566444909	 0.113944
H	-0.7427485491	 1.9957840424	 0.6530733272	 0.115189
H	 0.0150767206	-0.3749677507	 0.8038854308	 0.114771
H	-1.1721704383	-0.2227672722	-0.4792694192	 0.102327
H	 0.6663545451	-0.0983023835	-2.1708209809	 0.087977
H	 2.3784985547	-0.5476817137	 0.0116879416	 0.292032
H	-0.8969536549	-3.4957799716	-2.0150895721	 0.140895
H	-0.9594112986	-1.8634776619	-2.8277497168	 0.130355
H	 1.5158935343	-2.0463127046	-3.3784616233	 0.137825
H	 1.5639421258	-3.6836273926	-2.5715126943	 0.141526
63.7165	92.4304	136.0482	159.1242	212.08	226.2766	252.6898	288.1218	333.8539	386.4497	442.8317	492.1645	579.5329	603.3294	736.6935	778.6863	793.9642	873.4741	907.7871	947.4721	967.184	981.2318	991.9421	1066.185	1068.8398	1091.9042	1110.5857	1137.0605	1192.7106	1242.6935	1266.7567	1281.2991	1335.7	1356.7488	1391.8332	1408.5861	1423.7567	1469.1013	1484.6815	1495.2227	1497.2923	1508.7497	2341.535	3020.2864	3034.9009	3038.7993	3062.9685	3104.7908	3126.1927	3141.5959	3146.9612	3227.1439	3241.4345	3783.3627
CCC(O)C1(CC1)C#N	CC[C@@H](O)C1(CC1)C#N	
InChI=1S/C7H11NO/c1-2-6(9)7(5-8)3-4-7/h6,9H,2-4H2,1H3	InChI=1S/C7H11NO/c1-2-6(9)7(5-8)3-4-7/h6,9H,2-4H2,1H3/t6-/m1/s1
