16
gdb 68736	2.42845	1.70967	1.35266	1.9921	76.82	-0.2247	0.0272	0.2519	992.5621	0.122571	-400.640962	-400.632845	-400.631901	-400.673353	31.486	
O	-0.0970721675	 1.4633543771	-0.0753132586	-0.451354
C	-0.0557401415	 0.0870589247	-0.0798786133	 0.321394
C	-0.2628989732	-0.7643744088	 1.1426555954	-0.405994
C	-1.2032347258	-0.9552723988	-0.0304707547	 0.108324
C	-2.6125001899	-0.8036039164	 0.0221188513	 0.256718
C	-3.8084673766	-0.6689309428	 0.0435324143	-0.423528
N	-0.5277113689	-1.8170776557	-1.037538204	-0.155782
C	-0.4484993873	-0.9987702489	-2.2622206021	-0.245155
C	 0.5387197479	-0.735037046	-1.1876119408	-0.102465
H	 0.3498735635	 1.7879031216	 0.7129590132	 0.293904
H	 0.4261518343	-1.565410457	 1.3983474802	 0.124058
H	-0.710591059	-0.246499708	 1.986011271	 0.128982
H	-4.8640004277	-0.5574347074	 0.0681323938	 0.190811
H	-0.1053442879	-1.5625940749	-3.1242219819	 0.123805
H	-1.2366364146	-0.2777789065	-2.4602064866	 0.136095
H	 1.5872510542	-1.0005327023	-1.2829483973	 0.100186
109.6087	136.1092	160.4533	250.2785	312.6111	370.3997	442.2535	501.8603	549.4908	560.0321	597.8135	604.4872	671.6374	698.0427	772.2001	804.8192	834.3915	845.1578	971.026	977.0706	1024.8163	1053.0302	1078.9868	1106.0489	1119.8546	1149.9196	1188.4797	1218.3253	1277.0096	1308.1892	1363.3932	1409.1464	1482.7354	1496.3586	2231.2038	3109.7993	3120.4313	3160.5999	3205.6447	3213.0935	3502.6238	3813.0243
OC12CC1(C#C)N1CC21	O[C@@]12C[C@]1(C#C)N1C[C@@H]21	
InChI=1S/C7H7NO/c1-2-6-4-7(6,9)5-3-8(5)6/h1,5,9H,3-4H2	InChI=1S/C7H7NO/c1-2-6-4-7(6,9)5-3-8(5)6/h1,5,9H,3-4H2/t5-,6-,7+,8?/m0/s1
