16
gdb 60677	2.01709	1.53737	1.17281	4.2389	71.67	-0.2494	-0.0462	0.2032	1108.2683	0.120465	-437.813819	-437.804168	-437.803223	-437.848684	34.221	
O	 0.1068155566	 1.4909994215	 0.0376954125	-0.458724
C	 0.1178793801	 0.0673471538	-0.0647736624	 0.061544
C	-1.3763277696	-0.3575210504	-0.1195667082	 0.150018
O	-1.7972881404	-1.3960536075	 0.3016719312	-0.230853
C	 0.7269923345	-0.3688485124	-1.3197971398	 0.302283
C	 1.214719411	-0.7065785564	-2.3659456136	-0.473056
C	 0.8069540136	-0.5755890271	 1.1416622911	 0.010256
C	 2.0748407513	-0.0117399002	 1.6507932496	-0.247072
N	 0.8236131507	 0.1394076181	 2.4176557581	-0.327059
H	 0.7634600113	 1.8463909065	-0.5691319618	 0.301783
H	-2.0132023743	 0.4129164455	-0.602787198	 0.10397
H	 1.6536549523	-1.0157420881	-3.2831405331	 0.215858
H	 0.6097585365	-1.6403771298	 1.2132717569	 0.123159
H	 2.8180237688	-0.6650572825	 2.0977052632	 0.123699
H	 2.4789728655	 0.865475323	 1.1519713828	 0.101507
H	 0.467264822	 1.0814278561	 2.2646642812	 0.242688
67.7545	80.3452	132.6411	162.1986	178.5402	195.3218	280.839	307.5868	393.9973	470.6818	476.1033	550.4082	632.5936	666.081	681.9191	707.6685	855.8586	888.7217	939.5641	969.5354	978.048	1053.5392	1090.5642	1114.5331	1136.1558	1155.0162	1211.9427	1280.4269	1304.7956	1332.749	1382.5414	1401.5439	1506.4125	1848.5555	2224.9636	2920.589	3111.0738	3168.5517	3197.2172	3490.4688	3496.2772	3833.8286
OC(C=O)(C#C)C1CN1	O[C@@](C=O)(C#C)[C@H]1CN1	
InChI=1S/C6H7NO2/c1-2-6(9,4-8)5-3-7-5/h1,4-5,7,9H,3H2	InChI=1S/C6H7NO2/c1-2-6(9,4-8)5-3-7-5/h1,4-5,7,9H,3H2/t5-,6-/m1/s1
