18
gdb 84207	3.84137	1.64453	1.51951	2.2229	80.26	-0.2071	-0.0462	0.1609	924.7547	0.148619	-364.676831	-364.670158	-364.669213	-364.707534	27.895	
C	-0.1704053631	 1.5821173741	-0.0734447661	-0.408298
C	-0.0489499255	 0.0576688221	-0.023008246	-0.020025
C	 0.8244201444	-0.4671970979	-1.17756904	-0.118301
C	 1.6012432123	-1.446799153	-0.6784609109	 0.04169
C	 2.9183567281	-1.2053580041	 0.0301379114	-0.090263
C	 2.3487138296	-0.4306868812	 1.2294185998	-0.058957
C	 0.7819433648	-0.5327525303	 1.179295452	-0.042959
C	 1.1221207027	-1.9454940838	 0.6992538481	-0.040871
N	 2.5482258227	-1.926111491	 1.2695005137	-0.166596
H	 0.8151086514	 2.0534199354	-0.1564141499	 0.121511
H	-0.7727323167	 1.9060012673	-0.9279438835	 0.122274
H	-0.6468182801	 1.9595298531	 0.8374522534	 0.119285
H	-1.0591467814	-0.3732350037	 0.0399109044	 0.086402
H	 1.1383196625	 0.2079338283	-1.9689987714	 0.098157
H	 3.9449843366	-1.0944713652	-0.3019743384	 0.101217
H	 2.9540612814	 0.2289861726	 1.8422038367	 0.096926
H	 0.3360817387	-0.4078620387	 2.1709504384	 0.072397
H	 0.5005914416	-2.8291275741	 0.8312997884	 0.086409
130.8195	230.2874	267.8074	363.0757	484.9638	519.309	574.2424	649.1072	737.582	766.0287	778.48	811.9709	824.8781	832.9643	879.4796	911.8342	919.4289	941.5177	979.2413	999.647	1021.8077	1034.4926	1050.1962	1086.2223	1120.9125	1130.1939	1159.1343	1181.2698	1213.8513	1234.9888	1243.9797	1278.1034	1304.7514	1318.1829	1338.8473	1405.8018	1492.4461	1499.2086	1589.611	2988.3514	3030.2739	3069.5939	3098.7927	3105.003	3133.7196	3161.656	3165.8309	3176.2451
CC1C=C2C3C4C1C2N34	C[C@H]1[CH][C]2[C@H]3[C@H]4[C@@H]1[C@@H]2N34	
InChI=1S/C8H9N/c1-3-2-4-6-5(3)8-7(4)9(6)8/h2-3,5-8H,1H3	InChI=1S/C8H9N/c1-3-2-4-6-5(3)8-7(4)9(6)8/h2-3,5-8H,1H3/t3-,5-,6+,7-,8+,9?/m0/s1
