15
gdb 124902	3.76108	1.28063	1.07956	1.7814	65.97	-0.276	-0.0358	0.2402	1094.8494	0.112322	-453.922493	-453.9148	-453.913855	-453.955524	27.92	
C	-0.0526192827	 1.5151478362	 0.002393614	-0.473604
C	-0.0386878367	 0.0066930996	-0.0670185056	 0.285987
C	 0.7760007394	-0.7151246582	-1.0546991733	-0.215112
O	 1.2017101061	-0.6207072824	 0.3061084935	-0.261233
C	-1.2417242674	-0.6731252982	 0.4915101962	 0.358788
N	-1.7630233333	-1.7488392997	-0.0389537668	-0.179264
O	-2.8267724153	-2.0543119358	 0.8153657891	-0.150336
C	-2.8262590732	-1.1105763596	 1.7574690734	 0.10511
N	-1.8911565477	-0.2268303216	 1.6270910262	-0.312475
H	 0.8926142098	 1.9097425389	-0.3764816406	 0.130886
H	-0.8734516574	 1.9244919874	-0.5954141191	 0.129339
H	-0.1886110473	 1.8462014052	 1.0350376667	 0.153435
H	 0.4742409075	-1.7064402232	-1.3834108499	 0.141398
H	 1.3593126292	-0.1352420617	-1.7686439896	 0.115622
H	-3.589968271	-1.1738799769	 2.5187262358	 0.17146
40.8145	148.481	192.4945	206.0676	318.385	353.5924	417.5416	499.1777	560.3798	635.0238	785.2242	800.3878	879.8629	904.8775	916.6556	933.8392	986.9052	994.3128	1031.845	1103.7799	1137.6915	1144.5679	1169.7077	1200.1966	1304.9934	1339.6385	1406.3309	1419.2245	1477.5108	1491.9285	1519.9282	1535.4394	1593.2518	3047.0246	3092.9229	3118.1658	3138.3345	3189.1145	3268.0145
CC1(CO1)C1=NOC=N1	C[C@]1(CO1)c1nocn1	
InChI=1S/C5H6N2O2/c1-5(2-8-5)4-6-3-9-7-4/h3H,2H2,1H3	InChI=1S/C5H6N2O2/c1-5(2-8-5)4-6-3-9-7-4/h3H,2H2,1H3/t5-/m0/s1
