19
gdb 87483	4.04223	1.12178	1.03117	2.8582	77.3	-0.2294	0.0718	0.3012	1221.1429	0.157511	-422.923912	-422.915508	-422.914564	-422.956554	32.904	
C	-0.0962998961	 1.5540376343	-0.0250293131	-0.437743
C	-0.011785174	 0.04020723	 0.0017297554	 0.04235
C	 1.2514415068	-0.6597663801	-0.5908840732	-0.053528
O	 2.0462762888	-0.1374076055	 0.5521302102	-0.310132
C	 0.7888435634	-0.6548079332	 1.146231783	-0.076575
C	 0.9322207614	-1.8939944276	 0.2556399109	 0.464857
C	 0.1536678332	-3.1520710706	 0.026728927	-0.426771
C	 1.6366785415	-3.180089158	 0.4082133963	-0.022002
O	 2.5830789133	-3.4920104092	-0.5710408739	-0.41997
H	 0.8697261837	 1.9945012979	 0.2293320319	 0.138631
H	-0.3926497884	 1.9091687929	-1.0180208015	 0.114132
H	-0.8451198886	 1.9149783309	 0.6885058645	 0.113146
H	-0.9601881397	-0.4450118576	-0.2503065432	 0.073834
H	 1.693044449	-0.5970539093	-1.5849713237	 0.100568
H	 0.6725178585	-0.5814397697	 2.2285635203	 0.09109
H	-0.5791538659	-3.4704613541	 0.7622118829	 0.112815
H	-0.0834330517	-3.414762605	-0.9998992165	 0.11787
H	 1.8830182991	-3.5136510705	 1.4172377059	 0.089389
H	 2.5703451658	-4.4459814454	-0.7030310532	 0.288041
120.4553	139.0066	200.7734	230.5712	272.101	315.0296	337.8118	411.526	438.2507	529.9881	623.4347	722.2876	751.92	758.0223	798.0759	824.8885	878.4828	887.2435	976.9744	989.6373	1027.7816	1029.7692	1060.4686	1074.6436	1108.8643	1114.3228	1137.3189	1147.0095	1163.0685	1179.5042	1211.2288	1212.453	1265.0336	1293.2546	1371.7089	1388.6013	1408.2104	1431.4813	1493.1657	1505.464	1529.1843	3035.1811	3061.3016	3090.3423	3091.7444	3109.3865	3117.8125	3129.2414	3136.1499	3206.9037	3802.4454
CC1C2OC1C21CC1O	C[C@H]1[C@H]2O[C@@H]1[C@]12C[C@H]1O	
InChI=1S/C7H10O2/c1-3-5-7(2-4(7)8)6(3)9-5/h3-6,8H,2H2,1H3	InChI=1S/C7H10O2/c1-3-5-7(2-4(7)8)6(3)9-5/h3-6,8H,2H2,1H3/t3-,4-,5+,6-,7+/m1/s1
