23
gdb 93042	2.34017	1.68612	1.16527	0.2454	90.38	-0.2332	0.0314	0.2647	1158.8434	0.208385	-351.169475	-351.161209	-351.160265	-351.201914	33.466	
C	-0.1170102813	 1.570291498	-0.015371009	-0.402088
C	 0.0298157907	 0.0448668335	-0.02245015	 0.003406
C	 0.6608978117	-0.4600286777	-1.333448075	-0.255793
C	 1.0699839016	-1.9079556878	-1.2755486207	-0.070047
C	 1.271214698	-2.5804208511	-0.1414985293	-0.049992
C	 1.149280702	-1.9825023774	 1.2266500257	-0.081898
C	 2.5283712959	-1.5983851634	 1.8643019788	-0.222626
C	 2.3047595961	-0.1370383825	 1.3936940636	-0.230958
C	 0.7938512896	-0.4650757618	 1.1998798515	 0.031066
H	 0.8632774984	 2.0601343727	-0.0401485804	 0.114973
H	-0.6838352443	 1.919540503	-0.8852864667	 0.108485
H	-0.6380266547	 1.9151726652	 0.8842961764	 0.10806
H	-0.9762999314	-0.3956773876	 0.0354883877	 0.071689
H	-0.0424216691	-0.3033406422	-2.1614335482	 0.097302
H	 1.5374831802	 0.1570810799	-1.58626515	 0.104057
H	 1.216579557	-2.412195306	-2.2283347677	 0.080417
H	 1.5780752343	-3.6243515164	-0.1852489887	 0.079206
H	 0.5170794234	-2.6148963103	 1.8600172233	 0.065457
H	 2.5078642577	-1.6895165395	 2.9540899686	 0.095966
H	 3.4095130518	-2.1214426221	 1.4849559385	 0.09488
H	 2.5567572801	 0.6602778752	 2.0967700693	 0.092589
H	 2.8112420955	 0.0670019789	 0.4462748956	 0.104202
H	 0.2436555566	-0.1949906908	 2.1081450265	 0.061646
123.5815	134.2436	211.5177	241.1026	257.3779	320.3682	425.9235	472.269	482.5749	544.916	646.5595	712.8478	746.366	787.6668	826.5559	872.8915	903.8898	929.7639	940.9532	950.9067	969.2929	1003.5212	1009.8356	1024.9701	1053.8723	1094.608	1106.8612	1127.2341	1171.9065	1183.7009	1214.3255	1238.1138	1244.8456	1258.4686	1265.5943	1283.116	1319.3546	1337.2206	1347.661	1373.6477	1393.837	1410.5142	1420.3616	1477.1898	1484.4148	1497.0082	1499.0616	1501.1717	1718.4361	2983.1273	2996.7172	3024.1765	3027.7801	3034.3949	3041.1346	3054.5394	3060.8696	3091.0663	3094.3095	3099.9357	3116.7226	3128.4281	3155.0215
CC1CC=CC2CCC12	C[C@H]1CC=C[C@H]2CC[C@@H]12	
InChI=1S/C9H14/c1-7-3-2-4-8-5-6-9(7)8/h2,4,7-9H,3,5-6H2,1H3	InChI=1S/C9H14/c1-7-3-2-4-8-5-6-9(7)8/h2,4,7-9H,3,5-6H2,1H3/t7-,8-,9-/m0/s1
