19
gdb 112299	2.9532	1.33056	1.02117	4.2969	76.98	-0.254	0.03	0.284	1205.1233	0.160368	-419.204901	-419.196621	-419.195677	-419.238068	31.382	
C	 0.0677665027	 1.5412538966	 0.0654262934	-0.3841
C	 0.0948561003	 0.0103158709	 0.0642808699	-0.193351
C	 0.5742381018	-0.576561366	-1.2583549319	 0.100667
O	 1.9277103403	-0.1639561973	-1.5293630301	-0.258695
C	 2.6637238436	-1.2095778904	-2.0341126601	 0.426902
N	 3.8269213318	-1.1179943296	-2.5055400482	-0.538543
N	 1.9435258072	-2.4383041602	-1.9583520376	-0.135247
C	 1.6626020894	-2.7986883626	-0.5427944322	-0.252184
C	 0.6455174121	-2.0930233214	-1.3522754822	-0.05373
H	 1.0657298942	 1.9461998686	-0.1217178096	 0.138413
H	-0.6018115604	 1.9254631157	-0.7118876103	 0.117621
H	-0.2823432221	 1.9252269039	 1.0277201983	 0.117527
H	 0.7386034439	-0.3588695979	 0.8703046302	 0.106228
H	-0.9103086752	-0.385599424	 0.2570527218	 0.105664
H	-0.0590208436	-0.199550258	-2.0743739313	 0.093146
H	 4.1405646971	-0.148142126	-2.4744318158	 0.226799
H	 1.5711844885	-3.8655841456	-0.3702226828	 0.134886
H	 2.1958310168	-2.2485837698	 0.2269250103	 0.137298
H	-0.2213904584	-2.623213217	-1.732242382	 0.110698
93.7283	100.85	151.5834	208.7893	248.8627	326.1456	392.4103	468.2221	498.059	671.3997	688.6991	751.7778	780.4416	792.1866	853.0305	857.7043	878.1111	936.3924	970.76	1000.2245	1015.949	1044.9872	1083.5682	1088.4783	1114.2968	1136.6247	1163.6229	1167.5928	1228.8417	1291.1019	1308.5002	1325.3679	1375.1038	1397.142	1408.3694	1413.6948	1475.0097	1498.1857	1504.7379	1508.4258	1784.2425	3002.3991	3031.5938	3040.0438	3073.0294	3107.8884	3124.6564	3124.8813	3168.0913	3217.2993	3500.4114
CCC1OC(=N)N2CC12	CC[C@H]1O[C]([NH])N2C[C@@H]12	
InChI=1S/C6H10N2O/c1-2-5-4-3-8(4)6(7)9-5/h4-5,7H,2-3H2,1H3	InChI=1S/C6H10N2O/c1-2-5-4-3-8(4)6(7)9-5/h4-5,7H,2-3H2,1H3/t4-,5+,8?/m0/s1
