17
gdb 48632	3.34972	1.44146	1.21465	2.6663	68.22	-0.2465	-0.0435	0.203	1026.5281	0.136185	-458.945672	-458.938167	-458.937223	-458.977807	28.696	
O	-0.0980925979	-0.0244488088	 0.1134774579	-0.2545
C	 0.0195933348	 1.1459238975	-0.1453242572	 0.088046
C	 1.310747976	 1.9115016281	-0.0214678998	 0.27447
C	 1.5085641244	 2.8178415211	 1.2274132054	-0.283735
C	 2.1731521591	 3.719710356	 0.1688890307	 0.064225
C	 3.6082610984	 3.2683413497	-0.0802983423	-0.070403
O	 3.7223081499	 1.8634607795	 0.128123829	-0.269296
C	 2.5856612084	 1.1149182451	-0.291511917	-0.106773
O	 1.3487909088	 3.0983942193	-0.8664919699	-0.334441
H	-0.8349366575	 1.7746586252	-0.4801091877	 0.095973
H	 0.5644659342	 3.230414562	 1.585308526	 0.117806
H	 2.1123306649	 2.4272542822	 2.0461046877	 0.130325
H	 2.0535268157	 4.8049258433	 0.2094587397	 0.088806
H	 3.8901382491	 3.5452612059	-1.1073763116	 0.107465
H	 4.3086406126	 3.7392096913	 0.6179678217	 0.112479
H	 2.5918994022	 0.1790042683	 0.2725865712	 0.131354
H	 2.6329919668	 0.8866320943	-1.3663686338	 0.1082
80.7296	177.667	223.1047	236.8415	347.3574	389.0531	439.9907	446.6949	578.3698	646.2311	721.1411	841.7714	861.7155	881.3989	907.668	935.0649	979.4608	985.4793	1016.7762	1036.541	1082.6379	1117.3544	1138.3754	1189.1549	1226.3508	1242.991	1255.5811	1267.2519	1310.8144	1341.9271	1368.0548	1398.9536	1407.8001	1478.4585	1484.9237	1494.46	1825.242	2896.3248	2995.8899	3004.7229	3073.2636	3085.1632	3094.0749	3106.4924	3158.8371
O=CC12CC(COC1)O2	O=C[C@@]12C[C@@H](COC1)O2	
InChI=1S/C6H8O3/c7-3-6-1-5(9-6)2-8-4-6/h3,5H,1-2,4H2	InChI=1S/C6H8O3/c7-3-6-1-5(9-6)2-8-4-6/h3,5H,1-2,4H2/t5-,6-/m0/s1
