15
gdb 6070	4.55085	1.2186	1.20535	1.9634	58.17	-0.2497	-0.0146	0.2351	1053.0129	0.116582	-436.99996	-436.991052	-436.990107	-437.034594	30.559	
C	-0.0998227885	 1.218575456	-0.2644233068	-0.48566
C	-0.1903562544	-0.2679060426	 0.0157477008	 0.382958
O	 0.6705969715	-1.0535686494	-0.2919712142	-0.285099
C	-1.4725486338	-0.7200232008	 0.7199636163	-0.176508
O	-1.532073479	-2.1252685789	 0.8640997324	-0.24165
C	-1.870692906	-2.7911749325	-0.2775073986	 0.513177
N	-1.7929426797	-4.1361974253	-0.0639091544	-0.561699
O	-2.2374474079	-2.2548959593	-1.2956324101	-0.404794
H	 0.9154925722	 1.476557172	-0.5671860134	 0.149343
H	-0.7910010804	 1.4732170387	-1.0765769767	 0.157876
H	-0.3951283499	 1.8112212199	 0.6080579483	 0.133424
H	-1.4934444891	-0.3051087022	 1.7332310431	 0.13312
H	-2.3410922713	-0.3446576466	 0.1687096277	 0.145943
H	-1.2307472174	-4.4604058171	 0.7053918312	 0.2686
H	-1.8212175262	-4.7089203818	-0.8903645157	 0.270969
45.7924	75.8745	81.4957	108.436	273.7666	312.6833	356.9859	416.0341	456.1015	475.1925	515.387	605.8005	683.9474	781.5562	813.0952	849.4152	902.617	968.4058	1092.981	1122.4508	1143.2059	1198.2816	1297.3355	1354.438	1381.6688	1400.469	1448.4969	1464.8139	1476.0887	1615.3518	1830.2399	1843.2303	3035.6992	3050.2327	3095.0205	3102.0187	3153.5295	3609.7406	3735.8028
CC(=O)COC(N)=O	CC(=O)COC(=O)N	
InChI=1S/C4H7NO3/c1-3(6)2-8-4(5)7/h2H2,1H3,(H2,5,7)	InChI=1S/C4H7NO3/c1-3(6)2-8-4(5)7/h2H2,1H3,(H2,5,7)
