20
gdb 51422	4.41544	0.97439	0.95199	3.3497	81.46	-0.2541	0.0237	0.2779	1316.684	0.173108	-403.134904	-403.126953	-403.126009	-403.168064	30.626	
N	-0.0986084346	 1.2498824012	 0.1224442137	-0.444061
C	-0.068628629	-0.0118322342	 0.1527065225	 0.119191
O	-1.1142226202	-0.7239206093	-0.3084849598	-0.208279
C	-1.0354527151	-2.1352539605	-0.1489556749	 0.16655
C	-1.57144395	-2.6764955102	 1.2113038607	-0.055773
C	-2.99443797	-2.418427315	 0.6290240464	-0.232721
C	-2.3033111407	-2.8280411518	-0.7078749988	-0.04788
C	-1.9634362432	-4.308758693	-0.4575573445	-0.220961
C	-1.4011973719	-4.1925836387	 1.0037942859	-0.219629
H	 0.7752351017	 1.624541024	 0.4860307723	 0.22768
H	 0.7590380491	-0.6356005733	 0.5192177904	 0.082944
H	-0.0576332147	-2.4953131046	-0.4945641919	 0.071322
H	-1.2434612512	-2.2508691073	 2.1602347943	 0.066228
H	-3.8128205764	-3.0460984378	 0.992269836	 0.088921
H	-3.2752296019	-1.3667063632	 0.6504123911	 0.127401
H	-2.7047570978	-2.5490392705	-1.6814543523	 0.073743
H	-2.8488304584	-4.9464494843	-0.5197309686	 0.103871
H	-1.2218672867	-4.6947977959	-1.1630233059	 0.099637
H	-0.3571611064	-4.5120509887	 1.0770520201	 0.097408
H	-1.9793848625	-4.7730178071	 1.7274097631	 0.104409
62.0079	94.3614	143.7798	291.9448	297.6055	369.5115	411.8722	479.9978	640.115	685.681	820.7386	825.8992	828.8026	844.6943	894.3702	902.1583	921.1071	944.3791	974.3994	1002.0524	1027.6675	1037.7965	1045.9097	1072.5384	1087.003	1120.8095	1141.0256	1172.8658	1214.0305	1224.2213	1248.7193	1262.3485	1267.2135	1288.9198	1301.94	1320.1576	1323.547	1393.1077	1427.657	1493.704	1494.2894	1517.9419	1746.2191	3010.2828	3024.4106	3050.7866	3060.1629	3067.169	3089.5068	3108.316	3112.3903	3126.2047	3154.7097	3516.5492
N=COC1C2CC1CC2	[NH][CH]O[C@H]1[C@H]2C[C@@H]1CC2	
InChI=1S/C7H11NO/c8-4-9-7-5-1-2-6(7)3-5/h4-8H,1-3H2	InChI=1S/C7H11NO/c8-4-9-7-5-1-2-6(7)3-5/h4-8H,1-3H2/t5-,6+,7+
