22
gdb 72602	2.05618	1.85202	1.5939	1.4314	85.34	-0.2251	0.0914	0.3165	1034.4662	0.19439	-367.169103	-367.160484	-367.15954	-367.201514	34.668	
C	-0.1426152651	 1.5626344712	-0.0914740595	-0.49403
C	-0.0160092537	 0.0586966703	-0.0027054508	 0.325701
C	 0.916599845	-0.6723552529	-1.0074350271	-0.280135
C	 1.6120344548	-1.4408750078	 0.1498555232	-0.280138
C	 0.706858203	-0.7401791438	 1.2002612023	 0.325708
C	 1.3562224613	-0.0938314617	 2.4028839068	-0.494031
C	-0.6003191326	-1.5030003893	 1.3945196289	-0.108754
N	-1.644869496	-0.4928470657	 1.693802439	-0.354777
C	-1.2667524881	-0.766483499	 0.2855289958	-0.108757
H	 0.8383715503	 2.0495050265	-0.0491885984	 0.10788
H	-0.6137874294	 1.8590794145	-1.0374963151	 0.108498
H	-0.7537195345	 1.9475143542	 0.729600155	 0.134342
H	 0.407022432	-1.2848610421	-1.7573505752	 0.091186
H	 1.5877304415	 0.0118885813	-1.5334221209	 0.097546
H	 1.5355520275	-2.5319761849	 0.120629841	 0.091184
H	 2.6680202938	-1.1819251975	 0.2643419084	 0.097545
H	 2.1315109584	 0.6203748094	 2.1028774488	 0.10788
H	 0.6128825139	 0.4371603012	 3.0039141256	 0.134343
H	 1.8360498744	-0.8483851725	 3.0394804495	 0.108498
H	-0.7199647628	-2.534932107	 1.7085968511	 0.082682
H	-2.509649893	-1.0015860216	 1.8756450997	 0.224946
H	-2.0049562304	-1.1148148228	-0.4297071579	 0.082682
133.8531	183.4771	218.8598	224.8	256.5596	260.918	334.3101	360.3997	445.3551	552.358	591.5844	641.0898	668.4743	747.1367	823.9679	843.1903	849.328	868.4834	935.0133	938.4162	954.6161	963.0403	969.0886	1040.0882	1047.0837	1076.4402	1093.8307	1143.5707	1163.3407	1198.0992	1215.7078	1218.0718	1220.5054	1255.2081	1267.1682	1295.4831	1322.7535	1354.5089	1386.493	1401.9204	1409.7833	1477.0153	1484.0962	1491.6796	1495.9097	1496.5092	1502.9325	3017.7856	3019.4469	3044.8276	3052.5458	3075.1987	3077.6693	3086.4371	3106.3322	3111.4923	3114.0413	3155.8799	3169.8134	3473.5436
CC12CCC1(C)C1NC21	C[C@@]12CC[C@]1(C)[C@H]1N[C@@H]21	
InChI=1S/C8H13N/c1-7-3-4-8(7,2)6-5(7)9-6/h5-6,9H,3-4H2,1-2H3	InChI=1S/C8H13N/c1-7-3-4-8(7,2)6-5(7)9-6/h5-6,9H,3-4H2,1-2H3/t5-,6+,7+,8-
