22
gdb 6175	3.21039	1.33704	1.1877	1.3684	78.78	-0.2529	0.077	0.3299	1158.0268	0.197607	-350.202606	-350.192618	-350.191674	-350.236808	37.186	
C	-0.0220765535	 1.5241714656	-0.1710291467	-0.396785
C	 0.0200076884	 0.0224944603	 0.1228555579	 0.118691
O	 0.68766027	-0.2405517051	 1.3596557529	-0.434943
C	-1.3630914919	-0.5955028778	 0.0909605319	-0.041539
C	-1.9343896403	-1.1926473256	-1.1785089366	-0.339008
C	-1.6027021486	-2.0869660126	-0.0051058669	 0.341653
C	-0.4268181112	-3.0404877764	-0.1161167033	-0.447826
C	-2.7628502867	-2.64511279	 0.7995426114	-0.450214
H	 0.9848921123	 1.9481844703	-0.1313295983	 0.120024
H	-0.4497834705	 1.719824859	-1.1594955406	 0.118212
H	-0.6419340831	 2.0456381166	 0.569226632	 0.10289
H	 0.6529966808	-0.46159416	-0.6285038677	 0.08311
H	 0.1450260416	 0.1285738033	 2.0652131163	 0.272492
H	-2.0791429057	-0.0570323853	 0.7130872527	 0.064833
H	-2.9757206626	-1.0033081707	-1.4184501696	 0.104006
H	-1.2826408694	-1.2348157084	-2.0465628919	 0.104854
H	 0.3600222121	-2.658639746	-0.7710080497	 0.113402
H	 0.0226734385	-3.2241289472	 0.8654508799	 0.124663
H	-0.754642818	-4.0035919191	-0.5247768661	 0.106626
H	-3.1498867999	-3.5657900422	 0.3466736452	 0.112899
H	-2.4523598411	-2.8859704824	 1.8233503074	 0.113802
H	-3.5901671214	-1.9307755963	 0.8600429195	 0.108158
65.4164	123.5799	163.0829	192.5259	227.6173	245.8829	253.0999	291.1023	351.9757	364.693	380.3842	420.5435	497.9306	528.93	713.1159	789.6528	869.6688	898.01	919.0684	967.1387	973.6555	980.4686	1027.3048	1056.1599	1074.7175	1091.1099	1096.555	1127.0526	1156.8507	1197.5537	1250.2036	1299.2009	1331.7503	1343.4735	1398.8801	1410.5587	1414.1412	1423.7865	1432.654	1480.9813	1488.0041	1490.7736	1492.0325	1495.5782	1500.2325	1512.603	3018.3215	3024.3246	3029.4375	3052.1752	3078.0798	3089.6834	3090.4685	3095.2419	3099.2754	3114.1185	3118.7671	3119.2102	3201.0022	3799.4363
CC(O)C1CC1(C)C	C[C@@H](O)[C@H]1CC1(C)C	
InChI=1S/C7H14O/c1-5(8)6-4-7(6,2)3/h5-6,8H,4H2,1-3H3	InChI=1S/C7H14O/c1-5(8)6-4-7(6,2)3/h5-6,8H,4H2,1-3H3/t5-,6-/m1/s1
