20
gdb 6232	2.1041	2.09785	1.6113	1.7253	71.85	-0.2334	0.0706	0.3041	964.5292	0.173108	-386.131502	-386.121536	-386.120592	-386.164933	37.203	
C	-0.0799935098	 1.5288789477	-0.0652959072	-0.425265
C	 0.027683263	 0.0243341846	 0.0513141798	-0.143414
C	 1.3475077877	-0.7110882238	-0.1905109944	 0.342667
C	 1.3760061614	-1.9879195856	-0.9972974876	-0.447112
O	 2.5039543135	 0.0791189812	-0.3306092018	-0.462559
C	 0.7576756962	-0.6782604212	 1.1919702334	 0.333932
C	 1.4250022114	 0.0921964624	 2.3086051332	-0.447333
O	 0.2151764039	-1.9108311472	 1.6086532683	-0.465531
H	 0.8860084908	 2.0113959261	 0.1004364243	 0.128342
H	-0.4253078578	 1.8165091246	-1.0650699031	 0.11187
H	-0.7935809358	 1.9415680974	 0.6566020254	 0.114075
H	-0.8471106392	-0.5257329802	-0.2890390635	 0.079528
H	 1.3662139398	-1.7654431637	-2.0720448759	 0.0986
H	 2.2862296539	-2.5548958384	-0.776826366	 0.124238
H	 0.5150217047	-2.6163408088	-0.7666961213	 0.135482
H	 2.5532575464	 0.3637489975	-1.2500759274	 0.281241
H	 1.9489387096	 0.9737021153	 1.9393390189	 0.13734
H	 0.6837970861	 0.4144583693	 3.0507006496	 0.099808
H	 2.1512722917	-0.5510567909	 2.8148274356	 0.126343
H	-0.5508312375	-1.7181409866	 2.1606160397	 0.277745
141.3197	172.5811	190.9388	198.5629	205.1741	226.8418	266.8738	278.1565	292.5946	320.9775	403.4322	413.4786	473.8967	521.8385	579.6553	700.1675	703.6891	799.4871	955.2995	963.7085	983.2492	1032.9153	1064.7162	1093.4628	1113.5329	1127.9601	1173.3038	1201.2652	1264.5594	1276.0915	1323.1081	1355.4415	1404.8959	1408.1039	1418.3687	1464.7161	1482.7127	1485.631	1492.762	1499.0012	1504.7606	1527.906	3023.4344	3026.9117	3029.7399	3080.0521	3088.3284	3093.7131	3116.9925	3133.7338	3145.9088	3152.6408	3792.5835	3794.4174
CC1C(C)(O)C1(C)O	C[C@H]1[C@@](C)(O)[C@]1(C)O	
InChI=1S/C6H12O2/c1-4-5(2,7)6(4,3)8/h4,7-8H,1-3H3	InChI=1S/C6H12O2/c1-4-5(2,7)6(4,3)8/h4,7-8H,1-3H3/t5-,6-/m1/s1
