17
gdb 19881	3.33335	2.22443	1.99219	2.6674	66.52	-0.221	0.0639	0.2849	764.5905	0.144257	-363.807296	-363.800725	-363.799781	-363.837617	26.566	
O	 0.0914081947	 1.4291985015	-0.1119703257	-0.407267
C	-0.0195051106	 0.039119076	 0.0000390722	 0.079982
C	-0.462097825	-0.6457509349	 1.2691369728	-0.114891
C	-1.2277195298	 0.1851423883	 2.3074954991	-0.260005
C	-2.60832146	 0.4451860519	 1.6932502425	-0.013796
C	-2.7567325093	 1.3613723743	 0.5333030318	-0.253493
N	-2.6544881677	-0.0986873818	 0.3214723172	-0.110123
C	-1.351902208	-0.6807650665	 0.0311347758	-0.034407
H	 0.8530422219	 1.7047153158	 0.4100052232	 0.290139
H	 0.7409672096	-0.4987082501	-0.5693982263	 0.088438
H	 0.0926672385	-1.5112865295	 1.6161721071	 0.085611
H	-1.3287957381	-0.3880062632	 3.2329458314	 0.108675
H	-0.7093914605	 1.1167149064	 2.5619154812	 0.10051
H	-3.4757674617	 0.2380179736	 2.3162534697	 0.086089
H	-3.741732215	 1.7610439479	 0.3041921998	 0.105515
H	-1.9226205362	 1.9877971277	 0.2534860459	 0.151567
H	-1.4227630428	-1.5677907274	-0.5895507978	 0.097457
163.5468	240.0979	269.4243	287.2817	408.4685	518.7748	651.074	655.7149	691.9839	735.4633	756.9036	811.3347	844.4544	866.8896	901.1778	961.9226	1026.2378	1033.5676	1060.472	1101.8187	1107.6515	1117.8327	1128.7464	1130.3745	1170.3638	1207.3678	1243.1696	1281.7656	1296.1004	1308.9376	1326.0768	1363.0196	1389.0577	1446.1994	1484.387	1508.4412	3041.8284	3077.7463	3089.6553	3117.0325	3127.8779	3154.6842	3163.8493	3255.8742	3796.8675
OC1C2CC3CN3C12	O[C@H]1[C@H]2C[C@H]3CN3[C@@H]12	
InChI=1S/C6H9NO/c8-6-4-1-3-2-7(3)5(4)6/h3-6,8H,1-2H2	InChI=1S/C6H9NO/c8-6-4-1-3-2-7(3)5(4)6/h3-6,8H,1-2H2/t3-,4-,5+,6-,7?/m0/s1
