17
gdb 70105	2.58257	1.92033	1.35979	1.6604	73.76	-0.2309	-0.0059	0.225	957.7509	0.135968	-421.795974	-421.788581	-421.787637	-421.82733	30.104	
O	-0.1890046209	 1.3093125867	-0.0181641932	-0.471555
C	 0.0094784092	-0.0602154476	 0.0294281829	 0.361986
C	-0.4851673271	-0.8065967982	 1.2223699422	-0.329512
C	 1.0180634266	-0.7800580194	 0.9171906741	-0.186678
C	 1.5142225445	-1.9186943004	 0.0924565752	-0.077689
C	 0.9577450662	-1.9458989411	-1.125840129	-0.179999
C	 0.0461657623	-0.7859993623	-1.3030699955	 0.332879
C	-1.0059939137	-0.6218494351	-2.3113316238	-0.243109
O	 0.2368497218	 0.0789133142	-2.4504227159	-0.296431
H	 0.2021058584	 1.6010099449	-0.8538020412	 0.293728
H	-0.8176092161	-0.1806008416	 2.0443286889	 0.125366
H	-1.021935024	-1.7421423558	 1.1018122377	 0.114193
H	 1.6724343219	-0.2547307537	 1.6023583939	 0.100269
H	 2.2170274953	-2.6537189157	 0.468740887	 0.106886
H	 1.1247534241	-2.6851580008	-1.8984674065	 0.107124
H	-1.1804371115	-1.4023396053	-3.0504537682	 0.118493
H	-1.8667530968	 0.0019090011	-2.0736678787	 0.12405
133.4075	241.4047	249.4833	306.825	365.2099	405.1199	433.8245	488.5742	553.5365	600.221	643.0247	756.1195	767.4861	802.3909	853.1373	869.7044	918.1192	938.8991	958.397	972.7154	987.564	1039.6811	1066.2001	1073.18	1106.5172	1125.7111	1165.5643	1178.7366	1240.3025	1269.7792	1346.4756	1372.8521	1415.8134	1439.031	1487.7718	1519.6821	1644.7141	3082.5366	3122.9075	3172.7058	3184.1921	3193.842	3217.9405	3223.7896	3747.827
OC12CC1C=CC21CO1	O[C@]12C[C@H]1C=C[C@]12CO1	
InChI=1S/C7H8O2/c8-7-3-5(7)1-2-6(7)4-9-6/h1-2,5,8H,3-4H2	InChI=1S/C7H8O2/c8-7-3-5(7)1-2-6(7)4-9-6/h1-2,5,8H,3-4H2/t5-,6-,7-/m1/s1
