20
gdb 33500	2.35835	1.4008	1.08135	1.1574	85.28	-0.2199	0.0461	0.2661	1199.7468	0.169582	-365.92461	-365.915416	-365.914472	-365.958937	35.026	
C	-0.1972921509	-0.875222747	 0.8947041573	-0.459177
C	-0.1910112142	 0.2308955987	 0.41891272	 0.278285
C	-0.1419137123	 1.5531644372	-0.1487743096	 0.124609
C	-0.9742344528	 1.8261059331	-1.4110746353	-0.217912
N	-2.4311007007	 1.8639081643	-1.3497923388	-0.072292
C	-3.2011668842	 0.7759464593	-0.7645095948	-0.226613
C	-3.1435777636	 2.1135949672	-0.1054463247	-0.226708
C	 0.1072686203	 2.7185201946	 0.8033563243	-0.280665
C	 1.2159156533	 2.2509169408	-0.0868050912	-0.302971
H	-0.2142553134	-1.851454761	 1.3117574066	 0.193431
H	-0.6547461065	 2.8051809958	-1.789864736	 0.100675
H	-0.7051575172	 1.0880917045	-2.1753767204	 0.114907
H	-4.0815587803	 0.4802147334	-1.3302960426	 0.108816
H	-2.6751654765	-0.0360239419	-0.27186077	 0.132318
H	-2.5794559473	 2.1723778731	 0.821509686	 0.120411
H	-3.9808872212	 2.8036897296	-0.1739726413	 0.109448
H	-0.3847157575	 3.6552967114	 0.5644399244	 0.125021
H	 0.1687900634	 2.4955940105	 1.8618989172	 0.127649
H	 2.0329127681	 1.6965413769	 0.3584617495	 0.129474
H	 1.4923022334	 2.8615205594	-0.9397737404	 0.121294
36.1721	123.8467	145.139	190.2964	229.0878	292.4715	309.018	372.5453	446.8831	537.5282	563.5122	584.1586	640.7545	706.4067	758.59	791.605	827.2574	870.6803	883.6108	930.8357	936.6712	958.4546	1012.9327	1045.6245	1059.7031	1076.3575	1090.0999	1120.236	1126.2057	1172.5686	1183.2069	1197.2322	1265.3315	1268.3903	1335.2009	1354.0031	1395.9651	1463.7956	1473.4541	1492.3483	1495.044	1522.6856	2225.2953	3020.529	3067.6163	3104.2766	3107.9889	3136.3884	3139.8873	3186.2505	3203.0763	3222.0767	3236.2905	3502.357
C#CC1(CN2CC2)CC1	C#CC1(CN2CC2)CC1	
InChI=1S/C8H11N/c1-2-8(3-4-8)7-9-5-6-9/h1H,3-7H2	InChI=1S/C8H11N/c1-2-8(3-4-8)7-9-5-6-9/h1H,3-7H2
