16
gdb 31057	2.3759	1.42601	0.90963	3.2412	69.63	-0.1796	0.0377	0.2173	1237.1122	0.125065	-471.226214	-471.217326	-471.216382	-471.259817	32.538	
C	-0.070353381	 1.4694357659	-0.0864209425	-0.325838
N	 0.3691742227	 0.0953888756	 0.1204537673	-0.387811
C	 0.7547974241	-0.6510821509	-0.9750769367	 0.330795
C	 0.6396667977	-1.9931971831	-1.1597910588	 0.137882
N	 0.0947843705	-3.0077081776	-0.3965528871	-0.60517
O	 1.287573065	-2.2673991843	-2.407820404	-0.237391
C	 1.6794366633	-1.0600740257	-2.8222209732	 0.471011
O	 2.3059743089	-0.9846048357	-3.998123265	-0.404375
N	 1.4139576001	-0.0592710629	-2.0517697944	-0.40006
H	 0.6901844129	 2.0019698037	-0.6591016415	 0.160952
H	-1.0246552399	 1.5515258257	-0.6298067007	 0.105622
H	-0.1799853373	 1.9555881577	 0.8864763799	 0.116913
H	-0.2225600016	-0.4405328632	 0.7405287814	 0.238826
H	-0.6510601593	-3.5239174161	-0.8509945374	 0.242629
H	 0.7689492723	-3.6640858479	-0.0155333541	 0.243273
H	 2.3731545117	-1.8765162313	-4.3592097834	 0.312742
85.1351	139.1909	175.4103	197.7083	240.8159	287.9825	314.8173	358.9491	384.0564	420.8864	574.4853	611.5446	656.2742	693.3964	698.7468	742.9122	756.766	853.5794	973.9659	1044.3205	1106.5452	1149.2755	1155.9424	1207.8379	1225.9933	1258.2435	1412.4683	1436.3079	1469.758	1481.3129	1498.3713	1525.8548	1657.6342	1694.9242	1752.5253	2981.4618	3088.8463	3145.2026	3484.2641	3546.4291	3586.9792	3820.0202
CNC1=C(N)OC(O)=N1	CNc1c(N)oc(O)n1	
InChI=1S/C4H7N3O2/c1-6-3-2(5)9-4(8)7-3/h6H,5H2,1H3,(H,7,8)	InChI=1S/C4H7N3O2/c1-6-3-2(5)9-4(8)7-3/h6H,5H2,1H3,(H,7,8)
