16
gdb 47152	3.17222	1.12691	0.84437	3.2936	76.03	-0.2553	-0.0568	0.1984	1294.3327	0.124559	-400.809374	-400.801032	-400.800088	-400.843564	29.769	
O	-0.1891859306	 0.0826972395	-0.8325070875	-0.331433
C	-0.1416929149	 1.2032963977	-0.37859506	 0.33467
C	-1.2560454446	 2.2556060379	-0.3919514481	-0.33372
C	-0.6555893783	 3.4870649689	 0.3157665178	-0.27169
C	 0.74475999	 3.0624647665	 0.6809966097	-0.142722
C	 1.0297810788	 1.8108889587	 0.3018520118	 0.199146
C	 2.2903973549	 1.0082308455	 0.4674030283	-0.449205
C	 3.3559374792	 1.7331840584	 1.1533296021	 0.268048
N	 4.1830041518	 2.3280459377	 1.6981114955	-0.311234
H	-1.5523639026	 2.4561262782	-1.4255371597	 0.141593
H	-2.1382704481	 1.8556150423	 0.115943397	 0.141565
H	-0.6361538755	 4.3754258381	-0.3265273783	 0.129994
H	-1.2188177274	 3.7756591278	 1.2111153507	 0.130024
H	 1.4317450131	 3.723775723	 1.198814182	 0.139835
H	 2.0689043837	 0.0833649915	 1.0144799874	 0.177566
H	 2.6489973804	 0.6787024982	-0.5157305087	 0.177563
38.0491	95.4356	113.5733	219.9742	242.3565	332.5806	379.7961	432.3831	551.8579	593.5494	623.0617	723.0722	808.1166	811.4121	868.5635	913.7404	948.8243	974.1747	1018.4	1029.026	1046.8852	1153.7353	1210.7402	1218.0227	1232.7465	1256.2242	1301.3385	1327.7669	1378.7527	1446.5705	1449.6656	1481.6096	1700.4842	1807.7578	2366.7101	3036.8517	3039.5814	3062.3911	3064.8485	3068.867	3109.1438	3196.4005
O=C1CCC=C1CC#N	O=C1CCC=C1CC#N	
InChI=1S/C7H7NO/c8-5-4-6-2-1-3-7(6)9/h2H,1,3-4H2	InChI=1S/C7H7NO/c8-5-4-6-2-1-3-7(6)9/h2H,1,3-4H2
