20
gdb 122756	5.14912	0.54877	0.50259	3.5399	84.82	-0.2493	-0.0382	0.2111	2158.0444	0.16999	-399.353103	-399.342308	-399.341363	-399.390928	36.945	
C	-0.0409755222	 1.5748600463	-0.040729452	-0.382541
C	-0.0144304206	 0.0464542323	 0.0406676039	-0.164609
C	-1.4134212569	-0.5771659321	 0.0001872465	-0.202393
C	-1.3788400431	-2.1013865344	 0.0900527906	-0.121031
N	-2.7259581024	-2.6504472417	 0.0516524522	-0.326753
C	-2.9450111566	-3.9922611913	-0.0195774648	 0.301614
N	-1.9957780662	-4.8434150271	-0.1525562369	-0.525767
C	-4.3519281909	-4.3653175795	 0.0467031085	 0.223469
N	-5.457048855	-4.7009655057	 0.1041409699	-0.322614
H	 0.9703984842	 1.9909421048	-0.0106269937	 0.117837
H	-0.5135191105	 1.9143018041	-0.9689772343	 0.117654
H	-0.6037564627	 2.0066759127	 0.7941967632	 0.116371
H	 0.583521611	-0.3558472515	-0.7869660464	 0.105166
H	 0.4937950626	-0.2642803946	 0.9624947932	 0.103451
H	-2.0129699508	-0.1767110598	 0.8305648095	 0.097191
H	-1.9250423403	-0.281576531	-0.9249601862	 0.108567
H	-0.8150942616	-2.5300436563	-0.7452001937	 0.137209
H	-0.8629295132	-2.4241712768	 1.0058783931	 0.117995
H	-3.4915543393	-2.0614563072	 0.3347357879	 0.260429
H	-2.3605938156	-5.7890606212	-0.2300387106	 0.238756
24.8435	55.1151	77.0384	112.7356	154.3896	176.179	238.7009	250.033	294.306	349.584	361.0707	415.9279	542.5028	613.2743	723.3412	741.6052	798.4431	824.4847	884.1198	929.9912	950.8178	1027.5076	1067.1144	1073.4647	1148.9084	1175.2636	1182.6364	1250.1897	1280.8787	1310.3086	1323.2354	1331.6344	1384.1986	1407.648	1414.5473	1487.0362	1495.0501	1500.3454	1509.2598	1523.3382	1544.3599	1682.9761	2347.0253	3002.9626	3005.4169	3022.3222	3032.0189	3039.9404	3058.4744	3077.144	3099.1038	3107.1011	3534.823	3652.355
CCCCNC(=N)C#N	CCCCNC(=N)C#N	
InChI=1S/C6H11N3/c1-2-3-4-9-6(8)5-7/h2-4H2,1H3,(H2,8,9)	InChI=1S/C6H11N3/c1-2-3-4-9-6(8)5-7/h2-4H2,1H3,(H2,8,9)
