19
gdb 105972	4.12512	1.12401	1.11962	1.5024	78.88	-0.2151	0.0753	0.2904	1184.2393	0.157473	-385.778955	-385.770679	-385.769735	-385.811648	32.634	
C	 0.1376645078	 1.5105460802	-0.1798378533	-0.372094
C	-0.0722402248	 0.0151381706	 0.094502429	-0.32417
C	 0.6653176325	-0.4756412799	 1.3009531089	 0.397401
C	 2.1396609265	-0.8164620728	 1.4975226064	-0.135238
C	 2.0408610031	-0.4386109237	 3.0024985535	-0.13826
C	 0.5572447784	-0.0819067682	 2.8120483165	-0.268942
C	 0.9796242141	-1.4922833865	 3.2054370841	 0.395358
O	 0.7471129822	-2.2190781152	 4.341970114	-0.451802
C	 1.0736330844	-1.8923240141	 1.6882498326	-0.273416
H	 1.1960259497	 1.7323695995	-0.3493057619	 0.119086
H	-0.4237534222	 1.8327954485	-1.0622404888	 0.109383
H	-0.1959406442	 2.1171666704	 0.6687212003	 0.117979
H	-1.1453821989	-0.1897414043	 0.2133177188	 0.09761
H	 0.2533534191	-0.5704794799	-0.77551292	 0.099518
H	 2.9617516793	-0.7900204296	 0.7930082087	 0.081191
H	 2.7505353936	-0.0306747628	 3.7090467703	 0.090689
H	-0.0365902243	 0.6491866274	 3.3454240146	 0.084693
H	-0.1981857699	-2.4016905797	 4.3999684766	 0.287172
H	 0.9297599932	-2.8195198	 1.1477001498	 0.083841
81.3226	134.8815	177.466	254.5625	307.9385	323.2659	387.2584	400.6465	551.7276	616.2872	677.0134	754.9832	767.494	788.4805	810.9286	828.0929	870.4314	874.588	899.1524	908.4958	947.9677	964.4131	988.5334	1003.5595	1064.7706	1088.2656	1100.5588	1114.74	1150.9607	1210.5565	1231.7811	1247.7056	1296.6851	1317.4276	1346.4823	1407.6405	1429.0446	1465.7003	1475.0387	1496.7428	1506.5272	3006.3812	3034.857	3040.3469	3103.08	3107.9688	3180.8795	3193.0967	3196.7232	3212.827	3776.4084
CCC12C3C4C1C4(O)C23	CC[C@@]12[C@H]3[C@H]4[C@@H]1[C@@]4(O)[C@@H]23	
InChI=1S/C8H10O/c1-2-7-3-4-6(7)8(4,9)5(3)7/h3-6,9H,2H2,1H3	InChI=1S/C8H10O/c1-2-7-3-4-6(7)8(4,9)5(3)7/h3-6,9H,2H2,1H3/t3-,4-,5+,6-,7-,8-/m0/s1
