19
gdb 23605	2.41421	1.38054	0.99633	0.741	79.64	-0.2266	-0.0012	0.2254	1220.0979	0.158542	-419.116433	-419.107603	-419.106659	-419.15049	32.931	
O	 0.3755708877	 0.4863371063	 0.7705277525	-0.392628
N	-0.0793916906	-0.84714182	 0.7788880476	-0.241446
C	-1.2105987403	-0.9474361421	 0.2170807797	 0.39363
C	-2.1594161891	-0.0103230672	-0.500863765	-0.320935
C	-2.9188043184	-1.2700128218	-1.0203579473	-0.236238
C	-2.0851367065	-2.1783236419	-0.0606335279	-0.036484
N	-1.5846129755	-3.4141336167	-0.6241858269	-0.085022
C	-0.3649462437	-3.3926104652	-1.4271539132	-0.229163
C	-0.3673886454	-3.9966767438	-0.0647853681	-0.22297
H	 1.2275386271	 0.4131101617	 1.2142647041	 0.305646
H	-2.7372780394	 0.6167727969	 0.1852785591	 0.127138
H	-1.7011513346	 0.6406623999	-1.2495944599	 0.12923
H	-4.0001478551	-1.2884981914	-0.8798715409	 0.108155
H	-2.6911560855	-1.4926682904	-2.0648125492	 0.117765
H	-2.6580310318	-2.4393799208	 0.8376725991	 0.100239
H	-0.3831134048	-4.0243546828	-2.3106853841	 0.112772
H	 0.1678739506	-2.452111758	-1.5419900448	 0.119853
H	 0.1525958452	-3.4400589772	 0.7103158069	 0.138231
H	-0.3822795198	-5.0761738054	 0.0597964184	 0.112229
57.9681	105.7683	121.164	189.5553	239.4409	295.0123	350.6654	395.5109	478.2797	488.1414	606.3073	667.5425	755.228	761.8272	820.1791	869.4477	904.7976	929.4464	947.5258	977.7966	1024.7353	1051.3625	1083.3133	1103.5543	1121.1215	1130.4018	1148.1774	1177.7564	1193.8581	1209.6421	1226.8315	1261.3185	1265.9826	1333.2688	1352.2467	1396.8936	1459.6671	1484.1091	1486.0954	1513.5402	1770.2844	3030.6997	3058.1537	3080.3525	3103.945	3106.406	3109.1638	3138.8478	3189.5992	3203.5315	3815.3283
ON=C1CCC1N1CC1	ON=C1CC[C@H]1N1CC1	
InChI=1S/C6H10N2O/c9-7-5-1-2-6(5)8-3-4-8/h6,9H,1-4H2	InChI=1S/C6H10N2O/c9-7-5-1-2-6(5)8-3-4-8/h6,9H,1-4H2/t6-/m1/s1
