16
gdb 50421	2.3515	1.42792	0.9407	3.3917	72.9	-0.2458	-0.0501	0.1956	1189.0734	0.123692	-437.921724	-437.91338	-437.912436	-437.955811	29.413	
O	-0.0364149011	-0.0754792205	-0.311582687	-0.232773
C	 0.0182668359	 1.063026499	 0.0654373004	 0.149483
C	 1.3143853547	 1.8816223784	 0.1214726937	-0.120774
C	 1.4068571776	 2.778225058	-1.0937259354	-0.086382
C	 1.4173161757	 4.0632279768	-0.7497559278	-0.086506
C	 1.3635461295	 4.2454617119	 0.7403771049	-0.202197
N	 1.3091671104	 2.8564263848	 1.2094017606	-0.060887
C	 1.363334334	 2.5456856411	 2.531578753	 0.140375
O	 1.4105991486	 3.3671063135	 3.4223714658	-0.330811
H	-0.881495281	 1.6354621958	 0.385902496	 0.093
H	 2.1519297784	 1.1739967422	 0.1817588901	 0.121963
H	 1.4429769133	 2.3672944522	-2.0936855387	 0.131107
H	 1.4768315217	 4.9010650569	-1.4326477914	 0.123853
H	 2.2436542941	 4.7618716955	 1.1456838421	 0.139797
H	 0.4863255058	 4.8143305915	 1.0751480082	 0.137445
H	 1.3590440122	 1.4514157929	 2.7093467155	 0.083308
56.2745	75.5766	119.1631	208.1508	255.267	305.5276	368.0298	434.0555	471.3433	531.2987	725.3774	767.2722	829.8726	886.7446	935.859	968.8692	976.0215	1032.414	1036.5979	1048.4321	1059.3342	1132.4507	1192.7004	1216.3762	1250.1525	1298.3773	1326.1721	1373.491	1386.4603	1398.5362	1443.4032	1512.9617	1684.8186	1796.1572	1836.7237	2883.8425	2933.3428	3018.878	3022.8345	3040.6678	3215.1329	3239.3662
O=CC1C=CCN1C=O	O=C[C@H]1C=CCN1C=O	
InChI=1S/C6H7NO2/c8-4-6-2-1-3-7(6)5-9/h1-2,4-6H,3H2	InChI=1S/C6H7NO2/c8-4-6-2-1-3-7(6)5-9/h1-2,4-6H,3H2/t6-/m1/s1
