18
gdb 51758	2.93111	0.9451	0.75842	2.7115	80.36	-0.2373	-0.0274	0.2099	1467.635	0.144939	-401.890887	-401.881588	-401.880644	-401.92601	33.28	
O	-0.337353752	 0.1762512982	 0.3941363113	-0.235082
C	-0.0679633827	 1.286912676	 0.0196040171	 0.154931
C	 1.3462144293	 1.8244544204	-0.1355627535	-0.242515
N	 1.4382967442	 2.7331576897	-1.2532138514	-0.077154
C	 1.5783399371	 2.2045270518	-2.6272200863	-0.176524
C	 2.4965829665	 3.4028508099	-2.9568691539	-0.248359
C	 2.6682854247	 3.5485472757	-1.4150684437	-0.152007
C	 2.6545133438	 4.863920364	-0.799825692	 0.333127
C	 2.6519285863	 5.9524222348	-0.2893632383	-0.430928
H	-0.8528220103	 2.0332019302	-0.2378353792	 0.087398
H	 1.5625822329	 2.3943978313	 0.780743576	 0.138378
H	 2.0512455336	 0.9753394512	-0.1750812564	 0.10428
H	 2.1179530713	 1.2442625137	-2.6650818187	 0.095795
H	 0.6396483122	 2.1049123586	-3.1798524689	 0.114173
H	 3.4013042968	 3.2074994805	-3.5310927624	 0.11614
H	 1.9550246547	 4.2471034776	-3.3837552602	 0.128347
H	 3.5682957301	 3.0010590682	-1.0862386352	 0.089694
H	 2.6439650714	 6.9158021881	 0.1576920256	 0.200304
51.9772	77.9925	114.3998	148.4324	169.6606	250.8683	332.1653	358.2076	459.1442	508.301	560.6394	619.2008	655.1987	664.2073	746.3924	822.7328	834.7823	951.4518	958.2608	1001.99	1051.6095	1075.0003	1103.4858	1122.7785	1160.16	1207.0982	1224.4168	1250.9703	1254.0009	1269.8359	1328.0829	1340.9154	1375.1247	1407.0048	1453.4834	1487.1917	1522.2742	1839.1188	2235.801	2887.8372	2948.1197	2953.6614	2975.0075	3025.3108	3075.1406	3098.8428	3160.2388	3502.5155
O=CCN1CCC1C#C	O=CCN1CC[C@H]1C#C	
InChI=1S/C7H9NO/c1-2-7-3-4-8(7)5-6-9/h1,6-7H,3-5H2	InChI=1S/C7H9NO/c1-2-7-3-4-8(7)5-6-9/h1,6-7H,3-5H2/t7-/m1/s1
