20
gdb 39447	2.35626	2.00754	1.34041	1.8099	78.41	-0.2298	0.0753	0.3051	1008.1686	0.173472	-403.111737	-403.10443	-403.103486	-403.143245	29.752	
C	-0.0671176411	 1.5273679078	-0.0291848492	-0.341046
N	 1.1892033237	 0.7699880995	 0.0278562087	-0.115533
C	 1.9116944313	 0.6999345105	 1.3085162456	-0.15043
C	 1.9328848528	-0.745526934	 1.8186417345	-0.207425
C	 0.514324386	-1.1879162964	 2.2041021839	-0.223831
C	-0.4859145812	-0.9516509117	 1.0755417801	 0.083057
O	-0.4921012902	-2.0040641256	 0.0742017132	-0.301767
C	-0.3524359784	-1.0546062996	-1.0102709522	-0.141746
C	-0.0730357676	 0.0522197556	-0.0057968691	 0.274415
H	-0.3958947977	 2.0460617957	 0.8720164001	 0.108249
H	-0.2468136249	 2.0714279142	-0.953322956	 0.117851
H	 2.9264666282	 1.075808173	 1.1429124369	 0.106532
H	 1.4484584527	 1.3458755337	 2.0728066859	 0.085051
H	 2.3343082972	-1.3965625759	 1.0334090588	 0.117767
H	 2.6018962728	-0.8269589542	 2.6810512809	 0.09744
H	 0.4807027735	-2.2493218778	 2.4728331896	 0.114492
H	 0.1890612677	-0.6232795177	 3.08779757	 0.095288
H	-1.5010992998	-0.8036579634	 1.4699396004	 0.071588
H	 0.4720230689	-1.3050279062	-1.6864726344	 0.112516
H	-1.2852801739	-0.9481505174	-1.5806678876	 0.097533
118.9701	183.2395	242.971	341.1622	377.9508	433.6477	453.111	464.4154	580.5257	629.1136	751.4539	799.505	833.2136	860.8942	883.5711	926.1877	946.5353	983.2017	994.8519	1001.9541	1062.5885	1086.1563	1089.6994	1115.3167	1122.0998	1148.4453	1156.9396	1196.303	1208.723	1236.2579	1280.6931	1296.7924	1330.0749	1352.5987	1365.8045	1379.0468	1392.7475	1444.6157	1466.134	1483.9318	1500.6471	1515.1206	1524.367	2965.3666	2994.1146	3007.742	3025.9299	3040.9389	3063.9888	3071.5284	3076.2336	3080.8768	3089.1262	3167.9124
C1N2CCCC3OCC123	C1N2CCC[C@@H]3OC[C@]123	
InChI=1S/C7H11NO/c1-2-6-7(5-9-6)4-8(7)3-1/h6H,1-5H2	InChI=1S/C7H11NO/c1-2-6-7(5-9-6)4-8(7)3-1/h6H,1-5H2/t6-,7-,8?/m0/s1
