19
gdb 115777	3.24325	0.89591	0.74754	4.6747	73.55	-0.2423	-0.0182	0.2241	1513.758	0.156458	-460.134935	-460.125111	-460.124166	-460.171507	33.381	
C	 0.2548122097	 1.4124309642	 0.1632959025	-0.241297
O	-0.2606457797	 0.1625683036	-0.2457891654	-0.2363
C	 0.5022968945	-0.4560801551	-1.2421115878	 0.066293
C	 1.7557023811	-1.2377878782	-0.7777016508	-0.099333
O	 1.162509662	-2.4943713454	-1.1650862088	-0.293324
C	-0.0413220336	-1.8478815699	-1.6451785732	 0.081168
C	-1.2999577334	-2.3442981531	-0.9379246274	-0.281677
C	-1.4910091502	-3.8345489412	-1.1247451406	 0.149482
O	-2.4977066142	-4.3436446936	-1.5489207542	-0.243784
H	 1.2556530475	 1.319051399	 0.6100975316	 0.112793
H	 0.3156089628	 2.1176451874	-0.6795630391	 0.112351
H	-0.4293077464	 1.8128649044	 0.9142746679	 0.136706
H	 0.6735251456	 0.2307842765	-2.0824463472	 0.079188
H	 2.6832088519	-1.0366109795	-1.3266445052	 0.105319
H	 1.9474305103	-1.1847920521	 0.3009082571	 0.10906
H	-0.1392732416	-1.9788507555	-2.7308440452	 0.089977
H	-1.1988232583	-2.137566428	 0.133977284	 0.132139
H	-2.1849453391	-1.8210531963	-1.3102801127	 0.12415
H	-0.6136624288	-4.4493977574	-0.8304892656	 0.097089
46.9087	61.8807	69.7415	112.0543	130.4874	198.5521	233.099	310.5543	419.5213	428.3332	497.5861	541.7769	788.3938	803.6282	851.6521	886.2548	942.0572	1006.573	1028.3253	1049.9576	1085.7737	1092.7899	1125.1351	1163.7315	1180.8623	1183.6822	1212.3145	1232.8388	1266.7359	1274.7301	1302.9493	1351.9089	1383.1113	1398.2644	1424.2947	1451.6634	1483.2221	1489.7123	1507.7858	1511.4995	1828.5186	2908.6637	2981.0732	3002.1672	3015.1868	3024.3908	3032.2188	3048.3311	3068.586	3112.8572	3124.7532
COC1COC1CC=O	CO[C@H]1CO[C@H]1CC=O	
InChI=1S/C6H10O3/c1-8-6-4-9-5(6)2-3-7/h3,5-6H,2,4H2,1H3	InChI=1S/C6H10O3/c1-8-6-4-9-5(6)2-3-7/h3,5-6H,2,4H2,1H3/t5-,6-/m0/s1
