18
gdb 37717	3.57627	1.93044	1.48498	1.9581	79.87	-0.224	0.0069	0.2309	897.1978	0.150531	-364.716456	-364.710356	-364.709412	-364.746441	26.531	
C	-0.0409861734	 1.5670371391	 0.0332772065	-0.268155
N	 1.4675831559	 1.2718853288	-0.0111859548	-0.184504
C	 1.2307248036	 0.0647582597	 0.9246667158	-0.022116
C	 1.8972064537	-0.9618143641	-0.0025537052	-0.058029
C	 1.2418540787	-2.3570412217	 0.0318573231	-0.298293
C	-0.2780075453	-2.3172772288	 0.0792096948	-0.073908
C	-0.9422603	-1.1568140889	 0.0885751687	-0.211094
C	-0.0585519698	 0.0390868349	 0.0489629636	 0.296805
C	 1.1732098654	 0.0466185574	-0.906261	-0.022118
H	-0.3530615376	 2.0998630114	 0.9381721889	 0.100628
H	-0.4095662694	 2.0820488397	-0.8606136937	 0.100628
H	 1.2803256663	 0.1762895875	 2.0099662525	 0.076
H	 2.9904325236	-0.9934264579	-0.0365819927	 0.071777
H	 1.5618985276	-2.937264404	-0.845383474	 0.114794
H	 1.6166886228	-2.9199872216	 0.8985921188	 0.114794
H	-0.7981755895	-3.2706906267	 0.1049986291	 0.093798
H	-2.0249834186	-1.0943410317	 0.1219633159	 0.092994
H	 1.1545406861	 0.1366157469	-1.9945282873	 0.076
229.21	282.3913	397.263	433.9577	480.9727	535.3493	597.7967	671.9432	756.5765	768.9387	842.0408	846.3475	851.1463	884.938	907.38	918.8393	929.0634	965.3166	984.3384	1022.9197	1043.8322	1051.3576	1096.7266	1116.8841	1126.5525	1151.5453	1165.4269	1193.025	1214.6296	1235.1738	1260.8261	1267.6141	1311.4328	1323.761	1381.3581	1414.2598	1469.3048	1520.5122	1675.4862	3004.745	3026.6575	3031.1952	3063.9556	3087.9455	3090.0097	3095.6547	3161.481	3187.4287
C1N2C3C4CC=CC13C24	C1N2[C@@H]3[C@H]4CC=C[C@@]13[C@@H]24	
InChI=1S/C8H9N/c1-2-5-6-8(3-1)4-9(6)7(5)8/h1,3,5-7H,2,4H2	InChI=1S/C8H9N/c1-2-5-6-8(3-1)4-9(6)7(5)8/h1,3,5-7H,2,4H2/t5-,6-,7+,8-
