20
gdb 9638	3.85306	1.17641	1.06709	0.9336	82.77	-0.2357	0.0578	0.2935	1210.7859	0.174529	-311.833708	-311.82423	-311.823286	-311.867524	35.188	
C	-0.2377676587	 1.5359605672	 0.1406625063	-0.372152
C	 0.1942343585	 0.0839752098	-0.1015504884	-0.208453
C	 0.8430509125	-0.5271724941	 1.1235075596	-0.006709
C	 0.0359594408	-1.196028015	 2.2016868718	-0.317147
C	 0.9738698749	-2.0363061284	 1.3394511516	 0.121566
C	 0.3787459558	-3.0279974955	 0.3485453467	-0.459823
C	 2.1976253595	-2.4842055892	 1.9529984545	 0.279791
C	 3.2219128506	-2.8731484954	 2.4511376707	-0.467127
H	 0.6196297808	 2.1636560936	 0.4066986016	 0.116756
H	-0.7005918325	 1.9647621167	-0.7534935858	 0.111641
H	-0.9611931738	 1.5996409815	 0.9601574454	 0.119259
H	-0.678267112	-0.5053348857	-0.403234855	 0.096696
H	 0.8960226693	 0.0480215401	-0.94487456	 0.102408
H	 1.7040117555	 0.0322774669	 1.480846205	 0.093775
H	 0.3032960738	-1.0365746013	 3.2394947509	 0.120656
H	-1.0265013822	-1.3347362673	 2.0236611837	 0.110498
H	-0.5767117475	-2.6769647519	-0.0477632466	 0.11534
H	 1.0573948829	-3.1971784415	-0.4934570139	 0.12643
H	 0.2053076085	-3.9916630053	 0.8371605315	 0.127916
H	 4.1253879032	-3.2112559553	 2.8940736703	 0.188677
76.7671	129.0637	133.3589	173.8016	220.8087	231.9734	278.2821	334.7446	399.7285	427.8629	541.6336	557.5885	582.751	639.0558	677.276	774.5026	806.8223	870.7767	928.5482	941.6123	953.6564	1005.9157	1056.1763	1063.2789	1106.1169	1116.0633	1135.776	1197.9063	1268.2795	1294.8959	1303.3354	1347.8927	1408.8824	1415.8983	1424.3057	1478.6382	1485.8209	1491.6922	1497.8944	1501.815	1508.5914	2230.4503	3023.5061	3032.7593	3040.6065	3063.8648	3101.8428	3104.4059	3106.126	3122.4963	3128.0277	3140.3891	3220.8776	3504.077
CCC1CC1(C)C#C	CC[C@H]1C[C@]1(C)C#C	
InChI=1S/C8H12/c1-4-7-6-8(7,3)5-2/h2,7H,4,6H2,1,3H3	InChI=1S/C8H12/c1-4-7-6-8(7,3)5-2/h2,7H,4,6H2,1,3H3/t7-,8-/m0/s1
