16
gdb 75983	2.12811	1.89038	1.085	5.1874	66.11	-0.2497	-0.0283	0.2214	1066.4689	0.125463	-475.076562	-475.068576	-475.067632	-475.109361	29.931	
O	 0.1680853238	 1.3183835466	 0.3179242409	-0.417974
C	-0.0279465559	-0.0171588399	 0.0021633046	-0.038172
C	-1.4980868984	-0.4233212741	-0.0653540496	 0.350458
O	-2.417737353	 0.3214219199	 0.1457493781	-0.283683
C	-1.6505714025	-1.8850755783	-0.4699890386	-0.310317
C	-1.0408809126	-2.1002980183	-1.8645196089	-0.170122
N	 0.2840993289	-1.488837247	-1.9750177953	-0.316834
C	 0.6871091305	-0.364025362	-1.3231525925	 0.364057
O	 1.6052497751	 0.3430402916	-1.6982402326	-0.376279
H	 0.917681871	 1.5983335703	-0.232467929	 0.299013
H	 0.431644828	-0.6880478939	 0.7557273593	 0.112626
H	-1.1298330657	-2.5178381422	 0.2579298427	 0.131398
H	-2.7083548948	-2.152214115	-0.4757130971	 0.136857
H	-0.9478812231	-3.1702779942	-2.0725975814	 0.128487
H	-1.7157702881	-1.6759735287	-2.6206613719	 0.133469
H	 0.7887547669	-1.651135995	-2.8365503888	 0.257017
79.123	120.7025	176.6664	272.1252	320.4354	385.9481	412.0274	467.6186	498.362	569.0215	588.9633	624.0961	673.6869	730.0259	869.9179	881.44	900.6803	930.0251	1049.2422	1093.2846	1124.789	1193.8773	1205.6232	1236.8516	1245.1036	1316.083	1335.7466	1377.8033	1403.3664	1421.2903	1469.2148	1483.4786	1531.1949	1782.5857	1850.4429	2907.5492	3009.9437	3049.1475	3077.5734	3131.8672	3588.3224	3686.6126
OC1C(=O)CCNC1=O	O[C@H]1C(=O)CCNC1=O	
InChI=1S/C5H7NO3/c7-3-1-2-6-5(9)4(3)8/h4,8H,1-2H2,(H,6,9)	InChI=1S/C5H7NO3/c7-3-1-2-6-5(9)4(3)8/h4,8H,1-2H2,(H,6,9)/t4-/m0/s1
