21
gdb 126331	1.7506	1.66582	0.96381	1.9585	85.16	-0.2282	0.0278	0.256	1304.9113	0.18359	-383.309049	-383.299411	-383.298467	-383.344865	35.017	
C	 0.2026680235	 1.5168430807	 0.1570805183	-0.369531
C	 0.0755549789	-0.0156152864	 0.0996657767	-0.310437
C	-1.342529776	-0.5071558893	 0.0429762065	 0.144266
C	-2.1319118131	-0.9021374649	 1.1056263852	-0.11876
N	-3.3346895865	-1.2505502944	 0.5909530413	-0.189092
N	-3.391124471	-1.1201866811	-0.7469930609	-0.291162
C	-2.1867488143	-0.6637875913	-1.0932216908	 0.265253
C	-1.88185652	-0.3752514413	-2.5350188849	-0.28062
C	-2.4496919948	 0.9702423495	-3.0186505197	-0.372695
H	 1.25336012	 1.8216235685	 0.2047569826	 0.108632
H	-0.2445259598	 1.9839424569	-0.7257743689	 0.125938
H	-0.3092620367	 1.917812062	 1.0375644598	 0.115985
H	 0.6286272918	-0.3875237619	-0.7714915601	 0.105306
H	 0.5723891322	-0.447600772	 0.9763484146	 0.100031
H	-1.9245229313	-0.9681797742	 2.1627597671	 0.127008
H	-4.1375708968	-1.6051555648	 1.0811382136	 0.27037
H	-0.7969216818	-0.3934131819	-2.6875411478	 0.097432
H	-2.3001584322	-1.1803371641	-3.1486088677	 0.115393
H	-2.0353522236	 1.806929055	-2.4467378099	 0.118402
H	-2.2181807729	 1.1355810762	-4.0758493547	 0.107013
H	-3.5364084457	 0.9900746985	-2.8970646403	 0.131266
24.3917	57.5237	148.1361	169.8517	190.6713	221.4584	288.0965	337.3031	416.4241	452.6966	496.1877	610.9362	671.0314	693.7445	761.8037	780.0309	789.8605	797.0887	951.935	960.7474	982.3434	1050.9216	1065.0003	1080.1952	1083.3386	1096.2098	1170.6847	1228.9834	1277.8416	1286.6959	1321.4327	1352.9051	1363.6148	1402.3535	1407.0056	1411.4617	1472.4224	1478.4902	1487.92	1492.357	1498.0906	1500.7682	1504.7316	1517.4048	1599.3984	3025.7009	3034.0406	3035.4614	3039.0303	3057.446	3074.9924	3103.368	3104.7828	3110.7861	3117.7902	3251.8013	3678.8097
CCC1=CNN=C1CC	CCc1c[nH]nc1CC	
InChI=1S/C7H12N2/c1-3-6-5-8-9-7(6)4-2/h5H,3-4H2,1-2H3,(H,8,9)	InChI=1S/C7H12N2/c1-3-6-5-8-9-7(6)4-2/h5H,3-4H2,1-2H3,(H,8,9)
