16
gdb 12767	2.98021	1.97897	1.58448	1.594	64.62	-0.2423	-0.025	0.2173	854.8916	0.12914	-383.712436	-383.70485	-383.703906	-383.744427	28.331	
O	 0.0684173098	 1.402277635	 0.2371690415	-0.464487
C	 0.0400821079	 0.0256166053	 0.1433417165	 0.411073
C	-0.1808141113	-0.6984733457	-1.1540117411	-0.336779
C	-1.1742985133	-0.8777646363	-0.0287137284	-0.104149
C	-0.6113800272	-1.8760699117	 0.9924080164	-0.259427
C	 0.6135589031	-0.9066159347	 1.2133584803	-0.162081
C	 2.0124655452	-1.432768348	 1.0385453865	 0.138597
O	 2.8051331278	-1.0036584096	 0.2364181724	-0.250785
H	 0.8718741313	 1.7099273738	-0.1981932253	 0.293655
H	-0.5236892674	-0.048235944	-1.9524016729	 0.117284
H	 0.4608853366	-1.5148138952	-1.4755672593	 0.113509
H	-2.217995722	-0.611500525	-0.1344198877	 0.099227
H	-1.2199758237	-1.9922137657	 1.8904106648	 0.114616
H	-0.3711746873	-2.8676453648	 0.5952165932	 0.10554
H	 0.5430004365	-0.4578438819	 2.2116128139	 0.10964
H	 2.2877333539	-2.2731081514	 1.7188395293	 0.074566
74.9808	148.8384	168.8584	297.2269	324.6425	368.3687	413.2106	453.2106	586.3622	677.9189	727.8224	791.6718	851.8949	890.1042	892.7785	972.5417	993.0288	1015.2769	1028.1201	1052.9522	1081.5769	1111.3239	1162.0836	1179.5085	1226.2597	1234.9062	1286.2067	1316.4957	1338.0436	1410.9266	1423.4711	1482.8061	1508.6878	1817.6915	2853.1992	3044.5434	3051.2726	3112.2859	3118.3963	3197.2564	3208.2723	3790.8054
OC12CC1CC2C=O	O[C@]12C[C@H]1C[C@H]2C=O	
InChI=1S/C6H8O2/c7-3-5-1-4-2-6(4,5)8/h3-5,8H,1-2H2	InChI=1S/C6H8O2/c7-3-5-1-4-2-6(4,5)8/h3-5,8H,1-2H2/t4-,5+,6-/m1/s1
