19
gdb 41748	3.60401	1.58002	1.47461	1.6483	73.32	-0.2408	0.0892	0.33	955.599	0.16345	-423.009537	-423.0031	-423.002156	-423.03998	27.203	
C	-0.0011952019	 1.5276497477	-0.0161374287	-0.244046
C	 1.5465881148	 1.7783540388	-0.0313154359	-0.237702
C	 2.0284420328	 0.3276813943	 0.016493578	-0.05983
C	 1.0883959846	-0.3963320199	-0.9996439309	 0.1385
O	 1.3574859209	-1.7871490187	-1.0776375212	-0.283556
C	 1.0045475941	-2.443996496	 0.1160856576	 0.019124
O	 1.3673953914	-1.7068536959	 1.2588681108	-0.283556
C	 1.0972489427	-0.3245939806	 1.087863294	 0.1385
C	-0.019040317	-0.0053497225	 0.0366210175	-0.102837
H	-0.4919562926	 1.9733058267	 0.8538519707	 0.104328
H	-0.49943764	 1.9126739633	-0.9104797424	 0.104328
H	 1.8777875052	 2.2987958063	-0.9346204936	 0.102931
H	 1.8852747988	 2.3594820192	 0.8312936051	 0.102931
H	 3.0975029148	 0.1180368668	 0.0191643133	 0.07041
H	 1.0198709835	-0.0192076596	-2.0234729737	 0.076669
H	-0.0813046246	-2.6343708192	 0.1272334122	 0.087075
H	 1.5451594264	-3.3930878898	 0.1464089464	 0.118267
H	 1.03728935	 0.1219452592	 2.0839315275	 0.076669
H	-0.9960232439	-0.4878750599	 0.0573463135	 0.071795
255.2528	264.6018	289.639	314.8427	400.446	499.873	529.4633	643.901	695.8678	815.9585	818.2179	888.495	903.6842	939.6476	953.9215	963.9909	964.7944	988.484	1012.4724	1024.5229	1041.7418	1069.9528	1102.776	1143.1956	1144.8867	1202.7277	1204.2957	1226.9304	1240.5194	1250.7959	1262.3204	1271.024	1281.3725	1319.8908	1323.1068	1356.6043	1401.9881	1445.5069	1492.2914	1512.6304	1529.8983	2960.412	3049.0009	3057.5681	3074.4088	3077.5022	3084.0712	3099.0369	3103.6621	3119.3261	3128.737
C1CC2C3OCOC2C13	C1C[C@@H]2[C@H]3OCO[C@@H]2[C@@H]13	
InChI=1S/C7H10O2/c1-2-5-6-4(1)7(5)9-3-8-6/h4-7H,1-3H2	InChI=1S/C7H10O2/c1-2-5-6-4(1)7(5)9-3-8-6/h4-7H,1-3H2/t4-,5+,6-,7+
