21
gdb 104593	2.3135	1.29201	0.96604	3.2077	79.24	-0.2335	-0.007	0.2265	1297.9227	0.179107	-424.223041	-424.212717	-424.211773	-424.25907	37.167	
C	 1.128599471	 0.1884266809	-1.0596521454	-0.252691
O	 0.261606514	 0.2514037721	 0.058234258	-0.280603
C	 0.5792280742	-0.6345759952	 1.1000070393	 0.42905
C	 1.7704335704	-0.2269122637	 1.9675830006	-0.368078
C	 1.413392013	 0.9459822343	 2.8821133281	 0.395613
C	 1.4264240846	 2.3265243729	 2.2595958119	-0.481808
O	 1.1057798916	 0.7555954432	 4.0370552958	-0.306039
C	-0.6107065192	-1.2584146911	 1.7627235439	-0.307203
C	 0.2852137892	-2.0986604851	 0.8741383919	-0.329071
H	 1.1746996704	-0.8258308214	-1.4781653751	 0.11333
H	 0.7214200535	 0.868152251	-1.8115689259	 0.130136
H	 2.1509111089	 0.5095343784	-0.8158597953	 0.108265
H	 2.0508368033	-1.0652783347	 2.6090882285	 0.121752
H	 2.627876931	 0.0205827738	 1.3310770751	 0.103641
H	 2.4390004951	 2.5745253224	 1.9191641742	 0.130425
H	 0.7829218478	 2.330564529	 1.3736365248	 0.160575
H	 1.0906471718	 3.0698318415	 2.9835466213	 0.13586
H	-0.5721508969	-1.4019732657	 2.8364482531	 0.135086
H	-1.5818811078	-0.9845659004	 1.3679410133	 0.12525
H	-0.1095956019	-2.3773781933	-0.0965243252	 0.119338
H	 0.9334018461	-2.8387390988	 1.3303597571	 0.117173
46.1572	63.0037	106.9686	146.0631	174.1536	200.8622	254.5539	307.6858	319.3568	377.2233	429.0377	517.7268	525.7465	599.2365	723.3057	775.955	800.4607	874.0459	903.5799	923.4127	942.415	972.0097	1030.826	1054.9184	1068.7101	1084.3238	1103.4065	1145.2104	1182.0941	1189.3165	1219.9609	1244.2955	1282.4922	1307.7429	1347.9258	1381.4545	1455.5467	1460.1052	1470.4763	1473.5046	1478.4763	1494.5038	1497.4516	1508.3056	1808.3154	2996.0419	3033.6699	3040.8592	3049.9324	3100.3622	3112.7969	3120.565	3134.6593	3145.3761	3153.6243	3220.1975	3238.6852
COC1(CC(C)=O)CC1	COC1(CC(=O)C)CC1	
InChI=1S/C7H12O2/c1-6(8)5-7(9-2)3-4-7/h3-5H2,1-2H3	InChI=1S/C7H12O2/c1-6(8)5-7(9-2)3-4-7/h3-5H2,1-2H3
