15
gdb 48461	1.90476	1.70213	1.28885	3.5235	69.63	-0.2634	-0.0622	0.2012	1039.8193	0.109126	-457.784697	-457.775947	-457.775003	-457.818908	30.489	
O	-0.5874922174	 0.5849096667	 0.6827539607	-0.244852
C	 0.1134582157	 0.9880930608	-0.2072806988	 0.119653
C	 1.2318114877	 2.0017160566	-0.000935102	-0.002939
C	 1.3285262881	 2.5850117263	 1.4268789818	-0.30102
C	 2.4881295328	 1.611945889	 1.7908723822	-0.328323
C	 2.5708793681	 1.1964324831	 0.3255605857	 0.366241
O	 3.3270659952	 0.5892352341	-0.3583537875	-0.249298
C	 1.3641048288	 2.8994616625	-1.205549371	 0.085982
O	 1.3455700032	 2.4899638249	-2.3374086509	-0.241363
H	 0.0207107534	 0.6453663054	-1.254946039	 0.132379
H	 1.632517642	 3.6345401861	 1.4269388691	 0.11854
H	 0.4188637965	 2.4610557589	 2.0130682413	 0.142699
H	 3.4092738456	 2.0300885177	 2.2042084275	 0.144695
H	 2.1704627953	 0.7725174538	 2.4178229141	 0.160699
H	 1.4983779651	 3.977970804	-0.9698312535	 0.096907
63.5561	90.678	107.6691	179.9809	214.8171	262.4495	279.3991	442.7016	471.4519	507.0275	611.228	705.5607	724.6583	760.374	828.1357	936.2486	945.7508	978.7232	1016.673	1071.6005	1093.5128	1173.7641	1191.1033	1225.5187	1242.9926	1277.2532	1387.4332	1407.8076	1434.7623	1476.1276	1794.5456	1813.4891	1915.4982	2888.2006	2968.3633	3062.7493	3078.2363	3118.9784	3151.9604
O=CC1(CCC1=O)C=O	O=CC1(CCC1=O)C=O	
InChI=1S/C6H6O3/c7-3-6(4-8)2-1-5(6)9/h3-4H,1-2H2	InChI=1S/C6H6O3/c7-3-6(4-8)2-1-5(6)9/h3-4H,1-2H2
