25
gdb 101841	4.69428	0.57734	0.54069	1.419	90.19	-0.2567	0.0724	0.3291	2147.1651	0.227317	-389.486209	-389.475191	-389.474246	-389.523263	40.288	
C	 0.0292570896	 1.5549632264	 0.0269783866	-0.380189
C	-0.0446451334	 0.032276934	 0.1614657814	-0.18624
C	-1.4603021085	-0.5259064996	-0.0343051814	 0.134933
O	-1.9952006418	-0.1518406135	-1.3060347511	-0.428681
C	-1.5249144345	-2.0433272134	 0.1770871716	-0.194321
C	-2.9422297791	-2.6188991637	 0.0635272345	-0.204611
C	-2.9883458616	-4.1239767571	 0.2189441805	 0.034673
C	-3.038125561	-4.7516214342	 1.5905957795	-0.255898
C	-4.2455491512	-4.8111184187	 0.6852641504	-0.276943
H	 1.0593680887	 1.9129313214	 0.1160059298	 0.107219
H	-0.3666167092	 1.8753300389	-0.9402370089	 0.126359
H	-0.5641903689	 2.0470101078	 0.8056191729	 0.113136
H	 0.6219674748	-0.441924811	-0.5744290195	 0.082612
H	 0.323931569	-0.2787213223	 1.1471264712	 0.095023
H	-2.1320990925	-0.0399345807	 0.6869369355	 0.082103
H	-1.435290469	-0.5511623908	-1.9820219167	 0.274367
H	-0.8683798324	-2.5295668579	-0.5611846695	 0.079101
H	-1.1041819037	-2.2863697419	 1.1610926324	 0.096568
H	-3.5810881275	-2.15861613	 0.8299341141	 0.087372
H	-3.3681906725	-2.3241907123	-0.9023345648	 0.107138
H	-2.404771121	-4.6668482169	-0.5218483906	 0.075338
H	-2.4813714194	-5.6651281455	 1.7687031277	 0.107388
H	-3.0837556406	-4.0875268478	 2.4482748732	 0.106349
H	-5.0977587119	-4.1879828897	 0.9371711592	 0.109268
H	-4.5112024327	-5.7650309916	 0.2428948719	 0.107933
53.4298	55.8223	89.7796	120.1905	141.6596	215.598	221.2362	262.9769	303.4452	322.5058	389.2445	432.4431	480.1885	540.3735	758.3171	772.8935	778.5339	820.6053	839.1812	861.752	916.0071	951.344	963.5797	1008.2781	1020.1715	1049.8795	1062.1209	1068.8369	1077.5167	1111.2886	1121.4865	1139.3306	1156.423	1199.1027	1224.8426	1233.5558	1262.1244	1270.0558	1307.0348	1324.9016	1362.6661	1377.864	1392.919	1404.4256	1418.3809	1421.9353	1468.6793	1473.0761	1483.2963	1494.2078	1496.4688	1509.461	1509.7857	2989.2892	2997.4332	3013.7543	3022.001	3036.511	3041.8267	3053.2345	3070.7718	3100.773	3121.3748	3124.6599	3126.0341	3131.8482	3203.2923	3218.6629	3787.8919
CCC(O)CCC1CC1	CC[C@@H](O)CCC1CC1	
InChI=1S/C8H16O/c1-2-8(9)6-5-7-3-4-7/h7-9H,2-6H2,1H3	InChI=1S/C8H16O/c1-2-8(9)6-5-7-3-4-7/h7-9H,2-6H2,1H3/t8-/m1/s1
