15
gdb 13735	3.08715	1.59333	1.33859	2.6505	68.37	-0.2422	-0.022	0.2202	955.7565	0.116372	-362.616621	-362.608273	-362.607329	-362.64981	30.006	
C	 1.0059773006	 0.4543061793	 0.7134078264	-0.490045
C	-0.0441220605	-0.0035422724	-0.270448325	 0.39257
O	-0.1340426879	 0.4343181601	-1.3960119753	-0.305974
C	-1.0141457648	-1.0764777571	 0.1603461548	-0.121826
N	-0.7501222129	-1.8339150628	 1.3859693044	-0.321828
C	-1.9273942081	-0.955167588	 1.3616461379	-0.235014
C	-1.9650456477	 0.1775026296	 2.2453156276	 0.374959
C	-2.0596684013	 1.1204079451	 2.9851369949	-0.425746
H	 1.6561439472	 1.1837484425	 0.2296468953	 0.134256
H	 0.5315083916	 0.8976133127	 1.5944871988	 0.158103
H	 1.5831968321	-0.4030028232	 1.0724023627	 0.150752
H	-1.4613466521	-1.5812837261	-0.6933077797	 0.109918
H	-1.030795542	-2.8049712954	 1.2790728751	 0.247772
H	-2.8982677399	-1.4264723637	 1.2179044959	 0.125064
H	-2.1317009042	 1.9537744395	 3.639805066	 0.207039
54.3839	117.8215	139.6968	196.6466	257.7534	267.9279	449.7634	479.1045	518.2426	567.4499	621.7778	642.9651	667.215	729.1776	815.6972	863.4212	942.1504	969.7183	994.6887	1054.6664	1088.7799	1162.1691	1195.3287	1225.5273	1275.1425	1385.3163	1394.4328	1434.1561	1459.5634	1469.5117	1801.3658	2240.0114	3050.9495	3116.4023	3119.3101	3141.2492	3159.4397	3501.077	3511.1889
CC(=O)C1NC1C#C	CC(=O)[C@H]1N[C@H]1C#C	
InChI=1S/C6H7NO/c1-3-5-6(7-5)4(2)8/h1,5-7H,2H3	InChI=1S/C6H7NO/c1-3-5-6(7-5)4(2)8/h1,5-7H,2H3/t5-,6+/m0/s1
