19
gdb 96414	2.02192	1.67215	1.20082	4.9588	74.7	-0.2382	0.0244	0.2627	1104.1359	0.161463	-419.221138	-419.212619	-419.211675	-419.254042	32.708	
O	-0.1153335573	 1.4329452404	 0.0111488995	-0.42062
C	-0.0240182462	 0.0240350223	-0.0093439922	 0.124666
C	-1.4382940732	-0.5421927118	 0.0856569492	-0.206844
C	-1.4212108456	-2.0759407183	 0.0050122744	-0.210591
C	-0.6708276237	-2.5444686698	-1.2506403814	-0.168063
N	 0.6773332734	-1.9751035804	-1.3854970969	-0.282413
C	 0.6931293761	-0.5128787221	-1.2837732802	-0.198379
C	 0.1043173709	 0.0778767682	-2.5003568979	 0.325894
N	-0.3606588674	 0.5355046115	-3.4536064216	-0.332306
H	 0.7713936783	 1.8081249033	-0.0116321924	 0.287139
H	 0.5682136671	-0.3465380318	 0.8452958929	 0.066042
H	-1.896456116	-0.1959894234	 1.0170088153	 0.109467
H	-2.0311065129	-0.1244414331	-0.7371352126	 0.130664
H	-0.9298636994	-2.4896239204	 0.8965388038	 0.091573
H	-2.4450459948	-2.4662796832	 0.0000603471	 0.105265
H	-0.5729431248	-3.6340006923	-1.2668665824	 0.107993
H	-1.2377862661	-2.2633512343	-2.1468685462	 0.132422
H	 1.2868260681	-2.3515427211	-0.6661416984	 0.224215
H	 1.7434832734	-0.1940174437	-1.2567849098	 0.113875
97.4014	147.1703	175.16	255.9186	283.5503	324.5229	339.8398	401.3066	433.4449	445.7193	549.2956	629.392	661.1512	736.1514	786.8436	868.4221	883.9116	917.7532	948.4601	1005.3503	1029.5052	1085.3659	1110.5373	1127.6214	1139.2443	1170.9229	1212.8121	1271.0888	1280.5101	1306.6049	1340.933	1351.0049	1374.739	1383.0863	1386.786	1436.7848	1481.7903	1487.7707	1498.2334	1501.1137	2361.2338	2949.1005	3013.7302	3025.3893	3036.6463	3042.2547	3069.7527	3088.4186	3091.7495	3519.6047	3809.0449
OC1CCCNC1C#N	O[C@H]1CCCN[C@H]1C#N	
InChI=1S/C6H10N2O/c7-4-5-6(9)2-1-3-8-5/h5-6,8-9H,1-3H2	InChI=1S/C6H10N2O/c7-4-5-6(9)2-1-3-8-5/h5-6,8-9H,1-3H2/t5-,6-/m0/s1
