21
gdb 124441	3.09375	1.17083	1.04518	2.1959	83.6	-0.231	0.0243	0.2553	1252.7613	0.183084	-383.302776	-383.293476	-383.292532	-383.337706	35.499	
C	-0.0367198425	 1.5470198586	 0.0451997233	-0.411092
C	-0.0084376781	 0.0080952373	 0.0197179725	 0.136298
C	 0.7320714565	-0.5000049005	 1.2763816719	-0.395247
C	-1.4599258204	-0.5197598925	 0.0380021397	-0.395197
C	 0.7004926766	-0.4856908962	-1.2273453943	 0.232948
C	 0.9274758709	-1.7987416351	-1.6054964311	-0.141653
N	 1.59267299	-1.7586800944	-2.785088031	-0.176994
N	 1.8252309505	-0.5089781932	-3.2202615252	-0.235693
C	 1.2858327447	 0.2622476519	-2.2785951093	-0.111072
H	 0.9749073107	 1.9654489552	 0.0491084833	 0.115363
H	-0.5681368622	 1.9515483105	-0.8222337587	 0.11536
H	-0.5485687009	 1.9010798707	 0.9459087592	 0.106377
H	 0.2336601075	-0.1506063783	 2.1877254355	 0.105848
H	 0.7576046284	-1.5940575138	 1.3076087394	 0.10518
H	 1.7659231325	-0.1415495643	 1.2934743792	 0.115816
H	-2.0128926877	-0.1756116609	-0.8414414118	 0.115813
H	-1.4848719951	-1.6142636373	 0.0406745344	 0.105185
H	-1.9880868541	-0.170592123	 0.9325268824	 0.105839
H	 0.6723881734	-2.7358813016	-1.1360979463	 0.128299
H	 1.9127426016	-2.5354487974	-3.3379624256	 0.272406
H	 1.3351203675	 1.3352709543	-2.3856633575	 0.106215
13.3847	151.7241	200.8037	227.121	273.5414	295.2002	324.9067	335.0738	339.6213	443.2903	462.654	519.0589	582.4274	682.8491	707.5059	795.626	829.2521	892.5135	927.7326	934.702	955.5446	958.1867	992.865	1042.0458	1051.1899	1068.3138	1167.9441	1198.6635	1226.6924	1229.5741	1266.6686	1334.8017	1378.2675	1395.5979	1396.6553	1402.3613	1429.5249	1478.1936	1482.3753	1486.1038	1494.9909	1501.7358	1503.2827	1518.3881	1597.3216	3023.8129	3026.1599	3033.5626	3090.863	3094.9666	3100.6769	3102.1388	3105.4972	3106.9217	3251.928	3256.7961	3674.921
CC(C)(C)C1=CNN=C1	CC(C)(C)c1c[nH]nc1	
InChI=1S/C7H12N2/c1-7(2,3)6-4-8-9-5-6/h4-5H,1-3H3,(H,8,9)	InChI=1S/C7H12N2/c1-7(2,3)6-4-8-9-5-6/h4-5H,1-3H3,(H,8,9)
