18
gdb 57065	2.71192	1.2191	0.90967	2.9046	72.22	-0.2594	0.0029	0.2623	1260.2855	0.146261	-439.070902	-439.061448	-439.060503	-439.105877	33.581	
C	-0.3753606895	 1.4965211246	-0.083295891	-0.397691
C	 0.1480926441	 0.0757364036	-0.0671333166	 0.135769
O	 1.458277516	-0.0471987608	-0.6737833766	-0.286834
C	 1.9353601843	-0.8717551237	 0.4049281592	-0.088745
C	 0.6651233397	-0.5965152903	 1.237751471	-0.082396
C	 0.8653315665	 0.3178688861	 2.4498987817	-0.03214
O	-0.3530352491	 0.7691540846	 3.0112873607	-0.412527
C	 1.6990978868	-0.3661883078	 3.4626781727	 0.258195
N	 2.3227187236	-0.9335653447	 4.2531059889	-0.312864
H	 0.3229719593	 2.1920258146	 0.3895150826	 0.122663
H	-0.5156941285	 1.817273376	-1.1200683665	 0.128538
H	-1.3348912235	 1.5606553778	 0.4367219699	 0.130851
H	-0.5669651679	-0.5842504522	-0.5800538405	 0.079319
H	 2.061680274	-1.9194848225	 0.1056422851	 0.110697
H	 2.8826287681	-0.5063128116	 0.8193581416	 0.116724
H	 0.1080429803	-1.4839555462	 1.5504873717	 0.086258
H	 1.3976284338	 1.22414463	 2.1422614334	 0.148585
H	-0.827719158	 0.0051500825	 3.3593578027	 0.2956
51.0857	79.6425	118.6311	188.9298	208.5831	259.9974	263.2473	324.4509	356.2698	404.2544	522.9584	533.878	606.1425	743.7821	849.9995	882.1167	896.921	931.8958	1008.3903	1028.0804	1050.0681	1088.5805	1097.9707	1148.2258	1157.1184	1180.4491	1236.4088	1252.8845	1293.7567	1306.7437	1361.6728	1385.364	1392.9288	1410.921	1421.1355	1474.2146	1498.9759	1528.0524	2353.2488	2989.7977	3018.5847	3046.2173	3058.8729	3064.3877	3079.9315	3117.153	3129.1301	3799.2809
CC1OCC1C(O)C#N	C[C@H]1OC[C@H]1[C@@H](O)C#N	
InChI=1S/C6H9NO2/c1-4-5(3-9-4)6(8)2-7/h4-6,8H,3H2,1H3	InChI=1S/C6H9NO2/c1-4-5(3-9-4)6(8)2-7/h4-6,8H,3H2,1H3/t4-,5-,6+/m1/s1
