18
gdb 63417	4.00449	0.99374	0.94759	2.2739	78.02	-0.225	-0.0143	0.2107	1284.1185	0.146869	-439.122675	-439.113794	-439.112849	-439.156415	33.185	
C	-0.2149531238	 1.6050817496	-0.0084633499	-0.415565
C	 0.0431244116	 0.1013951084	 0.0318496791	 0.342349
O	-1.2538571381	-0.5063749881	 0.0132252937	-0.46041
C	 0.9221378537	-0.3881958216	-1.1679423526	-0.237487
N	 1.8968565816	-1.3053425288	-0.5618411288	-0.06677
C	 2.7698434958	-2.1120980064	-1.2353828451	 0.145368
O	 3.5867978988	-2.8372713354	-0.7094328657	-0.325116
C	 1.8293063065	-1.1940145391	 0.8306645691	 0.003365
C	 0.846687923	-0.3785202969	 1.2237066015	-0.244079
H	 0.7241296408	 2.1639082358	-0.0038213504	 0.119582
H	-0.7794952449	 1.8674394085	-0.9088422738	 0.127278
H	-0.8073367499	 1.903303245	 0.8603401506	 0.128467
H	-1.1492806826	-1.4202925404	 0.300278294	 0.278271
H	 0.2996310659	-0.8916494095	-1.9110751874	 0.131694
H	 1.4405951436	 0.4491945774	-1.6465310731	 0.122091
H	 2.6431964679	-2.0281966201	-2.3318061518	 0.078159
H	 2.5476664522	-1.7552035075	 1.4101160449	 0.161112
H	 0.5909633779	-0.1381502209	 2.2457142356	 0.111689
46.9332	146.8085	204.2363	230.1318	242.9324	315.0365	324.5101	343.243	374.023	412.4526	520.4368	587.189	664.6346	771.219	780.338	824.9828	906.2081	907.7907	946.9127	954.0183	979.6507	1025.937	1075.213	1111.82	1157.8769	1209.4547	1236.5186	1245.6425	1304.4396	1313.9693	1378.851	1412.536	1435.212	1442.0285	1483.8797	1493.8004	1503.5028	1665.4008	1791.7241	2950.7195	3041.8607	3046.6062	3108.4067	3117.0926	3130.1991	3235.8311	3262.8461	3802.918
CC1(O)CN(C=O)C=C1	C[C@@]1(O)CN(C=O)C=C1	
InChI=1S/C6H9NO2/c1-6(9)2-3-7(4-6)5-8/h2-3,5,9H,4H2,1H3	InChI=1S/C6H9NO2/c1-6(9)2-3-7(4-6)5-8/h2-3,5,9H,4H2,1H3/t6-/m0/s1
