20
gdb 93540	3.11066	1.22492	0.96756	3.8303	81.65	-0.2324	0.0111	0.2435	1254.8687	0.172691	-403.196564	-403.187895	-403.186951	-403.229965	33.307	
C	-0.0520875702	 1.5722742401	 0.0046109355	-0.395563
C	-0.012573928	 0.0332440913	 0.0189481245	-0.023545
C	 0.6201471387	-0.4899421836	-1.2798862026	-0.184028
N	 0.6000013496	-1.9347256544	-1.4182488462	-0.290752
C	 1.3398304155	-2.8254919217	-0.6930445543	 0.385958
O	 1.2387399007	-4.027235031	-0.8473086343	-0.364608
C	 2.3094383941	-2.2047699639	 0.3157080639	-0.373725
C	 1.6543423164	-1.3632167324	 1.3904223797	-0.08809
C	 0.6805775465	-0.4600500842	 1.2660257162	-0.024905
H	 0.9590966215	 1.9898695368	-0.0537314953	 0.121851
H	-0.6246441981	 1.9457296311	-0.8509153772	 0.113414
H	-0.5185350984	 1.9600949859	 0.9150779856	 0.120603
H	-1.053471942	-0.3252660483	 0.0462381309	 0.088224
H	 0.0818871195	-0.0733710643	-2.136046699	 0.110476
H	 1.6507572796	-0.1193279814	-1.3549454792	 0.117265
H	-0.0659369451	-2.3582403161	-2.0463688127	 0.245527
H	 2.8350918084	-3.0448811852	 0.7712527308	 0.131726
H	 3.0652723951	-1.6214877959	-0.2288179194	 0.128078
H	 2.0257767141	-1.5545818808	 2.3942774594	 0.097227
H	 0.3268434721	 0.013719368	 2.1811052436	 0.084868
66.1743	99.4866	220.5743	253.9604	283.0825	308.8048	347.2667	385.3065	456.392	496.4137	537.3008	612.3384	644.9753	708.3677	741.8855	825.523	874.8383	918.703	932.6953	965.1996	1000.5709	1010.6489	1062.3825	1093.0493	1130.5557	1165.242	1188.5629	1256.607	1286.4173	1310.8695	1327.7705	1337.971	1383.3154	1400.3483	1407.6653	1433.783	1463.2848	1472.1547	1493.4592	1499.448	1503.5279	1725.4786	1796.9966	2981.9659	3013.519	3025.7333	3031.5476	3086.5937	3100.083	3106.6367	3118.8041	3126.3319	3158.1204	3623.8841
CC1CNC(=O)CC=C1	C[C@H]1CNC(=O)CC=C1	
InChI=1S/C7H11NO/c1-6-3-2-4-7(9)8-5-6/h2-3,6H,4-5H2,1H3,(H,8,9)	InChI=1S/C7H11NO/c1-6-3-2-4-7(9)8-5-6/h2-3,6H,4-5H2,1H3,(H,8,9)/t6-/m1/s1
