16
gdb 34160	3.87062	1.58229	1.37674	1.8462	77.77	-0.2333	0.0318	0.2651	938.5939	0.125161	-363.490787	-363.484228	-363.483284	-363.521483	27.274	
C	 0.0296187138	-1.1586077621	-0.0080173446	-0.353798
C	-0.012382222	 0.0438566231	 0.0033819997	 0.053026
C	-0.0772315816	 1.4742443597	 0.0252258217	 0.257287
C	-1.095831676	 2.2729662262	 0.8951859878	-0.294111
C	-0.8333467916	 3.4269983627	-0.0996791633	-0.098229
C	 0.6846021246	 3.6994947193	-0.0743715257	-0.041537
C	 1.2272402565	 2.3172327919	 0.0071423684	-0.101876
N	 0.997368043	 2.9425539937	-1.3363608507	-0.177501
C	-0.4279101757	 2.4019652457	-1.2058433463	-0.027128
H	 0.0709973254	-2.21944441	-0.0214519918	 0.182819
H	-2.1036524467	 1.8608479233	 0.7909323136	 0.114213
H	-0.8545093144	 2.4234966046	 1.9508191266	 0.105499
H	-1.5225545342	 4.2542379653	-0.2485102774	 0.08378
H	 1.2240317311	 4.5955423913	 0.2064370545	 0.100781
H	 2.2131748587	 2.035530552	 0.3542297988	 0.103145
H	-1.0007280608	 2.1042058333	-2.0804476813	 0.093629
145.5368	156.8065	387.7252	448.1282	507.6163	523.4011	567.9144	626.6737	632.4286	731.4456	762.8036	793.6736	813.9634	852.1189	858.5555	898.2568	912.3247	954.913	961.0632	1001.7632	1020.6976	1037.2447	1058.3406	1121.0286	1138.1887	1145.9498	1195.2724	1205.2279	1223.7059	1226.8071	1275.1225	1316.5009	1351.3208	1483.8076	2234.1507	3054.591	3117.2539	3146.9557	3156.4403	3188.6517	3202.0366	3502.8862
C#CC12CC3C4C1N4C23	C#C[C@@]12C[C@H]3[C@H]4[C@@H]1N4[C@@H]23	
InChI=1S/C8H7N/c1-2-8-3-4-5-7(8)9(5)6(4)8/h1,4-7H,3H2	InChI=1S/C8H7N/c1-2-8-3-4-5-7(8)9(5)6(4)8/h1,4-7H,3H2/t4-,5-,6+,7-,8-,9?/m0/s1
