19
gdb 91523	2.56976	1.50301	1.17763	3.305	76.78	-0.2235	0.0214	0.2449	1108.9798	0.159554	-419.200175	-419.191444	-419.1905	-419.233304	33.502	
C	-0.0643225727	 1.5849030911	 0.1917637535	-0.34074
N	 0.0683808454	 0.1371047111	 0.1161407315	-0.152212
C	 1.0212084552	-0.4401918665	-0.8802453128	-0.183546
C	 1.7203394101	-1.229118803	 0.2294777026	-0.11768
C	 2.2368782834	-0.2954439679	 1.2817441894	-0.332025
C	 0.7538429123	-0.5557906617	 1.2126295141	 0.269355
C	 0.0074017862	-1.2023945204	 2.3327891074	 0.32336
N	-1.3461417075	-1.0729692253	 2.2164722462	-0.543679
O	 0.5663308942	-1.7796159992	 3.2484457748	-0.379558
H	 0.8950141266	 2.1177802661	 0.298806692	 0.103333
H	-0.5572197363	 1.9523150501	-0.7140973337	 0.121447
H	-0.693789343	 1.8423775342	 1.0492525294	 0.129529
H	 0.507513194	-1.0502207676	-1.6292934694	 0.113112
H	 1.6488119085	 0.30167928	-1.3920430158	 0.100872
H	 1.9794555437	-2.2784768687	 0.1957267766	 0.11167
H	 2.7122687315	-0.7721044152	 2.1314117405	 0.149335
H	 2.6335292379	 0.6785587904	 1.0080267498	 0.108719
H	-1.7161219631	-0.7784343982	 1.3257624628	 0.261535
H	-1.9248924965	-1.6038756794	 2.8465603912	 0.257174
88.1092	133.9938	192.3957	216.5557	222.1895	309.7003	384.4035	405.034	417.2398	491.0091	543.0814	607.4806	674.0668	678.6094	750.2942	844.2669	858.4114	900.5417	933.4334	950.073	1016.6018	1024.4606	1073.2362	1093.8234	1097.8091	1127.3263	1163.7946	1191.4462	1215.3312	1238.6475	1254.6874	1311.6055	1335.2116	1409.8222	1447.6832	1470.2824	1489.1997	1503.5759	1511.4711	1591.6288	1790.5782	2966.2294	3013.081	3065.5909	3076.1073	3106.9724	3120.046	3210.9213	3226.4964	3575.2663	3716.1915
CN1CC2CC12C(N)=O	CN1C[C@H]2C[C@@]12C(=O)N	
InChI=1S/C6H10N2O/c1-8-3-4-2-6(4,8)5(7)9/h4H,2-3H2,1H3,(H2,7,9)	InChI=1S/C6H10N2O/c1-8-3-4-2-6(4,8)5(7)9/h4H,2-3H2,1H3,(H2,7,9)/t4-,6-/m1/s1
