18
gdb 109287	2.63167	1.26418	0.89997	3.832	76.01	-0.2191	-0.0066	0.2125	1273.977	0.149222	-439.136883	-439.12842	-439.127476	-439.170276	31.894	
O	 0.028304193	 1.3474540115	 0.4286252052	-0.41229
C	 0.0286935868	 0.001125418	-0.0372499373	-0.161948
C	-1.3598135461	-0.577411962	-0.097475855	 0.336454
C	-1.8614647311	-1.2655223253	-1.1277372675	-0.197011
C	-3.2701081578	-1.796869821	-1.070616841	-0.269356
C	-3.6914886185	-2.0728502158	 0.3827763147	-0.32014
C	-3.3220334083	-0.9514841773	 1.3478962012	 0.39471
O	-3.9792779317	-0.6466121293	 2.3210000457	-0.360809
N	-2.1238082114	-0.3369262545	 1.053510391	-0.373479
H	-0.4442943013	 1.8816113365	-0.2195139461	 0.290505
H	 0.5115373766	-0.0985287682	-1.0178910849	 0.107528
H	 0.6354128841	-0.5468250776	 0.6934647473	 0.128649
H	-1.2538193457	-1.4283663953	-2.0101400257	 0.08994
H	-3.9598962407	-1.0713555533	-1.5285334645	 0.118038
H	-3.3662843414	-2.7132679268	-1.661842218	 0.112379
H	-4.7635578412	-2.2522576373	 0.4791585497	 0.129181
H	-3.1768792968	-2.973191744	 0.7453169834	 0.129823
H	-1.8069606984	 0.3843248819	 1.6867336421	 0.257826
87.9299	114.7089	138.4719	196.3709	281.2834	344.3492	408.0309	472.6045	498.6956	523.097	551.5248	626.5392	666.0854	709.0861	771.6971	804.2388	914.9369	917.5422	988.5354	1014.8821	1040.21	1047.9555	1089.2993	1176.2883	1180.7873	1201.5934	1233.7376	1295.5781	1334.441	1345.2617	1371.34	1384.6524	1415.5939	1462.9897	1472.2115	1484.4961	1492.3919	1739.7226	1805.0069	2990.9405	3019.7169	3027.5721	3066.1344	3067.3963	3121.4564	3196.5395	3604.674	3802.4675
OCC1=CCCC(=O)N1	OCC1=CCCC(=O)N1	
InChI=1S/C6H9NO2/c8-4-5-2-1-3-6(9)7-5/h2,8H,1,3-4H2,(H,7,9)	InChI=1S/C6H9NO2/c8-4-5-2-1-3-6(9)7-5/h2,8H,1,3-4H2,(H,7,9)
