19
gdb 41418	3.2197	1.894	1.52031	1.6203	77.01	-0.235	0.079	0.314	915.4291	0.16244	-385.84284	-385.836417	-385.835473	-385.873216	27.527	
C	 0.017062366	 1.4457628496	 0.0524114536	-0.119105
O	 1.4686269549	 1.4997364851	-0.0702005159	-0.361214
C	 1.5026758027	 0.1077843391	-0.3492418827	 0.489532
C	 2.5037875417	-0.8807662102	 0.206667497	-0.299224
C	 1.8741549645	-2.209221543	-0.323300241	-0.237554
C	 0.9836917132	-1.7867754627	-1.5128969179	-0.049824
C	-0.1848451739	-0.807166485	-1.3110202994	-0.082466
C	 1.1768942844	-0.3370633685	-1.8056063683	-0.158043
C	 0.0037625647	-0.1057402244	 0.0184228401	-0.130772
H	-0.310943781	 1.8995482005	 0.9926923492	 0.107744
H	-0.4802354069	 1.9430942741	-0.7888265772	 0.102508
H	 3.5055592908	-0.7184985098	-0.2073567796	 0.103672
H	 2.5722913518	-0.8465824013	 1.2974583028	 0.102087
H	 2.6440980932	-2.908388376	-0.6606008772	 0.10279
H	 1.301079514	-2.7169178185	 0.4593859182	 0.104149
H	 0.8554117002	-2.4797404668	-2.3366246075	 0.087221
H	-1.1026657336	-0.9235513864	-1.8783262263	 0.080482
H	 1.4891541568	 0.1278484704	-2.7306846551	 0.088484
H	-0.3110015435	-0.5906383562	 0.9458038275	 0.069531
196.1355	236.2159	338.094	374.3393	437.7613	499.7617	664.5444	690.7641	707.0662	757.3743	799.8773	842.8538	854.2636	872.5008	902.8848	910.9678	966.5979	976.4013	997.1129	999.9623	1043.5561	1058.7285	1064.7316	1099.8917	1108.9883	1137.4115	1144.6364	1174.3645	1200.2088	1216.3582	1243.8849	1266.6569	1288.0847	1305.5797	1332.567	1346.6965	1356.266	1383.5533	1485.0296	1501.9054	1511.9291	3026.7349	3039.1645	3049.0786	3069.513	3086.4713	3087.0429	3102.3825	3157.2678	3179.4905	3209.2333
C1OC23CCC4C(C24)C13	C1O[C@]23CC[C@H]4[C@H]([C@@H]24)[C@H]13	
InChI=1S/C8H10O/c1-2-8-5(3-9-8)6-4(1)7(6)8/h4-7H,1-3H2	InChI=1S/C8H10O/c1-2-8-5(3-9-8)6-4(1)7(6)8/h4-7H,1-3H2/t4-,5-,6-,7-,8-/m0/s1
