22
gdb 76764	2.19801	1.64643	1.26783	2.2696	82.15	-0.1996	0.0642	0.2638	1133.098	0.192397	-404.303239	-404.293703	-404.292759	-404.336976	36.109	
C	-0.9702283039	 1.1833484667	-0.2341111227	-0.409856
C	-0.2523564693	-0.16217571	-0.137183145	 0.010449
C	 0.5473916213	-0.5227658068	-1.4114281874	 0.058045
O	 0.8595123353	-1.9167033188	-1.5617152403	-0.302508
C	 2.1594594149	-1.7526827945	-0.9401017662	-0.098565
C	 1.8504630225	-0.2733964887	-0.604486685	 0.288291
C	 2.8938970665	 0.7877046786	-0.8689419041	-0.505258
N	 1.022921323	-0.1892340642	 0.6213865373	-0.103199
C	 1.3033630067	 0.7107067123	 1.7122771907	-0.33661
H	-0.3217063338	 1.9618270563	-0.6513683776	 0.114497
H	-1.8458774857	 1.0900279699	-0.8854511245	 0.120106
H	-1.3176994083	 1.5246858652	 0.7459737904	 0.120688
H	-0.9541658581	-0.9411583468	 0.1871567688	 0.077296
H	 0.2628528824	-0.0419868523	-2.3518573386	 0.07173
H	 2.298229116	-2.4124987249	-0.0777623592	 0.101071
H	 2.9654579069	-1.9070747117	-1.6712284031	 0.086962
H	 3.3246600761	 0.6595764147	-1.8667343069	 0.124504
H	 2.4739662553	 1.7964625027	-0.8080726813	 0.124116
H	 3.7140357291	 0.7236225557	-0.1441715657	 0.124941
H	 1.2722282904	 1.7861085058	 1.4614358093	 0.091998
H	 0.5793284729	 0.5395524391	 2.5170581209	 0.122165
H	 2.2957171998	 0.4946852919	 2.1229460202	 0.119137
85.2129	168.4084	189.6998	208.3565	225.092	238.1317	251.7037	281.7387	341.5981	370.6792	410.5114	510.496	640.6536	648.887	760.2053	838.3249	862.7062	908.3923	909.4266	972.8616	997.3373	1030.8269	1037.6323	1078.4145	1102.4036	1143.255	1146.1928	1171.5526	1180.4431	1186.1037	1219.7772	1259.6273	1288.3182	1304.0996	1320.2454	1358.6109	1380.8208	1396.9372	1407.612	1451.9383	1483.9998	1486.1776	1488.2786	1494.5411	1501.0794	1504.2391	1513.4318	2935.6813	2999.2373	3019.9339	3028.6392	3029.9335	3046.4387	3066.8701	3077.7452	3086.5818	3093.8926	3098.2104	3104.6818	3107.7628
CC1C2OCC2(C)N1C	C[C@H]1[C@@H]2OC[C@]2(C)N1C	
InChI=1S/C7H13NO/c1-5-6-7(2,4-9-6)8(5)3/h5-6H,4H2,1-3H3	InChI=1S/C7H13NO/c1-5-6-7(2,4-9-6)8(5)3/h5-6H,4H2,1-3H3/t5-,6-,7-/m0/s1
