25
gdb 119001	3.38051	0.86389	0.84814	1.3286	88.64	-0.2577	0.0706	0.3283	1567.9836	0.229232	-389.518273	-389.508077	-389.507133	-389.553683	38.757	
C	-0.0207533197	 1.6259428033	-0.061676573	-0.37916
C	 0.020175427	 0.0966412607	 0.0136941992	-0.19147
C	-1.3778807853	-0.5342464011	 0.0229811991	-0.222352
C	-1.4027176709	-2.0693012242	 0.0740804916	 0.406004
O	-0.7424519363	-2.6217307811	-1.0784054129	-0.484507
C	-0.8025126861	-2.687580745	 1.3567446313	-0.242174
C	-1.3971577684	-4.1022797964	 1.3827075407	-0.199434
C	-2.8667328325	-3.8741414745	 0.9761035519	-0.203994
C	-2.8414614557	-2.6452083234	 0.0268653217	-0.229386
H	 0.986893077	 2.0531223138	-0.0735110582	 0.110335
H	-0.5370040505	 1.9620903265	-0.9674939782	 0.116809
H	-0.552733506	 2.0497671711	 0.7973090398	 0.11434
H	 0.5872809052	-0.2851568674	-0.845653457	 0.088903
H	 0.5723808442	-0.2075398143	 0.912013888	 0.097748
H	-1.9429143657	-0.1481154742	 0.8818070169	 0.08737
H	-1.9194759531	-0.2169253048	-0.8775808228	 0.097306
H	 0.1970286978	-2.4252679134	-1.002228854	 0.273822
H	 0.2927488558	-2.6715982914	 1.3572815047	 0.081567
H	-1.1374212924	-2.1169913839	 2.2330387554	 0.090596
H	-0.8900099624	-4.7171806672	 0.632701618	 0.107059
H	-1.291783002	-4.5995218608	 2.3509530882	 0.085883
H	-3.313231428	-4.7560532875	 0.5095805972	 0.096454
H	-3.4664647359	-3.6493153802	 1.865080892	 0.093998
H	-3.5697298885	-1.8899499567	 0.3361221171	 0.090592
H	-3.0684366275	-2.9116969078	-1.0079413068	 0.113691
52.7703	86.4279	102.9968	161.8055	216.6908	247.8965	305.2265	309.1849	336.0677	367.4548	421.1398	462.3953	577.8402	675.1747	743.4343	758.25	799.748	853.9293	874.5012	899.0448	900.0868	917.1438	952.9408	996.401	1020.1616	1033.1663	1053.4784	1061.5219	1079.4278	1122.9701	1167.1949	1203.2819	1228.8565	1241.6822	1268.5541	1291.8839	1299.7233	1309.5472	1327.8758	1341.8433	1345.9718	1356.6006	1371.9049	1404.7945	1412.9995	1473.6988	1480.4696	1483.4812	1488.0035	1493.36	1499.5843	1509.0927	1511.5329	3010.0529	3017.956	3022.3424	3030.456	3039.2777	3039.9982	3051.0902	3061.6667	3063.0446	3073.307	3085.5537	3098.1807	3101.0143	3101.9899	3113.9072	3810.1765
CCCC1(O)CCCC1	CCCC1(O)CCCC1	
InChI=1S/C8H16O/c1-2-5-8(9)6-3-4-7-8/h9H,2-7H2,1H3	InChI=1S/C8H16O/c1-2-5-8(9)6-3-4-7-8/h9H,2-7H2,1H3
