18
gdb 95195	2.13763	1.8198	1.44255	4.4923	71.42	-0.2301	-0.0263	0.2038	991.1044	0.15	-439.086889	-439.079244	-439.0783	-439.118888	30.158	
O	 0.0252163566	 1.510920188	-0.1857847237	-0.445654
C	 0.0370373305	 0.102724336	-0.02501894	 0.011973
C	-1.3752134711	-0.5023388926	 0.1134368676	-0.238942
C	-2.2603693221	-0.2569529616	-1.1267857833	-0.222257
C	-1.5170879996	-0.3751847688	-2.4532600905	-0.021136
N	-0.6637837197	 0.7609806316	-2.806877485	-0.347021
C	-0.022694174	-0.5442786012	-2.4968865987	-0.141578
C	 0.7261095438	-0.6065483077	-1.1987923869	 0.416583
O	 1.7494912978	-1.2416991514	-1.0902728498	-0.326665
H	-0.2583555807	 1.6873416054	-1.098565122	 0.298875
H	 0.6241160857	-0.1124156933	 0.8720513138	 0.101776
H	-1.2671284757	-1.5818874679	 0.2811543696	 0.109341
H	-1.8555864252	-0.0853311194	 1.0039700098	 0.112893
H	-3.0944548236	-0.9653843681	-1.1203437433	 0.109182
H	-2.7004462444	 0.7446659602	-1.0785939948	 0.124973
H	-2.0640883939	-0.8407522779	-3.2694643263	 0.102088
H	-0.6486090412	 0.9272882665	-3.8086660687	 0.248996
H	 0.425741397	-1.1081546878	-3.3091661378	 0.106573
107.2411	149.985	234.1577	289.2969	324.2409	396.5484	438.7649	495.5778	528.6758	614.4546	655.8584	739.2583	754.6092	806.8002	858.5796	873.1694	920.8461	931.1427	958.9513	1017.6651	1052.4429	1081.4767	1099.9496	1150.6809	1154.7693	1206.4291	1235.8712	1253.8305	1267.7166	1306.6276	1326.7181	1369.676	1371.2207	1388.7412	1429.6454	1473.2544	1482.6817	1490.3411	1815.525	3026.7018	3047.8344	3078.471	3083.362	3091.8996	3138.4508	3166.0741	3519.395	3636.6636
OC1CCC2NC2C1=O	O[C@H]1CC[C@H]2N[C@H]2C1=O	
InChI=1S/C6H9NO2/c8-4-2-1-3-5(7-3)6(4)9/h3-5,7-8H,1-2H2	InChI=1S/C6H9NO2/c8-4-2-1-3-5(7-3)6(4)9/h3-5,7-8H,1-2H2/t3-,4+,5-/m1/s1
