15
gdb 64574	2.65502	1.51246	1.25611	3.9936	67.56	-0.2433	-0.0573	0.186	1015.9511	0.110809	-457.754955	-457.746975	-457.746031	-457.787591	29.759	
O	-0.0996006159	 1.4690282687	 0.0940986031	-0.474726
C	-0.0703568465	 0.0874926683	 0.0175829288	 0.20643
C	 0.908283268	-0.4843004795	 1.0191102717	 0.11428
O	 1.5831673082	 0.2382257602	 1.711786557	-0.27323
C	-1.4165867918	-0.6651114276	 0.0172085351	-0.091412
C	-2.211459958	-0.2465008331	-1.1634983346	-0.293723
C	-1.1226413413	-1.2959859373	-1.3733500781	-0.173651
C	 0.1970119158	-0.6060440859	-1.4005429411	 0.353493
O	 1.1675466853	-0.6518834054	-2.0956717617	-0.303344
H	 0.571227486	 1.7134156576	 0.7538186774	 0.298266
H	 0.9735541442	-1.5876898698	 1.0784599354	 0.110408
H	-1.8511639571	-1.1663314084	 0.8723901391	 0.115463
H	-3.2180502183	-0.6457669687	-1.2251839811	 0.135274
H	-2.0941215393	 0.7504886197	-1.5731767944	 0.154276
H	-1.3482180594	-2.2819154089	-1.7575057565	 0.122197
98.791	116.1624	192.1813	232.5609	296.8944	312.2451	397.2128	463.9671	541.3391	581.6373	634.7997	732.6335	788.4379	814.0187	847.9927	892.7055	932.7195	945.0646	1002.6853	1025.952	1066.4196	1077.2365	1098.9724	1112.1781	1184.5463	1253.2466	1286.605	1312.5992	1382.4706	1434.6095	1495.0561	1800.9071	1887.6409	2952.9804	3139.5523	3200.2456	3211.7274	3227.6129	3664.9207
OC1(C=O)C2CC2C1=O	O[C@@]1(C=O)[C@H]2C[C@H]2C1=O	
InChI=1S/C6H6O3/c7-2-6(9)4-1-3(4)5(6)8/h2-4,9H,1H2	InChI=1S/C6H6O3/c7-2-6(9)4-1-3(4)5(6)8/h2-4,9H,1H2/t3-,4+,6+/m1/s1
