21
gdb 95844	2.30306	1.36476	1.091	4.4536	82.1	-0.2365	0.0297	0.2662	1219.1892	0.184921	-383.300567	-383.291817	-383.290873	-383.333764	33.916	
C	 0.0309463761	 1.5801318981	 0.0127971188	-0.407525
C	 0.022712288	 0.0557304089	-0.0597948032	 0.054207
C	 0.7441784459	-0.4800107504	-1.3108485434	-0.185804
C	 0.7914083468	-2.0146821356	-1.3151711565	-0.21774
C	 1.4053025597	-2.545086188	-0.0142721173	-0.204027
C	 0.686516115	-1.9452661311	 1.2203592374	-0.140093
N	 0.5765871596	-0.4830751941	 1.1955967146	-0.290152
C	-0.6593102748	-2.5355402381	 1.3649490071	 0.309901
N	-1.7024779718	-3.0237233381	 1.4587170997	-0.336226
H	 1.0578222372	 1.9641781908	 0.0578853627	 0.108302
H	-0.4449402767	 2.0131681554	-0.8718312423	 0.119462
H	-0.5012257789	 1.9263334531	 0.9025598062	 0.130185
H	-1.0219553089	-0.2838072424	-0.0992566759	 0.102877
H	 0.2439655594	-0.1118823645	-2.2141722222	 0.097869
H	 1.7677502787	-0.0773847815	-1.3301472687	 0.084855
H	-0.2257177911	-2.412561328	-1.4230764278	 0.121311
H	 1.3630598471	-2.3804855394	-2.1742854199	 0.099915
H	 1.3730434453	-3.6388042463	 0.0247643264	 0.115225
H	 2.4598401966	-2.2480972071	 0.0506092052	 0.096946
H	 1.2403957657	-2.2159803071	 2.1269417752	 0.124011
H	 1.5028752313	-0.0937561245	 1.3504565638	 0.216499
102.5263	108.9519	196.7009	230.603	269.1715	311.3167	330.2631	406.7583	421.957	468.2363	508.7149	601.7162	685.7874	730.6739	779.4294	836.3284	867.6767	881.495	940.9852	951.9965	986.5298	987.9252	1066.1846	1092.2083	1109.9381	1141.8449	1163.6206	1195.8205	1233.6706	1272.2488	1297.2317	1333.3259	1348.9034	1367.3302	1378.7009	1382.8219	1388.6664	1411.3925	1471.1516	1481.324	1484.6995	1496.9141	1498.4913	1507.4126	2357.1449	2999.0193	3014.332	3024.7444	3029.841	3030.7359	3045.7338	3061.3547	3075.2866	3082.1702	3098.0315	3124.0736	3498.7192
CC1CCCC(N1)C#N	C[C@H]1CCC[C@@H](N1)C#N	
InChI=1S/C7H12N2/c1-6-3-2-4-7(5-8)9-6/h6-7,9H,2-4H2,1H3	InChI=1S/C7H12N2/c1-6-3-2-4-7(5-8)9-6/h6-7,9H,2-4H2,1H3/t6-,7+/m0/s1
