19
gdb 85042	2.24108	1.58081	1.17884	1.0875	70.36	-0.2445	-0.0314	0.2132	1098.2605	0.158289	-460.191484	-460.182361	-460.181417	-460.225452	34.481	
C	 0.8056692314	 1.4792644748	-0.1041062921	-0.39207
C	 0.1542999455	 0.0940151362	 0.0158367511	-0.140476
C	 0.3845829761	-0.8510487998	-1.2028152777	 0.106868
O	 0.7117285489	-0.2114617647	-2.4105366122	-0.433103
C	 1.5015636114	-1.8333489958	-0.7529290098	 0.075588
O	 2.7836032293	-1.2546279272	-1.0236917451	-0.445195
C	 1.24605744	-2.0351140317	 0.7372197504	-0.36418
C	 0.716701091	-0.6775447024	 1.2202586272	 0.381194
O	 0.7625208226	-0.2733233754	 2.353426451	-0.313706
H	 1.8867424372	 1.4086487809	-0.2647033256	 0.100534
H	 0.3842875702	 2.0238154439	-0.9510288282	 0.137969
H	 0.6389169274	 2.0454054805	 0.8152981784	 0.136877
H	-0.9177839379	 0.2391632027	 0.1906094627	 0.107493
H	-0.5303064086	-1.4281368012	-1.3831734054	 0.087056
H	 1.6776137024	-0.1476490236	-2.4150542259	 0.288938
H	 1.476161163	-2.7587654215	-1.3328474702	 0.097074
H	 3.0549874507	-0.7144476245	-0.2737276749	 0.294571
H	 0.4455216606	-2.7721097124	 0.8857390031	 0.140813
H	 2.113243919	-2.3767804488	 1.3079166432	 0.133756
46.7184	112.4395	215.5062	240.1895	247.7932	263.0279	282.3778	372.5438	411.2173	486.016	526.6166	540.4249	555.4807	672.8694	734.0365	779.5798	797.7492	851.5225	916.4795	978.0212	1013.7612	1023.079	1068.9209	1127.9742	1138.7542	1147.9921	1174.7757	1230.5247	1241.8154	1280.4625	1300.6523	1305.806	1333.6535	1362.4938	1401.2443	1421.4891	1439.3939	1448.9572	1491.5628	1500.4022	1840.9526	3029.493	3035.5962	3043.1488	3050.1289	3089.7982	3107.7485	3113.5401	3142.5533	3732.9916	3810.3546
CC1C(O)C(O)CC1=O	C[C@H]1[C@@H](O)[C@@H](O)CC1=O	
InChI=1S/C6H10O3/c1-3-4(7)2-5(8)6(3)9/h3,5-6,8-9H,2H2,1H3	InChI=1S/C6H10O3/c1-3-4(7)2-5(8)6(3)9/h3,5-6,8-9H,2H2,1H3/t3-,5+,6-/m1/s1
