13
gdb 131376	3.57708	1.63619	1.12274	1.1289	65.66	-0.2088	-0.0084	0.2003	971.0124	0.092982	-448.928931	-448.921884	-448.92094	-448.960453	26.399	
O	 0.0957989331	 1.3590765377	 0.0521352693	-0.43429
C	 0.0706681624	 0.0099858369	 0.0547230236	 0.2965
N	 0.0690159622	-0.7071309695	-1.0549596252	-0.315372
N	 0.066687809	-2.0231259894	-0.6699483202	-0.39069
C	 0.0274550676	-2.1324130945	 0.6881041712	 0.311503
C	 0.0461302189	-0.8332742634	 1.1907638653	 0.274652
N	 0.0299525905	-0.9497159374	 2.5494071055	-0.382221
N	 0.0020593288	-2.2457803233	 2.9315134226	-0.197668
C	 0.0009640877	-2.9809094672	 1.820739869	-0.138073
H	 0.1090015713	 1.639519389	-0.8720149965	 0.306207
H	-0.0466980285	-2.7272920494	-1.3749527888	 0.272487
H	 0.0470391765	-0.2338807747	 3.2533132593	 0.278942
H	-0.0217236895	-4.0568600047	 1.890837705	 0.118023
100.062	199.7266	271.1568	287.1628	356.2462	391.2332	475.3196	555.5376	648.2818	653.8207	670.6221	690.6513	750.5761	835.8922	856.0883	977.1598	1089.6431	1107.1877	1155.5179	1206.8229	1266.2648	1317.8614	1370.7519	1387.3523	1440.3202	1491.2099	1547.5603	1602.6832	1651.393	3261.2889	3697.1593	3709.5829	3792.3582
OC1=NNC2=C1NN=C2	Oc1n[nH]c2c1[nH]nc2	
InChI=1S/C4H4N4O/c9-4-3-2(6-8-4)1-5-7-3/h1H,(H,5,7)(H2,6,8,9)	InChI=1S/C4H4N4O/c9-4-3-2(6-8-4)1-5-7-3/h1H,(H,5,7)(H2,6,8,9)
