19
gdb 51636	4.48553	0.95549	0.93275	4.1416	77.07	-0.2744	0.0116	0.2861	1303.7717	0.161021	-423.041447	-423.033774	-423.03283	-423.074562	29.401	
O	-0.0164509988	 0.028141702	-0.1879979558	-0.279249
C	 0.0270547663	 1.2218439091	-0.2103190813	 0.160782
O	 1.0414241907	 1.9256807518	 0.3193429489	-0.194938
C	 1.018200969	 3.3580212891	 0.212637135	 0.138363
C	 1.3658553008	 4.0212124162	 1.5791954886	-0.245854
C	 2.6491931114	 4.7662480084	 1.1618746581	-0.014614
C	 2.2206600301	 5.3781279434	-0.2049146022	-0.2299
C	 2.1858741063	 3.8816150959	-0.6356523369	-0.039207
C	 3.394423886	 3.6850676702	 0.3263719133	-0.222802
H	-0.7555293322	 1.8661210621	-0.6582836426	 0.074173
H	 0.0430946968	 3.667106481	-0.1796884829	 0.083368
H	 0.5774715074	 4.6921982662	 1.9312707343	 0.10229
H	 1.5390866956	 3.2576196123	 2.3412372699	 0.121029
H	 3.1542116553	 5.3554730657	 1.9266587267	 0.067201
H	 1.2912317608	 5.955583507	-0.246536685	 0.090518
H	 3.0252487992	 5.9276586584	-0.6977002999	 0.105603
H	 2.2089479913	 3.5709114417	-1.6802119506	 0.068663
H	 4.3256008094	 4.0574507091	-0.1052384828	 0.101202
H	 3.5438274544	 2.6964059906	 0.7656623252	 0.113374
43.2289	118.9628	152.6991	307.3829	349.1493	378.9173	448.6848	512.8568	669.8675	685.3589	829.5847	833.865	854.3204	870.293	899.9452	944.6798	962.6716	968.5819	1013.26	1036.4402	1043.0949	1046.4197	1083.0048	1093.3162	1111.0381	1124.7018	1186.4081	1204.5764	1227.6027	1240.796	1246.1748	1273.5966	1294.184	1320.7738	1338.5506	1384.8716	1444.9402	1488.9415	1489.4638	1526.9463	1863.1759	2939.0988	3041.6239	3047.6003	3063.4397	3071.5235	3113.958	3116.0365	3117.5587	3122.9916	3133.0869
O=COC1CC2CC1C2	O=CO[C@H]1C[C@@H]2C[C@H]1C2	
InChI=1S/C7H10O2/c8-4-9-7-3-5-1-6(7)2-5/h4-7H,1-3H2	InChI=1S/C7H10O2/c8-4-9-7-3-5-1-6(7)2-5/h4-7H,1-3H2/t5-,6+,7-/m0/s1
