25
gdb 121931	4.48662	0.59579	0.56161	1.6445	90.1	-0.2608	0.0867	0.3475	2086.1279	0.227285	-389.480237	-389.469241	-389.468297	-389.517317	39.629	
C	 0.1796411377	 1.5219797653	-0.0044880021	-0.380276
C	 0.0415161401	-0.0028356694	-0.0080905215	-0.163233
C	-1.4168175365	-0.4764023609	-0.0134501632	-0.174885
C	-1.5498281903	-2.0033353824	-0.0274404124	-0.172367
C	-2.9959260501	-2.5394216705	 0.0628707526	-0.014526
C	-3.835220891	-2.1821474634	-1.1704095544	-0.41096
C	-2.9412779824	-4.0363757385	 0.3235539277	 0.094387
C	-3.9103197287	-5.0249976865	-0.1664234761	-0.190596
O	-2.6266221783	-4.8911503806	-0.7820374906	-0.238905
H	 1.2302693474	 1.8288385663	 0.0002561372	 0.110889
H	-0.2921235087	 1.9641859053	-0.8891262981	 0.113062
H	-0.299202081	 1.9612913646	 0.8779022932	 0.11224
H	 0.5578787472	-0.4159620219	-0.8846253261	 0.096525
H	 0.5546247611	-0.4200891647	 0.8685486147	 0.093641
H	-1.9312529826	-0.0733648022	 0.8708343377	 0.088513
H	-1.9254640681	-0.042809634	-0.8836401454	 0.09678
H	-1.0809962739	-2.4095846267	-0.9335072409	 0.108217
H	-0.97547444	-2.4097729697	 0.816491528	 0.088127
H	-3.464231892	-2.0888221948	 0.9512056458	 0.072593
H	-3.4712106896	-2.7250282493	-2.0480528057	 0.134535
H	-4.8901035661	-2.4335278072	-1.0256611221	 0.11096
H	-3.7861541631	-1.1121104258	-1.3849997769	 0.116211
H	-2.3970550841	-4.3006826896	 1.2338216401	 0.085285
H	-4.0646111412	-5.9461872947	 0.3947765545	 0.110375
H	-4.7533736759	-4.7137990088	-0.7789283459	 0.113408
51.4928	60.5257	86.5022	123.3005	143.9349	210.1731	227.7521	243.5685	290.5646	299.9941	360.68	416.7949	499.4588	600.1642	735.2737	763.0467	788.2724	850.1981	885.622	904.6935	916.5135	959.1518	992.5045	1019.1734	1032.4579	1066.327	1072.2841	1097.5934	1123.5225	1154.316	1163.5995	1181.2743	1198.0876	1245.9817	1275.414	1298.0357	1315.015	1333.4809	1335.4588	1369.9876	1381.1336	1400.6529	1401.5747	1413.9847	1440.5145	1482.5061	1486.994	1498.5055	1499.6851	1500.2917	1509.7431	1513.5978	1533.7804	2992.3031	3003.4348	3008.7426	3017.3017	3028.7051	3034.3132	3045.0503	3045.3106	3065.1473	3075.6413	3088.9724	3095.1605	3100.8332	3110.6872	3124.0532	3175.8968
CCCCC(C)C1CO1	CCCC[C@@H](C)[C@H]1CO1	
InChI=1S/C8H16O/c1-3-4-5-7(2)8-6-9-8/h7-8H,3-6H2,1-2H3	InChI=1S/C8H16O/c1-3-4-5-7(2)8-6-9-8/h7-8H,3-6H2,1-2H3/t7-,8-/m1/s1
