17
gdb 31357	3.70485	1.13215	0.87982	7.7245	81.04	-0.2007	0.001	0.2017	1282.8362	0.137979	-418.06047	-418.052019	-418.051074	-418.093839	31.528	
C	 0.1506393313	 1.4426846304	-0.1393405206	-0.347762
N	-0.215743236	 0.0703048862	 0.1760761295	-0.361743
C	 0.5053634675	-0.6880616593	 1.0848688827	 0.488317
C	 0.6114971006	-2.0488284497	 1.0268348487	-0.382417
C	 1.3093439869	-2.8260075012	 2.0386760203	 0.393521
O	 1.4126198274	-4.050541081	 2.0086050645	-0.417528
C	 1.9018775927	-2.0060544897	 3.1089113859	-0.246649
C	 1.7798087365	-0.6653243943	 3.1140867349	 0.017933
N	 1.0994257022	-0.0008143046	 2.1165243488	-0.385689
H	 1.2134600343	 1.5683294998	-0.3931327021	 0.131201
H	-0.4476425402	 1.7708906376	-0.9912282384	 0.145159
H	-0.0923262878	 2.1206770554	 0.688219693	 0.131137
H	-0.4979337849	-0.4733456834	-0.6246043776	 0.254331
H	 0.1613812797	-2.5855311482	 0.1992161892	 0.086904
H	 2.4473474304	-2.5124016433	 3.8953173023	 0.107635
H	 2.2010145348	-0.0251518178	 3.8801784108	 0.126441
H	 0.9662782147	 0.9921375731	 2.1921997479	 0.259209
56.1312	146.6284	168.3358	214.0128	241.3099	366.4127	385.2668	450.1177	485.1598	508.1318	523.6851	640.5279	679.8986	720.8717	764.1147	817.3169	857.4689	910.1183	949.5484	998.8992	1066.2327	1088.7756	1144.7292	1173.3274	1232.015	1236.6737	1294.3765	1373.8457	1425.6991	1463.5787	1474.7966	1494.1974	1518.2732	1552.0346	1642.3802	1688.6063	1726.5798	2993.2947	3049.3589	3128.7191	3192.2554	3197.3844	3221.3437	3625.515	3677.787
CNC1=CC(=O)C=CN1	CNc1cc(=O)cc[nH]1	
InChI=1S/C6H8N2O/c1-7-6-4-5(9)2-3-8-6/h2-4H,1H3,(H2,7,8,9)	InChI=1S/C6H8N2O/c1-7-6-4-5(9)2-3-8-6/h2-4H,1H3,(H2,7,8,9)
