19
gdb 109633	2.09078	1.34931	1.04013	2.268	80.01	-0.2221	0.033	0.2551	1252.4926	0.155077	-422.95892	-422.948565	-422.947621	-422.994092	37.559	
C	-0.0690554667	 1.2072864169	 0.4900417407	-0.24994
O	-0.0768349757	-0.0162527609	-0.2370164292	-0.252084
C	-1.322623672	-0.643539662	-0.216873815	 0.017602
C	-1.391154088	-2.0621991049	-0.7037580206	-0.133905
C	-0.1971322853	-2.7724718055	-1.2985445054	-0.400846
C	-1.4609318375	-1.7769604147	 0.805320411	 0.153766
O	-0.3215164317	-2.0400199463	 1.5742871427	-0.466824
C	-2.6997057826	-1.9681777716	 1.5012166528	 0.317263
C	-3.7594864433	-2.1219646196	 2.0494588777	-0.433772
H	 0.9433444677	 1.6104639777	 0.4218976174	 0.135611
H	-0.7739459345	 1.9270872832	 0.0523071529	 0.122653
H	-0.3328015234	 1.0532244488	 1.5444971103	 0.129309
H	-2.1691267849	 0.0201265247	-0.3856043949	 0.100413
H	-2.3474754488	-2.3211915243	-1.1492119207	 0.102392
H	 0.7194885557	-2.5506517795	-0.7510972044	 0.125189
H	-0.3493545281	-3.8555806875	-1.2721655497	 0.126385
H	-0.0489063656	-2.4738435639	-2.3412210504	 0.121639
H	 0.345781202	-1.4008262751	 1.2870907889	 0.292819
H	-4.6877155373	-2.2632872854	 2.5449734758	 0.192329
86.7647	110.9232	118.4099	147.8982	163.2932	185.1533	232.4747	293.1555	330.8442	428.9235	443.3526	476.1317	544.3412	562.8391	576.7082	625.2921	675.3897	736.4037	789.6134	861.1174	976.5185	1013.4203	1023.4993	1082.5775	1109.387	1145.952	1153.4431	1183.2637	1208.8103	1237.8979	1266.3701	1352.3463	1371.2621	1417.981	1443.3734	1481.7475	1487.6283	1489.45	1500.6293	1508.889	2233.7746	3001.6599	3045.8263	3060.93	3105.3224	3115.4305	3129.9758	3138.2927	3155.0962	3504.1182	3736.8392
COC1C(C)C1(O)C#C	CO[C@H]1[C@@H](C)[C@]1(O)C#C	
InChI=1S/C7H10O2/c1-4-7(8)5(2)6(7)9-3/h1,5-6,8H,2-3H3	InChI=1S/C7H10O2/c1-4-7(8)5(2)6(7)9-3/h1,5-6,8H,2-3H3/t5-,6+,7-/m1/s1
