23
gdb 117158	2.57521	0.85547	0.67411	2.5115	83.59	-0.2393	-0.0101	0.2292	1764.4257	0.201633	-425.445264	-425.43372	-425.432775	-425.483463	40.089	
C	 0.2764260046	 1.0238759872	 1.0134218243	-0.386401
C	-0.158044359	 0.1034401904	-0.129636547	-0.166232
C	-1.142044077	-0.9728006266	 0.3261668832	-0.271553
C	-1.5842116655	-1.9009158658	-0.7877653235	 0.342043
O	-1.1734604312	-1.8051328655	-1.9224450053	-0.315277
C	-2.6263688517	-2.984072028	-0.448584568	 0.043559
C	-2.2712349369	-4.314353337	-1.1177997981	-0.400932
O	-2.7455990265	-3.0738255935	 0.9588967838	-0.245838
C	-3.9212731758	-3.7049129962	 1.4141439439	-0.236701
H	 0.9816660801	 1.7837976776	 0.6629710149	 0.113166
H	-0.5809238934	 1.5446801026	 1.4548965388	 0.111452
H	 0.7663304284	 0.4602105615	 1.815498233	 0.112603
H	-0.6147272319	 0.6902489636	-0.9342352941	 0.107946
H	 0.7166257912	-0.3788938096	-0.5792710312	 0.110013
H	-0.721559183	-1.5946500833	 1.1277247107	 0.132979
H	-2.0420829886	-0.5345039582	 0.778875851	 0.121334
H	-3.5778590693	-2.612305898	-0.8725485245	 0.091805
H	-1.3843192699	-4.7467132802	-0.6445618376	 0.124519
H	-3.0912845762	-5.0328333763	-1.0428279769	 0.113655
H	-2.0543378523	-4.1366832651	-2.172663518	 0.147842
H	-3.9370891514	-3.6064978315	 2.5023336065	 0.130262
H	-4.8226327535	-3.2253467905	 1.001132321	 0.10625
H	-3.9513940714	-4.7735755977	 1.1598888532	 0.113504
28.2985	69.4005	83.0276	100.4272	119.2834	196.1166	215.2051	238.7671	251.3912	291.5267	325.3246	372.6552	411.9326	473.7414	536.1707	647.7684	743.6996	804.0482	868.7612	877.4056	910.7516	1000.3454	1035.2599	1051.3308	1087.1594	1117.3573	1131.2923	1144.8166	1182.9318	1184.2228	1225.0006	1243.8284	1309.2377	1318.8644	1335.6121	1360.7527	1390.3397	1396.284	1416.7946	1436.3973	1477.8139	1485.1449	1486.6595	1493.6594	1501.4688	1501.8773	1508.0592	1511.8546	1802.6693	2935.2116	2979.4638	3026.1202	3028.6812	3034.0055	3046.242	3049.026	3049.9582	3074.1204	3098.8178	3102.2005	3114.1632	3120.7396	3145.2437
CCCC(=O)C(C)OC	CCCC(=O)[C@@H](C)OC	
InChI=1S/C7H14O2/c1-4-5-7(8)6(2)9-3/h6H,4-5H2,1-3H3	InChI=1S/C7H14O2/c1-4-5-7(8)6(2)9-3/h6H,4-5H2,1-3H3/t6-/m1/s1
