17
gdb 70290	4.23558	1.06534	0.93335	3.3863	77.38	-0.2524	-0.0667	0.1857	1249.5242	0.134701	-421.837506	-421.829345	-421.828401	-421.870235	30.689	
C	-0.1232441736	 1.5464529947	 0.0663461486	-0.495315
C	 0.1348561177	 0.06962003	-0.0116189718	 0.39992
O	-0.7094748194	-0.7799354816	 0.8064729845	-0.289226
C	 0.6978467127	-0.7883620233	 1.0570467739	-0.034885
C	 1.4319227979	-1.9600537758	 0.4213027907	-0.345295
C	 1.177414248	-1.7480126184	-1.059294202	 0.220064
C	 1.6192658211	-2.6843270238	-2.094653218	 0.084865
O	 2.2116414364	-3.7166339723	-1.8679608231	-0.271246
C	 0.4929890529	-0.6150616251	-1.29368754	-0.227941
H	 0.7280080863	 2.1121333855	-0.326502409	 0.129087
H	-1.0080779552	 1.8173222795	-0.5198828395	 0.133764
H	-0.2974868831	 1.8476947044	 1.1018205723	 0.137826
H	 1.0004368838	-0.3945105789	 2.0240253935	 0.099864
H	 2.5036760773	-1.9421075172	 0.6494884732	 0.127173
H	 1.049189347	-2.9261025516	 0.7662108477	 0.144103
H	 1.3776360179	-2.3729221296	-3.1353484926	 0.070402
H	 0.2099040225	-0.2445449565	-2.2731659383	 0.116839
92.8326	170.0465	178.0898	223.1892	241.8221	310.5778	412.2453	416.702	492.4696	522.6646	627.0919	724.6918	734.7301	821.6702	876.749	885.1043	915.2603	931.7278	981.4983	1018.2575	1044.7555	1072.9575	1102.7448	1166.8502	1183.1975	1241.9556	1291.8693	1313.4811	1355.872	1403.6417	1415.6846	1443.4383	1456.8094	1483.4602	1493.0211	1666.2659	1782.2526	2882.8236	3037.7128	3050.0975	3089.3726	3100.0397	3128.4828	3147.865	3194.8371
CC12OC1CC(C=O)=C2	C[C@]12O[C@H]1CC(=C2)C=O	
InChI=1S/C7H8O2/c1-7-3-5(4-8)2-6(7)9-7/h3-4,6H,2H2,1H3	InChI=1S/C7H8O2/c1-7-3-5(4-8)2-6(7)9-7/h3-4,6H,2H2,1H3/t6-,7+/m0/s1
