18
gdb 124648	4.31034	0.93298	0.84104	4.0011	74.21	-0.2293	-0.0077	0.2216	1392.433	0.146568	-439.072493	-439.063757	-439.062813	-439.106458	32.118	
C	-0.0238312564	 1.4979923832	-0.0816325723	-0.396619
C	 0.0426860597	-0.0229335738	 0.0465368705	 0.130611
C	 0.6409103747	-0.4776234652	 1.37019971	-0.393934
O	-1.2776935767	-0.5966378267	-0.0102394893	-0.280436
C	-1.850163069	-0.7110325746	-1.2229505377	 0.21656
C	-1.4259491536	-0.4176643832	-2.4859509335	-0.056564
O	-2.3886504342	-0.7532307231	-3.3744767206	-0.170761
N	-3.4751746503	-1.2766550661	-2.6976937041	-0.124737
C	-3.1540327365	-1.248590694	-1.4293898604	-0.053971
H	 0.9848738807	 1.9222612588	-0.077632905	 0.122019
H	-0.5170468506	 1.8014861646	-1.0085089633	 0.129274
H	-0.5815902864	 1.9232924581	 0.7582716319	 0.130294
H	 0.6305066446	-0.4443029018	-0.781911175	 0.085287
H	 0.0401361356	-0.1047636063	 2.2054279186	 0.130614
H	 0.669884429	-1.5686349883	 1.4259371189	 0.129306
H	 1.6594868372	-0.0945056019	 1.478767686	 0.12096
H	-0.5292550086	 0.0092637492	-2.9010070274	 0.145036
H	-3.847090149	-1.6103852489	-0.6840721572	 0.13706
62.2374	85.6625	148.9238	209.1371	248.9925	310.5897	323.5182	388.5342	447.961	484.2318	605.1582	674.296	723.1885	770.6906	844.2547	893.7176	918.6348	926.1781	935.3439	947.0838	959.8941	1043.0862	1132.508	1148.9257	1158.044	1202.3576	1213.4832	1299.096	1369.8267	1373.6683	1401.7799	1414.6975	1424.831	1480.1242	1487.2061	1488.7566	1494.2766	1511.2959	1664.1579	3000.2361	3043.4466	3047.6052	3115.2046	3122.5249	3124.5094	3127.9253	3253.2117	3284.7093
CC(C)OC1=CON=C1	CC(C)Oc1conc1	
InChI=1S/C6H9NO2/c1-5(2)9-6-3-7-8-4-6/h3-5H,1-2H3	InChI=1S/C6H9NO2/c1-5(2)9-6-3-7-8-4-6/h3-5H,1-2H3
