18
gdb 107814	3.39471	1.50991	1.30483	0.6985	75.12	-0.2127	0.0075	0.2202	1006.717	0.148857	-401.899759	-401.8923	-401.891355	-401.931578	29.744	
O	-0.0226589057	 1.392732358	 0.1584040296	-0.427987
C	 0.0209073986	-0.0183359972	-0.0053693957	-0.186888
C	-1.4053706799	-0.5084837437	-0.0384217832	 0.307283
C	-2.246454282	-0.4583581672	 1.2833500497	-0.268744
C	-2.6467623527	-1.8848965974	 0.9551546015	-0.053501
C	-2.9351185615	-2.1221371173	-0.5079934485	-0.07411
C	-3.2156424343	-0.9575064055	-1.3915143264	-0.089256
C	-2.2882247347	-0.0266197148	-1.1654530304	-0.126371
N	-1.53048774	-2.042871646	-0.0450613466	-0.178671
H	 0.8798792992	 1.7237988514	 0.1617902308	 0.292099
H	 0.5212795975	-0.3063716798	-0.9430265102	 0.096288
H	 0.5551176444	-0.5099553908	 0.8219679519	 0.092179
H	-1.5907181019	-0.4415991301	 2.15740146	 0.11221
H	-3.0142645731	 0.3130267986	 1.3824685283	 0.103132
H	-2.8653634202	-2.6564674783	 1.6880655063	 0.091553
H	-3.2740879919	-3.1182766292	-0.7765940389	 0.091419
H	-4.0590947474	-0.9004958244	-2.0670620412	 0.104359
H	-2.2264085043	 0.9713134738	-1.5781069369	 0.115007
86.0392	174.4555	240.2324	288.2966	365.4585	389.1371	414.8179	549.978	656.7057	717.1849	739.8501	764.5741	775.7918	809.3589	837.3038	899.2064	931.5073	957.5666	979.3462	996.2466	1022.115	1049.1776	1069.6456	1079.4887	1098.9005	1138.3694	1157.2996	1181.1562	1224.7437	1247.3309	1265.8032	1280.5715	1337.1895	1366.3934	1373.8961	1464.0027	1482.8568	1521.1075	1656.6642	2976.0262	3010.3272	3058.7806	3114.6027	3146.3874	3159.8508	3212.2397	3237.8592	3834.7253
OCC12CC3C(C=C1)N23	OC[C@@]12C[C@H]3[C@@H](C=C1)N23	
InChI=1S/C7H9NO/c9-4-7-2-1-5-6(3-7)8(5)7/h1-2,5-6,9H,3-4H2	InChI=1S/C7H9NO/c9-4-7-2-1-5-6(3-7)8(5)7/h1-2,5-6,9H,3-4H2/t5-,6+,7+,8?/m1/s1
