23
gdb 119615	3.85889	0.94253	0.86102	0.9727	86.53	-0.2489	0.0853	0.3342	1464.6215	0.206805	-388.286484	-388.277349	-388.276405	-388.32064	34.759	
C	-0.2816799129	 1.3922256807	 0.1847719875	-0.218999
O	-0.1831451761	-0.0087344706	 0.128390398	-0.235969
C	 0.7207326122	-0.5345986468	 1.0831608837	-0.164359
C	 0.8061935524	-2.0232608271	 0.9103810676	 0.373597
C	-0.2098352201	-2.906786101	 1.5956353092	-0.326153
C	 1.2312301139	-2.935433529	 2.0455011626	-0.08205
C	 2.130108805	-4.0239167607	 1.4752536581	-0.213646
C	 1.8346240656	-4.0217183469	-0.0434066496	-0.230116
C	 1.4250393726	-2.5676926815	-0.3735269823	-0.260795
H	 0.6873822464	 1.8811531384	-0.0075604174	 0.099961
H	-0.9918959823	 1.7038047577	-0.5853374302	 0.124558
H	-0.6473309059	 1.7395218493	 1.1650660504	 0.099493
H	 1.7166668228	-0.0750959009	 0.9461059387	 0.078162
H	 0.3861748671	-0.2827623854	 2.1046947492	 0.07695
H	-0.9215506812	-2.4133544684	 2.2490917053	 0.107168
H	-0.6218768989	-3.7585554746	 1.0642765856	 0.106815
H	 1.4664291106	-2.5296686292	 3.0244037693	 0.075841
H	 3.1782548675	-3.7602077446	 1.6631130894	 0.096363
H	 1.9602850691	-5.0062325207	 1.9296489693	 0.0957
H	 2.6886104253	-4.36033034	-0.6358935002	 0.095453
H	 1.0102360283	-4.7060615674	-0.2675381447	 0.104631
H	 0.7502283894	-2.504354648	-1.2323110635	 0.106146
H	 2.3109588792	-1.9663910334	-0.6169833159	 0.09125
68.5707	98.5926	119.0378	224.4914	238.388	260.4355	326.8541	347.4865	401.5251	426.4577	617.1018	625.7358	722.3298	814.0404	847.9507	884.8887	896.8212	921.6466	945.562	963.0748	980.6713	1005.26	1032.9622	1057.9514	1073.2201	1083.2495	1119.9388	1152.1401	1175.3723	1184.9484	1199.0338	1223.8285	1243.0846	1256.0204	1275.6185	1306.5421	1325.7688	1342.6135	1354.7863	1400.2397	1431.6447	1480.0406	1484.5735	1488.6366	1492.4554	1495.6183	1502.0763	1517.7208	1523.5807	2932.098	2962.2745	2965.5275	3003.3473	3022.085	3028.0531	3051.3191	3068.4627	3081.8746	3098.8741	3110.0264	3127.2489	3156.538	3208.3894
COCC12CC1CCC2	COC[C@]12C[C@H]1CCC2	
InChI=1S/C8H14O/c1-9-6-8-4-2-3-7(8)5-8/h7H,2-6H2,1H3	InChI=1S/C8H14O/c1-9-6-8-4-2-3-7(8)5-8/h7H,2-6H2,1H3/t7-,8+/m1/s1
