17
gdb 29411	4.98261	0.87024	0.78902	1.7152	79.99	-0.1811	-0.0243	0.1568	1418.7428	0.136237	-418.046644	-418.037614	-418.03667	-418.081608	32.639	
N	-0.3540389948	 1.4168432462	 0.3374172669	-0.604365
C	-0.0852698364	 0.0562328625	 0.0945501864	 0.26725
C	-0.9928442292	-0.9276458069	-0.2413490371	-0.16642
N	-0.3127656633	-2.1278484415	-0.2798955245	-0.292303
C	 1.0090132878	-1.9272604402	 0.0168473447	 0.315012
C	 1.9833476168	-3.0665142424	 0.0134101894	-0.378857
C	 2.0293286261	-3.6477055282	-1.3902806505	 0.151825
O	 1.4688366822	-4.663456259	-1.7185356567	-0.251422
C	 1.1815584384	-0.5777997566	 0.2502573674	-0.314292
H	 0.4076102723	 2.0147948609	 0.0423000312	 0.239739
H	-1.2035626238	 1.7298233166	-0.1151499441	 0.237616
H	-2.0513325988	-0.8755256851	-0.4376014695	 0.107357
H	-0.709808443	-3.0144329465	-0.5395330232	 0.268002
H	 2.9716782725	-2.6888259019	 0.2925661739	 0.125569
H	 1.6946183536	-3.8618975698	 0.7096249539	 0.12505
H	 2.5747952952	-3.0211546215	-2.1306861601	 0.083848
H	 2.1092256543	-0.0995708865	 0.5280626521	 0.08639
32.9394	54.6826	147.1916	181.8958	254.1882	268.7655	343.1746	416.4885	460.0005	490.2841	601.3873	629.838	671.0614	679.3436	727.6016	763.1948	799.4996	866.1074	985.83	998.5542	1003.7958	1057.1281	1103.9139	1131.15	1179.3683	1191.238	1283.8211	1307.6546	1336.1841	1416.5383	1457.7096	1460.6392	1482.4567	1543.7497	1638.1538	1660.1969	1818.0093	2887.3015	3038.7451	3101.7664	3239.1541	3264.2432	3530.6012	3618.2911	3677.38
NC1=CNC(CC=O)=C1	Nc1c[nH]c(CC=O)c1	
InChI=1S/C6H8N2O/c7-5-3-6(1-2-9)8-4-5/h2-4,8H,1,7H2	InChI=1S/C6H8N2O/c7-5-3-6(1-2-9)8-4-5/h2-4,8H,1,7H2
