17
gdb 48425	2.39369	1.4674	1.19433	3.5547	73.72	-0.2544	-0.0358	0.2186	1086.2958	0.134296	-421.853111	-421.844549	-421.843604	-421.887335	30.745	
O	-0.161611387	-0.0968795892	-0.0330974322	-0.246879
C	-0.0525158936	 1.096851003	 0.0479019152	 0.139949
C	 1.2695129528	 1.8622330126	-0.0133017786	 0.113693
C	 2.4850264124	 0.9166112055	-0.2407282822	-0.326177
C	 2.8647662153	 1.1521522753	-1.6808432965	-0.051882
C	 2.1995052582	 2.1642913374	-2.2281263909	-0.05449
C	 1.2462188101	 2.8182252299	-1.2591097393	-0.335625
C	 1.4288621768	 2.6738150529	 1.260005202	 0.114715
O	 0.6714586491	 2.6553827306	 2.1949782925	-0.249422
H	-0.9425363241	 1.7520986791	 0.153875174	 0.099832
H	 3.3193500933	 1.1498720543	 0.4349881597	 0.110447
H	 2.1860388054	-0.1162643645	-0.0381791105	 0.149118
H	 3.6127474961	 0.5483683814	-2.1819240116	 0.10513
H	 2.3148115085	 2.5221503797	-3.2447135087	 0.104295
H	 0.2295955135	 2.9303263937	-1.6575431135	 0.121559
H	 1.5759759289	 3.833224934	-0.9944404699	 0.117393
H	 2.3412584243	 3.3148672942	 1.2646993105	 0.088345
54.7808	75.2734	82.4684	227.2008	277.3834	322.7498	369.7005	380.2106	424.9463	596.6128	681.0583	705.3351	773.4575	804.3263	907.7123	926.3551	947.5797	975.2704	977.6664	983.9714	1018.6345	1088.8705	1118.7749	1131.3372	1143.03	1194.4473	1286.1701	1303.7978	1335.2091	1356.0249	1418.2468	1425.8497	1473.3195	1487.9484	1698.213	1818.0288	1839.6497	2861.5716	2912.2972	3002.2448	3013.9516	3037.6792	3084.7409	3190.2054	3215.0076
O=CC1(CC=CC1)C=O	O=CC1(CC=CC1)C=O	
InChI=1S/C7H8O2/c8-5-7(6-9)3-1-2-4-7/h1-2,5-6H,3-4H2	InChI=1S/C7H8O2/c8-5-7(6-9)3-1-2-4-7/h1-2,5-6H,3-4H2
