17
gdb 39721	5.15579	1.35188	1.2397	1.7522	76.5	-0.2223	0.0016	0.2239	1007.9845	0.137122	-384.601918	-384.595508	-384.594564	-384.632394	27.031	
C	 0.053415291	 1.5262417753	 0.0294642943	-0.314182
O	 1.2115720073	 0.653421778	 0.0139840372	-0.304396
C	-0.0746693899	 0.078338231	-0.0015000409	 0.538601
C	-0.6117646628	-0.9990548338	 0.9307230881	-0.164754
C	-1.8548039036	-1.1558346647	-0.0322122803	-0.060611
C	-2.195011999	-2.638893516	-0.0645209664	-0.110174
C	-1.0066535208	-3.2433014893	-0.0741153218	-0.11563
C	-0.0127877851	-2.0927147357	-0.0472646694	-0.054855
C	-0.6068272762	-0.9586069226	-0.9812144834	-0.164753
H	-0.0967803856	 2.0729531484	 0.9596301427	 0.11653
H	-0.0920429803	 2.1118216535	-0.8775078899	 0.116529
H	-0.6180598271	-1.0283670844	 2.0219029043	 0.079355
H	-2.6479878687	-0.4083236201	-0.0184522212	 0.065869
H	-3.1901263848	-3.0599745756	-0.0760497583	 0.106133
H	-0.7627842462	-4.2957692031	-0.0956993858	 0.105953
H	 1.059590497	-2.2807107536	-0.0484668334	 0.081031
H	-0.6074822052	-0.9417448174	-2.0726756657	 0.079355
155.8768	251.2308	294.0385	458.217	480.5934	517.9708	577.1047	671.1627	752.539	769.8342	772.1826	794.1424	866.3799	886.2002	904.7357	909.3232	931.382	938.5259	986.4958	1015.6391	1019.0117	1092.4856	1110.2879	1123.4099	1133.2737	1138.5343	1150.7251	1162.1022	1180.4898	1193.8034	1204.4676	1254.0195	1315.7257	1324.9351	1468.5828	1563.1178	1637.2351	3080.4633	3101.3386	3102.9567	3120.7242	3138.0706	3164.6027	3224.2653	3251.4528
C1OC11C2C3C=CC2C13	C1O[C@]21[C@H]1[C@@H]3C=C[C@H]1[C@H]23	
InChI=1S/C8H8O/c1-2-5-6-4(1)7(5)8(6)3-9-8/h1-2,4-7H,3H2	InChI=1S/C8H8O/c1-2-5-6-4(1)7(5)8(6)3-9-8/h1-2,4-7H,3H2/t4-,5+,6-,7+,8-
