18
gdb 48893	3.64494	1.40974	1.32979	2.1728	76.88	-0.2361	-0.0275	0.2086	1002.9435	0.149574	-401.895993	-401.889076	-401.888132	-401.927509	27.75	
O	-0.0738530131	 0.0071149371	 0.1937389462	-0.250767
C	 0.0308449834	 1.2079734126	 0.1229660089	 0.027241
C	 1.3172416524	 1.9448546968	 0.0322603064	 0.233685
C	 2.6815755007	 1.2625201372	-0.2262209398	-0.277675
C	 3.0806323206	 2.6650462361	-0.6821465615	 0.00615
C	 1.6362434594	 2.9533255533	-1.1792995867	-0.100446
C	 1.8085810053	 4.3479830848	-0.5935432112	-0.189454
N	 2.7353745351	 3.7179785003	 0.423824901	-0.145622
C	 1.7375940663	 2.9074196227	 1.1807624832	-0.210097
H	-0.8733620604	 1.8623497299	 0.1232209606	 0.067041
H	 3.1914516585	 0.7885694997	 0.6158058864	 0.110691
H	 2.6488315826	 0.5798358922	-1.0790562106	 0.117949
H	 3.9856484311	 2.9140128079	-1.2327293823	 0.087675
H	 1.2556131543	 2.7030912909	-2.1701507935	 0.082823
H	 2.3774055753	 5.0022533581	-1.2606101887	 0.114503
H	 0.9624351891	 4.8983417197	-0.1709340278	 0.103239
H	 0.9397350765	 3.5440610567	 1.5707938968	 0.107359
H	 2.2003950928	 2.3691117939	 2.0106002025	 0.115705
79.5605	164.6852	269.3965	361.1879	435.2678	461.8508	539.1788	654.0152	671.0429	754.7938	788.4075	817.3268	854.8291	870.8346	917.3243	938.1182	971.328	976.5436	1004.9857	1024.1064	1031.5575	1053.2788	1095.318	1129.5703	1157.2483	1170.818	1192.4229	1210.1439	1242.6163	1253.8626	1267.3048	1275.6901	1299.2291	1338.2758	1424.9219	1488.0581	1504.6675	1528.7538	1810.136	2847.7582	3047.0092	3064.3843	3068.5538	3103.2814	3111.1451	3118.0705	3125.9946	3140.3831
O=CC12CC3C1CN3C2	O=C[C@@]12C[C@H]3[C@@H]1CN3C2	
InChI=1S/C7H9NO/c9-4-7-1-6-5(7)2-8(6)3-7/h4-6H,1-3H2	InChI=1S/C7H9NO/c9-4-7-1-6-5(7)2-8(6)3-7/h4-6H,1-3H2/t5-,6-,7-/m0/s1
