22
gdb 53282	2.50825	0.95642	0.79844	1.5011	93.14	-0.219	0.042	0.2611	1571.3084	0.191229	-367.168954	-367.158033	-367.157088	-367.207375	38.77	
C	 0.1923488543	 1.5148683673	-0.708540658	-0.499538
C	 0.0970555249	 0.0764217952	-0.5065754686	 0.039292
C	 0.0236859954	-1.1137113221	-0.3271844248	 0.114577
C	-0.03758991	-2.5426191661	-0.1684397403	-0.188292
C	-0.3337087106	-3.1397868186	 1.1767670619	-0.246279
N	-1.3015272622	-3.2567143772	 0.1023113698	-0.080853
C	-2.5422642486	-2.4803268931	 0.2194894483	 0.084992
C	-3.1176139307	-2.2566642786	-1.1797873394	-0.386702
C	-3.5104819713	-3.2512705683	 1.1187489211	-0.38463
H	 1.2331703878	 1.8234501865	-0.857082333	 0.150759
H	-0.3763063486	 1.8359260482	-1.5884223394	 0.148963
H	-0.1947049789	 2.0652040811	 0.1562022854	 0.148773
H	 0.6234467889	-3.0959355435	-0.8323594912	 0.109782
H	 0.1627567557	-4.056675095	 1.4843703808	 0.115078
H	-0.5375009696	-2.4328395466	 1.9798299774	 0.114562
H	-2.3429147643	-1.4964784841	 0.6765218201	 0.068605
H	-2.4191105123	-1.6897290607	-1.8011792318	 0.122564
H	-3.3133598629	-3.2164811623	-1.6684657837	 0.118778
H	-4.0566269861	-1.6969454502	-1.1244429462	 0.106465
H	-3.0898352458	-3.4001020062	 2.1182818476	 0.111114
H	-4.4522577644	-2.7042129881	 1.2259726258	 0.109992
H	-3.7275181605	-4.2358408777	 0.6924103582	 0.121999
6.3534	69.856	75.8539	140.0562	195.4822	219.1703	235.3532	256.174	312.3358	337.9378	343.2715	428.4914	467.7526	524.5909	600.5406	707.7043	731.643	876.1694	900.8527	932.7637	961.3261	962.9871	1011.6305	1051.627	1053.2306	1065.2828	1113.5971	1121.2281	1147.0283	1181.7485	1196.869	1204.5424	1315.3906	1359.829	1371.338	1379.3356	1396.9782	1414.5525	1415.7939	1476.3313	1479.0348	1483.2979	1487.9012	1495.5398	1501.5985	1511.6729	2360.575	2958.3847	3025.3465	3033.6953	3038.7429	3085.1213	3087.1987	3088.9647	3105.1124	3106.7999	3112.9895	3117.6382	3119.9482	3177.2852
CC#CC1CN1C(C)C	CC#C[C@H]1CN1C(C)C	
InChI=1S/C8H13N/c1-4-5-8-6-9(8)7(2)3/h7-8H,6H2,1-3H3	InChI=1S/C8H13N/c1-4-5-8-6-9(8)7(2)3/h7-8H,6H2,1-3H3/t8-,9?/m0/s1
