19
gdb 58370	2.18626	1.15522	0.91095	1.4587	83.48	-0.259	0.0333	0.2923	1352.1002	0.155177	-385.825731	-385.815283	-385.814339	-385.861047	38.593	
C	 0.7598091202	-0.3519789744	 1.3138872305	-0.413464
C	 0.1045037309	-0.1191118429	-0.0460273205	 0.131494
O	 0.8638133466	-0.6832467809	-1.1041207226	-0.434302
C	-1.3654484211	-0.6276636147	-0.0966663967	-0.186126
C	-2.0710257098	-0.1567275441	-1.4023169953	-0.358423
C	-2.2871835186	 1.283667103	-1.4323551943	 0.299007
C	-2.462590681	 2.4730817885	-1.4297613781	-0.446918
C	-1.3977662118	-2.0855820347	-0.0047629741	 0.293944
C	-1.3824488189	-3.2883408987	 0.0307139029	-0.443219
H	 1.7948330474	-0.0016717005	 1.2890719737	 0.126328
H	 0.2290552615	 0.1872506163	 2.1055660574	 0.115828
H	 0.7599425781	-1.4169717242	 1.5703813747	 0.122328
H	 0.0753871854	 0.9545567547	-0.2582528273	 0.10778
H	 0.8633151221	-1.6404614873	-0.975013826	 0.282187
H	-1.9056242081	-0.201734298	 0.7576562428	 0.115378
H	-1.4461537656	-0.4632358213	-2.2480000199	 0.153408
H	-3.0289514882	-0.6778015344	-1.5019619386	 0.136704
H	-2.6215228659	 3.522812441	-1.445861459	 0.197103
H	-1.3970119932	-4.3491874675	 0.0837146704	 0.200964
68.7333	88.8219	120.8742	142.338	213.6078	240.5358	250.8107	338.4558	350.8333	377.4289	407.8732	469.3032	495.6625	561.905	617.6915	641.0891	651.5616	652.3554	661.426	760.749	916.8595	942.5668	957.9062	990.2345	1026.7492	1062.4949	1102.5431	1139.9786	1215.4805	1258.8496	1296.5038	1333.3887	1353.0423	1370.2458	1404.5394	1434.9319	1469.3544	1491.2943	1497.3455	2225.3554	2237.0428	3033.5005	3037.9114	3047.2617	3066.0507	3087.4804	3105.7319	3122.185	3501.4862	3506.224	3768.2144
CC(O)C(CC#C)C#C	C[C@@H](O)[C@@H](CC#C)C#C	
InChI=1S/C8H10O/c1-4-6-8(5-2)7(3)9/h1-2,7-9H,6H2,3H3	InChI=1S/C8H10O/c1-4-6-8(5-2)7(3)9/h1-2,7-9H,6H2,3H3/t7-,8-/m1/s1
