13
gdb 43557	2.19941	1.63904	1.06303	3.9713	70.11	-0.2918	-0.014	0.2777	1079.6753	0.088002	-415.570912	-415.56279	-415.561846	-415.604191	29.156	
N	-0.1265946262	 1.2141277519	-0.5594241686	-0.519174
C	-0.0382858653	 0.0586617473	-0.1003107264	 0.454858
O	 1.029139156	-0.6624932144	 0.3840303864	-0.243744
C	 0.1924996444	-1.8322155536	 0.6932860221	-0.083371
C	 0.1837748234	-2.1756395044	 2.0940131137	 0.365792
C	 0.1618487347	-2.47522535	 3.2563655465	-0.424248
C	-1.0485818456	-1.0704625591	 0.1025183521	-0.327385
C	-2.1814916213	-0.8154643916	 0.9706748448	 0.319011
N	-3.0878124779	-0.6249054161	 1.6605362134	-0.313905
H	 0.7697412725	 1.7024816784	-0.5582818652	 0.245426
H	 0.5053588957	-2.6760294951	 0.0730068021	 0.138404
H	 0.1372664951	-2.7330409886	 4.2872159379	 0.22298
H	-1.3904579756	-1.4966460146	-0.8437743188	 0.165356
69.6901	101.6724	147.0399	199.6958	258.5322	391.9154	435.4288	465.7537	509.6441	590.6261	657.3236	661.3963	700.451	779.2919	803.7713	866.1925	920.4394	926.6942	1011.4442	1056.6731	1105.2358	1160.3053	1202.0181	1293.6584	1315.2042	1367.9323	1842.9075	2248.5393	2371.0637	3080.06	3096.1325	3492.8868	3498.8544
N=C1OC(C#C)C1C#N	[NH][C]1O[C@@H](C#C)[C@H]1C#N	
InChI=1S/C6H4N2O/c1-2-5-4(3-7)6(8)9-5/h1,4-5,8H	InChI=1S/C6H4N2O/c1-2-5-4(3-7)6(8)9-5/h1,4-5,8H/t4-,5+/m1/s1
