17
gdb 92307	2.31212	1.95207	1.29932	3.2145	67.4	-0.265	0.0006	0.2656	989.2169	0.136819	-458.993803	-458.986157	-458.985213	-459.026272	28.729	
C	 0.0856261563	 1.549984602	-0.1280382951	-0.407545
C	 0.0470333424	 0.0488225541	 0.0453598377	 0.148165
O	 0.9258726382	-0.6610107108	-0.8702217896	-0.308658
C	 1.4592968013	-1.4728494258	 0.1936580553	 0.104908
C	 2.9493711171	-1.2402423921	 0.4321828887	-0.10496
O	 3.0506446014	-0.1140176951	 1.3186791093	-0.223798
C	 1.8517510645	 0.2090969476	 1.8807577667	 0.457752
O	 1.7460924007	 1.0567557495	 2.7185345088	-0.348808
C	 0.746720269	-0.6301280053	 1.2578229409	-0.270908
H	 1.1056580397	 1.9337123603	-0.0456848581	 0.140639
H	-0.3065780909	 1.8177532261	-1.113862768	 0.129042
H	-0.5306756775	 2.0361196284	 0.6344957865	 0.13651
H	-0.9807244258	-0.3229888628	-0.0626568184	 0.087308
H	 1.1979140755	-2.5292448059	 0.0795721771	 0.091095
H	 3.4271935089	-2.1025858928	 0.9104670803	 0.118117
H	 3.4721010532	-1.0007867062	-0.4969226624	 0.138027
H	 0.110510416	-1.0837103812	 2.0153641702	 0.113111
77.331	150.7289	165.6798	219.1815	344.5214	367.8257	426.9503	512.1115	594.8975	703.492	736.9696	774.2803	843.6793	857.2397	902.4495	918.5068	951.7248	998.443	1048.4355	1074.2815	1090.228	1104.4597	1155.3929	1173.7974	1210.0301	1228.5353	1260.9837	1272.4362	1326.5135	1343.2581	1388.8992	1402.5833	1416.5501	1475.8525	1497.7933	1501.4262	1876.7312	3011.9314	3042.8055	3044.6889	3065.6201	3112.4131	3117.5729	3128.8193	3138.4304
CC1OC2COC(=O)C12	C[C@H]1O[C@H]2COC(=O)[C@@H]12	
InChI=1S/C6H8O3/c1-3-5-4(9-3)2-8-6(5)7/h3-5H,2H2,1H3	InChI=1S/C6H8O3/c1-3-5-4(9-3)2-8-6(5)7/h3-5H,2H2,1H3/t3-,4+,5+/m1/s1
