22
gdb 8577	3.66185	1.77005	1.53871	0.1212	80.84	-0.2722	0.0797	0.3519	950.9723	0.20385	-313.078286	-313.071109	-313.070165	-313.109181	29.846	
C	 0.117195254	 1.5886135265	 0.0109307517	-0.410561
C	 0.0331575577	 0.0608890258	 0.0025192453	 0.062684
C	 0.6375493694	-0.5542647254	-1.2854754867	-0.207956
C	 1.0401215716	-2.0240309057	-1.0751670232	-0.005326
C	 0.1254881857	-2.7062125579	-0.0132352894	-0.22979
C	 1.0446380811	-2.0359935252	 1.0524078623	-0.005326
C	 2.1718867184	-2.0957984446	-0.0141473368	-0.207965
C	 0.6429970991	-0.568694404	 1.2809373624	-0.207956
H	 1.1615013824	 1.9228787085	 0.0105927575	 0.110989
H	-0.3700510485	 2.0199732815	-0.8705753057	 0.108016
H	-0.3662929429	 2.0100211346	 0.8992933441	 0.108016
H	-1.031108638	-0.2048033153	 0.0032843527	 0.075817
H	-0.0918154641	-0.4637297558	-2.0998389896	 0.087889
H	 1.523609747	 0.0134411771	-1.6015654272	 0.089083
H	 1.1979111824	-2.5385142905	-2.026593241	 0.054178
H	-0.9440819561	-2.4786374417	-0.0096857857	 0.087346
H	 0.2558503122	-3.7917751035	-0.0196149374	 0.091062
H	 1.2064526326	-2.5611399922	 1.9973097812	 0.054178
H	 2.677008494	-3.0659996412	-0.0206755498	 0.088155
H	 2.9222518318	-1.2977573123	-0.0112529135	 0.080493
H	 1.530405102	-0.0045578343	 1.5996262031	 0.089083
H	-0.0829016718	-0.4873389344	 2.0993564457	 0.087889
120.9563	246.6461	287.3426	314.0558	386.7823	408.7653	426.6731	487.8301	550.3702	759.8218	819.6327	826.392	851.1115	866.9365	886.7586	918.6285	932.6983	950.6776	977.1453	998.0537	1041.7677	1061.6981	1092.4831	1098.3959	1125.2456	1127.6396	1133.9901	1205.26	1226.5824	1245.1157	1259.2998	1264.8006	1314.0794	1317.0693	1332.4124	1344.2123	1354.6981	1379.789	1392.6223	1410.6534	1482.0621	1490.0715	1493.5824	1497.547	1500.606	1518.3024	3007.098	3007.2905	3011.2983	3021.9438	3037.235	3045.9776	3051.2199	3052.1369	3067.3478	3072.0608	3088.6348	3091.1968	3095.1171	3103.963
CC1CC2CC(C2)C1	C[C@H]1C[C@@H]2C[C@@H](C2)C1	
InChI=1S/C8H14/c1-6-2-7-4-8(3-6)5-7/h6-8H,2-5H2,1H3	InChI=1S/C8H14/c1-6-2-7-4-8(3-6)5-7/h6-8H,2-5H2,1H3/t6-,7-,8+
