16
gdb 96750	4.00521	0.77114	0.65276	1.6693	76.08	-0.2498	-0.0839	0.166	1612.9611	0.12166	-434.07366	-434.063649	-434.062705	-434.110021	33.619	
C	 0.1598559533	 1.4404008289	-0.0671802401	-0.311871
N	 0.0549667884	-0.0078990131	-0.0144291029	-0.302333
C	-1.0676265841	-0.6101788929	-0.001503411	 0.310867
N	-1.1107664542	-1.9951241006	-0.0470178447	-0.35382
C	 0.1398368564	-2.7210051575	 0.0769993407	-0.250955
C	-0.0841678903	-4.1599163574	-0.0598739836	 0.245975
N	-0.2662622238	-5.2966899284	-0.1503989984	-0.291106
C	-2.4497494938	-0.0013902146	 0.0115022933	 0.104774
O	-2.6715676811	 1.1791084832	 0.0727483497	-0.232149
H	 1.214885819	 1.7017666463	-0.1829495986	 0.119161
H	-0.4055733333	 1.8798052125	-0.8964076829	 0.134462
H	-0.2129357821	 1.909205204	 0.8510957332	 0.134865
H	-1.9262658425	-2.446707138	 0.3388387346	 0.259854
H	 0.8246509391	-2.3728301488	-0.7031423526	 0.182874
H	 0.6476658291	-2.519305231	 1.0320889877	 0.161612
H	-3.2807307	-0.7429266926	-0.0391240745	 0.087793
34.6132	63.9742	105.504	132.7965	179.9772	220.5107	247.9527	273.3561	375.8189	382.6687	426.6628	433.3598	544.557	554.3131	768.5744	847.3266	950.1865	994.9557	1008.7592	1090.8805	1105.3647	1115.118	1162.0224	1232.9218	1267.6345	1359.4323	1433.7977	1443.881	1478.4894	1485.2426	1499.4403	1513.9039	1701.8049	1830.484	2371.1439	2861.3997	3004.0646	3020.8172	3078.3234	3078.7176	3103.8351	3618.0424
CN=C(NCC#N)C=O	CN=C(NCC#N)C=O	
InChI=1S/C5H7N3O/c1-7-5(4-9)8-3-2-6/h4H,3H2,1H3,(H,7,8)	InChI=1S/C5H7N3O/c1-7-5(4-9)8-3-2-6/h4H,3H2,1H3,(H,7,8)
