19
gdb 81596	3.60998	1.1452	1.00383	2.0261	74.76	-0.2492	0.0685	0.3176	1219.4452	0.1594	-422.931792	-422.923963	-422.923019	-422.96458	30.961	
O	-0.2985186956	 1.3760436748	-0.3668872188	-0.445796
C	-0.1163597978	 0.0109211153	-0.2106923358	 0.190916
C	 0.178537643	-0.5321044625	 1.2169687079	-0.034891
O	-1.2124466597	-0.1390386161	 1.586316575	-0.341231
C	-1.3313338538	-0.8411020263	 0.2769045162	-0.039243
C	-0.3673161447	-1.9289124561	 0.8203244891	 0.017015
C	 0.3969785051	-2.8909002985	-0.0580910509	-0.043436
C	-0.3061804129	-4.0935009858	-0.6413323757	-0.268423
C	 0.1884574567	-3.000955231	-1.5515882733	-0.260927
H	-0.8277509057	 1.6456476575	 0.3983867737	 0.28691
H	 0.4822924843	-0.3634748272	-1.0394372811	 0.101125
H	 0.9704603802	-0.2690009512	 1.9199831715	 0.093824
H	-2.3348536142	-0.9362477955	-0.1408523293	 0.094845
H	-0.7988120494	-2.4225969409	 1.695350657	 0.093327
H	 1.4120752141	-3.0761433369	 0.2851365819	 0.091614
H	 0.2117281883	-5.046016012	-0.6398241367	 0.114187
H	-1.3777221247	-4.170306683	-0.4863083953	 0.114665
H	-0.5531970575	-2.3591522457	-2.0145311287	 0.119595
H	 1.0526453144	-3.1968856388	-2.1768514566	 0.115923
55.7854	152.3022	164.9589	283.3913	335.6749	378.8861	420.258	574.1589	597.4379	679.7757	751.8911	780.5689	796.4154	817.3741	844.0923	860.8475	896.222	904.7493	921.1388	950.8798	1037.4354	1046.9061	1062.1209	1085.9183	1120.1028	1132.8539	1136.4004	1142.8958	1162.3582	1181.7461	1200.5893	1220.5788	1229.825	1254.2965	1269.0887	1319.385	1364.0469	1402.386	1455.4836	1471.71	1506.2117	3076.2703	3105.7766	3111.9112	3129.2362	3131.1103	3136.4005	3144.8032	3208.129	3223.7769	3731.8088
OC1C2OC1C2C1CC1	O[C@H]1[C@H]2O[C@@H]1[C@H]2C1CC1	
InChI=1S/C7H10O2/c8-5-6-4(3-1-2-3)7(5)9-6/h3-8H,1-2H2	InChI=1S/C7H10O2/c8-5-6-4(3-1-2-3)7(5)9-6/h3-8H,1-2H2/t4-,5-,6-,7+
