19
gdb 11503	4.78237	1.0408	0.91162	4.2092	75.84	-0.2894	0.0398	0.3292	1272.917	0.165122	-327.936134	-327.927314	-327.92637	-327.969981	31.936	
C	-0.0854436946	 1.6055054977	 0.1695453997	-0.387086
C	-0.0182472513	 0.0709195579	 0.0470664705	-0.140229
C	 0.7880558131	-0.6137059183	 1.1809872081	-0.204159
C	 2.255482322	-0.2407787625	 1.1891761036	 0.019186
C	 2.7742416711	 0.9062230143	 2.0243481127	-0.252566
C	 3.09029947	-0.5152383195	 2.414489082	-0.283115
C	-1.3719023063	-0.4926484422	-0.0076417988	 0.262809
N	-2.4392975919	-0.9356222188	-0.0357426865	-0.324901
H	 0.9215971727	 2.0260223588	 0.1462716178	 0.136093
H	-0.6632421173	 2.0360753785	-0.6519858111	 0.135288
H	-0.5617247808	 1.8981680477	 1.1099162159	 0.133013
H	 0.4639803576	-0.1795254488	-0.9075320702	 0.124973
H	 0.3319269729	-0.3601820733	 2.1457998657	 0.111484
H	 0.6859001519	-1.6992229586	 1.0663227979	 0.120767
H	 2.7579657438	-0.396562603	 0.236736611	 0.084982
H	 3.5718882992	 1.5208418156	 1.6217564434	 0.115215
H	 2.062405657	 1.4499461409	 2.6365188824	 0.11501
H	 2.588127729	-0.9242650138	 3.2851864195	 0.116728
H	 4.1030177418	-0.8765915724	 2.2764134863	 0.116509
57.3418	94.9637	127.0647	199.1715	221.9598	281.2397	310.774	348.2219	429.9707	548.5361	570.6632	775.4423	798.7424	815.2472	838.9385	886.9975	919.782	939.0315	982.5663	1044.6456	1061.9981	1081.0166	1097.8275	1127.2273	1140.9755	1184.0246	1198.3235	1229.3345	1263.0615	1305.8292	1336.6582	1364.7935	1408.5649	1419.247	1468.3095	1483.2919	1494.7234	1498.8384	1507.7073	2354.9665	3019.9402	3031.0057	3051.6784	3069.8676	3123.3728	3127.0783	3130.5326	3135.8027	3140.0785	3208.9643	3223.9867
CC(CC1CC1)C#N	C[C@@H](CC1CC1)C#N	
InChI=1S/C7H11N/c1-6(5-8)4-7-2-3-7/h6-7H,2-4H2,1H3	InChI=1S/C7H11N/c1-6(5-8)4-7-2-3-7/h6-7H,2-4H2,1H3/t6-/m0/s1
