15
gdb 5372	5.24426	1.61254	1.24298	2.4987	73.65	-0.2109	-0.0358	0.175	938.5412	0.1214	-358.879945	-358.87297	-358.872026	-358.911123	25.922	
C	-0.0317171227	 1.4425079157	 0.0392155671	-0.344861
N	-0.0283439356	-0.0055656073	 0.0545279025	-0.318383
C	 0.5286038348	-0.6229798417	-0.9187756491	 0.402142
N	 1.1509835961	 0.000942125	-2.0254032623	-0.365958
C	 1.7336273857	-0.6921944295	-3.0431126225	 0.109956
N	 1.7902120266	-1.978139521	-3.1243650339	-0.285971
C	 1.1991175918	-2.6611668444	-2.07186227	-0.003183
C	 0.5964801266	-2.0664411029	-1.0175203332	-0.160189
H	 0.98354993	 1.8772074665	 0.0457716531	 0.103065
H	-0.562476459	 1.8644650438	-0.8325946784	 0.102998
H	-0.5418595723	 1.8133098856	 0.9317219784	 0.130007
H	 1.1618271613	 1.0085891162	-2.058959427	 0.263986
H	 2.1735342866	-0.0801374242	-3.8278624917	 0.130859
H	 1.2494856607	-3.7430883646	-2.1450053291	 0.116576
H	 0.1452219496	-2.6331864671	-0.2133712439	 0.118958
116.0708	157.8456	231.9579	240.984	388.49	450.7037	491.6786	581.663	646.8751	665.5004	753.6147	805.7252	858.7658	956.7477	978.8838	1008.543	1020.3859	1063.4824	1104.1104	1136.9366	1177.104	1241.5528	1267.5816	1409.0112	1428.4596	1445.7308	1458.2127	1503.6282	1506.993	1596.8676	1664.8866	1729.9176	2935.0888	2974.1429	3097.7194	3156.9723	3179.9286	3224.196	3631.3776
CN=C1NC=NC=C1	CN=c1[nH]cncc1	
InChI=1S/C5H7N3/c1-6-5-2-3-7-4-8-5/h2-4H,1H3,(H,6,7,8)	InChI=1S/C5H7N3/c1-6-5-2-3-7-4-8-5/h2-4H,1H3,(H,6,7,8)
