22
gdb 94235	2.90322	1.12272	1.03005	3.671	82.87	-0.2437	0.0327	0.2763	1290.1306	0.193072	-404.375455	-404.365509	-404.364565	-404.41011	37.212	
C	-0.6998919331	 1.183971318	-0.0787136971	-0.417184
C	 0.1661367415	-0.0667632699	-0.0911554686	-0.009263
C	 1.57236362	-0.0283211839	-0.7513723681	-0.245233
C	 2.0833669641	-0.9810577471	 0.3604285768	-0.23444
C	 0.8419311543	-0.5920474029	 1.2191305645	 0.340357
C	 1.1640801424	 0.4870037938	 2.2562311088	-0.437367
N	 0.1140237045	-1.6982234184	 1.8379151582	-0.336121
C	 0.6595867836	-2.5584877164	 2.7330417298	 0.148993
O	 1.8098038892	-2.5263822115	 3.1231042407	-0.335359
H	-0.1637204176	 2.0429056066	 0.3360591771	 0.121148
H	-1.0059851879	 1.4459408733	-1.0973856178	 0.119034
H	-1.6125346115	 1.0432138424	 0.5120494478	 0.110194
H	-0.3994107687	-0.8996146405	-0.5285902863	 0.068225
H	 1.6451880976	-0.3700697583	-1.7859006617	 0.099212
H	 2.0229596886	 0.9667530255	-0.6856883978	 0.103317
H	 2.0409380895	-2.029110682	 0.0572917369	 0.106364
H	 3.0605900951	-0.7813780279	 0.8020141204	 0.110734
H	 1.7222765512	 1.3135610816	 1.8061076908	 0.112881
H	 0.2505863623	 0.8936509374	 2.7020712007	 0.107855
H	 1.7762727682	 0.0500125781	 3.0480739852	 0.15314
H	-0.8583322334	-1.8192168495	 1.6003152275	 0.241677
H	-0.07193856	-3.3202170882	 3.0738490624	 0.071835
58.3014	116.9284	157.1345	197.7212	205.5838	243.8739	254.3805	287.949	350.0514	390.7805	416.7467	477.5181	532.3409	583.6658	685.1246	766.7989	844.8618	891.7097	905.2414	909.135	947.3007	959.7775	985.2983	1029.7796	1067.959	1108.051	1159.6479	1164.8184	1190.8616	1194.3855	1226.5018	1259.2812	1270.4415	1273.4495	1314.1265	1371.6941	1404.0316	1411.7523	1429.3115	1478.7105	1479.9335	1491.2812	1497.8452	1499.1043	1510.3372	1513.3388	1795.4792	2917.5108	3017.9285	3028.0579	3039.2563	3056.8227	3078.5866	3089.0423	3104.27	3105.6426	3109.9971	3133.8578	3136.745	3620.7916
CC1CCC1(C)NC=O	C[C@H]1CC[C@]1(C)NC=O	
InChI=1S/C7H13NO/c1-6-3-4-7(6,2)8-5-9/h5-6H,3-4H2,1-2H3,(H,8,9)	InChI=1S/C7H13NO/c1-6-3-4-7(6,2)8-5-9/h5-6H,3-4H2,1-2H3,(H,8,9)/t6-,7-/m0/s1
