17
gdb 128520	2.14931	1.82043	1.02506	3.629	72.37	-0.2091	0.0147	0.2238	1143.2187	0.136183	-451.306824	-451.297392	-451.296448	-451.341647	32.598	
C	 0.1823882234	 1.3344511835	 0.3335085619	-0.260525
O	-0.0540068085	 0.1282579959	-0.4061512938	-0.278206
C	-1.2126065643	-0.4968174295	-0.1245034245	 0.339284
C	-1.8942297651	-0.8268987726	 1.0333443787	 0.176174
N	-1.5755439382	-0.5058728834	 2.3676392675	-0.603451
N	-3.0165706146	-1.5029425887	 0.6756783479	-0.247734
N	-3.0657758129	-1.6225661682	-0.6252014845	-0.17131
N	-1.9665657597	-1.0180889015	-1.1249693882	-0.000423
C	-1.7036433886	-1.0003591889	-2.5469784367	-0.328421
H	 1.1928113082	 1.6529207859	 0.074336218	 0.135438
H	-0.5368180918	 2.1085199265	 0.0427469854	 0.12801
H	 0.0999576455	 1.1584369666	 1.4094282989	 0.153652
H	-0.8097179049	-1.0729493336	 2.7188349773	 0.246772
H	-2.3853730851	-0.6931661787	 2.95036523	 0.251675
H	-2.5912030725	-1.39594436	-3.0403685115	 0.165436
H	-1.5124763846	 0.0209074264	-2.8854384262	 0.145527
H	-0.8378696964	-1.6218939995	-2.7930423304	 0.148102
57.0414	90.4818	140.7907	152.1012	192.3976	207.6693	274.4153	300.3786	326.3225	420.2699	544.9378	597.224	684.8999	712.8855	738.5441	814.3503	886.9717	1033.7152	1044.853	1109.0139	1143.6527	1153.787	1182.8193	1218.9287	1262.7105	1303.4458	1333.0969	1402.6222	1441.5812	1475.6466	1482.2204	1484.3056	1506.2463	1510.1305	1546.1516	1641.3619	1663.6849	3031.4129	3052.1827	3107.2921	3117.5437	3150.1745	3165.6821	3494.8085	3576.5798
COC1=C(N)N=NN1C	COc1c(N)nnn1C	
InChI=1S/C4H8N4O/c1-8-4(9-2)3(5)6-7-8/h5H2,1-2H3	InChI=1S/C4H8N4O/c1-8-4(9-2)3(5)6-7-8/h5H2,1-2H3
