19
gdb 95888	2.79774	1.22175	0.97389	3.9375	71.8	-0.2511	-0.0236	0.2275	1229.6145	0.158864	-460.17616	-460.167438	-460.166494	-460.209866	32.592	
O	-0.210779184	 1.5780296335	 0.1818204492	-0.436091
C	-0.1100330432	 0.1672874	-0.0075510728	 0.093332
C	 0.7939492409	-0.4833324933	 1.053417793	-0.23514
C	 0.1624270705	-0.3690644032	 2.4429799459	-0.064263
O	-1.1423901081	-0.9307978581	 2.4646734761	-0.274384
C	-2.0192101407	-0.2824330434	 1.5575138173	 0.035959
C	-1.5308160801	-0.3898092673	 0.1095881938	-0.201522
C	-3.3933375277	-0.8914662328	 1.7720498938	 0.13797
O	-4.287643145	-0.8410413004	 0.9686226381	-0.250384
H	 0.6747044729	 1.9521324241	 0.1334188539	 0.28376
H	 0.2830106678	-0.0503561328	-1.0118881787	 0.067585
H	 0.938625501	-1.5408366835	 0.8028131885	 0.108617
H	 1.7851727019	-0.0116212813	 1.0521527786	 0.087354
H	 0.7435352915	-0.9174218108	 3.1892575681	 0.108854
H	 0.11961744	 0.6883172723	 2.7464991306	 0.098446
H	-2.1007342327	 0.7884412885	 1.8202162419	 0.112475
H	-2.2110358591	 0.1549326846	-0.548989536	 0.128419
H	-1.5350983624	-1.4416601891	-0.1951961628	 0.106667
H	-3.5065357035	-1.3868956771	 2.7615773815	 0.092346
61.9762	127.4738	166.4775	189.5288	271.8226	296.3247	356.7316	378.1071	442.8611	474.5101	522.1924	602.1737	713.3626	786.2886	843.9037	855.1709	898.5689	953.3112	989.4483	1020.3383	1065.0555	1078.0221	1106.2441	1117.849	1143.4184	1206.6552	1215.9018	1261.0475	1281.5962	1306.8604	1348.6653	1361.764	1374.2714	1386.3287	1401.7899	1420.1089	1430.5779	1461.4845	1476.0029	1498.1143	1837.9987	2897.4429	2946.2343	2982.7007	2991.5935	3025.5452	3058.0414	3071.0596	3093.0456	3118.7067	3818.3509
OC1CCOC(C1)C=O	O[C@H]1CCO[C@@H](C1)C=O	
InChI=1S/C6H10O3/c7-4-6-3-5(8)1-2-9-6/h4-6,8H,1-3H2	InChI=1S/C6H10O3/c7-4-6-3-5(8)1-2-9-6/h4-6,8H,1-3H2/t5-,6-/m0/s1
