19
gdb 86899	3.18759	1.12219	0.92527	4.0393	72.55	-0.241	-0.032	0.2091	1293.1842	0.157076	-460.176347	-460.167028	-460.166084	-460.211086	33.615	
C	-0.4051401398	 1.4432142574	-0.1722490481	-0.417568
C	 0.2765431724	 0.0905038725	-0.0915055667	 0.105483
O	 1.5025871615	 0.133551166	-0.837871822	-0.276182
C	 2.3475619138	-0.8729461694	-0.3256406097	 0.11305
O	 1.818016789	-1.2991791275	 0.9135231593	-0.285987
C	 0.7602484888	-0.4003673421	 1.284204934	 0.112521
C	 1.2747699227	 0.6759966007	 2.2342230636	-0.405916
C	 2.3533391873	-2.0748137574	-1.274232499	 0.159915
O	 3.3431455962	-2.5205699448	-1.7871687279	-0.233801
H	 0.2374241469	 2.2360834559	 0.2170118539	 0.133427
H	-0.6470813773	 1.6777448971	-1.2119885576	 0.136248
H	-1.3384207599	 1.4317256431	 0.399436007	 0.123514
H	-0.3843751782	-0.6778153768	-0.5199086578	 0.082275
H	 3.3664546279	-0.4746736314	-0.2288285337	 0.09866
H	-0.0063204281	-1.0062364221	 1.7773276504	 0.092674
H	 2.006527426	 1.3226395959	 1.7411111256	 0.132088
H	 0.4545363391	 1.2991281326	 2.6040923693	 0.119213
H	 1.7585029379	 0.2020928941	 3.0920759786	 0.132076
H	 1.3399010938	-2.4978410038	-1.4565149394	 0.078309
55.1681	70.0017	123.4671	226.975	257.7178	264.3594	274.3267	326.1255	368.7248	404.1169	462.4013	526.344	700.9402	768.7749	795.1203	864.3208	902.1637	969.0446	1004.7659	1026.1417	1049.5514	1082.6387	1086.8432	1115.2208	1142.7915	1164.3849	1185.9714	1305.4936	1325.2376	1332.7244	1361.444	1384.7963	1390.461	1411.7488	1416.0947	1420.3894	1480.5546	1491.9437	1497.7036	1507.8542	1847.8976	2885.2557	2987.5256	3026.8418	3042.7765	3050.4774	3063.7735	3115.828	3120.7422	3125.6088	3136.7056
CC1OC(OC1C)C=O	C[C@H]1O[C@@H](O[C@H]1C)C=O	
InChI=1S/C6H10O3/c1-4-5(2)9-6(3-7)8-4/h3-6H,1-2H3	InChI=1S/C6H10O3/c1-4-5(2)9-6(3-7)8-4/h3-6H,1-2H3/t4-,5+,6+
