22
gdb 9264	5.44375	0.7751	0.713	0.8848	85.01	-0.2565	0.0595	0.316	1630.7838	0.197523	-313.049846	-313.039472	-313.038528	-313.085572	37.291	
C	-0.1555035744	 1.5345290092	 0.0747615156	-0.392156
C	 0.0253212789	 0.0157674813	-0.0163904256	-0.172505
C	 0.8089940625	-0.4737638049	-1.2504434073	 0.04649
C	 2.2592749142	 0.0325122624	-1.2437315552	-0.393548
C	 0.7334988121	-2.008967232	-1.3377197138	-0.174003
C	 1.2875504521	-2.6031359094	-2.6503946198	-0.371258
C	 1.1056990367	-4.0474179295	-2.7331528914	 0.295178
C	 0.9427604725	-5.2377852631	-2.7751927926	-0.437383
H	 0.7977347405	 2.0578909774	 0.1952251897	 0.118382
H	-0.6397997741	 1.9293814204	-0.8257122309	 0.11288
H	-0.7832154599	 1.8002429475	 0.9311174942	 0.112898
H	 0.525836467	-0.3496316441	 0.8912353132	 0.093199
H	-0.9651547778	-0.4566460392	-0.025245064	 0.092735
H	 0.3095500345	-0.0638278563	-2.1422689784	 0.06712
H	 2.8058265061	-0.2778436378	-2.139040349	 0.11429
H	 2.3044735975	 1.1243276282	-1.2050892764	 0.116184
H	 2.8011277423	-0.3546066011	-0.3719703982	 0.112886
H	 1.2711638012	-2.4548170414	-0.4911899149	 0.104439
H	-0.3112616941	-2.3244743619	-1.2374589503	 0.104525
H	 0.7895431016	-2.1242411667	-3.5043904092	 0.12679
H	 2.3542656569	-2.3714251919	-2.7528823616	 0.131517
H	 0.804770424	-6.2891967571	-2.824084124	 0.19134
53.8497	74.2284	94.6347	109.4989	203.8057	223.3045	255.2093	297.6627	343.8928	358.9466	420.4374	440.4388	547.1195	614.3623	632.9349	757.6481	775.3721	827.3341	915.6533	946.5763	956.9337	979.426	1019.7258	1026.1932	1058.0893	1135.6698	1147.2008	1179.7669	1223.7581	1270.9956	1299.4589	1315.7379	1331.2802	1376.6196	1381.5357	1386.2866	1412.795	1416.7602	1470.6535	1482.2056	1491.9707	1496.6672	1498.5261	1508.0865	1514.7641	2237.9598	2981.2079	3009.7217	3015.4097	3028.2921	3031.9804	3033.0888	3044.4939	3049.3628	3075.7987	3097.2607	3097.6321	3104.888	3113.1274	3508.2714
CCC(C)CCC#C	CC[C@@H](C)CCC#C	
InChI=1S/C8H14/c1-4-6-7-8(3)5-2/h1,8H,5-7H2,2-3H3	InChI=1S/C8H14/c1-4-6-7-8(3)5-2/h1,8H,5-7H2,2-3H3/t8-/m1/s1
