18
gdb 58884	3.2951	1.33788	1.12186	1.2433	71.02	-0.243	0.0133	0.2563	1110.1789	0.147334	-439.079576	-439.071197	-439.070252	-439.112545	31.94	
C	-0.0425912976	 1.5504387483	 0.2604356485	-0.414904
C	-0.0296682572	 0.0499888037	-0.0163531205	 0.026446
O	 0.784350517	-0.6634047652	 0.9108766944	-0.431365
C	-1.4329892149	-0.5321117036	-0.0466175508	 0.337673
C	-2.1377110089	-1.0278950193	 1.2030683839	-0.363526
C	-1.7951167684	-1.9964115737	 0.1061074614	 0.020395
O	-2.8111264022	-2.2379826889	-0.8623699304	-0.213717
C	-3.0236411378	-1.0323868877	-1.4472736537	 0.093919
N	-2.3153451943	-0.0380358395	-1.0885879435	-0.31881
H	 0.9748187182	 1.9510520198	 0.2381605835	 0.119172
H	-0.6490719594	 2.0690276814	-0.485812705	 0.149466
H	-0.4799023819	 1.7554180605	 1.2459980996	 0.10818
H	 0.4238109754	-0.1293529869	-0.9990777181	 0.095583
H	 0.6939195775	-0.2365689808	 1.7690185034	 0.283493
H	-1.5328019675	-1.1275146142	 2.0969765929	 0.113849
H	-3.1734100782	-0.7473605324	 1.3620656226	 0.122613
H	-1.1204166988	-2.8300015954	 0.2425820878	 0.126884
H	-3.8034347712	-1.0216114862	-2.1990989264	 0.144648
66.5334	159.8613	200.446	238.2571	260.1547	304.052	346.6859	421.3044	458.7227	489.9146	602.1413	682.6084	761.3572	814.2665	848.4865	902.5122	912.7123	935.3593	969.5732	993.6342	1014.6761	1052.5189	1063.699	1083.2816	1103.7532	1135.7894	1140.2935	1209.3484	1271.8102	1303.7302	1329.9379	1368.3554	1388.4917	1398.0453	1411.3202	1461.0027	1489.3746	1497.3847	1663.1084	3025.2493	3035.9227	3101.1977	3133.6258	3134.362	3215.4748	3228.2928	3230.5438	3813.0049
CC(O)C12CC1OC=N2	C[C@@H](O)[C@]12C[C@H]1OC=N2	
InChI=1S/C6H9NO2/c1-4(8)6-2-5(6)9-3-7-6/h3-5,8H,2H2,1H3	InChI=1S/C6H9NO2/c1-4(8)6-2-5(6)9-3-7-6/h3-5,8H,2H2,1H3/t4-,5-,6-/m1/s1
