23
gdb 120381	2.59577	1.12064	0.88348	0.78	88.29	-0.2416	0.0168	0.2584	1435.7884	0.205095	-388.302364	-388.29246	-388.291516	-388.337864	36.494	
C	 0.4864520889	 1.5318606991	 0.089535498	-0.383258
C	 0.3024276099	 0.0255869852	-0.0008246976	-0.033255
O	 0.7771615049	-0.5534780901	 1.1968093528	-0.258024
C	 0.5501848598	-1.9571214951	 1.3088092659	 0.086698
C	 1.4974616761	-2.7639453757	 0.4408418202	-0.089555
C	 2.4942377806	-3.2800940096	 1.158389076	-0.05871
C	 2.3657715717	-2.960333383	 2.626369381	-0.263882
C	 0.9145749534	-2.4271361162	 2.7428932415	 0.001889
C	 0.6900295616	-1.3904148188	 3.8408211248	-0.398761
H	 1.5430980709	 1.7805990435	 0.2235667944	 0.125748
H	 0.1287834446	 2.0169396075	-0.8238477918	 0.111539
H	-0.070074049	 1.9358852844	 0.9400585684	 0.123916
H	-0.7628514772	-0.2251260963	-0.1458813005	 0.080451
H	 0.8470111464	-0.3714086346	-0.8724195856	 0.085854
H	-0.509799922	-2.1529060373	 1.078685598	 0.054767
H	 1.3889285744	-2.8478089696	-0.6344954684	 0.090819
H	 3.3237655581	-3.8515514009	 0.7543787673	 0.092847
H	 2.5394020322	-3.8301952687	 3.2703404031	 0.099474
H	 3.1036548752	-2.2020861741	 2.9248639408	 0.11083
H	 0.2738824159	-3.2954004187	 2.940267938	 0.077251
H	 1.2923875748	-0.4966897368	 3.6628960728	 0.130856
H	-0.3586489364	-1.0795083572	 3.8867686795	 0.109149
H	 0.9604282252	-1.8030424771	 4.8187158414	 0.103357
56.1847	62.492	105.6883	148.7845	220.9337	239.5726	274.3282	284.0976	357.1712	386.3035	506.861	530.028	661.5418	736.6995	790.5534	819.3893	842.5238	894.5849	919.7416	925.8664	975.4996	980.2198	997.9536	1004.4014	1067.0299	1111.4672	1115.256	1134.9993	1154.2937	1168.6564	1187.5424	1204.7519	1286.7105	1295.8411	1310.5036	1330.3873	1361.2758	1370.6434	1375.6248	1400.7675	1408.0372	1435.3808	1482.7876	1483.8683	1492.3897	1498.2471	1500.1326	1528.4739	1681.5786	2951.5264	2964.1949	2985.8571	3010.7411	3026.6833	3037.2224	3043.3323	3057.547	3097.4907	3117.0938	3120.1508	3126.2141	3176.091	3204.2963
CCOC1C=CCC1C	CCO[C@H]1C=CC[C@H]1C	
InChI=1S/C8H14O/c1-3-9-8-6-4-5-7(8)2/h4,6-8H,3,5H2,1-2H3	InChI=1S/C8H14O/c1-3-9-8-6-4-5-7(8)2/h4,6-8H,3,5H2,1-2H3/t7-,8+/m1/s1
