23
gdb 57479	2.82949	1.26643	1.11815	1.3822	87.17	-0.2294	0.0159	0.2453	1235.8628	0.204148	-388.304876	-388.295054	-388.29411	-388.339186	37.526	
C	-0.0176336965	 1.5605927283	-0.0294631834	-0.411734
C	 0.0064890133	 0.0245493986	 0.0189171226	 0.251914
C	 0.6803451087	-0.4561451823	 1.3162061043	-0.418782
C	-1.4327803778	-0.5192658531	-0.0396233058	-0.408382
C	 0.7864377774	-0.5469360722	-1.1972579527	 0.096601
O	 0.1536224725	-0.1540580987	-2.4237023503	-0.285992
C	 1.1032465227	 0.4000957319	-3.3283197184	-0.116373
C	 2.3944882964	 0.4394962873	-2.5622661991	-0.099639
C	 2.2157581139	-0.096094437	-1.3607982724	-0.102433
H	 0.9922424341	 1.9798076965	 0.0226138391	 0.107302
H	-0.4814992827	 1.9090310094	-0.9561471647	 0.122223
H	-0.5924412145	 1.9627513635	 0.8114562859	 0.104407
H	 0.0873510988	-0.1564927901	 2.1866735596	 0.112775
H	 0.770790744	-1.5483965555	 1.3394819801	 0.108645
H	 1.6815808262	-0.0307907571	 1.4402651662	 0.108677
H	-1.9180285803	-0.2325359819	-0.9756529431	 0.131393
H	-1.4438844261	-1.6134509707	 0.0251209961	 0.103154
H	-2.0276541209	-0.1296143947	 0.7934598509	 0.102341
H	 0.7428988349	-1.6486039785	-1.1170849193	 0.072305
H	 1.1773377991	-0.2276744606	-4.2318231308	 0.103095
H	 0.7681954185	 1.3965506604	-3.6544682565	 0.105778
H	 3.3151952832	 0.8373153852	-2.9700942686	 0.105118
H	 2.9692082551	-0.2298245187	-0.5960585597	 0.107607
68.2741	91.4815	193.9929	209.2911	243.1219	249.3163	274.1404	319.5965	331.6907	371.124	403.8091	462.2626	533.4711	690.1019	766.2669	787.7714	814.8815	885.6622	937.4152	938.744	940.6856	955.885	960.1204	961.4003	1019.2351	1043.3393	1052.0805	1064.5763	1110.2462	1127.9321	1198.1535	1221.1459	1242.3804	1273.5175	1309.7101	1357.4879	1364.8306	1383.1095	1394.1552	1397.6806	1428.9032	1476.7708	1487.5436	1491.1278	1499.784	1507.5858	1518.9543	1522.2487	1690.596	2926.6134	2966.0727	2993.7836	3024.8286	3028.5751	3036.6257	3088.1765	3093.0179	3097.1177	3101.4605	3115.1079	3123.2081	3208.2516	3234.3616
CC(C)(C)C1OCC=C1	CC(C)(C)[C@H]1OCC=C1	
InChI=1S/C8H14O/c1-8(2,3)7-5-4-6-9-7/h4-5,7H,6H2,1-3H3	InChI=1S/C8H14O/c1-8(2,3)7-5-4-6-9-7/h4-5,7H,6H2,1-3H3/t7-/m0/s1
