15
gdb 16194	3.23614	2.49178	1.58215	2.9999	68.83	-0.2183	-0.0048	0.2135	795.6546	0.120991	-358.858158	-358.851409	-358.850464	-358.888873	26.129	
N	-0.1041131509	 1.2941055667	 0.0124548765	-0.565716
C	-0.0197272171	 0.0241234334	 0.0045038688	 0.326174
N	 1.0909035178	-0.8241197988	-0.007532727	-0.35841
C	 0.6447305094	-2.1406596323	-0.0123057935	 0.036882
N	-0.6260702529	-2.2872954017	-0.0050879365	-0.299329
C	-1.1590307403	-0.947433141	 0.0060925065	 0.307751
C	-2.438019839	-0.6421779659	 0.7625085036	-0.293144
C	-2.4474982264	-0.6334942066	-0.7304225769	-0.293144
H	 0.8108887669	 1.7446265148	 0.0092475533	 0.20638
H	 2.0512319846	-0.5254516561	-0.0117741496	 0.257188
H	 1.3601416789	-2.9552898944	-0.0215908971	 0.134069
H	-2.8929278116	-1.4799710154	 1.2771108102	 0.129806
H	-2.4550636148	 0.3105834663	 1.2797548723	 0.140845
H	-2.4710354356	 0.325218854	-1.2362924582	 0.140844
H	-2.9089675291	-1.4652754429	-1.2489203326	 0.129806
117.9555	232.024	245.9909	271.6241	400.4038	459.5477	563.6145	621.3688	704.0911	718.6228	790.0296	820.1024	856.321	889.8822	924.3845	931.7273	968.5117	1006.5681	1059.0019	1066.6076	1081.3219	1088.9536	1205.214	1210.8341	1286.8042	1344.3316	1376.3809	1412.8342	1443.8734	1482.2215	1662.1433	1753.4529	3141.8317	3142.2058	3204.7467	3234.2746	3248.4046	3474.2074	3666.6034
N=C1NC=NC11CC1	[NH][C]1NC=NC21CC2	
InChI=1S/C5H7N3/c6-4-5(1-2-5)8-3-7-4/h3H,1-2H2,(H2,6,7,8)	InChI=1S/C5H7N3/c6-4-5(1-2-5)8-3-7-4/h3H,1-2H2,(H2,6,7,8)
