17
gdb 86528	3.55019	1.00837	0.85852	2.0342	70.07	-0.2428	-0.0988	0.144	1344.9645	0.13295	-458.960701	-458.951461	-458.950517	-458.996196	31.976	
C	-0.3576637721	 1.4220953268	 0.1868917138	-0.399395
C	 0.2503492507	 0.0653954235	-0.0950557333	 0.167275
C	 1.1997846127	-0.0760983367	-1.3088600092	-0.314196
C	 2.2392701614	-0.5169651552	-0.2418364784	 0.042298
O	 1.3283810239	-0.2600671172	 0.825997987	-0.289967
C	 2.6506134164	-1.9723842644	-0.3426590469	 0.261797
O	 2.1659758122	-2.87653394	 0.2923438543	-0.265877
C	 3.7465875152	-2.2907698696	-1.3690108586	 0.079567
O	 4.251223098	-1.457180281	-2.0756937239	-0.218106
H	 0.4009247605	 2.2090613685	 0.1324942077	 0.121885
H	-1.1473916099	 1.6444859031	-0.5390855422	 0.120139
H	-0.7995191709	 1.4384939114	 1.1879786902	 0.134549
H	-0.5195228393	-0.7159807618	-0.0581073533	 0.090981
H	 0.9241608293	-0.8222696637	-2.0554000383	 0.119
H	 1.4503669544	 0.8610002658	-1.8072965598	 0.125149
H	 3.1405045894	 0.1057367956	-0.1909110803	 0.112198
H	 4.0163575181	-3.367862095	-1.3981844189	 0.112705
38.0588	56.1661	124.6537	138.2621	211.552	236.9447	245.7005	352.9508	439.7785	505.0299	557.554	634.91	749.3005	757.5925	885.2819	893.4646	916.1381	970.2396	991.1462	1067.8012	1082.128	1090.2379	1134.9629	1179.4774	1198.1932	1241.4277	1251.9802	1312.2271	1359.2678	1368.3194	1392.1612	1410.7627	1481.4698	1489.3579	1496.1677	1813.7815	1817.7075	2921.9384	3021.28	3034.4708	3038.7152	3084.4894	3107.8382	3115.0304	3142.5143
CC1CC(O1)C(=O)C=O	C[C@H]1C[C@@H](O1)C(=O)C=O	
InChI=1S/C6H8O3/c1-4-2-6(9-4)5(8)3-7/h3-4,6H,2H2,1H3	InChI=1S/C6H8O3/c1-4-2-6(9-4)5(8)3-7/h3-4,6H,2H2,1H3/t4-,6+/m0/s1
