21
gdb 75578	2.36267	1.47869	0.96179	3.2049	86.74	-0.2369	-0.042	0.1949	1265.3555	0.183678	-387.132786	-387.12387	-387.122926	-387.166869	33.768	
C	-0.3914477657	 1.4863771323	 0.0326882753	-0.457256
C	 0.0646362136	 0.0431706192	 0.0416660955	 0.186818
C	-0.0148557535	-0.6884792879	-1.0830456033	-0.118862
C	 0.2401177517	-2.1396783936	-1.3957738754	-0.250914
C	 1.2842278806	-2.916773514	-0.5914849449	-0.195177
C	 1.0416680944	-2.9461866972	 0.9180399923	-0.206206
C	 1.3841243452	-1.6305460366	 1.6257727168	-0.292524
C	 0.4759745784	-0.4275424716	 1.4038127575	 0.305474
O	 0.1260868843	 0.2244718789	 2.3717517872	-0.31008
H	 0.4023911592	 2.1530155618	 0.3865293291	 0.12833
H	-0.6890139329	 1.7993647058	-0.970801833	 0.107568
H	-1.2329074352	 1.6282542464	 0.7164509675	 0.144056
H	-0.4150013014	-0.1545883929	-1.945598972	 0.092112
H	-0.7277766084	-2.6621423688	-1.3235101892	 0.121007
H	 0.506486111	-2.200932518	-2.4583371591	 0.108206
H	 1.3008779023	-3.943010585	-0.976608797	 0.09726
H	 2.2808486034	-2.4995716224	-0.7865630389	 0.099442
H	 0.0021551773	-3.2301387366	 1.1284973702	 0.102356
H	 1.6659467776	-3.7300797182	 1.3615296257	 0.103543
H	 1.4102057848	-1.7721786033	 2.7093473351	 0.119045
H	 2.3952632433	-1.3216329781	 1.3214860905	 0.115802
37.8149	113.6974	167.2914	237.8794	280.0246	316.1101	331.4953	344.7083	389.747	492.0487	534.5961	617.2442	663.927	719.723	801.896	823.0911	881.9964	906.528	932.8852	961.0388	1019.3839	1060.5984	1071.1759	1088.422	1106.7473	1132.6618	1163.9493	1233.454	1245.362	1276.3249	1312.0211	1357.8118	1379.9067	1385.4333	1403.4306	1407.9065	1420.257	1464.01	1467.3508	1471.5482	1489.9314	1491.702	1495.3464	1701.3418	1745.3108	2981.8699	3007.0391	3018.1173	3023.1051	3041.1731	3041.4114	3061.941	3065.5037	3096.6771	3099.8026	3115.4089	3127.9898
CC1=CCCCCC1=O	CC1=CCCCCC1=O	
InChI=1S/C8H12O/c1-7-5-3-2-4-6-8(7)9/h5H,2-4,6H2,1H3	InChI=1S/C8H12O/c1-7-5-3-2-4-6-8(7)9/h5H,2-4,6H2,1H3
