21
gdb 113232	2.84823	1.10878	0.98103	2.9183	78.99	-0.2487	0.0587	0.3074	1310.4362	0.181513	-424.189972	-424.180426	-424.179482	-424.224504	36.362	
O	 0.3868728206	-0.0732932617	 1.1019003865	-0.428474
C	-0.1420299736	 0.1469548247	-0.1945839476	-0.072656
C	-1.5684359845	-0.3503670718	-0.3289413992	-0.067843
C	-1.9954879214	-1.0739732554	-1.5961202743	-0.372316
C	-1.8223512412	-1.8331069377	-0.3032617473	 0.366631
O	-0.6536452641	-2.6083352103	-0.1459146486	-0.471134
C	-3.0290773572	-2.3691986406	 0.4120280736	-0.018277
C	-3.2653117655	-3.8541103728	 0.5462424007	-0.28537
C	-2.8953210597	-3.0326153747	 1.7576637611	-0.262399
H	 0.4105329471	-1.0306196737	 1.2148381964	 0.292285
H	-0.1051958362	 1.2288065555	-0.3611839274	 0.104595
H	 0.485900253	-0.3247410499	-0.9633524685	 0.084112
H	-2.3157896287	 0.2616116863	 0.1682677623	 0.092602
H	-2.9993500053	-0.9251760795	-1.9793748858	 0.112479
H	-1.2344157444	-1.2087923008	-2.3587702329	 0.110784
H	-0.6910633083	-3.348099534	-0.7609183034	 0.290029
H	-3.9163395122	-1.760842916	 0.2618005021	 0.082961
H	-4.2806504438	-4.2225494891	 0.4518638612	 0.112394
H	-2.5110732456	-4.5321355688	 0.1610505762	 0.097028
H	-1.8919020742	-3.1579359868	 2.1475650952	 0.121666
H	-3.6545804948	-2.8378355628	 2.5064530598	 0.110903
62.212	92.2792	119.2457	186.912	251.2296	279.4074	300.3205	337.0625	419.7109	443.3225	475.9501	522.1223	584.6964	705.7552	789.3251	797.4859	823.2891	864.936	893.0801	932.6144	956.7181	968.9519	1026.0189	1043.837	1059.9786	1067.3729	1083.5026	1086.285	1093.6984	1134.3765	1149.9568	1197.8215	1211.7584	1231.4541	1243.66	1278.5284	1334.0794	1370.5188	1400.8875	1427.795	1440.3818	1459.9733	1482.3706	1499.8797	1508.8855	3002.1723	3070.2553	3124.4705	3132.4015	3141.227	3146.9949	3151.6966	3212.1884	3213.3133	3232.5716	3799.8666	3808.2435
OCC1CC1(O)C1CC1	OC[C@H]1C[C@]1(O)C1CC1	
InChI=1S/C7H12O2/c8-4-6-3-7(6,9)5-1-2-5/h5-6,8-9H,1-4H2	InChI=1S/C7H12O2/c8-4-6-3-7(6,9)5-1-2-5/h5-6,8-9H,1-4H2/t6-,7+/m1/s1
