16
gdb 6123	3.20036	1.68292	1.43001	1.9592	61.31	-0.2383	-0.0351	0.2032	921.1979	0.127321	-420.874551	-420.865748	-420.864804	-420.907651	31.7	
C	-0.6614501122	 1.5134044423	 0.1754785539	-0.457708
C	-0.0001739094	 0.1629517178	-0.0140776896	 0.290706
O	-0.9299718445	-0.9166757328	 0.0164185331	-0.470802
C	 0.9417873686	-0.0812586682	-1.2275446795	-0.302456
C	 1.9280334386	-0.8936619588	-0.3044755626	 0.06597
O	 3.311344467	-0.7837716187	-0.4290388293	-0.431571
C	 1.2501093176	-0.1593511425	 0.8535963503	 0.288828
O	 1.6924607292	 0.29429273	 1.8736509163	-0.313244
H	 0.0693912241	 2.3246927079	 0.1136870173	 0.127386
H	-1.4285482155	 1.6690807041	-0.5888184006	 0.132055
H	-1.1360125773	 1.5734600188	 1.1616946021	 0.123554
H	-1.3862956975	-0.8899114816	 0.8653556679	 0.286547
H	 0.4941862145	-0.633169317	-2.0538447089	 0.1252
H	 1.3996642089	 0.8450994582	-1.5814130654	 0.115127
H	 1.6434795748	-1.9508256911	-0.3312815872	 0.126447
H	 3.6066744831	-0.1027122982	 0.1876781323	 0.293961
88.6047	118.4914	167.5596	192.5259	262.3792	276.6773	330.2745	336.8802	367.9453	401.7424	533.3964	588.3005	753.2832	755.598	801.594	925.7199	931.3384	939.0223	987.051	1060.3869	1115.7971	1138.3231	1151.7714	1213.8226	1239.0964	1270.4303	1324.8894	1370.4598	1406.5745	1411.3273	1463.4448	1484.845	1485.7133	1864.0736	3033.5584	3060.8499	3080.9642	3101.7447	3120.8435	3153.9945	3780.4959	3795.7716
CC1(O)CC(O)C1=O	C[C@@]1(O)C[C@@H](O)C1=O	
InChI=1S/C5H8O3/c1-5(8)2-3(6)4(5)7/h3,6,8H,2H2,1H3	InChI=1S/C5H8O3/c1-5(8)2-3(6)4(5)7/h3,6,8H,2H2,1H3/t3-,5-/m1/s1
