18
gdb 57715	3.00599	0.92794	0.86354	4.7329	74.31	-0.261	0.0133	0.2743	1381.5876	0.146986	-435.302686	-435.292654	-435.29171	-435.338349	35.696	
C	-0.426983813	 1.4287453146	-0.0680601085	-0.397168
C	-0.0474700267	-0.0569078676	 0.0284790204	 0.059434
N	 0.7750138521	-0.2657800128	 1.2320185943	-0.526372
C	-1.3020428835	-0.9626738903	 0.1574403407	-0.15519
N	-2.0365609265	-0.6686454147	 1.3658534002	-0.275174
C	-3.3474560089	-0.2989172615	 1.364336482	 0.152135
O	-4.0535984417	-0.228061312	 0.3817992432	-0.318515
C	 0.6756322845	-0.4584066446	-1.2013648493	 0.260137
N	 1.2681263557	-0.7960036746	-2.1352202432	-0.333976
H	 0.4682302581	 2.0477796524	-0.175606978	 0.1312
H	-1.0730919074	 1.6075978638	-0.9300329671	 0.151534
H	-0.9543937786	 1.7253780885	 0.8403269486	 0.137219
H	 1.1943872254	-1.1919782054	 1.2135769981	 0.245764
H	 1.5437763306	 0.3981547973	 1.249728455	 0.245823
H	-1.9784449006	-0.8095320981	-0.685081782	 0.164281
H	-0.978572536	-2.0114703406	 0.1446282664	 0.120483
H	-1.5067324177	-0.6222893718	 2.2229802906	 0.258027
H	-3.7077491558	-0.0732972126	 2.3870853286	 0.080357
34.1826	79.5896	137.9797	195.4728	211.4925	232.0508	252.9654	306.7461	327.6398	374.1228	397.2183	472.592	574.006	584.5906	588.0161	732.7901	782.3655	887.7241	895.9684	962.6145	1007.3239	1033.7413	1045.3678	1054.1501	1173.3537	1194.1387	1214.1276	1275.2657	1344.3935	1382.6764	1412.4563	1428.749	1485.3952	1489.749	1495.9573	1521.4244	1661.013	1806.4086	2344.1446	2944.2148	3024.1196	3055.4321	3129.4247	3132.7507	3149.063	3489.1092	3568.5919	3626.6432
CC(N)(CNC=O)C#N	C[C@@](N)(CNC=O)C#N	
InChI=1S/C5H9N3O/c1-5(7,2-6)3-8-4-9/h4H,3,7H2,1H3,(H,8,9)	InChI=1S/C5H9N3O/c1-5(7,2-6)3-8-4-9/h4H,3,7H2,1H3,(H,8,9)/t5-/m0/s1
