14
gdb 21728	6.6413	1.32664	1.12062	6.0165	62.82	-0.2251	-0.0204	0.2047	1006.9385	0.108625	-412.00957	-412.002264	-412.00132	-412.041413	26.72	
N	-0.1768307797	 0.9993137462	-0.0525966247	-0.523311
H	-0.8247766894	 0.9367751577	-0.8291897338	 0.246348
H	 1.3403098834	-0.2661704833	 1.5411604122	 0.284865
H	 0.4844846516	 1.7351829385	-0.2791824086	 0.247633
C	-0.8974711365	 1.3210369994	 1.1798315399	-0.281204
C	-0.0505778071	 1.010156865	 2.3788533371	 0.409095
N	 1.2139532654	 0.499748474	 2.1955243871	-0.19382
O	 1.6664413681	 0.1697817472	 3.4856761332	-0.266282
C	 0.6874809476	 0.6902776543	 4.3653609714	 0.450831
N	 0.8024592115	 0.6771829995	 5.6212319437	-0.55577
N	-0.3677082319	 1.2028569644	 3.6129658	-0.339929
H	-1.2490395109	 2.3598329698	 1.268151962	 0.139476
H	-1.790829506	 0.6902098223	 1.2418001834	 0.155812
H	 1.675053434	 0.232911605	 5.9015767772	 0.226257
69.2285	169.3624	199.1852	233.1908	313.6863	400.9487	530.674	562.9646	627.7778	675.412	749.394	761.2212	801.4905	857.9104	866.2129	968.2195	1016.1058	1042.7825	1052.8193	1092.3063	1176.8301	1215.0794	1299.8616	1318.9928	1404.4173	1432.7798	1484.433	1660.4505	1664.0623	1781.8154	2999.2491	3075.3059	3514.3491	3516.4819	3550.1749	3595.7827
[NH3+]CC1=NOC(=N)[N-]1	NC[C]1NOC(=N1)[NH]	
InChI=1S/C3H5N4O/c4-1-2-6-3(5)8-7-2/h1,4H2,(H-,5,6,7)/q-1/p+1	InChI=1S/C3H6N4O/c4-1-2-6-3(5)8-7-2/h1,4H2,(H2,5,6,7)
