18
gdb 13784	3.98398	1.20061	1.08906	2.0082	69.56	-0.2427	-0.014	0.2287	1144.5061	0.151793	-384.944305	-384.935171	-384.934227	-384.978603	32.216	
C	-0.055279196	 1.5019486407	-0.0417400033	-0.482509
C	 0.0644838402	-0.0024755785	-0.2064048954	 0.389501
O	 1.1261136383	-0.528862485	-0.474425586	-0.326551
C	-1.2016613992	-0.7757133271	-0.0286273403	-0.141962
C	-1.3504496315	-2.1126879541	-0.7406275298	-0.274891
C	-1.2308843397	-2.0992127267	 0.7432497415	 0.020739
C	-0.0150225354	-2.6568744242	 1.4396951228	-0.114995
O	-0.2521246859	-4.0490726675	 1.6264535933	-0.424819
H	 0.9200820613	 1.9707124823	-0.1752098188	 0.140217
H	-0.762892015	 1.9064163864	-0.7749234296	 0.140717
H	-0.4540029064	 1.7457923728	 0.9497394544	 0.139413
H	-2.094419907	-0.1676197038	 0.0729319942	 0.086199
H	-2.3078299105	-2.3350353652	-1.1974131473	 0.117512
H	-0.4776609703	-2.428654258	-1.3020309665	 0.139936
H	-2.1500218103	-2.2558218534	 1.3014588004	 0.100158
H	 0.8795389558	-2.4718581843	 0.8353433061	 0.124868
H	 0.1217755554	-2.1494266578	 2.4089542285	 0.080313
H	 0.5429997662	-4.4329534766	 2.0074099058	 0.286152
55.9134	86.9466	139.2532	151.7396	207.2677	230.3659	269.0813	347.2015	397.1745	467.3594	596.2676	638.7973	756.3359	805.426	870.1988	902.7443	941.1708	975.4393	1003.8237	1049.9045	1067.4588	1077.1347	1117.0152	1137.6687	1164.9909	1189.807	1224.2975	1268.134	1280.7005	1375.6854	1387.3271	1415.5941	1463.2547	1466.7928	1475.58	1486.9978	1532.0854	1786.2268	2965.3924	3033.3535	3067.362	3092.9055	3137.4354	3146.5629	3153.209	3163.6643	3231.2545	3829.3403
CC(=O)C1CC1CO	CC(=O)[C@H]1C[C@H]1CO	
InChI=1S/C6H10O2/c1-4(8)6-2-5(6)3-7/h5-7H,2-3H2,1H3	InChI=1S/C6H10O2/c1-4(8)6-2-5(6)3-7/h5-7H,2-3H2,1H3/t5-,6+/m0/s1
