19
gdb 41615	3.92712	1.28106	1.15311	1.397	75.03	-0.2105	0.0768	0.2873	1111.4285	0.160375	-422.978324	-422.970705	-422.96976	-423.010944	29.516	
C	 0.1031838373	 1.4898079989	-0.0166418908	-0.09527
O	 1.5439008552	 1.3943827031	-0.211176893	-0.285962
C	 1.4826648327	-0.0266083468	-0.0613347264	 0.004546
C	-0.0393076494	-0.0244952088	 0.0438266577	-0.225863
C	 0.6464606217	-0.6475071592	-1.145837675	 0.452805
C	 0.6383917816	-0.1999943187	-2.5902446287	-0.310427
C	 1.3724210789	-1.3760044888	-3.2591087363	-0.236499
C	 0.9058362502	-2.5704044987	-2.4143660422	-0.067992
O	 0.6135327765	-2.0592979121	-1.1081598263	-0.318531
H	-0.1197043949	 1.9884851691	 0.9336368852	 0.112031
H	-0.3930166724	 2.0223312517	-0.8367803571	 0.105359
H	 2.2600089347	-0.5346030803	 0.4979375759	 0.107392
H	-0.7015409643	-0.5928176744	 0.6826076053	 0.10573
H	-0.3873455058	-0.1143537473	-2.9680112383	 0.103228
H	 1.1395209189	 0.7601244078	-2.7219329077	 0.126449
H	 1.1350989374	-1.4937970986	-4.3188311545	 0.103804
H	 2.4549245491	-1.2437306577	-3.1669074257	 0.114495
H	-0.0061540984	-3.0222241052	-2.8292255114	 0.098525
H	 1.663164051	-3.356334174	-2.3247021208	 0.106179
50.4347	161.0262	180.8585	232.0328	325.4243	404.481	480.0264	543.5124	632.8582	738.8641	771.4589	821.2619	876.0975	889.8654	920.3073	930.3397	942.7713	956.79	991.8098	999.2501	1017.8408	1033.2436	1074.4747	1091.0159	1128.23	1154.2313	1157.7424	1199.0295	1210.6379	1228.8762	1250.5871	1254.7045	1322.9503	1336.234	1343.107	1393.1941	1441.5465	1485.3957	1497.4794	1517.5507	1531.3293	3003.8905	3021.271	3037.8961	3054.0265	3067.8769	3068.6497	3111.6343	3124.0626	3179.8573	3208.6391
C1OC2C1C21CCCO1	C1O[C@H]2[C@@H]1[C@]12CCCO1	
InChI=1S/C7H10O2/c1-2-7(9-3-1)5-4-8-6(5)7/h5-6H,1-4H2	InChI=1S/C7H10O2/c1-2-7(9-3-1)5-4-8-6(5)7/h5-6H,1-4H2/t5-,6+,7+/m1/s1
