19
gdb 19973	3.68629	1.60523	1.24108	2.5617	72.01	-0.239	0.0793	0.3183	1012.8135	0.165091	-365.009498	-365.001352	-365.000408	-365.042748	29.762	
C	-0.3752193406	 1.4364301476	 0.1270543396	-0.397917
C	 0.1070726069	 0.0061487514	-0.0000511023	 0.143649
O	 1.3051700658	-0.1060357347	-0.808717281	-0.292144
C	 2.0222972704	-0.7749288171	 0.2456029974	-0.082468
C	 0.824035259	-0.6634822759	 1.2079279466	-0.023291
N	 1.0606147568	 0.1937660351	 2.3513643819	-0.055372
C	 0.1295220798	 0.0588678204	 3.4689782134	-0.22356
C	 1.5145922143	-0.4751147152	 3.5689478548	-0.2259
H	 0.3821597818	 2.0609210861	 0.6044370768	 0.135993
H	-0.5930381396	 1.8369449997	-0.8680426309	 0.121988
H	-1.2941612821	 1.48301974	 0.7216156052	 0.109766
H	-0.6886464485	-0.6279325474	-0.4166638277	 0.067708
H	 2.3118665336	-1.7956919983	-0.0343796762	 0.093939
H	 2.9103047953	-0.2164926847	 0.5638898568	 0.106467
H	 0.3855620807	-1.6315416468	 1.4984485294	 0.056543
H	-0.1440257807	 0.9832876972	 3.9686945551	 0.120871
H	-0.6774352753	-0.6666627367	 3.3769509801	 0.111558
H	 1.6327962962	-1.5573974877	 3.5432720369	 0.11155
H	 2.2707431363	 0.0522741769	 4.1427715242	 0.120622
51.0927	80.2891	166.6668	217.8651	253.8852	305.0206	386.0716	431.1117	537.2058	737.1727	759.3081	827.0458	880.1969	895.4003	902.8276	933.6006	1007.0799	1024.7788	1036.8153	1080.179	1101.8298	1107.513	1117.6886	1121.1422	1156.697	1167.7756	1175.5815	1211.2913	1260.7764	1292.7037	1324.1062	1356.1161	1380.7738	1389.5643	1407.6038	1483.092	1489.9154	1491.2177	1515.0496	1518.4346	2959.3179	2996.2538	3015.0957	3039.9068	3063.6766	3093.9797	3098.4515	3105.0123	3138.6595	3179.9436	3193.8801
CC1OCC1N1CC1	C[C@H]1OC[C@H]1N1CC1	
InChI=1S/C6H11NO/c1-5-6(4-8-5)7-2-3-7/h5-6H,2-4H2,1H3	InChI=1S/C6H11NO/c1-5-6(4-8-5)7-2-3-7/h5-6H,2-4H2,1H3/t5-,6-/m1/s1
