17
gdb 40655	3.2477	1.36423	1.25736	1.1911	66.48	-0.2364	0.0755	0.3119	1033.4819	0.13608	-458.898696	-458.890964	-458.89002	-458.932062	28.211	
C	-0.4437359444	 0.7688997353	-0.5666993494	-0.173592
O	 0.5095759544	 1.2676220868	 0.3671157696	-0.239398
C	 0.4375586609	-0.1487124769	 0.1759759115	 0.050773
C	-0.0202980412	-0.9361262264	 1.3645030826	-0.133805
C	-1.4312554138	-1.4794357875	 1.5601581787	 0.03172
O	-2.2819352721	-1.562338683	 0.4458346135	-0.255178
C	-1.6543312186	-2.3821251528	-0.5298629327	 0.02563
O	-0.5432936213	-3.0289017267	 0.0694637392	-0.258791
C	-0.3096428379	-2.4287787181	 1.3176329611	 0.035357
H	-1.4858363806	 0.8544226867	-0.2695377582	 0.133675
H	-0.2307567707	 0.9872982484	-1.6127656919	 0.112949
H	 1.2984021847	-0.5607533945	-0.3523750977	 0.104322
H	 0.4534513596	-0.621818648	 2.2928732437	 0.111513
H	-1.971153143	-1.353629186	 2.4901974761	 0.11688
H	-2.3680079596	-3.1351116949	-0.8875586612	 0.117751
H	-1.3112532149	-1.7617414248	-1.3702434026	 0.103936
H	 0.1095620784	-3.1187704177	 2.0392107478	 0.116256
46.6828	100.2018	148.753	156.2838	321.9542	340.2488	542.5979	648.1685	726.8417	758.5809	766.9803	786.4578	864.9086	867.3395	934.2262	957.339	991.6716	1022.477	1058.0078	1086.4477	1091.9601	1100.6776	1121.6822	1144.9258	1151.1576	1155.8908	1180.823	1208.5732	1215.0524	1295.3792	1308.8459	1341.8644	1412.5593	1428.651	1444.4565	1524.7597	1555.2477	2993.9793	3041.7535	3087.3367	3099.1724	3129.4669	3186.0993	3188.2523	3197.6127
C1OC1C1C2OCOC12	C1O[C@H]1[C@H]1[C@H]2OCO[C@@H]12	
InChI=1S/C6H8O3/c1-3(7-1)4-5-6(4)9-2-8-5/h3-6H,1-2H2	InChI=1S/C6H8O3/c1-3(7-1)4-5-6(4)9-2-8-5/h3-6H,1-2H2/t3-,4-,5+,6-/m1/s1
