17
gdb 127280	5.00139	1.26604	1.02333	1.7023	84.17	-0.201	0.0014	0.2025	1146.2061	0.13868	-380.899742	-380.892309	-380.891365	-380.931959	28.38	
C	-0.0448734619	 1.3871054086	 0.0956592803	-0.315151
N	 0.0438435578	-0.0512947103	-0.0154647525	 0.051009
C	 0.1661401423	-0.7894438792	-1.1616192309	-0.237739
C	 0.1180804408	-2.1086884421	-0.76777472	 0.22617
C	 0.1749225974	-3.5102235832	-1.161222104	-0.214288
C	 0.0555768702	-4.2753863278	-0.0568470181	-0.086178
C	-0.0921351979	-3.4378873306	 1.208562272	-0.407521
C	-0.0406188711	-2.0504120889	 0.636191984	 0.341616
N	-0.0900891629	-0.8148971286	 1.1024191673	-0.374137
H	 0.3868324952	 1.8431000703	-0.7976685044	 0.135332
H	-1.0846186657	 1.7172867454	 0.1986333462	 0.140259
H	 0.5151421881	 1.7132468195	 0.9740602014	 0.153043
H	 0.2764617458	-0.3056360816	-2.1191347677	 0.129505
H	 0.2916130274	-3.8787220178	-2.1724061409	 0.097353
H	 0.0593424644	-5.3577867859	-0.0384486079	 0.096353
H	-1.0321036472	-3.65156221	 1.7332134323	 0.131961
H	 0.7146139074	-3.6355591679	 1.925800913	 0.132415
60.5003	136.2772	252.2336	269.1285	293.9941	442.9536	510.168	568.3008	612.0514	688.9471	721.6555	743.3866	768.8671	792.0788	885.1293	928.66	947.9397	948.4781	997.059	1066.2072	1095.4641	1138.2193	1147.4472	1166.2445	1190.5462	1252.1152	1318.5128	1344.0159	1417.1019	1439.5519	1445.6551	1464.8575	1479.9219	1516.8891	1523.4579	1598.4063	1635.0472	3030.4388	3036.4152	3057.9643	3109.2174	3145.0461	3203.7784	3226.2607	3256.721
CN1C=C2C=CCC2=N1	Cn1cc2C=CCc2n1	
InChI=1S/C7H8N2/c1-9-5-6-3-2-4-7(6)8-9/h2-3,5H,4H2,1H3	InChI=1S/C7H8N2/c1-9-5-6-3-2-4-7(6)8-9/h2-3,5H,4H2,1H3
