17
gdb 39784	3.03319	1.86533	1.50413	0.123	70.46	-0.2545	0.0772	0.3317	904.6776	0.13725	-421.740696	-421.734207	-421.733263	-421.771213	27.25	
C	-0.03128119	 1.5495507713	-0.0778739549	-0.308462
C	 1.2982490373	 0.8336102877	-0.0889920934	-0.052433
C	-0.0024342429	 0.0397465366	-0.0806895595	-0.052434
C	 0.1712344796	-0.6967200062	-1.419865429	-0.031938
O	 1.5863537791	-1.114242561	-1.3629002917	-0.303951
C	 1.86138043	 0.3348586001	-1.4306583891	-0.031939
C	 0.6740193763	 0.3696740676	-2.4004617694	 0.476246
C	 0.6423453177	 0.4063787578	-3.8511357418	-0.294706
O	 0.0201575936	 1.4342639621	-3.0402657203	-0.285463
H	-0.3047392315	 2.0074869389	 0.8679418372	 0.110869
H	-0.3710738063	 2.0971965087	-0.945920968	 0.154257
H	 1.9551349572	 0.8728031026	 0.770787155	 0.098825
H	-0.3295797597	-0.5216540573	 0.785370768	 0.098825
H	-0.5161006112	-1.4975945877	-1.6871806381	 0.086491
H	 2.8853523306	 0.5784814531	-1.7088967744	 0.086491
H	 1.5194674135	 0.7296739159	-4.4086829874	 0.124661
H	-0.0513233032	-0.2290600501	-4.3986424832	 0.124661
200.5163	230.8906	287.7691	384.7103	436.6288	484.4096	607.3417	658.4242	693.3516	768.1311	806.8279	830.3065	834.8473	861.7958	899.8468	913.102	935.8693	986.3503	995.9196	1015.9117	1052.0652	1086.056	1091.3256	1096.8829	1112.1956	1154.7265	1163.2222	1183.9924	1187.5802	1245.3763	1246.6079	1276.4586	1314.6032	1363.9729	1467.9297	1494.671	1557.3298	3091.149	3139.4292	3141.361	3141.9979	3179.4803	3187.4804	3195.9426	3240.8324
C1C2C1C1OC2C11CO1	C1[C@H]2[C@@H]1[C@@H]1O[C@H]2[C@]21CO2	
InChI=1S/C7H8O2/c1-3-4(1)6-7(2-8-7)5(3)9-6/h3-6H,1-2H2	InChI=1S/C7H8O2/c1-3-4(1)6-7(2-8-7)5(3)9-6/h3-6H,1-2H2/t3-,4+,5+,6-,7-
