17
gdb 72505	2.30979	1.91051	1.69157	2.5708	72.38	-0.229	-0.0145	0.2145	916.4157	0.136328	-421.837559	-421.830001	-421.829057	-421.869247	29.537	
C	 0.0024102084	 1.5236519695	-0.0042284944	-0.495277
C	 0.0420907118	 0.0111270372	 0.0028590801	 0.117052
C	 0.6394110696	-0.6870363527	-1.2534791183	-0.095991
O	 0.1364522797	-2.0336322165	-1.2122948671	-0.280142
C	-0.6685334759	-2.1571933022	-0.0092334348	-0.054039
C	 0.2037878841	-1.9851877674	 1.2051654037	-0.092617
C	 0.6171664088	-0.7036787101	 1.2079073636	-0.115533
C	-1.3208893233	-0.7579630894	 0.0058533097	 0.414277
O	-2.4453371263	-0.3626971502	 0.0247996319	-0.324802
H	 1.0110931995	 1.9493273193	-0.0205613808	 0.120913
H	-0.5356105282	 1.8923188487	-0.8825171446	 0.132947
H	-0.5129362689	 1.9030479831	 0.8829311091	 0.1352
H	 0.2924939346	-0.1973787137	-2.172926132	 0.108682
H	 1.7356873284	-0.6990521321	-1.2448256712	 0.103536
H	-1.3009221805	-3.0358762756	-0.0968100701	 0.097728
H	 0.4501541116	-2.7598777861	 1.9188092798	 0.11673
H	 1.2623692966	-0.2241004418	 1.9343286954	 0.111337
138.2473	168.8813	217.6425	237.751	311.9894	378.0485	430.6155	520.1408	622.9306	654.4255	670.2641	738.8586	754.3354	802.032	881.7348	897.0484	924.2905	947.6012	961.7662	992.2929	1031.2022	1040.7663	1115.3758	1154.4282	1185.3525	1200.0587	1228.5477	1261.4097	1288.3365	1348.5718	1386.4467	1416.4407	1490.2364	1493.0553	1522.611	1605.7432	1899.0042	3009.0242	3039.3358	3054.0532	3106.3365	3115.4248	3171.8364	3198.5819	3228.0377
CC12COC(C=C1)C2=O	C[C@@]12CO[C@@H](C=C1)C2=O	
InChI=1S/C7H8O2/c1-7-3-2-5(6(7)8)9-4-7/h2-3,5H,4H2,1H3	InChI=1S/C7H8O2/c1-7-3-2-5(6(7)8)9-4-7/h2-3,5H,4H2,1H3/t5-,7-/m0/s1
