23
gdb 122639	3.45525	0.80694	0.70636	1.4568	82.81	-0.2432	0.0722	0.3154	1691.7766	0.20402	-425.403415	-425.392883	-425.391939	-425.440601	37.042	
C	 0.6790138712	 0.6771691066	-0.6948208788	-0.385976
C	-0.1724922162	-0.0901483053	 0.3020702947	-0.023724
O	 0.6832987432	-0.7768429317	 1.1937298786	-0.249704
C	-0.0074144432	-1.5285983972	 2.1670593098	-0.075837
C	 1.0230850395	-2.1534646804	 3.0912574191	 0.114824
O	 0.3863980586	-2.9206816074	 4.1364364412	-0.29777
C	 1.1291095215	-4.1085162618	 3.787122288	-0.077557
C	 1.8407767401	-3.3885073631	 2.6189061119	-0.031953
C	 1.6172016223	-3.9330380217	 1.2145832808	-0.412626
H	 1.3142288993	-0.0070778407	-1.2646968402	 0.125177
H	 0.0436443361	 1.2262967075	-1.3960765633	 0.115382
H	 1.3245431	 1.3923416261	-0.1771500114	 0.127301
H	-0.8275832048	 0.5975726996	 0.8631239167	 0.087853
H	-0.8307334661	-0.8053961566	-0.219610026	 0.086222
H	-0.6750701364	-0.8878225429	 2.7676740115	 0.095116
H	-0.6370653431	-2.3024733897	 1.700029084	 0.086928
H	 1.6469459238	-1.3502491833	 3.5058086816	 0.079043
H	 1.7728519739	-4.4437291482	 4.6097767873	 0.098397
H	 0.4650508152	-4.9343137039	 3.4987813206	 0.096504
H	 2.9108268486	-3.2531038171	 2.7943602325	 0.080162
H	 0.5649586379	-4.1787126507	 1.0380475237	 0.11645
H	 1.9222211159	-3.2016213811	 0.461015874	 0.13324
H	 2.1973442327	-4.849035837	 1.0603329036	 0.112549
32.1754	58.2211	74.9125	115.1902	154.8356	213.0488	245.7376	279.8428	315.6192	334.305	357.8288	496.6658	536.7639	747.343	796.8792	820.6946	888.4975	899.2493	917.7996	999.0027	1005.6853	1034.0528	1042.7831	1053.596	1129.0552	1140.9355	1156.2828	1160.3291	1176.3917	1190.5697	1199.6091	1234.5084	1275.7276	1279.4371	1295.2267	1342.4431	1364.1911	1385.4419	1395.2378	1408.5928	1415.1415	1451.3885	1483.4157	1493.8037	1499.3289	1500.1421	1517.8948	1525.9518	1536.9436	2953.3521	2967.4042	2980.6359	2993.2831	3005.3488	3017.9352	3036.0375	3044.6416	3045.7267	3073.3501	3101.115	3116.8351	3119.0168	3121.0016
CCOCC1OCC1C	CCOC[C@H]1OC[C@H]1C	
InChI=1S/C7H14O2/c1-3-8-5-7-6(2)4-9-7/h6-7H,3-5H2,1-2H3	InChI=1S/C7H14O2/c1-3-8-5-7-6(2)4-9-7/h6-7H,3-5H2,1-2H3/t6-,7-/m1/s1
