16
gdb 92776	3.22369	1.30823	0.94157	6.6014	75.22	-0.2439	-0.0732	0.1707	1195.0943	0.123693	-437.93994	-437.931349	-437.930405	-437.973647	30.178	
C	-0.0753636155	 1.4259027147	 0.0092591026	-0.344441
N	-0.0195019989	-0.0155050699	-0.0000432948	-0.099363
C	-1.1814119761	-0.8681232698	 0.0033777677	-0.217986
C	-0.5850234539	-2.243776931	-0.0074348831	-0.180903
C	 0.7536503356	-2.1750205763	-0.0154728039	 0.123254
C	 1.6459664041	-3.3481929676	-0.0266694864	 0.081535
O	 2.8502774362	-3.3184577733	-0.0340271688	-0.236561
C	 1.1693218869	-0.7256943959	-0.0110993199	 0.352054
O	 2.2793957411	-0.2449968083	-0.0147691171	-0.370581
H	 0.9547772111	 1.7876185241	 0.0035127525	 0.172152
H	-0.5969256596	 1.8141931836	-0.8744684537	 0.124403
H	-0.5831285225	 1.8034100672	 0.9056380087	 0.124399
H	-1.8140032945	-0.7103143069	 0.8915144401	 0.134042
H	-1.8257401857	-0.7014195677	-0.8746219533	 0.134034
H	-1.1861895263	-3.1449645243	-0.0081228871	 0.134314
H	 1.0908037979	-4.3154918688	-0.0285440835	 0.069649
77.2053	121.0034	153.4308	163.6617	187.6215	282.2964	303.7763	404.5703	430.6416	515.042	623.0394	753.1238	760.3247	772.864	832.5663	956.7907	991.7851	1007.367	1039.865	1083.3845	1149.2612	1195.721	1200.1948	1264.6111	1320.8211	1347.0879	1413.3841	1432.8428	1448.0305	1485.1358	1494.4305	1524.2016	1668.1884	1790.8798	1839.5238	2853.3867	2980.7363	2997.9795	3013.4715	3062.1004	3139.1904	3213.251
CN1CC=C(C=O)C1=O	CN1CC=C(C=O)C1=O	
InChI=1S/C6H7NO2/c1-7-3-2-5(4-8)6(7)9/h2,4H,3H2,1H3	InChI=1S/C6H7NO2/c1-7-3-2-5(4-8)6(7)9/h2,4H,3H2,1H3
