19
gdb 55023	3.02286	1.01845	0.92769	3.3132	77.83	-0.2484	-0.0271	0.2213	1363.0304	0.156775	-423.009204	-422.999891	-422.998947	-423.04425	33.655	
C	 0.9603735206	 1.3009748621	 0.2366051104	-0.488844
C	-0.0494471735	 0.1890010862	 0.0262864298	 0.380035
O	-0.7786405099	-0.2069151379	 0.906157199	-0.304323
C	-0.089834139	-0.3783478162	-1.3699834613	-0.069206
O	-0.6761170893	-1.6647815451	-1.5455649176	-0.236015
C	-1.3791333827	-0.5604445215	-2.0954319607	 0.056488
C	-2.7127647136	-0.2253188506	-1.5287308623	-0.015171
C	-3.5442316643	 0.8419433878	-2.2038801619	-0.271389
C	-3.9510099377	-0.6021245639	-2.3094792335	-0.267924
H	 1.9784391911	 0.9068880243	 0.1332850737	 0.146542
H	 0.8428743245	 2.0800187025	-0.5255144135	 0.140641
H	 0.8358190983	 1.7301391818	 1.2310161328	 0.146799
H	 0.8029707028	-0.1973404694	-1.9709256812	 0.093735
H	-1.3147497067	-0.4908675843	-3.1853025105	 0.092195
H	-2.7656267298	-0.2974495504	-0.4497778269	 0.127875
H	-4.1243108732	 1.5037040607	-1.5710988003	 0.120349
H	-3.1389602243	 1.3192732829	-3.0905781809	 0.111012
H	-3.8173018694	-1.0984459132	-3.26515027	 0.115778
H	-4.8133266139	-0.9429628557	-1.7483079752	 0.121425
49.792	72.658	129.7833	137.7765	188.3244	259.3083	281.6528	368.2992	407.6135	483.1216	610.3994	627.1043	750.4812	787.4377	834.1976	861.1231	890.6079	904.1924	933.5943	958.0965	999.0025	1019.3714	1061.5178	1078.5778	1084.1692	1128.2279	1145.5656	1191.7066	1199.9334	1209.8388	1223.9766	1277.4694	1327.7276	1377.4467	1406.7959	1462.7108	1470.0032	1472.4387	1476.9654	1507.9413	1809.7789	3032.7699	3065.2079	3091.8784	3097.2927	3131.4303	3136.5648	3155.7933	3199.3872	3211.5489	3227.6891
CC(=O)C1OC1C1CC1	CC(=O)[C@H]1O[C@H]1C1CC1	
InChI=1S/C7H10O2/c1-4(8)6-7(9-6)5-2-3-5/h5-7H,2-3H2,1H3	InChI=1S/C7H10O2/c1-4(8)6-7(9-6)5-2-3-5/h5-7H,2-3H2,1H3/t6-,7+/m1/s1
