23
gdb 60369	3.64509	0.69601	0.60622	2.7857	83.77	-0.2534	-0.0269	0.2265	1882.1848	0.201219	-425.439061	-425.427599	-425.426654	-425.476877	40.064	
C	 0.1331214835	 1.4706676284	-0.2108021856	-0.393592
C	 0.056271011	-0.0446975884	 0.0125601279	 0.020891
C	 0.6684794273	-0.4501701952	 1.3586365213	-0.38174
C	-1.3917467781	-0.5190694264	-0.1089084071	-0.046849
O	-1.4240033632	-1.9339560837	-0.0357266199	-0.26747
C	-2.7127741528	-2.5076304607	 0.0289009491	 0.045748
C	-3.4748003991	-2.5059393393	-1.2966256296	-0.404492
C	-2.5112277213	-3.9222992946	 0.5660317027	 0.146913
O	-3.3092447554	-4.8135431936	 0.4445153886	-0.245451
H	 1.1690494531	 1.8189844698	-0.1577558398	 0.117235
H	-0.2663669664	 1.7567342195	-1.1896267573	 0.112624
H	-0.4357212087	 2.0121724868	 0.5545781597	 0.114195
H	 0.6194119617	-0.5437517246	-0.7874053652	 0.085391
H	 1.7246887349	-0.1673403856	 1.4095291653	 0.110423
H	 0.1509892775	 0.048253505	 2.1877543485	 0.10717
H	 0.5928025341	-1.5288955709	 1.5125532666	 0.12672
H	-2.0020107675	-0.0883471538	 0.7049683008	 0.082792
H	-1.8211019014	-0.1703607608	-1.0603221136	 0.090265
H	-3.3153773674	-1.9818673375	 0.7951792463	 0.093328
H	-2.8488114157	-2.9281967811	-2.0880772784	 0.130201
H	-4.3698736944	-3.1242018803	-1.195055713	 0.144119
H	-3.7749944691	-1.4963492729	-1.5869663703	 0.118896
H	-1.5478832125	-4.0522836	 1.1061422029	 0.092685
38.511	55.2532	80.2134	119.59	153.7368	206.5246	222.6667	241.1723	253.9687	269.4576	318.404	405.26	420.7956	437.9365	498.4268	619.5725	821.8684	846.7018	910.9035	920.7903	933.3997	940.8126	964.9334	976.0669	1081.1406	1115.125	1138.1458	1156.8536	1169.856	1194.1302	1201.3556	1276.9227	1321.827	1333.4506	1342.7079	1374.9451	1384.9759	1398.6731	1403.0877	1414.0238	1440.0642	1487.3769	1489.941	1490.1411	1496.1309	1503.8036	1512.915	1520.1621	1840.5319	2901.0604	2920.3929	2948.9483	2998.8541	3022.2681	3026.6562	3031.7001	3050.4753	3090.5095	3095.5998	3105.0847	3125.3046	3125.8118	3136.7975
CC(C)COC(C)C=O	CC(C)CO[C@@H](C)C=O	
InChI=1S/C7H14O2/c1-6(2)5-9-7(3)4-8/h4,6-7H,5H2,1-3H3	InChI=1S/C7H14O2/c1-6(2)5-9-7(3)4-8/h4,6-7H,5H2,1-3H3/t7-/m0/s1
