23
gdb 90709	3.04216	1.18134	1.13761	1.3197	85.25	-0.2476	0.0739	0.3215	1235.3638	0.205102	-388.26971	-388.260429	-388.259485	-388.303178	36.855	
C	 0.1818365265	 1.5251936468	-0.0807235846	-0.451805
C	 0.0707031017	 0.0058822434	-0.0063570203	 0.343296
C	-1.3846672913	-0.4302203555	-0.2056817044	-0.434382
C	 1.0316931372	-0.8281157367	-0.9199174274	-0.28547
C	 1.3695480313	-1.7653125532	 0.2735737866	-0.033872
C	 2.7153754974	-1.4849341699	 0.9617168962	 0.133494
O	 3.7843906585	-1.2440954303	 0.0733977269	-0.430253
C	 2.0775511693	-0.2816450906	 1.7230267629	-0.3106
C	 0.6695001963	-0.7319210815	 1.2315151701	-0.040886
H	 1.2135076894	 1.8718308819	 0.0303918667	 0.112013
H	-0.1802107103	 1.8894579667	-1.0495117357	 0.111168
H	-0.4207371334	 2.0070143063	 0.6987146349	 0.107583
H	-1.755430877	-0.11764423	-1.188735558	 0.108083
H	-1.4886909036	-1.5188066794	-0.1411015241	 0.111087
H	-2.035981208	 0.0127951169	 0.5569600993	 0.10709
H	 0.5532307337	-1.3099430494	-1.7763417043	 0.091278
H	 1.9036945991	-0.2767838743	-1.2783148983	 0.111817
H	 1.0618690749	-2.8064263911	 0.1725392457	 0.059411
H	 2.9641643356	-2.2970296561	 1.6606948648	 0.062342
H	 4.5654843912	-1.0273675436	 0.5920897713	 0.281997
H	 2.2191073758	-0.2860455552	 2.806557384	 0.094458
H	 2.4046006407	 0.6867077836	 1.3362244292	 0.099407
H	-0.029998065	-1.024417989	 2.0172844584	 0.052741
65.2876	176.1025	202.9284	243.3736	259.4657	273.9251	332.4766	342.2713	372.5768	391.9517	449.9973	532.1762	571.9536	711.7389	735.5449	785.0582	834.9692	870.3706	905.4003	925.2209	950.4289	962.3081	991.4713	1018.1344	1029.3034	1040.87	1082.1104	1101.5835	1128.648	1180.45	1189.0578	1217.6501	1222.7976	1234.3775	1249.8875	1260.2651	1287.3789	1312.6451	1327.5351	1338.2139	1399.7053	1416.0877	1423.3754	1475.3538	1482.1101	1484.0065	1494.9105	1502.9618	1509.2842	2983.7826	3017.3496	3023.456	3060.1378	3061.2542	3078.9926	3080.7787	3086.6462	3090.4194	3099.0773	3100.6619	3114.2977	3118.744	3818.169
CC1(C)CC2C(O)CC12	CC1(C)C[C@H]2[C@@H](O)C[C@@H]12	
InChI=1S/C8H14O/c1-8(2)4-5-6(8)3-7(5)9/h5-7,9H,3-4H2,1-2H3	InChI=1S/C8H14O/c1-8(2)4-5-6(8)3-7(5)9/h5-7,9H,3-4H2,1-2H3/t5-,6-,7+/m1/s1
