18
gdb 83463	2.81119	1.33667	1.08083	2.962	73.14	-0.2332	0.0188	0.252	1145.8476	0.146877	-439.062112	-439.053389	-439.052444	-439.095946	32.024	
C	 0.0179582959	 1.5676128439	 0.0656624095	-0.428926
C	 0.0614111249	 0.0616062497	 0.1617907081	-0.029417
C	 1.2439086237	-0.7871013258	-0.2019861355	-0.005676
O	 2.4764208896	-0.123449943	 0.0895828252	-0.278479
C	 2.160635687	-0.0913753639	 1.5059145932	-0.136511
C	 0.7846272333	-0.7074649422	 1.2481252979	 0.302004
N	 0.1293853762	-1.634551659	 2.0916090704	-0.397218
C	-0.9940880531	-1.3391455576	 2.8171311906	 0.134685
O	-1.5910978492	-0.2877636927	 2.7921113299	-0.307435
H	 1.0188732796	 1.9980264055	 0.1490425928	 0.131626
H	-0.3941905497	 1.8776288691	-0.8998932781	 0.117909
H	-0.6145264837	 1.9783130311	 0.8578553785	 0.141671
H	-0.8734652023	-0.4399997522	-0.0793527861	 0.103372
H	 1.2612496302	-1.5896810784	-0.9311612523	 0.107875
H	 2.8307122335	-0.7581483596	 2.062675087	 0.102874
H	 2.2044946318	 0.9177553635	 1.9299198088	 0.11663
H	 0.5630316108	-2.5314203371	 2.2563708322	 0.247863
H	-1.3104427583	-2.2032364115	 3.435758498	 0.077152
51.6537	113.5016	179.8851	206.949	237.1075	256.8161	288.0336	407.8475	449.9318	542.4705	572.837	626.378	760.7645	765.1473	848.3066	922.3309	953.2626	992.3651	999.2338	1003.1236	1032.7781	1077.2044	1087.2647	1108.4657	1131.9269	1153.0202	1167.666	1228.4705	1288.4101	1290.6289	1350.5166	1407.2294	1431.5237	1468.8288	1494.3442	1501.5725	1517.4834	1520.4618	1814.1378	2930.8524	3021.3369	3043.162	3076.0358	3107.9428	3123.581	3145.3037	3176.4779	3596.9036
CC1C2OCC12NC=O	C[C@H]1[C@H]2OC[C@@]12NC=O	
InChI=1S/C6H9NO2/c1-4-5-6(4,2-9-5)7-3-8/h3-5H,2H2,1H3,(H,7,8)	InChI=1S/C6H9NO2/c1-4-5-6(4,2-9-5)7-3-8/h3-5H,2H2,1H3,(H,7,8)/t4-,5+,6+/m0/s1
