16
gdb 132524	3.11681	1.35101	0.94869	3.3586	76.29	-0.2114	-0.0092	0.2022	1166.8083	0.125233	-442.115514	-442.107632	-442.106688	-442.147632	30.629	
C	-0.0550622808	 1.5302444673	-0.0088447222	-0.520467
C	-0.0172616342	 0.0258543854	-0.0227048116	 0.233941
C	-0.0081020636	-0.7121739843	-1.1992437395	-0.13408
C	 0.0088339361	-2.1053757087	-1.1789716858	-0.299069
C	 0.0185632583	-2.693167237	 0.075841949	 0.329008
F	 0.0361502805	-4.0232233816	 0.1623932044	-0.079352
N	 0.0187798446	-2.0501973815	 1.2213791365	-0.387509
C	-0.0027154916	-0.7116974415	 1.1824452913	 0.312869
N	-0.0619162941	-0.0764614295	 2.4064861465	-0.564495
H	 0.8442237365	 1.962513079	 0.452128043	 0.123059
H	-0.1197982348	 1.9296262809	-1.0239985499	 0.128432
H	-0.9167225623	 1.9067692309	 0.5560516257	 0.136953
H	-0.0187346975	-0.1896559281	-2.151461902	 0.102265
H	 0.014382738	-2.7071065927	-2.0774789168	 0.107304
H	 0.1701893913	-0.6728596418	 3.1866050496	 0.258621
H	 0.3162591037	 0.855290633	 2.463319182	 0.252521
129.4375	173.5029	237.9268	293.0489	327.274	342.2965	408.7163	464.3712	479.921	525.6758	554.4406	590.1322	696.3386	745.7806	769.2433	788.2634	815.2113	957.8029	984.5604	1011.9706	1065.849	1098.567	1161.3527	1217.995	1282.405	1346.725	1358.1174	1411.7305	1463.829	1482.815	1504.6369	1509.3435	1626.3628	1632.0097	1658.4899	3006.2401	3056.3944	3113.3723	3172.0383	3225.3438	3582.7307	3698.6189
CC1=CC=C(F)N=C1N	Cc1ccc(F)nc1N	
InChI=1S/C6H7FN2/c1-4-2-3-5(7)9-6(4)8/h2-3H,1H3,(H2,8,9)	InChI=1S/C6H7FN2/c1-4-2-3-5(7)9-6(4)8/h2-3H,1H3,(H2,8,9)
