18
gdb 18088	4.91219	1.10495	1.06723	1.952	67.65	-0.2339	0.074	0.3079	1152.0041	0.153603	-384.881737	-384.873713	-384.872769	-384.914916	29.263	
O	-0.0760736368	 1.3979066234	-0.0298805063	-0.421056
C	-0.0829286096	-0.010526658	-0.2069791849	-0.065609
C	-1.4373503368	-0.5323943205	 0.2618401961	-0.210705
C	-1.5301600402	-2.0388880045	 0.1629434507	-0.036502
C	-2.8221561353	-2.8411152434	 0.155163459	-0.165544
C	-3.8644396443	-2.1550681415	-0.7212489309	-0.092203
O	-2.9218413631	-2.0337817934	-1.8214426556	-0.283065
C	-1.9463136299	-2.7719730744	-1.0780115999	 0.088314
H	 0.7548485161	 1.739906792	-0.3718642535	 0.284712
H	 0.0687585967	-0.2841183173	-1.2628553694	 0.094252
H	 0.7242873018	-0.4879240723	 0.3741252994	 0.077713
H	-1.5985392574	-0.2081492753	 1.2967888046	 0.104242
H	-2.2122282565	-0.0627880143	-0.3499215198	 0.123246
H	-0.7509846474	-2.5764273383	 0.7034855241	 0.086605
H	-3.0141772756	-3.6555836801	 0.8405500544	 0.097106
H	-4.6915482224	-2.816263246	-1.0029548979	 0.109872
H	-4.2606501181	-1.1854578774	-0.3983102245	 0.108698
H	-1.3623711612	-3.5126434088	-1.6132480058	 0.099924
58.5916	89.0604	142.3758	239.0696	259.3259	298.3257	398.9359	461.729	608.7147	748.087	785.7342	799.3285	815.23	910.133	957.9856	974.9343	1005.8278	1021.6921	1029.7432	1054.7361	1076.1521	1082.1223	1087.3951	1136.0193	1164.8811	1190.0951	1234.4363	1250.1541	1261.3023	1309.955	1318.7791	1331.3037	1367.0267	1449.4949	1461.2334	1484.9469	1517.4909	1526.1035	2955.6932	2993.0146	3026.4397	3043.0678	3073.6131	3100.7482	3117.4084	3171.8492	3202.1436	3831.4187
OCCC1C2COC12	OCC[C@H]1[C@H]2CO[C@@H]12	
InChI=1S/C6H10O2/c7-2-1-4-5-3-8-6(4)5/h4-7H,1-3H2	InChI=1S/C6H10O2/c7-2-1-4-5-3-8-6(4)5/h4-7H,1-3H2/t4-,5+,6-/m0/s1
