20
gdb 79133	2.2923	2.09617	1.38621	1.378	86.62	-0.1953	-0.0298	0.1656	1005.9216	0.170472	-365.901212	-365.893218	-365.892274	-365.933032	32.278	
C	 0.4344842684	 1.3140834847	 0.7224323801	-0.408417
C	 0.1142654165	-0.0598191184	 0.176889786	 0.067965
N	 0.7630922168	-0.4547307887	-1.1625819059	-0.17542
C	 2.0861016839	-1.2884882348	-1.0776192515	-0.019787
C	 3.0084150648	-1.4259468362	 0.1453934489	-0.316196
C	 1.9856801492	-1.2495750463	 1.2634090691	 0.258802
C	 2.3295614823	-0.5322663498	 2.5295280785	-0.471708
C	 0.739007988	-1.3657484749	 0.7311172021	-0.115134
C	 0.7967064142	-1.8696422308	-0.7127322382	-0.065165
H	 1.5081780864	 1.4633932609	 0.8541114039	 0.120742
H	 0.0675790234	 2.0704375098	 0.020970833	 0.127611
H	-0.0605558414	 1.4801468762	 1.6847697052	 0.122094
H	-0.9599608454	-0.1413432436	-0.0260972035	 0.090343
H	 2.4906424126	-1.3641097099	-2.0828259293	 0.096733
H	 3.5545864409	-2.3786230897	 0.0706926501	 0.114084
H	 3.7677538763	-0.6403063137	 0.2471882928	 0.112329
H	 3.0441681263	 0.2859895166	 2.3722370684	 0.119123
H	 1.4374197176	-0.1371602551	 3.0233807999	 0.125462
H	 2.807771689	-1.2232765623	 3.238075052	 0.128551
H	 0.2216479201	-2.6598089537	-1.1836773317	 0.087988
147.4496	195.1207	213.9692	252.6029	286.8914	326.1085	384.3056	496.7925	509.1186	547.2643	606.716	705.0015	722.0974	770.6514	825.2556	869.0899	881.1586	924.4887	932.9035	986.0702	1003.2682	1022.8525	1051.4708	1061.9923	1075.2858	1106.9952	1143.2842	1156.8696	1193.0151	1217.783	1239.0201	1275.0513	1295.1742	1365.5724	1385.7246	1407.9479	1410.6232	1458.6078	1470.8273	1481.1239	1493.0735	1496.3897	1597.584	2990.0734	3005.4016	3032.2721	3041.819	3044.6083	3049.7353	3104.6049	3109.2219	3131.9262	3156.6974	3169.3989
CC1N2C3CC(C)=C1C23	C[C@H]1N2[C@H]3C[C](C)[C]1[C@@H]23	
InChI=1S/C8H11N/c1-4-3-6-8-7(4)5(2)9(6)8/h5-6,8H,3H2,1-2H3	InChI=1S/C8H11N/c1-4-3-6-8-7(4)5(2)9(6)8/h5-6,8H,3H2,1-2H3/t5-,6+,8+,9?/m1/s1
