12
gdb 15494	3.48533	2.00362	1.35669	4.9643	56.54	-0.2582	-0.0443	0.2139	831.8383	0.083846	-414.705094	-414.698111	-414.697167	-414.737518	24.097	
O	-0.9663023904	 1.0927516181	 0.2635661975	-0.220142
C	 0.1635525006	 0.8593401407	-0.0596864753	 0.163502
C	 1.2783215783	 1.9118044263	-0.0650853198	-0.187949
N	 2.5937029767	 1.2976192038	 0.1260718386	-0.244447
C	 3.2697176579	 1.5785114195	-0.9213938092	 0.070921
N	 2.6217398545	 2.3474201845	-1.8762780982	-0.329941
C	 1.3322598843	 2.641562969	-1.4340184806	 0.396676
O	 0.5027186243	 3.2971361886	-2.0029448958	-0.330377
H	 0.4989801112	-0.1450657468	-0.3941537863	 0.098752
H	 1.051900114	 2.6367419582	 0.7224130823	 0.153321
H	 4.2923767179	 1.2580381655	-1.0909729286	 0.151619
H	 3.0046143007	 2.6817449928	-2.7460734646	 0.278066
39.7046	89.7762	199.1755	270.3205	453.1951	470.13	494.8987	581.6365	681.0088	689.9204	823.5801	890.1849	945.2494	1013.1324	1038.5203	1062.598	1075.2794	1164.8176	1207.6717	1239.6642	1346.9673	1400.0555	1406.2567	1670.071	1826.6427	1876.0909	2911.3902	3083.393	3199.2406	3653.3952
O=CC1N=CNC1=O	O=C[C@H]1N=CNC1=O	
InChI=1S/C4H4N2O2/c7-1-3-4(8)6-2-5-3/h1-3H,(H,5,6,8)	InChI=1S/C4H4N2O2/c7-1-3-4(8)6-2-5-3/h1-3H,(H,5,6,8)/t3-/m1/s1
