14
gdb 10470	2.85473	1.64402	1.18789	3.6035	59.16	-0.258	-0.0531	0.2049	980.1248	0.103499	-419.666606	-419.65843	-419.657485	-419.700369	27.766	
O	 0.5229117024	-0.292944228	 0.0613479281	-0.232289
C	 0.2353694976	 0.8138664197	-0.3080587478	 0.170782
C	 1.0262475384	 2.0583185079	 0.0688204819	-0.373826
C	 1.2013208708	 3.0106924614	-1.092308446	 0.283962
C	 2.5186172388	 3.6068839091	-1.4163547003	-0.21538
O	 1.9927207378	 2.5558301172	-2.2055962031	-0.253813
C	 0.0023315298	 3.8005134025	-1.5279269828	 0.126554
O	-1.0183793644	 3.8785569126	-0.8934704865	-0.254133
H	-0.6571576636	 0.9999421392	-0.9440348422	 0.095042
H	 0.4546430777	 2.5811713999	 0.8471850465	 0.154004
H	 1.9850065049	 1.7457092592	 0.4871547952	 0.131046
H	 2.5752551809	 4.5798346957	-1.9034600458	 0.131074
H	 3.3610593538	 3.3508943009	-0.7761817706	 0.138199
H	 0.1424631851	 4.3105764327	-2.5055638666	 0.098777
53.3748	70.0951	128.2431	172.9649	245.2409	340.8986	364.0242	466.1875	477.1172	555.6193	711.8498	834.6172	865.2022	883.4602	954.8511	1025.6053	1045.1251	1072.8336	1134.5306	1163.447	1203.5199	1282.222	1316.0712	1352.5183	1421.6156	1432.0395	1440.5297	1520.6877	1823.5484	1840.3893	2901.189	2908.4213	3039.1343	3084.7622	3121.7641	3177.0447
O=CCC1(CO1)C=O	O=CC[C@]1(CO1)C=O	
InChI=1S/C5H6O3/c6-2-1-5(3-7)4-8-5/h2-3H,1,4H2	InChI=1S/C5H6O3/c6-2-1-5(3-7)4-8-5/h2-3H,1,4H2/t5-/m1/s1
