13
gdb 27968	3.29747	1.29746	0.9311	2.4177	68.67	-0.2678	-0.0889	0.1789	1140.2614	0.091071	-452.82119	-452.814156	-452.813212	-452.853027	25.92	
O	 0.4892906793	 1.2191018253	-0.2392687308	-0.400403
C	 0.2217795604	-0.083901169	-0.1009828606	 0.46292
C	 0.2571747497	-0.9193490036	-1.2216991592	-0.267928
C	-0.0330762295	-2.2509349059	-0.9817724564	 0.231086
C	-0.0295359548	-3.2512909053	-2.0966237956	 0.112683
O	 0.218357996	-2.9732290785	-3.2430261137	-0.244586
N	-0.3322203586	-2.735003278	 0.2372123839	-0.311557
C	-0.3329843983	-1.841672935	 1.2189153451	 0.069953
N	-0.0709099673	-0.535388902	 1.1159228917	-0.341144
H	 0.4122106056	 1.6130811102	 0.6422292077	 0.307823
H	 0.4944150404	-0.5582759188	-2.21335353	 0.147341
H	-0.2789477363	-4.2791017422	-1.7646988171	 0.10292
H	-0.5713958468	-2.2044448573	 2.2154802252	 0.130894
118.1841	180.2915	189.1649	250.808	412.0128	459.8762	480.6802	562.8575	567.6658	648.345	675.9761	800.8327	829.5714	919.9864	982.7136	999.4658	1007.7889	1053.561	1151.7758	1189.2102	1281.3245	1320.6044	1367.5396	1397.6812	1454.0187	1501.3936	1609.3562	1642.2434	1816.1969	2945.1525	3172.2054	3232.7995	3754.087
OC1=CC(C=O)=NC=N1	Oc1cc(C=O)ncn1	
InChI=1S/C5H4N2O2/c8-2-4-1-5(9)7-3-6-4/h1-3H,(H,6,7,9)	InChI=1S/C5H4N2O2/c8-2-4-1-5(9)7-3-6-4/h1-3H,(H,6,7,9)
