19
gdb 117864	4.06391	0.57431	0.51878	1.2606	95.4	-0.247	-0.0233	0.2238	2105.7778	0.155686	-385.838602	-385.827864	-385.826919	-385.875071	38.231	
C	 0.0298727354	 1.5762879888	 0.0267812695	-0.389821
C	 0.0139826031	 0.0457504296	 0.0215911852	-0.164362
C	-1.4034110667	-0.5322442078	-0.0254964998	-0.173404
C	-1.4192573733	-2.0734744903	 0.0302392841	-0.124836
O	-0.7845341142	-2.5780739292	 1.2036275098	-0.409237
C	-2.7801971853	-2.5958113913	-0.1092526765	 0.378873
C	-3.9165768811	-3.0067502923	-0.1878465104	-0.21273
C	-5.1915352475	-3.4727437454	-0.2802220966	 0.282102
C	-6.3235355969	-3.885220158	-0.3614758887	-0.55101
H	 1.0537544162	 1.961158658	 0.0591727105	 0.115286
H	-0.4510211277	 1.9840054123	-0.8694092099	 0.114889
H	-0.5029572273	 1.9757023001	 0.8969655022	 0.114662
H	 0.5819267431	-0.3257019419	-0.8417974437	 0.096266
H	 0.5232383889	-0.3408223747	 0.9104158697	 0.114173
H	-1.9993273423	-0.149466416	 0.8142550212	 0.097003
H	-1.9181843658	-0.2124277451	-0.9398046679	 0.10971
H	-0.8081327332	-2.4580188719	-0.7970044446	 0.123123
H	-1.3679793826	-2.3963988724	 1.9493613639	 0.286067
H	-7.3181399027	-4.2494817325	-0.4343474579	 0.193247
58.6297	71.5947	87.7444	136.3222	175.7868	243.3616	249.5646	263.6991	309.6456	334.4387	388.6038	493.605	508.2493	544.4788	554.7087	591.6693	608.2251	748.2278	769.3211	854.3812	906.4601	950.6969	1041.0057	1076.7828	1105.3058	1119.8259	1174.9552	1239.7225	1268.3898	1295.421	1334.0031	1348.5405	1390.1474	1412.9878	1417.3709	1477.4258	1494.6069	1500.0066	1511.7206	2179.5377	2357.4906	3014.347	3023.5035	3028.8099	3031.5238	3058.88	3077.1138	3099.8856	3104.0039	3505.226	3800.3335
CCCC(O)C#CC#C	CCC[C@@H](O)C#CC#C	
InChI=1S/C8H10O/c1-3-5-7-8(9)6-4-2/h1,8-9H,4,6H2,2H3	InChI=1S/C8H10O/c1-3-5-7-8(9)6-4-2/h1,8-9H,4,6H2,2H3/t8-/m1/s1
