20
gdb 61896	3.13194	0.73549	0.67932	3.4257	82.02	-0.2441	0.029	0.2731	1700.0914	0.167952	-403.157554	-403.146435	-403.145491	-403.195348	38.865	
C	-0.1178178853	 1.8674473804	-0.17532218	-0.39218
C	 0.0285944086	 0.3431182313	-0.0773297508	-0.093964
C	-1.3261844549	-0.3929926959	 0.0176981331	-0.164058
C	-2.1216647284	-0.0727850806	 1.3003727863	-0.371997
C	-3.3439995946	-0.8602705376	 1.4067340622	 0.291239
C	-4.3449432636	-1.5227035107	 1.4706362399	-0.430849
C	 0.7492435067	-0.1747550063	-1.327893005	 0.405027
N	 1.7570630523	-1.0654880075	-1.0967541977	-0.525947
O	 0.4278735876	 0.1672355321	-2.4500360955	-0.372701
H	 0.8626729285	 2.3513080808	-0.2205350534	 0.118444
H	-0.6600123171	 2.1280422038	-1.0876358338	 0.146234
H	-0.650470724	 2.2778824677	 0.6865303327	 0.112363
H	 0.6213565908	 0.0928424649	 0.813447561	 0.062269
H	-1.9275847167	-0.1430118732	-0.8620561738	 0.133089
H	-1.1537270726	-1.4744988584	-0.0195962334	 0.109384
H	-1.4905747223	-0.259869536	 2.1800269901	 0.124536
H	-2.3773074943	 0.9926541945	 1.3308594892	 0.136933
H	-5.2329661952	-2.1008210087	 1.5356283195	 0.194077
H	 2.017182219	-1.3607205457	-0.1729892904	 0.257658
H	 2.2271607557	-1.4725905951	-1.8889107704	 0.260444
26.0087	63.5729	93.8184	97.2035	119.0152	210.3811	218.4154	255.8909	298.5428	337.3424	352.9799	462.677	521.513	595.5549	617.4913	621.1628	636.9107	764.5556	773.6652	801.1659	910.2916	954.0099	961.9559	1034.0973	1044.4716	1089.7876	1124.6914	1133.4774	1215.1375	1257.9568	1298.369	1313.9449	1350.364	1377.0843	1403.5334	1407.9899	1473.4199	1493.1232	1494.7064	1505.919	1614.6541	1793.7332	2239.2945	3006.8179	3015.1232	3042.7062	3047.0921	3057.9108	3095.9091	3111.8405	3132.6966	3507.9932	3602.3117	3742.2343
CC(CCC#C)C(N)=O	C[C@@H](CCC#C)C(=O)N	
InChI=1S/C7H11NO/c1-3-4-5-6(2)7(8)9/h1,6H,4-5H2,2H3,(H2,8,9)	InChI=1S/C7H11NO/c1-3-4-5-6(2)7(8)9/h1,6H,4-5H2,2H3,(H2,8,9)/t6-/m0/s1
