17
gdb 12663	2.71306	2.23924	1.4476	4.8323	64.53	-0.2372	0.0376	0.2748	886.8389	0.142949	-401.046405	-401.038378	-401.037433	-401.078648	29.801	
C	-0.0652484178	 1.6032878165	 0.0079694115	-0.400748
C	 0.154430915	 0.0945883894	-0.0068407094	-0.113078
C	 0.9178171578	-0.494864615	-1.2059461974	 0.097283
O	 1.934395172	 0.4235444405	-1.5718026755	-0.422726
C	 1.5168811388	-1.8039617081	-0.6299711786	-0.186681
N	 1.6804449903	-1.4883251073	 0.7735987594	-0.308561
C	 0.9460125727	-0.418565631	 1.2083094375	 0.424752
O	 0.9096667141	 0.0135541213	 2.3392332123	-0.388292
H	 0.8755125975	 2.1337908653	-0.1461433624	 0.142239
H	-0.7651135684	 1.9101239925	-0.7747925547	 0.105488
H	-0.4717386865	 1.8942963823	 0.9797146819	 0.136473
H	-0.8184172187	-0.4152118254	 0.0443993383	 0.100585
H	 0.2579342158	-0.7054255211	-2.0578131061	 0.070268
H	 2.4126545333	 0.0619005274	-2.3239697938	 0.286078
H	 0.8369752088	-2.6541081637	-0.7910733816	 0.103103
H	 2.4736563557	-2.0405268321	-1.1092023619	 0.102919
H	 2.2213211396	-2.0407354015	 1.4186915904	 0.250898
84.498	163.904	190.8639	249.842	259.9747	285.3475	385.8141	448.2389	506.0121	521.289	632.0807	718.9128	763.3725	792.3624	870.7249	912.0902	993.0856	1014.9154	1073.6525	1077.7999	1132.9084	1160.4272	1196.9602	1232.0935	1257.6778	1291.1146	1318.1522	1340.8231	1381.0271	1403.2449	1424.7587	1450.2227	1491.0751	1504.3015	1518.111	1832.5331	2986.6416	3007.2578	3021.373	3052.6149	3053.6693	3122.3562	3146.9259	3650.2087	3826.0276
CC1C(O)CNC1=O	C[C@H]1[C@@H](O)CNC1=O	
InChI=1S/C5H9NO2/c1-3-4(7)2-6-5(3)8/h3-4,7H,2H2,1H3,(H,6,8)	InChI=1S/C5H9NO2/c1-3-4(7)2-6-5(3)8/h3-4,7H,2H2,1H3,(H,6,8)/t3-,4-/m0/s1
