19
gdb 120720	3.30546	0.81369	0.72661	4.7218	73.85	-0.2423	0.021	0.2633	1577.4137	0.158399	-456.340123	-456.329917	-456.328973	-456.376351	35.947	
N	 0.3716614247	 0.9904896972	-0.796110799	-0.53264
C	 0.1443971397	 0.1604687591	 0.269434025	 0.433035
O	 0.9806796897	-0.0399444883	 1.1265123405	-0.354414
C	-1.228268945	-0.4658611559	 0.2630454796	-0.154366
N	-1.37558935	-1.7514957805	 0.9619226267	-0.307247
C	-2.0662520825	-0.5808388107	 1.5037717006	-0.024694
C	-1.6340224578	-0.0863467982	 2.8634021022	-0.193112
C	-2.2236961818	-0.9420929205	 3.9800548043	-0.068665
O	-1.8595773484	-0.3496388459	 5.2173957033	-0.420645
H	 1.2235971007	 1.5274474754	-0.7940859179	 0.262072
H	-0.3572947061	 1.2567274906	-1.4343628838	 0.25598
H	-1.7831149895	-0.3361513942	-0.6652947021	 0.075336
H	-2.0129051462	-2.3506014278	 0.4445522511	 0.234513
H	-3.1397023771	-0.5148924526	 1.3174376373	 0.083382
H	-0.5449494507	-0.0993149176	 2.9290232296	 0.155981
H	-1.9693372767	 0.949239055	 2.9996290788	 0.099053
H	-3.3218364253	-0.9963907821	 3.8762526867	 0.069391
H	-1.8342970159	-1.9672534005	 3.8914160723	 0.102975
H	-2.1325115918	-0.9408566226	 5.9246196248	 0.284064
48.3232	75.2103	92.3138	119.9031	185.356	211.4667	246.1307	256.8588	357.2005	382.529	445.0205	493.4357	577.4627	640.1228	755.8836	798.0713	806.0218	859.2292	895.6463	944.649	1018.2275	1032.8229	1043.0813	1078.0024	1085.3062	1143.8433	1192.4198	1213.0826	1236.9901	1258.1794	1272.936	1292.808	1318.2205	1331.443	1441.124	1461.2563	1481.4506	1491.6967	1529.254	1617.1568	1801.905	2944.2176	3004.4481	3042.7704	3084.5453	3108.8578	3134.7993	3507.5207	3601.4944	3735.98	3832.4456
NC(=O)C1NC1CCO	NC(=O)[C@H]1N[C@H]1CCO	
InChI=1S/C5H10N2O2/c6-5(9)4-3(7-4)1-2-8/h3-4,7-8H,1-2H2,(H2,6,9)	InChI=1S/C5H10N2O2/c6-5(9)4-3(7-4)1-2-8/h3-4,7-8H,1-2H2,(H2,6,9)/t3-,4-/m0/s1
