18
gdb 46360	3.1665	1.25285	1.13382	3.5805	72.19	-0.2406	-0.0229	0.2176	1136.3513	0.147643	-439.051572	-439.043225	-439.042281	-439.085641	30.209	
O	-0.0373284907	 0.086904517	-0.4526430749	-0.285263
C	 0.0121417688	 1.2151688188	-0.0708045967	 0.411357
C	-0.972090956	 2.201296656	 0.5737573833	-0.283764
N	 0.0943379616	 3.2462186687	 0.545634153	-0.318283
C	 1.0922928073	 2.3246171002	-0.0761945939	-0.158042
C	 2.2951120132	 2.0379170709	 0.8082292111	 0.158888
C	 3.0057924682	 3.2550435817	 1.4428905085	-0.289463
C	 2.5023459011	 2.6700149974	 2.7766034027	-0.050937
O	 1.8869212523	 1.5484825025	 2.1047483797	-0.29558
H	-1.8641586105	 2.4029060874	-0.0313360886	 0.1239
H	-1.2827793119	 1.9302175976	 1.5882957868	 0.145531
H	-0.1466708442	 4.0159342619	-0.0670448312	 0.226162
H	 1.4283206299	 2.601515033	-1.084951762	 0.092664
H	 2.9499377992	 1.3171669202	 0.3004660703	 0.087456
H	 4.0885691712	 3.2786464797	 1.3140029998	 0.110221
H	 2.577828693	 4.2216691605	 1.1756485647	 0.113237
H	 3.2775679626	 2.3435164126	 3.4797141442	 0.100787
H	 1.7615943848	 3.2790065739	 3.3054694631	 0.11113
61.8157	85.651	92.2791	135.521	257.5599	304.2319	419.8344	535.9653	612.3511	658.0897	735.0825	780.0242	801.8742	838.2257	881.9857	931.6813	949.0275	993.6778	997.2148	1027.7976	1044.4158	1075.6706	1083.2826	1122.2377	1127.8731	1168.2706	1210.8762	1222.0332	1255.397	1261.3458	1287.7786	1322.1128	1357.5306	1374.1204	1382.662	1462.8353	1477.0821	1523.9984	1914.7687	3012.5631	3023.3292	3027.9689	3032.8518	3073.1005	3083.5304	3086.0284	3144.278	3549.7563
O=C1CNC1C1CCO1	O=C1CN[C@H]1[C@H]1CCO1	
InChI=1S/C6H9NO2/c8-4-3-7-6(4)5-1-2-9-5/h5-7H,1-3H2	InChI=1S/C6H9NO2/c8-4-3-7-6(4)5-1-2-9-5/h5-7H,1-3H2/t5-,6-/m1/s1
