20
gdb 114643	2.81947	1.27548	1.11526	3.4545	78.21	-0.2407	-0.0101	0.2305	1189.8751	0.172327	-403.138835	-403.130604	-403.12966	-403.17177	31.837	
C	 0.0146586472	 1.5474910657	 0.0060289026	-0.38328
C	 0.0040370582	 0.0164428593	 0.0622279156	-0.199717
C	-1.4020543713	-0.585286555	-0.0158297611	 0.019976
C	-2.1193980429	-0.4524393832	-1.4138503122	-0.254585
C	-2.3981244235	-1.9511961023	-1.6929933339	-0.124037
N	-2.8297352149	-2.5153666771	-0.3680386523	-0.327538
C	-1.4603602184	-2.1349401897	 0.1177702329	-0.149126
C	-1.0304514948	-2.5571033787	-1.3043828767	 0.485896
O	-0.1257933343	-3.121617672	-1.83236155	-0.320368
H	 1.0347584662	 1.9371504449	 0.0733921529	 0.118004
H	-0.4210760617	 1.9185075181	-0.9276143366	 0.119275
H	-0.561560052	 1.9765875172	 0.8333662302	 0.114717
H	 0.619522189	-0.3895583272	-0.7507776536	 0.113208
H	 0.4790388211	-0.3140866646	 0.9951111261	 0.100145
H	-2.0208311099	-0.142883736	 0.7746048247	 0.071658
H	-3.0465054262	 0.1255340206	-1.3667525497	 0.105354
H	-1.4772037711	 0.0039203405	-2.1740657969	 0.114849
H	-2.9542640442	-2.236505985	-2.584167988	 0.09092
H	-3.5587429377	-1.9492082321	 0.068384058	 0.21687
H	-1.0856922988	-2.5987134333	 1.0290876082	 0.087779
93.0313	119.6738	174.3788	203.6078	249.0914	378.0902	407.5023	452.7838	478.2635	642.3194	647.3949	764.7731	781.4108	818.4711	842.2331	872.8617	910.0141	938.285	953.4176	969.769	1034.4411	1045.6638	1065.4066	1072.6532	1080.9562	1121.8261	1136.392	1177.8246	1214.1884	1220.103	1257.8479	1286.6516	1302.6141	1310.3851	1336.9003	1354.9697	1394.1674	1411.6833	1484.811	1496.8337	1500.0576	1507.1148	1932.5662	3018.0799	3022.0314	3032.4435	3050.5065	3054.743	3094.829	3099.7791	3106.8863	3135.6843	3141.4756	3442.7823
CCC1CC2NC1C2=O	CC[C@H]1C[C@@H]2N[C@H]1C2=O	
InChI=1S/C7H11NO/c1-2-4-3-5-7(9)6(4)8-5/h4-6,8H,2-3H2,1H3	InChI=1S/C7H11NO/c1-2-4-3-5-7(9)6(4)8-5/h4-6,8H,2-3H2,1H3/t4-,5-,6+/m0/s1
