18
gdb 74125	2.24015	1.59332	0.96479	5.7823	85.23	-0.214	-0.0403	0.1737	1196.1352	0.149719	-401.988379	-401.980143	-401.979199	-402.021229	31.921	
N	 0.0406747604	 1.400854174	 0.0183591075	-0.551856
C	-0.0190744501	 0.0262309087	 0.0061622581	 0.344716
C	-1.2167481675	-0.6111064139	 0.0055174435	-0.265832
C	-1.5431981423	-2.0169491796	-0.2100752741	 0.346146
O	-2.7192002599	-2.3465010064	-0.3485844278	-0.373757
C	-0.5263421588	-3.1052480561	-0.2546814288	-0.127332
C	 0.7396199968	-3.0967512809	 0.1699160369	-0.07681
C	 1.5043857585	-1.9187845984	 0.7106866147	-0.259761
C	 1.3374998617	-0.631148558	-0.1045469746	-0.290394
H	 0.8688530611	 1.8385285252	 0.3878343685	 0.254067
H	-0.8154158598	 1.903035277	 0.196987349	 0.258932
H	-2.1133731946	 0.0011798568	 0.0767265811	 0.076698
H	-0.9622470951	-4.0371840623	-0.6041389922	 0.103209
H	 1.284831771	-4.0379660965	 0.1419971051	 0.098763
H	 1.2106400943	-1.7291513287	 1.752737638	 0.12371
H	 2.5694510911	-2.1710587635	 0.7378184217	 0.107073
H	 1.5411665443	-0.8395956416	-1.1626473707	 0.136715
H	 2.1007663888	 0.0891805742	 0.2134292041	 0.095714
67.8427	160.2439	189.8986	297.21	340.0888	349.7426	382.2522	412.1214	495.7631	515.4451	546.1586	619.8881	654.3245	695.7555	818.3339	824.5575	851.3605	893.1141	902.9136	972.8781	1025.0724	1035.8937	1081.3074	1116.7587	1191.7167	1222.0836	1258.9372	1300.6971	1324.7875	1358.2469	1385.6291	1415.2935	1434.8902	1470.2819	1476.952	1642.9687	1673.6405	1688.1084	1714.5068	3012.784	3024.4899	3060.7201	3069.3716	3142.9031	3146.5309	3176.2482	3582.3931	3695.7409
NC1=CC(=O)C=CCC1	NC1=CC(=O)C=CCC1	
InChI=1S/C7H9NO/c8-6-3-1-2-4-7(9)5-6/h2,4-5H,1,3,8H2	InChI=1S/C7H9NO/c8-6-3-1-2-4-7(9)5-6/h2,4-5H,1,3,8H2
