24
gdb 102569	2.05968	1.17268	0.86433	2.2114	86.46	-0.2124	0.0742	0.2866	1468.858	0.21538	-405.51101	-405.499977	-405.499033	-405.547495	39.943	
C	-0.0804901692	 0.5930969923	 2.3010607085	-0.393823
C	 0.1537161839	-0.7941102235	 1.6911859095	-0.177277
C	 0.2216981432	-0.8347197703	 0.1487246279	-0.007752
C	 1.4279247458	-0.0494225642	-0.3741519139	-0.083654
O	 1.3944063315	-0.0391929323	-1.7940983725	-0.414464
C	 0.2807308817	-2.2834680112	-0.3210497826	 0.037065
C	-0.9262850217	-3.1619377132	-0.2851505629	-0.268377
N	-0.3061657996	-2.805807711	-1.5534015447	-0.086023
C	-1.0527865783	-1.934681853	-2.448720905	-0.310896
H	 0.7580568525	 1.2736564932	 2.1262633577	 0.118101
H	-0.9797049631	 1.0608817501	 1.8845003671	 0.116135
H	-0.2177410609	 0.5193827119	 3.3845216771	 0.113725
H	 1.0755066315	-1.2270681179	 2.1038283815	 0.094585
H	-0.6557372384	-1.4614491074	 2.0065603135	 0.103403
H	-0.6832426117	-0.3575944574	-0.246645691	 0.079057
H	 1.4083939166	 0.9771896586	 0.0185584061	 0.085485
H	 2.3507650106	-0.5268145299	-0.0029634202	 0.083567
H	 2.185833696	 0.4041709823	-2.1119890613	 0.287089
H	 1.2402638297	-2.7531902271	-0.0947674854	 0.078219
H	-0.8587459924	-4.2043856741	 0.0177560351	 0.106557
H	-1.8738761773	-2.6816044087	-0.0357493999	 0.096582
H	-1.7587158718	-1.2563146851	-1.9418402252	 0.090682
H	-0.3514575747	-1.3268149461	-3.0229737458	 0.140734
H	-1.6325229142	-2.5618718559	-3.1342450234	 0.111281
54.276	67.5926	108.7635	154.2416	197.9819	204.6678	223.6734	249.67	254.3004	290.9388	376.5717	391.856	450.5926	484.9902	542.0758	742.0176	768.682	829.7844	894.1439	929.5072	958.631	976.8714	1036.7807	1044.1997	1066.9695	1091.3168	1114.8417	1123.7639	1132.209	1141.9863	1163.6094	1195.0566	1206.04	1244.1991	1259.9647	1283.0889	1317.6232	1341.1349	1345.9788	1375.8908	1413.197	1428.4729	1445.2767	1456.3526	1487.0867	1489.8691	1500.985	1502.795	1509.228	1515.3021	1519.5281	2957.9827	2965.4223	3007.4023	3014.643	3033.616	3041.9496	3063.0295	3065.4924	3072.0183	3077.8232	3098.4424	3108.1847	3136.8901	3158.1069	3835.251
CCC(CO)C1CN1C	CC[C@@H](CO)[C@H]1CN1C	
InChI=1S/C7H15NO/c1-3-6(5-9)7-4-8(7)2/h6-7,9H,3-5H2,1-2H3	InChI=1S/C7H15NO/c1-3-6(5-9)7-4-8(7)2/h6-7,9H,3-5H2,1-2H3/t6-,7+,8?/m0/s1
