20
gdb 120453	3.13263	0.81711	0.72438	2.8032	76.9	-0.2416	-0.0262	0.2154	1608.4464	0.169151	-440.276853	-440.266812	-440.265868	-440.312735	35.744	
C	 0.2161550688	 1.6327534098	-0.0277090627	-0.385877
C	 0.0595855209	 0.1219365662	 0.0499511851	-0.065568
N	 0.9358112535	-0.683702063	-0.8522801407	-0.34267
C	 1.3689398123	-1.6015720335	 0.2436904599	-0.101713
C	 2.8696606251	-1.838644725	 0.3643861801	-0.197391
C	 3.4234974722	-2.6858799006	-0.7829385358	-0.062568
O	 4.8143397784	-2.9336786695	-0.6630418625	-0.417347
C	 0.7108974363	-0.6208501237	 1.2305760372	 0.377283
O	 0.7520720699	-0.457474097	 2.4130690971	-0.295491
H	 1.2707501841	 1.9130867623	 0.0380659805	 0.125835
H	-0.1821440045	 2.0178632246	-0.9714776347	 0.121381
H	-0.3259712505	 2.1090677728	 0.7950780083	 0.131841
H	-1.0051447837	-0.1539006212	-0.0130174323	 0.095189
H	 0.4365976548	-1.1443820386	-1.6042184087	 0.222871
H	 0.8312460846	-2.5638315664	 0.2536108409	 0.093719
H	 3.3784997699	-0.8662644413	 0.3779722823	 0.093384
H	 3.0798026336	-2.333007268	 1.3195493818	 0.120679
H	 2.9470596662	-3.673411168	-0.7816570177	 0.107001
H	 3.1810585602	-2.2068081012	-1.7441159058	 0.097133
H	 5.269991788	-2.0889019988	-0.7349723022	 0.282308
52.0741	86.6884	104.9238	121.1995	187.6501	201.6013	253.1932	302.2292	349.9173	380.6403	428.6898	537.5669	619.9099	652.6036	751.7131	795.6727	847.5001	886.4558	960.8774	989.5663	1010.8164	1063.249	1065.7886	1078.2652	1092.7453	1115.0462	1137.6225	1175.6928	1192.9553	1260.9163	1303.746	1309.8241	1337.0723	1364.9994	1382.1413	1400.7481	1405.1797	1420.0505	1474.4315	1484.0408	1494.7337	1513.4585	1909.5591	2972.9673	2980.579	2987.0553	3026.5012	3040.6358	3056.1549	3085.6839	3112.3029	3123.8086	3542.4732	3816.6403
CC1NC(CCO)C1=O	C[C@H]1N[C@@H](CCO)C1=O	
InChI=1S/C6H11NO2/c1-4-6(9)5(7-4)2-3-8/h4-5,7-8H,2-3H2,1H3	InChI=1S/C6H11NO2/c1-4-6(9)5(7-4)2-3-8/h4-5,7-8H,2-3H2,1H3/t4-,5+/m1/s1
