19
gdb 105174	1.77719	1.27822	0.8212	2.1401	81.71	-0.246	0.0288	0.2749	1458.834	0.155584	-422.983086	-422.97241	-422.971466	-423.020108	37.008	
C	 0.0301267823	 1.5685499717	-0.0571905269	-0.505555
C	 0.0092104299	 0.1145432303	-0.1035025044	 0.149113
C	-0.0029752069	-1.0896730898	-0.1289456087	 0.044144
C	 0.0207312074	-2.5283879003	-0.213328847	 0.088597
C	 1.2041312772	-3.136520515	-0.9516570944	-0.126919
O	 2.411721602	-2.9314808169	-0.2495194823	-0.410663
O	-0.2687517747	-3.2455902344	 1.0181498415	-0.297411
C	-1.2187645735	-3.324823605	-0.0465289001	 0.052674
C	-2.5718081162	-2.7105423955	 0.1905854626	-0.43329
H	 1.0308380826	 1.9558649123	-0.2769028268	 0.155721
H	-0.6635326774	 2.0013609521	-0.7864357376	 0.150166
H	-0.2584955367	 1.9345983258	 0.9341441515	 0.154243
H	 1.0034734382	-4.20725902	-1.1093425737	 0.088438
H	 1.3246050416	-2.6611066091	-1.9297962802	 0.115834
H	 2.272679235	-3.2752760275	 0.640828748	 0.294297
H	-1.2326877108	-4.2970165989	-0.544632075	 0.086751
H	-2.4758070923	-1.7103368309	 0.6168993693	 0.140364
H	-3.1255045648	-2.6411724339	-0.7517929147	 0.123688
H	-3.1528734128	-3.3337064151	 0.8780484189	 0.129809
33.4014	63.7045	88.3741	119.2709	167.7928	182.5216	244.2001	288.071	312.985	358.6185	414.6065	431.4203	483.1245	531.6159	584.3008	682.7964	761.555	903.8946	922.9868	1000.7152	1015.4537	1051.2927	1052.9352	1054.5974	1087.2483	1134.5436	1165.8202	1210.169	1270.6869	1336.318	1392.631	1410.1229	1412.9157	1428.4314	1448.702	1475.7575	1477.0949	1486.1175	1491.3229	1496.1781	2368.1331	2988.2604	3029.0075	3041.0047	3081.1111	3088.1177	3090.1952	3093.1889	3104.1207	3141.4077	3794.8527
CC#CC1(CO)OC1C	CC#C[C@@]1(CO)O[C@H]1C	
InChI=1S/C7H10O2/c1-3-4-7(5-8)6(2)9-7/h6,8H,5H2,1-2H3	InChI=1S/C7H10O2/c1-3-4-7(5-8)6(2)9-7/h6,8H,5H2,1-2H3/t6-,7-/m0/s1
