17
gdb 89229	3.14804	1.60244	1.29626	1.7192	66.08	-0.23	0.0593	0.2893	975.1944	0.136564	-458.914797	-458.907545	-458.9066	-458.946139	29.697	
O	-0.0236575815	 1.4220969837	-0.0411334613	-0.443197
C	 0.0483971148	 0.0151163383	-0.0337954098	 0.16114
C	 0.7678624567	-0.5969113793	 1.213678244	-0.332565
C	-0.1619238567	-1.7052388274	 1.6890359209	 0.35638
O	 0.3352781184	-2.7944573241	 2.3981002895	-0.470792
C	-1.6252731357	-1.344255587	 1.908638413	 0.025727
O	-1.9508465461	-0.1022653941	 1.2748004564	-0.324828
C	-1.3467486773	-0.6179698442	 0.0311319122	 0.039726
C	-1.2034819911	-2.0227594133	 0.6363213697	-0.201537
H	-0.6278694284	 1.6510246837	 0.6785275438	 0.286543
H	 0.5594868055	-0.2744207525	-0.9579025661	 0.091283
H	 1.741149418	-1.0245733169	 0.957281729	 0.112071
H	 0.9313842465	 0.1832180859	 1.9643632058	 0.100559
H	 0.5389454468	-2.5030674659	 3.2938044323	 0.288365
H	-2.2227880569	-1.6743139223	 2.7507951305	 0.109876
H	-1.9956606523	-0.4426349126	-0.8273682152	 0.090792
H	-1.4252816204	-2.992501592	 0.2151844252	 0.110456
117.3429	257.7327	286.6367	339.3632	356.8355	422.9909	465.5675	503.3312	511.3314	587.0248	664.5944	761.1992	776.8468	830.6674	864.0519	891.8077	909.5787	931.2255	986.2007	1013.0926	1021.6666	1065.4864	1080.5034	1106.8361	1134.3774	1183.1053	1211.0394	1217.7264	1245.5178	1284.3033	1303.1192	1307.1365	1323.4632	1345.5082	1424.7033	1442.7814	1493.0885	3049.3238	3059.4639	3098.8501	3116.0709	3181.4351	3222.3951	3753.9233	3795.4528
OC1CC2(O)C3OC1C23	O[C@H]1C[C@@]2(O)[C@H]3O[C@@H]1[C@@H]23	
InChI=1S/C6H8O3/c7-2-1-6(8)3-4(2)9-5(3)6/h2-5,7-8H,1H2	InChI=1S/C6H8O3/c7-2-1-6(8)3-4(2)9-5(3)6/h2-5,7-8H,1H2/t2-,3+,4-,5-,6-/m0/s1
