17
gdb 90607	2.81947	1.38438	1.04531	1.4915	68.76	-0.2551	-0.0321	0.223	1122.7641	0.134766	-458.93819	-458.929734	-458.92879	-458.971347	31.76	
O	 0.4476985999	 0.6379057075	-1.0824168015	-0.423567
C	 0.0439322394	-0.2908908316	-0.1176356273	 0.156696
C	 0.235404834	 0.0015510877	 1.402606438	-0.304499
C	-1.148577183	-0.6688303055	 1.693912015	-0.152347
C	-1.4555003919	-0.569698613	 0.1315827008	-0.112901
C	-2.3405679236	 0.7018594503	 0.4035714147	 0.043592
O	-3.6085779352	 0.7779070968	-0.1754244124	-0.439819
C	-2.3264507388	 0.2628340622	 1.8794520173	 0.360833
O	-3.2096145018	 0.3373504781	 2.691050165	-0.323263
H	-0.0160922268	 1.4684703734	-0.9315806559	 0.285643
H	 0.5496847916	-1.2236778362	-0.3838085071	 0.104428
H	 1.0945956547	-0.4692600884	 1.882465538	 0.121866
H	 0.2557287859	 1.0702217369	 1.6355624212	 0.110714
H	-1.1386295199	-1.5928427465	 2.2698030669	 0.099492
H	-1.9821378971	-1.3449597441	-0.4229003625	 0.096105
H	-1.7907176382	 1.6362122591	 0.2169712311	 0.078147
H	-4.2475108291	 0.6748074233	 0.5427325288	 0.29888
73.2551	149.8795	185.7212	223.666	263.5749	281.2983	352.637	401.3328	410.9119	539.9251	595.1805	679.1719	741.9431	793.2047	842.305	859.5453	891.0365	933.8271	1017.8336	1025.2822	1053.5071	1077.8773	1116.3138	1127.8922	1154.4178	1181.9427	1216.0573	1230.7655	1252.5725	1274.5022	1293.9265	1315.6995	1355.685	1395.9181	1436.593	1483.7317	1855.1587	2984.0987	3062.4377	3071.3024	3122.6272	3130.4721	3138.0644	3755.1525	3807.0051
OC1CC2C1C(O)C2=O	O[C@H]1C[C@@H]2[C@H]1[C@@H](O)C2=O	
InChI=1S/C6H8O3/c7-3-1-2-4(3)6(9)5(2)8/h2-4,6-7,9H,1H2	InChI=1S/C6H8O3/c7-3-1-2-4(3)6(9)5(2)8/h2-4,6-7,9H,1H2/t2-,3+,4-,6-/m1/s1
