13
gdb 132411	3.79337	1.12532	0.86786	2.5274	70.08	-0.2626	-0.0824	0.1802	1190.5	0.089695	-460.775537	-460.768526	-460.767582	-460.807385	25.836	
F	-0.0106423931	 0.0254915909	 0.0032857183	-0.066728
C	-0.02836426	 1.3577443299	 0.0106805909	 0.263987
C	-1.230982488	 2.0409180775	 0.0309031387	-0.310961
C	-1.1799733798	 3.4351824779	 0.0376861698	 0.16034
C	-2.4302985165	 4.2316846016	 0.0591736524	 0.102923
O	-2.471810081	 5.4380177716	 0.0662232223	-0.257539
C	 0.0729940779	 4.061222025	 0.023799233	-0.038958
N	 1.22561648	 3.3946506768	 0.0043539449	-0.259476
C	 1.1726743549	 2.0600467522	-0.0020825167	-0.086668
H	-2.1736416738	 1.5027897088	 0.0409907274	 0.131972
H	-3.3612626136	 3.6211703812	 0.0687150154	 0.080017
H	 0.1226247794	 5.1454828461	 0.028936336	 0.145741
H	 2.1127201338	 1.5149741104	-0.0179477209	 0.13535
106.9687	192.8655	229.0312	253.2538	372.5012	454.1988	459.4709	541.3668	551.7747	660.6975	724.0774	777.7335	922.5286	946.3069	977.7676	988.5659	1038.9015	1042.8447	1158.0472	1185.0171	1288.8727	1309.9407	1331.2163	1416.9034	1464.9787	1489.5356	1610.996	1638.7194	1806.6773	2879.1438	3172.4573	3187.7802	3190.3977
FC1=CC(C=O)=CN=C1	Fc1cc(C=O)cnc1	
InChI=1S/C6H4FNO/c7-6-1-5(4-9)2-8-3-6/h1-4H	InChI=1S/C6H4FNO/c7-6-1-5(4-9)2-8-3-6/h1-4H
