16
gdb 129798	3.32615	1.5925	1.10146	4.6876	71.95	-0.1942	0.0144	0.2087	1051.0243	0.128689	-430.231766	-430.224356	-430.223412	-430.263729	27.957	
N	 0.0383878933	 1.4368423308	 0.1860546158	-0.603899
C	-0.0652576133	 0.0498532186	 0.0245702096	 0.191485
C	-1.177524642	-0.7646812748	-0.0062292783	 0.309374
N	-2.5836247756	-0.7647456764	-0.0142770226	-0.427112
C	-2.9541511132	-2.1743171354	-0.3288672214	-0.180065
C	-1.6840095151	-3.05016237	-0.08579956	-0.188056
N	-0.6681185781	-2.0131442386	-0.1124207774	 0.070493
N	 0.668894523	-2.0231046581	-0.1292892655	-0.197133
N	 1.0321208745	-0.7595880249	-0.0489609605	-0.255927
H	 1.0092314519	 1.7144995942	 0.0966515728	 0.251556
H	-0.5163883598	 1.94860316	-0.4906661869	 0.245813
H	-2.9719547308	-0.4553228128	 0.8707701536	 0.246618
H	-3.8066391499	-2.4961198539	 0.2713769604	 0.124585
H	-3.2405669578	-2.2322154439	-1.3835191658	 0.135253
H	-1.6852166675	-3.5608181419	 0.8837120651	 0.132894
H	-1.5297480896	-3.789251483	-0.8737824488	 0.144121
110.1733	156.8913	218.102	247.0837	272.6706	358.7237	510.4252	606.0173	638.6019	656.3488	698.238	750.7664	774.0177	819.041	869.0668	907.6837	935.6639	995.3052	1094.1741	1105.1916	1137.1186	1196.4815	1229.174	1248.6153	1284.3729	1306.7856	1340.6793	1368.9612	1390.2643	1420.3366	1498.5623	1514.1985	1535.8302	1640.9511	1675.0364	3043.8951	3056.2769	3114.5786	3126.4683	3512.6917	3515.8202	3606.5705
NC1=C2NCCN2N=N1	Nc1c2NCCn2nn1	
InChI=1S/C4H7N5/c5-3-4-6-1-2-9(4)8-7-3/h6H,1-2,5H2	InChI=1S/C4H7N5/c5-3-4-6-1-2-9(4)8-7-3/h6H,1-2,5H2
