18
gdb 69138	2.767	1.65716	1.29823	4.3129	75.39	-0.2462	-0.0114	0.2347	1020.6482	0.148497	-401.940151	-401.932577	-401.931633	-401.971881	30.174	
C	-0.0681576024	 1.5054927716	-0.0148411628	-0.493263
C	 0.0093181593	-0.0017366924	 0.0215719144	 0.343578
C	-0.5409700222	-0.7735070935	 1.184329069	-0.346518
C	 0.9580666543	-0.7717425938	 0.918677306	-0.186989
C	 1.4739939212	-1.9464884522	 0.1208183435	 0.380694
O	 2.1756247485	-2.835712463	 0.5173733839	-0.317116
N	 1.0497854095	-1.8232511627	-1.2531051785	-0.127752
C	-0.373812888	-2.1143704818	-1.5404903389	-0.268564
C	 0.087430289	-0.7173294901	-1.3259771978	-0.08643
H	 0.7389177938	 1.9291744144	-0.6225835102	 0.128397
H	-1.0205176641	 1.8410143954	-0.4410238801	 0.126939
H	 0.0122578127	 1.9277183157	 0.9910810047	 0.123118
H	-0.8575357974	-0.1943026222	 2.0457329165	 0.124226
H	-1.117443498	-1.6793706509	 1.0396073354	 0.124671
H	 1.6166728721	-0.3222987646	 1.6523807422	 0.111295
H	-0.5626825544	-2.4702259385	-2.5497004944	 0.131544
H	-0.9588626333	-2.6151595891	-0.7764663752	 0.132496
H	 0.1917389991	-0.0684885225	-2.1923338978	 0.099674
121.5449	201.5365	212.0998	281.5282	310.8848	380.1959	447.6142	485.1597	573.4903	626.0949	683.8491	745.5826	764.0261	822.5788	864.6225	874.1531	929.1713	971.2604	977.1273	1022.5973	1039.6424	1060.2556	1068.4475	1084.9129	1114.7613	1120.7538	1155.3826	1165.4016	1225.7307	1278.2409	1293.4633	1352.846	1415.2465	1425.3556	1489.0306	1494.7455	1501.3625	1522.1683	1851.4555	3028.6276	3090.0718	3107.9635	3119.243	3134.5272	3137.5042	3184.7017	3206.1433	3219.3484
CC12CC1C(=O)N1CC21	C[C@]12C[C@H]1C(=O)N1C[C@@H]21	
InChI=1S/C7H9NO/c1-7-2-4(7)6(9)8-3-5(7)8/h4-5H,2-3H2,1H3	InChI=1S/C7H9NO/c1-7-2-4(7)6(9)8-3-5(7)8/h4-5H,2-3H2,1H3/t4-,5-,7-,8?/m0/s1
