20
gdb 15667	3.22447	1.61576	1.19404	1.577	75.65	-0.2497	0.0123	0.2619	1060.9094	0.17762	-349.018903	-349.010525	-349.009581	-349.051691	31.767	
C	-0.1245966519	 1.6890861955	-0.2218922755	-0.3868
C	-0.2765028912	 0.1646824044	-0.221635518	-0.172107
C	 0.7697922948	-0.5513355286	-1.0782253786	 0.00057
C	 2.2431517397	-0.390641093	-0.6137204885	-0.272546
C	 2.8658183692	-1.7192175147	-0.9678285845	-0.063088
C	 1.9588773575	-2.6262272818	-1.3319154141	-0.110296
C	 0.5520239884	-2.0921694283	-1.2068254311	 0.072285
O	-0.1359660336	-2.6972850802	-0.1074485759	-0.427559
H	 0.8461102313	 1.998864193	 0.1803084171	 0.114243
H	-0.2051545554	 2.0959561378	-1.236462557	 0.111537
H	-0.9001308793	 2.1629724434	 0.3880105766	 0.111075
H	-0.2238672198	-0.2136357287	 0.8061302356	 0.088967
H	-1.2763210001	-0.1045678845	-0.5826358113	 0.100351
H	 0.7114006785	-0.1518923282	-2.099350591	 0.074263
H	 2.7455209206	 0.4497300099	-1.1055173881	 0.10811
H	 2.3206598493	-0.1967124846	 0.4666118494	 0.102116
H	 3.9356444249	-1.893668268	-0.9122588556	 0.095824
H	 2.1617598375	-3.6564350743	-1.6027116276	 0.095985
H	-0.0805827989	-2.3239479354	-2.0700010162	 0.083053
H	 0.4813689687	-2.7309382738	 0.6317237943	 0.274016
86.6529	102.2972	181.2296	230.7884	276.6134	302.3371	343.7488	402.8133	494.8634	509.9934	705.6081	746.2114	780.5667	786.4381	803.505	917.	951.1227	958.9738	974.5724	984.4838	1009.1042	1051.0501	1080.7164	1125.3977	1134.3163	1155.8158	1191.508	1241.8193	1270.9953	1294.8548	1314.1395	1318.7165	1346.9081	1379.5057	1385.9259	1411.1892	1431.1622	1478.9803	1489.5974	1501.6597	1507.5923	1678.9741	2999.1479	3013.0596	3028.2411	3031.4653	3055.0003	3057.4964	3064.318	3095.7782	3100.6183	3176.6389	3205.0366	3799.6359
CCC1CC=CC1O	CC[C@H]1CC=C[C@H]1O	
InChI=1S/C7H12O/c1-2-6-4-3-5-7(6)8/h3,5-8H,2,4H2,1H3	InChI=1S/C7H12O/c1-2-6-4-3-5-7(6)8/h3,5-8H,2,4H2,1H3/t6-,7+/m0/s1
