19
gdb 109286	3.25551	1.04709	0.82966	2.9369	78.42	-0.2332	-0.01	0.2233	1368.1932	0.158996	-423.057889	-423.048883	-423.047939	-423.0922	33.05	
O	 0.1092172023	 1.4189606382	-0.1541403859	-0.41491
C	 0.0147160206	 0.0167715981	-0.0020003332	-0.140042
C	-1.4253380904	-0.4185742957	 0.0564848616	 0.254394
C	-2.4398220402	 0.4456455978	 0.0249151075	-0.132435
C	-3.8883211268	 0.0413885152	 0.081679306	-0.267274
C	-4.0970610238	-1.4346691305	-0.3098052411	-0.301042
C	-3.0815937612	-2.3289166451	 0.3743862397	 0.387275
O	-3.3847291568	-3.3065132429	 1.0167997896	-0.309969
C	-1.6268006159	-1.9124888031	 0.181505445	-0.398099
H	 1.0388430599	 1.6607882076	-0.1286562154	 0.291315
H	 0.511402981	-0.5114845787	-0.8365581105	 0.092203
H	 0.5245402804	-0.3216841543	 0.917843983	 0.097069
H	-2.2164181882	 1.5051351375	-0.0381687675	 0.11108
H	-4.2837256825	 0.2156178031	 1.0928981331	 0.122212
H	-4.4834457945	 0.6828610912	-0.5786503651	 0.111598
H	-5.10208457	-1.7902253927	-0.072953319	 0.117771
H	-3.9431069163	-1.5322775382	-1.3933949892	 0.119855
H	-1.2549867365	-2.4221690137	-0.722425666	 0.130085
H	-1.0467494411	-2.3312263337	 1.0126377773	 0.128914
57.9933	95.8118	128.4514	211.4286	214.272	249.7462	351.5487	397.6083	430.9796	474.5574	542.5559	573.6562	684.2295	764.3114	808.5357	832.5933	910.548	928.3745	967.561	1023.6079	1065.5833	1068.0229	1076.4227	1137.0462	1150.1914	1204.7574	1215.2297	1227.7929	1250.1576	1262.7457	1311.3638	1331.5527	1370.4055	1375.5656	1445.7046	1462.7043	1467.6248	1488.4517	1508.6457	1749.1055	1821.2859	2933.4097	2948.6848	2984.9543	3005.3233	3021.997	3052.1936	3054.9527	3113.0262	3194.001	3844.0139
OCC1=CCCC(=O)C1	OCC1=CCCC(=O)C1	
InChI=1S/C7H10O2/c8-5-6-2-1-3-7(9)4-6/h2,8H,1,3-5H2	InChI=1S/C7H10O2/c8-5-6-2-1-3-7(9)4-6/h2,8H,1,3-5H2
