18
gdb 63842	2.68338	1.49846	1.21129	2.9633	71.82	-0.2313	-0.0334	0.1979	1067.3831	0.145438	-439.051407	-439.042796	-439.041852	-439.084792	32.705	
C	 0.2099438767	 1.5157625483	-0.1868533446	-0.458584
C	 0.0240534479	 0.0129381433	-0.0350871833	 0.388367
O	-1.3493716758	-0.3308367863	-0.00558731	-0.473086
C	 0.8855718784	-0.9210714342	-0.9460776954	-0.222035
N	 1.4546096448	-1.6477245556	 0.2349222492	-0.126659
C	 2.7785195409	-1.1133059528	 0.6804363439	-0.308458
C	 2.0627209814	-0.1432157677	 1.6420754021	 0.3933
O	 2.4059314713	 0.6785311063	 2.4381153888	-0.287897
C	 0.7132747817	-0.7017511149	 1.1628093676	-0.151321
H	 1.2637655534	 1.805284349	-0.1582372962	 0.12808
H	-0.1993305261	 1.8500575714	-1.1487351437	 0.110231
H	-0.314344428	 2.0461054317	 0.6132859503	 0.14044
H	-1.7751352867	 0.0704289343	-0.7716575126	 0.279183
H	 0.2814357928	-1.5794853788	-1.5760668605	 0.111469
H	 1.6368833678	-0.4176612825	-1.5662680778	 0.096076
H	 3.3845684516	-1.8686262085	 1.1932993495	 0.140658
H	 3.3925607919	-0.6479650242	-0.0996778054	 0.127216
H	 0.0348976561	-1.1111607688	 1.9149665581	 0.11302
52.0128	116.9833	226.8853	240.9851	250.0305	342.2009	367.8967	377.4484	432.0189	467.2236	540.4387	598.8074	687.8149	752.9734	849.1264	866.6841	902.672	941.43	960.6683	962.5558	979.0518	1043.3741	1083.4943	1104.8629	1157.3842	1165.9392	1172.2736	1197.7783	1212.446	1255.1387	1274.5084	1296.5893	1368.9185	1411.7063	1451.2257	1485.5932	1489.3216	1490.1615	1896.5966	3023.9967	3027.7372	3033.0838	3080.0178	3092.0295	3093.1256	3097.227	3123.6217	3795.7605
CC1(O)CN2CC(=O)C12	C[C@@]1(O)CN2CC(=O)[C@@H]12	
InChI=1S/C6H9NO2/c1-6(9)3-7-2-4(8)5(6)7/h5,9H,2-3H2,1H3	InChI=1S/C6H9NO2/c1-6(9)3-7-2-4(8)5(6)7/h5,9H,2-3H2,1H3/t5-,6+/m0/s1
