17
gdb 54801	2.58415	1.61147	1.08158	0.8519	76.14	-0.2504	-0.0136	0.2368	1104.289	0.13559	-418.009367	-418.001042	-418.000098	-418.04263	30.946	
C	 0.0108943148	 1.440649326	 0.1494864927	-0.501644
C	 0.0199469779	-0.06884393	 0.0150527131	 0.376225
O	 1.0251688418	-0.745331376	 0.065151592	-0.337715
N	-1.2112391202	-0.6578423342	-0.2144156684	-0.13886
C	-1.5112116836	-2.0911864072	-0.1716899167	 0.00312
C	-2.1248777142	-2.4408759488	 1.1415687882	-0.285421
C	-2.9775419962	-1.7500051422	 0.0788224448	-0.161434
C	-2.5868245096	-0.3030998529	-0.0227947895	 0.400097
N	-3.2557141556	 0.7637355856	-0.0075732654	-0.550047
H	 1.0286381549	 1.7753486949	 0.3484875949	 0.152213
H	-0.3494700879	 1.9091221923	-0.7721259248	 0.148225
H	-0.6455920489	 1.7576926437	 0.966582018	 0.146738
H	-1.0653224603	-2.774078178	-0.879687914	 0.133804
H	-2.3653031558	-3.4894738772	 1.2884723344	 0.132828
H	-1.828281594	-1.9089917997	 2.0400530041	 0.132105
H	-3.8726646078	-2.1893636181	-0.3345553029	 0.124958
H	-2.6778004251	 1.5914308915	-0.1473583504	 0.224808
83.2976	99.9361	158.1653	187.7226	216.8254	367.6211	372.4758	464.4648	577.1826	605.7352	641.4713	670.947	743.6947	806.7711	852.2482	863.9756	916.0685	946.3029	960.8705	1013.8957	1036.9404	1055.3938	1069.587	1081.1278	1111.405	1159.3774	1187.2903	1223.5931	1296.2118	1327.3889	1372.8148	1400.3923	1472.6173	1480.7814	1482.3057	1786.0751	1794.5893	3042.3747	3107.3173	3125.9812	3161.3854	3215.3668	3231.2702	3242.8978	3503.1919
CC(=O)N1C2CC2C1=N	CC(=O)N1[C@H]2C[C@H]2[C]1[NH]	
InChI=1S/C6H8N2O/c1-3(9)8-5-2-4(5)6(8)7/h4-5,7H,2H2,1H3	InChI=1S/C6H8N2O/c1-3(9)8-5-2-4(5)6(8)7/h4-5,7H,2H2,1H3/t4-,5+/m1/s1
