21
gdb 120515	5.73436	0.65119	0.62494	5.1232	84.46	-0.2472	0.0181	0.2653	1821.9062	0.182811	-383.268536	-383.258825	-383.257881	-383.303991	35.109	
C	-0.2772091832	 1.6639014006	-0.4826712326	-0.38077
C	-0.0988909538	 0.2053205823	-0.0527138031	-0.170218
C	-1.4289072454	-0.5450796756	 0.0897953688	-0.188094
C	-1.266631002	-1.9982764142	 0.5327922036	 0.054283
C	-2.5678201951	-2.8444362689	 0.4884507802	-0.270231
C	-1.9934454156	-3.4783421469	-0.8131069474	-0.108238
N	-0.6658024652	-2.9310815342	-0.4626823664	-0.314079
C	-2.0492531098	-4.935764129	-0.9449443105	 0.290105
N	-2.1137346245	-6.0849705309	-1.0498439095	-0.324025
H	 0.6871534685	 2.1726256194	-0.5739280457	 0.117491
H	-0.7834919505	 1.733005214	-1.4518972504	 0.115657
H	-0.8799424256	 2.219175764	 0.2443461467	 0.117768
H	 0.5421787805	-0.309825425	-0.7808380079	 0.094886
H	 0.4393215048	 0.1644461557	 0.9030443498	 0.104352
H	-2.0579366562	-0.0293953753	 0.8288474224	 0.101425
H	-1.9801562136	-0.5071808048	-0.8611264934	 0.090829
H	-0.7305949728	-2.027140958	 1.489114794	 0.082208
H	-2.6522043035	-3.5632121622	 1.3032132671	 0.133564
H	-3.5061865483	-2.3002578944	 0.3770646816	 0.117457
H	-2.4493528896	-3.0431516166	-1.7125540324	 0.112194
H	-0.1580751093	-2.50409316	-1.230355215	 0.223438
47.9808	89.6361	94.0166	141.3654	198.4623	227.9838	249.6427	323.3504	374.9916	460.6044	541.5468	560.6613	630.5652	743.3662	777.1962	828.751	871.1215	912.908	931.0391	981.8692	993.2276	1001.7129	1048.0404	1073.1109	1104.3825	1110.5103	1143.6636	1176.7769	1241.8049	1254.0601	1261.7551	1284.1292	1320.7133	1331.9262	1350.3702	1369.5872	1391.307	1414.4941	1423.1987	1476.7519	1488.3003	1491.3596	1499.5303	1509.1821	2356.2262	2998.3837	3008.2895	3012.8934	3023.501	3031.375	3034.5457	3055.7034	3093.0338	3097.51	3105.8849	3154.076	3526.1759
CCCC1CC(N1)C#N	CCC[C@H]1C[C@@H](N1)C#N	
InChI=1S/C7H12N2/c1-2-3-6-4-7(5-8)9-6/h6-7,9H,2-4H2,1H3	InChI=1S/C7H12N2/c1-2-3-6-4-7(5-8)9-6/h6-7,9H,2-4H2,1H3/t6-,7+/m0/s1
