25
gdb 112741	2.35674	1.19895	0.92178	0.1357	93.21	-0.2582	0.0863	0.3445	1428.3508	0.228267	-352.344382	-352.334351	-352.333406	-352.379198	38.566	
C	-1.3035998609	 2.4939094294	-1.5877314616	-0.382675
C	-0.9053882775	 1.2904695126	-0.72672216	-0.194725
C	-1.7675998281	 0.0611623477	-0.9861864189	-0.026502
C	-1.6137919578	-0.6783069448	-2.3499487859	-0.248678
C	-1.6638809482	-2.0447923965	-1.6045706302	-0.033485
C	-0.6920570581	-3.1362087277	-2.0270465172	-0.410697
C	-1.4254869495	-1.2719377339	-0.2925073559	 0.345779
C	-0.2904913254	-1.4973421171	 0.6684691888	-0.319824
C	-1.7225597563	-1.7005590253	 1.110827862	-0.33036
H	-0.6618114913	 3.3575237898	-1.3872939703	 0.10966
H	-1.2240408462	 2.2606060554	-2.6549909586	 0.118464
H	-2.3389357494	 2.7948059819	-1.3921932688	 0.112624
H	 0.1459420633	 1.0355350344	-0.9126338832	 0.092529
H	-0.9707151966	 1.5664529608	 0.3348090148	 0.090764
H	-2.8218683145	 0.314097857	-0.8103572715	 0.063045
H	-2.372377747	-0.4964373231	-3.1150160467	 0.091424
H	-0.6254572025	-0.4997867224	-2.7887281034	 0.092537
H	-2.6872196764	-2.4407102981	-1.6180915752	 0.067495
H	 0.3388276807	-2.7660452296	-2.0345290573	 0.112869
H	-0.7335961553	-3.9989248179	-1.3517699061	 0.110967
H	-0.9254577718	-3.4975142807	-3.0348483629	 0.112049
H	 0.3323614197	-2.3763334111	 0.536155683	 0.107831
H	 0.2431470212	-0.6325662198	 1.04956332	 0.10876
H	-2.1561541758	-0.9724133236	 1.7902901418	 0.105022
H	-2.0667150965	-2.7178373374	 1.2742279633	 0.105129
62.4616	97.1203	151.8574	198.5965	217.5439	229.8854	248.0368	286.5465	331.2086	418.6978	460.3362	492.6752	534.9341	696.9469	761.3041	783.9782	804.5583	870.7836	885.3035	914.4161	919.5191	952.3722	955.3032	982.1596	999.7025	1047.7856	1057.1179	1076.3538	1100.6003	1102.8902	1147.6391	1178.8405	1182.3299	1190.3683	1217.5379	1254.8837	1275.0975	1286.6763	1295.3545	1340.7574	1360.7103	1370.6378	1399.6795	1407.9166	1411.4299	1462.9915	1483.7605	1491.6946	1492.827	1497.931	1499.5375	1505.253	1507.539	3008.0252	3008.948	3019.1268	3022.9952	3030.0242	3039.9764	3046.1688	3085.8062	3094.9082	3096.8215	3101.1506	3102.5212	3113.3073	3125.1927	3190.8387	3209.4201
CCC1CC(C)C11CC1	CC[C@H]1C[C@@H](C)C21CC2	
InChI=1S/C9H16/c1-3-8-6-7(2)9(8)4-5-9/h7-8H,3-6H2,1-2H3	InChI=1S/C9H16/c1-3-8-6-7(2)9(8)4-5-9/h7-8H,3-6H2,1-2H3/t7-,8+/m1/s1
