19
gdb 40343	3.77777	1.30973	1.24158	1.1308	79.21	-0.2211	0.0707	0.2918	1082.472	0.161714	-381.960143	-381.952838	-381.951894	-381.992311	28.918	
C	 0.5026676586	 1.551147093	 0.1790341091	-0.231126
N	 1.2202140199	 0.3565919013	-0.2943139528	-0.311971
C	-0.1956214096	 0.2390416759	 0.104399879	-0.228708
C	-0.441412714	-0.5858048258	 1.2984084237	 0.475333
C	 0.350496626	-0.9258983518	 2.5250467224	-0.141304
C	-0.7932151436	-0.3996289661	 3.3731348945	-0.177606
N	-1.7230993273	-0.5746895457	 2.1859880846	-0.217997
C	-1.7356755267	-2.08533709	 2.0431943398	-0.176716
C	-0.2720078213	-2.0377455627	 1.6485145066	-0.142281
H	 0.8344432611	 1.9261662262	 1.1425590728	 0.120578
H	 0.2258033634	 2.3168172148	-0.5406422777	 0.113769
H	 1.2889868891	 0.3712161988	-1.3081699904	 0.235405
H	-0.9341517587	 0.1325522679	-0.6889753519	 0.08805
H	 1.4223130465	-0.8546496947	 2.6578944015	 0.100721
H	-1.1021444983	-0.9419268365	 4.2745290849	 0.094437
H	-0.6968476828	 0.6650150705	 3.6020023263	 0.106574
H	-2.0417973036	-2.6226991643	 2.9483271621	 0.094408
H	-2.3908645265	-2.3649054941	 1.2136543793	 0.104668
H	 0.3507501878	-2.7724694668	 1.1537763363	 0.093766
66.4835	137.6202	164.1168	320.0749	393.64	489.0753	498.0687	622.1311	732.8824	783.0236	811.795	853.0853	861.4738	890.496	911.5591	916.3794	926.9422	951.7237	969.1573	976.4517	1008.9616	1031.7991	1081.7463	1091.3601	1092.2133	1110.0981	1119.3194	1157.0835	1172.1315	1192.8221	1236.9077	1246.9378	1257.2547	1285.6584	1296.3975	1300.8408	1401.3824	1496.5511	1503.1128	1513.1308	1526.7775	3027.6141	3037.1872	3092.6377	3096.4982	3110.6335	3114.666	3193.0159	3200.6086	3203.7978	3509.0055
C1NC1C12C3CN1CC23	C1N[C@H]1[C@@]12[C@H]3CN1C[C@@H]23	
InChI=1S/C7H10N2/c1-6(8-1)7-4-2-9(7)3-5(4)7/h4-6,8H,1-3H2	InChI=1S/C7H10N2/c1-6(8-1)7-4-2-9(7)3-5(4)7/h4-6,8H,1-3H2/t4-,5+,6-,7-/m1/s1
