24
gdb 123036	5.26401	0.52849	0.50384	1.9811	88.34	-0.2219	0.0873	0.3092	2265.7331	0.215237	-405.507207	-405.496154	-405.495209	-405.544707	38.776	
C	 0.1761124415	 1.3476380275	 0.1696869389	-0.226435
O	 0.0633820952	-0.0509860687	 0.2529488041	-0.229102
C	-1.2209416594	-0.5201831524	-0.0960124552	-0.050617
C	-1.2312271317	-2.0378532187	 0.0194525209	-0.19167
C	-2.5939403901	-2.6446727579	-0.3188987911	-0.144465
N	-2.5227755014	-4.0989682746	-0.2371171318	-0.079168
C	-2.866989363	-4.7277068171	 1.0348911886	-0.25413
C	-3.7490025392	-4.8952941356	-0.1560560392	 0.030443
C	-5.1393663769	-4.2981839326	-0.2008153516	-0.411927
H	 1.1966124094	 1.6130909422	 0.4570611261	 0.125399
H	-0.0112642198	 1.7149142143	-0.852487345	 0.100977
H	-0.5273184964	 1.857749203	 0.8479263709	 0.100056
H	-1.9833410248	-0.0743626979	 0.5681079519	 0.079448
H	-1.4754215089	-0.208369815	-1.1249881379	 0.081525
H	-0.4713914167	-2.4588510772	-0.6464105621	 0.116933
H	-0.947658395	-2.3158087883	 1.0412128224	 0.107499
H	-3.3611331669	-2.2098266788	 0.344826956	 0.079333
H	-2.8746771683	-2.3797471025	-1.346486617	 0.099934
H	-2.2116926821	-5.5269101184	 1.372065955	 0.111882
H	-3.2415817426	-4.0846056731	 1.8322428267	 0.101315
H	-3.6643856676	-5.8302335261	-0.7097126264	 0.088308
H	-5.2403679692	-3.4174804574	 0.4377065175	 0.12027
H	-5.4152066155	-4.0117789454	-1.2220258088	 0.121912
H	-5.8703938106	-5.0385553592	 0.1411655072	 0.12228
48.6335	59.2505	83.7064	110.968	133.784	171.6662	213.3893	234.4826	255.2034	336.2965	367.6612	439.6964	460.7509	552.3254	754.0137	773.8794	814.6213	883.2675	906.7819	947.502	984.7853	1032.2052	1049.1461	1067.3442	1085.1083	1113.5159	1144.5028	1148.5777	1166.9755	1175.5536	1189.0606	1199.2008	1226.2723	1241.3805	1293.8066	1304.0613	1316.9254	1338.9868	1395.7605	1408.0838	1421.6425	1429.1474	1481.4575	1485.0738	1487.4905	1493.118	1498.2319	1501.758	1507.5298	1516.7952	1533.5899	2933.6764	2947.9239	2959.0013	2965.147	3005.1416	3034.0833	3034.7883	3046.9604	3079.7205	3091.8816	3095.3052	3097.0668	3111.0059	3123.5504	3167.806
COCCCN1CC1C	COCCCN1C[C@H]1C	
InChI=1S/C7H15NO/c1-7-6-8(7)4-3-5-9-2/h7H,3-6H2,1-2H3	InChI=1S/C7H15NO/c1-7-6-8(7)4-3-5-9-2/h7H,3-6H2,1-2H3/t7-,8?/m1/s1
