15
gdb 54647	4.02388	1.10131	0.87394	2.3995	68.59	-0.2566	-0.0806	0.176	1252.4666	0.111961	-454.019842	-454.011429	-454.010484	-454.053757	29.843	
C	-0.01239502	 1.4965399396	 0.0003615198	-0.479325
C	-0.018972275	-0.0085403481	 0.0077302706	 0.340933
O	-0.0335094766	-0.6894255029	 1.0107094692	-0.306485
C	-0.0018397482	-0.6995290033	-1.3244578326	 0.282482
N	 0.0109713091	-0.1116620496	-2.4645422717	-0.290407
C	 0.0246992739	-1.1862441011	-3.4596125555	-0.308803
C	 0.0158388933	-2.5133136896	-2.6797704726	 0.407508
O	 0.0223332947	-3.6489022099	-3.0779486679	-0.351141
N	 0.0008311401	-2.0845485168	-1.3552627861	-0.367734
H	 0.8879750862	 1.8625933223	-0.503089877	 0.161628
H	-0.8609988051	 1.8735981335	-0.5781700791	 0.161894
H	-0.0512670915	 1.8654645198	 1.0252238512	 0.145311
H	-0.8466072479	-1.1171564225	-4.1202173076	 0.160167
H	 0.912813749	-1.1155550711	-4.0973203185	 0.160251
H	-0.0097118923	-2.6685118002	-0.5337925622	 0.283722
55.5643	97.1626	125.5833	168.2265	221.5715	336.0588	447.2042	463.5808	538.2174	563.7868	583.3438	610.5721	690.4662	723.1332	873.21	933.4727	967.3914	982.7277	1026.0806	1045.3509	1109.7843	1173.6356	1206.5687	1265.5197	1293.231	1385.2632	1428.5216	1452.4741	1459.998	1461.4254	1670.3671	1792.9013	1861.959	3052.953	3054.1314	3089.1044	3115.6309	3165.2787	3653.6153
CC(=O)C1=NCC(=O)N1	CC(=O)C1=NCC(=O)N1	
InChI=1S/C5H6N2O2/c1-3(8)5-6-2-4(9)7-5/h2H2,1H3,(H,6,7,9)	InChI=1S/C5H6N2O2/c1-3(8)5-6-2-4(9)7-5/h2H2,1H3,(H,6,7,9)
