18
gdb 6710	5.71911	0.82843	0.786	5.4128	69.45	-0.2413	0.0262	0.2675	1441.6413	0.152724	-381.119559	-381.110126	-381.109182	-381.154554	33.024	
C	-0.0289247969	 1.4211348845	-0.1324418797	-0.407254
C	-0.2883868718	-0.0807333597	-0.0580938644	 0.125867
O	 0.7646456364	-0.7729821285	 0.6139622435	-0.428801
C	-1.6362522715	-0.4076748931	 0.6122108736	-0.162909
N	-1.9111981969	-1.8314018693	 0.7810723388	-0.284073
C	-2.2837156726	-2.5142924891	-0.453891188	-0.274343
C	-2.6032403202	-3.9221164838	-0.1946022955	 0.264066
N	-2.8371113229	-5.0367807215	-0.0031792297	-0.299986
H	 0.9475505163	 1.6190680274	-0.5820874111	 0.131761
H	-0.7946245203	 1.9262782395	-0.7300373386	 0.123118
H	-0.0428629496	 1.8685345707	 0.8697671216	 0.112239
H	-0.2763517372	-0.4959284844	-1.07355894	 0.092446
H	 0.915023646	-0.3316670525	 1.4582536011	 0.280751
H	-1.6452899288	 0.0543587588	 1.609727803	 0.097918
H	-2.4593763353	 0.048822607	 0.0486514706	 0.10472
H	-1.0778264098	-2.2682604549	 1.1654446216	 0.234914
H	-3.1802474407	-2.0320622336	-0.8633857812	 0.153199
H	-1.5224286643	-2.4915232376	-1.2530580154	 0.136367
45.2186	66.3057	100.8157	188.5123	235.1042	241.1174	299.7335	329.4414	390.2	408.657	460.3384	500.5739	587.2684	767.6625	850.2143	888.9849	923.9513	954.6462	989.3619	1047.9163	1074.7996	1126.6187	1150.4119	1157.0303	1224.6192	1284.421	1322.9822	1337.5881	1387.539	1393.6742	1405.7059	1419.0037	1470.8632	1488.62	1492.401	1495.9422	1513.6366	2368.3807	2953.9138	3004.032	3023.9511	3037.3309	3048.5016	3061.6519	3095.1299	3120.7748	3513.0111	3789.3733
CC(O)CNCC#N	C[C@@H](O)CNCC#N	
InChI=1S/C5H10N2O/c1-5(8)4-7-3-2-6/h5,7-8H,3-4H2,1H3	InChI=1S/C5H10N2O/c1-5(8)4-7-3-2-6/h5,7-8H,3-4H2,1H3/t5-/m1/s1
