17
gdb 50210	3.9375	1.30711	1.17764	3.7027	71.13	-0.2382	-0.0208	0.2174	1049.6588	0.136912	-421.796619	-421.789571	-421.788627	-421.828573	27.496	
O	-0.0306520699	-0.0549003219	 0.084958112	-0.255183
C	 0.0138854105	 1.1492617664	 0.0776611997	 0.145319
C	 1.2891244379	 1.9614077946	 0.0189837904	-0.061784
C	 1.3125904995	 2.9528978598	-1.1885961995	-0.26784
C	 1.89646572	 4.2433575464	-0.6131388556	-0.085982
C	 1.1915712588	 4.8283394349	 0.5936351757	 0.102745
O	 0.3200640408	 3.8590669865	 1.1814301323	-0.307858
C	 1.4403983954	 2.9122444005	 1.2181599303	 0.061741
C	 2.4319290617	 4.0126935701	 0.7869899812	-0.158862
H	-0.9102660201	 1.765965974	 0.1136082857	 0.096109
H	 2.1352288949	 1.2678205311	-0.0133492533	 0.093412
H	 1.9289539025	 2.5609091776	-2.0011674121	 0.116872
H	 0.3058285109	 3.112352562	-1.5901080392	 0.116579
H	 2.4138615132	 4.9423639011	-1.2607807098	 0.096081
H	 0.9631784154	 5.8764008653	 0.7464077285	 0.109289
H	 1.5395949859	 2.4462265968	 2.1993809687	 0.095015
H	 3.4162963828	 4.2336032847	 1.1737617351	 0.104346
71.0744	117.9913	261.6569	333.7187	402.9243	460.6018	491.9233	685.6033	725.5828	768.0403	802.1733	807.9709	867.4307	878.9629	902.9326	962.9237	977.8014	983.9061	1007.7087	1028.3127	1044.6888	1073.7385	1086.2909	1112.7993	1123.1901	1198.8129	1219.8292	1245.4803	1267.0207	1274.1177	1297.3721	1317.666	1341.5279	1402.7237	1420.1152	1492.7566	1826.8551	2902.9892	3048.2562	3066.8157	3101.03	3110.5844	3178.9175	3188.1229	3216.579
O=CC1CC2C3OC1C23	O=C[C@H]1C[C@H]2[C@H]3O[C@@H]1[C@@H]23	
InChI=1S/C7H8O2/c8-2-3-1-4-5-6(3)9-7(4)5/h2-7H,1H2	InChI=1S/C7H8O2/c8-2-3-1-4-5-6(3)9-7(4)5/h2-7H,1H2/t3-,4-,5-,6+,7-/m1/s1
