18
gdb 97142	4.68269	1.00021	0.90818	2.9747	75.83	-0.2449	0.0273	0.2721	1313.6994	0.146843	-439.077862	-439.069148	-439.068204	-439.112445	31.361	
C	 0.2086295211	 1.4344677424	-0.0645158035	-0.334167
N	 0.2601978297	-0.0186362771	-0.0760564379	-0.323957
C	 0.5024370532	-0.6492391089	 0.9833043896	 0.440517
C	 0.5693742614	-2.1585492634	 1.1096938504	-0.410805
C	 1.2286858463	-2.3585737864	 2.4587779141	 0.389366
C	 1.5245219644	-3.6384054895	 3.0981864959	-0.254744
O	 2.5643974117	-2.8657310357	 2.4866502452	-0.261104
C	 0.9636336688	-1.0671543812	 3.2164404654	-0.142388
O	 0.7445036372	-0.0724382292	 2.2115809506	-0.252714
H	 0.9805290631	 1.8239486715	-0.7383210518	 0.125923
H	-0.7561646471	 1.7586790331	-0.4707914427	 0.123163
H	 0.3452928605	 1.8866994144	 0.9237612477	 0.122627
H	-0.4447384404	-2.5737643344	 1.0949744045	 0.136087
H	 1.1358639495	-2.6092766144	 0.2946929572	 0.153176
H	 1.570025807	-3.7067642973	 4.1850905624	 0.118043
H	 1.2673930805	-4.5666942751	 2.5894553014	 0.121801
H	 0.07141465	-1.1391819571	 3.8519332067	 0.114798
H	 1.8215348431	-0.7760757116	 3.8275978649	 0.134378
36.0094	62.6125	134.9341	208.2071	233.1333	296.3168	361.0084	381.1872	462.1421	570.1069	578.6069	688.4306	787.736	821.2613	857.3789	890.1119	945.6304	973.5671	1033.2249	1066.5482	1070.9144	1125.8439	1132.242	1135.4184	1160.8421	1182.8597	1199.8425	1233.2333	1261.9001	1268.3384	1362.7579	1438.6771	1444.2392	1459.3443	1495.3513	1496.9846	1507.3955	1539.9603	1810.8172	3018.6382	3021.4734	3051.8438	3076.8207	3078.1377	3090.9152	3103.3728	3137.5179	3162.944
CN=C1CC2(CO2)CO1	CN=C1C[C@]2(CO2)CO1	
InChI=1S/C6H9NO2/c1-7-5-2-6(3-8-5)4-9-6/h2-4H2,1H3	InChI=1S/C6H9NO2/c1-7-5-2-6(3-8-5)4-9-6/h2-4H2,1H3/t6-/m1/s1
