12
gdb 8964	5.49301	0.99379	0.84895	1.9688	63.08	-0.2801	-0.062	0.2181	1216.4427	0.083818	-373.71996	-373.711759	-373.710815	-373.753952	27.332	
N	-0.070151288	 1.3556231432	-0.1232390848	-0.522454
C	-0.0246990826	 0.082042809	-0.0215814711	 0.314549
N	-1.1605354176	-0.6754110346	 0.0609160354	-0.330082
C	-2.4480918777	-0.0091788119	 0.1532036691	-0.257167
C	-3.5360791837	-0.9709741338	-0.0172770988	 0.249967
N	-4.393805785	-1.734624372	-0.1356836245	-0.282373
C	 1.2053637982	-0.692682254	-0.0068029176	 0.236594
N	 2.2056918233	-1.2716517275	 0.0128623338	-0.308038
H	 0.8574034413	 1.7576758957	-0.2274698526	 0.250247
H	-1.089112968	-1.6332227594	 0.3629333848	 0.283012
H	-2.5731180538	 0.5154776694	 1.1110624388	 0.17169
H	-2.5013856164	 0.758205496	-0.6259302424	 0.194055
29.9884	93.5094	131.4656	208.1592	266.6334	314.9926	358.943	379.7856	484.4774	543.0435	625.1764	721.7902	829.47	889.1523	981.5303	1005.8197	1090.9404	1166.7638	1239.7199	1305.4383	1385.5164	1488.0309	1540.6086	1685.5958	2352.8627	2374.9644	3017.0852	3082.4253	3541.9902	3656.0003
N=C(NCC#N)C#N	N=C(NCC#N)C#N	
InChI=1S/C4H4N4/c5-1-2-8-4(7)3-6/h2H2,(H2,7,8)	InChI=1S/C4H4N4/c5-1-2-8-4(7)3-6/h2H2,(H2,7,8)
