20
gdb 12737	2.58082	2.15395	1.7527	1.7048	74.36	-0.2351	0.0777	0.3128	898.2653	0.176551	-348.983916	-348.975829	-348.974885	-349.016078	31.115	
C	-0.6480307052	 1.3752528106	 0.0686887065	-0.411875
C	 0.0418730589	 0.0304410755	-0.0314707318	 0.125178
O	 1.1884490561	 0.0427410029	-0.9230417655	-0.320058
C	 2.0148327237	-0.6371215547	 0.0432557667	 0.086042
C	 2.9037595794	 0.3342649343	 0.8461426246	-0.226748
C	 1.761826862	 0.4866798771	 1.8992407407	-0.29027
C	 0.8934974726	-0.554570788	 1.1256782999	 0.28388
C	 0.3260191206	-1.719298595	 1.9046090606	-0.501236
H	 0.0416029506	 2.1629120186	 0.382466176	 0.121956
H	-1.0561740108	 1.6567153232	-0.9073565041	 0.127367
H	-1.478980522	 1.3285730166	 0.7814372725	 0.11461
H	-0.6843443625	-0.7213191361	-0.3801565588	 0.065385
H	 2.4471606873	-1.5616805811	-0.3521511524	 0.066891
H	 3.8072989862	-0.1300774355	 1.2511385044	 0.097753
H	 3.1831818727	 1.2323827132	 0.2912803129	 0.108315
H	 2.0415343962	 0.1358649115	 2.8958818622	 0.100179
H	 1.3330420848	 1.4854981104	 2.005913308	 0.10033
H	-0.4705921296	-1.3871282641	 2.5822962274	 0.118557
H	-0.0990065148	-2.4787025745	 1.2389963822	 0.118003
H	 1.094504014	-2.202737575	 2.5177590781	 0.115741
74.9158	191.316	200.2924	216.5562	270.6782	319.8027	381.7214	397.752	511.4926	619.7414	638.2211	734.4559	804.6608	859.3149	868.3248	894.7752	913.2932	949.7795	990.2974	1026.953	1046.1128	1094.1075	1112.5736	1132.7748	1168.2307	1188.6984	1220.7251	1227.143	1257.6758	1268.658	1279.9036	1315.6768	1355.9964	1395.7647	1412.3497	1414.0434	1462.2111	1480.6485	1482.3194	1491.7992	1495.0833	1505.4689	2965.9888	3018.253	3036.2074	3051.1755	3059.7053	3067.5955	3080.1252	3092.5068	3103.2573	3104.7482	3120.0137	3124.9978
CC1OC2CCC12C	C[C@H]1O[C@H]2CC[C@@]12C	
InChI=1S/C7H12O/c1-5-7(2)4-3-6(7)8-5/h5-6H,3-4H2,1-2H3	InChI=1S/C7H12O/c1-5-7(2)4-3-6(7)8-5/h5-6H,3-4H2,1-2H3/t5-,6+,7+/m1/s1
