15
gdb 12330	2.90928	2.28669	1.443	1.3947	62.02	-0.2385	-0.0358	0.2027	852.7341	0.118957	-399.824357	-399.816816	-399.815872	-399.857402	26.667	
C	-0.2039499942	 1.4761288149	 0.0146079173	-0.381959
C	 0.0733225498	-0.0384157451	-0.0321969697	-0.066585
N	 0.788924363	-0.3793654482	-1.2574033669	-0.270225
C	 1.9208834256	-0.9333943649	-1.1997311182	 0.130364
O	 2.6706578567	-1.2820916632	-0.1269456374	-0.221463
C	 2.2338462692	-0.8282561328	 1.1567574796	-0.173925
C	 0.7535912729	-0.4801131744	 1.2549685365	 0.336015
O	 0.1926179361	-0.5116247208	 2.3236067114	-0.305295
H	 0.7312041132	 2.0412253812	 0.0834786467	 0.118883
H	-0.7138638954	 1.7761180934	-0.9036438441	 0.137876
H	-0.8283049112	 1.718965018	 0.8772342457	 0.139049
H	-0.8964212136	-0.5514876828	-0.061489579	 0.125386
H	 2.4441174886	-1.2200490531	-2.1099384369	 0.133361
H	 2.4718390927	-1.6067256099	 1.8844159051	 0.152872
H	 2.8061981065	 0.0724430178	 1.42412786	 0.145646
32.9641	69.6166	222.9597	245.1343	307.9741	429.5008	475.5963	501.5169	579.0364	617.7982	711.7945	874.1062	885.583	921.2643	967.9653	983.9228	1055.7014	1093.8587	1111.5271	1190.0663	1235.9378	1248.7334	1301.1757	1327.3247	1364.8554	1393.6606	1413.9173	1470.8607	1488.5767	1496.7398	1748.0284	1824.2112	3007.8949	3029.4976	3045.2429	3115.1986	3119.9124	3142.3354	3163.903
CC1N=COCC1=O	C[C@H]1N=COCC1=O	
InChI=1S/C5H7NO2/c1-4-5(7)2-8-3-6-4/h3-4H,2H2,1H3	InChI=1S/C5H7NO2/c1-4-5(7)2-8-3-6-4/h3-4H,2H2,1H3/t4-/m1/s1
