19
gdb 56287	6.71731	0.52501	0.49288	1.4536	79.7	-0.2497	-0.0148	0.2349	2159.2119	0.154138	-422.999262	-422.988322	-422.987378	-423.037453	36.914	
C	-0.1229089625	 1.4931305125	 0.01163652	-0.473227
C	 0.05226151	-0.0144532556	 0.0011458524	 0.377868
O	 1.146351424	-0.5329108226	-0.0129742556	-0.292644
C	-1.2238388252	-0.8418092283	 0.0086573277	-0.317654
C	-0.9619597646	-2.3392604509	-0.0013972347	-0.040217
O	-2.2162241694	-2.9937407231	 0.0068039553	-0.251438
C	-2.0852446016	-4.4014742542	-0.001759222	-0.206919
C	-3.4017470142	-5.0258585196	 0.0074383156	 0.279399
C	-4.473622718	-5.5669001536	 0.0148540854	-0.414407
H	 0.8532790508	 1.9790661823	 0.0029349347	 0.144015
H	-0.7044641558	 1.8161266019	-0.8591449002	 0.140282
H	-0.6834754131	 1.8059318224	 0.8997544481	 0.140355
H	-1.8221478426	-0.5699967646	 0.887995181	 0.1328
H	-1.8379791685	-0.561132915	-0.8568871148	 0.132874
H	-0.3780979542	-2.6195804928	-0.8915183291	 0.10441
H	-0.3618621863	-2.6286155762	 0.8749386597	 0.104356
H	-1.5241360412	-4.7318780373	-0.892933662	 0.119966
H	-1.507422025	-4.7410885876	 0.8751587889	 0.119965
H	-5.4241702125	-6.0402339377	 0.0216602996	 0.200214
31.3377	44.5053	79.1125	96.5412	124.6522	130.0721	165.8166	294.599	308.034	334.5835	460.9831	480.7287	534.6563	607.3304	607.364	676.1784	762.7286	840.6827	937.4934	938.4213	973.7446	1028.1035	1031.5026	1108.3423	1122.8805	1142.494	1185.3767	1217.5663	1256.6358	1298.595	1331.1679	1383.7636	1390.5297	1442.516	1457.8334	1467.7225	1477.4695	1498.6203	1521.7697	1806.7704	2248.4542	2952.3433	2970.6015	2983.9032	3011.5503	3030.1031	3039.3064	3065.0572	3098.0974	3153.4858	3506.7637
CC(=O)CCOCC#C	CC(=O)CCOCC#C	
InChI=1S/C7H10O2/c1-3-5-9-6-4-7(2)8/h1H,4-6H2,2H3	InChI=1S/C7H10O2/c1-3-5-9-6-4-7(2)8/h1H,4-6H2,2H3
