13
gdb 6245	4.84211	1.27831	1.01287	0.5242	66.39	-0.2369	-0.0508	0.1861	1071.3356	0.095138	-394.788266	-394.780204	-394.779259	-394.820898	29.285	
N	 0.6187614004	 0.1719210713	-0.7938976167	-0.550859
C	 0.0111986574	 0.2073021365	 0.428549625	 0.439143
N	 0.4902667092	 0.5051195245	 1.5756650688	-0.567225
N	-1.3451295883	-0.1935346304	 0.431063116	-0.349084
C	-2.173799079	-0.4452634115	-0.6284156047	 0.316182
O	-1.8516208323	-0.3858259515	-1.8058186879	-0.37456
C	-3.5212411046	-0.8036164369	-0.2189738289	 0.208627
C	-4.642985944	-1.0998968064	 0.0945529454	-0.368002
H	 1.4967173135	 0.6536564948	-0.8817370908	 0.253548
H	 0.0226473924	 0.0894823742	-1.6084651338	 0.284599
H	 1.4718602568	 0.7662646604	 1.5093646633	 0.209938
H	-1.7316209447	-0.2339410071	 1.3629509481	 0.279394
H	-5.6381744369	-1.364233478	 0.3595953361	 0.2183
84.3744	109.6367	135.4787	278.6704	288.5835	373.2853	416.9231	449.4915	558.8183	596.2329	632.0509	642.0162	670.0995	689.4193	726.3092	761.9412	797.318	938.5563	989.4668	1127.5709	1138.4121	1225.2294	1444.5524	1495.5903	1618.6663	1737.8542	1747.6865	2231.3764	3493.3713	3510.5489	3520.9498	3626.886	3703.5693
NC(=N)NC(=O)C#C	NC(=N)NC(=O)C#C	
InChI=1S/C4H5N3O/c1-2-3(8)7-4(5)6/h1H,(H4,5,6,7,8)	InChI=1S/C4H5N3O/c1-2-3(8)7-4(5)6/h1H,(H4,5,6,7,8)
