20
gdb 55930	4.00835	0.90995	0.85101	3.145	78.84	-0.2421	0.0344	0.2766	1410.0511	0.171102	-403.155525	-403.146384	-403.14544	-403.190905	33.882	
N	-0.0261701417	 1.2557360808	 0.4022755313	-0.524354
C	 0.1258608367	-0.057858291	 0.0564747018	 0.419547
O	 1.2214419045	-0.5704318725	-0.0707987813	-0.362723
C	-1.1796308612	-0.8227418395	-0.1619121194	-0.34608
C	-1.014861295	-2.3156609433	 0.1008889792	 0.050278
C	-0.8711350919	-2.8296803957	 1.5762967668	-0.249386
C	-2.0482231324	-3.7837307615	 1.3377899168	-0.033879
C	-3.2756838664	-3.00089587	 0.9728921047	-0.276192
C	-2.227609877	-3.2388864149	-0.0819922286	-0.081388
H	 0.7992375341	 1.8299473297	 0.4581502701	 0.258134
H	-0.9259071101	 1.7022603883	 0.422135888	 0.255874
H	-1.9783725082	-0.3924084861	 0.4532163434	 0.096367
H	-1.4766401731	-0.6655075452	-1.2085550444	 0.124927
H	-0.1632404682	-2.6680332291	-0.4836712794	 0.099578
H	 0.0839901688	-3.3283580459	 1.7477263304	 0.112631
H	-1.0217203161	-2.0882416758	 2.3696457885	 0.087967
H	-2.1052515876	-4.8097515569	 1.6799554112	 0.083401
H	-4.1839835614	-3.582718399	 0.8513156788	 0.10836
H	-3.4419123625	-2.0111549461	 1.393188376	 0.097136
H	-2.4629956014	-3.7778179364	-0.9927540739	 0.079802
24.2592	63.5261	122.1117	166.6542	194.9825	300.7549	357.5673	421.5747	498.999	515.3919	600.5338	645.8194	697.6279	780.6307	800.3722	846.3809	856.8209	870.3172	939.9306	962.6533	980.8661	1020.1857	1035.2848	1061.499	1074.0355	1084.1096	1093.1817	1130.1126	1144.15	1200.0462	1232.9358	1237.4496	1256.3931	1277.6196	1309.5922	1353.0224	1371.2885	1408.1299	1459.3126	1483.4499	1499.4246	1616.2182	1794.6551	3015.7929	3035.8516	3059.625	3095.6502	3103.1719	3118.0572	3169.0926	3182.8373	3197.4392	3600.284	3737.5851
NC(=O)CC1CC2CC12	NC(=O)C[C@H]1C[C@H]2C[C@@H]12	
InChI=1S/C7H11NO/c8-7(9)3-5-1-4-2-6(4)5/h4-6H,1-3H2,(H2,8,9)	InChI=1S/C7H11NO/c8-7(9)3-5-1-4-2-6(4)5/h4-6H,1-3H2,(H2,8,9)/t4-,5+,6+/m0/s1
