20
gdb 7773	3.26123	1.62509	1.16239	1.7302	76.39	-0.2417	0.0165	0.2582	1064.4867	0.178135	-349.02598	-349.017908	-349.016964	-349.057997	31.543	
C	 0.0380617191	 1.5593846345	 0.0266353465	-0.4031
C	 0.0376963798	 0.0287092766	 0.0112370136	 0.022409
C	 0.7283887141	-0.529169108	-1.2467147576	-0.241216
C	 0.994056213	-2.0090699377	-1.1559599464	-0.067167
C	 0.8983632378	-2.7059542169	-0.0241695235	-0.088821
C	 0.5570393789	-2.09084819	 1.310405551	 0.087839
O	 1.3345024917	-2.6685958045	 2.3593411033	-0.438199
C	 0.6916225272	-0.5635565479	 1.2683847415	-0.212679
H	 1.060773574	 1.9511734605	 0.0813671585	 0.1122
H	-0.425130089	 1.9661801884	-0.8789957661	 0.11034
H	-0.5136459767	 1.9479713764	 0.8888922085	 0.112539
H	-1.0077692481	-0.3123390808	-0.0105497103	 0.076858
H	 0.1198703113	-0.3149821724	-2.135298531	 0.102365
H	 1.678978129	 0.0020682368	-1.4141945822	 0.10377
H	 1.271587819	-2.5155218346	-2.0782057746	 0.087086
H	 1.0817496688	-3.7778431192	-0.0105083025	 0.089913
H	-0.4756531801	-2.3541459738	 1.5786653645	 0.094391
H	 2.2615143806	-2.5288600717	 2.1350857141	 0.272907
H	 1.7619605129	-0.3083285589	 1.2723829465	 0.08122
H	 0.2609077267	-0.132258057	 2.1783442862	 0.097346
117.5503	152.2515	243.8729	259.5491	296.8004	336.8028	391.9179	435.8003	442.4546	456.3297	561.7477	688.5351	748.9457	849.8026	881.7782	909.211	925.2088	968.0687	998.2276	1012.8696	1049.4638	1073.1364	1101.678	1117.9649	1149.3384	1177.4365	1219.3596	1257.3837	1274.5791	1308.5989	1327.8999	1363.9973	1374.1964	1394.4307	1401.1444	1410.6303	1427.27	1473.0095	1490.14	1497.5893	1499.9603	1718.9934	2982.1493	2993.3685	3002.8465	3014.1608	3024.1761	3032.4131	3070.6961	3089.7461	3097.7328	3139.3272	3165.11	3794.6118
CC1CC=CC(O)C1	C[C@H]1CC=C[C@@H](O)C1	
InChI=1S/C7H12O/c1-6-3-2-4-7(8)5-6/h2,4,6-8H,3,5H2,1H3	InChI=1S/C7H12O/c1-6-3-2-4-7(8)5-6/h2,4,6-8H,3,5H2,1H3/t6-,7+/m0/s1
