19
gdb 97669	3.38107	0.7455	0.67588	3.0797	81.65	-0.2478	0.028	0.2758	1700.3457	0.157058	-422.96428	-422.954182	-422.953238	-423.001249	35.19	
C	-0.1005134016	 1.5510161146	-0.0014307627	-0.449621
C	-0.0235328645	 0.0185356787	-0.003732752	 0.096296
C	 1.1856757548	-0.5253446056	-0.8254667102	-0.104531
O	 1.9476232025	-0.7570841267	 0.3728143019	-0.270397
C	 0.7895865279	-0.5482699375	 1.200758233	-0.104534
C	-1.3158907538	-0.5894445182	-0.2632166668	 0.015025
C	-2.3844605679	-1.102366641	-0.4778398353	 0.114515
C	-3.6856973071	-1.7041915293	-0.7391122421	-0.218312
O	-3.5689457215	-3.122073674	-0.727163524	-0.408364
H	 0.8891851827	 1.9739240065	 0.1968235496	 0.127566
H	-0.4512344657	 1.9236308642	-0.9683778044	 0.126143
H	-0.7910948272	 1.9039420943	 0.7701730084	 0.126154
H	 0.9716284297	-1.4547624124	-1.3667791744	 0.10923
H	 1.672477396	 0.1913374274	-1.4969271706	 0.104355
H	 0.9846708808	 0.1515455486	 2.0215277823	 0.104362
H	 0.3914462893	-1.4883382488	 1.6012703568	 0.109267
H	-4.4017851828	-1.3568513402	 0.0238676182	 0.116495
H	-4.0595953821	-1.343309566	-1.7114973638	 0.1165
H	-4.4440796299	-3.4829112344	-0.9025189538	 0.289849
16.902	68.5198	109.9604	122.0756	197.9839	229.1074	260.3546	287.7253	343.3765	346.0465	432.9144	520.618	558.8923	604.0803	834.2509	853.7574	915.3014	933.1454	972.8761	1014.3004	1026.6598	1031.7554	1038.902	1084.3228	1153.4645	1163.8924	1164.5604	1212.0271	1245.1959	1251.0384	1304.5931	1309.1464	1368.4606	1408.8817	1459.001	1490.036	1496.8966	1502.8836	1509.0454	1534.1269	2364.8698	2960.7253	2978.084	3013.0004	3023.1908	3036.9486	3069.7076	3070.9237	3113.8787	3114.3185	3817.7415
CC1(COC1)C#CCO	CC1(COC1)C#CCO	
InChI=1S/C7H10O2/c1-7(3-2-4-8)5-9-6-7/h8H,4-6H2,1H3	InChI=1S/C7H10O2/c1-7(3-2-4-8)5-9-6-7/h8H,4-6H2,1H3
