13
gdb 49118	3.75435	1.17797	0.89664	2.4442	72.86	-0.2503	-0.1236	0.1266	1177.1791	0.089499	-452.792897	-452.78525	-452.784305	-452.825421	27.77	
N	-0.1260571775	 1.2771864145	 0.0081815731	-0.499665
C	-0.0322689621	 0.0147933875	 0.0005182234	 0.297272
N	-1.0920400849	-0.878540772	 0.0018597117	-0.383364
C	-0.6152975709	-2.1706224624	-0.0082757305	 0.282565
C	-1.5774899222	-3.2911563886	-0.0087389093	 0.102408
O	-2.7726232757	-3.1134199421	-0.0006624133	-0.259694
C	 0.7454729439	-2.2415142168	-0.0168859521	-0.347937
C	 1.2408167289	-0.8637543129	-0.0124052641	 0.342922
O	 2.3644236885	-0.4134615398	-0.0164627684	-0.3236
H	 0.8222051633	 1.6650481235	 0.0045041999	 0.251282
H	-2.0725172078	-0.6489233313	 0.0088543847	 0.286663
H	-1.1232677169	-4.3001480778	-0.0172247376	 0.11169
H	 1.3433092535	-3.1392835218	-0.0254378777	 0.139459
91.8596	142.1999	171.8483	238.627	299.608	428.7152	430.1615	449.1675	565.404	628.4281	633.6293	742.878	744.9455	768.4557	828.9898	926.5117	992.2494	1025.4865	1052.2669	1144.1927	1160.5574	1286.1397	1368.4837	1400.2728	1480.6307	1614.7532	1748.6429	1790.2724	1803.7729	2960.2303	3262.8728	3441.3712	3661.6774
N=C1NC(C=O)=CC1=O	[NH][C]1NC(=CC1=O)C=O	
InChI=1S/C5H4N2O2/c6-5-4(9)1-3(2-8)7-5/h1-2H,(H2,6,7,9)	InChI=1S/C5H4N2O2/c6-5-4(9)1-3(2-8)7-5/h1-2H,(H2,6,7,9)
