22
gdb 6986	2.30238	2.22534	1.55839	1.502	77.31	-0.2358	0.0758	0.3116	968.8294	0.199692	-350.22859	-350.219635	-350.218691	-350.261589	34.359	
C	-0.2326180577	 1.5159295761	-0.0694579606	-0.419805
C	 0.0608782191	 0.0172321538	-0.0274184804	 0.001538
C	 0.9898093684	-0.4975750932	-1.1367263011	-0.243554
C	 1.4041153181	-1.8607611248	-0.5820823089	-0.074763
O	 1.4309173268	-1.7237512511	 0.8350222515	-0.307254
C	 0.7518308833	-0.5206197338	 1.2582598591	 0.396988
C	 1.8132091203	 0.4284673414	 1.8318413264	-0.415745
C	-0.2580045549	-0.9099553839	 2.3393381424	-0.421543
H	 0.6858766841	 2.110269501	-0.0459256294	 0.119088
H	-0.7706261863	 1.7758830429	-0.9868912826	 0.113999
H	-0.8564808553	 1.8281715325	 0.775049011	 0.116034
H	-0.8930368748	-0.5199201395	-0.1197953372	 0.0713
H	 0.4978493188	-0.565551938	-2.1108677128	 0.097524
H	 1.8590358418	 0.1614049602	-1.2468767048	 0.10145
H	 0.6774623672	-2.6364639359	-0.8711298246	 0.087018
H	 2.3927215919	-2.1882941555	-0.923081664	 0.09871
H	 2.5209800596	 0.7499490335	 1.0620574067	 0.109307
H	 1.3622310429	 1.3192680756	 2.2800456005	 0.108653
H	 2.3799213472	-0.0957613063	 2.6063741818	 0.120782
H	 0.2530844915	-1.333687998	 3.2089650813	 0.118429
H	-0.8317092601	-0.038495335	 2.6732084121	 0.108723
H	-0.956503302	-1.6594046122	 1.9560834236	 0.113122
58.2253	180.895	213.5402	232.6936	258.895	270.8613	279.3009	344.2983	392.1423	424.4687	512.8938	551.5513	643.2721	708.9547	844.1165	852.7705	914.465	927.4812	951.0989	973.4391	989.583	1002.5753	1058.8875	1088.6328	1116.1461	1154.301	1177.3033	1196.6452	1231.6009	1249.7002	1273.4788	1313.0462	1355.0379	1377.6639	1391.6284	1397.3336	1410.5336	1417.6968	1474.041	1482.5684	1493.6829	1494.8434	1498.6467	1505.2182	1509.8083	1530.5437	2975.4384	3006.0625	3032.9262	3033.2483	3038.251	3040.7972	3056.2028	3095.1898	3096.4573	3103.805	3107.6242	3111.1043	3113.7035	3117.1904
CC1CCOC1(C)C	C[C@H]1CCOC1(C)C	
InChI=1S/C7H14O/c1-6-4-5-8-7(6,2)3/h6H,4-5H2,1-3H3	InChI=1S/C7H14O/c1-6-4-5-8-7(6,2)3/h6H,4-5H2,1-3H3/t6-/m0/s1
