19
gdb 106535	2.1328	1.55908	1.12621	2.7758	75.56	-0.2347	-0.0016	0.2331	1154.2628	0.157769	-422.993075	-422.983962	-422.983018	-423.027089	33.871	
C	 0.0184902455	 1.5260092602	-0.0480441826	-0.388844
C	-0.0446179447	-0.0064555543	-0.0139790715	-0.318627
C	-1.4501634496	-0.5377656091	 0.0201858146	 0.154775
C	-2.6408107199	-0.2777604388	-0.9893971866	-0.309236
C	-3.286980462	-1.2490493724	 0.0606953018	-0.230214
C	-1.9325264739	-2.0476694737	 0.0228620317	 0.134216
O	-1.6215679077	-2.8855470638	-1.0502906824	-0.443007
C	-2.551086286	-0.36246796	 1.0733413299	 0.434789
O	-2.7396348988	 0.1988240688	 2.110043338	-0.332625
H	 1.0552840466	 1.8743726484	-0.0491372711	 0.11706
H	-0.4678201592	 1.9233484704	-0.945217583	 0.115847
H	-0.4835623063	 1.9548661938	 0.8244411063	 0.141138
H	 0.4786397717	-0.428808018	-0.881438005	 0.105939
H	 0.4851745046	-0.3780349031	 0.8722395316	 0.114115
H	-3.0414411062	 0.7352883834	-1.0454893926	 0.123166
H	-2.503600068	-0.6804034099	-1.9958214037	 0.092936
H	-4.3021201979	-1.6373160741	 0.0794171865	 0.097173
H	-1.6885570069	-2.6187495039	 0.920809781	 0.104273
H	-1.8813217813	-2.472590764	-1.8799376028	 0.28713
63.3791	133.6527	155.5864	163.6899	202.1073	266.6376	272.4119	367.7388	420.0577	540.4416	552.109	635.3399	710.8158	734.215	770.2175	792.9576	825.5721	899.2398	910.6561	972.5397	988.9512	1044.4758	1050.6347	1065.2613	1112.2662	1125.1738	1169.5733	1176.385	1209.6455	1216.3756	1273.8374	1301.0668	1329.7148	1387.1751	1412.2067	1460.8297	1482.078	1499.6562	1508.4573	1531.2327	1909.16	3021.8538	3038.2347	3054.0517	3065.3011	3098.8367	3106.4179	3116.527	3130.8716	3156.9964	3819.9115
CCC12CC(C1O)C2=O	CC[C@@]12C[C@@H]([C@H]1O)C2=O	
InChI=1S/C7H10O2/c1-2-7-3-4(5(7)8)6(7)9/h4-5,8H,2-3H2,1H3	InChI=1S/C7H10O2/c1-2-7-3-4(5(7)8)6(7)9/h4-5,8H,2-3H2,1H3/t4-,5+,7+/m0/s1
