18
gdb 41431	3.77255	1.86499	1.49268	2.0259	73.84	-0.2323	0.0851	0.3173	889.3956	0.151404	-401.882303	-401.876334	-401.875389	-401.91227	25.792	
C	-0.0288150308	 1.4831430683	-0.0145537873	-0.153999
C	 1.5007489879	 1.8518121707	-0.0245711051	-0.368219
C	 2.0168129105	 0.431777944	-0.0032615716	 0.317447
C	 3.3615295748	-0.2535266592	 0.0040688392	-0.190725
O	 2.9347580059	-1.6410497174	 0.0273983992	-0.291528
C	 1.5130012531	-1.5611528265	 0.0299535131	 0.118453
C	 1.065416135	-0.4006362147	 0.932422088	-0.088168
N	-0.0664614679	-0.0096187802	 0.0094095537	-0.148064
C	 1.0604589028	-0.4300351134	-0.9067207151	-0.088167
H	-0.5487247079	 1.872023815	 0.8655182921	 0.108045
H	-0.5534951724	 1.8437415893	-0.903789697	 0.108045
H	 1.7973136988	 2.406130856	-0.9200885229	 0.10577
H	 1.8020894749	 2.4344484171	 0.8511570962	 0.10577
H	 3.9648263046	-0.0683650191	-0.8925017066	 0.107709
H	 3.9696320339	-0.0398559778	 0.8910000921	 0.107709
H	 1.0702059866	-2.5538192732	 0.0470134072	 0.096839
H	 0.9829047717	-0.3451674112	 2.0197782938	 0.076542
H	 0.9720833886	-0.4093404978	-1.9948337191	 0.076542
245.6159	287.3274	357.9738	407.1495	460.5352	638.8144	723.2024	743.3919	743.7227	776.0992	829.1582	834.9221	874.8467	910.6191	912.2407	927.7019	961.5708	993.281	1032.429	1045.6954	1061.251	1064.4917	1121.1641	1144.5749	1156.2796	1177.2482	1189.7754	1203.8627	1242.5948	1247.0875	1249.8118	1260.9185	1293.3015	1322.1033	1354.134	1386.009	1493.5236	1512.1063	1521.4389	3024.5176	3050.1538	3060.8018	3063.9217	3088.0791	3092.9585	3097.953	3109.9071	3162.443
C1CC23COC4C2N1C34	C1C[C@@]23CO[C@H]4[C@@H]2N1[C@@H]34	
InChI=1S/C7H9NO/c1-2-8-5-4-6(8)7(1,5)3-9-4/h4-6H,1-3H2	InChI=1S/C7H9NO/c1-2-8-5-4-6(8)7(1,5)3-9-4/h4-6H,1-3H2/t4-,5-,6+,7+
