21
gdb 38972	2.86609	1.70299	1.24061	1.2869	82.39	-0.2212	0.0945	0.3157	1062.3689	0.185552	-387.071577	-387.064301	-387.063356	-387.10295	30.449	
C	 0.0438187307	 1.4475031487	 0.0591929717	-0.34327
C	 1.360842346	 0.7100178685	-0.0912704157	-0.144941
C	 1.7463049689	 0.1301910199	 1.2758234662	-0.250645
C	 0.4240508152	-0.7142003748	 1.2902348043	-0.064533
C	 0.6369441895	-2.2208673881	 1.0743121199	-0.222306
C	-0.4636847074	-2.7933170983	 0.1695377616	-0.207098
C	-0.4873663293	-2.0289881635	-1.1548643128	-0.077111
O	-0.7842538532	-0.6460869022	-0.9662267553	-0.287372
C	 0.0094078249	-0.0351235306	-0.0188472181	 0.461131
H	-0.1963700053	 1.9771322803	 0.9804323533	 0.09799
H	-0.3063232813	 1.9337010408	-0.8462933011	 0.116136
H	 2.0309689787	 0.9088178219	-0.9184133863	 0.085961
H	 2.6412517128	-0.4964071095	 1.2653074599	 0.09854
H	 1.8474781497	 0.8688136961	 2.078497743	 0.093765
H	-0.255714884	-0.5414666047	 2.1340203591	 0.061056
H	 1.6025849471	-2.3845943813	 0.5776400766	 0.094174
H	 0.6830485535	-2.7473227063	 2.0333081575	 0.095268
H	-0.2902025986	-3.8571104351	-0.028669775	 0.095575
H	-1.445922911	-2.7054432679	 0.6504932245	 0.104658
H	 0.4850599904	-2.1354638517	-1.6631792402	 0.088521
H	-1.2647595672	-2.4062545521	-1.8245711831	 0.104502
143.4514	152.6253	313.8934	375.9051	392.3319	415.9618	456.7639	469.889	570.1238	629.4383	735.2189	809.7527	842.1939	849.8303	866.5148	909.8731	914.1785	945.957	966.8408	985.5051	1013.8518	1021.6263	1037.2891	1082.1105	1096.0218	1106.3349	1149.5843	1179.2919	1206.6857	1225.3372	1229.6471	1246.9883	1261.3669	1288.5547	1312.2699	1355.8672	1357.9219	1373.758	1381.7742	1420.3327	1476.6469	1485.1241	1488.3635	1503.0736	1512.4455	2973.2387	3015.0467	3020.7421	3028.7643	3041.813	3070.4329	3076.8761	3089.2821	3091.0356	3099.3066	3186.1949	3196.5824
C1C2CC3CCCOC123	C1[C@H]2C[C@@H]3CCCO[C@]123	
InChI=1S/C8H12O/c1-2-6-4-7-5-8(6,7)9-3-1/h6-7H,1-5H2	InChI=1S/C8H12O/c1-2-6-4-7-5-8(6,7)9-3-1/h6-7H,1-5H2/t6-,7+,8-/m0/s1
