22
gdb 99289	5.23408	0.63676	0.59307	3.4241	85.15	-0.2395	0.0377	0.2772	1946.4511	0.193431	-404.37705	-404.366595	-404.365651	-404.414847	37.06	
C	 0.0927303628	 1.4340025335	 0.2007796989	-0.366344
C	-0.136459027	-0.0716390124	 0.3323011532	-0.298481
C	-1.5824739172	-0.4642780353	 0.0255609983	 0.419913
O	-2.2942041926	 0.190423667	-0.7167094655	-0.375488
N	-2.0010406678	-1.615145357	 0.631498836	-0.318631
C	-3.2980933762	-2.2220581591	 0.3777772567	-0.180783
C	-3.1806880376	-3.6347830351	-0.149040301	 0.024888
C	-2.9984800827	-4.7900125995	 0.8087680157	-0.267276
C	-4.3030230253	-4.6133417859	 0.0717631978	-0.266572
H	 1.1538084801	 1.6770325439	 0.3058702695	 0.105819
H	-0.2578865421	 1.7811200299	-0.7730384541	 0.144492
H	-0.4616639424	 1.9851912843	 0.9661945168	 0.121647
H	 0.5009068785	-0.6107965026	-0.3816324009	 0.125939
H	 0.1493957575	-0.4294339671	 1.3286979896	 0.098057
H	-1.3474221362	-2.1254812522	 1.2033483962	 0.239933
H	-3.9004127474	-2.2238165895	 1.2974913244	 0.097044
H	-3.7983984558	-1.5690809245	-0.3414419009	 0.149579
H	-2.6528142114	-3.7105316297	-1.095746578	 0.091916
H	-2.347191342	-5.6065860183	 0.5179131586	 0.114388
H	-2.9912375315	-4.5744982749	 1.8731333292	 0.108061
H	-5.1634682435	-4.2771286471	 0.6412232503	 0.114911
H	-4.5443659502	-5.3063539386	-0.725973091	 0.11699
20.8809	44.0994	68.6528	79.5225	197.1755	207.7911	253.4508	289.5386	331.5415	399.3583	467.2158	518.2864	593.9816	679.9901	775.2489	802.3055	810.6752	833.4871	881.7774	913.5782	949.5449	1002.2757	1050.0373	1054.3035	1062.1139	1082.3561	1096.6585	1121.9293	1140.3578	1181.4529	1198.2866	1222.3358	1227.2017	1285.8718	1289.4548	1350.8117	1378.6085	1406.9816	1425.7016	1465.3002	1468.8127	1492.2866	1492.5537	1504.246	1507.275	1535.603	1775.8333	3002.8197	3021.1292	3048.4363	3058.174	3110.2589	3114.4317	3126.0003	3135.0253	3139.4553	3147.2788	3206.8711	3223.1266	3636.6717
CCC(=O)NCC1CC1	CCC(=O)NCC1CC1	
InChI=1S/C7H13NO/c1-2-7(9)8-5-6-3-4-6/h6H,2-5H2,1H3,(H,8,9)	InChI=1S/C7H13NO/c1-2-7(9)8-5-6-3-4-6/h6H,2-5H2,1H3,(H,8,9)
