18
gdb 11437	4.20377	1.26546	1.02093	3.9341	67.99	-0.2338	-0.0109	0.2229	1126.5783	0.15364	-384.972299	-384.964161	-384.963217	-385.005241	29.995	
O	-0.1115163656	 1.4645291905	-0.0338359366	-0.422542
C	-0.0000535226	 0.0501217505	-0.0814053758	-0.09341
C	-1.3911466421	-0.5374751437	 0.085551298	 0.030226
C	-1.4220288427	-2.0830898854	 0.0170123434	-0.239733
C	-2.7686264949	-2.4646693222	 0.6477867699	-0.318796
C	-3.0551240395	-1.3564195544	 1.6705200867	 0.395558
O	-3.9136134707	-1.3833773854	 2.5135599018	-0.312667
C	-2.0605244098	-0.2160479794	 1.4319833787	-0.311867
H	 0.7684114099	 1.84177145	-0.1229904252	 0.288684
H	 0.4330211619	-0.2848886175	-1.0382474919	 0.086199
H	 0.6531279875	-0.3266982246	 0.7242220514	 0.08247
H	-2.0189384316	-0.1377102844	-0.7216923078	 0.087574
H	-1.2991022435	-2.4596074828	-1.0017871714	 0.104666
H	-0.5987247577	-2.4933837019	 0.6162462913	 0.102452
H	-3.5765991225	-2.4359142846	-0.0953773937	 0.131355
H	-2.8029455867	-3.450601138	 1.1169660522	 0.126816
H	-1.3232248738	-0.2492219448	 2.2473836019	 0.124882
H	-2.5469313456	 0.7590811981	 1.4863126972	 0.138131
77.587	103.2454	143.7535	209.2473	271.6748	386.6778	402.0651	467.1059	488.5252	559.7132	584.9531	729.6812	811.634	863.8309	890.5904	949.2205	968.7206	997.678	1055.2814	1087.0422	1106.1862	1149.7079	1163.685	1187.5896	1227.3717	1254.3161	1259.6025	1273.5567	1304.9201	1312.3664	1348.5826	1383.8731	1446.2286	1450.4978	1461.1046	1499.6924	1520.4015	1847.098	2952.2902	2981.6033	3015.0521	3021.8412	3031.7707	3035.8482	3093.1322	3108.7935	3122.6908	3832.0568
OCC1CCC(=O)C1	OC[C@H]1CCC(=O)C1	
InChI=1S/C6H10O2/c7-4-5-1-2-6(8)3-5/h5,7H,1-4H2	InChI=1S/C6H10O2/c7-4-5-1-2-6(8)3-5/h5,7H,1-4H2/t5-/m0/s1
