15
gdb 28598	4.15798	1.10858	0.92967	1.5021	70.47	-0.2086	0.0092	0.2177	1213.299	0.113853	-453.953602	-453.945901	-453.944957	-453.986267	28.586	
N	 0.1063585859	 1.2533919797	-0.3780233183	-0.588754
C	-0.0384411658	-0.0822824316	-0.112993829	 0.457693
N	-1.0803584433	-0.6945600576	 0.3632932438	-0.337296
C	-0.6975950211	-2.0320276702	 0.3569540402	-0.199283
C	 0.5610128736	-2.1589147781	-0.1226995577	 0.343164
O	 1.0012594961	-0.8801669412	-0.4388576838	-0.216093
C	 1.4589430845	-3.2873878729	-0.3540718761	-0.05418
C	 2.6172793652	-3.2266551995	-1.2593936098	-0.181207
O	 2.8048756089	-3.1967104027	 0.1539256381	-0.236109
H	 1.0536234337	 1.5984008543	-0.3299401453	 0.267983
H	-0.5632325601	 1.8279519756	 0.1115352134	 0.273924
H	-1.3599696156	-2.8096024688	 0.7043705612	 0.124489
H	 0.9831709167	-4.2528334165	-0.1872554554	 0.105157
H	 2.9508727951	-4.1336776567	-1.762742503	 0.116566
H	 2.8331149463	-2.2951334639	-1.7790825884	 0.123947
78.4828	131.5613	153.1109	279.5418	314.411	384.7152	441.0582	468.5778	587.6709	638.6667	679.6166	745.5958	775.9228	813.316	864.0961	902.2101	979.1007	986.0124	1016.1295	1087.8658	1094.9488	1156.9546	1163.7942	1198.9313	1252.5697	1259.2653	1296.5811	1403.6602	1449.2987	1520.5486	1599.8054	1660.0379	1679.3488	3083.5099	3125.7475	3175.6942	3259.81	3578.9577	3688.4031
NC1=NC=C(O1)C1CO1	Nc1ncc(o1)[C@H]1CO1	
InChI=1S/C5H6N2O2/c6-5-7-1-3(9-5)4-2-8-4/h1,4H,2H2,(H2,6,7)	InChI=1S/C5H6N2O2/c6-5-7-1-3(9-5)4-2-8-4/h1,4H,2H2,(H2,6,7)/t4-/m1/s1
