15
gdb 112231	2.08572	1.22913	0.83346	4.6658	70.79	-0.246	-0.0616	0.1844	1323.1991	0.11201	-453.955469	-453.946095	-453.945151	-453.99059	32.584	
N	-0.1091511998	 1.0684834831	 0.0374361205	-0.526385
H	-0.2920943587	 0.1061438018	-0.2294355363	 0.243097
H	 1.4835399275	 1.3551993612	 1.3844792133	 0.295994
H	-0.3988967952	 1.6520763735	-0.73847591	 0.247546
C	-0.8366182467	 1.422692101	 1.2616197018	-0.181315
C	-0.0156690797	 0.9067821454	 2.4572947422	 0.080951
O	 1.3203845651	 1.3364233134	 2.3430559945	-0.441366
C	 0.2220802972	 2.2776679117	 4.4722131678	 0.501224
O	 0.8781065832	 3.0077826535	 5.0789977853	-0.183984
C	-0.541461961	 1.4311801834	 3.7879774069	-0.248013
C	-1.7981270454	 1.0453890248	 4.3072888634	 0.230165
N	-2.8381241111	 0.7001114465	 4.6893057322	-0.347528
H	-0.8837230371	 2.514302013	 1.3265861768	 0.120097
H	-1.8638008822	 1.0359499969	 1.3160847356	 0.118386
H	-0.0735406861	-0.1956654293	 2.477911506	 0.091131
49.5834	100.5494	111.8907	138.0716	187.109	268.4286	288.3133	363.1643	407.2829	481.0762	512.0197	557.0014	592.3397	612.3188	654.031	792.2212	853.2766	928.3462	973.6631	1067.4923	1135.4434	1171.7758	1200.0893	1277.3648	1316.5078	1360.7228	1400.1282	1401.7801	1439.8358	1494.9582	1656.3028	2241.1737	2328.5452	2946.9701	3010.4678	3087.0477	3510.3938	3594.8182	3654.0816
[NH3+]CC1OC(=O)[C-]1C#N	NC[C@@H](O)[C]([C][O])C#N	
InChI=1S/C5H5N2O2/c6-1-3-4(2-7)9-5(3)8/h4H,2,7H2/q-1/p+1	InChI=1S/C5H6N2O2/c6-1-4(3-8)5(9)2-7/h5,9H,2,7H2/t5-/m1/s1
