19
gdb 109595	2.17573	1.51874	1.13214	4.2808	66.37	-0.2503	0.0322	0.2824	1123.8121	0.159442	-497.272271	-497.263379	-497.262435	-497.305694	34.419	
O	-0.0883252111	 1.491865542	-0.0235178453	-0.4321
C	 0.0059973147	 0.103809574	 0.2294367938	-0.066394
C	-1.3720976198	-0.5565779033	 0.1231372486	-0.098326
C	-1.9561249449	-0.5565476066	-1.3331014096	 0.117369
O	-1.2966761458	 0.2291516688	-2.299092744	-0.439427
C	-1.6687428041	-2.0865446483	-1.4411850286	 0.049316
O	-0.4821812629	-2.3149532657	-2.1759701033	-0.447995
C	-1.3959216643	-2.1093936254	 0.097808443	 0.047306
O	-0.1614190047	-2.7155284197	 0.4543381062	-0.423393
H	-0.4091549881	 1.5618543836	-0.9332121583	 0.291001
H	 0.7207816387	-0.3807855621	-0.4510971379	 0.077246
H	 0.4020989148	-0.0155172894	 1.2421207425	 0.112092
H	-2.0293264639	-0.1056213264	 0.8707309032	 0.079269
H	-3.022014885	-0.3145250343	-1.3634741309	 0.084189
H	-0.6061395301	-0.3505162474	-2.6594106053	 0.297195
H	-2.4707595269	-2.7226827436	-1.8301247657	 0.074516
H	 0.1810140037	-2.5903528765	-1.522145352	 0.296708
H	-2.2238502582	-2.5355907644	 0.6729418621	 0.082645
H	-0.3164818122	-3.6460754054	 0.6459290114	 0.298784
71.1081	156.4195	174.7758	250.9356	273.2477	297.3025	306.8768	349.675	487.603	502.5669	527.247	582.0522	590.0868	648.2103	669.9236	785.7907	821.1264	861.1253	866.0698	929.9326	1009.359	1073.3662	1091.278	1108.3982	1123.2193	1150.3414	1152.6654	1198.5872	1221.1713	1241.9851	1276.491	1291.2243	1319.9675	1334.6834	1353.1082	1399.7897	1415.1009	1418.3828	1444.2588	1446.4217	1508.0424	2998.3743	3041.4703	3054.7717	3066.9653	3078.3764	3089.3999	3671.9071	3687.6284	3747.2438	3820.7612
OCC1C(O)C(O)C1O	OC[C@H]1[C@@H](O)[C@@H](O)[C@H]1O	
InChI=1S/C5H10O4/c6-1-2-3(7)5(9)4(2)8/h2-9H,1H2	InChI=1S/C5H10O4/c6-1-2-3(7)5(9)4(2)8/h2-9H,1H2/t2-,3+,4-,5+
