15
gdb 48888	3.34167	1.58237	1.36285	2.097	63.93	-0.2305	-0.049	0.1815	932.5362	0.111946	-457.709856	-457.702823	-457.701879	-457.74198	26.634	
O	-0.7524625462	 1.0129976023	 0.4359527705	-0.251288
C	 0.3135873725	 0.8523406288	-0.1001013968	 0.057279
C	 1.4174061771	 1.8745561487	-0.060873224	 0.299608
C	 1.7612210622	 2.5236925252	 1.2768138416	-0.099237
O	 2.6823089492	 3.5645069695	 0.9237442567	-0.266063
C	 2.56044635	 3.782345245	-0.4579833383	 0.08372
C	 2.7805276026	 2.5981437945	-1.3864529688	 0.051213
O	 2.6686640426	 1.3867429111	-0.6371940054	-0.332939
C	 1.3835995128	 3.0713389652	-1.0578414412	-0.248043
H	 0.5682212301	-0.0611764055	-0.678503641	 0.105689
H	 0.8654067034	 2.9311198047	 1.7635945204	 0.120799
H	 2.2652628967	 1.8237779314	 1.9487540189	 0.127154
H	 2.8439044199	 4.7782699683	-0.7764689229	 0.119249
H	 3.3622293357	 2.5848703842	-2.3006683572	 0.114567
H	 0.5439797513	 3.4570963366	-1.6186996925	 0.118295
47.2677	173.0683	216.9699	274.0514	395.1382	461.8072	573.7738	649.1773	716.3037	740.8534	783.4826	797.925	860.5229	865.7923	943.6264	977.2672	979.7753	1030.3646	1035.7335	1072.3884	1082.8216	1099.1039	1114.039	1177.067	1188.7649	1222.8212	1251.0657	1298.6824	1357.9409	1394.233	1398.4113	1499.5651	1824.261	2915.0636	3023.7867	3100.3875	3185.0061	3196.4021	3213.6907
O=CC12COC3C(O1)C23	O=C[C@@]12CO[C@H]3[C@@H](O1)[C@@H]23	
InChI=1S/C6H6O3/c7-1-6-2-8-4-3(6)5(4)9-6/h1,3-5H,2H2	InChI=1S/C6H6O3/c7-1-6-2-8-4-3(6)5(4)9-6/h1,3-5H,2H2/t3-,4+,5-,6-/m0/s1
