19
gdb 38807	3.16237	1.90353	1.60584	1.3899	79.21	-0.2265	0.0188	0.2454	901.7571	0.163468	-385.887028	-385.880838	-385.879894	-385.917133	27.05	
C	-0.0564673819	 1.5973532735	 0.0615759083	-0.249231
C	 1.4749671803	 1.3922232963	 0.0256405078	 0.094894
O	 1.7412631606	 0.7251723563	 1.2623430578	-0.286655
C	 0.7329215474	-0.3226305395	 1.2585525467	 0.107405
C	 1.4374263403	-1.6783093354	 1.2151192417	-0.278996
C	 2.2354277055	-1.8317982087	-0.0548689588	-0.054081
C	 2.1548109643	-0.9496114737	-1.0519150373	-0.078172
C	 1.2138244248	 0.20701027	-0.9799321798	-0.046982
C	-0.0215313378	 0.047074189	-0.0340443763	-0.081576
H	-0.4658787081	 2.0561865742	 0.9647123081	 0.098184
H	-0.4617273232	 2.0656802511	-0.8373976272	 0.0989
H	 2.2046280621	 2.1844119169	-0.1364419164	 0.077899
H	 0.1120699687	-0.2267088817	 2.1567413574	 0.070464
H	 2.1052859683	-1.744674152	 2.0837168361	 0.117246
H	 0.7107466513	-2.4965585708	 1.330663145	 0.099382
H	 2.9003729866	-2.6885616447	-0.1274565246	 0.086831
H	 2.7627919932	-1.0667490222	-1.9446773094	 0.083466
H	 0.9258329652	 0.5858139416	-1.9625745567	 0.07182
H	-0.8850874276	-0.56075171	-0.3020168324	 0.069201
220.6399	288.7544	353.2581	447.1908	476.8101	518.1117	611.5142	664.9315	730.3091	788.8684	813.3713	848.3329	850.8271	878.5242	907.8341	931.1201	962.1985	979.1385	992.5032	999.4661	1021.544	1033.4508	1067.305	1086.6374	1094.9874	1113.3982	1171.5009	1188.2241	1206.2119	1225.2909	1245.0337	1276.1589	1286.2077	1328.5783	1348.8275	1367.2065	1390.4176	1420.2135	1464.7349	1493.2436	1711.8012	2998.5298	3035.8229	3042.0434	3066.2219	3091.2373	3123.5341	3131.749	3134.898	3150.9276	3174.4199
C1C2OC3CC=CC2C13	C1[C@H]2O[C@@H]3CC=C[C@H]2[C@H]13	
InChI=1S/C8H10O/c1-2-5-6-4-8(5)9-7(6)3-1/h1-2,5-8H,3-4H2	InChI=1S/C8H10O/c1-2-5-6-4-8(5)9-7(6)3-1/h1-2,5-8H,3-4H2/t5-,6-,7+,8+/m0/s1
