20
gdb 104348	2.39808	1.54757	1.32824	2.9053	75.	-0.2425	0.0276	0.2702	1080.1858	0.170745	-440.287002	-440.277958	-440.277013	-440.320529	33.805	
C	 0.0376308199	 1.3676034802	 0.1719228248	-0.251199
O	-0.0741924932	-0.0148623206	-0.0896253057	-0.274519
C	 0.6296260463	-0.546907486	-1.2144319985	 0.301073
C	-0.0537672345	-0.1622540878	-2.5296259834	-0.437281
C	 2.1029872748	-0.1237884217	-1.2158475326	-0.111601
O	 2.7587750899	-0.5118604058	-0.0067120454	-0.226334
C	 2.4316730715	-1.7499268814	 0.4487831524	 0.133046
N	 1.5211656069	-2.529431001	 0.0552130691	-0.270533
C	 0.607328642	-2.0660790476	-0.9838328605	-0.16224
H	 1.0397624876	 1.6459014138	 0.5249241981	 0.12012
H	-0.2180598655	 1.9909943169	-0.6968574035	 0.103029
H	-0.678132558	 1.5861971102	 0.9683888333	 0.131329
H	-0.0597431095	 0.9215198876	-2.6813109191	 0.118246
H	 0.456229703	-0.6140551873	-3.3861260764	 0.118951
H	-1.09060036	-0.5102017046	-2.5223488636	 0.131914
H	 2.612844318	-0.5883002613	-2.0696487459	 0.112142
H	 2.2280968502	 0.9581849096	-1.2948127599	 0.115756
H	 3.0962084624	-2.0286985778	 1.2642644735	 0.122206
H	-0.4087051954	-2.3531883927	-0.6932259554	 0.121978
H	 0.8326885935	-2.5953539027	-1.9181234213	 0.103916
82.9823	134.8007	168.658	200.9923	215.3261	279.3196	315.6446	356.0481	395.7814	439.6214	493.2718	557.8138	580.191	735.8792	833.625	890.9462	913.4728	946.343	959.8314	966.6332	1008.0644	1041.0051	1110.3585	1140.8099	1161.1376	1179.8766	1197.5648	1211.9938	1238.4815	1301.9066	1310.0157	1354.1705	1399.5833	1406.0395	1419.227	1468.0519	1472.7852	1487.7167	1493.32	1498.0552	1507.4651	1515.9739	1743.9399	2991.2595	3024.1699	3030.7017	3041.0719	3046.4294	3072.2525	3106.1568	3108.9923	3112.6683	3118.5889	3161.5848
COC1(C)COC=NC1	CO[C@@]1(C)COC=NC1	
InChI=1S/C6H11NO2/c1-6(8-2)3-7-5-9-4-6/h5H,3-4H2,1-2H3	InChI=1S/C6H11NO2/c1-6(8-2)3-7-5-9-4-6/h5H,3-4H2,1-2H3/t6-/m1/s1
