16
gdb 67020	2.21271	1.75192	1.583	4.8823	68.88	-0.2224	0.0051	0.2275	950.1419	0.12325	-437.82452	-437.81653	-437.815585	-437.856758	30.681	
C	 0.0678559767	 1.6060677448	-0.0445112856	-0.524259
C	-0.0667207952	 0.116946008	-0.0101919672	 0.070428
N	 0.4868855521	-0.7151727856	-1.1359568469	-0.335308
C	-0.5317153681	-1.7286911055	-0.7917648498	-0.125131
C	-0.4883006445	-1.8613343116	 0.7416624148	-0.249349
C	 0.3705159295	-0.7310050086	 1.2081505798	 0.480947
O	 0.9408138619	-0.4606500251	 2.2266433584	-0.345113
C	-1.3885336904	-0.8190481896	 0.0311144655	 0.30018
O	-2.7130930407	-0.6323112342	 0.3005956883	-0.430618
H	 1.1247120651	 1.8795251443	-0.1269469735	 0.1509
H	-0.4667859994	 2.0468072694	-0.8932129225	 0.112987
H	-0.3220183966	 2.0466391306	 0.8773576774	 0.146534
H	 0.2048752249	-0.2798608939	-2.0148799499	 0.2146
H	-0.7618417722	-2.589687829	-1.4065767694	 0.114087
H	-0.8098507776	-2.7596820763	 1.2497233828	 0.119818
H	-3.1181125954	-0.1685369875	-0.4418400121	 0.299296
121.774	158.5634	174.3238	222.2991	314.5164	343.3882	404.29	461.9421	524.6854	598.9299	625.4713	679.1967	711.383	758.0005	795.8718	869.5865	883.7844	891.2547	973.775	998.5116	1042.0971	1062.8617	1101.0488	1121.1269	1173.0311	1185.6942	1268.1814	1293.4524	1317.7213	1386.5254	1416.8875	1454.568	1483.4152	1487.3272	1885.2941	3033.9716	3100.247	3118.9055	3199.8625	3227.026	3445.2628	3784.3006
CC12NC3C(C1=O)C23O	C[C@@]12N[C@H]3[C@@H](C1=O)[C@@]23O	
InChI=1S/C6H7NO2/c1-5-4(8)2-3(7-5)6(2,5)9/h2-3,7,9H,1H3	InChI=1S/C6H7NO2/c1-5-4(8)2-3(7-5)6(2,5)9/h2-3,7,9H,1H3/t2-,3-,5+,6-/m0/s1
