21
gdb 99957	2.61264	1.14625	0.97428	1.2603	79.19	-0.2469	-0.0934	0.1535	1316.0974	0.178407	-424.253685	-424.24285	-424.241906	-424.28958	38.793	
C	 0.0212870304	 1.5921274707	 0.0959606132	-0.412258
C	-0.112140806	 0.0772796628	-0.0903500264	-0.170929
C	 0.6834439454	-0.5346121975	-1.2679513134	 0.13563
C	 0.2211804305	 0.0488660367	-2.6253396469	-0.440814
C	 2.206205438	-0.3158447681	-1.0947163006	-0.440804
C	 0.4165402665	-2.0413359263	-1.2807007254	 0.282422
O	-0.2981605554	-2.6167610412	-0.4907176982	-0.290967
C	 1.065633837	-2.9617629512	-2.3416364681	 0.102189
O	 1.8090048911	-2.6289251918	-3.2261406453	-0.226721
H	 1.0535988725	 1.897367221	 0.2922814287	 0.118535
H	-0.3334863547	 2.1507457554	-0.7755061637	 0.118553
H	-0.5793306609	 1.9133511683	 0.9524438745	 0.118927
H	 0.1961998716	-0.4291494168	 0.8309443544	 0.105121
H	-1.1691642284	-0.1793821473	-0.2212904573	 0.10515
H	 0.4344071445	 1.1207141687	-2.659781238	 0.125674
H	 0.7426852906	-0.4233174697	-3.4591424633	 0.14719
H	-0.8570430951	-0.0826952753	-2.7659028267	 0.118786
H	 2.555948798	-0.7107715678	-0.1348517544	 0.118788
H	 2.7702030775	-0.7949187649	-1.8962983343	 0.147208
H	 2.4318723979	 0.7537474013	-1.1182353825	 0.125663
H	 0.7484235489	-4.014889697	-2.1809300462	 0.112658
64.6569	78.0643	104.4861	172.1624	184.4263	226.027	234.0076	263.4753	301.3937	324.761	343.4687	365.9058	427.5702	511.889	608.4124	647.0128	661.0917	781.6174	812.7243	934.6503	949.4656	993.0777	1007.7265	1029.9528	1067.5573	1073.3987	1126.8561	1204.2802	1239.7512	1272.6396	1322.2917	1369.9911	1377.4167	1393.7282	1410.8166	1422.4737	1477.2307	1484.2741	1494.3733	1506.7918	1510.3527	1515.1479	1522.6287	1783.0691	1824.117	2913.3018	3039.5156	3041.3181	3042.4933	3045.9468	3072.7163	3105.1439	3107.619	3112.1517	3115.182	3143.104	3145.7947
CCC(C)(C)C(=O)C=O	CCC(C)(C)C(=O)C=O	
InChI=1S/C7H12O2/c1-4-7(2,3)6(9)5-8/h5H,4H2,1-3H3	InChI=1S/C7H12O2/c1-4-7(2,3)6(9)5-8/h5H,4H2,1-3H3
