20
gdb 7841	3.72517	1.07196	0.97313	1.7368	71.43	-0.2507	0.0652	0.316	1282.8523	0.174413	-386.126042	-386.116477	-386.115533	-386.160958	34.474	
C	-0.1477093568	 1.5434226658	 0.0777110598	-0.401449
C	-0.2712872067	 0.0285121301	-0.080513347	 0.141483
O	 0.9768630611	-0.6205606695	 0.1615296664	-0.42988
C	-1.3871388894	-0.559172975	 0.7981905697	-0.250926
C	-1.5528440423	-2.0480713002	 0.6032762911	 0.070568
O	-2.6919751864	-2.6704729753	 1.2106701677	-0.272534
C	-2.6001831692	-2.6815222868	-0.2189162733	 0.083358
C	-3.6684665897	-1.949206507	-0.9902654649	-0.421107
H	 0.6709757705	 1.9221612651	-0.5400462147	 0.125372
H	-1.0714792803	 2.0514763116	-0.2170897626	 0.117855
H	 0.0588087421	 1.8091825133	 1.1222860721	 0.108251
H	-0.4912812694	-0.2031966166	-1.1301893405	 0.092533
H	 1.2569985522	-0.3891665282	 1.054570684	 0.276974
H	-1.1439744552	-0.3680232374	 1.853975318	 0.096126
H	-2.3283637471	-0.0369998803	 0.6021790764	 0.103332
H	-0.6256426614	-2.6076526295	 0.7286061211	 0.096931
H	-2.3587667005	-3.6662529037	-0.626515774	 0.086169
H	-3.885484667	-0.9685525129	-0.5623172656	 0.125721
H	-3.3634365858	-1.817753866	-2.0343678207	 0.120827
H	-4.5979179286	-2.5284399676	-0.985587883	 0.130396
38.4227	73.4448	141.462	180.834	230.4666	252.7226	298.1551	332.052	344.6631	416.2258	459.7247	492.1886	538.234	774.1014	797.3347	848.122	910.1766	936.2972	967.0245	995.8458	1033.3919	1068.4765	1094.6122	1125.7971	1155.1297	1166.1352	1187.5853	1216.8011	1290.0406	1304.2968	1326.3514	1374.3893	1397.8441	1401.9587	1417.7957	1423.1874	1469.5691	1473.1574	1490.4077	1492.437	1496.8395	1512.552	3004.3539	3023.2225	3037.6891	3037.9042	3075.0607	3083.257	3095.6679	3097.6905	3113.0638	3119.6892	3133.1821	3791.389
CC(O)CC1OC1C	C[C@@H](O)C[C@H]1O[C@H]1C	
InChI=1S/C6H12O2/c1-4(7)3-6-5(2)8-6/h4-7H,3H2,1-2H3	InChI=1S/C6H12O2/c1-4(7)3-6-5(2)8-6/h4-7H,3H2,1-2H3/t4-,5+,6-/m1/s1
