19
gdb 90298	3.13152	1.24306	1.12155	1.419	78.06	-0.2409	0.005	0.2459	1148.1817	0.15976	-422.999707	-422.991582	-422.990637	-423.032306	32.294	
O	 0.1399306662	 1.4270573215	 0.0360123627	-0.421825
C	 0.0674349929	 0.0237461039	 0.0223729507	 0.114518
C	 0.1482692345	-0.6372243705	 1.4585995019	-0.354067
C	-1.3614650299	-0.6504156498	 1.3947977606	 0.281446
C	-2.4791467332	-0.2165407096	 1.9693531356	-0.311309
C	-3.5267464107	 0.0780452045	 0.8908891122	 0.132423
O	-4.3350993942	 1.2080683103	 1.1763958601	-0.428225
C	-2.6692720242	 0.2216341123	-0.4131198549	-0.293153
C	-1.393334371	-0.5763045589	-0.1076335312	-0.06277
H	-0.4453145823	 1.746865165	 0.7337178186	 0.276543
H	 0.8030635406	-0.3113273758	-0.7118958223	 0.091744
H	 0.595211188	-1.6354421657	 1.4099673467	 0.117871
H	 0.6405467621	-0.0593440264	 2.2450616776	 0.112473
H	-2.6709849634	-0.0232232195	 3.0186790196	 0.099637
H	-4.2497545957	-0.741763884	 0.7929504833	 0.096459
H	-3.7468573448	 1.9609661931	 1.3047624646	 0.267968
H	-3.2052773142	-0.1003516691	-1.3089798402	 0.103721
H	-2.4202805014	 1.2834448358	-0.5429409788	 0.096839
H	-1.3542278394	-1.548766017	-0.6104486469	 0.079707
74.2088	143.5407	233.2362	310.0708	328.0088	364.4564	386.6779	419.5248	485.7324	531.8937	571.1777	649.8194	770.5686	788.1204	819.8236	839.7594	855.5911	926.8424	948.8532	973.289	1028.5248	1037.1822	1053.9051	1064.8084	1117.8684	1131.3511	1157.4554	1168.9904	1204.5316	1235.2701	1246.5221	1257.3372	1281.1324	1308.849	1322.8472	1337.5343	1425.8	1429.6716	1469.2921	1482.8802	1727.4148	3022.2019	3029.8131	3043.8955	3050.8527	3092.6485	3104.5241	3109.0461	3198.7162	3774.524	3789.9989
OC1CC2=CC(O)CC12	O[C@H]1C[C]2[CH][C@@H](O)C[C@@H]12	
InChI=1S/C7H10O2/c8-5-1-4-2-7(9)6(4)3-5/h1,5-9H,2-3H2	InChI=1S/C7H10O2/c8-5-1-4-2-7(9)6(4)3-5/h1,5-9H,2-3H2/t5-,6-,7+/m1/s1
