19
gdb 89747	2.46655	1.56452	1.14324	1.7268	75.76	-0.2515	0.0537	0.3053	1124.0161	0.157587	-422.974261	-422.965713	-422.964768	-423.007384	32.541	
C	-0.7128198899	 1.221216265	-0.0406830109	-0.415586
C	 0.145136574	-0.0345279933	-0.0307828863	-0.07224
C	 1.5259365571	-0.0070751946	-0.7751968455	-0.365691
C	 2.1506077478	-0.7002467462	 0.442141213	 0.389796
C	 3.0200407312	-1.8730453927	 0.5298765539	-0.264431
O	 3.4775789156	-0.5627808708	 0.9068907102	-0.278131
C	 0.9114829554	-0.4063547796	 1.2533324126	 0.376719
C	 0.8435538165	 0.1614438174	 2.6004445425	-0.264533
O	 0.435224871	-1.1905387975	 2.3271557656	-0.282054
H	-0.1377925194	 2.0945263943	 0.2854392045	 0.117334
H	-1.0955928454	 1.4278913033	-1.0455854628	 0.120599
H	-1.5750320694	 1.1154476791	 0.6265372702	 0.124807
H	-0.4410714183	-0.8999478706	-0.3579873945	 0.091238
H	 1.5847851233	-0.5296080772	-1.7316040945	 0.11188
H	 1.9076612091	 1.0109372304	-0.8970606758	 0.117626
H	 2.8864735509	-2.5726202549	 1.352871972	 0.129185
H	 3.4701144891	-2.2802003709	-0.3744491241	 0.116996
H	 1.7608551101	 0.2623747762	 3.1773489426	 0.128899
H	 0.0379907713	 0.8450748826	 2.8630406373	 0.117586
71.5485	177.8714	198.7295	216.2903	221.4626	253.7693	341.7524	407.3924	470.5548	530.2921	575.7325	606.9505	773.3938	844.1181	860.3864	879.1134	891.1143	922.1242	942.1911	955.8365	1052.397	1092.4229	1118.606	1123.9959	1126.835	1132.6726	1156.9062	1164.4805	1174.6735	1205.027	1246.8172	1263.4224	1366.3206	1398.7434	1413.2941	1453.369	1483.2551	1494.5087	1498.4387	1527.6351	1539.0686	3029.1291	3051.185	3062.7792	3086.082	3088.5581	3097.9385	3100.7287	3122.4664	3179.3197	3181.1088
CC1CC2(CO2)C11CO1	C[C@H]1C[C@]2(CO2)[C@]21CO2	
InChI=1S/C7H10O2/c1-5-2-6(3-8-6)7(5)4-9-7/h5H,2-4H2,1H3	InChI=1S/C7H10O2/c1-5-2-6(3-8-6)7(5)4-9-7/h5H,2-4H2,1H3/t5-,6-,7+/m0/s1
