19
gdb 110067	1.74926	1.54054	1.0933	3.0102	74.31	-0.2454	-0.028	0.2175	1197.1312	0.156124	-460.151577	-460.141506	-460.140562	-460.186313	36.681	
C	 2.4703011313	-0.8109446969	-1.9069720811	-0.470434
C	 1.4172358973	-1.1664384951	-0.8861567037	 0.404194
O	 0.8931134222	-2.4558959967	-1.013473499	-0.452679
C	 1.4732542949	-0.7036343112	 0.5165246571	-0.102648
C	 2.6276534707	 0.1082487791	 1.0670350987	-0.102773
O	 3.7964097789	-0.6864190049	 1.2224324515	-0.414758
C	 0.383135331	-0.1015410358	-0.3930925655	-0.21779
C	 0.3906227613	 1.2931362227	-0.8683753282	 0.141308
O	 1.3647516237	 1.9932769344	-1.0537953901	-0.281526
H	 2.7640601455	 0.2359348387	-1.8378940922	 0.165443
H	 3.3512270732	-1.4410291932	-1.7572097888	 0.142427
H	 2.0872050309	-0.9828029262	-2.9205207177	 0.103733
H	 0.6154776629	-2.576478998	-1.9287453709	 0.284392
H	 1.0578082237	-1.4230578604	 1.2200205303	 0.101533
H	 2.8925726961	 0.9184505558	 0.3882114719	 0.147893
H	 2.3253217248	 0.569681698	 2.0194493256	 0.091034
H	 3.5941390752	-1.3977829812	 1.8388489067	 0.282231
H	-0.6087420185	-0.5136930291	-0.2409013791	 0.098373
H	-0.6261105951	 1.6929848199	-1.0815841654	 0.080047
78.3702	126.5179	141.5465	183.4156	200.74	226.4267	249.0887	303.1198	332.4502	353.4334	403.3099	427.2385	468.0943	525.9762	667.9413	744.5399	811.8759	833.0657	937.8747	974.3167	1017.8247	1036.965	1055.9523	1061.585	1085.0035	1103.1144	1131.016	1181.6158	1243.005	1276.4839	1347.3123	1360.8493	1387.8189	1417.3109	1418.4973	1436.9045	1457.9352	1495.4482	1511.5602	1525.5673	1783.0938	2875.9319	2990.0774	3031.5431	3104.8159	3122.8705	3142.578	3161.2695	3171.1866	3794.4588	3811.5451
CC1(O)C(CO)C1C=O	C[C@@]1(O)[C@@H](CO)[C@H]1C=O	
InChI=1S/C6H10O3/c1-6(9)4(2-7)5(6)3-8/h2,4-5,8-9H,3H2,1H3	InChI=1S/C6H10O3/c1-6(9)4(2-7)5(6)3-8/h2,4-5,8-9H,3H2,1H3/t4-,5+,6+/m1/s1
