20
gdb 80752	3.53285	1.02145	1.01442	1.6881	79.77	-0.226	-0.0233	0.2027	1266.2005	0.170941	-403.136742	-403.127944	-403.127	-403.170921	32.35	
C	 0.2018045273	 1.847638662	 0.0966804934	-0.324044
N	-0.0035971547	 0.412571125	 0.0136810146	-0.084491
C	 1.0039949987	-0.5390725774	-0.4228217649	-0.027428
C	 2.4818640207	-0.1718241048	-0.410285698	-0.270835
C	 2.8229778798	 0.2865058022	 1.0397777052	-0.065358
C	 1.6324369189	-0.1854323628	 1.927968048	-0.27086
C	 0.4924802371	-0.5472853666	 0.9852732087	-0.027426
C	 4.1268131297	-0.3206887564	 1.5097583817	 0.149787
O	 5.096339698	 0.2956207275	 1.8653138667	-0.247517
H	 1.1848494175	 2.1815339183	 0.4567578219	 0.10663
H	 0.0458882073	 2.2783243286	-0.8976120126	 0.127786
H	-0.5587125587	 2.2688263357	 0.7619914005	 0.127787
H	 0.6727972877	-1.2509159996	-1.1759277961	 0.090115
H	 3.0587831898	-1.0663071547	-0.6802974902	 0.108003
H	 2.7441182684	 0.5995229254	-1.141354507	 0.118779
H	 2.9461964456	 1.3694214596	 1.090809031	 0.102246
H	 1.9048961821	-1.0848011788	 2.496068938	 0.108005
H	 1.3613948194	 0.5773329874	 2.6648167506	 0.118776
H	-0.2421818612	-1.2656221258	 1.3428355593	 0.090113
H	 4.1259251064	-1.4388190147	 1.5032377094	 0.069933
72.2744	79.6233	96.5449	183.8332	233.0023	316.5512	345.8095	398.8289	426.5143	517.3863	699.7846	716.5726	733.4992	802.5111	844.4167	887.9686	909.0516	955.9908	981.1673	1031.6841	1032.4451	1085.8693	1088.4267	1115.4033	1138.4212	1157.4547	1176.1167	1195.8518	1243.4228	1290.8635	1298.4411	1307.6079	1326.2139	1339.1257	1345.0368	1417.6191	1426.6143	1460.1094	1479.5217	1490.6856	1495.4267	1499.6212	1836.823	2829.1454	3005.666	3021.8428	3024.1215	3070.1858	3072.3318	3074.3966	3100.3534	3101.4378	3122.3274	3132.3216
CN1C2CC(CC12)C=O	CN1[C@H]2C[C@@H](C[C@@H]12)C=O	
InChI=1S/C7H11NO/c1-8-6-2-5(4-9)3-7(6)8/h4-7H,2-3H2,1H3	InChI=1S/C7H11NO/c1-8-6-2-5(4-9)3-7(6)8/h4-7H,2-3H2,1H3/t5-,6-,7+,8?
