20
gdb 99879	2.00984	1.47258	1.08513	3.792	75.67	-0.2797	0.0255	0.3052	1216.1176	0.166758	-440.28746	-440.276379	-440.275435	-440.323183	39.352	
C	-0.0470748475	 1.368097257	 0.076956045	-0.261168
O	-0.026849106	-0.0413829681	-0.0833545804	-0.278204
C	 0.6289106244	-0.5455552226	-1.235279926	 0.222052
C	 0.0004792092	-0.0651888295	-2.5542838932	-0.442002
C	 2.0615851044	-0.1451868346	-1.2056482902	 0.284822
N	 3.1588002847	 0.2127494605	-1.149192764	-0.35422
C	 0.5630331116	-2.0903679577	-1.0777429077	 0.102495
C	-0.8639612041	-2.6270811137	-0.9962645035	-0.422752
O	 1.271443614	-2.6193019135	-2.188513042	-0.432121
H	 0.9655087809	 1.7910421543	 0.0635491654	 0.138082
H	-0.6530269506	 1.8628748944	-0.6924174332	 0.117029
H	-0.497990649	 1.5545564157	 1.0535590399	 0.136626
H	 0.2109993022	 0.990692514	-2.7348698167	 0.133341
H	 0.4094084083	-0.6464735557	-3.3822637291	 0.160543
H	-1.0821734188	-0.2061837829	-2.5140350004	 0.130108
H	 1.0861305323	-2.3178390895	-0.138154119	 0.093695
H	-1.413213902	-2.1419680512	-0.1868384399	 0.141769
H	-1.3971191957	-2.4718269134	-1.9379341588	 0.126801
H	-0.8395422597	-3.7040336314	-0.7976476658	 0.110191
H	 1.4030175213	-3.560734672	-2.0439998803	 0.292913
82.1904	98.4922	138.7723	164.4082	179.1435	188.0272	216.6805	240.9645	270.9267	289.6348	337.0161	364.5328	427.543	444.4904	508.6578	576.6581	631.2805	695.3643	878.7808	898.2169	929.7979	1011.1795	1068.5891	1094.7856	1130.0169	1147.7935	1182.7016	1186.7758	1197.2568	1232.7574	1279.8148	1381.1497	1389.6423	1402.8988	1416.9871	1474.3946	1484.4958	1487.4584	1495.4177	1500.85	1507.4034	1510.5315	2351.5432	3005.5403	3009.9445	3042.9295	3061.3511	3071.6383	3110.2681	3129.132	3138.1136	3142.7235	3152.5669	3838.0949
COC(C)(C#N)C(C)O	CO[C@@](C)(C#N)[C@@H](C)O	
InChI=1S/C6H11NO2/c1-5(8)6(2,4-7)9-3/h5,8H,1-3H3	InChI=1S/C6H11NO2/c1-5(8)6(2,4-7)9-3/h5,8H,1-3H3/t5-,6+/m1/s1
