21
gdb 118917	2.50964	1.0653	0.97427	3.8679	78.29	-0.2658	0.0138	0.2796	1368.9708	0.181279	-424.265646	-424.255759	-424.254815	-424.300787	35.711	
C	 0.0184776954	 1.5823735747	-0.0759515101	-0.382165
C	 0.0409332795	 0.0520699237	-0.0259556829	-0.180931
C	-1.3630507306	-0.5440809284	 0.1487344332	-0.238296
C	-1.4259647088	-2.0790021045	 0.0766151417	 0.099702
C	-0.6071721388	-2.7810240431	 1.1610172609	-0.455073
C	-2.8438499374	-2.656413535	-0.1589148638	-0.126763
O	-2.4521789953	-3.119913514	-1.4916066912	-0.245649
C	-1.1789582183	-2.6340491388	-1.3373351591	 0.450736
O	-0.2820888718	-2.6870208354	-2.118192484	-0.335954
H	 1.027361033	 1.9887929003	-0.1940246882	 0.116841
H	-0.5856788231	 1.9422615026	-0.916051122	 0.117942
H	-0.4058990757	 2.0053655926	 0.8417124678	 0.112253
H	 0.4868035582	-0.3460820618	-0.94418548	 0.131073
H	 0.6870435341	-0.2727022817	 0.7978524482	 0.099493
H	-1.7850509004	-0.2259189163	 1.1123539133	 0.09852
H	-2.0224739021	-0.129446421	-0.6254546125	 0.103649
H	-0.9137290084	-2.4386756292	 2.1554427393	 0.121872
H	-0.7391864824	-3.8665052277	 1.1181984034	 0.12685
H	 0.4586661942	-2.5721730979	 1.0421554339	 0.144628
H	-3.1330147629	-3.4999007493	 0.4719958238	 0.120241
H	-3.6566599883	-1.9300181098	-0.2285449016	 0.121029
75.2642	87.4241	108.3848	165.6291	198.1365	228.1221	244.0492	289.666	319.8531	371.4709	413.021	548.0495	708.8087	749.7873	758.6225	775.548	862.4093	894.0372	906.5695	954.2658	964.6921	988.0928	1049.0972	1071.4944	1096.1397	1117.9342	1158.1777	1183.8826	1227.2709	1246.2424	1286.1485	1322.0777	1338.7518	1365.4757	1396.9491	1411.7313	1414.9647	1480.6833	1494.7939	1496.4295	1498.5855	1500.9869	1511.853	1518.3114	1923.1219	3004.9127	3029.2898	3034.5473	3037.1156	3042.7296	3066.0019	3074.3482	3100.0097	3103.4957	3106.07	3123.1628	3127.4059
CCCC1(C)COC1=O	CCC[C@@]1(C)COC1=O	
InChI=1S/C7H12O2/c1-3-4-7(2)5-9-6(7)8/h3-5H2,1-2H3	InChI=1S/C7H12O2/c1-3-4-7(2)5-9-6(7)8/h3-5H2,1-2H3/t7-/m0/s1
