20
gdb 8487	2.82317	1.97249	1.49032	1.6459	75.56	-0.2223	0.0851	0.3074	962.8658	0.175002	-348.983282	-348.974539	-348.973594	-349.015734	33.207	
C	-0.0861767749	 1.5199220376	-0.0443283723	-0.411912
C	 0.115272299	 0.0204020577	 0.0378806061	 0.116539
O	 1.1970825291	-0.4728478446	-0.8075124433	-0.348562
C	 1.7471240269	-1.2082259711	 0.2977071587	 0.443404
C	 2.2937113682	-2.5694754464	 0.0158351888	-0.489151
C	 2.2020331562	-0.2447594741	 1.3542417147	-0.392188
C	 0.7345388999	-0.6412370733	 1.2738304634	 0.193963
C	-0.0360688546	-1.2453584979	 2.4108017855	-0.497016
H	 0.8033046946	 2.0646838777	 0.2827871624	 0.120465
H	-0.3076593196	 1.8150793726	-1.0750018046	 0.126989
H	-0.9314921447	 1.8226347761	 0.58342733	 0.115059
H	-0.8130065618	-0.499133732	-0.2415625048	 0.072582
H	 3.1749894228	-2.5030195578	-0.6325970646	 0.131621
H	 2.5970553851	-3.0627196456	 0.9440314177	 0.120078
H	 1.5505312831	-3.1958564906	-0.4877539814	 0.125126
H	 2.7292119901	-0.6851419435	 2.1961047227	 0.106328
H	 2.5459585339	 0.7461507907	 1.0710203088	 0.108197
H	-0.4106613915	-0.4751995162	 3.0963781664	 0.121725
H	-0.8987654441	-1.8175623703	 2.0503051653	 0.117601
H	 0.5913637924	-1.9241916988	 2.9977813806	 0.119154
160.7044	170.8145	186.9467	192.1993	207.427	231.9734	309.1949	346.0185	442.4137	474.6299	542.1942	594.7788	698.9936	715.3687	826.7136	872.7064	891.8743	941.7722	972.675	974.7145	1047.3844	1054.6466	1083.1182	1105.3867	1114.0106	1141.4994	1203.5913	1234.8264	1261.5468	1333.483	1377.1755	1398.4694	1410.3411	1416.3823	1436.0998	1473.8017	1485.6516	1487.5595	1492.8042	1494.8869	1500.2338	1518.5726	2993.5195	3018.8009	3030.9098	3037.2047	3075.7001	3093.1114	3093.4276	3104.0341	3110.7888	3114.065	3121.1325	3198.5732
CC1OC2(C)CC12C	C[C@H]1O[C@@]2(C)C[C@@]12C	
InChI=1S/C7H12O/c1-5-6(2)4-7(6,3)8-5/h5H,4H2,1-3H3	InChI=1S/C7H12O/c1-5-6(2)4-7(6,3)8-5/h5H,4H2,1-3H3/t5-,6+,7+/m1/s1
