17
gdb 25082	3.19512	1.63025	1.11042	3.9942	75.81	-0.1827	0.0322	0.2148	1058.5663	0.139174	-418.042354	-418.035057	-418.034113	-418.0743	28.263	
N	-0.1338178187	 1.2853831879	 0.0505771681	-0.61875
C	-0.0529876999	 0.0182678503	 0.0497290526	 0.449408
O	 1.0935491023	-0.7612152817	 0.0636491697	-0.23493
C	 0.7202358572	-2.107555308	 0.0539061688	-0.222202
C	-0.6139704383	-2.1842183668	 0.0358930272	 0.334044
C	-1.7784201213	-3.1247348392	 0.002852712	-0.352558
C	-2.9520372758	-2.2033203889	 0.455239441	-0.218803
C	-2.5347398733	-0.7661261018	 0.0458489302	-0.16675
N	-1.0913743153	-0.8769504497	 0.0389290856	-0.094327
H	 0.7924559801	 1.7032985726	 0.0724617885	 0.221534
H	 1.5173320612	-2.8280713715	 0.0657166853	 0.145345
H	-1.9451559041	-3.4957976712	-1.0155030782	 0.129365
H	-1.6550204682	-3.9950129471	 0.6507705549	 0.12899
H	-3.9082226348	-2.4976748225	 0.0187421356	 0.11491
H	-3.0525316417	-2.2528140622	 1.5433308138	 0.124223
H	-2.9135212519	-0.4910386208	-0.946946976	 0.121094
H	-2.8662498676	-0.0032241493	 0.7545700909	 0.139406
91.4365	151.5342	189.6646	289.858	317.5968	542.0607	573.3446	591.9182	649.8046	653.3491	705.5317	715.7334	735.7836	808.0629	862.1685	889.8944	915.4168	977.8208	1000.0369	1054.6385	1082.9232	1094.2345	1177.873	1197.6772	1214.058	1232.5689	1276.3387	1303.7996	1315.1849	1340.3873	1384.4473	1445.4477	1484.9214	1498.0998	1531.4595	1717.0746	1780.5087	3022.0653	3037.467	3065.4232	3096.6647	3105.8398	3123.8459	3305.8011	3540.5782
N=C1OC=C2CCCN12	[NH][C@H]1OC=C2CCCN12	
InChI=1S/C6H8N2O/c7-6-8-3-1-2-5(8)4-9-6/h4,7H,1-3H2	InChI=1S/C6H9N2O/c7-6-8-3-1-2-5(8)4-9-6/h4,6-7H,1-3H2/t6-/m1/s1
