17
gdb 44636	3.05693	1.62619	1.46465	4.1969	71.06	-0.238	-0.0202	0.2178	942.4099	0.136562	-421.782094	-421.77516	-421.774216	-421.813678	27.535	
O	-0.2011824082	 0.2169231132	 0.577965571	-0.292895
C	-0.1261300176	 1.3296834028	 0.1525979438	 0.435375
C	-1.1415169839	 2.2917550748	-0.5025477329	-0.375275
C	 0.0209719793	 3.2938531404	-0.7675569722	-0.046408
C	 0.343668437	 4.3857227913	 0.3081408532	-0.083564
C	-0.4839923939	 4.3883977758	 1.5986711504	-0.092931
O	 0.2763291754	 3.2711512081	 2.1296733234	-0.291936
C	 1.2375750522	 3.3618403508	 1.0502780652	 0.117877
C	 1.0412234995	 2.3071350454	-0.0798930341	-0.193006
H	-1.5617156764	 1.8635737213	-1.4187536361	 0.132869
H	-1.9729823007	 2.6108904694	 0.1304769909	 0.132977
H	 0.1433076706	 3.6091014939	-1.8023298616	 0.083167
H	 0.7053560312	 5.3372903236	-0.0786929537	 0.082752
H	-0.3367489401	 5.2890268575	 2.2085621293	 0.106338
H	-1.5562950574	 4.173495244	 1.538035335	 0.109615
H	 2.2542724302	 3.5433183928	 1.4086275307	 0.085454
H	 1.9470759928	 1.9213718151	-0.5499434922	 0.089593
76.5677	147.0366	287.4542	366.3583	422.7834	441.4229	546.8118	609.4199	716.5241	728.1328	785.8275	810.5984	859.4569	889.4097	897.9795	943.4424	960.8874	999.8053	1023.0851	1044.2527	1053.1254	1072.0252	1113.229	1123.3013	1154.6711	1173.0856	1203.3042	1220.5502	1228.8667	1231.9992	1287.2826	1306.9715	1323.2196	1359.5043	1435.0858	1524.4632	1897.8688	3016.4564	3057.4044	3067.5289	3070.2556	3106.6483	3111.9369	3117.4931	3130.4525
O=C1CC2C3COC3C12	O=C1C[C@H]2[C@H]3CO[C@H]3[C@@H]12	
InChI=1S/C7H8O2/c8-5-1-3-4-2-9-7(4)6(3)5/h3-4,6-7H,1-2H2	InChI=1S/C7H8O2/c8-5-1-3-4-2-9-7(4)6(3)5/h3-4,6-7H,1-2H2/t3-,4+,6+,7+/m0/s1
