15
gdb 112237	2.0847	1.45417	0.95405	2.5987	67.32	-0.2726	-0.0069	0.2657	1192.1545	0.110746	-457.744128	-457.735434	-457.73449	-457.778069	31.317	
O	-0.0871731667	 1.4528986985	-0.2441384261	-0.415059
C	 0.0345107441	 0.0510588302	-0.1253839849	-0.080137
C	-1.2885799987	-0.5727673748	 0.2686911487	 0.106124
O	-2.2845094065	-0.3645503652	-0.7991580692	-0.26252
C	-2.4205675195	-1.7078765989	-1.0263574457	 0.461546
O	-3.081456317	-2.2521629408	-1.8441832876	-0.306829
C	-1.4664067655	-2.1102159475	 0.1286412776	-0.418139
C	-0.3294471788	-2.9453165116	-0.1860884104	 0.340752
C	 0.6142524255	-3.6398738878	-0.4513556284	-0.43824
H	-0.7385450086	 1.625047779	-0.9339864423	 0.297519
H	 0.3990462247	-0.4155899008	-1.0519613019	 0.110101
H	 0.7750979662	-0.1427275799	 0.6572622609	 0.128221
H	-1.6669000963	-0.1456349416	 1.1997265452	 0.114555
H	-2.0450120858	-2.532855422	 0.9564793553	 0.150215
H	 1.445149053	-4.2573904067	-0.6898814512	 0.211889
80.6183	108.7172	115.4801	146.2153	241.4359	350.9253	380.7476	408.6997	467.4192	486.9927	574.4568	636.4238	662.4834	701.0251	772.8611	824.0636	876.592	917.4154	1008.399	1083.5365	1090.7951	1116.9185	1135.338	1164.6308	1222.4067	1283.1527	1321.0594	1351.7938	1402.047	1432.0431	1490.2277	1950.9113	2243.1297	3007.6555	3064.9002	3085.1244	3104.1311	3500.4668	3800.5351
OCC1OC(=O)C1C#C	OC[C@H]1OC(=O)[C@H]1C#C	
InChI=1S/C6H6O3/c1-2-4-5(3-7)9-6(4)8/h1,4-5,7H,3H2	InChI=1S/C6H6O3/c1-2-4-5(3-7)9-6(4)8/h1,4-5,7H,3H2/t4-,5+/m0/s1
