13
gdb 26022	5.05955	0.99818	0.98232	2.2385	59.57	-0.2457	-0.0023	0.2434	1179.192	0.089987	-489.944041	-489.936303	-489.935359	-489.97797	27.39	
N	-0.0454208989	 1.2791214989	 0.2901451125	-0.560809
C	-0.0003181489	 0.0076373188	-0.1894148448	 0.472048
O	 0.6785789701	-0.4022709154	-1.0898749756	-0.365424
O	-0.9254677227	-0.7558289803	 0.5068779258	-0.29876
C	-0.9320949547	-2.090904996	 0.238651763	 0.359993
C	-1.8099258273	-2.7829484097	-0.5241328618	-0.128626
O	-1.467681194	-4.1033307018	-0.4255130974	-0.135378
C	-0.395024142	-4.1149676206	 0.3958458505	 0.091235
N	-0.0305973708	-2.9520896222	 0.8275233897	-0.299297
H	 0.684237826	 1.899861517	-0.0139985325	 0.275877
H	-0.4866252806	 1.4544193933	 1.1765403248	 0.272633
H	-2.6505464952	-2.5301640212	-1.1440308868	 0.15841
H	 0.0427348591	-5.0766105807	 0.6108378726	 0.158098
28.1358	72.8339	118.4864	326.4662	345.0332	391.1423	447.4938	517.2793	613.4601	640.834	685.1104	742.8212	767.9209	823.331	845.3013	927.0137	934.663	1032.6513	1090.229	1117.471	1148.0223	1244.9822	1292.5294	1344.8379	1351.482	1557.5951	1609.9016	1645.6232	1876.2281	3281.5193	3310.4715	3619.1987	3749.4603
NC(=O)OC1=COC=N1	NC(=O)Oc1cocn1	
InChI=1S/C4H4N2O3/c5-4(7)9-3-1-8-2-6-3/h1-2H,(H2,5,7)	InChI=1S/C4H4N2O3/c5-4(7)9-3-1-8-2-6-3/h1-2H,(H2,5,7)
