17
gdb 125158	2.65958	1.54464	1.03275	1.3652	76.54	-0.2331	0.0163	0.2495	1140.4122	0.137221	-417.9899	-417.981654	-417.980709	-418.023541	30.027	
C	-0.1202634156	 1.5789117379	-0.0114976299	-0.50801
C	 0.0793499924	 0.0951669624	-0.0268367396	-0.013787
C	 0.2116666094	-0.7928538005	-1.0869464063	 0.265354
C	 0.1232858819	-1.3620061915	-2.5059334538	-0.018522
O	 1.060608014	-0.9708592751	-3.4672095347	-0.414327
C	 0.3147602782	-2.7839529853	-1.8042787389	-0.205631
N	 0.3886579315	-2.0157611092	-0.5549861159	 0.084687
N	 0.3589026066	-2.0762426734	 0.7749050104	-0.306455
C	 0.1950974343	-0.7766351398	 1.0928275007	-0.049564
H	-0.4135257172	 1.9181511404	 0.9859994204	 0.128803
H	 0.7921420696	 2.1213799193	-0.285553346	 0.130044
H	-0.9027475382	 1.8909304513	-0.7110759738	 0.128739
H	-0.8567239819	-1.2608027849	-2.9785247534	 0.118357
H	 1.9159874891	-0.8778668083	-3.032638932	 0.288082
H	-0.5393527968	-3.4640384403	-1.860833822	 0.135827
H	 1.2375025554	-3.3062785535	-2.0709993852	 0.127246
H	 0.1648989472	-0.4906400896	 2.1356326702	 0.109157
48.8823	105.391	129.0234	203.954	282.2724	335.2329	392.3403	458.6268	525.2102	628.6627	654.7998	665.5423	770.1191	786.4357	855.1418	868.5289	994.6879	1001.7731	1058.2821	1065.5754	1118.2025	1134.2446	1164.4291	1194.3055	1209.1361	1261.0049	1287.369	1317.4779	1362.7787	1398.9409	1421.3357	1437.8989	1468.9219	1486.5984	1501.6264	1516.3821	1603.6951	3029.5953	3057.1572	3081.1141	3089.7472	3109.7031	3118.8637	3231.1041	3800.7608
CC1=C2C(O)CN2N=C1	Cc1c2[C@@H](O)Cn2nc1	
InChI=1S/C6H8N2O/c1-4-2-7-8-3-5(9)6(4)8/h2,5,9H,3H2,1H3	InChI=1S/C6H8N2O/c1-4-2-7-8-3-5(9)6(4)8/h2,5,9H,3H2,1H3/t5-/m0/s1
