17
gdb 85476	2.39181	1.50563	1.12149	3.4931	75.71	-0.234	0.022	0.256	1121.3872	0.136082	-417.998107	-417.989543	-417.988599	-418.031322	32.394	
C	-0.4474914054	 1.5405487534	-0.0196380907	-0.414469
C	 0.119764961	 0.1385281754	-0.072236749	 0.124879
O	 1.1943327744	 0.079171676	-1.0267940458	-0.253439
C	 2.1266946047	-0.8305534186	-0.6123835157	 0.457732
N	 3.1683442325	-1.1794810203	-1.2362620171	-0.591586
N	 1.7305349367	-1.3333679772	 0.6224170352	-0.320999
C	 0.7637509105	-0.4224151625	 1.2298410629	-0.204433
C	 1.3748154554	 0.5839592399	 2.1020446179	 0.357627
C	 1.8964429628	 1.3815048295	 2.8348030612	-0.4754
H	 0.3159404607	 2.256486691	 0.2916467662	 0.144764
H	-0.8220205012	 1.8256998193	-1.0059807947	 0.13423
H	-1.2791098467	 1.585030656	 0.690257678	 0.125712
H	-0.6503175293	-0.5767749203	-0.3890050752	 0.100641
H	 3.2142098519	-0.7110554886	-2.138237764	 0.224123
H	 2.4777994384	-1.6989493049	 1.1937708134	 0.262538
H	 0.0128648129	-0.9809922714	 1.7991046538	 0.119124
H	 2.3599384908	 2.0881478632	 3.4787686636	 0.208957
82.609	126.9726	149.1756	222.9377	252.8288	292.7448	393.8448	472.4081	487.6616	553.8356	591.9487	644.3821	663.7837	690.9567	733.6544	752.0328	798.2887	853.9764	899.0178	961.3102	972.1752	1053.8971	1103.231	1104.8654	1137.1914	1168.8464	1236.4982	1313.1673	1364.4646	1380.3511	1394.9929	1413.7018	1421.1203	1484.677	1495.7041	1791.1519	2230.932	3021.1594	3048.1907	3052.3439	3123.1052	3141.8526	3499.363	3528.5925	3627.0851
CC1OC(=N)NC1C#C	C[C@H]1O[C]([NH])N[C@H]1C#C	
InChI=1S/C6H8N2O/c1-3-5-4(2)9-6(7)8-5/h1,4-5H,2H3,(H2,7,8)	InChI=1S/C6H8N2O/c1-3-5-4(2)9-6(7)8-5/h1,4-5H,2H3,(H2,7,8)/t4-,5+/m1/s1
