21
gdb 96465	2.25588	1.83133	1.32766	2.2898	77.62	-0.2419	0.0762	0.3182	1048.8111	0.185187	-424.214879	-424.207092	-424.206148	-424.246604	32.232	
O	 0.1771636665	 1.3877954573	-0.2437684338	-0.441885
C	 0.0296315708	-0.0100449516	-0.0421379311	 0.103438
C	 0.7873121078	-0.4865234568	 1.22004952	-0.207085
C	 0.5399274085	 0.3826084549	 2.4655131709	-0.210819
C	-0.9172333931	 0.5240625335	 2.9131213358	-0.070932
O	-1.759491198	 1.0981278828	 1.9056992403	-0.263512
C	-2.3190266795	 0.1240605904	 1.062684718	 0.100536
C	-2.5425425919	 0.4895040144	-0.3714629737	-0.337463
C	-1.431881507	-0.4681500999	 0.0015877755	-0.063036
H	-0.3142629751	 1.8224642355	 0.4658724735	 0.286964
H	 0.4989857601	-0.4675440866	-0.9205117414	 0.08428
H	 0.5118375138	-1.5298386692	 1.4226911968	 0.089831
H	 1.8628202469	-0.4782484909	 1.0098903561	 0.099731
H	 1.1105452332	-0.0264543353	 3.3089015384	 0.0975
H	 0.9458388666	 1.3843037994	 2.2822421499	 0.113263
H	-1.3273897601	-0.4477115005	 3.2234955849	 0.093344
H	-0.9743113995	 1.1981362941	 3.7744255929	 0.107358
H	-3.0544128815	-0.5080360405	 1.5607246436	 0.08727
H	-3.4292877941	 0.1029732476	-0.8609758876	 0.113029
H	-2.2368474507	 1.4793326755	-0.6889494704	 0.133039
H	-1.5709642736	-1.5205025841	-0.2309834383	 0.085148
148.8812	199.9133	246.6236	287.1307	327.1926	356.3318	436.612	475.8077	500.9088	554.5854	603.1053	719.1872	747.5915	780.3739	811.3417	853.1313	886.1679	917.8438	946.6984	988.3756	1018.8151	1025.9417	1051.7632	1075.5524	1096.5149	1116.5993	1127.0432	1145.3631	1169.9083	1221.6243	1227.005	1240.5416	1295.7415	1319.0194	1333.5266	1358.4639	1383.8018	1393.1272	1396.6567	1420.6126	1450.9771	1478.7535	1484.6859	1487.842	1500.7082	3002.9875	3020.186	3030.0118	3041.3705	3063.6146	3069.0926	3078.3864	3096.7994	3140.4349	3146.1855	3234.2718	3755.9377
OC1CCCOC2CC12	O[C@H]1CCCO[C@H]2C[C@@H]12	
InChI=1S/C7H12O2/c8-6-2-1-3-9-7-4-5(6)7/h5-8H,1-4H2	InChI=1S/C7H12O2/c8-6-2-1-3-9-7-4-5(6)7/h5-8H,1-4H2/t5-,6-,7-/m0/s1
