19
gdb 78176	2.10771	1.7742	1.23301	3.9447	76.15	-0.2323	0.0194	0.2517	1088.0921	0.159909	-419.222836	-419.214249	-419.213305	-419.255886	32.628	
C	 0.0337268891	 1.6155160927	-0.001419942	-0.394342
C	 0.0039776974	 0.0854926278	-0.0279614453	 0.002795
N	 0.7413506198	-0.4736470043	-1.1530876716	-0.311755
C	 1.8740518365	-1.1847465924	-0.8408495796	 0.399359
O	 2.6767523753	-1.6326431348	-1.6303318118	-0.382358
C	 1.9098885817	-1.2919823609	 0.6695395335	-0.157513
C	 0.7281172892	-0.5223739475	 1.1795568003	-0.03799
N	 0.7923914559	-1.9578932043	 1.3390997377	-0.096887
C	-0.1086790545	-2.868120269	 0.6429849771	-0.324267
H	 1.0627444761	 1.9810348026	 0.069610313	 0.131112
H	-0.4144242444	 2.0304350994	-0.9095814097	 0.1185
H	-0.5321038727	 1.9940467587	 0.8562261877	 0.123318
H	-1.0424434126	-0.2513546331	-0.0576176374	 0.091476
H	 0.4807946864	-0.3244932814	-2.1158252015	 0.249101
H	 2.8807745243	-1.3595249134	 1.1482190125	 0.110859
H	 0.7494388258	 0.0645329679	 2.0938611743	 0.099542
H	-0.3716008524	-2.5785900412	-0.3832014552	 0.117931
H	 0.3603696141	-3.8553548816	 0.6096922429	 0.136353
H	-1.0294694649	-2.9504866452	 1.2288497452	 0.124768
93.3676	133.1687	180.6924	214.0026	242.5334	289.4689	379.5485	411.0693	448.4086	492.0787	548.1772	631.1234	683.3971	741.552	781.1192	862.5952	887.9016	936.6633	955.8219	1001.0806	1032.2819	1086.9	1101.7009	1117.7495	1149.113	1165.7188	1182.6937	1253.0007	1285.3388	1296.3781	1326.7173	1367.5154	1400.6734	1407.2401	1433.3804	1454.425	1490.6297	1492.5416	1495.1595	1505.9818	1825.9061	2996.6201	3009.8496	3035.0677	3081.5377	3107.3901	3112.73	3115.0342	3144.4645	3175.3683	3629.1434
CC1NC(=O)C2C1N2C	C[C@H]1NC(=O)[C@H]2[C@@H]1N2C	
InChI=1S/C6H10N2O/c1-3-4-5(8(4)2)6(9)7-3/h3-5H,1-2H3,(H,7,9)	InChI=1S/C6H10N2O/c1-3-4-5(8(4)2)6(9)7-3/h3-5H,1-2H3,(H,7,9)/t3-,4-,5-,8?/m1/s1
