18
gdb 69567	2.80786	1.53968	1.21372	2.0071	78.32	-0.2397	-0.0191	0.2206	1079.0189	0.146438	-401.915325	-401.90691	-401.905966	-401.948185	31.896	
C	 0.0981464501	 1.52723547	 0.096089601	-0.492334
C	-0.0147500666	 0.0404231574	-0.0430272387	 0.187651
C	-0.8944251815	-0.832978943	 0.7922133212	-0.274975
N	 0.5546767965	-0.9878890497	 0.9512253181	-0.199842
C	 0.9604003618	-1.8405156355	-0.2020109164	 0.242151
C	 2.2531954977	-2.5984622526	-0.2550544919	-0.331671
C	 0.9410511549	-3.3404416951	-0.2393133546	-0.325954
C	 0.5120985543	-0.792366309	-1.1890370384	 0.318063
O	 0.6948665045	-0.5914469707	-2.3573356114	-0.32474
H	 1.0918595909	 1.8754226944	-0.200789808	 0.137664
H	-0.6379830641	 2.0234588437	-0.5450829126	 0.139463
H	-0.0839469123	 1.8356498758	 1.1291587183	 0.133536
H	-1.3801817259	-0.3484269628	 1.6350577946	 0.128208
H	-1.4626888221	-1.6421796283	 0.3395737086	 0.124681
H	 2.8125271714	-2.5464842192	-1.1829872952	 0.138285
H	 2.8468630809	-2.600117275	 0.6519549597	 0.136465
H	 0.6594890315	-3.8447582825	 0.6792046581	 0.129803
H	 0.6001084479	-3.817574118	-1.1518389923	 0.133548
101.2209	138.5406	176.4643	200.273	222.7868	300.4488	325.58	456.7274	528.9355	537.9915	670.181	686.2373	738.4607	781.5897	822.6771	863.1102	911.2505	927.4853	963.2257	973.4039	1003.9232	1046.7166	1060.4661	1077.7388	1086.9063	1124.4287	1139.5509	1194.3273	1227.215	1273.9948	1347.125	1374.209	1416.157	1450.5388	1480.6192	1486.1466	1489.7349	1502.7657	1880.6609	3040.2304	3103.2508	3107.2649	3120.6747	3131.9131	3138.4406	3193.4711	3218.4745	3235.5152
CC12CN1C1(CC1)C2=O	C[C@]12CN1C1(CC1)C2=O	
InChI=1S/C7H9NO/c1-6-4-8(6)7(2-3-7)5(6)9/h2-4H2,1H3	InChI=1S/C7H9NO/c1-6-4-8(6)7(2-3-7)5(6)9/h2-4H2,1H3/t6-,8?/m1/s1
