19
gdb 36613	5.1602	0.81814	0.78074	1.0579	82.9	-0.248	0.0341	0.2821	1497.8016	0.157288	-385.808627	-385.799696	-385.798752	-385.843037	33.469	
C	 0.0416178463	-1.196244429	-0.0711291896	-0.421387
C	 0.0633964999	 0.0035310502	-0.1143118224	 0.279788
C	 0.0573477398	 1.4579513567	-0.1790767969	-0.235642
O	 1.3149350902	 1.9649842737	 0.2598633769	-0.291503
C	 1.3950008266	 3.3416299645	 0.1847584764	 0.481111
C	 1.6315780019	 4.0579493819	-1.1177625611	-0.33559
C	 2.6489312067	 4.1737930671	-0.0000517927	-0.137819
C	 2.1476577535	 5.1792198482	 1.0449386922	-0.217889
C	 0.8665691488	 4.3020354408	 1.259975423	-0.302138
H	 0.0289865879	-2.2573583012	-0.0311095339	 0.200415
H	-0.143276264	 1.7887274905	-1.2098817623	 0.125169
H	-0.7561409229	 1.8536049401	 0.4489290725	 0.125973
H	 1.9352253576	 3.4063724322	-1.9310672384	 0.117368
H	 1.0357973124	 4.9181926093	-1.4174789814	 0.101872
H	 3.6727665527	 3.8484875507	-0.1344885985	 0.097244
H	 2.7726170037	 5.2278241031	 1.9387467251	 0.108403
H	 1.9802004344	 6.1963575686	 0.6767391546	 0.098402
H	-0.103897119	 4.7731941192	 1.0735654014	 0.092992
H	 0.8548429534	 3.8365189336	 2.2481019052	 0.113227
42.4268	86.1422	108.4705	204.2508	263.9747	328.6045	373.1172	376.5133	442.576	505.3901	608.616	666.3804	675.7997	727.6256	789.135	858.9374	907.5017	917.7485	957.3682	962.6009	984.6775	1015.3301	1023.7566	1031.6609	1053.6196	1081.2287	1115.1749	1150.0352	1216.6389	1221.1855	1231.3238	1248.8512	1262.7955	1301.7465	1367.0375	1417.7664	1476.9124	1479.558	1498.648	1511.1438	2248.257	2977.7631	3002.5538	3044.9101	3053.9651	3098.734	3101.8244	3119.7949	3192.3305	3202.7195	3506.4743
C#CCOC12CC1CC2	C#CCO[C@]12C[C@H]1CC2	
InChI=1S/C8H10O/c1-2-5-9-8-4-3-7(8)6-8/h1,7H,3-6H2	InChI=1S/C8H10O/c1-2-5-9-8-4-3-7(8)6-8/h1,7H,3-6H2/t7-,8-/m1/s1
