21
gdb 70887	2.30656	1.64171	1.425	1.68	83.05	-0.2182	0.0893	0.3075	1084.2712	0.18041	-387.050925	-387.041767	-387.040823	-387.083994	35.395	
C	-0.0160582864	 1.3791357918	-0.0802546366	-0.508906
C	-0.0227669181	-0.1095849772	-0.0021733446	 0.43958
O	 0.93550603	-0.8510804454	-0.7634242931	-0.369747
C	 0.1496095151	-2.0460139561	-0.4572192919	 0.383032
C	 0.2576619957	-3.1268164373	-1.4872206455	-0.504464
C	 0.4231964799	-2.2524854624	 1.0586554198	-0.271479
C	-0.3566664861	-0.9551397983	 1.2478268617	-0.212336
C	-1.1002145447	-1.1389694326	-0.079431611	 0.174578
C	-2.5445617388	-1.1369938001	-0.4596244668	-0.532012
H	 0.9222103698	 1.7848824804	 0.3134251266	 0.132115
H	-0.1278423135	 1.7187414539	-1.1150198902	 0.127614
H	-0.8380791583	 1.7952666217	 0.5101337908	 0.122413
H	 1.2966287597	-3.4653153428	-1.567882203	 0.132498
H	-0.3623314115	-3.9859798618	-1.2135996712	 0.119905
H	-0.0588597411	-2.7638439003	-2.4695315798	 0.127571
H	-0.1222631906	-3.1135369208	 1.4561306849	 0.094956
H	 1.4761735356	-2.2938972398	 1.3568026254	 0.093351
H	-0.7328176511	-0.5138865313	 2.16326343	 0.081449
H	-3.0569767797	-0.2738347456	-0.0202544424	 0.123985
H	-2.6762368399	-1.080694266	-1.5464095568	 0.124632
H	-3.0605003058	-2.0375675501	-0.1062123064	 0.121267
163.8571	176.6294	182.295	187.1995	193.1684	203.5197	281.9609	347.9763	359.8872	492.5568	574.7359	581.2903	637.3337	651.1232	746.9492	781.1069	839.4057	873.9742	892.013	926.1354	938.7393	967.6972	997.0159	1084.9997	1103.8752	1108.9456	1126.7455	1139.1931	1145.2606	1211.5776	1231.6339	1244.6657	1302.8165	1345.1656	1410.8767	1412.1258	1413.9389	1471.5542	1475.3029	1480.5803	1485.9318	1489.4983	1492.4795	1496.0717	1518.3735	3018.6849	3033.0207	3034.3966	3039.8668	3077.4548	3087.7432	3097.3282	3098.8661	3104.1775	3110.5241	3114.5691	3186.1395
CC12OC3(C)CC1C23C	C[C@@]12O[C@@]3(C)C[C@@H]1[C@@]23C	
InChI=1S/C8H12O/c1-6-4-5-7(6,2)8(5,3)9-6/h5H,4H2,1-3H3	InChI=1S/C8H12O/c1-6-4-5-7(6,2)8(5,3)9-6/h5H,4H2,1-3H3/t5-,6+,7-,8-/m1/s1
