15
gdb 126363	2.97731	1.32686	0.92824	5.7775	70.27	-0.2723	-0.101	0.1713	1203.7035	0.111509	-453.950609	-453.942475	-453.941531	-453.984237	29.055	
C	 0.0927574717	 1.5550357222	 0.0079057553	-0.379669
C	-0.0341794735	 0.0343568266	 0.0036752783	-0.288442
C	-1.4461655911	-0.4842535776	 0.0128431089	 0.319199
N	-2.4469299388	 0.3309640916	 0.0233781352	-0.364892
C	-3.7366478557	-0.190881996	 0.0316454695	 0.478327
O	-4.7387763084	 0.4548903311	 0.0416061705	-0.314588
O	-3.8903163329	-1.5947214202	 0.0280296306	-0.243298
N	-2.825498967	-2.4576591729	 0.0168730851	-0.025552
C	-1.6576445688	-1.9207196726	 0.0096566807	-0.006561
H	 1.1470095874	 1.8433672779	 0.0007219813	 0.118766
H	-0.3948242353	 1.9920029112	-0.8666070771	 0.143197
H	-0.3811843108	 1.9859692157	 0.8928495158	 0.143195
H	 0.4691093379	-0.4009120818	-0.8721480296	 0.137048
H	 0.4826222638	-0.4068872167	 0.8685715171	 0.137047
H	-0.8268743585	-2.6189655684	 0.0008854082	 0.146223
56.0429	93.6735	161.3532	180.4259	236.1311	384.9989	389.9392	506.0711	568.2832	589.952	622.3885	700.2841	792.0058	804.2495	843.6243	912.334	923.4531	993.3729	1037.667	1079.2067	1095.9205	1140.4414	1216.9644	1280.7586	1349.0637	1401.3136	1420.8228	1450.4851	1492.0932	1497.7264	1603.7966	1685.7359	1879.7593	3009.3434	3032.204	3057.4363	3131.0587	3134.9475	3191.4068
CCC1=NC(=O)ON=C1	CCc1nc(=O)onc1	
InChI=1S/C5H6N2O2/c1-2-4-3-6-9-5(8)7-4/h3H,2H2,1H3	InChI=1S/C5H6N2O2/c1-2-4-3-6-9-5(8)7-4/h3H,2H2,1H3
