20
gdb 80705	2.05583	1.56361	1.46069	2.6376	79.71	-0.2359	-0.025	0.211	1076.6519	0.168644	-403.112857	-403.103565	-403.102621	-403.146846	34.384	
C	 0.0793950704	 1.6353816997	-0.2265715209	-0.316862
N	 0.2689716088	 0.2004599807	-0.0906030263	-0.109336
C	 1.4991568451	-0.4839283186	-0.4111554522	-0.095522
C	 2.7540544962	 0.3064173801	 0.0113407826	-0.288997
C	 2.202900276	 0.3084063596	 1.4769100403	-0.14529
C	 2.0428917486	 1.5936105677	 2.2454059349	 0.13716
O	 1.0575064377	 1.8997593353	 2.8696838334	-0.251855
C	 0.9437066124	-0.4588146904	 1.0026920514	 0.328141
C	 0.2148188742	-1.4786557218	 1.8261859355	-0.49334
H	 0.9800929019	 2.2466091527	-0.0708523762	 0.09929
H	-0.2907947916	 1.8410018813	-1.236066026	 0.118683
H	-0.6721686266	 1.9632882389	 0.4955893348	 0.141041
H	 1.4808713301	-1.2750650216	-1.1541898567	 0.093244
H	 3.6745398652	-0.2709499218	-0.0891952667	 0.111185
H	 2.9005792135	 1.279313066	-0.4680109191	 0.107286
H	 2.8384644084	-0.3379188857	 2.097749264	 0.11023
H	 2.9373888962	 2.2613640612	 2.2258334083	 0.07402
H	-0.3311822446	-0.9897340849	 2.6404315537	 0.139321
H	-0.5047182039	-2.0216134449	 1.2083620377	 0.130329
H	 0.9102675923	-2.1978007535	 2.2731647676	 0.111271
64.7759	134.8567	144.5521	190.1664	215.3839	244.6063	281.3278	308.6156	360.6478	456.3849	530.7786	600.7362	682.8953	730.5544	736.4753	817.3925	887.3122	939.3752	947.535	968.5907	1014.5509	1042.6569	1078.3974	1111.9672	1135.4501	1147.0323	1164.5277	1172.4575	1194.7676	1224.652	1261.3024	1266.9258	1323.7955	1400.5113	1416.6042	1438.5702	1461.619	1476.9937	1483.1215	1496.977	1502.1236	1511.7758	1817.3141	2846.1172	2996.0559	3021.6171	3032.0871	3056.0043	3072.5806	3093.1694	3117.3088	3121.9029	3122.7231	3159.7096
CN1C2CC(C=O)C12C	CN1[C@H]2C[C@@H](C=O)[C@@]12C	
InChI=1S/C7H11NO/c1-7-5(4-9)3-6(7)8(7)2/h4-6H,3H2,1-2H3	InChI=1S/C7H11NO/c1-7-5(4-9)3-6(7)8(7)2/h4-6H,3H2,1-2H3/t5-,6-,7+,8?/m0/s1
