19
gdb 38109	2.70286	2.23665	1.57448	0.4134	84.94	-0.2203	0.014	0.2343	898.819	0.163008	-348.745384	-348.739074	-348.738129	-348.775561	27.414	
C	-0.1411421372	 1.4416775466	 0.0521279846	-0.319144
C	 1.4511215219	 1.4750713766	 0.0349131027	-0.072952
C	 2.1529335573	 0.9762715003	 1.2740251784	-0.079883
C	 2.557981611	-0.2944098425	 1.1797510487	-0.056856
C	 2.1939746965	-0.9695167608	-0.1333267657	-0.078649
C	 1.0816846867	-2.0660998461	 0.0384196954	-0.254138
C	-0.1809881117	-1.2187271114	 0.1929991883	-0.18395
C	 0.0250362586	-0.0141301341	-0.334756381	 0.244728
C	 1.436995089	 0.1756263368	-0.838130552	-0.074838
H	-0.6616669132	 1.6571276895	 0.988604732	 0.10579
H	-0.5374148252	 2.0860983016	-0.7396850847	 0.105722
H	 1.8825611684	 2.3939162729	-0.3742981241	 0.071918
H	 2.2979774112	 1.6009386971	 2.149761268	 0.088286
H	 3.067337862	-0.8328352531	 1.9737630397	 0.087503
H	 3.0745534405	-1.3599448493	-0.656657884	 0.062889
H	 1.0566030649	-2.744157967	-0.826090591	 0.100338
H	 1.2541918138	-2.6924805384	 0.9210222383	 0.099594
H	-1.0178678137	-1.5182010952	 0.8136835872	 0.087751
H	 1.584830189	 0.3017105263	-1.9125257909	 0.06589
229.3492	244.4639	329.4167	383.2063	479.0519	558.8157	664.0411	671.5705	757.3644	783.4713	811.382	816.2389	852.1231	864.1612	875.8158	916.7084	926.8749	942.5703	967.676	971.5429	985.6317	1025.8538	1035.7778	1094.0395	1113.2221	1121.0115	1150.5764	1170.8242	1209.4975	1220.9087	1241.4396	1246.8813	1291.5025	1296.4001	1318.8372	1327.3924	1376.0697	1478.5116	1483.9723	1660.8786	1711.2711	3006.4548	3038.3849	3042.0979	3055.5779	3060.3647	3088.5715	3104.2477	3165.8198	3191.7605	3192.83
C1C2C=CC3CC=C1C23	C1[C@H]2C=C[C@H]3C[CH][C]1[C@@H]23	
InChI=1S/C9H10/c1-3-7-5-8-4-2-6(1)9(7)8/h1,3-4,6-7,9H,2,5H2	InChI=1S/C9H10/c1-3-7-5-8-4-2-6(1)9(7)8/h1,3-4,6-7,9H,2,5H2/t6-,7+,9+/m0/s1
