20
gdb 59409	2.99821	1.03281	0.98696	5.1385	81.71	-0.2305	0.0312	0.2616	1318.0129	0.170112	-399.306175	-399.296299	-399.295355	-399.34054	36.726	
C	 0.1508293529	 1.2030087957	-0.3745286894	-0.317794
N	 0.0364371117	-0.145577102	 0.1720480544	-0.070013
C	 0.6970673821	-0.2682159379	 1.4709349994	-0.331799
C	-1.3177948983	-0.608208402	 0.2255422949	 0.001662
C	-2.0032924534	-1.0210333491	-1.0451083447	-0.350159
C	-1.5455792026	-2.0931732195	-0.0506333004	 0.136186
N	-0.3868456976	-2.9115300457	-0.2948068268	-0.570479
C	-2.5806997919	-2.746223287	 0.7193079034	 0.281811
N	-3.4276778733	-3.2567107742	 1.3193143717	-0.346855
H	 1.2083507404	 1.4603332736	-0.4872008337	 0.124291
H	-0.3220086944	 1.2474846796	-1.358778461	 0.125249
H	-0.3193972513	 1.9678819212	 0.2687909443	 0.102807
H	 0.2416611883	 0.3792069881	 2.241510991	 0.104973
H	 0.6423366784	-1.304484921	 1.8131171743	 0.147762
H	 1.7503834459	 0.0103779846	 1.3724882231	 0.122131
H	-1.9570455134	-0.172899688	 0.9994188053	 0.099218
H	-3.0623996597	-0.8156536496	-1.1486953568	 0.136521
H	-1.4251708088	-0.9771053904	-1.9615910298	 0.12411
H	-0.5539505981	-3.5546460031	-1.0620279811	 0.23875
H	 0.379724043	-2.2951448832	-0.551253568	 0.241628
87.5923	107.5244	141.7915	205.4381	243.1322	247.1382	277.1222	317.7712	343.7219	370.4491	384.1658	477.6782	496.8685	583.5909	598.2793	712.2254	787.521	864.9317	889.1864	915.9643	953.3723	1041.6776	1056.9481	1064.7217	1087.3543	1124.7896	1141.0118	1191.7551	1197.2663	1244.4613	1309.2824	1316.6368	1322.7945	1409.1291	1443.3927	1461.8895	1480.4352	1484.669	1496.9011	1501.8496	1515.1385	1638.6905	2352.2747	2948.7616	2955.3873	3054.036	3071.5541	3075.9429	3119.008	3125.73	3138.3865	3234.4544	3486.2964	3572.2328
CN(C)C1CC1(N)C#N	CN(C)[C@H]1C[C@]1(N)C#N	
InChI=1S/C6H11N3/c1-9(2)5-3-6(5,8)4-7/h5H,3,8H2,1-2H3	InChI=1S/C6H11N3/c1-9(2)5-3-6(5,8)4-7/h5H,3,8H2,1-2H3/t5-,6-/m0/s1
