21
gdb 61648	3.77341	0.84853	0.74596	3.8498	81.88	-0.2364	0.0293	0.2657	1544.1685	0.181494	-420.392836	-420.38283	-420.381886	-420.428435	35.832	
C	-0.1741335738	 1.3575999561	 0.0655774612	-0.34964
N	 0.0029134982	-0.0786594708	-0.0661074342	-0.031741
C	-0.0508651602	-0.9139820265	 1.1212184862	-0.212873
C	-1.4265176765	-0.9556042392	 1.7685644575	 0.013405
C	-1.6090254254	-1.5687928452	 3.1153586928	-0.256888
N	-1.8464110626	-0.1463369411	 2.9179585571	-0.073314
C	-0.9250964677	 0.7742558933	 3.5656644771	-0.320524
C	 0.2421543453	-0.6175114857	-1.2975533772	 0.153783
O	 0.3132327194	-0.0007058503	-2.3391845087	-0.342144
H	 0.5883253442	 1.7836900929	 0.7288114325	 0.122095
H	-0.0739352701	 1.793388278	-0.9285357065	 0.169094
H	-1.1629526569	 1.5985431469	 0.47061009	 0.139974
H	 0.2173112671	-1.9313237014	 0.8144609898	 0.125128
H	 0.7118337691	-0.5922484235	 1.841734269	 0.109356
H	-2.2235824115	-1.0884408112	 1.0375534943	 0.101396
H	-2.4774425624	-2.18461406	 3.3341520278	 0.119605
H	-0.7026590501	-1.8591365322	 3.6489629268	 0.105474
H	 0.1126635264	 0.4124425197	 3.6450301667	 0.100645
H	-0.9189881309	 1.7284426493	 3.0303542846	 0.125683
H	-1.2868252211	 0.960407692	 4.581717623	 0.13084
H	 0.3697185395	-1.7169134312	-1.2422551398	 0.070647
46.0078	77.0253	112.3541	175.7186	200.7502	241.6176	271.0584	313.6872	338.8317	369.3369	401.8019	410.1575	507.3102	709.4165	742.8199	794.353	875.301	917.6013	988.5945	1027.9759	1038.8339	1074.9302	1088.1776	1116.2436	1130.3058	1147.5595	1161.9381	1178.6091	1205.6752	1250.3712	1277.2133	1336.9696	1344.33	1426.2151	1430.5687	1439.2951	1443.435	1450.5508	1479.6759	1490.8788	1497.7953	1506.8381	1514.289	1522.072	1797.3251	2932.4802	2972.5383	3022.3198	3026.2429	3067.6229	3070.6952	3077.9896	3079.9801	3106.4725	3111.6083	3156.6274	3170.0495
CN(CC1CN1C)C=O	CN(C[C@H]1CN1C)C=O	
InChI=1S/C6H12N2O/c1-7(5-9)3-6-4-8(6)2/h5-6H,3-4H2,1-2H3	InChI=1S/C6H12N2O/c1-7(5-9)3-6-4-8(6)2/h5-6H,3-4H2,1-2H3/t6-,8?/m0/s1
