14
gdb 31221	2.24055	1.73087	0.99668	1.3718	72.24	-0.2375	-0.0237	0.2138	1105.5474	0.10031	-436.675499	-436.66731	-436.666365	-436.709065	29.575	
O	 0.2766122234	 1.1030460639	-0.6129765844	-0.404809
C	-0.0561218981	 0.0995430097	 0.3196136074	-0.188094
C	-1.41853494	-0.4782225813	 0.0920800072	 0.239211
C	-2.174841052	-0.7036762003	-1.0228980367	 0.064855
N	-3.3818559701	-1.3028853488	-0.6393909204	-0.30329
C	-3.2862717681	-1.4052108851	 0.640081815	 0.059446
O	-2.1269172706	-0.9278720076	 1.1651615337	-0.171126
C	-1.8377018361	-0.4140181285	-2.3658243303	 0.214887
C	-1.5262513985	-0.1734501661	-3.5045704397	-0.421028
H	 0.1742214981	 0.7406582767	-1.5012944946	 0.293737
H	 0.6905441048	-0.7129886784	 0.3291618154	 0.1174
H	-0.0306325183	 0.5618544137	 1.3117841609	 0.140018
H	-4.0005260783	-1.8134045007	 1.3374664443	 0.15819
H	-1.2724187961	 0.0406974728	-4.5135432179	 0.200603
39.6373	129.2034	167.3881	202.6077	264.4467	372.4206	409.6481	472.9343	527.0603	564.447	611.7005	645.8755	681.9579	716.2742	751.1165	835.1548	953.2935	991.6737	1072.3636	1102.6589	1119.3923	1184.8482	1238.693	1297.7335	1346.023	1385.1334	1439.4562	1494.9939	1564.4097	1619.7181	2231.6679	2957.0196	3076.6248	3280.2553	3499.6098	3783.3497
OCC1=C(N=CO1)C#C	OCc1c(nco1)C#C	
InChI=1S/C6H5NO2/c1-2-5-6(3-8)9-4-7-5/h1,4,8H,3H2	InChI=1S/C6H5NO2/c1-2-5-6(3-8)9-4-7-5/h1,4,8H,3H2
