18
gdb 41244	2.94958	2.09698	1.68007	1.787	74.26	-0.2251	0.0597	0.2848	858.5709	0.150734	-401.851428	-401.845376	-401.844432	-401.881418	26.566	
C	 0.0078191871	 1.5272429936	-0.2273858084	-0.280163
C	 1.5566109017	 1.5279573748	 0.0896321874	-0.356493
C	 1.2609465594	 0.2677114596	 0.8972379796	 0.423174
O	 1.8749296376	-1.0308166139	 1.0948163052	-0.331599
C	 0.7542654018	-1.2502916073	 1.9656787034	 0.081883
C	-0.6846796927	-0.7743352689	 1.2692761395	-0.117548
N	-0.7922492595	 0.1731686583	 2.404844413	-0.302669
C	 0.6678923841	 0.2078567029	 2.3929241124	-0.106903
C	-0.0149713923	-0.0024119142	 0.1222683579	-0.000125
H	-0.551487592	 2.1569155612	 0.4692678718	 0.102167
H	-0.2811399052	 1.7910675313	-1.2453030127	 0.112401
H	 2.144837318	 1.3268997858	-0.8099766353	 0.121991
H	 1.9821047538	 2.3862304707	 0.6158341997	 0.104372
H	 0.8028585714	-2.135795179	 2.5937068017	 0.098015
H	-1.5222131456	-1.4490004402	 1.0977894313	 0.070317
H	-1.2619396045	 1.0474294428	 2.1751291616	 0.213325
H	 1.2277463201	 0.6697349236	 3.2058073162	 0.083022
H	 0.1744917767	-0.613705701	-0.7621298242	 0.084832
233.9609	271.8488	384.8366	484.549	515.5296	576.7148	662.826	672.1035	690.4643	742.9589	794.1987	819.0034	863.7738	878.3256	900.5622	902.4445	968.6743	985.2113	1024.2404	1033.0195	1052.1768	1059.1953	1074.8896	1082.7381	1113.6678	1157.8691	1177.5719	1197.0317	1208.9211	1218.3315	1238.9869	1261.9546	1281.1219	1297.6948	1318.4557	1343.318	1356.3253	1474.356	1490.5015	3058.6971	3069.0201	3095.0002	3110.8828	3123.639	3128.4447	3133.6035	3166.2404	3468.6713
C1CC23OC4C(NC24)C13	C1C[C@@]23O[C@@H]4[C@@H](N[C@H]24)[C@@H]13	
InChI=1S/C7H9NO/c1-2-7-3(1)4-5(9-7)6(7)8-4/h3-6,8H,1-2H2	InChI=1S/C7H9NO/c1-2-7-3(1)4-5(9-7)6(7)8-4/h3-6,8H,1-2H2/t3-,4+,5-,6+,7+/m1/s1
