16
gdb 56072	2.04808	0.8915	0.68772	1.9463	91.35	-0.1528	-0.03	0.1228	1615.2174	0.11926	-471.200679	-471.189352	-471.188408	-471.241355	36.17	
O	-0.4666892816	-1.6265591212	-0.6593124259	-0.308241
C	-0.2722370828	-0.6713978848	-0.0199623656	 0.58724
O	-0.0422278284	 0.270575888	 0.6197046278	-0.285796
C	-3.3437867833	 3.8575628206	 0.0832786233	-0.247064
N	-3.4003601359	 2.5739164999	 0.0268608883	-0.112716
C	-3.4332097322	 1.8049068938	 1.1297551923	-0.039839
N	-3.4537947792	 0.4625931081	 0.9877651556	-0.095357
C	-3.4209474412	-0.3397336474	-0.0730787455	-0.117214
N	-3.5614411447	-1.7237153918	 0.1839584761	-0.544947
H	-4.4488342467	-2.0957921446	-0.1485216897	 0.240188
H	-2.8269692542	-2.2628776096	-0.2659004092	 0.250684
H	-3.3078639376	 4.4180348612	 1.0250941228	 0.083411
H	-3.3317129362	 4.4279336902	-0.8413985345	 0.10386
H	-3.4268756578	 2.1737232504	 2.15242015	 0.085516
H	-3.5028179031	-0.0651791547	 1.8545080625	 0.267739
H	-3.3925782952	 0.123717012	-1.0510158183	 0.132535
12.2393	30.5716	48.7388	72.1778	102.2167	129.3736	156.8639	167.6996	264.7906	381.6273	402.3126	433.8725	620.5242	624.7343	666.8929	684.8192	726.6682	775.404	846.718	897.5371	937.7465	1028.034	1136.1333	1201.3954	1203.3445	1257.7494	1370.082	1371.3828	1387.4836	1456.8044	1522.4757	1623.6156	1635.8285	1674.2791	2425.2657	3028.5242	3138.227	3175.5855	3208.4579	3452.8064	3521.3036	3546.6014
[O-]C(=O)CN=CNC=[NH2+]	O=C=O.[CH2]N=CNC=[NH2]	
InChI=1S/C4H7N3O2/c5-2-7-3-6-1-4(8)9/h2-3H,1H2,(H,8,9)(H2,5,6,7)	InChI=1S/C3H7N3.CO2/c1-5-3-6-2-4;2-1-3/h2-3H,1,4H2,(H,5,6);
