15
gdb 69762	3.18123	1.50696	1.29949	3.251	63.92	-0.2554	0.0018	0.2572	969.1265	0.112481	-457.735299	-457.728212	-457.727268	-457.766709	27.928	
O	-0.1092386469	 1.4354531804	 0.0402386892	-0.454608
C	-0.0148493829	 0.0628611859	 0.0317000183	 0.40217
C	-0.251730805	-0.7800622255	-1.1809429542	-0.375722
C	-1.154655363	-0.9571240693	 0.0234406297	-0.123596
C	-0.4412140771	-1.747776895	 1.1348150741	 0.112408
O	 0.5027861356	-2.7938155927	 0.7063896868	-0.265629
C	 1.5741709979	-1.9177320026	 0.7738825914	 0.43958
O	 2.7168393235	-2.1636508434	 0.5612388402	-0.322905
C	 0.6989565167	-0.7267328454	 1.1792748959	-0.313138
H	 0.5779781786	 1.7952057776	-0.5323408928	 0.296078
H	-0.7304318416	-0.2399525406	-1.9916208628	 0.126057
H	 0.4276854446	-1.5658890802	-1.4962236164	 0.146163
H	-2.2247301932	-0.8100943059	-0.0408996418	 0.106776
H	-1.0163924165	-2.0627184037	 2.0021397719	 0.108899
H	 0.9587693992	-0.1447192295	 2.0598958605	 0.117468
139.1069	162.6037	270.0678	297.8278	386.1031	431.3889	475.8944	531.0191	611.7154	697.8651	747.796	790.2165	807.2973	860.4122	899.7185	905.0024	962.8538	971.0416	988.0725	1026.133	1064.2758	1084.0656	1094.9441	1154.004	1178.5765	1195.7574	1256.4429	1265.4398	1308.563	1321.6675	1411.5649	1499.9092	1931.7722	3126.8002	3148.3832	3160.879	3202.8631	3215.7859	3789.607
OC12CC1C1OC(=O)C21	O[C@]12C[C@H]1[C@H]1OC(=O)[C@@H]21	
InChI=1S/C6H6O3/c7-5-3-4(9-5)2-1-6(2,3)8/h2-4,8H,1H2	InChI=1S/C6H6O3/c7-5-3-4(9-5)2-1-6(2,3)8/h2-4,8H,1H2/t2-,3-,4+,6+/m0/s1
