14
gdb 128014	2.67264	1.6148	1.0153	2.2224	72.81	-0.2639	-0.0598	0.204	1097.3459	0.099529	-466.105864	-466.097425	-466.096481	-466.140317	29.38	
C	-0.1733605054	 1.4400241866	 0.1282209639	-0.332614
N	-0.2096980828	-0.0111731809	 0.1701682449	-0.241804
C	 0.6053214372	-0.6473517004	 0.882246081	 0.417067
O	 1.5365873244	-0.0028808654	 1.6805151104	-0.309425
N	 2.6527469725	-0.6738290605	 2.2842196089	 0.02587
N	 2.6582009019	-1.9075822012	 2.2910627884	-0.018664
N	 1.6522675808	-2.6238723912	 1.7455860264	-0.293827
C	 0.6100314861	-2.1342855525	 0.9518769263	 0.316687
N	-0.250164827	-2.8476277933	 0.3530369319	-0.474392
H	 0.8247912683	 1.8610807087	 0.2899691218	 0.135451
H	-0.5610874698	 1.7693173532	-0.8388247825	 0.134688
H	-0.8382372961	 1.8424604413	 0.9026319478	 0.142264
H	 1.8064532119	-3.6194312547	 1.8057352036	 0.278533
H	-0.096891352	-3.8459797598	 0.5119175972	 0.220164
42.2782	74.7139	84.3487	201.8508	213.2029	355.1882	486.8548	507.0222	512.6653	539.4342	560.7384	630.7395	684.4951	754.3268	858.9581	866.3474	952.0127	1046.3258	1057.9055	1106.8984	1124.3314	1164.7887	1195.1495	1368.3094	1435.041	1458.0829	1482.3652	1498.6393	1621.8584	1736.7566	1773.2391	3022.0436	3082.046	3114.083	3453.1139	3622.0976
CN=C1ON=NNC1=N	C[N]C1=C(NN=NO1)[NH]	
InChI=1S/C3H5N5O/c1-5-3-2(4)6-7-8-9-3/h1H3,(H2,4,6,8)	InChI=1S/C3H5N5O/c1-5-3-2(4)6-7-8-9-3/h1H3,(H2,4,6,8)
