20
gdb 109001	3.59419	1.07058	1.02124	2.2117	81.12	-0.2182	0.0098	0.2279	1273.2059	0.172385	-403.107529	-403.099296	-403.098352	-403.140485	32.419	
C	 0.2185256448	 1.5067326118	-0.1436008749	-0.373912
C	-0.0311150358	 0.012503803	 0.1296911854	-0.315625
C	 0.6749865265	-0.4922414711	 1.3449454831	 0.357012
C	 0.2197708454	-1.0176403979	 2.494597282	-0.227036
C	 1.5002541762	-1.4043586537	 3.2257639202	-0.101256
N	 2.443541021	-0.2578953542	 2.9656605524	-0.335044
C	 2.1926143205	-0.6175052813	 1.5256679323	-0.162707
C	 2.2865572427	-2.1157343481	 2.0450369355	 0.217596
O	 3.553647776	-2.5971366895	 2.3324156403	-0.446972
H	 1.2855998183	 1.7147253433	-0.2724767508	 0.120855
H	-0.2970218258	 1.8269882007	-1.0540979218	 0.115508
H	-0.1434001865	 2.120812287	 0.6869020087	 0.120003
H	-1.1070473587	-0.168826475	 0.2327078979	 0.105586
H	 0.2968888659	-0.564601612	-0.7464268503	 0.109787
H	-0.796159451	-1.2181989422	 2.8061256615	 0.101319
H	 1.4592181607	-1.8142526382	 4.2349861014	 0.069503
H	 2.0328470212	 0.6432140304	 3.2161166269	 0.202531
H	 2.8707498591	-0.2167430263	 0.7710350018	 0.067731
H	 1.746152201	-2.8734685974	 1.4767992968	 0.087835
H	 3.9857589285	-1.8911529892	 2.8354677415	 0.287284
71.7979	120.386	184.5607	248.3674	298.6827	359.7484	390.5453	499.1338	541.3009	593.493	609.2442	663.3796	766.8948	791.5728	800.9684	844.6145	892.2923	899.609	932.7319	942.5559	961.8268	1032.587	1055.3034	1076.0882	1087.9555	1100.1117	1151.5541	1186.5694	1201.114	1210.2884	1233.8906	1268.5337	1286.584	1306.8754	1312.6128	1329.7272	1351.3822	1409.0376	1439.9099	1477.3061	1497.8381	1505.7719	1663.9696	3008.4855	3036.6383	3058.7815	3106.9732	3110.1671	3111.8493	3118.2438	3124.5911	3225.2431	3435.1449	3733.603
CCC1=CC2NC1C2O	CCC1=C[C@@H]2N[C@H]1[C@H]2O	
InChI=1S/C7H11NO/c1-2-4-3-5-7(9)6(4)8-5/h3,5-9H,2H2,1H3	InChI=1S/C7H11NO/c1-2-4-3-5-7(9)6(4)8-5/h3,5-9H,2H2,1H3/t5-,6+,7-/m0/s1
