21
gdb 119317	2.25682	1.19101	0.91938	3.2022	79.94	-0.2391	-0.018	0.2211	1366.4011	0.180486	-424.213366	-424.203381	-424.202437	-424.24908	35.318	
C	 0.042098451	 1.4694940029	 0.2999725023	-0.226988
O	 0.0287786839	 0.0609845818	 0.2761480357	-0.237805
C	-1.2257851893	-0.4766011761	-0.0828756577	-0.134402
C	-1.1248124376	-1.9995612188	-0.0951572675	 0.227636
C	-0.8584282415	-2.5895786539	 1.340358126	-0.258423
C	-2.3588507247	-2.9797651775	 1.4257716161	-0.20683
C	-2.5023795474	-2.7143259946	-0.0968579339	-0.283836
C	-0.1258339374	-2.4706343932	-1.1273755763	 0.090789
O	-0.2933927716	-3.4166952932	-1.8580602022	-0.261428
H	 1.0466933881	 1.7819798057	 0.5941268307	 0.131553
H	-0.1896679871	 1.896658682	-0.6880193611	 0.108718
H	-0.683051195	 1.8700166081	 1.0256476001	 0.106774
H	-2.0005662836	-0.1596452818	 0.6363107067	 0.090575
H	-1.53775398	-0.1059510086	-1.0753718529	 0.094942
H	-0.1968447043	-3.4590736341	 1.3139388277	 0.113633
H	-0.4706227399	-1.8765194944	 2.0696465323	 0.115334
H	-2.5798012541	-3.9922270124	 1.7696997627	 0.105256
H	-2.9373462965	-2.2796413059	 2.0337770353	 0.103633
H	-3.3581259662	-2.1164793203	-0.4223563819	 0.096232
H	-2.4563107402	-3.6220982738	-0.7011756934	 0.13035
H	 0.8193374932	-1.8880971319	-1.1506927088	 0.094287
60.842	84.5812	100.5359	121.8794	156.3857	228.3115	254.3308	287.0227	320.3369	376.3623	393.7021	622.9736	673.0705	742.3654	795.3241	860.7574	896.5474	934.5137	949.7653	977.6159	989.2041	992.9148	1075.694	1124.8672	1156.3485	1177.8958	1194.289	1206.7056	1215.5972	1233.8211	1256.5463	1264.5536	1275.2981	1278.4239	1326.6025	1411.4964	1417.1027	1478.1281	1481.2972	1485.8459	1486.0722	1501.2206	1508.0867	1525.4264	1815.508	2914.0065	2943.3207	2972.6182	2975.1625	3020.3259	3060.8669	3065.9303	3070.2508	3107.5015	3118.3372	3126.22	3133.5361
COCC1(CCC1)C=O	COCC1(CCC1)C=O	
InChI=1S/C7H12O2/c1-9-6-7(5-8)3-2-4-7/h5H,2-4,6H2,1H3	InChI=1S/C7H12O2/c1-9-6-7(5-8)3-2-4-7/h5H,2-4,6H2,1H3
