16
gdb 70499	2.74117	1.54677	1.11229	4.5057	76.49	-0.2651	-0.0541	0.2109	1076.8948	0.124062	-400.764116	-400.756196	-400.755252	-400.796468	29.925	
C	-0.1098702142	 1.5334452526	 0.0055127634	-0.503023
C	 0.1143331456	 0.0499757982	-0.0082153696	 0.29252
O	-0.7076217083	-0.7490048023	 0.8689890042	-0.284695
C	 0.7100231775	-0.7736090164	 1.0618030823	-0.021014
C	 1.3978018753	-1.9807888198	 0.4379769531	-0.291994
C	 1.0972512436	-1.8254726073	-1.0328243871	-0.172663
C	 0.4180704722	-0.6958413812	-1.2900105397	 0.191887
C	 0.000749972	-0.2389176297	-2.5676277888	 0.203389
N	-0.3481138608	 0.1736534869	-3.592640843	-0.343876
H	 0.7496955419	 2.0611559777	-0.4196191588	 0.135259
H	-0.9909562008	 1.7956060755	-0.5888869037	 0.150305
H	-0.2689400021	 1.8801494334	 1.028825945	 0.136853
H	 1.0634430562	-0.3556641845	 2.0005375555	 0.10447
H	 2.4787910613	-1.9731526933	 0.6279646516	 0.129541
H	 1.0112379138	-2.9261787386	 0.8372974436	 0.142212
H	 1.3789510168	-2.5605412211	-1.7769923479	 0.130826
120.6287	137.0804	184.4401	243.8961	284.2649	336.8788	436.2631	454.486	516.7917	547.6464	653.1655	678.7069	743.802	810.1454	833.392	871.244	924.4456	954.1117	992.77	1037.6617	1067.6378	1111.4479	1131.4216	1184.3501	1234.1861	1296.1332	1315.2274	1325.8769	1411.7032	1442.2253	1451.3234	1482.4927	1491.9785	1659.1724	2336.8575	3031.7407	3043.9865	3067.5827	3108.8234	3133.889	3152.4057	3214.6466
CC12OC1CC=C2C#N	C[C@]12O[C@H]1CC=C2C#N	
InChI=1S/C7H7NO/c1-7-5(4-8)2-3-6(7)9-7/h2,6H,3H2,1H3	InChI=1S/C7H7NO/c1-7-5(4-8)2-3-6(7)9-7/h2,6H,3H2,1H3/t6-,7+/m0/s1
