14
gdb 21056	3.9768	1.84273	1.26935	2.8419	61.36	-0.1833	0.0498	0.2331	900.294	0.107871	-412.052776	-412.044836	-412.043892	-412.085696	28.174	
C	 0.1363364453	 1.3891342673	-0.0397823656	-0.321849
N	 0.1019766268	-0.0472342979	 0.0060035699	-0.042757
N	 0.1326820029	-0.8027061798	-1.1697231574	-0.361313
C	 0.0902959938	-2.0194361754	-0.7492197738	 0.489219
O	 0.0963765796	-3.1279239991	-1.4977686272	-0.416355
N	 0.0342501948	-2.1223429963	 0.6124516126	-0.411211
C	 0.0413297193	-0.8180154386	 1.1448544853	 0.451405
N	 0.0037288131	-0.3844798853	 2.3477309158	-0.620395
H	 1.0553985588	 1.7449361798	-0.5181865631	 0.129739
H	-0.7240027029	 1.7850071673	-0.5904155087	 0.129794
H	 0.1023857588	 1.7408358462	 0.9921634318	 0.172931
H	 0.137833446	-2.8464484482	-2.4212890219	 0.321063
H	-0.0039307945	-2.9717472367	 1.1463348934	 0.275422
H	-0.0389203517	-1.1408751133	 3.023322929	 0.204306
40.2637	110.887	163.3871	287.9311	326.0438	343.0849	351.4862	417.7947	555.8278	633.5221	640.1463	673.7163	689.0095	729.2107	842.3541	1029.5863	1036.7169	1075.0433	1160.4331	1198.2688	1238.7347	1271.7041	1312.8884	1436.4714	1453.8297	1483.8173	1518.9777	1571.2628	1699.2652	1758.7232	3028.1996	3081.8294	3153.9219	3542.3678	3699.4152	3793.9684
CN1N=C(O)NC1=N	CN1N=C(O)N[C@@H]1[NH]	
InChI=1S/C3H6N4O/c1-7-2(4)5-3(8)6-7/h1H3,(H3,4,5,6,8)	InChI=1S/C3H7N4O/c1-7-2(4)5-3(8)6-7/h2,4H,1H3,(H2,5,6,8)/t2-/m0/s1
