19
gdb 71415	4.47693	1.14849	1.04514	1.016	86.07	-0.2434	0.055	0.2984	1196.0128	0.158667	-348.674118	-348.666034	-348.66509	-348.706305	32.343	
C	-0.0064277308	 1.4770737788	-0.0191069515	-0.504689
C	-0.0310853596	-0.0225551017	-0.0099543157	 0.326662
C	-1.2399148267	-0.9341392182	-0.2359652811	-0.294957
C	-0.3557257495	-2.0783351392	 0.3223974928	-0.058452
C	 0.5550867379	-0.9807319013	 1.0039926171	-0.114589
C	 1.2161721522	-0.8590485435	-0.3484849782	-0.097032
C	 0.7456744462	-2.2575007976	-0.7797906212	-0.196405
C	 1.7036816991	-3.3097721772	-0.4926415113	 0.309658
C	 2.4931568363	-4.1856088391	-0.2552591166	-0.450423
H	 0.9600889783	 1.8601377732	 0.3256569527	 0.119739
H	-0.1786853294	 1.8732394282	-1.0269053778	 0.120527
H	-0.7805826525	 1.8897201299	 0.6378556669	 0.118502
H	-2.052773806	-0.6804708053	 0.4515923437	 0.095723
H	-1.6415468113	-1.0506494323	-1.25055385	 0.085802
H	-0.7851913811	-2.9544264436	 0.8015788169	 0.081411
H	 0.9331099378	-0.8422768106	 2.0062611227	 0.089967
H	 2.1609661643	-0.3880258705	-0.5878543535	 0.0901
H	 0.3676763002	-2.3628203862	-1.8050365591	 0.089094
H	 3.1909059843	-4.9586947338	-0.049100587	 0.189363
120.0988	135.0085	211.4102	247.4953	294.8001	372.7014	431.3725	465.5181	509.0721	610.1463	615.6417	632.1579	754.9393	794.2987	825.1024	839.7032	874.9701	895.0304	925.479	932.0358	964.3774	1010.526	1024.613	1035.5657	1066.8148	1096.9076	1133.1194	1155.639	1163.6709	1193.3661	1222.1872	1238.9048	1258.2342	1301.6022	1345.1754	1404.9086	1427.1533	1486.9574	1498.0603	1504.2511	2233.2749	3014.8779	3020.4259	3024.1702	3080.8062	3084.4369	3092.9425	3149.5199	3197.0253	3224.9131	3505.2671
CC12CC3C1C2C3C#C	C[C@]12C[C@@H]3[C@H]1[C@H]2[C@H]3C#C	
InChI=1S/C9H10/c1-3-5-6-4-9(2)7(5)8(6)9/h1,5-8H,4H2,2H3	InChI=1S/C9H10/c1-3-5-6-4-9(2)7(5)8(6)9/h1,5-8H,4H2,2H3/t5-,6-,7+,8-,9+/m0/s1
