18
gdb 17427	2.62538	2.61649	1.86582	1.5935	70.5	-0.248	0.0788	0.3269	805.5092	0.154104	-347.759521	-347.752329	-347.751385	-347.79032	28.896	
C	-0.0241738785	 1.5595239296	 0.0300061538	-0.514543
C	 0.049922465	 0.0569414786	 0.0669036545	 0.28697
C	-1.230172523	-0.8189601823	 0.1810474977	-0.286474
C	-0.3306227543	-1.8842235721	 0.805209157	-0.072314
C	 1.021160203	-1.8365793202	 0.0762828652	-0.129228
C	 0.7045317426	-0.8578468931	 1.1875866581	-0.132045
C	 0.9381846199	-0.7252900678	-0.9575488059	 0.1339
O	 0.4777552041	-0.9653606901	-2.2652880763	-0.447351
H	 0.9738585201	 2.0089393789	 0.0797380067	 0.116741
H	-0.4923345138	 1.8939631886	-0.9032544986	 0.127586
H	-0.6141031881	 1.9577322208	 0.8626932281	 0.114258
H	-1.9244757933	-0.4053109119	 0.9183004397	 0.099493
H	-1.7831955324	-1.0411719955	-0.7418781678	 0.074127
H	-0.6241650569	-2.7645803164	 1.3623101817	 0.086529
H	 1.7079553523	-2.6728787461	 0.1108746393	 0.085137
H	 1.2207583956	-0.6471602407	 2.1121061465	 0.091266
H	 1.9039004091	-0.2214452465	-1.0664015625	 0.083531
H	-0.2682437514	-1.570844444	-2.2117863471	 0.282417
180.3329	195.6921	245.1586	294.9005	300.989	340.7345	507.3766	587.3731	613.2266	715.5095	761.8273	793.8914	811.5406	819.5149	916.0279	930.5328	931.5008	989.1876	997.6634	1001.7362	1033.134	1043.7846	1115.5747	1130.7111	1141.7049	1160.055	1188.828	1220.1504	1233.6148	1271.9166	1313.984	1344.8738	1364.4801	1412.3515	1435.0933	1489.0237	1492.8586	1506.9715	3008.5903	3023.0907	3067.046	3084.5254	3089.2987	3091.5652	3191.5495	3199.296	3231.3697	3823.782
CC12CC3C(C13)C2O	C[C@]12C[C@H]3[C@H]([C@@H]13)[C@H]2O	
InChI=1S/C7H10O/c1-7-2-3-4(5(3)7)6(7)8/h3-6,8H,2H2,1H3	InChI=1S/C7H10O/c1-7-2-3-4(5(3)7)6(7)8/h3-6,8H,2H2,1H3/t3-,4+,5-,6+,7-/m0/s1
