18
gdb 133811	4.53376	0.55916	0.55307	2.7798	62.57	-0.261	0.0804	0.3414	1962.0148	0.142293	-570.592526	-570.582549	-570.581605	-570.62915	34.103	
C	-0.0299288936	 1.399490882	 0.0389696835	-0.229511
O	-0.0018834251	-0.0072520202	 0.0108625601	-0.229941
C	 0.6461554179	-0.5224719681	-1.128089777	-0.054645
C	 0.6148407172	-2.0427558054	-1.0467257605	-0.207827
C	 1.2993908929	-2.6978272161	-2.2489114269	-0.33676
C	 1.2745969995	-4.2101801383	-2.179888614	 0.286397
F	 0.0188646998	-4.687188258	-2.1474154613	-0.08484
F	 1.881659354	-4.7553319269	-3.2464578516	-0.080856
F	 1.9024605332	-4.6695498542	-1.0843404558	-0.084846
H	 0.9845452146	 1.8291323027	 0.0502284216	 0.10426
H	-0.5676352148	 1.8157621709	-0.8279053867	 0.10425
H	-0.5494105059	 1.6979031187	 0.9525878905	 0.12983
H	 0.1445281111	-0.1751292949	-2.0492091994	 0.085471
H	 1.6888068161	-0.1602746466	-1.1772937434	 0.08546
H	 1.1061151568	-2.3594414046	-0.1214766791	 0.126575
H	-0.426447158	-2.3740988354	-0.9861755818	 0.126591
H	 0.8129819581	-2.41143617	-3.1872506047	 0.130196
H	 2.3499031161	-2.3970507255	-2.3199654734	 0.130195
49.7409	62.2314	97.2909	117.7171	140.4071	213.9903	238.9015	295.6364	360.3973	396.3842	486.4491	538.5721	570.8386	655.7846	765.6291	847.4516	871.8187	989.0652	1051.6683	1062.9635	1067.6204	1166.5022	1175.1611	1177.6966	1204.7095	1231.3707	1252.0916	1271.3514	1308.5249	1310.1666	1336.9441	1406.0197	1433.0879	1479.0376	1483.3983	1486.4516	1500.2418	1507.9239	1533.2002	2936.9944	2961.6147	2969.8922	3012.503	3051.6932	3061.783	3090.9432	3113.13	3116.5717
COCCCC(F)(F)F	COCCCC(F)(F)F	
InChI=1S/C5H9F3O/c1-9-4-2-3-5(6,7)8/h2-4H2,1H3	InChI=1S/C5H9F3O/c1-9-4-2-3-5(6,7)8/h2-4H2,1H3
