21
gdb 57604	3.31043	0.98852	0.93275	1.6806	84.09	-0.2611	0.0502	0.3113	1353.0495	0.179118	-387.040215	-387.030074	-387.02913	-387.074909	38.16	
C	-0.0851379894	 1.7005182499	 0.021065875	-0.420732
C	 0.1042162629	 0.1749478812	 0.0577677984	 0.228704
C	 0.910807216	-0.2421315244	 1.2959053313	-0.440329
C	-1.2828098406	-0.542858932	 0.0662301178	-0.370582
C	-2.131294337	-0.2097523292	 1.2030837034	 0.308664
C	-2.8260327282	 0.0714227592	 2.1436455689	-0.452472
C	 0.7837817799	-0.2533646355	-1.2392407619	 0.076782
C	 2.2157049433	-0.5376108715	-1.3917936242	-0.19272
O	 1.2573019315	-1.5988716717	-1.3338571866	-0.248263
H	 0.8825393275	 2.21176414	-0.0044728611	 0.113919
H	-0.6543412589	 2.0117084584	-0.8624004636	 0.110568
H	-0.6303602886	 2.0409631051	 0.9054463136	 0.133717
H	 0.317168841	-0.0866173589	 2.2003570872	 0.13068
H	 1.1856982504	-1.2993902049	 1.240132558	 0.131577
H	 1.8257543476	 0.350185943	 1.3921186186	 0.109496
H	-1.8157389641	-0.2955489481	-0.8615882358	 0.12308
H	-1.1096924977	-1.6255326802	 0.0413172399	 0.146243
H	-3.4485095	 0.3106858819	 2.9698440689	 0.193636
H	 0.2533647065	 0.0784561497	-2.1360295676	 0.086731
H	 2.6898163683	-0.3917601359	-2.3615375603	 0.114386
H	 2.8834721398	-0.4689357961	-0.5364960998	 0.116915
71.9009	92.1343	139.4963	216.9585	227.6311	260.772	284.3639	310.0609	348.2182	356.6659	374.6576	427.2748	503.1109	587.9174	612.6646	639.2526	734.9426	825.6272	866.7052	899.597	941.6106	949.7744	955.6963	984.7878	1022.2492	1055.7311	1103.0818	1153.531	1165.5758	1180.4436	1211.9442	1244.9266	1282.9336	1318.865	1346.8703	1393.7081	1408.3827	1440.0178	1467.3156	1488.2591	1492.8894	1505.3391	1516.3176	1532.9463	2233.5689	3017.2368	3030.5447	3042.0348	3058.4528	3069.5939	3092.9281	3096.0855	3111.0474	3117.5264	3124.1356	3181.4751	3505.8716
CC(C)(CC#C)C1CO1	CC(C)(CC#C)[C@H]1CO1	
InChI=1S/C8H12O/c1-4-5-8(2,3)7-6-9-7/h1,7H,5-6H2,2-3H3	InChI=1S/C8H12O/c1-4-5-8(2,3)7-6-9-7/h1,7H,5-6H2,2-3H3/t7-/m1/s1
