15
gdb 27975	3.71241	1.22965	0.92904	5.8335	73.07	-0.2164	-0.0212	0.1952	1197.9538	0.112029	-453.991683	-453.98348	-453.982535	-454.024651	29.792	
C	 0.0741829077	 1.4816527975	 0.0050187242	-0.48834
C	-0.0624327156	 0.0074873657	-0.0006979622	 0.328659
C	-1.1014624582	-0.8210787683	-0.1075661869	-0.21193
N	-0.6106847691	-2.1424536654	-0.0455579785	-0.138078
C	-1.408034422	-3.2803456424	-0.1264794428	 0.169541
O	-1.0278148902	-4.4165149033	-0.0782745138	-0.263378
C	 0.7894227266	-2.0790070408	 0.1062871383	 0.475969
N	 1.5932027451	-3.0416746822	 0.2007212634	-0.543646
O	 1.1047393292	-0.7321700359	 0.1317312143	-0.254685
H	 0.7175836523	 1.8197122269	-0.8147679379	 0.150785
H	-0.9058309513	 1.9505454919	-0.105571451	 0.142449
H	 0.5246351457	 1.8305301562	 0.9408024928	 0.150808
H	-2.1517657614	-0.6167347093	-0.2240022768	 0.160275
H	-2.470171277	-2.9881653464	-0.244452377	 0.086567
H	 2.5458681483	-2.6967646243	 0.3021915541	 0.235004
85.523	163.8679	176.9635	201.9803	235.9916	286.0767	313.6267	460.0301	504.814	596.474	624.4684	721.0813	747.6883	784.5457	800.6872	823.9284	966.2452	988.714	1016.8659	1048.9287	1068.1263	1162.235	1202.6373	1262.9206	1303.5704	1406.1013	1428.9942	1451.5487	1467.6489	1490.5228	1736.4258	1783.6548	1852.036	2938.55	3036.0157	3089.7185	3134.5787	3288.0668	3523.0103
CC1=CN(C=O)C(=N)O1	CC1=CN(C=O)[C@H]([NH])O1	
InChI=1S/C5H6N2O2/c1-4-2-7(3-8)5(6)9-4/h2-3,6H,1H3	InChI=1S/C5H7N2O2/c1-4-2-7(3-8)5(6)9-4/h2-3,5-6H,1H3/t5-/m0/s1
