21
gdb 63170	2.33196	1.66807	1.31072	1.2951	78.42	-0.2387	0.084	0.3227	1092.3168	0.180741	-424.215094	-424.205676	-424.204732	-424.248602	35.56	
C	-0.0259078669	 1.5464012985	 0.006218953	-0.448123
C	 0.0420135762	 0.034027917	-0.0238760867	 0.213593
C	-1.1183727925	-0.6220351182	-0.7532436774	-0.462156
C	 1.3877882915	-0.6700589477	-0.1653694401	-0.031104
O	 2.5501356523	 0.1041250377	 0.0320136436	-0.256245
C	 2.7345985783	 0.1326616278	 1.435925925	 0.010463
O	 1.448339842	 0.0847414133	 2.0196035155	-0.289452
C	 0.6645488772	-0.7273114117	 1.1500822413	 0.341448
C	 0.076045611	-1.9314558497	 1.8337521315	-0.472608
H	-0.0019933983	 1.9492900866	-1.012420306	 0.113683
H	-0.9611611656	 1.8751632657	 0.4732479042	 0.112229
H	 0.8002636784	 1.9828023925	 0.5657653124	 0.134092
H	-1.2303545589	-0.1824977792	-1.750768156	 0.121763
H	-0.9772575479	-1.6986413414	-0.8854157161	 0.11453
H	-2.0615570022	-0.472478005	-0.2155988982	 0.121182
H	 1.510608874	-1.5172246539	-0.8346356494	 0.094502
H	 3.3393759162	-0.7330133869	 1.7594380736	 0.088431
H	 3.2251291406	 1.0688194324	 1.7173513496	 0.118159
H	-0.6080401473	-1.621577682	 2.6309799884	 0.130667
H	-0.4809905848	-2.560740039	 1.1366475284	 0.121653
H	 0.8667752767	-2.5386758468	 2.2864716234	 0.123292
125.0525	164.9161	172.8457	188.541	192.8436	224.2333	285.7904	306.5737	348.6513	367.6482	476.1976	525.0883	621.7535	718.591	745.2522	748.8346	884.4542	919.0138	958.0008	973.0203	1002.1337	1015.7839	1028.6854	1054.7176	1113.4672	1122.5875	1152.5584	1161.8325	1186.9907	1216.4143	1238.5013	1259.4466	1305.7847	1402.2911	1409.1883	1415.3422	1426.7444	1436.189	1478.162	1483.7744	1488.6468	1493.4374	1504.2893	1514.2749	1538.1466	2945.2366	3026.5054	3034.4382	3038.1315	3086.1885	3088.9856	3090.4392	3097.4427	3103.1926	3130.5537	3142.5226	3155.7705
CC1(C)C2OCOC12C	CC1(C)[C@H]2OCO[C@@]12C	
InChI=1S/C7H12O2/c1-6(2)5-7(6,3)9-4-8-5/h5H,4H2,1-3H3	InChI=1S/C7H12O2/c1-6(2)5-7(6,3)9-4-8-5/h5H,4H2,1-3H3/t5-,7-/m1/s1
