15
gdb 49415	3.31575	1.79366	1.52346	3.8626	67.33	-0.2352	-0.0358	0.1994	868.4147	0.11346	-416.748786	-416.742185	-416.741241	-416.779871	25.718	
O	-0.1197531594	-0.078705623	-0.0078422399	-0.244745
C	-0.0296087028	 1.1211215149	 0.0082972197	 0.160051
C	 1.2495364767	 1.9166220404	 0.0834080528	-0.06556
C	 1.5115395076	 2.9027609793	 1.2158921956	-0.137286
C	 2.1822440519	 2.1883479336	 2.4181124063	-0.004399
N	 2.0209468706	 0.7542098719	 2.5835545181	-0.196752
C	 2.2709315828	 0.270444068	 1.4331486336	 0.02915
N	 2.5894541704	 1.2222419327	 0.3803656244	-0.190368
C	 2.9544091278	 2.4593486204	 1.1793070131	-0.036053
H	-0.9312618141	 1.7738534631	-0.070116422	 0.085856
H	 1.3507340939	 2.4340990517	-0.8801531634	 0.125981
H	 1.0999581223	 3.8986128309	 1.3189572523	 0.107837
H	 2.3033668234	 2.7860654819	 3.3121208748	 0.111133
H	 2.1853956088	-0.7780290973	 1.1801592357	 0.145723
H	 3.8895851902	 2.9823648114	 1.0249782689	 0.109434
107.9514	186.1785	203.4018	361.6239	462.8696	518.3377	667.6291	705.5077	727.1814	787.8266	822.6964	831.5804	863.9265	881.84	931.0724	970.3919	986.363	1003.5525	1030.4329	1041.2658	1060.2367	1079.8021	1091.6404	1131.2284	1196.7606	1230.0527	1282.0704	1315.9097	1341.7038	1364.1031	1415.5582	1654.8975	1831.1003	2855.5711	3022.2885	3189.8358	3198.3567	3212.7548	3237.5626
O=CC1C2C3N=CN1C23	O=C[C@H]1[C@H]2[C@H]3[N][CH]N1[C@@H]23	
InChI=1S/C6H6N2O/c9-1-3-4-5-6(4)8(3)2-7-5/h1-6H	InChI=1S/C6H6N2O/c9-1-3-4-5-6(4)8(3)2-7-5/h1-6H/t3-,4-,5+,6-/m0/s1
