13
gdb 43272	4.20301	1.21657	1.09063	3.2292	71.29	-0.2502	-0.082	0.1682	1067.6591	0.08767	-419.383714	-419.376358	-419.375414	-419.415545	28.035	
O	 0.0317429861	-0.0276213949	 0.0160871085	-0.30633
C	-0.0190904016	 1.1759892927	 0.0334498852	 0.403763
C	-1.2333339156	 2.0421409461	 0.1135025303	-0.202198
C	-0.8975398389	 3.330054092	-0.0205604065	-0.135503
C	 0.5998886768	 3.4920539342	-0.1430547123	 0.237563
O	 1.2824990245	 3.0160997296	 1.0472818417	-0.277749
C	 1.1709449834	 2.1331314927	-0.0756137175	-0.171005
C	 1.1734248414	 4.5967666084	-0.8482793271	 0.206776
C	 1.6115894984	 5.542571345	-1.4459691806	-0.363677
H	-2.2233284582	 1.636587295	 0.2750498455	 0.135768
H	-1.5656199621	 4.181909626	-0.0131029284	 0.137991
H	 2.094668194	 1.827967639	-0.55619611	 0.1311
H	 2.013016772	 6.3723624541	-1.9741691589	 0.203502
102.7154	145.1099	206.7404	325.9969	403.591	419.0746	493.4193	526.4751	581.7576	629.3667	649.1367	680.5647	721.1172	755.6057	826.5193	848.9306	885.9855	949.7666	982.959	1038.5448	1105.7008	1150.8988	1218.9008	1243.1683	1338.2355	1400.6697	1637.4559	1833.4455	2246.9199	3181.6104	3214.6818	3238.0708	3499.6437
O=C1C=CC2(OC12)C#C	O=C1C=C[C@]2(O[C@@H]12)C#C	
InChI=1S/C7H4O2/c1-2-7-4-3-5(8)6(7)9-7/h1,3-4,6H	InChI=1S/C7H4O2/c1-2-7-4-3-5(8)6(7)9-7/h1,3-4,6H/t6-,7+/m0/s1
