18
gdb 36158	4.12166	1.14345	1.11079	4.1474	78.77	-0.2605	0.0311	0.2916	1135.4944	0.149006	-364.779395	-364.771909	-364.770964	-364.81174	29.388	
N	-0.0082816087	-1.1598317215	 0.0312997256	-0.311846
C	-0.0371354758	-0.0047492154	 0.0131260271	 0.268361
C	-0.0423037586	 1.4591276531	-0.0097860314	-0.47105
C	 1.3620762064	 2.0336633556	-0.0109430378	 0.330445
C	 2.3020263444	 1.8773782419	 1.2192222934	-0.267108
C	 2.9537142419	 3.1750585308	 0.7484905488	-0.059741
C	 2.9623583941	 3.1508433325	-0.7880225731	-0.059748
C	 2.3157453281	 1.8388790314	-1.2249492044	-0.267103
C	 1.7276518776	 3.5802786572	-0.0332653933	-0.147791
H	-0.592460202	 1.7906646552	-0.8987579772	 0.150989
H	-0.6022812555	 1.8181905853	 0.8621972584	 0.150987
H	 1.7610526316	 2.0240415159	 2.1591685872	 0.099855
H	 2.9030685491	 0.9634732563	 1.2778851569	 0.104926
H	 3.6255213428	 3.8210445655	 1.2981953761	 0.090787
H	 3.6404228641	 3.7793066692	-1.3502153987	 0.090787
H	 2.9172316418	 0.923677998	-1.2480557809	 0.104926
H	 1.7853828149	 1.9557818855	-2.1750609732	 0.099858
H	 1.1358748939	 4.4839584535	-0.0508375533	 0.092466
61.6648	108.4224	277.1349	287.3422	393.7261	437.2692	440.5825	452.4521	684.3451	716.1846	755.1591	780.9037	803.4263	885.4884	896.8922	928.1986	936.8032	961.7754	973.761	992.8483	1007.1167	1027.175	1041.7079	1096.035	1096.8627	1145.8638	1148.1991	1173.5268	1239.5524	1248.8458	1259.9203	1300.9077	1313.0264	1343.5008	1367.9022	1464.0816	1491.6836	1510.0778	2361.0181	3033.2167	3035.2206	3041.7057	3070.0655	3092.1389	3095.5463	3198.7182	3204.0298	3224.1236
N#CCC12CC3C(C1)C23	N#CC[C@@]12C[C@H]3[C@@H](C1)[C@@H]23	
InChI=1S/C8H9N/c9-2-1-8-3-5-6(4-8)7(5)8/h5-7H,1,3-4H2	InChI=1S/C8H9N/c9-2-1-8-3-5-6(4-8)7(5)8/h5-7H,1,3-4H2/t5-,6+,7-,8+
