15
gdb 42714	2.62729	2.04621	1.66986	2.892	69.9	-0.2294	-0.0132	0.2162	850.313	0.112999	-420.541132	-420.534643	-420.533699	-420.57174	26.44	
O	 0.0409589911	 0.038111806	 0.3005121764	-0.29654
C	-0.0154747498	 1.2058518136	 0.1247255095	 0.344189
C	-1.10477558	 2.3366579854	-0.0480822866	-0.238392
C	-0.6702202413	 3.0658717991	 1.2421247495	-0.086019
C	 0.6872731128	 3.1531119698	 1.2208220972	-0.208288
C	 0.9749212392	 2.4926233406	-0.089878462	 0.346826
O	 1.9790523375	 2.3698935854	-1.0723336796	-0.343413
C	 0.8853114257	 2.3423571674	-2.0720964153	-0.160571
C	-0.0976143431	 2.9900351716	-1.0388618988	-0.057842
H	-2.1654175084	 2.1619939993	-0.2144734909	 0.090386
H	-1.3291922403	 3.2456735123	 2.0796126686	 0.119826
H	 1.3598224306	 3.4492571482	 2.0121273711	 0.12821
H	 1.1364735698	 2.9566246125	-2.9377856434	 0.127395
H	 0.6689525329	 1.3141505617	-2.3774122047	 0.135213
H	-0.1874635467	 4.071900847	-1.144426241	 0.099021
148.7325	245.2742	273.0859	419.5256	437.7567	542.1582	591.7393	618.6958	672.3717	733.2282	751.8961	797.2525	804.0846	854.6538	891.5759	901.4126	919.3548	960.2778	1024.6527	1041.6378	1060.1716	1102.5123	1124.4138	1152.6778	1201.6356	1221.8028	1246.3803	1309.7189	1324.8835	1350.639	1501.3316	1523.0849	1919.5381	3058.46	3110.3818	3134.9712	3146.6361	3229.7734	3252.4188
O=C1C2C=CC11OCC21	O=C1[C@H]2C=C[C@]31OC[C@@H]23	
InChI=1S/C7H6O2/c8-6-4-1-2-7(6)5(4)3-9-7/h1-2,4-5H,3H2	InChI=1S/C7H6O2/c8-6-4-1-2-7(6)5(4)3-9-7/h1-2,4-5H,3H2/t4-,5-,7-/m0/s1
