16
gdb 10878	2.83888	2.02067	1.71204	2.1756	60.9	-0.2495	0.0555	0.305	837.225	0.128878	-420.808386	-420.800726	-420.799782	-420.83982	29.464	
C	 0.0486431118	 1.4134963428	-0.0296635912	-0.524771
C	-0.0252854895	-0.0722110684	 0.09871444	 0.328358
O	 0.6075047227	-0.9188955658	-0.9682669413	-0.373612
C	 0.062000702	-1.8965305197	 0.0070196857	-0.065735
C	 0.6524972204	-1.0221594583	 1.1444971921	 0.15535
O	 2.033471791	-0.9522576235	 1.2705387944	-0.450976
C	-1.2304925013	-1.0324016813	 0.0290083161	 0.088385
O	-2.0890742642	-1.0283495876	 1.1347559698	-0.432029
H	 1.0810445877	 1.7562251829	 0.0897168637	 0.135242
H	-0.3221567841	 1.7404409033	-1.0056707919	 0.134135
H	-0.5617069921	 1.8799473606	 0.7498376107	 0.140845
H	 0.2048752799	-2.9536264648	-0.219649847	 0.091088
H	 0.2003360309	-1.0919045369	 2.1327753609	 0.105693
H	 2.3675799536	-0.9087137307	 0.3626767913	 0.286206
H	-1.7444462969	-1.010735806	-0.9378542784	 0.088279
H	-2.7425836618	-1.7247115265	 1.0183963951	 0.293543
185.8984	192.4167	205.6044	237.7123	260.943	344.9795	370.4579	464.2797	582.7126	600.1102	647.139	684.9388	760.8818	814.4596	858.269	900.7973	910.5852	960.8803	1059.2446	1110.0159	1132.899	1144.9271	1173.2931	1184.8634	1220.6777	1226.1694	1286.7379	1309.964	1323.2657	1402.8968	1425.1663	1471.0307	1478.1074	1486.6188	3040.0705	3060.0118	3114.8444	3116.8451	3117.3199	3139.6913	3737.1323	3826.2147
CC12OC(C1O)C2O	C[C@@]12O[C@@H]([C@H]1O)[C@H]2O	
InChI=1S/C5H8O3/c1-5-3(6)2(8-5)4(5)7/h2-4,6-7H,1H3	InChI=1S/C5H8O3/c1-5-3(6)2(8-5)4(5)7/h2-4,6-7H,1H3/t2-,3-,4-,5+/m1/s1
