16
gdb 126997	3.37306	1.0801	0.82658	3.1565	68.42	-0.2056	0.0107	0.2162	1346.4192	0.124014	-471.189321	-471.180451	-471.179507	-471.223852	31.383	
C	-0.0252429605	 1.5000235814	 0.0632432387	-0.392665
C	 0.0024511414	-0.015198054	 0.011938416	-0.043353
O	 0.6627239925	-0.4768916696	 1.1998177794	-0.304432
C	 0.7770305711	-1.8160827691	 1.3213707582	 0.29363
C	 1.3775377169	-2.4572529183	 2.385212238	 0.294247
O	 1.9756436967	-2.0320882837	 3.515719645	-0.4296
N	 1.2584302469	-3.7654679465	 2.078510781	-0.216818
N	 0.6228035574	-3.9416616426	 0.8958471405	-0.15335
N	 0.3348952346	-2.7440682876	 0.4452091886	-0.275006
H	 0.9892926641	 1.90720137	 0.1003781897	 0.126517
H	-0.5222564821	 1.8927324489	-0.8285179253	 0.124262
H	-0.5703756987	 1.8501543477	 0.9445419124	 0.126537
H	-1.0079821945	-0.4386341919	-0.0274300432	 0.121146
H	 0.5439705668	-0.381768948	-0.8679728074	 0.121057
H	 1.9423815247	-1.0680657532	 3.5170810067	 0.320602
H	 1.5749900527	-4.5613117735	 2.6085810918	 0.287225
51.6513	68.1406	128.7335	244.744	275.3653	280.6349	281.5803	345.9177	365.8143	534.4118	545.8337	664.734	689.494	722.0444	801.8364	812.8325	926.0016	998.0496	1057.392	1072.4698	1130.6782	1175.7202	1183.3073	1240.4017	1292.5271	1302.3482	1358.3486	1393.9835	1415.0125	1432.0028	1484.417	1498.7123	1524.2354	1583.6466	1689.3046	3031.9298	3045.5429	3068.3845	3121.8329	3122.0741	3661.5447	3812.0503
CCOC1=C(O)NN=N1	CCOc1c(O)[nH]nn1	
InChI=1S/C4H7N3O2/c1-2-9-4-3(8)5-7-6-4/h2H2,1H3,(H2,5,6,7,8)	InChI=1S/C4H7N3O2/c1-2-9-4-3(8)5-7-6-4/h2H2,1H3,(H2,5,6,7,8)
