21
gdb 98885	3.74794	0.95786	0.88282	2.9747	78.76	-0.2292	-0.0088	0.2205	1424.5656	0.182068	-424.255785	-424.246161	-424.245217	-424.291938	34.206	
C	-0.0639527551	 1.5682228712	-0.1715076689	-0.376259
C	 0.1625815825	 0.0640910638	-0.0459514023	-0.28977
C	 0.8137102794	-0.5614410771	-1.2707156732	 0.363828
O	 1.2457213026	 0.0943058394	-2.1892723299	-0.305575
C	 0.8634779935	-2.0960966706	-1.2942282927	 0.032979
C	-0.4298540174	-2.6596872337	-1.9696445323	-0.259297
C	 0.127521922	-3.5621194736	-3.0885654907	-0.209793
C	 1.5070733794	-2.9480116747	-3.3400037059	-0.078489
O	 1.9652882867	-2.5665857683	-2.0466049881	-0.2441
H	 0.877108567	 2.083226509	-0.3780576044	 0.137792
H	-0.7444804642	 1.7942756806	-0.9970392387	 0.126779
H	-0.4911684011	 1.9756689511	 0.7488991703	 0.110093
H	 0.8094333095	-0.1676829018	 0.8128920777	 0.128372
H	-0.7753328218	-0.4718731396	 0.1577578088	 0.118668
H	 0.9768817392	-2.4717384185	-0.2700773848	 0.083001
H	-1.0579036368	-3.2010919493	-1.2596737705	 0.111524
H	-1.0300681304	-1.8488449993	-2.393624468	 0.115957
H	 0.2366862054	-4.5908366586	-2.7322816534	 0.110024
H	-0.5074453322	-3.5727169152	-3.9777325647	 0.105704
H	 2.2350928954	-3.6494002908	-3.7561795293	 0.106406
H	 1.4418080365	-2.070779014	-3.997804059	 0.112154
34.5275	51.3157	67.9996	167.0772	189.5828	228.2087	250.7649	322.247	356.9054	557.4405	595.2978	657.3366	707.0547	795.3054	800.3815	868.983	910.5479	921.2529	931.771	950.4988	1003.3792	1030.0091	1035.0182	1058.01	1114.9916	1126.4211	1152.4442	1205.7498	1213.4249	1249.5717	1273.5786	1298.1191	1324.0786	1329.8387	1356.3993	1377.0962	1396.0908	1413.0641	1450.2458	1484.8677	1492.7383	1498.232	1498.4651	1521.9253	1815.69	3010.1017	3017.3189	3031.7267	3037.7041	3051.2736	3056.7916	3057.9622	3095.2986	3106.4516	3119.5536	3119.9805	3130.4088
CCC(=O)C1CCCO1	CCC(=O)[C@H]1CCCO1	
InChI=1S/C7H12O2/c1-2-6(8)7-4-3-5-9-7/h7H,2-5H2,1H3	InChI=1S/C7H12O2/c1-2-6(8)7-4-3-5-9-7/h7H,2-5H2,1H3/t7-/m1/s1
