23
gdb 67032	2.03392	1.94403	1.53953	0.3265	88.42	-0.238	0.0834	0.3214	1053.3182	0.207132	-351.155251	-351.146823	-351.145879	-351.187362	34.472	
C	 0.0025715553	 1.5404362594	-0.0766939517	-0.518081
C	-0.0022322372	 0.0433188628	 0.0012443586	 0.320037
C	 0.4811318121	-1.0231364533	-0.9695526632	-0.119866
C	 1.2266523816	-1.7632576702	 0.1373737433	-0.273365
C	 0.491855788	-0.8600825126	 1.1891600572	 0.279537
C	 1.3551881582	-0.2395455208	 2.2700695816	-0.4893
C	-0.7771326931	-1.5725251525	 1.6900622442	-0.245114
C	-1.5970577363	-1.8555191077	 0.4036311398	-0.243411
C	-0.9974739407	-0.8944159453	-0.6224898799	-0.084389
H	 0.9961950138	 1.9581613146	 0.1238637157	 0.11518
H	-0.2998557076	 1.8779887441	-1.0739386688	 0.116889
H	-0.693763918	 1.9863379289	 0.6444340977	 0.115223
H	 0.8207918205	-0.9003867159	-1.9927790274	 0.072839
H	 1.0839889827	-2.8476401117	 0.2243821014	 0.082639
H	 2.3000618079	-1.55360183	 0.1113784868	 0.092482
H	 2.2167419682	 0.2865020106	 1.8448141995	 0.111859
H	 0.7872101486	 0.4800322483	 2.8714417552	 0.111178
H	 1.7410862948	-1.0071940838	 2.9510162022	 0.113685
H	-0.544461866	-2.4814221121	 2.2561895052	 0.088892
H	-1.3335968752	-0.9043151675	 2.3593207473	 0.088521
H	-1.5084849785	-2.8999606124	 0.0842798698	 0.097283
H	-2.6636968226	-1.6610376287	 0.5523102347	 0.093833
H	-1.6224833464	-0.5153080142	-1.4249662294	 0.073449
176.5251	202.1548	208.9371	219.2046	234.5074	301.7374	350.5197	409.2747	452.4246	556.2075	596.0464	637.3627	712.3373	745.4252	806.5839	847.8866	872.8974	888.3269	928.7555	936.2632	961.4405	992.5205	993.7851	1033.5286	1056.8603	1076.1982	1100.1498	1126.2703	1129.02	1171.0859	1207.1488	1230.236	1235.3316	1239.2306	1266.8416	1284.8404	1311.7319	1322.2681	1355.1085	1408.9802	1416.663	1452.8686	1483.8095	1485.2624	1492.6491	1494.5235	1497.8243	1501.3733	1511.9782	3015.4717	3018.2135	3019.233	3024.0815	3038.6042	3064.0374	3071.4498	3079.1489	3083.1166	3084.3826	3088.5236	3090.3834	3154.6874	3166.1657
CC12C3CC1(C)CCC23	C[C@@]12[C@H]3C[C@]1(C)CC[C@@H]23	
InChI=1S/C9H14/c1-8-4-3-6-7(5-8)9(6,8)2/h6-7H,3-5H2,1-2H3	InChI=1S/C9H14/c1-8-4-3-6-7(5-8)9(6,8)2/h6-7H,3-5H2,1-2H3/t6-,7+,8+,9-/m1/s1
