21
gdb 73685	2.10131	1.93968	1.47858	1.8173	76.77	-0.2334	0.0762	0.3096	1019.5935	0.184758	-424.246308	-424.238329	-424.237385	-424.2787	31.592	
C	-0.0652414093	 1.6173332683	 0.1376564696	-0.450882
C	 0.0600480139	 0.1019369294	 0.06091595	 0.38869
C	-1.297302961	-0.6260579663	-0.0409187075	-0.121786
O	-1.1050032517	-1.9003260099	 0.5531193992	-0.248201
C	-0.3091160387	-1.6592794587	 1.706350392	-0.093691
C	 0.7335255415	-0.6010947751	 1.2929430668	-0.097611
C	 2.0380197459	-1.1767501955	 0.7093799883	-0.228175
C	 1.6996091704	-1.3298589006	-0.7760444824	-0.084575
O	 0.8811694537	-0.2061173895	-1.0726521858	-0.297098
H	 0.9225866994	 2.0764586753	 0.2315273765	 0.121116
H	-0.5312553424	 2.0077154151	-0.772778983	 0.126496
H	-0.6765942485	 1.9194173511	 0.9932285544	 0.112323
H	-2.0799252749	-0.0633100442	 0.4963003183	 0.077893
H	-1.6051216603	-0.7667151383	-1.0790303812	 0.116878
H	-0.9359354549	-1.2795273361	 2.5305602428	 0.086824
H	 0.1275018844	-2.6118243899	 2.0187104703	 0.106547
H	 0.9297630072	 0.0976731981	 2.1084975685	 0.074569
H	 2.8544766756	-0.4583295726	 0.832431496	 0.104581
H	 2.3401769101	-2.1154597164	 1.1818678739	 0.099322
H	 2.5719181949	-1.2910469046	-1.4350509663	 0.102017
H	 1.1607475349	-2.2695355199	-0.9627715005	 0.104763
71.9991	198.2399	230.8732	246.2181	266.0534	338.7864	408.2684	428.521	560.8932	601.1844	631.109	715.6869	810.1471	841.2308	860.9541	915.7929	924.5235	954.8862	973.2128	979.5613	1001.3757	1058.5095	1064.6066	1112.0868	1139.6798	1151.6159	1178.1151	1206.5307	1216.0048	1231.3934	1253.6964	1283.4869	1292.0218	1318.7336	1345.6517	1362.7802	1395.3186	1402.5239	1410.216	1484.4311	1486.7306	1492.1345	1499.5381	1515.4235	1519.837	2956.2487	2964.4177	3005.0999	3039.664	3050.4837	3082.5264	3087.9897	3088.6088	3103.4377	3109.1725	3111.805	3119.3681
CC12COCC1CCO2	C[C@]12COC[C@H]1CCO2	
InChI=1S/C7H12O2/c1-7-5-8-4-6(7)2-3-9-7/h6H,2-5H2,1H3	InChI=1S/C7H12O2/c1-7-5-8-4-6(7)2-3-9-7/h6H,2-5H2,1H3/t6-,7+/m1/s1
