16
gdb 55320	2.04156	1.6383	1.11252	4.7795	68.82	-0.2676	-0.0388	0.2288	1109.4894	0.122367	-437.888073	-437.879	-437.878056	-437.923359	31.117	
C	 0.1075714629	 1.1649347994	 0.75142971	-0.492594
C	 0.0719220011	 0.0911673576	-0.3141337317	 0.377772
O	 0.9520123489	-0.0537959316	-1.1283762099	-0.280432
C	-1.1623395541	-0.8113010546	-0.3320767978	-0.183031
C	-1.1419694186	-1.9871460318	-1.3219680653	-0.086603
O	-1.2693906227	-2.9566491145	-0.2462901907	-0.268012
C	-1.2897036415	-1.9350635198	 0.7542346916	-0.006769
C	-0.1969203643	-2.0600936513	 1.7259309863	 0.292193
N	 0.6523557181	-2.1339706346	 2.5063773258	-0.321519
H	 0.9941364679	 1.7853937371	 0.6185999965	 0.154186
H	-0.7942139175	 1.7854670827	 0.7033685181	 0.137437
H	 0.1336885721	 0.70517154	 1.7456734964	 0.167389
H	-2.0607446866	-0.1902686131	-0.3661439542	 0.114015
H	-1.9854513379	-2.0468922387	-2.0157596477	 0.116732
H	-0.1961763244	-2.0916667108	-1.8590968432	 0.147429
H	-2.2379401435	-1.919915326	 1.3056148057	 0.131808
45.9593	54.3146	106.8247	117.7941	215.6626	229.374	300.7965	378.7102	499.6429	543.8622	575.2227	612.3015	716.2745	804.202	897.0777	941.2187	965.2985	974.0661	1029.995	1061.0742	1074.3426	1100.6197	1163.1045	1188.2822	1199.4935	1257.0466	1335.9764	1346.4405	1369.1691	1388.3828	1461.9167	1476.6384	1522.6734	1814.9204	2353.4627	3030.9465	3039.2354	3055.6517	3085.5338	3102.9703	3119.0057	3157.4418
CC(=O)C1COC1C#N	CC(=O)[C@H]1CO[C@H]1C#N	
InChI=1S/C6H7NO2/c1-4(8)5-3-9-6(5)2-7/h5-6H,3H2,1H3	InChI=1S/C6H7NO2/c1-4(8)5-3-9-6(5)2-7/h5-6H,3H2,1H3/t5-,6+/m1/s1
