15
gdb 12651	3.36862	2.00325	1.31097	4.4351	63.6	-0.2562	-0.0683	0.1879	902.5194	0.11906	-399.831674	-399.8242	-399.823256	-399.8637	27.072	
C	-0.230465948	 1.5543555619	 0.0196037606	-0.408808
C	 0.1245492861	 0.0710890314	-0.0011699671	-0.112185
C	 0.9594826915	-0.4215907928	-1.1892406617	-0.110613
O	 1.7706461996	-1.5162371938	-0.6994221195	-0.240029
C	 1.9033893132	-1.4578361627	 0.6529026849	 0.321858
N	 2.6489943114	-2.1848313194	 1.3651635513	-0.501879
C	 0.9727240004	-0.3806805278	 1.1850222985	 0.319394
O	 0.9263879819	 0.0270955276	 2.312203125	-0.282064
H	 0.6666142669	 2.1733886473	-0.0821221749	 0.129127
H	-0.9176157478	 1.8115973848	-0.7913481367	 0.123472
H	-0.7037266917	 1.8068421873	 0.9716725815	 0.150177
H	-0.7944096437	-0.5310015305	 0.0535405913	 0.125711
H	 0.3691019402	-0.8048779026	-2.0231154494	 0.130344
H	 1.6257419024	 0.366153655	-1.5618752473	 0.12298
H	 3.1789801577	-2.8404998057	 0.7860255134	 0.232516
72.9249	156.5752	189.6342	229.0429	325.6236	336.6524	439.266	554.2335	565.2751	647.7078	720.8822	783.9707	906.5288	912.279	946.3144	967.0948	1007.9562	1056.7037	1111.7189	1157.0126	1169.2082	1227.2864	1282.8226	1295.3843	1337.8938	1401.7488	1415.5845	1495.8914	1496.8688	1522.3125	1759.298	1863.4644	3008.1069	3034.9086	3044.5676	3112.378	3116.3436	3128.6677	3460.99
CC1COC(=N)C1=O	C[C@H]1CO[C]([NH])C1=O	
InChI=1S/C5H7NO2/c1-3-2-8-5(6)4(3)7/h3,6H,2H2,1H3	InChI=1S/C5H7NO2/c1-3-2-8-5(6)4(3)7/h3,6H,2H2,1H3/t3-/m0/s1
