20
gdb 57275	2.22706	1.41259	1.26507	3.8905	78.22	-0.2586	0.0378	0.2964	1146.326	0.169666	-403.15317	-403.143505	-403.142561	-403.187698	35.174	
C	-0.0898841078	 1.514948117	-0.0963359275	-0.412694
C	 0.0164959004	-0.0199850835	 0.0324872929	 0.04994
C	 0.6943053626	-0.4204626501	 1.3599411554	-0.416648
C	-1.3362607991	-0.6000879866	-0.0114215505	 0.286882
N	-2.391322511	-1.0721738482	-0.0315427117	-0.358546
C	 0.8395311817	-0.5680743016	-1.1541672744	 0.160511
C	 0.7999688929	-2.0802109269	-1.4681680324	-0.316272
C	 0.2168984707	-1.6341524947	-2.8242982527	-0.064138
O	 0.2522379796	-0.2421638461	-2.4262528493	-0.294514
H	 0.9094432849	 1.9566930276	-0.0295774947	 0.119745
H	-0.5282881582	 1.7861586476	-1.0583968013	 0.157749
H	-0.7060154648	 1.9314739254	 0.7045873527	 0.1308
H	 0.126316156	-0.0418141421	 2.2132740246	 0.138903
H	 0.7720164717	-1.5066525226	 1.4578031129	 0.135642
H	 1.7014153444	 0.0056321925	 1.4016332134	 0.124734
H	 1.8521155092	-0.1479035449	-1.0666046614	 0.0787
H	 1.7707498097	-2.5751129911	-1.5060739419	 0.113976
H	 0.1177264284	-2.6611463008	-0.8457313475	 0.132171
H	 0.8543388897	-1.8186856277	-3.696428358	 0.10673
H	-0.8037094811	-1.9644213832	-3.0407045387	 0.126328
70.4854	91.7387	153.9973	189.3515	196.942	224.9233	248.5319	308.2901	325.4806	410.1574	430.7304	587.1019	623.5489	670.0115	783.5862	815.9234	874.0366	933.5265	954.5102	957.9605	977.758	1025.1405	1042.7294	1060.5694	1101.592	1161.7388	1174.2621	1210.7131	1221.7516	1258.046	1265.2401	1288.3038	1361.7191	1372.3287	1397.2926	1421.4397	1482.6591	1486.3464	1489.4269	1498.9219	1509.9453	1525.6711	2351.4539	2994.3082	3033.1631	3043.1983	3046.7851	3084.071	3086.6576	3116.8255	3119.7077	3126.6828	3143.5246	3143.7727
CC(C)(C#N)C1CCO1	CC(C)(C#N)[C@H]1CCO1	
InChI=1S/C7H11NO/c1-7(2,5-8)6-3-4-9-6/h6H,3-4H2,1-2H3	InChI=1S/C7H11NO/c1-7(2,5-8)6-3-4-9-6/h6H,3-4H2,1-2H3/t6-/m1/s1
