25
gdb 102585	1.90725	1.19451	0.86626	1.4697	88.98	-0.2387	0.0804	0.3191	1505.2815	0.227959	-389.481268	-389.470544	-389.4696	-389.518	38.749	
C	 0.5500426214	-0.100054973	 1.5781338729	-0.391334
C	 0.0571060242	-0.2493844777	 0.1350937621	-0.182701
C	-1.4185508763	-0.6897009105	-0.0020818672	 0.024822
C	-1.9784430628	-0.343799973	-1.3972169876	-0.185698
C	-2.275396858	 1.1465821384	-1.5950863508	-0.3911
C	-1.5532047434	-2.1779702288	 0.3273710584	 0.151973
C	-2.9324676465	-2.8762460755	 0.2724534195	-0.313314
C	-2.25906519	-3.8097758047	-0.7518464733	-0.055167
O	-1.0404651382	-3.0390751947	-0.7261200266	-0.294876
H	 1.5985751092	 0.2132733202	 1.6027206559	 0.112579
H	-0.0343796001	 0.6537560552	 2.1180683887	 0.111746
H	 0.4788276365	-1.0368034743	 2.140207601	 0.118256
H	 0.1961745101	 0.7076260744	-0.3794420554	 0.091766
H	 0.6804708819	-0.9753103875	-0.4021588261	 0.115886
H	-2.0137769995	-0.152414346	 0.7539246831	 0.062908
H	-1.2690239176	-0.691735006	-2.1560160287	 0.109909
H	-2.9038689839	-0.903203427	-1.5762694077	 0.087625
H	-1.3830332559	 1.7671118924	-1.4653082214	 0.118333
H	-2.6614788928	 1.3382384678	-2.6012919613	 0.111059
H	-3.0270422604	 1.4979673592	-0.8788585993	 0.110446
H	-1.0271830705	-2.3910538274	 1.2682107886	 0.068372
H	-3.2603023875	-3.3410975086	 1.2034997979	 0.106392
H	-3.7454943379	-2.266891887	-0.1254828342	 0.110964
H	-2.0974252469	-4.8390731028	-0.4060786831	 0.098838
H	-2.7024713152	-3.8394587732	-1.7541825554	 0.102316
57.107	72.5629	82.9167	85.3989	181.1264	208.0489	212.8999	258.9124	287.9716	315.1141	429.1405	442.7463	601.5612	701.4301	764.9395	786.2455	813.1464	849.2113	893.9717	921.4088	948.9089	977.993	1017.0155	1020.4571	1034.4277	1051.4161	1055.5349	1096.6718	1125.2374	1156.742	1174.7895	1184.7769	1215.801	1253.5517	1262.0517	1270.6847	1301.7503	1323.8705	1334.431	1361.739	1372.6024	1390.8483	1399.7802	1413.8894	1415.4375	1481.7581	1488.165	1494.7403	1499.4099	1503.8264	1507.6574	1509.0554	1530.7264	2977.5607	3000.0003	3012.0069	3029.6766	3031.1831	3032.8642	3036.0749	3052.2674	3065.3654	3068.532	3080.7203	3097.1689	3097.9955	3101.8036	3104.8122	3132.6911
CCC(CC)C1CCO1	CCC(CC)[C@H]1CCO1	
InChI=1S/C8H16O/c1-3-7(4-2)8-5-6-9-8/h7-8H,3-6H2,1-2H3	InChI=1S/C8H16O/c1-3-7(4-2)8-5-6-9-8/h7-8H,3-6H2,1-2H3/t8-/m1/s1
