20
gdb 97021	2.44323	1.47963	1.15892	3.0134	83.19	-0.2252	-0.0019	0.2233	1164.5434	0.169956	-399.361931	-399.352098	-399.351153	-399.396388	35.807	
C	-0.0249348091	 1.4224895418	 0.0328280323	-0.34163
N	-0.0100955622	-0.0314034944	 0.0264549817	-0.319131
C	 0.5481031885	-0.6125095438	-0.9514891162	 0.395262
N	 1.1781565407	-0.0680119763	-2.0713729964	-0.366904
C	 1.6359085184	-1.1121673745	-2.8666573529	 0.047522
N	 1.4014901988	-2.2881425664	-2.4370089525	-0.265825
C	 0.6738630996	-2.1303016742	-1.1530440424	 0.171913
C	 1.4904559417	-2.7592184046	-0.01623607	-0.398539
C	-0.713706473	-2.7762043595	-1.2631519682	-0.398542
H	 0.9901027423	 1.8508507935	 0.0416621039	 0.106613
H	-0.5527711869	 1.8395075965	-0.8397912639	 0.106284
H	-0.5391230885	 1.7799011169	 0.9282408694	 0.128268
H	 1.2822505749	 0.9118535498	-2.2692652654	 0.261971
H	 2.157823672	-0.8865822907	-3.7918881394	 0.130951
H	 2.4926630603	-2.3237354176	 0.0306613014	 0.115016
H	 0.9896423551	-2.5782869096	 0.9385073814	 0.133883
H	 1.5914229777	-3.8355735886	-0.1789684613	 0.121998
H	-0.613729016	-3.8526635281	-1.425809697	 0.121975
H	-1.2763330829	-2.5951905129	-0.3434977199	 0.133898
H	-1.2749339614	-2.3531690374	-2.1012003346	 0.115015
83.6184	98.1912	140.5742	189.0624	207.5103	251.8106	254.9591	296.6035	308.603	331.1929	407.5289	531.1005	610.5863	618.5396	737.0736	750.5345	828.3512	900.3882	940.7444	954.0768	977.6999	1026.041	1033.0087	1078.4272	1105.2541	1150.7945	1165.9581	1195.3791	1214.4004	1291.7744	1350.4022	1387.9608	1399.1532	1412.115	1435.5564	1475.2987	1481.9258	1492.8095	1493.9859	1506.2522	1507.1065	1680.3106	1776.4908	2963.9933	3009.7222	3042.1263	3045.3281	3102.1633	3116.8443	3119.3264	3128.0141	3132.6384	3184.8593	3677.8529
CN=C1NC=NC1(C)C	CN=C1NC=NC1(C)C	
InChI=1S/C6H11N3/c1-6(2)5(7-3)8-4-9-6/h4H,1-3H3,(H,7,8,9)	InChI=1S/C6H11N3/c1-6(2)5(7-3)8-4-9-6/h4H,1-3H3,(H,7,8,9)
