19
gdb 93335	2.29507	1.59899	1.06163	5.4234	78.9	-0.2339	-0.0127	0.2211	1164.5217	0.160233	-419.257666	-419.248852	-419.247908	-419.291476	32.498	
C	 0.4915464011	 1.5641255908	-0.0946680653	-0.386899
C	 0.0299752773	 0.1161752525	 0.1053213542	 0.014204
C	 0.3470622093	-0.7982607723	-1.0990759391	-0.238861
C	 1.7066653903	-1.4125282964	-0.7502670207	-0.334095
C	 1.7431593503	-1.4267882702	 0.7789709225	 0.420103
O	 2.4875992267	-2.0647438913	 1.473824578	-0.32888
N	 0.7395736273	-0.5430078275	 1.2146334693	-0.088534
C	 0.4022118568	-0.2406690542	 2.5303736856	 0.078922
N	 1.019861112	-0.670673266	 3.5514589683	-0.417286
H	 1.5541486564	 1.6071236961	-0.3546909334	 0.12855
H	-0.0799903067	 2.036089259	-0.9001714508	 0.122959
H	 0.3453985269	 2.1545291871	 0.8149327434	 0.124817
H	-1.0441750012	 0.1126214175	 0.3215246016	 0.091411
H	-0.4103045976	-1.5840979581	-1.1740242095	 0.116747
H	 0.3437290184	-0.2416122255	-2.0385736007	 0.110564
H	 1.8608651292	-2.4218690306	-1.1344524655	 0.135934
H	 2.5443797003	-0.8002390701	-1.1034817099	 0.134333
H	-0.4791757314	 0.4143083564	 2.5610729448	 0.089358
H	 0.5624607445	-0.3236889072	 4.393612097	 0.226652
64.6674	118.966	152.2797	177.6552	222.9784	253.0725	331.3907	431.8122	477.6593	490.5661	558.8142	658.448	696.6257	736.9344	806.6872	822.6779	899.3185	961.9886	982.0563	1030.4872	1057.3751	1065.8585	1099.2091	1115.9868	1178.3462	1197.5454	1222.4448	1235.9939	1299.2457	1311.8599	1345.5074	1377.4606	1411.1909	1417.1108	1439.3681	1469.0981	1492.0355	1496.7856	1502.8457	1716.22	1849.0972	3015.6763	3036.8039	3037.7104	3053.5205	3063.2144	3108.8391	3112.6309	3113.2325	3125.7558	3491.2827
CC1CCC(=O)N1C=N	C[C@H]1CCC(=O)N1[CH][NH]	
InChI=1S/C6H10N2O/c1-5-2-3-6(9)8(5)4-7/h4-5,7H,2-3H2,1H3	InChI=1S/C6H10N2O/c1-5-2-3-6(9)8(5)4-7/h4-5,7H,2-3H2,1H3/t5-/m0/s1
