13
gdb 5006	3.47258	2.40103	1.42099	0.9676	66.6	-0.2044	-0.0372	0.1673	802.7626	0.097945	-394.815508	-394.808981	-394.808037	-394.845946	25.262	
N	 0.052140564	 1.3638114784	-0.0014050095	-0.582816
C	-0.0194481333	-0.0058743602	 0.0208674599	 0.243539
C	-1.1492819675	-0.7579553156	 0.1132599585	-0.111859
N	-1.122313765	-2.1408282181	 0.1976492921	-0.257502
C	 0.0158988524	-2.7043478816	 0.1784150571	 0.103546
O	 1.2181644806	-2.0690060899	 0.0710019511	-0.217428
C	 1.271548934	-0.6961663968	-0.027447859	 0.379214
N	 2.3669898607	-0.0666982407	-0.161707223	-0.558713
H	 0.9415358308	 1.7241253469	-0.3175048932	 0.274949
H	-0.7642590365	 1.8703103052	-0.3034099161	 0.254864
H	-2.1333318359	-0.3015199356	 0.1342561046	 0.103206
H	 0.1502760631	-3.7772131057	 0.2464735533	 0.140434
H	 3.1643258926	-0.7004309064	-0.1863948958	 0.228566
137.905	240.5236	322.8686	385.648	432.7987	480.3545	511.5173	534.2053	597.9362	604.1928	749.3729	775.4543	841.3353	870.6482	896.6854	914.6411	1018.2835	1076.8052	1118.0195	1202.1581	1263.4376	1340.9544	1409.0879	1450.3082	1604.5348	1642.8736	1672.2654	1732.0126	3181.3074	3217.1867	3509.6977	3566.5501	3691.4785
NC1=CN=COC1=N	NC1=C(OC=NC1)[NH]	
InChI=1S/C4H5N3O/c5-3-1-7-2-8-4(3)6/h1-2,6H,5H2	InChI=1S/C4H6N3O/c5-3-1-7-2-8-4(3)6/h2,6H,1,5H2
