15
gdb 85489	2.54237	1.44281	1.09092	4.6159	65.13	-0.2649	-0.0129	0.252	1088.422	0.113664	-453.989125	-453.981056	-453.980112	-454.022056	29.685	
N	 0.1829609598	 1.1501713361	-0.770414907	-0.522431
C	-0.0018454687	-0.0512014646	 0.011284418	 0.002505
C	 0.3788235733	-0.0908207747	 1.5031459234	-0.392632
C	-0.5314361099	-1.1689042675	 2.071957288	 0.439172
O	-0.431688023	-1.8005553112	 3.0761067077	-0.308188
O	-1.5851732051	-1.3653752617	 1.2014018111	-0.213521
C	-1.4978947658	-0.4739360617	 0.0879948148	-0.039885
C	-2.3824515984	 0.6855635764	 0.2980059654	 0.290256
N	-3.0453447072	 1.6159042182	 0.4701477158	-0.316439
H	-0.1950287056	 1.9642078271	-0.2945143923	 0.248871
H	 1.1669253128	 1.32216654	-0.9421794492	 0.244069
H	 0.5166070317	-0.8668806011	-0.5040284265	 0.117289
H	 1.423908441	-0.3248281905	 1.7079999524	 0.145733
H	 0.1387946673	 0.8605270936	 1.9937616374	 0.151864
H	-1.8216740223	-1.0077562383	-0.8076650089	 0.153338
91.3779	115.7644	148.9819	267.5714	287.5473	313.4179	413.6574	483.9688	517.4689	525.0615	593.358	657.1061	728.5947	828.0967	831.107	847.9864	919.0839	991.8557	1061.7176	1091.843	1115.449	1149.8645	1163.1547	1205.1189	1279.2014	1299.6914	1339.7834	1364.7767	1426.6816	1460.8882	1659.6182	1907.882	2359.2202	3047.1411	3060.427	3103.5568	3135.6395	3505.6633	3593.3429
NC1CC(=O)OC1C#N	N[C@H]1CC(=O)O[C@H]1C#N	
InChI=1S/C5H6N2O2/c6-2-4-3(7)1-5(8)9-4/h3-4H,1,7H2	InChI=1S/C5H6N2O2/c6-2-4-3(7)1-5(8)9-4/h3-4H,1,7H2/t3-,4-/m0/s1
