17
gdb 104269	2.97325	1.16875	1.01031	5.9571	68.83	-0.256	-0.0014	0.2546	1191.6375	0.134969	-455.113592	-455.104128	-455.103183	-455.148435	33.537	
N	 0.0202904159	 1.5066209929	-0.2035337217	-0.549761
C	 0.0394498543	 0.0611715715	-0.0843946325	 0.234304
C	 1.0466189073	-0.6366252469	-0.9974061142	-0.144692
O	 2.3197702767	-0.111592798	-0.6603458342	-0.424688
C	 0.067352847	-0.4345343656	 1.3823944894	-0.079614
O	-1.2223404026	-1.083898053	 1.2327199902	-0.274446
C	-1.3667935881	-0.6127148603	-0.113629211	-0.056759
C	-2.5149011956	 0.2773462528	-0.3085200515	 0.296011
N	-3.4263714396	 0.9588159088	-0.5085440203	-0.32694
H	 0.9798481448	 1.8423978137	-0.1680272027	 0.24662
H	-0.3516858527	 1.7831729586	-1.109150251	 0.236667
H	 1.006820488	-1.7268088661	-0.8467077718	 0.098178
H	 0.7864355978	-0.4301403685	-2.0487729906	 0.091848
H	 2.9819986537	-0.5046847207	-1.2357410945	 0.298483
H	 0.853555447	-1.151213897	 1.6374456787	 0.114089
H	 0.0309924103	 0.3737445904	 2.1175431451	 0.124589
H	-1.4590119345	-1.4455050725	-0.8240785574	 0.116113
42.2046	106.7028	141.5336	176.2097	205.8578	239.4914	261.7627	330.6208	370.7656	413.5679	433.1425	536.7951	615.8773	703.5167	854.1615	896.0029	917.3431	933.2546	971.3233	1007.6202	1037.8449	1059.2631	1086.4479	1147.4936	1182.0435	1209.1038	1218.4609	1271.242	1309.3916	1324.7859	1361.8907	1367.8696	1449.1247	1510.6787	1521.4079	1655.6968	2356.9641	2962.0303	3000.528	3015.9846	3050.8368	3110.4056	3478.4904	3558.5099	3840.0961
NC1(CO)COC1C#N	N[C@@]1(CO)CO[C@H]1C#N	
InChI=1S/C5H8N2O2/c6-1-4-5(7,2-8)3-9-4/h4,8H,2-3,7H2	InChI=1S/C5H8N2O2/c6-1-4-5(7,2-8)3-9-4/h4,8H,2-3,7H2/t4-,5-/m0/s1
