15
gdb 61376	3.67387	0.85733	0.7586	2.3147	68.9	-0.2875	-0.0934	0.1941	1444.5176	0.110265	-453.964211	-453.954927	-453.953982	-453.99918	31.922	
C	-0.0043551099	 1.5693808647	 0.0080989162	-0.407842
C	 0.0197184726	 0.0401487946	 0.0041907718	-0.021471
O	-1.3142363813	-0.4999994519	 0.0998251882	-0.249249
C	-1.8056957791	-0.6671855601	 1.3426742194	 0.322135
N	-1.1914295713	-0.3551581572	 2.4029660117	-0.504122
C	-3.1895354521	-1.2837626541	 1.2842905113	 0.108357
O	-3.8108002657	-1.5201255127	 2.28555003	-0.227552
C	 0.594983288	-0.4991039738	-1.2343962808	 0.291428
N	 1.0782803956	-0.8991193605	-2.2036145901	-0.306943
H	 1.010568854	 1.955512058	-0.1160369349	 0.148292
H	-0.626086035	 1.9427132684	-0.8086135312	 0.14692
H	-0.400081933	 1.9167337211	 0.9637778259	 0.157649
H	 0.5992678319	-0.3256342088	 0.8578428391	 0.166509
H	-1.7768769048	-0.598309166	 3.2046046046	 0.255491
H	-3.57143585	-1.4946261417	 0.2671939988	 0.120398
62.5507	71.2305	130.2935	173.933	196.0825	231.0859	273.3462	326.5416	376.7573	436.329	555.552	570.9377	582.2224	733.945	834.77	895.6157	909.7123	953.7532	1038.5521	1050.5712	1102.4738	1116.3415	1139.3693	1322.0531	1343.3078	1364.3024	1404.4057	1431.9013	1485.8743	1495.5328	1721.5994	1832.6715	2370.84	2963.6085	3059.8248	3073.0937	3139.3323	3154.874	3475.48
CC(OC(=N)C=O)C#N	C[C@@H](O[C]([NH])C=O)C#N	
InChI=1S/C5H6N2O2/c1-4(2-6)9-5(7)3-8/h3-4,7H,1H3	InChI=1S/C5H6N2O2/c1-4(2-6)9-5(7)3-8/h3-4,7H,1H3/t4-/m1/s1
