15
gdb 73736	2.08464	1.8202	0.98363	6.2365	77.8	-0.2627	-0.0665	0.1962	1136.2028	0.112964	-416.855869	-416.847634	-416.846689	-416.888897	29.68	
C	-0.0062861971	 1.4737594445	 0.0655929704	-0.511896
C	 0.0146297668	-0.0107623153	-0.0183036108	 0.175266
C	-0.0084002111	-0.8043680276	-1.1045165254	 0.040816
C	-0.0595396956	-0.3827429599	-2.4587170115	 0.244058
N	-0.1012968131	-0.0024611309	-3.5508663712	-0.34012
C	 0.0278540771	-2.2208419602	-0.6845234194	 0.358259
N	 0.0191758715	-3.2311007725	-1.4382194787	-0.533392
O	 0.073223851	-2.2366069002	 0.6884774162	-0.248364
C	 0.0684910807	-0.9020632775	 1.1912230916	-0.167537
H	 0.8850506889	 1.8452907267	 0.5854878032	 0.15139
H	-0.0458402658	 1.9274317539	-0.9264361876	 0.167101
H	-0.8733279986	 1.8172221477	 0.6427380202	 0.151401
H	 0.0506820369	-4.095366318	-0.8968272492	 0.232822
H	 0.9733401262	-0.7331604186	 1.7908484572	 0.1401
H	-0.800046518	-0.7613591721	 1.8490085251	 0.140097
116.0137	134.8429	139.9675	202.7732	214.6279	275.8222	421.15	426.1234	526.8161	564.1207	579.017	633.3	752.2746	762.7666	870.2726	937.771	957.0324	983.9907	1070.1826	1080.5777	1084.2534	1177.1034	1202.4798	1234.7114	1367.1573	1385.8473	1417.4516	1476.2993	1478.218	1494.6858	1696.2547	1772.7129	2353.5334	3011.5042	3029.7798	3042.3194	3079.3895	3137.2583	3494.939
CC1=C(C#N)C(=N)OC1	C[C]1C(=C([NH])OC1)C#N	
InChI=1S/C6H6N2O/c1-4-3-9-6(8)5(4)2-7/h8H,3H2,1H3	InChI=1S/C6H6N2O/c1-4-3-9-6(8)5(4)2-7/h8H,3H2,1H3
