19
gdb 31487	3.20479	1.04641	0.82321	1.5464	82.06	-0.175	0.0359	0.2109	1402.9371	0.159465	-419.239563	-419.229548	-419.228604	-419.275188	35.883	
C	 0.5064049271	 1.2947491885	 0.2093523895	-0.516058
C	 0.1365481172	-0.1272578983	-0.0426523141	 0.270175
C	-0.3047032613	-0.7390316061	-1.2016556961	 0.171804
N	-0.5453675881	-0.0695456152	-2.4296369066	-0.612956
C	-0.5115858833	-2.1189397948	-0.9102567596	-0.325108
C	-0.1997022591	-2.3175872324	 0.4186572652	 0.268862
C	-0.2517215327	-3.5308181804	 1.2842213146	-0.181459
O	 0.9387321	-3.7064589607	 2.0560665398	-0.419604
N	 0.1957348948	-1.1060364854	 0.9273134576	-0.343204
H	 1.5916770429	 1.4680746093	 0.2135410265	 0.119421
H	 0.0755590088	 1.9217654977	-0.5765249645	 0.14419
H	 0.117954147	 1.6521203161	 1.1705274157	 0.121326
H	 0.3046722332	 0.3074863709	-2.834376182	 0.236082
H	-0.9522170512	-0.6985172258	-3.1108276976	 0.234083
H	-0.8651595294	-2.8762791931	-1.5955055665	 0.080524
H	-1.0516058885	-3.4626976123	 2.0325832179	 0.115158
H	-0.4702444439	-4.4080478186	 0.6583329089	 0.100126
H	 1.6745251585	-3.7255456279	 1.4339885233	 0.279382
H	 0.5499717281	-0.9847530216	 1.860914028	 0.257257
52.7465	59.9354	120.6361	134.7743	208.8958	236.9746	263.4599	294.6647	358.4077	396.7332	487.4233	494.3358	615.4323	637.0794	665.8298	698.3475	774.5756	800.3765	823.1147	963.6796	992.817	1023.8127	1045.6551	1061.1039	1090.4618	1173.7752	1202.1413	1215.7114	1265.3858	1340.7043	1356.8033	1407.1994	1418.7202	1457.1212	1482.5681	1489.3364	1503.1207	1512.5707	1546.9622	1642.2665	1663.9727	3000.8572	3003.029	3040.0778	3054.8113	3109.1633	3230.3642	3510.9787	3598.6594	3670.3716	3798.9829
CC1=C(N)C=C(CO)N1	Cc1c(N)cc(CO)[nH]1	
InChI=1S/C6H10N2O/c1-4-6(7)2-5(3-9)8-4/h2,8-9H,3,7H2,1H3	InChI=1S/C6H10N2O/c1-4-6(7)2-5(3-9)8-4/h2,8-9H,3,7H2,1H3
