21
gdb 126556	4.81415	0.75656	0.69198	2.4087	86.99	-0.2273	0.0297	0.257	1717.4876	0.183103	-383.313924	-383.304036	-383.303092	-383.350232	35.192	
C	-0.1757062055	 1.5320909285	-0.0560360647	-0.378494
C	-0.2633304893	 0.0200046007	-0.2743874485	-0.155101
C	 0.9750963947	-0.5519330012	-0.9893513867	-0.288839
C	 0.9001779718	-2.031844373	-1.2146072917	 0.347925
N	 1.6262873055	-2.8678954276	-0.4753290218	-0.294712
N	 1.2911237568	-4.0971618411	-0.9259291494	-0.252472
C	 0.3776986571	-4.0778571057	-1.9313129752	 0.388683
C	-0.1318304212	-5.3203021762	-2.585842236	-0.503935
C	 0.0992557978	-2.7429741114	-2.1439143566	-0.37585
H	 0.6959813329	 1.7938552786	 0.5541520184	 0.115091
H	-0.0825029191	 2.0661757071	-1.0086055632	 0.110947
H	-1.0657198247	 1.9141170687	 0.4539110607	 0.109225
H	-0.3816396876	-0.491095524	 0.6885472547	 0.10454
H	-1.1606593398	-0.219252041	-0.8587568152	 0.094552
H	 1.1008173446	-0.037567413	-1.9512460598	 0.096986
H	 1.8705517134	-0.3399831604	-0.3954242414	 0.111645
H	 1.733320439	-4.9018023894	-0.5150246497	 0.265086
H	-0.6406738873	-5.9790091087	-1.8723862128	 0.135084
H	-0.8479263643	-5.0631777206	-3.3689368101	 0.142381
H	 0.6757023178	-5.8988032708	-3.0496048064	 0.134628
H	-0.5857077828	-2.3399483596	-2.8735623148	 0.09263
37.8767	53.739	81.2758	97.3709	226.665	244.4556	267.6832	312.7423	384.876	405.6278	489.6954	625.021	669.5483	716.7813	745.4214	782.0118	811.2884	875.0995	900.8115	987.9916	1006.7708	1042.2478	1049.5863	1062.4929	1083.0484	1112.1349	1170.3368	1184.5244	1252.1171	1304.2769	1308.8129	1328.6542	1381.4319	1411.3147	1412.5047	1436.7317	1460.094	1476.1876	1482.8114	1489.9781	1498.1753	1499.6293	1509.9975	1512.6742	1616.6287	3018.411	3026.6371	3028.1257	3029.1187	3055.1291	3077.0801	3079.9932	3096.7462	3100.4088	3129.0957	3253.1011	3669.8308
CCCC1=NNC(C)=C1	CCCc1n[nH]c(C)c1	
InChI=1S/C7H12N2/c1-3-4-7-5-6(2)8-9-7/h5H,3-4H2,1-2H3,(H,8,9)	InChI=1S/C7H12N2/c1-3-4-7-5-6(2)8-9-7/h5H,3-4H2,1-2H3,(H,8,9)
