14
gdb 24792	3.55476	1.2876	0.94522	6.0118	83.27	-0.2127	-0.0526	0.16	1157.6473	0.102548	-395.730503	-395.722896	-395.721951	-395.762699	28.909	
N	-0.1119770443	 1.3395225511	 0.0081772914	-0.546433
C	-0.0422011008	 0.060302686	 0.001341429	 0.317878
C	-1.2555886173	-0.7566472436	 0.0030632863	-0.113639
C	-1.1695645998	-2.0960458561	-0.0042055385	-0.020681
N	 0.0718853365	-2.7039305589	-0.0133588228	-0.358044
C	 1.2047453651	-1.918795752	-0.0147927228	 0.250173
N	 1.1950157803	-0.6296410307	-0.0081786146	-0.358556
C	 2.4425826412	-2.6420823328	-0.0245290696	 0.217773
C	 3.4590334505	-3.2837145221	-0.0327712267	-0.344487
H	 0.8379298673	 1.7171957893	 0.0054855469	 0.212727
H	-2.2140858833	-0.2557241227	 0.010275192	 0.123
H	-2.0223532016	-2.7627936936	-0.0034822119	 0.135095
H	 0.1657847866	-3.705569625	-0.0188702775	 0.273238
H	 4.3730144597	-3.8258679688	-0.0400208711	 0.211957
110.3174	136.4996	145.6118	350.6814	398.0566	412.4182	474.8364	493.6256	536.9061	566.2657	649.2868	679.8859	686.9667	739.4319	758.6847	836.5665	905.7832	912.3373	968.0698	995.5648	1067.1686	1144.2628	1217.4837	1244.4901	1342.4671	1424.8005	1495.0144	1623.7912	1670.4815	1715.668	2240.9658	3214.3274	3235.954	3458.9912	3497.5369	3662.0011
N=C1C=CNC(=N1)C#C	[NH]C1=N[C@@H](NC=C1)C#C	
InChI=1S/C6H5N3/c1-2-6-8-4-3-5(7)9-6/h1,3-4H,(H2,7,8,9)	InChI=1S/C6H6N3/c1-2-6-8-4-3-5(7)9-6/h1,3-4,6-8H/t6-/m1/s1
