19
gdb 95190	2.54516	1.70179	1.11981	3.9665	76.4	-0.2298	0.0172	0.2471	1101.1685	0.161866	-419.220439	-419.212209	-419.211265	-419.253392	31.054	
C	 0.0016033975	 1.4479864668	-0.0160360181	-0.345635
N	 0.0300730258	 0.0025452182	-0.1674211328	-0.104771
C	-1.2615654748	-0.6869522866	-0.1627624	-0.158904
C	-1.2398539854	-1.990656147	-0.9636180634	-0.216833
C	-0.0439123892	-2.8520440671	-0.5825039983	-0.047996
N	 1.1378849476	-2.6825424992	-1.4405771162	-0.325345
C	 1.1590298345	-2.1589537211	-0.0546954125	-0.143768
C	 1.2110107463	-0.6566618845	 0.0634143124	 0.449746
O	 2.25757196	-0.091433551	 0.3335350093	-0.396943
H	 1.0276684419	 1.8120731912	-0.0237499601	 0.168502
H	-0.5616872271	 1.9018999736	-0.8385508636	 0.120623
H	-0.4705166278	 1.7441537613	 0.9310938275	 0.118137
H	-1.5811508851	-0.884095212	 0.8731489055	 0.105585
H	-2.000327436	-0.0025731077	-0.5915365718	 0.11262
H	-2.1765723805	-2.5286714999	-0.7867915264	 0.103013
H	-1.1805745675	-1.7658900162	-2.0325906415	 0.125905
H	-0.2531713076	-3.8481944339	-0.2011822725	 0.09038
H	 1.6794534309	-3.5428059724	-1.4758756746	 0.237011
H	 1.8030965168	-2.6548399325	 0.6644190273	 0.108675
83.8758	130.8384	143.0493	231.775	270.8369	352.2575	399.1067	432.1612	460.4751	527.1448	693.2736	697.8625	752.6397	810.8232	858.7883	917.488	932.6107	935.1043	1000.1288	1023.546	1081.0998	1105.1886	1139.2567	1154.9302	1173.2315	1203.9449	1244.8475	1256.3226	1268.9019	1291.7363	1349.3094	1372.5165	1401.6529	1428.8418	1437.1588	1465.7813	1474.7535	1499.198	1503.7339	1535.2305	1766.6176	2974.4751	3008.0027	3050.0556	3068.9003	3070.979	3098.8143	3137.9406	3166.8789	3168.2613	3498.5723
CN1CCC2NC2C1=O	CN1CC[C@H]2N[C@H]2C1=O	
InChI=1S/C6H10N2O/c1-8-3-2-4-5(7-4)6(8)9/h4-5,7H,2-3H2,1H3	InChI=1S/C6H10N2O/c1-8-3-2-4-5(7-4)6(8)9/h4-5,7H,2-3H2,1H3/t4-,5-/m1/s1
