23
gdb 86304	1.96985	1.65845	1.12776	1.4578	85.15	-0.2486	0.0669	0.3155	1207.1367	0.205611	-388.273781	-388.264482	-388.263537	-388.307471	36.328	
C	-0.7783832084	 1.2250532663	-0.3722725177	-0.414637
C	 0.096938996	-0.0168179705	-0.3024701708	-0.037539
C	 1.5898821273	 0.0868199668	-0.7234088082	-0.292173
C	 1.9206263519	-0.9197555407	 0.4034271013	 0.105567
O	 3.1298275691	-0.8266378517	 1.1149998636	-0.431486
C	 0.5600278513	-0.563730757	 1.077927615	 0.319024
C	 0.6466114369	 0.3449118213	 2.3381827899	-0.278905
C	 0.3698679716	-0.9109711301	 3.205442769	-0.202595
C	-0.1743953923	-1.618378154	 1.935128224	-0.299587
H	-0.3190435208	 2.0685731441	 0.154440138	 0.112428
H	-0.939152968	 1.5326074001	-1.4114322558	 0.114539
H	-1.7632360822	 1.0486270808	 0.0754063722	 0.113687
H	-0.3823782231	-0.8329826818	-0.8576302161	 0.07153
H	 1.8719441244	-0.1679389346	-1.7478230019	 0.097718
H	 1.9915055542	 1.0801394839	-0.4861948388	 0.087148
H	 1.8847088208	-1.9488218048	 0.0288076213	 0.087334
H	 3.2577599466	 0.09421562	 1.364851648	 0.278816
H	 1.5768584547	 0.8913542374	 2.5244598516	 0.074173
H	-0.180274568	 1.0601243727	 2.378286551	 0.100662
H	 1.3014001389	-1.3676144441	 3.548172229	 0.114766
H	-0.3057896963	-0.798406498	 4.0564182096	 0.091871
H	-1.2628999285	-1.5269044596	 1.8501901199	 0.094384
H	 0.1001885439	-2.6654810866	 1.7739553358	 0.093274
91.2527	107.1305	186.906	212.5188	237.2015	269.7511	296.2277	308.4534	440.2701	480.0004	484.4057	530.9201	621.7063	701.7158	779.543	804.168	869.8565	881.0405	891.9947	936.9045	942.1562	960.2432	988.375	1035.7951	1063.3098	1083.0619	1118.7362	1155.8867	1169.1691	1173.3211	1203.1814	1207.3953	1234.0137	1249.0709	1256.2711	1272.179	1277.7201	1298.9259	1304.9183	1319.2719	1373.137	1408.8475	1438.1891	1472.1999	1479.0841	1486.3232	1495.3475	1497.0684	1504.7361	3020.6155	3023.8407	3030.1925	3034.8067	3041.0133	3049.7722	3063.883	3082.6581	3087.4756	3088.1563	3093.9481	3101.549	3121.3785	3813.5098
CC1CC(O)C11CCC1	C[C@H]1C[C@@H](O)C21CCC2	
InChI=1S/C8H14O/c1-6-5-7(9)8(6)3-2-4-8/h6-7,9H,2-5H2,1H3	InChI=1S/C8H14O/c1-6-5-7(9)8(6)3-2-4-8/h6-7,9H,2-5H2,1H3/t6-,7+/m0/s1
