16
gdb 28556	2.38836	1.77965	1.02793	2.6306	75.75	-0.1762	-0.021	0.1552	1098.0671	0.125787	-434.114473	-434.106014	-434.105069	-434.147269	31.995	
N	 0.0015598042	 1.3827000216	 0.2395512877	-0.604037
C	-0.0688032798	 0.0162036765	 0.0450230579	 0.353829
C	-1.1368604577	-0.8270793074	-0.094743166	-0.248061
C	-0.6318204714	-2.1735290203	-0.1319498125	-0.195542
C	 0.7219090757	-2.1388783272	-0.030013332	 0.247759
N	 1.7338110397	-3.1202501204	-0.0636256979	-0.609648
N	 1.0969796207	-0.7673863555	 0.0670913066	-0.125365
C	 2.3981740163	-0.311114972	 0.0222219706	 0.183329
O	 2.7239481567	 0.8583600925	 0.019672503	-0.338998
H	 0.9057741292	 1.7784721333	 0.0142284714	 0.274573
H	-0.7809118751	 1.889224043	-0.1463767976	 0.249215
H	-2.1722132857	-0.5265944755	-0.1332500553	 0.09205
H	-1.2257473239	-3.0713973282	-0.2197432255	 0.095636
H	 1.8855625442	-3.5651409609	 0.836597999	 0.247349
H	 1.5282153909	-3.8437358544	-0.741237887	 0.249757
H	 3.1123094059	-1.1453223749	-0.0217671924	 0.128155
100.1739	143.619	202.6952	251.3504	265.1523	321.9616	330.7889	379.3715	445.4382	551.2589	605.3551	636.7145	643.8878	694.2486	735.7328	748.6995	785.6503	827.0674	831.9454	1030.6017	1054.5653	1059.1462	1126.1073	1186.9869	1263.1162	1279.9803	1327.0753	1359.8836	1417.7397	1458.2096	1597.135	1628.677	1652.3558	1668.5666	1786.2984	3050.0956	3238.4861	3255.536	3493.0301	3533.3207	3586.8508	3659.3111
NC1=CC=C(N)N1C=O	Nc1ccc(N)n1C=O	
InChI=1S/C5H7N3O/c6-4-1-2-5(7)8(4)3-9/h1-3H,6-7H2	InChI=1S/C5H7N3O/c6-4-1-2-5(7)8(4)3-9/h1-3H,6-7H2
