17
gdb 43124	2.22698	1.9472	1.85809	2.8339	76.8	-0.2258	-0.0064	0.2194	892.2702	0.138592	-384.719922	-384.713167	-384.712223	-384.750758	27.651	
O	 0.0165868038	 0.0610256987	-0.0587193331	-0.328965
C	-0.0087180971	 1.2573727329	-0.0135075128	 0.422858
C	-1.2276219853	 2.1960229997	 0.0307371203	-0.167968
C	-1.3182325237	 2.7213841325	 1.495312512	-0.26383
C	 0.0452406257	 3.0224677186	 2.0751814909	-0.044562
C	 1.1878650128	 2.7919605224	 1.4238431352	-0.070458
C	 1.1694278487	 2.2514777078	-0.0039291855	-0.203379
C	 0.6034482558	 3.2990911263	-0.9512603187	-0.074851
C	-0.7336589028	 3.2664158741	-0.9223849226	-0.080579
H	-2.1552766225	 1.7025659444	-0.2664981109	 0.087634
H	-1.9603437182	 3.6119431382	 1.5424461446	 0.11016
H	-1.812862947	 1.9592965718	 2.1131551254	 0.124226
H	 0.0663198675	 3.4386556575	 3.0793191938	 0.094594
H	 2.1490584157	 2.9994841327	 1.8835671401	 0.098085
H	 2.1201927543	 1.8062313982	-0.2983010837	 0.086381
H	 1.2195822502	 3.9774149477	-1.5284608267	 0.10696
H	-1.3993537381	 3.9142088866	-1.4800262682	 0.103694
145.3149	204.3508	280.3954	378.4466	436.2087	471.5516	553.2829	588.2335	679.8797	692.0988	752.8769	774.2485	790.1348	850.3885	909.331	925.9396	956.9946	972.2262	975.8619	984.0846	1009.9598	1047.145	1098.6447	1125.7819	1176.4501	1193.9721	1236.9974	1248.4265	1286.098	1300.1744	1330.5869	1377.7304	1395.3714	1473.0304	1648.8276	1696.7903	1877.0695	3005.1446	3032.7362	3092.742	3111.1134	3152.8967	3181.3424	3194.779	3219.0711
O=C1C2CC=CC1C=C2	O=C1[C@H]2CC=C[C@@H]1C=C2	
InChI=1S/C8H8O/c9-8-6-2-1-3-7(8)5-4-6/h1-2,4-7H,3H2	InChI=1S/C8H8O/c9-8-6-2-1-3-7(8)5-4-6/h1-2,4-7H,3H2/t6-,7+/m1/s1
