18
gdb 52237	4.40453	0.91611	0.84449	4.6331	73.93	-0.2492	0.0286	0.2777	1377.6132	0.14719	-439.027921	-439.019479	-439.018535	-439.062034	30.88	
N	-0.4437750185	 1.0291548256	-0.3819539931	-0.442447
C	-0.5413307364	-0.2264354126	-0.4546868737	 0.132398
O	-0.5783813844	-0.9578340217	 0.6829783341	-0.186909
C	-0.7146651642	-2.3685075089	 0.5329204831	-0.114298
C	-2.1578117889	-2.7795000097	 0.3119303335	 0.128372
O	-2.6794937874	-2.424158679	-1.0050361012	-0.305891
C	-3.1380622648	-3.7674939686	-1.1935428344	 0.116649
C	-1.9922973858	-4.7207497514	-1.2588747459	-0.30027
C	-2.50611729	-4.2508448361	 0.0918725305	-0.156503
H	-0.4197920537	 1.4254853107	-1.3192813874	 0.227673
H	-0.6053818969	-0.8317855525	-1.3659855666	 0.10017
H	-0.0764246861	-2.7347814947	-0.279513515	 0.110272
H	-0.3579824937	-2.8027495165	 1.4719951379	 0.125774
H	-2.7885730564	-2.3176669422	 1.080833243	 0.104362
H	-4.119591435	-3.9104397529	-1.6289525702	 0.112694
H	-2.2542731111	-5.7487597263	-1.4896623782	 0.122188
H	-1.0372171826	-4.3934910613	-1.6578661407	 0.117926
H	-2.8768928739	-4.9278618418	 0.8486725544	 0.10784
60.3504	73.9312	115.3121	175.1117	237.2694	334.9121	384.3386	476.0744	498.5815	644.6329	725.4248	772.8726	817.8488	820.9775	857.5646	950.1781	971.672	973.1916	1003.1238	1027.3288	1040.3666	1047.4907	1055.0671	1084.9931	1094.7751	1120.6025	1152.4651	1197.9618	1243.6933	1263.8371	1295.3503	1317.6796	1349.9556	1378.9485	1414.6144	1430.1345	1476.1598	1485.1692	1745.2542	3035.7254	3045.3123	3061.6106	3097.5306	3124.2879	3188.3911	3207.74	3216.3465	3516.5806
N=COCC1OC2CC12	[NH][CH]OC[C@H]1O[C@H]2C[C@@H]12	
InChI=1S/C6H9NO2/c7-3-8-2-6-4-1-5(4)9-6/h3-7H,1-2H2	InChI=1S/C6H9NO2/c7-3-8-2-6-4-1-5(4)9-6/h3-7H,1-2H2/t4-,5+,6-/m1/s1
