18
gdb 98894	3.37755	1.09885	0.9155	2.7199	68.72	-0.2422	0.0284	0.2705	1287.9742	0.148281	-476.250236	-476.241131	-476.240187	-476.28574	31.465	
C	 0.9121900998	 1.419179346	-0.4759817007	-0.333446
N	 0.8590643238	-0.0159649522	-0.6632894443	-0.305413
C	-0.3007255493	-0.7140019408	-0.6570587829	 0.35777
O	-1.4142844264	-0.2343272634	-0.5195902685	-0.387882
C	-0.1387246766	-2.2253568425	-0.8380471932	-0.000952
C	-0.9815712909	-2.7573279966	-2.0283637519	-0.118392
O	-0.093715426	-3.6480022463	-2.6921395735	-0.228351
C	 1.1771572964	-3.107943424	-2.4837034804	 0.016363
O	 1.1981975289	-2.6311346741	-1.1451994701	-0.271185
H	 1.4753130684	 1.6827734325	 0.4261812371	 0.128875
H	 1.3767317218	 1.9156672218	-1.3349309346	 0.126922
H	-0.1142981793	 1.7735373095	-0.3707978489	 0.169826
H	 1.7042157774	-0.5551383376	-0.7715496151	 0.259127
H	-0.4302407485	-2.7018465987	 0.1036619911	 0.121727
H	-1.86420447	-3.3167473471	-1.7181544357	 0.133563
H	-1.2925170178	-1.9345103824	-2.6852132795	 0.119525
H	 1.930734602	-3.8912924365	-2.5981588384	 0.126595
H	 1.3766038163	-2.2747000976	-3.1827331605	 0.085328
36.8957	62.4631	95.4285	137.9701	185.4903	272.8476	280.5498	334.4716	463.5702	549.9033	623.2598	727.2332	744.8842	768.6827	857.5346	952.6312	962.7615	998.1189	1059.0815	1094.4592	1110.8936	1113.9713	1154.3189	1179.2205	1186.2451	1210.4267	1257.9503	1258.7674	1302.5688	1334.2293	1361.5789	1428.5666	1441.4653	1495.7763	1499.8201	1515.0702	1540.8931	1571.4466	1779.0642	2932.6533	3026.0717	3029.2441	3059.0278	3081.8528	3098.9837	3130.7126	3149.2646	3629.5408
CNC(=O)C1COCO1	CNC(=O)[C@H]1COCO1	
InChI=1S/C5H9NO3/c1-6-5(7)4-2-8-3-9-4/h4H,2-3H2,1H3,(H,6,7)	InChI=1S/C5H9NO3/c1-6-5(7)4-2-8-3-9-4/h4H,2-3H2,1H3,(H,6,7)/t4-/m1/s1
