21
gdb 40735	3.61635	1.09215	1.02441	1.8183	81.34	-0.2614	0.079	0.3404	1253.8501	0.18432	-387.065954	-387.057908	-387.056964	-387.099006	31.464	
C	-0.0756898196	 1.262969944	-0.3016037035	-0.190321
O	 0.8090282191	 0.1674535316	-0.5473279717	-0.243264
C	-0.4433065512	-0.1042816265	 0.0881853416	 0.094962
C	-0.3775605225	-0.5718599055	 1.5260435116	-0.024741
C	-1.7490698368	-0.463102529	 2.2617856927	-0.247087
C	-2.2847266114	-1.8808614355	 2.399931818	-0.017716
C	-2.4005758278	-2.7228981269	 1.1530381991	-0.291046
C	-1.1845510642	-2.8528648919	 2.0368423086	-0.018704
C	 0.0613981579	-2.0623082327	 1.6652194003	-0.241771
H	 0.2541755275	 1.9667392166	 0.4621586401	 0.110796
H	-0.5173460951	 1.7167794489	-1.1879239206	 0.112365
H	-1.1488943112	-0.6279601351	-0.5591169268	 0.090839
H	 0.3616350197	 0.070167309	 2.0145398509	 0.078532
H	-1.6025756497	-0.0335129695	 3.2586080573	 0.100421
H	-2.4396154419	 0.2035518507	 1.7314202196	 0.097947
H	-2.9679583166	-2.0875249809	 3.2165382736	 0.079191
H	-3.1158156555	-3.5383517956	 1.1727360317	 0.108598
H	-2.3054857028	-2.2546291449	 0.1790671002	 0.11016
H	-1.0541710188	-3.7790905938	 2.5859157414	 0.079502
H	 0.5463066954	-2.4213737553	 0.7508701141	 0.112002
H	 0.7999084455	-2.1564088977	 2.4686180116	 0.099333
64.6839	101.3012	172.4072	280.366	298.9395	333.3617	377.8285	478.7803	631.6534	733.3952	757.6959	770.6733	821.6115	857.8677	875.046	890.8592	900.6199	937.772	978.6145	987.6827	1004.5487	1045.1022	1051.1223	1083.6815	1093.7709	1105.1806	1115.758	1144.9734	1158.5269	1170.8401	1203.4472	1208.6168	1237.2417	1265.055	1298.8177	1318.4143	1323.2164	1327.9487	1356.6639	1399.9853	1451.8922	1486.1512	1492.0447	1503.4385	1529.5721	3031.0976	3037.5975	3054.6826	3069.4828	3075.9359	3079.2181	3095.8281	3130.7994	3160.1023	3164.4656	3169.2604	3211.2777
C1OC1C1CC2CC2C1	C1O[C@H]1[C@H]1C[C@H]2C[C@H]2C1	
InChI=1S/C8H12O/c1-5-2-7(3-6(1)5)8-4-9-8/h5-8H,1-4H2	InChI=1S/C8H12O/c1-5-2-7(3-6(1)5)8-4-9-8/h5-8H,1-4H2/t5-,6+,7+,8-/m1/s1
