12
gdb 129039	2.73235	1.72014	1.09777	5.0107	70.89	-0.2796	-0.1292	0.1504	994.6851	0.076141	-468.755853	-468.748237	-468.747293	-468.788618	27.063	
N	-0.1206887272	 1.2417059777	-0.1904759323	-0.424501
C	 0.0348486238	-0.0134463933	-0.022350458	 0.111365
C	-1.18324009	-0.8289212614	-0.0069373323	-0.029142
C	-1.4032547059	-2.034904946	 0.5389170552	-0.017412
N	-0.4712100841	-2.7386965504	 1.2991274659	 0.055008
N	 0.6972740698	-2.8016930668	 1.3683843337	-0.000827
O	 1.5974272855	-1.9059110004	 0.1829082898	-0.324796
C	 1.4496684909	-0.6097733162	 0.0186263913	 0.373004
O	 2.3779536202	 0.1367667625	-0.1968945263	-0.326769
H	 0.8167110058	 1.6674794501	-0.2059644799	 0.260055
H	-2.0402815457	-0.3399266437	-0.4616445479	 0.15991
H	-2.3790410831	-2.5005968023	 0.5391289307	 0.164105
71.4076	88.9139	196.7373	289.6821	298.5154	389.2644	430.0241	465.2556	564.1684	619.7768	658.3515	764.8516	789.7433	799.1773	859.5333	952.2773	992.4597	1026.0535	1105.6436	1236.2976	1252.0038	1383.1537	1429.0881	1636.7556	1674.7505	1760.0219	1887.4423	3184.0197	3237.7883	3378.9154
N=C1C=CN=NOC1=O	[NH][C]1C=CN=NOC1=O	
InChI=1S/C4H3N3O2/c5-3-1-2-6-7-9-4(3)8/h1-2,5H	InChI=1S/C4H3N3O2/c5-3-1-2-6-7-9-4(3)8/h1-2,5H
