20
gdb 8492	2.63597	2.02247	1.9408	1.1347	75.04	-0.2553	0.0801	0.3354	875.5415	0.17627	-348.956517	-348.948181	-348.947237	-348.988696	32.615	
C	-0.1291914317	 1.5290065944	 0.0616025088	-0.471335
C	-0.0107003166	 0.000436867	 0.0147978433	 0.337283
C	-1.4266179057	-0.5520201393	-0.1906833849	-0.471267
C	 1.1864631234	-0.6495265739	-0.7859144882	-0.088306
C	 2.1631360067	-0.1228232755	 0.3068280189	-0.304173
C	 0.9211205073	-0.7054609371	 1.0573561287	 0.373388
O	 0.6499050165	-0.699256507	 2.4142933035	-0.477813
C	 1.0385780035	-1.9284012363	 0.0900305797	-0.303999
H	 0.8163723245	 2.0583407777	 0.1758797414	 0.113869
H	-0.6026767059	 1.896617987	-0.8556765405	 0.110975
H	-0.7724098164	 1.82510633	 0.8975702123	 0.123384
H	-1.8587018695	-0.1419880704	-1.1105032224	 0.111095
H	-1.4901352969	-1.637757204	-0.2560422988	 0.11396
H	-2.0713687981	-0.2363546274	 0.6368557094	 0.12308
H	 1.3451839647	-0.618932244	-1.8622141062	 0.074184
H	 3.0916579863	-0.6902782101	 0.4150464572	 0.081854
H	 2.3549034307	 0.9461472444	 0.3665847023	 0.095265
H	 1.347359491	-1.1824479748	 2.870370488	 0.281456
H	 0.1687457452	-2.5650669028	-0.0551150563	 0.095236
H	 1.9460035011	-2.5298461877	 0.1942906839	 0.081864
88.637	170.4071	172.4874	242.2617	245.4147	362.1852	410.7056	416.7042	476.0155	545.0342	585.1674	651.1938	687.0161	739.0771	802.232	896.1029	935.9289	948.3415	950.5758	974.0059	998.1002	1010.9155	1056.0037	1060.5278	1110.2827	1122.4153	1146.5905	1188.6811	1194.2828	1214.871	1231.0147	1266.5916	1293.8396	1375.2427	1405.2398	1424.3806	1476.4006	1483.3007	1509.105	1511.8407	1519.9322	1558.019	3033.9128	3040.4806	3061.7815	3069.8995	3086.2482	3092.8107	3133.1177	3133.3748	3136.8633	3159.4178	3160.8088	3807.5855
CC1(C)C2CC1(O)C2	CC1(C)[C@H]2C[C@]1(O)C2	
InChI=1S/C7H12O/c1-6(2)5-3-7(6,8)4-5/h5,8H,3-4H2,1-2H3	InChI=1S/C7H12O/c1-6(2)5-3-7(6,8)4-5/h5,8H,3-4H2,1-2H3/t5-,7-
