16
gdb 54086	2.28325	1.21475	0.87278	1.3482	66.96	-0.2606	-0.0489	0.2117	1285.7597	0.121121	-475.076901	-475.067375	-475.066431	-475.113247	32.879	
N	-0.3900614839	 1.3545470551	 0.1828979715	-0.527533
C	-0.1359723724	 0.0752650467	-0.1808896948	 0.401229
O	 0.8952916114	-0.2883874605	-0.7142969044	-0.362926
C	-1.303782987	-0.9163966761	 0.0528717713	-0.204044
C	-0.8501659579	-2.3635030373	-0.1367684126	-0.327558
C	-1.9384046577	-3.2792015184	-0.6381486124	 0.147825
O	-3.0563885283	-2.9221842496	-0.9179520245	-0.241679
C	-2.0814155077	-0.7304441589	 1.3478006944	 0.161852
O	-2.3395788612	 0.3287611331	 1.8672221309	-0.261184
H	 0.3702329843	 2.0117928383	 0.1094948522	 0.261271
H	-1.1683894683	 1.5482375579	 0.7987632142	 0.279287
H	-2.0500913609	-0.6985276486	-0.7275705438	 0.168929
H	-0.0157210485	-2.3828374644	-0.8488962734	 0.174884
H	-0.43765739	-2.7939649911	 0.7869216545	 0.129875
H	-1.6342353731	-4.3432494934	-0.7472371511	 0.092483
H	-2.4406392088	-1.6765522029	 1.8047920081	 0.10729
22.095	52.277	102.5894	154.1844	170.0169	259.8877	295.949	345.0432	409.2257	478.2	523.8653	606.5864	641.4464	691.1086	705.1907	735.2246	809.4745	926.8855	959.9818	1005.6989	1105.8641	1114.2743	1154.3083	1198.2087	1213.8428	1294.4924	1347.7885	1362.3299	1418.0228	1434.4728	1447.462	1618.1338	1793.6695	1810.4685	1821.081	2897.2182	2913.4534	3005.5389	3025.7964	3066.8856	3536.5429	3691.266
NC(=O)C(CC=O)C=O	NC(=O)[C@@H](CC=O)C=O	
InChI=1S/C5H7NO3/c6-5(9)4(3-8)1-2-7/h2-4H,1H2,(H2,6,9)	InChI=1S/C5H7NO3/c6-5(9)4(3-8)1-2-7/h2-4H,1H2,(H2,6,9)/t4-/m0/s1
