20
gdb 54911	3.41568	1.0202	0.93357	5.4972	75.27	-0.245	0.0193	0.2643	1327.8938	0.170451	-440.316547	-440.307342	-440.306398	-440.350856	34.671	
C	-0.3528065133	 1.5217769222	-0.0510952849	-0.440976
C	 0.028163266	 0.0419517286	-0.0225808576	 0.35499
C	-1.1868072959	-0.8554074613	-0.222172541	-0.429527
C	 1.2800193818	-0.282360717	-0.8942753472	-0.294026
C	 2.0963916628	-0.3254199608	 0.428610779	-0.10644
N	 0.8266916889	-0.3293398077	 1.1972995644	-0.384969
H	 0.7769273666	 0.3356694505	 1.9631705399	 0.224414
H	 1.4358181085	-2.1123231785	 1.6002784291	 0.300484
C	 2.9375659907	-1.5805530813	 0.6518218807	 0.420809
O	 4.0444514648	-1.7224350357	 0.2053104834	-0.34612
O	 2.2989367728	-2.5203642027	 1.3644119914	-0.370679
H	 0.5245507402	 2.1638768869	 0.0797934181	 0.119172
H	-0.8216229677	 1.7838168645	-1.0053677583	 0.127376
H	-1.0690616332	 1.7535709096	 0.7457708774	 0.119743
H	-1.6533649579	-0.6664427629	-1.1950780537	 0.119908
H	-0.9004373551	-1.9096627082	-0.1756858856	 0.122045
H	-1.9385629377	-0.6728624846	 0.5536981111	 0.117625
H	 1.2242840081	-1.248053965	-1.4003489886	 0.123148
H	 1.5792889139	 0.4807011894	-1.612832997	 0.11927
H	 2.7353974556	 0.5509587339	 0.5687590095	 0.103754
49.7013	87.6406	177.2037	217.8412	257.6977	272.1312	323.924	338.5537	399.0644	445.3928	477.3358	616.3548	639.5915	736.3882	759.6319	802.016	877.6439	886.3037	909.0972	943.3962	963.3493	981.4634	998.9686	1029.4821	1036.1638	1107.9963	1180.9407	1224.5516	1231.663	1235.1352	1282.1807	1291.4784	1329.4811	1379.4511	1406.0866	1421.2438	1430.4844	1479.5225	1483.3392	1490.8381	1501.4555	1505.9779	1871.0301	3025.1132	3032.3445	3069.306	3083.4482	3093.2152	3099.3897	3103.4531	3114.297	3142.3647	3463.0819	3514.062
CC1(C)CC([NH2+]1)C([O-])=O	CC1(C)C[C@@H](N1)C(=O)O	
InChI=1S/C6H11NO2/c1-6(2)3-4(7-6)5(8)9/h4,7H,3H2,1-2H3,(H,8,9)	InChI=1S/C6H11NO2/c1-6(2)3-4(7-6)5(8)9/h4,7H,3H2,1-2H3,(H,8,9)/t4-/m1/s1
