21
gdb 118670	1.62325	1.00063	0.65146	2.8407	77.32	-0.2436	-0.0322	0.2114	1731.1164	0.178423	-461.358063	-461.346817	-461.345872	-461.396084	38.207	
C	-0.1622355714	 1.7253834763	 0.1541552691	-0.386335
C	-0.0760003584	 0.2330276209	-0.1109465968	-0.046035
O	-1.3302576202	-0.3529937197	 0.2100638822	-0.255896
C	-1.3840744165	-1.7484484551	-0.0046949509	 0.029732
C	-2.6120044889	-2.3009422515	 0.7304103245	-0.226114
C	-2.5250940375	-2.1055425752	 2.2478808567	-0.070682
O	-3.6457314921	-2.6507470534	 2.92408312	-0.415528
C	-1.5134418757	-2.0584957241	-1.4947012795	 0.135139
O	-1.2049386508	-3.1031787323	-2.0038009916	-0.243529
H	 0.7932269225	 2.2072489907	-0.0725570693	 0.121049
H	-0.9379373297	 2.1822808369	-0.4666758854	 0.129104
H	-0.4066977297	 1.9144046505	 1.2032438013	 0.129629
H	 0.1799711598	 0.0424407933	-1.1658256015	 0.096662
H	 0.7164259268	-0.2284367219	 0.5000300165	 0.097349
H	-0.4752572912	-2.2453622872	 0.3716116213	 0.09054
H	-3.5086157019	-1.7959961038	 0.3462515169	 0.098966
H	-2.7102781797	-3.3669414856	 0.5031589645	 0.129452
H	-1.6524869257	-2.6414480073	 2.6382169482	 0.111613
H	-2.3874672724	-1.040815021	 2.4766655634	 0.107728
H	-4.4128518129	-2.1114044223	 2.7076842207	 0.282898
H	-1.9667427245	-1.2212405782	-2.0764236802	 0.084259
55.8049	60.1051	80.278	93.9695	97.5555	182.7384	200.6698	244.3518	274.8792	296.3808	346.8971	376.1646	416.2596	530.0608	589.039	777.9956	820.8694	892.2757	918.3665	964.5286	1013.5038	1071.2282	1074.6186	1090.0539	1101.1122	1140.876	1149.3889	1187.3348	1202.5433	1264.4571	1299.0025	1311.7567	1329.0193	1347.6833	1393.0329	1398.7558	1404.6225	1416.3502	1437.0232	1476.4329	1483.2584	1498.4245	1515.0459	1528.2552	1837.5039	2859.5765	2966.81	2982.7476	2996.2213	3019.4796	3025.3244	3046.7032	3068.9324	3098.8073	3122.2537	3123.2604	3817.9631
CCOC(CCO)C=O	CCO[C@@H](CCO)C=O	
InChI=1S/C6H12O3/c1-2-9-6(5-8)3-4-7/h5-7H,2-4H2,1H3	InChI=1S/C6H12O3/c1-2-9-6(5-8)3-4-7/h5-7H,2-4H2,1H3/t6-/m0/s1
