16
gdb 19960	3.5167	1.89496	1.4636	2.578	65.31	-0.2216	0.0259	0.2475	871.8315	0.131404	-379.902545	-379.895093	-379.894149	-379.934731	27.145	
O	 0.1107499728	 0.0021475848	-0.3705864184	-0.371661
C	 0.0456369595	 1.1900513477	-0.1825396868	 0.407587
N	-1.0025708101	 2.0534997781	 0.0076537229	-0.321061
C	-0.191241639	 3.2456255046	 0.2741364492	-0.175049
C	 1.0649499469	 2.3710255682	-0.0260668953	-0.105752
N	 2.091174632	 2.3475404962	 0.9889335225	-0.09074
C	 1.909343452	 1.4707795918	 2.1473994895	-0.234916
C	 2.9014696775	 1.1320866428	 1.0900210416	-0.218203
H	-1.9987010382	 1.8951273102	 0.0440387824	 0.251764
H	-0.3701304959	 4.0790947506	-0.4110294424	 0.116174
H	-0.2350956609	 3.5954899167	 1.3097153106	 0.121212
H	 1.530007958	 2.6192983486	-0.9848719983	 0.110076
H	 2.235193486	 1.8891105265	 3.0950901424	 0.116243
H	 1.0187284493	 0.8490931715	 2.2006792947	 0.130564
H	 2.6493129104	 0.3001888714	 0.4382036745	 0.147852
H	 3.9621913095	 1.2963089001	 1.257508051	 0.115912
68.0509	127.4159	151.4257	221.3872	345.2504	386.548	483.7132	525.3765	675.2688	746.2374	793.3051	823.225	888.3151	914.778	925.4021	988.8734	1030.2765	1083.9243	1097.0281	1127.1097	1134.5496	1158.7583	1174.4143	1180.3109	1195.263	1209.347	1293.4985	1329.6439	1354.7276	1393.2749	1487.3766	1514.4966	1525.9217	1875.1761	3049.5356	3069.7281	3101.8781	3107.46	3112.3018	3191.476	3208.2842	3609.2213
O=C1NCC1N1CC1	O=C1NC[C@H]1N1CC1	
InChI=1S/C5H8N2O/c8-5-4(3-6-5)7-1-2-7/h4H,1-3H2,(H,6,8)	InChI=1S/C5H8N2O/c8-5-4(3-6-5)7-1-2-7/h4H,1-3H2,(H,6,8)/t4-/m1/s1
