17
gdb 82673	2.7559	1.61014	1.22413	4.9165	76.99	-0.268	0.001	0.269	1036.9304	0.137243	-380.830599	-380.82303	-380.822086	-380.862547	29.22	
C	-0.0242607738	 1.6333131758	-0.0670595115	-0.435209
C	 0.0981183772	 0.1206939595	 0.0228643334	-0.033121
C	 1.1320338028	-0.6809086734	-0.8014213129	-0.036925
C	 2.5322919084	-0.1398947599	-0.4502993815	-0.247852
C	 2.2425000388	-0.7320610359	 0.9143318915	-0.072749
N	 1.2575751715	-1.7172200305	 0.3709817349	-0.179975
C	 0.7751341981	-0.5546088395	 1.213587638	 0.204566
C	 0.2368251728	-0.7208091497	 2.5278164192	 0.189753
N	-0.21429094	-0.8123639684	 3.5892955418	-0.341874
H	 0.9332781761	 2.1369951547	 0.0900510219	 0.124756
H	-0.4097105	 1.9318252824	-1.0476020201	 0.126603
H	-0.7221924704	 2.0041684843	 0.6902953204	 0.1394
H	-0.8803951815	-0.3520846093	-0.1100444682	 0.10735
H	 0.8923251831	-1.0402169602	-1.7992765718	 0.097228
H	 3.3101858424	-0.7204224609	-0.9518599153	 0.127474
H	 2.7395019389	 0.9278711069	-0.5564977738	 0.111764
H	 2.935064556	-1.0072660859	 1.701461284	 0.11881
129.8464	156.8841	184.69	234.4029	284.4022	426.554	501.8274	526.5008	550.7873	617.8064	689.8718	760.7399	785.349	844.9913	860.2054	927.4121	944.1041	983.527	1002.8843	1028.8203	1085.6548	1097.6982	1126.8351	1148.0676	1169.9327	1213.1958	1240.0485	1251.075	1271.6223	1314.4377	1367.8083	1405.9102	1416.6967	1487.6088	1493.3499	1507.2757	2350.366	3040.0555	3061.7089	3065.5237	3105.7896	3116.7182	3121.7256	3151.5526	3190.2901
CC1C2CC3N2C13C#N	C[C@H]1[C@H]2C[C@@H]3N2[C@]13C#N	
InChI=1S/C7H8N2/c1-4-5-2-6-7(4,3-8)9(5)6/h4-6H,2H2,1H3	InChI=1S/C7H8N2/c1-4-5-2-6-7(4,3-8)9(5)6/h4-6H,2H2,1H3/t4-,5+,6-,7+,9?/m0/s1
