19
gdb 75582	2.42692	1.55089	1.00297	3.04	80.19	-0.2371	-0.0503	0.1869	1192.0938	0.159531	-423.050098	-423.041484	-423.04054	-423.083742	32.23	
C	 0.0187346872	 1.4496323029	 0.4579615232	-0.459219
C	 0.008990815	 0.0184834696	-0.0322983067	 0.19001
C	-1.0784122419	-0.7501885214	 0.1552788065	-0.111317
C	-1.4014141992	-2.158181125	-0.2453187659	-0.254881
C	-0.4332421862	-2.8420743206	-1.2002183209	-0.097729
O	 0.8748948029	-2.860855181	-0.664943931	-0.234549
C	 1.6785950484	-1.7944349036	-1.0917369885	-0.177186
C	 1.2691064168	-0.3559160901	-0.7417364439	 0.260725
O	 2.0642464739	 0.5125125226	-1.0517650839	-0.312055
H	 0.8484630946	 1.6218193647	 1.1512725142	 0.13427
H	 0.1716177363	 2.1417434438	-0.374993187	 0.143402
H	-0.9178531252	 1.6988838163	 0.9618324655	 0.109898
H	-1.8971446745	-0.2767747817	 0.6976791355	 0.096765
H	-1.4765826806	-2.7607394496	 0.6721108675	 0.130669
H	-2.4102617322	-2.1733896259	-0.6826097979	 0.11189
H	-0.7387710964	-3.8833665771	-1.3504532215	 0.110537
H	-0.4425662055	-2.3473195129	-2.1835495097	 0.097034
H	 2.6647500016	-1.9444931873	-0.6417013319	 0.142053
H	 1.8218643748	-1.8127847136	-2.1848102736	 0.119685
47.7206	123.6519	169.2802	248.0739	276.9292	321.9859	353.5377	378.4061	410.1537	504.3206	570.0978	632.6301	660.1962	685.114	824.0084	873.7317	935.6186	956.2804	1003.651	1029.139	1074.5516	1086.5165	1090.8742	1117.1102	1169.0886	1239.5298	1266.7409	1288.4938	1321.7434	1372.3256	1385.0513	1407.0049	1415.5432	1419.942	1452.9239	1454.8815	1470.7871	1489.6302	1504.6196	1700.9829	1743.5271	2976.2953	2990.3357	3002.0109	3030.4172	3043.6412	3066.7301	3088.2291	3102.3147	3119.9683	3129.6411
CC1=CCCOCC1=O	CC1=CCCOCC1=O	
InChI=1S/C7H10O2/c1-6-3-2-4-9-5-7(6)8/h3H,2,4-5H2,1H3	InChI=1S/C7H10O2/c1-6-3-2-4-9-5-7(6)8/h3H,2,4-5H2,1H3
