17
gdb 30564	4.69972	0.91343	0.76842	2.8901	80.97	-0.1952	0.0176	0.2128	1449.8575	0.136626	-418.030223	-418.021732	-418.020788	-418.063707	31.23	
C	-0.227622235	 1.6025379674	-0.0372374185	-0.311868
N	 0.0122438498	 0.1759406754	-0.0359543667	-0.216851
C	-0.9947395812	-0.5846122086	 0.1088517822	 0.096639
N	-0.9186395319	-1.9529826644	 0.1295738511	-0.431044
C	 0.236633905	-2.7207498429	-0.0004323394	 0.307017
C	 1.5298414482	-2.3169252842	-0.1737950593	-0.07359
O	 2.3431703528	-3.4138020005	-0.2530750438	-0.148264
C	 1.5613992866	-4.5093172316	-0.1295775149	 0.021887
C	 0.2599620251	-4.1576656148	 0.0281891091	-0.307037
H	 0.3455787057	 2.0802422651	 0.7667831746	 0.122397
H	 0.1234216399	 2.0413162144	-0.9792933041	 0.122398
H	-1.288812233	 1.8753896705	 0.0916673216	 0.090427
H	-2.0252725852	-0.2215668437	 0.231698289	 0.077738
H	-1.7816943681	-2.4535124868	 0.2503123022	 0.252806
H	 1.9884475791	-1.3512575751	-0.25322795	 0.159743
H	 2.0667232956	-5.4599136959	-0.172952696	 0.134774
H	-0.5809726237	-4.8233514242	 0.1497484628	 0.102829
69.2789	132.1061	144.8949	206.2763	267.0588	309.9524	331.6396	363.8741	467.7743	613.3917	640.9027	655.0773	721.0181	773.8818	793.2385	802.4749	887.7584	971.0066	982.8403	1050.6715	1062.6978	1089.4059	1140.1173	1150.3204	1209.1156	1216.7996	1246.521	1294.3224	1398.8289	1411.3516	1449.0382	1480.0642	1505.7276	1523.897	1578.4792	1650.9448	1753.9301	2958.8978	3013.0637	3046.4486	3063.5523	3245.1766	3283.0021	3344.4831	3670.6079
CN=CNC1=COC=C1	CN=CNc1cocc1	
InChI=1S/C6H8N2O/c1-7-5-8-6-2-3-9-4-6/h2-5H,1H3,(H,7,8)	InChI=1S/C6H8N2O/c1-7-5-8-6-2-3-9-4-6/h2-5H,1H3,(H,7,8)
