17
gdb 77832	2.36638	1.4817	1.34059	3.2507	68.62	-0.237	-0.0123	0.2248	1036.0865	0.135111	-458.972248	-458.963911	-458.962967	-459.004905	32.113	
O	 0.0334087258	 1.3616896556	-0.0685635921	-0.415841
C	-0.0491729486	-0.0281345371	 0.0063633897	 0.01742
C	-0.5350033268	-0.7694756616	 1.2666353522	-0.272018
C	-1.2230774286	 0.0483733393	 2.3152543306	 0.425428
O	-0.9598269607	 0.0438513765	 3.4925739894	-0.333663
C	-2.3443750488	 0.8575782882	 1.652476869	-0.32804
C	-2.6062999157	 0.1783517417	 0.2944827573	-0.287966
C	-1.3783765166	-0.6888635131	-0.0001551599	 0.355862
O	-1.5631142023	-1.8441645912	-0.7565447299	-0.463043
H	 0.8025236833	 1.6478020433	 0.4367822116	 0.298183
H	 0.7348833625	-0.5714254615	-0.5210174753	 0.105453
H	 0.0088453881	-1.6560617343	 1.5669313089	 0.114895
H	-3.2173763243	 0.8913271173	 2.3077272404	 0.1271
H	-1.9824296838	 1.8822964638	 1.5246523764	 0.139442
H	-3.464246022	-0.4977112175	 0.3573088033	 0.119557
H	-2.8017712802	 0.8959956331	-0.5079803616	 0.109945
H	-1.6411593012	-1.5877752923	-1.68259797	 0.287286
93.5008	167.514	215.5848	225.6356	275.8969	339.1927	362.2253	432.5717	462.513	519.878	560.1309	606.8594	644.9024	693.214	769.2996	813.1295	923.9436	931.5758	951.6039	1003.1244	1039.6452	1049.8815	1111.8742	1161.7968	1168.5293	1218.1094	1227.1336	1255.472	1283.0187	1296.6387	1322.7448	1326.0404	1362.6187	1445.743	1470.994	1504.0804	1829.5228	3052.9837	3067.9511	3095.1415	3108.1709	3121.0464	3203.9675	3792.7452	3798.863
OC1C2C(=O)CCC12O	O[C@H]1[C@H]2C(=O)CC[C@@]12O	
InChI=1S/C6H8O3/c7-3-1-2-6(9)4(3)5(6)8/h4-5,8-9H,1-2H2	InChI=1S/C6H8O3/c7-3-1-2-6(9)4(3)5(6)8/h4-5,8-9H,1-2H2/t4-,5+,6+/m1/s1
