19
gdb 49710	3.0034	1.47006	1.43293	2.2894	74.22	-0.245	-0.0301	0.2149	1000.3517	0.16149	-423.045001	-423.037541	-423.036597	-423.077212	29.053	
O	-0.8003125417	 0.956290474	 0.4439163742	-0.247989
C	 0.1388871676	 1.0449618804	-0.3088056166	 0.125428
C	 1.3008167309	 1.9895979918	-0.1677479368	-0.093646
C	 1.2111936134	 3.2876603532	-1.0337873962	-0.066458
C	 0.0212343376	 4.0301640634	-0.3819663073	-0.219924
C	 0.2189469723	 3.728273999	 1.1386045563	-0.21693
C	 1.4545893069	 2.810453601	 1.1265774075	 0.104859
O	 2.6107358882	 3.6098719876	 0.831337403	-0.282746
C	 2.506547443	 3.9686827906	-0.5592118109	-0.075978
H	 0.2026827262	 0.3887107775	-1.2079639655	 0.07978
H	 2.2170505465	 1.4350966081	-0.4040666558	 0.093721
H	 1.147333005	 3.1548597609	-2.1147845261	 0.073966
H	 0.0446024937	 5.0986736451	-0.6121272813	 0.100851
H	-0.9327028524	 3.6366425444	-0.7429396518	 0.110377
H	 0.4331058229	 4.6245124875	 1.724793603	 0.104473
H	-0.6458182441	 3.2193457189	 1.5660768826	 0.126987
H	 1.6469771257	 2.2592748052	 2.046660354	 0.083376
H	 3.3941922835	 3.6073386153	-1.094817293	 0.09815
H	 2.4596197146	 5.059931736	-0.6638283393	 0.101702
62.6767	183.0747	218.4082	229.7663	340.6682	403.1212	418.397	590.5862	673.7199	732.5142	801.7379	833.3688	856.083	880.8078	898.8654	906.0145	956.1677	970.2693	997.0848	1010.3805	1039.9847	1049.2772	1090.3391	1092.5597	1154.0484	1177.6835	1206.3942	1226.7107	1251.6678	1275.3057	1292.3573	1310.409	1326.3776	1343.9589	1368.1386	1387.783	1431.8224	1475.6162	1502.1091	1530.0576	1816.5981	2859.1004	3008.8158	3044.3954	3047.369	3059.7649	3079.3189	3100.3191	3108.5552	3127.3422	3137.9144
O=CC1C2CCC1OC2	O=C[C@H]1[C@H]2CC[C@@H]1OC2	
InChI=1S/C7H10O2/c8-3-6-5-1-2-7(6)9-4-5/h3,5-7H,1-2,4H2	InChI=1S/C7H10O2/c8-3-6-5-1-2-7(6)9-4-5/h3,5-7H,1-2,4H2/t5-,6-,7-/m0/s1
