17
gdb 74800	2.72969	1.67488	1.17929	0.5565	75.18	-0.2252	-0.0542	0.171	1050.6937	0.136488	-418.038732	-418.03039	-418.029446	-418.071196	32.033	
C	-0.0659523892	 1.5330240236	-0.0080795409	-0.480806
C	 0.0833167909	 0.0329477411	 0.0053606204	 0.194856
C	-0.7906109111	-0.8364274238	 0.9342634007	-0.314452
C	 0.6969950379	-0.8188076229	 1.096265192	-0.048518
N	 1.3914887598	-1.9638091557	 0.5254370461	-0.296597
C	 1.2715662754	-1.893810857	-0.752387659	 0.28353
N	 1.6966229596	-2.7948428601	-1.6715902992	-0.56898
C	 0.5130934399	-0.6692259298	-1.2401624659	 0.297577
O	 0.3774896265	-0.3468202085	-2.3972262508	-0.341177
H	 0.8630471406	 2.0197013215	-0.3221852965	 0.128964
H	-0.8519218443	 1.8381361232	-0.7064068293	 0.137448
H	-0.3264764953	 1.9108527488	 0.9846832158	 0.118479
H	-1.4100231785	-0.2747821367	 1.6273326403	 0.122277
H	-1.2413502756	-1.7450292128	 0.548079311	 0.129151
H	 1.1499388412	-0.3798673431	 1.9778771996	 0.102328
H	 2.3658763179	-3.4934176176	-1.393182128	 0.265052
H	 1.7213490144	-2.4723960704	-2.6264137863	 0.270867
120.5292	151.2769	198.0953	264.211	270.395	284.4606	372.1611	451.816	469.4898	507.2348	549.9597	582.395	650.0358	698.8159	804.9833	836.7955	860.8619	886.3961	974.1108	999.946	1020.1178	1050.0943	1073.7184	1103.5888	1121.2039	1174.9777	1252.1786	1292.6046	1381.2805	1413.5509	1418.4898	1481.1833	1486.0825	1498.6782	1604.422	1718.4539	1820.5555	3036.1861	3100.9325	3111.3563	3121.4168	3179.2066	3213.9149	3589.576	3713.7544
CC12CC1N=C(N)C2=O	C[C@]12C[C@H]1N=C(N)C2=O	
InChI=1S/C6H8N2O/c1-6-2-3(6)8-5(7)4(6)9/h3H,2H2,1H3,(H2,7,8)	InChI=1S/C6H8N2O/c1-6-2-3(6)8-5(7)4(6)9/h3H,2H2,1H3,(H2,7,8)/t3-,6+/m1/s1
