23
gdb 92174	2.52339	1.78015	1.57641	0.0791	87.56	-0.2592	0.0847	0.3439	1013.9182	0.209675	-351.140924	-351.1336	-351.132656	-351.172026	31.528	
C	-0.3553349162	 1.510268424	 0.0672772162	-0.414538
C	 0.0316377875	 0.0274503308	-0.0170318177	 0.045331
C	 0.769459293	-0.3816080526	-1.3307220683	-0.231882
C	 2.2675150138	-0.5839261036	-1.0643279667	-0.020938
C	 2.8355088312	 0.6421467104	-0.2952375684	-0.239458
C	 2.4334664918	-0.0956297937	 0.9940306331	-0.018271
C	 2.5156207893	-1.4552558007	 0.2347110029	-0.010926
C	 1.2502836382	-1.9460816023	 0.9523208252	-0.251781
C	 0.8943915768	-0.4444998114	 1.1656962224	-0.02445
H	 0.5130315	 2.1732296298	 0.0967751995	 0.121802
H	-0.9684109334	 1.8036568432	-0.7919143181	 0.108757
H	-0.9421147058	 1.7009283299	 0.9731298762	 0.107865
H	-0.9074584409	-0.5399770037	 0.030706275	 0.067243
H	 0.3403825609	-1.3075057022	-1.7294175891	 0.0943
H	 0.6307857554	 0.3819864899	-2.1053465642	 0.090511
H	 2.7949479641	-0.8988318383	-1.9680348608	 0.055447
H	 3.9276373236	 0.687879613	-0.3638792377	 0.092337
H	 2.4332942956	 1.6317179199	-0.5279426704	 0.088029
H	 2.9599107514	 0.0951361357	 1.9310418285	 0.055265
H	 3.4187724839	-2.0676241547	 0.206460629	 0.054945
H	 0.5260352303	-2.5677100971	 0.4140112457	 0.084802
H	 1.5121130005	-2.4452217558	 1.8905165365	 0.092088
H	 0.4452059093	-0.1685373507	 2.1234199409	 0.053523
172.2759	212.8318	262.7522	346.0557	372.6947	387.3363	433.1936	527.3826	623.8946	683.7471	741.2045	754.7935	819.7525	826.4262	846.9557	889.2262	919.0009	949.6545	965.5683	969.2275	990.7263	1016.1284	1021.5739	1056.2023	1065.5502	1082.6971	1097.4278	1112.7567	1145.0349	1165.533	1191.4191	1214.8319	1228.4789	1244.256	1266.0928	1281.3727	1294.107	1305.9694	1317.0979	1322.7147	1355.9492	1364.1505	1384.4794	1414.3862	1482.8149	1490.2553	1499.9478	1504.4814	1512.6384	3001.1567	3027.6875	3032.2191	3034.1265	3042.2158	3061.9293	3065.2721	3069.8957	3083.0926	3084.8111	3089.558	3091.5958	3095.617	3124.5719
CC1CC2CC3C2CC13	C[C@H]1C[C@H]2C[C@@H]3[C@H]2C[C@H]13	
InChI=1S/C9H14/c1-5-2-6-3-9-7(5)4-8(6)9/h5-9H,2-4H2,1H3	InChI=1S/C9H14/c1-5-2-6-3-9-7(5)4-8(6)9/h5-9H,2-4H2,1H3/t5-,6-,7+,8-,9-/m0/s1
