16
gdb 23104	2.05606	1.5432	0.92642	4.1141	72.5	-0.2494	-0.0157	0.2337	1203.7695	0.125505	-434.033906	-434.025551	-434.024607	-434.067419	30.644	
O	-0.1672034852	 1.3252042901	-0.1469830365	-0.386845
N	-0.0353572301	-0.0692164676	-0.1482546057	-0.204391
C	-1.1712158756	-0.6307208018	-0.089108273	 0.386759
C	-2.5532706519	-0.0022465417	-0.0346690888	-0.265923
N	-3.4995429551	-1.1103168934	 0.1618621797	-0.29308
C	-2.8519590594	-2.2927710271	-0.4053674313	-0.18922
C	-1.3299745481	-2.146351599	-0.071023842	-0.254046
C	-0.4437759314	-2.8724658258	-0.9709187147	 0.295987
N	 0.2231514853	-3.4788682672	-1.6938419264	-0.326065
H	 0.7481310677	 1.619725644	-0.2095362062	 0.315018
H	-2.6333342827	 0.7503425275	 0.7536818754	 0.140329
H	-2.7534026348	 0.5118258988	-0.9843328332	 0.145759
H	-3.6418446159	-1.253263709	 1.1565300007	 0.22853
H	-3.2830985663	-3.2130397794	-0.0089934271	 0.1286
H	-2.9796209778	-2.2960116972	-1.4933671609	 0.137321
H	-1.1561006287	-2.5134503311	 0.9493952999	 0.141267
61.001	118.9823	165.176	226.9202	246.2061	327.3849	396.9742	443.9572	494.4822	513.7632	551.8284	653.9045	666.5351	796.0399	820.5661	930.282	950.9259	980.4533	1006.5752	1024.7437	1051.4422	1112.7439	1156.3482	1206.6003	1251.6935	1288.1816	1310.4832	1328.7611	1365.2647	1409.2199	1468.886	1474.8064	1500.2437	1761.91	2362.6839	3020.7913	3024.7937	3053.6879	3100.3808	3129.5968	3519.547	3815.596
ON=C1CNCC1C#N	ON=C1CNC[C@H]1C#N	
InChI=1S/C5H7N3O/c6-1-4-2-7-3-5(4)8-9/h4,7,9H,2-3H2	InChI=1S/C5H7N3O/c6-1-4-2-7-3-5(4)8-9/h4,7,9H,2-3H2/t4-/m1/s1
