15
gdb 14886	5.02794	1.52627	1.22045	2.108	71.17	-0.2476	-0.0205	0.2271	962.7348	0.119607	-362.641433	-362.634238	-362.633294	-362.672861	26.922	
C	 0.0979103396	-1.1703010925	 0.0342788997	-0.340778
C	 0.0029912037	 0.0270163663	 0.0048570091	 0.279786
C	-0.1025237647	 1.4588347344	-0.028060931	 0.204919
N	-1.2398108895	 2.024261272	 0.0105860323	-0.316513
C	-1.2983855788	 3.4810598395	 0.0393800139	-0.156221
C	 0.02417377	 4.1339864362	 0.4510804545	-0.234984
C	 1.1500532667	 3.452068651	-0.313327117	-0.074039
O	 1.1319286451	 2.0334914866	-0.0969353932	-0.257859
H	 0.1704668468	-2.2296947051	 0.0606081238	 0.200629
H	-1.6070930184	 3.8317084985	-0.9554126987	 0.116291
H	-2.1050706641	 3.7682698419	 0.722710164	 0.117159
H	 0.0229978671	 5.2086459283	 0.2429031648	 0.106036
H	 0.188675265	 4.0045290345	 1.5265952038	 0.119505
H	 1.0572537423	 3.6394228315	-1.3915119589	 0.114762
H	 2.1397630991	 3.783191007	 0.0087877329	 0.121306
106.8971	162.2623	173.4186	281.1794	386.6957	459.9205	478.1379	557.0069	614.1422	643.7018	660.79	726.7749	820.4751	872.1258	892.7207	944.4772	954.7394	1072.8462	1118.4489	1146.6435	1205.1506	1236.9527	1261.7349	1301.4246	1367.6706	1370.8282	1413.1763	1479.0602	1486.2261	1513.2007	1710.9829	2245.7639	3011.5149	3020.861	3042.7001	3060.3228	3092.3396	3105.6229	3502.4252
C#CC1=NCCCO1	C#CC1=NCCCO1	
InChI=1S/C6H7NO/c1-2-6-7-4-3-5-8-6/h1H,3-5H2	InChI=1S/C6H7NO/c1-2-6-7-4-3-5-8-6/h1H,3-5H2
