20
gdb 36524	3.89029	0.97644	0.83014	0.9132	81.88	-0.2231	0.0395	0.2626	1387.6961	0.171451	-403.100858	-403.092205	-403.091261	-403.134261	33.154	
C	-0.0802805032	-1.2203603477	-0.0202133591	-0.423085
C	-0.0242360937	-0.0205372577	 0.0105787545	 0.298689
C	 0.019443265	 1.4398414512	 0.0392016956	-0.30588
N	 1.3795240956	 1.9718807494	-0.0019044222	-0.077824
C	 2.075469185	 1.6498334524	-1.2468371292	-0.153357
C	 3.49795588	 2.1982907829	-1.1933018616	-0.083033
O	 3.504834566	 3.5976827748	-0.9666042843	-0.24347
C	 2.837736046	 3.9154523714	 0.2409312742	-0.084555
C	 1.3953055715	 3.4135435415	 0.2301278497	-0.145133
H	-0.1281292749	-2.2810171822	-0.0393885577	 0.197363
H	-0.6027783682	 1.8323255381	-0.7908961821	 0.108526
H	-0.4504569288	 1.7919229856	 0.9663222559	 0.130748
H	 2.0985081008	 0.5629063807	-1.3704879859	 0.117022
H	 1.5544190175	 2.0803435624	-2.1249869945	 0.080072
H	 4.0585089663	 1.6814049549	-0.3975979856	 0.094665
H	 4.0086704759	 2.0328795044	-2.1459877462	 0.106775
H	 3.3691848649	 3.4714832071	 1.0985402235	 0.093668
H	 2.8639968902	 5.0045141198	 0.3382842376	 0.106525
H	 0.8273341489	 3.9619711121	-0.5474753645	 0.082611
H	 0.925461195	 3.6268179589	 1.197694912	 0.099674
72.7911	109.1503	180.086	254.2175	314.6622	322.6751	344.5294	382.4731	422.9179	493.2659	543.142	608.9468	630.7592	664.7205	806.6297	869.0603	880.8111	912.8248	967.423	1009.0473	1025.8617	1049.1861	1099.2392	1140.7042	1144.42	1154.7088	1187.9924	1230.5487	1260.9669	1298.5177	1320.4179	1337.1855	1361.9306	1379.1854	1401.6351	1422.8267	1428.9212	1475.5957	1483.5467	1485.6954	1495.8849	1505.9332	2241.1441	2894.5191	2907.0822	2916.4623	2975.5992	2981.9487	3036.5603	3053.2197	3083.7012	3089.5239	3092.9597	3504.7453
C#CCN1CCOCC1	C#CCN1CCOCC1	
InChI=1S/C7H11NO/c1-2-3-8-4-6-9-7-5-8/h1H,3-7H2	InChI=1S/C7H11NO/c1-2-3-8-4-6-9-7-5-8/h1H,3-7H2
