23
gdb 107263	3.06469	1.37222	1.23356	0.1827	88.64	-0.2412	0.0916	0.3328	1156.7607	0.208261	-351.124005	-351.116083	-351.115138	-351.156161	32.951	
C	 0.0818478654	 1.4834802472	 0.3143857178	-0.373178
C	-0.0763159125	 0.0393234505	-0.1810255197	-0.271995
C	-1.4949495672	-0.4760844612	-0.0817632252	 0.397445
C	-2.0172256759	-1.0173354419	 1.2314642427	-0.369761
C	-1.8741216411	-1.942573398	 0.0450680165	-0.092184
C	-3.0016804512	-2.0348312292	-1.003408778	-0.03715
C	-3.8415855511	-0.7480341022	-0.778450878	-0.236268
C	-2.5127338253	-0.0504784668	-1.1719047264	-0.088861
C	-2.342694881	-1.2398703691	-2.1843688518	-0.21231
H	 1.1199601049	 1.8202282044	 0.2288810034	 0.107112
H	-0.5400926954	 2.1740950058	-0.2648657904	 0.115279
H	-0.216943045	 1.5717783415	 1.364133969	 0.116285
H	 0.2658686731	-0.0270437685	-1.2227584422	 0.092362
H	 0.5865383154	-0.6158278519	 0.3983973129	 0.090411
H	-1.2636292918	-1.140832115	 2.0048192544	 0.101587
H	-2.987796669	-0.7480039862	 1.6301295351	 0.107941
H	-1.1247246935	-2.7269506104	 0.0689289815	 0.080263
H	-3.4740654144	-3.0068558864	-1.1495948605	 0.057337
H	-4.5997714568	-0.6276483232	-1.5552436399	 0.093926
H	-4.294029177	-0.552278557	 0.1940257942	 0.090968
H	-2.4900782058	 0.9908183244	-1.4963259061	 0.055503
H	-1.3262408172	-1.5191359244	-2.4761650111	 0.088262
H	-2.9834176377	-1.1545148723	-3.0668506683	 0.087026
93.8903	152.4714	205.6196	285.65	327.8417	393.5334	455.1372	522.0964	542.8866	617.3442	691.8612	776.9967	794.0851	829.2916	837.4352	843.0253	891.7758	906.8079	937.5055	962.1922	973.2784	1000.3851	1010.9784	1024.7275	1041.7531	1058.324	1070.7922	1084.9537	1091.3523	1104.3997	1116.7045	1142.4907	1216.8176	1227.4412	1234.3112	1243.3713	1265.7075	1287.2923	1296.3758	1336.807	1360.3744	1393.7571	1409.6986	1475.8811	1483.8778	1497.9805	1502.1313	1507.2255	1537.3806	3010.5093	3032.7474	3044.362	3047.9157	3074.6654	3099.1591	3102.5979	3104.2033	3105.4105	3110.0517	3122.3701	3129.5947	3161.9643	3206.3447
CCC12CC1C1CC2C1	CC[C@]12C[C@H]1[C@H]1C[C@@H]2C1	
InChI=1S/C9H14/c1-2-9-5-8(9)6-3-7(9)4-6/h6-8H,2-5H2,1H3	InChI=1S/C9H14/c1-2-9-5-8(9)6-3-7(9)4-6/h6-8H,2-5H2,1H3/t6-,7+,8-,9+/m0/s1
