14
gdb 27859	2.03793	1.99362	1.00839	6.1023	68.58	-0.2342	-0.0065	0.2277	1084.7354	0.103864	-466.2893	-466.281293	-466.280349	-466.321667	30.176	
N	-0.0232680015	 1.3512882271	 0.1441883717	-0.572751
C	-0.040068712	-0.0075375666	 0.0425610586	 0.498421
N	-1.1895423076	-0.634200018	 0.015236166	-0.392313
C	-1.0847159151	-1.999969959	-0.0283589608	 0.435226
N	-2.2717837122	-2.6448118011	-0.0702244907	-0.545886
N	 0.0096765849	-2.7391180958	-0.0521420898	-0.39298
C	 1.2112544245	-2.1042425028	-0.030010357	 0.418528
O	 2.3113657127	-2.6100928702	-0.0389206539	-0.394603
N	 1.1378648757	-0.6671194451	 0.012010353	-0.388538
H	 0.790102668	 1.857159816	-0.165821163	 0.264414
H	-0.9132954214	 1.7946394937	-0.0205954236	 0.274594
H	-3.1178199288	-2.1225398147	 0.0686230236	 0.265348
H	-2.2728811859	-3.6472587862	-0.002895573	 0.271393
H	 2.0265774589	-0.1926703674	 0.0742608288	 0.259146
129.7513	180.9419	196.0626	199.6886	330.458	351.7856	372.0423	492.8635	543.3329	559.0413	576.0107	581.67	606.0152	679.1517	740.6845	774.6687	812.4317	932.9675	983.4309	1060.8771	1088.0306	1172.5755	1250.8517	1320.305	1474.9615	1494.6889	1580.2889	1618.4403	1659.1365	1669.9552	1831.5236	3595.9951	3619.0979	3627.8428	3715.4819	3767.7745
NC1=NC(N)=NC(=O)N1	Nc1nc(N)nc(=O)[nH]1	
InChI=1S/C3H5N5O/c4-1-6-2(5)8-3(9)7-1/h(H5,4,5,6,7,8,9)	InChI=1S/C3H5N5O/c4-1-6-2(5)8-3(9)7-1/h(H5,4,5,6,7,8,9)
