23
gdb 111237	2.58163	1.30296	1.26795	1.7574	83.58	-0.2338	0.0778	0.3116	1187.972	0.208314	-388.289577	-388.281063	-388.280119	-388.322766	33.467	
C	-1.6653798808	-0.1518132729	-0.1320595751	-0.382948
C	-0.1533644966	 0.0086479785	 0.0716634999	-0.223077
C	 0.6546845347	-0.5527046368	-1.0896068639	 0.047135
C	 2.2010907046	-0.5825478637	-1.1082772294	 0.056916
C	 2.8013007725	-0.9532705186	 0.2526909069	-0.226159
C	 2.4016229619	-2.4087470152	 0.6137655727	-0.180994
C	 1.0695598023	-2.8589231519	-0.044260406	-0.229465
C	 0.848276042	-2.0703548273	-1.3402068614	 0.076064
O	 2.147490007	-1.7813281611	-1.9396240869	-0.303488
H	-1.9946994794	 0.3482386778	-1.0494925508	 0.117114
H	-1.9470850703	-1.2072899168	-0.214482764	 0.118926
H	-2.2274559259	 0.2774712704	 0.7028150266	 0.113427
H	 0.0865801366	 1.0745805618	 0.1828853994	 0.09698
H	 0.1385828015	-0.464316719	 1.0155233482	 0.100372
H	 0.3139984427	-0.097336694	-2.0258354231	 0.076708
H	 2.7292735437	 0.2376840732	-1.6033083762	 0.069041
H	 3.8926230078	-0.8739539886	 0.2157353045	 0.099011
H	 2.4638323419	-0.2353741775	 1.0093054238	 0.098625
H	 3.19003695	-3.0683304964	 0.2448799293	 0.116142
H	 2.3646411228	-2.5450068853	 1.6986345125	 0.090521
H	 1.1138679057	-3.9311124367	-0.2612479009	 0.099831
H	 0.2131918177	-2.7145404113	 0.6248781562	 0.099492
H	 0.1776284176	-2.5735942587	-2.0423672722	 0.069827
81.4052	107.9462	178.1598	204.2908	272.6257	289.442	406.2678	432.033	512.513	572.796	617.4249	729.6638	770.5121	809.2806	838.0517	858.6877	867.9374	902.9679	935.1637	965.6928	983.8681	1013.0171	1039.5394	1044.8026	1069.6226	1109.1074	1126.4276	1132.6713	1186.1419	1195.4653	1233.4005	1258.3942	1264.0024	1287.5808	1319.494	1335.9489	1343.4535	1346.2105	1354.0034	1381.8524	1385.9956	1408.332	1415.9513	1477.9046	1483.5646	1498.5964	1499.1463	1504.9982	1511.046	3020.8549	3030.6537	3034.0324	3035.8049	3041.8174	3059.6734	3062.0816	3064.6148	3067.1784	3074.3757	3075.7348	3098.126	3104.4378	3106.44
CCC1C2CCCC1O2	CC[C@H]1[C@H]2CCC[C@@H]1O2	
InChI=1S/C8H14O/c1-2-6-7-4-3-5-8(6)9-7/h6-8H,2-5H2,1H3	InChI=1S/C8H14O/c1-2-6-7-4-3-5-8(6)9-7/h6-8H,2-5H2,1H3/t6-,7+,8-
