18
gdb 125586	4.12812	1.06251	0.91024	2.6395	79.57	-0.2347	0.0209	0.2556	1311.1534	0.149661	-398.160047	-398.151718	-398.150774	-398.193694	30.663	
C	 0.63387243	 1.221943757	-0.1754288427	-0.48266
C	 0.0850909642	-0.1578125041	-0.0345637132	 0.339445
N	-1.0820138291	-0.5143234213	-0.5485819916	-0.268476
N	-1.1659629303	-1.8219290204	-0.1808307455	-0.268507
C	-0.0745262789	-2.1928127178	 0.5221227742	 0.40292
N	 0.7404280573	-1.156172881	 0.6324226371	-0.367049
C	 0.1383684642	-3.5422469613	 1.0624083244	-0.131301
C	 1.5502054902	-4.0971571195	 1.1136657028	-0.253916
C	 0.8677691154	-3.6959408873	 2.3846059937	-0.253915
H	 0.7972817076	 1.6758663352	 0.8071213443	 0.136288
H	 1.6006239669	 1.2036402242	-0.6884630555	 0.136287
H	-0.0580789919	 1.8454365656	-0.743958067	 0.13777
H	-1.9717064247	-2.3652438619	-0.4421415686	 0.272192
H	-0.6608275427	-4.2466103471	 0.8556277988	 0.083433
H	 1.6794119493	-5.1521320798	 0.9000123936	 0.116175
H	 2.3298866152	-3.446411699	 0.7362295305	 0.142569
H	 1.1904362865	-2.776476216	 2.858212644	 0.142569
H	 0.5203194308	-4.4706469655	 3.0587114406	 0.116178
56.4038	107.6918	141.4755	151.4246	274.6926	335.3328	421.9024	427.7349	529.5407	619.032	710.2613	737.7168	758.9146	799.3449	825.4538	914.1028	921.096	1005.3462	1023.9983	1044.1894	1070.31	1070.8347	1093.4189	1121.6453	1123.9516	1156.5655	1207.118	1217.7168	1241.6288	1360.389	1403.0443	1413.5705	1459.3334	1463.6546	1478.3219	1481.0532	1501.2986	1554.8074	1592.2734	3045.7373	3101.0936	3141.3673	3143.6839	3143.9593	3160.5578	3229.9425	3243.9144	3666.6888
CC1=NNC(=N1)C1CC1	Cc1n[nH]c(n1)C1CC1	
InChI=1S/C6H9N3/c1-4-7-6(9-8-4)5-2-3-5/h5H,2-3H2,1H3,(H,7,8,9)	InChI=1S/C6H9N3/c1-4-7-6(9-8-4)5-2-3-5/h5H,2-3H2,1H3,(H,7,8,9)
