21
gdb 60555	2.82196	1.20964	0.96764	2.561	78.53	-0.2437	0.0683	0.312	1283.0247	0.180771	-424.18985	-424.180158	-424.179213	-424.224281	36.994	
O	-0.2571568899	 1.5211269309	 0.1814173869	-0.43334
C	-0.045693544	 0.1168520255	 0.0607457982	 0.048446
C	 0.7221090325	-0.2277406327	-1.1994323509	-0.033739
C	 0.436937173	-1.5096939135	-1.9530401445	-0.273298
C	 0.0288036951	-0.1827240726	-2.5358577523	-0.280963
C	 0.6277346122	-0.4620179848	 1.3050396686	 0.409443
O	 0.6951132892	-1.8645651401	 1.2923587032	-0.470222
C	 1.7396608999	 0.2906429616	 1.9971719463	-0.330379
C	 0.3768057999	 0.1333742739	 2.6493574275	-0.306866
H	 0.5305793772	 1.9687551298	-0.1430674535	 0.282547
H	-1.0478142509	-0.3273281792	-0.0043996601	 0.087637
H	 1.7626326106	 0.0948986992	-1.1802741161	 0.081638
H	 1.2701250166	-2.0360265952	-2.4061631936	 0.113409
H	-0.3423504249	-2.1570750021	-1.5659747111	 0.128722
H	-1.0263459888	 0.0684800623	-2.5395389237	 0.125596
H	 0.5802084403	 0.1950999061	-3.3893804743	 0.113363
H	 1.2627288778	-2.1211025468	 0.557049612	 0.284109
H	 2.5567152418	-0.302086664	 2.392505269	 0.111846
H	 2.0176404219	 1.2769437893	 1.6406736685	 0.095336
H	-0.2585516568	 1.0089081307	 2.6986036601	 0.128118
H	 0.2958902773	-0.5617965782	 3.4767843198	 0.118597
71.5284	83.8312	155.3614	200.0119	247.1702	256.8159	293.8784	335.7277	349.026	393.6243	461.0176	504.7541	548.1104	726.8485	775.985	785.3722	833.6385	854.1414	914.7136	934.0009	936.4921	945.4799	978.2541	1024.9874	1047.1103	1053.6205	1073.0428	1081.0631	1084.7844	1140.9809	1152.6453	1193.4542	1199.3422	1223.3064	1250.4505	1273.5314	1294.1093	1337.1765	1385.8514	1395.4095	1428.4374	1439.6335	1472.2158	1497.0909	1506.0083	3024.9488	3111.4016	3130.5056	3132.7613	3138.7204	3147.2318	3212.476	3218.7606	3227.2123	3244.1469	3799.3139	3821.6838
OC(C1CC1)C1(O)CC1	O[C@@H](C1CC1)C1(O)CC1	
InChI=1S/C7H12O2/c8-6(5-1-2-5)7(9)3-4-7/h5-6,8-9H,1-4H2	InChI=1S/C7H12O2/c8-6(5-1-2-5)7(9)3-4-7/h5-6,8-9H,1-4H2/t6-/m0/s1
