16
gdb 43481	2.37889	1.91442	1.17715	1.3972	71.46	-0.2409	-0.0095	0.2315	1013.0865	0.127778	-434.09378	-434.086623	-434.085679	-434.125576	27.742	
N	-0.1204988457	 1.2747218625	 0.2071835509	-0.537247
C	-0.0088611119	 0.0290985035	 0.0032985527	 0.423548
N	 1.1375525384	-0.7493276556	-0.174107931	-0.362799
C	 0.9184073952	-2.0880135267	-0.4847480771	 0.416045
O	 1.783564968	-2.9133250489	-0.6398741536	-0.358403
C	-0.591556317	-2.2748624345	-0.5990695155	-0.172629
C	-1.2607305697	-2.9492685786	 0.6257453707	-0.173926
N	-1.4504558954	-1.6047430406	 1.2212717117	-0.311019
C	-1.1735610338	-0.9397155945	-0.0800676094	-0.063101
H	 0.7879441742	 1.7399766298	 0.2629054694	 0.211844
H	 2.077458328	-0.3980842032	-0.0599037151	 0.259668
H	-0.8581148045	-2.6482401576	-1.586953	 0.113729
H	-2.1889503733	-3.4629684198	 0.3446947313	 0.103644
H	-0.6428273544	-3.6301839921	 1.2190271154	 0.125346
H	-2.3609911762	-1.412698951	 1.6200752847	 0.230453
H	-2.0328846319	-0.5058746527	-0.5962019952	 0.094848
107.1239	137.7547	243.6942	261.4714	367.3577	488.1656	592.6868	604.2537	624.3655	652.221	707.3937	717.9091	813.5419	850.5559	885.4228	929.0506	938.5033	993.8948	1020.1689	1036.4094	1078.162	1113.0525	1142.6925	1191.8271	1214.7755	1237.2384	1278.7024	1309.6404	1341.973	1361.9915	1376.8649	1393.5347	1521.7693	1769.1406	1850.0521	3016.841	3078.6062	3087.3759	3127.9492	3448.3363	3556.9051	3618.5908
N=C1NC(=O)C2CNC12	[NH][C]1NC(=O)[C@H]2CN[C@@H]12	
InChI=1S/C5H7N3O/c6-4-3-2(1-7-3)5(9)8-4/h2-3,7H,1H2,(H2,6,8,9)	InChI=1S/C5H7N3O/c6-4-3-2(1-7-3)5(9)8-4/h2-3,7H,1H2,(H2,6,8,9)/t2-,3+/m0/s1
