13
gdb 28667	5.78625	1.02109	0.86792	3.8646	76.28	-0.2567	-0.0511	0.2056	1211.0242	0.09221	-415.69681	-415.689886	-415.688942	-415.728338	26.171	
O	 0.0730899901	 1.3334675816	 0.0867504744	-0.403172
C	 0.0628259261	-0.0071631506	 0.0574567013	 0.451408
N	 0.0970507924	-0.5938952432	-1.1362086334	-0.35792
C	 0.087250415	-1.9240621626	-1.1769286533	-0.051368
C	 0.0430164219	-2.7269243053	-0.0328042326	 0.114216
C	 0.0073829007	-2.0841434479	 1.2181752448	-0.141305
C	 0.0171467189	-0.7068730044	 1.2720510433	-0.199925
C	 0.0346689283	-4.1482441853	-0.1411361959	 0.204591
N	 0.0278983961	-5.3030134256	-0.2294875909	-0.331131
H	 0.1057810205	 1.6277474722	-0.835214505	 0.307142
H	 0.1156953182	-2.3817227945	-2.1613894662	 0.14112
H	-0.0273479664	-2.6737826134	 2.1269270521	 0.137738
H	-0.0090146718	-0.1647183511	 2.2084489013	 0.128605
106.1391	154.1608	256.9486	411.4643	419.4846	439.4395	495.9565	555.1697	563.5269	603.5118	663.6863	726.964	789.441	866.2707	876.8475	972.7285	996.6964	1031.5105	1145.4879	1191.3097	1233.6177	1317.7291	1354.2349	1367.1011	1439.9839	1526.6701	1616.0936	1648.3185	2342.5153	3179.3317	3203.9871	3222.4357	3756.8747
OC1=NC=C(C=C1)C#N	Oc1ncc(cc1)C#N	
InChI=1S/C6H4N2O/c7-3-5-1-2-6(9)8-4-5/h1-2,4H,(H,8,9)	InChI=1S/C6H4N2O/c7-3-5-1-2-6(9)8-4-5/h1-2,4H,(H,8,9)
