20
gdb 111354	2.56494	1.4075	1.0839	2.469	78.65	-0.2339	0.0639	0.2978	1172.8934	0.171103	-403.075288	-403.06681	-403.065866	-403.108391	32.952	
O	 0.0040676589	 1.4975488382	-0.0052045152	-0.422227
C	 0.0920414531	 0.0949712144	 0.1752402358	-0.070242
C	-1.2756850394	-0.5493938998	 0.0422104779	-0.061008
N	-1.9382885388	-0.3687093444	-1.3156477637	-0.162109
C	-1.1962196044	-1.197936996	-2.2945211577	-0.251666
C	-2.1223365002	-1.8789051891	-1.3727034003	-0.109013
C	-1.4686554776	-2.0707116781	-0.0246032329	 0.35407
C	-0.5745552638	-3.1928907929	 0.4250341903	-0.331283
C	-1.9204408693	-2.9732194212	 1.0792921193	-0.340028
H	-0.5337948151	 1.6428576742	-0.7925978563	 0.295589
H	 0.8114270577	-0.3565476342	-0.5257539376	 0.085386
H	 0.4849004153	-0.069965685	 1.1854238052	 0.106701
H	-1.9461500149	-0.0915308563	 0.7765717837	 0.096331
H	-1.5298156238	-1.017653305	-3.3118845569	 0.122899
H	-0.1254165395	-1.3492800447	-2.1884001981	 0.118205
H	-3.0610687357	-2.3237350168	-1.6891000858	 0.100007
H	-0.4562523987	-4.0470261703	-0.2341003469	 0.115944
H	 0.3153153578	-2.9445770161	 0.9945021697	 0.117994
H	-1.9431669554	-2.5751376916	 2.0891432653	 0.117502
H	-2.7135675165	-3.6823697852	 0.8638452341	 0.116946
84.7496	134.9826	147.5086	240.8882	265.351	300.7258	374.9337	439.2253	487.2072	536.9805	585.3175	740.4901	751.0896	781.6559	806.5239	889.8776	903.5355	921.703	952.7515	1001.5633	1026.6097	1051.1263	1053.6262	1061.7908	1078.2253	1092.5208	1105.2854	1110.7806	1151.3383	1187.4065	1210.8641	1221.5643	1252.1685	1275.4945	1314.0226	1331.2525	1387.2815	1414.4633	1435.2927	1464.2572	1491.5747	1506.5955	1511.9602	2978.88	3051.1329	3064.0451	3115.7187	3121.8498	3126.8968	3155.5618	3200.0082	3202.8785	3215.179	3790.9041
OCC1N2CC2C11CC1	OC[C@H]1N2C[C@H]2C21CC2	
InChI=1S/C7H11NO/c9-4-6-7(1-2-7)5-3-8(5)6/h5-6,9H,1-4H2	InChI=1S/C7H11NO/c9-4-6-7(1-2-7)5-3-8(5)6/h5-6,9H,1-4H2/t5-,6+,8?/m0/s1
