20
gdb 35130	4.33093	0.7973	0.79242	4.2741	84.29	-0.2816	0.0343	0.3159	1516.9479	0.171836	-366.007078	-365.998386	-365.997442	-366.041241	32.603	
N	 0.0118943803	-1.2810581814	-0.0140993388	-0.330128
C	 0.0105098044	-0.1250807552	 0.0283151027	 0.27181
C	 0.0183752369	 1.3285787728	 0.0912034402	-0.16301
C	-0.0776419872	 1.8968370975	 1.5471214854	-0.250374
C	 1.4667126122	 2.0889256522	 1.5505227693	 0.046793
C	 1.4503784196	 1.9554936554	 0.0000587377	-0.25038
C	 2.042255036	 3.3316786198	 2.1660639758	 0.010617
C	 2.4424243398	 3.3513958124	 3.6219617432	-0.271834
C	 3.5014346396	 3.3919255572	 2.5499069798	-0.271834
H	-0.7165084539	 1.7124488964	-0.6201053265	 0.120887
H	-0.6062885311	 2.8540560969	 1.5444282665	 0.110196
H	-0.5172973828	 1.2484069646	 2.3059947175	 0.123715
H	 1.9449912202	 1.2061738119	 1.9894472097	 0.084661
H	 2.2274406081	 1.3537820953	-0.4729669111	 0.123717
H	 1.4044221146	 2.9312617661	-0.4913723443	 0.110196
H	 1.6161538439	 4.2558063355	 1.7800944234	 0.076479
H	 2.2538967344	 4.2518292635	 4.1956933146	 0.114278
H	 2.3311512298	 2.4330151992	 4.1892821483	 0.114966
H	 4.1015338441	 2.5007560988	 2.3970845534	 0.114966
H	 4.0382657711	 4.3201092209	 2.389354013	 0.114279
53.5745	83.6705	129.5622	212.4306	222.586	281.5178	362.0941	438.5391	506.1022	568.1392	659.3232	784.211	791.5081	812.9012	829.1316	868.082	911.9745	921.1841	933.0499	989.1471	1010.7939	1012.2612	1059.9732	1080.8883	1096.3537	1100.6194	1135.9896	1165.7901	1182.3903	1199.0221	1223.8909	1246.265	1252.5059	1273.5586	1281.4665	1321.359	1349.7033	1437.2515	1471.1103	1471.3592	1492.2678	1507.3485	2350.2927	3044.0597	3063.9526	3067.1905	3085.254	3121.425	3130.6433	3131.4105	3133.2926	3135.9324	3209.1017	3224.0285
N#CC1CC(C1)C1CC1	N#C[C@H]1C[C@@H](C1)C1CC1	
InChI=1S/C8H11N/c9-5-6-3-8(4-6)7-1-2-7/h6-8H,1-4H2	InChI=1S/C8H11N/c9-5-6-3-8(4-6)7-1-2-7/h6-8H,1-4H2/t6-,8-
