21
gdb 107438	2.60111	1.4372	1.27813	1.2622	81.37	-0.2387	0.0745	0.3131	1113.0679	0.184147	-387.065049	-387.056886	-387.055942	-387.097505	32.837	
O	 0.012891637	 1.3708084424	 0.4227604081	-0.421238
C	-0.0420458188	 0.0786046754	-0.1729130597	-0.187606
C	-1.4496743232	-0.4413476792	-0.0709764524	 0.377583
C	-1.9411748562	-1.4099859688	-1.1219836931	-0.363442
C	-2.5427310034	-0.0286631123	-1.0412696431	-0.063246
C	-3.8380608528	 0.1949596234	-0.255301322	-0.251396
C	-3.5216060575	-0.095447758	 1.216934458	-0.022716
C	-3.1436707295	-1.4911463203	 1.6484267604	-0.312302
C	-2.0630980915	-0.489403983	 1.3214262136	-0.083083
H	 0.9367284415	 1.6302726167	 0.4862138979	 0.2856
H	 0.2577429126	 0.1177833884	-1.2324093254	 0.080061
H	 0.6486795106	-0.613754245	 0.3360684353	 0.08577
H	-1.2780506	-1.605601275	-1.9598616292	 0.102111
H	-2.5254015257	-2.2742148994	-0.8291046195	 0.109707
H	-2.3239712401	 0.655051277	-1.8551784493	 0.082571
H	-4.1387494775	 1.243191866	-0.355480618	 0.104604
H	-4.6707692172	-0.4091378986	-0.635874545	 0.098169
H	-3.9783040473	 0.5492796031	 1.9602359145	 0.080802
H	-3.2870264909	-1.7334848838	 2.696909521	 0.104124
H	-3.3283962475	-2.3300279283	 0.9870504508	 0.107088
H	-1.4399245428	-0.1140787206	 2.123949047	 0.086838
95.2273	145.8984	233.3927	261.4915	263.109	322.2754	413.3877	428.8124	547.5443	573.1258	672.6176	699.7643	787.9374	812.6803	826.8396	848.1584	873.8633	924.7663	956.4862	993.3124	1004.4476	1032.4127	1044.7525	1052.1683	1068.4737	1072.8074	1082.7336	1104.5736	1112.2553	1135.3099	1202.8775	1210.1754	1224.0291	1238.6952	1273.8403	1304.6804	1314.2707	1359.9689	1383.8238	1404.3872	1465.3486	1485.1494	1487.9421	1512.2235	1516.5514	2959.5154	2989.0969	3030.6881	3069.9673	3125.1133	3131.2885	3156.0996	3160.274	3184.9345	3206.6654	3214.3719	3828.7036
OCC12CC1CC1CC21	OC[C@]12C[C@H]1C[C@H]1C[C@@H]21	
InChI=1S/C8H12O/c9-4-8-3-6(8)1-5-2-7(5)8/h5-7,9H,1-4H2	InChI=1S/C8H12O/c9-4-8-3-6(8)1-5-2-7(5)8/h5-7,9H,1-4H2/t5-,6+,7+,8+/m0/s1
