12
gdb 21968	5.333	1.71629	1.29842	4.5438	63.79	-0.2488	-0.0775	0.1713	848.3468	0.085713	-414.619764	-414.613625	-414.61268	-414.650298	22.756	
O	-0.1971934682	-0.0112382233	 0.0045995189	-0.406228
N	-0.0636424054	 1.2176424964	 0.0070854348	 0.345477
O	 1.0076287266	 1.8143819053	 0.0016550056	-0.372186
C	-1.2539979068	 1.9899073023	 0.0170551326	 0.429973
C	-1.4470982066	 3.3571942881	 0.0221156337	-0.191723
C	-2.8444217766	 3.5537665937	 0.0317967149	-0.141826
C	-3.4459661058	 2.3037130567	 0.0323576572	-0.063514
N	-2.4679093043	 1.360610349	 0.0233611676	-0.293114
H	-0.6648708169	 4.0976034651	 0.0190004415	 0.140789
H	-3.3618454632	 4.5000724817	 0.0377614769	 0.118433
H	-4.4875493918	 2.0250604373	 0.0384361606	 0.143792
H	-2.556007671	 0.3570346678	 0.0212511758	 0.290126
115.3949	196.0118	231.2148	449.8778	547.9383	567.9724	613.6722	651.8208	755.3592	773.1959	820.2043	845.4178	893.8656	897.8184	980.224	1052.6089	1094.7451	1137.7416	1256.1774	1279.7136	1407.9055	1414.5917	1469.1625	1504.8455	1575.8749	1608.365	3256.6927	3274.9381	3286.2424	3663.8606
O=N(=O)C1=CC=CN1	O=N(=O)c1ccc[nH]1	
InChI=1S/C4H4N2O2/c7-6(8)4-2-1-3-5-4/h1-3,5H	InChI=1S/C4H4N2O2/c7-6(8)4-2-1-3-5-4/h1-3,5H
