14
gdb 10464	2.91711	1.78072	1.39618	4.9096	63.18	-0.2693	-0.0003	0.2689	904.9501	0.106993	-378.740657	-378.732893	-378.731949	-378.773352	27.617	
O	-0.1007111135	 0.4693194089	-1.0766816298	-0.299021
C	-0.0148182102	 1.2954941532	-0.2010562312	 0.151457
N	 1.1525520679	 1.6964768162	 0.4014656553	-0.351255
C	 2.4193199616	 1.0708664322	 0.164328085	 0.204832
C	 2.938645254	 1.035485167	-1.2603129233	-0.261774
C	 3.5775003144	 1.9618631969	-0.276238087	-0.302702
C	 2.7318234759	-0.0432957524	 1.0339910713	 0.258651
N	 2.9826623225	-0.9158163726	 1.750592153	-0.339478
H	-0.8820514932	 1.8551876337	 0.2015519031	 0.08819
H	 1.0771284061	 2.3071232444	 1.2018250113	 0.258415
H	 3.4738287307	 0.1427874461	-1.5585595661	 0.15201
H	 2.2694560134	 1.4399220593	-2.007471525	 0.157852
H	 3.3525132574	 3.0199432238	-0.3424826568	 0.13537
H	 4.5594561031	 1.7186536631	 0.1108894304	 0.147454
45.3497	154.5034	177.4487	225.9866	242.7526	359.3714	408.543	530.289	583.2966	589.4558	635.7769	769.8907	814.2015	906.7764	935.1329	980.9955	1006.5486	1034.541	1071.4683	1097.6849	1164.1161	1192.3835	1289.5908	1316.0434	1432.3787	1461.2799	1489.8263	1504.5295	1821.7447	2351.0652	2943.2944	3148.8119	3167.6467	3240.7278	3263.1858	3607.6504
O=CNC1(CC1)C#N	O=CNC1(CC1)C#N	
InChI=1S/C5H6N2O/c6-3-5(1-2-5)7-4-8/h4H,1-2H2,(H,7,8)	InChI=1S/C5H6N2O/c6-3-5(1-2-5)7-4-8/h4H,1-2H2,(H,7,8)
