23
gdb 40898	3.25302	1.24319	1.20802	0.066	89.02	-0.2469	0.083	0.3299	1189.2084	0.208586	-351.149945	-351.141817	-351.140873	-351.182892	32.511	
C	 0.1650972071	 1.6006507635	-0.1868497861	-0.211566
C	 1.6712200955	 1.5434233104	 0.2056499394	-0.298282
C	 1.4498679477	 0.1041523263	 0.7075120184	 0.382043
C	 0.0362880449	 0.0764144356	 0.1022064191	-0.305408
C	 2.3799875923	-1.0753405131	 0.7794440207	-0.115067
C	 3.8825756408	-0.8314195231	 0.7898799974	-0.216203
C	 4.1090104861	 0.2695973782	 1.8540707299	-0.217581
C	 2.9298925347	 0.1382887551	 2.8497086873	-0.215742
C	 1.7932219483	-0.4849867844	 2.0505932601	-0.109547
H	-0.4264634008	 2.2141858456	 0.4967917133	 0.101766
H	-0.054772702	 1.9173318954	-1.208658643	 0.096778
H	 2.3467851808	 1.6072357141	-0.653669103	 0.097969
H	 1.9956004255	 2.2760390821	 0.9499685285	 0.098728
H	-0.774296321	-0.2229173627	 0.7735667931	 0.095251
H	-0.0312705065	-0.5304310454	-0.8068717031	 0.096288
H	 2.0151293943	-2.0175846878	 0.3802761121	 0.071347
H	 4.3909849922	-1.758947325	 1.079988582	 0.096379
H	 4.2823132184	-0.5430607578	-0.189070068	 0.093142
H	 5.0797336594	 0.1744837073	 2.3482583273	 0.092041
H	 4.0941673367	 1.2550786057	 1.3810135175	 0.106499
H	 3.1947295497	-0.5349311888	 3.6739328542	 0.096554
H	 2.6656898004	 1.1019651533	 3.3005911504	 0.092683
H	 1.0010907955	-0.9935968545	 2.5927591924	 0.071928
51.6773	161.1382	176.15	218.5792	237.5778	389.9574	421.503	542.5525	645.7028	653.298	721.0151	784.1959	814.9969	828.1081	841.2196	876.0144	895.6717	900.6693	945.6925	956.83	962.0751	966.3764	1036.983	1039.1913	1067.7455	1081.2225	1097.7201	1142.5112	1154.034	1179.0534	1199.3451	1215.319	1233.6805	1247.3988	1252.0328	1261.2693	1278.6575	1303.7981	1307.5472	1327.9633	1335.937	1352.6545	1441.9979	1475.8314	1480.5105	1490.4763	1493.2525	1505.7252	1512.0696	3025.7939	3027.3642	3036.8648	3041.5946	3053.928	3060.0114	3064.9097	3066.4244	3080.6908	3086.9124	3102.6243	3118.737	3138.8196	3149.1201
C1CC2(C1)C1CCCC21	C1CC2(C1)[C@H]1CCC[C@@H]21	
InChI=1S/C9H14/c1-3-7-8(4-1)9(7)5-2-6-9/h7-8H,1-6H2	InChI=1S/C9H14/c1-3-7-8(4-1)9(7)5-2-6-9/h7-8H,1-6H2/t7-,8+
