20
gdb 57969	3.72664	0.85251	0.74639	4.3099	78.05	-0.2397	0.0297	0.2694	1564.3336	0.168779	-440.286283	-440.275957	-440.275012	-440.323073	35.502	
C	-0.2488174269	 1.4005824923	 0.0522884716	-0.344336
N	-0.0369247635	-0.036494216	-0.0112993934	-0.093624
C	-0.0161265568	-0.7168077112	 1.2681388658	-0.337343
C	 0.1010799522	-0.6335513516	-1.238499086	 0.439335
O	 0.0972353165	 0.0091627424	-2.2760890083	-0.37756
C	 0.2884132142	-2.1560474406	-1.2677929953	-0.384352
C	 0.161080446	-2.6998690571	-2.6711791409	 0.119848
C	-0.0908045943	-4.1252951662	-2.9088958976	-0.194228
O	-1.1363237842	-3.1633615714	-3.0532015753	-0.231589
H	 0.5530929834	 1.8845614441	 0.6240953285	 0.119317
H	-0.2589853434	 1.7911507568	-0.963384757	 0.172034
H	-1.2035093593	 1.6278239239	 0.5436216196	 0.121005
H	-0.9998283223	-0.6788391045	 1.7565875847	 0.128119
H	 0.27420016	-1.75986019	 1.1625391508	 0.14087
H	 0.7063018921	-0.2338188668	 1.9385433908	 0.128312
H	 1.2826979518	-2.3952863272	-0.866218724	 0.128232
H	-0.4457360757	-2.6618361186	-0.6339100348	 0.129361
H	 0.6685496142	-2.1182636667	-3.4365848907	 0.117308
H	 0.2533333548	-4.5896631886	-3.8321201082	 0.114511
H	-0.1943875389	-4.8052713031	-2.0631100803	 0.104779
41.2486	59.2046	82.4752	124.2147	151.0089	156.4785	230.3617	283.9401	346.4693	403.624	425.7229	486.0257	573.1788	620.0606	794.2308	811.1212	865.5301	952.1003	969.1924	983.839	1080.8917	1086.6314	1108.623	1131.462	1157.3383	1157.8928	1165.2655	1179.7012	1241.1366	1282.1344	1298.3925	1315.2931	1424.5022	1432.7708	1439.8994	1450.9834	1476.9776	1485.5067	1502.9372	1504.1413	1532.6243	1544.7005	1752.7982	3004.2363	3014.8402	3022.4697	3048.5156	3059.6817	3076.5104	3088.8922	3150.7021	3164.0896	3168.6315	3174.0707
CN(C)C(=O)CC1CO1	CN(C)C(=O)C[C@H]1CO1	
InChI=1S/C6H11NO2/c1-7(2)6(8)3-5-4-9-5/h5H,3-4H2,1-2H3	InChI=1S/C6H11NO2/c1-7(2)6(8)3-5-4-9-5/h5H,3-4H2,1-2H3/t5-/m0/s1
