20
gdb 91581	2.79276	1.1718	0.97039	2.734	79.9	-0.2303	-0.0268	0.2035	1272.447	0.169599	-403.116643	-403.107495	-403.106551	-403.151336	33.771	
C	-0.1194564536	 1.5311782849	-0.140003064	-0.41834
C	 0.0863108137	 0.0246164058	-0.2013100455	-0.010349
C	 1.358239716	-0.5420291047	-0.9374768138	-0.235501
C	 1.7499256205	-1.2455714614	 0.3629089165	-0.117968
N	 1.9171817157	-0.169047265	 1.3741099145	-0.369783
C	 0.5602412554	-0.7043889335	 1.0768853778	 0.330414
C	-0.3162954861	-1.2869755061	 2.1508256555	-0.409641
C	-0.9086925993	-0.2144998337	 3.0507079939	 0.168755
O	-2.0818340954	-0.097733201	 3.2914126616	-0.237404
H	 0.7598926593	 2.0188202887	 0.288912946	 0.137149
H	-0.2881692821	 1.9434881107	-1.140627221	 0.113315
H	-0.9906182014	 1.7881928642	 0.4733792791	 0.119209
H	-0.8104998247	-0.4706101435	-0.5879344592	 0.077058
H	 1.1073109053	-1.2253073163	-1.7513744087	 0.102254
H	 2.0796646985	 0.2002405376	-1.2885839736	 0.108672
H	 2.2582521695	-2.194912675	 0.4859397769	 0.093297
H	 2.2352351751	-0.618104147	 2.233766032	 0.221469
H	-1.138858518	-1.8719789239	 1.7271939299	 0.125547
H	 0.2846452398	-1.9548537535	 2.7863810969	 0.115901
H	-0.1581329283	 0.4836749428	 3.4860188252	 0.085947
47.189	69.2374	126.4135	197.0922	235.9205	269.5393	313.4586	353.0715	455.1895	468.7332	551.7805	663.833	672.4005	783.7909	820.9498	858.7775	887.3462	920.2274	925.9165	975.125	1017.6765	1021.4591	1078.0859	1095.1327	1098.8933	1114.0891	1147.2721	1181.0501	1195.6113	1229.8341	1256.6835	1277.1282	1320.084	1333.0003	1373.2836	1403.6428	1425.9161	1428.1058	1448.1555	1480.8562	1494.0687	1506.0669	1834.2516	2877.5208	3003.0559	3031.1169	3050.7031	3064.8006	3086.3458	3091.799	3120.5008	3124.1716	3180.571	3458.2539
CC1CC2NC12CC=O	C[C@H]1C[C@H]2N[C@@]12CC=O	
InChI=1S/C7H11NO/c1-5-4-6-7(5,8-6)2-3-9/h3,5-6,8H,2,4H2,1H3	InChI=1S/C7H11NO/c1-5-4-6-7(5,8-6)2-3-9/h3,5-6,8H,2,4H2,1H3/t5-,6+,7-/m0/s1
