20
gdb 29687	2.43059	1.51655	0.95058	0.8837	84.69	-0.1676	0.06	0.2277	1264.4253	0.169065	-403.193668	-403.183111	-403.182166	-403.229453	37.032	
C	-0.0193105043	 1.4415409671	-0.0034403347	-0.345739
N	 0.0255814041	-0.0046032321	-0.022482758	-0.098557
C	 0.0412985515	-0.8157254573	-1.1528599605	 0.292201
C	 0.0335080815	-0.2453449068	-2.5306616783	-0.500398
C	 0.0603149956	-2.1171359737	-0.7202845701	-0.330967
C	 0.0470752789	-2.1323206249	 0.7123508876	 0.150976
C	 0.0617780374	-3.3252955278	 1.6192351741	-0.513058
C	 0.0260615815	-0.8103387986	 1.0875325619	 0.269719
O	-0.004218704	-0.2040620291	 2.3087085007	-0.448074
H	 0.770795768	 1.8622432978	-0.6332106408	 0.132304
H	-0.9845220849	 1.8212050141	-0.3589727894	 0.130868
H	 0.131421052	 1.7819696642	 1.0208596201	 0.158406
H	 0.9085383693	 0.3865103097	-2.7348521775	 0.120012
H	 0.0420286577	-1.0597123119	-3.2591207134	 0.131535
H	-0.855722913	 0.3671450982	-2.7316818492	 0.120153
H	 0.0775447668	-2.9860446366	-1.3625771782	 0.082732
H	 1.0378858902	-3.8269618337	 1.6470351278	 0.123148
H	-0.1887295572	-3.0556212339	 2.6532942554	 0.093352
H	-0.6745544355	-4.0756082839	 1.309303702	 0.127911
H	 0.1677677346	-0.8746930908	 2.9762270604	 0.303474
66.4723	76.6446	119.1098	143.1986	162.2229	187.3408	250.6313	254.6451	272.8214	316.1273	326.1087	544.5976	581.1009	587.6931	623.6054	663.2154	742.6941	763.887	856.8511	988.2487	1009.3517	1054.9926	1061.0684	1063.1073	1152.0577	1170.9791	1192.9419	1226.0874	1275.5419	1377.0248	1403.333	1419.799	1427.5392	1459.9704	1477.3432	1479.2115	1488.0293	1496.9338	1503.345	1512.928	1549.8059	1588.0096	1654.4023	3003.4009	3006.6387	3028.3579	3041.2676	3053.8289	3072.3576	3084.0442	3117.2852	3155.9486	3231.2622	3845.7121
CN1C(C)=CC(C)=C1O	Cn1c(C)cc(C)c1O	
InChI=1S/C7H11NO/c1-5-4-6(2)8(3)7(5)9/h4,9H,1-3H3	InChI=1S/C7H11NO/c1-5-4-6(2)8(3)7(5)9/h4,9H,1-3H3
