17
gdb 26143	2.66811	1.34998	1.096	0.9987	72.1	-0.2138	0.0056	0.2195	1156.9899	0.135527	-455.158619	-455.149696	-455.148751	-455.192732	32.096	
C	 0.1894200966	 1.2218154469	-0.3545169945	-0.332946
N	 0.0120681304	-0.0564629206	 0.3304071498	-0.169417
C	 0.5609841967	-0.0805776424	 1.6841627216	-0.332929
C	-1.2076427539	-0.6709734141	 0.1601355242	 0.266116
C	-1.6246786261	-1.7948854882	-0.4826001665	 0.264976
O	-0.8752214587	-2.6692708175	-1.1787127558	-0.425627
N	-2.9863112593	-1.9664305989	-0.3438035323	-0.34279
C	-3.3561216188	-0.9493279765	 0.3742379631	 0.082477
O	-2.3764108065	-0.1161763894	 0.7282981907	-0.183023
H	 1.2553436341	 1.4717515388	-0.3832330491	 0.119911
H	-0.1731310605	 1.1354261554	-1.381278822	 0.13123
H	-0.3437695473	 2.05227609	 0.1367174264	 0.109563
H	 0.0621976377	 0.6287764829	 2.3648235899	 0.109572
H	 0.4609936397	-1.0868500886	 2.0971511994	 0.131218
H	 1.6253607053	 0.1747954013	 1.6472475137	 0.119911
H	-1.4786239528	-3.3488255466	-1.5027281202	 0.304536
H	-4.3557419264	-0.7137896225	 0.7074590114	 0.147221
45.3252	133.9377	138.6784	213.0786	223.5681	291.1278	297.5412	366.2333	374.1796	476.3971	526.7793	618.0153	677.1594	727.3173	746.2857	839.4361	939.8428	954.5681	999.9261	1062.517	1118.6531	1121.719	1174.0594	1207.0871	1235.0675	1258.4823	1320.9798	1379.1331	1419.3102	1440.4074	1471.4885	1478.3554	1494.9558	1501.9932	1523.4152	1550.4634	1754.8797	2970.1322	2975.2816	3064.6097	3065.5116	3120.9204	3123.3297	3260.1471	3807.0164
CN(C)C1=C(O)N=CO1	CN(C)c1c(O)nco1	
InChI=1S/C5H8N2O2/c1-7(2)5-4(8)6-3-9-5/h3,8H,1-2H3	InChI=1S/C5H8N2O2/c1-7(2)5-4(8)6-3-9-5/h3,8H,1-2H3
