19
gdb 113293	2.05843	1.30321	0.90997	0.8092	78.98	-0.2533	-0.0448	0.2085	1324.924	0.156396	-423.044525	-423.0348	-423.033856	-423.079294	34.741	
C	-0.1254418712	 1.3983268763	-0.2970941585	-0.377572
C	-0.0944687794	-0.0523325319	 0.2051565468	-0.221753
C	-1.4511920069	-0.7043401509	 0.0626353885	 0.000036
C	-1.8883216573	-1.3807312062	-1.1657992079	-0.296928
C	-1.6239196197	-2.2679566612	 0.0668577682	 0.085009
C	-0.4302322463	-3.1429532134	 0.0577818226	 0.085051
O	 0.5515626289	-2.9889109115	-0.6318853366	-0.274804
C	-2.8102851581	-2.75586731	 0.8100800805	 0.086225
O	-3.8765397963	-2.1870458487	 0.8470142576	-0.27636
H	 0.8551800024	 1.8679103637	-0.1775091483	 0.120496
H	-0.3938914856	 1.4431598771	-1.3573673234	 0.12368
H	-0.8545381797	 1.9990294545	 0.257183061	 0.119074
H	 0.6514247418	-0.62673815	-0.3491348064	 0.140193
H	 0.2076227563	-0.0684612844	 1.2592947872	 0.104408
H	-2.251957212	-0.2516140061	 0.6432872849	 0.124324
H	-2.9316114909	-1.3225799721	-1.4550855269	 0.147051
H	-1.1618336693	-1.5171073584	-1.9603626285	 0.147313
H	-0.4953724535	-4.0051799048	 0.7599523147	 0.082446
H	-2.6558139133	-3.7122307821	 1.3585809343	 0.08211
83.7058	113.3974	138.3878	153.1795	209.4524	216.9067	247.9938	269.3451	289.5535	411.7787	442.4622	493.2944	698.8202	727.2106	735.5485	801.4103	861.8529	939.1464	956.6637	992.9931	1024.0415	1062.906	1071.221	1082.0118	1125.4246	1140.0055	1209.1998	1236.965	1297.5365	1307.6625	1354.2499	1407.6391	1421.6666	1439.1585	1444.7612	1474.9527	1494.6919	1497.8952	1510.3708	1782.87	1820.8793	2862.903	2885.2052	3035.344	3038.1958	3093.9477	3112.3365	3115.2476	3134.2265	3147.0705	3236.1321
CCC1CC1(C=O)C=O	CC[C@H]1CC1(C=O)C=O	
InChI=1S/C7H10O2/c1-2-6-3-7(6,4-8)5-9/h4-6H,2-3H2,1H3	InChI=1S/C7H10O2/c1-2-6-3-7(6,4-8)5-9/h4-6H,2-3H2,1H3/t6-/m0/s1
