14
gdb 29170	3.2211	1.40121	0.97645	3.0529	71.07	-0.1979	-0.037	0.1609	1109.3354	0.101606	-473.8554	-473.847958	-473.847014	-473.887079	29.201	
O	-0.0988740586	 1.3720220003	-0.2718925801	-0.434556
C	 0.0232221145	 0.0354165558	-0.0290722603	 0.290208
C	 1.1977112685	-0.6017315184	 0.1431684652	-0.108597
O	 1.2549125309	-1.9558530923	 0.3858076082	-0.221331
C	 0.1299898966	-2.7073330287	 0.4618802589	 0.348481
N	 0.1240771333	-3.9654566731	 0.6844409819	-0.595242
C	-1.15545201	-2.0301547278	 0.2769585535	 0.315977
O	-2.2275367583	-2.8262591618	 0.3636201092	-0.417263
C	-1.2091370013	-0.7005204013	 0.0388542999	-0.267219
H	 0.7750531226	 1.7762214165	-0.2990688773	 0.301144
H	 2.1817926221	-0.156166506	 0.1140901731	 0.119278
H	 1.0573474223	-4.3526887708	 0.8002932596	 0.230228
H	-1.8599048584	-3.7162814038	 0.5397436022	 0.310373
H	-2.1500885542	-0.1838312085	-0.100239424	 0.128519
125.7384	212.1817	320.1287	321.1806	356.1917	370.4924	412.0618	469.1573	504.6923	601.6572	604.083	660.5335	685.9175	727.3931	770.0342	800.3284	831.3557	882.0808	992.1651	1039.2922	1167.0479	1190.5104	1222.1925	1257.068	1330.0549	1359.4577	1448.4092	1508.7354	1638.7491	1694.1365	1737.0914	3220.6091	3231.9463	3530.3088	3558.3131	3818.4843
OC1=COC(=N)C(O)=C1	OC1=COC(=C(O)C1)[NH]	
InChI=1S/C5H5NO3/c6-5-4(8)1-3(7)2-9-5/h1-2,6-8H	InChI=1S/C5H6NO3/c6-5-4(8)1-3(7)2-9-5/h2,6-8H,1H2
