19
gdb 95476	2.63037	1.71816	1.2921	1.665	76.96	-0.2395	0.0096	0.2491	1026.8039	0.160097	-422.997632	-422.989747	-422.988803	-423.029715	30.728	
C	-0.0660192283	 1.5938833496	-0.0171312965	-0.408667
C	 0.0262160552	 0.0723230834	 0.0114641312	 0.072585
O	 0.6989285791	-0.5043972206	-1.1208815216	-0.277906
C	 2.0632255706	-0.1564908097	-1.3260482751	-0.097968
C	 2.8649084806	 0.0083970704	-0.0574792581	-0.245797
C	 2.2435619128	-0.2192011565	 1.0865837614	 0.240027
C	 2.2392095041	 0.2071789056	 2.531544784	-0.158139
O	 0.7797285705	 0.2095837202	 2.4970041973	-0.307226
C	 0.777720039	-0.4976652858	 1.2226926616	 0.082169
H	 0.9161169645	 2.068024166	 0.0586483482	 0.119967
H	-0.5415044116	 1.9197668649	-0.9464860423	 0.119262
H	-0.668014148	 1.9405052741	 0.8272304046	 0.133288
H	-0.9825228896	-0.3468001891	-0.0556202683	 0.086561
H	 2.4675743452	-0.9472707759	-1.9698130742	 0.122592
H	 2.1388947278	 0.7841705432	-1.8986940389	 0.10467
H	 3.8657097523	 0.4237772266	-0.1344498294	 0.098012
H	 2.6165006617	-0.5299743128	 3.2538738664	 0.110253
H	 2.6563042589	 1.1926094969	 2.7683393846	 0.119153
H	 0.5018617151	-1.5496515306	 1.3726932853	 0.087163
137.9285	175.1436	207.3502	219.6401	270.6647	346.6962	384.0417	436.6983	514.832	577.8274	711.6615	772.3335	802.6075	816.4351	882.0223	898.5307	940.6576	974.1527	996.1415	1024.5565	1035.6365	1054.6594	1097.8502	1108.7836	1139.5289	1153.287	1168.3512	1248.9738	1260.9293	1304.5887	1329.9614	1339.4724	1368.6548	1387.0392	1396.7872	1410.223	1482.1089	1487.1821	1503.2548	1510.1736	1794.1881	2956.1491	3002.3866	3015.0649	3041.809	3048.135	3059.9015	3061.159	3123.0384	3125.3744	3169.8281
CC1OCC=C2COC12	C[C@H]1OC[CH][C]2CO[C@@H]12	
InChI=1S/C7H10O2/c1-5-7-6(4-9-7)2-3-8-5/h2,5,7H,3-4H2,1H3	InChI=1S/C7H10O2/c1-5-7-6(4-9-7)2-3-8-5/h2,5,7H,3-4H2,1H3/t5-,7+/m1/s1
