21
gdb 63829	2.85548	1.45648	1.29822	1.2041	82.69	-0.234	0.0252	0.2592	1082.4782	0.183087	-387.096011	-387.087729	-387.086785	-387.128343	33.645	
C	 0.4793157904	 1.4321848255	-0.2237145162	-0.459399
C	 0.0578413689	-0.0190179758	-0.0297641551	 0.413391
O	-1.3586386402	-0.1184128206	 0.0423866337	-0.476777
C	 0.7255570559	-1.0332882179	-1.0173478512	-0.294106
C	 1.4932508208	-1.6761353121	 0.1755726125	-0.055056
C	 2.9060140205	-1.2092818744	 0.4030765154	-0.078678
C	 3.0097760304	-0.3701618231	 1.4350925879	-0.061207
C	 1.6812242232	-0.1058973291	 2.1118879799	-0.282851
C	 0.6707483994	-0.8030863581	 1.1789655907	-0.042807
H	 1.567167765	 1.5417652798	-0.2235156191	 0.125583
H	 0.1139974167	 1.7988705402	-1.1919616408	 0.100858
H	 0.05683487	 2.0686709087	 0.5598651846	 0.121428
H	-1.7262028012	 0.3175022276	-0.7346635061	 0.270267
H	-0.0204869307	-1.7017381059	-1.4538863815	 0.097359
H	 1.3392644951	-0.6048428532	-1.8155315715	 0.087567
H	 1.3995580225	-2.7644880854	 0.2450271203	 0.071544
H	 3.7353158039	-1.5418841588	-0.2133656585	 0.087674
H	 3.9357562836	 0.0769210915	 1.7822489634	 0.08897
H	 1.6612936306	-0.5337538358	 3.1234217249	 0.103313
H	 1.4799883845	 0.9649858332	 2.235695387	 0.104534
H	-0.1263353291	-1.3230021764	 1.7105077098	 0.078393
83.4909	205.6173	265.7463	280.5276	293.2864	309.93	368.8411	392.4838	452.1632	492.6203	607.0114	702.2367	748.161	770.1555	797.0392	859.0511	862.8766	886.7129	937.4733	942.6922	962.1625	974.0075	1009.822	1025.5219	1033.7659	1102.1553	1113.3275	1128.0223	1143.7372	1190.3534	1195.033	1233.9907	1239.9944	1265.9519	1304.2152	1313.8456	1329.3662	1371.2222	1378.2756	1404.6837	1469.8933	1480.0767	1492.1023	1500.4075	1675.1812	3013.9115	3019.9828	3045.9886	3048.8432	3051.8917	3087.1132	3110.1927	3111.7336	3119.3966	3170.6718	3196.5579	3794.4671
CC1(O)CC2C=CCC12	C[C@@]1(O)C[C@H]2C=CC[C@@H]12	
InChI=1S/C8H12O/c1-8(9)5-6-3-2-4-7(6)8/h2-3,6-7,9H,4-5H2,1H3	InChI=1S/C8H12O/c1-8(9)5-6-3-2-4-7(6)8/h2-3,6-7,9H,4-5H2,1H3/t6-,7-,8-/m1/s1
