19
gdb 99646	2.3766	1.2485	0.9147	1.5427	76.56	-0.2395	0.0173	0.2569	1292.4094	0.159341	-419.185583	-419.17618	-419.175236	-419.220151	34.515	
C	 0.3786060545	 1.537669055	-0.9588344894	-0.337265
N	 0.1568476967	 0.122391662	-1.2739639802	-0.303637
C	 1.3794330454	-0.6916227308	-1.2549863004	-0.123835
C	 1.9563223926	-0.7904260442	 0.1069333039	 0.269404
N	 2.367873573	-0.8511068802	 1.1857686387	-0.324364
C	 1.1742275936	-2.0832035585	-1.850297869	-0.079889
C	-0.1740355324	-2.788022958	-1.8390146244	-0.34009
C	 0.3924754912	-2.2531037408	-3.132266582	 0.131614
O	-0.1738186344	-1.1681522727	-3.7889732078	-0.42991
H	 0.8701857508	 1.6976295379	 0.0114572075	 0.137068
H	 0.9989656212	 1.9876674875	-1.7399119927	 0.139698
H	-0.5846681768	 2.0528077807	-0.952812953	 0.136216
H	-0.5061118167	-0.2696106816	-0.6121239257	 0.243766
H	 2.1160866034	-0.1633822305	-1.8750914932	 0.140759
H	 2.0471016164	-2.7154510526	-1.7190877751	 0.110902
H	-0.1860052934	-3.8563114446	-1.6523944915	 0.121407
H	-1.0344248761	-2.2614753	-1.439037544	 0.112252
H	 0.7739017266	-2.9733677743	-3.8493862669	 0.108767
H	-0.3349455358	-0.4882244043	-3.1110126348	 0.287138
55.0407	113.0448	135.9122	196.2566	200.2432	243.031	278.1802	322.83	395.1265	444.2589	553.9437	591.1794	624.8893	638.9681	769.267	805.2864	822.6245	913.1446	938.2236	950.8245	1009.9521	1027.843	1062.6446	1102.7258	1125.2506	1144.4954	1155.4389	1167.5077	1206.1138	1242.8228	1305.3352	1343.388	1365.8857	1387.1555	1456.1962	1470.5435	1484.4025	1492.3728	1504.9694	1517.5087	2344.5249	3005.0255	3025.9666	3086.0807	3126.216	3133.0535	3152.1462	3162.8035	3218.3478	3519.8632	3603.6311
CNC(C#N)C1CC1O	CN[C@@H](C#N)[C@H]1C[C@H]1O	
InChI=1S/C6H10N2O/c1-8-5(3-7)4-2-6(4)9/h4-6,8-9H,2H2,1H3	InChI=1S/C6H10N2O/c1-8-5(3-7)4-2-6(4)9/h4-6,8-9H,2H2,1H3/t4-,5+,6-/m1/s1
