18
gdb 15878	2.35761	1.9967	1.25995	1.4186	68.54	-0.2433	-0.0325	0.2108	1004.4956	0.151717	-384.936725	-384.928038	-384.927094	-384.970669	30.957	
C	 0.0965601967	 1.5511210251	-0.1796931747	-0.413622
C	 0.0832263752	 0.0543706686	 0.0598250875	 0.150732
O	 0.9456083536	-0.6696566782	-0.8437049304	-0.303727
C	 1.4383311921	-1.502869062	 0.2274289878	 0.150717
C	 2.9383210798	-1.7144414012	 0.1717790275	-0.41363
C	 0.7825274269	-0.5804000823	 1.3044347574	-0.194598
C	 1.7130312371	 0.312621677	 2.0791174938	 0.164815
O	 1.6912374473	 0.4230157343	 3.2799502691	-0.258286
H	 1.1096937678	 1.9590347958	-0.1527836436	 0.125412
H	-0.3269856135	 1.7673706306	-1.1653555205	 0.134075
H	-0.5120184347	 2.0642480555	 0.5724312197	 0.127892
H	-0.9486229216	-0.3197716606	-0.0161261307	 0.08265
H	 0.9298800192	-2.4784686574	 0.2162189806	 0.082657
H	 3.4823376247	-0.7675644366	 0.1396047304	 0.125435
H	 3.2762561301	-2.2877796671	 1.0415188421	 0.127901
H	 3.1945940481	-2.2802989363	-0.7292236249	 0.134061
H	 0.1214542245	-1.0792958344	 2.0139838825	 0.093387
H	 2.4479541168	 0.8868136694	 1.4745214865	 0.084129
47.8199	61.3648	188.5225	206.6102	228.1465	295.4941	335.3984	373.6104	454.7056	474.0018	476.9023	712.8061	775.2892	878.6099	913.0707	939.9529	972.6647	1006.2623	1050.8333	1078.1947	1126.7555	1141.0442	1167.896	1176.0676	1225.0036	1278.425	1298.2461	1345.7461	1366.8241	1401.0294	1406.9601	1425.8816	1440.0897	1478.4887	1482.832	1499.8113	1504.3646	1820.2921	2893.5223	2984.2038	2990.011	3041.9244	3042.4457	3110.3324	3110.746	3110.9213	3127.3312	3128.5101
CC1OC(C)C1C=O	C[C@H]1O[C@@H](C)[C@H]1C=O	
InChI=1S/C6H10O2/c1-4-6(3-7)5(2)8-4/h3-6H,1-2H3	InChI=1S/C6H10O2/c1-4-6(3-7)5(2)8-4/h3-6H,1-2H3/t4-,5+,6+
