19
gdb 34424	2.98011	1.70393	1.26063	0.7225	85.96	-0.2495	0.0467	0.2962	1026.1385	0.160891	-348.691119	-348.683862	-348.682918	-348.722428	30.165	
C	-0.0116323172	-1.1830410555	 0.0381446054	-0.390763
C	 0.0022576378	 0.0203180145	 0.0269748585	 0.140814
C	-0.0042827126	 1.462321069	 0.0394645078	 0.269299
C	-0.9140471182	 2.1592517886	 1.0663171001	-0.307581
C	-0.6158894309	 3.645537116	 0.7359043743	-0.254532
C	 0.3901349641	 3.4629838272	-0.3975162624	-0.026281
C	 1.346261626	 2.273538365	-0.063367512	-0.087505
C	 1.4264664729	 1.9352140612	-1.5698473159	-0.254063
C	-0.0587938911	 2.2779805031	-1.3112165176	-0.087505
H	-0.020670781	-2.2447079172	 0.0442578256	 0.180159
H	-1.963282794	 1.8878284031	 0.918441394	 0.106755
H	-0.6442815176	 1.8836465516	 2.0898895311	 0.106755
H	-1.5072424475	 4.1921655641	 0.4124099755	 0.099911
H	-0.1874453387	 4.1879729841	 1.5845277011	 0.099911
H	 0.8156432573	 4.3480222309	-0.8734804301	 0.065201
H	 2.1488704248	 2.2602808159	 0.6768690446	 0.071355
H	 1.9842621003	 2.6370964877	-2.1954164219	 0.088962
H	 1.6548377001	 0.8998111254	-1.8306744999	 0.107754
H	-0.8886767746	 2.2698872654	-2.0208191382	 0.071355
148.1571	149.0837	243.9153	348.809	404.105	502.1492	508.1105	563.0604	616.6684	640.4432	676.6527	719.1704	731.4324	818.9327	843.5594	895.5168	899.8397	916.6299	953.0337	997.344	1017.1615	1031.0615	1049.2343	1064.1288	1105.1539	1117.7617	1147.1361	1178.5652	1179.6141	1207.9345	1224.0562	1241.3691	1254.8204	1264.2913	1282.2101	1323.771	1350.7677	1489.1987	1510.0423	1516.87	2229.1052	3045.8467	3057.7082	3058.4236	3080.678	3089.7122	3092.3322	3102.8937	3108.3167	3123.3428	3503.0151
C#CC12CCC3C1CC23	C#C[C@@]12CC[C@H]3[C@@H]1C[C@@H]23	
InChI=1S/C9H10/c1-2-9-4-3-6-7(9)5-8(6)9/h1,6-8H,3-5H2	InChI=1S/C9H10/c1-2-9-4-3-6-7(9)5-8(6)9/h1,6-8H,3-5H2/t6-,7-,8+,9+
