20
gdb 65102	2.99995	1.29246	1.25053	1.2126	78.24	-0.2523	0.0827	0.335	1130.31	0.170557	-403.0892	-403.080641	-403.079697	-403.122664	32.831	
C	 0.7242817369	 0.0678993737	 1.272394582	-0.4806
C	 0.0012993462	 0.0738772466	-0.0562079481	 0.325124
C	 0.466666557	 0.9323771139	-1.1526957793	-0.217742
O	 0.7438939222	-0.4708832729	-1.1624301964	-0.281919
C	-1.4252034489	-0.3602695367	-0.0108534114	 0.301826
C	-1.9075073097	-1.8198161919	 0.1044382113	-0.303127
C	-3.1582363015	-1.438000107	-0.7561744197	-0.236333
C	-2.6306230979	 0.0012069938	-0.8326353697	-0.099448
N	-2.4316183279	 0.566661679	 0.5004031835	-0.361159
H	 1.7714936353	 0.3515951227	 1.142530385	 0.125426
H	 0.2477512817	 0.769076844	 1.9645546488	 0.135227
H	 0.6947646647	-0.9295710578	 1.7244144111	 0.123817
H	-0.2363739215	 1.2767250053	-1.9086018988	 0.111413
H	 1.3298068145	 1.5781343127	-0.9941900739	 0.109193
H	-1.2496948858	-2.5196663215	-0.4146455562	 0.125637
H	-2.0867068976	-2.1848993276	 1.1213466238	 0.093368
H	-3.1654823606	-1.9484699194	-1.721658742	 0.113731
H	-4.1428255296	-1.5535597776	-0.2908597497	 0.098174
H	-2.7377024266	 0.6904271072	-1.6628928484	 0.095595
H	-3.040360161	 0.1435892335	 1.200005308	 0.221795
45.6766	140.2839	177.7941	204.0403	266.4121	302.3928	355.4885	441.965	492.5676	517.2864	549.4796	748.6861	785.7343	800.334	849.63	861.175	920.251	927.5634	943.6846	950.4855	1011.9725	1038.1386	1059.2936	1079.2324	1099.0703	1115.657	1133.0777	1166.8363	1173.2069	1200.3952	1219.0564	1235.4093	1253.911	1290.8215	1294.0433	1383.305	1408.5479	1460.6493	1477.4538	1483.0721	1496.7802	1504.8994	1531.5925	3037.0791	3042.5167	3051.2116	3084.5156	3103.2808	3104.653	3122.2345	3125.6273	3170.9969	3176.0699	3450.1635
CC1(CO1)C12CCC1N2	C[C@]1(CO1)[C@]12CC[C@H]1N2	
InChI=1S/C7H11NO/c1-6(4-9-6)7-3-2-5(7)8-7/h5,8H,2-4H2,1H3	InChI=1S/C7H11NO/c1-6(4-9-6)7-3-2-5(7)8-7/h5,8H,2-4H2,1H3/t5-,6+,7+/m1/s1
