16
gdb 8660	2.41822	1.86203	1.41325	1.3229	67.95	-0.247	-0.0419	0.2051	955.344	0.125317	-383.695207	-383.685703	-383.684759	-383.729458	33.127	
C	-0.3091923559	 1.3094582685	 0.2791330846	-0.251182
O	-0.1441454792	-0.0884665274	 0.0977280534	-0.27515
C	 0.5994798207	-0.480479437	-1.0588679217	 0.100006
C	 0.0657722807	 0.0923637092	-2.3767253784	-0.43167
C	 2.0758858078	-0.0716092801	-0.8145977843	 0.13137
O	 2.756789521	 0.5386081079	-1.5918207888	-0.237141
C	 0.5905157543	-1.9445960723	-1.0763758417	 0.298218
C	 0.6553418208	-3.143974533	-1.107622942	-0.43338
H	 0.6419460519	 1.8578246128	 0.2266988146	 0.121288
H	-1.001875707	 1.7433880963	-0.4526534628	 0.121342
H	-0.7302109272	 1.4358126064	 1.2787964883	 0.137576
H	 0.1933939438	 1.1759991656	-2.4123499289	 0.13184
H	 0.6223490122	-0.3338642478	-3.2130859786	 0.145824
H	-0.9915054977	-0.1588544767	-2.4864387376	 0.132947
H	 2.4396062057	-0.3911576582	 0.1854609603	 0.102159
H	 0.6892510182	-4.2055123544	-1.1347772964	 0.205953
57.4372	104.8664	147.4084	168.886	173.2361	240.5668	260.255	307.6071	366.2774	447.3	482.6717	534.3797	579.4745	639.001	670.1573	744.0313	881.6214	928.0187	1001.4515	1079.9582	1132.8001	1170.5713	1179.3305	1198.7741	1249.3759	1387.601	1406.8916	1472.6228	1481.1229	1485.1953	1496.5425	1512.8413	1836.9142	2235.8603	2911.1464	2998.9934	3057.6197	3063.8461	3124.2919	3143.9155	3147.0665	3499.7655
COC(C)(C=O)C#C	CO[C@@](C)(C=O)C#C	
InChI=1S/C6H8O2/c1-4-6(2,5-7)8-3/h1,5H,2-3H3	InChI=1S/C6H8O2/c1-4-6(2,5-7)8-3/h1,5H,2-3H3/t6-/m1/s1
