17
gdb 28953	3.5161	1.17233	0.93051	1.7926	76.52	-0.1977	-0.0196	0.1781	1220.7139	0.136209	-418.039141	-418.030474	-418.02953	-418.072995	31.795	
N	 0.3958408861	 1.2930919186	 0.3436698184	-0.604774
C	 0.072680228	-0.0558804986	 0.0791633903	 0.254004
C	-1.1154455716	-0.740699437	-0.0474088009	-0.224233
C	-0.793899814	-2.1156880429	-0.2294656906	-0.161434
C	 0.5745091224	-2.224652099	-0.2168263629	-0.110712
N	 1.1046084837	-0.9681821548	-0.0159380025	-0.003627
C	 2.5025656645	-0.6255405953	 0.0903732177	-0.255216
C	 2.834690395	 0.1252476311	 1.3804561319	 0.175718
O	 3.8108062536	 0.8146490688	 1.5006965759	-0.246142
H	 0.5787668196	 1.8327438156	-0.4976608635	 0.249053
H	-0.3448207527	 1.75547759	 0.8558305524	 0.251934
H	-2.1007551976	-0.3010268194	-0.012246455	 0.08749
H	-1.490347239	-2.9291493208	-0.3623987273	 0.095847
H	 1.2226947056	-3.077249427	-0.3426047761	 0.115665
H	 3.0789186453	-1.5578384414	 0.0998688456	 0.144242
H	 2.8601810903	-0.0316980304	-0.7578794016	 0.138295
H	 2.1282136107	-0.0681896575	 2.2150503182	 0.09389
53.9701	100.0849	158.3971	188.3562	252.69	265.3845	359.4877	408.1548	476.7222	620.4723	636.6025	690.3462	698.7294	728.7582	760.9221	800.7735	816.3359	832.9777	906.4385	1026.8448	1044.7372	1068.215	1102.2492	1153.2931	1198.2789	1242.8954	1277.0293	1321.1526	1340.6996	1402.5803	1412.6939	1457.0502	1481.8138	1521.8088	1599.1772	1655.83	1840.4893	2914.3242	3040.9966	3085.843	3239.4308	3250.8917	3267.7922	3490.6817	3596.3234
NC1=CC=CN1CC=O	Nc1cccn1CC=O	
InChI=1S/C6H8N2O/c7-6-2-1-3-8(6)4-5-9/h1-3,5H,4,7H2	InChI=1S/C6H8N2O/c7-6-2-1-3-8(6)4-5-9/h1-3,5H,4,7H2
