20
gdb 108927	3.30341	1.19086	0.98821	0.8859	79.96	-0.2355	0.0268	0.2624	1283.3315	0.170353	-403.166493	-403.157579	-403.156635	-403.200217	33.646	
C	-0.0564403196	 1.4952655315	-0.1120354176	-0.369518
C	-0.0216726499	-0.0184157574	 0.0972266648	-0.291076
C	 0.7702949247	-0.4339838365	 1.2943896919	 0.400097
N	 1.3072427388	 0.3214618797	 2.1702379429	-0.351264
C	 1.9340244676	-0.5424112356	 3.152109892	 0.325833
C	 3.2143481319	-0.0480704497	 3.7690137579	-0.469414
C	 0.9630523168	-1.4363759143	 3.9047315191	-0.35361
C	 1.6350904848	-1.9493495408	 2.6612912545	 0.018811
O	 0.9221981512	-1.7870940465	 1.4471166313	-0.251019
H	 0.9514957569	 1.8937214037	-0.2514822223	 0.131621
H	-0.6537270683	 1.7432327752	-0.9938341282	 0.109299
H	-0.488583609	 1.9983724277	 0.7560688057	 0.134918
H	-1.0374928796	-0.4196929121	 0.2071155177	 0.127496
H	 0.3989262235	-0.5307679017	-0.777069949	 0.126722
H	 3.0301179756	 0.8554289686	 4.3591623521	 0.13118
H	 3.6477749443	-0.8040352964	 4.4305709662	 0.111991
H	 3.9500368401	 0.1978163619	 2.9967651024	 0.123834
H	 1.3141041397	-1.8609104506	 4.8396020102	 0.116152
H	-0.0953361934	-1.1994747299	 3.8715924618	 0.11939
H	 2.2984772639	-2.8049851066	 2.6543317365	 0.108558
59.4992	141.5718	168.684	189.5836	224.719	248.6852	325.4638	416.4226	423.0981	475.7243	595.3761	641.3436	683.704	771.7149	803.1516	806.7562	872.6124	923.1101	960.1544	964.1175	999.3524	1018.8552	1033.7859	1095.4696	1103.4923	1109.8584	1119.972	1130.2529	1200.2035	1261.7449	1279.9905	1301.3104	1381.3896	1401.5374	1416.9872	1420.8527	1468.0311	1472.2236	1480.477	1491.9461	1499.4075	1503.0955	1705.9951	3030.4903	3035.9204	3052.8944	3057.0969	3103.744	3111.2548	3124.3243	3125.8773	3132.3474	3191.7576	3219.1055
CCC1=NC2(C)CC2O1	CCC1=N[C@@]2(C)C[C@H]2O1	
InChI=1S/C7H11NO/c1-3-6-8-7(2)4-5(7)9-6/h5H,3-4H2,1-2H3	InChI=1S/C7H11NO/c1-3-6-8-7(2)4-5(7)9-6/h5H,3-4H2,1-2H3/t5-,7+/m1/s1
