21
gdb 36949	4.91689	0.78196	0.775	2.1563	79.43	-0.239	0.0759	0.3149	1568.8189	0.182883	-424.187278	-424.178307	-424.177362	-424.22263	32.085	
C	-0.0358649749	 1.5381880723	 0.0089746267	-0.230281
C	-0.0392125667	 0.0294871715	 0.1905322116	 0.164588
C	-1.3966902231	-0.7083209306	 0.1880327343	-0.302545
C	-0.8087316926	-1.4856310133	-1.0062464592	-0.056848
O	 0.3783746965	-0.6673042974	-1.0138982294	-0.29761
C	 1.3692562337	 2.0824313038	-0.1874496494	 0.164589
C	 1.5732681905	 3.6138605343	-0.172707433	-0.302545
C	 2.5264773725	 3.3308026888	 1.0052054475	-0.056848
O	 2.1865269613	 1.9295990195	 1.0038770127	-0.29761
H	-0.6490303914	 1.7992853491	-0.8637103783	 0.095123
H	-0.4862365109	 2.0088263161	 0.8929359452	 0.095123
H	 0.6111966759	-0.2390375459	 1.0331091785	 0.09438
H	-1.6314547763	-1.2919837268	 1.0791556984	 0.109997
H	-2.2484505312	-0.0705502517	-0.059260966	 0.106199
H	-0.5760587738	-2.5390304962	-0.8027916717	 0.100281
H	-1.3578322319	-1.423522799	-1.9532405903	 0.101576
H	 1.8402921236	 1.5793757994	-1.041929586	 0.094379
H	 2.0216049941	 4.0505743052	-1.0661009555	 0.109997
H	 0.6768918591	 4.1788647566	 0.093151322	 0.106199
H	 3.5904243669	 3.4920735632	 0.7879734984	 0.100281
H	 2.2859364988	 3.8120115411	 1.9605820637	 0.101576
59.4567	62.2512	81.9793	112.0692	130.2268	304.4016	324.9335	465.1445	467.7178	735.7409	737.2727	800.0051	819.9142	859.3734	874.0041	898.2936	944.7142	967.3241	978.8741	1002.7959	1027.2384	1028.6486	1097.5384	1100.9113	1126.2915	1145.1098	1166.6053	1167.8292	1210.1124	1215.2898	1249.47	1254.3568	1257.7053	1277.7589	1306.1674	1313.5805	1365.5489	1366.2333	1394.2187	1412.5865	1456.0451	1490.6318	1490.9202	1531.7336	1532.3445	3009.9675	3010.4941	3015.3483	3021.7191	3027.6258	3051.8319	3051.8466	3066.8562	3073.5446	3074.0124	3130.7907	3130.7931
C(C1CCO1)C1CCO1	C([C@H]1CCO1)[C@H]1CCO1	
InChI=1S/C7H12O2/c1-3-8-6(1)5-7-2-4-9-7/h6-7H,1-5H2	InChI=1S/C7H12O2/c1-3-8-6(1)5-7-2-4-9-7/h6-7H,1-5H2/t6-,7-/m1/s1
