18
gdb 119762	4.35053	0.83122	0.70716	5.5403	76.83	-0.2381	-0.0206	0.2175	1563.6221	0.147052	-439.1208	-439.111447	-439.110503	-439.1566	32.344	
C	-0.0779700408	 1.3989687125	 0.0111647006	-0.227449
O	 0.0046214423	-0.0071437818	 0.0032254566	-0.225043
C	-1.2527318338	-0.630229663	 0.0100059331	-0.150614
C	-1.0848913853	-2.1126071142	 0.0015251957	 0.28562
C	 0.0454610315	-2.8235440297	-0.009467665	-0.315215
C	-0.2713539839	-4.2816477442	-0.0149990872	 0.435451
O	 0.4860843863	-5.2286811777	-0.0216823278	-0.39041
N	-1.6519941158	-4.3418437847	-0.0073371582	-0.346552
C	-2.2791006511	-3.043796598	 0.0050945914	-0.248863
H	 0.9443359969	 1.7829197899	 0.0050414036	 0.13542
H	-0.6082344107	 1.781749681	-0.8749761354	 0.10798
H	-0.59408597	 1.7725028888	 0.9095213177	 0.10798
H	-1.8385030685	-0.3255427331	 0.898504952	 0.101
H	-1.8523634318	-0.3169275872	-0.8661523681	 0.101005
H	 1.0554395523	-2.4443588854	-0.0141256938	 0.131456
H	-2.1462299641	-5.2168313085	-0.0023570901	 0.252629
H	-2.9068205596	-2.8877889488	 0.8956142464	 0.12281
H	-2.920348014	-2.8775375459	-0.8738204717	 0.122795
36.1851	73.1407	78.5193	123.8837	191.9618	234.9612	336.2432	375.4769	398.0533	443.4101	497.2054	653.6366	734.0036	736.7299	882.5597	918.7757	931.4115	978.1863	998.4845	1062.0921	1082.7916	1129.7871	1170.4862	1182.7609	1190.7237	1205.5762	1231.5067	1261.9673	1298.7467	1328.913	1423.8834	1435.6774	1479.6755	1487.0985	1495.3355	1502.5668	1520.5658	1699.5259	1823.3851	2921.4368	2931.9079	2973.8009	2987.6554	3007.4019	3019.1539	3123.1153	3267.7141	3680.2452
COCC1=CC(=O)NC1	COCC1=CC(=O)NC1	
InChI=1S/C6H9NO2/c1-9-4-5-2-6(8)7-3-5/h2H,3-4H2,1H3,(H,7,8)	InChI=1S/C6H9NO2/c1-9-4-5-2-6(8)7-3-5/h2H,3-4H2,1H3,(H,7,8)
