18
gdb 63676	2.43932	1.25338	1.01001	3.0739	72.42	-0.2535	0.0091	0.2626	1221.706	0.144699	-439.063999	-439.054333	-439.053389	-439.09883	35.125	
C	 0.7641184483	 1.6140209984	 0.535900177	-0.457869
C	 0.2320677653	 0.2086004704	 0.3883632468	 0.358866
O	-1.1613207886	 0.1022884203	 0.2611229447	-0.459654
C	 1.0716142379	-0.8381539888	-0.3306804083	-0.384205
C	 0.8294905718	-0.9436866557	 1.1478462551	 0.08737
O	 1.948953953	-0.7737772992	 1.9776475897	-0.228977
C	 1.6476255962	-0.718940542	 3.3512340593	-0.205065
C	 1.0058245354	 0.5390791472	 3.7797440565	 0.26978
N	 0.5139042267	 1.5255117185	 4.1256679219	-0.307258
H	 1.8326844831	 1.6063898906	 0.7634824914	 0.128263
H	 0.6196395787	 2.1779507204	-0.3936119401	 0.105694
H	 0.2428148073	 2.1337911554	 1.3437299372	 0.153061
H	-1.4123140586	 0.496292706	-0.5821750792	 0.283359
H	 0.5696661782	-1.5554404588	-0.9699852282	 0.119182
H	 2.0697101444	-0.5489891067	-0.6419917757	 0.126387
H	 0.1297583559	-1.7056051961	 1.4904064254	 0.103739
H	 0.9995663375	-1.5547278231	 3.6544722013	 0.145726
H	 2.5973553475	-0.8202997068	 3.8848672154	 0.161603
47.8661	85.6543	161.5616	184.8751	228.8325	261.8139	286.1976	346.8777	372.9713	390.6618	422.9904	445.9423	515.9546	619.9387	721.3839	801.4914	889.5486	905.9658	908.8641	975.3309	1002.8089	1033.3319	1069.3722	1081.4159	1102.5301	1129.1358	1175.4172	1237.6856	1296.7526	1303.9085	1353.8353	1389.6318	1413.3141	1416.7112	1468.0485	1478.8222	1485.7405	1511.8881	2358.0701	3003.9604	3031.0344	3091.8019	3103.9565	3110.9852	3133.8099	3136.6802	3230.7074	3789.4202
CC1(O)CC1OCC#N	C[C@@]1(O)C[C@H]1OCC#N	
InChI=1S/C6H9NO2/c1-6(8)4-5(6)9-3-2-7/h5,8H,3-4H2,1H3	InChI=1S/C6H9NO2/c1-6(8)4-5(6)9-3-2-7/h5,8H,3-4H2,1H3/t5-,6-/m1/s1
