17
gdb 34486	2.97025	1.41319	1.02508	1.3003	86.96	-0.2219	-0.0286	0.1933	1147.9998	0.135796	-384.6324	-384.624539	-384.623594	-384.664833	30.307	
C	-0.0580211481	-1.1113152408	 0.1701189771	-0.425759
C	-0.0813480757	 0.0864388938	 0.0322180126	 0.219439
C	-0.055696898	 1.4850725794	-0.1357406039	 0.028694
C	-1.0619142974	 2.3519644524	-0.298439151	 0.098805
C	-2.4548134563	 2.6436686543	 0.2065042623	-0.321509
C	-1.7832547896	 3.8826797082	 0.9167129898	-0.251269
C	-0.580749261	 3.7466924399	-0.0944298963	 0.100033
O	 0.7712642555	 3.6597010309	 0.3059486347	-0.276264
C	 1.221493688	 2.3240865833	 0.027298203	-0.161296
H	-0.0534418338	-2.1661106526	 0.2911190245	 0.193507
H	-3.1544553729	 2.9578966772	-0.5736255363	 0.121783
H	-2.9271784997	 1.8807133146	 0.8268059627	 0.125879
H	-2.3384564274	 4.8232122857	 0.9050331639	 0.106921
H	-1.4637057148	 3.6375896409	 1.9306842283	 0.12436
H	-0.6956413268	 4.4434189883	-0.936876877	 0.083731
H	 1.8221643531	 1.9648182674	 0.8707583993	 0.122455
H	 1.8583866249	 2.3151485172	-0.8703673336	 0.11049
102.854	139.0461	154.8794	245.8252	325.6841	371.189	491.0407	543.7077	563.1281	588.7363	639.5082	670.7219	697.5519	746.7465	798.6319	872.2001	908.0692	959.6437	993.3112	1017.748	1059.038	1078.3721	1118.4866	1131.7905	1171.2943	1186.3059	1208.7636	1224.6734	1251.0439	1279.7589	1339.0614	1376.6836	1467.84	1483.888	1518.6632	1714.0141	2218.5059	2986.5521	3000.6738	3055.5394	3061.8524	3071.2187	3124.0185	3146.1333	3503.1341
C#CC1=C2CCC2OC1	C#C[C]1[C]2CC[C@H]2OC1	
InChI=1S/C8H8O/c1-2-6-5-9-8-4-3-7(6)8/h1,8H,3-5H2	InChI=1S/C8H8O/c1-2-6-5-9-8-4-3-7(6)8/h1,8H,3-5H2/t8-/m1/s1
