20
gdb 102297	2.1354	1.07679	0.92141	4.3142	76.32	-0.2817	0.016	0.2977	1406.5422	0.168066	-440.291041	-440.280396	-440.279452	-440.327657	37.561	
C	-0.4209309142	 1.5203892022	 0.3203497336	-0.392748
C	-0.1534021409	 0.0709316392	-0.0625171856	 0.136375
C	 0.9843051445	-0.5498886947	 0.7475838035	-0.396512
O	-1.3932804466	-0.6278591684	 0.1602258453	-0.277441
C	-1.5422019847	-1.8939297645	-0.4433124323	-0.04776
C	-2.9118086071	-2.4142122504	 0.0226459855	-0.066345
O	-3.9461416959	-1.5331680941	-0.3301570912	-0.408588
C	-1.4711914898	-1.8061385036	-1.9194406929	 0.281153
N	-1.3853138012	-1.7417689502	-3.069857028	-0.326068
H	 0.4716464078	 2.1292404462	 0.1516950733	 0.123442
H	-1.2388406727	 1.9300735767	-0.2777240091	 0.128764
H	-0.6938120055	 1.5928884472	 1.3780009611	 0.125051
H	 0.0857325356	 0.0183431412	-1.1339973367	 0.10353
H	 0.7484534676	-0.5276109003	 1.8162091221	 0.12616
H	 1.17892675	-1.5866228172	 0.4572685005	 0.120983
H	 1.9091362306	 0.0117639728	 0.584988893	 0.12683
H	-0.7630259673	-2.5985028806	-0.115788194	 0.114294
H	-3.1221506083	-3.3782330724	-0.4489914685	 0.129062
H	-2.8434063593	-2.5648060888	 1.110965803	 0.103993
H	-3.6761385024	-0.6596657203	-0.0218616626	 0.295824
29.9893	88.0733	101.5107	126.5215	199.3465	212.8505	236.7122	256.5662	313.0007	354.1183	419.792	438.3936	452.2874	462.3133	621.4513	681.2399	819.1006	860.9657	902.1868	931.15	946.0136	967.408	1047.3719	1088.4473	1128.4027	1145.7621	1159.3791	1198.51	1243.8442	1297.957	1344.2753	1373.2007	1390.5692	1398.3398	1405.8272	1418.103	1432.967	1482.037	1484.8564	1493.4803	1496.969	1510.4558	2354.8177	2989.4295	3002.714	3013.3655	3039.8774	3045.28	3097.4514	3111.399	3113.8908	3120.9611	3127.2781	3794.3389
CC(C)OC(CO)C#N	CC(C)O[C@@H](CO)C#N	
InChI=1S/C6H11NO2/c1-5(2)9-6(3-7)4-8/h5-6,8H,4H2,1-2H3	InChI=1S/C6H11NO2/c1-5(2)9-6(3-7)4-8/h5-6,8H,4H2,1-2H3/t6-/m1/s1
