25
gdb 73262	2.20614	1.60713	1.29066	0.1414	91.43	-0.2687	0.0799	0.3487	1164.8818	0.231966	-352.375832	-352.367314	-352.36637	-352.408179	35.337	
C	 0.0225902032	 1.5387667315	-0.0321731146	-0.470689
C	-0.0451976281	 0.015621254	 0.0155591338	 0.351166
C	-1.3650163113	-0.6165534366	 0.5567790999	-0.266407
C	-0.5140605609	-1.6517684415	 1.3400602901	-0.247052
C	 0.6940294966	-0.6831750185	 1.2120400759	 0.019698
C	 2.1208156351	-1.1954289442	 1.0108240211	-0.230915
C	 2.3606954947	-1.7947099014	-0.3825326943	-0.185514
C	 1.8693194787	-0.8403547697	-1.4787733345	-0.193595
C	 0.3581687917	-0.6066173843	-1.3419586766	-0.24286
H	 1.0213116057	 1.8917950481	-0.3156314834	 0.111421
H	-0.6869272952	 1.9416035836	-0.7651621828	 0.109803
H	-0.2188903424	 1.9771270107	 0.9422560255	 0.105552
H	-1.8883306095	 0.0659553386	 1.2340596356	 0.090906
H	-2.0808998197	-0.9902744379	-0.1810802694	 0.088288
H	-0.8377622616	-1.9162965846	 2.3497468696	 0.09024
H	-0.3694870366	-2.5772276115	 0.7746586986	 0.098995
H	 0.6779099249	-0.0041854944	 2.0730903282	 0.059871
H	 2.8167593766	-0.3560831157	 1.1483105611	 0.090941
H	 2.3675865311	-1.9252946173	 1.7926028425	 0.089089
H	 3.4258929228	-2.0173553629	-0.5103608574	 0.086668
H	 1.8306388725	-2.7518808082	-0.480597719	 0.091833
H	 2.4122396667	 0.1122675704	-1.4073451825	 0.090917
H	 2.0917236408	-1.2501929437	-2.470521074	 0.087243
H	-0.1409535932	-1.5760178567	-1.4684083097	 0.088835
H	-0.0122431126	 0.030752842	-2.1541903436	 0.085565
145.4568	165.5143	205.1162	257.8012	286.8526	349.9784	366.2093	388.9359	444.4135	474.6259	585.6227	608.2404	686.2772	769.4926	796.1873	843.9013	874.5711	893.9121	899.3944	931.6328	948.9172	970.3811	995.3987	997.4489	1049.3987	1060.765	1081.1818	1106.1975	1139.6276	1168.1177	1183.0879	1202.9956	1225.1964	1255.5149	1264.7859	1268.4011	1287.2242	1302.3067	1337.3375	1353.1456	1369.3786	1375.9098	1380.8624	1398.8716	1408.1428	1480.0216	1481.4665	1485.6208	1489.3851	1493.8567	1497.9403	1499.7882	1510.5033	3002.9754	3010.9349	3013.6798	3016.4689	3018.0491	3027.8428	3043.9221	3044.3368	3051.7665	3054.8729	3061.0973	3065.915	3079.4184	3088.0275	3090.7787	3107.8386
CC12CCC1CCCC2	C[C@]12CC[C@H]1CCCC2	
InChI=1S/C9H16/c1-9-6-3-2-4-8(9)5-7-9/h8H,2-7H2,1H3	InChI=1S/C9H16/c1-9-6-3-2-4-8(9)5-7-9/h8H,2-7H2,1H3/t8-,9+/m1/s1
