17
gdb 30618	4.48625	0.96789	0.80398	2.345	75.96	-0.2424	-0.0393	0.2031	1390.3017	0.135675	-421.880335	-421.871772	-421.870828	-421.914628	30.715	
C	-0.0454840476	 1.5397806888	 0.0665322788	-0.378317
C	 0.0234729722	 0.0184236717	-0.0397312078	-0.296324
C	 0.7417798645	-0.4644822625	-1.2958371729	 0.284853
O	 1.1977476168	 0.3127707568	-2.1114600438	-0.324689
C	 0.868249182	-1.922202834	-1.4943791406	 0.163859
C	 0.4254701933	-2.9420492874	-0.6977777731	-0.08373
O	 0.7404062408	-4.1393880624	-1.2331328487	-0.145015
C	 1.4029862073	-3.89078086	-2.4046695209	 0.009138
C	 1.510402117	-2.559316718	-2.615129449	-0.276766
H	 0.9566805619	 1.9751484058	 0.08168701	 0.132317
H	-0.5705863541	 1.9667580656	-0.7913663232	 0.13252
H	-0.5686112773	 1.8392115949	 0.9790157058	 0.107226
H	 0.5353065391	-0.4146594985	 0.8303424597	 0.121307
H	-0.9825656412	-0.4226892207	-0.0355522335	 0.121543
H	-0.1061143615	-2.9729594676	 0.239194037	 0.14855
H	 1.7202041332	-4.7641176744	-2.9493198036	 0.145995
H	 1.9764903334	-2.0532493883	-3.4443389443	 0.137534
48.3318	74.5774	142.4812	166.4397	209.9033	281.3223	359.3055	497.1421	539.117	621.6049	663.6167	706.2362	754.9168	797.9425	827.6258	875.3594	891.1228	915.2636	996.1455	1014.6076	1049.0883	1089.546	1104.9451	1119.9239	1193.8053	1263.0974	1277.9418	1299.7385	1372.114	1408.6928	1413.6249	1458.9804	1490.612	1497.4599	1543.6513	1602.9241	1769.9487	3018.8696	3048.3762	3052.0134	3122.8294	3129.4902	3272.5039	3276.1648	3294.861
CCC(=O)C1=COC=C1	CCC(=O)c1cocc1	
InChI=1S/C7H8O2/c1-2-7(8)6-3-4-9-5-6/h3-5H,2H2,1H3	InChI=1S/C7H8O2/c1-2-7(8)6-3-4-9-5-6/h3-5H,2H2,1H3
