21
gdb 76633	2.39975	1.41382	1.1464	2.5625	78.25	-0.2371	0.0619	0.2989	1173.4056	0.181394	-424.188443	-424.179173	-424.178229	-424.222222	36.426	
C	-0.7136966131	 1.1165700538	 0.3211818722	-0.406916
C	 0.0650511198	-0.1587825055	 0.0944014005	-0.04146
C	 1.4960601527	-0.096136689	-0.3649308834	 0.089699
O	 2.1008065396	 1.157392287	-0.4454010719	-0.429456
C	 1.1851235619	-0.6698030868	 1.0071156743	-0.201078
C	 1.723841978	 0.0199238092	 2.2330249946	 0.389852
O	 3.051059711	 0.5229257899	 2.0805805346	-0.462176
C	 0.9058266706	 0.8539138058	 3.1728973673	-0.287332
C	 1.4006406213	-0.5082258664	 3.6083977746	-0.321519
H	-0.0629986766	 1.9276738257	 0.6501500289	 0.138196
H	-1.1798517863	 1.4322336696	-0.6186320714	 0.116806
H	-1.5145004575	 0.9821417459	 1.0558471047	 0.108179
H	-0.5229123549	-0.9629212057	-0.3415722489	 0.081352
H	 1.8214025298	-0.7925364364	-1.1376627691	 0.080102
H	 2.7233841082	 1.2136732152	 0.2949864998	 0.294762
H	 1.2437029887	-1.7545400183	 1.068753163	 0.085029
H	 3.6371197786	-0.2364405936	 1.9795055836	 0.286379
H	 1.3982482105	 1.7220235229	 3.5955683238	 0.12525
H	-0.149428137	 0.9761512822	 2.9715022131	 0.125529
H	 0.680862794	-1.3158475685	 3.689773631	 0.11565
H	 2.2131925307	-0.5394697969	 4.3256744286	 0.113152
47.476	179.7295	207.2628	219.3733	238.3004	278.6771	307.5513	349.092	393.9387	451.2891	508.3413	561.8686	594.1952	641.0659	735.9328	758.0476	773.8947	834.6269	880.1031	918.9151	928.964	964.8711	972.1956	997.3425	1048.353	1053.6918	1083.4519	1109.6463	1119.2383	1150.7753	1181.1238	1190.7105	1235.8601	1242.4359	1277.53	1358.0655	1376.2701	1393.9904	1413.6774	1418.9267	1431.4596	1450.4875	1492.1476	1495.2619	1504.6126	3036.1525	3088.4873	3093.2558	3114.4684	3131.0871	3131.3741	3146.7693	3155.2293	3220.5486	3252.1414	3695.2266	3787.2471
CC1C(O)C1C1(O)CC1	C[C@H]1[C@@H](O)[C@H]1C1(O)CC1	
InChI=1S/C7H12O2/c1-4-5(6(4)8)7(9)2-3-7/h4-6,8-9H,2-3H2,1H3	InChI=1S/C7H12O2/c1-4-5(6(4)8)7(9)2-3-7/h4-6,8-9H,2-3H2,1H3/t4-,5+,6-/m1/s1
