18
gdb 110272	2.66316	1.37536	1.15648	3.7989	72.75	-0.2424	-0.0274	0.215	1128.9707	0.146693	-439.050918	-439.042224	-439.04128	-439.084326	32.397	
C	-0.1044156257	 1.4588222414	 0.0446875802	-0.429881
C	 0.1306735186	-0.0293226578	-0.1029260663	 0.018805
C	 0.6795938075	-0.7152510049	-1.3140232944	-0.190229
N	 1.4209652991	-0.7071479086	 0.0373427096	-0.162129
C	 2.4935333912	 0.1819252184	-0.5564727652	-0.126343
C	 3.8423589116	-0.5359022541	-0.5076298085	-0.085113
O	 3.7455678197	-1.8748691303	-0.9411725569	-0.418071
C	 1.7911205434	 0.0873603124	-1.9269123316	 0.440201
O	 2.1069098307	 0.3613821487	-3.0474324609	-0.312065
H	 0.5710220506	 2.0719128541	-0.5538863459	 0.139138
H	-1.1257247107	 1.691972039	-0.2717758779	 0.136297
H	-0.0056477811	 1.7569073395	 1.0939605305	 0.133976
H	-0.643992568	-0.6224424898	 0.3821566732	 0.112014
H	 0.2234536741	-1.6033607457	-1.7382125434	 0.122459
H	 2.5730190813	 1.1698465707	-0.09417925	 0.098625
H	 4.5410006601	-0.0273500624	-1.179606939	 0.129577
H	 4.2420998006	-0.4682235632	 0.5164601714	 0.097997
H	 3.0715173572	-2.2861671874	-0.3857682147	 0.294742
102.281	111.5171	145.3919	184.5433	229.3885	265.6001	363.5077	445.2823	463.6505	481.9954	592.3441	641.5104	668.6776	776.4563	803.7708	872.1257	906.4499	918.4691	984.0487	1003.0497	1025.6282	1051.5033	1087.4027	1112.0578	1126.6946	1156.8745	1198.1437	1253.9285	1267.1035	1286.826	1318.6802	1393.7347	1411.1779	1425.8346	1428.4569	1493.7171	1494.7742	1499.3242	1894.4021	2981.7643	3044.1704	3075.1382	3085.729	3105.4826	3112.1815	3140.557	3178.8644	3780.3886
CC1C2N1C(CO)C2=O	C[C@H]1[C@@H]2N1[C@@H](CO)C2=O	
InChI=1S/C6H9NO2/c1-3-5-6(9)4(2-8)7(3)5/h3-5,8H,2H2,1H3	InChI=1S/C6H9NO2/c1-3-5-6(9)4(2-8)7(3)5/h3-5,8H,2H2,1H3/t3-,4-,5-,7?/m0/s1
