18
gdb 105189	2.14334	1.51375	1.02099	6.0113	68.66	-0.2485	0.007	0.2555	1193.6	0.146863	-476.237629	-476.228404	-476.22746	-476.271806	33.764	
C	-0.002969212	 1.5576472485	-0.085289243	-0.438031
C	-0.0384424489	 0.0718821828	 0.1628140115	 0.049465
O	 1.1837701986	-0.6651452043	 0.0025871877	-0.299065
C	 0.5700120779	-0.6235323302	 1.30991831	 0.201142
C	 1.3835833873	 0.0891426165	 2.3717274388	-0.26669
N	 2.4926763524	-0.7881695393	 2.7963177923	-0.527142
H	 1.3999273132	-2.1584467175	 2.902680537	 0.31873
H	 3.1533253392	-0.8958012114	 2.0316917445	 0.260474
H	 2.9934285066	-0.3902485108	 3.5833221727	 0.250567
C	-0.0659961964	-1.9696158666	 1.6995476742	 0.400279
O	 0.5592388212	-2.6380456273	 2.6709618517	-0.382021
O	-1.0539576076	-2.3903898102	 1.1570926749	-0.335249
H	 0.8958937892	 2.0301770441	 0.3150039099	 0.123685
H	-0.0301383325	 1.7492007799	-1.1627419257	 0.138469
H	-0.8823823977	 2.0359280781	 0.358805505	 0.132658
H	-0.8985903675	-0.4470451645	-0.2574031601	 0.127725
H	 1.7285915549	 1.056442412	 1.9922794389	 0.11401
H	 0.7513372423	 0.2769904203	 3.2471461096	 0.130994
63.1314	125.4929	151.8628	182.5871	217.6724	272.7928	297.9905	358.19	385.9731	430.6357	475.8508	557.4408	602.5442	736.7042	748.2608	798.3239	873.4591	934.7868	945.9139	986.5667	999.4654	1037.3777	1052.7296	1110.5064	1148.0162	1185.9961	1222.9274	1279.7348	1321.4528	1351.223	1409.0355	1420.5084	1461.4239	1487.657	1492.5684	1505.4797	1514.9255	1644.0366	1853.0026	3036.4001	3044.2153	3081.6347	3105.0416	3125.3749	3144.7719	3194.6755	3501.9582	3587.2318
CC1OC1(C[NH3+])C([O-])=O	C[C@H]1O[C@]1(CN)C(=O)O	
InChI=1S/C5H9NO3/c1-3-5(2-6,9-3)4(7)8/h3H,2,6H2,1H3,(H,7,8)	InChI=1S/C5H9NO3/c1-3-5(2-6,9-3)4(7)8/h3H,2,6H2,1H3,(H,7,8)/t3-,5+/m1/s1
