14
gdb 10009	3.52113	1.29345	0.95152	2.4437	72.85	-0.2525	-0.0639	0.1887	1155.9154	0.106864	-374.91697	-374.908363	-374.907419	-374.950549	29.153	
C	-0.2249266505	 1.7673002439	 0.5682598274	-0.344072
N	 0.011127028	 0.3579291031	 0.3498913176	-0.281335
C	-0.9264339652	-0.4214452074	-0.0046242773	 0.339366
N	-0.7340661716	-1.7750332384	-0.2217170432	-0.332667
C	 0.4760130587	-2.4341906148	-0.0832954908	 0.102931
N	 0.5392463002	-3.6828260299	-0.3087705528	-0.463762
C	-2.3070910239	-0.0077548003	-0.2277344109	 0.223735
N	-3.3958693292	 0.34109305	-0.3993694386	-0.321547
H	 0.4314453156	 2.3444184591	-0.0927317838	 0.14172
H	-1.2616061218	 2.0888417321	 0.4017333897	 0.135122
H	 0.0597124617	 2.0205753114	 1.5957179214	 0.14173
H	-1.5213883135	-2.3415739452	-0.5027163885	 0.27859
H	 1.2833463308	-1.7669859689	 0.2212728916	 0.143925
H	 1.4888986906	-4.0203478946	-0.1656432517	 0.236265
92.3404	129.8235	133.7494	139.264	181.7158	234.7217	341.1579	353.8105	455.935	522.9827	577.7165	665.4363	719.948	822.8486	850.5177	1079.2662	1084.1778	1100.6739	1131.777	1166.852	1249.9278	1308.6725	1392.2625	1447.007	1481.545	1501.0458	1508.5291	1718.4859	1733.1602	2346.5428	3006.6132	3079.1549	3082.5031	3132.8162	3513.8464	3620.9935
CN=C(NC=N)C#N	CN=C(NC=N)C#N	
InChI=1S/C4H6N4/c1-7-4(2-5)8-3-6/h3H,1H3,(H2,6,7,8)	InChI=1S/C4H6N4/c1-7-4(2-5)8-3-6/h3H,1H3,(H2,6,7,8)
