18
gdb 77628	2.12978	1.44489	1.30864	5.1373	79.29	-0.225	0.0101	0.2351	1107.1314	0.148202	-398.093378	-398.084469	-398.083525	-398.12659	33.684	
C	-0.0081018377	 1.5301225028	-0.001576441	-0.423597
C	 0.0747023318	 0.0228507554	-0.0895118348	-0.082051
C	 0.6764882796	-0.7663886754	-1.2233978895	 0.217761
N	-0.0743190726	-1.7880825632	-1.8434926546	-0.581433
C	 1.9672793109	-0.1057423929	-1.7375766424	-0.231075
N	 2.4971786076	 0.0392720787	-0.3409609415	-0.365763
C	 1.3527124757	-0.7455844393	 0.1799942464	 0.187846
C	 1.5015617358	-1.7576776071	 1.1656233127	 0.189866
N	 1.6486284505	-2.5930254414	 1.9552245074	-0.355098
H	 0.9518746864	 1.9919387873	-0.2404650508	 0.148152
H	-0.7696177916	 1.9200808806	-0.6852338415	 0.116435
H	-0.2811279101	 1.8352754565	 1.0132537794	 0.129799
H	-0.7868489124	-0.5122848196	 0.3037650658	 0.11703
H	-0.8428566769	-1.423525987	-2.3958701534	 0.240761
H	 0.4927328666	-2.3916385779	-2.4279501269	 0.237152
H	 2.55571252	-0.8065603382	-2.3405090278	 0.107633
H	 1.8727600581	 0.8415372964	-2.2800168321	 0.110127
H	 3.3639024484	-0.4758301756	-0.2262614653	 0.236455
108.5149	143.6929	169.1663	206.3779	228.1407	277.5263	322.1864	358.0471	418.6348	499.2717	552.0093	580.4784	623.1945	696.1626	723.9286	758.8281	787.5334	814.3013	968.1908	985.7034	998.899	1037.1977	1104.7615	1110.8317	1126.9361	1163.6325	1202.2011	1244.006	1282.461	1309.8647	1323.0266	1378.2879	1408.1257	1478.1269	1489.2122	1507.6439	1513.8758	1659.1662	2333.3319	3028.7901	3041.1997	3076.9022	3101.9375	3131.2608	3150.9187	3507.2496	3529.7031	3591.7112
CC1C2(N)CNC12C#N	C[C@H]1[C@@]2(N)CN[C@@]12C#N	
InChI=1S/C6H9N3/c1-4-5(8)3-9-6(4,5)2-7/h4,9H,3,8H2,1H3	InChI=1S/C6H9N3/c1-4-5(8)3-9-6(4,5)2-7/h4,9H,3,8H2,1H3/t4-,5-,6-/m0/s1
