18
gdb 127057	5.64012	0.72934	0.65375	3.9993	74.66	-0.2526	-0.0067	0.2459	1681.8279	0.146991	-439.06958	-439.060612	-439.059668	-439.105081	31.135	
C	-0.6428035785	 1.3296191947	-0.2964949175	-0.387929
C	 0.1003193241	 0.0378589764	-0.0037852327	-0.025285
O	 0.5613220551	-0.5021182743	-1.2281975794	-0.246398
C	 1.2696714169	-1.7088587948	-1.0739788485	-0.186716
C	 1.7029802778	-2.1813015828	-2.4234748231	 0.129108
C	 1.4839824542	-1.5944229173	-3.6288452955	 0.013121
O	 2.0301080288	-2.3213896932	-4.6165879218	-0.166951
N	 2.6418929084	-3.440904602	-4.0680041909	-0.13338
C	 2.441846175	-3.3460565432	-2.7766886784	-0.053254
H	 0.018388829	 2.0498766414	-0.7863494041	 0.129251
H	-1.4947954977	 1.1409901526	-0.9556129769	 0.129255
H	-1.0133899403	 1.7736732378	 0.6319788466	 0.119055
H	 0.952451222	 0.2235543527	 0.671370336	 0.090459
H	-0.5608925331	-0.6853485467	 0.5023936017	 0.090471
H	 2.1457797291	-1.5641904881	-0.4169236828	 0.10374
H	 0.6377156021	-2.4707897205	-0.5837722802	 0.103724
H	 0.9737482912	-0.6914712169	-3.9198143574	 0.162598
H	 2.8343629558	-4.1187511357	-2.1297939352	 0.129131
33.4046	69.9178	98.6786	112.4591	241.7445	266.0971	274.3618	346.1987	488.3027	610.6289	653.0757	739.3679	821.2474	849.3829	905.2262	906.5289	908.5921	941.4288	1029.5116	1044.6694	1052.3229	1143.0677	1146.1415	1166.7448	1188.8246	1203.2077	1253.9751	1280.855	1297.1444	1344.5908	1396.6895	1415.8599	1463.9574	1479.2963	1483.5776	1499.168	1511.1332	1535.4682	1661.0746	2939.275	2954.8967	2960.4871	2984.952	3046.636	3122.0456	3123.6599	3237.3141	3288.6133
CCOCC1=CON=C1	CCOCc1conc1	
InChI=1S/C6H9NO2/c1-2-8-4-6-3-7-9-5-6/h3,5H,2,4H2,1H3	InChI=1S/C6H9NO2/c1-2-8-4-6-3-7-9-5-6/h3,5H,2,4H2,1H3
