20
gdb 83955	2.51466	1.55288	1.39747	1.7382	75.03	-0.2026	0.0726	0.2752	1044.5613	0.171824	-440.239858	-440.231622	-440.230678	-440.272026	32.42	
C	 0.051180138	 1.4118740396	-0.2571983431	-0.333453
N	 0.0089763339	-0.0149646057	 0.0437296074	-0.104068
C	-1.2014970915	-0.50153133	 0.7885045652	-0.078075
C	-1.2931614747	-1.9958725038	 0.4743892226	-0.062763
O	-0.1626177778	-2.68780887	 1.002620133	-0.275706
C	 1.0605607297	-1.9521150553	 1.0162348004	-0.065865
C	 0.7890470636	-0.4652401374	 1.24766806	-0.043739
C	-0.460461565	-0.3241412139	 2.1459026268	 0.159437
O	-0.5239373581	 0.9682451591	 2.7130679743	-0.44644
H	 1.0434434795	 1.658987082	-0.6506822991	 0.114253
H	-0.6765876771	 1.6254022091	-1.0482591616	 0.111049
H	-0.1572034063	 2.0664594113	 0.599902564	 0.117394
H	-2.1369731073	 0.0370371191	 0.6074380422	 0.064644
H	-2.1694533951	-2.457842635	 0.9439425775	 0.0985
H	-1.3626778696	-2.1237151183	-0.6152939938	 0.100314
H	 1.6589028423	-2.3867282969	 1.824922142	 0.102685
H	 1.6023558668	-2.0670458044	 0.0668941609	 0.100538
H	 1.6836167295	 0.1105709832	 1.4980280622	 0.078541
H	-0.6219583616	-1.1027923546	 2.9026691695	 0.080845
H	-1.4043465493	 1.0874278718	 3.0844381194	 0.281908
181.2032	197.0275	217.1215	252.3258	270.821	290.7389	313.3412	359.4841	424.6035	448.5999	577.9169	724.353	772.873	826.065	868.1891	877.1232	907.1328	958.9514	1005.8248	1016.8749	1029.1421	1071.528	1123.4335	1125.4056	1166.9108	1170.8373	1174.992	1188.701	1209.1796	1239.0372	1269.3607	1282.608	1301.4492	1316.476	1336.0562	1373.199	1406.3807	1431.6107	1452.032	1486.1921	1489.7671	1500.1793	1516.6955	2999.4338	3002.777	3006.8095	3014.1048	3059.1687	3065.9148	3068.2558	3068.9476	3086.7524	3089.3113	3808.5902
CN1C2COCC1C2O	CN1[C@H]2COC[C@@H]1[C@H]2O	
InChI=1S/C6H11NO2/c1-7-4-2-9-3-5(7)6(4)8/h4-6,8H,2-3H2,1H3	InChI=1S/C6H11NO2/c1-7-4-2-9-3-5(7)6(4)8/h4-6,8H,2-3H2,1H3/t4-,5+,6-
