14
gdb 132052	2.3292	1.83206	1.03196	3.4134	68.33	-0.2374	-0.0526	0.1848	1053.3086	0.09996	-481.856526	-481.84881	-481.847866	-481.889	28.394	
C	-0.0261809565	 1.5380210815	-0.0047895014	-0.485571
C	-0.0399316777	 0.0381654594	 0.0052678747	-0.081168
C	-1.1561972269	-0.7191452221	-0.1402827914	 0.274947
F	-2.3447443244	-0.1415585209	-0.3062470774	-0.063408
C	-1.1363875746	-2.1448875063	-0.1262733533	-0.305778
C	 0.0623826484	-2.7348816519	 0.0411815359	 0.092757
O	 1.2011882699	-2.0483609334	 0.1903586062	-0.215978
C	 1.2347748217	-0.6366692616	 0.1837033308	 0.400672
O	 2.3062950545	-0.1122186745	 0.325024563	-0.335509
H	 0.6219800368	 1.909927372	-0.8047885304	 0.149618
H	-1.0309036235	 1.9381829788	-0.1445781477	 0.133914
H	 0.3856717956	 1.9237471096	 0.9333016461	 0.149613
H	-2.0447938308	-2.7173280008	-0.2450723023	 0.132678
H	 0.2228368875	-3.8056469997	 0.0714694472	 0.153212
107.9756	121.0042	193.8992	268.4132	273.3003	359.282	475.3958	480.853	514.5105	565.2324	682.3601	682.7545	767.1963	785.3659	840.6652	896.5789	933.9524	1015.0446	1062.7217	1078.3448	1173.6538	1215.8755	1299.6402	1335.9248	1412.495	1469.3832	1478.9245	1482.2752	1619.4129	1698.2714	1834.6641	3045.3056	3097.1942	3148.587	3214.5974	3246.3632
CC1=C(F)C=COC1=O	Cc1c(F)ccoc1=O	
InChI=1S/C6H5FO2/c1-4-5(7)2-3-9-6(4)8/h2-3H,1H3	InChI=1S/C6H5FO2/c1-4-5(7)2-3-9-6(4)8/h2-3H,1H3
