12
gdb 21362	5.52303	2.23934	1.59332	5.9818	61.27	-0.2142	0.0001	0.2143	717.6804	0.087591	-373.698851	-373.693119	-373.692175	-373.728371	22.26	
N	-0.0512815623	 1.371044187	 0.0101659247	-0.408832
C	 1.2743365333	 1.8336605929	-0.0000854495	-0.06281
C	 2.1497633877	 0.7790308025	-0.0143704731	-0.279458
C	 1.3377444796	-0.4012115076	-0.0129442678	 0.304562
C	 0.0131199531	 0.0130301843	 0.0022174525	 0.43425
N	-0.719123067	-1.1168300037	 0.0032236067	-0.359102
N	 0.1404926898	-2.2050868832	-0.0112264001	-0.126953
N	 1.3601621574	-1.7681033591	-0.0206524673	-0.288539
H	-0.8690944597	 1.9525880145	 0.0219025811	 0.269722
H	 1.4630117516	 2.8954599055	 0.0038730774	 0.127966
H	 3.2248936126	 0.8532433439	-0.0244422708	 0.114059
H	-1.710526886	-1.2806239571	 0.0117687062	 0.275136
226.1171	271.9208	337.0606	412.4597	475.363	603.0406	665.2484	703.2894	715.2694	759.1645	783.7266	834.596	918.9894	939.0601	1014.118	1062.1972	1106.2081	1211.5452	1253.9948	1307.4547	1361.9699	1382.7537	1472.5054	1498.9514	1559.4588	1650.6065	3258.542	3277.3829	3688.096	3696.9961
N1C=CC2=C1NN=N2	[nH]1ccc2c1[nH]nn2	
InChI=1S/C4H4N4/c1-2-5-4-3(1)6-8-7-4/h1-2H,(H2,5,6,7,8)	InChI=1S/C4H4N4/c1-2-5-4-3(1)6-8-7-4/h1-2H,(H2,5,6,7,8)
