18
gdb 19739	3.79756	2.39017	2.16254	1.8094	68.9	-0.2356	0.0863	0.3219	727.1532	0.158267	-347.795144	-347.789599	-347.788654	-347.824413	24.013	
C	-0.0486664295	 1.6151257829	-0.0549153769	-0.250601
C	 1.4566075367	 2.0283530582	 0.0009331486	-0.215119
C	 2.1416727377	 0.7653626204	 0.5477345654	-0.039644
C	 1.5174340292	 0.4167747752	 1.9345770062	-0.22106
C	 0.4481170755	-0.5549962368	 1.3980868077	 0.067817
O	 1.2840839208	-1.4986575149	 0.6597280207	-0.301888
C	 1.4527208872	-0.3905589	-0.255619785	 0.087454
C	 0.012297593	 0.0882488674	 0.0397625196	-0.014868
H	-0.6270105129	 2.0527261137	 0.7654968226	 0.10245
H	-0.524494082	 1.9404597441	-0.9842806203	 0.101258
H	 1.8249716336	 2.2639368549	-1.0045259926	 0.09646
H	 1.6374673384	 2.9079508981	 0.6255689625	 0.098447
H	 3.2312087691	 0.7832162605	 0.5222325627	 0.064549
H	 2.2041751423	-0.1121591269	 2.5982597883	 0.106796
H	 1.1176392577	 1.2903538221	 2.4577355078	 0.092464
H	-0.2480422994	-1.0255415673	 2.0931235288	 0.073818
H	 1.838455661	-0.6634268635	-1.2378995475	 0.075717
H	-0.7749618883	-0.4789386581	-0.4552756386	 0.07595
235.8386	352.7352	385.3635	519.7987	576.7243	686.8858	715.8834	791.5391	798.1182	848.5767	869.252	875.7114	897.5181	914.0223	951.5944	968.0832	979.3571	1008.3237	1029.6979	1068.63	1081.2228	1086.93	1145.6176	1165.5816	1203.8096	1218.8741	1238.3541	1244.4557	1274.3418	1290.3174	1307.653	1310.9781	1319.3336	1346.8577	1365.6723	1486.7613	1488.8173	1509.8917	3034.3478	3049.0856	3061.3699	3078.9619	3094.4341	3108.1187	3113.9965	3118.1817	3121.0384	3132.6589
C1CC2CC3OC2C13	C1C[C@H]2C[C@@H]3O[C@H]2[C@H]13	
InChI=1S/C7H10O/c1-2-5-6-3-4(1)7(5)8-6/h4-7H,1-3H2	InChI=1S/C7H10O/c1-2-5-6-3-4(1)7(5)8-6/h4-7H,1-3H2/t4-,5+,6-,7+/m0/s1
