19
gdb 42001	3.36647	1.44683	1.07691	2.0582	77.51	-0.2416	0.0112	0.2527	1117.506	0.162037	-423.031346	-423.023943	-423.022999	-423.063281	29.006	
C	-0.0064133676	 1.4996174154	 0.0317009786	-0.112405
O	 1.300401268	 1.8286867978	-0.4299374074	-0.2673
C	 2.2290170371	 0.845433325	 0.0480623331	-0.157567
C	 1.3832721072	-0.3028811896	 0.5338090483	 0.274977
C	 1.6439526722	-1.2754629908	 1.3980968529	-0.209641
C	 0.5509281114	-2.20402678	 1.8665328396	-0.254925
C	-0.7589717518	-1.9649184879	 1.1002282357	-0.083071
O	-1.0093688423	-0.5809390725	 0.8816741576	-0.259572
C	-0.0209427562	-0.0316584914	 0.0444422054	 0.04161
H	-0.1951676885	 1.8726509617	 1.0502468438	 0.100631
H	-0.725788273	 1.9516101301	-0.6548611793	 0.111978
H	 2.891507271	 0.5804314136	-0.7858751441	 0.115494
H	 2.8533294468	 1.2585196488	 0.8536329416	 0.109402
H	 2.6322602613	-1.3940569355	 1.8369950793	 0.08755
H	 0.8493689641	-3.2541029392	 1.7492184457	 0.107818
H	 0.39457146	-2.0534355458	 2.9437827219	 0.116484
H	-0.7251338909	-2.4902194445	 0.1319189921	 0.092502
H	-1.6166123481	-2.3470930938	 1.6596246588	 0.109364
H	-0.1518981106	-0.3999094712	-0.9895457534	 0.07667
96.8694	169.5371	229.7588	283.2664	337.6229	364.4849	466.2096	531.7812	615.9052	639.1794	708.7279	796.47	855.0537	882.4626	911.3987	937.086	977.3209	1020.0975	1055.5195	1065.4827	1074.4784	1088.2691	1116.6203	1151.4834	1170.806	1206.4164	1221.9208	1235.1856	1293.4735	1306.6647	1324.8463	1337.5645	1358.6647	1371.7614	1406.6472	1421.8757	1472.9182	1499.7225	1506.5925	1520.3684	1768.1358	2932.6483	2974.2996	2990.3733	2997.5658	3010.5891	3032.3793	3042.2991	3095.0932	3104.1489	3147.8485
C1OCC2=CCCOC12	C1OCC2=CCCO[C@@H]12	
InChI=1S/C7H10O2/c1-2-6-4-8-5-7(6)9-3-1/h2,7H,1,3-5H2	InChI=1S/C7H10O2/c1-2-6-4-8-5-7(6)9-3-1/h2,7H,1,3-5H2/t7-/m0/s1
