13
gdb 132669	3.1494	1.28946	0.91488	0.6859	64.11	-0.2232	-0.0137	0.2094	1121.7106	0.088519	-505.877768	-505.870709	-505.869765	-505.909215	27.572	
O	 0.0690881284	 1.3744599853	-0.0652034468	-0.441493
C	 0.053958368	 0.014731648	-0.0503781431	 0.267792
C	 0.0256534304	-0.704719663	-1.2409322134	-0.188252
C	 0.010151326	-2.097946643	-1.225081963	-0.24407
C	 0.023198846	-2.7645567856	-0.0090180229	 0.313959
F	 0.0083817557	-4.1026820346	 0.0110994138	-0.083436
C	 0.0514327833	-2.0781521587	 1.199266796	-0.401067
C	 0.0662450974	-0.6967072723	 1.1505072348	 0.201573
F	 0.0936711176	 0.0246075515	 2.2883041649	-0.096908
H	 0.0881056428	 1.6802006887	 0.849780049	 0.303823
H	 0.0159929853	-0.1582044715	-2.176527891	 0.122229
H	-0.011889141	-2.6685642878	-2.1452361999	 0.116332
H	 0.0615492402	-2.6011516369	 2.1467283515	 0.129518
157.3008	241.9422	297.0046	338.2519	382.0464	412.4101	450.0145	465.6243	505.2444	596.5821	612.2906	700.7231	737.1863	804.4386	834.417	862.2629	933.0316	974.2993	1105.5628	1165.3848	1194.6486	1262.8929	1285.1701	1339.3763	1409.7006	1478.6461	1549.2091	1653.4145	1667.1232	3201.6055	3216.5133	3221.5783	3799.4077
OC1=CC=C(F)C=C1F	Oc1ccc(F)cc1F	
InChI=1S/C6H4F2O/c7-4-1-2-6(9)5(8)3-4/h1-3,9H	InChI=1S/C6H4F2O/c7-4-1-2-6(9)5(8)3-4/h1-3,9H
