19
gdb 89258	2.48832	1.78927	1.3337	0.9615	73.97	-0.2454	0.0648	0.3101	1015.1524	0.158038	-422.960783	-422.952656	-422.951712	-422.992836	32.452	
C	-0.2227581715	 1.5793232043	-0.018985365	-0.416981
C	 0.0473227472	 0.0807492764	-0.004751376	 0.04362
C	 1.1692357225	-0.4979293964	-0.9370425937	-0.323105
C	 1.7966292761	-1.2342673909	 0.2868069657	 0.37967
O	 1.8937376894	-2.6266986226	 0.2846903975	-0.480624
C	 2.922025045	-0.4735224228	 1.0587374141	-0.06482
O	 2.6578176673	 0.9247428496	 0.9449165415	-0.233915
C	 1.9190260192	 0.173097996	 1.9241279539	 0.017196
C	 0.7513473316	-0.570809164	 1.2286231035	-0.124381
H	 0.6978495296	 2.1474275907	 0.1288318057	 0.141135
H	-0.6629816322	 1.8834310708	-0.9753029447	 0.109681
H	-0.9297951145	 1.8572586726	 0.7711203952	 0.107433
H	-0.8892313598	-0.4563658405	-0.1865976333	 0.076787
H	 0.8045666463	-1.190713323	-1.6995630193	 0.095359
H	 1.8129401576	 0.253554974	-1.3982575092	 0.106424
H	 2.5617128343	-2.8802753413	-0.3629924836	 0.279983
H	 3.9463326036	-0.7825884657	 1.24440798	 0.101178
H	 1.9842215062	 0.525432238	 2.9474689761	 0.104841
H	 0.1611276922	-1.1921184152	 1.9028902616	 0.080519
138.6176	212.8933	220.3939	241.5001	281.7421	312.5463	337.1764	405.8488	485.2586	536.9231	653.377	679.7739	783.1459	795.9166	833.5493	848.1262	876.1774	890.6602	947.4349	971.4852	993.2082	1019.0801	1038.4566	1060.6394	1096.8863	1120.6417	1160.842	1177.606	1207.5443	1236.6035	1244.5645	1258.4877	1291.7256	1314.7437	1353.2779	1356.8111	1392.9339	1406.7185	1460.431	1492.8172	1509.0751	3029.837	3044.8898	3063.9542	3086.5038	3113.5337	3126.2805	3132.8667	3159.4476	3182.0721	3785.7475
CC1CC2(O)C3OC3C12	C[C@H]1C[C@@]2(O)[C@H]3O[C@H]3[C@@H]12	
InChI=1S/C7H10O2/c1-3-2-7(8)4(3)5-6(7)9-5/h3-6,8H,2H2,1H3	InChI=1S/C7H10O2/c1-3-2-7(8)4(3)5-6(7)9-5/h3-6,8H,2H2,1H3/t3-,4+,5-,6-,7-/m0/s1
