23
gdb 105260	2.13977	1.37411	0.99198	1.7324	85.66	-0.2569	0.0842	0.3411	1326.6724	0.204015	-388.271376	-388.261289	-388.260345	-388.306456	37.762	
C	 0.1677206673	 1.1120088381	 1.081736152	-0.386804
C	-0.4793473868	 1.3302491734	-0.2922864862	-0.254412
C	 0.0069099724	 0.3617897514	-1.3586560298	 0.367116
O	-0.094424993	 0.8409317342	-2.71166788	-0.307638
C	 1.2171499984	 0.6319237689	-2.1626392827	 0.034262
C	 2.1174673637	 1.8347866299	-2.0372739254	-0.425404
C	-0.4405874921	-1.0659067492	-1.1749480589	-0.063904
C	-1.8007621488	-1.4864852473	-1.6790771252	-0.264756
C	-0.5507847237	-1.9971282196	-2.3516083757	-0.274245
H	-0.0478611431	 0.1149128386	 1.4779441872	 0.121527
H	 1.2559960031	 1.2221428275	 1.0312440898	 0.117986
H	-0.2089758574	 1.840416576	 1.8059954043	 0.116638
H	-1.5676677182	 1.221610546	-0.2082463661	 0.105563
H	-0.2997196524	 2.3527387062	-0.6344011015	 0.106026
H	 1.7118413111	-0.2498437028	-2.5757989288	 0.082925
H	 1.6085997447	 2.6900581744	-1.5893828437	 0.126417
H	 2.9934245095	 1.5894220156	-1.4267488381	 0.120509
H	 2.4773462926	 2.1373039703	-3.0266344959	 0.128719
H	-0.1213171365	-1.5097130826	-0.2362944949	 0.085407
H	-2.387912141	-2.1699177929	-1.0759537288	 0.107038
H	-2.3799410075	-0.7458141807	-2.2198541029	 0.122926
H	-0.321652652	-1.5849110088	-3.3274030158	 0.129161
H	-0.2714463302	-3.0354934362	-2.211868643	 0.104944
59.2816	92.5392	155.9538	165.8065	178.9656	214.244	252.2556	299.1089	305.1593	415.3986	463.8338	486.1904	604.4578	656.3141	778.451	785.3927	805.1912	826.1751	874.6956	910.9455	939.9822	969.4084	996.4448	1011.9418	1062.0474	1068.3431	1089.9332	1102.5812	1125.0289	1133.8225	1136.2893	1184.2101	1203.1008	1220.7312	1237.1719	1276.7492	1339.2279	1365.9475	1405.7046	1408.0268	1412.7436	1457.0942	1465.6236	1483.2693	1494.0521	1500.5154	1502.2678	1505.7473	1514.1826	3036.3852	3038.5347	3039.5873	3083.9382	3087.4205	3095.8644	3107.0074	3112.5113	3133.8895	3137.7701	3138.0498	3149.9413	3216.7216	3232.2642
CCC1(OC1C)C1CC1	CC[C@]1(O[C@H]1C)C1CC1	
InChI=1S/C8H14O/c1-3-8(6(2)9-8)7-4-5-7/h6-7H,3-5H2,1-2H3	InChI=1S/C8H14O/c1-3-8(6(2)9-8)7-4-5-7/h6-7H,3-5H2,1-2H3/t6-,8+/m0/s1
