21
gdb 104019	3.13036	1.32654	1.23263	2.1771	77.7	-0.2482	0.0632	0.3114	1112.1058	0.184206	-424.211289	-424.203126	-424.202182	-424.243496	33.359	
O	-0.1749059956	 1.4656500287	 0.0653600613	-0.437689
C	 0.0027619601	 0.0480721047	 0.0517301852	-0.156948
C	-1.3955688359	-0.5564856665	-0.0397626585	 0.458779
O	-2.1498498656	-0.0793882568	 1.0670538804	-0.504082
C	-2.117867742	-0.309972761	-1.4163751841	-0.267025
C	-2.4270699634	-1.7709239594	-1.7978008363	-0.018287
C	-2.9040899066	-2.371686683	-0.4433637403	-0.227501
C	-1.4264829215	-2.0964852382	-0.0332827691	-0.059492
C	-1.0666102024	-2.4652360245	-1.5038401701	-0.235335
H	 0.6549859107	 1.8775009861	 0.3204277602	 0.293653
H	 0.6297919473	-0.2601771935	-0.7950004159	 0.090289
H	 0.4785192408	-0.2942868417	 0.9822553169	 0.093192
H	-1.9522350992	 0.8642514627	 1.1249005289	 0.281321
H	-3.0170816595	 0.2922827932	-1.266672537	 0.099382
H	-1.4808541428	 0.1928748572	-2.1499621327	 0.094416
H	-2.9711037634	-1.9417874541	-2.7275002261	 0.055728
H	-3.6871499406	-1.8533890577	 0.1117688734	 0.110913
H	-3.1186948569	-3.440574233	-0.5124557454	 0.089731
H	-0.9616982178	-2.5828985516	 0.8251889008	 0.057863
H	-1.097879688	-3.5446486709	-1.6703581997	 0.096287
H	-0.1609457477	-2.0488111406	-1.9546845219	 0.084806
118.4711	178.1041	202.0139	261.2226	324.3296	383.494	421.0513	447.7145	462.2751	503.1397	534.2284	645.7458	763.7061	825.8544	848.5462	851.9995	877.0453	914.8846	940.8636	957.9314	1002.4809	1016.4169	1032.0415	1033.7572	1060.2946	1079.0596	1087.0527	1114.236	1152.9203	1163.6829	1209.7306	1226.89	1239.7568	1246.6371	1261.5148	1279.8759	1288.7983	1296.2924	1335.888	1410.2419	1449.6963	1485.2326	1490.1639	1508.7272	1525.7742	2993.3335	3038.2882	3052.8447	3057.4023	3070.4529	3104.6556	3107.4604	3108.2164	3113.7028	3136.3928	3772.102	3842.3785
OCC1(O)CC2CC1C2	OC[C@@]1(O)C[C@@H]2C[C@H]1C2	
InChI=1S/C7H12O2/c8-4-7(9)3-5-1-6(7)2-5/h5-6,8-9H,1-4H2	InChI=1S/C7H12O2/c8-4-7(9)3-5-1-6(7)2-5/h5-6,8-9H,1-4H2/t5-,6+,7-/m0/s1
