15
gdb 48664	2.27543	1.60131	1.1241	3.5829	69.27	-0.2671	-0.076	0.1912	1073.6167	0.109682	-457.73872	-457.730437	-457.729493	-457.772077	29.567	
O	-0.0032160696	 0.2969117378	-0.8564199514	-0.251598
C	 0.1800290145	 1.0668545134	 0.051357492	 0.072812
C	 1.3253007938	 2.0097238203	 0.1344718853	 0.241931
C	 1.7218261425	 2.9721429775	 1.2662583707	-0.299034
C	 2.1847911051	 4.0147506135	 0.1932403411	-0.294458
C	 1.7750730579	 3.0296622405	-0.9016872374	 0.248808
O	 2.4536103325	 1.7989843301	-0.6928797513	-0.273814
C	 1.1769379598	 3.280038341	-2.2313996161	 0.071401
O	 0.932696249	 4.3908678263	-2.6350939057	-0.251734
H	-0.5197920563	 1.1435318509	 0.9121725149	 0.089891
H	 0.8618658741	 3.3182376238	 1.8436721241	 0.126222
H	 2.4866206729	 2.5839180148	 1.9414715802	 0.129134
H	 1.5768188007	 4.9196854508	 0.1820898554	 0.141986
H	 3.2434623776	 4.2792076676	 0.1878749814	 0.129619
H	 0.9657540657	 2.3599771916	-2.8107720032	 0.118834
78.987	111.1461	171.6457	187.0248	227.4801	257.0499	395.9776	433.5538	487.4548	540.6605	709.4644	750.3658	784.3184	788.8697	816.919	942.0511	974.3489	1017.2713	1048.2188	1057.6845	1113.168	1157.0598	1215.1937	1226.8219	1239.5678	1303.3626	1373.6289	1427.187	1440.5409	1464.558	1486.5308	1802.1088	1814.8335	2895.3103	2952.4176	3076.1318	3089.6513	3132.1775	3153.9074
O=CC12CCC1(O2)C=O	O=C[C@]12CC[C@]1(O2)C=O	
InChI=1S/C6H6O3/c7-3-5-1-2-6(5,4-8)9-5/h3-4H,1-2H2	InChI=1S/C6H6O3/c7-3-5-1-2-6(5,4-8)9-5/h3-4H,1-2H2/t5-,6+
