18
gdb 80511	2.18602	1.48734	1.25772	4.1073	78.14	-0.2416	0.008	0.2496	1102.1481	0.148063	-398.084706	-398.075919	-398.074975	-398.117848	33.102	
C	-0.5387901409	 1.2428883386	 0.2705158355	-0.334879
N	-0.1095584283	-0.1439469759	 0.4026912213	-0.114765
C	 1.1116385729	-0.6720755852	-0.1389693143	-0.098007
C	 2.3039126615	 0.2917967541	-0.0197707371	-0.266309
C	 2.1356792242	 0.2932513257	 1.533730841	-0.022854
N	 2.1222656359	 1.5520293512	 2.2394422057	-0.521497
C	 0.866196596	-0.6113384549	 1.367365484	 0.16075
C	 0.4896484039	-1.6335267416	 2.2972694054	 0.214378
N	 0.2338189244	-2.436307864	 3.0908471666	-0.347947
H	 0.2672745628	 1.9783117535	 0.1520070221	 0.114157
H	-1.183073055	 1.3126565764	-0.6110837814	 0.137487
H	-1.1369948814	 1.5101926378	 1.1461601283	 0.137938
H	 1.059320843	-1.5450572875	-0.7798093452	 0.120392
H	 3.2496896867	-0.1485006466	-0.3386553152	 0.122341
H	 2.1867991003	 1.2580140994	-0.5161379272	 0.11591
H	 2.9233844593	-0.3251679077	 1.9726325923	 0.10828
H	 1.3034485435	 2.1051914998	 2.0180250097	 0.233769
H	 2.1211059412	 1.403686227	 3.2431833184	 0.240857
121.3737	141.9495	160.2695	176.654	252.6833	286.1715	309.7237	372.8174	444.1839	529.036	534.4758	566.069	657.7031	692.2146	763.3141	822.3531	857.6724	925.2127	952.1316	1003.1535	1011.3676	1042.8035	1108.301	1138.4806	1148.7488	1178.6861	1184.1442	1231.3802	1257.8667	1260.8231	1278.2757	1402.3751	1431.7155	1451.2337	1479.7159	1501.6752	1508.958	1664.0332	2344.7757	3013.4226	3074.2486	3074.9507	3083.8541	3114.7606	3130.1493	3182.8061	3519.6691	3603.5824
CN1C2CC(N)C12C#N	CN1[C@H]2C[C@@H](N)[C@@]12C#N	
InChI=1S/C6H9N3/c1-9-5-2-4(8)6(5,9)3-7/h4-5H,2,8H2,1H3	InChI=1S/C6H9N3/c1-9-5-2-4(8)6(5,9)3-7/h4-5H,2,8H2,1H3/t4-,5+,6-,9?/m1/s1
