21
gdb 39767	2.92449	1.78194	1.45815	0.1784	85.55	-0.2446	0.0979	0.3425	987.9559	0.185291	-349.897025	-349.890106	-349.889162	-349.927751	30.225	
C	-0.0151902397	 1.5226533785	 0.0351795448	-0.309844
C	 1.3119089777	 0.8086271744	-0.0570168229	-0.032518
C	 0.0127564744	 0.015416604	-0.0483993495	-0.032519
C	 0.1148217612	-0.6825341676	-1.4214894746	-0.122183
C	 1.6128992688	-1.1592334859	-1.3766737393	-0.211462
C	 1.8728341133	 0.3908407347	-1.4331520184	-0.122188
C	 0.6461670692	 0.4134359857	-2.3596756049	 0.457501
C	 0.684234562	 0.3348220742	-3.8530790287	-0.37797
C	-0.0155948279	 1.4885958669	-3.157389839	-0.371934
H	-0.2553548756	 1.9266437325	 1.0144511256	 0.100536
H	-0.3859565296	 2.120994018	-0.7856403634	 0.121341
H	 1.9854661241	 0.81772545	 0.7925128991	 0.082392
H	-0.2948402086	-0.5745348159	 0.8076406416	 0.082392
H	-0.6985429375	-1.3446784975	-1.7212222565	 0.0569
H	 1.9402550889	-1.6855986649	-0.4756806883	 0.083689
H	 1.9301184258	-1.6885822497	-2.2782481344	 0.094416
H	 2.8304939287	 0.8100142255	-1.7446297085	 0.0569
H	 1.6213459224	 0.5421106905	-4.3610561092	 0.109718
H	 0.0668218399	-0.4070377571	-4.3507065455	 0.109718
H	-1.1007547607	 1.5178981127	-3.1893396916	 0.112558
H	 0.4537868533	 2.467035861	-3.1996824964	 0.112558
203.0782	216.6013	263.2689	371.76	388.8328	478.3568	539.0063	650.7849	659.8252	759.9304	785.1232	802.188	820.7258	824.8103	883.6707	886.7058	901.9927	925.3667	959.6177	984.0549	998.7703	1004.5916	1033.9825	1054.5415	1073.1343	1080.7815	1081.7327	1083.0602	1084.2206	1107.1398	1119.7463	1187.7781	1188.9187	1207.1051	1213.1739	1241.9327	1255.6493	1257.6783	1321.7378	1354.9101	1406.8292	1463.7438	1481.4006	1490.789	1511.7862	3053.0697	3103.7103	3105.8071	3114.9008	3118.8859	3120.7688	3136.5793	3165.2826	3175.3522	3190.6963	3205.3696	3232.0926
C1C2C1C1CC2C11CC1	C1[C@H]2[C@@H]1[C@@H]1C[C@H]2C21CC2	
InChI=1S/C9H12/c1-2-9(1)7-4-8(9)6-3-5(6)7/h5-8H,1-4H2	InChI=1S/C9H12/c1-2-9(1)7-4-8(9)6-3-5(6)7/h5-8H,1-4H2/t5-,6+,7+,8-
