15
gdb 16878	4.18441	1.96732	1.47363	4.6511	61.21	-0.2336	0.0134	0.247	826.6218	0.120657	-399.803988	-399.797491	-399.796547	-399.834644	25.238	
O	-0.0430900782	 0.1146983712	-0.7341645711	-0.320342
C	-0.0692544931	 1.134426104	-0.1071127393	 0.443095
C	-1.3160814967	 1.9930682969	 0.0772723909	-0.308839
N	-1.2862055966	 2.6348263145	 1.3858883229	-0.307123
C	-0.1606768296	 3.5188929719	 1.5090274504	-0.037482
C	 0.9295543428	 3.1259207929	 2.4899341934	-0.309168
C	 1.1100742844	 2.8947829324	 1.0171914326	 0.112009
O	 1.0609763607	 1.5770010006	 0.5120971707	-0.221942
H	-1.3681238149	 2.6970496452	-0.7737957825	 0.113243
H	-2.172021938	 1.320288423	 0.0015957502	 0.141877
H	-2.162345658	 3.0847544736	 1.6138447647	 0.23474
H	-0.3105498007	 4.5770843618	 1.2930131517	 0.089879
H	 1.5291702918	 3.8995019928	 2.9563187561	 0.11842
H	 0.7181118948	 2.2541040044	 3.0972143829	 0.137367
H	 1.8308403813	 3.4962551747	 0.4735929864	 0.114265
105.3393	201.2233	305.9207	402.38	458.6522	477.0965	521.5765	610.5751	644.154	720.1067	797.7766	828.7026	883.7411	925.9878	1015.6333	1031.6254	1039.4768	1056.3216	1076.3671	1129.7716	1152.6434	1173.1882	1207.9881	1242.558	1269.6531	1319.3785	1382.6785	1416.9372	1456.283	1484.1058	1492.9746	1865.6036	2935.5749	3090.2489	3118.1549	3142.8261	3163.9334	3242.4932	3572.4881
O=C1CNC2CC2O1	O=C1CN[C@H]2C[C@H]2O1	
InChI=1S/C5H7NO2/c7-5-2-6-3-1-4(3)8-5/h3-4,6H,1-2H2	InChI=1S/C5H7NO2/c7-5-2-6-3-1-4(3)8-5/h3-4,6H,1-2H2/t3-,4+/m0/s1
