19
gdb 52097	3.61176	1.05036	0.98558	3.8598	76.39	-0.2257	0.025	0.2507	1254.9009	0.160654	-419.14891	-419.140534	-419.13959	-419.183309	30.995	
O	 0.5458653921	 1.0768988063	 1.3533257475	-0.325727
C	 0.2900750394	 1.5499212776	 0.2657147552	 0.159289
N	 1.1451579289	 1.5753083984	-0.7905648969	-0.26524
C	 2.5019898097	 1.0509947381	-0.703584199	-0.325348
C	 3.5085484106	 2.080983164	-0.232524267	 0.31875
C	 3.5606213489	 2.8466613311	 1.1096277684	-0.186163
N	 4.8085216686	 3.3885381515	 0.3852814314	-0.143454
C	 5.0331512849	 1.9216827085	-0.0242093101	-0.214414
C	 3.8946053173	 3.4484047116	-0.8501793714	-0.210032
H	-0.6888166946	 2.0062780647	 0.0171641532	 0.07756
H	 0.8509905261	 2.0402533529	-1.6339684417	 0.251019
H	 2.4800510013	 0.2138219272	 0.0003661116	 0.145144
H	 2.7894918399	 0.6613066656	-1.6864667832	 0.108525
H	 2.8004291045	 3.6083675106	 1.298458069	 0.103771
H	 3.7885984996	 2.2792716189	 2.0150153817	 0.109763
H	 5.3771149147	 1.287450413	 0.7974681201	 0.104817
H	 5.6673392694	 1.8083789452	-0.9085686004	 0.097634
H	 4.4427417893	 3.4532877948	-1.7974590566	 0.096122
H	 3.1623992793	 4.25996753	-0.8087883321	 0.097985
34.5423	57.4719	139.1721	229.3569	252.8194	324.5498	415.3635	504.9611	581.4732	584.6985	672.8216	732.369	786.1714	801.2496	889.5322	916.0136	937.7695	973.0227	977.02	1012.8066	1021.7946	1032.2328	1049.0603	1155.0772	1164.3433	1168.5197	1170.8343	1199.3934	1200.515	1212.5001	1269.3967	1311.2757	1329.0717	1387.9001	1427.9058	1459.2459	1509.2627	1511.1279	1527.2656	1564.3442	1801.9842	2936.1077	3039.8919	3042.482	3047.43	3063.1067	3100.8513	3106.9084	3113.5626	3129.3454	3642.965
O=CNCC12CN(C1)C2	O=CNC[C@@]12CN(C1)C2	
InChI=1S/C6H10N2O/c9-5-7-1-6-2-8(3-6)4-6/h5H,1-4H2,(H,7,9)	InChI=1S/C6H10N2O/c9-5-7-1-6-2-8(3-6)4-6/h5H,1-4H2,(H,7,9)
