19
gdb 66779	3.28315	1.99507	1.71768	0.0963	80.07	-0.2385	0.0834	0.322	874.3116	0.161625	-348.699733	-348.693451	-348.692507	-348.729862	27.611	
C	-0.0172638505	 1.4429575762	 0.0236515099	-0.513716
C	-0.0061821678	-0.0642455655	 0.0136422964	 0.359853
C	 0.16901497	-0.8424613177	-1.2936440856	-0.133563
C	-0.598297808	-2.144287007	-1.2312298047	-0.087661
C	 0.9113979229	-2.1344672807	-1.0347764267	-0.087667
C	 0.7363502011	-2.2672032917	 0.5014690215	-0.073066
C	 0.6219056726	-0.8605061411	 1.1400140998	-0.130344
C	-0.8913028516	-0.8703751565	 0.9431474283	-0.130377
C	-0.8205485583	-2.2773257004	 0.2988734144	-0.073065
H	 0.9234996753	 1.8518004199	-0.362679328	 0.117592
H	-0.8313628592	 1.8403562931	-0.593398965	 0.117593
H	-0.1531840108	 1.8309338694	 1.0381052916	 0.116785
H	 0.2886077584	-0.3270710035	-2.2385090552	 0.077452
H	-1.1982070795	-2.5457979042	-2.0390750198	 0.07875
H	 1.7031522229	-2.5269327691	-1.6615231804	 0.07875
H	 1.2334551995	-3.0709880812	 1.0392905942	 0.065008
H	 1.2228116902	-0.4254952554	 1.9306787183	 0.076335
H	-1.6800291216	-0.4444182999	 1.553019301	 0.076336
H	-1.4284154357	-3.0883006247	 0.69289386	 0.065007
203.0883	235.2405	280.2779	557.8249	559.5551	564.9881	694.4322	706.703	762.5071	764.7377	784.4374	815.5973	840.5615	866.0865	892.8567	899.5559	911.8631	916.5657	945.8473	961.5431	965.83	1006.3267	1045.9181	1047.2017	1047.3401	1062.9935	1093.3892	1113.209	1173.1995	1183.6175	1200.2875	1210.6048	1233.8991	1265.1979	1280.9371	1308.096	1341.2234	1411.6109	1418.5381	1489.7899	1502.1327	3022.9292	3080.5073	3096.657	3137.7217	3146.0311	3164.7859	3174.4216	3175.948	3182.3755	3198.1477
CC12C3C4C3C3C1C2C43	C[C@@]12[C@@H]3[C@H]4[C@@H]3[C@H]3[C@@H]1[C@@H]2[C@@H]43	
InChI=1S/C9H10/c1-9-6-2-3(6)5-4(2)7(9)8(5)9/h2-8H,1H3	InChI=1S/C9H10/c1-9-6-2-3(6)5-4(2)7(9)8(5)9/h2-8H,1H3/t2-,3+,4-,5+,6+,7-,8+,9-
