19
gdb 98856	2.93516	1.17598	1.01678	2.9904	71.8	-0.2497	0.0038	0.2535	1252.0121	0.157645	-460.173234	-460.163537	-460.162593	-460.209024	33.562	
C	-0.031140671	 1.4230489991	-0.232948695	-0.241465
O	-0.1219140834	-0.0077086368	-0.2035108888	-0.23415
C	 0.6524313713	-0.6532879902	-1.1007077208	 0.424465
O	 1.3693187774	-0.1061685381	-1.8965201608	-0.354774
C	 0.5218882026	-2.1560319516	-0.9067898903	 0.00115
O	 0.9646579592	-2.892601023	-2.0484190323	-0.269711
C	 2.1332314334	-3.3783091757	-1.3529283453	-0.077389
C	 1.6373947179	-2.7895675044	-0.0126013259	-0.033298
C	 2.5701404398	-1.8907507904	 0.7831774965	-0.426638
H	 0.9958931008	 1.7484534327	-0.0488197743	 0.140385
H	-0.3510906363	 1.8074102922	-1.2046183229	 0.144611
H	-0.6933140726	 1.7800412496	 0.5557505499	 0.133971
H	-0.5084700772	-2.3955943802	-0.6241511088	 0.099083
H	 2.2225106465	-4.4684199596	-1.4136855733	 0.104673
H	 3.0509955882	-2.9152826788	-1.7370721422	 0.111705
H	 1.2072489402	-3.5592870178	 0.6327289878	 0.091997
H	 3.0098494123	-1.1157845496	 0.1479649666	 0.139907
H	 2.0388646822	-1.3991431229	 1.6046325828	 0.125995
H	 3.3878062685	-2.4751851346	 1.2176588672	 0.119483
37.5031	71.8309	107.2026	123.6606	198.1074	214.8718	238.92	326.3879	340.6064	390.9428	444.2104	677.5468	717.5802	773.199	867.4475	894.0845	926.9618	935.4916	990.6546	1021.5052	1073.351	1097.3128	1139.8192	1156.1757	1178.3715	1179.5214	1202.8851	1218.5303	1244.6511	1275.7874	1345.4167	1363.7274	1390.9778	1414.9889	1472.6535	1482.2487	1495.3878	1497.3746	1504.5207	1523.4445	1831.3272	3018.9011	3035.2872	3052.1576	3053.6895	3064.6588	3082.0956	3102.2255	3114.6007	3127.229	3159.9811
COC(=O)C1OCC1C	COC(=O)[C@H]1OC[C@H]1C	
InChI=1S/C6H10O3/c1-4-3-9-5(4)6(7)8-2/h4-5H,3H2,1-2H3	InChI=1S/C6H10O3/c1-4-3-9-5(4)6(7)8-2/h4-5H,3H2,1-2H3/t4-,5+/m1/s1
