16
gdb 80313	3.68118	1.18361	1.13947	5.0775	76.39	-0.2418	-0.0476	0.1942	1113.3469	0.125449	-396.935209	-396.927218	-396.926273	-396.967811	29.896	
C	-0.1045069787	 1.5460288156	 0.0501700868	-0.41087
C	 0.0577465376	 0.0477000622	-0.0472512797	-0.035206
C	 0.6725411335	-0.6546046096	-1.2246891566	-0.056102
N	 1.5753328595	 0.1387131408	-2.0187510418	-0.33055
C	 2.6524715439	 0.455487157	-1.2074435311	 0.241256
N	 2.6056451143	 0.0438467532	 0.0125469859	-0.271087
C	 1.3797300195	-0.6802754414	 0.1617502913	-0.044103
C	 3.7345422381	 1.2286194747	-1.745423239	 0.262268
N	 4.5941968384	 1.8360791218	-2.2231732027	-0.320851
H	 0.7667661373	 2.0831890569	-0.3289189091	 0.136785
H	-0.9756771659	 1.8761405119	-0.5253223762	 0.121733
H	-0.25111542	 1.8471651563	 1.0918984655	 0.12843
H	-0.7691053141	-0.5182517395	 0.3750608279	 0.099519
H	 0.1953462872	-1.4942842422	-1.7154614513	 0.109271
H	 1.7134910004	-0.0529770025	-2.99896053	 0.264765
H	 1.4119387789	-1.5290064851	 0.8352810699	 0.104743
104.3134	118.3261	172.843	222.9405	251.2884	383.6098	422.4474	523.1476	541.2476	568.2923	625.4713	658.1061	732.651	763.7831	826.9285	886.1256	934.9268	986.4413	1019.342	1032.7476	1066.63	1106.9375	1126.0191	1160.69	1221.9775	1258.8096	1325.5873	1353.5061	1403.3166	1425.8733	1465.6164	1489.9455	1499.0583	1621.7505	2361.9769	3043.6172	3103.5119	3128.3767	3143.6964	3172.8744	3184.1269	3627.0859
CC1C2NC(=NC12)C#N	C[C@H]1[C@H]2NC(=N[C@@H]12)C#N	
InChI=1S/C6H7N3/c1-3-5-6(3)9-4(2-7)8-5/h3,5-6H,1H3,(H,8,9)	InChI=1S/C6H7N3/c1-3-5-6(3)9-4(2-7)8-5/h3,5-6H,1H3,(H,8,9)/t3-,5+,6-
