20
gdb 102710	2.20902	1.1494	0.81957	1.1848	78.91	-0.2428	0.0241	0.2669	1452.8676	0.168454	-440.258918	-440.248634	-440.24769	-440.295645	36.153	
C	-0.5075320873	 1.328873204	-0.1369702583	-0.328627
N	-0.1148816195	-0.0617947856	-0.0543818229	-0.292068
C	 0.6693201856	-0.5834671967	-0.8933166518	 0.370618
C	 1.3951329232	 0.0289202863	-2.0844505103	-0.144045
O	 1.625175578	-0.8858778563	-3.1308636031	-0.416834
O	 1.0510892945	-1.8868717934	-0.7770774529	-0.277769
C	 0.4952178014	-2.6340829472	 0.2832355645	 0.170127
C	-0.7085306074	-3.478826498	 0.0001861827	-0.27775
C	 0.6598188597	-4.1137049623	 0.1700375649	-0.30185
H	-0.3282442715	 1.8144742654	-1.1060773678	 0.10721
H	-1.5760294328	 1.4100143978	 0.0882483482	 0.129765
H	 0.0220719066	 1.9089843422	 0.6292194728	 0.127903
H	 0.8051956028	 0.8506523847	-2.4969455792	 0.126806
H	 2.3375017689	 0.4659790432	-1.7097946329	 0.110587
H	 1.8611876818	-1.7223395309	-2.7141829448	 0.293213
H	 0.5801883723	-2.1399956604	 1.2433588207	 0.115168
H	-1.4481345002	-3.5954604596	 0.7840384017	 0.121003
H	-1.1109174218	-3.4373985552	-1.0053611754	 0.125012
H	 1.1457931183	-4.4884006621	-0.7238050139	 0.121768
H	 0.8735632575	-4.6759466358	 1.0718287579	 0.119763
41.9855	57.3526	82.7529	99.0196	150.5197	238.7476	253.385	323.4612	357.9613	370.5343	396.6352	509.9492	591.5888	633.281	747.53	790.296	827.9874	863.4354	980.6194	983.4008	1016.1113	1057.1735	1072.911	1090.0391	1107.8941	1113.4049	1131.4004	1154.0346	1183.0434	1190.337	1229.5288	1241.9223	1289.6844	1347.1593	1393.6395	1428.1714	1455.1693	1460.4578	1485.1917	1494.8772	1498.2598	1507.8208	1770.4764	2952.4716	2999.8474	3057.7835	3080.869	3096.0622	3139.6017	3143.1175	3187.3479	3222.4722	3237.0966	3806.9391
CN=C(CO)OC1CC1	CN=C(CO)OC1CC1	
InChI=1S/C6H11NO2/c1-7-6(4-8)9-5-2-3-5/h5,8H,2-4H2,1H3	InChI=1S/C6H11NO2/c1-7-6(4-8)9-5-2-3-5/h5,8H,2-4H2,1H3
