15
gdb 6520	3.03011	1.85415	1.43457	3.7144	62.88	-0.2667	0.0155	0.2822	892.4291	0.115998	-399.79211	-399.783569	-399.782625	-399.82448	31.585	
C	-0.0236039331	 1.5389273052	 0.0001883894	-0.45078
C	 0.0540865501	 0.0315993879	-0.0418273718	 0.365868
O	-1.0086437359	-0.6111972791	-0.675106363	-0.442143
C	 1.3569828061	-0.6809171972	-0.2321412668	-0.373723
C	 0.6863933008	-0.7099947518	 1.1411957116	 0.166912
O	 1.21424649	 0.0789378921	 2.1641000126	-0.445076
C	 0.0578340938	-1.9349930276	 1.5816608526	 0.25802
N	-0.436498109	-2.9041255238	 1.9749217666	-0.348669
H	 0.8258710344	 1.9654323735	 0.5350521889	 0.141312
H	-0.0453619493	 1.9338051882	-1.0198477287	 0.134029
H	-0.9377278943	 1.8612058961	 0.5117719232	 0.121908
H	-1.8114287978	-0.4598581504	-0.1619240277	 0.293457
H	 1.3417298427	-1.5900048845	-0.8212300749	 0.148812
H	 2.2619683579	-0.0866022677	-0.2903937327	 0.131168
H	 2.0054445735	-0.3545098207	 2.5054911306	 0.298908
118.0638	148.6673	196.6875	246.3328	263.6729	315.2674	331.6571	387.5072	405.5965	416.6675	476.7573	581.6279	613.6703	671.8171	751.4197	881.245	918.0828	932.6898	993.0118	1060.035	1088.5435	1124.8076	1215.2689	1262.9848	1306.7524	1343.1658	1399.1817	1415.5578	1462.8759	1488.6648	1500.5686	2346.6707	3038.6734	3103.4123	3142.3361	3147.9043	3243.6095	3786.3724	3789.2349
CC1(O)CC1(O)C#N	C[C@@]1(O)C[C@]1(O)C#N	
InChI=1S/C5H7NO2/c1-4(7)2-5(4,8)3-6/h7-8H,2H2,1H3	InChI=1S/C5H7NO2/c1-4(7)2-5(4,8)3-6/h7-8H,2H2,1H3/t4-,5+/m1/s1
