19
gdb 99729	1.84631	1.49753	1.01729	3.7312	72.62	-0.2388	-0.0283	0.2104	1254.4199	0.153588	-460.187065	-460.175986	-460.175042	-460.224522	37.339	
C	 0.1421605007	 0.9465081994	-0.0624904505	-0.244143
O	-0.3007270473	-0.3835414513	-0.2763667866	-0.249931
C	-1.6723963211	-0.580292286	-0.0027760329	-0.078648
C	-2.1341119055	-1.8874045373	-0.6678104878	 0.355976
C	-1.433657737	-2.2893309052	-1.9442714491	-0.475716
O	-3.0352300684	-2.5249376147	-0.1744304703	-0.293571
C	-1.9732666089	-0.5861760161	 1.5159134348	 0.384694
C	-1.1975022633	-1.5851793077	 2.3452307912	-0.488906
O	-2.769072419	 0.1919994602	 1.9809064916	-0.296358
H	 1.1989803968	 0.9763282586	-0.335471345	 0.135316
H	-0.4151630285	 1.6557217968	-0.6911054047	 0.119749
H	 0.0336345626	 1.2547327238	 0.9860797818	 0.127225
H	-2.2813438843	 0.2313960696	-0.4358905619	 0.111117
H	-1.4518960914	-1.4682386032	-2.6686948536	 0.14251
H	-0.3787668909	-2.4928151152	-1.7370100487	 0.159228
H	-1.9173692296	-3.1738931733	-2.3596755565	 0.141378
H	-1.6226175669	-2.5803574201	 2.174106018	 0.167232
H	-0.1495206645	-1.6169568736	 2.034672392	 0.141913
H	-1.2822558036	-1.3361134748	 3.4033764482	 0.140935
37.9476	56.0767	92.6337	133.7382	141.6229	158.7483	167.8744	194.7538	269.4453	328.9432	407.1396	433.5433	495.4017	521.7678	587.4955	622.3704	775.3795	837.2085	950.0456	968.7053	1020.7856	1050.7539	1064.0194	1135.3035	1182.5416	1201.106	1213.5319	1229.978	1284.0096	1342.6917	1374.6421	1381.7211	1454.8463	1465.7444	1470.1114	1471.9105	1479.4002	1488.9298	1507.4603	1805.9674	1826.7738	2972.0844	2995.2536	3047.2981	3047.6078	3051.209	3111.2814	3116.247	3127.2351	3157.653	3158.471
COC(C(C)=O)C(C)=O	COC(C(=O)C)C(=O)C	
InChI=1S/C6H10O3/c1-4(7)6(9-3)5(2)8/h6H,1-3H3	InChI=1S/C6H10O3/c1-4(7)6(9-3)5(2)8/h6H,1-3H3
