16
gdb 50354	4.29955	1.11951	1.00155	3.4585	70.03	-0.2497	-0.0319	0.2179	1161.0027	0.12473	-437.866449	-437.858998	-437.858054	-437.898991	27.786	
O	-0.8780540604	 0.9170789547	 0.345260025	-0.241601
C	 0.167594968	 0.9027727009	-0.2507326759	 0.159173
C	 1.3345132534	 1.8246501636	 0.0603408028	-0.055793
C	 1.2278263581	 2.5356649202	 1.462878456	-0.270349
C	 2.7207622694	 2.6975924282	 1.791873885	-0.15212
C	 3.6113468935	 2.0338619217	 2.8872320081	-0.124916
O	 4.2448426178	 1.1713347511	 1.8503159114	-0.269708
C	 3.2536333169	 1.5605465359	 0.9977933451	 0.439189
N	 2.5903084349	 1.0098386118	 0.0753258993	-0.330893
H	 0.3583975171	 0.2039646177	-1.092101538	 0.101757
H	 1.368002712	 2.5596871786	-0.7617088772	 0.105763
H	 0.6686710246	 3.4716964118	 1.4273464499	 0.118472
H	 0.7143021336	 1.8616011872	 2.1543842111	 0.132792
H	 3.1191081448	 3.6741534064	 1.505928933	 0.114765
H	 4.3572158707	 2.6658871027	 3.369924394	 0.134602
H	 3.0872476655	 1.4047894475	 3.6103878903	 0.138867
61.522	133.4007	208.7823	233.3088	332.2097	399.9093	473.1655	551.0027	653.461	695.5628	752.1392	800.6851	809.5661	881.8456	911.702	953.6779	963.3576	1012.8946	1073.748	1074.3772	1111.4005	1141.7434	1161.2404	1202.0702	1210.0879	1249.8889	1263.5828	1329.4325	1342.1411	1372.6263	1404.4682	1484.2105	1499.0644	1766.6454	1831.5282	2919.8392	2969.2916	3073.8195	3075.0755	3082.7814	3132.0453	3150.7549
O=CC1CC2COC2=N1	O=C[C@H]1C[C@H]2CO[C]2[N]1	
InChI=1S/C6H7NO2/c8-2-5-1-4-3-9-6(4)7-5/h2,4-5H,1,3H2	InChI=1S/C6H7NO2/c8-2-5-1-4-3-9-6(4)7-5/h2,4-5H,1,3H2/t4-,5+/m0/s1
