20
gdb 11039	3.9806	1.67986	1.38896	1.7784	74.38	-0.2501	0.0904	0.3405	978.2178	0.177266	-349.018917	-349.010913	-349.009969	-349.05072	31.103	
C	 0.0737047361	 1.5809743291	 0.0343380593	-0.402352
C	 0.030888857	 0.0519770077	 0.0102723312	 0.010307
C	 0.7654900213	-0.5779753069	-1.2032385623	-0.225743
C	 1.2470325681	-1.9690294432	-0.7341439783	-0.280303
C	 1.4344495912	-1.8143344618	 0.7690902966	 0.42107
C	 1.712989894	-3.0091597066	 1.6385130911	-0.484625
O	 2.1460627569	-0.604838541	 1.1070353645	-0.305593
C	 0.710390748	-0.6101415781	 1.1970479873	-0.014583
H	 1.1088916208	 1.9304112839	 0.1041400037	 0.129933
H	-0.3666638294	 2.002884942	-0.8751331917	 0.112028
H	-0.4783915643	 1.9848096608	 0.8897751994	 0.109499
H	-1.0181415823	-0.278407897	 0.0148800962	 0.069359
H	 0.1294038654	-0.6286835039	-2.0907491892	 0.093645
H	 1.6299718038	 0.0417397082	-1.4551933817	 0.11413
H	 0.4863805891	-2.7390544868	-0.9154252341	 0.097694
H	 2.1631439447	-2.2926607803	-1.2395686397	 0.102657
H	 2.6619632804	-3.4797549263	 1.357978825	 0.125536
H	 1.7785912857	-2.7154075883	 2.689143336	 0.128135
H	 0.9236702052	-3.7611707494	 1.5322462574	 0.118746
H	 0.3091905682	-0.492895132	 2.2024926295	 0.080462
125.3261	190.0357	200.9837	231.8651	246.2937	343.753	376.0047	401.9198	521.6555	571.1486	627.43	698.1785	821.9762	848.4077	858.5026	914.4187	933.9361	962.9236	998.7521	1008.	1027.6874	1051.7568	1090.5811	1142.346	1152.1033	1200.1312	1229.3069	1243.421	1299.6168	1315.9991	1337.5051	1338.8234	1372.1107	1408.0405	1411.118	1456.5569	1479.1498	1489.3469	1493.3763	1498.9094	1502.3355	1502.7699	3000.7327	3028.3609	3030.6078	3034.4017	3063.2335	3075.2011	3093.9203	3096.498	3104.9158	3110.1935	3120.9975	3127.2153
CC1CCC2(C)OC12	C[C@H]1CC[C@@]2(C)O[C@@H]12	
InChI=1S/C7H12O/c1-5-3-4-7(2)6(5)8-7/h5-6H,3-4H2,1-2H3	InChI=1S/C7H12O/c1-5-3-4-7(2)6(5)8-7/h5-6H,3-4H2,1-2H3/t5-,6-,7+/m0/s1
