20
gdb 117391	3.014	0.78906	0.67558	1.2915	76.6	-0.2406	-0.0123	0.2283	1688.0423	0.168389	-440.258438	-440.248254	-440.24731	-440.29544	35.505	
O	 0.3921644449	 0.3653761972	-1.0945026869	-0.426069
C	-0.1562899278	-0.0918387873	 0.1337512779	-0.079072
C	-1.1565679165	-1.1872141423	-0.2009183829	-0.271337
C	-1.8157543946	-1.7805774623	 1.0254618177	 0.359355
O	-1.5090978028	-1.4569429804	 2.1517084449	-0.306474
C	-2.944045489	-2.7913049961	 0.8018589772	-0.248809
N	-2.7992446135	-3.5493771132	-0.4308238446	-0.067003
C	-2.1070541946	-4.8328870248	-0.3238812347	-0.223171
C	-3.5807919328	-4.7767885062	-0.5270317031	-0.217365
H	 1.029068287	 1.0575525125	-0.8953671507	 0.286173
H	 0.6187827089	-0.4918242002	 0.8025911238	 0.10057
H	-0.661762163	 0.7181580636	 0.6795912133	 0.097342
H	-1.9324361933	-0.8116626115	-0.8798938614	 0.134329
H	-0.6682409182	-1.9925728799	-0.7629002338	 0.143006
H	-3.0155936286	-3.4141550778	 1.7084712688	 0.108648
H	-3.8751852395	-2.2098649414	 0.7366686672	 0.13051
H	-1.4457055307	-5.0826385069	-1.1482041794	 0.123037
H	-1.7514941765	-5.1391735894	 0.6585745825	 0.119146
H	-4.2089601647	-5.0488076939	 0.3195425329	 0.114291
H	-4.0127038045	-4.9852316595	-1.5015113188	 0.122892
35.7953	59.3318	89.188	101.5878	114.5138	216.214	270.2918	311.2898	368.2581	389.9364	453.4234	500.7593	618.9686	750.4544	780.2717	837.6474	852.7768	903.0024	927.0077	1027.259	1033.5996	1041.7335	1069.6137	1100.6807	1113.3541	1123.9159	1146.7897	1171.7063	1194.5784	1208.4923	1256.4201	1264.1092	1298.3493	1324.5618	1349.422	1360.9266	1437.9422	1461.7452	1466.8582	1492.0426	1519.9685	1522.6941	1801.4916	2972.3964	2993.501	3022.1917	3029.2943	3045.0708	3075.3004	3097.1149	3101.6223	3181.6059	3195.8293	3831.3728
OCCC(=O)CN1CC1	OCCC(=O)CN1CC1	
InChI=1S/C6H11NO2/c8-4-1-6(9)5-7-2-3-7/h8H,1-5H2	InChI=1S/C6H11NO2/c8-4-1-6(9)5-7-2-3-7/h8H,1-5H2
