20
gdb 118326	2.51721	1.07166	0.8067	0.6137	79.25	-0.2328	-0.0085	0.2243	1457.854	0.170994	-436.512864	-436.502895	-436.501951	-436.54829	36.333	
C	-0.8352254867	 1.7470301543	 0.1993372938	-0.381432
C	-0.4334101345	 0.3136699489	-0.1568388383	-0.167533
C	-1.4787840532	-0.7015209115	 0.3121412903	-0.159327
N	-1.1294486054	-2.0919748136	-0.0247577477	-0.103125
C	-0.5921384069	-2.8792589885	 0.9594533838	 0.180831
O	-0.2470721044	-4.0448172407	 0.8794088156	-0.355329
C	-1.4086114813	-2.5293328075	-1.3544203261	 0.439188
N	-0.9026644435	-3.7572676286	-1.6763704224	-0.563415
N	-2.0536112707	-1.7205030151	-2.1091077108	-0.560809
H	-0.0802789819	 2.4618876584	-0.140217121	 0.118317
H	-1.7861196031	 2.0182202264	-0.2716404274	 0.125419
H	-0.9511195763	 1.8761835155	 1.2816430107	 0.111906
H	-0.3182039975	 0.2141620499	-1.2399312558	 0.130016
H	 0.5356656931	 0.0699573567	 0.2967128227	 0.09386
H	-1.5959594634	-0.6509700464	 1.3993150302	 0.103867
H	-2.4447056296	-0.4850219414	-0.1448204015	 0.151322
H	-0.4974961673	-2.3201609276	 1.906275167	 0.097306
H	-0.5967206999	-4.3526136421	-0.9147866822	 0.284032
H	-1.2620568095	-4.1832356196	-2.5134275977	 0.24836
H	-2.1910462878	-2.1238414674	-3.033630533	 0.206546
67.9127	76.1509	89.1196	135.8313	241.35	271.0948	283.6386	327.7201	388.2724	398.143	407.7526	472.2092	551.6383	612.6978	718.1242	742.6457	753.8286	788.613	805.5188	882.3305	905.7748	1031.8016	1044.216	1114.9213	1125.7745	1128.7124	1133.9276	1202.9434	1260.4104	1322.8742	1334.7171	1400.3511	1412.3076	1418.0501	1425.8137	1452.2576	1489.6689	1492.7236	1502.2302	1508.3473	1617.8	1712.5885	1778.2578	2982.3126	3030.1499	3031.8494	3057.5738	3084.4921	3105.378	3109.8767	3134.7899	3491.4804	3505.6239	3693.0643
CCCN(C=O)C(N)=N	CCCN(C=O)C(=N)N	
InChI=1S/C5H11N3O/c1-2-3-8(4-9)5(6)7/h4H,2-3H2,1H3,(H3,6,7)	InChI=1S/C5H11N3O/c1-2-3-8(4-9)5(6)7/h4H,2-3H2,1H3,(H3,6,7)
