19
gdb 63854	2.28335	1.58393	1.2719	1.864	82.55	-0.2425	0.02	0.2626	1094.1301	0.156162	-385.827799	-385.818728	-385.817784	-385.860853	35.298	
C	-0.0451877389	 1.5352153941	 0.1084233978	-0.452402
C	-0.0114404622	 0.0170354655	-0.0251924643	 0.231963
C	-1.382401329	-0.5669661168	-0.356414005	-0.455275
C	 1.1303246827	-0.577656317	-0.9417359971	-0.299948
C	 1.7108997956	-1.2771799863	 0.287745349	-0.069531
O	 2.0236858991	-0.26763581	 1.2477633207	-0.297063
C	 0.6593566496	-0.7245537085	 1.1737419718	 0.304925
C	 0.0325700881	-1.2271859323	 2.3473852986	 0.197616
C	-0.5471004489	-1.6283201929	 3.3222206239	-0.405904
H	 0.9345532888	 1.9184783799	 0.4035556442	 0.133516
H	-0.3252493381	 2.000699622	-0.8432006453	 0.112141
H	-0.778615498	 1.8463044729	 0.8606647873	 0.118148
H	-1.7434865301	-0.1766476782	-1.3139608395	 0.11695
H	-1.3488691353	-1.6592936129	-0.4269487277	 0.116141
H	-2.1143510828	-0.3060208418	 0.414997941	 0.125348
H	 0.7425719335	-1.2674428766	-1.6951390064	 0.107242
H	 1.8031943747	 0.1423443836	-1.4137291577	 0.11099
H	 2.2535018737	-2.2129975989	 0.3602475467	 0.113998
H	-1.0461552926	-1.9889616257	 4.1875028622	 0.191148
111.8785	133.765	194.4943	230.1932	259.3219	283.3913	322.3236	354.2055	419.6419	484.1888	515.6665	557.3939	603.3596	610.728	648.95	669.5773	801.5606	837.7227	890.5021	925.5845	947.3755	962.9623	979.8338	1018.4511	1037.6705	1111.0129	1125.8136	1191.2934	1227.9438	1262.3704	1273.1749	1289.4756	1396.8543	1408.0919	1420.3954	1474.2138	1483.8028	1487.8381	1500.2432	1510.9625	2236.5877	3027.3189	3031.7213	3064.1299	3091.6881	3098.8029	3101.7889	3120.8044	3123.0669	3185.3441	3501.7022
CC1(C)CC2OC12C#C	CC1(C)C[C@H]2O[C@@]12C#C	
InChI=1S/C8H10O/c1-4-8-6(9-8)5-7(8,2)3/h1,6H,5H2,2-3H3	InChI=1S/C8H10O/c1-4-8-6(9-8)5-7(8,2)3/h1,6H,5H2,2-3H3/t6-,8-/m1/s1
