16
gdb 50279	2.63761	1.38082	1.04585	3.9276	78.89	-0.2354	0.007	0.2424	1142.2936	0.12313	-400.697883	-400.689656	-400.688712	-400.730993	30.761	
O	 0.0540742809	 0.015655626	-0.3520209968	-0.321297
C	 0.0698067303	 1.2002861735	-0.0952432531	 0.12041
N	 1.1866669869	 1.8928639508	 0.2563232218	-0.099596
C	 2.5958729534	 1.5089722346	 0.0633311707	-0.183175
C	 2.9485275629	 2.9974095313	-0.0749936601	-0.147076
C	 2.1268189128	 3.6424417342	-1.1534129824	-0.312892
C	 1.4613004688	 3.3289542456	 0.1719678265	 0.183303
C	 0.829827933	 4.2836700665	 1.0154950606	 0.239188
C	 0.283701909	 5.0926616339	 1.7187432442	-0.416723
H	-0.8335954735	 1.8422952584	-0.0786729087	 0.082801
H	 3.017525803	 1.0341289184	 0.9534171991	 0.132689
H	 2.7701073878	 0.8735317848	-0.8100416833	 0.13372
H	 3.803487648	 3.479540704	 0.3764058361	 0.122708
H	 2.3285793707	 4.6947591829	-1.3218049753	 0.138826
H	 1.8301379323	 3.0803327743	-2.0349457257	 0.128015
H	-0.1959626663	 5.8025917909	 2.3463823164	 0.1991
68.3077	129.0351	151.8136	221.1516	291.1826	362.4855	433.1522	440.0015	496.5046	570.801	581.5479	651.0809	686.174	784.0019	822.9837	850.0754	896.4873	939.8737	1011.6382	1023.1694	1037.8606	1072.1749	1090.1884	1130.2382	1160.7445	1201.2161	1274.3923	1316.2074	1358.4668	1382.3659	1430.0802	1475.5598	1511.2013	1793.0929	2236.132	2939.7833	3054.9246	3105.4514	3119.989	3217.2892	3228.6102	3500.4867
O=CN1CC2CC12C#C	O=CN1C[C@H]2C[C@@]12C#C	
InChI=1S/C7H7NO/c1-2-7-3-6(7)4-8(7)5-9/h1,5-6H,3-4H2	InChI=1S/C7H7NO/c1-2-7-3-6(7)4-8(7)5-9/h1,5-6H,3-4H2/t6-,7-/m1/s1
