23
gdb 104021	2.90706	1.20631	1.12039	1.5018	84.37	-0.2579	0.074	0.3319	1231.1782	0.206373	-388.289066	-388.279919	-388.278975	-388.322538	36.113	
C	-0.7897088138	 1.7119525984	 0.1124779056	-0.446889
C	-0.0467260196	 0.3757193006	 0.0152168286	 0.326218
C	-1.0547012152	-0.784472994	 0.0408350584	-0.102251
O	-1.9235546164	-0.6755278611	-1.0788711839	-0.424721
C	 0.8278110074	 0.2580082592	-1.2697213915	-0.269056
C	 2.0108726949	-0.6338051055	-0.8958546385	-0.026723
C	 3.1621249106	 0.0119854811	-0.1681104392	-0.282454
C	 2.0905288855	-0.6989103857	 0.6183277617	-0.024432
C	 0.9558664225	 0.1525582652	 1.1858917591	-0.286326
H	-0.0873723366	 2.5515286222	 0.0750413223	 0.103395
H	-1.5043623839	 1.8221899707	-0.7072238966	 0.131324
H	-1.347801297	 1.7846769187	 1.0534785844	 0.103357
H	-0.5077835407	-1.7403625637	 0.0231536614	 0.086543
H	-1.6250291233	-0.7438718186	 0.983299341	 0.080711
H	-2.5100796817	-1.4368708156	-1.0811150744	 0.286799
H	 0.2387626978	-0.1594808693	-2.0895530398	 0.114063
H	 1.1648814061	 1.2496080411	-1.5942869279	 0.087347
H	 2.2187056204	-1.5088711481	-1.5015556592	 0.077427
H	 4.1361222614	-0.4615646091	-0.2377916127	 0.103135
H	 3.1991077792	 1.0976833591	-0.1237137653	 0.101893
H	 2.3568328494	-1.6195739896	 1.1255347861	 0.077278
H	 1.3261422973	 1.1158092334	 1.5566309894	 0.093314
H	 0.4690340755	-0.3386564094	 2.0361541508	 0.090049
71.8853	145.3927	204.252	230.669	242.9137	302.1575	313.8029	315.7903	382.9209	434.6445	488.0869	596.7601	675.2804	762.9183	781.2749	814.9918	878.2785	886.6851	899.3527	920.6347	945.7576	969.4075	986.6723	1025.7935	1057.4393	1070.319	1076.0118	1088.0241	1110.1245	1156.4014	1168.503	1193.7761	1214.7512	1216.298	1257.9128	1282.6436	1295.4315	1312.5523	1343.3941	1349.3999	1383.6565	1404.0679	1447.6184	1480.1783	1489.6727	1494.1128	1500.984	1511.5359	1516.6987	2960.1905	2996.215	3024.4574	3027.8775	3033.6351	3063.0315	3087.9505	3102.4976	3109.8183	3118.8135	3160.4806	3168.1087	3198.5442	3837.7843
CC1(CO)CC2CC2C1	C[C@@]1(CO)C[C@H]2C[C@H]2C1	
InChI=1S/C8H14O/c1-8(5-9)3-6-2-7(6)4-8/h6-7,9H,2-5H2,1H3	InChI=1S/C8H14O/c1-8(5-9)3-6-2-7(6)4-8/h6-7,9H,2-5H2,1H3/t6-,7+,8-
