12
gdb 21463	8.02703	1.27338	1.10176	0.8459	60.97	-0.2487	-0.0254	0.2233	987.3069	0.084125	-414.641065	-414.634297	-414.633353	-414.673303	23.434	
N	-0.0736735164	 1.2730324186	-0.1045778863	-0.412655
C	-0.0058607376	 0.0275373427	 0.031517093	 0.105115
O	-1.1700290032	-0.6917241165	-0.1212847863	-0.221339
C	-1.1438178291	-2.0286933454	-0.0723395035	 0.564961
C	-2.1810513757	-2.9033760362	 0.0274504915	-0.400701
C	-1.5202737234	-4.1574344105	 0.0004461037	 0.062195
N	-0.2177773026	-4.0577652488	-0.1032599223	-0.150024
O	 0.0279569763	-2.6662278995	-0.1564349226	-0.223987
H	 0.8423152509	 1.6916889275	 0.0456412644	 0.246884
H	 0.8598987703	-0.59142605	 0.2672661909	 0.150633
H	-3.2294722107	-2.6795423903	 0.1101995214	 0.136403
H	-1.9567533187	-5.1451636717	 0.056617526	 0.142514
40.1709	87.1111	186.1283	306.7592	465.4204	478.9163	633.2225	701.6476	780.6031	785.9132	833.1064	894.2366	926.8515	929.0334	988.927	1045.0295	1048.0878	1067.4337	1224.1629	1254.6977	1315.0119	1382.0957	1414.2365	1531.9475	1650.1999	1755.6346	3135.9152	3242.0751	3298.6316	3523.2837
N=COC1=CC=NO1	[NH][CH]Oc1ccno1	
InChI=1S/C4H4N2O2/c5-3-7-4-1-2-6-8-4/h1-3,5H	InChI=1S/C4H4N2O2/c5-3-7-4-1-2-6-8-4/h1-3,5H
