14
gdb 16296	3.54684	1.79957	1.47392	1.8765	65.15	-0.2501	0.0117	0.2618	862.3504	0.105461	-382.461223	-382.45399	-382.453046	-382.492527	27.675	
O	 0.0698474256	 1.3888846475	-0.122771757	-0.42887
C	 0.1035200162	 0.0027768729	 0.0147859766	 0.06903
C	 0.306468583	-0.611776165	 1.4553345349	-0.290512
C	-1.0739838614	-1.2490442017	 1.324037022	-0.050777
O	-2.0054118718	-0.1893841727	 1.0751458479	-0.298069
C	-1.2676390648	-0.724073754	-0.0497998525	 0.276667
C	-1.9703946292	-1.217665666	-1.1808380672	 0.157386
C	-2.5169109467	-1.6225580547	-2.1726287959	-0.380168
H	-0.6609970345	 1.6986761199	 0.4279674709	 0.291648
H	 0.8219775692	-0.3847124702	-0.7100613917	 0.107209
H	 1.1251236278	-1.3342878667	 1.4904543352	 0.115649
H	 0.4127261019	 0.1101911403	 2.2683054482	 0.114912
H	-1.4684515037	-2.1567962063	 1.764659163	 0.12196
H	-3.0090649217	-1.9824883832	-3.0422859245	 0.193934
120.8278	157.1845	183.8635	335.2169	404.5167	473.6889	482.2832	545.8088	554.4139	614.2005	665.4385	675.2222	717.7698	824.0235	872.9747	927.5788	930.676	999.1272	1043.4432	1116.3996	1137.0064	1154.1008	1191.9826	1255.8149	1258.4781	1316.9337	1402.3074	1440.9651	1474.7448	2240.3365	3069.4375	3103.7498	3130.05	3198.5251	3501.2593	3771.8731
OC1CC2OC12C#C	O[C@H]1C[C@H]2O[C@@]12C#C	
InChI=1S/C6H6O2/c1-2-6-4(7)3-5(6)8-6/h1,4-5,7H,3H2	InChI=1S/C6H6O2/c1-2-6-4(7)3-5(6)8-6/h1,4-5,7H,3H2/t4-,5+,6-/m0/s1
