24
gdb 121737	5.86879	0.53298	0.51485	3.2788	88.69	-0.2392	0.0381	0.2773	2288.2858	0.215736	-405.600708	-405.589055	-405.588111	-405.640317	40.29	
C	 0.0234981423	 1.4230483585	-0.2487257678	-0.3771
C	-0.1669977618	-0.0933991284	-0.1662546152	-0.167194
C	-1.4631889353	-0.4778646479	 0.5582424904	-0.147395
N	-1.663117502	-1.9136255337	 0.6616238696	-0.322116
C	-2.5143661326	-2.6029744571	-0.1552685386	 0.413089
O	-3.2252736803	-2.054219737	-0.9804476432	-0.381137
C	-2.5043184452	-4.1188928211	 0.0324044093	-0.301039
C	-3.8990133196	-4.7313385272	-0.1357689923	-0.148963
C	-3.8833460967	-6.2608968285	-0.1176925983	-0.385421
H	 0.9515840889	 1.6784891331	-0.7683453086	 0.116065
H	-0.8029457331	 1.8956747064	-0.7903233088	 0.123961
H	 0.0660342436	 1.8743339526	 0.749053667	 0.113636
H	-0.1889646309	-0.5272996229	-1.172510801	 0.114247
H	 0.6880139495	-0.5482266178	 0.3516505993	 0.086947
H	-1.4740051461	-0.0412668028	 1.5651914047	 0.098679
H	-2.3277786289	-0.0880894757	 0.0153901123	 0.146483
H	-1.0717841188	-2.4358401942	 1.2872257051	 0.239389
H	-1.8305855687	-4.5324216023	-0.7310066296	 0.123923
H	-2.0744080454	-4.3901621161	 1.0047453617	 0.08876
H	-4.5546266752	-4.3565999565	 0.6598862957	 0.099425
H	-4.319097962	-4.3597705059	-1.0748129886	 0.128409
H	-4.8921290465	-6.6671221543	-0.2400394364	 0.114661
H	-3.2633863733	-6.6610865862	-0.9280567946	 0.113456
H	-3.4822625219	-6.6488071847	 0.8258038278	 0.109236
19.1261	29.7303	65.8904	78.1371	97.9312	181.5834	233.8587	246.6019	271.2676	301.0743	315.3957	374.3757	452.8882	519.5819	617.2548	711.4871	748.9032	761.6675	859.9204	879.8509	892.2518	911.0043	951.9402	1033.6613	1053.1994	1069.8491	1112.1603	1122.8941	1133.931	1180.6881	1222.0381	1256.915	1279.248	1305.3007	1330.4824	1338.6961	1347.241	1391.947	1407.5854	1413.586	1415.0246	1465.1324	1475.9977	1490.8818	1492.2411	1499.7745	1500.0576	1508.8714	1509.5654	1539.6182	1771.9577	3012.7396	3017.9184	3023.1111	3026.1868	3031.6393	3035.0329	3051.9647	3063.0148	3079.3178	3097.0882	3101.2071	3104.813	3107.1652	3114.8	3640.979
CCCNC(=O)CCC	CCCNC(=O)CCC	
InChI=1S/C7H15NO/c1-3-5-7(9)8-6-4-2/h3-6H2,1-2H3,(H,8,9)	InChI=1S/C7H15NO/c1-3-5-7(9)8-6-4-2/h3-6H2,1-2H3,(H,8,9)
