17
gdb 13123	4.52287	1.1195	0.94422	1.721	66.59	-0.2428	-0.0273	0.2155	1222.7492	0.140717	-400.973564	-400.965046	-400.964102	-401.007464	29.609	
C	-0.2119922004	 1.3161384091	-0.0930875376	-0.228087
O	-0.0014812835	-0.0749001971	-0.0294927468	-0.238989
C	 0.6229506742	-0.479781044	 1.1688653919	-0.048769
C	 0.8592032022	-1.9750094859	 1.0993941339	-0.101636
N	 2.0439969785	-2.4288543543	 0.3215809289	-0.321044
C	 2.5082682411	-3.3396993811	 1.4005131642	-0.282698
C	 1.4766131221	-2.6748791084	 2.3252721254	 0.377232
O	 1.2620702062	-2.6623969118	 3.4993384594	-0.28469
H	 0.7357889768	 1.8749102033	-0.046552273	 0.108081
H	-0.7012849203	 1.5291813412	-1.0465471401	 0.127722
H	-0.8587255548	 1.66944372	 0.7257631269	 0.105439
H	 1.5848484462	 0.0391222085	 1.3055906204	 0.095223
H	-0.013380899	-0.2551323123	 2.0420171736	 0.099696
H	-0.0848579029	-2.4652010995	 0.8145193238	 0.104413
H	 1.8166662871	-2.8901441918	-0.5504522268	 0.229948
H	 2.2962236047	-4.4090032307	 1.255859291	 0.123412
H	 3.5614374719	-3.2261822052	 1.6797872251	 0.134746
65.3533	96.8868	109.8852	138.8155	226.904	273.6736	348.2236	391.5196	514.1522	555.3398	652.1528	758.1095	819.3347	912.2891	964.1858	1002.1415	1016.1878	1060.555	1085.432	1104.8998	1146.0354	1164.8402	1185.9148	1209.3014	1227.5838	1260.3146	1277.4093	1348.2357	1369.6878	1418.5635	1476.0641	1477.7214	1484.8371	1497.8646	1520.5209	1913.5995	2958.9427	2973.7128	2988.1187	3004.4525	3008.1409	3017.1778	3068.4307	3115.0535	3559.0685
COCC1NCC1=O	COC[C@H]1NCC1=O	
InChI=1S/C5H9NO2/c1-8-3-4-5(7)2-6-4/h4,6H,2-3H2,1H3	InChI=1S/C5H9NO2/c1-8-3-4-5(7)2-6-4/h4,6H,2-3H2,1H3/t4-/m1/s1
