17
gdb 72968	2.65414	1.53695	1.19794	1.9263	75.23	-0.2297	0.0217	0.2514	1065.3997	0.13304	-421.740927	-421.732143	-421.731198	-421.773764	33.711	
C	-0.0733041775	 1.5954561166	 0.0476288316	-0.505387
C	 0.0243568823	 0.0999954198	 0.0459146181	 0.188005
C	-1.1547053188	-0.8675583041	-0.0208716995	-0.153178
O	-0.4698173058	-1.8315645713	 0.8404665951	-0.311162
C	 0.6149248115	-0.9174958988	 1.0045212281	-0.032636
C	 1.2704894738	-0.7237053386	-0.3481807298	 0.170248
O	 1.1907571784	-1.7466304843	-1.2959678043	-0.475711
C	 2.5167988875	-0.0090067457	-0.3567171856	 0.281822
C	 3.5541809255	 0.5997365325	-0.3518059448	-0.404629
H	 0.90193423	 2.0494507021	 0.2384687733	 0.142407
H	-0.4254571513	 1.9622956223	-0.9234484165	 0.130107
H	-0.7729835492	 1.9464314092	 0.814273357	 0.121137
H	-2.052888913	-0.4928357225	 0.4802812547	 0.118804
H	-1.4076582135	-1.2906099196	-0.9978556816	 0.121267
H	 1.1134790876	-0.8693375971	 1.9660615175	 0.118173
H	 0.7512014131	-2.4837419926	-0.8479706592	 0.296063
H	 4.4772577496	 1.1247893021	-0.3556121341	 0.194669
127.6529	145.2936	174.4361	230.5245	263.9687	284.9261	313.6091	431.0651	441.7613	476.541	526.9116	571.8765	581.2686	679.8017	683.5144	695.0534	785.2897	907.9589	920.5891	976.2948	987.0815	1006.0928	1034.9514	1099.1151	1128.2564	1167.5857	1194.21	1219.8919	1274.6022	1300.6576	1398.8389	1415.6293	1431.7904	1490.1801	1494.3694	1502.5809	2234.3302	3028.9833	3042.1328	3086.6227	3098.7112	3123.5954	3180.6098	3501.7011	3736.8287
CC12COC1C2(O)C#C	C[C@]12CO[C@H]1[C@]2(O)C#C	
InChI=1S/C7H8O2/c1-3-7(8)5-6(7,2)4-9-5/h1,5,8H,4H2,2H3	InChI=1S/C7H8O2/c1-3-7(8)5-6(7,2)4-9-5/h1,5,8H,4H2,2H3/t5-,6+,7-/m1/s1
