16
gdb 37061	3.29988	1.80859	1.56617	1.0469	66.62	-0.2528	0.0036	0.2564	869.6144	0.127037	-437.869496	-437.863136	-437.862192	-437.899943	25.922	
C	 0.0088529347	 1.4684584724	-0.0510416165	-0.377565
C	 1.3306153833	 0.7586223719	 0.0086947808	 0.323398
C	 1.9974014364	 0.4894426302	 1.3345726424	-0.151422
O	 0.9351993459	-0.0014056142	 2.1624407464	-0.266525
C	-0.0227171446	-0.7130415667	 1.3619766424	-0.146215
C	 0.0478920018	-0.0432949669	 0.0063657448	 0.251622
N	 0.0348316548	-0.7623983054	-1.2489807008	-0.312837
C	 1.1057459363	-0.4122875225	-1.8431504518	 0.071119
O	 1.9655292249	 0.4553789138	-1.2225635392	-0.256234
H	-0.2995096778	 1.9915897389	 0.847648418	 0.137027
H	-0.2823810277	 1.9255278906	-0.9893974169	 0.13019
H	 2.794264856	-0.2562981722	 1.1896549375	 0.107021
H	 2.4141050246	 1.360632539	 1.8475995409	 0.117205
H	 0.2411942924	-1.775417625	 1.2567470579	 0.108041
H	-0.9815789612	-0.6340560234	 1.8814322358	 0.116517
H	 1.4249189701	-0.7340772406	-2.8274169016	 0.148657
207.5791	229.0313	299.5483	380.2706	403.443	535.5407	572.8511	621.0914	633.0113	784.6736	823.4042	838.336	905.2172	920.4728	930.2337	944.6719	967.1399	1010.563	1044.8736	1050.8111	1074.7992	1096.4686	1157.0863	1211.862	1222.5226	1270.5096	1279.6924	1323.2245	1352.5063	1370.0268	1391.4469	1458.4077	1510.1156	1520.1352	1645.1429	2992.4714	3004.9284	3086.5786	3090.1249	3138.3096	3227.7673	3236.1252
C1C23COCC12N=CO3	C1[C@@]23COC[C@@]12N=CO3	
InChI=1S/C6H7NO2/c1-5-2-8-3-6(1,5)9-4-7-5/h4H,1-3H2	InChI=1S/C6H7NO2/c1-5-2-8-3-6(1,5)9-4-7-5/h4H,1-3H2/t5-,6+/m0/s1
