18
gdb 75447	3.11303	1.16914	0.88377	0.9095	74.18	-0.2495	-0.0383	0.2112	1289.4802	0.146688	-439.118045	-439.109131	-439.108187	-439.152663	31.824	
C	 0.295430072	 1.5322492024	-0.0321925293	-0.451367
C	 0.151289779	 0.0419554769	-0.1135014649	 0.397268
N	-0.0423004604	-0.5636171042	-1.2081606058	-0.299316
C	-0.2250615677	-2.0106648435	-1.2006912581	-0.172468
C	-0.6305744552	-2.5623233259	 0.1680453903	-0.23854
C	 0.2868304863	-1.936558307	 1.2200346433	 0.045022
O	 0.2622584832	-0.5110051037	 1.137905494	-0.280056
C	-0.1323122133	-2.3073323295	 2.6337077518	 0.132638
O	-0.0696067853	-3.427979344	 3.0639078209	-0.246324
H	 1.2745115609	 1.7983721498	 0.3788856549	 0.138562
H	 0.182377789	 1.9635482564	-1.0256911316	 0.147375
H	-0.4610484746	 1.9485918555	 0.6408143163	 0.138613
H	-0.9844187189	-2.2582549869	-1.9502977232	 0.116589
H	 0.7057567822	-2.4833609183	-1.5431086294	 0.115158
H	-1.669205459	-2.2898521921	 0.3890131917	 0.115649
H	-0.5510097115	-3.6510545627	 0.2209831793	 0.127827
H	 1.3171784886	-2.2867794604	 1.0655662248	 0.116226
H	-0.5213178453	-1.4528282827	 3.2300932049	 0.097142
41.6607	85.2742	140.7109	180.1492	195.0649	269.6198	334.2022	407.8157	428.8526	500.1145	572.3585	612.4021	683.8575	838.5379	881.2805	903.6496	915.8916	963.0676	1013.0286	1061.6928	1076.3055	1111.4702	1127.5911	1148.7255	1211.4383	1236.8428	1258.9822	1307.0199	1343.0234	1366.4805	1370.5973	1401.6468	1411.0297	1474.6305	1476.8859	1481.2372	1492.5554	1757.4164	1840.6707	2899.3904	3011.598	3016.4166	3042.8347	3048.0446	3063.2682	3104.8107	3109.1241	3169.1378
CC1=NCCC(O1)C=O	CC1=NCC[C@@H](O1)C=O	
InChI=1S/C6H9NO2/c1-5-7-3-2-6(4-8)9-5/h4,6H,2-3H2,1H3	InChI=1S/C6H9NO2/c1-5-7-3-2-6(4-8)9-5/h4,6H,2-3H2,1H3/t6-/m1/s1
