18
gdb 107298	3.4962	1.28001	1.14072	2.2066	71.18	-0.2339	0.0529	0.2868	1102.8646	0.148307	-438.99149	-438.983749	-438.982805	-439.023893	30.081	
O	 0.1644296941	 1.3515133996	 0.2504747388	-0.409779
C	 0.0860721784	-0.0259926511	-0.086263258	-0.191177
C	-1.3226105354	-0.5246753668	-0.1405567863	 0.309482
N	-2.0743689574	-0.8727925484	 1.0900341707	-0.366337
C	-1.9032300973	-1.8958677524	 0.0312846744	-0.145824
C	-2.9541732986	-1.6028135129	-1.0736225628	 0.128025
O	-4.2316260448	-1.1102693914	-0.6470794792	-0.287748
C	-3.7840093088	 0.2682306956	-0.7600515048	-0.08702
C	-2.378648786	-0.1784807841	-1.2232964204	-0.138325
H	-0.3317029339	 1.4810786511	 1.0659487013	 0.28856
H	 0.5594392552	-0.1130133153	-1.0704451496	 0.116765
H	 0.667223424	-0.6524457312	 0.6126057091	 0.083911
H	-1.389089015	-1.0961698374	 1.8130854317	 0.22672
H	-1.4215451756	-2.83990653	 0.2601768836	 0.093702
H	-3.0089235576	-2.3386908494	-1.8800100302	 0.079292
H	-4.3590445716	 0.8034356713	-1.5246238716	 0.09734
H	-3.8373413923	 0.7949328349	 0.19605096	 0.115987
H	-1.9858113576	 0.203748748	-2.1634562865	 0.086426
92.051	111.8742	235.8247	269.2198	321.7734	358.4767	390.2878	469.677	607.5022	679.6395	695.7938	802.5538	823.1719	875.5526	892.0054	931.2551	951.5421	958.0557	980.4148	1000.7577	1026.2156	1052.4918	1062.555	1079.4629	1125.3647	1160.2407	1186.2628	1187.0761	1220.8064	1250.2152	1266.7618	1307.1318	1339.3788	1359.0971	1372.6687	1411.1665	1444.4802	1496.475	1500.6718	2955.7782	3030.1589	3065.5996	3077.7973	3099.3814	3135.2423	3176.1982	3455.0285	3808.2937
OCC12NC1C1OCC21	OC[C@]12N[C@H]1[C@H]1OC[C@@H]21	
InChI=1S/C6H9NO2/c8-2-6-3-1-9-4(3)5(6)7-6/h3-5,7-8H,1-2H2	InChI=1S/C6H9NO2/c8-2-6-3-1-9-4(3)5(6)7-6/h3-5,7-8H,1-2H2/t3-,4+,5+,6-/m1/s1
