22
gdb 6138	2.73277	1.75009	1.48187	1.6099	77.64	-0.2367	0.0758	0.3125	1020.1144	0.197868	-350.210862	-350.201287	-350.200342	-350.244833	35.99	
C	-0.7341791269	 1.0770376944	-1.1191677418	-0.400888
C	-0.0049401691	-0.1741605975	-0.6612813974	 0.153702
O	 1.3286964488	-0.2605939199	-1.2124723399	-0.345669
C	 1.9465306659	-0.3335186806	 0.1057167054	 0.428869
C	 2.6726780712	-1.663024738	 0.2818506315	-0.426675
C	 2.8925690106	 0.8445862548	 0.3104399262	-0.426596
C	 0.5433177856	-0.2653303759	 0.7899434153	-0.100872
C	 0.2292438462	 0.8388707452	 1.790766955	-0.416852
H	-0.1884974485	 1.9857453518	-0.8513515084	 0.116531
H	-0.8429050304	 1.0591318085	-2.2082531368	 0.125029
H	-1.73630047	 1.1277820843	-0.6789600243	 0.111105
H	-0.5944136339	-1.0561695619	-0.9497772596	 0.067473
H	 3.5147252667	-1.7347631752	-0.4144265816	 0.11931
H	 3.062598896	-1.7625947615	 1.3012178594	 0.109986
H	 1.9978378986	-2.5014470958	 0.0867688291	 0.114687
H	 2.388237704	 1.7986242335	 0.141668289	 0.115348
H	 3.3123844356	 0.8456985628	 1.3221584632	 0.110912
H	 3.7217911873	 0.7752135249	-0.4011335629	 0.121307
H	 0.2911691429	-1.2280277477	 1.2447473003	 0.070771
H	 0.4544440017	 1.837305099	 1.4079392189	 0.119559
H	-0.8318845436	 0.8211507272	 2.0621534696	 0.116523
H	 0.8034995614	 0.7009608877	 2.7132627098	 0.11644
33.9234	189.3646	203.3271	216.6896	223.6676	255.6555	264.9911	288.1325	339.479	396.7164	414.1685	466.6854	528.2967	654.4829	755.9783	786.7152	864.945	911.5081	922.6305	975.9312	992.5505	1005.001	1039.6004	1045.2065	1089.0697	1143.2297	1166.8417	1185.358	1223.7682	1267.0815	1290.626	1318.4923	1381.2161	1391.3266	1398.1065	1407.9805	1412.2059	1419.7529	1471.0306	1478.5337	1482.8178	1487.213	1493.6958	1499.9097	1508.4979	1511.42	2990.5788	3028.3863	3033.1908	3036.0209	3038.5582	3054.4669	3092.9908	3097.3996	3104.038	3105.7182	3110.3991	3112.7306	3119.1058	3126.7039
CC1OC(C)(C)C1C	C[C@H]1OC(C)(C)[C@H]1C	
InChI=1S/C7H14O/c1-5-6(2)8-7(5,3)4/h5-6H,1-4H3	InChI=1S/C7H14O/c1-5-6(2)8-7(5,3)4/h5-6H,1-4H3/t5-,6+/m0/s1
