15
gdb 35008	2.9173	1.32182	1.10126	5.2813	78.63	-0.2366	0.0008	0.2374	1104.2607	0.112342	-379.597572	-379.589537	-379.588593	-379.630188	30.304	
C	 0.0310457537	-1.1884304111	-0.0321571128	-0.400939
C	 0.0523081453	 0.0143276085	-0.0105123822	 0.184299
C	 0.0616271659	 1.4342416655	-0.0169382234	 0.216492
N	-0.7165860424	 2.2545045471	-0.9695395734	-0.354611
C	 0.4473001731	 3.1977832072	-1.0984448216	-0.191227
C	 1.1964637835	 2.4601079063	 0.0118590179	-0.161084
C	 0.3097606018	 2.2753683917	 1.2310538421	-0.236728
C	-0.6237867815	 3.2736861689	 1.6794702816	 0.323778
N	-1.3570295476	 4.0849521354	 2.0553486718	-0.343067
H	 0.009512323	-2.250432304	-0.041555764	 0.201085
H	-0.8786777851	 1.7448680772	-1.8312677781	 0.236598
H	 0.9653033426	 3.1064370214	-2.0568680678	 0.120249
H	 0.1862475329	 4.2444537356	-0.9177775905	 0.135471
H	 2.2667873556	 2.3217518463	 0.0872027844	 0.122849
H	 0.7937576992	 1.7247372142	 2.0313691361	 0.146835
101.6656	137.573	157.177	191.5227	327.0634	371.53	461.8738	486.5077	533.0114	577.5321	598.9642	680.5194	683.1135	748.7156	788.3519	823.0171	875.6141	956.0467	962.7349	1005.2351	1014.8892	1058.9327	1120.9455	1142.0302	1198.1647	1226.7039	1287.7867	1317.2704	1353.4767	1448.0453	1506.5475	2235.3811	2356.8508	3054.2947	3106.4721	3172.0226	3203.509	3499.0589	3542.1639
C#CC12NCC1C2C#N	C#C[C@]12NC[C@H]1[C@H]2C#N	
InChI=1S/C7H6N2/c1-2-7-5(3-8)6(7)4-9-7/h1,5-6,9H,4H2	InChI=1S/C7H6N2/c1-2-7-5(3-8)6(7)4-9-7/h1,5-6,9H,4H2/t5-,6+,7-/m1/s1
