18
gdb 8201	2.76857	2.51262	1.62252	1.7764	72.23	-0.2391	0.0084	0.2474	857.9517	0.152628	-347.81007	-347.802287	-347.801343	-347.84149	30.251	
C	-0.1165849068	 1.509125375	-0.0091057811	-0.484973
C	 0.1516607906	 0.0287548508	-0.0044706398	 0.342271
C	 0.4413922418	-0.6932568532	-1.3243180612	-0.328106
C	 1.2396868932	-1.9058019084	-0.8969615776	-0.080072
C	 1.4578481416	-1.9216122404	 0.4187840748	-0.120883
C	 0.8024140303	-0.7453208613	 1.0802307475	 0.325971
C	 1.2982706297	-0.2203389942	 2.397787536	-0.495258
O	-0.6409772855	-0.7620026959	 0.8942992859	-0.338868
H	 0.7076931275	 2.0541471405	-0.4813610146	 0.119349
H	-1.0297982513	 1.7295641296	-0.5735643423	 0.127569
H	-0.2530083884	 1.8892332481	 1.0056296714	 0.127858
H	-0.488037927	-0.9690163086	-1.8378944816	 0.121602
H	 1.007409425	-0.0532054914	-2.014210773	 0.107036
H	 1.5542551685	-2.671476306	-1.5972089626	 0.099037
H	 2.0017165899	-2.6807024371	 0.9687919223	 0.096261
H	 2.367413867	 0.0116382935	 2.3447964155	 0.123219
H	 0.7578967878	 0.6807915795	 2.6952130181	 0.129003
H	 1.1573927663	-0.9700114606	 3.1844667025	 0.128985
164.0949	170.8185	203.368	240.4518	275.7331	344.6772	402.3003	472.8847	531.5763	567.3314	659.1285	706.8445	742.1831	796.5522	873.1753	904.1025	942.6559	951.1859	961.8694	979.4269	1070.5834	1085.6154	1096.3919	1164.3646	1195.5998	1213.3018	1236.6026	1319.2528	1370.7702	1410.6393	1413.9765	1443.182	1460.0844	1476.7123	1487.1132	1494.1101	1506.6136	1669.2434	3020.8692	3034.0452	3036.4664	3057.458	3093.4462	3094.6908	3125.1595	3131.0173	3186.5894	3211.8199
CC12CC=CC1(C)O2	C[C@@]12CC=C[C@]1(C)O2	
InChI=1S/C7H10O/c1-6-4-3-5-7(6,2)8-6/h3-4H,5H2,1-2H3	InChI=1S/C7H10O/c1-6-4-3-5-7(6,2)8-6/h3-4H,5H2,1-2H3/t6-,7+/m0/s1
