19
gdb 82840	2.61912	1.6075	1.56071	2.1023	74.1	-0.2275	0.071	0.2984	971.8051	0.160085	-422.98027	-422.972534	-422.97159	-423.011881	31.477	
O	-0.0147668083	 1.4125365791	-0.1315160172	-0.430248
C	-0.0105630128	 0.0138635472	 0.0451247628	 0.146024
C	 0.2869942276	-0.5785393121	 1.451899067	-0.187809
C	-0.4641457372	 0.1654558617	 2.5802405945	-0.222297
C	-1.7978662874	-0.5204222462	 2.1859850731	-0.11852
C	-2.4369704134	 0.0992992544	 0.9158335455	-0.222365
C	-1.4102199464	-0.6352639409	 0.0197612977	-0.106697
C	-0.9830241687	-1.5047650039	 1.2491186086	 0.405839
O	-1.0324067954	-2.8822198532	 1.2025439711	-0.477385
H	 0.88831129	 1.7329862525	-0.0377798753	 0.281897
H	 0.6323024995	-0.48113383	-0.6977301561	 0.068494
H	 1.3018824053	-0.9316572151	 1.6446087374	 0.055025
H	-0.12103903	-0.1644667016	 3.5655956801	 0.08912
H	-0.4404570993	 1.2583664319	 2.5442305524	 0.098741
H	-2.4652014538	-0.8376211192	 2.9890059189	 0.060672
H	-3.4427093911	-0.2959770974	 0.7486999287	 0.098675
H	-2.4627379456	 1.189444429	 0.8463317402	 0.108968
H	-1.7539814102	-1.0463578953	-0.9288404753	 0.069499
H	-0.7384684329	-3.2303455608	 2.0519235159	 0.282368
153.6579	231.9133	244.4887	265.297	287.441	336.3702	393.2057	493.1178	534.9636	579.2153	620.6835	644.709	804.1062	828.9653	838.5512	907.2583	931.0842	974.3438	986.7079	1002.8783	1015.0974	1034.383	1064.6744	1092.9896	1103.607	1127.6497	1138.7368	1161.9509	1198.1668	1212.5222	1244.8785	1270.1993	1284.7913	1305.2008	1308.5674	1330.4027	1348.5695	1386.3528	1422.06	1473.1584	1490.5986	2986.9494	3045.7227	3056.8608	3085.1565	3090.5492	3099.972	3110.6812	3115.9024	3792.7679	3811.1552
OC1C2CC3CC1C23O	O[C@H]1[C@H]2C[C@H]3C[C@@H]1[C@@]23O	
InChI=1S/C7H10O2/c8-6-4-1-3-2-5(6)7(3,4)9/h3-6,8-9H,1-2H2	InChI=1S/C7H10O2/c8-6-4-1-3-2-5(6)7(3,4)9/h3-6,8-9H,1-2H2/t3-,4+,5-,6-,7-
