21
gdb 79817	2.08982	1.94938	1.66304	1.4477	81.04	-0.2317	0.0901	0.3219	994.9647	0.183174	-387.074578	-387.066442	-387.065498	-387.106619	32.708	
C	-0.2378726523	 1.566196677	 0.023925478	-0.419164
C	 0.0363546292	 0.0742065085	-0.1164718445	-0.014607
C	 0.7375347605	-0.512588181	-1.3483962378	-0.099094
C	 2.2522607236	-0.4108521085	-1.2512493302	-0.067362
C	 2.8744834445	 0.5611409876	-0.2626809905	-0.11347
O	 2.2387658959	 0.2883804188	 0.9883233262	-0.299462
C	 1.1514768585	-0.6147293818	 0.7583322193	 0.400905
C	 0.7636794887	-1.2562842556	 2.0673668974	-0.481969
C	 1.5391195447	-1.4727082011	-0.477218318	-0.136385
H	-0.915172821	 1.9094412251	-0.7663036499	 0.108596
H	-0.7154274568	 1.7859120661	 0.9852545256	 0.113992
H	 0.6756727598	 2.1611144951	-0.0320730868	 0.124711
H	-0.8972869949	-0.4826606291	 0.032305482	 0.067391
H	 0.2663054871	-0.7191305613	-2.3032745862	 0.079475
H	 2.8090342766	-0.6839970164	-2.1404655538	 0.088798
H	 3.9533747862	 0.3835105999	-0.1588230306	 0.09915
H	 2.731844262	 1.6130360798	-0.5431079241	 0.0967
H	 0.4362614432	-0.496386532	 2.783840424	 0.126671
H	-0.0529040515	-1.9690730595	 1.9223193712	 0.116157
H	 1.6181259125	-1.7848678538	 2.5010648094	 0.123513
H	 1.6951904635	-2.5414135377	-0.5369371605	 0.085454
145.8702	191.7713	206.3846	233.6876	246.0836	305.7374	326.3379	482.7162	570.0356	599.7109	634.4859	724.4104	764.5646	788.0694	801.3879	852.9194	885.8493	902.6799	949.3782	965.7848	1005.0788	1022.568	1035.7245	1047.7773	1079.2794	1108.7693	1114.1396	1143.9183	1162.7038	1177.0664	1205.8904	1222.1125	1236.2493	1319.7436	1326.6435	1368.0617	1387.0028	1406.4487	1411.7101	1415.2901	1482.3835	1490.8795	1493.4091	1494.6684	1531.8459	3005.0402	3022.8865	3033.3939	3034.6523	3040.129	3089.8413	3109.5377	3117.8664	3131.4261	3165.4934	3182.2524	3204.5391
CC1C2C3COC1(C)C23	C[C@H]1[C@H]2[C@H]3CO[C@]1(C)[C@@H]23	
InChI=1S/C8H12O/c1-4-6-5-3-9-8(4,2)7(5)6/h4-7H,3H2,1-2H3	InChI=1S/C8H12O/c1-4-6-5-3-9-8(4,2)7(5)6/h4-7H,3H2,1-2H3/t4-,5+,6-,7+,8-/m0/s1
