20
gdb 71726	2.50797	2.05634	1.49926	1.7488	81.33	-0.2161	0.0809	0.297	968.4491	0.171701	-365.970674	-365.962962	-365.962018	-366.002189	31.431	
C	-0.130907665	 1.4645874783	 0.0954639302	-0.498034
C	-0.0286533284	-0.034927425	-0.0115261627	 0.271952
C	-0.3383116306	-0.7612561532	-1.3095365799	-0.294909
C	-0.0782718238	-2.1746322709	-0.8492084322	-0.050989
C	-0.4131029744	-2.3365793827	 0.5884250509	-0.049864
C	-0.4064950847	-0.9233672326	 1.1791463498	-0.208519
C	 1.0329122804	-0.8147773601	 0.7324312172	 0.330653
C	 2.2857065435	-0.3135463009	 1.3728131227	-0.507172
N	 1.0224205371	-2.2277934209	 0.163234203	-0.199159
H	 0.5545519187	 1.9616203884	-0.6004352071	 0.120383
H	-1.1459199558	 1.8071183985	-0.1351245707	 0.120409
H	 0.1105315261	 1.8136181616	 1.1042099151	 0.119523
H	-1.3735620911	-0.6190956797	-1.6409694217	 0.101879
H	 0.331406508	-0.4565494231	-2.1221824528	 0.103433
H	-0.1055016106	-3.0180256902	-1.5304229365	 0.092256
H	-0.8022852919	-3.236164548	 1.0511503276	 0.091513
H	-0.9016194239	-0.5696392113	 2.0733088725	 0.085016
H	 2.1412612359	 0.6838826712	 1.7985256098	 0.118084
H	 2.6108646151	-0.9835092971	 2.1752661625	 0.128943
H	 3.0970016654	-0.2563049325	 0.6375038624	 0.124605
185.0248	188.4997	212.2959	237.5652	299.2863	332.9722	413.1889	540.4278	589.5907	623.0536	706.9606	744.8826	753.6739	799.778	836.5904	876.3958	899.9465	924.1099	941.8026	961.2933	979.1569	995.9322	1040.221	1054.2298	1105.9601	1115.8173	1132.9344	1158.4562	1194.2177	1201.1076	1220.7445	1239.2124	1306.7645	1342.0563	1372.7134	1406.4409	1421.6243	1448.3061	1475.3954	1487.261	1491.7891	1496.6333	1509.4681	3025.4361	3028.6765	3034.2258	3075.214	3084.4764	3090.0577	3099.8198	3110.3032	3170.072	3181.4309	3204.4121
CC12CC3C4C1C2(C)N34	C[C@]12C[C@@H]3[C@@H]4[C@H]1[C@@]2(C)N34	
InChI=1S/C8H11N/c1-7-3-4-5-6(7)8(7,2)9(4)5/h4-6H,3H2,1-2H3	InChI=1S/C8H11N/c1-7-3-4-5-6(7)8(7,2)9(4)5/h4-6H,3H2,1-2H3/t4-,5-,6-,7+,8-,9?/m1/s1
