18
gdb 58727	3.57027	1.31928	1.22051	0.8471	73.63	-0.2157	0.0547	0.2703	1075.1403	0.146357	-401.81701	-401.808946	-401.808002	-401.849814	31.034	
C	 0.0668174836	 1.5130692735	-0.0175637539	-0.402028
C	-0.0232656144	-0.009218421	 0.1275277914	-0.043516
O	 0.6945747011	-0.4622349224	 1.2764922249	-0.42243
C	-1.4382146469	-0.4954453434	 0.1186733555	 0.376001
C	-1.9804871299	-1.9238133815	-0.0427966061	-0.184211
C	-3.2214204391	-1.5271105389	 0.7936569395	-0.046002
C	-2.7075626894	-0.1424055152	 0.9538678861	-0.142943
N	-3.6159984367	-0.4686490771	-0.2033062556	-0.176889
C	-2.3755184236	-0.8411131973	-1.0144083405	-0.083807
H	 1.112782059	 1.829757736	-0.0024462259	 0.12539
H	-0.3927703471	 1.8479324496	-0.9523955177	 0.124171
H	-0.4544425059	 2.012697149	 0.8079953512	 0.11025
H	 0.4950976488	-0.4802137208	-0.7177993846	 0.092611
H	 0.2828849005	-0.0669079444	 2.052796263	 0.278283
H	-1.4275125569	-2.8421152452	-0.1776890539	 0.10253
H	-3.9538795944	-2.0934256811	 1.3560974065	 0.098803
H	-2.9472966032	 0.6386760163	 1.6669368749	 0.09329
H	-2.2879581856	-0.7472762661	-2.0899554947	 0.100496
65.6747	132.2824	169.9362	248.2585	251.7459	327.3425	416.0633	487.0761	622.8462	670.2394	760.3869	775.2978	779.6195	842.5889	867.0714	879.2511	892.616	923.5603	940.8213	979.84	985.4493	1004.3965	1012.095	1039.5563	1073.1888	1093.7971	1129.5656	1136.4822	1192.2414	1239.1681	1270.4579	1300.4118	1315.1269	1337.4934	1402.0285	1404.7978	1436.6269	1492.2101	1495.0208	3027.3558	3033.3282	3100.2385	3124.6056	3166.5887	3184.589	3186.9469	3224.881	3802.1765
CC(O)C12C3C4C1N4C23	C[C@@H](O)[C@@]12[C@H]3[C@H]4[C@@H]1N4[C@@H]23	
InChI=1S/C7H9NO/c1-2(9)7-3-4-6(7)8(4)5(3)7/h2-6,9H,1H3	InChI=1S/C7H9NO/c1-2(9)7-3-4-6(7)8(4)5(3)7/h2-6,9H,1H3/t2-,3+,4+,5-,6+,7+,8?/m1/s1
