15
gdb 127243	4.03128	1.01571	0.8196	2.8569	71.74	-0.2663	-0.0128	0.2536	1324.2287	0.113473	-413.006182	-412.997786	-412.996842	-413.040865	28.854	
C	 0.3777473284	 1.3571085609	-0.0544708794	-0.33481
N	 0.0279280061	-0.0500407091	-0.0816838445	 0.07029
C	 0.6453313497	-1.0737792295	-0.7171325144	-0.165641
C	-0.112461416	-2.1748911431	-0.3963387444	 0.302116
C	 0.0438622936	-3.6175563869	-0.7877338704	-0.444593
C	 1.2031567734	-3.839894654	-1.6494011408	 0.272218
N	 2.1241346758	-3.9937496417	-2.3294342222	-0.311682
N	-1.1371314402	-1.7758939153	 0.4050998858	-0.255241
N	-1.050669688	-0.4903281034	 0.5943792483	-0.139636
H	 1.372665798	 1.4973876476	 0.3760396634	 0.153814
H	 0.3568710787	 1.7777421024	-1.0631873145	 0.153807
H	-0.3632857381	 1.8598048721	 0.566468217	 0.175062
H	 1.5302299232	-0.9474982007	-1.3176440435	 0.169075
H	 0.1424611255	-4.243219732	 0.1072693246	 0.177613
H	-0.8560727302	-3.9676748474	-1.3070886449	 0.177606
29.8022	81.6617	103.8509	166.0703	277.6536	302.1257	379.8717	408.3632	480.6211	652.4573	663.546	709.9411	785.2997	804.6249	954.2032	957.077	1029.1228	1052.3676	1074.3119	1152.4184	1161.8669	1217.1881	1259.3535	1290.7819	1325.2354	1398.7032	1441.0582	1458.7779	1485.0786	1487.2824	1512.8969	1592.4781	2368.4764	3041.7412	3054.4046	3072.1232	3122.1626	3167.6453	3286.4277
CN1C=C(CC#N)N=N1	Cn1cc(CC#N)nn1	
InChI=1S/C5H6N4/c1-9-4-5(2-3-6)7-8-9/h4H,2H2,1H3	InChI=1S/C5H6N4/c1-9-4-5(2-3-6)7-8-9/h4H,2H2,1H3
