16
gdb 62362	2.36357	1.84961	1.20011	5.6314	73.66	-0.2604	-0.0137	0.2467	1019.829	0.123654	-400.72409	-400.716101	-400.715157	-400.756481	30.266	
C	-0.1383164239	 1.5569384557	-0.0090044195	-0.476018
C	 0.0105463947	 0.0317167616	 0.0080356031	 0.166727
C	-1.306576601	-0.5700047037	-0.208908165	 0.238598
N	-2.3587623723	-1.0166520448	-0.3820436359	-0.331697
C	 1.1981111844	-0.6539522282	-0.7901891851	-0.19522
C	 2.1496576029	-0.1613743738	 0.3549606559	-0.26731
C	 0.885044629	-0.6629784379	 1.1350762709	-0.195198
C	 0.9775458296	-1.8522542671	 0.1564354011	 0.458176
O	 0.9757585758	-3.0393018838	 0.1505761018	-0.307434
H	 0.8055218448	 2.0791495799	 0.1457952288	 0.133045
H	-0.5521199522	 1.8786553755	-0.9686952043	 0.148507
H	-0.8337038273	 1.8707032658	 0.7744087776	 0.148488
H	 1.3595664115	-0.6269645253	-1.8650830155	 0.111507
H	 3.0685214004	-0.7294469927	 0.5017049617	 0.132303
H	 2.3412934105	 0.9083546375	 0.3911649501	 0.124021
H	 0.697574343	-0.6460355789	 2.2059461343	 0.111504
124.5629	142.7722	168.4774	203.484	260.8781	370.8786	460.6795	470.9967	533.8269	546.5096	625.0547	703.7452	756.4261	767.4353	810.2493	882.1038	915.7645	938.2074	1015.4052	1044.4314	1059.3409	1090.0936	1102.3868	1130.8119	1161.3794	1198.394	1216.461	1217.1666	1240.1139	1414.9291	1485.8161	1489.9423	1530.1857	1936.1382	2351.3194	3055.6051	3100.7792	3119.8777	3145.5418	3156.2758	3158.613	3174.9501
CC1(C#N)C2CC1C2=O	C[C@@]1(C#N)[C@H]2C[C@@H]1C2=O	
InChI=1S/C7H7NO/c1-7(3-8)4-2-5(7)6(4)9/h4-5H,2H2,1H3	InChI=1S/C7H7NO/c1-7(3-8)4-2-5(7)6(4)9/h4-5H,2H2,1H3/t4-,5+,7+
