19
gdb 110885	2.57076	1.51806	1.27148	1.4965	71.58	-0.2348	0.077	0.3118	1086.7643	0.15786	-460.123995	-460.115271	-460.114327	-460.157712	32.182	
C	 0.2801068057	 0.852583814	-0.4030492171	-0.234445
O	-0.0993120609	-0.1076026465	 0.5706388205	-0.226796
C	-1.3488910073	-0.6426575505	 0.3373129639	 0.058793
C	-1.5461329412	-1.6894195259	-0.7561027609	-0.018012
O	-0.3593176792	-2.2272592818	-1.2777700094	-0.270058
C	 0.0961768268	-3.218409129	-0.3575953529	 0.240303
C	 1.605194388	-3.2296142735	-0.3026371153	-0.406974
O	-0.4409220158	-2.8731687243	 0.9159363982	-0.263028
C	-1.5832667874	-2.0960086245	 0.690286295	 0.000074
H	 1.2669593402	 1.2216855852	-0.1145237302	 0.127301
H	 0.3351678466	 0.4023942605	-1.401497796	 0.127919
H	-0.4222714572	 1.6989267171	-0.42812735	 0.104167
H	-2.1919996972	 0.0337076423	 0.5029801736	 0.084566
H	-2.3957821974	-1.6866709781	-1.4312043181	 0.101948
H	-0.3089818148	-4.1996382743	-0.6630967186	 0.071901
H	 1.9582366654	-2.249470251	 0.0239467956	 0.143333
H	 1.9449175628	-3.9913332882	 0.4038246036	 0.127579
H	 2.0129127647	-3.4589087448	-1.2905716035	 0.124778
H	-2.4710901818	-2.4121253967	 1.2276253115	 0.106653
67.2565	105.8228	153.9875	190.0622	230.0059	261.3062	320.0334	336.3387	492.2902	602.6737	655.3885	706.1435	761.9655	771.8384	796.934	846.7563	888.0709	959.3137	1028.8996	1084.4936	1086.534	1095.4524	1105.3973	1117.6144	1120.4827	1151.6256	1161.5369	1178.8918	1211.5591	1258.7298	1300.2387	1344.146	1372.1959	1390.9961	1415.6335	1430.2133	1481.5439	1484.0325	1488.506	1489.6226	1503.9557	2942.9376	2992.3438	3055.6045	3062.0694	3065.1999	3122.664	3132.4195	3148.6078	3155.7342	3166.4264
COC1C2OC(C)OC12	CO[C@H]1[C@H]2O[C@@H](C)O[C@@H]12	
InChI=1S/C6H10O3/c1-3-8-5-4(7-2)6(5)9-3/h3-6H,1-2H3	InChI=1S/C6H10O3/c1-3-8-5-4(7-2)6(5)9-3/h3-6H,1-2H3/t3-,4+,5-,6+
