18
gdb 102224	2.13605	1.21479	0.78536	4.3342	73.41	-0.2392	0.0006	0.2397	1411.9311	0.146638	-472.44822	-472.437981	-472.437037	-472.484116	35.997	
C	-0.8404387109	 1.2833716665	 0.7054442279	-0.334295
N	-0.5445244385	-0.1166219095	 0.453705396	-0.308296
C	 0.5173652041	-0.6337605507	 0.9463816149	 0.366057
C	 1.5374295493	 0.1302449579	 1.7973819386	-0.166732
O	 2.5389476325	-0.6860339444	 2.3773125265	-0.411065
N	 0.866183028	-1.9473881995	 0.7466018952	-0.38251
C	 0.230607242	-2.9795863608	 0.0177365225	 0.449427
N	-0.9556746158	-2.6347959887	-0.5302378431	-0.547189
O	 0.7639077851	-4.0699567616	-0.0540514862	-0.401343
H	-0.0443509824	 1.9607740501	 0.3636075933	 0.117406
H	-1.7512190275	 1.5537308164	 0.1656545212	 0.128913
H	-1.0186749221	 1.4960675148	 1.770249962	 0.116533
H	 2.055749924	 0.8489377269	 1.1523517922	 0.150616
H	 1.000292792	 0.7143377639	 2.5550155427	 0.126111
H	 2.1776202986	-1.0925557609	 3.171736456	 0.299644
H	 1.7572984912	-2.2254757564	 1.1321548557	 0.263709
H	-1.2712704764	-1.6711841967	-0.4554877892	 0.27424
H	-1.4149572033	-3.3249356872	-1.0973463162	 0.258773
66.9952	82.0454	94.5302	115.8148	179.158	225.6501	252.1645	320.3521	336.2775	344.8818	417.7699	499.1462	549.515	590.5476	650.3046	687.3255	738.874	782.065	864.3712	972.4948	985.7829	1079.9564	1104.0077	1110.7521	1140.4618	1173.7807	1210.1265	1274.175	1373.3782	1377.7462	1399.1198	1446.113	1476.247	1490.2699	1507.3744	1509.9378	1599.1685	1718.1205	1823.7198	2980.2494	3025.4927	3028.807	3073.4127	3101.2967	3435.933	3614.0567	3714.9251	3821.9145
CN=C(CO)NC(N)=O	CN=C(CO)NC(=O)N	
InChI=1S/C4H9N3O2/c1-6-3(2-8)7-4(5)9/h8H,2H2,1H3,(H3,5,6,7,9)	InChI=1S/C4H9N3O2/c1-6-3(2-8)7-4(5)9/h8H,2H2,1H3,(H3,5,6,7,9)
