19
gdb 58764	3.169	1.45882	1.23053	2.0903	74.64	-0.2423	-0.0051	0.2372	1066.5224	0.158772	-422.97895	-422.970848	-422.969904	-423.011356	32.396	
C	-0.0074516259	 1.578631641	 0.1543159631	-0.403845
C	 0.0122585833	 0.0505859966	 0.0399947154	 0.000043
O	 0.700228322	-0.5406692324	 1.1336389343	-0.434428
C	-1.3832011298	-0.528081129	-0.0459261889	 0.376999
C	-1.704127342	-2.0574127502	 0.0337295305	-0.26023
C	-2.9916502027	-1.4085612503	 0.6156107524	 0.009211
O	-2.1345789229	-0.3833667887	 1.2242957385	-0.3373
C	-3.5402750215	-0.6572594928	-0.6130826261	-0.088742
C	-2.4396583388	-0.0555481448	-1.0673225632	-0.129448
H	 1.0100749865	 1.9463493619	 0.3067724576	 0.123731
H	-0.4155345494	 2.0438145166	-0.7487895767	 0.111386
H	-0.6244127533	 1.8872833998	 1.0038867175	 0.131844
H	 0.5670233135	-0.2459969676	-0.859273179	 0.090878
H	 0.083484206	-0.5125992315	 1.8769290258	 0.286834
H	-1.7782330492	-2.6225348301	-0.8970049236	 0.098394
H	-1.0982327519	-2.568285795	 0.7838882322	 0.113067
H	-3.669536513	-1.9024873813	 1.3098754841	 0.083456
H	-4.5552494068	-0.6532556049	-0.9821584798	 0.114151
H	-2.2818028041	 0.5884675726	-1.919611444	 0.114
79.6677	174.8712	192.417	239.8452	340.5116	390.0549	442.542	463.2915	504.315	538.5629	621.0914	659.5513	706.5733	755.8584	832.5812	865.9202	879.6608	897.2782	902.3306	911.1527	969.7771	988.3737	1037.2014	1049.0242	1073.1588	1106.1939	1115.585	1133.6664	1199.6631	1235.4929	1259.1219	1265.0288	1302.9286	1324.9672	1367.5618	1400.9363	1435.2268	1490.8713	1491.7319	1497.9148	1616.0024	3034.8236	3040.5243	3073.7849	3111.9247	3127.8474	3137.9709	3148.7188	3231.4384	3258.5239	3768.9661
CC(O)C12CC(O1)C=C2	C[C@@H](O)[C@@]12C[C@@H](O1)C=C2	
InChI=1S/C7H10O2/c1-5(8)7-3-2-6(4-7)9-7/h2-3,5-6,8H,4H2,1H3	InChI=1S/C7H10O2/c1-5(8)7-3-2-6(4-7)9-7/h2-3,5-6,8H,4H2,1H3/t5-,6+,7-/m1/s1
