19
gdb 107192	2.97	1.20266	1.13992	2.4876	75.25	-0.2095	0.0657	0.2752	1164.909	0.158529	-422.935753	-422.927213	-422.926268	-422.96886	33.291	
O	 0.1726778643	 1.3754963793	 0.1043639126	-0.416721
C	 0.0494262358	-0.0252857162	-0.1143395976	-0.160029
C	-1.3651127209	-0.5019185767	-0.0089214793	 0.318669
C	-1.980213101	-1.0020461789	 1.2788668618	-0.363908
C	-1.8926959324	-1.9209352283	 0.0834956296	-0.129088
C	-2.909632556	-1.6398992377	-1.0515954145	-0.135513
C	-3.8301779599	-0.4660703947	-0.8682684837	 0.088284
O	-4.5207337	-0.0819005489	 0.2905496646	-0.417257
C	-2.3924946099	-0.1776920965	-1.1305622742	-0.151263
H	-0.2765030331	 1.5719581111	 0.9335870723	 0.282157
H	 0.4427331642	-0.1931142915	-1.1241276853	 0.104937
H	 0.680218754	-0.6020594806	 0.5822784221	 0.081814
H	-1.2426182216	-1.2333552362	 2.0445230483	 0.102649
H	-2.9225545414	-0.6231448119	 1.644082371	 0.140709
H	-1.3140959143	-2.8357530919	 0.1093408157	 0.091416
H	-3.0542672729	-2.3426685996	-1.8638997138	 0.087385
H	-4.4178662034	-0.3031694532	-1.7762808279	 0.0938
H	-5.2075011262	-0.7390383045	 0.4492219275	 0.285572
H	-2.0843623352	 0.3851329169	-2.0037365193	 0.096388
87.4562	95.8985	226.3459	252.6117	290.4141	299.8715	344.1767	405.8011	427.1122	532.4747	633.18	662.3803	705.5861	718.3647	804.0325	863.1241	896.075	930.7072	947.6228	970.3328	973.2694	997.5776	1031.3585	1040.8702	1058.7792	1073.1624	1093.6236	1124.8347	1181.949	1219.3903	1251.7059	1260.9507	1290.9382	1304.9684	1342.7966	1364.7924	1393.388	1426.5067	1469.3135	1482.6114	1502.7416	2967.3281	3051.8045	3060.0315	3122.0582	3171.2871	3182.2807	3190.7437	3254.892	3800.0652	3806.6512
OCC12CC1C1C(O)C21	OC[C@]12C[C@H]1[C@H]1[C@@H](O)[C@@H]21	
InChI=1S/C7H10O2/c8-2-7-1-3(7)4-5(7)6(4)9/h3-6,8-9H,1-2H2	InChI=1S/C7H10O2/c8-2-7-1-3(7)4-5(7)6(4)9/h3-6,8-9H,1-2H2/t3-,4+,5-,6+,7+/m0/s1
