21
gdb 96007	2.97806	1.26338	1.05457	2.0169	77.25	-0.243	0.0801	0.3231	1205.8324	0.182988	-424.209406	-424.200442	-424.199498	-424.243937	33.024	
C	 0.4645937576	 1.442150324	-0.3546067451	-0.394571
C	-0.0371608061	 0.072144986	 0.1090580742	 0.105273
O	 0.0937982653	-0.9081817099	-0.916876811	-0.265712
C	 1.3759581882	-1.5280240703	-0.817034944	-0.080392
C	 1.9214365079	-1.2342935706	 0.5993422804	-0.274524
C	 0.7364670185	-0.5443254506	 1.3022789754	-0.015015
C	 1.0904180711	 0.4243846531	 2.4070238212	 0.058393
C	 2.2682641648	 0.2779775951	 3.2719189833	-0.185258
O	 2.2388592933	 1.2611807236	 2.2342436016	-0.228687
H	 1.5408567847	 1.4380322411	-0.5480521984	 0.126153
H	-0.0517334907	 1.720815641	-1.2773144707	 0.119136
H	 0.2675935685	 2.2106604124	 0.3989552423	 0.119029
H	-1.1087760701	 0.1400747759	 0.3297622169	 0.077422
H	 1.2376411871	-2.5993133057	-0.9989767338	 0.103267
H	 2.0510397813	-1.1428920363	-1.5934022945	 0.096799
H	 2.2353689935	-2.1454003381	 1.1136367573	 0.103418
H	 2.7774487798	-0.5559133579	 0.5636043894	 0.127442
H	 0.0837529653	-1.3093220902	 1.7419829346	 0.084374
H	 0.2342626161	 0.9523684297	 2.832708728	 0.092047
H	 2.2459606866	 0.6711870605	 4.287210096	 0.115779
H	 2.9581511275	-0.5483129929	 3.1098672772	 0.115626
42.7517	96.9762	111.3643	184.0893	218.5037	239.3372	324.4116	383.5943	437.4129	602.9656	636.6267	714.9757	778.2298	820.1615	856.4512	878.7003	898.3932	940.6579	969.659	995.5337	1021.0843	1054.5222	1078.9784	1089.9576	1123.1986	1149.4657	1155.8348	1166.5862	1178.2373	1224.7438	1242.0468	1284.7402	1298.6299	1314.0845	1320.3249	1371.4383	1382.2638	1399.8402	1412.7344	1435.729	1484.2094	1491.4463	1506.7372	1530.2377	1535.057	3005.6823	3022.0174	3041.0995	3044.9394	3055.31	3068.2544	3083.5311	3089.4235	3114.3046	3117.1782	3123.7059	3174.2044
CC1OCCC1C1CO1	C[C@H]1OCC[C@H]1[C@H]1CO1	
InChI=1S/C7H12O2/c1-5-6(2-3-8-5)7-4-9-7/h5-7H,2-4H2,1H3	InChI=1S/C7H12O2/c1-5-6(2-3-8-5)7-4-9-7/h5-7H,2-4H2,1H3/t5-,6-,7-/m1/s1
