17
gdb 78756	2.97019	1.60625	1.23602	1.4218	66.93	-0.2334	0.06	0.2934	1003.1768	0.13611	-458.913432	-458.905887	-458.904943	-458.944987	30.166	
O	-0.1147417651	 1.4012876097	-0.00189141	-0.434304
C	-0.0126076138	-0.0084635931	 0.0284691254	 0.091081
C	-1.4117955142	-0.5997079566	-0.0428153363	-0.153013
C	-1.264297103	-0.8664439934	-1.5439420456	-0.127457
C	 0.2564950936	-0.6420841901	-1.3836235297	 0.026754
O	 0.877693154	-1.9177234155	-1.2787806029	-0.264805
C	-0.0472841627	-2.779021772	-0.6097676424	-0.151992
C	-1.3740800651	-2.0186987662	-0.6040737242	 0.361098
O	-2.5581266811	-2.7470577192	-0.5883681041	-0.471939
H	 0.7763594514	 1.7585122376	-0.079617119	 0.28355
H	 0.6604460654	-0.3466236194	 0.8304723471	 0.064473
H	-2.2819988085	-0.2440563681	 0.4966009214	 0.094236
H	-1.9224501873	-0.6712719267	-2.3784908806	 0.102334
H	 0.8053894035	-0.0275750447	-2.0965643303	 0.084798
H	-0.1569560103	-3.7116677698	-1.1754922424	 0.112748
H	 0.319571	-3.0222796314	 0.3974412009	 0.092993
H	-2.7556161867	-2.9842001111	 0.3239378327	 0.289446
160.4615	232.6966	261.0513	293.4877	310.5515	337.4534	385.6154	416.1451	493.034	586.1548	689.9467	761.4597	810.5924	865.5473	875.1635	933.8102	955.6352	961.3403	982.8191	998.4119	1052.2488	1065.5188	1082.2405	1108.0301	1150.2846	1191.0125	1200.362	1208.4991	1240.1665	1264.532	1292.5377	1309.8832	1323.3971	1359.6717	1429.4014	1445.1762	1524.3859	2986.5087	3001.3535	3055.2773	3126.7945	3185.269	3220.3979	3803.8487	3807.0227
OC1C2C3C1OCC23O	O[C@H]1[C@H]2[C@H]3[C@@H]1OC[C@@]23O	
InChI=1S/C6H8O3/c7-4-2-3-5(4)9-1-6(2,3)8/h2-5,7-8H,1H2	InChI=1S/C6H8O3/c7-4-2-3-5(4)9-1-6(2,3)8/h2-5,7-8H,1H2/t2-,3+,4+,5+,6-/m1/s1
