19
gdb 73675	2.20808	1.95046	1.44137	1.9479	75.3	-0.238	0.008	0.246	985.9069	0.160893	-423.043537	-423.035824	-423.034879	-423.075849	30.665	
O	 0.198969419	 1.4046518109	-0.1790302081	-0.482684
C	 0.0951037988	-0.0077390001	-0.0288400226	 0.359474
C	 0.6460601525	-0.6658992143	-1.3036328561	-0.264799
C	-0.2166472736	-1.9192408038	-1.431081729	-0.088199
O	-1.5132406532	-1.5276880808	-0.9853719358	-0.264787
C	-1.374848133	-0.5586332148	 0.0499786391	 0.05761
C	-1.5405124992	-1.1731090035	 1.4635804933	-0.288214
C	-0.1567244926	-1.0998931558	 2.059239869	-0.070055
C	 0.7172337819	-0.4896815077	 1.2589218701	-0.161174
H	 0.0021344569	 1.8032616111	 0.6755936806	 0.273277
H	 0.4679767917	 0.0153771642	-2.1408588425	 0.11935
H	 1.7165056092	-0.8778823127	-1.2458757432	 0.101228
H	-0.3127805105	-2.2860838434	-2.4565177909	 0.109361
H	 0.1804421077	-2.7378389336	-0.8101222117	 0.091441
H	-2.1013447374	 0.2357024315	-0.1439438029	 0.082044
H	-2.2721197718	-0.6307892818	 2.0765876118	 0.105217
H	-1.9106159556	-2.2005585946	 1.3752009632	 0.122994
H	 0.0769930243	-1.5044067314	 3.0391827365	 0.099732
H	 1.7667935051	-0.3187971393	 1.4747769391	 0.098183
56.5422	173.2675	242.1251	301.2223	330.5173	392.563	445.9576	454.7872	593.11	615.258	642.3759	744.3589	762.7633	833.0552	852.4005	893.0733	945.098	957.8156	982.5532	996.2638	1009.9167	1026.5523	1067.7151	1084.5189	1108.1365	1156.062	1157.8406	1191.1638	1231.6169	1247.4101	1264.5048	1313.3886	1315.7565	1352.6687	1359.0598	1385.7984	1407.1888	1472.0446	1481.94	1518.1332	1679.1667	2978.2886	3022.8976	3060.9578	3064.1889	3070.9477	3089.4168	3115.6079	3172.5095	3198.3953	3805.098
OC12CCOC1CC=C2	O[C@]12CCO[C@H]1CC=C2	
InChI=1S/C7H10O2/c8-7-3-1-2-6(7)9-5-4-7/h1,3,6,8H,2,4-5H2	InChI=1S/C7H10O2/c8-7-3-1-2-6(7)9-5-4-7/h1,3,6,8H,2,4-5H2/t6-,7+/m0/s1
