12
gdb 11147	6.12677	1.39068	1.1414	2.5729	64.29	-0.258	-0.0701	0.1879	950.015	0.085342	-373.731295	-373.724438	-373.723494	-373.7626	24.631	
N	-0.0610520473	 1.2926374995	 0.0073518603	-0.541192
C	 0.001533626	 0.0285067463	 0.0005804326	 0.385549
C	-1.1783463312	-0.9419875704	 0.0023806339	-0.244066
N	-0.6180145814	-2.2991872852	-0.0077695464	-0.288216
C	 0.6516416192	-2.1406969674	-0.0141880746	 0.297262
N	 1.1104684769	-0.8297111439	-0.0100917291	-0.386639
C	 1.6013888856	-3.2178863458	-0.0251310306	 0.264608
N	 2.4019016125	-4.0509228382	-0.0339738683	-0.307295
H	 0.8604533041	 1.7314994613	 0.0043322975	 0.217911
H	-1.8088830772	-0.8013103098	 0.8865990685	 0.163237
H	-1.8189815398	-0.7923122789	-0.873056241	 0.163236
H	 2.0769860926	-0.5484025775	-0.0142831328	 0.275605
94.4546	156.1032	183.1537	353.2856	418.2794	422.1658	529.953	541.3826	586.0033	684.636	725.2555	856.8144	889.1984	976.3079	976.4408	1036.1926	1080.7449	1181.0115	1211.9457	1279.7438	1311.1513	1441.4369	1443.6084	1662.4481	1773.3376	2367.9297	3057.2215	3090.2676	3469.2577	3661.0949
N=C1CN=C(N1)C#N	[NH][C]1CN=C(N1)C#N	
InChI=1S/C4H4N4/c5-1-4-7-2-3(6)8-4/h2H2,(H2,6,7,8)	InChI=1S/C4H4N4/c5-1-4-7-2-3(6)8-4/h2H2,(H2,6,7,8)
