17
gdb 30671	4.10587	0.94705	0.91525	1.7839	70.33	-0.2384	0.0025	0.2409	1309.6497	0.137121	-455.15948	-455.150684	-455.14974	-455.194542	31.455	
N	-0.3237671386	 1.3105389736	 0.0907799096	-0.525227
C	 0.0272965354	-0.1113861008	-0.0231862554	-0.081467
C	 0.8037797305	-0.45798816	-1.303918117	-0.089455
O	-0.0047210083	-0.0347272041	-2.3923925132	-0.424696
C	 0.8110524227	-0.5288104572	 1.1799941302	 0.413064
N	 2.0481098668	-0.2498371953	 1.4530420213	-0.31152
C	 2.2744499871	-0.8344427979	 2.6925422629	-0.114719
C	 1.1406147487	-1.4471491994	 3.1027694457	-0.044142
O	 0.1907742902	-1.25955393	 2.138831841	-0.169065
H	 0.5326310751	 1.8445015612	 0.2214418366	 0.232236
H	-0.7096352583	 1.5993271115	-0.8051046194	 0.240099
H	-0.9072183927	-0.683365466	-0.0309404799	 0.110841
H	 1.7724759043	 0.0607124208	-1.2854549793	 0.108518
H	 0.9986936675	-1.5410351982	-1.345029069	 0.091616
H	 0.5149403035	-0.0920769736	-3.1986823554	 0.292403
H	 3.2298871356	-0.7705056823	 3.1881757655	 0.124811
H	 0.8454847906	-2.0162891424	 3.9669789858	 0.146703
16.9405	113.9616	124.7037	207.7678	225.1921	291.1738	327.7116	367.9287	398.9274	515.641	634.0913	757.0928	772.2945	781.9502	864.8886	875.7902	934.2469	943.1895	971.8382	1050.1106	1079.2243	1108.2605	1130.8715	1138.1759	1168.9516	1191.1951	1207.5596	1248.7594	1283.1413	1343.122	1379.4467	1436.1529	1457.4529	1513.9692	1549.809	1609.1546	1657.5295	2979.7089	3028.0323	3061.815	3265.0367	3302.7965	3474.0706	3556.5654	3842.9422
NC(CO)C1=NC=CO1	N[C@@H](CO)c1ncco1	
InChI=1S/C5H8N2O2/c6-4(3-8)5-7-1-2-9-5/h1-2,4,8H,3,6H2	InChI=1S/C5H8N2O2/c6-4(3-8)5-7-1-2-9-5/h1-2,4,8H,3,6H2/t4-/m0/s1
