18
gdb 42847	2.62382	1.87725	1.59838	3.4947	73.94	-0.2405	-0.0115	0.229	916.5878	0.150529	-401.916534	-401.909767	-401.908823	-401.947596	27.693	
O	 0.1808812741	-0.0008243196	 0.1092475577	-0.327413
C	 0.07913051	 1.1845168313	 0.0624020102	 0.473248
C	-1.0432553171	 2.2435767356	 0.0564694456	-0.134068
N	-0.0879827837	 2.9972963634	 0.9471372019	-0.327069
C	 1.0032867991	 2.4202267838	 0.0810839601	-0.134068
C	 0.7271095772	 3.0237442788	-1.3208810108	-0.027623
C	 0.8154716141	 2.0980908036	-2.5721804519	-0.24575
C	-0.7397409087	 1.9638562141	-2.5908879144	-0.245749
C	-0.8411744828	 2.8883769809	-1.3397420563	-0.027623
H	-2.0507088814	 2.0535008416	 0.4232123131	 0.090161
H	-0.1737705181	 4.0079692479	 0.8265850578	 0.21897
H	 2.0193630298	 2.4048149383	 0.4721636956	 0.090161
H	 1.1645306606	 4.0189749675	-1.4275405527	 0.074126
H	 1.224643862	 2.5926728838	-3.4552833517	 0.103787
H	 1.3658825825	 1.1667145006	-2.4174068297	 0.120499
H	-1.2063913313	 2.3828545645	-3.4845222526	 0.103787
H	-1.1259859908	 0.9516349283	-2.4473911681	 0.120498
H	-1.4399686554	 3.7941658957	-1.458861894	 0.074126
137.9781	144.5909	312.0565	328.9425	451.5069	486.1617	618.0365	628.5611	739.4966	756.6325	795.9794	822.0935	832.4209	848.7267	870.7105	920.4726	958.8317	982.1389	1006.4756	1012.5951	1034.0276	1053.7766	1068.8824	1120.0969	1133.2685	1155.0207	1203.043	1224.2851	1240.8108	1248.9198	1259.4371	1276.8968	1282.7339	1294.9237	1330.2675	1345.0609	1479.8235	1497.1482	1928.5085	3064.7958	3069.1277	3072.4838	3084.11	3109.525	3127.4885	3137.0021	3139.5354	3439.3127
O=C1C2NC1C1CCC21	O=C1[C@H]2N[C@@H]1[C@H]1CC[C@@H]21	
InChI=1S/C7H9NO/c9-7-5-3-1-2-4(3)6(7)8-5/h3-6,8H,1-2H2	InChI=1S/C7H9NO/c9-7-5-3-1-2-4(3)6(7)8-5/h3-6,8H,1-2H2/t3-,4+,5+,6-
