18
gdb 50166	3.28586	1.5315	1.29677	2.404	78.36	-0.2161	-0.0276	0.1885	1008.832	0.147033	-401.814019	-401.806656	-401.805711	-401.845874	29.298	
O	-0.6401272674	 0.6132018625	 0.5030228649	-0.251661
C	 0.1194708755	 0.9909104124	-0.352258944	 0.152822
C	 1.2655603565	 1.9543503719	-0.1827215598	-0.079932
C	 1.2257398347	 3.3279035031	-0.9932942108	-0.366581
C	 1.0126359011	 3.9431955409	 0.403997358	 0.290811
C	 1.4565248846	 4.7516974757	 1.6573382683	-0.278093
C	 0.7176361325	 3.4175946113	 2.1197305747	-0.010725
C	-0.3798411186	 3.7319050793	 1.0958481628	-0.258325
N	 1.601465754	 2.732779394	 1.0677465015	-0.151039
H	 0.0656056978	 0.5810676474	-1.3903780132	 0.076162
H	 2.1467871521	 1.3525511241	-0.4506438079	 0.114863
H	 2.1911418847	 3.5465961105	-1.4524820043	 0.126786
H	 0.4223465197	 3.4700792167	-1.71890319	 0.115891
H	 2.5308757717	 4.7762015644	 1.8368490251	 0.11277
H	 0.9504350325	 5.6905568286	 1.8925000099	 0.09832
H	 0.6227144696	 3.0454022777	 3.1415606045	 0.092832
H	-0.9832874954	 4.6268447233	 1.2718010787	 0.089356
H	-0.9913268458	 2.8953531362	 0.7705886415	 0.125744
86.1051	152.0861	212.1239	319.3063	346.5913	434.4432	524.8305	564.5819	643.7552	698.028	724.488	766.7273	842.9827	849.684	863.7577	883.0416	926.0729	949.205	993.9253	1002.0583	1023.8051	1079.759	1084.4927	1112.0527	1125.1831	1134.6539	1173.3963	1186.7667	1192.1028	1211.7696	1223.462	1247.9728	1275.2016	1329.9119	1417.1018	1474.2272	1476.5685	1529.5173	1822.0674	2834.2374	3002.2341	3061.6752	3073.804	3075.354	3097.4933	3138.74	3163.2032	3189.3414
O=CC1CC23CC(C2)N13	O=C[C@H]1C[C@@]23C[C@@H](C2)N13	
InChI=1S/C7H9NO/c9-4-6-3-7-1-5(2-7)8(6)7/h4-6H,1-3H2	InChI=1S/C7H9NO/c9-4-6-3-7-1-5(2-7)8(6)7/h4-6H,1-3H2/t5-,6-,7+/m1/s1
