16
gdb 75097	3.02405	1.42833	1.00046	3.4129	74.48	-0.2736	-0.0566	0.217	1147.4532	0.124302	-437.95026	-437.942065	-437.941121	-437.983572	30.101	
C	 0.0447323331	 1.485191957	 0.4031894514	-0.47385
C	-0.0308882504	 0.0277106525	 0.0486403121	 0.148366
C	-1.1474308753	-0.7059486299	 0.0722297768	-0.153135
C	-1.1792425112	-2.1486155848	-0.31965427	-0.34661
C	 0.1849712565	-2.7839187129	-0.3568999675	 0.387269
N	 0.3526491407	-4.022414433	-0.2015416029	-0.488195
O	 1.2573273536	-1.9522191383	-0.6223840195	-0.239184
C	 1.2394264773	-0.5868669224	-0.4037997847	 0.388132
O	 2.2545159339	 0.0232173251	-0.5934259027	-0.308753
H	 0.7492684302	 1.6511280017	 1.2244565283	 0.146717
H	 0.4140236908	 2.0712075477	-0.4438144327	 0.15065
H	-0.9360352623	 1.8652698542	 0.6983737747	 0.121134
H	-2.0915021248	-0.2492219798	 0.3579170918	 0.116156
H	-1.807041363	-2.739429109	 0.3526224597	 0.158616
H	-1.6398566195	-2.2475783584	-1.3146629409	 0.157415
H	 1.34178416	-4.2641820197	-0.2870562539	 0.235273
52.7834	120.6809	154.9447	240.964	292.7359	357.7932	376.0785	436.086	517.5651	536.6366	578.1642	694.8195	755.3364	762.1068	862.1867	915.5562	929.4736	968.9844	987.7922	1072.7052	1076.0165	1096.7205	1115.1334	1195.1194	1216.1421	1329.5464	1362.343	1379.5884	1418.7007	1450.2609	1470.9724	1487.4971	1729.6714	1765.3319	1839.8076	3001.4373	3044.5944	3095.6795	3103.6741	3129.2427	3166.312	3474.8711
CC1=CCC(=N)OC1=O	CC1=CC[C]([NH])OC1=O	
InChI=1S/C6H7NO2/c1-4-2-3-5(7)9-6(4)8/h2,7H,3H2,1H3	InChI=1S/C6H7NO2/c1-4-2-3-5(7)9-6(4)8/h2,7H,3H2,1H3
