16
gdb 47974	5.85834	0.68872	0.67959	2.2501	83.67	-0.2545	-0.0705	0.184	1629.284	0.124275	-400.640924	-400.632795	-400.63185	-400.675979	28.919	
O	-0.0843594587	-0.0391341725	 0.0091665985	-0.223628
C	-0.0093473744	 1.1680361809	 0.0115698413	-0.011721
C	 1.22718817	 1.9072703863	 0.0057055577	 0.370857
C	 2.2480013957	 2.5555424754	 0.0004934265	-0.434326
C	 3.4750203737	 3.3040429437	-0.0028362021	 0.262506
C	 4.6481006633	 3.2632288113	-1.021528293	-0.197762
N	 5.150184821	 4.299992219	-0.0036040324	-0.160982
C	 3.7109604447	 4.8386063694	-0.0409003	-0.200676
C	 4.6157243443	 3.3199195256	 1.0529837969	-0.197619
H	-0.9174405113	 1.8046136629	 0.0188375907	 0.102009
H	 5.2521678897	 2.3541279664	-1.0615804181	 0.117329
H	 4.4658282243	 3.6744792781	-2.0170265514	 0.114751
H	 3.4626304729	 5.3670451757	-0.9643356681	 0.113595
H	 3.4341334715	 5.4166783257	 0.8438443231	 0.11354
H	 4.4024534331	 3.7845517931	 2.018394262	 0.114746
H	 5.2174405803	 2.414777769	 1.1612996083	 0.117382
16.1081	77.4465	95.4809	205.802	273.6994	388.7404	477.4584	518.8437	597.167	597.9073	685.308	789.5528	791.6159	859.8501	940.499	980.9135	990.345	992.975	1021.678	1022.3485	1026.3968	1133.8865	1134.7703	1165.9438	1166.415	1200.8472	1201.8589	1286.3173	1310.3242	1422.0239	1510.3255	1511.5584	1562.4081	1766.7944	2317.5794	2920.0194	3058.5204	3060.3749	3067.9943	3129.78	3135.5854	3137.1337
O=CC#CC12CN(C1)C2	O=CC#C[C@@]12CN(C1)C2	
InChI=1S/C7H7NO/c9-3-1-2-7-4-8(5-7)6-7/h3H,4-6H2	InChI=1S/C7H7NO/c9-3-1-2-7-4-8(5-7)6-7/h3H,4-6H2
