23
gdb 86464	1.85226	1.61954	0.92493	1.5293	83.16	-0.2535	0.0925	0.3461	1350.6053	0.204922	-425.458198	-425.448582	-425.447638	-425.491998	37.026	
C	-0.0070877673	 1.5381095717	 0.1020472524	-0.403374
C	 0.0411339757	 0.0220557678	 0.0044993607	 0.126675
C	 0.7322411039	-0.4925332861	-1.2639735066	-0.20003
C	 0.9112360556	-2.0131711539	-1.1799113195	 0.126668
C	 1.7585107173	-2.5917690895	-2.3013411229	-0.403375
O	 1.5465907911	-2.3495336878	 0.0524488599	-0.263112
C	 0.8433909768	-1.8619748881	 1.1708658357	 0.223294
C	 1.5939213157	-2.268475847	 2.4207183367	-0.408128
O	 0.7378007171	-0.4578325281	 1.1533569031	-0.263119
H	 1.0054589565	 1.9529306538	 0.0902894833	 0.124931
H	-0.5659421498	 1.9594417606	-0.7392181761	 0.112682
H	-0.4923418442	 1.845157101	 1.0325455756	 0.123184
H	-0.9888015298	-0.3787371095	 0.0279918383	 0.060361
H	 0.1440348561	-0.2281687174	-2.150327186	 0.09309
H	 1.7170794148	-0.0187157697	-1.3546801856	 0.102656
H	-0.0887949424	-2.4839066488	-1.1970883665	 0.060364
H	 2.7570656218	-2.1442197388	-2.2940413188	 0.124931
H	 1.866714119	-3.6728918936	-2.1786945319	 0.123184
H	 1.2955821815	-2.3947907204	-3.2731761548	 0.112683
H	-0.1790432073	-2.2918733022	 1.1584141002	 0.047146
H	 2.5950629766	-1.8309563308	 2.4028432938	 0.13287
H	 1.0647214914	-1.9108621527	 3.3068076598	 0.123218
H	 1.6814362097	-3.3562949106	 2.466438769	 0.123202
142.562	154.7588	165.9719	207.858	230.7482	231.9336	251.7279	255.8502	407.6086	445.5178	450.6212	474.5712	504.9095	527.7654	659.3513	836.8121	843.4458	871.5994	920.8133	927.8427	963.1436	984.2166	1008.5104	1073.7069	1113.9584	1118.026	1135.328	1154.9498	1189.1252	1196.5516	1208.148	1249.5093	1291.9329	1350.6263	1362.6413	1384.5576	1394.8317	1400.0855	1407.0302	1409.9337	1423.3139	1442.7854	1467.1093	1482.0381	1482.8051	1484.3807	1489.2379	1500.327	1501.2193	2892.1259	2930.75	2941.0648	3030.1106	3041.3356	3042.6186	3057.6162	3080.7851	3115.6937	3116.4714	3119.9116	3120.1919	3139.1359	3140.3781
CC1CC(C)OC(C)O1	C[C@H]1C[C@@H](C)O[C@@H](C)O1	
InChI=1S/C7H14O2/c1-5-4-6(2)9-7(3)8-5/h5-7H,4H2,1-3H3	InChI=1S/C7H14O2/c1-5-4-6(2)9-7(3)8-5/h5-7H,4H2,1-3H3/t5-,6+,7-
