16
gdb 128828	4.99502	0.8525	0.75979	2.0566	68.73	-0.2445	0.0018	0.2463	1477.2805	0.124247	-471.197729	-471.188961	-471.188017	-471.232013	30.967	
C	 0.0507148653	 1.2839828388	 0.133348367	-0.220258
O	-0.0002631956	-0.1229101982	 0.0883880844	-0.229805
C	-1.3183237998	-0.6082316829	-0.0321239339	-0.173161
C	-1.2855265902	-2.1021013879	 0.00107479	 0.370317
N	-1.6825756049	-2.8043679671	-1.0261541457	-0.190716
O	-1.5097596039	-4.1409370326	-0.5785237972	-0.208326
C	-1.0250351271	-4.0460418959	 0.66495514	 0.493428
N	-0.8111329534	-5.1991196219	 1.3474548946	-0.59523
N	-0.8626026195	-2.8233226562	 1.0907479985	-0.371576
H	 1.1013996996	 1.5662607243	 0.230465993	 0.131017
H	-0.3575002612	 1.7385215233	-0.783268896	 0.106459
H	-0.5079045196	 1.6850906606	 0.993927965	 0.106192
H	-1.9430334503	-0.2450328871	 0.8009118856	 0.106944
H	-1.784521769	-0.2832510956	-0.9741595234	 0.115519
H	-0.6881824905	-6.0351349433	 0.798906774	 0.277064
H	-0.2184899899	-5.1125366983	 2.157433924	 0.282134
61.0039	82.9897	106.3283	227.8109	246.5613	304.3374	345.9387	374.0264	410.8162	456.5255	479.3112	669.0384	737.5878	770.1201	836.8176	900.6951	990.4858	1005.0103	1027.2177	1055.5352	1126.1057	1158.6118	1183.8848	1225.4936	1254.0929	1367.7519	1403.1324	1463.1983	1480.5617	1485.5446	1497.3421	1517.6321	1582.4747	1609.1313	1687.0412	2964.3995	2974.4422	3013.7406	3018.7768	3119.834	3600.82	3716.0082
COCC1=NOC(N)=N1	COCc1noc(N)n1	
InChI=1S/C4H7N3O2/c1-8-2-3-6-4(5)9-7-3/h2H2,1H3,(H2,5,6,7)	InChI=1S/C4H7N3O2/c1-8-2-3-6-4(5)9-7-3/h2H2,1H3,(H2,5,6,7)
