22
gdb 59487	2.39838	1.14631	0.84928	1.4166	88.7	-0.2296	0.044	0.2736	1426.9924	0.191345	-367.147936	-367.137597	-367.136653	-367.183283	38.581	
C	 0.6148917315	 1.0902996059	 0.4370908944	-0.385594
C	 0.1333792737	-0.3274199633	 0.7848211767	 0.007595
C	 0.2395898104	-0.5922892758	 2.2942992418	-0.400164
C	-1.2950082338	-0.5108016092	 0.2951256737	 0.042751
C	-1.5963515064	-0.818773733	-1.1323265751	-0.268608
N	-1.9085735076	-1.7897245251	-0.0871643482	-0.094877
C	-1.1292417707	-3.0279543688	-0.0953520182	-0.316317
C	-1.2260035509	-3.7492512617	 1.1719797987	 0.331806
C	-1.296474663	-4.3620419071	 2.2032722875	-0.44165
H	 1.6404227615	 1.2502416725	 0.7853173143	 0.111788
H	 0.5890432933	 1.2689968486	-0.6422353293	 0.113533
H	-0.0185272229	 1.8460820737	 0.9162182717	 0.115161
H	 0.7859706669	-1.036087969	 0.2600143928	 0.071377
H	-0.3928301791	 0.1078978628	 2.8530480984	 0.111586
H	-0.0794941495	-1.6069183582	 2.5456750911	 0.138133
H	 1.2693175331	-0.4584845709	 2.6419094084	 0.107117
H	-2.003701952	 0.1276904086	 0.8246851459	 0.088224
H	-2.4471780877	-0.3774845108	-1.6451231288	 0.11402
H	-0.7398765925	-1.0246937689	-1.7759274064	 0.102474
H	-1.5441685825	-3.6565362585	-0.8937386165	 0.137218
H	-0.0656689532	-2.8805952393	-0.347104596	 0.116311
H	-1.3638069185	-4.9013393125	 3.1155371729	 0.198117
50.7385	85.1636	140.866	181.0902	222.9311	238.4796	252.694	327.6894	335.1445	351.0024	368.3318	466.7183	509.7993	539.1148	608.8691	656.5325	758.7904	805.1719	890.064	931.3879	945.4764	957.7337	967.1684	977.6682	1023.4179	1050.058	1089.9052	1120.4034	1146.6392	1170.5637	1187.3207	1210.6412	1261.0114	1306.7628	1331.5029	1338.1393	1373.0538	1399.2197	1418.0187	1432.8642	1479.9467	1488.3325	1491.6227	1504.5856	1510.4756	1514.4159	2239.8852	2958.4184	3022.5423	3026.2257	3031.2447	3035.7702	3078.6943	3090.1025	3090.5591	3098.7814	3105.3214	3122.5646	3167.4996	3505.5589
CC(C)C1CN1CC#C	CC(C)[C@H]1CN1CC#C	
InChI=1S/C8H13N/c1-4-5-9-6-8(9)7(2)3/h1,7-8H,5-6H2,2-3H3	InChI=1S/C8H13N/c1-4-5-9-6-8(9)7(2)3/h1,7-8H,5-6H2,2-3H3/t8-,9?/m1/s1
