18
gdb 41455	2.85701	2.12276	1.6493	0.6883	75.2	-0.2202	0.0419	0.2621	871.5291	0.14937	-401.793065	-401.786586	-401.785641	-401.823422	27.588	
C	 0.0258241808	 1.5753973987	 0.1559741542	-0.209889
O	 1.4412884055	 1.6320127156	-0.308008573	-0.354685
C	 1.1985488639	 0.3013813491	-0.8511970136	 0.320538
C	 0.3318036385	 0.0891689941	-2.0941349312	-0.21917
N	-0.1197582757	-1.0358494387	-1.170751193	-0.210664
C	 1.392993466	-1.2728816221	-0.8278728718	-0.048072
C	 1.4442865654	-1.7926828173	 0.5943756766	-0.232759
C	 0.4328624845	-0.8155238428	 1.253595309	-0.277551
C	 0.0521169849	 0.0195992977	 0.0428858538	 0.238126
H	-0.0700987208	 1.9555799829	 1.1756551311	 0.124245
H	-0.6275337233	 2.1324378099	-0.519112167	 0.124382
H	-0.4565788443	 0.8099464183	-2.3178561003	 0.106455
H	 0.8096077986	-0.2669491872	-3.0093239603	 0.102042
H	 1.9419616135	-1.7905589589	-1.6171765765	 0.0838
H	 1.1242534878	-2.8367715383	 0.6410571436	 0.116397
H	 2.4498431065	-1.7248121873	 1.0180611336	 0.113037
H	-0.4318508347	-1.3285610803	 1.6840074696	 0.111332
H	 0.8895418731	-0.2052131236	 2.0376956051	 0.112437
196.3229	254.858	347.5122	370.6131	469.3031	474.6862	518.1172	643.4668	680.8712	745.413	782.5761	826.0504	836.3856	869.5852	902.4902	906.2585	937.7408	950.8713	978.6255	1030.4838	1037.7646	1071.007	1108.9711	1125.8051	1132.7034	1146.1213	1177.7939	1202.9279	1228.9516	1251.3957	1267.6404	1272.9289	1307.6171	1330.1608	1354.1771	1474.7983	1491.3504	1496.4357	1534.2516	3055.698	3061.9557	3066.5418	3071.8634	3094.7643	3107.3641	3114.6991	3123.2652	3134.693
C1OC23CN4C2CCC134	C1O[C@@]23CN4[C@@H]2CC[C@@]134	
InChI=1S/C7H9NO/c1-2-6-4-9-7(6)3-8(6)5(1)7/h5H,1-4H2	InChI=1S/C7H9NO/c1-2-6-4-9-7(6)3-8(6)5(1)7/h5H,1-4H2/t5-,6-,7+/m1/s1
