16
gdb 51690	3.64993	0.97998	0.83611	3.8771	67.03	-0.2606	-0.0359	0.2246	1326.8321	0.12387	-475.048116	-475.039731	-475.038787	-475.082749	29.315	
N	-0.3937219351	 1.1303312444	-0.0597845857	-0.570826
C	-0.1311946702	-0.0923549001	 0.043499095	 0.491346
O	 0.899026448	-0.663884525	 0.7338165447	-0.248505
C	 0.9376836754	-2.0625120481	 0.4425362648	-0.121703
C	-0.4788505464	-2.3433338952	-0.0839940294	 0.069205
C	-1.4477737117	-2.8600247749	 0.9873963275	-0.297563
C	-2.8742207044	-2.9760041912	 0.4794458911	 0.150284
O	-3.5218143409	-3.9892840723	 0.535818651	-0.232414
O	-0.8898424077	-1.0505017343	-0.5490878002	-0.234384
H	 0.3128255803	 1.684619815	 0.4175461857	 0.235765
H	 1.7056629335	-2.2592160789	-0.3136111775	 0.128332
H	 1.1784596978	-2.6064433614	 1.3580469459	 0.134151
H	-0.4700667862	-3.0128560755	-0.9476795172	 0.118462
H	-1.1269293005	-3.8429396412	 1.34514523	 0.128778
H	-1.436971107	-2.1577958015	 1.8326216392	 0.137986
H	-3.289197905	-2.04391043	 0.0429021551	 0.111085
49.0776	66.8322	108.0333	133.9857	218.0441	336.481	418.3908	488.1103	514.0603	713.7175	716.8239	761.8323	805.836	817.5481	864.707	914.3971	975.2117	996.1576	1024.1631	1052.5761	1099.4208	1113.4756	1143.2996	1218.0487	1235.2144	1263.1585	1281.9745	1356.2543	1386.2981	1415.153	1427.1263	1454.5696	1523.4358	1805.6395	1832.2838	2925.6542	3023.4825	3045.0615	3083.8971	3103.8513	3118.1242	3541.1826
N=C1OCC(CC=O)O1	[NH][C]1OC[C@@H](CC=O)O1	
InChI=1S/C5H7NO3/c6-5-8-3-4(9-5)1-2-7/h2,4,6H,1,3H2	InChI=1S/C5H7NO3/c6-5-8-3-4(9-5)1-2-7/h2,4,6H,1,3H2/t4-/m1/s1
