14
gdb 129501	2.89805	1.65656	1.05465	6.1397	66.83	-0.2137	-0.0061	0.2076	1043.3152	0.102375	-466.227158	-466.219058	-466.218114	-466.260107	29.78	
N	-0.0920556985	 1.316277745	-0.2503548412	-0.572038
C	 0.1434993401	-0.0233467678	-0.1465519632	 0.500729
O	 1.2296810882	-0.5459252996	-0.1543272154	-0.348768
N	-1.0617581992	-0.7723483919	-0.0517058515	-0.1427
N	-2.2876334146	-0.1117175483	 0.0169001061	-0.24503
C	-3.1664788835	-1.0496762566	 0.1004101787	 0.068476
N	-2.6045190253	-2.2956834574	 0.0910246038	-0.372274
C	-1.2042532185	-2.1715980204	-0.0098963577	 0.474585
N	-0.2922894267	-3.0517863032	-0.0564165342	-0.547997
H	 0.7132598851	 1.9100529185	-0.1586389022	 0.266687
H	-1.0129222572	 1.6824742575	-0.0788470887	 0.275606
H	-4.2291754384	-0.8755875134	 0.1716848286	 0.159873
H	-3.08489083	-3.1761884808	 0.1410165368	 0.273355
H	-0.6865855314	-3.9890600815	-0.0101457399	 0.209496
69.5836	109.9345	209.5579	223.3174	278.9907	372.574	390.0215	453.4548	528.2638	559.7191	634.1204	679.3418	707.8316	732.7786	752.4898	762.7984	856.3615	929.5798	1028.8143	1077.2119	1118.3765	1152.339	1182.9671	1278.3604	1341.7884	1400.4077	1430.2866	1589.512	1652.3481	1751.8048	1854.2603	3262.5024	3507.583	3612.3026	3694.5809	3751.0954
NC(=O)N1N=CNC1=N	NC(=O)N1N=CN[C@H]1[NH]	
InChI=1S/C3H5N5O/c4-2-6-1-7-8(2)3(5)9/h1H,(H2,5,9)(H2,4,6,7)	InChI=1S/C3H6N5O/c4-2-6-1-7-8(2)3(5)9/h1-2,4H,(H2,5,9)(H,6,7)/t2-/m1/s1
