18
gdb 114861	4.24435	1.0667	0.91823	4.3495	73.26	-0.2521	0.0086	0.2608	1259.0466	0.149328	-439.05792	-439.050178	-439.049234	-439.090412	29.823	
O	-0.0298087961	 1.4763304038	 0.0598336793	-0.423857
C	 0.0399735543	 0.0816965875	-0.131660347	-0.05176
C	-1.3339346547	-0.5671547179	 0.0111112636	 0.031581
C	-1.3286317204	-2.1396923594	-0.1154127539	-0.284364
C	-2.5218369714	-2.492285526	 0.7872483097	-0.148258
C	-2.586146564	-3.2447585221	 2.1519829353	-0.125201
O	-2.8130294977	-1.9534864482	 2.8570353353	-0.272578
C	-2.4603488244	-1.3192934447	 1.6999784846	 0.441921
N	-1.8337952038	-0.2681876069	 1.3978194317	-0.344003
H	-0.5123698492	 1.5976186364	 0.8880032977	 0.296486
H	 0.4345270287	-0.0883913828	-1.1401459422	 0.102656
H	 0.7312438528	-0.3937789522	 0.5849024876	 0.081461
H	-2.0063039191	-0.1153276012	-0.7305321309	 0.08978
H	-1.4235204242	-2.4876556494	-1.1461727671	 0.111952
H	-0.3893928537	-2.528494684	 0.2953898896	 0.112463
H	-3.4614190144	-2.5931286625	 0.2386519957	 0.113881
H	-3.427781912	-3.9207227036	 2.3064461967	 0.133303
H	-1.6479876904	-3.6864707468	 2.4965408243	 0.134538
90.4626	129.6308	205.2451	238.181	325.7386	391.7763	473.0227	489.3126	513.1274	609.1614	667.7935	748.4763	804.3348	845.8075	889.9204	921.2526	933.5223	963.1345	1027.0319	1052.0939	1079.7403	1099.2484	1126.0256	1146.5505	1159.185	1201.9603	1211.7698	1230.1711	1259.7651	1308.8482	1332.6217	1337.6776	1365.5955	1394.1826	1440.6142	1481.757	1499.7724	1501.7008	1776.1242	2960.159	3019.6609	3044.8959	3063.2925	3071.3816	3082.8013	3115.1262	3147.2531	3770.4463
OCC1CC2COC2=N1	OC[C@H]1C[C@H]2CO[C]2[N]1	
InChI=1S/C6H9NO2/c8-2-5-1-4-3-9-6(4)7-5/h4-5,8H,1-3H2	InChI=1S/C6H9NO2/c8-2-5-1-4-3-9-6(4)7-5/h4-5,8H,1-3H2/t4-,5+/m0/s1
