21
gdb 88849	3.74544	0.9818	0.85621	1.8936	84.94	-0.2395	0.0239	0.2634	1412.399	0.182713	-387.087351	-387.078471	-387.077527	-387.121726	33.242	
C	-1.7021630647	-0.4803492021	 2.3320439278	-0.421202
C	-0.7599028473	-0.9219685262	 1.2412746401	 0.076406
O	-0.3876596256	 0.0467316425	 0.2531603787	-0.272025
C	 0.6406496174	-0.4859829633	 1.0970296727	 0.052851
C	 1.3588518085	 0.4753523924	 2.0190538052	-0.04151
C	 2.2013445856	-0.24846981	 3.1073737268	-0.234593
C	 3.5097227295	 0.5713274906	 3.2475816768	-0.251915
C	 3.55151172	 1.3666413554	 1.9641525225	-0.073083
C	 2.3961558861	 1.3199708224	 1.3049923961	-0.067577
H	-1.4189143624	 0.4861987379	 2.7529920109	 0.128883
H	-2.7189605707	-0.3898225726	 1.9353995861	 0.129331
H	-1.7236346926	-1.2214437191	 3.1386033265	 0.120972
H	-1.0048929857	-1.8973567727	 0.8136343804	 0.08424
H	 1.3164634003	-1.171849342	 0.5780320921	 0.083743
H	 0.6105825683	 1.1364413903	 2.4743352657	 0.078778
H	 1.6602937768	-0.3565284005	 4.0505226312	 0.099433
H	 2.4419985925	-1.2593339317	 2.7583276025	 0.10222
H	 3.479387044	 1.2427907721	 4.1173712221	 0.10629
H	 4.3904639978	-0.0659686892	 3.3862376904	 0.103025
H	 4.4223039122	 1.9367773463	 1.6587348233	 0.092259
H	 2.1701463998	 1.8383092595	 0.3799284621	 0.103474
48.1017	86.2252	130.919	176.5863	210.7953	284.7736	385.182	399.0989	467.4516	533.5555	632.0901	749.8565	770.4819	787.6594	842.6379	863.5932	898.3387	924.9782	955.3893	980.2463	988.5638	997.9208	1032.8808	1067.8414	1104.2412	1110.0517	1137.3816	1166.9342	1177.0656	1196.4185	1229.0394	1271.934	1284.6472	1302.1525	1319.8771	1326.4387	1378.6584	1399.4691	1418.0475	1467.6988	1483.4893	1490.2722	1500.36	1510.0212	1686.4491	3008.3278	3020.1649	3037.7202	3038.4509	3056.6038	3063.2754	3078.8014	3097.9558	3099.4428	3133.4643	3182.6598	3209.274
CC1OC1C1CCC=C1	C[C@H]1O[C@H]1[C@H]1CCC=C1	
InChI=1S/C8H12O/c1-6-8(9-6)7-4-2-3-5-7/h2,4,6-8H,3,5H2,1H3	InChI=1S/C8H12O/c1-6-8(9-6)7-4-2-3-5-7/h2,4,6-8H,3,5H2,1H3/t6-,7-,8-/m1/s1
