18
gdb 62007	3.69656	0.68046	0.6393	6.9102	73.55	-0.2603	0.0143	0.2746	1726.4431	0.146711	-435.306544	-435.29598	-435.295036	-435.343871	36.346	
N	 0.2098015191	 1.5464855016	 0.1484275602	-0.500052
C	 0.0520861776	 0.0962413666	 0.014810461	-0.143647
C	 0.6406072978	-0.5528581467	-1.2621157174	-0.173311
C	-0.0531489274	-0.0867344708	-2.5434808954	-0.329222
C	 0.7218976641	-0.5248396193	-3.7887605314	 0.41156
N	-0.0484729803	-0.8226897431	-4.8730431783	-0.521535
O	 1.9357190496	-0.5754427258	-3.8142962833	-0.354738
C	 0.640357837	-0.5528568528	 1.2003005822	 0.302401
N	 1.1181694593	-1.0831862286	 2.1084629077	-0.317546
H	 1.1848636466	 1.8054529912	 0.0270190394	 0.243821
H	-0.3223099671	 2.0223288766	-0.571857421	 0.238454
H	-1.0261552705	-0.1103405191	 0.0517465677	 0.12898
H	 1.7069652497	-0.3191657339	-1.334866005	 0.143009
H	 0.564340849	-1.6425587181	-1.1759579583	 0.124019
H	-1.0911695375	-0.4381311996	-2.5807524957	 0.100853
H	-0.0894167138	 1.0104960656	-2.5737573299	 0.121895
H	-1.0521476111	-0.8046559493	-4.8477914008	 0.259866
H	 0.412368568	-1.0898916844	-5.7276072218	 0.265194
29.412	55.9364	87.4808	118.3569	143.7065	196.2015	228.269	264.0343	308.2286	402.234	426.7588	527.9658	562.6883	585.2083	614.3025	692.7393	769.5915	825.1146	830.8887	903.5471	964.5768	1043.6097	1069.2056	1093.6601	1125.5076	1156.9027	1232.0793	1250.8749	1302.6293	1324.8824	1359.6174	1400.9572	1413.8459	1464.7238	1488.618	1618.4768	1654.8846	1800.0123	2363.4857	3020.1285	3024.6612	3049.3704	3061.6595	3105.4344	3498.4458	3589.437	3604.872	3743.3384
NC(CCC(N)=O)C#N	N[C@@H](CCC(=O)N)C#N	
InChI=1S/C5H9N3O/c6-3-4(7)1-2-5(8)9/h4H,1-2,7H2,(H2,8,9)	InChI=1S/C5H9N3O/c6-3-4(7)1-2-5(8)9/h4H,1-2,7H2,(H2,8,9)/t4-/m0/s1
