22
gdb 17810	3.84724	1.43691	1.2992	0.1026	82.43	-0.2876	0.0897	0.3773	1075.0447	0.201116	-313.025134	-313.017041	-313.016097	-313.057493	31.838	
C	-0.1236210205	 1.4793336613	-0.0042181998	-0.383782
C	-0.1492858687	-0.0563662761	 0.0347087216	-0.024831
C	-1.5929607038	-0.5817756365	 0.0182553167	-0.383773
C	 0.636240654	-0.6291571986	-1.1437729128	 0.102044
C	 2.1999974483	-0.5898411637	-1.2190285013	-0.064572
C	 2.2393557684	-1.7624663139	-0.1941565448	-0.222834
C	 1.1076272448	-2.1214191145	-1.2027758638	-0.064577
C	 2.0875609299	-1.6768387167	-2.3269862178	-0.219311
H	 0.8995664519	 1.8650224673	 0.0468909134	 0.112362
H	-0.5746549757	 1.85443382	-0.9308833495	 0.109969
H	-0.6857958197	 1.905319299	 0.833531239	 0.107405
H	 0.3103256435	-0.3737101759	 0.9781143811	 0.070596
H	-2.1041211326	-0.2912513788	-0.9075696906	 0.109968
H	-1.623343338	-1.6739340467	 0.0856663367	 0.112363
H	-2.1703845982	-0.1769588591	 0.8561301256	 0.107405
H	 0.1586984819	-0.2984726463	-2.0770448333	 0.052187
H	 2.8394056284	 0.2948002592	-1.2331475498	 0.064692
H	 3.1293617219	-2.3975754363	-0.2255596808	 0.086267
H	 1.9559401263	-1.5493762591	 0.837321256	 0.092363
H	 0.4793788467	-3.0141187569	-1.1980353307	 0.064693
H	 1.6415017455	-1.3687745245	-3.2769777544	 0.085691
H	 2.9680490757	-2.3064675532	-2.4809955407	 0.085675
66.6457	160.1974	222.9989	225.6517	262.9351	306.5528	424.2101	445.521	532.7948	570.7062	775.5018	805.0624	841.4641	879.3959	886.4905	898.6868	903.1397	928.955	967.4444	1008.87	1011.0812	1020.7131	1029.439	1075.9653	1111.7641	1129.4948	1131.2943	1149.4047	1174.4288	1191.8797	1202.492	1216.0655	1248.1553	1250.8969	1269.8576	1326.7483	1345.6346	1398.5641	1415.9573	1434.6196	1487.4942	1491.8405	1502.1511	1504.6732	1511.1039	1540.0196	2998.7992	3022.8132	3026.7279	3035.6228	3046.2078	3059.0313	3086.9032	3088.2963	3094.128	3096.0909	3099.7766	3101.8883	3111.9354	3126.7431
CC(C)C1C2CC1C2	CC(C)[C@H]1[C@H]2C[C@@H]1C2	
InChI=1S/C8H14/c1-5(2)8-6-3-7(8)4-6/h5-8H,3-4H2,1-2H3	InChI=1S/C8H14/c1-5(2)8-6-3-7(8)4-6/h5-8H,3-4H2,1-2H3/t6-,7+,8-
