19
gdb 42109	2.31519	1.7228	1.09852	0.7245	84.63	-0.226	-0.0277	0.1983	1114.6613	0.16103	-385.8448	-385.836655	-385.835711	-385.877122	31.773	
C	 0.0354670964	 1.4322418561	 0.1331628323	-0.210554
C	 1.4725051688	 1.9599912143	-0.1365389946	-0.053277
O	 1.614537646	 2.824275204	-1.2613472575	-0.261808
C	 1.3302252058	 2.3254043707	-2.5672459899	-0.116372
C	 2.3340452836	 1.3703984937	-3.1879908542	-0.0714
C	 2.2668011694	 0.0328215184	-3.0471598115	-0.179936
C	 1.3206176139	-0.4927345155	-2.1305860477	 0.093776
C	 0.5340733682	-0.5449291325	-1.2132926153	 0.017167
C	-0.1376983396	-0.1123148279	 0.0058805717	-0.339001
H	-0.2819885138	 1.7277562666	 1.1390564657	 0.101824
H	-0.6500623356	 1.9273610351	-0.5615637973	 0.123618
H	 1.7865197994	 2.5911451744	 0.7001109747	 0.104625
H	 2.1799750158	 1.1243197659	-0.1992482457	 0.109711
H	 0.3409077012	 1.8499864402	-2.5897846871	 0.104072
H	 1.2788913617	 3.2281725268	-3.1838346665	 0.10503
H	 3.1073640291	 1.7967217016	-3.8216252631	 0.101554
H	 2.9595981236	-0.6231246811	-3.5656069343	 0.111241
H	 0.3108139048	-0.6128588199	 0.8740009987	 0.132594
H	-1.2022817688	-0.3724539809	 0.0217415717	 0.127139
140.2357	151.5778	201.128	247.4484	281.6839	344.7625	370.7485	419.5085	465.8235	538.5181	580.4887	651.2768	724.6622	780.4495	822.76	838.8698	891.3347	953.9951	983.1376	999.776	1017.9933	1048.3314	1084.0108	1107.8222	1171.5394	1191.3469	1231.4258	1244.3177	1295.3151	1321.3243	1338.7887	1357.3139	1392.4673	1416.2041	1421.9032	1472.6364	1480.1722	1490.6542	1501.1991	1636.4931	2313.4607	3015.1303	3023.2628	3031.943	3044.1627	3057.2208	3077.199	3081.0332	3094.3917	3158.2628	3178.5164
C1COCC=CC#CC1	C1COCC=CC#CC1	
InChI=1S/C8H10O/c1-2-4-6-8-9-7-5-3-1/h3,5H,4,6-8H2/b5-3-	InChI=1S/C8H10O/c1-2-4-6-8-9-7-5-3-1/h3,5H,4,6-8H2/b5-3-
