15
gdb 128433	4.63147	1.12799	0.92859	1.6767	69.35	-0.2725	-0.0339	0.2386	1206.9869	0.114397	-450.144716	-450.136794	-450.13585	-450.17812	27.867	
C	 0.022447995	 1.30474749	-0.1050039599	-0.227993
O	 0.1919984873	-0.1148597846	-0.0093396999	-0.209642
C	 0.622259917	-0.5647692376	 1.162218655	 0.531174
N	 0.9469195492	 0.1780018769	 2.1342532813	-0.565174
N	 0.6860709961	-1.9853657014	 1.1441521311	-0.073278
C	 1.4794431178	-2.7932963548	 1.9002044628	 0.026372
N	 1.2626631022	-4.0534764249	 1.6080495057	-0.275019
C	 0.2992620262	-3.9719497231	 0.6397438301	 0.048202
N	-0.0802576634	-2.7527777908	 0.3173628666	-0.223502
H	 0.9796833104	 1.8141411189	 0.0295613169	 0.146968
H	-0.3724967585	 1.4794171523	-1.1053237495	 0.142269
H	-0.6761534059	 1.658404489	 0.6571267872	 0.147478
H	 1.1902110807	-0.3503437143	 2.9663933349	 0.235819
H	 2.1973898967	-2.4138851798	 2.6107246409	 0.157221
H	-0.1304644808	-4.8408179159	 0.1640519971	 0.139106
53.7237	110.8786	159.6279	168.6003	230.5885	332.6954	417.4386	499.0769	647.1329	689.2842	737.9339	801.5337	809.6827	861.7785	917.3279	964.8918	969.915	1019.8723	1106.5045	1159.6794	1181.1631	1205.1519	1226.7967	1250.3546	1305.3609	1336.1532	1421.2617	1434.6711	1477.4966	1483.3896	1497.7168	1557.5226	1744.7029	3054.7432	3131.5786	3166.262	3262.2583	3266.5578	3553.186
COC(=N)N1C=NC=N1	CO[C]([NH])n1cncn1	
InChI=1S/C4H6N4O/c1-9-4(5)8-3-6-2-7-8/h2-3,5H,1H3	InChI=1S/C4H6N4O/c1-9-4(5)8-3-6-2-7-8/h2-3,5H,1H3
