16
gdb 111722	2.23586	1.50261	1.08588	2.4731	71.12	-0.2648	0.0029	0.2677	1127.6091	0.123292	-437.833455	-437.825028	-437.824083	-437.866901	30.223	
C	-0.3663129246	 1.0389147666	-0.1620692863	-0.244499
O	 0.5819016225	 0.0140612938	 0.1018445678	-0.227191
C	 1.0015524715	-0.6403242504	-1.031656151	 0.057101
C	 1.5668200066	-2.0083215267	-0.9427999005	 0.00715
O	 0.9979328382	-2.7703345552	 0.0999799238	-0.265595
C	-0.322529668	-2.6721923662	-0.4881045181	-0.123202
C	 0.1932998742	-1.7969194363	-1.6385594895	 0.04804
C	-0.2110383256	-1.8609175743	-2.9972411846	 0.19443
N	-0.543781141	-1.9018600845	-4.1062744994	-0.34861
H	 0.0579913315	 1.8172253086	-0.8115056244	 0.12123
H	-1.2695269097	 0.636524492	-0.6398549412	 0.123269
H	-0.630486713	 1.4791425688	 0.8008001733	 0.141655
H	 1.4607275922	-0.0174821845	-1.8030015865	 0.116405
H	 2.529669799	-2.3146910697	-1.336804975	 0.135007
H	-0.668540948	-3.6543178353	-0.8203743605	 0.13562
H	-1.0471401057	-2.2115627867	 0.1890391322	 0.129192
94.8714	108.6823	159.6028	183.9243	213.2612	247.9687	335.61	478.1633	502.1915	544.8345	588.0519	629.2146	797.5559	831.262	919.8063	958.4473	994.8102	1020.2864	1041.106	1077.9707	1091.1667	1146.1479	1164.6705	1180.308	1214.5593	1256.3475	1270.1072	1305.7106	1355.983	1442.7241	1487.5711	1490.7068	1504.6353	1508.4846	2339.1477	2998.6002	3055.1499	3056.4005	3088.3868	3115.2739	3136.4826	3182.8583
COC1C2OCC12C#N	CO[C@H]1[C@H]2OC[C@@]12C#N	
InChI=1S/C6H7NO2/c1-8-4-5-6(4,2-7)3-9-5/h4-5H,3H2,1H3	InChI=1S/C6H7NO2/c1-8-4-5-6(4,2-7)3-9-5/h4-5H,3H2,1H3/t4-,5+,6-/m0/s1
