14
gdb 48341	2.37197	1.42654	1.04691	3.9346	69.97	-0.2605	-0.0505	0.2101	1117.7937	0.097882	-436.672332	-436.663679	-436.662735	-436.706156	31.179	
O	-0.0113522232	 0.0453446314	 0.2787789841	-0.236495
C	 0.0416976545	 1.1964147967	-0.0552295925	 0.11732
C	 1.3408873006	 2.0119218179	-0.0539471644	 0.057516
C	 1.4819609237	 2.900248105	 1.2449036851	-0.444242
C	 2.6093156405	 1.9125906158	 1.6317800889	 0.445829
O	 3.3045535583	 1.7424562007	 2.5909280067	-0.338122
N	 2.5052734752	 1.2608191509	 0.4195158603	-0.332176
C	 1.4847487663	 2.6949159991	-1.3312319176	 0.254391
C	 1.5474612215	 3.238482086	-2.4014032042	-0.406521
H	-0.849459587	 1.7663759184	-0.392378052	 0.102688
H	 1.7993548357	 3.9253941608	 1.0556218732	 0.152826
H	 0.6206140052	 2.8859984029	 1.9151924163	 0.149901
H	 2.7838704326	 0.3237759152	 0.163225167	 0.265997
H	 1.6264029162	 3.7261785291	-3.3422176408	 0.211087
67.6524	82.2581	163.0086	166.81	259.0382	325.9042	389.104	443.2992	492.999	512.4992	552.9373	572.8995	634.1828	675.8026	701.3922	806.9786	875.0242	936.8627	969.1249	1036.2692	1060.7436	1129.5654	1189.9772	1197.2507	1248.2623	1356.1379	1403.7544	1453.8589	1838.42	1913.5101	2233.8805	2919.1112	3092.8196	3160.7308	3497.6198	3605.6495
O=CC1(CC(=O)N1)C#C	O=C[C@]1(CC(=O)N1)C#C	
InChI=1S/C6H5NO2/c1-2-6(4-8)3-5(9)7-6/h1,4H,3H2,(H,7,9)	InChI=1S/C6H5NO2/c1-2-6(4-8)3-5(9)7-6/h1,4H,3H2,(H,7,9)/t6-/m1/s1
