18
gdb 85444	2.55311	1.56136	1.15135	4.8596	72.19	-0.2582	0.0552	0.3134	1097.9276	0.148214	-439.128779	-439.120633	-439.119689	-439.16147	31.479	
C	 0.1059826943	 1.6228382645	-0.166326784	-0.396331
C	-0.0573936119	 0.1163953282	 0.0608745934	-0.069506
N	 0.5625600329	-0.6900201364	-0.9826940626	-0.367548
C	 1.809576514	-1.1439274438	-0.6083115105	 0.456195
O	 2.6615643735	-1.6323641599	-1.2952598976	-0.391563
O	 1.9403804171	-0.9529426399	 0.7430449719	-0.271513
C	 0.7230648961	-0.4324718846	 1.2590466579	 0.45548
C	 0.7684080316	 0.1690481835	 2.6211994608	-0.336943
C	 0.0993656692	-1.1790193858	 2.3980865844	-0.32655
H	 1.16436576	 1.8973965183	-0.205326419	 0.137205
H	-0.3642948028	 1.9226516446	-1.1086997937	 0.118145
H	-0.3698659551	 2.1911642351	 0.6385370231	 0.124083
H	-1.1203663668	-0.1310382313	 0.1564999176	 0.096686
H	 0.4212501575	-0.4925741487	-1.9605361801	 0.258041
H	 1.7303346137	 0.1745344169	 3.1206693662	 0.138166
H	 0.1436278796	 1.0311409023	 2.8283922343	 0.121229
H	-0.9830983138	-1.2345034633	 2.4480668883	 0.119015
H	 0.6234192911	-2.0600278197	 2.7500140997	 0.135711
85.9618	129.5783	218.1705	254.5575	278.5877	318.8644	411.5492	481.4779	521.3698	538.5183	550.2757	715.9912	755.3281	767.4957	774.9042	898.3056	905.7761	943.1087	973.7304	976.0875	1013.6419	1044.9785	1058.2963	1081.8524	1114.6044	1140.8273	1189.0812	1203.1687	1254.8794	1343.0731	1368.3198	1386.0764	1408.5245	1426.7626	1452.491	1490.4867	1496.3283	1505.5041	1895.3163	3037.0769	3041.4007	3107.2433	3120.2972	3134.9639	3139.0798	3221.6293	3234.8835	3647.8384
CC1NC(=O)OC11CC1	C[C@H]1NC(=O)OC21CC2	
InChI=1S/C6H9NO2/c1-4-6(2-3-6)9-5(8)7-4/h4H,2-3H2,1H3,(H,7,8)	InChI=1S/C6H9NO2/c1-4-6(2-3-6)9-5(8)7-4/h4H,2-3H2,1H3,(H,7,8)/t4-/m1/s1
