13
gdb 131696	2.23853	0.85626	0.65815	2.1813	62.65	-0.2615	-0.0552	0.2064	1592.484	0.081928	-486.117539	-486.105753	-486.104809	-486.159998	34.988	
O	 0.2795325061	 1.3688671262	-0.7648892015	-0.410339
C	 0.1946156324	 0.1465709288	-0.0831125338	-0.145604
C	-1.2236518041	-0.3627618725	 0.1384405223	 0.343514
N	-2.1741650792	 0.6990678783	 0.1007055038	-0.3886
C	-3.3610844733	 0.5718575313	 0.4085900986	 0.539659
N	-4.4947833865	 0.5917994066	 0.8202030663	-0.510635
N	-4.4278458693	-2.5951832401	-0.6205190106	-0.010492
N	-4.0457095424	-3.6243642654	-0.6566880115	 0.008506
O	-1.5008632958	-1.51465844	 0.3456923627	-0.295937
H	-0.4859503087	 1.8936701655	-0.4985224175	 0.296044
H	 0.7367375487	-0.6142583293	-0.6521155499	 0.144263
H	 0.6605128309	 0.1904166353	 0.9183413766	 0.12345
H	-5.3065872986	 0.2924541953	 0.3013623744	 0.306171
14.3511	36.1324	37.4079	45.1202	64.4519	79.0069	86.2325	120.6722	243.5655	313.9668	369.8386	473.2689	518.1388	574.976	603.3691	660.3099	799.8108	821.394	1013.0344	1086.9822	1159.0685	1235.8762	1334.5047	1401.2722	1431.4096	1484.8711	1804.641	2247.1216	2434.3608	2947.6462	3091.1756	3653.3256	3775.0901
OCC1=NC(=N)N=NO1	OCC(=O)[N][C][NH].N#N	
InChI=1S/C3H4N4O2/c4-3-5-2(1-8)9-7-6-3/h4,8H,1H2	InChI=1S/C3H4N2O2.N2/c4-2-5-3(7)1-6;1-2/h4,6H,1H2;
