21
gdb 120765	3.30351	0.87855	0.77295	1.7023	80.15	-0.2453	0.0869	0.3322	1546.3699	0.181167	-424.172972	-424.16332	-424.162376	-424.208463	34.569	
C	 0.4328029812	 1.3281624363	-0.0571118137	-0.224146
O	 0.4523431427	-0.0773334625	-0.0426986876	-0.233202
C	 0.4959836552	-0.6070445349	 1.2695560764	-0.089755
C	 0.4790103271	-2.1099245877	 1.1685805013	-0.024561
C	 1.7636544463	-2.8786302201	 0.9789132518	-0.295822
C	 1.0076982195	-2.9966453543	 2.2767558145	-0.054876
C	 1.573685574	-2.4513572442	 3.5523015449	 0.057537
C	 2.9204713068	-2.8105341927	 4.0211108802	-0.175806
O	 2.6553607061	-1.5207742791	 3.4631989978	-0.226647
H	 1.3321069872	 1.757083159	 0.4138271856	 0.103488
H	 0.3973230824	 1.6459880178	-1.10230893	 0.122994
H	-0.4491962978	 1.7328744045	 0.4663021022	 0.098537
H	 1.3973496996	-0.2619541908	 1.7965911437	 0.116354
H	-0.3770132002	-0.2504146097	 1.8453289386	 0.077738
H	-0.3902398007	-2.4916384432	 0.6400726488	 0.09047
H	 1.7744108738	-3.7243242142	 0.3010014122	 0.109667
H	 2.6811038351	-2.30061478	 1.006958471	 0.131332
H	 0.4476725778	-3.9152669075	 2.4369595129	 0.090061
H	 0.8370422256	-2.1874295644	 4.3138150511	 0.093201
H	 3.1437902903	-2.8183340312	 5.0867616116	 0.115427
H	 3.5365843382	-3.4628963112	 3.4048253168	 0.118011
61.8018	87.9496	93.8907	109.6729	205.2221	223.2683	239.0969	310.7954	359.8639	461.2671	528.1466	604.0864	730.0658	824.2965	854.7637	869.3991	913.2573	938.0966	967.6681	998.5978	1023.5321	1076.9456	1084.3004	1100.2586	1124.8315	1138.8064	1151.7525	1160.2263	1173.6179	1178.2612	1198.4459	1222.4432	1239.6166	1277.5134	1294.6885	1367.6617	1399.7704	1431.2847	1447.4157	1481.7321	1485.4334	1491.9261	1505.333	1520.1939	1531.3747	2940.8328	2963.9091	3004.2542	3020.1442	3085.0146	3089.6752	3109.2087	3130.3371	3137.714	3148.6784	3177.8104	3226.7852
COCC1CC1C1CO1	COC[C@H]1C[C@H]1[C@H]1CO1	
InChI=1S/C7H12O2/c1-8-3-5-2-6(5)7-4-9-7/h5-7H,2-4H2,1H3	InChI=1S/C7H12O2/c1-8-3-5-2-6(5)7-4-9-7/h5-7H,2-4H2,1H3/t5-,6-,7-/m1/s1
