18
gdb 106007	3.30787	1.64171	1.41196	0.5484	72.95	-0.2434	0.062	0.3053	972.9996	0.148205	-401.857452	-401.85023	-401.849286	-401.889384	28.474	
C	-0.0692432028	 1.5041211803	 0.1424616343	-0.382906
C	-0.0086384174	-0.0223190228	 0.0051978501	-0.337163
C	 0.7025164235	-0.4733212696	-1.230422124	 0.366621
C	 0.4334650315	-0.0934640719	-2.7204260449	 0.004626
O	 1.621830191	 0.7254190265	-2.7900136567	-0.292728
C	 2.1362487858	-0.1143758056	-1.7327836837	 0.004623
C	 2.1389897627	-1.5733611575	-2.2479156503	-0.062725
C	 0.852377139	-1.5575611765	-2.9941669043	-0.062727
N	 0.8704101131	-1.9727292693	-1.5516276989	-0.21544
H	 0.9332098099	 1.9409943162	 0.1827883195	 0.126274
H	-0.5934718122	 1.9600373753	-0.7029500548	 0.126281
H	-0.596648725	 1.7871491498	 1.0576001745	 0.11764
H	 0.4950288615	-0.4636438312	 0.8748932238	 0.113798
H	-1.0216912767	-0.4447405322	-0.0049414905	 0.113794
H	-0.45506228	 0.3504862242	-3.1648293116	 0.088197
H	 2.9711535761	 0.3084049665	-1.1775747392	 0.088198
H	 2.9528382399	-2.2669849176	-2.4141888596	 0.101819
H	 0.5799683702	-2.2378461645	-3.7904807234	 0.101819
70.097	145.1031	189.1011	293.1089	366.1934	518.599	571.4642	641.1544	758.0829	759.8405	793.6981	819.198	833.9636	859.7348	869.1658	902.2573	917.5576	938.932	954.673	980.924	992.9321	1030.9749	1073.6468	1106.1225	1123.0364	1132.1368	1159.9467	1189.9836	1214.0091	1266.2422	1275.8696	1304.9433	1330.4323	1345.0245	1391.8035	1413.9684	1481.0059	1499.3658	1503.6767	3021.91	3042.3588	3053.456	3111.3821	3114.9747	3142.6523	3145.365	3196.5074	3208.0584
CCC12C3OC1C1C3N21	CC[C@@]12[C@H]3O[C@@H]1[C@@H]1[C@H]3N21	
InChI=1S/C7H9NO/c1-2-7-5-3-4(8(3)7)6(7)9-5/h3-6H,2H2,1H3	InChI=1S/C7H9NO/c1-2-7-5-3-4(8(3)7)6(7)9-5/h3-6H,2H2,1H3/t3-,4+,5+,6-,7-,8?
