18
gdb 55837	5.28216	0.7169	0.70757	3.6536	75.37	-0.2422	-0.0275	0.2148	1609.8101	0.145157	-439.12912	-439.119445	-439.118501	-439.166858	33.778	
C	 0.270575018	 1.4990343572	-0.1396209039	-0.485865
C	 0.1993171672	-0.016858783	-0.0472440405	 0.410717
O	 1.1824531968	-0.7208918509	-0.1824270732	-0.368121
N	-1.0496442182	-0.5268897821	 0.1991860589	-0.325197
C	-1.3040543825	-1.9378843824	 0.3194391759	 0.046953
C	-2.0411980064	-2.4428272059	 1.601697837	-0.367731
C	-2.9537868172	-3.2703994408	 0.6811946698	 0.404862
O	-3.7271092778	-4.1633935191	 0.8651012159	-0.283677
C	-2.4246317463	-2.559146801	-0.5754420968	-0.367744
H	 0.6789771608	 1.7712289624	-1.1163079975	 0.156373
H	-0.6928169546	 1.9977718807	-0.0047334705	 0.109866
H	 0.9691113581	 1.863462856	 0.6181681081	 0.15632
H	-1.8218759946	 0.1118744345	 0.3009332947	 0.240405
H	-0.3431656214	-2.4312202864	 0.1765892369	 0.138736
H	-1.4612263102	-2.9902627069	 2.3482341754	 0.141461
H	-2.6024548261	-1.6498150405	 2.1103421955	 0.125589
H	-3.1399431603	-1.8128740602	-0.9415074623	 0.125592
H	-2.1238402052	-3.1912735016	-1.4140779934	 0.141463
11.7413	37.422	53.7659	91.7747	200.1947	309.9016	342.4705	418.4829	442.4102	443.3388	499.7044	576.6927	630.225	662.1536	689.8436	786.2065	909.5353	925.2531	938.8987	988.8394	1006.1436	1050.7132	1067.1959	1108.5283	1145.7752	1184.1552	1206.5327	1238.1591	1263.8905	1279.5173	1367.121	1397.464	1424.021	1446.4083	1469.794	1486.6944	1535.5761	1783.3475	1899.8654	3042.9102	3048.3161	3049.5807	3111.8964	3115.8298	3128.197	3129.2738	3136.1957	3634.775
CC(=O)NC1CC(=O)C1	CC(=O)NC1CC(=O)C1	
InChI=1S/C6H9NO2/c1-4(8)7-5-2-6(9)3-5/h5H,2-3H2,1H3,(H,7,8)	InChI=1S/C6H9NO2/c1-4(8)7-5-2-6(9)3-5/h5H,2-3H2,1H3,(H,7,8)
