18
gdb 11545	4.20533	1.18601	1.01798	3.4325	70.25	-0.2358	0.0409	0.2768	1187.7532	0.153644	-381.120953	-381.112141	-381.111196	-381.155199	30.832	
C	 0.0271523848	 1.3010952594	-0.7793720681	-0.331829
N	 0.2232046845	-0.1152286911	-1.0004962396	-0.295188
C	 0.8934787316	-0.9091214812	-0.128190684	 0.387363
O	 1.4024377627	-0.5273042205	 0.911585704	-0.384142
C	 0.9382611939	-2.3876092222	-0.5316931706	-0.257485
N	 0.6409571118	-2.6055920942	-1.9428148544	-0.081222
C	 1.7903782386	-2.7449811216	-2.8365147045	-0.221765
C	 0.9574133629	-3.9253446126	-2.4789205289	-0.216823
H	 0.5383094618	 1.5610029437	 0.1488122763	 0.167086
H	 0.4478576122	 1.8949363258	-1.598742112	 0.121988
H	-1.036163604	 1.5491833671	-0.6814977886	 0.123216
H	-0.1560018671	-0.5710709481	-1.8173317629	 0.255266
H	 1.9197918349	-2.7781157307	-0.2230606441	 0.114759
H	 0.1818229393	-2.9093907447	 0.0671988112	 0.133634
H	 1.6921997031	-2.2773321766	-3.8115863844	 0.120843
H	 2.7830522252	-2.6801139182	-2.3952480006	 0.123498
H	 1.3935461284	-4.6552550385	-1.7997873226	 0.118318
H	 0.2415407154	-4.3314782557	-3.187495076	 0.122482
69.5436	77.9035	99.2856	143.8442	165.3611	290.7835	350.2683	382.5165	458.589	565.5295	649.3307	682.5784	777.6869	843.5681	875.2429	906.4212	1002.6378	1034.0789	1055.052	1104.4602	1118.1918	1124.1701	1154.5076	1172.4665	1175.9738	1188.1015	1260.3594	1269.3225	1320.9148	1355.6286	1437.9029	1468.9605	1492.8589	1495.8232	1500.6704	1520.5792	1568.5388	1786.1214	2994.1562	3023.9716	3058.3904	3073.8527	3101.3965	3105.7339	3147.6158	3184.5739	3198.931	3607.3255
CNC(=O)CN1CC1	CNC(=O)CN1CC1	
InChI=1S/C5H10N2O/c1-6-5(8)4-7-2-3-7/h2-4H2,1H3,(H,6,8)	InChI=1S/C5H10N2O/c1-6-5(8)4-7-2-3-7/h2-4H2,1H3,(H,6,8)
