21
gdb 70293	3.253	1.364	1.21441	1.1324	82.41	-0.2159	0.0863	0.3022	1133.8644	0.182442	-387.074712	-387.066471	-387.065527	-387.107008	33.473	
C	-0.2645335169	 1.5640338039	 0.2592295386	-0.469985
C	 0.1708438337	 0.1418612436	 0.0563166313	 0.44606
C	-0.7105897008	-1.0414306667	 0.374802274	-0.354838
C	 0.5912079972	-0.8216363206	 1.1342762891	-0.113987
C	 1.8263789073	-1.5265362643	 0.5997694645	-0.305003
C	 1.7780621914	-1.1902016975	-0.890562719	 0.438274
C	 2.8957371297	-1.4149377784	-1.8515356704	-0.34854
C	 1.6261878608	-2.2445856713	-1.95734447	-0.317051
O	 1.0451463561	 0.0087387764	-1.0475369253	-0.32786
H	 0.6027429773	 2.2176629836	 0.396914936	 0.123378
H	-0.8273716873	 1.9251146515	-0.6080359561	 0.126582
H	-0.9072971501	 1.646607156	 1.1398444491	 0.116006
H	-1.6319244016	-0.8422947033	 0.9121477544	 0.107223
H	-0.77100444	-1.8581415131	-0.3361306871	 0.12038
H	 0.5505845803	-0.5542059161	 2.184087308	 0.085978
H	 2.7233310918	-1.1049689445	 1.0692246405	 0.105589
H	 1.833561908	-2.607398025	 0.7713202548	 0.104367
H	 3.0550856874	-0.6506444058	-2.6038274383	 0.12433
H	 3.8006282662	-1.8895536687	-1.486713933	 0.112749
H	 1.6635853784	-3.2903858731	-1.6683994941	 0.107144
H	 0.9561514911	-2.0170463266	-2.7788974569	 0.119202
103.4676	177.9155	203.3324	248.3849	308.1011	359.1055	398.8716	418.4107	470.1315	525.2789	620.1028	718.2881	769.1745	777.1512	821.2984	854.8953	870.332	897.5152	931.4076	937.9444	953.5493	985.1996	1010.2745	1043.862	1047.5296	1056.3453	1073.814	1090.1098	1106.9097	1125.8465	1190.1122	1196.169	1229.0938	1255.8616	1297.8141	1313.1304	1376.0031	1393.7021	1429.294	1451.7709	1477.3337	1480.4294	1495.3129	1500.2591	1507.495	3031.3336	3036.1884	3078.5207	3100.2364	3117.8628	3124.9774	3130.8961	3132.8045	3172.0477	3212.8895	3219.2273	3227.4374
CC12CC1CC1(CC1)O2	C[C@]12C[C@H]1CC1(CC1)O2	
InChI=1S/C8H12O/c1-7-4-6(7)5-8(9-7)2-3-8/h6H,2-5H2,1H3	InChI=1S/C8H12O/c1-7-4-6(7)5-8(9-7)2-3-8/h6H,2-5H2,1H3/t6-,7-/m0/s1
