23
gdb 82855	2.4067	1.92672	1.65117	0.1652	87.13	-0.2672	0.083	0.3501	987.1535	0.210584	-351.174795	-351.167758	-351.166814	-351.205597	30.812	
C	-0.2680492893	 1.5453176934	 0.0267611049	-0.42651
C	 0.0473000492	 0.0503396358	-0.0096399443	 0.055907
C	 0.751809759	-0.4822823168	-1.292957082	-0.03962
C	 2.0519782243	 0.2857617972	-1.6349297243	-0.227567
C	 2.7483995921	-0.5401509398	-0.5299338123	-0.012698
C	 2.4129182994	 0.0183311703	 0.8787866188	-0.221757
C	 0.9713362524	-0.4951424161	 1.1125688029	-0.022418
C	 1.1119936678	-1.9701082714	 0.6795026073	-0.234221
C	 1.6439244765	-1.6464906642	-0.7153378564	-0.010625
H	 0.6309888212	 2.1675571775	 0.0166755565	 0.117223
H	-0.8787228163	 1.8375120435	-0.8348931894	 0.110947
H	-0.8312380338	 1.7991887621	 0.9314614156	 0.109124
H	-0.9090258276	-0.4833681001	 0.0767340001	 0.064344
H	 0.0521091957	-0.6859848846	-2.1065785957	 0.052482
H	 2.4161203074	 0.0127065895	-2.630440852	 0.089678
H	 2.0630552914	 1.3766224248	-1.5491563526	 0.08496
H	 3.8014781368	-0.7967840961	-0.660356565	 0.053048
H	 3.0844337362	-0.4010916584	 1.6360203511	 0.090175
H	 2.5083019519	 1.1074830975	 0.9307073236	 0.089927
H	 0.5911828183	-0.3234583166	 2.1227103853	 0.048548
H	 1.8245346963	-2.5346503292	 1.29068673	 0.086071
H	 0.157848157	-2.5074631996	 0.6706052543	 0.087369
H	 1.8814317639	-2.4666607587	-1.3920746462	 0.055613
197.9027	218.9009	268.4568	383.1373	394.7625	444.3934	503.4948	556.9668	600.5419	736.9207	760.1191	802.3456	839.3583	850.1328	880.8707	891.7008	917.6255	930.8355	954.089	958.7913	994.0324	999.6895	1016.264	1035.6932	1078.056	1086.238	1107.8285	1117.4001	1137.107	1149.3879	1193.9484	1212.4083	1226.361	1245.0498	1260.9847	1274.6557	1293.758	1299.414	1314.2943	1334.7396	1351.1775	1361.9792	1383.9555	1415.2732	1482.2399	1488.918	1495.8648	1508.8084	1513.0333	3001.5458	3032.0647	3036.8488	3040.3668	3041.2738	3074.6485	3077.5758	3080.6039	3082.908	3085.3415	3089.1843	3090.4584	3113.0594	3119.8543
CC1C2CC3CC1CC23	C[C@H]1[C@H]2C[C@H]3C[C@@H]1C[C@@H]23	
InChI=1S/C9H14/c1-5-6-2-7-4-8(5)9(7)3-6/h5-9H,2-4H2,1H3	InChI=1S/C9H14/c1-5-6-2-7-4-8(5)9(7)3-6/h5-9H,2-4H2,1H3/t5-,6-,7-,8-,9-/m1/s1
