23
gdb 121622	4.08635	0.61918	0.55863	2.9725	83.42	-0.2596	-0.0229	0.2366	2051.7564	0.202502	-425.460124	-425.448853	-425.447909	-425.497903	39.852	
C	 0.0772683541	 1.534404142	-0.0907964891	-0.381059
C	-0.0503497152	 0.0322134683	 0.1753431802	-0.171353
C	-1.4790528956	-0.4871417678	-0.0148736486	-0.157726
C	-1.6048428188	-1.9888862634	 0.2495581503	-0.308761
C	-3.0189903972	-2.5196062079	 0.1294072047	 0.352643
O	-3.9900872156	-1.7910868923	 0.0931349121	-0.328961
C	-3.2335914146	-4.0357088677	 0.0380915329	 0.066621
C	-2.6213372493	-4.7889523599	 1.2271047981	-0.402573
O	-4.6039574877	-4.3142972816	-0.059031974	-0.439281
H	 1.1059581676	 1.8790172396	 0.0526655718	 0.112866
H	-0.2170618249	 1.7807479793	-1.1169070888	 0.116698
H	-0.5653237905	 2.1109331129	 0.5835672907	 0.117666
H	 0.6303162076	-0.5172879969	-0.4888792812	 0.09417
H	 0.2832003863	-0.1885549821	 1.1983196656	 0.094687
H	-2.1663390465	 0.0496033179	 0.6479403436	 0.117201
H	-1.8205334871	-0.2708731288	-1.0346320674	 0.106105
H	-0.9529506225	-2.5690951473	-0.4172825193	 0.119739
H	-1.2558277584	-2.2272382726	 1.2652991632	 0.134398
H	-2.7151556621	-4.3630259663	-0.8820893024	 0.086657
H	-3.0420502062	-4.4251543612	 2.1695338524	 0.126714
H	-2.863570272	-5.8504578107	 1.1350107772	 0.137323
H	-1.5328210786	-4.6850790091	 1.2571100486	 0.114861
H	-5.0370039628	-3.4447736643	-0.0748897609	 0.291365
35.5284	58.9659	84.3761	103.9077	126.8203	207.8901	237.324	242.4095	285.6457	311.8922	368.6489	409.447	455.6465	488.9392	575.1597	687.7607	735.2869	786.1839	811.8156	909.2512	921.6565	932.1479	1003.9562	1024.7036	1060.0655	1074.2894	1083.3282	1134.885	1144.1523	1194.0738	1234.3234	1271.3999	1294.9558	1313.9643	1328.7167	1357.6997	1374.104	1399.5999	1400.8007	1414.1406	1434.9241	1450.0986	1484.5023	1489.432	1495.4251	1499.034	1499.7749	1511.4666	1786.3697	2935.3039	3009.3751	3011.7723	3030.859	3035.1092	3041.4164	3042.6778	3043.8705	3083.2083	3099.1113	3104.075	3118.762	3127.0832	3668.6374
CCCCC(=O)C(C)O	CCCCC(=O)[C@@H](C)O	
InChI=1S/C7H14O2/c1-3-4-5-7(9)6(2)8/h6,8H,3-5H2,1-2H3	InChI=1S/C7H14O2/c1-3-4-5-7(9)6(2)8/h6,8H,3-5H2,1-2H3/t6-/m1/s1
