20
gdb 62758	3.49692	1.18519	1.15532	3.6954	79.25	-0.2329	0.0309	0.2638	1167.0356	0.171419	-403.191548	-403.182856	-403.181912	-403.224476	33.811	
C	-0.0654950042	 1.5503649444	 0.0377629575	-0.472189
C	 0.0188023323	 0.038648758	-0.008333528	 0.303315
C	-1.2002775582	-0.6649610237	 0.5611137012	-0.4492
C	 0.6911870646	-0.6854141954	-1.16885817	-0.099449
C	 1.6377556655	 0.0521882512	-2.1005787101	-0.363718
C	 2.7833100849	 0.5569929892	-1.2030149192	 0.384725
O	 3.6912299456	 1.292476375	-1.5175749711	-0.374542
N	 2.565003539	 0.0379824604	 0.0530378382	-0.292365
C	 1.3399265674	-0.6859641365	 0.2024729922	-0.063668
H	 0.8490991709	 2.0420222051	-0.299748871	 0.137024
H	-0.8873815925	 1.9086467163	-0.592663265	 0.120364
H	-0.2640287305	 1.8912687134	 1.0604511732	 0.116684
H	-2.1001384524	-0.4235286187	-0.0164364041	 0.119807
H	-1.0804538088	-1.753265429	 0.5465375596	 0.11419
H	-1.3793058795	-0.3618329269	 1.5991256593	 0.117108
H	 0.2105898689	-1.5850177724	-1.5355427755	 0.090151
H	 2.0492940752	-0.6104515109	-2.868420132	 0.13183
H	 1.1951419307	 0.9072782903	-2.6196301477	 0.133773
H	 3.1046859085	 0.3818526827	 0.8319225321	 0.250219
H	 1.3794274929	-1.5736958025	 0.8258123606	 0.095941
89.2488	165.5068	186.4183	217.5952	259.2039	290.7361	344.2992	433.8821	472.8028	488.7544	497.9136	596.7433	668.9628	687.3294	745.4665	813.8639	855.5259	875.8832	956.0339	971.2768	990.031	1005.8578	1029.0416	1067.5422	1099.2481	1144.7906	1154.1019	1180.802	1225.0787	1249.0201	1286.125	1321.7465	1357.4759	1394.4076	1412.1894	1425.2774	1440.4171	1463.9962	1482.9692	1491.2937	1502.8021	1511.8072	1828.307	3022.2668	3030.4951	3059.9129	3082.826	3085.9739	3096.0814	3098.0562	3125.5765	3152.1026	3173.9981	3635.085
CC1(C)C2CC(=O)NC12	CC1(C)[C@H]2CC(=O)N[C@@H]12	
InChI=1S/C7H11NO/c1-7(2)4-3-5(9)8-6(4)7/h4,6H,3H2,1-2H3,(H,8,9)	InChI=1S/C7H11NO/c1-7(2)4-3-5(9)8-6(4)7/h4,6H,3H2,1-2H3,(H,8,9)/t4-,6+/m0/s1
