15
gdb 85806	2.72379	1.22417	1.11381	1.7256	68.87	-0.2402	-0.0453	0.1949	1132.6754	0.108596	-457.714286	-457.704945	-457.704001	-457.748461	33.851	
O	 0.9071444527	 0.2231390938	 1.0135158291	-0.423279
C	 0.0982284055	-0.4512377566	 0.1051635135	 0.054037
C	-1.4264815389	-0.1071347162	-0.0688599349	-0.307211
C	-1.3125434226	-0.342395736	-1.602526814	 0.101238
O	-1.5928132852	-1.7172999699	-1.8475877441	-0.461298
C	-1.9896169826	 0.5569269001	-2.5131261124	 0.270135
C	-2.5144368248	 1.3018462594	-3.2976727064	-0.418504
C	 0.2355208611	-0.1349866515	-1.3927822095	 0.284988
O	 1.1039279271	 0.3586866384	-2.0477808593	-0.291221
H	 1.1497542146	 1.0751296624	 0.6326332173	 0.293975
H	 0.2046702356	-1.5250378128	 0.287115917	 0.137631
H	-2.1358050939	-0.7625063305	 0.435488867	 0.134176
H	-1.6341460385	 0.9399211219	 0.159398223	 0.127069
H	-1.4079771864	-1.8914007455	-2.778086765	 0.294049
H	-2.9858548339	 1.9614199829	-3.9842469014	 0.204214
69.9954	104.0079	140.8765	183.1585	223.242	284.7287	326.7608	338.657	378.557	404.2886	492.8872	565.1354	609.7895	627.1683	678.4288	741.5781	750.9887	845.2256	925.7429	937.4714	979.2863	1059.7957	1111.5885	1152.3499	1168.7779	1221.3891	1252.4003	1318.9443	1363.4964	1416.7099	1462.8921	1883.1311	2231.2638	3074.0769	3088.5168	3161.132	3498.9641	3795.6361	3799.0576
OC1CC(O)(C#C)C1=O	O[C@H]1C[C@@](O)(C#C)C1=O	
InChI=1S/C6H6O3/c1-2-6(9)3-4(7)5(6)8/h1,4,7,9H,3H2	InChI=1S/C6H6O3/c1-2-6(9)3-4(7)5(6)8/h1,4,7,9H,3H2/t4-,6-/m0/s1
