20
gdb 89451	2.49744	1.61865	1.22969	1.1401	80.71	-0.2067	0.0198	0.2265	1096.2884	0.170814	-403.12809	-403.11961	-403.118665	-403.160976	33.053	
C	-0.0883738272	 1.5794951001	 0.1908073827	-0.324944
N	-0.0054456007	 0.1385138717	 0.1194624496	-0.079467
C	-1.2299696695	-0.6411895118	 0.3922669547	-0.236082
C	-0.402344333	-1.6220217442	 1.270384687	 0.370431
O	-0.8743601488	-1.8339688457	 2.5807062166	-0.475985
C	 0.1583091297	-2.9052627332	 0.6027570694	-0.331908
C	 1.6273989877	-2.602364371	 0.4069920645	-0.063768
C	 1.9516975696	-1.3494099543	 0.7278551137	-0.061725
C	 0.7454767953	-0.5829469784	 1.1914236101	-0.044314
H	 0.9075348605	 2.016335978	 0.0587083312	 0.117851
H	-0.7252327329	 1.9546788534	-0.6179659159	 0.118051
H	-0.5013629111	 1.9518014451	 1.148367418	 0.090498
H	-1.9640078026	-0.1089719386	 1.0168390122	 0.086326
H	-1.7290137974	-1.030033006	-0.5038864288	 0.090688
H	-1.5787791772	-2.4902721759	 2.5446166744	 0.277132
H	 0.0017377201	-3.7735851496	 1.2557676101	 0.100398
H	-0.3346357137	-3.1308450487	-0.3518801411	 0.108841
H	 2.3190341533	-3.3470566787	 0.026536356	 0.093977
H	 2.9425206448	-0.9172997876	 0.644808659	 0.093088
H	 0.8859183731	 0.0091191653	 2.1055142169	 0.070914
65.3379	181.6419	223.1535	242.9188	268.0606	303.9207	331.6411	400.2055	412.7849	510.6152	592.7729	631.8794	727.7913	789.9933	807.2556	895.1766	927.0753	940.6518	964.7521	971.3899	983.3288	1022.6323	1027.3232	1098.9076	1108.0775	1126.825	1161.6653	1184.1035	1190.0974	1216.7308	1255.788	1270.2976	1300.8752	1308.5702	1326.1373	1370.7843	1395.109	1452.0936	1468.9959	1485.8584	1500.0885	1510.6374	1677.3251	2918.5735	2979.4753	3014.6242	3020.5598	3040.9739	3048.1367	3050.8721	3092.2718	3178.1585	3205.4058	3798.4084
CN1CC2(O)CC=CC12	CN1C[C@@]2(O)CC=C[C@@H]12	
InChI=1S/C7H11NO/c1-8-5-7(9)4-2-3-6(7)8/h2-3,6,9H,4-5H2,1H3	InChI=1S/C7H11NO/c1-8-5-7(9)4-2-3-6(7)8/h2-3,6,9H,4-5H2,1H3/t6-,7+/m1/s1
