19
gdb 41166	2.92232	1.77058	1.58374	1.9154	80.19	-0.2304	0.0091	0.2395	932.7264	0.1614	-385.776732	-385.770039	-385.769095	-385.807275	28.769	
C	 0.0873718273	 1.5908742009	-0.1686865894	-0.208678
O	 1.545892482	 1.4299532565	 0.0790643758	-0.331178
C	 1.1247912047	 0.2954762369	 0.9322865755	 0.177667
C	 1.1834168653	-1.2435879957	 1.268431245	-0.162984
C	-0.4286300606	-1.049691274	 1.160521797	-0.325371
C	-0.0656650257	 0.052789177	 0.0888641612	 0.235669
C	 0.2544293023	-0.678528839	-1.2470385612	-0.273196
C	 1.1911061175	-1.8448832348	-1.0772593531	-0.062072
C	 1.6585594732	-2.1117197063	 0.1384374343	-0.044204
H	-0.3600727398	 2.2388793815	 0.5942966913	 0.105033
H	-0.1057049157	 1.9763768696	-1.1731369053	 0.110699
H	 0.8400011039	 0.7667555118	 1.8852046646	 0.076132
H	 1.5919690154	-1.5243234258	 2.2401463613	 0.073543
H	-0.9769729498	-1.9285734656	 0.8147449926	 0.110212
H	-0.8633911816	-0.6617366151	 2.0826194631	 0.112433
H	-0.6991200494	-1.0077993502	-1.686190672	 0.103716
H	 0.6924181149	 0.0194645542	-1.9690579715	 0.120608
H	 1.4896811496	-2.4084464471	-1.9562115031	 0.090588
H	 2.3622646663	-2.9128763349	 0.337847744	 0.091383
183.5953	268.5246	342.0795	385.8144	414.7267	469.9647	511.2008	579.9917	635.281	713.0869	737.656	769.4297	821.6458	842.7704	870.9134	903.8899	930.0294	951.6254	966.5448	978.2954	998.6112	1027.0524	1058.6983	1083.8359	1122.0274	1132.951	1159.9829	1166.186	1207.1384	1225.6515	1259.8658	1266.6688	1305.5111	1338.7076	1365.8625	1390.666	1460.3075	1465.1157	1484.3976	1507.9652	1716.2043	2967.0975	2999.2135	3028.3755	3057.2863	3070.2713	3100.1789	3105.777	3141.6268	3165.0804	3190.9497
C1OC2C3CC12CC=C3	C1O[C@@H]2[C@H]3C[C@@]12CC=C3	
InChI=1S/C8H10O/c1-2-6-4-8(3-1)5-9-7(6)8/h1-2,6-7H,3-5H2	InChI=1S/C8H10O/c1-2-6-4-8(3-1)5-9-7(6)8/h1-2,6-7H,3-5H2/t6-,7-,8+/m1/s1
