22
gdb 110021	1.9829	1.5862	1.0014	3.0667	83.21	-0.254	0.0299	0.2838	1271.0101	0.194998	-404.382605	-404.373162	-404.372218	-404.416802	35.488	
C	 0.0974407946	 1.6249804401	 0.0498883153	-0.38451
C	 0.0727531151	 0.0972432659	 0.1550673218	-0.190489
C	-1.347187618	-0.5023310673	 0.032752286	-0.091484
C	-1.4133283351	-2.0515350876	 0.0226214903	-0.007565
C	-0.3009429389	-2.8135312888	-0.6927081576	-0.425012
C	-1.5237037678	-2.3623254585	 1.521661551	-0.091629
O	-2.2478121225	-1.2604340539	 2.0869505107	-0.240668
C	-2.1915771622	-0.1762691558	 1.2530878024	 0.407801
N	-2.7621116417	 0.9260691534	 1.4926381168	-0.539569
H	 1.117009327	 2.0034372902	 0.1726880042	 0.10491
H	-0.265619664	 1.9527961685	-0.9304908126	 0.11231
H	-0.5427451543	 2.0838317041	 0.8063750069	 0.152377
H	 0.6965228347	-0.3285034004	-0.6387774826	 0.099309
H	 0.527015487	-0.2163859311	 1.1040579751	 0.098612
H	-1.8239641903	-0.0770441787	-0.8545014338	 0.097447
H	-2.371306697	-2.3264251196	-0.4365183574	 0.088923
H	 0.6772450334	-2.6348499386	-0.2366079593	 0.12488
H	-0.4904588733	-3.8916679184	-0.656530611	 0.11819
H	-0.2385538953	-2.5269224787	-1.7472133027	 0.124628
H	-2.0768484113	-3.2791547357	 1.741622975	 0.116693
H	-0.5360815329	-2.4294380124	 1.9980434819	 0.106798
H	-3.2469116973	 0.8863164735	 2.3916376397	 0.218049
72.4152	115.6381	182.2119	187.2992	217.7341	231.9462	263.8045	296.089	361.3587	440.4	499.2003	595.7339	673.7166	682.0528	759.1349	842.617	874.8414	895.077	906.6102	955.0646	961.1365	1008.7313	1038.592	1056.7773	1088.5785	1105.3705	1131.7106	1167.7709	1177.5194	1222.3576	1260.0902	1288.7967	1292.8793	1340.5012	1352.8247	1370.9418	1378.5047	1407.1653	1416.2511	1418.1286	1486.9411	1495.904	1498.0187	1504.1436	1511.0914	1524.2003	1766.6086	3011.0399	3021.5624	3025.7036	3036.1686	3037.305	3059.2271	3078.2709	3093.2602	3099.5247	3100.2998	3111.4192	3134.7504	3461.2477
CCC1C(C)COC1=N	CC[C@H]1[C@@H](C)CO[C]1[NH]	
InChI=1S/C7H13NO/c1-3-6-5(2)4-9-7(6)8/h5-6,8H,3-4H2,1-2H3	InChI=1S/C7H13NO/c1-3-6-5(2)4-9-7(6)8/h5-6,8H,3-4H2,1-2H3/t5-,6-/m0/s1
