21
gdb 62908	3.67398	1.14335	1.00462	2.7405	84.16	-0.2449	-0.0224	0.2225	1252.0802	0.181219	-387.043307	-387.034263	-387.033319	-387.076996	34.48	
O	-0.0833458698	 0.7437167261	 2.1963741127	-0.248553
C	 0.3332728745	 0.8656230431	 1.0703347487	 0.110331
C	 1.3846851738	 1.8333651011	 0.6088594632	-0.060177
C	 0.9568873999	 3.2045142832	-0.0451904308	-0.10447
C	 0.5490298076	 3.6463720192	 1.3898450084	-0.249614
C	 1.9369551146	 2.9471572295	 1.5448116662	-0.09111
C	 2.4186782546	 3.72382431	 0.2540635606	 0.364484
C	 3.595277473	 3.1650754572	-0.5575574137	-0.470922
C	 2.6416873749	 5.2391353884	 0.3526702773	-0.468862
H	-0.042555449	 0.2018650301	 0.2548801565	 0.07045
H	 2.1048077948	 1.2575087534	 0.0230623059	 0.076217
H	 0.3883417264	 3.3271392208	-0.9698439771	 0.071204
H	 0.4886044453	 4.7123576878	 1.59372086	 0.094671
H	-0.2927476155	 3.1258699358	 1.8412885654	 0.12384
H	 2.4953453471	 2.7916361962	 2.469156886	 0.075491
H	 3.5847441885	 2.0858950518	-0.7121209725	 0.116821
H	 3.6257134058	 3.6357347216	-1.5467326673	 0.117532
H	 4.5394154565	 3.4101723695	-0.0583498058	 0.119601
H	 3.6038678762	 5.4422220591	 0.8362185009	 0.117958
H	 2.6908273453	 5.675415736	-0.6514833989	 0.116109
H	 1.8777088656	 5.7822793599	 0.9073286144	 0.118997
89.8333	97.9957	152.6049	201.7914	207.2201	249.7966	340.9203	391.108	440.8838	481.0061	552.7433	643.3811	718.9394	737.8377	786.5394	834.0031	883.0521	898.1115	949.5533	955.0688	996.0605	1006.2757	1011.2354	1033.2551	1069.1293	1084.7818	1111.25	1138.4259	1166.3267	1183.8137	1193.0569	1212.5908	1223.5227	1249.3728	1298.728	1375.7836	1413.4885	1426.9998	1432.0322	1483.0978	1487.8586	1511.1258	1511.6256	1556.2168	1817.6182	2842.4733	3032.3351	3039.1124	3081.0373	3083.8437	3088.0385	3090.8243	3102.2067	3121.011	3131.7768	3148.3035	3179.0512
O=CC1C2CC1C2(C)C	O=C[C@H]1[C@H]2C[C@@H]1C2(C)C	
InChI=1S/C8H12O/c1-8(2)6-3-7(8)5(6)4-9/h4-7H,3H2,1-2H3	InChI=1S/C8H12O/c1-8(2)6-3-7(8)5(6)4-9/h4-7H,3H2,1-2H3/t5-,6+,7-
