22
gdb 33122	2.96003	0.99269	0.7939	1.6737	89.75	-0.195	0.054	0.249	1519.1306	0.1945	-367.264982	-367.255061	-367.254117	-367.300303	36.623	
C	-0.0436575547	 1.5902028424	 0.0310744224	-0.377761
C	-0.0324740456	 0.0599949493	 0.0004101149	-0.150332
C	 0.7390381965	-0.511460957	-1.205115688	-0.309852
C	 0.7539694568	-2.012134833	-1.2651380719	 0.195969
C	 1.7779480373	-2.8330397928	-0.8468893054	-0.175342
N	 1.3971084447	-4.1349576593	-1.0490421687	-0.244222
C	 0.1394563174	-4.1625289761	-1.5973141881	-0.166112
C	-0.2954344496	-2.8651252219	-1.7460804106	 0.196285
C	-1.6133630244	-2.4350064297	-2.3178854187	-0.51139
H	 0.974241492	 1.9934650281	 0.0830760518	 0.110375
H	-0.5134243204	 2.001575384	-0.8697301959	 0.111175
H	-0.5959208417	 1.9699562197	 0.8966228116	 0.108019
H	 0.4153030965	-0.3303163814	 0.9225717954	 0.09454
H	-1.0625142493	-0.3167881706	-0.017042132	 0.098925
H	 0.2996435092	-0.1052634278	-2.1267549336	 0.093109
H	 1.770003191	-0.1361179216	-1.1732518213	 0.091064
H	 2.7440303903	-2.5922812149	-0.43109046	 0.109653
H	 1.957883367	-4.9420465932	-0.8437699287	 0.257248
H	-0.3420381343	-5.096034718	-1.8437436655	 0.109895
H	-2.251869586	-1.946011785	-1.5718194424	 0.122623
H	-1.4865501454	-1.7213773609	-3.1411926818	 0.120874
H	-2.1691792772	-3.2918699604	-2.7105154735	 0.115258
55.0953	80.0015	114.669	133.0045	236.7119	250.7823	253.1609	308.5271	369.4173	401.9598	441.2788	632.4963	639.231	667.2409	705.6765	739.1664	751.1374	770.9538	869.3331	896.5645	911.2616	1002.1142	1040.6548	1063.0547	1068.0429	1091.9834	1110.8393	1127.4211	1205.3318	1243.5496	1270.6623	1304.1798	1319.9993	1340.1793	1381.2507	1401.0447	1411.5299	1420.4664	1472.6646	1478.7236	1483.0898	1492.8658	1499.147	1501.0892	1509.8658	1559.3382	1621.1534	3004.9704	3017.9305	3025.7594	3027.8882	3037.1255	3061.5438	3063.0341	3093.5726	3098.6213	3099.1387	3251.3056	3254.5239	3692.3698
CCCC1=CNC=C1C	CCCc1c[nH]cc1C	
InChI=1S/C8H13N/c1-3-4-8-6-9-5-7(8)2/h5-6,9H,3-4H2,1-2H3	InChI=1S/C8H13N/c1-3-4-8-6-9-5-7(8)2/h5-6,9H,3-4H2,1-2H3
