19
gdb 27279	3.14358	1.53171	1.06389	3.9758	82.56	-0.2026	0.0419	0.2446	1139.7894	0.162811	-382.130848	-382.122959	-382.122015	-382.163522	29.77	
C	-0.1051916328	 1.5093920985	 0.0773051742	-0.488121
C	-0.0277741487	 0.0204386793	-0.0301755219	 0.120761
C	 0.112642304	-0.7639230279	-1.1485074717	 0.276155
C	 0.2881308984	-0.7452388816	-2.637579663	-0.355293
C	-0.0122700821	-2.2250117778	-3.0190781025	-0.210627
C	 0.3171246734	-3.0518985909	-1.7500240072	-0.181324
N	 0.1230082356	-2.0662265092	-0.6974974896	-0.004342
C	-0.0009289487	-2.0308040111	 0.6547333441	-0.036687
N	-0.1011764377	-0.7904578634	 1.0884151343	-0.326566
H	 0.7393618707	 1.9125866421	 0.6476612028	 0.129525
H	-0.0979270051	 1.9774796415	-0.911387754	 0.108652
H	-1.0186672158	 1.8199118442	 0.5957263379	 0.131084
H	-0.3823262027	-0.0493799885	-3.1492793342	 0.120459
H	 1.3123157441	-0.4685067158	-2.9203583509	 0.116901
H	-1.0760979699	-2.3320874139	-3.2499220398	 0.121372
H	 0.5527951916	-2.565904034	-3.8892197705	 0.110182
H	-0.3419179377	-3.9143893548	-1.6200970341	 0.125024
H	 1.3535138779	-3.4117898088	-1.754453059	 0.12144
H	-0.0253261645	-2.9198793977	 1.2670050251	 0.121407
82.9663	127.1538	170.0146	238.5939	242.6453	303.9569	487.3495	564.6794	617.9756	649.5362	684.9612	721.3046	792.3947	800.9302	866.8878	897.6034	918.834	981.7035	1001.6569	1061.047	1071.0318	1095.814	1168.2359	1180.8201	1219.1812	1231.3086	1249.4279	1286.7271	1317.8654	1333.0827	1353.9418	1400.9814	1416.8132	1428.2709	1476.8733	1488.0271	1490.6738	1500.0196	1506.9965	1530.8243	1637.2998	3018.0215	3026.9013	3030.0156	3062.0649	3083.4952	3083.7635	3090.6955	3108.898	3117.7843	3247.7693
CC1=C2CCCN2C=N1	Cc1c2CCCn2cn1	
InChI=1S/C7H10N2/c1-6-7-3-2-4-9(7)5-8-6/h5H,2-4H2,1H3	InChI=1S/C7H10N2/c1-6-7-3-2-4-9(7)5-8-6/h5H,2-4H2,1H3
