18
gdb 106468	3.3066	1.45979	1.26325	1.1168	70.82	-0.2523	0.0113	0.2636	1025.3187	0.149595	-439.076711	-439.069267	-439.068323	-439.108461	29.72	
O	 0.0382114819	 1.4129869996	-0.1156699373	-0.41769
C	 0.0339393062	 0.0157300441	 0.103499156	-0.151779
C	-1.3499805082	-0.570686129	-0.0352376131	 0.398231
C	-2.1383575081	-0.5432001151	-1.3695167245	-0.264654
C	-2.9314193131	-1.7417944082	-0.7665769892	-0.000441
C	-1.6294201477	-2.0942177454	 0.0170911118	-0.284829
N	-3.9288029693	-1.2238844343	 0.1786213763	-0.252708
C	-3.4559296602	-0.3550082486	 0.9688055666	 0.101203
O	-2.1677388842	 0.0773515877	 0.9827121002	-0.284992
H	-0.6043385771	 1.7875912769	 0.4976028364	 0.292322
H	 0.6884349357	-0.42808466	-0.6531394459	 0.111344
H	 0.438076923	-0.2442424459	 1.0953543112	 0.096208
H	-2.6944548222	 0.3613868242	-1.6192472633	 0.114657
H	-1.4983826216	-0.8431994324	-2.2018579107	 0.109656
H	-3.3813441755	-2.482240889	-1.4261035803	 0.080186
H	-0.9125294515	-2.6433175195	-0.5972945553	 0.109845
H	-1.7368142783	-2.5633852536	 0.9968689954	 0.112628
H	-4.0526190597	 0.1356113285	 1.7332871258	 0.130811
105.5559	157.5111	274.3452	335.4967	370.2095	404.2477	438.6795	467.7475	504.6512	614.2253	680.6797	761.709	840.4681	855.8752	875.0876	925.9946	935.5233	950.4835	976.4309	986.736	1052.932	1077.601	1099.687	1126.2232	1143.5413	1170.0697	1183.5316	1228.4781	1255.2405	1268.6201	1314.6927	1339.9933	1378.0526	1382.6702	1438.4949	1464.4503	1490.1376	1496.0916	1704.8023	2978.5394	3068.1293	3076.5748	3084.7435	3120.1478	3134.145	3141.1966	3179.4925	3804.7207
OCC12CC(C1)N=CO2	OC[C@@]12C[C@@H](C1)[N][CH]O2	
InChI=1S/C6H9NO2/c8-3-6-1-5(2-6)7-4-9-6/h4-5,8H,1-3H2	InChI=1S/C6H9NO2/c8-3-6-1-5(2-6)7-4-9-6/h4-5,8H,1-3H2/t5-,6+
