15
gdb 128939	7.27856	0.75619	0.69421	5.4532	72.91	-0.2164	0.0148	0.2312	1507.5702	0.115054	-413.008364	-413.00023	-412.999286	-413.042482	28.948	
N	-0.0208955663	-1.1320450485	 0.2283360362	-0.292465
C	 0.0164992651	 0.0100811685	 0.0628913793	 0.256433
C	 0.0632388026	 1.45477612	-0.1775381739	-0.272754
N	 1.3266366583	 2.0134519987	 0.2780917179	-0.389912
C	 1.5038215618	 3.3889699556	 0.1234199782	 0.416898
N	 2.7166496092	 3.8706143034	-0.1366728712	-0.321774
N	 2.5416999334	 5.2136775289	-0.1465677298	-0.179829
C	 1.2643616062	 5.5828548808	 0.0793070135	-0.013467
C	 0.5418599861	 4.4216730109	 0.2624821738	-0.287566
H	-0.1447283153	 1.6326331704	-1.2463610964	 0.146714
H	-0.7575451101	 1.9157686246	 0.3834441908	 0.164951
H	 2.1323651941	 1.5028133709	-0.0605613695	 0.25437
H	 3.3362952863	 5.8029797523	-0.3223800893	 0.278487
H	 0.964716383	 6.618877525	 0.097390532	 0.136405
H	-0.5108461145	 4.3428526484	 0.4758146184	 0.103508
39.9348	64.8421	110.9982	223.1342	329.567	386.155	423.5898	454.3006	502.5568	647.3913	680.0519	727.0409	753.2798	775.3726	826.2633	942.1422	957.8792	990.2404	1004.1599	1067.7763	1127.6386	1134.9702	1211.5694	1248.077	1323.4251	1343.395	1406.3822	1477.2137	1491.2096	1502.3255	1525.0211	1606.6046	2372.1914	2963.1807	3061.7626	3258.2173	3279.0808	3574.6716	3689.3782
N#CCNC1=NNC=C1	N#CCNc1n[nH]cc1	
InChI=1S/C5H6N4/c6-2-4-7-5-1-3-8-9-5/h1,3H,4H2,(H2,7,8,9)	InChI=1S/C5H6N4/c6-2-4-7-5-1-3-8-9-5/h1,3H,4H2,(H2,7,8,9)
