18
gdb 97399	4.09677	0.93096	0.87465	3.0144	76.19	-0.2417	0.0291	0.2708	1388.7117	0.146324	-439.020731	-439.012097	-439.011153	-439.054928	31.179	
C	 0.2609843208	 0.8499268575	-0.4035768519	-0.313176
N	-0.284510818	-0.1163543092	 0.5267092903	-0.211493
C	 0.5059811454	-0.9676960981	 1.0018906776	 0.144398
O	 0.0495914302	-1.9126575942	 1.8637221317	-0.213007
C	 1.0121159179	-2.7544061917	 2.4324472516	 0.080604
C	 0.8116347859	-4.2413995049	 2.3832416414	-0.181113
C	 0.2947456033	-4.6137384757	 0.995815454	-0.085921
O	 1.3882032138	-3.9031401861	 0.3461227403	-0.278586
C	 1.9533993776	-3.585495638	 1.6101617458	 0.041668
H	 1.3424606106	 0.7383252295	-0.58561875	 0.096505
H	-0.258083247	 0.767302975	-1.3652987618	 0.128378
H	 0.0773217652	 1.8636824733	-0.0296314239	 0.125821
H	 1.5800985351	-1.0403013806	 0.7836504247	 0.085379
H	 1.4250579886	-2.3871439316	 3.3706382658	 0.109973
H	 0.7966799003	-4.8705258094	 3.2624958019	 0.109125
H	 0.3609589208	-5.6838380252	 0.7784976804	 0.116791
H	-0.6843059441	-4.2202189858	 0.7079968241	 0.132717
H	 3.0335859936	-3.6013163648	 1.7063192179	 0.111935
48.456	97.7423	133.6552	194.7636	230.8961	261.0916	321.5058	399.9637	451.4458	568.4461	719.5527	735.3472	803.9558	829.6422	929.1321	968.4477	975.3948	980.9701	1027.6559	1038.4896	1053.6886	1078.0205	1080.9428	1133.0998	1140.3697	1141.6504	1171.1034	1186.7533	1247.0724	1262.241	1315.491	1350.0725	1395.2406	1431.893	1451.325	1481.2321	1504.0396	1506.1725	1781.6106	2968.9968	3028.8432	3050.3915	3058.4407	3077.5192	3107.7332	3124.54	3173.76	3209.9922
CN=COC1C2COC12	CN=CO[C@H]1[C@H]2CO[C@@H]12	
InChI=1S/C6H9NO2/c1-7-3-9-6-4-2-8-5(4)6/h3-6H,2H2,1H3	InChI=1S/C6H9NO2/c1-7-3-9-6-4-2-8-5(4)6/h3-6H,2H2,1H3/t4-,5+,6-/m0/s1
