18
gdb 37296	3.13459	1.84516	1.74426	1.6677	73.45	-0.2051	0.0525	0.2576	869.9653	0.149585	-401.833192	-401.826819	-401.825875	-401.863585	26.939	
C	-0.062688414	 1.6248866469	 0.1583433581	-0.252657
C	 1.4956863927	 1.5959334555	 0.1410669641	-0.160086
N	 1.5009306467	 0.0989044102	 0.022923604	-0.143533
C	-0.0079031217	 0.0844370794	-0.0221486897	 0.026702
C	 0.0144588863	-0.6553919996	-1.3989158496	-0.095306
C	 0.0655017588	 0.0970916144	-2.7499785913	 0.006735
O	 0.6834259147	 1.3687013712	-2.5651901122	-0.226548
C	 1.5413235243	 0.2332409828	-2.6725132322	-0.009585
C	 1.5640039772	-0.5487052927	-1.3236539535	-0.02119
H	-0.4944075254	 1.9216607346	 1.1175074609	 0.094694
H	-0.5347349278	 2.1956843144	-0.6381758111	 0.12014
H	 1.9684978594	 2.1257290415	-0.6867170058	 0.116986
H	 1.9687276431	 1.9109479582	 1.0766215653	 0.096173
H	-0.5026659291	-0.5008132627	 0.760614975	 0.073897
H	-0.4771248351	-1.6271730506	-1.4437655108	 0.077774
H	-0.5918506502	-0.0034230556	-3.6064122303	 0.108768
H	 2.2979974286	 0.2668572962	-3.4488074882	 0.105426
H	 2.2045430315	-1.4336007641	-1.3640944028	 0.081609
187.2434	248.7027	267.491	344.1862	496.2024	618.1165	667.5221	712.8287	748.4554	784.4581	797.0566	822.1065	836.663	876.1221	906.6722	919.8984	929.8319	947.8049	997.2051	1008.1794	1031.4527	1060.0842	1073.4704	1111.4278	1148.2597	1178.3845	1204.9183	1212.9639	1223.9118	1227.965	1257.7892	1261.197	1276.6517	1285.7048	1309.4443	1350.7776	1379.3056	1476.3832	1504.2318	3034.0919	3046.3349	3071.0936	3075.095	3114.0483	3116.9705	3156.1146	3170.2814	3185.3311
C1CN2C1C1C3OC3C21	C1CN2[C@@H]1[C@H]1[C@H]3O[C@H]3[C@@H]21	
InChI=1S/C7H9NO/c1-2-8-3(1)4-5(8)7-6(4)9-7/h3-7H,1-2H2	InChI=1S/C7H9NO/c1-2-8-3(1)4-5(8)7-6(4)9-7/h3-7H,1-2H2/t3-,4+,5-,6+,7-/m0/s1
