23
gdb 121367	3.0786	0.94243	0.7815	1.7744	82.65	-0.2396	0.0835	0.323	1538.1872	0.205336	-425.424709	-425.414684	-425.41374	-425.460453	36.219	
C	-0.2342577193	 1.3376535327	-0.1787483863	-0.226499
O	 0.0235553986	-0.0446817917	-0.1404341677	-0.235723
C	 0.5315111805	-0.4758833526	 1.105554441	-0.091823
C	 0.7730369131	-1.9745450577	 1.019500456	-0.01657
C	 1.8567067961	-2.4060554417	 0.0200906538	-0.226915
C	 2.1441352285	-3.8288755814	 0.4960505318	-0.073616
O	 2.0081746991	-3.8013254475	 1.9142936028	-0.278112
C	 1.2345765346	-2.6659714546	 2.3287868775	 0.127039
C	 2.0873594575	-1.8198932621	 3.2740302658	-0.394398
H	 0.6784418147	 1.9301848919	-0.0059040552	 0.103109
H	-0.6233262408	 1.5715202209	-1.172797026	 0.126933
H	-0.9815746207	 1.6359184668	 0.5741041535	 0.102843
H	 1.465640091	 0.0606508665	 1.3411636371	 0.087141
H	-0.1879646611	-0.2426208973	 1.9103429813	 0.085163
H	-0.1741301277	-2.4336997515	 0.7110402451	 0.086629
H	 1.5228288712	-2.3527636798	-1.0174626248	 0.112721
H	 2.7481419413	-1.7760281448	 0.1237731127	 0.099809
H	 1.4249477652	-4.5391091216	 0.0576112852	 0.088319
H	 3.1526774461	-4.1803833926	 0.2546450789	 0.10175
H	 0.3612318751	-3.0351692259	 2.8841804207	 0.073185
H	 2.9503773114	-1.3877407853	 2.7580045819	 0.115006
H	 1.5039553994	-1.0089250391	 3.7230048023	 0.109191
H	 2.4642163563	-2.4543539517	 4.0808774323	 0.124819
49.6485	83.964	105.8874	128.4314	195.9321	236.7374	265.3231	278.3706	338.4038	368.9601	411.6815	521.0734	621.6414	704.6304	802.5241	848.2762	875.6655	920.3752	975.8986	988.4177	996.6342	1035.8128	1065.5544	1094.8571	1139.7487	1150.1754	1167.544	1171.604	1189.9261	1195.3615	1229.5519	1234.9716	1270.5042	1311.1546	1316.2562	1328.9057	1372.8157	1386.8625	1401.1033	1406.0294	1429.0177	1481.4953	1485.548	1486.5716	1490.6625	1498.3854	1503.7605	1526.9012	1529.3827	2943.9843	2968.4691	2974.3313	2980.7507	2997.8093	3010.4633	3032.1852	3035.7231	3044.3066	3068.0582	3106.3682	3112.9192	3116.5378	3121.4165
COCC1CCOC1C	COC[C@H]1CCO[C@H]1C	
InChI=1S/C7H14O2/c1-6-7(5-8-2)3-4-9-6/h6-7H,3-5H2,1-2H3	InChI=1S/C7H14O2/c1-6-7(5-8-2)3-4-9-6/h6-7H,3-5H2,1-2H3/t6-,7+/m0/s1
