15
gdb 72081	2.9843	1.66695	1.48793	3.5449	63.58	-0.2252	-0.0204	0.2049	903.2895	0.113372	-457.758132	-457.751358	-457.750414	-457.789091	27.257	
O	-0.0660332768	 1.3452258418	-0.0735762374	-0.46453
C	 0.0640478288	-0.0273340027	-0.0401725697	 0.352796
C	 1.1716445074	-0.796295104	-0.7724915408	-0.309484
C	 0.6871827544	-2.1929602073	-0.3214494339	-0.075206
O	 0.5258181103	-2.0526309347	 1.1038930094	-0.259461
C	-0.2874939835	-0.8904971036	 1.1298185832	 0.018729
C	-1.2120719298	-0.8980967105	-0.088285747	-0.291802
C	-0.7859957204	-2.1350469207	-0.8156914958	 0.476512
O	-1.369758051	-2.8552843776	-1.5762482532	-0.331823
H	 0.6140599992	 1.7309222794	 0.4911272495	 0.292497
H	 1.1388509301	-0.6678498714	-1.8575344301	 0.128558
H	 2.1709935968	-0.5544252937	-0.3966560879	 0.10814
H	 1.2713443816	-3.0749341927	-0.5642128019	 0.107723
H	-0.5861037703	-0.5473667381	 2.1100804687	 0.124345
H	-2.2053356267	-0.4761514643	-0.0949728331	 0.123007
144.7633	224.7129	276.9067	348.4678	425.2327	465.1654	520.0714	571.9982	610.7535	667.3352	743.6045	788.8153	836.7457	885.2588	894.717	924.2437	951.4748	964.6366	997.6603	1022.1713	1050.4985	1111.835	1137.888	1153.5662	1215.8018	1226.1701	1261.5134	1290.9052	1308.4042	1324.4335	1432.1703	1491.0297	1880.9999	3053.5433	3114.162	3184.2703	3227.8225	3247.3266	3787.3309
OC12CC3OC1C2C3=O	O[C@@]12C[C@H]3O[C@@H]1[C@@H]2C3=O	
InChI=1S/C6H6O3/c7-4-2-1-6(8)3(4)5(6)9-2/h2-3,5,8H,1H2	InChI=1S/C6H6O3/c7-4-2-1-6(8)3(4)5(6)9-2/h2-3,5,8H,1H2/t2-,3+,5-,6-/m1/s1
