23
gdb 93698	3.12983	1.18198	1.09705	1.4788	81.79	-0.2518	0.0786	0.3304	1262.0302	0.205153	-425.449103	-425.439614	-425.43867	-425.482497	37.034	
C	-0.0387376645	 1.5041471864	 0.0106339808	-0.41266
C	 0.0308269629	-0.0069970494	 0.0018710544	 0.224759
O	 0.6937498596	-0.4173909393	-1.172017697	-0.255051
C	 0.8019896037	-1.831745565	-1.2460832368	-0.097853
C	 1.5483437887	-2.4079140679	-0.0261357271	 0.237107
C	 1.4559790818	-3.9378997734	-0.0333599377	-0.433043
C	 3.0157448946	-1.9519500963	-0.038407627	-0.410952
C	 0.8266117256	-1.8448859565	 1.2145795533	-0.097849
O	 0.7170471147	-0.4298317437	 1.1578104749	-0.255047
H	 0.973522322	 1.9155762294	 0.002898429	 0.134275
H	-0.5739498604	 1.8578369431	-0.8733241551	 0.125204
H	-0.5564566075	 1.8483269319	 0.9086535544	 0.125199
H	-0.981986852	-0.4597457617	 0.0095785547	 0.050427
H	-0.2049488211	-2.2796622253	-1.3099521002	 0.080967
H	 1.331210048	-2.0547771875	-2.1778141543	 0.104597
H	 1.9388469182	-4.3553289076	-0.9238137604	 0.116607
H	 1.9565272711	-4.3647267337	 0.8427629361	 0.116607
H	 0.4153158237	-4.2810386121	-0.0247657526	 0.11204
H	 3.0828540695	-0.8624654863	-0.0333838039	 0.136811
H	 3.5494210925	-2.3327976021	 0.8393481686	 0.106145
H	 3.5317278496	-2.323555487	-0.930584751	 0.106145
H	-0.178890887	-2.2935750294	 1.2937995255	 0.080968
H	 1.3743504863	-2.0777942764	 2.1330980313	 0.104598
110.9201	191.2765	204.2633	225.2191	237.4902	258.2682	272.4242	325.2016	329.0712	415.2218	415.6485	470.7387	514.9361	577.911	659.5133	790.8601	840.1507	878.299	914.6513	929.6627	956.2084	962.0397	1029.9329	1037.1151	1070.688	1075.6502	1128.3031	1146.1542	1175.2005	1213.3451	1246.6663	1255.9863	1301.1267	1334.3179	1369.878	1387.6615	1397.7882	1405.9755	1407.791	1430.6124	1436.776	1481.7463	1483.9759	1484.6719	1488.0188	1493.1975	1503.3135	1506.8015	1512.6625	2891.6854	2950.6199	2960.8715	3024.1338	3033.1625	3058.3027	3074.933	3077.7625	3090.7433	3092.8101	3095.295	3134.6951	3139.7567	3141.6483
CC1OCC(C)(C)CO1	CC1OCC(C)(C)CO1	
InChI=1S/C7H14O2/c1-6-8-4-7(2,3)5-9-6/h6H,4-5H2,1-3H3	InChI=1S/C7H14O2/c1-6-8-4-7(2,3)5-9-6/h6H,4-5H2,1-3H3
