17
gdb 81833	2.2135	1.65972	1.17063	4.0055	72.48	-0.2432	0.0236	0.2668	1074.3683	0.135847	-417.98025	-417.971427	-417.970483	-418.013736	32.806	
N	 0.0173303116	 1.4559798888	 0.0476356781	-0.601505
C	 0.023360164	 0.0282743631	 0.0077215628	 0.316728
C	-0.2584089602	-0.8553372185	-1.1805705601	-0.333163
C	-1.1566305699	-0.9376297338	 0.0323437254	-0.104534
C	-0.4945379953	-1.7909788106	 1.104023657	 0.109834
O	-0.2743279288	-3.1140471725	 0.7044443082	-0.415075
C	 0.7409008625	-0.7866289987	 1.1054043208	-0.246397
C	 2.0478074232	-1.350967153	 0.8176131451	 0.278289
N	 3.0743973128	-1.8352451385	 0.594604652	-0.340402
H	 0.7465375913	 1.8400618728	-0.5471416197	 0.240503
H	-0.8658895907	 1.8229302216	-0.2907790898	 0.237418
H	-0.6938087725	-0.3345572814	-2.0272504357	 0.111679
H	 0.3815723326	-1.692806644	-1.4394848192	 0.142687
H	-2.2169483871	-0.7220321934	-0.016517092	 0.096041
H	-1.0129239467	-1.735402548	 2.0690702642	 0.086432
H	 0.2954515759	-3.5471783132	 1.3496445529	 0.295913
H	 0.7808920573	-0.2187288606	 2.03758476	 0.125551
100.8276	109.7994	129.277	176.4482	254.6438	299.4307	370.5535	387.6159	397.5647	533.4569	547.4684	562.473	712.7351	731.0288	803.0746	837.8851	844.1697	905.8405	972.9519	991.4249	1031.7419	1041.8036	1056.3745	1077.3808	1111.9109	1162.5371	1182.6236	1218.0053	1277.6644	1282.1391	1330.93	1337.7207	1406.2994	1423.9128	1496.5057	1651.0423	2347.7476	3024.6137	3093.0087	3128.303	3187.8909	3217.1242	3490.8038	3574.1471	3809.1732
NC12CC1C(O)C2C#N	N[C@]12C[C@H]1[C@@H](O)[C@H]2C#N	
InChI=1S/C6H8N2O/c7-2-4-5(9)3-1-6(3,4)8/h3-5,9H,1,8H2	InChI=1S/C6H8N2O/c7-2-4-5(9)3-1-6(3,4)8/h3-5,9H,1,8H2/t3-,4+,5+,6+/m0/s1
