18
gdb 112285	2.74594	1.11912	0.86954	1.4944	69.41	-0.2672	0.0103	0.2775	1315.3112	0.147546	-476.209073	-476.200007	-476.199063	-476.243369	33.061	
O	-0.0758725113	 1.5429307177	-0.2584632349	-0.416606
C	 0.0126112673	 0.2298955346	 0.2574928974	-0.073304
C	-1.2958649855	-0.5109541867	 0.0642759509	 0.073398
O	-1.5584485398	-0.6874320009	-1.3844519227	-0.281684
C	-1.5694680201	-2.0549244348	-1.2446032935	 0.457153
N	-1.6350934931	-2.9804366274	-2.0919374832	-0.559609
C	-1.3799012868	-2.0493655295	 0.2532934185	-0.191577
C	-0.1991915446	-2.9093308924	 0.7192129241	-0.080157
O	-0.4750827592	-4.2676379552	 0.4604870653	-0.42064
H	-0.2932845373	 1.4620195116	-1.1943929813	 0.295523
H	 0.8374871574	-0.331480301	-0.2049394721	 0.100179
H	 0.2271883004	 0.3225465112	 1.3278068745	 0.123119
H	-2.1179137338	 0.0560015662	 0.5086533175	 0.108701
H	-1.7005286784	-2.6330316621	-3.0494302142	 0.233551
H	-2.2789945287	-2.3635983134	 0.788970233	 0.122339
H	 0.7295548729	-2.5833428407	 0.2261304989	 0.092531
H	-0.0513163716	-2.8118311186	 1.7997092931	 0.114048
H	-0.7079996278	-4.3363407489	-0.4775395213	 0.303034
80.0837	111.7809	130.2579	136.2467	193.7915	284.8455	350.651	404.733	429.1518	457.538	529.1549	543.8215	674.4005	771.1884	832.4446	836.5323	861.2343	911.0065	1004.0887	1031.0358	1048.5659	1078.401	1082.2344	1127.092	1135.7538	1191.4256	1216.0119	1236.8688	1250.3943	1312.753	1326.0431	1363.9262	1390.1513	1408.1643	1432.3689	1455.6394	1492.5842	1514.9223	1811.801	2982.1397	3004.7563	3068.972	3074.7541	3085.3471	3096.5018	3484.8053	3717.9786	3800.9318
OCC1OC(=N)C1CO	OC[C@H]1O[C]([NH])[C@H]1CO	
InChI=1S/C5H9NO3/c6-5-3(1-7)4(2-8)9-5/h3-4,6-8H,1-2H2	InChI=1S/C5H9NO3/c6-5-3(1-7)4(2-8)9-5/h3-4,6-8H,1-2H2/t3-,4+/m0/s1
