19
gdb 41893	2.21216	2.06654	1.78013	1.729	74.94	-0.2424	0.0174	0.2597	911.0789	0.162867	-423.033349	-423.026291	-423.025347	-423.064693	28.5	
C	-0.029805029	 1.4960313827	-0.1325777895	-0.06623
O	 1.2524943165	 2.0757810894	 0.1181512362	-0.262825
C	 2.1606533258	 1.258556473	 0.8117888822	 0.189044
C	 1.7598306713	 0.9636554736	 2.2715707035	-0.282467
C	 0.6185708099	-0.0000364874	 2.4502279601	-0.035213
C	-0.1517770905	-0.4626672021	 1.4677075594	-0.077537
C	 0.003750222	-0.0352776683	 0.0233205928	-0.123831
C	 1.3397147762	-0.5083833728	-0.5727080774	-0.052006
O	 2.4490480243	 0.0576011893	 0.116771441	-0.267342
H	-0.7784620054	 1.9396947142	 0.5364295433	 0.099834
H	-0.2887021199	 1.7646442628	-1.1638819565	 0.105394
H	 3.0947708963	 1.829390177	 0.8192693485	 0.090726
H	 2.6486048886	 0.5555691357	 2.7713612964	 0.1162
H	 1.5477700235	 1.9195022309	 2.7717762536	 0.112918
H	 0.4421771203	-0.3393553033	 3.4686576881	 0.089539
H	-0.9407490656	-1.1748144779	 1.6931520045	 0.086546
H	-0.8097334206	-0.460888971	-0.5727710249	 0.076339
H	 1.4422536411	-1.5962610438	-0.5049796955	 0.10646
H	 1.3810000351	-0.226362792	-1.6362193158	 0.094451
91.0826	241.1391	257.6649	330.4646	358.7335	439.4812	509.2453	562.981	568.2111	722.8848	773.7621	804.5981	853.2575	864.5222	906.178	941.7732	964.6706	985.6587	993.0474	1006.0825	1039.3926	1043.4244	1108.4802	1119.812	1187.2159	1218.8667	1238.2129	1243.7354	1259.4887	1302.2764	1349.679	1362.6986	1378.1955	1384.7411	1415.1503	1419.9367	1430.3113	1461.0897	1511.2052	1520.3487	1727.4729	2983.0547	3008.0054	3011.2778	3038.9025	3049.6165	3059.5598	3061.7485	3067.8845	3143.4438	3169.8245
C1OC2CC=CC1CO2	C1O[C@H]2CC=C[C@@H]1CO2	
InChI=1S/C7H10O2/c1-2-6-4-8-7(3-1)9-5-6/h1-2,6-7H,3-5H2	InChI=1S/C7H10O2/c1-2-6-4-8-7(3-1)9-5-6/h1-2,6-7H,3-5H2/t6-,7+
