14
gdb 67425	2.81165	1.55399	1.296	4.5275	67.33	-0.2568	0.0136	0.2704	971.8713	0.100791	-436.62005	-436.612834	-436.611889	-436.65165	27.814	
O	-0.24230861	 1.398213785	 0.004275632	-0.429961
C	-0.0243009555	 0.0593012316	 0.0096998293	 0.279357
C	 0.0919670199	-1.0293195787	-0.9953219832	-0.035216
O	 1.2180067658	-1.6516692526	-0.4202180737	-0.272486
C	 0.9047188609	-0.9640010361	 0.8235098907	-0.025116
C	-0.3718043108	-1.6784259295	 1.3256890091	-0.283963
C	-1.057642388	-1.0612849417	 0.1054592634	 0.131124
C	-2.4311321676	-1.0343628601	-0.2515212563	 0.170088
N	-3.5508901594	-1.0136324178	-0.5466532645	-0.349886
H	 0.4598318217	 1.8320986811	-0.495981149	 0.307063
H	-0.1135258282	-1.1200394253	-2.0532025676	 0.143487
H	 1.7705103697	-0.7691878836	 1.4504209161	 0.108075
H	-0.3158135485	-2.767162607	 1.3949575937	 0.125491
H	-0.7500681	-1.2418976456	 2.25214414	 0.131942
122.9721	158.1143	252.0545	322.0593	341.9708	456.2819	464.1051	535.9981	559.5808	584.7424	661.2886	713.9769	807.5903	833.3409	922.6417	935.8776	967.1585	1010.69	1041.6881	1059.4008	1115.2953	1134.4759	1165.6599	1218.3059	1241.0316	1271.5982	1309.0826	1330.0004	1472.2807	1504.1147	2342.8378	3072.2001	3138.7491	3167.3684	3225.2765	3782.2767
OC12C3OC1CC23C#N	O[C@@]12[C@H]3O[C@@H]1C[C@@]23C#N	
InChI=1S/C6H5NO2/c7-2-5-1-3-6(5,8)4(5)9-3/h3-4,8H,1H2	InChI=1S/C6H5NO2/c7-2-5-1-3-6(5,8)4(5)9-3/h3-4,8H,1H2/t3-,4+,5+,6-/m1/s1
