21
gdb 119194	1.89409	1.28132	0.89851	4.7803	84.34	-0.2512	0.0255	0.2767	1400.0539	0.180874	-383.259076	-383.248863	-383.247919	-383.294442	36.934	
C	 0.0376746894	 1.6172129842	 0.009815052	-0.383446
C	-0.1226237748	 0.1027190732	 0.1631447472	-0.179181
C	 0.9272698968	-0.5031700029	 1.1051605134	-0.265929
C	 0.8427885963	-2.0206244624	 1.2380972709	 0.146165
C	 1.3168292344	-2.6971480714	 2.4951421047	-0.280907
N	-0.0884507084	-2.7134135784	 2.1455859496	-0.096548
C	-1.0223901534	-1.9505448324	 2.9616628486	-0.321738
C	 1.0360389525	-2.7264410451	-0.0182911086	 0.28581
N	 1.2148038004	-3.2608038108	-1.0279749226	-0.350898
H	 1.0211825194	 1.8711892476	-0.4005788135	 0.120521
H	-0.7199654855	 2.0279996412	-0.6637827993	 0.119952
H	-0.0609176889	 2.1289371482	 0.9738461733	 0.113728
H	-1.127229739	-0.1270521752	 0.5383722517	 0.103658
H	-0.0448402036	-0.3794820052	-0.8181629663	 0.12912
H	 1.9315910254	-0.2561099743	 0.7384670864	 0.120104
H	 0.8484463806	-0.0504946015	 2.0985322081	 0.105073
H	 1.8381545369	-3.6488667564	 2.4464184592	 0.136355
H	 1.6467468726	-2.0273611342	 3.289665781	 0.115739
H	-0.6126194756	-1.022929763	 3.3876907548	 0.107255
H	-1.9056198342	-1.7035770982	 2.3661014397	 0.138273
H	-1.3406371614	-2.5890426431	 3.7912375796	 0.136894
72.993	87.7096	127.6116	152.8339	181.3169	210.8099	239.4484	288.9058	343.2709	353.3488	398.8296	460.118	569.8186	580.8476	708.8081	739.1406	796.6646	856.4855	892.5388	915.6734	949.6558	1043.2716	1055.1545	1086.3064	1125.3657	1128.9676	1143.6935	1161.7797	1199.435	1244.5512	1273.7619	1307.6436	1328.9206	1371.8639	1395.7669	1414.7528	1447.3265	1474.9288	1486.996	1493.3481	1500.1216	1501.8002	1507.3377	1511.6206	2353.2322	2991.9334	3028.3492	3030.5215	3039.2417	3061.8815	3078.7468	3084.0738	3086.4913	3100.7301	3108.7355	3115.1052	3183.8627
CCCC1(CN1C)C#N	CCC[C@]1(CN1C)C#N	
InChI=1S/C7H12N2/c1-3-4-7(5-8)6-9(7)2/h3-4,6H2,1-2H3	InChI=1S/C7H12N2/c1-3-4-7(5-8)6-9(7)2/h3-4,6H2,1-2H3/t7-,9?/m1/s1
