18
gdb 81991	2.46044	1.45436	1.29109	3.3917	76.	-0.2758	0.014	0.2898	1075.7121	0.146777	-401.931998	-401.923276	-401.922331	-401.964968	33.23	
C	-0.140988095	 1.5655330832	-0.017253071	-0.416584
C	 0.0346013311	 0.0551699745	-0.0680620756	-0.061921
C	 0.7317151579	-0.5944138973	-1.2707919557	-0.044856
C	 2.1758550975	-0.1965510152	-1.34619804	-0.301433
C	 1.7704037964	-1.2545918304	-0.3590902806	-0.06625
C	 1.1467922408	-0.5965311648	 0.8731025102	 0.236334
O	 2.0377631657	 0.2699600121	 1.5411555067	-0.456685
C	 0.5663303513	-1.5636610512	 1.814485121	 0.228869
N	 0.0965144584	-2.2959910966	 2.5760532109	-0.340709
H	 0.8071946836	 2.0925191464	-0.1465025762	 0.131394
H	-0.8231244924	 1.8924790123	-0.8088589214	 0.125665
H	-0.5727260954	 1.8800063926	 0.9395533562	 0.116116
H	-0.9209043937	-0.4390948982	 0.1260247063	 0.09955
H	 0.2127978513	-1.0372827575	-2.1112016732	 0.095863
H	 2.7147363921	-0.5777759895	-2.2072323802	 0.121092
H	 2.5184211947	 0.7714301684	-0.9977249188	 0.131709
H	 2.169944953	-2.2596912692	-0.372709551	 0.108535
H	 1.5842874927	 0.6580077905	 2.2985294025	 0.293312
113.2316	149.5785	187.2246	194.9592	226.6031	283.7252	312.7853	398.6889	464.2882	502.0869	554.6165	568.9596	652.7898	725.2786	789.1635	827.2084	914.6149	928.8961	944.551	997.4074	1008.8917	1059.9023	1069.2509	1076.3823	1088.8204	1105.5847	1132.7569	1182.1919	1201.1739	1258.2216	1289.4076	1347.9313	1364.6808	1377.9427	1409.642	1486.2586	1491.2153	1502.4497	2347.8275	3036.4128	3073.3029	3097.0365	3125.8269	3136.955	3193.0132	3205.3433	3221.4776	3801.1425
CC1C2CC2C1(O)C#N	C[C@H]1[C@H]2C[C@H]2[C@]1(O)C#N	
InChI=1S/C7H9NO/c1-4-5-2-6(5)7(4,9)3-8/h4-6,9H,2H2,1H3	InChI=1S/C7H9NO/c1-4-5-2-6(5)7(4,9)3-8/h4-6,9H,2H2,1H3/t4-,5+,6+,7-/m0/s1
