16
gdb 51344	6.4954	0.90257	0.88906	3.4069	71.29	-0.2417	0.0186	0.2604	1292.4277	0.123616	-437.775308	-437.76788	-437.766936	-437.808555	27.593	
N	-0.110772475	 1.3270839123	 0.1439847498	-0.44083
C	-0.0341772211	 0.0682662415	 0.1155179207	 0.1261
O	-1.120191464	-0.6675682439	-0.1934731759	-0.204584
C	-1.0032802848	-2.0783697413	-0.084996206	 0.125912
C	-1.6397271917	-2.7276009659	 1.1563785893	-0.144846
C	-3.0787322047	-2.57028665	 0.5593747648	 0.103889
O	-3.4364095675	-3.970163106	 0.7440299437	-0.323395
C	-2.0388630018	-3.9937811088	 0.3351156519	 0.084123
C	-2.1845988827	-2.8322425574	-0.6983387441	-0.144587
H	 0.7983805675	 1.7249505722	 0.3700899659	 0.230053
H	 0.8625331653	-0.536905133	 0.3110296187	 0.084225
H	 0.0043623855	-2.406421688	-0.3644352842	 0.088442
H	-1.3510105925	-2.6837372243	 2.2053053123	 0.095018
H	-3.8286706036	-1.8031461861	 0.7352072008	 0.118497
H	-1.5316928993	-4.9522685433	 0.2389714682	 0.104214
H	-2.5054640793	-2.9027744981	-1.7358321458	 0.097771
34.8948	99.8503	129.6573	277.6227	374.4539	428.4706	560.5828	683.5904	741.9471	791.6665	802.6469	821.4358	836.4682	872.0678	901.7331	922.0572	967.3881	980.9918	1029.8734	1039.3033	1044.7027	1102.792	1123.752	1128.669	1152.0156	1166.9358	1174.6147	1180.4261	1248.8428	1284.0083	1298.5098	1332.7344	1395.5599	1429.1925	1747.432	3014.722	3044.3313	3130.1994	3139.3801	3145.2964	3161.6605	3518.8563
N=COC1C2C3OC2C13	[NH][CH]O[C@H]1[C@H]2[C@@H]3O[C@H]2[C@H]13	
InChI=1S/C6H7NO2/c7-1-8-4-2-5-3(4)6(2)9-5/h1-7H	InChI=1S/C6H7NO2/c7-1-8-4-2-5-3(4)6(2)9-5/h1-7H/t2-,3+,4-,5-,6+
