16
gdb 77643	2.19403	1.4685	1.31931	4.8258	72.35	-0.2298	-0.0056	0.2242	1059.8541	0.12473	-434.015593	-434.007009	-434.006065	-434.048496	32.273	
N	-0.0961757461	 1.4680496841	 0.0578916658	-0.524725
C	-0.1046677242	 0.0354226724	 0.0047395579	-0.087487
C	-1.361368425	-0.790413697	 0.0486454319	 0.183664
N	-1.5177047099	-1.8142159257	 1.0023533699	-0.58638
C	-2.4244216357	-0.1445866193	-0.8431532427	-0.151264
O	-1.4913359052	-0.027851544	-1.9540818375	-0.32508
C	-0.4870439066	-0.7565521892	-1.2383245566	 0.275362
C	 0.2923042027	-1.7349500744	-1.9102459677	 0.216916
N	 0.9452624198	-2.5370410096	-2.432386346	-0.352938
H	 0.8523645321	 1.8055791222	-0.0761682809	 0.243572
H	-0.6396135408	 1.8347914957	-0.720182427	 0.250197
H	 0.6896048005	-0.4342136199	 0.5774610106	 0.128508
H	-1.6513252847	-1.4519333246	 1.9396334858	 0.248406
H	-2.2726773934	-2.4524328611	 0.7784864401	 0.242179
H	-3.2397077623	-0.8298563364	-1.1040509058	 0.119134
H	-2.8333139813	 0.8236505069	-0.5336859678	 0.119936
108.4201	148.1654	186.9483	235.8032	268.9703	282.5483	324.9346	358.7778	446.3018	525.3453	550.0826	591.1323	640.5742	719.5087	726.5925	792.3948	808.4111	912.261	963.823	1005.5562	1039.9733	1085.0291	1096.9354	1152.1197	1196.3705	1215.5015	1260.6803	1308.6958	1313.7261	1372.4157	1492.6743	1521.7992	1656.6197	1666.2349	2333.2139	3026.4786	3081.1557	3173.4194	3486.4523	3512.6211	3563.5734	3597.8836
NC1C2(N)COC12C#N	N[C@H]1[C@@]2(N)CO[C@@]12C#N	
InChI=1S/C5H7N3O/c6-1-5-3(7)4(5,8)2-9-5/h3H,2,7-8H2	InChI=1S/C5H7N3O/c6-1-5-3(7)4(5,8)2-9-5/h3H,2,7-8H2/t3-,4-,5-/m0/s1
