16
gdb 133755	2.13735	1.25575	0.95619	1.9613	58.19	-0.2669	-0.0407	0.2262	1226.8549	0.118127	-569.411087	-569.401507	-569.400562	-569.446675	33.012	
C	 0.9291976388	-0.3018535592	 1.2666649554	-0.397901
C	 0.0546696187	-0.039417269	 0.0388028355	-0.208632
C	 0.7575414439	-0.4075466498	-1.2905975354	-0.209198
C	 0.8830284738	-1.9214701016	-1.4092139328	 0.158213
O	 1.8739614738	-2.5343589759	-1.1139345843	-0.245489
C	-0.0020996931	 0.1438742209	-2.4871165118	 0.272938
F	-0.0508764134	 1.4828147189	-2.4701746794	-0.074223
F	 0.5797189441	-0.2263659605	-3.638899776	-0.076919
F	-1.2695160955	-0.3055318772	-2.5181540451	-0.083728
H	 1.2414500887	-1.3482051232	 1.32631824	 0.141035
H	 1.8354755264	 0.3118654272	 1.2424636352	 0.126441
H	 0.382650316	-0.0576618643	 2.1817963716	 0.123391
H	-0.8855894237	-0.598151823	 0.1114261984	 0.120192
H	-0.2184951823	 1.0194607951	-0.0099466959	 0.126919
H	 1.7644579904	 0.0196119199	-1.3143546893	 0.126043
H	-0.0417790668	-2.4375626484	-1.7475138761	 0.100917
55.1387	74.6168	85.2512	164.7973	189.0294	225.5594	284.0366	330.0292	378.4594	417.59	452.448	553.179	566.1854	698.7641	780.0689	873.5545	894.7285	970.9163	1012.1195	1058.8669	1101.2476	1153.2205	1165.2928	1210.211	1259.7757	1268.3196	1330.6575	1342.0079	1374.747	1422.7122	1433.5681	1491.8292	1499.381	1506.3385	1837.2561	2900.6453	3041.9558	3044.3518	3078.5573	3088.5632	3113.3659	3122.4873
CCC(C=O)C(F)(F)F	CC[C@@H](C=O)C(F)(F)F	
InChI=1S/C5H7F3O/c1-2-4(3-9)5(6,7)8/h3-4H,2H2,1H3	InChI=1S/C5H7F3O/c1-2-4(3-9)5(6,7)8/h3-4H,2H2,1H3/t4-/m0/s1
