16
gdb 100524	2.1088	1.46825	0.91417	4.7614	63.46	-0.2535	-0.0906	0.1629	1216.7472	0.122575	-512.198685	-512.189272	-512.188328	-512.23337	34.067	
N	 0.1587797844	 0.9890844	 0.1816629697	-0.502509
C	 0.0865944832	-0.3365389184	-0.0257085483	 0.346494
O	 1.0434433165	-1.0699098674	-0.2247784103	-0.360641
C	-1.3675418761	-0.8544850342	 0.0211587151	 0.263524
O	-2.2763710595	-0.0571892166	 0.1404636215	-0.33553
C	-1.6443549318	-2.3420936602	-0.0788544797	 0.030605
O	-3.0235296504	-2.5634693155	 0.0515113402	-0.432586
C	-1.1337048126	-2.9746854433	-1.4138800864	-0.098205
O	 0.1830126305	-3.4386346487	-1.3585207691	-0.416297
H	 1.0521035922	 1.4521732708	 0.1597635766	 0.280174
H	-0.6940239353	 1.5105416403	 0.3098858801	 0.288507
H	-1.0839420571	-2.8454732899	 0.7261864968	 0.116631
H	-3.4367755957	-1.6953135492	 0.1674149639	 0.295331
H	-1.7857838288	-3.8370939335	-1.5771830709	 0.133857
H	-1.3074130252	-2.2719593319	-2.2470371416	 0.083868
H	 0.7380724456	-2.6987749222	-1.0646371276	 0.306776
60.226	68.5065	149.3478	213.1913	227.3511	294.5149	343.8991	368.9216	393.3258	400.4544	478.0067	494.0002	543.0278	594.3146	637.9894	666.8721	765.036	819.5767	970.4355	1029.0692	1064.0179	1106.1457	1116.5979	1154.9074	1198.5992	1284.9738	1303.4267	1374.8926	1387.6829	1432.6396	1465.1824	1507.392	1591.6768	1768.7199	1786.9155	2952.8296	2982.5041	3093.0374	3590.9834	3671.6889	3720.3313	3730.8987
NC(=O)C(=O)C(O)CO	NC(=O)C(=O)[C@@H](O)CO	
InChI=1S/C4H7NO4/c5-4(9)3(8)2(7)1-6/h2,6-7H,1H2,(H2,5,9)	InChI=1S/C4H7NO4/c5-4(9)3(8)2(7)1-6/h2,6-7H,1H2,(H2,5,9)/t2-/m0/s1
