16
gdb 18668	3.22583	2.35184	1.52192	3.5602	66.24	-0.2517	0.0123	0.264	826.652	0.133659	-379.90841	-379.901811	-379.900867	-379.93928	25.573	
N	-0.1195581191	 1.2763077006	 0.1136511821	-0.522495
C	-0.0284460581	 0.02230734	-0.0317085412	 0.424941
O	 1.1736957884	-0.6236723655	-0.0902181906	-0.252237
C	 1.2373498939	-1.8050370493	-0.9052969126	-0.086394
C	 0.2595167966	-2.8860733046	-0.4540944385	-0.214711
C	-1.1359834917	-2.2995199192	-0.2878245311	-0.049546
N	-1.4208387112	-1.7650831929	 1.0467864474	-0.323149
C	-1.2532734127	-0.8259082223	-0.0890436306	-0.102291
H	 0.8150198262	 1.6910895323	 0.1366992054	 0.219832
H	 1.0414434331	-1.5244241979	-1.9494805167	 0.107404
H	 2.2732254147	-2.1438878184	-0.8346788894	 0.120847
H	 0.2571684593	-3.6900465533	-1.1976938606	 0.104893
H	 0.5834797444	-3.3111711021	 0.5002353501	 0.128328
H	-1.9447947244	-2.7904031591	-0.8227539935	 0.093499
H	-2.411360729	-1.8439421914	 1.2625944923	 0.238876
H	-2.1297102403	-0.2991093269	-0.4488855428	 0.112203
86.9019	224.7517	243.2098	392.4765	418.8478	467.3823	513.3087	671.1653	723.6506	770.281	799.7489	867.9597	910.7834	923.7743	935.0012	944.5895	990.1262	1035.3415	1093.0199	1109.0917	1139.2607	1165.4873	1204.2772	1251.6717	1256.1846	1288.6687	1319.1354	1370.5164	1399.906	1420.6155	1449.2275	1470.7689	1508.1003	1752.2962	3011.5831	3049.9689	3097.2293	3109.4729	3139.6375	3181.3307	3458.1622	3504.5162
N=C1OCCC2NC12	[NH][C]1OCC[C@H]2N[C@@H]12	
InChI=1S/C5H8N2O/c6-5-4-3(7-4)1-2-8-5/h3-4,6-7H,1-2H2	InChI=1S/C5H8N2O/c6-5-4-3(7-4)1-2-8-5/h3-4,6-7H,1-2H2/t3-,4-/m1/s1
