15
gdb 42574	3.0536	2.12461	1.65258	4.1244	66.79	-0.2265	-0.0207	0.2058	815.5941	0.114993	-420.588887	-420.583138	-420.582194	-420.618882	24.143	
O	 0.0166771536	 0.0328910832	 0.1035523272	-0.335599
C	 0.007756568	 1.2345741487	 0.0312741894	 0.466885
C	-1.1852731007	 2.1363021549	-0.021390045	-0.189575
C	-1.0389115742	 3.539457829	 0.5928134542	-0.090442
C	-0.8667837733	 3.3287504102	-0.8952980639	-0.105409
C	 0.6737057527	 3.4710633748	-0.7121030155	-0.10838
C	 0.4609920913	 3.8755919014	 0.7611078928	 0.108768
O	 1.2879490729	 2.8072693919	 1.2625236402	-0.305866
C	 1.2204342697	 2.1689438986	-0.0541171099	-0.049567
H	-2.1777747905	 1.7044166256	-0.0173068665	 0.113675
H	-1.8728438618	 3.960614071	 1.1404452587	 0.10297
H	-1.4702426539	 3.6536276769	-1.7312251977	 0.106879
H	 1.2817219191	 4.0291489406	-1.4175108805	 0.093697
H	 0.697439674	 4.8487377617	 1.1936751821	 0.093343
H	 2.1601524433	 1.7043190016	-0.3514003756	 0.098619
151.2523	329.8978	431.3357	478.2114	567.6771	655.3854	692.1495	760.1009	786.1858	791.0428	829.0894	853.1267	878.7322	894.2575	935.3605	944.6976	960.5129	986.0422	992.7974	1042.0118	1058.5734	1071.6366	1149.1232	1189.047	1194.5501	1215.258	1239.2212	1267.9771	1284.7584	1300.5199	1324.7356	1362.5629	1848.5564	3107.0748	3124.716	3165.1072	3189.9648	3205.493	3217.5018
O=C1C2C3C2C2C3OC12	O=C1[C@H]2[C@@H]3[C@H]2[C@H]2[C@@H]3O[C@@H]12	
InChI=1S/C7H6O2/c8-5-2-1-3(2)6-4(1)7(5)9-6/h1-4,6-7H	InChI=1S/C7H6O2/c8-5-2-1-3(2)6-4(1)7(5)9-6/h1-4,6-7H/t1-,2+,3-,4-,6+,7+/m0/s1
