16
gdb 46525	3.82354	1.26508	1.09851	5.8609	65.36	-0.2561	0.0544	0.3105	1088.0578	0.125619	-475.041932	-475.034223	-475.033279	-475.074737	28.616	
O	 0.1099126611	-0.0464314942	 0.3778057351	-0.38894
C	 0.0472682689	 1.1360680947	 0.1596312283	 0.472259
N	-1.13763867	 1.8097205942	-0.0107613337	-0.377871
C	-1.3528458876	 3.2503474317	-0.006429734	-0.213698
C	-0.029118057	 3.9543746289	 0.1832338111	 0.37149
C	 0.0375996886	 5.3948499235	 0.4359899788	-0.236787
O	 0.2452069335	 4.4583886002	 1.4952052105	-0.259181
C	 1.1026556689	 3.2055919456	-0.4655283291	-0.135422
O	 1.1852513578	 1.8763916623	 0.0559290233	-0.237024
H	-1.9383786309	 1.2089696964	 0.1026802178	 0.261332
H	-1.8078371142	 3.5646269123	-0.956633559	 0.118508
H	-2.028275173	 3.5430509322	 0.8051932715	 0.13193
H	 0.9165477414	 5.9590015814	 0.1264774494	 0.122496
H	-0.8848446563	 5.9720913378	 0.4911744763	 0.121477
H	 0.965834645	 3.1686819949	-1.555173618	 0.116954
H	 2.0623399739	 3.674503478	-0.2420959983	 0.132478
72.7941	85.8654	183.9352	286.8946	352.6512	375.0339	452.1581	491.1443	536.3729	589.7231	689.3792	762.2978	800.7834	822.5139	895.0101	922.2559	955.8895	1004.0258	1068.403	1079.1642	1123.2264	1128.383	1177.3529	1241.1874	1261.2721	1273.1249	1315.6453	1357.3055	1412.5645	1455.2665	1478.8913	1493.9832	1519.1079	1537.2499	1851.4769	2997.74	3016.9975	3059.3562	3081.4245	3121.4501	3166.6889	3644.2423
O=C1NCC2(CO2)CO1	O=C1NC[C@]2(CO2)CO1	
InChI=1S/C5H7NO3/c7-4-6-1-5(2-8-4)3-9-5/h1-3H2,(H,6,7)	InChI=1S/C5H7NO3/c7-4-6-1-5(2-8-4)3-9-5/h1-3H2,(H,6,7)/t5-/m1/s1
