20
gdb 88786	3.02626	1.07965	0.87502	2.609	80.95	-0.2392	-0.0217	0.2175	1367.5668	0.170107	-403.127647	-403.118517	-403.117573	-403.162322	33.78	
C	 0.3383142844	 1.549768905	-0.2901530083	-0.410185
C	 0.0297671418	 0.0955851783	-0.0079469999	-0.002685
C	 1.1100895168	-0.9543900271	-0.0426786802	-0.298096
C	 0.4441864559	-0.6084933329	 1.2703825047	 0.018125
C	 1.2242621575	 0.0687326467	 2.3607474726	-0.106668
N	 0.4260684859	 0.6336309793	 3.4912365018	-0.329605
C	 1.2953708606	 0.020524582	 4.5275283338	-0.28639
C	 1.94645888	-0.8100569012	 3.4092844821	 0.383318
O	 2.6698821273	-1.757592295	 3.3644947662	-0.283547
H	 1.3353150014	 1.8347576873	 0.0593820011	 0.112733
H	 0.3082378595	 1.7476679168	-1.3671893882	 0.120557
H	-0.3884471885	 2.2149009893	 0.1900297827	 0.118021
H	-0.9383319707	-0.2223707126	-0.3865209659	 0.087657
H	 0.9034397897	-1.9214356822	-0.4867657061	 0.115191
H	 2.1313758891	-0.61400444	-0.1862428873	 0.112256
H	-0.2690412535	-1.3321363368	 1.654197946	 0.087373
H	 1.952381613	 0.7778462982	 1.9369265099	 0.086293
H	 0.3975598289	 1.6460192601	 3.5144197666	 0.223048
H	 2.0216293376	 0.691423961	 5.0090034312	 0.119824
H	 0.7627325432	-0.5354271064	 5.3067647172	 0.132779
44.4113	103.2269	111.5049	179.869	191.0467	257.3537	353.1141	398.6789	433.8074	488.2999	571.3789	646.1881	748.7469	775.1555	795.1458	856.1719	894.6067	905.7012	977.2333	994.4292	1005.7528	1019.433	1046.3547	1069.8274	1086.7836	1098.6429	1110.8305	1145.896	1188.285	1194.4057	1208.915	1250.5625	1270.2327	1306.6522	1363.66	1394.478	1419.0627	1430.0771	1477.3715	1492.8139	1493.3568	1505.7141	1915.1741	2983.1896	3004.2628	3028.929	3067.7898	3087.9808	3098.741	3128.9203	3136.4137	3151.013	3213.5127	3547.1489
CC1CC1C1NCC1=O	C[C@H]1C[C@H]1[C@H]1NCC1=O	
InChI=1S/C7H11NO/c1-4-2-5(4)7-6(9)3-8-7/h4-5,7-8H,2-3H2,1H3	InChI=1S/C7H11NO/c1-4-2-5(4)7-6(9)3-8-7/h4-5,7-8H,2-3H2,1H3/t4-,5+,7+/m0/s1
