17
gdb 86300	1.96345	1.64847	1.14155	0.8038	65.9	-0.2622	-0.0513	0.2109	1099.8348	0.133972	-496.093067	-496.084282	-496.083338	-496.126381	33.353	
O	 0.6177082705	 0.7591872177	-0.7829559739	-0.428086
C	 0.2627817642	-0.2534802286	 0.1018586278	 0.112094
C	 0.1924285995	 0.0298467048	 1.6293611209	-0.315755
C	-1.1188854075	-0.8040374027	 1.6891840992	 0.112093
O	-2.1961706824	-0.3620664234	 2.449764466	-0.428085
C	-1.2686375319	-0.6202257338	 0.1321177719	 0.219459
O	-2.0345752924	 0.5326344764	-0.134748716	-0.490784
C	-1.7613550655	-1.7646320973	-0.6937072692	 0.09476
O	-2.6905628789	-1.6425112104	-1.4601641239	-0.277725
H	-0.133672225	 1.3685271685	-0.8046563431	 0.291066
H	 0.8810971889	-1.1282397491	-0.1234854298	 0.093903
H	 1.0324797965	-0.2822334106	 2.2523288757	 0.109477
H	-0.019399558	 1.0874665773	 1.8118124474	 0.114027
H	-0.9271226192	-1.8487647278	 1.9538916982	 0.093904
H	-2.5573123684	 0.4027566375	 1.9797001939	 0.291066
H	-2.6872552373	 0.2515164765	-0.8004154965	 0.305269
H	-1.2303549432	-2.7286433351	-0.5659023385	 0.103317
98.9689	102.3138	220.1356	221.2082	281.9083	285.0242	347.8782	428.8853	462.0187	469.596	484.2344	517.6183	562.4365	651.7952	697.4575	812.148	838.9237	869.7556	913.5513	1046.5425	1057.3355	1082.4758	1095.921	1130.7499	1161.6786	1185.9204	1210.2011	1246.5012	1291.1578	1327.0391	1351.8591	1376.596	1426.7242	1429.5324	1452.7521	1479.8658	1789.8363	2943.1711	3061.2011	3064.0025	3068.929	3129.9823	3637.5484	3744.5427	3749.0592
OC1CC(O)C1(O)C=O	O[C@H]1C[C@@H](O)[C@]1(O)C=O	
InChI=1S/C5H8O4/c6-2-5(9)3(7)1-4(5)8/h2-4,7-9H,1H2	InChI=1S/C5H8O4/c6-2-5(9)3(7)1-4(5)8/h2-4,7-9H,1H2/t3-,4+,5-
