19
gdb 11423	3.74232	1.42833	1.184	2.4552	71.49	-0.2103	-0.017	0.1933	1067.1146	0.16556	-365.079339	-365.071177	-365.070233	-365.112375	30.327	
C	 0.2910901254	 1.3009871011	 0.3016133529	-0.377255
C	-0.1029082249	-0.1747119327	 0.2562139684	-0.128164
N	-1.5025922797	-0.3601524053	-0.1447071476	-0.067357
C	-1.8238502971	-1.7408855068	-0.5622974375	-0.183044
C	-2.229335316	-2.5066708451	 0.7104233736	-0.328415
C	-2.8244794753	-1.4035574629	 1.5899930318	 0.39882
O	-3.4660418052	-1.5419140298	 2.5975058886	-0.30543
C	-2.4592365479	-0.0625719528	 0.9236627084	-0.292811
H	 1.3533712386	 1.4032907323	 0.5448218286	 0.113818
H	 0.1032245233	 1.7731990802	-0.6666719067	 0.12617
H	-0.2736235661	 1.8525468861	 1.0599241585	 0.118908
H	 0.5163592388	-0.6813210718	-0.4917168111	 0.102599
H	 0.1315564953	-0.6478892585	 1.2293188152	 0.079333
H	-2.6686440025	-1.7076957166	-1.2623244404	 0.108184
H	-0.977495641	-2.1831539084	-1.0910968376	 0.108514
H	-2.9437838917	-3.3194085519	 0.5620598625	 0.130111
H	-1.3569992847	-2.9245961598	 1.2273455497	 0.134566
H	-2.0700060734	 0.6451173421	 1.6585440455	 0.132442
H	-3.3837753858	 0.3726217407	 0.5166162272	 0.129012
58.9589	101.2826	138.1872	233.9998	290.9331	367.6322	421.1988	459.1352	476.2841	584.0871	644.0376	739.3776	793.9211	811.7294	831.0015	902.1111	952.6661	977.9985	1051.893	1062.0123	1080.5609	1119.0508	1136.0553	1184.4364	1205.8208	1232.4452	1268.0487	1289.5492	1329.6649	1344.7152	1358.5144	1399.2996	1415.1214	1449.2616	1459.1104	1490.3878	1492.8698	1501.4549	1513.6488	1853.1264	2914.022	3005.3866	3021.5083	3039.7925	3047.0469	3058.453	3105.6253	3109.1731	3113.9758	3115.1874	3120.5777
CCN1CCC(=O)C1	CCN1CCC(=O)C1	
InChI=1S/C6H11NO/c1-2-7-4-3-6(8)5-7/h2-5H2,1H3	InChI=1S/C6H11NO/c1-2-7-4-3-6(8)5-7/h2-5H2,1H3
