19
gdb 80311	3.45671	1.11756	1.07678	0.893	91.6	-0.2152	-0.0173	0.1979	1217.1043	0.159135	-348.729838	-348.721414	-348.72047	-348.762582	33.063	
C	-0.105326598	 1.5529625398	 0.0503651153	-0.41722
C	 0.0425200684	 0.0522505369	-0.0512774267	 0.002062
C	 0.7142149128	-0.6608260616	-1.1969421811	-0.07843
C	 1.6709440059	 0.111683273	-2.1043953277	-0.337097
C	 2.8056582159	 0.5335986189	-1.1737332499	 0.174057
C	 2.6160466087	 0.0508024979	 0.0690269281	-0.179179
C	 1.3475974024	-0.7061086834	 0.1934496666	-0.096767
C	 3.8783695395	 1.3421451366	-1.6156978495	 0.21996
C	 4.7754537261	 2.0261579948	-2.0416062187	-0.429756
H	 0.8012778045	 2.0807983963	-0.2536069293	 0.129532
H	-0.927096674	 1.903155899	-0.5846123397	 0.115942
H	-0.3323831245	 1.8509407078	 1.0797397161	 0.116236
H	-0.8217143019	-0.4885173178	 0.3291587541	 0.0858
H	 0.2231855775	-1.5359222212	-1.6066602803	 0.084538
H	 2.0506657818	-0.5163402787	-2.9190682447	 0.116578
H	 1.2012625776	 0.9828008151	-2.5776212851	 0.118629
H	 3.2978202182	 0.2111663627	 0.8957597542	 0.099578
H	 1.3141017056	-1.5874069096	 0.8251323625	 0.085985
H	 5.5731982733	 2.6274790238	-2.4007011342	 0.189552
93.504	154.8253	179.4427	204.7526	244.9037	348.7997	458.1556	498.4686	521.5893	537.5549	577.4722	597.608	636.2653	712.0526	733.3896	789.8457	857.7703	890.103	908.8288	952.8882	963.6711	993.3235	1027.4983	1060.5376	1083.6039	1112.146	1134.0589	1182.904	1191.0958	1226.2891	1274.7987	1311.9517	1349.4056	1360.3238	1410.3198	1427.2309	1478.654	1496.757	1500.3205	1651.725	2217.3057	3029.4633	3032.6459	3058.6347	3087.5654	3115.3393	3131.2361	3160.795	3174.2231	3205.7406	3504.2191
CC1C2CC(=CC12)C#C	C[C@H]1[C@H]2CC(=C[C@@H]12)C#C	
InChI=1S/C9H10/c1-3-7-4-8-6(2)9(8)5-7/h1,4,6,8-9H,5H2,2H3	InChI=1S/C9H10/c1-3-7-4-8-6(2)9(8)5-7/h1,4,6,8-9H,5H2,2H3/t6-,8+,9-/m1/s1
