24
gdb 110834	3.23213	1.10244	0.99244	0.971	90.21	-0.2245	0.081	0.3054	1359.2011	0.216141	-368.373166	-368.363337	-368.362393	-368.407323	38.117	
C	-0.2426238979	 1.7123973692	-0.2685702703	-0.373594
C	 0.0825826912	 0.257551436	 0.0688090985	-0.117834
N	-1.1369450972	-0.5399463192	 0.0210268831	-0.07812
C	-1.5892324299	-1.279364706	-1.1306785511	-0.044312
C	-0.4596124529	-2.0480321589	-1.8469893894	-0.313494
C	-0.1934220107	-2.8544620575	-0.5250422794	 0.31491
C	-0.7445210663	-4.2801984496	-0.6455351946	-0.426319
C	 1.2244541677	-2.8961735182	 0.0459195213	-0.456115
C	-1.2609368567	-1.966721093	 0.1774568656	-0.085334
H	 0.6552972759	 2.3353007193	-0.204639144	 0.107263
H	-0.6391830998	 1.7951419344	-1.2858903277	 0.117216
H	-0.9955545222	 2.1077417607	 0.4187280593	 0.123581
H	 0.8719300574	-0.0987508297	-0.6079881693	 0.09066
H	 0.4803806503	 0.1885872043	 1.0878680718	 0.102157
H	-2.5554958175	-1.0375558612	-1.5613687207	 0.087545
H	-0.8229339023	-2.6834111907	-2.6580595549	 0.100114
H	 0.3653817304	-1.4404622202	-2.2313417566	 0.096413
H	-0.1240492111	-4.8833123576	-1.3176785408	 0.111435
H	-0.7599661434	-4.7774450837	 0.3315885333	 0.110471
H	-1.7677312184	-4.2817630385	-1.035546591	 0.113488
H	 1.6807042157	-1.9082796724	 0.125139229	 0.116057
H	 1.2233049303	-3.3422071879	 1.0474301078	 0.112434
H	 1.8753552491	-3.5131001839	-0.5852987924	 0.11004
H	-1.9304042017	-2.3341556155	 0.9516279725	 0.081339
69.0235	145.7521	176.2971	188.2201	235.9698	243.7239	261.0675	308.3096	361.8799	368.912	415.075	486.7453	615.4685	628.9845	707.5776	810.9722	822.4138	842.201	860.1609	890.7136	942.1338	964.8703	967.4099	985.0991	1001.5175	1039.9528	1049.5753	1057.5516	1117.2785	1124.7531	1178.5644	1198.7809	1219.8205	1233.8755	1268.3481	1274.0554	1303.9719	1311.941	1377.8603	1396.4227	1402.1562	1413.3748	1422.8522	1478.4838	1486.3672	1487.4355	1489.2708	1497.0945	1503.5939	1508.9139	1515.8364	2997.9385	3020.3811	3027.9156	3037.4369	3050.3365	3055.7089	3080.3301	3087.4433	3096.2913	3105.5098	3105.9726	3119.6858	3134.603	3135.7344	3161.1559
CCN1C2CC(C)(C)C12	CCN1[C@H]2CC(C)(C)[C@@H]12	
InChI=1S/C8H15N/c1-4-9-6-5-8(2,3)7(6)9/h6-7H,4-5H2,1-3H3	InChI=1S/C8H15N/c1-4-9-6-5-8(2,3)7(6)9/h6-7H,4-5H2,1-3H3/t6-,7-,9?/m0/s1
