18
gdb 34638	2.97264	1.36873	1.00753	4.7896	84.09	-0.2526	-0.0375	0.2151	1169.7348	0.150252	-364.836626	-364.828929	-364.827985	-364.868925	29.882	
N	 0.0643789859	-1.1556913185	-0.1380477847	-0.339504
C	 0.0049662784	-0.0012756648	-0.0602094588	 0.216062
C	-0.0291335203	 1.426116429	 0.0272484923	 0.165268
C	-1.1992938176	 2.0855219215	 0.0287185428	-0.129845
C	-1.2697636262	 3.5855085764	 0.1192301149	-0.254855
C	-0.1076046567	 4.1708485637	 0.9452775662	-0.235176
C	 1.2455100983	 3.5832014356	 0.5463465377	-0.031025
C	 1.8960724769	 2.5287540513	 1.4099505004	-0.284235
C	 1.2762043977	 2.1463005924	 0.0826741438	-0.122211
H	-2.1274857249	 1.5265063329	-0.0386409177	 0.115769
H	-1.2563379193	 4.0024467022	-0.8988186194	 0.12677
H	-2.2300278183	 3.8866114366	 0.550809503	 0.113706
H	-0.08815075	 5.2593658659	 0.8358837795	 0.106564
H	-0.3032185752	 3.9712296789	 2.0045236659	 0.111254
H	 1.9160600535	 4.2604992339	 0.0279693835	 0.092237
H	 2.9774959984	 2.5069870209	 1.4855972248	 0.119775
H	 1.3730806401	 2.2297117859	 2.3125419176	 0.120768
H	 1.9697231593	 1.8827484363	-0.7102169017	 0.108677
95.3826	143.5755	187.1005	238.5998	371.6345	397.3214	448.0495	503.8654	569.0713	612.6466	647.6679	749.2471	777.0931	836.0199	878.8851	886.0751	924.1295	959.4205	993.7601	1013.1541	1062.1706	1073.4657	1100.6003	1124.9055	1132.8275	1160.7935	1219.4561	1226.845	1254.7894	1322.0653	1347.7593	1373.0706	1393.2312	1419.9428	1470.9749	1482.3762	1495.691	1681.5399	2334.413	3003.408	3041.1138	3069.4697	3084.0621	3131.6306	3149.991	3161.2575	3181.0545	3221.4391
N#CC1=CCCC2CC12	N#CC1=CCC[C@H]2C[C@@H]12	
InChI=1S/C8H9N/c9-5-7-3-1-2-6-4-8(6)7/h3,6,8H,1-2,4H2	InChI=1S/C8H9N/c9-5-7-3-1-2-6-4-8(6)7/h3,6,8H,1-2,4H2/t6-,8+/m0/s1
