17
gdb 51777	2.59922	1.09375	0.82181	4.5886	69.9	-0.2463	-0.0427	0.2036	1348.9611	0.132818	-458.950671	-458.941316	-458.940372	-458.987226	31.274	
O	-0.1225426405	-0.0023993613	-0.2327688666	-0.239911
C	 0.0407152976	 1.1884056987	-0.1522618723	 0.152956
C	 1.3972890639	 1.8659167667	-0.1366135328	-0.287255
C	 1.5062350783	 2.8744264726	-1.2780585955	 0.118313
O	 0.5274670377	 3.9382070726	-1.1610182793	-0.285919
C	 1.5258751368	 4.9665718392	-1.2713251309	-0.085239
C	 2.6604519423	 3.91233661	-1.324596536	-0.174605
C	 3.6929888363	 3.9936011086	-0.2287937868	 0.141524
O	 4.048082597	 3.0852205119	 0.4764899254	-0.233806
H	-0.8224474989	 1.8851087354	-0.0825518866	 0.096455
H	 1.5099247608	 2.3886160191	 0.8198683979	 0.126508
H	 2.1805619843	 1.10874151	-0.2122506833	 0.136221
H	 1.3864721321	 2.3536402276	-2.2375028624	 0.095912
H	 1.4022790851	 5.5708819896	-2.1772436915	 0.115612
H	 1.5327290625	 5.6317369639	-0.3980719266	 0.113144
H	 3.2095420563	 3.9172445569	-2.272996569	 0.121277
H	 4.1412760885	 5.0099884185	-0.1231407638	 0.088813
37.0155	52.9583	75.6351	81.9604	145.8852	215.8534	312.2457	349.8335	423.8066	500.3758	669.9724	719.7031	806.5418	843.8831	900.6434	904.4644	968.9189	1011.4702	1032.5618	1065.6332	1087.0274	1127.6954	1140.7368	1163.8208	1207.0597	1226.7103	1265.0663	1302.9081	1337.7991	1362.0403	1393.0742	1424.3344	1427.986	1444.1297	1530.3136	1828.8111	1831.7154	2854.0681	2903.6545	3008.9534	3015.9659	3049.6146	3054.4009	3064.8183	3128.0943
O=CCC1OCC1C=O	O=CC[C@H]1OC[C@H]1C=O	
InChI=1S/C6H8O3/c7-2-1-6-5(3-8)4-9-6/h2-3,5-6H,1,4H2	InChI=1S/C6H8O3/c7-2-1-6-5(3-8)4-9-6/h2-3,5-6H,1,4H2/t5-,6-/m1/s1
