18
gdb 23004	2.36657	1.17194	1.0029	0.4394	84.12	-0.2327	-0.0337	0.199	1281.2105	0.144813	-401.862423	-401.852773	-401.851829	-401.897245	35.655	
C	 0.442876276	 1.5679272694	-0.442374451	-0.412211
C	 0.0905318433	 0.1435895052	-0.0819568826	 0.017399
C	 1.1479010971	-0.9233723179	-0.0181683112	-0.303009
C	 0.4836231124	-0.4760817102	 1.2605791071	-0.100709
C	 1.2184989499	 0.2980933409	 2.2986688068	 0.178813
N	 2.4576531326	 0.5920217035	 2.1032327252	-0.177049
O	 2.9950615134	 1.3533880775	 3.1342558913	-0.38535
C	 0.4860713916	 0.6852957402	 3.4610949341	 0.330779
C	-0.1760115906	 0.9757744199	 4.4236291058	-0.458928
H	 1.4157493873	 1.8523400073	-0.0335028813	 0.134728
H	 0.4886060782	 1.6871880769	-1.5304429415	 0.116401
H	-0.3037389174	 2.2723514967	-0.0597392731	 0.11864
H	-0.8849752886	-0.1789710186	-0.4370720377	 0.087724
H	 0.9185870758	-1.9197329062	-0.3797531883	 0.10985
H	 2.1768673362	-0.6137910536	-0.1592804683	 0.133481
H	-0.2577757324	-1.1420577954	 1.6896036739	 0.096377
H	 3.9108223485	 1.4605271654	 2.8541283454	 0.308813
H	-0.7454222433	 1.244512599	 5.2790741853	 0.204254
38.5731	118.5118	138.6952	185.7527	220.5574	269.2446	279.3297	340.1026	392.4668	429.1882	474.603	500.4314	615.3947	633.3948	641.5985	718.9492	770.3092	781.9873	851.6435	886.1477	935.2044	1006.0525	1026.9487	1075.7956	1095.0984	1129.671	1146.8432	1188.0221	1202.5818	1244.536	1383.3696	1397.7107	1420.8668	1429.2779	1485.0574	1499.3743	1502.1813	1666.9089	2220.2077	3033.125	3090.702	3116.4971	3137.7499	3140.384	3163.1033	3229.5372	3500.42	3811.4105
CC1CC1C(=NO)C#C	C[C@H]1C[C@H]1C(=NO)C#C	
InChI=1S/C7H9NO/c1-3-7(8-9)6-4-5(6)2/h1,5-6,9H,4H2,2H3	InChI=1S/C7H9NO/c1-3-7(8-9)6-4-5(6)2/h1,5-6,9H,4H2,2H3/t5-,6+/m0/s1
