21
gdb 62933	2.58835	1.56065	1.48277	2.6501	76.61	-0.2378	0.0699	0.3077	1032.7901	0.1833	-424.217993	-424.209586	-424.208642	-424.250327	33.686	
C	-0.134199673	 1.6160162011	-0.0095077905	-0.481273
C	 0.0225897272	 0.1037455669	 0.0008757662	 0.442308
O	-1.2492816789	-0.5219304377	-0.0772667568	-0.485064
C	 1.068903253	-0.6115802674	-0.8987045071	 0.029962
C	 2.3797707708	 0.172174647	-1.0185240432	-0.237407
C	 3.0536956678	 0.2644964832	 0.3799299122	-0.183578
C	 2.0513000159	 0.1453757852	 1.5630253579	-0.240089
C	 0.8146909791	-0.6319722668	 1.1061334343	 0.060047
O	 1.2335213197	-1.6289937316	 0.1283601795	-0.303641
H	 0.8104472709	 2.1492346524	 0.1133360466	 0.12368
H	-0.5757017916	 1.9439549811	-0.9591843491	 0.107498
H	-0.8121272717	 1.9211562199	 0.7935113088	 0.129189
H	-1.6489352801	-0.2798358862	-0.9199192971	 0.272734
H	 0.7098666541	-1.0290360208	-1.8455756515	 0.065902
H	 3.0543734308	-0.3379850218	-1.7135349915	 0.103318
H	 2.1825911999	 1.1609668459	-1.448242445	 0.09717
H	 3.7576854016	-0.5660098657	 0.4605206656	 0.118795
H	 3.6451639995	 1.1805979504	 0.4645583239	 0.093087
H	 2.5315223403	-0.3810117238	 2.3938070002	 0.104572
H	 1.7501665668	 1.125237481	 1.9503182798	 0.100089
H	 0.2232530077	-1.0650045525	 1.9170156968	 0.082701
114.8236	196.215	227.8281	247.6119	254.9719	309.6125	385.8384	414.7563	428.7076	456.9431	574.9804	625.072	698.8697	767.326	828.8831	854.594	884.2457	896.6236	937.2819	964.4355	975.4406	983.8356	1038.6546	1065.0575	1071.8241	1115.4116	1136.2885	1175.6536	1204.9451	1224.1521	1240.2886	1259.4289	1307.0118	1319.8201	1324.2426	1341.7457	1367.1962	1373.9748	1398.5088	1410.9586	1480.2881	1483.2448	1491.9067	1505.2785	1508.0505	3027.4425	3036.4563	3040.7415	3053.0786	3064.5913	3071.825	3076.2127	3084.5443	3093.5797	3110.5435	3129.4894	3797.8509
CC1(O)C2CCCC1O2	C[C@@]1(O)[C@H]2CCC[C@@H]1O2	
InChI=1S/C7H12O2/c1-7(8)5-3-2-4-6(7)9-5/h5-6,8H,2-4H2,1H3	InChI=1S/C7H12O2/c1-7(8)5-3-2-4-6(7)9-5/h5-6,8H,2-4H2,1H3/t5-,6+,7-
