17
gdb 13098	3.70511	1.4945	1.20741	2.6141	66.72	-0.252	0.0188	0.2708	1015.0673	0.141814	-400.980367	-400.972248	-400.971304	-401.013633	29.402	
O	-0.1323943173	 0.8840883841	-0.9334012208	-0.430784
C	-0.1253870115	-0.2034612157	-0.0568864096	 0.150032
C	-0.0087886595	 0.0119586554	 1.4790820655	-0.265583
C	-1.0570578615	-1.1219584264	 1.6682450459	-0.24844
C	-1.4703865653	-0.9598043526	 0.1911742413	 0.075104
O	-2.5657339779	-0.0473202086	 0.1118597633	-0.210762
C	-3.1530255465	 0.0922653135	-1.0966813374	 0.124226
N	-3.9616192	 1.0407330016	-1.2935364978	-0.444598
H	-0.8294232354	 1.4863021631	-0.6460758072	 0.297794
H	 0.6411325329	-0.8945353579	-0.4205381231	 0.094577
H	 0.9760059311	-0.1111810046	 1.9333625542	 0.105785
H	-0.4150541799	 0.9847468902	 1.7697683445	 0.115215
H	-0.6006872417	-2.0974284106	 1.8512575246	 0.111983
H	-1.854439358	-0.9559759822	 2.3934883693	 0.12394
H	-1.6843468959	-1.8563657843	-0.4009182961	 0.077576
H	-2.8657185009	-0.6865183142	-1.8152682158	 0.092851
H	-4.3434757229	 0.9812829893	-2.235188781	 0.231083
56.6118	97.9473	108.6655	236.278	247.2455	380.5799	397.3807	451.6133	552.8774	628.0678	688.1146	739.0208	823.8142	879.7421	909.4265	924.7904	957.8123	1012.8015	1043.7566	1068.1339	1104.9421	1135.5882	1159.3852	1193.3441	1232.3583	1252.6188	1271.1382	1277.8895	1299.3577	1326.3797	1368.2847	1422.2755	1432.5731	1469.6118	1489.4983	1742.3332	3031.1182	3044.6132	3066.0319	3070.9135	3079.8406	3122.9361	3140.7748	3518.7423	3791.7236
OC1CCC1OC=N	O[C@H]1CC[C@H]1O[CH][NH]	
InChI=1S/C5H9NO2/c6-3-8-5-2-1-4(5)7/h3-7H,1-2H2	InChI=1S/C5H9NO2/c6-3-8-5-2-1-4(5)7/h3-7H,1-2H2/t4-,5+/m0/s1
