18
gdb 99495	2.60266	1.01891	0.83093	2.6311	75.1	-0.2389	-0.0372	0.2017	1423.4112	0.144093	-439.043451	-439.033011	-439.032066	-439.079535	36.624	
C	 0.8845070924	-0.9133639185	 0.9007358835	-0.318964
N	 0.1178876149	-0.597286891	-0.2971298143	-0.272579
C	-1.3170964293	-0.787062257	-0.1800804259	-0.233114
C	-1.9705855818	-0.1027253858	 0.9531266719	 0.334794
C	-2.4787341587	 0.4871536246	 1.8700851088	-0.479531
C	-1.9948482217	-0.2692654365	-1.4632260522	 0.36277
O	-1.5045687159	 0.6162938027	-2.1245175137	-0.321519
C	-3.3133932437	-0.8950723664	-1.8736899933	-0.131143
O	-3.8768773956	-0.2409952172	-2.9699726914	-0.419176
H	 1.9411653136	-0.7147429115	 0.7030613074	 0.126254
H	 0.5819532437	-0.3480763497	 1.7960015351	 0.113793
H	 0.7844284494	-1.9809771913	 1.1285044784	 0.121356
H	 0.2902318034	 0.351399199	-0.6123079795	 0.238564
H	-1.5250286233	-1.8635993035	-0.0923568366	 0.119963
H	-2.9300115533	 1.0003884357	 2.6836496985	 0.208418
H	-3.1114339276	-1.9595781277	-2.0920547212	 0.119767
H	-3.9938700656	-0.8808468706	-1.0088854555	 0.133737
H	-3.2101391108	 0.4006474348	-3.25975297	 0.296611
47.9001	88.2133	103.2565	139.6463	174.6891	181.8784	245.1289	293.358	346.4036	362.2875	389.0903	415.6206	552.9297	581.5832	638.359	669.5589	731.6928	757.6928	872.3533	929.6804	983.3338	1023.6296	1074.4864	1140.9277	1156.5017	1160.0047	1218.4997	1241.5514	1291.1026	1316.7608	1335.8545	1447.4529	1458.8427	1484.4475	1487.7945	1494.8275	1520.5903	1809.1105	2217.0005	2951.9382	2983.9419	3002.6921	3012.2372	3060.3151	3110.9571	3499.145	3539.2496	3704.8325
CNC(C#C)C(=O)CO	CN[C@@H](C#C)C(=O)CO	
InChI=1S/C6H9NO2/c1-3-5(7-2)6(9)4-8/h1,5,7-8H,4H2,2H3	InChI=1S/C6H9NO2/c1-3-5(7-2)6(9)4-8/h1,5,7-8H,4H2,2H3/t5-/m0/s1
