17
gdb 50612	2.14125	1.56393	1.02796	3.557	77.09	-0.2451	-0.0676	0.1775	1158.188	0.135228	-421.865469	-421.856981	-421.856037	-421.89952	30.257	
O	-0.7266417494	 1.3018016794	-0.9419014793	-0.240423
C	-0.0515470001	 1.2086218882	 0.0513262194	 0.136839
C	 1.3594052012	 1.7771709124	 0.1903274401	-0.196946
C	 1.8533754426	 2.5329645405	-1.0662793197	-0.238633
C	 1.7218047864	 4.0439251702	-0.7301852522	-0.26074
C	 1.5743895483	 4.0653555755	 0.7648014255	-0.13919
C	 1.3861182289	 2.8411954534	 1.2803556873	 0.225369
C	 1.2088804075	 2.5483124398	 2.7023225963	 0.07035
O	 0.9944335237	 1.4394323361	 3.1451881167	-0.275588
H	-0.4232294251	 0.6956371905	 0.9616348845	 0.112012
H	 1.9992936147	 0.9307968763	 0.473058648	 0.112615
H	 2.8993075702	 2.2836939818	-1.260936605	 0.109385
H	 1.2669755451	 2.2503384255	-1.9415154292	 0.135217
H	 2.5815627641	 4.6328352543	-1.0687822117	 0.120243
H	 0.8393892251	 4.4982828757	-1.2011085602	 0.135745
H	 1.6021046405	 4.9771012352	 1.3538285066	 0.116078
H	 1.2917187962	 3.4306175652	 3.3741067228	 0.077667
58.0002	87.0974	125.9332	174.1171	262.9784	278.9744	291.5769	471.693	513.2663	597.3196	720.5544	730.9193	766.1726	818.9193	860.7278	923.9393	938.1846	988.6476	1019.5471	1042.0201	1063.5652	1081.865	1167.9237	1178.8993	1245.0078	1254.4556	1301.0822	1307.6724	1332.8556	1360.731	1408.8967	1418.15	1467.4948	1490.8776	1677.2162	1775.2023	1823.5777	2892.9677	2934.391	3021.9754	3027.2633	3058.6684	3077.789	3132.8949	3186.0005
O=CC1CCC=C1C=O	O=C[C@H]1CCC=C1C=O	
InChI=1S/C7H8O2/c8-4-6-2-1-3-7(6)5-9/h2,4-5,7H,1,3H2	InChI=1S/C7H8O2/c8-4-6-2-1-3-7(6)5-9/h2,4-5,7H,1,3H2/t7-/m1/s1
