19
gdb 61623	3.56854	0.88125	0.87313	6.7209	76.52	-0.2682	0.0297	0.2979	1403.4528	0.159393	-419.193772	-419.184531	-419.183587	-419.228475	34.023	
C	 0.6191964253	 1.3731583608	-0.1365562787	-0.409397
C	 0.1275970359	-0.0330478203	 0.1031783257	 0.012456
N	 1.1535882307	-1.0548812857	 0.375045755	-0.351264
C	 0.1756837003	-0.7002934086	 1.4365910486	-0.045701
C	 0.7051152463	-0.0293598284	 2.7013924791	-0.237434
C	 2.1508072221	-0.4604065078	 3.0453227738	-0.013773
O	 3.0771592488	-0.0359552262	 2.072165895	-0.427759
C	 2.5490217082	 0.1078715662	 4.3451197114	 0.287861
N	 2.8192907225	 0.5419359807	 5.3806403208	-0.319521
H	 1.4888575363	 1.5940680431	 0.4866986155	 0.146562
H	 0.9143779009	 1.4999223645	-1.1829828671	 0.127977
H	-0.1670579773	 2.1031756197	 0.0832798865	 0.12493
H	-0.6931782668	-0.345323411	-0.5401987827	 0.094505
H	 0.9250385407	-1.9476296651	-0.0499325727	 0.243279
H	-0.59928263	-1.4414635894	 1.6160568669	 0.09863
H	 0.6982352798	 1.059981654	 2.6055028258	 0.133076
H	 0.0460289271	-0.27993964	 3.5384094958	 0.122332
H	 2.1713205862	-1.5573457673	 3.1616118343	 0.109115
H	 2.744325123	-0.4270606493	 1.2402432569	 0.304126
47.1438	70.897	149.0129	209.9526	246.445	273.2402	284.9239	359.0491	402.7102	484.7934	531.9905	566.9002	591.1894	728.7594	774.8953	806.7883	869.0102	906.4772	937.924	971.2767	1008.3753	1034.957	1049.1351	1085.4818	1113.7956	1162.7254	1180.3724	1245.6629	1262.8604	1280.1939	1294.4614	1331.5488	1365.2848	1397.0682	1426.6391	1452.4226	1475.209	1492.8569	1500.516	1508.2991	2366.2811	2961.5352	3040.0647	3058.7522	3101.5558	3104.0521	3116.959	3132.9632	3140.13	3525.1576	3536.5909
CC1NC1CC(O)C#N	C[C@H]1N[C@H]1C[C@@H](O)C#N	
InChI=1S/C6H10N2O/c1-4-6(8-4)2-5(9)3-7/h4-6,8-9H,2H2,1H3	InChI=1S/C6H10N2O/c1-4-6(8-4)2-5(9)3-7/h4-6,8-9H,2H2,1H3/t4-,5-,6+/m1/s1
