17
gdb 26942	3.06636	1.26814	0.95961	1.7068	76.37	-0.2148	0.0159	0.2307	1211.8651	0.135673	-421.836545	-421.828297	-421.827353	-421.870111	30.152	
C	 0.2967897639	 1.5259163448	 0.3093636602	-0.494976
C	 0.033578734	 0.0872435712	 0.0417925403	 0.267344
C	-1.0980135866	-0.6431243355	-0.1877099725	 0.188323
C	-0.6672659775	-2.0027733322	-0.3813469393	-0.286731
C	 0.6807225343	-1.9908360063	-0.2587888042	-0.015504
O	 1.1261071177	-0.7290639549	-0.0051509126	-0.184597
C	-2.4876670851	-0.153436115	-0.2358274689	-0.050756
C	-3.4624179639	-0.6296238906	-1.2344608727	-0.182731
O	-3.5156867247	-1.0944442305	 0.1119559244	-0.234176
H	 0.8986978613	 1.6542363494	 1.2155331462	 0.142615
H	 0.8422268198	 1.9988391934	-0.5159260705	 0.140763
H	-0.6423690338	 2.0669777907	 0.4438193372	 0.135924
H	-1.2999243112	-2.858383564	-0.5551334725	 0.122877
H	 1.4407246013	-2.7526711572	-0.3103547699	 0.134635
H	-2.6500871453	 0.8439026942	 0.1731008554	 0.087134
H	-4.2823136869	 0.019071407	-1.5419173829	 0.115346
H	-3.1457621474	-1.3645942646	-1.9730896576	 0.11451
58.3153	108.8162	163.5218	169.5994	237.2389	286.2645	437.96	469.1072	606.4814	620.851	689.1168	722.5601	749.8959	829.2824	840.9446	896.2179	919.4014	962.0169	994.183	1059.3167	1067.8814	1094.4462	1121.3796	1153.6176	1168.1765	1176.1648	1245.4418	1271.1753	1305.1666	1412.7416	1421.7745	1448.801	1470.8655	1489.256	1522.7473	1555.0086	1665.9812	3030.2918	3078.5872	3081.8642	3106.4659	3128.5136	3168.5134	3261.019	3286.7786
CC1=C(C=CO1)C1CO1	Cc1c(cco1)[C@H]1CO1	
InChI=1S/C7H8O2/c1-5-6(2-3-8-5)7-4-9-7/h2-3,7H,4H2,1H3	InChI=1S/C7H8O2/c1-5-6(2-3-8-5)7-4-9-7/h2-3,7H,4H2,1H3/t7-/m1/s1
