19
gdb 41531	3.00214	1.58847	1.13562	0.8243	78.68	-0.2357	0.0146	0.2504	1087.3354	0.161004	-423.008054	-423.00054	-422.999595	-423.039864	29.749	
C	-0.0111418586	 1.4604792894	-0.1744172746	-0.259645
C	 1.5197033916	 1.5107814326	 0.1530264926	-0.328566
C	 1.3723630579	 0.0944761278	 0.6752041021	 0.340764
C	 1.8648704804	-0.6376868369	 1.6626373576	-0.247427
C	 1.2381479826	-1.9594793293	 2.0425655834	-0.122911
O	 0.4639431566	-2.5198069697	 0.9877958528	-0.233313
C	-0.8530920232	-2.0622558779	 0.8630468813	-0.004563
O	-0.9765409995	-0.664830827	 0.7379832486	-0.255139
C	 0.0472647041	-0.0844904264	-0.0430483548	 0.079762
H	-0.6106204568	 1.8805417879	 0.635584225	 0.121274
H	-0.3420858888	 1.8710880468	-1.130097467	 0.101736
H	 2.1300272578	 1.5727751285	-0.754573342	 0.113433
H	 1.864538568	 2.2752045537	 0.8533707367	 0.113242
H	 2.7194670498	-0.3103118233	 2.2509025074	 0.088298
H	 2.0180372892	-2.6969518658	 2.2660116493	 0.116308
H	 0.6271233741	-1.8537854667	 2.9549713245	 0.104749
H	-1.2335194944	-2.5780801599	-0.0308420365	 0.098251
H	-1.4656893586	-2.323896462	 1.7389050314	 0.096704
H	 0.1340884079	-0.5832865717	-1.0198871978	 0.077043
117.1663	203.5214	222.4345	295.6622	316.4342	341.9863	381.9339	487.6959	626.8158	680.3927	699.477	759.1363	797.7704	844.9406	902.0426	917.5357	949.3083	1001.9177	1014.585	1041.4689	1065.3414	1094.2186	1117.4773	1118.5446	1167.7835	1171.0962	1193.0879	1228.4005	1258.3862	1264.4737	1275.0251	1311.3555	1332.0899	1373.7495	1394.3045	1446.6067	1472.9795	1483.0468	1488.0825	1512.7307	1776.8416	2963.1467	2983.6953	2989.589	3027.8289	3044.7144	3051.2019	3075.3782	3099.5153	3137.583	3151.8906
C1CC2=CCOCOC12	C1CC2=CCOCO[C@@H]12	
InChI=1S/C7H10O2/c1-2-7-6(1)3-4-8-5-9-7/h3,7H,1-2,4-5H2	InChI=1S/C7H10O2/c1-2-7-6(1)3-4-8-5-9-7/h3,7H,1-2,4-5H2/t7-/m0/s1
