21
gdb 93781	3.08644	1.22828	0.92186	1.1018	90.72	-0.2106	-0.0241	0.1865	1325.2323	0.182314	-387.103046	-387.093982	-387.093038	-387.136904	34.675	
C	-0.3079063036	 1.4351983682	-0.0169255787	-0.401399
C	 0.0306334386	-0.0525823514	 0.0006489076	 0.064701
O	 0.8009264417	-0.316153973	-1.1749347487	-0.24772
C	 0.6943431346	-1.6121378891	-1.7015953215	-0.160576
C	 1.202697368	-2.7610614159	-0.861816398	 0.246158
C	 1.3235368825	-4.0461684151	-1.639672679	-0.466996
C	 1.5464330947	-2.7052939723	 0.4374565537	-0.153513
C	 1.4499315165	-1.6025572431	 1.3870620731	-0.068713
C	 0.7823181117	-0.4504152879	 1.2467902091	-0.084296
H	 0.6106256152	 2.0298930707	 0.0001348516	 0.129469
H	-0.8667093268	 1.6891377574	-0.9206915223	 0.118401
H	-0.9100683733	 1.7023699993	 0.8568865083	 0.113897
H	-0.9056440563	-0.6341228776	-0.056238406	 0.078306
H	-0.3463634151	-1.8346797511	-2.0070543943	 0.092716
H	 1.2778822937	-1.5845832431	-2.632199072	 0.11506
H	 2.0486201071	-3.9524481122	-2.4588069307	 0.126948
H	 1.636470573	-4.8756059241	-1.0014649276	 0.125694
H	 0.3665893567	-4.3190837241	-2.1048367002	 0.124537
H	 1.9396931617	-3.6252711242	 0.8673188085	 0.075821
H	 1.9563241353	-1.7773155504	 2.3339724604	 0.086109
H	 0.7883026541	 0.2656640292	 2.0646752067	 0.085398
42.9585	152.1402	204.2368	231.9616	238.4536	306.4077	314.0119	359.3727	372.4833	441.5624	465.0224	582.2919	622.4365	704.4174	758.3042	835.9144	867.4551	891.7044	914.3142	975.2617	986.3346	1007.2832	1043.3857	1076.8684	1083.4904	1122.373	1141.6323	1157.4984	1199.0303	1256.403	1287.9297	1323.4632	1371.2956	1389.3034	1406.6749	1410.0428	1419.497	1437.5796	1471.1946	1478.3328	1486.4109	1492.9104	1498.5551	1684.1038	1715.3393	2914.7785	2950.262	3010.8207	3027.8646	3043.0388	3054.1421	3115.4151	3117.4561	3127.3962	3128.0244	3143.7843	3165.791
CC1OCC(C)=CC=C1	C[C@H]1OCC(=CC=C1)C	
InChI=1S/C8H12O/c1-7-4-3-5-8(2)9-6-7/h3-5,8H,6H2,1-2H3	InChI=1S/C8H12O/c1-7-4-3-5-8(2)9-6-7/h3-5,8H,6H2,1-2H3/t8-/m1/s1
