17
gdb 97484	8.66826	0.43431	0.42682	1.2318	102.32	-0.2245	-0.0126	0.2119	2514.2091	0.134384	-384.620019	-384.610176	-384.609232	-384.657169	33.925	
O	 0.0765399857	 1.2075531977	-0.7200795113	-0.408122
C	-0.0288755308	 0.1070618342	 0.1752211887	-0.246135
C	-1.380406146	-0.4279468803	 0.1475341139	 0.290149
C	-2.4962274225	-0.8981017407	 0.1488201575	-0.19833
C	-3.7490092337	-1.4216688235	 0.1481461792	-0.219152
C	-4.8660810936	-1.8939585383	 0.1402945803	 0.321538
C	-6.185414998	-2.4394855085	 0.1437581938	-0.201776
C	-6.8503638059	-2.8462455553	-1.1662872383	-0.250121
C	-6.4099275972	-3.9063153644	-0.2057650552	-0.250491
H	 0.9809782758	 1.5335650629	-0.6666939619	 0.290419
H	 0.6776545399	-0.6959652413	-0.0940430117	 0.121198
H	 0.2132527041	 0.4077221806	 1.2083850139	 0.121674
H	-6.8493921108	-2.0297240057	 0.8998282596	 0.117428
H	-7.9096259182	-2.6369031526	-1.2623937333	 0.123157
H	-6.2739594053	-2.7058381148	-2.0725877989	 0.133556
H	-5.5322874175	-4.4898175083	-0.4558674535	 0.132246
H	-7.1622407161	-4.4358568518	 0.3675404472	 0.122763
16.9208	59.5142	67.0382	144.4784	165.9396	221.7461	259.1216	319.6511	409.7563	469.7887	521.6362	576.1262	599.6326	642.0761	785.0598	819.7007	835.3778	884.4277	958.6948	1019.1094	1050.3127	1062.0555	1081.8101	1105.5778	1113.5039	1201.0173	1206.0682	1241.94	1245.0838	1288.0983	1399.6333	1461.3835	1466.2037	1495.4396	1496.2014	2274.0712	2371.2629	2956.9025	2974.3266	3141.7929	3142.9779	3148.2658	3228.8237	3243.766	3815.3208
OCC#CC#CC1CC1	OCC#CC#CC1CC1	
InChI=1S/C8H8O/c9-7-3-1-2-4-8-5-6-8/h8-9H,5-7H2	InChI=1S/C8H8O/c9-7-3-1-2-4-8-5-6-8/h8-9H,5-7H2
