18
gdb 46414	4.15194	0.77855	0.68992	3.4815	80.95	-0.2449	0.0311	0.2759	1603.4235	0.146469	-401.938296	-401.92895	-401.928005	-401.973833	33.148	
O	-0.0417655696	-0.0303997062	-0.2894695841	-0.367088
C	-0.0729577579	 1.1576452338	-0.1058200749	 0.402363
C	-1.1559675714	 2.2553487603	 0.0127152283	-0.370278
C	 0.0321074621	 3.2423946218	 0.1957632787	-0.177086
N	 0.9284700804	 2.0861235769	 0.0766878623	-0.066254
C	 2.3622100036	 1.9576749725	 0.0553773043	-0.175524
C	 3.0023014397	 2.1318736338	 1.4534316325	-0.353644
C	 4.4543194894	 2.0335817869	 1.4055094141	 0.296881
C	 5.65029456	 1.9479492433	 1.3240234212	-0.437132
H	-1.750549867	 2.3974107932	-0.891146627	 0.135543
H	-1.8174395391	 2.1459668267	 0.8736911081	 0.134465
H	 0.1552732703	 3.9803760377	-0.6048402286	 0.113717
H	 0.0753590243	 3.7497101862	 1.1653390428	 0.113248
H	 2.585788137	 0.9592243151	-0.3302578505	 0.152732
H	 2.796271985	 2.6889524493	-0.6371873146	 0.121443
H	 2.710789246	 3.105268265	 1.8679287706	 0.131444
H	 2.5920042513	 1.3701413631	 2.126854208	 0.145942
H	 6.7079047461	 1.8707791106	 1.2696111788	 0.199227
50.8997	60.7152	73.6871	161.0537	185.0028	248.6035	324.869	353.8886	458.8762	526.0473	561.6638	626.3345	650.5477	739.8965	771.5031	789.9764	822.3155	948.3038	970.4846	993.0817	1018.2249	1045.639	1069.1951	1137.2554	1151.698	1186.7365	1206.9431	1262.6136	1286.3226	1304.4653	1342.3266	1391.6286	1421.6828	1462.8559	1470.4054	1482.6101	1530.5315	1878.1275	2240.5799	3024.8404	3032.4044	3035.077	3063.6273	3075.1641	3090.0297	3109.2879	3147.68	3506.7231
O=C1CCN1CCC#C	O=C1CCN1CCC#C	
InChI=1S/C7H9NO/c1-2-3-5-8-6-4-7(8)9/h1H,3-6H2	InChI=1S/C7H9NO/c1-2-3-5-8-6-4-7(8)9/h1H,3-6H2
