24
gdb 116757	3.23826	0.76011	0.72056	2.9595	90.58	-0.2378	0.0356	0.2734	1761.4751	0.213409	-405.560042	-405.548586	-405.547641	-405.596874	41.779	
C	 0.3715281271	 0.6527017771	-0.7592461014	-0.396444
C	-0.4313697868	 0.2917040709	 0.4961162153	-0.107713
N	-1.6024506383	-0.558562197	 0.36777647	-0.234801
C	-1.9556923457	-0.9948329611	-0.7589589771	 0.11688
O	-3.0467128274	-1.7821347627	-0.8539584674	-0.246549
C	-3.4560183173	-2.2851239234	-2.1536595137	 0.34597
C	-2.3626366883	-3.1808952315	-2.7519266708	-0.408872
C	-4.7017269972	-3.1126872686	-1.8281933669	-0.398301
C	-3.8174790157	-1.1237859757	-3.0898385826	-0.408864
H	 1.2136343736	 1.2944699369	-0.4828415138	 0.113974
H	 0.7809621816	-0.2353920469	-1.2531042631	 0.116401
H	-0.2346007172	 1.1992635223	-1.4900810164	 0.116394
H	 0.2375658465	-0.1920172077	 1.2209778503	 0.109522
H	-0.7600814727	 1.2172894705	 0.9881848136	 0.109529
H	-1.4473663359	-0.7911651832	-1.7060879819	 0.077709
H	-2.0845760737	-3.9643602709	-2.0414316901	 0.130219
H	-2.7278262165	-3.6578962092	-3.666572571	 0.119584
H	-1.4627889003	-2.6160805982	-3.0118208774	 0.115436
H	-5.4656611999	-2.4828262039	-1.364805834	 0.126431
H	-5.1169791124	-3.555706641	-2.7379641232	 0.11183
H	-4.4523271249	-3.9156876211	-1.1295944575	 0.126422
H	-2.9444043707	-0.5209976321	-3.3556912911	 0.115433
H	-4.2458341261	-1.5110916853	-4.0193428684	 0.119585
H	-4.5554987617	-0.4709506279	-2.6154231915	 0.130225
45.2007	64.2103	111.8116	162.0775	192.5763	239.8125	244.9963	251.6366	271.6839	335.9469	339.3475	345.0937	355.9462	450.6078	454.9731	517.3469	575.276	768.1297	779.4929	871.1003	914.1502	924.7822	952.5189	961.3415	986.1608	1045.9739	1049.0957	1078.0354	1095.0178	1147.8309	1209.7086	1238.8519	1258.6824	1283.3359	1313.6786	1377.5688	1395.3459	1399.8635	1401.428	1424.7563	1433.9057	1470.8683	1483.1838	1484.0897	1485.9558	1494.9167	1500.1167	1502.8239	1507.5477	1517.5934	1768.7998	3010.7913	3028.8922	3029.5143	3040.641	3042.0352	3048.8616	3071.1085	3096.765	3105.0595	3109.6486	3114.7904	3119.5874	3120.6363	3125.9359	3126.2267
CCN=COC(C)(C)C	CCN=COC(C)(C)C	
InChI=1S/C7H15NO/c1-5-8-6-9-7(2,3)4/h6H,5H2,1-4H3	InChI=1S/C7H15NO/c1-5-8-6-9-7(2,3)4/h6H,5H2,1-4H3
