17
gdb 9175	8.64384	0.8137	0.75067	2.987	74.13	-0.2356	0.0138	0.2495	1509.6544	0.140977	-397.225373	-397.215536	-397.214592	-397.261505	32.578	
C	-0.1448178677	 1.3015247281	-0.6206465873	-0.330774
N	-0.1453352974	 0.0359816522	 0.084507468	-0.369832
C	 0.8109722212	-0.270201997	 1.0145153139	 0.527299
O	 1.7237909268	 0.4734309434	 1.3245279432	-0.398183
N	 0.6477943569	-1.5301602888	 1.5875758375	-0.390135
C	 1.5060244212	-2.0329370206	 2.5494034073	 0.125441
N	 1.3212643574	-3.1836904455	 3.0442743301	-0.251362
C	 2.2657905027	-3.6345934192	 4.0456945135	-0.309678
H	-0.0462213493	 1.157672233	-1.7025843529	 0.125706
H	-1.0605795211	 1.8705245759	-0.4240750653	 0.125704
H	 0.7112409076	 1.8719838104	-0.2594896926	 0.17618
H	-0.8714499171	-0.6292828344	-0.1205709398	 0.241293
H	-0.1133082947	-2.1370635562	 1.3213784015	 0.248206
H	 2.311959017	-1.3380312981	 2.8019661462	 0.131569
H	 1.7356047142	-3.8631869264	 4.9779481524	 0.123629
H	 2.7385818885	-4.5670998259	 3.7150095399	 0.123631
H	 3.0600664438	-2.9048992407	 4.2697690244	 0.101306
22.9716	65.976	119.1171	124.9028	134.2514	203.7603	284.6794	297.1753	349.144	380.8709	388.4036	566.5935	590.8152	742.5469	763.8726	963.9788	1012.4846	1059.4162	1098.2545	1143.5243	1156.3454	1158.8963	1173.6593	1224.1691	1276.8536	1355.639	1440.5751	1448.0323	1480.4293	1485.1665	1499.2033	1499.7372	1513.6949	1572.85	1759.5688	1798.8162	2975.475	3025.6788	3055.5056	3069.6553	3076.2261	3098.9913	3157.3575	3616.7043	3649.6422
CNC(=O)NC=NC	CNC(=O)NC=NC	
InChI=1S/C4H9N3O/c1-5-3-7-4(8)6-2/h3H,1-2H3,(H2,5,6,7,8)	InChI=1S/C4H9N3O/c1-5-3-7-4(8)6-2/h3H,1-2H3,(H2,5,6,7,8)
