18
gdb 30118	3.83266	1.14324	1.08024	2.8108	80.05	-0.2113	0.0209	0.2322	1179.1109	0.149867	-398.135926	-398.127933	-398.126989	-398.168882	30.307	
C	 0.3133858096	 1.5283117085	-0.4984628034	-0.324054
N	 0.0467960673	 0.1478042163	-0.1034665457	-0.093089
C	 1.1906439433	-0.7405288305	 0.0232761121	-0.241862
C	 0.4565066822	-0.3026422398	 1.2453431858	-0.120327
C	 1.1115587376	 0.5851070168	 2.2248925843	 0.371289
N	 2.2500541608	 1.2394584287	 2.0909797919	-0.302701
C	 2.4191331139	 1.9439890756	 3.2589637455	-0.088072
C	 1.3779040852	 1.7126727193	 4.1172557412	-0.114114
N	 0.5471088772	 0.8450153585	 3.4442738961	-0.293827
H	 1.2517346027	 1.9347915371	-0.1002580637	 0.140369
H	 0.3445783747	 1.5660094457	-1.5918667247	 0.119803
H	-0.5143175099	 2.1613136612	-0.161863606	 0.114537
H	 1.0576491893	-1.7513870792	-0.3544673726	 0.11069
H	 2.1857349608	-0.3186578937	-0.1040132931	 0.136934
H	-0.2654064146	-0.9851934906	 1.6915504202	 0.080904
H	 3.2838977582	 2.5702129636	 3.4170895245	 0.108711
H	 1.1572350374	 2.0604633801	 5.112449262	 0.12909
H	-0.3248747656	 0.4738037323	 3.7828232357	 0.265719
55.4677	131.3526	184.6093	219.7313	295.097	361.4075	436.3483	482.287	546.392	644.8976	682.8168	724.0121	733.7464	790.4078	856.7696	869.8952	929.5299	959.2864	1013.7836	1040.2409	1096.1025	1104.122	1127.9505	1134.226	1139.4156	1170.5298	1199.0008	1214.5472	1227.9832	1323.6599	1372.9156	1410.3257	1448.5696	1471.1844	1490.2022	1504.8867	1507.2979	1512.0124	1586.3068	3014.0841	3084.9963	3095.0448	3100.8456	3110.0937	3185.0953	3249.5255	3282.3968	3662.5348
CN1CC1C1=NC=CN1	CN1C[C@H]1c1ncc[nH]1	
InChI=1S/C6H9N3/c1-9-4-5(9)6-7-2-3-8-6/h2-3,5H,4H2,1H3,(H,7,8)	InChI=1S/C6H9N3/c1-9-4-5(9)6-7-2-3-8-6/h2-3,5H,4H2,1H3,(H,7,8)/t5-,9?/m0/s1
