19
gdb 108124	3.05631	1.58817	1.4149	1.0996	74.57	-0.2288	0.085	0.3138	997.6157	0.160131	-422.969723	-422.962296	-422.961352	-423.001584	29.654	
C	-0.0698416446	 1.3978395072	 0.0071982845	-0.265764
O	-0.022044178	-0.0182916721	-0.0166097126	-0.298386
C	 0.5829999911	-0.5360409762	-1.141992043	 0.430033
C	 0.0336605608	-0.4668947249	-2.5803186259	-0.315745
C	 1.0749102774	-1.5903371979	-2.7852011892	 0.068957
O	 2.322544206	-0.8856217141	-2.6539944873	-0.267153
C	 2.1869694665	-0.5403629257	-1.2693728351	 0.009932
C	 2.1965778448	-1.9190649435	-0.5718518861	-0.250579
C	 0.8468678868	-2.0701254186	-1.2878565264	-0.130052
H	 0.9354927219	 1.8400737602	-0.0307252392	 0.112606
H	-0.6576432436	 1.7956991775	-0.8315644609	 0.11697
H	-0.5496088644	 1.6847663014	 0.9451823278	 0.130424
H	-0.995830782	-0.8342963952	-2.6095003697	 0.104991
H	 0.155115352	 0.4321805688	-3.1887394082	 0.100247
H	 1.0823896598	-2.2567571059	-3.6444075112	 0.083942
H	 2.8378672283	 0.2896195376	-0.9995291795	 0.07798
H	 3.0249561661	-2.5875548692	-0.8165607125	 0.098967
H	 2.0531814896	-1.8423721584	 0.5082838464	 0.112915
H	 0.0979988415	-2.833554641	-1.086865862	 0.079715
88.8255	175.5482	185.3435	315.4065	356.6308	445.6042	480.8868	521.615	577.2556	672.5944	720.0399	801.0061	839.4474	900.7086	921.0973	927.1336	945.9224	959.1527	993.1507	1022.9476	1042.1994	1056.1253	1063.4095	1123.5832	1142.1692	1154.9787	1164.2919	1182.0761	1193.8292	1223.6948	1233.9108	1245.9145	1257.5959	1274.371	1317.8123	1348.5079	1474.858	1475.3062	1488.2072	1489.7884	1507.069	2994.7862	3047.4918	3060.1004	3067.6494	3124.1964	3125.7827	3132.5168	3134.7114	3140.6837	3151.6481
COC12CC3OC1CC23	CO[C@@]12C[C@H]3O[C@@H]1C[C@@H]23	
InChI=1S/C7H10O2/c1-8-7-3-5-4(7)2-6(7)9-5/h4-6H,2-3H2,1H3	InChI=1S/C7H10O2/c1-8-7-3-5-4(7)2-6(7)9-5/h4-6H,2-3H2,1H3/t4-,5-,6-,7-/m1/s1
