18
gdb 17915	3.16323	2.23259	2.13805	1.5664	70.55	-0.2403	0.0201	0.2604	764.9042	0.156844	-347.812246	-347.805751	-347.804806	-347.84232	27.042	
O	 0.1450555698	 1.3692872664	-0.1359707353	-0.45244
C	 0.0161763762	-0.0229204708	 0.0099023202	 0.174874
C	 0.3816292397	-0.6328458287	 1.396997821	-0.092756
C	-0.7276830932	 0.0055769328	 2.2968865135	-0.226004
C	-1.9750524576	 0.0227037426	 1.3579830201	-0.225995
C	-1.428343893	-0.608034596	 0.0346458905	-0.092751
C	-1.0953426744	-2.0533442527	 0.3357086625	-0.07816
C	-0.0250032002	-2.0680171941	 1.1413055934	-0.078159
H	-0.3657393816	 1.8089160275	 0.5509173841	 0.282573
H	 0.6132024786	-0.4636696223	-0.7913149484	 0.087136
H	 1.4002007011	-0.4673715945	 1.7490939017	 0.062402
H	-0.8907385655	-0.5736553559	 3.2076945806	 0.104132
H	-0.4400674842	 1.016400914	 2.6085727655	 0.090825
H	-2.8152710818	-0.5472078479	 1.7591080154	 0.104129
H	-2.3363245966	 1.0424390451	 1.1811929912	 0.090828
H	-2.0454270082	-0.4201422999	-0.8444135838	 0.062402
H	-1.6746906833	-2.9033447868	-0.0032420694	 0.093483
H	 0.4460294141	-2.9324139586	 1.592945857	 0.093482
217.6146	255.9075	266.9545	355.5564	373.6732	512.4797	559.5717	676.223	728.4199	760.1979	795.0079	833.4595	839.7507	874.9001	887.7704	941.4347	956.87	974.3035	994.914	1028.8184	1052.4365	1097.8095	1118.867	1141.0937	1162.6797	1186.0723	1233.1749	1255.8632	1264.379	1288.6942	1301.1744	1302.1572	1333.3868	1362.0991	1427.4956	1496.0132	1511.4351	1638.2469	3030.3001	3045.6713	3096.7268	3097.0711	3110.2798	3111.6987	3115.7065	3192.8158	3217.6531	3821.7391
OC1C2CCC1C=C2	O[C@H]1[C@H]2CC[C@@H]1C=C2	
InChI=1S/C7H10O/c8-7-5-1-2-6(7)4-3-5/h1-2,5-8H,3-4H2	InChI=1S/C7H10O/c8-7-5-1-2-6(7)4-3-5/h1-2,5-8H,3-4H2/t5-,6+,7+
