19
gdb 111153	4.15357	1.03133	0.95546	3.174	76.35	-0.2443	0.0737	0.3181	1298.0932	0.157719	-422.923678	-422.915405	-422.914461	-422.956618	31.796	
C	-0.2019429174	 1.5255640206	 0.0138972594	-0.380079
C	 0.1326946948	 0.0336103322	-0.0959860789	-0.220659
C	 0.8246471757	-0.5036618913	 1.1458271352	 0.036438
C	-0.038668952	-0.8409618965	 2.4022879661	-0.090064
O	-0.5996043295	-2.0065114687	 1.6711496556	-0.312044
C	 0.8578955878	-2.0439639744	 1.3783966904	-0.105229
C	 1.0981993278	-1.7613372943	 2.8680664729	 0.573381
C	 2.2140403589	-1.7252213817	 3.8009175734	-0.309505
O	 1.107861458	-2.6573506258	 3.9299875427	-0.281504
H	 0.6981122135	 2.12739638	 0.1833478825	 0.112287
H	-0.6771730417	 1.8897883751	-0.9018447761	 0.117015
H	-0.8904648351	 1.7184391481	 0.8436266531	 0.117707
H	-0.7764524505	-0.5480278898	-0.2709363225	 0.122169
H	 0.788995977	-0.1297714203	-0.9605017732	 0.095445
H	 1.7645674639	 0.0192052889	 1.3592674291	 0.071614
H	-0.7283575638	-0.2219831371	 2.9749491216	 0.10265
H	 1.2263497734	-2.8446540974	 0.7378161048	 0.101989
H	 3.1674150747	-2.1779884769	 3.5340545781	 0.124166
H	 2.2608656445	-0.9583309109	 4.572181406	 0.12422
89.4935	127.7594	166.8094	233.2062	286.2314	324.3238	333.3987	436.2116	485.6199	607.6028	713.8603	744.207	762.0157	788.7247	858.2394	881.9888	885.9218	894.4969	963.8188	1016.3113	1058.6027	1072.1914	1099.0207	1110.8064	1112.1049	1116.4604	1148.4661	1156.5818	1179.4836	1195.7624	1216.9764	1261.5298	1288.1575	1347.0507	1407.4637	1416.2335	1463.963	1488.5412	1500.6175	1505.7374	1560.8269	3026.5292	3030.7983	3041.9998	3084.3687	3089.0326	3105.4603	3107.3372	3128.3615	3133.3892	3176.6251
CCC1C2OC1C21CO1	CC[C@H]1[C@H]2O[C@@H]1[C@]12CO1	
InChI=1S/C7H10O2/c1-2-4-5-7(3-8-7)6(4)9-5/h4-6H,2-3H2,1H3	InChI=1S/C7H10O2/c1-2-4-5-7(3-8-7)6(4)9-5/h4-6H,2-3H2,1H3/t4-,5+,6-,7+
