21
gdb 114012	4.10304	0.62435	0.58059	3.841	81.5	-0.2447	-0.0169	0.2279	1921.8316	0.179578	-424.208774	-424.198404	-424.19746	-424.245808	36.011	
C	 0.1350697889	 1.0753259601	-0.620494845	-0.231732
O	-0.2039899939	 0.2217223204	 0.4541259604	-0.23577
C	-1.3945196184	-0.4680599226	 0.2462766146	 0.112177
C	-1.3753926562	-1.7415047906	-0.5682523094	-0.326
C	-1.5481041012	-1.7866347933	 0.9408769944	-0.041041
C	-0.4428640797	-2.3315523446	 1.8211648053	-0.217704
C	-0.4493024631	-3.8706793663	 1.8883461438	-0.26633
C	 0.719701311	-4.4019261812	 2.6832428084	 0.158644
O	 0.6386441155	-5.1371481883	 3.6332886974	-0.238338
H	 1.076001568	 1.5645799217	-0.3586021819	 0.128572
H	 0.2657255985	 0.5158251557	-1.557830559	 0.10965
H	-0.6340288226	 1.8456575668	-0.7820523282	 0.107984
H	-2.2722350909	 0.1757366607	 0.1647953592	 0.085691
H	-2.2177080352	-1.9774146055	-1.209269659	 0.11283
H	-0.408393255	-2.0455677164	-0.9573433842	 0.115735
H	-2.55241923	-2.00834084	 1.293524177	 0.090323
H	 0.523102484	-1.9763813734	 1.4478538784	 0.116208
H	-0.5484580661	-1.9238247183	 2.834154393	 0.114291
H	-1.3752042703	-4.2552693621	 2.3262482024	 0.11789
H	-0.3647241833	-4.2685534364	 0.866506106	 0.119234
H	 1.7140843099	-4.0468926063	 2.3196513465	 0.067686
50.3498	56.5874	78.0833	112.4477	125.0198	195.6145	205.0679	288.2563	300.6329	403.2555	474.7406	501.954	606.5031	755.0968	780.7063	823.5609	856.2628	882.7837	959.0646	1000.4615	1021.6137	1033.2032	1054.1206	1090.952	1111.8407	1136.7529	1162.7981	1172.1734	1183.4853	1216.1597	1234.6894	1259.7556	1265.1474	1312.0593	1352.6915	1389.2479	1417.3387	1430.643	1463.4805	1472.8205	1485.5046	1491.3239	1497.469	1508.3714	1836.1344	2844.4004	2984.0979	3012.0324	3035.0511	3035.475	3077.7996	3081.9754	3099.3565	3119.8618	3126.5642	3137.4902	3215.5068
COC1CC1CCC=O	CO[C@H]1C[C@H]1CCC=O	
InChI=1S/C7H12O2/c1-9-7-5-6(7)3-2-4-8/h4,6-7H,2-3,5H2,1H3	InChI=1S/C7H12O2/c1-9-7-5-6(7)3-2-4-8/h4,6-7H,2-3,5H2,1H3/t6-,7+/m1/s1
