17
gdb 52748	2.92244	0.81928	0.66129	3.0574	85.48	-0.2444	-0.0293	0.2151	1670.4647	0.131073	-384.63988	-384.629106	-384.628161	-384.678547	36.007	
C	-0.0023812933	 1.4571014381	-0.0571119161	-0.499188
C	-0.0018770617	 0.0027433983	-0.0011674466	 0.10155
C	 0.0070397872	-1.2001421737	 0.0661987981	 0.031568
C	 0.0183566056	-2.6587677412	 0.0813526941	-0.247885
C	-1.4300458294	-3.2290519475	 0.0045019647	-0.366572
C	-1.4655510937	-4.683827665	 0.0641736189	 0.28931
C	-1.4619376682	-5.884383592	 0.112551651	-0.425247
C	 0.8402309569	-3.1415311903	-1.1215145078	 0.181399
O	 1.8735234489	-3.7442723182	-1.0400837421	-0.237217
H	 0.8536522143	 1.8305313866	-0.6294595395	 0.155768
H	-0.9128606936	 1.8369035981	-0.5330181655	 0.15199
H	 0.0547683998	 1.8908264559	 0.9470854007	 0.154751
H	 0.5118142438	-3.0400547716	 0.9810204001	 0.13164
H	-2.0111530818	-2.7964904914	 0.8258015442	 0.149278
H	-1.8984504166	-2.875015018	-0.922179498	 0.142573
H	-1.4663650455	-6.9455357971	 0.153244128	 0.202303
H	 0.3932362371	-2.8622325011	-2.1025307942	 0.08398
13.0172	55.2252	63.313	78.3464	128.9012	169.4439	281.2763	286.0157	315.2556	343.3468	427.4641	463.1901	494.6443	553.4261	632.6461	653.9954	788.3933	846.6488	969.5129	981.3906	1049.2026	1049.8966	1056.7055	1065.3439	1171.4692	1197.6549	1273.5606	1300.4364	1345.2784	1414.0843	1416.6086	1471.3678	1476.5054	1476.8817	1845.0065	2241.4376	2364.7104	2877.4499	3029.8914	3033.6429	3063.5718	3076.5699	3092.5332	3092.7806	3506.2174
CC#CC(CC#C)C=O	CC#C[C@@H](CC#C)C=O	
InChI=1S/C8H8O/c1-3-5-8(7-9)6-4-2/h1,7-8H,5H2,2H3	InChI=1S/C8H8O/c1-3-5-8(7-9)6-4-2/h1,7-8H,5H2,2H3/t8-/m1/s1
