18
gdb 11612	5.40499	0.82046	0.76776	1.9504	79.02	-0.2456	0.0279	0.2735	1522.5817	0.151655	-347.757983	-347.748734	-347.747789	-347.79446	32.187	
C	 0.0041852809	 1.6320262904	 0.2841607693	-0.374589
C	-0.0382225416	 0.1243691655	-0.0352635097	-0.130172
C	 0.7371746264	-0.6955473535	 1.0158153222	-0.373543
C	-1.4167930726	-0.3507119877	-0.1517503219	 0.148116
C	-2.5525902115	-0.7475642343	-0.2269452379	 0.030564
C	-3.9182572434	-1.186644307	-0.3190816828	-0.113122
C	-4.2821260815	-2.4957756435	-0.8972844648	-0.160511
O	-4.3234945969	-2.2924311633	 0.5085267956	-0.216496
H	 1.0411167787	 1.9803638313	 0.3243824766	 0.113517
H	-0.5259035633	 2.2114920099	-0.4762288053	 0.123503
H	-0.4642029722	 1.8334776322	 1.2523753674	 0.126536
H	 0.4527274304	-0.027079472	-1.0070462	 0.10596
H	 1.7779630495	-0.3597913299	 1.0622708951	 0.113075
H	 0.2902993828	-0.5713577383	 2.0067887537	 0.12837
H	 0.7267229275	-1.7606606258	 0.7709293974	 0.126051
H	-4.662494607	-0.3924677819	-0.3741938707	 0.114069
H	-5.2477814402	-2.6096299732	-1.3889677679	 0.116862
H	-3.4891772559	-3.149745889	-1.2551961162	 0.121809
6.36	81.3109	103.9484	190.635	221.5033	227.1014	272.2174	336.7725	451.7998	490.5935	535.9482	571.1587	687.4887	824.6137	846.5229	911.2992	931.9334	965.202	985.8379	1072.0569	1098.2807	1119.116	1147.4052	1158.5055	1168.9791	1210.8682	1283.3289	1323.7423	1349.3312	1395.7528	1407.693	1417.952	1485.419	1488.9396	1498.2615	1510.1268	1519.2789	2360.0323	3002.4864	3036.9622	3040.3682	3082.3957	3108.8878	3109.9498	3113.7667	3119.0931	3122.0278	3175.6502
CC(C)C#CC1CO1	CC(C)C#C[C@H]1CO1	
InChI=1S/C7H10O/c1-6(2)3-4-7-5-8-7/h6-7H,5H2,1-2H3	InChI=1S/C7H10O/c1-6(2)3-4-7-5-8-7/h6-7H,5H2,1-2H3/t7-/m0/s1
