16
gdb 17231	4.86458	1.77408	1.55182	2.9806	69.82	-0.2437	-0.0222	0.2215	834.3482	0.131256	-346.565048	-346.558539	-346.557595	-346.595711	25.251	
O	-0.23077383	 0.4213985122	-0.7619969834	-0.276573
C	 0.1537024004	 1.0815155777	 0.1782727337	 0.032062
C	 1.3857157079	 1.8766308306	 0.1901961069	 0.252313
C	 1.9343367548	 2.8177374705	 1.2618643882	-0.304157
C	 2.8279314239	 3.4100576682	 0.1394635768	-0.070701
C	 3.7840588276	 2.2370667436	-0.2332785123	-0.235078
C	 2.5437923866	 1.5444751133	-0.7914559003	-0.085598
C	 1.8171986043	 2.8365453088	-0.9326116865	-0.088525
H	-0.4396242642	 1.1346741336	 1.1202817862	 0.066704
H	 1.1704665834	 3.5278984181	 1.5913695947	 0.105393
H	 2.44299638	 2.3920074889	 2.1343746815	 0.096175
H	 3.1910878775	 4.4334683951	 0.195150414	 0.079426
H	 4.4701037555	 2.5148752248	-1.0376093508	 0.10906
H	 4.339222525	 1.7608636527	 0.5822115404	 0.095816
H	 2.4548493269	 0.6620854516	-1.4103676864	 0.113644
H	 1.2100861204	 3.2585806104	-1.7199475428	 0.110039
110.5194	187.5139	208.3242	407.6121	426.662	492.7823	675.2599	703.9899	750.961	804.7478	843.0431	889.8008	913.0877	929.6163	951.1761	984.6787	1001.1505	1019.4805	1045.0957	1080.8119	1107.4944	1145.4629	1147.375	1178.1006	1205.4781	1220.6066	1263.074	1283.9906	1300.6575	1378.801	1434.6707	1492.6335	1508.9357	1790.8215	2862.4825	3032.7809	3042.6237	3094.6996	3104.8017	3144.595	3215.7556	3232.494
O=CC12CC3CC1C23	O=C[C@@]12C[C@H]3C[C@@H]1[C@@H]23	
InChI=1S/C7H8O/c8-3-7-2-4-1-5(7)6(4)7/h3-6H,1-2H2	InChI=1S/C7H8O/c8-3-7-2-4-1-5(7)6(4)7/h3-6H,1-2H2/t4-,5-,6+,7+/m1/s1
