21
gdb 38206	3.12607	1.63181	1.32384	0.3663	88.66	-0.2341	0.0198	0.2539	1038.3014	0.186392	-349.914346	-349.907477	-349.906533	-349.94518	29.665	
C	-0.0285874802	 1.624669145	 0.208176782	-0.259744
C	 1.4649315798	 1.2445489565	 0.0468101395	-0.095222
C	 1.1683737691	 0.0416695392	 1.0096060685	-0.287328
C	-0.0090557939	 0.0667978406	-0.0148450195	 0.362454
C	-1.1538593493	-0.8034941231	-0.353942437	-0.235943
C	-1.3777154594	-1.0725427665	-1.6459185554	-0.041553
C	-0.5277053421	-0.5788587798	-2.8039243069	-0.258447
C	 0.4386376083	 0.5893805424	-2.4672160484	-0.283276
C	 1.0616783045	 0.2777842356	-1.1147013452	 0.046232
H	-0.3376653074	 1.9657562465	 1.2002270036	 0.085877
H	-0.4905360812	 2.2331516566	-0.570254929	 0.091576
H	 2.3236895505	 1.9159620077	 0.0963319042	 0.066063
H	 1.8460642518	-0.8150087311	 0.9512725975	 0.089439
H	 0.9335457454	 0.2993879277	 2.0462890786	 0.085987
H	-1.8191369049	-1.1807071383	 0.4187813712	 0.082585
H	-2.2220745582	-1.701370709	-1.9216164056	 0.086519
H	 0.0488359967	-1.4318709153	-3.1929006611	 0.111216
H	-1.1879831352	-0.2845500966	-3.6292350509	 0.103554
H	 1.1895122101	 0.6886030509	-3.2586533592	 0.09036
H	-0.1242195364	 1.5272566031	-2.449175331	 0.102628
H	 1.742684902	-0.5775296321	-1.2133610659	 0.057023
147.388	223.4601	346.1762	381.9409	425.0514	471.2175	550.9873	574.3679	604.6374	698.323	753.083	784.2243	819.1219	840.2852	857.8121	891.5542	929.9438	962.4712	970.9609	993.4063	999.9912	1010.2177	1052.2522	1061.6115	1091.9641	1125.9794	1137.7179	1144.7535	1160.2153	1189.7044	1196.0196	1218.573	1225.0953	1246.4119	1253.7271	1306.9291	1330.4446	1365.3325	1422.6909	1431.9656	1471.2222	1488.4274	1507.1718	1544.1517	1686.3923	2996.1012	3014.4706	3037.2562	3044.1331	3046.6171	3059.5977	3086.6818	3098.3467	3110.5718	3126.99	3138.0371	3162.4341
C1C2CC11C=CCCC21	C1[C@H]2C[C@]31C=CCC[C@@H]23	
InChI=1S/C9H12/c1-2-4-9-5-7(6-9)8(9)3-1/h2,4,7-8H,1,3,5-6H2	InChI=1S/C9H12/c1-2-4-9-5-7(6-9)8(9)3-1/h2,4,7-8H,1,3,5-6H2/t7-,8-,9+/m0/s1
