21
gdb 119463	4.89367	0.78836	0.76228	2.2257	79.04	-0.2463	0.0799	0.3262	1584.1738	0.18109	-424.196657	-424.18723	-424.186286	-424.231414	35.223	
C	 0.0082189992	 1.5409250994	 0.2718453282	-0.383049
C	-0.0179098652	 0.0202461831	 0.1036912827	-0.162963
C	-1.4293485023	-0.5222373144	-0.1718416014	-0.311976
C	-1.4598782516	-2.0092871399	-0.3345162679	 0.443404
C	-0.9060026305	-2.8744939883	-1.4773663701	-0.344169
C	-1.9867372209	-3.9651031227	-1.1046650009	 0.144663
O	-1.5455826516	-5.2245043528	-0.6837737181	-0.435096
C	-2.4842734659	-3.0161150841	-0.0004837895	-0.103764
O	-1.343178752	-2.8227448369	 0.8565950885	-0.309855
H	 1.0219585537	 1.9013736396	 0.4710159954	 0.114734
H	-0.3541077488	 2.0469242153	-0.6301944514	 0.11365
H	-0.6278795794	 1.8577945146	 1.1057774979	 0.116822
H	 0.6492161813	-0.2720268372	-0.7171228174	 0.100888
H	 0.3738882834	-0.4631750094	 1.0062153797	 0.115166
H	-2.0997607569	-0.2456422213	 0.6505561444	 0.1084
H	-1.8317556182	-0.0592853168	-1.082884259	 0.101001
H	-1.0657801858	-2.4473663242	-2.4709701751	 0.106111
H	 0.135814338	-3.1868830193	-1.3723636349	 0.106016
H	-2.7110307511	-4.1237679036	-1.9070205552	 0.092767
H	-1.0224176057	-5.0653546493	 0.1128648756	 0.287679
H	-3.4637883197	-2.9233733819	 0.4568122385	 0.099571
65.1409	86.4157	89.8727	167.3037	241.2628	272.4897	311.5711	354.6528	414.485	442.7316	497.2531	635.6333	705.1802	709.3728	747.5527	816.2045	861.2168	877.489	898.324	938.2068	945.2635	986.8448	1025.1449	1045.8749	1074.8564	1098.23	1126.118	1151.4602	1192.0168	1199.9315	1246.092	1256.3568	1285.0502	1308.8246	1315.6489	1340.1303	1386.4813	1413.1139	1433.4963	1447.3034	1469.6112	1485.1085	1493.0258	1498.8166	1509.4335	3017.4526	3027.5425	3030.7093	3054.3488	3061.2678	3073.1822	3090.6091	3098.0543	3104.6415	3121.7656	3175.0753	3768.1091
CCCC12CC(O)C1O2	CCC[C@]12C[C@@H](O)[C@H]1O2	
InChI=1S/C7H12O2/c1-2-3-7-4-5(8)6(7)9-7/h5-6,8H,2-4H2,1H3	InChI=1S/C7H12O2/c1-2-3-7-4-5(8)6(7)9-7/h5-6,8H,2-4H2,1H3/t5-,6-,7+/m1/s1
