17
gdb 71422	4.9276	1.15395	1.07007	1.5326	78.42	-0.2291	0.0492	0.2783	1145.8577	0.134332	-384.590931	-384.583055	-384.582111	-384.623021	30.983	
C	-0.1117846193	 1.4295116111	-0.0489436172	-0.506535
C	 0.01524258	-0.0534245774	 0.0110982312	 0.448393
O	-1.1288097828	-0.8663141491	-0.2927831935	-0.317486
C	-0.3868069143	-1.9800582961	 0.2579575751	 0.066273
C	 0.5923028608	-1.0066778204	 1.0039807777	-0.192625
C	 1.2646577031	-0.8779381205	-0.362106958	-0.145683
C	 0.7178929214	-2.238821348	-0.8264920442	-0.21774
C	 1.5866327472	-3.3594241233	-0.524975641	 0.324048
C	 2.2926105957	-4.2982256698	-0.2667353311	-0.45564
H	 0.8258364547	 1.9022180928	 0.2579380707	 0.129167
H	-0.3418127654	 1.7573325409	-1.0681544817	 0.136077
H	-0.9092927918	 1.7787387016	 0.6139986009	 0.134915
H	-1.0026657289	-2.7808913406	 0.6595244402	 0.098537
H	 0.9550426936	-0.9191833751	 2.0181087427	 0.103018
H	 2.2213339786	-0.4318121775	-0.6014769876	 0.099528
H	 0.3296541264	-2.2988274856	-1.8494221954	 0.102096
H	 2.918932771	-5.126894493	-0.047075129	 0.193658
119.2324	133.9278	199.8317	244.3508	298.5967	388.9687	470.6358	503.0083	560.2023	614.9603	644.969	645.9416	779.3479	801.6508	804.8787	852.0987	884.0205	910.5757	926.6254	947.6665	976.5326	1019.7181	1056.9949	1080.0991	1103.0069	1130.9957	1144.9436	1182.2302	1228.4708	1240.7226	1278.4877	1336.2833	1401.0371	1457.3571	1474.3228	1500.9621	2234.4155	3037.5391	3046.863	3104.6907	3116.6939	3156.6281	3201.1986	3218.1715	3504.8685
CC12OC3C1C2C3C#C	C[C@]12O[C@@H]3[C@H]1[C@H]2[C@H]3C#C	
InChI=1S/C8H8O/c1-3-4-5-6-7(4)9-8(5,6)2/h1,4-7H,2H3	InChI=1S/C8H8O/c1-3-4-5-6-7(4)9-8(5,6)2/h1,4-7H,2H3/t4-,5-,6-,7+,8-/m1/s1
