18
gdb 69424	4.51926	0.89153	0.81571	4.1044	76.23	-0.2646	0.0373	0.302	1381.9998	0.1473	-401.930863	-401.922264	-401.92132	-401.964407	32.439	
O	-0.0980194946	 1.4338379734	 0.0666007962	-0.461115
C	 0.0039941087	 0.0563553248	 0.057317736	 0.414262
C	-0.1730619693	-0.7670992432	-1.1830280037	-0.346469
C	-1.1427270539	-0.9414743755	-0.0279516729	-0.141642
C	-0.5189091876	-1.7716708653	 1.1011843039	 0.024798
C	-0.2291158194	-3.2541247308	 0.8165654983	-0.358291
C	 0.5018061028	-3.8968489133	 1.907090045	 0.260226
N	 1.0811011807	-4.3835928834	 2.7807802903	-0.309072
C	 0.6813118315	-0.7644769033	 1.164907623	-0.320754
H	 0.6561271998	 1.7994380026	-0.4090272372	 0.288303
H	-0.5948901358	-0.2215863871	-2.0211216564	 0.120445
H	 0.5376047874	-1.5419468377	-1.4631760211	 0.104046
H	-2.2025474012	-0.7606741978	-0.1588645192	 0.099054
H	-1.1175627703	-1.700366006	 2.0123683299	 0.10197
H	-1.1690345974	-3.7962818833	 0.6591176024	 0.151868
H	 0.3552830555	-3.3653090438	-0.1034640257	 0.147767
H	 1.6762413548	-1.1630948868	 0.9394462704	 0.101611
H	 0.7190386382	-0.2316543137	 2.1163379707	 0.122992
63.5805	108.0519	156.6929	241.8054	260.0626	354.7063	393.6182	403.3718	407.614	503.2092	516.9225	624.8007	703.9874	827.0702	839.7976	886.0102	908.9061	945.717	964.9955	972.7689	1007.6418	1047.2614	1064.9835	1085.8206	1093.9311	1133.1721	1220.2168	1231.289	1239.9018	1256.2975	1283.6632	1317.2803	1330.1513	1374.8427	1413.654	1463.3048	1479.2394	1508.7121	2360.0068	3040.8762	3048.5399	3070.5035	3086.6143	3105.1425	3124.8162	3188.5225	3202.7364	3794.4719
OC12CC1C(CC#N)C2	O[C@]12C[C@H]1[C@@H](CC#N)C2	
InChI=1S/C7H9NO/c8-2-1-5-3-7(9)4-6(5)7/h5-6,9H,1,3-4H2	InChI=1S/C7H9NO/c8-2-1-5-3-7(9)4-6(5)7/h5-6,9H,1,3-4H2/t5-,6-,7+/m0/s1
