17
gdb 81311	2.3743	1.7279	1.63313	2.9168	69.02	-0.2448	0.0131	0.2578	933.5896	0.138833	-455.123069	-455.115766	-455.114822	-455.154706	28.932	
O	 0.0863399209	 1.4339103815	 0.1956874893	-0.433395
C	-0.0079758006	 0.0556129876	-0.0029669953	 0.154189
C	-1.3749962574	-0.6746794706	-0.1274000291	-0.089553
C	-2.3158950652	 0.1289499178	-1.0065357177	-0.072185
O	-1.6242250211	 0.6918583266	-2.146862065	-0.284607
C	-0.3735959125	 0.2200286183	-2.4597039767	 0.451446
N	 0.2205485598	 0.5323984551	-3.5289109638	-0.528426
C	 0.2611401213	-0.6183635233	-1.3848015136	-0.157354
N	-0.7335955177	-1.6945489802	-1.0243184425	-0.326595
H	-0.3565556272	 1.8842269795	-0.5333808551	 0.2982
H	 0.6073531227	-0.4166982518	 0.7671937614	 0.100261
H	-1.8881562146	-1.0495938589	 0.7614239136	 0.083555
H	-3.1227527284	-0.5088145528	-1.3812456436	 0.130513
H	-2.7477121603	 0.9727830006	-0.4590889293	 0.120925
H	-0.3794559704	 1.1211310983	-4.1116476281	 0.222231
H	 1.2597001912	-0.9331845354	-1.6814668968	 0.101473
H	-0.2501776506	-2.3780745922	-0.4440855779	 0.229323
111.5672	167.4126	226.4522	334.5061	394.1584	418.5934	439.2088	527.6496	559.0129	629.0872	733.3146	757.9739	831.1372	860.1334	875.0331	897.9348	931.5421	961.7393	999.027	1012.4063	1066.7695	1094.6604	1110.9933	1145.8587	1158.3294	1204.5615	1241.5647	1248.6463	1288.5216	1296.1312	1309.7654	1371.7497	1406.6401	1424.042	1441.0671	1502.4497	1769.7531	3046.7742	3082.3324	3092.1958	3096.096	3144.63	3457.9579	3477.2811	3794.027
OC1C2COC(=N)C1N2	O[C@H]1[C@H]2CO[C]([NH])[C@@H]1N2	
InChI=1S/C5H8N2O2/c6-5-3-4(8)2(7-3)1-9-5/h2-4,6-8H,1H2	InChI=1S/C5H8N2O2/c6-5-3-4(8)2(7-3)1-9-5/h2-4,6-8H,1H2/t2-,3-,4+/m1/s1
