17
gdb 60792	2.78793	1.18409	1.03794	2.5128	71.08	-0.2665	-0.0413	0.2253	1189.4023	0.130615	-458.929484	-458.919251	-458.918307	-458.964376	37.115	
C	-0.0823840403	 1.5398505934	 0.1138418184	-0.420985
C	-0.0361300789	 0.0107812385	-0.0235403154	 0.123968
O	 0.7935392266	-0.5772408782	 0.9853404771	-0.462837
C	-1.3902989585	-0.5489804864	 0.0406235377	 0.322354
C	-2.4957818593	-1.0088695347	 0.1446339477	-0.458438
C	 0.642141939	-0.415234898	-1.3650704517	 0.046315
O	-0.0271244131	 0.1196146974	-2.4657602847	-0.43246
C	 2.1072081646	-0.0058529926	-1.3885850873	 0.120992
O	 2.5398238117	 0.680235368	-2.2851884903	-0.268964
H	 0.9344613451	 1.9418406413	 0.1450147567	 0.127351
H	-0.6164263243	 1.9760236031	-0.7325230328	 0.149211
H	-0.5973303064	 1.8205425418	 1.0363973079	 0.120465
H	 0.2889320066	-0.6054377098	 1.8047580762	 0.290939
H	-3.4732482127	-1.4183827561	 0.218698286	 0.203965
H	 0.6223044173	-1.5175732133	-1.3806454452	 0.111091
H	 0.6465942692	 0.6169485019	-2.9589020571	 0.296983
H	 2.7427316434	-0.3756612464	-0.5668101934	 0.130049
70.0913	100.0662	144.3697	179.7483	213.7882	233.3606	252.4532	279.9082	327.3182	382.5854	411.5057	441.7872	498.5527	551.6133	609.8483	637.4121	670.7006	707.1384	783.1891	857.7705	929.8662	955.4932	1009.5051	1100.6997	1137.4134	1168.4034	1192.0846	1284.3031	1325.6911	1350.9543	1386.6449	1399.518	1441.0822	1484.8685	1492.6574	1801.9592	2233.1723	2976.5883	3006.8186	3048.0374	3122.338	3143.9474	3499.3081	3667.0185	3821.729
CC(O)(C#C)C(O)C=O	C[C@@](O)(C#C)[C@@H](O)C=O	
InChI=1S/C6H8O3/c1-3-6(2,9)5(8)4-7/h1,4-5,8-9H,2H3	InChI=1S/C6H8O3/c1-3-6(2,9)5(8)4-7/h1,4-5,8-9H,2H3/t5-,6+/m0/s1
