13
gdb 25370	6.49838	0.90269	0.79259	4.4679	83.57	-0.2414	-0.0701	0.1712	1323.7205	0.089433	-415.626133	-415.618425	-415.617481	-415.65861	28.004	
O	-0.2049229561	 0.0269069944	-0.0009218081	-0.26531
C	-0.0459786957	 1.2274636008	 0.0089110316	 0.063288
C	 1.2502956571	 1.8837144143	 0.0000856065	 0.21023
C	 2.5455106971	 1.3855517867	-0.0191261378	-0.13689
N	 3.4570098057	 2.3872272116	-0.0204975757	-0.294041
C	 2.7460307674	 3.5164881851	-0.0022181732	 0.203293
N	 1.4088649944	 3.2543135252	 0.0106856757	-0.356154
C	 3.2565737019	 4.833121638	 0.0038565094	 0.258101
C	 3.6667522249	 5.9643113967	 0.0094009712	-0.380329
H	-0.9156673577	 1.9252764255	 0.0243116418	 0.061727
H	 2.8357515297	 0.3461930926	-0.0317989222	 0.146112
H	 0.675464148	 3.9453652883	 0.0252828151	 0.281586
H	 4.0435412634	 6.9576774309	 0.0140812458	 0.208389
95.1735	123.5584	202.0432	212.8635	254.3051	437.3365	453.2052	553.1263	572.171	602.0822	639.9732	652.2295	690.136	746.3555	771.114	905.0502	1001.4874	1022.4932	1046.4238	1183.0541	1207.9685	1306.9633	1370.9135	1398.639	1454.6826	1486.5235	1577.2001	1785.5767	2239.3243	2853.6663	3262.4845	3498.4975	3649.995
O=CC1=CN=C(N1)C#C	O=Cc1cnc([nH]1)C#C	
InChI=1S/C6H4N2O/c1-2-6-7-3-5(4-9)8-6/h1,3-4H,(H,7,8)	InChI=1S/C6H4N2O/c1-2-6-7-3-5(4-9)8-6/h1,3-4H,(H,7,8)
