17
gdb 17472	4.1982	1.96399	1.6665	0.8945	66.79	-0.2329	0.074	0.3069	808.473	0.143968	-363.82497	-363.818381	-363.817437	-363.855159	27.276	
O	-0.0645315158	 1.3787481112	-0.0766119254	-0.466354
C	-0.0360154855	-0.016896728	 0.0139091927	 0.385881
C	-0.5064112456	-0.8272639024	-1.1621928569	-0.348122
C	-1.3373680538	-0.7799592755	 0.1099264427	-0.079004
C	-1.1376626204	-1.8944194983	 1.1119274352	-0.047514
N	-0.1192427005	-2.8966303152	 0.7229043186	-0.338062
C	 0.2463313455	-1.8115510723	 1.6562158046	-0.031454
C	 0.9616502831	-0.6296734035	 1.0126010774	-0.295053
H	 0.5720176669	 1.6452901724	-0.7484131996	 0.281172
H	-0.8936052056	-0.2567704165	-2.0003349949	 0.102051
H	-0.0089756165	-1.7582216449	-1.4047820798	 0.136826
H	-2.2848043949	-0.2554724576	 0.095430417	 0.089738
H	-1.9779613386	-2.2143638915	 1.7180257088	 0.083106
H	-0.2705954206	-3.7541096535	 1.2481040717	 0.228443
H	 0.4793050424	-2.0719443399	 2.6839276751	 0.085458
H	 1.9105450374	-0.9215294854	 0.5496280317	 0.10317
H	 1.1742588224	 0.1294453007	 1.7724715112	 0.109717
194.6922	275.5331	279.4108	370.8787	404.0482	409.5638	533.7697	613.2808	678.0007	710.3084	800.1327	821.1551	866.6163	874.3703	904.2383	934.4766	948.9428	989.884	997.4365	1047.6294	1061.8236	1075.629	1082.0171	1131.6127	1166.5794	1185.3061	1219.6924	1256.3837	1268.6952	1306.3356	1336.6897	1371.7956	1394.9728	1415.5074	1465.4482	1481.492	3043.8931	3089.6908	3133.5547	3155.2446	3171.299	3193.114	3233.7349	3500.5249	3799.4248
OC12CC1C1NC1C2	O[C@]12C[C@H]1[C@H]1N[C@H]1C2	
InChI=1S/C6H9NO/c8-6-1-3(6)5-4(2-6)7-5/h3-5,7-8H,1-2H2	InChI=1S/C6H9NO/c8-6-1-3(6)5-4(2-6)7-5/h3-5,7-8H,1-2H2/t3-,4-,5+,6-/m0/s1
