16
gdb 69182	2.18123	1.91382	1.2713	3.5076	70.52	-0.2366	-0.0193	0.2172	999.6013	0.12367	-437.832384	-437.824496	-437.823552	-437.864611	30.378	
O	-0.0306337528	 1.3991173992	 0.0099804565	-0.444398
C	 0.042290746	 0.027003611	 0.0041229845	 0.345108
C	-0.8613390593	-0.8047181165	 0.8208374856	-0.31681
C	 0.6517232412	-0.9627104821	 1.0505239381	-0.303028
C	 1.2694351693	-1.7314216832	-0.0879362225	 0.40529
O	 2.0591200687	-2.6289217103	-0.157706614	-0.314181
C	 0.6361776043	-0.8019650922	-1.1321601584	 0.130438
C	 0.1529925616	-1.0121275999	-2.5127871811	-0.307898
N	 1.3931045031	-0.2506779983	-2.2568258829	-0.367466
H	 0.8628310259	 1.7564693278	-0.0590522013	 0.297376
H	-1.3529512938	-0.2822151438	 1.6359510179	 0.135641
H	-1.4435656821	-1.6081018785	 0.3788267266	 0.129778
H	 1.0797515687	-0.7940620526	 2.0304722638	 0.118499
H	 0.3079346378	-1.9745623968	-2.9919829345	 0.138412
H	-0.7378236067	-0.4726696396	-2.8247779472	 0.123413
H	 1.189272598	 0.7467458459	-2.3265863409	 0.229826
105.5565	189.7101	197.3751	218.3179	300.0701	345.4806	401.6478	484.7032	508.8848	601.8269	633.6315	722.4292	733.2046	784.0466	848.0644	914.5205	926.829	945.6936	976.6224	987.216	1024.2862	1041.4064	1084.1673	1112.5213	1125.2665	1197.8439	1225.5352	1242.3219	1272.9396	1322.2017	1417.3466	1424.5391	1500.3837	1503.1764	1886.8617	3107.8174	3117.8909	3198.9788	3202.004	3209.5407	3455.9918	3786.0629
OC12CC1C(=O)C21CN1	O[C@]12C[C@H]1C(=O)[C@]12CN1	
InChI=1S/C6H7NO2/c8-4-3-1-6(3,9)5(4)2-7-5/h3,7,9H,1-2H2	InChI=1S/C6H7NO2/c8-4-3-1-6(3,9)5(4)2-7-5/h3,7,9H,1-2H2/t3-,5-,6+/m0/s1
