18
gdb 108683	1.7902	1.62188	0.90594	3.5617	82.01	-0.2504	-0.0437	0.2066	1283.8409	0.147548	-401.977562	-401.968375	-401.967431	-402.012689	32.075	
C	 0.0181646723	 1.5629109763	 0.286771373	-0.381108
C	-0.02882014	 0.0716543211	-0.0982697749	-0.31511
C	-1.409328034	-0.5018838904	-0.0803040992	 0.199616
C	-2.12376594	-0.9923270689	-1.1042087948	 0.077999
C	-3.4706961806	-1.4828114059	-0.6206681418	-0.161922
O	-3.478064571	-1.1973043658	 0.7717396458	-0.262593
C	-2.2373466041	-0.6332565952	 1.1714548943	-0.143317
C	-1.7114855061	-1.0735691414	-2.4575942708	 0.202649
N	-1.3934284371	-1.1483870135	-3.5696493172	-0.344387
H	 1.0471002772	 1.9301747804	 0.2444555122	 0.128713
H	-0.5853564265	 2.1630243851	-0.4003462757	 0.133971
H	-0.3551937786	 1.7315896922	 1.3012460251	 0.125293
H	 0.4058948177	-0.066595618	-1.0928346892	 0.13577
H	 0.5970452945	-0.4965395183	 0.6033822602	 0.120551
H	-4.305264254	-0.9656726469	-1.1151219235	 0.1248
H	-3.6001866779	-2.5617290277	-0.7931297812	 0.122812
H	-1.738840563	-1.281604629	 1.9113820068	 0.115644
H	-2.4109919087	 0.3372940661	 1.6601644208	 0.120621
46.0489	75.1919	131.1151	140.9149	170.6029	224.4229	296.5236	347.9777	473.5625	516.2654	578.3402	613.2468	647.7215	788.7624	819.6609	948.874	957.1158	988.6361	999.3871	1058.8339	1076.6089	1103.8581	1127.7401	1175.1127	1197.1158	1227.0337	1263.2552	1309.284	1353.1362	1377.1396	1393.5357	1411.4542	1481.0818	1499.9322	1504.7312	1512.8575	1529.5706	1703.7533	2335.0211	2967.1719	2991.2751	2998.7689	3017.9479	3019.6354	3044.5413	3082.335	3118.0534	3121.0816
CCC1=C(COC1)C#N	CCC1=C(COC1)C#N	
InChI=1S/C7H9NO/c1-2-6-4-9-5-7(6)3-8/h2,4-5H2,1H3	InChI=1S/C7H9NO/c1-2-6-4-9-5-7(6)3-8/h2,4-5H2,1H3
