19
gdb 100602	2.89585	0.87382	0.71702	4.6687	73.55	-0.246	-0.0313	0.2147	1582.1329	0.153955	-460.176626	-460.165773	-460.164829	-460.21487	36.436	
C	-0.8266882841	 1.4268558666	 0.3702381258	-0.239567
O	-0.8136772854	 0.0461619961	 0.6638291337	-0.246309
C	-1.2551099296	-0.7889474053	-0.3876589335	 0.040154
C	-0.2494254027	-0.9231070627	-1.5350420692	-0.403311
C	-1.5941908948	-2.1677487991	 0.2014701534	 0.345654
O	-1.8432477594	-3.0987208697	-0.5293275919	-0.306315
C	-1.6202068604	-2.3005926388	 1.7160465055	-0.381844
C	-2.1017139991	-3.6644346779	 2.1684584092	 0.168809
O	-1.5420699464	-4.3280357256	 3.0015533186	-0.240532
H	-0.5756214073	 1.9518936489	 1.2946374625	 0.13525
H	-0.0904617101	 1.6983414417	-0.3981790497	 0.117868
H	-1.8210738399	 1.7564985144	 0.0315542371	 0.109312
H	-2.2096397782	-0.4020910611	-0.7907431912	 0.097379
H	 0.7270745681	-1.2261641418	-1.1455454585	 0.130256
H	-0.60161723	-1.684710451	-2.2333584703	 0.150755
H	-0.132922073	 0.0200868209	-2.0742601024	 0.119608
H	-0.6291411906	-2.0899441757	 2.1295611936	 0.16064
H	-2.2818538231	-1.5232866856	 2.1231747227	 0.149153
H	-3.0384220041	-4.0104978244	 1.6841076748	 0.093039
23.6198	50.9872	63.0552	83.4384	150.5238	198.8451	216.8206	250.066	291.7441	338.1934	402.3091	446.1638	478.9379	549.2169	640.0224	769.5964	815.9991	880.3766	977.0725	999.7114	1066.837	1082.5008	1100.1342	1130.454	1172.3068	1184.1979	1191.1407	1226.03	1305.7174	1335.1455	1361.0298	1392.6795	1408.3052	1430.3717	1478.3222	1485.0663	1493.424	1500.9278	1512.4224	1802.2722	1838.6081	2918.4919	2936.6803	2984.9039	3034.6621	3041.4983	3051.5159	3098.0851	3119.7624	3123.6817	3144.5002
COC(C)C(=O)CC=O	CO[C@@H](C)C(=O)CC=O	
InChI=1S/C6H10O3/c1-5(9-2)6(8)3-4-7/h4-5H,3H2,1-2H3	InChI=1S/C6H10O3/c1-5(9-2)6(8)3-4-7/h4-5H,3H2,1-2H3/t5-/m0/s1
