17
gdb 58138	1.71263	1.60952	1.32056	2.7762	71.02	-0.2523	-0.0525	0.1998	1103.6927	0.13057	-458.927788	-458.917389	-458.916445	-458.962878	37.276	
C	 0.1039310785	 1.6382750307	-0.1070747838	-0.412889
C	 0.0877613938	 0.1201342217	-0.0094859541	 0.11161
O	 0.7813063772	-0.251340957	 1.1591529298	-0.435906
C	-1.3633464138	-0.4563921017	 0.0024916507	 0.080128
O	-2.0479767072	-0.1371623112	-1.2081289342	-0.461385
C	-1.3345377445	-2.0015770212	 0.0213679848	 0.156098
O	-0.4173360304	-2.6696519139	 0.4228310974	-0.258868
C	-2.1255435967	-0.0399143644	 1.1785134717	 0.319535
C	-2.8033186645	 0.2949187521	 2.1138498777	-0.482925
H	 1.1395173967	 1.9862532944	-0.1261361819	 0.131818
H	-0.3929340006	 1.9749786703	-1.0203595247	 0.11449
H	-0.3908273947	 2.0830058415	 0.7612239843	 0.131536
H	 0.5596204517	-0.3049006296	-0.9098875529	 0.079704
H	 0.7986460207	-1.2181535833	 1.1742783286	 0.296978
H	-2.5790217369	 0.6504747204	-1.0535403175	 0.297727
H	-2.2589756991	-2.4481078178	-0.3963075396	 0.118112
H	-3.3819328302	 0.5984139691	 2.9519716936	 0.214237
79.2871	101.7164	129.372	167.8407	174.7794	215.1351	228.6	285.5153	315.0549	375.5904	399.913	467.4597	482.9939	575.447	617.7229	643.344	651.5922	674.406	717.0364	914.3661	941.2028	995.3397	1043.1431	1087.8102	1120.1572	1159.6534	1162.4458	1314.4953	1326.0771	1372.5767	1390.7886	1395.1357	1450.4098	1490.3218	1496.6291	1823.2987	2223.9391	2944.2499	2977.3608	3050.0185	3126.8293	3131.3477	3496.7341	3746.8162	3829.5787
CC(O)C(O)(C=O)C#C	C[C@@H](O)[C@@](O)(C=O)C#C	
InChI=1S/C6H8O3/c1-3-6(9,4-7)5(2)8/h1,4-5,8-9H,2H3	InChI=1S/C6H8O3/c1-3-6(9,4-7)5(2)8/h1,4-5,8-9H,2H3/t5-,6+/m1/s1
