16
gdb 110198	2.39651	1.29377	0.98076	2.1008	67.63	-0.2662	-0.0465	0.2197	1193.7816	0.122485	-475.035114	-475.02625	-475.025306	-475.069422	31.209	
O	 0.3046043775	 1.2238174177	-0.0080567044	-0.412676
C	 0.0456307819	-0.1540705539	-0.1673276085	-0.084704
C	-1.4344244401	-0.4764097828	 0.0321532595	-0.136461
N	-2.0375682683	 0.1307484163	 1.2459537279	-0.08281
C	-3.0079921819	 0.9806516124	 0.5290975515	-0.293435
C	-2.4226979715	 0.4083970889	-0.7747314028	 0.409267
O	-2.6307220778	 0.5642291038	-1.9356554282	-0.271599
C	-2.2456263454	-0.4326695369	 2.4705311994	 0.129579
O	-3.0800388255	-0.0540209287	 3.2610643685	-0.307703
H	 0.061919295	 1.4554455609	 0.8960191249	 0.291954
H	 0.3243944915	-0.4157828887	-1.1931581561	 0.139908
H	 0.6543759722	-0.7685402451	 0.5142297695	 0.104616
H	-1.6225858159	-1.5528359193	-0.0734502682	 0.118588
H	-4.0530209251	 0.7213124803	 0.7313566111	 0.159542
H	-2.8678406786	 2.0570036663	 0.6686999135	 0.154152
H	-1.5435998778	-1.2669077312	 2.6715306423	 0.081783
65.0698	103.5611	122.0707	172.6726	202.1617	248.8061	322.0498	400.366	441.4542	460.0621	562.5599	646.1053	709.775	766.0154	853.246	938.2684	991.2775	1017.2056	1037.8053	1054.2359	1090.1834	1125.8378	1152.2209	1184.447	1251.6318	1266.224	1296.3461	1370.7816	1391.503	1414.154	1427.6698	1469.3474	1492.2176	1798.2065	1935.0899	2933.2109	2985.2275	3034.3464	3048.5854	3087.5554	3099.2674	3795.7101
OCC1N(CC1=O)C=O	OC[C@H]1N(CC1=O)C=O	
InChI=1S/C5H7NO3/c7-2-4-5(9)1-6(4)3-8/h3-4,7H,1-2H2	InChI=1S/C5H7NO3/c7-2-4-5(9)1-6(4)3-8/h3-4,7H,1-2H2/t4-/m1/s1
