18
gdb 36632	5.92689	0.68145	0.64121	2.9201	79.95	-0.2417	0.0003	0.242	1683.3923	0.147826	-401.967498	-401.958556	-401.957612	-402.002674	31.227	
N	 0.0154534279	-1.1839182481	-0.0878271144	-0.300755
C	-0.0027156339	-0.0289428393	-0.1197783266	 0.259419
C	 0.001180484	 1.4312395141	-0.1530802391	-0.336403
C	 1.4079957967	 2.0206729259	 0.1305345985	-0.317687
C	 1.414388286	 3.5180202076	 0.1017405501	 0.307428
C	 1.6257261032	 4.3609515791	 1.1094274388	-0.212127
C	 1.5620915068	 5.7794531248	 0.6247724173	-0.101825
O	 1.2586238052	 5.6847492951	-0.7655918953	-0.26195
C	 1.1929481096	 4.3211574182	-1.1594317113	-0.151048
H	-0.362111892	 1.7571822098	-1.1335299583	 0.158122
H	-0.7136287811	 1.8035850209	 0.5886822742	 0.159682
H	 1.751231437	 1.6634445265	 1.1053574834	 0.131852
H	 2.1047620251	 1.6230708657	-0.6177756565	 0.131613
H	 1.8330473383	 4.0940833965	 2.138644696	 0.106085
H	 0.7836446025	 6.3685791337	 1.1341994281	 0.109698
H	 2.5154273919	 6.3133725974	 0.7683536304	 0.108983
H	 1.9624759822	 4.1031942401	-1.9194805529	 0.106015
H	 0.2165037506	 4.1223217922	-1.6302553123	 0.1029
57.8579	59.9685	90.4507	117.7157	189.9871	283.2087	330.4434	401.6583	467.3786	520.9551	675.2884	765.6147	778.8602	827.9863	906.2629	927.2478	950.1481	967.3213	1005.2051	1025.1667	1040.3873	1066.5603	1113.3061	1171.0247	1185.8682	1211.7284	1227.4627	1282.5392	1294.7378	1328.0801	1369.454	1374.6868	1398.1388	1469.0187	1488.4634	1516.5764	1528.7645	1729.2702	2362.9384	2957.9903	2972.9641	2975.7356	2991.5619	3033.9953	3052.064	3082.5071	3102.8851	3210.6852
N#CCCC1=CCOC1	N#CCCC1=CCOC1	
InChI=1S/C7H9NO/c8-4-1-2-7-3-5-9-6-7/h3H,1-2,5-6H2	InChI=1S/C7H9NO/c8-4-1-2-7-3-5-9-6-7/h3H,1-2,5-6H2
