13
gdb 130896	5.171	1.05498	0.87621	2.4966	72.56	-0.2582	-0.0948	0.1634	1201.7848	0.090566	-452.789357	-452.782205	-452.78126	-452.821373	26.202	
O	-0.1035305993	-0.0433174355	-0.0015175238	-0.244202
C	-0.0165780371	 1.1570762722	 0.0066851767	 0.113529
C	 1.2547737047	 1.9306824769	-0.001071646	 0.212807
N	 2.3802709207	 1.2524402345	-0.0192227579	-0.200243
N	 3.4955103599	 1.9568105524	-0.0258080711	-0.244898
C	 3.6674196384	 3.36302829	-0.0159848329	 0.430261
O	 4.7849900535	 3.8368203589	-0.0243459916	-0.370652
C	 2.3945126899	 4.06342243	 0.0040268443	-0.20804
C	 1.235361723	 3.3623626095	 0.0110237384	-0.126892
H	-0.9210440764	 1.8068763567	 0.0215490376	 0.078467
H	 4.3509088806	 1.4120604082	-0.0398730933	 0.287071
H	 2.4314510447	 5.1458836484	 0.0126676132	 0.14135
H	 0.2755581273	 3.8710889779	 0.0258746166	 0.131444
87.7588	152.6076	201.7224	303.0622	398.652	404.023	458.2989	518.8873	606.6637	632.3197	768.9229	787.9647	816.9452	847.6676	866.7724	1001.5188	1015.033	1033.7027	1137.3703	1207.8568	1228.7854	1321.2369	1411.2948	1439.6356	1455.4844	1556.3827	1635.6096	1802.846	1824.9038	2875.6738	3172.8926	3218.2627	3563.3352
O=CC1=NNC(=O)C=C1	O=Cc1n[nH]c(=O)cc1	
InChI=1S/C5H4N2O2/c8-3-4-1-2-5(9)7-6-4/h1-3H,(H,7,9)	InChI=1S/C5H4N2O2/c8-3-4-1-2-5(9)7-6-4/h1-3H,(H,7,9)
