14
gdb 31947	5.11214	0.93182	0.79271	2.0134	69.3	-0.2684	-0.0758	0.1926	1339.0306	0.100432	-473.85875	-473.850515	-473.849571	-473.892643	28.259	
O	 0.4170795988	 0.8785149554	-0.7301313828	-0.413683
C	-0.0243795651	 0.1114402458	 0.358216821	-0.146442
C	-1.4441339932	-0.3207003932	 0.1783202419	 0.378219
N	-2.1417539825	-0.1845834527	-0.9142001525	-0.325591
C	-3.3600818478	-0.7519571276	-0.6094448063	-0.14995
C	-3.3386075533	-1.2125874756	 0.6751496768	 0.223973
O	-2.090052382	-0.9297472407	 1.1827374916	-0.182236
C	-4.3308988101	-1.8826379064	 1.5000609191	 0.066617
O	-4.1641825562	-2.2375273304	 2.6436553446	-0.269364
H	-0.1967872895	 0.7228592897	-1.4599250818	 0.30496
H	 0.596128367	-0.7894792221	 0.5027839587	 0.129999
H	 0.0606445345	 0.6995824941	 1.2817925945	 0.141608
H	-4.1681710826	-0.792886216	-1.3235459641	 0.152489
H	-5.289701588	-2.0439735403	 0.9621972392	 0.089403
46.0146	127.2845	139.7934	179.5106	222.0473	254.8174	341.0056	450.8766	507.7852	647.8055	685.859	735.1852	785.2468	888.3928	983.8958	1011.1527	1018.48	1035.0023	1112.8194	1176.4217	1225.3822	1245.1427	1283.319	1316.9384	1369.7303	1418.8865	1471.7408	1501.4975	1567.8283	1610.6639	1792.6712	2903.7761	2966.3037	3034.3744	3263.0744	3763.7766
OCC1=NC=C(O1)C=O	OCc1ncc(o1)C=O	
InChI=1S/C5H5NO3/c7-2-4-1-6-5(3-8)9-4/h1-2,8H,3H2	InChI=1S/C5H5NO3/c7-2-4-1-6-5(3-8)9-4/h1-2,8H,3H2
