16
gdb 82267	3.30154	1.38012	1.07961	2.7789	79.94	-0.2295	-0.0318	0.1977	1094.2028	0.124689	-400.692669	-400.684879	-400.683935	-400.724848	30.572	
O	 0.0698139275	 1.384656475	 0.0965223141	-0.42303
C	 0.0576842179	-0.0239990545	 0.0307731733	 0.025532
C	-1.3599081426	-0.6027264975	-0.035861905	-0.082149
N	-2.1153288282	 0.0023590145	-1.1546460895	-0.348913
C	-1.4960385064	-1.3556769723	-1.3015777315	-0.076307
C	-0.169243641	-1.3018103128	-1.9770876361	-0.165168
C	 0.7020173582	-0.5699279983	-1.2617615983	 0.116688
C	 2.028516169	-0.2353930753	-1.6133124583	 0.253557
C	 3.1700620202	 0.0564847775	-1.8664121651	-0.420802
H	-0.5639303149	 1.6734932428	-0.5757571606	 0.29031
H	 0.6003082364	-0.3740025344	 0.9151048739	 0.096516
H	-1.8828699233	-0.8744092018	 0.873536739	 0.095993
H	-3.1118428752	-0.1052221615	-0.9726720536	 0.235338
H	-2.1521063613	-2.2116428988	-1.4105142682	 0.098438
H	 0.0376810116	-1.7593723171	-2.9363878969	 0.110482
H	 4.172147942	 0.3173039746	-2.101023237	 0.193513
100.1824	138.1854	194.0557	273.7169	364.9405	460.7541	480.2263	493.9957	530.2623	598.9081	630.7496	635.2963	672.2187	702.7329	799.4871	856.3725	871.3936	883.559	908.6342	963.5945	986.6374	1068.3697	1095.8892	1125.9219	1143.8611	1175.6845	1246.4701	1273.5647	1289.623	1319.5777	1357.9499	1404.0951	1444.0084	1658.194	2221.1084	3061.5067	3175.4496	3185.0942	3213.5328	3481.9021	3503.722	3740.4974
OC1C2NC2C=C1C#C	O[C@H]1[C@H]2N[C@H]2C=C1C#C	
InChI=1S/C7H7NO/c1-2-4-3-5-6(8-5)7(4)9/h1,3,5-9H	InChI=1S/C7H7NO/c1-2-4-3-5-6(8-5)7(4)9/h1,3,5-9H/t5-,6-,7+/m0/s1
