14
gdb 129623	3.12219	1.37275	1.02431	3.056	66.73	-0.2271	-0.0507	0.1764	1088.0259	0.099671	-469.997301	-469.989065	-469.988121	-470.030489	29.544	
N	-0.3396204909	 1.370300211	-0.128251004	-0.590273
C	-0.119927422	 0.0399113512	 0.0019483892	 0.400381
C	-1.0232973043	-1.0109354189	 0.0777966681	 0.161787
C	-2.5204077891	-0.9764042197	 0.0054294365	-0.390995
C	-2.916991688	-0.3940299756	-1.3415937643	 0.143537
O	-2.865339232	 0.790183792	-1.5863721155	-0.251827
N	-0.2747940926	-2.1365745356	 0.2464036572	-0.14555
N	 0.9507795409	-1.9135784459	 0.2944821238	-0.047954
O	 1.1055708374	-0.4202813067	 0.1281555292	-0.230959
H	 0.4529452722	 1.9373050992	-0.3850157978	 0.273985
H	-1.2279047991	 1.6216690471	-0.5473105196	 0.288216
H	-2.9059825273	-1.9915520244	 0.1222255283	 0.142097
H	-2.9446283547	-0.3412454732	 0.7932976322	 0.138836
H	-3.2103149305	-1.1194795905	-2.1281920534	 0.108718
91.2024	97.0499	149.624	224.0279	269.0644	338.2311	355.1268	443.0738	520.143	532.853	593.3099	654.7398	672.5673	750.3619	768.1109	910.3742	963.0901	981.6439	1047.7273	1103.0247	1182.7661	1278.3443	1290.4569	1342.8504	1415.6652	1459.3593	1476.3772	1502.2169	1598.2719	1670.384	1798.0109	2923.8887	3028.6069	3119.9419	3522.4935	3675.7414
NC1=C(CC=O)N=NO1	Nc1c(CC=O)nno1	
InChI=1S/C4H5N3O2/c5-4-3(1-2-8)6-7-9-4/h2H,1,5H2	InChI=1S/C4H5N3O2/c5-4-3(1-2-8)6-7-9-4/h2H,1,5H2
