25
gdb 109377	2.29317	1.27595	0.94862	0.1972	95.51	-0.2251	0.0331	0.2582	1392.1834	0.230478	-352.389812	-352.380182	-352.379238	-352.423954	37.574	
C	-0.2850666067	 1.5222633531	-0.0471371189	-0.371953
C	 0.1240655143	 0.043833904	 0.0819872762	-0.278648
C	 0.7763599529	-0.5164943151	-1.1641203053	 0.340909
C	 2.0585156964	-0.8973440577	-1.1393212254	-0.165392
C	 2.8447944646	-1.3885978538	-2.3254985754	-0.24098
C	 2.1349098545	-1.0678776631	-3.6455287205	-0.215137
C	 0.6483950872	-1.4088289303	-3.5358385562	-0.192122
C	-0.0573790304	-0.5891039122	-2.440139446	-0.056816
C	-1.4715145805	-1.1476657499	-2.1998471303	-0.405768
H	 0.5837802858	 2.1465319223	-0.2794086325	 0.117095
H	-1.0235611108	 1.6727657594	-0.841000825	 0.11741
H	-0.7251169065	 1.886562937	 0.8865781326	 0.1103
H	 0.8212144664	-0.0605661732	 0.9205741679	 0.094337
H	-0.7635922456	-0.5447956042	 0.3467525262	 0.100117
H	 2.5997452553	-0.8370199826	-0.1959758405	 0.069426
H	 3.8476318267	-0.9425746325	-2.3105433876	 0.096906
H	 3.0090956104	-2.4739554589	-2.240213667	 0.102374
H	 2.2473000896	 0.0012960975	-3.8680872959	 0.094954
H	 2.5985131784	-1.6138126645	-4.4744404481	 0.087426
H	 0.1387034839	-1.2479963306	-4.493061337	 0.086529
H	 0.5418790055	-2.4777512702	-3.302601415	 0.091687
H	-0.1777280418	 0.4388855371	-2.8175764785	 0.078541
H	-1.4271306555	-2.1464321624	-1.751094379	 0.115313
H	-2.0673071675	-0.5098168479	-1.5414576962	 0.114632
H	-2.0090184867	-1.2326261214	-3.1502464329	 0.108861
84.5114	92.4383	168.4762	216.0445	248.1745	270.3907	306.726	326.9832	370.2364	398.8301	448.3537	473.2096	624.3273	635.2875	718.2121	791.2842	829.5512	849.1114	884.5628	898.8486	933.9298	974.9692	989.1873	1006.9069	1057.0971	1074.0768	1086.0058	1100.9194	1121.2762	1139.7035	1174.8873	1189.6202	1246.9142	1282.3244	1283.7282	1321.5108	1331.9036	1354.7809	1367.7526	1372.5713	1380.9014	1394.6541	1408.3954	1411.6107	1477.9147	1481.4307	1488.3152	1497.0761	1498.1974	1501.0813	1503.6852	1512.1149	1723.648	2971.7082	2988.5883	3007.9988	3018.3374	3021.8017	3031.6875	3034.9459	3036.1627	3057.1509	3061.1275	3067.9274	3095.8765	3104.0464	3106.3167	3110.784	3129.0223
CCC1=CCCCC1C	CCC1=CCCC[C@H]1C	
InChI=1S/C9H16/c1-3-9-7-5-4-6-8(9)2/h7-8H,3-6H2,1-2H3	InChI=1S/C9H16/c1-3-9-7-5-4-6-8(9)2/h7-8H,3-6H2,1-2H3/t8-/m1/s1
