15
gdb 67498	2.49215	1.6745	1.24366	2.8554	69.99	-0.2462	0.0096	0.2559	997.6863	0.112112	-416.714774	-416.707235	-416.70629	-416.746592	29.302	
O	-0.0240167662	 1.3521250345	 0.0197665998	-0.443646
C	 0.0537065893	-0.0180104309	 0.0374982485	 0.355208
C	-0.1917031951	-0.8588258478	-1.206736383	-0.247738
C	 0.674343141	-1.7874970292	-1.8806103528	 0.285275
N	 1.368692825	-2.4989549573	-2.4744114239	-0.355703
C	-1.0638916935	-1.0105108395	 0.0519416415	-0.086555
N	-0.5321665407	-1.7210952958	 1.2711553729	-0.128718
C	 0.8310469394	-2.2456210391	 1.0459456463	-0.269816
C	 0.6566596812	-0.7915130934	 1.2336291675	-0.11489
H	 0.8154997117	 1.7067492729	-0.2978124212	 0.298795
H	-0.7529801171	-0.2567896507	-1.9198773787	 0.151884
H	-2.1372504973	-0.8989868067	-0.0294133364	 0.130909
H	 1.1860841459	-2.7957703044	 1.9135041768	 0.135536
H	 1.1139739747	-2.6822874344	 0.0986046513	 0.170384
H	 0.9579693318	-0.2560362681	 2.1279109913	 0.119074
120.4077	168.5811	232.2094	296.7155	349.5003	384.1245	407.85	459.5017	564.6561	606.3409	667.0066	695.3226	745.2098	790.0571	848.7331	896.6738	942.2518	976.4079	1003.8526	1040.5602	1060.0503	1084.6095	1115.3653	1136.3104	1205.1823	1212.8085	1240.7864	1279.4006	1342.0022	1343.6721	1480.3917	1507.8282	2338.0698	3132.7118	3135.5768	3171.5104	3203.9911	3246.5404	3778.6467
OC12C(C#N)C1N1CC21	O[C@]12[C@@H](C#N)[C@H]1N1C[C@@H]21	
InChI=1S/C6H6N2O/c7-1-3-5-6(3,9)4-2-8(4)5/h3-5,9H,2H2	InChI=1S/C6H6N2O/c7-1-3-5-6(3,9)4-2-8(4)5/h3-5,9H,2H2/t3-,4-,5+,6-,8?/m0/s1
