19
gdb 121193	2.46888	1.07281	0.81475	3.5359	76.81	-0.2498	0.0132	0.263	1423.2124	0.15929	-419.179048	-419.169616	-419.168672	-419.214171	33.17	
C	-0.2266137099	 1.3720409369	-0.1126443268	-0.231578
O	-0.0073877143	-0.0181741807	-0.0400528586	-0.239385
C	 0.6301491519	-0.5337330355	-1.1874450556	-0.070007
C	 0.7777227243	-2.0316081109	-0.985293776	-0.034723
C	-0.5501189792	-2.8219981432	-1.1045454733	-0.169061
N	-0.2009538543	-3.1456725782	-2.510366193	-0.301822
C	 1.2193491564	-2.8285297107	-2.256433769	-0.146794
C	 1.9103883721	-2.118042673	-3.335898944	 0.305076
N	 2.4713633615	-1.5548037186	-4.1750498104	-0.33286
H	 0.7183581878	 1.9291953373	-0.2075721601	 0.109119
H	-0.8691317468	 1.6392912135	-0.9659349677	 0.109576
H	-0.7232361608	 1.6725286653	 0.8129277243	 0.128375
H	 0.0363364378	-0.3274604738	-2.0929433006	 0.111418
H	 1.6183520295	-0.0661737691	-1.3316718943	 0.102411
H	 1.372839925	-2.2278627818	-0.0929415662	 0.095821
H	-0.5832654911	-3.6889654701	-0.4318055323	 0.098726
H	-1.4713922769	-2.2446511908	-0.990106282	 0.123214
H	-0.3844279469	-4.0933449778	-2.8203932489	 0.229409
H	 1.837941844	-3.6924772487	-1.9741924758	 0.113084
75.0923	94.4428	97.8147	124.0756	183.9533	227.5782	255.3	334.2712	372.0162	465.4888	548.1432	563.2966	673.2839	816.6957	864.4925	903.4222	962.3057	995.2506	1004.927	1022.1777	1057.7494	1111.4526	1138.8379	1156.4611	1161.2576	1185.2675	1204.8223	1236.0425	1246.1255	1277.8581	1321.2713	1348.1661	1364.0454	1393.0251	1429.1683	1482.2787	1485.9249	1503.7358	1523.8952	1529.4532	2354.006	2962.4696	2977.4322	2997.1793	2997.7197	3015.0694	3021.556	3090.0702	3111.0759	3116.9782	3536.0197
COCC1CNC1C#N	COC[C@H]1CN[C@H]1C#N	
InChI=1S/C6H10N2O/c1-9-4-5-3-8-6(5)2-7/h5-6,8H,3-4H2,1H3	InChI=1S/C6H10N2O/c1-9-4-5-3-8-6(5)2-7/h5-6,8H,3-4H2,1H3/t5-,6+/m1/s1
