12
gdb 132283	2.0575	1.92199	0.99982	3.1191	59.78	-0.3011	-0.0819	0.2191	1064.8829	0.07601	-513.981576	-513.974018	-513.973074	-514.01431	26.558	
C	-0.0187077211	 1.4866061766	 0.0328589687	-0.456777
C	 0.0004239058	-0.0060529112	-0.0125554292	 0.361002
N	-0.0273736717	-0.6002108337	-1.1746403728	-0.344278
C	-0.0099179622	-1.9568701657	-1.2446205093	 0.468844
O	-0.0285785618	-2.6815485238	-2.1791093725	-0.291612
O	 0.04149063	-2.6529023857	 0.0812172565	-0.227257
C	 0.064218038	-1.9076577531	 1.1443414627	 0.42743
F	 0.1086936354	-2.61585021	 2.2363768892	-0.018729
N	 0.0482100474	-0.6265528006	 1.2177952362	-0.397202
H	 0.8723914653	 1.8455805318	 0.5584463304	 0.161072
H	-0.0584293952	 1.9030640862	-0.9723066691	 0.156525
H	-0.8814291199	 1.8214257192	 0.6182223193	 0.160985
95.5578	117.0218	182.8176	186.5635	305.7196	343.7363	510.8198	533.4534	590.529	622.4213	631.6485	759.3652	767.3489	807.3308	945.4462	1001.8715	1061.2663	1067.9005	1160.669	1368.9271	1416.8967	1423.5269	1459.2855	1469.2439	1567.2758	1693.3644	1944.0129	3049.5452	3106.7514	3174.3617
CC1=NC(=O)OC(F)=N1	Cc1nc(=O)oc(F)n1	
InChI=1S/C4H3FN2O2/c1-2-6-3(5)9-4(8)7-2/h1H3	InChI=1S/C4H3FN2O2/c1-2-6-3(5)9-4(8)7-2/h1H3
