16
gdb 126254	2.47596	1.33877	0.92288	2.07	74.83	-0.2728	-0.0763	0.1965	1239.065	0.124949	-434.088029	-434.079626	-434.078682	-434.12218	29.611	
C	 0.121830492	 1.6200791275	 0.1753209613	-0.372091
C	-0.0508054575	 0.1056862723	-0.0355803268	-0.295135
C	 0.5885467971	-0.3729142804	-1.300062526	 0.240652
C	 0.0213070424	-0.8209734421	-2.4855119214	 0.174439
N	 1.0983987288	-1.0917393311	-3.2731290075	-0.215856
N	 2.2414448124	-0.8396567807	-2.645838966	-0.092613
N	 1.9424757264	-0.401720393	-1.4472700003	-0.249354
C	-1.3394477597	-1.0250539649	-2.9587754254	 0.077706
O	-1.5982058356	-1.4372127931	-4.0704707895	-0.291037
H	 1.1821496589	 1.8847597661	 0.1848975183	 0.147261
H	-0.3615314069	 2.1869129498	-0.6263892314	 0.120448
H	-0.3214265137	 1.9277713006	 1.1266291022	 0.119895
H	 0.4055684718	-0.4308187537	 0.8036140358	 0.134588
H	-1.1140067459	-0.1555835729	-0.0375223661	 0.108709
H	 1.0850927157	-1.4474733283	-4.2178641013	 0.298874
H	-2.1344550162	-0.7767876658	-2.2281963659	 0.093516
34.957	141.0624	157.4729	168.1719	224.5936	269.2962	322.4543	405.8744	544.6224	635.0609	637.1269	722.8707	764.5971	793.3528	807.5555	973.4164	1020.4619	1027.0643	1068.6184	1084.4431	1122.2366	1192.9469	1219.8111	1275.9644	1336.4722	1349.6282	1376.8174	1406.5994	1422.728	1479.1372	1490.4011	1496.384	1510.0135	1598.538	1772.2176	2937.159	3043.0391	3045.141	3082.1043	3115.3304	3129.9414	3640.4731
CCC1=C(NN=N1)C=O	CCc1c([nH]nn1)C=O	
InChI=1S/C5H7N3O/c1-2-4-5(3-9)7-8-6-4/h3H,2H2,1H3,(H,6,7,8)	InChI=1S/C5H7N3O/c1-2-4-5(3-9)7-8-6-4/h3H,2H2,1H3,(H,6,7,8)
