19
gdb 80418	2.63375	1.7474	1.31648	2.4865	70.12	-0.2475	0.0722	0.3197	1009.4524	0.159617	-460.1456	-460.137546	-460.136602	-460.177635	32.394	
C	-0.0509749087	 1.5045836427	 0.0482669918	-0.497649
C	-0.023971173	 0.0048997536	-0.0263774598	 0.368981
C	 0.9243938633	-0.8148954935	-0.9295314023	-0.290298
C	 0.6909568535	-1.8148674554	 0.2182794587	 0.036919
O	 0.5714231658	-0.6749345803	 1.1415056751	-0.347965
C	-0.7744743651	-2.23587971	-0.0075666331	 0.134363
O	-1.3179439279	-2.9962644733	 1.0351712079	-0.453685
C	-1.3641987512	-0.7714524854	-0.0790721035	 0.061175
O	-2.1584904683	-0.4910758575	 1.0593635696	-0.448934
H	 0.9478339289	 1.9009716416	 0.2478237709	 0.130993
H	-0.4084342307	 1.919547874	-0.899947513	 0.127185
H	-0.728943803	 1.8395538069	 0.8387633069	 0.134115
H	 0.6007885098	-1.0800903563	-1.9398417738	 0.1003
H	 1.9341473766	-0.4028724319	-0.9302117912	 0.115767
H	 1.4093804604	-2.5673129569	 0.5385861536	 0.092419
H	-0.8849198762	-2.7722400569	-0.9594698366	 0.071207
H	-2.0349369857	-2.4618869927	 1.4068845859	 0.28616
H	-1.9774776183	-0.5727642717	-0.9599366353	 0.086751
H	-1.5249618301	-0.443954757	 1.7929232682	 0.292196
120.8002	196.3374	244.0314	288.8493	307.1653	321.0713	346.5509	451.2463	473.0475	513.5801	637.7399	686.48	712.6649	794.6506	811.2269	837.2771	858.7244	872.9416	900.1781	938.0478	981.5801	1017.3405	1068.7085	1093.0904	1114.1207	1157.9003	1171.6765	1218.0461	1223.9242	1240.8326	1266.104	1282.6671	1304.2341	1338.3069	1381.2937	1412.3659	1414.8663	1439.253	1481.6792	1488.7393	1492.5173	3012.0971	3042.5067	3064.6573	3101.4457	3112.3449	3125.0255	3138.6207	3145.0249	3702.1815	3718.0125
CC12CC(O1)C(O)C2O	C[C@@]12C[C@@H](O1)[C@@H](O)[C@H]2O	
InChI=1S/C6H10O3/c1-6-2-3(9-6)4(7)5(6)8/h3-5,7-8H,2H2,1H3	InChI=1S/C6H10O3/c1-6-2-3(9-6)4(7)5(6)8/h3-5,7-8H,2H2,1H3/t3-,4-,5-,6+/m1/s1
