18
gdb 16027	3.86384	1.80993	1.47314	1.5372	67.44	-0.2471	0.0839	0.331	889.0537	0.15555	-384.929509	-384.922569	-384.921624	-384.960458	27.386	
C	 0.0569496664	 1.4916508923	 0.0095397771	-0.250632
O	 1.207161875	 0.6389639147	-0.0060381265	-0.282879
C	-0.1008074466	 0.0347067266	 0.0032220019	 0.428808
C	-0.4400070919	-0.7326277327	 1.2671856612	-0.276264
C	 0.1286731485	-2.154614082	 1.1642739748	-0.075558
O	-0.3219912333	-2.8090572847	-0.0099442008	-0.248292
C	 0.1062004148	-2.1419887903	-1.1854664957	-0.075558
C	-0.4641918273	-0.7190352511	-1.2621992557	-0.276264
H	-0.0991598468	 2.0486257852	 0.9332523313	 0.109602
H	-0.1167352894	 2.0584968921	-0.9049850952	 0.109602
H	-0.0299095349	-0.2185804352	 2.1421121663	 0.1041
H	-1.5295763005	-0.7890540416	 1.3796735191	 0.106684
H	 1.2301853901	-2.1101255575	 1.1757479796	 0.101297
H	-0.1968654058	-2.7718496852	 2.006096938	 0.106636
H	 1.2072966654	-2.0972690107	-1.2175287046	 0.101297
H	-0.2354442943	-2.7501761276	-2.0274927742	 0.106636
H	-1.555718436	-0.7743512402	-1.3544394873	 0.106684
H	-0.0708362733	-0.1955756722	-2.1392299293	 0.1041
118.4799	193.3071	310.7151	312.3367	399.5295	405.0601	465.2707	498.6332	608.225	702.2142	810.6662	832.9261	867.3685	878.7892	961.9123	963.8789	1009.1803	1025.7996	1038.6404	1122.1788	1133.9447	1135.0841	1166.4721	1197.9521	1237.456	1254.9583	1282.1355	1314.7214	1353.1529	1359.3214	1387.8611	1413.9563	1439.8449	1455.1715	1469.9079	1493.6154	1507.13	1532.8437	2973.744	2978.0666	3032.4094	3037.3458	3074.3964	3087.7752	3090.1994	3091.4191	3093.5161	3158.8835
C1OC11CCOCC1	C1OC21CCOCC2	
InChI=1S/C6H10O2/c1-3-7-4-2-6(1)5-8-6/h1-5H2	InChI=1S/C6H10O2/c1-3-7-4-2-6(1)5-8-6/h1-5H2
