18
gdb 102202	2.91889	0.92107	0.80423	3.9977	76.86	-0.2555	-0.0089	0.2466	1430.1196	0.146253	-398.133306	-398.123319	-398.122375	-398.169441	34.498	
C	-1.439089722	-0.695923156	 0.135890212	-0.400502
C	-0.0216197434	-0.1264137064	-0.0212345625	-0.173557
N	 0.7714913198	-0.6238386963	-1.1573562855	-0.074873
C	 1.1100097469	-2.0401155696	-1.0981350367	-0.285994
C	 1.8749271524	-2.3700769839	 0.109574258	 0.278943
N	 2.466275091	-2.6530245828	 1.060210001	-0.299586
C	 0.2485573188	-0.2751818675	-2.4722405207	-0.285994
C	 0.1435560842	 1.1771107209	-2.6521173896	 0.278942
N	 0.0406423918	 2.3165377678	-2.8088809287	-0.299586
H	-2.0741703659	-0.4733607622	-0.7274937922	 0.124883
H	-1.4365527685	-1.7797451895	 0.2895684084	 0.124883
H	-1.9139081358	-0.2453314771	 1.0123348497	 0.135925
H	-0.0693534694	 0.9619431133	-0.1225863636	 0.141122
H	 0.5607725588	-0.3290873771	 0.8825429244	 0.141122
H	 0.2366880335	-2.7168036217	-1.1372798282	 0.138841
H	 1.7330645001	-2.2884292665	-1.9656237218	 0.158296
H	 0.9367011597	-0.6568307234	-3.2359130829	 0.158296
H	-0.7411735919	-0.7133713019	-2.6970796312	 0.138841
43.1778	49.348	118.4515	128.0997	194.9104	240.5439	240.6365	326.696	387.4957	388.3546	391.9834	462.9752	492.1878	635.8384	790.9671	792.3805	909.1508	955.4293	984.2951	984.7307	1020.3639	1083.0724	1089.1116	1179.5582	1202.8902	1260.0017	1297.0975	1342.5465	1386.4203	1388.4144	1412.9519	1422.0497	1469.4609	1483.3119	1489.6936	1503.7669	1504.0155	2368.9743	2369.6295	2936.9766	2939.8741	3040.7222	3052.8074	3054.794	3060.0778	3092.0454	3113.6814	3115.8005
CCN(CC#N)CC#N	CCN(CC#N)CC#N	
InChI=1S/C6H9N3/c1-2-9(5-3-7)6-4-8/h2,5-6H2,1H3	InChI=1S/C6H9N3/c1-2-9(5-3-7)6-4-8/h2,5-6H2,1H3
