18
gdb 55360	3.08036	1.37338	1.12803	5.2718	72.13	-0.2303	-0.005	0.2252	1117.9855	0.147026	-439.071658	-439.063158	-439.062214	-439.105702	31.023	
C	-0.379978029	 1.4145729854	 0.0573780959	-0.490632
C	-0.0107219432	-0.0592433184	 0.1191501928	 0.385233
O	 0.2435515926	-0.6217093537	 1.1513133532	-0.280973
C	 0.0273444493	-0.7747668364	-1.240704024	 0.026912
O	 0.2881122457	-2.1507790379	-1.0528792743	-0.254358
C	-0.4388027746	-2.9398733918	-1.98979372	-0.072886
C	-1.570935771	-2.0665917931	-2.4847204605	-0.052636
N	-2.3539264225	-1.4684252841	-1.3848785818	-0.321653
C	-1.2743911076	-0.6922066663	-2.0288445415	-0.093619
H	 0.1191566626	 1.9248802775	-0.7731972992	 0.126895
H	-1.4604541972	 1.5101324999	-0.1019602858	 0.148494
H	-0.1206949696	 1.8953679107	 1.0013576593	 0.145958
H	 0.8244449305	-0.293862089	-1.8389353879	 0.085501
H	 0.1977505225	-3.2357052964	-2.8385277979	 0.0934
H	-0.7764031373	-3.8424546295	-1.4704808966	 0.122001
H	-2.0435030465	-2.2734565371	-3.4388705057	 0.099256
H	-3.2520314274	-1.1559666355	-1.7465550669	 0.235318
H	-1.5015499772	 0.1870739357	-2.6210449892	 0.09779
49.9726	83.8791	118.0128	162.8172	252.2695	353.4931	361.2292	442.4551	516.6343	598.8529	677.5343	767.9456	797.1092	816.1882	874.6925	880.5575	928.4734	957.0848	990.3572	1016.687	1026.6144	1054.0901	1097.0971	1104.1863	1159.5637	1162.434	1194.1829	1231.3398	1251.1442	1299.6478	1341.3538	1355.2743	1377.976	1390.8439	1431.8049	1465.4674	1477.437	1509.295	1839.5087	2926.2783	2984.4673	3035.8445	3075.6782	3098.2915	3150.6852	3169.3363	3180.3041	3500.6095
CC(=O)C1OCC2NC12	CC(=O)[C@H]1OC[C@H]2N[C@@H]12	
InChI=1S/C6H9NO2/c1-3(8)6-5-4(7-5)2-9-6/h4-7H,2H2,1H3	InChI=1S/C6H9NO2/c1-3(8)6-5-4(7-5)2-9-6/h4-7H,2H2,1H3/t4-,5-,6-/m1/s1
