20
gdb 61461	3.01794	0.95597	0.84928	2.3926	76.01	-0.2633	0.0607	0.3239	1440.0092	0.169794	-440.32566	-440.315742	-440.314798	-440.361333	36.188	
C	 0.0222889456	 1.4329956812	-0.120990744	-0.407715
C	 0.017970974	-0.087370215	 0.0012700771	 0.125021
O	 0.7546879694	-0.4772077889	 1.1901613869	-0.275508
C	 2.0957741192	-0.5932748384	 1.0511956073	 0.49094
N	 2.662055984	-0.896129414	 2.2599338321	-0.561561
O	 2.7107365458	-0.4281996005	 0.0216742249	-0.405709
C	-1.3624689233	-0.6735039617	 0.1366399222	 0.022837
C	-2.1362182965	-1.0319773009	-1.1077030916	-0.269202
C	-1.6045102687	-2.1192300507	-0.2089275218	-0.273481
H	 1.0447391486	 1.8010387341	-0.2318829939	 0.139771
H	-0.5547314117	 1.7394963235	-0.9985775187	 0.120316
H	-0.427063775	 1.8918840559	 0.7654930655	 0.117394
H	 0.5304114608	-0.5264272777	-0.8601150842	 0.104335
H	 2.0682042338	-1.2429729779	 2.9941376349	 0.262143
H	 3.6125143695	-1.222934139	 2.2301876429	 0.266118
H	-1.9380572571	-0.2687354633	 0.9650263454	 0.085094
H	-3.2035431011	-0.842454862	-1.1186603524	 0.113408
H	-1.6510227008	-0.8865263803	-2.0675320039	 0.116101
H	-0.7593757252	-2.7006211161	-0.5624825525	 0.117581
H	-2.3081594114	-2.6801730483	 0.3956832638	 0.112118
45.2144	63.4555	104.0519	158.457	203.1583	234.513	307.3144	359.2294	365.4248	381.3099	486.0777	499.1886	545.765	654.0148	772.232	784.8277	830.8889	833.9889	861.7126	933.9918	953.1794	997.9086	1038.483	1058.4145	1079.0365	1090.854	1116.234	1132.2185	1136.0205	1196.8756	1224.6497	1234.5223	1310.5075	1350.9271	1394.3758	1404.219	1431.1171	1471.0122	1487.8797	1499.9205	1508.8877	1610.3454	1822.6167	3042.5852	3068.5326	3114.8315	3131.3474	3132.0495	3135.9344	3142.9216	3209.8464	3224.795	3611.7432	3741.3175
CC(OC(N)=O)C1CC1	C[C@@H](OC(=O)N)C1CC1	
InChI=1S/C6H11NO2/c1-4(5-2-3-5)9-6(7)8/h4-5H,2-3H2,1H3,(H2,7,8)	InChI=1S/C6H11NO2/c1-4(5-2-3-5)9-6(7)8/h4-5H,2-3H2,1H3,(H2,7,8)/t4-/m1/s1
