21
gdb 82827	2.39543	1.98327	1.48934	1.2159	81.83	-0.1913	0.0751	0.2665	994.9074	0.183275	-383.197828	-383.18979	-383.188846	-383.229744	32.276	
C	-0.1967982814	 1.4931126721	 0.0490236535	-0.340311
N	 0.1147745695	 0.0801002679	 0.0359150889	-0.095596
C	 0.9914514027	-0.5005889239	-0.9943142888	-0.017106
C	 2.4237375522	 0.087978988	-1.0504537084	-0.190566
N	 2.8332042287	-0.6557530597	 0.1907563633	-0.150423
C	 2.2599388555	 0.0319615792	 1.398819276	-0.221927
C	 0.8473630537	-0.5712866007	 1.1493417743	 0.326959
C	-0.0021675411	-1.0048940168	 2.3205176099	-0.486073
C	 1.5466968204	-1.4708343324	 0.0837082117	-0.068454
H	 0.6795578673	 2.1607641864	 0.1161264873	 0.096348
H	-0.7416554652	 1.750117119	-0.8662138402	 0.122192
H	-0.8519135877	 1.7154765519	 0.8980049364	 0.122318
H	 0.4891488242	-0.7645737237	-1.9299542058	 0.068158
H	 2.9904341504	-0.2940248328	-1.906758998	 0.105094
H	 2.5496314304	 1.1750715551	-1.0048354838	 0.098197
H	 2.728774034	-0.3683532991	 2.3047442388	 0.101908
H	 2.3653292241	 1.1224856398	 1.4058997796	 0.096126
H	-0.3621003791	-0.1360308187	 2.8852462468	 0.117308
H	-0.8749874438	-1.5680743222	 1.9780065422	 0.123866
H	 0.5735226058	-1.6300429277	 3.0107456076	 0.117448
H	 1.5824137794	-2.5580317417	 0.0519490788	 0.074533
167.9425	185.6908	194.657	239.6958	252.2668	294.4579	422.1971	440.4913	510.1773	589.317	624.0357	742.8128	784.6783	819.6891	844.1494	879.4301	889.1679	922.4409	939.8055	975.4494	983.2341	1009.0278	1049.3709	1141.4821	1152.9961	1155.7876	1165.1931	1180.1664	1195.8026	1204.8189	1211.9424	1241.9778	1258.9476	1268.6963	1303.5647	1323.6334	1345.5401	1406.9255	1444.5749	1479.813	1483.4746	1484.4191	1492.3405	1506.9278	1508.5263	2947.0604	3024.7552	3028.2168	3031.8838	3052.6563	3054.079	3076.3653	3081.9191	3089.9391	3095.6291	3113.8997	3134.0914
CN1C2CN3CC1(C)C23	CN1[C@H]2CN3C[C@]1(C)[C@@H]23	
InChI=1S/C7H12N2/c1-7-4-9-3-5(6(7)9)8(7)2/h5-6H,3-4H2,1-2H3	InChI=1S/C7H12N2/c1-7-4-9-3-5(6(7)9)8(7)2/h5-6H,3-4H2,1-2H3/t5-,6+,7+/m0/s1
