14
gdb 57587	2.00585	1.61745	1.18504	2.6336	64.7	-0.2769	-0.1161	0.1608	1057.6602	0.096231	-473.842611	-473.833031	-473.832087	-473.877527	32.918	
C	 0.7150584673	 1.04527599	 0.8783896821	-0.434488
C	-0.0185014315	-0.1908465949	 0.3288574422	 0.171904
O	-0.3426985257	-1.092799471	 1.3460838142	-0.455596
C	-1.3360209686	 0.2508155111	-0.3692776887	 0.107547
O	-1.4326934132	 1.2104646841	-1.0797958153	-0.216594
C	 0.8384622118	-0.9111298463	-0.7141563732	 0.256768
O	 1.0920138748	-2.0884482715	-0.6093342698	-0.297632
C	 1.3483070485	-0.124960107	-1.8396805451	 0.28346
N	 1.7755808303	 0.485563334	-2.7235224644	-0.296541
H	 1.6938965256	 0.7648356744	 1.2748955611	 0.138717
H	 0.8311012327	 1.8002592194	 0.0987041933	 0.165859
H	 0.1189199215	 1.4651109934	 1.6917450576	 0.151896
H	 0.0347396173	-1.9519507786	 1.098279438	 0.304643
H	-2.1828927108	-0.420556507	-0.1156141922	 0.120057
60.7369	66.3194	140.3847	168.8841	208.8617	256.5072	283.8486	314.5585	362.5275	385.2284	444.3635	455.5227	571.413	605.7494	710.5565	757.7783	882.2245	955.4274	996.6811	1067.021	1136.1586	1141.0562	1234.6126	1365.2962	1385.5887	1397.8384	1480.4798	1492.4045	1764.0703	1839.2401	2343.6343	2925.4732	3056.9471	3136.8529	3153.0523	3693.374
CC(O)(C=O)C(=O)C#N	C[C@@](O)(C=O)C(=O)C#N	
InChI=1S/C5H5NO3/c1-5(9,3-7)4(8)2-6/h3,9H,1H3	InChI=1S/C5H5NO3/c1-5(9,3-7)4(8)2-6/h3,9H,1H3/t5-/m1/s1
