19
gdb 91238	2.58865	1.58361	1.4191	2.1744	75.45	-0.2255	0.024	0.2495	1019.4838	0.161564	-419.213504	-419.205622	-419.204678	-419.245792	30.85	
C	 0.3730001804	 1.5104684405	-0.1426342631	-0.402617
C	-0.0179419259	 0.031716706	 0.0054282675	 0.030426
C	 0.3830533365	-0.8425525925	-1.2079611956	-0.235573
C	 1.7297648755	-1.4447195071	-0.8340642113	 0.117007
O	 2.8635568288	-0.5235988331	-1.0189520891	-0.278274
C	 3.041081318	-0.397546988	 0.3458002529	 0.433832
N	 3.8864309826	 0.2538812379	 1.0040855701	-0.557765
C	 1.8576724759	-1.2970855969	 0.6991839465	-0.13411
N	 0.6142924781	-0.6819866876	 1.1348945941	-0.304972
H	 1.4349798793	 1.6403116963	-0.3625897615	 0.139419
H	-0.1999621687	 1.9731739772	-0.9539647392	 0.113031
H	 0.1441534514	 2.0606508064	 0.7766918789	 0.112332
H	-1.1044590888	-0.0102912907	 0.1489997559	 0.080572
H	-0.3352099578	-1.6578641592	-1.3403548899	 0.114209
H	 0.431964927	-0.2790691224	-2.142843379	 0.118638
H	 1.9559408506	-2.4062392742	-1.2957334	 0.095995
H	 4.5277477687	 0.7633536405	 0.3927236028	 0.226013
H	 2.1149116884	-2.1711765184	 1.3015022712	 0.101151
H	 0.7370595701	-0.0957847949	 1.9529961389	 0.230687
101.4832	138.4691	207.2348	229.6878	337.0334	354.2276	398.2527	448.0463	566.1033	668.2491	695.9469	754.0032	801.9326	826.0693	854.5925	867.369	880.0929	924.7181	957.6642	983.5387	1009.8054	1035.6927	1047.7022	1093.4134	1115.4249	1161.7715	1205.0557	1220.6708	1236.334	1271.9951	1310.1055	1319.3246	1352.0573	1367.7284	1388.1955	1410.464	1438.1417	1467.2213	1492.0169	1500.1207	1817.7971	3020.519	3033.7199	3059.8031	3085.1587	3092.86	3112.0223	3114.6297	3133.4751	3465.0476	3545.2435
CC1CC2OC(=N)C2N1	C[C@H]1C[C@H]2O[C]([NH])[C@H]2N1	
InChI=1S/C6H10N2O/c1-3-2-4-5(8-3)6(7)9-4/h3-5,7-8H,2H2,1H3	InChI=1S/C6H10N2O/c1-3-2-4-5(8-3)6(7)9-4/h3-5,7-8H,2H2,1H3/t3-,4+,5-/m0/s1
