16
gdb 97488	8.45755	0.42898	0.41139	4.4888	98.02	-0.2463	-0.0245	0.2218	2556.5968	0.122556	-363.584476	-363.574434	-363.57349	-363.621641	33.841	
C	-0.0469310195	 1.5780534459	 0.0607877918	-0.368598
C	 0.0007334756	 0.0386295113	 0.0031168341	-0.345129
C	 0.6759085977	-0.4664107205	-1.1825906503	 0.310192
C	 1.2405421972	-0.870426396	-2.1744667119	-0.230337
C	 1.8743986129	-1.3241943623	-3.2882358254	-0.185879
C	 2.4380114628	-1.7274681089	-4.2786162585	 0.295456
C	 3.120438779	-2.1960417501	-5.4787133427	-0.508519
C	 3.1887589653	-3.6613883572	-5.5724485104	 0.283032
N	 3.2504999601	-4.8107841127	-5.6605893467	-0.29745
H	 0.9621735926	 1.9978093976	 0.0665631507	 0.134304
H	-0.5783535125	 1.9827426234	-0.804275955	 0.134302
H	-0.5630720564	 1.9037581272	 0.9682173068	 0.122289
H	 0.506465867	-0.349280207	 0.8968459437	 0.1418
H	-1.0199258177	-0.3642305993	 0.034024493	 0.141797
H	 2.6167480061	-1.8192844623	-6.3790950868	 0.186374
H	 4.1454525698	-1.8032565589	-5.5160243723	 0.186367
21.0807	49.8295	89.0308	102.7224	201.114	216.1967	269.8641	333.5855	367.8424	387.203	426.3697	526.8043	556.6205	560.8981	666.3145	784.5491	882.8783	932.2202	935.	1014.0228	1080.541	1101.2889	1232.5754	1270.2551	1282.4092	1333.8193	1360.7307	1409.95	1443.8483	1468.7945	1494.8519	1504.9001	2283.1529	2371.6764	2391.7854	3018.7419	3020.7922	3048.3359	3048.987	3049.8695	3124.3878	3129.8491
CCC#CC#CCC#N	CCC#CC#CCC#N	
InChI=1S/C8H7N/c1-2-3-4-5-6-7-8-9/h2,7H2,1H3	InChI=1S/C8H7N/c1-2-3-4-5-6-7-8-9/h2,7H2,1H3
