15
gdb 15967	3.15456	1.92145	1.39175	4.376	65.29	-0.2762	-0.0042	0.272	889.9691	0.118861	-362.63232	-362.625048	-362.624103	-362.664223	26.565	
N	-0.0808162605	-1.0661846097	-0.4736535339	-0.324613
C	-0.0474447743	 0.0508974932	-0.1793565538	 0.285768
C	 0.0195435427	 1.4785148924	 0.1535765412	-0.071814
O	-0.0097263005	 1.7300063354	 1.5706381283	-0.279694
C	 1.2890198703	 2.3798172266	 1.5461940553	-0.136432
C	 1.4022540708	 2.1385455207	 0.0453216712	 0.288232
C	 2.5810290311	 1.7028406597	-0.7624480363	-0.320761
C	 1.9151981178	 3.0323019029	-1.0383983317	-0.32272
H	-0.7927035946	 2.0015792533	-0.3677901831	 0.126218
H	 1.2191206563	 3.4269911684	 1.8633037078	 0.114791
H	 2.0153919232	 1.8520623513	 2.1751583484	 0.120852
H	 3.5511299473	 1.7038474357	-0.2761924069	 0.126442
H	 2.4363223102	 0.8952974688	-1.4726899751	 0.141328
H	 1.3223948267	 3.1304279176	-1.9422301126	 0.127198
H	 2.4315123835	 3.9397682038	-0.7420258688	 0.125206
72.6608	127.9242	209.5359	277.5541	302.383	373.4322	506.6313	540.9359	607.6383	770.3484	825.7309	874.0555	896.165	955.5164	960.7215	985.4205	1019.053	1049.374	1066.3652	1084.3283	1105.3822	1149.9711	1187.8877	1229.7147	1254.1574	1324.4259	1352.6673	1408.5309	1463.6186	1507.7745	1524.2986	2355.1451	3019.9735	3026.0886	3069.7173	3127.3195	3131.9662	3207.3689	3222.1948
N#CC1OCC11CC1	N#C[C@H]1OCC21CC2	
InChI=1S/C6H7NO/c7-3-5-6(1-2-6)4-8-5/h5H,1-2,4H2	InChI=1S/C6H7NO/c7-3-5-6(1-2-6)4-8-5/h5H,1-2,4H2/t5-/m1/s1
