18
gdb 96858	2.37714	1.3054	0.9458	2.0842	81.45	-0.251	0.0228	0.2737	1286.7836	0.144937	-401.913808	-401.904074	-401.90313	-401.948897	34.615	
C	-0.0133988336	 1.4516622203	 0.2501927514	-0.340365
N	-0.0284318212	-0.0039773223	 0.2969980719	-0.324145
C	-1.0605095067	-0.6163035331	-0.0408992171	 0.471423
O	-2.2895635624	-0.1604039832	-0.4816615209	-0.278337
C	-2.7988889963	-1.5229508372	-0.6617945946	 0.139563
C	-3.1772495519	-1.8062428207	-2.0954506241	-0.404243
C	-1.4488441455	-2.0923031406	-0.1086226872	-0.383131
C	-0.6586272174	-2.9702984921	-0.9440536505	 0.356764
C	-0.0133625453	-3.7057837576	-1.641609677	-0.459048
H	 0.8116899235	 1.7778108714	-0.3921029138	 0.130209
H	-0.944668317	 1.8991610255	-0.1161478992	 0.126036
H	 0.1914395099	 1.8388295717	 1.2543164726	 0.128853
H	-3.6404928621	-1.6852919831	 0.0180901384	 0.097694
H	-2.3248446648	-1.6567614769	-2.7625177405	 0.139866
H	-3.5162242217	-2.8418695063	-2.1971339154	 0.130921
H	-3.9905808688	-1.1435626964	-2.405064089	 0.131127
H	-1.5618390644	-2.5174801471	 0.89368687	 0.133572
H	 0.5696979756	-4.3488141823	-2.2534931949	 0.203242
75.4594	78.5933	102.1189	141.387	188.5924	223.6091	250.4627	327.2461	393.3587	417.8585	500.8623	573.7664	628.7898	651.005	681.1152	741.4925	804.0684	881.7671	893.4509	1022.9351	1038.7431	1059.2673	1104.8954	1126.5634	1132.8418	1150.4831	1182.5819	1197.2746	1311.1955	1327.8125	1380.7383	1415.6627	1439.0538	1481.0824	1488.8697	1494.0314	1497.2244	1850.5147	2241.8375	3018.1441	3045.9537	3057.8366	3070.4091	3085.404	3088.8777	3118.1001	3133.2091	3503.3885
CN=C1OC(C)C1C#C	CN=C1O[C@@H](C)[C@H]1C#C	
InChI=1S/C7H9NO/c1-4-6-5(2)9-7(6)8-3/h1,5-6H,2-3H3	InChI=1S/C7H9NO/c1-4-6-5(2)9-7(6)8-3/h1,5-6H,2-3H3/t5-,6+/m0/s1
