17
gdb 41446	2.93059	2.14267	1.66237	1.7502	71.5	-0.219	0.0452	0.2642	843.1282	0.138415	-417.845893	-417.839651	-417.838707	-417.87605	26.68	
C	 0.0255550837	 1.480322296	-0.2197420807	-0.284156
N	 1.5033559486	 1.5100169464	 0.1378997079	-0.391516
C	 1.3683804167	 0.198952556	 0.8465956522	 0.18235
C	 1.1512057205	 0.1998892285	 2.3479910117	-0.117563
O	 0.1410642555	-0.8331144081	 2.4687648461	-0.265539
C	-0.0747318621	-1.2352758046	 1.1524555352	 0.07544
C	 1.302178989	-1.2952440788	 0.3514706181	-0.128202
N	 0.5697822724	-0.9425409095	-0.8945817364	-0.345517
C	 0.0004751009	-0.0189890443	 0.1557904023	 0.196083
H	-0.5357206516	 2.1441611557	 0.4427299124	 0.129454
H	-0.2236784541	 1.7115871683	-1.2599713672	 0.120693
H	 2.1168785115	 1.5061375085	-0.6695603728	 0.229297
H	 2.0270638513	-0.08417883	 2.942290118	 0.108399
H	 0.7587273017	 1.1510144616	 2.7233346557	 0.113854
H	-0.8107359907	-2.0348524586	 1.085421297	 0.107116
H	 2.0444290658	-2.0989007435	 0.3964255946	 0.077252
H	 1.1976974509	-0.4039469936	-1.4987013638	 0.192557
234.7482	249.9617	360.8552	437.2216	443.1945	502.3919	627.0482	658.8146	690.586	695.1971	769.418	832.865	852.1535	855.7863	912.9883	935.737	953.2522	970.9641	1030.4919	1035.0637	1067.0494	1106.4337	1115.072	1124.4619	1141.9546	1192.3036	1201.667	1224.1626	1237.1324	1275.5761	1279.3874	1302.6674	1308.59	1347.3362	1377.2723	1492.5288	1520.0261	3032.8105	3049.3691	3056.4865	3077.2239	3107.0345	3146.0652	3386.3802	3539.424
C1NC23COC4C2NC134	C1N[C@]23CO[C@@H]4[C@H]2N[C@]134	
InChI=1S/C6H8N2O/c1-5-4-3(8-5)6(5,7-1)2-9-4/h3-4,7-8H,1-2H2	InChI=1S/C6H8N2O/c1-5-4-3(8-5)6(5,7-1)2-9-4/h3-4,7-8H,1-2H2/t3-,4-,5+,6-/m1/s1
