16
gdb 11773	4.58995	1.70811	1.55437	4.6976	68.77	-0.2631	0.014	0.2772	845.5057	0.133989	-342.777164	-342.770806	-342.769862	-342.807503	25.298	
N	 0.0441561331	-1.1362463564	-0.0369487263	-0.339872
C	-0.0028700145	 0.0184472375	-0.0234961084	 0.182908
C	-0.034767304	 1.4680303567	 0.0090022735	 0.22681
C	-0.8822525628	 2.2672846789	 1.0423260593	-0.238219
C	-0.7348443879	 3.3320153814	-0.0740836298	-0.007975
C	 0.7731390817	 3.6716224886	-0.023665599	-0.22742
C	 1.3303126151	 2.2142046551	 0.0471348803	-0.263914
N	-0.8341746889	 2.1851272692	-1.0379672655	-0.329257
H	-1.8960837259	 1.8789252518	 1.1196800476	 0.133813
H	-0.439105829	 2.4620075576	 2.0195736222	 0.108905
H	-1.446679258	 4.1471503477	-0.196913726	 0.083969
H	 1.1007234728	 4.2052920801	-0.9199797804	 0.106507
H	 1.0444425776	 4.2747316958	 0.8470227625	 0.110246
H	 1.8952708484	 2.0045369025	 0.9584276524	 0.120739
H	 1.9532150831	 1.9439320916	-0.8089366483	 0.117074
H	-0.3079044206	 2.3309613719	-1.9012106639	 0.215688
160.232	167.0001	306.5901	431.2926	500.5977	522.369	549.0939	578.6149	696.5041	832.032	838.5394	848.5197	874.4196	906.8762	948.8636	978.8084	986.9954	1027.367	1069.4	1114.5897	1123.4124	1148.7328	1179.1504	1224.1077	1234.1937	1267.25	1288.8534	1304.6056	1321.0041	1348.6476	1484.245	1492.9057	1513.853	2359.4253	3058.8947	3071.0539	3094.4725	3100.6595	3121.0973	3130.9596	3172.8663	3435.2305
N#CC12CC(CC1)N2	N#C[C@@]12C[C@@H](CC1)N2	
InChI=1S/C6H8N2/c7-4-6-2-1-5(3-6)8-6/h5,8H,1-3H2	InChI=1S/C6H8N2/c7-4-6-2-1-5(3-6)8-6/h5,8H,1-3H2/t5-,6+/m1/s1
