18
gdb 68338	3.11238	1.09828	0.95431	3.0219	73.41	-0.2505	-0.023	0.2274	1255.7388	0.146391	-439.009077	-439.000518	-438.999573	-439.043283	31.707	
O	 0.1095690411	 1.2098161465	 0.4289672501	-0.460506
C	 0.1346182536	-0.1523706757	 0.2021286868	 0.341073
C	 0.6790966107	-0.9740247116	-0.9976153631	-0.233706
N	 0.0213774226	-2.043294897	-0.1124212375	-0.155343
C	 0.6998821364	-1.3147650255	 1.0598999829	-0.246752
C	-1.1287588571	-1.0189502476	 0.0388046632	 0.0284
C	-2.1543194824	-1.239618206	 1.1410589596	-0.338066
C	-3.2654866832	-0.2083320531	 1.090456761	 0.170583
O	-3.7231920324	 0.3482934474	 2.0529812878	-0.235986
H	 1.011324912	 1.5288066724	 0.546030461	 0.286143
H	 0.1976407374	-0.8524076263	-1.9711331158	 0.107213
H	 1.7603587319	-1.1017547136	-1.0902177994	 0.101188
H	 1.7837503308	-1.4555994895	 1.0767754262	 0.101648
H	 0.2651957328	-1.525212051	 2.0364428821	 0.112324
H	-1.6485289769	-0.8886033101	-0.9178744254	 0.07833
H	-2.6213389827	-2.2210612216	 0.9658658665	 0.139512
H	-1.7438070758	-1.2423769191	 2.1515574182	 0.128835
H	-3.6617021288	-0.0044738986	 0.0679822259	 0.075111
43.1411	70.4548	151.6256	227.7656	258.8491	340.0393	368.2893	402.9201	475.4654	607.2532	627.1541	643.7632	751.0491	772.1822	811.8798	895.2358	918.3443	963.1067	976.403	1015.9826	1047.5778	1070.6053	1095.91	1115.1645	1156.5464	1171.3647	1181.6829	1185.466	1224.7584	1259.3016	1284.9845	1296.4938	1361.5764	1431.9561	1451.1143	1455.9638	1512.8156	1556.0299	1839.5625	2857.3267	3009.1698	3035.7659	3057.1911	3071.0507	3123.5546	3128.963	3148.653	3806.7606
OC12CN(C1)C2CC=O	O[C@@]12CN(C1)[C@H]2CC=O	
InChI=1S/C6H9NO2/c8-2-1-5-6(9)3-7(5)4-6/h2,5,9H,1,3-4H2	InChI=1S/C6H9NO2/c8-2-1-5-6(9)3-7(5)4-6/h2,5,9H,1,3-4H2/t5-/m0/s1
