21
gdb 105693	2.85833	0.84875	0.72761	3.2048	80.52	-0.2458	-0.0179	0.228	1595.1746	0.179313	-424.211456	-424.201214	-424.20027	-424.247776	36.445	
C	-1.4228735109	 0.0730471877	-0.1552330973	-0.250654
O	-0.0117019196	 0.0430499859	-0.0447723702	-0.2836
C	 0.640387065	-0.692067294	-1.0472436281	 0.455273
C	 0.684291906	-0.0164322245	-2.4063990324	-0.285226
C	 1.3844805012	 1.3543790779	-2.3462142469	-0.265037
C	 1.2326759383	 2.1256260036	-3.6334397172	 0.156137
O	 2.1389925672	 2.5620905749	-4.2953123284	-0.239305
C	 1.836032594	-1.451393389	-0.5577020358	-0.311362
C	 0.5735194968	-2.1962326829	-0.9487181039	-0.336423
H	-1.7633442355	 0.6277538789	-1.0410011097	 0.106984
H	-1.847089323	-0.9394700862	-0.1965228286	 0.110844
H	-1.7976178734	 0.5812640897	 0.7362547246	 0.129835
H	 1.2030429543	-0.6714578914	-3.1145041766	 0.112874
H	-0.3355654107	 0.1065653222	-2.7944683135	 0.102722
H	 0.9170882343	 1.9398375571	-1.5424447078	 0.133636
H	 2.4482645155	 1.2515881964	-2.1160999046	 0.122441
H	 0.1723493141	 2.2710336794	-3.954015219	 0.064542
H	 2.7036999536	-1.5233201664	-1.2046047384	 0.115104
H	 2.057687592	-1.3741296463	 0.5000657521	 0.126498
H	-0.0203233746	-2.6134645544	-0.1432839391	 0.12038
H	 0.5741825856	-2.7816960385	-1.8618885791	 0.114338
49.1458	69.7071	90.4812	131.5052	154.9092	208.853	264.9275	280.579	337.7053	361.9373	441.629	507.0681	571.9446	724.3558	767.3889	779.3281	847.6667	897.8642	913.5109	963.1012	976.959	1004.4175	1049.1111	1075.956	1080.6038	1102.8788	1108.9825	1180.5222	1181.5088	1190.2342	1220.8036	1263.3769	1272.6413	1299.7143	1355.3839	1380.2742	1432.6259	1452.7543	1464.1755	1475.042	1482.9018	1498.1337	1500.7217	1509.5866	1835.6696	2837.7105	2993.1877	3022.4725	3028.4004	3046.8371	3071.8488	3107.4798	3118.7172	3133.5848	3138.8314	3218.0938	3233.5013
COC1(CCC=O)CC1	COC1(CCC=O)CC1	
InChI=1S/C7H12O2/c1-9-7(4-5-7)3-2-6-8/h6H,2-5H2,1H3	InChI=1S/C7H12O2/c1-9-7(4-5-7)3-2-6-8/h6H,2-5H2,1H3
