17
gdb 74129	1.89002	1.81194	0.93208	7.1271	80.68	-0.2037	-0.002	0.2017	1217.4899	0.137546	-418.077371	-418.068875	-418.067931	-418.110176	32.503	
C	 0.0514692379	 1.5553694692	 0.0625020794	-0.49396
C	-0.0359521435	 0.0650153873	-0.090978736	 0.40665
C	 0.0880491202	-0.603722683	-1.2586051233	-0.342626
C	 0.0068230108	-2.0687163401	-1.3414667947	 0.40871
O	 0.1187732706	-2.679951552	-2.4016144359	-0.414489
C	-0.2394388614	-2.7201488812	-0.0599508707	-0.352269
H	-0.3467939507	-3.7984407954	-0.0493352698	 0.090901
C	-0.3536413627	-2.0115216724	 1.0938170698	 0.430042
N	-0.5048161456	-2.5580116993	 2.3710715525	-0.589227
H	-0.6358521249	-3.5599944215	 2.3440536931	 0.261475
H	-1.2438093965	-2.1276683773	 2.9152142434	 0.249456
N	-0.2677368187	-0.6386107005	 1.0773551041	-0.42985
H	 0.8599455673	 1.8383644513	 0.7481967692	 0.13413
H	 0.2465942788	 2.0252608742	-0.901990425	 0.150879
H	-0.8807173306	 1.9698018237	 0.464808921	 0.136428
H	 0.2529527765	-0.0603848008	-2.1811042714	 0.101009
H	-0.1817231375	-0.1601091022	 1.9599992844	 0.252741
127.7164	169.5437	173.8683	219.1946	282.2063	288.6438	344.6788	449.784	504.1289	516.1402	539.5726	556.5292	609.0941	628.6393	728.6357	752.7402	851.117	879.8728	928.8702	974.3388	1012.9414	1063.8144	1065.4558	1139.7634	1182.4477	1243.3493	1263.8834	1361.2587	1410.6377	1421.5446	1480.1759	1485.2764	1536.2465	1639.9238	1665.0673	1699.7744	1726.7884	3024.1377	3074.3644	3144.8102	3200.0045	3208.0048	3530.1026	3634.8481	3635.5835
CC1=CC(=O)[CH-]C(=[NH2+])N1	Cc1cc(=O)cc(N)[nH]1	
InChI=1S/C6H7N2O/c1-4-2-5(9)3-6(7)8-4/h2-3H,1H3,(H2,7,8)/q-1/p+1	InChI=1S/C6H8N2O/c1-4-2-5(9)3-6(7)8-4/h2-3H,1H3,(H3,7,8,9)
