15
gdb 101963	1.77518	1.58012	1.23399	2.5895	72.9	-0.2507	-0.0623	0.1885	1107.8812	0.108737	-416.760872	-416.750998	-416.750053	-416.795666	34.378	
C	-0.1911394733	 1.5218479918	 0.0520572006	-0.34621
N	-0.0398255268	 0.0629067283	 0.0119806695	-0.301411
C	 0.6330741197	-0.4626993681	-1.1656486731	-0.166077
C	 2.1631073274	-0.072501441	-1.2603524843	 0.149621
O	 2.7495413023	 0.3723817142	-0.3181527838	-0.229964
C	 0.6508234199	-1.9307177301	-1.1483457763	 0.303135
C	 0.760161062	-3.1259211976	-1.1141058451	-0.385648
C	-0.0157001011	 0.013034012	-2.4041940524	 0.302219
N	-0.4581187098	 0.4093352127	-3.3946320182	-0.326501
H	 0.7522490515	 2.0784489421	-0.025962523	 0.126294
H	-0.8567331457	 1.8406293429	-0.7548531504	 0.153141
H	-0.6690118224	 1.7810154334	 0.9995297395	 0.134263
H	 0.487993353	-0.2535414304	 0.8192297949	 0.243491
H	 2.6398440159	-0.2846433577	-2.2380646054	 0.124775
H	 0.8215283176	-4.1867940526	-1.0867871424	 0.21887
92.9056	106.5113	121.6171	154.839	162.5319	192.3089	232.2345	276.0608	361.2082	450.9122	489.7662	518.4287	557.8681	568.0433	659.0109	685.7424	731.5058	775.3887	938.3722	947.121	1040.2747	1090.4467	1157.0414	1179.2124	1242.57	1383.732	1456.5593	1489.6502	1491.7056	1523.7267	1844.5127	2238.2215	2361.9492	2939.2099	3015.1527	3094.896	3128.2883	3496.4076	3534.1808
CNC(C=O)(C#C)C#N	CN[C@@](C=O)(C#C)C#N	
InChI=1S/C6H6N2O/c1-3-6(4-7,5-9)8-2/h1,5,8H,2H3	InChI=1S/C6H6N2O/c1-3-6(4-7,5-9)8-2/h1,5,8H,2H3/t6-/m0/s1
