20
gdb 115860	3.39446	1.19357	1.14395	0.753	75.44	-0.2271	0.0921	0.3192	1184.6875	0.170988	-440.250043	-440.241252	-440.240308	-440.28351	32.618	
C	 0.6471242851	 1.0997906479	 0.844147108	-0.244838
O	 0.3556565379	-0.2773102382	 0.6864696817	-0.245565
C	-0.9842493145	-0.5994229385	 0.9385327525	 0.207103
O	-1.8783332328	-0.0519601008	-0.0157362182	-0.263332
C	-2.0740434286	-0.9883704215	-1.0818827523	-0.124493
C	-1.7861961428	-2.35587782	-0.4932970771	-0.045561
C	-1.0970476626	-2.1077507775	 0.810186592	-0.082136
N	-2.4079907886	-2.7278875933	 0.7653813631	-0.102504
C	-3.6163865125	-2.0872263094	 1.274614924	-0.329253
H	 1.7110062048	 1.2273385285	 0.6335576292	 0.126986
H	 0.0618806231	 1.7159550581	 0.1515653169	 0.125983
H	 0.4433547929	 1.4360659417	 1.872226313	 0.106071
H	-1.2951343924	-0.1839308238	 1.9094513659	 0.073961
H	-3.1018776668	-0.8599780658	-1.438246744	 0.110869
H	-1.3891267004	-0.7897206732	-1.9178522962	 0.11052
H	-1.5186044325	-3.1655595796	-1.1663625143	 0.097102
H	-0.2723003167	-2.7009519401	 1.1919125632	 0.103546
H	-3.6964410381	-1.0122130243	 1.0734222135	 0.130758
H	-4.4817147362	-2.5925434333	 0.834192358	 0.12166
H	-3.6583694381	-2.2451798267	 2.3569952412	 0.123124
93.0382	131.121	167.9261	185.0255	218.3996	230.614	286.4201	366.0686	457.9499	479.8239	589.5094	726.0603	752.3172	795.6676	845.7992	922.6432	954.986	982.0649	1003.5041	1027.08	1038.7578	1080.1764	1112.3209	1127.5917	1143.1683	1167.7056	1180.8047	1184.6983	1216.1059	1234.6013	1292.0333	1308.6928	1342.1449	1375.4911	1389.5855	1417.8545	1460.3686	1477.3886	1484.9153	1493.7429	1510.2505	1513.2202	1519.7071	2987.5082	2993.8698	3010.6314	3019.0737	3063.6246	3067.3388	3085.4305	3100.7955	3125.7637	3147.8884	3165.7215
COC1OCC2C1N2C	CO[C@H]1OC[C@H]2[C@@H]1N2C	
InChI=1S/C6H11NO2/c1-7-4-3-9-6(8-2)5(4)7/h4-6H,3H2,1-2H3	InChI=1S/C6H11NO2/c1-7-4-3-9-6(8-2)5(4)7/h4-6H,3H2,1-2H3/t4-,5-,6-,7?/m0/s1
