18
gdb 114720	2.60332	1.51605	1.20213	2.7485	72.51	-0.222	-0.0297	0.1923	1087.8234	0.147782	-439.06706	-439.058673	-439.057729	-439.100462	31.03	
C	 0.3429629567	 0.893189737	 0.4878908659	-0.241311
O	-0.0528659466	-0.3967830794	 0.0585909991	-0.237444
C	-1.4390720205	-0.5228832544	-0.1871749583	 0.012308
C	-1.7249600161	-1.8539232814	-0.9128285502	-0.246175
C	-2.3222643904	-2.7863686044	 0.1349597848	-0.044201
N	-1.4601032622	-2.9304272457	 1.3080304854	-0.313828
C	-2.645476193	-2.0200545289	 1.3726776835	-0.164832
C	-2.2473250717	-0.5934010649	 1.1415910105	 0.440828
O	-2.5396287241	 0.3549982145	 1.8269850883	-0.331488
H	 1.4301424815	 0.866796268	 0.5917014293	 0.125794
H	 0.070207136	 1.6599559067	-0.254296312	 0.102663
H	-0.1074552473	 1.1687840799	 1.4486083121	 0.134434
H	-1.7988336411	 0.3454917463	-0.7601951657	 0.083014
H	-2.4457725437	-1.6977167265	-1.7213689164	 0.107352
H	-0.8029625579	-2.2534502212	-1.3419143764	 0.129167
H	-2.943795522	-3.6199131644	-0.1759234015	 0.096796
H	-1.7050358905	-3.7805655814	 1.8120333733	 0.24108
H	-3.4667870572	-2.2496761299	 2.0409483183	 0.105842
62.3241	111.0568	173.3484	193.6602	238.519	327.1884	372.1138	413.1286	460.9763	570.1676	675.9254	708.2405	798.6618	841.8925	870.7605	880.8269	912.2004	943.2858	1020.3477	1032.9547	1077.4589	1116.9481	1140.4719	1150.0325	1185.0455	1186.3018	1207.3972	1232.6827	1259.2635	1271.926	1334.0121	1362.3506	1372.9137	1411.8904	1470.2798	1475.813	1487.0806	1513.56	1835.0058	2981.5771	2985.8471	3060.0998	3061.8025	3114.2242	3121.5774	3164.2072	3191.4559	3490.0336
COC1CC2NC2C1=O	CO[C@H]1C[C@H]2N[C@H]2C1=O	
InChI=1S/C6H9NO2/c1-9-4-2-3-5(7-3)6(4)8/h3-5,7H,2H2,1H3	InChI=1S/C6H9NO2/c1-9-4-2-3-5(7-3)6(4)8/h3-5,7H,2H2,1H3/t3-,4+,5-/m1/s1
