16
gdb 14199	3.62291	2.3249	2.10474	2.5561	62.78	-0.2375	0.0698	0.3072	717.1154	0.131938	-383.691659	-383.685621	-383.684677	-383.721383	25.143	
O	-0.1169158962	 1.3710840647	 0.0612350749	-0.488382
C	-0.0040104223	-0.011505702	-0.0105337824	 0.371566
C	 0.3751460399	-0.7764704972	-1.3146915131	-0.316806
C	-0.4310542793	-1.9191711167	-0.6773304797	-0.075642
C	-0.0064927226	-2.0820737982	 0.8410297212	 0.07183
C	 0.8050679411	-0.7914678356	 1.0537825827	-0.280715
O	-1.3332157448	-1.6521796567	 1.2769038154	-0.293283
C	-1.3296099983	-0.9035675894	 0.056934577	 0.071943
H	 0.7655509852	 1.7526070872	 0.1193710521	 0.281788
H	-0.1466048735	-0.3752880162	-2.1881706458	 0.107354
H	 1.4359607586	-0.9189145125	-1.5417629952	 0.090821
H	-0.8072675222	-2.7899166537	-1.2083165099	 0.082181
H	 0.3216628121	-3.0214181682	 1.2839865182	 0.082281
H	 1.868804731	-0.8676203232	 0.8091242044	 0.090538
H	 0.6716012108	-0.4150720675	 2.0698707624	 0.112667
H	-2.2830414594	-0.491197895	-0.2683821223	 0.091858
204.8715	279.9931	336.7916	431.7771	472.8117	542.3001	623.2939	670.8407	743.4027	806.7087	826.1507	849.0302	890.8306	906.6216	932.0641	964.6848	987.8641	1024.524	1033.3699	1060.4993	1094.0483	1119.9558	1160.1174	1186.439	1192.34	1219.4682	1224.83	1264.5045	1282.4724	1325.1556	1331.9898	1377.3061	1474.0212	1502.9903	3048.1097	3058.0865	3108.3656	3124.9067	3128.8972	3141.2445	3154.6411	3805.5548
OC12CC3C(C1)OC23	O[C@@]12C[C@H]3[C@@H](C1)O[C@@H]23	
InChI=1S/C6H8O2/c7-6-1-3-4(2-6)8-5(3)6/h3-5,7H,1-2H2	InChI=1S/C6H8O2/c7-6-1-3-4(2-6)8-5(3)6/h3-5,7H,1-2H2/t3-,4+,5+,6-/m0/s1
