22
gdb 81967	2.36501	1.62755	1.21201	2.2637	80.29	-0.2345	0.0687	0.3032	1122.8575	0.195721	-404.337296	-404.328431	-404.327487	-404.370342	35.233	
C	 0.1023474502	 1.6119686328	-0.1066782501	-0.404894
C	 0.0807433508	 0.0839833444	-0.0237611731	 0.025619
C	 0.7665864435	-0.6079637637	-1.192460893	-0.038743
N	 2.2452212073	-0.6612401415	-1.0784114932	-0.351065
C	 1.4188067089	-1.8448969485	-0.727153617	-0.08309
C	 1.2508023197	-1.9658842091	 0.7764463961	 0.144386
O	 2.4182998013	-2.4263191832	 1.4310310923	-0.436441
C	 0.7289967352	-0.5562712221	 1.25033481	-0.061983
C	 1.819950039	 0.2856164168	 1.9243821089	-0.411058
H	 1.1262956693	 1.9926856583	-0.1454373168	 0.130034
H	-0.4156264347	 1.9530775734	-1.0100001079	 0.104508
H	-0.3995549979	 2.0690848757	 0.7522374567	 0.112928
H	-0.9689431366	-0.2401741012	-0.0588881123	 0.071862
H	 0.3326496914	-0.5322664162	-2.1855973404	 0.081388
H	 2.6426848577	-0.7990602354	-2.0042321448	 0.231556
H	 1.4956556405	-2.7397155863	-1.3362977301	 0.08564
H	 0.4890635488	-2.7250782301	 0.9870413812	 0.08353
H	 3.1396277427	-1.8666516483	 1.1196740593	 0.287409
H	-0.0564391952	-0.7163945958	 1.9965139607	 0.070244
H	 2.622889644	 0.5428412393	 1.2294693227	 0.132184
H	 1.4027892928	 1.2160543052	 2.3203269186	 0.105733
H	 2.2508259012	-0.2691128944	 2.7620592924	 0.120253
76.5759	159.4037	247.9789	250.4571	256.4899	269.0763	307.25	414.9086	438.4191	451.2422	495.436	586.5545	609.9265	736.6936	761.1185	781.4986	869.2032	871.9283	910.6399	920.8844	976.2487	1004.1056	1040.2837	1062.7759	1072.0561	1092.0237	1108.176	1131.3348	1143.0753	1156.0856	1196.3467	1261.4352	1267.9447	1293.0093	1321.574	1334.8687	1349.2324	1373.8086	1381.5616	1398.5478	1407.9381	1436.3461	1444.3888	1487.5403	1497.6581	1506.0603	1524.0149	3000.3554	3032.5629	3035.1174	3046.761	3053.646	3092.801	3112.6313	3117.8397	3128.9273	3146.9876	3165.9519	3501.3449	3792.6413
CC1C2NC2C(O)C1C	C[C@H]1[C@H]2N[C@H]2[C@@H](O)[C@H]1C	
InChI=1S/C7H13NO/c1-3-4(2)7(9)6-5(3)8-6/h3-9H,1-2H3	InChI=1S/C7H13NO/c1-3-4(2)7(9)6-5(3)8-6/h3-9H,1-2H3/t3-,4+,5-,6-,7+/m1/s1
