13
gdb 127711	3.28596	1.51632	1.04439	6.701	64.68	-0.249	-0.0762	0.1728	1046.7098	0.089138	-486.068126	-486.06033	-486.059386	-486.101573	27.649	
C	-0.034312888	 1.4814869691	 0.0254042412	-0.328932
N	-0.0076494723	 0.0261891071	 0.070174762	-0.083965
N	-0.0465120271	-0.6202117802	-1.1548806019	-0.03591
N	-0.0276993031	-1.8652587342	-1.1944787706	-0.202708
C	 0.0349941855	-2.6699667751	 0.0278627978	 0.421679
O	 0.0511650188	-3.8652486901	-0.0830931955	-0.320896
N	 0.0717398674	-1.9963349543	 1.2419174894	-0.418461
C	 0.049065472	-0.7092627819	 1.2056669414	 0.546168
O	 0.0809973353	 0.0160057647	 2.3254551198	-0.389746
H	 0.8642685126	 1.8965156386	 0.4876885913	 0.159812
H	-0.0736727933	 1.7582549917	-1.0280177199	 0.17068
H	-0.9144694887	 1.8663333713	 0.5458315803	 0.159661
H	 0.1203586508	-0.6220317767	 3.0555928946	 0.322617
29.5909	130.14	192.1544	200.8169	307.5759	386.6943	466.3207	514.165	571.7882	575.4605	586.4546	704.0739	752.1087	803.6282	817.6799	909.9064	955.5749	1150.7487	1156.2835	1236.4682	1254.5928	1293.4567	1440.3177	1482.777	1503.3196	1508.8339	1574.1416	1688.4338	1840.9623	3058.9459	3130.3944	3167.2388	3735.8631
CN1N=NC(=O)N=C1O	Cn1nnc(=O)nc1O	
InChI=1S/C3H4N4O2/c1-7-3(9)4-2(8)5-6-7/h1H3,(H,4,8,9)	InChI=1S/C3H4N4O2/c1-7-3(9)4-2(8)5-6-7/h1H3,(H,4,8,9)
