15
gdb 39733	3.47643	1.71192	1.68134	2.2648	62.3	-0.2415	0.0798	0.3213	846.1746	0.114122	-457.710342	-457.704349	-457.703405	-457.740608	24.761	
C	 0.0332293607	 1.5025868658	 0.0011220405	-0.276821
O	 1.1942309287	 0.6481823519	-0.0063592735	-0.285525
C	-0.0849911835	 0.050631652	 0.0313888394	 0.561321
C	-0.533311403	-0.8477865881	 1.1511820474	-0.315724
C	-1.7498067353	-1.5449328081	 0.5456827083	 0.047043
O	-1.9368679874	-1.0514628979	-0.7750380715	-0.248646
C	-0.5644408691	-0.8600450115	-1.1075061416	 0.003462
O	 0.0635001255	-2.0963301522	-0.7989567489	-0.241664
C	-0.416623561	-2.240040464	 0.5281760908	 0.04719
H	-0.1171784543	 2.0757806093	 0.9142924038	 0.121808
H	-0.150093015	 2.0463648379	-0.9245125392	 0.121953
H	-0.4054414188	-0.6314068015	 2.2009724384	 0.109473
H	-2.6491131582	-1.8482462795	 1.0595957864	 0.122582
H	-0.4226828716	-0.5760615845	-2.1455145395	 0.110252
H	-0.1384054279	-3.1545946595	 1.0287013892	 0.123297
155.6938	273.3315	316.0942	469.1204	584.5736	609.9999	619.1836	732.7369	778.0767	791.8614	807.0851	882.4384	889.1643	902.9412	927.1396	975.2558	990.4875	1013.2187	1022.4444	1037.1854	1041.6877	1083.8205	1099.9152	1118.5339	1162.3163	1190.7927	1228.3134	1251.7195	1258.4136	1328.0372	1367.6224	1461.2534	1548.3214	3086.5956	3173.6715	3192.0813	3234.703	3238.3776	3249.3666
C1OC11C2C3OC1OC23	C1O[C@]21[C@H]1[C@H]3O[C@@H]2O[C@@H]13	
InChI=1S/C6H6O3/c1-6(7-1)2-3-4(2)9-5(6)8-3/h2-5H,1H2	InChI=1S/C6H6O3/c1-6(7-1)2-3-4(2)9-5(6)8-3/h2-5H,1H2/t2-,3+,4-,5+,6-/m1/s1
