19
gdb 120612	3.2161	0.89904	0.87944	3.2678	74.96	-0.2426	-0.0231	0.2195	1431.1827	0.155504	-460.148155	-460.138247	-460.137303	-460.18343	35.665	
C	 0.1769522401	 1.2844803687	-0.0448135241	-0.390085
C	 0.4126691847	-0.2128982822	-0.1106450122	-0.054927
O	 0.3332358293	-0.6209101955	-1.4816314566	-0.25858
C	 0.5273544837	-1.9841089754	-1.6562053675	 0.064708
C	 0.781698978	-2.4620772238	-3.040186098	-0.373331
C	 1.9582236313	-2.3793616804	-2.0751453943	 0.287384
O	 2.8860944446	-1.3511113277	-2.2032670338	-0.479765
C	 2.506214213	-3.6271924737	-1.5047686888	 0.105902
O	 1.8783939903	-4.6580175289	-1.4149043206	-0.281178
H	 0.9422618809	 1.826421463	-0.6081742076	 0.127437
H	-0.8010248199	 1.5379863671	-0.4627761711	 0.135717
H	 0.2103803698	 1.6243309769	 0.9942654388	 0.126165
H	 1.3970845562	-0.4804899823	 0.2993881222	 0.108046
H	-0.3471450239	-0.7549744239	 0.4706955601	 0.109076
H	 0.0085057671	-2.6363076025	-0.9558582325	 0.116017
H	 0.4323351133	-3.4559439651	-3.2965052414	 0.145882
H	 0.7773684447	-1.7218219321	-3.8324614702	 0.132525
H	 2.3966405252	-0.5253044118	-2.0822391619	 0.291252
H	 3.5507282718	-3.5313304404	-1.1384636306	 0.087752
67.3844	87.0096	93.916	162.326	214.7325	234.1368	266.0141	278.7182	373.9452	420.1187	440.5086	463.1586	546.5846	667.5077	740.7943	755.5026	822.0399	837.4029	930.2579	937.331	1032.4818	1053.921	1062.1177	1075.1365	1115.578	1152.8381	1186.6993	1194.8755	1210.321	1282.6897	1297.8721	1350.9679	1387.1107	1406.4881	1426.4995	1436.0749	1462.135	1483.8233	1499.1455	1527.3123	1801.1946	2910.0653	2994.5306	3029.9354	3047.2095	3120.3277	3126.3408	3127.093	3137.993	3240.1622	3740.174
CCOC1CC1(O)C=O	CCO[C@H]1C[C@]1(O)C=O	
InChI=1S/C6H10O3/c1-2-9-5-3-6(5,8)4-7/h4-5,8H,2-3H2,1H3	InChI=1S/C6H10O3/c1-2-9-5-3-6(5,8)4-7/h4-5,8H,2-3H2,1H3/t5-,6-/m0/s1
