13
gdb 24913	5.03033	1.36458	1.08062	1.9979	64.94	-0.2277	-0.0226	0.2051	1012.7878	0.09173	-452.765965	-452.759595	-452.758651	-452.79697	24.302	
N	-0.0499917688	 1.2064341201	 0.0072124655	-0.511705
C	-0.0277631585	-0.0466230689	 0.0006805401	 0.396985
C	-1.2818551559	-0.9628389192	 0.0027924425	-0.447014
C	-0.5846377432	-2.272352947	-0.007720855	 0.222421
C	 0.7436194987	-2.1099882915	-0.014136761	 0.35707
O	 1.1599083603	-0.806029622	-0.0097313732	-0.253908
N	 1.4103033413	-3.3014396513	-0.0239210937	-0.348306
C	 0.4218448449	-4.153918394	-0.0226960151	 0.044789
O	-0.8322425292	-3.6124209018	-0.0132872705	-0.186898
H	 0.8937466889	 1.5959285907	 0.0040540308	 0.24117
H	-1.8892292686	-0.7566912426	 0.890448065	 0.162101
H	-1.8988285633	-0.7476241851	-0.8760474591	 0.162104
H	 0.4763337235	-5.2301371273	-0.0284591663	 0.161192
109.4351	172.1412	332.1721	347.3183	529.6417	544.2167	553.145	637.9328	731.063	734.9782	790.2241	794.6973	842.5213	897.3216	948.3128	975.5706	983.2576	1090.0866	1136.8738	1144.8045	1223.6583	1248.7425	1298.3459	1377.7741	1437.8381	1470.538	1505.8521	1696.7257	1803.3332	3047.6445	3080.2686	3291.1256	3487.4606
N=C1CC2=C(O1)N=CO2	[NH][C]1Cc2c(O1)nco2	
InChI=1S/C5H4N2O2/c6-4-1-3-5(9-4)7-2-8-3/h2,6H,1H2	InChI=1S/C5H4N2O2/c6-4-1-3-5(9-4)7-2-8-3/h2,6H,1H2
