17
gdb 30367	3.20319	1.57696	1.19051	2.7252	73.99	-0.2235	0.0238	0.2473	1025.0798	0.139931	-418.049259	-418.042014	-418.04107	-418.080999	27.966	
O	-0.6448763455	 1.3879071046	-0.4610045391	-0.435548
C	-0.0391791279	 0.1557752106	-0.0553637823	-0.024506
C	-1.1817743148	-0.8567321396	 0.1991470463	-0.223312
C	-1.419675646	-1.5508192152	-1.1651549899	-0.184626
N	-0.1014351804	-1.4374386703	-1.7803534769	-0.009182
C	 0.5899828886	-1.9628740134	-2.8228751437	-0.014467
N	 1.7964811576	-1.4325044526	-2.9119561609	-0.273486
C	 1.8822827918	-0.5208528847	-1.8837821641	-0.237131
C	 0.7096414909	-0.5088883208	-1.1694792595	 0.291441
H	 0.004778805	 1.8732733817	-0.9796149955	 0.284102
H	 0.5716128886	 0.3151820832	 0.842050986	 0.08305
H	-0.8541905088	-1.5956229858	 0.9358968064	 0.117612
H	-2.0725284894	-0.3541595722	 0.5793935333	 0.125157
H	-1.725093633	-2.5952750651	-1.0673548801	 0.126873
H	-2.1674176811	-1.0226170359	-1.7655527772	 0.136118
H	 0.1872640799	-2.7253755374	-3.4724712958	 0.129584
H	 2.7815468145	 0.0535371026	-1.7198092072	 0.108321
124.7308	145.9131	213.8647	248.6795	359.4071	433.7902	449.7917	624.561	669.8761	695.1414	732.0665	796.6918	810.5953	841.4702	853.6336	921.9751	954.3099	984.5236	1000.3554	1107.2156	1126.4453	1136.2678	1196.9656	1220.6735	1246.7339	1251.4906	1282.4322	1325.3608	1341.2885	1351.1865	1376.9633	1390.7382	1420.1401	1476.8866	1495.809	1526.142	1584.8506	3023.3804	3052.6924	3070.7201	3104.1643	3133.5388	3245.3895	3252.2704	3821.4522
OC1CCN2C=NC=C12	O[C@H]1CCn2cncc12	
InChI=1S/C6H8N2O/c9-6-1-2-8-4-7-3-5(6)8/h3-4,6,9H,1-2H2	InChI=1S/C6H8N2O/c9-6-1-2-8-4-7-3-5(6)8/h3-4,6,9H,1-2H2/t6-/m0/s1
