18
gdb 36784	2.9869	0.98132	0.84301	2.488	71.77	-0.2498	0.0039	0.2538	1384.3157	0.146919	-439.055976	-439.046739	-439.045795	-439.092337	31.677	
N	 1.6601658868	-0.0830163253	-0.7939895378	-0.308918
C	 0.8649466127	 0.6704426735	-0.4263102669	 0.265617
C	-0.1549833553	 1.6366004812	 0.0320517611	-0.197156
O	 0.2026164307	 2.9778515034	-0.1723784392	-0.227047
C	 1.0210098378	 3.5704988395	 0.8333207144	-0.102695
C	 2.5062070047	 3.2589146375	 0.677814718	 0.129199
C	 3.2261219309	 3.864468835	-0.5443211381	-0.28561
C	 4.0441976821	 4.6417534819	 0.5075352063	-0.063
O	 3.2769594018	 4.0697089554	 1.593943468	-0.295786
H	-1.0696077441	 1.4568641627	-0.5430600691	 0.163035
H	-0.3792258291	 1.4286324725	 1.0890306737	 0.14373
H	 0.8733346423	 4.6500868277	 0.7330890661	 0.118997
H	 0.6785010324	 3.2736303624	 1.8362255832	 0.105653
H	 2.7036716056	 2.1917455767	 0.8342560477	 0.096769
H	 3.7845935195	 3.1584863243	-1.1587717677	 0.125313
H	 2.5890613816	 4.4750975713	-1.1867639549	 0.117084
H	 5.1037899295	 4.3681962177	 0.5751926239	 0.108516
H	 3.9610184702	 5.7343665425	 0.4822873013	 0.106297
24.4198	60.276	74.122	103.8582	185.7979	253.8965	340.5351	371.8624	430.0623	465.7298	590.5303	766.8304	798.4594	877.8866	892.9973	927.4916	943.7139	959.4514	1011.7433	1032.1639	1039.44	1109.5738	1145.2188	1155.2427	1178.3286	1214.3156	1255.8391	1273.5026	1288.1	1320.2401	1349.8748	1379.0945	1397.2641	1418.4653	1463.3507	1486.844	1497.3471	1532.0075	2355.5934	2996.5167	3001.4582	3022.2934	3036.9055	3063.8217	3077.4408	3085.9297	3090.0883	3144.0039
N#CCOCC1CCO1	N#CCOC[C@H]1CCO1	
InChI=1S/C6H9NO2/c7-2-4-8-5-6-1-3-9-6/h6H,1,3-5H2	InChI=1S/C6H9NO2/c7-2-4-8-5-6-1-3-9-6/h6H,1,3-5H2/t6-/m1/s1
