22
gdb 117949	2.04268	1.13498	0.79618	2.8611	81.57	-0.2459	0.023	0.2689	1533.3595	0.191188	-441.483823	-441.472701	-441.471757	-441.521212	38.904	
C	-0.294188786	 1.4051485157	-0.2027091231	-0.381335
C	-0.4860637075	-0.0516545321	-0.5911344266	-0.038382
O	-1.2868630522	-0.6666521631	 0.405739829	-0.263061
C	-1.4456297239	-2.0775821319	 0.3032745046	 0.064724
C	-1.5135516509	-2.6446054131	 1.7129583428	-0.387087
C	-2.6936255744	-2.3953419692	-0.5154317118	 0.414498
N	-3.7401618203	-2.8807203963	 0.0058801992	-0.528229
O	-2.4814597441	-2.0604822054	-1.8198387679	-0.228451
C	-3.564304753	-2.2137146008	-2.7252389641	-0.268182
H	 0.3247756655	 1.9178300621	-0.9454357913	 0.111231
H	-1.2591707164	 1.9167854326	-0.143326087	 0.125514
H	 0.1937938186	 1.4833791809	 0.7729721359	 0.123949
H	-0.9615790293	-0.1307790367	-1.577372971	 0.098719
H	 0.4881242435	-0.5646902145	-0.656347314	 0.082497
H	-0.5840906025	-2.5029744411	-0.2345331088	 0.078585
H	-0.5935255546	-2.3929875292	 2.2466479962	 0.109514
H	-2.3659123685	-2.2211614974	 2.2470494349	 0.142283
H	-1.6332183089	-3.7300928021	 1.6900431684	 0.120671
H	-4.4969444071	-3.0173492122	-0.6624712257	 0.216218
H	-3.878714921	-3.2621208229	-2.7978999938	 0.130901
H	-4.4232667246	-1.5993876515	-2.4296091628	 0.134075
H	-3.1979765923	-1.8802458717	-3.696790013	 0.141348
33.614	57.9435	92.4	128.6138	188.1549	213.0527	223.7325	234.287	247.9471	304.4194	334.5941	377.201	426.6519	503.8484	616.7043	731.8047	817.3877	831.6458	852.7788	873.1055	950.6586	994.3544	1056.6254	1094.1295	1110.8516	1128.035	1143.7419	1174.8242	1180.5321	1189.9336	1218.0532	1280.407	1294.7233	1351.9495	1386.3882	1401.8173	1408.086	1435.0891	1471.8348	1480.3799	1482.8772	1488.8308	1492.5138	1501.7163	1506.0741	1532.2014	1736.1737	2964.8968	2985.9009	3015.084	3035.4745	3043.3944	3057.5502	3078.4269	3117.021	3120.7908	3133.047	3142.9875	3146.8072	3497.9033
CCOC(C)C(=N)OC	CCO[C@@H](C)[C]([NH])OC	
InChI=1S/C6H13NO2/c1-4-9-5(2)6(7)8-3/h5,7H,4H2,1-3H3	InChI=1S/C6H13NO2/c1-4-9-5(2)6(7)8-3/h5,7H,4H2,1-3H3/t5-/m0/s1
