16
gdb 14310	3.71682	1.86421	1.75793	2.019	59.97	-0.2331	0.0705	0.3036	818.5622	0.130029	-420.84707	-420.839863	-420.838919	-420.878425	27.511	
C	 0.2719567662	 1.5085870582	 0.0124203612	-0.409147
C	 0.1255871104	 0.0076750544	 0.0571029122	 0.221119
O	 0.6709515316	-0.585630992	-1.1112958494	-0.257881
C	 1.1038210333	-1.8703227764	-0.7352351468	 0.001326
C	 2.4579749921	-1.9414869668	-0.0361622532	 0.094352
O	 3.3337893015	-0.8714945615	-0.0268160714	-0.423075
C	 1.180060199	-1.8680034388	 0.7717387083	-0.034879
O	 0.8692468724	-0.5413577499	 1.1507815928	-0.285362
H	 1.3215312665	 1.7766321708	-0.1322051571	 0.133008
H	-0.311306409	 1.9111481384	-0.819274583	 0.137284
H	-0.0920695525	 1.9480988326	 0.944182732	 0.133568
H	-0.9294051408	-0.297957708	 0.1660448927	 0.078097
H	 0.7151419379	-2.6903769933	-1.3298687535	 0.105347
H	 2.9663792797	-2.9012286747	-0.0802688728	 0.107158
H	 2.9129995257	-0.1845548509	 0.5082475015	 0.294073
H	 0.818677486	-2.6441413119	 1.4378854466	 0.105011
91.5778	193.9662	224.7724	263.1495	323.2621	385.9144	509.2904	569.7022	655.8372	720.4436	747.7957	768.0268	779.8566	856.5964	879.9364	956.0008	1053.5982	1077.3027	1088.3734	1097.6257	1105.6617	1120.7246	1136.0608	1163.4189	1202.6736	1289.3279	1329.692	1358.8416	1372.8764	1395.6525	1432.2746	1444.6274	1481.6529	1488.5037	2956.829	3055.9728	3137.2097	3139.3939	3146.1859	3158.2211	3168.7889	3748.6232
CC1OC2C(O)C2O1	C[C@H]1O[C@H]2[C@@H](O)[C@H]2O1	
InChI=1S/C5H8O3/c1-2-7-4-3(6)5(4)8-2/h2-6H,1H3	InChI=1S/C5H8O3/c1-2-7-4-3(6)5(4)8-2/h2-6H,1H3/t2-,3+,4-,5+
