16
gdb 24125	5.0019	0.90473	0.86797	3.1466	70.85	-0.2391	0.0022	0.2413	1332.0337	0.125204	-437.890182	-437.882465	-437.88152	-437.924045	27.647	
C	-0.0413469521	 1.5211539865	 0.1401663739	-0.361016
C	-0.072317749	 0.0173384471	 0.3494155322	 0.103004
C	-1.2253327999	-0.7930045961	-0.056718843	-0.179892
O	-0.0202690487	-0.7881160147	-0.8258248137	-0.226848
C	 1.3308223525	 2.0515432404	-0.085585589	 0.346068
C	 1.9942916367	 2.5993921703	-1.1325150056	-0.187979
N	 3.2983155475	 2.9032487902	-0.7544867999	-0.254659
C	 3.3597587802	 2.5282352928	 0.4787765629	 0.072031
O	 2.2119595822	 2.0011545845	 0.9684659044	-0.182791
H	-0.6584844425	 1.7719440811	-0.7273053844	 0.12914
H	-0.487777721	 2.0088175648	 1.017051093	 0.126027
H	 0.5504664398	-0.3458969681	 1.1676619428	 0.106243
H	-1.4472117199	-1.7228862151	 0.4645966879	 0.119246
H	-2.0812945562	-0.3101309785	-0.5272723906	 0.11459
H	 1.63124811	 2.7959357712	-2.1286853973	 0.127249
H	 4.1958432002	 2.5826687737	 1.1580929266	 0.149587
43.9187	59.6358	113.1076	266.6797	322.7723	356.7971	448.1156	651.549	668.5303	749.3386	793.5803	833.9314	858.0512	861.0474	928.8508	940.5376	957.188	986.494	1089.7551	1096.4239	1124.4588	1132.2079	1159.3446	1167.5749	1210.6377	1239.5897	1273.3945	1293.1989	1328.4569	1359.4535	1439.3233	1452.9102	1529.8764	1552.4891	1641.1939	3024.3084	3082.2179	3094.9506	3113.3119	3169.2003	3266.5521	3277.4131
C(C1CO1)C1=CN=CO1	C([C@H]1CO1)c1cnco1	
InChI=1S/C6H7NO2/c1(6-3-8-6)5-2-7-4-9-5/h2,4,6H,1,3H2	InChI=1S/C6H7NO2/c1(6-3-8-6)5-2-7-4-9-5/h2,4,6H,1,3H2/t6-/m0/s1
