17
gdb 82147	3.24794	1.09465	0.94844	4.8956	70.	-0.2665	0.0039	0.2703	1246.1208	0.133977	-458.940524	-458.931977	-458.931032	-458.974684	30.651	
C	-0.093375638	 1.6344560133	-0.1851612209	-0.40175
C	-0.0210391703	 0.1213274053	-0.0547120865	-0.073379
C	 0.7084818214	-0.6522483036	-1.1685672543	 0.020685
O	 2.0489898785	-0.1621282448	-1.2028391074	-0.229721
C	 1.7327827898	-1.1668091205	-0.2382704741	-0.007345
C	 1.0427590399	-0.4882567765	 0.943128996	 0.101466
O	 1.8414117069	 0.4308883267	 1.6720828618	-0.182446
C	 1.800022559	 0.3921299284	 3.019429674	 0.17063
O	 2.4229006964	 1.1407986305	 3.7078741116	-0.270612
H	 0.886721119	 2.0433277016	-0.4373203576	 0.151303
H	-0.8048220352	 1.9190299136	-0.9671782367	 0.117161
H	-0.4230492263	 2.0929573012	 0.7521403576	 0.123069
H	-1.0057636999	-0.3089612487	 0.1534143813	 0.083273
H	 0.3102702248	-1.0950689121	-2.0734317461	 0.11302
H	 2.3233828274	-2.0752490345	-0.2504086156	 0.11381
H	 0.5858421441	-1.2165132618	 1.6230087981	 0.094184
H	 1.1340508225	-0.4060753781	 3.4042099287	 0.076652
45.2982	104.462	140.6492	205.9683	216.4611	242.3787	328.8419	437.1477	462.0536	614.6525	697.061	736.5191	832.3478	857.0253	859.8565	905.7423	933.7375	1009.8846	1023.6001	1042.7506	1048.0341	1071.4561	1129.3645	1145.3493	1183.2054	1201.9732	1238.6065	1249.262	1290.4094	1354.3387	1376.1844	1388.4848	1413.8914	1439.0784	1490.431	1501.7476	1870.6307	2936.8112	3039.5254	3043.4411	3063.9542	3105.9855	3141.1504	3186.7636	3202.3876
CC1C2OC2C1OC=O	C[C@H]1[C@H]2O[C@H]2[C@H]1OC=O	
InChI=1S/C6H8O3/c1-3-4(8-2-7)6-5(3)9-6/h2-6H,1H3	InChI=1S/C6H8O3/c1-3-4(8-2-7)6-5(3)9-6/h2-6H,1H3/t3-,4+,5-,6+/m1/s1
