17
gdb 20810	5.65542	1.22177	1.09365	2.1794	71.66	-0.1961	0.0354	0.2315	1113.231	0.144185	-360.073372	-360.065187	-360.064243	-360.106384	30.111	
C	-0.1996146806	 1.5405638351	 0.0523695344	-0.364833
C	 0.03214959	 0.0193824083	-0.0051090974	-0.302524
C	 0.8445237509	-0.5021275245	 1.1394060408	 0.404021
C	 2.1932813255	-0.7809288003	 1.2561468428	-0.379115
C	 2.3653878776	-1.2058471087	 2.5977480978	 0.374031
N	 3.5388778415	-1.6724976535	 3.194233181	-0.588911
N	 1.2196965241	-1.1906785653	 3.2716985384	-0.311309
N	 0.3089589042	-0.7635540418	 2.3563084433	-0.260786
H	 0.7528115984	 2.0784142276	 0.0419534675	 0.127395
H	-0.7933153316	 1.876333312	-0.803504528	 0.114949
H	-0.7307259939	 1.825087679	 0.9660411694	 0.117481
H	-0.93592729	-0.4968595881	-0.0340732518	 0.106727
H	 0.5431224935	-0.2379919276	-0.9380701706	 0.119596
H	 2.9397172164	-0.7066588166	 0.4813926858	 0.090279
H	 4.3550663203	-1.1325513666	 2.9395997978	 0.242168
H	 3.4461309509	-1.7137491651	 4.2014804806	 0.246877
H	-0.654245407	-0.6876252339	 2.6325924881	 0.263955
38.223	128.1825	199.4095	254.3611	287.4862	298.6718	364.5428	430.4726	471.1751	594.9154	680.0408	710.3376	746.0459	764.0421	784.5225	801.1173	960.0535	1001.2918	1048.0297	1061.7579	1082.4067	1098.2481	1184.2338	1206.7224	1266.3899	1332.8513	1354.5837	1408.877	1446.5067	1483.5398	1495.6184	1506.2609	1513.7019	1534.6184	1615.6876	1648.5168	3028.0034	3038.3185	3078.1994	3110.2613	3117.0676	3257.1555	3540.0277	3635.1154	3682.1583
CCC1=CC(N)=NN1	CCc1cc(N)n[nH]1	
InChI=1S/C5H9N3/c1-2-4-3-5(6)8-7-4/h3H,2H2,1H3,(H3,6,7,8)	InChI=1S/C5H9N3/c1-2-4-3-5(6)8-7-4/h3H,2H2,1H3,(H3,6,7,8)
