17
gdb 10754	2.89623	1.68967	1.46271	2.3861	64.48	-0.2494	-0.043	0.2063	936.4683	0.139534	-400.972731	-400.963867	-400.962923	-401.006284	31.798	
C	 0.0531826237	 1.5901800918	 0.2019378068	-0.398924
C	 0.0873867621	 0.0581874685	 0.1013129881	 0.218196
O	 0.8643029746	-0.3994806874	 1.2044775014	-0.46102
C	-1.3582990093	-0.4300892295	 0.2608158362	 0.110566
O	-2.1466005736	-0.5578175697	-0.6363438879	-0.240305
C	 0.660343619	-0.3877793086	-1.2436514867	 0.001834
C	 2.1023998599	-0.233943394	-1.5337852864	-0.250294
N	 1.5158703966	-1.5782326564	-1.3511575566	-0.329257
H	 1.0777722004	 1.9694308297	 0.2286585766	 0.137279
H	-0.4638445859	 2.0154270752	-0.661727065	 0.138869
H	-0.4576267159	 1.910487383	 1.1150928673	 0.126513
H	 0.6502072706	-1.32284728	 1.3791733696	 0.288379
H	-1.6337979414	-0.6343252904	 1.3235797915	 0.085534
H	-0.0581639052	-0.29209182	-2.0525744122	 0.115437
H	 2.4346685945	-0.0075390039	-2.5425922068	 0.120855
H	 2.7383572891	 0.1498647046	-0.7407680184	 0.120648
H	 1.7675355109	-1.892239203	-0.4157210176	 0.215692
69.9775	76.4893	178.6441	226.1014	238.4405	273.6191	297.1038	321.5792	379.7816	464.7072	527.3129	633.001	700.4347	854.7425	881.2426	906.5122	948.1383	980.4495	983.8722	1014.6114	1092.1934	1107.5249	1157.302	1168.5875	1193.8071	1239.375	1271.9757	1302.3412	1344.47	1388.1272	1396.6531	1410.7023	1480.3572	1491.4692	1505.8056	1839.5423	2848.1526	3044.8429	3112.9656	3119.9799	3136.502	3157.2888	3200.6426	3483.3362	3797.4902
CC(O)(C=O)C1CN1	C[C@@](O)(C=O)[C@H]1CN1	
InChI=1S/C5H9NO2/c1-5(8,3-7)4-2-6-4/h3-4,6,8H,2H2,1H3	InChI=1S/C5H9NO2/c1-5(8,3-7)4-2-6-4/h3-4,6,8H,2H2,1H3/t4-,5-/m1/s1
