18
gdb 32132	2.70711	1.42077	0.94268	0.593	83.68	-0.2223	-0.0137	0.2086	1239.8556	0.148487	-402.021819	-402.013279	-402.012335	-402.055256	31.404	
C	-0.1561269612	 1.3951895713	 0.0962112848	-0.228167
O	-0.0487621803	-0.0255775243	 0.0660571856	-0.264723
C	 0.6293128561	-0.6123087794	 1.0737771275	 0.447194
C	 0.7286926302	-2.0126596342	 1.0336831157	-0.231911
C	 1.419993824	-2.6260284644	 2.0588947317	-0.058508
C	 1.9827396045	-1.8482323118	 3.0759229225	-0.188544
C	 1.8281372881	-0.4684663483	 3.0241723724	 0.326839
C	 2.4028375902	 0.439706412	 4.0790055232	-0.464424
N	 1.1552257939	 0.1381599324	 2.0276031636	-0.415464
H	 0.8299210879	 1.8679416766	 0.0659284296	 0.131066
H	-0.7313716344	 1.662651998	-0.7915932509	 0.124219
H	-0.6722173574	 1.7346231206	 0.9990611511	 0.131066
H	 0.2725108714	-2.5629671729	 0.2207078923	 0.105612
H	 1.5256626817	-3.7061333585	 2.0746851922	 0.104601
H	 2.5297247423	-2.3073913859	 3.890854485	 0.090987
H	 2.9326805814	-0.1229246531	 4.8511829567	 0.117523
H	 3.0977138378	 1.1562386981	 3.6287277134	 0.136317
H	 1.6079682939	 1.0237963437	 4.5544474836	 0.136316
82.9818	113.8076	169.5489	205.4788	207.3102	248.2194	364.869	456.6303	471.0329	550.8012	611.6895	628.3559	727.2194	763.2915	815.1073	891.845	938.7533	994.8119	998.7456	1032.5054	1059.8032	1070.9668	1107.655	1173.5179	1179.0955	1213.0609	1258.336	1306.1854	1352.8949	1408.7077	1442.2755	1473.0829	1475.6817	1478.9144	1488.6353	1500.5268	1513.286	1621.7073	1638.0398	3038.6436	3039.4917	3096.854	3108.5129	3125.6879	3142.2322	3177.5193	3199.5699	3214.2416
COC1=CC=CC(C)=N1	COc1cccc(C)n1	
InChI=1S/C7H9NO/c1-6-4-3-5-7(8-6)9-2/h3-5H,1-2H3	InChI=1S/C7H9NO/c1-6-4-3-5-7(8-6)9-2/h3-5H,1-2H3
