22
gdb 117945	3.09453	0.83222	0.70019	4.436	80.61	-0.2447	0.0239	0.2686	1678.4509	0.192227	-441.516724	-441.505564	-441.50462	-441.55498	38.519	
C	 0.1002771074	 1.4943813441	-0.0435504838	-0.37976
C	 0.0789507295	-0.0361330752	-0.0464190021	-0.173401
C	-1.3507964257	-0.5908850447	-0.0161864802	-0.15936
N	-1.4057442902	-2.0532859317	 0.0198586859	-0.081646
C	-1.3919548718	-2.6819002881	 1.3283778835	-0.352261
C	-1.4351398112	-2.7301341322	-1.1553943324	 0.390026
O	-1.4133822318	-2.162208143	-2.2437670755	-0.412653
C	-1.5075852955	-4.2664787966	-1.1470921651	-0.152063
O	-1.5600527916	-4.7308689033	-2.4618824931	-0.424738
H	 1.1249876288	 1.8749834118	-0.080807716	 0.118975
H	-0.4365192592	 1.8979389174	-0.9088195133	 0.124884
H	-0.3723582069	 1.8993572681	 0.8585255615	 0.113521
H	 0.5743893253	-0.4186030998	-0.945043876	 0.125319
H	 0.6419523499	-0.4175138518	 0.8148879032	 0.094285
H	-1.8868960758	-0.2160863583	 0.8641766161	 0.098291
H	-1.89016618	-0.262916572	-0.9074462301	 0.140526
H	-1.3661279232	-3.7667909906	 1.2440550625	 0.151598
H	-0.510182759	-2.3688844196	 1.9000387891	 0.135367
H	-2.2843402759	-2.403959716	 1.9033528463	 0.133683
H	-0.6271380942	-4.6713597914	-0.6221644848	 0.107426
H	-2.3951518523	-4.5898817201	-0.5804773907	 0.108243
H	-1.5203109564	-3.9194944667	-2.9997605452	 0.293736
22.3777	53.808	81.533	91.2718	134.2759	166.4575	229.1662	249.9008	288.5878	350.3495	370.779	406.4699	486.9035	556.8186	594.5873	626.0343	747.8763	810.6497	877.3344	894.6605	987.4589	1034.0523	1045.8233	1101.0137	1120.8672	1133.0674	1152.7982	1183.963	1246.9769	1262.3886	1298.6287	1308.1654	1331.7438	1345.4771	1406.8079	1415.8988	1435.3	1469.3642	1478.1681	1483.2287	1491.2039	1491.9176	1500.8068	1507.9648	1509.8975	1539.2914	1733.3163	2969.7316	2990.3306	3017.9467	3026.9108	3031.1872	3035.6167	3065.2227	3073.4007	3098.625	3109.0618	3116.1878	3166.8485	3621.4801
CCCN(C)C(=O)CO	CCCN(C)C(=O)CO	
InChI=1S/C6H13NO2/c1-3-4-7(2)6(9)5-8/h8H,3-5H2,1-2H3	InChI=1S/C6H13NO2/c1-3-4-7(2)6(9)5-8/h8H,3-5H2,1-2H3
