23
gdb 93734	2.40387	1.17162	1.09185	2.4112	85.74	-0.2482	-0.0174	0.2307	1303.0392	0.205015	-388.330057	-388.320295	-388.319351	-388.36489	36.801	
C	-0.3971683496	 1.4217122162	 0.007833967	-0.410132
C	 0.0521011731	-0.0368867589	 0.04548814	 0.045586
C	 0.7772204164	-0.5248798884	-1.2211185112	-0.202636
C	 1.4748977689	-1.8346723843	-0.7947329103	-0.276535
C	 1.6672178659	-1.7480522068	 0.7469330936	 0.224339
C	 3.1265847341	-1.899684938	 1.205537646	-0.463423
C	 1.0752966555	-0.3609814056	 1.1459097056	-0.25416
C	 0.8425917026	-2.8011679268	 1.4785093595	 0.137387
O	 0.0689239318	-3.5781779094	 0.9816470047	-0.256518
H	 0.4585446934	 2.0911316465	-0.1411643902	 0.110608
H	-1.1031291715	 1.5977621537	-0.8106093445	 0.115264
H	-0.8912554841	 1.7146755951	 0.9403843811	 0.112264
H	-0.8290688688	-0.6752795064	 0.2006815145	 0.085058
H	 0.1026417006	-0.6620363829	-2.0715004604	 0.096265
H	 1.5197202422	 0.22736322	-1.5191720997	 0.089727
H	 0.8475066048	-2.7010780262	-1.0204870443	 0.127933
H	 2.4296916657	-1.9790944679	-1.3076034744	 0.09276
H	 3.7452777249	-1.1160344143	 0.7572490361	 0.122659
H	 3.2168940922	-1.813416185	 2.2946477633	 0.117165
H	 3.5419610671	-2.8688899423	 0.9093503735	 0.12516
H	 1.8787447413	 0.3873914182	 1.1378997674	 0.094099
H	 0.6468354517	-0.3540313017	 2.1552595719	 0.093389
H	 1.0006818518	-2.7900763547	 2.5838088411	 0.07374
53.3386	70.6879	150.4956	227.686	235.154	252.786	293.589	317.1828	356.7482	380.1217	432.1401	510.8109	560.6281	637.1636	751.0276	821.9258	861.0776	879.9386	904.4566	938.5151	942.6668	971.6012	991.3608	1012.1751	1055.3599	1080.096	1109.1353	1142.2754	1172.8378	1200.2967	1241.814	1257.8214	1283.7031	1297.7121	1327.0206	1344.2523	1360.5576	1389.851	1403.4255	1413.3832	1426.3992	1486.0292	1491.0632	1493.7637	1496.65	1499.0089	1499.934	1511.5016	1827.3854	2844.0081	3005.2903	3015.2766	3020.9938	3024.6354	3027.6433	3059.7747	3060.2586	3079.7019	3090.5927	3091.7846	3096.9484	3102.8087	3106.7411
CC1CCC(C)(C1)C=O	C[C@H]1CC[C@@](C)(C1)C=O	
InChI=1S/C8H14O/c1-7-3-4-8(2,5-7)6-9/h6-7H,3-5H2,1-2H3	InChI=1S/C8H14O/c1-7-3-4-8(2,5-7)6-9/h6-7H,3-5H2,1-2H3/t7-,8-/m0/s1
