13
gdb 7881	3.98667	1.77762	1.23885	4.0541	65.61	-0.2357	-0.0713	0.1644	892.8515	0.095663	-398.667582	-398.660235	-398.659291	-398.699577	26.588	
N	 0.0738889615	 1.3514150405	 0.007381979	-0.590668
C	-0.0807303646	 0.0190889735	 0.001006698	 0.310941
C	-1.1758123562	-0.7906438799	 0.0032963175	-0.322625
C	-0.7826513299	-2.2005681058	-0.0070424841	 0.390716
O	-1.5189443473	-3.1635972004	-0.007565326	-0.34329
C	 0.754810463	-2.2669963917	-0.0166887447	-0.449996
C	 1.172794814	-0.8129367522	-0.011235112	 0.359707
O	 2.2822759159	-0.3320867638	-0.0155261915	-0.328921
H	 1.0175494905	 1.7065633791	 0.0036650851	 0.278804
H	-0.6978225345	 1.9929981529	 0.0158555593	 0.27302
H	-2.2137283282	-0.48377319	 0.0114344015	 0.110996
H	 1.1394615558	-2.8001673836	 0.858655681	 0.155663
H	 1.1288308799	-2.7905684286	-0.902366853	 0.155651
63.8592	137.3749	183.2293	283.3624	385.7093	395.7122	541.5931	551.1093	584.3697	593.2579	626.7615	687.3366	771.6283	845.0602	869.7673	956.2941	1052.6633	1110.3391	1135.9157	1226.6087	1239.3544	1295.2848	1391.3969	1426.437	1603.9489	1694.9639	1791.7362	1829.8764	3062.0435	3102.1528	3217.9311	3596.7371	3737.3686
NC1=CC(=O)CC1=O	NC1=CC(=O)CC1=O	
InChI=1S/C5H5NO2/c6-4-1-3(7)2-5(4)8/h1H,2,6H2	InChI=1S/C5H5NO2/c6-4-1-3(7)2-5(4)8/h1H,2,6H2
