18
gdb 13590	4.21834	1.20181	1.11356	3.339	69.98	-0.2632	-0.0243	0.2389	1129.6363	0.152353	-384.950577	-384.941941	-384.940996	-384.983973	31.504	
C	-0.2343323138	 1.5233078629	 0.06880571	-0.419028
C	 0.0083423146	 0.0314483317	 0.0853408086	 0.015314
C	 1.3383873944	-0.557605058	-0.2334281444	-0.284051
C	 0.819883686	-0.6644742675	 1.1943024629	-0.128993
C	 1.4834540064	 0.1201633411	 2.2563823636	 0.362114
O	 2.1207372524	 1.1414131731	 2.0595606714	-0.355763
C	 1.3555200765	-0.3928363003	 3.6862636605	-0.135183
O	 2.0140818018	 0.4432815921	 4.5866547498	-0.422098
H	 0.638247722	 2.0730081903	 0.4252510854	 0.155822
H	-0.4563426238	 1.8519695623	-0.9522622507	 0.120371
H	-1.0895617032	 1.7921425785	 0.6979125728	 0.118398
H	-0.8485319583	-0.5627674787	-0.2223014303	 0.098275
H	 1.3962534348	-1.4739753416	-0.8096778687	 0.120528
H	 2.1672316258	 0.1299943985	-0.3650536886	 0.140786
H	 0.4373453593	-1.6276998288	 1.5166756509	 0.092015
H	 0.2816002587	-0.4793597413	 3.9247612749	 0.11481
H	 1.7592606317	-1.4196738186	 3.7171921881	 0.113711
H	 2.3956418346	 1.1457678944	 4.0340722039	 0.292973
57.4912	115.8439	173.5645	187.5311	237.6793	294.4868	365.7342	395.1375	404.671	452.5708	583.6748	687.8396	748.3259	817.9717	862.1857	878.1638	950.1324	981.4622	1028.0536	1069.3775	1086.8339	1103.6854	1122.5986	1147.1905	1156.4094	1206.9699	1237.6088	1243.9253	1305.8323	1392.9322	1414.9853	1425.3856	1454.5727	1477.4514	1492.7592	1502.5419	1503.6499	1765.305	2962.8536	2977.932	3037.5461	3093.8476	3130.9138	3136.2291	3148.1179	3160.9805	3229.5037	3664.8995
CC1CC1C(=O)CO	C[C@H]1C[C@H]1C(=O)CO	
InChI=1S/C6H10O2/c1-4-2-5(4)6(8)3-7/h4-5,7H,2-3H2,1H3	InChI=1S/C6H10O2/c1-4-2-5(4)6(8)3-7/h4-5,7H,2-3H2,1H3/t4-,5+/m0/s1
