17
gdb 56856	3.33181	1.14027	1.00878	2.5261	74.11	-0.24	0.0299	0.2699	1200.6788	0.134269	-421.728362	-421.71977	-421.718826	-421.762119	32.192	
O	-0.0613556148	 1.4799485605	-0.0088957885	-0.416971
C	 0.0099673962	 0.0541641672	 0.0167021824	-0.08788
C	 0.6590190945	-0.4778263193	-1.1848621019	 0.301779
C	 1.2351148502	-0.8904354449	-2.1561953227	-0.445685
C	 0.6899176501	-0.4808450632	 1.2716155889	-0.068312
C	 0.2371426262	-0.1225953045	 2.6753968827	-0.157653
C	-1.2850068469	-0.1017597053	 2.7415336008	-0.096489
O	-1.3657976011	-1.4226288502	 2.1285965019	-0.283059
C	 0.0592194422	-1.52776925	 2.143882125	 0.086927
H	 0.8357078118	 1.8135919981	-0.1214692635	 0.28293
H	-1.0333958796	-0.2767196257	 0.0348011935	 0.138561
H	 1.7205529845	-1.2604321914	-3.025382192	 0.198456
H	 1.7706904727	-0.5794037272	 1.2009470599	 0.099396
H	 0.9111090801	 0.2759859948	 3.421142093	 0.101622
H	-1.6753599332	-0.1394312034	 3.7637513782	 0.110481
H	-1.8111197745	 0.6650394715	 2.1642491259	 0.127556
H	 0.4928486917	-2.4886124769	 2.3958391064	 0.108342
43.9361	127.0101	158.4295	203.2808	242.981	307.1934	339.1048	487.5365	519.2578	551.7865	612.843	629.6271	668.8614	772.7722	792.0078	814.427	919.7558	956.5101	961.7723	986.5216	1004.1551	1042.6035	1049.2844	1060.5213	1077.6243	1117.7132	1165.8819	1173.8497	1256.1567	1266.1188	1295.715	1316.8334	1363.5695	1418.161	1439.7173	1519.4964	2232.0673	3039.8514	3068.6645	3093.6138	3143.7531	3181.3069	3207.8658	3502.8695	3804.3916
OC(C#C)C1C2COC12	O[C@@H](C#C)[C@H]1[C@H]2CO[C@@H]12	
InChI=1S/C7H8O2/c1-2-5(8)6-4-3-9-7(4)6/h1,4-8H,3H2	InChI=1S/C7H8O2/c1-2-5(8)6-4-3-9-7(4)6/h1,4-8H,3H2/t4-,5+,6-,7-/m1/s1
