17
gdb 94407	2.62575	1.39615	1.23265	4.5365	67.88	-0.2555	-0.0106	0.2449	1086.1617	0.135439	-458.966315	-458.958024	-458.95708	-458.999904	30.045	
C	-0.3143389964	 1.4394397929	-0.0610616671	-0.415746
C	 0.0793948366	-0.0285842571	-0.1124351031	-0.111598
C	 1.4106216048	-0.3811299673	-0.8145678749	-0.087511
O	 1.9669905915	-0.8956715619	 0.4206552216	-0.303063
C	 0.766427398	-0.6424474501	 1.1343290783	 0.231295
C	 0.8411825618	 0.0018796775	 2.5305234705	-0.138343
O	 0.1134271383	-1.1343470999	 3.1008447638	-0.246149
C	 0.0918497514	-1.8033553291	 1.9002468963	 0.411614
O	-0.3466314234	-2.8817695574	 1.6673234746	-0.327415
H	 0.5147114064	 2.066184569	 0.2848526813	 0.124706
H	-0.6045847049	 1.790744034	-1.0566543992	 0.13009
H	-1.1665232187	 1.6024432898	 0.6066997268	 0.130943
H	-0.7578695328	-0.6417600246	-0.4539802973	 0.109795
H	 1.3555255679	-1.1557810061	-1.5859100233	 0.121393
H	 1.9893149075	 0.4705288753	-1.1910275681	 0.108113
H	 1.8538978758	 0.064243047	 2.933936714	 0.136882
H	 0.2939036662	 0.933105098	 2.6876427358	 0.124995
50.5795	117.6289	148.2665	225.0794	247.0057	272.4126	363.0328	404.7201	507.4348	629.5751	700.6557	769.6296	795.5647	891.575	894.1224	919.0119	940.6827	973.9651	1019.8078	1066.7334	1109.1672	1130.2251	1149.8083	1153.8099	1172.072	1195.9582	1238.0828	1278.1714	1338.4376	1347.5251	1375.8318	1414.2607	1495.0574	1496.6599	1506.3629	1525.0965	1939.3173	3028.7966	3032.794	3074.0127	3075.1545	3087.5309	3102.94	3106.6798	3139.7271
CC1COC11COC1=O	C[C@H]1CO[C@]21COC2=O	
InChI=1S/C6H8O3/c1-4-2-9-6(4)3-8-5(6)7/h4H,2-3H2,1H3	InChI=1S/C6H8O3/c1-4-2-9-6(4)3-8-5(6)7/h4H,2-3H2,1H3/t4-,6-/m0/s1
