23
gdb 84153	2.3263	1.51418	1.04669	0.3473	92.01	-0.2263	0.0318	0.2581	1254.8813	0.206956	-351.173273	-351.16439	-351.163446	-351.206359	35.317	
C	-0.9373999751	 1.1679697368	 0.0444987992	-0.383979
C	 0.02897485	-0.0298287333	 0.0551038558	-0.046705
C	 0.8975997027	-0.0461726493	-1.1781927591	-0.14154
C	 2.1711401489	-0.4441788675	-1.2310995635	 0.294911
C	 2.9522030165	-0.4606269778	-2.5175575316	-0.474631
C	 2.9079479853	-0.9413156914	-0.0091039024	-0.312959
C	 2.2774586591	-0.5383203232	 1.3116080531	-0.038472
C	 1.9556789938	 0.9117516958	 1.5787950909	-0.289765
C	 0.8410511854	-0.0806781427	 1.3418677174	-0.017158
H	-0.3868426401	 2.1139008698	 0.0709385073	 0.117811
H	-1.5596630868	 1.1630975845	-0.8570153621	 0.106811
H	-1.6034183699	 1.1417492473	 0.9132343787	 0.107107
H	-0.5923602544	-0.9402532222	 0.0303296446	 0.080329
H	 0.4132427585	 0.2796950187	-2.0980140543	 0.068944
H	 2.3458477385	-0.1280911329	-3.3643872787	 0.117354
H	 3.8359516541	 0.1876546911	-2.4531612066	 0.120246
H	 3.3254488589	-1.468778082	-2.7416811618	 0.119481
H	 2.9685127015	-2.0393173218	-0.0616555412	 0.107072
H	 3.9512914699	-0.5950848668	-0.0472100785	 0.098518
H	 2.6222449286	-1.1158852097	 2.1645771387	 0.076565
H	 2.0993763578	 1.2979132737	 2.5819311176	 0.103131
H	 2.1700386896	 1.624242011	 0.7885282553	 0.112119
H	 0.2606093871	-0.358602838	 2.2175820614	 0.07481
89.8534	155.7579	207.0862	223.6787	248.0296	297.7793	341.6223	384.174	413.2245	466.3614	491.5074	601.6047	661.3725	747.6235	808.1775	844.3441	848.8585	876.2012	901.7196	943.7375	989.6123	1003.6273	1027.1339	1045.2406	1068.3408	1076.3422	1086.9099	1099.3657	1132.1893	1137.9717	1167.1156	1187.1948	1229.907	1250.0784	1316.2126	1327.9929	1348.1388	1374.1928	1394.3062	1409.5411	1412.3196	1419.8935	1475.4925	1479.9541	1491.1244	1493.9831	1496.9372	1498.6945	1739.2945	2960.1183	2987.1532	3008.4036	3011.9909	3028.6966	3055.8969	3096.6591	3104.2304	3108.6712	3128.2982	3129.2283	3132.8917	3144.8097	3214.2093
CC1C=C(C)CC2CC12	C[C@H]1C=C(C)C[C@H]2C[C@@H]12	
InChI=1S/C9H14/c1-6-3-7(2)9-5-8(9)4-6/h3,7-9H,4-5H2,1-2H3	InChI=1S/C9H14/c1-6-3-7(2)9-5-8(9)4-6/h3,7-9H,4-5H2,1-2H3/t7-,8-,9-/m0/s1
