17
gdb 107552	2.3511	1.47053	1.08944	3.4099	68.59	-0.2465	-0.0211	0.2254	1126.8062	0.133814	-458.92441	-458.915691	-458.914746	-458.95853	31.466	
O	 0.1403674991	 1.2854424071	 0.3839457802	-0.410595
C	 0.1217905657	-0.0935811465	 0.0414147436	-0.19263
C	-1.2740169926	-0.5784566456	-0.176458256	 0.381321
O	-2.0857137685	-0.7947843512	 0.9927419517	-0.286934
C	-1.9680511267	-1.8603522898	 0.040198233	-0.049365
C	-2.9764024512	-1.583524065	-1.0852908914	-0.269571
C	-2.261405938	-0.2135740012	-1.3178242358	-0.156869
C	-3.0432132468	 1.0576790609	-1.103190375	 0.141516
O	-4.2425545573	 1.11465073	-1.0136030984	-0.238472
H	-0.3369767763	 1.377416648	 1.2163917033	 0.297221
H	 0.7028913337	-0.1830998901	-0.8822054478	 0.118122
H	 0.6034944445	-0.7153080528	 0.8098432609	 0.107234
H	-1.5929569687	-2.8082101624	 0.4089603383	 0.112147
H	-2.8782096217	-2.2631232949	-1.933991324	 0.112115
H	-4.0193964118	-1.5178739238	-0.7732644545	 0.139753
H	-1.7435809894	-0.1552156336	-2.2824707474	 0.104947
H	-2.4089543941	 1.9681425309	-1.0178887906	 0.09006
73.3673	82.847	103.3335	179.3909	235.952	292.7403	333.5393	417.4988	469.9232	523.8461	623.9562	700.9878	724.2301	801.2936	877.6709	912.6096	948.8406	957.6952	972.2444	1019.3346	1066.598	1073.0407	1085.2259	1141.0247	1150.6661	1180.0762	1232.2415	1251.0694	1276.798	1328.8153	1365.2293	1412.4431	1417.2494	1460.3832	1481.5244	1487.0863	1828.279	2888.6203	3005.3543	3050.7644	3081.6011	3084.1416	3146.5982	3187.4477	3803.8444
OCC12OC1CC2C=O	OC[C@]12O[C@H]1C[C@H]2C=O	
InChI=1S/C6H8O3/c7-2-4-1-5-6(4,3-8)9-5/h2,4-5,8H,1,3H2	InChI=1S/C6H8O3/c7-2-4-1-5-6(4,3-8)9-5/h2,4-5,8H,1,3H2/t4-,5-,6+/m0/s1
