16
gdb 126027	3.11399	1.61592	1.11806	5.9896	70.47	-0.2161	-0.0059	0.2102	1046.596	0.126924	-434.050217	-434.04287	-434.041926	-434.082374	27.612	
C	-0.0134600287	 1.6074117641	-0.0811948351	-0.401025
C	-0.0219344014	 0.0820607172	 0.0651209483	-0.156132
C	 0.7864606471	-0.6427886304	-1.086040884	-0.095209
O	 1.5846669662	-1.7218349521	-0.5232605708	-0.273937
C	 1.5674337964	-1.4880890806	 0.8109489809	 0.3998
C	 0.7255471135	-0.498561542	 1.2239767437	 0.270854
N	 0.868534273	-0.5235141179	 2.5674423647	-0.328796
N	 1.7684243937	-1.4702588875	 2.9358167259	-0.127681
N	 2.1976879074	-2.0717940727	 1.8428969927	-0.298928
H	 1.009445444	 1.9957130048	-0.0606550666	 0.130295
H	-0.4762130334	 1.9077496384	-1.0269473955	 0.127115
H	-0.5763914989	 2.0841990731	 0.7271250852	 0.121632
H	-1.0643685913	-0.2651368876	 0.0632455185	 0.103563
H	 0.1385343248	-1.0745933891	-1.8509002473	 0.127994
H	 1.4721176556	 0.070345181	-1.5590239575	 0.120252
H	 0.4495618218	 0.0427587213	 3.2868892769	 0.280204
74.5484	148.42	221.1156	265.6366	328.0172	419.0057	494.339	540.6401	604.0919	666.5593	704.3898	756.3203	758.5967	888.484	932.506	979.7041	1017.7953	1037.4276	1044.685	1099.16	1135.4052	1181.118	1203.4974	1243.3709	1293.1673	1336.9337	1370.5602	1379.9027	1412.2764	1419.3706	1495.1262	1497.678	1505.8531	1555.7783	1627.8795	3002.1413	3033.5343	3037.2662	3105.5445	3112.378	3118.1661	3664.8711
CC1COC2=C1NN=N2	C[C@H]1COc2c1[nH]nn2	
InChI=1S/C5H7N3O/c1-3-2-9-5-4(3)6-8-7-5/h3H,2H2,1H3,(H,6,7,8)	InChI=1S/C5H7N3O/c1-3-2-9-5-4(3)6-8-7-5/h3H,2H2,1H3,(H,6,7,8)/t3-/m0/s1
