19
gdb 7446	3.0027	1.54835	1.29533	4.8614	67.53	-0.2395	0.0177	0.2572	1029.6301	0.164061	-402.227148	-402.217935	-402.216991	-402.260792	33.31	
C	-1.0491205368	 0.7326566445	 0.0956956151	-0.396123
C	-0.0202494612	-0.3998156505	 0.1763969812	-0.11861
N	 0.5768595848	-0.8691381541	-1.0883702424	-0.09334
H	 2.0832467679	-1.1621154965	 0.0551265921	 0.296173
C	-0.2545232919	-1.8229404945	-1.8147107769	-0.328446
C	 1.0547990706	 0.2051774496	-1.9596234831	-0.337448
C	 1.1101764366	-0.062198684	 1.175790989	 0.427739
O	 0.9662798744	 0.6569725472	 2.1273070178	-0.338641
O	 2.2609113713	-0.6939544332	 0.9015712161	-0.370741
H	-0.604678573	 1.6582982606	-0.2788455969	 0.128636
H	-1.8861793957	 0.4584220423	-0.552958948	 0.113528
H	-1.4322459635	 0.9376347972	 1.0965307784	 0.150725
H	-0.5151572602	-1.2775674243	 0.6136197747	 0.115297
H	-0.5240015539	-2.6560729502	-1.1594757975	 0.128235
H	-1.1831380249	-1.3785467038	-2.2106740579	 0.110447
H	 0.3103060833	-2.2245859616	-2.6616038738	 0.127233
H	 1.6981823737	 0.8865756133	-1.3959425012	 0.141133
H	 1.6493307552	-0.2291280781	-2.768940003	 0.127822
H	 0.2403970134	 0.791427236	-2.4129678539	 0.116379
71.3579	114.2017	188.2879	207.8907	235.5641	254.5588	266.0884	281.1769	375.7118	408.3498	494.9627	520.076	584.8975	715.5174	801.5104	846.9753	873.379	969.7443	1047.8514	1065.8089	1103.5916	1118.9555	1124.6195	1182.4658	1207.8374	1223.3804	1301.0641	1320.5545	1380.7642	1403.2599	1414.5695	1445.1709	1477.5048	1482.0914	1487.8568	1491.69	1499.6721	1508.7094	1518.7226	1870.0348	2966.2632	2985.3897	3023.1035	3053.0196	3069.1164	3075.1367	3111.8573	3115.697	3122.6804	3144.8796	3460.7923
CC([NH+](C)C)C([O-])=O	C[C@@H](N(C)C)C(=O)O	
InChI=1S/C5H11NO2/c1-4(5(7)8)6(2)3/h4H,1-3H3,(H,7,8)	InChI=1S/C5H11NO2/c1-4(5(7)8)6(2)3/h4H,1-3H3,(H,7,8)/t4-/m1/s1
