18
gdb 68664	2.39252	1.84529	1.4542	1.6709	77.31	-0.2264	-0.0061	0.2203	981.3027	0.148682	-401.950027	-401.942263	-401.941319	-401.981906	30.583	
C	 0.0398675413	 1.5547247593	-0.0153490671	-0.505108
C	-0.0096256262	 0.0463390138	-0.0007419757	 0.137051
N	 0.3017927036	-0.6888027459	-1.2991045368	-0.336164
C	-0.6385927401	-1.7937714281	-0.8625642915	-0.140305
C	 0.1496479539	-2.7595979957	 0.0331238413	-0.239958
C	 0.902785312	-1.9615587418	 1.0724720858	-0.084422
C	 0.8192491086	-0.6313980747	 1.0775859858	-0.047083
C	-1.3609994842	-0.7017887363	-0.0483260113	 0.402645
O	-2.5021583898	-0.4068347694	 0.1592329218	-0.330963
H	 1.0597291076	 1.9097129873	-0.1956841497	 0.132428
H	-0.6166329204	 1.9647771972	-0.7887843173	 0.123741
H	-0.2948830126	 1.9501351985	 0.9485359377	 0.138612
H	-0.1567839102	-0.1765779491	-2.0541121563	 0.224618
H	-1.1932321703	-2.2955033052	-1.658223743	 0.090272
H	-0.5420284957	-3.4634878892	 0.5150054904	 0.119773
H	 0.8382576208	-3.3619106371	-0.5739583865	 0.11926
H	 1.4985754929	-2.4971905064	 1.8056337804	 0.098516
H	 1.309234619	-0.0154799873	 1.8249837719	 0.097084
127.0705	176.4328	210.4899	238.4123	306.4779	370.9032	452.4654	472.0975	524.48	597.2395	666.2874	689.4861	781.7246	814.2349	857.7714	875.9242	902.7289	930.3637	954.5401	975.415	1006.9835	1048.9143	1070.0274	1114.6501	1129.5153	1166.901	1203.5062	1255.4586	1269.4006	1300.536	1343.5412	1369.9102	1409.3143	1411.8419	1469.6506	1487.0486	1488.7783	1699.5797	1876.6991	3014.9154	3037.4183	3045.2247	3097.6404	3109.8168	3113.0415	3164.8066	3188.2485	3445.8265
CC12NC(CC=C1)C2=O	C[C@@]12N[C@@H](CC=C1)C2=O	
InChI=1S/C7H9NO/c1-7-4-2-3-5(8-7)6(7)9/h2,4-5,8H,3H2,1H3	InChI=1S/C7H9NO/c1-7-4-2-3-5(8-7)6(7)9/h2,4-5,8H,3H2,1H3/t5-,7+/m0/s1
