21
gdb 92028	2.72222	1.57271	1.18637	1.4608	80.82	-0.2427	0.071	0.3137	1096.8807	0.185302	-387.071619	-387.063896	-387.062952	-387.103323	32.175	
O	-0.1251137913	 1.4337573866	 0.1060062203	-0.438158
C	-0.0035708028	 0.0150134066	 0.0224527471	 0.123158
C	 0.8219689868	-0.538119917	 1.1992320526	-0.280565
C	 0.8528022865	-2.0624003288	 1.2385838469	-0.029996
C	 0.0863641615	-2.8293380882	 2.2908359986	-0.305676
C	-0.4253156732	-2.7880239223	 0.8728409686	-0.013169
C	-1.6190278908	-1.9763182962	 0.4356305861	-0.041689
C	-2.1803055579	-0.8182215964	 1.2257102248	-0.303274
C	-1.4042188479	-0.5524770812	-0.0392818937	-0.008532
H	 0.763606763	 1.8047072512	 0.096493504	 0.275519
H	 0.5069209986	-0.259506268	-0.9171601453	 0.058567
H	 1.8440404623	-0.1489340487	 1.1197668389	 0.086955
H	 0.4127148948	-0.1190924888	 2.1249418561	 0.109969
H	 1.7768641227	-2.5151168053	 0.8931364302	 0.081057
H	 0.5047263435	-3.7606554452	 2.6574029283	 0.106874
H	-0.4476703858	-2.2579937331	 3.0433626823	 0.111175
H	-0.3028924101	-3.704420213	 0.3034892655	 0.080454
H	-2.3552832706	-2.5533195762	-0.1151664768	 0.081321
H	-3.2544386844	-0.6711605737	 1.2026694546	 0.108337
H	-1.729490135	-0.5560500483	 2.175422232	 0.113132
H	-1.9686185599	-0.2174347239	-0.9037844311	 0.08454
131.5705	212.3008	244.8282	287.9304	357.4251	382.0487	407.9382	477.1252	509.1849	563.6164	660.9979	723.7762	784.9909	818.7725	840.6984	850.6714	905.8957	943.9864	959.437	978.0145	996.5314	1021.9217	1059.9212	1068.5762	1080.4005	1107.0884	1112.8044	1121.8868	1129.4841	1133.1232	1161.7428	1210.7503	1232.4786	1253.7109	1261.0091	1304.0799	1359.0521	1375.181	1393.2992	1412.6605	1419.1145	1442.5187	1485.7484	1490.4465	1512.6518	2942.5809	3031.6252	3071.2461	3127.0009	3137.1878	3141.1142	3147.4258	3153.09	3160.0879	3211.2923	3222.3722	3805.5547
OC1CC2CC2C2CC12	O[C@H]1C[C@H]2C[C@H]2[C@H]2C[C@@H]12	
InChI=1S/C8H12O/c9-8-2-4-1-5(4)6-3-7(6)8/h4-9H,1-3H2	InChI=1S/C8H12O/c9-8-2-4-1-5(4)6-3-7(6)8/h4-9H,1-3H2/t4-,5-,6-,7-,8+/m1/s1
