23
gdb 119083	2.54195	1.03436	0.87618	1.6865	81.55	-0.2504	0.0745	0.3249	1464.0832	0.204847	-425.415379	-425.405191	-425.404247	-425.450955	37.464	
C	 0.0810081248	 1.6138889944	 0.0969015332	-0.382828
C	 0.0386286979	 0.0840217206	 0.0498581482	-0.172933
C	 0.4523699956	-0.4726147348	-1.3197593113	-0.240802
C	 0.6250393746	-1.990310072	-1.3726544437	 0.41011
C	-0.6722389484	-2.7706081254	-1.1588093826	-0.117725
O	-0.4273498714	-4.1591225144	-1.0604309505	-0.427405
C	 1.5146104012	-2.5090401718	-2.5325812724	-0.329192
C	 2.543451207	-2.8200411812	-1.4331817673	-0.072032
O	 1.613138799	-2.4510787475	-0.3881598219	-0.339789
H	 1.0889835444	 1.9884958468	-0.1139285833	 0.114128
H	-0.5958217661	 2.0552588706	-0.6435587634	 0.112205
H	-0.2139984164	 1.9891940667	 1.0816903176	 0.112899
H	 0.711116006	-0.3324993303	 0.8079684932	 0.118352
H	-0.9709554091	-0.2555130159	 0.308762097	 0.098581
H	-0.2756245555	-0.1767926354	-2.0887296612	 0.095091
H	 1.4063847895	-0.0142489608	-1.6109401956	 0.093981
H	-1.187634132	-2.3981132007	-0.260917399	 0.093657
H	-1.3383996766	-2.6163798384	-2.0154667501	 0.108702
H	 0.2694849625	-4.2385855012	-0.3957091587	 0.286945
H	 1.1110736323	-3.3950052872	-3.0228171437	 0.125117
H	 1.803353014	-1.7643580363	-3.2758278087	 0.103269
H	 2.8608372205	-3.8647280087	-1.3441657072	 0.10564
H	 3.4318249063	-2.176872687	-1.4238374484	 0.104029
69.7724	84.2532	101.7701	129.5817	178.8399	243.885	251.2011	312.4806	320.7024	353.2096	424.1794	507.1801	609.3539	680.464	742.7579	777.5092	847.0647	858.1352	891.2834	899.965	955.5411	982.658	1004.3398	1038.6937	1054.578	1079.7148	1094.26	1142.1144	1165.3876	1189.216	1214.1291	1230.9507	1249.4577	1265.5052	1293.3643	1323.7787	1345.3203	1350.6061	1380.347	1404.484	1412.8274	1435.3429	1476.4701	1480.6375	1491.8901	1496.4637	1500.2916	1510.2977	1528.6968	2993.4591	3007.3445	3021.4314	3027.8477	3035.1894	3044.2247	3066.0184	3067.7501	3072.9218	3085.0704	3098.8117	3102.1963	3147.2848	3766.8209
CCCC1(CO)CCO1	CCC[C@@]1(CO)CCO1	
InChI=1S/C7H14O2/c1-2-3-7(6-8)4-5-9-7/h8H,2-6H2,1H3	InChI=1S/C7H14O2/c1-2-3-7(6-8)4-5-9-7/h8H,2-6H2,1H3/t7-/m0/s1
