21
gdb 117290	4.55365	0.68958	0.6078	0.8524	84.06	-0.2512	-0.0071	0.2442	1871.3934	0.181206	-420.465427	-420.45472	-420.453775	-420.502757	37.452	
C	-0.0988337448	 1.4815698862	 0.0929985005	-0.38907
C	 0.5295235089	 0.0862190996	 0.1033681417	-0.15453
C	 0.2538223912	-0.6894070565	-1.1846561319	-0.313846
C	 0.8769318223	-2.0839697988	-1.184976458	 0.421305
O	 1.5228006221	-2.5208602857	-0.2542901244	-0.357429
N	 0.6277210131	-2.7866220234	-2.3485417509	-0.338164
C	 1.0190887996	-4.0772549807	-2.7322226314	 0.357028
C	 1.847227412	-4.8837094522	-1.7668373257	-0.443107
N	 0.6219349337	-4.4415866556	-3.8886859978	-0.506344
H	 0.2886698695	 2.0892947672	-0.7326082668	 0.113498
H	-1.1877722582	 1.4296873412	-0.0193952799	 0.113496
H	 0.1130783806	 2.0145788382	 1.0246302986	 0.117483
H	 1.6120963287	 0.1586084114	 0.2496982814	 0.115397
H	 0.1545782848	-0.4924299258	 0.95379339	 0.115355
H	-0.827805751	-0.7920154898	-1.3494718046	 0.123062
H	 0.6347860174	-0.1385886072	-2.0559366945	 0.123111
H	 0.0775023191	-2.3311567351	-3.0642082195	 0.255314
H	 1.3232486755	-5.0205776249	-0.8183247459	 0.157396
H	 2.0677787595	-5.8570669571	-2.2104668153	 0.112438
H	 2.7794716602	-4.3692695809	-1.5234389445	 0.157387
H	 0.9447640757	-5.3853184701	-4.0934901911	 0.220223
34.2103	56.8812	77.4477	116.1128	131.3098	186.1235	242.9302	251.9041	308.1601	380.565	412.1698	534.4003	538.1162	588.504	695.3504	742.0059	750.3018	832.6027	858.0169	888.8158	908.7282	989.5814	1040.8296	1052.6911	1072.4051	1102.4841	1115.6544	1144.7231	1200.2916	1252.5353	1319.404	1326.7335	1390.4177	1394.2785	1414.2583	1430.8327	1462.7216	1464.5542	1466.8589	1487.852	1499.9889	1501.0441	1508.7859	1715.4213	1794.1981	3012.5284	3028.5551	3042.8156	3054.1776	3058.3868	3077.9889	3103.0804	3105.6414	3133.5663	3141.8562	3503.3215	3595.17
CCCC(=O)NC(C)=N	CCCC(=O)NC(=N)C	
InChI=1S/C6H12N2O/c1-3-4-6(9)8-5(2)7/h3-4H2,1-2H3,(H2,7,8,9)	InChI=1S/C6H12N2O/c1-3-4-6(9)8-5(2)7/h3-4H2,1-2H3,(H2,7,8,9)
