19
gdb 9901	4.56467	0.90241	0.84416	1.8187	82.39	-0.2263	0.0439	0.2702	1453.2374	0.164146	-327.88427	-327.874826	-327.873882	-327.920322	33.436	
C	-0.6103669763	 1.2828213833	 0.144699091	-0.363107
C	 0.4993400689	 0.2461724267	-0.1101100491	-0.317434
C	 1.0461115146	-0.3270276066	 1.1155067646	 0.084696
C	 1.4757215253	-0.785194662	 2.1454006846	 0.004914
C	 2.0346466634	-1.3418409676	 3.3532819638	 0.180356
C	 3.4711980684	-0.9589865532	 3.6558357533	-0.451327
C	 1.0914775915	-1.6460541973	 4.4739281944	-0.264936
N	 1.6813661539	-2.7449193788	 3.698587479	-0.346991
H	-0.2335703436	 2.1151710147	 0.7451644852	 0.128603
H	-0.9848331727	 1.6819275576	-0.8027313528	 0.114636
H	-1.4478489799	 0.8311562911	 0.6834064417	 0.12623
H	 0.1093426901	-0.5593066114	-0.7460037708	 0.128912
H	 1.3112040683	 0.7119317031	-0.6834985591	 0.130704
H	 3.564010602	 0.1234288572	 3.7874614571	 0.121442
H	 3.8054991781	-1.4588076633	 4.5682698637	 0.125752
H	 4.1299185936	-1.2616286288	 2.8363561002	 0.127224
H	 1.4487100632	-1.5652808349	 5.4974250735	 0.118197
H	 0.0422627339	-1.4044584135	 4.3332652991	 0.116676
H	 1.0007696872	-3.0908159963	 3.0265708506	 0.235451
10.047	88.602	104.2232	194.0581	211.9352	223.801	319.9067	332.0168	361.1193	465.4314	538.2119	555.6878	602.5503	783.5805	791.8469	821.9053	926.812	942.6905	981.2116	1033.3755	1055.6487	1080.9989	1097.2274	1103.571	1110.5593	1148.6406	1271.0112	1286.2284	1335.9634	1341.8352	1362.5803	1408.3395	1412.7379	1473.397	1481.3845	1494.5068	1495.959	1504.858	1505.9384	2355.473	3018.0126	3041.0735	3043.4439	3045.0637	3107.7373	3110.8099	3116.6932	3122.9593	3126.1353	3198.3305	3505.8481
CCC#CC1(C)CN1	CCC#C[C@@]1(C)CN1	
InChI=1S/C7H11N/c1-3-4-5-7(2)6-8-7/h8H,3,6H2,1-2H3	InChI=1S/C7H11N/c1-3-4-5-7(2)6-8-7/h8H,3,6H2,1-2H3/t7-/m0/s1
