18
gdb 111162	4.26773	1.08197	0.99392	3.5913	73.54	-0.2372	0.0736	0.3108	1234.7841	0.146292	-438.952066	-438.943851	-438.942907	-438.985094	30.966	
C	 0.0433119445	 1.2953117321	-0.2402759443	-0.244235
O	-0.0525203048	 0.0377249973	 0.3950778126	-0.249219
C	-1.2970118166	-0.551759946	 0.2596957576	 0.199983
C	-1.6203387479	-1.3892137149	-1.0301351634	-0.125038
O	-0.607729969	-2.3772904095	-0.5939885514	-0.30784
C	-1.363604094	-2.0479798559	 0.6423793147	-0.108406
C	-2.6527720254	-2.1475700029	-0.1867393344	 0.465773
C	-4.1071088323	-2.0695232994	 0.0199109965	-0.347044
N	-3.4425156273	-3.3131957097	-0.4634085742	-0.388058
H	 1.0371554353	 1.6910975866	-0.0214196806	 0.134397
H	-0.0742037814	 1.212529051	-1.330527282	 0.110093
H	-0.7133377733	 2.0000588857	 0.138486951	 0.105708
H	-2.1087796805	 0.0943903921	 0.6268387155	 0.070033
H	-1.6376248831	-1.1043522262	-2.082692462	 0.09502
H	-1.0737179871	-2.5444824862	 1.5668698765	 0.106762
H	-4.5360711933	-2.1452826858	 1.0152074881	 0.12728
H	-4.6940013472	-1.483722476	-0.6838665558	 0.116539
H	-3.5836117366	-3.4373211025	-1.4628303345	 0.238251
75.9725	135.2529	161.16	214.9682	270.5534	318.2219	345.4653	443.4898	503.3246	603.7248	726.1777	744.3869	792.9829	863.4339	879.1013	916.6289	927.8125	952.8187	970.6646	1027.8598	1054.917	1088.1127	1113.7667	1130.5042	1141.0147	1161.6076	1180.396	1184.695	1214.9543	1239.7101	1245.6686	1255.6834	1277.3728	1403.9411	1452.5066	1484.6108	1489.8198	1506.8577	1532.3759	2977.663	2994.3439	3029.8913	3104.6164	3115.7904	3124.4497	3143.0998	3189.5655	3502.7514
COC1C2OC1C21CN1	CO[C@H]1[C@H]2O[C@@H]1[C@]12CN1	
InChI=1S/C6H9NO2/c1-8-3-4-6(2-7-6)5(3)9-4/h3-5,7H,2H2,1H3	InChI=1S/C6H9NO2/c1-8-3-4-6(2-7-6)5(3)9-4/h3-5,7H,2H2,1H3/t3-,4+,5-,6+
