16
gdb 8129	4.30004	1.73035	1.44814	4.3188	64.13	-0.268	0.0103	0.2783	880.7075	0.130873	-383.7774	-383.77042	-383.769476	-383.808412	26.984	
C	-0.2070908471	 1.5467605762	 0.0762076966	-0.481454
C	 0.0559200428	 0.0631064921	-0.0089827466	 0.311783
C	-0.7441630397	-0.9084688279	 0.8465490217	-0.356693
C	 0.7242856665	-0.7170615103	 1.0934665855	 0.06424
O	 1.5832180113	-1.6979684156	 0.5457265173	-0.215951
C	 1.554538589	-1.6592810274	-0.8225023635	 0.426143
O	 2.1721689815	-2.429772507	-1.4939719549	-0.326334
C	 0.6360632284	-0.5217757321	-1.2829542849	-0.440921
H	 0.6793536975	 2.1236216627	-0.2107148663	 0.123981
H	-1.0277833247	 1.8423284374	-0.5869750234	 0.12786
H	-0.4837858284	 1.8415609471	 1.0933288605	 0.121225
H	-1.4331348762	-0.4773850777	 1.56517292	 0.122035
H	-1.0624225852	-1.8565179487	 0.4235440579	 0.126848
H	 1.1167374575	-0.2849179234	 2.0055918929	 0.114499
H	-0.1019593476	-0.9191537487	-1.9856424381	 0.143063
H	 1.2415174944	 0.2091821332	-1.8302922646	 0.139676
111.8881	211.2747	233.9437	303.6827	365.5514	452.9708	486.6877	552.4006	585.9098	682.2414	746.7291	824.6574	857.7936	901.7934	924.8174	977.5619	998.0593	1031.6843	1049.9885	1098.1884	1111.1165	1139.5552	1159.3886	1192.0521	1241.2863	1313.253	1325.913	1404.4484	1424.7934	1459.8192	1487.4209	1491.4384	1502.3835	1889.2269	3026.8517	3054.3673	3089.1598	3097.2864	3101.8792	3126.6313	3192.9447	3217.5033
CC12CC1OC(=O)C2	C[C@]12C[C@H]1OC(=O)C2	
InChI=1S/C6H8O2/c1-6-2-4(6)8-5(7)3-6/h4H,2-3H2,1H3	InChI=1S/C6H8O2/c1-6-2-4(6)8-5(7)3-6/h4H,2-3H2,1H3/t4-,6-/m1/s1
