18
gdb 36318	4.12289	1.05627	0.92155	4.2838	80.82	-0.243	0.0033	0.2463	1257.82	0.149445	-364.825575	-364.817812	-364.816868	-364.858219	29.988	
N	-0.0153821486	-1.2191610009	-0.0572038731	-0.313945
C	-0.0416344912	-0.066059383	 0.0181263139	 0.262897
C	-0.0433589135	 1.3925913222	 0.1098264724	-0.343836
C	 1.3750623066	 2.0000505293	-0.0343019475	-0.046698
C	 2.038006231	 1.7355089412	-1.3747553149	-0.093855
C	 2.5069717783	 2.8541812442	-1.9311250173	-0.078148
C	 2.1770726574	 4.0606671725	-1.1165280235	-0.076865
C	 0.6939714013	 4.3470171762	-0.9894339856	-0.283646
C	 1.3925044957	 3.5281306891	 0.069926623	-0.067223
H	-0.7058168438	 1.7914454162	-0.6654086609	 0.150895
H	-0.4729809827	 1.6781531977	 1.0764686437	 0.151026
H	 1.9864860666	 1.5707025402	 0.7714811653	 0.102868
H	 2.0954951307	 0.74036755	-1.8001739898	 0.118519
H	 3.0328776206	 2.9109275749	-2.8773743074	 0.102921
H	 2.8837698108	 4.8778615129	-1.0274121838	 0.092978
H	 0.3964701195	 5.3504793749	-0.7032481103	 0.115532
H	 0.0283925969	 3.8632137082	-1.6967292938	 0.114829
H	 1.5028619143	 3.9716655342	 1.0523259296	 0.091752
71.9849	120.0291	176.3808	251.6338	376.3003	395.4562	430.4908	473.1909	594.9646	686.7764	753.1127	783.1109	787.4644	811.7685	859.8177	910.8684	941.9706	957.5486	970.7423	1006.6738	1021.2491	1060.4083	1075.3826	1080.0252	1094.9898	1107.195	1145.8718	1199.0345	1207.9306	1276.0142	1306.6236	1327.0568	1351.042	1373.6201	1391.0367	1463.7107	1479.8974	1669.7803	2359.1805	3006.6512	3048.5592	3091.3841	3127.3793	3171.5225	3179.9572	3191.6963	3215.157	3216.2261
N#CCC1C=CC2CC12	N#CC[C@H]1C=C[C@H]2C[C@@H]12	
InChI=1S/C8H9N/c9-4-3-6-1-2-7-5-8(6)7/h1-2,6-8H,3,5H2	InChI=1S/C8H9N/c9-4-3-6-1-2-7-5-8(6)7/h1-2,6-8H,3,5H2/t6-,7+,8+/m1/s1
