19
gdb 68765	2.5085	1.70049	1.20692	4.21	75.87	-0.2262	0.0296	0.2557	1073.0952	0.159672	-419.238973	-419.230105	-419.229161	-419.27204	33.611	
C	-0.1000313396	 1.5242431686	-0.0269891257	-0.497616
C	 0.1143989117	 0.0347638731	-0.0030278302	 0.269482
C	 0.4267621448	-0.6814446688	-1.3191216701	-0.201129
N	 1.1852023164	-1.8451153457	-0.8942602707	-0.332274
C	 1.4600747394	-1.9207602306	 0.4434413681	 0.42992
O	 2.1318547963	-2.7631339911	 0.9993465348	-0.390582
C	 0.7767867595	-0.728104815	 1.0905006723	 0.13705
C	 1.3541939023	-0.201355929	 2.3718908137	-0.494788
N	-0.6985456807	-0.8352595135	 0.8732338567	-0.396814
H	 0.7493395747	 2.0400218031	-0.4874561683	 0.129354
H	-0.9970778827	 1.7795090863	-0.6032023111	 0.131331
H	-0.2288376993	 1.9238995873	 0.9831697822	 0.123001
H	-0.495878564	-0.9628948034	-1.8409352041	 0.118297
H	 1.0188967436	-0.0370055203	-1.9833848752	 0.104291
H	 1.4535857389	-2.5908169359	-1.5152360833	 0.251747
H	 2.3911807249	 0.1200693004	 2.2325282222	 0.133865
H	 0.7802163338	 0.6469516457	 2.756364451	 0.109792
H	 1.3568731719	-0.9930389636	 3.1270165252	 0.151304
H	-1.1554350318	-0.2500480178	 1.5732040925	 0.22377
114.8607	144.482	189.1452	196.62	220.6215	264.4819	308.0824	384.2025	456.5904	492.7715	511.7004	540.2737	666.8809	685.8458	719.3121	796.5396	844.3978	888.685	953.2195	987.5223	1042.4827	1065.4079	1070.6718	1108.0539	1128.0639	1145.3552	1208.5226	1230.0506	1302.9993	1346.2157	1382.3006	1415.8952	1420.1242	1432.8797	1461.8688	1476.2206	1489.3549	1491.167	1506.1339	1516.4371	1828.1998	3004.9463	3029.31	3039.3335	3049.3442	3089.5507	3106.1053	3109.5586	3115.4775	3457.4067	3652.2865
CC12CNC(=O)C1(C)N2	C[C@@]12CNC(=O)[C@]1(C)N2	
InChI=1S/C6H10N2O/c1-5-3-7-4(9)6(5,2)8-5/h8H,3H2,1-2H3,(H,7,9)	InChI=1S/C6H10N2O/c1-5-3-7-4(9)6(5,2)8-5/h8H,3H2,1-2H3,(H,7,9)/t5-,6+/m1/s1
