18
gdb 30943	2.35628	1.3288	0.89733	4.9297	76.18	-0.1761	0.0497	0.2258	1294.7417	0.148464	-435.329602	-435.320098	-435.319154	-435.36403	34.683	
C	 0.0198748147	 1.5995001167	 0.2664979362	-0.364885
C	-0.0177676072	 0.1071839599	-0.111742734	-0.310505
C	-1.3897297757	-0.4764989443	-0.1361222263	 0.283217
C	-2.1154418759	-1.0151572889	-1.1444143654	 0.190484
N	-1.8206782079	-1.3104811407	-2.4852550063	-0.609668
N	-3.3719879954	-1.3510880003	-0.6344587312	-0.365993
C	-3.4482846959	-1.0870537207	 0.7306910655	 0.433562
O	-4.3698131662	-1.308759099	 1.49188474	-0.435231
N	-2.217089102	-0.5146854701	 1.0041315356	-0.407454
H	 1.0486719291	 1.9721917406	 0.2751426755	 0.116059
H	-0.5585172204	 2.1964635751	-0.4447092727	 0.12329
H	-0.4042923712	 1.7696754095	 1.2610902234	 0.118502
H	 0.4298886253	-0.0251777045	-1.1031773486	 0.098664
H	 0.6233462153	-0.4543393999	 0.583376487	 0.110504
H	-0.8253149258	-1.2730709955	-2.6637095129	 0.247764
H	-2.2864224539	-0.683870726	-3.1361972494	 0.247189
H	-4.0483640283	-1.9254126775	-1.106756567	 0.264574
H	-1.9442866487	-0.2857746445	 1.9434876405	 0.25993
64.5735	119.672	167.8095	175.8091	192.0138	250.0439	281.7127	312.927	391.7643	402.5273	500.1156	564.9527	604.7429	648.5775	668.1889	752.4103	778.9094	794.1473	835.1917	969.6422	1006.0328	1046.746	1076.4609	1103.6954	1193.4399	1240.9081	1264.8525	1291.1532	1343.0284	1368.7002	1397.5862	1409.7976	1465.9625	1476.7186	1496.15	1505.1214	1638.6744	1735.2838	1843.0536	2998.9994	3039.1495	3059.0552	3109.1831	3115.3608	3485.1785	3605.2894	3686.4318	3690.3401
CCC1=C(N)NC(=O)N1	CCc1c(N)[nH]c(=O)[nH]1	
InChI=1S/C5H9N3O/c1-2-3-4(6)8-5(9)7-3/h2,6H2,1H3,(H2,7,8,9)	InChI=1S/C5H9N3O/c1-2-3-4(6)8-5(9)7-3/h2,6H2,1H3,(H2,7,8,9)
