15
gdb 105294	2.39427	1.14165	0.91675	3.0377	68.66	-0.2766	-0.0621	0.2145	1259.0416	0.11092	-453.923743	-453.914643	-453.913699	-453.958477	31.682	
O	 0.1204391251	 1.3902728211	-0.0689301801	-0.399766
C	 0.0498497617	 0.0340053119	 0.3007816815	-0.116941
C	-1.3503568489	-0.5209161123	 0.0661036877	 0.106721
N	-1.6733454881	-0.8242595511	-1.334374825	-0.3574
C	-1.6235774855	-1.942496671	-0.3845432318	-0.157266
C	-0.5207372484	-2.9390652563	-0.5800053645	 0.164706
O	-0.5395556183	-4.0342094209	-0.0830840698	-0.23673
C	-2.3902129571	 0.0823103669	 0.8743564355	 0.267252
N	-3.2279045262	 0.5629581185	 1.5100550771	-0.321961
H	-0.0493683157	 1.4412588052	-1.0167792723	 0.29822
H	 0.7732209066	-0.5818524857	-0.2486159383	 0.105737
H	 0.2956694658	-0.0162991348	 1.3651556801	 0.140869
H	-2.6357639421	-0.5824646554	-1.5567400629	 0.266884
H	-2.5503530744	-2.3795046416	-0.0221669061	 0.138295
H	 0.3051764156	-2.5965277449	-1.2377396811	 0.101381
64.1332	80.0932	112.87	158.8964	204.3418	268.856	335.4512	367.6565	417.686	453.0978	492.8007	588.6561	603.643	721.6966	841.1325	909.8055	973.6749	983.3976	1025.2163	1067.8426	1089.5512	1097.3199	1189.0934	1213.8823	1279.1506	1324.67	1370.7658	1391.1475	1420.9019	1445.422	1490.2899	1828.1709	2353.7031	2917.5516	3027.292	3102.0787	3159.9355	3516.8014	3799.5468
OCC1(NC1C=O)C#N	OC[C@]1(N[C@H]1C=O)C#N	
InChI=1S/C5H6N2O2/c6-2-5(3-9)4(1-8)7-5/h1,4,7,9H,3H2	InChI=1S/C5H6N2O2/c6-2-5(3-9)4(1-8)7-5/h1,4,7,9H,3H2/t4-,5+/m0/s1
