21
gdb 68294	2.75674	1.4418	1.35445	1.1558	82.61	-0.2559	0.0796	0.3355	1084.747	0.183078	-387.031935	-387.023792	-387.022847	-387.064391	32.851	
O	-0.1110041821	 1.3331262483	 0.0134372155	-0.478263
C	 0.0417477406	-0.040984954	 0.0004241867	 0.329037
C	 0.7070043817	-0.9441833725	-1.0867587408	-0.297728
C	 0.109192253	-1.9047675962	-0.0181554874	-0.122325
C	 0.6924564242	-0.9663312628	 1.0778054117	-0.297682
C	-1.1628222948	-1.0047238012	-0.0175369277	 0.411269
C	-2.2627947282	-1.0779971015	 1.0706741278	-0.325212
C	-3.285021548	-1.4592601273	-0.0365222303	-0.217813
C	-2.2479893272	-1.0555377561	-1.1217698815	-0.325211
H	 0.7611755653	 1.7415367755	 0.0214840034	 0.282433
H	 0.2450770803	-0.9497647674	-2.0760176745	 0.097756
H	 1.7989613137	-0.9126754425	-1.1507881103	 0.081001
H	 0.1441418299	-2.9922734566	-0.0290610475	 0.077018
H	 1.7834449379	-0.9363070491	 1.1571630997	 0.080998
H	 0.2172565545	-0.9920481741	 2.0604339369	 0.097757
H	-2.1222841845	-1.7994589072	 1.8801139708	 0.095259
H	-2.4669329388	-0.0982016261	 1.5134119354	 0.110029
H	-3.5042309282	-2.530150189	-0.0489742831	 0.099299
H	-4.231819529	-0.9150110999	-0.0373455458	 0.097108
H	-2.446251744	-0.066831832	-1.5470297304	 0.110018
H	-2.0964893362	-1.760265218	-1.9438730286	 0.095253
79.3022	181.3257	213.3003	229.64	254.5224	386.3605	389.7879	470.6435	561.4535	613.803	652.3678	702.1946	757.0257	771.3573	821.03	865.4456	905.4657	943.1581	948.5239	952.5507	961.7719	985.0894	1031.5235	1042.3262	1068.6251	1108.8753	1120.2324	1143.3245	1147.9685	1167.0114	1202.396	1210.6094	1211.8726	1220.4756	1254.814	1267.0651	1279.0276	1294.4972	1297.7463	1395.4724	1470.9009	1480.0775	1493.5522	1503.9662	1538.1793	3046.4715	3048.1903	3049.5101	3054.5151	3063.3701	3091.5446	3098.2285	3119.3493	3122.3793	3124.6423	3136.6054	3810.5567
OC12CC(C1)C21CCC1	O[C@@]12C[C@@H](C1)C12CCC1	
InChI=1S/C8H12O/c9-8-4-6(5-8)7(8)2-1-3-7/h6,9H,1-5H2	InChI=1S/C8H12O/c9-8-4-6(5-8)7(8)2-1-3-7/h6,9H,1-5H2/t6-,8-
