12
gdb 133619	3.10618	0.98549	0.86632	1.5682	48.68	-0.2711	-0.1131	0.158	1240.2106	0.070879	-604.146523	-604.137851	-604.136906	-604.181984	29.124	
F	-0.3928020119	 0.2419483257	-0.2572069298	-0.073108
C	-0.0089409526	 1.4856259525	 0.0476348243	 0.302595
F	 1.3194503458	 1.5563407707	-0.0850964853	-0.073208
F	-0.5519710373	 2.3121631823	-0.8619999747	-0.079703
C	-0.4569240433	 1.8869510838	 1.4405735185	-0.463364
C	 0.1033606356	 1.0120677961	 2.545855671	 0.288839
O	 0.8409464523	 0.0716286951	 2.3913470415	-0.254445
C	-0.3276323714	 1.3863438873	 3.9713401183	 0.098116
O	-1.0598829457	 2.3080019971	 4.2148143617	-0.213862
H	-0.1695175017	 2.9271394047	 1.6250014823	 0.173207
H	-1.5505974943	 1.8675207104	 1.4862222377	 0.173199
H	 0.1076042045	 0.7183590743	 4.7425158345	 0.121732
20.7906	87.8704	133.8652	135.5775	196.8311	324.0348	338.2008	452.8902	488.1036	537.272	538.5037	564.922	707.6052	848.4567	860.0502	874.4267	1010.6467	1121.1031	1132.3019	1210.261	1277.8643	1298.3464	1361.6787	1394.4236	1429.4759	1820.0727	1825.4328	2942.1923	3070.4721	3108.6145
FC(F)(F)CC(=O)C=O	FC(F)(F)CC(=O)C=O	
InChI=1S/C4H3F3O2/c5-4(6,7)1-3(9)2-8/h2H,1H2	InChI=1S/C4H3F3O2/c5-4(6,7)1-3(9)2-8/h2H,1H2
