13
gdb 21925	5.28062	1.602	1.23861	3.084	61.33	-0.2354	-0.0699	0.1656	901.6491	0.096616	-394.778287	-394.771343	-394.770398	-394.810342	24.302	
O	-0.0085418165	 1.4265090981	 0.0081280736	-0.41787
C	-0.0028829074	 0.0131567999	 0.0021710473	-0.145029
C	-1.4287213954	-0.4770857425	 0.0124989629	 0.305926
C	-2.5327974632	 0.3827455956	 0.023700368	-0.031586
N	-3.767050304	-0.1039242042	 0.0323066537	-0.234738
C	-3.8421698398	-1.4385165882	 0.0292732755	 0.10401
N	-2.823376412	-2.297103464	 0.0188452666	-0.184248
N	-1.591162904	-1.7993291014	 0.0103038432	-0.234057
H	 0.9013612724	 1.7352781321	 0.0017964302	 0.300317
H	 0.4988895163	-0.3961157472	-0.8879369075	 0.124963
H	 0.5142675411	-0.4036340257	 0.8798714891	 0.124994
H	-2.4017680385	 1.4592121688	 0.0255944599	 0.15063
H	-4.832427439	-1.8846764712	 0.0360863776	 0.136687
38.0971	172.3419	221.1593	222.3805	389.89	441.5433	446.0303	620.3847	647.2492	795.3998	838.1469	928.7828	1007.4906	1049.071	1064.7536	1084.927	1120.7292	1149.3284	1202.4572	1220.323	1242.4562	1301.8534	1400.6659	1446.1461	1461.2489	1503.4716	1559.1816	1604.81	2984.211	3011.6091	3184.463	3200.9942	3847.8457
OCC1=CN=CN=N1	OCc1cncnn1	
InChI=1S/C4H5N3O/c8-2-4-1-5-3-6-7-4/h1,3,8H,2H2	InChI=1S/C4H5N3O/c8-2-4-1-5-3-6-7-4/h1,3,8H,2H2
