19
gdb 54211	2.98346	1.28908	1.17237	2.4877	76.38	-0.2401	-0.0143	0.2258	1139.0473	0.157426	-423.058432	-423.049334	-423.04839	-423.093128	34.212	
C	-0.4141124141	 1.6342247486	-0.2221892697	-0.473261
C	 0.0637241645	 0.2348034	 0.0892841242	 0.353223
O	 0.3155989248	-0.1336206508	 1.2148467463	-0.32055
C	 0.2310389736	-0.7463155881	-1.0791061203	 0.271086
O	-0.1264622376	-0.0678615267	-2.2786692116	-0.483091
C	 1.685803128	-1.2965473467	-1.1747518785	-0.291981
C	 1.4827509305	-2.7147565477	-1.6542937518	-0.079193
C	 0.219412756	-3.1113294054	-1.5021397274	-0.079199
C	-0.6385687606	-2.0262291822	-0.8947810703	-0.292008
H	 0.2699782307	 2.117695763	-0.9266121004	 0.148983
H	-1.384937115	 1.5971406945	-0.7262588481	 0.148952
H	-0.4826215116	 2.207787193	 0.702506665	 0.131464
H	-0.0174970378	-0.6937976148	-3.0032183568	 0.283712
H	 2.280216335	-0.6715727993	-1.8498237978	 0.108815
H	 2.1716214548	-1.2820813378	-0.1918614129	 0.134735
H	 2.2949370452	-3.3276737941	-2.0287092389	 0.097391
H	-0.1630929721	-4.0992962695	-1.7326037884	 0.097387
H	-0.8213100512	-2.2216085773	 0.1685791414	 0.134717
H	-1.610818483	-1.8930325186	-1.3812507438	 0.108816
20.1406	101.7583	162.5004	207.5351	270.9147	343.2504	346.4287	376.0777	384.0563	446.8414	527.5686	594.6124	602.0218	700.8386	778.9594	789.8422	899.2678	908.1826	943.9833	948.9254	972.201	978.3937	1008.5	1016.983	1102.3989	1104.2861	1128.202	1182.228	1201.3755	1238.4764	1283.5552	1310.4648	1357.0433	1377.5893	1397.6342	1454.8513	1463.6133	1466.5394	1472.5289	1679.5701	1805.0513	3035.9412	3037.5587	3048.7929	3078.5861	3078.7495	3111.0159	3158.7722	3185.023	3209.9022	3802.7032
CC(=O)C1(O)CC=CC1	CC(=O)[C@@]1(O)CC=CC1	
InChI=1S/C7H10O2/c1-6(8)7(9)4-2-3-5-7/h2-3,9H,4-5H2,1H3	InChI=1S/C7H10O2/c1-6(8)7(9)4-2-3-5-7/h2-3,9H,4-5H2,1H3
