22
gdb 80882	2.45081	1.7286	1.42795	1.6353	85.18	-0.2222	0.0852	0.3074	1052.0857	0.195632	-367.161093	-367.153019	-367.152075	-367.192913	33.396	
C	-0.079439662	 1.6289729023	-0.0015285441	-0.445688
C	-0.0189879081	 0.1035689625	 0.0066466846	-0.005676
C	 1.0752042994	-0.5740310831	-0.8710360071	-0.008174
C	 2.0724261123	-0.2674021379	 0.2835868112	-0.258182
C	 0.7935281174	-0.5919646522	 1.1502963878	 0.323817
C	 0.658304828	-0.2167048829	 2.6076393145	-0.510862
C	 0.6851685129	-2.0845839133	 0.7731975779	-0.062406
C	-0.3272785089	-2.5762171881	-0.1970136524	-0.265586
N	 0.9626404854	-2.0624324391	-0.6925106718	-0.113625
H	 0.8902693847	 2.1166728925	 0.122014945	 0.119326
H	-0.5034291061	 1.9812841078	-0.9484246476	 0.117646
H	-0.7335138403	 1.9899954646	 0.8001056827	 0.11759
H	-1.0424836188	-0.250354995	-0.1312234326	 0.058967
H	 1.2547472484	-0.2904408997	-1.9083225886	 0.066264
H	 2.9221756044	-0.948536541	 0.3725654448	 0.100096
H	 2.4076251301	 0.7675267739	 0.3457569884	 0.095151
H	 0.8164115962	 0.8556163847	 2.7611178486	 0.116971
H	-0.3377058233	-0.4672010891	 2.9905410771	 0.118144
H	 1.391780446	-0.7514508198	 3.2222395457	 0.117487
H	 1.2486140032	-2.7943005507	 1.3764975471	 0.086955
H	-0.4160428671	-3.6524823636	-0.3224645318	 0.113664
H	-1.2545874638	-2.0459035727	-0.3765347895	 0.11812
173.1228	202.4805	215.4239	231.3605	296.9538	336.5516	382.1857	450.3215	532.0726	566.7663	605.6311	642.5455	753.9433	783.0547	803.3431	828.6473	862.2345	890.3626	934.915	979.0154	1001.4722	1014.2133	1036.6075	1066.6399	1074.9131	1092.632	1108.5664	1116.9749	1126.7867	1160.0914	1199.1899	1210.1192	1233.0929	1244.0595	1250.2549	1265.2533	1281.3041	1375.4967	1406.1922	1411.9281	1416.2124	1488.82	1491.9706	1496.7628	1501.0867	1514.9881	1518.4349	3024.3288	3032.9293	3071.3959	3075.2955	3085.6773	3087.6981	3096.9126	3113.1732	3115.1716	3116.8573	3125.9929	3146.1122	3206.1909
CC1C2CC1(C)C1CN21	C[C@H]1[C@H]2C[C@]1(C)[C@H]1CN21	
InChI=1S/C8H13N/c1-5-6-3-8(5,2)7-4-9(6)7/h5-7H,3-4H2,1-2H3	InChI=1S/C8H13N/c1-5-6-3-8(5,2)7-4-9(6)7/h5-7H,3-4H2,1-2H3/t5-,6+,7+,8-,9?/m0/s1
