13
gdb 42649	3.03889	1.48131	1.22212	3.1696	70.95	-0.2404	-0.0214	0.219	992.985	0.087699	-419.331874	-419.324851	-419.323906	-419.363451	27.238	
O	 0.000528137	 0.0637668629	-0.0466413328	-0.323527
C	-0.0068285842	 1.2539937237	 0.0602467247	 0.475237
C	-1.0658005277	 2.3153888713	-0.0039890347	-0.294319
C	-0.3980998308	 3.5319901651	 0.6193885869	 0.033883
O	 0.8346290446	 3.1296108333	 1.2134568452	-0.277982
C	 1.0833373646	 2.3559103504	 0.010954286	-0.14092
C	 0.0015527491	 3.2071909638	-0.7808024973	 0.254016
C	-0.0747426114	 3.8075451488	-2.0502037313	 0.029145
C	-0.1220873386	 4.3197465231	-3.1383050493	-0.349607
H	-2.1233970398	 2.2381517221	-0.2113998691	 0.136738
H	-0.9404858812	 4.3721320496	 1.032631605	 0.14137
H	 2.1292409147	 2.1881962012	-0.2272923839	 0.122506
H	-0.1629533962	 4.7738912147	-4.0975817392	 0.19346
96.4693	160.901	222.1344	419.4731	453.8234	470.0374	517.9203	565.8649	600.3305	629.2668	678.334	702.0374	757.7027	805.1389	839.2539	901.305	927.7628	970.8944	1015.1376	1036.4833	1081.4533	1116.5822	1126.654	1193.594	1221.6549	1297.6775	1419.7043	1895.8748	2236.5837	3184.1031	3214.1758	3237.3752	3499.5241
O=C1C2C3OC1C23C#C	O=C1[C@H]2[C@H]3O[C@@H]1[C@@]23C#C	
InChI=1S/C7H4O2/c1-2-7-3-4(8)6(7)9-5(3)7/h1,3,5-6H	InChI=1S/C7H4O2/c1-2-7-3-4(8)6(7)9-5(3)7/h1,3,5-6H/t3-,5+,6-,7-/m0/s1
