16
gdb 32463	3.17556	1.1661	0.86921	1.8592	67.87	-0.1891	0.0286	0.2177	1261.5413	0.123754	-475.029258	-475.020033	-475.019088	-475.063382	33.256	
N	 0.0863331873	 1.4615871309	-0.1271213736	-0.619494
C	 0.0590121631	 0.0585557298	 0.0245653548	-0.017736
C	-1.019293118	-0.7699733044	-0.0057961793	 0.333382
O	-2.3382960485	-0.488757761	-0.05469373	-0.431872
O	-0.6441442323	-2.0757190819	 0.0599535906	-0.183089
C	 0.7222320965	-2.0789736804	 0.1484234367	-0.132866
C	 1.207464524	-0.8095902903	 0.1341692633	 0.190452
C	 2.6467811583	-0.3931554579	 0.1721501591	-0.173249
O	 3.5331712426	-1.4433949949	-0.1825303953	-0.411957
H	 0.4988775777	 1.9252746296	 0.675828843	 0.243311
H	-0.8539383929	 1.8233682484	-0.2420503725	 0.245402
H	-2.7550316205	-1.0170544934	-0.7468423714	 0.306919
H	 1.1905349889	-3.0453261026	 0.2134150064	 0.142298
H	 2.7830348342	 0.4940909164	-0.4670951595	 0.107167
H	 2.9444262109	-0.0953148426	 1.1856245467	 0.12031
H	 3.2794131987	-1.7396428055	-1.0634065791	 0.281022
72.4059	125.0849	145.8134	175.552	244.7239	275.2801	297.6609	310.2454	368.1004	378.9238	533.5422	612.1926	632.9874	673.4022	712.6743	761.3136	775.4664	847.6409	977.8335	996.2872	1070.3085	1129.8697	1165.0408	1195.4784	1212.2318	1248.9697	1308.658	1326.1484	1378.929	1418.9789	1470.7921	1506.7771	1611.9951	1653.7155	1729.6929	2977.3053	3037.7831	3293.8791	3502.5087	3588.1346	3772.0487	3805.4502
NC1=C(O)OC=C1CO	Nc1c(O)occ1CO	
InChI=1S/C5H7NO3/c6-4-3(1-7)2-9-5(4)8/h2,7-8H,1,6H2	InChI=1S/C5H7NO3/c6-4-3(1-7)2-9-5(4)8/h2,7-8H,1,6H2
