15
gdb 126493	2.67011	1.49586	0.97008	1.0455	71.17	-0.2596	-0.0923	0.1672	1156.5572	0.111087	-453.896599	-453.888505	-453.88756	-453.929959	29.327	
C	 0.0372516948	 1.5425559887	-0.0598288023	-0.387529
C	-0.0680136021	 0.0190736419	-0.0553162301	-0.258264
C	-1.4626119299	-0.531193874	 0.0457218635	 0.256152
N	-2.4538973698	 0.2932198028	 0.1238753831	-0.110922
O	-3.739312059	-0.2029559142	 0.2172855223	-0.215742
N	-4.0313100054	-1.5386016181	 0.2322091809	-0.041497
C	-3.0537606773	-2.37376883	 0.1548897596	-0.015933
C	-1.6484468052	-1.9936979622	 0.05200177	 0.272811
O	-0.7293090171	-2.790796686	-0.0207380788	-0.33373
H	 1.0858374856	 1.8415353491	-0.1363463739	 0.119031
H	-0.5070792298	 1.9770651845	-0.9022978859	 0.135235
H	-0.3778400036	 1.9734593998	 0.8549586551	 0.135347
H	 0.3825767182	-0.4140736844	-0.9577458017	 0.142032
H	 0.5091393456	-0.4173592831	 0.7702531255	 0.141991
H	-3.327713725	-3.4249723648	 0.1698894928	 0.161018
55.3853	104.3451	182.0182	211.6996	289.926	323.1981	433.1694	495.405	497.8436	539.78	604.4509	713.4309	745.7656	818.0491	831.2177	883.3216	949.1666	955.4693	1000.3328	1094.7936	1099.5426	1167.8651	1273.1616	1294.5748	1338.622	1407.9873	1418.5534	1452.1747	1494.896	1500.3678	1608.3963	1637.9945	1763.2723	3033.2583	3052.4533	3054.7976	3125.562	3125.9656	3183.1831
CCC1=NON=CC1=O	CCc1noncc1=O	
InChI=1S/C5H6N2O2/c1-2-4-5(8)3-6-9-7-4/h3H,2H2,1H3	InChI=1S/C5H6N2O2/c1-2-4-5(8)3-6-9-7-4/h3H,2H2,1H3
