18
gdb 79723	2.70601	1.69992	1.38075	3.7217	75.68	-0.2337	0.0301	0.2638	994.3001	0.148618	-401.926481	-401.918737	-401.917793	-401.958797	29.67	
C	-0.0485570226	 1.4095460748	-0.1359143262	-0.350126
N	-0.0297117111	-0.0182661926	 0.0556178289	-0.055113
C	-1.0782028707	-1.0376172412	 0.0184237313	-0.015937
C	-1.5932736744	-1.5346021362	-1.3645463668	-0.066676
C	-0.5128722815	-1.4997862733	-2.4087465481	-0.30952
C	-0.4882736171	-2.5977307635	-1.3882076575	-0.043573
C	 0.0379402407	-2.1105331885	-0.0088257337	-0.197054
C	 1.025655224	-0.914228175	-0.007180876	 0.378003
O	 2.2147433734	-0.7374764694	-0.0638262359	-0.376362
H	 0.9888033066	 1.7510853173	-0.1830107	 0.1595
H	-0.5548272578	 1.6837507689	-1.0701734832	 0.128715
H	-0.5511727187	 1.9197596376	 0.6938369624	 0.128026
H	-1.8192278009	-0.9846818042	 0.8172245755	 0.085571
H	-2.6405185425	-1.6346890888	-1.62109208	 0.090465
H	-0.8347849995	-1.8074140689	-3.3983453146	 0.117552
H	 0.244057063	-0.721129676	-2.4144270262	 0.132035
H	-0.5554883902	-3.6414256759	-1.6656259282	 0.096747
H	 0.1345325792	-2.8614290453	 0.7718954384	 0.097746
108.7616	135.2371	145.0237	234.2676	269.6398	362.6236	476.3616	550.4649	660.4878	708.1784	748.4725	777.8728	784.2584	814.4395	892.956	912.4716	942.1169	960.1214	993.434	1017.3802	1045.7114	1053.5973	1078.0404	1091.8043	1140.59	1151.8984	1177.2163	1188.554	1239.1998	1277.4379	1279.0338	1295.0839	1354.6689	1393.6686	1444.9728	1483.725	1490.3078	1514.6937	1866.9095	3014.3146	3068.4146	3101.1121	3123.6335	3124.8841	3148.6988	3185.5329	3197.144	3210.4774
CN1C2C3CC3C2C1=O	CN1[C@H]2[C@H]3C[C@H]3[C@H]2C1=O	
InChI=1S/C7H9NO/c1-8-6-4-2-3(4)5(6)7(8)9/h3-6H,2H2,1H3	InChI=1S/C7H9NO/c1-8-6-4-2-3(4)5(6)7(8)9/h3-6H,2H2,1H3/t3-,4+,5-,6+/m1/s1
