23
gdb 96116	2.09846	1.71116	1.17149	1.2052	84.6	-0.2471	0.0747	0.3217	1167.014	0.206947	-388.300203	-388.291288	-388.290344	-388.33306	35.96	
C	-0.096432883	 1.5538544559	 0.0027469226	-0.415771
C	 0.0399716436	 0.0255632011	-0.0028763589	-0.017905
C	 0.677950543	-0.4928345253	-1.3031385794	-0.210906
C	 0.8743765462	-2.0117352872	-1.2576616516	-0.201489
C	 1.8746717933	-2.4241895312	-0.1658093201	-0.223481
C	 1.6479871211	-1.6994504511	 1.1602647144	-0.070581
C	 2.2561345993	-0.3246356719	 1.3953047911	-0.354455
C	 0.7653699809	-0.4838000677	 1.2381235265	 0.41934
O	-0.0005788764	-0.4104427419	 2.4176698011	-0.479689
H	 0.8859602623	 2.0379807027	-0.0312065517	 0.114718
H	-0.671683022	 1.8997907449	-0.8623534589	 0.112162
H	-0.6162695211	 1.9083485011	 0.8998139496	 0.100469
H	-0.9697203569	-0.4048684905	 0.0575358906	 0.079177
H	 0.0353092618	-0.2151341943	-2.1465963468	 0.092365
H	 1.6421225358	 0.0053793141	-1.4788626736	 0.091329
H	-0.0969411014	-2.4846343744	-1.0615383876	 0.097711
H	 1.2132753111	-2.3853998075	-2.2302622388	 0.088879
H	 1.8115587038	-3.505167701	-0.0036256724	 0.09835
H	 2.8961412301	-2.2309867227	-0.5182626749	 0.097344
H	 1.6029936777	-2.3270845992	 2.0441429347	 0.093287
H	 2.6252987181	-0.1005801831	 2.3902011799	 0.105471
H	 2.8299120643	 0.1194146644	 0.5870105714	 0.104937
H	-0.0309277117	 0.5122518148	 2.6926854729	 0.278739
98.0914	194.9438	229.653	236.6379	261.9978	292.3821	338.2733	360.9223	418.4022	453.484	485.7894	512.5887	622.2989	658.2626	780.9076	844.0183	851.2141	894.0074	896.2352	927.8082	943.7484	962.9167	996.955	1025.4584	1046.9753	1064.6107	1108.5277	1118.2152	1138.7397	1154.3543	1185.6687	1210.7186	1236.4589	1286.9544	1299.9065	1326.867	1339.5212	1366.4169	1370.62	1379.6463	1388.2223	1406.5101	1407.5572	1478.4252	1489.1211	1492.8307	1497.7287	1502.6491	1503.9369	3001.6076	3011.5496	3017.8718	3020.8658	3026.0165	3058.058	3063.5357	3071.7424	3090.27	3098.1986	3120.0601	3162.2459	3210.8112	3798.2128
CC1CCCC2CC12O	C[C@H]1CCC[C@H]2C[C@@]12O	
InChI=1S/C8H14O/c1-6-3-2-4-7-5-8(6,7)9/h6-7,9H,2-5H2,1H3	InChI=1S/C8H14O/c1-6-3-2-4-7-5-8(6,7)9/h6-7,9H,2-5H2,1H3/t6-,7-,8+/m0/s1
