17
gdb 41219	2.36173	1.90655	1.1476	4.1669	74.4	-0.2282	-0.021	0.2072	1045.666	0.136435	-421.820059	-421.812464	-421.81152	-421.852688	28.789	
C	 0.004879192	 1.3455360361	-0.3643941382	-0.272467
C	 1.4508652084	 0.9160080816	 0.0109737604	-0.306319
C	 1.605997487	 0.008647915	 1.2458955495	 0.355696
O	 2.6147857869	-0.6044945059	 1.4808963091	-0.299135
C	-0.8359888502	-0.306247825	 1.1749038067	 0.273456
C	-1.182968674	-1.4915723906	 2.0401127038	-0.173897
O	 0.0548916067	-1.3035340885	 2.7874510746	-0.291132
C	 0.3355401823	-0.0763100524	 2.083140249	-0.024217
C	-1.0118552745	 0.2780646666	 0.0012982162	-0.23561
H	-0.2501363063	 2.287716382	 0.1390497466	 0.121528
H	-0.032765609	 1.5634138879	-1.4354327496	 0.116008
H	 1.9042785824	 0.357613718	-0.81397479	 0.144734
H	 2.0886418899	 1.7944799488	 0.1639808271	 0.133276
H	-2.0613776444	-1.3744911744	 2.6885742137	 0.1184
H	-1.2275731174	-2.4685881644	 1.5447016172	 0.129182
H	 0.2762135401	 0.802952461	 2.7464019166	 0.107208
H	-1.8046172597	 0.014407734	-0.6912116127	 0.103288
53.4432	127.8826	215.7355	260.8993	328.5585	423.8881	460.2416	517.0351	563.5493	637.4722	722.8208	740.3579	832.488	900.7325	907.0644	931.2955	973.3543	988.4544	1030.6437	1032.628	1064.0842	1101.1869	1135.9652	1153.9477	1184.2499	1210.1888	1248.2851	1296.0182	1310.8637	1319.0575	1348.0167	1353.1957	1446.5434	1489.5971	1504.916	1787.0988	1830.2162	2963.1429	3011.812	3016.7046	3047.2024	3059.8429	3080.1258	3094.8187	3182.4814
C1CC23OC4(COC24)C13	C1CC(=O)[C@H]2[C](CO2)[CH]1	
InChI=1S/C7H8O2/c1-2-6-4(1)7(9-6)3-8-5(6)7/h4-5H,1-3H2	InChI=1S/C7H8O2/c8-6-3-1-2-5-4-9-7(5)6/h2,7H,1,3-4H2/t7-/m1/s1
