20
gdb 109857	2.51663	1.4249	1.07622	4.0864	74.37	-0.2338	0.0645	0.2983	1173.5458	0.171444	-440.239472	-440.230655	-440.229711	-440.272591	34.289	
C	-0.1281586845	 1.5056159484	 0.163430161	-0.511548
C	 0.1144255357	 0.0374513008	-0.0021906846	 0.330715
N	-0.7134340198	-0.9770782853	 0.7090855658	-0.39603
C	 0.7620986615	-0.9523251178	 0.9064041288	-0.146106
C	 1.2907825644	-1.7673592783	-0.2778140126	 0.122969
O	 0.7980174743	-3.0860001274	-0.385221841	-0.441382
C	 0.6647601159	-0.6827005254	-1.2475110952	-0.092936
C	-0.2935609972	-1.2000387902	-2.3166184689	-0.096335
O	 0.3336070223	-2.1803006102	-3.1276316304	-0.430578
H	 0.7299278551	 2.0838583354	-0.1950122921	 0.131132
H	-1.008035214	 1.8304115292	-0.4036724127	 0.134198
H	-0.2928286737	 1.7648003315	 1.215330936	 0.118328
H	-1.1375559493	-0.5212997063	 1.5156202014	 0.230817
H	 1.1848743846	-0.8339005043	 1.8972921629	 0.094402
H	 2.3783248017	-1.8206615621	-0.343417147	 0.094014
H	-0.1161182067	-3.0358249632	-0.0680884593	 0.297562
H	 1.4685897043	-0.1017191706	-1.7103140351	 0.07671
H	-1.204347929	-1.5895560031	-1.8401664885	 0.09346
H	-0.5987378576	-0.3876156309	-2.9856178744	 0.100367
H	 0.5665855619	-2.8987604402	-2.5241904642	 0.29024
128.3487	134.7992	166.5847	213.315	247.651	265.8411	342.3798	350.2609	506.8105	523.1002	554.2719	590.9937	637.6145	683.2899	726.1057	795.719	840.6306	925.73	932.1436	970.4453	977.9238	1018.4344	1057.2107	1075.4401	1091.6435	1096.0844	1120.5581	1137.0231	1180.762	1221.9205	1233.5875	1280.4782	1303.7738	1327.9501	1358.5097	1392.9491	1411.5113	1439.4591	1444.1437	1458.5919	1482.9654	1498.4835	1514.7608	3004.2191	3025.0781	3055.0071	3070.3303	3088.4958	3097.4213	3107.7613	3182.5802	3483.5688	3726.3553	3754.1834
CC12NC1C(O)C2CO	C[C@]12N[C@H]1[C@@H](O)[C@H]2CO	
InChI=1S/C6H11NO2/c1-6-3(2-8)4(9)5(6)7-6/h3-5,7-9H,2H2,1H3	InChI=1S/C6H11NO2/c1-6-3(2-8)4(9)5(6)7-6/h3-5,7-9H,2H2,1H3/t3-,4+,5+,6-/m1/s1
