23
gdb 114621	2.11732	1.30451	0.94692	1.5285	86.15	-0.2482	0.0692	0.3175	1360.3081	0.205148	-388.26218	-388.252342	-388.251398	-388.297042	36.955	
C	 0.0013174592	 1.5836604701	-0.0628872839	-0.381207
C	-0.0131962564	 0.0698443044	 0.1734639756	-0.195023
C	-1.3961549473	-0.5487916142	-0.0079196353	-0.016593
C	-2.0277459815	-0.6693073711	-1.4409134259	-0.252058
C	-2.2214141635	-2.1738009881	-1.2091782361	-0.121978
C	-0.8918335945	-2.8216567967	-0.945746416	-0.321034
C	-1.5652337279	-2.0686998029	 0.1715187049	 0.384971
C	-1.9387040935	-2.721994008	 1.4624248533	-0.206764
O	-0.7977532706	-2.7023069048	 2.3186205353	-0.418983
H	 1.0046361857	 1.9994742064	 0.072995633	 0.109427
H	-0.3256875703	 1.832141317	-1.0788493307	 0.114141
H	-0.6695021424	 2.0997114811	 0.6335757418	 0.109901
H	 0.7010730888	-0.4115783623	-0.5060903685	 0.09064
H	 0.3329296413	-0.1567837731	 1.1892068924	 0.110471
H	-2.1037991534	-0.0320614439	 0.6523073364	 0.06229
H	-2.9608871988	-0.1113874719	-1.5436774915	 0.098593
H	-1.3743011706	-0.4089761739	-2.2814811522	 0.092184
H	-3.0915010959	-2.7502508427	-1.5017085638	 0.081972
H	-0.9092086846	-3.9016529461	-0.835929033	 0.108167
H	 0.0087632034	-2.4417307599	-1.4210696552	 0.10506
H	-2.7792611347	-2.179245844	 1.9258276561	 0.080618
H	-2.2786226438	-3.7540749104	 1.2746130934	 0.080608
H	-1.0727767487	-3.0078785248	 3.1884794699	 0.284597
71.3721	94.7477	116.791	165.7405	212.4668	248.3852	264.016	313.1468	347.7062	403.0873	456.4029	486.2486	661.3187	736.274	774.6122	813.5583	851.7827	904.7846	918.6948	952.936	968.0682	978.8262	1005.5866	1027.0803	1042.4302	1057.8527	1081.6812	1087.9324	1129.9641	1152.4436	1181.077	1210.4926	1235.5444	1244.4561	1256.7509	1270.0243	1290.6174	1326.3475	1337.9952	1379.4335	1407.2308	1410.552	1466.6451	1483.5425	1488.0488	1499.161	1505.7479	1507.6326	1514.6087	2953.6558	2981.4693	3019.5414	3026.0605	3029.5883	3037.053	3059.7617	3093.2986	3099.5135	3103.1706	3112.5724	3173.777	3197.9759	3820.291
CCC1CC2CC12CO	CC[C@H]1C[C@H]2C[C@@]12CO	
InChI=1S/C8H14O/c1-2-6-3-7-4-8(6,7)5-9/h6-7,9H,2-5H2,1H3	InChI=1S/C8H14O/c1-2-6-3-7-4-8(6,7)5-9/h6-7,9H,2-5H2,1H3/t6-,7-,8+/m0/s1
