14
gdb 30998	2.42008	1.40192	0.93268	2.8125	62.24	-0.2164	0.0218	0.2382	1182.9336	0.099588	-510.964444	-510.955902	-510.954957	-510.998126	30.513	
O	 0.0072900346	 1.4545934335	-0.0382381528	-0.407695
C	 0.0155213894	 0.0369908538	 0.0639865666	-0.190482
C	-1.3338559086	-0.5645150195	-0.0532618213	 0.192458
C	-1.9477199995	-1.3362192846	-0.9460522623	 0.273417
O	-1.5115169689	-1.9452631588	-2.0502417343	-0.41223
O	-3.2523760205	-1.5718829379	-0.5530384308	-0.249056
C	-3.4306422106	-0.8875087624	 0.6376041597	 0.503919
N	-4.4745448343	-0.8057472512	 1.3286536944	-0.573569
O	-2.2583858503	-0.2920481839	 0.9678147344	-0.243007
H	-0.532951789	 1.7930902465	 0.6839526643	 0.29578
H	 0.6302848901	-0.3353542132	-0.7596559412	 0.138907
H	 0.4856490945	-0.286427583	 1.0055336903	 0.113804
H	-2.2140998881	-1.947157118	-2.7131783541	 0.319796
H	-5.2339954789	-1.3317753112	 0.905762717	 0.237959
75.6403	110.7771	174.2855	186.1428	237.8506	292.6981	329.2728	349.0896	459.9158	586.5838	615.9098	658.4736	696.4218	728.8714	770.0754	830.4957	921.6398	976.1305	1010.0072	1044.7626	1062.9845	1189.581	1237.1247	1268.3034	1334.8952	1368.2659	1382.8793	1430.931	1484.6088	1793.7875	1863.0192	2987.8836	3104.6025	3553.9931	3782.2958	3813.935
OCC1=C(O)OC(=N)O1	OCC1=C(O)O[C@@H]([NH])O1	
InChI=1S/C4H5NO4/c5-4-8-2(1-6)3(7)9-4/h5-7H,1H2	InChI=1S/C4H6NO4/c5-4-8-2(1-6)3(7)9-4/h4-7H,1H2/t4-/m0/s1
