18
gdb 32931	4.1186	0.93003	0.83935	1.4102	75.71	-0.1744	0.0643	0.2387	1401.7778	0.146842	-439.107206	-439.097929	-439.096984	-439.141926	34.051	
C	-0.1466733387	 1.016903467	 1.05051879	-0.377083
C	-0.018959399	 0.1392738392	-0.1857948491	-0.067901
O	 1.1273962747	-0.7316300564	-0.1302907922	-0.283167
C	 1.0054209447	-1.8166700258	 0.6716381474	 0.344259
C	 1.3485002309	-2.0447468585	 1.9762440855	-0.239457
C	 1.0478964236	-3.4191230348	 2.2690077736	-0.291177
C	 0.5347397929	-3.9634703849	 1.1203185294	 0.369575
O	 0.08849848	-5.2038365235	 0.7876108366	-0.438264
N	 0.493875462	-2.9999321206	 0.1504982754	-0.346386
H	 0.7500846053	 1.6296595519	 1.1809573227	 0.125358
H	-1.0110789792	 1.6818788035	 0.9516683137	 0.113474
H	-0.2842340853	 0.4046724152	 1.9459130503	 0.134181
H	-0.9267655762	-0.4607130907	-0.3343257207	 0.097213
H	 0.1366131519	 0.7474420041	-1.0817929732	 0.10787
H	 1.7747704541	-1.3180858473	 2.6491498291	 0.096094
H	 1.1921922515	-3.9293481068	 3.2087391339	 0.084762
H	 0.2077804036	-5.7780365825	 1.549993005	 0.305634
H	 0.2488937832	-3.1553877793	-0.8121700275	 0.265015
38.1336	85.3871	138.8528	220.6541	235.4422	261.5759	305.1593	378.5593	409.4946	456.0231	503.4217	603.4896	640.9424	687.8232	712.6606	726.4582	798.3646	814.6214	882.0574	996.3561	1013.542	1045.6485	1057.7884	1106.8333	1161.7638	1189.4072	1228.6312	1255.1043	1299.0385	1322.0343	1387.6016	1403.8116	1425.8226	1482.6969	1492.0392	1509.8284	1527.9029	1591.7711	1645.0984	3016.1892	3040.563	3084.229	3112.2011	3126.7048	3243.6865	3262.491	3681.8452	3846.5546
CCOC1=CC=C(O)N1	CCOc1ccc(O)[nH]1	
InChI=1S/C6H9NO2/c1-2-9-6-4-3-5(8)7-6/h3-4,7-8H,2H2,1H3	InChI=1S/C6H9NO2/c1-2-9-6-4-3-5(8)7-6/h3-4,7-8H,2H2,1H3
