16
gdb 34473	1.93484	1.72105	0.93026	4.3958	88.42	-0.2453	-0.065	0.1803	1210.1207	0.124636	-363.6226	-363.614233	-363.613288	-363.6558	30.892	
C	 0.115887298	-1.1983391556	 0.0109616511	-0.366739
C	 0.0217830632	 0.0028061925	 0.0324095444	 0.165857
C	-0.0305070305	 1.4114712496	 0.0610461058	 0.1331
C	-1.1428660346	 2.1813727501	 0.0901036318	 0.118717
C	-0.8127973559	 3.6612198063	 0.0621208095	-0.305
C	 0.7011209342	 3.6822773183	 0.3805008382	-0.223225
C	 1.2188504126	 2.2733601339	 0.010650374	-0.316083
C	-2.4767643647	 1.7014740728	 0.09541011	 0.187025
N	-3.5813928581	 1.3505353261	 0.1034035395	-0.344388
H	 0.1738168294	-2.25880593	-0.0093389514	 0.203086
H	-1.033763262	 4.0737764561	-0.9312335745	 0.129469
H	-1.4091543551	 4.2343703687	 0.7779169589	 0.129411
H	 1.2296449649	 4.4773503051	-0.1495449691	 0.11239
H	 0.8436092439	 3.8516345565	 1.451859915	 0.119924
H	 1.9960945069	 1.9070046777	 0.6873295206	 0.127177
H	 1.6429653678	 2.2375766219	-1.0016189738	 0.129279
105.0886	126.1018	128.1197	194.5026	201.4198	353.6746	461.1602	487.9439	510.4252	571.7668	614.8682	630.7628	653.3353	665.6487	685.8191	850.2511	896.1462	925.337	1002.4889	1020.5812	1053.4077	1154.1301	1161.2821	1196.5562	1230.768	1263.6753	1322.4392	1330.4572	1350.0847	1480.6519	1484.9437	1504.3707	1647.44	2220.4782	2331.1584	3023.3814	3025.3613	3059.532	3082.6838	3085.96	3114.5376	3500.0705
C#CC1=C(CCC1)C#N	C#CC1=C(CCC1)C#N	
InChI=1S/C8H7N/c1-2-7-4-3-5-8(7)6-9/h1H,3-5H2	InChI=1S/C8H7N/c1-2-7-4-3-5-8(7)6-9/h1H,3-5H2
