18
gdb 37579	2.89567	2.49744	1.88501	1.3512	76.41	-0.2082	0.0722	0.2803	799.4657	0.152402	-364.735216	-364.729729	-364.728785	-364.764605	24.842	
C	-0.0011697259	 1.5069488705	 0.0509869527	-0.259504
C	 1.3953525534	 2.0775290691	-0.0586600898	-0.04505
C	 2.4111274979	 1.5337527464	-1.033916353	-0.115712
C	 2.594520788	 1.3479885685	 0.4770319285	-0.039982
N	 2.5102730807	-0.1328546228	 0.3451453328	-0.137676
C	 1.1885118103	-0.802494949	 0.4931906592	-0.039981
C	 0.0355676575	-0.0022469412	-0.0430252403	-0.04505
C	 0.9343808277	-0.7249033219	-1.0169426481	-0.115713
C	 2.2894778447	 0.0004332999	-1.1275561122	 0.005109
H	-0.4493442971	 1.8071573811	 1.007173818	 0.098746
H	-0.6395112421	 1.9183440793	-0.7421930831	 0.097769
H	 1.4657451464	 3.1553411536	 0.0650566227	 0.085331
H	 2.9609441379	 2.1651093172	-1.7201778136	 0.085728
H	 3.3083885576	 1.7917972208	 1.1617105992	 0.08925
H	 1.0730306583	-1.6271732512	 1.1874008132	 0.08925
H	-0.9226299305	-0.4976510858	 0.0925178934	 0.085331
H	 0.5718571234	-1.488950885	-1.6927179865	 0.085728
H	 3.0391335821	-0.4943878596	-1.7511052933	 0.076427
289.4264	394.0131	496.0274	550.3167	555.9629	697.7887	706.1571	720.5685	726.0438	806.2629	842.6483	854.7071	863.8577	919.8444	929.9865	953.0264	997.9034	1002.5171	1024.6967	1034.3666	1039.3551	1046.5087	1061.0486	1079.258	1099.1484	1123.7825	1152.9025	1154.0793	1203.6404	1252.6314	1255.425	1283.4876	1296.1731	1299.9082	1339.7861	1368.7377	1422.077	1451.5335	1493.9344	3007.0967	3037.9182	3062.333	3139.4104	3140.0133	3166.9381	3169.8309	3190.6101	3192.9582
C1C2C3C2N2C4C1C4C32	C1[C@@H]2[C@H]3[C@@H]2N2[C@H]4[C@@H]1[C@H]4[C@@H]32	
InChI=1S/C8H9N/c1-2-4-6(2)9-7-3(1)5(7)8(4)9/h2-8H,1H2	InChI=1S/C8H9N/c1-2-4-6(2)9-7-3(1)5(7)8(4)9/h2-8H,1H2/t2-,3+,4+,5-,6-,7+,8-
