16
gdb 6307	3.84079	1.23644	1.06979	1.5371	68.12	-0.2662	0.0108	0.2769	1133.7978	0.126575	-383.746941	-383.737582	-383.736638	-383.782012	32.248	
C	-0.0540865697	 1.5533635551	-0.0542017567	-0.401203
C	-0.0065774201	 0.0251342152	 0.0149756603	-0.052075
O	-1.3585326955	-0.5049095694	 0.0573663994	-0.249099
C	-1.9010048659	-0.6594053379	 1.2871274966	 0.440731
C	-3.2922734314	-1.2337652182	 1.1779845507	-0.478193
O	-1.3372627973	-0.3755483147	 2.3139676549	-0.35312
C	 0.6578959235	-0.5707271974	-1.1380691928	 0.329417
C	 1.2343928605	-1.0313062932	-2.0855324977	-0.444358
H	 0.9608537594	 1.9540858962	-0.1193362359	 0.133886
H	-0.6149048484	 1.8763989893	-0.9345594326	 0.134178
H	-0.5299487781	 1.9450531781	 0.8476432696	 0.140736
H	 0.4939377562	-0.2803233715	 0.9388267902	 0.140921
H	-3.9172110191	-0.5877907981	 0.5552955535	 0.151468
H	-3.2529572006	-2.2129960723	 0.6925351933	 0.15455
H	-3.7248300228	-1.3277588634	 2.173169862	 0.148988
H	 1.7428856493	-1.448709318	-2.9193638447	 0.203174
43.2692	56.8897	101.0743	158.4495	185.0477	235.6186	299.8107	359.2651	407.7391	539.2822	547.077	611.9411	622.9764	628.9991	677.1065	840.9031	881.6952	965.0609	1016.54	1056.8719	1064.5831	1108.7891	1138.5372	1260.7843	1347.5569	1363.5514	1397.0103	1399.0244	1468.8702	1475.3003	1487.0274	1493.6065	1819.868	2245.8532	3052.7485	3058.7261	3071.3813	3124.3354	3132.5535	3140.7596	3170.5359	3502.9801
CC(OC(C)=O)C#C	C[C@@H](OC(=O)C)C#C	
InChI=1S/C6H8O2/c1-4-5(2)8-6(3)7/h1,5H,2-3H3	InChI=1S/C6H8O2/c1-4-5(2)8-6(3)7/h1,5H,2-3H3/t5-/m1/s1
