20
gdb 62111	3.96026	0.77771	0.71561	3.0949	76.71	-0.2526	0.03	0.2826	1590.6916	0.169529	-440.28999	-440.279941	-440.278996	-440.326525	35.17	
C	 0.1403436828	 1.4941675779	 0.5951302503	-0.394002
C	-0.0210377866	 0.057038505	 0.0858814379	-0.015642
C	 0.6878917681	-0.9736802961	 0.9886706232	-0.167539
N	 2.1317544484	-0.8103868955	 1.0469181456	-0.276293
C	 2.7819717296	-0.2938735625	 2.1239454131	 0.152552
O	 2.2498826558	 0.1136190107	 3.1350327087	-0.325673
C	-1.484294227	-0.3146789753	-0.026486838	 0.096883
C	-2.2305134768	-0.2075037083	-1.2851417214	-0.183393
O	-1.7924055896	-1.4789268768	-0.7998039324	-0.245588
H	 1.1960583627	 1.7651832437	 0.6715096535	 0.127947
H	-0.3463268288	 2.2055266321	-0.0793779203	 0.112577
H	-0.299929941	 1.6107211828	 1.5909626254	 0.131555
H	 0.4115061582	-0.0217011912	-0.9210819174	 0.069446
H	 0.3256940979	-0.8852748362	 2.0168160242	 0.143866
H	 0.4559574133	-1.9812292558	 0.6283125106	 0.126113
H	 2.6866688183	-1.1220443829	 0.265695229	 0.24787
H	 3.8803316033	-0.2869551124	 1.9741221465	 0.073855
H	-2.0518493888	-0.2438530577	 0.9046428405	 0.095655
H	-3.3073851682	-0.046369566	-1.2690755128	 0.117323
H	-1.7217280415	 0.1507987447	-2.1795560362	 0.112488
36.5966	50.5907	80.3599	151.1631	198.9639	204.0792	250.3557	285.2126	336.8836	414.0069	468.3231	510.3465	538.1323	752.1167	810.8491	863.1399	876.0724	930.2647	956.3665	969.8304	999.1516	1032.2125	1087.7911	1125.0633	1154.5098	1160.0143	1167.0116	1194.4083	1211.2524	1283.0407	1288.2106	1300.1602	1361.1612	1393.3665	1414.9997	1430.9144	1446.7664	1475.435	1493.599	1498.6049	1529.0871	1536.1631	1804.8869	2932.4215	3012.4053	3039.908	3051.2632	3080.085	3084.3515	3106.2787	3112.215	3123.163	3167.8589	3633.4252
CC(CNC=O)C1CO1	C[C@@H](CNC=O)[C@H]1CO1	
InChI=1S/C6H11NO2/c1-5(2-7-4-8)6-3-9-6/h4-6H,2-3H2,1H3,(H,7,8)	InChI=1S/C6H11NO2/c1-5(2-7-4-8)6-3-9-6/h4-6H,2-3H2,1H3,(H,7,8)/t5-,6+/m0/s1
