15
gdb 28521	3.17431	1.40293	0.97403	1.5545	73.63	-0.1863	-0.0063	0.1799	1128.5115	0.114808	-454.024527	-454.016818	-454.015874	-454.056288	30.517	
N	-0.0287333303	 1.4476937882	-0.0821121212	-0.600612
C	-0.048291911	 0.0451256512	-0.035026043	 0.179879
C	-1.2148188641	-0.7118091627	 0.0422636191	-0.130867
C	-1.1677800511	-2.1035105366	 0.020834632	-0.221783
C	 0.0803875182	-2.7050487005	-0.0827267948	 0.413189
O	 0.1764223852	-4.0568915939	-0.1088978424	-0.427422
N	 1.2151118266	-2.0092128773	-0.1556489892	-0.458027
C	 1.1451420007	-0.6875312461	-0.1309817409	 0.390418
O	 2.3068276595	 0.0133349255	-0.1982481573	-0.434837
H	 0.8706633646	 1.8306323782	 0.175925802	 0.256696
H	-0.7688936553	 1.8803446567	 0.4536145147	 0.243005
H	-2.1722018108	-0.2046153836	 0.1175145455	 0.09648
H	-2.0627311921	-2.7083032064	 0.081657933	 0.103723
H	 1.1178802608	-4.258478843	-0.1833040131	 0.293271
H	 3.0163978491	-0.6403215397	-0.2447574043	 0.296889
138.579	246.7522	253.5134	301.4677	341.7273	366.7987	439.3119	464.2333	489.2422	510.2925	537.1114	596.732	678.405	693.5595	755.0134	779.0308	810.7722	836.5439	944.766	1001.3746	1078.4402	1147.5515	1194.4446	1210.5606	1296.8993	1328.1096	1369.4221	1411.462	1498.9452	1532.4982	1639.0058	1652.983	1682.5133	3174.0089	3221.3102	3547.2976	3645.4413	3787.8991	3790.951
NC1=CC=C(O)N=C1O	Nc1ccc(O)nc1O	
InChI=1S/C5H6N2O2/c6-3-1-2-4(8)7-5(3)9/h1-2H,6H2,(H2,7,8,9)	InChI=1S/C5H6N2O2/c6-3-1-2-4(8)7-5(3)9/h1-2H,6H2,(H2,7,8,9)
