21
gdb 97748	3.6396	0.8055	0.76667	0.2293	92.57	-0.2266	0.0553	0.2819	1623.9329	0.182543	-349.905788	-349.896462	-349.895518	-349.941791	34.369	
C	 0.4445103869	 1.1869463919	 0.3539101104	-0.362133
C	-0.3881018271	 0.1259619808	-0.3890933865	-0.315642
C	 0.3342303747	-0.510108434	-1.4864347981	 0.084837
C	 0.9457947815	-1.0159791431	-2.3950858175	 0.070429
C	 1.6690846315	-1.6222600993	-3.4785184901	-0.204285
C	 3.1478834178	-1.9639248903	-3.4178760035	-0.059981
C	 3.5454299465	-2.3995614467	-2.0030551636	-0.229776
C	 2.4788697794	-3.5432704519	-2.0789323255	-0.229662
C	 2.1087119769	-3.0761715985	-3.491063245	-0.059838
H	 1.3458855125	 0.7414633868	 0.783863144	 0.125635
H	 0.755728814	 1.9831400826	-0.3277949951	 0.127042
H	-0.1394888575	 1.6341452576	 1.1642046031	 0.111405
H	-0.7219450596	-0.640386287	 0.322656509	 0.125871
H	-1.3039525977	 0.588752976	-0.7794845225	 0.127191
H	 1.3695680702	-1.277287723	-4.4659476396	 0.104573
H	 3.8224746334	-1.5988127128	-4.1835789589	 0.085257
H	 4.5646980698	-2.7878171295	-1.9517572583	 0.100385
H	 3.4077810024	-1.6501574335	-1.218823553	 0.106018
H	 2.9362039056	-4.5348067586	-2.0701201125	 0.100449
H	 1.6723457767	-3.5149020237	-1.3411473795	 0.106927
H	 1.8428778119	-3.7175864439	-4.3232883172	 0.085295
15.3621	78.9628	92.9488	176.9758	201.0734	282.8757	295.0395	396.0177	443.6454	522.1052	564.5801	733.1672	740.5349	781.5217	783.718	785.3554	814.7369	924.1353	945.1515	958.939	968.9099	993.4562	1024.0219	1070.4695	1071.8164	1097.1144	1101.9838	1104.0638	1147.3203	1211.9198	1226.2167	1242.9764	1258.1792	1286.5103	1303.8423	1337.9516	1350.7705	1407.3929	1415.1138	1473.7022	1474.7618	1494.074	1496.0826	1505.4033	2355.2085	3016.4624	3042.3272	3042.6916	3058.1732	3064.3962	3105.2485	3114.9759	3122.1762	3122.7836	3128.7954	3170.1271	3182.8212
CCC#CC1C2CCC12	CCC#C[C@H]1[C@H]2CC[C@@H]12	
InChI=1S/C9H12/c1-2-3-4-7-8-5-6-9(7)8/h7-9H,2,5-6H2,1H3	InChI=1S/C9H12/c1-2-3-4-7-8-5-6-9(7)8/h7-9H,2,5-6H2,1H3/t7-,8+,9-
