19
gdb 62478	2.39819	1.49823	1.26972	1.9283	76.03	-0.2337	-0.027	0.2067	1091.2938	0.156005	-423.019162	-423.009637	-423.008693	-423.053989	35.272	
C	-0.1820628579	 1.4926985299	 0.0273793333	-0.438493
C	-0.0566985149	-0.0296977781	 0.0335507148	 0.210438
O	-1.3008570758	-0.6615834891	-0.1879142182	-0.469746
C	 1.0980001308	-0.5635031366	-0.8562865278	 0.363694
O	 1.1846919856	-0.7410593344	-2.0373315616	-0.309516
C	 1.9699544802	-0.9095631794	 0.3622438822	-0.452525
C	 0.7262906751	-0.6258087277	 1.226464058	 0.335558
C	 0.6607147713	-0.2050827177	 2.6631600619	-0.33714
C	 0.1332195726	-1.5568024438	 2.2381285775	-0.308218
H	 0.7761225956	 1.9784039971	 0.2372766228	 0.12045
H	-0.5333063279	 1.841196849	-0.9498463644	 0.121864
H	-0.9037449477	 1.8059135452	 0.7879404036	 0.128974
H	-1.5306554832	-0.5332560979	-1.1158213041	 0.290184
H	 2.3721349783	-1.9266742117	 0.3716279254	 0.134588
H	 2.7979956683	-0.2047398474	 0.5007905319	 0.130899
H	 1.5889460579	-0.1671178105	 3.2245455941	 0.113808
H	-0.0591396748	 0.5579975357	 2.942224664	 0.117229
H	-0.9406358523	-1.7015089874	 2.2065369076	 0.135124
H	 0.7028423288	-2.4390681155	 2.5122489288	 0.112827
28.04	96.669	185.5278	198.2246	228.1688	240.1238	286.0265	298.17	389.73	461.1111	493.1196	526.3453	579.6496	687.6363	763.1876	787.1478	836.4145	866.4576	928.7897	947.3799	982.259	988.7861	1042.0388	1054.3153	1077.0037	1084.5877	1137.6404	1158.3934	1184.7531	1190.0973	1209.9631	1272.9885	1328.2275	1393.9088	1398.5724	1442.9162	1467.2214	1484.1347	1486.6361	1506.8621	1890.1436	3031.265	3041.3827	3098.1896	3104.2068	3112.3034	3123.6608	3132.472	3203.9373	3224.9171	3796.365
CC1(O)C(=O)CC11CC1	C[C@@]1(O)C(=O)CC21CC2	
InChI=1S/C7H10O2/c1-6(9)5(8)4-7(6)2-3-7/h9H,2-4H2,1H3	InChI=1S/C7H10O2/c1-6(9)5(8)4-7(6)2-3-7/h9H,2-4H2,1H3/t6-/m1/s1
