18
gdb 51553	4.78847	0.79646	0.7568	1.4449	73.6	-0.2508	-0.0306	0.2203	1488.3202	0.145317	-439.027022	-439.018111	-439.017167	-439.061996	31.461	
O	-0.4964072749	 0.7015653357	 0.9554128601	-0.234892
C	-0.1014698292	 1.2278577227	-0.0508143021	 0.157415
C	 1.3457913472	 1.6333919741	-0.28708959	-0.237794
N	 1.4088680874	 2.7450045129	-1.2227146774	-0.134901
C	 1.4640972816	 4.0983098149	-0.6518159359	-0.323479
C	 2.642248654	 3.4935897038	-1.3126891224	 0.292908
C	 4.0229419964	 3.1699164462	-0.7364108635	-0.142914
O	 4.6432718495	 3.5580704434	-1.9790304626	-0.273802
C	 3.3706581004	 3.8406776449	-2.606017044	-0.137544
H	-0.7729079081	 1.4481954587	-0.909861097	 0.093153
H	 1.8240289541	 1.8183068617	 0.6875212455	 0.117085
H	 1.8489988551	 0.766115495	-0.739499761	 0.138383
H	 0.8652389212	 4.8494921317	-1.1599278616	 0.126021
H	 1.4951897252	 4.1932362562	 0.4336189646	 0.120388
H	 4.3577134885	 3.7891237276	 0.1048334681	 0.111399
H	 4.2025648793	 2.1129446502	-0.4970951879	 0.106937
H	 3.1586761821	 3.16745947	-3.4458932179	 0.112504
H	 3.2996008202	 4.8820815602	-2.9427449749	 0.109133
50.0986	72.447	95.3867	137.9888	200.5272	275.6994	350.5564	404.4313	446.2876	519.5353	605.4868	731.8746	814.542	872.6361	883.4654	912.9135	971.0178	992.232	1029.9411	1045.8755	1056.1072	1111.6491	1118.2866	1131.541	1147.3742	1157.1422	1188.7572	1220.6801	1249.089	1304.0717	1332.4687	1346.8143	1406.0537	1445.3096	1456.3211	1503.8414	1515.1881	1529.3797	1841.1615	2898.2191	2980.6108	3004.4535	3018.811	3031.375	3050.3089	3063.3089	3086.5991	3178.7365
O=CCN1CC11COC1	O=CCN1CC21COC2	
InChI=1S/C6H9NO2/c8-2-1-7-3-6(7)4-9-5-6/h2H,1,3-5H2	InChI=1S/C6H9NO2/c8-2-1-7-3-6(7)4-9-5-6/h2H,1,3-5H2
