15
gdb 13337	5.83211	1.2508	1.13329	3.3004	65.7	-0.2619	-0.0034	0.2585	1041.0192	0.119064	-399.797946	-399.790574	-399.789629	-399.830556	26.078	
N	-0.156879138	 1.2315536481	 0.4030132552	-0.441497
C	-0.0823370649	 0.0105676602	 0.09584513	 0.133825
O	-1.186985601	-0.7657605489	 0.1437994227	-0.194725
C	-0.9912475841	-2.1577807606	-0.1194100786	 0.174228
O	-0.4177880507	-2.8191639392	 0.9789023474	-0.256548
C	-1.4001224433	-3.6269685817	 1.6314802482	-0.124013
C	-2.582262482	-3.6090306908	 0.7066065415	-0.083966
C	-2.3418272941	-2.7893334386	-0.3090629341	-0.106647
H	 0.7557385275	 1.6704495808	 0.297461944	 0.228106
H	 0.8178951983	-0.5270389583	-0.2309083662	 0.091609
H	-0.304679419	-2.2500981609	-0.9726766196	 0.091045
H	-0.9808991081	-4.6308906089	 1.7768884075	 0.121164
H	-1.643746389	-3.2193687058	 2.6236192004	 0.125415
H	-3.4841572288	-4.1791667737	 0.8872764404	 0.119476
H	-2.9947021329	-2.5328677115	-1.1312281388	 0.122529
59.7589	105.1109	117.4232	214.4975	346.201	438.4767	466.1251	655.5439	739.0577	788.8516	823.1762	831.4119	939.9416	945.2889	959.5928	1004.8111	1023.9162	1039.0671	1044.0689	1079.1805	1125.7855	1130.2726	1201.5839	1284.2662	1312.0335	1367.2006	1387.2906	1389.041	1431.2276	1510.5128	1690.3994	1749.4353	3002.1301	3006.2012	3031.0207	3040.6182	3220.5371	3248.4562	3513.3765
N=COC1OCC=C1	[NH][CH]O[C@H]1OCC=C1	
InChI=1S/C5H7NO2/c6-4-8-5-2-1-3-7-5/h1-2,4-6H,3H2	InChI=1S/C5H7NO2/c6-4-8-5-2-1-3-7-5/h1-2,4-6H,3H2/t5-/m1/s1
