16
gdb 55601	4.29143	0.76305	0.68246	2.3972	71.9	-0.2525	-0.0351	0.2175	1583.9164	0.124656	-471.279895	-471.270693	-471.269749	-471.315202	32.607	
N	 0.3275005174	 0.5023359687	-0.7425200284	-0.507998
C	-0.1851877793	 0.2395901324	 0.4852039736	 0.389529
O	 0.1272788561	 0.819213769	 1.5048581785	-0.353334
C	-1.2962779361	-0.8320974519	 0.5018016456	-0.42876
C	-1.02114169	-2.0681290183	-0.3381523275	 0.431176
O	-0.6533937722	-2.0149229404	-1.5009235019	-0.371412
N	-1.2314760384	-3.2655196505	 0.3046876272	-0.30377
C	-1.0653617639	-4.5084434784	-0.2961572972	 0.100646
N	-1.2908635996	-5.5633923106	 0.370808754	-0.453679
H	 1.1069626066	 1.138135309	-0.7941099896	 0.260168
H	 0.1487399508	-0.1461161425	-1.4978910311	 0.280741
H	-1.4876274057	-1.069427576	 1.5487241253	 0.135449
H	-2.2012303032	-0.3674982787	 0.0908441108	 0.166672
H	-1.5284499675	-3.2779470658	 1.2701886126	 0.271266
H	-0.7411046968	-4.4253530556	-1.3346006958	 0.14464
H	-1.1256341283	-6.3888396803	-0.2021891761	 0.238665
36.6355	65.0218	134.4566	160.7825	195.0145	264.088	362.5034	387.5156	456.3603	508.9126	525.3274	581.3753	606.3142	669.3308	707.6571	785.0435	836.1504	887.2971	955.714	990.5597	1078.2441	1089.5227	1126.3775	1166.5194	1220.3734	1293.0982	1320.6499	1358.5707	1392.3271	1451.4841	1503.4288	1614.6866	1727.2578	1771.2216	1814.5285	3048.9375	3131.0084	3133.8965	3509.7831	3537.9768	3615.0893	3696.4523
NC(=O)CC(=O)NC=N	NC(=O)CC(=O)NC=N	
InChI=1S/C4H7N3O2/c5-2-7-4(9)1-3(6)8/h2H,1H2,(H2,6,8)(H2,5,7,9)	InChI=1S/C4H7N3O2/c5-2-7-4(9)1-3(6)8/h2H,1H2,(H2,6,8)(H2,5,7,9)
