18
gdb 51286	3.69454	1.01669	0.90384	2.9331	79.	-0.2247	-0.0344	0.1903	1305.19	0.147526	-401.935232	-401.927042	-401.926098	-401.969461	30.183	
O	 0.1547067986	-0.1809528015	-0.3591057312	-0.231324
C	 0.0759798826	 1.009713259	-0.2140670362	 0.159756
C	 1.2686671838	 1.947910017	-0.0643413409	-0.387568
C	 1.2875606558	 2.9630516317	-1.1706519953	 0.320388
C	 0.982571692	 4.2626104895	-1.1075446114	-0.209316
C	 1.0613774814	 4.902401996	-2.4748402667	-0.19982
N	 1.5119585553	 3.8342830312	-3.3985872121	-0.098174
C	 2.8522819211	 3.3141224292	-3.1151813173	-0.23515
C	 1.6531773027	 2.6088878699	-2.5779881247	-0.123297
H	-0.908611825	 1.5299680323	-0.1911533269	 0.083332
H	 1.1658936691	 2.4581862032	 0.9016575776	 0.124749
H	 2.1777209586	 1.3386398608	-0.0497700435	 0.12918
H	 0.73529381	 4.8109979207	-0.2052847767	 0.098465
H	 0.0829460246	 5.2740000569	-2.8081260157	 0.117595
H	 1.7516349556	 5.7548964083	-2.5123900951	 0.116058
H	 3.3733610478	 2.9240755296	-3.9853697344	 0.119064
H	 3.478378423	 3.8407811245	-2.3971873831	 0.110173
H	 1.323147943	 1.6657632019	-3.0070755564	 0.105888
39.9604	49.5735	145.8728	258.919	296.6581	320.6918	411.3541	465.5518	609.057	635.7547	717.519	764.8869	817.1913	826.1401	843.6426	885.6669	940.5098	987.9944	1022.3268	1030.8767	1044.9632	1058.743	1092.8657	1110.6685	1153.9343	1173.086	1202.2356	1213.9384	1262.9978	1282.509	1300.5145	1340.2386	1382.4503	1418.801	1458.3605	1486.506	1500.4811	1697.55	1835.8709	2877.0077	3010.409	3030.676	3043.5082	3094.6232	3095.203	3137.8482	3185.5417	3194.765
O=CCC1=CCN2CC12	O=CCC1=CCN2C[C@@H]12	
InChI=1S/C7H9NO/c9-4-2-6-1-3-8-5-7(6)8/h1,4,7H,2-3,5H2	InChI=1S/C7H9NO/c9-4-2-6-1-3-8-5-7(6)8/h1,4,7H,2-3,5H2/t7-,8?/m0/s1
