21
gdb 57374	1.93009	1.68747	1.21723	2.1402	78.58	-0.2559	-0.0373	0.2186	1144.4387	0.1787	-424.222403	-424.212348	-424.211404	-424.256667	37.88	
C	-0.2245138464	 1.4785256691	-0.0162791305	-0.425485
C	-0.0340297792	-0.0499025665	-0.0338945021	 0.161648
C	 0.8237380655	-0.4538049956	 1.1850465151	-0.426446
C	-1.4140348553	-0.7358240454	 0.0319608	-0.42356
C	 0.6939604518	-0.4966756237	-1.3101037251	 0.304522
C	 0.6099695914	 0.2412708126	-2.5946362527	-0.230575
O	 1.7733678751	 0.3338318009	-1.7918078208	-0.271552
C	 1.0606944787	-1.9454351475	-1.508488984	 0.139255
O	 0.6446654106	-2.8857459511	-0.8820954202	-0.264744
H	 0.7190126245	 2.0003702189	-0.1941641427	 0.133073
H	-0.9535179687	 1.8112908841	-0.7620487071	 0.107951
H	-0.6055872622	 1.7840003201	 0.9628282474	 0.11497
H	 0.3323497089	-0.1342777674	 2.1094328737	 0.11068
H	 0.9668397692	-1.5350764686	 1.2342557234	 0.139218
H	 1.8070640102	 0.026330984	 1.1441472147	 0.121641
H	-2.0259939704	-0.4721204571	-0.8379632989	 0.105026
H	-1.3191130357	-1.8216445781	 0.0711691558	 0.148422
H	-1.9494605932	-0.4014986522	 0.9268320789	 0.111309
H	 0.7321894294	-0.2917274106	-3.5375715419	 0.121173
H	-0.0080131089	 1.133664943	-2.6427493348	 0.130926
H	 1.8007486247	-2.069834169	-2.3310910382	 0.092548
71.1092	128.3792	199.5436	208.3652	236.664	260.8039	273.578	300.7367	323.5579	366.9132	388.1684	402.1378	443.3658	511.7511	565.9413	665.8428	836.3491	846.7837	877.2204	939.6061	941.6028	957.1105	964.1689	1028.1023	1046.5184	1064.4948	1133.42	1162.0926	1203.1491	1236.0037	1243.3619	1301.7125	1340.8303	1393.0662	1393.5836	1418.6471	1437.5515	1477.8744	1492.4715	1494.6078	1502.6064	1505.9472	1523.2696	1530.6222	1826.5521	2884.9484	3032.8147	3036.687	3042.3384	3089.1457	3093.3703	3101.0311	3104.4915	3124.5684	3133.2627	3145.3097	3186.1174
CC(C)(C)C1(CO1)C=O	CC(C)(C)[C@]1(CO1)C=O	
InChI=1S/C7H12O2/c1-6(2,3)7(4-8)5-9-7/h4H,5H2,1-3H3	InChI=1S/C7H12O2/c1-6(2,3)7(4-8)5-9-7/h4H,5H2,1-3H3/t7-/m1/s1
