20
gdb 17375	3.76129	1.53572	1.26014	1.696	74.21	-0.2496	0.078	0.3276	1034.7163	0.176116	-348.972243	-348.963972	-348.963028	-349.004815	31.448	
C	-0.1391875691	 1.4890870249	 0.0029963908	-0.393487
C	 0.0455514341	-0.0323802509	-0.0701625967	 0.032444
C	 0.8396450712	-0.4319695205	-1.3216002747	-0.395037
C	 0.7140052512	-0.5676507869	 1.1967693663	 0.011819
C	-0.0653459268	-0.4924744485	 2.5671204985	-0.286914
C	 0.0584177376	-2.0171362832	 2.6670134739	 0.03315
O	-0.5734716688	-2.5705964477	 1.5057268421	-0.24553
C	 0.7745240066	-2.0977518561	 1.385414518	 0.005892
H	 0.8299988888	 1.9998607026	 0.0595599629	 0.10798
H	-0.659361709	 1.8649687043	-0.8842414377	 0.110784
H	-0.7220798568	 1.7846540392	 0.8811985058	 0.113427
H	-0.9452400854	-0.5003175922	-0.1298698045	 0.087697
H	 1.8495845477	-0.0039692205	-1.3012905041	 0.107296
H	 0.9376761032	-1.519007402	-1.4057379047	 0.116456
H	 0.3474495695	-0.0720578968	-2.2309988706	 0.111365
H	 1.7136912719	-0.1310834667	 1.3111489979	 0.069543
H	 0.4882650341	 0.0450072385	 3.3404842965	 0.104146
H	-1.0924649922	-0.1202993375	 2.5281401777	 0.108723
H	 0.1101323989	-2.6475567975	 3.5471021625	 0.102225
H	 1.5141501233	-2.8065571525	 1.0302327101	 0.098022
77.956	138.6069	188.6332	222.7175	246.3105	319.7898	375.1132	389.723	445.3519	570.3215	728.6912	785.2946	837.9587	860.7141	893.4688	911.06	930.0481	938.4494	970.3345	983.0149	1004.7508	1031.9913	1050.8718	1125.6239	1138.6098	1184.1305	1205.7063	1225.9022	1240.1444	1243.0862	1279.4607	1294.7009	1357.4307	1384.099	1395.017	1400.1032	1420.667	1471.9089	1486.8446	1492.8021	1505.0412	1509.664	3021.492	3023.7742	3026.6785	3041.585	3063.0497	3085.74	3092.9008	3099.9206	3102.2234	3119.658	3175.1467	3191.7412
CC(C)C1CC2OC12	CC(C)[C@H]1C[C@H]2O[C@@H]12	
InChI=1S/C7H12O/c1-4(2)5-3-6-7(5)8-6/h4-7H,3H2,1-2H3	InChI=1S/C7H12O/c1-4(2)5-3-6-7(5)8-6/h4-7H,3H2,1-2H3/t5-,6-,7+/m1/s1
