20
gdb 111918	2.1962	1.38882	0.93372	2.5526	76.33	-0.2417	0.0202	0.262	1295.4121	0.170599	-440.314392	-440.304854	-440.30391	-440.349693	34.657	
C	-0.3437107011	 1.5824431255	-0.0843279017	-0.403289
C	 0.0442581593	 0.1108821051	-0.0541141272	 0.083671
O	 1.0701082586	-0.125686921	-1.0603412749	-0.263598
C	 2.1201077723	-0.7014066144	-0.421059911	 0.406447
C	 3.2952957373	-1.0030092521	-1.2868917921	-0.473172
N	 2.0209369573	-0.933497102	 0.8253512512	-0.3384
C	 0.693242071	-0.452877351	 1.2493368443	-0.024759
C	 0.8853833481	 0.5071328811	 2.4303698292	-0.057675
O	 1.5449151586	-0.1544138438	 3.4882546794	-0.426165
H	 0.509091308	 2.2271622255	 0.14246422	 0.130751
H	-0.7185513287	 1.849494028	-1.0760762514	 0.129009
H	-1.1356953763	 1.7844262408	 0.6433332893	 0.126359
H	-0.818596539	-0.4976865145	-0.3433453937	 0.09471
H	 3.0076876653	-1.6947381381	-2.0848904943	 0.14765
H	 3.6578589164	-0.0881553723	-1.7656927769	 0.146332
H	 4.0905477799	-1.4457813072	-0.6884484914	 0.151137
H	 0.119353537	-1.3079608904	 1.6257267699	 0.09224
H	 1.4483853599	 1.3946319964	 2.1002827331	 0.082683
H	-0.0811980846	 0.8479917094	 2.8173332925	 0.102172
H	 2.2886472207	-0.6158201151	 3.0783068857	 0.293898
26.6315	115.3461	136.056	171.9144	193.2951	238.4391	275.8569	341.0465	410.3537	464.8404	489.8103	494.3258	627.4464	656.7886	731.1297	835.5524	868.8292	946.2839	964.4214	1012.4256	1025.0532	1062.4799	1066.6047	1087.6702	1099.3152	1148.0593	1158.0898	1224.7115	1265.3453	1308.595	1331.0726	1361.0214	1387.8102	1391.6737	1412.1951	1416.5275	1445.8585	1474.7001	1476.3254	1485.517	1499.2954	1509.1531	1737.7545	2975.6944	3028.7348	3046.7942	3051.6325	3052.995	3067.5114	3109.3384	3118.0961	3128.326	3166.4384	3762.9298
CC1OC(C)=NC1CO	C[C@H]1OC(=N[C@H]1CO)C	
InChI=1S/C6H11NO2/c1-4-6(3-8)7-5(2)9-4/h4,6,8H,3H2,1-2H3	InChI=1S/C6H11NO2/c1-4-6(3-8)7-5(2)9-4/h4,6,8H,3H2,1-2H3/t4-,6+/m1/s1
