19
gdb 24726	3.45352	1.52884	1.1072	4.343	80.91	-0.2076	0.0346	0.2421	1089.432	0.164626	-382.132419	-382.125365	-382.12442	-382.163902	28.171	
C	-0.0249448245	 1.5339908119	-0.056400834	-0.209399
C	 1.3940066711	 2.1165029087	-0.0015861309	-0.203036
C	 2.0576834819	 1.7780379578	 1.3445148482	-0.313937
C	 1.886260959	 0.3296296123	 1.6890634735	 0.289558
C	 2.5076688493	-0.5216469426	 2.5690856642	-0.192204
N	 1.9179289997	-1.7642578233	 2.5555603934	-0.276923
C	 0.9488948951	-1.6703070156	 1.6740560907	-0.008655
N	 0.8730111405	-0.4242299602	 1.1210940684	-0.046849
C	 0.0158358951	 0.0058299319	 0.02335999	-0.158037
H	-0.6176112717	 1.9312176701	 0.7771279884	 0.111632
H	-0.5342073156	 1.8235422601	-0.9808516469	 0.106504
H	 1.9884055479	 1.7021043871	-0.8261243875	 0.105281
H	 1.367231459	 3.2013822941	-0.1420678436	 0.101424
H	 3.1214619008	 2.0361555929	 1.3288632016	 0.117219
H	 1.6034564905	 2.4040053579	 2.1263095771	 0.11584
H	 3.3423921769	-0.302586544	 3.2187066117	 0.100479
H	 0.2697629745	-2.4610382206	 1.3889909679	 0.118415
H	-0.9852023191	-0.4105586081	 0.172609982	 0.121232
H	 0.4038702896	-0.4007985006	-0.9202177641	 0.121455
105.3239	172.0049	273.1225	320.8762	368.9356	443.4235	494.8471	635.6211	668.0122	687.7248	703.125	795.4511	825.3931	843.2931	867.88	934.8932	938.3355	960.9002	979.8324	1070.0615	1113.3464	1143.678	1171.0036	1189.2102	1207.3031	1241.217	1266.2057	1287.5829	1300.6595	1343.2956	1361.6225	1368.9568	1384.2895	1407.0143	1427.705	1482.9541	1489.8025	1494.79	1502.651	1528.9644	1592.5931	2998.6459	3013.3975	3026.5858	3034.8248	3070.2167	3075.8849	3082.2625	3087.6539	3237.7174	3241.3208
C1CCC2=CN=CN2C1	C1CCc2cncn2C1	
InChI=1S/C7H10N2/c1-2-4-9-6-8-5-7(9)3-1/h5-6H,1-4H2	InChI=1S/C7H10N2/c1-2-4-9-6-8-5-7(9)3-1/h5-6H,1-4H2
