18
gdb 43396	2.52317	1.81258	1.19667	3.7816	79.43	-0.2179	-0.0477	0.1701	1043.8801	0.149148	-401.957115	-401.94943	-401.948485	-401.989161	30.441	
O	 0.0217969121	 0.0311571215	-0.2899447124	-0.351146
C	 0.012078372	 1.2211216924	-0.0334357014	 0.366256
C	-1.2439656793	 1.973948297	 0.1579010588	-0.145526
C	-1.245369744	 3.3081634782	 0.2502114928	-0.039394
C	 0.0224155023	 4.1093586122	 0.2947534539	-0.230302
N	 1.1309368127	 3.274291202	 0.7393095112	-0.365063
C	 1.2710207753	 2.0436592167	-0.0009784457	 0.223594
C	 2.5763893429	 1.3115596921	 0.0278863967	-0.312624
C	 2.1353783859	 1.9404300993	-1.2671077909	-0.304385
H	-2.1579339775	 1.3900764511	 0.1248821113	 0.109706
H	-2.1802446507	 3.8619423582	 0.2769056584	 0.11253
H	 0.1741819437	 4.5697563696	-0.7039024834	 0.104059
H	-0.0923894027	 4.9410496799	 1.000006755	 0.117604
H	 1.9997581124	 3.7959727597	 0.7374640342	 0.221797
H	 3.390112747	 1.77522567	 0.5765178205	 0.110571
H	 2.5150678681	 0.2326210689	 0.1092383654	 0.143805
H	 1.7970796419	 1.2855331788	-2.0621723421	 0.131372
H	 2.6306731379	 2.8500518524	-1.5919123521	 0.107144
86.3953	171.839	241.2319	281.5311	335.6733	382.2716	424.3461	499.0033	542.9817	645.587	661.2025	688.5309	772.6525	804.7883	826.7292	887.7267	893.9765	944.9563	965.5873	989.6669	1018.4367	1038.2734	1046.3881	1087.2797	1100.5998	1160.7743	1190.3753	1200.0617	1240.9688	1295.8821	1326.0963	1392.7641	1416.78	1449.1832	1477.9551	1484.2298	1501.0362	1686.3933	1767.7976	2885.424	3046.8925	3127.5188	3132.4158	3164.2978	3195.2218	3217.9659	3232.4593	3538.3588
O=C1C=CCNC11CC1	O=C1C=CCNC21CC2	
InChI=1S/C7H9NO/c9-6-2-1-5-8-7(6)3-4-7/h1-2,8H,3-5H2	InChI=1S/C7H9NO/c9-6-2-1-5-8-7(6)3-4-7/h1-2,8H,3-5H2
