17
gdb 73620	2.44378	1.46416	1.17089	3.9219	69.74	-0.2376	-0.0203	0.2173	1097.6352	0.13442	-458.948928	-458.940526	-458.939581	-458.982176	30.666	
C	-0.056630886	 1.5199138532	-0.002187447	-0.465253
C	 0.0030574	 0.021799795	 0.0725494585	 0.361003
O	-1.2169310486	-0.6449260039	-0.204244111	-0.286129
C	-1.4460651748	-1.4969241645	 0.9039912	 0.010427
O	-0.1708733326	-1.8929473835	 1.3852868134	-0.251511
C	 0.6804929194	-0.8125838894	 1.0934280673	-0.007461
C	 1.2654329882	-0.7647666981	-0.3271186468	-0.216691
C	 1.2112287964	-1.9348634724	-1.2358461483	 0.173492
O	 2.0787149302	-2.1843463927	-2.03932431	-0.275118
H	 0.9057733491	 1.9587525599	 0.2743980496	 0.129183
H	-0.2996601656	 1.843261018	-1.0189074666	 0.143826
H	-0.8249098791	 1.9071598066	 0.6745038279	 0.131955
H	-2.0024197356	-0.9630006846	 1.6925935975	 0.100735
H	-1.9964236318	-2.3811704968	 0.5728182112	 0.130798
H	 1.2596959098	-0.4353276803	 1.9293746675	 0.121516
H	 2.1673459521	-0.1700984355	-0.4365647566	 0.109935
H	 0.315964939	-2.5773086511	-1.1379817067	 0.089294
85.8246	142.3436	179.4125	195.7998	203.1761	248.5756	328.8486	438.6621	472.9437	547.273	650.1098	733.7324	746.6209	859.0996	874.5312	920.1425	1001.0153	1008.067	1026.7165	1052.8717	1063.8402	1109.6952	1122.8582	1145.2132	1175.0237	1216.3053	1224.9066	1248.4049	1316.4683	1406.6381	1418.7426	1431.782	1458.6445	1479.152	1496.5879	1540.2184	1805.0838	2951.7344	2964.4137	3040.6198	3102.434	3110.3813	3122.0932	3163.9608	3172.4127
CC12OCOC1C2C=O	C[C@]12OCO[C@H]1[C@H]2C=O	
InChI=1S/C6H8O3/c1-6-4(2-7)5(6)8-3-9-6/h2,4-5H,3H2,1H3	InChI=1S/C6H8O3/c1-6-4(2-7)5(6)8-3-9-6/h2,4-5H,3H2,1H3/t4-,5+,6-/m1/s1
