18
gdb 31643	3.54809	1.03046	0.8164	2.6945	76.2	-0.1827	0.0525	0.2352	1375.3979	0.147047	-439.108913	-439.099284	-439.09834	-439.143838	34.504	
C	 0.2215902014	 1.3783258969	-0.042608293	-0.336326
N	 0.1018346557	-0.0635876972	 0.0078424104	-0.045831
C	 0.1865715888	-0.9320670516	-1.0689873343	-0.208433
C	 0.1031659281	-2.2191483732	-0.5968546986	 0.234397
C	 0.127331509	-3.4625387044	-1.4361869194	-0.153727
O	 0.8124057563	-3.2827644682	-2.6691475963	-0.414566
C	-0.0253858855	-2.1438858493	 0.8273592516	-0.44241
C	-0.0215524484	-0.8067531265	 1.147006993	 0.390934
O	-0.0978451091	-0.135719023	 2.3272607131	-0.442662
H	 1.2577170158	 1.7079305479	 0.0989371573	 0.135164
H	-0.1301516001	 1.7322998595	-1.0139542222	 0.138182
H	-0.3929693049	 1.8256808321	 0.7406527365	 0.152473
H	 0.2788294721	-0.5551408941	-2.0738812965	 0.122055
H	 0.558500886	-4.2939897462	-0.8539663689	 0.0855
H	-0.8866481117	-3.7742341392	-1.7173704109	 0.115601
H	 1.6619600795	-2.8822043779	-2.4543129092	 0.275097
H	-0.1133310916	-2.9680917001	 1.5192944464	 0.086638
H	-0.2539555914	-0.7769375654	 3.0266103311	 0.307914
62.4597	74.9189	134.4123	166.1512	215.7937	236.631	288.3534	304.7135	357.1492	391.869	505.54	615.9065	636.6722	657.3512	676.721	690.9418	727.3211	827.9619	981.0688	1009.4688	1060.7109	1073.5262	1134.5387	1150.1588	1171.9272	1203.4869	1209.5117	1285.4394	1340.0061	1372.1881	1399.5311	1435.0171	1454.0721	1488.4623	1508.5347	1511.0021	1552.6005	1577.4922	1617.5062	2962.5455	3031.0401	3034.3089	3104.9999	3143.9268	3236.6001	3272.7748	3800.906	3852.1408
CN1C=C(CO)C=C1O	Cn1cc(CO)cc1O	
InChI=1S/C6H9NO2/c1-7-3-5(4-8)2-6(7)9/h2-3,8-9H,4H2,1H3	InChI=1S/C6H9NO2/c1-7-3-5(4-8)2-6(7)9/h2-3,8-9H,4H2,1H3
