16
gdb 67157	2.47099	1.72733	1.58548	4.3246	68.18	-0.222	-0.0221	0.1999	922.3798	0.124852	-437.830556	-437.823372	-437.822427	-437.86193	28.673	
O	-0.1384781987	 1.4364288844	-0.0187718164	-0.465184
C	 0.0114472348	 0.0712217027	 0.0009022332	 0.394026
C	 0.6947636296	-0.8812707011	 1.0656844718	-0.113848
C	-0.6799655889	-1.5420975269	 1.3135583809	-0.21005
C	-1.2529853301	-0.8755860223	 0.0239928795	-0.217701
C	-0.7048523428	-1.5227090828	-1.2562075839	 0.471587
O	-1.2133529544	-2.1419510285	-2.1446896298	-0.313169
C	 0.6874087984	-0.8749444806	-1.0792718735	-0.247989
N	 1.424788719	-1.6193659609	-0.0086670646	-0.30816
H	 0.7293041653	 1.8483564364	-0.0989989265	 0.290291
H	 1.2960704306	-0.584617956	 1.9262396495	 0.076061
H	-0.6968143908	-2.6319328707	 1.3780555585	 0.119574
H	-1.1666846479	-1.1098800549	 2.1923887052	 0.114878
H	-2.2886367109	-0.5380664029	 0.021243917	 0.098495
H	 1.2530789606	-0.5869458489	-1.9667851227	 0.087502
H	 2.3984862162	-1.3303030271	-0.0210992581	 0.223687
116.1343	220.66	275.9322	312.2711	350.0988	411.6332	444.3694	517.1994	588.7418	644.138	745.56	763.6842	797.33	863.4815	872.6227	923.4492	950.1091	990.4722	1000.8108	1018.4621	1064.152	1090.3091	1104.569	1118.044	1132.6087	1154.1302	1201.1623	1244.3321	1271.6952	1314.4892	1333.6706	1386.6014	1394.5673	1472.6194	1888.9734	3060.0024	3101.1273	3106.7403	3123.4776	3129.6626	3507.3456	3796.1757
OC12C3CC1C(=O)C2N3	O[C@@]12[C@H]3C[C@@H]1C(=O)[C@@H]2N3	
InChI=1S/C6H7NO2/c8-4-2-1-3-6(2,9)5(4)7-3/h2-3,5,7,9H,1H2	InChI=1S/C6H7NO2/c8-4-2-1-3-6(2,9)5(4)7-3/h2-3,5,7,9H,1H2/t2-,3-,5+,6-/m1/s1
