16
gdb 26987	3.45767	1.27763	0.95426	0.3447	76.5	-0.1792	0.0409	0.2201	1175.2852	0.123918	-400.749887	-400.741388	-400.740444	-400.783289	32.416	
O	 0.911751376	 1.0751275753	-0.0418806294	-0.439653
C	 0.3846494056	-0.1689835091	-0.09321472	 0.313973
C	 0.0829808539	-1.0268682876	-1.1307994135	 0.128795
C	 0.2499902867	-0.7749351741	-2.6089039663	-0.473782
C	 1.2505986341	 0.2455157603	-2.9262358915	 0.283124
C	 2.0660006509	 1.099184653	-3.1644288072	-0.445445
C	-0.463044427	-2.2054923505	-0.5257201833	-0.236528
C	-0.4773574966	-2.0232503915	 0.8309246311	-0.093984
N	 0.0467556766	-0.769069769	 1.0851641936	-0.297782
H	 1.2565934198	 1.282933544	-0.9237456275	 0.302741
H	 0.5409530082	-1.7085492426	-3.1083622659	 0.143721
H	-0.7027080726	-0.4790162694	-3.0736115474	 0.141886
H	 2.7958266233	 1.8310716269	-3.4098667728	 0.204317
H	-0.8070880774	-3.0847309719	-1.0500238791	 0.088241
H	-0.8072082493	-2.6592471459	 1.6348962619	 0.116555
H	 0.1956152478	-0.350529408	 1.9864900474	 0.263822
36.1984	141.4416	222.9574	267.4004	296.1595	333.8557	421.8301	439.3997	448.1444	460.3703	614.1992	625.2789	634.6755	650.6536	688.3405	708.1276	754.8919	805.7553	911.4525	946.4331	951.9109	1077.9752	1091.7314	1175.5139	1213.7418	1239.5322	1250.0537	1332.3839	1381.3585	1417.3446	1471.0416	1532.3041	1559.2823	1650.1367	2222.8853	2988.0536	3030.0301	3239.1956	3279.2266	3499.3129	3686.9568	3696.1587
OC1=C(CC#C)C=CN1	Oc1c(CC#C)cc[nH]1	
InChI=1S/C7H7NO/c1-2-3-6-4-5-8-7(6)9/h1,4-5,8-9H,3H2	InChI=1S/C7H7NO/c1-2-3-6-4-5-8-7(6)9/h1,4-5,8-9H,3H2
