17
gdb 7409	3.0262	1.47451	1.34253	2.3927	65.51	-0.2422	-0.0313	0.2109	1010.4671	0.140179	-401.063255	-401.054011	-401.053067	-401.097708	32.627	
C	 0.2410300172	 1.3904170475	-0.4476648272	-0.394886
C	 0.1315458129	-0.1023527007	-0.0487027781	-0.178343
C	 0.5194780214	-0.2437611913	 1.4220273335	 0.385077
C	 1.9099419591	-0.7695042641	 1.7013064444	-0.475926
O	-0.2335384025	 0.0711029167	 2.3225630512	-0.325399
C	-1.2715909235	-0.6297109336	-0.4134967964	 0.376215
N	-2.2638988303	-0.2871979686	 0.4483328899	-0.512357
O	-1.4471504444	-1.2449287205	-1.447498479	-0.367149
H	 1.2604976526	 1.7619258797	-0.3040403757	 0.121722
H	-0.0208925712	 1.5080704427	-1.5020685848	 0.145289
H	-0.4372508385	 1.9995219317	 0.1545211703	 0.141658
H	 0.8217000066	-0.6804502239	-0.6673066702	 0.106355
H	 2.6575018209	-0.2082870525	 1.1298932012	 0.145087
H	 2.1295928016	-0.7120169833	 2.7678112163	 0.14562
H	 1.9771328167	-1.8115170292	 1.3662537247	 0.155053
H	-2.0163741481	 0.0391300939	 1.3728182515	 0.275685
H	-3.1783978505	-0.6732569744	 0.2763890786	 0.256298
43.1808	66.7782	158.1208	216.1185	225.5546	231.608	245.0703	348.7666	399.3422	469.7805	534.6159	592.8387	625.3305	668.3433	761.8665	801.7197	846.5384	962.5656	976.4841	1024.3697	1084.7351	1108.1636	1139.1515	1183.5918	1306.1985	1337.1955	1357.0589	1383.783	1406.5108	1460.027	1472.7498	1494.3438	1497.9493	1609.9174	1787.5181	1801.5355	3035.3901	3043.2188	3088.889	3095.746	3115.9253	3136.4315	3154.9328	3537.8582	3693.5412
CC(C(C)=O)C(N)=O	C[C@@H](C(=O)C)C(=O)N	
InChI=1S/C5H9NO2/c1-3(4(2)7)5(6)8/h3H,1-2H3,(H2,6,8)	InChI=1S/C5H9NO2/c1-3(4(2)7)5(6)8/h3H,1-2H3,(H2,6,8)/t3-/m0/s1
