20
gdb 116083	2.59366	1.21605	0.8723	3.9289	76.54	-0.2351	0.0281	0.2632	1345.8856	0.172093	-440.326182	-440.317225	-440.316281	-440.360248	33.336	
C	 0.0489958067	 1.5628529062	-0.0552274889	-0.399205
C	-0.0023136948	 0.0316778723	-0.0419951562	-0.182785
C	-1.4203557258	-0.5506542788	 0.0230852514	 0.042102
C	-1.4083062593	-2.0750911597	-0.0884697901	-0.0935
O	-2.7022532739	-2.6033763639	 0.112861884	-0.244467
C	-3.1427099192	-2.4011440798	 1.4414078619	-0.191731
C	-2.9578790165	-0.9803209642	 1.9729067507	 0.375205
O	-3.5293624761	-0.6035572871	 2.9785313032	-0.373815
N	-2.0861484927	-0.1973814122	 1.2741599373	-0.324833
H	 1.0791616286	 1.9139441021	-0.1630586845	 0.126199
H	-0.5328168541	 1.9732729476	-0.8875329823	 0.123969
H	-0.3387642967	 1.9980440683	 0.8723253447	 0.120597
H	 0.472884702	-0.3502007957	-0.9541879179	 0.105853
H	 0.5778785848	-0.3555277891	 0.8044501127	 0.108641
H	-2.0002686763	-0.1568235905	-0.8269114968	 0.089025
H	-1.0943252185	-2.3744225966	-1.091849342	 0.116862
H	-0.6958792151	-2.497995673	 0.6404780598	 0.093253
H	-4.2085517829	-2.6352336526	 1.4746041048	 0.1437
H	-2.6268730929	-3.0821855179	 2.1389631345	 0.119562
H	-2.0291178772	 0.7553449247	 1.6053890136	 0.245369
81.2872	98.176	114.688	194.8709	235.0626	304.0836	361.5756	431.5858	450.0854	470.9856	517.6114	525.9212	633.0134	660.0018	784.15	859.5672	911.6763	952.6775	976.0713	1004.6871	1037.5003	1060.5105	1101.5289	1145.2709	1160.8447	1187.2544	1240.395	1292.861	1305.3449	1319.441	1346.6084	1369.3046	1386.4849	1401.56	1414.3858	1419.2623	1462.9439	1476.383	1477.8651	1494.4741	1501.3506	1509.7878	1795.3919	2960.9609	2974.636	2978.0864	3026.2268	3034.1936	3064.0713	3096.7771	3100.4969	3110.6078	3117.7113	3601.8769
CCC1COCC(=O)N1	CC[C@H]1COCC(=O)N1	
InChI=1S/C6H11NO2/c1-2-5-3-9-4-6(8)7-5/h5H,2-4H2,1H3,(H,7,8)	InChI=1S/C6H11NO2/c1-2-5-3-9-4-6(8)7-5/h5H,2-4H2,1H3,(H,7,8)/t5-/m0/s1
