16
gdb 113131	2.12764	1.35535	1.09853	3.6259	77.32	-0.2517	0.0081	0.2598	1174.4585	0.121358	-400.697489	-400.688107	-400.687163	-400.731725	33.704	
C	-0.4305247876	 1.0009021244	-0.13808451	-0.247911
O	 0.5508403546	-0.002896178	 0.0983855662	-0.219044
C	 0.9930079802	-0.6130768228	-1.0444621502	 0.104749
C	 1.596177142	-1.954406275	-0.9100449478	-0.345315
C	 0.2086072713	-1.8589437267	-1.5832044579	-0.052267
C	-0.9401961103	-2.3160628593	-0.8558690618	 0.266484
C	-1.9066893926	-2.6946601911	-0.2504415566	-0.426668
C	 0.1667223514	-2.0084555612	-3.0156253717	 0.233843
N	 0.1590890286	-2.0975502318	-4.1691523313	-0.341712
H	-0.0397833462	 1.7850061893	-0.8011196995	 0.119303
H	-1.3362935963	 0.5708643745	-0.5808145272	 0.135449
H	-0.6708175661	 1.4370130386	 0.8327325352	 0.139715
H	 1.3617276091	 0.0496601336	-1.8283591443	 0.12018
H	 2.4311187567	-2.2224102835	-1.545690732	 0.151257
H	 1.5866402691	-2.3964089099	 0.0787240649	 0.157057
H	-2.7591111739	-3.0365718511	 0.2824258941	 0.204878
96.8379	109.4483	130.9017	148.5832	196.3341	207.5663	283.2602	373.8357	440.8796	498.8312	504.9977	586.3041	588.0177	612.4818	662.1521	671.4232	767.5298	854.1191	939.4838	1024.5208	1032.8492	1087.6473	1123.0209	1171.671	1181.0961	1232.4247	1267.7648	1295.7772	1403.1059	1462.9248	1486.3481	1493.4953	1503.5931	2243.1018	2349.7833	3005.9712	3075.5197	3103.0319	3140.4377	3154.2705	3254.3761	3504.2132
COC1CC1(C#C)C#N	CO[C@H]1C[C@]1(C#C)C#N	
InChI=1S/C7H7NO/c1-3-7(5-8)4-6(7)9-2/h1,6H,4H2,2H3	InChI=1S/C7H7NO/c1-3-7(5-8)4-6(7)9-2/h1,6H,4H2,2H3/t6-,7+/m0/s1
