17
gdb 42507	3.39013	1.14456	0.98867	2.966	81.67	-0.2356	-0.0262	0.2094	1224.1461	0.134018	-384.651537	-384.642906	-384.641962	-384.685302	32.309	
O	 0.0618647376	 0.0801550572	 0.4077852278	-0.303514
C	-0.0108935712	 1.2565031027	 0.2094892273	 0.346458
C	-1.2060464848	 2.2595708107	 0.027168741	-0.290716
C	-0.1303559515	 3.3702850148	-0.2792707977	-0.35008
C	 0.9845845922	 2.3581738808	 0.0244544798	 0.235778
C	 2.2419995114	 2.5213883832	 0.8555339216	-0.307575
C	 2.353485448	 2.1939161996	-0.5975204593	-0.306421
C	-2.1894783062	 1.9521299256	-0.9843987207	 0.32089
C	-2.9830868747	 1.6856383955	-1.8476383802	-0.448022
H	-1.6859074863	 2.4210968666	 0.9998507684	 0.131625
H	-0.1594703847	 3.7047404436	-1.317578572	 0.124883
H	-0.1817746395	 4.2365053645	 0.3829578274	 0.114668
H	 2.4825620577	 3.5285085683	 1.1794765202	 0.126453
H	 2.4517572981	 1.7413811247	 1.5797173844	 0.138403
H	 2.6361221056	 1.1853010046	-0.8797541724	 0.14067
H	 2.6749035861	 2.9723286778	-1.2812143886	 0.127348
H	-3.6906327078	 1.44711055	-2.6024665571	 0.199153
41.733	124.0973	178.8888	193.51	219.7229	309.1219	384.1427	429.7711	534.0034	540.0344	612.2815	635.699	698.8854	753.7203	780.0089	803.503	828.2056	903.0664	932.8607	958.1521	1027.4778	1034.5532	1060.9784	1077.8329	1088.0732	1122.2408	1178.868	1199.2384	1227.5551	1252.8366	1303.9378	1366.7199	1457.9388	1488.1677	1489.9262	1888.0167	2234.7539	3041.4772	3076.3232	3131.3671	3132.4087	3134.0419	3215.6325	3230.5007	3504.9953
O=C1C(CC11CC1)C#C	O=C1[C@@H](CC21CC2)C#C	
InChI=1S/C8H8O/c1-2-6-5-8(3-4-8)7(6)9/h1,6H,3-5H2	InChI=1S/C8H8O/c1-2-6-5-8(3-4-8)7(6)9/h1,6H,3-5H2/t6-/m1/s1
