14
gdb 132912	3.17738	1.37372	0.95955	3.6915	71.87	-0.1982	-0.0328	0.1654	1116.5564	0.101159	-477.996795	-477.989165	-477.98822	-478.02877	29.642	
N	 0.0315305221	 1.3913962614	 0.1445346628	-0.589137
C	-0.0424018866	 0.0259659817	 0.0524526265	 0.259251
C	-1.1908689959	-0.7059453566	 0.0331997008	-0.28095
C	-1.1894515421	-2.1459933135	-0.0030562939	 0.391796
N	-2.2365864493	-2.8668043487	-0.0177062206	-0.554179
O	 0.0767529638	-2.7684929629	-0.0244840201	-0.245192
C	 1.2120531127	-2.0418567409	-0.0192301198	-0.039004
C	 1.2046901376	-0.7051179404	 0.0191806815	 0.136825
F	 2.3463456673	 0.0026769268	 0.0138352391	-0.08741
H	 0.9039097743	 1.8174710186	-0.1224599295	 0.267017
H	-0.7948327587	 1.9201716094	-0.082060046	 0.265137
H	-2.1655018806	-0.2355568688	 0.0522103939	 0.111908
H	-1.9931726022	-3.8561276848	-0.0450555063	 0.216274
H	 2.1126821275	-2.6409778012	-0.0505378483	 0.147664
103.7746	190.8417	292.7289	344.9086	363.2805	382.1886	420.1308	423.2919	452.8702	535.0611	585.5096	675.4016	693.1745	746.5404	767.1722	806.7694	844.0606	852.2899	873.8422	1061.5423	1122.7354	1201.7408	1246.974	1280.8836	1294.0296	1348.4317	1503.1026	1624.9157	1646.3733	1713.2168	1751.2394	3215.1806	3224.7885	3502.3579	3599.0707	3713.0822
NC1=CC(=N)OC=C1F	N[C@@H]1C=C([NH])OC=C1F	
InChI=1S/C5H5FN2O/c6-3-2-9-5(8)1-4(3)7/h1-2,8H,7H2	InChI=1S/C5H6FN2O/c6-3-2-9-5(8)1-4(3)7/h1-2,4,8H,7H2/t4-/m1/s1
