14
gdb 13037	4.79454	1.23614	1.02558	3.077	63.01	-0.2626	-0.0467	0.2159	1068.4646	0.10693	-378.725268	-378.717659	-378.716715	-378.758072	26.704	
O	 0.0543782332	-0.0053967999	-0.0842523099	-0.277438
C	-0.0362653776	 1.1792695574	 0.0112324102	 0.386497
C	-1.176566135	 2.198224718	 0.1549648148	-0.281883
N	-0.1488575004	 3.2066704697	 0.5286256311	-0.319275
C	 0.9791908432	 2.337359143	 0.1191212873	-0.091775
C	 2.1089195625	 2.1751917891	 1.1447123214	-0.332655
C	 2.9503704019	 3.3661835219	 1.2247505137	 0.257895
N	 3.6009486459	 4.3204813223	 1.2612244333	-0.301577
H	-1.6936555877	 2.3699696952	-0.7995672601	 0.132555
H	-1.9233212773	 1.9922248375	 0.928715939	 0.143413
H	-0.2093076364	 4.0851691516	 0.0291332862	 0.239558
H	 1.405063159	 2.5707973661	-0.8677991629	 0.117217
H	 1.677894229	 1.9745083486	 2.1305587951	 0.160747
H	 2.7257083498	 1.3128133895	 0.8673317409	 0.16672
57.9797	111.407	126.6717	207.7522	359.5299	390.6602	425.4668	534.3005	559.454	648.2474	748.2436	808.7418	889.8559	937.1968	996.4867	1000.6451	1029.835	1083.7702	1101.3611	1122.301	1205.8274	1231.5931	1268.4018	1329.0985	1366.1599	1375.2182	1451.6607	1477.1798	1920.4959	2362.9469	3002.452	3013.5803	3051.9806	3077.5774	3099.5926	3563.3674
O=C1CNC1CC#N	O=C1CN[C@H]1CC#N	
InChI=1S/C5H6N2O/c6-2-1-4-5(8)3-7-4/h4,7H,1,3H2	InChI=1S/C5H6N2O/c6-2-1-4-5(8)3-7-4/h4,7H,1,3H2/t4-/m0/s1
