14
gdb 16590	3.33834	1.88018	1.54296	2.8352	58.15	-0.2401	-0.0171	0.223	831.9012	0.105952	-419.647709	-419.640269	-419.639325	-419.679536	27.477	
O	-0.180268942	 1.3957078558	 0.1008907184	-0.413715
C	-0.0979128039	 0.0086281438	-0.0272665573	 0.096123
C	-1.3320053091	-0.7904172501	 0.0161925033	-0.115052
C	-0.4578812588	-0.7276503763	-1.3094223094	-0.257626
C	-1.6431248048	-0.1080357862	-1.9631405983	 0.386376
O	-2.0006756634	-0.0163892148	-3.107279698	-0.338444
C	-2.4797177407	-0.0204051283	-0.6565198925	 0.04336
O	-3.6541381833	-0.7893228592	-0.7749299428	-0.448602
H	 0.5326463697	 1.7908091861	-0.4123593085	 0.295053
H	 0.7603747393	-0.4424449394	 0.4725319447	 0.109426
H	-1.4817581371	-1.6519238367	 0.6526329413	 0.125772
H	 0.2124069038	-1.4511883482	-1.7584256852	 0.113925
H	-2.6736693289	 0.9741166454	-0.2423050192	 0.105031
H	-4.0165076509	-0.6107425721	-1.6515788364	 0.298372
70.4207	185.5772	203.1466	287.3071	306.4676	363.1066	408.7365	479.1213	602.4479	659.004	680.8709	779.6394	857.4274	905.4129	943.5181	944.7019	979.5127	1034.8153	1066.3819	1126.9529	1137.8588	1189.1418	1208.5539	1260.6508	1281.6565	1329.5139	1350.2847	1386.4808	1458.9299	1863.0081	3055.9434	3099.0861	3189.0115	3218.8058	3783.7562	3810.4386
OC1C2C1C(=O)C2O	O[C@H]1[C@@H]2[C@H]1C(=O)[C@H]2O	
InChI=1S/C5H6O3/c6-3-1-2(3)5(8)4(1)7/h1-4,6-7H	InChI=1S/C5H6O3/c6-3-1-2(3)5(8)4(1)7/h1-4,6-7H/t1-,2+,3-,4-/m0/s1
