14
gdb 16322	3.30541	2.04591	1.45628	3.857	57.75	-0.2616	-0.0039	0.2577	847.5663	0.105714	-419.651022	-419.643687	-419.642742	-419.683009	26.321	
C	-0.3044653567	 1.3452039902	-0.0316430013	-0.264409
O	 0.1270577207	-0.0079680427	 0.1163216183	-0.269103
C	 0.7163989187	-0.5135817983	-1.0010415316	 0.23796
C	-0.0654977339	-1.0252028446	-2.2309301002	-0.352485
C	 0.8558321725	-1.9283476974	-1.4862811571	 0.011525
O	 2.2164174917	-1.6738541691	-1.9412062169	-0.26452
C	 2.1763802927	-0.3888799374	-1.4031370911	 0.407614
O	 3.0638974382	 0.3928828093	-1.3166231006	-0.328057
H	 0.543175339	 2.0076248464	-0.2407407065	 0.143984
H	-1.043060811	 1.4366238117	-0.8386032332	 0.118422
H	-0.7634028244	 1.6288784055	 0.9166128782	 0.138364
H	-1.1233763347	-1.153362459	-2.018226317	 0.137235
H	 0.1849054574	-0.7136454344	-3.2398361221	 0.139244
H	 0.6546345799	-2.8786210003	-1.0144275188	 0.144226
70.7888	153.12	177.2658	223.1085	303.379	412.724	468.696	512.1342	654.8793	717.384	781.8388	853.7396	898.373	920.9178	958.2488	1020.8076	1036.2353	1051.3549	1073.9908	1083.3106	1180.2788	1212.5046	1242.9214	1277.261	1396.6206	1465.6387	1486.9116	1503.3576	1506.106	1945.3065	3012.2385	3080.8981	3122.0414	3141.0579	3219.0403	3238.5913
COC12CC1OC2=O	CO[C@]12C[C@H]1OC2=O	
InChI=1S/C5H6O3/c1-7-5-2-3(5)8-4(5)6/h3H,2H2,1H3	InChI=1S/C5H6O3/c1-7-5-2-3(5)8-4(5)6/h3H,2H2,1H3/t3-,5-/m1/s1
