18
gdb 67612	2.72244	2.1982	1.68963	2.4266	73.25	-0.2158	0.0768	0.2926	857.8589	0.150981	-401.900765	-401.894525	-401.893581	-401.930859	27.208	
O	-0.0536244962	 1.3539866911	 0.121513171	-0.478798
C	 0.0727314839	-0.0233351819	 0.0474122261	 0.394174
C	-0.4222968337	-0.878693244	-1.1166804471	-0.160718
C	 0.464051601	-2.102766541	-1.2255853659	-0.247609
C	 0.7788354668	-2.213206594	 0.2551492729	 0.002551
C	 1.1277200484	-0.8202083135	 0.8520915041	-0.137193
C	 0.2888131768	-1.2988820247	 2.0618650501	-0.175198
N	-0.5368808239	-2.0721984284	 1.0442780568	-0.147573
C	-1.09794389	-0.9504541928	 0.2400443562	-0.075251
H	 0.593682204	 1.7502490973	-0.4720156862	 0.284267
H	-0.9321686829	-0.4242385908	-1.9575079814	 0.088619
H	-0.0638444282	-2.9844938012	-1.6029675455	 0.112303
H	 1.3637338459	-1.9402853375	-1.8294657773	 0.0984
H	 1.3635447902	-3.0652060393	 0.6003752128	 0.07909
H	 2.1403272302	-0.4165202064	 0.9170547708	 0.05696
H	 0.8094066925	-1.9928753591	 2.7274041984	 0.100749
H	-0.2681606093	-0.5580947137	 2.6411995991	 0.108702
H	-2.1132157056	-0.6310153103	 0.430202045	 0.096525
240.1626	320.4425	340.4101	374.6274	458.9839	527.2967	590.4841	682.3554	700.2547	750.9586	812.5261	833.5433	843.9493	873.3856	906.2995	930.7709	942.098	969.0064	990.9095	1005.2584	1021.934	1036.7906	1053.6929	1073.0383	1133.8503	1152.5643	1170.6488	1198.6467	1207.4003	1225.5725	1237.9839	1263.0078	1275.1826	1305.3185	1322.4926	1343.0623	1447.1615	1482.6131	1510.2211	3042.0972	3056.5006	3089.4759	3090.4214	3117.9986	3124.5905	3192.7346	3213.8184	3790.4198
OC12C3CC4C1CN4C23	O[C@@]12[C@H]3C[C@H]4[C@@H]1CN4[C@@H]23	
InChI=1S/C7H9NO/c9-7-3-1-5-4(7)2-8(5)6(3)7/h3-6,9H,1-2H2	InChI=1S/C7H9NO/c9-7-3-1-5-4(7)2-8(5)6(3)7/h3-6,9H,1-2H2/t3-,4-,5-,6+,7-/m0/s1
