20
gdb 37052	2.85636	1.69576	1.39469	2.5753	77.93	-0.2371	0.0773	0.3143	1003.2549	0.174045	-403.10928	-403.102033	-403.101088	-403.140591	29.896	
C	-0.0310263833	 1.5658788648	-0.1407052407	-0.297704
C	 1.5380522068	 1.5921992593	-0.1568070023	-0.300152
C	 1.5333922816	 0.0780136882	 0.1165486524	 0.238816
C	 2.3117523815	-0.7268849325	 1.1211817462	-0.15384
O	 1.4847208178	-1.7206784327	 1.7172223504	-0.240888
C	 0.2670369385	-1.2152712735	 2.242076072	-0.067015
C	-0.7243171874	-0.7891336643	 1.1375156539	-0.299733
C	 0.0298989668	 0.0529179083	 0.13652906	 0.273968
N	 0.7829485582	-0.6447361808	-0.9053636355	-0.377057
H	-0.4413242234	 2.1425605767	 0.6924837531	 0.107028
H	-0.5536595245	 1.8631263487	-1.0567895523	 0.096691
H	 2.0294157655	 1.9077380592	-1.0834351151	 0.097307
H	 1.9475457995	 2.1805684938	 0.6684855165	 0.107136
H	 3.1519667611	-1.2695346561	 0.6769806586	 0.111483
H	 2.7090026699	-0.0475321277	 1.8955960482	 0.082455
H	-0.1510077486	-2.0195312985	 2.8540558959	 0.107395
H	 0.4716016043	-0.3564229837	 2.9047099942	 0.079269
H	-1.1399819355	-1.6751862765	 0.6495967003	 0.118727
H	-1.5536475703	-0.2303610678	 1.5855037603	 0.095188
H	 0.7694166512	-0.1503418349	-1.7958353061	 0.220926
128.2244	203.5264	297.7458	327.0616	362.0868	409.9667	459.4151	524.2655	538.763	668.7339	740.9231	763.7977	777.9587	832.2827	839.2594	921.0189	935.3367	963.5459	986.0046	1017.4533	1030.5543	1088.3012	1103.3343	1113.6473	1142.0562	1157.4375	1193.5299	1205.9557	1235.5259	1246.8831	1263.053	1270.8531	1305.4331	1323.9331	1368.1836	1396.2642	1418.7044	1450.9878	1469.7207	1478.4374	1487.4622	1496.4232	1501.5128	2952.5667	2958.0181	3035.6518	3043.3838	3045.5996	3074.0966	3084.1584	3089.9162	3098.1277	3107.7595	3462.0676
C1CC23COCCC12N3	C1C[C@@]23COCC[C@@]12N3	
InChI=1S/C7H11NO/c1-2-7-5-9-4-3-6(1,7)8-7/h8H,1-5H2	InChI=1S/C7H11NO/c1-2-7-5-9-4-3-6(1,7)8-7/h8H,1-5H2/t6-,7+/m0/s1
