20
gdb 86665	2.42793	1.26289	1.04541	4.2621	77.37	-0.2372	0.0303	0.2675	1231.7069	0.168435	-440.300227	-440.290104	-440.28916	-440.335735	36.419	
C	-0.2086827844	 1.4818679567	 0.0611176091	-0.415726
C	-0.0521850565	-0.0365709457	-0.0229840031	 0.276205
C	-1.3830383681	-0.7576264659	 0.1869202545	-0.433883
C	 0.7679658149	-0.5344021872	-1.2657252278	 0.053672
O	 1.0320991098	 0.486146923	-2.1929059121	-0.422507
C	 1.919706284	-0.9387814667	-0.2962051082	-0.204382
N	 1.053873478	-0.561025194	 0.813914218	-0.060772
C	 1.2677359334	-0.6572001723	 2.1423812079	 0.121321
O	 2.2757143746	-1.1129847878	 2.6471496923	-0.33795
H	 0.7467595288	 1.9868204583	-0.0901420759	 0.133297
H	-0.9032154419	 1.835710517	-0.7059497808	 0.128654
H	-0.6059325549	 1.7655449714	 1.0409107296	 0.115776
H	-2.0952869987	-0.4660557912	-0.5921735331	 0.126883
H	-1.2528948266	-1.8430890714	 0.1500528566	 0.121062
H	-1.8235154201	-0.5003141509	 1.1556235154	 0.124582
H	 0.2950365552	-1.3998327652	-1.7466055525	 0.076109
H	 1.5312296272	 0.1130570059	-2.926010664	 0.292683
H	 2.2204010687	-1.9910474846	-0.2930411515	 0.120672
H	 2.8099676801	-0.3072238039	-0.3936556998	 0.120208
H	 0.4100889465	-0.2766046755	 2.7342175153	 0.064096
40.1312	67.3353	163.3501	196.856	219.5521	237.4625	248.7227	289.6683	327.0159	339.1454	388.3162	428.8341	486.8585	606.0413	636.9228	788.3979	851.4753	892.6551	942.1318	979.2946	1001.0024	1033.1457	1041.5607	1108.0252	1142.4154	1164.6356	1180.0625	1197.9084	1258.4366	1272.1627	1302.703	1314.2139	1397.1238	1400.8484	1413.0887	1432.9681	1453.6519	1476.9942	1480.0419	1498.3788	1503.3154	1507.8484	1783.4564	2919.8342	3020.0278	3034.1197	3035.6924	3046.3035	3087.1037	3104.5266	3112.7397	3115.7184	3139.9184	3824.4451
CC1(C)C(O)CN1C=O	CC1(C)[C@@H](O)CN1C=O	
InChI=1S/C6H11NO2/c1-6(2)5(9)3-7(6)4-8/h4-5,9H,3H2,1-2H3	InChI=1S/C6H11NO2/c1-6(2)5(9)3-7(6)4-8/h4-5,9H,3H2,1-2H3/t5-/m0/s1
