20
gdb 41936	3.28659	1.45284	1.06624	2.2294	78.66	-0.2432	0.0256	0.2688	1131.6109	0.175282	-403.175318	-403.16788	-403.166935	-403.20745	29.269	
C	-0.0343261231	 1.5365910574	-0.080323295	-0.210522
C	 1.4512447744	 2.028941495	-0.0065565272	-0.255895
C	 2.1983703597	 0.8208810299	 0.5620985772	 0.014747
C	 3.684795387	 0.6452597633	 0.3383472867	-0.109881
O	 4.0877240034	-0.6802673478	 0.7621095166	-0.238835
C	 3.1546438069	-1.6660770274	 0.7732406906	 0.128257
N	 1.9399133266	-1.6453005652	 0.41155188	-0.297528
C	 1.4764981327	-0.3611349913	-0.0917301964	 0.085167
C	-0.0003875341	-0.0098458268	 0.1153409785	-0.24158
H	-0.6434495626	 2.013830857	 0.6916615129	 0.105003
H	-0.4811943136	 1.8086526408	-1.0402822135	 0.103719
H	 1.8263478525	 2.265470336	-1.0095242058	 0.098638
H	 1.563462239	 2.9324894113	 0.5986800296	 0.099091
H	 2.009107247	 0.7577994169	 1.6434647978	 0.085775
H	 3.9448240163	 0.7603801323	-0.7219472687	 0.110606
H	 4.3018946951	 1.3356907944	 0.9201862462	 0.116561
H	 3.6038189634	-2.5755339397	 1.168535627	 0.121947
H	 1.680732262	-0.3287905429	-1.1746807361	 0.078947
H	-0.2948062514	-0.2854185425	 1.1334033346	 0.105047
H	-0.6644316212	-0.5419268108	-0.5699416551	 0.100736
87.3651	140.4965	189.1302	305.8983	355.7426	434.8269	483.1662	543.9721	589.9539	629.7167	764.8441	806.8087	851.0842	894.5091	908.0397	922.705	964.6085	974.2141	996.1207	1010.8486	1051.4784	1110.9942	1119.8894	1155.7518	1171.2015	1190.209	1202.4215	1249.8997	1268.3036	1272.1979	1310.5674	1321.0071	1327.3406	1344.0763	1371.822	1388.0183	1407.2977	1418.4156	1489.693	1498.4923	1511.8618	1516.5692	1704.6909	2964.0791	3003.8389	3025.0972	3036.2712	3051.9386	3063.5901	3082.2944	3088.1875	3097.3833	3112.6222	3158.5578
C1CC2COC=NC2C1	C1C[C@@H]2CO[CH][N][C@H]2C1	
InChI=1S/C7H11NO/c1-2-6-4-9-5-8-7(6)3-1/h5-7H,1-4H2	InChI=1S/C7H11NO/c1-2-6-4-9-5-8-7(6)3-1/h5-7H,1-4H2/t6-,7+/m1/s1
