19
gdb 84215	3.05428	1.66865	1.50938	0.6515	85.86	-0.1898	-0.0148	0.175	970.2094	0.160735	-348.692402	-348.68527	-348.684326	-348.723553	29.66	
C	 0.1351803521	 1.555934452	-0.0556849826	-0.391397
C	-0.0119828909	 0.0278351793	-0.0075910305	-0.026152
C	 0.7866171413	-0.6203753578	-1.1435650711	-0.100549
C	 1.6001472121	-1.5796596316	-0.6682395919	 0.052544
C	 3.0912220496	-1.3934644492	-0.7012253422	-0.154798
C	 3.3656737285	-0.890844625	 0.5152749402	-0.07448
C	 2.1802119715	-1.0151234032	 1.4540777294	-0.084194
C	 0.626463909	-0.6543874035	 1.2123014701	-0.057069
C	 1.2273411012	-1.9357144004	 0.7696564648	-0.126827
H	 1.1900899173	 1.8471023886	-0.0782492438	 0.123411
H	-0.355074571	 1.9754695165	-0.9403920793	 0.112503
H	-0.3221917282	 2.0108467919	 0.8294038384	 0.113713
H	-1.0898780153	-0.2052150288	-0.0082522091	 0.073155
H	 0.9879099513	-0.0622655622	-2.0538267468	 0.089073
H	 3.7344905133	-1.4002302453	-1.5704580763	 0.106662
H	 4.3180562862	-0.4794852189	 0.8293469268	 0.097459
H	 2.3911193409	-1.1275750545	 2.5135842684	 0.084543
H	 0.0913705102	-0.5950566623	 2.1577967986	 0.07965
H	 0.966583841	-2.9426698457	 1.0823140771	 0.082756
114.7722	220.9666	246.1176	330.2202	384.1208	478.2283	533.9507	602.1004	635.8516	706.4378	731.1171	754.0333	790.0389	819.5984	843.68	855.8086	898.287	908.9011	942.4977	962.0129	991.0492	1038.483	1060.917	1071.913	1100.2047	1107.1755	1116.0589	1136.5963	1155.6776	1250.3538	1288.9995	1296.7133	1313.4307	1337.2291	1348.952	1376.6868	1403.3952	1492.4801	1497.74	1589.7821	1616.5682	2951.1649	3030.0769	3098.6342	3106.7853	3130.5717	3140.4682	3155.3846	3164.2989	3195.6969	3232.1577
CC1C=C2C=CC3C1C23	C[C@H]1[CH][C]2C=C[C@H]3[C@@H]1[C@@H]23	
InChI=1S/C9H10/c1-5-4-6-2-3-7-8(5)9(6)7/h2-5,7-9H,1H3	InChI=1S/C9H10/c1-5-4-6-2-3-7-8(5)9(6)7/h2-5,7-9H,1H3/t5-,7-,8+,9-/m0/s1
