19
gdb 98210	2.20955	0.98016	0.75892	1.7439	81.42	-0.2447	0.0103	0.2549	1583.6166	0.155567	-423.040419	-423.029151	-423.028207	-423.07957	37.151	
C	 0.9941958036	 1.3095631057	-0.1836394089	-0.240451
O	 1.0175890396	-0.1163118666	-0.3300202448	-0.230153
C	 0.0159254198	-0.6356770457	-1.0616629078	 0.451758
O	-0.87666679	 0.0133228377	-1.5413432307	-0.355438
C	 0.1780081342	-2.1565473344	-1.1954276651	-0.250696
C	-1.1636470992	-2.8142669263	-1.5579493205	-0.383361
C	 1.2203684995	-2.4387169044	-2.1832152197	 0.108562
C	 2.0578686028	-2.6684535507	-3.0169551949	 0.021859
C	 3.0770219358	-2.9488893588	-4.018094458	-0.496805
H	 1.0657611165	 1.7972021118	-1.1591677528	 0.142296
H	 0.0704136459	 1.6321770488	 0.3031694922	 0.140924
H	 1.8584431985	 1.5585367765	 0.4319924887	 0.133912
H	 0.5183363441	-2.5216819082	-0.2182404502	 0.123362
H	-1.5435727053	-2.4043675631	-2.4952023078	 0.144842
H	-1.0323628151	-3.8929865782	-1.6683341005	 0.121196
H	-1.905090162	-2.6249743121	-0.7769778767	 0.120345
H	 3.103785061	-4.0148239349	-4.2699287168	 0.148882
H	 2.887896445	-2.3948274024	-4.9440759346	 0.150006
H	 4.0737474353	-2.6678973248	-3.6605532111	 0.148958
22.8712	24.7033	69.6028	111.3782	128.968	161.6354	203.7341	220.0671	275.8031	290.3027	331.9211	414.2344	429.0622	533.701	622.6778	725.9308	812.0085	862.4604	978.9606	1025.3069	1052.6239	1053.2965	1071.9942	1110.9211	1178.5326	1181.8343	1201.1226	1224.823	1318.0812	1333.6052	1407.265	1415.1052	1472.3019	1478.2193	1478.7881	1481.7933	1488.1621	1492.4342	1496.9534	1826.1996	2371.6001	3027.6397	3030.3873	3052.1191	3054.8245	3088.4342	3089.1281	3126.6897	3128.7807	3147.0073	3160.0222
COC(=O)C(C)C#CC	COC(=O)[C@@H](C)C#CC	
InChI=1S/C7H10O2/c1-4-5-6(2)7(8)9-3/h6H,1-3H3	InChI=1S/C7H10O2/c1-4-5-6(2)7(8)9-3/h6H,1-3H3/t6-/m0/s1
