20
gdb 70674	2.5063	1.68258	1.27671	2.1257	79.71	-0.2348	0.0244	0.2592	1066.1253	0.171886	-403.146208	-403.137993	-403.137049	-403.178609	32.339	
C	 0.2397803432	 1.5654212447	 0.1979279928	-0.449806
C	 0.0887936607	 0.0662688947	 0.1063159435	 0.426646
C	-0.9555106292	-0.661898995	 0.9048068099	-0.356416
C	 0.5157928447	-0.8381245118	 1.2262928286	-0.058415
C	 1.2627534697	-2.1083993196	 0.8852511287	-0.249222
C	 2.5826406272	-1.7865001016	 0.171240325	-0.140108
N	 2.4768432965	-1.3080104491	-1.1972890849	-0.249385
C	 1.4718619212	-0.7572319167	-1.7168291482	 0.111691
O	 0.2423792526	-0.396504921	-1.228389856	-0.272256
H	 1.2537798508	 1.8729264294	-0.0806231151	 0.126237
H	-0.4656619535	 2.0641126606	-0.474304458	 0.128407
H	 0.0476813877	 1.9107477601	 1.2176977237	 0.118033
H	-1.5808163515	-0.0878569267	 1.5800700211	 0.113012
H	-1.4546573152	-1.4886874438	 0.4112806864	 0.123668
H	 0.881629038	-0.3241289609	 2.1123359926	 0.088351
H	 1.4656368335	-2.6848470413	 1.7958186502	 0.098839
H	 0.6568083761	-2.7515800895	 0.2376974733	 0.110302
H	 3.1524050339	-1.0491702483	 0.7557472118	 0.107749
H	 3.2120681004	-2.6842388862	 0.1373916093	 0.107937
H	 1.488508203	-0.5320640579	-2.7841626547	 0.114736
109.4875	142.7077	217.1591	248.5953	314.193	342.1303	384.9647	407.5831	449.7375	486.7597	584.2491	688.0409	761.3453	816.3159	847.2009	875.926	916.1426	932.5026	943.1379	970.9284	993.1674	1031.3437	1054.7925	1080.0722	1117.2247	1136.5731	1146.7256	1155.0365	1226.0361	1253.8055	1286.7432	1298.492	1356.7965	1386.9163	1411.1002	1428.8159	1435.1632	1478.1886	1480.5288	1485.7718	1489.9607	1505.5691	1758.7952	3002.8932	3028.5751	3033.2545	3044.7352	3073.644	3099.9892	3114.6946	3126.7305	3131.1381	3134.0445	3222.9464
CC12CC1CCN=CO2	C[C@]12C[C@H]1CCN=CO2	
InChI=1S/C7H11NO/c1-7-4-6(7)2-3-8-5-9-7/h5-6H,2-4H2,1H3	InChI=1S/C7H11NO/c1-7-4-6(7)2-3-8-5-9-7/h5-6H,2-4H2,1H3/t6-,7+/m1/s1
