20
gdb 100861	2.02344	1.14048	1.056	5.9609	77.37	-0.2479	-0.0346	0.2134	1320.7616	0.168244	-440.33091	-440.320508	-440.319564	-440.366899	36.426	
C	 0.0391660801	 1.5667794066	 0.0070786842	-0.395725
C	 0.0048600445	 0.0377821657	-0.0444125075	-0.173078
C	-1.4073170086	-0.5645830178	 0.0714912303	-0.000831
C	-1.41619903	-2.0866929544	-0.1171246516	-0.398258
N	-2.0975143265	-0.1637345558	 1.3204216096	-0.090695
C	-3.2693976608	 0.6023087594	 1.2227307113	 0.16528
O	-3.9467212738	 0.9982672701	 2.1284743219	-0.265959
C	-1.567782528	-0.5762661055	 2.5494927364	 0.166272
O	-2.0152920026	-0.3397430331	 3.6377767306	-0.268285
H	 1.0614680312	 1.9350570535	-0.1157196847	 0.125318
H	-0.5693920807	 2.0045596048	-0.7921299363	 0.118504
H	-0.3386815904	 1.9476188405	 0.9604260981	 0.137133
H	 0.4257421417	-0.3097060676	-0.9954555929	 0.10877
H	 0.6509100858	-0.3796272633	 0.7377391525	 0.107444
H	-2.0118513653	-0.1279274776	-0.7319090934	 0.100034
H	-0.7926647054	-2.5939557856	 0.6256308517	 0.129693
H	-2.4319477704	-2.4832585683	-0.0356263348	 0.132198
H	-1.0252772664	-2.3425768708	-1.1063094993	 0.128333
H	-3.5049712207	 0.8070422401	 0.1583436958	 0.084791
H	-0.6473126635	-1.1712418611	 2.4014401981	 0.089062
43.1924	82.4318	120.9009	168.0641	212.4744	216.1001	235.5503	247.5342	277.6694	298.2478	373.04	474.9918	505.0255	527.328	624.3168	801.8881	854.2684	959.5645	969.9715	1001.1782	1019.5623	1027.7102	1043.527	1096.3778	1129.1787	1154.633	1201.7814	1262.3672	1317.5981	1329.076	1382.8755	1410.1691	1417.966	1419.0033	1458.849	1477.5172	1485.4464	1496.8978	1499.8869	1504.5749	1508.0677	1793.3805	1873.1485	2916.9913	2955.6853	3028.5207	3036.774	3038.8361	3044.6661	3066.0045	3105.5521	3114.7227	3117.7455	3121.5497
CCC(C)N(C=O)C=O	CC[C@@H](C)N(C=O)C=O	
InChI=1S/C6H11NO2/c1-3-6(2)7(4-8)5-9/h4-6H,3H2,1-2H3	InChI=1S/C6H11NO2/c1-3-6(2)7(4-8)5-9/h4-6H,3H2,1-2H3/t6-/m1/s1
