18
gdb 115239	4.07242	1.00223	0.83626	2.5456	68.98	-0.2436	0.0224	0.266	1328.4635	0.149003	-476.250758	-476.242192	-476.241248	-476.284307	31.771	
O	 0.0230236204	 1.4223900748	 0.061887928	-0.421454
C	 0.05507463	 0.0142978979	 0.0018895466	-0.069185
C	-1.3549638869	-0.5654666389	-0.0185566635	 0.090391
C	-1.3891886329	-2.0896359626	-0.0609620682	-0.16579
N	-2.7492108002	-2.550519617	 0.1791656026	-0.3239
C	-3.7251986733	-1.8481814638	 0.8219102006	 0.381694
O	-4.8306860213	-2.2994571164	 1.0508565635	-0.370339
C	-3.3662794604	-0.4117612596	 1.2017546303	-0.194232
O	-1.9809218151	-0.1181922639	 1.1795353547	-0.273134
H	-0.5668738665	 1.640912614	 0.7935960407	 0.292083
H	 0.5850318934	-0.2599249408	-0.9161660863	 0.112113
H	 0.6047051351	-0.4175268601	 0.8540782331	 0.095845
H	-1.8976358747	-0.1582364826	-0.8873939696	 0.086301
H	-1.0557112827	-2.441593241	-1.0440112075	 0.118794
H	-0.698069948	-2.4932989292	 0.6928278061	 0.116146
H	-2.9876931163	-3.5100153377	-0.0270858362	 0.251798
H	-3.9239202473	 0.256141517	 0.5256177523	 0.12638
H	-3.7237679031	-0.2341458203	 2.2179224128	 0.146488
75.0246	119.4578	159.433	179.7718	237.3356	359.0742	417.4566	442.9218	455.1751	494.6458	525.6547	552.121	642.1582	727.2911	802.1892	864.8627	930.6642	1020.3154	1050.3618	1076.0494	1099.8504	1116.4549	1128.8621	1145.4733	1227.2251	1258.6849	1280.6846	1284.1989	1350.3763	1368.7571	1389.4174	1399.4059	1409.7082	1444.72	1471.1963	1482.2094	1498.9172	1519.9379	1800.324	2970.8079	2981.268	2987.5027	3003.2625	3057.9349	3079.9188	3118.6893	3606.1734	3790.848
OCC1CNC(=O)CO1	OC[C@H]1CNC(=O)CO1	
InChI=1S/C5H9NO3/c7-2-4-1-6-5(8)3-9-4/h4,7H,1-3H2,(H,6,8)	InChI=1S/C5H9NO3/c7-2-4-1-6-5(8)3-9-4/h4,7H,1-3H2,(H,6,8)/t4-/m1/s1
