23
gdb 112742	2.41876	1.19329	0.91477	1.7504	85.85	-0.2511	0.0743	0.3254	1398.1932	0.204412	-388.271595	-388.261792	-388.260848	-388.306307	36.9	
C	 0.056023997	 1.5942946151	 0.075488159	-0.381681
C	-0.0785914543	 0.0685310301	 0.0303672323	-0.203116
C	 0.6252726268	-0.5578277895	-1.1665745773	-0.045031
C	 2.1862157791	-0.5757403441	-1.2215079164	-0.260213
C	 2.1416041064	-2.0283828843	-1.7895360038	-0.049579
C	 3.1452510827	-3.0586730194	-1.2959419495	-0.417264
C	 0.6858413865	-2.0835598438	-1.309788246	 0.42871
C	 0.0303524846	-3.108658189	-0.4930134658	-0.266053
O	-0.3296253356	-2.8973161397	-1.8670304466	-0.281895
H	 1.1070174776	 1.8982857472	 0.1276749017	 0.118615
H	-0.377278632	 2.0548903958	-0.8192051809	 0.116053
H	-0.4554794236	 2.0132672922	 0.9474873013	 0.112157
H	 0.3273983785	-0.3651928153	 0.9537525266	 0.090436
H	-1.1420226527	-0.2034487068	 0.0027878595	 0.102443
H	 0.2257979383	-0.13393025	-2.0968750736	 0.080332
H	 2.6772074188	 0.1826590851	-1.8338537824	 0.100151
H	 2.6209756189	-0.5531701498	-0.2163075021	 0.097196
H	 2.143870678	-1.9963839624	-2.8857183402	 0.084631
H	 3.1617023434	-3.1025932843	-0.2013813331	 0.11139
H	 2.9022331356	-4.0591471692	-1.6705827417	 0.122412
H	 4.1578579131	-2.8159454345	-1.6356774016	 0.116611
H	 0.5409944928	-4.0481021878	-0.2846359786	 0.111529
H	-0.7278893499	-2.8248368954	 0.2356128991	 0.112166
66.3816	96.3657	147.2835	207.454	216.4603	221.4248	261.7452	290.9555	324.9237	429.7513	477.6203	512.8946	546.6451	706.0494	777.1093	819.2502	852.8513	877.9005	912.6746	920.9285	955.1559	963.576	996.9532	1049.3975	1084.1885	1111.9684	1125.6961	1149.8192	1162.8219	1164.8089	1171.2323	1186.6841	1243.3426	1265.0443	1280.7534	1297.5458	1339.2671	1370.097	1395.8026	1409.1407	1412.2214	1425.0439	1485.788	1493.2573	1495.4746	1498.7773	1499.1595	1506.8376	1536.4683	3012.7923	3024.7902	3026.2623	3031.4244	3036.0007	3047.5821	3051.1141	3081.0299	3094.475	3095.9959	3098.5066	3103.5059	3115.0578	3165.1507
CCC1CC(C)C11CO1	CC[C@H]1C[C@@H](C)[C@]21CO2	
InChI=1S/C8H14O/c1-3-7-4-6(2)8(7)5-9-8/h6-7H,3-5H2,1-2H3	InChI=1S/C8H14O/c1-3-7-4-6(2)8(7)5-9-8/h6-7H,3-5H2,1-2H3/t6-,7+,8+/m1/s1
