22
gdb 96682	3.96589	0.72706	0.6492	0.7895	86.82	-0.2402	0.0377	0.2779	1811.731	0.191863	-404.343483	-404.332707	-404.331763	-404.381201	37.442	
C	-0.0013709479	 1.4695998938	 0.130351437	-0.324913
N	 0.0433368461	 0.0236903403	 0.1444714488	-0.288602
C	-1.005479523	-0.6545900566	-0.0659935547	 0.410245
C	-2.4119559464	-0.1766112866	-0.3558232649	-0.48726
O	-0.9673845057	-2.0071395249	-0.0520891598	-0.25635
C	 0.3025469905	-2.6161761831	 0.2262196723	-0.068349
C	 0.1154006003	-4.105656839	 0.2014344731	 0.006249
C	 0.1358039869	-4.8453911183	-1.1113556627	-0.249097
C	 1.2883096854	-4.9868106246	-0.1499428135	-0.272343
H	 0.6930494136	 1.8493313764	-0.6291794071	 0.122676
H	-0.9886087629	 1.9103804998	-0.0665291175	 0.098389
H	 0.3512725426	 1.8549767689	 1.0948776463	 0.123056
H	-2.4351967907	 0.4474460006	-1.2538202253	 0.141921
H	-3.0693332272	-1.0328854507	-0.5050493556	 0.141228
H	-2.798042001	 0.4242381311	 0.4728930231	 0.142165
H	 1.0333266308	-2.2915164513	-0.523707057	 0.106669
H	 0.6633623898	-2.2613788713	 1.1980149881	 0.112867
H	-0.5648048643	-4.4842662242	 0.9589270365	 0.088032
H	-0.537716747	-5.6854462988	-1.237758922	 0.111942
H	 0.2954392027	-4.2641276026	-2.013450486	 0.114085
H	 2.2265875571	-4.5058502463	-0.4068967281	 0.11427
H	 1.4042349401	-5.9209186129	 0.387905989	 0.11312
46.0343	54.1446	59.3175	76.0572	118.6695	171.1667	242.4355	278.6331	316.9578	327.5246	408.2767	511.6116	578.4227	626.2339	775.817	807.0207	821.6999	856.0547	921.9582	945.2343	986.1623	1032.4237	1052.1853	1053.478	1062.6707	1080.3629	1128.9008	1134.1984	1138.7876	1155.5359	1196.6276	1200.9365	1227.4771	1274.3748	1296.8255	1366.2569	1397.0602	1437.342	1448.5838	1470.6554	1478.8995	1479.7673	1499.3375	1501.0522	1506.2299	1512.9657	1753.7864	2996.7601	3034.6518	3051.2465	3059.1601	3063.7982	3073.4776	3112.4992	3131.9162	3136.6648	3151.3487	3155.2442	3209.9472	3225.0999
CN=C(C)OCC1CC1	CN=C(C)OCC1CC1	
InChI=1S/C7H13NO/c1-6(8-2)9-5-7-3-4-7/h7H,3-5H2,1-2H3	InChI=1S/C7H13NO/c1-6(8-2)9-5-7-3-4-7/h7H,3-5H2,1-2H3
