14
gdb 22714	4.58678	0.96618	0.87899	2.6654	73.8	-0.2566	-0.0266	0.23	1256.4287	0.100604	-432.782209	-432.774354	-432.77341	-432.814824	29.293	
O	-0.1057008352	 1.2993306338	-0.0568619779	-0.381923
N	 0.0228808853	-0.0905376522	 0.0457858844	-0.250852
C	-1.1036350316	-0.6591150843	-0.0296290569	 0.493191
C	-2.5696006867	-0.2230519037	-0.0759928086	-0.369768
C	-2.9199251353	-1.7196811767	 0.1022515172	 0.216274
N	-2.3248207628	-2.4267367677	-1.0559154209	-0.348315
C	-1.453500281	-2.1039302825	 0.1046568716	-0.216588
C	-3.9832741064	-2.2734095329	 0.8685656745	 0.188454
N	-4.855198321	-2.7171861263	 1.4874772603	-0.336515
H	 0.8066523959	 1.5984338841	 0.0266820045	 0.314647
H	-2.835594793	 0.3955592253	 0.7842532603	 0.153685
H	-2.9320416535	 0.2322063587	-0.9988991302	 0.146828
H	-2.5709779727	-3.4149875652	-0.9775980464	 0.255049
H	-0.9427527021	-2.8784649503	 0.6608077982	 0.135834
79.8403	140.9107	211.41	223.3141	324.0899	394.4433	452.3814	462.9042	521.4677	551.8078	580.4111	615.6903	700.5142	805.9369	834.6556	942.5615	958.8188	993.9372	999.5641	1043.7948	1107.4945	1123.1123	1161.1104	1217.2748	1262.5214	1321.1708	1382.2083	1420.5222	1456.2316	1800.0775	2347.735	3080.9771	3142.1333	3220.2435	3465.7345	3813.129
ON=C1CC2(NC12)C#N	ON=C1C[C@]2(N[C@@H]12)C#N	
InChI=1S/C5H5N3O/c6-2-5-1-3(8-9)4(5)7-5/h4,7,9H,1H2	InChI=1S/C5H5N3O/c6-2-5-1-3(8-9)4(5)7-5/h4,7,9H,1H2/t4-,5-/m0/s1
