21
gdb 116211	2.39653	1.40788	1.03341	2.2767	77.74	-0.2466	0.0754	0.322	1235.305	0.182235	-424.214255	-424.205242	-424.204298	-424.249024	33.676	
C	 0.2267117875	 1.5981073914	-0.0244954112	-0.382457
C	 0.1953059655	 0.069100059	 0.0365514431	-0.189163
C	 0.4946970247	-0.5771486977	-1.3236912178	 0.034969
O	 1.7636978121	-0.1577776488	-1.8324365216	-0.261037
C	 2.7424929299	-1.100668018	-1.4079319558	-0.089612
C	 2.0509997802	-2.4689203224	-1.4853494793	-0.320113
C	 0.5774500971	-2.110959056	-1.2944622988	 0.418087
C	-0.4079152039	-2.9822469987	-0.6453395181	-0.249291
O	-0.3765571474	-2.8422882518	-2.0685617612	-0.273487
H	 1.197620924	 1.9472397673	-0.384554134	 0.133954
H	-0.5385888192	 1.979891411	-0.7095653452	 0.115016
H	 0.0433850651	 2.0371592883	 0.960666193	 0.108242
H	 0.9178470745	-0.292984008	 0.7794006422	 0.092607
H	-0.7898828236	-0.2729939614	 0.3754782385	 0.09711
H	-0.2604246598	-0.2656861963	-2.0539121631	 0.095193
H	 3.6037496507	-1.0054834781	-2.0735103149	 0.114177
H	 3.0800044169	-0.8851044908	-0.3822000986	 0.092841
H	 2.1702390851	-2.9163138295	-2.4762158292	 0.129505
H	 2.4212001715	-3.1790700835	-0.7419773111	 0.108115
H	-0.094815248	-3.9533225237	-0.2616568977	 0.1115
H	-1.2825885429	-2.5584906525	-0.1532913993	 0.113845
24.5793	96.1502	173.1378	185.4507	235.9727	288.6876	316.2054	356.5754	464.4026	484.8781	536.1258	650.3125	756.0562	804.7983	851.3757	854.3706	906.1442	920.5709	942.7443	970.0495	984.0677	1034.0009	1065.3001	1096.9751	1124.8912	1131.3198	1148.9852	1168.9876	1208.2011	1230.1019	1250.0471	1278.0078	1292.2319	1301.8556	1346.0437	1384.4291	1390.8999	1407.9222	1424.7443	1477.2777	1482.7763	1495.8853	1508.879	1522.1419	1533.351	2979.6815	3022.3648	3037.1925	3046.8349	3062.7275	3064.5404	3075.6311	3095.7955	3102.324	3113.3949	3125.3547	3158.2962
CCC1OCCC11CO1	CC[C@H]1OCC[C@]21CO2	
InChI=1S/C7H12O2/c1-2-6-7(5-9-7)3-4-8-6/h6H,2-5H2,1H3	InChI=1S/C7H12O2/c1-2-6-7(5-9-7)3-4-8-6/h6H,2-5H2,1H3/t6-,7-/m1/s1
