17
gdb 90938	3.16114	1.49391	1.43583	2.0612	67.05	-0.2189	0.0598	0.2786	979.2885	0.135299	-458.905461	-458.897908	-458.896964	-458.937081	29.948	
C	 0.0394228652	 1.5773980985	-0.0295381757	-0.405231
C	 0.0362058289	 0.0606897217	 0.0407862767	 0.141655
O	 0.7466054094	-0.4699199803	-1.1028797178	-0.278216
C	 1.4862501304	-1.5780030455	-0.6620455331	-0.021796
C	 2.4976213692	-1.3503313343	 0.4774558013	 0.008074
O	 2.1792476529	-0.1265477375	 1.1350346317	-0.291664
C	 0.7815932281	-0.5500228096	 1.2244686096	-0.028417
C	 1.159857769	-1.9818986863	 0.7424433778	 0.272734
O	 0.7832352114	-3.1951660873	 1.2662999906	-0.456879
H	 1.062713883	 1.9481118302	 0.0567985562	 0.144603
H	-0.3811094724	 1.9120729092	-0.9813787	 0.127008
H	-0.5652204715	 1.998430448	 0.7802824482	 0.111748
H	-0.9990911696	-0.3241064974	 0.031881967	 0.064334
H	 1.7183416842	-2.3079059492	-1.4292614774	 0.111346
H	 3.5205203172	-1.7069150492	 0.4998212969	 0.114981
H	 0.3564561428	-0.3998127423	 2.2174706043	 0.093547
H	 0.0524187418	-3.5439410686	 0.7432724637	 0.292173
143.5646	216.0971	240.2251	249.2763	316.1402	334.9926	402.6175	510.9237	553.1944	626.6719	665.9356	759.7403	786.6172	827.7952	863.1565	914.0465	928.6647	941.2255	992.3804	1018.6183	1036.5757	1075.1457	1097.0308	1101.5093	1133.4088	1159.6456	1203.3937	1240.2974	1265.2623	1300.9277	1331.4381	1351.1539	1376.4027	1406.3184	1486.1226	1491.3359	1501.538	2946.1918	3046.8584	3116.2369	3118.9686	3143.0187	3185.4994	3194.2461	3789.1019
CC1OC2C3OC1C23O	C[C@H]1O[C@H]2[C@H]3O[C@@H]1[C@@]23O	
InChI=1S/C6H8O3/c1-2-3-6(7)4(8-2)5(6)9-3/h2-5,7H,1H3	InChI=1S/C6H8O3/c1-2-3-6(7)4(8-2)5(6)9-3/h2-5,7H,1H3/t2-,3+,4+,5-,6-/m1/s1
