19
gdb 50552	2.78577	1.36662	1.24561	3.0532	75.17	-0.2384	-0.0222	0.2161	1096.8603	0.158801	-423.021258	-423.012817	-423.011873	-423.055215	31.329	
O	 0.7805323803	 0.2065701025	 1.4200664363	-0.239359
C	 0.3500760433	 1.1636666196	 0.8349078936	 0.157851
C	 1.135082059	 1.9884383232	-0.178971494	 0.015852
C	 1.5480297317	 3.345356653	 0.4333590914	-0.332714
C	 2.8456825478	 2.9520369862	 1.124884615	 0.346991
C	 3.7333674221	 3.9340393893	 1.8322928105	-0.341174
C	 2.9467910957	 2.9188225873	 2.6287134527	-0.297625
C	 3.4076651941	 1.8123403759	 0.2752978607	-0.128601
O	 2.338069983	 1.3663809916	-0.5659649032	-0.253423
H	-0.6866697838	 1.5415241883	 1.0116676778	 0.067168
H	 0.5033624816	 2.1113072188	-1.068974573	 0.096592
H	 1.7208716351	 4.0677475843	-0.3714459687	 0.115611
H	 0.8021642718	 3.7648646785	 1.1145300487	 0.109553
H	 4.8074315433	 3.7983815071	 1.7511976944	 0.116525
H	 3.4216463121	 4.9728854001	 1.8719756901	 0.114745
H	 2.1002032481	 3.2702797968	 3.2099005516	 0.113272
H	 3.4856386792	 2.0936355125	 3.0825114403	 0.122284
H	 4.22638625	 2.1441945573	-0.3761868557	 0.101264
H	 3.7663983054	 0.979960728	 0.8919638915	 0.115188
44.6198	76.0534	125.6976	245.2187	279.4931	324.2401	343.5087	395.7418	512.4933	644.0041	767.8971	772.9708	780.935	814.6684	881.8278	899.7283	918.7394	946.6565	981.6457	985.4702	1001.2947	1050.4241	1060.9851	1082.2664	1105.5197	1127.3432	1187.1599	1196.2075	1221.6369	1239.0601	1288.8397	1307.8131	1343.632	1364.7804	1402.9887	1421.6833	1467.0719	1488.3801	1504.128	1521.5249	1842.7904	2834.7157	3012.8785	3025.1829	3047.1642	3055.0836	3095.2621	3122.5026	3127.8909	3200.6942	3216.855
O=CC1CC2(CC2)CO1	O=C[C@H]1CC2(CC2)CO1	
InChI=1S/C7H10O2/c8-4-6-3-7(1-2-7)5-9-6/h4,6H,1-3,5H2	InChI=1S/C7H10O2/c8-4-6-3-7(1-2-7)5-9-6/h4,6H,1-3,5H2/t6-/m1/s1
