15
gdb 67771	3.49356	1.68431	1.40984	3.3924	68.9	-0.2486	-0.0411	0.2075	916.878	0.113038	-416.788043	-416.781138	-416.780194	-416.819107	27.201	
C	-0.033136424	 1.4369072872	-0.0396186168	-0.481992
C	-0.010674727	-0.0612727005	 0.0720491777	 0.338036
N	-1.2318283297	-0.7757097077	-0.3073056174	-0.229476
C	-1.0936821635	-1.9465848363	 0.1686105348	-0.004415
N	 0.1510201436	-2.2050904519	 0.8677703116	-0.226642
C	 0.6600856498	-0.8180780076	 1.1424596098	-0.078204
C	 1.3641772767	-0.7859147467	-0.2226888997	-0.269736
C	 1.1605767166	-2.2451653978	-0.270946693	 0.444421
O	 1.6031929095	-3.1913582171	-0.8352681672	-0.30063
H	 0.9009106447	 1.8768787029	 0.3209979313	 0.124754
H	-0.1837969816	 1.7420088543	-1.0786541457	 0.146047
H	-0.8590569297	 1.840066322	 0.5537254775	 0.142396
H	-1.792279871	-2.7614467359	 0.0198292357	 0.146134
H	 1.033227604	-0.5350027046	 2.1179408055	 0.125973
H	 2.2130518815	-0.2151940102	-0.5739722141	 0.123334
145.2181	202.3166	228.1723	313.2688	386.7896	427.6864	553.3649	594.9888	643.5297	726.3036	764.4071	822.4024	826.0042	852.9659	887.8962	895.3336	922.4918	945.7667	981.2472	1029.3972	1039.9115	1085.0649	1106.5284	1165.1704	1220.9389	1253.5947	1305.6108	1388.557	1424.3969	1479.9339	1497.9462	1651.3691	1922.6397	3045.9551	3118.1043	3123.0835	3203.0894	3216.394	3220.1866
CC12N=CN3C1C2C3=O	C[C@]12[N][CH]N3[C@H]1[C@H]2C3=O	
InChI=1S/C6H6N2O/c1-6-3-4(6)8(2-7-6)5(3)9/h2-4H,1H3	InChI=1S/C6H6N2O/c1-6-3-4(6)8(2-7-6)5(3)9/h2-4H,1H3/t3-,4-,6+/m0/s1
