13
gdb 132026	2.42919	1.8507	1.05167	5.847	65.47	-0.2076	-0.0239	0.1837	1012.799	0.090509	-494.081547	-494.07411	-494.073166	-494.113344	28.252	
N	 0.0113732386	 1.4169517588	 0.1647297423	-0.592096
C	-0.0496357312	 0.0427431939	 0.0624402252	 0.020045
C	-1.1749529076	-0.7003629935	 0.0376874787	 0.291109
F	-2.4099641062	-0.1996052059	 0.0449502315	-0.064696
N	-1.1206691609	-2.0742198968	-0.0039155015	-0.358701
C	 0.0925993768	-2.6880607293	-0.0205998337	 0.090196
N	 1.2253271318	-2.0709787242	-0.0154405958	-0.318789
C	 1.2473051202	-0.6740432323	 0.0092537898	 0.371889
O	 2.2846355518	-0.0308916425	-0.01946084	-0.382608
H	 0.9389688972	 1.7454207317	-0.0785376614	 0.269914
H	-0.7450974844	 1.9392936593	-0.2501166226	 0.252531
H	-1.982732518	-2.5970406079	-0.0164185904	 0.280024
H	 0.0579501618	-3.7744080011	-0.0432332222	 0.141183
117.6541	207.7462	268.2602	298.8373	360.5345	374.4354	417.3566	491.8466	530.357	564.7113	590.1972	591.0753	652.5838	726.8462	799.8424	894.5098	929.9114	990.8229	1107.9745	1187.8308	1279.746	1299.233	1357.2291	1422.8248	1537.332	1600.8822	1632.3766	1737.8948	1758.5963	3166.0205	3532.3864	3639.2672	3661.5712
NC1=C(F)NC=NC1=O	Nc1c(F)[nH]cnc1=O	
InChI=1S/C4H4FN3O/c5-3-2(6)4(9)8-1-7-3/h1H,6H2,(H,7,8,9)	InChI=1S/C4H4FN3O/c5-3-2(6)4(9)8-1-7-3/h1H,6H2,(H,7,8,9)
