16
gdb 46405	3.87258	0.86441	0.75619	4.6828	71.29	-0.2603	0.0008	0.2611	1437.8566	0.124979	-434.053991	-434.045429	-434.044485	-434.088325	30.214	
N	-0.3314195272	 1.1296452048	-0.3417449187	-0.545426
C	-0.1461262412	-0.0683905871	-0.0241613787	 0.476044
O	 0.951394451	-0.7138151793	 0.4923830268	-0.245554
C	 0.2181654125	-1.9767414063	 0.5894980111	-0.107881
C	-1.0235839948	-1.3121210257	-0.0418916009	-0.117111
N	-2.1888015431	-1.2319941364	 0.8205012436	-0.312045
C	-3.2178934395	-0.3360085348	 0.2849789972	-0.274687
C	-4.3609359213	-0.2635098836	 1.1967722308	 0.258574
N	-5.2741320873	-0.2260220062	 1.9028151698	-0.298049
H	 0.4922252119	 1.70569606	-0.1606985759	 0.236796
H	 0.7079818111	-2.7591839286	 0.0068393548	 0.127381
H	 0.0918247465	-2.274783594	 1.6321991016	 0.13559
H	-1.237765885	-1.6582999156	-1.0663938495	 0.096974
H	-2.5820294013	-2.1591176156	 0.9527547335	 0.237473
H	-2.7799998361	 0.6614648799	 0.17189129	 0.198982
H	-3.5917480762	-0.6326365415	-0.7112911656	 0.132939
55.3652	91.545	123.0747	156.0005	213.5619	319.8338	366.9392	395.7895	462.5571	549.3594	688.39	739.0134	790.7951	844.5519	871.6892	922.2942	967.0309	970.4635	1008.4649	1031.7447	1073.67	1118.1296	1160.6555	1186.7939	1225.4827	1241.388	1278.1576	1339.6283	1379.7999	1396.0923	1490.2088	1497.5266	1505.2987	1826.2752	2369.385	2950.165	2966.4773	3073.494	3080.5857	3140.0119	3480.0512	3511.7763
N=C1OCC1NCC#N	[NH][C]1OC[C@H]1NCC#N	
InChI=1S/C5H7N3O/c6-1-2-8-4-3-9-5(4)7/h4,7-8H,2-3H2	InChI=1S/C5H7N3O/c6-1-2-8-4-3-9-5(4)7/h4,7-8H,2-3H2/t4-/m1/s1
