18
gdb 23112	2.22695	1.36979	0.92203	2.3691	75.85	-0.2434	-0.0225	0.2208	1254.2591	0.146966	-439.072077	-439.063288	-439.062344	-439.10636	32.175	
O	-0.2455178572	 1.4374817883	-0.1463901136	-0.389499
N	-0.0170873421	 0.0547708666	-0.0489779133	-0.231278
C	-1.109479082	-0.5932697602	 0.0266045021	 0.390972
C	-2.5270020303	-0.0719611979	 0.049707283	-0.297331
C	-3.3429455385	-1.2588987404	 0.5961694634	-0.226234
C	-2.5970740337	-2.5055603381	 0.0822588322	-0.222337
C	-1.1065856557	-2.1181371219	 0.1200150941	-0.168199
C	-0.2589895766	-2.7291786968	-0.988194576	 0.146552
O	-0.6678414016	-3.520037998	-1.7976318453	-0.239735
H	 0.6501257372	 1.791553485	-0.1631319095	 0.30793
H	-2.6038824612	 0.8444401826	 0.639328863	 0.132128
H	-2.8340776945	 0.1852519408	-0.9728279654	 0.130734
H	-3.3308105794	-1.2382739025	 1.6920523103	 0.106109
H	-4.3894812104	-1.234586813	 0.2827572319	 0.105759
H	-2.8097394367	-3.4033169185	 0.6665546161	 0.107751
H	-2.8723555568	-2.7256115069	-0.9540958338	 0.127465
H	-0.6327469447	-2.4098267462	 1.0681731821	 0.115936
H	 0.7902109442	-2.3678817627	-1.0033872013	 0.103276
52.5017	75.4937	178.7973	187.421	241.2068	259.3848	350.7306	398.7532	472.9219	522.54	588.8771	611.0458	693.1477	772.5983	850.0209	872.0166	908.9055	935.009	962.3171	987.5868	1022.5572	1041.8776	1111.1065	1162.9809	1191.2181	1206.5818	1224.4533	1260.0694	1301.1916	1309.9887	1340.322	1349.1068	1399.7931	1415.9443	1467.1875	1496.2466	1508.4883	1745.4351	1829.0275	2922.807	3010.2088	3028.9095	3042.4569	3064.1623	3099.0225	3105.9707	3114.5632	3817.7711
ON=C1CCCC1C=O	ON=C1CCC[C@H]1C=O	
InChI=1S/C6H9NO2/c8-4-5-2-1-3-6(5)7-9/h4-5,9H,1-3H2	InChI=1S/C6H9NO2/c8-4-5-2-1-3-6(5)7-9/h4-5,9H,1-3H2/t5-/m0/s1
