18
gdb 91897	2.37065	1.60365	1.06391	1.7078	72.7	-0.2383	-0.024	0.2143	1116.2935	0.148357	-439.076621	-439.068557	-439.067613	-439.109285	31.064	
O	-0.0090736368	 1.4293683195	 0.0806918834	-0.426726
C	 0.0211089994	 0.0144112716	-0.0001789801	 0.101674
C	-1.4296981471	-0.4493010319	 0.1468934672	-0.155538
N	-1.6480068978	-1.8886219344	-0.0923774065	-0.101371
C	-1.9434616774	-2.3064004862	-1.4445208814	-0.241102
C	-0.6237942915	-2.6600848966	-0.8248753236	-0.10783
C	 0.6215912535	-2.0085632818	-1.3365398257	 0.382284
O	 1.5866258847	-2.6641586635	-1.659631362	-0.322436
C	 0.6170057837	-0.4867306127	-1.3267847171	-0.346056
H	 0.897495759	 1.7499458113	 0.1235964062	 0.287706
H	 0.6140388692	-0.405170162	 0.8285954972	 0.085393
H	-1.7730157212	-0.2221924854	 1.1604477616	 0.122756
H	-2.0421358056	 0.144891338	-0.5417776846	 0.115844
H	-2.6917192167	-3.0868382461	-1.5551262097	 0.129377
H	-1.949011521	-1.5553934319	-2.2331755337	 0.118499
H	-0.4682166199	-3.6767666863	-0.4751877413	 0.116173
H	 0.0143790667	-0.0930794656	-2.1549121632	 0.125661
H	 1.6462774189	-0.1446885061	-1.4678764368	 0.11569
86.5101	132.3521	218.5535	255.5222	319.9249	372.7573	403.9413	438.19	461.4304	494.5383	566.0889	677.6313	749.8199	813.4093	878.9344	901.1547	916.3391	963.5276	1009.2723	1066.143	1079.1672	1096.1191	1102.0407	1116.3483	1143.0913	1179.6106	1231.7189	1260.7424	1269.1184	1292.4483	1309.1905	1348.9304	1374.1508	1393.8763	1434.9555	1467.5217	1500.2976	1518.9711	1801.4459	2971.2683	3034.2221	3037.9576	3084.4938	3093.4248	3098.7339	3154.7306	3181.4482	3819.2291
OC1CN2CC2C(=O)C1	O[C@H]1CN2C[C@H]2C(=O)C1	
InChI=1S/C6H9NO2/c8-4-1-6(9)5-3-7(5)2-4/h4-5,8H,1-3H2	InChI=1S/C6H9NO2/c8-4-1-6(9)5-3-7(5)2-4/h4-5,8H,1-3H2/t4-,5+,7?/m1/s1
