19
gdb 106529	3.15585	1.39004	1.23323	2.0729	70.38	-0.2367	0.0686	0.3053	1069.1062	0.160554	-460.137583	-460.129717	-460.128772	-460.169931	30.853	
O	 0.0047799884	 1.3988477469	-0.2463879301	-0.41809
C	 0.0470364906	 0.0220903614	 0.0863727832	-0.147894
C	-1.3452550917	-0.567071034	 0.1520701184	 0.347397
C	-1.5831589262	-2.0930822547	 0.1197449156	-0.304265
C	-2.7456716917	-1.665445238	-0.7981208102	 0.071413
C	-3.9450683212	-1.2299277675	 0.0349648035	-0.067221
O	-3.5069898824	-0.6560158132	 1.2613985332	-0.271204
C	-2.2874002475	 0.0798923115	 1.169737866	-0.093871
O	-2.0209191246	-0.4478954576	-1.1499388042	-0.349492
H	-0.4810581805	 1.4630308513	-1.077353967	 0.297543
H	 0.6397264661	-0.5515413843	-0.6425895861	 0.092423
H	 0.5418592826	-0.0544597626	 1.0609196051	 0.11212
H	-0.7970674754	-2.6176185341	-0.425699064	 0.107946
H	-1.8225371469	-2.5981150221	 1.055971285	 0.116478
H	-3.0139579393	-2.2644328913	-1.6720437256	 0.082467
H	-4.5384812412	-0.51314173	-0.5531986852	 0.101483
H	-4.5832494183	-2.0793746903	 0.3034733079	 0.10698
H	-1.8557498654	 0.0743375766	 2.1766232283	 0.106626
H	-2.4674984153	 1.1201194319	 0.8689249162	 0.109161
81.9966	165.3808	215.1092	277.6433	312.2829	399.0572	429.4456	434.3887	456.1929	559.425	639.4116	711.8209	841.6539	857.4415	878.881	904.8586	932.9622	938.1955	1001.4038	1010.6118	1031.949	1068.8654	1086.3596	1110.9936	1139.0028	1188.7624	1214.3798	1239.67	1257.3823	1260.7745	1285.4828	1314.5622	1341.7891	1372.1827	1390.437	1411.4432	1429.999	1482.2813	1486.5709	1494.6638	1496.1913	2987.7561	2991.0711	3021.4248	3065.72	3070.2814	3077.619	3078.5085	3088.2036	3148.5397	3794.1647
OCC12CC(COC1)O2	OC[C@@]12C[C@@H](COC1)O2	
InChI=1S/C6H10O3/c7-3-6-1-5(9-6)2-8-4-6/h5,7H,1-4H2	InChI=1S/C6H10O3/c7-3-6-1-5(9-6)2-8-4-6/h5,7H,1-4H2/t5-,6-/m0/s1
