17
gdb 86845	3.58412	1.07214	0.86143	3.1106	74.6	-0.2557	0.0126	0.2683	1293.4396	0.137251	-418.071504	-418.06287	-418.061926	-418.105208	30.868	
C	-0.0664057158	 1.3940735152	 0.0753511206	-0.347406
N	-0.0258895411	-0.0416018708	-0.0879303746	-0.076052
C	-1.2189527522	-0.8592840043	-0.0260849347	-0.176818
C	-0.7058737478	-2.2511859403	-0.4921841794	-0.165621
C	 0.7859847433	-2.2387202543	-0.0921701121	-0.347657
C	 1.1489859657	-0.7516447885	-0.0786730282	 0.405257
O	 2.2637755478	-0.2794062963	-0.0457115408	-0.381643
C	-1.4760198687	-3.3600483553	 0.0580129985	 0.271806
N	-2.0864193446	-4.2360057058	 0.5003010404	-0.315777
H	 0.9613231237	 1.7576705739	 0.0285262598	 0.171561
H	-0.6567212958	 1.8623889108	-0.7203669002	 0.129109
H	-0.503586872	 1.6744744298	 1.042294536	 0.129381
H	-1.6317271506	-0.9072845688	 0.9919566802	 0.128697
H	-2.0029387242	-0.4749210464	-0.6865719524	 0.129833
H	-0.779207872	-2.2967343425	-1.583692808	 0.141552
H	 0.9376026445	-2.6419689451	 0.9142836831	 0.153449
H	 1.4274243397	-2.7954035115	-0.7755096783	 0.150328
76.9932	134.5051	152.9582	166.0409	194.0493	264.6232	307.4417	444.7653	468.2797	544.332	571.1526	620.194	659.8356	776.0283	864.1031	931.622	1010.2108	1032.6209	1056.3263	1070.0667	1138.1654	1154.2693	1177.2939	1231.0519	1269.6258	1281.3613	1310.9229	1315.0322	1365.5046	1430.602	1451.8314	1471.5447	1493.1011	1511.9876	1541.2287	1819.02	2362.096	3002.6274	3017.268	3055.4462	3069.1901	3071.1663	3073.8052	3139.0189	3147.0242
CN1CC(CC1=O)C#N	CN1C[C@@H](CC1=O)C#N	
InChI=1S/C6H8N2O/c1-8-4-5(3-7)2-6(8)9/h5H,2,4H2,1H3	InChI=1S/C6H8N2O/c1-8-4-5(3-7)2-6(8)9/h5H,2,4H2,1H3/t5-/m0/s1
