14
gdb 27962	3.74683	1.22594	0.92398	6.4282	74.29	-0.2495	-0.0694	0.1801	1172.3998	0.102599	-432.937431	-432.929827	-432.928882	-432.969706	28.118	
N	-0.0784819144	 1.3465408693	-0.1028185882	-0.568088
C	 0.0153712921	-0.0112470437	-0.0430514636	 0.399274
N	-1.1362696263	-0.6976906534	-0.0281403434	-0.339353
C	-1.0430182658	-2.0296739923	-0.0094224845	 0.238567
C	-2.3751033948	-2.7340421297	 0.0037245204	 0.120972
O	-2.5209516062	-3.926724152	 0.0241172221	-0.235797
N	 0.0654557004	-2.7677721495	 0.0019334891	-0.283674
C	 1.2063775096	-2.0664733551	-0.0093953338	 0.013542
C	 1.2509942796	-0.6855116322	-0.0328526012	-0.187334
H	 0.7206675217	 1.9110195788	 0.1281225314	 0.263157
H	-0.9883070974	 1.7417116283	 0.0719578898	 0.267566
H	-3.2270558256	-2.0219816312	-0.0076955791	 0.086796
H	 2.1279800991	-2.644168764	 0.0012884949	 0.12121
H	 2.192343488	-0.1482658933	-0.045369014	 0.103161
88.9614	182.4098	202.6331	242.3193	328.6832	370.1929	433.4399	476.0405	496.9619	557.3121	652.3826	698.6281	802.5801	824.8097	851.5909	965.5524	996.1264	1006.1697	1046.1055	1082.6463	1126.5352	1279.5736	1322.6089	1377.8083	1389.9035	1431.6625	1502.8219	1593.248	1615.8762	1651.5615	1833.2429	2919.0429	3156.0964	3195.8523	3604.221	3730.2708
NC1=NC(C=O)=NC=C1	Nc1nc(C=O)ncc1	
InChI=1S/C5H5N3O/c6-4-1-2-7-5(3-9)8-4/h1-3H,(H2,6,7,8)	InChI=1S/C5H5N3O/c6-4-1-2-7-5(3-9)8-4/h1-3H,(H2,6,7,8)
