16
gdb 30933	3.10451	1.23383	0.90455	3.2905	69.53	-0.2148	0.0151	0.2299	1236.8554	0.123443	-475.043203	-475.034519	-475.033575	-475.07685	31.539	
C	 0.008734937	 1.3990856059	-0.3861734971	-0.503778
C	-0.1061277799	-0.0571355862	-0.1426682869	 0.225302
C	-1.1238439158	-0.9034395711	 0.0253012297	 0.182974
C	-2.6125469274	-0.7639445144	 0.0189745391	-0.176698
O	-3.0515073186	 0.3725302879	-0.7032628327	-0.397828
O	-0.6205091554	-2.1795119676	 0.2468166169	-0.228192
C	 0.7389236124	-2.0905159014	 0.2113337898	 0.485703
N	 1.4963258429	-3.0782319917	 0.3818907984	-0.58157
O	 1.0791365635	-0.7850985221	-0.0373082924	-0.247019
H	 0.5578427904	 1.6022022846	-1.3126631314	 0.141513
H	-0.9896352344	 1.8319138569	-0.4584604571	 0.159786
H	 0.5520202344	 1.8892911216	 0.4295550841	 0.146048
H	-3.0437436163	-1.699863424	-0.3667796741	 0.126377
H	-2.9966954988	-0.6364918946	 1.0377735265	 0.142363
H	-2.8031165548	 0.245461626	-1.625441024	 0.290192
H	 2.4704801108	-2.7956354899	 0.3159016614	 0.234828
63.6045	146.4421	176.2531	205.2423	218.378	286.3705	308.0669	363.562	393.0535	531.454	604.2138	630.2188	723.1282	733.789	775.3405	805.9299	941.6061	967.8608	999.5445	1006.8329	1073.3111	1084.6237	1125.3858	1201.6069	1233.8736	1282.1411	1321.895	1391.5099	1415.7197	1426.406	1482.4444	1489.1317	1500.2872	1772.178	1820.6886	2999.5042	3033.439	3058.2009	3083.8638	3152.4957	3547.639	3807.9293
CC1=C(CO)OC(=N)O1	CC1=C(CO)O[C@@H]([NH])O1	
InChI=1S/C5H7NO3/c1-3-4(2-7)9-5(6)8-3/h6-7H,2H2,1H3	InChI=1S/C5H8NO3/c1-3-4(2-7)9-5(6)8-3/h5-7H,2H2,1H3/t5-/m0/s1
