18
gdb 109027	3.23766	1.30823	1.03389	3.3884	78.93	-0.2333	-0.0538	0.1795	1183.3139	0.148337	-401.953687	-401.945434	-401.94449	-401.98683	31.066	
C	-0.2553498782	 1.4956296	-0.012460452	-0.380245
C	 0.0962387336	-0.0030529394	 0.0214036171	-0.290255
C	 0.826437092	-0.4541034441	-1.2056189197	 0.195637
C	 2.0986683795	-0.864958367	-1.3363147102	-0.1594
C	 2.4020378486	-1.3084364732	-2.7340376665	-0.086823
N	 1.5873594741	-2.4963863245	-3.1137262567	-0.327022
C	 1.1601403835	-1.1188481622	-3.5087993552	-0.167069
C	 0.1451521884	-0.5369080171	-2.5403848145	 0.388074
O	-0.9832795422	-0.1871455621	-2.7986325165	-0.334593
H	 0.648968788	 2.109615446	-0.0724187446	 0.112883
H	-0.8824418727	 1.7205503465	-0.878209787	 0.147195
H	-0.8008828364	 1.7817928916	 0.8917086356	 0.113634
H	 0.6951089281	-0.2302337648	 0.9099852153	 0.101263
H	-0.8337102302	-0.5790359816	 0.1036918821	 0.12341
H	 2.818844806	-0.9408866285	-0.5289888506	 0.114235
H	 3.3883237005	-1.1817560283	-3.1652009235	 0.103122
H	 2.003370476	-2.9308469228	-3.9389897708	 0.235805
H	 1.1255160513	-0.8482712283	-4.556846032	 0.110149
65.9749	121.5727	184.5465	201.5419	259.1867	294.4213	403.7533	476.2332	519.0889	612.2741	660.4758	736.6421	792.9142	807.2339	829.9152	868.5959	896.1333	907.0965	945.3929	959.3351	1027.6814	1054.4571	1090.0014	1108.9846	1133.2811	1154.3352	1218.2094	1266.6367	1280.7294	1346.6436	1349.8552	1359.5535	1387.3093	1403.7295	1476.8381	1496.8526	1511.998	1677.7734	1813.1353	3030.7172	3041.5437	3071.9493	3108.8779	3133.424	3179.9238	3194.5396	3198.9306	3452.2097
CCC1=CC2NC2C1=O	CCC1=C[C@H]2N[C@H]2C1=O	
InChI=1S/C7H9NO/c1-2-4-3-5-6(8-5)7(4)9/h3,5-6,8H,2H2,1H3	InChI=1S/C7H9NO/c1-2-4-3-5-6(8-5)7(4)9/h3,5-6,8H,2H2,1H3/t5-,6-/m1/s1
