14
gdb 21923	6.79975	1.22176	1.06621	1.4423	59.9	-0.2197	0.0178	0.2374	1038.645	0.108837	-415.874484	-415.867102	-415.866158	-415.906389	27.169	
O	 0.7149657753	 0.1590174676	-0.6590784349	-0.414026
C	-0.1106126622	 0.2956277654	 0.4915968128	-0.173656
C	-1.5141320351	-0.1624256652	 0.234293299	 0.359881
C	-2.7393145379	 0.237538792	 0.7343947276	-0.42786
C	-3.6629288959	-0.6259959231	 0.1046486722	 0.440019
O	-4.9994209947	-0.6097007226	 0.287446434	-0.429807
N	-3.083419434	-1.4841209263	-0.7225797699	-0.336533
N	-1.7631046366	-1.1852974011	-0.6163596476	-0.24423
H	 0.3686297813	 0.7493831481	-1.3372555676	 0.289506
H	 0.365478506	-0.3263278065	 1.2586006398	 0.135562
H	-0.124007259	 1.3250064165	 0.875528246	 0.114041
H	-2.942764814	 1.023413725	 1.4421731751	 0.108883
H	-5.368585138	-1.3038268829	-0.2729240949	 0.302624
H	-1.0866802954	-1.668848227	-1.1814418816	 0.275596
62.7917	153.2758	232.8955	327.1928	357.3376	386.3813	413.5569	487.5598	510.1414	640.074	698.9781	718.2599	775.2968	788.2546	975.698	1003.561	1032.8322	1066.7594	1147.5746	1176.6958	1200.854	1235.3104	1319.059	1362.0412	1408.8041	1457.1727	1497.5681	1530.7752	1560.324	1614.8245	3011.9739	3058.7793	3275.0345	3685.3595	3795.3704	3805.577
OCC1=CC(O)=NN1	OCc1cc(O)n[nH]1	
InChI=1S/C4H6N2O2/c7-2-3-1-4(8)6-5-3/h1,7H,2H2,(H2,5,6,8)	InChI=1S/C4H6N2O2/c7-2-3-1-4(8)6-5-3/h1,7H,2H2,(H2,5,6,8)
