20
gdb 56267	5.56973	0.59427	0.56641	2.5872	76.94	-0.2429	0.0314	0.2744	1955.5988	0.168934	-440.295329	-440.284975	-440.284031	-440.332908	36.143	
N	-0.1923286988	 1.2707155552	 0.137806938	-0.524998
C	 0.009883344	-0.0802124669	 0.1059929624	 0.412966
O	 1.0735320838	-0.5850427687	 0.4115158824	-0.358057
C	-1.2009659733	-0.8945826313	-0.3359681847	-0.33111
C	-1.0259137782	-2.3771603793	-0.0421880243	-0.052623
O	-2.168605825	-3.0492044359	-0.5474524523	-0.257406
C	-2.1152469173	-4.4282973793	-0.3636886423	 0.150763
C	-2.560308115	-5.0154697914	 0.9522900289	-0.285929
C	-3.4252117188	-5.140625922	-0.2879581231	-0.288744
H	 0.5989911614	 1.8629396975	 0.3297588065	 0.259993
H	-1.0388791718	 1.6927275947	-0.2012998874	 0.257993
H	-2.1094440346	-0.5194456531	 0.1490504198	 0.119309
H	-1.3473889274	-0.7558472953	-1.4146979234	 0.13361
H	-0.1079218664	-2.7477910152	-0.5180858121	 0.111286
H	-0.9200116099	-2.5486646464	 1.0382809259	 0.103369
H	-1.2886033869	-4.9166603408	-0.8820545566	 0.083642
H	-2.0537014912	-5.8961494162	 1.3313508821	 0.112959
H	-2.892095278	-4.3170549077	 1.712462727	 0.117324
H	-4.3126642712	-4.5199397938	-0.3344117932	 0.122562
H	-3.5188789554	-6.1074018739	-0.7693893135	 0.113092
22.2538	52.3324	80.5912	102.3146	139.4613	170.7853	231.2972	288.9278	411.2732	427.0848	503.0106	513.9802	617.1706	645.969	757.1623	812.9296	820.3005	824.805	875.7664	965.8922	981.0324	1048.8268	1068.4691	1071.875	1084.3207	1090.9036	1119.9854	1130.7957	1193.6179	1204.5325	1216.4205	1245.4421	1258.6276	1301.7681	1369.8719	1393.4551	1439.5853	1453.0824	1471.118	1499.2436	1521.4996	1618.0204	1794.7686	3003.4817	3034.9726	3037.6182	3077.5568	3088.7096	3135.7953	3141.8052	3219.7536	3234.3466	3601.3605	3737.5764
NC(=O)CCOC1CC1	NC(=O)CCOC1CC1	
InChI=1S/C6H11NO2/c7-6(8)3-4-9-5-1-2-5/h5H,1-4H2,(H2,7,8)	InChI=1S/C6H11NO2/c7-6(8)3-4-9-5-1-2-5/h5H,1-4H2,(H2,7,8)
