20
gdb 80177	2.37382	1.5735	1.31405	3.5705	79.3	-0.225	0.0334	0.2584	1085.2507	0.171755	-403.186592	-403.177804	-403.17686	-403.21998	32.992	
C	-0.0644695009	 1.5663815934	 0.0883490938	-0.426305
C	 0.0502000743	 0.0625842836	-0.0156136855	-0.025689
C	 0.6927637805	-0.656924427	-1.1909943778	-0.088315
C	 1.6443275365	 0.0894581886	-2.1099156696	-0.358647
C	 2.8099505699	 0.5374150722	-1.2133792362	 0.389127
O	 3.7501312312	 1.2340052607	-1.5345355968	-0.391601
N	 2.5799923019	 0.0352243096	 0.0467872029	-0.051622
C	 3.4160644405	 0.3678141118	 1.1777027547	-0.349442
C	 1.3523556268	-0.6934167359	 0.1690428339	-0.031482
H	 0.8533366608	 2.0764014583	-0.2149604406	 0.137185
H	-0.8754713256	 1.9405652473	-0.5458134437	 0.123047
H	-0.2830993638	 1.8676483578	 1.1183560858	 0.120443
H	-0.8115067176	-0.471381439	 0.379340763	 0.088809
H	 0.1962990548	-1.5398339873	-1.5744279204	 0.094181
H	 2.0319960056	-0.5552761715	-2.9048046634	 0.131425
H	 1.2129252205	 0.9697938027	-2.5957491452	 0.13326
H	 4.265364363	 0.9392034511	 0.798722535	 0.164145
H	 2.8725297486	 0.9728565906	 1.9138348869	 0.124369
H	 3.7819768846	-0.5370259599	 1.6772349899	 0.122569
H	 1.3940434583	-1.5887537572	 0.7817550934	 0.094544
98.2356	117.8239	159.94	165.6896	216.5515	273.3446	301.8305	424.6197	480.1766	560.942	586.4419	630.7202	687.3257	753.3722	779.0068	801.9332	900.0478	956.1962	984.0974	1002.9407	1033.7246	1066.1904	1097.6624	1122.3899	1131.4644	1138.9437	1159.8256	1191.7404	1217.6107	1268.6324	1292.43	1343.7496	1360.1077	1399.8712	1423.4351	1432.4972	1457.8204	1467.2904	1494.4117	1495.803	1502.2374	1519.0465	1803.8534	3016.6552	3035.7178	3059.6449	3067.1188	3092.4453	3096.4482	3114.3966	3132.9335	3141.5101	3150.979	3182.0522
CC1C2CC(=O)N(C)C12	C[C@H]1[C@H]2CC(=O)N(C)[C@@H]12	
InChI=1S/C7H11NO/c1-4-5-3-6(9)8(2)7(4)5/h4-5,7H,3H2,1-2H3	InChI=1S/C7H11NO/c1-4-5-3-6(9)8(2)7(4)5/h4-5,7H,3H2,1-2H3/t4-,5+,7-/m0/s1
