19
gdb 99102	3.73895	0.914	0.87755	2.9122	72.4	-0.2685	0.004	0.2725	1404.1103	0.156374	-460.181555	-460.171805	-460.170861	-460.216615	35.359	
C	-0.1331061732	 1.6381386374	-0.6452960509	-0.465145
C	-0.0847769147	 0.2140648895	-0.1526946827	 0.456093
C	 1.1565147327	-0.6169315044	-0.2655731357	-0.317687
C	 0.6496788278	-0.1761703123	 1.094094187	-0.298692
O	-1.2739122279	-0.5336361461	-0.4456196772	-0.279861
C	-2.3736205619	-0.2650955426	 0.2704879234	 0.398394
O	-2.4613006612	 0.5560244546	 1.1525439449	-0.372361
C	-3.5488254441	-1.1301336671	-0.1526807349	-0.142601
O	-4.6826086609	-0.8322619744	 0.610347598	-0.419879
H	 0.8324546798	 2.1233564192	-0.4780335003	 0.122912
H	-0.3462112584	 1.6669788392	-1.7189294466	 0.125748
H	-0.9003686143	 2.207216238	-0.1153065164	 0.150002
H	 1.0287974033	-1.6598899627	-0.5311256906	 0.127413
H	 2.0450725242	-0.1479415377	-0.6730911257	 0.119481
H	 1.1836336978	 0.601130301	 1.6290698312	 0.124603
H	 0.1977721685	-0.9291215507	 1.7285192361	 0.12739
H	-3.7294511058	-0.9631352469	-1.225202059	 0.124926
H	-3.2560073346	-2.1853797744	-0.044391855	 0.12304
H	-4.4061284069	-0.1336202995	 1.2223772845	 0.296226
67.7216	75.4222	108.5209	145.049	223.0643	272.3347	306.2891	333.8742	347.9004	402.8445	434.3584	454.8717	591.6378	711.1777	733.0955	765.9243	875.5681	894.5538	936.778	942.3474	992.1581	1040.3941	1042.3511	1069.7825	1080.7906	1129.5259	1143.0054	1185.8402	1241.9243	1245.0472	1270.4433	1322.5171	1358.2921	1417.2226	1457.5587	1465.1417	1482.0039	1497.3574	1498.3046	1512.4324	1805.5139	2995.8657	3016.532	3043.1509	3112.4942	3130.7309	3140.4686	3144.7468	3224.1279	3237.5031	3713.48
CC1(CC1)OC(=O)CO	CC1(CC1)OC(=O)CO	
InChI=1S/C6H10O3/c1-6(2-3-6)9-5(8)4-7/h7H,2-4H2,1H3	InChI=1S/C6H10O3/c1-6(2-3-6)9-5(8)4-7/h7H,2-4H2,1H3
