15
gdb 47785	2.27687	1.72389	1.18394	3.6345	67.05	-0.2592	-0.0069	0.2523	1036.8133	0.112049	-457.745847	-457.737816	-457.736872	-457.778893	29.488	
O	 0.0047682851	 0.1028863553	 0.5132841508	-0.315886
C	-0.039268963	 1.2018541696	 0.0404778245	 0.40753
O	-1.2053364674	 1.7167507603	-0.3953564465	-0.22777
C	-1.2528826577	 2.9571757721	-1.1283233032	-0.06533
C	-0.1018966454	 3.8728970943	-0.7721268411	-0.112663
O	 1.1144187152	 3.1681684628	-0.9641769327	-0.234737
C	 1.2256706389	 2.090421649	-0.0461408592	-0.212475
C	 1.5822092204	 2.5450596863	 1.3026558689	 0.349823
C	 1.8608849015	 2.9458330857	 2.4001954836	-0.460485
H	-1.2264065289	 2.7144055321	-2.1964057591	 0.129778
H	-2.220326245	 3.4084341656	-0.8916780026	 0.129484
H	-0.0822961319	 4.7359739966	-1.4424608317	 0.127831
H	-0.1827928974	 4.2327854498	 0.2634077613	 0.120908
H	 2.0165045064	 1.4419995943	-0.4345319432	 0.153674
H	 2.118382649	 3.2862568861	 3.3731644402	 0.210318
63.0705	128.7958	151.9371	209.018	338.4521	369.9997	428.3251	451.7729	508.921	605.7286	639.448	678.4765	686.8572	697.9896	840.9368	909.738	927.9404	974.0597	1025.8278	1100.3581	1122.7052	1142.2998	1226.842	1266.6897	1279.2857	1300.3014	1337.9499	1403.5712	1427.7544	1493.9204	1502.2883	1855.9402	2235.1967	3014.5231	3046.6329	3078.6056	3102.9446	3108.4819	3500.0425
O=C1OCCOC1C#C	O=C1OCCO[C@H]1C#C	
InChI=1S/C6H6O3/c1-2-5-6(7)9-4-3-8-5/h1,5H,3-4H2	InChI=1S/C6H6O3/c1-2-5-6(7)9-4-3-8-5/h1,5H,3-4H2/t5-/m0/s1
