23
gdb 104028	3.03042	1.22082	1.14114	1.3082	84.69	-0.2307	0.0811	0.3118	1235.2604	0.205528	-388.292064	-388.282924	-388.28198	-388.325647	36.033	
C	 0.0672671668	 1.5038651123	 0.1707142754	-0.393653
C	-0.0527478129	-0.0220464877	 0.1149409711	-0.207199
C	-1.4803853654	-0.5570547748	-0.0522030551	 0.406352
C	-2.1621862097	-0.0515408121	-1.33056362	-0.424097
C	-1.543017472	-2.1105204264	 0.0288545293	-0.298826
C	-2.8041168699	-2.3873492569	 0.8420469996	-0.060632
C	-2.7253087557	-2.1676160288	 2.342093145	-0.306444
C	-3.1998418477	-1.0653463455	 1.43568124	 0.095074
O	-2.2472897695	-0.0978320078	 1.0899707651	-0.300606
H	 1.0971020895	 1.799528082	 0.3935293077	 0.107677
H	-0.208990089	 1.9727187072	-0.7785617538	 0.113311
H	-0.5812189569	 1.9101569574	 0.9513322404	 0.136558
H	 0.5607404601	-0.4193386169	-0.7038660143	 0.091703
H	 0.3483986689	-0.448215854	 1.0419696566	 0.095372
H	-1.5787226183	-0.3134894886	-2.2198911998	 0.108472
H	-3.155173614	-0.5011184794	-1.4318770235	 0.114304
H	-2.2851217385	 1.0335378358	-1.3013541429	 0.124008
H	-1.6006016114	-2.5561487871	-0.9679281044	 0.10135
H	-0.6479995172	-2.5129133191	 0.5158934064	 0.09804
H	-3.5420422398	-3.0803602087	 0.4564261368	 0.088214
H	-3.4595695384	-2.6730465741	 2.9612133419	 0.107449
H	-1.7457830529	-2.0479691536	 2.7939781108	 0.113474
H	-4.2230874864	-0.7044541132	 1.4759518877	 0.090099
72.3603	103.9406	199.7566	234.1454	252.9045	290.5241	320.0723	366.3189	413.5743	433.687	479.1796	617.076	698.1084	755.3886	777.9468	800.4254	812.287	894.4499	897.8926	926.8558	935.8534	973.4456	999.6334	1012.9941	1029.8091	1060.9238	1063.2178	1087.822	1100.9254	1148.2737	1175.6999	1187.3892	1203.6795	1215.0761	1258.6462	1307.4267	1328.9882	1339.9993	1377.2617	1383.1515	1405.1036	1407.5991	1472.3474	1473.653	1487.1464	1494.3294	1500.2689	1505.9222	1512.0073	3023.1963	3035.1005	3042.5958	3043.1033	3061.9504	3091.5386	3101.4018	3105.0361	3123.1136	3123.9109	3126.6763	3149.738	3178.3946	3215.2238
CCC1(C)CC2CC2O1	CC[C@@]1(C)C[C@H]2C[C@H]2O1	
InChI=1S/C8H14O/c1-3-8(2)5-6-4-7(6)9-8/h6-7H,3-5H2,1-2H3	InChI=1S/C8H14O/c1-3-8(2)5-6-4-7(6)9-8/h6-7H,3-5H2,1-2H3/t6-,7-,8+/m1/s1
