19
gdb 86279	1.99097	1.52845	1.18455	2.154	78.3	-0.2489	0.0241	0.2729	1164.3875	0.1552	-422.980084	-422.97002	-422.969076	-423.014703	37.154	
C	-0.4132574047	 1.2343232912	-1.3226153409	-0.41672
C	 0.3006738562	-0.0456871591	-0.9528804487	 0.121953
O	 1.7039074002	-0.0274886335	-1.2884508844	-0.316383
C	 2.0868709434	-0.5169485874	 0.015126581	 0.131422
C	 3.2211503693	 0.2665866926	 0.6360394228	-0.404859
C	 0.6393096511	-0.305269831	 0.5582032626	 0.12007
O	 0.5863708993	 0.8466240691	 1.3803387576	-0.456497
C	-0.0206419031	-1.4395451398	 1.1849023165	 0.285883
C	-0.5978939679	-2.3593023674	 1.7021518526	-0.467993
H	 0.0163261863	 2.0840098246	-0.7884443599	 0.134239
H	-0.3191000726	 1.4076473581	-2.3990256188	 0.130324
H	-1.4800170876	 1.1633525799	-1.0828705236	 0.112849
H	-0.1932279373	-0.9178654507	-1.4030122386	 0.072131
H	 2.3324364203	-1.5864826449	-0.0329860796	 0.077465
H	 2.9541161384	 1.3182646937	 0.748272859	 0.138097
H	 3.4729774522	-0.140335854	 1.6203774876	 0.121612
H	 4.1045703833	 0.1891833451	-0.0054365827	 0.124241
H	-0.2930268583	 0.8923602632	 1.7701959103	 0.289035
H	-1.0963106287	-3.17802704	 2.1601636772	 0.203131
68.133	119.1773	156.7468	188.2343	194.5449	232.789	257.9026	266.0571	355.2798	357.1461	487.1324	490.7384	534.2307	573.3667	623.7385	631.0571	666.6849	767.9386	877.7004	879.4581	951.5614	993.071	1036.0867	1076.2885	1085.0443	1129.1846	1135.2742	1163.184	1198.4079	1273.2752	1317.7301	1349.9764	1371.0756	1397.2334	1399.0068	1420.7274	1479.1423	1484.6831	1488.1457	1492.9568	2229.8094	3005.3206	3012.8231	3039.914	3046.3289	3106.4213	3112.654	3138.3377	3147.2791	3498.4985	3817.5272
CC1OC(C)C1(O)C#C	C[C@H]1O[C@@H](C)[C@]1(O)C#C	
InChI=1S/C7H10O2/c1-4-7(8)5(2)9-6(7)3/h1,5-6,8H,2-3H3	InChI=1S/C7H10O2/c1-4-7(8)5(2)9-6(7)3/h1,5-6,8H,2-3H3/t5-,6+,7+
