18
gdb 96957	3.62103	1.25018	1.10266	2.2729	79.48	-0.2436	-0.002	0.2417	1156.9945	0.148845	-401.956988	-401.949005	-401.948061	-401.990154	29.669	
C	-0.2484825019	 1.4205121483	-0.1941241666	-0.338703
N	-0.2097026273	-0.023191692	-0.3825221635	-0.330056
C	-1.1525215939	-0.7199966735	 0.0524008683	 0.459285
O	-2.3055182567	-0.355332313	 0.7336712817	-0.286603
C	-2.7794286138	-1.755829556	 0.7288914689	 0.077093
C	-3.8533811566	-2.0162675252	-0.2834115304	-0.086149
C	-3.3560729018	-2.5722576499	-1.3898524936	-0.052455
C	-1.8649155136	-2.8196614291	-1.3237346781	-0.276977
C	-1.468444946	-2.2029639398	 0.033509971	-0.197495
H	 0.6012180057	 1.72528267	 0.4273956723	 0.125609
H	-0.1236022622	 1.9107221392	-1.1658113465	 0.124205
H	-1.1711948356	 1.7873162108	 0.270411904	 0.125666
H	-2.994526701	-2.06926369	 1.7524421458	 0.092075
H	-4.8917440881	-1.7556656989	-0.1174359976	 0.105539
H	-3.9400201251	-2.8330260538	-2.2665314144	 0.105685
H	-1.6367646727	-3.8917732623	-1.3647128951	 0.11454
H	-1.327994842	-2.3542653955	-2.1576033654	 0.134752
H	-0.7735071375	-2.8089260493	 0.6146204392	 0.103989
69.3071	84.1271	162.7956	206.4064	280.1317	306.7001	485.9942	497.2093	659.8708	670.6756	729.5729	781.8113	807.2443	868.3666	881.0121	919.7201	947.4201	976.4638	1009.3551	1010.4307	1035.397	1075.17	1112.5566	1131.5332	1132.7611	1162.9821	1182.132	1216.5008	1279.5776	1288.3079	1318.3464	1338.9786	1379.2632	1439.5335	1481.1867	1494.7149	1497.1675	1674.0768	1842.0671	3016.2898	3032.4501	3070.938	3079.9421	3086.8031	3093.1431	3118.4543	3185.3205	3215.2795
CN=C1OC2C=CCC12	CN=C1O[C@H]2C=CC[C@@H]12	
InChI=1S/C7H9NO/c1-8-7-5-3-2-4-6(5)9-7/h2,4-6H,3H2,1H3	InChI=1S/C7H9NO/c1-8-7-5-3-2-4-6(5)9-7/h2,4-6H,3H2,1H3/t5-,6+/m1/s1
