20
gdb 99579	1.83808	1.29834	0.92593	3.6443	82.85	-0.2477	0.0217	0.2694	1353.0998	0.167968	-403.140518	-403.129839	-403.128894	-403.176784	37.669	
C	 0.0209357494	 1.5750685884	 0.0217069659	-0.398339
C	 0.0041179367	 0.0473686237	-0.0358960169	-0.176875
C	-1.4206947272	-0.5497245648	 0.0644390996	-0.203426
C	-1.3893226977	-2.0066629304	-0.1172814043	 0.335334
C	-1.3380436537	-3.1987463946	-0.2604206569	-0.436145
N	-2.1096720808	-0.1792113493	 1.3001768937	-0.019751
C	-1.5894389344	-0.6423685947	 2.5775300127	-0.354188
C	-3.2827625237	 0.5209915281	 1.2619676487	 0.158741
O	-3.9375936967	 0.8535561239	 2.2259713455	-0.342071
H	 1.0434776967	 1.9518113063	-0.0705656869	 0.121723
H	-0.5683904006	 2.0101793818	-0.7931616724	 0.118812
H	-0.3906747858	 1.9474013263	 0.9642567883	 0.134651
H	 0.4359015535	-0.3039287695	-0.9789451169	 0.117355
H	 0.6259607424	-0.376690485	 0.7596112603	 0.114773
H	-2.0159427859	-0.1183519566	-0.7513777596	 0.118779
H	-1.3085675257	-4.2522042941	-0.39389187	 0.203232
H	-0.6478539951	-0.143529245	 2.8327944611	 0.126206
H	-2.3334583457	-0.4041607895	 3.3373506377	 0.169003
H	-1.4196732692	-1.7231022739	 2.5477921316	 0.138657
H	-3.5791730664	 0.7655752988	 0.222859089	 0.07353
46.6515	87.3344	110.7475	140.7525	147.5405	182.4051	247.6471	280.2639	321.9591	345.8933	350.5283	447.0756	498.2943	532.4703	635.2896	664.8336	685.7065	804.9352	857.8556	907.2583	984.4127	1024.3448	1030.2042	1075.0634	1113.3313	1120.5744	1161.369	1254.5125	1274.9882	1290.2982	1332.7211	1369.0216	1412.1499	1430.4584	1439.7981	1447.4626	1484.135	1494.9652	1502.2606	1504.4413	1518.5599	1797.1352	2234.8727	2934.65	3019.7526	3032.7073	3037.4542	3050.4213	3082.4398	3092.4601	3107.2657	3118.3684	3159.9276	3501.424
CCC(C#C)N(C)C=O	CC[C@@H](C#C)N(C)C=O	
InChI=1S/C7H11NO/c1-4-7(5-2)8(3)6-9/h1,6-7H,5H2,2-3H3	InChI=1S/C7H11NO/c1-4-7(5-2)8(3)6-9/h1,6-7H,5H2,2-3H3/t7-/m1/s1
