19
gdb 112202	2.57425	1.32738	0.97843	3.0824	78.27	-0.2366	-0.0192	0.2175	1242.4116	0.157195	-423.011897	-423.002777	-423.001833	-423.046205	33.358	
C	 0.1452054434	 1.4768001682	-0.1219603454	-0.237313
O	-0.3205043868	 0.1943729939	-0.4814041072	-0.242168
C	 0.6242487898	-0.5633492943	-1.1894871938	 0.02512
C	 1.7653125737	-1.2409079131	-0.3488328272	-0.392354
C	 1.2574129855	-2.6041868473	-0.8660039142	 0.347873
O	 1.6483238939	-3.7347749197	-0.7742179651	-0.316947
C	 0.1029990046	-1.9545186352	-1.5649824647	 0.212192
C	-1.3357607801	-2.4287122099	-1.5064154587	-0.294333
C	-0.6088466255	-2.4331215228	-2.8091549945	-0.321757
H	 1.0131569908	 1.4251755809	 0.552186166	 0.1107
H	 0.4310645236	 2.0671533384	-1.0064938721	 0.107292
H	-0.6720454135	 1.9851499921	 0.3947570392	 0.130871
H	 1.0126038643	 0.0106076945	-2.0442365232	 0.071159
H	 2.7995021583	-0.994472412	-0.6012490043	 0.126275
H	 1.6156271571	-1.1235259513	 0.728965812	 0.137005
H	-1.5131340298	-3.3746562201	-1.0065212681	 0.135125
H	-2.0728497793	-1.6557294909	-1.3224992809	 0.14044
H	-0.8632110986	-1.6797462868	-3.5474325739	 0.12507
H	-0.2754456314	-3.3834029846	-3.2129697339	 0.135751
60.7335	105.1579	142.9294	184.4621	198.9435	208.6297	309.4182	366.3695	443.6697	496.7096	556.5006	611.5548	721.6799	775.8937	797.0236	842.199	907.2469	952.4777	977.6848	1009.4596	1044.8778	1048.182	1068.8057	1085.8898	1114.0647	1163.3568	1173.9185	1185.8951	1200.2487	1229.2485	1253.5091	1263.9824	1365.1593	1386.5268	1427.3688	1456.3631	1482.4364	1487.7853	1489.3778	1509.3404	1879.2992	2976.1073	2988.9447	3026.0081	3060.1532	3118.6099	3121.7113	3130.2641	3140.1627	3217.2471	3237.0131
COC1CC(=O)C11CC1	CO[C@H]1CC(=O)C21CC2	
InChI=1S/C7H10O2/c1-9-6-4-5(8)7(6)2-3-7/h6H,2-4H2,1H3	InChI=1S/C7H10O2/c1-9-6-4-5(8)7(6)2-3-7/h6H,2-4H2,1H3/t6-/m0/s1
