21
gdb 118340	2.10443	0.97594	0.70791	2.3102	75.8	-0.2462	-0.0174	0.2288	1597.0306	0.178551	-461.363863	-461.35257	-461.351625	-461.401416	39.171	
C	 0.1208262345	 1.6030986784	 0.1068461578	-0.409492
C	 0.0435332777	 0.0852749788	-0.0433314352	 0.120555
O	 0.8490161222	-0.569816675	 0.9365130961	-0.428887
C	-1.3952858437	-0.4720340492	 0.0039038362	-0.104203
C	-2.2249500687	-0.1067610441	-1.2429027944	-0.205986
C	-3.6998729133	-0.4769267437	-1.1213339256	-0.080804
O	-4.3357916755	-0.0650814624	-2.3210763442	-0.421766
C	-1.3165702521	-1.9852228712	 0.1340689005	 0.173566
O	-1.8993737745	-2.6379497539	 0.9606972592	-0.264078
H	 1.1677430732	 1.9176791905	 0.111361812	 0.131373
H	-0.3906140618	 2.1240597558	-0.7072140715	 0.12696
H	-0.3371379334	 1.9223909975	 1.0511050547	 0.111786
H	 0.4983514795	-0.2059085458	-0.9987025798	 0.095328
H	 0.4953588579	-0.3525925239	 1.8069814321	 0.283148
H	-1.8982103894	-0.0982369232	 0.9063920927	 0.080401
H	-2.160185999	 0.9688784053	-1.4348023823	 0.117741
H	-1.8087477246	-0.6055765379	-2.1277477424	 0.113016
H	-3.8103728343	-1.5596094386	-0.9590232625	 0.104904
H	-4.13489191	 0.0269890423	-0.2428846581	 0.09096
H	-5.2594352207	-0.3289310653	-2.2778308761	 0.288605
H	-0.6816866138	-2.4719566745	-0.6425460492	 0.076873
52.0276	60.5885	78.2128	100.6279	139.2836	208.1434	235.97	263.1836	298.3009	307.5679	326.6911	351.3538	392.377	484.4148	527.634	562.3278	782.8663	867.4827	926.7227	945.8643	982.7322	1012.1832	1048.5689	1073.2856	1084.2136	1114.7402	1138.0791	1171.4265	1210.1988	1223.4629	1265.0072	1298.0288	1319.0409	1327.1864	1354.2804	1379.9134	1408.5004	1419.6149	1428.3798	1466.3854	1487.9812	1493.6132	1497.5233	1527.4691	1832.6572	2862.391	2969.1962	3006.5105	3018.2261	3028.321	3032.9474	3041.0244	3085.1776	3104.4648	3125.0725	3793.9317	3831.4424
CC(O)C(CCO)C=O	C[C@@H](O)[C@@H](CCO)C=O	
InChI=1S/C6H12O3/c1-5(9)6(4-8)2-3-7/h4-7,9H,2-3H2,1H3	InChI=1S/C6H12O3/c1-5(9)6(4-8)2-3-7/h4-7,9H,2-3H2,1H3/t5-,6+/m1/s1
