18
gdb 66442	2.62636	1.71886	1.34336	2.7204	75.45	-0.2016	0.0653	0.2669	1018.3898	0.145135	-401.834398	-401.825906	-401.824962	-401.866804	32.949	
C	-0.0327778285	 1.4698802625	-0.0102322217	-0.523829
C	-0.010779723	-0.018889045	-0.0970538664	 0.315241
C	 0.9644640834	-1.0099163287	-0.7885550234	-0.289855
C	 0.8005279516	-1.9113611059	 0.4230573639	-0.064017
N	-0.1265958653	-0.9192288471	 1.1145702031	-0.252441
C	-1.0928940168	-1.0502241454	-0.0453149989	 0.19119
C	-2.5726012605	-0.9758619124	 0.1214465675	-0.525419
C	-0.1337661246	-2.0850543198	-0.7305469337	 0.341584
O	-0.3390990365	-3.1960656972	-1.5007032298	-0.447522
H	 0.9192998623	 1.8550688173	 0.371590334	 0.128974
H	-0.2147127084	 1.9221137394	-0.9918181482	 0.119359
H	-0.8247656204	 1.7967380311	 0.6706582535	 0.132158
H	 1.7857997323	-0.8986283517	-1.4829750416	 0.094843
H	 1.4818315829	-2.5848733857	 0.9272706898	 0.102774
H	-2.8348804813	-0.1491015144	 0.7888614039	 0.133656
H	-3.0765100042	-0.8146708646	-0.8382319399	 0.11729
H	-2.9640337417	-1.8999113752	 0.5607509577	 0.134301
H	-0.5083658613	-2.9184772473	-2.40861576	 0.291713
172.605	182.8465	187.303	197.831	209.9752	297.8691	326.9867	387.0325	432.2325	554.5518	634.3722	645.074	682.3653	742.168	767.1119	825.3351	863.4032	881.3491	895.7647	924.274	972.9524	1008.4635	1071.6427	1078.6413	1098.4607	1115.8414	1159.1866	1209.0371	1258.0218	1297.8018	1309.5808	1402.7574	1407.0091	1452.5494	1474.155	1477.9102	1485.2291	1488.6463	1497.4529	3025.964	3028.2175	3089.1072	3090.6632	3105.7867	3108.7108	3191.5201	3213.0391	3778.2857
CC12C3C4N1C2(C)C34O	C[C@@]12[C@H]3[C@H]4N1[C@]2(C)[C@@]34O	
InChI=1S/C7H9NO/c1-5-3-4-7(3,9)6(5,2)8(4)5/h3-4,9H,1-2H3	InChI=1S/C7H9NO/c1-5-3-4-7(3,9)6(5,2)8(4)5/h3-4,9H,1-2H3/t3-,4-,5+,6+,7-,8?/m1/s1
