20
gdb 9386	5.34707	0.85625	0.76984	1.0076	78.7	-0.2561	0.0571	0.3131	1508.4501	0.173754	-348.971059	-348.960948	-348.960003	-349.006507	35.536	
C	 0.0148753414	 1.5068259093	 0.0665834282	-0.385504
C	 0.0172078005	-0.0116486865	 0.0197460169	-0.029349
O	 0.6907834672	-0.4972024898	 1.1640168177	-0.245473
C	 0.7522778679	-1.9032113982	 1.2230215455	-0.049334
C	 1.4784257346	-2.2977303014	 2.5203607575	-0.164367
C	 0.7190757988	-1.8070934942	 3.768109097	-0.384407
C	 1.6906703926	-3.7427855231	 2.5500553959	 0.313245
C	 1.8396944115	-4.9356100533	 2.569282568	-0.471955
H	 1.0385115781	 1.8917141453	 0.0787323115	 0.127183
H	-0.4995471417	 1.9143502807	-0.8087508294	 0.115625
H	-0.4954515698	 1.8622354979	 0.9662832778	 0.126515
H	-1.014655749	-0.4009091406	-0.0061199418	 0.087405
H	 0.5181749951	-0.3705794593	-0.895237209	 0.087344
H	-0.2594719538	-2.3425907083	 1.214770223	 0.093079
H	 1.2938736665	-2.3080237356	 0.3534723018	 0.096109
H	 2.4575992998	-1.8008723179	 2.4947965728	 0.114448
H	 0.5646224371	-0.7282846015	 3.7027459683	 0.133049
H	-0.2567986315	-2.2975089511	 3.839624496	 0.120557
H	 1.2804591463	-2.0345522379	 4.677658825	 0.121833
H	 1.9846803183	-5.9872086744	 2.5908563272	 0.193998
52.6123	77.511	103.6482	147.0363	180.9018	216.1462	246.578	256.8759	318.8896	391.4732	450.5775	531.8308	556.2909	626.767	642.3197	820.5237	826.2996	905.3611	933.6489	942.6461	1042.4337	1081.9229	1119.0578	1149.5807	1161.0117	1169.8086	1194.8418	1261.0405	1296.9699	1307.3878	1343.82	1383.6157	1398.0895	1407.2551	1446.6671	1483.5678	1492.9787	1498.9847	1500.0868	1512.6805	1536.2684	2235.9965	2952.3744	2965.6678	2980.8146	2996.1086	3023.7101	3045.243	3047.5182	3118.9803	3120.0265	3121.8026	3139.7469	3505.0158
CCOCC(C)C#C	CCOC[C@@H](C)C#C	
InChI=1S/C7H12O/c1-4-7(3)6-8-5-2/h1,7H,5-6H2,2-3H3	InChI=1S/C7H12O/c1-4-7(3)6-8-5-2/h1,7H,5-6H2,2-3H3/t7-/m0/s1
