19
gdb 51647	3.85487	0.94623	0.90911	3.6542	74.96	-0.2436	-0.0183	0.2253	1323.3007	0.159192	-423.029701	-423.021362	-423.020418	-423.063852	30.877	
O	 0.2176865009	 0.2083242624	 0.6613844251	-0.241432
C	 0.1355491539	 1.3459632763	 0.2716506465	 0.152961
C	 1.318299676	 2.2271674914	-0.0547956678	-0.282241
C	 1.2704151016	 2.8221790139	-1.4814088612	-0.013837
C	 0.1699425658	 3.9141817541	-1.6612786717	-0.263248
C	 0.8963347491	 5.2328690114	-1.4973012267	 0.058263
O	 1.7323021838	 5.2861332647	-0.3302029568	-0.255609
C	 2.3417698014	 5.0101154097	-1.6018116427	 0.057749
C	 2.6063451987	 3.539473662	-1.8443634737	-0.262236
H	-0.8644494723	 1.8181978303	 0.1299325342	 0.069162
H	 1.3490352288	 3.0543171981	 0.6655344594	 0.143614
H	 2.2206846813	 1.6232516589	 0.080535932	 0.115348
H	 1.0967190866	 2.0003296028	-2.1825409131	 0.087091
H	-0.2644648155	 3.8717536771	-2.6671098214	 0.108201
H	-0.6560098101	 3.8072278871	-0.9516860919	 0.113138
H	 0.4182491756	 6.1707598085	-1.7689101657	 0.096339
H	 3.0336336676	 5.7687656434	-1.9589326785	 0.096665
H	 3.4502282654	 3.159672796	-1.2604087855	 0.114058
H	 2.8527798016	 3.3970365517	-2.9034802506	 0.106015
38.4641	80.6825	132.0213	203.8323	301.8715	331.3215	403.9843	408.9062	514.1962	664.8656	746.8453	775.9063	809.135	843.471	863.7534	904.6913	910.9252	952.6073	975.7894	1018.4177	1030.5363	1039.7644	1088.263	1121.7392	1126.923	1197.8247	1202.8113	1229.1024	1253.406	1277.6441	1296.8468	1319.1759	1330.0137	1362.8505	1368.9458	1438.229	1445.5553	1470.0706	1478.391	1488.1784	1828.7321	2857.5884	3033.5901	3038.5116	3041.2043	3059.7492	3085.4875	3088.7317	3099.3064	3141.8982	3154.6177
O=CCC1CC2OC2C1	O=CC[C@H]1C[C@H]2O[C@H]2C1	
InChI=1S/C7H10O2/c8-2-1-5-3-6-7(4-5)9-6/h2,5-7H,1,3-4H2	InChI=1S/C7H10O2/c8-2-1-5-3-6-7(4-5)9-6/h2,5-7H,1,3-4H2/t5-,6+,7-
