17
gdb 50747	2.9331	1.44004	1.01326	7.0003	71.4	-0.2409	-0.0032	0.2378	1137.9403	0.138164	-455.212713	-455.204488	-455.203544	-455.24633	29.857	
O	-0.2520218783	 0.0253297156	 0.355410515	-0.271453
C	-0.0592810628	 1.2002025562	 0.2155822839	 0.160517
N	 1.1557691548	 1.8500660656	-0.008615046	-0.159104
C	 1.1519860601	 3.3118688991	-0.1095321721	-0.175221
C	 2.3056168466	 3.8951723297	 0.69887788	-0.212992
C	 3.6153650623	 3.3612732973	 0.1285828051	-0.147167
N	 3.5044502464	 1.928949142	-0.0930623692	-0.361361
C	 2.3797389231	 1.1409231967	-0.1592985665	 0.481147
O	 2.4444050624	-0.0527857205	-0.3308955737	-0.36357
H	-0.875505121	 1.9515981144	 0.2669485966	 0.073369
H	 1.2366719649	 3.6212733341	-1.160542134	 0.121851
H	 0.1887149465	 3.6741265974	 0.2585544029	 0.124282
H	 2.2944654416	 4.9874713616	 0.6497199226	 0.115729
H	 2.197773946	 3.6003368183	 1.7479281117	 0.125102
H	 3.8460024404	 3.8809949726	-0.813672081	 0.112051
H	 4.4459524418	 3.5575142493	 0.8156471995	 0.11965
H	 4.343632805	 1.3963831107	-0.2603534447	 0.257169
47.344	92.3943	180.1731	229.0156	245.4492	334.1696	409.1992	469.825	496.3876	534.3149	617.4792	686.3619	752.6838	760.6328	895.227	912.8001	977.1713	1003.8318	1025.6272	1107.102	1132.4127	1184.6397	1199.2075	1243.4431	1275.0406	1305.3656	1347.0313	1380.6455	1401.0982	1417.1833	1469.604	1475.0146	1488.6694	1512.1203	1529.9159	1789.6242	1872.2804	2901.8413	2986.5207	3010.3543	3048.6094	3060.8457	3092.6124	3106.6327	3639.02
O=CN1CCCNC1=O	O=CN1CCCNC1=O	
InChI=1S/C5H8N2O2/c8-4-7-3-1-2-6-5(7)9/h4H,1-3H2,(H,6,9)	InChI=1S/C5H8N2O2/c8-4-7-3-1-2-6-5(7)9/h4H,1-3H2,(H,6,9)
