19
gdb 37775	3.30515	1.73411	1.30989	0.4126	87.61	-0.2085	-0.0303	0.1782	994.7342	0.163658	-348.714677	-348.708239	-348.707295	-348.745143	27.609	
C	-0.0838238816	 1.6234394972	 0.0116015793	-0.223239
C	 1.4257972228	 1.2657493483	-0.0052192608	-0.077315
C	 1.0956722654	 0.2051962758	 1.1075809037	-0.002886
C	 2.0146003193	-0.9031833038	 1.4908826735	-0.115295
C	 2.6994974397	-1.7364606138	 0.6911253451	-0.090468
C	 2.6853207933	-1.7288341811	-0.7576220284	-0.090468
C	 1.9848455629	-0.8873738386	-1.5350058414	-0.115293
C	 1.0735745341	 0.2167032179	-1.1221463789	-0.002889
C	-0.0153757216	 0.0734639636	 0.0029090559	-0.077315
H	-0.4656915419	 2.0912208218	 0.9220801556	 0.089912
H	-0.4836162406	 2.1005747798	-0.8862407083	 0.089909
H	 2.2785491327	 1.9455099457	-0.0101750005	 0.075809
H	 0.7100467028	 0.677545719	 2.0159699266	 0.061797
H	 2.1315449451	-1.0375739003	 2.563994605	 0.086213
H	 3.3257696423	-2.4905311532	 1.1613401867	 0.083855
H	 3.3023360044	-2.4777307764	-1.2479150916	 0.083855
H	 2.0808351175	-1.0103805122	-2.6115566322	 0.086214
H	 0.670038811	 0.6983368438	-2.0177908407	 0.061797
H	-0.8428660178	-0.6368345036	 0.0074563513	 0.075809
189.3423	202.2772	384.3227	422.1284	446.0518	513.4778	589.0415	686.3433	701.8764	751.2453	774.6772	809.4087	860.2796	888.1653	897.7834	919.9407	927.7548	946.9107	993.1873	1004.9396	1024.3825	1027.2765	1056.4727	1065.2968	1107.1047	1108.6566	1163.5033	1170.7231	1208.5098	1222.8013	1224.1981	1225.2448	1278.5445	1287.2281	1407.9874	1425.2132	1444.7754	1472.0237	1521.4988	1668.1257	1713.5115	3050.6397	3052.0011	3059.1535	3102.4424	3108.6038	3122.9419	3136.5994	3142.5582	3158.4118	3171.8342
C1C2C3C=CC=CC2C13	C1[C@H]2[C@@H]3C=CC=C[C@H]2[C@H]13	
InChI=1S/C9H10/c1-2-4-7-8-5-9(7)6(8)3-1/h1-4,6-9H,5H2	InChI=1S/C9H10/c1-2-4-7-8-5-9(7)6(8)3-1/h1-4,6-9H,5H2/t6-,7+,8-,9+
