17
gdb 85728	1.82981	1.59149	1.02635	6.2031	74.99	-0.2647	-0.0005	0.2642	1198.6166	0.135451	-418.032275	-418.023286	-418.022342	-418.066922	31.652	
C	-0.761529333	 1.3246017265	 0.2218922881	-0.398919
C	-0.0960719195	-0.0265241447	 0.0149037078	 0.049028
C	 0.7039983475	-0.2320411711	-1.3072193002	-0.28453
C	 1.9774350106	-0.5085469228	-0.4406687306	-0.11698
C	 3.1118687542	 0.3902168374	-0.6596200622	 0.30293
N	 3.9902004347	 1.1103339492	-0.8709493922	-0.318297
N	 1.1730113484	-0.2263217553	 0.7518071225	-0.052162
C	 1.4201751164	-0.7051152114	 2.0022804694	 0.129002
O	 2.47530245	-1.1889937269	 2.3460228288	-0.310568
H	-0.0545615451	 2.1382996553	 0.0352553368	 0.137993
H	-1.6106506922	 1.4342246791	-0.4608402074	 0.129437
H	-1.1374090907	 1.4249760024	 1.2447912497	 0.131642
H	-0.8095909888	-0.8366268318	 0.2071980472	 0.099523
H	 0.3924426925	-1.0758918663	-1.921250895	 0.133235
H	 0.7789741259	 0.663731764	-1.923458782	 0.140329
H	 2.3372124506	-1.542557468	-0.4691237881	 0.14527
H	 0.5453406087	-0.5884254657	 2.6729488473	 0.083068
47.6795	76.8089	129.9885	205.8633	220.3603	252.6824	303.4667	328.3927	419.3156	508.584	555.7555	575.4915	710.1088	802.8546	874.1073	904.5188	936.5216	993.8895	1034.3498	1069.7531	1096.18	1114.7554	1165.0641	1198.6777	1238.9967	1265.7407	1291.4864	1359.4223	1361.8593	1388.5743	1411.0609	1426.7488	1486.4714	1488.2888	1495.799	1795.8991	2361.7549	2936.5665	3032.7995	3037.6974	3058.8556	3100.9598	3109.7349	3119.7974	3162.5089
CC1CC(C#N)N1C=O	C[C@H]1C[C@@H](C#N)N1C=O	
InChI=1S/C6H8N2O/c1-5-2-6(3-7)8(5)4-9/h4-6H,2H2,1H3	InChI=1S/C6H8N2O/c1-5-2-6(3-7)8(5)4-9/h4-6H,2H2,1H3/t5-,6-/m0/s1
