20
gdb 55139	3.4086	1.25754	1.17755	3.3038	78.71	-0.241	0.0316	0.2726	1130.4264	0.173696	-403.178579	-403.17047	-403.169525	-403.211684	31.678	
N	 0.1224525699	 0.9879181933	 0.6872652261	-0.527219
C	-0.1538166736	 0.3025159553	-0.4621954858	 0.395552
O	 0.5613162067	 0.384541167	-1.4453945436	-0.363582
C	-1.3970001085	-0.5764923603	-0.3952771827	-0.088424
C	-2.0670151079	-0.8350092463	-1.7832013471	-0.235593
C	-1.9823808216	-2.3743632634	-1.8235796003	-0.009837
C	-2.4044240186	-2.7625649816	-0.3770474361	-0.226963
C	-1.0686192518	-2.0513351087	-0.0165074263	-0.021878
C	-0.5199367549	-2.628137833	-1.3544041881	-0.224838
H	 0.9816322104	 1.5107304127	 0.7352241207	 0.258108
H	-0.4214641231	 0.8737915449	 1.5239392689	 0.25639
H	-2.1023971712	-0.1517166128	 0.3273691817	 0.064177
H	-3.0966178662	-0.4679384141	-1.817788429	 0.08969
H	-1.4934030448	-0.3636257601	-2.5835520361	 0.127036
H	-2.4015781662	-2.8707189073	-2.6990083585	 0.057858
H	-3.3369027906	-2.3497273595	 0.0224931542	 0.08238
H	-2.3610627943	-3.8395420344	-0.1973232223	 0.095565
H	-0.5638376819	-2.2113979472	 0.9375580424	 0.055619
H	-0.2854311487	-3.6920295422	-1.2729366866	 0.090124
H	 0.284154497	-2.0863173623	-1.8541376817	 0.125835
46.6387	149.9938	158.9219	195.4964	337.5587	378.9942	433.4062	503.8486	577.6504	611.1471	671.9532	738.4294	809.5869	832.565	837.9534	854.6605	876.396	942.4874	956.9903	965.6978	993.9018	1027.324	1038.2145	1070.8086	1089.8978	1093.8193	1109.4195	1120.3615	1184.8083	1217.3956	1242.8884	1252.0232	1261.2355	1288.1535	1289.4901	1303.8571	1337.6097	1407.7748	1486.3248	1490.1619	1522.3701	1615.7028	1782.6108	3036.662	3041.9277	3062.1072	3070.4839	3099.0349	3107.8915	3114.6815	3121.9588	3140.1774	3602.346	3740.097
NC(=O)C1CC2CC1C2	NC(=O)[C@H]1C[C@@H]2C[C@H]1C2	
InChI=1S/C7H11NO/c8-7(9)6-3-4-1-5(6)2-4/h4-6H,1-3H2,(H2,8,9)	InChI=1S/C7H11NO/c8-7(9)6-3-4-1-5(6)2-4/h4-6H,1-3H2,(H2,8,9)/t4-,5+,6-/m0/s1
