19
gdb 26419	4.35715	0.90413	0.85558	1.1433	77.54	-0.2178	0.0057	0.2235	1410.0742	0.159848	-419.220592	-419.211828	-419.210884	-419.2547	31.977	
C	 0.4565786423	 1.2790049163	-0.0090780841	-0.312564
N	 0.1138363356	-0.0946049025	 0.3253066946	-0.056975
C	-0.00290393	-0.2715687327	 1.7668184939	-0.319297
C	-1.0805603481	-0.548100441	-0.3814663273	-0.267771
C	-1.1670387877	-2.0425011503	-0.449439859	 0.240525
C	-0.1795576681	-2.9688164413	-0.3823770377	-0.090558
O	-0.7449623718	-4.2078446291	-0.5315410737	-0.14018
C	-2.0614819585	-3.9534408289	-0.6869605722	 0.070491
N	-2.3798828791	-2.7017807684	-0.6461850403	-0.307269
H	 1.3890240563	 1.5561823231	 0.4927130277	 0.117635
H	 0.6102552179	 1.3744130136	-1.0883751579	 0.118499
H	-0.3181701117	 2.0097407305	 0.2929670978	 0.09343
H	-0.7924341302	 0.3632302487	 2.212768633	 0.093935
H	-0.2362126436	-1.313839997	 1.9973361744	 0.124219
H	 0.9469237934	-0.0185479477	 2.2481648856	 0.116129
H	-2.0163539912	-0.1584576577	 0.0610351171	 0.10007
H	-1.0411508786	-0.149565014	-1.4030560678	 0.116916
H	 0.8852651003	-2.9310968443	-0.2411099672	 0.153676
H	-2.7087123972	-4.8056746774	-0.823342857	 0.149089
56.775	84.1276	130.3871	249.6841	256.1335	282.2884	343.2976	346.9912	383.4881	478.9322	639.399	682.0493	745.7311	782.621	846.0195	862.9349	935.7306	995.3933	1005.6859	1059.4774	1066.8114	1092.2971	1124.0621	1133.7093	1177.3118	1204.3464	1235.4625	1241.3217	1305.9589	1316.6294	1343.7218	1408.9691	1442.7554	1470.1427	1482.7569	1488.4832	1500.7163	1503.8643	1513.6023	1554.0273	1627.3435	2922.3948	2927.8547	2937.9855	3037.0286	3059.7403	3069.1924	3104.5873	3118.9435	3274.7941	3311.3135
CN(C)CC1=COC=N1	CN(C)Cc1cocn1	
InChI=1S/C6H10N2O/c1-8(2)3-6-4-9-5-7-6/h4-5H,3H2,1-2H3	InChI=1S/C6H10N2O/c1-8(2)3-6-4-9-5-7-6/h4-5H,3H2,1-2H3
