19
gdb 107507	2.45404	1.41738	1.00732	2.269	80.04	-0.224	0.0199	0.2439	1232.4998	0.158091	-419.152449	-419.14318	-419.142235	-419.186732	33.683	
C	 0.1786738693	 1.3760761361	-0.1774088884	-0.264873
O	-0.1232113242	-0.0028495057	 0.0248591366	-0.274439
C	 0.4810695214	-0.522426662	 1.1333304052	 0.346755
C	 1.9214115182	-1.0527064153	 1.1268134255	-0.351361
C	 0.7770041084	-1.9710733102	 1.4621319264	-0.098889
N	 0.2975821327	-1.7594903381	 2.8378233384	-0.358471
C	 0.0385989432	-0.3729502001	 2.5653067211	 0.336974
N	-0.4323749076	 0.5859155104	 3.2291676864	-0.333004
C	-0.7666845621	 0.3568271883	 4.6266527003	-0.340807
H	 1.2558034169	 1.5243141896	-0.3363951025	 0.109212
H	-0.364514544	 1.685971156	-1.0722195191	 0.127314
H	-0.1451215397	 1.9772162779	 0.6791951966	 0.148046
H	 2.3245157376	-1.1596495471	 0.1235381306	 0.125581
H	 2.6400773859	-0.7656101616	 1.8897959564	 0.11219
H	 0.5141853911	-2.8661337696	 0.9140562703	 0.120369
H	 0.9237667953	-1.997140003	 3.6019291472	 0.232383
H	-0.8894723885	-0.7047498903	 4.8840443469	 0.113166
H	 0.0112537707	 0.7820042261	 5.2737206166	 0.121718
H	-1.6983521446	 0.8803005185	 4.8633507455	 0.128135
77.8032	107.0502	136.098	171.8392	184.8778	221.0421	287.0622	335.0619	408.2502	457.5187	520.9806	647.0375	687.8222	746.1332	767.8121	875.4257	905.431	916.274	991.0991	1011.0273	1036.9218	1053.4298	1076.6947	1094.4332	1117.4096	1125.6361	1167.5723	1183.5827	1220.94	1263.5008	1283.8881	1324.3515	1390.0409	1436.241	1467.381	1486.4003	1488.152	1500.8138	1504.696	1509.6013	1820.4217	2995.4937	3004.7428	3057.2836	3079.8099	3086.4251	3110.0224	3132.9599	3202.048	3209.7039	3507.5844
COC12CC1NC2=NC	CO[C@]12C[C@H]1NC2=NC	
InChI=1S/C6H10N2O/c1-7-5-6(9-2)3-4(6)8-5/h4H,3H2,1-2H3,(H,7,8)	InChI=1S/C6H10N2O/c1-7-5-6(9-2)3-4(6)8-5/h4H,3H2,1-2H3,(H,7,8)/t4-,6-/m1/s1
