13
gdb 42354	4.34623	0.90089	0.74956	0.8503	72.68	-0.2574	-0.1102	0.1472	1402.1854	0.083873	-419.371806	-419.362303	-419.361359	-419.407494	32.619	
O	-0.1159914897	-0.1147571625	-0.0031396208	-0.250109
C	-0.0373066244	 1.0839697267	 0.0031611877	 0.286248
C	 1.2607750673	 1.888005886	-0.0005356027	-0.48805
C	 2.4592415721	 1.070115894	-0.0153143411	 0.310025
C	 3.4522931879	 0.3960971511	-0.0275355227	-0.410043
C	-1.3168989982	 1.9566755457	 0.0162770272	 0.122336
O	-1.2405831602	 3.1662100069	 0.0223060146	-0.277713
C	-2.5651101767	 1.2334793757	 0.020584604	 0.296023
C	-3.6151398309	 0.6454904002	 0.0244247916	-0.361321
H	 1.2251904132	 2.5693816526	-0.8610128028	 0.173256
H	 1.2378370373	 2.556216537	 0.8706972199	 0.173237
H	 4.3304937868	-0.200755636	-0.0383390225	 0.201738
H	-4.5418726245	 0.1237887324	 0.0282788176	 0.224371
39.2308	44.8845	97.9697	160.4531	225.5432	238.7735	319.3604	370.1458	400.4823	416.0938	493.6541	631.6361	652.0567	654.8133	676.1923	698.4689	725.2656	802.1539	905.3452	945.0061	1018.2873	1196.9743	1205.1188	1344.3691	1418.9669	1756.5901	1827.2874	2216.052	2252.5022	3030.9331	3053.5167	3490.8883	3507.0191
O=C(CC#C)C(=O)C#C	O=C(CC#C)C(=O)C#C	
InChI=1S/C7H4O2/c1-3-5-7(9)6(8)4-2/h1-2H,5H2	InChI=1S/C7H4O2/c1-3-5-7(9)6(8)4-2/h1-2H,5H2
