22
gdb 64041	2.40838	1.65178	1.35198	1.2868	86.26	-0.2242	0.0166	0.2408	1083.7641	0.195423	-367.21023	-367.201684	-367.20074	-367.242516	34.774	
C	 0.1234402524	 1.5094948309	 0.0130691321	-0.422123
C	-0.0312647396	-0.0199188256	-0.0080143861	 0.271349
C	-1.5226564655	-0.4016400836	 0.0599145462	-0.414604
C	 0.5993299095	-0.5787050004	-1.3145187703	-0.285832
C	 0.8519479854	-2.0640224677	-1.2857355252	-0.088682
C	 1.163259049	-2.7082129508	-0.1603023341	-0.018811
C	 1.2461891093	-1.9839715614	 1.1311048102	-0.087811
N	 2.1170671844	-0.7699826086	 1.1630653506	-0.351098
C	 0.6591278315	-0.6176654184	 1.2122509734	-0.035186
H	 1.1814201129	 1.7883826923	 0.0340435661	 0.124018
H	-0.3332755966	 1.9627633837	-0.8739131458	 0.107298
H	-0.3610422477	 1.9449236467	 0.8946433766	 0.102191
H	-2.0789283997	 0.059030307	-0.763484519	 0.10775
H	-1.6560104897	-1.4856529288	-0.0033340962	 0.121176
H	-1.9755308168	-0.06013916	 0.9976112661	 0.104463
H	-0.0506166701	-0.3196783191	-2.1586937183	 0.09193
H	 1.5511515336	-0.0628771689	-1.4914053196	 0.124362
H	 0.8046945818	-2.6038282398	-2.227670923	 0.086775
H	 1.3588109656	-3.7764296656	-0.1598181375	 0.083317
H	 1.2316407319	-2.5928346174	 2.0310199529	 0.079815
H	 2.5100528049	-0.6604644464	 2.0947844256	 0.227607
H	 0.2150809036	-0.3263400879	 2.1641032654	 0.072098
128.7256	196.6512	228.4398	261.0015	287.0832	307.0011	330.2094	374.8583	451.8963	483.3358	530.3526	575.3353	693.7522	720.2195	820.7963	839.4918	848.9121	899.1679	919.1063	939.6639	947.0065	955.9541	981.764	987.5682	1022.7807	1037.3809	1097.6864	1153.0448	1155.8843	1171.8239	1202.6512	1209.4244	1260.5779	1284.0849	1293.6444	1340.4885	1387.9836	1393.7811	1409.1041	1429.4613	1453.666	1467.8789	1488.3822	1490.8132	1502.5079	1511.7363	1710.7601	3022.0022	3023.9242	3029.5248	3057.314	3086.3057	3091.4109	3102.3328	3105.5491	3109.4405	3140.1168	3155.0594	3179.1946	3494.6461
CC1(C)CC=CC2NC12	CC1(C)CC=C[C@H]2N[C@@H]12	
InChI=1S/C8H13N/c1-8(2)5-3-4-6-7(8)9-6/h3-4,6-7,9H,5H2,1-2H3	InChI=1S/C8H13N/c1-8(2)5-3-4-6-7(8)9-6/h3-4,6-7,9H,5H2,1-2H3/t6-,7-/m1/s1
