19
gdb 33155	4.68882	0.78337	0.71437	2.6724	79.83	-0.1733	0.0497	0.223	1581.3264	0.159972	-419.223677	-419.214126	-419.213182	-419.258861	34.731	
N	-0.0109506726	 1.4155120992	 0.104996826	-0.60359
C	 0.002702148	 0.0078220478	 0.0253602997	 0.235509
C	-1.0859281213	-0.8390355907	 0.0240842532	-0.18609
N	-0.6194590864	-2.1431092575	 0.0490269387	 0.028885
C	-1.4461303868	-3.3253280897	-0.0469208372	-0.168608
C	-1.8134152548	-3.6778748476	-1.4906580111	-0.067392
O	-2.6266603212	-4.8366851739	-1.4339255423	-0.415089
C	 0.7475654079	-2.1221779943	 0.0470441042	-0.084617
C	 1.1689147745	-0.8111644032	 0.0375150421	-0.240811
H	 0.7564900977	 1.8300334251	-0.4091174892	 0.237316
H	-0.8768638844	 1.8118006303	-0.2383862612	 0.234408
H	-2.1442212676	-0.6312990034	 0.0294307602	 0.099994
H	-0.9144306372	-4.1683752313	 0.4037078262	 0.124595
H	-2.3647053546	-3.174833123	 0.5290237516	 0.124791
H	-2.3396195851	-2.8277437042	-1.9508454657	 0.096338
H	-0.8916512303	-3.848995518	-2.0674104914	 0.096755
H	-2.8673609783	-5.0836041936	-2.3311206341	 0.291882
H	 1.3098740356	-3.042925765	 0.0569490722	 0.111318
H	 2.1928405268	-0.4699625768	 0.0664294481	 0.084405
52.3415	79.5261	82.4253	176.7086	233.4637	269.38	286.7849	322.3292	378.8434	427.2259	607.2612	618.3119	649.2802	662.299	731.7723	763.1318	777.822	795.9834	804.5399	996.2654	1004.6516	1018.5907	1079.6961	1086.1507	1102.1313	1122.147	1211.403	1211.7528	1243.6657	1290.8154	1310.0323	1367.6515	1384.1123	1436.6765	1449.5988	1459.398	1488.6954	1527.1856	1545.7382	1623.5057	1656.8736	2980.0342	3012.6658	3054.4778	3104.7337	3238.0777	3252.9373	3260.5425	3527.6631	3615.0928	3837.1813
NC1=CN(CCO)C=C1	Nc1cn(CCO)cc1	
InChI=1S/C6H10N2O/c7-6-1-2-8(5-6)3-4-9/h1-2,5,9H,3-4,7H2	InChI=1S/C6H10N2O/c7-6-1-2-8(5-6)3-4-9/h1-2,5,9H,3-4,7H2
