20
gdb 91269	2.69238	1.47395	1.27198	3.209	79.08	-0.2514	0.031	0.2824	1090.0422	0.172724	-403.16821	-403.16016	-403.159216	-403.201439	31.371	
C	-0.675952161	 1.3374722469	-0.1581499857	-0.415182
C	-0.0640196908	-0.0550902853	-0.0624646517	 0.019165
C	 1.2427741699	-0.2978163858	-0.8833230151	-0.254094
C	 2.0192234526	-0.56666798	 0.4256118619	 0.096046
O	 2.8573160009	 0.5275927695	 0.8154539382	-0.244505
C	 2.2809418168	 1.2927562724	 1.7929490979	 0.401835
N	 2.7546799444	 2.3839753393	 2.2162867624	-0.538814
C	 1.0134007505	 0.6279218792	 2.2951233349	-0.319092
C	 0.7073409445	-0.4445196647	 1.2523110111	-0.056589
H	 0.0537579148	 2.1245396886	 0.0595550886	 0.133257
H	-1.0561515917	 1.513836375	-1.1702440634	 0.118112
H	-1.5152244399	 1.4572849667	 0.5356240213	 0.117595
H	-0.8336522415	-0.7968217434	-0.2939760692	 0.075269
H	 1.2001812635	-1.1582062542	-1.5555874142	 0.103806
H	 1.6187586573	 0.5643452256	-1.4398502412	 0.112748
H	 2.6100880841	-1.4833818744	 0.4842085024	 0.085131
H	 3.6207702275	 2.6111099163	 1.7245073766	 0.21983
H	 1.2175769146	 0.1805751686	 3.2736312562	 0.131008
H	 0.225421554	 1.3686517395	 2.4391140784	 0.137401
H	 0.3491880394	-1.3735814598	 1.6966472007	 0.077073
44.9561	80.8558	239.1775	263.2753	331.0719	370.4751	432.3711	470.177	526.4799	627.9426	657.8714	748.3574	769.6877	826.1574	859.299	892.5435	893.511	904.6312	949.3685	984.7811	1005.1087	1016.7266	1075.7398	1105.6194	1114.9455	1136.3185	1148.1018	1209.3437	1224.7583	1243.472	1263.8253	1277.3888	1300.9968	1312.0412	1338.3501	1363.2355	1386.8167	1414.3234	1467.1604	1470.609	1498.4981	1501.8446	1770.7802	3028.5779	3053.8301	3057.8757	3063.1528	3080.551	3094.3851	3100.3427	3104.5002	3120.1493	3123.7415	3470.7702
CC1CC2OC(=N)CC12	C[C@H]1C[C@H]2O[C]([NH])C[C@@H]12	
InChI=1S/C7H11NO/c1-4-2-6-5(4)3-7(8)9-6/h4-6,8H,2-3H2,1H3	InChI=1S/C7H11NO/c1-4-2-6-5(4)3-7(8)9-6/h4-6,8H,2-3H2,1H3/t4-,5-,6+/m0/s1
