23
gdb 60589	2.94252	1.03032	0.81328	1.8116	85.5	-0.2597	0.0858	0.3455	1466.0107	0.205314	-388.261604	-388.252091	-388.251147	-388.296423	35.603	
C	 0.1151712077	 1.8220052742	-0.4118198999	-0.404449
C	-0.1103470251	 0.3200572778	-0.181298358	-0.03905
C	-1.5910074345	 0.0023929266	-0.2232235266	 0.107476
C	-2.2359744108	-0.9404104305	 0.6989648891	-0.183957
O	-2.3821793441	 0.4702410024	 0.8731046179	-0.246385
C	 0.6531991448	-0.5309737364	-1.1956732568	 0.069114
C	 2.2089337707	-0.4871366203	-1.2041349744	-0.236855
C	 2.2108651606	-2.0098909364	-1.5063574366	-0.214536
C	 0.7455332838	-2.0722737286	-0.9993439014	-0.23501
H	 1.1763133968	 2.077707752	-0.3352386714	 0.116046
H	-0.2295805159	 2.1223920021	-1.4085593823	 0.110378
H	-0.4350233004	 2.4106980552	 0.3273585225	 0.131474
H	 0.2499056221	 0.0659508504	 0.825535979	 0.068449
H	-2.0644340482	 0.1543889749	-1.1970781156	 0.085468
H	-3.1378183262	-1.4713561738	 0.3963841904	 0.11182
H	-1.6372347001	-1.4431532639	 1.457682336	 0.110833
H	 0.2788413654	-0.3131343073	-2.2047763495	 0.065608
H	 2.7009557318	 0.1789644376	-1.9169497432	 0.096184
H	 2.6018528701	-0.2756559103	-0.2036082871	 0.098765
H	 2.2757871191	-2.2081014565	-2.5801451998	 0.101896
H	 2.9527833792	-2.6282566574	-0.9959944925	 0.096187
H	 0.6997857138	-2.3394163162	 0.0619236897	 0.096356
H	 0.0389586396	-2.7030107459	-1.5444161695	 0.094192
74.1193	77.0185	125.1739	148.4681	224.4825	234.6466	266.545	360.5199	364.1661	440.9645	512.0976	646.5677	770.5553	783.8208	813.2869	865.8671	895.6095	933.8182	936.0534	955.4272	958.3887	969.569	1006.3617	1023.2777	1074.1624	1096.651	1127.1036	1154.4762	1171.6394	1184.4318	1193.3735	1206.6269	1234.4811	1255.9941	1263.1801	1270.188	1292.2159	1293.866	1298.534	1330.1683	1387.1907	1405.7839	1446.4822	1478.2511	1487.2788	1496.3724	1501.9141	1510.6932	1528.3122	3004.5609	3019.4392	3030.3807	3043.2496	3048.1148	3058.2464	3072.1212	3080.1424	3095.3139	3097.3435	3099.841	3116.3877	3117.1728	3164.1572
CC(C1CO1)C1CCC1	C[C@@H]([C@H]1CO1)C1CCC1	
InChI=1S/C8H14O/c1-6(8-5-9-8)7-3-2-4-7/h6-8H,2-5H2,1H3	InChI=1S/C8H14O/c1-6(8-5-9-8)7-3-2-4-7/h6-8H,2-5H2,1H3/t6-,8-/m1/s1
