19
gdb 65864	2.90369	1.11005	1.09387	2.1802	75.86	-0.245	-0.0299	0.2151	1207.112	0.157407	-423.075537	-423.066474	-423.06553	-423.109898	33.454	
C	 0.2818693879	 1.5459715739	 0.3663916179	-0.447691
C	-0.0501601857	 0.0668540716	 0.1025251301	 0.175763
C	 0.5723519064	-0.4561576356	-1.2176675794	-0.251993
C	 2.0133231155	-0.851638389	-0.8661496442	-0.332299
C	 1.988385145	-1.191478758	 0.6267297781	 0.407266
O	 2.8937065732	-1.6559345907	 1.2665656835	-0.305187
C	 0.601201381	-0.8373692379	 1.1849409856	-0.362903
C	-1.5582230622	-0.1141854579	 0.1446620764	 0.124063
O	-2.2051775758	-0.7555695394	-0.6427736159	-0.253878
H	 1.3627666698	 1.6998102978	 0.4444856299	 0.12978
H	-0.090205719	 2.184960688	-0.4409054201	 0.129757
H	-0.1660125646	 1.8890452264	 1.305463005	 0.125522
H	-0.0032916448	-1.3237729587	-1.5517305609	 0.129972
H	 0.5142320898	 0.2908555045	-2.0132251369	 0.108027
H	 2.407705936	-1.6921769697	-1.442883336	 0.136079
H	 2.717924285	-0.022231607	-1.0037510568	 0.135405
H	 0.6766529683	-0.3872283651	 2.1773445454	 0.131861
H	 0.0518578004	-1.7823241427	 1.2936293728	 0.142897
H	-2.0516715464	 0.3925227794	 1.0071729355	 0.077558
54.0609	70.078	142.9265	222.4985	237.3671	290.9004	331.2705	356.255	448.5026	476.2935	507.3152	586.4422	684.5184	718.9958	764.4861	809.2276	882.2595	930.0435	945.1128	969.9697	1003.801	1016.7345	1046.6896	1126.0708	1156.2642	1189.0945	1226.5069	1240.1834	1264.4801	1274.5754	1308.3264	1341.7441	1408.7103	1428.8628	1446.4075	1453.6962	1493.9914	1497.02	1506.5222	1826.4671	1849.9932	2857.3221	3029.6194	3031.6639	3044.1009	3066.6548	3099.4133	3100.0939	3106.1282	3110.6854	3113.3933
CC1(CCC(=O)C1)C=O	C[C@]1(CCC(=O)C1)C=O	
InChI=1S/C7H10O2/c1-7(5-8)3-2-6(9)4-7/h5H,2-4H2,1H3	InChI=1S/C7H10O2/c1-7(5-8)3-2-6(9)4-7/h5H,2-4H2,1H3/t7-/m1/s1
