16
gdb 64992	3.7301	1.01748	0.84902	1.4769	69.18	-0.2773	-0.0386	0.2387	1326.461	0.121612	-475.030077	-475.020936	-475.019992	-475.065045	31.976	
C	 0.1224703647	 1.3864502397	 0.486061851	-0.470711
C	 0.0308875364	-0.0492176229	 0.0305544484	 0.240321
C	 0.4155491847	-0.4514887389	-1.3412287913	-0.19508
O	 1.2714139142	-0.7113196608	-0.2407639486	-0.242354
C	-0.9607232877	-0.9711314225	 0.7021294765	 0.455058
O	-1.0429909377	-2.1520983694	 0.5118988825	-0.34345
O	-1.7701618842	-0.2664742318	 1.5555085414	-0.212684
C	-2.7423059921	-0.9575307499	 2.2419100948	 0.117631
N	-3.4911455738	-0.3021877068	 3.0090829282	-0.419072
H	 0.8975045797	 1.8997180399	-0.0873091576	 0.130628
H	-0.8296353165	 1.904080585	 0.3457478676	 0.142152
H	 0.3791871628	 1.4427702767	 1.5472719252	 0.143831
H	-0.0475999492	-1.3294503747	-1.7855076506	 0.138091
H	 0.7468375292	 0.3257460756	-2.028603605	 0.122922
H	-2.7360113805	-2.0252894423	 2.0239886669	 0.14942
H	-4.1607752101	-0.9274533971	 3.4555395806	 0.243298
34.2432	106.1004	123.1109	149.7003	203.9758	304.7577	318.4109	328.175	374.0612	409.3399	533.0372	606.9672	760.1955	800.5918	854.6923	863.9802	919.0775	939.5199	1007.169	1037.2501	1072.3187	1102.8664	1141.8206	1145.5555	1180.0657	1258.1574	1300.9243	1374.7499	1387.4833	1420.267	1480.0484	1492.4212	1511.1849	1747.3211	1841.8492	3054.4541	3089.9852	3126.769	3137.2926	3144.1533	3189.9012	3507.6323
CC1(CO1)C(=O)OC=N	C[C@]1(CO1)C(=O)O[CH][NH]	
InChI=1S/C5H7NO3/c1-5(2-9-5)4(7)8-3-6/h3,6H,2H2,1H3	InChI=1S/C5H7NO3/c1-5(2-9-5)4(7)8-3-6/h3,6H,2H2,1H3/t5-/m0/s1
