12
gdb 130474	4.23623	1.64931	1.18712	3.5566	68.36	-0.2519	-0.0945	0.1573	915.2286	0.080567	-431.644971	-431.639235	-431.638291	-431.675128	22.355	
O	-0.0347322754	 1.2863563424	 0.0093296732	-0.13945
C	 1.2088802027	 1.762019406	-0.0000251802	-0.02959
C	 2.0940955745	 0.7133874456	-0.0141227491	 0.100288
C	 3.495454653	 0.4766254503	-0.0288041481	-0.055471
N	 3.996977716	-0.727473901	-0.0400804237	-0.214874
N	 3.1670190014	-1.8358376991	-0.0380976914	-0.194542
C	 1.8705033336	-1.7104820791	-0.0250141953	-0.025758
C	 1.2407466795	-0.4287330856	-0.0120945216	 0.323666
N	-0.0408900111	-0.1051045656	 0.0019273299	-0.22745
H	 1.3070524849	 2.8361622324	 0.0047996079	 0.180907
H	 4.2139244933	 1.2923800902	-0.0313006975	 0.134894
H	 1.2872915876	-2.6267941465	-0.0243495542	 0.147381
206.1264	214.4954	398.0538	450.3628	567.2729	582.968	622.0391	624.3391	795.5969	796.692	837.2579	899.0291	927.2088	929.0564	940.599	962.2946	977.072	1155.8568	1270.3574	1293.4279	1319.6553	1333.318	1434.469	1497.0814	1506.1885	1553.5363	1652.2974	3165.8941	3180.1765	3271.9386
O1C=C2C=NN=CC2=N1	o1cc2cnncc2n1	
InChI=1S/C5H3N3O/c1-4-3-9-8-5(4)2-7-6-1/h1-3H	InChI=1S/C5H3N3O/c1-4-3-9-8-5(4)2-7-6-1/h1-3H
