23
gdb 118724	2.58694	1.18806	0.96855	0.8303	86.69	-0.249	0.0839	0.3329	1351.5687	0.205052	-388.250528	-388.240895	-388.239951	-388.28515	36.241	
C	-0.15478999	 1.3533515727	-0.1876377448	-0.221277
O	-0.2378626653	-0.0437966775	-0.3165912829	-0.236494
C	 0.840058251	-0.5932067588	-1.0546893172	-0.138642
C	 0.7010210629	-2.0983014592	-1.0599976688	 0.336605
C	 0.8576283514	-2.7131570519	 0.3225765249	-0.463296
C	-0.2902118329	-2.8162450501	-1.9417744263	-0.069824
C	-0.4632230839	-2.1441202406	-3.3089336827	-0.247112
C	 1.0702744784	-2.3088384009	-3.5676432807	-0.244665
C	 1.2213261768	-2.9601857812	-2.1860482036	-0.110728
H	 0.7590971832	 1.6639192211	 0.344609571	 0.100643
H	-0.1638396319	 1.8580268144	-1.1675710494	 0.099943
H	-1.0250342144	 1.6837094866	 0.3853245152	 0.124392
H	 0.8476478857	-0.1731450424	-2.0707807115	 0.085174
H	 1.7999316491	-0.3106967684	-0.5862652214	 0.07874
H	 0.1268476084	-2.2849463336	 1.0141550205	 0.133534
H	 0.711864298	-3.797414613	 0.2938966964	 0.109673
H	 1.8585117829	-2.520862435	 0.7270415336	 0.108578
H	-0.9808939272	-3.533597229	-1.5135217239	 0.078695
H	-1.0605406105	-2.7428038334	-3.9998807779	 0.101048
H	-0.8667759129	-1.1268406621	-3.2998933329	 0.101721
H	 1.2691267169	-3.0159681252	-4.3761921718	 0.101415
H	 1.6538084214	-1.4024821531	-3.7595000473	 0.094456
H	 1.8691457229	-3.8027525093	-1.9696032883	 0.07742
59.4446	90.2771	150.7405	216.7111	219.6878	248.0489	259.2628	304.6223	357.0636	389.4603	475.1103	494.4728	701.7745	753.1938	793.6305	843.901	858.1273	930.952	957.0854	965.3995	981.6801	996.8383	1012.0378	1028.5254	1056.6903	1091.4343	1108.7292	1130.3661	1157.2317	1179.0365	1200.4356	1221.4181	1226.8352	1245.0285	1260.3531	1283.7129	1291.7316	1315.1525	1399.9505	1418.3809	1434.6947	1479.9424	1483.7285	1485.1393	1489.9882	1500.7166	1509.5408	1510.7184	1527.9146	2943.8976	2964.1734	3003.756	3010.5038	3028.2857	3044.9389	3054.9521	3091.7719	3092.8541	3109.1749	3112.232	3115.6459	3162.6215	3175.8971
COCC1(C)C2CCC12	COC[C@@]1(C)[C@H]2CC[C@@H]12	
InChI=1S/C8H14O/c1-8(5-9-2)6-3-4-7(6)8/h6-7H,3-5H2,1-2H3	InChI=1S/C8H14O/c1-8(5-9-2)6-3-4-7(6)8/h6-7H,3-5H2,1-2H3/t6-,7+,8-
