15
gdb 24341	3.75372	1.60028	1.13932	1.7782	75.38	-0.2095	-0.0167	0.1928	1000.9974	0.115424	-420.652582	-420.646039	-420.645095	-420.683546	25.972	
C	-0.0045455509	 1.4878075571	 0.1129562521	-0.142182
O	 1.2855620197	 2.1060850343	-0.0291566511	-0.287352
C	 2.1277666761	 1.4789610135	-0.8839232178	 0.239174
C	 3.2207152849	 1.9661475996	-1.5219367661	-0.131605
O	 3.8226655071	 0.9458690335	-2.2199106872	-0.155067
C	 3.0955860684	-0.1789741854	-2.0114450597	-0.111726
C	 2.037068606	 0.0776984292	-1.1935958489	 0.14098
C	 0.9585193706	-0.6916768046	-0.6135901831	-0.162627
C	-0.0002614763	-0.0194151304	 0.0349086991	-0.11581
H	-0.3773255356	 1.8251529383	 1.0847301489	 0.125358
H	-0.6821742532	 1.901174433	-0.6540578112	 0.115249
H	 3.6960871833	 2.9292466319	-1.5732824603	 0.140014
H	 3.4483788016	-1.067259376	-2.5094725616	 0.140499
H	 0.9466688993	-1.7736582745	-0.6903526307	 0.101077
H	-0.8395681909	-0.5279937092	 0.4980661075	 0.104018
118.06	188.0484	328.6406	414.9274	449.3791	519.5823	593.579	597.2335	664.9652	704.0253	713.6704	748.9836	783.1744	849.7198	900.0258	917.8323	981.4454	1032.8863	1042.8908	1058.1277	1168.5009	1185.6013	1221.4217	1246.5968	1267.478	1311.9948	1377.7366	1410.2139	1437.6504	1498.4143	1597.7111	1661.3998	1704.5959	2952.5904	3075.8264	3176.0312	3196.1659	3271.2486	3297.0361
C1OC2=COC=C2C=C1	C1Oc2cocc2C=C1	
InChI=1S/C7H6O2/c1-2-6-4-8-5-7(6)9-3-1/h1-2,4-5H,3H2	InChI=1S/C7H6O2/c1-2-6-4-8-5-7(6)9-3-1/h1-2,4-5H,3H2
