18
gdb 41797	2.38636	2.08297	1.52867	2.439	71.79	-0.2316	0.0292	0.2608	921.2334	0.150907	-439.096221	-439.089128	-439.088184	-439.128067	27.675	
C	 0.0113559541	 1.6599511666	-0.2434265856	-0.08849
O	 1.3835114998	 2.021836023	-0.1579774307	-0.272425
C	 2.1940950694	 0.8512721806	 0.021718744	 0.089925
C	 1.3120384762	-0.3249549289	-0.4078821614	-0.27242
C	-0.0703034301	 0.1542417884	 0.039303312	 0.098341
O	-0.3681608505	-0.1323382184	 1.4094506074	-0.245573
C	 0.4910603895	 0.1333183802	 2.4356474031	 0.128272
N	 1.6939788794	 0.4918594824	 2.5205823733	-0.262046
C	 2.6594463212	 0.7430574375	 1.4742015423	-0.155994
H	-0.5788591848	 2.2326242637	 0.4800583548	 0.117332
H	-0.3683133176	 1.8783141673	-1.2519741532	 0.099461
H	 3.0787751886	 0.9673345438	-0.6156620188	 0.079605
H	 1.318390052	-0.4389145475	-1.496147445	 0.11366
H	 1.5935739593	-1.2781387514	 0.0439614486	 0.121422
H	-0.8877972633	-0.3202494363	-0.5057179983	 0.096979
H	-0.0646766745	-0.0457027448	 3.3570719466	 0.119841
H	 3.4158246937	-0.0536985561	 1.5332232037	 0.109563
H	 3.1836402674	 1.6710788701	 1.7331270171	 0.122547
68.5129	134.6056	292.0321	327.8746	388.1797	415.0023	500.5571	538.486	732.4925	756.1674	803.3134	826.651	857.1469	864.287	904.8732	950.032	960.1374	995.8682	1008.8164	1041.6072	1073.8793	1104.0474	1115.1523	1147.449	1190.4343	1241.9811	1251.987	1284.7484	1320.0902	1336.9506	1358.2947	1387.4367	1399.4638	1405.5152	1447.1952	1461.152	1479.6191	1515.3373	1773.1682	2999.2749	3003.0825	3036.1117	3051.6378	3064.5561	3067.3775	3105.3237	3123.5211	3129.293
C1OC2CC1OC=NC2	C1O[C@@H]2C[C@H]1OC=NC2	
InChI=1S/C6H9NO2/c1-5-2-7-4-9-6(1)3-8-5/h4-6H,1-3H2	InChI=1S/C6H9NO2/c1-5-2-7-4-9-6(1)3-8-5/h4-6H,1-3H2/t5-,6-/m1/s1
