15
gdb 19798	3.07118	2.7504	1.91214	3.5908	58.73	-0.2402	0.0589	0.2991	719.5402	0.120648	-399.743741	-399.737562	-399.736618	-399.773811	24.801	
O	-0.0159343969	 1.3957715572	-0.0813887645	-0.435969
C	 0.0325857785	-0.0068548473	 0.04238501	 0.116753
C	-1.3632775763	-0.6582725432	 0.0776936738	-0.08079
N	-2.1855983426	-0.2671589656	-1.0815750165	-0.329076
C	-1.5066126468	-1.5811840812	-1.0762114009	-0.075293
C	-0.185215928	-1.5888140111	-1.8296320436	 0.045501
O	 0.1777127954	-0.3323445449	-2.4057056678	-0.240133
C	 0.7477771573	-0.685368276	-1.1398233725	-0.007686
H	-0.5483810173	 1.5563289692	-0.8729190368	 0.300725
H	 0.5701228549	-0.2240072951	 0.9714535775	 0.086382
H	-1.8470207463	-0.8301930945	 1.033591534	 0.092639
H	-3.1693940357	-0.3962580542	-0.8571691941	 0.236874
H	-2.0973540303	-2.4894818332	-1.0336686431	 0.091599
H	 0.1221120583	-2.4715557574	-2.3834260683	 0.098594
H	 1.8284709058	-0.8065793426	-1.1328531771	 0.09988
160.6521	209.7196	332.1709	425.1338	476.3221	558.7132	569.0626	698.2228	733.7802	803.0065	844.4835	863.9925	871.6074	892.5254	921.0166	966.0257	978.3267	1055.6355	1073.6615	1092.2498	1110.9457	1141.1222	1157.6955	1227.4142	1258.6193	1294.6249	1307.6788	1313.0943	1369.7757	1414.8529	1429.5364	1449.3857	3063.2988	3139.4269	3154.8365	3162.0777	3178.6163	3499.2635	3759.7241
OC1C2NC2C2OC12	O[C@H]1[C@H]2N[C@H]2[C@H]2O[C@@H]12	
InChI=1S/C5H7NO2/c7-3-1-2(6-1)4-5(3)8-4/h1-7H	InChI=1S/C5H7NO2/c7-3-1-2(6-1)4-5(3)8-4/h1-7H/t1-,2+,3-,4+,5-/m0/s1
