14
gdb 49948	2.27876	1.27817	0.9844	2.6863	77.28	-0.2503	-0.0452	0.2051	1200.0487	0.096821	-399.449692	-399.440678	-399.439734	-399.483632	32.737	
O	-0.323914313	 0.5523733299	 0.8277670165	-0.250169
C	 0.2430827922	 0.8667436014	-0.186853626	 0.178314
C	 1.4291958862	 1.7773065334	-0.2051188892	-0.16152
N	 2.3133322565	 1.6501221136	-1.3639039354	-0.348452
C	 1.520992632	 2.8930348546	-1.2476372729	-0.038414
C	 0.4723175301	 3.0765315834	-2.2237467229	 0.307203
C	-0.4071740277	 3.2539261134	-3.021704064	-0.431432
C	 2.1936063411	 4.0959115819	-0.821613043	 0.270346
C	 2.7754359124	 5.0882974601	-0.4738639086	-0.431829
H	-0.0672648699	 0.5024483096	-1.1870095529	 0.104228
H	 1.8401847769	 2.0158584886	 0.7716989087	 0.125437
H	 3.2764762327	 1.8397213314	-1.0963571669	 0.257928
H	-1.1821781251	 3.4070472139	-3.7320528527	 0.208014
H	 3.2798934955	 5.9719291747	-0.1681692808	 0.210346
80.7116	104.6116	129.8389	180.4616	211.174	299.075	325.485	449.8055	469.2706	511.3545	567.1801	608.5082	623.9012	627.2213	640.1926	670.2388	675.6183	796.7443	952.6267	967.8962	1011.8257	1062.0388	1076.0179	1204.7253	1214.0885	1319.0055	1364.9656	1430.5265	1825.3498	2239.4184	2247.6498	2936.601	3164.9685	3499.3025	3500.0736	3510.8475
O=CC1NC1(C#C)C#C	O=C[C@H]1NC1(C#C)C#C	
InChI=1S/C7H5NO/c1-3-7(4-2)6(5-9)8-7/h1-2,5-6,8H	InChI=1S/C7H5NO/c1-3-7(4-2)6(5-9)8-7/h1-2,5-6,8H/t6-/m1/s1
