17
gdb 28343	3.15426	1.39517	0.97383	4.2285	85.05	-0.1845	-0.0209	0.1637	1182.6877	0.136762	-418.057413	-418.049011	-418.048067	-418.090055	32.423	
C	-0.0061526164	 1.5306414164	-0.0342515392	-0.470987
C	-0.0444911551	 0.0307332379	-0.0145999329	 0.187872
C	-1.1818361733	-0.7050031008	-0.1124433864	-0.137543
C	-1.178248226	-2.1324126976	-0.0904769316	-0.275827
C	 0.0191347697	-2.7573755631	 0.0413379877	 0.433408
N	 0.2414212296	-4.1100012643	 0.1581305091	-0.564698
O	 1.1730852264	-2.0677404419	 0.1321912143	-0.265643
C	 1.2237898552	-0.6601003935	 0.1154893112	 0.322739
N	 2.3537944938	-0.0838194555	 0.2094438846	-0.540504
H	 0.6151457081	 1.8980102588	-0.8582932352	 0.136899
H	-1.0130467173	 1.9438640905	-0.1392127039	 0.106675
H	 0.4440789443	 1.9250277909	 0.883229218	 0.137555
H	-2.1346874278	-0.193322722	-0.2135973894	 0.099339
H	-2.0911148148	-2.7070950104	-0.1640418291	 0.090397
H	-0.4927811517	-4.7015115213	-0.198890389	 0.26358
H	 1.1692948048	-4.4063030902	-0.107530715	 0.263104
H	 3.1057696306	-0.7670244239	 0.2938612467	 0.213632
107.3224	155.1621	173.6963	288.6211	302.3351	321.2739	347.2255	417.9012	464.76	524.1521	548.1665	561.4183	688.592	735.06	746.7434	757.5571	773.7838	827.6779	936.977	961.8321	982.8322	1037.5482	1072.5892	1112.3901	1137.1773	1192.2835	1253.9438	1327.0445	1402.7108	1417.4611	1443.6361	1467.786	1491.9623	1609.6789	1643.8729	1679.5751	1734.4695	3031.5942	3084.4569	3114.5172	3170.38	3220.8261	3497.1827	3576.8268	3688.7303
CC1=CC=C(N)OC1=N	CC1=C(OC(=CC1)N)[NH]	
InChI=1S/C6H8N2O/c1-4-2-3-5(7)9-6(4)8/h2-3,8H,7H2,1H3	InChI=1S/C6H9N2O/c1-4-2-3-5(7)9-6(4)8/h3,8H,2,7H2,1H3
