15
gdb 10042	3.17721	1.36972	0.99705	0.9641	66.29	-0.2623	-0.0069	0.2554	1112.5327	0.118518	-358.855296	-358.8466	-358.845656	-358.889045	29.751	
C	-0.2191140993	 1.4893348955	-0.0638443936	-0.333809
N	 0.1186858475	 0.0716811126	 0.0530850972	-0.290303
C	 0.7422659387	-0.4900155578	-1.1351909422	-0.113928
C	 1.2018039727	-1.9462315553	-0.8587659915	-0.345974
C	 2.2259355261	-1.9844572347	 0.1817606265	 0.258272
N	 3.0276240844	-1.9789781126	 1.0140128583	-0.299134
C	-0.2167623274	-0.5056263285	-2.2543853749	 0.308699
N	-0.9495644119	-0.5238908199	-3.1467651763	-0.314984
H	 0.6358214639	 2.1298837254	-0.3378340197	 0.109447
H	-0.9982115959	 1.6197249207	-0.8207918825	 0.153423
H	-0.6187499766	 1.8350004496	 0.8921902185	 0.136951
H	 0.7509292768	-0.0669577907	 0.8355861099	 0.247109
H	 1.6207741628	 0.0855356023	-1.4825679365	 0.125271
H	 0.3385148685	-2.5376437973	-0.5396334429	 0.183064
H	 1.5984884796	-2.3919496893	-1.7752665305	 0.175894
76.955	95.9176	128.2004	170.6863	216.4395	263.3189	290.6539	391.7594	407.1939	514.9556	574.3933	584.8173	757.6162	833.8883	939.2662	976.6608	1031.6105	1034.7339	1143.5172	1161.3753	1188.6245	1251.0178	1298.7755	1346.578	1371.0454	1456.1084	1462.661	1490.3084	1498.6279	1524.7457	2362.5676	2365.9589	2927.5683	2968.9029	3068.7328	3082.3834	3116.6973	3127.6252	3520.5911
CNC(CC#N)C#N	CN[C@@H](CC#N)C#N	
InChI=1S/C5H7N3/c1-8-5(4-7)2-3-6/h5,8H,2H2,1H3	InChI=1S/C5H7N3/c1-8-5(4-7)2-3-6/h5,8H,2H2,1H3/t5-/m0/s1
