14
gdb 126358	5.57412	0.90815	0.83075	5.4265	70.67	-0.3068	-0.0708	0.236	1345.004	0.101214	-432.885052	-432.876973	-432.876029	-432.919094	28.025	
C	 0.2941385367	 0.7935832195	 0.947342272	-0.387509
C	-0.1215399673	 0.3283231659	-0.4604166863	-0.307357
C	-1.5318639149	-0.1444192229	-0.5130526397	 0.420218
N	-1.9838727562	-1.3495889545	-0.6974379857	-0.33505
C	-3.3428039478	-1.1560836948	-0.6212969963	 0.255043
N	-3.7211789597	 0.0819957981	-0.4037858793	-0.148875
O	-2.5145521819	 0.7591639383	-0.3312090369	-0.180789
C	-4.2939113975	-2.2101984314	-0.7655871455	 0.274875
N	-5.0546715473	-3.0714845919	-0.8834687916	-0.310437
H	 1.3321013903	 1.1346617568	 0.9331109474	 0.135201
H	-0.3341862591	 1.6198539939	 1.2894017063	 0.145097
H	 0.2117655445	-0.0233037996	 1.6693730139	 0.141874
H	-0.0044805737	 1.151546112	-1.1737148586	 0.145109
H	 0.5059483139	-0.4986541594	-0.7990361996	 0.152599
26.5719	116.1913	151.2563	199.1615	219.2404	342.3336	385.545	507.754	554.408	574.9388	696.8421	735.5568	775.1106	803.816	964.2446	970.593	1010.1198	1048.0894	1078.8004	1105.1848	1249.7242	1318.236	1347.025	1367.4718	1413.2622	1474.2341	1497.9033	1503.621	1512.679	1612.5259	2376.3703	3051.2292	3056.4772	3114.6378	3129.8761	3136.6616
CCC1=NC(=NO1)C#N	CCc1nc(no1)C#N	
InChI=1S/C5H5N3O/c1-2-5-7-4(3-6)8-9-5/h2H2,1H3	InChI=1S/C5H5N3O/c1-2-5-7-4(3-6)8-9-5/h2H2,1H3
