18
gdb 99062	3.63483	0.85413	0.71307	3.4266	76.56	-0.2394	0.0137	0.2531	1548.5603	0.145047	-439.078757	-439.068321	-439.067377	-439.115167	36.524	
C	-0.6369080267	 1.3618313169	-0.5850841696	-0.333751
N	-0.9492571253	-0.0493934151	-0.4817743704	-0.300435
C	-0.9409072643	-0.71039615	 0.706571762	 0.373749
O	-0.6678281802	-0.1883073048	 1.7741392308	-0.379443
C	-1.274211824	-2.2073151318	 0.6334102359	-0.303553
C	-2.3646838801	-2.6243946634	-0.3760738946	-0.096802
O	-1.9730259252	-2.3833081375	-1.7374425856	-0.414462
C	-2.7432762063	-4.0246694336	-0.1880155413	 0.297485
C	-3.0062909833	-5.1884790371	-0.0433741194	-0.419039
H	 0.2541260379	 1.5299560716	-1.2010672011	 0.121951
H	-1.4708455412	 1.9219933069	-1.0226235926	 0.123773
H	-0.4462386414	 1.7321266583	 0.422687984	 0.167865
H	-1.1858138839	-0.5798350723	-1.3089560383	 0.258391
H	-0.3555743175	-2.7636226809	 0.4066940581	 0.123204
H	-1.5791779158	-2.5004160064	 1.6399174146	 0.145651
H	-3.2458307825	-1.9887850934	-0.2309644369	 0.136096
H	-1.3455350629	-3.0731169342	-1.9836512193	 0.292212
H	-3.2596650573	-6.2121482032	 0.0856588936	 0.207109
54.94	65.4176	75.3278	119.7349	169.7281	207.3433	246.3838	298.5372	329.5179	367.9204	429.4906	498.7079	574.7545	621.5582	640.6164	682.466	684.6772	731.212	845.1357	890.394	957.4415	1020.4819	1068.2384	1105.4613	1152.3715	1179.7592	1183.7917	1266.2353	1289.9809	1299.8783	1357.4137	1414.7814	1436.7646	1457.0351	1498.5804	1501.1129	1586.1259	1778.4581	2235.7958	3025.4833	3035.3746	3054.7246	3075.3636	3121.6625	3153.2759	3501.4196	3578.7438	3798.6636
CNC(=O)CC(O)C#C	CNC(=O)C[C@@H](O)C#C	
InChI=1S/C6H9NO2/c1-3-5(8)4-6(9)7-2/h1,5,8H,4H2,2H3,(H,7,9)	InChI=1S/C6H9NO2/c1-3-5(8)4-6(9)7-2/h1,5,8H,4H2,2H3,(H,7,9)/t5-/m0/s1
