17
gdb 34221	3.74758	1.39677	1.38149	4.8799	76.36	-0.2418	0.0242	0.266	982.8947	0.140305	-380.885211	-380.878698	-380.877754	-380.915997	26.918	
N	 0.0304637124	-1.086776921	-0.0535461061	-0.350468
C	 0.005060223	 0.0689433238	-0.0034614246	 0.170011
C	-0.0331027996	 1.4954251489	 0.0332089837	 0.259842
N	-1.0036839729	 2.1734581408	 0.8936154249	-0.340259
C	-0.6542056798	 3.5688308492	 0.5291826281	-0.045038
C	 0.8533138361	 3.5768724999	 0.8615554198	-0.209373
C	 1.2118562742	 2.37322338	-0.0016691643	-0.108836
C	 0.2728012914	 2.3760061985	-1.1912579537	-0.118599
C	-0.6453178074	 3.5793322248	-1.0236325663	-0.236048
H	-1.9494444328	 1.9536952153	 0.58532373	 0.227224
H	-1.2798113074	 4.3034707526	 1.0322060159	 0.084316
H	 1.3523407015	 4.4946140832	 0.5389979566	 0.108097
H	 1.040338714	 3.4093507691	 1.9242716412	 0.121168
H	 2.1979169585	 1.9323070273	-0.0423685893	 0.1128
H	 0.5397148765	 1.9439535672	-2.145543881	 0.110437
H	-1.6400459798	 3.4235058654	-1.4536811819	 0.10364
H	-0.220968448	 4.498627595	-1.4384416531	 0.111084
141.9485	164.8778	412.1032	429.8654	480.622	507.0186	542.9861	587.0292	679.6448	696.9493	799.8659	867.1134	875.4308	893.5055	905.6731	940.17	944.6439	947.2194	986.5417	1007.3908	1013.2064	1059.2509	1091.2254	1132.4311	1145.6479	1179.6246	1205.5099	1223.1449	1271.4902	1304.1974	1311.0301	1322.1114	1364.3092	1419.5464	1477.9753	1497.0014	2354.1148	3049.8731	3068.313	3098.8257	3123.8311	3144.4181	3216.7175	3225.1249	3477.455
N#CC12NC3CC1C2C3	N#C[C@@]12N[C@H]3C[C@@H]1[C@@H]2C3	
InChI=1S/C7H8N2/c8-3-7-5-1-4(9-7)2-6(5)7/h4-6,9H,1-2H2	InChI=1S/C7H8N2/c8-3-7-5-1-4(9-7)2-6(5)7/h4-6,9H,1-2H2/t4-,5+,6-,7+
