17
gdb 107503	2.06679	1.92204	1.26473	1.8538	68.	-0.2569	0.0606	0.3175	1023.8379	0.13461	-458.889405	-458.881358	-458.880414	-458.921984	30.759	
O	 0.1897775809	 1.315566867	 0.295656915	-0.419579
C	 0.007178093	-0.0258099981	-0.1174051843	-0.194711
C	-1.439214353	-0.4141879757	-0.0668439156	 0.316856
O	-1.9322442092	-1.5645102377	-0.7654744252	-0.288477
C	-2.5750701091	-0.3000411627	-1.0016945112	-0.048538
C	-3.586599718	-0.0858904291	 0.1413624959	-0.345711
C	-2.3895088509	-0.2129994054	 1.1100777539	 0.379756
C	-2.2596264035	-0.6025472711	 2.5102012885	-0.264307
O	-2.1089621804	 0.7748313301	 2.0983335066	-0.279023
H	-0.2771872416	 1.4202974347	 1.1354541622	 0.297826
H	 0.3757758279	-0.1127778594	-1.1442070947	 0.125142
H	 0.5947897288	-0.7273993858	 0.4992126358	 0.094879
H	-2.6085702705	 0.0603026799	-2.0224824727	 0.117818
H	-4.0041642905	 0.9237880377	 0.1697541864	 0.131123
H	-4.382259522	-0.8300299096	 0.2155890664	 0.120613
H	-3.1526148575	-0.8023994361	 3.099029896	 0.129513
H	-1.3505315844	-1.0867761886	 2.8618881372	 0.12682
100.5465	146.7813	163.3649	219.8697	310.1467	392.3067	407.1139	444.0559	496.3166	531.4963	606.6796	676.9513	795.1816	830.4653	874.2224	888.7836	905.7044	950.7392	979.6277	1038.2005	1061.5422	1067.3278	1108.0516	1120.8113	1151.8599	1163.9243	1186.0114	1227.0094	1260.3158	1279.1953	1371.1323	1426.7196	1435.2766	1460.7352	1487.8145	1505.174	1537.7981	2959.5349	3070.2078	3081.2382	3094.2882	3131.7154	3183.6793	3200.2139	3756.6174
OCC12OC1CC21CO1	OC[C@]12O[C@H]1C[C@]12CO1	
InChI=1S/C6H8O3/c7-2-6-4(9-6)1-5(6)3-8-5/h4,7H,1-3H2	InChI=1S/C6H8O3/c7-2-6-4(9-6)1-5(6)3-8-5/h4,7H,1-3H2/t4-,5+,6-/m0/s1
