17
gdb 29534	3.10906	1.52832	1.04512	1.9852	75.34	-0.1657	0.0576	0.2233	1099.9804	0.138957	-418.023498	-418.015559	-418.014615	-418.055691	30.547	
O	 0.1402974588	 1.3664786529	-0.104726818	-0.450006
C	 0.0950593591	 0.0023356815	-0.0146817605	 0.159785
C	 0.0817179315	-0.8366646529	-1.1090967677	-0.178915
N	 0.0200077641	-2.1530419909	-0.6369336392	-0.379486
C	 0.0031926345	-2.1087367372	 0.7171004463	 0.355553
C	 0.0492880558	-0.8116158109	 1.1529116336	 0.121582
C	-0.0469431688	-0.8005742729	 2.6553027534	-0.378571
C	 0.2171649548	-2.3197050255	 2.9597439886	-0.157373
N	-0.0236154368	-3.1100151536	 1.7102704934	-0.411172
H	 0.1701337244	 1.7239047355	 0.7866169783	 0.294408
H	 0.1174445446	-0.6155865496	-2.1615401753	 0.115354
H	 0.0814833287	-2.9767510353	-1.2075997715	 0.25898
H	 0.7011455999	-0.1831868641	 3.1646323603	 0.101945
H	-1.0320957447	-0.470812113	 3.0177690462	 0.098766
H	 1.2678256334	-2.450255714	 3.2380424706	 0.119428
H	-0.3963909012	-2.709183533	 3.7755532579	 0.10299
H	-0.9276723981	-3.5751000571	 1.7515643334	 0.226733
136.2425	185.1666	191.4632	217.4645	266.953	303.2944	406.8411	525.9709	587.0164	595.2497	618.275	642.4273	683.4189	748.1176	765.3855	818.2611	909.6697	924.3228	986.5535	1043.2398	1074.4192	1093.2591	1153.6623	1193.4449	1212.7671	1249.6401	1301.024	1312.0703	1341.6817	1362.4984	1402.5193	1472.4093	1492.1674	1509.0391	1557.9193	1578.9205	1650.1045	2986.6129	3042.4218	3057.9749	3105.4321	3283.4999	3461.6897	3693.2401	3851.5178
OC1=CNC2=C1CCN2	Oc1c[nH]c2c1CCN2	
InChI=1S/C6H8N2O/c9-5-3-8-6-4(5)1-2-7-6/h3,7-9H,1-2H2	InChI=1S/C6H8N2O/c9-5-3-8-6-4(5)1-2-7-6/h3,7-9H,1-2H2
