15
gdb 61729	2.61846	0.77934	0.61835	3.8742	85.29	-0.2616	-0.0376	0.2241	1709.9296	0.108703	-420.591619	-420.581852	-420.580908	-420.627602	33.652	
C	-0.059855359	 1.8896484797	 0.0131321561	-0.39009
C	-0.0881364182	 0.3654091314	-0.0969037317	-0.130228
O	 0.5139216186	 0.0297323404	-1.3698301603	-0.175967
C	 0.162618906	-1.1503846494	-1.9241481424	 0.178611
O	 0.6150982949	-1.5293294387	-2.9605806026	-0.265233
C	 0.6183890241	-0.2928082968	 0.9975384001	 0.585043
C	 1.1906591656	-0.839705779	 1.9124606637	-0.399361
C	 1.8403343386	-1.4497692794	 2.9401629372	 0.309735
C	 2.4142185678	-1.9927551276	 3.8527834587	-0.550727
H	 0.9712284956	 2.2483385753	-0.0098479672	 0.151047
H	-0.6078659789	 2.3266836832	-0.8249019471	 0.137554
H	-0.5233150684	 2.2047942281	 0.9508449686	 0.138277
H	-1.131854825	 0.0204999908	-0.104487378	 0.123776
H	-0.5840841241	-1.7063529048	-1.3251509832	 0.086627
H	 2.9230737926	-2.468461373	 4.654506558	 0.200937
34.9148	90.3925	101.6945	144.7269	211.6323	233.4747	251.5366	282.808	393.4756	450.024	513.0152	544.7288	571.4822	604.4401	618.1087	657.3707	722.5371	930.362	1005.5422	1041.7908	1085.7661	1107.355	1169.5803	1211.6078	1333.1595	1353.8824	1407.4149	1439.1202	1482.5655	1493.8318	1871.105	2184.0234	2363.6079	2955.3968	3007.6013	3057.6113	3139.5777	3145.2681	3502.597
CC(OC=O)C#CC#C	C[C@@H](OC=O)C#CC#C	
InChI=1S/C7H6O2/c1-3-4-5-7(2)9-6-8/h1,6-7H,2H3	InChI=1S/C7H6O2/c1-3-4-5-7(2)9-6-8/h1,6-7H,2H3/t7-/m1/s1
