23
gdb 88432	2.79323	1.12824	0.97987	1.2539	86.86	-0.2376	0.0757	0.3132	1354.714	0.203965	-388.264857	-388.254727	-388.253782	-388.299882	38.698	
C	-0.1893711219	 1.6120587718	-0.0880232089	-0.42802
C	-0.0235134127	 0.1136630132	 0.0684849142	-0.002858
C	 1.3028007355	-0.5669486403	-0.1802993661	-0.308174
C	 0.7097263027	-0.5696660041	 1.2081166449	-0.04618
C	 1.3798679972	 0.1337723915	 2.3552268716	 0.372284
O	 2.110464224	 1.2916814772	 2.0181310854	-0.468961
C	 0.7407140699	 0.1229562596	 3.7275059023	-0.363125
C	 2.0205668411	-0.6525215192	 3.4725894294	-0.015545
C	 2.0608966117	-2.1627340437	 3.5360591422	-0.414304
H	 0.7565524727	 2.1434058724	 0.0400799984	 0.121249
H	-0.555049262	 1.8492643013	-1.0933209706	 0.117255
H	-0.916545209	 2.0191864062	 0.6251775646	 0.11102
H	-0.8947740742	-0.4424424845	-0.2708916758	 0.080412
H	 1.3337082536	-1.4928379281	-0.7445584219	 0.103019
H	 2.1576345324	 0.0843749941	-0.3289453818	 0.124382
H	 0.2517015234	-1.5052226175	 1.5141710843	 0.075687
H	 1.4915820765	 2.028176469	 1.9883768903	 0.281808
H	 0.7999414432	 1.0305839897	 4.3191875044	 0.105653
H	-0.1779023423	-0.4422711058	 3.8547860485	 0.10622
H	 2.9160874247	-0.1640905258	 3.8465852313	 0.094799
H	 1.1157419699	-2.6144240588	 3.2211154857	 0.114998
H	 2.8534667303	-2.5700615578	 2.8987727478	 0.121941
H	 2.2524429633	-2.4974575806	 4.5615482798	 0.116438
37.7814	120.5045	161.9969	196.6977	212.3105	238.946	244.3866	342.417	359.8015	369.5478	420.0622	451.9761	497.4713	572.4026	702.8532	767.005	799.5902	847.0317	861.9081	891.4478	925.5285	926.4668	948.3744	1005.0329	1034.5411	1044.7731	1074.9476	1081.0503	1098.2355	1122.7132	1129.6891	1148.7793	1185.5016	1198.355	1230.4542	1241.9694	1295.4688	1335.7163	1395.0712	1396.1795	1413.2155	1419.1538	1434.9774	1479.9015	1492.3686	1495.0526	1502.3477	1507.386	1511.4035	3024.8644	3030.7719	3078.5624	3089.3107	3102.4761	3109.8645	3120.7607	3128.4274	3130.155	3149.6418	3152.1781	3209.7621	3218.5372	3814.2309
CC1CC1C1(O)CC1C	C[C@H]1C[C@H]1[C@@]1(O)C[C@H]1C	
InChI=1S/C8H14O/c1-5-3-7(5)8(9)4-6(8)2/h5-7,9H,3-4H2,1-2H3	InChI=1S/C8H14O/c1-5-3-7(5)8(9)4-6(8)2/h5-7,9H,3-4H2,1-2H3/t5-,6+,7+,8+/m0/s1
