21
gdb 106368	3.63624	1.15876	1.10581	2.1617	77.74	-0.2528	0.0793	0.3321	1204.4216	0.183291	-424.212724	-424.20428	-424.203336	-424.24542	33.527	
C	 0.0336750752	 1.5138764792	 0.0889553916	-0.412173
C	 0.0638871962	-0.0114922061	 0.0646131637	 0.040469
C	 0.9355858315	-0.6239859602	-1.0881971374	-0.293632
C	 1.9438978107	-1.3874112224	-0.2060598088	 0.394807
C	 3.1974869747	-1.987445436	-0.7852610475	-0.166552
O	 4.0401797881	-2.5064207381	 0.2246731891	-0.419423
C	 1.045138576	-2.1046852659	 0.8313985523	-0.273806
C	 0.8592573219	-0.6329555499	 1.2395512502	 0.069246
O	 2.2442140987	-0.3793809987	 0.8328280955	-0.347447
H	 1.0503446718	 1.9090320768	 0.1752945228	 0.131161
H	-0.4120967907	 1.9164146638	-0.8265599389	 0.113322
H	-0.552230076	 1.8874011034	 0.9362807208	 0.109536
H	-0.9574307405	-0.4067489487	 0.0433465302	 0.070366
H	 0.3747204273	-1.2794694113	-1.7596984012	 0.099675
H	 1.4311932059	 0.1467487147	-1.6846468865	 0.105232
H	 2.9410674875	-2.8159613056	-1.4549070535	 0.112048
H	 3.7125740973	-1.2200912758	-1.3873209796	 0.093345
H	 4.0784589167	-1.8244820994	 0.9070192639	 0.290665
H	 0.1805010994	-2.6733544272	 0.4793794154	 0.092269
H	 1.6383739871	-2.6712777774	 1.5485171364	 0.114787
H	 0.6313138511	-0.3098081151	 2.2559568915	 0.076104
102.4806	156.9465	180.8603	243.3543	275.8367	330.3056	379.7071	433.5385	460.5529	464.0255	598.7023	666.8829	709.0348	798.7545	802.5512	842.0783	879.5161	892.4586	926.3952	965.0684	993.468	1024.7034	1035.4832	1050.2013	1075.1246	1119.2114	1140.3537	1172.8271	1180.7075	1210.042	1221.0863	1232.0936	1264.0502	1289.9636	1306.2785	1346.5353	1369.0992	1382.9753	1404.1255	1445.5166	1481.2152	1492.7139	1494.2753	1501.1217	1506.9425	2968.0788	3030.2659	3045.5915	3059.7077	3067.8053	3069.5806	3093.7212	3108.7249	3114.0287	3116.3725	3151.95	3780.2997
CC1CC2(CO)CC1O2	C[C@H]1C[C@]2(CO)C[C@H]1O2	
InChI=1S/C7H12O2/c1-5-2-7(4-8)3-6(5)9-7/h5-6,8H,2-4H2,1H3	InChI=1S/C7H12O2/c1-5-2-7(4-8)3-6(5)9-7/h5-6,8H,2-4H2,1H3/t5-,6+,7+/m0/s1
