15
gdb 16941	3.73167	2.20136	2.00806	5.1851	59.59	-0.2388	0.0114	0.2502	726.3209	0.122586	-399.830327	-399.824518	-399.823574	-399.860116	23.359	
O	-0.0082741957	-0.0027570369	-0.0725537229	-0.344154
C	 0.028286473	 1.187690099	-0.020130109	 0.487884
O	-1.0953334713	 1.9780514099	 0.0451040501	-0.246126
C	-0.6298725716	 3.3556317887	 0.0932018216	 0.092102
C	 0.00415121	 3.5515394462	 1.4805870436	-0.176123
N	 1.21835474	 2.6902472686	 1.400023077	-0.302468
C	 1.2078984664	 2.1697720357	 0.0065498559	-0.157133
C	 0.5988215329	 3.3139162913	-0.8289537257	-0.244656
H	-1.46209422	 4.0083259719	-0.1607392221	 0.098909
H	 0.2461673286	 4.6039936577	 1.664701988	 0.105473
H	-0.6716803653	 3.2059756941	 2.2683146858	 0.127835
H	 2.0563325631	 3.2430457003	 1.5401627413	 0.229255
H	 2.1553401487	 1.7234816365	-0.2835403424	 0.099592
H	 0.3427377987	 3.0432059861	-1.8558362128	 0.124215
H	 1.1954040525	 4.2294363409	-0.8135637484	 0.105394
163.4746	255.548	413.3891	436.1969	488.6403	595.3207	723.0313	726.0376	752.2858	834.5317	867.3434	883.1093	912.635	951.9814	969.5434	972.6288	992.5264	1057.2576	1072.0553	1107.0561	1161.9532	1189.9737	1206.8162	1267.6972	1276.6364	1301.9481	1350.42	1362.865	1429.2167	1486.9442	1508.0064	1910.6665	3041.6523	3068.1642	3089.3173	3128.5676	3152.3002	3165.3162	3535.8358
O=C1OC2CNC1C2	O=C1O[C@H]2CN[C@@H]1C2	
InChI=1S/C5H7NO2/c7-5-4-1-3(8-5)2-6-4/h3-4,6H,1-2H2	InChI=1S/C5H7NO2/c7-5-4-1-3(8-5)2-6-4/h3-4,6H,1-2H2/t3-,4-/m1/s1
