20
gdb 122698	6.82135	0.56775	0.54413	2.4414	81.04	-0.2462	0.0268	0.273	2054.6311	0.169628	-440.264672	-440.254764	-440.25382	-440.301582	33.885	
C	 1.1646312353	 1.5127812147	-0.1527241086	-0.224193
O	 0.2465052944	 0.4497983774	-0.1028748051	-0.230525
C	 0.4965116476	-0.5376930941	-1.077585576	-0.04282
C	-0.5606145036	-1.6262816784	-0.930239055	-0.184599
N	-0.2809072768	-2.6968768754	-1.8797432164	-0.337486
C	-1.2327950891	-3.2958391681	-2.4229826518	 0.4665
C	-1.3632519022	-4.4146277877	-3.4353225321	-0.373685
C	-2.8760518531	-4.1774725106	-3.2507846076	-0.075883
O	-2.6025563761	-3.125154393	-2.2769889494	-0.260057
H	 2.1979950668	 1.1707243195	 0.0193343827	 0.101805
H	 1.1366441037	 2.033780712	-1.1235151271	 0.100987
H	 0.8923525571	 2.220625739	 0.6343705403	 0.123582
H	 0.4556029565	-0.1068226225	-2.0924716039	 0.084057
H	 1.4998469493	-0.9762408459	-0.9516273782	 0.092403
H	-0.5035763972	-2.0254398399	 0.0904840389	 0.117175
H	-1.5598787284	-1.1905335763	-1.0534970351	 0.11741
H	-0.9561359606	-4.1907926342	-4.4226192482	 0.138568
H	-0.98730034	-5.3818763326	-3.0978244639	 0.139482
H	-3.4125346479	-3.7801633562	-4.1158827021	 0.123491
H	-3.4440089757	-4.9920563777	-2.7951265713	 0.123788
21.4694	76.6893	95.1141	104.8889	150.0149	210.657	234.3855	251.9073	337.4281	436.0379	546.574	570.8225	766.6045	790.4804	816.9667	906.0626	962.6533	988.5733	1010.6507	1055.2319	1061.3127	1083.5886	1119.1908	1154.3023	1159.2049	1171.754	1186.3799	1200.2073	1230.1464	1233.7731	1243.5525	1299.9659	1346.1873	1350.6271	1427.3165	1467.7802	1482.1409	1485.1879	1494.0286	1506.119	1521.749	1531.5636	1847.6352	2954.6437	2968.6917	2990.4845	3006.9529	3017.7956	3061.905	3063.4449	3087.9267	3108.9838	3116.5542	3143.5841
COCCN=C1CCO1	COCCN=C1CCO1	
InChI=1S/C6H11NO2/c1-8-5-3-7-6-2-4-9-6/h2-5H2,1H3	InChI=1S/C6H11NO2/c1-8-5-3-7-6-2-4-9-6/h2-5H2,1H3
