17
gdb 123891	3.67722	1.63173	1.16289	2.4296	83.18	-0.2136	-0.024	0.1896	1021.1226	0.140774	-380.916105	-380.909461	-380.908517	-380.947047	26.666	
C	-0.0093447861	 1.5121070929	 0.0737417286	-0.281973
C	 1.4047145043	 2.0941796796	-0.0708707316	-0.15059
N	 2.1234724137	 1.3823295842	-1.1133920151	-0.025494
N	 3.1514901474	 1.9265538755	-1.7878538574	-0.274608
C	 3.6575544516	 0.9134322342	-2.4932715874	 0.003613
C	 2.9703179652	-0.2921364422	-2.2544524059	-0.349652
C	 1.9802527324	 0.046104056	-1.3434511009	 0.403193
C	 0.9209196626	-0.6698369592	-0.6610138965	-0.14543
C	-0.012145873	 0.0014261449	 0.0272552514	-0.096826
H	-0.4460100326	 1.8750478395	 1.0094274343	 0.11639
H	-0.6513027952	 1.8950961301	-0.7335272446	 0.127784
H	 1.3851690538	 3.152812601	-0.3353189134	 0.135273
H	 1.953845729	 1.9920623366	 0.8751931325	 0.1216
H	 4.4948552587	 1.0898373697	-3.152425671	 0.110982
H	 3.1477020536	-1.2618181006	-2.6910350873	 0.103488
H	 0.9047985626	-1.7512304425	-0.7396507281	 0.102027
H	-0.8229186777	-0.5249815196	 0.5199504123	 0.100223
137.9902	198.4475	246.1338	394.0891	433.0122	498.8673	584.9216	661.0181	668.1013	716.5244	753.2147	779.8497	811.0916	884.3964	886.985	934.5376	949.9273	982.9532	1022.9219	1063.8119	1065.9982	1162.7985	1165.3546	1216.8272	1229.7597	1258.0039	1320.0924	1345.0005	1360.5649	1376.0005	1403.5411	1450.2568	1471.3004	1485.9307	1511.8522	1571.4423	1689.3793	2999.3383	3015.3151	3077.5943	3117.3846	3178.2745	3200.0728	3243.8443	3267.8694
C1CN2N=CC=C2C=C1	C1Cn2nccc2C=C1	
InChI=1S/C7H8N2/c1-2-6-9-7(3-1)4-5-8-9/h1,3-5H,2,6H2	InChI=1S/C7H8N2/c1-2-6-9-7(3-1)4-5-8-9/h1,3-5H,2,6H2
