16
gdb 125568	4.45759	1.0203	0.84572	2.7562	74.79	-0.2506	-0.0316	0.2189	1321.6707	0.125905	-434.130176	-434.121649	-434.120705	-434.163791	31.132	
C	 0.1496844534	 1.4939940248	-0.0788238903	-0.491238
C	 0.0614934244	 0.0042817098	 0.0259606296	 0.35319
N	-0.1708353786	-0.7394667186	-1.0596831336	-0.273108
N	-0.1566678492	-2.009507014	-0.6210333581	-0.287126
C	 0.041679228	-2.1041233031	 0.7254582452	 0.314484
C	 0.1928566452	-0.8079488969	 1.1749996923	-0.358789
C	 0.0893910375	-3.376882652	 1.476007713	 0.311658
N	 0.3096461389	-4.5006176328	 0.6977705702	-0.552785
O	-0.0905531214	-3.4332403518	 2.6755119352	-0.342167
H	 1.143862998	 1.8566531483	 0.2040563584	 0.132303
H	-0.0512493022	 1.8073851255	-1.1052346626	 0.14158
H	-0.5742265697	 1.9821216704	 0.5819774446	 0.133654
H	-0.4474002943	-2.7430000355	-1.2460727182	 0.274065
H	 0.3857734981	-0.5102247535	 2.1925366643	 0.125386
H	 0.8865993535	-4.4068319815	-0.1245482522	 0.255296
H	 0.4615900983	-5.3454339491	 1.2304534123	 0.263598
79.4817	91.5706	140.514	155.5196	301.2359	329.7891	394.5567	438.3693	514.3179	536.9842	570.818	634.8586	671.489	697.3866	725.9992	785.9781	857.0727	987.7642	1009.9907	1024.215	1067.507	1091.4046	1130.9832	1197.1488	1258.7595	1332.6318	1408.4578	1427.7847	1461.0111	1483.7819	1487.8281	1499.0414	1600.0007	1625.8469	1792.4432	3038.9357	3091.8445	3135.1829	3275.2195	3564.5442	3664.32	3683.4229
CC1=NNC(=C1)C(N)=O	Cc1n[nH]c(c1)C(=O)N	
InChI=1S/C5H7N3O/c1-3-2-4(5(6)9)8-7-3/h2H,1H3,(H2,6,9)(H,7,8)	InChI=1S/C5H7N3O/c1-3-2-4(5(6)9)8-7-3/h2H,1H3,(H2,6,9)(H,7,8)
