16
gdb 27225	3.31788	1.57066	1.07306	1.0759	79.21	-0.1745	0.0117	0.1862	1059.316	0.126601	-400.787818	-400.780395	-400.77945	-400.819317	29.346	
O	 0.0873787899	 1.3334866985	 0.192903109	-0.434551
C	 0.05885138	-0.0116086806	-0.0101264942	 0.243423
C	 0.0474693689	-0.8179187841	-1.1131415455	 0.096732
C	 0.0566594129	-0.8165096492	-2.6176183763	-0.442642
C	 0.0245664443	-2.3122291147	-2.9154905475	-0.084346
C	 0.0009283575	-3.0523376583	-1.7905955975	-0.200078
C	 0.0140269	-2.1705861648	-0.6324103046	 0.291715
C	 0.0061960712	-2.152813895	 0.7380412621	-0.267239
N	 0.0340741228	-0.8117405854	 1.1060337529	-0.298912
H	 0.1075700817	 1.7647033038	-0.6662287772	 0.30694
H	-0.8078977473	-0.3056150854	-3.0662818166	 0.113726
H	 0.9488687593	-0.3454740578	-3.055678456	 0.113633
H	 0.0219690261	-2.6995144273	-3.9268046249	 0.089724
H	-0.0237647337	-4.1343827519	-1.7512751912	 0.092529
H	-0.0156712561	-2.9284636011	 1.4848198943	 0.117294
H	 0.0358761425	-0.4539033966	 2.0452224332	 0.26205
174.0953	180.7591	228.2265	277.8735	318.4705	381.06	481.4314	537.4331	598.8148	626.3305	651.4461	666.529	682.3515	755.2856	795.1443	850.6944	929.8634	948.5146	957.6104	1047.5506	1065.3533	1125.257	1148.475	1152.0188	1203.6432	1275.8235	1286.6414	1329.6946	1362.5977	1401.1717	1462.6957	1527.4103	1597.9411	1616.6059	1683.7235	2997.0097	3015.3063	3199.1879	3222.5259	3271.452	3684.2296	3853.1522
OC1=C2CC=CC2=CN1	Oc1c2CC=Cc2c[nH]1	
InChI=1S/C7H7NO/c9-7-6-3-1-2-5(6)4-8-7/h1-2,4,8-9H,3H2	InChI=1S/C7H7NO/c9-7-6-3-1-2-5(6)4-8-7/h1-2,4,8-9H,3H2
