23
gdb 85944	2.46322	1.30331	1.08452	1.7443	86.48	-0.2424	0.0163	0.2587	1250.5882	0.205758	-388.314016	-388.304626	-388.303682	-388.347255	37.452	
C	 0.07817122	 1.5210577492	 0.0386657162	-0.420167
C	-0.0377282376	-0.0107908816	 0.0096599386	 0.254196
C	-1.5289639281	-0.3981716037	-0.0450708927	-0.412331
C	 0.6941626686	-0.562926225	-1.2372342497	-0.264234
C	 1.0255096675	-2.0300545684	-1.1438665858	-0.066388
C	 0.9773338915	-2.731032948	-0.0114012332	-0.089143
C	 0.6017453257	-2.1330401356	 1.3195514383	 0.082135
O	 1.4259935718	-2.6425747799	 2.3692883718	-0.438854
C	 0.6338772601	-0.5997229705	 1.2696033294	-0.232216
H	 1.1234902359	 1.8392571539	 0.1196128342	 0.10742
H	-0.3370705533	 1.964258034	-0.8737209395	 0.108158
H	-0.4670501963	 1.9413190382	 0.8909776996	 0.11012
H	-2.0259409818	 0.1061685755	-0.8810858967	 0.107589
H	-1.6679705488	-1.4744230281	-0.180677151	 0.12275
H	-2.0451822593	-0.1020612228	 0.8747976144	 0.109858
H	 0.0886185234	-0.3775327201	-2.1348533952	 0.099667
H	 1.625806726	 0.0006831761	-1.3987615326	 0.101837
H	 1.3217250504	-2.52207774	-2.0681835812	 0.087355
H	 1.2197465857	-3.7910799693	 0.0017748497	 0.089858
H	-0.4046358658	-2.4716759936	 1.5991929788	 0.09524
H	 2.338461204	-2.4303478441	 2.1421027372	 0.272239
H	 1.6875915104	-0.2854713228	 1.284010112	 0.07858
H	 0.1734464499	-0.1950547237	 2.1778941074	 0.096334
114.1777	151.7095	231.708	243.2241	275.0739	299.315	313.529	331.0542	348.2513	408.1638	439.1198	468.3748	489.019	554.8124	683.9777	737.8793	808.2502	882.8592	899.6546	926.833	940.5964	949.6943	989.078	1010.3124	1020.6608	1032.9295	1069.7533	1103.2618	1126.9111	1164.2697	1201.9129	1220.1175	1259.9647	1287.291	1308.1565	1325.0162	1366.4335	1374.2813	1398.1669	1401.4993	1422.3821	1428.3823	1471.3378	1480.2384	1487.3031	1496.5284	1503.6191	1512.1743	1717.9029	2991.0817	3002.4581	3019.3152	3021.6356	3026.649	3030.6064	3066.7725	3087.8647	3092.457	3094.383	3108.992	3138.6842	3165.2192	3794.178
CC1(C)CC=CC(O)C1	CC1(C)CC=C[C@@H](O)C1	
InChI=1S/C8H14O/c1-8(2)5-3-4-7(9)6-8/h3-4,7,9H,5-6H2,1-2H3	InChI=1S/C8H14O/c1-8(2)5-3-4-7(9)6-8/h3-4,7,9H,5-6H2,1-2H3/t7-/m1/s1
