18
gdb 44458	4.11839	1.38316	1.26396	3.3496	76.71	-0.2444	0.0266	0.271	1018.2985	0.150894	-401.924704	-401.918094	-401.91715	-401.955477	27.899	
O	-0.0108283176	-0.0322339895	-0.021579636	-0.360233
C	-0.0162981149	 1.1731208245	 0.0265757565	 0.400702
C	-1.2800632624	 2.0915065163	 0.1432370037	-0.483883
C	-0.6194763919	 3.4080145681	 0.4580976768	 0.329925
C	-0.59274485	 4.9493081629	 0.2373150508	-0.312422
C	 0.8316074424	 4.5613602122	 0.8051737901	-0.095349
C	 0.0962557042	 3.6750080147	 1.8281402195	-0.245116
C	 0.7694582332	 3.3689359229	-0.2131051904	 0.038205
N	 1.1178964707	 1.9845660303	-0.0194676799	-0.334934
H	-1.7993009822	 2.074586193	-0.8219705175	 0.13036
H	-1.956494045	 1.6972878018	 0.9037548077	 0.132481
H	-0.636801278	 5.2996392314	-0.797559265	 0.098574
H	-1.21142734	 5.5623649601	 0.8962593065	 0.102091
H	 1.6591413045	 5.248528549	 0.9874270953	 0.075988
H	-0.5014862701	 4.1959066828	 2.5799585594	 0.09162
H	 0.6566241603	 2.8468379162	 2.2618881654	 0.110068
H	 0.8234226344	 3.6751078274	-1.2652946772	 0.075087
H	 1.9877529424	 1.561307316	-0.3056335159	 0.246835
119.1697	289.1441	360.2673	381.9328	487.4085	494.8	539.847	567.834	611.4713	704.9657	757.9088	774.8143	812.2309	832.5662	882.3578	906.0542	950.1543	970.4402	995.9115	1023.5498	1054.9225	1084.4231	1101.9455	1121.2504	1136.0562	1156.7739	1200.0279	1203.5038	1213.3326	1237.2185	1248.9871	1253.0327	1324.3775	1371.5422	1418.8906	1461.9484	1496.8817	1536.4926	1836.6567	3019.6201	3051.8569	3057.222	3069.0905	3102.7361	3120.4155	3126.2007	3142.7797	3623.8456
O=C1CC23CC(C2)C3N1	O=C1C[C@@]23C[C@@H](C2)[C@H]3N1	
InChI=1S/C7H9NO/c9-5-3-7-1-4(2-7)6(7)8-5/h4,6H,1-3H2,(H,8,9)	InChI=1S/C7H9NO/c9-5-3-7-1-4(2-7)6(7)8-5/h4,6H,1-3H2,(H,8,9)/t4-,6-,7+/m1/s1
