17
gdb 20253	3.53443	3.02122	2.39956	1.811	69.45	-0.2185	0.0819	0.3004	666.1296	0.146228	-326.670795	-326.665586	-326.664642	-326.699648	22.865	
C	-0.0250730451	 1.5551185804	 0.0158830521	-0.232291
C	 1.5299708476	 1.5052280876	 0.0110399304	-0.052607
C	 2.0196438028	 1.3902494	 1.4605239572	-0.230822
C	 1.662816159	-0.0370233529	 1.825589833	-0.021101
C	 1.7890834445	-0.9253838018	 0.6592273177	-0.047882
C	 1.455098384	 0.0042820694	-0.5191108176	-0.068013
C	-0.0021802301	 0.0229403963	-0.0065651719	 0.042511
N	 0.4254423195	-0.679374873	 1.278329683	-0.178511
H	-0.5100442518	 2.0612491791	 0.8564040346	 0.096427
H	-0.4339252431	 1.9423753919	-0.9228301913	 0.098777
H	 2.0620362106	 2.2457743011	-0.5866660389	 0.067162
H	 3.1064457165	 1.515582521	 1.5460229289	 0.099243
H	 1.5478212063	 2.1385065823	 2.106493478	 0.10278
H	 1.8881971157	-0.4085990208	 2.8205821194	 0.092622
H	 2.2496748155	-1.9068315211	 0.6347026729	 0.089807
H	 1.7486078882	-0.2183615134	-1.5420099091	 0.067752
H	-0.81614645	-0.5432068062	-0.4616997586	 0.074144
286.8702	404.2835	467.0295	612.	657.5454	672.9405	738.2918	773.7107	829.2141	834.9907	866.2492	896.5558	919.1321	935.6295	953.464	968.3656	979.6825	1040.0346	1048.0312	1060.999	1093.988	1119.2478	1134.0006	1181.6488	1196.3753	1218.4861	1236.8767	1253.4347	1261.3302	1287.6678	1311.9691	1323.9512	1342.7813	1399.9937	1477.7436	1498.0185	3025.5966	3041.3752	3071.6907	3092.5558	3095.715	3103.4346	3142.3194	3158.2375	3173.076
C1C2CC3C4C2C1N34	C1[C@H]2C[C@@H]3[C@@H]4[C@H]2[C@H]1N34	
InChI=1S/C7H9N/c1-3-2-5-7-6(3)4(1)8(5)7/h3-7H,1-2H2	InChI=1S/C7H9N/c1-3-2-5-7-6(3)4(1)8(5)7/h3-7H,1-2H2/t3-,4-,5+,6+,7+,8?/m0/s1
