17
gdb 20965	4.61394	1.61273	1.22196	3.7515	71.58	-0.1898	0.0445	0.2344	978.6189	0.143794	-360.049379	-360.041328	-360.040384	-360.08206	29.113	
C	 0.1993727774	 1.3818305484	-0.0074825984	-0.345989
N	-0.2477320965	 0.0001841246	-0.0021539315	-0.161611
C	-0.0875448934	-0.7178910313	 1.2506129737	-0.331678
C	-0.0373626149	-0.7445609993	-1.1515130959	 0.500053
C	 0.017415422	-2.1170879655	-1.3582139525	-0.343961
C	 0.1962753551	-2.2568036341	-2.7515690634	 0.002185
N	 0.2620643418	-1.0927510998	-3.3802300062	-0.245926
N	 0.1205044034	-0.1790241009	-2.3800241266	-0.293723
H	 1.28999769	 1.490239644	-0.1286591149	 0.118968
H	-0.2953054892	 1.943691319	-0.8072953723	 0.125704
H	-0.0900461211	 1.8512620076	 0.9353384766	 0.132842
H	-0.4175834263	-0.0782701598	 2.0729387838	 0.124193
H	-0.7171199863	-1.6113296669	 1.2460626092	 0.140689
H	 0.9521677333	-1.0292244434	 1.4424611793	 0.115543
H	-0.0560912586	-2.8944250287	-0.6175809384	 0.094414
H	 0.283724094	-3.1732289759	-3.3178126754	 0.103844
H	 0.1384266293	 0.7968881321	-2.6136193071	 0.264455
51.873	159.093	179.4967	186.6799	263.2903	331.6271	391.5502	414.9151	489.3511	617.7157	670.5682	701.0817	741.5735	891.897	929.9552	944.001	1037.748	1073.7351	1080.5566	1111.8235	1129.741	1167.8839	1214.8444	1249.1547	1285.986	1351.3151	1386.2094	1432.3681	1449.0591	1477.976	1488.317	1492.7169	1501.1563	1515.5541	1543.4049	1626.4413	2966.4959	2975.8539	3059.392	3080.7025	3116.0471	3122.938	3236.7928	3280.0663	3699.4427
CN(C)C1=CC=NN1	CN(C)c1ccn[nH]1	
InChI=1S/C5H9N3/c1-8(2)5-3-4-6-7-5/h3-4H,1-2H3,(H,6,7)	InChI=1S/C5H9N3/c1-8(2)5-3-4-6-7-5/h3-4H,1-2H3,(H,6,7)
