13
gdb 25174	3.06448	1.51629	1.01438	7.7947	76.6	-0.2405	-0.0792	0.1613	1065.7602	0.092264	-415.695366	-415.688366	-415.687422	-415.727029	26.269	
O	-0.0698253109	-0.0786178556	 0.0040378	-0.36199
C	-0.0002602581	 1.1326408275	 0.0097278585	 0.394397
N	-1.1763877965	 1.9139476578	 0.02882089	-0.362297
C	-1.2342438139	 3.2678069882	 0.036644288	 0.051817
C	-0.0898852268	 4.0105072273	 0.0258744249	-0.170156
C	 1.1475355759	 3.3259194152	 0.0063829585	-0.125047
C	 1.2131117448	 1.9525937146	-0.0016657391	-0.035875
C	 2.4677217665	 1.2775575433	-0.0213964596	 0.25031
N	 3.5024448595	 0.7581853668	-0.0374631943	-0.331412
H	-2.0256032872	 1.3643819868	 0.0367988527	 0.274413
H	-2.2261786556	 3.7035525346	 0.0516282384	 0.15094
H	-0.1354739644	 5.0900036935	 0.0321071779	 0.124791
H	 2.0726874066	 3.8926618799	-0.0025554757	 0.140109
112.9897	151.9786	203.9	383.9837	395.2833	469.9054	489.6048	575.8846	590.1658	597.0703	717.8329	719.695	774.4755	809.2232	893.3888	947.1403	979.8839	1066.6086	1089.8988	1160.741	1220.8207	1249.4524	1343.8726	1441.9811	1496.2727	1582.3631	1654.8229	1795.4833	2342.6277	3193.2531	3208.4037	3240.6652	3599.5087
O=C1NC=CC=C1C#N	O=c1[nH]cccc1C#N	
InChI=1S/C6H4N2O/c7-4-5-2-1-3-8-6(5)9/h1-3H,(H,8,9)	InChI=1S/C6H4N2O/c7-4-5-2-1-3-8-6(5)9/h1-3H,(H,8,9)
