17
gdb 6458	3.70524	1.49012	1.33222	1.524	65.86	-0.2633	0.0234	0.2867	975.6033	0.14127	-401.004539	-400.996395	-400.995451	-401.037012	30.505	
C	-0.3869273539	 1.7151313868	-0.1825474765	-0.440718
C	-0.0688264555	 0.23412062	-0.1598779381	 0.381148
C	-1.2711396346	-0.6431115567	 0.1757325044	-0.097522
O	-1.7788140682	-0.3525599721	 1.461470003	-0.41615
C	 0.8659543054	-0.3122784335	-1.2642312722	-0.423825
C	 1.8250928322	-0.5709500937	-0.1236652083	 0.43842
N	 2.9732515414	-1.0646718934	-0.031255865	-0.539537
O	 0.9891419385	-0.0568214684	 0.8479670724	-0.30179
H	 0.5254510493	 2.3074705444	-0.2898712867	 0.126391
H	-1.0501672819	 1.9423369011	-1.0239788115	 0.124841
H	-0.8947006562	 2.0045366806	 0.7405312218	 0.14435
H	-2.0813492732	-0.4553339181	-0.5374625092	 0.116076
H	-0.9813929597	-1.701579431	 0.0855279225	 0.093379
H	-1.0493001293	-0.4870458174	 2.078598919	 0.294745
H	 0.5217430813	-1.2061668743	-1.7885235649	 0.13554
H	 1.214176874	 0.4247140493	-1.9898794934	 0.137451
H	 3.2991413306	-1.0677701935	 0.9368972424	 0.2272
79.3502	121.3703	218.9347	233.485	312.0328	329.1284	380.8544	443.78	459.4398	504.8153	531.2642	667.764	796.0502	864.6388	869.1738	892.871	944.7007	956.4357	985.8087	1017.6802	1075.9107	1088.839	1125.5666	1193.8942	1219.3651	1266.919	1295.3422	1304.4478	1388.3081	1413.21	1429.3135	1463.0694	1480.9876	1496.1776	1497.8242	1825.2786	2985.084	3043.3239	3074.0376	3081.9498	3114.7912	3133.8302	3136.6828	3475.2337	3791.2087
CC1(CO)CC(=N)O1	C[C@@]1(CO)C[C]([NH])O1	
InChI=1S/C5H9NO2/c1-5(3-7)2-4(6)8-5/h6-7H,2-3H2,1H3	InChI=1S/C5H9NO2/c1-5(3-7)2-4(6)8-5/h6-7H,2-3H2,1H3/t5-/m0/s1
