16
gdb 46080	3.55378	1.20655	1.02353	4.1799	64.46	-0.2629	0.0325	0.2954	1147.3897	0.126094	-475.040445	-475.032825	-475.031881	-475.073529	27.629	
O	 0.1102715729	-0.0055917787	 0.3224526095	-0.363164
C	 0.0356506517	 1.1712722301	 0.1840612342	 0.500188
O	-1.111501759	 1.8912253641	 0.2172843912	-0.23866
C	-0.8424976157	 3.2493661555	-0.1422596744	-0.120684
C	 0.6878888163	 3.3662832671	 0.004354565	 0.060153
O	 1.1027085076	 1.9932895571	-0.0326641464	-0.261849
C	 1.362978599	 4.1631879023	-1.086231777	-0.016872
C	 2.7340699405	 3.8371333114	-1.5389838675	-0.240588
N	 1.5722873429	 3.583169245	-2.4167285641	-0.318068
H	-1.1690792722	 3.4198509433	-1.173691807	 0.138642
H	-1.3937831388	 3.9082756798	 0.5301738468	 0.138545
H	 0.9569597484	 3.7749101554	 0.9866805701	 0.111116
H	 1.0405618335	 5.2036795455	-1.1002005895	 0.104404
H	 3.3958921334	 4.6313623192	-1.8705886655	 0.126727
H	 3.2238804856	 2.9824283501	-1.083206728	 0.138178
H	 1.360388094	 2.5873316127	-2.3844572874	 0.241933
72.15	87.4152	162.0885	203.5103	255.6445	403.6065	520.9363	601.2992	660.2424	728.8864	775.8767	805.9555	855.3188	895.2838	933.9328	960.0693	995.269	1035.1848	1077.8011	1096.073	1101.1682	1139.0593	1150.5352	1156.7002	1196.5308	1235.452	1270.9433	1301.4019	1348.1915	1365.4984	1412.7116	1429.9849	1508.3088	1523.5064	1933.1382	3027.3489	3053.3817	3117.2827	3123.5061	3125.6642	3213.7861	3488.3017
O=C1OCC(O1)C1CN1	O=C1OC[C@@H](O1)[C@H]1CN1	
InChI=1S/C5H7NO3/c7-5-8-2-4(9-5)3-1-6-3/h3-4,6H,1-2H2	InChI=1S/C5H7NO3/c7-5-8-2-4(9-5)3-1-6-3/h3-4,6H,1-2H2/t3-,4-/m1/s1
