23
gdb 118347	2.1216	1.04583	0.73793	3.6518	84.06	-0.2419	-0.0139	0.2281	1607.017	0.201947	-425.429733	-425.418352	-425.417408	-425.467061	39.742	
C	 0.0573831366	 1.3927520877	 0.0612620589	-0.229023
O	 0.0345311043	-0.0150334036	 0.0864591735	-0.231944
C	-1.2514417516	-0.5552189619	-0.1315990838	-0.093334
C	-1.1262718662	-2.0759733319	-0.0463513084	-0.070988
C	-0.4574283805	-2.4197793161	 1.2755268461	 0.176252
O	 0.4042646637	-3.2448541999	 1.4279004985	-0.25812
C	-2.4925351759	-2.815962614	-0.1283743983	 0.014011
C	-3.3493736392	-2.3405356179	-1.3122527137	-0.40098
C	-2.2874285517	-4.3365688517	-0.2009220329	-0.396504
H	 1.0893659868	 1.705555474	 0.2355024465	 0.133436
H	-0.2753849965	 1.7873894032	-0.9116022826	 0.106137
H	-0.5841271218	 1.8260530447	 0.8447719998	 0.105622
H	-1.9589643754	-0.1861648001	 0.633845294	 0.086421
H	-1.6397644374	-0.2411905551	-1.1113415933	 0.098007
H	-0.4718982854	-2.4320077154	-0.8499415586	 0.097955
H	-0.8721935538	-1.855504968	 2.1455490291	 0.067429
H	-3.0457091213	-2.5887464147	 0.7955050503	 0.076908
H	-3.6441947852	-1.2914035319	-1.2235216278	 0.11705
H	-2.8119831479	-2.4632277474	-2.2597214456	 0.119301
H	-4.2669439537	-2.9345253599	-1.3733657278	 0.116082
H	-1.667347252	-4.7094300536	 0.6177125189	 0.137074
H	-3.2510446801	-4.8543420201	-0.1642671678	 0.110843
H	-1.7942960958	-4.6145894265	-1.1394862049	 0.118364
48.2645	83.9874	85.977	102.9553	134.9231	222.137	226.8428	237.381	272.6332	311.9906	326.3529	339.7399	389.6399	442.6963	486.9442	593.9785	821.1805	890.8916	934.3805	946.4878	969.4275	979.9048	992.3227	1063.2302	1112.13	1151.5435	1161.6067	1171.2358	1186.4038	1192.2497	1230.3122	1256.1292	1268.191	1332.8443	1350.866	1371.9424	1403.5458	1415.3802	1426.771	1430.5368	1479.3452	1485.8684	1488.2218	1493.4318	1501.4599	1506.1069	1512.0677	1528.1551	1836.8815	2839.7253	2938.5407	2972.3763	2990.6121	3009.2048	3017.6502	3031.0552	3035.9242	3060.1593	3095.1727	3101.3161	3111.2552	3119.591	3124.5789
COCC(C=O)C(C)C	COC[C@@H](C=O)C(C)C	
InChI=1S/C7H14O2/c1-6(2)7(4-8)5-9-3/h4,6-7H,5H2,1-3H3	InChI=1S/C7H14O2/c1-6(2)7(4-8)5-9-3/h4,6-7H,5H2,1-3H3/t7-/m1/s1
