20
gdb 108935	4.14636	1.00749	0.92348	1.0703	82.49	-0.2227	0.0276	0.2503	1361.0299	0.171184	-403.164848	-403.155995	-403.155051	-403.199136	32.899	
C	 0.3585057358	 0.910820056	 0.7590669857	-0.379319
C	-0.3697875549	 0.362644959	-0.4791137342	-0.276745
C	 0.5691563616	-0.1527607803	-1.5198808193	 0.39535
N	 0.7036532975	 0.2814514763	-2.7083824598	-0.342596
C	 1.7288610361	-0.5296081815	-3.3256002469	 0.337708
C	 1.6025932899	-0.8815904462	-4.7833313136	-0.313404
C	 2.6576216214	 0.1002167294	-4.3274164699	-0.314559
C	 2.1922213875	-1.5227950235	-2.252118867	-0.17722
O	 1.3586051458	-1.1966381803	-1.1212833061	-0.264717
H	 0.9804473421	 0.1385050177	 1.2183904582	 0.135493
H	 1.003617717	 1.7530131947	 0.4911462653	 0.126863
H	-0.3636045722	 1.2592677124	 1.5025872012	 0.117824
H	-1.033142958	-0.4572283173	-0.1773520839	 0.121185
H	-0.9850624858	 1.134287703	-0.9462972969	 0.130284
H	 1.92083311	-1.8718218971	-5.0949599622	 0.109986
H	 0.7383844169	-0.4916857504	-5.3084741343	 0.126454
H	 2.5035685889	 1.1505216385	-4.5461754546	 0.126333
H	 3.6948056791	-0.2211512703	-4.3285087862	 0.110012
H	 2.0222968864	-2.5714529565	-2.5181064138	 0.115965
H	 3.2404097748	-1.3952622138	-1.9597884116	 0.115103
44.1826	84.9212	132.1593	197.7839	258.0051	275.1184	308.0503	404.9032	474.688	521.0469	638.3993	712.1941	774.8888	792.8482	839.1139	860.4835	901.4885	938.294	948.4795	971.2881	992.8873	1024.5378	1055.355	1068.7326	1081.5215	1094.3207	1108.417	1192.1257	1210.3652	1227.5024	1264.057	1292.7796	1340.2314	1375.5543	1393.4923	1409.4543	1454.3232	1472.5693	1495.7223	1497.056	1509.4277	1521.918	1730.6202	3031.5812	3039.2563	3046.3216	3073.5793	3109.1306	3117.6325	3126.0629	3129.7942	3132.7662	3214.7082	3228.8754
CCC1=NC2(CC2)CO1	CCC1=NC2(CC2)CO1	
InChI=1S/C7H11NO/c1-2-6-8-7(3-4-7)5-9-6/h2-5H2,1H3	InChI=1S/C7H11NO/c1-2-6-8-7(3-4-7)5-9-6/h2-5H2,1H3
