17
gdb 48204	2.64844	1.22626	1.00119	4.6756	73.33	-0.2529	-0.0486	0.2043	1214.0112	0.134917	-417.992441	-417.983502	-417.982558	-418.027097	31.171	
O	-0.6928364352	 0.7449671484	-0.5764712261	-0.213402
C	 0.0584794687	 1.0748937909	 0.2954099489	 0.164039
C	 1.3324285333	 1.9155191451	 0.0978957698	-0.227568
C	 1.4473936755	 2.443027886	-1.278473254	 0.293376
N	 1.5689997912	 2.9384868682	-2.3152375132	-0.326919
N	 1.4064167273	 2.9191614367	 1.1361964889	-0.083769
C	 0.5678037638	 4.144021571	 1.0681568359	-0.179997
C	 1.7385438192	 4.9272555691	 1.7098031579	-0.224697
C	 2.6346484155	 3.7325152409	 1.3020512949	-0.171786
H	-0.0872983925	 0.8042112931	 1.362077831	 0.108455
H	 2.1669790523	 1.215345562	 0.2597739043	 0.151771
H	 0.3636261232	 4.4692880119	 0.0386668091	 0.125235
H	-0.3748063004	 4.0768012425	 1.6190833077	 0.114788
H	 1.9804999588	 5.8948606842	 1.271976387	 0.120814
H	 1.6368889505	 5.0277978024	 2.7912632596	 0.120753
H	 3.3407725244	 3.3357566707	 2.0379089838	 0.112051
H	 3.1611716644	 3.9154702267	 0.3546535944	 0.116856
58.4638	90.0038	106.2497	147.0929	190.2802	217.2217	343.106	372.104	404.2226	557.2481	660.9016	729.4763	744.8444	830.4253	848.9874	924.1037	942.8911	982.0519	995.2557	1040.8797	1106.9802	1139.1112	1156.13	1203.0036	1215.9667	1226.4408	1265.6123	1275.0304	1295.8394	1331.4308	1353.2842	1393.5306	1490.1512	1503.8981	1529.8032	1849.8743	2351.7806	2924.3516	3001.742	3004.8382	3013.6152	3074.5927	3080.3095	3095.5273	3153.0811
O=CC(C#N)N1CCC1	O=C[C@@H](C#N)N1CCC1	
InChI=1S/C6H8N2O/c7-4-6(5-9)8-2-1-3-8/h5-6H,1-3H2	InChI=1S/C6H8N2O/c7-4-6(5-9)8-2-1-3-8/h5-6H,1-3H2/t6-/m1/s1
