18
gdb 71368	2.94998	1.95956	1.56165	1.5209	74.46	-0.2355	0.0701	0.3056	896.7672	0.149847	-401.864636	-401.85796	-401.857016	-401.895167	28.393	
O	-0.0017052825	 1.4266149494	 0.1416110935	-0.470028
C	 0.0514152579	 0.0392644881	 0.0507268838	 0.326758
C	 0.6719875253	-0.9774004516	 1.0136975868	-0.239561
N	 0.0216413867	-1.8732258949	-0.0332615595	-0.156148
C	-1.1861884956	-0.8818908784	-0.0297759288	-0.026321
C	-1.7667150706	-0.916109998	-1.4270367037	-0.055004
C	-1.4470257798	 0.2460403926	-2.336532347	-0.311005
C	-0.4847397645	-0.9150663623	-2.2405863428	-0.054837
C	 0.5300172803	-0.881207342	-1.119486625	-0.066309
H	 0.8996760789	 1.7680168615	 0.138902963	 0.281094
H	 1.7620663804	-1.0649596956	 1.0478047642	 0.09338
H	 0.2344627123	-1.0752616243	 2.0107696373	 0.102232
H	-1.847824344	-0.9810759357	 0.8317881771	 0.074656
H	-2.5944306727	-1.5780068055	-1.6484261966	 0.094459
H	-2.0270862353	 0.3055213349	-3.251900434	 0.107302
H	-1.1800934721	 1.2023580041	-1.9051882528	 0.138881
H	-0.3337164784	-1.5747973805	-3.0859419594	 0.094033
H	 1.5930468337	-0.9734788617	-1.3500298959	 0.066416
219.5182	244.8026	258.9269	377.0011	436.3511	457.449	509.9019	657.3952	681.2994	699.7122	765.1498	817.2223	820.061	829.199	901.4352	920.622	936.1496	964.8413	1010.0495	1016.4508	1037.8868	1043.4005	1077.4906	1090.8021	1097.5329	1112.1425	1120.4506	1139.129	1183.1579	1198.658	1235.3014	1265.5786	1289.2027	1316.0317	1338.1247	1358.986	1399.8558	1489.2781	1527.7547	3048.561	3101.5161	3111.8745	3114.4401	3139.1031	3185.5506	3194.3115	3233.8437	3801.5294
OC12CN3C1C1CC1C23	O[C@@]12CN3[C@@H]1[C@H]1C[C@H]1[C@@H]23	
InChI=1S/C7H9NO/c9-7-2-8-5(7)3-1-4(3)6(7)8/h3-6,9H,1-2H2	InChI=1S/C7H9NO/c9-7-2-8-5(7)3-1-4(3)6(7)8/h3-6,9H,1-2H2/t3-,4+,5+,6-,7-
