15
gdb 32055	3.56793	1.15806	0.8832	3.8584	72.51	-0.2342	-0.0576	0.1766	1232.0299	0.112962	-457.819382	-457.811537	-457.810592	-457.852126	29.093	
O	 0.5730523588	 0.6039356862	-0.8288878497	-0.398314
C	-0.1134746733	 0.2662514099	 0.3548972734	-0.151322
C	-1.465672983	-0.3530330364	 0.1036713415	 0.347831
C	-1.9397441834	-0.7535487932	-1.0974640398	-0.252906
C	-3.2475030759	-1.3245758146	-1.1442642548	-0.041081
C	-3.9868373765	-1.4615974751	-0.0155954184	-0.263284
C	-3.4803494646	-1.0390033179	 1.2723097672	 0.421391
O	-4.0180235011	-1.1025119484	 2.3431567512	-0.340274
O	-2.1797334359	-0.4758147944	 1.2350823911	-0.259507
H	 0.1203421679	 1.3515728171	-1.2331359906	 0.292597
H	 0.5163521751	-0.4573140454	 0.8863737085	 0.1489
H	-0.2434830364	 1.1229972065	 1.0329036033	 0.126426
H	-1.3193246192	-0.6509694461	-1.9757758189	 0.121937
H	-3.6492773649	-1.6524943024	-2.098304118	 0.121023
H	-4.9813931376	-1.8882878057	-0.0133747059	 0.126583
81.7388	156.1841	174.0762	200.0807	323.8011	370.7691	412.5808	481.026	545.1009	585.4985	619.5653	743.854	761.7875	824.7991	825.5484	876.2176	986.1277	992.3611	1014.4339	1046.8939	1093.2979	1109.5734	1191.0036	1207.3948	1228.5511	1348.3316	1397.154	1412.5719	1440.6296	1482.0661	1596.7417	1682.5191	1849.0911	3000.9871	3060.9063	3178.9991	3224.5097	3242.6814	3814.9349
OCC1=CC=CC(=O)O1	OCc1cccc(=O)o1	
InChI=1S/C6H6O3/c7-4-5-2-1-3-6(8)9-5/h1-3,7H,4H2	InChI=1S/C6H6O3/c7-4-5-2-1-3-6(8)9-5/h1-3,7H,4H2
