20
gdb 83990	2.35906	1.71194	1.37781	1.5645	81.25	-0.2124	0.0017	0.2141	1040.3472	0.172375	-403.107666	-403.09945	-403.098506	-403.140296	31.783	
C	-0.4742463353	 1.0574816167	-0.1287639226	-0.317646
N	-0.0323431462	-0.3129040791	 0.1136660295	-0.114979
C	 0.5003961069	-1.1293729418	-0.9680114816	-0.029369
C	 0.5639407017	-0.7207741352	-2.4296415681	-0.128653
O	 1.0824077786	 0.5555919161	-2.7252375766	-0.223358
C	 2.4851971825	 0.688375134	-2.5906949258	-0.140687
C	 2.9709405336	 0.9150475453	-1.1816088757	-0.072482
C	 2.5001430047	 0.35714483	-0.0651751245	-0.058352
C	 1.4163651996	-0.642279787	 0.1091352805	-0.065724
H	 0.1508683565	 1.634063721	-0.8170540721	 0.130569
H	-1.4899576045	 1.0205430164	-0.5364645679	 0.1172
H	-0.5222177737	 1.5765334185	 0.8340729713	 0.114586
H	 0.1865787585	-2.1745864548	-0.8960351615	 0.086157
H	 1.1308067058	-1.4990735735	-2.9705011052	 0.094072
H	-0.4539473494	-0.7227197236	-2.838246477	 0.116108
H	 2.9898046263	-0.1896009932	-3.0325048488	 0.102741
H	 2.7595332236	 1.5515577058	-3.2065621819	 0.114632
H	 3.8042636698	 1.6096999201	-1.0928803227	 0.09233
H	 2.9806986243	 0.6394028862	 0.8703971505	 0.09264
H	 1.6541117066	-1.354243612	 0.90015725	 0.090216
84.9713	159.6531	174.6378	225.2041	305.0804	347.5199	366.2282	410.8634	492.2009	524.6434	689.7704	710.0152	731.0796	758.9231	840.3819	858.6503	894.547	938.1173	1003.4207	1007.6391	1041.3641	1049.8943	1095.1678	1143.1616	1159.5145	1166.0101	1175.4205	1190.8609	1262.0779	1283.6449	1337.4365	1341.8836	1384.4586	1391.5639	1415.9213	1431.4425	1439.3065	1467.2573	1478.3442	1485.5778	1496.801	1504.0644	1728.7063	2944.9314	2951.4066	3028.8219	3050.4799	3061.2677	3063.5745	3089.4121	3095.1458	3104.214	3128.3366	3152.6764
CN1C2COCC=CC12	CN1[C@H]2COCC=C[C@@H]12	
InChI=1S/C7H11NO/c1-8-6-3-2-4-9-5-7(6)8/h2-3,6-7H,4-5H2,1H3	InChI=1S/C7H11NO/c1-8-6-3-2-4-9-5-7(6)8/h2-3,6-7H,4-5H2,1H3/t6-,7+,8?/m1/s1
