19
gdb 75451	1.99859	1.58951	1.32323	1.1888	83.39	-0.2379	0.0138	0.2517	1110.2277	0.157111	-385.872956	-385.863462	-385.862518	-385.906854	35.822	
C	-0.125149256	 1.4808039527	 0.0313374113	-0.513411
C	-0.0112944863	-0.0063792485	-0.0513415025	 0.302119
C	 0.0507033367	-0.7807057156	-1.1340635213	-0.170174
C	 0.1322911363	-2.2506352087	-0.808514912	-0.259308
C	 0.4521390782	-2.2510370521	 0.7020368632	-0.258077
C	 0.0254385147	-0.8536955785	 1.2257499829	 0.166009
O	 1.0182788816	-0.4053454011	 2.1577715923	-0.465079
C	-1.2945307217	-0.8570684161	 1.8702543898	 0.304127
C	-2.371227812	-0.819095877	 2.4060883957	-0.516743
H	 0.7155305258	 1.9020978701	 0.595068414	 0.130908
H	-0.1355520304	 1.9388676692	-0.9607869067	 0.12459
H	-1.0436209196	 1.775521177	 0.5546682173	 0.131714
H	 0.0188485405	-0.4095199083	-2.1536805958	 0.08942
H	-0.8211974683	-2.753055465	-1.0208211244	 0.112724
H	 0.8938983522	-2.7755003302	-1.3959963389	 0.105483
H	-0.0209287161	-3.0638946472	 1.2550230038	 0.108335
H	 1.5318369261	-2.3136122844	 0.8623033331	 0.123065
H	 0.6102888497	 0.2505882904	 2.7325095447	 0.28409
H	-3.3236473312	-0.8012489766	 2.8759978835	 0.200209
72.0755	131.5967	178.3752	184.1143	226.3054	242.0062	258.5841	330.0229	390.3019	471.4532	525.634	586.6474	619.5714	625.4528	657.1446	668.7625	694.2398	814.7558	866.2068	927.7179	956.4903	976.2516	1034.7805	1037.6938	1059.0513	1073.2552	1096.0733	1194.6148	1213.5044	1243.1641	1295.9394	1317.0415	1342.6603	1360.549	1406.7049	1477.1969	1479.5591	1494.9583	1497.6095	1728.8199	2221.5765	3016.444	3022.2927	3054.8796	3073.6438	3074.2425	3116.2525	3127.7117	3180.1215	3499.5458	3820.0494
CC1=CCCC1(O)C#C	CC1=CCC[C@]1(O)C#C	
InChI=1S/C8H10O/c1-3-8(9)6-4-5-7(8)2/h1,5,9H,4,6H2,2H3	InChI=1S/C8H10O/c1-3-8(9)6-4-5-7(8)2/h1,5,9H,4,6H2,2H3/t8-/m1/s1
