17
gdb 60958	4.02519	0.90335	0.85509	3.3064	69.87	-0.2455	-0.0499	0.1956	1340.8509	0.133287	-458.976848	-458.968075	-458.967131	-459.011086	32.022	
O	-0.1732289573	 1.3892253907	 0.165207767	-0.430046
C	-0.0281129481	 0.0028119191	 0.0214568007	 0.020342
C	 0.7567021171	-0.3110341857	-1.2371167066	 0.14526
O	 1.1746767699	 0.5634402307	-1.9570581509	-0.260338
C	 0.6552992466	-0.6190335033	 1.2479013004	-0.020797
C	 2.0246555111	-0.0052367596	 1.6801089863	-0.355219
C	 1.4802832091	 0.0352869162	 3.1158087391	 0.403604
O	 1.9878241471	 0.1442950896	 4.1925957186	-0.287239
C	 0.047707811	-0.246068205	 2.637040458	-0.360841
H	 0.2544113838	 1.7808861285	-0.6134424472	 0.299396
H	-1.0177271803	-0.4767645216	-0.0965444875	 0.100987
H	 0.929850076	-1.3837659519	-1.4582271753	 0.102552
H	 0.7191887269	-1.7037542324	 1.1200519862	 0.085836
H	 2.940543844	-0.5756022987	 1.511029502	 0.127942
H	 2.1476416075	 1.0096122742	 1.2868455082	 0.144303
H	-0.5329394974	 0.6806424599	 2.5864560562	 0.156682
H	-0.5196598471	-1.0031084806	 3.1828581647	 0.127575
64.0194	71.3534	117.8506	219.5611	243.3315	303.3726	352.6417	422.7238	468.5879	489.2949	593.0994	639.6066	672.6346	729.3362	786.4372	857.6456	909.471	931.5785	977.7289	1019.0587	1045.7801	1065.2644	1109.8211	1167.0256	1196.9475	1206.3013	1233.3538	1243.1062	1279.8413	1327.5653	1353.2577	1402.0616	1420.3821	1431.7396	1446.9201	1811.7718	1899.256	2928.6419	2944.8617	3058.1974	3064.3411	3066.2603	3123.8933	3126.1704	3684.0455
OC(C=O)C1CC(=O)C1	O[C@@H](C=O)C1CC(=O)C1	
InChI=1S/C6H8O3/c7-3-6(9)4-1-5(8)2-4/h3-4,6,9H,1-2H2	InChI=1S/C6H8O3/c7-3-6(9)4-1-5(8)2-4/h3-4,6,9H,1-2H2/t6-/m0/s1
