14
gdb 31919	6.02347	0.89043	0.78561	1.8121	76.93	-0.2343	-0.0395	0.1948	1365.0789	0.100264	-436.674494	-436.666301	-436.665356	-436.707815	29.53	
O	 0.4451646703	 0.8386564661	-0.691128838	-0.399785
C	-0.0194802022	-0.0327564932	 0.3195722703	-0.182038
C	-1.4454423468	-0.4206694043	 0.0953649259	 0.280523
C	-2.2837380085	-0.3577384483	-0.973272361	-0.193913
N	-3.5238778045	-0.851785471	-0.6151748644	-0.303912
C	-3.3930523038	-1.1922709008	 0.6341109357	 0.210343
O	-2.1431556396	-0.9512422381	 1.1382984972	-0.198562
C	-4.3513686005	-1.7572183386	 1.4993282557	 0.260516
C	-5.1667754957	-2.2395064172	 2.2403578807	-0.365669
H	-0.0834683642	 1.6431169459	-0.6513231894	 0.290825
H	 0.6313620699	-0.9144344584	 0.278073827	 0.142378
H	 0.0873731805	 0.3914507693	 1.3300819417	 0.118944
H	-2.0764265529	 0.0013532501	-1.967939074	 0.135617
H	-5.8912207721	-2.6661404116	 2.8896924825	 0.204732
58.5326	125.0577	148.2091	204.4701	250.8976	353.5616	403.8862	453.1489	559.8129	600.4198	618.6924	651.1398	695.4643	721.1679	746.9645	866.7065	971.5878	988.0599	1020.7918	1091.136	1139.1314	1194.4531	1230.092	1242.8883	1319.9096	1395.048	1424.4862	1497.3041	1550.6322	1616.3782	2243.8269	2988.3447	3053.1952	3276.1508	3500.9713	3808.2916
OCC1=CN=C(O1)C#C	OCc1cnc(o1)C#C	
InChI=1S/C6H5NO2/c1-2-6-7-3-5(4-8)9-6/h1,3,8H,4H2	InChI=1S/C6H5NO2/c1-2-6-7-3-5(4-8)9-6/h1,3,8H,4H2
