15
gdb 28097	4.74699	0.86048	0.77267	1.474	69.08	-0.2101	-0.047	0.1631	1396.0479	0.112361	-453.98215	-453.973861	-453.972917	-454.016426	29.541	
O	 0.1419960731	 1.3713809604	-0.2021209894	-0.431917
C	 0.0770924127	 0.026678068	-0.1216969012	 0.35233
C	 0.1358034943	-0.8662329316	-1.1620583075	-0.24236
N	 0.0144879282	-2.1130336759	-0.5565451963	 0.021007
C	 0.0904624955	-3.3874753022	-1.2268438055	-0.264704
C	 1.5077837283	-3.7239644424	-1.6959102503	 0.147868
O	 1.7392448369	-4.5140682732	-2.5689010541	-0.21981
C	-0.0950279795	-1.8948671166	 0.7789610126	 0.002089
N	-0.0662642122	-0.6103592804	 1.0764166944	-0.354968
H	 0.0669884028	 1.6996498415	 0.7023404486	 0.302643
H	 0.2281491642	-0.7461934006	-2.2269653885	 0.137398
H	-0.2241732406	-4.1697341732	-0.5260500764	 0.154934
H	-0.5868070678	-3.4270922978	-2.0855683393	 0.155769
H	 2.3101087197	-3.185275895	-1.1443543818	 0.105524
H	-0.2006362954	-2.7055603009	 1.4846533447	 0.134195
40.1664	71.5601	103.8949	263.0333	299.0658	382.9969	390.8906	423.406	456.6281	635.507	647.9804	670.6532	727.86	731.2131	796.6564	811.1005	1011.8092	1027.2442	1049.6701	1065.4642	1162.8573	1206.7788	1221.5372	1278.3311	1326.9991	1369.9868	1403.9617	1417.9146	1448.9182	1452.6637	1539.569	1657.3674	1844.6826	2896.1742	3047.9	3098.7286	3248.5646	3289.0035	3801.8356
OC1=CN(CC=O)C=N1	Oc1cn(CC=O)cn1	
InChI=1S/C5H6N2O2/c8-2-1-7-3-5(9)6-4-7/h2-4,9H,1H2	InChI=1S/C5H6N2O2/c8-2-1-7-3-5(9)6-4-7/h2-4,9H,1H2
