23
gdb 113372	2.51269	1.02166	0.84809	2.0819	81.84	-0.2586	0.0716	0.3302	1484.7963	0.203439	-425.411227	-425.400394	-425.39945	-425.447612	39.347	
C	-0.180000648	-0.8007266487	-3.6146037527	-0.36708
C	 0.0423055897	-0.5560476509	-2.1162192667	-0.284428
C	-1.246873583	-0.5929735606	-1.2847781581	 0.40391
C	-1.7902683597	 0.7551044182	-0.8339276315	-0.249544
C	-2.190404113	 1.6788904075	-1.9910042196	-0.384913
O	-2.2751586582	-1.4940466305	-1.7513897865	-0.307734
C	-1.6339874314	-1.7810626811	-0.4966030547	-0.024095
C	-0.8869644805	-3.0907013585	-0.4545242814	-0.090829
O	-1.7931660456	-4.1829233641	-0.4380666357	-0.418769
H	 0.7737063007	-0.7845433362	-4.1505646543	 0.109904
H	-0.6562256115	-1.7697770349	-3.7799460317	 0.12933
H	-0.8287751226	-0.0386294143	-4.0559044525	 0.122808
H	 0.7594844051	-1.2903201633	-1.7365090216	 0.105882
H	 0.5136744494	 0.4219640388	-1.9682721307	 0.101935
H	-2.6624466139	 0.5796203472	-0.1954537876	 0.103752
H	-1.0319460744	 1.2447616224	-0.2088914208	 0.098957
H	-1.3328956574	 1.946244045	-2.6161479138	 0.119196
H	-2.9374913791	 1.1953110106	-2.6273739175	 0.133295
H	-2.6215684506	 2.6091392337	-1.6093530438	 0.114752
H	-2.2816240456	-1.6246276245	 0.3690801953	 0.08915
H	-0.1915130195	-3.1652542589	-1.3014562579	 0.091926
H	-0.3031283808	-3.1618859506	 0.4700320246	 0.11022
H	-2.3570256203	-4.0816447463	-1.213545041	 0.292376
48.7562	74.9497	89.6549	168.9161	178.6073	205.2914	234.9949	264.6282	298.6305	335.8795	391.9931	411.966	465.0258	508.5759	640.0938	678.9604	776.5809	782.3833	817.7442	911.0962	935.3762	965.6909	1019.7184	1045.0739	1059.1802	1067.292	1089.9589	1117.9631	1127.0186	1139.3675	1219.0752	1237.4531	1279.3812	1310.5356	1332.6115	1356.7097	1366.3019	1391.7302	1408.2955	1411.3764	1424.094	1473.8656	1483.2662	1490.8964	1493.8908	1495.3377	1506.2255	1509.9526	1514.183	3010.857	3024.249	3040.6478	3044.5677	3047.7212	3068.5907	3071.0188	3075.9194	3089.7064	3108.4211	3115.6636	3116.5113	3129.8188	3799.1765
CCC1(CC)OC1CO	CCC1(CC)O[C@H]1CO	
InChI=1S/C7H14O2/c1-3-7(4-2)6(5-8)9-7/h6,8H,3-5H2,1-2H3	InChI=1S/C7H14O2/c1-3-7(4-2)6(5-8)9-7/h6,8H,3-5H2,1-2H3/t6-/m0/s1
