20
gdb 37282	4.20027	1.54145	1.47398	1.4993	81.12	-0.2239	0.0941	0.318	963.7494	0.175682	-365.970022	-365.963843	-365.962899	-366.000105	27.276	
C	 0.0127580532	 1.4629289229	-0.0389615937	-0.249784
C	 1.2899553234	 0.7083440455	 0.0499147204	-0.044254
C	 1.8553830378	 0.3336475177	 1.4153461887	-0.050294
C	 1.4602932147	-1.1955506882	 1.5011849612	 0.008203
C	 1.6754634702	-1.6058711632	 2.9545042631	-0.24397
C	 1.0656373065	-0.3523841063	 3.6506405125	-0.244209
C	 0.6691447099	 0.4703503259	 2.4196041252	-0.030543
C	 0.0290662873	-0.5603285991	 1.4305782604	 0.006927
N	-0.0146949251	-0.0093912064	 0.0505008089	-0.117597
H	-0.3303665206	 2.0674397209	 0.7928015731	 0.11465
H	-0.2960528787	 1.8344758574	-1.0124699801	 0.112444
H	 1.9208950534	 0.5930051454	-0.8277584884	 0.090972
H	 2.8591349321	 0.6764685222	 1.6728903691	 0.059915
H	 1.7716270468	-1.8791097934	 0.7097796719	 0.067674
H	 1.15012525	-2.5312438217	 3.2093115972	 0.099563
H	 2.7331936194	-1.7514146497	 3.193657522	 0.098139
H	 0.1989700935	-0.5954844766	 4.2735452383	 0.097913
H	 1.7858771103	 0.175753393	 4.2830593682	 0.097449
H	 0.2084380846	 1.4353718198	 2.6276605192	 0.060178
H	-0.8673264588	-1.1249011961	 1.6929943328	 0.066623
244.6436	293.5614	315.0814	374.6092	508.6831	592.6636	655.4415	678.875	769.6323	792.9008	813.9508	832.4147	902.4949	906.2496	920.4851	936.7244	947.4254	969.1619	1009.8992	1018.5399	1029.7793	1041.3832	1050.9789	1084.8111	1095.9235	1110.3396	1118.1207	1156.5134	1190.5246	1210.4269	1229.1211	1241.8924	1256.6714	1260.7792	1263.9141	1272.3257	1293.2048	1318.7939	1354.0307	1387.2757	1491.9878	1502.0654	1512.9651	3043.3644	3053.3797	3076.409	3095.5385	3097.5356	3100.0496	3107.9731	3113.3038	3124.4966	3138.8663	3207.3897
C1C2C3C4CCC3C4N12	C1[C@H]2[C@@H]3[C@H]4CC[C@@H]3[C@H]4N12	
InChI=1S/C8H11N/c1-2-5-7-4(1)8(5)9-3-6(7)9/h4-8H,1-3H2	InChI=1S/C8H11N/c1-2-5-7-4(1)8(5)9-3-6(7)9/h4-8H,1-3H2/t4-,5+,6-,7-,8+,9?/m0/s1
