18
gdb 33140	3.2059	1.02788	0.786	1.855	75.65	-0.1876	0.0551	0.2427	1427.5259	0.14698	-439.098211	-439.08868	-439.087736	-439.133908	33.949	
C	-0.0123493647	 1.3989588328	-0.0228229309	-0.219037
O	 0.0202936024	-0.0055967719	-0.0226421372	-0.235321
C	-1.2695031691	-0.5806513069	 0.0236337804	-0.171907
C	-1.140997387	-2.0693406552	 0.0212823023	 0.170298
C	 0.0211928066	-2.8070116948	-0.0178457997	-0.146786
N	-0.3104963783	-4.1333529957	-0.0046889707	-0.249319
C	-1.6832838774	-4.2761126749	 0.042889306	-0.212966
C	-2.2120103507	-3.0049822864	 0.0594865469	 0.209057
O	-3.5215273294	-2.6098838713	 0.104200366	-0.451981
H	 1.0214174865	 1.7519668627	-0.059689963	 0.122348
H	-0.5547078637	 1.7967886525	-0.8958939305	 0.102012
H	-0.4917641573	 1.798467666	 0.8855960298	 0.102013
H	-1.8090397633	-0.2369905509	 0.924634868	 0.09606
H	-1.8711690175	-0.2396443733	-0.8381757757	 0.096079
H	 1.044582018	-2.4752956138	-0.0535540514	 0.129494
H	 0.344553179	-4.8930306544	-0.0264717589	 0.259385
H	-2.1549093389	-5.2449970542	 0.0605071563	 0.107033
H	-4.0828562751	-3.3904280104	 0.1241417123	 0.293538
20.9135	80.3857	122.2406	222.7128	233.7259	253.0809	281.9906	299.7397	353.9177	387.1738	517.733	602.0322	623.3689	648.0197	694.1406	761.1027	798.6943	914.7176	991.6369	1050.3652	1073.516	1101.7645	1163.8969	1166.2302	1185.1972	1221.8446	1241.2705	1246.8297	1278.1091	1352.2998	1415.7784	1460.7191	1480.5154	1483.5982	1484.1295	1503.8951	1525.901	1583.0369	1641.8609	2934.5472	2946.307	2966.253	3006.8805	3109.5097	3260.7393	3285.6579	3701.5733	3837.2246
COCC1=CNC=C1O	COCc1c[nH]cc1O	
InChI=1S/C6H9NO2/c1-9-4-5-2-7-3-6(5)8/h2-3,7-8H,4H2,1H3	InChI=1S/C6H9NO2/c1-9-4-5-2-7-3-6(5)8/h2-3,7-8H,4H2,1H3
