13
gdb 45931	3.0068	1.50605	1.02679	3.4547	62.2	-0.2755	-0.0637	0.2118	1055.562	0.089988	-489.944358	-489.936753	-489.935808	-489.977459	27.239	
N	-0.0213787134	 1.2329321248	 0.4175919377	-0.432661
C	-0.0637315866	 0.055880622	-0.0157397774	 0.288245
O	 1.0552644038	-0.5239281744	-0.6106647526	-0.23046
C	 1.1955689014	-1.8664518193	-0.8307742926	 0.421477
O	 2.1917205834	-2.279910163	-1.3407064644	-0.290441
C	 0.0719156003	-2.760199517	-0.3422977149	-0.306255
N	-1.19801221	-2.0733626187	-0.2589201984	-0.344933
C	-1.3532683626	-0.7493513449	 0.03346596	 0.372986
O	-2.4186183388	-0.2364218894	 0.2807766712	-0.323447
H	 0.9118234956	 1.631796706	 0.2937193559	 0.248459
H	 0.0059299547	-3.5962253505	-1.0417078985	 0.16901
H	 0.3911471901	-3.1746780727	 0.6270444146	 0.159402
H	-2.041054058	-2.6240510929	-0.1798185207	 0.268618
50.9841	100.1522	134.2707	340.4714	390.874	405.061	447.3748	476.8166	561.7112	605.3656	618.101	681.3171	792.452	814.2367	886.4915	943.1136	1010.7082	1054.2745	1107.3939	1170.1074	1251.862	1305.3018	1338.9234	1387.7105	1469.4971	1505.814	1760.2627	1821.7481	1882.0886	2989.119	3108.847	3475.9602	3611.7792
N=C1OC(=O)CNC1=O	[NH][C]1OC(=O)CNC1=O	
InChI=1S/C4H4N2O3/c5-3-4(8)6-1-2(7)9-3/h5H,1H2,(H,6,8)	InChI=1S/C4H4N2O3/c5-3-4(8)6-1-2(7)9-3/h5H,1H2,(H,6,8)
