19
gdb 90669	4.58311	1.03656	1.01211	2.3632	75.81	-0.2348	0.0711	0.3059	1245.9855	0.158596	-422.954655	-422.946462	-422.945518	-422.987642	30.932	
C	-0.0744394947	 1.429570514	-0.0404048867	-0.401564
C	 0.0054613008	-0.0726635042	 0.1298867003	 0.139507
O	 0.9802750036	-0.6571242474	-0.7951622375	-0.303291
C	 1.8024313692	-1.0563606011	 0.3013781346	 0.017872
C	 0.8056809093	-0.5694705467	 1.3364106758	-0.238656
C	 1.0916972823	-2.0370985308	 1.1652831891	 0.279115
C	 0.2140213826	-3.2213242877	 0.7797259982	-0.140788
O	 0.9101919743	-4.0607984257	 1.7331329987	-0.277216
C	 1.7285874502	-2.9659383294	 2.1951108326	-0.154314
H	 0.9063369739	 1.8896145182	 0.1117266416	 0.124693
H	-0.421835713	 1.6763058866	-1.0480039766	 0.130281
H	-0.7788963616	 1.8576134516	 0.6815116122	 0.116663
H	-0.9811740432	-0.5340413177	-0.0082521787	 0.083948
H	 2.8788505638	-0.9655580829	 0.1985417666	 0.103934
H	 0.9428160479	-0.0394524896	 2.2710717376	 0.099062
H	-0.8529950771	-3.1286483072	 1.0226825224	 0.099802
H	 0.3225763518	-3.5809446849	-0.249890188	 0.115671
H	 2.8009183654	-3.1689520888	 2.0741112798	 0.104493
H	 1.5276557445	-2.7188605062	 3.2466564481	 0.100786
82.5946	118.8661	174.4182	221.2525	252.2299	286.7845	378.8553	418.0072	519.9574	627.635	776.4027	811.5064	848.4787	864.412	894.588	909.7391	967.3822	981.6054	1011.2195	1025.824	1029.4455	1037.0006	1080.4868	1105.0798	1109.4367	1134.1178	1148.841	1168.3748	1181.8589	1220.3335	1250.2921	1301.5528	1309.7949	1363.932	1383.598	1406.2472	1455.9752	1484.0503	1491.1891	1510.3354	1534.401	2994.8613	3008.9607	3020.6982	3035.4934	3036.9669	3060.3603	3107.3276	3120.1096	3165.1804	3187.7255
CC1OC2C1C21COC1	C[C@H]1O[C@H]2[C@@H]1C12COC1	
InChI=1S/C7H10O2/c1-4-5-6(9-4)7(5)2-8-3-7/h4-6H,2-3H2,1H3	InChI=1S/C7H10O2/c1-4-5-6(9-4)7(5)2-8-3-7/h4-6H,2-3H2,1H3/t4-,5-,6+/m1/s1
