19
gdb 72136	2.11837	1.99121	1.77214	0.6225	73.95	-0.2213	0.0607	0.282	924.6525	0.160614	-422.992353	-422.984916	-422.983972	-423.023493	31.242	
O	 0.0764492224	 1.3901562726	 0.0910656361	-0.492712
C	 0.0285626949	 0.0055239382	-0.0315611542	 0.365135
C	 0.480097208	-0.7999141722	-1.2549754279	-0.320047
C	-0.2791236506	-1.9539828541	-0.53263197	-0.082884
C	 0.6204103058	-2.1850975309	 0.7008158173	-0.207293
C	 0.3610637808	-0.7861611288	 1.3005526303	-0.082882
C	-1.1664733002	-0.8595284336	 1.6027504769	-0.320051
C	-1.2735545211	-0.879218242	 0.0738643319	 0.365129
O	-2.4397633467	-0.6908264182	-0.6603078622	-0.492712
H	-0.286858917	 1.7712842676	-0.7157604969	 0.280253
H	-0.0508133372	-0.4669505678	-2.152411109	 0.097369
H	 1.5445958415	-0.9337588491	-1.4711223173	 0.089643
H	-0.6638249856	-2.8085828393	-1.0853445656	 0.072475
H	 0.2831342204	-2.9885601399	 1.3617711086	 0.094417
H	 1.662060475	-2.3723885833	 0.4250324597	 0.094418
H	 1.0600985514	-0.3737045351	 2.0251609656	 0.072476
H	-1.5386428625	-1.6995072611	 2.1974915662	 0.089644
H	-1.5447878298	 0.0864178011	 2.0029832419	 0.097368
H	-2.8946819696	 0.0785159559	-0.3006150214	 0.280254
185.4843	250.0884	274.2685	296.9176	360.0357	383.0233	443.1495	473.8242	529.9991	590.0932	650.1614	673.7731	703.3682	816.9328	867.0585	867.8945	925.8472	927.0226	938.0485	984.1619	1023.4572	1046.7661	1059.1994	1078.0219	1091.6124	1107.8414	1135.0626	1162.4629	1181.9076	1217.2643	1237.8092	1242.7747	1266.8271	1286.9282	1322.385	1342.6057	1366.2741	1379.2752	1486.8523	1489.5968	1518.0651	3042.3099	3042.7353	3052.8128	3095.4276	3101.3998	3102.8726	3138.8627	3139.1142	3800.1649	3801.4165
OC12CC3CC1CC23O	O[C@@]12C[C@H]3C[C@@H]1C[C@@]23O	
InChI=1S/C7H10O2/c8-6-2-4-1-5(6)3-7(4,6)9/h4-5,8-9H,1-3H2	InChI=1S/C7H10O2/c8-6-2-4-1-5(6)3-7(4,6)9/h4-5,8-9H,1-3H2/t4-,5-,6+,7+/m1/s1
