20
gdb 114370	2.43172	1.21685	0.95813	3.4768	81.	-0.2457	-0.0345	0.2112	1301.4413	0.170138	-403.106324	-403.097342	-403.096398	-403.140612	33.28	
C	 1.3014366137	 0.2445387042	 1.2238835795	-0.382185
C	 0.2882620011	 0.4755364635	 0.0961871588	-0.207114
C	 0.6664385443	-0.2759885902	-1.1705591493	 0.086949
C	 0.5507735537	-1.8219274595	-1.3187397883	-0.298511
C	-0.2305553668	-1.5317942556	-2.6030675475	-0.044396
C	-1.4685622983	-0.738986498	-2.3727666475	-0.08163
C	-2.3748290791	-0.9278764392	-1.2058984746	 0.137994
O	-3.5576765314	-0.6893917622	-1.2661422367	-0.263391
N	-0.1445692306	-0.0397120989	-2.4265472431	-0.167685
H	 1.3580333514	-0.8143606149	 1.4991734138	 0.119772
H	 2.3060180665	 0.5646968239	 0.9270446806	 0.120056
H	 1.0237193513	 0.8050302006	 2.1208802591	 0.122233
H	-0.710968333	 0.195474452	 0.4432353101	 0.102559
H	 0.2386026361	 1.5432083649	-0.1510106047	 0.117379
H	 1.6816923469	 0.0291082075	-1.4470789882	 0.09597
H	 1.5093281967	-2.3111458512	-1.4978306288	 0.118507
H	 0.0258729016	-2.3762038466	-0.5364196766	 0.11412
H	-0.0505155754	-2.0037302533	-3.56413307	 0.107867
H	-2.0370688132	-0.485925724	-3.2637493801	 0.120149
H	-1.9315087958	-1.3483677229	-0.2822921665	 0.081358
63.5117	76.6813	144.2957	206.2038	226.6801	272.137	319.5862	371.459	429.3357	466.5313	558.1019	721.6134	744.3679	783.4167	794.4483	833.7961	915.6675	946.0904	978.1161	988.1407	1006.2357	1047.2889	1074.7854	1086.1432	1109.08	1141.9846	1144.2567	1200.7873	1241.8536	1264.9409	1280.3787	1299.3295	1321.2469	1348.5185	1368.0125	1403.8313	1414.3737	1450.7785	1484.6759	1499.8075	1502.373	1507.1634	1800.0797	2932.5857	3032.379	3039.3336	3040.0727	3067.7629	3079.1747	3102.9108	3111.696	3122.17	3152.8966	3163.0389
CCC1CC2C(C=O)N12	CC[C@H]1C[C@H]2[C@@H](C=O)N12	
InChI=1S/C7H11NO/c1-2-5-3-6-7(4-9)8(5)6/h4-7H,2-3H2,1H3	InChI=1S/C7H11NO/c1-2-5-3-6-7(4-9)8(5)6/h4-7H,2-3H2,1H3/t5-,6-,7+,8?/m0/s1
