15
gdb 24092	7.52352	0.79695	0.72383	3.0844	74.61	-0.2014	0.0263	0.2278	1472.3335	0.112615	-416.794056	-416.785768	-416.784824	-416.827978	30.034	
C	-0.0127109777	-1.1619790245	-0.0041685685	-0.415962
C	 0.0218760313	 0.038195329	 0.0024095179	 0.298758
C	 0.0154000366	 1.4935964033	 0.0109115899	-0.24017
O	 1.36778415	 1.9590069064	-0.0026035931	-0.280489
C	 1.5108018949	 3.301855384	 0.0034382079	 0.389532
C	 2.7106049382	 3.9710736514	-0.0070735871	-0.220987
N	 2.3491680967	 5.3073936685	 0.0049744299	-0.234768
C	 0.996500481	 5.3713327068	 0.021554909	 0.015936
N	 0.4548355131	 4.1676430608	 0.0210980113	-0.334593
H	-0.0375925122	-2.2234578474	-0.0100807714	 0.198292
H	-0.5252875796	 1.8845392103	-0.8601994181	 0.142984
H	-0.5041984345	 1.8743507016	 0.8992007014	 0.142981
H	 3.7328762763	 3.6393006126	-0.0212377372	 0.134085
H	 2.9832123358	 6.088014487	 0.0018740317	 0.269584
H	 0.4561685102	 6.3052533802	 0.0334246964	 0.134818
43.867	72.5924	116.4588	235.8505	314.2714	339.8725	428.1151	507.9269	516.4265	604.7976	650.0139	664.1474	677.0704	732.0664	763.7652	790.2078	946.3712	975.0157	987.7467	1016.9745	1064.605	1088.0679	1152.0208	1247.9695	1247.9995	1325.1806	1352.1105	1392.8812	1482.454	1492.888	1518.1992	1623.1278	2249.5879	3022.6628	3051.7295	3258.8083	3297.9177	3507.4237	3673.0462
C#CCOC1=CNC=N1	C#CCOc1c[nH]cn1	
InChI=1S/C6H6N2O/c1-2-3-9-6-4-7-5-8-6/h1,4-5H,3H2,(H,7,8)	InChI=1S/C6H6N2O/c1-2-3-9-6-4-7-5-8-6/h1,4-5H,3H2,(H,7,8)
