19
gdb 105494	1.96081	1.56336	1.23194	3.744	71.55	-0.2225	0.0128	0.2353	1126.7293	0.158514	-456.333648	-456.323821	-456.322877	-456.369095	35.096	
C	-1.5611460173	-0.2406311406	-0.0517536488	-0.333625
N	-0.1141519829	-0.0239741863	 0.0326782057	-0.325654
C	 0.6650996889	-0.5896209685	-1.065854216	 0.159472
C	 2.1844976911	-0.6654876163	-0.7704800893	-0.11801
O	 2.1803068541	-2.0964475338	-0.8762815318	-0.270987
C	 0.746723636	-2.1300564438	-1.0629065715	-0.090443
C	 0.2403211853	-0.0010674523	-2.4199147163	 0.336021
N	 0.7748253554	 1.2255417514	-2.7159924866	-0.53027
O	-0.6021890789	-0.5301463782	-3.1194686824	-0.363254
H	-2.0361665327	 0.1617978858	-0.9579160707	 0.125368
H	-1.7676212238	-1.3149138477	-0.02111671	 0.133156
H	-2.0301135665	 0.2142888245	 0.82512049	 0.119441
H	 0.0715792843	 0.9734049337	 0.0918232248	 0.217636
H	 2.8593118996	-0.20662985	-1.5057271486	 0.08699
H	 2.4443803091	-0.319000952	 0.2375026377	 0.102623
H	 0.237432965	-2.5991887945	-0.2141245497	 0.102936
H	 0.4562560426	-2.616995976	-1.9972959398	 0.126988
H	 1.6143394238	 1.552857863	-2.2692900465	 0.258552
H	 0.542241377	 1.6224986614	-3.6130784801	 0.263059
47.0563	61.4333	105.1782	178.2647	209.7454	226.4631	278.2075	317.4237	346.4781	396.5322	487.2085	524.3132	552.0673	659.2121	758.1134	771.9563	831.2814	877.4911	967.2702	984.377	1041.3315	1053.8803	1066.0176	1098.1152	1145.3975	1164.0018	1172.6866	1189.6032	1204.581	1252.8101	1313.0647	1352.0945	1381.6305	1457.4433	1474.1188	1492.8871	1499.3615	1518.1393	1524.5575	1615.1797	1785.1036	2999.7787	3000.9709	3039.1898	3050.9543	3077.7265	3104.8937	3113.2507	3500.348	3590.0038	3720.2836
CNC1(COC1)C(N)=O	CNC1(COC1)C(=O)N	
InChI=1S/C5H10N2O2/c1-7-5(4(6)8)2-9-3-5/h7H,2-3H2,1H3,(H2,6,8)	InChI=1S/C5H10N2O2/c1-7-5(4(6)8)2-9-3-5/h7H,2-3H2,1H3,(H2,6,8)
