13
gdb 133158	2.35058	1.79805	1.02521	3.7069	63.09	-0.2521	-0.0567	0.1954	1031.9085	0.08778	-502.020286	-502.01278	-502.011835	-502.052955	27.052	
C	-0.0196229589	 1.5499793761	 0.0003204539	-0.512
C	 0.001996685	 0.0510621006	 0.0279415496	-0.019321
C	 0.0317017124	-0.7301875682	-1.1368773177	 0.326075
F	 0.0402632343	-0.0848320213	-2.2974837445	-0.053453
N	 0.0523860838	-2.0396310383	-1.212199148	-0.254844
N	 0.0452931707	-2.7459024131	-0.0781829976	-0.193329
C	 0.017621266	-2.1093671039	 1.0836816503	-0.085021
C	-0.0044540646	-0.7150597571	 1.1735721047	 0.243921
F	-0.0320178266	-0.1376748551	 2.3707442204	-0.057613
H	 0.8709004779	 1.9397773802	-0.5025473904	 0.157698
H	-0.8873891867	 1.9132114497	-0.5586845271	 0.157584
H	-0.0573048615	 1.9553337058	 1.0117405163	 0.14944
H	 0.0125931581	-2.7200988954	 1.98018657	 0.140863
59.8116	138.921	245.9563	260.6635	290.5795	335.2695	485.0254	541.0774	555.0062	581.9329	655.5968	694.5741	779.1942	854.2238	928.5972	950.9393	1061.5371	1126.4395	1142.1373	1229.1236	1250.5992	1343.5662	1408.8702	1416.2245	1469.7483	1485.2729	1495.0349	1602.2362	1637.8153	3050.3911	3106.0138	3152.5872	3195.9306
CC1=C(F)N=NC=C1F	Cc1c(F)nncc1F	
InChI=1S/C5H4F2N2/c1-3-4(6)2-8-9-5(3)7/h2H,1H3	InChI=1S/C5H4F2N2/c1-3-4(6)2-8-9-5(3)7/h2H,1H3
