19
gdb 112850	3.16597	1.18002	0.97012	2.1391	70.98	-0.2545	0.0739	0.3285	1245.0936	0.158828	-460.135937	-460.127271	-460.126327	-460.16956	32.4	
C	 0.1067017459	 1.3386165063	 0.1128815711	-0.235458
O	-0.1096761468	-0.0421967777	-0.0728178971	-0.248575
C	 0.5518287186	-0.5790133151	-1.1951939089	 0.132128
C	 2.087196755	-0.725438582	-1.0564777209	-0.301426
C	 2.4747324365	-1.9500242891	-1.926991318	 0.128143
O	 3.6228540861	-2.6438080258	-1.4813906022	-0.437727
C	 1.21133154	-2.7965993647	-1.934251932	-0.005899
O	 0.6944287229	-2.9782220762	-0.6053557593	-0.26338
C	 0.081442869	-1.9976121032	-1.4534394322	 0.01251
H	 1.1578518435	 1.5696997811	 0.3386513511	 0.110491
H	-0.1910783698	 1.9190356037	-0.7751431037	 0.102825
H	-0.5090059141	 1.6500535397	 0.9598693339	 0.130495
H	 0.3083380322	 0.0226293453	-2.0898355145	 0.066339
H	 2.639599515	 0.1712110586	-1.3419787522	 0.105294
H	 2.3119576134	-0.948098966	-0.0095714031	 0.120389
H	 2.7042235168	-1.6390334574	-2.9528544497	 0.092616
H	 3.4066622666	-3.0108736041	-0.6156666913	 0.288447
H	 1.1084539561	-3.6477081602	-2.6020548812	 0.101132
H	-0.9525464668	-2.1937879632	-1.7227706498	 0.101656
84.0069	100.0289	151.1666	184.4502	236.1496	336.0423	372.4509	406.6023	442.3418	480.9148	570.5345	645.5883	680.7047	828.3257	846.4285	885.4258	909.7956	973.481	999.0414	1027.6678	1064.5774	1096.6551	1103.2437	1109.7006	1154.3844	1174.862	1186.0159	1223.8878	1249.3708	1259.2451	1302.7482	1328.1642	1328.7339	1342.7242	1392.4016	1433.4054	1438.0197	1478.7197	1482.3092	1491.9345	1509.6854	2939.159	2974.0603	3026.0901	3048.199	3070.4264	3116.6955	3126.1452	3151.7259	3164.6592	3788.4255
COC1CC(O)C2OC12	CO[C@H]1C[C@@H](O)[C@H]2O[C@@H]12	
InChI=1S/C6H10O3/c1-8-4-2-3(7)5-6(4)9-5/h3-7H,2H2,1H3	InChI=1S/C6H10O3/c1-8-4-2-3(7)5-6(4)9-5/h3-7H,2H2,1H3/t3-,4+,5-,6+/m1/s1
