14
gdb 132839	3.08147	1.47736	0.9986	4.1743	74.76	-0.2534	-0.0657	0.1877	1087.8572	0.101516	-444.729329	-444.722214	-444.72127	-444.761161	26.757	
F	-0.0884235549	 0.0167472978	 0.0063994895	-0.042853
C	-0.0560143023	 1.3426129743	 0.0118945082	 0.240972
C	-1.2605662713	 2.0305514713	 0.0303381036	-0.224897
C	-1.2516854356	 3.4227843642	 0.0364191841	-0.102111
C	-0.0461198294	 4.1237526635	 0.0240911735	-0.113168
C	 1.1488095279	 3.4180134262	 0.0056314537	-0.17966
C	 1.173569904	 2.0172000943	-0.0008438174	 0.062322
C	 2.486657869	 1.3341336165	-0.0205600369	 0.084848
O	 2.6787984794	 0.1429437401	-0.0275632117	-0.259556
H	-2.1846108138	 1.4647420059	 0.0396179224	 0.120993
H	-2.1939206406	 3.9600682434	 0.050863547	 0.117205
H	-0.0427319849	 5.2074612933	 0.0288588697	 0.109673
H	 2.0973538296	 3.9476609124	-0.0042179949	 0.115273
H	 3.3395854029	 2.0522165868	-0.028964961	 0.070958
93.8935	201.6609	207.8601	277.4388	410.4534	421.5787	450.8326	555.2725	566.9651	668.3079	740.7296	769.1331	784.4553	886.4625	888.7877	950.8039	984.3497	1039.6612	1056.9334	1136.3576	1178.1791	1216.3958	1271.0751	1302.6851	1351.2802	1440.3321	1485.6224	1521.6431	1618.1128	1647.9545	1808.9721	2858.6113	3167.8451	3185.5736	3203.3961	3210.7221
FC1=CC=CC=C1C=O	Fc1ccccc1C=O	
InChI=1S/C7H5FO/c8-7-4-2-1-3-6(7)5-9/h1-5H	InChI=1S/C7H5FO/c8-7-4-2-1-3-6(7)5-9/h1-5H
