15
gdb 27187	3.21389	1.38192	1.04545	1.7604	69.98	-0.2077	0.0015	0.2092	1107.3842	0.113416	-453.935074	-453.927484	-453.92654	-453.967747	28.26	
O	-0.2162113153	 1.3824548324	 0.0775597278	-0.423762
C	-0.0240119392	 0.0523319083	 0.0084365626	 0.246905
C	 0.208229843	-0.7044199214	-1.0972406944	 0.288219
O	 0.3378220255	-2.0184094648	-0.6420161784	-0.183996
C	 0.1732872001	-1.9381889489	 0.6879696916	 0.073013
N	-0.0440509445	-0.7425579166	 1.1378591032	-0.335481
N	 0.3200145342	-0.3940487003	-2.4399630074	-0.183569
C	 1.2753876717	-1.1308330765	-3.278209141	-0.226725
C	-0.1894374003	-1.3343163357	-3.4472087069	-0.226721
H	-0.3524652749	 1.5902743053	 1.0098173165	 0.305093
H	 0.2356728685	-2.8567490615	 1.250261534	 0.150383
H	 1.8291164299	-0.5196769964	-3.9846764278	 0.12686
H	 1.8390407506	-1.9327691239	-2.8104193082	 0.131458
H	-0.6062592448	-2.2724576763	-3.092553085	 0.131466
H	-0.7147523945	-0.8730608038	-4.2781802966	 0.126856
55.0811	164.2821	166.6996	299.6581	302.3946	352.7945	462.8804	535.8144	584.7567	662.5184	723.9131	729.8368	813.4027	821.5583	847.3293	907.5701	954.4468	1036.0658	1044.1832	1101.9131	1129.9668	1129.9833	1167.5991	1180.4621	1206.7055	1254.6658	1318.9684	1374.4879	1427.3167	1484.863	1510.527	1553.6024	1749.9863	3114.5176	3118.0288	3200.7812	3215.7852	3270.6239	3807.9035
OC1=C(OC=N1)N1CC1	Oc1c(ocn1)N1CC1	
InChI=1S/C5H6N2O2/c8-4-5(7-1-2-7)9-3-6-4/h3,8H,1-2H2	InChI=1S/C5H6N2O2/c8-4-5(7-1-2-7)9-3-6-4/h3,8H,1-2H2
