17
gdb 7211	4.16316	1.12378	0.8999	3.8024	77.92	-0.2371	-0.0136	0.2235	1293.9204	0.139559	-363.867583	-363.857561	-363.856617	-363.904214	32.933	
C	-0.0868058679	 1.5016217467	 0.0737605648	-0.506451
C	 0.0164771284	 0.0526680663	 0.0170570024	 0.150237
C	 0.0988552484	-1.1495685367	-0.0300848257	-0.072911
C	 0.0313599907	-2.6021292068	-0.0916656529	 0.289712
O	-1.0488894408	-3.1706911408	-0.1449514882	-0.375247
N	 1.2311967711	-3.2679549382	-0.0857790938	-0.089842
C	 1.2286071922	-4.7177089879	-0.1455097842	-0.347336
C	 2.5263840801	-2.6244691759	-0.0235215979	-0.336053
H	 0.4267959196	 1.9662560539	-0.7749740296	 0.156373
H	-1.1330444816	 1.8241161375	 0.0517518897	 0.161483
H	 0.3669344385	 1.8927545631	 0.9909131224	 0.156447
H	 1.7680620908	-5.0682124833	-1.0346582295	 0.121446
H	 1.718995546	-5.1412366215	 0.740260674	 0.121447
H	 0.1953710457	-5.0582501034	-0.1880910084	 0.17154
H	 2.4024142278	-1.5430800932	 0.0176143351	 0.15164
H	 3.0797608359	-2.9505832491	 0.8670917254	 0.123759
H	 3.1287258151	-2.8775221907	-0.9060865737	 0.123757
17.0771	78.4983	96.2563	110.0068	157.7942	185.8588	236.395	291.9971	363.6528	388.4558	394.3142	462.204	584.9633	706.8499	750.1777	919.0239	1049.7503	1052.8091	1061.1864	1082.5951	1131.8158	1180.7715	1212.0286	1294.9264	1411.3818	1421.6033	1431.6645	1465.5282	1472.2838	1475.6782	1482.4795	1500.5317	1501.0496	1542.2637	1727.2097	2348.7472	3004.5183	3014.0485	3030.3511	3048.7247	3058.5877	3092.7027	3096.5467	3155.4559	3168.3586
CC#CC(=O)N(C)C	CC#CC(=O)N(C)C	
InChI=1S/C6H9NO/c1-4-5-6(8)7(2)3/h1-3H3	InChI=1S/C6H9NO/c1-4-5-6(8)7(2)3/h1-3H3
