19
gdb 6099	4.47339	0.9758	0.83878	3.1699	70.02	-0.2384	0.0391	0.2776	1383.753	0.163361	-402.240726	-402.230773	-402.229828	-402.276843	34.619	
C	 0.018662659	 1.4828006944	-0.0099679747	-0.407663
C	-0.1168237529	-0.0340797382	 0.0681436277	 0.122122
O	 0.7562900712	-0.5949214176	 1.054754305	-0.435924
C	-1.5595198579	-0.4796336132	 0.3283123398	-0.157372
N	-1.6293517963	-1.9200452726	 0.4504764929	-0.314126
C	-2.5762132111	-2.6728790405	-0.1801690643	 0.406729
C	-2.4365302032	-4.1760893304	 0.0095706929	-0.480873
O	-3.4758852934	-2.1854428738	-0.8426644429	-0.378042
H	 1.0622999455	 1.7625197694	-0.1752944895	 0.129673
H	-0.5850675996	 1.8904855801	-0.8267410991	 0.129122
H	-0.3204018661	 1.9542941531	 0.9212363768	 0.110877
H	 0.2182892769	-0.4847146814	-0.8732109471	 0.100378
H	 0.6068507127	-0.118264557	 1.8797123163	 0.27999
H	-1.9284794904	 0.0098964272	 1.2442204483	 0.091255
H	-2.2245103147	-0.1866985824	-0.4878942319	 0.144692
H	-0.8651807135	-2.3596325432	 0.9382618121	 0.247387
H	-2.3717825165	-4.648827372	-0.9738787655	 0.150434
H	-1.566678719	-4.4662788358	 0.6044379827	 0.111106
H	-3.3407804707	-4.5550754162	 0.4935215003	 0.150238
36.9271	49.527	86.2479	103.8596	236.3781	242.5794	270.1585	313.2369	348.2507	431.0623	465.4749	511.1328	540.9454	626.143	653.7788	833.6325	893.2191	931.4927	969.8757	997.0353	1050.8644	1073.1827	1102.1025	1145.5316	1163.397	1231.1647	1258.4898	1322.7305	1324.6165	1393.1406	1402.7731	1406.4678	1423.4664	1471.2243	1484.6508	1489.5133	1495.2136	1501.6872	1530.1449	1776.442	2974.1857	3026.5894	3049.6009	3051.9755	3096.9499	3111.003	3123.3136	3126.4577	3129.9165	3639.1865	3790.3113
CC(O)CNC(C)=O	C[C@@H](O)CNC(=O)C	
InChI=1S/C5H11NO2/c1-4(7)3-6-5(2)8/h4,7H,3H2,1-2H3,(H,6,8)	InChI=1S/C5H11NO2/c1-4(7)3-6-5(2)8/h4,7H,3H2,1-2H3,(H,6,8)/t4-/m1/s1
