13
gdb 46875	2.54322	1.87614	1.2956	5.6546	59.32	-0.2652	-0.084	0.1812	929.6771	0.089043	-493.713682	-493.706571	-493.705627	-493.745693	26.003	
O	 0.1499251005	-0.0483348469	-0.0999658255	-0.289874
C	 0.0403883972	 1.1121641045	 0.1578747681	 0.352394
O	-1.1300723917	 1.6080630523	 0.6315371754	-0.225746
C	-1.3185476362	 3.0024004944	 0.8788884771	-0.112596
C	-0.083407954	 3.7027930219	 1.3933094337	 0.018862
O	 0.7531756234	 2.9454286404	 2.2414091715	-0.225593
C	 1.2419751442	 3.2512630357	 0.9227778575	-0.057821
C	 1.212676083	 2.1076132276	-0.0335426255	 0.264596
O	 2.0175799405	 1.9506901688	-0.9128483696	-0.273051
H	-1.6687095793	 3.5010289	-0.0343003737	 0.137243
H	-2.1210594464	 3.0545761026	 1.6199641228	 0.150862
H	-0.2140690846	 4.7511392092	 1.6608520919	 0.128758
H	 2.0913245235	 3.9263238094	 0.8643429361	 0.131966
74.9243	147.1105	225.2698	323.6844	340.6961	434.2204	462.2676	517.6899	606.8818	664.4145	756.5407	827.7514	837.4014	912.1563	953.0544	967.9556	1073.7984	1086.0805	1111.7039	1164.985	1238.4565	1258.1122	1287.4097	1339.8101	1412.899	1449.6504	1500.5006	1830.9933	1860.9113	3030.8916	3096.4668	3124.2324	3166.3734
O=C1OCC2OC2C1=O	O=C1OC[C@H]2O[C@H]2C1=O	
InChI=1S/C5H4O4/c6-3-4-2(9-4)1-8-5(3)7/h2,4H,1H2	InChI=1S/C5H4O4/c6-3-4-2(9-4)1-8-5(3)7/h2,4H,1H2/t2-,4-/m1/s1
