15
gdb 98139	4.75304	0.83745	0.71513	0.8916	65.62	-0.2605	-0.0774	0.1831	1471.8011	0.111101	-491.118236	-491.10894	-491.107996	-491.153133	31.9	
O	 0.1549063831	 1.3216784355	-0.0214637234	-0.400304
C	 0.1456430769	-0.0817366884	-0.0106586173	-0.174851
C	-1.2895191004	-0.560268464	 0.0356406998	 0.361658
O	-2.2475903404	 0.1776472473	 0.0580856927	-0.308504
C	-1.4933130868	-2.0663264765	 0.0537408367	 0.278135
N	-0.4887592833	-2.8440461258	 0.0296886757	-0.499586
N	-2.8511063534	-2.3879592708	 0.0972026047	-0.337579
C	-3.3851429505	-3.6499029982	 0.123209209	 0.16616
O	-2.7444920241	-4.6777224054	 0.1119818644	-0.299395
H	 1.0719178802	 1.6089028618	-0.0514036276	 0.297202
H	 0.6152987623	-0.5316116313	-0.8994906393	 0.136558
H	 0.6677063244	-0.5184941605	 0.8551533906	 0.136558
H	-0.7871079717	-3.8215498866	 0.0464459925	 0.262004
H	-3.4626903703	-1.5790896653	 0.109262931	 0.276751
H	-4.4899660759	-3.6283258119	 0.1563218706	 0.105193
60.9254	92.1335	111.1927	151.0299	226.593	257.5891	261.0736	307.7626	345.9349	410.4496	509.0501	605.9857	683.9154	732.2792	781.5465	929.8005	954.6582	964.4582	1027.1982	1032.5874	1115.9753	1160.9173	1178.8946	1235.0168	1240.9374	1349.234	1434.1682	1448.2354	1475.7461	1523.8564	1713.6812	1799.2078	1812.3566	2968.8874	2988.6419	3010.7151	3469.3042	3554.2761	3841.4275
OCC(=O)C(=N)NC=O	OCC(=O)C(=N)NC=O	
InChI=1S/C4H6N2O3/c5-4(6-2-8)3(9)1-7/h2,7H,1H2,(H2,5,6,8)	InChI=1S/C4H6N2O3/c5-4(6-2-8)3(9)1-7/h2,7H,1H2,(H2,5,6,8)
