23
gdb 88105	3.21367	1.19694	1.02982	0.2296	91.02	-0.2345	0.0341	0.2686	1278.4652	0.207343	-351.167561	-351.158824	-351.15788	-351.200552	34.802	
C	-0.1417242916	 1.5287743468	-0.1042998729	-0.414353
C	 0.0143632495	 0.0291600705	 0.029660938	-0.058109
C	 1.3462620732	-0.6522494344	-0.1963609664	-0.331039
C	 0.7183421282	-0.6490063356	 1.1817278594	 0.377848
C	 1.3995556533	 0.1393304082	 2.2884693696	-0.288349
C	 2.5364116632	-0.6846639615	 2.9175300631	-0.243453
C	 2.1143703968	-2.1030791171	 3.1986106935	-0.047181
C	 1.0314964827	-2.6635866809	 2.6619971098	-0.048555
C	 0.1184459238	-1.9516800163	 1.6959575146	-0.320867
H	 0.7536282168	 2.0676154198	 0.2177760925	 0.115294
H	-0.3268722797	 1.8042861138	-1.1486152917	 0.115533
H	-0.9845428033	 1.90021239	 0.4899981108	 0.114483
H	-0.8468144114	-0.5238461276	-0.3422282591	 0.075357
H	 1.3752039563	-1.580204471	-0.7586052658	 0.103648
H	 2.2108145897	-0.0136187146	-0.3574989475	 0.101005
H	 1.791920647	 1.0908122232	 1.9184405357	 0.089931
H	 0.6621292067	 0.382030645	 3.0658361727	 0.095364
H	 3.4100626862	-0.6872534	 2.2488574713	 0.107165
H	 2.8776301469	-0.2058771547	 3.8442680991	 0.09646
H	 2.7402070617	-2.6797502659	 3.8760414202	 0.07968
H	 0.7674744205	-3.6869497314	 2.9193908734	 0.079579
H	-0.8473836569	-1.7523698764	 2.1880284087	 0.102923
H	-0.1190354096	-2.6142139602	 0.853144761	 0.097638
97.2692	151.1769	182.7956	199.3857	237.2585	355.8294	368.7253	399.5051	432.4784	505.7496	522.6305	664.6388	672.1986	757.8066	801.1645	868.717	877.9181	915.2834	917.616	949.7943	978.296	996.9956	1003.5575	1017.4491	1035.3605	1054.3946	1069.1124	1103.2754	1131.1754	1162.2624	1184.386	1203.6077	1219.1354	1248.5334	1290.1693	1326.7773	1351.7461	1361.5349	1392.8271	1410.704	1413.911	1433.989	1471.9448	1475.3466	1486.212	1494.2194	1500.979	1506.9239	1726.5773	2976.7442	2998.0956	3013.7952	3027.8852	3029.2241	3039.8675	3079.4663	3083.8465	3101.4057	3115.5263	3119.986	3137.8376	3162.0766	3198.0976
CC1CC11CCC=CC1	C[C@H]1C[C@]21CCC=CC2	
InChI=1S/C9H14/c1-8-7-9(8)5-3-2-4-6-9/h2-3,8H,4-7H2,1H3	InChI=1S/C9H14/c1-8-7-9(8)5-3-2-4-6-9/h2-3,8H,4-7H2,1H3/t8-,9+/m0/s1
