19
gdb 72534	2.64566	1.69336	1.67578	1.1532	74.2	-0.2398	0.0077	0.2475	936.8849	0.161432	-423.033682	-423.026346	-423.025402	-423.064801	30.557	
O	-0.0549397899	 1.4137407495	-0.0111143821	-0.502911
C	 0.0132515457	 0.0032967011	 0.0303430683	 0.321796
C	-1.4262458702	-0.5579359825	 0.0268718133	-0.215203
C	-1.3481814533	-2.1089484579	 0.0116572606	-0.218931
C	 0.1426400006	-2.5129220156	 0.0237950842	 0.05167
O	 0.7493286013	-1.9926782536	-1.1792571132	-0.275097
C	 0.7160238294	-0.5719382529	-1.2277518211	-0.093976
C	 0.8076277868	-1.8954192167	 1.2300423147	-0.077164
C	 0.7340131124	-0.563696494	 1.2306040513	-0.136411
H	 0.8455043883	 1.7568501771	-0.0212219732	 0.276619
H	-1.9555417583	-0.1825775849	 0.9058480161	 0.106766
H	-1.9438036296	-0.1743706093	-0.8577362984	 0.106631
H	-1.8606879637	-2.5446341391	 0.8741825387	 0.101733
H	-1.8111653039	-2.5179785613	-0.890748707	 0.106847
H	 0.2715642377	-3.5946496569	-0.0339354485	 0.075637
H	 0.1708160518	-0.2460837176	-2.12407197	 0.099682
H	 1.7448440891	-0.1852640625	-1.2904753351	 0.079762
H	 1.2903320389	-2.4940012742	 1.9940204109	 0.099132
H	 1.1434513268	 0.0949129816	 1.9898953504	 0.093418
161.7116	278.0397	287.2513	309.9814	361.3603	388.3525	428.0023	452.8427	553.5624	585.1793	650.7877	714.8884	731.5429	818.5497	828.8617	910.667	931.024	962.0038	973.1494	991.8645	1010.2892	1028.3799	1073.4981	1093.4579	1115.1801	1133.6449	1177.0169	1203.4486	1237.8654	1259.6502	1272.6443	1321.9515	1330.5198	1345.56	1374.7397	1390.1384	1401.3532	1480.9305	1500.306	1521.332	1673.8155	2978.6026	3027.5609	3049.2958	3059.896	3090.4935	3104.3375	3110.7315	3173.918	3200.4131	3799.8717
OC12CCC(OC1)C=C2	O[C@@]12CC[C@@H](OC1)C=C2	
InChI=1S/C7H10O2/c8-7-3-1-6(2-4-7)9-5-7/h1,3,6,8H,2,4-5H2	InChI=1S/C7H10O2/c8-7-3-1-6(2-4-7)9-5-7/h1,3,6,8H,2,4-5H2/t6-,7-/m0/s1
