21
gdb 39504	2.34533	1.77757	1.21799	1.0788	78.33	-0.2193	0.0775	0.2968	1085.7032	0.184545	-424.194526	-424.186595	-424.18565	-424.226664	31.985	
C	 0.0621559193	 1.5105114039	 0.077827371	-0.367223
C	 1.3631165651	 0.7529104384	-0.0389076452	 0.065162
O	 2.1973111003	 0.8537535243	 1.0723225763	-0.244225
C	 3.1002652294	-0.2347813761	 1.2405659111	-0.065548
C	 2.4240489107	-1.5916276174	 1.4406821892	-0.210103
C	 1.3742913057	-1.6379034539	 2.5603528691	-0.19263
C	 0.1640640127	-0.7105318276	 2.3572589521	-0.072917
O	-0.4007366246	-0.8295901045	 1.0551226852	-0.263746
C	 0.0475136036	-0.0004173959	 0.0266980991	 0.11149
H	-0.0944965261	 1.9791646505	 1.0436985784	 0.129922
H	-0.3193753812	 2.0757264456	-0.7654258053	 0.113309
H	 1.8937282571	 0.7494332306	-0.9940805196	 0.082321
H	 3.7884862879	-0.2862828725	 0.3811901132	 0.08868
H	 3.6918070415	 0.03273587	 2.1229949699	 0.104828
H	 1.9575769342	-1.9152367943	 0.5045439967	 0.117719
H	 3.2142895139	-2.321620847	 1.6556280095	 0.096113
H	 1.0126857431	-2.6693694569	 2.6428880761	 0.101364
H	 1.8345814269	-1.3882756241	 3.5263561733	 0.091829
H	-0.6346471137	-1.0075193675	 3.0459677641	 0.09847
H	 0.4289474341	 0.3252061761	 2.5820691147	 0.114755
H	-0.2778662699	-0.4338443418	-0.9152042287	 0.100429
99.4412	220.8748	238.1369	260.2101	290.776	317.5252	405.3133	461.2704	508.4696	545.9892	693.5082	730.8523	768.8532	797.2863	802.7932	843.7578	875.5602	931.1267	980.9053	994.0774	1041.2016	1055.0165	1070.4488	1102.1271	1112.7443	1129.1617	1151.529	1166.5621	1185.1472	1238.6291	1259.7891	1275.8618	1320.9841	1322.7386	1367.6385	1389.555	1392.852	1401.1824	1420.7478	1429.7906	1476.3031	1480.9124	1486.8232	1499.9099	1507.994	2975.5084	3015.3139	3037.9786	3044.5193	3058.382	3063.4303	3066.2499	3088.6466	3103.2687	3133.9107	3143.3787	3222.8724
C1C2OCCCCOC12	C1[C@H]2OCCCCO[C@@H]12	
InChI=1S/C7H12O2/c1-2-4-9-7-5-6(7)8-3-1/h6-7H,1-5H2	InChI=1S/C7H12O2/c1-2-4-9-7-5-6(7)8-3-1/h6-7H,1-5H2/t6-,7+
