16
gdb 70982	3.61584	1.28815	1.15801	2.6394	69.22	-0.2263	-0.0378	0.1885	1060.0188	0.123275	-437.806141	-437.798377	-437.797433	-437.838648	29.733	
O	-0.0599108546	 1.3409598646	-0.0685998248	-0.457982
C	 0.0936841974	-0.0253745844	-0.0427617325	 0.389382
C	 1.1509639474	-0.8631520606	-0.7570048927	-0.312942
C	 0.19632149	-2.0588017909	-0.4192135149	 0.231348
N	 0.349136116	-2.1522041456	 1.0848658976	-0.36989
C	-0.4481827269	-0.9013569956	 1.0997067343	-0.09732
C	-1.0018365001	-1.0343816171	-0.2974054062	-0.207699
C	 0.2636086863	-3.3175370532	-1.2082358031	 0.025885
O	-0.381028683	-3.5339375613	-2.2033892539	-0.247457
H	 0.5199247719	 1.7284307842	 0.5970694662	 0.291495
H	 1.1616335742	-0.6544869035	-1.8289639212	 0.125209
H	 2.1627590669	-0.9311972334	-0.3474424107	 0.105932
H	-0.274830443	-2.8981733843	 1.3995636955	 0.218352
H	-0.890531542	-0.4790450546	 1.992856713	 0.103125
H	-1.9808271795	-0.963473215	-0.7496984166	 0.115279
H	 0.985277959	-4.0638148693	-0.80214815	 0.087284
62.9011	142.5462	216.7917	280.5051	327.7864	374.8805	421.6847	488.1215	518.271	618.3236	666.0544	745.787	764.2533	832.2782	867.7246	916.3639	936.6435	960.7847	985.4353	1008.8671	1043.918	1071.6649	1088.5712	1133.2247	1141.4528	1194.2314	1220.8574	1237.2922	1300.5971	1320.1101	1364.9463	1413.9359	1435.2545	1494.7586	1822.2541	2868.5266	3057.1773	3129.9355	3202.0253	3222.3313	3423.0576	3789.2767
OC12CC3(NC1C23)C=O	O[C@@]12C[C@]3(N[C@@H]1[C@@H]23)C=O	
InChI=1S/C6H7NO2/c8-2-5-1-6(9)3(5)4(6)7-5/h2-4,7,9H,1H2	InChI=1S/C6H7NO2/c8-2-5-1-6(9)3(5)4(6)7-5/h2-4,7,9H,1H2/t3-,4-,5+,6-/m1/s1
