20
gdb 109829	2.08085	1.44992	1.01476	5.1747	76.27	-0.2444	0.009	0.2534	1231.2033	0.171052	-440.295452	-440.28597	-440.285026	-440.329657	35.052	
C	-0.2180238532	 1.7114464298	-0.0406462723	-0.420426
C	-0.1651026819	 0.1968823135	-0.0536788359	-0.069071
C	 0.6148036006	-0.5914814205	-1.0801870832	-0.040752
C	 1.4184316841	 0.0253143396	-2.2085007989	-0.084599
O	 2.3374073888	-0.8932275492	-2.7540988465	-0.429438
C	 1.076212294	-0.5654712627	 0.3648241765	-0.00762
N	 2.2390196746	 0.182200667	 0.7567353171	-0.275255
C	 3.5137354785	-0.1466301073	 0.4312375984	 0.156375
O	 3.8492654653	-1.0257726853	-0.3407308336	-0.328677
H	 0.7376351526	 2.1656983409	-0.3117180984	 0.124354
H	-0.9680692402	 2.0760595054	-0.7497191788	 0.131349
H	-0.4987729667	 2.0844232601	 0.9513569867	 0.115392
H	-1.0951911967	-0.2648931742	 0.2677210952	 0.093715
H	 0.1733795137	-1.5393303416	-1.3762621353	 0.100377
H	 0.7389857813	 0.3058374327	-3.0222550902	 0.103698
H	 1.9140896516	 0.9495379901	-1.8744113894	 0.078473
H	 2.93912193	-1.140682744	-2.0335899585	 0.302939
H	 0.9355168017	-1.4805063728	 0.9349081746	 0.107004
H	 2.1230230603	 0.8988083277	 1.4578709113	 0.253195
H	 4.2510401416	 0.4942116907	 0.9517017112	 0.088966
82.9402	141.0837	164.7787	185.3861	200.7435	206.0285	235.9023	319.0989	346.9481	477.8856	525.5252	567.0026	587.8276	610.5964	757.1805	782.4411	850.1182	880.5504	973.4659	984.0161	1000.2155	1034.6743	1074.0664	1089.4274	1114.2409	1137.1008	1157.3005	1178.2697	1218.1804	1253.2869	1286.7737	1351.1995	1375.2819	1409.2655	1421.0152	1433.7646	1445.1176	1473.258	1497.8774	1505.3084	1507.8321	1520.0571	1788.843	2952.9785	2984.4735	3033.2758	3051.5146	3090.916	3118.9832	3125.7069	3138.5632	3152.7345	3606.8156	3675.1166
CC1C(CO)C1NC=O	C[C@H]1[C@@H](CO)[C@H]1NC=O	
InChI=1S/C6H11NO2/c1-4-5(2-8)6(4)7-3-9/h3-6,8H,2H2,1H3,(H,7,9)	InChI=1S/C6H11NO2/c1-4-5(2-8)6(4)7-3-9/h3-6,8H,2H2,1H3,(H,7,9)/t4-,5+,6-/m0/s1
