18
gdb 14274	2.86855	2.6736	1.85421	0.4518	66.91	-0.2398	0.0754	0.3153	779.5799	0.156436	-384.91429	-384.907952	-384.907008	-384.944292	26.301	
C	-0.0435252333	 1.4750967903	-0.0948392069	-0.271395
C	 1.5064973737	 1.5571979804	 0.0032156552	 0.12566
C	 1.4695295117	 0.1581037074	 0.6878402933	-0.271394
C	 0.0806786459	-0.0732030955	 0.0271472206	 0.125661
O	 0.0930026294	-0.7513483809	-1.2169035676	-0.266616
C	 1.2291671951	-0.5682103193	-2.0457652643	-0.088379
C	 1.6173898213	 0.8863205301	-2.3202830993	-0.088379
O	 2.203823757	 1.578376579	-1.230065117	-0.266615
H	-0.5032799548	 1.9037335011	 0.8001058141	 0.103223
H	-0.5441978932	 1.8788097158	-0.9763784382	 0.108055
H	 1.9309439373	 2.379557505	 0.58332619	 0.080388
H	 2.2839348617	-0.5360513292	 0.4741551365	 0.108056
H	 1.3623725649	 0.2542926976	 1.7719505755	 0.103223
H	-0.6801477982	-0.5841565434	 0.6213089241	 0.080388
H	 2.1024094204	-1.1040385148	-1.6453851924	 0.099337
H	 0.9637016205	-1.0372627244	-2.9993404746	 0.109726
H	 2.3809636325	 0.8942433608	-3.1055729545	 0.109726
H	 0.7401024479	 1.4258961199	-2.7065380645	 0.099337
222.8795	284.0687	338.2517	366.7906	408.6877	451.8158	492.1196	574.0224	751.8765	769.0563	810.1079	867.5099	894.595	906.2951	923.0296	937.8167	994.4772	1053.9812	1066.4534	1097.1616	1110.6803	1120.3025	1158.3266	1213.0106	1226.6801	1248.2975	1265.0118	1277.5122	1286.4774	1325.7523	1372.2667	1389.4754	1409.9302	1413.99	1452.6723	1476.2072	1496.0186	1504.3708	2994.0305	3004.0908	3064.5635	3065.4046	3072.2212	3075.7447	3084.2694	3091.6999	3128.0175	3129.5966
C1C2CC1OCCO2	C1[C@H]2C[C@@H]1OCCO2	
InChI=1S/C6H10O2/c1-2-8-6-3-5(4-6)7-1/h5-6H,1-4H2	InChI=1S/C6H10O2/c1-2-8-6-3-5(4-6)7-1/h5-6H,1-4H2/t5-,6+
