20
gdb 115236	3.93821	0.93921	0.79395	4.8387	75.95	-0.2326	0.0349	0.2675	1420.1268	0.172839	-440.331394	-440.322405	-440.321461	-440.365384	33.502	
O	-0.032018729	 1.439968595	 0.0902531485	-0.42413
C	 0.0407129552	 0.0259912571	-0.0211522328	-0.097696
C	-1.379334125	-0.5278154584	-0.0099319355	 0.026417
C	-1.4035635495	-2.0541804619	-0.1434021974	-0.230493
C	-2.8485521828	-2.5561301511	-0.2329034584	-0.315962
C	-3.7972998409	-1.961828625	 0.804947497	 0.393525
O	-4.8597807293	-2.4883382678	 1.0825652209	-0.380237
N	-3.4170864082	-0.7712111067	 1.3607466577	-0.313728
C	-2.1157576571	-0.1227397387	 1.270364577	-0.148443
H	 0.8629848801	 1.7900364909	 0.116751071	 0.290598
H	 0.5396135468	-0.2759683714	-0.9554187593	 0.091293
H	 0.6145348498	-0.4100014218	 0.813764026	 0.087261
H	-1.9137193014	-0.0908510421	-0.8644241116	 0.091284
H	-0.8386139254	-2.37654473	-1.0255165167	 0.099193
H	-0.9055798845	-2.5009094443	 0.7279961934	 0.102795
H	-3.2720838925	-2.3057135531	-1.2141576507	 0.129763
H	-2.9139180732	-3.6427182632	-0.1393935646	 0.127813
H	-4.0694403399	-0.4264222661	 2.0506559389	 0.242896
H	-1.4905240864	-0.3852903141	 2.139814424	 0.097787
H	-2.2531286066	 0.9611598027	 1.2928189827	 0.130064
72.2487	111.6861	151.119	183.1944	219.0112	266.5953	349.2782	413.9081	437.4924	488.9209	501.0853	552.4882	659.7364	709.1082	770.1301	824.5325	902.7958	948.8705	963.3188	1009.4018	1067.9185	1077.6237	1105.7289	1117.5786	1149.6425	1190.8326	1216.9813	1244.7066	1266.5887	1292.1841	1310.5834	1328.7015	1343.9589	1384.8427	1392.3699	1402.5862	1459.9168	1463.6978	1485.016	1499.4235	1521.5618	1528.0988	1787.8632	2959.9671	2965.3716	2992.3331	3014.055	3027.9227	3035.2776	3064.0895	3090.7236	3106.3416	3603.1763	3834.9646
OCC1CCC(=O)NC1	OC[C@H]1CCC(=O)NC1	
InChI=1S/C6H11NO2/c8-4-5-1-2-6(9)7-3-5/h5,8H,1-4H2,(H,7,9)	InChI=1S/C6H11NO2/c8-4-5-1-2-6(9)7-3-5/h5,8H,1-4H2,(H,7,9)/t5-/m0/s1
