15
gdb 51933	3.29254	0.62416	0.56218	2.3467	76.02	-0.2752	-0.0007	0.2745	1887.5538	0.110837	-416.776279	-416.766567	-416.765623	-416.813969	31.964	
N	-0.3636403891	 0.7664738906	 0.878467838	-0.43136
C	-0.4561275152	-0.4060189732	 0.4279472749	 0.134432
O	-0.7653864089	-0.5974680271	-0.876437278	-0.169779
C	-0.9270180003	-1.9550697576	-1.2874945534	-0.241789
C	-2.1843268307	-2.5458249308	-0.8360771916	 0.126362
C	-3.2187374027	-3.0194198696	-0.4482137845	 0.055604
C	-4.4805364491	-3.5895681222	 0.0159044249	-0.471511
C	-4.3190020321	-4.4773178252	 1.1752203972	 0.278655
N	-4.2008327162	-5.1768795669	 2.0858281152	-0.295232
H	-0.1059193663	 0.7433246972	 1.8629027497	 0.234441
H	-0.3015495207	-1.3398129217	 0.9849063841	 0.097203
H	-0.8873221193	-1.9300669215	-2.3798813436	 0.159223
H	-0.0808419572	-2.5648616198	-0.9416223494	 0.144011
H	-5.1799291482	-2.7886155792	 0.2877131999	 0.19173
H	-4.9635118038	-4.156893783	-0.7898740433	 0.188009
14.8544	49.9894	80.9897	95.7119	149.113	238.0739	302.3543	344.1167	374.0207	384.2274	474.1104	568.7792	667.561	793.4886	821.9055	927.0376	933.7487	951.8523	1029.0885	1040.6077	1116.7195	1163.1046	1233.7705	1241.2979	1317.9938	1337.5834	1391.9548	1426.076	1443.7514	1480.9285	1751.8224	2371.5751	2382.0451	3013.9644	3029.5873	3031.9892	3060.9483	3093.8802	3521.2376
N=COCC#CCC#N	[NH][CH]OCC#CCC#N	
InChI=1S/C6H6N2O/c7-4-2-1-3-5-9-6-8/h6,8H,2,5H2	InChI=1S/C6H6N2O/c7-4-2-1-3-5-9-6-8/h6,8H,2,5H2
