18
gdb 47050	3.44694	1.34077	1.05506	2.4772	71.7	-0.2432	0.028	0.2711	1117.0146	0.150489	-439.112027	-439.104479	-439.103535	-439.144573	28.984	
O	-0.0854869567	-0.1010483829	-0.0728897263	-0.37003
C	-0.0771010459	 1.1133472598	-0.030214874	 0.390946
C	-1.328853615	 1.964328071	-0.2151486673	-0.323872
C	-1.2756663791	 3.2564732908	 0.6100061974	-0.244085
C	-0.0635011058	 4.0736770126	 0.1765143899	 0.13373
O	 0.4883938249	 4.9069328132	 1.2199025338	-0.289907
C	 1.6481931544	 4.0578064052	 1.3520434533	-0.088673
C	 1.2423642445	 3.2482436792	 0.0964295412	-0.037057
N	 1.0780441017	 1.8192557377	 0.2093925769	-0.307495
H	-1.4272548854	 2.196224716	-1.2844644937	 0.125456
H	-2.1822375168	 1.3377493301	 0.0501158671	 0.135625
H	-2.1956172125	 3.8380450157	 0.4986730748	 0.110825
H	-1.1729762705	 3.0136114207	 1.6729298441	 0.120092
H	-0.2869159327	 4.662106191	-0.7209442879	 0.086652
H	 2.5816011756	 4.627396951	 1.2894736811	 0.10897
H	 1.6340458187	 3.4720207014	 2.2799549097	 0.106568
H	 1.8546743151	 3.5061311019	-0.7744618706	 0.096251
H	 1.9042074355	 1.2404814057	 0.2745737105	 0.246004
73.6896	97.0023	194.8117	341.7555	378.3275	414.2783	446.4579	508.0519	570.5501	639.8397	697.1614	756.6949	784.6645	836.3599	894.2107	957.6571	980.4543	989.0138	1027.3647	1056.2932	1075.167	1096.7695	1157.2989	1170.7692	1192.2499	1197.9429	1280.0634	1285.5256	1312.4286	1330.7986	1346.0439	1377.7985	1383.3725	1400.0792	1462.9995	1474.5003	1499.2164	1519.9679	1797.92	3017.4443	3027.7679	3028.9236	3042.5636	3050.3716	3075.8563	3095.7646	3118.7636	3593.9454
O=C1CCC2OCC2N1	O=C1CC[C@H]2OC[C@H]2N1	
InChI=1S/C6H9NO2/c8-6-2-1-5-4(7-6)3-9-5/h4-5H,1-3H2,(H,7,8)	InChI=1S/C6H9NO2/c8-6-2-1-5-4(7-6)3-9-5/h4-5H,1-3H2,(H,7,8)/t4-,5-/m1/s1
