19
gdb 68198	3.62348	1.22451	1.13624	4.9198	79.36	-0.2483	0.0203	0.2686	1137.853	0.161319	-382.055693	-382.047878	-382.046934	-382.087772	30.913	
C	-0.0361086436	 1.5465008433	 0.0589948609	-0.506733
C	 0.0168210939	 0.0370864242	 0.0208472	 0.330923
C	 0.9814967264	-0.7758536124	-0.8878443656	-0.224026
N	 0.7702913343	-1.9264426697	 0.0814591998	-0.127483
C	 0.6545715999	-0.8393599324	 1.1347563422	-0.214288
C	-0.6889094054	-2.1892050436	-0.1401702091	-0.122849
C	-1.2972399363	-0.7358131686	-0.214732644	-0.283851
C	-0.9174299549	-2.9882197227	-1.3427104291	 0.292756
N	-1.1212259149	-3.6049093228	-2.2985770678	-0.329095
H	 0.9570201534	 1.9728211247	 0.2347623947	 0.120965
H	-0.412420499	 1.9525533969	-0.8863341358	 0.126621
H	-0.6984068592	 1.8999766602	 0.8570545178	 0.123206
H	 0.7013739508	-0.9837255913	-1.9242572885	 0.122124
H	 2.0201925999	-0.4427884639	-0.836382096	 0.114207
H	 1.6534004636	-0.515290722	 1.4346910789	 0.114617
H	 0.0624607949	-1.1049908101	 2.0165763972	 0.101415
H	-1.0753079658	-2.7492092592	 0.7158991561	 0.126405
H	-2.0427815249	-0.5616202079	 0.5655447346	 0.110442
H	-1.7503109131	-0.5164711028	-1.1842868562	 0.124644
113.9431	157.0087	215.1083	276.3117	294.5336	365.5048	442.7688	485.0301	525.293	574.4366	626.8038	703.124	814.6477	838.9486	848.5882	879.9592	906.106	935.7908	965.8541	980.6631	1029.4373	1043.7513	1047.0764	1090.2939	1129.7078	1198.4325	1209.7584	1226.9721	1236.7532	1250.1572	1270.4521	1278.4674	1353.6834	1361.902	1416.7544	1492.0176	1493.9048	1498.535	1500.7159	1535.7135	2360.4872	3028.5188	3048.4419	3061.9219	3065.2806	3075.7742	3094.2214	3098.2867	3116.174	3119.8545	3126.8862
CC12CN(C1)C(C2)C#N	C[C@@]12CN(C1)[C@@H](C2)C#N	
InChI=1S/C7H10N2/c1-7-2-6(3-8)9(4-7)5-7/h6H,2,4-5H2,1H3	InChI=1S/C7H10N2/c1-7-2-6(3-8)9(4-7)5-7/h6H,2,4-5H2,1H3/t6-/m0/s1
