22
gdb 13632	2.80813	1.56451	1.18067	1.1503	79.01	-0.2449	0.0805	0.3255	1133.5263	0.198378	-350.187024	-350.177226	-350.176282	-350.221669	35.574	
C	-0.1184179151	 1.5150507133	-0.1790023302	-0.23739
O	-0.0762652663	 0.1432669335	 0.1378663006	-0.239773
C	-1.3160175112	-0.5425840425	-0.0116603783	 0.116893
C	-1.6118648701	-0.83460446	-1.4887231139	-0.398607
C	-1.2715081249	-1.8363956489	 0.7883547699	-0.011805
C	 0.0328179885	-2.4898722655	 1.1798761585	-0.290141
C	-0.8859935054	-1.9428221548	 2.2475747354	-0.005148
C	-0.4940371007	-0.7556401535	 3.1011995788	-0.415294
H	 0.8662271167	 1.9283368025	 0.0541409379	 0.125905
H	-0.3274419296	 1.6985083818	-1.2426734568	 0.108384
H	-0.8760922625	 2.0471729672	 0.4173137427	 0.10486
H	-2.1201352166	 0.0996674666	 0.3891539532	 0.06269
H	-2.5819218308	-1.3306900882	-1.5939552066	 0.113703
H	-1.6448202312	 0.0827082431	-2.0833013549	 0.111087
H	-0.8398427676	-1.4899550539	-1.9030462	 0.126786
H	-2.0639157981	-2.5146614369	 0.4818029184	 0.076327
H	 0.1361481372	-3.5637389855	 1.0667192905	 0.099411
H	 0.9323378925	-1.9217047983	 0.9734784695	 0.126953
H	-1.452553647	-2.6963385002	 2.7910887037	 0.075253
H	 0.099235038	-0.0398582158	 2.5308240428	 0.136192
H	-1.3781874075	-0.2338870118	 3.4868489657	 0.1051
H	 0.0962966717	-1.0812990422	 3.9652818029	 0.108615
58.0092	73.5695	156.8269	187.339	208.0212	218.1032	241.4278	293.5145	332.7525	389.1888	411.2023	538.8797	591.3265	753.2584	783.8501	853.7507	862.827	916.111	951.6634	992.9618	1030.744	1065.7431	1094.9953	1112.4066	1119.4367	1136.2834	1151.7357	1177.4175	1182.6937	1202.4437	1225.3432	1252.4471	1345.9659	1381.4547	1390.1643	1402.6013	1414.0878	1423.7524	1475.5574	1482.0754	1489.6938	1492.5904	1502.0954	1503.0486	1507.3071	1512.9466	2941.8005	2978.4242	3026.9454	3028.0869	3040.8618	3077.364	3108.4628	3109.9981	3115.0495	3118.7145	3132.3354	3138.1601	3145.5016	3226.5281
COC(C)C1CC1C	CO[C@@H](C)[C@H]1C[C@H]1C	
InChI=1S/C7H14O/c1-5-4-7(5)6(2)8-3/h5-7H,4H2,1-3H3	InChI=1S/C7H14O/c1-5-4-7(5)6(2)8-3/h5-7H,4H2,1-3H3/t5-,6+,7+/m1/s1
