17
gdb 46842	2.74223	1.82977	1.49523	2.5715	71.94	-0.2324	-0.0321	0.2003	918.8693	0.138357	-421.846338	-421.839491	-421.838546	-421.877541	27.553	
O	-0.00658954	-0.0113567399	 0.2572119182	-0.315113
C	 0.0027368887	 1.1719366064	 0.0286269073	 0.376647
C	-1.3190139804	 1.9491127864	-0.14263624	-0.172585
O	-1.2692534601	 3.1843373097	-0.8499801994	-0.274452
C	-0.0088559382	 3.8664120135	-0.8096181436	 0.081502
C	 1.0925487153	 2.9192834394	-1.3113975236	-0.248509
C	 1.2627907414	 2.0341713563	-0.0529081164	-0.153654
C	 1.1457243908	 3.0778863808	 1.0537289005	-0.094726
C	 0.4353901354	 4.123043565	 0.6247113095	-0.083791
H	-2.0271355835	 1.3022171473	-0.6675117305	 0.138198
H	-1.7118786669	 2.0998669314	 0.8751458754	 0.127089
H	-0.1562462317	 4.759994449	-1.4182076489	 0.084676
H	 0.784453222	 2.3744562092	-2.2081990437	 0.113232
H	 2.0204372166	 3.4598507707	-1.5175891926	 0.112031
H	 2.1534368149	 1.4058479976	-0.0185895407	 0.086607
H	 1.5226002615	 2.9131097051	 2.0559627485	 0.11481
H	 0.1176850441	 4.975412322	 1.21200359	 0.108038
96.9305	200.5288	320.3248	364.4981	418.3196	445.5259	529.845	556.963	614.088	720.2339	769.3776	801.1071	839.2086	870.4693	914.2009	923.7581	966.1288	970.8165	1003.787	1025.1308	1033.3369	1093.1735	1127.5956	1131.2048	1209.9137	1239.1353	1249.1295	1271.094	1296.9383	1317.9673	1346.43	1359.7914	1378.9493	1469.7374	1482.9764	1652.0706	1827.2371	2988.267	3058.3641	3094.9746	3104.7307	3111.0113	3113.4722	3198.9268	3223.897
O=C1COC2CC1C=C2	O=C1CO[C@@H]2C[C@H]1C=C2	
InChI=1S/C7H8O2/c8-7-4-9-6-2-1-5(7)3-6/h1-2,5-6H,3-4H2	InChI=1S/C7H8O2/c8-7-4-9-6-2-1-5(7)3-6/h1-2,5-6H,3-4H2/t5-,6+/m1/s1
