20
gdb 62757	3.41659	1.20883	1.18166	2.2131	78.66	-0.2242	-0.0225	0.2017	1151.9049	0.169918	-403.159506	-403.150763	-403.149819	-403.192591	33.852	
C	 0.0311298625	 1.5623283299	-0.0937361133	-0.480185
C	 0.021170581	 0.0442313578	-0.0680973161	 0.325729
C	-1.1546236567	-0.5310357171	 0.6993409432	-0.441056
C	 0.5745574713	-0.7687157105	-1.1910312862	-0.082594
C	 1.4360555712	-0.1200853432	-2.2502409328	-0.35931
C	 2.6377198556	 0.4565630191	-1.4819809443	 0.381688
O	 3.5103838696	 1.1454502019	-1.9378436831	-0.30508
C	 2.5218659839	-0.0156188186	-0.0228812372	-0.276703
N	 1.2625225587	-0.738588733	 0.1402407208	-0.148256
H	 0.8202843209	 2.0008189364	-0.7074709771	 0.133942
H	-0.9240807786	 1.930728968	-0.4822538732	 0.127099
H	 0.1431085534	 1.9582423615	 0.9223714531	 0.12799
H	-2.1034743748	-0.2454505567	 0.2314113675	 0.112834
H	-1.0949613256	-1.6211783339	 0.7345094468	 0.127447
H	-1.1614232712	-0.1606101409	 1.7305505242	 0.118185
H	 0.091474873	-1.7104259434	-1.4387049566	 0.089093
H	 1.804800415	-0.8557933031	-2.9740084932	 0.138494
H	 0.9479012773	 0.673126176	-2.8239832135	 0.139188
H	 3.3573353052	-0.6930215376	 0.194061098	 0.136135
H	 2.6166710682	 0.8356375973	 0.658869743	 0.13536
73.4706	160.5627	198.0473	208.4299	263.717	286.5249	356.9878	439.1979	453.1068	462.7945	471.4486	636.8994	686.7981	696.0428	745.3702	787.0486	813.6315	861.5308	957.4349	973.2779	996.1227	1024.3713	1073.5078	1088.4482	1125.8337	1138.566	1155.0326	1172.3559	1222.0233	1254.357	1277.8143	1296.5988	1329.3755	1410.6334	1418.157	1429.3984	1448.8125	1461.2962	1480.1562	1487.8159	1502.1466	1512.4806	1850.1306	3030.0234	3033.5016	3036.8261	3051.6786	3082.2011	3090.3286	3093.3671	3094.7301	3124.1305	3126.7389	3134.1662
CC1(C)C2CC(=O)CN12	CC1(C)[C@H]2CC(=O)CN12	
InChI=1S/C7H11NO/c1-7(2)6-3-5(9)4-8(6)7/h6H,3-4H2,1-2H3	InChI=1S/C7H11NO/c1-7(2)6-3-5(9)4-8(6)7/h6H,3-4H2,1-2H3/t6-,8?/m1/s1
