19
gdb 85699	2.47951	1.3687	1.05881	0.8019	81.64	-0.2568	0.045	0.3017	1185.0822	0.157833	-385.829184	-385.820281	-385.819337	-385.862638	34.562	
O	 0.7299609219	 0.4316961298	-1.0685296024	-0.428999
C	 0.218085121	-0.418061804	-0.0763145124	 0.078271
C	 0.2657978403	 0.0299338199	 1.4119098635	-0.27853
C	-1.1733097202	-0.5594061993	 1.608022638	-0.254802
C	-2.1340221821	 0.1992500287	 2.3805476477	 0.321535
C	-2.9402873269	 0.8431951084	 2.9995579937	-0.452722
C	-1.3038984151	-0.5802308852	 0.0649636753	 0.310367
C	-2.3108895979	 0.1922635508	-0.7352256981	-0.327125
C	-2.2783582627	-1.3186996564	-0.7932354595	-0.333138
H	 0.3090729672	 1.2920591419	-0.9610739359	 0.279706
H	 0.7194902907	-1.3796834728	-0.227938593	 0.093686
H	 1.0596043998	-0.3692763812	 2.0455797658	 0.110164
H	 0.2527290155	 1.120251368	 1.4937685449	 0.108207
H	-1.1126976948	-1.5830241485	 1.9953915098	 0.103807
H	-3.6451654376	 1.4058403915	 3.559848584	 0.194874
H	-3.1234686158	 0.6702148075	-0.1983345424	 0.127638
H	-1.95140059	 0.7342832241	-1.6046000426	 0.111548
H	-1.9043540423	-1.786843998	-1.6986088911	 0.118195
H	-3.0790864008	-1.8626632751	-0.3019111052	 0.117319
65.7921	126.2105	187.4029	224.7596	243.2778	320.7873	347.9989	395.5963	487.355	510.9784	558.1944	563.6176	616.9768	626.6108	705.8325	776.5976	805.358	871.9354	895.7691	941.5996	978.0921	1018.5393	1039.7555	1045.7454	1057.3506	1085.0382	1102.8473	1140.5444	1193.4387	1201.7191	1212.1247	1257.0846	1270.546	1318.3771	1347.4349	1371.0268	1439.2339	1457.3388	1480.2499	1500.1138	2230.551	3036.381	3058.0243	3066.2559	3121.7835	3125.5722	3129.1336	3202.4292	3218.0661	3503.3942	3800.028
OC1CC(C#C)C11CC1	O[C@H]1C[C@@H](C#C)C21CC2	
InChI=1S/C8H10O/c1-2-6-5-7(9)8(6)3-4-8/h1,6-7,9H,3-5H2	InChI=1S/C8H10O/c1-2-6-5-7(9)8(6)3-4-8/h1,6-7,9H,3-5H2/t6-,7+/m1/s1
