22
gdb 113946	3.95543	0.75961	0.75004	1.785	83.77	-0.2339	0.0908	0.3247	1659.7949	0.192801	-404.297228	-404.287399	-404.286455	-404.333227	35.61	
C	-0.5069227077	 1.2939250612	 0.4201731149	-0.374927
C	 0.3977983986	 0.1650735248	-0.0895249582	-0.214983
C	 1.0165862799	-0.6107734814	 1.0501459573	 0.076627
O	 0.164125171	-1.4969477616	 1.788420694	-0.265819
C	 1.2719931294	-2.0598536864	 1.0698860928	 0.063385
C	 0.950851127	-3.009151932	-0.0589118892	-0.187861
N	 0.7510318358	-4.3546179306	 0.4705367765	-0.068693
C	-0.5936872184	-4.6495491304	 0.9611313362	-0.209545
C	-0.1049973179	-5.2359112211	-0.3169578888	-0.224685
H	 0.0535005363	 2.0019860063	 1.0404638843	 0.116009
H	-0.9471591717	 1.85266382	-0.4108445187	 0.11321
H	-1.3200506297	 0.8873392638	 1.0287360974	 0.134246
H	-0.1770744663	-0.5063419361	-0.7334750314	 0.103298
H	 1.206912361	 0.5815674323	-0.7037893167	 0.101184
H	 1.6581876193	-0.0025728775	 1.694212301	 0.084055
H	 2.0741271797	-2.4195055734	 1.7166736173	 0.096601
H	 0.0728558386	-2.6451530806	-0.6167023964	 0.087761
H	 1.7983671776	-3.0438676496	-0.7560540295	 0.106299
H	-0.6419651778	-5.2542644585	 1.861845785	 0.11716
H	-1.3377007633	-3.8584667817	 0.9028669708	 0.123216
H	-0.5302494908	-4.8441207344	-1.2399993992	 0.106968
H	 0.2068992395	-6.2752325732	-0.3667550094	 0.116492
40.4621	69.5585	87.8047	114.8863	199.1041	225.8145	277.436	334.533	367.7495	449.3218	500.0745	551.511	743.9958	770.7755	819.4136	820.415	835.2437	903.7543	931.8023	964.4254	1015.0189	1025.4964	1039.93	1054.8779	1107.3257	1111.9801	1116.0975	1119.4495	1165.2796	1172.0649	1183.0663	1197.8039	1274.4152	1292.3204	1302.7517	1319.9987	1338.1998	1360.2512	1409.5411	1420.1127	1470.2709	1478.9128	1492.3734	1496.8499	1498.6332	1509.7545	1522.4217	2966.5679	3028.4941	3036.7569	3040.1221	3063.2709	3085.6899	3093.6382	3101.184	3108.5049	3109.0636	3117.0539	3178.7752	3197.4447
CCC1OC1CN1CC1	CC[C@H]1O[C@H]1CN1CC1	
InChI=1S/C7H13NO/c1-2-6-7(9-6)5-8-3-4-8/h6-7H,2-5H2,1H3	InChI=1S/C7H13NO/c1-2-6-7(9-6)5-8-3-4-8/h6-7H,2-5H2,1H3/t6-,7+/m1/s1
