20
gdb 106786	2.66737	1.52452	1.15372	0.8717	79.67	-0.2218	0.0138	0.2356	1119.0184	0.17113	-403.130522	-403.121744	-403.1208	-403.163589	34.122	
C	-0.2318278076	 1.3230433897	 0.3306015052	-0.505527
C	 0.1311859447	-0.1259825527	 0.1234076435	 0.282399
C	 0.301343458	-0.6558520992	-1.3052559777	-0.305811
C	 1.3327179387	-1.7536635379	-1.1565913293	-0.079528
C	 1.7604219621	-1.8728715062	 0.1011530825	-0.116058
C	 1.056410443	-0.9054912535	 1.0001864299	 0.238798
C	 1.776327462	-0.3747017016	 2.2306678333	-0.200353
O	 0.9164436133	 0.2239881563	 3.1925818074	-0.405266
N	-0.4164549277	-1.1614814293	 1.0404098497	-0.418105
H	 0.4552810256	 1.9801422845	-0.2145653653	 0.11673
H	-1.2431558206	 1.5272018648	-0.041419736	 0.119719
H	-0.1933111184	 1.5925402658	 1.3888605068	 0.141337
H	-0.6466009923	-1.0360756181	-1.7051335863	 0.117707
H	 0.6427053541	 0.1330950066	-1.9894195367	 0.100718
H	 1.6448406176	-2.3770587308	-1.9870555469	 0.095418
H	 2.489614399	-2.5906927432	 0.4606718014	 0.089452
H	 2.3584654764	-1.1901267987	 2.6848532813	 0.099973
H	 2.4917931332	 0.4021453409	 1.9383577542	 0.123772
H	 0.5121212788	-0.4813480697	 3.7071066296	 0.291922
H	-0.7789696998	-0.6552162375	 1.8505883533	 0.212703
74.6894	179.7853	201.8657	215.3066	239.3008	312.0029	346.0379	365.6209	422.7571	471.3838	525.4014	600.6632	691.0947	711.8967	750.9177	781.5059	884.9781	925.2398	949.6131	958.3597	973.7397	986.9893	1033.3653	1074.212	1083.4266	1106.4853	1115.1231	1158.7743	1194.3298	1213.1279	1258.0972	1290.3308	1346.9305	1378.4199	1395.6544	1408.0962	1417.9028	1428.5275	1464.6513	1495.6571	1500.8112	1504.9897	1671.032	2994.372	3014.2218	3025.5227	3055.4394	3062.5631	3080.221	3122.9325	3180.8475	3206.3394	3440.4586	3825.194
CC12CC=CC1(CO)N2	C[C@@]12CC=C[C@]1(CO)N2	
InChI=1S/C7H11NO/c1-6-3-2-4-7(6,5-9)8-6/h2,4,8-9H,3,5H2,1H3	InChI=1S/C7H11NO/c1-6-3-2-4-7(6,5-9)8-6/h2,4,8-9H,3,5H2,1H3/t6-,7-/m1/s1
