19
gdb 98337	4.26162	0.79316	0.72632	1.8014	78.37	-0.262	0.0102	0.2721	1581.3588	0.155701	-423.032694	-423.022033	-423.021089	-423.069533	36.941	
C	-0.1781365086	 1.347138911	 0.0204014966	-0.243632
O	-0.0873561743	-0.0808578595	 0.107062007	-0.240126
C	 0.7108280018	-0.5512317596	 1.0864811787	 0.453666
O	 1.3057638627	 0.1590820726	 1.8590506633	-0.361792
C	 0.761350692	-2.0705638619	 1.0608735485	-0.109288
C	 1.5496296902	-2.5519570629	-0.1711927118	-0.400642
C	 1.3612623722	-2.5900816598	 2.3857844631	-0.359831
C	 1.3166272466	-4.0428744911	 2.4923037501	 0.290419
C	 1.2647015784	-5.2418506259	 2.5644524447	-0.433636
H	 0.8045951269	 1.7857637918	-0.1704034573	 0.141087
H	-0.8552025116	 1.5516377463	-0.808922124	 0.134176
H	-0.5733838538	 1.7648620116	 0.9497216812	 0.141919
H	-0.2692717602	-2.4301822277	 0.9682228029	 0.112571
H	 1.0805369476	-2.2014629357	-1.0930570744	 0.131283
H	 2.5790213334	-2.1784914738	-0.1431526549	 0.125196
H	 1.5839577466	-3.6439066657	-0.1853307897	 0.139479
H	 2.394406962	-2.2346359785	 2.4729456587	 0.144673
H	 0.8229700961	-2.1406805204	 3.2276757282	 0.140458
H	 1.227528972	-6.2999089611	 2.6444166591	 0.194021
33.017	61.0482	110.8997	117.3172	146.974	209.85	235.7974	291.5677	303.3356	345.9181	353.264	408.2404	530.6331	618.8144	645.8576	686.0101	762.3514	846.5319	881.9709	900.2494	981.3663	1021.0199	1068.5743	1095.0658	1135.6518	1178.4281	1195.559	1214.4297	1253.894	1308.4233	1336.2726	1380.7867	1404.8502	1463.2961	1472.5385	1481.1891	1496.7824	1499.809	1503.2311	1813.1948	2237.8777	3041.6386	3042.245	3051.8157	3054.3462	3077.3395	3116.7231	3126.6139	3136.0489	3159.656	3506.6262
COC(=O)C(C)CC#C	COC(=O)[C@@H](C)CC#C	
InChI=1S/C7H10O2/c1-4-5-6(2)7(8)9-3/h1,6H,5H2,2-3H3	InChI=1S/C7H10O2/c1-4-5-6(2)7(8)9-3/h1,6H,5H2,2-3H3/t6-/m0/s1
