18
gdb 119555	3.05252	1.05445	0.87307	3.0771	72.55	-0.2454	0.0063	0.2518	1327.0251	0.14747	-439.072282	-439.063493	-439.062549	-439.106381	32.425	
O	 0.0661388671	 1.4632227461	-0.2313634293	-0.417624
C	 0.0169959362	 0.0469890456	-0.1940532561	-0.063835
C	-1.3973479152	-0.4805610635	 0.0933792091	-0.338993
C	-1.4380459258	-1.9810379822	 0.1225107503	 0.191069
C	-1.6146754222	-2.8768932026	-1.1143781498	-0.325501
C	-2.569046568	-2.9937167754	 0.0321855718	-0.069823
N	-1.98145517	-3.7506489571	 1.1432317926	-0.345651
C	-0.8729027276	-2.8833678151	 1.2160236365	 0.376118
O	 0.1105490457	-2.8934900426	 1.9022919991	-0.345794
H	-0.0612446114	 1.785990945	 0.6662572557	 0.283459
H	 0.341894085	-0.291213119	-1.1837810418	 0.112739
H	 0.72077967	-0.3694889576	 0.5405010128	 0.120689
H	-1.7353296872	-0.085894518	 1.0612070595	 0.10236
H	-2.0841422257	-0.0902802481	-0.6663150543	 0.109431
H	-1.971551058	-2.349073378	-1.9953734652	 0.12637
H	-0.9162698179	-3.6827701673	-1.3219367716	 0.123425
H	-3.6342961757	-2.8091928706	-0.0095859556	 0.119111
H	-1.8892264893	-4.7608579896	 1.1468731562	 0.242449
63.3534	100.2859	115.92	203.5325	263.2536	298.8186	330.9022	358.7991	454.0803	509.8647	604.2382	704.9588	739.7921	777.6819	796.4149	857.5281	905.5611	915.6931	971.0452	993.0363	1032.1939	1050.1821	1071.3242	1093.996	1095.9606	1128.3476	1169.8481	1247.5231	1277.1493	1310.3698	1322.4842	1329.6239	1390.1468	1407.0874	1419.6738	1481.3963	1489.032	1514.6912	1888.3376	3009.6532	3016.3821	3061.2924	3083.987	3111.2017	3197.5873	3208.6406	3539.8274	3819.3294
OCCC12CC1NC2=O	OCC[C@]12C[C@H]1NC2=O	
InChI=1S/C6H9NO2/c8-2-1-6-3-4(6)7-5(6)9/h4,8H,1-3H2,(H,7,9)	InChI=1S/C6H9NO2/c8-2-1-6-3-4(6)7-5(6)9/h4,8H,1-3H2,(H,7,9)/t4-,6+/m1/s1
