17
gdb 108887	4.50853	0.93855	0.85761	2.0436	77.49	-0.2194	0.0423	0.2616	1368.194	0.135793	-417.987034	-417.977847	-417.976903	-418.021971	32.507	
C	-0.0302272399	 1.5181519475	 0.1055570673	-0.328208
N	 0.0020867283	 0.0649998441	 0.1032263149	-0.369378
C	-1.1232878685	-0.6944376011	 0.0300089777	 0.509703
N	-1.177947806	-1.9152867947	-0.3492817382	-0.371442
C	-2.5687510505	-2.3442948368	-0.1344278026	-0.164392
C	-3.3179343825	-1.0284877704	 0.2615532647	-0.120024
O	-2.2594704386	-0.0742223428	 0.4565680913	-0.254218
C	-3.1589116666	-2.9913762953	-1.3043954262	 0.33831
C	-3.6781649699	-3.5143452351	-2.2535226222	-0.465087
H	 0.9432499005	 1.8909656582	 0.4328381904	 0.130569
H	-0.255858718	 1.9488290731	-0.8801681612	 0.123775
H	-0.7860785196	 1.8627318893	 0.8119262961	 0.15738
H	 0.7951617681	-0.379357468	-0.3322726767	 0.259686
H	-2.600560342	-3.0603563433	 0.6995050766	 0.108147
H	-3.9734950075	-0.6716649919	-0.5372260095	 0.125895
H	-3.8844541147	-1.1136487094	 1.190988918	 0.123054
H	-4.1207722025	-3.9836621033	-3.0969273504	 0.196231
38.3201	96.6461	113.9009	146.0785	185.7418	235.6342	276.2664	436.113	488.6901	530.3676	608.2822	617.9225	648.1806	695.4601	707.2866	739.2852	859.4752	935.6724	1001.5691	1038.5338	1052.4094	1072.3906	1090.3397	1153.4753	1193.4783	1223.6311	1277.0171	1330.6148	1365.3155	1419.7327	1458.413	1477.0666	1496.9466	1519.7637	1526.6551	1743.5823	2239.1061	2988.62	3005.7311	3063.2021	3097.7298	3119.7657	3149.7597	3504.1346	3637.7116
CNC1=NC(CO1)C#C	CNC1=N[C@@H](CO1)C#C	
InChI=1S/C6H8N2O/c1-3-5-4-9-6(7-2)8-5/h1,5H,4H2,2H3,(H,7,8)	InChI=1S/C6H8N2O/c1-3-5-4-9-6(7-2)8-5/h1,5H,4H2,2H3,(H,7,8)/t5-/m1/s1
