19
gdb 61907	3.59279	0.83016	0.71084	3.9779	79.39	-0.2336	0.052	0.2856	1574.6403	0.157664	-419.210183	-419.199689	-419.198745	-419.246515	37.207	
C	-0.0965219337	 1.4793813804	 0.045210968	-0.357948
N	-0.0424290288	 0.029961695	-0.0185809482	-0.081999
C	-0.0029875157	-0.7268631313	 1.224101458	-0.169985
C	-1.411688049	-1.1229333504	 1.7256980211	-0.346726
C	-1.3640945813	-1.8024812621	 3.0124192606	 0.295772
C	-1.2822716161	-2.3535201203	 4.0777285137	-0.443344
C	-0.1082319871	-0.6829504163	-1.1933668286	 0.437115
N	-0.0665417353	 0.0752695464	-2.3616767221	-0.571661
O	-0.2369835798	-1.8969941855	-1.2176892815	-0.409697
H	 0.9003590721	 1.9450222258	 0.0241894165	 0.120544
H	-0.6884909338	 1.877165616	-0.782407162	 0.147018
H	-0.5846215659	 1.7865976119	 0.9744531215	 0.137335
H	 0.5788363557	-1.6348105245	 1.0595542415	 0.147639
H	 0.5078310583	-0.1249068988	 1.9813239497	 0.108932
H	-2.04086531	-0.2266723152	 1.8021499956	 0.121637
H	-1.8642849347	-1.769776818	 0.966831014	 0.160663
H	-1.2285452465	-2.8493305136	 5.0149319284	 0.193941
H	 0.5232213606	 0.8936134849	-2.3766309101	 0.250435
H	 0.0456399511	-0.5171263444	-3.171070386	 0.260329
56.7837	77.6011	82.7887	110.7411	145.9527	164.983	296.7705	346.2581	361.2676	400.3311	441.8887	462.3193	563.1304	580.8521	605.0141	617.5949	642.9299	763.4015	784.2696	796.8909	970.8845	1017.6558	1029.7052	1060.6145	1103.9496	1147.1916	1173.3356	1268.7294	1289.5273	1300.1622	1352.5408	1401.1716	1429.8446	1462.8061	1477.9786	1494.2231	1503.3752	1526.693	1624.1541	1775.3377	2238.0125	2989.7817	3026.0688	3060.5912	3078.8239	3081.5546	3121.452	3132.4401	3507.7797	3573.8051	3684.4175
CN(CCC#C)C(N)=O	CN(CCC#C)C(=O)N	
InChI=1S/C6H10N2O/c1-3-4-5-8(2)6(7)9/h1H,4-5H2,2H3,(H2,7,9)	InChI=1S/C6H10N2O/c1-3-4-5-8(2)6(7)9/h1H,4-5H2,2H3,(H2,7,9)
