18
gdb 64716	3.90124	1.1161	1.05085	5.2192	75.64	-0.2518	0.0297	0.2814	1182.4453	0.146405	-401.925162	-401.916655	-401.915711	-401.958318	32.264	
C	-0.0375769875	 1.6259797359	 0.1171836899	-0.447818
C	 0.037612669	 0.1099844344	 0.1089988299	 0.398486
C	-1.3221340291	-0.5489636716	-0.203364524	-0.374951
C	-1.8894273718	-0.1212712053	-1.4797152662	 0.275701
N	-2.3433366504	 0.2273490594	-2.4833139156	-0.31177
O	 1.0328260389	-0.3993342052	-0.8336181522	-0.323491
C	 1.6232051865	-1.2007401343	 0.1936386952	 0.105848
C	 2.2127900024	-0.3421219215	 1.2628412808	-0.316888
C	 0.7251614495	-0.6305618246	 1.2661486442	-0.170296
H	 0.9261702797	 2.0622366035	 0.3855047665	 0.127624
H	-0.3199717924	 1.9972186646	-0.8721731055	 0.156091
H	-0.7865609426	 1.9685073851	 0.8389702927	 0.121413
H	-1.1949115422	-1.6358422191	-0.2175737355	 0.154454
H	-2.0355450267	-0.3122292145	 0.5955176455	 0.147469
H	 1.9267221085	-2.2097392645	-0.0581840298	 0.111102
H	 2.7627392232	-0.8696261235	 2.0363267629	 0.121939
H	 2.6018431138	 0.639827108	 1.0119094286	 0.12366
H	 0.2149128814	-1.1061644567	 2.0936086725	 0.101427
67.4235	127.3897	199.0075	212.5427	258.1882	332.2561	373.0719	399.1664	428.3664	483.0967	565.2619	698.229	762.0551	809.3223	847.3219	888.6033	904.4614	948.8228	969.3671	978.131	981.3662	1031.0093	1048.9144	1059.9278	1086.5388	1117.0827	1160.744	1208.618	1210.719	1282.4908	1287.5945	1346.1226	1355.3248	1416.2095	1454.9679	1471.8324	1485.3448	1494.3763	2364.3522	3041.0355	3046.6274	3092.3383	3115.8262	3121.8688	3136.7298	3184.5352	3197.1661	3212.8217
CC1(CC#N)OC2CC12	C[C@@]1(CC#N)O[C@H]2C[C@@H]12	
InChI=1S/C7H9NO/c1-7(2-3-8)5-4-6(5)9-7/h5-6H,2,4H2,1H3	InChI=1S/C7H9NO/c1-7(2-3-8)5-4-6(5)9-7/h5-6H,2,4H2,1H3/t5-,6+,7+/m1/s1
