20
gdb 12570	2.97457	1.80229	1.23018	0.4679	70.6	-0.2436	0.0731	0.3166	1011.6748	0.17884	-386.139407	-386.131368	-386.130424	-386.171782	30.744	
O	-0.1481688967	 1.4938546677	-0.1959015507	-0.432057
C	 0.00273383	 0.0892423041	 0.0001726076	 0.103311
C	-1.4134155157	-0.4707591128	 0.1428383328	-0.193395
C	-1.5309413013	-1.8544074863	 0.8075409702	-0.210262
C	-0.5119646094	-2.9344740736	 0.3711852058	-0.194766
C	 0.0860008334	-2.7932153122	-1.0329276545	-0.069341
O	 1.1447330404	-1.8476771028	-1.0817098461	-0.243418
C	 0.759749923	-0.4984824382	-1.2048064294	-0.094873
H	 0.7291242618	 1.8809192956	-0.2832929006	 0.282283
H	 0.580679025	-0.1151175653	 0.9166957822	 0.067998
H	-1.9917044208	 0.2514098489	 0.7282365706	 0.108452
H	-1.872906576	-0.4858360276	-0.8533692245	 0.098438
H	-1.4578802913	-1.735517733	 1.8947348562	 0.101954
H	-2.5472062299	-2.219515847	 0.6202705592	 0.099705
H	 0.3401518566	-2.9488055084	 1.0602060788	 0.10939
H	-0.984137109	-3.9209755163	 0.4514026993	 0.094364
H	 0.5396326545	-3.7454194461	-1.3274322869	 0.104323
H	-0.6836827323	-2.5498731938	-1.783077453	 0.087683
H	 0.1432037658	-0.3395089146	-2.1058246803	 0.091982
H	 1.6960616719	 0.0571102015	-1.3430250567	 0.08823
71.1847	169.1416	194.3738	296.0658	307.0551	335.1293	353.2615	402.8652	460.3627	532.757	558.9128	750.6944	805.2492	862.1538	917.95	921.4649	978.6812	1009.2425	1038.3029	1069.6101	1080.7791	1117.5806	1129.0858	1168.295	1211.8656	1231.515	1273.7636	1279.1735	1302.2436	1332.9152	1346.5206	1361.399	1377.7414	1391.7224	1401.5672	1415.9303	1444.5766	1476.6805	1485.0183	1491.0432	1498.6327	1511.3343	2960.3284	2971.1839	2978.1387	3024.5595	3028.5109	3037.3478	3044.9501	3054.7959	3068.7628	3075.3054	3083.6206	3810.1503
OC1CCCCOC1	O[C@H]1CCCCOC1	
InChI=1S/C6H12O2/c7-6-3-1-2-4-8-5-6/h6-7H,1-5H2	InChI=1S/C6H12O2/c7-6-3-1-2-4-8-5-6/h6-7H,1-5H2/t6-/m0/s1
