17
gdb 73241	2.21302	1.92078	1.45027	3.2178	67.17	-0.2628	-0.0004	0.2625	961.6456	0.136945	-458.995591	-458.987913	-458.986969	-459.027795	29.55	
O	 0.0365109363	 1.3873566895	 0.0324948139	-0.477444
C	-0.0107424056	-0.009580504	-0.0512039013	 0.291846
C	 0.2844916878	-0.6954190324	-1.4114101628	-0.294808
C	-0.9300858412	-1.6325423613	-1.1593498776	-0.240092
C	-1.3803474031	-0.721868415	 0.025067851	-0.079818
C	-1.412595428	-1.3648358073	 1.4091959461	-0.107387
O	-0.0339517757	-1.4517862527	 1.8409779887	-0.222815
C	 0.7590097103	-0.6239808455	 1.1237292666	 0.385429
O	 1.8980993597	-0.3841129444	 1.4152357486	-0.363277
H	 0.9318646998	 1.6214207268	 0.3129221616	 0.293828
H	 0.1011203059	 0.0158547019	-2.2203472688	 0.118755
H	 1.2700279069	-1.1471923606	-1.5439838326	 0.117135
H	-1.6416463009	-1.7279133571	-1.9803033868	 0.113328
H	-0.6432853061	-2.6352814281	-0.8313096614	 0.114611
H	-2.2486910267	-0.0985916378	-0.1858551474	 0.097402
H	-1.9555072726	-0.7605337361	 2.1436165978	 0.126551
H	-1.8208452468	-2.3785565362	 1.4111149545	 0.126754
84.36	161.776	212.0128	274.1316	290.7136	383.3727	397.6054	510.6114	580.4541	641.8508	702.8821	734.5435	762.9667	817.8646	844.3252	887.2217	942.5768	997.4546	1005.255	1059.6818	1073.2229	1097.0082	1139.3601	1156.3975	1188.3008	1219.0322	1235.5111	1240.0746	1267.9314	1309.0276	1328.9938	1386.1248	1404.0265	1476.7009	1494.9084	1516.2253	1864.0982	3049.1377	3066.1006	3069.5684	3104.7455	3115.563	3124.3937	3135.3947	3758.6075
OC12CCC1COC2=O	O[C@]12CC[C@H]1COC2=O	
InChI=1S/C6H8O3/c7-5-6(8)2-1-4(6)3-9-5/h4,8H,1-3H2	InChI=1S/C6H8O3/c7-5-6(8)2-1-4(6)3-9-5/h4,8H,1-3H2/t4-,6+/m0/s1
