18
gdb 49383	3.48759	1.49898	1.3441	2.654	76.67	-0.2357	-0.0319	0.2038	991.521	0.149229	-401.88525	-401.878199	-401.877255	-401.917081	27.96	
O	-0.2160421604	-0.0153822164	 0.2430135839	-0.254761
C	-0.0570264891	 1.1319782949	-0.0893574035	 0.129806
C	 1.1667481905	 1.9689682265	 0.111374108	-0.085927
C	 1.5484200684	 3.005110523	 1.1312862985	-0.054015
C	 1.160615382	 2.9393006921	 2.6113091398	-0.055822
C	 2.5407921132	 2.4256204733	 3.1736606923	-0.206576
C	 2.1335800712	 1.1725482121	 2.3334893829	 0.017395
C	 0.6850585035	 1.4804912801	 2.8040388275	-0.245507
N	 2.3392208413	 1.7486342384	 0.9597792751	-0.128067
H	-0.8216143445	 1.6628432529	-0.7037103102	 0.079664
H	 1.4847131624	 2.2762744798	-0.8921323637	 0.117879
H	 1.9947748061	 3.9266408682	 0.7643329311	 0.099859
H	 0.6331242795	 3.7948094214	 3.0311728079	 0.070844
H	 3.4481958537	 2.9482513153	 2.8629336784	 0.105649
H	 2.5302713473	 2.258603548	 4.2522416073	 0.101405
H	 2.5992203102	 0.1956085792	 2.4436783322	 0.084279
H	 0.5717263418	 1.2413266254	 3.862965501	 0.102759
H	-0.1714478871	 1.100726246	 2.2591669315	 0.121137
72.1263	126.5512	230.2517	322.8202	430.4378	538.941	596.2904	648.3241	683.4105	720.7848	800.29	831.135	836.7563	861.7155	874.5636	892.3099	947.0631	988.9078	1022.8544	1036.9043	1047.4536	1053.1692	1075.9713	1091.9837	1114.463	1127.3236	1138.6639	1213.7797	1233.8812	1241.0011	1274.9883	1279.2258	1302.5145	1361.489	1408.2465	1426.6486	1488.0825	1539.3354	1816.0404	2856.2713	3042.0483	3069.4727	3095.2678	3122.4921	3133.9446	3137.7894	3146.0403	3203.8319
O=CC1C2C3CC(C3)N12	O=C[C@H]1[C@H]2[C@@H]3C[C@@H](C3)N12	
InChI=1S/C7H9NO/c9-3-6-7-4-1-5(2-4)8(6)7/h3-7H,1-2H2	InChI=1S/C7H9NO/c9-3-6-7-4-1-5(2-4)8(6)7/h3-7H,1-2H2/t4-,5+,6-,7+,8?/m0/s1
