16
gdb 13548	2.7937	1.8523	1.27023	4.5009	65.02	-0.2665	0.0194	0.2859	966.8279	0.129668	-379.899487	-379.890839	-379.889895	-379.93331	30.489	
C	 0.0437025037	 1.466933178	-0.3674574252	-0.447359
C	-0.1285972874	 0.070307959	 0.1680877405	 0.072689
O	 0.9955561299	-0.8289073324	 0.1397921155	-0.253012
C	 0.4306621312	-0.5074894297	 1.4049967959	 0.049507
C	 1.3523272896	 0.0943227346	 2.4667910501	-0.17321
N	 2.2605416311	-0.9018922482	 3.053792657	-0.497911
C	 2.1735814344	 1.225549591	 2.0089531114	 0.32975
N	 2.8326038434	 2.1152810282	 1.6811729503	-0.32885
H	 0.9895103539	 1.9183264913	-0.0744348788	 0.172402
H	-0.0034032324	 1.4418200679	-1.4610883155	 0.132897
H	-0.7767302088	 2.1022796498	-0.016216437	 0.125448
H	-1.0510311264	-0.4114773062	-0.1664324637	 0.09555
H	-0.1438049366	-1.325080073	 1.8535637231	 0.089915
H	 0.7163783377	 0.4731311719	 3.2781345542	 0.139033
H	 1.7115670917	-1.6351288695	 3.493607593	 0.238942
H	 2.7943138051	-1.3406217629	 2.3074808192	 0.25421
30.6091	140.6226	158.8152	212.465	227.4193	247.1613	296.7792	390.9938	406.0971	506.5026	608.0919	685.3611	751.1375	785.6927	872.8775	890.3016	958.9278	1017.9539	1057.838	1084.731	1132.1989	1174.4095	1190.9099	1199.1624	1298.1314	1335.1712	1384.5021	1408.4871	1430.009	1467.2394	1497.1094	1510.4521	1656.8259	2368.0098	3029.7352	3044.0778	3048.8197	3076.6767	3100.2179	3178.7094	3485.6321	3570.996
CC1OC1C(N)C#N	C[C@H]1O[C@H]1[C@@H](N)C#N	
InChI=1S/C5H8N2O/c1-3-5(8-3)4(7)2-6/h3-5H,7H2,1H3	InChI=1S/C5H8N2O/c1-3-5(8-3)4(7)2-6/h3-5H,7H2,1H3/t3-,4+,5-/m1/s1
