19
gdb 26686	2.27223	1.53885	0.9327	1.8169	81.06	-0.1708	0.0554	0.2263	1258.3068	0.157668	-419.246273	-419.235428	-419.234484	-419.282786	37.643	
C	 0.0463386612	 1.5304222991	 0.0994676669	-0.510278
C	 0.0434058773	 0.0436522883	-0.0042357869	 0.222186
C	 0.0405834089	-0.7765322385	-1.110225306	 0.173816
O	 0.0404262336	-0.3084406969	-2.3999672511	-0.457767
C	 0.0386379034	-2.1401407946	-0.6904071361	 0.128659
C	 0.0354881553	-3.3477332136	-1.5749294206	-0.537255
C	 0.0403798924	-2.1126570475	 0.6937902921	 0.154376
N	 0.0397018857	-3.1229448242	 1.6865664176	-0.614826
N	 0.0433449269	-0.8006890558	 1.0894356834	-0.319626
H	 0.9329640225	 1.9143638096	 0.6212811513	 0.118313
H	 0.0433845843	 1.9592085827	-0.9052021699	 0.147528
H	-0.8351985111	 1.917187096	 0.6277490306	 0.11824
H	 0.0332907136	-1.0635751632	-2.9944238437	 0.291892
H	 0.9176412043	-3.3931715835	-2.2283199244	 0.119799
H	 0.0351872547	-4.2637049322	-0.9760202139	 0.111618
H	-0.8489610877	-3.3908765891	-2.2254105592	 0.119631
H	 0.8555813506	-3.7229628671	 1.6203840584	 0.240547
H	-0.7783230311	-3.7202110573	 1.6220515446	 0.24054
H	 0.044928855	-0.5212200824	 2.055056257	 0.252605
40.742	70.9144	115.9458	137.7148	153.5208	182.526	232.4634	242.7548	292.6587	302.6263	326.8191	473.13	538.801	589.8249	607.6366	640.7392	691.2427	737.0698	798.4993	860.7529	991.5469	1021.2676	1059.56	1063.1299	1150.6226	1203.3785	1223.1966	1229.8332	1291.6957	1348.1296	1410.8808	1417.4684	1479.9148	1483.7938	1487.2455	1494.7942	1499.7034	1514.8135	1574.4409	1654.4199	1688.3027	2999.5805	3005.6891	3038.2458	3044.6145	3092.8805	3124.0545	3495.2757	3557.857	3680.3792	3844.9648
CC1=C(O)C(C)=C(N)N1	Cc1c(O)c(C)c(N)[nH]1	
InChI=1S/C6H10N2O/c1-3-5(9)4(2)8-6(3)7/h8-9H,7H2,1-2H3	InChI=1S/C6H10N2O/c1-3-5(9)4(2)8-6(3)7/h8-9H,7H2,1-2H3
