16
gdb 27420	2.56542	1.70582	1.17847	5.0507	80.65	-0.2494	-0.0833	0.1661	1055.1525	0.125445	-396.949476	-396.941707	-396.940762	-396.981713	29.344	
C	-0.3366060264	 1.4577111565	 0.1203740632	-0.47092
C	-0.0352558673	-0.0047158638	-0.0985675639	 0.299156
N	-0.3737662249	-0.5393924735	-1.2149919118	-0.244432
C	-0.0305383166	-1.8724453005	-1.4891080491	 0.321261
N	 0.7457273056	-2.1518164909	-2.4502201291	-0.479114
N	-0.7064088501	-2.8420320085	-0.7121559915	-0.21959
C	-0.4270106248	-2.9146943156	 0.5371385432	-0.014872
C	 0.4163226712	-2.0127768751	 1.3100286541	-0.089984
C	 0.6049027829	-0.7070774501	 1.0192515727	-0.112612
H	 0.5942202409	 2.0134339762	 0.2852890016	 0.140305
H	-0.8456606988	 1.8646476691	-0.7529714219	 0.154484
H	-0.9590881408	 1.6047683239	 1.0099362146	 0.137142
H	 0.8252103274	-3.1665215878	-2.5396654852	 0.222074
H	-0.8872615156	-3.7337736494	 1.0953179551	 0.12354
H	 0.814844451	-2.4052819682	 2.242166533	 0.118269
H	 1.1510395763	-0.0912419121	 1.7298021649	 0.115293
118.8856	136.7237	171.9504	251.0215	309.3352	378.577	419.616	466.0422	520.2276	626.5817	661.5223	695.5198	795.4664	849.9337	858.8117	879.3179	937.8973	959.8414	985.0194	1014.0085	1023.4929	1055.3743	1095.5661	1218.8862	1230.9153	1321.6406	1399.0975	1411.9237	1446.321	1471.9615	1480.2964	1595.6023	1671.2971	1696.3836	1733.0667	3034.3229	3089.2817	3098.9543	3152.2509	3159.0127	3172.7608	3469.4518
CC1=NC(=N)N=CC=C1	CC1=N[C]([NH])N=CC=C1	
InChI=1S/C6H7N3/c1-5-3-2-4-8-6(7)9-5/h2-4,7H,1H3	InChI=1S/C6H7N3/c1-5-3-2-4-8-6(7)9-5/h2-4,7H,1H3
