15
gdb 64639	2.31135	1.6339	1.38843	5.1679	72.86	-0.2283	-0.0258	0.2025	989.393	0.113818	-413.002059	-412.993687	-412.992743	-413.034947	31.245	
N	-0.0738145541	 1.4892696818	-0.0036350697	-0.537558
C	 0.0301075813	 0.0295815308	 0.0164098365	 0.053679
C	 0.6074252033	-0.522537062	 1.310875302	-0.155046
C	-0.3163250132	-1.284359886	 1.8980936641	-0.021299
N	-1.497862151	-1.3483048998	 1.1466631225	-0.356099
C	-1.4144812921	-0.5412393861	 0.027026872	 0.393957
N	-2.2659229375	-0.2228124613	-0.8551324582	-0.529612
C	 0.7773609842	-0.5119232641	-1.1430238515	 0.255442
N	 1.4048301903	-0.887851729	-2.0389631334	-0.345354
H	 0.8341583495	 1.9018861037	-0.1970953182	 0.241055
H	-0.7001928459	 1.7447668111	-0.7649362903	 0.255972
H	 1.6129199305	-0.3357281209	 1.6509509438	 0.124042
H	-0.2531479882	-1.8370441659	 2.8247252954	 0.141243
H	-2.3618803532	-1.7384595076	 1.4821795592	 0.261188
H	-3.1820853038	-0.6411883548	-0.6922960043	 0.218391
73.8213	141.5219	180.0909	254.1134	256.2085	328.712	349.6607	409.4019	505.7298	548.4887	571.9958	640.8416	680.1375	713.7877	747.6701	816.6414	847.6196	896.5914	914.771	996.6922	1059.0722	1069.6779	1093.7342	1132.3188	1198.3923	1274.9151	1331.7431	1380.5183	1425.3379	1637.0002	1675.4818	1765.4705	2339.7962	3238.9607	3274.8894	3475.4072	3476.9474	3567.2334	3668.9573
NC1(C=CNC1=N)C#N	N[C@]1(C=CN[C]1[NH])C#N	
InChI=1S/C5H6N4/c6-3-5(8)1-2-9-4(5)7/h1-2H,8H2,(H2,7,9)	InChI=1S/C5H6N4/c6-3-5(8)1-2-9-4(5)7/h1-2H,8H2,(H2,7,9)/t5-/m1/s1
