21
gdb 75009	3.15571	1.32064	1.15441	1.4108	84.14	-0.2314	0.0278	0.2592	1167.502	0.184784	-387.122657	-387.114596	-387.113652	-387.155433	31.539	
C	 0.116976747	 1.4906954327	 0.0493893578	-0.490791
C	 0.0951289941	-0.0041793764	-0.0115212919	 0.323322
C	-0.0341613747	-0.768115766	-1.0991575354	-0.178317
C	-0.0133694842	-2.2473395868	-0.8056201353	-0.083126
C	 1.1649587884	-3.0140570426	-1.4457400644	-0.2263
C	 2.2802156068	-2.7810536081	-0.4256003153	-0.073919
O	 1.6375932041	-2.8168075695	 0.8432834806	-0.268263
C	 0.3079469958	-2.3042778916	 0.7223794418	 0.107673
C	 0.1927967455	-0.8497254116	 1.2394007837	-0.316112
H	 1.049318337	 1.8531272816	 0.5008290519	 0.126592
H	 0.0214547299	 1.9394449928	-0.9431527499	 0.121486
H	-0.6984829569	 1.8732456827	 0.6767876694	 0.124475
H	-0.1404882278	-0.3852262897	-2.109966298	 0.081351
H	-0.9697708743	-2.7216578611	-1.0527596111	 0.074932
H	 0.9332600768	-4.0817153939	-1.5148025891	 0.101881
H	 1.416154295	-2.6517900637	-2.4463455923	 0.097623
H	 3.0530130742	-3.5552317238	-0.4308521528	 0.102811
H	 2.7663302527	-1.8074804582	-0.5931325295	 0.090212
H	-0.3426603421	-2.9849474314	 1.2797502755	 0.073108
H	 1.0609112942	-0.601588426	 1.8615215195	 0.112479
H	-0.6945059815	-0.7133080195	 1.8735073748	 0.098883
71.5882	124.3171	188.2476	236.4972	287.889	380.474	407.7197	456.788	583.0298	604.5824	642.4163	802.6717	815.0841	859.211	869.3041	879.3852	903.9972	926.7195	981.4432	986.5696	1016.7837	1021.1417	1041.718	1061.7627	1103.4388	1115.4819	1165.5847	1186.069	1216.4297	1225.3179	1268.6942	1283.8119	1289.7689	1313.2683	1335.9207	1363.4893	1371.7457	1397.8513	1413.8718	1471.5212	1479.417	1485.4601	1489.3552	1520.9096	1720.7136	2984.7167	3008.3145	3016.9896	3033.5101	3051.2003	3056.4721	3061.6505	3062.561	3082.7159	3103.4988	3109.1677	3172.7501
CC1=CC2CCOC2C1	CC1=C[C@H]2CCO[C@H]2C1	
InChI=1S/C8H12O/c1-6-4-7-2-3-9-8(7)5-6/h4,7-8H,2-3,5H2,1H3	InChI=1S/C8H12O/c1-6-4-7-2-3-9-8(7)5-6/h4,7-8H,2-3,5H2,1H3/t7-,8+/m1/s1
