16
gdb 43838	3.13613	1.51355	1.1782	4.2403	69.95	-0.2412	0.0066	0.2479	1034.1194	0.124927	-437.884145	-437.876822	-437.875878	-437.915904	28.754	
O	 0.0099342911	-0.025259409	-0.0956112235	-0.377977
C	 0.0038727154	 1.1831770327	-0.0373171962	 0.428329
N	-1.0980097979	 1.9950243847	 0.0873211771	-0.403354
C	-0.8275609189	 3.4092840114	 0.0598985849	 0.388333
C	-1.6939145711	 4.3681658116	-0.7149112676	-0.319104
C	-1.6797112803	 4.3994319213	 0.80047769	-0.318844
C	 0.6726278206	 3.4929000514	 0.0074071772	-0.038866
O	 1.314686175	 2.8874604745	 1.1290593298	-0.24639
C	 1.1967931173	 2.1240830296	-0.086711708	-0.106827
H	-1.9989731271	 1.6053388048	 0.3152787478	 0.254888
H	-1.2095116665	 5.1756903718	-1.2546872657	 0.123964
H	-2.5705275	 3.9620506137	-1.2076256401	 0.123672
H	-2.5512188809	 4.017395988	 1.3217954467	 0.123741
H	-1.187496067	 5.2237836903	 1.3046187705	 0.132795
H	 1.1613052057	 4.3627816915	-0.4206103405	 0.113015
H	 2.1195307046	 1.8231407715	-0.5694994024	 0.122626
101.944	167.9748	252.8398	279.8933	385.9187	439.0793	456.605	503.529	560.2039	631.773	751.4386	763.7724	844.3877	862.4456	883.3384	899.719	922.718	942.2723	970.6444	993.3136	1026.7239	1063.6681	1076.1525	1094.9158	1186.8477	1234.7265	1249.9036	1276.138	1318.2684	1340.0689	1394.0005	1453.9514	1462.3874	1506.7335	1836.9956	3129.3636	3134.5181	3165.3982	3192.577	3211.8045	3226.174	3641.5342
O=C1NC2(CC2)C2OC12	O=C1NC2(CC2)[C@H]2O[C@@H]12	
InChI=1S/C6H7NO2/c8-5-3-4(9-3)6(7-5)1-2-6/h3-4H,1-2H2,(H,7,8)	InChI=1S/C6H7NO2/c8-5-3-4(9-3)6(7-5)1-2-6/h3-4H,1-2H2,(H,7,8)/t3-,4+/m1/s1
