18
gdb 36694	4.96974	0.74365	0.71189	5.2433	76.1	-0.2658	0.0358	0.3017	1558.4213	0.147534	-401.924442	-401.916002	-401.915058	-401.95849	30.916	
N	-0.0206003719	-1.1871428735	-0.0965058665	-0.303845
C	-0.0114992423	-0.0357858341	 0.0018828933	 0.258633
C	 0.0199032392	 1.4204463962	 0.1181906675	-0.341809
C	 1.4225043893	 2.0073329779	-0.1411444711	-0.199814
C	 1.4395543422	 3.5266513639	-0.0258621461	-0.020957
C	 1.2394677967	 4.1901355717	 1.3937216382	-0.275371
C	 2.6240993795	 4.8296760192	 1.2341491879	 0.038389
O	 3.5621014399	 3.7613540592	 1.0582711134	-0.240961
C	 2.8215569725	 4.2059485194	-0.0831282482	 0.002786
H	-0.7051826829	 1.8386073656	-0.5903725159	 0.148685
H	-0.3283621866	 1.6951967821	 1.1206072636	 0.154399
H	 2.1356407501	 1.58535718	 0.5728200101	 0.138752
H	 1.7546866382	 1.7071362537	-1.1416673814	 0.119242
H	 0.7559631067	 3.9799189876	-0.7522331534	 0.081068
H	 0.4197513048	 4.9116979218	 1.4097022503	 0.11162
H	 1.1479931431	 3.5126710651	 2.2471303206	 0.112668
H	 3.0032208936	 5.7593172462	 1.6414071405	 0.110415
H	 3.3899342079	 4.5248857281	-0.9494851929	 0.106101
62.4441	92.2069	102.9487	194.838	228.3945	345.4319	395.133	426.4297	505.126	598.2682	724.4694	765.3799	820.2373	842.5627	873.3811	888.3244	924.1837	959.662	971.8464	1006.0337	1026.5409	1054.6014	1080.0917	1113.8818	1152.3803	1208.0255	1226.2101	1239.4355	1241.5692	1269.2321	1290.3439	1316.2438	1356.4918	1381.8026	1401.6617	1467.5544	1474.2617	1496.814	2362.6755	3035.8334	3046.6808	3048.7106	3063.1869	3072.9541	3104.6557	3122.5718	3180.4444	3197.7494
N#CCCC1CC2OC12	N#CCC[C@H]1C[C@H]2O[C@@H]12	
InChI=1S/C7H9NO/c8-3-1-2-5-4-6-7(5)9-6/h5-7H,1-2,4H2	InChI=1S/C7H9NO/c8-3-1-2-5-4-6-7(5)9-6/h5-7H,1-2,4H2/t5-,6+,7-/m0/s1
