20
gdb 71600	2.09063	1.97934	1.67719	1.4454	78.49	-0.2364	0.0747	0.3111	969.8835	0.171845	-403.10144	-403.093426	-403.092482	-403.133325	32.288	
C	 0.0273529662	 1.5276668576	-0.0476921745	-0.503009
C	-0.0268166676	 0.0190811676	-0.0246170771	 0.341989
C	 0.7245524147	-0.6990981658	-1.1485786036	-0.27882
C	 0.5512705411	-2.1689984211	-0.7002909019	-0.249738
C	-0.2510218774	-1.9274875158	 0.5647435989	-0.036819
N	 0.3754181972	-0.7196907919	 1.2940214708	-0.188999
C	-1.0273227175	-0.4158711864	 1.8245329279	-0.253043
C	-1.2928397214	-0.7894086434	 0.3581936776	 0.307442
O	-2.4644927912	-0.7787459883	-0.3869051803	-0.47505
H	 1.0657554522	 1.8677540805	 0.0253119455	 0.126907
H	-0.3801186691	 1.8964339915	-0.9949239763	 0.127644
H	-0.5386606329	 1.9968227949	 0.759908275	 0.12064
H	 0.2757421219	-0.4875570937	-2.1233929487	 0.106902
H	 1.7718805181	-0.3850506811	-1.1830837208	 0.104203
H	-0.0034288516	-2.7777402189	-1.4201615292	 0.103417
H	 1.5015019034	-2.6679800073	-0.4923574312	 0.107375
H	-0.4856368633	-2.7699557304	 1.2188452003	 0.0645
H	-1.3505164766	-1.1176010088	 2.5992088488	 0.092325
H	-1.1742724267	 0.6139052838	 2.1529548142	 0.101858
H	-3.0957517396	-1.384722303	 0.0166632745	 0.280277
161.5056	193.4254	200.7434	228.117	256.7355	352.2972	418.3875	451.3523	486.2862	624.8863	635.2112	685.5155	707.3265	786.3747	819.4862	843.5923	906.9613	914.3261	949.4546	984.1145	990.6482	1021.4252	1045.1893	1086.8105	1102.4032	1118.1334	1138.0798	1174.1341	1198.3627	1232.4543	1250.2558	1255.9179	1279.1172	1301.2289	1324.2666	1337.6989	1394.8015	1416.384	1473.0165	1489.7977	1491.9522	1498.1367	1540.2828	3039.7766	3052.8913	3058.8007	3061.3865	3090.8537	3097.4217	3101.414	3109.6858	3118.7436	3130.6198	3802.8681
CC12CCC3N1CC23O	C[C@@]12CC[C@H]3N1C[C@@]23O	
InChI=1S/C7H11NO/c1-6-3-2-5-7(6,9)4-8(5)6/h5,9H,2-4H2,1H3	InChI=1S/C7H11NO/c1-6-3-2-5-7(6,9)4-8(5)6/h5,9H,2-4H2,1H3/t5-,6+,7+/m1/s1
