23
gdb 64365	2.02146	1.77601	1.32828	1.4757	84.27	-0.2422	0.0767	0.3189	1115.024	0.205568	-388.286994	-388.277744	-388.2768	-388.321032	36.226	
C	 0.236305448	 1.5330787587	-0.1603817386	-0.417281
C	-0.0330747014	 0.0273797713	 0.0195786194	 0.193872
C	-1.5377705026	-0.2464607672	 0.0215628358	-0.454541
C	 0.7031175363	-0.7627904034	-1.0801978902	-0.10192
O	 2.0687396421	-0.7695229555	-0.6947790065	-0.260992
C	 2.1215120561	-0.8884545081	 0.7241240669	-0.142745
C	 0.7297814926	-0.5073249402	 1.2506160716	 0.328804
C	 0.5606919147	 0.0436535283	 2.6382324715	-0.324607
C	 0.0920917374	-1.3563034998	 2.3221397923	-0.32848
H	 1.3087491988	 1.7327086269	-0.2372980273	 0.127368
H	-0.2418897846	 1.9056631318	-1.0731523272	 0.106513
H	-0.1575818122	 2.1092940951	 0.6826165759	 0.109082
H	-1.9980249147	 0.1428033351	-0.8930819288	 0.114015
H	-1.7568317094	-1.3169445032	 0.0764555746	 0.117174
H	-2.0344772468	 0.2451111748	 0.865772977	 0.114868
H	 0.3046218825	-1.7895652344	-1.1455757144	 0.080223
H	 0.6375204965	-0.3014190875	-2.0703266841	 0.101474
H	 2.3879122919	-1.9165271017	 1.0136186176	 0.091354
H	 2.9126841794	-0.2203783766	 1.084768661	 0.103684
H	 1.4472751385	 0.1686283737	 3.2524785931	 0.110553
H	-0.1977862095	 0.8031195567	 2.8021728213	 0.111131
H	-0.9765669527	-1.5359213907	 2.2921581055	 0.112533
H	 0.6702811894	-2.189796194	 2.7097038735	 0.107919
28.4431	187.8017	219.4773	238.9392	239.4814	282.098	311.4977	339.6443	350.1788	412.6684	498.0743	522.2946	603.2119	703.01	781.1903	841.1784	877.6241	916.9679	930.5823	943.4071	951.0886	962.2772	983.3057	1010.5537	1038.8347	1059.2335	1082.9473	1090.8168	1110.6827	1189.9655	1192.6985	1202.7971	1226.4652	1239.0938	1266.3787	1296.9551	1325.7395	1369.1718	1396.476	1401.2452	1426.5197	1466.5525	1486.6571	1488.7372	1499.2134	1506.1548	1511.8763	1513.6389	1526.56	2958.183	2981.4974	3027.1656	3033.3776	3041.4055	3079.2137	3088.8521	3097.9286	3104.4981	3114.8756	3118.1609	3126.6869	3196.1462	3215.6017
CC1(C)COCC11CC1	CC1(C)COCC21CC2	
InChI=1S/C8H14O/c1-7(2)5-9-6-8(7)3-4-8/h3-6H2,1-2H3	InChI=1S/C8H14O/c1-7(2)5-9-6-8(7)3-4-8/h3-6H2,1-2H3
