15
gdb 13556	4.36889	1.34592	1.17143	1.6265	61.59	-0.2512	-0.0041	0.2471	998.0361	0.118102	-399.779557	-399.77157	-399.770626	-399.812141	29.402	
O	-0.9374125598	-0.3051373736	-0.2202953717	-0.417865
C	 0.3798965425	-0.766644054	-0.5171387625	-0.041143
C	 1.1455691361	 0.2803982497	-1.2211656945	 0.257189
N	 1.7433564142	 1.1168936142	-1.7484468217	-0.307979
C	 1.1446098347	-1.2703989234	 0.7029732685	-0.075577
C	 0.8572621354	-0.7190254517	 2.0905199489	-0.342429
C	 0.4357406349	-2.1216165141	 1.728349304	 0.134964
O	-0.8984453093	-2.4891115254	 1.5916192466	-0.428721
H	-0.8681964502	 0.5565421967	 0.2076120759	 0.306057
H	 0.2324180778	-1.5987921614	-1.215397834	 0.155373
H	 2.1764500204	-1.5199012494	 0.4733544069	 0.115376
H	 1.6915406156	-0.5590528647	 2.7641867021	 0.126869
H	 0.05861487	 0.0088866065	 2.1951584716	 0.106644
H	 1.0012475022	-2.940490509	 2.1610614651	 0.11541
H	-1.3481430444	-1.7980295205	 1.0862176046	 0.295831
56.9072	142.011	217.9025	232.1617	284.3356	336.9997	387.4256	442.5194	551.8466	560.1082	588.375	648.5597	763.3001	801.7589	877.551	925.5388	978.127	1020.8408	1029.1281	1067.5173	1124.8374	1132.4044	1144.8646	1228.874	1265.7208	1310.8525	1351.9759	1375.0499	1421.3572	1453.3525	1490.9436	2356.7885	3053.6851	3131.9633	3152.098	3168.6117	3218.3872	3743.3612	3802.586
OC(C#N)C1CC1O	O[C@@H](C#N)[C@H]1C[C@H]1O	
InChI=1S/C5H7NO2/c6-2-5(8)3-1-4(3)7/h3-5,7-8H,1H2	InChI=1S/C5H7NO2/c6-2-5(8)3-1-4(3)7/h3-5,7-8H,1H2/t3-,4+,5-/m0/s1
