14
gdb 56476	2.85238	1.10513	0.8174	1.5276	65.03	-0.2679	-0.0556	0.2124	1300.8673	0.100034	-470.048132	-470.038837	-470.037893	-470.083318	31.472	
N	-0.3134146439	 1.5678637716	 0.0157404749	-0.491871
C	 0.0445713628	 0.1590971177	 0.0042239865	-0.231325
C	-1.1194001787	-0.691186449	 0.2670970786	 0.284877
N	-2.0047659664	-1.4177206946	 0.424002386	-0.31545
C	 0.8129050726	-0.2745517325	-1.2959988366	 0.430149
O	 1.4251752155	 0.552705894	-1.9169034276	-0.301596
N	 0.7643561801	-1.6293763527	-1.5869343737	-0.367461
C	 1.4470046653	-2.2999425885	-2.6110199391	 0.167673
O	 2.2245170585	-1.8104960272	-3.3775570868	-0.237707
H	 0.49485376	 2.0797030603	-0.3329903156	 0.260622
H	-1.0551460137	 1.7332812333	-0.6600037934	 0.249367
H	 0.7598352065	-0.0187630968	 0.8218399376	 0.169989
H	 0.1351458925	-2.1946186036	-1.0314347591	 0.278635
H	 1.1678258689	-3.3717054918	-2.6122518716	 0.104098
50.9594	66.7581	124.1701	187.0162	207.468	216.3698	261.3097	309.4937	353.7881	498.9907	518.5652	582.3957	634.4904	665.1275	828.3752	903.9933	942.4679	958.1211	1029.1244	1068.3056	1159.5953	1182.3187	1222.87	1275.5751	1403.633	1442.9192	1521.1844	1670.9424	1813.1345	1878.2599	2355.2316	2947.6175	3005.2729	3482.8409	3558.4186	3582.5292
NC(C#N)C(=O)NC=O	N[C@@H](C#N)C(=O)NC=O	
InChI=1S/C4H5N3O2/c5-1-3(6)4(9)7-2-8/h2-3H,6H2,(H,7,8,9)	InChI=1S/C4H5N3O2/c5-1-3(6)4(9)7-2-8/h2-3H,6H2,(H,7,8,9)/t3-/m0/s1
