17
gdb 32829	3.142	1.30312	0.95318	1.6526	70.82	-0.1853	0.0503	0.2355	1187.1109	0.137949	-455.183126	-455.175013	-455.174069	-455.216103	30.988	
O	-0.209654473	 0.4082589091	-1.2972286013	-0.415919
C	-0.0075502032	 0.1688625416	 0.1097715795	-0.089576
C	-1.1453877977	-0.6231563414	 0.7510880534	-0.332994
C	-1.2952489224	-2.0371651532	 0.271081107	 0.135155
C	-1.1399344132	-2.5692760289	-0.9908292619	 0.30364
O	-0.7968112038	-2.0789509546	-2.194333431	-0.446805
N	-1.4253692104	-3.9068549705	-0.8792670827	-0.293448
C	-1.7409337298	-4.1425598935	 0.4354319315	-0.009723
N	-1.6711123723	-3.0474323023	 1.1447916319	-0.306011
H	-1.000051205	 0.9518725911	-1.3916958364	 0.29466
H	 0.9338899997	-0.3834755799	 0.171951233	 0.13049
H	 0.125960908	 1.1307346012	 0.6212516417	 0.106482
H	-0.9745092086	-0.6594386827	 1.8328724301	 0.128092
H	-2.0784931754	-0.0495595435	 0.6200485061	 0.095177
H	-0.5380725673	-1.1423023473	-2.0593315648	 0.311254
H	-1.3773325155	-4.5685678808	-1.6357878842	 0.266912
H	-2.0044528001	-5.1249234945	 0.7963339781	 0.122614
51.5153	173.1499	226.1337	254.9917	289.7212	340.7636	389.0161	462.5055	495.9295	503.9863	651.2086	672.8667	715.9373	728.7271	758.478	786.1889	865.3955	946.2394	956.7343	1020.8461	1066.7047	1093.743	1144.1232	1169.9161	1207.9935	1281.4772	1289.66	1346.4175	1372.0954	1386.9851	1411.7379	1432.7847	1472.9519	1502.373	1518.5171	1565.9773	1645.692	2963.446	3024.4152	3070.3072	3103.7491	3253.7962	3466.5105	3665.714	3805.294
OCCC1=C(O)NC=N1	OCCc1c(O)[nH]cn1	
InChI=1S/C5H8N2O2/c8-2-1-4-5(9)7-3-6-4/h3,8-9H,1-2H2,(H,6,7)	InChI=1S/C5H8N2O2/c8-2-1-4-5(9)7-3-6-4/h3,8-9H,1-2H2,(H,6,7)
