23
gdb 123269	10.02364	0.36773	0.35949	3.5267	80.95	-0.2506	0.077	0.3276	2946.3588	0.20283	-462.539443	-462.527567	-462.526623	-462.578539	39.814	
O	-0.1842765268	 1.4403360972	 0.0114686635	-0.419274
C	-0.0272737719	 0.0297883466	 0.0021660565	-0.071639
C	-1.4175017833	-0.5911726492	 0.0123723805	-0.182671
C	-1.3799699019	-2.1128175419	 0.0037310085	-0.05382
O	-2.7059498508	-2.5933464587	 0.0138796978	-0.245176
C	-2.7902578005	-4.0012107084	 0.0072923964	-0.05382
C	-4.259929393	-4.3972089619	 0.0190245713	-0.182671
C	-4.4606437048	-5.9065515247	 0.0135861961	-0.071639
O	-5.8577168301	-6.1564454397	 0.0245424999	-0.419274
H	 0.6903310797	 1.8397281398	 0.0049634333	 0.285207
H	 0.5259774247	-0.3031079435	-0.891904763	 0.084131
H	 0.5433550372	-0.3128660792	 0.8815091671	 0.084127
H	-1.9583743332	-0.246914429	 0.9001337558	 0.116607
H	-1.9755843525	-0.2373489778	-0.8608558832	 0.116611
H	-0.8457675263	-2.4827844572	-0.889723636	 0.081655
H	-0.828706069	-2.4924218218	 0.8826581713	 0.081654
H	-2.2851459215	-4.4105814152	-0.8858917182	 0.081661
H	-2.2684892594	-4.4198646807	 0.8864961866	 0.081648
H	-4.7424032957	-3.9736282381	 0.9061398472	 0.116604
H	-4.7588021955	-3.9652110689	-0.8548636141	 0.116613
H	-3.9849443204	-6.3452663572	-0.8794549043	 0.084121
H	-3.9695186702	-6.3537173144	 0.8939834876	 0.084137
H	-5.9923613049	-7.1084739459	 0.0218508652	 0.285207
38.2748	57.5339	65.7272	96.6117	108.4467	148.749	154.4646	172.0824	260.2584	270.8086	271.6093	311.5287	437.153	489.5999	542.7376	778.833	780.883	885.6475	896.7744	987.3222	1026.609	1044.6764	1050.5793	1072.2584	1084.6763	1116.3987	1167.8252	1169.8696	1185.1011	1224.7692	1238.6227	1239.7638	1251.9412	1302.5182	1304.7984	1305.3006	1307.1867	1316.0757	1323.7237	1407.4871	1460.0408	1466.4229	1467.291	1497.6692	1499.8789	1514.997	1527.0814	1531.9219	1541.8357	2931.4427	2943.486	2955.6354	2957.0769	2959.0643	2961.044	2979.2775	2979.5125	3051.8963	3052.3299	3098.2184	3098.4384	3831.201	3831.221
OCCCOCCCO	OCCCOCCCO	
InChI=1S/C6H14O3/c7-3-1-5-9-6-2-4-8/h7-8H,1-6H2	InChI=1S/C6H14O3/c7-3-1-5-9-6-2-4-8/h7-8H,1-6H2
