19
gdb 30826	2.24449	1.35456	0.8946	1.7314	81.1	-0.1877	0.0278	0.2155	1338.0548	0.157593	-423.068555	-423.058715	-423.057771	-423.103673	35.17	
C	-0.3902973291	 1.4996690526	-0.203331128	-0.368457
C	 0.0957051196	 0.0535644185	 0.0010655881	-0.299481
C	 0.8826705413	-0.4818061666	-1.1406447883	 0.258146
C	 2.1778582314	-0.8786392396	-1.2815106494	 0.222427
O	 3.1035105021	-0.8624256079	-0.2782521314	-0.447645
C	 2.3544076193	-1.2923811167	-2.6437091798	-0.41486
C	 1.1470109087	-1.1178030289	-3.2486541495	 0.376931
C	 0.6609735239	-1.3540910898	-4.6334280611	-0.491231
O	 0.2486604521	-0.6285801902	-2.355232636	-0.223393
H	 0.4562758128	 2.1818609792	-0.3270680756	 0.119275
H	-1.0157579677	 1.5746547416	-1.0975424268	 0.125216
H	-0.9807703532	 1.8369327715	 0.6544024642	 0.108037
H	 0.7319560327	-0.0072818889	 0.8899002097	 0.122598
H	-0.7716893341	-0.5931277501	 0.1925386489	 0.108775
H	 3.9258994516	-1.2292283672	-0.6134259651	 0.298052
H	 3.2558441286	-1.6674805347	-3.10535424	 0.099554
H	-0.1638516002	-2.0758348376	-4.6527703589	 0.137166
H	 0.2950705189	-0.4294946381	-5.0948389399	 0.137033
H	 1.4719432413	-1.7459470871	-5.2514272209	 0.131856
58.0306	112.5164	126.954	141.9711	185.4236	207.3737	270.7601	276.0616	315.3312	408.6352	504.4773	591.7927	627.0555	646.5899	689.6598	755.4545	775.6289	801.4682	963.6235	976.339	1018.0096	1061.6707	1064.0918	1080.8175	1109.6809	1173.9208	1227.9593	1279.3288	1300.0989	1329.3831	1370.7881	1403.9269	1416.0912	1451.0513	1471.8602	1474.0426	1493.9078	1496.0244	1508.168	1614.7572	1715.701	3011.3476	3027.9315	3037.9425	3076.9644	3079.6521	3108.8019	3117.9008	3127.2498	3238.7698	3852.2679
CCC1=C(O)C=C(C)O1	CCc1c(O)cc(C)o1	
InChI=1S/C7H10O2/c1-3-7-6(8)4-5(2)9-7/h4,8H,3H2,1-2H3	InChI=1S/C7H10O2/c1-3-7-6(8)4-5(2)9-7/h4,8H,3H2,1-2H3
