19
gdb 77383	2.53258	1.67355	1.34551	0.5541	74.28	-0.2164	0.0706	0.287	1034.6324	0.156957	-422.964785	-422.956129	-422.955185	-422.997294	33.911	
C	 0.0174396413	 1.6146713573	 0.0820588651	-0.43373
C	 0.0362418334	 0.0967764544	-0.0134751628	-0.076009
C	 0.7482285145	-0.609444211	-1.1725930096	 0.32116
O	 0.3503656655	-0.7147374696	-2.4884443352	-0.459302
C	 2.2151896703	-0.7480554244	-0.7101775717	 0.00865
O	 2.3365237401	-0.1214601277	 0.5639314884	-0.325105
C	 1.0304704709	-0.7168764052	 0.881593669	 0.404082
C	 0.8172632043	-0.9748402686	 2.3401841174	-0.508565
C	 1.1984256052	-1.7595020876	-0.2924194528	-0.254891
H	 1.0365346058	 2.0094461799	 0.0691661708	 0.132
H	-0.5374534314	 2.0509904722	-0.7560027648	 0.110114
H	-0.4691430292	 1.9510272505	 1.0042404961	 0.113302
H	-0.966115058	-0.3325201999	 0.0961397415	 0.076547
H	 0.6566737625	 0.0659520633	-2.9631768646	 0.290299
H	 3.0711764532	-0.8049077331	-1.3703094772	 0.107316
H	 0.8342694651	-0.0316819265	 2.8969767184	 0.133634
H	-0.1513165817	-1.4557852079	 2.5068858986	 0.124233
H	 1.6044375941	-1.6210902735	 2.7384595837	 0.132569
H	 1.1205204641	-2.8346229025	-0.3712798504	 0.103695
174.2615	181.9567	194.1905	208.3196	243.0154	263.3489	294.1223	380.8785	399.1528	562.5551	579.9373	586.6928	671.1288	729.2817	763.8141	816.9068	832.0925	847.1998	919.3732	944.1201	967.1901	1004.8249	1028.675	1081.1617	1115.6603	1116.6664	1135.1785	1141.2831	1174.9995	1236.4857	1284.3653	1302.4411	1336.7287	1377.247	1400.6006	1413.4067	1448.7831	1477.1463	1488.8125	1495.5762	1504.0656	3031.5219	3037.841	3050.2276	3089.7176	3107.923	3118.7665	3123.1883	3201.2269	3218.3578	3793.6796
CC1C2(O)C3OC1(C)C23	C[C@H]1[C@@]2(O)[C@H]3O[C@]1(C)[C@@H]23	
InChI=1S/C7H10O2/c1-3-6(2)4-5(9-6)7(3,4)8/h3-5,8H,1-2H3	InChI=1S/C7H10O2/c1-3-6(2)4-5(9-6)7(3,4)8/h3-5,8H,1-2H3/t3-,4+,5+,6+,7+/m1/s1
