19
gdb 70211	3.54424	1.32252	1.12706	2.8473	76.84	-0.2519	0.0213	0.2732	1124.5736	0.160911	-419.207211	-419.199012	-419.198067	-419.23989	31.667	
C	 0.2629470232	 1.5096588425	-0.2265390549	-0.457629
C	 0.0217244818	 0.0444398653	 0.051276371	 0.294632
C	-1.4101696825	-0.4119327189	-0.1766333294	-0.149253
O	-1.5949559288	-1.823421528	-0.0489185595	-0.250062
C	-1.0348263375	-2.4984626925	 1.0020438597	 0.367919
N	-1.3036680908	-3.7165784345	 1.2136189425	-0.510372
C	-0.0522085232	-1.7484547868	 1.8724515807	-0.311638
C	 0.7341274196	-0.6922301794	 1.1204939631	-0.05903
N	 1.11495319	-0.8763214567	-0.2939415576	-0.373252
H	 1.3054666491	 1.7632147388	-0.0222382034	 0.137095
H	 0.0576469438	 1.7493050851	-1.2761084598	 0.123339
H	-0.3778622403	 2.1432341602	 0.3972065629	 0.117136
H	-2.0795403451	 0.1159494673	 0.5183916445	 0.113625
H	-1.7385781104	-0.1779446805	-1.1942980938	 0.125034
H	-1.9970564595	-4.0455527347	 0.5380885422	 0.219758
H	-0.6027081422	-1.2586466754	 2.6884463267	 0.131407
H	 0.5956188203	-2.4935466612	 2.3396167534	 0.146238
H	 1.4875826539	-0.1771043938	 1.7124189384	 0.094944
H	 0.7498955986	-1.7555982368	-0.6547505965	 0.240109
75.3851	175.5819	184.3879	221.1433	289.282	350.5992	383.8362	433.7598	486.7225	533.8664	604.903	690.9183	743.4575	772.0091	838.9153	892.7623	915.9065	930.1951	953.3603	1014.1529	1031.9254	1054.3142	1088.4648	1118.5356	1137.371	1162.3015	1191.1276	1232.6426	1267.0985	1291.2492	1312.854	1338.6387	1358.4914	1414.9422	1422.0023	1462.7488	1473.8191	1489.3095	1496.3328	1513.3742	1751.4268	3000.3875	3015.5963	3030.769	3076.3996	3090.8459	3105.5356	3126.8053	3130.363	3461.7716	3492.9796
CC12COC(=N)CC1N2	C[C@]12CO[C]([NH])C[C@H]1N2	
InChI=1S/C6H10N2O/c1-6-3-9-5(7)2-4(6)8-6/h4,7-8H,2-3H2,1H3	InChI=1S/C6H10N2O/c1-6-3-9-5(7)2-4(6)8-6/h4,7-8H,2-3H2,1H3/t4-,6+/m1/s1
