14
gdb 27090	3.34812	1.1328	0.87693	4.1414	65.54	-0.1995	0.0011	0.2006	1229.4187	0.100457	-473.865946	-473.85766	-473.856716	-473.899591	29.817	
O	-0.0782959316	 1.2544087057	-0.106235517	-0.436702
C	 0.0212691264	-0.0932351276	-0.0989785666	 0.305671
C	 0.3028492246	-1.0066972656	-1.0870669773	 0.176602
O	 0.606035338	-0.6346618187	-2.3896251764	-0.233525
C	-0.2705220637	-1.0156160709	-3.3592996495	 0.149769
O	-0.0876035866	-0.77034549	-4.5106503227	-0.262717
C	 0.2987008898	-2.3059078822	-0.4999648133	-0.249783
C	 0.0025448758	-2.1366561657	 0.8287065726	-0.084846
N	-0.1598631427	-0.7825601692	 1.0618103489	-0.290611
H	 0.1805249197	 1.5615348795	-0.9831982467	 0.317148
H	-1.1355664977	-1.5621322331	-2.9419068128	 0.093745
H	 0.4977364529	-3.2391567689	-1.0022472558	 0.112393
H	-0.1093105562	-2.8505306913	 1.6265854063	 0.12823
H	-0.369198709	-0.350115032	 1.9446991003	 0.274627
45.91	130.8415	143.5155	261.7159	269.2884	304.7418	393.5758	439.0649	462.4017	527.594	628.3789	642.4535	695.0032	708.3281	807.8528	843.743	918.0343	1049.2593	1073.8805	1085.2658	1136.7793	1176.1024	1213.1286	1281.1331	1381.6867	1405.7361	1417.0926	1525.6866	1560.8966	1669.6398	1872.8036	2981.705	3258.3417	3286.7117	3684.9232	3812.2809
OC1=C(OC=O)C=CN1	Oc1c(OC=O)cc[nH]1	
InChI=1S/C5H5NO3/c7-3-9-4-1-2-6-5(4)8/h1-3,6,8H	InChI=1S/C5H5NO3/c7-3-9-4-1-2-6-5(4)8/h1-3,6,8H
