19
gdb 85754	3.16837	1.28034	1.04455	4.2984	79.6	-0.2197	0.037	0.2567	1173.4229	0.161129	-382.064649	-382.056507	-382.055563	-382.097329	31.446	
C	-0.5217678028	 1.4427290876	 0.6443731923	-0.334583
N	 0.2249038146	 0.3173779384	 0.0834545111	-0.058209
C	-0.6264885671	-0.6485026398	-0.6152857121	-0.210081
C	-1.0079069566	-1.75930413	 0.4355286675	-0.172231
C	-1.2776223927	-3.046788257	-0.1963033347	 0.278646
N	-1.4887919159	-4.0598938331	-0.7122659454	-0.330728
C	 0.1812223636	-1.7479377705	 1.3927381679	-0.05911
C	 1.5532358081	-1.740007364	 0.7521056208	-0.321274
C	 0.9036761322	-0.4377055958	 1.1200636536	 0.023403
H	 0.174679312	 2.1264705747	 1.1386083565	 0.127369
H	-1.0097780516	 1.9931772357	-0.1645160984	 0.126211
H	-1.2911893388	 1.1523803922	 1.3820588127	 0.098301
H	-1.5067378525	-0.1618220481	-1.0381608387	 0.121455
H	-0.0793185548	-1.1123060988	-1.4400438719	 0.131028
H	-1.9082098711	-1.4621202959	 0.9852637974	 0.124957
H	 0.0476383183	-2.1605158475	 2.3848812173	 0.102254
H	 2.37945223	-2.0614718654	 1.3761081014	 0.122983
H	 1.6597506086	-2.017872811	-0.2905227885	 0.131769
H	 1.3327384766	 0.1621394682	 1.9137416212	 0.097839
96.781	135.5728	168.1974	228.0574	297.3116	357.3754	402.3531	455.6886	514.7529	546.3677	622.7267	672.4061	762.6345	790.8739	852.0388	879.8648	944.7766	950.2426	1002.1921	1029.2579	1042.9036	1062.4309	1090.2508	1093.5917	1101.1205	1127.2665	1159.1986	1196.7558	1248.8998	1266.2726	1286.2565	1316.8088	1342.1759	1368.6788	1398.0984	1459.547	1486.5605	1492.958	1504.0905	1512.8329	2352.4928	2946.7343	3046.0455	3065.9022	3072.8905	3113.3705	3124.263	3141.9214	3182.1642	3190.6023	3224.8816
CN1CC(C#N)C2CC12	CN1C[C@@H](C#N)[C@H]2C[C@@H]12	
InChI=1S/C7H10N2/c1-9-4-5(3-8)6-2-7(6)9/h5-7H,2,4H2,1H3	InChI=1S/C7H10N2/c1-9-4-5(3-8)6-2-7(6)9/h5-7H,2,4H2,1H3/t5-,6-,7-/m1/s1
