16
gdb 72327	3.28897	1.79405	1.3905	2.764	68.14	-0.2509	-0.0301	0.2208	908.3768	0.125254	-437.815252	-437.808488	-437.807544	-437.845961	27.701	
O	-0.0272619955	 1.3956285644	 0.1196238962	-0.468189
C	 0.0741584225	 0.0297866439	-0.1047061409	 0.376262
C	 1.4124408408	-0.6785487788	 0.1753385179	-0.238978
N	 1.1742870342	-2.0652354644	-0.2744946069	-0.2096
C	 0.1247963808	-2.0183949647	-0.9908828889	 0.258599
O	-0.8858410976	-2.9429704869	-0.8549416213	-0.255911
C	-1.6153226007	-2.2061588678	 0.1900316917	-0.098449
C	-1.3184938529	-0.6942542021	-0.057541672	-0.125806
C	-0.4885861881	-0.6593462715	-1.3035285549	-0.230045
H	 0.6127402057	 1.8455376369	-0.4442217439	 0.288355
H	 2.2293937216	-0.1650130285	-0.3540685831	 0.101486
H	 1.6846626529	-0.7205116986	 1.2355119535	 0.127758
H	-2.6794265752	-2.4139303782	 0.0525565807	 0.125757
H	-1.2753146777	-2.5703291371	 1.1637488507	 0.128495
H	-2.1346042045	 0.0046720051	 0.0907240624	 0.113406
H	-0.7379512061	-0.2851372817	-2.2877617712	 0.106858
220.0631	236.1328	305.6677	308.2661	349.2191	444.6761	531.2544	564.2434	625.7261	652.0434	726.9324	780.7971	841.7142	870.6319	906.0214	928.6892	944.6867	985.3147	1010.4074	1027.6987	1053.4232	1074.3018	1110.7905	1165.4694	1206.4432	1219.4157	1235.6316	1245.8276	1304.3551	1320.6151	1347.3296	1402.7109	1485.1328	1493.5715	1655.7843	2994.3549	3054.194	3068.9139	3116.9751	3177.2485	3198.5937	3788.7836
OC12CN=C3OCC1C23	O[C@@]12C[N][C]3OC[C@@H]1[C@@H]23	
InChI=1S/C6H7NO2/c8-6-2-7-5-4(6)3(6)1-9-5/h3-4,8H,1-2H2	InChI=1S/C6H7NO2/c8-6-2-7-5-4(6)3(6)1-9-5/h3-4,8H,1-2H2/t3-,4-,6+/m1/s1
