21
gdb 94107	3.55094	0.85474	0.76745	4.0455	80.58	-0.2735	0.0125	0.286	1542.947	0.182387	-424.274185	-424.264806	-424.263862	-424.310048	33.942	
C	-0.3256472501	 1.3235946158	 0.1896181661	-0.411765
C	 0.1360785773	-0.1282101106	 0.1008429004	 0.051982
C	 0.760382962	-0.5230354603	-1.2531367503	-0.208701
C	 1.5869456016	-1.801736204	-0.9664616572	-0.233615
C	 1.7609065995	-1.8625322868	 0.5724138448	 0.102959
C	 1.247318781	-0.5142055263	 1.0922929881	-0.217924
O	 0.9196433488	-2.9189192734	 1.0900246051	-0.190919
C	 1.4576494745	-3.8190898296	 1.9280714257	 0.165443
O	 0.8270834003	-4.7048312487	 2.4241405532	-0.280874
H	 0.5104687589	 2.0124432007	 0.0189032746	 0.110828
H	-1.0942094536	 1.5421505715	-0.559124225	 0.116089
H	-0.7485621043	 1.5494744528	 1.1740767993	 0.11616
H	-0.720815881	-0.7878282985	 0.2910007787	 0.092187
H	 0.0111523058	-0.6744413476	-2.0347963194	 0.102394
H	 1.4191332473	 0.2853038142	-1.5944347865	 0.09616
H	 1.0669448529	-2.7060287169	-1.2907906113	 0.125415
H	 2.5555591885	-1.7859239615	-1.4729763972	 0.105682
H	 2.793241945	-2.0688143661	 0.8747292598	 0.080398
H	 2.0605797532	 0.2221591646	 1.0383359047	 0.097338
H	 0.9193310609	-0.5754193102	 2.1333345627	 0.107871
H	 2.5399256013	-3.6526295188	 2.1003377337	 0.072893
30.4619	42.518	123.7947	163.2057	235.2585	267.5841	288.3428	341.9569	414.8412	442.451	552.3204	618.6595	716.8579	801.2068	842.1254	893.2515	908.8131	926.7121	947.6388	987.8133	1009.3878	1023.0372	1046.129	1101.5143	1110.6547	1154.2469	1177.5537	1213.0676	1226.5989	1242.612	1291.008	1303.8846	1326.879	1334.246	1353.9822	1382.6888	1393.3574	1412.2659	1444.3951	1474.7205	1480.5756	1496.7067	1499.1245	1505.2293	1861.242	2936.6887	3015.7639	3023.3509	3024.5105	3035.6416	3047.7648	3069.3193	3087.2599	3091.6915	3099.1018	3100.3003	3116.245
CC1CCC(C1)OC=O	C[C@H]1CC[C@@H](C1)OC=O	
InChI=1S/C7H12O2/c1-6-2-3-7(4-6)9-5-8/h5-7H,2-4H2,1H3	InChI=1S/C7H12O2/c1-6-2-3-7(4-6)9-5-8/h5-7H,2-4H2,1H3/t6-,7-/m0/s1
