19
gdb 57665	3.49993	0.94254	0.89107	3.1996	72.01	-0.2447	-0.0216	0.2231	1351.0741	0.1557	-460.149588	-460.139849	-460.138904	-460.184617	35.357	
C	 0.005039901	 1.7369277866	-0.0562373276	-0.40659
C	 0.0462945889	 0.2087693705	-0.0469348554	 0.298198
O	 0.7391636726	-0.1931305126	 1.1271813421	-0.469731
C	-1.3811599427	-0.4009312659	-0.0504407735	-0.304692
C	-2.187224495	-0.0261346986	 1.1747839776	 0.148105
O	-3.3095387798	 0.4121650664	 1.1400667572	-0.246119
C	 0.7951525385	-0.3129671872	-1.2723852978	 0.055298
C	 2.2523865633	-0.4611892126	-1.2766633661	-0.190793
O	 1.393198539	-1.601896407	-1.0905036476	-0.259511
H	 1.0200068799	 2.1415764425	-0.0423288698	 0.127309
H	-0.5117461701	 2.1074427984	-0.9466270326	 0.122923
H	-0.5248003617	 2.1112457416	 0.8240862547	 0.139155
H	 1.0185989995	-1.1067116541	 0.9672595849	 0.289776
H	-1.9427989539	-0.1067137369	-0.9422137191	 0.115537
H	-1.2770963468	-1.4956026258	-0.0591499594	 0.12691
H	-1.6602726402	-0.1933093846	 2.1375879806	 0.095389
H	 0.2807530269	-0.1869092667	-2.2253470365	 0.100714
H	 2.7930307187	-0.444875205	-2.2204419452	 0.125547
H	 2.8168535119	-0.1669086191	-0.3958847667	 0.132574
58.736	89.6222	107.4524	172.8385	210.1006	244.1909	291.5802	312.5662	377.7216	398.2235	456.1584	537.4114	549.123	621.5874	730.3205	822.2581	850.8652	892.8545	928.8832	941.6855	993.0612	1015.8612	1054.6827	1098.7687	1132.5828	1160.0221	1167.569	1181.3437	1198.4934	1243.7043	1284.9318	1311.2247	1379.9251	1418.2884	1422.2774	1437.5377	1455.7076	1485.2481	1498.0044	1515.7041	1827.1342	2917.8225	3015.1299	3046.6067	3094.6448	3103.3614	3113.686	3120.1605	3128.2789	3199.4043	3729.2014
CC(O)(CC=O)C1CO1	C[C@@](O)(CC=O)[C@H]1CO1	
InChI=1S/C6H10O3/c1-6(8,2-3-7)5-4-9-5/h3,5,8H,2,4H2,1H3	InChI=1S/C6H10O3/c1-6(8,2-3-7)5-4-9-5/h3,5,8H,2,4H2,1H3/t5-,6-/m1/s1
