16
gdb 81538	3.23998	1.38347	1.09724	2.1826	65.99	-0.2444	-0.0512	0.1932	1066.9841	0.123192	-474.943797	-474.935769	-474.934825	-474.97634	30.753	
O	 0.0486134495	 1.4191847748	-0.1448382058	-0.448294
C	 0.0340529194	 0.0386082067	-0.1000233722	 0.203013
C	 0.1264960087	-0.6562296464	 1.3008159409	-0.155462
N	-1.2544519242	-0.0702259424	 1.5554825294	-0.374718
C	-1.3356847226	-0.6764899839	 0.1678215301	-0.122612
C	-0.5272452548	-1.9231196952	 0.6612561565	 0.310678
O	 0.1493481056	-2.6318823709	-0.3532349565	-0.475517
C	-1.268052308	-2.9112091327	 1.5447766377	 0.091828
O	-1.6720158517	-2.7220534726	 2.6665425557	-0.257971
H	-0.5214347707	 1.6982605601	 0.5892975358	 0.293451
H	 0.6521113214	-0.3598298896	-0.8989498834	 0.111034
H	 0.9174851767	-0.6134936255	 2.0515690943	 0.092117
H	-1.7556196877	-0.6340340766	 2.2419856643	 0.244746
H	-2.2542942068	-0.6690734617	-0.4202936967	 0.097226
H	 0.8850678884	-3.1148972833	 0.0392091362	 0.291365
H	-1.4060450032	-3.8919130506	 1.0368235137	 0.099116
79.3898	177.8163	207.2928	252.7616	304.752	333.0993	380.7772	429.2867	478.1395	588.8136	628.0679	673.4054	735.408	764.1151	817.5646	863.4908	889.1955	912.9478	1037.964	1057.2871	1080.3345	1103.9049	1130.1486	1148.8	1175.9817	1189.9529	1211.3164	1241.0384	1270.5857	1299.8702	1316.4109	1355.4461	1407.3081	1457.9165	1809.9743	2891.2759	3105.4159	3114.6624	3176.3462	3471.8584	3702.3258	3802.4532
OC1C2NC1C2(O)C=O	O[C@H]1[C@H]2N[C@@H]1[C@]2(O)C=O	
InChI=1S/C5H7NO3/c7-1-5(9)3-2(8)4(5)6-3/h1-4,6,8-9H	InChI=1S/C5H7NO3/c7-1-5(9)3-2(8)4(5)6-3/h1-4,6,8-9H/t2-,3+,4-,5-
