18
gdb 98765	3.1161	1.22333	1.02603	3.0782	72.69	-0.2361	0.0279	0.2641	1200.4578	0.147682	-439.076049	-439.067387	-439.066443	-439.110147	31.443	
C	-0.5461734198	 1.391236917	 0.5169636727	-0.333625
N	-0.9761292991	 0.0093685871	 0.5729414885	-0.317238
C	-1.0244149903	-0.785742321	-0.5305589134	 0.391864
O	-0.6982821328	-0.4210940291	-1.6487110311	-0.389068
C	-1.5021965732	-2.2130896241	-0.2730781495	-0.117279
C	-0.6601779661	-3.1594884165	 0.6738189068	-0.277179
C	-1.9245965963	-3.3675941972	 1.5142080712	 0.033627
O	-2.3455517097	-2.0770305912	 1.9861781892	-0.244757
C	-2.7101932644	-2.4703333442	 0.6520695398	-0.001183
H	 0.2987138465	 1.571906077	 1.1910879504	 0.121507
H	-0.2363809543	 1.5981513851	-0.5080379728	 0.166457
H	-1.3580716746	 2.0760613596	 0.788703545	 0.123207
H	-1.3008593852	-0.3866365194	 1.4437991515	 0.260106
H	-1.6450758966	-2.6757588306	-1.2498361943	 0.109448
H	-0.3250418589	-4.059514284	 0.1551346913	 0.12255
H	 0.1800427031	-2.7061157701	 1.2036912113	 0.12037
H	-2.2250270812	-4.2208946337	 2.1100318026	 0.115101
H	-3.766053747	-2.4488139045	 0.4099587109	 0.116092
64.4276	85.6009	119.0073	162.3692	240.6587	262.9667	352.9304	410.7667	487.1417	643.6397	684.7769	741.1923	756.1628	821.5923	840.577	861.6343	921.2009	940.4032	955.1751	1006.147	1023.0033	1062.4419	1119.3188	1149.8747	1153.6745	1179.1807	1211.533	1237.5172	1240.9287	1274.6413	1283.7081	1314.7413	1386.6183	1437.9269	1475.5334	1498.2855	1501.4805	1582.911	1773.6869	3023.9331	3073.1821	3077.3545	3116.5384	3137.8482	3151.7767	3188.0592	3203.3369	3587.5461
CNC(=O)C1CC2OC12	CNC(=O)[C@H]1C[C@H]2O[C@@H]12	
InChI=1S/C6H9NO2/c1-7-6(8)3-2-4-5(3)9-4/h3-5H,2H2,1H3,(H,7,8)	InChI=1S/C6H9NO2/c1-7-6(8)3-2-4-5(3)9-4/h3-5H,2H2,1H3,(H,7,8)/t3-,4+,5-/m0/s1
