19
gdb 74634	3.05826	1.44109	1.32245	1.9548	80.62	-0.2194	0.0046	0.2241	1068.8646	0.158183	-385.831638	-385.823669	-385.822725	-385.863647	31.765	
C	-0.1058190648	 1.5352549995	 0.0030337496	-0.503179
C	-0.0362353021	 0.0464845864	-0.0378732523	 0.298971
C	-0.070486591	-0.8030252619	-1.074720603	-0.221131
C	 0.0461888506	-2.1781050279	-0.4558188929	-0.12955
C	-0.7403788408	-2.1546514075	 0.8953609498	 0.071905
O	 0.2475526428	-3.0132867189	 1.5550776689	-0.359699
C	 1.0473276326	-2.0634777244	 0.7605893435	 0.450676
C	 2.5376804088	-2.1695856765	 0.7976224577	-0.525465
C	 0.1014390284	-0.8665732853	 1.1705592872	-0.189359
H	 0.7865537325	 1.9665874336	 0.4747270211	 0.127293
H	-0.1946498708	 1.9567401926	-1.0023170141	 0.125576
H	-0.9644015123	 1.8806469755	 0.5932056297	 0.128783
H	-0.1569494364	-0.5753190752	-2.1288686503	 0.099304
H	 0.0462431315	-3.0864920296	-1.0567039307	 0.070964
H	-1.7975928585	-2.34939122	 1.0910924619	 0.087181
H	 2.8600095573	-3.155330075	 0.4485252284	 0.134684
H	 2.980200022	-1.4063489781	 0.1497730023	 0.13119
H	 2.9091980877	-2.0244354463	 1.8166719541	 0.133385
H	 0.1564637124	-0.469067381	 2.1840096789	 0.068471
139.8334	172.3055	207.8102	241.5202	274.0749	297.174	456.923	515.4027	540.3327	569.7849	633.0347	705.3444	719.7007	792.3322	825.3743	863.2892	884.2155	916.5638	940.9271	963.2292	997.6137	1025.0393	1026.1425	1062.7381	1097.0125	1147.7961	1156.8953	1172.741	1196.2561	1231.0129	1250.6577	1278.0132	1326.6817	1353.9704	1408.9526	1414.3349	1474.8658	1477.0106	1486.8958	1487.2921	1685.9823	3014.5048	3038.2554	3058.7033	3089.8998	3106.7617	3113.0352	3115.1613	3126.5657	3135.9748	3218.3319
CC1=CC2C3OC2(C)C13	CC1=C[C@@H]2[C@H]3O[C@]2(C)[C@@H]13	
InChI=1S/C8H10O/c1-4-3-5-7-6(4)8(5,2)9-7/h3,5-7H,1-2H3	InChI=1S/C8H10O/c1-4-3-5-7-6(4)8(5,2)9-7/h3,5-7H,1-2H3/t5-,6+,7-,8+/m1/s1
