15
gdb 21081	3.43983	2.39486	1.42433	2.2692	73.22	-0.2053	-0.0518	0.1535	837.8621	0.12134	-358.857189	-358.850369	-358.849425	-358.888075	25.91	
C	-0.0305281596	 1.4121637162	-0.0116659625	-0.302973
N	-0.0066825288	-0.043796826	 0.0035632443	-0.021906
N	-0.0386369561	-0.6438735384	-1.1889600527	-0.192268
C	-0.019210404	-1.9457359376	-1.2292187648	-0.016962
C	 0.0347140538	-2.751179137	-0.0513064554	-0.112489
C	 0.066865249	-2.1384027079	 1.1534066117	-0.153141
C	 0.0471273455	-0.6897183435	 1.2530877079	 0.37435
N	 0.0718996549	 0.0489098382	 2.3076192792	-0.571758
H	 0.8616684166	 1.804895766	 0.4834758306	 0.149843
H	-0.07150818	 1.7256920567	-1.0530664473	 0.139852
H	-0.8985731264	 1.7767441901	 0.5442225724	 0.149825
H	-0.0467208207	-2.3835206924	-2.2200642407	 0.122882
H	 0.0490166005	-3.8325059575	-0.1377826601	 0.114032
H	 0.1081567216	-2.6969508551	 2.0823130558	 0.112912
H	 0.1102145139	-0.5372267418	 3.1396237115	 0.207801
123.1697	168.3983	226.1297	349.3737	385.0161	469.3813	551.242	556.3581	609.6241	733.1693	748.7603	770.8884	834.0684	895.6346	896.146	999.5865	1010.9314	1056.9844	1095.768	1150.487	1178.7874	1235.5446	1292.5085	1356.8677	1415.4626	1430.2927	1443.0196	1466.0339	1504.6164	1568.1497	1621.4903	1694.3332	3054.0937	3113.6356	3177.844	3179.8926	3196.2246	3206.3244	3495.8696
CN1N=CC=CC1=N	CN1N=CCC=C1[NH]	
InChI=1S/C5H7N3/c1-8-5(6)3-2-4-7-8/h2-4,6H,1H3	InChI=1S/C5H8N3/c1-8-5(6)3-2-4-7-8/h3-4,6H,2H2,1H3
