16
gdb 24288	4.06823	1.54962	1.22539	1.9271	74.6	-0.192	0.0266	0.2185	979.776	0.127969	-400.747319	-400.740998	-400.740053	-400.77774	26.501	
C	 0.0141691548	 1.4978129497	 0.0919436876	-0.303923
C	 1.3178833687	 0.742225566	-0.0131336198	-0.001739
N	 2.059608587	 0.3791020373	 1.1894442826	-0.418216
C	 1.2003247923	-0.4051356621	 1.9768619614	 0.205207
C	 1.1514523448	-1.032545264	 3.1782271262	-0.135938
O	-0.0180008853	-1.7604123137	 3.2456012002	-0.165038
C	-0.6974563459	-1.5735802231	 2.0777660346	-0.166811
C	 0.0015007967	-0.7422640266	 1.2687950052	 0.264842
C	-0.0034970949	-0.0217443282	-0.0247922786	-0.209239
H	-0.2654305046	 1.9353071885	 1.0443438654	 0.119058
H	-0.2967255284	 2.0615554694	-0.7812637802	 0.114876
H	 1.9188697724	 0.8511881821	-0.9091860443	 0.09947
H	 2.5208670628	 1.1495848323	 1.6555120648	 0.237377
H	 1.7872782128	-1.0878422292	 4.0440490961	 0.126241
H	-1.6375695742	-2.0935090895	 1.9990762264	 0.133788
H	-0.3873528089	-0.4778089588	-0.9289659876	 0.100044
169.7044	254.3494	376.1893	433.0358	461.7249	571.1048	586.1577	650.7676	670.6419	698.6565	733.2251	757.5696	802.1997	803.151	836.4262	922.274	953.3109	988.613	1025.5244	1041.504	1052.9972	1094.5828	1136.0935	1149.6465	1172.7092	1194.858	1243.2946	1295.093	1328.0043	1347.3486	1379.376	1428.9298	1471.1919	1615.1965	1692.5818	3129.1907	3166.3265	3185.8752	3221.5482	3274.9944	3290.3827	3565.4301
C1C2NC3=COC=C3C12	C1[C@H]2Nc3cocc3[C@@H]12	
InChI=1S/C7H7NO/c1-4-5-2-9-3-7(5)8-6(1)4/h2-4,6,8H,1H2	InChI=1S/C7H7NO/c1-4-5-2-9-3-7(5)8-6(1)4/h2-4,6,8H,1H2/t4-,6-/m1/s1
