18
gdb 51634	4.2379	1.01789	1.00937	2.9096	73.28	-0.2432	0.031	0.2743	1225.6172	0.14982	-439.089714	-439.082134	-439.08119	-439.122649	29.041	
O	-0.129101429	 0.0580812261	 0.5010709046	-0.327952
C	-0.0051763281	 1.2103172224	 0.1408380748	 0.150502
N	 1.1632310923	 1.7976550707	-0.228533505	-0.281998
C	 2.4428484029	 1.1235612814	-0.2092704639	 0.057391
C	 3.1787144003	 1.1272267055	-1.594868078	-0.253167
C	 4.3780718215	 1.9980552972	-1.1753783605	 0.081777
C	 4.8492013664	 1.3478583008	 0.1439879299	-0.232829
C	 3.4960397656	 1.9507467787	 0.56538596	 0.053513
O	 3.7312968219	 3.0489823848	-0.3772961415	-0.313594
H	-0.8565778598	 1.9162114034	 0.0714685866	 0.074008
H	 1.1679057693	 2.7715800662	-0.4924694457	 0.252452
H	 2.2726848692	 0.1279823894	 0.1994560364	 0.120815
H	 3.4674421901	 0.1291437148	-1.9331390568	 0.11249
H	 2.5739209366	 1.6005950162	-2.3709257149	 0.110753
H	 5.0560093361	 2.377146783	-1.9389760803	 0.086263
H	 4.9884643865	 0.2646790431	 0.1849519369	 0.103231
H	 5.6879417135	 1.8805274968	 0.5923088961	 0.117882
H	 3.2532723247	 2.2708686697	 1.5781814613	 0.088465
44.6077	116.4336	211.8614	231.0004	378.9747	434.6543	451.7061	583.364	600.9975	694.2434	771.2251	827.9394	844.3717	865.3041	883.7341	897.1299	950.8547	966.0126	988.2114	1027.1051	1029.5305	1041.1079	1094.8884	1113.4591	1150.9278	1203.2585	1225.798	1231.1094	1236.0695	1266.3661	1297.4567	1311.0331	1322.8276	1360.7299	1430.4897	1480.3901	1496.1745	1527.3638	1801.4248	2935.9729	3069.9968	3073.5473	3122.678	3130.0172	3132.4139	3137.2123	3149.1581	3622.1177
O=CNC1CC2CC1O2	O=CN[C@H]1C[C@@H]2C[C@H]1O2	
InChI=1S/C6H9NO2/c8-3-7-5-1-4-2-6(5)9-4/h3-6H,1-2H2,(H,7,8)	InChI=1S/C6H9NO2/c8-3-7-5-1-4-2-6(5)9-4/h3-6H,1-2H2,(H,7,8)/t4-,5+,6-/m1/s1
