22
gdb 59121	3.1746	1.31459	1.13897	1.5961	84.68	-0.234	0.0805	0.3145	1185.4011	0.194719	-367.151842	-367.14336	-367.142416	-367.184883	33.477	
C	 0.7429442594	-0.365113986	-1.3065221879	-0.391065
C	 0.0508817398	 0.0350563983	 0.0036053957	 0.002865
C	-0.0074668953	 1.5599674547	 0.1722108629	-0.391566
C	-1.3572030907	-0.5500235673	 0.062793108	 0.102564
C	-1.6444998408	-2.0689047426	 0.096354281	-0.118729
C	-0.8838474741	-2.5642165687	 1.3563702789	-0.249163
C	-1.825297485	-1.6521959025	 2.140721458	-0.036134
C	-2.8332147495	-1.670291619	 1.0561417393	-0.052468
N	-2.1228772051	-0.3977981135	 1.3524068307	-0.162621
H	 1.7542754667	 0.0507271539	-1.3578994226	 0.112363
H	 0.8237979322	-1.4526745541	-1.4072874737	 0.112555
H	 0.1869554742	 0.0100495376	-2.1741735578	 0.112273
H	 0.6335229532	-0.3710751367	 0.8393797045	 0.074728
H	-0.5390112654	 2.0250720116	-0.6667737921	 0.108329
H	-0.5334374674	 1.8301941569	 1.0918066994	 0.135133
H	 0.9985687925	 1.9904574823	 0.2081927598	 0.104789
H	-1.9762061306	-0.0754763828	-0.7097908699	 0.072101
H	-1.6886060411	-2.6766795638	-0.805414652	 0.070622
H	-1.115159154	-3.6119437683	 1.5664710515	 0.105006
H	 0.1981335022	-2.4109205407	 1.4132473556	 0.097192
H	-1.9693674161	-1.5777869164	 3.2103493619	 0.095711
H	-3.9089553252	-1.7820423631	 1.031235929	 0.095517
64.4056	159.2398	179.8019	220.8601	247.3975	301.0165	372.9387	417.5291	512.4005	527.2809	710.5922	747.6182	787.8753	831.849	842.4688	874.6787	908.2134	921.2267	931.8238	956.6798	967.4698	987.6979	997.9	1018.2429	1049.7732	1057.9748	1115.8934	1127.4953	1143.3374	1168.4176	1181.405	1199.1606	1215.6389	1237.1243	1265.1357	1288.2538	1320.2744	1338.3982	1347.8276	1395.5724	1409.0253	1424.9368	1488.3882	1490.4639	1503.0739	1505.4338	1511.5622	3017.8652	3024.1822	3027.474	3035.2735	3051.4054	3088.2448	3094.2875	3099.8246	3103.0836	3116.9214	3131.177	3197.9082	3212.4316
CC(C)C1C2CC3C2N13	CC(C)[C@H]1[C@H]2C[C@@H]3[C@H]2N13	
InChI=1S/C8H13N/c1-4(2)7-5-3-6-8(5)9(6)7/h4-8H,3H2,1-2H3	InChI=1S/C8H13N/c1-4(2)7-5-3-6-8(5)9(6)7/h4-8H,3H2,1-2H3/t5-,6-,7+,8+,9?/m1/s1
