20
gdb 117263	3.76278	0.90868	0.75212	2.6456	78.14	-0.2355	0.0554	0.2909	1549.7084	0.170533	-440.316596	-440.306767	-440.305823	-440.353018	33.747	
C	 0.0589329047	 1.4891089849	-0.170047374	-0.390779
C	 0.0069717282	-0.024512342	-0.0825562122	-0.029786
O	 0.6694520036	-0.5473990524	-1.245754097	-0.270628
C	 0.7058392624	-1.9020037021	-1.3256951294	 0.493676
O	 0.2443323643	-2.6594223472	-0.4988963306	-0.425016
N	 1.3194581069	-2.2892539034	-2.4727853659	-0.133459
C	 2.2453539067	-1.5751483913	-3.3589847284	-0.162491
C	 2.7779617987	-2.9577191736	-3.8357460707	-0.242191
C	 1.8529036563	-3.6192156154	-2.7718167202	-0.157402
H	 1.0935038805	 1.8434126634	-0.1946690298	 0.125454
H	-0.4474452708	 1.8454439782	-1.071623506	 0.127306
H	-0.4357829282	 1.9294591076	 0.7008037353	 0.120795
H	 0.5087330489	-0.3980715025	 0.8159393894	 0.118186
H	-1.0224544984	-0.3962008686	-0.0584034194	 0.119721
H	 1.7525446355	-0.9587253897	-4.11713984	 0.116701
H	 2.9735299569	-0.9563513263	-2.8233666639	 0.115919
H	 2.5191833445	-3.2031753601	-4.8662005926	 0.11759
H	 3.8457095161	-3.1195343952	-3.6880332632	 0.116812
H	 2.3692197428	-4.0786407167	-1.9219655667	 0.120318
H	 1.1069922203	-4.3245799077	-3.1504300047	 0.119274
33.972	64.314	111.4549	126.7807	134.3066	162.9165	253.1854	257.3467	362.3199	429.2319	569.3092	753.9993	781.2199	806.9525	809.9689	845.0499	883.9423	912.7194	935.8846	977.2493	1054.1406	1131.5526	1140.5413	1144.3375	1170.9444	1185.0064	1190.9484	1201.5478	1230.4253	1269.8371	1290.612	1299.3645	1342.4579	1372.7336	1411.0313	1452.2772	1484.9781	1491.6136	1497.7821	1514.2711	1526.5148	1537.2877	1801.5011	3035.3594	3042.1762	3044.8682	3048.3805	3078.6164	3082.5315	3085.0848	3093.4802	3119.4721	3123.765	3147.6586
CCOC(=O)N1CCC1	CCOC(=O)N1CCC1	
InChI=1S/C6H11NO2/c1-2-9-6(8)7-4-3-5-7/h2-5H2,1H3	InChI=1S/C6H11NO2/c1-2-9-6(8)7-4-3-5-7/h2-5H2,1H3
