21
gdb 94044	3.34566	0.95692	0.8959	3.3311	82.94	-0.2286	0.0285	0.2571	1400.6833	0.18381	-383.290235	-383.280925	-383.279981	-383.325664	34.015	
C	 0.1417821395	 1.6479810657	-0.1455998178	-0.40994
C	-0.0271086894	 0.1293047929	-0.1233900441	 0.040335
C	 0.7797424093	-0.6138838775	-1.2128613298	-0.218533
C	 1.030467207	-1.9841336971	-0.5875220376	-0.16995
N	 1.3292320332	-1.6321176412	 0.8011607073	-0.049625
C	 1.4524825161	-2.7258627389	 1.7326567564	-0.297767
C	 0.1981464629	-3.4940481135	 1.9469780077	 0.250572
N	-0.8051737871	-4.0548862212	 2.0721044119	-0.316031
C	 0.4302034301	-0.5381695817	 1.2027525423	-0.180152
H	 1.1903759204	 1.926225234	 0.0104996241	 0.117876
H	-0.1768843416	 2.0664147128	-1.1061346168	 0.116409
H	-0.4528064953	 2.1284107336	 0.6385625598	 0.11721
H	-1.087894512	-0.1034626341	-0.2695704351	 0.083898
H	 0.2485086054	-0.6696515893	-2.166181652	 0.101968
H	 1.7362067861	-0.1081297668	-1.3855495357	 0.104596
H	 0.1350889752	-2.625196611	-0.6801426794	 0.100705
H	 1.8747670262	-2.5224310051	-1.032301473	 0.102144
H	 2.220340994	-3.4245779049	 1.3814291159	 0.149921
H	 1.7866697602	-2.3481442157	 2.7057371101	 0.151054
H	 0.969450608	 0.1614435343	 1.8540482274	 0.099682
H	-0.4410677686	-0.9069587351	 1.7661814981	 0.105629
20.9885	82.1686	113.7731	209.0013	240.1344	267.4129	322.3643	366.2405	384.9671	409.5762	506.0434	567.8197	679.3543	810.6401	838.6184	874.9038	892.1148	926.876	949.2944	980.3899	994.5376	1008.8806	1077.26	1139.7084	1155.529	1164.2699	1201.0329	1220.5126	1239.5183	1264.3325	1306.8286	1321.1772	1344.2013	1357.2551	1369.7282	1391.1233	1403.0946	1414.3748	1454.9052	1489.5159	1497.0838	1500.0263	1517.0191	1528.907	2343.2459	2943.2361	2976.5312	3024.6431	3027.186	3038.3729	3039.122	3046.587	3061.3315	3078.7409	3095.5565	3098.5689	3106.8522
CC1CCN(CC#N)C1	C[C@H]1CCN(CC#N)C1	
InChI=1S/C7H12N2/c1-7-2-4-9(6-7)5-3-8/h7H,2,4-6H2,1H3	InChI=1S/C7H12N2/c1-7-2-4-9(6-7)5-3-8/h7H,2,4-6H2,1H3/t7-/m0/s1
