19
gdb 90106	2.80181	1.50106	1.33525	1.3159	77.01	-0.2316	0.0632	0.2948	1035.9908	0.159149	-422.893827	-422.885918	-422.884973	-422.925615	32.126	
O	 0.0993259082	 1.4891916385	-0.1130994101	-0.413222
C	 0.06203606	 0.0851409942	 0.0067600934	 0.054638
C	 0.223007982	-0.5191438327	 1.4825215063	-0.379173
C	-1.310968248	-0.6879362266	 1.4689786847	 0.261372
C	-2.6374580444	-1.5190485941	 1.4237872707	-0.32132
C	-2.8260017551	-0.2914729113	 0.4159474991	-0.155153
C	-2.1964103814	 0.5948830996	 1.5110908344	 0.133123
O	-2.8826605236	 0.7923027476	 2.7276950627	-0.453426
C	-1.3590839066	-0.6045548129	-0.0553604415	-0.015696
H	 0.9980999803	 1.7789269538	 0.0762619946	 0.285913
H	 0.747422065	-0.3756230864	-0.7177808412	 0.074515
H	 0.7823069141	-1.4588325228	 1.4599431492	 0.105323
H	 0.6483932381	 0.1409575951	 2.2450709214	 0.100702
H	-2.5630031491	-2.5071507289	 0.9627237874	 0.091045
H	-3.2848403199	-1.5183543708	 2.3002140711	 0.115998
H	-3.7157183928	-0.089029973	-0.1885076498	 0.06527
H	-1.724788153	 1.5146019266	 1.1641424749	 0.096082
H	-3.4314821489	 1.5759184743	 2.6312036704	 0.281839
H	-1.2658660549	-1.5612699603	-0.5754477777	 0.07217
174.2251	212.3436	240.368	248.2373	264.0374	345.0292	396.3045	424.8998	481.1671	577.3494	631.1042	723.1699	776.6731	783.8831	791.2533	870.283	886.4834	914.0758	954.7413	994.0351	1031.7007	1035.1505	1048.1376	1082.9956	1110.5412	1134.5752	1158.1722	1176.8354	1187.1509	1206.4407	1216.0722	1220.2987	1230.8855	1258.0996	1303.7546	1312.1335	1365.2599	1415.2753	1455.5405	1464.8231	1509.4016	2995.7611	3045.2073	3054.8704	3065.9311	3075.0552	3106.7598	3115.6417	3150.8952	3805.1882	3830.1104
OC1CC23CC(C2O)C13	O[C@H]1C[C@@]23C[C@@H]([C@H]2O)[C@@H]13	
InChI=1S/C7H10O2/c8-4-2-7-1-3(5(4)7)6(7)9/h3-6,8-9H,1-2H2	InChI=1S/C7H10O2/c8-4-2-7-1-3(5(4)7)6(7)9/h3-6,8-9H,1-2H2/t3-,4+,5+,6-,7-/m1/s1
