16
gdb 37575	3.9878	1.68796	1.45454	1.8517	68.04	-0.2326	0.0673	0.2999	891.421	0.125889	-437.743036	-437.736772	-437.735827	-437.773686	25.423	
C	-0.0416561846	 1.4461350994	-0.0861832345	-0.001026
O	 1.2727497183	 2.0051661793	 0.0290864832	-0.287944
C	 2.1249843935	 0.8752123765	-0.164529546	 0.037321
C	 3.1266152066	 0.3028938828	 0.8644426101	-0.137406
C	 2.0351878635	 0.0674345378	 1.941187125	-0.093232
N	 2.2766691125	-1.4032923671	 2.116801443	-0.333698
C	 2.5045353509	-1.1762206307	 0.6606966998	-0.140199
C	 1.3245639173	-0.1581140484	 0.5458329462	 0.489272
O	-0.0119724108	 0.0272909261	 0.2577277435	-0.337166
H	-0.6974039128	 1.9795472269	 0.6081478113	 0.126329
H	-0.4168527013	 1.5220207686	-1.1155706223	 0.111483
H	 2.3680454346	 0.7267486169	-1.2234056536	 0.077959
H	 4.1805579133	 0.5229260729	 1.0284691261	 0.087937
H	 1.7323224942	 0.7279262538	 2.7510065885	 0.094421
H	 3.172721325	-1.554704789	 2.5883833627	 0.209726
H	 2.8263828898	-1.9488505758	-0.0373043431	 0.096224
112.4219	230.4602	328.6273	357.9332	544.1783	578.1669	678.4905	691.3666	734.5182	806.4587	851.7783	870.4803	888.9787	904.7156	925.9312	950.6625	1014.0211	1027.8702	1035.3352	1057.2845	1085.5847	1095.0163	1123.9816	1148.6044	1161.3109	1171.5808	1201.5419	1224.4915	1247.1049	1292.3519	1300.3092	1329.4831	1392.2149	1423.8709	1534.8589	3011.3073	3037.2844	3088.6699	3121.2057	3131.4603	3145.0265	3402.1361
C1OC2C3C4NC3C24O1	C1O[C@H]2[C@H]3[C@@H]4N[C@H]3[C@]24O1	
InChI=1S/C6H7NO2/c1-8-5-2-3-6(5,9-1)4(2)7-3/h2-5,7H,1H2	InChI=1S/C6H7NO2/c1-8-5-2-3-6(5,9-1)4(2)7-3/h2-5,7H,1H2/t2-,3-,4+,5-,6-/m0/s1
