17
gdb 50112	3.82898	0.69269	0.61798	2.2209	76.48	-0.2638	-0.045	0.2188	1732.167	0.132328	-421.776387	-421.766861	-421.765917	-421.81209	33.476	
O	-0.107386006	 0.1881407026	 0.7384365106	-0.241558
C	 0.4153785583	 0.6738878569	-0.2316703855	 0.139424
C	 1.4004865614	 1.7950936057	-0.1488591732	-0.056839
O	 2.2830803215	 1.9432514393	-1.2682846846	-0.244223
C	 1.3292776855	 2.9743223043	-1.0483762938	 0.065156
C	 0.2768668387	 3.2020483565	-2.1066189918	-0.226295
C	 0.8714384485	 3.9434936301	-3.3253049441	-0.349607
C	-0.1218763505	 4.2086787972	-4.3572861764	 0.286566
C	-0.9631420832	 4.411834643	-5.1910228337	-0.427615
H	 0.2142681433	 0.3100862962	-1.2617241676	 0.095296
H	 1.8510111097	 1.9244824228	 0.8344036358	 0.11923
H	 1.7668256901	 3.8894843159	-0.6409383852	 0.107125
H	-0.1537615816	 2.2551500045	-2.4396664813	 0.123385
H	-0.5376350744	 3.7970104252	-1.6787369957	 0.127134
H	 1.3210042011	 4.8891769134	-2.9947785442	 0.13322
H	 1.6899665327	 3.3431188055	-3.7406334856	 0.150983
H	-1.6955275451	 4.5980691909	-5.9369256039	 0.198619
61.8383	64.8671	74.1187	123.8746	204.0671	257.9942	314.6829	346.0739	430.9281	442.9426	530.5447	530.8897	623.9689	646.619	763.1665	823.8628	866.6706	948.9028	971.0546	1006.0737	1027.6161	1056.3925	1088.8321	1130.4957	1170.3239	1213.747	1265.4325	1287.8199	1314.3066	1342.4443	1373.6401	1413.0613	1464.9409	1474.5638	1484.8622	1824.4575	2241.8171	2909.7329	3021.0607	3052.4613	3061.6217	3077.5828	3116.5906	3131.8949	3506.5615
O=CC1OC1CCC#C	O=C[C@H]1O[C@H]1CCC#C	
InChI=1S/C7H8O2/c1-2-3-4-6-7(5-8)9-6/h1,5-7H,3-4H2	InChI=1S/C7H8O2/c1-2-3-4-6-7(5-8)9-6/h1,5-7H,3-4H2/t6-,7+/m0/s1
