23
gdb 120786	4.36219	0.61804	0.58103	0.8943	93.07	-0.2549	0.0584	0.3132	1992.0451	0.20369	-351.116018	-351.10539	-351.104446	-351.152531	38.897	
C	 0.0936532145	 1.5395675077	 0.3227850997	-0.382373
C	-0.0380678454	 0.0148315123	 0.3511644466	-0.161209
C	-1.338286072	-0.4891332276	-0.2913510764	-0.187203
C	-1.453237913	-2.0003657655	-0.2658354153	-0.015223
C	-2.0348601206	-2.7230199392	 0.9290334348	-0.283734
C	-2.7619168281	-2.7471639578	-0.3917634094	-0.008656
C	-4.0982135228	-2.0351193746	-0.5651282015	-0.380596
C	-5.2322519555	-2.8720727563	-0.1825477621	 0.306586
C	-6.1541955963	-3.5777256099	 0.1286675944	-0.446284
H	 1.0298665619	 1.8687461891	 0.7842856252	 0.111786
H	 0.0774619798	 1.9201104597	-0.7047325522	 0.113241
H	-0.7301241171	 2.0187397848	 0.8638290673	 0.113032
H	 0.8176526409	-0.4380386824	-0.1667253794	 0.094131
H	 0.0106338013	-0.3441073872	 1.3868708541	 0.100157
H	-2.1892278944	-0.0337292209	 0.2300142894	 0.090823
H	-1.3893915011	-0.1298980332	-1.3290212924	 0.09293
H	-0.6109073519	-2.4985777225	-0.7420717023	 0.081004
H	-1.562505082	-3.6313180309	 1.2863207018	 0.110191
H	-2.4635462458	-2.1093880423	 1.7166318231	 0.109587
H	-2.7126891541	-3.6830737943	-0.9411338563	 0.092444
H	-4.1173724083	-1.1140764686	 0.0286798367	 0.12789
H	-4.2187713673	-1.7218485035	-1.6111119181	 0.129328
H	-6.9731079824	-4.1935313368	 0.4063775521	 0.192148
46.5766	79.3527	87.3173	107.1122	156.0766	236.8571	243.0935	289.3762	338.0857	352.8893	438.2699	465.2651	553.3216	613.741	633.6784	744.6965	792.1346	828.5118	853.1561	886.3829	891.1548	916.2469	945.9591	985.3479	1030.1299	1046.7479	1060.289	1086.1494	1126.7486	1146.263	1151.4121	1198.8395	1244.6267	1253.2611	1270.8382	1304.5391	1320.1847	1331.4302	1382.7234	1402.1482	1413.5494	1434.3445	1466.9	1481.4339	1492.7845	1498.313	1500.1212	1510.4735	2238.1725	3004.7006	3016.5527	3019.8833	3028.5586	3039.4804	3056.2161	3063.5415	3094.9024	3101.2135	3121.0882	3123.2988	3146.9059	3208.4812	3507.5881
CCCC1CC1CC#C	CCC[C@H]1C[C@H]1CC#C	
InChI=1S/C9H14/c1-3-5-8-7-9(8)6-4-2/h1,8-9H,4-7H2,2H3	InChI=1S/C9H14/c1-3-5-8-7-9(8)6-4-2/h1,8-9H,4-7H2,2H3/t8-,9+/m1/s1
