18
gdb 24132	5.03776	0.95494	0.88926	2.9903	78.54	-0.2131	0.037	0.2501	1331.1674	0.150283	-398.135412	-398.127554	-398.12661	-398.168714	29.475	
C	-0.1127703828	 1.6642353175	 0.1778220392	-0.272327
N	-0.2350476682	 0.321846502	-0.3914550969	-0.086189
C	-0.1875983962	-0.7868353573	 0.5605358579	-0.217863
C	-1.4689078952	-0.3939240001	-0.0878841088	-0.217977
C	 1.3218733967	 2.0914670003	 0.1830331181	 0.354171
N	 1.8932472859	 2.9303519869	 1.0199224133	-0.314644
C	 3.1988260551	 3.0372747364	 0.5937319282	-0.093421
C	 3.4145711768	 2.2499846894	-0.5061522632	-0.113061
N	 2.2004155758	 1.653232071	-0.761543835	-0.253048
H	-0.710222321	 2.3415631645	-0.4473207791	 0.123326
H	-0.5040726914	 1.7447916234	 1.2041476758	 0.115311
H	 0.347189928	-1.6722534547	 0.2299598049	 0.118549
H	-0.0621167299	-0.5438324881	 1.6137018477	 0.125534
H	-2.2078662971	 0.109217525	 0.5330418224	 0.117046
H	-1.8831177215	-0.9872199561	-0.897925674	 0.120134
H	 3.9071873425	 3.6696847132	 1.1070466432	 0.102535
H	 4.2864872327	 2.0554080076	-1.107957555	 0.122649
H	 1.9740441198	 0.9741037591	-1.4696503689	 0.269276
59.3736	75.9177	137.6441	253.7881	330.7622	375.0614	433.0862	590.377	661.7923	694.3717	732.2496	754.714	774.4608	840.4769	853.1213	907.3001	932.4571	988.2948	1009.7574	1027.2933	1054.4131	1094.8515	1116.4916	1122.8264	1136.9226	1169.7952	1173.4818	1188.8256	1255.5103	1278.2226	1320.7937	1358.9234	1400.1479	1467.3691	1487.4521	1496.8231	1510.1427	1522.9648	1590.4874	2984.1078	3029.1159	3100.1214	3105.6432	3182.8827	3197.5794	3246.9143	3280.3217	3661.1598
C(N1CC1)C1=NC=CN1	C(N1CC1)c1ncc[nH]1	
InChI=1S/C6H9N3/c1-2-8-6(7-1)5-9-3-4-9/h1-2H,3-5H2,(H,7,8)	InChI=1S/C6H9N3/c1-2-8-6(7-1)5-9-3-4-9/h1-2H,3-5H2,(H,7,8)
