15
gdb 53888	4.50043	0.82242	0.71878	4.1657	65.19	-0.2512	-0.0812	0.17	1488.575	0.110514	-491.116731	-491.107258	-491.106314	-491.152319	32.539	
N	-0.3656060246	 1.0872233935	-0.3667552254	-0.516522
C	-0.0165936094	-0.1483776009	 0.0450876228	 0.335937
O	 1.105950027	-0.5377658826	 0.3083094964	-0.348869
C	-1.2279524732	-1.0975418781	 0.1571984038	 0.274295
O	-2.3443788857	-0.7381395755	-0.1266317827	-0.288528
C	-0.8851313425	-2.5054870411	 0.6203402683	-0.192671
O	-2.0254177497	-3.267357878	 0.934568917	-0.167514
C	-2.7657517978	-3.7194358411	-0.1054882859	 0.145541
N	-3.8244818609	-4.362832103	 0.1190508023	-0.43857
H	 0.3354834426	 1.8007112643	-0.4748396269	 0.275426
H	-1.3361040848	 1.2849741519	-0.5514731085	 0.284241
H	-0.2588160946	-2.9791796129	-0.1507569897	 0.147934
H	-0.268326144	-2.4485383885	 1.5201836953	 0.170955
H	-2.3329980311	-3.4841782187	-1.0867789696	 0.086391
H	-4.2516655913	-4.6490790692	-0.759096887	 0.231955
47.8584	68.9291	81.9133	137.23	191.595	282.538	326.5619	345.0745	363.4175	407.9019	509.9606	587.2881	621.489	670.3711	722.0716	815.4099	828.5974	960.7649	1018.9325	1037.7151	1059.0597	1100.8505	1182.2878	1228.6754	1315.0953	1358.6848	1395.4184	1418.835	1450.8888	1593.8083	1752.6199	1799.7846	1823.3462	3007.0856	3030.8587	3115.555	3523.9143	3594.1733	3733.6575
NC(=O)C(=O)COC=N	NC(=O)C(=O)CO[CH][NH]	
InChI=1S/C4H6N2O3/c5-2-9-1-3(7)4(6)8/h2,5H,1H2,(H2,6,8)	InChI=1S/C4H6N2O3/c5-2-9-1-3(7)4(6)8/h2,5H,1H2,(H2,6,8)
