21
gdb 99974	2.68035	1.10443	0.96054	3.8225	78.65	-0.2647	0.0277	0.2925	1305.5059	0.1806	-420.413479	-420.402507	-420.401563	-420.448962	40.003	
C	-0.0604910143	 1.5830197357	 0.0852409955	-0.435126
C	-0.0199351765	 0.0458068258	 0.0351590289	 0.261255
C	 0.7320803324	-0.5011168322	 1.2615342403	-0.430282
C	-1.4536892689	-0.5178653128	 0.0214400757	-0.096286
O	-2.1012040555	-0.1159799744	 1.2206541006	-0.42752
C	 0.6846137979	-0.4544265106	-1.2633747771	-0.154317
N	-0.0088677909	-0.0177528675	-2.4806229785	-0.507506
C	 2.1160867266	-0.0762398779	-1.2756540312	 0.269774
N	 3.2258899722	 0.2427341686	-1.3427501701	-0.338381
H	 0.9489928488	 2.0058199376	 0.0800022752	 0.129423
H	-0.6171638009	 2.0017883433	-0.759993685	 0.110112
H	-0.5662599078	 1.9060017129	 0.9971137999	 0.141275
H	 0.1878207856	-0.2434226329	 2.171799903	 0.141298
H	 0.8164613347	-1.5933115102	 1.2191321208	 0.107572
H	 1.7414523903	-0.0861384839	 1.3285357231	 0.134799
H	-1.9837806252	-0.1493685043	-0.8644578187	 0.109827
H	-1.409137048	-1.6180342655	-0.0496700405	 0.077863
H	-3.0312130442	-0.3472284258	 1.1505058065	 0.290681
H	 0.6493593359	-1.5508572188	-1.250046893	 0.124757
H	 0.1386333795	 0.9766761965	-2.6245561967	 0.24561
H	 0.3911769484	-0.4837601935	-3.2892943688	 0.245174
65.589	111.6132	136.7585	209.9969	215.653	230.0534	237.2364	248.9293	283.8075	298.8162	340.2297	349.1138	393.6109	435.3953	456.5682	603.4165	640.0003	752.4673	841.5596	884.7322	939.7852	965.0319	967.9851	985.4141	1037.38	1086.8533	1110.8431	1151.0805	1192.2686	1228.4954	1235.9041	1286.5462	1300.9652	1340.7216	1391.8377	1398.0022	1411.2501	1456.3342	1484.664	1495.6674	1500.5467	1518.5778	1525.8725	1661.1439	2340.7899	2956.8161	3033.449	3036.7281	3040.4972	3052.3481	3103.2566	3106.2308	3133.8526	3139.1903	3501.9773	3577.9555	3842.6138
CC(C)(CO)C(N)C#N	CC(C)(CO)[C@@H](N)C#N	
InChI=1S/C6H12N2O/c1-6(2,4-9)5(8)3-7/h5,9H,4,8H2,1-2H3	InChI=1S/C6H12N2O/c1-6(2,4-9)5(8)3-7/h5,9H,4,8H2,1-2H3/t5-/m0/s1
