18
gdb 88812	3.11644	1.09218	0.90226	2.9505	73.42	-0.2375	0.0421	0.2796	1289.9778	0.147438	-439.08295	-439.074075	-439.073131	-439.117561	32.408	
O	 0.0830398404	 1.4787197791	 0.6248795675	-0.417791
C	 0.1071792623	 0.1181578863	 0.2992227366	 0.081031
C	-0.6067091807	-0.8710782344	 1.1821401049	-0.327581
C	-1.1902885466	-0.4883304911	-0.1655227417	-0.019315
C	-2.4425255816	 0.3405859109	-0.2219837326	-0.153928
C	-2.9273942235	 0.8426520949	-1.6193999834	-0.182639
N	-4.1499042168	 0.0655907576	-1.399903774	-0.32349
C	-3.7918164329	-0.4349713641	-0.171393499	 0.413326
O	-4.3356188122	-1.1792056757	 0.5997568345	-0.363991
H	 0.6118722862	 1.6033881593	 1.4194862927	 0.290865
H	 1.0170393422	-0.2109197428	-0.2024754519	 0.088167
H	-0.1916895617	-1.8645473014	 1.3091740582	 0.11615
H	-1.1084530273	-0.4732847328	 2.0580026363	 0.124974
H	-1.1074329573	-1.2361445316	-0.9501233154	 0.090055
H	-2.4032836271	 1.1411066676	 0.5189510504	 0.110774
H	-3.0846466255	 1.9224966431	-1.700088879	 0.114764
H	-2.322853642	 0.496158107	-2.4642282398	 0.109966
H	-4.9873514759	-0.0502538718	-1.9506638642	 0.248664
38.1211	90.6078	119.4681	189.6466	218.6397	301.4749	340.4202	438.9368	446.1739	475.9791	593.2486	677.3701	751.4459	783.4554	838.7785	857.2299	919.3636	950.8442	983.1729	1000.3016	1034.1234	1056.7397	1075.6486	1133.4096	1152.7235	1165.565	1172.6463	1183.7309	1208.0592	1240.6615	1281.6119	1295.2664	1306.9673	1392.5499	1407.0237	1432.6927	1489.392	1528.378	1891.0185	3039.2762	3084.9577	3098.7361	3106.7854	3135.5782	3140.2688	3224.4526	3613.1969	3811.4921
OC1CC1C1CNC1=O	O[C@H]1C[C@H]1[C@H]1CNC1=O	
InChI=1S/C6H9NO2/c8-5-1-3(5)4-2-7-6(4)9/h3-5,8H,1-2H2,(H,7,9)	InChI=1S/C6H9NO2/c8-5-1-3(5)4-2-7-6(4)9/h3-5,8H,1-2H2,(H,7,9)/t3-,4+,5-/m0/s1
