17
gdb 20099	4.43481	1.70549	1.49872	1.8557	68.01	-0.213	0.0789	0.2919	878.1438	0.142277	-363.773292	-363.766327	-363.765383	-363.804498	26.992	
C	-0.8533397037	-0.4225372987	-1.1412592106	-0.230958
C	-1.067458633	 0.9423661443	-0.5882589614	-0.227304
N	-0.0872362492	 0.0347570083	 0.013056973	-0.152167
C	-0.3999464362	-0.5184669523	 1.2838002713	 0.294508
C	-0.3420141171	-1.9845102322	 1.6215981547	-0.336807
C	-1.5891767151	-1.2049641167	 1.953949651	 0.035346
O	-1.4084782754	-0.4721562573	 3.1668608566	-0.285144
C	-0.3160760302	 0.2853465947	 2.5768911996	-0.124722
H	-1.6467736778	-1.1488827404	-0.9751388597	 0.114672
H	-0.2843295639	-0.5699109736	-2.0541902558	 0.122414
H	-0.6527852498	 1.8116182105	-1.0892033267	 0.121166
H	-1.9955790563	 1.1150020455	-0.0477310575	 0.120277
H	-0.4341282635	-2.6400038665	 0.7598756711	 0.115184
H	 0.293270074	-2.360912859	 2.4204614336	 0.113371
H	-2.5991541402	-1.471412946	 1.6640868634	 0.103736
H	 0.6089576457	 0.2160649129	 3.1603219589	 0.108314
H	-0.6019186784	 1.3359635466	 2.4507989583	 0.108114
92.1933	170.083	202.1022	309.3669	422.879	474.2501	489.8301	553.9636	749.3749	792.8534	850.7668	864.7863	898.5683	922.568	939.9153	977.3324	984.6923	1015.1036	1033.0355	1066.4158	1083.6138	1109.7923	1113.7668	1123.479	1149.8724	1172.0164	1181.3738	1232.1977	1239.6929	1298.43	1335.445	1418.2766	1484.5886	1489.6183	1514.3792	1515.5906	3026.6772	3078.9754	3100.3875	3103.8362	3106.9628	3177.9388	3185.6386	3198.342	3201.6237
C1CN1C12CC1OC2	C1CN1[C@]12C[C@H]1OC2	
InChI=1S/C6H9NO/c1-2-7(1)6-3-5(6)8-4-6/h5H,1-4H2	InChI=1S/C6H9NO/c1-2-7(1)6-3-5(6)8-4-6/h5H,1-4H2/t5-,6+/m1/s1
