16
gdb 48407	2.14593	1.80912	1.18952	2.2237	69.59	-0.2396	-0.0568	0.1828	1038.2984	0.122577	-437.844116	-437.835916	-437.834972	-437.877272	30.012	
O	-0.8087331066	 0.609598077	 0.3167123313	-0.255179
C	 0.3201410457	 0.5464595022	-0.1003483238	 0.106509
C	 1.2665927542	 1.7366131618	-0.0980875825	 0.116964
N	 2.6213115532	 1.5023214893	-0.6596070678	-0.381128
C	 2.4348445074	 2.651634943	-1.5800826743	 0.012116
C	 1.3491251947	 2.3141713642	-2.5469220963	-0.284078
C	 0.9836062837	 2.827223464	-1.1689884271	-0.118275
C	 1.2872534836	 2.3822954337	 1.2808342355	 0.115906
O	 2.3023710473	 2.7299954446	 1.8264561265	-0.251422
H	 0.7532573892	-0.3833153775	-0.5255030627	 0.105204
H	 3.2978889261	 1.7344211816	 0.0662658158	 0.240554
H	 3.2167459139	 3.3792405768	-1.7550008833	 0.110701
H	 1.1768711028	 3.0407409922	-3.3348512182	 0.125643
H	 1.1837261861	 1.2803321165	-2.8335698818	 0.123908
H	 0.3687056846	 3.7020190688	-1.0038973566	 0.111168
H	 0.287837624	 2.5073898018	 1.7408598253	 0.121408
76.5256	116.0662	168.1483	205.0402	224.0987	313.1293	366.4196	458.1914	480.5079	666.1019	698.905	754.1977	818.8105	836.7964	881.1938	936.5976	953.7868	989.8109	997.5475	1024.3	1041.8791	1047.1867	1086.29	1128.5663	1163.0288	1178.5287	1209.716	1266.7337	1323.9361	1386.597	1392.9391	1416.3298	1481.4977	1801.558	1828.2769	2915.4271	2955.3067	3123.9264	3192.7055	3202.5801	3215.8968	3480.0974
O=CC1(NC2CC12)C=O	O=CC1(N[C@H]2C[C@@H]12)C=O	
InChI=1S/C6H7NO2/c8-2-6(3-9)4-1-5(4)7-6/h2-5,7H,1H2	InChI=1S/C6H7NO2/c8-2-6(3-9)4-1-5(4)7-6/h2-5,7H,1H2/t4-,5+/m1/s1
