16
gdb 26883	3.03431	1.4349	0.98013	2.6486	79.96	-0.1968	-0.0332	0.1636	1156.7979	0.124187	-437.933104	-437.924762	-437.923818	-437.96623	31.191	
C	-0.0087562866	 1.5651021845	 0.0236014375	-0.50058
C	 0.0104063118	 0.060524647	 0.0015597761	 0.056407
C	-0.0168944342	-0.6553699059	-1.1467603724	 0.415394
O	-0.0631636334	-0.1103801625	-2.3722504494	-0.402135
O	-0.000996314	-2.0007662358	-1.198869366	-0.285706
C	 0.0463392589	-2.8103772188	-0.0379975761	 0.378726
N	 0.0589428099	-4.0738287508	-0.1564151284	-0.537681
C	 0.0761352039	-2.0747989446	 1.2006462153	-0.183381
C	 0.0587744334	-0.7217600122	 1.2051824555	-0.098774
H	 0.8799952267	 1.96729648	 0.5241161177	 0.129141
H	-0.0371414559	 1.974294086	-0.9875396878	 0.143214
H	-0.8837600062	 1.9449250979	 0.564332613	 0.129286
H	-0.0730466603	-0.8302192259	-3.0157862569	 0.310396
H	 0.0314947996	-4.3544391049	-1.1357954705	 0.216538
H	 0.1126419441	-2.6648658963	 2.1059975185	 0.119622
H	 0.0821039724	-0.1898597978	 2.1522376939	 0.109533
73.7697	100.3312	192.3593	269.0256	281.8691	342.2429	365.736	422.1842	466.1499	511.5542	575.6512	663.8055	724.2031	725.5903	775.1852	804.4848	838.5417	900.6981	984.4836	992.2594	1059.2035	1067.8055	1126.5478	1165.2157	1251.9947	1258.4923	1306.5637	1389.4108	1423.2559	1446.2204	1490.8104	1500.2911	1604.7123	1705.7167	1761.7085	3025.6794	3071.5711	3137.3927	3172.6848	3233.5123	3501.5976	3801.3762
CC1=C(O)OC(=N)C=C1	CC1=C(O)OC(=CC1)[NH]	
InChI=1S/C6H7NO2/c1-4-2-3-5(7)9-6(4)8/h2-3,7-8H,1H3	InChI=1S/C6H8NO2/c1-4-2-3-5(7)9-6(4)8/h3,7-8H,2H2,1H3
