23
gdb 59708	2.94079	1.21727	0.96813	1.4778	84.24	-0.2266	0.0798	0.3064	1306.9067	0.206298	-388.285079	-388.276046	-388.275102	-388.318593	35.395	
C	-0.0112367174	 1.5410273343	-0.012881144	-0.394265
C	 0.0180997882	 0.0055675611	 0.0318825458	 0.031649
C	 0.8163560239	-0.4807147519	 1.2492426932	-0.393875
C	-1.4039692904	-0.5830162241	 0.0176849199	 0.01093
C	-2.2285603429	-0.1843868584	-1.2352553702	-0.118407
O	-3.1487258921	-1.2406597376	-1.4990681127	-0.259351
C	-2.6193065873	-2.4220463402	-0.956369603	 0.112446
C	-1.2097888406	-2.8171405474	-1.313397402	-0.333858
C	-1.5104661479	-2.1051861463	 5.402*^-7	-0.095187
H	 1.003631679	 1.9517721952	-0.008371698	 0.111256
H	-0.5151273146	 1.9174617597	-0.9085959057	 0.11659
H	-0.5358910017	 1.9468825147	 0.8606101577	 0.112287
H	 0.5306012267	-0.3523494274	-0.8726131359	 0.070868
H	 0.9069434559	-1.5707293158	 1.2627964907	 0.117811
H	 1.8276803536	-0.0608132719	 1.2472697003	 0.109194
H	 0.3328903022	-0.1719745358	 2.1842410845	 0.109944
H	-1.9290397552	-0.2295875032	 0.9165318625	 0.071693
H	-2.8062008175	 0.7343199868	-1.1042654678	 0.11126
H	-1.559658158	-0.0384638091	-2.0974971598	 0.092748
H	-3.385141527	-3.168540803	-0.7825130203	 0.098882
H	-0.9591723979	-3.871006922	-1.2562724619	 0.111551
H	-0.6987682816	-2.282252644	-2.1067583851	 0.116438
H	-1.3905865874	-2.6486356837	 0.9293812121	 0.089397
79.381	131.2028	176.9731	232.8834	249.4511	265.9438	325.7636	373.1355	395.5517	450.9791	487.0417	642.695	700.7397	763.0575	811.4747	845.7399	891.0169	926.5931	945.6294	963.5384	966.2031	977.3191	988.6409	1026.5067	1034.2243	1069.1171	1084.5216	1108.5839	1149.2015	1166.2977	1182.2805	1196.4898	1202.2245	1245.6474	1294.5658	1309.7768	1321.6838	1348.1555	1378.413	1385.4841	1398.4042	1406.5452	1420.993	1478.4606	1487.8965	1492.7858	1505.3752	1511.2175	1526.1611	2981.8711	2995.6641	3010.8438	3024.15	3029.0704	3086.2712	3087.8452	3094.1843	3102.1275	3107.8824	3131.9144	3176.7362	3186.3647	3217.3033
CC(C)C1COC2CC12	CC(C)[C@H]1CO[C@H]2C[C@@H]12	
InChI=1S/C8H14O/c1-5(2)7-4-9-8-3-6(7)8/h5-8H,3-4H2,1-2H3	InChI=1S/C8H14O/c1-5(2)7-4-9-8-3-6(7)8/h5-8H,3-4H2,1-2H3/t6-,7+,8-/m0/s1
