16
gdb 66030	2.82251	1.25288	1.12701	2.1458	73.9	-0.2716	-0.0134	0.2582	1119.296	0.124433	-396.933639	-396.924907	-396.923963	-396.967176	31.586	
C	-0.4220797368	 1.5774296074	 0.0661859213	-0.437354
C	 0.0159190246	 0.118038543	 0.0661982397	 0.141008
N	 1.3020760822	-0.1490645563	-0.6228692788	-0.320491
C	 1.7518267531	-1.0814715805	 0.4317970038	-0.171771
C	 0.6577614977	-0.5022008473	 1.3795039686	-0.216747
C	 1.1306778764	 0.477260044	 2.3407588892	 0.301049
N	 1.5056011169	 1.253843597	 3.1105465812	-0.322631
C	-1.0746947694	-0.7555909857	-0.4025249718	 0.255653
N	-1.9059386107	-1.4534751859	-0.801830854	-0.330253
H	 0.3911330358	 2.2014084482	 0.440342603	 0.157948
H	-0.6663327775	 1.889451208	-0.9531360704	 0.140821
H	-1.3072617416	 1.7209829553	 0.6923355173	 0.143787
H	 1.2287752472	-0.5275728449	-1.5610274815	 0.241029
H	 1.5711569899	-2.1427987785	 0.224858144	 0.126899
H	 2.7892103364	-0.939355621	 0.7415599715	 0.139056
H	 0.0337057058	-1.2392881327	 1.8847809171	 0.151999
73.3887	129.8459	164.3094	192.3311	226.3353	244.688	324.6751	380.1269	488.4975	496.8172	565.0595	587.2433	647.8341	716.9602	827.4003	867.2976	910.8034	968.3632	1003.427	1052.2831	1089.5199	1134.9417	1164.7902	1167.2091	1200.7202	1213.3869	1324.5686	1340.5133	1385.9316	1414.1505	1480.4413	1487.3169	1519.5044	2342.8544	2358.9993	3034.1269	3051.1877	3107.6972	3120.3061	3125.0272	3148.9808	3539.8336
CC1(NCC1C#N)C#N	C[C@]1(NC[C@H]1C#N)C#N	
InChI=1S/C6H7N3/c1-6(4-8)5(2-7)3-9-6/h5,9H,3H2,1H3	InChI=1S/C6H7N3/c1-6(4-8)5(2-7)3-9-6/h5,9H,3H2,1H3/t5-,6+/m1/s1
