13
gdb 21604	3.51782	2.2693	1.38099	1.7909	67.45	-0.2088	-0.0506	0.1582	819.4588	0.097313	-394.753796	-394.747229	-394.746285	-394.784279	25.464	
N	 0.0643314988	 1.3709239436	 0.0265038347	-0.589704
C	-0.0032935857	-0.0034034356	 0.0293121874	 0.222275
C	-1.1382078404	-0.7397598029	 0.0683155411	 0.003815
O	-1.1759486914	-2.0997390183	 0.1283012521	-0.231002
N	-0.0171170379	-2.8272289335	 0.1561167094	-0.063452
C	 1.0922681317	-2.1674697278	 0.1116033307	-0.03148
C	 1.2628478419	-0.7242696029	 0.0323786633	 0.244661
N	 2.3714110129	-0.0717557354	-0.0424685579	-0.558989
H	 0.9788221847	 1.7068948787	-0.2479730274	 0.273776
H	-0.7143017153	 1.8788029642	-0.3619281194	 0.250798
H	-2.1426579604	-0.3356355056	 0.0623980822	 0.131785
H	 1.9756913679	-2.8020416041	 0.1306180862	 0.131289
H	 3.1743255034	-0.7022739404	-0.0397371423	 0.216227
133.7713	282.7672	311.8004	385.2542	390.6689	434.9959	528.1641	542.7211	583.4703	608.0371	762.3956	774.0434	829.7848	854.1754	905.4643	917.0322	938.6492	1083.1595	1131.2773	1197.516	1306.8509	1320.9579	1366.3248	1485.0985	1596.1353	1616.6964	1671.8475	1688.3025	3162.8111	3216.4913	3463.6665	3548.2158	3676.7951
NC1=CON=CC1=N	NC1=C(C=NO[CH]1)[NH]	
InChI=1S/C4H5N3O/c5-3-1-7-8-2-4(3)6/h1-2,5H,6H2	InChI=1S/C4H5N3O/c5-3-1-7-8-2-4(3)6/h1-2,5H,6H2
