17
gdb 123483	5.22325	0.91794	0.85812	3.4005	74.23	-0.24	0.0025	0.2425	1342.6861	0.138056	-414.150941	-414.143172	-414.142227	-414.184543	28.519	
C	-0.1226053537	 1.6519814491	 0.1050213487	-0.269818
N	-0.2813802175	 0.2884772315	-0.3937342739	-0.069131
C	-0.1464740505	-0.7764528736	 0.5970537811	-0.218144
C	-1.4812944053	-0.4146120461	 0.0449472822	-0.218188
C	 1.3085782209	 2.0822934747	 0.0199345034	 0.317636
C	 2.2964148537	 1.6644930574	-0.8409436198	-0.15053
N	 3.3734060848	 2.3989735542	-0.4761332107	-0.15216
N	 3.0886601488	 3.2241589944	 0.5468597994	-0.118202
N	 1.8362780867	 3.0301933901	 0.8484326508	-0.256576
H	-0.7517182409	 2.3056925023	-0.5131375987	 0.122988
H	-0.4660070505	 1.7760511244	 1.1461419011	 0.106942
H	 0.3639417773	-1.6742794894	 0.2610259777	 0.116021
H	 0.0624995893	-0.4901649698	 1.6262455036	 0.12025
H	-2.1661945412	 0.111714526	 0.7078024939	 0.113687
H	-1.9612110965	-1.0419568012	-0.7006464081	 0.118289
H	 2.3117431746	 0.9382517574	-1.634344127	 0.155604
H	 4.3073267398	 2.3870414486	-0.8536561737	 0.281332
40.2835	77.5783	134.2482	272.3892	331.4295	365.355	427.3725	580.1588	672.477	730.7368	753.5699	772.4471	803.8196	842.1627	907.6502	985.0808	1010.5263	1022.7296	1039.8043	1054.3885	1061.6757	1115.4101	1119.8966	1126.6747	1172.2312	1180.3723	1251.0126	1274.0406	1293.7399	1323.0345	1342.6078	1396.9134	1486.3506	1492.5327	1497.1992	1522.1881	1592.2186	2962.8066	3032.8816	3096.9444	3102.0993	3179.8785	3194.3404	3299.4715	3658.7954
C(N1CC1)C1=CNN=N1	C(N1CC1)c1c[nH]nn1	
InChI=1S/C5H8N4/c1-2-9(1)4-5-3-6-8-7-5/h3H,1-2,4H2,(H,6,7,8)	InChI=1S/C5H8N4/c1-2-9(1)4-5-3-6-8-7-5/h3H,1-2,4H2,(H,6,7,8)
