21
gdb 117622	2.70047	0.75591	0.67628	0.5308	84.35	-0.2489	0.0435	0.2924	1766.509	0.178118	-424.197384	-424.185576	-424.184632	-424.236107	40.952	
C	 0.0723255385	 1.4543443738	 0.041726153	-0.50056
C	 0.0257294561	-0.0007992272	 0.0223787819	 0.059438
C	-0.0237638912	-1.2043493017	 0.0018700755	 0.068109
C	-0.0402619376	-2.6753794835	-0.0245698013	 0.129195
C	-1.4867863398	-3.1891169269	-0.0847558689	-0.396716
O	 0.5772796393	-3.1518607453	-1.2318051073	-0.447869
C	 0.7259636598	-3.2052365189	 1.2125659549	-0.176663
C	 0.8444405314	-4.7241210115	 1.2793823975	-0.096919
O	 1.7412135836	-5.0244290481	 2.3423225853	-0.426439
H	 0.9259253191	 1.8202446538	 0.6227702262	 0.14904
H	 0.1597163448	 1.8616831591	-0.9715334414	 0.150453
H	-0.8365796773	 1.8724951552	 0.4882007246	 0.151079
H	-2.0016210265	-2.7402135295	-0.9365645392	 0.129623
H	-1.4946647229	-4.2746719465	-0.2107830695	 0.124253
H	-2.0260515643	-2.9310671976	 0.8300031511	 0.120462
H	 1.4096303182	-2.6775433758	-1.3340656075	 0.280477
H	 1.7400063635	-2.7889601274	 1.1957601078	 0.102955
H	 0.2499837265	-2.8284944576	 2.1241300777	 0.109785
H	-0.1402322722	-5.1816592276	 1.4589644275	 0.085574
H	 1.2161691244	-5.10093954	 0.3164951821	 0.100806
H	 1.8386434767	-5.9799696469	 2.3867087799	 0.283916
16.4144	72.7338	81.9076	89.1538	134.1075	207.1523	238.1834	269.2234	290.1219	293.9696	319.899	337.2865	371.1705	388.3748	432.6263	565.3052	571.6213	724.6112	797.0208	862.4404	951.4936	979.5718	1026.9159	1051.0623	1054.5151	1058.3027	1075.1576	1128.7194	1181.9675	1200.6693	1232.1162	1255.6863	1307.4052	1339.3547	1376.9771	1409.4178	1413.7325	1457.2129	1477.297	1477.9376	1478.7939	1486.7571	1498.899	1534.5148	2364.2965	2982.5661	3025.1867	3027.8094	3040.8444	3053.7388	3086.8651	3089.156	3089.4822	3131.2138	3137.0551	3808.4989	3830.1123
CC#CC(C)(O)CCO	CC#C[C@@](C)(O)CCO	
InChI=1S/C7H12O2/c1-3-4-7(2,9)5-6-8/h8-9H,5-6H2,1-2H3	InChI=1S/C7H12O2/c1-3-4-7(2,9)5-6-8/h8-9H,5-6H2,1-2H3/t7-/m1/s1
