14
gdb 16199	3.34881	2.44427	1.57132	2.8904	63.91	-0.2193	-0.0186	0.2007	779.9407	0.109249	-378.738752	-378.732183	-378.731239	-378.769302	25.252	
O	 0.1087147882	 0.0136091503	-0.0515747442	-0.39158
C	 0.0490682293	 1.2238513155	 0.0129212893	 0.373984
N	-1.0816619142	 2.0114497361	 0.0713427711	-0.356644
C	-0.7439940067	 3.3781725631	 0.0284530711	-0.029523
C	 0.5837184757	 3.5499881212	-0.0209167901	-0.257619
C	 1.2014569214	 2.205206492	 0.0120728423	 0.239335
C	 2.4476379776	 1.7847024615	 0.7305609909	-0.263562
N	 2.4247405023	 1.8286085836	-0.7244508208	-0.348421
H	-2.0137869291	 1.6368789701	 0.0166496715	 0.265031
H	-1.5318686937	 4.1166926263	 0.0487930168	 0.136114
H	 1.1162581448	 4.4869434237	-0.0496525657	 0.119254
H	 3.0517889191	 2.5502060695	 1.2087679114	 0.127119
H	 2.4152482617	 0.8190391363	 1.2283199219	 0.137257
H	 2.2764011936	 0.8827232908	-1.0798533356	 0.249255
133.421	233.3869	257.2764	275.4891	456.5786	477.6675	582.3051	588.2322	710.9628	727.6469	766.5409	810.8941	868.8819	893.0519	930.8282	964.5986	1004.6186	1062.215	1087.9495	1109.0124	1135.9334	1188.7623	1282.2817	1322.6765	1345.7493	1387.9881	1430.5563	1494.1458	1650.8757	1823.551	3109.1293	3205.6539	3242.6337	3269.8264	3454.9578	3668.5674
O=C1NC=CC11CN1	O=C1NC=C[C@]21CN2	
InChI=1S/C5H6N2O/c8-4-5(3-7-5)1-2-6-4/h1-2,7H,3H2,(H,6,8)	InChI=1S/C5H6N2O/c8-4-5(3-7-5)1-2-6-4/h1-2,7H,3H2,(H,6,8)/t5-/m1/s1
