21
gdb 121824	3.28979	0.79328	0.75231	3.182	76.68	-0.2522	-0.0285	0.2236	1621.0279	0.177825	-461.368055	-461.356891	-461.355946	-461.405436	38.936	
C	-0.0236238124	 1.4035716305	-0.2314684472	-0.388054
C	-0.033438684	-0.0918763252	 0.0318781936	-0.03429
O	-1.3787546421	-0.5416556622	 0.0368879584	-0.267256
C	-1.5172017105	-1.9316367861	 0.2466582854	-0.093458
C	-3.0142229366	-2.2546634946	 0.0728481376	 0.260214
C	-3.8497247027	-1.6638510804	 1.2166463332	-0.425485
O	-3.445498549	-1.7877133592	-1.195353235	-0.478576
C	-3.1536850797	-3.7750168094	 0.0342108754	 0.136923
O	-3.0096991449	-4.4858211612	 0.9946520002	-0.26106
H	 1.0034112194	 1.779959503	-0.236401634	 0.122288
H	-0.478577233	 1.6277435592	-1.2005733494	 0.126747
H	-0.5840044404	 1.9344878718	 0.5431027294	 0.131038
H	 0.537596354	-0.6296341454	-0.7422483665	 0.095272
H	 0.4381934276	-0.3200198333	 1.0007987941	 0.097328
H	-0.923399617	-2.4878584266	-0.4969918188	 0.094866
H	-1.1766630103	-2.2273947684	 1.249278936	 0.112156
H	-3.6236715433	-0.6010327878	 1.3318928224	 0.126252
H	-4.913622133	-1.7766852766	 0.9936684311	 0.12595
H	-3.6276228777	-2.1835833682	 2.1523670279	 0.133721
H	-3.0415648055	-0.9177724553	-1.3064328407	 0.288933
H	-3.3817898887	-4.1728525445	-0.9786725831	 0.096493
40.8779	56.8344	77.8109	119.3598	164.423	219.7199	235.7735	251.1877	266.8634	302.365	358.9213	414.3494	426.5265	464.5866	509.7913	648.7588	784.3862	820.9465	902.8634	917.6833	950.0225	978.9847	1002.7271	1045.9272	1129.5524	1144.4956	1157.1855	1175.4101	1203.8039	1214.247	1285.6168	1298.856	1353.2351	1380.5642	1394.8441	1406.1454	1408.5825	1440.949	1484.3867	1491.4774	1495.3744	1498.8951	1506.4471	1533.2988	1832.9775	2903.8476	2966.1615	2975.5325	3000.0643	3026.8431	3046.3413	3050.0213	3121.292	3123.5745	3131.2303	3133.8307	3779.5628
CCOCC(C)(O)C=O	CCOC[C@@](C)(O)C=O	
InChI=1S/C6H12O3/c1-3-9-5-6(2,8)4-7/h4,8H,3,5H2,1-2H3	InChI=1S/C6H12O3/c1-3-9-5-6(2,8)4-7/h4,8H,3,5H2,1-2H3/t6-/m0/s1
