14
gdb 44849	3.63784	1.70514	1.55307	1.8247	60.23	-0.2759	0.0059	0.2818	848.6274	0.103188	-473.79825	-473.792349	-473.791405	-473.828485	24.102	
N	-0.0677685857	 1.2536832833	 0.0076207837	-0.550982
C	-0.0260621373	-0.0022593035	-0.0014723826	 0.453662
O	 1.0965048419	-0.8049853606	 0.0060971743	-0.263285
C	 0.5584640026	-2.158038013	 0.0212002416	 0.136706
O	-0.6126214021	-2.062985777	-0.739111093	-0.218295
C	-1.1957751236	-0.9848621884	 0.009419518	-0.0966
C	-1.1785157378	-1.5451129862	 1.4505548854	 0.032638
O	-1.2464458037	-2.9670750713	 1.5130298958	-0.229044
C	 0.0409826955	-2.3554200292	 1.4603090237	 0.002184
H	 0.8714516619	 1.6552946387	 0.0223414578	 0.233047
H	 1.2787574229	-2.8475525313	-0.4112618925	 0.116538
H	-2.130038018	-0.6451956781	-0.4256670541	 0.126246
H	-1.5528389015	-0.9738735184	 2.2917024881	 0.132769
H	 0.7080780349	-2.479410525	 2.3052025838	 0.124418
150.3952	313.3742	362.8482	448.33	494.8268	581.8092	667.1251	713.1519	789.6332	831.7708	853.257	872.0224	887.1423	897.7994	912.0417	936.4052	973.8309	987.7326	1009.8689	1051.1551	1083.0205	1122.2468	1206.886	1232.5492	1254.6991	1263.4369	1282.8957	1326.2894	1342.6631	1413.4341	1809.2147	3168.9378	3187.8913	3189.874	3201.9673	3473.9828
N=C1OC2OC1C1OC21	[NH][C]1O[C@@H]2O[C@H]1[C@H]1O[C@@H]21	
InChI=1S/C5H5NO3/c6-4-2-1-3(7-1)5(8-2)9-4/h1-3,5-6H	InChI=1S/C5H5NO3/c6-4-2-1-3(7-1)5(8-2)9-4/h1-3,5-6H/t1-,2+,3-,5+/m1/s1
