18
gdb 66804	3.62462	1.79135	1.78262	1.922	76.25	-0.2163	0.0707	0.287	865.4426	0.150184	-364.744555	-364.738336	-364.737392	-364.774729	26.682	
C	 0.0195773352	 1.5336754106	 0.0552696203	-0.522481
C	-0.0155812462	 0.0347763595	 0.017018914	 0.367361
C	 1.0827695516	-0.8720334356	-0.4952143182	-0.131365
C	 0.4646878167	-1.9551475742	-1.358173477	-0.060447
C	-0.4143848106	-2.8166747198	-0.536908815	-0.053437
C	-0.6302882703	-1.9543789873	 0.7288920781	-0.079693
C	 0.593802384	-1.0261866124	 0.9331828096	-0.146559
C	-1.2335067977	-0.8866864023	-0.2237154319	-0.080394
N	-1.0147643464	-1.7715462211	-1.4478324648	-0.160297
H	 1.0162052999	 1.8966082663	 0.3277793673	 0.119772
H	-0.2335744536	 1.9599758135	-0.9225797823	 0.126961
H	-0.6897324934	 1.9348392959	 0.7879910918	 0.120017
H	 2.0655921558	-0.4677786527	-0.7004156181	 0.08646
H	 0.9448548502	-2.3091372758	-2.2622831223	 0.091653
H	-0.5922832431	-3.8778162904	-0.6755397549	 0.090268
H	-1.1695508733	-2.3472279685	 1.5863834336	 0.073228
H	 1.2200189457	-0.9150841744	 1.811074273	 0.084769
H	-2.2460592346	-0.4994284613	-0.1322633733	 0.074184
197.1821	217.0824	270.3546	541.8645	560.4324	585.9287	684.8134	745.7391	770.8307	787.5831	798.9411	821.852	832.8664	880.9887	888.9769	900.6317	910.2383	931.236	951.3415	977.0657	1020.6491	1031.5111	1050.6393	1053.3609	1107.3313	1155.5653	1170.0824	1184.5193	1187.7834	1226.0393	1236.6711	1249.8962	1271.1495	1312.1737	1347.5365	1411.7982	1440.0514	1486.4994	1498.2123	3022.5849	3082.7894	3094.7582	3137.9724	3152.871	3164.7755	3173.7833	3189.5036	3206.6731
CC12C3C4C5C(C13)C2N45	C[C@@]12[C@@H]3[C@H]4[C@H]5[C@@H]([C@H]13)[C@@H]2N45	
InChI=1S/C8H9N/c1-8-3-2-5-6(4(3)8)9(5)7(2)8/h2-7H,1H3	InChI=1S/C8H9N/c1-8-3-2-5-6(4(3)8)9(5)7(2)8/h2-7H,1H3/t2-,3+,4+,5-,6+,7+,8+,9?/m1/s1
