16
gdb 102073	2.28662	1.19361	0.87557	4.8059	65.61	-0.2659	-0.0423	0.2236	1286.1333	0.121041	-475.020446	-475.010329	-475.009385	-475.056323	34.47	
O	 0.2125030452	 1.414462546	-0.0046968935	-0.413179
C	 0.0724080577	 0.0066501281	-0.0460887238	-0.092756
C	-1.4134387067	-0.429490199	 0.0433038734	-0.161356
C	-2.1749154078	 0.157845779	-1.134282821	 0.168402
O	-2.7113512099	-0.511176296	-1.9813869476	-0.241454
C	-1.5508005362	-1.9683291928	 0.0842058098	-0.002826
O	-0.6725576275	-2.5785790416	 1.0171104846	-0.419457
C	-2.9441479315	-2.3645418068	 0.3588052079	 0.265768
N	-4.0161403309	-2.6712935745	 0.661343249	-0.317777
H	 0.1109140038	 1.7037385781	 0.9074190463	 0.290942
H	 0.4917782241	-0.3164220955	-1.0052740055	 0.132059
H	 0.639785749	-0.4953426768	 0.7445829193	 0.123303
H	-1.8303241173	 0.0039241168	 0.9647151588	 0.098339
H	-2.1686906642	 1.2645535714	-1.1806880868	 0.11387
H	-1.2729326076	-2.3658303477	-0.896478449	 0.158671
H	-1.0253469799	-2.4445985988	 1.9043179282	 0.297449
56.0354	78.8913	103.1729	125.5137	195.1763	227.1068	243.8044	286.6753	313.774	337.8458	386.3382	431.4653	575.8989	600.332	674.9204	829.2119	897.3578	927.9675	1027.1706	1050.8733	1079.2478	1085.1482	1117.3134	1175.1385	1229.9456	1284.0409	1318.5548	1360.1573	1396.2121	1406.0376	1411.1119	1414.8472	1511.3522	1819.034	2358.8455	2945.5485	3006.1244	3041.0497	3084.5911	3090.0237	3804.0413	3823.0721
OCC(C=O)C(O)C#N	OC[C@@H](C=O)[C@@H](O)C#N	
InChI=1S/C5H7NO3/c6-1-5(9)4(2-7)3-8/h2,4-5,8-9H,3H2	InChI=1S/C5H7NO3/c6-1-5(9)4(2-7)3-8/h2,4-5,8-9H,3H2/t4-,5+/m1/s1
