22
gdb 100407	2.57131	0.9914	0.81389	0.703	88.14	-0.2218	0.0319	0.2537	1521.6557	0.191814	-404.347029	-404.336395	-404.33545	-404.383451	38.01	
C	-0.0128092267	 1.2824850393	-0.1653771513	-0.226827
O	-0.0179385665	-0.11366767	 0.1179135025	-0.244991
C	-1.2211202528	-0.7346541872	 0.0652886866	 0.408635
C	-1.0720360919	-2.2022934796	 0.3909794222	-0.492491
N	-2.2706369591	-0.0855319153	-0.2236178476	-0.303876
C	-3.5349844606	-0.7279511318	-0.2811723268	 0.044531
C	-4.7384494054	 0.069136298	 0.1864311533	-0.308018
C	-4.558063947	-0.2131385184	-1.2815436476	-0.007087
C	-4.220670475	 0.8964491393	-2.2504709001	-0.40014
H	 1.0259559929	 1.6010169705	-0.0638427872	 0.121549
H	-0.3752794508	 1.4779516771	-1.1791445598	 0.130029
H	-0.6512484332	 1.8270341652	 0.536529719	 0.129484
H	-1.6596633162	-2.464306702	 1.275991146	 0.144627
H	-1.4281900588	-2.8222381801	-0.4371221825	 0.143954
H	-0.024826859	-2.4365152372	 0.5816039637	 0.140575
H	-3.5715333684	-1.79893913	-0.0847408866	 0.071673
H	-5.5169009516	-0.4466291901	 0.7382337699	 0.105227
H	-4.5299756876	 1.0778873493	 0.5260604481	 0.114543
H	-5.2048272744	-0.9861092756	-1.6897728122	 0.079514
H	-3.5183784014	 1.6024139167	-1.8023947637	 0.130709
H	-3.7574939517	 0.5000883988	-3.1611932023	 0.109525
H	-5.1224653549	 1.4444119732	-2.5455495036	 0.108852
39.3932	88.8385	106.7128	138.7981	176.0404	187.5633	207.4368	248.6566	287.697	349.0946	422.0415	482.0088	543.9395	580.9973	610.5613	761.0037	808.8489	845.1702	884.2234	925.5759	969.7187	1009.0414	1050.7825	1055.1861	1060.1591	1085.605	1109.354	1141.7714	1177.9878	1181.0702	1198.7511	1218.3456	1249.4064	1297.6453	1384.1965	1399.4463	1414.6888	1418.7902	1469.3369	1475.9042	1478.5702	1487.7874	1492.8608	1494.3895	1501.2705	1503.5213	1746.0204	3030.7079	3039.0427	3050.639	3085.2928	3097.3419	3107.3488	3110.5233	3121.5827	3131.4226	3139.0594	3142.3678	3154.0372	3221.1064
COC(C)=NC1CC1C	COC(=N[C@H]1C[C@H]1C)C	
InChI=1S/C7H13NO/c1-5-4-7(5)8-6(2)9-3/h5,7H,4H2,1-3H3	InChI=1S/C7H13NO/c1-5-4-7(5)8-6(2)9-3/h5,7H,4H2,1-3H3/t5-,7+/m1/s1
