19
gdb 86357	2.5038	1.24145	0.89808	3.3761	76.66	-0.2355	0.0332	0.2687	1289.118	0.158588	-419.19431	-419.184923	-419.183979	-419.228997	34.1	
C	-0.0378481315	 1.4989414146	 0.0209638674	-0.340291
N	-0.0503040376	 0.053022123	 0.1253995933	-0.088436
C	-1.3040496108	-0.6196579217	 0.5207001894	-0.209675
C	-0.4533542111	-1.6840175665	 1.2542950496	 0.108891
O	-0.1844992296	-2.8517303107	 0.5154257696	-0.429017
C	 0.6733197177	-0.6050180537	 1.2295428971	 0.011228
C	 2.1026827598	-1.0749799638	 0.9387983995	-0.342075
C	 3.0285647613	 0.0349418399	 0.728963393	 0.267222
N	 3.7457867514	 0.9272588555	 0.568644285	-0.317206
H	 0.9782579679	 1.8504811844	-0.1747163214	 0.153567
H	-0.6728925875	 1.8109889179	-0.814511638	 0.12386
H	-0.407321621	 1.9948960037	 0.937754468	 0.096021
H	-1.9198630724	-0.0271295843	 1.2172508098	 0.09402
H	-1.9342572278	-0.9676890251	-0.3057951855	 0.105333
H	-0.7899989773	-2.0095261854	 2.2387686177	 0.099002
H	-0.0744426579	-2.5959701644	-0.4076316834	 0.292341
H	 0.6617401178	-0.0094712886	 2.1580783032	 0.075191
H	 2.4629349595	-1.6809054859	 1.7782764232	 0.15552
H	 2.1079192091	-1.7185818088	 0.0547956826	 0.144505
53.5767	93.193	114.3934	216.7663	224.0063	264.0558	301.3553	373.2776	386.9482	399.9323	430.5692	516.5916	567.3459	720.6622	822.3028	860.9737	876.5369	952.6207	969.9761	1011.9878	1017.6	1096.6173	1111.671	1143.2601	1167.4056	1196.0671	1226.8111	1232.06	1240.6644	1279.1691	1302.7961	1312.2839	1345.3888	1389.0932	1437.5984	1448.9224	1456.4986	1490.1599	1499.6594	1514.1685	2358.2479	2937.9607	2958.1939	2972.0651	3052.4423	3056.0551	3070.2262	3102.2371	3116.9017	3122.3707	3800.2302
CN1CC(O)C1CC#N	CN1C[C@@H](O)[C@H]1CC#N	
InChI=1S/C6H10N2O/c1-8-4-6(9)5(8)2-3-7/h5-6,9H,2,4H2,1H3	InChI=1S/C6H10N2O/c1-8-4-6(9)5(8)2-3-7/h5-6,9H,2,4H2,1H3/t5-,6-/m1/s1
