18
gdb 5532	3.01879	1.90309	1.2655	1.2419	75.41	-0.1833	0.0552	0.2385	993.2072	0.154836	-344.01517	-344.006619	-344.005675	-344.048498	31.095	
C	 0.2256796472	 1.0501781474	-0.4502376343	-0.32406
N	-0.4475681489	 0.217583941	 0.5547915905	-0.389488
C	 0.3869421202	-0.6470489845	 1.2911653213	 0.186615
C	 0.7993222245	-1.9527061895	 1.0974219307	 0.244254
C	 0.4381902868	-2.837966296	-0.0571529746	-0.511363
C	 1.6273225953	-2.2893397575	 2.2121002954	-0.237562
C	 1.7047244947	-1.1900643236	 3.032462443	-0.089214
N	 0.9468917519	-0.197212134	 2.4665224268	-0.258675
H	 0.7584635715	 0.4740019074	-1.2222024283	 0.109061
H	-0.5139324401	 1.6924043747	-0.9382951245	 0.115372
H	 0.9556640617	 1.6961209302	 0.0462488146	 0.124454
H	-1.2050905942	-0.3013813647	 0.1289383787	 0.230299
H	 1.3276235435	-3.2164221929	-0.5745158017	 0.123459
H	-0.1423449585	-3.7133663707	 0.2593492412	 0.121987
H	-0.1627924008	-2.2997045735	-0.7977210986	 0.103388
H	 2.1183407773	-3.2368430677	 2.3791031905	 0.084111
H	 2.2309302714	-1.0312106746	 3.9597669251	 0.111361
H	 0.7426172465	 0.7016571386	 2.8670591444	 0.256002
54.4895	109.3483	153.659	172.5863	242.9047	268.1673	386.8753	429.9038	486.3636	620.612	642.8717	667.5945	683.391	712.2855	786.6814	818.8263	913.987	979.5451	1033.4205	1061.4396	1079.9766	1107.9044	1141.6078	1162.1711	1200.3142	1270.9011	1308.6647	1415.3609	1426.1897	1445.9117	1457.7148	1483.354	1486.3171	1500.0933	1501.3121	1511.1145	1526.9178	1634.2641	2984.4882	3017.3789	3065.1344	3072.435	3088.2866	3110.5677	3235.4888	3268.0465	3556.3815	3681.9147
CNC1=C(C)C=CN1	CNc1c(C)cc[nH]1	
InChI=1S/C6H10N2/c1-5-3-4-8-6(5)7-2/h3-4,7-8H,1-2H3	InChI=1S/C6H10N2/c1-5-3-4-8-6(5)7-2/h3-4,7-8H,1-2H3
