19
gdb 46788	2.67705	1.67298	1.31079	3.8302	74.17	-0.2389	-0.0108	0.2282	1017.2413	0.161512	-423.043375	-423.036001	-423.035056	-423.075158	29.508	
O	 0.1679992814	-0.0398651768	-0.0971738153	-0.301645
C	 0.025750575	 1.156804316	-0.0163109737	 0.402365
C	-1.3651721813	 1.7909351977	-0.0317108733	-0.307035
C	-1.683468987	 2.6266690605	-1.292934717	-0.213306
C	-0.6098781125	 3.6422705002	-1.6673604862	 0.115294
C	 0.1054425733	 4.3498009856	-0.4975852686	-0.285831
C	 1.2139859729	 3.3050772411	-0.7477750326	 0.107981
C	 1.2429601575	 2.0751528106	 0.1605585961	-0.322236
O	 0.6245015965	 2.9662278707	-2.0330984318	-0.292321
H	-2.0863277867	 0.9754970548	 0.0595455809	 0.122948
H	-1.464548509	 2.4226980953	 0.8601643293	 0.109851
H	-1.81174819	 1.9552073204	-2.1495239199	 0.126739
H	-2.6396512381	 3.1431985836	-1.1444312963	 0.10317
H	-0.9588242511	 4.284836537	-2.4827358354	 0.081398
H	 0.4253798383	 5.3615012787	-0.7507871516	 0.113736
H	-0.3829134992	 4.3613787295	 0.4781909091	 0.104674
H	 2.2237759386	 3.7099064472	-0.8676319707	 0.087219
H	 1.2998963533	 2.3897655811	 1.2125439707	 0.116631
H	 2.1246807883	 1.4634288269	-0.0461536338	 0.130366
88.4795	184.4875	281.968	295.9031	355.4853	380.9789	486.5394	500.8828	552.2582	651.4568	731.7753	801.029	829.3927	852.7781	883.5998	901.6668	929.2929	950.9606	984.0817	1016.4605	1029.3981	1067.6504	1124.3792	1130.9299	1146.3255	1197.3244	1201.0425	1253.0038	1259.8707	1277.5123	1309.5502	1328.3303	1353.1538	1370.4863	1377.5901	1394.1402	1454.2099	1469.9775	1477.5464	1503.4842	1813.9925	3019.3412	3029.4452	3032.7986	3051.2238	3055.0799	3077.7096	3082.7582	3104.2891	3108.5296	3134.8332
O=C1CCC2CC(C1)O2	O=C1CC[C@H]2C[C@@H](C1)O2	
InChI=1S/C7H10O2/c8-5-1-2-6-4-7(3-5)9-6/h6-7H,1-4H2	InChI=1S/C7H10O2/c8-5-1-2-6-4-7(3-5)9-6/h6-7H,1-4H2/t6-,7+/m0/s1
