18
gdb 105968	3.21507	1.40469	1.20269	2.1647	75.03	-0.2176	0.0616	0.2792	1084.9814	0.146511	-401.828452	-401.820331	-401.819387	-401.861142	31.301	
C	 0.0294250028	 1.4240944961	 0.185527144	-0.518121
C	-0.0284943205	-0.0549450484	 0.0431466144	 0.393162
C	-0.1333719237	-0.9863017165	-1.1395523795	-0.165911
C	 0.7660711557	-1.9788993185	-0.3671730444	-0.122482
N	 0.8913322229	-1.0278221235	 0.7977482329	-0.266099
C	-0.2228967423	-2.0556369124	 0.7399019742	 0.341958
C	-0.4127077952	-3.0005965032	 1.8768795934	-0.200152
O	-0.7939776798	-2.3202232216	 3.0608837817	-0.416314
C	-1.1566978734	-1.0546444365	 0.0099659158	-0.225821
H	 1.0140620378	 1.8086045647	-0.1021999059	 0.131258
H	-0.723116772	 1.8975184015	-0.4538305323	 0.126482
H	-0.1653852641	 1.7260512067	 1.2206609586	 0.129728
H	-0.2965041395	-0.7885005937	-2.1893832231	 0.095994
H	 1.5733958383	-2.6410761531	-0.6586838705	 0.097284
H	-1.2116275633	-3.7179200006	 1.6591467239	 0.113939
H	 0.5199899241	-3.5717789716	 2.0151863423	 0.095689
H	-0.1411113325	-1.620361356	 3.1836875411	 0.290656
H	-2.2286837751	-0.9201059135	-0.0206645665	 0.098748
85.2196	116.4005	203.3558	239.6713	251.8262	321.3277	411.4772	453.2652	566.7547	644.9711	701.6817	743.3338	778.3014	811.628	842.9634	869.5982	873.1597	906.8543	923.1712	960.0813	990.2204	1014.5257	1053.4284	1069.0004	1110.2079	1117.3871	1144.114	1188.8341	1201.0731	1240.753	1281.6793	1360.8587	1400.8843	1406.4799	1443.337	1463.0053	1473.2688	1488.5945	1497.0366	2974.2452	3026.7396	3069.0927	3091.9243	3102.9482	3174.737	3212.3346	3222.3915	3786.8357
CC12C3C4N1C4(CO)C23	C[C@@]12[C@H]3[C@H]4N1[C@@]4(CO)[C@@H]23	
InChI=1S/C7H9NO/c1-6-3-4(6)7(2-9)5(3)8(6)7/h3-5,9H,2H2,1H3	InChI=1S/C7H9NO/c1-6-3-4(6)7(2-9)5(3)8(6)7/h3-5,9H,2H2,1H3/t3-,4-,5-,6+,7+,8?/m1/s1
