17
gdb 12629	3.30786	2.04348	1.37416	3.5084	71.35	-0.2238	-0.002	0.2217	917.7936	0.143173	-360.072281	-360.064198	-360.063254	-360.104842	29.065	
C	-0.0490396526	 1.5616430745	-0.0051166908	-0.377838
C	 0.0517107114	 0.0353783081	 0.0133901978	-0.036044
N	 0.8061449953	-0.4849560745	-1.1439907855	-0.266695
C	 1.7608504162	-1.1729360953	-0.6550312745	 0.052594
N	 1.8277000233	-1.2510988828	 0.7329697225	-0.082328
C	 2.8231867243	-1.9342696599	 1.5214022605	-0.356332
C	 0.7740203274	-0.4966536768	 1.252226621	 0.357738
N	 0.456555137	-0.2691902477	 2.4622336413	-0.559381
H	 0.9476218375	 2.0126509629	-0.0161826076	 0.117839
H	-0.5867143846	 1.8928374483	-0.8967510057	 0.126062
H	-0.575320201	 1.9045197506	 0.8890771093	 0.139741
H	-0.9604948234	-0.3868678307	-0.0169843721	 0.118969
H	 2.5099916306	-1.6948325748	-1.2441583952	 0.128605
H	 3.5314595875	-2.4319871164	 0.8559991693	 0.143529
H	 3.3780847206	-1.2317068144	 2.1551864263	 0.142104
H	 2.3644762147	-2.6924818997	 2.1672855244	 0.142817
H	 1.0891452658	-0.7263411514	 3.1205959791	 0.208621
91.6981	110.017	148.3017	230.3902	249.6094	285.1453	313.078	483.8132	564.8637	613.5328	703.0464	721.0134	825.8985	847.671	900.122	941.803	952.4581	1047.2367	1080.3203	1107.823	1129.5841	1154.068	1243.7905	1262.7054	1304.2224	1319.4935	1329.8194	1397.091	1417.5413	1464.1761	1478.1005	1487.6988	1495.9793	1521.6154	1682.4215	1742.9106	3017.8228	3034.0105	3047.6533	3068.8347	3122.6026	3129.8943	3136.8522	3178.0399	3460.904
CC1N=CN(C)C1=N	C[C@H]1N=CN(C)[C]1[NH]	
InChI=1S/C5H9N3/c1-4-5(6)8(2)3-7-4/h3-4,6H,1-2H3	InChI=1S/C5H9N3/c1-4-5(6)8(2)3-7-4/h3-4,6H,1-2H3/t4-/m1/s1
