13
gdb 20578	4.67999	1.54951	1.28165	2.1034	55.07	-0.2965	-0.0761	0.2204	907.1738	0.094091	-431.85975	-431.85236	-431.851416	-431.892055	25.917	
C	 0.0057284617	 1.5200414818	-0.1109674516	-0.406586
C	 0.0130044787	 0.0007446736	 0.1119139737	 0.034162
O	 0.7031501543	-0.3777008416	 1.2814066903	-0.411292
C	-1.3899864171	-0.5416479513	 0.1043447411	 0.401695
N	-2.0125246214	-1.0091874374	 1.1461172595	-0.159698
O	-3.2444527754	-1.3422200573	 0.6893681916	-0.138379
N	-3.3121130978	-1.0500229687	-0.667666525	 0.051466
N	-2.2044943981	-0.5689546952	-1.0157992254	-0.20687
H	 1.0356647735	 1.8829669809	-0.1349043669	 0.139543
H	-0.4857155642	 1.7756257552	-1.0541042461	 0.143643
H	-0.5255858118	 2.0247733273	 0.702967912	 0.124092
H	 0.550947096	-0.4745249314	-0.7164851377	 0.130962
H	 0.1723551216	-0.1246768158	 2.0457149946	 0.297263
49.2108	160.0076	184.3507	256.9144	284.9335	345.9737	447.4021	492.8016	672.6643	687.6954	705.3909	779.6593	907.5853	964.814	1036.1807	1062.9384	1077.8951	1110.2934	1139.9222	1234.6831	1325.2716	1348.388	1400.2977	1421.9263	1473.0458	1490.7779	1499.1841	1592.0729	3040.2476	3054.9324	3116.7842	3136.1673	3800.7908
CC(O)C1=NON=N1	C[C@@H](O)c1nonn1	
InChI=1S/C3H5N3O2/c1-2(7)3-4-6-8-5-3/h2,7H,1H3	InChI=1S/C3H5N3O2/c1-2(7)3-4-6-8-5-3/h2,7H,1H3/t2-/m1/s1
