23
gdb 59536	2.60173	1.17266	1.1151	1.4863	85.44	-0.2316	0.0789	0.3105	1289.4138	0.20436	-388.256991	-388.24725	-388.246306	-388.291368	37.044	
C	-0.1529787482	 1.5808916415	-0.1263985484	-0.392667
C	 0.0301305968	 0.0737595471	 0.0995958927	 0.001629
C	 0.6017108757	-0.2282497992	 1.4918668096	-0.394187
C	-1.3021758785	-0.6464399355	-0.0707479467	 0.165148
O	-1.9553277087	-0.4581383536	-1.3653135156	-0.311836
C	-2.2635429149	-1.8556153761	-1.423572511	 0.06921
C	-1.0285745658	-2.6818140086	-1.5786469381	-0.013125
C	 0.1607221047	-2.2721609707	-2.4203392519	-0.421393
C	-1.425957507	-2.1657500211	-0.1982887238	-0.194923
H	 0.8031215681	 2.108128744	-0.0464067962	 0.107254
H	-0.5739146201	 1.7785833516	-1.1158318134	 0.13401
H	-0.8332713676	 2.0087929843	 0.6200203848	 0.109385
H	 0.7322408348	-0.3055302807	-0.6494105484	 0.078378
H	-0.0724636219	 0.1278674411	 2.2802458003	 0.112483
H	 0.7546103217	-1.3022607585	 1.6397355347	 0.116863
H	 1.5657741403	 0.2703246773	 1.6323068678	 0.114446
H	-1.9951111674	-0.290486785	 0.7079269187	 0.075069
H	-3.2706696902	-2.1329222675	-1.7148938924	 0.098253
H	-1.2711466294	-3.7423008887	-1.6407966959	 0.088023
H	 0.1666449894	-1.1928441061	-2.5824306567	 0.13912
H	 1.1105738231	-2.5631239896	-1.9592977701	 0.113802
H	 0.1074269432	-2.7546218474	-3.4024015306	 0.111776
H	-1.628705328	-2.8380129584	 0.6249750705	 0.093284
62.5928	128.9995	157.0134	206.8443	218.4963	229.7417	261.2495	301.6803	314.8783	408.5696	454.0854	521.0086	610.545	722.0374	757.8895	809.6569	855.2483	877.8765	918.2138	930.3991	959.2626	990.6594	996.5832	1004.2832	1034.5465	1058.606	1081.6672	1091.2045	1123.6325	1140.4526	1179.3063	1202.2311	1210.4418	1261.6865	1298.2324	1319.1363	1338.6503	1349.262	1397.1494	1404.5833	1410.0125	1424.2082	1443.1918	1488.881	1490.2022	1498.262	1502.4858	1504.1816	1512.2573	2975.3681	3024.7057	3029.0109	3034.2335	3062.6319	3089.1032	3089.5205	3098.5459	3103.9824	3114.8765	3117.4605	3135.673	3169.89	3196.3714
CC(C)C1OC2C(C)C12	CC(C)[C@H]1O[C@H]2[C@@H](C)[C@@H]12	
InChI=1S/C8H14O/c1-4(2)7-6-5(3)8(6)9-7/h4-8H,1-3H3	InChI=1S/C8H14O/c1-4(2)7-6-5(3)8(6)9-7/h4-8H,1-3H3/t5-,6-,7+,8-/m0/s1
