13
gdb 129131	2.46115	1.93278	1.30373	5.3503	71.64	-0.263	-0.0877	0.1753	934.6856	0.090783	-445.05042	-445.04313	-445.042185	-445.082666	26.724	
N	-0.1435628647	 1.4498737619	 0.2804899254	-0.473722
C	 0.0127037565	 0.2172165206	 0.0269839493	 0.325235
N	 1.2472698774	-0.402661143	-0.1944103511	-0.274686
C	 1.3728035179	-1.4144144377	-0.9582059156	 0.113438
N	 0.4515171049	-2.0633807703	-1.7636718416	-0.234187
N	-0.8686838	-1.7822493895	-2.0898122322	-0.050164
N	-1.6002222769	-1.1401725954	-1.3189985356	-0.162804
C	-1.190314128	-0.6872942937	-0.0203290913	 0.308078
N	-1.8474301064	-0.9976843534	 1.014312358	-0.446529
H	 0.7687223306	 1.9148279917	 0.2671519794	 0.230428
H	 2.3585481953	-1.8700226802	-1.0607669502	 0.144512
H	 0.8318097687	-2.7063096968	-2.4431802855	 0.282094
H	-2.6422483651	-1.5930486641	 0.761071791	 0.238308
79.4117	93.2611	242.6262	312.1074	332.8979	440.8308	465.8196	535.692	598.2086	675.4666	692.3054	782.1484	814.592	855.8331	917.5291	938.9253	963.1035	971.1799	1013.5109	1042.8219	1151.7895	1284.388	1339.4349	1435.5084	1453.7519	1636.7162	1705.6605	1710.9045	1746.0701	3128.537	3430.4479	3441.6422	3616.15
N=C1N=CNN=NC1=N	[NH][C]1N=CNN=N[C]1[NH]	
InChI=1S/C3H4N6/c4-2-3(5)8-9-7-1-6-2/h1H,(H3,4,5,6,7,8)	InChI=1S/C3H4N6/c4-2-3(5)8-9-7-1-6-2/h1H,(H3,4,5,6,7,8)
