14
gdb 21046	3.97938	1.8409	1.27184	3.7177	60.8	-0.2006	0.0402	0.2408	903.3857	0.109025	-412.086545	-412.078888	-412.077944	-412.118412	27.638	
C	 0.1243810201	 1.3880462198	-0.0739829614	-0.32438
N	 0.0835109863	-0.0486290697	-0.0086648713	-0.066951
N	 0.1374697134	-0.8229822557	-1.1655180963	-0.327529
C	 0.0621499131	-2.0439810387	-0.7320224611	 0.45204
N	-0.0238774309	-3.1733589709	-1.528183781	-0.590313
N	 0.0004043782	-2.1065017669	 0.6368946023	-0.407018
C	-0.0043270884	-0.7925557573	 1.1412340332	 0.468422
O	-0.0692316614	-0.4345826583	 2.2997234205	-0.438269
H	 1.0521848639	 1.7320461352	-0.5424894209	 0.134564
H	-0.7251564402	 1.7775849853	-0.6442045034	 0.135613
H	 0.0748216396	 1.7550676337	 0.9525301704	 0.164585
H	 0.0975551265	-2.9300262436	-2.5037148287	 0.26734
H	 0.6204135928	-3.9092207794	-1.2637554609	 0.256699
H	-0.184718873	-2.9133660734	 1.2067310487	 0.275197
114.284	138.9809	195.2613	272.7292	285.3405	333.0211	362.2192	435.3016	562.006	639.974	672.0551	700.3479	739.6587	785.9886	850.8474	1020.8954	1032.5948	1153.4482	1159.1833	1161.2395	1267.8415	1297.1043	1424.2561	1446.4252	1481.7902	1519.9559	1529.7711	1624.6333	1691.25	1837.8852	3034.9879	3092.3461	3149.5894	3529.1104	3625.9155	3688.1034
CN1N=C(N)NC1=O	Cn1nc(N)[nH]c1=O	
InChI=1S/C3H6N4O/c1-7-3(8)5-2(4)6-7/h1H3,(H3,4,5,6,8)	InChI=1S/C3H6N4O/c1-7-3(8)5-2(4)6-7/h1H3,(H3,4,5,6,8)
