18
gdb 102196	2.19265	1.19568	0.87708	3.9886	71.99	-0.2744	0.0323	0.3066	1320.9709	0.146389	-439.067103	-439.057528	-439.056583	-439.10225	33.706	
O	-0.0651388631	 1.3345229595	-0.0493637097	-0.421489
C	-0.0560448718	-0.0792162981	 0.0460897674	-0.094061
C	-1.5157884967	-0.5563014558	 0.0319820086	-0.027665
C	-1.5515452297	-2.1009739302	-0.0132703345	-0.375123
C	-2.7945958385	-2.6426300465	-0.5557405	 0.267792
N	-3.7788689579	-3.0638252887	-0.9915502392	-0.317023
C	-2.246321485	 0.0251063191	 1.2320375329	 0.094793
C	-3.370942087	-0.6090700457	 1.926894089	-0.199656
O	-2.0503878195	-0.6417520558	 2.4858920731	-0.244332
H	 0.8167420116	 1.6610951611	 0.1497308059	 0.294914
H	 0.4849741613	-0.5295696485	-0.8010537834	 0.092691
H	 0.4276146962	-0.4199324967	 0.9745066001	 0.109814
H	-1.9784742792	-0.1521902396	-0.8760925868	 0.11551
H	-0.7277333122	-2.4749725168	-0.6312345839	 0.14921
H	-1.400863189	-2.492001542	 0.9989199024	 0.173971
H	-2.1591243348	 1.1081485885	 1.2929813543	 0.117176
H	-4.0833420105	 0.018325716	 2.4602363027	 0.122832
H	-3.7635565941	-1.5662900497	 1.5933328811	 0.140645
72.2879	75.7705	107.3914	160.4804	206.3421	230.3804	252.0892	290.5112	393.4986	398.6993	457.6477	569.0902	597.9012	753.608	844.841	908.8106	931.7847	939.0695	988.8602	1050.4229	1057.8093	1083.5137	1107.7562	1140.1762	1166.6052	1184.0016	1216.0451	1240.6494	1266.8731	1294.4992	1312.4713	1353.7774	1382.4696	1436.2955	1458.096	1472.0928	1521.7994	1537.2304	2360.0385	2970.6214	3008.0818	3047.5447	3053.672	3090.5199	3098.1919	3138.4032	3189.2226	3839.5174
OCC(CC#N)C1CO1	OC[C@@H](CC#N)[C@H]1CO1	
InChI=1S/C6H9NO2/c7-2-1-5(3-8)6-4-9-6/h5-6,8H,1,3-4H2	InChI=1S/C6H9NO2/c7-2-1-5(3-8)6-4-9-6/h5-6,8H,1,3-4H2/t5-,6-/m1/s1
