23
gdb 112900	2.99776	1.05125	0.85116	3.3008	81.4	-0.2438	0.058	0.3017	1425.0144	0.206462	-425.441352	-425.431621	-425.430677	-425.476274	37.217	
C	-0.1416275175	 1.5443811181	 0.0622660907	-0.404105
C	 0.0965239514	 0.0409438654	-0.0566863361	 0.040546
C	 1.2084079178	-0.3638431433	-1.0361459267	-0.242113
C	 1.464305612	-1.8414710629	-0.7055536023	 0.10271
O	 2.7758805099	-2.2905509098	-1.057853517	-0.441125
C	 1.2378934125	-1.9688879624	 0.8355280321	-0.024691
C	 2.524685901	-2.2259988884	 1.6343358648	-0.057748
O	 3.0848469968	-3.4999863219	 1.3957129521	-0.434735
C	 0.5534405985	-0.6407657766	 1.2499668504	-0.233624
H	 0.7728545097	 2.0603182225	 0.3776185388	 0.113812
H	-0.4574904156	 1.9782972672	-0.8925129264	 0.11122
H	-0.9198261967	 1.7650151292	 0.8006902079	 0.113864
H	-0.8384178687	-0.4349046604	-0.3865354203	 0.071952
H	 0.9501350402	-0.1946337271	-2.0872846108	 0.084405
H	 2.122146947	 0.2057792651	-0.8199224371	 0.102688
H	 0.7217973613	-2.4629651948	-1.2263273303	 0.071316
H	 2.8610445394	-2.2627095525	-2.0151331649	 0.2883
H	 0.576434778	-2.8197157609	 1.0251375858	 0.077898
H	 3.2490403955	-1.4198594652	 1.4325729887	 0.082687
H	 2.287358104	-2.1835844897	 2.7037537424	 0.097723
H	 3.3012003512	-3.507124244	 0.4547533217	 0.287381
H	 1.2848876335	 0.0093582284	 1.7504701255	 0.094301
H	-0.2670846812	-0.792952576	 1.9569132908	 0.097337
29.9518	126.0838	178.5353	222.8751	242.841	244.0609	282.0282	325.0582	367.7558	423.6868	437.7681	499.1919	546.8124	581.3262	617.7664	769.6607	854.38	874.3956	932.2669	938.696	959.2082	993.5377	1050.125	1053.4637	1068.9315	1085.1184	1098.1758	1137.7253	1160.5518	1176.6853	1228.8911	1250.352	1258.4777	1271.8875	1287.7568	1328.9627	1345.8944	1358.866	1375.6805	1390.4556	1393.0707	1411.2006	1426.3098	1455.6078	1485.7471	1495.3088	1497.4774	1499.3117	1505.8886	2969.9311	2986.7036	2995.7165	3011.8083	3022.7273	3027.3471	3050.6347	3061.2564	3074.1201	3085.0155	3093.5399	3095.8736	3772.5405	3833.4336
CC1CC(O)C(CO)C1	C[C@H]1C[C@@H](O)[C@@H](CO)C1	
InChI=1S/C7H14O2/c1-5-2-6(4-8)7(9)3-5/h5-9H,2-4H2,1H3	InChI=1S/C7H14O2/c1-5-2-6(4-8)7(9)3-5/h5-9H,2-4H2,1H3/t5-,6-,7-/m1/s1
