17
gdb 64918	2.2465	1.48126	1.04288	2.4555	76.28	-0.254	-0.0387	0.2152	1172.5218	0.130399	-421.787849	-421.777812	-421.776868	-421.822858	35.85	
C	-0.0274089473	 1.5790491894	-0.0661832883	-0.475157
C	-0.029303887	 0.0756572141	 0.0517207118	 0.210028
O	 1.204140116	-0.6350677408	-0.1491092527	-0.300689
C	 0.6411066547	-0.6745635664	 1.1673272013	 0.142312
C	 1.4182277889	 0.0427497219	 2.2557816168	-0.474659
C	 0.1124138023	-1.9570074551	 1.5889895348	 0.285951
C	-0.2977218505	-3.0082574025	 2.0029621313	-0.412354
C	-1.1946383772	-0.6111125404	-0.617203766	 0.121056
O	-2.1902608962	-0.032846036	-0.9698209708	-0.250828
H	 0.811358683	 2.0348555208	 0.4580058949	 0.127511
H	 0.0287127255	 1.8628350697	-1.1213823964	 0.144011
H	-0.9644511986	 1.9787655358	 0.3292287738	 0.149262
H	 1.9006776633	 0.9409842464	 1.8713036708	 0.138062
H	 0.7557980157	 0.3116770865	 3.0835202861	 0.140672
H	 2.192217651	-0.6248579978	 2.6448308957	 0.145619
H	-0.6694505271	-3.9406925959	 2.3511759702	 0.20595
H	-1.0444539865	-1.6974313199	-0.7762568033	 0.103254
68.7844	101.9806	116.8168	145.0686	166.3701	240.8143	263.0825	308.1789	356.4558	390.2279	459.0466	511.97	559.4187	590.8373	640.8401	668.4266	673.1748	748.8467	859.1402	889.188	983.2003	1003.5195	1070.8706	1102.7877	1121.7353	1203.2076	1264.0463	1369.3717	1401.1023	1413.2717	1427.115	1470.1736	1479.8497	1485.5091	1504.4187	1824.0392	2235.1559	2945.1292	3053.2825	3060.5584	3120.1187	3123.6573	3151.9025	3166.5665	3499.1291
CC1(OC1(C)C#C)C=O	C[C@]1(O[C@]1(C)C#C)C=O	
InChI=1S/C7H8O2/c1-4-6(2)7(3,5-8)9-6/h1,5H,2-3H3	InChI=1S/C7H8O2/c1-4-6(2)7(3,5-8)9-6/h1,5H,2-3H3/t6-,7+/m1/s1
