19
gdb 73584	2.37786	1.89	1.46875	1.0813	73.26	-0.245	0.0734	0.3184	970.208	0.160322	-422.994815	-422.987363	-422.986419	-423.026277	30.557	
O	-0.0939329335	 1.3869547423	-0.0594022013	-0.489057
C	 0.0385281365	-0.0169194555	-0.011757442	 0.384059
C	 0.8049004089	-0.6437960477	-1.1888547955	-0.276135
C	-0.3149275252	-1.1383446024	-2.132461967	-0.196805
C	-1.4072547985	-1.6824984311	-1.1804742338	-0.237154
C	-1.3689442949	-0.7055666566	 0.00561171	-0.056291
C	-1.0487304226	-1.2150774711	 1.4263704936	 0.005814
O	 0.1554183472	-1.9955182143	 1.3461801168	-0.243208
C	 0.2713994541	-0.5710299142	 1.4246997799	-0.063831
H	 0.7894336019	 1.7701871643	-0.020799299	 0.277513
H	 1.4827857029	 0.0706097066	-1.6667248804	 0.083329
H	 1.3946322373	-1.4943228021	-0.8344173905	 0.116346
H	-0.7123145699	-0.2895606919	-2.7017926481	 0.104651
H	 0.0317487494	-1.8828931057	-2.8551975474	 0.093953
H	-2.3883272704	-1.7438813197	-1.6588873079	 0.09423
H	-1.1339614233	-2.686803772	-0.8420390931	 0.112256
H	-2.1616112354	 0.0454713241	 0.002623768	 0.089069
H	-1.7242499418	-1.4421629209	 2.2430503748	 0.102323
H	 0.8653103672	-0.1522486319	 2.2306418828	 0.098938
151.6786	177.0899	271.6783	303.1102	317.5174	379.4668	474.3353	505.1795	566.8131	624.9824	682.9665	763.9728	832.7162	843.3378	860.2449	871.6355	900.9778	914.5514	968.0257	991.7925	1005.6617	1028.273	1043.8396	1061.0437	1108.7944	1143.2242	1163.0316	1198.5753	1214.6342	1240.4685	1254.0476	1290.3451	1305.5142	1331.786	1342.5844	1348.4233	1360.8836	1393.3965	1468.2665	1488.3943	1500.7957	3036.266	3048.7183	3054.8068	3084.0204	3093.0652	3101.269	3109.5295	3167.0747	3187.6244	3796.7157
OC12CCCC1C1OC21	O[C@]12CCC[C@H]1[C@H]1O[C@@H]21	
InChI=1S/C7H10O2/c8-7-3-1-2-4(7)5-6(7)9-5/h4-6,8H,1-3H2	InChI=1S/C7H10O2/c8-7-3-1-2-4(7)5-6(7)9-5/h4-6,8H,1-3H2/t4-,5+,6+,7+/m0/s1
