19
gdb 120214	4.71564	0.93638	0.91206	1.4247	76.18	-0.235	-0.0003	0.2348	1352.301	0.158929	-422.95729	-422.949056	-422.948112	-422.99076	30.995	
C	 0.0104305421	 1.348285027	 0.1388199798	-0.224078
O	-0.0183483541	-0.0581888504	 0.1595607725	-0.239626
C	-1.2940320556	-0.5852660172	-0.1504438046	-0.093132
C	-1.1941766143	-2.0963928957	-0.0926488881	 0.009459
C	-1.1515219842	-2.7247079614	 1.3426140163	 0.018734
O	-2.5999378571	-2.495685875	 1.4231321604	-0.289052
C	-2.5493675344	-2.8754871218	 0.0074231243	-0.00536
C	-2.0544432112	-4.3311691475	 0.0925079151	-0.084232
C	-1.0938034864	-4.226445548	 1.0131226835	-0.080829
H	 1.0264743893	 1.6598752065	 0.3937089596	 0.125514
H	-0.2443566726	 1.7482620637	-0.8559278603	 0.101818
H	-0.6894742627	 1.7830219108	 0.8700147113	 0.10526
H	-2.0510254419	-0.2265127004	 0.5617039158	 0.105927
H	-1.6039861416	-0.2659826189	-1.1616107185	 0.080562
H	-0.4597221939	-2.4711163833	-0.8091011071	 0.080215
H	-0.5750572015	-2.3082826538	 2.1663552536	 0.086877
H	-3.4435597115	-2.6264671141	-0.5636016351	 0.078414
H	-2.4146015064	-5.1789484036	-0.4707402667	 0.111449
H	-0.4255397118	-4.9636896571	 1.4322493583	 0.112079
68.3444	92.321	123.0372	224.303	286.8041	333.1067	360.4504	527.6366	560.0403	640.2339	706.3916	753.8011	814.322	859.8824	869.6822	887.482	909.3349	915.3098	949.7417	993.5437	1006.5762	1071.0447	1101.2787	1147.9219	1152.2367	1163.4869	1181.9283	1187.7986	1222.2012	1237.2848	1238.9055	1266.3298	1297.4215	1301.2943	1360.315	1423.0627	1478.5488	1484.5541	1502.8718	1529.1622	1614.9576	2944.7255	2968.5522	3010.8037	3019.0783	3091.1414	3111.6788	3127.3468	3148.0864	3234.1385	3261.3446
COCC1C2OC1C=C2	COC[C@H]1[C@H]2O[C@@H]1C=C2	
InChI=1S/C7H10O2/c1-8-4-5-6-2-3-7(5)9-6/h2-3,5-7H,4H2,1H3	InChI=1S/C7H10O2/c1-8-4-5-6-2-3-7(5)9-6/h2-3,5-7H,4H2,1H3/t5-,6-,7+
