18
gdb 46982	2.69228	1.81502	1.45334	3.1853	71.93	-0.2546	0.0205	0.2751	953.1808	0.151198	-439.107854	-439.100727	-439.099783	-439.139621	28.027	
N	-0.0690387072	 1.2662376558	-0.2574734484	-0.51884
C	 0.0052367403	 0.0392758675	 0.0361233986	 0.403802
O	 1.1986849175	-0.5871130203	 0.2666211359	-0.267689
C	 1.2097398313	-1.8505712224	 0.958467371	-0.080964
C	-0.0798263496	-2.6299452549	 0.7385050366	 0.071331
C	-0.3577176008	-2.9488005849	-0.7519230216	-0.239537
C	-1.2470758587	-1.7602230939	-1.2009236188	-0.225813
C	-1.2251647576	-0.8463474371	 0.0458443698	-0.000919
O	-1.1496373097	-1.7675589922	 1.1364738751	-0.260955
H	 0.862422001	 1.6887482282	-0.2539947754	 0.219016
H	 2.0847982217	-2.3928596514	 0.58761894	 0.115476
H	 1.3412798618	-1.6544084018	 2.029357826	 0.118733
H	-0.0935832301	-3.5103150319	 1.3861146627	 0.089911
H	 0.5676779234	-3.0191760525	-1.3286134813	 0.113027
H	-0.8832567356	-3.9005554093	-0.8491635261	 0.113469
H	-0.8773255065	-1.2537006071	-2.0942874086	 0.124355
H	-2.2723741237	-2.0838528971	-1.3923654826	 0.114013
H	-2.1103662878	-0.2243521146	 0.165984467	 0.111585
84.1802	143.6125	221.2885	343.6232	407.414	433.5825	486.6994	618.6035	676.9321	733.8525	794.9441	816.2868	829.2351	876.2904	896.5007	917.3851	937.4413	988.6582	1020.5718	1024.1805	1037.3928	1068.3154	1091.5805	1156.7316	1172.0627	1233.5419	1249.8145	1254.2615	1286.6109	1306.0129	1318.9202	1342.2424	1352.6417	1372.1684	1425.3112	1482.4233	1501.3106	1505.7455	1760.4099	3032.35	3069.6695	3077.6388	3086.0329	3090.3795	3112.6865	3131.462	3143.3437	3455.7238
N=C1OCC2CCC1O2	[NH][C]1OC[C@@H]2CC[C@H]1O2	
InChI=1S/C6H9NO2/c7-6-5-2-1-4(9-5)3-8-6/h4-5,7H,1-3H2	InChI=1S/C6H9NO2/c7-6-5-2-1-4(9-5)3-8-6/h4-5,7H,1-3H2/t4-,5+/m0/s1
