15
gdb 50125	5.32627	0.92384	0.86804	1.4096	72.5	-0.2553	-0.0515	0.2038	1275.2974	0.112156	-416.772365	-416.7643	-416.763355	-416.80574	29.279	
O	-0.5889874945	 0.8574721928	 0.939383249	-0.23777
C	 0.1438338005	 0.7867813742	-0.0122777627	 0.161915
C	 1.439225812	 1.5669852469	-0.1281856029	-0.06633
N	 2.5118568235	 0.8982562836	-0.9320631589	-0.381953
C	 2.6831481461	 2.134399307	-1.7364013062	 0.268168
C	 1.4282767507	 2.3404654923	-2.5364506297	-0.30907
C	 1.4434323184	 2.7713073366	-1.092048404	-0.154932
C	 3.957367285	 2.6876790947	-2.0474188237	 0.182773
N	 5.0040702963	 3.1227033168	-2.2832390812	-0.338939
H	-0.0900880422	 0.1493694087	-0.8926772255	 0.089658
H	 1.7618291397	 1.8711161953	 0.87171198	 0.114063
H	 3.327687253	 0.6942363711	-0.3648669376	 0.247458
H	 1.4520155037	 3.1649216818	-3.2405977694	 0.148985
H	 0.8937901015	 1.4571795069	-2.8686174331	 0.140982
H	 1.2718333664	 3.7961197712	-0.7939708544	 0.13499
56.8416	90.7634	151.9328	219.3949	277.8021	397.7417	419.7457	467.0055	524.3847	576.8584	622.1297	719.1634	799.9509	840.121	870.2211	949.4298	985.7499	993.7213	1010.8428	1041.7612	1081.2228	1097.566	1140.8452	1172.3506	1238.0676	1267.3706	1290.545	1335.693	1405.7766	1423.5889	1481.3629	1832.7039	2344.6208	2899.025	3074.7126	3137.1229	3216.1405	3232.7794	3543.6902
O=CC1NC2(CC12)C#N	O=C[C@H]1N[C@]2(C[C@@H]12)C#N	
InChI=1S/C6H6N2O/c7-3-6-1-4(6)5(2-9)8-6/h2,4-5,8H,1H2	InChI=1S/C6H6N2O/c7-3-6-1-4(6)5(2-9)8-6/h2,4-5,8H,1H2/t4-,5+,6+/m0/s1
