20
gdb 57867	2.57919	1.11787	0.88527	2.0081	78.2	-0.2633	-0.0307	0.2326	1376.2244	0.168655	-440.348607	-440.338024	-440.33708	-440.384783	36.904	
C	 0.1349999311	 1.4461950954	 0.4094828033	-0.390629
C	 0.0507003677	-0.0474633791	 0.0301507202	-0.10455
C	 0.959595043	-0.8975541066	 0.926439903	-0.38676
C	-1.3975142654	-0.5251969792	 0.1669233445	 0.435064
O	-1.7914264267	-1.0815711095	 1.1688872405	-0.342794
N	-2.3111952083	-0.2867598663	-0.8758114626	-0.147261
C	-3.6880079933	-0.7437515305	-0.6555973333	-0.345082
C	-2.0120733557	 0.3475546988	-2.0735398484	 0.167451
O	-2.8119441129	 0.5480836823	-2.9559485784	-0.308973
H	 1.170381103	 1.7923066095	 0.3415755316	 0.127286
H	-0.4755868364	 2.0778982965	-0.2423607242	 0.122653
H	-0.2063774015	 1.5944176324	 1.4387195223	 0.138992
H	 0.3850236866	-0.1665067371	-1.0053072575	 0.095001
H	 0.6523309637	-0.8207380677	 1.9712896467	 0.142038
H	 0.9199419845	-1.9535567425	 0.6460125225	 0.123315
H	 1.9950027407	-0.5561214995	 0.835828833	 0.110789
H	-4.1042459453	-0.2597869962	 0.2298837483	 0.147774
H	-4.2639719401	-0.4842956189	-1.5410553278	 0.164158
H	-3.7007216301	-1.8228548688	-0.4913555901	 0.147971
H	-0.9618938046	 0.6602295272	-2.1511641839	 0.103555
49.6542	75.4712	104.9422	153.0805	186.5692	201.5242	229.1692	280.0466	307.2502	332.4132	360.3079	366.8821	453.1517	521.8511	687.4456	756.5537	815.451	880.4944	937.6618	968.5651	975.0662	1028.5643	1087.768	1107.3241	1129.9754	1158.6444	1197.7308	1284.9161	1321.2333	1349.8455	1377.3184	1399.5403	1421.5617	1444.3786	1457.2362	1483.5728	1488.0302	1492.4471	1500.1084	1505.8468	1510.4316	1765.8652	1814.2899	3035.8638	3039.7757	3049.3343	3057.968	3070.8836	3111.8757	3115.1117	3117.9811	3136.1648	3137.9515	3187.9083
CC(C)C(=O)N(C)C=O	CC(C)C(=O)N(C)C=O	
InChI=1S/C6H11NO2/c1-5(2)6(9)7(3)4-8/h4-5H,1-3H3	InChI=1S/C6H11NO2/c1-5(2)6(9)7(3)4-8/h4-5H,1-3H3
