21
gdb 101490	3.41918	0.99658	0.98676	3.1986	73.7	-0.2501	0.0644	0.3145	1309.1752	0.183984	-461.359389	-461.350365	-461.34942	-461.393566	33.975	
O	-0.1773717453	 1.4520544085	-0.4007803393	-0.425258
C	 0.0173434061	 0.1047432031	-0.0296457413	-0.071461
C	-1.3264604832	-0.6341754224	 0.0063589663	 0.104875
O	-2.0122429289	-0.3976411631	-1.2274186531	-0.462037
C	-1.2273226815	-2.1305482492	 0.3465287381	-0.04024
C	-2.6266005487	-2.8025502389	 0.3874613996	-0.250015
C	-2.7578786238	-3.4773480866	-1.0024525126	-0.079761
O	-1.5690316145	-3.145139117	-1.7322117432	-0.26128
C	-0.54388301	-2.9546583394	-0.7582298647	-0.115438
H	-0.8104461615	 1.4177787536	-1.1307217318	 0.287565
H	 0.7118200633	-0.4000487256	-0.7228440616	 0.075953
H	 0.4814403809	 0.0990866421	 0.9637626474	 0.099636
H	-1.9396942149	-0.1461303564	 0.7755535156	 0.087277
H	-1.8122360263	-1.1351364565	-1.8231423931	 0.296231
H	-0.7037989574	-2.2334831242	 1.3021278776	 0.082425
H	-2.6805136053	-3.5456104831	 1.1867164796	 0.105681
H	-3.4158451372	-2.0677405984	 0.5571343632	 0.123244
H	-2.8373471538	-4.5691419628	-0.9118109422	 0.102857
H	-3.609124086	-3.1143988618	-1.5826598325	 0.121008
H	 0.2951135126	-2.4621918327	-1.2541892434	 0.120098
H	-0.1941517048	-3.9226842793	-0.3663634687	 0.098638
73.4899	92.5594	113.9448	184.6291	231.3522	302.3526	340.8417	360.2118	478.3594	516.3622	545.5515	574.7454	707.7139	782.3191	814.7912	838.7289	889.409	918.7286	928.264	978.8685	1012.144	1033.0684	1053.0581	1084.4363	1098.7183	1119.2767	1149.7206	1214.0676	1218.726	1224.1846	1245.6032	1273.7824	1294.9281	1314.8272	1329.5478	1358.9927	1366.0092	1396.5002	1406.8949	1444.1871	1456.3061	1490.2057	1502.01	1512.323	1526.0461	2956.7769	2983.7546	3011.6799	3022.2669	3055.4631	3063.8572	3075.3505	3098.2759	3109.5028	3122.9204	3703.5404	3757.2648
OCC(O)C1CCOC1	OC[C@@H](O)[C@H]1CCOC1	
InChI=1S/C6H12O3/c7-3-6(8)5-1-2-9-4-5/h5-8H,1-4H2	InChI=1S/C6H12O3/c7-3-6(8)5-1-2-9-4-5/h5-8H,1-4H2/t5-,6+/m0/s1
