20
gdb 96527	2.44896	1.57392	1.15868	2.0053	74.07	-0.2418	-0.0037	0.2381	1118.9192	0.172915	-440.314605	-440.305868	-440.304924	-440.34807	33.111	
N	-0.4723963303	 1.5968330293	-0.4307042297	-0.50314
C	 0.0980069074	 0.3305972755	 0.0142421245	-0.098565
C	-0.9990810755	-0.6078792581	 0.6202232881	-0.191887
C	-1.5241707883	-1.7567388696	-0.2768994564	-0.216022
C	-0.6207063186	-3.0093211229	-0.3485023537	-0.185491
C	 0.6995104161	-2.7993096401	-1.0924179814	-0.097724
O	 1.3343791609	-1.611809409	-0.5792379396	-0.247385
C	 0.7881004588	-0.4628083748	-1.0844131675	 0.40322
O	 0.766493639	-0.1970577907	-2.255246871	-0.331496
H	 0.2784562426	 2.2032294553	-0.7513056569	 0.233371
H	-1.0313030279	 1.4257272621	-1.2644332262	 0.232099
H	 0.8328240084	 0.5420630917	 0.7981909682	 0.110033
H	-0.6252561901	-1.042464672	 1.5522938391	 0.108335
H	-1.8307702084	 0.0501775464	 0.8866561546	 0.120435
H	-2.49137898	-2.0728362388	 0.1282809679	 0.102153
H	-1.732701537	-1.3868658355	-1.2898536123	 0.111442
H	-0.4034647237	-3.3417716738	 0.6742307806	 0.106666
H	-1.1647994748	-3.826840345	-0.8374560253	 0.100929
H	 1.3966190699	-3.6220462726	-0.9196722495	 0.115646
H	 0.5497035813	-2.6874138673	-2.1714554835	 0.127383
66.7094	126.5344	157.8036	237.2223	251.6022	299.755	328.8151	397.7039	440.6434	481.4464	511.2402	650.9297	738.7552	790.7291	818.3705	844.9228	867.9233	926.0366	937.0934	966.8761	1012.0741	1040.4421	1075.3397	1083.3581	1150.9776	1156.4343	1194.9573	1220.1347	1253.7279	1268.868	1294.003	1327.6389	1364.5952	1376.2679	1384.9234	1397.0399	1408.6922	1473.6429	1486.1558	1487.7667	1508.38	1671.7709	1830.9172	3021.8053	3025.2837	3047.4545	3052.1558	3059.8544	3069.2426	3072.8534	3101.8351	3116.3468	3478.2229	3546.8276
NC1CCCCOC1=O	N[C@H]1CCCCOC1=O	
InChI=1S/C6H11NO2/c7-5-3-1-2-4-9-6(5)8/h5H,1-4,7H2	InChI=1S/C6H11NO2/c7-5-3-1-2-4-9-6(5)8/h5H,1-4,7H2/t5-/m0/s1
