19
gdb 73361	2.4943	1.99026	1.59276	2.6178	72.94	-0.222	0.0818	0.3038	930.2617	0.161042	-423.010282	-423.003058	-423.002114	-423.0416	29.288	
C	-0.0045104233	 1.5052608871	 0.0176767234	-0.484362
C	-0.0034528069	-0.019324345	 0.001810635	 0.236871
C	 0.5616563464	-0.6190024749	-1.3051892304	-0.097386
O	 0.0146563146	-1.9311671473	-1.4249239125	-0.255064
C	-1.1960781129	-1.9615501009	-0.7184275785	 0.059989
C	-1.1188563733	-1.9772466437	 0.799165276	 0.059999
O	 0.1573498627	-1.9601858788	 1.3796204513	-0.255064
C	 0.6908265138	-0.645296805	 1.2319981771	-0.097382
C	-1.3984003454	-0.6915173396	 0.0658496545	-0.211952
H	 1.0156236253	 1.9023283194	-0.0300650048	 0.122098
H	-0.5563449646	 1.9081394934	-0.837284546	 0.123881
H	-0.4663808664	 1.8897799822	 0.9323415478	 0.123883
H	 0.2588386717	-0.0034350567	-2.1670086778	 0.08733
H	 1.6529036204	-0.7052266797	-1.3054343272	 0.10779
H	-2.0007670224	-2.4795663862	-1.2302731465	 0.09733
H	-1.867986037	-2.5065629533	 1.3792344525	 0.097331
H	 1.776354832	-0.7304366958	 1.1195905817	 0.107791
H	 0.4778313651	-0.0479358912	 2.1326345665	 0.087331
H	-2.3130553198	-0.1139612742	 0.1183637079	 0.089588
134.6606	211.053	243.5647	270.5442	325.8738	399.4254	560.9779	579.2336	580.0768	730.0452	733.7377	772.9768	794.8238	828.3346	887.3462	940.5253	971.6116	976.3429	987.3214	1002.5274	1043.2726	1075.9379	1088.9028	1102.9175	1115.7255	1174.1853	1177.9997	1197.2357	1203.9611	1262.3757	1267.0331	1272.6945	1314.1348	1376.1664	1381.4747	1409.1145	1424.3128	1495.2638	1496.6894	1505.7235	1521.043	2975.8475	2979.2806	3032.4452	3073.5671	3080.7146	3096.6112	3107.4094	3157.7223	3164.6633	3183.7462
CC12COC3C(OC1)C23	C[C@@]12CO[C@H]3[C@@H](OC1)[C@@H]23	
InChI=1S/C7H10O2/c1-7-2-8-5-4(7)6(5)9-3-7/h4-6H,2-3H2,1H3	InChI=1S/C7H10O2/c1-7-2-8-5-4(7)6(5)9-3-7/h4-6H,2-3H2,1H3/t4-,5+,6-,7+
