17
gdb 13906	2.92784	1.69472	1.5165	6.4059	64.83	-0.2458	0.0264	0.2721	922.7366	0.143082	-401.023853	-401.015831	-401.014887	-401.056145	29.932	
C	-0.0641227935	 1.4217110669	 1.1291268422	-0.425329
C	 0.03902812	 0.0051557541	 0.6030805368	-0.016987
C	 0.3640217315	-0.3282342873	-0.8250425025	-0.052133
N	 0.6956569299	 0.7582856682	-1.7281012055	-0.531219
H	 2.1156822706	 1.3020274266	-0.8436274408	 0.315731
H	 1.0601992077	 0.3983949161	-2.604527337	 0.254789
H	-0.1203865556	 1.3224996766	-1.9423539233	 0.251193
C	 1.3693865804	-0.6700016378	 0.2702827488	-0.182665
C	 2.6904167837	 0.0328762247	 0.456436633	 0.408795
O	 3.5404726837	-0.4194075132	 1.1796717678	-0.344336
O	 2.8681554694	 1.1862497669	-0.2085578702	-0.387131
H	 0.7055477847	 2.0787124453	 0.7228667855	 0.140685
H	-1.0445976032	 1.8511766613	 0.8941170582	 0.114837
H	 0.0444371287	 1.4253142081	 2.2181534796	 0.13735
H	-0.6779230608	-0.672975651	 1.058031169	 0.103648
H	-0.1628608118	-1.1755586294	-1.2610847298	 0.096677
H	 1.4484311847	-1.7133686962	 0.5500976784	 0.116095
94.3886	155.2563	173.8087	213.3817	293.2228	345.3229	385.1472	400.9378	502.9323	544.1903	685.3948	735.336	789.0582	807.6221	839.6017	913.6073	967.0465	980.2595	992.8512	1047.2792	1070.8685	1098.4181	1157.89	1174.2504	1247.4626	1251.2246	1285.8661	1355.9882	1384.8145	1424.6944	1441.0912	1492.6602	1497.6135	1505.7904	1651.0714	1846.0275	3038.5367	3097.0488	3105.2781	3135.5189	3151.4934	3191.2261	3255.2909	3501.2224	3577.6979
CC1C([NH3+])C1C([O-])=O	C[C@H]1[C@@H](N)[C@H]1C(=O)O	
InChI=1S/C5H9NO2/c1-2-3(4(2)6)5(7)8/h2-4H,6H2,1H3,(H,7,8)	InChI=1S/C5H9NO2/c1-2-3(4(2)6)5(7)8/h2-4H,6H2,1H3,(H,7,8)/t2-,3+,4-/m1/s1
