18
gdb 108810	3.30276	1.14976	0.8964	4.0574	75.41	-0.2264	0.009	0.2353	1302.2832	0.148195	-435.328207	-435.318941	-435.317997	-435.362361	33.476	
C	 0.0136326005	 1.4473738022	 0.0139918347	-0.317841
N	 0.0006591095	-0.0065842062	-0.071914035	-0.383048
C	-1.2028287055	-0.6524971559	-0.0070161599	 0.481589
N	-2.35931125	-0.097467413	-0.0450075511	-0.339924
C	-3.3424754121	-1.1847319889	-0.0367923802	-0.099391
C	-4.2892541342	-1.1511582714	-1.2393208567	-0.380028
C	-2.5296266064	-2.4916936747	 0.0099687527	 0.411431
O	-2.900986427	-3.6389429999	-0.0158543899	-0.37084
N	-1.2116300645	-2.0516183178	 0.0714981405	-0.409145
H	 1.0233751888	 1.8030571071	-0.201613281	 0.122911
H	-0.6750315457	 1.8497265977	-0.7304468274	 0.162568
H	-0.3014697898	 1.8184114241	 0.9976608124	 0.129307
H	 0.7683180766	-0.4777426334	 0.3819872359	 0.242953
H	-3.9405192191	-1.128651106	 0.8834694249	 0.112304
H	-3.7245704421	-1.1917376969	-2.1756107198	 0.11916
H	-4.9691021405	-2.0066664036	-1.2043808592	 0.133213
H	-4.870801339	-0.2262515579	-1.2308085706	 0.125719
H	-0.4195531095	-2.6646648157	-0.0390752903	 0.259063
87.0765	114.1324	125.9258	193.5942	215.2467	220.424	249.2773	372.9023	426.6089	452.3726	487.3582	537.6033	652.9606	715.5176	730.9027	735.9314	812.5142	933.259	981.3335	1053.2015	1087.4213	1110.6106	1127.6308	1151.6224	1187.832	1214.1405	1268.0345	1286.6681	1317.7196	1397.5954	1408.4233	1451.5862	1481.0469	1487.0855	1496.3866	1508.6257	1556.2307	1716.5927	1851.7804	3013.6939	3023.2416	3045.325	3104.9286	3119.9571	3131.9995	3148.5825	3615.1159	3642.2179
CNC1=NC(C)C(=O)N1	CNC1=N[C@@H](C)C(=O)N1	
InChI=1S/C5H9N3O/c1-3-4(9)8-5(6-2)7-3/h3H,1-2H3,(H2,6,7,8,9)	InChI=1S/C5H9N3O/c1-3-4(9)8-5(6-2)7-3/h3H,1-2H3,(H2,6,7,8,9)/t3-/m0/s1
