22
gdb 6865	3.10309	1.73554	1.49847	1.2452	77.43	-0.2581	0.0654	0.3235	983.2754	0.20147	-350.23888	-350.230581	-350.229637	-350.27065	33.477	
C	-0.023907947	 1.5525283813	 0.0012835217	-0.431359
C	-0.0073777246	 0.0207521738	-0.0080361183	 0.368241
O	-1.3550449847	-0.4727822583	 0.0576623816	-0.464917
C	 0.6911356297	-0.5168678607	-1.2743268044	-0.214926
C	 0.7783794272	-2.0491092863	-1.2870480519	-0.190216
C	 1.4795379484	-2.5743912597	-0.0269926228	-0.18308
C	 0.7852355682	-2.0621672324	 1.2423059042	-0.197658
C	 0.6868131461	-0.5300084854	 1.2489601881	-0.187858
H	 0.9908119396	 1.9638459493	 0.004250738	 0.111787
H	-0.5362492655	 1.9412254503	-0.8875854117	 0.098184
H	-0.5516138245	 1.9212943558	 0.8858771792	 0.118893
H	-1.8194953257	-0.1598250921	-0.7260840063	 0.27298
H	 0.1551042057	-0.1536451048	-2.162229668	 0.074191
H	 1.7003684026	-0.0870380029	-1.3288011725	 0.090584
H	-0.2365582651	-2.4609506586	-1.332966263	 0.100468
H	 1.3022488911	-2.3860675555	-2.1885914538	 0.083899
H	 1.499852771	-3.6700931075	-0.033131917	 0.087324
H	 2.5282321433	-2.2432923596	-0.0294989514	 0.08565
H	-0.2257768044	-2.4806760006	 1.2977180691	 0.112358
H	 1.3216832423	-2.4022449627	 2.1353615332	 0.083375
H	 1.6922871708	-0.0935166246	 1.3052148781	 0.08673
H	 0.1368225653	-0.1854217488	 2.131593928	 0.09535
143.2345	206.1075	240.6734	279.5233	290.9523	309.7401	347.3271	414.4776	423.3701	472.7639	490.547	568.406	721.0528	776.9203	840.5214	859.9546	879.9704	919.7894	939.6096	978.9185	982.4901	1023.0164	1055.1938	1083.9105	1102.9833	1114.6882	1159.9498	1197.3694	1211.4124	1283.6858	1289.7542	1305.7309	1341.3319	1369.6859	1374.6295	1381.1494	1383.3513	1401.9367	1409.2719	1467.8225	1479.3328	1481.524	1487.99	1492.9632	1495.1715	1501.5787	3002.9847	3004.6193	3020.8834	3026.0674	3030.9678	3035.0341	3043.2484	3059.5669	3068.5051	3074.3993	3083.4872	3088.9991	3111.6914	3802.6642
CC1(O)CCCCC1	CC1(O)CCCCC1	
InChI=1S/C7H14O/c1-7(8)5-3-2-4-6-7/h8H,2-6H2,1H3	InChI=1S/C7H14O/c1-7(8)5-3-2-4-6-7/h8H,2-6H2,1H3
