22
gdb 13143	3.57308	1.19041	0.99684	0.97	79.07	-0.2497	0.083	0.3327	1270.8077	0.19961	-350.186593	-350.177317	-350.176373	-350.220696	33.778	
C	 0.3000841212	 1.3481596548	-0.1589487535	-0.226021
O	 0.0903598776	-0.0330991858	-0.0042099342	-0.231297
C	 0.7835747043	-0.5759155526	 1.1012098942	-0.062475
C	 0.4914780548	-2.0661300675	 1.1554333665	-0.019083
C	 1.1854686982	-2.8714998552	 0.0200570252	-0.214068
C	 2.2911144928	-3.2910158308	 1.0256827454	-0.226821
C	 1.3444267481	-2.8781677066	 2.1883877008	 0.040353
C	 1.9257066796	-2.2109356874	 3.4281399085	-0.414392
H	 1.3635068359	 1.586514757	-0.324085867	 0.100259
H	-0.2724949239	 1.6724629359	-1.0316857043	 0.124697
H	-0.0422514781	 1.9168305096	 0.7209023114	 0.10063
H	 1.8666197016	-0.3862662968	 0.9963909818	 0.079013
H	 0.4613308829	-0.0816120705	 2.0340770212	 0.082043
H	-0.5920240384	-2.1944184385	 1.2356301396	 0.068658
H	 0.5814155438	-3.7216070279	-0.3076319955	 0.096796
H	 1.4865882173	-2.3012275099	-0.8613584247	 0.102878
H	 2.6366317081	-4.3277553762	 1.0018354048	 0.091564
H	 3.1687292042	-2.6387665416	 0.9682484322	 0.095691
H	 0.7589239592	-3.7516319231	 2.4972569952	 0.072296
H	 2.5328035678	-1.3351112079	 3.1754975437	 0.112983
H	 1.1390064893	-1.8847911356	 4.1179013602	 0.113546
H	 2.5714191739	-2.9090499333	 3.9727866586	 0.112751
80.3522	109.4117	129.2804	136.7294	229.4391	240.5401	255.7738	335.8295	356.4904	464.8149	494.6549	638.5351	754.5923	856.4666	890.5071	892.2958	921.3986	953.9043	967.8254	992.3688	1025.5809	1100.4599	1129.5397	1153.4129	1159.19	1176.6212	1191.5866	1214.9037	1232.6506	1248.1916	1262.6165	1265.8423	1278.0573	1309.6599	1356.8361	1376.6135	1409.1017	1426.6369	1481.5106	1485.0374	1486.335	1496.1007	1497.1811	1499.5473	1506.1629	1527.9848	2940.7301	2965.543	2968.9482	3005.8733	3024.6139	3032.8123	3048.2802	3058.0466	3068.2122	3088.0722	3092.736	3098.0908	3109.5581	3118.4999
COCC1CCC1C	COC[C@H]1CC[C@H]1C	
InChI=1S/C7H14O/c1-6-3-4-7(6)5-8-2/h6-7H,3-5H2,1-2H3	InChI=1S/C7H14O/c1-6-3-4-7(6)5-8-2/h6-7H,3-5H2,1-2H3/t6-,7-/m1/s1
