16
gdb 98724	3.02755	1.09592	0.90788	4.7228	71.78	-0.2654	-0.016	0.2493	1264.1124	0.123493	-434.042311	-434.033398	-434.032453	-434.076682	31.771	
O	 0.0360231529	 1.1718652267	 0.4159548909	-0.418899
C	-0.0306830732	-0.1602821172	 0.0089129295	-0.080004
C	-1.4626329405	-0.6648037193	-0.0320240631	 0.32506
N	-2.387990506	 0.1305640752	 0.3137568523	-0.516639
N	-1.6106683455	-1.9530326933	-0.5683840049	-0.092982
C	-1.0013339846	-3.1465579232	-0.025636732	-0.244021
C	-2.5011235585	-2.9814513391	-0.0539700672	-0.168053
C	-3.2060896221	-2.7989717133	 1.1945502686	 0.288387
N	-3.7991809402	-2.6642596963	 2.1777227668	-0.313716
H	-0.883353828	 1.429445379	 0.5984956366	 0.299702
H	 0.4085512265	-0.2930308445	-0.9925573673	 0.118042
H	 0.548538212	-0.8079743914	 0.6893669627	 0.103829
H	-3.3232406599	-0.2691387851	 0.266070642	 0.237403
H	-0.5343476786	-3.8186944181	-0.7394892736	 0.148869
H	-0.5257560553	-3.087655716	 0.9501566785	 0.157843
H	-3.076858749	-3.508173344	-0.8100553899	 0.155178
60.1344	84.3674	118.5944	184.1065	233.1609	268.6839	335.6113	401.0577	427.7513	520.8488	541.6124	556.5465	662.6934	775.99	831.7796	870.7061	910.9283	968.3493	1038.5598	1045.8711	1057.5103	1118.408	1131.5777	1137.5353	1157.6745	1247.7781	1258.7746	1334.091	1365.1995	1391.7853	1475.3355	1504.1508	1508.6392	1728.3142	2358.4984	2962.0293	2992.6861	3112.8904	3152.6121	3208.1592	3510.6389	3655.6403
OCC(=N)N1CC1C#N	OC[C]([NH])N1C[C@H]1C#N	
InChI=1S/C5H7N3O/c6-1-4-2-8(4)5(7)3-9/h4,7,9H,2-3H2	InChI=1S/C5H7N3O/c6-1-4-2-8(4)5(7)3-9/h4,7,9H,2-3H2/t4-,8?/m1/s1
