18
gdb 82810	3.00598	1.70389	1.67316	1.7613	70.1	-0.2138	0.0708	0.2846	900.7179	0.150156	-439.001789	-438.995057	-438.994112	-439.032525	28.346	
O	 0.1442340088	 1.3727022798	 0.02722065	-0.423225
C	 0.019593644	-0.0131707766	-0.0224705781	 0.089242
C	-0.4145139124	-0.7624775741	 1.2108963747	-0.00559
O	-0.9463438723	 0.0520444248	 2.2385227818	-0.289856
C	-2.3595158348	 0.303885146	 2.128421212	 0.108332
C	-2.6753592033	 1.0306499292	 0.8041069932	-0.208623
N	-2.654988482	-0.3213884444	 0.1232935116	-0.141668
C	-3.0932184445	-0.8814336437	 1.4702340816	-0.191892
C	-1.2861609536	-0.8084424628	-0.0360797414	-0.082667
H	 0.1206050938	 1.6102035991	 0.9647703189	 0.294354
H	 0.8016056588	-0.4733212682	-0.622684027	 0.104668
H	 0.1428669428	-1.609167692	 1.6004854282	 0.09638
H	-2.6655446439	 0.705398148	 3.0968170493	 0.079228
H	-3.6988434866	 1.416011152	 0.7754630457	 0.106857
H	-1.9818221868	 1.7692199927	 0.4142933806	 0.140115
H	-2.7596080206	-1.898458125	 1.6865029009	 0.112739
H	-4.1791882329	-0.8091012676	 1.5689635993	 0.112432
H	-1.2430014443	-1.7096186773	-0.6427169013	 0.099172
161.1894	224.2075	301.8876	429.8948	447.7626	468.3239	495.0771	583.0562	665.8632	701.2458	736.7065	748.242	826.4555	839.3136	842.5499	903.457	934.6611	943.2297	1006.6643	1013.5398	1060.0419	1066.7812	1099.0569	1124.5958	1133.4242	1142.3192	1171.4239	1230.4852	1239.8562	1254.7063	1284.6316	1301.0998	1322.6701	1351.5002	1361.7835	1381.0477	1427.8841	1486.3822	1518.2058	3060.8702	3065.9513	3090.5424	3123.9386	3127.7609	3133.284	3146.9973	3189.2284	3741.1726
OC1C2OC3CN(C3)C12	O[C@H]1[C@H]2O[C@H]3CN(C3)[C@@H]12	
InChI=1S/C6H9NO2/c8-5-4-6(5)9-3-1-7(4)2-3/h3-6,8H,1-2H2	InChI=1S/C6H9NO2/c8-5-4-6(5)9-3-1-7(4)2-3/h3-6,8H,1-2H2/t4-,5+,6-/m0/s1
