16
gdb 129730	3.0067	1.27904	0.94666	3.701	68.26	-0.1918	0.0246	0.2164	1188.3317	0.125062	-471.203873	-471.194752	-471.193807	-471.237572	33.351	
N	 0.1524523066	 1.4430030904	-0.0367217385	-0.625822
C	 0.0709409095	 0.0449877703	-0.0385868365	 0.063554
C	-1.0425824104	-0.7687275386	-0.0323616088	 0.2972
O	-2.3724177968	-0.4691347159	-0.0183061749	-0.434416
N	-0.5878427933	-2.0573409705	 0.0373909785	-0.25147
N	 0.7524605964	-2.1323772191	 0.0658562354	-0.30341
C	 1.1609003702	-0.861948867	 0.0259987489	 0.26909
C	 2.6071721177	-0.4894719711	 0.0232212532	-0.180383
O	 2.9325123576	 0.3806522708	-1.0694374587	-0.419739
H	 0.9438198831	 1.7639731361	-0.5820413155	 0.253905
H	-0.701800697	 1.8902801252	-0.3416046106	 0.235921
H	-2.7106600458	-0.4465826315	-0.9216066207	 0.304854
H	-1.1446530246	-2.8904773705	 0.1227610587	 0.271743
H	 2.8640016743	 0.0868158537	 0.9188306322	 0.123374
H	 3.2198488194	-1.4002835444	 0.0183008571	 0.112797
H	 2.7209872131	-0.0969630577	-1.87891577	 0.282802
91.3891	129.7304	147.1021	207.3378	254.7807	274.222	330.9478	333.3375	384.8028	416.8336	457.4621	520.9559	614.986	659.7234	719.5832	739.5166	786.195	816.8395	966.9001	1006.8273	1032.2488	1168.6041	1206.1906	1223.1304	1254.9354	1267.901	1308.3186	1354.675	1417.0375	1442.2475	1494.8252	1506.5994	1544.834	1638.2423	1682.5788	3023.1309	3073.608	3526.5758	3627.3455	3674.5465	3762.6156	3806.0113
NC1=C(O)NN=C1CO	Nc1c(O)[nH]nc1CO	
InChI=1S/C4H7N3O2/c5-3-2(1-8)6-7-4(3)9/h8H,1,5H2,(H2,6,7,9)	InChI=1S/C4H7N3O2/c5-3-2(1-8)6-7-4(3)9/h8H,1,5H2,(H2,6,7,9)
