18
gdb 107592	2.68565	1.5671	1.13417	1.2603	72.13	-0.2148	-0.024	0.1908	1094.1995	0.147438	-439.07241	-439.06392	-439.062976	-439.105548	31.769	
C	 0.4118107213	 1.4456693767	-0.249423389	-0.334176
N	-0.0717244744	 0.0898255151	 0.0416760805	-0.365812
C	 0.4917054246	-0.4939740252	 1.2140120343	 0.202851
C	 1.9192887197	-1.0526694376	 1.1308622235	-0.34369
C	 0.7793127455	-1.9799321839	 1.3665570597	 0.050383
O	 0.5560242492	-2.4113924101	 2.6867165227	-0.262936
C	 0.2908354792	-1.285434627	 3.5144571274	-0.194886
C	 0.0593103964	-0.0841395911	 2.5890420843	 0.311651
O	-0.4766096188	 0.9517095568	 2.9016926244	-0.325124
H	 1.4900101034	 1.4090605475	-0.4355420869	 0.121863
H	-0.072174397	 1.8024990835	-1.1629465712	 0.117955
H	 0.2232147084	 2.1650240851	 0.5575644255	 0.133452
H	-1.0833183155	 0.104252461	 0.1243224727	 0.226914
H	 2.3335676722	-1.0292591461	 0.1292751717	 0.137848
H	 2.6212347871	-0.8531298131	 1.9329360491	 0.127178
H	 0.4755675134	-2.7044798837	 0.6213898472	 0.123913
H	-0.6016524097	-1.4766976502	 4.1185850997	 0.142964
H	 1.1269722351	-1.0840178178	 4.1997390143	 0.129652
98.2507	120.8917	159.6294	196.0325	223.2237	295.8037	372.0109	427.303	483.1594	542.5306	629.655	655.4173	692.0988	770.5651	839.7096	880.0964	918.5863	989.8685	998.9819	1011.7992	1040.9418	1045.4396	1079.2921	1107.1816	1154.8334	1164.4875	1197.092	1205.8741	1264.2852	1297.9666	1335.3431	1398.1451	1452.2492	1472.9683	1483.0917	1484.6481	1487.6276	1526.8825	1827.1882	3006.9296	3017.6129	3079.212	3084.3072	3110.7704	3137.6946	3198.2991	3232.7024	3519.1617
CNC12CC1OCC2=O	CN[C@]12C[C@H]1OCC2=O	
InChI=1S/C6H9NO2/c1-7-6-2-5(6)9-3-4(6)8/h5,7H,2-3H2,1H3	InChI=1S/C6H9NO2/c1-7-6-2-5(6)9-3-4(6)8/h5,7H,2-3H2,1H3/t5-,6+/m1/s1
