14
gdb 25276	3.34174	1.75581	1.1594	4.4164	68.36	-0.237	-0.016	0.2211	963.9697	0.105166	-432.945835	-432.939153	-432.938208	-432.977216	25.07	
O	-0.0078705359	-0.0810904742	 0.0223355364	-0.382623
C	-0.0267144047	 1.1210703857	 0.0272514183	 0.501606
N	-1.0983155696	 1.9761841765	 0.0546559169	-0.376998
C	-0.7625265016	 3.3995447871	 0.0521990177	-0.294469
C	 0.7376982988	 3.3246783499	 0.0180978677	 0.303385
C	 1.9100372058	 4.0224941848	-0.0068648779	-0.215596
N	 2.9782493432	 3.1385106336	-0.0346285626	-0.27493
C	 2.4631712219	 1.9318871278	-0.0269438291	 0.010242
N	 1.097161262	 1.9943374296	 0.0050926229	-0.105725
H	-2.0358847741	 1.614149923	 0.0744568748	 0.271645
H	-1.1824564229	 3.9102586149	-0.8235276784	 0.143101
H	-1.1426369472	 3.90387447	 0.9495531329	 0.143077
H	 2.0687369872	 5.0894043962	-0.0066260445	 0.119603
H	 3.0006038371	 0.9974185149	-0.0426962351	 0.157682
108.692	148.2547	242.1507	307.2405	403.785	564.2117	641.1161	650.0821	666.5978	681.8104	763.8452	786.0106	822.8247	843.943	959.6128	1027.8873	1045.572	1103.2881	1129.8187	1189.5734	1211.1464	1232.6093	1273.9854	1328.9935	1396.4614	1411.5065	1442.4561	1493.4759	1518.088	1609.1462	1879.2023	3017.7664	3044.0812	3259.1707	3276.0298	3682.0156
O=C1NCC2=CN=CN12	O=C1NCc2cncn12	
InChI=1S/C5H5N3O/c9-5-7-2-4-1-6-3-8(4)5/h1,3H,2H2,(H,7,9)	InChI=1S/C5H5N3O/c9-5-7-2-4-1-6-3-8(4)5/h1,3H,2H2,(H,7,9)
