18
gdb 126018	3.05139	1.57958	1.08851	2.1206	78.17	-0.1901	0.0308	0.2209	1096.3312	0.151534	-398.148426	-398.140767	-398.139823	-398.180365	29.932	
C	-0.2476556043	 1.5653086681	-0.0554871254	-0.395884
C	 0.0166490106	 0.05951527	 0.0076996942	-0.132863
C	 0.9808153435	-0.4427258368	-1.1243573792	-0.174115
N	 1.6998359391	-1.6103551753	-0.55927466	-0.398275
C	 1.7081717981	-1.3972904165	 0.8193359544	 0.379498
N	 2.3932402904	-1.9320898962	 1.8131211412	-0.363014
N	 1.8361838501	-1.3142695483	 2.9031751058	-0.19717
C	 0.8510080794	-0.4243625215	 2.5883774751	-0.225965
C	 0.7445799271	-0.4518049539	 1.2193943595	 0.234875
H	 0.6821446138	 2.1301110363	 0.067227003	 0.117805
H	-0.6957505867	 1.8472629519	-1.0145948222	 0.1133
H	-0.9372848968	 1.8757705389	 0.7358204473	 0.11584
H	-0.943590568	-0.465818323	-0.0976828593	 0.090853
H	 0.441249402	-0.7242431698	-2.0329596148	 0.105912
H	 1.6788017486	 0.3703010137	-1.3796409409	 0.09451
H	 2.5950722482	-1.8111516039	-0.9842867889	 0.238406
H	 2.2150515914	-1.5121241438	 3.8118390868	 0.268283
H	 0.3386489235	 0.1330163103	 3.3571621535	 0.128005
118.226	171.6813	224.5971	270.0143	297.9518	357.582	445.1954	504.5842	553.5821	620.9981	633.063	686.9558	759.9507	786.2519	800.4301	903.0527	946.9006	964.8634	1010.7607	1045.1007	1056.8961	1109.9118	1130.2384	1140.3926	1191.7382	1224.2525	1294.5755	1301.8089	1331.5083	1356.3428	1397.3407	1412.0854	1466.749	1471.6426	1495.7445	1499.2036	1508.8609	1557.0635	1655.1532	2974.6326	2993.24	3030.6363	3080.81	3098.1552	3105.8486	3253.7221	3579.2606	3696.0699
CC1CNC2=NNC=C12	C[C@H]1CNc2n[nH]cc12	
InChI=1S/C6H9N3/c1-4-2-7-6-5(4)3-8-9-6/h3-4H,2H2,1H3,(H2,7,8,9)	InChI=1S/C6H9N3/c1-4-2-7-6-5(4)3-8-9-6/h3-4H,2H2,1H3,(H2,7,8,9)/t4-/m0/s1
