15
gdb 42592	3.29681	2.00052	1.7977	3.2867	65.71	-0.2267	-0.0171	0.2096	793.6133	0.115485	-420.603922	-420.598353	-420.597409	-420.63374	23.761	
O	 0.0458437119	-0.0008772218	 0.0447613023	-0.329829
C	-0.0120174006	 1.1929400496	 0.0018070321	 0.484926
C	-1.1927555914	 2.1715887142	 0.0434908671	-0.223978
C	-0.8619793886	 2.9982163034	 1.3063526901	-0.088162
C	-0.3614399878	 4.1628348867	 0.4957881686	-0.09074
C	 0.6491503645	 3.2105240884	 1.0911593031	-0.085026
C	 1.095128776	 2.2734236937	-0.0547043831	-0.085418
O	 0.6762201217	 2.9429768933	-1.2603759243	-0.256588
C	-0.6088362039	 3.3759249553	-0.8102107873	 0.074918
H	-2.1964907158	 1.8024287388	-0.13693433	 0.093881
H	-1.342154669	 2.9536388716	 2.2737016075	 0.103965
H	-0.3876635574	 5.2290065726	 0.6737281465	 0.101454
H	 1.2963033867	 3.5032582892	 1.9044847224	 0.1072
H	 2.1317264627	 1.9567406347	-0.1123649631	 0.097709
H	-1.1901162689	 3.7958211202	-1.6264057719	 0.095688
150.2489	382.5654	514.3599	554.9503	570.5341	679.9406	727.5678	775.7649	787.9273	800.0664	817.5689	849.3036	859.1561	898.5054	915.2808	939.8255	954.4279	972.9026	1000.2706	1027.7609	1048.1197	1078.3203	1121.7807	1148.8902	1187.7344	1194.7307	1201.6607	1234.2616	1267.6774	1280.8352	1314.2163	1354.1551	1890.6076	3163.9179	3182.3247	3184.6225	3206.1293	3217.4357	3235.7274
O=C1C2C3C4C3C1OC24	O=C1[C@H]2[C@@H]3[C@H]4[C@@H]3[C@@H]1O[C@@H]24	
InChI=1S/C7H6O2/c8-5-4-1-2-3(1)7(5)9-6(2)4/h1-4,6-7H	InChI=1S/C7H6O2/c8-5-4-1-2-3(1)7(5)9-6(2)4/h1-4,6-7H/t1-,2+,3-,4-,6-,7+/m1/s1
