19
gdb 117905	2.24846	0.97315	0.84566	4.3512	78.23	-0.2421	-0.0807	0.1614	1479.7644	0.156608	-419.219107	-419.208355	-419.207411	-419.256731	36.564	
C	 0.5236292481	 0.7905997029	-0.8661647726	-0.391472
C	 0.1571223406	-0.2860348843	 0.1505250402	-0.113349
N	-1.050342071	-0.9975438081	-0.2691192692	-0.306104
C	-1.5114916168	-2.0445304997	 0.6368085399	-0.067633
C	-2.4306909987	-1.5771917891	 1.7803774872	-0.424392
C	-2.2125037877	-3.1078027201	-0.2048378325	 0.336915
O	-2.0471719808	-4.2950850649	-0.1071526052	-0.273625
C	-3.1756397859	-2.567725752	-1.1980281629	 0.221381
N	-3.9647897382	-2.1424129998	-1.9287126794	-0.314186
H	 1.4482689546	 1.2965272492	-0.5743586499	 0.12175
H	 0.6602880318	 0.3525660527	-1.8586068803	 0.135226
H	-0.2626786497	 1.5508127266	-0.9363722527	 0.118321
H	 0.9688218481	-1.0205894957	 0.2203694647	 0.113667
H	 0.0603911933	 0.1704174429	 1.1516586162	 0.086697
H	-1.7977475922	-0.3354798607	-0.4547026821	 0.228098
H	-0.6342874164	-2.5481677514	 1.054662729	 0.116517
H	-3.3492848079	-1.1319929415	 1.3821954351	 0.135839
H	-2.7089484968	-2.4101242071	 2.4333446923	 0.140379
H	-1.9200189343	-0.8226956999	 2.3852802923	 0.135971
25.2432	59.4556	71.8143	106.1404	166.6669	208.1811	234.9311	255.7885	295.8321	340.19	346.573	392.0252	522.9604	657.1536	701.506	722.7149	767.4318	817.361	895.3428	931.4576	987.539	1059.2919	1072.2433	1138.7345	1142.9513	1207.9194	1218.7685	1294.1633	1312.0199	1336.9793	1397.1787	1402.1946	1417.4035	1481.0259	1490.5162	1494.3837	1498.3112	1507.6371	1523.3147	1806.7895	2334.0129	2942.3227	3034.9341	3036.1816	3043.3268	3072.4419	3105.0308	3109.3672	3118.8909	3125.1954	3513.0598
CCNC(C)C(=O)C#N	CCN[C@@H](C)C(=O)C#N	
InChI=1S/C6H10N2O/c1-3-8-5(2)6(9)4-7/h5,8H,3H2,1-2H3	InChI=1S/C6H10N2O/c1-3-8-5(2)6(9)4-7/h5,8H,3H2,1-2H3/t5-/m0/s1
