18
gdb 55147	3.43188	1.34989	1.21472	5.2839	70.73	-0.2455	0.0207	0.2662	1056.5173	0.151074	-439.101103	-439.094049	-439.093105	-439.132859	28.212	
O	-0.1612126456	-0.0667895136	-0.1167331745	-0.369749
C	-0.0515067249	 1.2676113907	-0.0604301211	 0.429049
O	 0.9986627286	 1.8516085809	-0.0980935493	-0.349784
C	-1.3977280773	 1.9880501206	 0.0759367942	-0.141451
N	-2.5411394585	 1.0174990818	 0.1003662681	-0.332291
H	-3.1771019326	 1.1918581684	-0.6715417295	 0.231601
H	-1.1312979621	-0.2346770141	-0.0718298565	 0.302008
C	-3.1815740597	 1.3778300006	 1.3967118077	 0.00325
C	-3.1378379241	 2.933123894	 1.4149803796	-0.237439
C	-1.6027335516	 2.6598932478	 1.452573217	-0.023057
C	-1.9546684258	 1.4249189671	 2.3398469872	-0.225554
H	-1.472009021	 2.7125993384	-0.7403192883	 0.107494
H	-4.076217382	 0.7930655078	 1.6069729702	 0.079569
H	-3.5509470405	 3.4674416546	 0.5537262787	 0.091651
H	-3.5100502046	 3.3643664773	 2.3463146237	 0.109742
H	-0.8661561425	 3.4066937986	 1.7390608503	 0.098278
H	-2.2212667913	 1.7092068508	 3.3580690465	 0.110685
H	-1.2784758447	 0.5676617182	 2.3433420261	 0.115997
91.0259	149.6237	204.1485	362.9264	435.7585	502.7618	520.3925	621.8317	657.0565	745.1088	827.4518	831.7591	847.3646	860.3683	879.5978	898.068	929.8155	979.281	982.8529	1002.1426	1009.8256	1040.4939	1069.0435	1103.586	1114.4569	1129.0468	1213.517	1219.6964	1229.8171	1255.0837	1268.9986	1280.4803	1299.9217	1348.9667	1396.9935	1439.0997	1483.0603	1518.5961	1868.5383	3052.2071	3068.8697	3080.4982	3122.7049	3129.1327	3145.7141	3154.114	3424.4345	3517.4254
[O-]C(=O)C1[NH2+]C2CC1C2	OC(=O)[C@H]1N[C@@H]2C[C@H]1C2	
InChI=1S/C6H9NO2/c8-6(9)5-3-1-4(2-3)7-5/h3-5,7H,1-2H2,(H,8,9)	InChI=1S/C6H9NO2/c8-6(9)5-3-1-4(2-3)7-5/h3-5,7H,1-2H2,(H,8,9)/t3-,4+,5-/m0/s1
