19
gdb 91957	2.3317	1.83345	1.24981	1.2388	74.46	-0.2419	0.0744	0.3163	1048.11	0.158929	-422.991469	-422.983513	-422.982569	-423.02402	31.313	
C	 0.2400648108	 1.5820007414	-0.2134020214	-0.412943
C	 0.1214113291	 0.089338025	 0.0323716804	 0.076241
O	 0.6362915118	-0.6166273957	-1.1055183566	-0.280223
C	 1.1765207257	-1.8492816338	-0.6937028979	 0.094634
C	 2.5897104358	-1.7963936264	-0.1882727327	-0.315731
C	 1.4229185562	-1.8151733863	 0.7853862164	-0.157779
C	 0.8785533058	-0.4846726055	 1.2420468426	 0.386773
C	 1.449232659	 0.3022595068	 2.3426236463	-0.242786
O	 0.2224683744	-0.425361808	 2.5040321014	-0.283641
H	 1.2871894855	 1.8781367907	-0.3246028442	 0.119926
H	-0.294384218	 1.8545850485	-1.1273260562	 0.129902
H	-0.2025024845	 2.1397005205	 0.6176626919	 0.125502
H	-0.9389588002	-0.1772762531	 0.1726676992	 0.088547
H	 0.7900798639	-2.7126032209	-1.22524782	 0.100586
H	 3.1922317284	-2.6967821139	-0.2482570584	 0.114953
H	 3.1314313763	-0.8672811478	-0.3315166832	 0.118667
H	 1.270591333	-2.6671019153	 1.4364946739	 0.1076
H	 2.3013212334	-0.0941717113	 2.8935711715	 0.114864
H	 1.3519643036	 1.3860621552	 2.3563623769	 0.114906
58.4541	177.9477	244.6233	254.5621	294.5132	375.6685	391.0857	472.5935	501.562	532.0637	696.872	713.7262	796.8348	813.3933	870.6953	890.1972	902.4658	950.4965	988.6886	1000.206	1033.7897	1056.1905	1091.1408	1102.6186	1119.0973	1127.3079	1137.777	1146.449	1165.433	1197.0813	1228.1013	1307.5446	1332.6753	1367.0039	1387.6596	1404.7467	1428.1388	1471.909	1488.6264	1496.2217	1533.2801	2970.2118	3042.9741	3086.3147	3118.0524	3122.1045	3127.168	3162.125	3174.2387	3189.5104	3219.7822
CC1OC2CC2C11CO1	C[C@H]1O[C@H]2C[C@H]2[C@]21CO2	
InChI=1S/C7H10O2/c1-4-7(3-8-7)5-2-6(5)9-4/h4-6H,2-3H2,1H3	InChI=1S/C7H10O2/c1-4-7(3-8-7)5-2-6(5)9-4/h4-6H,2-3H2,1H3/t4-,5-,6+,7-/m1/s1
