16
gdb 8289	7.20618	0.92348	0.90665	4.3728	63.08	-0.2723	0.0072	0.2794	1245.3204	0.129073	-420.880608	-420.872508	-420.871563	-420.914432	28.747	
O	 0.7394359775	 0.482433385	-0.7244889153	-0.425073
C	-0.098458635	-0.3000497107	 0.0780224648	 0.171732
C	-0.0091197206	-0.2062274933	 1.6299841002	-0.283463
C	-1.5477778694	-0.3650009224	 1.6790366355	 0.113415
C	-1.616133187	 0.0325414303	 0.1849156895	-0.28346
O	-1.9077457523	-1.7404270098	 1.8522100808	-0.193364
C	-2.8085735533	-2.0561476252	 2.8003730522	 0.168378
O	-3.1631274176	-3.1767591278	 3.0093258538	-0.27547
H	 0.6401700936	 1.4037868886	-0.4614216315	 0.278187
H	 0.0476225831	-1.3304673693	-0.2546736163	 0.116501
H	 0.5833084377	-0.9487332122	 2.1672244222	 0.12346
H	 0.2898462506	 0.7980718309	 1.9491396829	 0.100688
H	-2.1000030624	 0.2510394321	 2.3949356823	 0.087518
H	-1.7942860547	 1.1077363159	 0.0750194491	 0.10069
H	-2.3192296245	-0.5174648436	-0.4428273355	 0.123448
H	-3.1755681556	-1.1694140686	 3.3541377253	 0.076814
28.7829	76.1493	154.7836	264.4361	290.0617	337.7934	361.949	434.897	464.3414	609.8132	680.5345	793.1457	902.4692	921.5507	930.0222	978.9553	998.8475	1043.1975	1077.5199	1086.705	1152.9433	1171.5923	1199.4637	1223.7078	1254.9176	1272.5198	1286.579	1338.3698	1379.6794	1434.8183	1442.1146	1454.2336	1482.7107	1866.6066	2942.4466	3049.6872	3050.4959	3066.2911	3090.6119	3127.411	3129.9019	3803.242
OC1CC(C1)OC=O	O[C@H]1C[C@@H](C1)OC=O	
InChI=1S/C5H8O3/c6-3-8-5-1-4(7)2-5/h3-5,7H,1-2H2	InChI=1S/C5H8O3/c6-3-8-5-1-4(7)2-5/h3-5,7H,1-2H2/t4-,5-
