17
gdb 41981	2.58406	2.16644	1.6954	1.8234	65.59	-0.2218	0.0717	0.2935	851.5386	0.139226	-458.930238	-458.923895	-458.922951	-458.960802	26.015	
C	 0.0257163901	 1.5717084518	 0.0045270418	-0.113507
O	 1.3740852361	 1.9962006904	-0.2249587266	-0.260182
C	 2.0235163348	 0.994552231	-0.9712194962	 0.033742
C	 2.5545851489	-0.2234361778	-0.2474588634	 0.101459
O	 2.678480368	-0.3675358031	 1.132664391	-0.260765
C	 1.5413042377	-0.0315848573	 1.9075160475	 0.016433
O	 0.333910872	-0.4836030408	 1.3576355666	-0.255389
C	 0.0724722093	 0.0368353239	 0.0518058187	 0.065373
C	 1.2069347497	-0.2829182359	-0.9265452284	-0.177063
H	-0.3281016337	 2.0184620816	 0.9376962736	 0.121748
H	-0.6230188971	 1.9035125828	-0.8196488064	 0.10273
H	 2.5182561071	 1.3544035407	-1.86879557	 0.099481
H	 3.3760706989	-0.7404974054	-0.7338885937	 0.108574
H	 1.6619132538	-0.5543323856	 2.8590988744	 0.117644
H	 1.51904678	 1.0538199304	 2.0742403758	 0.107214
H	-0.8750812235	-0.4145432749	-0.2463551401	 0.096041
H	 1.020546168	-0.9254216618	-1.7779480846	 0.096466
160.6626	218.3624	297.7572	417.7094	453.719	528.2832	618.078	705.582	726.8575	754.368	763.3006	818.0957	844.2247	921.1951	957.6479	965.2756	992.0522	1024.5374	1045.657	1069.8357	1098.6677	1103.8365	1125.8314	1146.678	1184.5178	1231.6524	1248.5361	1267.7685	1298.2774	1299.3412	1346.9881	1379.373	1381.9667	1420.8534	1462.3457	1503.9749	1524.8502	2997.3078	3011.2172	3098.4156	3102.8647	3105.4457	3145.4288	3159.317	3184.4173
C1OC2C3OCOC1C23	C1O[C@H]2[C@H]3OCO[C@@H]1[C@@H]23	
InChI=1S/C6H8O3/c1-3-4-5(7-1)6(4)9-2-8-3/h3-6H,1-2H2	InChI=1S/C6H8O3/c1-3-4-5(7-1)6(4)9-2-8-3/h3-6H,1-2H2/t3-,4-,5+,6-/m0/s1
