17
gdb 30389	3.78503	1.1168	0.86704	4.275	84.03	-0.1819	-0.0038	0.1781	1297.0886	0.13688	-418.04268	-418.034163	-418.033219	-418.075666	32.178	
C	-0.0371412534	 1.3967029199	-0.0741627119	-0.315872
N	 0.0317098333	-0.0514298542	-0.0408632635	-0.335158
C	 0.6040053131	-0.612347175	 0.9713177878	 0.329881
C	 1.2129280271	 0.0577030671	 2.12835833	-0.23199
C	 1.7831039444	-0.6447149263	 3.1280507998	 0.011447
N	 1.8220477398	-2.0191964956	 3.1129194538	-0.375052
C	 1.2713660365	-2.7079922173	 2.0607471248	 0.500639
O	 1.4058173704	-4.0475095766	 2.2222223241	-0.430765
C	 0.6846716419	-2.0668106534	 1.0267540079	-0.363199
H	 0.9553064296	 1.877230175	-0.0810193002	 0.097691
H	-0.5525375959	 1.7098435661	-0.9872829564	 0.108203
H	-0.5946929935	 1.824034191	 0.7757972114	 0.09755
H	 1.210309015	 1.1369637466	 2.1908371243	 0.103669
H	 2.2404742962	-0.1823165753	 3.9942954364	 0.129052
H	 2.2471450343	-2.5448019108	 3.8578475105	 0.26851
H	 1.0071351669	-4.4881386796	 1.4643084455	 0.313235
H	 0.2548260744	-2.6266300915	 0.2040905856	 0.092159
103.6051	126.3023	180.9519	226.048	286.2634	345.7433	374.7181	376.0212	450.3303	463.7554	532.1491	603.0681	648.8306	709.3568	754.97	804.8687	844.7588	925.7035	940.1149	990.9126	1042.2776	1099.6725	1105.8808	1155.2524	1197.2554	1231.2575	1252.1817	1310.1597	1398.763	1429.3055	1446.3905	1489.2894	1504.0637	1550.1192	1639.8114	1665.2583	1723.7668	2950.3473	2992.038	3079.1675	3195.855	3204.353	3230.6553	3668.4643	3833.4723
CN=C1C=CNC(O)=C1	C[N]C1=C[C@H](NC=C1)O	
InChI=1S/C6H8N2O/c1-7-5-2-3-8-6(9)4-5/h2-4H,1H3,(H2,7,8,9)	InChI=1S/C6H9N2O/c1-7-5-2-3-8-6(9)4-5/h2-4,6,8-9H,1H3/t6-/m1/s1
