21
gdb 101710	2.86125	0.97452	0.89631	2.3689	75.42	-0.2344	0.0621	0.2965	1405.7184	0.179968	-461.326157	-461.315994	-461.31505	-461.362142	37.539	
C	 0.3529897898	 1.528735958	 0.4044163405	-0.413254
C	 0.0464375192	 0.0685009604	 0.0790426233	 0.11433
C	 0.6616456334	-0.3840453923	-1.2475187871	-0.066295
O	 2.0754692018	-0.339435531	-1.2144407058	-0.419423
O	 0.5948400841	-0.8340199686	 1.0591355843	-0.296824
C	-0.1863683938	-1.0242562748	 2.2060777074	 0.079629
C	 0.4580981857	-1.8279344131	 3.3054250262	-0.364052
C	 0.2709103414	-0.3336672648	 3.4677317197	 0.117643
O	 1.3707560978	 0.5192415636	 3.3983498763	-0.430351
H	 1.4244115168	 1.7167206395	 0.2911355575	 0.133589
H	-0.1811321677	 2.1875074275	-0.2882487065	 0.115693
H	 0.0523481716	 1.7845704462	 1.4227096214	 0.139558
H	-1.0416455886	-0.0873293584	 0.0304983694	 0.072045
H	 0.2992414463	-1.396492989	-1.4806406025	 0.092288
H	 0.3414188213	 0.2855903344	-2.0522992992	 0.108785
H	 2.3406791995	-0.9036931463	-0.4790481358	 0.290123
H	-1.2486099526	-1.1557227633	 2.0049799888	 0.092937
H	-0.1583189336	-2.514944114	 3.8749693542	 0.117061
H	 1.4723229953	-2.1665912513	 3.1201994051	 0.123942
H	-0.4679814783	 0.0281482612	 4.1756979151	 0.104154
H	 1.7532236705	 0.4009048862	 2.5190152178	 0.288422
23.94	97.3663	108.2442	184.3692	208.8197	235.0592	276.0023	316.8516	369.6527	392.9657	434.3085	436.5203	487.6965	618.8887	669.1873	778.4177	787.3641	811.9193	870.4046	920.4306	947.3006	998.0487	1022.9818	1053.2158	1069.135	1088.2607	1109.9959	1126.3836	1141.813	1154.352	1174.5723	1231.9516	1243.5147	1331.4071	1339.106	1351.8332	1388.633	1398.7876	1415.8662	1425.3749	1431.9134	1480.1102	1485.0898	1497.5938	1504.142	2987.1069	3002.4408	3043.798	3081.6578	3108.896	3113.6872	3131.2166	3135.6826	3161.5103	3223.2017	3765.6291	3802.2987
CC(CO)OC1CC1O	C[C@@H](CO)O[C@H]1C[C@H]1O	
InChI=1S/C6H12O3/c1-4(3-7)9-6-2-5(6)8/h4-8H,2-3H2,1H3	InChI=1S/C6H12O3/c1-4(3-7)9-6-2-5(6)8/h4-8H,2-3H2,1H3/t4-,5+,6-/m0/s1
