19
gdb 98214	2.71672	1.05889	0.86883	4.8192	72.45	-0.2592	-0.0329	0.2264	1383.0787	0.154745	-460.198732	-460.188037	-460.187093	-460.23579	36.998	
C	-0.5316218342	 1.6351879078	-0.2184303744	-0.406277
C	-0.0132095618	 0.1899723102	-0.1267488219	-0.212385
C	-1.1416298066	-0.8321701215	 0.1260157777	 0.394533
C	-2.0808680734	-0.5450594263	 1.2822524332	-0.479845
O	-1.2648055174	-1.8190092412	-0.5610599431	-0.291464
C	 0.7648608706	-0.204342364	-1.3812895538	 0.375185
O	 0.5978040202	 0.356433859	-2.442274212	-0.325471
C	 1.7921153424	-1.3186491037	-1.2773669477	-0.13518
O	 2.4230821082	-1.5493313651	-2.5011100877	-0.422112
H	 0.2998582803	 2.3227152935	-0.3903806415	 0.137602
H	-1.2239951913	 1.7424491504	-1.0563290057	 0.150061
H	-1.0355510154	 1.9352943985	 0.7028989591	 0.120634
H	 0.6606355672	 0.103168704	 0.7389212723	 0.111616
H	-1.5361342197	-0.2079547074	 2.1697464737	 0.137597
H	-2.7758877826	 0.255587913	 1.0064554004	 0.157153
H	-2.6542205334	-1.4448256094	 1.5081634151	 0.151412
H	 2.523505745	-1.0317285895	-0.5012580913	 0.105267
H	 1.2754064937	-2.2183374413	-0.9104410565	 0.137649
H	 2.0108797481	-0.9253060372	-3.1192701858	 0.294024
29.876	54.9354	88.5409	143.4877	179.5961	197.6404	200.4087	282.458	328.5724	337.9472	387.6174	432.4974	478.5716	565.9766	586.2731	706.8201	751.5276	842.7395	957.0836	963.8848	976.917	1012.8408	1074.6597	1099.357	1134.0694	1158.8884	1189.1961	1252.2065	1286.1734	1306.4058	1345.7196	1383.695	1409.9833	1446.6071	1462.5023	1474.6584	1491.7428	1495.7279	1499.8012	1793.9618	1808.2206	2959.1648	3006.0818	3014.8058	3043.2989	3058.4442	3106.8663	3130.5781	3139.4542	3154.3276	3692.4121
CC(C(C)=O)C(=O)CO	C[C@@H](C(=O)C)C(=O)CO	
InChI=1S/C6H10O3/c1-4(5(2)8)6(9)3-7/h4,7H,3H2,1-2H3	InChI=1S/C6H10O3/c1-4(5(2)8)6(9)3-7/h4,7H,3H2,1-2H3/t4-/m0/s1
