19
gdb 99476	1.81172	1.28531	0.9631	1.5023	78.63	-0.2383	-0.0293	0.209	1349.9739	0.154249	-422.994235	-422.983311	-422.982367	-423.031566	37.536	
C	 0.3612192513	 1.6132728614	-0.3585468722	-0.382332
C	 1.0550512327	 0.313453499	-0.7556963329	-0.27941
C	 0.088989384	-0.7899813354	-1.1388145001	 0.355134
O	-1.1110892232	-0.6672355377	-1.1288504932	-0.298084
C	 0.7293805954	-2.1458930131	-1.5728653118	-0.127728
O	 1.7499808234	-1.9574471172	-2.5400864737	-0.241107
C	 1.2393957713	-1.6529031046	-3.8260225451	-0.240826
C	 1.2910330095	-2.8170132545	-0.4064765642	 0.284736
C	 1.7195140316	-3.341031504	 0.5862134561	-0.413828
H	-0.2523809348	 1.9966032096	-1.1781814228	 0.1284
H	-0.3015584756	 1.4579684441	 0.4966410648	 0.132424
H	 1.0973312908	 2.3766007538	-0.0921880815	 0.112252
H	 1.7466067217	 0.4566003163	-1.5948988484	 0.136927
H	 1.6841134245	-0.0760048314	 0.0556591068	 0.140287
H	-0.0937528944	-2.7488467659	-1.9856897285	 0.113642
H	 0.586261552	-2.4556938498	-4.1976802376	 0.119641
H	 0.6705691976	-0.7117533877	-3.838552017	 0.117772
H	 2.1003088534	-1.5546788156	-4.4901332043	 0.136848
H	 2.1031278587	-3.8196209273	 1.4535808256	 0.205252
33.6147	51.849	96.0551	129.8525	159.1266	165.6402	197.7748	226.3454	288.6895	358.2675	378.6036	461.4728	534.9623	573.9392	625.7971	665.2851	677.1355	748.2579	802.2385	984.8599	992.2711	1003.3516	1073.8259	1093.1066	1127.9269	1148.3768	1182.3402	1217.6977	1264.0049	1282.6703	1354.5	1370.9008	1415.1206	1447.749	1478.6448	1488.2464	1493.8502	1498.6578	1507.3795	1817.8984	2238.03	2986.5617	2994.6806	3036.7012	3039.2847	3050.9265	3064.7861	3122.3454	3125.4383	3128.5891	3502.016
CCC(=O)C(OC)C#C	CCC(=O)[C@@H](OC)C#C	
InChI=1S/C7H10O2/c1-4-6(8)7(5-2)9-3/h2,7H,4H2,1,3H3	InChI=1S/C7H10O2/c1-4-6(8)7(5-2)9-3/h2,7H,4H2,1,3H3/t7-/m0/s1
