18
gdb 14671	11.67295	0.5525	0.54106	2.8598	79.25	-0.245	-0.0257	0.2194	2013.2627	0.150915	-347.794746	-347.784858	-347.783914	-347.831637	32.787	
C	 0.0327121517	 1.5619178028	-0.0795317562	-0.363885
C	 0.0093423636	 0.032142438	 0.0929974745	-0.313757
C	-1.341653065	-0.5147684703	 0.1727542393	 0.130817
C	-2.4682496919	-0.9355666733	 0.2415272726	 0.008759
C	-3.8167837097	-1.4840201134	 0.3141074715	-0.362372
C	-3.9133315107	-2.9081977802	-0.2832386206	-0.259089
C	-5.3385239985	-3.4121098514	-0.3032193068	 0.156021
O	-5.7043569588	-4.4701975696	 0.137674458	-0.232721
H	 1.0637022521	 1.9239730468	-0.1334649277	 0.115077
H	-0.4850936994	 1.8577866641	-0.9959724463	 0.127252
H	-0.4625342049	 2.0550825208	 0.7612526909	 0.128382
H	 0.543349728	-0.4383937973	-0.7426427576	 0.12847
H	 0.5671960495	-0.2427044847	 0.9974665001	 0.129328
H	-4.1544065005	-1.5078994954	 1.3582647585	 0.140106
H	-4.5163003109	-0.8227446007	-0.2153102565	 0.131239
H	-3.556132579	-2.8755638773	-1.3214778527	 0.13242
H	-3.289247294	-3.6151419853	 0.2681232019	 0.133631
H	-6.0646670414	-2.7087950838	-0.7778812929	 0.070322
25.2246	54.2275	62.2552	93.3772	148.9212	197.6219	271.7853	281.3396	373.8482	442.6011	505.8118	541.5794	740.0345	756.4	787.2286	847.8862	959.0538	994.2279	1075.0015	1079.6526	1093.7767	1105.6999	1168.6241	1198.0585	1262.8345	1287.3756	1304.2229	1352.4224	1363.7441	1410.3665	1429.3202	1461.9024	1476.4164	1482.4574	1495.4536	1505.7747	1838.6933	2369.1506	2843.2926	3011.9846	3019.8184	3028.7404	3044.7349	3045.5362	3046.5345	3117.3333	3118.0143	3123.8071
CCC#CCCC=O	CCC#CCCC=O	
InChI=1S/C7H10O/c1-2-3-4-5-6-7-8/h7H,2,5-6H2,1H3	InChI=1S/C7H10O/c1-2-3-4-5-6-7-8/h7H,2,5-6H2,1H3
