19
gdb 81657	2.85526	1.57667	1.28278	0.4337	75.83	-0.2337	0.0116	0.2453	1033.3326	0.160679	-422.999499	-422.991781	-422.990837	-423.031255	30.968	
O	 0.0218521187	 1.3344150907	-0.103262914	-0.442094
C	 0.034728643	-0.0740365704	 0.0148086056	 0.11792
C	 0.116708287	-0.5658605761	 1.495776707	 0.087917
C	-1.4324399359	-0.4892190755	 1.5434039472	-0.271398
C	-1.4337526386	-0.5986827571	-0.0131328128	-0.069678
C	-1.5119444933	-2.0235391219	-0.4892539009	-0.079469
C	-0.902352944	-3.0524912892	 0.1008240413	-0.072931
C	-0.0676435372	-3.0085358389	 1.3617914742	-0.125679
O	 0.7066122785	-1.8451008248	 1.6162377165	-0.270543
H	 0.9018139606	 1.6587579364	 0.1166881947	 0.284159
H	 0.740245403	-0.5489810223	-0.6785187459	 0.067312
H	 0.6690502497	 0.087557263	 2.1794491632	 0.072222
H	-1.976966445	-1.2453073441	 2.1110880006	 0.104097
H	-1.7460894984	 0.5037613761	 1.8694154542	 0.115815
H	-2.129401571	 0.0457961789	-0.5526929805	 0.075426
H	-2.0886326878	-2.2086292631	-1.3914935962	 0.090351
H	-1.0242683598	-4.0491849194	-0.3175077183	 0.093074
H	-0.7175837767	-3.2246151027	 2.226969493	 0.107748
H	 0.668471637	-3.8185589496	 1.3276101712	 0.115752
135.0724	207.867	256.1549	280.2415	303.3254	345.6047	387.4563	430.5774	490.936	564.2138	690.5343	746.3685	799.1366	850.569	868.0563	892.1004	939.7516	953.7073	981.0522	994.5961	1026.8547	1058.7012	1074.2208	1100.5211	1121.3109	1152.7701	1185.0411	1206.6741	1243.4862	1257.3793	1266.0207	1284.2227	1303.6165	1341.4375	1361.788	1395.6523	1411.5519	1413.3554	1467.8103	1494.6868	1715.3435	2956.007	3025.1466	3048.446	3064.4673	3081.5031	3097.2956	3137.6136	3144.9084	3169.7883	3804.9065
OC1C2CC1C=CCO2	O[C@H]1[C@H]2C[C@@H]1C=CCO2	
InChI=1S/C7H10O2/c8-7-5-2-1-3-9-6(7)4-5/h1-2,5-8H,3-4H2	InChI=1S/C7H10O2/c8-7-5-2-1-3-9-6(7)4-5/h1-2,5-8H,3-4H2/t5-,6+,7+/m0/s1
