16
gdb 46221	2.75441	1.36967	1.09679	2.6288	77.33	-0.2496	0.0117	0.2613	1119.0707	0.123235	-400.693591	-400.685346	-400.684402	-400.726574	31.048	
N	-0.0229085206	 1.2153650966	-0.1796934605	-0.54977
C	-0.0111921075	-0.0184451319	 0.0314252795	 0.400295
O	 1.0149639171	-0.8664395061	 0.4236150159	-0.267129
C	 0.1167827845	-2.0208721525	 0.4573293586	-0.149568
C	-1.0222964489	-1.1151464709	 0.0025683404	 0.190269
C	-2.4634277893	-1.0617170663	 0.3936146461	-0.345071
C	-2.0942775157	-1.392886358	-1.0406825781	-0.274819
C	-2.3497712553	-0.4743392243	-2.1095565729	 0.353842
C	-2.5760959496	 0.2754853751	-3.0210390754	-0.441719
H	 0.8990142111	 1.6304700832	-0.039793478	 0.230998
H	 0.4407703402	-2.7926251295	-0.2459558177	 0.125367
H	 0.040802607	-2.4277542371	 1.4696730256	 0.124457
H	-2.8595806613	-1.8636100376	 1.0073333071	 0.126986
H	-2.874877704	-0.0771048091	 0.5835382287	 0.15483
H	-2.1810544238	-2.4432900291	-1.3092886404	 0.120846
H	-2.7637751738	 0.9539205174	-3.8158161189	 0.200186
94.0713	100.1829	169.9829	235.2284	241.7945	320.7683	456.0427	470.386	512.9211	601.4629	636.2862	657.5415	718.3677	769.0625	784.7806	846.9576	871.5563	901.0818	959.0191	974.0326	993.4384	1067.5048	1081.8648	1094.3216	1128.4838	1146.113	1183.7733	1245.5442	1303.5863	1365.5282	1427.3446	1483.6853	1514.2657	1830.556	2244.6582	3053.0611	3110.8064	3132.4205	3137.434	3234.5892	3488.0686	3505.4015
N=C1OCC11CC1C#C	[NH][C]1OC[C@]21C[C@H]2C#C	
InChI=1S/C7H7NO/c1-2-5-3-7(5)4-9-6(7)8/h1,5,8H,3-4H2	InChI=1S/C7H7NO/c1-2-5-3-7(5)4-9-6(7)8/h1,5,8H,3-4H2/t5-,7-/m1/s1
