23
gdb 117691	4.04081	0.74434	0.72879	1.4861	88.36	-0.2552	0.0442	0.2994	1688.9452	0.201516	-388.2681	-388.256711	-388.255766	-388.304388	42.023	
C	-0.1316433041	 1.6358634282	-0.1505021815	-0.382684
C	-0.0144390026	 0.1166517835	 0.0020279955	-0.179243
C	 0.7761639277	-0.530861877	-1.1400889709	-0.188216
C	 0.7748310766	-2.0762456792	-1.1439750234	 0.334464
C	 1.3763002693	-2.6650153605	 0.1329461094	-0.402182
O	-0.5633507617	-2.5708280181	-1.1954168537	-0.45088
C	 1.567513399	-2.5574218417	-2.3950651447	-0.409186
C	 1.5771915106	-4.0012945127	-2.5873059361	 0.325572
C	 1.5926576309	-5.191775353	-2.7521754148	-0.446908
H	 0.8549075856	 2.1128867164	-0.1686208574	 0.112074
H	-0.6430814394	 1.904378536	-1.0819161297	 0.110934
H	-0.6972703141	 2.0753247053	 0.6769978887	 0.112608
H	 0.4640345177	-0.1128620829	 0.9611002767	 0.099048
H	-1.0108413442	-0.3366376616	 0.0387232452	 0.110083
H	 0.3548500601	-0.1919077505	-2.098887034	 0.077341
H	 1.814185538	-0.1722028276	-1.1255206651	 0.091712
H	 0.756954443	-2.4134777546	 0.9962155937	 0.126415
H	 1.4262437119	-3.7531687558	 0.0535778152	 0.136889
H	 2.3858183778	-2.2778417621	 0.3012319994	 0.107876
H	-0.9551853817	-2.294316386	-2.0311667356	 0.276271
H	 1.1361530346	-2.0760831602	-3.2844325804	 0.115269
H	 2.5983251577	-2.1871603734	-2.325744291	 0.129655
H	 1.6012045672	-6.2437305822	-2.8954849455	 0.193086
63.1932	89.0433	109.9411	113.6413	192.4603	231.715	247.5218	293.5909	309.8141	325.3208	337.5631	351.6693	402.3614	407.0536	461.394	615.4862	634.9279	654.8793	750.6797	780.5295	856.0242	881.084	903.4427	948.1701	965.9443	987.3555	1044.4542	1052.6172	1101.3953	1143.7469	1173.7013	1182.4305	1242.3867	1269.7723	1313.2957	1329.6055	1338.2214	1388.7462	1396.7595	1413.4762	1427.8059	1462.1399	1479.6747	1487.2943	1495.4324	1499.5486	1507.2932	1512.9498	2238.1955	2988.7996	3006.6501	3026.9804	3033.8275	3040.7556	3047.4037	3052.2188	3073.6527	3098.5024	3101.113	3125.6884	3137.1598	3506.4055	3800.3182
CCCC(C)(O)CC#C	CCC[C@@](C)(O)CC#C	
InChI=1S/C8H14O/c1-4-6-8(3,9)7-5-2/h1,9H,5-7H2,2-3H3	InChI=1S/C8H14O/c1-4-6-8(3,9)7-5-2/h1,9H,5-7H2,2-3H3/t8-/m0/s1
