17
gdb 89792	2.13225	1.53223	1.01263	3.3892	69.02	-0.2526	-0.0319	0.2208	1162.6127	0.133406	-458.925179	-458.916404	-458.91546	-458.959346	31.972	
O	 0.4872304602	 0.7534808781	-0.7705368331	-0.423448
C	-0.0129346539	-0.2618607578	 0.0530601593	 0.152163
C	-0.0169003997	-0.0751091501	 1.5963502031	-0.378176
C	-1.4017837401	-0.7172654097	 1.6095055151	 0.451634
C	-1.9394931514	-1.7697301374	 2.4706813514	-0.261271
O	-2.4164212427	-0.4181080789	 2.55035708	-0.263952
C	-1.569676685	-0.5627032307	 0.0857444005	-0.264518
C	-2.4194388146	 0.6242523511	-0.2894931711	 0.186378
O	-3.2591004503	 0.6138630492	-1.1506686048	-0.250207
H	 0.1843866736	 1.6064634857	-0.4430287222	 0.287401
H	 0.5184429456	-1.1699213558	-0.2394993661	 0.112922
H	 0.784233953	-0.5430900168	 2.1720207958	 0.120566
H	-0.0760521719	 0.9847397302	 1.8722177226	 0.114895
H	-2.6481773857	-2.4913084271	 2.0669791711	 0.126946
H	-1.3618022041	-2.1088609577	 3.3294870075	 0.122922
H	-1.9059270389	-1.4329454958	-0.4799298248	 0.097445
H	-2.2214617439	 1.5511419234	 0.2986784556	 0.068301
57.751	70.6152	160.1481	205.9058	254.1505	308.5273	331.687	405.331	458.8962	479.5713	497.8446	573.7917	728.1864	845.1237	850.8502	880.0987	916.2877	979.296	998.8776	1027.6003	1081.9363	1115.6714	1129.1888	1130.094	1165.8222	1183.3238	1195.9636	1238.8993	1254.8963	1286.7476	1322.2851	1424.2062	1436.6419	1446.3285	1476.5489	1533.2753	1832.7931	2846.3912	3042.1116	3083.5475	3089.297	3107.1092	3115.1416	3173.1529	3816.3925
OC1CC2(CO2)C1C=O	O[C@H]1C[C@]2(CO2)[C@H]1C=O	
InChI=1S/C6H8O3/c7-2-4-5(8)1-6(4)3-9-6/h2,4-5,8H,1,3H2	InChI=1S/C6H8O3/c7-2-4-5(8)1-6(4)3-9-6/h2,4-5,8H,1,3H2/t4-,5-,6-/m0/s1
