18
gdb 12449	2.99741	2.02508	1.37539	2.8674	73.06	-0.2273	-0.0117	0.2156	924.4954	0.155538	-347.836311	-347.828925	-347.82798	-347.868093	28.239	
O	-0.0198973879	-0.0999827248	-0.0102769291	-0.302496
C	 0.0015756193	 1.1086608287	-0.0103416275	 0.392448
C	-1.2789963598	 1.9341244203	 0.0025891642	-0.286273
C	-1.5003857403	 2.8080204504	 1.255604229	-0.192028
C	-0.4154286281	 3.8733262326	 1.5081618244	-0.247756
C	 0.9000832853	 3.3108927994	 1.9973069544	-0.043386
C	 1.65710587	 2.4430671716	 1.3269768039	-0.062776
C	 1.3229891387	 1.8809402507	-0.0409882317	-0.339847
H	-1.2616335028	 2.589780408	-0.8798582463	 0.107911
H	-2.1122074676	 1.2362284857	-0.1148959978	 0.118659
H	-2.4682752935	 3.3090131059	 1.1371916233	 0.102227
H	-1.5866543055	 2.1640418739	 2.1381618383	 0.11406
H	-0.2584775382	 4.446472808	 0.5815914702	 0.106387
H	-0.7940192173	 4.5897151608	 2.2435293396	 0.103965
H	 1.2375537571	 3.6399988776	 2.976861717	 0.092013
H	 2.5753423682	 2.080153849	 1.779244297	 0.100026
H	 2.1004680041	 1.1918534611	-0.3744337343	 0.122081
H	 1.2466944283	 2.6957096612	-0.7741240447	 0.114784
91.3411	105.6607	248.5989	301.3282	322.1783	419.9816	474.6948	509.0026	612.9267	667.8713	709.3166	796.3626	854.802	858.885	910.2508	947.316	960.2773	991.5991	1015.8103	1050.5153	1081.5417	1144.0588	1180.7404	1213.9718	1251.3864	1263.5649	1283.0623	1302.3547	1354.0821	1360.3737	1379.6452	1411.646	1466.4713	1476.2658	1487.5552	1490.9828	1716.2528	1812.5342	2993.5314	3008.9324	3018.8263	3030.8388	3074.2654	3074.871	3099.1408	3118.1415	3151.6924	3177.7152
O=C1CCCC=CC1	O=C1CCCC=CC1	
InChI=1S/C7H10O/c8-7-5-3-1-2-4-6-7/h1,3H,2,4-6H2	InChI=1S/C7H10O/c8-7-5-3-1-2-4-6-7/h1,3H,2,4-6H2
