18
gdb 108756	2.45106	1.26483	0.88284	4.9813	75.76	-0.2304	-0.0039	0.2265	1307.6017	0.147266	-439.134424	-439.125325	-439.124381	-439.168555	33.211	
C	-0.3366455907	 1.4935087329	-0.2120356635	-0.490657
C	-0.0499260358	 0.0686577265	 0.0980548197	 0.309249
O	 0.0243403201	-0.7432847802	-1.0349636451	-0.238088
C	 0.2971056397	-2.0390759703	-0.6355995797	 0.421511
O	 0.4125122569	-2.9292384942	-1.4216133986	-0.322705
C	 0.3990880165	-2.0418148623	 0.8835598519	-0.4564
C	 0.1472301272	-0.6015955817	 1.2379698799	 0.165776
C	 0.1570858675	-0.0837551141	 2.6399986522	-0.282574
N	 1.4448760175	-0.3853216897	 3.2862685303	-0.503041
H	 2.1769707277	 0.1770604049	 2.8618576757	 0.226979
H	 1.4087428618	-0.1205056661	 4.2660671841	 0.229842
H	 1.3820604251	-2.4053486661	 1.1997806821	 0.163411
H	 0.4272327208	 1.9011043101	-0.8834019313	 0.146471
H	-1.3001312838	 1.5898183993	-0.7249228918	 0.148006
H	-0.3647364626	 2.0962551833	 0.6969449701	 0.135094
H	-0.3381088675	-2.7389899403	 1.3004451518	 0.146454
H	-0.1102317892	 0.9851532114	 2.643904486	 0.088752
H	-0.6188086813	-0.5975770431	 3.2247648662	 0.11192
74.578	107.5272	159.6607	187.4894	213.993	244.6544	290.9523	327.3686	443.5344	528.9923	542.8827	586.5384	617.2236	629.5658	787.3783	846.9441	853.935	952.1179	968.6945	995.2729	1036.1278	1063.109	1068.1281	1131.8439	1158.0828	1201.6241	1215.0442	1249.6627	1319.7412	1345.5703	1418.6976	1423.8766	1442.2316	1468.5222	1484.291	1501.9182	1654.4787	1758.02	1902.3063	2968.182	3018.7454	3037.7055	3043.6038	3084.9072	3089.6277	3141.1599	3486.8726	3569.1367
C[C-]1OC(=O)C=C1C[NH3+]	CC1=C(CC(=O)O1)CN	
InChI=1S/C6H8NO2/c1-4-5(3-7)2-6(8)9-4/h2H,3,7H2,1H3/q-1/p+1	InChI=1S/C6H9NO2/c1-4-5(3-7)2-6(8)9-4/h2-3,7H2,1H3
