12
gdb 132022	2.42538	1.90442	1.06768	6.7136	61.37	-0.2347	-0.0416	0.1931	994.5466	0.077531	-513.945423	-513.938045	-513.937101	-513.977377	27.319	
N	 0.0859226545	 1.3780363968	 0.180622328	-0.574028
C	-0.0102276088	 0.020602654	 0.0646724347	 0.326717
C	-1.1561488176	-0.7011325735	 0.0239665287	 0.020276
F	-2.3179354817	-0.0324710645	 0.0286767076	-0.075284
C	-1.1591105344	-2.1483109584	-0.0251824552	 0.320823
O	-2.1515031217	-2.8378990866	-0.0637249839	-0.344953
N	 0.1531496814	-2.7219397882	-0.0341802015	-0.299761
C	 1.1696078495	-1.9727209277	-0.0061922077	 0.117575
O	 1.1932831932	-0.6063337746	 0.0440624211	-0.203911
H	 0.9240078501	 1.7930679548	-0.1986586038	 0.273614
H	-0.7661722517	 1.8792988095	-0.0202335978	 0.282346
H	 2.1872249774	-2.3511878118	-0.0185117404	 0.156587
100.2348	183.7065	267.4334	287.6637	323.9669	362.0316	502.4809	506.8056	510.3675	545.6786	578.9016	665.0271	702.5385	783.2687	879.8785	951.871	984.9671	1003.9342	1179.8135	1242.1596	1317.6824	1407.9311	1444.5671	1623.3176	1666.4174	1741.0643	1802.2988	3193.246	3579.6767	3693.2732
NC1=C(F)C(=O)N=CO1	Nc1c(F)c(=O)nco1	
InChI=1S/C4H3FN2O2/c5-2-3(6)9-1-7-4(2)8/h1H,6H2	InChI=1S/C4H3FN2O2/c5-2-3(6)9-1-7-4(2)8/h1H,6H2
