17
gdb 108603	2.86739	1.29174	0.90584	6.1129	72.83	-0.2601	-0.0295	0.2305	1233.031	0.134753	-459.013415	-459.004133	-459.003189	-459.049015	32.239	
C	 0.1743866331	 1.5860129877	 0.0282545588	-0.499601
C	-0.0079544008	 0.1033544097	 0.0385766175	 0.031941
C	-1.0860115047	-0.6903362166	-0.0087906993	 0.174854
C	-2.5494659999	-0.4021458481	-0.0969255931	-0.175415
O	-2.8098830498	 0.98357997	-0.0204388432	-0.403493
C	-0.6299003528	-2.1282065433	 0.0342261478	-0.166745
O	 0.7878712566	-2.0832014534	 0.1066100991	-0.233413
C	 1.1953419506	-0.7714624381	 0.1131290768	 0.416068
O	 2.3510179893	-0.4570632595	 0.1688641227	-0.349439
H	 0.8534842299	 1.8697816866	-0.7829816323	 0.14048
H	-0.772727984	 2.1076287662	-0.0854213867	 0.152134
H	 0.6584836927	 1.9102711106	 0.9563319186	 0.140558
H	-2.930178523	-0.8318327846	-1.0410433627	 0.110827
H	-3.0607985083	-0.9517263747	 0.7137771881	 0.108032
H	-3.7568259546	 1.1175127806	-0.118647322	 0.296268
H	-1.0180312139	-2.6645730274	 0.910580513	 0.128739
H	-0.9261471904	-2.6920671256	-0.8606177929	 0.128204
21.0154	74.7563	125.6431	206.1512	215.3805	238.325	273.0802	282.4776	387.9573	476.5057	527.0202	612.8716	683.2655	768.431	768.9945	901.0211	954.563	1051.1587	1064.0187	1069.1496	1084.7155	1106.955	1111.3092	1162.6914	1206.35	1253.9367	1267.379	1316.2517	1375.5898	1412.9429	1469.9979	1482.9459	1485.0416	1499.7942	1506.2594	1743.3292	1865.0069	2938.8496	2951.565	3012.0214	3041.8085	3042.6213	3088.1504	3184.4586	3837.8783
CC1=C(CO)COC1=O	CC1=C(CO)COC1=O	
InChI=1S/C6H8O3/c1-4-5(2-7)3-9-6(4)8/h7H,2-3H2,1H3	InChI=1S/C6H8O3/c1-4-5(2-7)3-9-6(4)8/h7H,2-3H2,1H3
