16
gdb 8929	3.9902	1.18146	1.09635	4.9092	61.15	-0.2707	0.0234	0.294	1091.9102	0.130361	-417.053002	-417.044146	-417.043201	-417.086471	31.635	
N	 0.2253732739	 1.4839979362	-0.0944130264	-0.537753
C	 0.0618869476	 0.0305158739	-0.027339838	 0.006093
C	 0.6969075481	-0.600000638	-1.2658342173	-0.08863
O	 0.0489554641	-0.0431779214	-2.4008849348	-0.426672
C	 0.8052314523	-0.4528868439	 1.246422005	-0.017963
O	 2.1014859704	 0.0852578587	 1.2945576353	-0.411698
C	 0.0182445435	-0.0755283414	 2.4464551596	 0.265316
N	-0.6089310628	 0.243414653	 3.363308894	-0.324184
H	 0.0648967685	 1.7832779542	-1.0508933146	 0.253032
H	-0.4556382736	 1.9510673489	 0.4957674267	 0.251087
H	-0.9882896626	-0.2906052655	 0.0260324977	 0.096806
H	 1.7730487447	-0.3829611413	-1.2667575192	 0.113994
H	 0.5642392743	-1.6913229942	-1.2241037148	 0.099395
H	 0.5575107785	-0.2695444299	-3.1845865726	 0.297028
H	 0.8936926403	-1.5453785483	 1.2378735793	 0.129075
H	 1.9899681028	 0.989269319	 0.9471984501	 0.295074
83.8927	102.9964	148.1183	219.5378	254.4583	269.7159	308.5079	336.7324	375.6568	437.6658	526.7969	595.4906	638.3731	743.1486	865.9045	891.6362	926.2948	976.3057	1025.3173	1084.383	1098.3159	1119.0124	1204.6238	1245.6532	1265.6533	1302.2645	1324.0808	1369.4057	1393.8708	1455.2211	1461.3193	1518.9269	1647.525	2351.2934	2991.5549	3002.0286	3046.8902	3055.2605	3507.6377	3587.2212	3623.2513	3839.8713
NC(CO)C(O)C#N	N[C@@H](CO)[C@@H](O)C#N	
InChI=1S/C4H8N2O2/c5-1-4(8)3(6)2-7/h3-4,7-8H,2,6H2	InChI=1S/C4H8N2O2/c5-1-4(8)3(6)2-7/h3-4,7-8H,2,6H2/t3-,4-/m0/s1
