16
gdb 30518	3.10416	1.49706	1.01627	3.0101	79.44	-0.1972	-0.0324	0.1648	1123.4505	0.124942	-434.078105	-434.069729	-434.068785	-434.111952	30.812	
C	 0.2083098018	 1.4173464412	-0.3046929869	-0.296801
N	 0.0583789725	 0.0091226117	-0.0035428032	-0.312559
C	 0.4565050994	-0.5466741855	 1.0675326759	 0.322006
N	 0.2332969879	-1.9133726511	 1.198202686	-0.358982
C	 0.6088006044	-2.6535710776	 2.3011054791	-0.058525
C	 1.2233401597	-2.0645434287	 3.3242749019	-0.013179
O	 1.4997835836	-0.7127127311	 3.3127796093	-0.241844
C	 1.1540907006	 0.0814728324	 2.246522859	 0.339143
N	 1.4220547202	 1.3194687425	 2.265219426	-0.50619
H	 1.2571640188	 1.7329637135	-0.3180851052	 0.13189
H	-0.2272384481	 1.5991266884	-1.2917903405	 0.104022
H	-0.2962139521	 2.0576022904	 0.4270443724	 0.13186
H	-0.2328194643	-2.3401005401	 0.4134421471	 0.258607
H	 0.383884403	-3.7099664832	 2.2915981083	 0.135854
H	 1.5567691578	-2.5478640109	 4.2279359422	 0.136037
H	 1.8923520649	 1.5597978781	 3.1399259884	 0.228659
28.8215	127.2803	143.8649	244.0255	260.1342	389.3136	399.7704	472.0277	509.0401	515.6247	564.6026	589.1275	693.1261	714.5179	783.2617	846.1891	900.8249	929.1474	974.2669	1050.769	1088.9157	1105.8408	1143.4872	1153.163	1240.0488	1267.2657	1374.0608	1408.7048	1437.9557	1476.1588	1493.5083	1494.941	1717.0455	1728.4089	1742.5528	3022.1769	3083.0523	3093.7792	3242.7847	3277.4506	3473.1652	3643.0261
CN=C1NC=COC1=N	C[N]C1=C(OC=CN1)[NH]	
InChI=1S/C5H7N3O/c1-7-5-4(6)9-3-2-8-5/h2-3,6H,1H3,(H,7,8)	InChI=1S/C5H7N3O/c1-7-5-4(6)9-3-2-8-5/h2-3,6H,1H3,(H,7,8)
