17
gdb 53364	3.20817	0.93583	0.85419	3.8326	78.73	-0.2303	0.0307	0.261	1421.1257	0.13672	-418.003397	-417.994403	-417.993459	-418.038876	31.724	
C	-0.3158645778	 1.3780272917	 0.1193009217	-0.497201
C	-0.1251472476	-0.0630004241	 0.0465876042	 0.021047
C	 0.0320161522	-1.2558561499	-0.0086493072	 0.127306
C	 0.1952060366	-2.7087544413	-0.0921414628	-0.190506
C	 0.8010543526	-3.3469860244	 1.1836564599	-0.088806
O	-0.3314230274	-3.7245726087	 1.9696651522	-0.241423
C	-1.4373740147	-3.7978827027	 1.1659077937	 0.462417
N	-2.6004382902	-4.1392040303	 1.5228486856	-0.591652
N	-1.0655457183	-3.4507446245	-0.126893351	-0.316243
H	 0.330474477	 1.8243224018	 0.8827447373	 0.153819
H	-0.0840316979	 1.8591130663	-0.836998083	 0.152273
H	-1.3516325144	 1.6253681651	 0.3755666388	 0.157077
H	 0.8076723277	-2.9604677974	-0.9647846819	 0.116258
H	 1.3823366913	-4.240108822	 0.9277185927	 0.118667
H	 1.4160233017	-2.6537081673	 1.7577765385	 0.132463
H	-2.6071007105	-4.3937159839	 2.5078620788	 0.223515
H	-1.8143104204	-3.0981610083	-0.7041294475	 0.260989
28.7926	60.1913	98.6252	175.2435	188.3778	305.6082	326.5038	433.7376	453.9167	528.5205	581.6604	702.7738	723.0448	744.7751	794.4032	828.3313	916.8298	944.721	1012.1007	1042.1714	1051.6814	1054.516	1109.9417	1114.8225	1171.0902	1233.0213	1244.7236	1314.3222	1366.4138	1403.4498	1413.8054	1426.3872	1476.4655	1476.9781	1513.1076	1789.8225	2367.1884	3030.7249	3036.4571	3049.1456	3093.2048	3094.3488	3133.5228	3528.2243	3629.4941
CC#CC1COC(=N)N1	CC#C[C@H]1CO[C]([NH])N1	
InChI=1S/C6H8N2O/c1-2-3-5-4-9-6(7)8-5/h5H,4H2,1H3,(H2,7,8)	InChI=1S/C6H8N2O/c1-2-3-5-4-9-6(7)8-5/h5H,4H2,1H3,(H2,7,8)/t5-/m0/s1
