16
gdb 19255	3.25785	1.82865	1.42449	3.1129	64.52	-0.2426	-0.0285	0.2141	893.9561	0.128978	-383.706662	-383.699039	-383.698095	-383.739088	27.737	
C	-0.0934813942	 1.5631595797	-0.0170734936	-0.415678
C	 0.0468138465	 0.0480831666	 0.0043033851	-0.02384
C	 0.6909819198	-0.6310229318	-1.215227526	 0.023667
O	 2.0560214928	-0.1986860157	-1.27608767	-0.241775
C	 1.7216695893	-1.2738150372	-0.3900512432	-0.000671
C	 1.1776056245	-0.6393345754	 0.9038972893	-0.13518
C	 2.1272631223	 0.2581238906	 1.6548632766	 0.149798
O	 2.1143613017	 0.3980073279	 2.8533049389	-0.257052
H	 0.8320046229	 2.0364364392	-0.3548904832	 0.136638
H	-0.8963862232	 1.8637631179	-0.6986516244	 0.1197
H	-0.3365624231	 1.951733531	 0.9768876967	 0.132121
H	-0.9082434027	-0.4271170653	 0.2470247679	 0.092894
H	 0.2331521153	-0.9400224698	-2.1477007799	 0.110085
H	 2.2568312715	-2.2075715715	-0.5148312854	 0.115339
H	 0.7387798882	-1.3569982115	 1.5997277303	 0.098315
H	 2.8556967385	 0.8025875152	 1.017842951	 0.09564
54.4453	127.8831	213.2111	238.0019	239.1713	363.0732	441.7508	511.5437	600.9031	708.7689	794.7936	839.6097	863.5615	872.1748	934.1126	989.1943	1004.2558	1045.3931	1053.1473	1074.727	1125.2593	1148.9239	1200.2292	1230.2873	1242.5639	1275.8859	1295.0186	1359.0484	1385.1742	1409.9234	1428.335	1492.5424	1504.7223	1817.237	2913.8341	3038.1671	3066.1866	3101.8558	3103.0024	3123.9956	3183.5781	3199.0911
CC1C2OC2C1C=O	C[C@H]1[C@H]2O[C@H]2[C@H]1C=O	
InChI=1S/C6H8O2/c1-3-4(2-7)6-5(3)8-6/h2-6H,1H3	InChI=1S/C6H8O2/c1-3-4(2-7)6-5(3)8-6/h2-6H,1H3/t3-,4+,5-,6+/m1/s1
