25
gdb 112730	2.16812	1.21361	1.00909	1.5553	89.19	-0.2371	0.079	0.3162	1396.0028	0.226302	-389.496668	-389.485692	-389.484748	-389.532545	40.825	
C	-0.0909804468	 1.5528943844	-0.3183267844	-0.38193
C	 0.0378474953	 0.0594298145	 0.0031878546	-0.202417
C	-1.3186073353	-0.6158348955	 0.0992978248	 0.147218
O	-2.0428235096	-0.5938017498	-1.1531483694	-0.322942
C	-2.4959188617	-1.9527883324	-0.9605123173	 0.145548
C	-2.450595389	-2.7698545739	-2.2354855204	-0.413786
C	-1.4772017737	-2.1651779363	 0.204203793	 0.215429
C	-0.2310467006	-2.9688854345	-0.1689687115	-0.445187
C	-2.0732392142	-2.6762195773	 1.5132716497	-0.45756
H	 0.8921852605	 2.0232824533	-0.4141991343	 0.108374
H	-0.6317644411	 1.6951479544	-1.2581228018	 0.137973
H	-0.6408599228	 2.0818340056	 0.4680187019	 0.111827
H	 0.6390643331	-0.4317619757	-0.7688676463	 0.097743
H	 0.5646375892	-0.0776533141	 0.9569526791	 0.092824
H	-1.9114093924	-0.1128282843	 0.8823995393	 0.055698
H	-3.5273571523	-1.9514898071	-0.5716608544	 0.060271
H	-1.4458128329	-2.8018809679	-2.6634477623	 0.119336
H	-2.7880489473	-3.7954333506	-2.0497929103	 0.113846
H	-3.1202438139	-2.3254229593	-2.9790052831	 0.126559
H	 0.2194054056	-2.6328855684	-1.1058385441	 0.124182
H	 0.5305395686	-2.8875236166	 0.6141122049	 0.113701
H	-0.4762104012	-4.0308994635	-0.2792908171	 0.11181
H	-2.3537685382	-3.7330290047	 1.4339443601	 0.113161
H	-1.3528239836	-2.589855635	 2.3350240123	 0.113826
H	-2.9688482256	-2.1117720352	 1.7925330269	 0.114495
48.0838	85.5166	160.9536	184.6528	194.0162	218.7437	232.0913	246.2327	293.1121	316.1364	329.5837	368.5921	473.1074	481.4829	522.6201	636.5779	748.1142	778.4233	834.9595	890.4548	936.0393	953.7206	961.7703	980.209	1004.4829	1043.6623	1061.2508	1089.2188	1131.4485	1133.5163	1159.3047	1211.8157	1218.3238	1271.355	1283.977	1294.0591	1328.3189	1355.3224	1380.843	1400.8745	1403.4269	1405.8784	1420.7591	1437.9279	1472.4385	1477.7283	1484.0768	1490.7228	1495.6829	1497.8687	1505.2837	1508.9334	1513.6867	2947.013	2963.1743	3020.9576	3024.0777	3033.4547	3035.5896	3038.4081	3075.0028	3084.0001	3093.4299	3095.3953	3102.9454	3103.1815	3115.716	3119.277	3126.0625
CCC1OC(C)C1(C)C	CC[C@H]1O[C@@H](C)C1(C)C	
InChI=1S/C8H16O/c1-5-7-8(3,4)6(2)9-7/h6-7H,5H2,1-4H3	InChI=1S/C8H16O/c1-5-7-8(3,4)6(2)9-7/h6-7H,5H2,1-4H3/t6-,7+/m0/s1
