19
gdb 98555	3.52393	1.08655	0.91642	3.6253	77.68	-0.2578	-0.0257	0.2321	1294.5858	0.158747	-423.016825	-423.008208	-423.007264	-423.050572	32.481	
O	 0.0233477942	 1.3989020811	 0.2661981396	-0.422072
C	-0.1054011428	 0.0326240326	 0.514115368	-0.141691
C	-1.3173642088	-0.5411853625	-0.2133006577	 0.238279
O	-2.0169442764	 0.2179717925	-0.864819147	-0.359388
C	-1.5973250426	-1.9787234116	-0.0897945034	 0.273091
C	-2.4565316167	-2.6758605051	-1.1277575703	-0.309103
C	-2.9851388318	-2.6033505945	 0.2559341249	-0.070727
C	-2.2995288863	-3.6292849178	 1.1644122431	-0.223045
C	-0.9048017519	-3.0163933948	 0.8077087353	-0.318973
H	-0.7352616301	 1.614273934	-0.3027549154	 0.292444
H	 0.7901773488	-0.5239578574	 0.189639251	 0.114068
H	-0.2175298009	-0.1712959454	 1.5926003098	 0.111463
H	-2.9075585402	-1.9969958881	-1.8423509319	 0.145577
H	-2.1050329301	-3.6214420393	-1.5343703128	 0.114119
H	-3.8828184576	-2.044702937	 0.4906215758	 0.112212
H	-2.5482578141	-3.5025949435	 2.2194482777	 0.11413
H	-2.4591959906	-4.6768802479	 0.8910076966	 0.107696
H	-0.1930807435	-3.6756408045	 0.3012006458	 0.105807
H	-0.4127453385	-2.5818934108	 1.680063761	 0.116115
54.9276	108.2836	161.6467	175.815	286.781	330.2161	365.9266	421.4151	460.9447	504.4427	570.6065	709.9168	774.5507	781.2802	797.9158	855.3143	918.763	933.8631	968.3068	987.7064	1013.6171	1032.4111	1078.465	1088.4021	1107.8785	1141.7716	1164.3365	1222.6678	1230.4354	1246.2133	1249.6225	1284.7936	1297.9798	1327.3403	1392.5996	1457.5786	1473.415	1482.2988	1493.9691	1504.8351	1752.5875	2965.4499	2979.7655	3050.8979	3058.655	3106.0078	3112.2545	3123.8691	3194.6488	3223.9965	3654.5923
OCC(=O)C12CC1CC2	OCC(=O)[C@]12C[C@H]1CC2	
InChI=1S/C7H10O2/c8-4-6(9)7-2-1-5(7)3-7/h5,8H,1-4H2	InChI=1S/C7H10O2/c8-4-6(9)7-2-1-5(7)3-7/h5,8H,1-4H2/t5-,7-/m1/s1
