22
gdb 102674	1.93516	1.11372	0.75999	3.2486	82.99	-0.277	0.0117	0.2887	1551.2583	0.19168	-404.360712	-404.349669	-404.348725	-404.398726	38.536	
C	-0.7172348371	 1.3745369975	-1.419632268	-0.390615
C	-0.5710678866	-0.0067082464	-0.7767994468	-0.170692
C	-1.7578725278	-0.4052617797	 0.1018831078	 0.120591
C	-1.6479252583	-1.8232366471	 0.6787506415	-0.197264
C	-1.7619358609	-2.9379695394	-0.3669582781	-0.391034
O	-1.8140589169	 0.552459156	 1.181289042	-0.24316
C	-3.0787979532	 1.0466453525	 1.5134709407	-0.204238
C	-3.9486425357	 0.0856825206	 2.2291493576	 0.261086
N	-4.6370182319	-0.6573780306	 2.7854376051	-0.310726
H	 0.1608350425	 1.621362797	-2.0236328109	 0.115906
H	-1.5930375436	 1.4170594092	-2.0774526625	 0.109775
H	-0.8290885677	 2.1484349694	-0.6555783194	 0.126763
H	-0.4438785426	-0.7663543803	-1.5553563961	 0.103528
H	 0.3330737818	-0.0377079014	-0.1560813637	 0.108527
H	-2.685732565	-0.3235003219	-0.4875197947	 0.070902
H	-0.695733819	-1.9026961246	 1.2174004028	 0.103893
H	-2.4375148959	-1.9519263066	 1.4250427722	 0.127798
H	-2.6965643128	-2.8575868047	-0.9335764316	 0.117836
H	-0.9348674137	-2.9225081582	-1.0831358481	 0.119902
H	-1.7559549156	-3.9183101459	 0.1181059926	 0.122611
H	-2.92157165	 1.908567221	 2.1706406353	 0.158466
H	-3.6309314199	 1.4003543337	 0.629146552	 0.140146
17.586	57.8389	90.2017	103.7397	176.0966	206.4753	216.9119	254.8848	282.4724	317.9976	371.7082	433.8813	452.1887	473.7006	622.0505	752.1375	772.5079	862.2708	889.3753	924.0002	934.4198	1019.9136	1033.2475	1040.275	1047.3653	1129.5145	1135.5011	1142.7041	1196.1861	1273.5109	1289.2009	1315.8166	1341.3573	1349.2318	1388.2017	1394.6496	1404.3662	1414.2337	1417.9035	1466.5328	1474.0079	1488.6335	1498.452	1503.4996	1508.4569	1511.8177	2353.4106	2970.9514	2994.3453	3031.9595	3034.8117	3036.4154	3040.5167	3076.5954	3077.2854	3085.6667	3101.0474	3104.3612	3112.5756	3120.6358
CCC(CC)OCC#N	CCC(CC)OCC#N	
InChI=1S/C7H13NO/c1-3-7(4-2)9-6-5-8/h7H,3-4,6H2,1-2H3	InChI=1S/C7H13NO/c1-3-7(4-2)9-6-5-8/h7H,3-4,6H2,1-2H3
