19
gdb 72889	2.97982	1.44078	1.18013	3.3426	75.56	-0.2412	0.052	0.2931	1101.9951	0.158277	-422.967868	-422.959708	-422.958763	-423.000648	31.453	
C	-0.3802661929	 1.5597807654	-0.0421463759	-0.500094
C	 0.0069738416	 0.1005677078	-0.0050601624	 0.299669
C	-1.0650775583	-0.9694014988	 0.2741886453	-0.11471
O	-0.2184802395	-1.6452220395	 1.2319819317	-0.287019
C	 0.7830490595	-0.6117479198	 1.1601917868	-0.042614
C	 1.9074394275	-0.9300370097	 0.1813772393	 0.479638
C	 3.3524838023	-0.8406069345	 0.4106380008	-0.266348
O	 2.697377391	-2.0976309178	 0.1986093221	-0.261303
C	 1.0946219754	-0.4045311151	-1.0119787574	-0.401802
H	 0.5034690347	 2.2069715751	-0.0350584512	 0.120314
H	-0.9478881074	 1.7905494122	-0.9517188719	 0.124042
H	-1.0030037518	 1.8303483409	 0.8170649649	 0.122644
H	-1.9745243613	-0.5812067285	 0.7536797133	 0.096151
H	-1.3500812515	-1.6176658401	-0.5636301264	 0.103186
H	 1.0216493017	-0.188972659	 2.1411069488	 0.07189
H	 4.0037568324	-0.5091282042	-0.3975621386	 0.11464
H	 3.736602829	-0.6789412951	 1.4173183289	 0.1172
H	 0.7495389693	-1.1811619633	-1.6998186684	 0.116834
H	 1.5864016583	 0.3840877539	-1.5878427395	 0.107681
60.442	193.1051	213.3094	236.2064	277.8223	303.1203	364.3883	393.1041	496.3451	545.2867	647.078	771.9553	817.4785	846.1989	878.1954	892.9303	927.2451	959.7491	970.6704	1005.1538	1018.9915	1033.3838	1118.3477	1130.7396	1136.8404	1142.6619	1164.8088	1181.3556	1208.6863	1236.4092	1252.3787	1278.3966	1308.4895	1376.3713	1414.0279	1432.07	1475.4284	1492.4573	1493.573	1525.7192	1530.497	2998.6194	3023.3042	3050.4197	3055.2258	3062.3974	3076.8953	3086.148	3097.2327	3109.3699	3164.6621
CC12COC1C1(CO1)C2	C[C@]12CO[C@H]1[C@]1(CO1)C2	
InChI=1S/C7H10O2/c1-6-2-7(4-9-7)5(6)8-3-6/h5H,2-4H2,1H3	InChI=1S/C7H10O2/c1-6-2-7(4-9-7)5(6)8-3-6/h5H,2-4H2,1H3/t5-,6+,7-/m1/s1
