14
gdb 26831	3.46762	1.15566	0.8715	3.7622	73.75	-0.231	-0.075	0.156	1242.8838	0.099737	-473.8714	-473.863101	-473.862157	-473.904628	29.346	
C	 0.1920267611	 1.4848171916	 0.08937893	-0.504765
C	-0.0192824024	 0.0218802747	 0.0028611515	 0.235816
C	-1.1171588907	-0.7783421025	-0.1938554722	 0.268395
O	-2.3855976553	-0.3699969063	-0.3710215842	-0.428955
N	-0.7591459829	-2.0923383044	-0.1887756641	-0.355258
C	 0.5340233869	-2.0761341853	 0.0081265008	 0.280432
O	 1.0431861094	-0.8236662061	 0.1323883286	-0.187732
C	 1.4882840162	-3.1822735454	 0.1115065498	 0.083403
O	 1.1930246963	-4.3496418037	 0.022860294	-0.252786
H	 0.8767972424	 1.8410765565	-0.68848745	 0.148874
H	-0.7667875649	 1.991774619	-0.0376291064	 0.15839
H	 0.6108389929	 1.7763847671	 1.0591667763	 0.14887
H	-2.92603627	-1.161890041	-0.4831195237	 0.313691
H	 2.528916991	-2.8358819443	 0.2825051998	 0.091626
104.9305	113.3103	170.049	219.2294	244.615	245.688	369.4358	392.6804	428.281	517.1954	649.8698	681.518	728.2307	739.6578	844.3104	993.7424	1019.2106	1027.7643	1062.2261	1146.103	1180.2147	1296.2471	1319.4854	1409.7105	1432.148	1459.7494	1473.3467	1488.8533	1554.8044	1692.3481	1799.7279	2919.1144	3031.8399	3083.4968	3136.0392	3804.3553
CC1=C(O)N=C(O1)C=O	Cc1c(O)nc(o1)C=O	
InChI=1S/C5H5NO3/c1-3-5(8)6-4(2-7)9-3/h2,8H,1H3	InChI=1S/C5H5NO3/c1-3-5(8)6-4(2-7)9-3/h2,8H,1H3
