19
gdb 112679	2.65023	1.33488	1.10536	2.3608	71.7	-0.244	-0.0237	0.2204	1171.9661	0.157651	-460.189622	-460.18042	-460.179476	-460.224006	33.426	
C	-0.6204359294	 1.0416270592	-0.382782648	-0.245747
O	-0.2724228845	-0.3306871423	-0.4672084941	-0.240398
C	 0.9446022804	-0.5612991417	-1.124366274	 0.192632
C	 1.2147135258	-2.0604296549	-1.0851972948	-0.362458
C	 0.5833489782	-2.5448828713	-2.387123249	 0.376527
O	 0.2896490159	-3.6712561673	-2.6859885765	-0.311194
C	 0.376175556	-1.304323774	-3.2658767264	 0.025183
C	-1.0878977499	-1.123801358	-3.6648633982	-0.400035
O	 0.8934182101	-0.2118608428	-2.5034321328	-0.27201
H	 0.1441509212	 1.61023549	 0.1672750441	 0.109888
H	-0.7420413622	 1.4861383541	-1.3767798838	 0.128174
H	-1.5653508161	 1.0977612312	 0.1610649053	 0.130125
H	 1.7354923461	 0.0642204234	-0.6895948442	 0.077665
H	 2.2911942715	-2.2598550796	-1.122305202	 0.139752
H	 0.7923037002	-2.5580912055	-0.212573008	 0.148315
H	 0.9979864481	-1.4004135988	-4.1648000114	 0.108593
H	-1.7162476439	-1.0260684391	-2.7760733311	 0.134445
H	-1.2042429756	-0.2279641377	-4.2802526915	 0.123547
H	-1.4192276719	-1.9948006446	-4.2373690938	 0.136994
60.5909	90.0736	135.5548	188.1605	229.8917	233.7452	281.9693	371.8648	400.7668	474.9205	540.2609	550.7041	660.8946	763.5424	780.3443	838.7935	867.4704	949.9062	975.4581	1018.3254	1063.3364	1092.1022	1108.4956	1137.7007	1167.0656	1182.683	1183.9179	1230.43	1273.4006	1303.5529	1346.4686	1376.0878	1392.2675	1399.3983	1437.8994	1477.064	1485.5068	1485.9054	1500.8742	1513.0676	1859.1257	2995.7793	3021.7257	3032.4308	3047.8979	3064.6032	3071.3407	3127.2204	3130.6428	3133.343	3146.1746
COC1CC(=O)C(C)O1	CO[C@H]1CC(=O)[C@@H](C)O1	
InChI=1S/C6H10O3/c1-4-5(7)3-6(8-2)9-4/h4,6H,3H2,1-2H3	InChI=1S/C6H10O3/c1-4-5(7)3-6(8-2)9-4/h4,6H,3H2,1-2H3/t4-,6-/m1/s1
