18
gdb 63197	3.30506	1.54588	1.46272	1.5896	78.62	-0.2164	-0.0454	0.171	968.704	0.146214	-401.820461	-401.812383	-401.811439	-401.853138	31.53	
C	 0.0644834128	 1.5379137249	-0.0887459177	-0.433643
C	-0.0245841808	 0.0099530707	-0.0423460503	 0.3493
O	-1.3890043365	-0.3995563199	 0.0669072253	-0.475696
C	 0.8313155295	-0.6111193467	-1.1539475619	-0.204482
C	 1.5487777595	-1.6227364926	-0.6165122406	 0.028526
C	 2.9082970914	-1.2591253009	-0.0403796303	-0.168968
N	 2.1484377484	-1.0907738381	 1.2921094994	-0.163193
C	 1.0738034561	-1.9884465539	 0.7909052872	-0.077655
C	 0.6647544352	-0.6409960467	 1.184506911	-0.025873
H	 1.1023518123	 1.8839388457	-0.075215333	 0.122303
H	-0.4158315493	 1.9257438689	-0.9936953422	 0.111025
H	-0.4536673392	 1.9564968513	 0.779001855	 0.128905
H	-1.7812711628	-0.3170334144	-0.8085239047	 0.27757
H	 1.272879568	 0.0483896302	-1.8978211943	 0.089869
H	 3.6251342812	-2.0644098129	 0.1418489869	 0.122703
H	 3.4081366088	-0.3736609882	-0.4423804841	 0.113245
H	 0.8442894382	-2.953451025	 1.2254806914	 0.099392
H	 0.3040342171	-0.4060451124	 2.181549113	 0.106671
52.8969	121.8126	235.3719	253.3226	328.167	360.3769	388.9684	468.4767	549.4913	594.4945	629.0631	713.2782	754.3351	790.7247	831.2933	871.8933	877.2425	899.3148	943.8305	951.4738	1008.9699	1020.6152	1048.275	1066.6956	1097.7496	1117.3544	1140.024	1167.8209	1201.4538	1241.1272	1256.0766	1311.3903	1330.0962	1361.4536	1401.1639	1486.1317	1488.2256	1506.7063	1574.2131	3033.0594	3050.932	3104.7838	3115.0129	3117.1347	3145.1113	3166.094	3189.7102	3817.306
CC1(O)C=C2CN3C2C13	C[C@@]1(O)[CH][C]2CN3[C@H]2[C@H]13	
InChI=1S/C7H9NO/c1-7(9)2-4-3-8-5(4)6(7)8/h2,5-6,9H,3H2,1H3	InChI=1S/C7H9NO/c1-7(9)2-4-3-8-5(4)6(7)8/h2,5-6,9H,3H2,1H3/t5-,6-,7-,8?/m1/s1
