20
gdb 57613	3.51816	0.96276	0.92274	5.1252	79.2	-0.2792	0.0307	0.3099	1345.5692	0.168797	-403.151606	-403.1416	-403.140656	-403.187006	36.832	
C	 0.1391335217	 1.5805294897	 0.2485224756	-0.427325
C	 0.0656649493	 0.064845852	 0.0648216101	 0.331366
O	 0.6263970437	-0.4819662677	 1.2560976322	-0.450101
C	-1.4199310264	-0.3955766767	-0.0641372877	-0.367364
C	-2.2459334362	-0.0305148564	 1.0829994197	 0.275626
N	-2.9080025675	 0.2647803088	 1.982783676	-0.315797
C	 0.8103303203	-0.4683736189	-1.1552802634	-0.017127
C	 0.9574677082	 0.2853179707	-2.4552206435	-0.275136
C	 2.1613352745	 0.0412403817	-1.5814265156	-0.285904
H	 1.1776353464	 1.9058198169	 0.3364751476	 0.131117
H	-0.3348470371	 2.1125804794	-0.5799578469	 0.119046
H	-0.3753096564	 1.8549281235	 1.1722326124	 0.156816
H	 0.7981994617	-1.4189145256	 1.1123401703	 0.27954
H	-1.8631594388	 0.027716793	-0.9721888188	 0.152243
H	-1.4485801024	-1.4859898501	-0.1768626209	 0.13605
H	 0.6720544699	-1.5435315018	-1.2712504197	 0.076862
H	 0.8621086917	-0.2724576028	-3.3801111046	 0.116668
H	 0.5761764596	 1.2985045296	-2.5095247881	 0.12038
H	 2.5825382572	 0.8882835038	-1.0529700352	 0.125963
H	 2.8971455808	-0.686795739	-1.9040004694	 0.117076
36.0307	71.737	128.8214	213.0253	226.7216	249.8404	276.422	320.6035	350.4412	399.995	420.0073	437.0633	480.4709	593.0213	747.7646	788.4531	830.8379	857.9055	895.734	939.127	955.9974	963.6468	976.3902	1049.5849	1063.3687	1085.0177	1144.123	1146.135	1160.9028	1175.4603	1199.0782	1241.2135	1244.6005	1316.9249	1386.7036	1397.927	1435.3384	1459.1544	1467.45	1491.1426	1504.3678	1511.0146	2362.814	3039.605	3059.1849	3083.2479	3099.0277	3134.5531	3137.067	3141.004	3143.7729	3216.9065	3230.8681	3805.7972
CC(O)(CC#N)C1CC1	C[C@@](O)(CC#N)C1CC1	
InChI=1S/C7H11NO/c1-7(9,4-5-8)6-2-3-6/h6,9H,2-4H2,1H3	InChI=1S/C7H11NO/c1-7(9,4-5-8)6-2-3-6/h6,9H,2-4H2,1H3/t7-/m1/s1
