18
gdb 94179	2.42712	1.35972	1.19062	4.6755	67.53	-0.2519	0.0076	0.2595	1122.4364	0.147051	-476.235566	-476.22644	-476.225496	-476.270029	33.35	
C	-0.4823098335	 1.4130182515	 0.0600538953	-0.424348
C	 0.1490919505	 0.0418776791	-0.0543161283	 0.14288
O	 1.3737703529	 0.050863454	-0.815055312	-0.289755
C	 2.0440323994	-0.7563044268	 0.1718162521	-0.100414
C	 0.872992722	-0.6144767244	 1.1741940852	 0.05209
N	 1.0539003326	 0.251481641	 2.3395277721	-0.598542
H	 1.9658385617	 0.0993330013	 2.7611712922	 0.24867
H	 1.0002394202	 1.2327361057	 2.0923284768	 0.247295
H	-0.0800109869	-1.0102370532	 3.184981399	 0.306898
C	 0.2244428336	-1.9374083819	 1.6111106445	 0.404369
O	-0.2882827929	-1.9087665284	 2.8464497265	-0.373196
O	 0.1563935846	-2.8977550216	 0.889814044	-0.345414
H	 0.2209706644	 2.1595888116	 0.4433847073	 0.118549
H	-0.7923062789	 1.7456760442	-0.9351738173	 0.145283
H	-1.3681891632	 1.3857214383	 0.7023683596	 0.132619
H	-0.5652879328	-0.6688813296	-0.4881828082	 0.105198
H	 2.2021850056	-1.7835669252	-0.1706682776	 0.132605
H	 2.9925547908	-0.3097307955	 0.4942808688	 0.095214
48.847	70.0473	175.6372	200.6064	238.8022	272.0749	302.522	379.584	406.1195	455.3849	469.8613	582.1667	708.8044	729.6514	797.6632	855.5866	875.562	886.663	924.3255	950.8554	1027.8067	1040.9518	1094.0076	1115.5843	1156.6088	1171.8797	1209.2325	1261.7359	1272.1305	1314.8002	1359.6385	1384.0287	1404.6973	1428.1683	1474.9234	1500.6462	1508.3417	1649.1876	1861.9199	3021.0338	3032.0463	3036.5142	3090.328	3107.7881	3117.4103	3480.508	3506.1939	3589.1937
CC1OCC1([NH3+])C([O-])=O	C[C@H]1OC[C@]1(N)C(=O)O	
InChI=1S/C5H9NO3/c1-3-5(6,2-9-3)4(7)8/h3H,2,6H2,1H3,(H,7,8)	InChI=1S/C5H9NO3/c1-3-5(6,2-9-3)4(7)8/h3H,2,6H2,1H3,(H,7,8)/t3-,5-/m1/s1
