19
gdb 83324	2.22674	1.72644	1.46183	2.6362	75.41	-0.2223	-0.0161	0.2062	1022.1619	0.158487	-423.024716	-423.016159	-423.015215	-423.057444	32.657	
C	-0.1342745916	 1.5795236789	 0.007023945	-0.440552
C	 0.0154394396	 0.065927369	-0.0188061431	-0.026416
C	 1.2115120481	-0.6162572626	-0.7877563963	-0.215274
C	 2.4160185481	 0.0108582805	-0.0714535824	-0.091847
O	 1.9588999304	-0.0161403971	 1.3062450378	-0.311269
C	 0.6622789638	-0.6508290998	 1.2191724822	 0.295311
C	 0.0325251377	-0.8167558698	 2.5674033238	-0.502574
C	 0.9472780303	-1.7781743846	 0.1977012154	 0.413525
O	 0.8434263369	-2.9658221361	 0.1419807053	-0.320961
H	 0.7406310742	 2.061886375	 0.4478618045	 0.140237
H	-0.2824985391	 1.9790738749	-1.0013126481	 0.122034
H	-1.0055304031	 1.8625771029	 0.6063487934	 0.124633
H	-0.9260375504	-0.4211436307	-0.2929060248	 0.093507
H	 1.2449595327	-0.7399833882	-1.867500517	 0.091139
H	 3.3314439913	-0.5824472649	-0.1777894062	 0.116773
H	 2.6259016152	 1.0427639383	-0.3732100284	 0.107743
H	-0.136701961	 0.1556915081	 3.0402462522	 0.131235
H	-0.9253644534	-1.3361686467	 2.4775361795	 0.130258
H	 0.6844883904	-1.4045250271	 3.2196523971	 0.1425
136.4566	168.9421	172.033	194.896	231.5739	277.8244	300.2491	343.4978	511.9813	531.2688	625.7952	693.0051	703.0372	735.5306	781.9754	831.005	877.7259	923.974	961.4832	991.8553	1026.7219	1041.2745	1077.8403	1111.675	1114.6789	1159.5222	1176.0816	1184.5774	1217.4295	1261.4288	1339.1045	1360.7924	1390.5508	1408.7836	1423.021	1476.6721	1489.5896	1493.6427	1503.7128	1537.6751	1906.1671	3028.8028	3041.5749	3044.4179	3061.1553	3067.9195	3101.4374	3114.8252	3124.6217	3132.0313	3155.9036
CC1C2COC1(C)C2=O	C[C@H]1[C@H]2CO[C@]1(C)C2=O	
InChI=1S/C7H10O2/c1-4-5-3-9-7(4,2)6(5)8/h4-5H,3H2,1-2H3	InChI=1S/C7H10O2/c1-4-5-3-9-7(4,2)6(5)8/h4-5H,3H2,1-2H3/t4-,5+,7-/m0/s1
