15
gdb 25481	5.47992	0.97473	0.82754	1.1575	83.32	-0.2283	-0.0519	0.1764	1310.2699	0.116017	-413.045102	-413.037709	-413.036765	-413.077452	27.331	
N	-0.5089594927	-2.9916042639	-0.1878697433	-0.471052
C	-1.575427707	-2.3120885859	-0.0443635549	 0.0929
N	-1.5635483982	-0.9543250251	-0.2947000027	-0.361109
C	-2.6366485406	-0.0935004869	-0.1823723727	 0.436253
N	-3.8157696088	-0.5836783923	 0.2026515076	-0.31888
C	-4.8206522326	 0.2902320517	 0.2954613387	-0.012111
C	-4.6645557504	 1.6397220628	 0.0104572781	-0.032734
N	-3.4800373067	 2.1333409251	-0.3765505241	-0.223655
C	-2.4767183298	 1.2777332233	-0.4723030167	-0.086325
H	-0.6835420397	-3.9694445256	 0.034274473	 0.23061
H	-2.5565455562	-2.6725668919	 0.2675104868	 0.138561
H	-0.6729673725	-0.5772166785	-0.5867844764	 0.262013
H	-5.782571367	-0.1074116399	 0.6091580089	 0.118866
H	-5.4933386679	 2.3355429962	 0.0915521013	 0.116269
H	-1.5098827599	 1.667865751	-0.7858687934	 0.110396
82.497	150.0228	166.3459	214.2532	407.1393	430.3534	460.3806	548.4011	616.3345	626.2371	721.9298	783.0385	817.3055	862.361	912.9816	937.0071	981.1418	1019.1284	1082.0324	1082.7033	1112.1827	1188.3945	1243.2958	1277.6025	1330.9666	1349.8373	1393.9584	1414.1561	1511.1214	1523.2217	1587.3331	1625.2788	1727.6259	3131.7482	3137.9961	3159.1833	3186.7214	3512.6224	3610.5558
N=CNC1=NC=CN=C1	N=CNc1nccnc1	
InChI=1S/C5H6N4/c6-4-9-5-3-7-1-2-8-5/h1-4H,(H2,6,8,9)	InChI=1S/C5H6N4/c6-4-9-5-3-7-1-2-8-5/h1-4H,(H2,6,8,9)
