19
gdb 39542	3.46629	1.46677	1.08105	1.4265	86.13	-0.2103	-0.0128	0.1974	1108.9503	0.16248	-385.912105	-385.904964	-385.90402	-385.943525	28.886	
C	-0.0171698427	 1.5768709628	-0.0354360699	-0.308227
C	 1.4593626668	 1.9147121869	 0.0012033417	-0.07474
C	 2.2068161196	 0.8646897735	 0.3730604807	-0.163776
C	 1.3604809722	-0.3003191164	 0.6136621942	 0.340056
C	 1.582431997	-1.4167031404	 1.3110638349	-0.249448
C	 0.461758577	-2.380600477	 1.6002857227	-0.106202
O	-0.766860649	-2.0591679572	 0.9694494781	-0.255165
C	-1.0630570021	-0.6697620357	 0.9230877829	-0.110256
C	-0.0170246882	 0.0301013766	 0.0617738169	-0.06892
H	-0.5325735092	 2.0386061264	 0.8203569038	 0.110511
H	-0.5215321393	 1.9461494037	-0.9345639251	 0.107817
H	 1.8357022142	 2.9110239813	-0.2006500302	 0.099173
H	 3.2790108516	 0.8744267701	 0.5310162462	 0.09715
H	 2.5468548979	-1.6326045147	 1.763645569	 0.084729
H	 0.7113779525	-3.3943379031	 1.2608668205	 0.116247
H	 0.3231054959	-2.444811524	 2.6964344083	 0.095748
H	-2.0713839378	-0.5944598298	 0.5049372546	 0.103936
H	-1.0767640295	-0.2328685867	 1.9355309734	 0.085622
H	-0.0956559468	-0.3805333965	-0.9532652025	 0.095742
122.287	190.6792	277.5607	319.2406	345.6863	430.4997	460.8235	545.3513	645.2257	729.1114	743.992	760.9668	810.9911	845.7126	892.6132	931.5257	951.9165	973.3452	992.5961	1017.2887	1050.0959	1065.6748	1107.0344	1125.3928	1143.1096	1182.4554	1197.8164	1237.1605	1278.0711	1295.7294	1307.782	1316.678	1363.7112	1372.7436	1375.9176	1416.1991	1484.8049	1489.8944	1502.3777	1637.1477	1736.8689	2922.4286	2968.1858	2997.3204	3019.6948	3030.6086	3064.4274	3079.9686	3160.2042	3190.1499	3213.6157
C1C=CC2=CCOCC12	C1C=CC2=CCOC[C@@H]12	
InChI=1S/C8H10O/c1-2-7-4-5-9-6-8(7)3-1/h1-2,4,8H,3,5-6H2	InChI=1S/C8H10O/c1-2-7-4-5-9-6-8(7)3-1/h1-2,4,8H,3,5-6H2/t8-/m1/s1
