15
gdb 84304	2.14862	1.84978	1.08067	4.4721	73.82	-0.2399	-0.0595	0.1803	1069.1898	0.110866	-420.609597	-420.601072	-420.600128	-420.643432	31.224	
O	 0.0542369813	 1.4897224629	 0.2766947813	-0.411433
C	 0.0224213912	 0.0893660339	 0.05004427	 0.069356
C	 0.7105915759	-0.6682444918	 1.1708018625	-0.086751
C	-0.1300251068	-1.3633041408	 1.9396986837	-0.167149
C	-1.5212424473	-1.2298857527	 1.4471432324	 0.37941
O	-2.5205789784	-1.6793994966	 1.9425783711	-0.309561
C	-1.4434643493	-0.4246091202	 0.1113309694	-0.357415
C	-2.4832304378	 0.5735583315	-0.0361913694	 0.385238
C	-3.373071886	 1.3704515408	-0.1567979281	-0.454812
H	 0.966694539	 1.7867539692	 0.1973434511	 0.287972
H	 0.4728906245	-0.1487325305	-0.9242414437	 0.085614
H	 1.7830621546	-0.589930754	 1.3212222975	 0.11765
H	 0.110802325	-1.9448113209	 2.8205621627	 0.12775
H	-1.5676325454	-1.1828972494	-0.6744175999	 0.137796
H	-4.1523792904	 2.0845685387	-0.2558800404	 0.196336
33.0948	132.852	175.7162	201.957	222.9767	344.2906	395.7973	409.016	489.6336	541.2557	623.2367	645.906	665.654	689.2165	763.9025	794.3697	851.645	921.1773	979.6196	1008.9359	1057.766	1096.1124	1120.456	1162.867	1196.8129	1248.8951	1301.0584	1338.704	1354.9342	1415.8123	1659.4385	1834.8088	2247.1716	2991.4323	3017.511	3181.5028	3225.7198	3506.4048	3817.0177
OC1C=CC(=O)C1C#C	O[C@H]1C=CC(=O)[C@H]1C#C	
InChI=1S/C7H6O2/c1-2-5-6(8)3-4-7(5)9/h1,3-6,8H	InChI=1S/C7H6O2/c1-2-5-6(8)3-4-7(5)9/h1,3-6,8H/t5-,6-/m0/s1
