16
gdb 44888	3.1465	1.56305	1.38069	5.1689	68.92	-0.2546	0.0103	0.2649	961.2252	0.126211	-437.864113	-437.857379	-437.856434	-437.895195	27.015	
O	-0.0220921552	 0.0785255524	 0.0482206117	-0.345746
C	 0.0590540168	 1.2669433601	 0.0323277625	 0.473128
O	-1.0298555421	 2.118979994	 0.0505255665	-0.252847
C	-0.3889002828	 3.4312887636	 0.0195401843	-0.008334
C	 0.6875112901	 3.2443054858	-1.0743192617	-0.239922
C	 1.2450906115	 2.2265539117	-0.013513938	-0.282533
C	 0.7414635856	 3.252717741	 1.0369840105	 0.430099
C	 1.4479694436	 4.2623747371	 1.8400657316	-0.340188
N	 0.7312446175	 3.1241664613	 2.4692071931	-0.385369
H	-1.1454970899	 4.2126009765	 0.0374004897	 0.099768
H	 0.3469747934	 2.8436598972	-2.0303537737	 0.125272
H	 1.3337158236	 4.1127603647	-1.2064518185	 0.121441
H	 2.2397282773	 1.7925722926	-0.0312020964	 0.107449
H	 2.5289150365	 4.2305531551	 1.9436632447	 0.132426
H	 1.01325223	 5.2570756451	 1.9102934201	 0.121808
H	-0.1587880058	 3.4160343018	 2.8657967937	 0.243547
128.6557	216.472	247.9909	334.9678	441.8996	470.8913	546.6875	610.9185	676.469	763.8172	800.8908	835.1121	862.9484	886.0804	901.1934	932.0528	950.4688	977.4624	1016.9553	1024.7694	1056.6999	1086.7963	1111.9181	1136.6833	1142.9201	1201.2329	1218.654	1238.4272	1247.8	1280.0803	1312.6568	1438.0055	1489.6801	1524.9231	1918.5854	3083.8536	3104.1486	3151.6155	3154.2022	3180.286	3190.6337	3503.9352
O=C1OC2CC1C21CN1	O=C1O[C@@H]2C[C@H]1[C@]12CN1	
InChI=1S/C6H7NO2/c8-5-3-1-4(9-5)6(3)2-7-6/h3-4,7H,1-2H2	InChI=1S/C6H7NO2/c8-5-3-1-4(9-5)6(3)2-7-6/h3-4,7H,1-2H2/t3-,4-,6+/m1/s1
