17
gdb 20057	5.42153	1.37111	1.17126	1.5046	68.63	-0.2466	0.0236	0.2702	1018.2288	0.144056	-363.860788	-363.853603	-363.852659	-363.893038	26.457	
C	-0.1691068566	 1.3510767734	-0.2002559262	-0.277726
C	 1.2650039002	 0.984945684	 0.0898175776	-0.263709
C	 0.2097417741	-0.0856889907	 0.07363337	 0.037266
C	-0.2251189874	-0.7454883846	 1.361524487	-0.001642
C	-1.6365533138	-1.3984682472	 1.28723164	-0.12386
O	-1.4119394986	-2.7840647769	 1.6438983104	-0.220648
C	-0.0766559214	-2.8853239001	 1.8473831972	 0.117619
N	 0.6677029618	-1.8679965472	 1.7330741979	-0.267683
H	-0.7204134337	 1.8868243351	 0.5661848583	 0.109481
H	-0.4394782665	 1.6279471514	-1.213010901	 0.113113
H	 1.9797348455	 1.0115758495	-0.7246715566	 0.114921
H	 1.679217813	 1.2678220933	 1.0516845764	 0.11902
H	 0.2150028639	-0.7580707391	-0.7807711091	 0.084855
H	-0.1829628758	 0.0022916695	 2.1635630976	 0.081819
H	-2.3550408035	-0.977298965	 1.9943637043	 0.119324
H	-2.065624331	-1.3687805436	 0.2810966835	 0.118115
H	 0.2573104798	-3.8842211019	 2.1070739427	 0.139735
63.7227	81.1558	184.0383	276.3627	342.0503	436.964	545.1254	725.9825	774.4316	823.3259	832.2796	883.6519	921.4042	934.5086	963.3993	966.9015	987.5001	1026.5239	1047.4376	1060.3611	1079.8182	1129.9744	1136.749	1191.819	1197.0261	1223.4421	1237.3863	1291.9173	1311.5661	1324.1586	1372.7009	1426.0839	1471.6984	1507.1477	1517.6654	1706.7993	3018.7869	3053.9916	3105.1433	3129.9329	3136.1016	3140.0097	3209.3174	3211.6227	3225.412
C1CC1C1COC=N1	C1CC1[C@H]1COC=N1	
InChI=1S/C6H9NO/c1-2-5(1)6-3-8-4-7-6/h4-6H,1-3H2	InChI=1S/C6H9NO/c1-2-5(1)6-3-8-4-7-6/h4-6H,1-3H2/t6-/m1/s1
