15
gdb 28783	3.28946	1.72542	1.13972	2.4728	73.61	-0.1962	-0.0076	0.1886	999.2347	0.114968	-416.844523	-416.837487	-416.836543	-416.875823	27.373	
O	 0.0905095367	 1.3662502752	 0.2032514232	-0.438937
C	 0.0698514716	 0.0238275915	 0.0188040607	 0.305232
C	 0.0631796881	-0.8131842372	-1.073046947	-0.231624
N	 0.0397235415	-2.1452851293	-0.6690599756	-0.357137
C	 0.0323898578	-2.0969075086	 0.6333913187	 0.38304
C	 0.0106240543	-3.0263990097	 1.8153858481	-0.411629
C	 0.0192817301	-2.039471299	 2.974187572	-0.134796
C	 0.0419663038	-0.7808037003	 2.5163205834	-0.023656
N	 0.0499805792	-0.8001074837	 1.1109200285	-0.04975
H	 0.0962775582	 1.7910450684	-0.6601931491	 0.31145
H	 0.0738881041	-0.5370114274	-2.1164028585	 0.098523
H	-0.8787816302	-3.6684952358	 1.828778463	 0.144341
H	 0.8790503073	-3.6963022525	 1.8392782944	 0.144354
H	 0.0084619514	-2.3256282184	 4.0150565234	 0.115052
H	 0.0536144464	 0.157907027	 3.0487556447	 0.145537
158.8316	190.372	209.8218	272.8655	351.2077	451.9458	548.654	634.6123	645.4805	679.3116	694.1073	721.0223	757.7059	781.1937	885.7915	911.2373	939.578	944.3328	1027.8931	1118.8899	1136.0058	1158.6283	1184.3583	1254.1922	1264.8654	1293.6293	1325.3398	1403.9157	1450.5678	1531.2484	1586.1531	1603.5085	1654.9227	3033.3606	3058.8752	3244.4145	3245.4716	3268.4202	3842.2406
OC1=CN=C2CC=CN12	Oc1cnc2CC=Cn12	
InChI=1S/C6H6N2O/c9-6-4-7-5-2-1-3-8(5)6/h1,3-4,9H,2H2	InChI=1S/C6H6N2O/c9-6-4-7-5-2-1-3-8(5)6/h1,3-4,9H,2H2
