18
gdb 47541	2.58739	1.72238	1.15835	2.074	72.96	-0.2487	-0.0009	0.2477	1058.4614	0.149236	-439.058891	-439.051265	-439.05032	-439.0912	29.665	
N	-0.1100184542	 1.3345427008	 0.0881752062	-0.448302
C	-0.0164582641	 0.0804033898	-0.0147890931	 0.350835
C	 1.25251864	-0.7647064712	-0.0317519859	-0.157957
O	 1.4278433499	-1.5585087957	-1.1886868513	-0.241153
C	 0.4612919293	-2.5893078843	-1.3580574115	-0.103869
C	-0.8021291261	-2.0897542781	-2.032267403	-0.052898
C	-2.1594268912	-2.4310810078	-1.4406795876	-0.331191
C	-1.6085517846	-1.0503794379	-1.3036788141	 0.109986
O	-1.1733655682	-0.6710327586	-0.0179242057	-0.246811
H	 0.8179459441	 1.7586378882	 0.1248423583	 0.226408
H	 2.1282252248	-0.1121145736	 0.022970917	 0.112969
H	 1.2367669503	-1.4007936187	 0.8698577471	 0.110749
H	 0.9438944128	-3.3500566025	-1.9789847703	 0.113937
H	 0.2263537604	-3.0462158848	-0.3864431265	 0.099171
H	-0.7378043978	-1.9813645163	-3.1105238802	 0.097727
H	-3.0001070116	-2.5880242262	-2.1065737803	 0.122106
H	-2.1678927805	-3.0407647699	-0.5435547446	 0.128593
H	-2.0539321233	-0.2335022832	-1.8655339245	 0.109699
75.426	137.2647	246.0369	307.2808	317.0069	367.2005	434.5104	476.6796	562.0577	627.8233	699.4833	795.5896	827.4629	830.3442	909.7272	913.9567	947.2638	958.4392	1013.3132	1041.2518	1052.4777	1067.1274	1086.9262	1122.5563	1135.6874	1166.6618	1180.0114	1234.6424	1266.5994	1320.2679	1340.4419	1375.5743	1390.3504	1399.5973	1416.8751	1470.3781	1477.5597	1490.9543	1741.8495	2962.1216	3005.453	3082.1701	3091.0413	3137.7533	3141.1761	3159.0114	3228.3422	3475.2604
N=C1COCC2CC2O1	[NH][C]1COC[C@H]2C[C@H]2O1	
InChI=1S/C6H9NO2/c7-6-3-8-2-4-1-5(4)9-6/h4-5,7H,1-3H2	InChI=1S/C6H9NO2/c7-6-3-8-2-4-1-5(4)9-6/h4-5,7H,1-3H2/t4-,5-/m1/s1
