20
gdb 58998	3.55451	1.18463	1.04373	1.1223	79.36	-0.2374	0.0234	0.2608	1236.009	0.171056	-403.159743	-403.151101	-403.150157	-403.193325	32.927	
C	 0.12227573	 1.0818758907	-0.6555859451	-0.391202
C	 0.008260839	-0.1984603392	 0.1966300255	-0.076294
C	 0.4660954503	 0.0303787594	 1.639695769	-0.380594
C	-1.3918349655	-0.7322683161	 0.1437693421	 0.412673
N	-2.2455550444	-0.7800909923	 1.0911118352	-0.315234
C	-3.4614853366	-1.312765165	 0.5267581327	-0.022038
C	-4.099459565	-0.4878809312	-0.5751514489	-0.319621
C	-3.14077864	-1.5856728923	-0.9320871883	 0.056121
O	-1.7823040598	-1.2122070588	-1.0817276939	-0.254082
H	 1.160019685	 1.4275068671	-0.6798384319	 0.116809
H	-0.206892934	 0.9033098132	-1.6821437764	 0.130695
H	-0.4919915839	 1.883144257	-0.2310417711	 0.12318
H	 0.644864142	-0.9621957566	-0.2702836792	 0.098744
H	 0.4076647138	-0.8899877363	 2.2256271052	 0.125276
H	 1.5002016441	 0.3878910449	 1.6526957093	 0.106246
H	-0.1659120106	 0.7740457546	 2.1323062213	 0.132991
H	-4.0694882647	-1.9396115154	 1.1674612469	 0.101091
H	-5.1447317538	-0.6830921032	-0.7886634588	 0.120352
H	-3.7851035286	 0.5441915686	-0.6911079085	 0.123974
H	-3.4140620073	-2.447557479	-1.5265637252	 0.110913
47.3452	122.7087	195.399	213.2842	249.5536	310.8113	341.7387	375.26	463.7444	498.6736	639.8297	730.6828	748.2435	762.6269	815.629	877.6948	920.2672	936.8038	943.6902	972.356	984.0273	1020.287	1051.1404	1080.3009	1105.0243	1116.626	1131.092	1148.6119	1169.5139	1191.061	1226.2069	1315.9519	1332.3843	1363.0956	1389.1122	1403.3376	1421.1773	1462.1167	1485.56	1488.4804	1499.0894	1513.277	1699.4709	3019.6626	3038.0025	3046.9295	3107.5892	3118.7645	3124.6084	3127.7386	3130.1483	3183.782	3199.6273	3224.5532
CC(C)C1=NC2CC2O1	CC(C)C1=N[C@H]2C[C@H]2O1	
InChI=1S/C7H11NO/c1-4(2)7-8-5-3-6(5)9-7/h4-6H,3H2,1-2H3	InChI=1S/C7H11NO/c1-4(2)7-8-5-3-6(5)9-7/h4-6H,3H2,1-2H3/t5-,6+/m0/s1
