19
gdb 61174	3.25808	0.88553	0.8059	4.2414	82.5	-0.2362	0.0111	0.2473	1460.1504	0.156345	-382.02833	-382.018	-382.017056	-382.063747	37.119	
C	 0.1703778409	 1.5757803306	-0.0484560221	-0.400294
C	-0.0394814891	 0.0449982148	 0.0352575961	-0.153152
C	 0.6837790583	-0.505845776	 1.184522693	 0.318393
C	 1.3004882039	-0.9237675891	 2.1271736616	-0.421159
N	-1.4430012143	-0.4052542579	 0.0562001554	-0.057627
C	-2.2261116736	 0.0401309572	 1.2028831776	-0.349372
C	-2.1195533271	-0.1874679176	-1.2111194566	-0.29214
C	-3.3144546771	-1.0342631289	-1.3388155259	 0.282869
N	-4.263054785	-1.6841114126	-1.4475907524	-0.306882
H	 1.236993659	 1.8009733787	-0.1271910201	 0.135541
H	-0.330678008	 1.9903534769	-0.9284982881	 0.118627
H	-0.2148640172	 2.0763990655	 0.8429833594	 0.135347
H	 0.3992827901	-0.400184713	-0.8684031272	 0.113875
H	 1.8431009938	-1.310011667	 2.9546269406	 0.201033
H	-2.4620816555	 1.1184506196	 1.1856330127	 0.100223
H	-3.1702615645	-0.5110093267	 1.2281445689	 0.148145
H	-1.6761913548	-0.1824634128	 2.1192886189	 0.143825
H	-2.4388944173	 0.8585150462	-1.3794330298	 0.131725
H	-1.4386742125	-0.4452021479	-2.030503422	 0.151022
60.2223	83.0861	123.994	183.051	204.316	235.4241	251.5052	254.9242	348.4795	372.2932	390.9871	432.205	473.8066	549.3598	627.7838	648.9164	668.6275	790.7633	861.1737	940.0215	967.1909	997.4612	1054.4972	1076.1182	1125.3035	1156.7022	1195.1071	1229.4302	1311.7257	1328.4969	1367.4833	1399.2383	1407.4389	1459.3965	1476.0856	1488.697	1492.852	1500.3954	1515.4661	2239.4699	2365.6139	2925.3533	2956.2489	3008.9208	3047.6128	3060.6032	3084.2075	3119.5796	3132.5902	3134.5725	3502.7924
CC(C#C)N(C)CC#N	C[C@@H](C#C)N(C)CC#N	
InChI=1S/C7H10N2/c1-4-7(2)9(3)6-5-8/h1,7H,6H2,2-3H3	InChI=1S/C7H10N2/c1-4-7(2)9(3)6-5-8/h1,7H,6H2,2-3H3/t7-/m0/s1
