21
gdb 67040	2.09371	2.01316	1.56	1.7369	81.02	-0.2175	0.0859	0.3033	1009.0071	0.182705	-387.076824	-387.068511	-387.067567	-387.108981	33.245	
C	-0.0263551981	 1.5661208805	-0.067817309	-0.519019
C	 0.0273591377	 0.0709279941	 0.0017433906	 0.227221
C	 0.6711895604	-0.8987063549	-0.9745345353	-0.138818
C	 1.6467100405	-1.8387105679	-0.2646165581	-0.233641
C	 1.4054147226	-1.557367024	 1.2439378797	-0.238254
C	 0.0502299176	-0.8480282981	 1.2622469774	 0.378596
C	-0.4645585164	-0.3341187249	 2.5824630313	-0.48105
O	-0.9168450716	-1.769430638	 0.6273820111	-0.34811
C	-0.7913824455	-1.0325918962	-0.5873136263	 0.047756
H	 0.9143602903	 2.0214059352	 0.2652003017	 0.118533
H	-0.2018281806	 1.8986076246	-1.0962507313	 0.122127
H	-0.8326334868	 1.9737862888	 0.5523968502	 0.121734
H	 0.8752320918	-0.5539789935	-1.9833999657	 0.079873
H	 1.4418578484	-2.885138854	-0.5095087451	 0.109312
H	 2.6797426804	-1.6306663623	-0.5575137404	 0.095562
H	 1.38575091	-2.4689624722	 1.8487115072	 0.102277
H	 2.1772185589	-0.8951745692	 1.6551963525	 0.092478
H	 0.2357680552	 0.3858227994	 3.0191272748	 0.116336
H	-1.4354743576	 0.1533066227	 2.4585465068	 0.125322
H	-0.5882682778	-1.1621773045	 3.2877646572	 0.127708
H	-1.6260814995	-1.0457555655	-1.2801024593	 0.094058
180.8213	186.6339	192.1658	207.8091	219.6945	297.5997	365.0394	417.9129	506.1743	569.9334	614.6174	672.29	741.3984	770.237	809.3672	854.8342	877.1906	897.8512	924.7671	937.1907	980.8956	1019.5668	1026.4083	1046.1458	1059.5971	1117.7487	1126.9939	1172.8716	1194.6203	1207.8669	1219.5523	1260.6469	1276.9909	1301.6409	1321.086	1350.9173	1409.1401	1415.8027	1461.0969	1473.4116	1483.3046	1486.1588	1494.0684	1498.1031	1500.7936	3019.6992	3030.1648	3037.6608	3053.9537	3077.5111	3082.1793	3093.8601	3098.3541	3106.56	3115.7796	3161.5827	3172.1768
CC12C3CCC1(C)OC23	C[C@@]12[C@H]3CC[C@]1(C)O[C@@H]23	
InChI=1S/C8H12O/c1-7-4-3-5-6(9-7)8(5,7)2/h5-6H,3-4H2,1-2H3	InChI=1S/C8H12O/c1-7-4-3-5-6(9-7)8(5,7)2/h5-6H,3-4H2,1-2H3/t5-,6+,7-,8-/m0/s1
