15
gdb 7525	5.13511	1.20413	1.1437	1.4792	61.41	-0.2549	0.0206	0.2755	1032.0193	0.117062	-399.788977	-399.780705	-399.779761	-399.821747	30.265	
O	 0.1898304136	 1.2902505765	 0.122043361	-0.430252
C	 0.0450415852	-0.0884886816	 0.0890704066	 0.104463
C	-0.6166433193	-0.8294651791	 1.2386835956	-0.376795
C	-1.3325650162	-0.6643781272	-0.0862271871	 0.339648
O	-2.320297234	 0.3260570667	-0.1719123006	-0.469568
C	-1.5784708002	-1.8575304916	-0.9985215024	-0.391229
C	-2.7844288133	-2.5870246437	-0.599153313	 0.250072
N	-3.7483876098	-3.1211193257	-0.2513393034	-0.303087
H	-0.7014135731	 1.6602575523	 0.0547450769	 0.297452
H	 0.8774549173	-0.5738956372	-0.4129991685	 0.107485
H	-0.2489665263	-1.811750584	 1.5164306337	 0.122727
H	-0.9756861254	-0.2200279805	 2.0611343475	 0.125597
H	-3.0667542787	 0.0731547444	 0.3837448525	 0.305718
H	-1.7001501392	-1.512626043	-2.0314189935	 0.163717
H	-0.7225181706	-2.5397776563	-0.9758941553	 0.154053
63.7315	107.7241	219.4198	256.377	311.613	337.9954	376.4202	392.7327	429.8661	440.439	496.4156	663.0456	724.7624	840.1943	888.5941	907.2614	951.6846	964.6841	1022.0471	1035.1162	1096.4146	1155.8641	1197.0323	1240.1056	1298.1555	1320.8338	1335.3286	1387.2632	1430.3443	1452.3173	1485.4057	2360.0582	3049.1941	3095.0626	3131.1036	3149.4114	3225.602	3749.7675	3795.0176
OC1CC1(O)CC#N	O[C@H]1C[C@]1(O)CC#N	
InChI=1S/C5H7NO2/c6-2-1-5(8)3-4(5)7/h4,7-8H,1,3H2	InChI=1S/C5H7NO2/c6-2-1-5(8)3-4(5)7/h4,7-8H,1,3H2/t4-,5+/m0/s1
