17
gdb 46701	2.98937	1.8006	1.37025	4.2771	70.98	-0.2374	0.0189	0.2563	941.2056	0.139717	-418.000592	-417.993666	-417.992722	-418.032055	27.296	
O	 0.0244988718	-0.1024283383	-0.0577676132	-0.380552
C	-0.0140336231	 1.114003109	-0.0530327727	 0.404625
N	-1.1725059946	 1.8232808941	-0.165667725	-0.30878
C	-1.2850755141	 3.2666962532	-0.0438930836	-0.201259
C	 0.0248581429	 3.9777031745	-0.3690251056	-0.016633
C	 1.2014874767	 4.0460849791	 0.5241279622	-0.032058
C	 1.3388326639	 2.8111071604	 1.4030942769	-0.276873
C	 1.2205909851	 1.9798363857	 0.0904882418	-0.08437
N	 1.2370687914	 3.2353377081	-0.7652976187	-0.152198
H	-2.0158135379	 1.2722864055	-0.2259718523	 0.250227
H	-2.0522431149	 3.6097723164	-0.7460563552	 0.123479
H	-1.6249949202	 3.5563266601	 0.9619389426	 0.118034
H	-0.1076927041	 4.85268365	-0.9993619736	 0.106978
H	 1.7781530636	 4.9594030875	 0.6317518564	 0.098511
H	 2.3280336554	 2.7153910237	 1.8521814338	 0.125127
H	 0.5840132226	 2.6600944133	 2.1811727523	 0.112354
H	 2.0911604956	 1.3649470578	-0.1275349761	 0.113388
109.7948	121.3692	260.9232	394.8786	423.9107	470.3289	527.877	561.5187	702.2549	729.1544	740.9928	784.0033	796.818	878.6435	895.7769	953.6743	977.7807	1004.776	1020.4479	1066.6968	1070.0823	1098.7457	1143.1532	1154.0586	1229.3261	1249.0423	1263.5294	1280.4821	1308.1002	1334.088	1359.4704	1384.8283	1432.092	1486.1935	1496.5945	1529.9922	1798.482	2985.7169	3053.4422	3056.3547	3122.5013	3142.3834	3146.5801	3163.4763	3618.3209
O=C1NCC2C3CC1N23	O=C1NC[C@H]2[C@H]3C[C@@H]1N23	
InChI=1S/C6H8N2O/c9-6-4-1-3-5(2-7-6)8(3)4/h3-5H,1-2H2,(H,7,9)	InChI=1S/C6H8N2O/c9-6-4-1-3-5(2-7-6)8(3)4/h3-5H,1-2H2,(H,7,9)/t3-,4+,5+,8?/m1/s1
