19
gdb 117008	4.9745	0.5204	0.47664	4.5183	84.72	-0.2555	-0.0458	0.2096	2285.2497	0.155311	-423.009304	-422.998148	-422.997204	-423.048412	37.07	
C	-0.1348068958	 1.578809251	 0.0121981669	-0.393113
C	-0.0119626099	 0.0533156094	 0.0024777739	-0.164314
C	-1.3717003542	-0.6447147285	 0.0118252559	-0.282468
C	-1.2780464927	-2.1626763378	 0.0024914938	 0.203352
O	-0.2240235971	-2.762766684	-0.0112836209	-0.291801
C	-2.5516088801	-2.8593861214	 0.0112124406	-0.035218
C	-3.6166532319	-3.4270921895	 0.0184429759	 0.211318
C	-4.9123115911	-4.0899977469	 0.0268046855	-0.221302
O	-4.7375192747	-5.497022341	 0.0183974513	-0.401276
H	 0.8514157876	 2.0526602575	 0.0052228292	 0.117
H	-0.6837144598	 1.9419386829	-0.8641294446	 0.113234
H	-0.666470467	 1.9320628201	 0.9030729231	 0.113236
H	 0.5511030088	-0.2754733652	-0.8774164929	 0.114714
H	 0.5680989557	-0.2852160909	 0.8675136092	 0.114711
H	-1.9645578102	-0.352946858	 0.8905955426	 0.125717
H	-1.9814736963	-0.3433005934	-0.8519932192	 0.12572
H	-5.468557572	-3.7538790773	 0.9177288451	 0.127858
H	-5.4844386728	-3.7452600997	-0.8506769867	 0.127887
H	-5.6129800363	-5.8975773874	 0.0239600014	 0.294747
22.1573	39.9369	57.3406	77.5363	146.6065	153.0267	222.6774	227.3192	248.4058	342.6861	371.7444	402.7144	512.8799	571.0526	627.8745	743.9472	785.015	879.4034	898.6193	973.2927	1013.3321	1049.4564	1065.4672	1106.4591	1115.4843	1173.978	1244.4636	1246.307	1255.1947	1317.8695	1321.6239	1391.883	1412.5798	1447.6606	1456.4982	1485.7463	1490.5983	1500.5716	1507.3283	1763.197	2332.4152	2962.1013	2980.5647	3011.7699	3028.0212	3038.1137	3049.9219	3075.4689	3100.4164	3104.3093	3820.5571
CCCC(=O)C#CCO	CCCC(=O)C#CCO	
InChI=1S/C7H10O2/c1-2-4-7(9)5-3-6-8/h8H,2,4,6H2,1H3	InChI=1S/C7H10O2/c1-2-4-7(9)5-3-6-8/h8H,2,4,6H2,1H3
