19
gdb 105889	2.15861	1.49243	1.37577	2.4004	71.23	-0.2327	0.0617	0.2944	1082.046	0.157961	-460.112677	-460.103582	-460.102638	-460.146289	34.304	
C	-0.0067105704	 1.3549061543	 0.2574516094	-0.264982
O	-0.0066841997	-0.0010504239	-0.1745895077	-0.283865
C	-1.2578360611	-0.5738059466	-0.1350097962	 0.37694
C	-1.8499071644	-1.100969719	 1.1300156622	 0.003623
O	-3.135540071	-0.6887648762	 1.5385129117	-0.430591
C	-1.6188459895	-2.066542807	-0.0074334731	-0.206245
C	-2.729100232	-1.90503005	-1.050330932	-0.272977
C	-2.3347782681	-0.3928034058	-1.2146209874	 0.069912
O	-3.3017268185	 0.6090122933	-1.0400679322	-0.443962
H	 1.0158744606	 1.7223493317	 0.1488320843	 0.125753
H	-0.6822589616	 1.9694667679	-0.350384167	 0.132597
H	-0.3115383055	 1.4365485503	 1.3102587341	 0.112929
H	-1.1270023036	-1.1856202836	 1.9407639959	 0.101503
H	-3.5902576418	-1.4436719975	 1.9280424169	 0.292817
H	-0.9611603232	-2.9201704238	 0.1006573256	 0.098234
H	-2.5693907565	-2.4898048217	-1.9579981762	 0.108126
H	-3.747209281	-2.0735402409	-0.6897146346	 0.090855
H	-1.8691393215	-0.2178795982	-2.1880157655	 0.097746
H	-3.6605400611	 0.4799340366	-0.1520070884	 0.291588
80.8359	136.1106	164.6962	183.7086	228.0501	297.721	324.4085	362.3591	392.697	428.405	530.9071	562.5002	585.0434	689.6381	775.438	828.6031	841.9976	911.8786	955.9902	1004.0268	1029.1795	1043.1017	1067.2773	1108.553	1118.1987	1156.1691	1183.2834	1204.3289	1208.2519	1231.9269	1240.8133	1287.2486	1301.2438	1326.8423	1331.8307	1448.032	1460.1233	1481.4273	1486.582	1502.1684	1509.3937	3000.116	3062.3236	3063.3087	3082.8422	3117.7216	3120.9609	3126.2015	3192.2384	3762.7389	3797.2399
COC12C(O)C1CC2O	CO[C@]12[C@@H](O)[C@H]1C[C@H]2O	
InChI=1S/C6H10O3/c1-9-6-3(5(6)8)2-4(6)7/h3-5,7-8H,2H2,1H3	InChI=1S/C6H10O3/c1-9-6-3(5(6)8)2-4(6)7/h3-5,7-8H,2H2,1H3/t3-,4-,5+,6-/m1/s1
