15
gdb 31676	6.71199	0.87405	0.78001	4.9691	72.2	-0.2172	-0.0491	0.1681	1396.0626	0.112809	-453.986028	-453.977563	-453.976619	-454.01967	29.562	
C	-0.1571055682	 1.5110513872	 0.1568037091	-0.332953
N	-0.1558999474	 0.1930414704	-0.458400137	-0.388125
C	-1.122398138	-0.7241803158	-0.19152473	 0.501719
N	-1.0859006961	-2.0071720572	-0.3840151353	-0.406286
C	-2.3616272085	-2.4344723142	-0.0073265082	 0.157531
C	-2.7697627796	-3.8407027792	-0.0692471082	 0.069509
O	-3.8645860565	-4.246388086	 0.2523601008	-0.272402
C	-3.0951900114	-1.3685460282	 0.403526229	-0.100048
O	-2.3070178025	-0.2528427143	 0.2929204632	-0.177884
H	 0.6270855549	 2.1107826021	-0.3087849908	 0.138538
H	-1.1155591868	 2.0010531171	-0.0257122464	 0.156288
H	 0.0158053534	 1.4830060448	 1.2414834955	 0.130445
H	 0.7404198729	-0.230996813	-0.6401013847	 0.266671
H	-1.97491689	-4.5192947379	-0.4434498504	 0.085768
H	-4.0933346364	-1.2301761458	 0.7777429533	 0.17123
73.121	112.7408	149.0777	154.3035	231.2452	249.4653	339.101	396.4321	484.6077	610.3318	635.39	726.296	752.1753	770.4415	779.4683	949.9765	1019.142	1044.6425	1070.8134	1119.7299	1153.7523	1185.7299	1247.795	1292.5672	1393.7266	1430.3966	1441.9264	1478.933	1492.2507	1517.1051	1596.7977	1696.7976	1794.2009	2920.0291	3010.1655	3102.8778	3143.3806	3312.7497	3637.658
CNC1=NC(C=O)=CO1	CNc1nc(C=O)co1	
InChI=1S/C5H6N2O2/c1-6-5-7-4(2-8)3-9-5/h2-3H,1H3,(H,6,7)	InChI=1S/C5H6N2O2/c1-6-5-7-4(2-8)3-9-5/h2-3H,1H3,(H,6,7)
