20
gdb 99850	2.06193	1.27356	1.19431	3.4914	74.87	-0.2488	0.0249	0.2737	1208.6941	0.170007	-436.461599	-436.450919	-436.449975	-436.496669	39.263	
C	 0.0199939053	 1.6120950819	 0.0960474332	-0.398596
C	 0.0159987998	 0.0778889831	 0.0714923833	-0.006779
N	 0.7284749822	-0.5486240628	 1.1911177508	-0.520738
C	-1.4204437001	-0.5148333258	-0.0089773271	 0.08179
N	-2.144239708	 0.076413918	-1.1416187101	-0.53242
C	-1.3847281335	-2.069445267	-0.0924650924	-0.095595
O	-2.6880546171	-2.5968155712	-0.265192293	-0.422929
C	-2.1590283901	-0.1740898751	 1.228070657	 0.304776
N	-2.7212699125	 0.0272204555	 2.2181842256	-0.358863
H	 1.0515893151	 1.9786074093	 0.093622646	 0.106669
H	-0.5056831715	 2.0346329765	-0.7629870954	 0.136756
H	-0.4700434933	 1.9816046999	 1.003298767	 0.133732
H	 0.5156824642	-0.2627608951	-0.8462722053	 0.084172
H	 1.7102851423	-0.2930027373	 1.151522055	 0.233682
H	 0.3754435197	-0.1743618762	 2.0695515829	 0.240327
H	-1.5765004096	-0.0439147614	-1.9777804336	 0.230895
H	-2.9831681909	-0.4812840868	-1.2895411466	 0.247276
H	-0.8183202201	-2.3403503254	-0.9901519644	 0.106561
H	-0.8721289019	-2.4892406799	 0.7771848698	 0.129902
H	-3.13460233	-2.5700289001	 0.5885786372	 0.299383
80.6868	112.1957	144.2916	166.7842	215.3558	238.3773	252.5145	284.5146	301.0849	341.6522	354.2184	405.8855	430.763	459.9165	480.0193	606.5502	643.5939	715.6878	866.6672	889.4297	905.2905	943.9421	990.0562	1006.6186	1052.9987	1088.1161	1117.8671	1139.6739	1166.9737	1220.6	1260.4343	1340.8585	1352.7629	1373.6504	1402.6953	1409.8544	1414.3993	1486.8972	1494.6379	1500.4927	1659.1339	1660.528	2346.8536	3009.7654	3037.4463	3046.329	3105.0243	3105.4726	3131.2144	3468.8944	3480.0702	3547.7537	3562.6986	3804.386
CC(N)C(N)(CO)C#N	C[C@@H](N)[C@@](N)(CO)C#N	
InChI=1S/C5H11N3O/c1-4(7)5(8,2-6)3-9/h4,9H,3,7-8H2,1H3	InChI=1S/C5H11N3O/c1-4(7)5(8,2-6)3-9/h4,9H,3,7-8H2,1H3/t4-,5+/m1/s1
