21
gdb 96574	2.46699	1.48168	1.07087	1.9879	80.98	-0.2467	0.0048	0.2515	1194.5459	0.183767	-424.222633	-424.214079	-424.213135	-424.255397	33.467	
C	 0.1939827356	 1.6456209887	-0.1282531712	-0.408002
C	 0.0051062345	 0.1402888041	 0.000271703	 0.110468
O	 0.6104655024	-0.4334097214	-1.1739406201	-0.257981
C	 0.6530891125	-1.8307912486	-1.2369717806	 0.029311
O	-0.5958749034	-2.4410344584	-1.0048946544	-0.241385
C	-0.7341212498	-3.1967460201	 0.1872146589	-0.069197
C	-1.0261988077	-2.3483870482	 1.4423856954	-0.26364
C	 0.1431252637	-1.5055855533	 1.8936940698	-0.072274
C	 0.596392102	-0.4163696414	 1.2697729956	-0.061347
H	 1.2574397153	 1.903134046	-0.0977409085	 0.120768
H	-0.2165752073	 1.9978149987	-1.0779728037	 0.125123
H	-0.3143338645	 2.1650566691	 0.6895570134	 0.116233
H	-1.0662603684	-0.0943015857	-0.031033974	 0.081141
H	 0.9519674556	-2.0457339855	-2.2686982798	 0.105941
H	 1.3971174569	-2.2456101278	-0.5400235827	 0.079494
H	-1.5761381393	-3.8734621047	 0.0086352103	 0.108716
H	 0.1603411814	-3.8145465807	 0.3540977306	 0.096921
H	-1.9023592879	-1.7263476133	 1.2267541959	 0.123395
H	-1.3185512912	-3.0345289239	 2.245169055	 0.099908
H	 0.6716398373	-1.8526119989	 2.7793566961	 0.091804
H	 1.4792840824	 0.0907005956	 1.654696291	 0.084603
119.6149	174.4365	189.7994	238.4886	255.186	308.4535	333.7502	394.9471	418.2321	477.5295	572.0691	592.1421	636.5992	760.6515	820.0954	834.4493	877.5701	938.6417	974.4151	1005.7218	1021.9121	1048.8669	1066.1098	1080.826	1134.5771	1142.2035	1150.0407	1192.0689	1238.3763	1266.9565	1302.4712	1317.0648	1347.8225	1352.4779	1361.0976	1402.9078	1408.0028	1435.4282	1456.5496	1478.7962	1485.8159	1494.1163	1499.4304	1514.9145	1712.6346	2980.7884	2999.9793	3022.8086	3036.0436	3042.0269	3065.9919	3075.2266	3078.1396	3115.0561	3124.5645	3132.9921	3156.6158
CC1OCOCCC=C1	C[C@H]1OCOCCC=C1	
InChI=1S/C7H12O2/c1-7-4-2-3-5-8-6-9-7/h2,4,7H,3,5-6H2,1H3/b4-2-	InChI=1S/C7H12O2/c1-7-4-2-3-5-8-6-9-7/h2,4,7H,3,5-6H2,1H3/b4-2-/t7-/m1/s1
