22
gdb 9772	3.63689	1.42497	1.35482	1.3079	77.22	-0.2581	0.0681	0.3261	1063.676	0.200803	-350.229944	-350.221092	-350.220148	-350.263489	33.873	
C	-0.0188601432	 1.5696885332	-0.0976804583	-0.408742
C	 0.0253853616	 0.040811768	-0.0046322329	-0.220538
C	 0.6877234858	-0.5061491369	 1.2689399363	 0.413686
O	 2.0497774473	-0.0536714207	 1.3595617205	-0.483245
C	-0.0537752195	-0.1738263744	 2.5824165622	-0.244092
C	 0.5014700068	-1.2040196044	 3.5752030266	-0.196864
C	 0.5461352705	-2.5063738291	 2.7484631329	-0.204593
C	 0.7761271501	-2.0529795651	 1.2806639852	-0.226053
H	 0.9893346164	 1.9984995678	-0.0890163658	 0.11119
H	-0.4941473763	 1.8895855539	-1.0296743383	 0.117211
H	-0.5844674174	 2.0126695191	 0.729021736	 0.117196
H	-0.9941953317	-0.3598798396	-0.065481715	 0.090202
H	 0.5724896045	-0.3580083272	-0.8674913705	 0.100423
H	 2.0354518648	 0.8933689449	 1.5328261216	 0.273872
H	 0.0949648027	 0.8644663431	 2.8984286053	 0.081442
H	-1.1328374653	-0.3209989109	 2.4432620864	 0.090896
H	 1.5138025539	-0.9095779974	 3.8683720779	 0.106841
H	-0.0974209303	-1.2947790265	 4.485662948	 0.086182
H	 1.3177575644	-3.1960560715	 3.100083911	 0.097015
H	-0.4103198613	-3.0338489737	 2.8332655044	 0.094234
H	 0.0271996897	-2.4845046504	 0.6102905377	 0.0905
H	 1.7584220065	-2.3432336125	 0.9008577088	 0.113236
40.1487	103.191	203.5543	212.5334	249.9971	319.0543	349.1741	379.3805	410.2506	465.9784	575.3275	620.1057	748.9491	784.5353	795.2626	854.2343	896.1494	911.9255	941.1113	964.2697	985.7477	1013.555	1041.359	1055.0278	1078.4141	1102.266	1166.421	1202.6145	1227.8602	1241.8583	1277.703	1296.3974	1316.1138	1327.0768	1340.3031	1348.8988	1365.6039	1390.7374	1408.9577	1475.9258	1480.8791	1484.5835	1487.7126	1502.8083	1508.8113	1512.1774	3020.4926	3025.4508	3030.8729	3040.5183	3052.3483	3058.9758	3061.841	3072.8611	3085.5148	3097.2941	3101.6611	3105.1317	3113.9057	3810.559
CCC1(O)CCCC1	CCC1(O)CCCC1	
InChI=1S/C7H14O/c1-2-7(8)5-3-4-6-7/h8H,2-6H2,1H3	InChI=1S/C7H14O/c1-2-7(8)5-3-4-6-7/h8H,2-6H2,1H3
