18
gdb 75211	3.59098	1.3015	1.1001	1.5914	73.06	-0.235	0.029	0.264	1131.4492	0.147125	-439.085723	-439.077292	-439.076348	-439.11854	32.315	
C	 0.39254068	 1.3936432907	 0.2234878587	-0.454782
C	-0.0681782276	-0.0146926212	-0.0111941529	 0.396706
N	 0.1520530712	-0.6204614387	-1.1015564215	-0.307098
C	-0.3723200493	-1.9588325604	-1.3271255786	-0.238869
C	-0.8821201005	-2.6852214164	-0.0936634906	 0.337221
O	-1.8845950763	-3.6372628009	-0.3163033534	-0.463239
C	 0.0449426226	-2.8871433539	 1.0895316365	-0.380997
C	-1.0568878805	-1.8496729867	 1.1244012286	 0.065803
O	-0.723428568	-0.4838707472	 1.0938237393	-0.255794
H	 1.0740769712	 1.4340492832	 1.0791761408	 0.136711
H	 0.8946475204	 1.7663198397	-0.6680342766	 0.144475
H	-0.4624038186	 2.0345632586	 0.4617135598	 0.13954
H	-1.2175286617	-1.8830561088	-2.0236984247	 0.125782
H	 0.4000238493	-2.5470923298	-1.8424907665	 0.099648
H	-1.4697018355	-4.4197800264	-0.6970142146	 0.285074
H	-0.098917797	-3.7748280258	 1.6950297092	 0.120901
H	 1.0681467641	-2.5352706687	 1.0046585865	 0.128242
H	-1.9163754439	-2.0198401872	 1.7609183999	 0.120676
84.1647	136.3539	206.6841	261.3181	287.9803	312.2305	376.4911	393.906	406.4294	508.7525	550.2757	612.9724	680.9504	744.2997	799.6727	899.2323	917.7594	928.1189	974.0425	1004.8676	1031.6913	1038.0281	1065.2422	1100.1986	1122.0018	1173.0551	1217.1733	1236.6726	1281.5226	1292.4922	1348.9881	1362.5717	1407.5411	1414.9641	1474.9694	1476.7587	1481.8576	1503.341	1757.0612	3001.7036	3038.5126	3048.2627	3105.0314	3131.9138	3168.9595	3194.3077	3228.6376	3790.295
CC1=NCC2(O)CC2O1	CC1=NC[C@@]2(O)C[C@H]2O1	
InChI=1S/C6H9NO2/c1-4-7-3-6(8)2-5(6)9-4/h5,8H,2-3H2,1H3	InChI=1S/C6H9NO2/c1-4-7-3-6(8)2-5(6)9-4/h5,8H,2-3H2,1H3/t5-,6+/m1/s1
