16
gdb 45292	2.95634	1.72994	1.2956	4.9456	68.6	-0.2411	-0.0028	0.2383	964.5367	0.126317	-437.859948	-437.853167	-437.852223	-437.891146	26.803	
O	-0.1500881151	 0.0692030583	 0.0137318074	-0.325608
C	 0.0010815241	 1.2456671226	-0.0108498682	 0.409713
O	-0.9873686723	 2.2267733649	 0.074139237	-0.268093
C	-0.0649730015	 3.320633819	-0.1970877078	 0.057661
C	 0.3972061358	 4.0534801896	 1.0812622495	-0.268976
C	 1.5569658433	 3.0368344607	 1.2175746671	-0.071412
C	 2.8549129243	 3.315177896	 0.3973202342	-0.188498
N	 2.4401711479	 2.2876146255	-0.5988952327	-0.40052
C	 1.1059796702	 2.2791378785	-0.0839557727	 0.168598
H	-0.3514106935	 3.8623932783	-1.0983354062	 0.096259
H	 0.7120341991	 5.0884268375	 0.9229554747	 0.111598
H	-0.3438074434	 4.0257892849	 1.8829479915	 0.128105
H	 1.6997949662	 2.5095433069	 2.1587070684	 0.101076
H	 2.9036094934	 4.3413486345	 0.0095200016	 0.101152
H	 3.8013685769	 3.0790941834	 0.8918654359	 0.120374
H	 2.5676721244	 2.4936794595	-1.5839388198	 0.228569
147.63	153.4157	276.7151	308.6409	405.7302	448.5271	587.6134	650.7218	681.0884	733.1319	786.3858	815.3284	851.3546	895.6882	921.2866	960.0431	961.4984	986.1095	1033.0111	1048.262	1070.5297	1118.8979	1142.4276	1152.247	1195.0977	1213.6194	1259.4634	1291.5559	1299.6513	1320.7438	1342.7359	1403.0293	1463.7801	1519.9574	1938.9033	3012.6268	3065.4759	3079.6121	3115.2246	3123.4175	3137.0963	3528.3097
O=C1OC2CC3CNC123	O=C1O[C@H]2C[C@@H]3CN[C@]123	
InChI=1S/C6H7NO2/c8-5-6-3(2-7-6)1-4(6)9-5/h3-4,7H,1-2H2	InChI=1S/C6H7NO2/c8-5-6-3(2-7-6)1-4(6)9-5/h3-4,7H,1-2H2/t3-,4+,6+/m1/s1
