22
gdb 6927	4.49808	0.92475	0.86975	1.2725	79.31	-0.2577	0.0815	0.3393	1417.8267	0.198311	-350.196099	-350.186144	-350.1852	-350.230775	36.368	
C	 0.0193404915	 1.5393095282	-0.1306687051	-0.452547
C	 0.0013742744	 0.0287476698	 0.0151901013	 0.332835
C	-1.2083733942	-0.625819887	-0.6275763342	-0.446355
C	 1.3132135311	-0.7220954744	-0.0438997116	-0.327807
C	 0.552307935	-0.6306039322	 1.2639457279	-0.025057
C	 1.1091367545	 0.1269772881	 2.4506032099	-0.208903
C	 2.0617824659	-0.7268746565	 3.2815759248	-0.063165
O	 2.5219917626	 0.0635700033	 4.3682294271	-0.422925
H	 0.9175948979	 1.9901501306	 0.2978072597	 0.116057
H	-0.015304058	 1.820590154	-1.1898895454	 0.112001
H	-0.8495367368	 1.9960825625	 0.3584724114	 0.113168
H	-1.2516461943	-0.4058110116	-1.7011950976	 0.111523
H	-1.1847588197	-1.7140381381	-0.5120159796	 0.109278
H	-2.1406641872	-0.2625178572	-0.178368732	 0.11226
H	 1.3489888544	-1.6732858573	-0.5654884721	 0.102247
H	 2.2240467189	-0.1365598253	-0.1312111557	 0.103739
H	 0.0259771935	-1.5405496047	 1.5490785303	 0.073407
H	 1.651197783	 1.0223735481	 2.1297963459	 0.103975
H	 0.297189154	 0.4709562791	 3.103798349	 0.103774
H	 1.53676288	-1.6282612142	 3.6389917194	 0.080804
H	 2.8978033712	-1.067233452	 2.6499855235	 0.087686
H	 3.1277023823	-0.4688527132	 4.8916922431	 0.284008
75.1735	90.0609	117.5215	193.0447	209.1592	236.0167	261.3538	285.2543	322.9075	362.7297	400.0857	484.2576	490.6074	694.3301	795.2561	839.668	884.2081	916.2863	932.1614	970.3543	1003.7629	1017.9592	1046.2512	1058.5256	1076.299	1105.0106	1140.6023	1157.5206	1183.3055	1230.0833	1239.5249	1287.083	1314.9927	1327.5989	1342.7667	1411.4273	1425.3836	1428.7956	1460.7723	1479.3507	1486.7259	1493.8769	1496.2882	1501.0781	1515.8058	1527.4288	2961.0897	2989.7789	3016.9045	3023.7853	3032.3653	3074.6989	3078.1455	3079.9828	3095.7165	3111.3583	3115.5924	3119.0627	3200.989	3830.293
CC1(C)CC1CCO	CC1(C)C[C@H]1CCO	
InChI=1S/C7H14O/c1-7(2)5-6(7)3-4-8/h6,8H,3-5H2,1-2H3	InChI=1S/C7H14O/c1-7(2)5-6(7)3-4-8/h6,8H,3-5H2,1-2H3/t6-/m1/s1
