13
gdb 45715	2.35149	1.82995	1.06483	5.594	66.84	-0.2464	-0.1236	0.1228	1035.2627	0.08831	-456.601432	-456.593791	-456.592847	-456.634609	27.371	
O	-0.0250210693	-0.019535156	 0.2691833712	-0.261128
C	-0.0384033316	 1.1668051738	 0.0749968323	 0.30679
C	-1.326391356	 1.9758450525	-0.0152114536	-0.394655
C	-1.2250734773	 3.2178023348	-0.8498253865	-0.060176
C	-0.083903103	 3.7828886735	-1.2692370391	-0.15498
C	 1.2488562746	 3.2477609192	-0.9484287352	 0.287558
O	 2.2830746625	 3.7577222811	-1.3136714739	-0.288622
C	 1.2897747618	 1.9477872453	-0.1026766716	 0.214937
O	 2.3084994526	 1.5506941689	 0.3924198646	-0.237848
H	-2.1259413788	 1.3162873475	-0.3696456305	 0.158518
H	-1.6122777305	 2.2512964143	 1.0125778449	 0.168548
H	-2.1712249984	 3.6797316152	-1.1213193864	 0.132316
H	-0.0906461465	 4.6905001101	-1.8645437062	 0.128744
43.4099	76.5761	258.3134	316.9146	328.833	348.2346	433.0234	476.5667	544.4028	575.2658	627.3854	659.9867	834.3965	861.0644	944.9212	961.6228	985.5984	1029.7269	1115.4737	1169.6105	1212.0746	1251.1454	1337.4635	1407.5964	1430.3512	1680.7833	1777.4197	1814.3168	1832.8427	2999.6142	3073.9704	3162.2201	3192.6804
O=C1CC=CC(=O)C1=O	O=C1CC=CC(=O)C1=O	
InChI=1S/C6H4O3/c7-4-2-1-3-5(8)6(4)9/h1-2H,3H2	InChI=1S/C6H4O3/c7-4-2-1-3-5(8)6(4)9/h1-2H,3H2
