21
gdb 76821	2.6902	1.5181	1.22537	1.5094	84.53	-0.2245	0.012	0.2365	1117.6249	0.182759	-387.068642	-387.060019	-387.059075	-387.101527	33.35	
C	-0.0501505446	 1.5540942843	 0.1157218586	-0.387184
C	-0.032558361	 0.0365233917	 0.0207603849	-0.062568
C	 0.7969244746	-0.5746292461	-1.2001289497	-0.069676
C	 1.0092598976	 0.215628833	-2.4819106553	-0.409914
C	 1.9229339678	-0.6921887177	-0.1957221556	 0.21613
C	 3.1034965952	-0.17308719	 0.1224928434	-0.246547
C	 3.0880198353	 0.1089810971	 1.6187957201	-0.105662
O	 1.703608548	 0.0225503437	 2.0127563967	-0.278896
C	 1.0125838678	-0.6609372815	 0.9851570857	 0.088437
H	 0.9603625786	 1.9706676672	 0.0697834434	 0.121536
H	-0.6392579195	 1.9963455756	-0.6940087901	 0.110259
H	-0.4893604871	 1.8683519601	 1.0670639021	 0.124649
H	-1.046312075	-0.367144295	 0.1014106111	 0.067971
H	 0.3733023762	-1.5578016139	-1.4364321751	 0.084845
H	 1.4219355411	 1.20768924	-2.278274771	 0.121992
H	 1.7062894555	-0.306389138	-3.1461063953	 0.120038
H	 0.0670384124	 0.3427379468	-3.0255246011	 0.117292
H	 3.9025617655	 0.1532234949	-0.5310636726	 0.100557
H	 3.6883854882	-0.6003907338	 2.2112485919	 0.102341
H	 3.4557498323	 1.118586804	 1.8441982816	 0.109485
H	 0.6311136412	-1.6240351523	 1.3515322263	 0.074914
112.0069	147.0547	206.1087	215.5747	231.1657	239.1186	270.0875	439.0991	480.0121	510.3136	634.0626	699.1858	741.3693	787.8186	804.037	822.9821	889.479	929.5339	958.5605	987.3596	1009.1307	1018.6428	1036.5291	1061.0664	1085.237	1136.0894	1149.2081	1161.7732	1174.7916	1195.5003	1246.8584	1253.7411	1291.491	1340.049	1352.5868	1360.6514	1389.2751	1409.3982	1416.8561	1487.9788	1491.0239	1498.283	1503.6897	1516.6532	1722.1387	2969.7763	3001.9253	3029.5084	3030.9163	3034.7207	3039.3868	3058.4889	3096.9024	3106.4372	3111.1223	3116.1096	3213.0466
CC1C(C)C2=CCOC12	C[C@H]1[C@@H](C)[C]2[CH]CO[C@@H]12	
InChI=1S/C8H12O/c1-5-6(2)8-7(5)3-4-9-8/h3,5-6,8H,4H2,1-2H3	InChI=1S/C8H12O/c1-5-6(2)8-7(5)3-4-9-8/h3,5-6,8H,4H2,1-2H3/t5-,6+,8+/m1/s1
