18
gdb 80365	2.29174	1.69131	1.19204	3.3574	75.87	-0.2738	0.0144	0.2882	1074.1883	0.14679	-401.927897	-401.91924	-401.918296	-401.960798	33.13	
C	-0.0811851348	 1.5258985884	-0.1120722681	-0.426703
C	 0.0827133924	 0.0279437747	 0.0440593073	-0.009219
C	 1.3370240582	-0.7620659909	-0.1997113885	-0.073119
C	 2.5787003211	-0.0179759886	 0.3101133884	-0.302233
C	 1.9697714179	-0.043485242	 1.7599176443	 0.27761
O	 2.6083828375	-0.9773636203	 2.6098898975	-0.458679
C	 1.8362022163	 1.2467808859	 2.4597027666	 0.233308
N	 1.7743102112	 2.2580123755	 3.0171932971	-0.349551
C	 0.7077951985	-0.7086722148	 1.2014012585	-0.101779
H	 0.8022886535	 2.0905082986	 0.1916508382	 0.136046
H	-0.2903796845	 1.7729342788	-1.1583941858	 0.118451
H	-0.9187912179	 1.8886875413	 0.4920507626	 0.13146
H	-0.7923047182	-0.5214601217	-0.3008133425	 0.09846
H	 1.3697135513	-1.5981909366	-0.8867585377	 0.095221
H	 3.4818953191	-0.6301834927	 0.3019381046	 0.120287
H	 2.7923596339	 0.9584269885	-0.132332343	 0.112939
H	 3.4489879455	-0.6019726862	 2.8978193173	 0.290998
H	 0.189133439	-1.4743783579	 1.7646740835	 0.106503
111.8073	137.2012	188.0848	213.241	254.3596	297.213	324.2876	392.9375	453.106	497.8406	545.9845	596.2266	653.2788	723.1569	785.6081	827.2477	892.4638	915.062	968.2588	986.6787	997.1411	1018.3501	1068.6942	1094.6772	1103.7354	1115.3736	1156.1503	1208.623	1215.2568	1249.3589	1283.5739	1340.2149	1371.0313	1420.842	1443.448	1471.6173	1493.6966	1504.5638	2344.3264	3041.2919	3064.6667	3100.2328	3116.4913	3129.2228	3136.4076	3187.3664	3198.0788	3794.9767
CC1C2CC(O)(C#N)C12	C[C@H]1[C@H]2C[C@@](O)(C#N)[C@@H]12	
InChI=1S/C7H9NO/c1-4-5-2-7(9,3-8)6(4)5/h4-6,9H,2H2,1H3	InChI=1S/C7H9NO/c1-4-5-2-7(9,3-8)6(4)5/h4-6,9H,2H2,1H3/t4-,5+,6-,7+/m0/s1
