21
gdb 57863	2.55388	1.12179	0.87912	0.8968	82.65	-0.2579	-0.0185	0.2394	1393.3294	0.181486	-420.443189	-420.432839	-420.431895	-420.478888	37.438	
C	-0.2040578731	 1.6485541277	 0.0278834831	-0.382693
C	-0.1327270079	 0.1164208247	 0.0194646442	-0.062232
C	 0.5337843122	-0.4034835212	 1.3105364939	-0.388057
C	-1.5207762784	-0.5006109879	-0.1411130489	 0.397477
N	-2.5348562488	 0.2006570997	 0.1768796248	-0.51016
N	-1.6150436536	-1.840093251	-0.5955448663	-0.13479
C	-2.9361893135	-2.4611560813	-0.667241349	-0.376118
C	-0.5387058272	-2.6151793491	-0.997221346	 0.161428
O	-0.6279701564	-3.7562680707	-1.390437306	-0.324257
H	 0.8072643217	 2.0609187148	 0.101526343	 0.103553
H	-0.6689201577	 2.0287141674	-0.8849205069	 0.120607
H	-0.7951520405	 2.0083758742	 0.8716875991	 0.141013
H	 0.4881931645	-0.1734635713	-0.835281613	 0.092297
H	-0.0595411044	-0.1088531989	 2.1816691986	 0.134912
H	 0.6334375726	-1.492713344	 1.3260979777	 0.118716
H	 1.5339192029	 0.0267405306	 1.4184247479	 0.122877
H	-3.4153080595	-0.2984368249	 0.0727125683	 0.21858
H	-3.5800131045	-1.9263819454	-1.3728457868	 0.141605
H	-2.7951414707	-3.4836903476	-1.0115925177	 0.176795
H	-3.412684067	-2.4687981477	 0.3179586176	 0.141264
H	 0.4244076493	-2.0956724079	-0.9287621777	 0.107183
36.985	83.5203	151.707	195.0231	216.181	236.4207	245.423	289.6275	323.1887	336.8808	363.913	401.0703	455.738	511.4973	674.0189	708.7489	809.4131	875.2872	886.8736	939.4709	947.4304	972.7533	1026.3445	1078.7685	1112.2729	1131.387	1153.4586	1191.3989	1214.4886	1299.7	1324.045	1355.1802	1394.7864	1400.2277	1422.32	1440.517	1457.6218	1481.6354	1488.2391	1499.756	1505.7385	1510.9421	1513.8235	1698.2426	1793.0469	3034.7328	3039.552	3040.1552	3048.2776	3069.1506	3099.2765	3111.808	3113.7927	3118.5517	3142.0273	3175.2832	3515.4129
CC(C)C(=N)N(C)C=O	CC(C)C(=N)N(C)C=O	
InChI=1S/C6H12N2O/c1-5(2)6(7)8(3)4-9/h4-5,7H,1-3H3	InChI=1S/C6H12N2O/c1-5(2)6(7)8(3)4-9/h4-5,7H,1-3H3
