18
gdb 16984	4.20062	2.2024	1.94292	1.6247	70.98	-0.2413	0.0881	0.3294	767.3384	0.156384	-347.752689	-347.74669	-347.745746	-347.782294	25.576	
C	-0.0671150664	 1.4536392833	-0.1785904396	-0.247432
C	 1.450407756	 1.6233405349	 0.2059123194	-0.329417
C	 1.3743847822	 0.2075128094	 0.7662812074	 0.443166
C	 2.14307926	-1.0965026663	 0.9369656269	-0.312489
C	 0.8680680298	-1.9537859382	 1.3101908573	-0.210517
C	-0.1966669214	-0.8078434847	 1.3254531163	 0.055028
O	 0.5588770957	 0.2323092878	 2.0050835164	-0.341987
C	 0.0682899059	-0.1019602375	-0.0074607112	-0.042856
H	-0.7490523383	 1.9275354294	 0.5263000237	 0.120203
H	-0.3227595533	 1.7631957104	-1.1934300293	 0.09841
H	 2.0897897167	 1.6855923331	-0.6797154079	 0.104986
H	 1.7199952583	 2.4139253918	 0.9095403382	 0.110895
H	 2.6298282406	-1.4300724731	 0.0169533451	 0.099146
H	 2.8802058777	-1.0693522681	 1.7423416296	 0.108194
H	 0.6518840368	-2.7392980621	 0.5803387674	 0.096779
H	 0.951082008	-2.4078869342	 2.2995094116	 0.108244
H	-1.1734549273	-1.0247725087	 1.7635252424	 0.072029
H	 0.0703508991	-0.6814992969	-0.9326947737	 0.06762
242.936	282.3246	325.7338	395.1989	493.6028	601.7706	673.0987	732.9659	753.507	802.3917	820.5807	852.3181	868.3319	886.5139	908.38	928.8001	965.7624	990.8438	1028.2779	1054.6077	1061.2346	1129.7413	1149.9591	1161.1651	1198.6191	1210.116	1230.8443	1238.6806	1248.6451	1271.9478	1286.2246	1298.2742	1329.8812	1346.307	1461.3618	1476.7368	1479.0234	1498.9257	3058.2578	3060.5446	3068.787	3082.0912	3088.5122	3096.7341	3109.9484	3117.3317	3126.4802	3150.1485
C1CC23CCC(O2)C13	C1C[C@@]23CC[C@@H](O2)[C@@H]13	
InChI=1S/C7H10O/c1-3-7-4-2-6(8-7)5(1)7/h5-6H,1-4H2	InChI=1S/C7H10O/c1-3-7-4-2-6(8-7)5(1)7/h5-6H,1-4H2/t5-,6-,7+/m1/s1
