20
gdb 121319	2.69712	1.15548	0.9379	2.8062	76.65	-0.2259	0.0242	0.2501	1333.0604	0.17164	-440.327204	-440.317933	-440.316989	-440.362035	33.556	
C	 0.3859332204	 1.5066958494	-0.3027705486	-0.38447
C	 0.2675223127	 0.0150642448	-0.0431982971	-0.046994
O	 0.5438556062	-0.6654190125	-1.2652326821	-0.272908
C	 0.4524343184	-2.0776547489	-1.185475559	 0.021925
C	 0.5616875047	-2.6532733351	-2.5979538908	-0.242025
C	 2.0772402657	-2.8635511432	-2.8081435742	-0.162474
N	 2.5461091753	-3.084107007	-1.449485126	-0.29951
C	 1.7092756872	-2.629550713	-0.4700637017	 0.397956
O	 1.9376750834	-2.6122616642	 0.7222179201	-0.386503
H	 1.3998010902	 1.7624121476	-0.624114127	 0.124441
H	-0.310960727	 1.8211086271	-1.0852422904	 0.121065
H	 0.1611558009	 2.0676055025	 0.609331888	 0.116572
H	 0.963269953	-0.3087263529	 0.7399421138	 0.127124
H	-0.7498813617	-0.2426912352	 0.2949285136	 0.085085
H	-0.4603015697	-2.3775805261	-0.6540045595	 0.082254
H	 0.0467889624	-3.61710377	-2.6412308455	 0.114954
H	 0.1186393767	-1.9845690121	-3.3372079861	 0.120798
H	 2.293434747	-3.7244432843	-3.4481295783	 0.112529
H	 2.546089554	-1.9783779474	-3.2572510245	 0.119476
H	 3.4992553402	-3.3243684695	-1.2253638047	 0.250706
60.3628	71.6101	123.288	172.3659	207.2312	238.2633	266.94	372.499	423.3325	478.6376	537.8818	664.0935	697.0936	746.1591	819.3741	831.6002	894.7095	903.5432	928.9889	991.9643	1029.812	1080.2333	1087.9766	1134.0191	1151.9523	1189.2594	1213.6309	1220.9932	1275.829	1292.9979	1300.8344	1329.0064	1350.22	1368.9341	1401.5959	1436.0782	1447.6082	1477.5844	1483.4001	1501.111	1530.7027	1533.427	1818.3548	2971.0359	3018.7944	3020.6079	3043.1174	3055.7951	3065.2065	3078.2534	3118.3181	3118.6965	3132.3396	3633.3867
CCOC1CCNC1=O	CCO[C@H]1CCNC1=O	
InChI=1S/C6H11NO2/c1-2-9-5-3-4-7-6(5)8/h5H,2-4H2,1H3,(H,7,8)	InChI=1S/C6H11NO2/c1-2-9-5-3-4-7-6(5)8/h5H,2-4H2,1H3,(H,7,8)/t5-/m0/s1
