18
gdb 32690	4.32783	0.95116	0.82955	2.0552	87.25	-0.2122	-0.0199	0.1922	1403.1071	0.14883	-401.972354	-401.96405	-401.963105	-402.006976	30.847	
C	-0.1193072269	 1.5831171787	 0.177147514	-0.359064
C	 0.094243786	 0.0740289521	 0.0001897995	-0.138844
N	 0.7093754586	-0.4959452729	 1.1815325771	-0.315579
C	 0.0427619632	-1.244334995	 1.987077671	 0.290056
C	-1.3602913827	-1.6726224748	 1.9106705912	-0.243889
C	-1.893293374	-2.4685434625	 2.8487139396	 0.071566
O	-1.2222352421	-2.9462647943	 3.9260480287	-0.203348
C	 0.084165418	-2.5720205089	 4.0461813603	 0.058151
C	 0.7142256938	-1.7811216355	 3.1706862532	-0.191915
H	 0.8208546725	 2.0684197749	 0.4536918018	 0.126944
H	-0.4879899762	 2.0351402366	-0.7494272733	 0.105834
H	-0.8466003224	 1.7831512862	 0.9707633528	 0.112549
H	-0.8566121319	-0.3977874406	-0.2930321532	 0.077935
H	 0.7862573097	-0.0852778855	-0.8372095631	 0.101819
H	-2.0022321669	-1.3518992187	 1.1015321694	 0.114846
H	-2.9194315958	-2.8149778917	 2.8492204249	 0.137041
H	 0.5291987015	-2.9989561753	 4.9352298017	 0.137847
H	 1.7542086956	-1.5230261927	 3.3268620146	 0.118052
14.4234	96.4649	175.2453	214.2005	294.7542	375.0381	419.3177	441.9282	514.8422	553.0714	654.4168	723.4156	770.0782	814.3537	824.4268	850.3837	910.5768	938.2608	959.5088	967.1079	1013.6748	1050.0439	1060.2579	1118.573	1168.4546	1227.9555	1262.1637	1294.2144	1328.8913	1364.222	1399.6026	1417.1709	1431.8648	1488.4165	1496.5756	1519.2203	1633.5605	1667.037	1724.7828	2977.1727	3026.3509	3035.4038	3104.9608	3117.8588	3210.7487	3212.1193	3230.8604	3234.8055
CCN=C1C=COC=C1	CC[N]C1=CCOC=C1	
InChI=1S/C7H9NO/c1-2-8-7-3-5-9-6-4-7/h3-6H,2H2,1H3	InChI=1S/C7H10NO/c1-2-8-7-3-5-9-6-4-7/h3-5H,2,6H2,1H3
