13
gdb 26081	3.36675	1.13199	1.04233	4.473	63.18	-0.2739	-0.0264	0.2475	1129.1929	0.090265	-452.772724	-452.765079	-452.764135	-452.80591	27.103	
O	-0.1450182734	 1.3712033544	 0.0565734234	-0.399415
C	 0.0222543169	-0.0245428612	-0.0316264283	-0.13388
C	 0.7866247074	-0.3980476455	-1.2495453142	 0.265737
N	 1.3779976027	-0.6880773101	-2.198581214	-0.318562
C	 0.6953401489	-0.5736512128	 1.1961037568	 0.266048
C	 0.4234465326	-1.6470395073	 1.9729215156	-0.114152
O	 1.3435965254	-1.675244288	 2.9824378913	-0.135659
C	 2.1260125907	-0.5977318701	 2.7579926471	 0.089031
N	 1.7974499908	 0.0947170719	 1.7185025141	-0.312048
H	 0.6900563894	 1.7287890629	 0.3888896965	 0.309347
H	-0.9781705112	-0.459141707	-0.1295632643	 0.147147
H	-0.3118446128	-2.4325193756	 1.9632841189	 0.167978
H	 2.9295259127	-0.4237390918	 3.4558515672	 0.168427
48.353	102.4464	182.7884	219.4147	313.5334	411.6454	442.3867	472.1652	600.2081	640.6693	723.2125	778.311	803.6617	858.5078	925.5269	938.6759	995.5139	1072.9307	1097.665	1137.1226	1228.4583	1264.3997	1289.6918	1318.4997	1362.3569	1434.3914	1560.2627	1630.0822	2356.9461	3067.5897	3282.2896	3299.1697	3762.8784
OC(C#N)C1=COC=N1	O[C@@H](C#N)c1cocn1	
InChI=1S/C5H4N2O2/c6-1-5(8)4-2-9-3-7-4/h2-3,5,8H	InChI=1S/C5H4N2O2/c6-1-5(8)4-2-9-3-7-4/h2-3,5,8H/t5-/m0/s1
