17
gdb 130093	4.71258	1.27336	1.02588	2.6049	75.34	-0.2014	0.0304	0.2319	1137.8882	0.140844	-414.233597	-414.226236	-414.225292	-414.265396	28.318	
N	-0.0487734393	 1.2856432578	 0.1604078613	-0.582149
C	 0.0039581519	-0.089398173	 0.0423499544	 0.378883
N	-1.0941614806	-0.8482714495	 0.0056644488	-0.361442
N	-0.5358023019	-2.0876689159	-0.0670080447	 0.063856
C	-1.1012293166	-3.4182220429	-0.0264798786	-0.169895
C	 0.1537376053	-4.2792907305	-0.3569831545	-0.218885
C	 1.3987697007	-3.385510725	-0.0519288372	-0.357528
C	 0.7987978074	-2.0164405704	-0.0541653885	 0.390174
N	 1.2007729524	-0.7577840679	 0.0067345803	-0.417832
H	 0.7696187778	 1.7424160022	-0.2143028867	 0.256521
H	-0.9125063494	 1.6878376961	-0.1733460293	 0.254913
H	-1.5140252965	-3.6336857969	 0.9666100657	 0.125073
H	-1.9032797366	-3.534317737	-0.7601613455	 0.130459
H	 0.1624377131	-5.2125750563	 0.208399137	 0.117432
H	 0.1426616773	-4.5377551399	-1.4187944221	 0.125151
H	 1.8357870377	-3.6128406234	 0.9273762512	 0.132289
H	 2.1918749773	-3.5080569677	-0.7934616316	 0.13298
112.5449	154.2568	225.1858	282.8713	326.5171	346.0317	529.431	545.2907	622.8204	657.7647	704.1978	747.9367	774.8385	823.4483	882.157	906.0513	918.7702	1005.3655	1026.6651	1092.4018	1108.6602	1141.8402	1187.6889	1222.8952	1233.2092	1298.6669	1308.4098	1327.1106	1363.95	1418.8195	1481.0929	1498.8659	1503.4007	1534.0289	1563.429	1589.7012	1644.9004	3031.3266	3043.6535	3071.5822	3090.5156	3097.5555	3126.2866	3572.2875	3678.8901
NC1=NN2CCCC2=N1	Nc1nn2CCCc2n1	
InChI=1S/C5H8N4/c6-5-7-4-2-1-3-9(4)8-5/h1-3H2,(H2,6,8)	InChI=1S/C5H8N4/c6-5-7-4-2-1-3-9(4)8-5/h1-3H2,(H2,6,8)
