12
gdb 53774	4.52255	0.75994	0.65062	0.3737	82.16	-0.2541	-0.1044	0.1497	1580.2311	0.074808	-435.47095	-435.461833	-435.460889	-435.505737	31.762	
N	-0.049420425	 1.3286318585	 0.008214526	-0.542531
C	 0.0936373843	-0.0136231026	 0.0002556256	 0.3667
O	 1.1369415861	-0.6330648417	-0.0126821842	-0.347062
C	-1.2738710191	-0.7321706717	 0.0096556171	-0.005803
O	-2.3167572438	-0.1084212386	 0.0229355557	-0.292863
C	-1.2111931446	-2.1672927269	 0.0016227047	 0.46123
C	-1.2182943505	-3.3806304135	-0.0046280292	-0.159459
C	-1.2139036889	-4.7362541043	-0.0117338654	 0.290224
C	-1.2126986995	-5.9441172718	-0.0180345118	-0.533612
H	 0.7643590734	 1.9194984518	 0.0039151914	 0.272139
H	-0.9762254402	 1.7229187494	 0.0193987024	 0.281575
H	-1.2062331522	-7.0066103986	-0.0236307622	 0.209461
52.591	63.5169	118.6644	199.5439	278.6074	289.0586	323.6395	379.4736	450.7417	463.883	509.3517	585.9963	589.5541	632.8208	646.4235	647.3677	650.2686	839.264	951.0821	1090.4498	1226.2412	1371.3778	1587.4818	1739.2003	1811.5773	2174.0037	2330.9616	3498.8147	3596.9563	3738.1182
NC(=O)C(=O)C#CC#C	NC(=O)C(=O)C#CC#C	
InChI=1S/C6H3NO2/c1-2-3-4-5(8)6(7)9/h1H,(H2,7,9)	InChI=1S/C6H3NO2/c1-2-3-4-5(8)6(7)9/h1H,(H2,7,9)
