19
gdb 121544	7.00741	0.45846	0.44373	1.1777	84.26	-0.2503	0.0249	0.2752	2431.4062	0.156641	-422.958753	-422.948431	-422.947487	-422.997231	34.664	
C	-0.6760353012	 1.1643053197	-0.2295290733	-0.230296
O	 0.0805188446	-0.0000101743	 0.0039369006	-0.227258
C	 0.5624546034	-0.5879929049	-1.181176928	-0.043228
C	 1.3544631684	-1.8393386357	-0.7846087277	-0.357685
C	 1.9095245006	-2.5360497557	-1.9365452214	 0.067519
C	 2.3512722163	-3.098052858	-2.9064384683	 0.102305
C	 2.9041524992	-3.7479172137	-4.063022729	-0.117062
C	 2.8703595101	-5.2155739787	-4.2237915604	-0.15915
O	 1.9894611471	-4.3883003613	-4.9709681231	-0.215846
H	-0.0819962923	 1.943361778	-0.73296151	 0.10602
H	-1.563624062	 0.9574595261	-0.8479829321	 0.107046
H	-1.0026940565	 1.5420123203	 0.7422439551	 0.128973
H	-0.26722835	-0.8635010934	-1.8519916293	 0.101329
H	 1.2117690211	 0.110593767	-1.7335229691	 0.097468
H	 2.1568515221	-1.5410194449	-0.0990088495	 0.141122
H	 0.693662592	-2.5056185185	-0.2173112211	 0.141702
H	 3.7064087688	-3.2082455031	-4.565530232	 0.115105
H	 3.6597485677	-5.7048485266	-4.7934378879	 0.118233
H	 2.4046861607	-5.8179262323	-3.4461654936	 0.123705
9.6144	64.1783	69.0437	101.6636	140.4881	172.1036	231.2602	266.8605	338.0951	389.1622	474.8549	516.0403	562.7312	739.7492	795.1351	833.0866	906.5463	987.3448	1003.6477	1052.7111	1085.6511	1086.0111	1148.757	1159.6061	1164.0292	1182.0948	1185.4703	1227.2694	1232.4785	1281.7364	1299.858	1316.1077	1407.0996	1419.9388	1473.6093	1481.7079	1485.7973	1504.6768	1519.2348	1531.9308	2366.991	2963.1259	2975.6285	2997.8526	3016.2212	3032.6015	3069.9141	3083.5299	3111.5309	3115.5401	3177.1443
COCCC#CC1CO1	COCCC#C[C@H]1CO1	
InChI=1S/C7H10O2/c1-8-5-3-2-4-7-6-9-7/h7H,3,5-6H2,1H3	InChI=1S/C7H10O2/c1-8-5-3-2-4-7-6-9-7/h7H,3,5-6H2,1H3/t7-/m0/s1
