21
gdb 121826	3.32566	0.88251	0.83571	3.8744	76.	-0.2441	-0.0202	0.2239	1477.7306	0.178536	-461.364411	-461.353572	-461.352628	-461.400817	38.486	
C	-0.6614493656	 1.1691162543	-0.5318153611	-0.233769
O	-0.8440899961	-0.2284772783	-0.4651768755	-0.239801
C	-0.9204307425	-0.7256141528	 0.8655985305	-0.091849
C	-1.13259189	-2.2331865133	 0.8221575821	-0.248924
C	-2.3563235233	-2.6908833637	 0.0034479874	 0.271567
C	-3.6718686059	-2.0166239409	 0.4453500116	-0.425399
O	-2.149149216	-2.5142028246	-1.3907987094	-0.481889
C	-2.546406401	-4.1981474534	 0.1821710557	 0.15532
O	-2.4260315706	-4.7829166843	 1.2270735335	-0.267998
H	-0.6122231462	 1.4440928636	-1.5876308407	 0.135097
H	-1.4946953973	 1.7098955769	-0.0582210254	 0.112474
H	 0.2736727027	 1.4733169567	-0.0389704345	 0.115204
H	 0.0113665729	-0.4923653266	 1.4044607095	 0.099091
H	-1.7393253358	-0.2217962816	 1.4026830238	 0.098079
H	-0.2457042	-2.7059665365	 0.3860920114	 0.116585
H	-1.2308581953	-2.6100950106	 1.8448268189	 0.125409
H	-3.6338750629	-0.943155522	 0.2398048679	 0.12099
H	-4.5096035617	-2.4314960351	-0.1228630801	 0.126863
H	-3.8605002184	-2.1722143369	 1.5118364428	 0.127059
H	-1.7734568938	-1.6289993215	-1.4958528301	 0.291456
H	-2.8336001631	-4.7134118494	-0.7607950784	 0.094433
50.7575	70.7056	97.014	135.0937	196.2734	220.272	236.4374	278.9559	293.6162	318.3009	363.2725	423.5092	428.9087	495.1214	545.9095	641.7889	725.3643	840.8804	900.0461	939.9323	963.9235	1003.0196	1029.0643	1049.208	1140.4576	1148.1794	1165.5944	1192.4255	1207.9288	1226.9208	1265.05	1287.6675	1364.8782	1387.3627	1401.2041	1416.3313	1430.5699	1465.4228	1481.7694	1485.7926	1488.1399	1500.7993	1509.1019	1533.4232	1835.904	2899.7833	2973.5756	2985.9619	3003.7939	3033.7912	3039.5595	3051.3022	3101.2987	3114.7763	3121.1096	3123.207	3737.7949
COCCC(C)(O)C=O	COCC[C@@](C)(O)C=O	
InChI=1S/C6H12O3/c1-6(8,5-7)3-4-9-2/h5,8H,3-4H2,1-2H3	InChI=1S/C6H12O3/c1-6(8,5-7)3-4-9-2/h5,8H,3-4H2,1-2H3/t6-/m1/s1
