19
gdb 93960	3.2098	1.22567	1.04823	1.5381	71.21	-0.2538	0.0846	0.3384	1198.829	0.158988	-460.143515	-460.134965	-460.13402	-460.177401	31.357	
C	 0.0419987855	 1.4958819856	 0.0942966449	-0.405932
C	 0.1013229728	-0.0115615232	 0.1663255663	 0.22557
O	 0.5468205687	-0.5489849024	-1.0580949659	-0.249414
C	 1.0502891678	-1.8341164559	-0.7406524728	-0.12997
C	 1.5747933295	-1.68379075	 0.7171212314	 0.057427
O	 1.0634868125	-0.4244607965	 1.1322395643	-0.27411
C	 1.1148363347	-2.8111219052	 1.6178766915	 0.058831
C	 0.571310997	-2.5687485931	 2.9571189427	-0.170846
O	-0.2902523651	-2.8858454799	 1.8552822744	-0.236519
H	 1.0253547013	 1.8903205008	-0.1722562379	 0.130289
H	-0.6869587925	 1.8035421188	-0.6595959002	 0.129452
H	-0.2599652826	 1.9037852006	 1.0620407376	 0.128158
H	-0.8761165132	-0.4485053084	 0.432211266	 0.079249
H	 0.2558295201	-2.5920758257	-0.7874440577	 0.113532
H	 1.8333269844	-2.0874017511	-1.4585252228	 0.116057
H	 2.670895241	-1.6336970935	 0.7472834	 0.088492
H	 1.5927086009	-3.7727520983	 1.4154482658	 0.093162
H	 0.652192554	-3.3418850972	 3.71948905	 0.114191
H	 0.5008830732	-1.5446954955	 3.3125885126	 0.132381
56.3295	94.9999	161.0775	208.4657	212.8363	239.8903	328.7664	454.8864	496.2062	626.397	683.8272	708.5504	797.8361	852.9801	875.9334	877.5011	919.2103	985.6724	999.3848	1066.4373	1077.6094	1104.9649	1120.4428	1135.6616	1139.344	1166.7488	1168.2013	1173.0584	1248.5001	1286.9702	1309.9951	1354.6217	1360.9686	1395.4366	1406.8373	1430.657	1439.7331	1484.2715	1486.8978	1514.2557	1520.3956	2964.7944	3009.4782	3023.5859	3055.4172	3083.4036	3098.7719	3105.1192	3135.0772	3140.6096	3198.8018
CC1OCC(O1)C1CO1	C[C@H]1OC[C@@H](O1)[C@H]1CO1	
InChI=1S/C6H10O3/c1-4-7-3-6(9-4)5-2-8-5/h4-6H,2-3H2,1H3	InChI=1S/C6H10O3/c1-4-7-3-6(9-4)5-2-8-5/h4-6H,2-3H2,1H3/t4-,5+,6+/m0/s1
