19
gdb 61020	4.18571	0.99058	0.91835	2.3532	77.05	-0.2432	0.0242	0.2673	1296.9936	0.160085	-419.175133	-419.166633	-419.165689	-419.208667	31.614	
C	-0.3024170208	-0.7297955353	 1.3343358911	-0.353508
N	-0.013696241	 0.0096149168	 0.1149634152	-0.053695
C	 0.3716019007	 1.3202099479	 0.2193050837	 0.150663
O	 0.5057542327	 1.9384789224	 1.2527178869	-0.340458
C	-0.1197457403	-0.6149174175	-1.1827889938	 0.039019
C	 0.7209060729	-1.8602551519	-1.602457568	-0.212381
N	-0.4917926944	-2.5176426741	-2.2099207081	-0.115416
C	-1.3753641409	-2.801115391	-1.0738343644	-0.238305
C	-1.3535840457	-1.4165695707	-1.5939657843	-0.066875
H	-1.3473530897	-1.0536804496	 1.3621929601	 0.133066
H	 0.3409806895	-1.6117724647	 1.4250523416	 0.124341
H	-0.1092231057	-0.0592742028	 2.1716295743	 0.170602
H	 0.5540497117	 1.7721924974	-0.7751916937	 0.075494
H	 0.0467119339	 0.1746871005	-1.9196093184	 0.108322
H	 1.478320536	-1.6492847671	-2.3587622256	 0.120335
H	 1.17290481	-2.4460099489	-0.796109522	 0.112448
H	-2.2382779538	-3.4022153518	-1.3442853691	 0.128065
H	-0.9341269199	-3.0541324502	-0.1135819751	 0.114546
H	-2.2032699649	-0.9981637792	-2.1247162103	 0.103737
57.6785	134.8849	161.25	179.4667	295.0762	326.9362	331.8094	387.3691	415.282	498.7618	656.5239	749.7768	772.5067	794.2557	854.9974	945.6262	963.5852	999.8123	1007.8812	1027.9443	1062.1399	1075.5666	1103.8593	1113.6268	1128.7191	1156.4206	1195.8468	1219.2877	1255.5375	1283.3575	1290.3051	1331.6652	1376.5473	1437.1485	1440.2614	1462.2453	1492.1575	1498.435	1515.005	1518.7747	1798.3681	2937.8537	3031.8906	3058.9657	3077.631	3090.0848	3113.6995	3125.2137	3156.9035	3159.4056	3200.8325
CN(C=O)C1CN2CC12	CN(C=O)[C@H]1CN2C[C@@H]12	
InChI=1S/C6H10N2O/c1-7(4-9)5-2-8-3-6(5)8/h4-6H,2-3H2,1H3	InChI=1S/C6H10N2O/c1-7(4-9)5-2-8-3-6(5)8/h4-6H,2-3H2,1H3/t5-,6-,8?/m0/s1
