20
gdb 122083	2.55406	0.8345	0.69555	4.3156	76.86	-0.2829	0.0155	0.2984	1685.559	0.168697	-440.287085	-440.276399	-440.275454	-440.324054	36.811	
C	-0.235254043	 1.3722896938	-0.0116637078	-0.384995
C	 0.1520952459	-0.108835157	 0.002939275	-0.186888
C	 0.6697012924	-0.5781620706	-1.348116173	-0.053566
O	 1.0117087397	-1.958925583	-1.24286493	-0.261633
C	 1.5306990827	-2.5455973445	-2.4146147794	-0.044965
C	 1.9561105574	-3.9682119084	-2.0203597582	-0.069586
O	 0.8772750072	-4.7055226682	-1.5063680362	-0.408132
C	 0.5289075466	-2.5617262177	-3.5050596113	 0.281406
N	-0.2453021324	-2.5463354007	-4.3624272136	-0.323384
H	 0.6211753162	 2.0071576377	-0.2634294904	 0.119781
H	-1.0237849158	 1.5711443473	-0.7451935981	 0.125289
H	-0.605323837	 1.6874974325	 0.9676668303	 0.123367
H	 0.9239301115	-0.2937304586	 0.7587515051	 0.109046
H	-0.7121705346	-0.7242783817	 0.2774216881	 0.112627
H	-0.0935898524	-0.4389609656	-2.1272665534	 0.121153
H	 1.5602599087	-0.0019760286	-1.6468882028	 0.095131
H	 2.4092787604	-1.9883113563	-2.7790764301	 0.113459
H	 2.3314618885	-4.5002277648	-2.8989869023	 0.130086
H	 2.7777618724	-3.8677765516	-1.2947631808	 0.104795
H	 0.4801670757	-4.1646844441	-0.8131778209	 0.29701
57.721	60.8564	86.8827	117.3899	142.4374	185.7051	225.6916	238.0292	293.8545	367.5645	381.382	434.4137	466.538	616.8021	703.4815	767.7717	840.2971	903.2276	905.3754	922.7007	1005.4429	1050.1104	1071.4137	1100.6067	1144.2824	1147.4755	1191.3664	1242.4609	1272.4891	1296.8801	1320.2281	1336.9212	1352.6899	1395.5309	1415.1786	1429.4133	1442.5269	1493.0158	1493.7606	1501.2384	1507.5599	1525.8897	2355.6896	2975.2646	2978.278	2996.0194	3023.3955	3035.8195	3040.6738	3075.6772	3098.1492	3104.998	3114.1886	3796.7716
CCCOC(CO)C#N	CCCO[C@@H](CO)C#N	
InChI=1S/C6H11NO2/c1-2-3-9-6(4-7)5-8/h6,8H,2-3,5H2,1H3	InChI=1S/C6H11NO2/c1-2-3-9-6(4-7)5-8/h6,8H,2-3,5H2,1H3/t6-/m1/s1
