18
gdb 84422	2.92265	1.29141	0.98336	2.1952	76.97	-0.2254	-0.0153	0.2101	1193.253	0.147856	-439.119715	-439.110992	-439.110048	-439.153314	32.494	
C	-0.2511390897	 1.5229849163	-0.0085544507	-0.39641
C	 0.0330867934	 0.0264745107	-0.0230871716	-0.012447
C	 0.8635015858	-0.4604538245	-1.2629723702	 0.0729
O	 1.5726756906	 0.5728836613	-1.9404222002	-0.420469
C	 1.7908178403	-1.4847866854	-0.6580079345	-0.226794
C	 1.7771815894	-1.3816385019	 0.6746910731	 0.016045
N	 0.8364598204	-0.4528871632	 1.1270406799	-0.068846
C	 0.612921311	-0.1929987794	 2.4512346181	 0.144062
O	 1.2466303175	-0.6800039861	 3.3638826742	-0.329559
H	 0.6753358447	 2.0993019885	 0.0379294931	 0.12622
H	-0.7729334348	 1.8039771893	-0.9268471009	 0.137736
H	-0.8829290685	 1.8050214964	 0.8378785855	 0.122217
H	-0.9123301516	-0.530986576	-0.0234772512	 0.101461
H	 0.1853507769	-0.8655147867	-2.019235742	 0.098211
H	 2.3774643859	 0.746724619	-1.4390105833	 0.280614
H	 2.4413819873	-2.1220437469	-1.2386828578	 0.11376
H	 2.3597022988	-1.901271579	 1.4214608333	 0.159465
H	-0.2161140174	 0.5204865777	 2.6047264952	 0.081832
54.5071	130.2716	222.2061	227.3998	250.7763	275.8357	325.875	346.6995	393.3726	485.3372	566.7693	598.5989	722.0509	772.8133	790.6145	843.8474	871.7228	960.0041	983.3148	1000.4582	1023.7523	1047.4125	1088.2387	1133.608	1151.1152	1229.5343	1240.9633	1293.8987	1324.6996	1334.4173	1374.7489	1415.9928	1419.5957	1432.9676	1444.2068	1486.7243	1498.9508	1667.4215	1785.7291	2975.4436	3018.6186	3055.1542	3073.7539	3124.6181	3136.7974	3240.0331	3263.5221	3797.0647
CC1C(O)C=CN1C=O	C[C@H]1[C@@H](O)C=CN1C=O	
InChI=1S/C6H9NO2/c1-5-6(9)2-3-7(5)4-8/h2-6,9H,1H3	InChI=1S/C6H9NO2/c1-5-6(9)2-3-7(5)4-8/h2-6,9H,1H3/t5-,6-/m0/s1
