23
gdb 96330	2.00066	1.60292	0.9704	1.6536	82.49	-0.2474	0.0827	0.3301	1299.7626	0.205998	-425.443253	-425.43382	-425.432876	-425.477207	36.11	
C	 0.1301758605	 1.5695318562	 0.0998650924	-0.397025
C	 0.0190539546	 0.0506962916	 0.012919631	 0.13052
C	 0.6307210905	-0.4933729701	-1.2891806845	-0.179494
C	 0.2098770657	-1.9198248175	-1.7013093097	-0.224343
C	-0.083198587	-2.875529091	-0.5343045416	-0.072718
O	 0.8122940381	-2.7402494548	 0.5572484023	-0.246403
C	 0.4328179336	-1.7854793181	 1.5234646642	 0.210322
C	 1.216332377	-2.0717892815	 2.7907683303	-0.402317
O	 0.716030205	-0.4617627968	 1.1508052956	-0.260415
H	 1.175999039	 1.8797303219	 0.0073532124	 0.124272
H	-0.4441642151	 2.0466643273	-0.6996764781	 0.111044
H	-0.2466669561	 1.9237746847	 1.0627016585	 0.119269
H	-1.0449655555	-0.2333556056	 0.0844771191	 0.061109
H	 0.3947494283	 0.1922947901	-2.1109410056	 0.092379
H	 1.7161407085	-0.4544602474	-1.1501298856	 0.114821
H	-0.6929095121	-1.8828176597	-2.3244909734	 0.095713
H	 0.9978687298	-2.3438203803	-2.3331380061	 0.105124
H	-1.1144669344	-2.730536983	-0.1777047277	 0.088669
H	-0.0068958027	-3.9131589651	-0.8767634422	 0.102977
H	-0.6570333691	-1.8828593883	 1.6943139065	 0.051389
H	 2.2860483829	-1.9930293511	 2.5814119493	 0.133282
H	 0.9537108191	-1.3483003218	 3.5655510485	 0.121697
H	 0.9977971593	-3.0809542498	 3.1463777045	 0.120127
87.5102	123.9601	173.6052	202.9615	216.3694	247.9758	310.0403	346.1695	376.5036	384.4103	474.9589	528.0663	611.0241	613.8248	770.2646	818.9526	844.5768	851.5601	924.8413	938.6342	992.342	1024.1878	1057.3431	1088.4589	1102.6652	1117.2691	1141.815	1159.2887	1170.8098	1190.5144	1243.8334	1279.2526	1310.1742	1330.771	1353.349	1379.4791	1386.2991	1399.0379	1405.7116	1407.5705	1425.7941	1434.9093	1471.0387	1481.8014	1485.0172	1488.6215	1492.0012	1500.2112	1510.0563	2909.2438	2954.3867	2987.1547	3024.421	3038.053	3043.5542	3056.381	3058.056	3071.3371	3087.6034	3113.7563	3122.9893	3138.3342	3141.4241
CC1CCCOC(C)O1	C[C@H]1CCCO[C@@H](C)O1	
InChI=1S/C7H14O2/c1-6-4-3-5-8-7(2)9-6/h6-7H,3-5H2,1-2H3	InChI=1S/C7H14O2/c1-6-4-3-5-8-7(2)9-6/h6-7H,3-5H2,1-2H3/t6-,7+/m0/s1
