14
gdb 12187	3.12442	1.66849	1.38754	0.9382	64.8	-0.2528	-0.0401	0.2127	928.5521	0.103994	-382.499459	-382.491421	-382.490476	-382.532314	28.624	
C	 0.411609343	 1.5105520809	-0.0806689619	-0.401937
C	 0.0324620117	 0.0482470208	 0.0731337242	 0.032488
O	 0.7779500152	-0.8434258127	-0.796191728	-0.296269
C	 1.3264113285	-1.6386755244	 0.2854871173	-0.172078
C	 2.7718731653	-1.6681824426	 0.3453200781	 0.333354
C	 3.9712034248	-1.6772867038	 0.4218937722	-0.431224
C	 0.5888702131	-0.7002688728	 1.2897884372	 0.327979
O	 0.5151587834	-0.6053511036	 2.4717421431	-0.261277
H	 1.4859086622	 1.651401717	 0.0640060582	 0.137852
H	 0.1458257492	 1.8624258643	-1.0814666998	 0.13922
H	-0.1280839347	 2.1136353474	 0.6558429604	 0.137456
H	-1.0508231543	-0.0938345681	-0.049431643	 0.111238
H	 0.9102419433	-2.6560767709	 0.2852358987	 0.133753
H	 5.0315597093	-1.6918522313	 0.4839351432	 0.209447
53.5101	122.6086	191.9458	201.1266	225.9045	350.0318	396.5864	492.6874	536.006	593.5404	619.0052	684.3647	707.1034	846.4698	868.2227	926.1845	999.1466	1047.3097	1064.0838	1095.0433	1125.7944	1198.9647	1277.5211	1304.784	1361.452	1399.567	1480.6167	1493.937	1933.1642	2235.2062	3006.8331	3012.2413	3044.8491	3122.0628	3128.385	3501.9833
CC1OC(C#C)C1=O	C[C@H]1O[C@@H](C#C)C1=O	
InChI=1S/C6H6O2/c1-3-5-6(7)4(2)8-5/h1,4-5H,2H3	InChI=1S/C6H6O2/c1-3-5-6(7)4(2)8-5/h1,4-5H,2H3/t4-,5+/m1/s1
