19
gdb 40063	3.21975	1.52359	1.41869	2.8481	73.13	-0.2481	0.0755	0.3236	992.6798	0.161817	-423.019401	-423.012415	-423.011471	-423.050714	28.626	
C	 0.0957106677	 1.5175613845	 0.0109323967	-0.273969
O	 1.2241030494	 0.633624204	-0.0066915483	-0.284472
C	-0.0817906858	 0.0653682904	 0.0222432094	 0.486923
C	-0.4828168105	-0.7995360923	 1.2255934669	-0.323354
C	-1.1327193678	-1.9971897356	 0.4930144182	 0.076385
C	-2.5113896668	-1.5869004355	-0.0736514598	-0.217531
C	-2.0838669072	-0.6907069385	-1.2760037102	-0.225452
C	-0.5418585653	-0.7708451172	-1.1706956846	-0.018839
O	-0.3272359067	-2.1070821584	-0.6926955092	-0.262679
H	-0.0390728836	 2.0878678541	 0.9295115074	 0.113192
H	-0.0682979797	 2.0827022999	-0.9070120968	 0.111302
H	 0.4164669068	-1.1088034705	 1.7641275061	 0.125609
H	-1.1560967033	-0.2950371706	 1.9232392015	 0.103506
H	-1.1100717261	-2.9405217693	 1.0378234223	 0.081767
H	-3.0640610526	-2.4663570215	-0.4108267553	 0.108561
H	-3.1275961065	-1.0606438659	 0.6598097593	 0.099225
H	-2.4206678423	-1.1107573073	-2.225949568	 0.10926
H	-2.4578162765	 0.3338030379	-1.2065748845	 0.101888
H	 0.0212610067	-0.596895028	-2.0867192713	 0.088678
100.3189	210.8739	290.3544	328.238	381.2979	439.8525	523.4307	566.0833	676.2362	784.1959	821.8913	824.9321	839.398	858.4645	895.8072	919.84	941.2442	954.4772	965.1844	998.0551	1021.1043	1027.5417	1078.2714	1111.4608	1130.9051	1163.0077	1183.1338	1207.7743	1229.2727	1237.4411	1266.8059	1276.439	1297.3163	1319.3348	1331.6879	1350.7793	1434.1256	1477.2187	1485.0262	1505.4991	1537.1765	3063.1696	3065.7282	3072.6187	3073.5741	3104.2803	3115.4255	3122.7384	3127.7194	3136.7225	3156.1165
C1OC11CC2CCC1O2	C1O[C@]21C[C@H]1CC[C@@H]2O1	
InChI=1S/C7H10O2/c1-2-6-7(4-8-7)3-5(1)9-6/h5-6H,1-4H2	InChI=1S/C7H10O2/c1-2-6-7(4-8-7)3-5(1)9-6/h5-6H,1-4H2/t5-,6+,7+/m1/s1
