22
gdb 26361	3.81503	0.9308	0.89937	1.9796	90.4	-0.1938	0.0539	0.2477	1460.8405	0.193878	-367.262662	-367.252804	-367.25186	-367.297883	36.688	
C	 0.0245156765	 1.5349372094	-0.0351546768	-0.378943
C	-0.0138830658	 0.0042869069	 0.0597962538	 0.037465
C	 0.7668454426	-0.5184455239	 1.2724638524	-0.379002
N	-1.3882889693	-0.4952148562	 0.0556360165	 0.024873
C	-2.35013445	-0.2406633658	 1.0025729346	-0.090992
C	-3.5047104201	-0.8915090352	 0.6340354616	-0.268259
C	-3.2467526522	-1.5758999672	-0.5896630949	 0.256837
C	-4.2043466925	-2.4207131808	-1.3756770085	-0.496703
C	-1.9344201089	-1.3068005547	-0.9116685111	-0.190031
H	 1.0584929759	 1.8849586465	-0.1133875459	 0.115995
H	-0.5279634835	 1.8829751458	-0.9119496991	 0.128309
H	-0.4202598786	 1.9956383783	 0.8524461997	 0.122365
H	 0.4438920564	-0.4071252647	-0.846027431	 0.091296
H	 0.7349567759	-1.6104584433	 1.3127510814	 0.128313
H	 1.8130800627	-0.2023410498	 1.2157666752	 0.116007
H	 0.3486732867	-0.1309492277	 2.2067403722	 0.122366
H	-2.137561557	 0.3798752633	 1.8584012677	 0.111528
H	-4.4364803386	-0.8806789479	 1.1805736478	 0.085506
H	-5.0835428715	-1.849690425	-1.6976302446	 0.12036
H	-3.7288184245	-2.8247252859	-2.2746537792	 0.113637
H	-4.5748446719	-3.270569345	-0.7899098487	 0.120346
H	-1.3408467624	-1.628046577	-1.7542680732	 0.108726
33.4376	98.7521	115.9787	191.4831	229.1097	250.5301	260.986	297.657	355.5926	407.3063	486.3289	616.0324	634.7415	643.1555	677.494	685.1276	759.2146	803.9587	881.2149	930.4272	947.4512	980.8023	1003.9895	1013.7875	1062.0471	1084.7503	1108.6222	1143.4468	1172.6468	1209.096	1267.6882	1322.4687	1346.5335	1355.1709	1399.6752	1409.3496	1418.6708	1421.3659	1452.2584	1483.9262	1484.3301	1486.8352	1497.9944	1499.8754	1508.519	1531.305	1607.9301	3020.2736	3038.3579	3042.6599	3051.5131	3066.5448	3098.8955	3107.5615	3115.6289	3120.62	3123.0217	3232.8044	3243.9121	3261.9164
CC(C)N1C=CC(C)=C1	CC(C)n1ccc(C)c1	
InChI=1S/C8H13N/c1-7(2)9-5-4-8(3)6-9/h4-7H,1-3H3	InChI=1S/C8H13N/c1-7(2)9-5-4-8(3)6-9/h4-7H,1-3H3
