15
gdb 42679	3.24697	1.66999	1.26416	5.0303	70.5	-0.2253	-0.0761	0.1493	958.2524	0.114237	-420.60885	-420.602395	-420.601451	-420.639769	25.613	
O	 0.0112061274	-0.0090415341	-0.0327929634	-0.301414
C	-0.0371417027	 1.1902158157	 0.0030669134	 0.317986
C	-1.208380717	 2.1272132944	 0.0690088029	-0.143618
C	-0.8755493979	 3.368803561	-0.8424258583	-0.064948
C	-1.6419220394	 4.2783932187	 0.1450689414	-0.233373
C	-0.8132821324	 3.3153032867	 1.0257728874	-0.064948
C	 0.4124519915	 3.5085513255	 0.0545518133	-0.143616
C	 1.1512517837	 2.2030016991	-0.0073814388	 0.317985
O	 2.327247422	 1.9647800807	-0.0534879926	-0.301414
H	-2.2186342314	 1.7237343861	 0.0911312475	 0.099575
H	-0.8927421467	 3.3775554492	-1.9327872543	 0.101706
H	-1.3529200927	 5.3324747936	 0.1656200715	 0.107401
H	-2.7282144578	 4.1603927768	 0.1778988045	 0.1074
H	-0.7578705425	 3.261674536	 2.1135749908	 0.101707
H	 0.971165956	 4.4421840907	 0.0626620949	 0.099574
126.4364	189.4892	296.0417	358.9277	515.5013	531.0633	559.3429	679.1781	687.0686	759.768	794.1876	872.5439	879.3854	902.4346	907.5811	931.0282	1008.2601	1028.3512	1058.3745	1080.5229	1084.5196	1141.6702	1152.2602	1188.4427	1208.868	1208.8717	1229.893	1255.597	1261.1432	1308.8028	1514.2967	1861.0247	1873.5614	3053.835	3110.5093	3111.5085	3119.0998	3147.2536	3147.5264
O=C1C2C3CC2C3C1=O	O=C1[C@@H]2[C@H]3C[C@@H]2[C@H]3C1=O	
InChI=1S/C7H6O2/c8-6-4-2-1-3(4)5(2)7(6)9/h2-5H,1H2	InChI=1S/C7H6O2/c8-6-4-2-1-3(4)5(2)7(6)9/h2-5H,1H2/t2-,3+,4-,5+
