17
gdb 53626	2.30308	0.83054	0.61503	1.2451	83.19	-0.2462	-0.0184	0.2278	1753.037	0.133989	-418.011847	-418.001589	-418.000645	-418.050465	34.085	
C	-0.4631629585	 1.1971512042	 0.0109628653	-0.497292
C	-0.1029483748	-0.2056823469	-0.1390489308	 0.04637
C	 0.2129319297	-1.3616228799	-0.2643071466	 0.057654
C	 0.5608619469	-2.7756999515	-0.4137605894	-0.265231
N	-0.5265062046	-3.7527162588	-0.3792971445	-0.270352
C	-1.7150168514	-3.3466960455	-0.2241113184	 0.139869
N	-2.7573953986	-4.2657972075	-0.1897108143	-0.312415
C	-4.079809469	-3.9268717736	-0.0256234662	 0.159061
O	-4.4951974817	-2.8004086598	 0.1075601638	-0.296478
H	 0.4304868798	 1.8286311715	 0.0636648744	 0.150992
H	-1.0674702775	 1.5462799099	-0.8332107997	 0.152255
H	-1.041767878	 1.36379602	 0.9259045097	 0.153208
H	 1.0975661617	-2.9249742863	-1.3605718231	 0.140182
H	 1.2768413337	-3.0635579773	 0.3680870729	 0.140178
H	-2.0389312235	-2.312046574	-0.1082398166	 0.149621
H	-2.5033172178	-5.2382663866	-0.2936618823	 0.26321
H	-4.7305340463	-4.8218793177	-0.0298632444	 0.089168
7.5186	57.7275	58.2269	146.9376	173.6426	186.554	232.2223	282.2175	356.0256	368.3981	388.49	435.3452	611.9673	657.5852	770.4959	807.0019	953.7352	1012.2348	1030.4172	1043.6977	1052.6453	1054.0399	1095.5043	1156.0817	1246.8621	1262.7689	1333.8991	1362.5479	1414.8084	1438.8011	1465.5597	1476.4581	1478.7802	1502.1351	1752.8978	1819.4601	2364.402	2955.6036	3012.3473	3029.3465	3029.4003	3091.1581	3091.9664	3136.8289	3609.4157
CC#CCN=CNC=O	CC#CCN=CNC=O	
InChI=1S/C6H8N2O/c1-2-3-4-7-5-8-6-9/h5-6H,4H2,1H3,(H,7,8,9)	InChI=1S/C6H8N2O/c1-2-3-4-7-5-8-6-9/h5-6H,4H2,1H3,(H,7,8,9)
