17
gdb 47603	2.31943	1.90902	1.15914	1.2636	67.15	-0.238	-0.0343	0.2037	1028.1272	0.136933	-458.953015	-458.94549	-458.944545	-458.98596	28.156	
O	-0.2193079903	 0.376261093	 0.9884932142	-0.304928
C	-0.1348559157	 1.3184876909	 0.2375663593	 0.328269
C	-1.3778271349	 1.9104086114	-0.4332808372	-0.177239
O	-1.1229283025	 3.0384238016	-1.2434605278	-0.240294
C	-0.3291158795	 4.0026174882	-0.5638784259	-0.119055
C	 1.1072387388	 3.4830018263	-0.4807060805	 0.117109
O	 1.8148452616	 3.8794154236	 0.7135600645	-0.291846
C	 2.0009120271	 2.506356325	 1.1260633532	-0.079844
C	 1.1859585191	 1.9923254686	-0.0832164229	-0.170667
H	-1.8280887588	 1.1431462458	-1.0715688447	 0.14474
H	-2.1023361463	 2.1425025431	 0.3653723703	 0.126708
H	-0.4026743663	 4.9311077545	-1.1348507293	 0.120084
H	-0.7083724	 4.1891898817	 0.4532080426	 0.104593
H	 1.670778838	 3.74383644	-1.3841027774	 0.086805
H	 3.0583990986	 2.2200130947	 1.1288269539	 0.112705
H	 1.5685535716	 2.2994286363	 2.1107825324	 0.123191
H	 1.7414816092	 1.3513361352	-0.7725221948	 0.119669
49.4106	79.8279	238.6116	288.8444	359.9456	436.8228	451.325	475.368	564.7096	649.681	715.9978	794.3184	882.5896	944.1098	960.0211	965.7522	976.4235	1027.4944	1061.6357	1103.7288	1120.6931	1141.8076	1151.96	1180.7088	1217.4907	1229.65	1267.8292	1302.4291	1316.4086	1340.972	1354.1205	1376.2768	1397.7075	1453.5627	1501.5661	1530.2783	1816.4424	2975.1189	2989.144	3030.0736	3036.0284	3075.7803	3082.8576	3086.9057	3104.2022
O=C1COCC2OCC12	O=C1COC[C@H]2OC[C@@H]12	
InChI=1S/C6H8O3/c7-5-2-8-3-6-4(5)1-9-6/h4,6H,1-3H2	InChI=1S/C6H8O3/c7-5-2-8-3-6-4(5)1-9-6/h4,6H,1-3H2/t4-,6+/m0/s1
