16
gdb 19313	7.09024	0.80728	0.80317	2.2213	77.09	-0.2387	0.0249	0.2636	1441.1948	0.129785	-346.534819	-346.526805	-346.525861	-346.568875	28.361	
C	-0.1687154686	 1.3431039288	-0.2471584507	-0.249534
C	 1.2136870621	 1.0390678407	 0.2436033619	-0.251315
C	 0.220777451	-0.0984228583	 0.0469157907	-0.160671
C	-0.3343679014	-0.7749217973	 1.180518465	 0.11478
C	-0.8071534756	-1.3431853767	 2.1340856381	 0.074341
C	-1.3481080462	-2.0519052321	 3.2595466191	-0.115424
C	-1.8877484175	-1.3501172544	 4.4414958288	-0.160709
O	-2.7651697692	-1.9552742315	 3.5026500551	-0.216618
H	-0.8631816685	 1.8129264518	 0.4386391132	 0.12994
H	-0.3039626982	 1.6137453163	-1.2880743974	 0.121669
H	 2.0394883407	 1.098456163	-0.4562036681	 0.120905
H	 1.4630248544	 1.3020211059	 1.2644782848	 0.127512
H	 0.3911600792	-0.7264063547	-0.8227680801	 0.113611
H	-0.95239984	-3.0555038573	 3.4137987782	 0.114425
H	-1.8296255695	-1.8314881565	 5.4173141922	 0.116783
H	-1.8866977727	-0.2616408478	 4.4516706492	 0.120304
27.8575	84.5093	102.508	219.332	226.1333	394.6036	479.599	540.3645	557.2646	679.6372	790.1856	820.9278	823.2282	852.0796	893.135	928.7737	989.8631	1062.3518	1069.0555	1080.8642	1096.0331	1117.0531	1152.7952	1161.92	1189.1523	1200.9217	1231.294	1283.3642	1383.2244	1417.4391	1467.2181	1497.8771	1520.0907	2355.6928	3082.0014	3110.9688	3142.4782	3144.091	3148.8258	3174.4381	3227.4189	3242.4394
C1CC1C#CC1CO1	C1CC1C#C[C@H]1CO1	
InChI=1S/C7H8O/c1-2-6(1)3-4-7-5-8-7/h6-7H,1-2,5H2	InChI=1S/C7H8O/c1-2-6(1)3-4-7-5-8-7/h6-7H,1-2,5H2/t7-/m0/s1
