15
gdb 29064	2.67875	1.6564	1.02351	4.7533	83.63	-0.2191	-0.0658	0.1533	1087.7383	0.11483	-420.674334	-420.667113	-420.666169	-420.706223	28.013	
O	-0.0450285955	 1.3585893025	 0.0096109119	-0.373595
C	 0.0342563907	 0.0154897184	 0.0023596551	 0.269226
C	 1.2551087403	-0.6059756504	-0.0078685537	-0.215879
C	 1.5973246442	-1.9813930562	-0.0168464879	-0.067417
C	 0.7777510712	-3.072195857	-0.0182465838	-0.115605
C	-0.6425872161	-3.0717443687	-0.0108214666	-0.076518
C	-1.5186919354	-2.0294707177	-0.0001925139	-0.159065
C	-1.3334339473	-0.5837196181	 0.007580264	 0.280921
O	-2.3025440614	 0.1649234108	 0.0182856156	-0.357581
H	 0.8440023115	 1.7336122981	 0.0060724233	 0.303966
H	 2.112305684	 0.0686263157	-0.0092780444	 0.083963
H	 2.6662306581	-2.1779112452	-0.0236024266	 0.104437
H	 1.2547084503	-4.0474372609	-0.0259593994	 0.101115
H	-1.0981379017	-4.0598279288	-0.0141165431	 0.10605
H	-2.5780826829	-2.2726224626	 0.0040226694	 0.115981
71.2952	182.0136	347.8518	357.6208	366.8739	399.4296	446.2426	511.33	528.4099	603.8591	673.3745	732.552	747.8406	790.926	882.4647	884.7952	929.5797	977.6968	1001.5652	1041.1372	1058.5016	1202.1074	1224.3014	1277.9996	1298.9812	1327.7365	1438.0099	1463.3769	1509.88	1550.0995	1645.3646	1658.8584	1707.2929	3108.7858	3144.4744	3160.3207	3173.3179	3183.8591	3794.5821
OC1=CC=CC=CC1=O	Oc1cccccc1=O	
InChI=1S/C7H6O2/c8-6-4-2-1-3-5-7(6)9/h1-5H,(H,8,9)	InChI=1S/C7H6O2/c8-6-4-2-1-3-5-7(6)9/h1-5H,(H,8,9)
