19
gdb 99056	3.39774	0.78486	0.72886	3.8762	78.43	-0.2646	0.0079	0.2725	1630.3618	0.157394	-419.263789	-419.253209	-419.252265	-419.301234	36.428	
C	 0.1216274739	 1.5033180529	 0.2752111216	-0.36977
C	 0.051362239	 0.0070422614	-0.0274013372	-0.308371
C	 0.775259952	-0.3587295057	-1.3186592587	 0.437228
O	 0.997438938	 0.4388170527	-2.2100642942	-0.365818
N	 1.1509733849	-1.6771720628	-1.4098418083	-0.328934
C	 1.7607433465	-2.2127196992	-2.6156160856	-0.099812
C	 3.2143246621	-2.6646904204	-2.3967118499	-0.388859
C	 0.9444476811	-3.3153735692	-3.1535477497	 0.264384
N	 0.3164259524	-4.1994240189	-3.5527516444	-0.317412
H	 1.1505525873	 1.8174247072	 0.4723197336	 0.126129
H	-0.2407717312	 2.079623696	-0.5781332647	 0.146598
H	-0.4848947634	 1.7471928114	 1.1514662793	 0.113239
H	 0.4528129155	-0.5851672324	 0.8036595597	 0.108472
H	-0.9941775944	-0.3072391775	-0.1479809231	 0.137924
H	 0.9204062533	-2.3144160015	-0.6641744837	 0.2554
H	 1.7393906404	-1.3855186599	-3.3331680683	 0.172479
H	 3.805082813	-1.8123774716	-2.0536224732	 0.141724
H	 3.2690588857	-3.4591465342	-1.6469992973	 0.131272
H	 3.6422204141	-3.0429198083	-3.3287244959	 0.144129
28.7189	41.2125	67.5213	146.123	181.2555	208.8821	229.2038	258.0733	329.352	362.0944	409.1698	443.6123	562.4055	587.4794	596.3686	680.0132	811.1699	824.4785	912.3122	942.5612	1022.4195	1066.0629	1097.9396	1102.509	1111.5512	1164.9137	1212.057	1286.73	1329.1494	1343.8256	1382.4605	1409.2023	1412.1453	1463.4431	1488.1361	1491.63	1493.3608	1502.9392	1521.5691	1781.4215	2357.5113	3024.5585	3049.2205	3052.4246	3060.9104	3073.5357	3120.051	3127.1197	3138.6016	3140.9879	3637.7387
CCC(=O)NC(C)C#N	CCC(=O)N[C@@H](C)C#N	
InChI=1S/C6H10N2O/c1-3-6(9)8-5(2)4-7/h5H,3H2,1-2H3,(H,8,9)	InChI=1S/C6H10N2O/c1-3-6(9)8-5(2)4-7/h5H,3H2,1-2H3,(H,8,9)/t5-/m0/s1
