21
gdb 81385	2.38722	1.61268	1.28395	2.1983	77.16	-0.2485	0.0726	0.3211	1077.372	0.184592	-424.217341	-424.209148	-424.208204	-424.249505	33.238	
O	-0.0193835599	 1.3490070398	-0.0726330279	-0.460691
C	 0.0644870075	-0.0619204875	 0.0219648106	 0.170052
C	 0.1517710868	-0.5967807871	 1.4806789321	-0.05333
C	-1.3993296523	-0.4428706784	 1.537538262	-0.251126
C	-1.367878549	-0.6478540429	-0.0067836816	-0.027368
C	-1.3081690572	-2.1401456934	-0.3518698747	 0.114888
O	-0.7046210877	-2.2402706426	-1.6410602193	-0.434792
C	-0.53197926	-2.921300231	 0.7372153154	-0.234881
C	 0.5633950491	-2.0780746392	 1.4319377869	-0.212136
H	 0.8444516403	 1.709152705	 0.152316208	 0.27703
H	 0.7813967224	-0.4688798643	-0.7005904604	 0.071793
H	 0.7591512282	-0.0220064309	 2.1867764263	 0.04966
H	-1.9763943985	-1.140123401	 2.150605235	 0.085337
H	-1.6839809093	 0.5796839072	 1.7839268804	 0.113268
H	-2.0907517814	-0.1178697186	-0.6296201649	 0.073817
H	-2.3354417102	-2.5354350751	-0.3970318931	 0.061219
H	-0.7182910969	-3.1660854019	-1.9022829223	 0.279796
H	-1.2534454671	-3.2559855354	 1.4899666833	 0.103136
H	-0.1100045408	-3.8336708785	 0.3009221162	 0.082657
H	 1.5166876136	-2.1656094308	 0.8963206418	 0.098832
H	 0.7368403625	-2.4671140634	 2.441369986	 0.092838
128.2439	181.7698	263.9118	291.0065	293.4542	315.4471	371.717	400.7348	433.2366	477.9198	536.7699	690.7312	753.631	807.7962	844.0216	890.2506	903.0887	909.9248	930.687	951.1023	1006.9822	1039.4989	1062.3055	1081.8086	1102.6861	1114.7149	1122.1041	1139.8591	1163.5196	1210.5129	1231.5091	1246.7974	1266.0156	1295.1968	1303.6979	1319.2522	1327.0185	1354.7695	1368.5182	1387.2488	1414.5905	1429.5976	1475.4699	1492.6603	1504.9037	2964.4123	3023.695	3035.0068	3039.0079	3052.7754	3060.678	3067.2083	3080.0763	3095.0922	3138.0708	3812.7957	3821.2357
OC1C2CC1C(O)CC2	O[C@H]1[C@H]2C[C@@H]1[C@@H](O)CC2	
InChI=1S/C7H12O2/c8-6-2-1-4-3-5(6)7(4)9/h4-9H,1-3H2	InChI=1S/C7H12O2/c8-6-2-1-4-3-5(6)7(4)9/h4-9H,1-3H2/t4-,5-,6+,7+/m1/s1
