19
gdb 87179	2.95383	1.07471	1.00548	3.5039	72.27	-0.2418	0.0533	0.2952	1271.247	0.15824	-456.368529	-456.358749	-456.357805	-456.403003	36.822	
C	 0.1572855247	 1.5011246715	-0.3394712689	-0.462302
C	 0.0291958754	 0.0199190716	-0.0476311232	 0.294392
C	 1.2683483647	-0.8580367159	-0.105293531	-0.36509
C	 0.6362711955	-0.5427946209	 1.2163709173	 0.122076
O	 1.3379759046	 0.2949270446	 2.0798981161	-0.42158
N	-1.2070946107	-0.6017747954	-0.4461747204	-0.39115
C	-2.3621201692	-0.3282335976	 0.2644290395	 0.447768
N	-3.5213139815	-0.7897234384	-0.3484219167	-0.567819
O	-2.3730149804	 0.2733030427	 1.3231314507	-0.398312
H	 1.0831705288	 1.897444337	 0.0827178749	 0.13077
H	 0.1607594791	 1.6909665476	-1.4189486437	 0.10478
H	-0.6835914486	 2.0420833976	 0.1047555876	 0.138741
H	 1.1757441513	-1.8680901872	-0.4878714101	 0.109404
H	 2.2030379419	-0.3584699022	-0.334233378	 0.123178
H	 0.071492019	-1.3397918237	 1.6955310477	 0.095075
H	 0.6813015511	 0.7894494186	 2.5845593358	 0.296422
H	-1.314474315	-0.8008574509	-1.4308031722	 0.236181
H	-3.4508963182	-1.6207721519	-0.9167525047	 0.247267
H	-4.3127685025	-0.788282777	 0.2772204592	 0.260199
75.2955	94.9214	119.3362	209.3245	236.8205	264.2251	340.0057	386.9492	404.2162	410.5755	444.9432	453.8086	503.2965	542.4664	570.1809	646.3044	768.8092	781.9056	829.5853	900.8248	936.9066	953.2882	1032.3817	1047.4626	1059.0223	1094.1375	1126.038	1137.4288	1201.9772	1279.5856	1310.2371	1317.8616	1331.3153	1405.5296	1428.3449	1480.4528	1493.534	1504.7015	1520.9294	1625.4886	1795.726	3033.5518	3100.5689	3125.1292	3132.1369	3138.4139	3229.9806	3571.6223	3586.1424	3686.2949	3789.5033
CC1(CC1O)NC(N)=O	C[C@]1(C[C@H]1O)NC(=O)N	
InChI=1S/C5H10N2O2/c1-5(2-3(5)8)7-4(6)9/h3,8H,2H2,1H3,(H3,6,7,9)	InChI=1S/C5H10N2O2/c1-5(2-3(5)8)7-4(6)9/h3,8H,2H2,1H3,(H3,6,7,9)/t3-,5-/m1/s1
