22
gdb 119193	1.86459	1.28644	0.89392	1.4805	89.9	-0.2285	0.0449	0.2734	1425.5541	0.191132	-367.151149	-367.140609	-367.139665	-367.186586	39.033	
C	-0.0370118198	 1.6226365442	-0.0456840341	-0.381625
C	 0.220016851	 0.1154891368	 0.0293024579	-0.169213
C	 0.5107171778	-0.5003046024	-1.3460966283	-0.261409
C	 0.6883646484	-2.0173628415	-1.3264817318	 0.090491
C	 1.5688973165	-2.661973432	-2.362918655	-0.284444
N	 1.9697706607	-2.6656965831	-0.9697246395	-0.100774
C	 3.1210206152	-1.8653140569	-0.5815750619	-0.316338
C	-0.4777598934	-2.7437161835	-0.8719235558	 0.32206
C	-1.4697646651	-3.3227271283	-0.5155904539	-0.436704
H	 0.8267161225	 2.1555328956	-0.4595146694	 0.111508
H	-0.8986335553	 1.8456914924	-0.6849265137	 0.115692
H	-0.2410854031	 2.0403752945	 0.9449120823	 0.113591
H	 1.0617196508	-0.0816741235	 0.7043918049	 0.098861
H	-0.6478781778	-0.3894375593	 0.4679087245	 0.116853
H	-0.3208707858	-0.2747568264	-2.0258385033	 0.109119
H	 1.3962601121	-0.0304842043	-1.786430863	 0.096368
H	 1.2978541395	-3.6239210695	-2.7892461519	 0.120896
H	 2.0794754825	-1.9817165257	-3.0458470826	 0.104474
H	 3.2500578005	-0.9301446303	-1.147299962	 0.10145
H	 3.0524514989	-1.6214722794	 0.4827988324	 0.13028
H	 4.0204155185	-2.4714669886	-0.7314303986	 0.127712
H	-2.3346494446	-3.8470668489	-0.1924860472	 0.191153
74.6769	91.7797	129.0147	149.6261	180.0887	212.828	239.1557	292.0549	332.0278	349.8437	401.4998	459.1996	542.0601	562.5546	605.7576	643.8324	705.198	739.6531	794.2262	860.0297	890.4466	915.4106	946.3594	1043.9318	1054.5405	1086.1281	1123.5232	1124.5391	1143.6842	1162.9157	1198.7009	1245.9988	1272.4753	1308.0563	1325.7146	1369.1503	1394.7822	1412.6998	1446.9053	1475.748	1487.9379	1493.9863	1499.5569	1502.1948	1507.6472	1512.2374	2233.99	2984.9224	3025.8389	3027.963	3037.2065	3060.8231	3069.9275	3077.9973	3080.9239	3098.3943	3103.2517	3105.7738	3176.6498	3503.3825
CCCC1(CN1C)C#C	CCC[C@]1(CN1C)C#C	
InChI=1S/C8H13N/c1-4-6-8(5-2)7-9(8)3/h2H,4,6-7H2,1,3H3	InChI=1S/C8H13N/c1-4-6-8(5-2)7-9(8)3/h2H,4,6-7H2,1,3H3/t8-,9?/m0/s1
