19
gdb 22343	3.20887	1.16607	0.87495	2.1578	87.46	-0.1762	-0.0091	0.1672	1327.3603	0.158483	-419.179611	-419.170165	-419.169221	-419.213536	34.722	
C	-0.0718864326	 1.3286979041	 0.1933296239	-0.328623
N	-0.0036390725	-0.0340093872	-0.2864424746	-0.061045
C	-1.168211021	-0.9055261786	-0.098625815	-0.248185
C	-0.5671292219	-2.3054706074	-0.0627038623	 0.316449
N	-1.3518155529	-3.316946061	-0.1272411399	-0.268462
O	-0.6435187526	-4.5391006721	-0.0775262985	-0.404802
C	 0.883718454	-2.1434695311	 0.0229945317	 0.142931
C	 1.9255489491	-3.2154078798	 0.1329636486	-0.490368
C	 1.1193846728	-0.8119441624	-0.081518337	-0.073802
H	 0.8677058389	 1.8415725737	-0.030749659	 0.130703
H	-0.8783145872	 1.8637543698	-0.3178708008	 0.130804
H	-0.2522728997	 1.3949348321	 1.2798346865	 0.111926
H	-1.6633703923	-0.6733591716	 0.8568879269	 0.119751
H	-1.9047528588	-0.7801706059	-0.8975282345	 0.132988
H	-1.3571456346	-5.1804638895	-0.1480532178	 0.300884
H	 1.9065979674	-3.8921824276	-0.7266882643	 0.135164
H	 2.9236308545	-2.7694761668	 0.1956700999	 0.103256
H	 1.7714863969	-3.8370690405	 1.019830104	 0.133486
H	 2.0882046925	-0.3248879683	-0.0617007777	 0.116946
89.4277	136.3077	185.7958	210.2918	218.8619	248.6792	271.6179	286.3403	354.0934	367.5867	426.3543	481.888	597.936	664.0232	697.5178	772.5656	899.7813	921.5138	979.5463	995.3324	1019.2734	1066.4674	1077.2221	1121.7934	1146.6011	1195.1543	1204.376	1264.6353	1315.6061	1345.1773	1388.3888	1411.3737	1427.8698	1461.7934	1475.32	1482.7649	1491.8558	1498.3011	1520.6811	1663.109	1716.3331	2959.7651	2986.6603	3034.9338	3067.8535	3077.7732	3096.9783	3103.8554	3113.0269	3196.3027	3829.4674
CN1CC(=NO)C(C)=C1	CN1CC(=NO)C(=C1)C	
InChI=1S/C6H10N2O/c1-5-3-8(2)4-6(5)7-9/h3,9H,4H2,1-2H3	InChI=1S/C6H10N2O/c1-5-3-8(2)4-6(5)7-9/h3,9H,4H2,1-2H3
