16
gdb 76258	2.5323	1.40341	0.98256	4.5106	68.06	-0.2557	-0.0465	0.2092	1167.6806	0.122149	-475.057702	-475.048412	-475.047468	-475.092312	32.116	
C	-0.0116995174	 1.588687758	 0.0311569394	-0.392542
C	 0.0015172401	 0.0699636753	-0.0054877953	 0.001966
C	 0.6723131827	-0.5888414435	-1.2548567052	-0.033785
O	 1.0909640519	 0.3108345764	-2.2441993983	-0.42089
C	 1.7650312662	-1.09454811	-0.2872382669	 0.408363
O	 2.8096648377	-1.6605006845	-0.4073042045	-0.323952
N	 1.0655843139	-0.5718799215	 0.8168295119	-0.137316
C	 1.2472003538	-0.6234317028	 2.1888738493	 0.151091
O	 2.1576758013	-1.178036158	 2.7448050767	-0.264779
H	 0.9717776123	 1.9926441097	-0.2166248623	 0.14106
H	-0.7298814668	 1.9707338665	-0.6998229825	 0.140478
H	-0.3072463962	 1.9512902494	 1.0202595434	 0.123835
H	-0.9864414327	-0.3433990087	 0.2177300807	 0.102792
H	 0.0751667553	-1.4130363782	-1.6693034664	 0.106239
H	 1.889622425	-0.0479353344	-2.6481066127	 0.307206
H	 0.4347249529	-0.0885219836	 2.7205524129	 0.090233
60.4428	112.2819	137.9978	173.2689	200.902	215.614	245.8599	269.0146	366.657	473.1468	492.9945	589.8977	679.872	747.2479	828.035	868.6311	995.3294	1007.7089	1032.9675	1057.4098	1114.1389	1157.6876	1185.2027	1199.3957	1273.0811	1327.1946	1358.4672	1377.9001	1395.5272	1418.6811	1434.7122	1488.3431	1489.9529	1807.2205	1910.2422	2932.7932	3010.2453	3049.5808	3067.1638	3118.7849	3141.8304	3803.7807
CC1C(O)C(=O)N1C=O	C[C@H]1[C@@H](O)C(=O)N1C=O	
InChI=1S/C5H7NO3/c1-3-4(8)5(9)6(3)2-7/h2-4,8H,1H3	InChI=1S/C5H7NO3/c1-3-4(8)5(9)6(3)2-7/h2-4,8H,1H3/t3-,4+/m0/s1
