18
gdb 72678	2.32849	1.50608	1.47286	4.3122	76.97	-0.2378	0.0123	0.2501	1027.6608	0.148891	-398.100226	-398.091796	-398.090852	-398.133047	32.379	
N	 0.032025787	 1.3756273629	-0.6473389055	-0.582261
C	 0.0336359899	 0.0406978178	-0.1438571929	 0.266427
C	 0.5901285915	-1.0193355262	-1.1413847514	-0.261117
C	-0.8069245615	-1.7035429011	-1.2339545217	-0.252001
C	-1.2864057138	-0.844259281	-0.0427815618	 0.19298
N	-0.7737004425	-1.3634749557	 1.2581532104	-0.365211
C	 0.2605048282	-0.2994871544	 1.3502542089	-0.222374
C	-2.617565681	-0.2853742753	-0.0253113104	 0.198114
N	-3.6785857767	 0.1762429147	 0.0137483168	-0.347224
H	-0.2729566822	 2.0488695468	 0.0478798851	 0.236268
H	 0.9535429493	 1.6496942833	-0.9719439777	 0.235468
H	 0.9421099331	-0.5857723329	-2.0791370694	 0.111397
H	 1.3762185304	-1.6467177033	-0.7172586273	 0.114302
H	-1.3300641193	-1.4495140501	-2.1582582857	 0.12416
H	-0.8513089469	-2.7799702775	-1.0638242284	 0.116904
H	-1.4608023477	-1.3602405537	 2.0026009752	 0.235203
H	 1.2517564807	-0.6595461868	 1.6496312734	 0.103366
H	-0.0213413086	 0.5458542925	 1.9949326926	 0.095599
103.1815	111.7934	183.5887	206.0287	298.4484	351.7963	372.7917	384.7813	520.981	552.1974	586.5328	627.9627	695.8159	709.6288	764.7764	771.8067	884.501	935.0647	950.023	966.43	1018.2434	1042.0982	1058.0176	1106.5782	1128.8399	1173.8799	1189.734	1224.3328	1262.8339	1268.6953	1291.7024	1325.8416	1355.4269	1387.2778	1459.1412	1477.5075	1509.0982	1652.6072	2336.1574	2992.3801	3055.1266	3073.2629	3077.8351	3127.0843	3144.8329	3500.7087	3552.0566	3586.065
NC12CCC1(NC2)C#N	N[C@]12CC[C@]1(NC2)C#N	
InChI=1S/C6H9N3/c7-3-6-2-1-5(6,8)4-9-6/h9H,1-2,4,8H2	InChI=1S/C6H9N3/c7-3-6-2-1-5(6,8)4-9-6/h9H,1-2,4,8H2/t5-,6-/m0/s1
