19
gdb 74531	3.62642	1.34693	1.2801	2.2827	80.4	-0.2173	0.0119	0.2293	1076.5958	0.159812	-385.846077	-385.838472	-385.837528	-385.877751	30.657	
C	 0.0495579898	 1.5122747219	 0.0343394275	-0.485706
C	-0.0285215937	 0.0179531164	-0.0039867395	 0.325563
C	-0.120384198	-0.7571598022	-1.0994833791	-0.28115
C	-0.0440349659	-2.1878056957	-0.7295900005	 0.371983
C	 1.164916896	-2.7831765986	-0.0771754935	-0.363153
C	 0.0379132154	-2.24613321	 0.7838517003	 0.140144
C	-1.1879141152	-3.1572656661	 0.644335204	-0.133723
O	-1.1290836721	-3.132283278	-0.8113873561	-0.323321
C	 0.0474979198	-0.8110457121	 1.2868732912	-0.39681
H	 1.0051481921	 1.8494835231	 0.4559730857	 0.128605
H	-0.0533912594	 1.9496700449	-0.9620162503	 0.128029
H	-0.7365703919	 1.9297072962	 0.6764254772	 0.127464
H	-0.190684808	-0.3859661454	-2.1158443203	 0.095932
H	 1.3139980827	-3.8573863591	-0.1381763698	 0.118404
H	 2.0704378452	-2.1871487483	-0.1033692777	 0.119884
H	-1.1157165912	-4.1784681726	 1.0383740786	 0.103341
H	-2.1115713481	-2.6880607437	 1.0047863892	 0.105178
H	 0.9436827973	-0.5606262358	 1.8696198452	 0.110786
H	-0.8079021847	-0.5972186148	 1.9424210978	 0.108551
124.1439	175.1936	249.1695	288.4445	335.0375	392.0155	413.1012	480.2944	564.9563	579.578	660.5341	778.509	822.4251	833.3421	862.6808	865.7577	921.5489	924.6115	954.8357	981.7173	999.029	1021.3155	1034.866	1063.7839	1121.3852	1149.7847	1152.5165	1196.805	1221.3484	1272.2073	1300.8913	1323.1482	1353.7187	1376.8024	1410.7008	1464.6572	1476.3562	1478.3426	1485.1645	1512.0616	1673.2455	3009.633	3012.7205	3018.7591	3039.8654	3061.8808	3063.477	3114.6546	3121.0575	3192.0795	3219.1299
CC1=CC23CC2(CO3)C1	CC1=C[C@@]23C[C@@]2(CO3)C1	
InChI=1S/C8H10O/c1-6-2-7-4-8(7,3-6)9-5-7/h3H,2,4-5H2,1H3	InChI=1S/C8H10O/c1-6-2-7-4-8(7,3-6)9-5-7/h3H,2,4-5H2,1H3/t7-,8-/m1/s1
