18
gdb 85300	2.50009	1.78509	1.30173	4.0263	71.6	-0.2332	0.0157	0.2489	1011.9223	0.149759	-439.108987	-439.101434	-439.10049	-439.140855	29.837	
C	-0.0435876751	 1.5520422081	 0.0251719393	-0.39906
C	 0.0081131936	 0.0223326019	 0.0351874557	 0.040799
N	 0.7130514648	-0.4991189694	-1.139513011	-0.325952
C	 1.8875953376	-1.2003338756	-1.0680729451	 0.421763
O	 2.5126903614	-1.5880104014	-2.0333326537	-0.379209
C	 2.2857201475	-1.4577085651	 0.3871116659	-0.027803
C	 1.06828257	-2.0154751029	 1.1542170747	-0.266274
C	 0.7451785286	-0.5116611567	 1.270757783	 0.088463
O	 2.1591027115	-0.2017969966	 1.1188801456	-0.290348
H	 0.9679249916	 1.9568983595	 0.1122433039	 0.147009
H	-0.4898636019	 1.9224962775	-0.9031217805	 0.115124
H	-0.6483967275	 1.9236503454	 0.8587848861	 0.117991
H	-1.016055694	-0.3792968546	 0.0495401216	 0.086788
H	 0.4091224436	-0.2265119096	-2.0629893439	 0.246279
H	 3.2722013337	-1.913567076	 0.4603956888	 0.10256
H	 0.3701378898	-2.6687157093	 0.6275752018	 0.116835
H	 1.3545753102	-2.44395092	 2.115527147	 0.119574
H	 0.3216615148	-0.115013315	 2.1966755709	 0.085463
107.9442	163.6222	249.2176	276.3425	355.4322	432.8535	438.1713	467.1277	527.6628	543.0574	688.9195	737.0688	778.7669	828.8824	888.1123	927.3765	940.9573	955.6665	973.8702	1020.6234	1031.3254	1074.3424	1109.4309	1127.8793	1161.5223	1213.1048	1249.2088	1289.4288	1297.379	1316.2245	1334.7159	1351.5388	1396.2364	1405.183	1458.4068	1488.2098	1494.0125	1503.2472	1813.9186	2993.3276	3038.0823	3077.11	3087.8556	3105.4031	3129.9745	3135.0045	3143.9434	3609.0422
CC1NC(=O)C2CC1O2	C[C@H]1NC(=O)[C@@H]2C[C@H]1O2	
InChI=1S/C6H9NO2/c1-3-4-2-5(9-4)6(8)7-3/h3-5H,2H2,1H3,(H,7,8)	InChI=1S/C6H9NO2/c1-3-4-2-5(9-4)6(8)7-3/h3-5H,2H2,1H3,(H,7,8)/t3-,4-,5+/m1/s1
