17
gdb 114459	4.76829	1.16008	1.08886	0.5578	66.91	-0.2431	0.0621	0.3052	1106.4445	0.136559	-458.882929	-458.875828	-458.874884	-458.914669	28.116	
O	 0.0124851873	 1.4228372486	-0.1555206167	-0.41957
C	 0.0737525372	 0.0361741676	 0.1023010947	-0.063491
C	-1.3203130235	-0.5780441976	 0.1226778402	 0.066827
O	-1.9667901918	-0.2823343965	-1.1524684373	-0.299685
C	-2.2819772853	-1.5570936913	-1.6482642614	 0.095057
C	-2.7588094698	-2.5021426498	-0.5058462711	 0.022058
O	-2.156973835	-3.6556411638	-1.1768346176	-0.314213
C	-1.1618717865	-2.5923505585	-1.3311855678	 0.023106
C	-1.3937155063	-2.0965228924	 0.1339018387	-0.096503
H	-0.5216462897	 1.5206019375	-0.9531706077	 0.293513
H	 0.6924745575	-0.488683953	-0.644407572	 0.085359
H	 0.5528820474	-0.0887336025	 1.0796062633	 0.110547
H	-1.9135801862	-0.1130577261	 0.919737643	 0.095366
H	-2.778701791	-1.5238540748	-2.6151286625	 0.106796
H	-3.7368291347	-2.6223784264	-0.0412771593	 0.100206
H	-0.2357121355	-2.8259916193	-1.8546078322	 0.100457
H	-0.9960989641	-2.6659072217	 0.9716032957	 0.09417
97.1248	144.9915	209.8321	366.9447	444.4586	460.2813	472.776	530.8712	688.5474	736.8854	784.5316	815.2515	829.655	887.2487	891.1234	904.1847	974.1846	994.352	1006.9854	1036.0086	1080.6538	1089.7047	1102.8905	1140.4821	1146.8549	1155.2932	1180.6724	1222.3595	1226.1094	1255.9705	1273.6719	1312.1416	1329.5765	1372.858	1401.7926	1437.2975	1497.6637	2968.7259	3036.7459	3071.5905	3126.7321	3128.5701	3152.1768	3165.5406	3790.3696
OCC1OC2C3OC2C13	OC[C@H]1O[C@@H]2[C@H]3O[C@@H]2[C@@H]13	
InChI=1S/C6H8O3/c7-1-2-3-4-6(8-2)5(3)9-4/h2-7H,1H2	InChI=1S/C6H8O3/c7-1-2-3-4-6(8-2)5(3)9-4/h2-7H,1H2/t2-,3-,4-,5+,6+/m1/s1
