13
gdb 20991	3.49594	2.22333	1.37401	6.224	55.78	-0.2356	0.0219	0.2576	828.4924	0.096372	-431.942991	-431.935641	-431.934697	-431.974593	26.273	
C	-0.0879247593	 1.4402846084	 0.030414468	-0.358021
N	 0.0203387785	-0.0025890894	 0.0462763278	-0.174332
C	 0.0235653964	-0.7920800201	-1.1016839666	 0.510889
O	 0.005036521	-0.435246402	-2.2476979315	-0.405003
O	 0.0446058121	-2.0760093882	-0.6589295111	-0.23792
N	 0.0652662722	-2.1061475631	 0.7718806015	-0.220808
C	 0.0299612417	-0.8565104957	 1.1172186902	 0.4579
N	-0.0743772846	-0.4073632057	 2.4139634517	-0.591291
H	 0.8311445989	 1.9178083678	 0.3869493994	 0.138842
H	-0.2529647818	 1.7314924653	-1.0084515071	 0.183122
H	-0.9302666591	 1.7697687312	 0.6448780926	 0.153254
H	 0.0142655742	-1.1640944965	 3.0804317325	 0.277429
H	 0.5366508998	 0.365680398	 2.6438823727	 0.265941
123.307	147.3606	188.154	258.4692	298.1708	357.6388	365.7966	589.3281	624.5748	647.6287	732.9869	743.1728	776.3034	794.6675	929.7652	1007.7045	1135.1654	1158.0006	1160.9046	1251.1546	1341.3162	1434.6679	1494.5155	1511.2936	1554.2523	1626.457	1691.5048	1882.437	3036.6144	3103.5386	3149.3432	3544.3859	3641.8843
CN1C(=O)ON=C1N	Cn1c(=O)onc1N	
InChI=1S/C3H5N3O2/c1-6-2(4)5-8-3(6)7/h1H3,(H2,4,5)	InChI=1S/C3H5N3O2/c1-6-2(4)5-8-3(6)7/h1H3,(H2,4,5)
