14
gdb 27863	2.05106	1.99202	1.01098	3.7204	69.2	-0.219	-0.0134	0.2056	1082.5366	0.104598	-466.263412	-466.255913	-466.254968	-466.295307	28.929	
N	 0.0042736166	 1.3225696955	 0.1231285494	-0.571878
C	-0.0225310378	-0.0327593115	 0.0437482174	 0.510395
N	-1.1839415828	-0.6461805177	 0.0304059837	-0.373805
C	-1.0833557027	-1.998793545	 0.0005907796	 0.425776
O	-2.2717445755	-2.6112637783	-0.0049265861	-0.383847
N	-0.0136440388	-2.7501654575	-0.028570083	-0.419475
C	 1.2071054848	-2.11581631	-0.0193056747	 0.405731
N	 2.3724716445	-2.633325054	-0.0365890145	-0.580293
N	 1.1510217569	-0.698057616	 0.0165178154	-0.353893
H	 0.8251531967	 1.8290698208	-0.1630589162	 0.267002
H	-0.8852260157	 1.77324867	-0.0211620445	 0.281496
H	-2.0773917937	-3.5591261573	-0.0303256951	 0.305818
H	 2.2799021951	-3.6470533213	-0.0594076745	 0.220464
H	 2.0443190324	-0.2303971178	 0.062245333	 0.266509
128.2463	195.3698	198.0823	325.077	340.4875	374.8533	487.0161	547.4827	566.9146	579.5673	596.5991	611.6623	674.4871	736.8331	741.6509	802.4837	844.1496	960.7698	999.262	1062.1042	1117.9021	1180.7573	1277.8702	1318.8126	1329.7033	1484.0913	1539.7967	1597.5629	1649.9954	1667.6238	1741.2314	3517.6904	3602.3046	3620.7702	3724.9032	3768.934
NC1=NC(O)=NC(=N)N1	N[C@@H]1N=C(O)N=C([NH])N1	
InChI=1S/C3H5N5O/c4-1-6-2(5)8-3(9)7-1/h(H5,4,5,6,7,8,9)	InChI=1S/C3H6N5O/c4-1-6-2(5)8-3(9)7-1/h1,5H,4H2,(H2,6,7,8,9)/t1-/m0/s1
