19
gdb 126966	5.07826	0.80081	0.70529	3.2437	80.93	-0.2123	0.0099	0.2223	1629.8776	0.158913	-419.213736	-419.204275	-419.203331	-419.248991	33.683	
C	 0.0000227858	 1.5618730778	 0.024000293	-0.396365
C	-0.2093823579	 0.0637380094	 0.2193280349	-0.117601
N	 0.8819172298	-0.5041221533	 1.0025588817	-0.388436
C	 0.9199119633	-1.8587963871	 1.2545183047	 0.461387
N	 1.478455019	-2.3170385485	 2.3578618871	-0.256982
O	 1.4142017852	-3.7162928649	 2.247800687	-0.21686
C	 0.8051644822	-4.0443555105	 1.0989816366	 0.454065
C	 0.6407878748	-5.4961362807	 0.8162571199	-0.490908
C	 0.4599446617	-2.921463667	 0.4153867709	-0.42715
H	 0.9541237385	 1.7587513172	-0.4730796945	 0.132476
H	-0.8050364498	 1.9853355239	-0.5827430971	 0.122714
H	 0.0024188343	 2.087820548	 0.9855253279	 0.120475
H	-1.1921422038	-0.120319577	 0.6837037394	 0.099746
H	-0.2234376869	-0.4330204518	-0.7571754705	 0.115351
H	 1.1247438896	 0.0372472866	 1.8225108253	 0.241811
H	 0.0489906461	-5.9827556434	 1.5985334644	 0.148946
H	 0.1375349144	-5.6407019995	-0.141509658	 0.137669
H	 1.6125599918	-5.9992500071	 0.7791731934	 0.149864
H	-0.0345208979	-2.860330622	-0.5388798161	 0.109798
56.0289	73.7374	95.3732	123.0886	202.0506	258.1078	299.1448	343.6434	375.0654	461.2715	602.4623	625.3092	657.4179	729.0623	780.0593	788.9874	818.504	921.0278	937.2623	1006.146	1029.4877	1038.6207	1064.3574	1076.31	1146.7304	1179.1878	1186.9614	1296.947	1318.8056	1367.7183	1410.417	1413.2112	1442.3128	1473.6807	1481.5138	1491.4258	1499.6238	1510.3726	1527.2293	1567.6726	1663.4725	2966.3068	3036.3942	3041.9466	3054.7344	3098.2233	3105.2893	3123.5914	3137.4429	3278.8122	3572.1745
CCNC1=NOC(C)=C1	CCNc1noc(C)c1	
InChI=1S/C6H10N2O/c1-3-7-6-4-5(2)9-8-6/h4H,3H2,1-2H3,(H,7,8)	InChI=1S/C6H10N2O/c1-3-7-6-4-5(2)9-8-6/h4H,3H2,1-2H3,(H,7,8)
