18
gdb 91009	4.33389	1.41131	1.24715	1.2251	71.41	-0.2416	0.077	0.3186	1027.0895	0.149568	-439.019235	-439.012314	-439.01137	-439.050332	28.212	
C	 0.0881228718	 1.5419673823	 0.0028518286	-0.406563
C	 0.077625509	 0.0316823212	 0.0094418513	 0.224921
O	 0.7378247811	-0.4408299148	-1.1494902879	-0.284245
C	 1.0694798738	-1.7996527354	-1.0502843956	 0.169352
C	 0.325942774	-2.6784329696	 0.0072933416	-0.144567
N	 1.5300851964	-3.5872835632	-0.0434228074	-0.329812
C	 2.1190471992	-2.1971010988	 0.0240541114	-0.106729
C	 1.0483720247	-1.7921667293	 1.0789501657	 0.130606
O	 0.7113690717	-0.4320301282	 1.1879485563	-0.283873
H	 1.119816537	 1.9013099135	 0.0129991766	 0.13471
H	-0.4116612687	 1.9130060513	-0.8948953258	 0.12958
H	-0.4319795081	 1.9208017159	 0.8856899074	 0.128768
H	-0.9536313322	-0.363837174	-0.0004422448	 0.069692
H	 1.1996065588	-2.223772284	-2.045633554	 0.101032
H	-0.6897133787	-3.0753931123	-0.0080922986	 0.087414
H	 1.6410508515	-4.0433355508	 0.8681740407	 0.212894
H	 3.1929901477	-2.0107744362	 0.0266174496	 0.084779
H	 1.1589182113	-2.2133276077	 2.0825304649	 0.082039
134.1731	210.5025	289.9136	306.4321	427.9361	441.2328	468.2285	582.8192	605.2079	738.622	784.3214	844.4621	847.9023	874.8593	886.6805	911.0423	918.5991	1016.3839	1018.8119	1048.5865	1088.9811	1119.0506	1130.0772	1134.3887	1157.9646	1161.1576	1178.4454	1210.4425	1214.3533	1258.8391	1295.9102	1301.4263	1344.789	1393.0402	1398.8714	1400.7731	1436.2651	1482.8424	1488.4574	2943.3046	3058.1224	3075.4362	3108.1251	3118.753	3131.1747	3140.4873	3141.3474	3383.1381
CC1OC2C3NC2C3O1	C[C@H]1O[C@@H]2[C@H]3N[C@@H]2[C@H]3O1	
InChI=1S/C6H9NO2/c1-2-8-5-3-6(9-2)4(5)7-3/h2-7H,1H3	InChI=1S/C6H9NO2/c1-2-8-5-3-6(9-2)4(5)7-3/h2-7H,1H3/t2-,3-,4+,5-,6+
