19
gdb 16247	2.85049	2.16585	1.47915	1.0519	71.	-0.2432	0.0741	0.3173	908.7699	0.166701	-365.043934	-365.036253	-365.035308	-365.076492	29.374	
C	 0.1419528214	 1.6401004064	-0.1271347146	-0.393756
C	 0.0752376718	 0.1265645174	 0.0291791432	 0.075573
O	 0.6788923499	-0.4660751273	-1.1212711392	-0.270192
C	 1.4014283981	-1.6264682936	-0.7216526073	-0.083198
C	 1.9800154052	-1.2644411934	 0.6472039921	-0.276992
C	 0.8312710583	-0.4615518166	 1.2388215267	 0.301303
C	 0.8567896812	 0.1694409862	 2.5757601691	-0.300559
N	 0.0963321857	-1.0788608153	 2.3560560192	-0.353347
H	 1.1795455322	 1.985548438	-0.1035890217	 0.120847
H	-0.296916084	 1.9324859923	-1.0853351722	 0.127399
H	-0.4138292803	 2.1440597365	 0.6696356423	 0.109704
H	-0.9819306217	-0.1877807227	 0.0848290054	 0.066651
H	 0.732584048	-2.498557734	-0.6427306087	 0.094912
H	 2.1499178043	-1.8325495087	-1.4909924438	 0.107592
H	 2.2300613819	-2.1259137121	 1.2689632955	 0.115335
H	 2.8704001358	-0.6378946701	 0.5252852111	 0.105576
H	 1.734453763	 0.0649465645	 3.2090001435	 0.117305
H	 0.3073424148	 1.0953199119	 2.725534638	 0.111338
H	-0.8957346257	-0.8607913095	 2.2794782514	 0.224509
29.7297	196.2471	227.8694	265.5285	315.1719	337.3646	411.6408	511.3516	523.8807	639.3327	725.4975	819.375	871.1362	885.2082	917.5705	927.0037	968.8623	980.2671	1019.7818	1061.3275	1079.2025	1118.1323	1122.412	1130.6112	1152.9761	1203.2214	1241.79	1267.4787	1300.8531	1314.3056	1319.9686	1371.2301	1381.2881	1406.4995	1416.8464	1478.0351	1485.9906	1493.2016	1517.2127	1520.5727	2936.5367	2977.9066	3041.049	3048.3391	3094.5764	3102.4993	3114.068	3120.1204	3123.3129	3184.2329	3474.8714
CC1OCCC11CN1	C[C@H]1OCC[C@]21CN2	
InChI=1S/C6H11NO/c1-5-6(4-7-6)2-3-8-5/h5,7H,2-4H2,1H3	InChI=1S/C6H11NO/c1-5-6(4-7-6)2-3-8-5/h5,7H,2-4H2,1H3/t5-,6-/m1/s1
