19
gdb 97625	2.09607	0.87422	0.63921	4.7369	85.77	-0.2477	0.0085	0.2562	1771.7694	0.157755	-382.042617	-382.031895	-382.030951	-382.080018	36.651	
C	-0.1443653893	 1.2186651704	-0.0075811054	-0.366017
C	 0.698838683	-0.0699413567	 0.0109026185	-0.318404
C	 1.152046613	-0.4685077457	-1.3174549522	 0.052405
C	 1.5115991651	-0.7618904648	-2.429173354	 0.116691
C	 1.9484447776	-1.1882939126	-3.7704152188	-0.301126
N	 1.9362136436	-2.6349967083	-4.0114099605	-0.264627
C	 2.8646957835	-3.3688476529	-3.1546685533	-0.321669
C	 1.129495148	-0.5245741584	-4.8061275427	 0.300753
N	 0.485449447	-0.0041392145	-5.6107379344	-0.320428
H	 0.4319004644	 2.0541492764	-0.4132951385	 0.134152
H	-1.0356538484	 1.0909153357	-0.6271989491	 0.136082
H	-0.4613804188	 1.4768718048	 1.0067982652	 0.119345
H	 1.5696521042	 0.0670585705	 0.6642467853	 0.134573
H	 0.114214492	-0.8868053679	 0.4524847595	 0.134612
H	 2.9840997866	-0.8533179489	-3.9271554466	 0.154184
H	 0.9907025145	-2.9772970438	-3.8715803921	 0.234586
H	 2.7063945974	-3.2096886704	-2.0770185772	 0.115746
H	 2.7683080761	-4.435896959	-3.3694958687	 0.130711
H	 3.8910172304	-3.0709766238	-3.396366975	 0.128433
30.4811	60.2338	102.6953	119.6326	159.1582	170.7365	214.1425	243.2521	313.1533	349.1755	389.9571	470.0656	504.239	563.7622	587.6218	726.2642	787.6031	820.2178	925.4751	977.7419	1000.6346	1079.2189	1105.8235	1130.108	1150.8489	1157.6013	1184.1995	1285.7926	1307.7773	1325.1602	1348.9894	1411.6315	1455.3283	1474.9652	1484.8132	1492.7952	1495.0959	1505.4438	1520.1316	2358.4178	2369.048	2988.3758	3009.6991	3024.956	3048.7037	3053.6262	3068.6569	3117.9579	3123.3958	3129.3508	3522.4823
CCC#CC(NC)C#N	CCC#C[C@@H](NC)C#N	
InChI=1S/C7H10N2/c1-3-4-5-7(6-8)9-2/h7,9H,3H2,1-2H3	InChI=1S/C7H10N2/c1-3-4-5-7(6-8)9-2/h7,9H,3H2,1-2H3/t7-/m1/s1
