19
gdb 90920	3.33608	1.47045	1.36968	0.8023	75.89	-0.244	0.0322	0.2763	1023.0242	0.159227	-422.896764	-422.889259	-422.888314	-422.92825	30.572	
C	 0.0489209109	 1.5992552998	-0.0404557909	-0.416823
C	-0.0059705487	 0.0919429558	 0.0296577842	 0.024495
O	 0.9177311505	-0.5876654685	-0.9430443331	-0.343163
C	 0.9296658631	-1.7072413633	 0.0343349746	 0.115756
C	 1.7432810853	-2.4490734934	 1.1777388755	-0.006407
C	 2.9110270054	-1.5518057705	 1.5597039552	-0.213918
C	 2.127078963	-0.2108702703	 1.530867885	-0.236217
C	 0.7386456166	-0.7510858211	 1.1193588139	 0.314808
O	 0.634006006	-1.9414478784	 2.0524520138	-0.368218
H	 1.0491893446	 1.9863125851	 0.1601570776	 0.13148
H	-0.2558553443	 1.9338485774	-1.0370190882	 0.136784
H	-0.6477885023	 2.026789384	 0.6880546118	 0.128975
H	-1.0246517295	-0.2759941909	-0.1420184204	 0.097329
H	 0.0455396033	-2.319844438	-0.1622797649	 0.098823
H	 1.8348191496	-3.5350857282	 1.2110548087	 0.09013
H	 3.3008611337	-1.8038449245	 2.5479198887	 0.110979
H	 3.7290910207	-1.5961620421	 0.835558689	 0.108983
H	 2.0662377028	 0.2690482163	 2.510389905	 0.10775
H	 2.5383534993	 0.4964500109	 0.8113057445	 0.118453
183.7809	186.78	215.6299	243.6085	329.2467	424.5373	449.7232	506.3987	556.6851	645.265	716.1372	730.1307	801.0305	815.2919	834.6828	847.5078	887.5368	941.6416	957.6687	976.9459	1005.5511	1040.9247	1057.8136	1089.9646	1126.5829	1157.2021	1191.5398	1203.9753	1248.256	1249.1944	1250.982	1285.0648	1313.5907	1355.8791	1379.3062	1405.0551	1415.107	1469.0512	1481.2703	1492.9735	1496.3663	3036.8599	3046.4235	3064.2383	3065.9868	3079.0943	3110.6794	3114.5189	3125.3457	3137.3414	3146.0339
CC1OC2C3CCC12O3	C[C@H]1O[C@H]2[C@H]3CC[C@@]12O3	
InChI=1S/C7H10O2/c1-4-7-3-2-5(9-7)6(7)8-4/h4-6H,2-3H2,1H3	InChI=1S/C7H10O2/c1-4-7-3-2-5(9-7)6(7)8-4/h4-6H,2-3H2,1H3/t4-,5-,6+,7-/m1/s1
