21
gdb 40922	3.63778	1.3084	1.18802	1.5117	81.9	-0.2336	0.0746	0.3083	1135.7921	0.183672	-387.052369	-387.044575	-387.043631	-387.084869	31.17	
C	 0.1651027357	 1.605712801	-0.1526171844	-0.21478
C	 1.6893540667	 1.3443924194	-0.0027468255	-0.291189
C	 1.3483083644	 0.0064183725	 0.6860258656	 0.468547
C	-0.0753321106	 0.0895332174	 0.0819731326	-0.289891
O	 2.1375450248	-1.1665762418	 0.3987953611	-0.337712
C	 2.1912198286	-1.5418483114	 1.7912531778	 0.114614
C	 3.4988673987	-1.095166473	 2.4780455866	-0.230275
C	 2.8253912302	 0.2671606357	 2.8381398882	-0.240029
C	 1.4897025498	-0.2178824295	 2.2050188293	-0.158237
H	-0.2285076595	 2.2169710586	 0.6637461085	 0.103293
H	-0.1798973538	 2.0263867268	-1.0986921737	 0.10168
H	 2.1652887416	 1.1519012215	-0.9688075049	 0.114523
H	 2.2927945508	 2.0703392193	 0.5480950945	 0.09632
H	-0.9152457553	-0.2190236377	 0.7105684507	 0.093573
H	-0.1095038352	-0.4674160418	-0.8587566048	 0.110961
H	 1.8114835407	-2.5523948643	 1.9644901227	 0.072123
H	 3.7564368319	-1.6944712642	 3.3558235128	 0.098831
H	 4.359461423	-1.0578279919	 1.8067834009	 0.109614
H	 2.7516670482	 0.445799923	 3.9130768283	 0.102819
H	 3.2659211367	 1.1550570231	 2.3780008046	 0.10407
H	 0.5839847527	-0.1501235127	 2.8073394691	 0.071146
71.6115	110.5348	208.7953	259.3493	344.5789	386.6679	457.6123	499.8167	679.5271	720.3515	749.98	782.5383	797.0767	835.5385	870.0649	907.6172	924.8392	931.1549	947.4401	965.0799	973.0586	1009.9641	1022.53	1045.4557	1094.3672	1144.8421	1150.5678	1172.7642	1179.5665	1195.3163	1207.8324	1237.4683	1243.0917	1255.9136	1266.4571	1272.5483	1286.3114	1288.8485	1327.7914	1345.1297	1462.5585	1467.1035	1482.1035	1486.767	1503.868	3052.4712	3056.2653	3058.0974	3064.602	3066.8936	3071.5253	3102.4169	3104.3114	3108.8268	3112.8935	3125.7331	3126.0329
C1CC2(C1)OC1CCC21	C1CC2(C1)O[C@H]1CC[C@@H]21	
InChI=1S/C8H12O/c1-4-8(5-1)6-2-3-7(6)9-8/h6-7H,1-5H2	InChI=1S/C8H12O/c1-4-8(5-1)6-2-3-7(6)9-8/h6-7H,1-5H2/t6-,7+/m1/s1
