17
gdb 60506	2.32573	1.21221	1.11258	4.499	74.31	-0.2621	-0.0851	0.1769	1199.8704	0.133779	-417.991773	-417.98233	-417.981386	-418.027257	32.917	
C	 0.3724797029	 1.1301826284	-1.11702967	-0.415443
C	 0.368015554	-0.2049807951	-0.358507925	-0.070397
N	 0.3189065813	 0.0314478791	 1.0771879099	-0.068808
C	 0.9004356271	-0.9975946037	 1.9389591026	-0.228506
C	 1.5915158019	 0.3053367677	 1.7380049119	-0.223594
C	-0.863399657	-1.0096712239	-0.7562683968	 0.311601
O	-0.8526989205	-1.9434709578	-1.5159835666	-0.270743
C	-2.1420697647	-0.5513712518	-0.1652211147	 0.251235
N	-3.1684350223	-0.2153517667	 0.2478407327	-0.313383
H	 1.260246221	 1.7043903503	-0.8382962999	 0.135133
H	 0.3926545172	 0.9624162051	-2.1970877261	 0.13855
H	-0.5111336102	 1.7209255198	-0.8607101695	 0.152684
H	 1.2349996371	-0.8111309604	-0.6689653894	 0.093139
H	 0.3568317512	-1.1991052252	 2.8564565671	 0.133966
H	 1.3415533809	-1.8722315344	 1.464085324	 0.124583
H	 2.4943616347	 0.2982007613	 1.1295221969	 0.118652
H	 1.5653319354	 1.0709294774	 2.5073019028	 0.13133
28.1817	79.123	120.1529	167.6776	221.9289	231.6514	260.8027	304.1183	370.4915	436.3692	486.5709	652.1791	697.9111	743.5248	783.5668	841.2805	910.3975	944.7278	1001.7211	1030.2726	1073.1297	1109.2888	1116.4531	1126.7635	1171.5395	1199.732	1215.252	1313.935	1322.8166	1355.8991	1401.919	1487.2846	1491.2524	1495.6754	1517.4784	1801.9962	2338.0759	2972.4924	3047.5323	3098.7207	3105.2029	3124.7197	3131.6176	3187.867	3202.6962
CC(N1CC1)C(=O)C#N	C[C@@H](N1CC1)C(=O)C#N	
InChI=1S/C6H8N2O/c1-5(6(9)4-7)8-2-3-8/h5H,2-3H2,1H3	InChI=1S/C6H8N2O/c1-5(6(9)4-7)8-2-3-8/h5H,2-3H2,1H3/t5-/m1/s1
