21
gdb 96476	2.40317	1.44705	0.98594	1.9251	80.64	-0.2339	0.0108	0.2448	1237.3952	0.182902	-424.223742	-424.214767	-424.213823	-424.257119	34.788	
C	-0.1754422417	 1.5222497707	-0.0079397582	-0.481335
C	-0.0478226818	 0.0218205528	-0.0018856757	 0.284835
C	-0.0412300594	-0.6843033275	-1.1356648142	-0.159098
C	 0.1295464398	-2.1845988191	-1.233129698	-0.133846
O	 1.3448533307	-2.6814262612	-0.6900047522	-0.2344
C	 1.3530538087	-2.8084045569	 0.7166924788	-0.084328
C	 1.3718687051	-1.4880809215	 1.4914103002	-0.188063
C	 0.0859285605	-0.6627858259	 1.3598877509	 0.017288
O	 0.0955227375	 0.2583844244	 2.4462833789	-0.43221
H	 0.6562995907	 1.9927497186	 0.5266756783	 0.141563
H	-0.2013075576	 1.9063525854	-1.0303845753	 0.120983
H	-1.0932822302	 1.8582730333	 0.4938687181	 0.109109
H	-0.1442271	-0.1540798988	-2.0794791617	 0.082315
H	-0.7233173238	-2.7040984401	-0.7599010287	 0.090348
H	 0.1397970659	-2.4808168873	-2.2858205833	 0.107721
H	 0.4873499239	-3.4115776075	 1.0444823516	 0.081374
H	 2.2564266427	-3.3789148616	 0.954461586	 0.107246
H	 1.498828225	-1.7217496552	 2.5548404317	 0.10598
H	 2.2304253177	-0.8847932288	 1.1791537838	 0.109724
H	-0.7661002911	-1.3570605278	 1.4777605524	 0.073533
H	-0.7490685825	 0.7182209941	 2.4642180166	 0.28126
69.7043	171.5226	209.0841	243.9791	278.0179	293.6481	317.3469	348.3035	397.3763	415.5028	454.8089	550.68	592.7782	658.5556	745.2714	821.559	870.527	882.6632	933.7169	1003.6531	1029.5421	1038.7771	1056.1107	1075.4049	1098.308	1108.9075	1153.6899	1191.6739	1230.3792	1266.0072	1285.5316	1329.9342	1339.4246	1363.1301	1379.5285	1396.5187	1403.3467	1415.2221	1429.388	1475.3127	1477.6871	1485.6623	1489.0398	1495.8717	1724.8886	2924.8621	2938.9224	2948.812	3012.8077	3040.4195	3073.9695	3075.0122	3081.212	3092.5672	3121.3237	3149.8682	3827.0685
CC1=CCOCCC1O	CC1=CCOCC[C@H]1O	
InChI=1S/C7H12O2/c1-6-2-4-9-5-3-7(6)8/h2,7-8H,3-5H2,1H3	InChI=1S/C7H12O2/c1-6-2-4-9-5-3-7(6)8/h2,7-8H,3-5H2,1H3/t7-/m1/s1
