18
gdb 30842	2.39444	1.39	0.92953	2.359	77.11	-0.1953	0.0353	0.2306	1274.5817	0.147937	-435.303285	-435.293894	-435.29295	-435.3375	34.215	
C	 0.3243641866	 1.214492568	-0.3104741591	-0.327225
N	-0.36973795	 0.0878242993	 0.321371226	-0.386873
C	 0.3804383542	-0.7167831159	 1.1585297417	 0.205753
C	 0.7816795122	-2.0078797799	 1.1087969045	 0.243947
C	 0.4863109385	-3.021812441	 0.0583803537	-0.49357
N	 1.5607501184	-2.3104187064	 2.229511467	-0.395963
C	 1.5870962629	-1.1984716426	 2.8992171768	 0.445217
N	 2.164328957	-0.982314472	 4.1277483401	-0.58892
O	 0.9177593649	-0.1706461016	 2.3539038731	-0.218395
H	 1.1635785766	 0.8297769411	-0.8967471541	 0.132117
H	-0.3651289433	 1.7217285779	-0.9917074237	 0.118907
H	 0.7148549819	 1.9525646257	 0.4052888312	 0.113352
H	-1.240939951	 0.3883285598	 0.7451002368	 0.232706
H	 1.4104812548	-3.3950711486	-0.3965695752	 0.129546
H	-0.0320654207	-3.8868891743	 0.4862827104	 0.131374
H	-0.1406121918	-2.5858626257	-0.7224934286	 0.130709
H	 2.8561801663	-1.680273626	 4.3584952753	 0.267321
H	 2.4793444926	-0.0362340578	 4.2853307838	 0.259996
70.0182	133.8516	164.9168	170.1165	208.2642	253.2473	282.3689	297.9403	347.7569	445.3961	538.2993	597.0671	617.6243	640.6548	654.8332	749.8056	761.6839	821.4825	973.1089	1016.8949	1028.1647	1053.5877	1069.4209	1136.8483	1147.5614	1171.1207	1269.3567	1335.9224	1412.4461	1445.043	1451.3513	1475.7451	1479.7726	1488.22	1492.2732	1519.9908	1600.1367	1671.7238	1732.7989	2996.2073	3034.2159	3077.4599	3085.9231	3117.046	3131.3045	3513.6986	3572.8227	3681.4934
CNC1=C(C)N=C(N)O1	CNc1c(C)nc(N)o1	
InChI=1S/C5H9N3O/c1-3-4(7-2)9-5(6)8-3/h7H,1-2H3,(H2,6,8)	InChI=1S/C5H9N3O/c1-3-4(7-2)9-5(6)8-3/h7H,1-2H3,(H2,6,8)
