23
gdb 53432	2.23431	1.11351	0.91774	0.1846	93.6	-0.2387	0.056	0.2947	1451.0961	0.205812	-351.157935	-351.147558	-351.146614	-351.196274	37.103	
C	 0.0606729416	 1.5423812214	 0.107182427	-0.49726
C	 0.0365267147	 0.0863540436	 0.06591651	 0.002525
C	 0.0249106656	-1.1182507769	 0.0241131418	 0.129634
C	 0.0183158392	-2.5799216656	-0.0071040674	-0.178765
C	 0.6240999243	-3.1881584524	 1.2831864444	-0.210045
C	-0.5282724254	-3.1529312564	 2.3182559359	-0.200606
C	-1.8395159654	-3.0596665072	 1.4880279282	-0.203855
C	-1.4168386582	-3.1834147967	 0.0077920547	 0.052453
C	-2.4035427542	-2.5872963451	-0.9909352138	-0.414717
H	 1.0863630244	 1.9255632639	 0.0618664561	 0.145617
H	-0.4903967157	 1.9759241929	-0.7349417579	 0.145492
H	-0.3926218452	 1.924067402	 1.0289524255	 0.144729
H	 0.5671752088	-2.916161835	-0.895138614	 0.087421
H	 0.9149450845	-4.2232468639	 1.0720021107	 0.093297
H	 1.5179414178	-2.656882651	 1.6170148076	 0.100852
H	-0.5074300162	-4.036850361	 2.9616840898	 0.094721
H	-0.4288321697	-2.2840763611	 2.9742421733	 0.105441
H	-2.5698186675	-3.8265414414	 1.7621112769	 0.091259
H	-2.3223326521	-2.0897782636	 1.648002241	 0.102849
H	-1.288088119	-4.2499963916	-0.2233844865	 0.067853
H	-2.5262315668	-1.5130606265	-0.8218495374	 0.125425
H	-2.0633344241	-2.7275291541	-2.0227352959	 0.107956
H	-3.3864231915	-3.0615321641	-0.89794644	 0.107724
5.2915	60.9144	84.2962	95.5014	189.8338	232.3126	248.5881	295.2843	320.0503	406.2362	454.4993	545.5569	584.4661	653.033	750.4893	788.5682	845.0728	886.3811	895.5834	911.5811	981.669	1008.9317	1028.8474	1053.2821	1054.0172	1062.6256	1112.4536	1123.1298	1165.1047	1196.6118	1213.2434	1227.9861	1280.0103	1300.2459	1312.8233	1332.9652	1338.3723	1376.0675	1386.2089	1411.9976	1415.1005	1479.4537	1479.7523	1485.784	1491.9163	1496.5838	1501.46	1511.6973	2361.8568	3002.8869	3024.243	3027.3191	3030.979	3045.0613	3045.6288	3061.4477	3079.7462	3083.6198	3083.8092	3093.6115	3098.3616	3108.6092	3112.1168
CC#CC1CCCC1C	CC#C[C@H]1CCC[C@H]1C	
InChI=1S/C9H14/c1-3-5-9-7-4-6-8(9)2/h8-9H,4,6-7H2,1-2H3	InChI=1S/C9H14/c1-3-5-9-7-4-6-8(9)2/h8-9H,4,6-7H2,1-2H3/t8-,9+/m1/s1
