22
gdb 122080	2.07949	0.89003	0.65304	3.4424	84.23	-0.2819	0.0215	0.3034	1784.8805	0.191722	-404.366594	-404.355458	-404.354513	-404.404012	38.542	
C	 0.0280126161	 1.5148573161	 0.2090657246	-0.384783
C	-0.0667673249	 0.0209191315	-0.1110012638	-0.184708
C	-1.4677684234	-0.5275403026	 0.1141277449	-0.054058
O	-1.4631722087	-1.9140625153	-0.2085908286	-0.245084
C	-2.7088154173	-2.5548581513	-0.0790035402	-0.009834
C	-2.6041124829	-3.952927278	-0.7042797088	-0.189095
C	-2.3081043662	-3.8931606349	-2.2037016747	-0.393903
C	-3.1196986039	-2.6452025992	 1.3435840766	 0.269233
N	-3.4349997364	-2.7115291972	 2.4534338247	-0.3275
H	 1.0431335141	 1.885805429	 0.0428408414	 0.121157
H	-0.6478008601	 2.1031967709	-0.4213306009	 0.117821
H	-0.2326443583	 1.7164900934	 1.2536435707	 0.123239
H	 0.2193233388	-0.1649316538	-1.1526114662	 0.10719
H	 0.6323387888	-0.5470928848	 0.5128817087	 0.114205
H	-1.7756714872	-0.3841782142	 1.1609869043	 0.114095
H	-2.1993882993	-0.000513114	-0.5208132832	 0.090297
H	-3.4915495524	-1.9789053113	-0.6024384117	 0.108126
H	-1.8147535582	-4.4981990981	-0.1765737301	 0.127725
H	-3.5433105435	-4.4830622881	-0.5143918684	 0.119249
H	-2.2139803681	-4.9013612758	-2.6163899286	 0.121069
H	-3.1119303854	-3.383688824	-2.7466355107	 0.115893
H	-1.3767209315	-3.3549038082	-2.3926115098	 0.139666
54.1402	60.9871	99.8589	118.2203	144.1964	149.2694	218.7492	229.9505	247.3741	299.2088	355.0224	387.7865	475.9225	550.5231	614.3759	767.2897	777.9866	869.8803	904.0772	912.8126	963.7623	966.5697	1041.9573	1060.4078	1104.9006	1128.4282	1150.6071	1176.2241	1192.0048	1270.9394	1286.4203	1318.3263	1319.6348	1334.8381	1363.3082	1383.9448	1409.2215	1414.5515	1442.5564	1477.983	1492.6028	1495.7372	1500.7607	1507.5189	1509.5447	1525.6448	2351.4294	2958.6771	2967.1914	3010.5907	3034.0754	3040.881	3041.1263	3051.4579	3075.0571	3090.2078	3102.9976	3110.6158	3111.8523	3134.2254
CCCOC(CC)C#N	CCCO[C@@H](CC)C#N	
InChI=1S/C7H13NO/c1-3-5-9-7(4-2)6-8/h7H,3-5H2,1-2H3	InChI=1S/C7H13NO/c1-3-5-9-7(4-2)6-8/h7H,3-5H2,1-2H3/t7-/m0/s1
