15
gdb 9100	5.58881	0.95555	0.85623	1.488	60.34	-0.2581	-0.0517	0.2065	1257.836	0.117191	-436.965769	-436.957162	-436.956218	-437.000313	29.336	
O	-0.3022426069	 1.311828626	-0.0250733879	-0.441667
C	 0.147402519	-0.0125471536	-0.1470663047	 0.040768
C	 1.1493007522	-0.1274424527	-1.312204391	-0.173852
N	 0.5508442769	 0.3528524379	-2.5389068651	-0.273614
C	 0.3844817655	-0.434014592	-3.6362670924	 0.154869
O	 0.7645663133	-1.5814098071	-3.7375507207	-0.322467
C	 0.7760401335	-0.4825259728	 1.148041415	 0.133763
O	 0.8782217814	 0.2521630484	 2.1006494897	-0.254288
H	-0.0517877609	 1.592813531	 0.8698086713	 0.298864
H	-0.7010213457	-0.6844033263	-0.3636542715	 0.110797
H	 2.0435577367	 0.4604202353	-1.0702220486	 0.12055
H	 1.4446040599	-1.1653735756	-1.4847776627	 0.150304
H	 0.1388287093	 1.272954595	-2.5204688318	 0.263226
H	-0.1403398283	 0.104382833	-4.4491136716	 0.081308
H	 1.140798214	-1.5288063966	 1.1721473318	 0.111439
35.2205	71.0338	103.4207	193.4216	256.6735	299.4627	323.8363	395.2692	435.6401	499.9991	583.265	730.5666	784.208	842.9794	924.5535	954.3874	1031.0575	1042.9659	1102.3792	1166.3418	1213.784	1252.2544	1268.5572	1331.6031	1385.5684	1400.1358	1427.4823	1434.9679	1479.0378	1528.4141	1803.0965	1812.9859	2940.4314	2947.678	2970.5991	3029.114	3117.637	3635.1267	3685.5842
OC(CNC=O)C=O	O[C@@H](CNC=O)C=O	
InChI=1S/C4H7NO3/c6-2-4(8)1-5-3-7/h2-4,8H,1H2,(H,5,7)	InChI=1S/C4H7NO3/c6-2-4(8)1-5-3-7/h2-4,8H,1H2,(H,5,7)/t4-/m0/s1
