19
gdb 53549	4.26057	0.81931	0.77855	2.1347	83.83	-0.2342	0.0531	0.2873	1537.232	0.15745	-385.801557	-385.792354	-385.79141	-385.838303	33.114	
C	 0.5041644763	 1.1102754407	-0.9934509224	-0.49681
C	 0.1257647354	-0.0926237217	-0.2654203998	 0.080959
C	-0.1786649522	-1.0842276257	 0.3453213812	 0.048536
C	-0.5683694433	-2.2927570639	 1.0628298806	-0.494276
C	-1.6492987981	-3.0623262836	 0.3422279359	 0.429048
C	-3.1280156822	-2.6818860269	 0.0670290538	-0.244638
C	-2.9085651808	-4.1734564078	-0.2726462171	 0.043965
C	-1.6015811754	-3.8132790165	-1.0145560488	-0.244605
O	-2.1279759852	-4.3179845049	 0.9801217315	-0.347288
H	 1.5903274432	 1.2538436104	-0.9870647114	 0.149041
H	 0.1843112045	 1.0591202055	-2.0401558008	 0.147148
H	 0.049358042	 2.0039478504	-0.5520137877	 0.148127
H	 0.294941201	-2.9569517109	 1.1992698285	 0.139242
H	-0.9334596572	-2.0448504775	 2.0679702713	 0.139213
H	-3.7285470771	-2.4929232385	 0.9579159944	 0.104294
H	-3.3355902154	-1.9871350341	-0.749936678	 0.099005
H	-3.6408131143	-4.9485226605	-0.4953101056	 0.09586
H	-1.6691823064	-3.2223591094	-1.9307819348	 0.098855
H	-0.8646783946	-4.6156283252	-1.0713786708	 0.104325
9.6209	48.5607	71.3002	201.7548	226.5264	296.9919	324.1254	384.1875	440.468	520.3074	594.1974	667.7361	739.8501	768.8468	777.57	897.4853	904.301	928.3686	971.0456	987.9773	1004.6735	1052.6071	1053.7871	1088.5791	1089.6542	1121.0046	1147.559	1165.3333	1211.1175	1211.7854	1229.1506	1279.1797	1314.1708	1349.0276	1415.9271	1467.6006	1468.1387	1478.6079	1479.3043	1514.7383	2377.0487	3018.4246	3026.9211	3052.6116	3063.9315	3071.3855	3087.1326	3087.7722	3127.7404	3145.6878	3150.8918
CC#CCC12CC(C1)O2	CC#CC[C@@]12C[C@@H](C1)O2	
InChI=1S/C8H10O/c1-2-3-4-8-5-7(6-8)9-8/h7H,4-6H2,1H3	InChI=1S/C8H10O/c1-2-3-4-8-5-7(6-8)9-8/h7H,4-6H2,1H3/t7-,8+
