15
gdb 133180	2.44715	1.7552	1.02851	4.2095	74.15	-0.2085	-0.0311	0.1774	1078.2478	0.113618	-458.109016	-458.101222	-458.100277	-458.141247	29.52	
C	-0.0215083306	 1.5206898136	 0.0145580034	-0.475301
C	-0.0034707872	 0.0236011076	 0.0066602786	 0.239631
C	-0.0232775563	-0.7096701499	-1.1344192391	-0.06498
N	-0.0062622867	-2.0739635993	-1.1162219118	-0.251057
N	 0.0310329133	-2.8047274521	 0.0145785861	-0.250321
C	 0.0504022978	-2.1367396156	 1.1094479256	 0.288171
F	 0.0871530912	-2.8557732698	 2.2269169203	-0.0639
C	 0.0373657974	-0.6803195224	 1.2820791544	 0.094025
N	 0.0576332304	-0.0612287409	 2.4118531271	-0.551627
H	 0.860805205	 1.9103494291	 0.5334551908	 0.147593
H	-0.0515799396	 1.9306959206	-0.9983631568	 0.109014
H	-0.8863214101	 1.8891016505	 0.5766601206	 0.147583
H	-0.0534847209	-0.2647706367	-2.1224009043	 0.131867
H	-0.0205958122	-2.6189047209	-1.960618941	 0.281625
H	 0.0846414884	-0.7345977839	 3.1782275962	 0.217679
98.9084	172.7085	260.3104	281.8138	324.6654	334.1731	362.2459	472.0377	529.0113	546.9505	564.3473	568.0909	707.4722	767.8411	864.123	877.1179	897.13	953.7423	1014.7102	1064.7161	1105.5089	1226.4851	1273.8528	1337.4087	1349.8756	1415.8308	1437.4077	1463.9708	1486.4875	1529.2351	1638.485	1668.6126	1677.5379	3036.0136	3091.2836	3120.0184	3201.7938	3476.2308	3674.196
CC1=CNN=C(F)C1=N	CC1=C(C(=NNC1)F)[NH]	
InChI=1S/C5H6FN3/c1-3-2-8-9-5(6)4(3)7/h2H,1H3,(H2,7,8)	InChI=1S/C5H7FN3/c1-3-2-8-9-5(6)4(3)7/h7-8H,2H2,1H3
