21
gdb 119020	1.85466	1.31405	0.89346	1.3105	84.72	-0.2461	0.0518	0.2979	1401.5037	0.179048	-387.036765	-387.026444	-387.0255	-387.072865	37.822	
C	-2.3395411284	 1.108700719	-1.785615604	-0.384477
C	-2.1200028982	-0.3841750653	-1.6072510184	-0.054188
O	-1.6819189016	-0.6048008999	-0.2732939235	-0.286009
C	-1.5996662226	-1.9419276339	 0.1171398091	 0.459635
C	-0.5049783939	-2.7642883969	-0.5625419383	-0.441444
C	 0.8311604509	-2.2039540486	-0.3893655146	 0.330701
C	 1.9306929332	-1.7404942903	-0.2481493243	-0.457605
C	-1.8944854198	-2.1730175199	 1.5645870235	-0.307065
C	-2.8849930485	-2.6319656713	 0.5096125459	-0.334255
H	-2.6634371222	 1.3273129936	-2.8076144689	 0.113289
H	-3.1037306577	 1.4709993249	-1.0920619981	 0.123425
H	-1.4131159812	 1.6557972754	-1.5899485265	 0.131711
H	-3.0500646509	-0.942211302	-1.7956839541	 0.087313
H	-1.3677685483	-0.7431640795	-2.32538263	 0.09594
H	-0.5348243148	-3.7827618932	-0.1575476404	 0.129533
H	-0.7244761393	-2.863357299	-1.6336110895	 0.129425
H	 2.9011155257	-1.3296351516	-0.1198759204	 0.194251
H	-1.3154495487	-2.9193324949	 2.0971344755	 0.115525
H	-2.1584012218	-1.2977379275	 2.1460431308	 0.12524
H	-3.7992376196	-2.0582389185	 0.4086954466	 0.118681
H	-2.9930965423	-3.6951007503	 0.3218245195	 0.110375
42.6117	53.9342	116.6645	136.0152	190.0927	245.9824	289.7094	310.7663	352.6828	373.0343	409.8734	464.4149	573.5292	617.6239	634.6145	754.2944	776.448	823.4006	866.1535	892.8493	902.9963	959.0603	984.1324	994.9676	1017.0015	1050.2767	1079.5431	1095.8529	1147.0073	1185.9833	1187.3808	1199.1181	1289.8321	1300.2881	1328.0468	1359.4541	1400.8122	1427.5429	1452.8335	1467.1541	1483.4395	1498.1077	1499.8133	1526.0072	2240.627	2979.895	3010.921	3023.7588	3044.8297	3057.1105	3118.7614	3123.035	3131.7304	3141.3173	3217.6473	3234.6304	3507.3392
CCOC1(CC#C)CC1	CCOC1(CC#C)CC1	
InChI=1S/C8H12O/c1-3-5-8(6-7-8)9-4-2/h1H,4-7H2,2H3	InChI=1S/C8H12O/c1-3-5-8(6-7-8)9-4-2/h1H,4-7H2,2H3
