21
gdb 108221	1.96692	1.41764	1.31075	1.2815	78.85	-0.2289	0.0639	0.2928	1174.2115	0.180558	-424.185884	-424.175997	-424.175053	-424.22045	36.526	
C	 0.3655945322	 1.6953064223	 0.0219497115	-0.424813
C	 0.3285911457	 0.1834739653	 0.0695446458	-0.133502
C	 0.6454905616	-0.7492166608	-1.0996071591	 0.198768
C	-0.2857589729	-1.8175056478	-1.5946199587	-0.500428
C	 1.8455934341	-0.191050628	-1.8601414113	-0.138957
O	 2.6248536294	-0.0723316496	-0.6373985699	-0.328743
C	 1.56032789	-0.6820083583	 0.1079436901	 0.382224
C	 1.9688815132	-1.6599279347	 1.1761626324	-0.183255
O	 0.8622930217	-2.1676719799	 1.9032784639	-0.407866
H	 1.3066853508	 2.0482647139	-0.4066434397	 0.136563
H	-0.4614673054	 2.0998499764	-0.5715848744	 0.114649
H	 0.2866741336	 2.1168126266	 1.0300214572	 0.112379
H	-0.4835489585	-0.2368177199	 0.660591578	 0.082424
H	-1.0441455652	-1.4108969151	-2.2746863879	 0.118446
H	 0.2587132877	-2.6008221533	-2.1346215957	 0.117049
H	-0.8053684248	-2.2932157241	-0.7576556443	 0.136104
H	 2.3055137959	-0.9232215925	-2.5349039135	 0.105621
H	 1.7371772268	 0.7681939674	-2.3800625309	 0.101286
H	 2.4606798554	-2.5266750675	 0.7218700876	 0.120118
H	 2.7110607828	-1.1775073577	 1.8326008592	 0.104072
H	 0.505515136	-1.4454160628	 2.4299111196	 0.287861
60.0952	145.7238	169.4497	178.6348	192.5558	221.5465	251.8242	292.0018	319.043	339.8356	429.1159	506.8515	583.016	636.842	698.9941	757.2319	773.7275	925.6457	950.8375	982.9959	997.6352	1018.6658	1053.7063	1080.1681	1102.0577	1114.7346	1131.6266	1144.5908	1159.2541	1209.5965	1234.1746	1276.3627	1315.1914	1347.9684	1381.5723	1403.7956	1412.475	1420.1685	1484.6433	1489.9022	1494.6203	1498.1635	1502.5205	1513.5875	1523.9998	2978.1843	3016.6898	3022.1194	3033.269	3064.2233	3069.0505	3077.3285	3088.6251	3106.1784	3117.974	3133.8463	3820.9513
CC1C2(C)COC12CO	C[C@H]1[C@@]2(C)CO[C@@]12CO	
InChI=1S/C7H12O2/c1-5-6(2)4-9-7(5,6)3-8/h5,8H,3-4H2,1-2H3	InChI=1S/C7H12O2/c1-5-6(2)4-9-7(5,6)3-8/h5,8H,3-4H2,1-2H3/t5-,6+,7-/m0/s1
