15
gdb 32368	4.86578	1.03542	0.85832	5.8473	73.62	-0.2258	-0.0639	0.162	1269.2144	0.113216	-453.95841	-453.950267	-453.949323	-453.992221	29.137	
O	-0.0222310425	 1.4461229178	 0.0070638132	-0.416397
C	 0.0127281605	 0.0327100152	 0.0022676278	-0.169433
C	-1.3990317829	-0.4825204234	 0.0126901521	 0.122298
C	-2.4793661904	 0.3240514171	 0.0241152032	 0.043746
O	-3.7323694035	-0.1408315886	 0.0333221742	-0.193701
C	-3.9770739837	-1.5214026568	 0.0316073646	 0.429515
N	-5.198873012	-1.848759967	 0.0408903639	-0.522565
N	-2.8879413743	-2.3872494411	 0.0196204038	-0.307482
C	-1.695356336	-1.8891274848	 0.0109936457	-0.019852
H	 0.880952829	 1.7744803462	 0.0013337911	 0.298901
H	 0.5384599534	-0.3531368965	-0.8879062325	 0.108692
H	 0.5535939917	-0.3588169051	 0.8808068504	 0.108686
H	-2.435698446	 1.4052809973	 0.0268910036	 0.165826
H	-5.2530187425	-2.8658820371	 0.0382030799	 0.234154
H	-0.8696127007	-2.6040805131	 0.0018350789	 0.117611
51.0769	56.9498	190.3901	209.6609	278.0645	371.4893	381.9532	474.5507	496.3033	557.3476	648.8319	755.5111	767.9673	819.2298	861.643	931.2285	969.583	1001.4053	1035.9823	1058.7879	1092.2763	1193.0671	1226.3879	1246.6977	1267.4249	1287.6058	1379.997	1429.9842	1471.3411	1520.2145	1590.9079	1713.7038	1732.0551	2950.7145	2967.9962	3105.5178	3235.9855	3520.6913	3845.4826
OCC1=COC(=N)N=C1	OCC1=CN=C(OC1)[NH]	
InChI=1S/C5H6N2O2/c6-5-7-1-4(2-8)3-9-5/h1,3,6,8H,2H2	InChI=1S/C5H7N2O2/c6-5-7-1-4(2-8)3-9-5/h1,6,8H,2-3H2
