21
gdb 109751	2.15621	1.33457	1.06372	3.1524	80.06	-0.2346	-0.0067	0.2279	1269.2333	0.179197	-424.22153	-424.210996	-424.210052	-424.257861	37.281	
C	 0.1194886398	 1.2071174778	-0.0638230655	-0.235915
O	-0.3878141136	-0.0419964999	-0.4974375474	-0.23306
C	 0.490624034	-0.7296146092	-1.3314318578	 0.099982
C	 1.482189397	-1.7116216979	-0.7409655139	-0.071333
C	 1.6795868314	-1.8357676334	 0.7561601292	-0.399161
C	 0.2389003789	-2.2114948885	-1.4504047815	-0.186224
C	-0.9444221121	-2.8129635191	-0.727484744	 0.382232
C	-2.2754430493	-2.6259154391	-1.4305274522	-0.473143
O	-0.8498763111	-3.3947724401	 0.328064846	-0.305571
H	 1.0400831098	 1.0908887293	 0.5227190923	 0.11863
H	 0.3287952479	 1.8697645511	-0.9168618242	 0.108982
H	-0.6501582744	 1.6653239707	 0.5610415179	 0.131773
H	 0.7718847895	-0.1737174489	-2.2279359256	 0.08288
H	 2.3952763188	-1.8283637832	-1.3207115405	 0.084701
H	 0.7810206579	-1.5513112421	 1.3038308063	 0.140573
H	 1.9211535503	-2.8639495411	 1.0368364098	 0.130351
H	 2.5045958162	-1.1906772289	 1.078524744	 0.101915
H	 0.3626259463	-2.6196522378	-2.4511900622	 0.10319
H	-2.5256338121	-1.5588616453	-1.4110755438	 0.157483
H	-2.2152470303	-2.9249898379	-2.4825019734	 0.126198
H	-3.0531914349	-3.1970423666	-0.9217702433	 0.135514
29.1144	100.6505	111.9101	153.5042	169.393	181.3076	228.3672	247.4086	272.7699	326.764	421.7819	462.71	577.6517	632.6378	648.323	747.3544	787.0486	818.5924	924.7455	967.4588	990.5635	1020.0732	1061.0937	1087.3587	1117.7165	1126.894	1148.6094	1168.0747	1182.2104	1186.6817	1221.9155	1260.0128	1364.2203	1372.5624	1381.0674	1421.3571	1428.9973	1466.2515	1474.9589	1485.0458	1487.148	1492.6069	1499.5118	1508.4692	1808.751	2990.5288	3036.0256	3040.1206	3050.6685	3078.4626	3100.3611	3107.7861	3122.0856	3124.4829	3134.568	3149.6763	3152.1188
COC1C(C)C1C(C)=O	CO[C@H]1[C@@H](C)[C@H]1C(=O)C	
InChI=1S/C7H12O2/c1-4-6(5(2)8)7(4)9-3/h4,6-7H,1-3H3	InChI=1S/C7H12O2/c1-4-6(5(2)8)7(4)9-3/h4,6-7H,1-3H3/t4-,6-,7-/m0/s1
