19
gdb 76067	2.15989	1.35713	1.13866	2.7346	83.63	-0.2368	-0.0167	0.2201	1209.203	0.155866	-385.869994	-385.85999	-385.859046	-385.90507	36.39	
C	-0.0372730991	 1.6123645097	-0.0789266506	-0.419491
C	 0.1325499034	 0.1155694092	 0.0371537308	-0.032157
C	 1.4371786483	-0.5714950984	-0.2845965058	-0.227401
C	 2.6080670646	 0.1553481534	-0.6740901733	 0.376336
C	 3.5968676883	 0.7242946802	-1.0537401075	-0.471859
C	 0.9067714997	-0.5487679747	 1.1685202355	-0.148527
C	 1.61703635	 0.2238931195	 2.2339091314	 0.394578
C	 1.6985373188	-0.4690643268	 3.584035057	-0.483857
O	 2.1034344517	 1.3196625663	 2.0530700872	-0.315387
H	 0.8628272497	 2.1409727816	 0.2313779017	 0.170518
H	-0.2660022268	 1.8793420427	-1.1160174459	 0.118211
H	-0.8689889284	 1.9527625118	 0.546678411	 0.11476
H	-0.7426745798	-0.4560022401	-0.261825227	 0.097942
H	 1.3540424291	-1.5490654256	-0.7520583395	 0.118876
H	 4.4687348496	 1.2424471621	-1.367468221	 0.197713
H	 0.514370981	-1.5039368706	 1.5025897282	 0.090947
H	 2.2124442515	-1.4324134319	 3.4862354132	 0.140164
H	 2.2344100345	 0.1640055638	 4.2917840923	 0.141116
H	 0.6931785536	-0.6822862022	 3.9656264322	 0.137518
51.6057	110.9996	128.9272	148.968	172.7684	218.8911	249.9909	306.8478	358.845	400.0761	493.1901	576.5748	607.3245	639.9665	650.9743	654.6272	734.6601	787.7161	808.7682	926.1234	958.3421	973.4974	1002.3698	1050.6711	1085.0078	1101.7112	1152.209	1161.1911	1177.8909	1253.528	1371.4573	1375.7946	1397.5112	1416.2776	1423.6899	1464.0816	1475.8066	1494.1714	1501.268	1793.743	2239.1408	3032.1362	3041.4444	3092.0694	3097.1959	3130.5911	3139.0666	3153.1573	3160.0333	3169.1379	3505.2606
CC1C(C#C)C1C(C)=O	C[C@H]1[C@@H](C#C)[C@H]1C(=O)C	
InChI=1S/C8H10O/c1-4-7-5(2)8(7)6(3)9/h1,5,7-8H,2-3H3	InChI=1S/C8H10O/c1-4-7-5(2)8(7)6(3)9/h1,5,7-8H,2-3H3/t5-,7+,8+/m0/s1
