19
gdb 120999	3.7452	0.92136	0.87115	2.1616	71.27	-0.2507	0.0572	0.3079	1380.2505	0.158879	-460.10784	-460.099204	-460.09826	-460.141978	31.629	
O	-0.0287744275	 1.3309662046	 0.189735918	-0.419043
C	-0.070709961	-0.087502627	 0.1672866153	-0.062164
C	-1.4685710587	-0.6270999309	-0.1487399946	-0.226786
C	-1.506691979	-2.1391475531	-0.22070754	 0.11157
O	-1.08883813	-2.8008320376	 1.0174044383	-0.320199
C	-2.2813547314	-3.6021763375	 1.054375155	 0.072581
C	-3.4243357275	-2.9432525339	 1.8375509839	-0.093287
O	-3.8483999351	-2.2084076987	 0.6569007046	-0.289579
C	-2.8664210054	-2.8651463418	-0.1652330264	 0.037248
H	-0.5831267162	 1.6279687548	 0.9183206482	 0.280801
H	 0.636191383	-0.3902532818	-0.6135735439	 0.107714
H	 0.2852037832	-0.5196122163	 1.1133240538	 0.108428
H	-2.1834648293	-0.293496252	 0.612248221	 0.10447
H	-1.8029612233	-0.2168119727	-1.1098012336	 0.108754
H	-0.886498116	-2.5093744384	-1.0509245631	 0.078907
H	-2.084406323	-4.6696896132	 1.1636042256	 0.091404
H	-4.2118288515	-3.6281296866	 2.1766446838	 0.106577
H	-3.1124148285	-2.2889526396	 2.6580721892	 0.114172
H	-3.2884481228	-3.2908731982	-1.0769997451	 0.08843
70.0923	91.383	120.9124	143.899	266.6563	293.3498	354.0758	386.2438	452.7392	574.666	711.5694	779.1928	801.8663	829.1842	897.0697	918.9044	948.9289	985.4882	1005.2104	1031.6198	1061.0695	1071.3492	1080.2327	1094.3884	1117.6444	1162.4264	1183.1028	1201.676	1229.8175	1257.9802	1293.2956	1306.0781	1308.1453	1345.6173	1356.5497	1381.0452	1409.6811	1422.1557	1478.431	1501.1567	1514.9532	2992.0846	3006.5282	3019.5822	3033.4731	3059.8466	3083.6799	3086.4013	3094.6496	3107.4413	3816.0894
OCCC1OC2COC12	OCC[C@H]1O[C@H]2CO[C@@H]12	
InChI=1S/C6H10O3/c7-2-1-4-6-5(9-4)3-8-6/h4-7H,1-3H2	InChI=1S/C6H10O3/c7-2-1-4-6-5(9-4)3-8-6/h4-7H,1-3H2/t4-,5+,6+/m1/s1
