14
gdb 45951	2.03839	1.90427	1.04406	6.8733	68.3	-0.2583	-0.0589	0.1995	1072.6709	0.101273	-432.903143	-432.894991	-432.894047	-432.937137	29.022	
N	-0.0421812965	 1.2890834792	 0.2018975484	-0.522185
C	 0.0237708129	 0.0301179042	 0.0686827276	 0.393367
N	 1.1076727475	-0.7973546566	-0.1422985788	-0.35047
C	 0.8569637153	-2.2201137562	-0.068139085	-0.27523
C	-0.6609093415	-2.3087461712	 0.1094090713	 0.400911
O	-1.2924689043	-3.3134615697	 0.2441199442	-0.268118
C	-1.220651228	-0.8626721121	 0.0718391837	-0.340241
C	-2.1635392681	-0.5864037272	 1.1438268184	 0.320054
N	-2.9126922936	-0.3992881711	 2.0021055229	-0.315264
H	 0.8790880186	 1.7288064979	 0.1702025645	 0.212328
H	 2.0423336102	-0.424827461	-0.0991052805	 0.255506
H	 1.1535243132	-2.7596222822	-0.9769520135	 0.150714
H	 1.344271569	-2.7108367968	 0.7852846229	 0.154157
H	-1.7375590347	-0.7444176474	-0.8902925061	 0.184472
29.6978	98.9366	137.8699	188.3043	359.71	386.4061	431.847	458.1759	511.1082	528.5568	608.6907	647.8558	696.6347	781.2405	849.8072	924.0524	987.8562	1022.5509	1057.4241	1115.4154	1152.6148	1165.5556	1208.3412	1257.3145	1303.9195	1386.4449	1436.9701	1500.5651	1760.176	1884.7919	2373.5038	3014.2303	3033.6407	3046.7566	3463.3935	3643.3564
N=C1NCC(=O)C1C#N	[NH][C]1NCC(=O)[C@H]1C#N	
InChI=1S/C5H5N3O/c6-1-3-4(9)2-8-5(3)7/h3H,2H2,(H2,7,8)	InChI=1S/C5H5N3O/c6-1-3-4(9)2-8-5(3)7/h3H,2H2,(H2,7,8)/t3-/m1/s1
