19
gdb 88029	2.37594	1.35404	1.10366	1.0808	81.68	-0.2306	0.0372	0.2678	1196.8779	0.156987	-385.822614	-385.813436	-385.812491	-385.856655	34.34	
C	-0.0677614266	 1.4980643235	-0.0111949687	-0.404045
C	 0.0876511541	-0.0057096534	-0.0396262941	-0.082489
C	 1.4770649662	-0.6350049011	-0.134106189	-0.369999
C	 0.6902854762	-0.715395202	 1.1284670184	 0.458787
O	 1.0838539238	-0.0294009689	 2.3180238794	-0.302202
C	 0.4405999449	-1.0221705422	 3.1429028207	-0.083532
C	 0.161815924	-1.9308853264	 1.9107554333	-0.340562
C	-1.1934648241	-2.3761607602	 1.6689591599	 0.345551
C	-2.3221450862	-2.7348680393	 1.4604330384	-0.459772
H	 0.7020790869	 1.9557590151	 0.6161773397	 0.131232
H	 0.0084836472	 1.9243358221	-1.0170126369	 0.115185
H	-1.0409443542	 1.7827765471	 0.4027356751	 0.11957
H	-0.7078027381	-0.5487931845	-0.5449920309	 0.09647
H	 1.6111985968	-1.5343642894	-0.7272113829	 0.114152
H	 2.3288427954	 0.0387752676	-0.1302163262	 0.121678
H	 1.1194864556	-1.4307680556	 3.8974439078	 0.112259
H	-0.4655486866	-0.6368157858	 3.6228006072	 0.114214
H	 0.8565715035	-2.7754462167	 1.8666802549	 0.113847
H	-3.3187064587	-3.0553527	 1.2820957439	 0.199655
71.8189	101.4875	150.5441	180.7838	197.832	235.6041	329.8599	395.4242	484.0946	524.0515	540.2479	583.9818	622.9761	639.7102	740.406	795.103	870.0893	875.0831	906.7915	978.7635	998.7632	1016.9089	1038.7841	1073.0119	1077.2709	1112.9915	1133.2421	1162.9133	1177.0212	1204.5825	1220.3816	1306.6871	1336.7172	1358.3543	1407.9575	1424.7528	1482.9071	1491.7372	1505.6934	1526.3143	2236.3752	3033.7732	3035.2031	3055.2319	3091.9211	3094.5682	3112.2497	3119.6886	3137.7452	3208.0762	3502.993
CC1CC11OCC1C#C	C[C@H]1C[C@]21OC[C@H]2C#C	
InChI=1S/C8H10O/c1-3-7-5-9-8(7)4-6(8)2/h1,6-7H,4-5H2,2H3	InChI=1S/C8H10O/c1-3-7-5-9-8(7)4-6(8)2/h1,6-7H,4-5H2,2H3/t6-,7+,8+/m0/s1
