17
gdb 30356	3.02197	1.58258	1.08095	0.5403	75.82	-0.1744	0.0411	0.2155	1074.8403	0.139242	-418.023853	-418.016231	-418.015286	-418.055771	30.068	
O	 0.0926845619	 1.4029354955	-0.2140290201	-0.428203
C	 0.0255244256	-0.0053837213	-0.0233363175	-0.054695
C	 0.5623566739	-0.4550961011	 1.3798582508	-0.197459
N	-0.2940449119	-1.5879464941	 1.808021755	-0.418601
C	-1.5155935413	-1.4015188145	 1.1303558052	 0.255291
C	-2.8025451406	-1.8778227908	 1.1518816483	-0.234003
N	-3.4446682065	-1.2748385346	 0.0744675145	-0.242323
C	-2.5892305826	-0.4458838652	-0.6064051885	-0.243013
C	-1.3807488259	-0.5063050258	 0.0428060108	 0.29383
H	 1.0071402882	 1.6290403739	-0.4120803756	 0.279957
H	 0.5918700315	-0.5090549811	-0.8231569743	 0.076275
H	 1.6145214103	-0.7561424832	 1.3567718862	 0.093191
H	 0.4597205884	 0.4166823941	 2.0423742402	 0.102581
H	-0.3705053547	-1.6700495968	 2.8140190955	 0.227342
H	-3.325121314	-2.5590632742	 1.801671201	 0.109704
H	-4.4183595321	-1.3915396738	-0.14135015	 0.257123
H	-2.9219766403	 0.1167263329	-1.4632968215	 0.123004
104.7903	170.1499	263.9211	280.369	307.9338	397.3604	470.6285	520.5609	561.6293	613.804	627.5022	636.9605	697.0302	737.7515	761.6296	808.8698	934.9398	968.6101	1001.9624	1051.5788	1059.0987	1086.3671	1114.8167	1174.7678	1209.416	1232.9976	1243.7148	1299.5337	1316.977	1343.4377	1393.7923	1430.1543	1467.4704	1469.4167	1507.8591	1572.3607	1658.1017	2959.7003	2997.4879	3070.9567	3265.1199	3271.6339	3552.6329	3692.1032	3812.3592
OC1CNC2=CNC=C12	O[C@H]1CNc2c[nH]cc12	
InChI=1S/C6H8N2O/c9-6-3-8-5-2-7-1-4(5)6/h1-2,6-9H,3H2	InChI=1S/C6H8N2O/c9-6-3-8-5-2-7-1-4(5)6/h1-2,6-9H,3H2/t6-/m0/s1
