20
gdb 52086	4.85085	0.81016	0.78538	3.2109	83.11	-0.2602	0.0225	0.2828	1514.7028	0.171478	-403.093717	-403.085064	-403.084119	-403.129153	31.684	
N	-0.0899315219	 1.2721199687	 0.0082232418	-0.439097
C	-0.0657229949	 0.0097970636	 0.0020717389	 0.141412
O	-1.2159114365	-0.6878148245	 0.0098558068	-0.189219
C	-1.0919625146	-2.1141238921	 0.0021068068	-0.238041
C	-2.4738901939	-2.6984304421	 0.0112808614	 0.358205
C	-3.5940894643	-2.4989618223	-1.0543374236	-0.243301
C	-4.1966905086	-3.4463360574	 0.0226464506	-0.043538
C	-2.8409816071	-4.212148748	 0.0085251519	-0.267626
C	-3.5763059262	-2.5071912324	 1.0967538298	-0.243265
H	 0.8609180722	 1.6356276191	 0.0007134524	 0.22747
H	 0.8334606634	-0.62318888	-0.0096052857	 0.082259
H	-0.5445083157	-2.4385241247	-0.8943325415	 0.107296
H	-0.5291001366	-2.4468876683	 0.8858478526	 0.107306
H	-4.0205864269	-1.4960903024	-1.1261682778	 0.105934
H	-3.4099912973	-2.9320410767	-2.0419728429	 0.086886
H	-5.1950803691	-3.8833768171	 0.0292151084	 0.074826
H	-2.6015399947	-4.772650701	-0.9000008613	 0.08982
H	-2.5865912435	-4.7795296821	 0.9086808855	 0.089825
H	-3.3759710467	-2.9478043427	 2.077872831	 0.086898
H	-4.0014636968	-1.5049147476	 1.183266385	 0.105951
18.2968	67.9071	106.4894	130.6411	290.8121	302.5071	349.3449	542.8015	543.6859	631.1339	706.96	774.8387	807.6845	821.2985	890.0881	908.6865	953.037	963.8069	979.2961	998.5426	1015.7669	1019.7654	1045.322	1100.8561	1105.0701	1134.8573	1142.5589	1148.7444	1168.1903	1176.4011	1230.1186	1231.4103	1241.7253	1288.2334	1298.019	1325.4692	1404.7485	1429.1734	1498.5725	1499.4844	1503.1767	1557.4406	1748.5531	2988.2376	3015.2517	3033.2956	3042.3433	3049.8405	3055.4531	3107.555	3114.7786	3120.9687	3124.8846	3515.8978
N=COCC12CC(C1)C2	[NH][CH]OC[C@@]12C[C@@H](C1)C2	
InChI=1S/C7H11NO/c8-5-9-4-7-1-6(2-7)3-7/h5-6,8H,1-4H2	InChI=1S/C7H11NO/c8-5-9-4-7-1-6(2-7)3-7/h5-6,8H,1-4H2/t6-,7-
