19
gdb 106309	3.71715	1.1754	1.10337	2.6232	71.	-0.2509	0.0557	0.3066	1148.6967	0.159179	-460.134655	-460.126368	-460.125424	-460.167144	32.906	
O	-0.0281807503	 1.3941061656	-0.092216659	-0.421203
C	 0.0283091168	-0.0111548114	 0.0690487236	-0.161467
C	-1.3387257855	-0.6264812159	-0.0505330095	 0.414147
C	-2.2262199227	-0.5832910729	-1.3225574657	-0.295712
C	-3.0480410686	-1.5913581301	-0.4795162454	 0.352379
O	-4.0171391739	-2.3692527616	-1.0973246416	-0.476931
C	-1.6746103438	-2.1333013129	 0.0563075454	-0.35271
C	-3.4607327924	-0.6824190809	 0.6960961799	-0.13511
O	-2.2033894457	-0.0357403727	 0.9612253838	-0.323725
H	-0.7350341325	 1.6973047453	 0.4901663848	 0.29329
H	 0.683754652	-0.4013903604	-0.715662582	 0.109562
H	 0.4629283095	-0.2906727343	 1.0426999262	 0.093
H	-2.6860800898	 0.3705551372	-1.5865314093	 0.106623
H	-1.7552986593	-1.0520580809	-2.187777178	 0.109514
H	-4.4111354685	-2.9529515023	-0.439352299	 0.283686
H	-1.1613406605	-2.7481478668	-0.6844656546	 0.109199
H	-1.6360246949	-2.584367575	 1.0511626781	 0.096247
H	-4.2283988979	 0.0485519819	 0.4168263301	 0.107284
H	-3.797694132	-1.2392203419	 1.5806354922	 0.091927
100.5433	149.1298	252.5758	265.6515	308.0593	338.2616	396.6423	425.0463	458.5901	494.3024	526.6484	594.1326	647.1747	703.8309	826.4652	858.3053	899.3312	941.3769	962.6654	982.7412	1005.1597	1036.3451	1063.8466	1097.0274	1107.4989	1133.8715	1152.2378	1160.9419	1176.0863	1214.0992	1248.0835	1281.8236	1333.7793	1346.9266	1379.6949	1392.6832	1448.1777	1469.9842	1495.9561	1508.6382	1533.3979	2975.8542	3010.3839	3060.1859	3065.5159	3079.8583	3082.4235	3139.2136	3148.6937	3792.248	3799.4368
OCC12CC(O)(C1)CO2	OC[C@@]12C[C@@](O)(C1)CO2	
InChI=1S/C6H10O3/c7-3-6-1-5(8,2-6)4-9-6/h7-8H,1-4H2	InChI=1S/C6H10O3/c7-3-6-1-5(8,2-6)4-9-6/h7-8H,1-4H2/t5-,6-
