15
gdb 69226	2.66885	1.60601	1.16862	1.6584	66.27	-0.2582	-0.0462	0.212	1031.7308	0.1106	-457.791291	-457.783298	-457.782354	-457.823966	29.639	
C	-0.0709213207	 1.5407890257	 0.0205586259	-0.494556
C	 0.1592347818	 0.0612623097	-0.0169264684	 0.285539
O	-0.6796922844	-0.7882736319	 0.7853150416	-0.273671
C	 0.7219734119	-0.7710762238	 1.0841524745	-0.146481
C	 1.4201515914	-1.9656666459	 0.4774295524	 0.412578
O	 2.2622731285	-2.6347938545	 1.0137210951	-0.300433
C	 0.9296204818	-2.0799138706	-0.9700573772	-0.451888
C	 0.4845334844	-0.6555844964	-1.3178958953	 0.373636
O	 0.4588119551	-0.1491257018	-2.4077407715	-0.299887
H	 0.8146909747	 2.0723260459	-0.3386593794	 0.145037
H	-0.9061879579	 1.806286889	-0.6335118879	 0.153394
H	-0.29955502	 1.8679138355	 1.0370294173	 0.138778
H	 1.0181625297	-0.3664167139	 2.0471707684	 0.125595
H	 1.7026852297	-2.4514589945	-1.643847306	 0.159251
H	 0.070688164	-2.7585684825	-1.0197198894	 0.17311
93.999	124.6014	163.2801	241.7612	294.3063	353.641	419.2036	510.4713	520.7469	523.6761	603.8716	654.8641	700.3629	806.9219	811.5287	846.9583	957.516	999.7577	1034.7601	1078.5913	1089.6812	1130.3495	1206.7916	1221.185	1263.0879	1289.0415	1396.6666	1412.5336	1431.7061	1475.6128	1488.7706	1836.964	1871.7933	3052.8507	3062.5083	3122.6362	3139.0557	3140.2881	3175.555
CC12OC1C(=O)CC2=O	C[C@]12O[C@H]1C(=O)CC2=O	
InChI=1S/C6H6O3/c1-6-4(8)2-3(7)5(6)9-6/h5H,2H2,1H3	InChI=1S/C6H6O3/c1-6-4(8)2-3(7)5(6)9-6/h5H,2H2,1H3/t5-,6+/m0/s1
