21
gdb 105892	2.25637	1.74431	1.20879	1.3935	83.23	-0.2623	0.0703	0.3326	1109.8969	0.182151	-387.012722	-387.004095	-387.003151	-387.045773	33.481	
C	-0.1872462103	 1.5961418061	-0.0092186343	-0.413121
C	-0.0475531117	 0.0814854819	 0.012483939	-0.046885
C	 1.1810694351	-0.5869888123	-0.6430760504	-0.052997
C	 2.1192909988	-0.2813800326	 0.5773399435	-0.077708
C	 2.5794507564	-1.7484638624	 0.6811638802	-0.279635
C	 1.0907303774	-1.8396144005	 0.2951802918	-0.09932
C	 0.6990792879	-0.6039713123	 1.1830084033	 0.392093
C	 0.3287930676	-0.6331541291	 2.6361308281	-0.235094
O	 0.3573509517	 0.704005126	 3.1251357355	-0.419171
H	 0.7616589403	 2.0906623818	 0.2201393543	 0.115878
H	-0.5202921422	 1.9451412315	-0.9933813429	 0.103399
H	-0.9167287466	 1.9309886979	 0.734256894	 0.120861
H	-1.0011839138	-0.402826132	-0.2404252531	 0.052264
H	 1.4841604076	-0.5990385201	-1.6920364055	 0.06273
H	 2.6973153291	 0.6271691156	 0.7443636626	 0.07565
H	 3.301067708	-2.0898972399	-0.0681930092	 0.089156
H	 2.8626381371	-2.1141655526	 1.6737747118	 0.088926
H	 0.4690285979	-2.7211584038	 0.1236937444	 0.063784
H	-0.6746545884	-1.0758397378	 2.7496066514	 0.08535
H	 1.0336379615	-1.2759628785	 3.1892584407	 0.086501
H	 0.0746411266	 0.6925914932	 4.0443245249	 0.287339
85.8956	144.0531	192.7609	219.3673	235.2218	277.5336	289.5252	386.8621	478.4558	537.1674	644.1935	722.9791	762.8851	839.4052	849.2493	876.0502	907.7382	910.3881	919.8293	1006.5473	1020.6522	1032.5683	1044.3006	1065.4449	1074.8248	1102.3332	1118.4395	1142.6497	1154.5701	1163.9758	1183.5842	1217.3581	1228.3025	1239.0073	1249.818	1275.9907	1303.62	1328.9103	1406.3872	1415.7631	1463.743	1491.7904	1494.8507	1506.1099	1516.3883	2955.8537	2982.7081	3005.7426	3031.9447	3034.9237	3084.5145	3088.7071	3093.6302	3096.5239	3108.8135	3117.3853	3826.6398
CC1C2C3CC2C13CO	C[C@H]1[C@H]2[C@@H]3C[C@H]2[C@]13CO	
InChI=1S/C8H12O/c1-4-7-5-2-6(7)8(4,5)3-9/h4-7,9H,2-3H2,1H3	InChI=1S/C8H12O/c1-4-7-5-2-6(7)8(4,5)3-9/h4-7,9H,2-3H2,1H3/t4-,5-,6+,7-,8+/m0/s1
