22
gdb 7395	3.36759	1.14178	0.90609	1.8295	75.51	-0.2481	0.0756	0.3237	1342.6662	0.196855	-387.342512	-387.3319	-387.330955	-387.378362	37.765	
C	-0.081228534	 1.5123269083	-0.0756352339	-0.383411
C	-0.0285958445	 0.0198493335	 0.207994422	-0.033992
O	-1.3005480252	-0.5301154184	-0.073499946	-0.258964
C	-1.3842762876	-1.9464481658	-0.0114443654	 0.133847
C	-1.3346721957	-2.4743108511	 1.4231193521	-0.407164
C	-2.6976526617	-2.3358078638	-0.7194551953	 0.121147
C	-2.7730539539	-1.8077598396	-2.1491850658	-0.409984
O	-2.8879081017	-3.747722297	-0.6723619694	-0.429837
H	 0.886950061	 1.9757970324	 0.136792188	 0.11339
H	-0.333735343	 1.6964515765	-1.1238121261	 0.123591
H	-0.840002522	 1.993357336	 0.5482276966	 0.127094
H	 0.7391332836	-0.4660806797	-0.4179795089	 0.082433
H	 0.2535948391	-0.1549332754	 1.2575284289	 0.091127
H	-0.547632182	-2.384170325	-0.5897012501	 0.046263
H	-1.5347694894	-3.5476992192	 1.4265433465	 0.131973
H	-0.3594943399	-2.3017372681	 1.8864703605	 0.109245
H	-2.0981550697	-1.976086643	 2.0298956626	 0.119188
H	-3.5266132611	-1.9196694752	-0.1339207532	 0.094322
H	-1.9591820285	-2.225408247	-2.7573600117	 0.09763
H	-3.7233272311	-2.0948206586	-2.6074698198	 0.118682
H	-2.6773432227	-0.720782424	-2.1646145663	 0.13675
H	-2.2782560701	-4.1434884357	-1.3052648655	 0.276673
50.5412	71.0141	93.0102	163.9309	214.1878	235.1164	247.584	268.6528	287.5427	341.8858	351.1785	406.4963	438.6054	500.1156	557.4754	818.8285	827.814	860.4209	920.885	958.4398	986.3846	1053.8842	1079.5191	1098.4697	1128.6262	1149.5098	1158.4149	1187.5282	1195.2096	1279.2238	1299.1487	1330.7359	1359.5365	1390.5019	1395.3346	1398.0046	1402.0617	1417.421	1435.1523	1482.8229	1490.4487	1494.481	1496.312	1500.1678	1500.7428	1530.8877	2915.6359	2960.2931	2997.5354	3020.5396	3042.6667	3043.7524	3045.9716	3100.47	3113.1011	3118.0832	3120.2423	3137.3533	3143.3527	3795.9246
CCOC(C)C(C)O	CCO[C@@H](C)[C@@H](C)O	
InChI=1S/C6H14O2/c1-4-8-6(3)5(2)7/h5-7H,4H2,1-3H3	InChI=1S/C6H14O2/c1-4-8-6(3)5(2)7/h5-7H,4H2,1-3H3/t5-,6+/m1/s1
