19
gdb 40875	3.45192	1.52144	1.34396	1.8549	78.36	-0.2339	-0.0016	0.2323	1011.6814	0.160364	-385.826183	-385.819056	-385.818112	-385.857628	29.32	
C	 0.0785651501	 1.4166054907	-0.5176983346	-0.21516
C	 1.3967102268	 1.6233115781	 0.2799522515	-0.29468
C	 1.2714699584	 0.1664931697	 0.7821469224	 0.421146
C	-0.203128486	 0.1391593314	 0.3254254154	-0.314892
C	 2.3600903537	-0.8668437375	 0.3374265702	-0.046452
O	 3.1811020702	-0.3628328499	 1.4406332585	-0.293253
C	 1.8883053773	-0.3049537647	 2.133313055	-0.071897
C	 1.4798770913	-1.78770474	 2.163221239	-0.079614
C	 1.8055096109	-2.1746429921	 0.9271878573	-0.086681
H	-0.6633130507	 2.2161868329	-0.4688771947	 0.098588
H	 0.2644666111	 1.1824046601	-1.5693583723	 0.10244
H	 2.300477335	 1.8813016729	-0.2758442148	 0.10818
H	 1.2764126168	 2.344828372	 1.0943667971	 0.101011
H	-0.8887305589	 0.3370621001	 1.1555464679	 0.10165
H	-0.5485560464	-0.7547682689	-0.1983686873	 0.100172
H	 2.8485705551	-0.8585000122	-0.6370001825	 0.076384
H	 1.883700553	 0.2928063691	 3.0447920364	 0.073992
H	 1.0359720473	-2.3310837662	 2.9841065598	 0.109839
H	 1.7095458551	-3.1304065755	 0.4337578657	 0.109225
96.6653	193.262	213.0377	319.27	413.983	527.9945	545.0693	618.8663	686.615	725.1729	755.8665	784.5186	823.0733	862.083	873.65	878.5019	905.9373	909.5912	934.187	936.5651	961.079	995.7708	1040.296	1086.8708	1130.0989	1148.9561	1170.1435	1175.9509	1201.2312	1228.4234	1235.3873	1252.3208	1269.0423	1276.294	1289.2759	1304.7979	1320.541	1470.2886	1481.4412	1503.4181	1611.7326	3050.4324	3054.2489	3062.2475	3101.205	3109.3203	3120.61	3122.9384	3125.2417	3230.4143	3257.7047
C1CC2(C1)C1OC2C=C1	C1CC2(C1)[C@H]1O[C@@H]2C=C1	
InChI=1S/C8H10O/c1-4-8(5-1)6-2-3-7(8)9-6/h2-3,6-7H,1,4-5H2	InChI=1S/C8H10O/c1-4-8(5-1)6-2-3-7(8)9-6/h2-3,6-7H,1,4-5H2/t6-,7+
