14
gdb 129863	5.41436	1.27247	1.034	6.1	71.33	-0.1929	0.0096	0.2025	1064.2675	0.104524	-429.040958	-429.033823	-429.032878	-429.072194	27.68	
N	 0.141149697	 1.3803216618	 0.1128034119	-0.605252
C	-0.0042748664	-0.0098450984	 0.0043774058	 0.325925
C	-1.1096489812	-0.8209872487	-0.0260959644	-0.368466
C	-0.6036400083	-2.1678406522	-0.0071083748	 0.318082
C	 0.7779352005	-2.0870012469	 0.0299182548	 0.409288
N	 1.2156845433	-3.3581757484	-0.034805876	-0.351946
N	 0.1243747451	-4.2064684681	-0.0692336887	-0.136175
N	-0.9575050323	-3.483090994	-0.0684292721	-0.297407
N	 1.1793281618	-0.7776619289	-0.0074082496	-0.439132
H	 0.5468463355	 1.800772449	-0.7183224774	 0.249322
H	-0.7486152816	 1.825723417	 0.2969193637	 0.255198
H	-2.1335200648	-0.4886245054	-0.0855340928	 0.102783
H	 2.1367641102	-3.7565900429	 0.0232899844	 0.273646
H	 2.0499532311	-0.4065797339	 0.3346890553	 0.264133
154.2926	187.6504	283.6998	322.0652	339.8183	407.978	427.4681	518.1818	568.7588	633.9471	676.8476	742.9449	779.3831	781.2068	805.7765	853.1413	942.3531	979.5074	1027.0344	1132.9166	1187.001	1213.4864	1238.767	1295.759	1372.7221	1403.9775	1470.274	1521.0266	1607.8635	1634.4076	1658.0747	3261.6768	3495.7935	3610.6325	3660.7721	3683.5166
NC1=CC2=C(NN=N2)N1	Nc1cc2c([nH]nn2)[nH]1	
InChI=1S/C4H5N5/c5-3-1-2-4(6-3)8-9-7-2/h1H,(H4,5,6,7,8,9)	InChI=1S/C4H5N5/c5-3-1-2-4(6-3)8-9-7-2/h1H,(H4,5,6,7,8,9)
