23
gdb 103475	2.26759	1.59411	1.18045	1.0303	86.26	-0.2337	0.0874	0.3211	1185.5728	0.203951	-388.260172	-388.250242	-388.249298	-388.294168	37.771	
C	 0.2360901341	 1.1553004509	 0.312402806	-0.248626
O	-0.1795959226	-0.1008549477	-0.1851853395	-0.284104
C	 0.5898572743	-0.6019396498	-1.2511451778	 0.404252
C	 0.4189346473	 0.1734311129	-2.5433326021	-0.469045
C	 1.9576991737	-1.1885671261	-0.9900322507	-0.18301
C	 2.0331284416	-1.799916503	 0.4117587599	-0.232466
C	 0.7891800035	-2.6806573513	 0.0875462545	-0.270068
C	 0.7352920124	-2.0920300174	-1.3339118147	 0.262598
C	 0.4007753279	-2.9327120382	-2.5357477888	-0.499732
H	 1.3171752886	 1.1775674669	 0.5093361479	 0.10982
H	-0.0082791837	 1.9794754049	-0.3727426487	 0.106402
H	-0.2996657092	 1.3186138444	 1.2511841541	 0.123033
H	 0.714655607	 1.2193416997	-2.413440833	 0.117546
H	 1.0395173792	-0.2377278978	-3.3425643573	 0.121076
H	-0.6256204909	 0.1554944931	-2.8711261769	 0.122719
H	 2.8093529184	-0.919939371	-1.6074189928	 0.073212
H	 2.9357809062	-2.397482426	 0.5578081798	 0.097124
H	 1.9368084041	-1.1044963125	 1.2503614425	 0.096478
H	 1.0268516767	-3.7475627549	 0.0773281631	 0.092435
H	-0.0997146119	-2.5168070644	 0.7002688194	 0.106216
H	-0.6473356377	-3.2560677041	-2.5006341311	 0.122224
H	 0.5478499087	-2.4016163866	-3.4796822711	 0.116374
H	 1.0198792224	-3.836771822	-2.5631015828	 0.115541
116.1974	151.7545	163.8121	184.5471	189.6903	217.8239	254.8977	304.049	321.8982	349.8002	390.4077	482.9722	563.0875	642.8397	651.8109	783.4874	792.2628	854.5043	926.1171	947.5432	956.2521	960.3997	997.1911	1018.1426	1076.6643	1094.2001	1116.2328	1138.8581	1177.1083	1179.3258	1184.0135	1222.4093	1229.4271	1238.9035	1262.7992	1280.1371	1309.9338	1407.9267	1418.8124	1431.6141	1469.859	1474.3397	1483.0834	1486.1472	1492.4231	1495.3073	1502.6705	1512.0163	1516.8002	2990.1162	3021.3973	3037.5909	3042.817	3054.2171	3062.7515	3074.8326	3099.4592	3100.0004	3108.7978	3109.4143	3119.8119	3125.0502	3155.3747
COC1(C)C2CCC12C	CO[C@@]1(C)[C@H]2CC[C@@]12C	
InChI=1S/C8H14O/c1-7-5-4-6(7)8(7,2)9-3/h6H,4-5H2,1-3H3	InChI=1S/C8H14O/c1-7-5-4-6(7)8(7,2)9-3/h6H,4-5H2,1-3H3/t6-,7+,8-/m0/s1
