22
gdb 52400	5.1631	0.59015	0.57658	3.649	84.76	-0.2487	0.0349	0.2835	1969.7329	0.194747	-404.368264	-404.358449	-404.357504	-404.40514	35.078	
O	 0.170430765	 0.2821603804	 1.0638728442	-0.323225
C	 0.0645612301	 1.20045929	 0.2783854654	 0.152739
N	 1.0383940884	 1.6330469945	-0.5661929499	-0.273615
C	 2.3772999141	 1.0638635577	-0.5992470218	-0.161807
C	 3.4496895237	 2.0110400265	-0.0461138176	-0.219453
C	 4.8475743054	 1.4101475768	-0.1081921398	 0.06741
C	 5.5354530245	 1.2087010541	-1.4918772853	-0.21871
C	 6.8762097056	 1.6497951318	-0.8460886522	-0.210905
C	 6.0629296899	 2.2829409249	 0.3150030738	-0.237624
H	-0.8669554223	 1.7905144528	 0.1625392183	 0.070527
H	 0.8354371037	 2.4296049828	-1.1492141893	 0.24412
H	 2.3308382004	 0.1500817464	-0.0020199971	 0.149194
H	 2.6231643706	 0.7772517824	-1.6293802981	 0.110343
H	 3.4347987124	 2.9535975796	-0.6124798424	 0.081392
H	 3.1953424664	 2.2648817763	 0.9906674866	 0.110607
H	 4.8637202498	 0.4651367568	 0.4488154573	 0.075917
H	 5.4888502728	 0.2182620443	-1.9513763553	 0.096555
H	 5.1791934174	 1.9458225099	-2.2203481438	 0.092907
H	 7.4634567792	 0.7913745374	-0.507679537	 0.103823
H	 7.5282187553	 2.3059205395	-1.4272308075	 0.096143
H	 5.8670106776	 3.3458169744	 0.1367835762	 0.096152
H	 6.4427461401	 2.1677747009	 1.3331608551	 0.09751
21.5013	54.3682	90.4218	116.4363	166.542	221.0113	275.7945	362.576	382.3603	446.4328	534.7988	641.5017	732.751	769.4907	786.9147	814.3176	896.2015	929.5426	936.5473	973.745	977.8428	1003.9028	1025.4222	1031.8758	1089.548	1120.17	1172.3078	1202.7437	1206.5337	1230.9614	1256.0373	1260.9387	1267.5537	1274.4251	1293.4567	1317.9799	1334.4971	1383.897	1405.1849	1432.0577	1477.2255	1479.6587	1487.1415	1495.1293	1511.4483	1536.3765	1806.5738	2929.4851	3002.2777	3024.7454	3030.61	3040.3322	3047.3583	3056.4544	3059.0637	3095.2945	3099.5533	3116.2835	3117.1552	3631.0866
O=CNCCC1CCC1	O=CNCCC1CCC1	
InChI=1S/C7H13NO/c9-6-8-5-4-7-2-1-3-7/h6-7H,1-5H2,(H,8,9)	InChI=1S/C7H13NO/c9-6-8-5-4-7-2-1-3-7/h6-7H,1-5H2,(H,8,9)
