18
gdb 126243	2.49803	1.28632	0.907	4.4015	76.86	-0.2096	-0.0272	0.1824	1312.5425	0.146843	-435.24523	-435.235839	-435.234895	-435.2808	32.9	
C	 0.2004418215	 1.6028929029	-0.2658379711	-0.373566
C	-0.0237710441	 0.1027945495	-0.0004833042	-0.305344
C	 0.5862909163	-0.3757904611	 1.2696767024	 0.333556
C	 0.0786337859	-0.792342911	 2.4710617863	 0.220753
N	-1.2346883416	-0.9537565483	 2.8889645946	-0.397039
C	-1.4640305091	-1.2862930973	 4.2909067072	-0.320639
N	 1.1505637012	-1.117751295	 3.2672956457	-0.189538
N	 2.2383657521	-0.9308823455	 2.6437986814	-0.027329
O	 1.9270511042	-0.4434836745	 1.3640135775	-0.21231
H	 1.268653109	 1.8301850819	-0.3143401497	 0.141606
H	-0.2565126267	 1.8962152321	-1.2152636403	 0.121231
H	-0.2374674897	 2.2146006306	 0.5287554412	 0.121305
H	-1.0955205099	-0.1216928957	 0.0336717296	 0.116172
H	 0.387692515	-0.4795519881	-0.8337485467	 0.134526
H	-1.8438177253	-0.221321443	 2.5542121124	 0.240103
H	-1.077888615	-0.5323481251	 4.9916612913	 0.122391
H	-2.5392394542	-1.400347904	 4.446376279	 0.121398
H	-0.9776219697	-2.2359243084	 4.5242219433	 0.152725
37.1128	49.2011	147.3182	166.9919	179.9281	229.0702	292.0253	299.8639	409.3799	481.7875	570.3399	634.326	688.0838	737.7541	757.9983	776.3501	803.1736	966.3132	1016.6874	1060.3064	1075.8464	1087.2606	1128.8724	1155.6041	1215.1633	1237.2412	1316.5496	1347.9645	1404.8121	1420.2447	1435.4627	1464.7055	1473.9642	1483.6331	1489.1201	1496.6969	1507.8446	1519.2037	1676.7259	3003.0966	3034.0931	3043.7222	3074.0758	3093.7341	3115.7073	3125.71	3134.9895	3590.5503
CCC1=C(NC)N=NO1	CCc1c(NC)nno1	
InChI=1S/C5H9N3O/c1-3-4-5(6-2)7-8-9-4/h6H,3H2,1-2H3	InChI=1S/C5H9N3O/c1-3-4-5(6-2)7-8-9-4/h6H,3H2,1-2H3
