18
gdb 22249	2.57878	1.2023	0.85669	5.8588	75.13	-0.1991	-0.0094	0.1898	1318.7473	0.146019	-472.355464	-472.345455	-472.344511	-472.391152	36.119	
C	-1.2349054109	 0.7912669209	 0.6530857356	-0.469098
C	-0.0579906906	 0.1700151989	-0.0313847052	 0.230919
N	 0.9252430827	-0.2526368951	 0.7228327575	 0.041371
O	 0.9845332849	-0.1403610993	 1.9819651973	-0.488863
C	-0.0621999947	-0.0111413581	-1.5268811696	-0.017865
O	-0.4450069753	 1.2160635803	-2.1764763954	-0.429573
C	 1.2045159907	-0.5767737258	-2.1958717434	 0.348379
N	 2.0442057181	-1.2801705181	-1.5294957408	-0.553281
N	 1.237915061	-0.3052996926	-3.5329437	-0.523508
H	 2.078802808	-0.4986087796	-4.0514020772	 0.253965
H	 0.6501601033	 0.4489856185	-3.8534828205	 0.26968
H	-0.942111726	 1.7019743549	 1.1890103113	 0.14128
H	-2.0207893562	 1.0378329022	-0.062020054	 0.126641
H	-1.6225630744	 0.1096464606	 1.4194954339	 0.147716
H	-0.8765536714	-0.6983898756	-1.802893016	 0.132101
H	 0.0875706186	 1.9197994689	-1.7856357889	 0.287413
H	 1.6859232808	-0.7474761689	 0.2170423879	 0.293152
H	 2.8104393114	-1.6262176421	-2.1073073824	 0.209571
49.0376	66.0395	74.3041	191.3898	213.369	280.1039	325.8128	359.1148	380.3569	389.5953	425.5179	464.544	499.1676	557.4745	574.7313	633.1991	750.2304	835.0005	852.0569	927.2769	1024.5004	1028.76	1037.8567	1068.1885	1097.8445	1152.0936	1233.676	1242.926	1335.0619	1344.4611	1402.4709	1412.6786	1429.9707	1462.2045	1483.0142	1529.2936	1612.2495	1678.6489	1720.9135	2992.8449	3028.9426	3072.2412	3143.4677	3177.3735	3464.7701	3580.4676	3707.5251	3782.1689
CC(=N[O-])C(O)C(N)=[NH2+]	C[C](N[O])[C@@H](O)C(=N)N	
InChI=1S/C4H9N3O2/c1-2(7-9)3(8)4(5)6/h3,8-9H,1H3,(H3,5,6)	InChI=1S/C4H9N3O2/c1-2(7-9)3(8)4(5)6/h3,7-8H,1H3,(H3,5,6)/t3-/m1/s1
