19
gdb 63498	3.16507	1.11866	0.97179	2.3521	72.76	-0.2441	-0.0305	0.2135	1258.3236	0.155044	-460.158546	-460.148702	-460.147758	-460.192875	36.836	
C	 0.0115317474	 1.5554264411	-0.0813953642	-0.442173
C	 0.0549017672	 0.0489017792	 0.0138124671	 0.325015
O	-1.0528073368	-0.6040126234	-0.5609028775	-0.466786
C	 1.3821339837	-0.6896561982	-0.0378660998	-0.409812
C	 0.5741202043	-0.6185162992	 1.2526936415	 0.396166
O	 1.029336312	 0.2393521564	 2.2577267519	-0.48541
C	-0.0992784311	-1.8697382224	 1.7773921447	-0.355258
C	 0.7925197295	-2.6868169126	 2.6791924612	 0.158014
O	 1.8699512009	-2.3271706517	 3.0955840529	-0.256495
H	 0.8270411152	 2.0048315991	 0.4867650431	 0.140561
H	 0.0940069839	 1.8773552257	-1.1267164411	 0.102557
H	-0.9362058566	 1.9302860933	 0.317398366	 0.125719
H	-0.9980968517	-0.4848056941	-1.5155827422	 0.282348
H	 1.4090295596	-1.630715429	-0.577448912	 0.105224
H	 2.2925628221	-0.1016990294	-0.0753212715	 0.116604
H	 1.7013062806	-0.265799548	 2.7381647354	 0.292906
H	-0.9891511924	-1.6085306423	 2.371807666	 0.140326
H	-0.4706281593	-2.5032074267	 0.9657638779	 0.138966
H	 0.3825108515	-3.6781534478	 2.9737260106	 0.091526
72.4659	135.5533	158.1693	198.1637	208.3189	240.9956	277.9377	298.1728	380.01	407.8406	438.0481	454.0191	523.0841	565.3974	645.3307	680.0468	745.548	846.0023	890.922	913.164	919.017	961.2962	975.9112	1016.7565	1040.2442	1088.3129	1138.5615	1204.4734	1230.2703	1288.3285	1301.6547	1334.5213	1357.5475	1405.8261	1413.8353	1423.016	1441.278	1484.4077	1487.3354	1522.5621	1808.1071	2890.3384	3005.8961	3029.6774	3089.6817	3094.9218	3128.4757	3145.7997	3224.3774	3730.2021	3794.7956
CC1(O)CC1(O)CC=O	C[C@@]1(O)C[C@]1(O)CC=O	
InChI=1S/C6H10O3/c1-5(8)4-6(5,9)2-3-7/h3,8-9H,2,4H2,1H3	InChI=1S/C6H10O3/c1-5(8)4-6(5,9)2-3-7/h3,8-9H,2,4H2,1H3/t5-,6-/m1/s1
