16
gdb 16900	4.07589	1.793	1.37955	2.9042	64.94	-0.2488	-0.0038	0.245	881.0389	0.131379	-383.7214	-383.714453	-383.713509	-383.752496	26.931	
O	-0.2054429747	 1.4575307439	-0.2115038296	-0.432355
C	 0.0224502321	 0.0645750517	-0.0244448896	 0.072651
C	-1.3588880814	-0.5778378131	 0.1577205095	-0.227645
C	-1.3275435111	-2.0942801554	 0.0148935598	 0.01904
O	-1.7124461965	-2.6213987268	-1.260780058	-0.253712
C	-0.327382497	-2.7073675557	-0.8703442401	 0.014226
C	 0.6297296428	-1.8108775206	-1.5710608668	-0.08143
C	 0.7818321514	-0.5451001093	-1.1851134506	-0.084604
H	 0.6461392603	 1.9060623091	-0.2093552177	 0.282567
H	 0.6144738125	-0.092854931	 0.8946333623	 0.078395
H	-1.7700682018	-0.2870107456	 1.1284254166	 0.104935
H	-2.0167370149	-0.1689148818	-0.6150836075	 0.134441
H	-1.70226584	-2.6741685739	 0.8575189219	 0.092413
H	 0.0082897969	-3.7258160605	-0.6761029111	 0.092332
H	 1.197743498	-2.2181404928	-2.4027082551	 0.098122
H	 1.4864177134	 0.1094367218	-1.694588144	 0.090626
90.4538	216.3058	265.23	337.0336	392.5969	410.0986	457.7818	535.6512	607.3672	725.0373	758.7602	815.9153	827.5463	924.104	969.0113	973.104	989.3034	1041.5217	1049.0493	1080.1047	1110.7557	1143.8331	1191.3596	1200.3917	1277.2403	1287.025	1327.1518	1341.6905	1381.0732	1403.2629	1428.3448	1461.7182	1480.1737	1710.3593	2935.0099	3057.9357	3101.6701	3108.5368	3120.1824	3143.6793	3173.8914	3817.2901
OC1CC2OC2C=C1	O[C@H]1C[C@H]2O[C@H]2C=C1	
InChI=1S/C6H8O2/c7-4-1-2-5-6(3-4)8-5/h1-2,4-7H,3H2	InChI=1S/C6H8O2/c7-4-1-2-5-6(3-4)8-5/h1-2,4-7H,3H2/t4-,5+,6-/m1/s1
