19
gdb 31228	2.27605	1.2917	0.88962	1.7241	79.57	-0.211	0.0229	0.2339	1334.072	0.158844	-423.055206	-423.045866	-423.044922	-423.090479	33.627	
C	-0.4420019509	 1.4685944813	-0.0441162291	-0.369637
C	 0.1116192027	 0.0357752662	 0.0540126939	-0.29356
C	 0.9052862076	-0.3784355737	-1.1377032016	 0.266819
C	 2.227999815	-0.6315297196	-1.3610140624	 0.18379
C	 3.3571054445	-0.5610623755	-0.3870764195	-0.21324
O	 4.0379386408	-1.8139397315	-0.3853794592	-0.415558
C	 2.3410791795	-0.9789744256	-2.7530012605	-0.25446
C	 1.0899345169	-0.905288597	-3.2643064322	-0.022859
O	 0.202420956	-0.5370588953	-2.2989200966	-0.188033
H	 0.370350822	 2.1974982941	-0.1238646109	 0.11839
H	-1.0782291481	 1.576837978	-0.9268646268	 0.131991
H	-1.038574145	 1.7151820049	 0.8394837276	 0.112308
H	 0.7445144329	-0.0605648524	 0.9417039365	 0.112991
H	-0.7223455701	-0.6649286132	 0.1878157553	 0.119051
H	 4.0488315268	 0.2472444487	-0.6762647555	 0.093935
H	 2.9759710753	-0.311920405	 0.6152021854	 0.08891
H	 4.8352279319	-1.7125094522	 0.1439412104	 0.285172
H	 3.2418387531	-1.2598387292	-3.275354324	 0.11419
H	 0.6710319693	-1.0786214331	-4.2417922208	 0.1298
42.2634	53.5643	147.0683	170.9428	202.8837	258.5153	294.3581	337.4674	361.5036	496.7835	608.2231	651.3283	675.9486	736.9063	763.2055	784.7421	827.5438	910.0317	969.5997	990.2204	1022.637	1047.1023	1073.2754	1084.5023	1150.2945	1174.9761	1227.6057	1234.9411	1265.3174	1286.7703	1308.9816	1354.9417	1404.7379	1434.7376	1464.0876	1472.5844	1495.3573	1507.1008	1515.3193	1553.549	1665.9069	2960.7692	2993.1375	3028.3626	3040.0942	3080.5688	3110.961	3121.3718	3258.0526	3284.5453	3818.6844
CCC1=C(CO)C=CO1	CCc1c(CO)cco1	
InChI=1S/C7H10O2/c1-2-7-6(5-8)3-4-9-7/h3-4,8H,2,5H2,1H3	InChI=1S/C7H10O2/c1-2-7-6(5-8)3-4-9-7/h3-4,8H,2,5H2,1H3
