18
gdb 8043	3.39199	1.81679	1.48602	0.6866	78.89	-0.251	0.046	0.297	918.2014	0.15333	-310.593413	-310.585842	-310.584898	-310.624793	29.983	
C	-0.0234717436	 1.472712234	 0.0349823277	-0.514255
C	 0.0373540731	-0.0299055476	 0.012181522	 0.339095
C	 0.6072922577	-0.9575226028	-1.105100421	-0.265385
C	 0.0808000434	-1.9194566272	-0.0062363879	-0.048491
C	 0.7399174526	-0.9767582653	 1.0374323412	-0.266012
C	-1.1970883622	-1.0149074363	 0.0601355306	-0.197002
C	-2.0486693115	-1.0354299926	 1.2308870672	 0.305207
C	-2.7772577862	-1.0386810888	 2.1888569448	-0.449675
H	 0.9827258049	 1.9056176882	 0.0194984989	 0.11968
H	-0.5699053153	 1.8597711388	-0.8320957453	 0.118732
H	-0.5307217049	 1.8259466716	 0.9390082823	 0.129995
H	 0.0784583866	-0.9590976774	-2.0630974367	 0.087254
H	 1.6908507209	-0.9312166544	-1.2458636503	 0.090106
H	 0.0905195339	-3.0092910835	-0.0164623698	 0.077724
H	 1.8330528083	-0.9501437825	 1.0423817891	 0.086791
H	 0.3317661016	-0.9961928288	 2.0495434745	 0.108582
H	-1.7982548877	-1.0188672729	-0.8558557538	 0.087861
H	-3.4180291714	-1.0479258926	 3.0353874765	 0.189794
122.1106	168.0205	207.7822	289.9241	300.9853	426.9162	498.6433	509.2966	591.4677	610.8923	636.2379	639.1864	757.4257	806.3138	869.7634	901.8612	910.6048	951.6069	1012.2737	1016.6885	1028.058	1059.7316	1089.0576	1118.1955	1137.7478	1182.6312	1195.4202	1221.3484	1228.6422	1237.7432	1317.2697	1376.2474	1409.5738	1488.1099	1489.8503	1497.7157	1538.7626	2226.6552	3027.52	3042.8595	3047.4363	3059.3276	3094.8952	3099.8502	3112.6828	3115.4567	3129.3087	3503.957
CC12CC(C1)C2C#C	C[C@@]12C[C@@H](C1)[C@H]2C#C	
InChI=1S/C8H10/c1-3-7-6-4-8(7,2)5-6/h1,6-7H,4-5H2,2H3	InChI=1S/C8H10/c1-3-7-6-4-8(7,2)5-6/h1,6-7H,4-5H2,2H3/t6-,7-,8+/m1/s1
