19
gdb 106268	3.01719	1.30585	1.10963	2.3109	76.63	-0.2235	0.0106	0.2341	1173.854	0.157365	-422.992653	-422.983446	-422.982502	-423.0267	33.706	
C	-0.0830472216	 1.3552707035	 0.0008607214	-0.273414
O	 0.0875723557	-0.0580640059	-0.0040191355	-0.285863
C	 0.6769772725	-0.5341640652	-1.1377575139	 0.316727
C	 2.1665605208	-0.3580265585	-1.6490729421	-0.338998
C	 1.5227572168	-1.3288374644	-2.69998775	 0.178343
C	 2.1647770411	-1.9529069334	-3.9033561173	-0.508182
C	 0.8489740108	-2.0444745006	-1.4684585854	-0.325408
C	 0.3090538077	-0.3825834348	-2.6294657087	 0.357396
O	-0.4677950006	 0.1687706294	-3.3500816411	-0.344611
H	 0.8859354861	 1.8730094951	 0.0003323546	 0.115477
H	-0.6672854828	 1.6868247536	-0.8653629191	 0.14441
H	-0.6182462326	 1.6034646197	 0.9189713654	 0.133616
H	 2.48445701	 0.6255210149	-2.0009677021	 0.108785
H	 2.9114080835	-0.8269912162	-1.0017193744	 0.108283
H	 3.013015711	-2.5858417558	-3.6238996399	 0.124829
H	 1.4456903717	-2.5719880943	-4.449326222	 0.133216
H	 2.5293193083	-1.182620321	-4.5905216099	 0.132702
H	 1.5520925702	-2.5691106198	-0.8169296057	 0.108713
H	-0.0562428987	-2.6267135163	-1.6515546945	 0.11398
64.4282	147.7601	154.7926	168.6492	201.0926	203.2483	265.698	321.3032	443.6507	517.6033	537.997	601.6174	656.2719	753.406	772.5447	813.3918	836.8123	938.2593	978.0546	1001.2981	1032.9752	1038.6181	1061.1743	1111.6981	1139.3874	1161.9972	1166.4869	1180.2507	1188.9431	1231.2324	1333.0554	1384.3115	1419.9514	1487.6974	1488.4026	1489.2776	1489.9206	1492.7633	1506.74	1539.1386	1901.9417	3005.8897	3035.337	3060.3984	3062.4618	3073.9499	3103.1256	3104.8569	3133.9854	3135.1809	3136.0418
COC12CC(C)(C1)C2=O	CO[C@@]12C[C@@](C)(C1)C2=O	
InChI=1S/C7H10O2/c1-6-3-7(4-6,9-2)5(6)8/h3-4H2,1-2H3	InChI=1S/C7H10O2/c1-6-3-7(4-6,9-2)5(6)8/h3-4H2,1-2H3/t6-,7-
