14
gdb 31446	2.97351	1.36421	0.94061	5.4672	67.93	-0.2699	-0.0815	0.1884	1150.4434	0.100914	-473.873616	-473.865977	-473.865033	-473.906366	27.902	
O	 0.1151232965	 1.3959659824	-0.0528062686	-0.416613
C	 0.0539405827	 0.0052087321	-0.0493052112	-0.117614
C	-1.3584945412	-0.5289608347	-0.0086009351	 0.30674
N	-2.3061895605	 0.3648247297	 0.0172304261	-0.414053
C	-3.6297759851	-0.0100786831	 0.05487135	 0.457331
O	-4.577523906	 0.7110922643	 0.0803227476	-0.322775
O	-3.9002551473	-1.4181846131	 0.0648400327	-0.207046
C	-2.9075745597	-2.301537663	 0.0375425123	 0.117016
C	-1.6094764051	-1.9357560379	 1.1207*^-6	-0.237562
H	-0.8068224432	 1.7018579483	-0.0273321256	 0.304232
H	 0.5441891167	-0.4169191722	-0.9438459642	 0.122163
H	 0.5943592381	-0.4147049111	 0.8168658458	 0.1222
H	-3.2654218077	-3.3262103556	 0.0491053963	 0.158773
H	-0.8140333481	-2.6673575562	-0.021878177	 0.127208
75.5417	125.5177	182.9883	203.1747	376.5232	407.6495	435.9692	522.8966	586.0576	604.6936	615.9215	698.9326	798.1284	803.9136	828.4576	969.7145	978.1565	1017.928	1097.3966	1114.7221	1140.2409	1241.0113	1251.6682	1295.595	1332.175	1453.2315	1466.6639	1498.6087	1572.02	1684.2524	1889.6042	2960.8231	2971.7918	3194.0444	3236.4555	3663.5257
OCC1=NC(=O)OC=C1	OCc1nc(=O)occ1	
InChI=1S/C5H5NO3/c7-3-4-1-2-9-5(8)6-4/h1-2,7H,3H2	InChI=1S/C5H5NO3/c7-3-4-1-2-9-5(8)6-4/h1-2,7H,3H2
