23
gdb 75241	3.48048	1.13358	0.99147	0.2255	92.19	-0.2259	0.0365	0.2625	1317.04	0.207117	-351.173167	-351.164447	-351.163502	-351.206098	34.975	
C	-0.0081285492	 1.550393287	 0.0487440316	-0.474396
C	-0.0165323516	 0.0474933432	-0.0228480567	 0.323233
C	-0.0462887612	-0.6124328357	-1.1837539044	-0.139668
C	-0.0303806538	-2.1146751836	-1.3152108123	-0.32867
C	 0.3156637129	-2.8022841999	-0.0041438529	 0.39738
C	 0.568878105	-4.284652087	-0.0048469987	-0.33488
C	 1.7194288115	-3.3226684821	 0.1953311258	-0.297472
C	-0.3779936698	-2.1583041929	 1.1813943379	-0.28935
C	 0.024955521	-0.6813816083	 1.3031036966	-0.283624
H	 0.8726292931	 1.915112547	 0.5940680869	 0.119019
H	-0.0020278966	 2.0052582973	-0.9456351956	 0.116279
H	-0.8844206218	 1.9276098911	 0.5922864866	 0.118389
H	-0.0889837564	-0.0472435229	-2.1132369658	 0.070928
H	-1.0143831753	-2.4608352151	-1.6709312471	 0.102836
H	 0.6803597782	-2.4125344653	-2.0976150535	 0.096606
H	 0.2331372989	-4.8652003969	 0.8486719119	 0.105294
H	 0.5078968552	-4.8135202385	-0.950973775	 0.105365
H	 2.4344527633	-3.2056702374	-0.6124620127	 0.106916
H	 2.1568213679	-3.2521787149	 1.1864585219	 0.104631
H	-1.4659951365	-2.2270043215	 1.0462347671	 0.095448
H	-0.1400790955	-2.6953871701	 2.1064620151	 0.087127
H	 1.0391606175	-0.6031461897	 1.7230689001	 0.105306
H	-0.6284960665	-0.1708882039	 2.0231634231	 0.093303
83.7821	167.2011	190.2002	255.0204	264.5664	331.6754	357.1324	373.4406	419.8398	458.901	534.5316	640.3139	717.6647	775.0977	782.3359	824.8798	866.409	899.128	925.2489	952.1169	972.2356	998.1856	1003.6174	1032.6138	1041.096	1053.4767	1077.449	1080.1248	1089.9658	1168.4372	1181.3085	1188.4824	1212.1072	1242.5318	1307.0299	1316.2923	1350.2381	1367.8262	1384.3387	1409.3922	1415.2923	1467.8291	1472.3557	1478.3899	1479.9552	1491.9565	1492.9937	1509.5297	1741.3863	2975.7057	2994.3466	3010.1912	3011.7828	3026.3416	3033.0412	3054.4767	3062.3808	3106.9182	3120.2496	3125.3309	3137.7646	3197.3748	3212.1715
CC1=CCC2(CC2)CC1	CC1=CCC2(CC2)CC1	
InChI=1S/C9H14/c1-8-2-4-9(5-3-8)6-7-9/h2H,3-7H2,1H3	InChI=1S/C9H14/c1-8-2-4-9(5-3-8)6-7-9/h2H,3-7H2,1H3
