17
gdb 43068	2.81532	1.94335	1.49687	2.8671	76.38	-0.2236	-0.0176	0.2059	905.8087	0.138363	-384.691562	-384.685075	-384.68413	-384.722344	26.661	
O	 0.0334610103	 0.0022977605	-0.0802119509	-0.30231
C	 0.0027182336	 1.1945913549	 0.0034876114	 0.404896
C	-1.1373332401	 2.2252400674	 0.0398776619	-0.1545
C	-1.4850348251	 2.8228050766	 1.4404069687	-0.242589
C	-0.2784129822	 3.8270702237	 1.3195159571	-0.070321
C	 0.9603882029	 3.3845069912	 2.052064454	-0.075901
C	 1.7092511918	 2.5525238738	 1.3229425685	-0.077073
C	 1.1053338323	 2.3022765744	-0.036560326	-0.198202
C	-0.0531428538	 3.3440309453	-0.1502332961	-0.048679
H	-1.9702653909	 2.0273367907	-0.636863559	 0.091681
H	-2.4536748035	 3.3293817809	 1.413588067	 0.110031
H	-1.4706924978	 2.1389841189	 2.2918878102	 0.113154
H	-0.5482600884	 4.8723523792	 1.484786725	 0.075048
H	 1.16516896	 3.6652636576	 3.0794927059	 0.099234
H	 2.6061529611	 2.047251266	 1.6612615932	 0.107604
H	 1.8206714964	 2.1964443872	-0.856370974	 0.092491
H	-0.0532742066	 4.0529022316	-0.975127527	 0.075436
118.1576	207.3473	289.4709	404.9108	501.7785	548.4999	620.8709	681.7749	746.6818	775.7121	791.9205	829.7471	835.7633	875.3794	908.7065	930.8225	943.1638	966.4392	1001.4225	1005.221	1025.5277	1057.346	1111.6465	1121.5426	1139.4205	1164.105	1196.4458	1206.7084	1241.7008	1249.1991	1276.1129	1289.3881	1309.2942	1364.1299	1484.0095	1658.6666	1881.0154	3057.3329	3079.1223	3081.0387	3099.3179	3116.3584	3140.7736	3186.6695	3213.7206
O=C1C2CC3C=CC1C23	O=C1[C@H]2C[C@H]3C=C[C@@H]1[C@@H]23	
InChI=1S/C8H8O/c9-8-5-2-1-4-3-6(8)7(4)5/h1-2,4-7H,3H2	InChI=1S/C8H8O/c9-8-5-2-1-4-3-6(8)7(4)5/h1-2,4-7H,3H2/t4-,5-,6+,7+/m1/s1
