13
gdb 19453	5.80398	1.61326	1.59724	4.7383	62.26	-0.2628	-0.0345	0.2283	798.4045	0.096636	-361.418308	-361.412326	-361.411381	-361.44836	23.245	
N	-0.0708410168	-1.157195726	-0.0892588944	-0.315755
C	-0.0374643521	-0.0029321524	-0.0369078735	 0.279586
C	-0.0282927751	 1.4516034265	-0.0017538494	-0.162066
C	 0.0508785094	 2.09044707	 1.4376154059	 0.02093
O	 1.4679728564	 1.737546113	 1.4507176582	-0.270964
C	 1.4011171862	 2.1156842276	 0.0416602541	 0.020948
C	 1.0218543588	 3.6043616668	 0.1245399904	-0.084634
C	 0.0942393416	 3.5870469883	 1.0838068763	-0.084578
H	-0.7578713417	 1.865456325	-0.6999692083	 0.125996
H	-0.5245645265	 1.7223327396	 2.2837784963	 0.108729
H	 2.2340821704	 1.7739224506	-0.5682576765	 0.108726
H	 1.4217601544	 4.411936821	-0.4692763751	 0.12654
H	-0.5002553151	 4.3760562	 1.5182729361	 0.126542
159.1458	160.0441	396.6707	471.5568	496.4041	560.8722	617.0671	716.7362	749.544	845.6757	861.1643	876.2983	904.3682	914.2197	922.667	965.5865	1009.892	1038.447	1132.7823	1150.2775	1175.2439	1219.6806	1233.3343	1295.9318	1297.9296	1339.6787	1614.6156	2356.7378	3104.1541	3158.8469	3161.2686	3242.7328	3268.9232
N#CC1C2OC1C=C2	N#C[C@H]1[C@H]2O[C@@H]1C=C2	
InChI=1S/C6H5NO/c7-3-4-5-1-2-6(4)8-5/h1-2,4-6H	InChI=1S/C6H5NO/c7-3-4-5-1-2-6(4)8-5/h1-2,4-6H/t4-,5-,6+
