18
gdb 57719	3.25757	0.7633	0.71867	1.7327	74.04	-0.263	-0.0335	0.2295	1579.7262	0.143833	-439.106527	-439.096203	-439.095258	-439.142653	36.126	
C	 0.1609515414	 1.5631728293	 0.1034589615	-0.400014
C	 0.000129393	 0.0440135753	-0.0274860392	 0.188592
O	 0.7029047728	-0.5228337477	 1.0727015511	-0.435576
C	-1.4827473448	-0.409296045	-0.039753345	-0.225039
C	-2.2332427387	-0.0593612733	 1.2537606195	-0.293474
C	-3.5321785288	-0.8273759563	 1.3674268166	 0.158601
O	-4.6103033899	-0.3320321948	 1.5623978956	-0.231138
C	 0.6243548168	-0.409584346	-1.2947669578	 0.251977
N	 1.101986707	-0.798256072	-2.2727299864	-0.328952
H	 1.2181498556	 1.829847236	 0.052676654	 0.149419
H	-0.3754602783	 2.0795876474	-0.69583435	 0.13787
H	-0.2318334496	 1.8880744834	 1.0690181427	 0.142296
H	 0.7507570856	-1.4783580916	 0.9510040103	 0.295372
H	-1.9835007309	 0.0303390928	-0.9088112193	 0.134531
H	-1.4985133903	-1.4967530479	-0.1922405312	 0.112218
H	-1.6019607162	-0.3459522425	 2.1062229068	 0.139337
H	-2.4570750852	 1.0067815877	 1.332636273	 0.130644
H	-3.4192998196	-1.9325753549	 1.2583026677	 0.073336
53.8984	69.7795	100.6263	140.7631	185.7851	216.7224	239.6882	297.2453	332.7108	361.3192	404.3566	436.2065	528.0065	590.6804	596.673	745.7855	768.41	841.1474	917.6623	960.8413	1002.006	1024.7103	1072.3387	1124.3867	1168.0204	1182.2508	1224.3329	1267.8584	1310.0952	1366.5722	1388.3615	1414.9221	1430.773	1464.7073	1479.7357	1487.537	1498.8541	1840.6425	2351.7153	2849.1033	3022.7775	3028.7097	3061.6438	3079.3233	3116.3315	3144.1655	3146.4318	3798.8794
CC(O)(CCC=O)C#N	C[C@@](O)(CCC=O)C#N	
InChI=1S/C6H9NO2/c1-6(9,5-7)3-2-4-8/h4,9H,2-3H2,1H3	InChI=1S/C6H9NO2/c1-6(9,5-7)3-2-4-8/h4,9H,2-3H2,1H3/t6-/m1/s1
