18
gdb 13089	4.22734	1.21576	1.04183	3.9395	69.81	-0.2763	0.0099	0.2862	1145.8923	0.152842	-384.957663	-384.949269	-384.948325	-384.991406	29.921	
C	-0.1268072622	 1.4944262441	 0.1478743023	-0.386635
C	 0.0639133701	-0.0179594165	 0.07634072	-0.028422
C	 1.2088170412	-0.4758197619	-0.8811120346	-0.22746
C	 2.1517058464	-0.6158200512	 0.3477944687	-0.254122
C	 0.897797106	-0.6228131082	 1.2426399637	 0.147981
O	 0.9834891615	 0.1469176317	 2.4385251435	-0.185121
C	 0.599064836	-0.4119646001	 3.600842038	 0.163677
O	 0.625577004	 0.1720513046	 4.6419169475	-0.276734
H	 0.823672444	 2.0172141118	 0.2928760195	 0.124545
H	-0.5751331001	 1.8603494208	-0.7813629668	 0.115463
H	-0.7830433829	 1.7729422308	 0.9773876124	 0.127759
H	-0.903132297	-0.504359539	-0.0829346194	 0.073171
H	 0.9988144388	-1.4360793678	-1.3582091267	 0.105683
H	 1.5079928268	 0.23833474	-1.6512005336	 0.107092
H	 2.8137614147	-1.4825210612	 0.4006682637	 0.105234
H	 2.7395768458	 0.2887444453	 0.5197433329	 0.126081
H	 0.5713514881	-1.6406784955	 1.4870274672	 0.086009
H	 0.2641789788	-1.4615933078	 3.4806607817	 0.075797
42.6367	93.8805	146.4816	207.2128	229.7626	283.434	354.6391	405.5028	450.5603	630.7128	713.5293	782.3869	845.7148	883.9614	917.2341	948.6805	971.9285	1024.054	1044.5827	1068.7645	1106.5176	1151.8065	1169.9718	1199.5632	1215.416	1249.1821	1260.0813	1288.2026	1289.8219	1364.9354	1384.0093	1415.8925	1440.558	1479.39	1494.6993	1497.1419	1499.6463	1865.3877	2938.1497	3030.1587	3038.9414	3055.0561	3067.8465	3073.9615	3108.0545	3113.1101	3114.8929	3131.74
CC1CCC1OC=O	C[C@H]1CC[C@H]1OC=O	
InChI=1S/C6H10O2/c1-5-2-3-6(5)8-4-7/h4-6H,2-3H2,1H3	InChI=1S/C6H10O2/c1-5-2-3-6(5)8-4-7/h4-6H,2-3H2,1H3/t5-,6+/m0/s1
