18
gdb 77217	3.12475	1.00365	0.88128	3.5756	77.67	-0.2616	-0.0415	0.2201	1329.1646	0.146428	-401.967018	-401.957844	-401.9569	-402.0018	32.714	
C	-0.0118997301	 1.609768819	-0.0697432991	-0.421348
C	 0.1610550234	 0.1021107093	-0.0871378523	 0.00612
C	 0.8315632215	-0.5671200986	-1.3330841637	-0.068584
C	 1.545269194	-1.5521939643	-0.363840095	-0.260619
C	 1.2379240172	-0.5895116662	 0.8278571343	-0.186699
C	 2.3589294183	 0.2663199737	 1.1852291526	 0.284317
N	 3.2499049327	 0.9513622198	 1.4582901663	-0.328719
C	-0.1031340136	-1.1619692064	-2.349300144	 0.154964
O	-0.1352992023	-0.8785319123	-3.5180883403	-0.242653
H	 0.9430521478	 2.1211340759	-0.2206904494	 0.146836
H	-0.6969029468	 1.9233328721	-0.8640356582	 0.131817
H	-0.4268897446	 1.9470358542	 0.8857554855	 0.129676
H	-0.7959533487	-0.3935864069	 0.1130297466	 0.092668
H	 1.5293161466	 0.1108411015	-1.8296983377	 0.108774
H	 0.993824605	-2.4900493099	-0.2520007674	 0.120265
H	 2.5926623861	-1.773943157	-0.5668426229	 0.140032
H	 0.8533194713	-1.0582070413	 1.7370242985	 0.125612
H	-0.808889048	-1.9158582426	-1.9203785339	 0.067542
54.1613	63.2724	143.5862	196.9721	213.4637	256.9257	265.582	350.6571	414.9783	438.7753	540.8594	609.7469	693.2898	784.7907	806.6811	887.6074	908.9764	961.2439	975.9071	1050.0914	1077.5733	1092.9868	1118.2478	1148.881	1170.9286	1208.6015	1239.0847	1262.9224	1279.0659	1309.666	1357.0442	1369.5374	1417.8233	1426.757	1484.0754	1492.2929	1496.1584	1833.0867	2351.1326	2828.5712	3037.315	3039.9569	3067.5629	3082.3852	3096.5029	3106.2289	3119.0729	3143.5413
CC1C(CC1C#N)C=O	C[C@H]1[C@@H](C[C@H]1C#N)C=O	
InChI=1S/C7H9NO/c1-5-6(3-8)2-7(5)4-9/h4-7H,2H2,1H3	InChI=1S/C7H9NO/c1-5-6(3-8)2-7(5)4-9/h4-7H,2H2,1H3/t5-,6+,7+/m1/s1
