15
gdb 17604	3.86746	1.71327	1.23078	1.9968	64.52	-0.2442	-0.0314	0.2128	944.6069	0.119313	-395.988472	-395.980529	-395.979585	-396.021129	28.76	
N	-0.0454229272	 1.2145642709	-0.0115392071	-0.518459
C	 0.0651752374	-0.1186884438	-0.2015591746	 0.396863
O	 1.1103291179	-0.7180738084	-0.3743218225	-0.367521
C	-1.2895908987	-0.8325910425	-0.1666916271	 0.23509
N	-2.3247345576	-0.1616884137	 0.1665062767	-0.524129
N	-1.2507794559	-2.1446967187	-0.5938133144	-0.066879
C	-0.43915938	-3.1919935285	-0.0146229406	-0.200212
C	-1.9369735282	-3.2388946305	 0.0641656828	-0.247642
H	 0.7880968658	 1.7740862047	 0.0401945612	 0.262754
H	-0.9562552952	 1.6022201151	 0.1775162693	 0.279731
H	-3.1667434584	-0.7405662792	 0.1532198709	 0.22002
H	 0.0913520503	-3.8198804868	-0.7235257408	 0.133904
H	 0.1082091899	-2.9619830104	 0.8935433739	 0.140921
H	-2.3984632863	-3.0323116225	 1.028162114	 0.125347
H	-2.4991565639	-3.9055660655	-0.5831776116	 0.130214
60.6163	109.7701	188.0578	213.2329	312.618	332.091	410.3966	459.5472	511.0236	622.615	656.8423	693.3122	804.271	833.5768	884.0008	896.1753	968.5348	1043.614	1071.4183	1101.5252	1130.3691	1135.5359	1167.326	1171.8368	1272.9541	1360.7197	1445.6569	1494.8147	1524.2944	1584.001	1689.1023	1799.8543	3101.4022	3127.9467	3190.6995	3218.9649	3456.1974	3589.2726	3738.1917
NC(=O)C(=N)N1CC1	NC(=O)[C]([NH])N1CC1	
InChI=1S/C4H7N3O/c5-3(4(6)8)7-1-2-7/h5H,1-2H2,(H2,6,8)	InChI=1S/C4H7N3O/c5-3(4(6)8)7-1-2-7/h5H,1-2H2,(H2,6,8)
