18
gdb 12865	2.72929	2.2902	1.79467	1.5185	72.09	-0.2227	0.0112	0.2339	837.004	0.154043	-347.80131	-347.793827	-347.792883	-347.832383	29.643	
C	-0.0294425908	 1.5211802755	 0.0108861123	-0.48774
C	-0.0083317266	 0.0123710703	 0.0361762308	 0.284602
C	-1.3079304491	-0.7494778441	-0.2608018125	-0.324024
C	-1.2574303669	-1.9586480593	 0.6487561387	-0.105291
C	-0.1683241514	-1.9516092329	 1.4270786675	-0.084403
C	 0.7187918052	-0.7944713256	 1.1321991981	-0.180516
C	 1.2539278194	-0.7396510937	-0.2931758486	 0.088083
O	 1.2821082517	-1.8458368943	-1.138093658	-0.428976
H	 0.9516665518	 1.9370470694	 0.2627762846	 0.114851
H	-0.3006730336	 1.897249256	-0.9829287736	 0.120571
H	-0.7544357594	 1.9239442275	 0.728324247	 0.11546
H	-2.1925371528	-0.1308997345	-0.0581407	 0.107202
H	-1.3651178421	-1.0380519961	-1.3192570596	 0.119285
H	-2.0230797561	-2.7265665225	 0.6449482825	 0.09784
H	 0.0787558961	-2.70700764	 2.1649283263	 0.099442
H	 1.2897701238	-0.3245130001	 1.9266054458	 0.082174
H	 2.1460937195	-0.1369826952	-0.4391866709	 0.098885
H	 0.7015408213	-2.5173215205	-0.7553478106	 0.282555
191.1088	200.8056	216.632	250.8668	305.5968	333.6253	405.7272	534.5209	573.1792	598.683	724.7714	746.3769	773.9259	850.0425	864.9098	927.2446	961.2466	962.505	984.7692	999.5506	1039.3669	1071.4661	1106.9581	1129.5171	1153.163	1181.011	1213.4957	1270.5289	1300.7592	1319.6979	1372.506	1381.5398	1417.4616	1451.0435	1474.7401	1491.09	1499.9345	1656.674	3011.0897	3018.8884	3039.5907	3077.0575	3093.3935	3147.8071	3159.719	3183.3429	3207.637	3741.6022
CC12CC=CC1C2O	C[C@]12CC=C[C@H]1[C@H]2O	
InChI=1S/C7H10O/c1-7-4-2-3-5(7)6(7)8/h2-3,5-6,8H,4H2,1H3	InChI=1S/C7H10O/c1-7-4-2-3-5(7)6(7)8/h2-3,5-6,8H,4H2,1H3/t5-,6+,7-/m0/s1
