17
gdb 42863	2.47245	1.76393	1.50202	3.2789	73.63	-0.2248	-0.0271	0.1976	952.2982	0.137128	-421.815704	-421.808368	-421.807423	-421.847442	28.621	
O	-0.0556631257	 0.0644929195	-0.1906552159	-0.297084
C	-0.0316160932	 1.2496390562	-0.0585534929	 0.405893
C	-1.1124259612	 2.3554228675	 0.169836335	 0.015136
C	 0.0290927152	 3.1870898999	 0.8296304399	-0.283673
C	 1.0921127301	 2.3106849891	 0.0974542606	-0.18434
C	 1.4275955742	 2.8494843	-1.2732062297	-0.069612
C	 0.5572361086	 3.4362001283	-2.0968220214	-0.078659
C	-0.9052810904	 3.7353677346	-1.8470033811	-0.12124
O	-1.6647955568	 2.8527514524	-1.0301981002	-0.263781
H	-1.9597620246	 2.0720861886	 0.7999284743	 0.104141
H	 0.0534642325	 4.2569531533	 0.62080358	 0.118159
H	 0.0421900003	 3.0303314524	 1.9110242559	 0.117224
H	 1.9852246744	 2.0095868761	 0.6465352531	 0.090334
H	 2.4470035542	 2.6955941434	-1.6135743822	 0.103874
H	 0.9144859837	 3.7888492338	-3.0613781512	 0.102794
H	-0.9931056904	 4.763940337	-1.4589162646	 0.1146
H	-1.4306125109	 3.7276853981	-2.8072131098	 0.126233
104.7218	173.1622	193.3439	316.8808	371.5475	378.9904	471.2199	509.8567	624.8374	677.6934	747.0527	771.1665	820.2081	842.1533	883.0652	928.6	944.3315	984.1335	1017.8128	1029.9994	1055.4583	1061.3856	1118.0619	1135.499	1191.7295	1225.9234	1241.921	1255.1782	1284.2676	1315.5245	1361.7886	1399.4309	1409.3852	1473.5708	1496.8962	1706.5912	1897.4872	2965.5538	3071.0077	3072.7186	3083.8661	3105.2934	3139.4746	3153.1635	3180.1058
O=C1C2CC1C=CCO2	O=C1[C@H]2C[C@@H]1C=CCO2	
InChI=1S/C7H8O2/c8-7-5-2-1-3-9-6(7)4-5/h1-2,5-6H,3-4H2	InChI=1S/C7H8O2/c8-7-5-2-1-3-9-6(7)4-5/h1-2,5-6H,3-4H2/t5-,6+/m0/s1
