14
gdb 125188	3.50412	1.65276	1.13093	3.6451	70.91	-0.2268	-0.0312	0.1956	997.9328	0.10412	-429.034663	-429.027506	-429.026562	-429.067252	26.394	
C	 0.007425141	 1.5205026379	 0.0892293033	-0.501621
C	-0.0147404112	 0.0390626623	-0.0727271697	 0.23598
C	 0.0828129306	-0.8102142279	-1.1745395668	 0.187155
N	 0.2300697041	-0.8893377059	-2.5405449534	-0.303573
N	 0.2314138048	-2.1384323697	-2.8609634434	-0.100877
N	 0.0866569551	-2.9146822603	-1.7286549776	-0.347958
C	-0.010558005	-2.1081839031	-0.6410108427	 0.446102
N	-0.1561973868	-2.1574903297	 0.6788788459	-0.370892
N	-0.1522264806	-0.8192802884	 0.972880972	-0.245657
H	 0.9460566345	 1.9421082919	-0.2843158377	 0.1581
H	-0.8062745981	 1.9891333658	-0.4734698115	 0.158071
H	-0.0983066889	 1.8066453359	 1.1396207548	 0.127585
H	 0.0700123416	-3.9151520486	-1.8241594747	 0.281074
H	-0.2509049809	-0.5547618701	 1.9403010214	 0.276512
27.6907	188.1741	245.7413	275.3617	373.4837	432.2579	545.2348	556.436	613.1917	646.6142	692.1741	717.316	792.346	830.0352	962.3146	999.9039	1013.5852	1054.6577	1107.9439	1183.9235	1271.9182	1283.8403	1319.2025	1401.8384	1422.1126	1455.7331	1471.0021	1476.1643	1501.4542	1577.7825	1668.9073	3039.0236	3098.9029	3114.9107	3653.3503	3688.7892
CC1=C2N=NNC2=NN1	Cc1c2nn[nH]c2n[nH]1	
InChI=1S/C4H5N5/c1-2-3-4(7-5-2)8-9-6-3/h1H3,(H2,5,6,7,8,9)	InChI=1S/C4H5N5/c1-2-3-4(7-5-2)8-9-6-3/h1H3,(H2,5,6,7,8,9)
