15
gdb 50513	4.40697	0.94833	0.86905	1.4443	70.33	-0.2389	-0.0786	0.1603	1287.3147	0.112279	-453.970754	-453.962481	-453.961536	-454.00465	28.972	
O	-0.8538060178	 0.9119640532	 0.3222056758	-0.233766
C	 0.0835325225	 1.2056160562	-0.3718332745	 0.156271
C	 1.2887851924	 2.0050801076	 0.1102516686	-0.067857
C	 1.3472957707	 2.2064432012	 1.652091293	-0.204127
N	 2.7374538422	 1.826074127	 1.9241213023	-0.33923
C	 3.2234139052	 1.218011537	 0.799524144	 0.27876
C	 4.527113093	 0.5022651168	 0.8386694649	 0.118646
O	 5.1566324783	 0.3572951317	 1.8581616881	-0.25777
N	 2.5233440936	 1.2932449071	-0.2780761138	-0.311926
H	 0.1472827761	 0.9038065479	-1.4377732207	 0.104572
H	 1.2568557332	 2.9637661768	-0.4304263013	 0.116928
H	 1.1485690796	 3.2373045712	 1.9538952099	 0.123651
H	 0.6239278896	 1.5513300871	 2.1519141264	 0.137566
H	 3.0463320873	 1.5056710853	 2.8290670212	 0.263754
H	 4.8512586341	 0.1040344539	-0.1407497639	 0.114528
47.3992	116.4574	131.6948	174.6153	245.0193	272.7108	377.2112	480.3583	511.1101	614.5236	659.3468	705.9346	749.7091	833.8379	934.4818	992.114	1016.207	1029.9133	1050.8818	1085.4783	1095.4763	1201.9718	1243.3196	1280.8702	1295.0343	1357.0369	1385.0616	1407.2101	1490.7451	1536.4006	1666.5512	1805.4636	1833.8841	2925.7522	2973.0187	2988.4996	3040.3059	3095.1602	3633.8839
O=CC1CNC(C=O)=N1	O=C[C@H]1CN[C](C=O)[N]1	
InChI=1S/C5H6N2O2/c8-2-4-1-6-5(3-9)7-4/h2-4H,1H2,(H,6,7)	InChI=1S/C5H6N2O2/c8-2-4-1-6-5(3-9)7-4/h2-4H,1H2,(H,6,7)/t4-/m1/s1
