16
gdb 9010	6.45184	0.81846	0.7552	3.1758	74.65	-0.2526	0.0228	0.2754	1467.9508	0.129169	-342.768518	-342.758899	-342.757955	-342.804392	32.271	
C	 0.0188039113	 1.4938893266	 0.0939876796	-0.498187
C	 0.0113036966	 0.038943768	 0.053935975	 0.103468
C	 0.006595316	-1.1636030553	 0.0118844915	 0.054058
C	-0.0025795539	-2.6189728035	-0.0153900493	-0.353456
C	-1.4331223084	-3.207977075	-0.1275792	-0.121276
N	-2.0549789423	-2.8244144493	-1.3915215633	-0.481592
C	-1.3810556095	-4.673994266	 0.0762954408	 0.253217
N	-1.3550715759	-5.8243529066	 0.1921927621	-0.321442
H	 0.9205842128	 1.8984262396	-0.378631236	 0.150108
H	-0.8463758014	 1.9081349177	-0.4351308005	 0.152003
H	-0.0111589028	 1.8664085398	 1.1237846909	 0.148224
H	 0.5921896367	-2.9950833668	-0.8582829456	 0.137353
H	 0.4660296553	-3.0216976373	 0.8902457506	 0.147646
H	-2.0360854889	-2.7845801716	 0.6829826842	 0.142943
H	-1.5600421978	-3.255915811	-2.1673865535	 0.240949
H	-3.0107168579	-3.1648050893	-1.4303188966	 0.245983
27.7223	53.7197	81.1644	169.4754	211.2207	232.5246	266.5299	296.9374	370.4295	382.7733	470.2076	548.9419	582.7413	774.528	833.7034	893.8734	941.2978	990.2777	1052.2833	1054.4189	1131.521	1157.8767	1174.6122	1284.7107	1305.2217	1363.4596	1393.8007	1414.8961	1469.7414	1477.755	1478.8073	1664.0152	2343.1089	2379.5313	3022.2836	3028.3075	3055.5545	3067.8028	3089.1831	3090.3679	3494.8889	3576.5773
CC#CCC(N)C#N	CC#CC[C@@H](N)C#N	
InChI=1S/C6H8N2/c1-2-3-4-6(8)5-7/h6H,4,8H2,1H3	InChI=1S/C6H8N2/c1-2-3-4-6(8)5-7/h6H,4,8H2,1H3/t6-/m1/s1
