21
gdb 110942	2.25971	1.5106	1.10057	1.1361	79.4	-0.2416	0.0789	0.3205	1198.8771	0.181492	-424.170842	-424.161532	-424.160588	-424.205014	34.314	
C	 0.178336353	 0.8229852848	-0.4619368668	-0.237495
O	-0.4738613135	-0.0688855867	 0.4245620603	-0.241316
C	 0.3829785772	-0.6548075041	 1.3461550412	 0.143544
C	 0.0935893584	-2.0144573903	 1.8622160732	-0.120248
C	-0.4813649668	-2.8856474574	 0.7367066951	-0.276658
C	 0.8717310354	-2.7078265665	-0.0370556849	 0.163496
O	 0.8753071353	-2.2028914987	-1.349116724	-0.239722
C	 0.4282029183	-3.13676665	-2.3050810298	-0.236658
C	 1.3767432937	-1.7428670262	 1.020273497	-0.176474
H	 0.9104263239	 0.2936223219	-1.0823952055	 0.131072
H	-0.5949573545	 1.255858746	-1.1012721075	 0.119561
H	 0.6812859528	 1.6363183636	 0.0832805075	 0.095894
H	 0.7689108194	 0.0435958531	 2.0934664373	 0.082741
H	 0.014695358	-2.2321247068	 2.9200759354	 0.089792
H	-0.6768156905	-3.918974697	 1.0280372198	 0.097013
H	-1.3591604008	-2.4637716832	 0.2436931042	 0.118591
H	 1.4408476639	-3.6497233911	-0.0033938201	 0.067096
H	-0.6158973499	-3.4370096864	-2.1315245205	 0.110292
H	 0.4975017323	-2.6599626762	-3.2857181256	 0.125324
H	 1.0516156196	-4.0454775209	-2.3072435375	 0.101164
H	 2.409801785	-1.6715485379	 1.3412076612	 0.082992
86.9684	122.809	136.1574	165.8082	193.4317	202.3522	277.1346	307.7245	437.5031	450.5217	515.8641	598.5701	740.5519	766.5188	833.0431	849.354	934.4003	957.3933	972.07	1015.4316	1035.1555	1057.0826	1074.884	1090.9326	1116.5866	1139.5055	1176.0514	1181.4727	1184.5109	1209.059	1225.891	1246.6977	1258.3892	1276.1561	1315.0199	1350.9281	1392.8828	1429.4914	1473.8089	1481.5502	1486.1465	1488.9329	1495.9007	1506.1287	1509.4384	2969.6382	2979.3671	2987.0582	3021.6125	3067.149	3071.4907	3075.1396	3114.2626	3119.2685	3132.2175	3172.1187	3190.4531
COC1C2CC(OC)C12	CO[C@H]1[C@H]2C[C@@H](OC)[C@@H]12	
InChI=1S/C7H12O2/c1-8-5-3-4-6(5)7(4)9-2/h4-7H,3H2,1-2H3	InChI=1S/C7H12O2/c1-8-5-3-4-6(5)7(4)9-2/h4-7H,3H2,1-2H3/t4-,5+,6-,7-/m0/s1
