19
gdb 69381	3.37411	1.16798	0.99546	3.4898	84.2	-0.2439	-0.0539	0.19	1237.3307	0.15904	-385.911818	-385.903508	-385.902564	-385.944578	32.007	
C	-0.0208411904	 1.5120647378	 0.0324846677	-0.482558
C	 0.0510452259	 0.0041814001	 0.0080622539	 0.34284
C	-0.834216856	-0.8041196719	 0.9212239238	-0.320517
C	 0.6673538295	-0.8129780764	 1.1403379105	-0.185383
C	 1.3867166599	-1.9387340172	 0.4784541132	 0.260187
C	 2.1548439499	-2.9616631178	 1.1918862316	 0.065727
O	 2.3127305197	-2.9875029534	 2.3927527454	-0.273088
C	 1.2449593275	-1.8937515781	-0.8582917126	-0.166156
C	 0.4655711566	-0.6819946668	-1.302754425	-0.33311
H	 0.925659569	 1.9612641465	-0.2900751079	 0.117585
H	-0.8088842049	 1.8835934641	-0.6335575623	 0.118851
H	-0.2395221383	 1.8817759444	 1.0389698287	 0.120066
H	-1.4336150876	-0.2496349348	 1.6362530525	 0.113016
H	-1.2995753234	-1.7135469433	 0.5528880634	 0.10875
H	 1.0761951049	-0.3692622448	 2.0399560255	 0.102498
H	 2.6123199418	-3.7346515606	 0.533857203	 0.064943
H	 1.636491824	-2.6349520565	-1.5475960442	 0.109543
H	-0.3937506838	-0.9498477797	-1.9315502672	 0.120365
H	 1.0962771958	-0.0240284317	-1.9184600501	 0.116439
97.4746	161.3879	176.609	214.1782	294.1996	311.6164	371.2102	377.8601	475.3692	575.5701	596.1119	702.824	750.6133	811.2652	817.292	862.0258	916.8002	944.5763	973.1139	983.3966	1011.2676	1040.1286	1047.2575	1071.7518	1096.4267	1106.677	1182.4802	1196.085	1242.2972	1256.0933	1317.3071	1367.1103	1403.9948	1420.2682	1425.1827	1462.1512	1484.3754	1491.3732	1501.1532	1663.6474	1784.9648	2875.1007	3003.5839	3022.0672	3038.4836	3079.7081	3101.2293	3118.9961	3188.7346	3189.4107	3207.5239
CC12CC1C(C=O)=CC2	C[C@]12C[C@H]1C(=CC2)C=O	
InChI=1S/C8H10O/c1-8-3-2-6(5-9)7(8)4-8/h2,5,7H,3-4H2,1H3	InChI=1S/C8H10O/c1-8-3-2-6(5-9)7(8)4-8/h2,5,7H,3-4H2,1H3/t7-,8-/m0/s1
