17
gdb 78721	3.46275	1.29976	1.22425	5.3499	77.66	-0.2625	0.0123	0.2748	1072.5385	0.13697	-380.820616	-380.813109	-380.812165	-380.852484	29.272	
C	-0.0542723296	 1.5812205823	-0.0281765876	-0.423939
C	 0.0787377543	 0.0724419238	-0.0802100826	 0.08844
C	 0.7610475226	-0.678743395	-1.2505935341	-0.117144
C	 2.178246198	-0.0568171063	-1.3162274153	-0.303588
C	 2.3649962818	-0.623167283	 0.0956871242	 0.234586
C	 3.5724334397	-0.7102821128	 0.8498893946	 0.194286
N	 4.5751631916	-0.7730766069	 1.4231395403	-0.347479
C	 1.2940045454	-1.6407551874	-0.1222971843	-0.088991
N	 1.0566338614	-0.5733367822	 0.8712553073	-0.177087
H	 0.8976585805	 2.0936047797	-0.1855998351	 0.128896
H	-0.7616397904	 1.9282059411	-0.7890818503	 0.124034
H	-0.4356366401	 1.8849620269	 0.9515557737	 0.138712
H	-0.8852382885	-0.3970017808	 0.1421994665	 0.095611
H	 0.2309899548	-0.950722912	-2.1604951352	 0.087584
H	 2.8175456588	-0.5966138185	-2.0178942795	 0.128598
H	 2.277627834	 1.0191880824	-1.4765465682	 0.115685
H	 1.2564595757	-2.7018657814	 0.0840059857	 0.121797
120.21	161.8139	187.0659	261.4488	304.458	463.1633	517.8457	542.3664	545.5028	581.1468	698.1129	716.7645	793.9343	839.2486	886.3076	921.2685	937.7912	956.2163	1005.3421	1018.5426	1074.0258	1099.5727	1116.3316	1122.5063	1166.9393	1169.6458	1187.9145	1239.2298	1274.315	1298.2138	1362.3099	1395.5727	1416.3054	1486.5028	1491.7592	1515.921	2356.7571	3042.4348	3055.7158	3069.9306	3109.2038	3122.9047	3130.9524	3145.2222	3214.1239
CC1C2CC3(C#N)C2N13	C[C@H]1[C@H]2C[C@]3(C#N)[C@H]2N13	
InChI=1S/C7H8N2/c1-4-5-2-7(3-8)6(5)9(4)7/h4-6H,2H2,1H3	InChI=1S/C7H8N2/c1-4-5-2-7(3-8)6(5)9(4)7/h4-6H,2H2,1H3/t4-,5+,6-,7-,9?/m0/s1
