16
gdb 24433	3.49535	1.65075	1.16578	2.6442	70.48	-0.1874	0.0167	0.2041	1000.5725	0.129162	-434.086929	-434.080237	-434.079293	-434.117978	26.723	
C	-0.0285416223	 1.4123000809	 0.0955868884	-0.179566
C	 1.4315173785	 1.9393571765	 0.0034790625	-0.174823
N	 2.3136166157	 1.4113207037	 1.0494739382	-0.391326
C	 1.9766649026	 0.0918737214	 1.3667016091	 0.237088
C	 0.9310018781	-0.5749530768	 0.8147716586	 0.297061
N	-0.1138037971	-0.0574910607	 0.0589287065	-0.391581
O	 0.9463936215	-1.8590057049	 1.2938548413	-0.187066
C	 2.0220043691	-1.8746452593	 2.1257664527	 0.044352
N	 2.6676802561	-0.7562071124	 2.2178439639	-0.325346
H	-0.4754461144	 1.7528168322	 1.0369123487	 0.119024
H	-0.626016826	 1.817936028	-0.7246893528	 0.110902
H	 1.8415906722	 1.6502903544	-0.9732082389	 0.11255
H	 1.4389941159	 3.0316125359	 0.0496091265	 0.110016
H	 2.3829859917	 2.0088663728	 1.864331326	 0.237378
H	-0.1490009461	-0.4177412425	-0.889754996	 0.237151
H	 2.2426842746	-2.8141088591	 2.6062933653	 0.144185
113.1994	233.0524	334.4135	341.4568	426.2563	470.0682	524.5548	612.4437	635.2182	697.9883	722.259	742.0758	786.5559	798.5986	864.0304	941.009	952.5725	1036.3697	1037.6614	1120.5338	1128.2395	1170.3461	1252.7733	1268.3017	1291.5555	1313.8154	1356.1807	1384.1798	1417.7863	1447.044	1461.006	1483.2005	1499.8109	1546.9443	1703.5054	3019.2177	3041.1485	3097.2254	3105.4679	3280.4895	3495.0704	3541.8533
C1CNC2=C(N1)OC=N2	C1CNc2c(N1)ocn2	
InChI=1S/C5H7N3O/c1-2-7-5-4(6-1)8-3-9-5/h3,6-7H,1-2H2	InChI=1S/C5H7N3O/c1-2-7-5-4(6-1)8-3-9-5/h3,6-7H,1-2H2
