21
gdb 38660	2.86089	1.72796	1.43332	0.2992	85.4	-0.2333	0.0286	0.2619	1001.5557	0.18659	-349.969957	-349.96294	-349.961996	-350.001135	29.596	
C	 0.302044706	 1.678032172	 0.4900807801	-0.290612
C	 1.3701203494	 0.765495756	-0.058885026	-0.02523
C	 2.307008439	 0.0907423026	 0.9329440223	-0.242571
C	 1.400969599	-0.6814364778	 1.9359299338	-0.055445
C	 1.1247507684	-0.0201839873	 3.2657159206	-0.074276
C	-0.1760926094	 0.0632423595	 3.5403143175	-0.06021
C	-1.0355162755	-0.5096128051	 2.4395927993	-0.269543
C	-0.0255795737	-0.786086333	 1.2891945525	-0.024557
C	-0.0307624092	 0.2404842805	 0.1601147247	-0.036798
H	 0.3573189752	 1.9857995686	 1.528043942	 0.117668
H	-0.0912920563	 2.4372005736	-0.1781184149	 0.102686
H	 1.7421722363	 0.9582764033	-1.0596414648	 0.075455
H	 2.9545084034	-0.6120294393	 0.3968089144	 0.094007
H	 2.967670688	 0.7996744254	 1.4456135284	 0.095169
H	 1.8351388489	-1.6733956131	 2.1155946267	 0.076671
H	 1.9243898084	 0.3106675778	 3.9211551057	 0.086187
H	-0.5967817097	 0.4753457405	 4.4518297841	 0.087438
H	-1.535581912	-1.4290906623	 2.7732925554	 0.099871
H	-1.8323802424	 0.1773723226	 2.129059512	 0.104065
H	-0.1912583384	-1.7771253353	 0.8569194252	 0.065156
H	-0.6941172956	 0.0600557707	-0.6795182791	 0.07487
110.3157	194.6975	285.279	323.827	410.7056	467.8525	580.0161	637.4003	712.3873	742.1955	767.9725	802.7047	820.7096	835.347	870.8362	903.4329	923.6889	956.9905	970.1566	976.1604	1013.9916	1030.7234	1046.6838	1066.6229	1074.8368	1096.9633	1110.2061	1118.5948	1134.5831	1185.7889	1197.531	1211.3569	1231.3013	1262.2709	1307.2437	1320.0567	1328.9603	1336.1279	1356.004	1379.6895	1398.6898	1481.3484	1486.098	1496.8775	1683.5084	3007.9421	3011.1946	3032.4431	3044.8715	3060.7191	3066.1625	3131.2357	3152.9218	3163.446	3169.9102	3196.2729	3217.5743
C1C2CC3C=CCC3C12	C1[C@H]2C[C@H]3C=CC[C@H]3[C@@H]12	
InChI=1S/C9H12/c1-2-6-4-7-5-9(7)8(6)3-1/h1-2,6-9H,3-5H2	InChI=1S/C9H12/c1-2-6-4-7-5-9(7)8(6)3-1/h1-2,6-9H,3-5H2/t6-,7-,8-,9+/m1/s1
