16
gdb 77269	2.22763	1.33793	1.04661	4.4505	72.2	-0.2479	-0.0009	0.247	1180.4163	0.123766	-434.045467	-434.036294	-434.03535	-434.080158	32.299	
N	 0.1149289792	 1.4606972093	 0.102750034	-0.508923
C	 0.0866504283	 0.0447355167	-0.0108237047	-0.022462
C	-1.1879366876	-0.6757237325	 0.2512450831	 0.08049
O	-2.2817463928	 0.1367571741	 0.5398003309	-0.192879
C	-3.5081749388	-0.3258057329	 0.1621439481	 0.137161
N	-4.5340122788	 0.2993206866	 0.5303692285	-0.425389
C	-0.6292044932	-0.7106606694	-1.1771667544	-0.27558
C	-1.2546179677	 0.0593542513	-2.2039866336	 0.300335
N	-1.7474764797	 0.6957456792	-3.0362387537	-0.337792
H	 0.6368319307	 1.8938047604	-0.6507735391	 0.249197
H	-0.8218045091	 1.8482561415	 0.1145764466	 0.265254
H	 0.9930367407	-0.4531589722	 0.3227611475	 0.12225
H	-1.1637407921	-1.6123330481	 0.8030650972	 0.12594
H	-3.4575038697	-1.2307270775	-0.4542680891	 0.105871
H	-5.3706090265	-0.1471477636	 0.1604524206	 0.240647
H	-0.1960645328	-1.6503211928	-1.504184732	 0.135881
61.9464	102.3964	119.1975	123.973	179.3507	248.0222	290.6146	375.937	399.605	532.1916	599.182	660.276	700.7689	711.6552	786.4764	827.5445	838.2172	942.3967	955.0419	1017.6387	1043.5482	1057.526	1113.7149	1120.7524	1198.1685	1257.128	1263.0806	1290.3162	1355.0365	1373.2828	1413.7802	1454.3427	1654.6581	1754.8663	2347.0389	3057.4108	3133.8292	3147.504	3167.6136	3521.3034	3524.1545	3605.4852
NC1C(OC=N)C1C#N	N[C@H]1[C@@H](O[CH][NH])[C@H]1C#N	
InChI=1S/C5H7N3O/c6-1-3-4(8)5(3)9-2-7/h2-5,7H,8H2	InChI=1S/C5H7N3O/c6-1-3-4(8)5(3)9-2-7/h2-5,7H,8H2/t3-,4+,5-/m0/s1
