14
gdb 28171	5.33096	1.33018	1.07166	0.518	69.89	-0.2131	0.0044	0.2175	1059.2659	0.1025	-436.716508	-436.709598	-436.708654	-436.747953	26.068	
C	 0.0928883001	 1.4319238685	-0.0004175909	-0.491159
C	-0.0706181531	-0.0420434462	-0.0214338605	 0.344485
N	-1.1327470385	-0.7419459369	-0.2736658885	-0.375356
C	-0.7038479405	-2.064028239	-0.1513179185	 0.176878
C	 0.608818132	-2.0416951908	 0.1712340836	 0.393297
O	 1.1798482449	-3.2327667315	 0.327012467	-0.209296
C	 0.1205478589	-4.1134535553	 0.0778416541	-0.019844
C	-1.0404714748	-3.4596798181	-0.2160974307	-0.310898
O	 1.0827618356	-0.7919503974	 0.2718078405	-0.236736
H	 0.8403766539	 1.7587590267	-0.7308958285	 0.148385
H	-0.8662520876	 1.8904325057	-0.242318008	 0.161079
H	 0.4183509715	 1.7811967977	 0.9850976285	 0.148379
H	 0.3852338673	-5.1533924248	 0.1563358621	 0.144296
H	-1.9838280596	-3.9305261088	-0.4420497001	 0.12649
113.9609	138.7891	262.8511	282.4682	355.3567	517.3792	577.8181	593.7053	652.9495	690.1812	759.9862	763.5682	804.2626	831.0448	865.6007	937.811	1001.4706	1027.3725	1062.5715	1131.1515	1158.7937	1231.4756	1284.8623	1404.4187	1437.7213	1472.2859	1480.5515	1512.7209	1531.3208	1617.8555	1630.9	3041.9201	3095.8526	3156.9397	3263.1275	3301.4258
CC1=NC2=C(OC=C2)O1	Cc1nc2c(occ2)o1	
InChI=1S/C6H5NO2/c1-4-7-5-2-3-8-6(5)9-4/h2-3H,1H3	InChI=1S/C6H5NO2/c1-4-7-5-2-3-8-6(5)9-4/h2-3H,1H3
