21
gdb 40921	3.70654	1.24465	1.15726	1.7936	81.6	-0.2371	0.0757	0.3128	1150.1988	0.183749	-387.042306	-387.034489	-387.033545	-387.074915	30.951	
C	-0.0552636377	 1.2291635371	-0.6582642453	-0.213271
C	 1.0983822383	 1.7620206219	 0.2336544552	-0.281026
C	 1.2817377628	 0.326247794	 0.7939951546	 0.389241
C	-0.1397763829	-0.0115149172	 0.269309633	-0.28863
C	 2.4601055276	-0.5616294688	 0.2684213042	-0.31432
C	 2.8787644367	-0.8510019134	 1.7258141891	 0.127343
O	 3.846218555	 0.0942663788	 2.2290317747	-0.294268
C	 2.8084084214	 0.9085310554	 2.8241975908	-0.083638
C	 1.6977088541	 0.0104779743	 2.2533563897	-0.17795
H	-0.9484104343	 1.8503595156	-0.7549252788	 0.096709
H	 0.2934929076	 0.9659058043	-1.6604726992	 0.105485
H	 1.9587711649	 2.221577522	-0.2601136169	 0.099475
H	 0.7292064786	 2.4500192378	 1.0016840808	 0.098207
H	-0.8947062656	 0.1192999318	 1.0520922555	 0.097084
H	-0.2854207424	-0.9921833856	-0.1930422046	 0.094713
H	 2.1240199124	-1.4468764284	-0.2809482758	 0.097098
H	 3.2329066937	-0.0509840954	-0.3122336195	 0.107517
H	 3.1088048809	-1.878517512	 2.0197657812	 0.072405
H	 2.8801955675	 0.9038358693	 3.9196258463	 0.097722
H	 2.8371690808	 1.9472318861	 2.4712157057	 0.101323
H	 0.9199851004	-0.3374592076	 2.9339542493	 0.06878
73.2039	105.4005	187.2947	271.2478	345.1849	358.3684	432.8203	501.1628	670.8692	723.1211	780.1661	801.064	830.53	855.009	888.2844	909.1075	929.4202	938.4362	953.2029	977.1547	994.4814	1015.2691	1031.4352	1075.0486	1096.7073	1152.0412	1156.5706	1177.3008	1185.6062	1193.7526	1218.6957	1229.3996	1255.6208	1259.8279	1265.1353	1275.745	1291.8598	1307.2764	1321.9046	1362.4545	1456.7702	1471.3249	1482.018	1502.6382	1522.6731	3006.0444	3038.2761	3042.6322	3044.9863	3049.2456	3060.9497	3070.1774	3088.4913	3094.8976	3104.0859	3106.7529	3117.1272
C1CC2(C1)CC1OCC21	C1CC2(C1)C[C@H]1OC[C@@H]21	
InChI=1S/C8H12O/c1-2-8(3-1)4-7-6(8)5-9-7/h6-7H,1-5H2	InChI=1S/C8H12O/c1-2-8(3-1)4-7-6(8)5-9-7/h6-7H,1-5H2/t6-,7-/m1/s1
