17
gdb 73070	3.43439	1.12038	0.99268	3.1969	70.85	-0.2277	0.0316	0.2593	1210.2496	0.135322	-455.072336	-455.063709	-455.062764	-455.105975	31.737	
O	-0.1065928283	 1.4509542218	-0.3849769327	-0.459451
C	 0.0127133774	 0.1185046689	-0.0506570592	 0.317674
C	 0.6916787191	-0.9368664669	-0.9348570689	-0.236224
N	-0.3103409266	-1.9766073413	-0.5047426057	-0.321844
C	-1.0470872712	-0.9519758241	 0.2531471177	-0.143341
C	-0.148074159	-0.4091984127	 1.3375969311	 0.032891
O	 0.8830369936	-1.1374755442	 1.9482921654	-0.195859
C	 0.5534781191	-2.3398959102	 2.4796661432	 0.147602
N	 1.4173284695	-2.9839287726	 3.1344151886	-0.44761
H	 0.5427189105	 1.9548493198	 0.1192246785	 0.293452
H	 0.5991953571	-0.6752088239	-1.9919245831	 0.116809
H	 1.7267838319	-1.197549894	-0.6977077767	 0.126143
H	-0.856881937	-2.2811032547	-1.303610638	 0.22996
H	-2.128667594	-0.9335177452	 0.3201185775	 0.106479
H	-0.6507158299	 0.2877497557	 2.0071632045	 0.108891
H	-0.4789365388	-2.6373130144	 2.2683279758	 0.097131
H	 1.0208574166	-3.8671750221	 3.4489907222	 0.227295
67.9267	129.9251	139.1397	207.2004	228.592	283.6484	316.3191	373.249	481.6446	519.1135	634.035	723.9314	783.6281	816.4004	826.7279	863.6592	930.079	950.9437	990.5968	1007.3204	1021.0276	1035.8896	1044.6934	1104.2908	1149.6377	1162.318	1224.6801	1257.2064	1269.5947	1294.6056	1334.3895	1343.2425	1369.7064	1413.2675	1478.5347	1501.8795	1744.2388	3058.3435	3068.7476	3116.5487	3122.0911	3184.0742	3516.0907	3524.2438	3786.0527
OC12CNC1C2OC=N	O[C@]12CN[C@H]1[C@H]2O[CH][NH]	
InChI=1S/C5H8N2O2/c6-2-9-4-3-5(4,8)1-7-3/h2-4,6-8H,1H2	InChI=1S/C5H8N2O2/c6-2-9-4-3-5(4,8)1-7-3/h2-4,6-8H,1H2/t3-,4+,5+/m0/s1
