21
gdb 82557	2.66242	1.72998	1.33618	1.7774	82.26	-0.2443	0.0798	0.324	1042.3563	0.184682	-387.028498	-387.021124	-387.02018	-387.059809	30.826	
C	-0.1565846887	 1.520528061	-0.0035882313	-0.422992
C	 0.0255112197	 0.0056710377	-0.04237713	-0.028057
C	 0.9003838314	-0.5592349804	-1.2196571296	-0.02677
C	 2.4218729936	-0.4813094579	-0.7577706019	-0.337882
C	 1.8768738834	-1.4515930975	 0.3193611462	 0.281436
C	 1.9948942105	-2.2034355547	 1.6565110794	-0.225028
O	 0.6942196249	-1.6444963453	 2.0415138027	-0.322011
C	 0.9253942752	-0.5594763571	 1.0890887392	 0.159487
C	 0.9692337115	-2.0424753291	-0.788481959	-0.245383
H	 0.8080619252	 2.039562603	 0.0236750988	 0.114517
H	-0.6988626563	 1.8764643731	-0.8857892417	 0.113021
H	-0.7223115548	 1.8264916664	 0.8828564795	 0.121021
H	-0.9550474918	-0.4808904941	-0.0696202441	 0.088241
H	 0.6210832596	-0.2630230775	-2.2320444012	 0.063746
H	 3.0755649471	-0.9253933672	-1.5120033964	 0.102152
H	 2.828648654	 0.4751870576	-0.4183695135	 0.097356
H	 1.9797151054	-3.2968100631	 1.6323345533	 0.109022
H	 2.7876921394	-1.8492616061	 2.3288583413	 0.101022
H	 1.4248000904	 0.260475026	 1.6274548201	 0.063888
H	 0.0415871648	-2.5346906522	-0.4868816964	 0.102065
H	 1.5340865756	-2.6724505825	-1.4809016852	 0.091148
169.2963	217.9599	251.0349	289.3431	321.4508	394.9081	496.1673	503.1403	565.5457	610.4735	751.6614	785.5315	823.0412	851.5038	877.2513	904.5252	918.0662	951.9882	977.684	988.755	1016.657	1042.7524	1061.4876	1072.3704	1074.7472	1109.2881	1146.348	1148.8324	1157.4659	1195.5655	1210.3584	1230.5517	1247.8979	1267.4996	1289.8369	1305.2756	1333.7209	1353.4225	1405.1217	1414.0887	1487.903	1497.1642	1500.0078	1508.2908	1522.7186	2979.8666	3013.9822	3028.8755	3051.7035	3055.7736	3059.7739	3089.4685	3096.5279	3098.5495	3105.1087	3117.2338	3120.2533
CC1C2CC3(COC13)C2	C[C@H]1[C@H]2C[C@]3(CO[C@H]13)C2	
InChI=1S/C8H12O/c1-5-6-2-8(3-6)4-9-7(5)8/h5-7H,2-4H2,1H3	InChI=1S/C8H12O/c1-5-6-2-8(3-6)4-9-7(5)8/h5-7H,2-4H2,1H3/t5-,6-,7+,8+/m0/s1
