19
gdb 34139	2.65289	1.70041	1.34872	0.6736	86.27	-0.2501	0.0455	0.2956	1020.8954	0.160997	-348.694002	-348.6867	-348.685756	-348.725484	30.112	
C	 0.0070273949	-1.1783813258	 0.019427262	-0.372685
C	-0.0190347126	 0.025081505	 0.0374305011	 0.06645
C	-0.0417526427	 1.4584444623	 0.0440553036	 0.260909
C	-0.673005769	 2.4120784334	 1.0957208362	-0.284555
C	-0.0579513338	 3.3465622512	 0.0294577913	-0.096133
C	 1.200986307	 2.4251940127	-0.0417700479	-0.032753
C	 1.7397825759	 2.4050955759	-1.4702785082	-0.244973
C	 0.3982849884	 2.3874984264	-2.2595230004	-0.244971
C	-0.5890035887	 2.4016979304	-1.0948766827	-0.032759
H	 0.0274804853	-2.2398284837	 0.0085379562	 0.175649
H	-1.7636718635	 2.3931247776	 1.1708291848	 0.095255
H	-0.2087196684	 2.4135337117	 2.0856647423	 0.095255
H	-0.0639776986	 4.4370313928	 0.0153730353	 0.070022
H	 1.9060459572	 2.4255819116	 0.7915769757	 0.067353
H	 2.3507126321	 3.2860387229	-1.691074805	 0.097855
H	 2.3532179325	 1.5198445929	-1.6630317158	 0.107434
H	 0.2774532471	 3.2588581224	-2.9108143965	 0.097856
H	 0.2861553125	 1.4927454565	-2.8791760707	 0.107435
H	-1.6596907056	 2.3787768338	-1.3062548613	 0.067356
122.232	144.194	245.6697	335.6839	411.0095	501.019	511.7936	559.9102	619.9545	636.6064	682.7009	730.4925	753.8003	825.3019	843.3897	884.3182	919.5663	930.5401	975.3239	983.6179	1000.2821	1003.8352	1035.9844	1056.8313	1102.1141	1104.9265	1143.0042	1172.4383	1211.5344	1214.3844	1246.1095	1251.1101	1253.2782	1284.0616	1285.6929	1317.3934	1374.4193	1483.8736	1504.5798	1519.1328	2227.0383	3045.3863	3050.4531	3054.6661	3080.9459	3099.3971	3100.4141	3100.6013	3112.8324	3112.9858	3502.513
C#CC12CC3C1CCC23	C#C[C@@]12C[C@H]3[C@@H]1CC[C@@H]23	
InChI=1S/C9H10/c1-2-9-5-6-7(9)3-4-8(6)9/h1,6-8H,3-5H2	InChI=1S/C9H10/c1-2-9-5-6-7(9)3-4-8(6)9/h1,6-8H,3-5H2/t6-,7-,8+,9+
