22
gdb 119790	5.1579	0.78283	0.73465	1.4241	89.22	-0.2215	0.0209	0.2424	1633.18	0.195335	-367.204518	-367.195576	-367.194632	-367.238732	34.136	
C	-0.087370216	 1.5941116993	-0.1241005935	-0.37899
C	-0.0254901951	 0.065814285	-0.1782348906	-0.160024
C	-1.369116794	-0.5957376646	 0.1843782351	-0.293861
C	-1.3391199708	-2.0945414048	 0.1548296221	 0.329251
C	-1.5910119647	-2.9218755816	 1.17675124	-0.172775
C	-1.5691779956	-4.3468076876	 0.7423742758	-0.072878
N	-2.6216073338	-4.6464894726	-0.2767594368	-0.336397
C	-1.2428848219	-4.3288127482	-0.7088882392	-0.042893
C	-1.0454165903	-2.8755517713	-1.1224629728	-0.303641
H	 0.8773063992	 2.0421223444	-0.3821261431	 0.111049
H	-0.8343837118	 1.9851848054	-0.8239955979	 0.114246
H	-0.3601949402	 1.9442411407	 0.8777336827	 0.114491
H	 0.2809692667	-0.251925863	-1.1823292594	 0.099437
H	 0.7479254548	-0.3003880693	 0.5082609188	 0.099321
H	-1.6803003739	-0.2588978075	 1.18066772	 0.097858
H	-2.1355282941	-0.2319164597	-0.5164000837	 0.102606
H	-1.8380761049	-2.6089523542	 2.1849408989	 0.086098
H	-1.2542638249	-5.1414688995	 1.4105014749	 0.083529
H	-2.7386765392	-5.6579163333	-0.3279963773	 0.222779
H	-0.652475574	-5.1090142992	-1.1771411068	 0.083204
H	-1.7227580421	-2.5865678677	-1.9358072439	 0.114724
H	-0.0227845434	-2.6991802407	-1.4808439834	 0.102868
59.0326	88.2707	109.2597	213.9519	244.2683	304.9527	336.7873	365.2962	481.8028	518.5496	664.5492	711.4848	744.585	797.8264	836.0262	843.303	859.8652	884.5476	907.1925	920.0073	955.4084	967.683	1004.4799	1042.1808	1069.9058	1099.5091	1112.4912	1129.5785	1162.7052	1181.3267	1200.172	1248.9775	1264.7066	1285.3426	1310.7464	1324.735	1342.3219	1376.3342	1385.3731	1411.2648	1413.1009	1464.5623	1475.8571	1492.9029	1498.9772	1509.7954	1696.2873	2995.7737	3019.2058	3026.1308	3029.1577	3043.9584	3054.7557	3064.7261	3096.7738	3101.6788	3159.9669	3169.6878	3194.9505	3467.2205
CCCC1=CC2NC2C1	CCCC1=C[C@H]2N[C@H]2C1	
InChI=1S/C8H13N/c1-2-3-6-4-7-8(5-6)9-7/h4,7-9H,2-3,5H2,1H3	InChI=1S/C8H13N/c1-2-3-6-4-7-8(5-6)9-7/h4,7-9H,2-3,5H2,1H3/t7-,8+/m1/s1
