21
gdb 74518	3.74499	1.08695	0.98407	1.8206	86.33	-0.23	0.0197	0.2498	1305.8335	0.182863	-387.098304	-387.08956	-387.088616	-387.132187	33.092	
C	 0.0237876786	 1.5553949398	 0.2094917653	-0.488287
C	 0.0431050448	 0.0676034783	 0.0590356739	 0.320963
C	-0.1256449385	-0.6376398484	-1.0620093947	-0.23754
C	-0.0885611169	-2.1194883255	-0.8375084869	 0.453622
C	-1.3233976506	-2.9504429239	-1.2990303642	-0.345423
C	-0.3343864011	-3.6704846147	-2.2291781948	-0.06935
O	 0.7584605697	-2.8475484027	-1.7799365018	-0.324166
C	 0.4055712984	-2.2446559909	 0.621497194	-0.296709
C	 0.2362158794	-0.8442635299	 1.2534481832	-0.307277
H	 0.9668675804	 1.9177358995	 0.63828867	 0.127626
H	-0.132753682	 2.0593385866	-0.7478189645	 0.124807
H	-0.7704358051	 1.8733602251	 0.8972663514	 0.125653
H	-0.3052957013	-0.2197516695	-2.047310167	 0.085971
H	-1.783654052	-3.5636067028	-0.5219038098	 0.105731
H	-2.0985004882	-2.3693255173	-1.802276275	 0.106786
H	-0.1629128637	-4.73309884	-2.0148948041	 0.096739
H	-0.5200442298	-3.5561490143	-3.3044208314	 0.09775
H	-0.1087691715	-3.034076177	 1.1761377313	 0.093444
H	 1.4640911186	-2.5163420415	 0.571390782	 0.122185
H	 1.0948369559	-0.5455711322	 1.8674814446	 0.102416
H	-0.6393517949	-0.7958408585	 1.9157176585	 0.105059
63.4346	80.9152	139.9248	179.1598	272.6564	300.9973	398.2871	421.0301	439.6754	497.8636	590.6457	746.5303	784.4306	836.3982	858.2329	870.1725	891.4298	928.6831	954.2803	979.062	992.2559	1020.094	1024.2995	1029.8541	1083.2238	1110.7246	1161.2633	1178.6692	1194.6724	1208.7466	1248.2822	1253.4945	1266.883	1285.599	1316.5844	1350.8118	1364.7087	1411.6314	1477.8823	1478.9185	1486.7221	1489.0345	1496.8156	1533.4959	1718.2974	3010.1205	3010.8255	3017.7965	3042.401	3046.1695	3059.3819	3062.8388	3073.0747	3103.483	3112.8671	3127.9556	3183.9206
CC1=CC2(CCO2)CC1	CC1=C[C@]2(CCO2)CC1	
InChI=1S/C8H12O/c1-7-2-3-8(6-7)4-5-9-8/h6H,2-5H2,1H3	InChI=1S/C8H12O/c1-7-2-3-8(6-7)4-5-9-8/h6H,2-5H2,1H3/t8-/m1/s1
