17
gdb 99545	2.23444	1.21697	0.84145	5.1435	73.34	-0.3166	-0.0121	0.3045	1344.1821	0.134168	-418.0294	-418.019386	-418.018441	-418.064864	34.845	
C	 0.0376953808	 1.5851364444	 0.0335155466	-0.405209
C	-0.0023092656	 0.0561654925	 0.021146544	-0.185468
C	-1.4387586185	-0.5132401285	-0.0019744066	-0.168315
C	-2.1377759774	-0.1335264285	-1.2318511416	 0.289541
N	-2.6585930967	 0.1622141187	-2.2200884855	-0.315044
C	-1.4289004488	-2.0670987917	 0.1501247507	-0.014851
O	-0.7248298848	-2.4790371488	 1.300822295	-0.404117
C	-2.7996555274	-2.6114623822	 0.1510582949	 0.260646
N	-3.8728922564	-3.0332770354	 0.2194804354	-0.302296
H	 1.0722558093	 1.9380564061	 0.055970577	 0.129196
H	-0.4425740112	 2.005416752	-0.8550566506	 0.147532
H	-0.4717181665	 1.9893018531	 0.915027034	 0.121857
H	 0.5393780792	-0.3288929911	-0.850698704	 0.120868
H	 0.4909116326	-0.3510705305	 0.9073914857	 0.128828
H	-2.0045734325	-0.100459246	 0.8441193432	 0.133491
H	-0.8876018028	-2.4922786249	-0.7017579321	 0.160109
H	-1.2753713933	-2.320220279	 2.0768314638	 0.303233
56.7752	90.6082	113.6414	155.3697	191.2989	227.8053	257.8302	280.9082	330.0294	338.4271	424.098	492.1828	538.0869	596.5686	618.069	774.453	882.4695	901.0632	958.0874	1032.1254	1065.4804	1079.9439	1118.6983	1132.1402	1231.5054	1268.9933	1294.9079	1338.0135	1359.9308	1368.5788	1418.8073	1421.0872	1491.4535	1499.0342	1507.7691	2358.9272	2360.1474	3025.3353	3039.2484	3048.1177	3071.8202	3096.9372	3113.2594	3123.071	3799.9163
CCC(C#N)C(O)C#N	CC[C@@H](C#N)[C@@H](O)C#N	
InChI=1S/C6H8N2O/c1-2-5(3-7)6(9)4-8/h5-6,9H,2H2,1H3	InChI=1S/C6H8N2O/c1-2-5(3-7)6(9)4-8/h5-6,9H,2H2,1H3/t5-,6-/m0/s1
