18
gdb 108763	2.37831	1.31582	0.88215	5.1183	79.19	-0.2185	-0.0154	0.2031	1293.3017	0.147819	-439.127045	-439.117944	-439.117	-439.161222	33.37	
C	-0.2227535012	 1.364987539	-0.0272917508	-0.326973
N	 0.0407668924	-0.056623133	 0.0522086313	-0.352965
C	 0.7061659694	-0.6252744423	 1.0760182153	 0.36172
C	 1.3580315569	-0.0585753888	 2.1269143337	-0.356081
C	 1.8847344995	-1.088475505	 3.013016766	 0.396019
O	 2.5517894822	-0.9461864218	 4.0170407638	-0.362973
C	 1.4113654257	-2.455520882	 2.466783564	-0.370887
C	 0.8017432666	-2.1466212274	 1.0932250372	 0.034751
O	-0.4420414603	-2.7671214745	 0.7815379573	-0.433546
H	 0.7175907437	 1.9263227403	-0.0406967618	 0.145696
H	-0.7616943968	 1.5799303027	-0.9517293484	 0.135153
H	-0.8209818807	 1.7233707814	 0.8217183903	 0.132798
H	-0.5376603434	-0.6851984408	-0.4843518434	 0.255973
H	 1.4804076501	 0.9977767542	 2.3229975822	 0.096143
H	 2.2339792004	-3.1731566055	 2.4357459849	 0.12787
H	 0.6529903763	-2.8658451309	 3.1443289039	 0.1185
H	 1.4682337943	-2.4679750907	 0.2846734392	 0.115424
H	-1.0395996052	-2.6139125648	 1.5227866054	 0.283378
76.9603	114.4149	124.7369	172.7784	183.0132	292.7575	355.7982	389.8714	442.33	500.4448	542.1689	547.3914	604.9867	618.7667	722.6204	824.6113	840.7115	861.2962	954.8005	1004.8104	1079.165	1101.6084	1132.0918	1153.7451	1174.9193	1194.3922	1242.0842	1283.9657	1298.0854	1307.2904	1322.4926	1424.4367	1460.0845	1462.2276	1482.1157	1512.9151	1547.2419	1671.9508	1797.8025	3009.6572	3045.3261	3049.2946	3073.7784	3112.5126	3133.4381	3226.1737	3618.0261	3793.0935
CNC1=CC(=O)CC1O	CNC1=CC(=O)C[C@H]1O	
InChI=1S/C6H9NO2/c1-7-5-2-4(8)3-6(5)9/h2,6-7,9H,3H2,1H3	InChI=1S/C6H9NO2/c1-7-5-2-4(8)3-6(5)9/h2,6-7,9H,3H2,1H3/t6-/m1/s1
