19
gdb 114442	3.78822	1.2681	1.13623	0.5672	73.45	-0.225	0.0801	0.3051	1109.9607	0.160751	-422.983179	-422.975588	-422.974644	-423.015335	30.009	
O	-0.0394502064	 1.4237548486	-0.060071015	-0.424578
C	 0.0288470994	 0.0071680867	 0.0499299096	-0.102697
C	-1.3914422442	-0.5325791461	-0.0130830679	 0.040728
C	-2.131953771	-0.2247137288	-1.3498206398	-0.235092
C	-2.9136913176	-1.5025434048	-1.651544961	-0.091635
C	-2.1121305093	-2.7884360731	-1.7208588764	 0.100953
O	-0.8194676868	-2.6073220334	-1.1374471793	-0.31122
C	-1.4696365669	-2.0575809884	 0.0628339382	 0.061836
C	-2.8614862913	-2.456677787	-0.4705666268	-0.16212
H	 0.8580253547	 1.7622069207	-0.1256179287	 0.286126
H	 0.6144405543	-0.4351722686	-0.7686487912	 0.105806
H	 0.5008976421	-0.2922189161	 1.000468101	 0.078929
H	-1.9595527347	-0.115251036	 0.828911652	 0.078301
H	-2.7977590268	 0.63553229	-1.2501404766	 0.106837
H	-1.4167524828	 0.0106149357	-2.1439351186	 0.109662
H	-3.8191022804	-1.4670321182	-2.247872341	 0.086396
H	-2.2278606236	-3.5652257991	-2.4677636265	 0.100568
H	-1.0849212497	-2.5277067563	 0.9703053262	 0.07586
H	-3.6843049591	-2.927302436	 0.0484340118	 0.09534
99.6974	134.6499	197.2063	258.4563	325.9563	411.6497	469.2366	494.4654	679.3251	718.7988	761.1448	802.8666	806.8351	842.9586	866.6508	913.2503	936.1458	978.1679	1004.7162	1007.0356	1030.3858	1043.8878	1065.1222	1072.902	1090.3469	1111.324	1129.6991	1194.8317	1209.5229	1237.4553	1261.6056	1268.9713	1272.7276	1294.2318	1316.3652	1338.583	1365.31	1407.099	1459.1402	1492.7503	1527.1569	2962.9001	3012.8412	3031.0989	3059.622	3093.9466	3103.6281	3172.1265	3182.1863	3212.317	3832.0291
OCC1CC2C3OC1C23	OC[C@H]1C[C@H]2[C@H]3O[C@@H]1[C@@H]23	
InChI=1S/C7H10O2/c8-2-3-1-4-5-6(3)9-7(4)5/h3-8H,1-2H2	InChI=1S/C7H10O2/c8-2-3-1-4-5-6(3)9-7(4)5/h3-8H,1-2H2/t3-,4-,5-,6+,7-/m1/s1
