17
gdb 42771	2.47739	1.99591	1.63811	2.6711	72.25	-0.2282	-0.0183	0.2099	896.5116	0.137176	-421.771623	-421.764844	-421.763899	-421.802532	27.72	
O	 0.0231037399	 0.0268129549	 0.0309313892	-0.330562
C	-0.0233240853	 1.2183172436	-0.0102782659	 0.431023
C	-1.0662580946	 2.3461185273	 0.037664153	-0.020184
C	-0.0394200777	 3.019949256	 1.0395449012	-0.365401
C	 0.9927945126	 2.3824664949	 0.0431606132	 0.150499
C	 2.4081371652	 2.1714616917	-0.5254555157	-0.349829
C	 1.7267303441	 2.262317508	-1.9510032575	-0.289486
C	 0.5975042597	 3.0775403267	-1.2443702244	 0.146244
O	-0.8421701782	 2.9370370627	-1.2683059778	-0.301111
H	-2.1277345122	 2.2346591979	 0.2395822938	 0.107133
H	-0.0370548369	 4.1105340104	 1.0781041212	 0.122768
H	-0.1059446845	 2.5819085136	 2.0373763709	 0.125818
H	 3.0876625061	 3.0078320319	-0.3465636717	 0.117574
H	 2.8981596898	 1.2332390029	-0.2608415603	 0.126995
H	 2.2789861433	 2.7645670388	-2.7463917511	 0.10641
H	 1.3935737818	 1.2798464266	-2.2902855387	 0.138647
H	 0.841862247	 4.146289142	-1.2718485296	 0.083461
150.4	200.8282	255.9891	380.1093	418.2607	479.2125	532.2222	629.8479	681.8758	687.352	780.3206	791.003	802.8223	856.0532	881.1054	902.3001	922.4263	972.0888	997.5274	1046.9305	1060.9035	1076.8945	1114.1324	1147.1012	1159.5885	1194.6296	1209.3783	1225.3022	1228.7003	1256.4722	1273.2914	1300.527	1384.5805	1476.3545	1481.1808	1489.459	1904.3619	3025.6514	3074.4423	3075.5897	3082.8988	3131.2549	3147.0355	3148.6308	3176.1103
O=C1C2CC11CCC1O2	O=C1[C@H]2C[C@]31CC[C@H]3O2	
InChI=1S/C7H8O2/c8-6-4-3-7(6)2-1-5(7)9-4/h4-5H,1-3H2	InChI=1S/C7H8O2/c8-6-4-3-7(6)2-1-5(7)9-4/h4-5H,1-3H2/t4-,5-,7-/m1/s1
