20
gdb 126536	3.18538	0.9857	0.80021	1.7905	82.06	-0.198	0.0368	0.2348	1469.5567	0.172578	-399.359327	-399.349854	-399.34891	-399.394037	34.973	
C	-0.0473207351	 1.6255893431	 0.0032905752	-0.377571
C	-0.024637183	 0.0954670508	-0.0072831728	-0.154211
C	 0.7546024403	-0.4859700372	-1.2037932374	-0.331828
C	 0.773233621	-1.9837855226	-1.2532827874	 0.178659
C	 1.7626765113	-2.85324209	-0.8394146822	-0.119828
N	 1.3262008557	-4.1073115719	-1.0936688298	-0.195824
N	 0.0884151594	-4.1318518863	-1.6483589513	-0.307626
C	-0.2426563357	-2.8486222474	-1.7502601256	 0.285214
N	-1.4361958372	-2.4605862226	-2.3677184306	-0.593443
H	 0.9677749871	 2.0353057486	 0.0549390058	 0.113976
H	-0.5151103433	 2.02204395	-0.9049562024	 0.114243
H	-0.6057513202	 2.0118609252	 0.8616858206	 0.111063
H	 0.4206237921	-0.2800318479	 0.9221369509	 0.098697
H	-1.0537759356	-0.2882170626	-0.0188078022	 0.088386
H	 0.3163026285	-0.0995329161	-2.1340466013	 0.107298
H	 1.7829417539	-0.1051227863	-1.1723823959	 0.097425
H	 2.7318686921	-2.66564398	-0.4025930113	 0.124143
H	 1.802648799	-4.9759082708	-0.9307499362	 0.269461
H	-2.0465657885	-3.2562030811	-2.508532824	 0.24775
H	-1.9270419418	-1.7338339747	-1.863352252	 0.244015
61.714	81.5995	112.9755	238.0263	244.9417	253.9269	286.3789	312.2734	367.5006	421.3732	454.5382	645.5008	670.0302	723.2519	738.9148	761.0568	787.3347	810.7158	872.412	898.3752	944.0989	1041.6992	1058.5986	1090.1709	1103.6426	1111.035	1210.4894	1240.344	1265.9306	1303.23	1324.3348	1340.4575	1383.1634	1412.8358	1435.1153	1478.4661	1490.819	1491.2561	1500.4043	1509.6172	1536.7375	1620.1451	1650.6455	3009.7599	3017.7143	3028.9383	3041.0034	3062.3702	3095.4078	3101.8386	3249.4923	3535.5697	3628.8808	3695.887
CCCC1=CNN=C1N	CCCc1c[nH]nc1N	
InChI=1S/C6H11N3/c1-2-3-5-4-8-9-6(5)7/h4H,2-3H2,1H3,(H3,7,8,9)	InChI=1S/C6H11N3/c1-2-3-5-4-8-9-6(5)7/h4H,2-3H2,1H3,(H3,7,8,9)
