17
gdb 47868	2.34926	1.73929	1.28665	5.0653	72.02	-0.2643	-0.0159	0.2484	1022.1532	0.137958	-455.15081	-455.143021	-455.142077	-455.183253	29.676	
N	 0.139997027	 0.6748720951	-1.1732490468	-0.497283
C	 0.0624985941	-0.0889421079	-0.1714058588	 0.333709
O	 1.142254793	-0.3880276422	 0.6080733931	-0.246844
C	 0.9653619392	-1.299279859	 1.7001792947	-0.089194
C	 0.8351543938	-2.7425175235	 1.2056570695	-0.22353
C	-0.1294240659	-2.8261238151	 0.0194752012	-0.089193
O	-1.3257213651	-2.0763404854	 0.266590721	-0.246845
C	-1.2653723515	-0.7143610138	 0.2011525528	 0.333706
N	-2.2629256548	 0.0209945522	 0.4404188765	-0.497281
H	 1.0982122409	 1.0188427387	-1.276282919	 0.225388
H	 1.8478817841	-1.1729066808	 2.3297576716	 0.127466
H	 0.0886152778	-1.0075718923	 2.2886967428	 0.139277
H	 1.8098826013	-3.1314810164	 0.8916191471	 0.119247
H	 0.4813556406	-3.3653896616	 2.0344301761	 0.119247
H	 0.3492687763	-2.4691786519	-0.8989881397	 0.139276
H	-0.4599245335	-3.8519657837	-0.1525665209	 0.127466
H	-3.0772734174	-0.5573994125	 0.6626942888	 0.225388
91.6047	110.7789	239.25	270.2324	344.1083	358.3702	400.6342	404.773	559.9136	609.5764	682.154	727.5759	776.225	802.4628	871.4022	908.4536	922.8046	925.052	1004.9182	1042.1959	1044.2023	1113.8438	1124.0378	1165.1193	1248.8586	1254.0557	1294.1101	1304.4816	1362.4478	1374.0838	1394.1106	1429.6088	1475.6521	1514.3038	1514.4238	1738.2319	1763.9655	3044.9139	3049.1779	3051.9798	3091.0801	3120.5197	3121.2682	3454.6778	3454.8031
N=C1OCCCOC1=N	[NH][C]1OCCCO[C]1[NH]	
InChI=1S/C5H8N2O2/c6-4-5(7)9-3-1-2-8-4/h6-7H,1-3H2	InChI=1S/C5H8N2O2/c6-4-5(7)9-3-1-2-8-4/h6-7H,1-3H2
