17
gdb 82111	3.06874	1.2938	1.05962	1.6442	67.47	-0.256	0.0624	0.3184	1132.9979	0.135207	-458.886737	-458.878804	-458.87786	-458.919964	29.778	
O	 0.3599850282	 1.4039327614	 0.1474370241	-0.42799
C	 0.1270808906	 0.027745596	 0.0495234518	 0.104192
C	 0.3195569478	-0.7895397187	 1.3356747807	-0.025191
O	-0.6366806153	-0.2450694822	 2.2633808705	-0.260913
C	-1.0822399486	-1.2349186795	 1.3187451597	 0.014272
C	-1.3795050856	-0.4966732896	 0.0067401146	-0.112739
C	-2.4889664858	 0.5143918829	 0.016626151	 0.09473
C	-3.1161723105	 0.9872801216	-1.2221346363	-0.178782
O	-3.78198822	 0.0404923163	-0.3861541595	-0.243739
H	 0.021744129	 1.6749993355	 1.0105190061	 0.292866
H	 0.7040957083	-0.3418892086	-0.8009890997	 0.098964
H	 1.211702394	-1.2392894013	 1.7552766449	 0.11223
H	-1.5342685428	-2.1318596185	 1.7239819389	 0.116545
H	-1.5213518591	-1.1908367696	-0.8265636369	 0.087634
H	-2.5147393298	 1.1722708938	 0.8843144295	 0.099604
H	-3.5614138546	 1.9803730843	-1.2570200454	 0.117107
H	-2.7682895359	 0.6024918262	-2.180313254	 0.111211
54.3472	111.996	152.1353	227.4007	312.4156	335.7741	472.0542	517.3666	547.2285	656.7556	740.9855	805.4083	850.4461	863.2105	883.3518	897.0769	906.1214	930.1473	990.9036	1019.9121	1057.2948	1095.9374	1116.1525	1148.2787	1158.5011	1174.6967	1192.2424	1222.3217	1238.7321	1266.119	1291.8273	1294.8306	1305.167	1376.5172	1437.7926	1457.4554	1530.8992	3073.7787	3082.4533	3096.213	3121.5789	3168.9354	3187.2455	3203.9967	3775.0295
OC1C2OC2C1C1CO1	O[C@H]1[C@H]2O[C@H]2[C@H]1[C@H]1CO1	
InChI=1S/C6H8O3/c7-4-3(2-1-8-2)5-6(4)9-5/h2-7H,1H2	InChI=1S/C6H8O3/c7-4-3(2-1-8-2)5-6(4)9-5/h2-7H,1H2/t2-,3+,4-,5+,6-/m1/s1
