15
gdb 55996	3.55859	0.97066	0.88149	2.5588	64.17	-0.2706	0.0112	0.2818	1305.5684	0.112453	-491.114775	-491.106199	-491.105255	-491.149954	30.35	
N	-0.0748072825	 1.3208269652	 0.0003936136	-0.563947
C	 0.0733072559	-0.015832756	 0.2030415001	 0.506729
O	 0.9838079709	-0.548977858	 0.788039979	-0.387373
O	-1.0038072638	-0.6726545905	-0.3321047111	-0.264837
C	-0.9936786298	-2.0777393962	-0.2175195964	-0.006454
C	-2.155283875	-2.7171560104	 0.5719667861	-0.107394
O	-2.5570928049	-3.452080832	-0.6274450375	-0.254678
C	-1.6087193671	-2.8105237616	-1.3999903309	 0.419039
N	-1.3799441329	-2.8455287154	-2.6291026586	-0.536576
H	 0.7300434531	 1.8944162642	 0.1841005471	 0.275128
H	-0.7459123879	 1.6398336431	-0.6775686053	 0.272599
H	 0.0002746205	-2.421570504	 0.0705751064	 0.152954
H	-1.8910026054	-3.3966097375	 1.3843391836	 0.130575
H	-2.9291960021	-2.0111542646	 0.8815622846	 0.130824
H	-2.0328370991	-3.4612498563	-3.1169169408	 0.233411
17.9321	79.1998	118.0799	193.0576	255.4863	346.6652	364.9597	430.7582	496.4463	526.3401	645.908	653.4896	738.4094	777.1437	857.058	875.4856	951.2135	952.3539	986.9458	1012.2621	1089.7241	1120.0049	1152.1366	1178.9674	1222.7274	1247.72	1332.5449	1356.4277	1406.8809	1507.995	1612.9359	1834.9889	1847.4151	3070.9481	3119.6445	3138.876	3479.1084	3616.174	3746.5302
NC(=O)OC1COC1=N	NC(=O)O[C@H]1CO[C]1[NH]	
InChI=1S/C4H6N2O3/c5-3-2(1-8-3)9-4(6)7/h2,5H,1H2,(H2,6,7)	InChI=1S/C4H6N2O3/c5-3-2(1-8-3)9-4(6)7/h2,5H,1H2,(H2,6,7)/t2-/m0/s1
