17
gdb 110661	3.45168	1.53908	1.27537	3.0295	72.34	-0.2501	-0.0532	0.1969	993.8899	0.137505	-417.89672	-417.889654	-417.88871	-417.928327	27.914	
O	-0.025877926	 1.2615877108	 0.6182139562	-0.417619
C	 0.0361298793	-0.0261839228	 0.0441546521	-0.085667
C	-1.3631296126	-0.5948630838	-0.1875168938	-0.045721
C	-1.6971430522	-2.1372053157	-0.0558961495	-0.105649
C	-2.0634209801	-2.7284930052	 1.3265385816	-0.053343
C	-1.7925155475	-2.0133231562	 2.6582207881	-0.188056
N	-1.7301584911	-0.5958636192	 2.2015140277	-0.228781
C	-2.2561242639	-0.6273086548	 1.0373162486	 0.155693
N	-2.9979583505	-1.8507642597	 0.6197134898	-0.124161
H	-0.4051926522	 1.1277185197	 1.498883917	 0.298947
H	 0.5687149247	 0.0714811198	-0.9073631985	 0.108801
H	 0.6000527906	-0.725314481	 0.6784107161	 0.093389
H	-1.8297826902	-0.2418700336	-1.1115019023	 0.115791
H	-1.685131106	-2.7966628766	-0.922399256	 0.115547
H	-2.297330487	-3.7912625353	 1.3216493595	 0.107263
H	-2.5959084921	-2.2348672373	 3.3748245435	 0.125758
H	-0.8362209533	-2.2482032191	 3.13440036	 0.127809
90.5257	173.7606	204.5171	348.7859	370.9204	497.373	568.4048	580.0947	666.6735	684.8551	747.5581	781.3906	837.8822	870.6663	899.5738	934.4407	948.7935	1004.5041	1007.8565	1039.3576	1056.3489	1082.7325	1103.6224	1118.2755	1143.1568	1160.8693	1207.1853	1232.8085	1276.6346	1312.8994	1339.8822	1355.4629	1399.2528	1442.644	1486.9292	1500.5786	1623.9825	2999.3327	3012.4194	3070.0373	3086.0812	3086.8921	3122.6426	3145.5055	3733.6295
OCC1C2C3CN=C1N23	OC[C@H]1[C@H]2[C@H]3C[N][C]1N23	
InChI=1S/C6H8N2O/c9-2-3-5-4-1-7-6(3)8(4)5/h3-5,9H,1-2H2	InChI=1S/C6H8N2O/c9-2-3-5-4-1-7-6(3)8(4)5/h3-5,9H,1-2H2/t3-,4+,5-,8?/m0/s1
