16
gdb 66916	2.70051	1.78577	1.29994	3.2561	69.2	-0.231	-0.008	0.223	980.816	0.12288	-437.834537	-437.826562	-437.825618	-437.866656	30.535	
C	-0.0004591421	 1.5270261893	-0.0318936163	-0.506937
C	-0.043162682	 0.0343834902	-0.0281086447	 0.20839
C	 0.572388072	-0.9908312672	-0.9520585207	-0.19026
N	 1.1870233413	-0.7429266011	 0.3586382509	-0.169563
C	 0.7137296955	-2.0819383749	 0.8747647243	-0.223421
C	-0.3450915887	-2.1056448872	-0.2355721793	 0.235594
O	-0.9701219275	-3.2159060083	-0.730638209	-0.454609
C	-1.2193969481	-0.8875181598	 0.1382330673	 0.368283
O	-2.3991541406	-0.7214444199	 0.2570395525	-0.329666
H	 0.9643474917	 1.8833478375	-0.4012822693	 0.137158
H	-0.7953251383	 1.9294978635	-0.6665720165	 0.140232
H	-0.1431132821	 1.9198019715	 0.9796958247	 0.139654
H	 1.033848199	-0.8674830545	-1.9225568867	 0.120798
H	 1.5279133619	-2.7995573246	 0.7303832478	 0.111251
H	 0.3741224482	-2.0998457303	 1.9164905833	 0.119465
H	-0.3310757402	-3.9326218543	-0.8091337483	 0.293631
135.6594	159.5956	227.3465	235.9283	255.98	319.6354	374.8695	438.6211	513.5331	565.0018	633.2527	708.8803	754.6371	787.8033	820.0999	854.0323	887.1898	938.1093	967.9293	1039.4488	1040.9051	1062.7217	1088.1741	1128.0097	1147.5729	1223.9867	1277.5278	1314.9135	1392.6132	1416.2654	1435.6108	1480.4181	1490.7104	1509.2162	1885.2614	3034.1225	3044.5907	3093.124	3111.0234	3127.1961	3212.4485	3804.2613
CC12C3N1CC3(O)C2=O	C[C@@]12[C@H]3N1C[C@@]3(O)C2=O	
InChI=1S/C6H7NO2/c1-5-3-6(9,4(5)8)2-7(3)5/h3,9H,2H2,1H3	InChI=1S/C6H7NO2/c1-5-3-6(9,4(5)8)2-7(3)5/h3,9H,2H2,1H3/t3-,5+,6+,7?/m1/s1
