18
gdb 13688	3.65008	1.38463	1.1457	2.9906	69.41	-0.2279	0.0276	0.2555	1066.1467	0.153471	-381.109629	-381.10086	-381.099915	-381.143979	30.9	
C	 0.03116942	 1.6932328297	 0.4395446694	-0.320758
N	 0.0556642838	 0.250865929	 0.226943306	-0.071981
C	 1.3068038468	-0.3644063997	-0.1890049927	-0.251972
C	 0.7390129367	-0.6350677736	 1.1646905263	 0.008548
C	 1.4821075806	-0.1618717188	 2.3995391498	-0.196123
N	 0.6033403464	 0.1538022562	 3.5186138932	-0.269765
C	 0.4881256211	 1.404689178	 4.0379386921	 0.161793
O	 1.1008173507	 2.3817717291	 3.6590878361	-0.327615
H	 0.9328553367	 2.11365149	 0.9053087597	 0.126279
H	-0.1134882183	 2.1775574832	-0.5312507559	 0.120398
H	-0.8217650422	 1.9482876187	 1.0754488339	 0.125549
H	 1.2435758231	-1.1045679959	-0.982790379	 0.114199
H	 2.197969929	 0.2634178131	-0.2251275034	 0.107453
H	 0.2081977212	-1.5765549171	 1.315138952	 0.082915
H	 2.1878185477	-0.9470324437	 2.7007137419	 0.115119
H	 2.0620500416	 0.7412811546	 2.2080747754	 0.150365
H	 0.0202664918	-0.5736934059	 3.9015541344	 0.247693
H	-0.2416319167	 1.4370030032	 4.8708525107	 0.077902
34.036	70.3345	142.0357	193.7848	222.895	296.0467	320.0029	368.261	426.3599	529.9981	539.7058	736.5888	770.5921	794.037	914.5383	972.8024	1010.4081	1031.3277	1039.2887	1091.2194	1116.8056	1126.4011	1158.9628	1185.4416	1200.1532	1208.0981	1273.4526	1343.566	1362.9306	1424.8154	1429.0612	1452.9021	1476.0072	1488.6681	1501.8463	1516.4169	1535.438	1799.3686	2939.1875	3008.5042	3024.3596	3078.9738	3080.3791	3085.1943	3107.3305	3138.5421	3167.9882	3630.7932
CN1CC1CNC=O	CN1C[C@H]1CNC=O	
InChI=1S/C5H10N2O/c1-7-3-5(7)2-6-4-8/h4-5H,2-3H2,1H3,(H,6,8)	InChI=1S/C5H10N2O/c1-7-3-5(7)2-6-4-8/h4-5H,2-3H2,1H3,(H,6,8)/t5-,7?/m1/s1
