20
gdb 51886	3.53197	0.94246	0.85128	4.2533	77.12	-0.2434	0.0291	0.2725	1399.6819	0.172952	-440.321598	-440.312944	-440.311999	-440.35603	32.226	
O	-0.1957975076	 0.0467891951	-0.4256960585	-0.32033
C	-0.0684595705	 1.1953418161	-0.0596627998	 0.152386
N	 1.1134662155	 1.8021066449	 0.2385534843	-0.289037
C	 2.4046665345	 1.1368588596	 0.1568339177	 0.024068
C	 3.4114949988	 1.9497570507	-0.6680547985	-0.218913
C	 4.7949334281	 1.2860249278	-0.6211319986	-0.208355
C	 5.2046266437	 1.0182654153	 0.8282414392	-0.064748
O	 4.2346982987	 0.2378693779	 1.5085658375	-0.239451
C	 2.972616539	 0.87055545	 1.5624395159	-0.078917
H	-0.9250876411	 1.8872661271	 0.0678469645	 0.073469
H	 1.087158372	 2.7661630313	 0.5338839197	 0.243777
H	 2.2153784053	 0.1745389892	-0.326023017	 0.131583
H	 3.0554613063	 2.0565264329	-1.6976157963	 0.10922
H	 3.481561927	 2.964269915	-0.2469582075	 0.086629
H	 4.7672325953	 0.3327827079	-1.162066288	 0.113778
H	 5.5445202016	 1.9180390878	-1.110349238	 0.098459
H	 6.1394245755	 0.4532689591	 0.8805520558	 0.109967
H	 5.357074426	 1.9752234669	 1.3586556971	 0.082345
H	 3.0426484269	 1.8269596883	 2.1139731924	 0.071772
H	 2.3081316848	 0.2054760072	 2.1202803382	 0.122298
26.9613	105.5591	175.0128	214.8819	240.2961	355.1624	387.4885	419.3245	447.2185	463.948	529.4664	571.3152	762.7053	841.4485	868.3703	884.5913	927.9768	974.8761	992.7773	1029.5348	1039.3743	1075.9592	1118.9168	1139.1422	1175.9753	1195.99	1212.8887	1244.7412	1296.6984	1322.0926	1326.4171	1343.7401	1375.5246	1378.8682	1401.1765	1420.6071	1432.1901	1478.392	1486.9836	1490.8806	1503.9674	1528.2722	1806.5989	2931.7447	2932.5375	2950.7669	2995.8487	3035.0768	3073.5376	3079.9586	3089.6091	3091.4905	3101.5237	3620.542
O=CNC1CCCOC1	O=CN[C@H]1CCCOC1	
InChI=1S/C6H11NO2/c8-5-7-6-2-1-3-9-4-6/h5-6H,1-4H2,(H,7,8)	InChI=1S/C6H11NO2/c8-5-7-6-2-1-3-9-4-6/h5-6H,1-4H2,(H,7,8)/t6-/m0/s1
