17
gdb 68535	2.698	2.01622	1.72812	0.3012	69.87	-0.2372	0.0056	0.2428	869.5768	0.136247	-421.785202	-421.778406	-421.777462	-421.815826	28.462	
C	-0.0121514988	 1.4945862833	-0.0470499622	-0.507045
C	 0.0205259902	-0.0108661392	 0.0502068965	 0.30105
O	 0.6756523122	-0.6088203678	-1.0979606925	-0.272417
C	 0.5511285063	-1.9708623615	-0.6495808465	-0.056286
C	 1.1261435405	-1.8824216557	 0.7599144194	-0.06173
C	 0.7917521695	-0.6700336397	 1.1950186382	-0.098036
C	-1.0148749187	-2.0698127213	-0.5372882197	 0.027679
O	-1.5686022507	-1.8919710821	 0.7731587453	-0.234775
C	-1.3744062469	-0.7435261958	-0.0606812079	-0.000699
H	 1.0025960871	 1.8941809267	-0.1198766639	 0.135588
H	-0.5713689676	 1.8126502081	-0.932125424	 0.128094
H	-0.492645096	 1.9235007226	 0.8375649033	 0.125307
H	 1.0099803219	-2.6575795639	-1.3589598894	 0.078008
H	 1.5948812944	-2.6921879511	 1.3007622365	 0.112987
H	 0.9236971393	-0.2423417224	 2.1791560515	 0.109876
H	-1.5924937623	-2.6695742679	-1.2324087965	 0.10844
H	-2.2636861104	-0.1891300023	-0.3446693081	 0.103957
205.0864	256.883	271.7499	331.8797	347.5127	516.7735	549.9791	608.7211	623.619	708.0711	740.6407	774.3811	801.8164	837.7463	866.5846	885.1259	897.2546	908.4013	920.9605	952.6604	993.2223	1013.3645	1078.0742	1091.8931	1139.8694	1174.5916	1227.6394	1229.7633	1256.7785	1268.0154	1313.7004	1343.8578	1401.7384	1417.1818	1482.2666	1496.9796	1647.7701	3043.7572	3114.767	3123.9409	3136.3289	3159.5134	3177.7127	3220.7246	3246.3644
CC12OC(C=C1)C1OC21	C[C@@]12O[C@@H](C=C1)[C@H]1O[C@@H]21	
InChI=1S/C7H8O2/c1-7-3-2-4(9-7)5-6(7)8-5/h2-6H,1H3	InChI=1S/C7H8O2/c1-7-3-2-4(9-7)5-6(7)8-5/h2-6H,1H3/t4-,5+,6+,7+/m0/s1
