21
gdb 70300	3.50153	1.28639	1.17012	0.8571	82.24	-0.2284	0.0758	0.3042	1150.5144	0.183992	-383.23411	-383.225938	-383.224994	-383.266359	32.909	
C	-0.4409605928	 1.4741302569	 0.256638741	-0.475936
C	 0.0205226031	 0.0638988819	-0.0106507368	 0.345684
C	-0.7203383603	-1.1085512101	 0.5273891286	-0.296585
N	 0.5673565519	-0.7154834782	 1.1315923854	-0.137074
C	 1.7078172873	-1.492539777	 0.62167036	-0.232268
C	 1.6247920682	-1.4796252394	-0.9065640511	 0.308158
C	 2.636546878	-2.118070715	-1.7738094672	-0.311525
N	 1.2820581737	-2.6981321723	-1.6665387045	-0.344217
C	 0.8646858517	-0.2058047535	-1.2538087907	-0.328192
H	 0.4063485363	 2.1692992212	 0.2669881517	 0.115728
H	-1.1394346107	 1.8086110194	-0.5188816989	 0.117048
H	-0.9452782538	 1.5403687441	 1.2240703694	 0.126211
H	-1.5808703656	-0.9498849615	 1.1715101725	 0.109192
H	-0.7654714488	-2.0128340305	-0.0746908162	 0.123593
H	 2.6245681192	-0.9964655308	 0.9637422004	 0.110195
H	 1.7064777509	-2.5078937329	 1.0359790861	 0.099174
H	 2.8746790816	-1.689273306	-2.7438598006	 0.117701
H	 3.4659217373	-2.6371011807	-1.2981074627	 0.109939
H	 1.3118993235	-3.5090298258	-1.0516091613	 0.224682
H	 0.2731008748	-0.3318951977	-2.1642129357	 0.11841
H	 1.5579234045	 0.6304127478	-1.4121205095	 0.100081
107.7031	182.6718	204.6078	251.5219	313.2106	385.8297	390.7123	404.4956	430.4383	513.5643	605.7151	715.3403	770.0457	783.5986	841.4871	888.4184	905.1153	917.9038	937.549	958.0548	984.2601	1000.1808	1022.554	1051.6246	1092.7496	1102.7171	1114.5043	1137.5538	1176.955	1194.7162	1233.7754	1245.8461	1269.3621	1293.579	1318.8576	1330.7978	1380.0292	1412.7031	1419.0291	1479.1274	1487.8336	1490.6885	1493.8814	1509.5923	1515.6186	3020.6208	3025.6988	3030.0612	3061.9855	3087.9799	3098.2107	3098.4688	3105.1817	3117.3359	3180.9013	3190.5683	3479.7257
CC12CN1CC1(CN1)C2	C[C@]12CN1C[C@]1(CN1)C2	
InChI=1S/C7H12N2/c1-6-2-7(3-8-7)5-9(6)4-6/h8H,2-5H2,1H3	InChI=1S/C7H12N2/c1-6-2-7(3-8-7)5-9(6)4-6/h8H,2-5H2,1H3/t6-,7+,9?/m0/s1
