16
gdb 13303	5.76742	1.27107	1.08603	4.2813	70.45	-0.2254	0.0095	0.2348	1048.8541	0.131435	-342.787564	-342.780124	-342.77918	-342.819813	26.913	
N	 0.1073197691	-1.1607275452	-0.4677253676	-0.307876
C	 0.0795256787	-0.0292821145	-0.2375305359	 0.281143
C	 0.0369720775	 1.4056247502	 0.0774129663	-0.28978
N	 1.360917917	 1.9736702484	 0.1785736261	-0.069684
C	 2.2131697289	 1.4473909436	 1.254986322	-0.204964
C	 3.1087024345	 2.6149615423	 1.5671974338	-0.06438
C	 2.6600075748	 3.7222395279	 0.9847832356	-0.070796
C	 1.4036334467	 3.4415746737	 0.2058127019	-0.201767
H	-0.5088990498	 1.9090353243	-0.7290686767	 0.154846
H	-0.5704011756	 1.5288686678	 0.9970410819	 0.125252
H	 1.6323663495	 1.1495836613	 2.1507386054	 0.095808
H	 2.7563466839	 0.5534051745	 0.9230989762	 0.130075
H	 3.9795297879	 2.5279463252	 2.2042214448	 0.107962
H	 3.0934188623	 4.7115958893	 1.0553517802	 0.106526
H	 1.4202574807	 3.8516981864	-0.8136806383	 0.115757
H	 0.5247430138	 3.8883136048	 0.7129908143	 0.091877
69.7378	102.8318	159.5175	312.0144	325.1389	388.716	408.0702	478.9919	680.9886	705.1548	795.9992	858.2777	924.25	952.1362	963.4527	995.4865	1001.3846	1039.8679	1048.9162	1131.6736	1160.2492	1194.2991	1205.4498	1214.3575	1279.4594	1328.5464	1360.9514	1388.9444	1412.2263	1472.738	1509.2568	1522.9859	1694.4694	2366.3545	2894.4214	2899.9876	2905.6135	3009.8028	3031.3891	3058.9577	3208.0472	3232.0575
N#CCN1CC=CC1	N#CCN1CC=CC1	
InChI=1S/C6H8N2/c7-3-6-8-4-1-2-5-8/h1-2H,4-6H2	InChI=1S/C6H8N2/c7-3-6-8-4-1-2-5-8/h1-2H,4-6H2
