18
gdb 16953	3.40933	2.24952	2.07383	1.3903	70.89	-0.2344	0.0092	0.2436	771.5924	0.156178	-347.806795	-347.800367	-347.799423	-347.83688	26.652	
C	-0.1458510048	 1.5437100757	-0.0402029608	-0.407764
C	 0.0447837242	 0.0366110649	 0.0280497034	 0.161313
O	 0.8234166601	-0.4239530992	-1.0923506627	-0.300318
C	 1.8988142689	-1.235896536	-0.5335015788	 0.071392
C	 1.1995032702	-1.9125736425	 0.6546156067	-0.224863
C	 0.8249490133	-0.5336825273	 1.2633790115	-0.102732
C	 2.1869917906	 0.1381039585	 1.2712408488	-0.077297
C	 2.8460048251	-0.2861982705	 0.1864376385	-0.074966
H	 0.8134577305	 2.0644622368	 0.0109957656	 0.121483
H	-0.6296139843	 1.8155660017	-0.9829719395	 0.123961
H	-0.7832240975	 1.889824191	 0.7811627636	 0.105563
H	-0.938866944	-0.4545448201	-0.0110225356	 0.070392
H	 2.3030023115	-1.8536657644	-1.3336397304	 0.072191
H	 0.339136836	-2.5166984448	 0.352362406	 0.098873
H	 1.8712074752	-2.4908528353	 1.2906082124	 0.100928
H	 0.2559604901	-0.5213996325	 2.1927071433	 0.064744
H	 2.4968380344	 0.8994648113	 1.9758354996	 0.098457
H	 3.8012928205	 0.0549285025	-0.1907888616	 0.098645
177.1442	228.2711	284.6586	424.024	478.9217	492.1878	511.3925	667.3638	740.5794	772.5344	819.2348	830.4768	865.1296	895.1257	907.6488	926.7625	950.7193	971.6701	986.7733	1020.3321	1057.0983	1085.3483	1125.5169	1139.154	1146.8946	1196.6502	1259.6059	1272.1717	1284.0281	1299.967	1336.7941	1364.815	1388.6593	1407.5478	1484.0093	1490.279	1498.6815	1634.4402	2985.2253	3037.2965	3063.1746	3105.9383	3119.8742	3124.9059	3131.3108	3136.7862	3200.4548	3226.644
CC1OC2CC1C=C2	C[C@H]1O[C@@H]2C[C@H]1C=C2	
InChI=1S/C7H10O/c1-5-6-2-3-7(4-6)8-5/h2-3,5-7H,4H2,1H3	InChI=1S/C7H10O/c1-5-6-2-3-7(4-6)8-5/h2-3,5-7H,4H2,1H3/t5-,6-,7+/m1/s1
