19
gdb 111637	2.13578	1.66883	1.33121	1.0041	76.63	-0.2194	0.0157	0.2351	1071.1004	0.158569	-423.003082	-422.994513	-422.993568	-423.036027	32.934	
C	 0.2572155574	 1.0669338944	-0.2490440193	-0.232906
O	-0.3644606635	 0.0030846068	 0.4458336976	-0.228396
C	 0.488394946	-0.6455265209	 1.3238269077	 0.088929
C	 0.2287014564	-2.0935514288	 1.6323122329	-0.200417
C	-0.6294813359	-2.8841435048	 0.6465651771	-0.27256
C	 0.1792199594	-2.881698793	-0.6337917648	-0.062519
C	 1.3379943649	-2.2340488145	-0.4980021456	-0.162301
C	 1.5030411983	-1.6705442989	 0.871901906	 0.307463
O	 2.7684598455	-1.5811281243	 1.4497206086	-0.466795
H	 1.0910231205	 0.7087801274	-0.8683929428	 0.113583
H	-0.5016855302	 1.5180266972	-0.8925231289	 0.124846
H	 0.6400512722	 1.8313654126	 0.4434095467	 0.107724
H	 0.8302452301	-0.0377657644	 2.1648879297	 0.090364
H	 0.2741014919	-2.3965565954	 2.6718746248	 0.090058
H	-0.8296675537	-3.9019893221	 1.004082509	 0.103134
H	-1.6039794211	-2.4047534976	 0.4923373514	 0.128399
H	-0.1926173814	-3.3177136817	-1.5541154903	 0.095067
H	 2.0837325499	-2.0799185142	-1.2694975738	 0.095454
H	 3.1160393933	-2.4760709378	 1.5389810442	 0.280873
94.5425	146.5079	180.5909	224.8893	237.832	317.0589	344.3228	391.9752	425.5337	540.6221	594.411	615.4735	726.6451	771.9025	773.4422	861.5834	877.851	933.4575	946.2243	964.1479	1012.5628	1040.4596	1068.138	1073.9217	1112.4607	1166.0742	1179.7511	1186.6736	1213.8087	1250.4892	1261.2576	1291.1696	1324.0547	1352.6875	1376.7545	1435.859	1466.6763	1486.1506	1489.248	1505.7082	1667.8193	2987.9285	3025.278	3042.8698	3058.1658	3079.3326	3119.0557	3179.1855	3186.6645	3211.1803	3783.2815
COC1C2CC=CC12O	CO[C@H]1[C@H]2CC=C[C@@]12O	
InChI=1S/C7H10O2/c1-9-6-5-3-2-4-7(5,6)8/h2,4-6,8H,3H2,1H3	InChI=1S/C7H10O2/c1-9-6-5-3-2-4-7(5,6)8/h2,4-6,8H,3H2,1H3/t5-,6+,7+/m1/s1
