16
gdb 52544	4.22147	0.74304	0.63501	1.795	81.86	-0.2303	-0.0399	0.1904	1714.9711	0.123461	-434.091662	-434.081734	-434.08079	-434.128412	34.372	
C	-0.2417234883	 1.365163296	-0.3564516833	-0.506727
C	 0.0145495214	-0.0239303731	-0.0175017255	 0.198383
C	 0.2267592745	-1.1745016895	 0.2718157728	-0.076632
C	 0.4704592045	-2.5474398772	 0.6623170033	 0.289771
O	 0.3740779875	-2.9244931205	 1.8224173428	-0.380148
N	 0.8138904716	-3.3528381498	-0.3941258503	-0.346082
C	 1.0903985679	-4.7375497321	-0.4087730637	 0.436233
N	 1.2051685787	-5.3143606245	 0.8247482462	-0.550537
N	 1.2401951832	-5.2524985388	-1.5701779275	-0.571962
H	 0.6607335786	 1.8419107013	-0.7537654981	 0.163799
H	-1.0237102837	 1.4435207797	-1.1192146472	 0.163116
H	-0.5658722073	 1.9318697247	 0.5222707003	 0.165311
H	 0.8229379786	-2.9485230566	-1.318796697	 0.274659
H	 0.8620462899	-4.7816449034	 1.6156335751	 0.282997
H	 1.1650726107	-6.3182036071	 0.8626815604	 0.250867
H	 1.4577609225	-6.244899089	-1.5060392684	 0.206952
22.2405	67.4783	77.2671	103.9996	182.7887	260.9754	317.2312	380.0757	387.0996	396.3678	449.3027	546.3859	589.0669	603.0525	642.8483	725.7797	758.4289	794.4427	889.1143	938.9543	1047.6816	1052.3878	1102.3254	1138.8409	1144.2264	1247.5788	1410.4434	1445.5589	1470.2426	1472.9977	1491.7602	1618.0992	1734.4758	1741.9829	2356.9931	3034.4094	3098.4801	3103.1367	3506.854	3511.0765	3631.061	3699.6345
CC#CC(=O)NC(N)=N	CC#CC(=O)NC(=N)N	
InChI=1S/C5H7N3O/c1-2-3-4(9)8-5(6)7/h1H3,(H4,6,7,8,9)	InChI=1S/C5H7N3O/c1-2-3-4(9)8-5(6)7/h1H3,(H4,6,7,8,9)
