18
gdb 51532	6.81613	0.64611	0.63554	2.1835	77.16	-0.2576	-0.0294	0.2282	1716.793	0.145829	-439.076567	-439.067305	-439.066361	-439.112763	32.171	
N	 0.7150229551	 0.9092148599	-0.1440055076	-0.437593
C	 0.3049783044	-0.2734314186	 0.0055643734	 0.115663
O	-1.0112277332	-0.5502783394	-0.1033786814	-0.185909
C	-1.4455835653	-1.8636316013	 0.1906971126	 0.154554
C	-2.260403239	-2.0549124671	 1.4915660236	-0.27745
C	-3.2928930309	-2.9160155493	 0.6860314719	-0.097962
C	-2.6652241687	-2.3317510602	-0.6260375344	-0.277645
C	-3.0643642487	-4.3947411688	 0.8365025845	 0.173299
O	-3.9148420736	-5.2008871294	 1.1107577924	-0.250178
H	 1.7281655164	 0.9405751419	-0.0526432655	 0.23179
H	 0.9207254407	-1.1598415942	 0.2151273234	 0.08686
H	-0.6029321894	-2.5621721467	 0.1216512607	 0.08827
H	-1.7601207076	-2.5197077973	 2.3447866913	 0.114619
H	-2.707190505	-1.1099549766	 1.8070633966	 0.137284
H	-4.3475602072	-2.7023762644	 0.8596859819	 0.102288
H	-3.2395557403	-1.4735557819	-0.9801051536	 0.13923
H	-2.4881645363	-3.0146725258	-1.4601019061	 0.117373
H	-2.0064735414	-4.7168487706	 0.6708875363	 0.065506
24.5948	57.7354	76.3835	111.1899	219.8217	279.1533	304.2177	382.7127	390.6676	496.8431	551.9623	751.8794	808.5956	819.2953	878.7227	883.5996	915.3401	967.6516	971.4147	1040.8222	1047.1566	1054.9306	1100.756	1139.8894	1175.5369	1202.4429	1219.9538	1254.6199	1273.3695	1282.2153	1292.8047	1318.5144	1392.4607	1431.2113	1439.4083	1465.7558	1490.5554	1747.0441	1834.503	2826.689	3012.1498	3031.6781	3068.7762	3073.345	3114.6227	3131.8214	3135.7871	3520.8385
N=COC1CC(C1)C=O	[NH][CH]O[C@H]1C[C@@H](C1)C=O	
InChI=1S/C6H9NO2/c7-4-9-6-1-5(2-6)3-8/h3-7H,1-2H2	InChI=1S/C6H9NO2/c7-4-9-6-1-5(2-6)3-8/h3-7H,1-2H2/t5-,6-
