18
gdb 86831	2.84966	1.21503	1.00903	3.2994	77.99	-0.2429	0.0226	0.2655	1223.6987	0.147588	-401.967215	-401.958355	-401.957411	-402.000974	33.249	
C	-0.0480106327	 1.5926238943	 0.0106332858	-0.40379
C	 0.0983345352	 0.0742838986	-0.0213741123	-0.093028
C	 0.8538792695	-0.5148121362	-1.2225682536	-0.233906
C	 1.4924955603	-1.8231711621	-0.6697632072	-0.190041
N	 1.6885970089	-1.4750892271	 0.7338757215	-0.294105
C	 0.8687677555	-0.4705250248	 1.1903368002	 0.420439
O	 0.7786207305	-0.098518083	 2.338494203	-0.382144
C	 0.6439496462	-3.0060195212	-0.8517828005	 0.351227
C	-0.0453717635	-3.9798055356	-0.9981224367	-0.473799
H	 0.9241287863	 2.0832810289	-0.1076874648	 0.118906
H	-0.7065362991	 1.9457532458	-0.788405959	 0.113158
H	-0.4642822558	 1.9028168481	 0.9724819868	 0.143907
H	-0.8983361703	-0.3842227701	 0.0404113828	 0.112934
H	 0.2249149583	-0.7101368381	-2.091709785	 0.1214
H	 1.6591573055	 0.1626340772	-1.5247354094	 0.112488
H	 2.4591532277	-2.0096365706	-1.1512462116	 0.115896
H	 2.1156055133	-2.1124341983	 1.3888406684	 0.255007
H	-0.6552661556	-4.8403015658	-1.1243593483	 0.205451
70.9513	84.2572	183.5028	207.85	245.464	263.4268	360.4809	438.7228	476.8883	516.6495	579.0282	607.9211	638.0888	659.1717	699.8095	777.1332	785.105	817.8452	921.5358	945.6458	1001.1963	1064.4906	1073.6048	1124.4114	1137.6372	1203.1156	1242.9407	1258.8491	1310.6525	1320.5848	1369.5722	1379.1356	1407.4553	1419.6352	1489.0631	1495.519	1499.2333	1829.9976	2232.9253	3018.2503	3035.9859	3037.9657	3059.9226	3105.1961	3125.082	3129.4362	3501.4791	3630.6128
CC1CC(NC1=O)C#C	C[C@H]1C[C@@H](NC1=O)C#C	
InChI=1S/C7H9NO/c1-3-6-4-5(2)7(9)8-6/h1,5-6H,4H2,2H3,(H,8,9)	InChI=1S/C7H9NO/c1-3-6-4-5(2)7(9)8-6/h1,5-6H,4H2,2H3,(H,8,9)/t5-,6-/m0/s1
