21
gdb 81065	2.61875	1.43327	1.173	1.6776	82.86	-0.2603	0.0876	0.3479	1148.4705	0.182982	-387.017333	-387.009022	-387.008078	-387.05059	32.434	
C	-0.049755122	 1.6532632269	-0.0658386821	-0.45039
C	 0.0460249245	 0.1385938319	 0.0531866264	 0.019967
C	 1.1301329257	-0.6699428416	-0.7310416983	-0.062218
C	 2.1882886534	-0.1970454366	 0.3074819212	-0.276445
C	 0.9230801372	-0.5845893336	 1.1388698885	 0.36239
C	 0.83271855	-1.8526387461	 0.2303241312	-0.263491
C	 0.7826897208	-0.5621164268	 2.621821067	-0.086602
C	 0.253754421	 0.5882979873	 3.3683008268	-0.184721
O	-0.5511885303	-0.5697950318	 3.14786415	-0.23556
H	 0.9000214604	 2.1686752467	 0.0993177407	 0.11585
H	-0.4023359353	 1.9276377374	-1.0667276946	 0.117216
H	-0.7762660225	 2.0537709123	 0.6488634565	 0.123406
H	-0.9549858516	-0.2984405231	-0.0312847436	 0.07256
H	 1.2506662335	-0.7194713552	-1.8140796008	 0.068799
H	 3.0620160949	-0.842828338	 0.4338639966	 0.089744
H	 2.484448832	 0.8530218404	 0.2976598086	 0.09301
H	-0.1506607507	-2.3233142781	 0.149424211	 0.096799
H	 1.6275086883	-2.5934900642	 0.3539627583	 0.086513
H	 1.4658968044	-1.2287181868	 3.1533416651	 0.086532
H	 0.5707300352	 0.7498867568	 4.3981113835	 0.112668
H	-0.057001779	 1.483321672	 2.8337725781	 0.113972
47.2347	152.0643	167.0568	210.8479	287.1563	327.2006	396.0429	451.9097	547.4419	582.4512	638.2842	772.7037	800.8666	814.1962	851.6536	889.7797	909.0529	942.2315	967.1317	1000.8585	1004.8446	1019.1688	1060.034	1082.1208	1105.3497	1119.0209	1142.1031	1148.805	1154.1677	1158.9339	1169.3726	1173.8628	1219.9526	1235.7934	1245.3635	1277.2177	1319.8135	1405.6466	1423.2202	1446.7414	1491.7367	1493.837	1512.0063	1529.0322	1546.981	3033.0613	3044.5224	3049.0259	3059.621	3079.5768	3088.0664	3090.133	3103.3364	3110.8299	3116.8819	3126.5435	3176.8158
CC1C2CC1(C2)C1CO1	C[C@H]1[C@H]2C[C@@]1(C2)[C@H]1CO1	
InChI=1S/C8H12O/c1-5-6-2-8(5,3-6)7-4-9-7/h5-7H,2-4H2,1H3	InChI=1S/C8H12O/c1-5-6-2-8(5,3-6)7-4-9-7/h5-7H,2-4H2,1H3/t5-,6-,7+,8-/m0/s1
