21
gdb 89980	3.26503	1.14059	0.99875	2.1466	77.87	-0.2423	0.0652	0.3074	1251.0838	0.18165	-424.18911	-424.179866	-424.178922	-424.223369	34.579	
C	-0.1224124606	 1.5126732085	-0.087439027	-0.394682
C	-0.0112882968	-0.0105010494	-0.0797426964	-0.101634
C	 1.1685511726	-0.5670468433	-0.9234896334	 0.143595
O	 1.6201112116	 0.301217888	-1.9355645115	-0.430748
C	 2.0018155949	-0.7113678105	 0.3779028086	-0.353161
C	 0.6818643514	-0.6160526998	 1.1786214619	 0.311228
C	 0.5855952731	-0.0202836123	 2.594063344	-0.14072
O	 0.0176630585	-1.2356180773	 3.1246445912	-0.27529
C	 0.0919615427	-1.8812713249	 1.839525435	-0.131228
H	 0.8198639157	 1.9944672323	 0.191083126	 0.117953
H	-0.3864558742	 1.8701230802	-1.0860311658	 0.130564
H	-0.8950414208	 1.8485268689	 0.6113248603	 0.1127
H	-0.9864835428	-0.4491916335	-0.3159401616	 0.068705
H	 0.916162973	-1.5547984069	-1.3358899094	 0.067098
H	 2.3741735688	-0.107062583	-2.3722157384	 0.284207
H	 2.611629437	-1.6099131586	 0.5100363681	 0.09503
H	 2.6290509039	 0.1727763684	 0.5298542868	 0.107753
H	 1.548625993	 0.2230512513	 3.0634008651	 0.096367
H	-0.0919213261	 0.8347577787	 2.7127542361	 0.100708
H	-0.8981521268	-2.1901693928	 1.4768261251	 0.097108
H	 0.7533495219	-2.7586567641	 1.8584931152	 0.094449
61.2783	77.3168	191.9139	220.743	238.0953	238.9072	282.5918	322.1116	388.563	446.4795	469.3854	585.605	708.0634	805.9391	846.5574	863.8688	895.3048	927.2154	964.0546	988.669	1009.127	1036.2775	1043.1106	1074.6403	1102.3346	1150.9274	1160.8908	1165.3812	1186.753	1210.3103	1217.8534	1235.1997	1247.4349	1304.7692	1311.7077	1327.1198	1358.1613	1382.43	1406.6468	1429.0224	1480.3795	1493.6397	1496.0819	1509.2711	1533.5279	2986.7265	2989.2525	3004.2332	3032.1798	3039.7401	3044.2121	3045.827	3047.9311	3101.7041	3108.0365	3119.3944	3820.1135
CC1C(O)CC11COC1	C[C@H]1[C@@H](O)CC21COC2	
InChI=1S/C7H12O2/c1-5-6(8)2-7(5)3-9-4-7/h5-6,8H,2-4H2,1H3	InChI=1S/C7H12O2/c1-5-6(8)2-7(5)3-9-4-7/h5-6,8H,2-4H2,1H3/t5-,6-/m0/s1
