20
gdb 116625	2.94148	1.08482	0.80839	2.6569	87.69	-0.2293	-0.019	0.2102	1459.4003	0.17005	-403.184519	-403.174977	-403.174032	-403.220036	34.209	
C	-0.4605954213	 1.4298006382	-0.1301010009	-0.374244
C	 0.5570239783	 0.3257136018	 0.1414111023	-0.114327
N	 1.1426139303	-0.1488821775	-1.1076369768	-0.347964
C	 2.0083141277	-1.0678422054	-1.0571549073	 0.387068
O	 2.4524222036	-1.66871885	 0.0988794956	-0.262492
C	 3.4285342964	-2.6604422439	-0.2328018108	-0.13671
C	 3.5391156322	-2.6059116084	-1.7275930476	-0.212506
C	 2.7081565534	-1.6746747298	-2.2044643664	 0.239295
C	 2.4442272756	-1.2358495129	-3.6049679488	-0.490709
H	 0.0142140877	 2.2753739091	-0.6370295354	 0.11647
H	-1.264267733	 1.0629431339	-0.7758102066	 0.116469
H	-0.904121018	 1.7906084123	 0.8036296849	 0.101576
H	 1.3449997798	 0.6953835036	 0.8141676476	 0.101638
H	 0.0771613853	-0.507009776	 0.6766302329	 0.101637
H	 4.3706972295	-2.4202332252	 0.2788041578	 0.125456
H	 3.087834847	-3.6363474137	 0.1395490905	 0.125455
H	 4.2047865516	-3.2431767392	-2.2949240158	 0.113329
H	 3.0505758355	-1.7932523033	-4.3226797746	 0.118768
H	 1.3860873806	-1.3679178338	-3.8531732839	 0.145896
H	 2.653078268	-0.1668080698	-3.7155958168	 0.145895
25.3323	116.5702	123.5458	151.8603	191.6507	252.4264	266.9527	281.8572	349.2218	462.5568	524.4121	608.5688	732.8392	776.3165	787.115	809.6693	823.7663	920.5985	948.7369	1010.8016	1030.6019	1068.9805	1069.7876	1080.5734	1096.0214	1132.2969	1135.5581	1195.7702	1233.0401	1295.5351	1354.1908	1377.233	1381.2732	1411.3129	1415.5081	1471.0171	1474.4174	1484.002	1488.2927	1504.283	1505.1269	1711.7372	1769.0853	2987.4822	3007.4567	3014.3378	3034.0763	3037.0763	3042.4481	3098.7045	3108.7485	3112.2834	3127.5364	3222.8752
CCN=C1OCC=C1C	CCN=C1OCC=C1C	
InChI=1S/C7H11NO/c1-3-8-7-6(2)4-5-9-7/h4H,3,5H2,1-2H3	InChI=1S/C7H11NO/c1-3-8-7-6(2)4-5-9-7/h4H,3,5H2,1-2H3
