23
gdb 111285	2.66597	1.19135	0.97034	1.4356	85.48	-0.2286	0.0767	0.3052	1335.1729	0.20463	-388.266959	-388.25715	-388.256206	-388.30118	37.762	
C	 0.151350684	 0.8917222246	-1.5190185566	-0.3805
C	-0.1711156716	 0.5424143078	-0.0622247536	-0.185817
C	-1.4674064614	-0.255005346	 0.0718681771	 0.016174
C	-1.5076641395	-1.6947103808	-0.4663446109	-0.162179
C	-0.5920007211	-2.5908760398	 0.3461597271	-0.318684
C	-1.9111144522	-2.2114561343	 0.9224341136	 0.413266
O	-2.782135642	-3.2161738601	 1.3074643843	-0.463063
C	-1.917538161	-0.7889802161	 1.494298546	-0.090086
C	-1.1026854131	-0.492504347	 2.7485202844	-0.41157
H	 1.0767862517	 1.4709108764	-1.5958135553	 0.109578
H	 0.2730368656	-0.0137078557	-2.1230973946	 0.121717
H	-0.6518728819	 1.485175331	-1.970757776	 0.110346
H	 0.6669004649	-0.0171228318	 0.3691995203	 0.093898
H	-0.2542439422	 1.4652998022	 0.5265661323	 0.091859
H	-2.2804744862	 0.3345806003	-0.366855762	 0.064292
H	-1.8596773254	-1.9961551655	-1.4457166985	 0.083466
H	-0.5600306578	-3.6185734338	-0.0012465754	 0.117532
H	 0.3486163126	-2.2314727701	 0.7557383855	 0.103401
H	-3.6814081536	-2.8772366451	 1.233116485	 0.279918
H	-2.9559593764	-0.4772369724	 1.664720451	 0.059502
H	-0.057457222	-0.7970862163	 2.6417638431	 0.116189
H	-1.1156025797	 0.5755265876	 2.9914223092	 0.112069
H	-1.5163601719	-1.0331959752	 3.6066399541	 0.118694
82.1637	126.8417	159.1865	200.313	218.1651	232.3199	277.8547	310.4081	350.957	384.2768	456.8001	516.0383	551.3203	648.3973	686.7937	755.2879	802.4726	845.5488	889.2194	921.567	933.5006	964.713	1004.3605	1018.1524	1037.9634	1062.2395	1076.1469	1092.3649	1109.9154	1143.1661	1172.0696	1199.1777	1209.3697	1258.4968	1282.1277	1290.717	1323.056	1343.9928	1372.0977	1395.2202	1406.1929	1411.0269	1431.2175	1484.8388	1494.7878	1498.3478	1500.1946	1505.3428	1510.3797	3012.2667	3021.3721	3028.3835	3032.5841	3035.8565	3058.5086	3094.7132	3095.9769	3102.3506	3107.1519	3113.607	3179.7994	3203.4039	3788.9659
CCC1C2CC2(O)C1C	CC[C@H]1[C@H]2C[C@@]2(O)[C@H]1C	
InChI=1S/C8H14O/c1-3-6-5(2)8(9)4-7(6)8/h5-7,9H,3-4H2,1-2H3	InChI=1S/C8H14O/c1-3-6-5(2)8(9)4-7(6)8/h5-7,9H,3-4H2,1-2H3/t5-,6+,7+,8+/m0/s1
