17
gdb 84248	2.56634	1.95005	1.38545	1.2189	75.24	-0.2153	-0.0316	0.1837	943.7707	0.135193	-421.711642	-421.704107	-421.703163	-421.743086	30.66	
O	-0.0117052339	 1.4223056252	 0.1816700183	-0.438773
C	 0.0705461742	 0.0123948729	 0.0240100996	 0.009482
C	 0.5937107869	-0.6529142775	 1.3033134879	-0.151071
C	-0.2328165524	-1.6611235476	 1.6405169571	 0.050387
C	-1.3536686575	-1.3601116498	 2.6404289046	-0.267646
C	-2.1357878894	-1.0804997976	 1.3062866524	-0.115624
C	-1.2279830119	-1.9827435191	 0.5119385661	-0.17538
C	-1.3350411969	-0.5985480183	-0.0008356997	 0.413872
O	-2.1421548722	-0.3293254825	-1.0956910037	-0.486054
H	 0.8299740014	 1.8084762043	-0.0792662712	 0.290173
H	 0.5755075938	-0.2330617292	-0.9232433024	 0.075649
H	 1.0797597388	-0.0203526729	 2.041493176	 0.096055
H	-1.8103926166	-2.217151469	 3.1497976857	 0.105649
H	-1.1762174304	-0.5459475686	 3.3485518081	 0.105033
H	-3.2193536964	-1.0402317338	 1.2258201969	 0.095717
H	-1.4162841879	-2.9174335259	 0.000858207	 0.099077
H	-2.2832531895	 0.6245386494	-1.1094839528	 0.293454
129.9383	217.4863	284.517	296.943	358.4623	392.3841	399.9039	464.775	562.5311	586.0979	608.3278	675.4253	765.6046	812.315	833.9325	859.4611	903.5324	919.3366	974.919	993.9642	1009.9476	1048.6878	1058.4526	1084.998	1090.6971	1137.2293	1192.6256	1201.4557	1219.2756	1237.1409	1274.8905	1280.8388	1306.1154	1417.4133	1428.9969	1498.2949	1598.707	2970.6397	3025.196	3094.9819	3142.4041	3161.5204	3202.5537	3795.4005	3824.372
OC1C=C2CC3C2C13O	O[C@H]1[CH][C]2C[C@@H]3[C@H]2[C@]13O	
InChI=1S/C7H8O2/c8-5-2-3-1-4-6(3)7(4,5)9/h2,4-6,8-9H,1H2	InChI=1S/C7H8O2/c8-5-2-3-1-4-6(3)7(4,5)9/h2,4-6,8-9H,1H2/t4-,5+,6+,7-/m1/s1
