12
gdb 132258	3.51029	1.26029	0.92735	1.342	74.58	-0.2601	-0.0742	0.1859	1128.8437	0.077504	-439.648072	-439.64111	-439.640166	-439.67971	26.12	
F	 0.0027711253	 0.0479301739	 0.0029906968	-0.058127
C	-0.014504942	 1.3730142422	 0.0106212714	 0.291212
N	-1.1876899389	 1.9512029637	 0.0296639255	-0.345599
C	-1.1809523921	 3.2985289046	 0.0371157437	 0.151697
C	 0.0272683687	 4.009864482	 0.0248080622	-0.060159
N	 1.209045681	 3.3936888604	 0.0054420537	-0.217578
C	 1.1996761412	 2.0647224869	-0.001861718	-0.119424
C	-2.4291349182	 3.9867753695	 0.057760896	 0.23724
C	-3.4634101203	 4.6010078227	 0.0751140283	-0.358174
H	 0.0253003571	 5.0946732351	 0.0308907374	 0.131584
H	 2.1465823899	 1.534746206	-0.0175764285	 0.139097
H	-4.3840743215	 5.131106733	 0.0904701213	 0.20823
135.5613	143.8606	214.8151	372.2058	403.5041	491.5456	501.9642	546.3555	596.828	636.2632	668.573	681.8585	711.9488	774.8221	908.7097	958.3399	1012.1433	1020.6787	1186.3291	1242.1813	1269.352	1331.4235	1443.9902	1463.3336	1588.5204	1604.8542	2234.2276	3184.9362	3191.9321	3499.2729
FC1=NC(=CN=C1)C#C	Fc1nc(cnc1)C#C	
InChI=1S/C6H3FN2/c1-2-5-3-8-4-6(7)9-5/h1,3-4H	InChI=1S/C6H3FN2/c1-2-5-3-8-4-6(7)9-5/h1,3-4H
