19
gdb 102987	2.0183	1.37779	1.14074	4.231	77.34	-0.2468	0.0189	0.2657	1200.0347	0.157048	-419.181447	-419.171236	-419.170291	-419.216521	36.436	
C	 1.1034481755	 1.2467994966	-1.0672558164	-0.427612
C	 0.6449142927	-0.0695782616	-0.4755813298	-0.034778
N	 1.4531635519	-0.9110161003	 0.3935921489	-0.11622
C	 2.7987428587	-0.5324921489	 0.8097559246	-0.321487
C	 0.2903355583	-0.2371449323	 0.9857635703	 0.098531
C	 0.4176629728	 0.8953171453	 2.0011590564	-0.135334
O	 0.7782767744	 0.4185318583	 3.2828678567	-0.416486
C	-0.7908959283	-1.1413281173	 1.3426223063	 0.262094
N	-1.6699171466	-1.8181690744	 1.6705218372	-0.34685
H	 1.6751533191	 1.8690314343	-0.3779036444	 0.129305
H	 1.7311761015	 1.0567104682	-1.9442110618	 0.13784
H	 0.2360376269	 1.8241327933	-1.4020872351	 0.138486
H	 0.043408394	-0.6551140387	-1.1702816061	 0.111937
H	 2.9966047762	 0.545998122	 0.8594389588	 0.106982
H	 2.9840578996	-0.9555269973	 1.7995860162	 0.151116
H	 3.5070384093	-0.9743200166	 0.1028402483	 0.13209
H	 1.204947108	 1.5893834336	 1.707110449	 0.115955
H	-0.5282968845	 1.4563080108	 2.024482553	 0.113499
H	 0.0708563707	-0.1550350051	 3.6002381779	 0.300933
76.6167	117.7184	136.883	144.7635	162.4386	198.6769	242.1179	288.9817	322.2644	373.8933	420.1041	437.677	539.3325	560.6513	581.2341	709.8597	780.4056	809.9641	944.005	982.214	1052.3118	1064.7462	1086.221	1123.4212	1139.5445	1158.1959	1181.8219	1215.5062	1257.4825	1360.1852	1377.4069	1404.109	1416.2558	1428.0383	1454.1187	1481.6452	1485.4174	1500.617	1503.101	1512.7418	2345.4514	2999.7632	3012.9598	3047.0123	3085.772	3104.7627	3106.8805	3128.3644	3129.189	3147.9098	3795.5167
CC1N(C)C1(CO)C#N	C[C@H]1N(C)[C@]1(CO)C#N	
InChI=1S/C6H10N2O/c1-5-6(3-7,4-9)8(5)2/h5,9H,4H2,1-2H3	InChI=1S/C6H10N2O/c1-5-6(3-7,4-9)8(5)2/h5,9H,4H2,1-2H3/t5-,6+,8?/m1/s1
