21
gdb 107509	1.95802	1.60904	1.08268	0.8448	88.44	-0.2495	0.0496	0.2991	1219.3984	0.181344	-349.900809	-349.891516	-349.890572	-349.934821	35.645	
C	 0.1718793901	 1.5244331169	-0.1679077838	-0.372508
C	-0.1155149579	 0.0358359015	 0.0753285713	-0.302106
C	 0.641976189	-0.5252127366	 1.2471463649	 0.396576
C	 2.0669980527	-0.998523901	 1.1695308442	-0.333785
C	 1.0036264295	-1.9654614334	 1.6191721665	-0.121628
C	 0.6651604988	-1.715874808	 3.0896554591	-0.242395
C	 0.2763908503	-0.2313324686	 2.7269693377	-0.242908
C	 0.9638459259	 0.8514440549	 3.4069279339	 0.341693
C	 1.5540850742	 1.7367442149	 3.9691781081	-0.481018
H	 1.2322567822	 1.6866655217	-0.3857526402	 0.119999
H	-0.4117007181	 1.9058172959	-1.011584034	 0.107964
H	-0.0771188385	 2.1237732092	 0.713498728	 0.127799
H	-1.1931969094	-0.1078568619	 0.2342296243	 0.093334
H	 0.1399448296	-0.541264893	-0.8226348286	 0.096156
H	 2.4386583341	-1.1528346498	 0.1609432495	 0.108218
H	 2.8149652335	-0.6348902391	 1.8702095079	 0.115268
H	 0.7912569131	-2.8771223295	 1.0730996523	 0.085208
H	-0.1966420269	-2.2802824564	 3.45112959	 0.106325
H	 1.4888246479	-1.8297123241	 3.8000921713	 0.105839
H	-0.8061803831	-0.0991448955	 2.8252684171	 0.099038
H	 2.0675908631	 2.5228399219	 4.4647378205	 0.192931
77.9183	90.516	137.0962	204.9547	210.704	278.1437	334.1871	377.7468	420.9556	500.6508	533.3834	618.1016	622.4708	660.0995	717.5459	781.468	810.1856	850.9567	873.0852	945.8389	974.1846	988.8428	1000.7053	1025.4003	1052.0949	1053.468	1084.1637	1095.8708	1115.626	1161.8047	1198.1148	1226.4394	1255.2784	1277.9722	1315.6421	1336.1893	1357.7663	1406.9023	1416.111	1478.5012	1484.9783	1497.6813	1503.6568	1506.7382	2227.1117	3008.5502	3036.6491	3044.0086	3047.6183	3058.1846	3107.0743	3108.4972	3109.4442	3115.8596	3177.0122	3196.9345	3503.9429
CCC12CC1CC2C#C	CC[C@]12C[C@H]1C[C@H]2C#C	
InChI=1S/C9H12/c1-3-7-5-8-6-9(7,8)4-2/h1,7-8H,4-6H2,2H3	InChI=1S/C9H12/c1-3-7-5-8-6-9(7,8)4-2/h1,7-8H,4-6H2,2H3/t7-,8-,9-/m1/s1
