22
gdb 87972	3.73285	0.97936	0.88594	0.721	82.41	-0.2364	0.0722	0.3086	1396.7148	0.194711	-404.340852	-404.331568	-404.330624	-404.375191	35.599	
C	 0.1297994501	 1.4804959448	-0.3410137109	-0.396555
C	 0.0718245313	 0.0043304869	-0.0297085708	-0.059954
N	 1.3607534667	-0.7049345553	 0.0906822821	-0.381193
C	 0.4830343697	-0.5781571775	 1.2732103926	 0.342547
C	 1.0413893795	 0.2339249608	 2.4576275894	-0.277493
C	 0.6888151902	-0.5920019072	 3.7151007534	-0.248422
C	 0.486204895	-2.0269631822	 3.1936582017	 0.131259
O	-0.3083153373	-2.8554435216	 4.023471159	-0.438362
C	-0.2182825206	-1.8030435013	 1.8533410557	-0.291146
H	 0.9700657639	 1.9547369503	 0.1717636289	 0.126454
H	 0.259564022	 1.6435766815	-1.4163664327	 0.11825
H	-0.7941914259	 1.9834587709	-0.0339828336	 0.112368
H	-0.7296865206	-0.5286911971	-0.5430955438	 0.074887
H	 1.2849717427	-1.6396145485	-0.3047441624	 0.221106
H	 2.122256217	 0.3421964627	 2.3332546424	 0.115574
H	 0.6210435722	 1.242545368	 2.5071379241	 0.103028
H	 1.4495370919	-0.5233376909	 4.4989965682	 0.088712
H	-0.2626777653	-0.2613369331	 4.1477759537	 0.104969
H	 1.4693557067	-2.4924285509	 3.0123453401	 0.067958
H	 0.1583887597	-2.9807797527	 4.8555518544	 0.281071
H	-1.2745243192	-1.5900428061	 2.0635790382	 0.110818
H	-0.1829447998	-2.6732155015	 1.19096623	 0.094124
38.9948	127.6775	172.4146	186.1061	247.4695	271.8904	305.0005	405.682	417.4333	464.7044	476.5748	527.4778	562.1443	745.1499	759.8209	830.9834	874.5719	886.1885	932.9782	965.5257	995.2419	1005.0949	1037.283	1045.0916	1066.3242	1074.0595	1111.7228	1127.1547	1179.2902	1207.9217	1215.9717	1239.3048	1259.5042	1279.3193	1301.6498	1305.5922	1310.3956	1362.5557	1374.9475	1407.5863	1433.6324	1464.5663	1482.5644	1489.1273	1489.7149	1500.9364	1508.7233	2960.9773	3027.1606	3032.319	3038.0178	3057.3274	3080.0877	3084.612	3090.0664	3092.5473	3102.4352	3124.827	3483.7429	3820.1814
CC1NC11CCC(O)C1	C[C@H]1N[C@]21CC[C@@H](O)C2	
InChI=1S/C7H13NO/c1-5-7(8-5)3-2-6(9)4-7/h5-6,8-9H,2-4H2,1H3	InChI=1S/C7H13NO/c1-5-7(8-5)3-2-6(9)4-7/h5-6,8-9H,2-4H2,1H3/t5-,6-,7-/m1/s1
