27
gdb 101834	4.1021	0.58249	0.53922	0.0834	97.24	-0.2681	0.0859	0.354	2193.7324	0.250932	-353.557383	-353.546086	-353.545142	-353.594896	41.473	
C	 0.1535624052	 1.5135247748	-0.1786697342	-0.391334
C	 0.1760932608	-0.0074517897	 0.0052189843	-0.16546
C	 0.6704602825	-0.492345676	 1.3824825128	 0.04463
C	-0.264994807	-0.042377296	 2.5146752882	-0.389865
C	 0.8618850108	-2.02113911	 1.3653058599	-0.169811
C	 1.5648142043	-2.6103307492	 2.5967768085	-0.221797
C	 1.8151093858	-4.0996540761	 2.4739521936	 0.041103
C	 3.0364141416	-4.6149000382	 1.7539077525	-0.25434
C	 2.9213410576	-4.7628286921	 3.2526421361	-0.278314
H	 1.142412612	 1.9483104536	 0.0075544257	 0.111428
H	-0.136273927	 1.778350505	-1.2005661496	 0.110295
H	-0.5551682276	 2.0017390068	 0.4970824563	 0.117116
H	-0.8289827471	-0.4138420282	-0.1760505381	 0.089859
H	 0.8209799802	-0.4452016357	-0.7675673218	 0.089386
H	 1.6576234493	-0.0363960039	 1.5573080891	 0.063737
H	 0.109391918	-0.3454624762	 3.4964887607	 0.113992
H	-0.3798319828	 1.0450312546	 2.5357902684	 0.112218
H	-1.2632820329	-0.4801871249	 2.3893074454	 0.10844
H	-0.1190311774	-2.5035481006	 1.2428907502	 0.086397
H	 1.4439002167	-2.2935516048	 0.4752812382	 0.091338
H	 2.5248025875	-2.0967432973	 2.7477018487	 0.086701
H	 0.9722075769	-2.4201900414	 3.5002566655	 0.09708
H	 0.9118459179	-4.6922192752	 2.3446999583	 0.077706
H	 2.9451989515	-5.503681342	 1.139180737	 0.107746
H	 3.7434616964	-3.884717806	 1.3722989133	 0.106699
H	 3.5515401925	-4.1326279122	 3.8722925761	 0.107372
H	 2.7488404341	-5.7524389192	 3.661590315	 0.107676
45.9728	55.7412	89.6153	106.5357	123.9519	209.5312	233.5726	255.4143	272.4742	328.9137	378.906	410.8716	447.3588	503.7392	753.1109	769.9281	776.9938	820.2306	828.2274	842.4391	900.6191	920.4794	950.22	973.2369	982.1879	1030.9791	1031.5891	1052.3822	1065.4642	1076.5378	1081.6656	1139.1159	1153.1383	1175.3832	1198.6487	1203.5545	1227.9351	1247.0784	1276.3517	1299.964	1322.5615	1331.8409	1378.1611	1381.4815	1388.4196	1410.6839	1413.9838	1418.8108	1468.8703	1475.7161	1486.0549	1494.5929	1497.8524	1499.3024	1508.0816	1509.1585	1513.6301	2980.0035	2998.6683	3008.2297	3012.6175	3028.6101	3031.5433	3033.0613	3043.5325	3058.413	3095.5083	3096.4454	3104.1436	3112.7419	3125.4044	3126.2233	3131.5246	3202.594	3217.9711
CCC(C)CCC1CC1	CC[C@@H](C)CCC1CC1	
InChI=1S/C9H18/c1-3-8(2)4-5-9-6-7-9/h8-9H,3-7H2,1-2H3	InChI=1S/C9H18/c1-3-8(2)4-5-9-6-7-9/h8-9H,3-7H2,1-2H3/t8-/m1/s1
