15
gdb 9221	7.56052	0.84267	0.80344	3.1613	60.21	-0.2525	-0.0327	0.2199	1370.9225	0.116484	-436.981195	-436.972025	-436.971081	-437.016707	29.84	
C	 0.3166634274	 1.3152757088	 0.1777386238	-0.234212
O	-0.0774712997	-0.0289030853	-0.1153041386	-0.265921
C	 0.5523242132	-0.583351363	-1.176821636	 0.530415
O	 1.3840618767	-0.0264561491	-1.8574632371	-0.409855
N	 0.1099510204	-1.863164944	-1.3581291334	-0.376228
C	 0.5603920031	-2.6755306012	-2.4615565939	-0.242937
C	 1.3777302099	-3.8781262135	-2.008003806	 0.153382
O	 1.3952358927	-4.9342418887	-2.5808602427	-0.229262
H	 1.3829614364	 1.3649425197	 0.4122100003	 0.141857
H	 0.1115026647	 1.9737303946	-0.6699319017	 0.14234
H	-0.2763756097	 1.6132561027	 1.0426483371	 0.133241
H	-0.6256565414	-2.1902672983	-0.7538209132	 0.260812
H	-0.2652885557	-3.021973952	-3.0922510793	 0.134489
H	 1.2131427773	-2.0392324277	-3.0721222897	 0.176516
H	 1.9757221947	-3.691003343	-1.0864752295	 0.085364
40.1781	62.519	92.9155	98.8206	156.613	220.5672	325.137	340.8983	410.9293	465.9959	576.5347	690.3541	769.3776	784.4548	936.8839	1040.0253	1050.1266	1113.6639	1180.4652	1183.0755	1217.4329	1248.1518	1272.7282	1341.6971	1410.1467	1444.9846	1468.7285	1481.3733	1500.366	1547.3554	1817.632	1842.4532	2876.4937	3039.804	3052.1904	3092.1829	3127.1185	3157.2253	3652.7887
COC(=O)NCC=O	COC(=O)NCC=O	
InChI=1S/C4H7NO3/c1-8-4(7)5-2-3-6/h3H,2H2,1H3,(H,5,7)	InChI=1S/C4H7NO3/c1-8-4(7)5-2-3-6/h3H,2H2,1H3,(H,5,7)
