18
gdb 65368	3.2655	0.95599	0.9353	3.8027	78.63	-0.2688	0.0158	0.2846	1340.4398	0.146648	-401.927816	-401.918885	-401.917941	-401.96178	33.409	
O	-0.0180024729	 1.3754020299	-0.0530833588	-0.442052
C	-0.0036542544	-0.0194340189	-0.0051499211	 0.233092
C	-0.4723966953	-0.7151789959	 1.2646819538	-0.355871
C	-1.3623700107	-0.6970872841	 0.0476524002	-0.052702
C	-2.6063281919	 0.1284924723	-0.0034746061	 0.023221
C	-3.486281701	 0.0884717394	-1.2281627023	-0.266924
C	-3.9535886532	-0.5524201706	 0.0539162586	-0.278105
C	 1.0491185216	-0.6413870587	-0.7796976716	 0.244088
N	 1.903113583	-1.1299490982	-1.3885895671	-0.345324
H	 0.7525049234	 1.7026316593	 0.425402694	 0.297966
H	 0.0098896072	-1.6405340054	 1.5573280905	 0.136257
H	-0.7283513548	-0.0443944341	 2.0781368006	 0.129272
H	-1.4177582511	-1.6312857005	-0.5043211102	 0.111516
H	-2.5243626032	 1.0871441585	 0.4957058765	 0.098378
H	-3.9552234428	 1.0116282836	-1.5488932937	 0.118921
H	-3.1910533235	-0.564679055	-2.0427002298	 0.117906
H	-3.973040757	-1.6362261955	 0.1015527594	 0.114222
H	-4.7446513033	-0.070664496	 0.617597087	 0.11614
67.5192	102.7142	128.8944	202.6946	263.4804	301.0167	334.46	362.893	438.8972	465.2311	580.825	611.9218	703.4101	752.6174	802.8634	833.8217	886.8991	905.0611	921.2794	945.6491	992.5873	1045.118	1062.0778	1066.5533	1080.689	1101.0934	1134.676	1197.6897	1209.481	1233.0417	1248.4187	1259.4257	1319.0836	1363.0923	1445.6555	1471.0122	1479.3542	1507.8782	2344.6022	3132.1311	3136.3709	3136.9763	3149.8441	3177.0919	3211.1149	3226.7681	3232.1464	3794.7695
OC1(CC1C1CC1)C#N	O[C@]1(C[C@H]1C1CC1)C#N	
InChI=1S/C7H9NO/c8-4-7(9)3-6(7)5-1-2-5/h5-6,9H,1-3H2	InChI=1S/C7H9NO/c8-4-7(9)3-6(7)5-1-2-5/h5-6,9H,1-3H2/t6-,7+/m0/s1
