22
gdb 120915	3.29498	0.88792	0.80775	2.1156	82.69	-0.2277	0.0788	0.3065	1500.47	0.193726	-404.287361	-404.277823	-404.276879	-404.322069	35.64	
C	-0.598379995	 1.1257804463	-0.0762802071	-0.312702
N	-0.1158591374	-0.1989805412	 0.2785887633	-0.066823
C	 1.1637222449	-0.7265462714	-0.118454285	-0.044063
C	 2.3061447861	 0.3069639537	-0.0220770129	-0.283992
C	 2.0081266096	 0.4531095109	 1.5110430706	 0.018375
C	 1.8309698331	 1.8156224551	 2.1769911187	-0.207379
C	 3.145987554	 2.5761686692	 2.3055059062	-0.070634
O	 2.8741858777	 3.8194620827	 2.9349629743	-0.421076
C	 0.8112794449	-0.5119298029	 1.3394286738	-0.084626
H	 0.178401588	 1.8861059338	-0.228037153	 0.108008
H	-1.1713004142	 1.0444580684	-1.0061781452	 0.119275
H	-1.2754965358	 1.4801298105	 0.7068497876	 0.124602
H	 1.1945641922	-1.6444198879	-0.6965933753	 0.089907
H	 3.2890137165	-0.1232768769	-0.2245684265	 0.103263
H	 2.1915148771	 1.20461744	-0.6379242828	 0.099635
H	 2.7866137481	-0.0970063734	 2.0548085756	 0.075607
H	 1.1240320835	 2.4448774508	 1.629265665	 0.108461
H	 1.4113376072	 1.6794568851	 3.181824514	 0.104961
H	 3.863121547	 1.9791209543	 2.8934587996	 0.081667
H	 3.5902972419	 2.7240047718	 1.3073289403	 0.086513
H	 3.7001652176	 4.305966602	 3.009771354	 0.284513
H	 0.492408933	-1.2309145808	 2.0884833446	 0.086509
76.2491	88.1065	109.9797	181.7649	246.4541	259.5097	272.0243	315.2283	350.826	404.3062	476.3939	611.6531	708.7127	752.0596	792.246	816.387	866.7788	890.2341	934.1065	973.0892	995.7816	1032.684	1041.0439	1057.903	1082.6093	1111.1281	1114.139	1153.5883	1179.1669	1187.5922	1212.4187	1234.0065	1240.9864	1258.448	1270.2066	1291.6369	1315.5789	1327.0255	1387.369	1402.911	1453.2216	1461.3236	1478.9515	1488.6286	1502.6518	1511.828	1527.3277	2955.7407	2981.0681	3012.6392	3020.1033	3037.3505	3052.4612	3072.7649	3101.6525	3103.3667	3110.6864	3148.1629	3164.0136	3829.7087
CN1C2CC(CCO)C12	CN1[C@H]2C[C@@H](CCO)[C@@H]12	
InChI=1S/C7H13NO/c1-8-6-4-5(2-3-9)7(6)8/h5-7,9H,2-4H2,1H3	InChI=1S/C7H13NO/c1-8-6-4-5(2-3-9)7(6)8/h5-7,9H,2-4H2,1H3/t5-,6+,7-,8?/m1/s1
