21
gdb 116887	4.80363	0.47875	0.45522	1.3177	85.12	-0.2454	0.0587	0.3041	2394.099	0.179554	-424.192802	-424.181207	-424.180263	-424.231602	39.578	
C	-0.3671881384	 1.3504204419	 0.1629548748	-0.381857
C	 0.0776370589	-0.1052201821	-0.0770738599	-0.137493
C	 0.8554768005	-0.2465297999	-1.3962281597	-0.067942
O	-0.0140934737	 0.1322895875	-2.4516693202	-0.42015
C	 0.8748211919	-0.6226370016	 1.0339052158	 0.072964
C	 1.5541259528	-1.0276284003	 1.9430381031	 0.0304
C	 2.3465609604	-1.5466016137	 3.0509047757	-0.324897
C	 1.7725661265	-2.8458293451	 3.6266768242	-0.062423
O	 2.6281352484	-3.2437053729	 4.6847804949	-0.41561
H	 0.5040753554	 2.000059664	 0.294574837	 0.117151
H	-0.942769261	 1.7065828526	-0.6938038378	 0.133133
H	-0.9823615326	 1.4236469304	 1.0633116412	 0.118053
H	-0.8237462024	-0.7249801026	-0.1825308094	 0.109788
H	 1.7503755674	 0.3938678781	-1.3577226796	 0.093344
H	 1.193356639	-1.2871518482	-1.5073867535	 0.094506
H	 0.4818907592	 0.1091274404	-3.2746665261	 0.289021
H	 3.377970687	-1.7381321848	 2.730072733	 0.134159
H	 2.4077837109	-0.8083295893	 3.8599276372	 0.135309
H	 0.7453896639	-2.6666886769	 3.9776967211	 0.097574
H	 1.7240143213	-3.60642179	 2.8331217261	 0.096449
H	 2.2801012443	-4.0548459475	 5.065734382	 0.288523
19.4506	65.8375	69.4155	121.3218	123.4907	183.8189	218.9234	235.2739	240.6678	294.4178	319.3132	329.7849	419.1882	504.8454	520.8834	537.845	777.7875	794.8345	880.0277	930.6001	997.081	1020.1576	1077.5565	1079.9469	1087.2019	1103.831	1137.6922	1189.1223	1221.4865	1235.6801	1239.8405	1262.1038	1304.2737	1325.0679	1335.7023	1349.8228	1397.0308	1450.659	1454.6137	1478.8325	1493.0144	1500.4968	1520.1879	1527.7076	2365.8941	2978.6308	2983.3826	3005.9029	3013.8549	3023.2029	3028.8565	3045.4561	3065.6651	3115.9029	3138.6692	3835.2521	3837.5288
CC(CO)C#CCCO	C[C@@H](CO)C#CCCO	
InChI=1S/C7H12O2/c1-7(6-9)4-2-3-5-8/h7-9H,3,5-6H2,1H3	InChI=1S/C7H12O2/c1-7(6-9)4-2-3-5-8/h7-9H,3,5-6H2,1H3/t7-/m1/s1
