21
gdb 36945	4.10524	0.9191	0.82519	1.3215	78.92	-0.2387	0.0754	0.314	1447.6353	0.182956	-424.201077	-424.192262	-424.191318	-424.236607	32.594	
C	-0.4446264771	 1.1881011026	-0.0055846341	-0.291967
C	 0.9963352202	 1.0645529448	 0.4532828374	-0.292287
C	 0.2403238563	-0.1572124831	 0.0501196636	 0.144804
O	-0.0549217325	-1.0715096201	 1.0605236731	-0.261197
C	-1.0751373971	-2.0050722178	 0.7264399739	 0.105631
C	-1.0008949368	-3.2046464466	 1.6942241935	-0.245061
C	-2.2232945312	-3.0022425892	 2.5982340341	-0.081067
O	-3.1978934166	-2.4109225289	 1.749980056	-0.246359
C	-2.5113165698	-1.4519575798	 0.9619643168	-0.090311
H	-1.1825678646	 1.4074258044	 0.7567373072	 0.121703
H	-0.6504661958	 1.6246725581	-0.9770805689	 0.112597
H	 1.7899495077	 1.4221766412	-0.1927284633	 0.114767
H	 1.1845288906	 1.1834562384	 1.5142240121	 0.126099
H	 0.496485999	-0.6249982233	-0.9019602424	 0.084296
H	-0.9377735316	-2.3234236009	-0.3149163695	 0.072217
H	-1.0927372032	-4.143415016	 1.1419855394	 0.107967
H	-0.0488797151	-3.2044207011	 2.2279659209	 0.11723
H	-2.6432275174	-3.9276045831	 2.9996255015	 0.107644
H	-1.9808836956	-2.3333484969	 3.4403122114	 0.093623
H	-2.4246188038	-0.4937226858	 1.495552642	 0.094417
H	-3.0867360357	-1.297235997	 0.0456907952	 0.105257
26.7344	40.4707	94.3325	184.6832	259.4162	326.2742	356.9951	435.5256	491.9697	630.7862	678.0773	752.6248	811.3506	818.5851	850.8862	874.7	931.4469	955.5542	967.9756	977.7798	1020.6429	1041.0623	1058.1159	1070.8832	1074.6147	1117.5689	1130.0066	1148.1361	1191.9975	1202.8062	1219.044	1232.9284	1247.0523	1270.5917	1301.5063	1323.5298	1346.2288	1370.3752	1396.7885	1427.2295	1453.5431	1477.0509	1497.4312	1501.5162	1519.8756	2972.8002	2998.1939	3013.8933	3070.342	3085.6181	3094.2463	3100.2547	3129.731	3137.1085	3142.0394	3221.8906	3235.6714
C1CC1OC1CCOC1	C1CC1O[C@H]1CCOC1	
InChI=1S/C7H12O2/c1-2-6(1)9-7-3-4-8-5-7/h6-7H,1-5H2	InChI=1S/C7H12O2/c1-2-6(1)9-7-3-4-8-5-7/h6-7H,1-5H2/t7-/m0/s1
