14
gdb 130273	2.08615	1.88587	0.99201	2.6526	74.37	-0.2072	0.0089	0.216	1107.2472	0.100727	-432.839973	-432.831474	-432.83053	-432.872637	32.383	
N	 0.0420354628	 1.339309632	 0.1741968714	-0.599988
C	 0.029741058	-0.0287876318	 0.0416655125	 0.347758
N	-1.0911223723	-0.7127562507	 0.0168920864	-0.250087
O	-0.6729693626	-2.0815304305	-0.0504518553	-0.221548
C	 0.6541346627	-2.1291317454	-0.07599071	 0.41234
N	 1.2370855681	-3.3530196323	-0.2001103009	-0.60447
C	 1.1976289166	-0.8636799933	-0.0199510741	-0.062939
C	 2.5513337377	-0.4898650398	-0.0174636852	 0.122063
C	 3.7124548727	-0.1602720544	-0.0187778082	-0.397643
H	 0.849821814	 1.7914984397	-0.2278340352	 0.261901
H	-0.8307545352	 1.7886949014	-0.062342711	 0.262275
H	 0.6794630484	-4.1376985282	 0.1018276017	 0.27232
H	 2.2086929484	-3.3956627544	 0.0674495664	 0.274971
H	 4.7336259608	 0.1292760978	-0.0154428485	 0.183048
111.4359	141.1923	204.978	272.4669	329.2637	351.2094	380.884	404.0397	446.2612	501.6727	519.6179	553.6868	586.8088	591.0766	669.6657	683.1256	690.3058	773.9302	802.3647	903.6952	1059.6466	1123.4508	1137.2207	1284.5526	1407.2611	1510.9772	1578.2848	1625.4157	1649.2366	1680.9088	2219.314	3502.4272	3569.5072	3580.307	3676.028	3691.8077
NC1=NOC(N)=C1C#C	Nc1noc(N)c1C#C	
InChI=1S/C5H5N3O/c1-2-3-4(6)8-9-5(3)7/h1H,7H2,(H2,6,8)	InChI=1S/C5H5N3O/c1-2-3-4(6)8-9-5(3)7/h1H,7H2,(H2,6,8)
