15
gdb 79621	2.48835	1.82982	1.48246	3.6453	64.56	-0.2466	-0.0473	0.1993	912.1887	0.113305	-457.736825	-457.730039	-457.729095	-457.767982	27.192	
O	 0.2721126073	 1.3456886738	 0.1572732536	-0.413129
C	 0.0081950273	 0.002233355	 0.025950643	 0.136971
C	-1.3457278593	-0.6535145267	 0.0481853968	-0.16132
C	-2.5616043563	 0.1934073125	-0.2887288198	 0.041488
O	-2.2612148676	 1.5566273222	-0.6590722604	-0.267124
C	-2.5309517877	 0.596197815	-1.7034806987	-0.101688
C	-1.2731145456	-0.0177989185	-2.3169217479	 0.424315
O	-1.040053988	-0.0507372585	-3.4987083773	-0.315013
C	-0.4958332821	-0.7160848253	-1.2352511002	-0.249339
H	-0.5131882993	 1.8250524917	-0.1468299903	 0.304991
H	 0.7892509449	-0.5710995147	 0.5174924923	 0.124044
H	-1.5172233757	-1.5289019643	 0.6643451727	 0.104556
H	-3.4838045694	 0.0695811655	 0.2691256688	 0.124247
H	-3.3892774994	 0.8137449241	-2.3304012547	 0.127876
H	 0.047468891	-1.5987375817	-1.5508032979	 0.119125
114.1104	198.4692	287.1835	383.9402	424.7525	475.37	580.6429	603.826	622.7627	694.1068	724.853	764.1314	791.9006	820.8711	856.255	871.7019	936.2458	994.833	1009.2793	1032.5155	1059.6349	1108.3826	1116.24	1187.9241	1223.5573	1246.8369	1290.5591	1327.0985	1337.1155	1351.011	1412.2395	1482.2861	1829.4911	3152.5678	3169.2123	3177.6562	3185.5962	3190.3766	3699.5911
OC1C2C3OC3C(=O)C12	O[C@H]1[C@H]2[C@H]3O[C@H]3C(=O)[C@@H]12	
InChI=1S/C6H6O3/c7-3-1-2(3)5-6(9-5)4(1)8/h1-3,5-7H	InChI=1S/C6H6O3/c7-3-1-2(3)5-6(9-5)4(1)8/h1-3,5-7H/t1-,2+,3-,5-,6+/m1/s1
