15
gdb 127473	2.48986	1.44003	0.91846	4.2699	74.21	-0.2319	-0.0505	0.1814	1205.9139	0.113312	-450.141359	-450.132787	-450.131842	-450.175047	30.208	
C	-0.016185432	 1.3828724571	-0.0584605371	-0.311008
N	-0.0008926471	-0.0651433075	-0.0210693143	 0.165164
N	 0.0080909623	-0.7874349303	-1.1547679315	-0.322011
C	 0.0130632656	-2.0459870509	-0.7128074124	 0.285498
N	-0.042938624	-3.1158040185	-1.5794972836	-0.591248
C	 0.0121703289	-2.028848286	 0.7086201191	 0.166483
C	 0.008380057	-3.1516056858	 1.6379377544	 0.081054
O	 0.0196899904	-3.0773347941	 2.8451146299	-0.271951
N	 0.0064442201	-0.736409079	 1.0981756354	-0.267493
H	 0.8642317912	 1.7482510068	-0.5925069893	 0.156688
H	-0.915670045	 1.7300623608	-0.5726104724	 0.1581
H	-0.0084911104	 1.7357449924	 0.971218627	 0.171871
H	 0.1983187468	-2.8768284487	-2.5308813284	 0.264421
H	 0.4155614171	-3.9568606594	-1.2643853638	 0.261911
H	-0.0103427009	-4.1440438371	 1.1288428469	 0.052523
68.0721	136.1894	166.7511	174.3445	223.7032	280.6965	302.7014	392.621	411.4907	560.6374	592.0891	664.982	674.5657	709.5418	767.4387	907.5384	1025.4613	1026.9659	1075.9353	1135.9749	1149.6978	1242.4954	1329.7368	1372.6373	1433.0272	1448.6881	1455.9658	1474.621	1505.4135	1542.5642	1568.0048	1653.2984	1796.7313	2846.0173	3060.567	3128.6355	3183.019	3573.0542	3676.2722
CN1N=C(N)C(C=O)=N1	Cn1nc(N)c(C=O)n1	
InChI=1S/C4H6N4O/c1-8-6-3(2-9)4(5)7-8/h2H,1H3,(H2,5,7)	InChI=1S/C4H6N4O/c1-8-6-3(2-9)4(5)7-8/h2H,1H3,(H2,5,7)
