19
gdb 120117	2.73162	1.16294	0.99147	3.0374	76.76	-0.237	-0.0077	0.2293	1281.3824	0.15774	-423.010096	-423.001217	-423.000273	-423.044673	32.596	
C	 0.1266064655	 1.4446971736	 0.2974841278	-0.387685
C	-0.0912107029	-0.0374444909	 0.5418659739	-0.043917
O	 1.1636090554	-0.6250195127	 0.8732529948	-0.248936
C	 1.0918400637	-1.9857974915	 1.1223499517	 0.136983
C	 2.0759637566	-2.6229740214	 2.0142475797	-0.125008
C	 2.464135114	-1.6605555082	 3.149569992	-0.350545
C	 0.9749495576	-1.6662742912	 3.5732393275	 0.432855
O	 0.4006247648	-1.2589226432	 4.5430584173	-0.321433
C	 0.5621753299	-2.5565181325	 2.4389611421	-0.248378
H	 0.8356795573	 1.6009999668	-0.5203606283	 0.127535
H	-0.8192838271	 1.9273716627	 0.0348919495	 0.119263
H	 0.5240723398	 1.9265450976	 1.1950098316	 0.133111
H	-0.8043342496	-0.2008100149	 1.3629541935	 0.109019
H	-0.5034185856	-0.525463619	-0.3559341452	 0.08999
H	 0.7742660906	-2.5806668131	 0.2626458091	 0.097736
H	 2.6316076451	-3.5093555457	 1.7375824617	 0.108158
H	 3.0763411179	-2.125775417	 3.9270668008	 0.128607
H	 2.8988951616	-0.7046960174	 2.853678633	 0.135324
H	-0.2112555145	-3.314936142	 2.4585598875	 0.107322
49.8321	71.5282	117.9206	161.5409	239.3227	281.9776	356.3479	448.5608	463.2468	528.6762	635.3816	658.8828	745.0836	808.3946	821.7052	865.3866	903.2016	915.3929	955.6544	990.1242	1001.1615	1024.9441	1076.1598	1089.7904	1116.4339	1141.4257	1155.1171	1187.6352	1221.3004	1224.0989	1288.3684	1297.8556	1328.9737	1387.4051	1409.4894	1443.7903	1466.9839	1483.5007	1498.7488	1527.4039	1881.4945	2975.9253	3017.5559	3046.7039	3073.3802	3079.8396	3121.6444	3124.1699	3134.9374	3190.5855	3204.722
CCOC1C2CC(=O)C12	CCO[C@H]1[C@H]2CC(=O)[C@@H]12	
InChI=1S/C7H10O2/c1-2-9-7-4-3-5(8)6(4)7/h4,6-7H,2-3H2,1H3	InChI=1S/C7H10O2/c1-2-9-7-4-3-5(8)6(4)7/h4,6-7H,2-3H2,1H3/t4-,6-,7-/m0/s1
