17
gdb 110159	2.49446	1.20407	0.86594	1.567	74.71	-0.2398	-0.0433	0.1965	1305.9737	0.134941	-418.012589	-418.003482	-418.002538	-418.047097	32.402	
C	 0.1473743614	 1.4975899592	 0.0712756144	-0.330899
N	-0.2342922486	 0.1218387001	 0.4028407399	-0.302446
C	 0.76792445	-0.5731047177	 1.1722991713	-0.075279
C	 0.503804339	-2.0945690294	 1.4553862982	-0.180931
C	 1.970444485	-2.4366703091	 1.0218719515	-0.360592
C	 2.047684525	-1.0214002205	 0.4297407403	 0.409618
O	 2.7606300198	-0.4967514992	-0.3722688926	-0.283739
C	 0.091405817	-2.4591788686	 2.7975544677	 0.269489
N	-0.230408326	-2.7347943312	 3.8734522699	-0.321428
H	 1.044427609	 1.4802127862	-0.5513467832	 0.160402
H	-0.6600051527	 1.9626220658	-0.5000102349	 0.126217
H	 0.3561424669	 2.1249215005	 0.9547844112	 0.102385
H	-1.104402781	 0.1288391322	 0.9272932321	 0.231466
H	 1.0714335233	-0.0683263113	 2.1108820898	 0.101829
H	-0.2155690264	-2.4737904051	 0.7253065172	 0.14282
H	 2.6468223893	-2.5656744194	 1.8715806345	 0.158215
H	 2.103916379	-3.2685109326	 0.3287854128	 0.152871
64.2606	88.848	143.4327	166.2047	195.6123	242.0368	292.1103	380.4192	428.893	487.283	528.54	605.9815	636.6682	745.5044	761.0292	850.3308	949.9631	1004.4616	1010.0162	1048.4344	1060.7813	1103.1139	1140.4592	1175.3867	1187.3956	1204.7202	1227.0397	1255.0426	1331.9005	1365.8271	1441.4769	1457.6881	1474.8375	1496.2742	1520.1604	1901.537	2356.7594	2908.1764	2961.4092	3075.0923	3088.3162	3088.7045	3137.052	3140.6645	3502.5128
CNC1C(CC1=O)C#N	CN[C@H]1[C@@H](CC1=O)C#N	
InChI=1S/C6H8N2O/c1-8-6-4(3-7)2-5(6)9/h4,6,8H,2H2,1H3	InChI=1S/C6H8N2O/c1-8-6-4(3-7)2-5(6)9/h4,6,8H,2H2,1H3/t4-,6-/m0/s1
