18
gdb 66430	2.81655	1.59542	1.2745	2.5141	76.06	-0.202	0.0661	0.2682	1053.3623	0.145147	-401.83528	-401.826814	-401.82587	-401.86766	32.923	
C	-0.0023789593	 1.4988750209	 0.0296385903	-0.52082
C	-0.0350875035	 0.0124248501	-0.0835373378	 0.374975
C	 0.8920325717	-0.9621090097	-0.7262917179	-0.218243
N	 0.7994822023	-0.8976222353	 0.782138861	-0.240719
C	-0.3281043971	-1.9350355347	 0.7295757851	 0.336957
C	-0.624807622	-2.9123300357	 1.8105149696	-0.521424
C	-1.2002427495	-1.0124859755	-0.1146648477	-0.341289
C	-0.2416708038	-2.0325724338	-0.7630181719	 0.331949
O	-0.4988048608	-3.1146265278	-1.5569844	-0.451032
H	 1.0313321442	 1.841517022	 0.1391352475	 0.134009
H	-0.4309283129	 1.974483028	-0.859673174	 0.119862
H	-0.567005494	 1.8392492778	 0.904748791	 0.126772
H	 1.8350557217	-0.8346481947	-1.247600503	 0.094301
H	-0.904782725	-2.4015500645	 2.7381239584	 0.127289
H	-1.4510112851	-3.5661152096	 1.513625601	 0.130444
H	 0.2490986307	-3.5400597359	 2.0163856584	 0.132892
H	-2.276240899	-0.9314636167	-0.1903683803	 0.092501
H	-0.8947537588	-2.8098694648	-2.3820179896	 0.291576
165.5527	190.7773	195.5846	202.3649	228.7887	272.7362	333.7379	399.7913	418.4596	558.1028	588.8232	687.5384	703.336	749.7792	757.8509	821.6694	860.2861	867.2691	872.663	949.2973	1002.0746	1014.3664	1045.7718	1080.2578	1097.4676	1109.9197	1163.1024	1191.3478	1245.5548	1291.0601	1349.3996	1392.9874	1410.1383	1435.4386	1473.1713	1478.4936	1488.7452	1490.9949	1525.3389	3027.1898	3029.0121	3090.8862	3093.7066	3107.4317	3107.9888	3163.8665	3207.841	3774.2319
CC12C3N1C1(C)C2C31O	C[C@@]12[C@H]3N1[C@@]1(C)[C@@H]2[C@@]31O	
InChI=1S/C7H9NO/c1-5-3-6(2)7(3,9)4(5)8(5)6/h3-4,9H,1-2H3	InChI=1S/C7H9NO/c1-5-3-6(2)7(3,9)4(5)8(5)6/h3-4,9H,1-2H3/t3-,4-,5-,6+,7-,8?/m1/s1
