17
gdb 71970	2.7641	1.70924	1.23181	2.119	80.06	-0.2237	0.0174	0.2411	1026.4953	0.134185	-384.592817	-384.584887	-384.583943	-384.624852	31.335	
C	-0.0573069809	 1.4997368897	-0.0235185524	-0.506896
C	 0.0239301728	 0.0051227864	-0.0452011959	 0.224224
C	 0.9245754594	-0.8933726483	-0.8986868363	-0.282272
C	 0.0602339565	-2.0596923759	-0.3609856479	 0.044685
O	 0.4157653394	-2.1247905609	 1.0485465429	-0.336865
C	-0.2906072432	-0.8872364097	 1.2000361644	 0.34913
C	-0.6249554479	-0.3860303816	 2.4824840906	 0.162788
C	-0.9084005306	 0.0541107774	 3.5660245268	-0.384681
C	-1.0915367098	-1.0324434229	-0.0658414715	-0.249948
H	 0.8964963232	 1.9374164109	 0.2914651712	 0.129922
H	-0.2999494804	 1.8983484184	-1.0149202792	 0.121089
H	-0.8251575124	 1.8419895115	 0.6770281578	 0.132285
H	 0.7526122988	-0.7148832575	-1.9640828375	 0.104438
H	 1.9959960696	-0.9403549302	-0.6803572186	 0.104445
H	-0.005978245	-3.0344447258	-0.8374683678	 0.092453
H	-1.1591687855	 0.4340641953	 4.5253431035	 0.187041
H	-2.154241054	-0.9882690168	-0.26134714	 0.108162
130.5676	144.6562	192.732	258.4318	294.5882	415.1264	481.5168	498.6891	512.7495	565.7565	584.7683	657.5404	697.1316	745.6309	785.4601	807.6256	903.3857	913.2683	931.8598	940.4357	976.2884	1014.4755	1061.9321	1079.119	1122.3352	1151.5151	1167.2319	1231.0468	1241.64	1280.6844	1350.7451	1393.942	1420.5831	1484.671	1486.3025	1495.6953	2234.4835	3028.0303	3047.1157	3089.0364	3105.1542	3108.4522	3156.2542	3209.4995	3502.1162
CC12CC3OC1(C#C)C23	C[C@@]12C[C@H]3O[C@]1(C#C)[C@@H]23	
InChI=1S/C8H8O/c1-3-8-6-5(9-8)4-7(6,8)2/h1,5-6H,4H2,2H3	InChI=1S/C8H8O/c1-3-8-6-5(9-8)4-7(6,8)2/h1,5-6H,4H2,2H3/t5-,6-,7+,8-/m1/s1
