19
gdb 70639	2.43858	1.56034	1.1753	2.974	79.04	-0.2469	0.0318	0.2787	1102.6823	0.160768	-382.078626	-382.070353	-382.069409	-382.111315	31.854	
C	-0.2964400199	 1.3768222419	-0.01973637	-0.482274
C	-0.046543919	-0.1075921346	 0.0546459911	 0.340502
C	-0.6838091292	-0.9687116849	 1.0856945603	-0.292954
N	 0.750147821	-0.6444449395	 1.171381006	-0.132795
C	 1.6318059761	-1.696181343	 0.6369141643	-0.163621
C	 1.1052725059	-2.1061939499	-0.7577883357	-0.265526
C	 0.3768205187	-0.8242913572	-1.2417249009	-0.194002
C	-0.7357378757	-1.0883040846	-2.1503319308	 0.274775
N	-1.624592979	-1.2951031362	-2.8601660431	-0.330616
H	 0.5774451228	 1.9031141644	-0.4203366004	 0.120681
H	-1.1510697323	 1.5940802413	-0.6692705337	 0.137891
H	-0.5073896602	 1.778995304	 0.9737284084	 0.134199
H	-1.2950022657	-0.5069324101	 1.8553650165	 0.122558
H	-0.98675331	-1.9786693814	 0.8210856058	 0.119288
H	 2.6374261241	-1.2690941701	 0.5598071846	 0.115251
H	 1.6829154022	-2.5402509184	 1.3309344791	 0.117213
H	 1.9017244426	-2.405622977	-1.4415567551	 0.12309
H	 0.4025346383	-2.9398048006	-0.6969905846	 0.132207
H	 1.0859148194	-0.1725453542	-1.7674823117	 0.124133
100.1328	134.5643	194.4247	233.9147	260.9713	320.1066	389.2335	436.4595	512.9022	534.8375	575.9181	650.5472	707.7005	786.9429	818.0496	878.7944	935.4637	947.5564	982.405	996.1331	1031.6827	1056.7792	1082.6069	1110.3902	1114.4314	1166.5032	1202.3825	1239.2056	1256.0566	1292.411	1307.4365	1348.3319	1354.2876	1392.666	1420.2322	1487.004	1490.676	1496.9136	1500.691	1525.0269	2355.1742	3031.6177	3033.8229	3045.9249	3079.8315	3093.2176	3096.2455	3111.0844	3126.3915	3127.9196	3195.0188
CC12CN1CCC2C#N	C[C@]12CN1CC[C@H]2C#N	
InChI=1S/C7H10N2/c1-7-5-9(7)3-2-6(7)4-8/h6H,2-3,5H2,1H3	InChI=1S/C7H10N2/c1-7-5-9(7)3-2-6(7)4-8/h6H,2-3,5H2,1H3/t6-,7+,9?/m0/s1
