17
gdb 14195	3.78235	2.24074	2.10275	1.6771	66.83	-0.229	0.0794	0.3084	742.3663	0.144194	-363.813655	-363.807498	-363.806554	-363.843497	25.561	
C	 0.0615729422	 1.491881752	-0.076966863	-0.506444
C	 0.0006495791	-0.0024616356	 0.0332189447	 0.405642
C	-1.3143423179	-0.7881448445	-0.1539912767	-0.24926
C	-0.7167791532	-2.1017366217	 0.3951210218	-0.063318
N	-0.3664806844	-1.7864329444	 1.8111552152	-0.310311
C	 0.6256235429	-0.8709352619	 1.2421639544	-0.10099
C	 0.8153531373	-1.7890017045	 0.0325412224	 0.119043
O	 0.8670980942	-0.7225454312	-0.9079786194	-0.325708
H	 1.0840880242	 1.8520389994	 0.0691525799	 0.128847
H	-0.2795153173	 1.8244726853	-1.0632147386	 0.131235
H	-0.5808071516	 1.9544001112	 0.6794621808	 0.119966
H	-2.1567290456	-0.43809702	 0.4509470343	 0.088794
H	-1.5972383258	-0.8137859912	-1.208827942	 0.109234
H	-1.2122792739	-3.050859631	 0.196771241	 0.074381
H	-1.121916261	-1.3420674292	 2.3336359232	 0.207733
H	 1.4086847018	-0.4391018923	 1.8649816663	 0.079204
H	 1.540418649	-2.5888689703	-0.0958646244	 0.091951
194.0891	250.7355	284.9304	453.0814	498.4726	537.6431	615.2729	698.7624	731.9956	782.181	829.5979	838.6528	865.7578	896.4602	938.6284	961.4175	988.5958	1021.3456	1030.9755	1043.5688	1070.1449	1111.7632	1147.1939	1172.4481	1174.9632	1204.4859	1233.2662	1276.1373	1289.7448	1315.7125	1338.0508	1360.78	1414.3981	1475.2672	1478.8301	1493.6167	3034.732	3054.7974	3103.0343	3112.2628	3116.9611	3121.746	3130.2865	3157.5815	3443.3373
CC12CC3NC1C3O2	C[C@]12C[C@@H]3N[C@H]1[C@@H]3O2	
InChI=1S/C6H9NO/c1-6-2-3-4(8-6)5(6)7-3/h3-5,7H,2H2,1H3	InChI=1S/C6H9NO/c1-6-2-3-4(8-6)5(6)7-3/h3-5,7H,2H2,1H3/t3-,4+,5-,6-/m0/s1
