17
gdb 123576	3.92909	1.55507	1.21994	1.8603	77.84	-0.219	0.0239	0.2429	1000.1062	0.140649	-380.884954	-380.878487	-380.877543	-380.915547	26.838	
C	-0.0111268697	 1.4859414019	 0.0714264455	-0.282109
C	 1.3061489796	 0.7557994053	 0.0374776276	-0.0272
C	 2.0162327618	 0.4351615902	 1.3667054913	-0.361182
C	 1.0212189135	-0.468083177	 2.0465790542	 0.320861
N	 0.9682606972	-1.0641148438	 3.2271774957	-0.32974
N	-0.1977804275	-1.7524373892	 3.1664440463	-0.186125
C	-0.8725707433	-1.5970114432	 1.9877651601	-0.234221
C	-0.0944974991	-0.7545670447	 1.2301934728	 0.268721
C	-0.0120920374	-0.0265664886	-0.0554480834	-0.204607
H	-0.3534565567	 1.9133541608	 1.0088187292	 0.115024
H	-0.2773260885	 2.0618589837	-0.8091635649	 0.109
H	 1.9210834588	 0.882186496	-0.845819985	 0.085853
H	 2.9700351804	-0.0749861705	 1.1873661479	 0.116917
H	 2.2415084062	 1.3372852924	 1.946124117	 0.119908
H	-0.462797238	-2.3239900133	 3.9500405723	 0.270226
H	-1.8149075238	-2.091973762	 1.8141270119	 0.131056
H	-0.3401049835	-0.4777136681	-0.9845988186	 0.087619
157.6595	234.2522	338.604	423.1104	440.1776	463.6468	600.9388	656.1654	689.047	717.2659	769.7053	777.9709	790.9693	818.3614	878.2083	966.7711	972.1483	984.5452	1033.769	1055.3973	1068.9236	1083.6381	1098.1073	1144.9092	1178.3947	1187.6857	1204.8091	1270.1742	1294.993	1335.0652	1365.0334	1435.3177	1464.8775	1478.6756	1487.306	1511.8011	1633.7658	3034.9511	3068.5299	3121.5361	3172.557	3179.4364	3210.0322	3259.1251	3679.2283
C1C2CC3=NNC=C3C12	C1[C@H]2Cc3n[nH]cc3[C@@H]12	
InChI=1S/C7H8N2/c1-4-2-7-6(5(1)4)3-8-9-7/h3-5H,1-2H2,(H,8,9)	InChI=1S/C7H8N2/c1-4-2-7-6(5(1)4)3-8-9-7/h3-5H,1-2H2,(H,8,9)/t4-,5-/m0/s1
