15
gdb 19562	4.17875	2.11932	1.91876	1.5548	64.66	-0.236	-0.0042	0.2318	740.4148	0.120056	-362.571061	-362.565094	-362.56415	-362.600807	24.451	
C	 0.025228329	 1.5015398249	-0.0110060368	-0.331834
N	 1.2859585191	 0.7044282791	 0.0498279713	-0.381255
C	 0.0165746377	 0.0347364631	 0.0092641818	 0.417806
C	-0.5975626802	-1.0009278766	 0.9877338935	-0.065596
O	-1.7003423071	-1.1085043779	 0.0260966699	-0.278115
C	-0.6360328297	-0.9788114608	-0.9700112107	-0.086269
C	 0.2078091627	-2.235922139	-0.6894570243	-0.087084
C	 0.2333946313	-2.2485097259	 0.6462650659	-0.062866
H	-0.1899105687	 2.0753598519	 0.8860901752	 0.126171
H	-0.232432716	 2.0023486002	-0.9412376763	 0.117309
H	 1.7522745051	 0.6828721083	-0.8536056954	 0.234055
H	-0.8971128729	-0.7860973967	 2.0114389376	 0.087102
H	-0.9732011079	-0.7412812694	-1.9782449392	 0.083326
H	 0.660704301	-2.8960291274	-1.4139301228	 0.111992
H	 0.7188541366	-2.9189132739	 1.3392504404	 0.115257
187.4924	262.8539	300.9985	462.2395	552.147	577.5269	638.3245	726.3319	778.5428	816.1728	850.4722	866.7677	877.7016	906.252	911.2477	936.1018	949.4217	971.1437	1010.833	1040.2472	1124.6968	1152.9129	1155.6039	1198.8547	1224.591	1235.7059	1248.2015	1284.6651	1303.5003	1432.1014	1523.1163	1610.1536	3105.9141	3133.8787	3150.197	3190.2052	3235.8956	3262.7069	3502.73
C1NC11C2OC1C=C2	C1N[C@]21[C@H]1O[C@@H]2C=C1	
InChI=1S/C6H7NO/c1-2-5-6(3-7-6)4(1)8-5/h1-2,4-5,7H,3H2	InChI=1S/C6H7NO/c1-2-5-6(3-7-6)4(1)8-5/h1-2,4-5,7H,3H2/t4-,5+,6+
