21
gdb 59571	2.91245	1.24842	1.08833	1.1388	77.44	-0.2511	0.0777	0.3288	1203.6593	0.182632	-424.223112	-424.214267	-424.213323	-424.256696	34.155	
C	 0.1883999063	 1.3491984001	 0.3302288604	-0.406773
C	 0.2330864577	-0.1346199875	-0.0400099085	 0.118726
O	-1.060321442	-0.7175033346	 0.1501082828	-0.439495
C	 0.5928184836	-0.3846049273	-1.515290888	 0.015842
C	 2.0388569348	 0.0635297287	-1.8854107528	-0.274035
C	 2.8638598274	-1.2065034441	-1.8718618723	 0.056668
O	 2.6897028968	-1.9892659905	-0.6806032147	-0.257838
C	 1.9695930452	-2.367880935	-1.8670073902	 0.05167
C	 0.5318936949	-1.8981567077	-1.8819387766	-0.262849
H	 1.161728333	 1.8354191889	 0.2187639224	 0.116759
H	-0.5402630043	 1.87554655	-0.2951507976	 0.119743
H	-0.1147881674	 1.4699017992	 1.3768064368	 0.102665
H	 0.9741763277	-0.6509501421	 0.5859243962	 0.088683
H	-1.2843444812	-0.6368052248	 1.0821245535	 0.279835
H	-0.1401966142	 0.1697879985	-2.1104540954	 0.076054
H	 2.0683732875	 0.4944463361	-2.8932790021	 0.102024
H	 2.4404934683	 0.819708171	-1.2046987848	 0.107551
H	 3.8642374356	-1.2255577384	-2.2979130731	 0.089555
H	 2.249726536	-3.3305039987	-2.2881934732	 0.089494
H	-0.110024525	-2.4481575461	-1.1909427825	 0.130042
H	 0.1258694395	-2.0405198859	-2.8906672603	 0.095679
60.9024	106.6537	212.0488	231.7373	263.2278	315.5428	336.967	366.621	404.1155	451.2236	480.5744	673.0937	763.1484	780.2582	820.0983	863.8781	895.3891	909.024	922.1941	955.6265	964.0058	1014.2256	1034.6916	1053.9346	1089.297	1106.4313	1121.9854	1134.1408	1194.3698	1201.882	1234.3421	1262.0629	1291.2504	1315.4236	1328.0613	1338.4153	1352.5064	1385.4778	1407.7944	1421.6768	1445.9885	1477.3678	1491.0639	1495.4761	1496.4914	3011.2257	3028.4704	3036.9768	3040.2947	3058.1858	3087.3839	3093.5986	3114.5363	3115.0192	3136.3205	3149.4325	3823.9858
CC(O)C1CC2OC2C1	C[C@@H](O)[C@H]1C[C@H]2O[C@H]2C1	
InChI=1S/C7H12O2/c1-4(8)5-2-6-7(3-5)9-6/h4-8H,2-3H2,1H3	InChI=1S/C7H12O2/c1-4(8)5-2-6-7(3-5)9-6/h4-8H,2-3H2,1H3/t4-,5-,6+,7-/m1/s1
