17
gdb 41130	2.88643	2.3087	1.72289	1.6512	76.04	-0.2178	-0.0081	0.2098	828.4143	0.1371	-384.544054	-384.537954	-384.53701	-384.573931	26.709	
C	 0.0320883256	 1.4879890776	-0.1427696465	-0.193935
O	 1.50119327	 1.4635719077	 0.059219133	-0.341339
C	 1.3437016795	 0.2253618398	 0.8008576273	 0.351919
C	 1.139258788	 0.2977011409	 2.2979094844	-0.185875
C	 0.2311889508	-0.6551045151	 2.5227358114	-0.091134
C	-0.0328599591	-1.2449922671	 1.1441262733	-0.146852
C	 1.3837192095	-1.3101200901	 0.3756247595	-0.110746
C	 0.6924066532	-0.9497523105	-0.9442238281	-0.268116
C	 0.0123001029	-0.0347171855	 0.1067615965	 0.182366
H	-0.4475665052	 2.1004939858	 0.6279064559	 0.118707
H	-0.2309434424	 1.8400275959	-1.14365678	 0.118575
H	 1.6319402018	 0.9796836326	 2.9754049217	 0.112116
H	-0.2144201576	-0.9851342118	 3.4503779791	 0.108024
H	-0.7306501887	-2.0746255701	 1.021488735	 0.074901
H	 2.1685256202	-2.0546964462	 0.5537060926	 0.071927
H	 1.3121878676	-0.443804966	-1.6869413368	 0.110127
H	 0.0633475238	-1.7175392078	-1.4012942183	 0.089336
256.8279	333.3351	369.193	433.4703	463.8536	514.7137	615.4318	687.2417	698.2303	730.2105	760.4337	838.5308	859.2607	878.223	880.1041	906.6019	935.622	944.743	993.2459	997.2266	1038.8273	1060.703	1090.0759	1099.6434	1139.7968	1147.2719	1157.2772	1175.8219	1212.5892	1221.8556	1250.0311	1280.0778	1296.269	1322.8168	1490.9113	1506.9112	1621.9185	3039.791	3041.5205	3064.5413	3109.4149	3110.7134	3127.056	3224.9113	3252.5977
C1OC23C=CC4C2CC134	C1O[C@]23C=C[C@@H]4[C@H]2C[C@]134	
InChI=1S/C8H8O/c1-2-8-6-3-7(8,4-9-8)5(1)6/h1-2,5-6H,3-4H2	InChI=1S/C8H8O/c1-2-8-6-3-7(8,4-9-8)5(1)6/h1-2,5-6H,3-4H2/t5-,6-,7-,8-/m1/s1
