13
gdb 133213	3.24998	1.36374	0.96632	0.6275	64.15	-0.2594	-0.0686	0.1908	1102.2578	0.08725	-497.85176	-497.844163	-497.843219	-497.88411	27.832	
C	-0.033796193	 1.4738635314	 0.0284951389	-0.456035
C	-0.0092239942	-0.022114866	-0.0023899245	 0.248983
N	-0.0471630567	-0.5725950284	-1.1650026394	-0.123117
O	-0.0244025498	-1.987876624	-1.2062451026	-0.242597
C	 0.0335024906	-2.6788864836	-0.0794757771	 0.447056
F	 0.0448504602	-3.9615995314	-0.3451902788	-0.025065
C	 0.0758146331	-2.1785583731	 1.1691003598	-0.465366
C	 0.0568913719	-0.7439597274	 1.3124563744	 0.356178
O	 0.0889081176	-0.1219402216	 2.3608818731	-0.353742
H	 0.8582860841	 1.8431516976	 0.5432237985	 0.159972
H	-0.0825593075	 1.882486415	-0.9808853456	 0.146851
H	-0.8925308628	 1.8128934019	 0.6156448928	 0.159984
H	 0.1221678866	-2.8325856004	 2.0280789606	 0.146898
103.1602	148.9554	176.6842	285.2697	344.051	368.1487	417.2278	450.1329	519.5745	574.0488	685.2386	696.6297	764.0719	766.7557	855.7432	900.932	999.6882	1040.936	1051.5494	1168.0191	1245.7564	1336.3302	1406.8987	1411.7732	1458.3724	1463.6985	1640.7067	1687.4696	1759.8711	3053.9903	3114.3411	3160.8239	3241.2959
CC1=NOC(F)=CC1=O	Cc1noc(F)cc1=O	
InChI=1S/C5H4FNO2/c1-3-4(8)2-5(6)9-7-3/h2H,1H3	InChI=1S/C5H4FNO2/c1-3-4(8)2-5(6)9-7-3/h2H,1H3
