20
gdb 112433	2.42905	1.34242	0.95991	4.429	76.73	-0.2496	0.0581	0.3077	1281.9106	0.170916	-440.322686	-440.313572	-440.312628	-440.356751	33.862	
C	-0.078403414	 1.6351429263	-0.10842136	-0.388884
C	 0.0235650256	 0.1092784789	-0.0178252797	-0.207533
C	-1.3350152295	-0.5592204853	 0.1163346906	 0.111456
O	-2.1244483355	-0.3087693569	-1.0598470094	-0.242511
C	-2.9783409462	-1.3422939053	-1.2409408493	 0.48261
N	-3.9259907989	-1.3006412269	-2.0664460535	-0.580548
O	-2.6502164958	-2.3799583246	-0.416452434	-0.262111
C	-1.385878799	-2.0975108826	 0.2175042324	 0.074951
C	-0.2759784023	-2.8679344214	-0.4851087461	-0.406472
H	 0.9136837518	 2.0849679436	-0.2048797948	 0.117176
H	-0.6749455915	 1.931775169	-0.9747733721	 0.147741
H	-0.5516261683	 2.0544441452	 0.7860016021	 0.117957
H	 0.5330598388	-0.2839536519	-0.9034788849	 0.115056
H	 0.6276857703	-0.1761968985	 0.8527381944	 0.104447
H	-1.8715654867	-0.1281791319	 0.9743285383	 0.09142
H	-4.413700299	-2.1933523962	-2.0785275079	 0.228511
H	-1.4717095798	-2.4181944959	 1.2592819798	 0.098903
H	-0.1753711243	-2.5543436133	-1.5280712168	 0.138857
H	 0.6829416398	-2.7173357481	 0.0194183389	 0.124568
H	-0.5077643156	-3.9359430544	-0.4694102579	 0.134407
98.465	104.0109	116.9049	168.5993	227.4629	266.3335	293.088	373.0818	416.1313	477.1818	517.4936	688.3933	721.6192	733.7914	789.6878	806.7964	821.8928	916.999	923.2304	967.3604	1018.2756	1039.4528	1046.3106	1078.7965	1104.513	1132.8711	1165.3578	1177.918	1270.51	1296.6208	1324.5923	1344.2226	1385.4883	1399.1384	1410.9688	1414.384	1423.3751	1473.2022	1492.0481	1497.4213	1498.9307	1508.2734	1799.3462	2996.285	3031.7049	3041.5835	3046.8113	3074.1149	3079.9361	3110.2356	3122.0872	3127.5488	3128.2961	3534.2818
CCC1OC(=N)OC1C	CC[C@H]1O[C]([NH])O[C@H]1C	
InChI=1S/C6H11NO2/c1-3-5-4(2)8-6(7)9-5/h4-5,7H,3H2,1-2H3	InChI=1S/C6H11NO2/c1-3-5-4(2)8-6(7)9-5/h4-5,7H,3H2,1-2H3/t4-,5+/m0/s1
