21
gdb 75740	2.38328	1.49168	1.16396	3.484	84.66	-0.2341	-0.0423	0.1917	1161.3521	0.181523	-387.139104	-387.129788	-387.128843	-387.172733	35.899	
C	-0.332618079	 1.4915484315	-0.0643186128	-0.409705
C	 0.0744763281	 0.0195153343	-0.0238765811	-0.139564
C	 1.0171965888	-0.3692159972	-1.1790740232	 0.373419
O	 0.9585998749	 0.0580775147	-2.3095984642	-0.340873
C	 1.9780101807	-1.3575442687	-0.6388228652	-0.205523
C	 1.825256125	-1.4591440804	 0.6850883216	-0.057002
C	 0.7598852883	-0.5447928516	 1.2623012163	 0.221333
C	 1.4488321122	 0.5404334564	 2.1174075188	-0.419325
C	-0.2242038219	-1.3354651574	 2.143276679	-0.430899
H	 0.5164202454	 2.1557137628	 0.1189049584	 0.120789
H	-0.7227732724	 1.724834313	-1.0584124528	 0.139434
H	-1.1076037563	 1.7177070202	 0.6743870855	 0.110174
H	-0.8293542802	-0.5822544226	-0.1975488282	 0.102712
H	 2.6979057419	-1.8758986728	-1.2594576095	 0.115309
H	 2.411109755	-2.1028878868	 1.3359440388	 0.109491
H	 2.155584264	 1.131256882	 1.5280673218	 0.123535
H	 0.7116853167	 1.2211516706	 2.5542063676	 0.121651
H	 2.0054052473	 0.0796619868	 2.9406577641	 0.112422
H	 0.2843857684	-1.7728469118	 3.0097499042	 0.112597
H	-1.0177630821	-0.6809402218	 2.5196646874	 0.12054
H	-0.6945289748	-2.1489865513	 1.5817386434	 0.119484
56.2613	191.7606	211.1842	235.438	251.5393	275.4383	285.7376	326.1125	332.425	375.1127	499.3645	533.8354	551.8517	675.3522	701.9217	754.1163	800.6739	851.5392	895.9139	942.8021	956.8805	1003.1566	1012.6221	1035.4172	1062.2952	1095.5358	1123.4409	1162.5246	1178.5708	1238.445	1250.8774	1295.9351	1337.0827	1363.2711	1397.0867	1405.8802	1423.7018	1482.9432	1485.093	1494.9309	1498.1647	1505.7596	1513.3175	1650.2372	1810.7258	3005.0084	3025.1313	3034.1841	3044.5634	3092.6037	3100.9389	3101.3837	3111.1226	3116.6004	3124.0568	3169.482	3222.2119
CC1C(=O)C=CC1(C)C	C[C@H]1C(=O)C=CC1(C)C	
InChI=1S/C8H12O/c1-6-7(9)4-5-8(6,2)3/h4-6H,1-3H3	InChI=1S/C8H12O/c1-6-7(9)4-5-8(6,2)3/h4-6H,1-3H3/t6-/m0/s1
