17
gdb 36107	3.57721	1.18822	1.07682	4.8222	75.81	-0.2377	0.0267	0.2644	1143.5148	0.136325	-380.795197	-380.7875	-380.786556	-380.827861	29.699	
N	-0.1025734949	-1.1630219737	 0.1072330293	-0.307534
C	-0.0467059043	-0.0211236612	-0.0587182876	 0.268517
C	 0.0369679245	 1.4296854451	-0.2531951529	-0.4309
C	 1.4407252007	 1.9502937301	-0.0876213433	 0.382332
C	 2.0924622935	 2.2347649952	 1.233893831	-0.339713
C	 1.9670403983	 3.334680979	 0.2082418333	-0.15077
C	 2.9207657739	 3.1368366753	-0.9847131678	-0.030222
C	 3.7639918666	 1.9256961251	-0.9275475511	-0.250531
N	 2.3427030793	 1.7805405572	-1.3013308897	-0.174707
H	-0.3266466911	 1.6698523472	-1.2583414056	 0.162727
H	-0.6315014357	 1.9172810741	 0.4649736018	 0.150621
H	 1.3783872464	 2.3214256583	 2.0479076052	 0.124924
H	 3.0420396693	 1.8178253991	 1.5479798101	 0.125424
H	 1.4274924314	 4.2540638548	 0.3933406902	 0.103271
H	 3.0226670968	 3.8813346765	-1.7675422747	 0.106549
H	 4.4159685154	 1.74840142	-1.7781292904	 0.131331
H	 4.14178911	 1.5211080279	 0.0035948123	 0.128684
58.7892	101.912	231.062	298.8655	379.7901	388.6177	444.1579	459.5573	540.5165	670.5073	710.55	753.6334	826.7615	830.3581	899.2804	911.7049	930.049	959.7948	969.3135	1003.0758	1019.4985	1050.8439	1057.7915	1083.7903	1111.1625	1140.0812	1155.5933	1222.083	1261.2959	1274.8402	1330.3554	1350.2647	1399.5179	1448.0302	1480.9486	1525.8282	2363.5478	3046.2822	3089.8115	3128.1522	3139.4423	3163.0163	3200.6705	3208.5482	3220.0591
N#CCC12CC1C1CN21	N#CC[C@]12C[C@H]1[C@H]1CN21	
InChI=1S/C7H8N2/c8-2-1-7-3-5(7)6-4-9(6)7/h5-6H,1,3-4H2	InChI=1S/C7H8N2/c8-2-1-7-3-5(7)6-4-9(6)7/h5-6H,1,3-4H2/t5-,6+,7-,9?/m0/s1
