19
gdb 80263	2.59344	1.46968	1.34268	3.7195	82.16	-0.2331	-0.0482	0.1849	1061.2843	0.160455	-385.919234	-385.911145	-385.910201	-385.951904	31.345	
C	-0.4537011615	 1.3170130677	 0.3582048179	-0.421288
C	-0.0719943451	-0.115359012	 0.0669437672	-0.011835
C	 0.5509561204	-0.5776331597	-1.2191540424	-0.075097
C	 0.9890027811	 0.3787354586	-2.3146759582	-0.334345
C	 1.9913032279	 1.471444706	-1.9273857741	 0.362361
O	 2.1492692541	 2.4432976343	-2.6414804242	-0.34308
C	 2.787400289	 1.2636719588	-0.70591365	-0.178177
C	 2.51610777	 0.2868234803	 0.1754850458	-0.027617
C	 1.3771967334	-0.6355534167	 0.0567264967	-0.111141
H	-1.4019315694	 1.5637847141	-0.1319963103	 0.124666
H	-0.586288025	 1.4706335043	 1.4343609948	 0.120888
H	 0.2916062764	 2.0368628862	 0.0137500439	 0.139939
H	-0.7589155021	-0.8360377926	 0.5040821406	 0.093794
H	 0.195323488	-1.5343895713	-1.590313624	 0.092295
H	 1.4844458177	-0.1952446433	-3.1091182289	 0.133491
H	 0.1355139285	 0.8700826799	-2.7934890931	 0.131346
H	 3.613626355	 1.9519376622	-0.5607353571	 0.105408
H	 3.1562470276	 0.1638413914	 1.04693566	 0.106358
H	 1.5205247138	-1.6021817683	 0.5286606755	 0.092033
73.1565	157.1013	166.7983	211.1586	308.8874	416.1712	431.1234	448.837	515.7972	570.0821	629.841	719.2686	735.2959	761.3603	823.9607	856.0103	896.3201	942.0967	965.4217	991.0924	1020.7678	1054.4686	1081.108	1097.6309	1132.6489	1144.1903	1177.1337	1218.9129	1241.4285	1260.4246	1326.2337	1373.9551	1381.6294	1418.9461	1425.7709	1436.0177	1457.6188	1492.6471	1502.4201	1670.3283	1765.3098	3028.2671	3037.3118	3076.2362	3093.0274	3121.039	3135.6764	3140.7878	3146.0557	3161.8944	3191.9954
CC1C2CC(=O)C=CC12	C[C@H]1[C@H]2CC(=O)C=C[C@@H]12	
InChI=1S/C8H10O/c1-5-7-3-2-6(9)4-8(5)7/h2-3,5,7-8H,4H2,1H3	InChI=1S/C8H10O/c1-5-7-3-2-6(9)4-8(5)7/h2-3,5,7-8H,4H2,1H3/t5-,7+,8-/m1/s1
