14
gdb 130329	3.05249	1.37774	1.03069	4.0409	64.17	-0.2444	-0.0537	0.1907	1091.7886	0.100551	-469.976815	-469.968938	-469.967994	-470.009703	28.518	
N	 0.256009652	 1.418205756	-0.1603502298	-0.598624
C	 0.1386097878	 0.0501018583	-0.0529793276	 0.275243
N	-0.9983229577	-0.5776953511	 0.1159917595	-0.164658
O	-0.6650959674	-1.9102277328	 0.2564457986	-0.161468
N	 0.6752314163	-2.0952776238	 0.1557979634	-0.139071
C	 1.2017895546	-0.9156926325	-0.0268301575	 0.319585
C	 2.6850322972	-0.7489153189	-0.1134116803	-0.425454
C	 3.2068584968	 0.0731649529	-1.2733531958	 0.160281
O	 2.5524332941	 0.8385816457	-1.937127639	-0.238126
H	 0.9254821815	 1.6871346627	-0.8724113538	 0.276735
H	-0.6369730511	 1.8792864099	-0.2737335372	 0.262467
H	 3.0721603327	-0.2520270974	 0.7919838039	 0.164944
H	 3.1611015295	-1.7348751847	-0.1310530655	 0.16135
H	 4.2938413638	-0.0538765942	-1.463309359	 0.106798
74.7607	123.8148	174.2146	234.3878	270.7302	345.8256	426.5269	449.295	577.9002	616.9028	657.9535	732.917	737.7526	802.7688	827.9115	914.0649	945.746	963.4785	1033.8097	1060.4971	1174.4818	1219.549	1283.0276	1347.3085	1419.464	1435.263	1465.7732	1556.6659	1622.0183	1664.9719	1823.0633	2912.9054	2991.749	3085.7625	3528.2235	3635.2152
NC1=NON=C1CC=O	Nc1nonc1CC=O	
InChI=1S/C4H5N3O2/c5-4-3(1-2-8)6-9-7-4/h2H,1H2,(H2,5,7)	InChI=1S/C4H5N3O2/c5-4-3(1-2-8)6-9-7-4/h2H,1H2,(H2,5,7)
