14
gdb 110181	2.80256	1.15621	0.89798	2.8522	63.15	-0.2995	-0.0268	0.2727	1227.026	0.10034	-473.843683	-473.83533	-473.834386	-473.877438	29.239	
O	 0.0207723491	 1.4009453725	 0.0023740881	-0.407347
C	-0.004224873	 0.0070250878	-0.1887910851	-0.084468
C	-1.4315806452	-0.5257968186	-0.0147284694	-0.233416
C	-1.6600505697	-2.0482702035	 0.1808825544	-0.04318
O	-2.1622577106	-1.805057655	 1.5370378707	-0.237482
C	-1.9337915015	-0.4509249737	 1.4230465081	 0.474076
O	-2.0475018649	 0.3825848233	 2.2617241615	-0.31547
C	-2.6507256907	-2.6885763326	-0.6736696157	 0.295596
N	-3.4192082389	-3.188775652	-1.3759179439	-0.29896
H	-0.3002669781	 1.5878882973	 0.8936420888	 0.305633
H	 0.3464550672	-0.180694689	-1.2080596525	 0.134072
H	 0.6750200427	-0.5212562268	 0.4999408574	 0.105074
H	-2.1069828832	-0.0582118222	-0.7331895083	 0.153102
H	-0.7491718432	-2.6508694674	 0.224939516	 0.15277
82.6346	97.4901	134.6411	170.1438	226.2812	317.5725	383.0984	433.1328	464.0016	512.6275	596.6217	719.6559	755.9405	829.3175	917.456	970.299	1039.0949	1054.9008	1085.881	1096.5709	1122.7044	1184.4942	1219.6086	1257.6528	1321.7835	1367.8946	1390.3355	1431.2799	1512.0466	1937.0358	2367.8281	2974.8899	3084.1943	3088.5319	3115.8095	3780.724
OCC1C(OC1=O)C#N	OC[C@H]1[C@@H](OC1=O)C#N	
InChI=1S/C5H5NO3/c6-1-4-3(2-7)5(8)9-4/h3-4,7H,2H2	InChI=1S/C5H5NO3/c6-1-4-3(2-7)5(8)9-4/h3-4,7H,2H2/t3-,4-/m0/s1
