18
gdb 72099	2.88263	1.79541	1.64324	1.251	69.85	-0.1998	0.0758	0.2757	916.1392	0.149986	-439.063416	-439.056279	-439.055334	-439.094673	28.754	
C	-0.0083176675	 1.5109001226	-0.0098325384	-0.484608
C	-0.0372953783	 0.0160602237	 0.0652903359	 0.392647
O	-0.0084687802	-0.618129338	-1.2005524185	-0.288581
C	-0.3175434581	-1.9708201091	-0.9099614466	 0.140516
C	 0.9386148411	-2.6527327653	-0.3722510462	-0.157598
N	 1.3863226191	-1.9568355933	 0.8528537156	-0.31609
C	 0.5721365192	-0.8084305068	 1.1843989859	-0.125299
C	-0.9315408381	-0.8491187588	 0.9221905807	-0.011674
O	-1.3123570303	-1.9431486571	 0.110137178	-0.268875
H	 0.9356804626	 1.8631584124	-0.4381969481	 0.13372
H	-0.829255768	 1.8777403424	-0.6341000361	 0.132101
H	-0.1114325663	 1.9450171092	 0.9884956708	 0.121533
H	-0.7259810466	-2.4478718496	-1.8032954451	 0.095912
H	 0.7199888886	-3.7060748031	-0.1675047559	 0.10378
H	 1.7168349093	-2.6131761861	-1.1466168571	 0.107247
H	 1.378239321	-2.6004190385	 1.6347525408	 0.227298
H	 0.9224467806	-0.2592173018	 2.053511179	 0.094606
H	-1.7132831283	-0.5125115128	 1.5921766652	 0.103366
138.0816	198.876	219.5081	294.512	386.4444	407.8958	536.1746	575.1209	640.8368	698.2106	715.1146	767.3832	802.236	860.5086	884.0002	891.2068	917.6439	977.4056	1002.1302	1019.1339	1042.782	1054.6479	1095.6816	1121.3297	1149.7473	1189.0296	1227.0886	1231.8602	1262.3633	1304.2042	1342.7303	1358.6052	1389.7951	1414.3791	1449.7232	1477.9428	1480.1459	1499.2176	1504.6158	3007.8572	3037.5325	3064.804	3101.2093	3104.5877	3117.7291	3149.3755	3187.0897	3537.654
CC12OC3CNC1C2O3	C[C@@]12O[C@H]3CN[C@@H]1[C@@H]2O3	
InChI=1S/C6H9NO2/c1-6-4-5(6)8-3(9-6)2-7-4/h3-5,7H,2H2,1H3	InChI=1S/C6H9NO2/c1-6-4-5(6)8-3(9-6)2-7-4/h3-5,7H,2H2,1H3/t3-,4+,5-,6+/m0/s1
