23
gdb 94707	3.22722	1.22832	1.06012	1.2114	85.78	-0.242	0.0849	0.3269	1261.4913	0.206677	-388.298845	-388.289943	-388.288999	-388.331809	35.442	
C	 0.0998507861	 1.5455019513	 0.0596426313	-0.404831
C	 0.0173999126	 0.0284795282	-0.011950741	 0.150884
C	 0.6578319644	-0.5484147723	-1.284195739	-0.236214
C	 0.9872332392	-2.0337368218	-1.151559715	-0.070702
C	 2.2097777002	-2.4591416931	-0.3648105343	-0.318497
C	 0.8355975868	-2.7315032737	 0.1865617564	 0.32424
C	 0.3248439492	-4.1549577025	 0.2334425237	-0.47013
C	 0.3727753247	-1.8603075512	 1.3438330845	-0.146512
O	 0.6573879826	-0.4884924048	 1.1524834018	-0.258263
H	 1.1461035951	 1.8657293208	 0.0898535997	 0.12331
H	-0.3748941855	 1.9984760599	-0.8163129895	 0.112501
H	-0.3985180769	 1.9169498574	 0.9589837007	 0.119989
H	-1.0428012841	-0.2800719165	 0.0166348908	 0.059253
H	-0.0303157108	-0.3917043914	-2.1225177211	 0.096103
H	 1.5685133915	 0.0175993451	-1.5182482939	 0.099027
H	 0.7597656096	-2.6357126832	-2.0266908882	 0.076985
H	 2.794036165	-3.2977738432	-0.7292871928	 0.100721
H	 2.7881838458	-1.6684648283	 0.1028082809	 0.116215
H	 0.6845328908	-4.7319284655	-0.6241613403	 0.115178
H	 0.6618163637	-4.6695515977	 1.1419753025	 0.115263
H	-0.7713363088	-4.1877085598	 0.2215899135	 0.113766
H	-0.7134438593	-1.9996530875	 1.4934537238	 0.079508
H	 0.875737538	-2.1514334703	 2.2735227154	 0.102206
90.9236	192.1746	219.4077	229.2885	256.5496	292.8908	334.693	367.8464	388.1642	446.2136	478.7891	541.0798	621.7391	736.0145	773.4642	833.2443	877.6017	900.898	920.3981	929.407	963.354	1002.6941	1035.4422	1065.4961	1079.3636	1105.6328	1124.1438	1135.7322	1144.2148	1156.0336	1171.2555	1252.0682	1262.6883	1297.4462	1320.0995	1337.224	1374.8678	1389.3162	1403.4144	1412.7425	1419.5198	1428.4176	1481.3265	1484.6593	1490.6663	1492.0267	1494.3406	1501.9058	1507.9331	2936.3253	2942.8505	3017.3856	3020.7895	3040.8207	3051.7725	3064.0826	3074.0455	3097.9564	3113.3997	3120.2815	3123.458	3140.8922	3211.7235
CC1CC2CC2(C)CO1	C[C@H]1C[C@H]2C[C@@]2(C)CO1	
InChI=1S/C8H14O/c1-6-3-7-4-8(7,2)5-9-6/h6-7H,3-5H2,1-2H3	InChI=1S/C8H14O/c1-6-3-7-4-8(7,2)5-9-6/h6-7H,3-5H2,1-2H3/t6-,7-,8-/m0/s1
