17
gdb 80328	2.22347	1.54066	1.3419	1.9129	74.2	-0.2328	0.0094	0.2422	1058.0566	0.133158	-421.739317	-421.730476	-421.729531	-421.772477	33.407	
C	-0.0312159223	 1.5561670312	-0.0452288016	-0.502973
C	-0.0144259033	 0.0600451982	 0.0456086654	 0.203737
C	-0.886848449	-0.7746827386	 0.9752328711	 0.07736
O	-1.7337691147	-1.8025739843	 0.5873988909	-0.431662
C	 0.5925570979	-0.9321850259	 1.0445969019	-0.024426
O	 0.9989252707	-1.836376648	 0.0022322851	-0.312731
C	 0.5975357936	-0.8641386347	-1.0179682055	-0.124868
C	-0.2249395202	-1.4075048777	-2.0848414016	 0.325018
C	-0.8804169315	-1.8425998653	-2.9937882217	-0.427755
H	 0.9503709031	 1.9567021677	-0.324253732	 0.121465
H	-0.7579234581	 1.8935967931	-0.7933160449	 0.136675
H	-0.3134043224	 2.0044846938	 0.9124279034	 0.126939
H	-1.3262347159	-0.1805474281	 1.7726725171	 0.109133
H	-1.1813397358	-2.475433237	 0.1667813353	 0.297626
H	 1.2495025225	-0.8328785759	 1.9019013492	 0.105913
H	 1.5066550529	-0.4171360953	-1.4413480197	 0.114746
H	-1.4752750675	-2.2276795133	-3.7852476125	 0.205803
107.9605	124.3827	184.2527	198.3201	254.0722	277.3522	285.4491	401.7821	442.7931	505.9378	561.938	619.7901	629.911	670.4776	688.122	787.1934	823.207	904.0029	925.098	951.0559	994.7747	1023.8565	1029.3664	1088.8478	1116.1896	1164.1212	1218.3498	1236.8058	1280.4633	1293.669	1352.6419	1388.5758	1417.8372	1474.1856	1486.06	1497.6977	2233.4871	3017.0922	3023.7428	3083.3853	3101.0339	3150.6727	3172.8977	3500.7248	3760.0106
CC12C(O)C1OC2C#C	C[C@]12[C@@H](O)[C@H]1O[C@H]2C#C	
InChI=1S/C7H8O2/c1-3-4-7(2)5(8)6(7)9-4/h1,4-6,8H,2H3	InChI=1S/C7H8O2/c1-3-4-7(2)5(8)6(7)9-4/h1,4-6,8H,2H3/t4-,5-,6+,7-/m0/s1
