16
gdb 129460	4.54165	1.01323	0.86335	5.7553	71.1	-0.2285	0.0112	0.2396	1286.934	0.126641	-434.127397	-434.11914	-434.118195	-434.161213	30.068	
N	 0.1733168759	 1.2238580134	-0.2433987497	-0.515773
C	-0.0328263215	 0.0249429949	 0.3606402015	 0.426641
O	 0.6573959087	-0.3632929243	 1.2884964138	-0.36892
C	-1.2277016273	-0.7763216522	-0.1646139036	-0.442298
C	-0.9764006559	-2.2521367105	-0.2389656508	 0.385383
C	-1.4383534508	-3.2107032253	-1.1225205238	-0.314863
C	-0.8960833858	-4.4226977182	-0.6462786596	-0.005713
N	-0.1537386654	-4.2402508448	 0.4429344064	-0.233172
N	-0.2291152841	-2.9178494556	 0.6755707549	-0.226255
H	 0.9346280928	 1.7975964535	 0.0821856777	 0.268401
H	-0.3559422279	 1.5269867159	-1.0410779545	 0.26621
H	-2.053581458	-0.5646436683	 0.530376507	 0.155693
H	-1.5516583295	-0.4157933501	-1.1449529297	 0.118246
H	-2.0745552985	-3.0524371493	-1.9787606787	 0.093038
H	-1.0142834391	-5.4162660248	-1.0534284301	 0.106199
H	 0.3116018764	-2.4734944145	 1.4032312492	 0.287183
46.8885	74.3753	167.1791	212.3004	266.5674	326.2942	375.8716	508.7902	594.1062	621.331	651.3318	677.6346	733.4745	788.9756	800.6754	862.0298	887.2671	940.3275	952.616	1042.4294	1062.6032	1089.942	1130.1642	1203.2116	1238.4922	1284.4213	1306.2305	1363.7126	1402.1245	1441.3032	1458.0237	1499.4332	1600.1661	1620.6932	1781.8875	3007.6011	3086.6837	3241.4327	3263.2334	3603.8353	3630.6498	3742.7531
NC(=O)CC1=CC=NN1	NC(=O)Cc1ccn[nH]1	
InChI=1S/C5H7N3O/c6-5(9)3-4-1-2-7-8-4/h1-2H,3H2,(H2,6,9)(H,7,8)	InChI=1S/C5H7N3O/c6-5(9)3-4-1-2-7-8-4/h1-2H,3H2,(H2,6,9)(H,7,8)
