14
gdb 132978	3.27605	1.38931	0.98162	7.0955	68.14	-0.2379	-0.028	0.2099	1103.0623	0.101313	-478.02153	-478.013869	-478.012925	-478.054131	27.776	
C	-0.0275669168	 1.4925837301	 0.0460115354	-0.354755
N	-0.0061052043	 0.0334254638	 0.0202608692	-0.148287
C	-0.0395638783	-0.6878827984	-1.1551792088	 0.103982
N	-0.0241172005	-1.9620860231	-1.2649934907	-0.322027
C	 0.0327161527	-2.7700192796	-0.0946466576	 0.400101
O	 0.0484312634	-3.9798166209	-0.1709536384	-0.358582
C	 0.069893518	-2.0439597415	 1.1798564005	-0.425763
C	 0.0491314884	-0.7027534121	 1.1771595706	 0.41911
F	 0.0793178406	 0.0403362332	 2.2745402474	-0.060038
H	 0.8742024142	 1.8880709835	 0.5200828458	 0.160844
H	-0.072338803	 1.8474187934	-0.9841913021	 0.152732
H	-0.9023209553	 1.8607280794	 0.5878685125	 0.16085
H	-0.0830299604	-0.0635174646	-2.0469354685	 0.136059
H	 0.1136414814	-2.5918974233	 2.1106183945	 0.135775
86.4245	127.2692	186.1355	229.7266	311.7813	379.6373	452.9198	457.8728	551.2785	600.597	667.4527	766.1186	771.6126	795.6311	864.8222	898.0251	960.2628	1062.622	1153.497	1172.6832	1221.1961	1237.1586	1320.1316	1423.9119	1442.3952	1481.0381	1486.9027	1521.0407	1619.9203	1730.1819	1785.334	3054.5341	3122.6184	3138.7168	3153.0489	3236.7498
CN1C=NC(=O)C=C1F	Cn1cnc(=O)cc1F	
InChI=1S/C5H5FN2O/c1-8-3-7-5(9)2-4(8)6/h2-3H,1H3	InChI=1S/C5H5FN2O/c1-8-3-7-5(9)2-4(8)6/h2-3H,1H3
