20
gdb 112115	2.71074	1.30184	1.03052	2.9739	75.34	-0.2474	0.0137	0.2611	1205.0496	0.172445	-440.297757	-440.28901	-440.288066	-440.331121	33.057	
C	-0.1088067168	 1.6121754777	-0.1239152177	-0.397485
C	-0.0097399109	 0.0827839192	-0.0143727346	-0.049179
C	 0.7749240939	-0.5106460439	-1.1866845061	-0.078391
O	 2.1686203194	-0.1531769782	-1.1276743843	-0.226657
C	 2.7078085616	-0.10500787	 0.1095645066	 0.129345
N	 2.138807131	-0.2368463433	 1.2309190231	-0.296165
C	 0.6823191879	-0.4242044372	 1.2677295082	 0.028987
C	 0.1927886757	 0.1995239959	 2.5818504701	-0.071045
O	 0.8687923106	-0.374378471	 3.6783642224	-0.42601
H	 0.8701315695	 2.0905237638	-0.0274774248	 0.135162
H	-0.5248189918	 1.897534496	-1.0958197089	 0.113041
H	-0.7608234179	 2.0270353036	 0.648624364	 0.127241
H	-1.0226095065	-0.3368783856	-0.0563312618	 0.083656
H	 0.703961271	-1.6051810438	-1.1889420254	 0.114454
H	 0.4206777499	-0.1376554043	-2.1508869128	 0.117799
H	 3.7777547818	 0.0847595638	 0.0420489667	 0.129183
H	 0.4979190646	-1.5038556933	 1.3602537415	 0.09282
H	 0.3368836906	 1.290508175	 2.5509824557	 0.085692
H	-0.8774588539	 0.0046697712	 2.7162125386	 0.097604
H	 1.8022763304	-0.3663928758	 3.4235268396	 0.289947
102.2674	127.1366	179.7648	181.6209	217.1442	295.3595	351.3404	387.7981	423.4028	509.1992	548.8953	579.1497	661.8738	795.2227	836.4802	874.8278	904.6988	966.3932	971.0604	981.5236	1002.7487	1062.5075	1085.1617	1121.2893	1135.5537	1164.3477	1194.9063	1233.088	1268.4555	1297.2089	1316.9023	1347.0315	1374.2629	1387.4069	1395.0735	1411.8484	1424.4751	1445.7406	1495.2704	1499.8371	1509.3109	1510.7293	1732.0004	2981.3804	3004.7596	3025.2496	3038.3335	3042.7411	3063.4734	3099.7143	3107.4963	3123.0319	3155.901	3742.1674
CC1COC=NC1CO	C[C@H]1COC=N[C@H]1CO	
InChI=1S/C6H11NO2/c1-5-3-9-4-7-6(5)2-8/h4-6,8H,2-3H2,1H3	InChI=1S/C6H11NO2/c1-5-3-9-4-7-6(5)2-8/h4-6,8H,2-3H2,1H3/t5-,6-/m0/s1
