23
gdb 80909	2.39761	1.41988	1.31179	1.7476	86.39	-0.2308	0.0852	0.316	1174.658	0.202784	-388.241952	-388.231968	-388.231024	-388.275687	38.704	
C	-0.2274884216	 1.5307830388	 0.7980509309	-0.435732
C	-0.140859785	 0.0467342485	 0.4875442816	-0.017319
C	 1.0635786282	-0.4747839107	-0.3391925012	-0.008685
O	 1.9434161416	-0.1610449953	 0.8092286617	-0.348034
C	 0.7589662249	-0.8571152736	 1.3916170127	 0.365456
C	 0.7241140622	-1.0628242733	 2.8747205825	-0.522877
C	 0.8773100754	-1.9194454431	 0.2319613202	 0.310788
C	-0.3255039688	-2.7742476373	-0.16719845	-0.482608
C	 2.1374608044	-2.7839320856	 0.2591036985	-0.461886
H	 0.7551125372	 1.9310924726	 1.0532513468	 0.136073
H	-0.6178496197	 2.0843846268	-0.0631148519	 0.111253
H	-0.9093906657	 1.7139094656	 1.6362300474	 0.110228
H	-1.1195101337	-0.3590195016	 0.2263602969	 0.062799
H	 1.4114777586	-0.1631862822	-1.3264923106	 0.079852
H	 0.748112377	-0.1029956952	 3.4000589615	 0.133958
H	-0.1916451988	-1.5898541363	 3.16206465	 0.125211
H	 1.5820886174	-1.6573048228	 3.2035991946	 0.133728
H	-1.2721912048	-2.2350401578	-0.2149418304	 0.117928
H	-0.1531227913	-3.2259606986	-1.150770911	 0.119256
H	-0.4505342062	-3.5992233388	 0.543747474	 0.118263
H	 2.0253517195	-3.6060557708	 0.9759139315	 0.106894
H	 2.3105619315	-3.238205762	-0.7233046099	 0.107718
H	 3.0137298077	-2.1973710373	 0.5325265141	 0.137736
148.6161	169.7731	181.4751	193.6003	201.1868	213.9823	240.1464	253.7153	347.2384	385.36	402.8823	473.415	530.8714	607.4395	637.2016	719.89	734.5667	758.5386	811.0637	873.9237	931.6413	949.1867	961.0208	1008.9632	1021.0582	1062.9205	1093.3099	1106.7006	1117.0167	1167.685	1190.6214	1206.8804	1227.7211	1244.4018	1279.137	1337.9363	1391.059	1395.3394	1402.0071	1417.4502	1431.2615	1475.9966	1484.3031	1487.3138	1489.4966	1497.4883	1507.899	1508.7365	1516.2804	3027.1726	3032.7525	3034.3063	3036.6179	3078.3693	3086.0705	3086.4133	3089.2821	3096.6729	3109.019	3111.2182	3133.9656	3140.4658	3154.0227
CC1C2OC1(C)C2(C)C	C[C@H]1[C@H]2O[C@]1(C)C2(C)C	
InChI=1S/C8H14O/c1-5-6-7(2,3)8(5,4)9-6/h5-6H,1-4H3	InChI=1S/C8H14O/c1-5-6-7(2,3)8(5,4)9-6/h5-6H,1-4H3/t5-,6+,8-/m0/s1
