17
gdb 74152	2.84904	1.42165	1.02528	3.5203	77.43	-0.24	-0.0505	0.1895	1143.5328	0.134977	-421.850901	-421.842699	-421.841755	-421.883853	30.856	
C	-0.0466594245	 1.481517286	 0.0905706984	-0.508645
C	 0.0235939248	-0.0053959546	-0.0092261615	 0.28993
C	-0.0196009905	-0.7657195645	-1.1175194227	-0.306883
C	 0.0319812497	-2.2051614344	-0.7874449973	 0.380316
O	 0.0542196966	-3.1335724617	-1.5613555498	-0.329477
C	 0.0522322762	-2.3117687369	 0.7469340792	-0.437939
C	 0.1290002564	-0.8673781441	 1.2121124316	 0.348668
C	 0.7974805307	-0.4276184088	 2.4498278817	-0.243906
O	-0.6253853119	-0.4559368499	 2.3643674756	-0.270755
H	 0.9178920013	 1.8992758681	 0.4050753274	 0.141292
H	-0.316256999	 1.9366536446	-0.8643687018	 0.137622
H	-0.7808427989	 1.7707291397	 0.8496610363	 0.15835
H	-0.0891689197	-0.409347504	-2.1379392008	 0.116133
H	-0.8707456618	-2.7831194719	 1.0984142882	 0.151529
H	 0.8888899972	-2.9328316483	 1.0767801523	 0.134843
H	 1.24500547	-1.1810923116	 3.0969006426	 0.123138
H	 1.2448222235	 0.5632184424	 2.5150602907	 0.115786
73.3549	136.3499	174.9697	248.4454	271.4232	327.6796	360.18	493.1249	524.7746	542.7656	577.6777	630.086	715.2675	813.8371	842.3896	883.2882	906.8415	945.5274	999.6221	1008.5903	1062.31	1099.6771	1130.3911	1161.9821	1168.7893	1186.8553	1237.4065	1252.8217	1343.5514	1401.7093	1406.7957	1449.1728	1473.4405	1484.2773	1526.503	1671.0233	1816.506	3031.0813	3067.1281	3081.1363	3089.25	3113.0484	3133.9292	3168.4642	3214.7038
CC1=CC(=O)CC11CO1	CC1=CC(=O)C[C@]21CO2	
InChI=1S/C7H8O2/c1-5-2-6(8)3-7(5)4-9-7/h2H,3-4H2,1H3	InChI=1S/C7H8O2/c1-5-2-6(8)3-7(5)4-9-7/h2H,3-4H2,1H3/t7-/m1/s1
