18
gdb 102787	2.26999	1.19437	0.88902	3.2351	68.81	-0.2516	-0.0444	0.2073	1309.067	0.145905	-476.259368	-476.24962	-476.248676	-476.295023	33.822	
C	 0.3121996177	 1.2829113352	-0.250816854	-0.333533
N	 0.0681577376	-0.1204295775	 0.1057047556	-0.327209
H	 0.6232777097	-0.7066637479	-0.5071504234	 0.246852
H	-0.3913020925	-0.0136028341	 1.947183199	 0.305844
C	-1.3394209938	-0.507249128	-0.0240418134	-0.096202
C	-1.5051555797	-2.0236270885	-0.2017008715	-0.32146
C	-0.9238729228	-2.5890158407	-1.4763893991	 0.144402
O	-0.1965268519	-1.9874901967	-2.2286110829	-0.241914
C	-2.1057446092	-0.1131650466	 1.2570896693	 0.425161
O	-3.3044577965	-0.0584180173	 1.3150411135	-0.345561
O	-1.3011174815	 0.1062852742	 2.3053262791	-0.366535
H	 1.379302524	 1.4984225852	-0.155127824	 0.130988
H	-0.0062042656	 1.5251697496	-1.2754986081	 0.12561
H	-0.2271391193	 1.9392110391	 0.4392616145	 0.141517
H	-1.8370989645	-0.0063079777	-0.8666733838	 0.105642
H	-1.0411401735	-2.5688420146	 0.634849015	 0.143859
H	-2.571026199	-2.2772548253	-0.1603767462	 0.161758
H	-1.2066300992	-3.6449866684	-1.6818257195	 0.100781
49.96	74.4405	122.6121	161.9321	167.0117	204.7733	235.6569	255.3923	338.2205	435.4224	517.8353	607.6669	675.1688	728.3144	770.3702	807.3723	882.6007	896.5411	920.6676	969.2545	1062.1693	1072.1257	1138.852	1157.8706	1182.4815	1223.7227	1261.7004	1278.0838	1354.9093	1372.5219	1414.5654	1422.2228	1435.6434	1464.0685	1490.4656	1500.9035	1522.8624	1819.4022	1871.7723	2894.943	2997.907	3005.0354	3016.2395	3074.4756	3082.1867	3121.1546	3437.6354	3547.821
C[NH2+]C(CC=O)C([O-])=O	CN[C@@H](CC=O)C(=O)O	
InChI=1S/C5H9NO3/c1-6-4(2-3-7)5(8)9/h3-4,6H,2H2,1H3,(H,8,9)	InChI=1S/C5H9NO3/c1-6-4(2-3-7)5(8)9/h3-4,6H,2H2,1H3,(H,8,9)/t4-/m0/s1
