16
gdb 41118	3.65947	1.95379	1.58625	2.4207	71.35	-0.2196	-0.0125	0.2071	840.1786	0.12663	-400.666559	-400.660622	-400.659677	-400.696469	25.255	
C	 0.1062686851	 1.4796775292	-0.1672527613	-0.17172
O	 1.4912600929	 1.3742269379	 0.2569075186	-0.300054
C	 1.3181240361	 0.0104121477	 0.7251621773	 0.086149
C	 1.7299848447	-1.0645478393	-0.2322602569	-0.094404
C	 0.6054413995	-2.0789690629	-0.4720453992	-0.082112
C	-0.5977971533	-2.1692706167	 0.4125075311	-0.093484
C	-1.0836059961	-0.9358246232	 0.6044847206	-0.204239
C	-0.0784384455	-0.0152488659	 0.0052986686	 0.261828
N	 0.5673482595	-0.7832253951	-1.1566274923	-0.140359
H	-0.4779436847	 2.1026071134	 0.5235765112	 0.101647
H	 0.009222155	 1.8573446246	-1.189691318	 0.120967
H	 1.5058069834	-0.0745916641	 1.7983735644	 0.078437
H	 2.7285593817	-1.2696342723	-0.6069862316	 0.105366
H	 0.8878252003	-2.9263555194	-1.0899567144	 0.101024
H	-0.9816244239	-3.0975853591	 0.8140162519	 0.114197
H	-1.9118396744	-0.6413253748	 1.23479362	 0.116757
228.0496	302.3753	371.7434	394.2609	520.0185	590.7459	683.121	731.8215	736.0192	762.436	799.6333	811.8974	855.2799	881.5264	928.4209	965.9782	988.3845	990.1998	1013.2725	1047.541	1061.3384	1087.8821	1097.9457	1132.5693	1151.5663	1180.6444	1204.7892	1249.9857	1304.4335	1322.1702	1342.5292	1373.2578	1401.6216	1505.2824	1627.3473	3010.1317	3073.8183	3085.4197	3152.9521	3163.5759	3214.5094	3237.5834
C1OC2C3C4C=CC12N34	C1O[C@@H]2[C@H]3[C@H]4C=C[C@@]12N34	
InChI=1S/C7H7NO/c1-2-7-3-9-6(7)5-4(1)8(5)7/h1-2,4-6H,3H2	InChI=1S/C7H7NO/c1-2-7-3-9-6(7)5-4(1)8(5)7/h1-2,4-6H,3H2/t4-,5-,6-,7-,8?/m1/s1
