21
gdb 112903	1.89574	1.57758	1.00087	1.9077	74.8	-0.2502	0.0801	0.3303	1260.6273	0.181622	-461.373331	-461.363747	-461.362803	-461.407938	35.569	
C	 0.1139150464	 1.3858298279	 0.6794961702	-0.408954
C	 0.1590093793	-0.0081623272	 0.095238257	 0.230245
O	 1.2566094087	-0.1522962251	-0.7688175218	-0.262416
C	 1.5257289409	-1.5533727434	-0.7971848952	 0.090378
C	 2.8980596805	-1.8055403569	-1.3945059539	-0.421785
C	 1.2920470632	-1.9519001131	 0.6759401008	 0.083511
C	 2.5032475618	-1.8491390267	 1.6036367572	-0.065776
O	 2.1042935846	-1.9815019596	 2.9524646756	-0.427458
O	 0.322769841	-0.9896506951	 1.121711929	-0.306415
H	 1.0493854432	 1.5997650299	 1.2024134456	 0.129093
H	-0.0283580513	 2.1211246924	-0.1168812963	 0.129683
H	-0.7180472902	 1.4662628739	 1.3835899102	 0.129569
H	-0.7757663401	-0.2402498761	-0.4477359483	 0.065944
H	 0.7611268772	-2.0528815094	-1.4153069859	 0.07468
H	 3.6803901637	-1.2926146348	-0.8303005636	 0.135343
H	 3.11744112	-2.8774851897	-1.4064545084	 0.124872
H	 2.9265749439	-1.4417531894	-2.4248832542	 0.132254
H	 0.8507709516	-2.9516402294	 0.7642467993	 0.0855
H	 3.2141557541	-2.6568208931	 1.3988231485	 0.103566
H	 3.0153752789	-0.8899873914	 1.4272165974	 0.090203
H	 1.3550376826	-1.3817288339	 3.0579165867	 0.287962
54.5601	123.7693	147.0955	192.3301	213.9135	219.6614	277.7372	315.0456	389.5691	469.446	479.5513	495.5589	515.7768	687.9619	708.1394	807.2546	871.5364	888.768	932.7322	964.3487	1002.2917	1058.8793	1090.6068	1104.5377	1115.057	1136.3084	1158.8535	1169.1047	1193.6024	1225.5262	1300.9621	1333.334	1350.8093	1377.1764	1384.8629	1400.6245	1402.5157	1417.9365	1441.9132	1444.6454	1484.4347	1485.6852	1487.2277	1500.8489	1509.4706	2930.6781	2960.5843	2979.7979	3041.5624	3050.5267	3052.5464	3073.5014	3120.5791	3132.4665	3132.6314	3137.0109	3778.9589
CC1OC(C)C(CO)O1	C[C@H]1O[C@@H](C)[C@@H](CO)O1	
InChI=1S/C6H12O3/c1-4-6(3-7)9-5(2)8-4/h4-7H,3H2,1-2H3	InChI=1S/C6H12O3/c1-4-6(3-7)9-5(2)8-4/h4-7H,3H2,1-2H3/t4-,5-,6+/m0/s1
