19
gdb 88577	3.42244	1.09634	1.07459	2.1288	77.01	-0.2116	0.0223	0.234	1232.3459	0.160074	-419.203312	-419.194611	-419.193667	-419.237354	31.928	
C	 1.0118261474	 1.0268624237	-0.5358324322	-0.425663
C	 0.0296449296	 0.0638527347	 0.0755931588	 0.095181
O	 0.5390147648	-1.1555960351	 0.6290669499	-0.265659
C	-0.0639499643	-0.2129264384	 1.5232817599	-0.042572
C	 0.8422569612	 0.42500005	 2.5176263654	 0.349731
N	 0.4691287395	 1.3519647223	 3.317891706	-0.32814
C	 1.6507413242	 1.66601657	 4.1448174066	-0.157893
C	 2.8540622366	 0.9552015847	 3.4595483301	-0.1852
N	 2.1434589325	-0.0242873585	 2.63474238	-0.326088
H	 1.8908834992	 1.1610014747	 0.097997285	 0.123507
H	 1.3417320365	 0.6638466595	-1.5146511846	 0.131165
H	 0.5382311634	 2.0033745902	-0.6798577915	 0.135823
H	-0.8899106222	-0.0772576498	-0.4950642203	 0.099585
H	-1.033372779	-0.5040332812	 1.9237935598	 0.117717
H	 1.7915467323	 2.7472377329	 4.2278975204	 0.108354
H	 1.4905884964	 1.2806008102	 5.1606079944	 0.109816
H	 3.4426768357	 1.6519964605	 2.8451982789	 0.099713
H	 3.5299739541	 0.4706299769	 4.1691535182	 0.111567
H	 2.5760504021	-0.4859969171	 1.8503725352	 0.249056
47.5875	105.7569	161.2517	175.1171	203.3975	250.1984	376.6578	433.583	476.5947	531.8375	642.6301	720.679	749.3068	793.8182	861.1459	866.2501	916.4803	970.0468	991.4059	1010.1505	1029.0109	1051.426	1083.9966	1110.0448	1150.2281	1163.9157	1200.7386	1236.1612	1261.0865	1288.7797	1309.7776	1336.2431	1382.5319	1410.6519	1453.1526	1476.0296	1484.8541	1498.0787	1500.5501	1530.5098	1702.3591	2991.2965	3016.8952	3042.9841	3076.6986	3086.2784	3094.3886	3106.7536	3131.8431	3136.1818	3637.0775
CC1OC1C1=NCCN1	C[C@H]1O[C@H]1[C]1[N]CCN1	
InChI=1S/C6H10N2O/c1-4-5(9-4)6-7-2-3-8-6/h4-5H,2-3H2,1H3,(H,7,8)	InChI=1S/C6H10N2O/c1-4-5(9-4)6-7-2-3-8-6/h4-5H,2-3H2,1H3,(H,7,8)/t4-,5-/m1/s1
