19
gdb 99923	2.35518	1.33374	1.04195	1.6675	77.25	-0.2643	0.0371	0.3014	1215.9514	0.156854	-422.96926	-422.959628	-422.958684	-423.003483	36.615	
O	-0.0048172283	 1.3120095787	 0.3302042334	-0.431214
C	-0.0443634082	-0.0940647669	 0.1388815653	-0.099856
C	-1.5068498773	-0.5701176388	-0.0270505311	 0.121948
O	-2.2503968603	-0.1110234768	 1.0935732646	-0.451648
C	-2.039234911	 0.024741691	-1.2724429589	 0.322096
C	-2.4190060511	 0.5539980819	-2.2842235808	-0.483742
C	-1.5845346886	-2.0886783242	-0.0817187611	-0.001048
C	-1.5679972178	-2.8957020105	 1.1914485654	-0.281634
C	-2.8280341081	-2.8074033907	 0.3660820987	-0.266706
H	-0.3101644543	 1.7170102021	-0.4917061225	 0.29106
H	 0.5627939799	-0.4108733747	-0.7194022125	 0.100522
H	 0.3627811055	-0.5421977822	 1.0487506535	 0.12407
H	-1.91687365	 0.7796245082	 1.2719804336	 0.288273
H	-2.7881130288	 0.9986496231	-3.1758075443	 0.200672
H	-1.0628068691	-2.5041257953	-0.9384213719	 0.089753
H	-1.0095404866	-3.8251206492	 1.1960555353	 0.106808
H	-1.5564399913	-2.3471076355	 2.1252764186	 0.127434
H	-3.6327905695	-2.1999682778	 0.7615860419	 0.1352
H	-3.1437778253	-3.6760054122	-0.2004884272	 0.108011
78.3329	113.9084	144.5394	166.0879	199.8865	271.09	323.3994	384.9051	405.875	450.6797	471.4707	540.3383	551.3368	637.3005	647.6564	654.625	735.5255	792.2369	826.5676	889.767	919.0275	940.7137	1021.2913	1056.5017	1067.5465	1074.6575	1088.9972	1108.8484	1135.7149	1194.1367	1203.9837	1228.9797	1243.2465	1340.7122	1376.6167	1412.379	1432.5498	1457.5189	1489.8264	1500.0747	2218.9451	3019.4594	3108.1327	3140.6936	3144.5872	3156.2564	3227.1599	3240.8706	3496.8727	3745.3691	3773.7832
OCC(O)(C#C)C1CC1	OC[C@@](O)(C#C)C1CC1	
InChI=1S/C7H10O2/c1-2-7(9,5-8)6-3-4-6/h1,6,8-9H,3-5H2	InChI=1S/C7H10O2/c1-2-7(9,5-8)6-3-4-6/h1,6,8-9H,3-5H2/t7-/m0/s1
