18
gdb 37906	3.12202	2.13672	1.98537	1.8584	79.43	-0.2187	-0.0307	0.188	805.8757	0.151159	-364.701512	-364.695753	-364.694809	-364.731139	25.489	
C	-0.0151145113	 1.5811736487	 0.278796659	-0.223737
C	 1.4947518965	 1.5406041965	-0.0918012733	-0.015707
C	 2.6057229039	 0.9026820073	 0.8727144551	-0.037013
C	 2.3796175785	 0.7953546184	 2.4053282411	-0.264924
C	 1.0331173909	 0.0609894011	 2.4096621929	-0.121048
C	 0.8464370602	-0.5267899163	 1.2174164217	 0.066176
C	-0.0225876959	 0.0446606636	 0.0658645454	-0.051099
N	 1.2537687132	 0.1824776409	-0.7783648172	-0.158618
C	 2.0742429908	-0.4316146123	 0.3309770947	-0.021531
H	-0.3480427058	 1.980029042	 1.2384701933	 0.100931
H	-0.55092171	 2.084882949	-0.533598665	 0.10939
H	 1.8632308951	 2.3560887033	-0.7159776822	 0.081627
H	 3.6098622193	 1.2203623394	 0.5743478673	 0.065401
H	 3.2215988647	 0.2841564051	 2.8939629762	 0.109691
H	 2.2700943331	 1.7654273967	 2.9046495659	 0.108827
H	 0.2358178708	 0.3587044152	 3.0838028769	 0.097861
H	-0.8852843959	-0.4644801036	-0.3653677473	 0.08129
H	 2.7029287519	-1.2970817751	 0.1092991556	 0.072483
250.5217	326.1283	420.0732	446.2087	592.5982	643.3964	700.4654	726.0691	732.8198	799.5912	838.0699	875.5946	888.8185	913.8962	921.5962	931.8035	948.6843	962.3911	992.7509	1009.4131	1024.7825	1035.3545	1066.1081	1100.9361	1142.1031	1163.3756	1187.6738	1207.816	1224.8692	1245.3329	1254.0797	1256.5377	1272.8473	1302.5325	1326.5767	1334.5732	1469.369	1475.1962	1618.0147	3002.1958	3044.3295	3055.4771	3058.242	3077.5736	3095.4419	3101.1413	3115.3129	3172.5503
C1C2C3CC=C4C1N2C34	C1[C@H]2[C@H]3C[CH][C]4[C@@H]1N2[C@@H]34	
InChI=1S/C8H9N/c1-2-5-7-3-6-4(1)8(5)9(6)7/h1,5-8H,2-3H2	InChI=1S/C8H9N/c1-2-5-7-3-6-4(1)8(5)9(6)7/h1,5-8H,2-3H2/t5-,6-,7+,8-/m1/s1
