19
gdb 99310	4.17724	0.84605	0.76983	2.2775	72.92	-0.2462	0.0125	0.2587	1524.2408	0.156889	-460.162841	-460.153026	-460.152082	-460.199089	34.147	
C	-0.1806022741	 1.1502497878	-0.6996662428	-0.238359
O	-0.0196905979	-0.2323530384	-0.3547580032	-0.229267
C	 0.9012380267	-0.9052926434	-1.073312466	 0.419694
O	 1.557106752	-0.4189064952	-1.9556736421	-0.342749
C	 0.9831093649	-2.3423481739	-0.5584089404	-0.198016
O	 1.8993338679	-3.1399980286	-1.2533758027	-0.225626
C	 1.3710336908	-3.803738363	-2.368025133	 0.134169
C	 1.3147893172	-3.1195850551	-3.7097030588	-0.295462
C	 2.3494212024	-4.1910589	-3.4262734301	-0.287781
H	 0.7561419368	 1.6943702631	-0.5552187909	 0.142858
H	-0.4888507382	 1.2529522303	-1.7430915431	 0.142165
H	-0.9525804062	 1.5350460738	-0.0334460103	 0.134835
H	 1.3099576377	-2.2934058488	 0.4869956388	 0.139484
H	-0.0304500279	-2.7683800055	-0.5559323358	 0.120571
H	 0.5754980086	-4.5060510442	-2.1149816306	 0.08328
H	 0.4876704702	-3.3565001434	-4.3706589266	 0.106371
H	 1.6618028932	-2.0952647046	-3.7430447111	 0.15239
H	 3.3702071941	-3.8587646744	-3.2767657939	 0.129888
H	 2.248943142	-5.1645498265	-3.8925379275	 0.111554
38.205	53.5353	103.9209	122.0767	157.6815	206.2468	262.8772	312.4189	367.4328	417.1949	533.6721	583.5382	698.7161	751.2879	811.7724	825.3692	895.5642	959.4873	976.4106	1018.7962	1050.4873	1058.5048	1077.0013	1120.4077	1137.4167	1179.1298	1193.7662	1196.367	1208.2175	1225.6667	1245.224	1309.371	1381.4322	1412.3939	1455.5742	1462.3531	1473.9262	1482.2381	1497.3214	1499.2182	1836.0782	3009.0532	3052.8203	3067.2396	3088.8367	3127.86	3140.1051	3143.6928	3160.5332	3228.4746	3249.3084
COC(=O)COC1CC1	COC(=O)COC1CC1	
InChI=1S/C6H10O3/c1-8-6(7)4-9-5-2-3-5/h5H,2-4H2,1H3	InChI=1S/C6H10O3/c1-8-6(7)4-9-5-2-3-5/h5H,2-4H2,1H3
