20
gdb 66456	2.89317	1.71484	1.51529	1.643	81.88	-0.2214	0.0907	0.3122	994.1266	0.171353	-365.948511	-365.940792	-365.939848	-365.980082	31.322	
C	-0.0869665497	 1.4137053056	-0.0279781912	-0.516622
C	 0.0560168907	-0.0689433363	 0.096005436	 0.366327
C	 0.9989970446	-0.934395851	-0.6697458814	-0.092705
C	 1.0824430255	-2.1780943857	 0.232193708	-0.124581
C	 1.0995100552	-1.6623186107	 1.693006791	-0.254085
C	-0.2361845407	-0.9767693003	 1.3128311314	-0.17753
C	-0.4845363585	-2.0598412854	 0.205557499	 0.416895
C	-1.4860945105	-3.1675561986	 0.2156502093	-0.527788
N	-0.4815729428	-1.0266227959	-0.9340530753	-0.252418
H	 0.6213641308	 1.9335619817	 0.6275666946	 0.119181
H	 0.1052618407	 1.7305044245	-1.0578269923	 0.129789
H	-1.0982858171	 1.7388408922	 0.2394626557	 0.122977
H	 1.6906748963	-0.5785189461	-1.4245576784	 0.088023
H	 1.6412684425	-3.0498950539	-0.1041203834	 0.069582
H	 0.951021895	-2.4736224112	 2.4131351196	 0.097995
H	 1.9352510939	-1.0313794412	 2.0113133348	 0.092827
H	-0.9779648643	-0.6585381662	 2.0443969244	 0.066521
H	-2.50555787	-2.7667197229	 0.2367065399	 0.127596
H	-1.3873842709	-3.7868772549	-0.6826042227	 0.128346
H	-1.3520012505	-3.8103807935	 1.092854171	 0.119667
182.1731	191.0767	212.8614	239.473	261.5604	318.2872	440.0197	550.7105	579.2345	627.2996	735.8031	742.6294	813.2342	817.4415	848.1892	858.0347	890.7237	913.5411	951.7402	979.0381	982.344	1003.0194	1050.8448	1074.6405	1097.2526	1118.9843	1135.504	1154.3664	1161.9099	1205.7695	1219.3287	1255.5672	1266.0133	1301.5486	1345.5397	1401.2274	1411.6848	1441.0803	1476.922	1481.2862	1485.6289	1489.787	1493.3429	3025.0342	3026.3225	3041.7074	3088.6994	3094.7999	3096.0322	3099.0441	3105.3549	3123.58	3129.4362	3178.455
CC12C3C4CC1C4(C)N23	C[C@@]12[C@H]3[C@H]4C[C@@H]1[C@@]4(C)N23	
InChI=1S/C8H11N/c1-7-4-3-5(7)8(2)6(4)9(7)8/h4-6H,3H2,1-2H3	InChI=1S/C8H11N/c1-7-4-3-5(7)8(2)6(4)9(7)8/h4-6H,3H2,1-2H3/t4-,5-,6-,7+,8+,9?/m1/s1
