19
gdb 67260	2.64071	2.16276	1.70852	1.7275	77.11	-0.2338	0.0818	0.3156	885.1447	0.161569	-385.838197	-385.831681	-385.830737	-385.868629	27.847	
C	-0.0909292326	 1.5093838622	 0.0066343914	-0.531381
C	-0.0442691789	 0.0074420442	 0.0495681131	 0.357451
C	 0.8498246543	-0.8250770691	-0.964254803	-0.100065
C	 1.9226756666	-0.9968772368	 0.141162123	-0.255573
C	 0.7266672294	-0.874143786	 1.1031872275	-0.109102
C	-0.3011341587	-1.9639808211	 0.6832838884	-0.090897
C	-0.049375498	-2.0711592217	-0.8675691925	 0.090403
O	-1.394355695	-1.6087577157	-1.16528303	-0.301419
C	-1.3022986477	-0.9352952333	 0.1013511868	 0.026283
H	 0.9148896087	 1.9450390544	 0.0073829584	 0.118842
H	-0.6018828004	 1.8571222697	-0.8987954225	 0.126382
H	-0.6277605392	 1.9174399282	 0.8705338548	 0.116638
H	 1.0877542267	-0.4605977704	-1.9634712588	 0.067775
H	 2.5101848741	-1.9218166258	 0.1455729737	 0.090866
H	 2.5989476975	-0.1396235548	 0.2060428105	 0.101839
H	 0.8225025369	-0.6212412011	 2.1585522668	 0.064322
H	-0.5664299409	-2.845444518	 1.2626340426	 0.073504
H	 0.2276611907	-2.9850545914	-1.3921886671	 0.079353
H	-2.2516049037	-0.6013745634	 0.5208354968	 0.074777
213.5003	228.113	255.8599	376.1108	460.9251	531.3745	595.1943	690.2246	717.5406	803.162	823.066	837.1139	842.4322	852.4992	885.0347	912.9779	938.5501	948.0336	957.9937	986.95	1010.3372	1036.3363	1081.5915	1112.3277	1129.5808	1133.372	1157.2361	1169.0756	1188.8715	1213.2423	1229.3223	1233.344	1266.1659	1282.7861	1299.3938	1326.6379	1355.9969	1412.2739	1489.3594	1491.8592	1500.2602	3020.0519	3037.6267	3084.6783	3085.5833	3094.6902	3115.0475	3116.3993	3119.7717	3125.4876	3145.4443
CC12C3CC1C1C3OC21	C[C@@]12[C@H]3C[C@@H]1[C@@H]1[C@H]3O[C@H]21	
InChI=1S/C8H10O/c1-8-3-2-4(8)6-5(3)7(8)9-6/h3-7H,2H2,1H3	InChI=1S/C8H10O/c1-8-3-2-4(8)6-5(3)7(8)9-6/h3-7H,2H2,1H3/t3-,4+,5-,6+,7+,8+/m1/s1
