13
gdb 43271	4.04792	1.22394	1.09935	1.2342	69.77	-0.2611	-0.0863	0.1747	1053.5806	0.090266	-415.610011	-415.60295	-415.602006	-415.641666	26.599	
O	 0.0397393235	-0.016459805	-0.015178754	-0.308873
C	-0.0132899835	 1.1861188134	 0.0124969724	 0.439651
C	-1.2265425356	 2.0509577682	 0.0921580385	-0.202396
C	-0.8951350387	 3.3431978904	-0.0062486187	-0.097117
C	 0.597503276	 3.5108617894	-0.0998180446	 0.177228
N	 1.2831583796	 3.0042897595	 1.1306287345	-0.342497
C	 1.1789130703	 2.1391726889	-0.0651906655	-0.227054
C	 1.1818438303	 4.5847422708	-0.8493464523	 0.201987
N	 1.6453433498	 5.4640753483	-1.4408822805	-0.327329
H	-2.2187525738	 1.6427440279	 0.2295568221	 0.139535
H	-1.5669175885	 4.1915781507	 0.0185770322	 0.147707
H	 2.229110275	 3.3880660364	 1.1689831982	 0.258755
H	 2.0685321555	 1.858336561	-0.6154316123	 0.140402
106.3744	153.4234	214.8694	335.687	403.4261	430.066	497.4936	557.2356	588.3421	645.3933	725.6051	762.9209	822.8206	849.6413	879.5599	921.1785	984.8973	1004.9866	1075.3202	1086.1672	1129.056	1181.7916	1277.3454	1292.3165	1351.1026	1391.5593	1637.6244	1835.6364	2355.2931	3203.5731	3218.4977	3242.3048	3460.7857
O=C1C=CC2(NC12)C#N	O=C1C=C[C@]2(N[C@@H]12)C#N	
InChI=1S/C6H4N2O/c7-3-6-2-1-4(9)5(6)8-6/h1-2,5,8H	InChI=1S/C6H4N2O/c7-3-6-2-1-4(9)5(6)8-6/h1-2,5,8H/t5-,6-/m0/s1
