21
gdb 103711	2.862	1.14654	0.95991	2.0124	86.4	-0.2337	0.0557	0.2894	1325.6232	0.178304	-387.04748	-387.03677	-387.035826	-387.08257	40.03	
C	 0.1901198594	 1.5497170169	 0.2033767881	-0.394556
C	-0.1512710357	 0.0811255788	-0.0801714838	-0.225314
C	 0.6128864102	-0.4727082374	-1.2705535193	 0.378882
O	 0.3445791036	 0.2112695514	-2.4657455765	-0.459397
C	 1.9959100404	-1.0458646244	-1.1101679212	-0.38819
C	 0.8240529354	-1.9745342739	-1.4544049827	 0.05467
C	 0.3437852937	-2.973005566	-0.4075666311	-0.459581
C	 0.7670442957	-2.4877431629	-2.7987322602	 0.320372
C	 0.7046564053	-2.9838608261	-3.8925290076	-0.464896
H	 1.2563311793	 1.6755926254	 0.4228200992	 0.115398
H	-0.0594680169	 2.1831662022	-0.6536376928	 0.117629
H	-0.3744937553	 1.9226129925	 1.062660222	 0.11771
H	 0.0566430715	-0.5164023993	 0.8116437122	 0.097013
H	-1.2247285194	-0.0116254188	-0.2847676104	 0.110154
H	 0.8884840265	 1.0054717371	-2.482021341	 0.284695
H	 2.7138732026	-0.8513500272	-1.8985284268	 0.121652
H	 2.4151485262	-1.1325464666	-0.1124203444	 0.111427
H	 0.4865163644	-2.5999577821	 0.608933036	 0.114779
H	-0.7172046253	-3.2038935154	-0.5439761026	 0.130363
H	 0.9048147354	-3.9073694253	-0.5028546822	 0.130572
H	 0.6463906731	-3.3967718689	-4.8686187149	 0.186619
75.9493	112.2365	135.3505	168.2882	202.314	229.7064	243.8743	258.2987	297.4892	391.832	392.8456	401.3302	454.3568	546.4641	588.2947	610.314	638.9403	702.3056	709.292	790.8735	873.7795	907.9805	934.1081	967.1388	992.9496	1044.6088	1058.7669	1084.771	1107.7385	1169.914	1204.7536	1269.5472	1307.4399	1323.0923	1355.1924	1393.054	1403.9517	1414.2167	1470.6474	1478.2075	1488.5994	1498.2104	1503.2356	1512.5906	2235.2559	3032.9573	3037.5954	3043.3869	3084.8185	3104.9008	3108.4256	3111.4493	3124.1013	3128.5332	3223.9232	3505.4983	3810.8686
CCC1(O)CC1(C)C#C	CC[C@@]1(O)C[C@]1(C)C#C	
InChI=1S/C8H12O/c1-4-7(3)6-8(7,9)5-2/h1,9H,5-6H2,2-3H3	InChI=1S/C8H12O/c1-4-7(3)6-8(7,9)5-2/h1,9H,5-6H2,2-3H3/t7-,8+/m0/s1
