22
gdb 89728	2.39153	1.41543	1.20853	0.6365	81.92	-0.2354	0.069	0.3044	1163.4274	0.192644	-404.313299	-404.303552	-404.302608	-404.347133	37.657	
C	-0.0921133226	 1.5005460556	 0.0020691374	-0.420888
C	-0.024349468	-0.0299778728	-0.0093499135	 0.210464
C	-1.3967640779	-0.6412831043	-0.2749848208	-0.468769
C	 1.1418433508	-0.5687863014	-0.9012151308	 0.104259
O	 1.5508959021	 0.3225703231	-1.9127262504	-0.434885
C	 2.0355411232	-0.7391664019	 0.3611734716	-0.347496
C	 0.7677838623	-0.5845203871	 1.2037308792	 0.330915
C	 0.5969349227	-0.2916292903	 2.6397114832	-0.309621
N	 0.3214751794	-1.6454531249	 2.1078148115	-0.369283
H	 0.8813947198	 1.9483138056	 0.2167617812	 0.119109
H	-0.4224032522	 1.8815107777	-0.9686000876	 0.123115
H	-0.7993353581	 1.8431647473	 0.7652287724	 0.10313
H	-1.788150071	-0.3019968741	-1.2402663526	 0.124324
H	-1.3552943878	-1.7354363696	-0.297752084	 0.116108
H	-2.1234057268	-0.3452796255	 0.4918507079	 0.109516
H	 0.8741578757	-1.5478698648	-1.3240094799	 0.065448
H	 2.2952689678	-0.0708546092	-2.378531306	 0.284806
H	 2.5774824154	-1.680450372	 0.474655603	 0.105421
H	 2.7256752394	 0.1022614382	 0.4750455684	 0.104319
H	 1.4634739125	-0.2242477461	 3.292897245	 0.114764
H	-0.2438323827	 0.3285804922	 2.9428355347	 0.107738
H	-0.684298424	-1.7789804956	 2.0245832899	 0.227509
73.4107	191.6522	204.0487	215.537	233.5673	239.8581	269.5658	282.2891	340.5578	366.1762	422.0268	479.6117	507.1185	577.7459	661.1808	759.0666	825.3115	870.754	916.106	917.9357	954.4899	969.5521	984.4517	1009.3006	1026.272	1060.411	1106.2439	1123.2233	1156.0284	1179.4671	1186.2911	1222.7079	1242.1077	1262.4979	1274.3267	1287.123	1335.8209	1398.2768	1404.143	1411.852	1434.3537	1477.0825	1480.5132	1486.5605	1501.938	1505.18	1515.7964	2991.3019	3019.6319	3036.7971	3056.4227	3082.9054	3096.3738	3098.1173	3104.4984	3117.9919	3120.8702	3180.2641	3485.297	3820.9252
CC1(C)C(O)CC11CN1	CC1(C)[C@@H](O)C[C@]21CN2	
InChI=1S/C7H13NO/c1-6(2)5(9)3-7(6)4-8-7/h5,8-9H,3-4H2,1-2H3	InChI=1S/C7H13NO/c1-6(2)5(9)3-7(6)4-8-7/h5,8-9H,3-4H2,1-2H3/t5-,7+/m0/s1
