18
gdb 62689	2.51766	1.73944	1.31691	1.8871	71.95	-0.1975	0.0608	0.2583	1008.6033	0.145304	-438.979209	-438.97071	-438.969766	-439.011399	34.065	
C	-0.1610697216	 1.6326467405	-0.0393120887	-0.47392
C	 0.0850558984	 0.1487177883	 0.1138966379	 0.301804
O	-1.070034793	-0.5988441869	-0.2626733541	-0.481914
C	 1.337424617	-0.6747691802	-0.2220281992	-0.236338
C	 2.665366108	-0.1895196064	 0.4197855784	-0.056896
N	 2.4701646189	 1.0989194193	 1.1408591412	-0.344446
C	 2.0720972425	-0.1875920558	 1.7693109541	-0.121413
C	 0.7189927777	-0.6752048997	 1.1992957862	 0.406582
O	 0.0376086649	-1.6278430063	 1.9167420858	-0.470528
H	 0.6944807552	 2.2140273379	 0.2918360263	 0.162409
H	-0.3601415251	 1.86322389	-1.0949725432	 0.093669
H	-1.0481372229	 1.9160420171	 0.5369659907	 0.117325
H	-1.1987701121	-0.4951709081	-1.2114536096	 0.286682
H	 1.3004989314	-1.425816616	-1.0019269074	 0.086714
H	 3.6496506393	-0.5027085905	 0.0965014178	 0.098548
H	 3.3729183493	 1.3511303491	 1.5451081884	 0.23038
H	 2.4676260013	-0.5127324693	 2.722475516	 0.103582
H	-0.7769424194	-1.7953244429	 1.4221041492	 0.29776
166.7468	195.0188	225.8554	240.1062	283.1121	300.7172	357.1281	401.5423	430.3474	456.1638	500.4578	612.2161	630.8782	707.0398	731.9815	798.5701	833.8184	880.3439	908.5084	915.2281	936.056	966.9608	995.0368	1043.5731	1087.8892	1099.9331	1112.5686	1155.874	1197.7274	1218.7698	1269.0535	1293.4973	1296.7449	1362.8852	1396.8715	1424.3217	1458.4624	1486.9934	1508.5521	3014.5739	3082.9669	3182.7469	3191.8031	3194.3789	3208.4326	3456.2354	3755.348	3807.1978
CC1(O)C2C3NC3C12O	C[C@@]1(O)[C@H]2[C@H]3N[C@H]3[C@@]12O	
InChI=1S/C6H9NO2/c1-5(8)3-2-4(7-2)6(3,5)9/h2-4,7-9H,1H3	InChI=1S/C6H9NO2/c1-5(8)3-2-4(7-2)6(3,5)9/h2-4,7-9H,1H3/t2-,3-,4-,5-,6-/m1/s1
