15
gdb 76080	2.23781	1.39701	1.22625	4.4852	66.64	-0.2535	-0.003	0.2504	1073.5136	0.112143	-453.970585	-453.961697	-453.960753	-454.004664	32.178	
N	 0.5834984815	 0.4969915631	-0.6809167513	-0.529284
C	-0.1593813801	 0.219092229	 0.4167462282	 0.4065
O	 0.0129140071	 0.7356793167	 1.5039482002	-0.367075
C	-1.259749896	-0.815465267	 0.2615314126	-0.145779
C	-1.8126694103	-1.3903175329	-1.0080854075	 0.064575
O	-1.2653339524	-0.9660549934	-2.2169696165	-0.404418
C	-0.9824173302	-2.2874291149	-0.0972997243	-0.245071
C	 0.3022764401	-2.711028143	-0.5730516987	 0.292857
N	 1.3113153406	-3.0836218438	-0.9992252794	-0.334337
H	 1.3166826132	 1.1801701786	-0.5864799817	 0.263783
H	 0.337352657	 0.1278782323	-1.5852801666	 0.276374
H	-1.9715339771	-0.7098455112	 1.0713645964	 0.137529
H	-2.8827368497	-1.5874357601	-1.0385652328	 0.124352
H	-1.1357251847	-1.7325512429	-2.787959614	 0.311351
H	-1.504991229	-3.0313575403	 0.4944782155	 0.148642
49.6093	100.6417	129.6841	233.6743	263.8455	288.6441	344.9125	386.8549	401.9414	491.1583	520.9725	618.0303	645.0286	669.0968	770.8695	784.5751	806.6592	840.893	985.3622	1012.6468	1051.4634	1120.7241	1134.2938	1152.4857	1235.2947	1298.9267	1333.6288	1363.1478	1399.6327	1431.6753	1617.6109	1796.8334	2353.5651	3123.2426	3171.7305	3196.1496	3580.5536	3723.9031	3795.1119
NC(=O)C1C(O)C1C#N	NC(=O)[C@H]1[C@@H](O)[C@H]1C#N	
InChI=1S/C5H6N2O2/c6-1-2-3(4(2)8)5(7)9/h2-4,8H,(H2,7,9)	InChI=1S/C5H6N2O2/c6-1-2-3(4(2)8)5(7)9/h2-4,8H,(H2,7,9)/t2-,3+,4-/m0/s1
