14
gdb 133251	3.2252	1.43461	0.99921	4.4957	72.56	-0.2254	-0.0616	0.1638	1094.5193	0.100378	-474.120447	-474.112615	-474.111671	-474.153242	28.426	
C	-0.0323970684	 1.4537117455	 0.0096563546	-0.337266
N	-0.0066773934	-0.0002214833	 0.0529705971	-0.107357
N	-0.0451968492	-0.6415368088	-1.1595273399	-0.0525
N	-0.0270281123	-1.8935639374	-1.218108383	-0.249977
C	 0.0338871155	-2.7346639399	-0.051885932	 0.399201
N	 0.0501795784	-4.0063308833	-0.1689376348	-0.523358
C	 0.0744429578	-2.0546850785	 1.2286631621	-0.3922
C	 0.0520494105	-0.7167305348	 1.2170729141	 0.470653
F	 0.0836683048	 0.0356278073	 2.3065037355	-0.05355
H	 0.8698946001	 1.8743805528	 0.461770482	 0.15407
H	-0.0791601859	 1.7288961902	-1.0433536976	 0.170378
H	-0.9089611674	 1.8450691678	 0.533093556	 0.154065
H	 0.0140581755	-4.2466904492	-1.161753173	 0.223943
H	 0.120878354	-2.6131288685	 2.1522148588	 0.143899
75.4738	130.9902	180.6728	207.8675	302.0799	363.5095	463.0426	464.5823	537.7905	562.9734	645.7568	732.4523	744.9531	792.5245	852.5802	900.5085	925.3351	960.8755	1108.2615	1153.7992	1214.7276	1232.2948	1259.086	1332.8121	1421.0301	1465.597	1484.2376	1508.8059	1562.9298	1695.2543	1733.8782	3050.6283	3115.8328	3169.335	3244.9205	3463.4713
CN1N=NC(=N)C=C1F	Cn1nnc([NH])cc1F	
InChI=1S/C4H5FN4/c1-9-3(5)2-4(6)7-8-9/h2,6H,1H3	InChI=1S/C4H10FN4/c1-9-3(5)2-4(6)7-8-9/h3-4,6-8H,2H2,1H3
