21
gdb 70660	2.40934	1.45138	1.09022	2.8929	82.66	-0.2404	-0.0176	0.2228	1182.9385	0.182609	-387.110884	-387.102075	-387.101131	-387.144637	33.678	
C	-0.4088396004	 1.3465631994	-0.0251429785	-0.483406
C	-0.0082612396	-0.1071454999	 0.0646030177	 0.340574
C	-0.6272728424	-0.9976404559	 1.1248072275	-0.340305
C	 0.8430517008	-0.6627466919	 1.1890662034	-0.072716
C	 1.817564528	-1.6759242965	 0.6123892731	-0.221212
C	 1.2206017621	-2.0566114025	-0.7629921468	-0.265766
C	 0.4400872195	-0.8017335463	-1.2314296261	-0.108638
C	-0.727165581	-1.1448753895	-2.1275668887	 0.156608
O	-0.9295235181	-0.6781116006	-3.2194902857	-0.255864
H	 0.3957004995	 1.9524639463	-0.4580720167	 0.119668
H	-1.2959847617	 1.481808328	-0.654362312	 0.128817
H	-0.6395816731	 1.7526729154	 0.9645527183	 0.115472
H	-1.2787296529	-0.5092462056	 1.8416602172	 0.112147
H	-0.9310950677	-2.0111754488	 0.8845067017	 0.109951
H	 1.1835760304	-0.0082548167	 1.9847538627	 0.083715
H	 2.7988089149	-1.2039581339	 0.4840806732	 0.104458
H	 1.9631342138	-2.5537814944	 1.2511732235	 0.102017
H	 1.9810266289	-2.3566796692	-1.4876179735	 0.112805
H	 0.5350552561	-2.905538672	-0.6602918123	 0.107339
H	 1.0918151827	-0.1198263005	-1.7889845398	 0.086481
H	-1.4343261299	-1.8851830248	-1.6824716481	 0.067855
49.5613	106.9597	199.498	225.6043	244.6567	285.5971	344.2579	405.5196	426.6453	464.1773	568.9276	630.125	707.0451	815.8371	824.3904	879.63	915.4952	923.9253	949.1107	956.5995	1006.7405	1026.0033	1055.9681	1067.6808	1077.2216	1096.2441	1120.7044	1138.0165	1192.7235	1216.01	1250.7146	1278.7727	1296.4531	1310.0842	1339.0733	1347.9018	1400.4231	1423.3931	1427.2997	1486.1893	1488.4355	1492.8765	1499.408	1510.2517	1827.9066	2844.9471	3024.011	3034.0477	3039.2618	3050.4152	3072.9822	3083.6537	3100.8939	3103.9842	3129.6185	3162.4668	3209.7273
CC12CC1CCC2C=O	C[C@]12C[C@H]1CC[C@H]2C=O	
InChI=1S/C8H12O/c1-8-4-6(8)2-3-7(8)5-9/h5-7H,2-4H2,1H3	InChI=1S/C8H12O/c1-8-4-6(8)2-3-7(8)5-9/h5-7H,2-4H2,1H3/t6-,7+,8+/m1/s1
