18
gdb 91895	2.34282	1.59494	1.07033	2.1892	72.17	-0.237	-0.0183	0.2187	1116.9821	0.149159	-439.087712	-439.079764	-439.07882	-439.120229	30.93	
O	-0.073783942	 1.441953411	-0.0208631879	-0.435112
C	 0.0229655803	 0.0273096833	-0.0293755389	 0.115212
C	-1.3941836766	-0.5092323911	 0.2047236432	-0.19915
C	-1.5596637879	-1.9813715453	-0.1498725478	-0.050296
N	-1.711992944	-2.280066119	-1.5722924434	-0.326561
C	-0.4827206438	-2.7360791582	-0.8797550064	-0.138967
C	 0.7733427572	-2.0135888131	-1.2552766668	 0.417183
O	 1.8251638943	-2.5970465985	-1.3927399249	-0.326085
C	 0.625578903	-0.5052759744	-1.3478307157	-0.34252
H	 0.8156945831	 1.8043219937	-0.086719149	 0.283999
H	 0.6695086067	-0.3115403852	 0.7973639869	 0.076593
H	-1.6680446409	-0.3435200243	 1.2507987711	 0.109125
H	-2.0819005189	 0.0822615395	-0.408805254	 0.128155
H	-2.1480254373	-2.5728454607	 0.5475515036	 0.098397
H	-2.3268947225	-3.077052957	-1.7138502398	 0.242593
H	-0.3514738102	-3.7962913061	-0.6846204885	 0.10002
H	-0.0453704591	-0.2452254433	-2.17329124	 0.141999
H	 1.6126352588	-0.0721203114	-1.5322428916	 0.105415
91.918	128.2318	231.862	297.4592	330.9373	359.9319	407.4348	440.9834	490.9404	499.5828	579.7273	701.2783	784.9267	806.9152	855.1513	902.522	918.7856	939.8437	971.1139	1016.1065	1070.0599	1094.8955	1103.9694	1128.2785	1164.0057	1198.8718	1226.8854	1243.8151	1258.9931	1282.9093	1299.1822	1347.0628	1384.5132	1395.7177	1426.4293	1440.9984	1465.1043	1485.8097	1808.534	2957.2325	3050.8933	3053.1041	3096.5983	3111.4643	3135.1148	3162.4195	3508.1324	3816.5004
OC1CC2NC2C(=O)C1	O[C@H]1C[C@H]2N[C@H]2C(=O)C1	
InChI=1S/C6H9NO2/c8-3-1-4-6(7-4)5(9)2-3/h3-4,6-8H,1-2H2	InChI=1S/C6H9NO2/c8-3-1-4-6(7-4)5(9)2-3/h3-4,6-8H,1-2H2/t3-,4+,6+/m0/s1
