14
gdb 43317	2.66388	1.71258	1.21934	6.2068	72.73	-0.2653	-0.0772	0.1882	985.0071	0.102081	-399.578628	-399.571477	-399.570533	-399.61029	27.206	
O	 0.0179042133	-0.0155545083	-0.0644303164	-0.302422
C	-0.0241788309	 1.1853006447	-0.0117863532	 0.338465
C	-1.2226995375	 2.061210391	 0.0863946897	-0.192688
C	-0.8695676886	 3.3520482894	 0.0323324745	-0.064657
C	 0.6114812281	 3.5383448366	-0.0363324258	-0.126348
C	 1.3623979468	 3.0350353728	 1.1692691748	-0.295788
C	 1.1861496655	 2.1324107281	-0.057479765	 0.053382
C	 2.3373084824	 1.7701799098	-0.8249392907	 0.223778
N	 3.2685473316	 1.4832216404	-1.4476686618	-0.33909
H	-2.2193284639	 1.6562472987	 0.1966653631	 0.135541
H	-1.5471791236	 4.1962008683	 0.0854713546	 0.135804
H	 1.0431080569	 4.3287264166	-0.6375722865	 0.134218
H	 2.3680336661	 3.4036889959	 1.3383012606	 0.155075
H	 0.7970405638	 2.7852427561	 2.0600066321	 0.14473
117.4157	144.806	210.7738	306.7265	389.8111	427.2334	493.9668	562.9861	609.9695	654.682	727.4297	749.4648	834.1541	850.0338	884.5633	900.8216	982.4992	991.0048	1036.319	1053.9263	1087.5014	1105.984	1133.2927	1239.0092	1257.715	1356.0731	1374.8925	1477.5988	1636.3108	1830.4814	2359.0133	3139.6162	3197.4175	3206.6175	3237.7832	3240.4196
O=C1C=CC2CC12C#N	O=C1C=C[C@H]2C[C@@]12C#N	
InChI=1S/C7H5NO/c8-4-7-3-5(7)1-2-6(7)9/h1-2,5H,3H2	InChI=1S/C7H5NO/c8-4-7-3-5(7)1-2-6(7)9/h1-2,5H,3H2/t5-,7-/m0/s1
