18
gdb 37496	3.41559	2.23301	1.95979	2.2477	79.35	-0.1975	-0.0734	0.1241	784.9586	0.150808	-364.658625	-364.652961	-364.652017	-364.688031	25.663	
C	-0.0364325537	 1.4854313809	-0.0597540703	-0.193602
C	 1.4853863551	 1.3451216714	-0.0221788316	-0.029978
C	 1.2268172357	 0.0323097068	 0.7996212507	-0.006564
N	-0.1058203925	-0.0163715112	 0.0333937007	-0.122247
C	 0.540179578	-0.4708696409	-1.2093518358	-0.046924
C	 1.3590757962	-1.6472932094	-0.7901043182	-0.054249
C	 2.1160284386	-1.0737758416	 0.2082003054	-0.046454
C	 3.0978211999	-0.3065416961	-0.7367751685	-0.247267
C	 1.8936896733	 0.5967654201	-1.2919722652	-0.069413
H	-0.4620905861	 1.9337825206	 0.8416901316	 0.108132
H	-0.515987682	 1.9091791172	-0.9488038745	 0.097803
H	 2.1658404593	 2.1262987052	 0.3205100164	 0.070911
H	 1.1093341874	 0.1086985128	 1.8791286167	 0.0776
H	-0.1189827968	-0.5118748359	-2.0759663853	 0.075836
H	 1.8002821307	-2.3099150094	-1.531550791	 0.109273
H	 3.8601430202	 0.308144699	-0.2446902153	 0.102747
H	 3.577837028	-0.9367308595	-1.4863551035	 0.109549
H	 2.0567221087	 1.2048886101	-2.1856932023	 0.064848
372.1617	373.7466	411.9943	440.887	523.5872	637.1371	659.486	683.1737	753.7473	821.7356	846.4823	857.1698	879.4974	889.4705	899.4009	923.7129	961.9946	965.3415	993.0211	1002.4033	1027.8011	1042.2239	1072.4773	1082.7247	1133.844	1145.1008	1168.9287	1185.6157	1214.5686	1223.8136	1233.1881	1250.7851	1270.8736	1287.8109	1297.6657	1310.9711	1455.7107	1499.6797	1512.1752	3037.2255	3041.8997	3081.5104	3100.0238	3106.4846	3119.2783	3123.558	3131.0978	3143.7369
C1C2C3N1C1C=C3CC21	C1[C@H]2[C@H]3N1[C@@H]1[CH][C]3C[C@H]21	
InChI=1S/C8H9N/c1-4-2-7-5(1)6-3-9(7)8(4)6/h2,5-8H,1,3H2	InChI=1S/C8H9N/c1-4-2-7-5(1)6-3-9(7)8(4)6/h2,5-8H,1,3H2/t5-,6-,7-,8+/m1/s1
