14
gdb 130155	2.04856	1.91722	0.99261	4.6414	72.07	-0.2134	0.0051	0.2185	1099.1754	0.103545	-429.089451	-429.081031	-429.080087	-429.122194	31.272	
N	-0.0440269009	 1.3577400503	 0.132410097	-0.591919
C	 0.0128698991	-0.0181418403	 0.0577731241	 0.314576
N	-1.0743638948	-0.7660178693	 0.0412024559	-0.313846
N	-0.5918345242	-2.059775514	 0.0322659514	-0.267982
C	 0.7493230644	-2.1305491342	 0.0389471291	 0.338809
N	 1.4537515011	-3.3119638214	 0.1016134679	-0.609514
C	 1.2083482775	-0.8102610355	 0.0468770789	 0.013129
C	 2.5476452402	-0.3881487402	 0.0161343084	 0.154198
N	 3.657025134	-0.0459529196	-0.0208554324	-0.374796
H	 0.7314672704	 1.8391636831	-0.2988492425	 0.263296
H	-0.9398225307	 1.7381480089	-0.138021888	 0.258937
H	-1.2455149105	-2.8185585125	 0.1135684333	 0.27527
H	 1.0723924333	-4.0778593414	-0.4360106604	 0.261377
H	 2.4441827311	-3.196455554	-0.0638551927	 0.278465
114.175	138.3335	210.7354	250.5044	277.5784	310.7432	330.6096	422.6183	440.747	541.8693	551.3969	598.8796	606.297	624.0869	680.9704	689.8	768.9243	818.0378	1045.5743	1078.3439	1132.8558	1180.0626	1285.5983	1359.9521	1458.1299	1538.3327	1603.7859	1617.169	1653.4954	1664.9747	2320.4959	3557.8001	3566.3751	3654.3917	3670.3322	3687.0934
NC1=NNC(N)=C1C#N	Nc1n[nH]c(N)c1C#N	
InChI=1S/C4H5N5/c5-1-2-3(6)8-9-4(2)7/h(H5,6,7,8,9)	InChI=1S/C4H5N5/c5-1-2-3(6)8-9-4(2)7/h(H5,6,7,8,9)
