19
gdb 41402	2.55457	1.95683	1.41076	2.2499	73.9	-0.2473	0.0715	0.3188	965.3996	0.161478	-422.999035	-422.991965	-422.99102	-423.030407	28.458	
C	-0.0772033771	 1.3971504338	 0.2512788966	-0.26524
C	 1.4526981238	 1.5897216144	 0.0194654603	-0.334357
C	 1.6052624694	 0.0609250801	 0.0047501534	 0.26004
C	 2.6116673101	-0.8717014457	-0.6678336863	-0.168919
O	 2.5935274267	-1.7595149377	 0.4744223074	-0.295833
C	 1.8624930903	-0.7967271011	 1.2662805613	 0.07508
C	 0.4956607028	-1.2741550255	 1.7485004502	-0.118093
O	-0.4025533187	-1.1271275784	 0.6498163828	-0.262906
C	 0.0800685166	-0.0966624858	-0.1837464263	 0.100574
H	-0.3585574021	 1.482685277	 1.3036915683	 0.112174
H	-0.7551326937	 2.0130914452	-0.3423282023	 0.105159
H	 1.6686657843	 2.0305083268	-0.9583282655	 0.109322
H	 2.0164542943	 2.1403409308	 0.7767322146	 0.104571
H	 2.2876504236	-1.3719617566	-1.588363682	 0.105771
H	 3.6079051455	-0.434957025	-0.8236203565	 0.098776
H	 2.4832918612	-0.3783622822	 2.0678418201	 0.075433
H	 0.5014546582	-2.3261376842	 2.0475660072	 0.123313
H	 0.1729492239	-0.6656482108	 2.6076960957	 0.091761
H	-0.2741863091	-0.293692635	-1.1989562192	 0.083372
125.3145	185.8327	236.1687	288.4594	383.6907	413.8496	493.4635	628.5739	693.1312	736.7372	792.4356	816.242	855.5771	893.1377	907.4119	929.6504	951.5607	977.8301	1008.121	1021.2131	1070.7739	1087.7594	1130.5759	1136.0618	1166.2775	1172.4846	1203.7763	1222.7788	1239.4558	1243.9255	1247.8123	1274.7499	1308.3677	1332.693	1347.2576	1369.0175	1392.8443	1476.0534	1494.1408	1500.3185	1519.2579	2984.6665	3001.3155	3037.0352	3054.0252	3055.4204	3071.6302	3078.3601	3092.6775	3101.77	3129.1436
C1CC23COC2COC13	C1C[C@@]23CO[C@@H]2CO[C@@H]13	
InChI=1S/C7H10O2/c1-2-7-4-9-6(7)3-8-5(1)7/h5-6H,1-4H2	InChI=1S/C7H10O2/c1-2-7-4-9-6(7)3-8-5(1)7/h5-6H,1-4H2/t5-,6+,7-/m0/s1
