20
gdb 75185	3.75929	1.02149	0.87849	4.0582	83.97	-0.2367	0.0192	0.256	1360.7902	0.172184	-403.19823	-403.189492	-403.188547	-403.231929	32.74	
C	 0.0054317084	 1.5517121797	 0.0488270593	-0.475871
C	 0.0080934653	 0.0498053197	-0.0194221863	 0.312799
C	-0.0554535491	-0.6205947199	-1.1714462904	-0.151228
C	-0.0084472937	-2.1177403907	-1.2951362986	-0.211463
N	 0.2350853646	-2.760975813	-0.0119692004	-0.04741
C	-0.3609997692	-2.1437533537	 1.1578270174	-0.189846
C	 0.0993888243	-0.6882284409	 1.2982645584	-0.285243
C	 1.0195868847	-3.8698837945	 0.0597856866	 0.149405
O	 1.5488884221	-4.4200178786	-0.8841709568	-0.345662
H	 0.9081638542	 1.92453317	 0.5501739912	 0.126061
H	-0.0395705611	 2.0025028561	-0.94597598	 0.122968
H	-0.8478372837	 1.9210117552	 0.6323233	 0.122944
H	-0.1403278306	-0.080185298	-2.1111315403	 0.087414
H	-0.9465429878	-2.4904536353	-1.7394700954	 0.115706
H	 0.7920949539	-2.4364488868	-1.9701169511	 0.152887
H	-1.4564354762	-2.1710714624	 1.0702220025	 0.111304
H	-0.0888909942	-2.7333396312	 2.0381610164	 0.115366
H	 1.1317859649	-0.6548417454	 1.6739085868	 0.11706
H	-0.5154266424	-0.1837109228	 2.0548470012	 0.103961
H	 1.1284495758	-4.2267717577	 1.1038571296	 0.068848
50.5744	134.2135	183.3246	229.967	261.0501	308.9101	327.3229	350.1109	410.999	448.8432	535.7561	629.2296	716.0686	778.3594	820.4039	839.3691	935.9959	985.6744	1015.0618	1017.8711	1030.1808	1037.3483	1073.8646	1091.0016	1172.5843	1203.1934	1221.8854	1249.6912	1281.5673	1336.7768	1366.9541	1385.7677	1405.0044	1417.0031	1434.273	1456.3128	1473.7238	1480.4724	1490.5538	1493.306	1498.8077	1746.5012	1791.9623	2926.45	2966.1184	3001.8983	3009.3092	3015.92	3046.2061	3060.599	3078.73	3086.1989	3113.1481	3157.4906
CC1=CCN(CC1)C=O	CC1=CCN(CC1)C=O	
InChI=1S/C7H11NO/c1-7-2-4-8(6-9)5-3-7/h2,6H,3-5H2,1H3	InChI=1S/C7H11NO/c1-7-2-4-8(6-9)5-3-7/h2,6H,3-5H2,1H3
