21
gdb 121126	3.8517	0.84478	0.79776	0.6868	76.05	-0.255	0.0867	0.3417	1542.473	0.181289	-461.358774	-461.349009	-461.348065	-461.394422	34.651	
C	 0.1045939445	 1.454949465	-0.519236585	-0.225643
O	-0.1003730441	 0.0970290314	-0.8295564742	-0.237671
C	 0.7512434635	-0.7679126039	-0.1120304682	-0.072602
C	 0.4392509221	-2.195536109	-0.5480934758	 0.084497
C	 0.8921964143	-2.502634745	-1.9871021928	-0.125311
O	 2.1812744465	-3.0688937905	-1.8005787811	-0.250785
C	 2.0682210748	-3.8302481135	-0.6222205083	 0.230921
C	 3.424153034	-4.0400756155	 0.0119000555	-0.403606
O	 1.2126598927	-3.0934537711	 0.2473570224	-0.287831
H	-0.0837374277	 1.6620313791	 0.5458407473	 0.106581
H	 1.131439374	 1.7767722871	-0.7539576287	 0.106355
H	-0.5954430951	 2.038716504	-1.1218942386	 0.127424
H	 1.8112806491	-0.545459212	-0.3192042666	 0.094
H	 0.595546728	-0.6719936559	 0.9742892586	 0.095778
H	-0.630262504	-2.3911195724	-0.4072583896	 0.08846
H	 0.2149197756	-3.2192222162	-2.4747497757	 0.095609
H	 0.9794825396	-1.6091619608	-2.6070746111	 0.128348
H	 1.5828590233	-4.7980495891	-0.8517096391	 0.060948
H	 3.8880295366	-3.0726055057	 0.2185204425	 0.128083
H	 3.3142694761	-4.5926303679	 0.9482727369	 0.129127
H	 4.0676484862	-4.612499528	-0.6612651383	 0.127319
43.0598	81.8648	101.6843	166.4996	194.1718	216.0025	238.0853	318.4029	329.4308	408.1586	467.187	511.5829	706.8255	755.8085	849.8982	868.336	884.7284	952.9248	995.3762	1047.7732	1059.2487	1086.9763	1117.4102	1135.4554	1152.3893	1170.5036	1173.6265	1190.0424	1227.4988	1234.5997	1256.2083	1311.0088	1343.1561	1370.9266	1388.0653	1395.7515	1420.1032	1439.4029	1481.5906	1484.648	1485.9404	1487.005	1502.8533	1515.3901	1525.9135	2919.5808	2962.9088	2975.9585	2995.947	3002.5248	3018.3145	3044.702	3053.5012	3114.2685	3123.5064	3133.4049	3138.3954
COCC1COC(C)O1	COC[C@H]1CO[C@@H](C)O1	
InChI=1S/C6H12O3/c1-5-8-4-6(9-5)3-7-2/h5-6H,3-4H2,1-2H3	InChI=1S/C6H12O3/c1-5-8-4-6(9-5)3-7-2/h5-6H,3-4H2,1-2H3/t5-,6+/m1/s1
