21
gdb 115564	2.43696	1.10096	0.95327	2.38	79.39	-0.2462	-0.0222	0.224	1334.5457	0.180371	-424.222567	-424.212544	-424.211599	-424.257771	36.487	
C	-0.049181107	 1.6257045027	-0.0749193699	-0.453824
C	-0.0080455605	 0.1022323076	-0.0052674663	 0.194421
C	 1.1395064952	-0.5343269009	-0.8672145739	-0.269446
C	 2.0055394475	-0.6794053927	 0.4092863959	-0.224832
C	 0.7169324928	-0.5147581263	 1.2514443478	 0.01061
C	 0.7646527857	 0.2657315709	 2.5497195473	-0.109713
O	 1.5357283381	-0.5006719201	 3.4650034944	-0.421636
C	-1.3674708762	-0.5016862893	-0.2586933505	 0.118089
O	-2.3814910469	 0.1136827185	-0.4700070529	-0.25605
H	 0.9449565642	 2.0589422466	 0.0664805514	 0.111667
H	-0.4246072015	 1.9448227508	-1.0513426817	 0.128884
H	-0.7215975118	 2.0422903273	 0.6800798822	 0.127921
H	 0.8480548866	-1.5054630151	-1.2797892822	 0.105533
H	 1.5176655473	 0.0889706283	-1.6808536813	 0.107785
H	 2.5713943206	-1.6037192433	 0.5362025263	 0.108083
H	 2.6893342906	 0.16409355	 0.5433336031	 0.104493
H	 0.2908243341	-1.502127777	 1.4671441449	 0.083944
H	 1.2172645022	 1.2549765999	 2.3830232999	 0.086866
H	-0.2583729766	 0.4311404287	 2.9264230324	 0.091772
H	 1.628722043	 0.004839599	 4.277773891	 0.288647
H	-1.3718511874	-1.6185742856	-0.2355509878	 0.066787
59.0841	97.7178	116.2035	165.5877	224.6557	247.2349	267.8433	274.2546	309.9278	342.0286	445.5992	456.9145	504.2929	700.4151	758.5721	789.1213	866.9148	908.2965	924.0954	946.7134	970.5265	1001.5081	1029.6342	1070.6688	1101.7297	1136.7076	1167.4404	1187.3362	1198.5643	1229.3316	1257.4159	1264.7799	1271.2251	1287.7704	1330.0674	1370.5979	1408.1075	1430.995	1462.4024	1479.482	1489.5459	1492.386	1499.2959	1523.6857	1822.461	2839.0108	2963.6084	2998.6385	3036.5094	3044.2793	3050.8108	3062.0475	3105.5407	3115.1655	3116.9009	3122.6618	3829.5216
CC1(CCC1CO)C=O	C[C@]1(CC[C@H]1CO)C=O	
InChI=1S/C7H12O2/c1-7(5-9)3-2-6(7)4-8/h5-6,8H,2-4H2,1H3	InChI=1S/C7H12O2/c1-7(5-9)3-2-6(7)4-8/h5-6,8H,2-4H2,1H3/t6-,7-/m0/s1
