17
gdb 37776	3.36653	1.73181	1.30094	1.6791	79.52	-0.2211	-0.0425	0.1786	960.7416	0.138973	-384.626976	-384.62064	-384.619695	-384.657451	26.574	
O	-0.1025710114	 1.5464835527	 0.0114289674	-0.297713
C	 1.3379521501	 1.2308600765	-0.0043888835	 0.000016
C	 1.0747221308	 0.1795519944	 1.1211536683	-0.021261
C	 2.0128775137	-0.9132092332	 1.5003323782	-0.105614
C	 2.708064459	-1.7293822184	 0.6920832215	-0.094858
C	 2.6940765275	-1.7215347639	-0.7586775309	-0.094858
C	 1.9832898383	-0.8969361319	-1.5444950796	-0.105614
C	 1.05253764	 0.1913931543	-1.1354978062	-0.02126
C	-0.0114061431	 0.0745479609	 0.00281944	 0.000015
H	 2.0465693633	 2.0589794685	-0.0070160243	 0.099441
H	 0.6575509754	 0.6718950644	 2.0009880269	 0.085124
H	 2.1346165781	-1.0491479439	 2.5719301051	 0.095019
H	 3.3485545748	-2.4742885675	 1.1571750681	 0.090991
H	 3.3256127955	-2.4611194692	-1.2440638707	 0.090991
H	 2.0844446466	-1.0211625356	-2.619649387	 0.095019
H	 0.6181531623	 0.6928582517	-2.0017456241	 0.085124
H	-0.9382880408	-0.4988446097	 0.0089300505	 0.099441
180.2421	207.2151	376.8721	418.1197	454.5142	555.1946	583.9093	683.7639	684.9297	759.8838	760.5684	824.1937	889.2636	891.3893	908.1186	925.4231	938.1414	943.8383	998.6667	1007.9425	1018.4383	1054.274	1061.9613	1137.9546	1183.402	1197.7596	1202.9777	1221.6895	1244.1595	1275.0682	1285.1952	1363.813	1419.3057	1421.5879	1469.8148	1663.3881	1711.4662	3099.7447	3100.0163	3115.5204	3124.134	3143.9418	3151.7666	3165.7175	3176.6166
O1C2C3C=CC=CC2C13	O1[C@H]2[C@@H]3C=CC=C[C@H]2[C@H]13	
InChI=1S/C8H8O/c1-2-4-6-7-5(3-1)8(6)9-7/h1-8H	InChI=1S/C8H8O/c1-2-4-6-7-5(3-1)8(6)9-7/h1-8H/t5-,6+,7-,8+
