18
gdb 34229	3.36694	1.5728	1.36414	1.1612	82.39	-0.2263	0.0348	0.261	984.2503	0.14969	-364.720817	-364.713913	-364.712969	-364.751811	28.947	
C	 0.0148891946	-1.2238634022	 0.049157364	-0.350013
C	-0.0112397664	-0.0201587706	 0.0391016529	 0.078991
C	-0.0620963229	 1.4108878447	 0.0346670868	 0.237034
C	-1.0877901387	 2.2803468009	 0.7694893997	-0.246841
N	-0.6694898346	 3.4133823539	-0.1375916838	-0.165587
C	 0.7237303971	 3.6193181621	 0.3739723543	-0.166943
C	 1.3101041054	 2.2548267693	-0.0259233624	-0.11029
C	 1.1294916179	 2.3401408607	-1.5632837301	-0.243245
C	-0.354359697	 2.326792566	-1.208869423	-0.025339
H	 0.0393333356	-2.2852670672	 0.0575682023	 0.180628
H	-2.1116486093	 1.9708404786	 0.5440446001	 0.11531
H	-0.9834398797	 2.4765701765	 1.8408318883	 0.103293
H	 1.2121953822	 4.453356123	-0.1372615344	 0.103846
H	 0.7062383719	 3.8282704083	 1.4459331627	 0.103107
H	 2.2241033589	 1.8879882372	 0.4369945153	 0.078269
H	 1.5593166147	 3.1972973406	-2.089071705	 0.100726
H	 1.3951657961	 1.4092521143	-2.0705901586	 0.117868
H	-1.1722809158	 2.165998044	-1.9080904692	 0.089185
139.3789	152.4643	359.9981	411.1026	503.8786	510.0695	516.9192	550.3789	610.0306	643.1811	670.3433	693.3238	787.23	842.5895	867.5294	910.8893	915.3158	935.7048	951.5347	998.8052	1006.8501	1035.6104	1071.3167	1101.5026	1111.6074	1154.7005	1160.2437	1179.9042	1214.3673	1233.208	1242.2732	1255.6941	1287.4827	1313.3202	1326.0477	1487.4747	1504.4338	1532.1839	2226.2698	3049.1529	3055.994	3062.819	3106.9884	3113.3865	3118.9119	3138.6881	3143.1686	3502.2629
C#CC12CN3CC1CC23	C#C[C@@]12CN3C[C@@H]1C[C@@H]23	
InChI=1S/C8H9N/c1-2-8-5-9-4-6(8)3-7(8)9/h1,6-7H,3-5H2	InChI=1S/C8H9N/c1-2-8-5-9-4-6(8)3-7(8)9/h1,6-7H,3-5H2/t6-,7-,8+/m0/s1
