19
gdb 54027	2.11228	1.29019	0.93508	1.8778	77.04	-0.2489	-0.0499	0.199	1310.3276	0.155871	-423.041178	-423.03125	-423.030306	-423.077162	34.818	
C	-0.0040576241	 1.4913391712	-0.1894049899	-0.486184
C	-0.1287643624	-0.0069620264	-0.0359770987	 0.375914
O	-0.2574724727	-0.560612527	 1.0284967094	-0.289751
C	-0.052451351	-0.8217554606	-1.3515051799	-0.208719
C	 1.4310152142	-0.9282726547	-1.7180743978	 0.152491
O	 2.0726618656	-0.0403892425	-2.2171596272	-0.246784
C	-0.6939244777	-2.1833179194	-1.2177611967	 0.024579
C	-2.1216218497	-2.3990891987	-1.6450990229	-0.273038
C	-0.9974047042	-3.0038620459	-2.4483057965	-0.28691
H	 0.8173655457	 1.7340141274	-0.870821542	 0.16637
H	-0.9222231471	 1.8829536649	-0.6442123963	 0.143963
H	 0.1429419483	 1.960096742	 0.7842887794	 0.142658
H	-0.5191276188	-0.2266260913	-2.1451342541	 0.105875
H	 1.892843513	-1.907667571	-1.4665303686	 0.098228
H	-0.3749222536	-2.7217266818	-0.3317716773	 0.111868
H	-2.7389313068	-3.0558662632	-1.043173428	 0.122776
H	-2.6579364456	-1.5601458291	-2.0767478423	 0.112349
H	-0.7804471099	-2.5696391739	-3.4192069178	 0.115363
H	-0.8455762034	-4.07625869	-2.4003773527	 0.118954
53.1453	65.8966	77.5863	153.4006	176.8552	188.6431	206.9718	328.3459	371.0049	414.9496	499.419	586.2458	593.298	763.1457	792.476	831.5943	879.3654	921.1552	952.5271	972.9985	985.3264	1044.9747	1062.2527	1084.1883	1092.0068	1136.7906	1159.7211	1197.2845	1198.0542	1224.4391	1231.6746	1280.3324	1385.9058	1414.278	1423.7781	1467.3018	1471.757	1474.8259	1507.7633	1801.1635	1830.1706	2899.6958	3035.9952	3049.8943	3102.8911	3130.2655	3135.441	3155.8567	3171.5006	3209.7065	3225.0367
CC(=O)C(C=O)C1CC1	CC(=O)[C@@H](C=O)C1CC1	
InChI=1S/C7H10O2/c1-5(9)7(4-8)6-2-3-6/h4,6-7H,2-3H2,1H3	InChI=1S/C7H10O2/c1-5(9)7(4-8)6-2-3-6/h4,6-7H,2-3H2,1H3/t7-/m1/s1
