19
gdb 32919	4.62381	0.8031	0.71847	0.2474	80.31	-0.1701	0.0641	0.2342	1595.9804	0.159612	-419.231733	-419.22224	-419.221296	-419.266748	34.94	
C	 0.3223540262	 1.5571946666	-0.06163072	-0.39115
C	 0.6201010379	 0.0617471077	-0.0831322051	-0.115306
N	 0.0788593973	-0.558863336	-1.3039869068	-0.403581
C	 0.3319519262	-1.9353584159	-1.4581356139	 0.283786
C	-0.3139014665	-3.0741606173	-1.0453550462	-0.201884
C	 0.4165779254	-4.2048897752	-1.539215243	-0.291214
C	 1.4926538137	-3.7006966671	-2.2267549672	 0.369561
O	 2.5238618024	-4.2748677464	-2.9021115368	-0.440127
N	 1.448429045	-2.3382155213	-2.1809378307	-0.311481
H	 0.7397857628	 2.0485934133	-0.9453423971	 0.12386
H	-0.758074055	 1.7441310129	-0.0522276112	 0.111712
H	 0.7456693079	 2.0242088011	 0.8325348998	 0.116572
H	 1.7030697707	-0.1054054571	-0.0815533205	 0.105676
H	 0.2295159225	-0.4169614487	 0.8302203595	 0.088956
H	-0.9162739063	-0.3767203154	-1.3678969526	 0.224999
H	-1.2126105665	-3.1050654651	-0.4478293117	 0.081879
H	 0.1824995389	-5.2485976971	-1.3956422523	 0.081445
H	 2.4265768585	-5.2295490168	-2.8382246177	 0.304502
H	 2.066681639	-1.7176122522	-2.6744626867	 0.261796
48.5586	68.0399	105.7166	226.4447	248.9109	258.3903	304.7162	338.819	388.116	445.5879	472.0342	633.7236	652.8973	681.5536	695.0909	726.829	768.3	800.0645	815.6932	916.3095	1005.074	1020.2722	1055.3919	1066.9045	1134.9197	1156.1629	1169.5102	1234.8575	1265.5607	1292.9221	1305.6288	1374.3482	1409.8548	1410.4822	1475.109	1494.188	1498.4589	1521.7134	1535.1171	1578.4129	1640.648	2965.2334	3031.842	3056.0686	3099.1485	3118.2676	3235.8226	3250.1942	3533.8438	3681.7654	3848.0002
CCNC1=CC=C(O)N1	CCNc1ccc(O)[nH]1	
InChI=1S/C6H10N2O/c1-2-7-5-3-4-6(9)8-5/h3-4,7-9H,2H2,1H3	InChI=1S/C6H10N2O/c1-2-7-5-3-4-6(9)8-5/h3-4,7-9H,2H2,1H3
