16
gdb 36013	3.16509	1.03994	0.85581	4.4372	72.96	-0.274	0.0016	0.2756	1311.7921	0.124596	-396.923232	-396.91435	-396.913406	-396.957752	31.13	
N	-0.2314490873	-1.1125044624	-0.0991906431	-0.286973
C	-0.1268099235	 0.037698475	-0.0986823276	 0.268244
C	 0.0193175844	 1.4901893378	-0.0764790908	-0.343352
C	 1.5009694774	 1.9540924762	 0.0340738072	-0.177868
C	 2.2584416584	 1.5538750655	-1.154519043	 0.286552
N	 2.848828753	 1.2848195916	-2.1107125893	-0.316372
C	 1.5626318877	 3.4657290977	 0.255818547	 0.006335
C	 2.7352066332	 4.2798332643	-0.1384420559	-0.256399
N	 1.451557334	 4.4182946102	-0.8527526506	-0.314994
H	-0.4379190685	 1.9170591785	-0.9744783387	 0.176982
H	-0.5301631065	 1.8858982698	 0.7839593972	 0.16711
H	 1.9493074244	 1.4551375183	 0.9019995632	 0.15734
H	 1.0037012302	 3.7634678293	 1.1413921635	 0.110328
H	 3.019227348	 5.1346180357	 0.4675153926	 0.132001
H	 3.5553120723	 3.7823652131	-0.6478196677	 0.143823
H	 1.5129517129	 3.9346085594	-1.7474992439	 0.247242
61.7494	76.4985	122.4453	160.5085	203.4653	244.3439	366.5696	391.5548	414.1068	488.6668	590.0576	638.0014	784.8347	822.1145	854.8228	932.5012	943.4926	982.9793	1000.6982	1033.5398	1081.415	1131.408	1149.0141	1188.9805	1214.216	1263.7425	1280.1858	1311.7819	1347.6939	1349.3913	1412.3928	1464.1899	1513.3353	2360.048	2369.2921	3043.5404	3059.2051	3103.5401	3119.892	3123.4873	3210.1534	3481.3937
N#CCC(C#N)C1CN1	N#CC[C@@H](C#N)[C@H]1CN1	
InChI=1S/C6H7N3/c7-2-1-5(3-8)6-4-9-6/h5-6,9H,1,4H2	InChI=1S/C6H7N3/c7-2-1-5(3-8)6-4-9-6/h5-6,9H,1,4H2/t5-,6+/m0/s1
