18
gdb 55535	3.36889	0.98146	0.83532	3.1539	76.02	-0.2451	-0.0262	0.219	1399.5887	0.145174	-439.103603	-439.093978	-439.093033	-439.139936	33.383	
C	 0.5565948262	 0.502580864	-0.6075613532	-0.482132
C	-0.3650539824	-0.0016986459	 0.4799965724	 0.383354
O	-0.1345088678	 0.1210034591	 1.6576444531	-0.286009
C	-1.6594308942	-0.6896854276	 0.003808769	-0.381304
C	-1.3552457956	-2.058290262	-0.6016002842	 0.352429
O	-0.7588525927	-2.2006312651	-1.6479662666	-0.336763
N	-1.7175811246	-3.1285734051	 0.2043206338	-0.059416
C	-3.0696549546	-3.5292980302	 0.5448766262	-0.230402
C	-2.1845752703	-4.3902220058	-0.3120685124	-0.218931
H	 1.514668069	 0.7982370604	-0.1788185278	 0.138674
H	 0.6829380249	-0.2606657713	-1.3805068808	 0.173608
H	 0.0949243955	 1.3720234885	-1.0921184938	 0.138636
H	-2.3300987151	-0.7708266236	 0.8590283078	 0.127866
H	-2.1182725913	-0.0846125505	-0.7848849033	 0.134606
H	-3.242776414	-3.7878267721	 1.5856373863	 0.136449
H	-3.8909524774	-3.0118779337	 0.0546334669	 0.133413
H	-2.3924960654	-4.4384951238	-1.3774556798	 0.141518
H	-1.7252775701	-5.2773775553	 0.1136218564	 0.134405
24.534	58.7969	87.8208	163.2262	176.6605	205.4251	223.4658	343.3304	425.8334	493.2043	532.2099	608.7466	664.2372	762.7384	811.4063	829.31	889.947	938.7615	979.4797	1027.0815	1050.9444	1054.6619	1118.8617	1129.1162	1134.904	1163.2992	1175.464	1184.2146	1236.5798	1282.9418	1385.0394	1407.1937	1455.4271	1470.122	1475.0416	1495.2329	1523.6008	1771.5351	1823.47	3036.1645	3060.9923	3106.4438	3108.0593	3118.7638	3144.9464	3159.1153	3194.6236	3211.0339
CC(=O)CC(=O)N1CC1	CC(=O)CC(=O)N1CC1	
InChI=1S/C6H9NO2/c1-5(8)4-6(9)7-2-3-7/h2-4H2,1H3	InChI=1S/C6H9NO2/c1-5(8)4-6(9)7-2-3-7/h2-4H2,1H3
