18
gdb 133878	3.53569	2.16998	1.87468	1.6747	77.35	-0.2301	0.0938	0.3239	800.3447	0.152293	-364.737867	-364.732498	-364.731554	-364.767136	24.515	
C	-1.4348507392	 1.4276927955	 0.4334233756	-0.347335
C	-1.5709806058	 0.0579778234	-0.3333500066	-0.099015
C	-0.7638689082	-0.6297313038	 0.8145240417	-0.036866
C	 0.3281610154	-1.5427059681	 0.2960830508	-0.082799
C	 1.597664961	-0.7409193433	 0.2648683473	-0.033654
C	 1.401093053	 0.6292129261	 0.958825058	-0.374927
C	-0.0542351033	 0.7405725816	 0.5647956254	 0.288908
C	-0.1509530665	 0.2979513866	-0.9171839315	 0.025445
N	 0.735379246	-0.8843980627	-0.9625149129	-0.150055
H	-2.0297012121	 1.534730841	 1.3440556396	 0.098902
H	-1.4839228484	 2.3348898636	-0.1753324002	 0.098509
H	-2.460096755	-0.3129924604	-0.8458192729	 0.074833
H	-1.2337024642	-0.8249820746	 1.7787780611	 0.066549
H	 0.2992509703	-2.6257927006	 0.324299442	 0.08886
H	 2.5765779442	-1.2040540598	 0.2113145005	 0.092577
H	 2.0456532782	 1.4028167822	 0.5306692133	 0.11021
H	 1.5860992419	 0.5606598415	 2.0351424605	 0.109174
H	 0.0072936125	 1.0144440717	-1.7236937717	 0.070685
372.0013	403.5609	442.4057	485.5741	662.9657	719.0038	740.4596	755.4645	790.7381	804.7131	820.3951	854.2988	898.7129	901.291	932.7967	947.9183	978.5329	1002.6714	1006.9448	1030.171	1046.7808	1059.5164	1073.5303	1079.7332	1116.2549	1131.8091	1184.8243	1194.3872	1196.0092	1205.3731	1218.9669	1238.2382	1260.145	1279.8676	1309.6345	1333.0638	1361.5073	1482.3849	1517.6696	3051.6501	3053.622	3096.0688	3103.0672	3111.9688	3114.8825	3118.7214	3173.6988	3184.7018
C1C2C3C4C5CC13C2N45	C1[C@@H]2[C@H]3[C@@H]4[C@@H]5C[C@]13[C@H]2N45	
InChI=1S/C8H9N/c1-3-5-6-4-2-8(1,5)7(3)9(4)6/h3-7H,1-2H2	InChI=1S/C8H9N/c1-3-5-6-4-2-8(1,5)7(3)9(4)6/h3-7H,1-2H2/t3-,4+,5+,6+,7+,8-,9?/m1/s1
