19
gdb 72419	2.79842	1.61118	1.33504	2.7643	74.09	-0.2314	-0.017	0.2144	1023.3458	0.16021	-423.069268	-423.061565	-423.060621	-423.101172	30.86	
C	 0.0200545408	 1.4763685916	 0.0415405372	-0.477678
C	-0.0311841358	-0.0318386892	-0.0372963955	 0.386353
C	 0.7061550347	-0.6834509735	-1.2397377967	-0.252438
C	 1.0818804625	-2.0834453494	-0.6738650824	-0.238207
C	 0.4860946057	-1.9915012975	 0.7550844657	-0.041846
O	 0.6635735221	-0.6153142484	 1.0933781454	-0.289337
C	-1.0388349372	-2.0841921255	 0.6004313209	 0.422859
O	-1.7516833459	-3.0311919929	 0.793326373	-0.31886
C	-1.4278400719	-0.6799161649	 0.107902029	-0.37539
H	 1.0578547595	 1.8222912509	 0.0469511542	 0.128032
H	-0.4883174816	 1.922160509	-0.8188920839	 0.122884
H	-0.4678414653	 1.833890927	 0.9528224648	 0.127797
H	 0.0763344074	-0.735788281	-2.1314177207	 0.105116
H	 1.5972673807	-0.1040832312	-1.4919292225	 0.108034
H	 0.669760755	-2.9165922203	-1.2487654379	 0.119326
H	 2.1643125041	-2.2146173765	-0.6139935429	 0.116791
H	 0.9165495003	-2.6475512132	 1.5091034841	 0.098258
H	-2.0129426535	-0.1682080636	 0.8793352355	 0.132987
H	-2.0280539915	-0.7291292812	-0.8039398774	 0.125319
103.6471	205.1847	207.9067	279.4114	305.1298	389.1575	459.2754	508.8604	546.4398	589.735	625.0115	699.4205	787.0848	826.8436	838.0599	880.1157	893.3161	908.9898	949.9214	975.1277	1013.0186	1033.8838	1063.8156	1088.3271	1159.7152	1171.3532	1197.7697	1215.0389	1232.0853	1267.5633	1277.3197	1308.9454	1319.9447	1347.0639	1414.7141	1444.8857	1480.9385	1485.555	1494.767	1504.6994	1866.6006	3041.4538	3056.5016	3063.805	3073.1227	3103.9604	3112.2801	3115.7736	3118.0024	3124.1491	3148.489
CC12CCC(O1)C(=O)C2	C[C@@]12CC[C@@H](O1)C(=O)C2	
InChI=1S/C7H10O2/c1-7-3-2-6(9-7)5(8)4-7/h6H,2-4H2,1H3	InChI=1S/C7H10O2/c1-7-3-2-6(9-7)5(8)4-7/h6H,2-4H2,1H3/t6-,7+/m1/s1
