18
gdb 41047	3.26093	2.0995	1.91073	1.6592	76.92	-0.1978	0.0594	0.2572	817.2152	0.149974	-364.66425	-364.658243	-364.657298	-364.694046	26.566	
C	-0.0121063565	 1.5429739148	-0.1468385619	-0.313734
C	 1.54103528	 1.5605039632	 0.140072314	-0.353455
C	 1.4045159453	 0.1192045755	 0.6634842981	 0.329334
C	 0.9346667036	-0.4775850949	 2.0031204329	-0.190882
C	 0.9099885285	-1.7472516754	 1.214408003	-0.014596
C	-0.3532119689	-0.8457908475	 1.256582689	-0.154248
C	 0.0033557377	 0.000564644	 0.034831285	 0.201396
C	 0.6702328656	-0.952466312	-0.9979780877	-0.232125
N	 1.7315503252	-1.2576341006	 0.0459455248	-0.206494
H	-0.5833675363	 2.0470855174	 0.6362845468	 0.115756
H	-0.3408464015	 1.9276526583	-1.1150990351	 0.107142
H	 2.1479430042	 1.6206917526	-0.7670496274	 0.12361
H	 1.9121419433	 2.3041078298	 0.8491310102	 0.111934
H	 1.1672546872	-0.2871974307	 3.0428677804	 0.092157
H	 0.9256135409	-2.7759047603	 1.5462355053	 0.095468
H	-1.2986364485	-1.2133140734	 1.6384888389	 0.08297
H	 0.115890244	-1.8230288195	-1.3606441772	 0.100329
H	 1.126929156	-0.4291866613	-1.842739139	 0.105439
225.4346	294.6087	391.5139	458.0708	557.742	608.6421	659.3797	732.3601	759.276	772.2074	807.6403	809.5615	825.0697	847.3523	864.1947	891.8572	934.2157	939.9866	979.2316	988.3376	1008.4011	1039.8014	1057.8298	1074.4395	1136.0406	1140.7958	1163.3926	1185.9967	1215.8738	1227.8689	1240.595	1253.5972	1261.3707	1290.758	1305.1187	1337.5894	1463.0007	1475.7089	1497.7658	3050.0292	3062.3373	3066.3978	3107.7313	3110.1105	3125.5539	3174.2063	3193.5547	3218.333
C1CC23C4C5C4C12CN35	C1C[C@@]23[C@@H]4[C@H]5[C@@H]4[C@@]12CN35	
InChI=1S/C8H9N/c1-2-8-5-4-6(5)9(8)3-7(1,4)8/h4-6H,1-3H2	InChI=1S/C8H9N/c1-2-8-5-4-6(5)9(8)3-7(1,4)8/h4-6H,1-3H2/t4-,5+,6-,7+,8-/m1/s1
