19
gdb 119843	4.57733	0.91655	0.81259	2.3614	78.77	-0.2192	0.0207	0.24	1449.8636	0.160057	-419.200529	-419.191918	-419.190973	-419.234548	32.007	
C	 0.1038563003	 1.5011329321	 0.0620258142	-0.401151
C	-0.1360885706	 0.006602013	-0.1205344271	-0.105787
N	 0.6659324137	-0.5182746075	-1.2179191203	-0.389052
C	 0.7776352241	-1.8629066826	-1.4164676157	 0.445549
N	 0.3335874475	-2.7595738601	-0.6086506496	-0.325525
C	 0.7730379468	-4.078885955	-1.0837133947	-0.183756
C	 1.4786055554	-3.8560627965	-2.4157579283	 0.0345
O	 0.6361162469	-3.2488955925	-3.4022339917	-0.246923
C	 1.4992129818	-2.4019080675	-2.6221135959	-0.104395
H	 1.157460841	 1.7077005512	 0.2727552185	 0.126738
H	-0.1804313048	 2.0644663987	-0.8348719384	 0.113925
H	-0.4956733309	 1.8834824809	 0.8926742887	 0.126063
H	 0.1454623524	-0.550479454	 0.7773589701	 0.137418
H	-1.2047355823	-0.1964494022	-0.2837137503	 0.109586
H	 0.7169329471	 0.0563996031	-2.0454720965	 0.239782
H	 1.4562115132	-4.5365681976	-0.3556287406	 0.105035
H	-0.0866980538	-4.7514254936	-1.1879554967	 0.118113
H	 2.2443559047	-4.5258869678	-2.7973478343	 0.100278
H	 2.2562125376	-1.8466314821	-3.1694880611	 0.0996
41.1727	105.4082	140.8539	234.5679	283.0843	300.8906	351.9854	400.3962	415.9039	480.4287	703.8179	718.2749	789.6421	804.2877	827.6943	866.4653	904.7905	926.6362	935.4006	980.6437	1035.2275	1050.2557	1083.8974	1105.7353	1149.5881	1175.2668	1209.7785	1237.325	1272.5854	1287.8618	1320.8602	1334.264	1391.167	1409.2715	1417.2346	1477.6369	1492.8511	1498.0197	1521.5224	1543.2035	1693.657	3000.2747	3018.8377	3032.1111	3058.4895	3083.5866	3105.3143	3120.8589	3146.6003	3158.7222	3612.7536
CCNC1=NCC2OC12	CCNC1=NC[C@H]2O[C@@H]12	
InChI=1S/C6H10N2O/c1-2-7-6-5-4(9-5)3-8-6/h4-5H,2-3H2,1H3,(H,7,8)	InChI=1S/C6H10N2O/c1-2-7-6-5-4(9-5)3-8-6/h4-5H,2-3H2,1H3,(H,7,8)/t4-,5-/m1/s1
