21
gdb 69985	2.90215	1.69078	1.58175	1.5758	80.49	-0.2395	0.0881	0.3276	977.3736	0.185455	-387.08286	-387.075665	-387.074721	-387.113856	30.615	
C	 0.0603341148	 1.5232396308	-0.0129856976	-0.490622
C	-0.0211722463	 0.0168675476	 0.0307218915	 0.369035
C	-0.90973824	-0.7011004758	 1.0082983809	-0.351757
C	 0.5948503087	-0.8517669267	 1.1202745612	-0.092073
C	 1.341306185	-1.9680025536	 0.3501472556	-0.054185
C	 0.3349721282	-2.8999088526	-0.3333890154	-0.09226
O	-0.3107125447	-2.0417562004	-1.298522197	-0.279728
C	 0.3724005713	-0.7775868473	-1.2420149023	 0.039699
C	 1.8173230825	-1.1861742632	-0.9047667181	-0.224674
H	 1.013002456	 1.8663908761	-0.4344339482	 0.11305
H	-0.7439251448	 1.95047304	-0.6240259266	 0.119324
H	-0.0264895722	 1.9491404062	 0.9919238885	 0.115388
H	-1.379302807	-0.0867800279	 1.771163726	 0.100432
H	-1.5264311198	-1.5176364927	 0.6554399516	 0.129182
H	 1.0923957711	-0.4108797844	 1.9780096065	 0.078644
H	 2.1042873908	-2.4860488661	 0.9317250406	 0.065108
H	 0.8314495033	-3.7311683099	-0.8516325912	 0.093459
H	-0.413673524	-3.3142820736	 0.3500039852	 0.100942
H	 0.1907730125	-0.2533274128	-2.1813009632	 0.069316
H	 2.4600362419	-0.3376151711	-0.659468647	 0.098072
H	 2.2894400728	-1.8049865124	-1.6742949008	 0.093648
196.1206	203.6388	266.2747	309.114	378.3837	443.9281	475.3045	516.6286	567.2864	692.115	757.367	784.1152	814.8416	868.3081	895.3104	901.216	925.7543	928.6796	951.206	964.1135	975.3419	1006.4603	1017.1631	1055.1948	1071.988	1094.6429	1104.9028	1130.9639	1142.0542	1174.5577	1212.0465	1246.545	1264.3512	1278.6836	1296.7756	1302.4272	1324.3699	1381.8431	1395.5969	1418.4172	1485.2764	1489.1432	1491.884	1501.7221	1532.718	3010.97	3017.7588	3055.2762	3063.9422	3074.6403	3093.679	3109.4987	3114.2017	3116.8817	3131.1171	3158.6253	3223.9639
CC12CC1C1COC2C1	C[C@]12C[C@H]1[C@H]1CO[C@@H]2C1	
InChI=1S/C8H12O/c1-8-3-6(8)5-2-7(8)9-4-5/h5-7H,2-4H2,1H3	InChI=1S/C8H12O/c1-8-3-6(8)5-2-7(8)9-4-5/h5-7H,2-4H2,1H3/t5-,6+,7-,8+/m1/s1
