17
gdb 13276	6.62116	0.95995	0.87075	4.2048	68.93	-0.245	0.0183	0.2632	1302.6271	0.142311	-400.988172	-400.97999	-400.979046	-401.022024	28.885	
O	-0.4277969918	 1.5756106529	 0.2968047762	-0.423849
C	-0.0195908822	 0.2245586984	 0.2767871394	-0.04479
C	-1.1769957578	-0.6959919775	-0.1145836988	-0.169837
N	-1.7139919052	-0.2261801067	-1.3909369405	-0.359159
C	-2.1986613429	-1.0425460233	-2.2033286388	 0.47771
C	-2.8139783908	-0.9572202151	-3.5841125028	-0.37463
C	-2.943063507	-2.487130108	-3.4347572482	-0.07564
O	-2.3434555024	-2.4158216804	-2.1041939153	-0.259479
H	-0.9353789043	 1.6941972751	-0.5173148897	 0.289063
H	 0.8182564159	 0.0671034806	-0.4232781329	 0.080411
H	 0.3362619851	-0.0258937464	 1.2821493934	 0.099884
H	-0.850460998	-1.7435788059	-0.1495170582	 0.106765
H	-1.9655474244	-0.612794457	 0.6445874428	 0.116116
H	-3.7518104969	-0.4015341087	-3.6327189977	 0.142264
H	-2.1405007271	-0.6041190557	-4.3665365534	 0.14158
H	-3.9582159902	-2.8869843203	-3.3825525543	 0.126926
H	-2.3305272399	-3.092763832	-4.1066442813	 0.126665
33.0454	105.8198	138.7831	171.9399	205.8159	317.1196	469.6977	501.1295	507.9573	579.1115	750.4219	791.4122	884.3518	897.319	919.8226	965.5309	1011.9006	1057.2935	1062.8453	1094.653	1111.3131	1142.917	1158.8426	1199.9275	1225.1456	1240.0594	1267.1578	1351.4657	1373.4705	1384.2087	1443.4594	1467.2747	1476.7662	1509.3412	1521.0397	1847.6108	2962.3753	3011.2771	3057.0812	3067.5478	3069.3499	3089.7001	3121.7035	3146.0625	3756.268
OCCN=C1CCO1	OCCN=C1CCO1	
InChI=1S/C5H9NO2/c7-3-2-6-5-1-4-8-5/h7H,1-4H2	InChI=1S/C5H9NO2/c7-3-2-6-5-1-4-8-5/h7H,1-4H2
