19
gdb 16622	3.12782	2.12776	1.46064	1.3504	76.88	-0.2221	0.0211	0.2432	915.1936	0.166411	-327.918134	-327.910451	-327.909507	-327.949626	30.022	
C	-0.1068476098	 1.5484959077	-0.0122027915	-0.395445
C	 0.0192196319	 0.0178794577	 0.0007785725	-0.072509
C	 0.7991675056	-0.5387971516	-1.1918601772	-0.053653
N	 2.1987470756	-0.06282333	-1.2697572113	-0.335057
C	 1.8915221912	-1.3995686942	-0.6727218633	-0.080604
C	 1.7847310264	-1.348025131	 0.8122912618	-0.16375
C	 0.7856829017	-0.5463769841	 1.1994497412	 0.317381
C	 0.4151310231	-0.1898309188	 2.6040456534	-0.492553
H	 0.8852797105	 2.0043699031	-0.0624495802	 0.139287
H	-0.6812181609	 1.8813848752	-0.8830343202	 0.108089
H	-0.6194611392	 1.9172214743	 0.8817471853	 0.108586
H	-0.9949860802	-0.4108469208	-0.0045470554	 0.072734
H	 0.2760239822	-0.7608743135	-2.1162587931	 0.080399
H	 2.5229917569	-0.2027523978	-2.225930755	 0.223123
H	 2.2401003557	-2.2883186456	-1.1880981152	 0.083601
H	 2.463890076	-1.8667723842	 1.4795558956	 0.086469
H	 1.0185736971	-0.7430063107	 3.3288302576	 0.122026
H	 0.5565208191	 0.8807192284	 2.7976466073	 0.131838
H	-0.642993903	-0.4046864041	 2.8034675377	 0.120039
131.6486	185.2314	220.1473	234.3167	257.5321	338.9632	463.5928	469.1236	551.524	656.5562	697.1595	778.709	805.5563	837.4646	860.8187	896.1676	921.3678	970.5005	1012.7019	1023.2771	1062.4871	1072.4222	1101.1101	1116.5359	1130.6758	1166.7123	1189.1128	1262.0978	1286.4804	1319.9992	1342.3563	1373.1627	1396.8762	1409.4428	1417.5034	1476.734	1485.8778	1498.93	1505.1072	1701.1956	2982.6372	3015.9392	3036.9917	3062.539	3099.3542	3109.3632	3125.2227	3156.6765	3167.8746	3193.494	3468.5087
CC1C2NC2C=C1C	C[C@H]1[C@H]2N[C@H]2C=C1C	
InChI=1S/C7H11N/c1-4-3-6-7(8-6)5(4)2/h3,5-8H,1-2H3	InChI=1S/C7H11N/c1-4-3-6-7(8-6)5(4)2/h3,5-8H,1-2H3/t5-,6+,7-/m1/s1
