16
gdb 100250	2.93613	1.10587	0.96489	3.4304	65.45	-0.2669	-0.0572	0.2097	1220.4609	0.121903	-475.034915	-475.025492	-475.024548	-475.06946	33.588	
O	 0.1399964711	 1.3014547706	-0.3204949997	-0.432743
C	 0.0956337687	-0.0751226878	 0.0095172893	-0.119059
C	-1.3634144248	-0.5577931134	 0.0071854585	 0.244044
O	-2.0078280831	-0.1469675239	-1.1891827231	-0.451787
C	-1.4389719744	-2.0919161816	 0.0774893207	-0.380435
C	-2.8035180134	-2.6123308339	 0.1506170933	 0.275601
N	-3.8777657106	-3.0304172973	 0.2249577885	-0.304727
C	-2.1600145152	 0.1219820051	 1.1337103434	 0.128369
O	-1.719591118	 1.0174886129	 1.8149240872	-0.269384
H	-0.2001989857	 1.7684997237	 0.45522193	 0.305728
H	 0.6538384727	-0.6052832399	-0.7686653631	 0.122262
H	 0.5653809293	-0.2806065298	 0.9799396694	 0.114416
H	-1.6193939811	 0.7180572619	-1.3967107375	 0.300915
H	-0.9605477908	-2.4922985621	-0.8227829841	 0.170446
H	-0.8759314775	-2.4559521546	 0.9447107698	 0.160439
H	-3.2123077471	-0.2130796098	 1.2225480874	 0.135915
63.928	100.4731	128.9859	166.1401	228.6668	278.4681	323.1154	343.4069	373.4715	386.924	444.9968	514.0393	538.6672	646.8755	689.0867	808.2827	874.7169	933.153	954.167	996.402	1065.0774	1094.8971	1116.337	1185.5597	1215.9212	1299.2382	1322.4409	1380.6452	1392.9416	1423.5394	1439.6341	1448.085	1489.3945	1807.4641	2366.1032	2952.715	3025.1099	3046.2414	3087.5569	3093.4871	3702.8784	3760.0548
OCC(O)(CC#N)C=O	OC[C@@](O)(CC#N)C=O	
InChI=1S/C5H7NO3/c6-2-1-5(9,3-7)4-8/h3,8-9H,1,4H2	InChI=1S/C5H7NO3/c6-2-1-5(9,3-7)4-8/h3,8-9H,1,4H2/t5-/m1/s1
