17
gdb 75657	2.55652	1.78084	1.29429	0.9097	67.75	-0.2429	-0.0217	0.2213	979.7994	0.13595	-458.963955	-458.956068	-458.955124	-458.99603	31.061	
O	-0.0228017631	 1.3491738228	-0.1639192843	-0.459204
C	-0.0154536708	-0.0587768708	-0.0573935083	-0.02885
C	 0.4349777605	-0.549272623	 1.3417062676	 0.402892
O	 1.4353428142	-0.2147010021	 1.9203832847	-0.346252
C	-0.7500513366	-1.3764313245	 1.7903898916	-0.14886
C	-1.8846239527	-0.3413657686	 1.4497460933	-0.300485
C	-1.4380273368	-0.6397828398	-0.0183193292	 0.419602
O	-2.2519419735	-0.4205562736	-1.1184978906	-0.491675
C	-1.1522918305	-2.0854152776	 0.4520610064	-0.286572
H	 0.7856410415	 1.6728546338	 0.2523834018	 0.298661
H	 0.5813742648	-0.5175678252	-0.8609078422	 0.090531
H	-0.6896108876	-1.8910415166	 2.7455280894	 0.09267
H	-2.8737377727	-0.7502787012	 1.6634989715	 0.116161
H	-1.7892562748	 0.6789151831	 1.8258392731	 0.116659
H	-2.1434152728	 0.5015804279	-1.3809687903	 0.294482
H	-0.3959575066	-2.6688058797	-0.0804384474	 0.107835
H	-2.0714319926	-2.6626834848	 0.5664032328	 0.122404
97.8884	189.3682	245.7376	289.3072	321.545	352.1692	365.9724	480.848	505.9212	519.882	570.376	681.6811	709.2813	781.8099	834.8771	862.9131	929.6335	950.6144	967.7076	1005.9226	1018.423	1041.7532	1115.7806	1131.3567	1140.923	1174.8568	1216.673	1225.6387	1238.9638	1274.6937	1296.6973	1332.0657	1390.9977	1410.7311	1482.043	1521.1356	1864.0218	2987.0329	3062.2448	3075.131	3131.6949	3142.7714	3161.4687	3782.5173	3792.1415
OC1C(=O)C2CC1(O)C2	O[C@H]1C(=O)[C@H]2C[C@]1(O)C2	
InChI=1S/C6H8O3/c7-4-3-1-6(9,2-3)5(4)8/h3,5,8-9H,1-2H2	InChI=1S/C6H8O3/c7-4-3-1-6(9,2-3)5(4)8/h3,5,8-9H,1-2H2/t3-,5-,6-/m0/s1
