13
gdb 132660	3.14676	1.32644	0.93378	1.6668	65.46	-0.2151	-0.0265	0.1886	1107.5823	0.089354	-502.053196	-502.04603	-502.045086	-502.084729	27.812	
N	-0.0245979859	 1.3854656432	 0.1594214347	-0.56979
C	-0.0100715419	 0.0085702411	 0.0569742884	 0.271694
N	-1.1677986675	-0.6467215634	 0.0390991278	-0.325988
C	-1.161805397	-1.9843508991	 0.0033742381	-0.122172
C	 0.0090629938	-2.7187447466	-0.0253713446	 0.246807
F	-0.0286925982	-4.0550936703	-0.0640262237	-0.079505
C	 1.2389439725	-2.0634700241	-0.021930892	-0.346731
C	 1.2110241905	-0.6891174921	 0.0211632581	 0.236372
F	 2.3495901587	 0.0211548287	 0.0182146566	-0.086226
H	 0.7939798257	 1.8618074094	-0.1857299564	 0.258574
H	-0.9030484253	 1.8042448058	-0.1069780047	 0.259843
H	-2.122607509	-2.4899382748	-0.0075967922	 0.122393
H	 2.1751385236	-2.6065905078	-0.0522544001	 0.13473
145.2746	239.5869	288.6292	330.4443	375.0857	410.0131	468.7768	474.8854	502.9656	554.881	584.1962	615.864	725.3651	774.9701	823.0173	902.0173	927.6863	1002.3489	1071.4363	1164.1055	1241.6722	1308.065	1332.3652	1366.3658	1479.0186	1523.47	1619.1186	1625.3935	1670.6997	3178.2065	3219.7377	3579.814	3696.2361
NC1=NC=C(F)C=C1F	Nc1ncc(F)cc1F	
InChI=1S/C5H4F2N2/c6-3-1-4(7)5(8)9-2-3/h1-2H,(H2,8,9)	InChI=1S/C5H4F2N2/c6-3-1-4(7)5(8)9-2-3/h1-2H,(H2,8,9)
