17
gdb 45155	2.97398	1.54621	1.20055	4.1287	71.99	-0.2646	0.0091	0.2737	1039.3233	0.136548	-421.821582	-421.814268	-421.813324	-421.853588	28.558	
O	-0.3575338695	 0.1870959278	 0.3692054434	-0.329765
C	-0.1000100165	 1.2950299779	 0.0260151096	 0.467439
O	-0.9398923772	 2.1992483085	-0.5934216447	-0.260377
C	 0.1182932661	 3.2064078663	-0.6838517873	 0.117975
C	 0.0918607606	 4.1863100209	 0.5078029024	-0.329198
C	 0.9979353028	 3.2089496717	 1.2828505767	 0.370703
C	 2.1353140182	 3.5675039511	 2.1932877247	-0.337977
C	 0.9379998335	 2.8182261333	 2.7292271278	-0.313985
C	 1.0846257195	 2.2558533028	 0.0696114953	-0.325894
H	 0.2400018401	 3.5609036792	-1.7052269243	 0.102808
H	 0.5764096631	 5.1410717969	 0.2836285427	 0.114139
H	-0.9054657424	 4.3728067948	 0.9129165108	 0.1237
H	 3.0695725429	 3.0268069596	 2.0808180547	 0.120081
H	 2.253234113	 4.6115661415	 2.4660013642	 0.118356
H	 0.241938828	 3.3537813155	 3.3664923211	 0.121032
H	 1.0544030255	 1.7686394486	 2.9773608526	 0.134511
H	 2.0559707523	 1.9064022936	-0.2751562397	 0.106452
85.7845	128.8535	243.5924	304.4736	362.4013	390.2403	488.011	541.7171	672.1774	758.8723	779.5944	823.3511	847.8299	867.9472	877.6107	906.6422	941.156	961.5875	997.6766	1010.1252	1048.7114	1056.7203	1080.9647	1103.8931	1144.314	1173.6899	1187.1479	1204.9095	1209.5187	1263.6482	1275.1667	1320.4802	1374.3728	1465.3628	1466.4046	1501.9527	1933.9225	3058.1265	3115.3986	3124.6154	3132.6907	3134.6899	3144.329	3205.3207	3221.5427
O=C1OC2CC3(CC3)C12	O=C1O[C@H]2CC3(CC3)[C@@H]12	
InChI=1S/C7H8O2/c8-6-5-4(9-6)3-7(5)1-2-7/h4-5H,1-3H2	InChI=1S/C7H8O2/c8-6-5-4(9-6)3-7(5)1-2-7/h4-5H,1-3H2/t4-,5+/m0/s1
