15
gdb 5584	3.41611	1.81731	1.22491	0.7847	64.32	-0.1796	0.0305	0.2101	953.4749	0.118963	-399.807066	-399.799175	-399.798231	-399.83972	28.494	
C	 0.172121769	 1.3716575412	 0.1992036287	-0.32322
N	-0.3035755247	 0.0611613436	-0.2304581988	-0.399709
C	 0.4836111373	-0.6302163939	-1.1601591044	 0.170882
C	 0.7561156587	-1.9657199996	-1.1636947985	 0.266376
O	 0.4739917831	-2.9232904976	-0.2531793944	-0.429542
O	 1.4886201445	-2.31846394	-2.2610301421	-0.16674
C	 1.6915193999	-1.1738170605	-2.9689138348	-0.013502
C	 1.1112059642	-0.1142281577	-2.3494303617	-0.243217
H	 1.1858090472	 1.3613615053	 0.6309071629	 0.109002
H	 0.1745399898	 2.0626984541	-0.6492735807	 0.129491
H	-0.5204809186	 1.7720706782	 0.9442304353	 0.121607
H	-0.511088314	-0.5358775677	 0.5601887955	 0.233804
H	-0.1315499416	-3.5716347858	-0.6348523171	 0.305723
H	 2.2598456101	-1.2794165487	-3.8774947366	 0.132037
H	 1.1138313052	 0.9071514292	-2.6954041034	 0.107009
48.3304	170.5637	192.8393	219.9613	260.7369	299.6815	372.4229	508.8888	602.3434	618.361	672.7287	711.792	721.197	790.8352	809.6559	908.005	1029.5048	1087.0712	1099.6754	1151.9796	1171.3188	1197.9508	1258.1048	1267.3707	1324.0813	1448.5261	1475.4947	1493.2429	1494.3766	1519.0808	1555.9318	1718.7083	2974.759	3073.6853	3114.2212	3257.3862	3287.8127	3561.1107	3748.7685
CNC1=C(O)OC=C1	CNc1c(O)occ1	
InChI=1S/C5H7NO2/c1-6-4-2-3-8-5(4)7/h2-3,6-7H,1H3	InChI=1S/C5H7NO2/c1-6-4-2-3-8-5(4)7/h2-3,6-7H,1H3
