23
gdb 70890	3.15007	1.4459	1.36075	0.0469	88.38	-0.2493	0.0838	0.3332	1101.7354	0.207976	-351.18652	-351.178488	-351.177544	-351.21816	33.755	
C	-0.0228420274	 1.4892690259	 0.0315690958	-0.502439
C	 0.0142602165	-0.0132518584	-0.0321141934	 0.359372
C	 0.2304412169	-0.7688373892	-1.3421233588	-0.296054
C	 0.1697917932	-2.2121837102	-0.7800429879	 0.284677
C	 0.3430149679	-3.3507599145	-1.7667033962	-0.481321
C	 1.202534047	-2.1184836899	 0.3762010457	-0.247202
C	 0.6318604648	-0.8794815682	 1.0535636853	-0.10255
C	-0.8712798942	-0.9067303223	 0.8211116936	-0.102542
C	-1.1664411305	-2.1615571919	 0.0099973876	-0.247204
H	 0.9185142503	 1.92804703	-0.3206054005	 0.11281
H	-0.8293467915	 1.8962904681	-0.5901920662	 0.11281
H	-0.187207177	 1.8399855568	 1.055920531	 0.112928
H	-0.5581992714	-0.5748187153	-2.0795194287	 0.084508
H	 1.1974919646	-0.5429710919	-1.8081083809	 0.084502
H	 1.3142510319	-3.2960508421	-2.2711494845	 0.110408
H	 0.2845733597	-4.3229410324	-1.2642626885	 0.110662
H	-0.433731386	-3.329578844	-2.5393433084	 0.110408
H	 1.1887423907	-3.0071962702	 1.0178288806	 0.087811
H	 2.2250322984	-1.9763798723	 0.0076107121	 0.08753
H	 1.0618094736	-0.444035215	 1.9470673614	 0.072772
H	-1.5661151543	-0.491662193	 1.5406534289	 0.072772
H	-2.0342973939	-2.0538391316	-0.6508920559	 0.087523
H	-1.3154981095	-3.0526911882	 0.630764038	 0.087818
205.7425	217.6107	226.2369	231.879	300.9936	330.757	437.6344	437.6971	464.7077	541.4967	609.6882	657.9736	704.1201	794.5537	854.4157	870.5736	895.3677	897.1381	925.5451	951.4825	959.873	984.2579	995.8405	1022.5926	1049.2558	1056.2919	1081.0946	1134.88	1144.3473	1159.3743	1171.1825	1175.8818	1241.8019	1247.4671	1270.3391	1282.7168	1307.3016	1310.6124	1351.3692	1412.1019	1418.805	1435.0741	1485.9438	1487.8672	1490.9053	1496.505	1496.7931	1501.5427	1517.4054	3016.8959	3020.3729	3022.533	3026.6852	3034.7169	3062.1337	3070.3463	3072.9118	3074.1562	3088.3465	3088.8515	3091.1797	3183.458	3193.3495
CC12CC3(C)CC1C2C3	C[C@@]12C[C@@]3(C)C[C@@H]1[C@@H]2C3	
InChI=1S/C9H14/c1-8-3-6-7(4-8)9(6,2)5-8/h6-7H,3-5H2,1-2H3	InChI=1S/C9H14/c1-8-3-6-7(4-8)9(6,2)5-8/h6-7H,3-5H2,1-2H3/t6-,7+,8+,9-
