14
gdb 14216	2.84023	2.49711	1.88535	0.6449	56.69	-0.218	0.0607	0.2786	742.0311	0.106238	-419.585052	-419.578369	-419.577425	-419.61542	26.456	
O	-0.1856640663	 1.3168506014	-0.0904882225	-0.454634
C	 0.0076455223	-0.0436790134	-0.0873013188	 0.294568
C	 0.973596666	-0.8889243233	-0.9165167594	-0.295833
C	 0.1458184033	-2.093296145	-0.3938314919	-0.013596
O	 0.4398732167	-2.1427829871	 1.0297963102	-0.283191
C	-0.3138696114	-0.9426958482	 1.1605690763	-0.088427
C	-1.0759699627	-1.0945422469	-0.1226734315	 0.275906
O	-2.3746104145	-1.0114186818	-0.5286835191	-0.440047
H	 0.492313509	 1.7247937357	 0.4601366352	 0.290894
H	 0.8238369784	-0.7251955547	-1.9865796177	 0.114762
H	 2.038479895	-0.8974162264	-0.6636313565	 0.098406
H	 0.1466508961	-3.0655233774	-0.8812861805	 0.091846
H	-0.5586750433	-0.5493859471	 2.1388677691	 0.112213
H	-2.8926372986	-1.6634858257	-0.0419301329	 0.297133
199.0757	252.6937	284.1192	337.0066	387.7217	390.2529	459.4721	556.0526	625.6952	681.8341	719.6497	808.6253	842.2813	920.7765	922.3044	949.8328	995.4228	1032.0626	1053.0891	1112.5824	1121.4152	1167.3922	1216.8593	1231.1878	1266.5883	1306.8016	1311.293	1372.6722	1473.5987	1536.5859	3050.4931	3118.9309	3149.6388	3207.3468	3782.5557	3789.2993
OC12CC3OC1C23O	O[C@@]12C[C@H]3O[C@@H]1[C@@]23O	
InChI=1S/C5H6O3/c6-4-1-2-5(4,7)3(4)8-2/h2-3,6-7H,1H2	InChI=1S/C5H6O3/c6-4-1-2-5(4,7)3(4)8-2/h2-3,6-7H,1H2/t2-,3+,4+,5-/m1/s1
