15
gdb 47306	3.26095	1.3061	1.02166	2.9376	61.77	-0.2811	-0.0185	0.2626	1104.258	0.113318	-494.961855	-494.954164	-494.953219	-494.995025	27.928	
O	-0.0821227457	-0.0452696116	 0.7903424643	-0.298696
C	 0.0259495157	 0.9578308769	 0.1486367007	 0.425737
C	-1.0680174052	 1.9961205869	-0.021262665	-0.381085
C	-1.5442604157	 2.1390469889	-1.4777644912	-0.323913
C	-0.6090313452	 2.6552278731	-2.5690772166	 0.389723
O	-1.0387012779	 3.088917146	-3.5982117166	-0.291322
O	 0.7460444175	 2.525310862	-2.4365502344	-0.21518
C	 1.3902392132	 2.4203032528	-1.1846477941	 0.018791
O	 1.193610169	 1.1894242053	-0.5289821012	-0.212564
H	-1.9037918553	 1.6548291067	 0.5907843216	 0.150296
H	-0.7494277772	 2.9629913757	 0.382796219	 0.138413
H	-1.8822823533	 1.1587377754	-1.8378017988	 0.167315
H	-2.4214155591	 2.7884943427	-1.5167248706	 0.15621
H	 2.4544355514	 2.4613634654	-1.4132465365	 0.154575
H	 1.117156738	 3.2614198539	-0.5397061705	 0.121699
50.6107	101.0854	151.0029	284.419	365.899	393.9738	441.5821	488.9205	559.6832	599.9629	689.2569	741.8653	747.0255	795.8619	891.412	988.82	1032.3275	1072.1476	1105.0115	1117.4861	1158.001	1203.4249	1228.6095	1307.2931	1318.6625	1348.69	1367.4454	1453.703	1461.8088	1480.1529	1523.4864	1853.5922	1871.3672	3041.6108	3049.8833	3063.3992	3113.8683	3128.5769	3148.9194
O=C1CCC(=O)OCO1	O=C1CCC(=O)OCO1	
InChI=1S/C5H6O4/c6-4-1-2-5(7)9-3-8-4/h1-3H2	InChI=1S/C5H6O4/c6-4-1-2-5(7)9-3-8-4/h1-3H2
