17
gdb 72239	2.63289	1.94056	1.35845	2.2863	66.94	-0.2293	0.051	0.2802	940.0218	0.136198	-458.918906	-458.9115	-458.910555	-458.95016	30.193	
O	-0.1003600956	 1.3565626339	 0.1459316621	-0.468061
C	 0.0468991304	-0.0198857448	 0.0176377888	 0.287873
C	 0.8635894051	-0.7738331364	-1.0209477701	-0.329371
C	-0.1075179623	-1.9815343949	-0.7635158685	 0.086412
O	 0.4066625977	-2.8862974651	 0.2082437103	-0.265001
C	 0.5023490268	-2.1787784332	 1.4460081465	-0.140594
C	-0.2783492227	-0.8921541459	 1.225072125	 0.347996
O	-0.7609024099	-0.2475156066	 2.3509968581	-0.485846
C	-1.0900950671	-1.0310340123	-0.0436831669	-0.225847
H	 0.7513395151	 1.7256330821	 0.4111875297	 0.292877
H	 0.7157458845	-0.3512060649	-2.0193672574	 0.110458
H	 1.9290361848	-0.9550452673	-0.8432477971	 0.096471
H	-0.4334053874	-2.5524993658	-1.6302625823	 0.093548
H	 0.0464395429	-2.7737518795	 2.2462801795	 0.115663
H	 1.554919506	-1.9999041461	 1.705029457	 0.095326
H	-0.8151086122	 0.692384584	 2.1274956709	 0.285596
H	-2.1623784961	-0.9285660073	-0.1346061659	 0.1025
204.5425	225.0361	259.6007	266.8392	356.7037	402.2773	433.7146	471.816	485.4113	605.4713	646.0568	665.1764	750.2281	782.1437	845.9179	883.6403	921.2007	950.668	982.447	1022.8119	1047.5214	1066.2326	1108.3346	1132.2577	1155.304	1177.0667	1204.1346	1224.444	1245.5464	1296.0969	1302.4377	1344.506	1367.0599	1414.4259	1445.2379	1495.9247	1525.4989	3006.0474	3038.9909	3053.6635	3097.9624	3141.8082	3217.3098	3739.9143	3774.6981
OC12CC3OCC1(O)C23	O[C@@]12C[C@H]3OC[C@]1(O)[C@@H]23	
InChI=1S/C6H8O3/c7-5-1-3-4(5)6(5,8)2-9-3/h3-4,7-8H,1-2H2	InChI=1S/C6H8O3/c7-5-1-3-4(5)6(5,8)2-9-3/h3-4,7-8H,1-2H2/t3-,4-,5-,6+/m1/s1
