14
gdb 124219	5.10793	1.00142	0.84167	3.3964	66.51	-0.2642	-0.076	0.1882	1282.0931	0.10068	-466.138923	-466.130906	-466.129962	-466.172341	28.448	
C	-0.1151533981	 1.3544882071	-0.0858452776	-0.470474
C	 0.0714221116	-0.1377687289	 0.0117730382	 0.376565
N	 1.225967062	-0.657781932	 0.0601090186	-0.488043
N	-1.1592575544	-0.8289782406	 0.0396856683	-0.431291
C	-1.3414588622	-2.1738941073	 0.1229377297	 0.559801
N	-0.4275335626	-3.1069713549	 0.1945835037	-0.196464
O	-1.165767705	-4.2642514393	 0.2581706936	-0.144274
N	-2.4994605565	-3.9550975088	 0.2211551361	 0.060264
N	-2.623958856	-2.705102232	 0.1398750401	-0.237325
H	 0.8646324443	 1.8284155788	-0.1031138095	 0.165531
H	-0.6610373769	 1.6244176661	-0.9970846678	 0.138831
H	-0.6843921881	 1.7370357132	 0.7690412753	 0.13883
H	 1.2044706974	-1.6750688241	 0.1247008826	 0.252291
H	-2.0133538055	-0.2946512774	-0.0057376312	 0.275757
69.5859	83.495	156.4457	165.2268	348.6369	348.6622	375.8038	476.2757	559.9316	575.122	646.6476	772.2815	789.456	821.198	915.964	917.675	941.3483	1013.9531	1061.9967	1075.7129	1113.8087	1140.7097	1259.7915	1339.3609	1408.4262	1455.3841	1480.3962	1485.5213	1565.6992	1647.0326	1752.673	3036.5682	3092.1416	3172.6581	3496.649	3631.101
CC(=N)NC1=NON=N1	CC(=N)Nc1nonn1	
InChI=1S/C3H5N5O/c1-2(4)5-3-6-8-9-7-3/h1H3,(H2,4,5,7)	InChI=1S/C3H5N5O/c1-2(4)5-3-6-8-9-7-3/h1H3,(H2,4,5,7)
