20
gdb 61779	2.31982	1.00709	0.94704	3.4954	83.64	-0.2579	0.0235	0.2814	1402.0651	0.167334	-403.118519	-403.107843	-403.106899	-403.154828	38.029	
C	-0.0898298626	 1.5687401845	 0.0578064969	-0.402297
C	-0.047133153	 0.0461502817	-0.004939197	 0.111531
O	-1.3777403652	-0.4867520681	 0.0248836803	-0.186396
C	-1.9207021674	-0.7346148871	 1.2306755866	 0.131726
N	-3.1259603401	-1.0980847134	 1.3231922784	-0.443159
C	 0.6449664125	-0.5050568026	-1.2729057533	-0.164649
C	 0.7036079731	-2.0449427503	-1.2601945756	-0.400648
C	 0.024954076	-0.0096008924	-2.5010200851	 0.359716
C	-0.4742771293	 0.3800815786	-3.5223665069	-0.483385
H	 0.9232624431	 1.9824422785	 0.0284652896	 0.118842
H	-0.65505292	 1.965058933	-0.7888378947	 0.152104
H	-0.5674561266	 1.9014142634	 0.9840433164	 0.119655
H	 0.509232779	-0.3469563996	 0.8586547752	 0.079883
H	-1.215432925	-0.6014649517	 2.0643581836	 0.082053
H	-3.3621622936	-1.2652274523	 2.2990402614	 0.227617
H	 1.674194482	-0.1211253851	-1.2355191797	 0.107594
H	 1.2411467252	-2.4137855901	-2.1366679318	 0.127925
H	 1.2220199455	-2.3988322892	-0.3627992851	 0.108883
H	-0.3046806671	-2.4629531693	-1.2692174067	 0.153718
H	-0.9226231465	 0.7242950715	-4.4213441326	 0.199287
48.7897	65.6041	106.0004	144.1763	189.0636	218.988	230.141	249.9323	269.3742	355.4468	385.2219	470.462	553.4464	580.8601	625.0262	647.7834	684.2768	780.172	818.81	886.7477	934.0011	995.0938	1030.3536	1043.2225	1060.802	1106.4958	1118.7261	1150.8099	1183.0114	1288.825	1309.5877	1329.8238	1363.5042	1383.383	1407.5169	1411.7071	1429.9138	1486.4224	1493.1891	1494.3872	1503.5974	1744.0079	2237.0791	2993.1517	3007.7106	3012.0948	3043.9476	3045.4011	3112.3859	3118.5493	3136.2834	3144.2114	3503.8292	3517.6061
CC(OC=N)C(C)C#C	C[C@@H](O[CH][NH])[C@@H](C)C#C	
InChI=1S/C7H11NO/c1-4-6(2)7(3)9-5-8/h1,5-8H,2-3H3	InChI=1S/C7H11NO/c1-4-6(2)7(3)9-5-8/h1,5-8H,2-3H3/t6-,7+/m0/s1
