16
gdb 47244	2.76796	1.56106	1.08903	3.9673	76.26	-0.2189	-0.0405	0.1784	1075.7729	0.126976	-437.919279	-437.911757	-437.910812	-437.951656	28.64	
O	-0.0335102137	-0.0858710573	 0.087339557	-0.37277
C	-0.002436142	 1.1117815338	-0.0464444881	 0.473539
N	-1.2067245312	 1.7925314018	-0.2972797185	-0.393929
C	-1.7610878417	 3.0584202685	-0.1101475244	 0.007987
C	-1.3380609082	 4.2080991612	 0.4510385113	-0.114781
C	-0.058742238	 4.5729077183	 1.0313447422	-0.073645
C	 1.1394635305	 4.1081362185	 0.657238101	-0.095067
C	 1.296755212	 3.1378980345	-0.4676384866	-0.145053
O	 1.1635408248	 1.7618065353	-0.0272427491	-0.235205
H	-1.9065289863	 1.0798657312	-0.4452965842	 0.267162
H	-2.7869793073	 3.0505796547	-0.4672043084	 0.117376
H	-2.1049543961	 4.9765647103	 0.4925605384	 0.097295
H	-0.1043667634	 5.3167879896	 1.8242701687	 0.101949
H	 2.0357647847	 4.4272259892	 1.1788673882	 0.101391
H	 0.5743934968	 3.3365016301	-1.2644205038	 0.135446
H	 2.301617049	 3.1765450402	-0.8921156738	 0.128306
76.7393	112.5322	253.2162	294.7773	320.305	382.4998	485.5169	550.064	612.7474	627.2866	685.9966	748.3642	764.7624	767.5209	830.7157	885.1112	919.3543	970.8005	973.0041	1004.3899	1045.2	1102.5156	1151.8177	1234.8774	1251.8966	1301.4666	1365.6038	1409.8053	1424.7133	1481.605	1503.8979	1511.8637	1687.7197	1711.9794	1826.0303	3065.3431	3120.341	3142.834	3156.3682	3176.1552	3187.236	3611.1453
O=C1NC=CC=CCO1	O=C1NC=CC=CCO1	
InChI=1S/C6H7NO2/c8-6-7-4-2-1-3-5-9-6/h1-4H,5H2,(H,7,8)/b3-1-,4-2-	InChI=1S/C6H7NO2/c8-6-7-4-2-1-3-5-9-6/h1-4H,5H2,(H,7,8)/b3-1-,4-2-
