15
gdb 127860	2.95962	1.40071	0.95637	3.3392	74.71	-0.2214	-0.0384	0.183	1163.4121	0.113842	-450.144322	-450.136104	-450.13516	-450.178276	29.498	
C	 0.0629561433	 1.4040097763	 0.0077094112	-0.311003
N	 0.0298319106	-0.0482662602	 0.0045690916	-0.317679
C	-1.1172066644	-0.6120713181	 0.011815041	 0.33424
C	-1.1780257354	-2.0792062658	 0.0085983768	 0.006453
N	-2.2632905332	-2.7691673684	 0.0139073897	-0.186185
N	-3.4164827493	-2.0307612756	 0.0225662199	-0.290954
C	-3.4064385208	-0.6759609426	 0.0271608184	 0.524618
O	-4.6367860782	-0.1445305188	 0.0376988159	-0.402707
N	-2.3512581203	 0.059958096	 0.0224155875	-0.448738
H	 1.1030725917	 1.7393392698	-0.0013029319	 0.111947
H	-0.4486606094	 1.8292705927	-0.8667741461	 0.116451
H	-0.4317572592	 1.8247650979	 0.8940341178	 0.116478
H	-0.2448234751	-2.6314824922	 0.001488864	 0.144617
H	-4.2775257347	-2.5517665937	 0.0285749344	 0.286207
H	-4.5104196455	 0.8153178624	 0.0399955998	 0.316254
31.8743	91.1874	196.953	199.8635	236.3437	403.6288	438.3933	473.9391	523.0723	539.8724	564.1789	621.4803	723.7764	754.226	774.194	956.3596	967.5418	1023.8567	1064.7791	1094.9016	1100.4483	1169.9884	1235.7255	1282.807	1346.5006	1379.4899	1433.1004	1478.9849	1494.5043	1544.5764	1653.2127	1682.3973	1711.3727	2996.7758	3044.6116	3102.4537	3204.9289	3661.2147	3767.4718
CN=C1C=NNC(O)=N1	C[N]C1=N[C@@H](NN=C1)O	
InChI=1S/C4H6N4O/c1-5-3-2-6-8-4(9)7-3/h2H,1H3,(H2,5,7,8,9)	InChI=1S/C4H7N4O/c1-5-3-2-6-8-4(9)7-3/h2,4,8-9H,1H3/t4-/m0/s1
