17
gdb 133672	2.56327	1.22799	1.01374	1.431	60.91	-0.2542	0.0655	0.3198	1179.9292	0.132088	-549.496516	-549.487567	-549.486622	-549.530893	32.495	
C	-0.1500699326	 1.4210355764	-0.0785557763	-0.413566
C	 0.0519605862	-0.0980661108	 0.0162264043	-0.165958
C	 0.797706216	-0.648643146	-1.1859815944	 0.030449
C	 0.5932784585	-2.0464341942	-1.6322232224	-0.243892
N	 0.0793927279	-0.9237156754	-2.4391867449	-0.3311
C	 0.7824773752	-0.4666827758	 1.3034046242	 0.291544
F	 0.1427410041	 0.0067577026	 2.3858264261	-0.082047
F	 0.8842340215	-1.796424755	 1.4542864029	-0.077782
F	 2.0290617118	 0.0355745033	 1.3248097123	-0.086373
H	 0.8140323807	 1.9367599318	-0.1094499228	 0.137901
H	-0.6952379351	 1.6684232224	-0.9927876396	 0.129688
H	-0.7139387501	 1.7991787827	 0.7769926074	 0.134235
H	-0.9242342951	-0.595288946	 0.0833263351	 0.096814
H	 1.7743776544	-0.1961878237	-1.3436722642	 0.107419
H	 1.4112727675	-2.5996368345	-2.0835830067	 0.126069
H	-0.1114894282	-2.6565209957	-1.0740591407	 0.117398
H	-0.9239216627	-0.8287176821	-2.2946795104	 0.229201
53.8222	86.3825	161.5211	221.4181	227.0456	251.8096	325.7894	371.531	400.1879	479.4316	548.1011	577.3788	669.6016	788.9473	823.882	869.9466	920.5187	957.5056	977.0492	1020.8772	1079.6464	1101.5371	1131.7295	1162.0622	1164.7969	1206.0011	1240.1559	1252.9263	1275.2042	1289.8654	1322.1942	1374.0411	1412.3432	1432.6607	1495.5179	1506.1243	1517.0823	3035.2793	3052.5188	3115.9551	3124.652	3133.346	3134.6276	3201.5026	3485.2932
CC(C1CN1)C(F)(F)F	C[C@@H]([C@H]1CN1)C(F)(F)F	
InChI=1S/C5H8F3N/c1-3(4-2-9-4)5(6,7)8/h3-4,9H,2H2,1H3	InChI=1S/C5H8F3N/c1-3(4-2-9-4)5(6,7)8/h3-4,9H,2H2,1H3/t3-,4+/m0/s1
