20
gdb 46386	3.79009	0.89359	0.76815	2.5777	80.35	-0.2394	-0.0233	0.2161	1495.9939	0.170632	-403.126357	-403.117441	-403.116496	-403.161009	33.036	
O	-0.0089389138	 0.0703406958	-0.4153766991	-0.288625
C	-0.0399417134	 1.2125641006	-0.0688735215	 0.381337
C	-1.1291689469	 2.1853279375	 0.4115814112	-0.28428
N	-0.0428946367	 3.1100962603	 0.8313607073	-0.321483
C	 1.0155768696	 2.3134435627	 0.1409063882	-0.083079
C	 2.2558769816	 1.9750201416	 0.9640028874	-0.208458
C	 3.196688926	 3.149179753	 1.1367143315	 0.020677
C	 2.9219869551	 4.1993535277	 2.1859931052	-0.252553
C	 4.0802783726	 3.2474865928	 2.354063295	-0.278644
H	-1.7628865512	 2.5314943742	-0.4173872405	 0.121875
H	-1.7758993175	 1.8351940502	 1.22348839	 0.133401
H	-0.1448273758	 4.0543110946	 0.4801457863	 0.225706
H	 1.3147831387	 2.7290962426	-0.8353885845	 0.090349
H	 1.9298378797	 1.6124540718	 1.9459237862	 0.100125
H	 2.7735489077	 1.1425098091	 0.4698344464	 0.112661
H	 3.6314689943	 3.5102665644	 0.2069160817	 0.0778
H	 3.139777254	 5.2356126752	 1.9509952802	 0.105941
H	 2.0494812083	 4.058116297	 2.8136437808	 0.124969
H	 3.9932145926	 2.4693274427	 3.1054312213	 0.112051
H	 5.086573095	 3.6323599463	 2.2308525669	 0.110228
59.0218	74.4363	109.596	132.7029	219.0507	329.9584	346.6995	404.7304	503.0893	548.1184	652.353	745.1245	772.9349	793.0464	828.0981	836.0354	875.8539	937.7654	956.2988	993.3989	1009.7469	1021.0096	1054.8295	1075.7754	1088.1907	1101.5879	1102.1682	1137.3715	1168.8088	1198.379	1212.5141	1229.5781	1261.0421	1275.7341	1332.2709	1359.8074	1368.0794	1418.9826	1468.7339	1474.198	1475.8595	1508.3681	1911.9696	2971.6315	3007.7395	3024.4944	3068.7229	3069.4167	3125.2261	3130.5569	3137.8659	3209.7385	3226.0664	3554.1436
O=C1CNC1CC1CC1	O=C1CN[C@H]1CC1CC1	
InChI=1S/C7H11NO/c9-7-4-8-6(7)3-5-1-2-5/h5-6,8H,1-4H2	InChI=1S/C7H11NO/c9-7-4-8-6(7)3-5-1-2-5/h5-6,8H,1-4H2/t6-/m0/s1
