16
gdb 48571	5.714	0.93893	0.92483	1.9285	78.93	-0.2566	-0.0441	0.2125	1254.9526	0.122854	-400.648145	-400.639964	-400.63902	-400.681218	30.715	
O	-0.575305606	 0.798918023	-0.6710398093	-0.242307
C	 0.1354951837	 1.1385110329	 0.2409375468	 0.028716
C	 1.3947869575	 1.9193941713	 0.067525357	 0.234656
C	 2.8517414865	 1.3809684328	 0.2318008439	-0.264433
C	 2.9304143928	 2.9210082301	 0.0095826786	 0.252304
C	 1.878085256	 2.7609975481	-1.1368006559	-0.303221
N	 1.7967529071	 3.0226178761	 1.0419516397	-0.378232
C	 4.0836119407	 3.7706721576	 0.0399861311	 0.061678
C	 5.0502950229	 4.4855797363	 0.0476054443	-0.347804
H	-0.0953490704	 0.8789231646	 1.2981197815	 0.091077
H	 3.1180858956	 1.0446596554	 1.2330852839	 0.125247
H	 3.2334119733	 0.7441000127	-0.5659920489	 0.11706
H	 2.1899494768	 2.2355988172	-2.0425761804	 0.114683
H	 1.2876312464	 3.6522238534	-1.3633844404	 0.109463
H	 1.2446472639	 3.8620017552	 0.8320273614	 0.214028
H	 5.9048188333	 5.1163693631	 0.0605051366	 0.187085
65.6781	112.8145	144.2087	215.0801	275.553	421.3378	488.473	492.2976	551.5513	568.3921	600.8303	635.4439	667.4808	706.4805	764.3151	832.8064	937.4086	943.3334	971.1631	1035.2413	1046.7865	1076.7623	1106.5638	1130.2984	1146.8176	1158.0074	1235.6957	1268.7533	1279.9325	1353.6035	1410.792	1476.9322	1525.5887	1821.8157	2238.5984	2889.893	3057.8487	3092.154	3130.2918	3176.8578	3372.718	3499.8987
O=CC12CC(C1)(N2)C#C	O=C[C@@]12C[C@@](C1)(N2)C#C	
InChI=1S/C7H7NO/c1-2-6-3-7(4-6,5-9)8-6/h1,5,8H,3-4H2	InChI=1S/C7H7NO/c1-2-6-3-7(4-6,5-9)8-6/h1,5,8H,3-4H2/t6-,7+
