15
gdb 25736	2.71746	1.61124	1.01282	2.9229	72.57	-0.2015	-0.016	0.1855	1094.7357	0.11407	-454.01444	-454.006257	-454.005313	-454.046998	31.053	
N	-0.0834371386	 1.34093579	 0.0679318055	-0.545221
C	 0.0445098954	-0.0203654984	 0.0502241249	 0.32269
O	 1.1394108545	-0.5842641117	 0.0271318212	-0.408301
C	-1.1830302173	-0.788909518	 0.0745389056	 0.209651
C	-1.3419402848	-2.1585396422	 0.0661782268	 0.196168
N	-0.3346679629	-3.0870196968	 0.1522487098	-0.608787
C	-2.7577638597	-2.3889082967	 0.0260072858	-0.248087
C	-3.3394288044	-1.159309779	 0.0188283321	-0.009081
O	-2.4212299034	-0.1733630977	 0.0518729833	-0.208072
H	 0.7475485205	 1.8835669932	-0.0977766558	 0.259237
H	-0.9815015633	 1.7701395201	-0.075316182	 0.264511
H	 0.5814826402	-2.6831497936	-0.0084256515	 0.274702
H	-0.5006430049	-3.973839923	-0.2969150551	 0.247266
H	-3.2649469412	-3.3410146624	 0.0146742006	 0.113323
H	-4.36996094	-0.8422958137	-0.0032223314	 0.140001
104.4051	161.7219	183.4924	235.4259	311.9798	326.7756	393.2776	443.9782	508.3277	532.0624	606.3065	634.0835	671.5649	698.856	722.9099	758.7355	794.4051	825.6949	898.0797	1042.7097	1082.0212	1086.6602	1172.4032	1194.3127	1230.3706	1337.8703	1397.6091	1506.4555	1531.7741	1601.0313	1611.2563	1673.4377	1732.2455	3251.7661	3276.1254	3522.4847	3604.3037	3664.3034	3739.9325
NC(=O)C1=C(N)C=CO1	NC(=O)c1c(N)cco1	
InChI=1S/C5H6N2O2/c6-3-1-2-9-4(3)5(7)8/h1-2H,6H2,(H2,7,8)	InChI=1S/C5H6N2O2/c6-3-1-2-9-4(3)5(7)8/h1-2H,6H2,(H2,7,8)
