23
gdb 59944	2.12757	1.07357	0.94346	1.3779	87.71	-0.2546	0.0594	0.314	1432.4956	0.201578	-388.262258	-388.250943	-388.249999	-388.298265	42.431	
C	-0.9176444353	 0.7787292817	-2.4857847458	-0.410287
C	 0.3818176663	 0.0214029451	-2.7700578069	 0.129641
O	 1.3476148499	 0.9083770326	-3.3417368842	-0.442487
C	 1.052802257	-0.5597691201	-1.5145648926	-0.193623
C	 0.7302769557	-2.0383877872	-1.1569325358	 0.054688
C	 1.540810529	-2.4135615561	 0.1066337548	-0.403291
C	-0.7727543523	-2.2615860125	-0.8713229212	-0.401498
C	 1.1427026049	-2.9169370397	-2.2588188082	 0.373045
C	 1.481166345	-3.6482902176	-3.1516944197	-0.523666
H	-1.6731098011	 0.1397107448	-2.0212482068	 0.11909
H	-0.7187826117	 1.6233527418	-1.8179485805	 0.122562
H	-1.3474998651	 1.1729743852	-3.4145601272	 0.102321
H	 0.1796223903	-0.8020681764	-3.472293122	 0.077411
H	 0.9439983259	 1.3266585961	-4.1091077343	 0.276529
H	 2.131642036	-0.4843025198	-1.6771354288	 0.119886
H	 0.8161642415	 0.0638873163	-0.6434779104	 0.09023
H	 1.237724931	-1.7823772212	 0.9487945211	 0.111529
H	 1.3705881005	-3.4585472175	 0.3800471771	 0.120363
H	 2.612414556	-2.2747756896	-0.0602180325	 0.124686
H	-1.3820968412	-2.0960610148	-1.7626618183	 0.126347
H	-0.9470621656	-3.2888145113	-0.5384868617	 0.120642
H	-1.1145340164	-1.5826466614	-0.0828297576	 0.111602
H	 1.7846911998	-4.2896326283	-3.9417065584	 0.194279
47.3355	88.835	154.4155	179.8199	205.7826	241.6708	249.5352	287.8192	294.7942	312.6431	321.7706	376.291	414.2262	439.2631	477.817	556.6095	590.9963	624.9502	630.5685	723.2428	848.4569	872.624	912.6086	944.084	953.5459	982.2868	1026.2041	1067.3949	1093.8404	1112.8705	1174.4183	1209.9986	1226.485	1274.8216	1305.8506	1345.8877	1380.9955	1394.4322	1407.0099	1417.27	1430.0107	1473.4159	1485.4772	1487.7308	1494.1246	1498.1471	1501.2014	1514.518	2227.7742	2982.4038	3027.78	3030.4565	3034.5881	3039.7354	3091.7845	3094.9723	3106.5993	3111.0616	3119.0299	3120.6655	3126.2724	3501.8312	3813.3488
CC(O)CC(C)(C)C#C	C[C@@H](O)CC(C)(C)C#C	
InChI=1S/C8H14O/c1-5-8(3,4)6-7(2)9/h1,7,9H,6H2,2-4H3	InChI=1S/C8H14O/c1-5-8(3,4)6-7(2)9/h1,7,9H,6H2,2-4H3/t7-/m1/s1
