19
gdb 61432	2.72665	1.19782	0.92476	6.5248	74.52	-0.23	0.0066	0.2366	1287.4278	0.158561	-456.391607	-456.381825	-456.38088	-456.426992	34.711	
C	 0.5807648122	 1.3997023294	 0.1119392892	-0.350062
N	 0.3426645498	-0.0209340901	-0.0887890373	-0.050906
C	 0.48474771	-0.8593015949	 1.1026267347	-0.309257
C	-0.8211228823	-1.0444741027	 1.9029155132	 0.395779
O	-1.7717701445	-1.7219271278	 1.2629295058	-0.371939
O	-0.9587845072	-0.6095113106	 3.0181113721	-0.334542
C	-0.1807587418	-0.5637761787	-1.2258763938	 0.383063
C	-0.1471070413	 0.264530793	-2.4921509046	-0.482995
N	-0.6680391726	-1.7617913608	-1.172181779	-0.572777
H	-0.9561072319	-2.0957712126	-2.0850333769	 0.222111
H	-1.4478319266	-1.946923437	 0.341442371	 0.328941
H	 1.6048638416	 1.5676902537	 0.4652123999	 0.137132
H	 0.4426638108	 1.9546485688	-0.8137455002	 0.139431
H	-0.1072333618	 1.8082728815	 0.8624637678	 0.15412
H	 0.8532649865	-1.8401013004	 0.7863954744	 0.144416
H	 1.2122851838	-0.3908918484	 1.7666253102	 0.127949
H	 0.8364645559	 0.7088523977	-2.6675911201	 0.14672
H	-0.3980990189	-0.3688761896	-3.3442937858	 0.137333
H	-0.8811371715	 1.0761128094	-2.4534823706	 0.15548
69.3023	71.2235	102.4428	111.7155	199.0127	226.271	294.8404	307.9285	373.5317	443.4424	501.8474	570.5748	578.0024	604.0183	720.9967	769.5833	793.6763	890.028	948.5547	973.0307	1011.5563	1048.2856	1060.1555	1109.5179	1156.6439	1181.4297	1248.4538	1298.0394	1352.3315	1369.5658	1405.5359	1456.5836	1462.8131	1474.0224	1481.6649	1495.3845	1502.2236	1529.0864	1539.0919	1653.5023	1852.9293	3022.3799	3046.2347	3056.0795	3059.8565	3070.2104	3111.4045	3133.3106	3140.1713	3170.3719	3551.3508
CN(CC([O-])=O)C(C)=[NH2+]	CN(CC(=O)O)C(=N)C	
InChI=1S/C5H10N2O2/c1-4(6)7(2)3-5(8)9/h6H,3H2,1-2H3,(H,8,9)	InChI=1S/C5H10N2O2/c1-4(6)7(2)3-5(8)9/h6H,3H2,1-2H3,(H,8,9)
