17
gdb 46568	3.02647	1.73394	1.34458	3.3412	72.24	-0.2234	-0.0377	0.1857	955.1296	0.137862	-417.903057	-417.896242	-417.895298	-417.934232	27.701	
O	-0.1476957438	-0.0623372078	-0.1891468064	-0.292334
C	-0.0277100802	 1.1227753879	-0.0546212371	 0.322263
C	-1.2447753192	 2.1337513229	-0.0056900784	-0.280698
N	-0.7637163386	 3.5028466744	 0.3387954201	-0.417606
C	 0.5919183931	 3.2175961071	 0.7587947604	 0.293755
C	 2.0346598965	 3.7690306757	 0.8524515044	-0.245818
N	 2.2101462822	 2.2690912469	 1.2228456349	-0.159704
C	 0.9447780739	 2.4781334503	 2.0717989704	-0.204216
C	 1.2043212703	 2.0246816896	 0.0499225527	-0.077441
H	-1.7774491266	 2.1149707762	-0.9609943088	 0.137355
H	-1.9392997402	 1.761430891	 0.7556988266	 0.149197
H	-0.7620441606	 4.0855150058	-0.4931268968	 0.223627
H	 2.5372166501	 4.0506955445	-0.0762744986	 0.110318
H	 2.2906947146	 4.4389301893	 1.676878121	 0.114151
H	 1.1115349115	 3.0791935207	 2.9683108683	 0.107819
H	 0.4311301689	 1.5439034421	 2.3134110668	 0.123886
H	 1.6678262182	 2.1695184737	-0.9326483996	 0.095445
105.143	187.4435	295.9198	379.4143	464.6911	494.8232	550.5284	586.4859	623.7525	697.0665	738.2197	787.3053	802.2976	843.7388	889.2465	939.0252	961.1449	982.0535	997.2207	1023.1863	1055.8095	1081.3577	1086.3088	1124.4078	1163.2739	1187.3836	1190.9241	1232.0643	1236.4821	1275.0721	1318.9932	1342.3112	1405.9128	1462.6094	1510.8338	1552.5477	1859.2955	3047.7455	3048.3636	3056.3365	3062.5923	3096.6013	3125.7881	3130.9412	3511.9292
O=C1CNC23CN(C2)C13	O=C1CN[C@@]23CN(C2)[C@@H]13	
InChI=1S/C6H8N2O/c9-4-1-7-6-2-8(3-6)5(4)6/h5,7H,1-3H2	InChI=1S/C6H8N2O/c9-4-1-7-6-2-8(3-6)5(4)6/h5,7H,1-3H2/t5-/m0/s1
