16
gdb 70047	4.21872	1.0746	0.9521	4.6849	78.24	-0.2499	-0.0441	0.2058	1203.8018	0.124812	-400.761553	-400.753765	-400.752821	-400.793703	30.185	
O	-0.0452121124	 1.3798637532	 0.0286892201	-0.463552
C	-0.0026647248	-0.0107899673	 0.0445989477	 0.391137
C	-0.3745241824	-0.7795114741	-1.1895587198	-0.338817
C	-1.3046584907	-0.7907319234	 0.0279898505	-0.12309
C	-1.108653426	-1.9181629559	 0.9669318562	-0.15131
C	 0.12163482	-1.9008071551	 1.5117189296	 0.175765
C	 0.9238684216	-0.6893913043	 1.0583322551	-0.393261
C	 0.6419736316	-2.8668605363	 2.4116530555	 0.204201
N	 1.0965943255	-3.6376934529	 3.1483287542	-0.338433
H	 0.6679518316	 1.6987520466	-0.5353223116	 0.288552
H	-0.7166384701	-0.185272741	-2.0302176183	 0.123958
H	 0.154569774	-1.6922676596	-1.4441333462	 0.122578
H	-2.2648088549	-0.2975919282	-0.0612281355	 0.112789
H	-1.8612932905	-2.6698911079	 1.1709820002	 0.125762
H	 1.8921966907	-0.9728881807	 0.6313781712	 0.126558
H	 1.1225171266	-0.010391503	 1.8960980513	 0.137163
107.2119	152.8482	235.58	277.8463	327.7112	375.0347	414.8623	457.6286	525.774	565.4437	574.866	634.9792	735.4604	835.8915	868.6963	893.479	910.5612	931.941	982.2391	992.9553	1050.9517	1063.7755	1083.6557	1151.849	1180.6465	1242.5874	1251.3332	1304.3503	1308.0625	1343.3766	1400.4059	1464.5933	1483.9834	1653.0516	2333.0793	3038.3477	3076.6275	3126.3266	3192.8162	3215.099	3223.1397	3797.2142
OC12CC1C=C(C2)C#N	O[C@]12C[C@H]1C=C(C2)C#N	
InChI=1S/C7H7NO/c8-4-5-1-6-3-7(6,9)2-5/h1,6,9H,2-3H2	InChI=1S/C7H7NO/c8-4-5-1-6-3-7(6,9)2-5/h1,6,9H,2-3H2/t6-,7-/m1/s1
