20
gdb 8911	3.41318	1.24009	0.97325	4.7661	75.47	-0.2597	0.0251	0.2849	1227.492	0.176332	-345.19945	-345.189645	-345.188701	-345.233997	35.332	
C	 0.056374831	 1.5881182307	-0.012856416	-0.39498
C	-0.0194115658	 0.0577075939	 0.0172988211	-0.182954
C	-1.450346837	-0.5099114955	-0.0028788705	 0.033227
C	-2.2080618436	-0.1266739792	-1.2815210767	-0.412663
C	-1.4196759722	-2.0614536157	 0.178219898	-0.129691
N	-0.7471571409	-2.5892384046	 1.3675886679	-0.508207
C	-2.7930708746	-2.5988356188	 0.1686448712	 0.304253
N	-3.879907302	-2.9911063685	 0.1732861264	-0.330963
H	 1.092873313	 1.9240517037	 0.0870752476	 0.118058
H	-0.3335239098	 2.0009868594	-0.9472082443	 0.125579
H	-0.5159719681	 2.0279839072	 0.8114828011	 0.118865
H	 0.5406168176	-0.3544569731	-0.8343669348	 0.096811
H	 0.4925402683	-0.29190243	 0.9211535507	 0.085601
H	-1.9944120529	-0.1020098448	 0.8616777302	 0.081813
H	-2.3032474138	 0.9578023482	-1.3733917448	 0.123409
H	-1.6810455173	-0.491014196	-2.1719480147	 0.115763
H	-3.216071417	-0.5487706369	-1.2907207103	 0.14773
H	-0.9077470251	-2.4901878448	-0.6945615924	 0.128536
H	 0.2433229058	-2.3775594252	 1.3303221007	 0.241265
H	-1.1205225355	-2.15445534	 2.2064763795	 0.238549
61.6587	83.1515	147.4445	210.8785	216.2447	229.1873	264.0421	301.4497	321.8001	390.9061	407.201	444.8455	563.6006	604.2254	777.9193	808.0493	847.6485	859.0313	952.916	979.4928	990.4336	1048.2883	1098.8535	1116.4777	1155.6061	1179.3663	1208.8988	1265.0804	1308.9285	1343.683	1362.299	1379.1069	1403.8626	1413.1656	1419.9107	1484.9878	1497.5785	1499.9547	1507.6929	1516.3022	1656.3863	2358.9622	2997.9522	3010.7361	3024.4518	3035.3149	3037.9412	3056.5382	3102.7056	3106.1191	3116.2605	3127.64	3501.8577	3595.6832
CCC(C)C(N)C#N	CC[C@@H](C)[C@@H](N)C#N	
InChI=1S/C6H12N2/c1-3-5(2)6(8)4-7/h5-6H,3,8H2,1-2H3	InChI=1S/C6H12N2/c1-3-5(2)6(8)4-7/h5-6H,3,8H2,1-2H3/t5-,6+/m1/s1
