16
gdb 63600	4.62666	0.70042	0.6646	6.0724	86.94	-0.265	-0.0388	0.2262	1640.902	0.122238	-400.727088	-400.717799	-400.716854	-400.761444	33.759	
C	-0.1029918846	 1.5574923074	-0.1266622806	-0.452553
C	-0.0048629379	 0.0549280949	-0.0199783197	 0.407822
O	-1.1673036692	-0.6390870663	-0.3780199088	-0.457903
C	 1.2998829327	-0.6517226699	-0.2376886934	-0.339097
C	 0.6841766728	-0.6040338272	 1.1690184836	-0.27277
C	 1.2928359193	 0.1639933758	 2.2005945902	 0.109428
C	 1.8088478671	 0.8123252997	 3.0834593685	 0.053929
C	 2.3933420001	 1.5463048637	 4.0725354331	 0.198901
N	 2.8927806615	 2.1747222759	 4.9135126193	-0.341767
H	 0.8010192096	 2.0468187231	 0.2430373424	 0.136869
H	-0.2437386012	 1.8536558104	-1.1727776735	 0.117513
H	-0.9573073999	 1.9224014517	 0.4506162733	 0.141475
H	-1.3113966328	-0.5107347632	-1.3227889371	 0.28873
H	 1.2751058632	-1.6179486243	-0.7275693433	 0.131919
H	 2.1928413767	-0.0602840823	-0.404286593	 0.134732
H	 0.2035329926	-1.5214918793	 1.4939969292	 0.142771
70.748	80.1308	187.0049	198.6256	230.4124	261.7361	313.5856	356.2139	377.1056	433.174	485.9417	537.1784	580.8837	589.2322	701.864	717.3786	846.8024	910.406	927.0343	956.5694	1014.9356	1065.6683	1086.5511	1091.5305	1214.1758	1239.8045	1299.3582	1347.464	1399.1584	1420.9463	1469.4062	1484.6939	1502.2332	2259.7965	2387.8682	3035.4489	3103.3099	3132.0797	3142.7436	3164.8755	3240.7507	3791.3813
CC1(O)CC1C#CC#N	C[C@@]1(O)C[C@H]1C#CC#N	
InChI=1S/C7H7NO/c1-7(9)5-6(7)3-2-4-8/h6,9H,5H2,1H3	InChI=1S/C7H7NO/c1-7(9)5-6(7)3-2-4-8/h6,9H,5H2,1H3/t6-,7-/m1/s1
