17
gdb 38075	3.28803	1.79359	1.30111	1.9705	81.76	-0.2252	-0.0352	0.19	965.8022	0.138192	-384.688978	-384.682317	-384.681373	-384.719834	27.338	
C	-0.0240135791	 1.5040233739	 0.0659005841	-0.254385
C	 1.4753571376	 1.9415115763	-0.0359372	-0.362915
C	 2.1539889945	 0.7078301821	-0.5964886326	 0.402077
O	 2.8473180729	 0.7163449907	-1.8534349668	-0.302911
C	 3.5048394272	 0.128024657	-0.6974859949	-0.153557
C	 3.3091750398	-1.3606648719	-0.6251779375	-0.08047
C	 1.9985509142	-1.6686935419	-0.5150597555	-0.23287
C	 1.2176904493	-0.4436724551	-0.4076896426	 0.34567
C	 0.0066977648	-0.0105479075	-0.0424576692	-0.238213
H	-0.4914188181	 1.8342718445	 1.0005793894	 0.108717
H	-0.619898779	 1.9457158323	-0.7444007218	 0.12052
H	 1.6252857666	 2.8081108061	-0.6829845636	 0.121341
H	 1.8632065791	 2.1923110859	 0.9562069964	 0.11601
H	 4.4267145766	 0.6124813359	-0.3921453018	 0.096552
H	 4.122054333	-2.0743492455	-0.6779114969	 0.107379
H	 1.587825039	-2.6705134548	-0.4871407911	 0.107804
H	-0.8600407185	-0.623885418	 0.1785805142	 0.099249
120.6483	240.7309	283.943	371.6132	427.8856	487.1867	617.5035	644.3523	692.7063	715.9385	784.5663	797.8823	809.5853	843.8162	889.7905	903.3052	923.3611	947.2449	954.332	984.6258	1038.3674	1051.9435	1081.3018	1129.489	1166.282	1213.8219	1232.526	1256.8113	1279.7068	1318.6758	1339.2655	1370.6694	1434.4891	1473.2629	1492.788	1592.2397	1715.1035	3017.3181	3051.6445	3064.0013	3117.0243	3167.7858	3192.1676	3199.9249	3221.6869
C1CC23OC2C=CC3=C1	C1C[C@@]23O[C@@H]2C=CC3=C1	
InChI=1S/C8H8O/c1-2-6-3-4-7-8(6,5-1)9-7/h2-4,7H,1,5H2	InChI=1S/C8H8O/c1-2-6-3-4-7-8(6,5-1)9-7/h2-4,7H,1,5H2/t7-,8+/m1/s1
