21
gdb 70836	2.27977	1.92189	1.37677	1.825	81.96	-0.2182	0.0804	0.2987	1047.0009	0.182232	-387.060692	-387.052307	-387.051362	-387.093012	33.367	
C	 0.0799090286	 1.4477958209	-0.1585042798	-0.523816
C	-0.005508995	-0.0372480631	 0.0090236652	 0.425095
O	 0.5869773167	-0.8949805862	-1.0347706182	-0.38818
C	 0.0337123075	-1.8350755364	-0.0416080496	 0.425095
C	 0.1835407802	-3.3032083777	-0.2923161555	-0.523816
C	 0.5747215737	-0.9561778423	 1.128753086	-0.109381
C	-0.3943503737	-1.0104200374	 2.3045578994	-0.250567
C	-1.7570021153	-1.0185795993	 1.5377637652	-0.250567
C	-1.2553841304	-0.9671025174	 0.0989129614	-0.109382
H	 1.1246816911	 1.7700812298	-0.2086636876	 0.131569
H	-0.4224882884	 1.7608927529	-1.0791023207	 0.131566
H	-0.3977332594	 1.9568299554	 0.6851119207	 0.123054
H	 1.2412996103	-3.5763977458	-0.3590055622	 0.131566
H	-0.2706611984	-3.8792257553	 0.5206110288	 0.123054
H	-0.3056628923	-3.5855436404	-1.2298129801	 0.13157
H	 1.6515176978	-0.9375327248	 1.3007751179	 0.066605
H	-0.2531981261	-1.9058712446	 2.9182021547	 0.099982
H	-0.2916163772	-0.1455630451	 2.967722273	 0.099982
H	-2.3465950412	-1.9184333544	 1.7401555213	 0.099982
H	-2.3850510523	-0.1581281738	 1.7897444766	 0.099982
H	-1.9614073765	-0.9590946551	-0.7322885965	 0.066605
179.5399	181.2015	199.3147	202.8713	217.7829	219.2209	379.2912	475.6001	497.5195	594.4431	648.6393	664.4285	716.4247	731.8538	746.5502	839.1764	881.8477	912.0874	912.5723	969.1862	990.776	993.9769	1030.6273	1050.6715	1090.0218	1097.9078	1157.9434	1166.1958	1175.6321	1203.0279	1243.1401	1249.4787	1267.0913	1286.7227	1309.5205	1320.2746	1396.2518	1406.6302	1456.1822	1475.248	1475.4587	1489.2497	1490.0281	1492.0642	1509.8947	3034.9198	3035.0903	3041.3188	3051.	3072.7548	3092.4708	3107.4403	3107.5328	3109.158	3109.3369	3115.914	3120.2512
CC12OC3(C)C1CCC23	C[C@@]12O[C@@]3(C)[C@@H]1CC[C@@H]23	
InChI=1S/C8H12O/c1-7-5-3-4-6(7)8(5,2)9-7/h5-6H,3-4H2,1-2H3	InChI=1S/C8H12O/c1-7-5-3-4-6(7)8(5,2)9-7/h5-6H,3-4H2,1-2H3/t5-,6+,7-,8+
