19
gdb 81626	3.06487	1.17287	0.96186	2.9589	79.06	-0.2162	0.0235	0.2397	1252.2006	0.159344	-419.141007	-419.132409	-419.131465	-419.175171	32.052	
C	-0.7890507357	 1.4365360625	-0.1211293234	-0.343372
N	-0.5176681805	 0.0004551589	-0.0863425618	-0.100485
C	-1.3197955353	-0.9137297976	 0.8216325158	-0.06201
C	-0.2087582141	-1.9615802506	 0.5473708237	-0.200587
C	 0.4898976928	-0.6115908357	 0.8722392882	-0.090157
C	-0.4754424109	-0.5046955187	 2.0882502038	 0.11543
N	-0.6240261385	 0.7379304527	 2.8032310663	-0.322974
C	-1.0905403268	 0.7808526992	 4.0846201618	 0.143166
O	-1.5163054682	-0.1698813611	 4.7034360253	-0.317559
H	 0.1505549472	 1.9749088955	-0.2915032804	 0.118336
H	-1.4341043278	 1.6387774288	-0.9835037824	 0.128305
H	-1.2884326153	 1.8661376735	 0.7568317851	 0.100321
H	-2.4003415898	-1.027847633	 0.7267247114	 0.089952
H	-0.0898450471	-2.7748836587	 1.2636538842	 0.103866
H	-0.1271911324	-2.272354453	-0.4918250755	 0.113521
H	 1.5540254426	-0.3692316131	 0.8232614626	 0.080876
H	-0.3992662423	-1.2929449566	 2.8399760745	 0.116176
H	-0.2363182508	 1.5836378562	 2.4218900004	 0.251874
H	-1.0391198569	 1.8049690008	 4.5051302203	 0.07532
34.2208	100.676	158.9594	207.7438	266.5495	297.3388	338.188	416.0019	513.0583	545.6333	649.0352	732.8099	746.1296	753.195	797.8469	888.1922	892.1475	964.2177	1013.5117	1028.453	1040.1948	1077.0654	1090.6107	1120.4963	1137.5557	1138.745	1183.0222	1189.6688	1205.1638	1214.7366	1224.9633	1241.5844	1287.8744	1412.1598	1432.3542	1444.1834	1481.7672	1487.3532	1524.1203	1535.9083	1807.7453	2934.8008	3005.7958	3062.6217	3085.5971	3086.7697	3089.503	3099.5653	3115.1354	3180.976	3661.9423
CN1C2CC1C2NC=O	CN1[C@H]2C[C@@H]1[C@H]2NC=O	
InChI=1S/C6H10N2O/c1-8-4-2-5(8)6(4)7-3-9/h3-6H,2H2,1H3,(H,7,9)	InChI=1S/C6H10N2O/c1-8-4-2-5(8)6(4)7-3-9/h3-6H,2H2,1H3,(H,7,9)/t4-,5+,6-
