17
gdb 41344	3.11171	1.90731	1.58362	0.8264	65.9	-0.2509	0.056	0.3069	868.9322	0.138874	-458.91903	-458.912885	-458.911941	-458.94923	26.04	
C	 0.0093069641	 1.4895477793	-0.1705834872	-0.16262
O	 1.4548817072	 1.4647555916	 0.0929926095	-0.357186
C	 1.3003692816	 0.2135427512	 0.7618250299	 0.384159
C	 2.1234730384	-1.0646763368	 0.7058081774	-0.148348
O	 1.1950743647	-1.9323274618	 1.4263859995	-0.285173
C	 0.1841034149	-1.1081076676	 2.0239079485	 0.213441
C	 0.9072967413	 0.2068347434	 2.2641075828	-0.318625
O	-0.8285876104	-0.7365208092	 1.064372735	-0.279709
C	-0.0471407175	-0.0410755875	 0.1019490977	 0.066966
H	-0.5233386064	 2.1159546916	 0.5524796278	 0.117913
H	-0.2004153205	 1.821221765	-1.1898467577	 0.119968
H	 2.2597922049	-1.4589475114	-0.3051394498	 0.116715
H	 3.0890564598	-1.0271728522	 1.2243415313	 0.106964
H	-0.2917030851	-1.6659438538	 2.8267608692	 0.099987
H	 1.7640480815	 0.1359114945	 2.9368133015	 0.111334
H	 0.2411494769	 1.0143530378	 2.563584216	 0.117329
H	 0.0003089047	-0.6079104943	-0.8323431315	 0.096886
218.62	311.7645	344.5737	425.5204	463.6934	485.604	541.9003	655.2654	720.7974	761.0811	809.657	844.7449	885.5306	904.4089	938.9465	946.284	982.1629	989.8862	1029.926	1056.9896	1090.0161	1110.7083	1144.6755	1153.1507	1158.1792	1197.4084	1231.3638	1246.5665	1288.794	1314.4057	1328.0423	1331.3247	1371.7258	1388.8357	1490.7531	1509.8338	1529.2925	3027.286	3047.0168	3062.6575	3087.3601	3092.5009	3117.1566	3158.3805	3164.0457
C1OC23COC(C2)OC13	C1O[C@@]23CO[C@@H](C2)O[C@@H]13	
InChI=1S/C6H8O3/c1-5-7-3-6(1)4(9-5)2-8-6/h4-5H,1-3H2	InChI=1S/C6H8O3/c1-5-7-3-6(1)4(9-5)2-8-6/h4-5H,1-3H2/t4-,5+,6+/m0/s1
