21
gdb 57272	2.18615	1.41074	1.2491	1.5613	83.4	-0.2422	0.0557	0.2979	1172.9771	0.179994	-387.043796	-387.033858	-387.032914	-387.078231	37.2	
C	-0.0771125442	 1.514174878	-0.1031309161	-0.409892
C	 0.0019180652	-0.0238690145	 0.0254591878	 0.030265
C	 0.6926473484	-0.4203242771	 1.3492202471	-0.414205
C	-1.3521942771	-0.5861050795	-0.0102437177	 0.364726
C	-2.4623292605	-1.0487520175	-0.0157600209	-0.515203
C	 0.8400525523	-0.5674207685	-1.1530122727	 0.167045
C	 0.8016195408	-2.0789947576	-1.4689490717	-0.312304
C	 0.2262992547	-1.6318999988	-2.8270739947	-0.060723
O	 0.2735956994	-0.2413042459	-2.4387213067	-0.295878
H	 0.9265731565	 1.9483012469	-0.0393505909	 0.109181
H	-0.5162551842	 1.7908262529	-1.0635787007	 0.147124
H	-0.6882715102	 1.9374188587	 0.6984068628	 0.119436
H	 0.1293893693	-0.0365081121	 2.2037562039	 0.127748
H	 0.762201869	-1.5070207619	 1.4516166195	 0.124753
H	 1.7040901107	-0.0022360359	 1.3889933108	 0.114112
H	-3.4465582348	-1.4474345293	-0.0271093998	 0.19439
H	 1.8536562651	-0.1508429028	-1.0583295547	 0.070217
H	 1.7724273369	-2.5746920403	-1.5046519595	 0.106979
H	 0.1153311427	-2.6555886379	-0.8476786793	 0.12173
H	 0.8605137911	-1.8301366368	-3.6995767226	 0.099533
H	-0.797614281	-1.95577781	-3.0426339139	 0.110965
86.9106	96.3474	154.6792	182.2908	200.1391	227.4843	256.3493	308.9184	325.2657	401.7196	423.7231	561.7149	607.5845	622.0472	637.6019	672.6306	787.7495	816.279	875.3165	938.0006	949.462	959.298	978.1556	1024.5539	1043.1848	1056.8273	1101.731	1161.3825	1171.9053	1209.5059	1222.5514	1260.6344	1267.9155	1290.5105	1362.273	1371.3098	1392.8543	1416.9805	1481.9974	1486.0399	1487.607	1497.6777	1509.8705	1526.6301	2228.4807	2990.0489	3022.5956	3035.5564	3040.4841	3068.9961	3085.9409	3107.7209	3111.7329	3120.4986	3138.6954	3143.1982	3500.6812
CC(C)(C#C)C1CCO1	CC(C)(C#C)[C@H]1CCO1	
InChI=1S/C8H12O/c1-4-8(2,3)7-5-6-9-7/h1,7H,5-6H2,2-3H3	InChI=1S/C8H12O/c1-4-8(2,3)7-5-6-9-7/h1,7H,5-6H2,2-3H3/t7-/m1/s1
