17
gdb 80639	2.84678	1.59276	1.28511	5.8366	71.87	-0.2565	0.033	0.2895	999.6553	0.138885	-417.989736	-417.98245	-417.981506	-418.021475	28.827	
O	-0.0336551697	 1.3883544117	 0.1011748109	-0.420982
C	-0.0107394071	-0.0034530717	 0.0149165135	 0.165385
C	-1.409864468	-0.6160096777	-0.1988087463	-0.037963
C	-1.1366961602	-2.0526184302	-0.6993468405	-0.250308
C	-0.6015110856	-1.2439639445	-1.9080985482	-0.00878
N	-1.6238340548	-0.1653543949	-1.628926825	-0.342492
C	 0.6664230345	-0.5836756255	-1.3102447481	-0.211718
C	 1.2574000524	 0.4342694444	-2.1646448614	 0.291907
N	 1.7306100834	 1.2256214789	-2.8613569531	-0.329812
H	-0.5520540597	 1.698944159	-0.6554926923	 0.29785
H	 0.4912851408	-0.3725834487	 0.911151723	 0.098575
H	-2.1665444453	-0.3596045786	 0.5416839064	 0.088121
H	-0.4535160516	-2.7013571208	-0.1403464504	 0.102216
H	-2.0580771721	-2.5887921804	-0.9383028266	 0.109718
H	-0.531811013	-1.6372278057	-2.9212155866	 0.097255
H	-2.5335567699	-0.5023630416	-1.9421834794	 0.22681
H	 1.4294215759	-1.331637624	-1.0782522758	 0.124217
105.7976	148.877	215.4504	342.3845	397.3531	459.1194	473.8366	511.4489	565.0486	636.0574	759.0583	795.381	826.5506	852.1648	866.6252	899.7699	932.4264	957.9645	990.6659	1050.6254	1060.7796	1074.1767	1096.4538	1133.2361	1154.1657	1189.6684	1212.116	1235.3448	1273.9086	1274.3106	1311.0007	1331.8058	1340.2656	1364.1176	1449.4084	1499.2671	2360.7893	3041.8167	3077.3706	3102.071	3114.5471	3132.1284	3134.9942	3472.6726	3740.3722
OC1C2CC(N2)C1C#N	O[C@H]1[C@@H]2C[C@@H](N2)[C@H]1C#N	
InChI=1S/C6H8N2O/c7-2-3-4-1-5(8-4)6(3)9/h3-6,8-9H,1H2	InChI=1S/C6H8N2O/c7-2-3-4-1-5(8-4)6(3)9/h3-6,8-9H,1H2/t3-,4-,5+,6-/m1/s1
