15
gdb 19322	4.94352	1.72125	1.51803	1.6318	72.05	-0.2214	0.0163	0.2377	846.8849	0.118082	-325.398727	-325.392013	-325.391069	-325.429209	27.027	
C	 0.0988362459	-1.1512929961	 0.0474658966	-0.394669
C	 0.023471108	 0.0482323098	-0.0135448039	 0.247357
C	-0.1210006509	 1.4639881229	-0.0630977219	 0.102455
C	 0.2547768808	 2.2913980245	-1.2399701853	-0.275991
N	 1.0729924485	 2.4206438419	-0.0277340786	-0.172437
C	 0.3264119979	 3.2114332707	 1.0332088491	 0.008426
C	-1.0608681318	 3.6984415673	 0.7178072118	-0.30901
C	-0.8342513633	 2.2530954246	 1.0648339166	-0.111478
H	 0.1810269367	-2.2088172834	 0.0967364409	 0.192489
H	 0.7874935904	 1.7703619719	-2.0297895944	 0.135713
H	-0.3715529725	 3.1044228226	-1.5884648597	 0.122683
H	 0.9292888669	 3.6166904359	 1.8346692495	 0.109355
H	-1.494524645	 4.2708184646	 1.5329471633	 0.123105
H	-1.3890123009	 4.036861607	-0.2580481121	 0.119015
H	-1.2965115008	 1.7526120559	 1.903896098	 0.102987
148.2177	153.7457	316.9532	436.7686	479.2818	507.6481	519.6984	583.3798	603.5871	657.9015	693.1903	743.0337	773.6628	834.4838	895.1844	929.8298	949.432	968.0202	1022.9351	1061.0357	1066.7743	1085.1695	1116.0317	1135.2865	1172.3046	1210.4382	1276.199	1310.5214	1361.9514	1468.7541	1516.0919	2231.5848	3125.0296	3137.2906	3199.4565	3203.8423	3216.1718	3218.6887	3502.3875
C#CC12CN1C1CC21	C#C[C@]12CN1[C@H]1C[C@@H]21	
InChI=1S/C7H7N/c1-2-7-4-8(7)6-3-5(6)7/h1,5-6H,3-4H2	InChI=1S/C7H7N/c1-2-7-4-8(7)6-3-5(6)7/h1,5-6H,3-4H2/t5-,6+,7-,8?/m1/s1
