18
gdb 107570	3.29384	1.34011	1.10019	0.9359	72.05	-0.2509	0.0227	0.2736	1115.6075	0.148778	-439.076111	-439.068019	-439.067075	-439.108971	30.763	
O	 0.1656602465	 1.3528274268	 0.3720496764	-0.415343
C	 0.1034243164	-0.0069541886	-0.0134738871	-0.125171
C	-1.3107997475	-0.5201559358	-0.0883994559	 0.395195
C	-2.0695070102	-0.9604372163	 1.1308900766	-0.338136
C	-1.6603043583	-1.9690362139	 0.0715534766	-0.121433
C	-2.7011534218	-2.5458912114	-0.8735493941	-0.17973
N	-3.387861046	-1.584474962	-1.7269413001	-0.264263
C	-3.0079991825	-0.3828626608	-1.7567465876	 0.115722
O	-2.0233718659	 0.2391730709	-1.0550946814	-0.278483
H	-0.3823629611	 1.8428187959	-0.2509539561	 0.292768
H	 0.5969059865	-0.1716068155	-0.9848244207	 0.095127
H	 0.654432354	-0.5757422935	 0.7419172408	 0.109837
H	-1.5495015923	-0.9585525768	 2.0822977384	 0.125721
H	-3.1195349973	-0.6907638054	 1.1837898383	 0.12888
H	-0.8437378005	-2.6394685193	 0.3251477615	 0.095227
H	-2.2172710904	-3.2752138699	-1.535600602	 0.12186
H	-3.4638703349	-3.1069279865	-0.3183232601	 0.117433
H	-3.4917020648	 0.3382989624	-2.4125983834	 0.124789
87.0753	107.5351	150.91	258.4101	355.2541	361.0765	397.4503	400.1739	507.6852	564.3609	618.1331	696.9641	788.9047	872.0391	899.1471	916.3145	932.7782	954.5785	987.0197	989.6027	1053.1815	1065.0294	1086.6922	1104.6706	1121.0848	1175.9441	1194.8206	1255.9856	1277.176	1294.6194	1368.7539	1381.0723	1410.1448	1416.3109	1441.4869	1483.3201	1491.7891	1498.3469	1745.7336	2979.1297	3018.3897	3042.7355	3082.6434	3132.7059	3143.3387	3162.1912	3222.7662	3810.4526
OCC12CC1CN=CO2	OC[C@]12C[C@H]1CN=CO2	
InChI=1S/C6H9NO2/c8-3-6-1-5(6)2-7-4-9-6/h4-5,8H,1-3H2	InChI=1S/C6H9NO2/c8-3-6-1-5(6)2-7-4-9-6/h4-5,8H,1-3H2/t5-,6+/m0/s1
