15
gdb 24569	2.32421	2.05347	1.28515	1.7898	77.55	-0.2195	-0.0191	0.2004	960.4595	0.113976	-416.8018	-416.794461	-416.793517	-416.8336	27.664	
O	-0.0237712327	 1.2559192727	-0.267919598	-0.195584
C	 0.9640195309	 2.1605202509	 0.0669897409	 0.036949
C	 2.2724038276	 2.069262834	-0.1782423483	-0.116371
C	 3.0613781949	 0.936558045	-0.6485640395	-0.171331
C	 3.2813257422	-0.2097226401	 0.0291520123	-0.004627
N	 2.8606249362	-0.5039226427	 1.3061857315	-0.225035
C	 1.637546092	-0.5921819767	 1.6663375245	 0.053716
N	 0.5313698234	-0.7594449853	 0.8754439448	-0.235429
C	-0.0780766538	-0.0568089314	 0.029315404	 0.146085
H	 0.5107108806	 3.0817142154	 0.4145503068	 0.122191
H	 2.8133470631	 3.0004373986	-0.0081135512	 0.114056
H	 3.6680628529	 1.1082982389	-1.5344709156	 0.100708
H	 3.9995336665	-0.9201470477	-0.3768400214	 0.108992
H	 1.4352245523	-0.7498825936	 2.727006265	 0.124831
H	-0.881960706	-0.4991710479	-0.5568390557	 0.140851
125.5797	158.1111	192.6517	236.8517	352.9821	376.1853	474.8219	514.5784	653.9274	690.1738	720.0724	812.5275	822.8232	846.6315	892.2058	946.4852	957.5617	964.1368	979.1968	1001.8137	1027.9132	1088.8232	1202.7735	1260.6337	1307.782	1394.541	1426.6726	1444.7275	1467.9595	1636.4365	1672.4729	1704.4562	1784.5944	3115.9173	3120.7981	3136.4201	3155.923	3158.2767	3203.1333
O1C=CC=CN=CN=C1	O1C=CC=C[N][CH]N=C1	
InChI=1S/C6H6N2O/c1-2-4-9-6-8-5-7-3-1/h1-6H/b3-1-,4-2-,7-5-,8-6-	InChI=1S/C6H6N2O/c1-2-4-9-6-8-5-7-3-1/h1-6H/b3-1-,4-2-,7-5?,8-6-
