16
gdb 28618	5.05034	1.01599	0.85026	3.9548	83.16	-0.2513	-0.0683	0.1831	1307.3791	0.125034	-400.830001	-400.821965	-400.821021	-400.863251	29.044	
C	-0.0002000578	 1.5110041047	 0.0042752811	-0.46631
C	 0.0163627488	 0.0073162015	 0.0275920243	 0.327134
N	 0.1310399877	-0.6024262813	-1.1669640775	-0.316684
C	 0.1499227795	-1.9293724187	-1.1937929711	-0.047351
C	 0.05740379	-2.7351922823	-0.0503310939	 0.144578
C	 0.0845538686	-4.2083205353	-0.1490830849	 0.091297
O	 0.1847978612	-4.8300981448	-1.1809568518	-0.265975
C	-0.0611361261	-2.096628704	 1.1832513406	-0.15861
C	-0.0820294176	-0.7100858746	 1.2242251327	-0.157366
H	 0.9183951706	 1.8905951726	-0.454506817	 0.14834
H	-0.831672118	 1.8688964065	-0.6113158426	 0.14834
H	-0.0952620701	 1.9342131108	 1.0067024451	 0.121116
H	 0.2430097515	-2.4059917973	-2.1660091601	 0.139182
H	 0.0031384135	-4.7314508354	 0.8313991551	 0.071138
H	-0.1356475505	-2.6830204496	 2.0954334201	 0.114938
H	-0.1731082011	-0.1821270829	 2.16682697	 0.106233
61.3281	95.1115	172.7123	189.8324	314.4719	352.6021	420.2077	426.7993	498.2347	616.9124	651.958	756.9809	776.1753	848.4723	864.8303	985.5381	993.2464	1009.907	1039.7081	1046.064	1061.741	1157.8425	1228.8555	1253.0733	1304.4363	1319.99	1402.1364	1409.0782	1441.3619	1473.3478	1486.1403	1510.2907	1603.3021	1634.9778	1800.0077	2867.2362	3042.9012	3103.2597	3130.4916	3164.0984	3173.7789	3194.2467
CC1=NC=C(C=O)C=C1	Cc1ncc(C=O)cc1	
InChI=1S/C7H7NO/c1-6-2-3-7(5-9)4-8-6/h2-5H,1H3	InChI=1S/C7H7NO/c1-6-2-3-7(5-9)4-8-6/h2-5H,1H3
