21
gdb 111150	3.89273	1.03692	0.95403	1.91	83.44	-0.253	0.0908	0.3438	1327.395	0.182556	-387.014078	-387.005702	-387.004758	-387.047098	32.861	
C	-0.0147173544	 1.5607257596	-0.0315731788	-0.373979
C	 0.155456788	 0.0395627667	-0.1295266945	-0.234635
C	 0.7567263002	-0.5556557664	 1.1376873392	 0.07118
C	-0.0918166486	-0.7447809422	 2.4473483581	-0.167551
C	-0.7636746516	-1.9872327824	 1.7747998583	-0.244053
C	 0.7523549084	-2.101539731	 1.4025072897	-0.183622
C	 1.0136544121	-1.7238557015	 2.8674351669	 0.56049
C	 2.1622826584	-1.6957323975	 3.7576438096	-0.322518
O	 1.0260490511	-2.5740092879	 3.9828489432	-0.307094
H	 0.9399279691	 2.0533353686	 0.1842846696	 0.114143
H	-0.4001457154	 1.9775576531	-0.9670948544	 0.112718
H	-0.7134618516	 1.8307250605	 0.7673967315	 0.11813
H	-0.8079087207	-0.4182754414	-0.3733926921	 0.10029
H	 0.8230055345	-0.1966616137	-0.9686645946	 0.09792
H	 1.7324127167	-0.0895823496	 1.3259411675	 0.062214
H	-0.5678215572	 0.0249681736	 3.0550585551	 0.076061
H	-1.1490965111	-2.7493067094	 2.4544306116	 0.113827
H	-1.4628798527	-1.7951963101	 0.9614695357	 0.095896
H	 1.2395696282	-2.8789293172	 0.813268132	 0.075059
H	 3.0853229236	-2.2046806294	 3.4837266539	 0.117756
H	 2.2744810029	-0.8972374625	 4.4896809827	 0.11777
77.2807	133.8178	169.9281	233.9628	284.6697	330.8148	364.4739	426.2644	470.7772	606.9598	643.4148	730.217	767.3624	808.4428	856.1166	879.9852	890.686	897.4704	961.9664	996.2521	1010.0934	1039.483	1045.3113	1085.8375	1098.3492	1109.5149	1119.7206	1125.1227	1141.9673	1153.7023	1172.4438	1204.7487	1217.8051	1238.1694	1252.8021	1296.0572	1350.1416	1410.5191	1428.4896	1459.6647	1485.5328	1499.3178	1505.3668	1522.441	1562.3925	3019.8465	3026.0054	3031.7297	3071.8863	3083.4381	3083.8249	3101.795	3104.435	3111.4962	3116.6512	3147.2186	3168.4966
CCC1C2CC1C21CO1	CC[C@H]1[C@H]2C[C@@H]1[C@]12CO1	
InChI=1S/C8H12O/c1-2-5-6-3-7(5)8(6)4-9-8/h5-7H,2-4H2,1H3	InChI=1S/C8H12O/c1-2-5-6-3-7(5)8(6)4-9-8/h5-7H,2-4H2,1H3/t5-,6+,7-,8+
