15
gdb 16864	4.35831	1.85569	1.42312	4.5075	60.36	-0.2569	0.0151	0.2721	840.8234	0.121239	-399.809863	-399.803445	-399.802501	-399.840543	24.737	
O	-0.1569199697	-0.1327029057	-0.0265235912	-0.326226
C	-0.0402890468	 1.0560129554	-0.1450049843	 0.416669
C	-1.1244168254	 2.0615058943	 0.2289450946	-0.35788
C	-1.2204543922	 3.1936893389	-0.7823027149	-0.030822
N	-0.7207693808	 4.5071171933	-0.3445790566	-0.329748
C	 0.0797668301	 3.6987395502	-1.2854952797	-0.053567
C	 1.2821039312	 3.0027291581	-0.6818717718	-0.084682
O	 1.1105742617	 1.570781913	-0.6480081104	-0.224679
H	-2.0569143067	 1.5064945175	 0.3342631202	 0.13728
H	-0.8759601942	 2.4856596258	 1.2091171656	 0.148367
H	-2.0626480734	 3.1654265792	-1.4669578979	 0.104911
H	-1.2012125604	 5.2468295769	-0.8509742389	 0.238682
H	 0.15730017	 4.0241453435	-2.3180419569	 0.102331
H	 2.1909724105	 3.1569164268	-1.2657448965	 0.127981
H	 1.4504075459	 3.3778173828	 0.333067099	 0.131382
102.7654	194.027	306.737	430.366	436.5504	471.4328	524.8925	606.2859	742.6813	784.5553	843.3462	851.4143	915.6195	928.2676	970.0741	1007.7419	1034.2711	1069.4164	1116.2032	1139.419	1186.5513	1226.6571	1244.8031	1257.5431	1281.1045	1310.45	1383.9012	1411.1113	1449.4132	1458.4177	1502.9695	1851.5607	3048.7865	3053.7914	3120.0855	3132.2384	3153.7792	3163.9931	3504.3836
O=C1CC2NC2CO1	O=C1C[C@H]2N[C@H]2CO1	
InChI=1S/C5H7NO2/c7-5-1-3-4(6-3)2-8-5/h3-4,6H,1-2H2	InChI=1S/C5H7NO2/c7-5-1-3-4(6-3)2-8-5/h3-4,6H,1-2H2/t3-,4+/m1/s1
