15
gdb 24367	3.75436	1.65687	1.17043	1.3468	75.85	-0.1769	-0.0233	0.1536	981.4274	0.116458	-416.841587	-416.835024	-416.83408	-416.872494	25.897	
C	 0.1412607754	 1.4344963307	 0.3319238857	-0.229379
N	 1.0746660144	 2.1471994442	-0.5557882109	-0.398581
C	 2.1683913211	 1.4106330457	-0.9497530234	 0.275756
C	 2.1271158382	 0.0477823204	-1.0152662856	 0.269504
O	 3.3220167947	-0.3686956443	-1.5533331786	-0.187881
C	 4.0000032386	 0.7791607945	-1.7623947304	 0.049869
N	 3.3725169464	 1.8723144489	-1.4309683452	-0.338906
C	 0.9484703763	-0.7009371113	-0.7014460036	-0.174386
C	-0.0454721056	-0.0101037097	-0.11167807	-0.084925
H	 0.4874734281	 1.4500258172	 1.386155956	 0.097672
H	-0.8173807784	 1.9624750255	 0.3109528163	 0.115684
H	 1.2640243125	 3.107522375	-0.3097795687	 0.247306
H	 4.9946110783	 0.6880355107	-2.1686932593	 0.149219
H	 0.8499694893	-1.7454934455	-0.9732712216	 0.108206
H	-0.9878326894	-0.4854077419	 0.1335534394	 0.100843
140.6714	170.746	334.5992	388.4435	431.5713	497.7545	565.5876	604.2452	633.8445	683.7441	763.365	769.6292	804.9732	851.794	901.9197	956.3685	961.8354	1031.4494	1061.1242	1145.283	1171.2458	1186.936	1244.042	1276.264	1313.4581	1326.3616	1358.1036	1460.4591	1491.6768	1508.0576	1552.6721	1632.456	1674.5584	2870.5648	3060.4675	3191.2434	3209.8633	3280.5844	3611.1613
C1NC2=C(OC=N2)C=C1	C1Nc2c(ocn2)C=C1	
InChI=1S/C6H6N2O/c1-2-5-6(7-3-1)8-4-9-5/h1-2,4,7H,3H2	InChI=1S/C6H6N2O/c1-2-5-6(7-3-1)8-4-9-5/h1-2,4,7H,3H2
