15
gdb 8095	2.93009	2.13668	1.56472	2.9357	63.34	-0.2517	0.0141	0.2658	845.8535	0.117839	-399.769728	-399.762315	-399.761371	-399.801086	28.215	
C	-0.1399346286	 1.4559869471	 0.0398291693	-0.492255
C	 0.0979868104	-0.0149730335	 0.0551301834	 0.371462
O	-1.07616309	-0.8810528412	-0.0827787724	-0.322757
C	-0.6031584489	-1.6959292224	 0.9610102141	 0.442967
N	-1.1712673017	-2.6378148147	 1.5577254514	-0.552719
C	 0.6983153721	-0.9930879093	 1.07847996	-0.309312
C	 1.2728867559	-0.8230695208	-0.3473392612	 0.090346
O	 1.2428101676	-1.7905288666	-1.3345082625	-0.423816
H	 0.7961847858	 1.9898449873	 0.2261154746	 0.135491
H	-0.5235717174	 1.7739421875	-0.9355536163	 0.1426
H	-0.8656568405	 1.7430813105	 0.8066182227	 0.140662
H	-2.1075180228	-2.8044934691	 1.1857078351	 0.231437
H	 1.2770518471	-0.8440222677	 1.9786209086	 0.121612
H	 2.2254530965	-0.2999613002	-0.3425948772	 0.123745
H	 0.3138736445	-1.988296447	-1.5121668196	 0.300537
129.5428	202.3006	216.3641	242.0373	299.006	397.6283	442.375	450.7514	578.8823	681.2563	690.1135	722.0452	811.7856	866.743	906.9976	910.2121	952.4402	959.5455	977.371	1074.041	1114.489	1140.9699	1178.724	1191.7345	1272.7125	1317.27	1376.5976	1416.7159	1474.4126	1485.4162	1503.8792	1835.0661	3038.1515	3105.9517	3120.8007	3160.3746	3226.22	3482.4332	3771.9889
CC12OC(=N)C1C2O	C[C@]12O[C]([NH])[C@H]1[C@H]2O	
InChI=1S/C5H7NO2/c1-5-2(3(5)7)4(6)8-5/h2-3,6-7H,1H3	InChI=1S/C5H7NO2/c1-5-2(3(5)7)4(6)8-5/h2-3,6-7H,1H3/t2-,3-,5+/m1/s1
