14
gdb 128228	2.65843	1.53243	0.97808	6.4577	73.29	-0.2505	-0.076	0.1746	1122.0754	0.099517	-469.994788	-469.986275	-469.985331	-470.028358	29.811	
C	 0.0108009262	 1.4019816923	 0.1112823179	-0.333075
N	 0.1156630657	-0.0290596267	-0.0635267961	-0.305352
C	 0.6264080936	-0.6367570094	-1.1292170248	 0.198366
C	 1.1399675535	-0.0129792547	-2.2400485662	-0.149232
N	 1.6267490749	-0.7928728927	-3.2484349744	 0.031894
N	 1.7110432657	-1.9618024277	-3.389541363	-0.027666
O	 1.0679520521	-2.8414619274	-1.9957309753	-0.325933
C	 0.591682788	-2.1587843027	-1.0071905917	 0.448147
O	 0.1162837369	-2.6260080637	 0.016168792	-0.399766
H	 0.9988422662	 1.8773398161	 0.0827936889	 0.148121
H	-0.6112221604	 1.8518287406	-0.6721558108	 0.148091
H	-0.446229538	 1.6095251786	 1.0791420786	 0.152894
H	-0.208047814	-0.6824008971	 0.6428252488	 0.283024
H	 1.1964531795	 1.0530496545	-2.394612944	 0.130487
95.9311	123.4444	145.1761	158.846	199.0874	212.6591	394.0164	483.0203	486.8394	537.8803	596.8677	663.6671	664.7651	749.7514	776.8697	815.5613	853.2646	1057.5386	1144.9209	1153.0546	1196.2495	1259.2443	1316.4668	1386.9233	1459.6423	1483.4968	1508.5289	1536.9373	1633.6396	1749.327	1818.2016	3019.8168	3071.3787	3146.9583	3249.3403	3533.4503
CNC1=CN=NOC1=O	CNc1cnnoc1=O	
InChI=1S/C4H5N3O2/c1-5-3-2-6-7-9-4(3)8/h2,5H,1H3	InChI=1S/C4H5N3O2/c1-5-3-2-6-7-9-4(3)8/h2,5H,1H3
