19
gdb 90356	3.0306	1.43189	1.15527	2.5514	78.45	-0.234	0.0218	0.2559	1099.2924	0.160555	-423.003553	-422.9957	-422.994756	-423.035735	30.977	
O	 0.0486305744	 1.4142095482	-0.0660209062	-0.42743
C	 0.0562497842	 0.0049963574	 0.0162436763	 0.088787
C	 0.2075935053	-0.5443171628	 1.4855034524	-0.358479
C	-1.3028124197	-0.616753531	 1.5140532241	 0.340539
C	-2.3006677686	-0.343069497	 2.3394526498	-0.262805
C	-3.67297987	-0.098306445	 1.7577722839	-0.095219
O	-3.7443888645	-0.2344573804	 0.3476700424	-0.259248
C	-2.6275766787	 0.2946032002	-0.3687723896	-0.114854
C	-1.4090867252	-0.5394496521	 0.0076747465	-0.064517
H	 0.931491677	 1.731807639	 0.1478119476	 0.285889
H	 0.7344496699	-0.4331958784	-0.7278220829	 0.064945
H	 0.694675169	-1.5260369396	 1.4985858385	 0.108287
H	 0.7057477972	 0.1123257114	 2.205429587	 0.102963
H	-2.1699151678	-0.1856812123	 3.4069603328	 0.087065
H	-4.4127170049	-0.8032079593	 2.157670552	 0.11501
H	-4.0030988631	 0.9123079353	 2.0622155274	 0.095698
H	-2.8975938496	 0.224772386	-1.4258508507	 0.101965
H	-2.4523769869	 1.3489167162	-0.1183149688	 0.109506
H	-1.4452556378	-1.5219250658	-0.4756263426	 0.081898
92.1869	194.6919	244.2553	276.3983	288.0717	332.1794	403.172	440.7219	518.9294	525.2083	664.6205	766.1141	792.9925	837.0004	850.097	878.4721	923.1019	968.1826	969.8762	1018.3067	1044.29	1076.1321	1091.8978	1127.2225	1149.6512	1151.1931	1190.3231	1228.3583	1236.4982	1256.7189	1289.1333	1310.7127	1312.6425	1358.7624	1370.5951	1403.4213	1415.9724	1459.6087	1487.5548	1503.9731	1778.5606	2933.5731	3005.7874	3024.4426	3035.0298	3038.1402	3046.8122	3090.5453	3094.2514	3161.1413	3818.0125
OC1CC2=CCOCC12	O[C@H]1C[C]2[CH]COC[C@@H]12	
InChI=1S/C7H10O2/c8-7-3-5-1-2-9-4-6(5)7/h1,6-8H,2-4H2	InChI=1S/C7H10O2/c8-7-3-5-1-2-9-4-6(5)7/h1,6-8H,2-4H2/t6-,7+/m1/s1
