18
gdb 84287	2.99186	1.70454	1.56259	2.016	77.03	-0.225	-0.0168	0.2082	928.4941	0.14983	-401.877743	-401.870754	-401.86981	-401.908855	28.735	
O	-0.2595417594	 1.4096004137	 0.3666690268	-0.43034
C	 0.0198707377	 0.0516298921	 0.0423455574	 0.077958
C	 0.6214617105	-0.6572349335	 1.2579621197	-0.158566
C	-0.1054106408	-1.7349878327	 1.5826415888	 0.095718
C	-0.8624825288	-1.8270228955	 2.8844923255	-0.270252
C	-2.0438913792	-0.9151530078	 2.3794421988	-0.141567
N	-2.2294744373	-1.1937186536	 0.9103855209	-0.120182
C	-1.2762972662	-0.7308871856	-0.1698056553	-0.033357
C	-1.1148558185	-2.0399473414	 0.4971960439	-0.100191
H	 0.563598175	 1.9065376445	 0.3203437889	 0.286634
H	 0.6094662855	-0.0001561905	-0.8871750215	 0.074489
H	 1.2150173751	-0.0857015296	 1.9668506052	 0.089122
H	-1.2178729967	-2.8298306792	 3.1399795367	 0.105845
H	-0.3403416701	-1.3968482376	 3.7410575201	 0.108404
H	-2.9950005745	-1.1505869422	 2.866053876	 0.1084
H	-1.8032972307	 0.1364384455	 2.5540080089	 0.126032
H	-1.7909226715	-0.6090717905	-1.117933172	 0.095341
H	-1.28324134	-3.0246518261	 0.0700375714	 0.086512
112.1563	233.2364	280.7721	326.1042	369.836	471.6559	547.8265	583.8335	646.4379	659.5084	770.4408	782.3317	832.5995	844.4462	871.6987	875.8569	903.6186	938.3498	973.9744	1026.0492	1036.4893	1053.7925	1065.4504	1108.9573	1128.3763	1155.449	1198.0124	1218.8878	1244.1233	1270.8608	1278.1886	1295.7133	1314.5787	1331.746	1373.2985	1413.9921	1486.4536	1494.849	1655.8682	2963.1805	3052.134	3059.0848	3107.6529	3126.989	3141.3027	3160.6542	3164.8525	3816.1172
OC1C=C2CCN3C1C23	O[C@H]1[CH][C]2CCN3[C@@H]1[C@@H]23	
InChI=1S/C7H9NO/c9-5-3-4-1-2-8-6(4)7(5)8/h3,5-7,9H,1-2H2	InChI=1S/C7H9NO/c9-5-3-4-1-2-8-6(4)7(5)8/h3,5-7,9H,1-2H2/t5-,6+,7-,8?/m0/s1
