17
gdb 36553	9.22906	0.47611	0.4671	1.6931	86.75	-0.2512	0.0187	0.2699	2258.395	0.133063	-384.601688	-384.591884	-384.59094	-384.639226	33.854	
C	 0.159793789	-1.2394466752	-0.3528706456	-0.437083
C	 0.1290314752	-0.0381872622	-0.3762696776	 0.293277
C	 0.1222590131	 1.4184268882	-0.375011452	-0.339269
C	 1.1586036854	 2.0072809336	 0.6202251056	-0.352683
C	 1.1558484882	 3.4637329077	 0.6282411692	 0.060511
C	 1.135595845	 4.6683442024	 0.6067289276	 0.128663
C	 1.0881967583	 6.1049925796	 0.6023879221	-0.118544
C	 2.3158369697	 6.9253691579	 0.6350856152	-0.158776
O	 1.5743989789	 6.784791363	-0.5686757481	-0.214936
H	 0.1739810864	-2.3011015518	-0.3454426805	 0.197809
H	 0.3384308897	 1.7974651879	-1.3802079498	 0.147036
H	-0.874819949	 1.7904388257	-0.1134717522	 0.14326
H	 0.9425169782	 1.6268572495	 1.6253374041	 0.144995
H	 2.1553419827	 1.6337931366	 0.3588799326	 0.145786
H	 0.1806169097	 6.5452230271	 1.014391277	 0.116385
H	 2.2828298609	 7.909718019	 1.1007712763	 0.119354
H	 3.2816513684	 6.424215241	 0.6546071361	 0.124215
10.6914	51.7045	66.6877	134.1708	161.1288	205.4467	320.4332	360.8843	430.5073	468.6832	525.1159	558.0737	621.8599	651.6004	738.5594	764.0964	833.9583	905.6278	964.3029	992.6077	1011.6922	1032.5275	1085.3844	1149.4529	1160.0624	1185.4308	1194.0516	1277.4322	1289.3265	1305.1691	1365.191	1408.1068	1469.6734	1480.3504	1519.2817	2240.0278	2365.1266	3033.326	3043.1988	3061.9126	3083.5625	3084.136	3112.4606	3177.8714	3507.0306
C#CCCC#CC1CO1	C#CCCC#C[C@H]1CO1	
InChI=1S/C8H8O/c1-2-3-4-5-6-8-7-9-8/h1,8H,3-4,7H2	InChI=1S/C8H8O/c1-2-3-4-5-6-8-7-9-8/h1,8H,3-4,7H2/t8-/m0/s1
