17
gdb 46135	4.56498	1.0274	0.87696	2.55	76.85	-0.2369	0.0115	0.2484	1278.3202	0.136977	-417.970056	-417.961744	-417.9608	-418.003178	31.389	
N	-0.0516202941	 1.3104141385	-0.2642155068	-0.501938
C	-0.0071153462	 0.0802887697	 0.0232276116	 0.375675
C	-1.2703161152	-0.7555907921	 0.1038180451	-0.246915
N	-1.2309691862	-1.8809288225	 1.0378723888	-0.297061
C	 0.0110195891	-2.6440357072	 0.8645947298	-0.168931
C	 1.2446773059	-1.7372314825	 1.0099555149	-0.081397
O	 1.1805172651	-0.58762907	 0.1580834802	-0.252909
C	 0.094215476	-3.750941251	 1.811018511	 0.28539
C	 0.2002565212	-4.6348144427	 2.6175442871	-0.403628
H	 0.8955077846	 1.6918509232	-0.3275084294	 0.219724
H	-2.1060869584	-0.0981292816	 0.3452091432	 0.142365
H	-1.4574336568	-1.158916515	-0.9015945526	 0.135466
H	-1.2810013116	-1.5459140324	 1.9964233084	 0.226688
H	-0.0025874749	-3.0431538324	-0.160044724	 0.121799
H	 1.3298988305	-1.4103620487	 2.055295718	 0.11258
H	 2.1626308952	-2.2625287694	 0.7354139392	 0.130147
H	 0.2794385358	-5.4291197739	 3.3184425557	 0.202944
67.5833	141.0824	162.598	178.6789	313.0066	388.3437	420.1874	452.7116	505.2324	533.2977	562.686	644.2416	669.9868	702.5731	774.4179	829.8871	891.4679	924.2769	974.3635	1006.1862	1038.3843	1082.5334	1101.2999	1145.4792	1148.5366	1240.0084	1276.432	1297.8432	1336.4328	1348.2561	1369.079	1422.0375	1462.364	1482.2759	1502.7843	1754.2342	2243.7093	3003.9609	3015.1636	3020.519	3104.4828	3131.15	3452.3945	3501.208	3502.4073
N=C1CNC(CO1)C#C	[NH][C]1CN[C@@H](CO1)C#C	
InChI=1S/C6H8N2O/c1-2-5-4-9-6(7)3-8-5/h1,5,7-8H,3-4H2	InChI=1S/C6H8N2O/c1-2-5-4-9-6(7)3-8-5/h1,5,7-8H,3-4H2/t5-/m1/s1
