16
gdb 99458	2.21336	1.24424	0.85873	3.4768	76.7	-0.2843	-0.0908	0.1935	1317.6271	0.120761	-400.73388	-400.723946	-400.723002	-400.769557	34.412	
C	 0.0035771115	 1.4890838613	 0.1401958983	-0.390548
C	-0.0621164031	-0.0363772156	 0.0619972718	-0.193474
C	-1.5220305599	-0.5657100367	-0.0853003018	-0.303944
C	-2.1527600241	-0.1327674107	-1.3233336057	 0.338724
C	-2.6578523807	 0.2401944593	-2.3467009322	-0.428162
C	-1.5190482697	-2.0899488647	 0.037998293	 0.300833
O	-1.7541642017	-2.8722647936	-0.8416654111	-0.249168
C	-1.1680308585	-2.5777590565	 1.3933206499	 0.233472
N	-0.9059055057	-2.9543929735	 2.4547853829	-0.305548
H	 1.042040043	 1.8194359981	 0.231348198	 0.126843
H	-0.4241190392	 1.9476440139	-0.7552829647	 0.14063
H	-0.5457795422	 1.8642750136	 1.0101804148	 0.123555
H	 0.520056935	-0.4013502837	-0.7905386751	 0.128484
H	 0.3737148388	-0.4752684143	 0.9661577699	 0.130628
H	-2.0933204161	-0.1864067161	 0.7753376324	 0.139751
H	-3.1143147275	 0.5618490492	-3.2504699705	 0.207925
38.8602	90.4297	122.5694	151.3668	173.2937	204.0961	255.8952	291.0319	346.7699	379.1388	484.0228	523.8217	608.1846	646.15	662.6732	702.5183	773.187	858.4633	893.8372	971.7767	1042.6422	1066.4035	1091.2381	1142.4031	1250.8699	1303.11	1353.4149	1371.6826	1413.12	1485.9471	1495.6008	1505.4315	1809.5344	2246.4065	2335.9574	3002.1019	3041.2364	3045.1945	3087.1719	3112.8591	3125.7494	3501.7005
CCC(C#C)C(=O)C#N	CC[C@@H](C#C)C(=O)C#N	
InChI=1S/C7H7NO/c1-3-6(4-2)7(9)5-8/h1,6H,4H2,2H3	InChI=1S/C7H7NO/c1-3-6(4-2)7(9)5-8/h1,6H,4H2,2H3/t6-/m1/s1
