16
gdb 127182	4.2631	1.10033	0.87946	5.3147	73.91	-0.2187	0.0002	0.2189	1246.1157	0.126112	-434.11023	-434.101944	-434.100999	-434.145268	29.71	
C	 0.0379938232	 1.4531063506	-0.0049734304	-0.355971
N	-0.002098522	-0.0014305303	-0.0173931615	-0.183338
C	-0.0492795739	-0.6861031769	 1.1792161873	 0.152226
O	-0.0600652913	-0.1526110077	 2.2677629182	-0.342892
C	 0.0083555481	-0.6658884677	-1.2482223433	 0.476419
N	-0.0261938477	-1.9950091352	-1.3275712326	-0.324535
N	-0.002123253	-2.2433662415	-2.6553444109	-0.179708
C	 0.0460316735	-1.1242560315	-3.406557876	-0.014275
C	 0.0547457219	-0.0603817529	-2.5285704041	-0.32316
H	 0.9505873813	 1.822169973	-0.4851809708	 0.131385
H	-0.829462985	 1.8716235853	-0.5265158372	 0.131381
H	 0.0224529192	 1.7661044874	 1.0379314367	 0.17188
H	-0.0761164251	-1.7746996112	 1.0295330279	 0.125038
H	-0.0210846452	-3.1992738247	-2.9654616624	 0.28079
H	 0.0701056548	-1.1610488333	-4.4839785438	 0.141598
H	 0.089168791	 0.9860452567	-2.7764748371	 0.113163
7.8444	128.6749	179.2984	196.47	289.479	330.226	373.269	453.6494	472.6819	487.6808	652.7677	723.5611	761.1689	812.1025	830.906	942.2446	949.9493	1033.4306	1042.7769	1073.1962	1120.0328	1159.3369	1180.5716	1227.5102	1306.5174	1351.859	1408.5627	1430.4894	1437.6803	1497.4014	1499.3786	1505.5635	1537.0635	1590.3349	1789.8776	3030.8627	3046.909	3086.5994	3168.0889	3264.749	3290.2984	3685.5623
CN(C=O)C1=NNC=C1	CN(C=O)c1n[nH]cc1	
InChI=1S/C5H7N3O/c1-8(4-9)5-2-3-6-7-5/h2-4H,1H3,(H,6,7)	InChI=1S/C5H7N3O/c1-8(4-9)5-2-3-6-7-5/h2-4H,1H3,(H,6,7)
