19
gdb 85432	2.28873	1.57494	1.23887	5.3671	71.	-0.2833	0.0475	0.3308	1102.5548	0.157969	-460.236802	-460.227869	-460.226924	-460.270098	33.867	
C	 0.110359757	 1.5648865132	-0.267616506	-0.416922
C	-0.0547909899	 0.0931445719	 0.0838834898	 0.079496
O	 0.4674927949	-0.7115870275	-0.9902628841	-0.255923
C	 1.6796069246	-1.2154858281	-0.6409720314	 0.476455
O	 2.4133444445	-1.7899824029	-1.380887157	-0.377206
O	 1.9292694548	-0.9684829325	 0.6673495648	-0.274759
C	 0.7375947169	-0.4458422912	 1.3083336681	 0.334474
C	 1.1726675079	 0.5910723861	 2.3341810134	-0.436866
C	 0.0002948762	-1.6156620144	 1.9646710602	-0.423917
H	 1.1649045775	 1.8317112439	-0.381846022	 0.138032
H	-0.3962777463	 1.7689367915	-1.2142282758	 0.140059
H	-0.3313163627	 2.2027880797	 0.503258904	 0.125387
H	-1.1158381942	-0.1541893559	 0.1793695157	 0.100512
H	 1.7776139201	 1.3772845984	 1.8790244591	 0.134046
H	 0.3000094041	 1.0492952948	 2.8091990992	 0.12505
H	 1.7692667789	 0.1104850286	 3.1140439177	 0.137075
H	 0.6546754091	-2.1207101415	 2.6796783719	 0.13569
H	-0.8869596233	-1.2580716947	 2.4967185225	 0.121839
H	-0.3192036503	-2.3436913295	 1.2131556598	 0.137479
86.5107	127.4635	224.0098	247.5994	261.5326	270.3693	323.5931	338.8911	349.2033	434.4105	512.3791	558.8962	611.3861	709.4308	764.4098	782.4938	891.855	911.7772	939.985	974.512	1006.4551	1017.6528	1044.9121	1101.7327	1128.0642	1152.5154	1206.5347	1241.5465	1291.0395	1364.255	1384.095	1404.3513	1413.5727	1423.3034	1474.2242	1482.4157	1488.2038	1494.8705	1502.1411	1512.5826	1921.0244	3040.8167	3046.7046	3052.6252	3069.8902	3114.0528	3119.9118	3124.4996	3127.3939	3128.4668	3139.6957
CC1OC(=O)OC1(C)C	C[C@H]1OC(=O)OC1(C)C	
InChI=1S/C6H10O3/c1-4-6(2,3)9-5(7)8-4/h4H,1-3H3	InChI=1S/C6H10O3/c1-4-6(2,3)9-5(7)8-4/h4H,1-3H3/t4-/m1/s1
