17
gdb 39365	2.83002	1.91304	1.31745	3.0046	73.91	-0.2258	0.0141	0.2399	960.4995	0.138579	-417.979057	-417.972104	-417.97116	-418.010062	28.066	
C	 0.0467899405	 1.3934210701	-0.3874272793	-0.279045
N	 1.4216014802	 1.4045287277	 0.2007840417	-0.388646
C	 1.344697716	 0.0718569423	 0.6138636451	 0.389203
N	 1.9824221912	-0.6761841768	 1.4081084099	-0.345778
C	 1.3514278032	-2.0107279092	 1.4831508004	-0.171837
C	-0.2046535543	-2.0011559185	 1.5598043733	-0.249583
C	-0.8564615094	-1.1294002433	 0.5018270684	-0.054648
O	-0.3262813532	-1.2292130447	-0.8384401053	-0.287656
C	 0.0265360036	-0.1079146222	-0.0580278043	 0.332451
H	-0.6860329524	 2.0006540978	 0.1544870726	 0.119848
H	 0.0274690009	 1.6443051348	-1.4511000353	 0.131352
H	 1.7768378322	 2.150286226	 0.7838084554	 0.245914
H	 1.6582046202	-2.6116093594	 0.618429029	 0.121826
H	 1.7354791986	-2.5178669755	 2.3724924883	 0.105797
H	-0.5707698968	-3.0317156012	 1.4899409216	 0.114505
H	-0.5224216706	-1.6146215883	 2.5373143398	 0.11229
H	-1.9323696999	-0.9723216794	 0.5468318589	 0.104007
179.2639	218.1233	258.9485	306.381	381.9749	438.0812	503.0814	516.9275	609.8407	648.759	721.9622	774.934	811.7815	870.2401	890.886	914.1909	955.6968	975.4063	1054.4593	1063.2053	1081.4909	1091.7011	1138.6026	1144.0305	1211.4018	1230.2129	1262.3296	1300.8821	1319.5841	1346.1482	1366.6276	1374.9431	1466.9139	1496.3927	1503.5478	1513.6066	1799.6043	3025.7058	3032.2165	3043.5625	3072.2049	3085.3781	3101.776	3136.358	3589.6365
C1NC2=NCCC3OC123	C1N[C]2[N]CC[C@@H]3O[C@]123	
InChI=1S/C6H8N2O/c1-2-7-5-6(3-8-5)4(1)9-6/h4H,1-3H2,(H,7,8)	InChI=1S/C6H8N2O/c1-2-7-5-6(3-8-5)4(1)9-6/h4H,1-3H2,(H,7,8)/t4-,6-/m0/s1
