19
gdb 113674	3.77674	0.86512	0.79615	2.6584	74.07	-0.2709	-0.006	0.265	1519.6754	0.1568	-460.176599	-460.166596	-460.165652	-460.212597	34.574	
C	 0.6774452562	 1.7213070413	-0.0288940537	-0.37846
C	-0.185365654	 0.4582582473	-0.1467314206	-0.230119
C	 0.2527465266	-0.4003257673	-1.3070522058	 0.08613
O	 1.4434433177	-1.166642049	-1.1508425193	-0.236764
C	 0.2276819534	-1.8838469675	-1.3271336441	-0.085336
C	-0.2594882905	-2.6826510669	-0.1525780788	 0.441411
O	 0.0120454678	-2.49258078	 1.0050950632	-0.36034
O	-1.0746179235	-3.6637807609	-0.5887268562	-0.233539
C	-1.6395920649	-4.4905100534	 0.4375449687	-0.241764
H	 1.7256888136	 1.4564961646	 0.1380363874	 0.136979
H	 0.6243722307	 2.330899352	-0.9378564772	 0.112392
H	 0.3463543347	 2.3411218766	 0.8090867794	 0.117124
H	-0.1295358325	-0.1273744226	 0.7730120968	 0.144144
H	-1.2361708909	 0.7354138161	-0.3027980226	 0.098767
H	 0.1698455807	 0.0738684769	-2.28900174	 0.095388
H	 0.1125357717	-2.3878528648	-2.2848142947	 0.109609
H	-2.2678328835	-5.2162312328	-0.0784795494	 0.136091
H	-0.8507321406	-4.9961867715	 0.9997487018	 0.14595
H	-2.2351229628	-3.8908084279	 1.1304982551	 0.142337
45.3514	74.9185	113.9273	135.9919	151.3949	212.9352	233.8021	257.0765	323.7633	398.9677	449.8982	490.7752	701.1022	764.413	783.473	825.8931	866.093	928.0721	962.7839	1009.942	1043.0046	1068.0955	1097.7495	1152.5516	1178.949	1181.9063	1205.6361	1223.6803	1287.0184	1299.6354	1345.8976	1407.4021	1410.3389	1468.1316	1478.4669	1481.0555	1482.1701	1497.3305	1498.9348	1508.4022	1825.0426	3029.3518	3035.7348	3053.4595	3071.662	3097.6564	3117.1213	3125.5939	3128.5152	3133.9568	3162.1551
CCC1OC1C(=O)OC	CC[C@H]1O[C@H]1C(=O)OC	
InChI=1S/C6H10O3/c1-3-4-5(9-4)6(7)8-2/h4-5H,3H2,1-2H3	InChI=1S/C6H10O3/c1-3-4-5(9-4)6(7)8-2/h4-5H,3H2,1-2H3/t4-,5-/m1/s1
