19
gdb 24635	4.25536	1.10136	0.93991	0.4876	90.87	-0.2251	0.0023	0.2274	1275.6169	0.162416	-348.812162	-348.804709	-348.803765	-348.844408	29.737	
C	-0.1465006112	 1.4248269706	-0.2201148917	-0.266991
C	 1.2671000421	 1.014747387	 0.0690118306	-0.267037
C	 0.1695617573	-0.0322807451	 0.0591729228	-0.094576
C	-0.2812815885	-0.7054919207	 1.3077607867	 0.369379
C	-0.3412750647	-0.0446183678	 2.5418650337	-0.225583
C	-0.7679761907	-0.706201123	 3.6884394873	-0.087551
C	-1.1458065822	-2.0462330774	 3.630388765	-0.128449
C	-1.0914522157	-2.7158353701	 2.4114965645	-0.087517
C	-0.6638956719	-2.0508496341	 1.2655552979	-0.212502
H	-0.6914540576	 1.9688017018	 0.5438444056	 0.118682
H	-0.4099647605	 1.6988553674	-1.2357806038	 0.114288
H	 1.9817423828	 1.0049700694	-0.7466326987	 0.114283
H	 1.6929623728	 1.2772234695	 1.0314388204	 0.118681
H	 0.1581840751	-0.6837550825	-0.8091581904	 0.081806
H	-0.0521039734	 0.9995495064	 2.6126967915	 0.089248
H	-0.8054416721	-0.1717513823	 4.6324106093	 0.092097
H	-1.4784131422	-2.5610979077	 4.525351156	 0.092368
H	-1.3822733868	-3.7596597816	 2.3492022037	 0.092254
H	-0.6249327527	-2.5821043996	 0.3188995193	 0.087121
63.52	154.2726	189.5717	339.7731	377.0324	416.4151	541.1917	541.497	630.6622	716.9305	741.4449	775.0921	797.4801	823.4596	861.2418	896.2734	925.5869	936.5338	953.3588	984.9533	1011.8749	1049.9658	1057.3496	1066.2528	1076.3291	1107.8421	1132.4455	1182.0541	1200.7917	1202.5579	1208.4546	1250.2921	1329.1822	1352.7184	1405.8636	1470.8603	1480.2815	1506.7643	1531.6927	1621.0402	1646.4413	3131.4686	3134.2468	3150.9872	3161.3742	3164.0159	3176.0792	3183.4932	3197.1394	3210.4495	3225.8907
C1CC1C1=CC=CC=C1	C1CC1c1ccccc1	
InChI=1S/C9H10/c1-2-4-8(5-3-1)9-6-7-9/h1-5,9H,6-7H2	InChI=1S/C9H10/c1-2-4-8(5-3-1)9-6-7-9/h1-5,9H,6-7H2
