21
gdb 74794	2.54897	1.672	1.48516	1.2557	82.65	-0.2345	0.0151	0.2496	1027.7904	0.185648	-387.108786	-387.101169	-387.100225	-387.140399	31.194	
C	-0.0727743017	 1.5074929917	 0.0442868707	-0.513366
C	-0.0909718945	 0.0161816077	-0.0254331875	 0.324947
C	-0.108483561	-0.7803270469	-1.0990573279	-0.182137
C	 0.0253393031	-2.2408584539	-0.6798395056	-0.053323
C	-0.5849675103	-2.1791890085	 0.7382653251	-0.220522
C	 0.0630741041	-0.8721064583	 1.2128906691	 0.037048
O	 1.4493313334	-1.1165797489	 1.5118269819	-0.280945
C	 2.2191385446	-1.5483339378	 0.3899751178	-0.057697
C	 1.5207810285	-2.6049090475	-0.493222204	-0.220977
H	 0.8414102355	 1.8604956828	 0.5380442998	 0.137219
H	-0.1219583534	 1.9620114665	-0.9493278987	 0.12106
H	-0.9130760893	 1.8907397518	 0.637264714	 0.124736
H	-0.1197032965	-0.4492725576	-2.132438848	 0.086872
H	-0.4692559575	-2.9463985449	-1.3528494726	 0.059623
H	-1.673833651	-2.0820296726	 0.696534939	 0.092766
H	-0.3190171855	-3.0267447871	 1.3760313803	 0.092165
H	-0.3535464659	-0.4523668997	 2.1318199427	 0.066754
H	 2.4804992378	-0.6837646789	-0.2356528647	 0.091573
H	 3.1496767668	-1.9432045698	 0.8082242779	 0.101712
H	 1.5880096515	-3.5976882046	-0.0333543689	 0.099656
H	 2.0482725113	-2.6556835235	-1.4531776204	 0.092836
145.1775	178.1072	231.2347	284.7657	334.3016	389.235	447.6079	452.7048	591.1141	594.0293	651.6374	779.0849	811.1948	839.6444	858.2593	860.9474	900.6101	932.1273	954.853	991.925	1015.7229	1032.6614	1049.1557	1071.4548	1082.3908	1092.6184	1154.3865	1179.6236	1227.1936	1246.1171	1270.765	1295.979	1308.5605	1330.1299	1333.728	1365.6882	1373.4649	1410.7079	1415.3125	1477.1885	1477.8455	1487.9056	1493.3551	1502.2986	1704.8846	3004.0144	3016.5633	3027.4611	3050.9498	3063.987	3068.3817	3069.356	3081.8552	3084.7839	3106.1893	3106.845	3182.1317
CC1=CC2CC1OCC2	CC1=C[C@@H]2C[C@H]1OCC2	
InChI=1S/C8H12O/c1-6-4-7-2-3-9-8(6)5-7/h4,7-8H,2-3,5H2,1H3	InChI=1S/C8H12O/c1-6-4-7-2-3-9-8(6)5-7/h4,7-8H,2-3,5H2,1H3/t7-,8-/m1/s1
