21
gdb 15268	2.20369	1.84056	1.2052	2.6531	75.82	-0.2132	0.0666	0.2798	1099.8544	0.187093	-366.226287	-366.216625	-366.215681	-366.260472	35.094	
C	-1.0471979758	 2.124053202	-0.8025175473	-0.381725
C	-0.9475950732	 0.8166823034	-1.5872904175	-0.120264
N	-1.670255599	-0.2416041262	-0.8892273708	-0.094549
C	-1.4090761561	-1.6531202371	-1.1658954757	-0.014724
C	-0.4062334655	-2.1418527097	-2.1936312308	-0.415697
C	-1.0254982394	-1.0497225536	 0.150157538	 0.000143
C	 0.4104643682	-0.8887854244	 0.5835997495	-0.106197
O	 0.4481690955	 0.1334971616	 1.5759488768	-0.411435
H	-0.5552007158	 2.9377813446	-1.3451363517	 0.100043
H	-2.0949785037	 2.3938629199	-0.6427178893	 0.12074
H	-0.5676953784	 2.0130337544	 0.1737572739	 0.141311
H	-1.4212114839	 0.92898824	-2.5703854205	 0.097837
H	 0.1123145036	 0.5882568765	-1.7804970175	 0.075451
H	-2.3228478871	-2.2491443475	-1.1712827624	 0.085521
H	 0.5320584862	-1.5848465347	-2.1903372647	 0.11886
H	-0.1691435677	-3.1957641918	-2.0118866703	 0.121093
H	-0.8299691991	-2.0722080974	-3.2016188276	 0.124329
H	-1.6747162308	-1.2390683989	 1.0052715271	 0.091858
H	 0.7577985758	-1.8485154246	 0.9995826164	 0.0929
H	 1.0691166319	-0.6424123401	-0.2587050361	 0.087682
H	 1.3553631543	 0.2178479238	 1.8846060904	 0.286822
78.4593	111.1228	140.8997	184.3719	192.3518	236.4821	267.5225	285.491	307.7418	376.1234	490.0741	525.5254	561.7657	714.7132	780.1371	814.4236	839.5486	958.4234	985.1762	1037.6682	1050.9507	1064.6514	1073.0445	1110.6364	1152.8702	1167.6294	1185.8706	1192.6468	1250.6035	1261.0639	1302.9225	1349.5785	1373.5784	1381.9854	1408.1701	1417.7594	1431.3656	1467.3528	1490.158	1491.7241	1498.745	1506.1854	1513.4896	1524.8801	2968.4332	2974.0375	3028.6822	3038.2434	3039.8039	3041.318	3082.5217	3091.0809	3103.6578	3112.2515	3128.0766	3134.6904	3825.6107
CCN1C(C)C1CO	CCN1[C@@H](C)[C@H]1CO	
InChI=1S/C6H13NO/c1-3-7-5(2)6(7)4-8/h5-6,8H,3-4H2,1-2H3	InChI=1S/C6H13NO/c1-3-7-5(2)6(7)4-8/h5-6,8H,3-4H2,1-2H3/t5-,6+,7?/m0/s1
