14
gdb 130688	3.11207	1.27282	1.01494	2.7091	68.61	-0.2266	0.0096	0.2362	1134.8816	0.101477	-432.866792	-432.85876	-432.857816	-432.900309	29.051	
O	-0.0809355122	-0.0360846699	 0.4052137929	-0.430344
C	-0.0673305108	 1.153949119	 0.1725234283	 0.488278
N	-1.1372694471	 2.0521036569	 0.0908111471	-0.367707
C	-0.6411003745	 3.2993963386	-0.1880858018	 0.066676
N	 0.6494852102	 3.2993609758	-0.2942818043	-0.232226
N	 1.0086395551	 1.988450789	-0.0708694006	-0.063721
C	 2.3887492674	 1.5534568947	-0.1363306124	-0.309484
C	 2.9427683425	 1.55608866	-1.4888999517	 0.324414
C	 3.4136240225	 1.5554420253	-2.5931593423	-0.449146
H	-2.0958494765	 1.7800901252	 0.2214280524	 0.282447
H	-1.2571775551	 4.1772319807	-0.3014834231	 0.15669
H	 2.9920175473	 2.1909841055	 0.5193061608	 0.152933
H	 2.3939328467	 0.5392364705	 0.2769028552	 0.176228
H	 3.8258935743	 1.5545084988	-3.5718672105	 0.204961
44.3533	79.2283	216.7253	254.5697	265.4398	323.4895	432.7324	482.5393	563.2026	620.0103	655.7758	670.6826	718.8438	746.6781	809.2125	834.0969	937.8061	947.0773	958.0688	1097.3889	1118.0599	1162.5534	1298.2481	1333.9049	1388.5704	1398.3239	1421.8655	1457.7188	1614.0402	1840.3943	2247.1199	3044.4482	3092.5793	3271.1112	3505.6302	3690.6953
O=C1NC=NN1CC#C	O=c1[nH]cnn1CC#C	
InChI=1S/C5H5N3O/c1-2-3-8-5(9)6-4-7-8/h1,4H,3H2,(H,6,7,9)	InChI=1S/C5H5N3O/c1-2-3-8-5(9)6-4-7-8/h1,4H,3H2,(H,6,7,9)
