21
gdb 84112	2.41379	1.62055	1.20057	1.9816	83.96	-0.2312	0.0146	0.2459	1120.5465	0.184233	-387.09258	-387.084422	-387.083478	-387.124753	33.032	
C	-0.0124491762	 1.5064970963	 0.0403438813	-0.501421
C	-0.0066025024	 0.0084618737	-0.0224030838	 0.352045
C	-0.0389843814	-0.7022546978	-1.1552177552	-0.236475
C	-0.0167172338	-2.2129999252	-1.1027838634	 0.118033
O	 1.0537029732	-2.7566083811	-1.8776770472	-0.44419
C	 0.0289591536	-2.6888383905	 0.3609830013	-0.036897
C	-1.0330759546	-1.9173472561	 1.1965576936	-0.230792
C	 0.0279224128	-0.7746795222	 1.2799304475	-0.100088
C	 1.104647681	-1.8945328492	 1.1562628876	-0.228558
H	 0.8763232061	 1.882891698	 0.5634765566	 0.125677
H	-0.0390518814	 1.9542100619	-0.9567358571	 0.122726
H	-0.8798271336	 1.8734266476	 0.6045209307	 0.12695
H	-0.0612109666	-0.231454223	-2.1345866948	 0.083275
H	-0.9189713941	-2.621327999	-1.5776062515	 0.086889
H	 1.8582753135	-2.2984122791	-1.6113514695	 0.274258
H	 0.0484892249	-3.7796207463	 0.4040705481	 0.066329
H	-1.9902441655	-1.6796141077	 0.7248854516	 0.095375
H	-1.2061253172	-2.3925121935	 2.1664601168	 0.095148
H	 0.0383808968	-0.1273910028	 2.1592556635	 0.05605
H	 1.315247483	-2.3673989261	 2.1191749591	 0.096639
H	 2.0473898616	-1.638238198	 0.6637149648	 0.079028
145.2126	157.9279	210.6798	267.0464	307.215	333.4679	403.4016	432.206	458.3473	500.2552	588.6765	673.9385	754.8376	817.9037	822.5518	854.3984	903.0358	910.4732	935.3432	971.0359	1004.9974	1037.81	1049.561	1061.6836	1072.1252	1087.7365	1123.5157	1131.8984	1143.3721	1183.9398	1244.7576	1246.7896	1260.3443	1268.695	1295.3925	1335.7312	1362.6787	1368.8694	1412.5132	1418.6552	1476.7512	1478.1982	1487.7085	1504.9664	1717.9455	3013.5577	3017.7751	3044.7326	3049.7937	3059.2295	3083.7073	3088.3784	3102.338	3107.4465	3111.4009	3161.8221	3804.117
CC1=CC(O)C2CC1C2	CC1=C[C@@H](O)[C@@H]2C[C@H]1C2	
InChI=1S/C8H12O/c1-5-2-8(9)7-3-6(5)4-7/h2,6-9H,3-4H2,1H3	InChI=1S/C8H12O/c1-5-2-8(9)7-3-6(5)4-7/h2,6-9H,3-4H2,1H3/t6-,7+,8-/m1/s1
