19
gdb 103244	2.66838	1.72447	1.29658	2.3912	74.49	-0.219	0.0514	0.2704	1031.6438	0.156482	-422.922569	-422.913974	-422.91303	-422.955432	33.034	
C	 0.2198850702	 1.0688988893	-0.4040041061	-0.242853
O	-0.1042853079	-0.0257000037	 0.4279090268	-0.26819
C	-1.3231849985	-0.6411811061	 0.1450043064	 0.417565
C	-2.4581880887	-0.0121076998	 0.9446586748	-0.4377
C	-1.7703011954	-1.1865196932	-1.1995624585	-0.192178
C	-0.6858237212	-1.9345731378	-2.0308338265	 0.011641
O	 0.5879513051	-1.8381512489	-1.3891009861	-0.236345
C	-0.3586884728	-2.8009122509	-0.9066056242	 0.015628
C	-1.4427469526	-2.126895418	-0.0105753245	-0.169035
H	 1.1322239618	 1.511453257	 0.002882122	 0.123501
H	 0.4115391872	 0.7438205688	-1.4339327552	 0.116923
H	-0.5679553808	 1.8363100385	-0.4111828195	 0.097122
H	-2.5770567055	 1.0423159545	 0.6754419921	 0.1218
H	-3.4127497025	-0.5161304217	 0.7696115319	 0.113685
H	-2.2234745565	-0.0650797876	 2.01165832	 0.129478
H	-2.7456742206	-0.9486477464	-1.607368889	 0.088323
H	-0.70773889	-2.108759532	-3.1000687051	 0.108475
H	-0.0433716068	-3.835899008	-0.8576850373	 0.110462
H	-2.1345828744	-2.7129851241	 0.582974388	 0.0917
101.5116	151.8654	161.2693	220.7646	243.0782	280.5311	351.3098	379.7233	405.8578	592.3649	625.6428	677.6335	759.132	770.8573	788.398	859.937	865.0891	900.4464	944.1412	951.8258	997.6682	1024.5311	1039.2617	1042.9745	1092.7019	1110.1591	1142.611	1178.7983	1218.8694	1229.8645	1234.5187	1257.324	1286.925	1343.59	1404.6028	1423.7311	1477.9487	1484.2823	1491.0073	1499.0179	1502.4942	2992.8635	3039.4918	3057.745	3107.9057	3117.4652	3119.1965	3172.8669	3182.1084	3184.4265	3199.2013
COC1(C)C2C3OC3C12	CO[C@@]1(C)[C@H]2[C@H]3O[C@H]3[C@@H]12	
InChI=1S/C7H10O2/c1-7(8-2)3-4(7)6-5(3)9-6/h3-6H,1-2H3	InChI=1S/C7H10O2/c1-7(8-2)3-4(7)6-5(3)9-6/h3-6H,1-2H3/t3-,4+,5-,6+,7+
