13
gdb 27970	3.85108	1.21307	0.92249	0.5293	68.82	-0.2671	-0.0935	0.1737	1149.0239	0.090989	-452.820321	-452.813284	-452.81234	-452.85216	25.931	
O	 0.4823752622	 1.3072296845	 0.3359623034	-0.385867
C	 0.2259207419	 0.0099527388	 0.1357555975	 0.458644
N	 0.2977634853	-0.4410168008	-1.1184179335	-0.395317
C	 0.0361419009	-1.7419962178	-1.2852506234	 0.217471
C	 0.1164038786	-2.2487305123	-2.6914588847	 0.11325
O	-0.0922214101	-3.3950460386	-2.9997484276	-0.242327
C	-0.2909741885	-2.5806098017	-0.2261868446	-0.18432
C	-0.3312644436	-1.9836582153	 1.0307504936	 0.019647
N	-0.0759228987	-0.6918670269	 1.2290347027	-0.280565
H	 0.6830278542	 1.6866205945	-0.5306062385	 0.310004
H	 0.3876099138	-1.465789285	-3.428716751	 0.097528
H	-0.4976429624	-3.6291401858	-0.3914474286	 0.137696
H	-0.5782500836	-2.5627227835	 1.9173946148	 0.134155
107.3044	181.434	198.2799	249.6455	399.1331	453.2864	495.9334	564.6268	597.7183	641.143	683.6024	814.0426	827.0869	872.5976	975.8753	1014.5059	1018.6082	1049.248	1092.0093	1214.7562	1248.3483	1324.329	1381.4352	1389.4416	1468.0792	1504.4355	1609.7423	1627.635	1816.8342	2937.1711	3163.9389	3234.7231	3782.5246
OC1=NC(C=O)=CC=N1	Oc1nc(C=O)ccn1	
InChI=1S/C5H4N2O2/c8-3-4-1-2-6-5(9)7-4/h1-3H,(H,6,7,9)	InChI=1S/C5H4N2O2/c8-3-4-1-2-6-5(9)7-4/h1-3H,(H,6,7,9)
