19
gdb 53650	4.19454	0.5632	0.51472	1.4417	87.55	-0.2414	0.03	0.2714	2119.5343	0.155132	-385.830409	-385.819226	-385.818282	-385.869266	38.385	
C	 0.0219450339	 1.5114734847	-0.0115564856	-0.497605
C	 0.0267215341	 0.0558646183	 0.0314719138	 0.120373
C	 0.0428891499	-1.1477074827	 0.067494798	 0.007546
C	 0.0278157153	-2.6051065066	 0.1103573208	-0.359993
C	-1.3865907499	-3.1917220714	-0.0594873405	-0.183359
C	-1.384782654	-4.7292402967	 0.0348594118	-0.060095
O	-0.8271221573	-5.1881371821	 1.2655829639	-0.416723
C	-2.7282803715	-5.2722284626	-0.1834588901	 0.283144
C	-3.8461303859	-5.6924731936	-0.3220016735	-0.427331
H	 0.6438970045	 1.8887595771	-0.8310566053	 0.145843
H	-0.9907583456	 1.9029124915	-0.1599548999	 0.145264
H	 0.4078708092	 1.9405824183	 0.919936187	 0.145585
H	 0.6812924762	-3.0066870053	-0.6765836226	 0.122754
H	 0.4440171746	-2.963852133	 1.0584033625	 0.140843
H	-2.0523187727	-2.7873287061	 0.7116733056	 0.109092
H	-1.8057358118	-2.893345824	-1.0258785216	 0.119629
H	-0.7107114532	-5.1266081045	-0.7351016044	 0.118701
H	-1.4833974734	-5.0336237712	 1.9545487733	 0.286404
H	-4.8264731725	-6.0783056601	-0.4571450433	 0.199926
12.6733	49.429	64.8417	105.5777	152.2337	207.7981	213.7257	264.1424	289.3449	309.4415	384.1314	427.4565	458.7328	568.6626	574.2119	630.9064	672.3197	755.3607	778.6427	887.6842	972.4236	1028.724	1052.1093	1054.2574	1078.1445	1083.3667	1168.753	1173.7477	1255.3602	1275.4382	1319.9693	1344.7944	1379.4559	1415.6094	1418.7235	1474.2766	1479.2933	1479.7925	1489.3321	2232.4191	2374.0396	3012.2301	3024.3567	3027.3845	3045.7161	3061.0465	3083.8177	3084.0666	3093.8626	3502.9497	3802.1039
CC#CCCC(O)C#C	CC#CCC[C@@H](O)C#C	
InChI=1S/C8H10O/c1-3-5-6-7-8(9)4-2/h2,8-9H,6-7H2,1H3	InChI=1S/C8H10O/c1-3-5-6-7-8(9)4-2/h2,8-9H,6-7H2,1H3/t8-/m0/s1
