16
gdb 94522	3.07064	1.17438	0.99557	3.1344	70.92	-0.275	-0.0974	0.1776	1186.5003	0.123748	-437.890859	-437.882337	-437.881393	-437.924883	30.898	
O	 0.5686436315	 0.8984727353	-0.7032340346	-0.427384
C	 0.1242517499	-0.1918393255	 0.0359640119	 0.158357
C	-0.0706632382	-0.0910065627	 1.5733650398	-0.258963
C	-1.3092855115	-1.0127092296	 1.4422244268	-0.23239
C	-1.3623615285	-0.6867013681	-0.1007945321	-0.190076
C	-2.3433711273	 0.4102573662	-0.3742424582	 0.306383
O	-2.1250349057	 1.5964371919	-0.249911498	-0.306155
C	-3.6900231904	-0.0418417154	-0.7855295874	 0.240368
N	-4.7375723633	-0.4162104559	-1.1015315307	-0.292369
H	-0.0518460866	 1.6227648838	-0.5461648696	 0.298671
H	 0.7860461093	-1.0271490871	-0.2118257308	 0.104097
H	 0.7495933049	-0.4250946525	 2.2111427808	 0.112085
H	-0.3560694675	 0.9243777462	 1.8605433555	 0.122716
H	-1.0788403059	-2.0688464832	 1.5923630066	 0.127552
H	-2.1928544924	-0.7600089881	 2.0306929322	 0.126682
H	-1.5627091182	-1.5352992552	-0.759038002	 0.110425
35.8335	128.6873	146.2014	210.958	223.8238	302.2971	350.7155	428.8128	520.31	549.3341	604.848	640.1255	748.3119	758.0301	793.8241	878.4095	913.2756	963.6573	979.3506	1052.1528	1062.265	1122.4982	1159.0289	1180.4121	1223.6746	1244.8384	1257.9592	1269.2912	1339.759	1375.0981	1453.2492	1482.2029	1495.7719	1759.5591	2335.9963	3067.122	3072.3799	3077.9682	3089.1914	3123.65	3139.0636	3759.0728
OC1CCC1C(=O)C#N	O[C@H]1CC[C@H]1C(=O)C#N	
InChI=1S/C6H7NO2/c7-3-6(9)4-1-2-5(4)8/h4-5,8H,1-2H2	InChI=1S/C6H7NO2/c7-3-6(9)4-1-2-5(4)8/h4-5,8H,1-2H2/t4-,5+/m1/s1
