22
gdb 103916	2.53646	1.38442	1.10548	2.5795	82.43	-0.2346	0.0673	0.3018	1212.7312	0.193217	-404.312833	-404.303161	-404.302217	-404.346578	37.183	
C	-0.0542909693	 1.4444848276	-0.0833297599	-0.484579
C	-0.2148133282	-0.0410185991	 0.040105659	 0.358539
C	-1.5416975494	-0.7854772707	 0.2962510103	-0.352042
C	-0.7624049589	-1.8131578982	 1.1954343411	 0.299691
C	-1.0942069404	-1.6499130147	 2.6796351144	-0.450517
C	-0.8604200228	-3.2896122732	 0.8172498894	-0.131976
O	-0.7405829966	-3.4447886071	-0.5947058477	-0.418103
C	 0.5454573685	-1.0639035682	 0.8381421465	-0.132008
N	 0.7566294562	-0.9204754224	-0.5991403986	-0.376785
H	 1.0056580234	 1.7118741551	-0.0902828093	 0.129266
H	-0.4977158337	 1.8104635786	-1.0175871632	 0.117391
H	-0.5443587042	 1.9686416227	 0.7446472104	 0.109217
H	-2.2711636587	-0.2072163329	 0.8706194583	 0.094603
H	-2.0284761469	-1.1881861794	-0.596230972	 0.105438
H	-2.1177595839	-1.9741102406	 2.8984282035	 0.113769
H	-0.4127585435	-2.2380186113	 3.3063271221	 0.11224
H	-0.9996624245	-0.6029568655	 2.9835756771	 0.12091
H	-0.0668393382	-3.8479838425	 1.3390553457	 0.090685
H	-1.8270764594	-3.6915748032	 1.162948722	 0.085977
H	-0.6714102266	-4.3822821846	-0.7948436634	 0.291217
H	 1.3976797427	-0.948226129	 1.5024202266	 0.075251
H	 0.3336983046	-1.6861684314	-1.1173436923	 0.241813
104.2892	145.6118	196.3664	203.1807	232.5934	246.4784	249.6338	321.0717	339.66	376.6141	415.1264	479.8098	554.0214	585.5246	687.699	801.852	837.1806	864.4828	912.8615	933.763	955.6504	982.4141	1015.9021	1028.631	1057.9233	1078.4553	1123.2001	1133.0499	1153.799	1178.974	1224.4465	1238.6439	1250.8468	1262.0538	1288.5591	1304.5226	1325.2147	1400.6111	1409.9784	1446.5972	1464.1298	1483.9682	1485.7896	1494.8817	1496.0365	1499.1444	1511.3945	2959.1185	2993.2958	3022.3955	3024.0707	3052.0024	3081.0573	3084.8626	3102.638	3106.0771	3117.3093	3145.1671	3504.0486	3837.9233
CC12CC(C)(CO)C1N2	C[C@]12C[C@@](C)(CO)[C@H]1N2	
InChI=1S/C7H13NO/c1-6(4-9)3-7(2)5(6)8-7/h5,8-9H,3-4H2,1-2H3	InChI=1S/C7H13NO/c1-6(4-9)3-7(2)5(6)8-7/h5,8-9H,3-4H2,1-2H3/t5-,6+,7+/m1/s1
