16
gdb 18458	4.24865	1.43126	1.35435	4.1541	64.7	-0.2762	0.0008	0.277	968.8253	0.130091	-383.740316	-383.732898	-383.731954	-383.772473	27.36	
C	 0.1732588827	 1.4138923677	 0.1713180301	-0.377328
C	-0.2008165216	-0.0436029572	-0.1231826514	-0.21589
C	 0.5867156965	-0.6077847235	-1.2872697481	-0.022482
C	 1.9275219153	-1.2380598998	-1.1800004179	 0.08029
O	 2.0537410962	-1.9453649541	 0.0844482603	-0.262914
C	 1.0536773011	-2.8343861751	-0.3092865076	 0.466532
O	 0.6993751706	-3.8126418802	 0.2612349729	-0.32219
C	 0.7639995582	-2.1102041765	-1.5966271013	-0.310131
H	 1.2299307004	 1.5003016813	 0.4439719972	 0.126748
H	-0.001481403	 2.0559769173	-0.6991279339	 0.114525
H	-0.4210626911	 1.8083755827	 1.0004517324	 0.121407
H	-0.0295091847	-0.6539881282	 0.7680787178	 0.130087
H	-1.2700377247	-0.1166106226	-0.3541080759	 0.108941
H	 0.4683768848	-0.0509732954	-2.2173899602	 0.105959
H	 2.8463274871	-0.9852722379	-1.6900213688	 0.128675
H	 0.4938152424	-2.5588773386	-2.5411968257	 0.12777
69.7601	113.3653	196.2085	247.5072	290.0019	415.932	482.1287	583.0879	710.4723	726.3878	788.3742	805.9007	826.0884	882.8832	922.6281	936.2101	983.7582	1015.0022	1056.0826	1064.1766	1081.1007	1093.8597	1133.1609	1200.8828	1271.6486	1301.8237	1308.4276	1360.2886	1409.6972	1444.5644	1482.0639	1498.8789	1505.5293	1944.2314	3034.3899	3041.9601	3084.5628	3105.5749	3112.8459	3118.4801	3220.4818	3233.0931
CCC1C2OC(=O)C12	CC[C@H]1[C@H]2OC(=O)[C@@H]12	
InChI=1S/C6H8O2/c1-2-3-4-5(3)8-6(4)7/h3-5H,2H2,1H3	InChI=1S/C6H8O2/c1-2-3-4-5(3)8-6(4)7/h3-5H,2H2,1H3/t3-,4+,5-/m1/s1
