15
gdb 98934	4.11432	0.90839	0.74761	1.2937	73.3	-0.2594	-0.0612	0.1981	1432.4693	0.112059	-450.136078	-450.126588	-450.125644	-450.17408	32.291	
C	-0.0189476761	 1.5221895415	-0.1050285731	-0.226354
O	-0.0305699388	 0.091376459	-0.0649199324	-0.19817
C	 0.6220700532	-0.5197855864	-1.0473883627	 0.52221
N	 1.2258228011	 0.1044300013	-1.9754229682	-0.587778
N	 0.5598188497	-1.9198234554	-0.9310589882	-0.41649
C	-0.0515280424	-2.7322561081	 0.0124020834	 0.314654
N	-0.7184218167	-2.3401767942	 1.0226495282	-0.471708
C	 0.1614206545	-4.1433354489	-0.2904811107	 0.207887
N	 0.3071828678	-5.272151302	-0.4953251804	-0.31074
H	 1.0050086164	 1.89969457	-0.0512453212	 0.144026
H	-0.4791563916	 1.8843990422	-1.0274717902	 0.144025
H	-0.5947784582	 1.8356054369	 0.76550085	 0.138973
H	 1.6726305046	-0.515814468	-2.6449797376	 0.218657
H	 1.0463930443	-2.4095432948	-1.6642196676	 0.271685
H	-1.0590245276	-3.1391258332	 1.5536736206	 0.249123
2.3529	68.3572	126.1016	164.8499	179.8049	200.5169	319.3085	325.0256	397.9089	461.9886	480.7554	614.7721	709.9575	712.4605	727.679	774.8645	853.6175	874.21	952.0743	1051.2089	1115.4765	1156.1662	1182.2985	1220.4122	1297.8295	1392.4984	1477.9133	1478.271	1498.6493	1529.4424	1702.5066	1743.7875	2344.6277	3054.1765	3130.4796	3163.5833	3519.1493	3531.7163	3651.5242
COC(=N)NC(=N)C#N	COC(=N)NC(=N)C#N	
InChI=1S/C4H6N4O/c1-9-4(7)8-3(6)2-5/h1H3,(H3,6,7,8)	InChI=1S/C4H6N4O/c1-9-4(7)8-3(6)2-5/h1H3,(H3,6,7,8)
