17
gdb 15114	7.86432	0.79428	0.75184	2.6116	72.17	-0.2478	0.0287	0.2766	1476.0795	0.140366	-363.777284	-363.768553	-363.767609	-363.811565	30.611	
C	 0.0769830235	-1.0975551024	 0.3719693555	-0.411466
C	 0.0798485658	 0.0848530712	 0.1638551817	 0.282182
C	 0.0483087247	 1.5184629884	-0.0916127302	-0.204136
O	 1.3565379208	 2.0517804478	-0.0270413511	-0.242872
C	 1.3813463344	 3.4464014525	-0.2661632158	-0.069977
C	 2.8094587403	 3.9143993962	-0.2562427097	 0.017028
C	 3.1232952153	 5.2765787338	 0.2437265732	-0.247147
N	 3.5245916333	 4.0904597672	 1.01431676	-0.301721
H	 0.0829658535	-2.1433421564	 0.5569084919	 0.201785
H	-0.3978186647	 1.709891429	-1.0830575417	 0.118649
H	-0.6075559029	 2.0116784234	 0.6470546418	 0.116713
H	 0.9124119621	 3.6759431409	-1.2389947645	 0.093921
H	 0.8019668274	 3.9809231253	 0.5083909501	 0.079229
H	 3.4250090252	 3.489331497	-1.0456872712	 0.102557
H	 3.9422841143	 5.8394359445	-0.1942576329	 0.122568
H	 2.3006198425	 5.8879658249	 0.6076500081	 0.1098
H	 2.8866649046	 3.9406988268	 1.7928600048	 0.232887
49.1341	89.1497	97.5944	136.2998	219.0644	322.796	334.7392	388.8417	462.2745	573.4343	611.4003	677.946	806.9592	838.0202	933.648	943.5721	972.9731	1010.7028	1022.733	1041.3479	1078.8987	1126.0111	1142.9228	1154.2501	1215.4528	1249.5538	1254.809	1279.0553	1313.5687	1362.8192	1408.8584	1459.9042	1494.9106	1512.8344	1515.8589	2249.3318	2936.2652	2950.4197	2964.9309	2970.9809	3106.7704	3139.2474	3192.1014	3494.7803	3506.1745
C#CCOCC1CN1	C#CCOC[C@H]1CN1	
InChI=1S/C6H9NO/c1-2-3-8-5-6-4-7-6/h1,6-7H,3-5H2	InChI=1S/C6H9NO/c1-2-3-8-5-6-4-7-6/h1,6-7H,3-5H2/t6-/m1/s1
