13
gdb 43609	2.36501	1.3694	1.01472	2.0156	67.85	-0.2884	-0.0655	0.2229	1124.2416	0.08752	-415.62894	-415.620735	-415.619791	-415.662936	29.171	
O	-0.011569061	 0.1839356216	-0.7693984482	-0.256851
C	-0.017463005	 1.2344378148	-0.2087792216	 0.430301
C	-1.1407106187	 2.1494164226	 0.3043314235	-0.38774
C	-0.028256621	 3.1570654105	 0.8169086243	-0.012329
C	 1.0953484211	 2.1797481201	 0.271005505	-0.38774
C	-0.0558428765	 4.4526281044	 0.1429298397	 0.268691
N	-0.0782003167	 5.4553628295	-0.4297938636	-0.313903
C	-0.0088619126	 3.3196453391	 2.2683466117	 0.268671
N	 0.0073949354	 3.4030689818	 3.4201996632	-0.313909
H	-1.7892667236	 2.5587370193	-0.4730186066	 0.176202
H	-1.7539437158	 1.7200599214	 1.0993505169	 0.176201
H	 1.7434342507	 1.7675424642	 1.0472284657	 0.176203
H	 1.7090955736	 2.6061678709	-0.52519053	 0.176201
25.6956	130.7895	181.0912	188.1991	240.6264	403.9051	442.2242	479.9336	498.839	502.1175	593.7987	609.413	671.4877	725.6739	870.6819	879.6017	932.7083	1044.9558	1089.1667	1090.5498	1120.4211	1219.996	1236.373	1278.6013	1418.7395	1431.54	1919.5602	2363.2667	2368.5789	3081.1975	3084.6315	3145.6491	3146.714
O=C1CC(C1)(C#N)C#N	O=C1CC(C1)(C#N)C#N	
InChI=1S/C6H4N2O/c7-3-6(4-8)1-5(9)2-6/h1-2H2	InChI=1S/C6H4N2O/c7-3-6(4-8)1-5(9)2-6/h1-2H2
