12
gdb 131091	4.90698	0.88826	0.79736	3.5218	57.8	-0.2994	-0.0902	0.2092	1313.9522	0.076045	-505.894145	-505.886474	-505.88553	-505.928348	25.55	
O	 0.3781169169	 0.1586094296	-0.4168821038	-0.252845
C	 0.4351305778	 1.3458788855	-0.4518156215	 0.188835
O	 0.8755838545	 2.0791292136	 0.6037256374	-0.175101
C	 0.930747982	 3.49516813	 0.449873254	-0.197055
C	 2.3393326247	 3.9397038702	 0.2334836455	 0.425982
N	 3.025735925	 4.687465618	 1.0473696519	-0.131853
O	 4.2258246842	 4.8303675995	 0.4491948104	-0.13158
N	 4.2156921236	 4.1245685593	-0.7576734305	 0.058967
N	 3.0841693835	 3.5966987836	-0.8807903667	-0.190242
H	 0.136289649	 1.9729013438	-1.3132703234	 0.092923
H	 0.309190018	 3.8165135193	-0.3949415349	 0.145227
H	 0.5440046007	 3.9459611877	 1.3649489916	 0.166742
43.8138	48.1979	136.6693	197.7874	287.6776	369.7402	397.8847	650.0601	668.3577	681.5772	711.8261	808.2206	957.9514	982.5613	1036.2427	1052.051	1062.9262	1095.999	1157.6593	1278.9369	1338.9735	1390.7691	1429.1855	1484.7176	1492.805	1599.3267	1884.1042	2961.3846	3039.9616	3132.6801
O=COCC1=NON=N1	O=COCc1nonn1	
InChI=1S/C3H3N3O3/c7-2-8-1-3-4-6-9-5-3/h2H,1H2	InChI=1S/C3H3N3O3/c7-2-8-1-3-4-6-9-5-3/h2H,1H2
