17
gdb 17291	3.07965	2.5699	1.92153	0.6116	66.88	-0.2307	0.0513	0.282	766.3195	0.142712	-363.783327	-363.776673	-363.775729	-363.813634	26.758	
C	 0.0352110893	 1.5267974785	-0.0549187242	-0.471745
C	-0.0181826628	 0.026338935	 0.0433493516	 0.309876
C	-1.3280932333	-0.6829834564	 0.4356360022	-0.137046
O	-0.625718549	-1.5255550147	 1.3891216805	-0.299875
C	 0.6223525669	-0.8370414617	 1.1381507605	 0.057931
C	 1.5206993826	-1.4579566403	 0.0590545619	-0.040948
C	 0.7215768049	-2.08424199	-1.0041611677	-0.253255
N	 0.8605470672	-0.6149728379	-1.035776014	-0.188192
H	 1.0713327167	 1.8699576793	-0.1263745635	 0.130284
H	-0.4871545556	 1.8669279835	-0.956228789	 0.129197
H	-0.4326405617	 1.9972714949	 0.8154958635	 0.11735
H	-2.0483628725	-0.0279058941	 0.9421987726	 0.103286
H	-1.8491897209	-1.259174175	-0.3375459659	 0.108165
H	 1.1000070352	-0.4615312597	 2.0456254674	 0.081384
H	 2.6006299239	-1.5469652692	 0.1260035187	 0.094579
H	 1.2606514009	-2.5556225133	-1.8203289497	 0.123119
H	-0.2222224122	-2.5557148588	-0.7538521449	 0.13589
208.8126	216.5094	254.5012	310.4568	366.3931	447.6886	537.2769	632.0819	686.6425	742.7992	772.7412	866.1817	883.5356	910.5047	931.4781	968.0427	981.6371	993.6405	1040.7026	1054.9653	1105.4779	1128.7151	1143.5741	1166.8056	1189.1818	1215.7329	1229.2174	1283.1838	1310.7307	1355.7104	1376.3401	1415.6676	1482.4539	1491.868	1499.9141	1520.7303	3014.057	3033.9906	3062.4249	3089.0932	3101.069	3115.7357	3130.5802	3158.1668	3216.5253
CC12COC1C1CN21	C[C@]12CO[C@H]1[C@H]1CN21	
InChI=1S/C6H9NO/c1-6-3-8-5(6)4-2-7(4)6/h4-5H,2-3H2,1H3	InChI=1S/C6H9NO/c1-6-3-8-5(6)4-2-7(4)6/h4-5H,2-3H2,1H3/t4-,5+,6+,7?/m1/s1
