18
gdb 75266	2.32632	1.58857	1.35685	1.5654	83.32	-0.2155	0.0116	0.2271	1057.4418	0.146973	-364.762853	-364.754538	-364.753594	-364.79548	32.176	
C	-0.0003573189	 1.4923883117	 0.0589014364	-0.503348
C	-0.0360984579	 0.0002525342	-0.0188750518	 0.34422
C	-0.1130964509	-0.7829918428	-1.0976021739	-0.17961
C	-0.1153689948	-2.2429533408	-0.7145041404	-0.212428
N	-0.031292599	-2.2725808526	 0.767132889	-0.126047
C	 1.2436740704	-1.7613614162	 1.3373608983	-0.211176
C	 2.4281822758	-1.5944252042	 0.5477433434	 0.372397
C	 3.4446256004	-1.5093949646	-0.0908048597	-0.473019
C	 0.0389255574	-0.8655690087	 1.1965458568	-0.141914
H	 0.9479329752	 1.8418072376	 0.4856369521	 0.136454
H	-0.1181596614	 1.9473742478	-0.9276702203	 0.127321
H	-0.7977385017	 1.875247905	 0.7080363511	 0.126981
H	-0.1339935305	-0.4401894995	-2.125923875	 0.09483
H	-1.0370611516	-2.756339585	-1.0171379704	 0.11409
H	 0.7232297608	-2.7971931201	-1.1544097019	 0.125144
H	 1.4290374088	-2.1787501726	 2.325240568	 0.115567
H	 4.3415605911	-1.4174106758	-0.6516941898	 0.198151
H	-0.5004741732	-0.5825208734	 2.098830008	 0.092386
98.8366	139.5977	176.568	228.6073	274.1431	317.7876	365.5558	469.6036	575.393	597.239	611.6578	649.0013	657.1253	730.3988	747.9934	805.9548	832.9886	900.6446	940.44	963.6872	1023.4983	1024.475	1043.1587	1070.7295	1086.718	1117.3058	1194.915	1211.6662	1259.8939	1282.8856	1337.587	1368.803	1373.3053	1414.644	1479.6322	1488.1814	1489.5444	1714.5051	2229.7588	3017.8755	3021.2663	3050.4482	3068.8321	3116.6064	3117.2126	3125.6677	3198.1929	3503.2967
CC1=CCN2C(C#C)C12	CC1=CCN2[C@@H](C#C)[C@@H]12	
InChI=1S/C8H9N/c1-3-7-8-6(2)4-5-9(7)8/h1,4,7-8H,5H2,2H3	InChI=1S/C8H9N/c1-3-7-8-6(2)4-5-9(7)8/h1,4,7-8H,5H2,2H3/t7-,8+,9?/m0/s1
