20
gdb 109272	3.09354	1.22142	0.94827	1.4523	83.17	-0.2351	0.0136	0.2487	1293.3091	0.171101	-403.157328	-403.148205	-403.147261	-403.192083	33.283	
C	 0.5792490061	 0.8810647172	-0.4241300984	-0.380215
C	-0.3272790962	 0.3814433023	 0.7104669545	-0.226512
C	-1.5896934689	-0.279738457	 0.2069767991	 0.374583
N	-2.7178865055	 0.23182405	 0.4488063469	-0.301216
C	-4.0259848637	-0.3211073059	 0.1892640196	-0.206447
C	-4.2783930342	-1.469594582	-0.747175537	-0.035782
C	-3.4159925457	-2.1173527221	-1.5213757994	-0.091429
C	-1.9474362184	-1.8386201213	-1.6347143244	-0.13991
O	-1.2688220303	-1.4448463754	-0.441709354	-0.259268
H	 1.4918776001	 1.3284783392	-0.0196020902	 0.115526
H	 0.8682836002	 0.0573706201	-1.0825793221	 0.125022
H	 0.0712445072	 1.6408581	-1.0268215287	 0.120926
H	 0.220881557	-0.3552447354	 1.3109763099	 0.113951
H	-0.6196590848	 1.2020789953	 1.367600718	 0.117454
H	-4.4435526235	-0.588879749	 1.173561845	 0.128378
H	-4.6680407409	 0.5111313224	-0.1404443409	 0.122999
H	-5.326542698	-1.7654691825	-0.7830973534	 0.090256
H	-3.7804176651	-2.9081974687	-2.1729937759	 0.092618
H	-1.4221341337	-2.7431145737	-1.955970949	 0.120595
H	-1.7676681516	-1.0748139834	-2.4065300497	 0.11847
47.6241	58.6539	135.2638	183.5306	215.9546	298.8635	320.7398	358.3891	408.6982	440.0427	634.5699	693.0937	707.193	750.8655	788.1289	835.8375	894.4109	924.3584	968.1922	973.2635	1013.4035	1033.2083	1056.115	1081.0108	1106.6162	1151.1507	1211.1417	1249.849	1284.1943	1292.3411	1295.4875	1354.742	1387.717	1402.2197	1413.3696	1424.7339	1453.3475	1472.282	1489.5746	1498.2836	1509.7505	1755.6407	1782.9263	2981.2564	2989.1726	2990.9252	3036.5695	3040.6569	3077.4962	3105.8852	3111.3588	3126.31	3129.5677	3158.8281
CCC1=NCC=CCO1	CCC1=NCC=CCO1	
InChI=1S/C7H11NO/c1-2-7-8-5-3-4-6-9-7/h3-4H,2,5-6H2,1H3	InChI=1S/C7H11NO/c1-2-7-8-5-3-4-6-9-7/h3-4H,2,5-6H2,1H3
