16
gdb 6595	6.1086	1.31296	1.31128	1.2893	72.77	-0.2504	0.0456	0.2961	960.2791	0.129656	-346.523813	-346.51649	-346.515545	-346.554874	29.145	
O	-0.0819978912	 1.33026852	 0.004781601	-0.467303
C	 0.0217676657	-0.0439680877	 0.0014035473	 0.368503
C	 0.6671286679	-0.972230557	 1.0783319266	-0.318362
C	 0.0436456495	-1.9177949575	-0.0023001108	 0.26341
C	-1.2096974711	-0.9756677322	 0.0086423006	-0.284934
C	 0.6512856901	-0.9681074739	-1.0883406145	-0.318377
C	 0.0538373083	-3.3486218528	-0.0051336328	 0.050728
C	 0.0610464368	-4.551654429	-0.0074950341	-0.351128
H	 0.8047864236	 1.7065217378	-0.00168445	 0.284601
H	 1.75856575	-0.9783749169	 1.1451742375	 0.093322
H	 0.1944475132	-0.9891088448	 2.0629805303	 0.10252
H	-1.8124606172	-0.9889241253	 0.9194669573	 0.102453
H	-1.8256747559	-0.9854880303	-0.8933408018	 0.102448
H	 0.1642822209	-0.9812797193	-2.0660424098	 0.102522
H	 1.7416295783	-0.9739658769	-1.1711391862	 0.093324
H	 0.0679765112	-5.6131998341	-0.0091615606	 0.176273
144.0176	145.0308	246.5811	355.197	369.0991	505.1817	507.006	528.8055	560.6716	560.775	623.8539	627.5931	648.6083	775.532	785.3117	936.8554	956.1305	978.07	1031.8567	1042.6966	1100.2251	1115.8448	1117.7912	1129.8915	1148.9279	1157.5442	1168.2544	1281.7795	1319.4383	1388.0767	1492.7045	1493.3215	1560.4831	2236.8252	3051.8345	3055.3661	3064.7469	3124.3652	3128.8129	3133.7524	3503.673	3809.8788
OC12CC(C1)(C2)C#C	O[C@@]12C[C@@](C1)(C2)C#C	
InChI=1S/C7H8O/c1-2-6-3-7(8,4-6)5-6/h1,8H,3-5H2	InChI=1S/C7H8O/c1-2-6-3-7(8,4-6)5-6/h1,8H,3-5H2/t6-,7-
