19
gdb 65984	2.27549	1.53106	1.38533	2.7135	75.57	-0.2418	0.019	0.2608	1061.1021	0.15989	-419.179453	-419.17079	-419.169845	-419.212746	32.479	
C	 0.3381333738	 1.6646028592	-0.5490072392	-0.449533
C	 0.0007991226	 0.2149251855	-0.1920060433	 0.140614
C	 0.9340810558	-0.8587626683	-0.8186055135	-0.119925
O	 1.4530944662	-1.1909160077	 0.5116517173	-0.257233
C	 0.6290447768	-0.2670437095	 1.1048376786	 0.411397
N	 0.4632781077	 0.041302991	 2.3112562913	-0.556596
C	-1.4894788905	-0.0476983321	-0.3108916141	-0.041095
C	-2.1738161871	-1.1176793816	 0.4563997941	-0.256613
N	-2.3955281784	 0.3000361203	 0.791507051	-0.326258
H	 1.4123608916	 1.8567563772	-0.4711307398	 0.123824
H	 0.0211835113	 1.8886741979	-1.5731363121	 0.122321
H	-0.1809505489	 2.3502805431	 0.1259105401	 0.148298
H	 0.4404632803	-1.7236738222	-1.2666556905	 0.124809
H	 1.7333651298	-0.4876694299	-1.46447683	 0.119757
H	 1.0603105767	-0.5062845517	 2.9331563951	 0.230818
H	-1.8879721085	 0.2072649936	-1.2930339716	 0.090642
H	-3.0275891491	-1.6294407536	 0.021218639	 0.116176
H	-1.5839228634	-1.7191584427	 1.1424952868	 0.122307
H	-1.8408734568	 0.5255084116	 1.6181877309	 0.256289
94.4302	117.8313	159.1314	213.7077	221.151	245.7022	330.3162	396.7904	455.548	505.8102	658.8452	704.0904	760.2191	836.1008	863.5998	873.0895	903.5268	937.2677	966.2965	979.6945	985.0641	1005.662	1028.118	1109.3759	1144.202	1154.0186	1164.5629	1201.1283	1215.2182	1241.8905	1283.4843	1284.6518	1322.1967	1371.2408	1404.429	1421.2277	1490.3739	1492.7974	1508.6623	1513.3316	1811.0599	3036.8092	3064.3552	3100.4178	3107.1144	3112.5267	3122.6153	3128.8603	3196.9412	3461.3594	3476.6163
CC1(COC1=N)C1CN1	C[C@]1(CO[C]1[NH])[C@H]1CN1	
InChI=1S/C6H10N2O/c1-6(4-2-8-4)3-9-5(6)7/h4,7-8H,2-3H2,1H3	InChI=1S/C6H10N2O/c1-6(4-2-8-4)3-9-5(6)7/h4,7-8H,2-3H2,1H3/t4-,6+/m1/s1
