14
gdb 133292	2.44391	1.6721	0.99897	2.3441	71.95	-0.2381	-0.0723	0.1657	1101.4661	0.099322	-477.941015	-477.933073	-477.932129	-477.974153	28.4	
C	-0.0223180637	 1.4175518814	-0.1637321998	-0.322897
N	-0.0070779081	-0.0349348577	-0.2284422193	-0.305219
C	-1.0450099798	-0.6695089721	 0.1108124833	 0.328519
O	-2.1937391825	-0.0161979882	 0.5418716395	-0.301733
N	-3.3689376325	-0.6672612769	 0.9281626323	-0.069433
C	-3.355051241	-1.9524635481	 0.8704569487	 0.041162
C	-2.2460502131	-2.7658756603	 0.4472224378	-0.271819
C	-1.126510386	-2.1240251998	 0.079902886	 0.253408
F	-0.0494288599	-2.7605223664	-0.3249166129	-0.025829
H	 0.9473534321	 1.7970961161	-0.4916349955	 0.124776
H	-0.8040521853	 1.8447838285	-0.8053166526	 0.131859
H	-0.2154977666	 1.7766390372	 0.8555964783	 0.131874
H	-4.2881003292	-2.4137397033	 1.1794645396	 0.146668
H	-2.3160146842	-3.8454743804	 0.4275485245	 0.138663
66.8902	119.1823	189.535	205.0913	223.9945	323.9007	499.7347	502.3446	548.2045	567.5925	590.4195	731.2984	746.1443	871.2114	893.9018	934.5059	940.8835	1045.2774	1055.1023	1104.647	1107.1057	1177.5315	1306.4813	1344.1641	1409.0408	1436.6218	1485.3463	1496.6035	1627.4947	1705.9156	1744.9787	3007.9773	3059.4016	3117.7647	3187.2457	3223.872
CN=C1ON=CC=C1F	C[N]C1=C([CH]C=NO1)F	
InChI=1S/C5H5FN2O/c1-7-5-4(6)2-3-8-9-5/h2-3H,1H3	InChI=1S/C5H5FN2O/c1-7-5-4(6)2-3-8-9-5/h2-3H,1H3
