14
gdb 43618	6.08721	0.642	0.63335	3.1769	86.51	-0.2503	-0.0326	0.2177	1696.4194	0.099448	-399.512491	-399.503912	-399.502968	-399.546637	31.023	
O	 0.0307460584	-0.0639874782	 0.1165509722	-0.345389
C	-0.0308686581	 1.1320249865	 0.0693044673	 0.432397
C	-1.158750691	 2.1925040263	 0.0780059102	-0.38762
C	-0.0051213954	 3.2519250516	-0.0374895696	-0.20565
N	 0.9299732379	 2.1150831204	-0.0097483355	-0.302824
C	 0.024450728	 4.0658829039	-1.2390374188	 0.503831
C	 0.0601960944	 4.7614607291	-2.2290979569	-0.314673
C	 0.0973965815	 5.5364800817	-3.3461956378	 0.304335
C	 0.1321278312	 6.2251849452	-4.3372464714	-0.554813
H	-1.82236411	 2.1476780594	-0.7854187419	 0.14942
H	-1.7389921698	 2.241027084	 1.0001696415	 0.141403
H	 0.0817747687	 3.891763595	 0.8483827659	 0.121836
H	 1.9287509377	 2.0756333174	-0.153130548	 0.259781
H	 0.1612529763	 6.8299212778	-5.2097703572	 0.197965
43.9868	90.0689	124.1424	233.6573	263.5779	371.4999	425.8689	438.8744	510.4538	536.5531	557.5971	573.8746	599.8234	614.3336	697.4868	761.1726	882.5373	966.2336	980.0838	1012.8544	1103.6429	1158.2624	1189.8074	1205.9773	1255.4191	1365.3408	1372.9327	1455.9672	1906.3374	2182.8454	2360.8284	3036.2094	3098.4674	3163.3769	3502.3311	3610.0992
O=C1CC(N1)C#CC#C	O=C1C[C@@H](N1)C#CC#C	
InChI=1S/C7H5NO/c1-2-3-4-6-5-7(9)8-6/h1,6H,5H2,(H,8,9)	InChI=1S/C7H5NO/c1-2-3-4-6-5-7(9)8-6/h1,6H,5H2,(H,8,9)/t6-/m0/s1
