18
gdb 112509	2.25095	1.25938	1.08688	3.841	71.52	-0.2677	-0.006	0.2617	1201.5349	0.146836	-439.07299	-439.063722	-439.062778	-439.10765	33.293	
C	-0.5457288503	 1.4545586134	 0.2013185322	-0.425497
C	-0.1992903158	-0.0140757792	 0.0115931315	-0.075727
C	 0.5325982976	-0.5071845128	-1.2654758277	 0.103179
C	 1.2214870578	 0.4953452001	-2.1782241341	-0.07385
O	 2.1097926935	-0.179673981	-3.0461153269	-0.418281
O	 1.5349356243	-1.2005348292	-0.4573575873	-0.302895
C	 1.0209202293	-0.6343795101	 0.761344266	-0.022564
C	 1.9555191001	 0.314646441	 1.378159789	 0.286249
N	 2.6805904327	 1.072506925	 1.8640150951	-0.324462
H	 0.3199771905	 2.1080169193	 0.0708716706	 0.14708
H	-1.317427676	 1.759415691	-0.5124584462	 0.128725
H	-0.9405873033	 1.6271422993	 1.2073744452	 0.133697
H	-1.0815787887	-0.6290147642	 0.2033480874	 0.104115
H	-0.0191511332	-1.2312021466	-1.8745976401	 0.097105
H	 0.4825930296	 1.0049490753	-2.806487126	 0.113775
H	 1.7446376147	 1.2581540229	-1.5827581247	 0.102776
H	 2.7217499644	-0.6670395649	-2.4811856429	 0.295696
H	 0.7793435029	-1.4103500694	 1.4960530187	 0.130877
45.2024	112.3034	140.2064	170.2226	211.6143	228.5631	283.0819	355.2077	439.3924	471.8068	492.4588	538.4096	586.1577	735.7754	833.4517	842.2384	918.8517	954.8436	998.9925	1019.4668	1040.4798	1083.8357	1101.0936	1152.2384	1168.9315	1213.8331	1220.1028	1278.9154	1300.6014	1344.5428	1355.9139	1377.9527	1406.6941	1420.759	1434.4771	1491.9244	1498.0098	1502.2523	2351.8844	2997.5307	3044.5672	3048.7859	3051.7855	3076.5223	3083.6036	3107.828	3129.4586	3790.5665
CC1C(CO)OC1C#N	C[C@H]1[C@@H](CO)O[C@H]1C#N	
InChI=1S/C6H9NO2/c1-4-5(2-7)9-6(4)3-8/h4-6,8H,3H2,1H3	InChI=1S/C6H9NO2/c1-4-5(2-7)9-6(4)3-8/h4-6,8H,3H2,1H3/t4-,5+,6-/m1/s1
