20
gdb 113059	2.23606	1.22351	1.00866	3.7892	76.35	-0.2444	-0.0278	0.2166	1297.7203	0.170023	-440.281303	-440.271751	-440.270807	-440.316283	34.867	
C	 0.1871943379	 1.2285098725	-0.4331336136	-0.38845
C	 0.0331683898	-0.2353243859	-0.0141668362	-0.173229
C	-1.4257226381	-0.6486599324	 0.1545935834	-0.087887
N	-2.229633812	-0.7025488078	-1.109205054	-0.352078
C	-2.6625249995	-2.1152524208	-0.882022247	-0.126517
C	-2.3172914537	-3.0297003509	-2.0586213892	-0.06374
O	-1.0342769457	-2.7305901501	-2.5610460639	-0.422057
C	-1.7143959555	-2.1490724855	 0.3331343078	 0.401918
O	-1.3451445575	-2.9961098868	 1.0881627822	-0.295552
H	 1.2399009689	 1.4890199694	-0.5765369286	 0.120525
H	-0.3374434305	 1.4174981827	-1.3751249129	 0.123822
H	-0.224907947	 1.905126505	 0.3241846061	 0.112328
H	 0.4919732534	-0.8941763905	-0.7602121069	 0.113858
H	 0.5496690446	-0.4228749263	 0.9346364318	 0.114524
H	-1.9031046131	-0.0563328829	 0.9497027235	 0.09654
H	-2.9895722768	-0.0345011404	-1.1479894433	 0.229135
H	-3.7121769003	-2.2422308242	-0.5829470225	 0.097103
H	-2.3119251355	-4.0707772771	-1.71851277	 0.126194
H	-3.0909422173	-2.9326073803	-2.8383255599	 0.088299
H	-1.0170837319	-1.7642736876	-2.6270300368	 0.285264
53.2214	103.4364	118.8478	143.9191	200.0077	235.4956	277.1315	298.0988	408.2917	527.2818	538.1312	553.2124	638.104	675.7898	758.3617	789.6701	852.4722	897.8392	942.8137	969.189	1005.4737	1022.8443	1048.7714	1069.5351	1097.3092	1113.5436	1141.1006	1171.5258	1227.9501	1255.0342	1275.6824	1300.0518	1344.7708	1357.8691	1382.343	1386.6785	1410.3642	1439.3355	1483.3545	1499.4709	1500.2228	1509.54	1914.6036	2965.3281	2996.1827	3018.6834	3032.4438	3038.2837	3074.9137	3076.9937	3102.8836	3111.3629	3555.9604	3719.5322
CCC1NC(CO)C1=O	CC[C@H]1N[C@@H](CO)C1=O	
InChI=1S/C6H11NO2/c1-2-4-6(9)5(3-8)7-4/h4-5,7-8H,2-3H2,1H3	InChI=1S/C6H11NO2/c1-2-4-6(9)5(3-8)7-4/h4-5,7-8H,2-3H2,1H3/t4-,5+/m1/s1
