20
gdb 95005	3.02813	1.69406	1.38342	1.3056	78.6	-0.2307	0.087	0.3177	1002.1522	0.173502	-403.080003	-403.072766	-403.071822	-403.111388	29.508	
C	-0.1674985122	 1.5689897926	 0.0485445096	-0.399512
C	 0.0409216443	 0.053877025	-0.0394931909	 0.083952
O	 0.7161978706	-0.3223004691	-1.2370632344	-0.266403
C	 2.1256839735	-0.293691937	-1.1108531415	-0.120137
C	 2.5827995915	-0.8095045446	 0.2362622021	 0.028343
C	 1.6535590217	-1.7581130719	 1.0372432268	-0.091079
C	 2.3863100361	-1.198587375	 2.2696031898	-0.174787
N	 2.1754533259	 0.0745707468	 1.4390532605	-0.169268
C	 0.759468616	-0.4995359399	 1.1805184317	 0.032771
H	 0.7858244112	 2.0885097092	 0.1752909856	 0.137506
H	-0.6543387419	 1.9306301151	-0.8608186129	 0.120268
H	-0.8015132739	 1.8210118746	 0.9052091822	 0.112349
H	-0.9375497087	-0.4392515437	-0.1062321079	 0.08484
H	 2.5190981053	-0.9282100826	-1.9125663768	 0.109928
H	 2.5277499535	 0.7220942648	-1.2606220875	 0.1016
H	 3.6542935639	-1.0354833146	 0.23966557	 0.072081
H	 1.3598830433	-2.7884936479	 0.8100969897	 0.067737
H	 1.8528306937	-1.1858359848	 3.224552528	 0.099129
H	 3.4409729971	-1.4567007548	 2.4030851774	 0.099045
H	 0.1279855893	-0.4383334723	 2.0730802586	 0.071637
139.3983	184.5159	213.8715	313.1586	364.626	452.5938	474.1771	502.1127	628.1539	736.405	758.7963	790.2727	842.129	850.3829	858.7571	915.1246	940.5093	980.5408	1014.5881	1032.2016	1058.5352	1068.775	1088.6076	1116.7139	1130.1814	1152.9165	1162.0275	1185.9789	1199.2627	1221.2365	1240.6205	1257.9042	1293.6765	1348.6477	1358.9951	1375.7982	1400.7402	1406.8936	1425.9393	1487.793	1492.1913	1503.7871	1527.0843	2972.067	3023.2792	3039.1589	3042.27	3047.5625	3054.2689	3060.4871	3068.8391	3110.494	3112.4044	3130.9565
CC1OCC2C3CN2C13	C[C@H]1OC[C@@H]2[C@H]3CN2[C@@H]13	
InChI=1S/C7H11NO/c1-4-7-5-2-8(7)6(5)3-9-4/h4-7H,2-3H2,1H3	InChI=1S/C7H11NO/c1-4-7-5-2-8(7)6(5)3-9-4/h4-7H,2-3H2,1H3/t4-,5-,6-,7+/m1/s1
