22
gdb 58113	2.52296	1.18082	1.09315	2.5032	77.6	-0.2388	0.0524	0.2912	1262.5137	0.191774	-441.453885	-441.443324	-441.44238	-441.488882	39.75	
C	 0.0712614367	 1.4967959585	-0.1453720275	-0.420184
C	-0.0523671197	-0.0164240333	 0.03507158	 0.086973
O	 0.7147198045	-0.4682908215	 1.1449793983	-0.429586
C	-1.5199634811	-0.535198582	 0.113871	 0.295202
C	-2.2725874308	 0.0252815787	 1.3224323322	-0.420762
O	-2.2411098844	-0.0970053762	-1.0427967727	-0.467851
C	-1.5001708779	-2.0659525235	 0.1913106695	 0.012819
C	-2.7081351038	-2.8575852132	-0.1254943487	-0.252598
N	-1.5356516417	-2.8924540334	-1.0264277232	-0.338042
H	 1.1168026929	 1.7634877696	-0.3202486361	 0.126763
H	-0.5309625173	 1.8530848856	-0.9846918141	 0.124026
H	-0.267838053	 2.0300089974	 0.7503774	 0.114185
H	 0.4049649873	-0.5156231836	-0.8318687715	 0.088342
H	 0.5108802905	 0.1012178797	 1.8945175606	 0.282772
H	-2.2942403909	 1.1179441237	 1.3102743754	 0.119938
H	-3.3044301522	-0.3331993523	 1.3113793949	 0.132762
H	-1.8102284284	-0.3131622382	 2.2545317254	 0.114875
H	-1.6507037631	-0.1355179701	-1.8032241055	 0.283404
H	-0.8117349154	-2.4394105881	 0.9431499575	 0.105269
H	-2.9115153756	-3.7836070775	 0.404539821	 0.113577
H	-3.5858827551	-2.3167254917	-0.4678388162	 0.118173
H	-1.7547417614	-2.2968101585	-1.8231310892	 0.209944
75.2597	88.4357	169.7029	190.1446	221.8079	249.4925	275.6096	294.0099	295.4978	331.3034	350.0504	413.6338	446.1728	489.8365	511.1371	624.7656	706.0349	828.117	863.8107	893.9113	929.0263	933.0797	973.6967	1011.3338	1012.4535	1073.3228	1098.428	1107.6226	1135.0178	1151.3901	1167.0686	1187.8092	1236.7942	1268.6028	1302.2102	1308.0443	1340.7503	1366.2617	1405.47	1407.2557	1411.3487	1426.0086	1484.3586	1487.6142	1494.4188	1502.8662	1503.8182	3003.2239	3037.5525	3048.6377	3105.4768	3112.0172	3120.666	3129.0052	3130.1854	3162.0578	3199.9863	3475.4298	3801.3946	3808.6643
CC(O)C(C)(O)C1CN1	C[C@@H](O)[C@@](C)(O)[C@H]1CN1	
InChI=1S/C6H13NO2/c1-4(8)6(2,9)5-3-7-5/h4-5,7-9H,3H2,1-2H3	InChI=1S/C6H13NO2/c1-4(8)6(2,9)5-3-7-5/h4-5,7-9H,3H2,1-2H3/t4-,5-,6-/m1/s1
