15
gdb 26833	3.44552	1.12487	0.85251	6.0695	77.14	-0.217	-0.0486	0.1684	1276.3273	0.111774	-453.996511	-453.987753	-453.986809	-454.030729	30.927	
C	 0.0490610509	 1.5321176487	-0.0125979943	-0.506697
C	 0.0421568179	 0.0370966505	-0.0241905224	 0.15255
C	 0.0018961216	-0.8107775534	-1.1238103056	 0.32974
O	-0.0528387436	-0.614837408	-2.456230254	-0.42467
N	 0.0215533118	-2.0779239176	-0.6430620788	-0.335901
C	 0.0739620124	-1.9831325313	 0.7383458195	 0.232621
C	 0.103137961	-3.1782128478	 1.5686162238	 0.086056
O	 0.1475863959	-3.2031671755	 2.7764527657	-0.266459
N	 0.0867662872	-0.7143769427	 1.1112130224	-0.31126
H	 1.0533524507	 1.9364967325	 0.1586854767	 0.143523
H	-0.3194305195	 1.949131675	-0.9573866553	 0.100675
H	-0.5957165954	 1.9060342566	 0.7870437785	 0.15615
H	-0.0382342415	 0.3320737345	-2.6311374387	 0.315971
H	-0.003927021	-2.9159549284	-1.2020336303	 0.279488
H	 0.0803354516	-4.1215006232	 0.9694829427	 0.048214
38.3045	117.9567	170.667	196.2339	259.1403	269.7482	284.8136	372.9122	419.5796	512.1742	529.6877	640.8344	688.7614	705.0265	743.6097	831.9741	996.7384	1010.6526	1042.8009	1057.1798	1148.2961	1199.0525	1241.8499	1319.8785	1396.2479	1416.4431	1461.1908	1472.4765	1496.1105	1513.5005	1557.8643	1629.3545	1798.461	2825.4787	3024.695	3078.1687	3113.6749	3649.8734	3831.5022
CC1=C(O)NC(C=O)=N1	Cc1c(O)[nH]c(C=O)n1	
InChI=1S/C5H6N2O2/c1-3-5(9)7-4(2-8)6-3/h2,9H,1H3,(H,6,7)	InChI=1S/C5H6N2O2/c1-3-5(9)7-4(2-8)6-3/h2,9H,1H3,(H,6,7)
