20
gdb 33130	3.05174	1.02307	0.77848	1.8854	82.84	-0.1873	0.0369	0.2243	1488.3468	0.170855	-403.175647	-403.166167	-403.165223	-403.210329	34.779	
C	-0.0298360165	 1.5289955244	 0.0074846813	-0.40081
C	-0.0435735856	 0.0072800649	-0.0852609104	-0.109522
N	 0.8022783421	-0.4569980851	-1.1749568303	-0.399266
C	 0.8573641712	-1.8304207019	-1.4077027312	 0.190092
C	 0.419470465	-2.8534557557	-0.6164402173	-0.098521
O	 0.7383903359	-4.0588143404	-1.1864574505	-0.158576
C	 1.3683957248	-3.7839008184	-2.352378917	-0.08643
C	 1.4811628895	-2.4451496101	-2.5569007452	 0.155475
C	 2.1192186772	-1.731691571	-3.7060027205	-0.517245
H	 0.989358931	 1.9004180898	 0.1481977934	 0.129753
H	-0.4348132018	 1.9841181632	-0.9041264287	 0.114406
H	-0.6432531583	 1.8695153442	 0.8462268421	 0.121544
H	 0.3475143597	-0.424332165	 0.8450281485	 0.112935
H	-1.0808007311	-0.358536358	-0.1862561228	 0.090842
H	 0.6630245026	 0.0745026829	-2.0250929998	 0.226283
H	-0.0889594067	-2.9003191093	 0.3300974934	 0.121452
H	 1.6843709858	-4.6365690936	-2.9321394532	 0.127728
H	 1.3949607838	-1.1283180225	-4.2692169804	 0.119543
H	 2.9073656126	-1.0498225831	-3.3654074453	 0.133162
H	 2.5677823389	-2.438951675	-4.408836466	 0.127154
72.5454	92.4593	121.6176	152.9953	240.2198	254.0289	255.2115	342.3585	352.1475	480.9586	580.5599	605.4899	633.6202	645.4649	713.8902	759.6969	795.6436	823.3478	901.1965	928.858	1008.7048	1065.1592	1074.9885	1079.7738	1144.86	1157.3476	1203.6636	1215.0573	1260.4424	1290.8946	1330.6377	1362.5994	1402.0681	1418.882	1420.2108	1481.3737	1487.5474	1498.6139	1499.1676	1509.6663	1526.9773	1596.829	1673.5359	2944.9154	3014.6977	3030.6232	3036.8153	3063.2106	3101.175	3110.3684	3121.8684	3264.6154	3293.5408	3553.6201
CCNC1=COC=C1C	CCNc1cocc1C	
InChI=1S/C7H11NO/c1-3-8-7-5-9-4-6(7)2/h4-5,8H,3H2,1-2H3	InChI=1S/C7H11NO/c1-3-8-7-5-9-4-6(7)2/h4-5,8H,3H2,1-2H3
