19
gdb 59824	4.23408	0.60081	0.55082	3.9545	83.93	-0.2508	-0.0426	0.2082	2013.0063	0.154965	-423.020802	-423.009767	-423.008822	-423.059703	37.727	
C	 0.2708362455	 1.3950373305	 0.4054281198	-0.406156
C	-0.109338405	-0.0800145829	 0.5298129803	 0.147571
O	-0.8743876917	-0.3318411794	 1.696582449	-0.419423
C	-0.8349747887	-0.5814982807	-0.741603091	-0.383484
C	-1.1779752529	-1.9942011458	-0.7003816272	 0.030073
C	-1.4568540639	-3.1684627353	-0.6726007072	 0.09558
C	-1.7966433167	-4.5775494917	-0.6230730396	 0.241739
C	-1.2825186774	-5.32465042	 0.5914812722	-0.475736
O	-2.4483772778	-5.1099794442	-1.4969279995	-0.279035
H	 0.7653566489	 1.7313003104	 1.3200356286	 0.131429
H	 0.9466592212	 1.5654523815	-0.4387601011	 0.121052
H	-0.6208927913	 2.0157342331	 0.2502849219	 0.110392
H	 0.7974591628	-0.6805724214	 0.6619276247	 0.10399
H	-1.6675197613	 0.2148768962	 1.6586949727	 0.279399
H	-1.7492548531	 0.0119740347	-0.8889980825	 0.12884
H	-0.2066982298	-0.3862946118	-1.6206579386	 0.140565
H	-1.6638459922	-4.8600467351	 1.507064136	 0.149107
H	-1.5961385692	-6.3683388632	 0.5396528891	 0.139681
H	-0.1898098074	-5.262205125	 0.6354850824	 0.144418
9.6601	54.6473	62.0302	120.9785	155.9541	161.5237	245.3299	288.0784	296.3929	342.9446	385.0385	421.1755	457.0389	534.5611	591.4633	604.3143	698.1495	830.5822	889.4222	932.6487	963.3121	1042.7981	1052.276	1063.0186	1091.8926	1148.5574	1196.8617	1248.2998	1303.44	1331.5127	1370.1562	1381.671	1406.9359	1424.7891	1452.3533	1460.4342	1468.7239	1491.9852	1497.021	1766.6273	2333.7335	3004.6432	3025.7213	3039.7343	3043.4869	3059.2396	3097.2086	3104.1444	3124.9296	3150.9513	3793.4765
CC(O)CC#CC(C)=O	C[C@@H](O)CC#CC(=O)C	
InChI=1S/C7H10O2/c1-6(8)4-3-5-7(2)9/h6,8H,4H2,1-2H3	InChI=1S/C7H10O2/c1-6(8)4-3-5-7(2)9/h6,8H,4H2,1-2H3/t6-/m1/s1
