20
gdb 64928	4.1387	0.70572	0.661	1.9402	92.22	-0.2272	0.038	0.2651	1769.2966	0.170426	-365.947948	-365.938389	-365.937445	-365.983787	34.984	
C	 0.09200846	 1.3296487206	-0.4759747332	-0.455918
C	 0.0393064667	-0.1066576713	 0.0250598324	 0.18129
C	 1.3574199755	-0.8329051592	 0.2638908889	-0.28666
C	 0.5319139267	-0.3926130678	 1.4377737362	-0.285247
C	-1.0691908255	-0.8872379742	-0.4583324349	 0.008589
C	-2.0108545567	-1.5132512537	-0.8825128658	 0.096392
C	-3.1182106468	-2.2881190065	-1.3654030056	-0.164055
C	-3.6040352088	-2.1021816337	-2.7664885909	-0.226275
N	-2.904672141	-3.3362099416	-2.3981033918	-0.308061
H	 0.9619193121	 1.8504386076	-0.0637436114	 0.112564
H	 0.1624115821	 1.3609130859	-1.5678506747	 0.124257
H	-0.8067117493	 1.8796962397	-0.1799579212	 0.127111
H	 1.3962183434	-1.8907548397	 0.0335582652	 0.123704
H	 2.2662027723	-0.2857559261	 0.0367840647	 0.115992
H	 0.8717738579	 0.458129242	 2.0186779598	 0.116303
H	 0.0072799751	-1.1497953733	 2.0077242005	 0.125395
H	-3.8479279892	-2.5826618952	-0.6150597457	 0.113039
H	-4.6630053081	-2.2197975955	-2.9787137217	 0.12289
H	-3.09019965	-1.3654722541	-3.3767016915	 0.121148
H	-1.9383057163	-3.2841270939	-2.7122098893	 0.237542
24.3512	81.7748	89.7724	193.2536	202.314	230.8257	300.8434	337.4477	460.3972	472.3089	540.207	557.1186	612.1746	780.5708	793.6266	812.5655	837.8049	882.431	941.7776	952.2492	959.3669	988.	1045.5601	1050.9462	1076.0181	1078.3017	1115.4355	1116.8255	1147.0651	1193.9022	1198.4436	1253.0108	1292.0735	1300.5548	1340.1339	1405.2007	1413.2844	1464.3368	1486.3965	1495.2508	1501.9586	1504.2679	2347.086	3033.5151	3104.1499	3107.0268	3113.5713	3133.5464	3135.3798	3140.2115	3203.8902	3221.4511	3235.8724	3502.3925
CC1(CC1)C#CC1CN1	CC1(CC1)C#C[C@H]1CN1	
InChI=1S/C8H11N/c1-8(4-5-8)3-2-7-6-9-7/h7,9H,4-6H2,1H3	InChI=1S/C8H11N/c1-8(4-5-8)3-2-7-6-9-7/h7,9H,4-6H2,1H3/t7-/m0/s1
