19
gdb 31611	2.34914	1.30288	0.85626	2.4757	81.09	-0.1736	0.0427	0.2163	1338.5287	0.159624	-419.225837	-419.216032	-419.215087	-419.261039	35.381	
C	-0.0912222696	 1.4142585153	 0.0430122181	-0.340948
N	-0.0742678599	-0.0319234544	 0.0587295538	-0.055096
C	-0.0983922799	-0.8202138524	-1.0812663789	-0.188543
C	 0.0283162916	-2.1380005475	-0.7000226263	 0.242616
N	-0.0472053619	-3.2776461603	-1.5262075088	-0.6058
C	 0.1538563642	-2.1485776892	 0.7171189887	-0.309003
C	 0.0950336566	-0.8391986332	 1.155745324	 0.251213
C	 0.1868955522	-0.3262375038	 2.5612929921	-0.15208
O	-0.1883790788	-1.3106798361	 3.509895295	-0.409426
H	 0.9103443646	 1.8426680183	 0.1743170236	 0.133417
H	-0.486982641	 1.7520591908	-0.9169604421	 0.138953
H	-0.7394087487	 1.8066515791	 0.8317855052	 0.139046
H	-0.2165057867	-0.3728086629	-2.0554276112	 0.100042
H	 0.1948940773	-3.0720726016	-2.4874716003	 0.234862
H	 0.5551274983	-4.0221470188	-1.1972891021	 0.238648
H	 0.2719052867	-3.0143545579	 1.3508496287	 0.093784
H	 1.2165624866	-0.0499084472	 2.826051923	 0.12012
H	-0.4174738329	 0.5898217009	 2.6748108985	 0.087001
H	-1.0131649988	-1.698716849	 3.196723779	 0.281194
54.3229	73.0947	151.602	168.0635	179.5309	213.2045	284.9286	317.2992	359.0793	391.108	517.7862	606.4143	618.1973	626.1338	649.9049	666.7323	765.1012	799.7002	836.812	997.6106	1010.1876	1062.8768	1078.5839	1107.711	1145.5672	1174.3619	1186.1145	1213.8606	1252.6411	1360.6124	1381.7305	1417.4456	1440.2886	1466.4552	1485.6569	1495.2228	1508.1857	1517.2199	1540.5213	1631.7722	1658.6263	2954.6942	3020.5111	3021.34	3086.7306	3128.8713	3247.5456	3253.4487	3527.3049	3614.419	3799.8392
CN1C=C(N)C=C1CO	Cn1cc(N)cc1CO	
InChI=1S/C6H10N2O/c1-8-3-5(7)2-6(8)4-9/h2-3,9H,4,7H2,1H3	InChI=1S/C6H10N2O/c1-8-3-5(7)2-6(8)4-9/h2-3,9H,4,7H2,1H3
