16
gdb 40423	4.29829	1.2654	1.13247	0.4736	67.93	-0.2499	0.0088	0.2587	1063.4514	0.125125	-437.851279	-437.844145	-437.843201	-437.883225	27.41	
C	 0.4874153747	 1.43035041	 0.1351145264	-0.169128
O	 1.0211190838	 0.2138910733	-0.3995080436	-0.236912
C	-0.3246434933	 0.2089120171	 0.0775463718	-0.034287
C	-0.584723673	-0.6259193742	 1.2880161788	 0.334804
C	 0.5256162602	-1.0115987184	 2.2428526095	-0.365035
C	-0.1827845786	-2.0855153993	 1.4705698431	 0.020681
O	-1.2950497163	-2.6979966015	 2.1100694221	-0.210753
C	-2.1877611919	-1.6931942948	 2.3001645163	 0.092925
N	-1.9103514409	-0.5288046958	 1.8680780486	-0.314817
H	 0.9085228991	 1.742461388	 1.0888340018	 0.119419
H	 0.3209924102	 2.2229703649	-0.5918146078	 0.121427
H	-1.0837747091	 0.1313488286	-0.7011951656	 0.101156
H	 1.53018585	-0.7943894061	 1.8979850548	 0.142354
H	 0.3480829775	-0.9177025837	 3.3087987097	 0.123914
H	 0.3125252101	-2.7317997718	 0.7585700522	 0.127376
H	-3.0941211524	-1.9815339761	 2.8181008018	 0.146875
69.4899	174.4252	198.2403	334.0731	347.3427	441.4581	478.7338	595.803	674.3525	757.3791	807.3683	848.2175	874.4211	902.1312	914.8473	936.4696	975.6906	996.3573	1009.233	1064.9222	1073.709	1099.3057	1112.4417	1141.1046	1153.0909	1171.4713	1211.9384	1267.6906	1288.9179	1331.8148	1379.1216	1440.6329	1466.5235	1524.7063	1661.9421	3092.8225	3109.3087	3134.973	3184.732	3208.7218	3232.2659	3235.5316
C1OC1C12CC1OC=N2	C1O[C@H]1[C@]12C[C@H]1OC=N2	
InChI=1S/C6H7NO2/c1-4-6(1,5-2-8-5)7-3-9-4/h3-5H,1-2H2	InChI=1S/C6H7NO2/c1-4-6(1,5-2-8-5)7-3-9-4/h3-5H,1-2H2/t4-,5-,6+/m1/s1
