13
gdb 132028	2.407	1.8482	1.04673	2.4893	65.19	-0.2142	-0.0389	0.1753	1019.8529	0.089697	-497.890255	-497.882945	-497.882001	-497.921932	27.895	
N	 0.0195024853	 1.4233039201	 0.1606997861	-0.591207
C	-0.020198172	 0.0435184252	 0.06066244	-0.059731
C	-1.1463291981	-0.6988535411	 0.0331046693	 0.32179
F	-2.3631094312	-0.183129449	 0.0322496099	-0.050275
O	-1.2002119403	-2.0392197386	-0.0053828005	-0.192147
C	-0.0306039057	-2.7180020729	-0.0168897612	 0.065312
C	 1.1673576291	-2.1092427267	-0.0043161041	-0.264433
C	 1.2748346583	-0.6564785626	 0.0195430981	 0.363985
O	 2.3271418807	-0.0254425675	-0.0029313735	-0.3971
H	 0.9424841803	 1.7633053732	-0.0846937689	 0.267027
H	-0.735517541	 1.9253923202	-0.2814740191	 0.25367
H	-0.2018587771	-3.785401635	-0.0403141617	 0.153537
H	 2.0757202817	-2.6974310151	-0.0251019342	 0.129573
132.9028	202.5755	269.3657	295.9855	356.4489	360.5921	489.4925	510.187	525.3173	568.0602	576.6736	662.8943	705.877	752.3318	843.9574	860.492	943.4505	984.5538	1058.8166	1213.0975	1232.0683	1296.577	1309.292	1416.2803	1440.4289	1607.1354	1636.183	1726.4493	1742.4235	3220.3807	3242.1059	3532.0308	3658.1696
NC1=C(F)OC=CC1=O	Nc1c(F)occc1=O	
InChI=1S/C5H4FNO2/c6-5-4(7)3(8)1-2-9-5/h1-2H,7H2	InChI=1S/C5H4FNO2/c6-5-4(7)3(8)1-2-9-5/h1-2H,7H2
