17
gdb 88895	3.3508	0.80724	0.74871	3.94	86.69	-0.2475	-0.0488	0.1987	1529.4079	0.134923	-380.822567	-380.813302	-380.812358	-380.857414	32.974	
C	 1.763270874	 1.0555293969	 0.3943204228	-0.427281
C	 0.5535039906	 0.2048498163	 0.0790978892	 0.037191
C	 0.4703996282	-1.2310408188	 0.4758682992	-0.25529
N	-0.4112617164	-0.2414127608	 1.0896044385	-0.090789
C	-0.2859513736	 0.1244451937	 2.50187241	-0.305496
C	 0.9070656911	-0.3018778727	 3.2357772091	 0.109157
C	 1.87156117	-0.6969578471	 3.849850158	 0.002632
C	 2.9624122171	-1.1314145748	 4.5464670333	 0.211987
N	 3.8918468185	-1.5007605217	 5.1377474034	-0.33482
H	 2.3108748006	 0.6993569746	 1.2689284582	 0.137946
H	 2.4507286209	 1.0464714632	-0.4578980169	 0.131787
H	 1.4762973023	 2.0986528906	 0.5696427272	 0.124445
H	 0.05190732	 0.492050822	-0.8446018863	 0.098778
H	-0.0204170685	-1.964610521	-0.1582169719	 0.120997
H	 1.2943371254	-1.6216715294	 1.0696754802	 0.12505
H	-0.3861851634	 1.2135393215	 2.5864376515	 0.154171
H	-1.1532258467	-0.3019675225	 3.0236549843	 0.159536
53.7494	73.5134	151.4509	182.7714	199.9536	238.0507	316.1844	350.2738	398.3716	458.478	531.8215	573.0234	578.5557	725.2031	749.1937	775.6667	904.6607	933.8125	985.2659	1041.7875	1077.4562	1122.8632	1136.6017	1160.456	1167.161	1193.6047	1278.8487	1325.9025	1361.0706	1406.256	1423.6968	1453.6323	1493.3897	1501.4692	1513.4321	2256.3968	2393.4222	3019.1822	3037.3734	3055.9199	3094.1017	3101.0072	3104.9906	3138.4345	3185.9951
CC1CN1CC#CC#N	C[C@H]1CN1CC#CC#N	
InChI=1S/C7H8N2/c1-7-6-9(7)5-3-2-4-8/h7H,5-6H2,1H3	InChI=1S/C7H8N2/c1-7-6-9(7)5-3-2-4-8/h7H,5-6H2,1H3/t7-,9?/m0/s1
