18
gdb 95674	3.11869	1.23389	0.9508	3.2575	78.53	-0.2467	-0.0356	0.2111	1219.8126	0.148954	-439.09195	-439.083612	-439.082668	-439.125154	31.571	
O	-0.5858585528	 1.3407484855	-1.0111447605	-0.432096
C	-0.1948879482	 0.3157295928	-0.1009139693	 0.081244
C	-1.4309881009	-0.5373936146	 0.1462891731	-0.219462
C	-1.1414883632	-1.7552848429	 1.0146847497	-0.099064
O	-0.7235317658	-2.9005744475	 0.2700260429	-0.256189
C	 0.4598717157	-2.9425257783	-0.3993111374	 0.347917
N	 0.9131999136	-4.061377426	-0.8114439814	-0.505152
C	 1.2567300219	-1.7420611365	-0.7148011372	-0.074982
C	 1.0052720148	-0.4330723807	-0.6168637236	-0.121943
H	 0.1680262255	 1.9202034471	-1.1620112548	 0.284636
H	 0.0997279624	 0.7723709491	 0.862904766	 0.079414
H	-2.1879045189	 0.0904171758	 0.6272533506	 0.113873
H	-1.847144637	-0.867964817	-0.8110088536	 0.129676
H	-0.4022438366	-1.5232881175	 1.7937422988	 0.111004
H	-2.0527625432	-2.0919983945	 1.5138081783	 0.123546
H	 0.2733078798	-4.8099289485	-0.5363975714	 0.219733
H	 2.2119394157	-2.0430947298	-1.1320653973	 0.124855
H	 1.8054012772	 0.2290390136	-0.9503673128	 0.092992
63.9951	114.5711	240.898	252.5662	269.6152	322.2616	344.3548	396.5545	489.9011	504.4926	583.6663	674.5546	734.6525	773.1639	827.9548	863.245	914.2006	929.3984	977.8631	1030.1309	1052.701	1069.6532	1082.1324	1116.1804	1168.3016	1196.625	1248.707	1288.447	1304.3627	1345.8216	1350.7935	1380.5858	1412.5821	1439.6088	1454.7238	1480.8308	1507.157	1675.4968	1726.234	2916.5123	3016.5264	3052.4585	3098.4035	3104.2627	3116.2407	3190.4204	3463.1649	3816.3953
OC1CCOC(=N)C=C1	O[C@H]1CCOC(=C[CH]1)[NH]	
InChI=1S/C6H9NO2/c7-6-2-1-5(8)3-4-9-6/h1-2,5,7-8H,3-4H2	InChI=1S/C6H9NO2/c7-6-2-1-5(8)3-4-9-6/h1-2,5,7-8H,3-4H2/t5-/m1/s1
