15
gdb 75416	2.34907	1.79806	1.06009	2.9789	70.01	-0.2409	-0.1021	0.1388	1067.9523	0.112801	-453.985894	-453.977555	-453.976611	-454.01919	30.415	
N	 0.0224036606	 1.3217696359	 0.0518605625	-0.53758
C	-0.0756198229	-0.0326560593	 0.0149117038	 0.275577
N	-1.2059455731	-0.638501622	-0.0392491354	-0.292035
C	-1.2636388829	-2.0854988879	 0.0042248905	-0.172207
C	-0.0177535268	-2.8215355725	-0.5373207845	-0.338008
C	 1.2383595315	-2.2629069458	 0.0772684418	 0.318423
O	 2.1504902805	-2.9003139476	 0.5378969786	-0.275333
C	 1.274192095	-0.721109573	 0.0837403923	 0.258491
O	 2.3067579955	-0.0965258416	 0.1388760178	-0.293854
H	 0.9350114157	 1.7328446337	-0.0457060659	 0.275149
H	-0.8021646279	 1.8761843446	-0.0986969673	 0.264776
H	-1.4514898784	-2.4032038474	 1.0403795221	 0.127121
H	-2.1412698734	-2.4060484169	-0.5668698742	 0.120938
H	-0.0660608942	-3.9017912455	-0.3777691485	 0.131221
H	 0.0399977909	-2.6365177645	-1.6201113536	 0.137321
55.7043	118.2239	180.1658	247.0154	303.4912	330.8767	354.7332	433.312	441.5637	538.0756	559.9398	582.8845	646.9378	711.7321	799.9526	881.413	897.6771	979.6908	1043.1289	1061.6963	1158.4841	1191.4396	1224.5892	1261.8677	1307.1874	1380.9984	1398.8437	1453.3404	1500.2536	1594.0004	1708.0269	1795.0596	1828.3721	3000.877	3014.6981	3061.0684	3104.9501	3613.3886	3748.4574
NC1=NCCC(=O)C1=O	NC1=NCCC(=O)C1=O	
InChI=1S/C5H6N2O2/c6-5-4(9)3(8)1-2-7-5/h1-2H2,(H2,6,7)	InChI=1S/C5H6N2O2/c6-5-4(9)3(8)1-2-7-5/h1-2H2,(H2,6,7)
