21
gdb 61539	2.97797	1.00459	0.83218	2.839	79.72	-0.2454	-0.0278	0.2177	1436.6655	0.178172	-424.217476	-424.207123	-424.206179	-424.253654	37.49	
C	 0.5036684394	-2.7570267983	 0.2083813243	-0.394414
C	 1.1631311901	-2.1345600923	-1.0198560289	 0.013511
O	 0.6946444136	-0.8166402436	-1.2752511958	-0.30418
C	-0.1193529061	-0.6447748997	-2.4100713122	 0.441569
C	-1.5201667092	-1.201679842	-2.2820210581	-0.450989
C	 0.1051771646	 0.6591800141	-3.1106776904	-0.310153
C	 0.571381515	-0.6341017916	-3.7539334748	-0.319798
C	 2.6824113657	-2.0487557839	-0.8638195247	 0.153579
O	 3.3537126742	-2.8519403956	-0.2724867874	-0.243929
H	 0.5857340613	-2.0747821014	 1.059011061	 0.132713
H	-0.5541044738	-2.9588489961	 0.0267093167	 0.118421
H	 1.0119841408	-3.6900376512	 0.4630149824	 0.140065
H	 0.9933090083	-2.7711904262	-1.9031748156	 0.1057
H	-2.0186678017	-0.7820765877	-1.4022397084	 0.12798
H	-2.1151160717	-0.9537044406	-3.1656486428	 0.118308
H	-1.5146205488	-2.2928607772	-2.1843542143	 0.118688
H	-0.751475178	 1.172826639	-3.5327250928	 0.113565
H	 0.8675427292	 1.3068867108	-2.6943725631	 0.124769
H	 1.6396836723	-0.8184845608	-3.7729518053	 0.115409
H	 0.0336140619	-1.0095551437	-4.6179902352	 0.1146
H	 3.1233729929	-1.1580073621	-1.3656585544	 0.084587
38.1816	68.4193	79.7466	182.6118	207.5292	237.3227	260.9374	308.4737	315.4906	327.323	431.0055	456.2773	476.2279	618.6748	715.8029	776.0682	830.9151	858.8637	891.9683	917.6677	930.7196	958.1213	1017.313	1036.9033	1058.7728	1077.5918	1105.8466	1130.7411	1137.54	1155.5211	1187.5583	1285.4558	1317.3651	1332.5282	1351.1362	1387.399	1404.9887	1418.0204	1454.0067	1483.1627	1484.3295	1492.077	1497.2742	1506.9025	1837.7738	2885.0192	2982.8149	3032.5192	3054.0759	3096.4131	3113.8877	3130.317	3133.1306	3140.1725	3140.7655	3217.1218	3233.7827
CC(OC1(C)CC1)C=O	C[C@@H](OC1(C)CC1)C=O	
InChI=1S/C7H12O2/c1-6(5-8)9-7(2)3-4-7/h5-6H,3-4H2,1-2H3	InChI=1S/C7H12O2/c1-6(5-8)9-7(2)3-4-7/h5-6H,3-4H2,1-2H3/t6-/m1/s1
