22
gdb 17652	3.90348	1.3876	1.36716	0.0521	81.66	-0.261	0.0827	0.3438	1058.665	0.200894	-313.049009	-313.040696	-313.039752	-313.081614	32.706	
C	 0.0360704871	 1.5808745445	-0.1065261267	-0.469233
C	 0.001980982	 0.0518780186	-0.0639354859	 0.365199
C	 1.0476802187	-0.5667205397	-1.055151449	-0.251366
C	 2.0508514712	-0.7200998476	 0.1183359215	-0.211843
C	 0.8790776011	-0.5026080659	 1.1116105542	-0.251364
C	-1.388418086	-0.5463478811	-0.1544229305	-0.033541
C	-2.6123959033	 0.0592670485	 0.4897939502	-0.279473
C	-2.4953740662	 0.0147949792	-1.0144653006	-0.279473
H	 1.0667492813	 1.9433856656	-0.0370391909	 0.113202
H	-0.3811434718	 1.9706079395	-1.0409972265	 0.114798
H	-0.5187918429	 2.0229455944	 0.7276783257	 0.114798
H	 0.7136247196	-1.5340664362	-1.4419097583	 0.092823
H	 1.3498929252	 0.0557506582	-1.9023116538	 0.090069
H	 2.5899391091	-1.6676441115	 0.1883206824	 0.094225
H	 2.7855936926	 0.088659584	 0.1515777365	 0.10031
H	 1.0495689883	 0.1699516716	 1.957233829	 0.090069
H	 0.4848391056	-1.44706882	 1.4982674946	 0.092823
H	-1.3620405821	-1.6339521003	-0.1202176508	 0.073023
H	-3.3169199563	-0.607481952	 0.9750529023	 0.107269
H	-2.5221671881	 1.0267922005	 0.9705622209	 0.110209
H	-2.3275278007	 0.9528196642	-1.5314964904	 0.110209
H	-3.1194933846	-0.6825133945	-1.5627544638	 0.107269
59.8161	129.2046	208.8522	271.6979	271.805	342.1709	362.4583	382.2106	467.6546	606.3671	697.3739	785.4741	791.9401	830.2608	858.1313	875.6428	896.9162	925.5876	938.4139	951.1112	967.4678	993.3391	1056.4932	1056.8695	1079.2235	1093.3452	1148.7925	1160.0298	1173.4759	1200.1614	1213.067	1213.7636	1236.6163	1256.5799	1276.7063	1290.4576	1331.1103	1400.2273	1420.3186	1466.7364	1477.5784	1483.8506	1502.3232	1506.6459	1507.2013	1509.6429	3030.511	3045.0509	3048.8132	3062.1535	3089.2507	3095.6988	3096.4562	3098.9	3113.1703	3118.2909	3134.5594	3139.1196	3210.2012	3225.0364
CC1(CCC1)C1CC1	CC1(CCC1)C1CC1	
InChI=1S/C8H14/c1-8(5-2-6-8)7-3-4-7/h7H,2-6H2,1H3	InChI=1S/C8H14/c1-8(5-2-6-8)7-3-4-7/h7H,2-6H2,1H3
