17
gdb 15892	2.33899	2.1234	1.35072	3.9349	65.77	-0.2451	-0.0281	0.2169	953.3097	0.140777	-400.983357	-400.975098	-400.974154	-401.016185	29.936	
C	-0.0168322854	 1.3880155446	-0.0106779477	-0.331227
N	 0.0714716974	-0.0563683096	 0.0842560148	-0.099079
C	-1.1781904955	-0.811071897	 0.3481439509	-0.289842
C	-0.3992724613	-1.6267687361	 1.3902674113	 0.40275
O	-0.6126032601	-2.6026407094	 2.0406512473	-0.283663
C	 0.7805893083	-0.6446779909	 1.2553472759	-0.114471
C	 2.1568246057	-1.2067065883	 0.9111294946	-0.069965
O	 2.1088801674	-1.9462924197	-0.286901627	-0.420382
H	 0.9863249667	 1.8153891278	-0.101556159	 0.131388
H	-0.5819279522	 1.6693149891	-0.9046392293	 0.131345
H	-0.5092274071	 1.8468806165	 0.8660737926	 0.101605
H	-1.9746929296	-0.2133746011	 0.8207957385	 0.120257
H	-1.5951697153	-1.3466166207	-0.510706654	 0.136893
H	 0.832692322	 0.0253320508	 2.1299468781	 0.090168
H	 2.8854394732	-0.3799300829	 0.8515125218	 0.088039
H	 2.4830792421	-1.8793683626	 1.7117084177	 0.126016
H	 1.5609345438	-1.4154535004	-0.8835004864	 0.280169
93.2185	106.7045	164.5781	210.074	235.6273	287.1496	359.7827	445.6043	523.4656	529.6554	623.8196	665.1586	750.0757	803.1228	940.11	968.4267	1010.3464	1026.4419	1075.1642	1113.7927	1126.647	1153.103	1187.6542	1203.7348	1229.7137	1279.1338	1283.55	1325.0326	1383.1842	1438.9041	1453.9063	1474.5767	1495.5138	1499.4776	1501.5253	1923.9785	2943.9852	2953.7535	2974.2084	2983.3948	3068.3152	3074.2614	3075.4411	3108.9571	3719.752
CN1CC(=O)C1CO	CN1CC(=O)[C@H]1CO	
InChI=1S/C5H9NO2/c1-6-2-5(8)4(6)3-7/h4,7H,2-3H2,1H3	InChI=1S/C5H9NO2/c1-6-2-5(8)4(6)3-7/h4,7H,2-3H2,1H3/t4-/m1/s1
