21
gdb 37787	2.36872	2.08225	1.58209	0.2626	85.8	-0.2267	0.0304	0.2571	960.0471	0.187755	-349.96951	-349.962735	-349.961791	-350.000225	29.1	
C	-0.0799527099	 1.4527092966	 0.2154926924	-0.222279
C	 1.3045541236	 2.0320393305	-0.0315846772	-0.054594
C	 2.3138696159	 0.9054717735	 0.120712408	-0.054595
C	 1.5469983003	-0.3632549584	 0.4609693289	-0.222279
C	 0.0807585237	-0.0826811741	 0.023183737	-0.070399
C	-0.1774862715	-0.5069916092	-1.4042368578	-0.078894
C	 0.4818095692	-0.0605003855	-2.4707125912	-0.036989
C	 1.6049488137	 0.9402889007	-2.5106750666	-0.283652
C	 2.1144365077	 1.5709800373	-1.2220615373	-0.020339
H	-0.3751421944	 1.6754440997	 1.2486679491	 0.091535
H	-0.8541092261	 1.8615307378	-0.4408662043	 0.097911
H	 1.5099233371	 3.0233548222	 0.3600044075	 0.072884
H	 3.2615594158	 1.0682198806	 0.624320988	 0.072884
H	 1.944927222	-1.2626866045	-0.0185465668	 0.097911
H	 1.593784501	-0.5222372836	 1.5457428803	 0.091535
H	-0.616461348	-0.6196878242	 0.6715799732	 0.066357
H	-0.9689373018	-1.2367991552	-1.5578814533	 0.076635
H	 0.2005592665	-0.4448472916	-3.4500603556	 0.080707
H	 2.4612017656	 0.4669656087	-3.0168397052	 0.10743
H	 1.3079753727	 1.7542236883	-3.1909120207	 0.107429
H	 2.9225733968	 2.2643710101	-1.4487183185	 0.080804
148.4573	273.05	276.3898	394.2335	409.6085	480.9472	513.6405	657.4645	698.2993	718.1256	774.2543	783.6554	789.1337	849.7724	871.8235	903.89	907.7883	943.7682	995.1001	1006.665	1021.3867	1029.8972	1061.3304	1070.572	1093.3724	1095.4657	1117.2229	1191.9319	1208.9251	1227.2151	1233.1855	1240.8475	1262.5981	1321.3217	1325.7878	1357.6547	1359.7694	1378.9132	1390.789	1426.0665	1454.723	1474.0557	1486.2553	1502.5173	1739.1991	2978.741	2991.4537	3023.6278	3025.203	3066.6332	3077.3848	3079.5403	3113.6094	3128.3544	3147.347	3156.2967	3159.5853
C1C2C3CC1C=CCC23	C1[C@H]2[C@H]3C[C@@H]1C=CC[C@@H]23	
InChI=1S/C9H12/c1-2-6-4-8-7(3-1)9(8)5-6/h1-2,6-9H,3-5H2	InChI=1S/C9H12/c1-2-6-4-8-7(3-1)9(8)5-6/h1-2,6-9H,3-5H2/t6-,7+,8-,9+
