19
gdb 76634	2.46827	1.45333	1.18446	2.653	70.85	-0.2339	0.0419	0.2757	1108.7153	0.157746	-460.110978	-460.101911	-460.100967	-460.144444	35.299	
O	 0.288358344	 1.2058216248	-0.1936158755	-0.422348
C	 0.0198003431	-0.1508552313	-0.0356326653	 0.086333
C	-0.5197704609	-0.6244119666	 1.2885578254	-0.001162
O	-0.8858916507	 0.4052883385	 2.1837889245	-0.429297
C	-1.398335219	-0.710400322	 0.05894006	-0.188183
C	-2.662797122	 0.1066320829	-0.0079340741	 0.420948
O	-3.5135192231	-0.0752027336	 1.09677561	-0.479897
C	-2.7274229482	 1.450861187	-0.7039118656	-0.335879
C	-3.3976688943	 0.2347451005	-1.3073686027	-0.305774
H	-0.1993693391	 1.664220955	 0.503707828	 0.288826
H	 0.7586499992	-0.7509748467	-0.5563732799	 0.109182
H	-0.1639649087	-1.5352285157	 1.7644272443	 0.096292
H	-0.1247074635	 0.6115092355	 2.7373511741	 0.301841
H	-1.5057988834	-1.7223404907	-0.3250971325	 0.098768
H	-3.0229993143	 0.2345086764	 1.8686060723	 0.28823
H	-3.3712659268	 2.1912888586	-0.2423455357	 0.110419
H	-1.8375526871	 1.8349703749	-1.1852984029	 0.131004
H	-2.9558475074	-0.2051840393	-2.1949067793	 0.110547
H	-4.4781287677	 0.1714501417	-1.250509625	 0.120149
66.3925	158.3261	187.9692	219.2473	257.2088	293.7834	302.2927	376.1024	440.8299	476.1458	507.9663	565.136	596.5158	670.7426	720.584	784.9363	788.5707	820.3046	904.0112	916.3042	935.4175	989.3604	1047.0195	1051.0348	1056.7588	1077.8207	1087.7782	1121.6978	1146.0502	1199.814	1223.047	1254.9361	1267.1641	1290.8111	1322.5076	1360.2976	1392.199	1425.6413	1455.1214	1469.1644	1501.4451	3122.3151	3131.5773	3135.5964	3144.7209	3167.5791	3224.246	3245.1875	3761.3288	3776.7362	3804.703
OC1C(O)C1C1(O)CC1	O[C@H]1[C@@H](O)[C@H]1C1(O)CC1	
InChI=1S/C6H10O3/c7-4-3(5(4)8)6(9)1-2-6/h3-5,7-9H,1-2H2	InChI=1S/C6H10O3/c7-4-3(5(4)8)6(9)1-2-6/h3-5,7-9H,1-2H2/t3-,4+,5-
