18
gdb 15587	3.07927	1.75001	1.44555	4.6555	71.15	-0.2331	0.0268	0.26	941.3934	0.155484	-343.99465	-343.986623	-343.985679	-344.028112	29.12	
C	-0.3990556305	 1.4353885175	 0.3647262202	-0.334956
N	 0.1051492769	 0.1109707405	 0.0116279543	-0.055146
C	-0.9497066744	-0.8517652331	-0.3344000815	-0.178805
C	-1.4516171385	-1.4490490725	 1.0013753763	-0.209144
C	-0.2064789847	-1.3964874139	 1.9210301023	-0.230987
C	 0.8315976754	-0.532050653	 1.115192928	-0.137008
C	 1.9152929574	-1.3740177828	 0.5792812213	 0.301896
N	 2.7620564377	-2.0494983367	 0.1763070653	-0.333687
H	 0.4421145686	 2.095851838	 0.5949504923	 0.129499
H	-0.9241434867	 1.8565641517	-0.4968372847	 0.130433
H	-1.0910074521	 1.4508478761	 1.2256124957	 0.099026
H	-1.7313149467	-0.3644569538	-0.9212352232	 0.108013
H	-0.5087305345	-1.6397744076	-0.9561308906	 0.123724
H	-2.2610029013	-0.8411139965	 1.415315455	 0.109404
H	-1.8378768505	-2.4635463822	 0.8798432629	 0.111962
H	-0.4267440154	-0.9203196298	 2.8785111467	 0.114893
H	 0.1959775882	-2.3880949099	 2.1347686818	 0.130647
H	 1.2969202412	 0.2305502281	 1.745633528	 0.120235
22.7324	153.6578	162.304	199.1086	219.2652	373.2154	394.1156	493.9322	571.865	616.051	710.1637	788.2339	820.6497	884.5719	906.1323	914.323	970.3013	1023.4302	1033.6962	1080.8621	1117.5603	1157.0359	1198.105	1213.1305	1233.6979	1272.0812	1289.6738	1319.1996	1325.7891	1362.4377	1378.25	1459.3783	1488.1484	1491.977	1499.3147	1506.1574	1514.3692	2356.3579	2946.5854	3037.4115	3060.5264	3070.1308	3074.2153	3081.8564	3102.0533	3110.1602	3115.9389	3129.2631
CN1CCCC1C#N	CN1CCC[C@H]1C#N	
InChI=1S/C6H10N2/c1-8-4-2-3-6(8)5-7/h6H,2-4H2,1H3	InChI=1S/C6H10N2/c1-8-4-2-3-6(8)5-7/h6H,2-4H2,1H3/t6-/m0/s1
