20
gdb 37477	3.28709	1.50674	1.25038	2.6255	77.48	-0.2245	0.0771	0.3016	1046.5702	0.174583	-403.098294	-403.091056	-403.090112	-403.129962	29.36	
C	-0.0918020308	 1.5776097849	-0.0584117916	-0.051031
C	 1.4244273499	 1.7278857726	 0.1716651119	-0.264708
C	 2.2082094435	 1.2855102803	-1.061654285	 0.006447
C	 3.5903763234	 0.6347677229	-0.8658070102	-0.071082
N	 3.3910473368	-0.5197772741	 0.043249858	-0.332875
C	 3.1035644562	-0.666983166	-1.4048397774	-0.081532
C	 1.7011939158	-0.0883056941	-1.6457469726	-0.003156
C	 0.4943788443	-0.6181887674	-0.879993595	-0.105857
O	-0.4802752988	 0.415190265	-0.7911063489	-0.264822
H	-0.6080413754	 1.5819568543	 0.9136663264	 0.089592
H	-0.4724575936	 2.4331443637	-0.6312195329	 0.096998
H	 1.6358750749	 2.7680489027	 0.4427586532	 0.090904
H	 1.7351376602	 1.1051199258	 1.0148362273	 0.128735
H	 2.2302653874	 2.0583793766	-1.8341842838	 0.071244
H	 4.5633147484	 1.1044742475	-0.949589824	 0.089462
H	 4.3077095357	-0.9326781317	 0.2100974407	 0.229575
H	 3.6216199892	-1.4149332031	-1.9933012322	 0.090393
H	 1.4740182787	-0.0048119152	-2.7111459023	 0.075109
H	-0.0004517556	-1.4420358801	-1.4032374364	 0.098134
H	 0.7997339496	-0.9794004546	 0.1109150448	 0.108469
95.2719	176.7329	218.7709	323.58	379.7723	432.6402	519.8196	597.2522	615.3956	689.9808	782.6889	807.8475	836.2181	846.1698	883.8353	923.6489	972.2154	975.3398	986.6226	1015.1147	1027.6247	1044.6674	1095.3767	1105.0125	1116.4561	1140.4828	1161.7515	1182.9219	1228.133	1244.3873	1265.4895	1280.7734	1299.165	1320.9635	1327.2227	1345.4629	1384.1458	1387.2169	1394.2471	1421.7137	1489.3789	1514.3764	1523.4716	2983.9633	3019.1409	3028.9322	3047.0365	3065.8902	3075.5176	3088.5051	3101.2633	3174.7523	3188.531	3480.0347
C1CC2C3NC3C2CO1	C1C[C@H]2[C@H]3N[C@H]3[C@H]2CO1	
InChI=1S/C7H11NO/c1-2-9-3-5-4(1)6-7(5)8-6/h4-8H,1-3H2	InChI=1S/C7H11NO/c1-2-9-3-5-4(1)6-7(5)8-6/h4-8H,1-3H2/t4-,5+,6-,7+/m1/s1
