15
gdb 33946	3.47582	1.43966	1.24646	3.1987	71.19	-0.2575	0.0086	0.2661	1004.5826	0.111556	-420.551283	-420.544105	-420.543161	-420.582724	28.428	
C	-0.0086566149	-1.2075046761	-0.0748464316	-0.339625
C	 0.0470182442	-0.0089597155	-0.0008747951	 0.168832
C	 0.0758239504	 1.4155839717	 0.1372274149	 0.282101
O	 0.2806629433	 2.2125838971	-1.0407011009	-0.278792
C	 1.2805506676	 2.2715087201	-0.0294222162	-0.040305
C	 1.1959994764	 3.4672577845	 0.9137078492	-0.282503
C	-0.1486052268	 3.327758965	 1.6224929421	 0.035231
O	-1.2914663446	 3.3790525696	 0.7659454532	-0.227577
C	-0.8227752655	 2.098179024	 1.170510393	-0.084383
H	-0.0499224521	-2.2656513114	-0.1555737884	 0.194837
H	 2.2482010512	 1.8620878913	-0.3108831836	 0.11037
H	 2.0096810286	 3.4170548223	 1.6459565112	 0.115631
H	 1.2816926667	 4.4172891697	 0.3769710489	 0.136233
H	-0.2904542065	 3.7581993251	 2.6111455014	 0.103241
H	-1.4932995581	 1.4956078724	 1.7747366819	 0.10671
134.9657	145.647	269.2677	317.857	393.5463	475.5074	493.5939	532.6774	608.0925	621.2779	675.4232	715.7981	751.4981	809.1787	863.2073	884.1893	912.2082	947.3516	983.7479	1006.1696	1023.8728	1082.2293	1117.8792	1176.372	1207.5024	1257.1231	1284.716	1300.0419	1323.9984	1418.4814	1429.0533	1458.9454	2242.2065	3050.2694	3096.961	3139.5407	3142.4076	3172.7456	3502.0472
C#CC12OC1CC1OC21	C#C[C@]12O[C@H]1C[C@H]1O[C@@H]21	
InChI=1S/C7H6O2/c1-2-7-5(9-7)3-4-6(7)8-4/h1,4-6H,3H2	InChI=1S/C7H6O2/c1-2-7-5(9-7)3-4-6(7)8-4/h1,4-6H,3H2/t4-,5+,6-,7+/m1/s1
