13
gdb 20394	4.94789	2.09081	1.49942	3.3643	59.45	-0.2181	-0.0138	0.2043	774.5867	0.09787	-398.571223	-398.565302	-398.564358	-398.601674	21.969	
C	 0.0399507728	 1.3851714592	-0.145288767	-0.091913
C	 1.5160582623	 1.8523883423	 0.1448579979	-0.382987
C	 2.0719752293	 0.5357837004	 0.5698838621	 0.306393
C	 1.1053578573	-0.3957620496	 0.6817277797	 0.245196
O	-0.147486803	 0.0266466711	 0.3695807008	-0.288146
C	 1.7741382286	-1.5518288095	 1.1396235927	-0.108102
N	 3.0647885327	-1.3022865443	 1.2868481881	-0.140601
O	 3.2610020463	 0.041089996	 0.9249899677	-0.216922
H	-0.706955927	 2.0211221681	 0.3327872778	 0.131641
H	-0.1524784575	 1.3564028101	-1.2219682412	 0.129271
H	 1.98284672	 2.2768631666	-0.74872647	 0.138097
H	 1.5660178313	 2.6084612981	 0.9371169991	 0.137437
H	 1.4056563869	-2.5403705984	 1.3687510422	 0.140635
78.5342	200.1948	322.9885	432.5662	608.7712	624.1654	673.8062	731.1341	770.4616	832.9566	876.7781	886.7346	926.8195	961.9833	978.66	1073.5155	1147.7009	1190.5234	1198.2346	1238.9385	1269.046	1363.4271	1372.9215	1431.1202	1490.8201	1511.7561	1527.1417	1686.25	3035.0615	3057.1945	3080.9411	3122.8136	3256.0881
C1CC2=C(O1)C=NO2	C1Cc2c(O1)cno2	
InChI=1S/C5H5NO2/c1-2-7-5-3-6-8-4(1)5/h3H,1-2H2	InChI=1S/C5H5NO2/c1-2-7-5-3-6-8-4(1)5/h3H,1-2H2
