17
gdb 106125	2.6146	1.48595	1.17272	2.0932	67.62	-0.2254	0.061	0.2865	1073.6863	0.134974	-458.870811	-458.862582	-458.861638	-458.9039	30.886	
O	 0.5571670907	 0.1663386186	 0.9152926204	-0.420548
C	-0.1367013289	 0.5164708009	-0.275237029	-0.249377
C	-1.4609531517	-0.16501675	-0.2236660712	 0.336207
C	-2.4794814832	-0.3741490087	 0.836390159	 0.034968
O	-3.5965291235	 0.0908128975	 0.0654863245	-0.297972
C	-2.7714569171	-0.1585490663	-1.1018512195	-0.057037
C	-2.6823112762	-1.714011502	-1.1658271857	 0.112767
O	-1.8479776321	-2.178757751	-2.2082937343	-0.434555
C	-1.8776722055	-1.596384595	 0.1177900672	-0.168961
H	 1.443275438	 0.5360445314	 0.8640070979	 0.292262
H	-0.2776589903	 1.6076958529	-0.3503316626	 0.09372
H	 0.4130449393	 0.1901533934	-1.1722057186	 0.102216
H	-2.4661982982	-0.217890613	 1.9061689394	 0.118147
H	-3.0145225627	 0.4566077106	-1.9678325107	 0.081276
H	-3.6426202068	-2.247581794	-1.1380451532	 0.069157
H	-2.3546800348	-2.1424637991	-3.0263140062	 0.284356
H	-1.3042121271	-2.3586774162	 0.6275236828	 0.103375
68.7025	138.9932	164.6705	216.6136	294.9189	314.0741	335.0564	418.0438	510.1207	577.9705	660.1989	770.4294	823.7887	858.5257	880.8196	890.3464	937.4968	971.9739	995.443	1022.4063	1052.634	1075.1484	1089.8206	1104.501	1117.5251	1166.2744	1203.2469	1205.3799	1230.8587	1249.345	1256.3775	1291.8753	1306.2833	1423.2332	1440.6815	1498.8896	1521.8057	2958.2905	2989.509	3007.3557	3127.3662	3213.3694	3222.8832	3809.0965	3834.5786
OCC12C3OC1C(O)C23	OC[C@@]12[C@H]3O[C@@H]1[C@@H](O)[C@@H]23	
InChI=1S/C6H8O3/c7-1-6-2-3(8)5(6)9-4(2)6/h2-5,7-8H,1H2	InChI=1S/C6H8O3/c7-1-6-2-3(8)5(6)9-4(2)6/h2-5,7-8H,1H2/t2-,3+,4+,5-,6-/m1/s1
