18
gdb 78201	2.99169	1.28594	1.06628	3.0528	77.23	-0.2418	0.0222	0.2641	1159.6744	0.148126	-398.083483	-398.074797	-398.073853	-398.116679	32.589	
C	-0.1012481899	 1.5205346728	 0.0457365429	-0.322614
N	 0.1031339991	 0.0869435697	-0.088896023	-0.077388
C	 0.6545432777	-0.5487153663	-1.2597338327	-0.037977
C	 1.3683398125	-0.5728165299	 0.0709407603	-0.049245
C	 2.552886854	 0.2557814685	-0.5083194698	-0.245166
C	 3.809470441	-0.4603103505	-0.5412920353	 0.275325
N	 4.8012702273	-1.053858002	-0.597547444	-0.329231
C	 1.7937211638	 0.2487466299	-1.9270572307	-0.009147
N	 2.3793762303	-0.4582723485	-3.0353844022	-0.503578
H	 0.6922178273	 2.1535439346	-0.3766741353	 0.110133
H	-1.0403712211	 1.784402582	-0.4486983889	 0.1348
H	-0.1973303658	 1.7605980763	 1.1085451818	 0.133484
H	 0.0829487575	-1.3177483952	-1.7691682481	 0.107338
H	 1.4764795434	-1.3612493116	 0.807419123	 0.115496
H	 2.7052101193	 1.2353929173	-0.0440168115	 0.116908
H	 1.525783579	 1.2555699208	-2.2616765346	 0.09435
H	 3.1956287062	 0.0293756347	-3.3910860794	 0.242405
H	 2.6925485383	-1.3846884527	-2.7581964625	 0.244107
99.9046	140.5396	161.8395	186.9546	239.1272	279.8583	341.5327	376.1129	452.289	511.6631	557.4744	600.2059	724.4404	764.4686	806.3464	873.7287	910.5875	915.4514	952.8486	986.4098	1042.2405	1064.2352	1078.4572	1124.6038	1153.5909	1161.5809	1182.2332	1209.1242	1243.8239	1269.3262	1271.3021	1329.2421	1386.7238	1424.2755	1458.0732	1498.4605	1499.0546	1662.8032	2346.1426	2999.4497	3057.4834	3065.5414	3080.2768	3115.9609	3166.8653	3178.7595	3494.4075	3573.8527
CN1C2C1C(C#N)C2N	CN1[C@@H]2[C@H]1[C@@H](C#N)[C@H]2N	
InChI=1S/C6H9N3/c1-9-5-3(2-7)4(8)6(5)9/h3-6H,8H2,1H3	InChI=1S/C6H9N3/c1-9-5-3(2-7)4(8)6(5)9/h3-6H,8H2,1H3/t3-,4+,5+,6-,9?/m0/s1
