20
gdb 91110	2.83438	1.81051	1.47444	0.2708	76.72	-0.2308	0.083	0.3138	970.3595	0.173943	-403.135484	-403.128261	-403.127317	-403.166923	29.392	
C	-0.2870206293	 1.5477072987	-0.0127415384	-0.411458
C	-0.0176766161	 0.0462043622	 0.0161133936	 0.034156
C	 0.766140816	-0.5108677379	-1.1963684039	-0.187418
N	 1.4233953687	-1.7603087341	-0.7423218661	-0.115552
C	 2.6230231959	-1.6197285861	 0.1102490493	-0.046977
C	 3.1024888501	-0.2471795521	 0.5328012483	-0.103718
O	 2.0466310126	 0.3520462193	 1.2811230933	-0.273474
C	 0.8573870478	-0.4449959109	 1.1886224044	 0.066418
C	 1.2959182364	-1.8344610673	 0.7265148073	-0.078337
H	 0.6529583283	 2.104644778	 0.0198701553	 0.130846
H	-0.8288895086	 1.8337388359	-0.9202250146	 0.111558
H	-0.892067177	 1.8586327977	 0.8455185636	 0.112624
H	-0.9709708887	-0.496639042	 0.0781703303	 0.07396
H	 0.1088998564	-0.7558599606	-2.0351490908	 0.106588
H	 1.5019717793	 0.2149199438	-1.5634245046	 0.103805
H	 3.3587739398	-2.4088635716	-0.0134490171	 0.097655
H	 3.9912371116	-0.3393924223	 1.1707584281	 0.106438
H	 3.3699583718	 0.3927101099	-0.3209031019	 0.103111
H	 0.3549724018	-0.4138522761	 2.1588788769	 0.077882
H	 0.9447202632	-2.7514215343	 1.1867916071	 0.091895
106.3172	219.381	238.9848	270.2815	335.7907	445.8592	507.1285	571.792	653.0213	741.3468	770.1577	791.2856	812.2243	854.1816	898.9368	934.5031	945.9914	956.2767	963.9216	996.3799	1017.8122	1060.6741	1072.9055	1093.5178	1128.1518	1141.659	1162.0252	1212.5918	1225.4769	1248.4626	1280.8908	1295.4071	1310.91	1328.7171	1343.0024	1357.4883	1375.2991	1406.9456	1413.9413	1495.0558	1504.9688	1507.3013	1531.409	2997.6016	3011.1753	3033.6181	3035.3252	3037.4717	3081.0629	3085.2797	3097.3832	3122.3167	3152.359	3170.1778
CC1CN2C3COC1C23	C[C@H]1CN2[C@H]3CO[C@@H]1[C@@H]23	
InChI=1S/C7H11NO/c1-4-2-8-5-3-9-7(4)6(5)8/h4-7H,2-3H2,1H3	InChI=1S/C7H11NO/c1-4-2-8-5-3-9-7(4)6(5)8/h4-7H,2-3H2,1H3/t4-,5-,6-,7-,8?/m0/s1
