16
gdb 25929	2.68931	1.63581	1.04073	2.8414	72.31	-0.2278	-0.0207	0.2072	1095.1749	0.126036	-434.146252	-434.138041	-434.137097	-434.179205	30.551	
C	-0.1456870245	 1.5035857522	 0.0494115543	-0.475733
C	-0.0323815688	 0.0189367195	-0.0129705637	 0.293383
C	-0.0530860382	-0.8318808946	-1.0811034634	-0.164429
N	 0.0808212849	-2.1522049445	-0.6904181503	-0.272517
C	 0.1689802459	-2.1147649385	 0.6070026764	 0.00663
N	 0.1019997602	-0.8203753722	 1.0996506583	-0.156604
C	 0.188037649	-0.4106641696	 2.4548610717	 0.470441
N	-0.049703445	-1.4230476307	 3.3480194925	-0.552593
O	 0.4784789987	 0.7181052889	 2.7737038948	-0.35918
H	 0.7532483117	 1.9635317421	 0.4669048578	 0.153971
H	-0.3042223415	 1.8856443125	-0.9622990027	 0.124866
H	-0.9832255169	 1.826744756	 0.6756383325	 0.137283
H	-0.1565455945	-0.5641977322	-2.1220094305	 0.114271
H	 0.3362195012	-2.9618363633	 1.2542221627	 0.135715
H	-0.6492080887	-2.1901073626	 3.0920915978	 0.269398
H	-0.0896961537	-1.1235699529	 4.3094334017	 0.275097
70.1867	140.3354	185.7795	221.1421	260.3099	335.23	419.1232	442.521	509.7927	532.8983	635.4935	673.0656	685.8702	699.7126	779.3209	807.7048	851.4711	925.1694	1013.7366	1069.1585	1095.0654	1138.3322	1154.8969	1238.9328	1274.5346	1313.5995	1359.1503	1416.9732	1425.4419	1472.2996	1481.2301	1530.9326	1614.7038	1620.6796	1827.3362	3045.7995	3105.8055	3128.1237	3248.484	3258.0649	3596.8727	3718.064
CC1=CN=CN1C(N)=O	Cc1cncn1C(=O)N	
InChI=1S/C5H7N3O/c1-4-2-7-3-8(4)5(6)9/h2-3H,1H3,(H2,6,9)	InChI=1S/C5H7N3O/c1-4-2-7-3-8(4)5(6)9/h2-3H,1H3,(H2,6,9)
