16
gdb 17726	4.52289	2.58629	2.08538	1.4502	67.4	-0.2159	0.0589	0.2747	683.1408	0.133648	-342.645553	-342.640228	-342.639283	-342.674556	22.857	
C	-0.0138766235	 1.4974064318	 0.0159291535	-0.15367
C	 1.5499326253	 1.7993671114	-0.1081671459	-0.376761
C	 1.9235393705	 0.3381683244	-0.1241322521	 0.342254
N	 2.9666825122	-0.749832702	-0.1055369664	-0.427399
C	 1.6166685275	-1.4780284017	-0.066589442	-0.078445
C	 1.0243663611	-0.4175558087	 0.880685322	-0.002035
N	-0.1666053791	-0.0081603323	 0.0487515276	-0.173259
C	 0.8750521955	-0.4469675931	-0.9537526761	-0.037028
H	-0.4352526519	 1.9181099834	 0.9323168055	 0.112655
H	-0.5740632701	 1.895454321	-0.8339310842	 0.110458
H	 1.7986647752	 2.3400117565	-1.0248728523	 0.106817
H	 1.9384903686	 2.3539242842	 0.7493512139	 0.114065
H	 3.3862535436	-0.8512384914	-1.0346137898	 0.209006
H	 1.5563937154	-2.5652246105	-0.0341616471	 0.090073
H	 1.0538567624	-0.3685444185	 1.9689488625	 0.086648
H	 0.7151191374	-0.4362185047	-2.0339544791	 0.07662
262.6238	372.6817	433.2398	485.2346	663.9893	738.0258	776.2463	800.1945	824.6689	834.2715	847.6661	861.4066	886.6274	905.2123	936.1183	964.2202	1017.0108	1023.4193	1084.3978	1100.4432	1112.5156	1133.526	1149.7324	1183.9079	1207.8835	1229.7216	1240.9454	1244.1965	1283.4302	1289.6205	1327.5618	1350.4811	1487.8576	1509.7108	3060.9573	3069.2972	3093.9626	3105.5555	3117.7688	3123.7614	3131.2794	3393.1376
C1CC23NC4C2N1C34	C1C[C@@]23N[C@H]4[C@@H]2N1[C@@H]34	
InChI=1S/C6H8N2/c1-2-8-4-3-5(8)6(1,4)7-3/h3-5,7H,1-2H2	InChI=1S/C6H8N2/c1-2-8-4-3-5(8)6(1,4)7-3/h3-5,7H,1-2H2/t3-,4-,5+,6+
