19
gdb 51345	4.87661	0.92987	0.89619	2.7273	80.79	-0.2463	-0.0187	0.2276	1334.5401	0.158946	-385.820151	-385.812358	-385.811413	-385.853591	29.62	
O	-0.5932401473	 1.0139530611	 0.9319899899	-0.239736
C	-0.0161982205	 1.1114765617	-0.120325462	 0.164769
C	 1.3637729516	 1.700373863	-0.3057333492	-0.311528
C	 1.3455230885	 2.8730345598	-1.2899355391	-0.023173
C	 0.8677204276	 4.2626964622	-0.8091279906	-0.04
C	 2.2377259839	 4.5914493017	-0.1129513759	-0.040423
C	 2.3647131428	 5.9433599655	-0.8417814281	-0.265752
C	 1.736295518	 5.0013311375	-1.8856260331	-0.040613
C	 2.5920912273	 3.7765837193	-1.4083923412	-0.056228
H	-0.4955953563	 0.7658722266	-1.0675903435	 0.068407
H	 1.7520505009	 1.9941971355	 0.6732439042	 0.118742
H	 2.0100540926	 0.9068889477	-0.7098430188	 0.115553
H	 0.9236043734	 2.5602016479	-2.2545349687	 0.066976
H	-0.1193043158	 4.5704380239	-0.4596860915	 0.077591
H	 2.5214485038	 4.3397020318	 0.9092078668	 0.077256
H	 1.7364891833	 6.7611887907	-0.4746665646	 0.094793
H	 3.3795087236	 6.2999107833	-1.045836325	 0.092965
H	 1.4364998203	 5.2047018877	-2.9150579162	 0.070872
H	 3.5955893522	 3.5189053631	-1.7530556136	 0.069529
46.396	71.115	161.7751	235.9107	319.5246	431.5608	453.2003	564.2387	727.2316	735.3575	807.0798	844.9769	851.3353	874.84	885.1046	903.5219	926.6752	965.3895	1003.9629	1027.681	1030.7112	1037.2782	1080.2288	1099.1908	1128.8844	1141.6145	1148.309	1159.4672	1180.0578	1191.8992	1204.3297	1233.6149	1249.6849	1280.4868	1297.8954	1317.7906	1407.5329	1429.0103	1462.368	1510.5423	1834.4838	2845.0659	3006.8794	3016.6616	3038.207	3089.6928	3095.2088	3095.9834	3099.6609	3104.5316	3114.9347
O=CCC1C2C3CC2C13	O=CC[C@H]1[C@H]2[C@@H]3C[C@H]2[C@H]13	
InChI=1S/C8H10O/c9-2-1-4-7-5-3-6(7)8(4)5/h2,4-8H,1,3H2	InChI=1S/C8H10O/c9-2-1-4-7-5-3-6(7)8(4)5/h2,4-8H,1,3H2/t4-,5-,6+,7-,8+
