20
gdb 87758	4.55235	0.85932	0.83669	2.6702	81.44	-0.2357	-0.0207	0.215	1435.1385	0.169051	-403.113968	-403.104773	-403.103829	-403.148735	33.821	
C	 0.2190544926	 1.3502079816	-0.4199016296	-0.318379
N	 0.2503056341	-0.0637317131	-0.0715765951	-0.127948
C	 1.5516687176	-0.6299315727	 0.2869067759	-0.318062
C	 0.4952759835	-0.4152640789	 1.3103333818	 0.391862
C	 0.5918124218	 0.5007041608	 2.5406672394	-0.335255
C	 0.0549066657	-0.6848582714	 3.4167896794	-0.085968
C	-0.2938627533	-1.4623987846	 2.0980530784	-0.327688
C	 1.1401443787	-1.3528522895	 4.2136419681	 0.171707
O	 1.0821079388	-1.6093132905	 5.3887953568	-0.257493
H	 0.9373588098	 1.9654516488	 0.1460187256	 0.102868
H	 0.4430441325	 1.4593347043	-1.4853554457	 0.12794
H	-0.7861566318	 1.746495947	-0.2432284849	 0.123797
H	 1.7591224187	-1.6248023277	-0.1001146303	 0.116976
H	 2.4116313009	 0.039905484	 0.3126950034	 0.10684
H	 1.578147482	 0.8930207848	 2.8040482503	 0.112995
H	-0.1169427802	 1.333206019	 2.5173756893	 0.118572
H	-0.7818215976	-0.4548794545	 4.07675213	 0.093505
H	-1.3643017322	-1.4378915393	 1.87933648	 0.1209
H	 0.0538294829	-2.4973959795	 2.0345272381	 0.112738
H	 2.0482661554	-1.6102799586	 3.6154892991	 0.070091
38.0223	71.0779	161.5344	194.1458	215.4758	296.0088	316.4707	369.7021	402.4764	427.4595	461.8708	603.9496	738.9189	828.9685	854.9376	868.6467	892.1968	905.6389	913.8547	989.13	1036.2118	1051.6664	1095.4088	1111.1592	1116.4526	1139.8681	1169.0191	1195.0056	1201.701	1214.6313	1233.7162	1261.8339	1268.6892	1313.6017	1412.5326	1430.2396	1447.6964	1466.9674	1487.8485	1492.3401	1496.0294	1511.9275	1831.3487	2836.6777	2970.958	3052.4751	3058.1428	3068.8861	3079.7547	3100.8682	3104.7541	3109.2466	3117.9618	3168.8692
CN1CC11CC(C1)C=O	CN1C[C@]21C[C@@H](C2)C=O	
InChI=1S/C7H11NO/c1-8-5-7(8)2-6(3-7)4-9/h4,6H,2-3,5H2,1H3	InChI=1S/C7H11NO/c1-8-5-7(8)2-6(3-7)4-9/h4,6H,2-3,5H2,1H3/t6-,7-,8?
