18
gdb 112078	2.28357	1.45951	1.0778	2.9302	74.3	-0.2438	0.0031	0.2468	1152.1729	0.147978	-439.11088	-439.102191	-439.101247	-439.144778	31.604	
O	 0.191704044	 1.4064285865	 0.1232001379	-0.411675
C	 0.1001485855	 0.0009166989	 0.1018928485	-0.073012
C	-1.352443095	-0.5065260401	 0.0029736292	-0.060191
C	-2.2492232534	-0.0014237476	 1.1047610907	-0.047
C	-3.2664940449	 0.7118023238	 0.6345782534	-0.093639
C	-3.2391164469	 0.7962749048	-0.8653585671	-0.205969
N	-2.0400746331	 0.0150499311	-1.1947238575	-0.06896
C	-1.8222484054	-0.4301020028	-2.4600322849	 0.135904
O	-2.4789594907	-0.102739156	-3.427212588	-0.33501
H	-0.2214066188	 1.7305452518	-0.6850985887	 0.289022
H	 0.6879426162	-0.4342198194	-0.7223096142	 0.094437
H	 0.5390485759	-0.3583645439	 1.0392571419	 0.114912
H	-1.3183927921	-1.6073505417	-0.0147008241	 0.095988
H	-2.0345819431	-0.2060494109	 2.1459086456	 0.112996
H	-4.039054334	 1.1894744954	 1.223293886	 0.114275
H	-4.1237719458	 0.3593272221	-1.3464340744	 0.136845
H	-3.1632463467	 1.8278638013	-1.2348041904	 0.126891
H	-0.9637425318	-1.1289135635	-2.5208480237	 0.074185
66.827	94.3999	137.3766	210.2873	229.7012	291.2468	335.1763	376.6348	402.8446	530.2238	622.3535	701.9252	763.7537	834.853	851.3036	895.7674	964.4148	969.3743	978.1367	1030.3278	1037.663	1060.4189	1099.7238	1140.1791	1187.2239	1195.4243	1219.3554	1285.2376	1324.6053	1332.1411	1371.3682	1388.4134	1406.7205	1420.6353	1442.3999	1500.7475	1514.3471	1698.0341	1791.6275	2929.5239	2970.1886	2985.29	3013.7372	3038.6576	3072.147	3209.1929	3232.4034	3800.435
OCC1C=CCN1C=O	OC[C@H]1C=CCN1C=O	
InChI=1S/C6H9NO2/c8-4-6-2-1-3-7(6)5-9/h1-2,5-6,8H,3-4H2	InChI=1S/C6H9NO2/c8-4-6-2-1-3-7(6)5-9/h1-2,5-6,8H,3-4H2/t6-/m1/s1
