21
gdb 108823	3.2176	1.00268	0.84425	2.9331	81.17	-0.2493	0.0031	0.2524	1428.031	0.182537	-424.242894	-424.233443	-424.232499	-424.277472	35.717	
C	-0.0629516618	 1.5321828652	 0.3963589588	-0.375079
C	-0.0784803569	 0.1593780577	-0.300550157	-0.288531
C	-1.4070698652	-0.5342877802	-0.2207061087	 0.335392
C	-2.2312525011	-0.7885093857	-1.2464860723	-0.236705
C	-3.4561840132	-1.5446583094	-0.8213513565	 0.048877
O	-3.3957975789	-2.9427033587	-1.1698755856	-0.443795
C	-3.4576804886	-1.369637346	 0.72772712	 0.129591
O	-4.0065574269	-2.4800194646	 1.3908377295	-0.444977
C	-1.980978179	-1.0521565176	 1.0833481819	-0.344966
H	 0.9233980856	 1.9968969752	 0.307219178	 0.118135
H	-0.7983103837	 2.2060647378	-0.0538004714	 0.123484
H	-0.2951414879	 1.4455312922	 1.4619246481	 0.124411
H	 0.2040843171	 0.2824086062	-1.3520709009	 0.10402
H	 0.6889824281	-0.4781876495	 0.1598910584	 0.106505
H	-2.0281496493	-0.5406322441	-2.2833169289	 0.091921
H	-4.3878973544	-1.1913755397	-1.2723298452	 0.088596
H	-2.4645555457	-3.1926467732	-1.1728141493	 0.281258
H	-4.067907228	-0.4913036227	 0.9722427097	 0.083236
H	-3.9568402264	-3.2030785263	 0.7466631406	 0.281656
H	-1.4598605262	-1.9611391276	 1.4126429008	 0.108113
H	-1.8973911376	-0.3350456589	 1.9065210301	 0.108859
60.4727	85.5713	124.7109	196.7562	227.3698	299.5282	316.7697	332.8554	431.7415	489.9763	501.237	544.2299	563.0107	618.9896	733.4839	789.8882	814.4807	857.889	874.759	942.2413	965.3526	990.8578	1034.0694	1071.7139	1079.5575	1092.0865	1123.1734	1166.7209	1189.8596	1223.7813	1260.8822	1271.7011	1298.8108	1315.7019	1345.8417	1354.1768	1382.8931	1407.6569	1415.9278	1446.4469	1481.2005	1483.6892	1498.203	1508.3854	1695.3683	3012.5612	3021.7142	3027.3575	3041.2406	3062.1173	3070.0291	3074.629	3112.3994	3115.3248	3183.0619	3697.0862	3797.0627
CCC1=CC(O)C(O)C1	CCC1=C[C@@H](O)[C@@H](O)C1	
InChI=1S/C7H12O2/c1-2-5-3-6(8)7(9)4-5/h3,6-9H,2,4H2,1H3	InChI=1S/C7H12O2/c1-2-5-3-6(8)7(9)4-5/h3,6-9H,2,4H2,1H3/t6-,7+/m1/s1
