20
gdb 36854	4.43757	0.92984	0.89065	2.6057	79.62	-0.2455	0.081	0.3265	1376.6756	0.171304	-403.081511	-403.073103	-403.072159	-403.115616	31.652	
C	-0.0811290543	 1.4845588138	 0.4163978749	-0.344432
C	-0.1489059247	-0.0141432821	 0.2146727439	 0.102871
C	-1.3155226722	-0.6768311286	-0.3797764778	-0.182037
O	-0.1138772266	-0.4956180885	-1.1297233078	-0.226729
C	 1.3135977881	 2.0254125277	 0.2517855828	 0.369785
C	 2.5249658556	 1.6908909447	 1.147939518	-0.295036
C	 3.0566149898	 3.1458391163	 0.9260550538	-0.235263
C	 1.8373378728	 3.4217432771	 0.0358387055	-0.099639
N	 1.7562463514	 2.4671455319	-1.0650137841	-0.340733
H	-0.7419118816	 1.9783741727	-0.302364232	 0.11711
H	-0.4479290646	 1.712263073	 1.4269084054	 0.099032
H	 0.4622783662	-0.6012215007	 0.9040049011	 0.089662
H	-1.5532292734	-1.7057710919	-0.1121938186	 0.111251
H	-2.1638173388	-0.0753014035	-0.7051770222	 0.112829
H	 2.2545825046	 1.5081436849	 2.1916466742	 0.103593
H	 3.1558164488	 0.8647975205	 0.8028783951	 0.099931
H	 3.0640620238	 3.7289536276	 1.8501479808	 0.10652
H	 4.0312388195	 3.2545294393	 0.4379805834	 0.098263
H	 1.3098272614	 4.3636842385	-0.0702105058	 0.090789
H	 2.6634333841	 2.0908561373	-1.3362339705	 0.222232
48.2769	61.8194	126.0285	217.1605	313.807	354.5905	361.1381	441.7955	478.283	701.8612	754.121	782.712	785.0901	835.9832	864.2497	919.5061	926.2561	946.0687	953.4606	970.397	1024.7612	1048.3376	1063.6525	1097.2435	1115.3164	1139.1428	1158.7279	1172.2083	1183.5857	1202.589	1226.7	1241.4614	1258.7892	1278.0898	1296.5446	1314.0535	1329.2296	1433.1354	1453.0184	1456.2508	1479.4694	1501.0414	1531.3172	3017.0638	3039.5588	3047.9099	3076.1505	3080.9151	3090.0681	3096.0149	3108.8718	3164.3098	3169.4331	3456.1734
C(C1CO1)C12CCC1N2	C([C@H]1CO1)[C@]12CC[C@H]1N2	
InChI=1S/C7H11NO/c1-2-7(6(1)8-7)3-5-4-9-5/h5-6,8H,1-4H2	InChI=1S/C7H11NO/c1-2-7(6(1)8-7)3-5-4-9-5/h5-6,8H,1-4H2/t5-,6+,7+/m0/s1
