16
gdb 96629	3.63543	0.95021	0.75705	5.1718	72.17	-0.2527	-0.0562	0.1965	1438.6368	0.122916	-471.264432	-471.254638	-471.253694	-471.299666	33.609	
C	-0.0991021112	 1.3303399904	 0.1520247711	-0.346973
N	-0.0124963379	-0.1112714618	 0.0156390331	-0.312644
C	 0.6091843171	-0.5798329718	-1.0012496249	 0.293636
N	 1.2402554008	 0.0793206308	-2.0049991371	-0.549233
C	 0.7123931561	-2.093308258	-1.1576054139	 0.42126
O	 1.2543937773	-2.592242811	-2.1167252648	-0.33941
N	 0.121466214	-2.7566465639	-0.1009326629	-0.353952
C	 0.0152776898	-4.1263579601	 0.101055281	 0.162777
O	 0.4336752804	-4.9874741706	-0.6230540038	-0.256952
H	 0.8956429822	 1.8004680078	 0.1931813662	 0.121736
H	-0.6477352783	 1.7922420166	-0.6844512149	 0.116647
H	-0.6291738991	 1.5820081205	 1.0729893349	 0.132144
H	 1.1102979279	 1.0647636484	-2.1451372963	 0.266173
H	 1.5808236443	-0.4883203813	-2.7664167719	 0.281563
H	-0.2769452706	-2.116499456	 0.582167629	 0.272431
H	-0.5225904727	-4.3313435901	 1.0481730752	 0.090796
68.04	94.0223	129.4214	141.5868	192.3964	221.4011	230.034	254.743	310.7209	376.0517	493.0017	543.444	594.1264	622.8309	767.271	786.1849	822.0541	940.6741	991.2648	1033.1365	1106.1574	1106.9772	1115.5832	1176.0363	1213.5408	1370.3209	1433.0934	1443.0354	1490.0101	1501.7499	1528.5841	1599.5891	1736.5267	1792.2769	1862.4189	2936.005	2970.0505	3016.6151	3111.5292	3501.9007	3592.2146	3737.2864
CN=C(N)C(=O)NC=O	CN=C(N)C(=O)NC=O	
InChI=1S/C4H7N3O2/c1-6-3(5)4(9)7-2-8/h2H,1H3,(H2,5,6)(H,7,8,9)	InChI=1S/C4H7N3O2/c1-6-3(5)4(9)7-2-8/h2H,1H3,(H2,5,6)(H,7,8,9)
