19
gdb 47600	2.2738	1.88301	1.1656	2.2495	74.36	-0.2321	-0.0221	0.21	1066.4473	0.160822	-423.032829	-423.025113	-423.024169	-423.065632	29.814	
O	-0.2251215294	 0.5739353389	 1.2545876528	-0.308315
C	-0.1286094307	 1.4043637716	 0.3816248326	 0.324451
C	-1.374263971	 1.9724373067	-0.3072787909	-0.172908
O	-1.1188612063	 3.0873267294	-1.1364187808	-0.240742
C	-0.293373392	 4.0422641856	-0.4758185129	-0.115986
C	 1.1346743102	 3.5035411857	-0.3811363204	 0.003006
C	 1.9745715194	 3.7300651988	 0.911133758	-0.242446
C	 2.2665483056	 2.2019126063	 0.9841012164	-0.22993
C	 1.1909546957	 1.9668066756	-0.1073593682	-0.106589
H	-1.8138487731	 1.1915740905	-0.937969682	 0.138531
H	-2.1068232824	 2.2113442042	 0.4814559342	 0.119231
H	-0.3533945441	 4.96215126	-1.0634378184	 0.114341
H	-0.6976556181	 4.2585847212	 0.5276572115	 0.090086
H	 1.6933100439	 3.7600375991	-1.2846309532	 0.080422
H	 2.8386439216	 4.3914191489	 0.8214855407	 0.105097
H	 1.3606360579	 4.0804245175	 1.7469017049	 0.105775
H	 3.2721821334	 1.9411626537	 0.6478553205	 0.104958
H	 2.0738439808	 1.7024964499	 1.9350318769	 0.124515
H	 1.4954316387	 1.3579822066	-0.9665675316	 0.106502
64.9055	78.1439	241.7451	281.3892	346.873	413.2289	470.354	483.9841	549.4989	650.3312	689.1757	713.1373	778.186	873.5979	937.5429	950.5775	955.4444	959.0604	976.8894	1005.5833	1076.6601	1108.5321	1125.923	1135.1934	1173.466	1197.2056	1227.1067	1241.9638	1259.5164	1263.8982	1277.6044	1311.9622	1324.5935	1348.1093	1361.0314	1400.3983	1456.858	1481.1816	1495.126	1503.379	1813.5462	2961.983	2978.2943	3041.4257	3054.2281	3068.9668	3072.1685	3076.2598	3092.7129	3110.8265	3133.0058
O=C1COCC2CCC12	O=C1COC[C@H]2CC[C@@H]12	
InChI=1S/C7H10O2/c8-7-4-9-3-5-1-2-6(5)7/h5-6H,1-4H2	InChI=1S/C7H10O2/c8-7-4-9-3-5-1-2-6(5)7/h5-6H,1-4H2/t5-,6-/m1/s1
