14
gdb 54069	2.07698	1.16008	0.89603	1.8253	65.12	-0.2859	-0.0664	0.2195	1291.9316	0.096707	-473.857801	-473.848077	-473.847133	-473.894911	31.642	
C	 0.7744277276	 0.1930117922	-0.520259441	-0.484686
C	-0.5572031041	 0.4089713009	 0.1473022662	 0.378462
O	-1.0053674875	 1.4732367771	 0.4785877915	-0.268255
C	-1.4061510925	-0.8743058074	 0.4313990017	-0.129487
O	-1.3320407257	-1.7493816648	-0.6921497329	-0.184442
C	-2.4956496724	-2.2885489546	-1.1572418856	 0.182427
O	-2.5161565748	-3.0156356113	-2.0960584667	-0.242625
C	-0.9019550772	-1.5509430473	 1.6327199296	 0.283331
N	-0.4794272125	-2.0591628363	 2.5803104803	-0.295677
H	 1.3817372308	-0.5000736179	 0.0726186968	 0.168853
H	 0.6303244274	-0.2735923776	-1.4992658698	 0.173926
H	 1.287760212	 1.1484432257	-0.6257944801	 0.157453
H	-2.4328901744	-0.5365290412	 0.610455485	 0.15695
H	-3.3784039867	-1.9662637674	-0.5749091851	 0.103769
23.4645	35.9496	127.4293	128.8215	137.4649	158.3611	259.3378	322.6909	384.4762	432.8235	515.9275	542.7745	603.8187	715.4441	816.4941	950.6683	996.0152	1034.1106	1048.843	1071.9328	1133.8783	1213.8917	1254.3941	1343.3129	1387.3171	1431.4003	1458.7793	1466.2371	1841.6353	1886.6326	2358.5908	2975.5687	3048.4383	3061.6112	3113.8452	3166.9835
CC(=O)C(OC=O)C#N	CC(=O)[C@@H](OC=O)C#N	
InChI=1S/C5H5NO3/c1-4(8)5(2-6)9-3-7/h3,5H,1H3	InChI=1S/C5H5NO3/c1-4(8)5(2-6)9-3-7/h3,5H,1H3/t5-/m0/s1
