20
gdb 116926	4.12586	0.60699	0.55311	1.0646	88.14	-0.2412	0.0279	0.2692	2042.4276	0.168748	-403.078307	-403.06782	-403.066875	-403.115831	36.15	
C	 0.7781456086	 1.3505468977	-0.2717245259	-0.218147
O	 0.9019748301	-0.0444950677	-0.4185441077	-0.227908
C	-0.3145045599	-0.6445843348	-0.8242424379	-0.206073
C	-0.1474991874	-2.0834425593	-0.966324248	 0.024413
C	-0.0388875494	-3.2751560108	-1.1033033678	 0.217376
C	 0.1047231712	-4.6987753077	-1.2222918081	-0.266366
N	 0.0562824662	-5.2882600804	-2.5870877465	-0.321966
C	 1.3144779878	-5.3393988714	-1.8382741011	 0.021857
C	 2.4696491794	-4.5374879018	-2.3799813988	-0.396199
H	 0.490925307	 1.8394208962	-1.2166575455	 0.104464
H	 0.0304720054	 1.6185454498	 0.4922792018	 0.103641
H	 1.753479671	 1.73054909	 0.0402229627	 0.130306
H	-1.1099462367	-0.4317801041	-0.088065008	 0.113088
H	-0.6534082249	-0.2130970629	-1.7826778647	 0.11654
H	-0.3735640297	-5.2676387199	-0.4271737928	 0.104261
H	-0.4242016183	-6.1834860302	-2.5435826852	 0.233148
H	 1.5872098559	-6.2978821831	-1.3970813699	 0.086323
H	 2.1229644097	-3.5754669619	-2.7624191855	 0.14253
H	 3.2118158578	-4.3520262517	-1.5966000364	 0.120486
H	 2.9610492962	-5.078174426	-3.1956794346	 0.118227
23.6769	60.1618	71.9946	125.8613	156.2289	197.4324	230.0435	280.1665	330.8891	378.1158	389.6804	444.2742	555.314	608.095	759.9402	786.1807	863.8588	923.6737	974.1816	983.9707	1010.8615	1026.8859	1069.7627	1123.4665	1146.236	1163.1818	1182.5165	1209.1789	1219.9593	1247.2013	1254.393	1267.2426	1393.7348	1409.9026	1423.0274	1453.1692	1477.856	1484.2935	1487.2515	1494.4757	1495.8325	1515.6687	2367.7949	2942.4205	2959.9045	2967.1187	3008.9983	3039.6678	3102.0788	3103.7368	3119.419	3121.2397	3139.6198	3500.1434
COCC#CC1NC1C	COCC#C[C@H]1N[C@H]1C	
InChI=1S/C7H11NO/c1-6-7(8-6)4-3-5-9-2/h6-8H,5H2,1-2H3	InChI=1S/C7H11NO/c1-6-7(8-6)4-3-5-9-2/h6-8H,5H2,1-2H3/t6-,7+/m0/s1
