14
gdb 105578	2.06853	1.5705	1.34338	3.1001	62.44	-0.2826	-0.0417	0.2409	1023.8734	0.099316	-473.83075	-473.822127	-473.821183	-473.864459	29.712	
C	-0.0438683213	 1.457581509	-0.0164934975	-0.27722
O	 0.0903560322	 0.032588779	 0.0333794821	-0.271161
C	 0.6859182436	-0.5387697807	-1.0879017119	 0.094635
C	 0.4950444005	-2.0710284449	-1.133602338	-0.116581
O	-0.3220710251	-1.9514059012	-2.3414140619	-0.227331
C	-0.2198125649	-0.59252848	-2.3693265598	 0.42933
O	-0.724819074	 0.1821064061	-3.1097479176	-0.306012
C	 2.0543926813	-0.0629851697	-1.3320092459	 0.241228
N	 3.1280189948	 0.3182507879	-1.5244872076	-0.323385
H	 0.9381352283	 1.9435403233	-0.060219575	 0.145138
H	-0.6442985111	 1.7667331538	-0.8781417179	 0.153765
H	-0.5488831798	 1.7392807597	 0.9078301622	 0.14771
H	 1.3861489385	-2.6697156564	-1.3194346936	 0.154608
H	-0.090077793	-2.4482286459	-0.2949332075	 0.155275
104.9437	114.5901	123.6617	170.0544	174.519	251.9209	307.3741	383.0085	434.5361	539.6841	602.8357	674.7009	748.3655	786.527	895.3315	954.306	1010.4641	1054.2285	1116.29	1149.2304	1183.9588	1187.8431	1212.6065	1240.6649	1348.8206	1478.7042	1488.3017	1501.6545	1508.7179	1945.5463	2354.0594	3026.6599	3096.3783	3100.1625	3152.1353	3171.7889
COC1(COC1=O)C#N	CO[C@]1(COC1=O)C#N	
InChI=1S/C5H5NO3/c1-8-5(2-6)3-9-4(5)7/h3H2,1H3	InChI=1S/C5H5NO3/c1-8-5(2-6)3-9-4(5)7/h3H2,1H3/t5-/m0/s1
