19
gdb 53338	4.48468	0.80101	0.76842	1.7503	84.11	-0.2414	0.0565	0.2978	1552.1585	0.159067	-385.860471	-385.851469	-385.850525	-385.896804	32.326	
C	-0.0825446029	 1.4604839582	 0.1160299024	-0.497719
C	-0.0200024134	 0.0062692775	 0.0746257921	 0.068165
C	 0.0338083137	-1.1966091851	 0.0377236542	 0.065692
C	 0.0853449667	-2.6513862158	 0.0106520064	-0.152747
C	 0.6833181988	-3.3019022826	 1.3031435327	-0.246885
C	-0.0503424949	-4.6244077982	 1.4453239108	 0.033407
O	-1.3792183955	-4.4698687656	 1.9581345961	-0.249437
C	-1.2156361399	-4.6489564905	 0.5460664513	 0.033408
C	-1.2987876181	-3.3436577991	-0.2264456499	-0.246884
H	 0.5106323149	 1.9094724123	-0.6884927244	 0.145655
H	-1.1124055153	 1.8182699879	 0.0063541436	 0.147212
H	 0.30158713	 1.8488545368	 1.065908112	 0.147196
H	 0.73357788	-2.9569981984	-0.8210145651	 0.101709
H	 1.7642993756	-3.4370851783	 1.209741065	 0.105427
H	 0.4970794841	-2.6775503585	 2.1812335661	 0.125993
H	 0.4705965856	-5.5223351074	 1.7695984867	 0.094195
H	-1.6374061915	-5.5667432661	 0.1428513756	 0.094195
H	-2.1172959027	-2.7326315573	 0.1637247981	 0.125991
H	-1.4785538352	-3.5053970399	-1.2927677638	 0.105428
12.3079	43.2066	98.3966	150.9834	291.6199	315.0483	336.9265	396.0038	487.8839	515.2512	538.3932	704.2924	786.1818	786.7963	856.4401	885.013	917.712	936.8214	965.6591	1046.0479	1050.9374	1052.2244	1062.2657	1079.0712	1102.3355	1176.7782	1181.5894	1224.2074	1260.6363	1291.4485	1302.7475	1308.7499	1338.752	1362.2496	1414.9623	1429.6131	1478.0933	1478.9114	1479.0918	1485.995	2369.4285	3009.7486	3024.8485	3060.3334	3062.0782	3084.6503	3085.0979	3106.7081	3108.7647	3133.0084	3145.8506
CC#CC1CC2OC2C1	CC#C[C@H]1C[C@H]2O[C@H]2C1	
InChI=1S/C8H10O/c1-2-3-6-4-7-8(5-6)9-7/h6-8H,4-5H2,1H3	InChI=1S/C8H10O/c1-2-3-6-4-7-8(5-6)9-7/h6-8H,4-5H2,1H3/t6-,7+,8-
