16
gdb 124406	3.41528	1.20695	1.01599	4.3966	75.97	-0.2577	-0.0015	0.2562	1171.3798	0.124113	-396.891927	-396.883574	-396.88263	-396.925746	30.44	
C	-0.0215843795	 1.5502824437	 0.0073360378	-0.385506
C	-0.0299366772	 0.0122928807	 0.0815418065	-0.129857
C	 0.7470236778	-0.486347045	 1.2133534415	 0.315893
C	 1.4012975849	-0.8581204019	 2.1491924754	-0.440662
N	-1.403627386	-0.5020659786	 0.1220443546	 0.069815
C	-2.2219744043	-0.7263694706	 1.1771115529	-0.088525
C	-3.4097628648	-1.1075028184	 0.6012056098	-0.072347
N	-3.2637118945	-1.0939168902	-0.7521242226	-0.193972
N	-2.0488264395	-0.7242416239	-1.0417551198	-0.142512
H	 1.0047107276	 1.9099773146	-0.0978716285	 0.138088
H	-0.6070282757	 1.8738773905	-0.8560137663	 0.149792
H	-0.4511414743	 1.9810229487	 0.9151243467	 0.13586
H	 0.3848968382	-0.3876750696	-0.8494674779	 0.151142
H	 1.9841513339	-1.2032001706	 2.967872971	 0.211339
H	-1.8923170598	-0.6169474271	 2.1956725291	 0.154748
H	-4.3375198168	-1.3929193322	 1.06968803	 0.126704
35.9269	112.6567	160.3379	195.1192	238.1221	333.0542	378.0785	466.6866	540.9106	640.0598	661.8828	681.3561	719.1388	721.739	795.1123	862.5626	874.8435	962.8394	1002.9489	1047.9654	1068.129	1096.8222	1127.0968	1141.2449	1192.4285	1285.4766	1322.519	1334.2138	1366.316	1403.281	1487.7119	1492.4606	1495.4495	1518.2618	2245.3303	3053.9858	3065.9881	3136.9293	3143.1436	3271.5122	3299.2058	3500.459
CC(C#C)N1C=CN=N1	C[C@@H](C#C)n1ccnn1	
InChI=1S/C6H7N3/c1-3-6(2)9-5-4-7-8-9/h1,4-6H,2H3	InChI=1S/C6H7N3/c1-3-6(2)9-5-4-7-8-9/h1,4-6H,2H3/t6-/m0/s1
