20
gdb 120112	3.34783	0.91298	0.85347	2.6126	80.14	-0.2415	-0.0232	0.2184	1452.0236	0.170133	-403.123076	-403.114122	-403.113178	-403.157475	33.322	
C	-0.7845440005	 1.6242285981	 0.9184643497	-0.384115
C	-0.7238978719	 0.0975199593	 1.0066709218	-0.159916
C	 0.6606477002	-0.4207635021	 1.4221302683	-0.226478
C	 0.7280211231	-1.9352284247	 1.4349244427	 0.014907
C	 1.6663668583	-2.7704620847	 2.249022593	-0.199467
N	 0.13753549	-2.8163957191	 2.4469643203	-0.137402
C	 0.2977059731	-2.1388082618	 3.784155846	-0.295239
C	 1.8290985341	-2.194897536	 3.6251216393	 0.409292
O	 2.7567414095	-2.0613833423	 4.3698219243	-0.306176
H	-0.0674570037	 2.007273342	 0.1840202606	 0.117474
H	-1.7806134154	 1.9655724215	 0.6212383488	 0.11745
H	-0.5477765902	 2.087666824	 1.8826388249	 0.117661
H	-1.4746834331	-0.2651280337	 1.7199829736	 0.108256
H	-0.9956398028	-0.3404378876	 0.0374689702	 0.101952
H	 1.4145232922	-0.0648599287	 0.7078739165	 0.109847
H	 0.94533853	 0.0064786243	 2.3886256574	 0.111544
H	 0.5607412257	-2.36457023	 0.4465933542	 0.10798
H	 2.241335389	-3.5854913143	 1.8227104277	 0.119148
H	-0.2019967644	-1.1735656513	 3.8911140979	 0.129429
H	-0.0329056133	-2.8088139428	 4.5826920229	 0.143854
68.3439	84.8519	94.6869	182.4852	237.6093	301.5979	358.3539	391.2599	452.3455	529.7344	593.6786	658.9389	702.2787	749.3129	797.606	863.9188	893.1399	909.983	945.5531	966.4843	1006.8575	1025.0532	1051.0488	1068.5601	1109.89	1129.8396	1137.4437	1184.8672	1239.3586	1246.9627	1268.5432	1304.6204	1309.2444	1334.0953	1388.6856	1414.5729	1436.9317	1460.5284	1487.709	1494.9146	1499.6285	1510.4322	1889.761	3020.8821	3029.7848	3033.1421	3050.972	3066.99	3080.1052	3098.2505	3106.1854	3108.9204	3123.6221	3179.1722
CCCC1C2N1CC2=O	CCC[C@H]1[C@@H]2N1CC2=O	
InChI=1S/C7H11NO/c1-2-3-5-7-6(9)4-8(5)7/h5,7H,2-4H2,1H3	InChI=1S/C7H11NO/c1-2-3-5-7-6(9)4-8(5)7/h5,7H,2-4H2,1H3/t5-,7-,8?/m0/s1
