18
gdb 91255	3.80043	1.20501	0.97491	5.1964	82.75	-0.2183	-0.0169	0.2014	1205.1062	0.148726	-401.952281	-401.944289	-401.943345	-401.984954	30.263	
C	 0.167638499	 1.2727028858	-0.1938975799	-0.336908
N	 0.0366248226	 0.0538982755	 0.576005341	-0.128284
C	-1.1304045332	-0.889520081	 0.5091828358	-0.215949
C	-0.1285792262	-2.0219672164	 0.9278632694	-0.081326
C	 0.3311274524	-3.2811432759	 0.1921340697	-0.371631
C	 1.8379770041	-2.9668291517	-0.1321954524	 0.396006
O	 2.6258875285	-3.7915074867	-0.5348600251	-0.346069
C	 2.0406021212	-1.5059547951	 0.0026760414	-0.39675
C	 0.9023190191	-1.0115517642	 0.5289466233	 0.379671
H	 1.1203139603	 1.7514730082	 0.0471514389	 0.145838
H	 0.1344801164	 1.0863132925	-1.2784739233	 0.12188
H	-0.6373588106	 1.9634661834	 0.0704638754	 0.136276
H	-1.9500063975	-0.6474381068	 1.1905976038	 0.117838
H	-1.5062401138	-0.9942368609	-0.5164039268	 0.115743
H	-0.1735639752	-2.172747832	 2.0093035904	 0.109901
H	 0.2330046766	-4.2096117432	 0.7581597637	 0.121034
H	-0.1794655032	-3.4201445241	-0.7670954362	 0.127868
H	 2.8907789294	-0.9903845373	-0.418689089	 0.104864
100.2436	141.7645	150.1803	204.3205	269.5264	353.8297	447.6006	530.0486	551.8855	582.9299	627.5631	705.1968	780.6127	807.6697	834.0948	879.8042	902.695	974.0034	1039.406	1053.0154	1106.3835	1118.7234	1127.5715	1163.652	1183.3544	1198.5785	1208.1934	1238.3222	1265.1795	1293.0539	1353.3931	1365.6733	1451.0506	1463.5559	1486.8183	1498.3491	1504.6772	1691.3038	1809.1784	2988.2386	3025.0485	3057.2605	3075.4727	3086.5428	3101.0271	3118.4423	3125.853	3241.9525
CN1CC2CC(=O)C=C12	CN1C[C@H]2CC(=O)[CH][C]12	
InChI=1S/C7H9NO/c1-8-4-5-2-6(9)3-7(5)8/h3,5H,2,4H2,1H3	InChI=1S/C7H9NO/c1-8-4-5-2-6(9)3-7(5)8/h3,5H,2,4H2,1H3/t5-/m1/s1
