19
gdb 61272	3.36483	0.82234	0.69879	3.3399	78.4	-0.2495	-0.0206	0.2289	1611.7717	0.154169	-423.012098	-423.001188	-423.000244	-423.049334	38.17	
C	 0.1777478951	 1.404657763	 0.1035870767	-0.470925
C	 0.3265673208	-0.0926040275	-0.0951286124	 0.383096
O	 1.2353846327	-0.7142919167	 0.4094559083	-0.291236
C	-0.7391363144	-0.7640352693	-0.9527729563	-0.339704
C	-0.7093754093	-2.3001307475	-0.961976753	 0.139093
O	-1.9376604684	-2.8128867237	-1.4544419895	-0.427359
C	 0.504727844	-2.8509233612	-1.7376014268	-0.396625
C	 0.560366823	-4.3062393401	-1.7674182147	 0.312603
C	 0.6121320665	-5.5065218405	-1.7874227059	-0.44191
H	 1.0423535284	 1.7952740916	 0.6412900356	 0.145845
H	 0.0715402986	 1.9173274644	-0.8586391108	 0.136948
H	-0.7328618334	 1.6147423737	 0.6765513365	 0.145511
H	-1.7270543476	-0.4403408608	-0.6031117838	 0.130641
H	-0.6494845348	-0.3682074204	-1.9762430369	 0.113859
H	-0.6444747971	-2.6547274709	 0.070995591	 0.115853
H	-1.9470464361	-2.7098456318	-2.4123533899	 0.278702
H	 0.4749023972	-2.4603325086	-2.7667583908	 0.108703
H	 1.4112166194	-2.4481131704	-1.2741495249	 0.163384
H	 0.6563256954	-6.5670833732	-1.8018646023	 0.193523
31.1808	60.7906	99.1163	115.0277	146.5612	171.5594	234.3134	279.9394	346.348	352.1291	382.3331	442.6098	487.3762	542.1176	613.0203	620.4683	637.8867	794.9599	842.4334	875.8683	940.6085	948.7141	992.5926	1050.8424	1088.8908	1109.8096	1175.6063	1192.4979	1205.7078	1306.9602	1315.8711	1361.7743	1381.4908	1387.6851	1416.172	1445.6353	1463.579	1473.0045	1476.2205	1804.2257	2241.8474	2990.3035	3003.7436	3036.9962	3060.1069	3078.1061	3086.3221	3098.0488	3153.4867	3508.0704	3801.3319
CC(=O)CC(O)CC#C	CC(=O)C[C@@H](O)CC#C	
InChI=1S/C7H10O2/c1-3-4-7(9)5-6(2)8/h1,7,9H,4-5H2,2H3	InChI=1S/C7H10O2/c1-3-4-7(9)5-6(2)8/h1,7,9H,4-5H2,2H3/t7-/m0/s1
