21
gdb 63975	3.15442	1.2716	1.12784	1.5988	85.45	-0.2265	0.0156	0.242	1189.584	0.182451	-387.077029	-387.068402	-387.067457	-387.109772	34.312	
C	-0.0266861927	 1.5236748922	 0.1600630939	-0.451052
C	-0.0200979648	 0.0106553747	 0.0123044493	 0.278685
O	-1.3278699991	-0.4883146624	-0.2553952288	-0.477848
C	 1.0555969228	-0.6573565707	-0.9419033421	-0.30298
C	 1.2631830206	-1.7874927181	 0.1292247928	-0.037344
C	 2.5964525636	-2.1501133737	 0.8152414241	-0.243412
C	 2.3289063463	-1.835676636	 2.3255258555	-0.236411
C	 1.2384323097	-0.7670055575	 2.2728905056	-0.256081
C	 0.6213755718	-0.8336052762	 1.0989167543	 0.340908
H	 0.967482658	 1.9013636873	 0.4137114128	 0.118693
H	-0.3407731031	 2.0009135773	-0.7769414183	 0.104385
H	-0.7284013912	 1.8244086102	 0.9439752356	 0.127804
H	-1.6223852586	-0.0917499725	-1.0830600353	 0.275309
H	 0.678038067	-0.9591107873	-1.9233867454	 0.089979
H	 1.9437392572	-0.0303523604	-1.0604810791	 0.098396
H	 0.6514945061	-2.662838701	-0.1119407621	 0.082605
H	 2.9138501681	-3.1834304895	 0.648512587	 0.093278
H	 3.3981803476	-1.4978404227	 0.4496909892	 0.097563
H	 1.9989036142	-2.7311014671	 2.8710919907	 0.106458
H	 3.228430693	-1.4786413178	 2.839055764	 0.099619
H	 1.0820169836	-0.0396516988	 3.0613153261	 0.091446
108.3151	132.1679	229.1534	257.6987	278.431	308.5657	343.6871	362.1421	404.3272	493.5501	596.8975	609.6707	695.6408	772.8714	808.7131	838.0123	867.5442	888.4469	904.6819	914.6826	954.2988	962.6572	995.1801	1036.9675	1080.6374	1094.922	1113.4131	1167.5035	1178.8236	1193.1299	1208.2509	1230.4259	1247.4161	1274.1135	1303.9891	1331.1449	1334.5354	1381.2209	1404.8506	1459.9356	1480.6178	1485.667	1494.2222	1495.3382	1732.4306	3007.0169	3024.0369	3035.3247	3045.9807	3048.4879	3062.0106	3092.4417	3093.0799	3111.2297	3121.1084	3194.8546	3794.1663
CC1(O)CC2CCC=C12	C[C@@]1(O)C[C@H]2CC[CH][C]12	
InChI=1S/C8H12O/c1-8(9)5-6-3-2-4-7(6)8/h4,6,9H,2-3,5H2,1H3	InChI=1S/C8H12O/c1-8(9)5-6-3-2-4-7(6)8/h4,6,9H,2-3,5H2,1H3/t6-,8-/m1/s1
