20
gdb 82886	2.58206	1.92735	1.47761	2.0712	77.62	-0.232	0.0824	0.3144	966.5238	0.173154	-403.098991	-403.09161	-403.090665	-403.130188	30.881	
C	-0.0313630934	 1.5283799904	 0.1345956087	-0.502979
C	-0.0331500302	 0.0278566849	 0.0533362083	 0.325887
C	 0.6757031465	-0.7301645279	-1.1442962816	-0.099283
C	 1.8987312395	-0.7937469133	-0.2089347923	-0.174442
N	 0.9307431598	-0.8108630534	 0.9380024607	-0.216472
C	-0.1005935824	-1.9208543676	 0.601949841	-0.051156
C	 0.1006107018	-2.1428969738	-0.9117046072	-0.233269
C	-1.1886384255	-0.8266125792	 0.6158077417	 0.128426
O	-1.6103489884	-0.4018879562	 1.8887931575	-0.459958
H	 0.9701440311	 1.9491493836	 0.0020677206	 0.120756
H	-0.6756288929	 1.9474141501	-0.6468539192	 0.122128
H	-0.4212434626	 1.8548966671	 1.1028006455	 0.130589
H	 0.7149436539	-0.3398155733	-2.1625523869	 0.061355
H	 2.5703179777	-1.6554832693	-0.2848856673	 0.097171
H	 2.4878849205	 0.1250906825	-0.1619232146	 0.108207
H	-0.1326812065	-2.7755522648	 1.2766099373	 0.074991
H	-0.84250085	-2.3415002476	-1.4285573908	 0.100393
H	 0.8100856429	-2.9341467084	-1.1683264116	 0.099148
H	-2.0876009258	-0.9888230077	 0.0155531941	 0.077668
H	-0.809578656	-0.3137433961	 2.422900456	 0.290842
189.6405	200.4535	250.6963	290.698	360.522	419.6323	483.9747	500.3822	514.7599	621.2632	665.8946	754.4218	814.5995	840.1957	848.9489	890.3959	906.0567	930.3508	955.1959	978.8846	1006.0172	1020.6384	1052.6607	1070.2687	1111.1943	1126.709	1143.3004	1181.3734	1198.036	1216.7536	1234.4327	1253.3455	1271.0411	1280.2863	1291.0626	1317.3778	1322.2514	1413.1044	1445.9602	1482.5107	1489.9963	1503.8426	1522.02	3034.2289	3045.7931	3056.1639	3080.1092	3097.3133	3099.324	3102.1243	3110.9627	3116.4232	3126.4047	3766.0347
CC12C3CN1C(C3)C2O	C[C@@]12[C@H]3CN1[C@H](C3)[C@H]2O	
InChI=1S/C7H11NO/c1-7-4-2-5(6(7)9)8(7)3-4/h4-6,9H,2-3H2,1H3	InChI=1S/C7H11NO/c1-7-4-2-5(6(7)9)8(7)3-4/h4-6,9H,2-3H2,1H3/t4-,5-,6-,7+/m1/s1
