20
gdb 22081	3.2497	0.93164	0.87049	1.4576	80.5	-0.2379	-0.0008	0.2371	1430.5492	0.166854	-440.239211	-440.228837	-440.227893	-440.274416	37.986	
C	 1.145362685	 0.4467964806	 0.4152009743	-0.488494
C	-0.2574525801	-0.0542904624	 0.220742325	 0.334859
N	-1.2481749468	 0.2530442407	 0.9723084466	-0.175843
O	-0.8531365126	 1.054516524	 2.0501351728	-0.39429
C	-0.6308768404	-0.9203005067	-0.9379123711	-0.059686
O	 0.2821928177	-1.0001952046	-2.0384511603	-0.29295
C	 0.0051981237	-2.2086499354	-1.3097781502	 0.386363
C	 1.1574225366	-2.8066206341	-0.5327674438	-0.465163
C	-0.8279933511	-3.2146910305	-2.0776332654	-0.445399
H	 1.7425810484	 0.2577745672	-0.4763511052	 0.145106
H	 1.122083423	 1.5193908227	 0.6266018609	 0.145416
H	 1.6186143055	-0.0296260932	 1.2811538591	 0.14199
H	-1.6922700373	 1.234542692	 2.4872269665	 0.307604
H	-1.6779481116	-0.8061186181	-1.2176053067	 0.098134
H	 1.7479741656	-2.051657069	-0.0155472629	 0.13215
H	 0.7824785822	-3.5203707829	 0.2084564158	 0.125945
H	 1.8217401882	-3.3523582082	-1.21198411	 0.126197
H	-0.1995946305	-3.765615002	-2.7861964055	 0.124956
H	-1.2840898799	-3.9420082344	-1.3977828886	 0.123523
H	-1.6205315255	-2.7157398755	-2.6399406712	 0.129582
55.5783	125.8135	148.9631	163.7273	190.7914	209.4927	287.4939	304.0429	319.9467	359.2812	391.0772	411.6662	459.0873	496.1699	580.2232	680.7044	707.6987	801.0542	861.7831	921.5375	945.8433	981.062	1009.4294	1044.9345	1048.4949	1082.6731	1117.6547	1148.5035	1256.0562	1285.5819	1335.973	1386.4002	1396.6764	1408.0635	1419.6986	1449.2623	1472.8087	1481.1736	1485.727	1486.916	1501.2105	1511.4439	1711.7249	3034.4806	3042.6889	3043.187	3095.593	3100.9565	3101.8779	3112.9571	3127.1948	3157.632	3163.2078	3817.3158
CC(=NO)C1OC1(C)C	CC(=NO)[C@H]1OC1(C)C	
InChI=1S/C6H11NO2/c1-4(7-8)5-6(2,3)9-5/h5,8H,1-3H3	InChI=1S/C6H11NO2/c1-4(7-8)5-6(2,3)9-5/h5,8H,1-3H3/t5-/m1/s1
