20
gdb 20207	3.06777	2.58043	2.0372	0.1607	76.02	-0.2581	0.0797	0.3379	783.7186	0.181888	-311.885715	-311.879546	-311.878602	-311.915745	26.168	
C	-0.0232559002	 1.5598590448	-0.1257381871	-0.234683
C	 1.4621740576	 1.9883509485	-0.0114635204	-0.193718
C	 2.1666620681	 0.8626322721	 0.7837595587	-0.032122
C	 1.9525383609	 0.9809589349	 2.3121847658	-0.193719
C	 0.5500028745	 0.3821716457	 2.5906012823	-0.234684
C	 0.2898416031	-0.5527415503	 1.4106355667	-0.032908
C	 0.0006582025	 0.0413395302	 0.0403856916	-0.032908
C	 1.3965651187	-0.4173480283	 0.3913457275	-0.07585
H	-0.644387437	 2.0455432602	 0.6361768562	 0.098044
H	-0.4479401139	 1.8385658637	-1.0946087228	 0.09317
H	 1.8981809936	 2.0393792506	-1.0155022735	 0.093961
H	 1.5920526972	 2.9745512798	 0.4468074142	 0.087382
H	 3.2303229052	 0.8120156175	 0.5373497457	 0.06227
H	 2.7084759521	 0.3748403897	 2.8240220358	 0.093962
H	 2.0624678765	 2.0080585564	 2.676127237	 0.087383
H	 0.5292345116	-0.1688385282	 3.5354300916	 0.093171
H	-0.2150775728	 1.1634919674	 2.6705937846	 0.098045
H	-0.1474872084	-1.5252409285	 1.611453771	 0.074837
H	-0.6182294612	-0.5581769637	-0.6190816321	 0.074837
H	 1.8858886719	-1.2619930725	-0.0781262427	 0.073529
118.3318	252.3126	361.5771	439.2926	530.8922	675.4644	683.8417	707.3307	759.9556	796.7459	797.2009	854.5672	871.1142	909.2981	926.9175	952.6088	972.366	973.0501	993.6632	1024.4561	1036.9531	1091.4564	1094.4206	1098.3129	1156.4637	1176.6896	1177.6134	1224.4594	1232.4485	1282.8066	1283.4424	1292.6155	1314.9929	1316.0392	1335.4643	1359.3518	1360.246	1403.7388	1480.1354	1495.5914	1495.9905	1513.5202	3029.3666	3032.8983	3034.6377	3035.0497	3068.6579	3072.4394	3073.9208	3083.2648	3088.7952	3153.1092	3161.6195	3181.9358
C1CC2CCC3C1C23	C1C[C@H]2CC[C@H]3[C@@H]1[C@@H]23	
InChI=1S/C8H12/c1-3-6-7-4-2-5(1)8(6)7/h5-8H,1-4H2	InChI=1S/C8H12/c1-3-6-7-4-2-5(1)8(6)7/h5-8H,1-4H2/t5-,6+,7-,8+
