20
gdb 17674	3.98267	1.40981	1.25292	1.3036	75.23	-0.2419	0.0832	0.3251	1063.5975	0.175903	-348.977994	-348.969318	-348.968374	-349.010837	33.246	
C	-0.2006889826	 1.3712863232	-0.305358805	-0.403876
C	 0.1463152927	-0.076943047	-0.0430307144	-0.02789
C	 1.5942312092	-0.5264777354	 0.0662911895	-0.369899
C	 0.6923462211	-0.5326403395	 1.281436275	 0.398901
O	 0.885947085	 0.50755075	 2.211162768	-0.46777
C	 0.2218708787	-1.7993638698	 1.9291419175	-0.055915
C	 0.3895717063	-3.1610680599	 1.3114435045	-0.274699
C	 1.2179201211	-2.7805734007	 2.5122261937	-0.275064
H	 0.4545879291	 2.0366926302	 0.2603787528	 0.131401
H	-0.1021335	 1.609022655	-1.3702662528	 0.109512
H	-1.2320351023	 1.5903213417	-0.0078304878	 0.114835
H	-0.5143428166	-0.7965206044	-0.5205317748	 0.085131
H	 1.8961586898	-1.455224026	-0.4060210408	 0.105826
H	 2.3488810126	 0.2532056701	 0.0527131619	 0.108896
H	 1.5663954161	 0.2143452242	 2.8274278484	 0.279179
H	-0.6858747629	-1.6549780529	 2.5099945791	 0.090499
H	-0.4154183529	-3.8748895052	 1.4461885066	 0.112707
H	 0.8948630238	-3.2448003367	 0.355983799	 0.115089
H	 2.2720811498	-2.5856151012	 2.3416991513	 0.110762
H	 0.995726482	-3.2434724455	 3.4671809182	 0.112376
73.0513	144.6333	190.6114	206.8448	262.145	286.2634	317.4947	389.8518	456.78	463.9607	576.7896	655.4496	770.0135	808.1363	832.6202	873.3614	889.5223	929.3394	939.0147	948.2557	1010.0426	1036.9165	1055.7447	1068.7985	1083.5192	1128.5432	1142.8644	1151.3671	1188.3727	1197.944	1214.8204	1240.1215	1274.14	1337.5139	1397.2152	1411.2557	1433.3531	1465.7874	1489.6137	1496.6791	1505.3512	1510.1233	3033.33	3088.8957	3123.0949	3125.7808	3128.6515	3134.3519	3140.3922	3141.8398	3209.2004	3212.614	3225.2326	3795.0334
CC1CC1(O)C1CC1	C[C@H]1C[C@]1(O)C1CC1	
InChI=1S/C7H12O/c1-5-4-7(5,8)6-2-3-6/h5-6,8H,2-4H2,1H3	InChI=1S/C7H12O/c1-5-4-7(5,8)6-2-3-6/h5-6,8H,2-4H2,1H3/t5-,7+/m0/s1
