13
gdb 130045	3.38948	1.66895	1.1267	3.0981	66.18	-0.2534	-0.0646	0.1887	976.2524	0.091668	-448.890396	-448.883757	-448.882813	-448.921272	25.786	
N	 0.0042601923	 1.3478290959	 0.1159880719	-0.572533
C	-0.0036547198	-0.0104371105	 0.0329307469	 0.318382
N	-1.0689975062	-0.7435671752	 0.0116550095	-0.315821
C	-0.7119126393	-2.1755062968	-0.008694784	-0.277477
C	 0.7923148914	-2.1768679432	-0.01793908	 0.310762
N	 1.8263589087	-2.9573096833	-0.045524547	-0.201592
O	 2.91179728	-2.0834243629	-0.0340305668	-0.156042
N	 2.5146410621	-0.7611705471	 0.0017574134	-0.226366
C	 1.2176885993	-0.8289058157	 0.0121145283	 0.27667
H	 0.8339682824	 1.8354039238	-0.1784475974	 0.274826
H	-0.8739115626	 1.8119820375	-0.0565840532	 0.269675
H	-1.1276070913	-2.6842406666	 0.8684345846	 0.15021
H	-1.1406346671	-2.6595030558	-0.8932049061	 0.149304
197.0539	230.0274	272.2444	297.5993	383.2157	486.3781	523.2767	614.4065	628.8629	643.0973	647.4582	782.9377	788.4052	815.7179	890.5412	955.1073	983.3081	1058.6556	1154.162	1157.9602	1184.735	1282.8684	1376.1424	1445.523	1469.8168	1566.625	1616.7936	1662.7576	1688.2683	3046.5446	3076.7521	3594.7014	3715.7555
NC1=NCC2=NON=C12	NC1=NCc2nonc12	
InChI=1S/C4H4N4O/c5-4-3-2(1-6-4)7-9-8-3/h1H2,(H2,5,6)	InChI=1S/C4H4N4O/c5-4-3-2(1-6-4)7-9-8-3/h1H2,(H2,5,6)
