19
gdb 38265	3.17037	1.70246	1.40202	1.6932	74.53	-0.2555	0.0888	0.3444	965.1908	0.162717	-422.964226	-422.957706	-422.956762	-422.994773	27.862	
C	-0.0303590951	 1.6463156929	 0.1769164358	-0.301163
C	 1.4590248722	 1.2349774106	 0.0537657747	-0.102474
C	 1.1216474479	 0.023384905	 1.0072954451	-0.293947
C	-0.0013046217	 0.0905039833	-0.0458330774	 0.442982
O	-1.0681352622	-0.7517010473	-0.2957595661	-0.302421
C	-1.5638884715	-0.4553201098	-1.6048683806	-0.004226
O	-0.5879725298	-0.462388146	-2.6098244476	-0.242485
C	 0.4111225189	 0.5662599585	-2.4598116619	-0.162844
C	 1.0852115127	 0.2788178144	-1.1266577983	 0.000591
H	-0.360405869	 1.9791577785	 1.1637287035	 0.096118
H	-0.4424190554	 2.28275487	-0.6056109823	 0.095007
H	 2.3243221315	 1.8885661371	 0.1364401239	 0.083692
H	 1.7882330475	-0.8407729568	 0.9544423167	 0.100362
H	 0.8638771433	 0.2818129704	 2.0373763682	 0.09676
H	-2.2736642207	-1.2472634443	-1.8471355232	 0.121192
H	-2.0739122115	 0.5232953083	-1.5763582454	 0.085227
H	 1.0774450028	 0.4565412118	-3.3183579672	 0.111764
H	-0.0591977332	 1.5568119131	-2.5171439964	 0.100115
H	 1.7515874131	-0.5831245098	-1.2286434918	 0.07575
177.5794	278.6159	385.4757	388.356	411.4062	462.5113	560.9423	574.856	616.1286	698.0998	765.3579	829.3307	851.1168	907.9185	919.8581	951.2405	966.6369	974.8769	992.9089	1047.5666	1057.9067	1074.2799	1105.4659	1127.0946	1141.0432	1150.8392	1167.754	1182.727	1217.4286	1224.7455	1236.2367	1260.1424	1298.8992	1321.4876	1372.4108	1419.9289	1446.7033	1490.5324	1502.3049	1513.8743	1549.4075	2952.5109	3018.8536	3055.4857	3061.499	3074.9331	3102.2952	3125.6928	3126.9168	3140.7464	3143.4923
C1C2CC11OCOCC21	C1[C@H]2C[C@]31OCOC[C@@H]23	
InChI=1S/C7H10O2/c1-5-2-7(1)6(5)3-8-4-9-7/h5-6H,1-4H2	InChI=1S/C7H10O2/c1-5-2-7(1)6(5)3-8-4-9-7/h5-6H,1-4H2/t5-,6-,7-/m0/s1
