27
gdb 101693	3.23294	0.7787	0.7651	0.1469	96.28	-0.2599	0.0806	0.3405	1727.939	0.250366	-353.559916	-353.54866	-353.547716	-353.596302	42.372	
C	 0.1561605425	 1.5599568052	-0.0858234924	-0.393227
C	-0.0213547333	 0.043311361	 0.0387004001	-0.162146
C	-1.4751646705	-0.4559141762	-0.0761932387	 0.039243
C	-2.0768811962	-0.1650598097	-1.4582516298	-0.389224
C	-1.5344762211	-1.9564198789	 0.2812428399	-0.265811
C	-2.9165595343	-2.5965413559	 0.3404155206	 0.381159
C	-3.9046245527	-1.942155105	 1.2895000246	-0.460806
C	-3.4706332612	-3.2475328672	-0.9076440203	-0.289653
C	-2.9689160831	-4.1034634202	 0.2304008702	-0.316353
H	 1.2006337151	 1.8447006929	 0.0766737768	 0.110312
H	-0.1317056612	 1.9287733297	-1.0749050834	 0.117503
H	-0.4507289659	 2.0918052641	 0.6560094331	 0.11155
H	 0.5897745842	-0.4601714839	-0.7239186376	 0.0895
H	 0.3811512235	-0.2800661222	 1.0074175032	 0.089086
H	-2.0653892606	 0.0936964104	 0.6716799331	 0.069316
H	-3.1129242198	-0.5070259362	-1.5236377292	 0.121614
H	-2.0672524999	 0.9049405595	-1.6850245565	 0.10972
H	-1.5092983532	-0.6767258791	-2.2456706905	 0.105699
H	-0.9180236998	-2.5131424154	-0.4384801546	 0.084453
H	-1.051445655	-2.0927233912	 1.2596836977	 0.087958
H	-4.1563296096	-0.9222030845	 0.978812441	 0.117405
H	-4.8393118766	-2.5098812157	 1.3368160048	 0.109075
H	-3.4977231437	-1.8877618925	 2.3067214006	 0.111508
H	-4.5413432191	-3.2013280216	-1.0797502377	 0.104685
H	-2.8773618132	-3.2103443822	-1.8149250654	 0.107894
H	-2.0355772806	-4.6395855386	 0.091246041	 0.105237
H	-3.6991118148	-4.6354221566	 0.8313648891	 0.104303
59.7364	68.8738	106.2793	137.4071	208.7118	225.134	247.2997	260.7325	303.0653	304.964	362.36	376.1942	415.4115	436.1904	515.2786	725.6421	774.6271	785.9272	816.0658	860.8886	882.7264	900.9376	940.4323	952.8012	966.2107	977.9361	1017.7685	1034.3543	1051.8237	1058.4002	1076.4954	1104.0446	1136.7981	1159.0214	1181.0494	1188.2682	1240.7866	1298.3887	1310.2348	1321.7908	1344.7093	1376.0262	1384.6037	1395.7358	1411.0374	1413.776	1420.4133	1467.1842	1476.6085	1485.5993	1492.9363	1495.7976	1498.3974	1501.5977	1506.641	1509.6838	1512.4311	2993.9567	2994.8282	3008.8359	3021.6749	3028.2808	3030.7104	3033.5493	3044.8237	3081.5398	3094.8417	3095.1741	3096.3444	3105.0737	3116.4538	3123.3927	3128.2372	3200.6489	3215.153
CCC(C)CC1(C)CC1	CC[C@@H](C)CC1(C)CC1	
InChI=1S/C9H18/c1-4-8(2)7-9(3)5-6-9/h8H,4-7H2,1-3H3	InChI=1S/C9H18/c1-4-8(2)7-9(3)5-6-9/h8H,4-7H2,1-3H3/t8-/m1/s1
