19
gdb 117503	2.22482	0.8618	0.64915	0.6599	88.1	-0.2524	0.0169	0.2694	1776.5526	0.154432	-385.816416	-385.805205	-385.804261	-385.854724	38.077	
C	-0.0462999754	 1.5329562504	-0.0967166104	-0.38671
C	-0.1451030796	 0.0190969485	-0.1616315499	-0.031713
O	 0.8029306488	-0.4405614941	-1.1151631668	-0.241372
C	 0.8437672375	-1.8555859055	-1.2427986649	-0.230441
C	-0.3878558905	-2.3986548411	-1.8475726877	 0.349518
C	-1.4044549922	-2.8309601738	-2.3197732975	-0.476558
C	 2.0238931288	-2.2210438656	-2.0276760117	 0.018948
C	 2.9952049594	-2.5438833079	-2.6585792155	 0.163257
C	 4.1685478083	-2.9236511618	-3.4303080848	-0.502435
H	 0.960480857	 1.8417277779	 0.1982001946	 0.12751
H	-0.2677713145	 1.9728474428	-1.0730379643	 0.130891
H	-0.7600974186	 1.927762927	 0.6325447107	 0.115075
H	 0.0694024884	-0.4291981677	 0.8233049653	 0.085682
H	-1.1585629303	-0.2946250401	-0.4506678215	 0.103418
H	 0.9421205626	-2.3019376755	-0.2360057409	 0.116101
H	-2.2962108178	-3.217571679	-2.7481258745	 0.201052
H	 3.8998517191	-3.5908819956	-4.2564054888	 0.152723
H	 4.6557621929	-2.0418153003	-3.8602070205	 0.155048
H	 4.906015996	-3.4413152987	-2.8074575811	 0.150008
25.2142	64.9461	75.2018	85.4388	110.4389	194.8137	232.4472	247.0206	260.5032	335.8061	375.6189	388.4687	474.6253	539.1781	616.8534	634.2226	673.5015	822.5091	830.5823	893.5124	951.331	1024.9569	1051.9308	1054.7196	1107.1712	1143.5452	1180.277	1188.4445	1297.8462	1328.5755	1332.6201	1401.3211	1413.3267	1433.2057	1476.0669	1477.5857	1482.4921	1500.304	1528.5997	2233.4865	2383.0554	2928.3964	2963.4069	3017.0871	3030.1843	3045.6269	3092.4007	3093.5329	3119.4544	3123.7955	3502.2737
CCOC(C#C)C#CC	CCO[C@@H](C#C)C#CC	
InChI=1S/C8H10O/c1-4-7-8(5-2)9-6-3/h2,8H,6H2,1,3H3	InChI=1S/C8H10O/c1-4-7-8(5-2)9-6-3/h2,8H,6H2,1,3H3/t8-/m0/s1
