22
gdb 5995	3.75961	1.08948	1.05453	0.3949	75.11	-0.2452	0.0718	0.317	1266.2067	0.196566	-387.33825	-387.327567	-387.326623	-387.37373	38.259	
C	 0.0795638975	 1.5524627294	 0.182048274	-0.377522
C	 0.0021243789	 0.0437861519	 0.0029521517	-0.045131
O	 0.6585209603	-0.5514299821	 1.1053638846	-0.297139
C	 0.7192874022	-1.9813810714	 1.1626622623	 0.373186
C	-0.6779462145	-2.6087318812	 1.2657973608	-0.423626
C	 1.5090135701	-2.567466728	-0.0160496537	-0.423731
C	 1.4916776012	-2.2085528913	 2.4729367147	-0.103057
O	 1.6416810388	-3.6044461228	 2.6840575029	-0.421536
H	 1.122263562	 1.8807672303	 0.2198023572	 0.122744
H	-0.4167211113	 2.0624180144	-0.6493067696	 0.110555
H	-0.4059898555	 1.8529223755	 1.1149982074	 0.122754
H	-1.0497257389	-0.2746944629	-0.050414619	 0.087223
H	 0.4784239603	-0.2469230823	-0.9453325686	 0.087244
H	-1.22341067	-2.5542692911	 0.3194090825	 0.108952
H	-0.5861132371	-3.6609502358	 1.5446754689	 0.136413
H	-1.2649730545	-2.0964191	 2.0347041756	 0.112622
H	 2.4513767	-2.0255157297	-0.1446197017	 0.112643
H	 1.7380281141	-3.6167537537	 0.1837640605	 0.136467
H	 0.9478714474	-2.5145664187	-0.9533101487	 0.108962
H	 2.4648634793	-1.7032783155	 2.3912972386	 0.090444
H	 0.9313337345	-1.7320726252	 3.2902596586	 0.090465
H	 2.1237934251	-3.73340809	 3.5050104908	 0.291067
51.427	93.869	123.5603	154.9733	208.0153	229.9665	250.9401	252.5692	286.5666	329.5713	339.3919	380.4536	434.9759	453.8893	585.9166	747.5181	823.8922	855.2977	909.4839	953.1425	961.2321	991.7831	1038.8066	1079.8178	1105.123	1147.8041	1178.6437	1186.8684	1196.3569	1245.2386	1290.5434	1295.8442	1301.9037	1390.815	1395.8269	1404.2068	1427.5411	1452.4618	1481.3709	1483.1802	1491.0786	1498.9245	1500.2831	1508.4921	1524.0379	1533.3191	2985.1559	2988.7501	3013.1721	3027.1196	3040.4087	3042.7441	3044.9885	3108.6138	3112.3038	3116.945	3119.6031	3128.6824	3133.1283	3843.9819
CCOC(C)(C)CO	CCOC(C)(C)CO	
InChI=1S/C6H14O2/c1-4-8-6(2,3)5-7/h7H,4-5H2,1-3H3	InChI=1S/C6H14O2/c1-4-8-6(2,3)5-7/h7H,4-5H2,1-3H3
