16
gdb 113533	3.87539	0.97704	0.87035	2.443	67.58	-0.2729	-0.004	0.2689	1309.649	0.123194	-474.982147	-474.973687	-474.972743	-475.015883	30.63	
O	 0.0446705413	 1.349122132	-0.4763544652	-0.410689
C	 0.0375714709	 0.1399765022	 0.2575958783	-0.080407
C	-1.3427322451	-0.4640909375	 0.3118708813	-0.065862
O	-1.7728066981	-1.121524347	-0.9019109649	-0.277442
C	-1.5680814288	-1.9094212044	 0.2436700619	 0.276772
C	-0.6462331791	-3.1243148653	 0.3607071372	-0.162909
O	-1.7191641137	-3.8291084852	 1.0627889184	-0.263195
C	-2.6014796249	-2.7684532618	 0.9206135095	 0.37961
N	-3.7966483359	-2.6287310888	 1.2593604012	-0.545452
H	-0.2723852691	 1.1460807777	-1.3637229829	 0.296154
H	 0.7434619988	-0.5951270115	-0.1588955292	 0.093302
H	 0.3709702741	 0.3918181835	 1.270226339	 0.123067
H	-2.1180702951	 0.1475766505	 0.7721061939	 0.131474
H	-0.4020709392	-3.611166672	-0.5864219021	 0.137688
H	 0.2402370592	-3.0258284209	 0.9914100005	 0.130737
H	-4.1680595654	-3.4657530914	 1.7108514831	 0.237152
68.6187	109.7211	146.5698	162.7654	262.2325	288.1348	388.957	408.1869	478.1575	543.6547	622.2825	696.3922	774.9194	837.5522	859.9797	896.2287	956.9487	984.5192	1002.3563	1022.7954	1086.6138	1097.6169	1104.1578	1149.5279	1165.7478	1224.181	1237.8042	1311.9189	1342.881	1387.9155	1423.0021	1488.3391	1507.0743	1521.9478	1836.3643	2987.9766	3066.2555	3075.2054	3128.1858	3132.0294	3486.6722	3803.4132
OCC1OC11COC1=N	OC[C@H]1O[C@]21CO[C]2[NH]	
InChI=1S/C5H7NO3/c6-4-5(2-8-4)3(1-7)9-5/h3,6-7H,1-2H2	InChI=1S/C5H7NO3/c6-4-5(2-8-4)3(1-7)9-5/h3,6-7H,1-2H2/t3-,5+/m1/s1
