21
gdb 67452	2.15788	1.84847	1.7867	1.8126	80.65	-0.2375	0.0756	0.3131	977.9029	0.184476	-387.082999	-387.075279	-387.074335	-387.11517	30.958	
C	-0.0475337243	 1.5230962649	 0.0165911601	-0.525542
C	 0.0067934483	 0.017433479	 0.0278795843	 0.30055
C	 0.6023691448	-0.7887173575	-1.1856313391	-0.071625
C	 1.6167057386	-1.4642263345	-0.2053880867	-0.242945
C	 0.8347741261	-0.8865752143	 0.9850229241	 0.073362
O	-0.3359714911	-1.6759615437	 1.2949918652	-0.324938
C	-1.1933733042	-0.8522346862	 0.4564813172	 0.088818
C	-1.7169787374	-1.5978679388	-0.7651442479	-0.226839
C	-0.512709485	-1.707971375	-1.7417047024	-0.226663
H	 0.9354004943	 1.957050803	-0.1981419271	 0.118371
H	-0.7398903833	 1.8870125354	-0.7526068663	 0.118398
H	-0.3834941614	 1.9196514007	 0.9810897658	 0.121028
H	 1.0748484555	-0.1886574275	-1.9660305552	 0.065206
H	 1.6992662033	-2.5543083804	-0.2395110395	 0.100006
H	 2.6165685566	-1.0252936861	-0.2845936656	 0.094988
H	 1.364924203	-0.5624060689	 1.8849753408	 0.067168
H	-1.9788857319	-0.3770731236	 1.057215972	 0.063961
H	-2.1319345098	-2.5694522082	-0.4816969977	 0.110026
H	-2.5314522041	-1.0176938391	-1.2151480277	 0.095685
H	-0.807242949	-1.4022262446	-2.7500768193	 0.096062
H	-0.1540931891	-2.7383751845	-1.8228413751	 0.104922
65.381	197.3134	204.296	245.2784	346.8443	371.8682	390.2301	580.3873	633.3277	656.0181	711.4582	783.3413	799.1355	852.027	867.1041	884.3162	906.3645	923.6402	959.1171	980.4753	1012.1886	1037.02	1069.3064	1083.0913	1128.7429	1145.1837	1162.5555	1183.122	1194.4068	1217.9343	1227.6293	1262.2686	1273.4778	1292.7003	1298.5931	1330.8429	1340.2134	1356.8043	1387.908	1414.2015	1462.4877	1471.424	1490.9641	1493.7604	1502.1765	3018.6574	3022.5649	3040.0894	3042.4473	3052.2593	3067.7389	3075.7157	3081.173	3085.203	3090.4223	3098.3023	3104.0175
CC12C3CC1OC2CC3	C[C@@]12[C@H]3C[C@@H]1O[C@@H]2CC3	
InChI=1S/C8H12O/c1-8-5-2-3-6(8)9-7(8)4-5/h5-7H,2-4H2,1H3	InChI=1S/C8H12O/c1-8-5-2-3-6(8)9-7(8)4-5/h5-7H,2-4H2,1H3/t5-,6-,7+,8+/m1/s1
