17
gdb 46761	2.89994	1.82756	1.2279	3.7182	74.18	-0.2257	0.0048	0.2305	991.2392	0.13954	-418.03277	-418.025729	-418.024784	-418.064746	27.258	
N	-0.3007507174	 1.1877006222	 0.1960686007	-0.576822
C	-0.1191380219	-0.0432054279	-0.0393583975	 0.437295
O	 1.0813471985	-0.698913508	 0.0258833974	-0.251201
C	 0.8600404118	-2.1142703239	 0.0830259781	-0.113776
C	-0.6032507993	-2.3084822946	-0.3816233683	-0.037414
C	-1.5663082024	-3.0031437838	 0.5516935831	-0.101457
C	-2.5749577631	-2.1954194539	 0.8725326447	-0.06823
C	-2.43421505	-0.8443866577	 0.2117750951	-0.220086
N	-1.1123661698	-0.9309328526	-0.4215399497	-0.109499
H	 0.5701824688	 1.6168774373	 0.5003161412	 0.222545
H	 1.5857531656	-2.6020493362	-0.5713285711	 0.121754
H	 1.0143057411	-2.4612940196	 1.1117089077	 0.114268
H	-0.6225244523	-2.7728983704	-1.3782887758	 0.096909
H	-1.4435556034	-4.034430277	 0.8587533075	 0.108951
H	-3.4207928442	-2.4503831095	 1.4992961183	 0.110246
H	-3.2267504174	-0.673609665	-0.5298248507	 0.119828
H	-2.4515213147	 0.0030209308	 0.9055785293	 0.14669
60.3078	145.3105	230.6926	298.1436	415.1532	497.6856	618.0129	634.9351	681.5985	724.9298	735.3894	790.4601	810.0242	838.1355	933.873	947.5566	963.1514	990.7952	1030.1406	1061.4139	1077.6734	1086.1461	1128.3698	1142.6575	1190.4019	1226.2036	1237.8969	1299.0473	1311.8464	1335.8682	1361.5416	1383.7364	1424.6422	1508.5389	1524.3482	1677.7694	1768.9046	2984.9025	3010.2411	3032.5117	3071.8268	3104.3581	3201.6967	3225.542	3526.67
N=C1OCC2C=CCN12	[NH][C]1OC[C@H]2C=CCN12	
InChI=1S/C6H8N2O/c7-6-8-3-1-2-5(8)4-9-6/h1-2,5,7H,3-4H2	InChI=1S/C6H8N2O/c7-6-8-3-1-2-5(8)4-9-6/h1-2,5,7H,3-4H2/t5-/m1/s1
