15
gdb 10459	2.95103	1.57604	1.17642	2.5512	67.92	-0.2468	-0.0299	0.2169	1010.7874	0.11626	-362.602408	-362.594093	-362.593149	-362.636	29.627	
O	 0.3940638909	-0.1971275842	-0.0399778917	-0.23848
C	 0.1278047032	 0.9663059731	-0.1978318237	 0.164154
C	 1.1082717741	 2.0991255025	 0.0502331827	-0.364161
C	 1.2287600529	 3.0298149003	-1.15535616	 0.078551
C	 2.5751379523	 3.5934306364	-1.4811472604	-0.266819
N	 1.992958263	 2.5547824629	-2.3358330191	-0.325827
C	 0.0443764725	 3.800554193	-1.4518280823	 0.338075
C	-0.9493878743	 4.4465853531	-1.6522908857	-0.444978
H	-0.87638795	 1.2903264567	-0.5467195401	 0.099021
H	 0.748524286	 2.6764136823	 0.9126729675	 0.137488
H	 2.0789699806	 1.6649397668	 0.3065825622	 0.119704
H	 2.6391048779	 4.5762769308	-1.9373510318	 0.136413
H	 3.3954592666	 3.3389084553	-0.8148208674	 0.121431
H	 2.4060719945	 1.648835149	-2.1225515914	 0.243181
H	-1.8235811502	 5.016668562	-1.849553819	 0.202248
45.6169	78.4826	151.5773	205.6315	232.8373	357.7596	388.7061	472.8281	545.9256	566.3452	621.1273	660.6212	679.4666	812.9983	839.0521	911.0439	938.5071	982.1764	1034.1351	1054.3973	1102.8943	1142.7655	1198.3514	1241.7423	1288.152	1314.3972	1371.1835	1423.8892	1452.8367	1505.1748	1832.7399	2238.738	2907.8479	3025.5462	3099.0138	3111.7514	3204.7445	3489.6554	3501.5011
O=CCC1(CN1)C#C	O=CC[C@]1(CN1)C#C	
InChI=1S/C6H7NO/c1-2-6(3-4-8)5-7-6/h1,4,7H,3,5H2	InChI=1S/C6H7NO/c1-2-6(3-4-8)5-7-6/h1,4,7H,3,5H2/t6-/m0/s1
