17
gdb 19874	3.35873	2.22666	2.01301	0.7568	66.82	-0.2187	0.0649	0.2836	767.6799	0.14339	-363.814103	-363.807401	-363.806457	-363.844686	26.425	
C	-0.2693404975	 1.6012552254	 0.0353881973	-0.433035
C	-0.0057563971	 0.1158203661	-0.0762120174	 0.020642
C	 0.6279079667	-0.627287244	-1.2087419645	-0.081626
C	 1.5155088892	 0.0298869227	-2.2337910291	 0.031671
O	 1.7426547105	 1.4397806814	-2.0928853485	-0.246853
C	 2.7104185353	 0.5393540955	-1.541479931	 0.035694
C	 2.535901739	 0.2466297978	-0.0548492843	-0.202408
N	 1.2967951303	-0.548618667	 0.1197501766	-0.128447
H	 0.4854312285	 2.2119699292	-0.4507710702	 0.153318
H	-1.2371356716	 1.8323816128	-0.4228860045	 0.121112
H	-0.3364700663	 1.8777410058	 1.0941932293	 0.11521
H	-0.779625739	-0.4595112779	 0.4351819258	 0.09119
H	 0.2357582287	-1.6009426191	-1.4967324739	 0.087208
H	 1.5227084482	-0.3425283169	-3.2541930125	 0.101885
H	 3.7015093456	 0.5920544394	-1.9873289776	 0.100414
H	 3.3757663485	-0.3635609637	 0.2960398342	 0.114063
H	 2.517948451	 1.1615847925	 0.5473184704	 0.119964
141.2166	179.0404	252.7991	318.6875	385.2849	479.23	603.7548	684.4825	712.8605	733.5528	749.7234	842.7036	868.6106	882.8019	932.1723	956.7588	1005.1779	1032.9981	1045.8906	1065.08	1104.5494	1120.1882	1160.3799	1172.8073	1223.7113	1258.5985	1301.035	1323.206	1331.1014	1382.8204	1400.4301	1422.2826	1444.095	1486.1522	1495.8928	1509.0715	3035.1898	3039.3666	3078.1426	3080.31	3087.786	3120.7676	3135.7888	3160.9206	3193.4059
CC1C2C3OC3CN12	C[C@H]1[C@H]2[C@H]3O[C@H]3CN12	
InChI=1S/C6H9NO/c1-3-5-6-4(8-6)2-7(3)5/h3-6H,2H2,1H3	InChI=1S/C6H9NO/c1-3-5-6-4(8-6)2-7(3)5/h3-6H,2H2,1H3/t3-,4-,5-,6-,7?/m0/s1
