17
gdb 66737	2.49587	2.40801	1.78754	3.9769	75.52	-0.2022	-0.0504	0.1518	841.0659	0.13626	-380.730313	-380.723581	-380.722637	-380.760907	27.832	
C	 0.0998630997	 1.6269251144	 0.0008136953	-0.53101
C	 0.090836255	 0.126160292	-0.0029670158	 0.265307
C	 0.4478051821	-0.8668290227	-1.1418811902	-0.115654
C	 0.7092631406	-1.8706146563	-0.0759098642	-0.030748
C	 0.7794713947	-0.7798667065	 1.068477854	-0.103566
C	-0.3149388804	-0.7992757587	 2.1987207603	-0.189628
N	-1.5287207199	-1.15458354	 1.3863559876	-0.226742
C	-1.1371813079	-0.8001381236	 0.2283459476	 0.16912
N	-0.6863208021	-1.7513935655	-0.7881778756	-0.166023
H	 1.1141229698	 2.0197730653	-0.1307994133	 0.125007
H	-0.5232858153	 2.0298478783	-0.8045356983	 0.13261
H	-0.29094608	 2.0165017248	 0.9463327847	 0.135996
H	 0.8283703436	-0.752792855	-2.1476199078	 0.10666
H	 1.1668510361	-2.8504848594	-0.1153791943	 0.114064
H	 1.8113567276	-0.5576981801	 1.3577900388	 0.079869
H	-0.1995810374	-1.5884499889	 2.948088571	 0.124887
H	-0.3370209861	 0.1639942719	 2.7301172501	 0.109848
184.6548	224.2861	239.192	329.7977	437.7922	536.8584	571.3356	612.2834	651.2051	680.1852	755.281	813.5401	824.2379	847.873	876.0087	900.7023	916.426	948.1906	962.4039	996.8149	1027.1908	1037.7151	1111.7472	1139.3716	1155.5491	1175.3514	1189.7979	1196.2227	1247.6783	1285.5958	1303.8806	1350.211	1415.5012	1480.5997	1487.4877	1495.9844	1613.1442	2991.3312	3030.2242	3071.5309	3078.5333	3093.12	3103.2603	3202.9786	3218.2433
CC12C3C4C1CN=C2N34	C[C@@]12[C@H]3[C@H]4[C@@H]1C[N][C]2N34	
InChI=1S/C7H8N2/c1-7-3-2-8-6(7)9-4(3)5(7)9/h3-5H,2H2,1H3	InChI=1S/C7H8N2/c1-7-3-2-8-6(7)9-4(3)5(7)9/h3-5H,2H2,1H3/t3-,4+,5+,7-,9?/m0/s1
