14
gdb 125754	5.12941	0.91445	0.8602	3.9572	68.02	-0.2992	-0.0399	0.2593	1321.9384	0.100886	-432.891503	-432.883319	-432.882375	-432.925731	28.254	
C	 0.201544885	 1.509769907	-0.0815020776	-0.489556
C	 0.0337863349	 0.032351021	-0.0190479412	 0.356976
N	-0.3073645942	-0.6825584194	-1.0591836928	-0.15513
O	-0.349133042	-1.9936971623	-0.5597251283	-0.190817
C	-0.027427844	-1.908360809	 0.7322218681	 0.424633
C	 0.0356621759	-3.1705897246	 1.5382692297	-0.440093
C	-1.2473413375	-3.8726862339	 1.6088680379	 0.271076
N	-2.2540800447	-4.4336073204	 1.6737836524	-0.287393
N	 0.221453479	-0.7043506464	 1.1374993732	-0.3386
H	 1.2173405079	 1.7875321439	 0.2146293476	 0.153356
H	 0.0088087864	 1.8702952994	-1.0926389121	 0.156286
H	-0.4885121226	 1.9971066738	 0.6135487323	 0.155999
H	 0.7830642956	-3.8471490455	 1.107475928	 0.187915
H	 0.3648642701	-2.9053588736	 2.5459032427	 0.195349
26.4352	97.5686	139.1774	212.464	253.4524	343.3533	372.0209	393.8246	475.5839	639.7394	690.8419	726.8435	805.6618	906.499	946.8835	950.1983	996.526	1046.0766	1063.2246	1072.1407	1206.3704	1317.9747	1331.7842	1375.6494	1422.3633	1447.6112	1472.7884	1475.1059	1568.0223	1635.8219	2375.4793	3053.3146	3054.1353	3115.455	3118.709	3154.5276
CC1=NOC(CC#N)=N1	Cc1noc(CC#N)n1	
InChI=1S/C5H5N3O/c1-4-7-5(2-3-6)9-8-4/h2H2,1H3	InChI=1S/C5H5N3O/c1-4-7-5(2-3-6)9-8-4/h2H2,1H3
