22
gdb 118859	2.79927	0.8652	0.73891	1.9124	80.14	-0.2454	0.0737	0.3191	1616.4754	0.192324	-441.443054	-441.432352	-441.431408	-441.479485	38.182	
C	-0.3719593248	 1.3131188539	-0.1148343263	-0.224154
O	-0.2611436546	-0.0876530189	-0.1780161154	-0.236748
C	 0.7921472223	-0.5165772573	-1.0163134404	-0.10003
C	 0.8151865586	-2.0312737205	-1.0223768802	 0.289941
C	 0.801461738	-2.6567270378	 0.3597296804	-0.464504
N	 0.0077305746	-2.6620351554	-2.086154924	-0.374991
C	 1.480751105	-2.7886240893	-2.1210635338	-0.081
C	 2.1368486817	-2.2025893541	-3.3526175074	-0.074236
O	 1.7762769417	-2.9437760694	-4.5060572103	-0.420938
H	 0.545026964	 1.7792351799	 0.2806617048	 0.102337
H	-0.5786604402	 1.7520457879	-1.1037461847	 0.106703
H	-1.203235312	 1.5461388637	 0.5550084951	 0.127428
H	 0.6452888188	-0.1330711587	-2.0350253588	 0.094969
H	 1.7570748944	-0.1280758289	-0.6431742675	 0.082141
H	-0.1021112038	-2.3654956761	 0.9006618122	 0.144217
H	 0.840900161	-3.748730816	 0.294969914	 0.108016
H	 1.6631761583	-2.3228277582	 0.9484767425	 0.121295
H	-0.4168929258	-3.5199998674	-1.7429093441	 0.229681
H	 1.8920644642	-3.7558271048	-1.8339949791	 0.085047
H	 1.8760079036	-1.1417622575	-3.4682652738	 0.088074
H	 3.2269362096	-2.2689338733	-3.2694911121	 0.107061
H	 0.8112801656	-2.9573501118	-4.512831601	 0.289691
54.1304	83.8315	86.8236	132.6117	174.825	216.4625	232.4253	254.7058	316.1009	341.928	379.3621	442.7526	463.4852	495.9605	593.7347	738.8425	835.6022	885.7408	967.6656	973.0115	983.3861	991.0198	1036.6508	1061.8315	1074.2258	1121.761	1143.0125	1158.2439	1186.0831	1190.6815	1225.8402	1264.3374	1269.6775	1322.6936	1345.0676	1371.3573	1408.5737	1420.8943	1432.1741	1471.2917	1478.2345	1482.7965	1484.9342	1497.933	1502.6999	1508.2601	1521.9864	2943.4439	2968.6576	3005.9075	3011.7748	3027.9644	3033.9062	3072.331	3097.6047	3113.564	3113.8403	3124.6229	3497.5262	3783.5442
COCC1(C)NC1CO	COC[C@@]1(C)N[C@H]1CO	
InChI=1S/C6H13NO2/c1-6(4-9-2)5(3-8)7-6/h5,7-8H,3-4H2,1-2H3	InChI=1S/C6H13NO2/c1-6(4-9-2)5(3-8)7-6/h5,7-8H,3-4H2,1-2H3/t5-,6+/m0/s1
