13
gdb 129182	2.14518	1.9267	1.02259	3.6287	74.28	-0.2402	-0.0767	0.1635	1058.1346	0.089873	-448.939516	-448.931738	-448.930794	-448.97214	28.027	
N	-0.3183575326	 1.1557953558	 0.0674023532	-0.570599
C	-0.1184061033	-0.0998619828	-0.007623287	 0.310879
N	 1.0585922092	-0.8319289258	-0.1215266149	-0.359908
C	 0.8823643296	-2.2697639556	-0.0009441265	-0.274165
C	-0.6457842336	-2.4720051623	-0.010379811	 0.321065
C	-1.1807446801	-1.1149877932	-0.0082423702	 0.214519
N	-2.453517991	-0.8315212731	 0.0007535321	 0.12877
N	-3.5598042371	-0.6194768133	 0.0025842881	-0.183826
O	-1.2199115384	-3.5338968301	-0.0135252755	-0.335356
H	 0.557003198	 1.678903625	 0.0465834009	 0.210069
H	 1.9223153387	-0.3999774976	 0.1642411563	 0.251155
H	 1.3284807328	-2.8226147969	-0.8353881485	 0.145951
H	 1.2865905578	-2.6805771901	 0.9338844731	 0.141447
104.8453	125.5509	173.9058	185.3588	333.2338	352.0891	447.6995	533.0284	534.7902	590.5338	604.878	673.9171	705.8735	717.7669	806.8108	994.2773	1029.8676	1049.7584	1132.9506	1184.1656	1196.3228	1255.5923	1342.4268	1416.5832	1450.9671	1499.1249	1735.6583	1816.2508	2249.5631	3019.6516	3064.0602	3480.6797	3641.7235
N=C1NCC2=C1N=NO2	[NH]C1=C(C(=O)CN1)[N][N]	
InChI=1S/C4H4N4O/c5-4-3-2(1-6-4)9-8-7-3/h1H2,(H2,5,6)	InChI=1S/C4H4N4O/c5-4-3(8-6)2(9)1-7-4/h1H2,(H2,5,7)
