20
gdb 97122	3.04492	1.05878	0.82775	2.0262	82.74	-0.2454	0.0317	0.2771	1429.12	0.170614	-403.128507	-403.119224	-403.11828	-403.163644	33.222	
C	-0.2949839032	 1.233600745	-0.0372062181	-0.339245
N	-0.2098625434	-0.2101175578	-0.2104077093	-0.32513
C	 0.63651127	-0.6827724687	-0.9981887601	 0.456075
O	 1.5812802525	-0.0494564858	-1.797034889	-0.270224
C	 2.1004304072	-1.3291953725	-2.2651956908	-0.099218
C	 1.038069039	-2.0856495595	-1.4292435631	-0.171476
C	 1.504462568	-3.0375153483	-0.3613118095	 0.02764
C	 0.53227788	-4.0022331635	 0.2658246506	-0.257712
C	 1.6093968488	-4.5160583664	-0.6552623722	-0.280583
H	 0.461793593	 1.7984182123	-0.5940542534	 0.125543
H	-1.2877182045	 1.575069438	-0.3516667633	 0.126082
H	-0.1996657986	 1.4714913717	 1.0278923352	 0.125189
H	 2.0236593141	-1.4109249552	-3.3522351577	 0.116507
H	 3.1370603742	-1.47153294	-1.9466529831	 0.116991
H	 0.2688134092	-2.5577897484	-2.0485434429	 0.098163
H	 2.2608488666	-2.6246380435	 0.3011481772	 0.087185
H	 0.6229294565	-4.1979277085	 1.32795822	 0.11778
H	-0.4898521921	-3.9939783579	-0.0964680932	 0.12104
H	 1.3147036388	-4.8602096189	-1.6413848821	 0.110837
H	 2.4393292439	-5.0653547221	-0.2251887151	 0.114557
60.5461	78.5293	102.8194	113.1868	197.7304	229.2585	293.8824	328.07	395.5381	556.4665	658.7912	728.4326	766.0535	814.5829	832.3404	906.9614	926.3112	956.1978	972.2651	1005.3481	1054.2207	1061.2205	1078.8736	1082.7886	1107.5661	1131.7612	1134.903	1156.5686	1177.5381	1195.4748	1209.1848	1230.1509	1238.3816	1291.13	1347.6703	1430.4352	1439.0782	1472.1149	1494.3884	1497.3202	1507.4648	1518.1407	1846.2626	3016.2509	3054.2455	3061.4099	3080.5234	3086.5458	3112.9	3131.4726	3139.2334	3142.6551	3211.3863	3228.2998
CN=C1OCC1C1CC1	CN=C1OC[C@H]1C1CC1	
InChI=1S/C7H11NO/c1-8-7-6(4-9-7)5-2-3-5/h5-6H,2-4H2,1H3	InChI=1S/C7H11NO/c1-8-7-6(4-9-7)5-2-3-5/h5-6H,2-4H2,1H3/t6-/m0/s1
