19
gdb 70080	2.62042	1.8318	1.35753	1.8463	80.	-0.2345	0.0031	0.2376	1005.5564	0.160615	-385.881242	-385.873762	-385.872818	-385.912645	30.699	
C	-0.0934918964	 1.4822688858	 0.0479675394	-0.483628
C	 0.0467388747	-0.0219033669	-0.0085525401	 0.402484
O	-0.2402102138	-0.7048746241	 1.2149210946	-0.297301
C	 1.1320926522	-0.7004063003	 0.7378092248	-0.059336
C	 1.6950313079	-1.9684668304	 0.2289159911	-0.07421
C	 1.2354144499	-2.5532530617	-0.8842169825	-0.078543
C	 0.1344176493	-2.0032131447	-1.6973810205	-0.082262
C	-1.2893082292	-1.9334330985	-1.1684262579	-0.295615
C	-0.4765885772	-0.6746893824	-1.2636185658	-0.099153
H	 0.4388256381	 1.9542708697	-0.7848318485	 0.122152
H	-1.1482592582	 1.771169965	-0.0199639894	 0.127831
H	 0.3076083159	 1.872208635	 0.9864623557	 0.12664
H	 1.7903450371	-0.0956377439	 1.3605727978	 0.083141
H	 2.5193595188	-2.4089500879	 0.7813179616	 0.090808
H	 1.6973877444	-3.4716144444	-1.2376346767	 0.095387
H	 0.2206767041	-2.1775068404	-2.7659574694	 0.088352
H	-2.0916373424	-2.0798591854	-1.8827001132	 0.110654
H	-1.4666939847	-2.3181866542	-0.1719109764	 0.140771
H	-0.7263827805	 0.0209962897	-2.0573039146	 0.081826
151.3551	206.9909	240.587	296.0883	312.6515	412.8043	485.9933	513.5779	529.4888	605.2417	682.1348	746.2108	784.471	805.513	822.4053	860.9608	884.0689	944.5654	976.8716	982.5031	994.2639	1044.943	1051.3126	1075.6959	1104.6062	1116.437	1126.2156	1132.6452	1194.01	1226.8845	1229.3053	1326.8788	1384.0385	1396.1267	1410.1852	1431.3093	1454.7683	1478.8251	1488.3285	1498.4993	1693.6606	3033.0836	3096.2038	3113.7207	3124.2655	3141.0447	3143.8676	3156.3303	3166.3823	3180.4041	3242.9911
CC12OC1C=CC1CC21	C[C@]12O[C@H]1C=C[C@H]1C[C@@H]21	
InChI=1S/C8H10O/c1-8-6-4-5(6)2-3-7(8)9-8/h2-3,5-7H,4H2,1H3	InChI=1S/C8H10O/c1-8-6-4-5(6)2-3-7(8)9-8/h2-3,5-7H,4H2,1H3/t5-,6+,7-,8+/m0/s1
