19
gdb 62733	2.45578	1.53067	1.26774	2.6857	76.33	-0.2215	0.0088	0.2303	1084.6616	0.158553	-419.201768	-419.192531	-419.191587	-419.234958	35.286	
C	 0.0655853126	 1.5228397161	 0.0398822398	-0.463028
C	 0.0684294056	 0.0058243016	 0.0400252903	 0.271317
C	-1.1947422353	-0.6037984003	-0.544899404	-0.446323
C	 1.3200646701	-0.802086614	-0.1824392589	-0.099273
N	 2.5182382574	-0.1818058746	 0.3869786235	-0.341256
C	 1.9492816292	-0.1025135138	 1.6752456265	 0.339529
O	 2.3641048005	 0.3520989263	 2.7050203577	-0.348757
C	 0.6769189651	-0.8146530948	 1.2088138527	 0.107921
N	-0.0623848852	-1.8334478711	 1.8632131296	-0.597099
H	 0.9842330346	 1.9485883992	 0.4491572549	 0.126249
H	-0.0593520588	 1.9036416001	-0.9803163853	 0.11768
H	-0.769098932	 1.9040046411	 0.6380886351	 0.124479
H	-1.3390270126	-0.2465460471	-1.5706765874	 0.116116
H	-1.1543341306	-1.6941519047	-0.5526721096	 0.137723
H	-2.0761646364	-0.3105057906	 0.0357350588	 0.118676
H	 1.4051444128	-1.6246804499	-0.8813019184	 0.110102
H	 3.003739479	 0.5994165601	-0.0395057114	 0.23996
H	 0.55638743	-2.4854504285	 2.3348664652	 0.242811
H	-0.6757379859	-1.4385740152	 2.5693591408	 0.243169
128.6522	177.302	180.5934	194.6847	234.5863	266.0596	282.9688	310.5126	360.2945	402.6691	509.0404	549.4098	624.1507	641.9864	706.8272	738.9443	778.7597	809.768	901.3456	944.5351	963.2631	970.3475	1001.8746	1043.847	1076.8778	1128.9206	1160.1292	1224.7974	1248.5701	1281.8708	1317.3725	1323.9861	1406.8703	1424.9673	1435.3582	1477.9331	1488.2883	1500.2473	1510.5758	1663.1542	1884.3304	3031.0836	3035.6396	3088.7063	3092.2079	3123.2075	3136.467	3196.4272	3498.3179	3547.0255	3571.0517
CC1(C)C2NC(=O)C12N	CC1(C)[C@H]2NC(=O)[C@@]12N	
InChI=1S/C6H10N2O/c1-5(2)3-6(5,7)4(9)8-3/h3H,7H2,1-2H3,(H,8,9)	InChI=1S/C6H10N2O/c1-5(2)3-6(5,7)4(9)8-3/h3H,7H2,1-2H3,(H,8,9)/t3-,6-/m1/s1
