17
gdb 31977	4.86025	0.94271	0.83032	0.9416	72.83	-0.214	0.0251	0.2391	1398.7562	0.136162	-455.161431	-455.152455	-455.151511	-455.195844	31.494	
C	 0.0100746031	 1.2708000264	-0.459030752	-0.330001
N	-0.0561930955	 0.0532904226	 0.3575139202	-0.391722
C	-1.1497574486	-0.7658033642	 0.1591024356	 0.302392
C	-1.3145944165	-2.0236536854	-0.3022142206	-0.145432
N	-2.6649289953	-2.3746045812	-0.3105687825	-0.390725
C	-3.2460230525	-1.3084030311	 0.1426938248	 0.503084
O	-4.5371128735	-1.0869577967	 0.3433719311	-0.251008
C	-5.3905708836	-2.1869462099	 0.0081926879	-0.235075
O	-2.4473829143	-0.2820703198	 0.4567175041	-0.225709
H	 0.9525796071	 1.7850310572	-0.251377064	 0.121986
H	-0.000322482	 0.9884369267	-1.5153527269	 0.135339
H	-0.819178268	 1.9696784218	-0.2801300811	 0.121215
H	 0.0995513347	 0.2609189236	 1.3379004869	 0.236959
H	-0.546955013	-2.7073209466	-0.6280690511	 0.123008
H	-5.2876187608	-2.4443714221	-1.0494673705	 0.144593
H	-5.1407550875	-3.0642691993	 0.6110581522	 0.144354
H	-6.4036467738	-1.8482674221	 0.2243162959	 0.136741
64.3498	87.2766	146.2397	157.1479	177.2842	227.7044	287.2199	376.308	450.0746	520.7148	621.7915	662.1862	721.6987	752.1619	768.2475	872.3957	914.4132	998.2618	1035.0355	1086.014	1147.2946	1157.6848	1168.4804	1184.0374	1196.7069	1232.5197	1291.3584	1408.6338	1451.3005	1466.6442	1478.0012	1479.2905	1490.7694	1501.8201	1520.1606	1639.3233	1702.3422	3003.6804	3047.7208	3083.2019	3120.9526	3121.2764	3160.1455	3267.3279	3520.9646
CNC1=CN=C(OC)O1	CNc1cnc(OC)o1	
InChI=1S/C5H8N2O2/c1-6-4-3-7-5(8-2)9-4/h3,6H,1-2H3	InChI=1S/C5H8N2O2/c1-6-4-3-7-5(8-2)9-4/h3,6H,1-2H3
