18
gdb 116417	2.21421	1.64447	1.20319	3.0678	70.28	-0.2632	0.0166	0.2798	1095.8242	0.148112	-476.216625	-476.20795	-476.207006	-476.250423	31.323	
C	-0.0715571463	 1.1337147893	-0.7094278609	-0.244758
O	-0.2675482636	-0.2688581213	-0.6137050628	-0.241833
C	-1.2890956467	-0.630693497	 0.2811787581	 0.109966
O	-2.5664690911	-0.2385858514	-0.1704770106	-0.269511
C	-3.1663666894	-1.0828536577	-1.1544586271	-0.075166
C	-2.2182559368	-2.1628356831	-1.6481387542	-0.106176
O	-1.6930306107	-2.8949448656	-0.5300206276	-0.253399
C	-1.1948593982	-2.1339523654	 0.4803236383	 0.414842
N	-0.7083439861	-2.6126142388	 1.5424928164	-0.531472
H	 0.7529595737	 1.29100207	-1.4072896711	 0.131317
H	-0.968785372	 1.6415638495	-1.0818603615	 0.124251
H	 0.197528237	 1.5609893536	 0.2670454592	 0.117536
H	-1.1528033748	-0.1349860265	 1.2478517124	 0.109085
H	-4.0531615908	-1.5502348049	-0.7069002241	 0.117347
H	-3.4938388568	-0.4606021092	-1.9957318392	 0.114702
H	-2.7526960009	-2.8902127407	-2.2628272524	 0.122739
H	-1.3939053328	-1.7341042959	-2.2241694023	 0.137763
H	-0.7255933637	-3.634741045	 1.5125964994	 0.222767
82.7526	93.8878	132.7236	190.3611	196.1401	305.5843	327.1986	402.0496	435.6242	528.5513	586.2135	687.9537	730.7296	847.2061	899.4822	910.7454	920.7668	988.2027	1019.7396	1059.3498	1099.8105	1123.1023	1147.8828	1168.9998	1178.8383	1213.2458	1260.487	1286.7697	1327.4198	1371.4072	1383.6249	1413.6868	1433.1612	1473.3737	1483.9444	1499.85	1510.2576	1512.5598	1772.3374	3001.9694	3018.9278	3058.1296	3067.2466	3070.2826	3073.6479	3125.8105	3131.5552	3460.1351
COC1OCCOC1=N	CO[C@H]1OCCO[C]1[NH]	
InChI=1S/C5H9NO3/c1-7-5-4(6)8-2-3-9-5/h5-6H,2-3H2,1H3	InChI=1S/C5H9NO3/c1-7-5-4(6)8-2-3-9-5/h5-6H,2-3H2,1H3/t5-/m0/s1
