21
gdb 42051	2.82353	1.46394	1.06356	2.3139	77.55	-0.2359	0.071	0.3069	1159.816	0.185325	-424.211028	-424.203154	-424.202209	-424.243661	30.848	
C	 0.1574791752	 1.6112819764	 0.1011591519	-0.093854
O	 1.4225204831	 1.4812710494	-0.5814835052	-0.295488
C	 1.2885087684	 0.042771089	-0.6556953768	 0.128431
C	 2.4607824053	-0.6775439476	 0.0002824323	-0.10516
O	 2.2318978892	-2.0742267903	 0.0606855409	-0.244084
C	 1.5799687177	-2.5197135926	 1.2374068809	-0.065242
C	 0.0981653379	-2.1430560216	 1.3553170072	-0.200495
C	-0.1702197704	-0.6305747352	 1.4462731565	-0.230026
C	-0.0655403572	 0.0816640572	 0.0994688524	-0.03978
H	 0.2719880085	 2.0717752821	 1.0915483095	 0.097581
H	-0.5613391523	 2.2008469896	-0.481005883	 0.1001
H	 1.2013731575	-0.2951135041	-1.6967404645	 0.078863
H	 3.3632748805	-0.5210116044	-0.6014670673	 0.109953
H	 2.6535667424	-0.2595221416	 0.9991917604	 0.091191
H	 1.6788696222	-3.6102321786	 1.2271348247	 0.106179
H	 2.1201762286	-2.1466475007	 2.1244632622	 0.087069
H	-0.4502388458	-2.569033401	 0.5054736769	 0.103218
H	-0.286996097	-2.6375297839	 2.256436435	 0.09579
H	-1.1753597768	-0.4602567011	 1.8509094575	 0.098628
H	 0.523975017	-0.1810023247	 2.1688359043	 0.097472
H	-0.8982627743	-0.2283794664	-0.5378132459	 0.079655
64.1314	158.759	217.3963	289.9527	302.724	356.1045	409.1885	422.1776	521.0121	557.8855	727.2725	787.2038	825.0667	872.2043	912.8647	932.6127	958.71	988.6566	1022.9245	1034.5427	1038.5547	1058.6179	1082.0715	1126.5147	1156.5294	1174.0988	1176.5825	1229.1925	1239.187	1266.4779	1276.287	1281.5766	1329.1706	1342.3056	1349.1322	1379.8121	1389.1518	1395.9785	1403.7154	1421.1657	1474.4128	1489.2715	1490.3711	1507.7398	1525.1892	2959.4836	2996.1578	3004.3641	3015.2177	3016.9871	3020.3022	3044.3479	3050.6517	3061.8393	3065.8946	3071.9146	3076.6303
C1OC2COCCCC12	C1O[C@H]2COCCC[C@@H]12	
InChI=1S/C7H12O2/c1-2-6-4-9-7(6)5-8-3-1/h6-7H,1-5H2	InChI=1S/C7H12O2/c1-2-6-4-9-7(6)5-8-3-1/h6-7H,1-5H2/t6-,7-/m0/s1
