23
gdb 96154	2.49211	1.38257	0.97527	2.0411	84.66	-0.254	0.0799	0.3338	1279.6404	0.207703	-388.2953	-388.286752	-388.285808	-388.328034	34.283	
C	 0.0073022077	 1.5921224656	-0.0008991294	-0.398525
C	-0.0217880209	 0.0571865762	 0.0200423197	 0.039472
C	 0.6519906722	-0.493263143	-1.254644022	-0.169852
C	 0.6068697866	-2.0118741544	-1.5019500453	-0.208205
C	 1.3427347635	-2.8633182672	-0.4498583856	-0.237267
C	 0.5221771371	-3.0332800792	 0.8138510452	 0.068416
O	 1.1605346082	-2.8356419059	 2.0808569335	-0.265524
C	 0.1747343443	-1.8840938284	 1.658358252	 0.055879
C	 0.6265105345	-0.4788918466	 1.3167080423	-0.237089
H	 1.0384778258	 1.9642681059	 0.0300524905	 0.114703
H	-0.4607200899	 1.9876760776	-0.9082994358	 0.109747
H	-0.5217617659	 2.0111942845	 0.8611273908	 0.110248
H	-1.0757193494	-0.259205736	 0.01282098	 0.068887
H	 0.1924285586	 0.0018110294	-2.1196853275	 0.090307
H	 1.7041945907	-0.1718256871	-1.2506712753	 0.091925
H	-0.4376100469	-2.3454471001	-1.5740516597	 0.093535
H	 1.0509807554	-2.2026133511	-2.486100458	 0.09489
H	 1.5737672911	-3.8508510294	-0.8646558132	 0.096989
H	 2.3015169739	-2.4007335413	-0.1931058926	 0.109777
H	-0.1744581609	-3.8738619733	 0.8025830471	 0.084904
H	-0.7574144269	-1.943230764	 2.2236277527	 0.084967
H	 1.7179046804	-0.4652944857	 1.222351303	 0.107642
H	 0.3803976706	 0.1854933735	 2.1534059476	 0.094174
118.8901	148.9028	233.0872	261.8899	275.9476	307.2904	345.0481	396.2566	423.9452	467.2785	509.775	576.4595	752.4382	814.1212	816.4034	850.5225	878.8167	921.3439	941.7478	946.2788	1007.9446	1014.5242	1026.7143	1051.7263	1090.3412	1118.239	1126.7149	1154.424	1166.6129	1193.8942	1230.6014	1250.0725	1295.739	1299.8494	1314.5087	1341.2699	1359.3804	1377.1806	1380.3964	1396.8193	1403.191	1413.9055	1478.2777	1484.1836	1486.5968	1496.0714	1498.7385	1502.0288	1504.581	2988.3219	3000.4466	3012.3997	3024.2128	3032.0581	3037.0035	3044.5206	3057.7505	3068.1634	3077.9493	3086.0989	3091.3831	3099.0596	3100.6052
CC1CCCC2OC2C1	C[C@H]1CCC[C@H]2O[C@H]2C1	
InChI=1S/C8H14O/c1-6-3-2-4-7-8(5-6)9-7/h6-8H,2-5H2,1H3	InChI=1S/C8H14O/c1-6-3-2-4-7-8(5-6)9-7/h6-8H,2-5H2,1H3/t6-,7+,8-/m0/s1
