19
gdb 113145	2.12843	0.99012	0.74737	2.445	82.22	-0.2299	0.04	0.27	1564.8051	0.155672	-422.976271	-422.96549	-422.964546	-423.013961	37.629	
C	 0.1419146576	 1.5288317536	 0.0976448112	-0.500299
C	 0.0637120748	 0.0755451911	 0.0726865256	 0.005211
C	-0.0077222399	-1.127761174	 0.0468511313	 0.084982
C	-0.0207335676	-2.5688636644	 0.0126513551	 0.201063
O	 1.029045211	-3.1548599424	-0.7186248376	-0.450351
C	-0.5458142124	-3.3425655701	 1.2137261564	-0.334283
C	-1.3134030691	-3.3428769226	-0.0848251953	-0.023823
C	-2.6420756945	-2.6462030704	-0.1950370111	-0.113021
O	-3.6326747622	-3.5107809119	 0.3482407589	-0.418601
H	 1.0182622893	 1.8827179086	-0.4566434384	 0.151788
H	-0.7426617592	 1.9849435513	-0.3607142359	 0.14937
H	 0.221684748	 1.9107219781	 1.1215783882	 0.148187
H	 1.855362445	-2.8639363498	-0.3162467802	 0.282646
H	 0.0010306788	-4.2403932163	 1.4776701981	 0.118596
H	-0.9500313289	-2.7764306652	 2.0455166997	 0.120594
H	-1.2218949218	-4.2456652437	-0.6806360304	 0.109613
H	-2.6032937258	-1.6886800194	 0.3451638387	 0.091454
H	-2.8517371915	-2.4170353272	-1.2518459181	 0.091775
H	-4.4897509916	-3.0919975355	 0.2256194639	 0.285099
16.0093	69.893	79.1899	120.3451	181.5041	217.111	256.987	294.6525	312.2191	333.5348	369.9355	386.0776	468.2758	559.4271	595.4136	634.7629	827.3937	880.2426	903.3854	929.7221	1008.8243	1034.1886	1051.0773	1054.1021	1060.0323	1082.3626	1097.912	1164.6137	1214.6345	1252.2456	1276.1704	1303.7977	1357.9624	1403.0012	1414.6404	1464.3895	1475.9594	1479.3408	1483.8453	1521.1031	2359.6523	2973.8388	3009.697	3025.3909	3084.9678	3087.7191	3136.3992	3164.8788	3232.0494	3794.5707	3826.4526
CC#CC1(O)CC1CO	CC#C[C@@]1(O)C[C@H]1CO	
InChI=1S/C7H10O2/c1-2-3-7(9)4-6(7)5-8/h6,8-9H,4-5H2,1H3	InChI=1S/C7H10O2/c1-2-3-7(9)4-6(7)5-8/h6,8-9H,4-5H2,1H3/t6-,7+/m0/s1
