16
gdb 123752	5.06142	1.04713	0.99918	2.8253	70.7	-0.2439	-0.0284	0.2155	1199.0316	0.126988	-434.04041	-434.033111	-434.032167	-434.073424	26.55	
C	-0.0421161783	 1.42655339	-0.1421947681	-0.155076
C	 1.4992635309	 1.495586251	-0.0223841259	-0.245427
C	 1.3996147131	 0.0851769228	 0.6315728596	-0.082014
N	 0.0428823494	-0.0411922027	 0.0513821136	-0.306174
C	 2.3737985184	-0.9661136806	 0.2239690164	 0.446773
N	 3.1291114499	-1.6966260699	 0.9946544864	-0.321732
C	 3.8185429447	-2.450277818	 0.078194603	 0.032596
N	 3.5236513218	-2.2161181073	-1.1708744742	-0.109263
O	 2.5506556358	-1.2161162174	-1.0795065164	-0.190521
H	-0.5448097396	 1.9628448933	 0.6743717589	 0.097243
H	-0.4911560209	 1.7292182559	-1.0926369988	 0.11369
H	 1.9998412314	 1.4610795977	-0.9905665867	 0.135063
H	 1.9291940236	 2.2866967891	 0.5911734847	 0.117135
H	 1.4313379027	 0.1372228481	 1.726779543	 0.096293
H	-0.6514528979	-0.4550555955	 0.6640208562	 0.224901
H	 4.5560634451	-3.1917103167	 0.3492360184	 0.146514
40.0945	113.5106	140.8012	239.0925	384.4068	405.0582	595.1404	660.4187	726.1354	769.6999	802.1899	899.4781	925.5874	930.0044	939.2389	968.0122	981.4993	1014.3515	1025.1745	1057.7892	1097.441	1135.6431	1183.7331	1208.2049	1256.4195	1259.814	1268.5393	1317.6269	1340.6959	1369.7496	1389.0362	1485.1916	1512.8956	1526.9203	1616.3509	3006.4358	3032.1279	3076.1346	3095.4819	3156.3477	3260.8691	3527.9559
C1CC(N1)C1=NC=NO1	C1C[C@@H](N1)c1ncno1	
InChI=1S/C5H7N3O/c1-2-6-4(1)5-7-3-8-9-5/h3-4,6H,1-2H2	InChI=1S/C5H7N3O/c1-2-6-4(1)5-7-3-8-9-5/h3-4,6H,1-2H2/t4-/m1/s1
