18
gdb 37277	4.53522	1.61688	1.56633	1.4228	78.42	-0.2151	0.0012	0.2163	897.186	0.150969	-364.73079	-364.724901	-364.723957	-364.760491	26.455	
C	-0.0263773624	 1.5030165208	-0.0078795583	-0.305489
C	 1.3246054612	 0.8182584935	-0.0407723016	-0.073836
C	 0.0456009774	 0.0016442211	-0.056621476	 0.003834
N	 0.0703655147	-0.7172441076	-1.3471449091	-0.135728
C	 1.5523852843	-1.1877913435	-1.4019762797	-0.039274
C	 1.7096279045	-1.6061604938	-2.8484136526	-0.090295
C	 1.1016862896	-0.6084248296	-3.4920110695	-0.092066
C	 0.6447334957	 0.2963926256	-2.3620513847	-0.05556
C	 1.8697925445	 0.3707088262	-1.3904540497	-0.03564
H	-0.3160841679	 1.9138808795	 0.9547858994	 0.110246
H	-0.3852748639	 2.0888090987	-0.8454753343	 0.117101
H	 1.9873455228	 0.8742010407	 0.8145710329	 0.088728
H	-0.3029342325	-0.5882102507	 0.7825486514	 0.093399
H	 1.8838687867	-1.8409221403	-0.5937707273	 0.066783
H	 2.1819266205	-2.503555489	-3.2197672477	 0.107818
H	 0.9265001694	-0.4476871127	-4.545520315	 0.108027
H	 0.0307007985	 1.1576480405	-2.617530666	 0.067262
H	 2.8314568871	 0.7610833406	-1.7322268921	 0.06469
296.131	314.4476	381.012	508.4393	523.38	612.6301	627.5041	714.7718	726.7824	786.0166	804.2673	834.8802	850.0224	896.3021	908.6452	926.2194	932.0071	944.7414	965.5934	984.9295	1020.0328	1026.8615	1046.52	1082.8729	1088.9155	1116.8126	1134.8989	1146.0013	1176.6606	1191.1245	1213.7151	1251.5114	1259.7331	1303.3581	1317.3696	1323.1752	1366.2255	1495.6593	1635.1362	3087.2593	3115.8173	3127.7822	3140.5764	3176.0148	3184.8922	3215.0789	3229.039	3255.8387
C1C2C1N1C3C=CC1C23	C1[C@H]2[C@@H]1N1[C@H]3C=C[C@@H]1[C@@H]23	
InChI=1S/C8H9N/c1-2-6-8-4-3-7(4)9(6)5(1)8/h1-2,4-8H,3H2	InChI=1S/C8H9N/c1-2-6-8-4-3-7(4)9(6)5(1)8/h1-2,4-8H,3H2/t4-,5-,6+,7+,8-/m0/s1
