17
gdb 11601	4.47347	1.18295	1.11464	3.0644	64.69	-0.2349	0.033	0.268	1104.4139	0.141277	-401.004796	-400.996259	-400.995315	-401.039022	30.801	
N	 0.5313945166	-0.5718981929	 0.3673147675	-0.507383
C	-0.2797727658	-0.188391359	-0.6548883293	 0.364085
O	 0.0811446298	 0.4592604567	-1.6167847631	-0.359041
C	-1.7423986645	-0.6228193457	-0.5005363772	-0.177967
O	-1.9741089774	-1.4995176534	 0.5939492062	-0.259006
C	-2.236445639	-2.8255062321	 0.2269038955	 0.137958
C	-1.1019047942	-3.7447563255	-0.1450753153	-0.293848
C	-1.8101900517	-3.8842003364	 1.1892687215	-0.285919
H	 1.4723786602	-0.2158958895	 0.3952734033	 0.261949
H	 0.1241471353	-0.9937001769	 1.1848333325	 0.266784
H	-2.3322428317	 0.2873663149	-0.3398601619	 0.137585
H	-2.0618310239	-1.0606262939	-1.4515588787	 0.132364
H	-3.1865308421	-2.9522351885	-0.2911740834	 0.09503
H	-1.2749205468	-4.4943656794	-0.9091836627	 0.118824
H	-0.1033529381	-3.324112782	-0.1367571599	 0.128336
H	-1.2772199179	-3.5516029193	 2.0728819051	 0.12015
H	-2.4680295487	-4.7302813971	 1.3513199498	 0.120101
36.7668	64.9526	91.4578	241.5641	286.5326	346.2598	384.8487	421.6851	506.2802	544.3476	562.3227	677.0566	750.9933	815.711	826.4607	861.4161	957.4551	975.6103	1033.6856	1053.3895	1073.7603	1085.5673	1100.9223	1130.3883	1190.3978	1193.843	1240.6389	1295.0302	1351.9176	1365.2257	1400.9028	1459.306	1466.0486	1500.0837	1591.567	1810.2309	3039.7558	3091.7718	3106.6828	3140.3437	3144.1804	3223.3233	3237.4403	3597.9275	3737.2778
NC(=O)COC1CC1	NC(=O)COC1CC1	
InChI=1S/C5H9NO2/c6-5(7)3-8-4-1-2-4/h4H,1-3H2,(H2,6,7)	InChI=1S/C5H9NO2/c6-5(7)3-8-4-1-2-4/h4H,1-3H2,(H2,6,7)
