18
gdb 20096	4.45792	1.52599	1.37428	1.9016	71.6	-0.2265	0.0748	0.3014	954.3107	0.15414	-347.73966	-347.732447	-347.731503	-347.771604	27.925	
C	-0.0926323903	 1.46949574	-0.1858783393	-0.275864
C	 1.2877667848	 0.922550843	 0.0783379454	-0.268319
C	 0.0997601866	-0.0129466588	 0.027464399	-0.105406
C	-0.3754791904	-0.7069660422	 1.2527950742	 0.306973
C	-0.3800475643	-2.2191491757	 1.4135533173	-0.35426
C	-1.6527904696	-1.4503940151	 1.5915897081	 0.052254
O	-1.7225299267	-0.9000436286	 2.9090426286	-0.286926
C	-0.5416439982	-0.0959476658	 2.6465300046	-0.142832
H	-0.5684618382	 2.0465827619	 0.5994372026	 0.114838
H	-0.3301599448	 1.8106988919	-1.1874406372	 0.113318
H	 2.0033698589	 0.8946264152	-0.7358034735	 0.113563
H	 1.7302060961	 1.1215699034	 1.0489830356	 0.113815
H	 0.0283626921	-0.6243267348	-0.8680625472	 0.081322
H	-0.2876013771	-2.7654010609	 0.4790411037	 0.111515
H	 0.0792638854	-2.6976258017	 2.2751845484	 0.112029
H	-2.5824883068	-1.6153311969	 1.0586395295	 0.103168
H	 0.2568952869	-0.2727749321	 3.377401997	 0.103158
H	-0.8040791744	 0.9683284471	 2.6385989133	 0.107655
45.2366	167.1195	195.4782	320.4771	372.0166	449.6861	462.0508	602.3003	754.1651	783.9542	813.5096	847.1577	861.0823	923.2876	929.1284	941.6287	986.7498	1000.4742	1018.4553	1048.9553	1059.6189	1069.1226	1077.3217	1080.5183	1111.6301	1132.8259	1160.915	1197.4775	1217.9593	1229.5984	1289.1859	1313.3955	1372.2777	1439.4674	1469.2242	1484.8044	1508.2868	1517.3162	3018.2734	3066.2542	3105.656	3130.9134	3135.5819	3139.9587	3175.9067	3199.6191	3208.9518	3224.486
C1CC1C12CC1OC2	C1CC1[C@]12C[C@H]1OC2	
InChI=1S/C7H10O/c1-2-5(1)7-3-6(7)8-4-7/h5-6H,1-4H2	InChI=1S/C7H10O/c1-2-5(1)7-3-6(7)8-4-7/h5-6H,1-4H2/t6-,7-/m1/s1
