23
gdb 84949	1.94013	1.65762	1.1815	0.3444	92.7	-0.2347	0.0221	0.2569	1199.9962	0.207762	-351.154633	-351.145528	-351.144584	-351.188436	35.28	
C	-0.1574729457	 1.5127525084	 0.2745043031	-0.387043
C	-0.0958894099	-0.0167406133	 0.0401983066	-0.060749
C	 0.1836665486	-0.3772058078	-1.4105963398	-0.083821
C	 1.2418642004	-0.1941996102	-2.2030295321	-0.03304
C	 2.60910024	 0.3906176841	-1.9620870924	-0.247668
C	 3.1733370691	 0.4053297789	-0.5368451525	-0.205546
C	 3.1129776305	-0.9572472142	 0.1893027256	-0.239942
C	 1.9782424939	-1.1362425017	 1.1682027924	-0.056243
C	 0.7074483464	-0.7341123152	 1.1130331969	-0.058575
H	 0.8043957229	 1.9927999589	 0.0828609696	 0.12536
H	-0.897988421	 1.9688234973	-0.3904273126	 0.112243
H	-0.4441334107	 1.7319043684	 1.3084809635	 0.111169
H	-1.1230489639	-0.3628002149	 0.2112070846	 0.080004
H	-0.6730208498	-0.8418928621	-1.896070596	 0.083114
H	 1.1086744289	-0.5235821037	-3.2336305163	 0.080066
H	 3.3089985101	-0.1750705891	-2.5930798696	 0.10283
H	 2.6333517212	 1.4124418575	-2.3703928641	 0.107418
H	 4.2198061749	 0.7224606848	-0.6118946251	 0.093134
H	 2.6792749259	 1.1617046609	 0.0783157778	 0.107818
H	 3.100313413	-1.7673273872	-0.5539770284	 0.112281
H	 4.0432313575	-1.0978356825	 0.7504690669	 0.096956
H	 2.2624246102	-1.6647888539	 2.0771637706	 0.079161
H	 0.1061587175	-0.9559595334	 1.9944603614	 0.081076
59.1571	103.058	213.3909	220.1568	229.7301	248.6353	310.3541	345.9154	454.9228	507.2036	528.955	681.6607	702.9567	711.9412	740.6991	782.2834	802.4784	837.9688	881.6485	961.2221	985.8496	1003.1862	1008.8036	1013.928	1048.5286	1063.7422	1090.0206	1100.2972	1166.6535	1191.8592	1235.1309	1280.0227	1308.0018	1330.6729	1337.4554	1369.4231	1377.7998	1395.419	1400.473	1402.4029	1427.1136	1447.0733	1469.0548	1479.0899	1487.2918	1497.2132	1508.0348	1727.9982	1734.6142	2993.6921	3008.4872	3008.6723	3017.5504	3035.6599	3037.0848	3057.4817	3094.8686	3101.2894	3109.4625	3111.6429	3131.7316	3137.4912	3140.4802
CC1C=CCCCC=C1	C[C@H]1C=CCCCC=C1	
InChI=1S/C9H14/c1-9-7-5-3-2-4-6-8-9/h5-9H,2-4H2,1H3/b7-5-,8-6-	InChI=1S/C9H14/c1-9-7-5-3-2-4-6-8-9/h5-9H,2-4H2,1H3/b7-5-,8-6-
