15
gdb 52755	1.85521	1.00822	0.67738	4.2817	79.06	-0.271	-0.0054	0.2655	1609.7296	0.107765	-420.574008	-420.563734	-420.562789	-420.6122	33.958	
C	-0.1200384402	 1.3200382995	 0.0961476923	-0.500006
C	-0.0414039142	-0.1245694649	-0.0503516666	 0.068571
C	 0.0159930703	-1.3190168486	-0.1783967828	 0.130169
C	 0.0951635537	-2.7705185484	-0.3161684179	-0.27763
O	-1.2329601126	-3.3480929557	-0.2360966472	-0.166629
C	-1.5214220811	-4.0918912716	 0.8530354509	 0.179765
O	-2.5902430836	-4.5911876232	 1.0232847817	-0.266647
C	 0.7133055216	-3.184638012	-1.5754654245	 0.351281
C	 1.2419764595	-3.5308135516	-2.5954251527	-0.427795
H	 0.3630029518	 1.6528385357	 1.0208203395	 0.155843
H	 0.3687278287	 1.8276257452	-0.7420538587	 0.159169
H	-1.1635815886	 1.6509883289	 0.1249082068	 0.16247
H	 0.6930258247	-3.1775161066	 0.5145487996	 0.137073
H	-0.6663769684	-4.1840721785	 1.5517446545	 0.082566
H	 1.7028039383	-3.8339892983	-3.5034417749	 0.211799
21.5121	25.0704	84.1231	108.9488	145.5572	207.9458	238.0638	324.4227	339.2622	373.4094	464.5304	487.8054	538.8239	644.5123	680.5676	704.8339	831.858	978.1394	1002.3187	1039.3608	1050.5651	1053.9928	1170.6069	1177.3463	1322.3538	1333.9927	1412.9004	1435.9961	1473.9904	1475.5672	1872.8737	2250.1361	2379.4426	2941.2646	2978.2564	3033.8245	3098.4069	3099.1029	3501.5269
CC#CC(OC=O)C#C	CC#C[C@@H](OC=O)C#C	
InChI=1S/C7H6O2/c1-3-5-7(4-2)9-6-8/h2,6-7H,1H3	InChI=1S/C7H6O2/c1-3-5-7(4-2)9-6-8/h2,6-7H,1H3/t7-/m0/s1
