19
gdb 92606	2.02469	1.78179	1.5932	0.8667	69.63	-0.2404	0.0607	0.3011	985.692	0.160142	-460.149076	-460.14102	-460.140076	-460.181484	31.975	
O	-0.1758015877	 1.4377838502	 0.5186188134	-0.434813
C	-0.072499349	 0.1086008106	 0.0697415365	 0.071824
C	 0.4344906505	-0.9468471446	 1.0935247834	-0.268978
C	-0.9240970321	-1.6944130203	 1.0201593753	-0.069262
C	-1.8769041353	-1.4169571318	 2.1858849222	-0.100783
O	-2.371217183	-0.0877707014	 1.9672162361	-0.26603
C	-2.6223372449	-0.0054703732	 0.5654582053	-0.171896
C	-1.4163278868	-0.6957624392	-0.0800509423	 0.355915
O	-1.6650327765	-1.2770506697	-1.3358744701	-0.491113
H	-0.645666803	 1.4141985287	 1.3630667739	 0.289785
H	 0.4950012462	 0.1369726388	-0.8645350285	 0.08745
H	 1.2899929778	-1.5308303875	 0.7474684975	 0.108158
H	 0.678721917	-0.5218747958	 2.0723610815	 0.099158
H	-0.8864152791	-2.7430027618	 0.7254156292	 0.085198
H	-2.7141290499	-2.1314054384	 2.18634425	 0.098313
H	-1.4002197078	-1.4339085059	 3.1696492216	 0.110517
H	-3.5394210567	-0.5470685812	 0.2869316364	 0.099939
H	-2.7243054919	 1.0507992443	 0.3048550666	 0.114376
H	-1.7516349577	-0.5677086516	-1.9826942681	 0.282242
68.9979	215.2956	227.229	270.1218	323.9711	337.7283	391.1458	445.6333	488.883	546.6976	560.4562	618.31	700.1098	788.6638	846.7099	883.0379	899.406	931.8378	965.3802	1013.8771	1051.6579	1069.8637	1085.8165	1114.8669	1136.5118	1161.1673	1180.8306	1186.8483	1221.1829	1257.3029	1275.6135	1283.071	1308.5797	1320.9097	1342.2136	1359.5818	1405.8054	1438.053	1471.8771	1496.6657	1511.6215	2989.1376	2994.4923	3052.2689	3073.5837	3093.0938	3104.4317	3108.4854	3120.9022	3757.0926	3797.2256
OC1CC2COCC12O	O[C@H]1C[C@H]2COC[C@@]12O	
InChI=1S/C6H10O3/c7-5-1-4-2-9-3-6(4,5)8/h4-5,7-8H,1-3H2	InChI=1S/C6H10O3/c7-5-1-4-2-9-3-6(4,5)8/h4-5,7-8H,1-3H2/t4-,5-,6-/m0/s1
