20
gdb 110803	2.28376	1.36531	1.04394	4.1135	82.79	-0.2745	0.0284	0.3028	1231.8007	0.171736	-366.00278	-365.994029	-365.993084	-366.03649	33.007	
C	-0.2231469814	 1.5273988137	 0.2266778196	-0.378764
C	 0.1940800255	 0.0876152569	-0.0966751907	-0.216458
C	 0.8151446535	-0.6045049056	 1.1019745409	 0.019149
C	 0.0695249854	-1.2640805635	 2.23064553	-0.071138
C	-1.1537009128	-2.0410239466	 1.7264031289	-0.260358
C	-0.199894384	-2.9316254492	 0.8491569341	-0.14508
C	-0.4623017757	-3.072180409	-0.5788315945	 0.279546
N	-0.6773292575	-3.1906209361	-1.709104405	-0.341654
C	 0.9980452572	-2.0828320251	 1.3177741995	-0.111082
H	 0.6335727215	 2.1235251443	 0.5604128535	 0.113315
H	-0.6502409421	 2.0204574307	-0.6515700777	 0.117331
H	-0.9727369919	 1.5525665337	 1.0249299261	 0.117021
H	-0.6705936924	-0.4677494076	-0.4703967295	 0.117337
H	 0.9201880103	 0.0877350657	-0.9187462013	 0.109037
H	 1.6857330462	-0.0676491661	 1.4797738396	 0.091083
H	 0.224912529	-0.9861324291	 3.265680945	 0.093658
H	-1.6468993489	-2.6323881337	 2.4989600643	 0.118812
H	-1.9114083369	-1.4677915295	 1.18700671	 0.121228
H	-0.1401806216	-3.9356180208	 1.2771930914	 0.129163
H	 1.9693820466	-2.5122790533	 1.5309508958	 0.097856
75.933	100.6403	144.1356	207.5097	218.5621	285.2406	312.4406	452.4901	488.8412	529.9434	595.3887	699.8716	739.1412	796.7123	806.1024	822.963	892.0903	945.9192	971.8587	988.9438	1011.1282	1031.5152	1059.3269	1075.0838	1081.6142	1091.321	1127.5536	1159.7012	1217.2754	1221.6366	1263.2337	1293.9515	1299.1777	1331.6622	1342.0612	1368.2553	1412.354	1457.7761	1479.2171	1498.8089	1501.0159	1509.853	2348.6004	3031.1578	3039.3389	3073.6334	3076.6119	3082.4728	3100.3804	3107.7902	3113.5079	3129.3473	3180.3361	3191.7816
CCC1C2CC(C#N)C12	CC[C@H]1[C@H]2C[C@@H](C#N)[C@@H]12	
InChI=1S/C8H11N/c1-2-6-7-3-5(4-9)8(6)7/h5-8H,2-3H2,1H3	InChI=1S/C8H11N/c1-2-6-7-3-5(4-9)8(6)7/h5-8H,2-3H2,1H3/t5-,6-,7+,8-/m0/s1
