18
gdb 93990	3.07209	1.37445	0.97136	5.6548	77.72	-0.2308	0.0069	0.2378	1200.8232	0.149077	-435.311575	-435.3026	-435.301656	-435.345722	31.542	
C	-0.1469145817	 1.4222681633	 0.1030816812	-0.340356
N	-0.0313221137	-0.0098385305	 0.2434381825	-0.125025
C	-1.1302399198	-0.8977192995	-0.0717270763	-0.178008
C	-0.4972261977	-2.2831526454	 0.1413865648	-0.186273
N	 0.9272763578	-2.0139232086	-0.0288680929	-0.139663
C	 1.8442984296	-3.0494607161	-0.1125356484	 0.08085
N	 3.1034756175	-2.9024802307	-0.1610410566	-0.42041
C	 1.1996674784	-0.6326161431	 0.0983793283	 0.499228
O	 2.2753176728	-0.0908346933	 0.0931933293	-0.385349
H	 0.8446298173	 1.8510962426	 0.255385997	 0.169253
H	-0.5071529851	 1.7063571966	-0.8969019951	 0.116427
H	-0.8385786025	 1.8299998529	 0.848173037	 0.12317
H	-1.9891410568	-0.7330257125	 0.5864583973	 0.119184
H	-1.4707432722	-0.7624573432	-1.1111464191	 0.107964
H	-0.7083505566	-2.6594492015	 1.1508313896	 0.123031
H	-0.8555628565	-3.0193421559	-0.5827841679	 0.125961
H	 1.3213339869	-4.0154625613	-0.1433387772	 0.085109
H	 3.5475009725	-3.8162934138	-0.2351155035	 0.224907
68.4796	121.4609	155.5783	166.1319	203.9976	210.2774	214.0142	318.5356	463.839	515.9858	602.6079	705.9361	757.3749	759.8936	811.69	877.2285	983.2091	1009.1704	1059.1608	1083.1066	1123.5067	1146.7871	1165.4076	1216.5261	1231.0985	1257.9321	1296.8167	1312.9761	1346.8969	1425.125	1428.0743	1437.6078	1451.1599	1492.5972	1512.4788	1525.7181	1541.2347	1722.8442	1852.1909	2970.3943	2996.1233	3010.552	3018.8684	3065.9904	3066.6137	3088.3481	3147.427	3498.1058
CN1CCN(C=N)C1=O	CN1CCN([CH][NH])C1=O	
InChI=1S/C5H9N3O/c1-7-2-3-8(4-6)5(7)9/h4,6H,2-3H2,1H3	InChI=1S/C5H9N3O/c1-7-2-3-8(4-6)5(7)9/h4,6H,2-3H2,1H3
