25
gdb 70733	2.29672	1.50077	1.12632	0.1699	92.05	-0.2504	0.0846	0.335	1234.8047	0.231655	-352.371491	-352.362717	-352.361773	-352.404106	36.088	
C	-0.0622731404	 1.5130180549	 0.0770129229	-0.460413
C	-0.0198595446	-0.0029721547	-0.0058925293	 0.381153
C	-0.8603199516	-0.7677218033	 0.9931924518	-0.365699
C	 0.6454578266	-0.7424520559	 1.1339033595	-0.023315
C	 1.4948054846	-1.9801441888	 0.9019891068	-0.225075
C	 2.7549115108	-1.7101617769	 0.0585490377	-0.175115
C	 2.499904638	-1.6291666338	-1.4555289644	-0.177494
C	 1.5880891825	-0.4940081493	-1.9496845651	-0.180272
C	 0.1410580172	-0.5502464615	-1.4208213949	-0.27327
H	 0.8348881218	 1.9688320089	-0.3577287639	 0.113651
H	-0.929734843	 1.9122789809	-0.462713513	 0.110898
H	-0.1319260277	 1.8523806093	 1.1154696067	 0.10954
H	-1.4611046908	-0.2063604006	 1.702037544	 0.10168
H	-1.3160382807	-1.6989770559	 0.669286649	 0.102575
H	 1.0295049084	-0.1008662791	 1.9249134765	 0.073442
H	 1.7866288641	-2.3894989487	 1.8770728377	 0.090982
H	 0.9024098851	-2.7665760809	 0.4176235368	 0.089614
H	 3.2331316566	-0.7842198005	 0.4064906955	 0.088824
H	 3.482468758	-2.5122489071	 0.2353553904	 0.086371
H	 3.4673733294	-1.5401041952	-1.9659563037	 0.087667
H	 2.0740813923	-2.587509598	-1.7870141528	 0.089025
H	 2.0362335226	 0.4753315711	-1.6946303485	 0.092363
H	 1.5662769407	-0.5339559204	-3.0458724749	 0.086797
H	-0.216264505	-1.5857701304	-1.4722481379	 0.088569
H	-0.514167865	 0.0229944758	-2.0896374471	 0.087503
136.2532	164.76	214.1547	251.0335	305.4753	319.1981	344.4261	364.8739	412.8873	432.1835	499.7701	537.8872	682.2423	746.7913	793.7865	842.3102	874.3018	883.4954	895.9579	925.2576	935.8373	969.7199	990.614	1011.7151	1053.1156	1054.9833	1077.3086	1094.7057	1108.0363	1118.7076	1154.0505	1190.6842	1216.772	1246.6627	1275.6954	1285.8329	1314.685	1326.7841	1364.1496	1377.8195	1380.9929	1387.7541	1391.5073	1417.6406	1433.3797	1480.1838	1483.1364	1483.9308	1487.3829	1493.6546	1496.9607	1503.3236	1508.691	2999.7169	3009.2121	3011.1934	3014.7077	3018.9942	3021.9118	3044.2292	3047.7605	3050.9054	3052.4931	3060.7203	3077.7928	3095.0205	3116.7505	3120.0281	3200.0818
CC12CC1CCCCC2	C[C@]12C[C@H]1CCCCC2	
InChI=1S/C9H16/c1-9-6-4-2-3-5-8(9)7-9/h8H,2-7H2,1H3	InChI=1S/C9H16/c1-9-6-4-2-3-5-8(9)7-9/h8H,2-7H2,1H3/t8-,9+/m1/s1
