22
gdb 58873	2.52681	1.28365	1.16976	1.6724	81.32	-0.2357	0.0814	0.317	1219.7699	0.193649	-404.309289	-404.29986	-404.298916	-404.343276	36.37	
C	-1.1611446343	 0.4670533598	-0.1066212041	-0.419766
C	 0.3259258053	 0.1212480489	-0.1865641908	 0.038758
O	 1.0913639766	 1.2570657869	-0.5892650673	-0.43396
C	 0.9124833374	-0.43847688	 1.0905535608	 0.30014
C	 0.159408832	-0.8078037595	 2.3058924009	-0.296661
N	 0.9611492832	 0.4304170673	 2.3500242812	-0.178153
C	 2.3813754793	-0.0306449388	 2.5568314362	-0.18169
C	 2.3974525326	-0.8138627196	 1.2154045432	-0.037054
C	 2.8098508692	-2.2795479358	 1.1822535626	-0.416273
H	-1.3536909037	 1.164451101	 0.716414503	 0.128127
H	-1.4693254354	 0.9459978756	-1.0391322474	 0.124334
H	-1.7750485993	-0.4261272802	 0.0457347021	 0.113903
H	 0.4804871802	-0.6160013635	-0.98561259	 0.088552
H	 1.0886194615	 1.8559018565	 0.1687616599	 0.285785
H	-0.9090382316	-0.6225755025	 2.3204515697	 0.12032
H	 0.4735060916	-1.6552893146	 2.9123304347	 0.108059
H	 3.0596403537	 0.824151016	 2.5919706154	 0.108407
H	 2.5095997279	-0.6229239288	 3.4703912335	 0.100622
H	 2.9614618337	-0.2513699114	 0.467231024	 0.097107
H	 2.2603799117	-2.8775864652	 1.9167406682	 0.11261
H	 2.6303570218	-2.7167073335	 0.1937632196	 0.119301
H	 3.8778600565	-2.3877711685	 1.4011734247	 0.117533
57.7073	134.4435	183.876	199.5409	228.435	265.7025	294.9865	376.5214	393.8939	442.2931	476.5818	492.7434	609.2349	621.2012	698.3335	780.4872	843.6671	870.8358	887.6785	916.1231	949.9855	989.2388	1033.0497	1071.4815	1081.7736	1097.8466	1107.8683	1125.9106	1143.2502	1165.0212	1202.8904	1224.0518	1268.6234	1285.0149	1307.8536	1361.5094	1366.1135	1397.7784	1401.7745	1412.2162	1424.5874	1490.9799	1493.8333	1495.1398	1498.8268	1504.0227	1517.9282	3024.8632	3027.5508	3034.9404	3036.8328	3074.3409	3093.2436	3098.9859	3104.9999	3106.0594	3110.7014	3124.0368	3203.152	3769.6208
CC(O)C12CN1CC2C	C[C@@H](O)[C@]12CN1C[C@H]2C	
InChI=1S/C7H13NO/c1-5-3-8-4-7(5,8)6(2)9/h5-6,9H,3-4H2,1-2H3	InChI=1S/C7H13NO/c1-5-3-8-4-7(5,8)6(2)9/h5-6,9H,3-4H2,1-2H3/t5-,6-,7-,8?/m1/s1
