23
gdb 92213	2.8926	1.63283	1.49615	0.1598	87.55	-0.2734	0.0857	0.3591	1032.0988	0.210437	-351.163325	-351.156156	-351.155211	-351.194395	30.913	
C	-0.3973944843	 1.5406104115	 0.0029737609	-0.405054
C	-0.0130819647	 0.0580274189	-0.0332738307	 0.011789
C	 0.7565025144	-0.4107005496	-1.3144610858	-0.236839
C	 2.1369346761	-0.8316530223	-0.7747134806	-0.005452
C	 2.8248494186	 0.4361090825	-0.1793308436	-0.219097
C	 2.3355031768	 0.2768175011	 1.2745334347	-0.032415
C	 2.8736410266	-1.1485574548	 1.5900809933	-0.237469
C	 1.8024871088	-1.5704487341	 0.5594286368	-0.033412
C	 0.9235023241	-0.403366499	 1.0942663983	 0.009225
H	 0.4798956318	 2.1923074681	-0.0551666747	 0.117774
H	-1.0572055835	 1.7970817124	-0.8328544002	 0.110228
H	-0.928338407	 1.7849576604	 0.9299517898	 0.108944
H	-0.9411958723	-0.5209144691	 0.0512549957	 0.066324
H	 0.2433474623	-1.258256365	-1.7826383329	 0.087863
H	 0.8350863459	 0.3767482228	-2.0718056557	 0.089099
H	 2.7474565882	-1.3867267085	-1.4896891259	 0.052181
H	 3.9173668321	 0.3979786977	-0.2356385769	 0.089375
H	 2.5005524369	 1.3572136216	-0.6706028161	 0.089034
H	 2.4914478753	 1.1125568907	 1.9580824099	 0.053577
H	 3.9280616876	-1.35340959	 1.3783105202	 0.082935
H	 2.62563091	-1.4857289091	 2.5998169453	 0.091158
H	 1.4285475247	-2.5927059458	 0.4784813188	 0.053117
H	 0.4360005115	-0.5916902905	 2.0534570694	 0.057115
160.2123	212.2762	232.0427	371.7656	382.7322	448.4957	473.2655	567.3648	637.6024	743.7439	791.2114	821.771	825.719	845.7394	862.956	892.4099	930.4519	942.8894	951.3526	960.5165	986.12	999.5415	1020.986	1041.7843	1062.9474	1087.6109	1096.8152	1112.7255	1128.2876	1175.8449	1189.7151	1199.2803	1219.3734	1234.524	1251.7501	1268.967	1284.1932	1302.5156	1317.9198	1324.8281	1347.5616	1356.1442	1374.6587	1411.3675	1491.4837	1497.2076	1500.0865	1502.2321	1522.2417	3012.9739	3028.7716	3035.6585	3042.8569	3048.2427	3073.8135	3083.2804	3084.7472	3090.3136	3092.0365	3098.1834	3101.4987	3107.041	3108.5617
CC1CC2CC3CC2C13	C[C@H]1C[C@H]2C[C@@H]3C[C@H]2[C@H]13	
InChI=1S/C9H14/c1-5-2-6-3-7-4-8(6)9(5)7/h5-9H,2-4H2,1H3	InChI=1S/C9H14/c1-5-2-6-3-7-4-8(6)9(5)7/h5-9H,2-4H2,1H3/t5-,6-,7+,8+,9+/m0/s1
