18
gdb 81622	4.60901	0.91327	0.83506	4.4415	75.13	-0.2514	0.0207	0.2721	1387.2085	0.146858	-439.036439	-439.027943	-439.026999	-439.070468	31.534	
C	-0.0382180754	 1.671144509	 0.1633154018	-0.434306
C	-0.0247430386	 0.1598590374	 0.026580731	 0.024029
C	 1.1836789455	-0.5266749589	-0.6777612901	 0.001572
O	 2.0262398909	-0.1782580449	 0.4862918608	-0.297477
C	 0.7658786952	-0.6882976289	 1.0673829756	 0.001562
C	 0.8681699719	-1.8665279369	 0.0526902153	 0.081971
N	-0.2526239711	-2.6933151129	-0.2921872618	-0.318004
C	-0.1646221943	-4.0533116774	-0.3972439654	 0.155126
O	 0.8365388256	-4.7093598041	-0.2187177353	-0.311946
H	 0.952914377	 2.0390020473	 0.4347182365	 0.144056
H	-0.3416324384	 2.1433339721	-0.7771103241	 0.118246
H	-0.751175697	 1.9849490359	 0.9331470583	 0.118244
H	-1.014988339	-0.2238863928	-0.246035498	 0.052625
H	 1.6009368014	-0.3569877217	-1.6711272676	 0.098217
H	 0.6849659213	-0.7113199126	 2.1548559677	 0.098214
H	 1.7388082315	-2.5000841633	 0.2024456841	 0.139074
H	-1.1513734144	-2.2743597246	-0.4684454772	 0.252205
H	-1.140460372	-4.5008264925	-0.6724903617	 0.076591
29.9053	141.5861	178.4868	219.3612	234.9087	275.1576	331.4602	418.4584	521.5967	556.9549	636.7032	752.2307	752.3549	797.8223	798.4918	888.241	900.4888	954.9524	1013.2537	1030.0858	1059.5868	1081.9134	1085.3215	1134.6559	1143.3854	1152.8081	1196.5906	1205.8229	1219.8915	1258.9528	1274.7193	1349.5819	1397.2191	1414.0221	1435.7699	1492.66	1505.0354	1530.9621	1814.0018	2934.4009	3032.1426	3041.4957	3096.0811	3112.1383	3117.3667	3139.0191	3169.4401	3635.8508
CC1C2OC1C2NC=O	C[C@H]1[C@H]2O[C@@H]1[C@H]2NC=O	
InChI=1S/C6H9NO2/c1-3-5-4(7-2-8)6(3)9-5/h2-6H,1H3,(H,7,8)	InChI=1S/C6H9NO2/c1-3-5-4(7-2-8)6(3)9-5/h2-6H,1H3,(H,7,8)/t3-,4-,5+,6-
