18
gdb 80375	2.36453	1.6859	1.20454	1.932	78.04	-0.2305	0.0262	0.2567	1067.2103	0.145043	-401.853047	-401.844121	-401.843177	-401.886072	34.391	
C	-0.2051134172	 1.4126020283	-0.240984183	-0.319883
N	 0.0957878184	 0.0117337151	 0.0158032933	-0.075705
C	 1.3953948658	-0.588822657	-0.1477290648	-0.045519
C	 2.5452190662	 0.3183988204	 0.331754647	-0.318056
C	 1.892078341	 0.340796274	 1.7638737166	 0.231111
O	 2.5816217592	-0.5103498164	 2.6715059414	-0.461052
C	 1.6182409926	 1.6321924001	 2.3834127343	 0.28919
C	 1.4486644189	 2.6928901708	 2.9257756786	-0.486592
C	 0.7171509181	-0.5059076947	 1.2005320492	-0.087697
H	 0.5923875534	 2.1202907524	 0.0164006169	 0.118279
H	-0.4360821063	 1.521816184	-1.3052352152	 0.12053
H	-1.0956139875	 1.688391336	 0.3310968907	 0.128706
H	 1.4998231076	-1.4367300578	-0.8156512417	 0.096596
H	 3.5028577016	-0.2017319503	 0.3865553615	 0.116682
H	 2.6707623271	 1.2732576596	-0.1849060028	 0.103701
H	 3.2849807792	 0.0068762742	 3.0794756437	 0.283898
H	 1.276875681	 3.6274351031	 3.4006614888	 0.2008
H	 0.2160891209	-1.258193692	 1.8003414955	 0.105011
114.7949	138.8387	181.4667	207.0574	255.2114	268.4187	310.4499	398.3452	462.6312	472.0479	530.9301	607.4982	629.0854	646.8494	665.7454	728.348	831.9344	842.0531	913.0142	922.3329	982.6032	1002.7743	1037.2953	1051.2491	1096.4673	1120.2359	1157.7593	1185.6058	1203.6077	1226.7256	1243.368	1278.9257	1356.7296	1394.2207	1452.815	1469.6272	1496.7884	1498.6066	2223.2665	3018.5829	3066.1584	3083.8809	3110.6731	3131.9177	3167.4181	3178.5106	3497.9974	3805.4967
CN1C2CC(O)(C#C)C12	CN1[C@H]2C[C@@](O)(C#C)[C@@H]12	
InChI=1S/C7H9NO/c1-3-7(9)4-5-6(7)8(5)2/h1,5-6,9H,4H2,2H3	InChI=1S/C7H9NO/c1-3-7(9)4-5-6(7)8(5)2/h1,5-6,9H,4H2,2H3/t5-,6-,7-,8?/m0/s1
