21
gdb 104817	2.06763	1.43377	1.23822	1.1424	78.36	-0.2501	-0.0287	0.2214	1189.3245	0.179569	-424.237338	-424.227243	-424.226299	-424.272387	36.642	
C	 0.2363047608	 1.4881188285	-0.043447763	-0.411944
C	 0.0291619394	-0.0283214901	-0.0126687588	-0.216385
C	-1.4351678885	-0.4773479519	-0.0453145911	 0.271699
C	-1.5674761703	-2.0002615817	 0.055679638	-0.216421
C	-3.0074871822	-2.5181457327	 0.0958229153	-0.411933
O	-2.2470840586	 0.2149771254	 0.960730215	-0.324381
C	-3.0919528022	 0.8661183827	-0.0075233115	-0.192849
C	-2.3053494998	 0.189446067	-1.131645605	 0.330597
O	-2.3388489793	 0.1758479049	-2.3246571332	-0.295122
H	 1.2993641739	 1.7319330405	 0.0364183647	 0.117407
H	-0.1321784525	 1.9273834315	-0.9766548405	 0.126494
H	-0.2847001248	 1.9642908151	 0.7914498067	 0.134213
H	 0.5375580322	-0.4989853381	-0.8627261344	 0.115075
H	 0.4832551784	-0.4451139472	 0.8950222537	 0.109561
H	-1.0304466626	-2.4352095806	-0.7957953761	 0.11508
H	-1.034352511	-2.3198235058	 0.9598239027	 0.109536
H	-3.5530579811	-2.0726217605	 0.9319443768	 0.134222
H	-3.5455837581	-2.28801922	-0.8299754909	 0.126466
H	-3.021294598	-3.6043608539	 0.2217790784	 0.11741
H	-4.1454977139	 0.5687844351	 0.0707862068	 0.130626
H	-3.0173671518	 1.9606662018	 0.0225053665	 0.13065
84.2449	87.7118	120.5143	146.9177	172.5065	217.2553	253.2323	284.3926	304.3774	388.4517	461.1366	497.5205	570.458	646.5497	687.8005	764.868	793.9697	887.7131	906.892	959.5706	984.5389	1012.3445	1044.0245	1057.0046	1080.2885	1083.2173	1135.7488	1150.6474	1171.1203	1238.4945	1285.311	1292.7385	1340.4657	1356.3748	1379.1771	1403.9336	1409.8399	1460.9477	1475.3426	1476.1945	1498.7641	1499.6169	1511.9268	1513.9494	1915.0646	3014.9395	3023.5631	3030.8366	3039.8074	3040.685	3062.6237	3062.9961	3072.0402	3107.1209	3107.6426	3122.6891	3123.4229
CCC1(CC)OCC1=O	CCC1(CC)OCC1=O	
InChI=1S/C7H12O2/c1-3-7(4-2)6(8)5-9-7/h3-5H2,1-2H3	InChI=1S/C7H12O2/c1-3-7(4-2)6(8)5-9-7/h3-5H2,1-2H3
