18
gdb 54178	2.79076	1.05534	0.95873	4.799	74.89	-0.2501	-0.0292	0.2208	1288.6937	0.145697	-439.123561	-439.113952	-439.113008	-439.158249	35.05	
C	 0.0269767399	 1.514959541	-0.2900349883	-0.509382
C	 0.1157798302	 0.0068472533	-0.1368805634	 0.192759
C	 1.4619039313	-0.6535820257	-0.0490265079	-0.319744
C	 0.5958043542	-0.6267443729	 1.1887823311	-0.114468
C	 0.9850497874	 0.2181842561	 2.3409712714	 0.154427
O	 0.7082845518	-0.0342641948	 3.4876788432	-0.263593
C	-0.9408014186	-0.8529281583	-0.8051350462	 0.38482
N	-1.9504970033	-0.1846687333	-1.4325801465	-0.547433
O	-0.8802622327	-2.0695426627	-0.7960213246	-0.371937
H	 0.8949499948	 2.0150646393	 0.1440648869	 0.132178
H	-0.0026923783	 1.7917325566	-1.3495513064	 0.132888
H	-0.8612937972	 1.9288049292	 0.2016043532	 0.129869
H	 1.5740446718	-1.6163302812	-0.5313595356	 0.153838
H	 2.3316523438	-0.0042658891	-0.0661274677	 0.119501
H	 0.095671019	-1.5512337818	 1.4516574005	 0.134368
H	 1.5884562022	 1.1203079139	 2.0873876475	 0.065173
H	-2.0893209183	 0.8051387125	-1.3409563852	 0.261489
H	-2.697724368	-0.7406844722	-1.8155042419	 0.265248
55.2338	98.0109	131.3839	207.0739	231.6446	259.2983	300.6224	330.2079	375.4386	384.4496	438.6203	503.2768	562.4708	590.9536	675.1784	770.378	824.4309	873.8961	911.2677	960.9522	1017.5288	1059.6072	1080.5391	1091.5216	1094.0541	1112.79	1183.0275	1218.7655	1301.5905	1341.4456	1386.2237	1418.4863	1448.6831	1462.191	1499.2464	1512.1476	1617.8633	1779.8263	1816.3349	2859.3599	3028.5694	3088.1401	3121.2037	3136.143	3197.6019	3240.1091	3609.8588	3745.7426
CC1(CC1C=O)C(N)=O	C[C@]1(C[C@H]1C=O)C(=O)N	
InChI=1S/C6H9NO2/c1-6(5(7)9)2-4(6)3-8/h3-4H,2H2,1H3,(H2,7,9)	InChI=1S/C6H9NO2/c1-6(5(7)9)2-4(6)3-8/h3-4H,2H2,1H3,(H2,7,9)/t4-,6+/m0/s1
