18
gdb 19209	2.60904	2.55242	2.5287	2.2488	65.52	-0.2462	0.0731	0.3193	737.7541	0.157832	-384.954945	-384.948587	-384.947643	-384.985722	25.202	
C	-0.0345389067	 1.5420114381	 0.0110076517	-0.213415
C	 1.4372784708	 2.041070789	-0.0010142021	-0.230495
C	 2.3435574184	 0.80464628	-0.0166494055	 0.208632
O	 2.1389976943	 0.0292335637	 1.1484946741	-0.270897
C	 0.7968399069	-0.4702447856	 1.225481913	-0.057196
C	 0.0039471564	 0.003681947	 0.0023890378	-0.069599
C	 0.7722463222	-0.4570424539	-1.2412707256	-0.057198
O	 2.1157354178	 0.041698191	-1.185697845	-0.270896
H	-0.5667834489	 1.8989953514	 0.8981367699	 0.100456
H	-0.5843501582	 1.9084172261	-0.8614450212	 0.100456
H	 1.6520968295	 2.6506716067	-0.882988423	 0.107294
H	 1.6697136117	 2.6412595816	 0.8829458923	 0.107294
H	 3.4045142567	 1.0607971705	-0.025854682	 0.085316
H	 0.8390701626	-1.5670258335	 1.265868341	 0.09974
H	 0.3359420411	-0.1147468408	 2.157500691	 0.094602
H	-1.0016963247	-0.4270425647	 0.0101105969	 0.071565
H	 0.8135275071	-1.5533235601	-1.2942404761	 0.099741
H	 0.292909293	-0.0916196565	-2.1600569671	 0.094601
54.791	289.1981	310.4641	386.6379	426.3662	526.3514	593.8498	691.4214	815.9238	823.9113	841.4622	882.7038	888.2113	941.518	967.7983	974.9033	1024.8162	1042.3946	1066.7227	1095.6914	1109.4686	1163.8709	1200.0345	1220.1991	1224.6005	1263.195	1286.2524	1341.3143	1348.3364	1351.6146	1361.7396	1378.7064	1411.1379	1418.3411	1477.2154	1501.9529	1519.8874	1534.5569	2996.4917	2999.596	3029.7535	3034.1226	3042.7372	3058.8307	3069.996	3079.6863	3103.9916	3107.5554
C1CC2OCC1CO2	C1C[C@H]2OC[C@@H]1CO2	
InChI=1S/C6H10O2/c1-2-6-7-3-5(1)4-8-6/h5-6H,1-4H2	InChI=1S/C6H10O2/c1-2-6-7-3-5(1)4-8-6/h5-6H,1-4H2/t5-,6+
