20
gdb 114443	3.74305	1.24414	1.11959	2.6605	77.25	-0.2316	0.0743	0.3059	1136.6351	0.173333	-403.102835	-403.095202	-403.094258	-403.134933	30.485	
O	-0.1126082045	 1.4827750311	-0.0549397495	-0.422115
C	 0.0392531854	 0.0758102855	 0.0898870519	-0.105665
C	-1.3461626018	-0.5436056742	-0.0045900382	 0.043758
C	-2.0742531553	-0.2919614247	-1.3527441492	-0.172366
N	-2.9173911177	-1.483823867	-1.6060831056	-0.099106
C	-2.2073108013	-2.7594921875	-1.798107191	-0.034042
C	-0.7981305044	-2.7501311505	-1.1936221624	-0.258142
C	-1.4055919912	-2.074948363	 0.084211264	-0.084488
C	-2.8174402823	-2.4040070463	-0.4817103649	-0.065013
H	 0.7605667676	 1.8848401105	-0.0334563491	 0.286925
H	 0.6932771881	-0.332604966	-0.6966503969	 0.08533
H	 0.4974901008	-0.1748469359	 1.0604586697	 0.084291
H	-1.9493554083	-0.1210956112	 0.8097254809	 0.080229
H	-2.7168117997	 0.5900299716	-1.3137902247	 0.115587
H	-1.3692238658	-0.1454434473	-2.1779769328	 0.103028
H	-2.567469735	-3.411906284	-2.5862668558	 0.087997
H	-0.459274706	-3.767869839	-0.9842588502	 0.105021
H	-0.0071416941	-2.2206684844	-1.7349330161	 0.092885
H	-1.108235307	-2.5009170708	 1.0426063821	 0.068006
H	-3.6997910074	-2.7582476871	 0.0378542678	 0.08788
100.768	153.2646	193.2746	276.3826	335.2419	411.5712	421.4647	473.1234	626.2624	705.4558	742.3817	807.1484	828.536	848.8051	887.981	917.0467	939.9892	960.7934	969.3563	1009.9686	1028.5678	1044.1132	1060.3441	1080.9083	1098.8783	1130.5208	1149.4507	1181.5594	1200.5456	1224.7872	1250.3371	1250.7367	1257.0445	1275.4669	1293.9438	1319.5526	1326.5091	1362.6067	1388.9155	1461.4496	1487.0639	1505.8962	1523.0718	2963.5087	2990.4367	3024.7721	3044.4161	3053.962	3099.0627	3105.1365	3113.3104	3164.6676	3183.8641	3830.2815
OCC1CN2C3CC1C23	OC[C@H]1CN2[C@H]3C[C@@H]1[C@@H]23	
InChI=1S/C7H11NO/c9-3-4-2-8-6-1-5(4)7(6)8/h4-7,9H,1-3H2	InChI=1S/C7H11NO/c9-3-4-2-8-6-1-5(4)7(6)8/h4-7,9H,1-3H2/t4-,5+,6+,7-,8?/m1/s1
