14
gdb 123785	6.23826	0.88353	0.82452	1.6601	68.54	-0.2517	-0.0678	0.1839	1342.6634	0.099517	-469.909998	-469.902467	-469.901523	-469.943072	27.149	
C	-0.0849472644	 1.4409839798	 0.0620070076	-0.268484
C	 1.3414545089	 0.9648781623	 0.0286722731	-0.268475
C	 0.2129208517	-0.0395242936	 0.0149413134	 0.045583
N	-0.0046723723	-0.7755929936	 1.2182270323	-0.345237
C	-0.3983702887	-1.9529642831	 1.1888141498	 0.571193
O	-0.6958412185	-2.7697576587	 0.1128162871	-0.237121
N	-1.0938053746	-3.9990727551	 0.638135887	 0.06013
N	-1.0534177242	-3.9633485521	 1.8706433956	 0.0701
O	-0.6288346931	-2.7207208913	 2.3098346001	-0.230167
H	-0.464565628	 1.826595094	 1.0004403292	 0.129716
H	-0.5071356477	 1.8967842832	-0.8262880497	 0.119377
H	 1.914719032	 1.0882330473	-0.8830420104	 0.119371
H	 1.9157138173	 1.0323619259	 0.9447118885	 0.129713
H	 0.0190679117	-0.5546269049	-0.9229421736	 0.104301
51.4885	130.4438	130.4804	197.0251	328.8089	449.1144	459.6004	634.5454	688.9221	726.1336	760.0737	785.0695	823.3169	864.148	912.8257	938.0205	975.456	1036.2459	1047.5086	1060.5411	1075.3086	1122.2379	1159.982	1198.8206	1202.3755	1235.7268	1409.9222	1459.2018	1495.7769	1571.2619	1863.993	3127.9915	3142.596	3146.8386	3228.6729	3242.5201
C1CC1N=C1ON=NO1	C1CC1N=c1onno1	
InChI=1S/C4H5N3O2/c1-2-3(1)5-4-8-6-7-9-4/h3H,1-2H2	InChI=1S/C4H5N3O2/c1-2-3(1)5-4-8-6-7-9-4/h3H,1-2H2
