18
gdb 44567	2.88901	1.65221	1.46503	1.6052	74.23	-0.2367	-0.027	0.2097	956.9283	0.149408	-401.934198	-401.927204	-401.92626	-401.965557	28.388	
O	-0.0298254264	-0.0295131384	 0.4717461407	-0.302622
C	-0.0618617684	 1.1357599013	 0.2020194879	 0.382884
C	-1.1923126133	 2.1469079525	-0.0772778469	-0.349861
C	-0.1102831898	 3.1014425031	-0.6601307346	-0.011654
C	 1.0281864192	 2.1914931006	-0.0907376511	-0.127277
C	 2.0405389338	 1.9610932103	-1.2252134564	-0.265224
C	 1.3134832649	 2.4536468857	-2.4756437681	-0.005625
C	 0.0179842836	 1.817184464	-2.8089939897	-0.26871
N	 0.0396293688	 3.1237166083	-2.1257882279	-0.100181
H	-2.0049106697	 1.8256198776	-0.7324578949	 0.136259
H	-1.6234998895	 2.5215751786	 0.8570330647	 0.133027
H	-0.1519463297	 4.1321869996	-0.3064913474	 0.086078
H	 1.4901918575	 2.5342224365	 0.8395578225	 0.104277
H	 2.9456928928	 2.5523873784	-1.0582284879	 0.112639
H	 2.3430159764	 0.9118167995	-1.3003241297	 0.12936
H	 1.9060269221	 2.9225915769	-3.2562166138	 0.093442
H	-0.3690683839	 1.8544632906	-3.8234725673	 0.120414
H	-0.2635478985	 0.9186259048	-2.2658154702	 0.132773
96.2277	185.3341	267.4405	347.6462	417.7013	466.2136	529.386	606.5549	662.9092	699.6578	734.574	774.1294	841.9321	847.6883	865.4419	913.2748	960.1906	967.5512	1019.6762	1029.5806	1040.881	1088.0185	1095.0224	1113.8153	1129.5774	1163.659	1172.9066	1195.7376	1222.6135	1244.0698	1267.7098	1281.0387	1327.773	1339.2283	1385.1568	1434.2304	1490.7424	1518.9464	1885.7363	3053.3687	3058.6774	3075.0592	3094.7585	3100.6094	3110.6127	3121.6197	3146.9885	3190.6899
O=C1CC2C1CC1CN21	O=C1C[C@H]2[C@@H]1C[C@H]1CN21	
InChI=1S/C7H9NO/c9-7-2-6-5(7)1-4-3-8(4)6/h4-6H,1-3H2	InChI=1S/C7H9NO/c9-7-2-6-5(7)1-4-3-8(4)6/h4-6H,1-3H2/t4-,5-,6-,8?/m0/s1
