16
gdb 125637	5.27889	0.87161	0.76008	2.2338	75.67	-0.2331	-0.0027	0.2303	1451.2597	0.124735	-434.085282	-434.076655	-434.075711	-434.11942	30.625	
C	-0.3913566697	 1.3150930535	 0.3076793927	-0.489314
C	-0.0503489875	-0.1180265067	 0.0488260077	 0.36662
N	 0.3315503634	-0.5115999619	-1.1625390342	-0.281316
N	 0.5532379715	-1.8432066323	-1.0380276129	-0.273952
C	 0.3312431388	-2.2824435234	 0.2194942809	 0.475608
O	 0.5546031344	-3.5919113662	 0.4959954584	-0.212301
C	-0.2604504468	-4.1945259609	 1.4123196362	 0.112076
N	 0.0400250826	-5.3418375655	 1.8268046661	-0.421826
C	-0.0652847372	-1.1987268887	 0.97140675	-0.425878
H	 0.2500639148	 1.7446975274	 1.0848203143	 0.130224
H	-0.2614282858	 1.8956474066	-0.6079123791	 0.14274
H	-1.4281222489	 1.4255417717	 0.6439686594	 0.128361
H	 0.8660016557	-2.3864932478	-1.8246898477	 0.28123
H	-1.1274760217	-3.5797473857	 1.674977625	 0.116402
H	-0.6682382953	-5.6760761966	 2.4771159573	 0.241375
H	-0.2949253483	-1.1768932333	 2.023597316	 0.10995
62.5663	100.2593	109.3274	139.2194	231.6063	319.9811	378.6898	432.7595	482.5744	495.9711	666.8592	688.8538	692.2636	778.4359	814.2085	836.8498	985.8221	1003.3602	1022.9886	1051.0581	1066.1101	1074.9968	1162.3147	1185.8726	1255.6231	1317.2989	1401.5106	1406.5153	1430.3095	1482.4245	1483.2011	1491.2138	1533.9221	1611.2193	1751.9671	3036.188	3075.1672	3088.0634	3134.3966	3269.1266	3523.7296	3677.4508
CC1=NNC(OC=N)=C1	Cc1n[nH]c(O[CH][NH])c1	
InChI=1S/C5H7N3O/c1-4-2-5(8-7-4)9-3-6/h2-3,6H,1H3,(H,7,8)	InChI=1S/C5H7N3O/c1-4-2-5(8-7-4)9-3-6/h2-3,6H,1H3,(H,7,8)
