17
gdb 83673	2.20501	1.73737	1.13996	5.6188	73.47	-0.2398	0.0106	0.2505	1085.8086	0.135908	-417.959237	-417.951085	-417.950141	-417.992267	29.911	
C	 0.0076994075	 1.5947820756	 0.1275343114	-0.340203
N	 0.0040360097	 0.1474981691	 0.1474795487	-0.074426
C	-1.0379170667	-0.5703058817	 0.9160243771	-0.05306
C	-1.5105582898	-1.8382417266	 0.1849475354	-0.072712
O	-0.3668455668	-2.5823271549	 0.6959256467	-0.279847
C	 0.0438025868	-1.4945849768	 1.5214213385	 0.091163
C	 1.0934282761	-0.5342854729	 0.8836948719	-0.1603
C	 2.1589473466	-1.101972145	 0.0611038209	 0.312662
N	 3.0128348317	-1.5451353303	-0.5785455389	-0.324582
H	 0.8731725781	 1.9481683033	-0.4413850046	 0.141962
H	-0.8932819303	 1.9554776537	-0.3777789338	 0.132558
H	 0.0476508984	 2.0517975873	 1.1338674007	 0.097927
H	-1.7451131958	 0.0439356636	 1.4761174174	 0.088436
H	-2.4491088025	-2.2689269158	 0.5541747263	 0.1073
H	-1.5154496055	-1.778094933	-0.9067271307	 0.124254
H	 0.1877384241	-1.7693877196	 2.5672306299	 0.099993
H	 1.5444597484	 0.099560144	 1.6646654431	 0.108873
80.018	136.2393	156.1262	205.2415	264.4227	301.013	363.9588	408.3713	538.3817	546.6885	716.0964	772.4825	820.4601	833.8659	923.7215	960.813	975.6912	1003.9627	1032.1904	1057.2546	1090.834	1146.06	1153.713	1177.313	1191.5809	1213.2586	1243.4951	1268.0989	1294.0262	1331.3992	1356.4361	1367.442	1455.0979	1491.2765	1499.3023	1503.7354	2361.4556	2933.8136	2970.5973	3027.7241	3068.2938	3093.5732	3102.5499	3106.6941	3111.8835
CN1C2COC2C1C#N	CN1[C@H]2CO[C@H]2[C@H]1C#N	
InChI=1S/C6H8N2O/c1-8-4(2-7)6-5(8)3-9-6/h4-6H,3H2,1H3	InChI=1S/C6H8N2O/c1-8-4(2-7)6-5(8)3-9-6/h4-6H,3H2,1H3/t4-,5+,6+/m1/s1
