17
gdb 124936	2.28226	1.83849	1.03121	3.3463	78.81	-0.2294	-0.0548	0.1745	1122.3102	0.136557	-418.065927	-418.057249	-418.056305	-418.100065	31.287	
C	 0.0321123371	 1.5191185147	-0.0239692542	-0.500513
C	-0.0023243962	 0.0128333319	-0.0131665349	 0.208549
C	-1.1784612707	-0.6854037279	 0.0076958716	 0.088459
C	-2.534476837	-0.0420229453	 0.021314143	-0.501822
C	-1.140983254	-2.147585077	 0.0148028995	 0.381819
O	-2.1051278317	-2.8985855465	 0.0305048227	-0.395037
N	 0.1538574765	-2.6689760268	 0.0022838681	-0.270158
N	 1.3182083962	-2.0123018935	-0.0181127594	-0.201092
C	 1.2319847847	-0.7135429042	-0.0254371682	-0.052742
H	 1.0568272299	 1.8950121972	-0.0712804238	 0.131841
H	-0.5177267237	 1.9220058091	-0.8815243379	 0.143589
H	-0.4382759274	 1.9322306257	 0.8755049145	 0.144429
H	-2.7120004447	 0.5323668351	-0.8960932857	 0.134251
H	-3.3013835087	-0.8128069649	 0.1025693636	 0.164879
H	-2.6379547409	 0.6568532463	 0.859104575	 0.130995
H	 0.2250948683	-3.6780774024	 0.0067649111	 0.272884
H	 2.1790283923	-0.1842153016	-0.042655125	 0.119669
41.7245	95.3521	124.9052	194.4676	266.4695	284.5648	331.9297	483.5349	509.6162	517.6857	566.5712	611.4384	673.6754	743.7345	780.4788	840.7077	902.124	936.5048	1008.9733	1030.9566	1069.0056	1118.2859	1174.0477	1180.2587	1245.5977	1324.2889	1396.6214	1412.0758	1417.5505	1436.9629	1479.0921	1479.7018	1490.2394	1498.3673	1581.9386	1650.8353	1761.9101	3027.7497	3034.2695	3075.7675	3088.3049	3122.0409	3150.6337	3185.8914	3594.707
CC1=C(C)C(=O)NN=C1	Cc1c(C)c(=O)[nH]nc1	
InChI=1S/C6H8N2O/c1-4-3-7-8-6(9)5(4)2/h3H,1-2H3,(H,8,9)	InChI=1S/C6H8N2O/c1-4-3-7-8-6(9)5(4)2/h3H,1-2H3,(H,8,9)
