16
gdb 36548	3.87403	1.01759	0.9037	6.4913	72.22	-0.2428	0.0311	0.2739	1284.1195	0.126274	-434.092605	-434.084304	-434.08336	-434.126849	29.367	
N	-0.1388594225	-0.8203236023	-0.5886770115	-0.320079
C	-0.012424091	 0.2459429854	-0.1612518137	 0.270158
C	 0.1600815487	 1.6046155532	 0.3807587279	-0.290323
N	 1.5235907397	 2.0982800125	 0.247587438	-0.384232
C	 1.8726323051	 2.5150633941	-0.8989678969	 0.52691
N	 3.1333500187	 2.9609621484	-1.230556365	-0.358725
C	 3.0765397021	 3.7165186757	-2.4717119992	-0.185958
C	 1.8508248925	 3.050266329	-3.1156422823	-0.08394
O	 1.0709595063	 2.5914916502	-1.9977974312	-0.246959
H	-0.5816408385	 2.2512189156	-0.1090701949	 0.14588
H	-0.0921359311	 1.5719913408	 1.445553472	 0.147962
H	 3.7224244636	 3.2518842331	-0.4667253198	 0.264601
H	 2.9133216779	 4.7917057692	-2.3096436695	 0.116523
H	 3.9806603975	 3.5861587366	-3.071669992	 0.129479
H	 1.2385758181	 3.7307563876	-3.7088008379	 0.132734
H	 2.133487053	 2.1852005109	-3.724470064	 0.135967
30.7811	91.5699	161.7123	207.479	215.2394	299.1131	373.0097	462.7154	514.8827	632.7359	686.8188	719.3889	737.4921	890.6457	911.7669	919.7111	956.4938	1005.2774	1047.4703	1069.5871	1113.5899	1142.2573	1220.6002	1238.0803	1255.2367	1290.5425	1343.2898	1357.4472	1418.5994	1444.0342	1474.583	1516.8923	1531.5911	1782.1693	2355.7829	2999.9395	3010.4571	3055.0392	3072.7878	3092.6109	3129.9346	3648.6697
N#CCN=C1NCCO1	N#CCN=C1NCCO1	
InChI=1S/C5H7N3O/c6-1-2-7-5-8-3-4-9-5/h2-4H2,(H,7,8)	InChI=1S/C5H7N3O/c6-1-2-7-5-8-3-4-9-5/h2-4H2,(H,7,8)
