18
gdb 79032	4.76454	1.36939	1.30262	1.8638	74.51	-0.2157	0.0682	0.2839	1007.9358	0.148842	-401.842618	-401.835946	-401.835002	-401.873322	27.823	
C	 0.061604721	 1.500441339	-0.2035746197	-0.328156
N	 0.0369124228	 0.0578499624	 0.0181744005	-0.115636
C	-1.0553682121	-0.4983982858	 0.8817071415	-0.037891
C	-0.1446384821	-1.7574315633	 1.1331864513	-0.052545
C	-0.4113572967	-2.2702630519	 2.5363814289	 0.00762
O	 0.5764158518	-1.8601716053	 3.5024069228	-0.255087
C	-0.5823837409	-1.0296360491	 3.2924892686	 0.009036
C	-0.389921011	 0.0296105516	 2.2186120926	-0.084522
C	 0.7324094886	-0.4759039132	 1.2466810944	-0.01602
H	 1.039532752	 1.7733317652	-0.6137362943	 0.122486
H	-0.6929704677	 1.7504836238	-0.9569203127	 0.120519
H	-0.1221375669	 2.1296470488	 0.6812929808	 0.096131
H	-2.1061483984	-0.4680590236	 0.5824792558	 0.079543
H	 0.0372780384	-2.4368151306	 0.3036010178	 0.082401
H	-0.9259152135	-3.2026031442	 2.7417485679	 0.102228
H	-1.2429639817	-0.9049244188	 4.1442071812	 0.100884
H	-0.4540183755	 1.0795262111	 2.4922276396	 0.078958
H	 1.8122232519	-0.4192984462	 1.3813435631	 0.090049
184.5058	216.6596	256.7294	335.4952	412.0722	505.6891	574.3749	680.8239	725.7621	769.3842	783.6082	800.2235	831.753	870.8121	895.9563	920.6321	934.9721	968.5375	1002.6923	1006.4533	1010.7382	1091.7916	1096.0643	1124.1594	1135.9256	1151.5691	1167.3044	1170.4552	1203.6822	1212.9647	1246.5506	1261.0119	1288.1819	1314.2482	1333.6611	1414.7503	1448.0467	1492.8123	1499.8027	2979.815	3063.1428	3082.3222	3097.0079	3120.218	3150.0372	3151.6937	3167.7271	3181.3313
CN1C2C3C4OC4C2C13	CN1[C@H]2[C@@H]3[C@H]4O[C@H]4[C@H]2[C@H]13	
InChI=1S/C7H9NO/c1-8-4-2-5(8)3(4)7-6(2)9-7/h2-7H,1H3	InChI=1S/C7H9NO/c1-8-4-2-5(8)3(4)7-6(2)9-7/h2-7H,1H3/t2-,3+,4-,5+,6-,7+
