16
gdb 56878	3.52053	0.95237	0.78298	2.2069	69.97	-0.2581	-0.0363	0.2218	1367.8623	0.1222	-437.896749	-437.887796	-437.886852	-437.931639	32.031	
O	-0.3296993378	 1.2622612488	 0.0552626777	-0.40796
C	 0.0274968317	-0.1049099045	 0.0079465731	-0.027509
C	 0.6985627832	-0.4424674263	-1.2664044664	 0.256923
N	 1.2544184989	-0.6849227008	-2.250051938	-0.31207
C	 0.8864398041	-0.5393021545	 1.1981752096	-0.005015
C	 0.2010161253	-0.3859555069	 2.5906972586	-0.372827
C	 0.4993295225	-1.8737578847	 2.8461597926	 0.409783
O	 0.3986751847	-2.5859222004	 3.7994586318	-0.276408
C	 1.0375259822	-2.0782763205	 1.4173678755	-0.371199
H	 0.4724367692	 1.791192186	-0.028598205	 0.296991
H	-0.9240971058	-0.6498015174	 0.0373689515	 0.139325
H	 1.8542756675	-0.0327667253	 1.1479654351	 0.095179
H	 0.6555570453	 0.311460017	 3.2983058849	 0.139544
H	-0.8705853069	-0.1661780492	 2.5370878867	 0.145708
H	 0.3708550755	-2.6890049806	 0.7979605487	 0.142513
H	 2.0438748404	-2.4970677607	 1.3476389235	 0.147023
35.6281	66.8544	125.9757	211.6699	244.9284	303.9741	342.1785	406.4218	413.4135	482.4796	512.6661	601.6399	657.6938	692.1188	790.66	879.5106	936.0154	949.3156	1009.1365	1033.7102	1072.3479	1102.4965	1126.231	1172.8676	1194.232	1238.0978	1255.0273	1274.5513	1303.5919	1380.2887	1418.5164	1429.0458	1447.7581	1902.5476	2354.6963	3045.1155	3054.1748	3060.4766	3073.6448	3118.1736	3120.0702	3799.4973
OC(C#N)C1CC(=O)C1	O[C@@H](C#N)C1CC(=O)C1	
InChI=1S/C6H7NO2/c7-3-6(9)4-1-5(8)2-4/h4,6,9H,1-2H2	InChI=1S/C6H7NO2/c7-3-6(9)4-1-5(8)2-4/h4,6,9H,1-2H2/t6-/m0/s1
