17
gdb 73606	2.3194	1.66891	1.32353	5.1999	72.72	-0.2603	0.0286	0.2889	1018.2547	0.13767	-418.004087	-417.99606	-417.995116	-418.036484	30.543	
N	-0.0710326111	 1.4004122874	 0.0673319289	-0.58498
C	-0.0166891983	-0.0259022082	-0.0458127212	 0.255845
C	 0.9062279347	-0.7309364532	-1.0375671865	-0.142008
O	 0.378871005	-2.0344459687	-1.219023696	-0.243676
C	-1.02947194	-2.0008640377	-0.9978429688	-0.103521
C	-1.2646880134	-0.8683563316	-0.0199044919	-0.103115
C	-0.3668181203	-0.8151027658	 1.2100347569	-0.21622
C	 0.4002026998	-1.9395407207	 1.6703748764	 0.31604
N	 1.0129504858	-2.8268700769	 2.0895536129	-0.354059
H	 0.8134149975	 1.7694768606	 0.4048433597	 0.240948
H	-0.2453614254	 1.8254467032	-0.8393222976	 0.235941
H	 0.9084517139	-0.1540897845	-1.9789446265	 0.088246
H	 1.9402157401	-0.8380220056	-0.693309762	 0.124482
H	-1.5790774099	-1.7991512058	-1.9311590341	 0.101064
H	-1.3222175575	-2.9877075591	-0.6273608379	 0.131346
H	-2.2454663094	-0.4172337992	 0.0637446286	 0.112603
H	-0.7502302214	-0.1896481544	 2.0092756991	 0.141064
118.1699	138.1698	211.3778	219.4236	291.2475	340.3728	368.2274	408.8003	546.6556	560.3306	600.6402	709.6754	736.7337	843.2683	854.3821	882.5812	933.8326	944.6023	996.4093	1033.2693	1057.878	1098.6862	1106.3936	1121.1913	1209.8371	1234.9912	1244.7848	1258.3852	1287.8804	1334.8906	1355.0015	1374.5312	1459.7586	1506.1122	1518.3355	1659.4099	2352.5422	2953.9549	2980.6776	3072.0778	3084.1125	3174.0563	3199.3099	3485.5899	3561.6292
NC12COCC1C2C#N	N[C@]12COC[C@H]1[C@H]2C#N	
InChI=1S/C6H8N2O/c7-1-4-5-2-9-3-6(4,5)8/h4-5H,2-3,8H2	InChI=1S/C6H8N2O/c7-1-4-5-2-9-3-6(4,5)8/h4-5H,2-3,8H2/t4-,5+,6+/m1/s1
