13
gdb 130469	4.17236	1.61339	1.16348	1.1661	76.14	-0.2278	-0.0781	0.1497	945.5729	0.092283	-415.602059	-415.596107	-415.595162	-415.632362	23.514	
O	-0.0490633316	 1.283680698	 0.009413704	-0.22061
C	 1.0735003615	 1.9914827182	 0.0023303459	 0.026641
C	 2.2980675171	 1.412390067	-0.0125832278	 0.134703
C	 3.6620988515	 1.8300262342	-0.0233963583	-0.133743
N	 4.4701039099	 0.7812124245	-0.0370913565	-0.240381
C	 3.6887516114	-0.358531391	-0.0356409625	-0.164025
C	 2.3497598341	-0.0431732636	-0.0208960478	 0.20361
C	 1.1077813941	-0.715019507	-0.0124546365	-0.044253
N	-0.0584774802	-0.1367639681	 0.001917524	-0.116703
H	 0.8616218962	 3.0565506998	 0.0101470562	 0.166454
H	 4.0420043744	 2.8432580727	-0.0215596759	 0.1215
H	 4.1517646509	-1.335414037	-0.0454498043	 0.118402
H	 1.0295863507	-1.7997268476	-0.0175714303	 0.148403
186.6591	218.4332	386.6098	400.0479	556.1487	566.3043	612.0002	643.9826	733.2632	738.8473	818.7933	840.4619	861.7858	904.4439	910.402	947.4468	973.342	1104.5485	1185.6463	1228.8374	1272.9908	1284.407	1295.2188	1334.2686	1400.5964	1456.6441	1541.9665	1622.0833	1667.0173	3169.6556	3190.543	3220.72	3233.2514
O1C=C2C=NC=C2C=N1	O1[CH]c2cncc2C=N1	
InChI=1S/C6H4N2O/c1-5-3-8-9-4-6(5)2-7-1/h1-4H	InChI=1S/C6H5N2O/c1-5-3-8-9-4-6(5)2-7-1/h1-4,7H
