18
gdb 81359	2.60824	1.46222	1.36073	3.5651	66.61	-0.24	0.0438	0.2838	1022.1235	0.149416	-476.179388	-476.171545	-476.170601	-476.211422	31.429	
O	 0.1249285062	 1.3902321853	-0.1349041501	-0.45983
C	 0.1122056602	-0.0050430868	-0.0566968115	 0.203935
C	 0.1618674154	-0.601292296	 1.3805505383	-0.083759
N	-1.2984275374	-0.245646122	 1.4486674884	-0.361506
C	-1.3063795208	-0.6556148058	 0.0041931745	-0.060199
C	-0.997706444	-2.1568142566	 0.0432139092	 0.038692
O	-0.5043360244	-2.6109894723	-1.2133914617	-0.428342
C	 0.1489302127	-2.1255494892	 1.1408835499	 0.109671
O	 1.3537303723	-2.6806571147	 0.6818496897	-0.443315
H	-0.49912815	 1.6981528162	 0.536176168	 0.289157
H	 0.8175805739	-0.3848937393	-0.7940798257	 0.093785
H	 0.8253306053	-0.2037969054	 2.1488838308	 0.078101
H	-1.8496569864	-0.847733553	 2.0622454091	 0.212756
H	-2.1283765352	-0.3134265818	-0.6250855075	 0.077339
H	-1.8671319618	-2.7490053668	 0.3487254976	 0.075498
H	-0.6826780566	-3.5530088435	-1.2913524359	 0.298968
H	-0.1446384231	-2.6553982804	 2.0553650945	 0.073752
H	 1.2634979936	-2.7432124382	-0.2806378477	 0.285297
119.6133	186.4932	208.3026	312.9847	322.2011	341.5953	429.5274	513.5477	527.1246	547.2679	565.6937	596.5567	728.5062	797.1401	823.3487	910.9277	913.5077	953.9377	956.9478	997.273	1027.6949	1054.5785	1099.7507	1120.8045	1133.7615	1145.1085	1179.7876	1205.1267	1225.8706	1234.3074	1281.6913	1283.4729	1302.7833	1329.2833	1342.8262	1363.3044	1421.7588	1433.4641	1463.5784	3022.505	3043.7653	3118.3258	3120.6583	3137.924	3435.3562	3711.0893	3762.0095	3833.1605
OC1C2NC1C(O)C2O	O[C@H]1[C@H]2N[C@@H]1[C@@H](O)[C@H]2O	
InChI=1S/C5H9NO3/c7-3-1-4(8)5(9)2(3)6-1/h1-9H	InChI=1S/C5H9NO3/c7-3-1-4(8)5(9)2(3)6-1/h1-9H/t1-,2+,3+,4+,5-
