17
gdb 93443	3.00799	1.39888	0.98803	3.195	72.24	-0.2547	-0.0106	0.2441	1161.6628	0.13774	-455.210996	-455.202805	-455.201861	-455.243986	30.647	
C	-0.3017556349	 1.4845161851	 0.0145208999	-0.401146
C	 0.062479221	-0.0003444399	-0.0086852839	-0.139933
C	 0.889839435	-0.3911721622	-1.2291142211	-0.099517
O	 1.2332798841	-1.7844869122	-1.2053024244	-0.247623
C	 1.8145762574	-2.2678975217	-0.0819392875	 0.454767
N	 2.4437708	-3.3637449546	-0.0180213299	-0.558316
N	 1.6688962196	-1.4852145277	 1.0630697707	-0.370054
C	 0.821420969	-0.4093678322	 1.2490581168	 0.43505
O	 0.7152658481	 0.1361904831	 2.3243895589	-0.356672
H	 0.5945115343	 2.1106440668	-0.0414691654	 0.128247
H	-0.9521153778	 1.7381847654	-0.8274052594	 0.117944
H	-0.8153284313	 1.7261055734	 0.9461136737	 0.15356
H	-0.8569486362	-0.6027494993	-0.021288438	 0.123636
H	 0.3314610743	-0.2496472742	-2.1562605426	 0.131589
H	 1.8077684983	 0.2097187089	-1.2825532478	 0.121951
H	 2.498133858	-3.7908711324	-0.9404604111	 0.230657
H	 2.145293051	-1.8373163862	 1.8825274611	 0.275859
78.0794	126.4748	192.2309	218.7317	269.5542	345.4621	374.5068	430.2805	509.5045	561.3865	660.6716	705.8438	725.3472	746.4253	767.1843	835.0854	902.1118	916.5468	974.0483	1056.5569	1096.5329	1121.881	1144.0828	1166.3269	1262.7227	1272.5492	1311.0901	1354.7007	1386.2315	1411.3699	1413.6506	1443.9192	1492.2123	1500.6308	1511.3006	1763.8965	1812.9357	3013.2885	3026.8239	3047.7861	3112.1305	3117.2617	3146.1058	3525.2686	3609.9809
CC1COC(=N)NC1=O	C[C@H]1CO[C]([NH])NC1=O	
InChI=1S/C5H8N2O2/c1-3-2-9-5(6)7-4(3)8/h3H,2H2,1H3,(H2,6,7,8)	InChI=1S/C5H8N2O2/c1-3-2-9-5(6)7-4(3)8/h3H,2H2,1H3,(H2,6,7,8)/t3-/m0/s1
