22
gdb 58627	2.29638	1.23295	1.1056	2.9189	77.44	-0.2472	0.0636	0.3108	1263.9288	0.192726	-441.455857	-441.445587	-441.444643	-441.490698	39.109	
C	 1.0238879793	-0.7081291319	 0.7013437332	-0.443218
C	 0.0167592621	-0.0658750061	-0.2540777158	 0.060854
O	 0.4634726638	-0.1559783909	-1.6077877731	-0.42766
C	-1.4256079834	-0.5696442583	-0.1633837207	 0.283423
C	-1.698835179	-2.029591619	-0.0870817414	-0.300383
N	-1.9540804263	-1.1634859434	 1.0787463635	-0.364388
C	-2.4124874374	 0.4135836311	-0.8029744303	 0.097089
C	-3.7668258928	-0.1761616615	-1.1904401926	-0.430194
O	-2.5727991692	 1.5126196528	 0.0915174086	-0.443098
H	 2.0148177747	-0.3006287849	 0.4864917082	 0.136545
H	 0.7954947933	-0.487799977	 1.7494821636	 0.121097
H	 1.081762205	-1.7963278753	 0.5795754121	 0.112314
H	-0.012953744	 1.0097715515	-0.0493889991	 0.112972
H	 0.4119541883	-1.0832064276	-1.8666656262	 0.275487
H	-2.5855568751	-2.4487037939	-0.5508406258	 0.123499
H	-0.8567642992	-2.7160066423	-0.0382099835	 0.10696
H	-1.2139151007	-1.2851920102	 1.7638206804	 0.232127
H	-1.9313475413	 0.8325516971	-1.6924572571	 0.10223
H	-4.2400652449	-0.6651076464	-0.3320972015	 0.127501
H	-4.42143171	 0.6305915484	-1.5294906148	 0.123225
H	-3.6732382999	-0.9059956397	-2.0010039982	 0.109767
H	-2.8694553535	 1.1238030371	 0.9249326304	 0.283853
65.1743	77.2723	190.5317	209.1722	237.056	276.58	303.092	306.4436	328.3398	330.8307	417.0472	428.2816	474.7476	483.8289	508.9797	644.8567	688.3651	833.0119	890.9535	901.7894	925.9844	936.4158	986.8599	1014.3935	1046.8949	1053.6654	1090.2783	1105.8929	1112.356	1125.0604	1143.62	1256.7979	1262.2341	1293.7974	1308.4569	1350.8046	1386.3186	1395.1142	1404.7887	1409.3571	1425.3518	1434.189	1491.0088	1492.095	1497.8294	1503.3535	1521.9525	3028.7979	3035.968	3059.0108	3068.6129	3096.3934	3107.9705	3113.5677	3120.5587	3122.151	3198.4504	3516.8799	3764.5605	3792.692
CC(O)C1(CN1)C(C)O	C[C@@H](O)[C@]1(CN1)[C@@H](C)O	
InChI=1S/C6H13NO2/c1-4(8)6(3-7-6)5(2)9/h4-5,7-9H,3H2,1-2H3	InChI=1S/C6H13NO2/c1-4(8)6(3-7-6)5(2)9/h4-5,7-9H,3H2,1-2H3/t4-,5-/m1/s1
