23
gdb 122833	6.94533	0.50785	0.48209	3.266	84.79	-0.2423	-0.0075	0.2348	2368.8125	0.201598	-425.443492	-425.431796	-425.430852	-425.482739	39.475	
C	-0.0135993919	 1.5488073835	-0.0104339678	-0.383838
C	 0.0870029454	 0.0216821413	-0.0013670133	-0.182282
C	 0.7010062006	-0.5272091097	-1.2813540945	-0.029349
O	 0.7544893608	-1.9370196783	-1.1888448664	-0.225919
C	 1.3024749627	-2.5442349017	-2.3165517684	-0.153406
C	 1.3002213938	-4.0644272945	-2.1648044807	 0.353644
O	 0.7704173233	-4.6190847954	-1.2350670028	-0.277874
C	 2.017937363	-4.8202114565	-3.2780338461	-0.284597
C	 1.7944455213	-6.3297667109	-3.2218747308	-0.376163
H	 0.9727229603	 2.0146228842	-0.1145278177	 0.11547
H	-0.6365137335	 1.9041860635	-0.8388664843	 0.115737
H	-0.4571360549	 1.9177219297	 0.9186503471	 0.119231
H	 0.6933095197	-0.3163086114	 0.8464629382	 0.111101
H	-0.9047740781	-0.4261358661	 0.1266177144	 0.112332
H	 0.1006833767	-0.2241734352	-2.1575363502	 0.082879
H	 1.7144738562	-0.1140997983	-1.4303429611	 0.082362
H	 0.7343436347	-2.2969107616	-3.2339500468	 0.103821
H	 2.339243923	-2.2081195449	-2.5055339757	 0.099932
H	 1.706946814	-4.4036935693	-4.2455814025	 0.115399
H	 3.0881842121	-4.581874566	-3.1953089529	 0.125569
H	 2.105520906	-6.7297828121	-2.2542316788	 0.137535
H	 0.7361154859	-6.5734843826	-3.3484668037	 0.128735
H	 2.361206439	-6.8348862076	-4.0087637952	 0.10968
29.8726	41.6567	57.2449	82.8812	121.882	140.8849	192.4174	205.205	234.5679	262.7934	308.4417	404.5919	474.1705	494.4906	657.0496	748.9139	765.2516	841.0025	900.5857	917.7276	938.8757	976.564	1009.5938	1046.9311	1076.627	1115.5871	1130.4619	1151.7664	1191.9479	1197.5078	1248.5801	1269.2327	1291.8422	1316.1313	1332.3788	1363.573	1393.6329	1413.165	1413.4658	1440.3337	1453.629	1486.736	1492.8731	1493.0973	1499.2536	1500.9475	1507.9923	1530.134	1830.2418	2923.9242	2942.1359	2945.8197	2965.9078	3014.2522	3031.0196	3042.6504	3043.8018	3051.8289	3074.1302	3100.1134	3108.7431	3120.6766	3131.7165
CCCOCC(=O)CC	CCCOCC(=O)CC	
InChI=1S/C7H14O2/c1-3-5-9-6-7(8)4-2/h3-6H2,1-2H3	InChI=1S/C7H14O2/c1-3-5-9-6-7(8)4-2/h3-6H2,1-2H3
