25
gdb 102601	2.08507	0.78568	0.61497	0.1341	98.64	-0.2392	0.0631	0.3023	1959.3277	0.226101	-352.348966	-352.336817	-352.335873	-352.388273	42.255	
C	 0.0245041853	 1.5328318796	 0.1902628807	-0.390046
C	 0.0744803182	 0.0079919017	 0.0508231824	-0.177507
C	 0.6483815224	-0.4979817658	-1.2860285414	 0.05868
C	 2.1677714631	-0.2621887637	-1.3894116972	-0.178971
C	 2.7548927809	-0.4311247968	-2.7952397141	-0.390695
C	 0.3117859031	-1.9991572076	-1.4858847037	-0.372658
C	-1.1159069534	-2.2757213764	-1.6099739429	 0.037228
C	-2.2970465184	-2.4844981159	-1.7228656202	 0.097552
C	-3.7223231592	-2.7506317286	-1.8616672377	-0.497809
H	 1.0179525322	 1.9899151282	 0.1424662563	 0.115529
H	-0.5838280289	 1.9796167746	-0.6042015829	 0.114489
H	-0.419642522	 1.8213833918	 1.148254176	 0.111045
H	 0.6631493524	-0.4202830239	 0.8746579973	 0.086757
H	-0.940691661	-0.3888043652	 0.1616993246	 0.107687
H	 0.1571131096	 0.057131577	-2.0979472728	 0.073658
H	 2.3928623936	 0.7524383346	-1.0426735277	 0.093867
H	 2.679742646	-0.9381636886	-0.6899111836	 0.09112
H	 3.8253280052	-0.2023050977	-2.8006000829	 0.11205
H	 2.6405882594	-1.4508997352	-3.1758247013	 0.117907
H	 2.2678225282	 0.2436836211	-3.5079722407	 0.11608
H	 0.8239317458	-2.375808669	-2.3791388217	 0.121245
H	 0.7262461761	-2.566934509	-0.64020533	 0.118555
H	-3.9122645787	-3.5253252232	-2.6131572184	 0.145035
H	-4.1603813613	-3.0929583142	-0.9173332057	 0.144488
H	-4.2680032985	-1.8520894878	-2.1711319423	 0.144715
28.119	49.8009	63.9279	82.2561	112.2898	204.9398	207.0616	218.272	247.3263	261.8159	285.5687	373.3088	386.133	421.0133	449.8851	526.0702	749.8043	766.0001	788.8278	823.2118	897.5715	954.5224	967.7262	1025.2411	1043.7471	1053.9422	1054.177	1057.2793	1126.3782	1142.0639	1168.8238	1174.6858	1237.1643	1273.7954	1305.1094	1328.5545	1335.3573	1361.9146	1386.8347	1392.3883	1413.9177	1414.7972	1416.3693	1470.6647	1479.4668	1480.1833	1485.0858	1490.5819	1499.625	1502.8854	1506.3528	1509.6191	2369.5345	2997.7981	3005.0734	3009.3956	3021.5736	3024.1216	3033.0362	3033.4433	3052.044	3060.2715	3064.1387	3083.4036	3083.4847	3097.8279	3099.1281	3103.7104	3106.4365
CCC(CC)CC#CC	CCC(CC)CC#CC	
InChI=1S/C9H16/c1-4-7-8-9(5-2)6-3/h9H,5-6,8H2,1-3H3	InChI=1S/C9H16/c1-4-7-8-9(5-2)6-3/h9H,5-6,8H2,1-3H3
