20
gdb 87406	2.30572	1.5108	1.33998	1.7688	75.47	-0.2351	0.064	0.2991	1086.556	0.170285	-440.232753	-440.223765	-440.22282	-440.265992	34.729	
C	 0.0283823042	 1.3166363954	-0.3425091004	-0.307777
N	 0.1821203174	-0.1089865098	-0.0518173025	-0.152393
C	 1.5566383285	-0.6206254586	-0.0177599433	-0.337021
C	 0.7565741754	-0.4919811999	 1.2223670895	 0.35004
C	 1.0324130342	 0.3449373741	 2.4951531899	 0.035612
O	 0.0306650291	 1.2997464105	 2.7816422025	-0.437316
C	 0.8794668997	-0.9854255362	 3.2956202815	-0.258859
C	 0.1464879738	-1.6029288088	 2.0808892468	 0.014508
O	-1.2560685724	-1.3859985491	 2.2100281636	-0.444425
H	 0.8400153939	 1.9386010589	 0.0602222433	 0.114343
H	-0.0067797799	 1.4473875485	-1.4285552481	 0.119033
H	-0.9108509777	 1.6773356526	 0.0832913428	 0.126497
H	 1.7181941418	-1.5933590714	-0.4762721047	 0.115799
H	 2.3640366739	 0.0956370239	-0.1689343342	 0.111214
H	 1.9896251651	 0.8663762772	 2.5631298593	 0.085158
H	-0.8069727959	 0.8165571354	 2.7880085631	 0.283418
H	 1.8384895908	-1.4739108127	 3.4847789067	 0.107386
H	 0.3039228155	-0.9201022399	 4.2209016114	 0.112794
H	 0.365569579	-2.645636128	 1.8197930231	 0.06901
H	-1.5842859662	-1.282189142	 1.3063337897	 0.292981
101.587	147.0388	163.51	200.1864	225.8324	300.9824	370.8101	388.4967	421.6946	453.9904	521.6807	534.2679	565.7265	632.7856	801.6694	840.0718	864.4019	887.863	899.6997	965.4292	999.4541	1037.2755	1048.8555	1106.6197	1123.1548	1128.0145	1142.9422	1160.8673	1167.2825	1203.4194	1224.3019	1244.7898	1270.8236	1305.832	1326.1502	1395.2845	1416.0389	1451.019	1456.9561	1467.3449	1485.6209	1497.1249	1512.4732	3003.9537	3024.8213	3070.7213	3081.0253	3084.1126	3089.8336	3119.8838	3134.8738	3170.6295	3750.6765	3756.6115
CN1CC11C(O)CC1O	CN1C[C@]21[C@@H](O)C[C@H]2O	
InChI=1S/C6H11NO2/c1-7-3-6(7)4(8)2-5(6)9/h4-5,8-9H,2-3H2,1H3	InChI=1S/C6H11NO2/c1-7-3-6(7)4(8)2-5(6)9/h4-5,8-9H,2-3H2,1H3/t4-,5+,6-,7?
