19
gdb 70637	2.39727	1.56649	1.16702	1.0829	80.2	-0.2316	0.0475	0.2791	1112.4845	0.158585	-385.846523	-385.83797	-385.837026	-385.879347	33.336	
C	-0.4738186056	 1.3384963712	-0.1148874125	-0.485716
C	 0.0159092818	-0.0757758857	 0.0649568423	 0.316472
C	-0.4918801765	-0.9450432656	 1.2048960636	-0.377297
C	 0.9575152918	-0.5264745093	 1.1450531941	 0.063565
O	 1.907567909	-1.432554699	 0.6447405159	-0.255231
C	 1.4109640941	-1.9463719118	-0.583244719	-0.11187
C	 0.4901705552	-0.8414790717	-1.1811030296	-0.25384
C	-0.5662409581	-1.3723224699	-2.0292605982	 0.335937
C	-1.4417506968	-1.818400394	-2.7222888526	-0.468485
H	 0.2671757694	 1.9529841182	-0.6399010698	 0.117424
H	-1.4016886692	 1.3616012655	-0.6974214131	 0.13124
H	-0.6770496385	 1.8110269947	 0.8510403434	 0.117141
H	-1.1153859516	-0.4551616786	 1.9457190953	 0.112777
H	-0.7588622685	-1.9791514989	 1.0165384282	 0.123293
H	 1.3834899635	 0.1355265532	 1.890187409	 0.1032
H	 2.2623894203	-2.1834737366	-1.2253961131	 0.119893
H	 0.8343407728	-2.8662450068	-0.4226956479	 0.110031
H	 1.1041182096	-0.1472561105	-1.7704804778	 0.105009
H	-2.2134096027	-2.2089992246	-3.3382322882	 0.196458
102.6487	126.0766	208.8188	232.0331	259.8812	306.7025	348.2194	446.3414	498.5551	517.9764	568.469	628.6569	634.0576	687.5881	700.3922	825.7838	850.4575	910.3235	961.4502	992.1837	1018.4301	1027.451	1036.9141	1048.3094	1056.0315	1101.679	1127.7523	1161.282	1225.0933	1258.1628	1285.6909	1295.4667	1335.9578	1375.613	1409.4482	1420.6406	1485.3058	1488.2618	1501.4895	1527.5282	2235.2529	3012.3657	3023.3432	3025.2748	3084.8443	3100.5196	3101.3196	3132.5486	3180.9622	3217.5835	3503.8335
CC12CC1OCC2C#C	C[C@]12C[C@H]1OC[C@H]2C#C	
InChI=1S/C8H10O/c1-3-6-5-9-7-4-8(6,7)2/h1,6-7H,4-5H2,2H3	InChI=1S/C8H10O/c1-3-6-5-9-7-4-8(6,7)2/h1,6-7H,4-5H2,2H3/t6-,7-,8-/m1/s1
