17
gdb 106242	2.60434	1.3281	1.05728	4.2562	68.86	-0.273	0.0001	0.2732	1162.3693	0.134407	-458.95751	-458.948718	-458.947774	-458.991229	32.181	
C	 0.2386475544	 1.7514738788	 0.3635322032	-0.424745
C	 0.0537569611	 0.252734922	 0.4266391147	-0.08058
C	 1.0252014247	-0.7795862155	-0.1952594568	-0.336542
C	 2.4330326675	-0.3650689518	 0.1208612461	 0.456389
O	 3.4768469754	-0.2520632878	-0.4322074302	-0.321748
O	 2.1790283804	-0.1678410639	 1.4813000521	-0.299747
C	 0.8221986581	-0.6710389027	 1.3014366368	 0.413239
C	 0.3361352391	-1.655602222	 2.3287991147	-0.19101
O	-0.9588375705	-2.1378861838	 2.02135978	-0.401347
H	 1.2618763515	 2.036995103	 0.6161493393	 0.149806
H	 0.0099294887	 2.1291080076	-0.6374676671	 0.131385
H	-0.4326538735	 2.2486330626	 1.0718164133	 0.122215
H	-0.9679727039	-0.0924219264	 0.2750512655	 0.10655
H	 0.7140455113	-1.5223878699	-0.915048874	 0.131377
H	 1.0050740561	-2.5222003852	 2.3451285848	 0.135228
H	 0.3817681323	-1.191053899	 3.3249122054	 0.115258
H	-1.5983076827	-1.4704951061	 2.2884480123	 0.294271
68.1254	131.9009	170.2544	197.7782	204.2264	272.7587	293.1616	395.99	420.6965	490.2695	590.3049	667.0779	698.3816	734.1049	809.1666	885.9783	906.203	941.9789	970.813	1031.5374	1037.8356	1076.2554	1087.8351	1117.5968	1142.5064	1186.8087	1214.8386	1248.0734	1318.8629	1391.0342	1405.3772	1417.7967	1477.0876	1492.1081	1499.9914	1510.6526	1943.5963	3000.2763	3042.4773	3079.0214	3103.7452	3125.6184	3141.074	3230.1404	3826.7141
CC1C2C(=O)OC12CO	C[C@H]1[C@H]2C(=O)O[C@@]12CO	
InChI=1S/C6H8O3/c1-3-4-5(8)9-6(3,4)2-7/h3-4,7H,2H2,1H3	InChI=1S/C6H8O3/c1-3-4-5(8)9-6(3,4)2-7/h3-4,7H,2H2,1H3/t3-,4-,6-/m0/s1
