20
gdb 84873	2.29635	1.56591	1.03963	1.4189	83.42	-0.2337	0.0067	0.2405	1211.6738	0.170598	-403.159843	-403.150652	-403.149708	-403.194511	34.023	
C	-0.585419072	 1.5240623362	 0.103895498	-0.372463
C	 0.0431145103	 0.1170354299	-0.0118204563	-0.008466
C	 0.5999388589	-0.075641171	-1.402668972	-0.036528
C	 1.872050441	-0.0335622653	-1.7825415551	-0.101894
C	 3.026136193	 0.2056253036	-0.8522373445	-0.139598
O	 3.0459630226	-0.5951098026	 0.3318401221	-0.253127
C	 2.0648764853	-0.4557144888	 1.2752530486	 0.375073
C	 2.6408759313	-0.8060510767	 2.6234878219	-0.433562
N	 0.8504663492	-0.1281641942	 1.1674094907	-0.30588
H	 0.1847346047	 2.2949399731	 0.0030798529	 0.116519
H	-1.3342434918	 1.6831918555	-0.6779172008	 0.110644
H	-1.0617602947	 1.634800152	 1.0810893597	 0.127497
H	-0.792116183	-0.5938941518	 0.0841838539	 0.098901
H	-0.1646879134	-0.2288323895	-2.1633392995	 0.090743
H	 2.1214987316	-0.1538935143	-2.8335262346	 0.09392
H	 3.970804641	-0.0285824515	-1.3494135843	 0.119225
H	 3.0681557995	 1.2643484337	-0.5566455324	 0.116526
H	 3.4355133755	-0.1021702443	 2.8926805771	 0.129798
H	 1.8577336215	-0.7879491442	 3.379751486	 0.136561
H	 3.0962747194	-1.8010275496	 2.5846634186	 0.136112
26.0708	132.4918	157.4418	174.7535	241.0376	248.6009	328.6736	357.4421	386.0605	448.8261	538.3988	618.3632	690.1416	705.787	754.2601	811.4776	838.6559	901.2418	974.7175	981.9363	1006.326	1051.5495	1061.1028	1071.5959	1098.0569	1108.8027	1172.3881	1219.3782	1264.634	1296.4893	1305.1899	1380.1966	1391.8228	1399.397	1412.1201	1424.5693	1474.6529	1478.7769	1485.6048	1492.6472	1496.8462	1744.9748	1778.4137	2978.4115	2997.0884	3039.1923	3044.1649	3093.1706	3100.4352	3112.0849	3126.4832	3129.3069	3164.4133	3167.1351
CC1C=CCOC(C)=N1	C[C@H]1C=CCOC(=N1)C	
InChI=1S/C7H11NO/c1-6-4-3-5-9-7(2)8-6/h3-4,6H,5H2,1-2H3	InChI=1S/C7H11NO/c1-6-4-3-5-9-7(2)8-6/h3-4,6H,5H2,1-2H3/t6-/m0/s1
