14
gdb 25188	2.60192	1.78698	1.11141	3.3339	77.9	-0.2322	-0.0793	0.1529	1019.0302	0.103341	-432.891883	-432.884617	-432.883673	-432.924304	27.091	
N	-0.0216331038	 1.2076193819	-0.5582417367	-0.424077
C	-0.0199585996	 0.0124789802	-0.1105197218	 0.15292
C	 1.2192680723	-0.6775935939	 0.3276011459	-0.068796
N	 1.5793058778	-1.9009145508	 0.2127182624	-0.215106
C	 0.7896469452	-2.9225049829	-0.2607758092	-0.040681
C	-0.558164255	-2.990818838	-0.314773208	 0.012903
N	-1.4751766891	-2.0136456384	 0.0073742396	-0.357181
C	-1.3849849666	-0.6252875915	 0.071166399	 0.384898
O	-2.3776874068	 0.0283282085	 0.2856704655	-0.319189
H	 0.9352271518	 1.57480953	-0.5891299382	 0.231763
H	 1.9588064341	 0.0064766636	 0.75429918	 0.123172
H	 1.3356372454	-3.8175491719	-0.5383966284	 0.118764
H	-1.0172019694	-3.9301852056	-0.6028335992	 0.13306
H	-2.4411628064	-2.3060460313	 0.078812769	 0.267548
48.7194	121.4437	293.0076	331.5517	372.3963	406.1595	443.668	534.7428	623.3482	664.9424	683.3391	775.9783	779.8439	828.9489	879.8756	901.2477	939.8679	960.3096	1018.018	1053.1864	1151.6283	1248.8721	1317.103	1373.0582	1415.7738	1448.6046	1501.6938	1628.4899	1666.2274	1681.9327	1800.2131	3082.0572	3180.8552	3199.8928	3414.5105	3589.7615
N=C1C=NC=CNC1=O	[NH][C]1C=NC=CNC1=O	
InChI=1S/C5H5N3O/c6-4-3-7-1-2-8-5(4)9/h1-3H,(H2,6,8,9)	InChI=1S/C5H5N3O/c6-4-3-7-1-2-8-5(4)9/h1-3H,(H2,6,8,9)
