17
gdb 66697	3.05988	1.70911	1.42012	3.5901	75.1	-0.2167	-0.0087	0.208	953.79	0.136799	-384.668122	-384.661202	-384.660258	-384.699177	28.248	
C	-0.0972908493	 1.5311705012	-0.0364165257	-0.51403
C	 0.0213886693	 0.0397309217	-0.0035637395	 0.337465
C	 0.8769221677	-0.8361932347	-0.9850865602	-0.144023
C	-0.1714011877	-1.9076459468	-0.9465528182	-0.084694
C	 1.1540159043	-2.1292711681	-0.229860219	-0.205943
C	 0.9610942476	-1.8756489131	 1.2377519178	 0.467097
O	 1.5317632388	-2.380335059	 2.1708835391	-0.346026
C	-0.1127913319	-0.8285827629	 1.2451473247	-0.256955
C	-1.0198660891	-1.0423263376	 0.0357218493	-0.140355
H	 0.8412270003	 2.0133232639	 0.2608159108	 0.128735
H	-0.3501401008	 1.8838003356	-1.0431064887	 0.124769
H	-0.8813558822	 1.8767272525	 0.6446678004	 0.125804
H	 1.4848699649	-0.4802170118	-1.805692236	 0.098542
H	-0.5389094945	-2.5520628121	-1.7325585994	 0.100634
H	 1.875500079	-2.8477022667	-0.5930089784	 0.107259
H	-0.5001570415	-0.4183907241	 2.1676062391	 0.104232
H	-2.0980934649	-0.9728937779	 0.083508204	 0.09749
137.991	208.8415	248.8532	273.5019	442.75	513.6222	558.048	600.186	696.0876	748.344	766.761	778.2977	826.5543	846.1109	858.2791	881.823	907.0397	931.6215	961.5118	975.9638	1006.9247	1019.4214	1047.0997	1067.766	1110.8276	1157.8498	1180.924	1186.2648	1264.8077	1267.6653	1280.3541	1332.9931	1412.0897	1441.4332	1483.1082	1498.1895	1849.5234	3023.2543	3082.1337	3101.1157	3202.5132	3206.4048	3215.0866	3220.5169	3227.4708
CC12C3C4C3C(=O)C1C24	C[C@@]12[C@@H]3[C@H]4[C@@H]3C(=O)[C@@H]1[C@@H]24	
InChI=1S/C8H8O/c1-8-4-2-3(4)7(9)6(8)5(2)8/h2-6H,1H3	InChI=1S/C8H8O/c1-8-4-2-3(4)7(9)6(8)5(2)8/h2-6H,1H3/t2-,3+,4-,5+,6+,8+/m1/s1
