16
gdb 44161	2.27028	1.86131	1.27391	2.5078	74.07	-0.2281	-0.0163	0.2117	998.9681	0.122202	-400.668718	-400.660476	-400.659531	-400.702149	30.865	
O	 1.168457686	 0.2812614181	-0.3481644393	-0.316958
C	 0.6292030026	 1.3482277427	-0.3979546305	 0.424304
C	-0.8573237349	 1.7678261335	-0.57643752	-0.372982
C	-0.4452253101	 3.1213022398	 0.0318024063	-0.04122
C	 1.0433050593	 2.728487662	 0.0867176622	-0.172665
N	 0.5399881064	 3.8107580677	-0.7385789946	-0.072869
C	 0.5727213294	 3.8824027912	-2.2131739296	-0.291583
C	 0.9615878267	 2.6909880792	-2.9624082687	 0.28377
C	 1.3195113294	 1.7276527638	-3.5859218389	-0.434823
H	-1.2774288366	 1.78680309	-1.583023891	 0.131297
H	-1.4930929045	 1.1587988149	 0.0723166212	 0.132352
H	-0.9956336632	 3.66796377	 0.7897013619	 0.112248
H	 1.8181122258	 2.9423439688	 0.8158592785	 0.113724
H	-0.4162342313	 4.2266857061	-2.5377742269	 0.142747
H	 1.2731782824	 4.6882725165	-2.463147341	 0.15144
H	 1.6270417424	 0.8603721856	-4.1168235796	 0.211217
37.7196	111.9733	160.0609	230.7052	320.0436	339.6828	435.5067	446.5444	540.6813	615.3108	629.5484	674.6619	684.156	737.6418	830.5012	850.7122	891.8827	931.3276	964.1883	978.9693	1007.0934	1032.0177	1047.8383	1095.0959	1139.5367	1194.8484	1233.5873	1272.1585	1284.0199	1340.8283	1386.8385	1459.4271	1475.1986	1879.9516	2232.6704	3030.9659	3062.781	3073.4887	3131.5568	3168.3812	3178.5744	3501.8338
O=C1CC2C1N2CC#C	O=C1C[C@H]2[C@@H]1N2CC#C	
InChI=1S/C7H7NO/c1-2-3-8-5-4-6(9)7(5)8/h1,5,7H,3-4H2	InChI=1S/C7H7NO/c1-2-3-8-5-4-6(9)7(5)8/h1,5,7H,3-4H2/t5-,7-,8?/m0/s1
