19
gdb 62673	3.09118	1.36482	1.18845	2.5608	74.9	-0.2432	0.0687	0.3119	1104.5796	0.156702	-422.970801	-422.962097	-422.961153	-423.003367	34.251	
C	-0.0753727502	 1.5559179741	-0.0700963223	-0.462658
C	 0.0632125374	 0.0523441065	 0.0211091561	 0.393556
O	-1.0764876672	-0.6304573553	-0.4419920904	-0.467947
C	 1.3548363582	-0.706519954	-0.2243557456	-0.157986
C	 2.5382577672	-0.006591546	 0.3973650655	-0.077449
O	 3.0419206338	-0.8085328929	 1.4777474911	-0.291996
C	 1.8893510182	 0.0125781498	 1.7323050558	 0.399571
C	 1.9648301747	 0.9718361181	 2.8775471348	-0.498979
C	 0.6727511008	-0.7010435482	 1.1724563352	-0.173354
H	 0.8055233279	 2.0752215747	 0.3114269362	 0.12729
H	-0.2114875631	 1.8604044307	-1.1157412905	 0.106868
H	-0.953070691	 1.8879960964	 0.4935058492	 0.127797
H	-1.2011447441	-0.3996443469	-1.3692997629	 0.282362
H	 1.3868708284	-1.5362778192	-0.9196880009	 0.098604
H	 3.2296729279	 0.7015636411	-0.0451436038	 0.099899
H	 2.9368953993	 1.4712384053	 2.8958861242	 0.133035
H	 1.1768140349	 1.7280252504	 2.8108318925	 0.126012
H	 1.8393236303	 0.4425069659	 3.8288787997	 0.132695
H	 0.1347330867	-1.5193609704	 1.6347227361	 0.10268
159.6272	173.8177	188.6456	234.0609	259.3014	281.3899	342.7693	372.1045	395.9598	475.5042	515.8503	552.3118	636.4632	715.9926	768.162	835.2609	883.9953	898.6309	911.096	937.6733	970.9482	997.6307	1025.0765	1044.0476	1059.6458	1093.666	1098.6959	1161.6556	1177.6349	1255.5027	1256.5864	1290.5667	1291.1397	1397.4827	1410.8953	1426.4538	1448.0426	1483.0053	1487.6757	1496.4777	1499.1934	3025.1205	3036.6718	3089.1695	3098.1122	3123.6504	3133.5763	3180.3872	3190.9803	3199.6154	3796.2569
CC1(O)C2C3OC3(C)C12	C[C@@]1(O)[C@H]2[C@@H]3O[C@]3(C)[C@@H]12	
InChI=1S/C7H10O2/c1-6(8)3-4(6)7(2)5(3)9-7/h3-5,8H,1-2H3	InChI=1S/C7H10O2/c1-6(8)3-4(6)7(2)5(3)9-7/h3-5,8H,1-2H3/t3-,4-,5+,6-,7-/m1/s1
