15
gdb 61046	2.987	1.17841	0.88252	2.0033	61.69	-0.2819	-0.0527	0.2292	1224.0233	0.111095	-494.925107	-494.916699	-494.915755	-494.959054	29.62	
O	 0.1316986176	 1.5220637842	-0.0065647483	-0.434687
C	 0.0565459201	 0.1264247203	-0.0020260714	 0.033125
C	 0.7333345601	-0.451574661	-1.2379380051	 0.125167
O	 1.2157535799	 0.2777303827	-2.0702117891	-0.258665
C	 0.6976812711	-0.4440999152	 1.2700063533	-0.214505
C	-0.0440278423	-0.2237137801	 2.6006899912	-0.097943
O	-0.2249986154	-1.6742647818	 2.7461630149	-0.234289
C	 0.4097306504	-1.9224375513	 1.5610192097	 0.449517
O	 0.5856952735	-2.9693994671	 1.0236210392	-0.323463
H	 0.5836252491	 1.7548938155	-0.8350716143	 0.299345
H	-0.9976837577	-0.2061989683	-0.0359796211	 0.107664
H	 0.759536733	-1.553390535	-1.3203872212	 0.140183
H	 1.7611933723	-0.1949722854	 1.3009481131	 0.128728
H	 0.5462109799	 0.1761489617	 3.4256800206	 0.137391
H	-1.0089943617	 0.2810290906	 2.5307324381	 0.142431
67.5719	97.0248	136.4163	145.7758	285.2778	306.5631	362.0288	368.8224	475.2067	555.9009	661.5498	754.1227	771.2863	828.4355	910.6908	942.2841	960.6051	983.3573	1088.594	1127.8549	1130.4111	1153.9647	1163.0522	1207.6556	1263.0093	1287.8873	1348.5108	1370.2136	1395.549	1437.9071	1517.2823	1812.0924	1926.0676	2939.1865	2986.4556	3085.6723	3093.0371	3150.9289	3666.9533
OC(C=O)C1COC1=O	O[C@@H](C=O)[C@H]1COC1=O	
InChI=1S/C5H6O4/c6-1-4(7)3-2-9-5(3)8/h1,3-4,7H,2H2	InChI=1S/C5H6O4/c6-1-4(7)3-2-9-5(3)8/h1,3-4,7H,2H2/t3-,4+/m1/s1
