18
gdb 73059	3.47261	1.12759	1.00161	3.6797	74.62	-0.2426	0.0273	0.2699	1236.0031	0.146343	-439.031297	-439.022533	-439.021588	-439.065167	31.912	
C	-0.2938410277	 1.5695962896	 0.2781588405	-0.503149
C	 0.0016911789	 0.1255289705	-0.0006411193	 0.209046
C	-1.0421407448	-0.980301507	-0.1810244293	-0.124751
O	-0.2014546756	-1.9580854845	 0.4942758609	-0.284565
C	 0.7824052869	-0.9630710152	 0.7403595142	-0.003391
C	 1.3018722522	-0.3943832335	-0.55065884	 0.032403
O	 1.3172271099	-1.1186045674	-1.7504192408	-0.193559
C	 1.920809944	-2.3321884677	-1.7262990835	 0.140273
N	 2.0310322333	-2.9896850466	-2.795961713	-0.445397
H	 0.6096019457	 2.1074288878	 0.5815543029	 0.126234
H	-0.6895617196	 2.0682822783	-0.6143543845	 0.13473
H	-1.0327792671	 1.6772794159	 1.0793525887	 0.126593
H	-1.9564154511	-0.8067879775	 0.3960120475	 0.11206
H	-1.2830807378	-1.2772405227	-1.2059508642	 0.13083
H	 1.3222278987	-0.9980198239	 1.6810303758	 0.109156
H	 2.1377598714	 0.295973152	-0.4458053011	 0.106348
H	 2.2635357925	-2.6252364891	-0.7277382467	 0.09793
H	 2.4905313801	-3.878330299	-2.6079269981	 0.22921
62.865	129.5788	136.5847	180.7414	235.5866	247.9278	298.2324	334.131	473.6934	544.4907	621.7406	739.8409	799.9365	822.4623	829.3043	916.9427	954.1586	959.3162	996.0124	1008.5432	1021.2839	1041.7203	1065.2962	1097.2777	1129.3526	1161.9458	1189.6157	1247.5659	1275.2504	1286.6935	1306.3317	1350.7874	1413.8799	1418.5238	1468.7516	1487.3943	1497.7157	1507.6715	1745.5846	3027.515	3042.3112	3061.0333	3089.2954	3101.7963	3103.9209	3120.7718	3168.3645	3517.5773
CC12COC1C2OC=N	C[C@]12CO[C@H]1[C@H]2O[CH][NH]	
InChI=1S/C6H9NO2/c1-6-2-8-4(6)5(6)9-3-7/h3-5,7H,2H2,1H3	InChI=1S/C6H9NO2/c1-6-2-8-4(6)5(6)9-3-7/h3-5,7H,2H2,1H3/t4-,5+,6-/m0/s1
