18
gdb 22636	3.96287	1.08515	0.97055	1.9351	76.52	-0.2428	0.0005	0.2433	1244.6411	0.146798	-439.049497	-439.041023	-439.040078	-439.082393	32.485	
C	 0.0675518666	 1.4900274193	-0.0675882427	-0.483975
C	-0.058884372	 0.0004025914	 0.0919692775	 0.420147
C	-1.3025615798	-0.7325928115	-0.4031446767	-0.286017
C	-1.2353406807	-2.1439953961	 0.2370034277	-0.322935
C	-0.2903279416	-1.986482187	 1.4106389674	 0.44423
N	-0.1839524633	-2.6810026198	 2.472441468	-0.24786
O	-1.0926919815	-3.7508429128	 2.4785208822	-0.388629
C	 0.5377557267	-0.775940428	 1.1980982281	-0.127145
O	 1.132755784	-0.7692492151	-0.1209026301	-0.298321
H	 1.0099807373	 1.8440769682	 0.3570407562	 0.133657
H	 0.0473125895	 1.7653934999	-1.1278975285	 0.129732
H	-0.7600385517	 2.0068447773	 0.4291997528	 0.124787
H	-2.1943765469	-0.1945166879	-0.0624105722	 0.109102
H	-1.3389386556	-0.7666261391	-1.4962415198	 0.112342
H	-2.2072056171	-2.5185727822	 0.5637025353	 0.132698
H	-0.8270682985	-2.8800205008	-0.4624583147	 0.139487
H	-0.9197366131	-4.159744696	 3.3332865323	 0.308052
H	 1.1337983977	-0.3520136698	 1.9993582173	 0.100648
90.811	156.8965	193.3895	209.0159	283.6664	339.1168	374.8709	383.5604	446.5155	471.7365	578.7501	605.5542	691.5449	710.5532	811.9121	841.0039	857.9443	909.3115	966.8108	993.3876	1004.9428	1012.7351	1077.6279	1095.0341	1184.8283	1214.04	1233.6398	1248.3233	1283.9232	1296.9706	1335.4375	1406.2298	1415.1394	1442.4923	1467.8107	1484.4462	1487.6995	1498.8353	1756.7247	3035.4746	3045.0801	3064.5247	3088.7712	3098.8197	3119.0532	3125.761	3179.0251	3817.2933
CC12CCC(=NO)C1O2	C[C@]12CCC(=NO)[C@H]1O2	
InChI=1S/C6H9NO2/c1-6-3-2-4(7-8)5(6)9-6/h5,8H,2-3H2,1H3	InChI=1S/C6H9NO2/c1-6-3-2-4(7-8)5(6)9-6/h5,8H,2-3H2,1H3/t5-,6+/m1/s1
