19
gdb 90963	2.75918	1.72862	1.43159	1.4172	74.75	-0.2273	0.0756	0.3029	986.0247	0.159794	-422.989031	-422.981366	-422.980422	-423.020665	31.001	
C	-0.0878972651	 1.5424496996	-0.0860775881	-0.407442
C	 0.0305039775	 0.02915606	 0.0275940825	 0.107169
O	 0.8587426071	-0.5013057574	-1.037654908	-0.296626
C	 1.8660928995	-1.1908561386	-0.3343162952	 0.064772
C	 1.2736482757	-1.9443416801	 0.8917920904	-0.103925
C	 2.5810968985	-1.7042492576	 1.6794945022	-0.318459
C	 2.3131599542	-0.3786286381	 0.9258390794	 0.366067
O	 3.0014943604	 0.8195494641	 0.9910690512	-0.472853
C	 0.7911971703	-0.4959122216	 1.2453692315	-0.092169
H	 0.8936366325	 2.011842142	 0.0117825049	 0.1404
H	-0.5159263075	 1.8159956721	-1.0548896694	 0.120617
H	-0.7449717513	 1.9335759434	 0.6984086152	 0.108327
H	-0.963506943	-0.4333954118	-0.0488383152	 0.072809
H	 2.5792755377	-1.6593437942	-1.0131706738	 0.079247
H	 0.6612792496	-2.8421252521	 0.8692819503	 0.083447
H	 2.4921785772	-1.6676213868	 2.767510182	 0.101066
H	 3.4551839821	-2.2872688244	 1.3722174975	 0.087495
H	 3.855125047	 0.7095710995	 0.558352955	 0.285235
H	 0.4252882477	-0.268763958	 2.2468388178	 0.074822
152.9489	195.6553	235.7181	242.5211	305.0197	372.9531	424.5896	481.2718	501.5378	671.0146	694.6084	741.1825	769.1602	835.9187	848.6893	897.7907	927.1775	936.3722	996.5399	1012.0439	1028.3981	1037.6121	1049.8616	1095.7067	1103.8508	1111.8384	1127.6498	1141.2389	1190.0682	1211.7672	1218.2687	1276.9021	1288.6636	1315.4365	1337.0028	1387.5077	1400.1257	1408.7854	1490.0128	1500.6664	1521.5895	3003.903	3039.9425	3047.8097	3106.7609	3115.2586	3120.9551	3123.8567	3135.852	3153.5666	3807.8426
CC1OC2C3CC2(O)C13	C[C@H]1O[C@@H]2[C@H]3C[C@]2(O)[C@@H]13	
InChI=1S/C7H10O2/c1-3-5-4-2-7(5,8)6(4)9-3/h3-6,8H,2H2,1H3	InChI=1S/C7H10O2/c1-3-5-4-2-7(5,8)6(4)9-3/h3-6,8H,2H2,1H3/t3-,4+,5+,6-,7+/m1/s1
