20
gdb 69350	2.64624	1.42301	1.12977	1.8031	85.37	-0.2314	0.0447	0.2761	1169.1766	0.16839	-365.940615	-365.931322	-365.930378	-365.973899	36.203	
C	 0.2222476908	 1.5137261021	 0.1046220701	-0.494121
C	-0.0293789718	 0.0421842294	-0.0358347093	 0.380971
C	-0.9750789438	-0.7246332632	 0.7938085795	-0.29264
N	 0.4734914723	-0.9796489169	 0.9769022094	-0.187229
C	 0.9301335952	-1.8581345488	-0.1886317421	 0.120172
C	 0.3454864971	-3.2711826133	-0.2248287895	-0.443544
C	 0.4135480031	-0.8051869478	-1.2298378406	-0.366547
C	 2.3869368254	-1.92755996	-0.1638574818	 0.325392
C	 3.5866186969	-2.0010567303	-0.1693339305	-0.444987
H	 1.2565065014	 1.7628900341	-0.1553394585	 0.127597
H	-0.4397127073	 2.0863128936	-0.5560661191	 0.120064
H	 0.0418828666	 1.8408217122	 1.1326449013	 0.129207
H	-1.404999967	-0.228142157	 1.6587360919	 0.119904
H	-1.6181059854	-1.4804132882	 0.351369993	 0.107522
H	-0.7448117126	-3.2605835486	-0.2947828591	 0.114433
H	 0.7346174877	-3.8130172641	-1.091667302	 0.130435
H	 0.6326222353	-3.8172273422	 0.6781663268	 0.138114
H	-0.378104899	-1.1372226552	-1.9083456339	 0.10136
H	 1.2221604045	-0.3634190409	-1.8124786028	 0.121688
H	 4.6467333006	-2.0615640351	-0.1621391028	 0.19221
102.4596	158.4947	189.0364	199.9008	218.277	251.3716	337.395	363.8753	415.8737	478.19	490.1169	535.4521	601.486	620.9102	643.5753	664.1212	762.3836	816.1297	827.5623	914.615	935.6473	951.4156	960.6195	1024.5665	1048.664	1105.8006	1111.4038	1133.9057	1140.6629	1165.8658	1247.4698	1274.5053	1310.4718	1379.5259	1406.0552	1423.2577	1480.5016	1481.6005	1486.2224	1491.4639	1493.6638	1514.6112	2236.1598	3027.7691	3045.4418	3054.3529	3090.2482	3112.0987	3113.2837	3119.7169	3125.1059	3131.5829	3197.562	3502.1095
CC12CN1C(C)(C2)C#C	C[C@]12CN1[C@@](C)(C2)C#C	
InChI=1S/C8H11N/c1-4-7(2)5-8(3)6-9(7)8/h1H,5-6H2,2-3H3	InChI=1S/C8H11N/c1-4-7(2)5-8(3)6-9(7)8/h1H,5-6H2,2-3H3/t7-,8+,9?/m1/s1
