16
gdb 74165	2.51576	1.40531	0.99093	4.2884	78.12	-0.2454	-0.029	0.2165	1178.0648	0.123333	-400.76579	-400.757094	-400.75615	-400.799233	32.177	
C	-0.0228833242	 1.4775032153	 0.0601524629	-0.492922
C	-0.0085446695	-0.0095233701	-0.0383864197	 0.340653
C	-0.0562626456	-0.7979632008	-1.114288784	-0.327959
C	-0.0020192386	-2.2333967081	-0.717848715	 0.425371
O	 0.0460361189	-3.2172840548	-1.4218124012	-0.378848
N	-0.0259496394	-2.2235441888	 0.6684112608	-0.335858
C	 0.0556589167	-0.8826263377	 1.2188956984	-0.24071
C	 1.2624254871	-0.6456907975	 2.0142653842	 0.339053
C	 2.2450039047	-0.4505161118	 2.6777523325	-0.469493
H	 0.859807829	 1.8380217491	 0.6005357964	 0.150433
H	-0.0409326447	 1.9394054919	-0.9292392647	 0.138425
H	-0.900188829	 1.8268900929	 0.6186170038	 0.13804
H	-0.1130168698	-0.4922643811	-2.1497289843	 0.122519
H	 0.2398250535	-3.0387846938	 1.1961621614	 0.25785
H	-0.8221068106	-0.6665820374	 1.8490841768	 0.12511
H	 3.1178448215	-0.2842514972	 3.2601576518	 0.208336
77.6471	132.8968	145.7184	190.0154	253.9575	285.9729	393.7103	417.5062	454.9522	532.8097	580.0507	584.4374	636.4621	667.8844	723.7028	735.3907	853.2062	898.7646	940.0551	1006.001	1014.7211	1060.8968	1105.9921	1155.6302	1207.66	1276.8423	1315.1985	1340.0823	1396.9449	1414.655	1476.5613	1484.2687	1704.7763	1827.5833	2236.5612	2973.9173	3028.4548	3080.7658	3128.7031	3237.215	3499.2902	3658.9433
CC1=CC(=O)NC1C#C	CC1=CC(=O)N[C@H]1C#C	
InChI=1S/C7H7NO/c1-3-6-5(2)4-7(9)8-6/h1,4,6H,2H3,(H,8,9)	InChI=1S/C7H7NO/c1-3-6-5(2)4-7(9)8-6/h1,4,6H,2H3,(H,8,9)/t6-/m0/s1
