14
gdb 49454	3.39876	1.3809	1.2611	2.8019	68.67	-0.2586	-0.023	0.2356	990.5686	0.10079	-436.670239	-436.66314	-436.662196	-436.702138	26.715	
O	 0.0313990603	 0.0239285871	-0.464326771	-0.305137
C	 0.0204399592	 1.197344093	-0.1775618643	 0.148305
N	 1.0930353915	 1.8791067553	 0.3462123803	-0.046217
C	 2.5227171658	 1.5197492649	 0.1780043803	-0.179504
C	 2.8689248672	 2.1100032166	-1.1794075868	-0.071225
C	 2.1855485046	 3.271871608	-1.2094533689	-0.084342
C	 1.4737318926	 3.3019057604	 0.1331067235	-0.203506
C	 2.7460200491	 2.8710045631	 1.0091547479	 0.441469
O	 3.4633345255	 3.3173494854	 1.8301040861	-0.282254
H	-0.8820805904	 1.8370389546	-0.2380640715	 0.085055
H	 2.8564176249	 0.5331403488	 0.4802771691	 0.12526
H	 3.5930288019	 1.7155670269	-1.8764484684	 0.131305
H	 2.2093899968	 4.0697812624	-1.9367494051	 0.128885
H	 0.773646731	 4.0879828435	 0.4011121587	 0.111907
79.9447	167.3489	187.4183	278.0239	378.0056	489.8607	541.1336	596.681	626.1536	723.0033	760.91	796.4598	824.3959	877.3225	900.1346	918.7872	935.1345	1003.5895	1031.8418	1052.7096	1113.2991	1129.1713	1146.777	1224.5564	1233.8721	1315.0317	1354.0071	1422.3951	1570.6617	1799.562	1950.1139	2941.412	3174.5473	3196.8101	3238.6969	3261.8081
O=CN1C2C=CC1C2=O	O=CN1[C@H]2C=C[C@@H]1C2=O	
InChI=1S/C6H5NO2/c8-3-7-4-1-2-5(7)6(4)9/h1-5H	InChI=1S/C6H5NO2/c8-3-7-4-1-2-5(7)6(4)9/h1-5H/t4-,5+
