23
gdb 115845	2.60081	1.23323	1.08177	1.5061	84.65	-0.2242	0.0778	0.302	1276.7057	0.20637	-388.282386	-388.27303	-388.272085	-388.31648	35.432	
C	-0.1194025624	 1.1548198328	-1.0576966813	-0.385217
C	-0.2564944128	-0.3112439744	-0.6316172554	-0.18992
C	 0.6372250512	-0.6839385142	 0.5594548649	 0.006565
C	 0.2706662331	 0.0389922381	 1.8820190668	-0.099727
O	 0.420902379	-0.8905842517	 2.9579726384	-0.262816
C	 0.6071198632	-2.1899949878	 2.455084754	 0.078286
C	-0.518788531	-2.8237984221	 1.6764473499	-0.040414
C	-1.9528032817	-2.3429698869	 1.7372343312	-0.418864
C	 0.6536831253	-2.1561794842	 0.9557227206	-0.130365
H	 0.9150265366	 1.3913313672	-1.3318156213	 0.114244
H	-0.7518643306	 1.3770912364	-1.9226202991	 0.113751
H	-0.4115810507	 1.8379859811	-0.2527047932	 0.119507
H	-1.3023203316	-0.5289529502	-0.3852264292	 0.100971
H	-0.0009535766	-0.9600167572	-1.4783648414	 0.095678
H	 1.6710770661	-0.4231414158	 0.2943144964	 0.074344
H	 0.9149648035	 0.9011537828	 2.0873977124	 0.104679
H	-0.765390961	 0.4038447224	 1.8499786325	 0.096013
H	 1.2702436645	-2.7776517332	 3.0812686805	 0.092558
H	-0.4398630342	-3.9087754265	 1.6276034321	 0.083386
H	-2.4769881263	-2.5177159399	 0.79144326	 0.116034
H	-2.4938507285	-2.8866584661	 2.5196086156	 0.117388
H	-2.0289389378	-1.2817987902	 1.9776766066	 0.129925
H	 1.3216538126	-2.8042057005	 0.3984893788	 0.083993
98.7198	109.2439	144.068	167.9113	186.0498	232.684	253.3768	341.1413	398.5706	499.8049	555.1337	686.2704	703.3305	750.5476	771.4622	792.71	863.2936	905.2099	945.9155	963.6154	977.5002	1011.6415	1020.4053	1064.1411	1072.7519	1087.8713	1107.6079	1137.2801	1141.3169	1167.607	1178.7599	1227.2506	1239.7005	1288.6743	1309.1564	1317.2805	1340.2294	1367.8983	1382.0102	1404.2092	1412.596	1418.9744	1438.9419	1486.6267	1492.5233	1500.5405	1501.7097	1507.2226	1530.6488	2997.8733	3004.171	3029.0926	3030.8436	3035.9348	3052.6233	3065.6498	3087.4356	3097.666	3102.7101	3113.2313	3143.3171	3155.9818	3167.4867
CCC1COC2C(C)C12	CC[C@H]1CO[C@H]2[C@@H](C)[C@@H]12	
InChI=1S/C8H14O/c1-3-6-4-9-8-5(2)7(6)8/h5-8H,3-4H2,1-2H3	InChI=1S/C8H14O/c1-3-6-4-9-8-5(2)7(6)8/h5-8H,3-4H2,1-2H3/t5-,6-,7-,8-/m0/s1
