20
gdb 14523	3.6163	1.66717	1.3868	1.6301	74.47	-0.2438	0.0863	0.3302	980.5545	0.177001	-348.977646	-348.969451	-348.968507	-349.010297	30.916	
C	 0.1179917964	 1.5627271995	 0.335196005	-0.468655
C	-0.0141020378	 0.0893683943	 0.0040184733	 0.341514
C	 0.911935385	-0.5122704373	-1.0233637976	-0.301907
C	 1.0785198948	-0.8545831179	 0.4401050932	-0.305279
C	-1.437839978	-0.4150682943	 0.0698740165	 0.088688
C	-2.4058459548	-0.0542668585	-1.0850375533	-0.287633
C	-2.5877402646	-1.5776839147	-1.2130117041	-0.064157
O	-1.5679913953	-1.8279063893	-0.2214651621	-0.294813
H	 1.1631338875	 1.8822650489	 0.2854301802	 0.116918
H	-0.4520247461	 2.1856878439	-0.3647315248	 0.115621
H	-0.2483803082	 1.7785036203	 1.3461911912	 0.115616
H	 0.5202565741	-1.2940083819	-1.6642211596	 0.117183
H	 1.6447693124	 0.1374563745	-1.490110506	 0.101998
H	 1.9247438022	-0.4397628975	 0.9778532175	 0.103583
H	 0.7874107274	-1.853251362	 0.744388095	 0.128941
H	-1.8552185464	-0.1925639304	 1.0642965911	 0.068275
H	-3.2930972558	 0.5206940835	-0.8169325897	 0.107126
H	-1.9105731884	 0.4133338301	-1.9381548327	 0.112165
H	-3.5657731648	-1.9562327593	-0.8893081397	 0.10055
H	-2.3362183095	-2.0268858618	-2.1805154732	 0.104267
84.7242	92.5598	190.9336	218.1393	260.9292	307.3929	336.5669	460.1628	496.1161	667.1514	771.6117	791.9372	828.4287	875.9461	886.3119	927.5146	952.9178	959.7107	980.259	1029.8513	1046.5019	1066.3571	1067.8689	1086.6137	1100.9974	1136.3446	1170.4109	1193.5477	1217.2725	1255.2565	1275.926	1294.3184	1351.8251	1363.6446	1394.8001	1416.7301	1454.8092	1486.292	1490.2206	1494.5948	1508.8308	1530.5983	2976.1479	3014.811	3019.8378	3057.9922	3076.2084	3079.0246	3101.3089	3131.0305	3134.7544	3135.6968	3215.5865	3228.9256
CC1(CC1)C1CCO1	CC1(CC1)[C@H]1CCO1	
InChI=1S/C7H12O/c1-7(3-4-7)6-2-5-8-6/h6H,2-5H2,1H3	InChI=1S/C7H12O/c1-7(3-4-7)6-2-5-8-6/h6H,2-5H2,1H3/t6-/m1/s1
