18
gdb 12707	3.2267	1.83146	1.36761	1.1094	62.56	-0.2521	0.0417	0.2938	921.6762	0.154508	-422.081613	-422.073431	-422.072487	-422.114429	30.983	
O	 0.2709041758	 1.2919895641	-0.3361792223	-0.437659
C	 0.0782123822	-0.072440415	-0.0183028513	 0.128902
C	 0.7017215885	-0.5069874312	 1.3454403723	-0.252138
C	-0.4809607196	-0.8759440994	 2.2586054915	-0.241226
C	-1.5314179498	-1.4164856111	 1.2691808544	 0.155605
O	-2.8364393769	-1.5605317137	 1.7733308944	-0.445249
C	-1.4356807993	-0.4284866621	 0.0926911741	 0.017435
O	-2.1873692951	 0.7300271508	 0.4910356954	-0.445451
H	-0.3376211473	 1.7792073404	 0.2342825594	 0.275421
H	 0.5336854035	-0.6305324465	-0.8413761316	 0.087242
H	 1.3516797947	-1.3757069888	 1.1944792204	 0.100936
H	 1.3272182904	 0.2964978974	 1.741269879	 0.108704
H	-0.2296211944	-1.5999232759	 3.0369685621	 0.100843
H	-0.8894144432	 0.0137725076	 2.751747466	 0.102728
H	-1.2186239162	-2.4077568346	 0.9170884525	 0.08657
H	-3.2134845064	-0.6711616601	 1.7700960796	 0.283855
H	-1.8500548366	-0.8357122683	-0.8347642873	 0.072741
H	-2.4892851802	 1.1773391563	-0.3042520986	 0.300741
50.2526	122.1169	174.6459	265.2393	320.0114	353.1267	429.6015	446.6864	471.3087	544.7779	561.1784	628.8798	754.4068	797.874	824.0589	874.001	934.8215	981.7291	1008.0647	1037.624	1094.1044	1109.7176	1125.7331	1146.258	1198.2433	1227.017	1256.5575	1274.7446	1299.0858	1319.9749	1328.8751	1347.9011	1368.2634	1416.5998	1443.3755	1452.0595	1484.1884	1500.7325	3030.304	3043.3178	3048.4506	3053.9734	3073.2654	3101.8175	3111.4453	3764.6995	3772.3386	3847.7868
OC1CCC(O)C1O	O[C@H]1CC[C@@H](O)[C@H]1O	
InChI=1S/C5H10O3/c6-3-1-2-4(7)5(3)8/h3-8H,1-2H2	InChI=1S/C5H10O3/c6-3-1-2-4(7)5(3)8/h3-8H,1-2H2/t3-,4+,5-
