19
gdb 86633	3.13635	1.15455	0.94204	2.7307	79.08	-0.2314	-0.0669	0.1645	1279.639	0.159261	-419.239878	-419.230898	-419.229953	-419.273555	33.403	
C	 0.5065477337	 1.5965557081	-0.2559571423	-0.401665
C	 0.1190382882	 0.1308467278	-0.0411048477	 0.005876
N	 0.7594071339	-0.7568727744	-1.0286829021	-0.342216
C	 1.8502023338	-1.3108449879	-0.3949958248	 0.262567
C	 2.9304598597	-1.955557712	-1.1830836372	 0.107584
O	 2.9483709867	-1.9563162734	-2.3910762411	-0.2646
N	 1.8894489441	-1.2427189607	 0.8865141349	-0.293521
C	 0.6518587617	-0.5332627609	 1.279004326	 0.045205
C	 0.8716887746	 0.3816744924	 2.4780720691	-0.401351
H	 1.5897812193	 1.7371869372	-0.1857096619	 0.129327
H	 0.1835961455	 1.9328667814	-1.2470376654	 0.116648
H	 0.0271437526	 2.2436251324	 0.484358705	 0.1259
H	-0.969128056	 0.032893014	-0.1003343516	 0.08657
H	 0.8844039812	-0.4522370626	-1.9844285495	 0.249947
H	 3.7235063545	-2.4150021949	-0.5631633902	 0.108429
H	-0.068202848	-1.3132477183	 1.5697391402	 0.096506
H	 1.612738971	 1.156138718	 2.2628923923	 0.12345
H	-0.0613266695	 0.8683633234	 2.7799391099	 0.113494
H	 1.2395724729	-0.2065105997	 3.3225660962	 0.13185
90.5892	98.9077	186.9924	225.5526	246.6628	257.4846	267.9259	368.2236	398.2782	477.4589	503.639	614.119	648.316	727.1399	744.651	757.7848	893.365	933.6655	994.2433	1003.1336	1030.8927	1040.4415	1090.4218	1122.1822	1147.2204	1160.1434	1267.132	1292.6632	1315.1478	1352.3223	1381.7451	1385.1871	1406.3548	1410.2477	1473.6356	1485.4023	1491.0388	1499.304	1505.717	1671.5129	1801.9541	2964.9646	2984.5054	3034.656	3043.7523	3055.3746	3102.6746	3113.0672	3117.5119	3124.7933	3597.1925
CC1NC(C=O)=NC1C	C[C@H]1N[C](C=O)[N][C@H]1C	
InChI=1S/C6H10N2O/c1-4-5(2)8-6(3-9)7-4/h3-5H,1-2H3,(H,7,8)	InChI=1S/C6H10N2O/c1-4-5(2)8-6(3-9)7-4/h3-5H,1-2H3,(H,7,8)/t4-,5+
