14
gdb 20576	4.62922	1.56779	1.28263	2.0648	58.1	-0.2778	-0.0317	0.2461	918.8311	0.107157	-415.857359	-415.849926	-415.848982	-415.889548	26.313	
C	-0.2100391921	 1.5156813458	 0.1003488838	-0.399006
C	 0.014973614	 0.0057744139	-0.0702214156	 0.030228
O	 0.6820357198	-0.3048208275	-1.2755804094	-0.421635
C	 0.7361105769	-0.5569692964	 1.1238369183	 0.360185
N	 1.9532537469	-1.0226183915	 1.0406142504	-0.191498
O	 2.2563923175	-1.3937919488	 2.3570512582	-0.153312
C	 1.1709437616	-1.1061721586	 3.0751375049	 0.107453
N	 0.1985460464	-0.588976384	 2.3960814855	-0.308371
H	 0.7492850082	 2.0404316208	 0.1586419783	 0.119219
H	-0.7627010833	 1.8956537652	-0.7620583461	 0.131747
H	-0.7773356319	 1.7247268953	 1.0115705072	 0.137484
H	-0.9623286965	-0.4890838753	-0.1257571995	 0.119357
H	 1.6301296896	-0.2064374007	-1.1292646741	 0.296876
H	 1.2065260331	-1.3306048183	 4.1313050282	 0.171273
59.1165	162.2904	183.46	246.725	267.9742	342.0913	443.5986	496.3162	629.8243	677.1009	774.3503	901.2475	907.4338	925.062	986.0952	1002.5287	1053.9051	1097.2203	1133.671	1148.4247	1251.3435	1308.3079	1339.4819	1366.3267	1398.0803	1433.4875	1489.0664	1491.5457	1521.1132	1598.3479	3039.7553	3044.8676	3117.991	3133.8253	3266.5293	3798.0189
CC(O)C1=NOC=N1	C[C@@H](O)c1nocn1	
InChI=1S/C4H6N2O2/c1-3(7)4-5-2-8-6-4/h2-3,7H,1H3	InChI=1S/C4H6N2O2/c1-3(7)4-5-2-8-6-4/h2-3,7H,1H3/t3-/m1/s1
