19
gdb 90338	2.43434	1.59216	1.44381	1.944	76.19	-0.2231	0.0129	0.236	1029.9636	0.159982	-419.183719	-419.175318	-419.174374	-419.216231	32.753	
C	-0.3064372896	 1.3749404818	-0.2099895907	-0.408717
C	-0.0306686027	-0.10342042	-0.0048642165	-0.01175
N	 1.2126973711	-0.61516145	-0.7106492931	-0.379513
C	 1.890063991	-0.6199724341	 0.4985632566	 0.316879
N	 3.0274546341	-0.3385811106	 0.9897408374	-0.312095
C	 2.7270446796	-0.0697760577	 2.4305529794	-0.172028
C	 1.1943355886	 0.2894815503	 2.5045525832	-0.322773
C	 0.6454468258	-0.5578390112	 1.3452649415	 0.342235
O	 0.0504355294	-1.7797629887	 1.7385439796	-0.48603
H	 0.5641227062	 1.9858064451	 0.050546465	 0.12829
H	-0.5624121667	 1.5795521569	-1.2549688114	 0.12378
H	-1.1513939537	 1.6955542013	 0.4076870353	 0.131834
H	-0.9035127483	-0.7168683861	-0.2386119018	 0.100021
H	 1.5994585939	-0.1439657108	-1.520892706	 0.238522
H	 2.9794316005	-0.9359489795	 3.0586221489	 0.097872
H	 3.3549269154	 0.7583537259	 2.7698335558	 0.112551
H	 0.7202978538	 0.0466330597	 3.4591521699	 0.104227
H	 1.0713224938	 1.3614493599	 2.3234407037	 0.111476
H	 0.6822464279	-2.2650630621	 2.2805217531	 0.285218
103.6883	189.7229	214.3108	235.1563	255.3115	279.7034	344.9933	395.6183	480.6184	532.2879	570.2568	648.8772	727.1524	741.2655	775.57	831.3497	864.5273	885.473	937.1006	971.7092	1005.0354	1031.4253	1073.8712	1110.7973	1129.8416	1161.5555	1196.2767	1217.0432	1249.71	1274.8274	1300.0458	1314.2877	1355.1825	1360.358	1373.7176	1409.0819	1470.9749	1489.6539	1499.6741	1505.6795	1763.3043	3005.7719	3033.2708	3057.9771	3083.8955	3087.2776	3102.273	3110.7932	3113.583	3547.8035	3804.1363
CC1NC2=NCCC12O	C[C@H]1N[C]2[N]CC[C@@]12O	
InChI=1S/C6H10N2O/c1-4-6(9)2-3-7-5(6)8-4/h4,9H,2-3H2,1H3,(H,7,8)	InChI=1S/C6H10N2O/c1-4-6(9)2-3-7-5(6)8-4/h4,9H,2-3H2,1H3,(H,7,8)/t4-,6-/m1/s1
