14
gdb 5195	5.74316	1.44515	1.15461	3.0214	66.47	-0.1958	0.0191	0.2149	962.5131	0.109626	-378.781246	-378.77433	-378.773386	-378.812574	25.902	
O	-0.2878421147	 0.0336926524	 0.000748643	-0.319599
C	-0.0835181086	 1.2302304733	 0.0077382064	 0.138661
N	 1.1420918712	 1.8224976745	 0.0008389067	-0.396769
C	 2.3797318171	 1.1605397161	-0.0150417897	 0.344102
C	 2.6048588412	-0.2005424826	-0.0283161479	-0.158215
N	 3.9686410138	-0.3746989297	-0.0410309155	-0.235636
C	 4.6060230913	 0.8347014117	-0.0363029805	-0.056849
C	 3.6440158732	 1.8175959022	-0.0202297009	-0.272117
H	-0.8952838772	 1.9836791204	 0.0207680414	 0.07429
H	 1.1658257828	 2.8299404742	 0.0080347342	 0.251198
H	 1.9119144568	-1.0206320642	-0.0291617604	 0.154933
H	 4.4253309616	-1.2690285315	-0.0520541566	 0.264933
H	 5.6814434864	 0.9023286751	-0.044687895	 0.121699
H	 3.8192674952	 2.8827897983	-0.0129104052	 0.089368
76.7444	183.6512	211.7258	351.5927	387.7824	467.4844	547.0252	605.5451	633.2703	655.0181	685.2774	777.449	800.242	864.9689	902.1387	977.2491	1007.2971	1074.5581	1091.4388	1167.6176	1176.4523	1262.4167	1303.8275	1409.5124	1432.0825	1472.8167	1499.5257	1576.0199	1620.0987	1794.7375	2940.6613	3242.2719	3274.6042	3320.1922	3633.8466	3693.308
O=CNC1=CNC=C1	O=CNc1c[nH]cc1	
InChI=1S/C5H6N2O/c8-4-7-5-1-2-6-3-5/h1-4,6H,(H,7,8)	InChI=1S/C5H6N2O/c8-4-7-5-1-2-6-3-5/h1-4,6H,(H,7,8)
