18
gdb 11591	3.72742	1.23816	1.19886	1.7756	68.24	-0.2329	-0.0178	0.2151	1097.2588	0.150937	-384.928951	-384.919952	-384.919008	-384.964061	31.545	
C	-0.3654577029	-0.1227444774	 0.4865297022	-0.4733
C	 0.7350686826	-0.2236448966	-0.5511689731	 0.360957
O	 1.8957010335	 0.0024265203	-0.3020153313	-0.289716
C	 0.2952978526	-0.5480031267	-1.9872208385	-0.167348
O	-0.6863767803	-1.5658308411	-2.0812421381	-0.245739
C	-0.1489151174	-2.8561351911	-2.145454713	 0.144289
C	 0.1985987392	-3.6138399202	-0.8885175546	-0.291056
C	-1.0324034496	-3.972570098	-1.700322759	-0.289627
H	-0.9104567774	 0.816661456	 0.3272369523	 0.143498
H	-1.0931899921	-0.928732645	 0.3748087789	 0.146074
H	 0.0649020137	-0.1130114055	 1.4885472248	 0.140321
H	-0.1601756406	 0.3598161823	-2.4058113782	 0.12299
H	 1.1922930759	-0.7829708969	-2.5727267414	 0.117002
H	 0.4854225541	-3.0171036039	-3.0174074029	 0.093185
H	 1.0549465008	-4.2786909783	-0.9114987378	 0.120079
H	 0.0358029544	-3.1237017759	 0.0639323438	 0.12298
H	-1.9934039695	-3.6886226412	-1.2868462604	 0.126403
H	-1.0383188071	-4.8914218507	-2.2752081437	 0.119008
37.5912	53.5191	82.7375	121.0262	241.4301	259.1348	390.9851	404.4163	454.5991	509.405	585.3606	742.2738	773.4172	803.5289	823.343	862.402	958.2227	975.8242	1013.9005	1050.1148	1073.4735	1091.3683	1103.1538	1130.7981	1179.7484	1191.8944	1229.6149	1247.9095	1299.6728	1360.4366	1377.4935	1403.4283	1454.5851	1463.3171	1469.0795	1472.7952	1498.877	1818.7749	3013.7399	3038.1601	3070.6136	3099.2014	3113.3612	3140.7294	3144.6666	3162.8452	3223.5219	3237.0791
CC(=O)COC1CC1	CC(=O)COC1CC1	
InChI=1S/C6H10O2/c1-5(7)4-8-6-2-3-6/h6H,2-4H2,1H3	InChI=1S/C6H10O2/c1-5(7)4-8-6-2-3-6/h6H,2-4H2,1H3
