15
gdb 115136	2.82807	1.34086	1.06043	3.9345	62.4	-0.2397	-0.1041	0.1356	1127.2201	0.110484	-494.904082	-494.895485	-494.89454	-494.938167	29.882	
C	 0.3043330689	 1.3004121454	 0.127792956	-0.246407
O	 0.2390988157	-0.1152501609	-0.005766552	-0.245656
C	 0.4732485304	-0.5682956335	-1.3027429882	 0.076834
O	 1.8146501349	-0.3824466612	-1.7284705991	-0.261445
C	 2.6447415124	-1.4022755987	-1.1557883686	-0.204966
C	 1.753036296	-2.6294402248	-1.0644427317	 0.306558
O	 2.0581549587	-3.7712065687	-0.8638909894	-0.267178
C	 0.3107334414	-2.0924667101	-1.2732887784	 0.309601
O	-0.6849405939	-2.7440013252	-1.3991403673	-0.263882
H	 1.2949366761	 1.6812298376	-0.1436260093	 0.131976
H	-0.4517882016	 1.7876274115	-0.5033694289	 0.120374
H	 0.0987353995	 1.526124994	 1.1752836103	 0.14024
H	-0.1654016801	-0.0682554464	-2.0410054037	 0.107309
H	 3.4974501194	-1.5691995945	-1.8176804503	 0.153268
H	 3.0159917023	-1.1180750345	-0.1617793894	 0.143374
57.5141	101.8142	135.6082	174.8906	189.0037	295.2421	327.3118	394.2304	455.0051	555.819	643.3147	678.5179	683.7888	774.8801	940.2781	955.0921	1007.302	1047.8947	1071.5713	1132.5821	1159.7798	1177.4773	1208.3358	1211.3536	1307.6521	1353.3631	1370.3394	1468.4385	1475.0826	1484.1538	1509.2661	1863.2372	1882.264	3007.2834	3019.3259	3046.8407	3079.0281	3112.4623	3139.7404
COC1OCC(=O)C1=O	CO[C@H]1OCC(=O)C1=O	
InChI=1S/C5H6O4/c1-8-5-4(7)3(6)2-9-5/h5H,2H2,1H3	InChI=1S/C5H6O4/c1-8-5-4(7)3(6)2-9-5/h5H,2H2,1H3/t5-/m0/s1
