17
gdb 12896	3.5305	1.78562	1.52299	1.59	74.86	-0.227	0.032	0.259	900.1906	0.141167	-326.652219	-326.644429	-326.643484	-326.683826	29.97	
C	-0.0008996867	 1.5243902098	 0.0884351714	-0.490325
C	-0.0228225606	 0.0297691678	-0.0361078431	 0.345441
C	-1.2850207159	-0.8297409832	-0.1445234765	-0.311504
C	-0.5916746123	-1.7987919693	 0.845497226	-0.151172
N	 0.6123605207	-0.9006629302	 0.9791359366	-0.1876
C	 1.1879648093	-0.762551967	-0.3970645638	-0.25614
C	 1.1955148084	-1.8268864319	-1.3587581189	 0.359649
C	 1.2183395459	-2.7152570802	-2.1703478916	-0.458844
H	 0.9854602824	 1.8760278228	 0.4043102305	 0.130859
H	-0.2415975439	 1.9968741489	-0.8710065495	 0.126901
H	-0.7352980323	 1.8654143592	 0.8261066521	 0.124489
H	-2.1635641276	-0.340097938	 0.2806071793	 0.107862
H	-1.5311154812	-1.2073075112	-1.1400864977	 0.114187
H	-1.0879752442	-1.8732242801	 1.8144589329	 0.111075
H	-0.3549611247	-2.8006536052	 0.4794554285	 0.120115
H	 2.1202266462	-0.2044409072	-0.3500651435	 0.11557
H	 1.2442827564	-3.4973261651	-2.8882812228	 0.199437
139.7586	149.7499	187.1503	236.7978	320.5904	362.4601	377.7131	535.8379	562.0115	596.8163	622.6322	662.3462	764.467	774.3128	786.7462	872.6417	939.2797	966.426	979.7264	1028.2402	1054.0565	1096.2621	1134.3614	1173.1971	1220.7646	1235.4664	1278.166	1304.0768	1326.0026	1405.9584	1429.8793	1478.786	1485.0571	1491.9508	1505.599	2229.1416	3028.8583	3064.3681	3071.7846	3091.8091	3111.8728	3112.8126	3131.1952	3135.9874	3502.0379
CC12CCN1C2C#C	C[C@]12CCN1[C@H]2C#C	
InChI=1S/C7H9N/c1-3-6-7(2)4-5-8(6)7/h1,6H,4-5H2,2H3	InChI=1S/C7H9N/c1-3-6-7(2)4-5-8(6)7/h1,6H,4-5H2,2H3/t6-,7+,8?/m0/s1
