20
gdb 75528	2.06682	1.6604	1.02776	3.0815	81.77	-0.2187	-0.014	0.2048	1203.0885	0.171852	-403.162255	-403.153494	-403.15255	-403.195773	33.303	
C	-0.0883491207	 1.4967972144	 0.0350854866	-0.478514
C	-0.025325555	-0.0046156013	-0.0131567278	 0.321135
C	-0.0587969041	-0.6920430547	-1.1559645888	-0.119836
C	 0.0663546776	-2.1961927749	-1.2494808774	-0.229602
N	 1.3732737411	-2.6784769516	-0.7828800367	-0.284522
C	 1.4959062459	-2.820803131	 0.6675532219	-0.25579
C	 1.4236100511	-1.4928111852	 1.4288150011	 0.415396
O	 2.340849418	-1.1144440496	 2.1177289251	-0.298273
C	 0.1169798013	-0.7067792241	 1.3318631993	-0.398792
H	 0.8161378365	 1.9091862263	 0.4998124249	 0.138826
H	-0.1880706918	 1.9289568298	-0.9639217003	 0.121972
H	-0.9347719655	 1.8374195222	 0.6452530866	 0.124783
H	-0.1506011414	-0.1479314259	-2.0922671598	 0.084877
H	-0.7682948503	-2.6774853802	-0.7001059446	 0.085557
H	-0.0375037315	-2.4974422481	-2.2952643318	 0.104297
H	 1.5606330666	-3.583558002	-1.2004284111	 0.223115
H	 0.7065578201	-3.471481259	 1.1009180402	 0.085155
H	 2.4666495876	-3.2656631411	 0.8976371234	 0.121718
H	 0.1083664638	 0.016538636	 2.1493819633	 0.119516
H	-0.7226371994	-1.3998775001	 1.4774961161	 0.11898
78.6962	92.2602	184.755	226.6994	283.4146	287.6171	359.4964	399.5659	442.2037	474.019	513.9251	604.9881	633.6043	767.3222	800.0314	830.7906	865.5851	912.2848	937.9054	996.1984	1016.1023	1032.3727	1069.8697	1083.2923	1134.3484	1162.2116	1207.7889	1226.2197	1268.2424	1300.2323	1310.8197	1319.8467	1358.4932	1410.9219	1415.561	1469.8394	1477.9712	1479.3407	1487.4717	1492.0257	1503.4392	1735.98	1816.9809	2875.2596	2892.1599	3016.2076	3019.8751	3065.2645	3083.097	3102.5919	3112.3199	3115.9925	3159.5141	3521.3869
CC1=CCNCC(=O)C1	CC1=CCNCC(=O)C1	
InChI=1S/C7H11NO/c1-6-2-3-8-5-7(9)4-6/h2,8H,3-5H2,1H3	InChI=1S/C7H11NO/c1-6-2-3-8-5-7(9)4-6/h2,8H,3-5H2,1H3
