18
gdb 83660	2.56668	1.70679	1.31674	0.9848	71.06	-0.2429	0.0494	0.2922	1004.0867	0.148849	-439.013125	-439.005567	-439.004623	-439.045155	29.764	
O	 0.4820830197	 1.0363449681	-0.5731634709	-0.431493
C	 0.1356889756	-0.2167227092	-0.0616890761	 0.051652
C	 0.240211763	-0.3792272105	 1.4786437622	 0.064275
O	-0.1126164977	 0.8659562548	 2.1261887686	-0.308084
C	-1.457742637	 0.3854799652	 2.4075729104	-0.081469
C	-1.2359986891	-0.875138508	 1.5579950549	-0.172189
C	-1.3606646058	-0.6024659959	 0.0523994541	 0.316988
C	-2.4808303431	-0.0195618581	-0.7150767747	-0.30773
N	-2.1078547124	-1.4403719858	-0.8771160145	-0.3818
H	 0.2499915781	 1.6671749368	 0.1247482303	 0.289343
H	 0.7102767763	-0.9754311163	-0.6069988274	 0.087368
H	 1.116737591	-0.8539010858	 1.9239639323	 0.08145
H	-1.5809735477	 0.196526734	 3.4805077274	 0.10915
H	-2.2276775189	 1.0867493939	 2.0675311594	 0.110438
H	-1.5589964422	-1.8440064788	 1.9324399518	 0.094176
H	-3.4456563534	 0.1448115773	-0.2420902498	 0.117545
H	-2.2262406378	 0.6854861161	-1.5022150316	 0.126961
H	-1.5739285387	-1.5640752877	-1.7356839664	 0.233419
88.0385	206.7585	211.5389	244.3649	285.6283	432.1329	443.1577	518.7786	571.7834	656.9827	706.8625	818.9487	827.4384	858.9057	905.3032	935.7167	952.9373	966.4097	982.561	993.837	1024.9432	1066.4156	1092.7755	1114.3038	1132.0305	1147.5964	1175.9211	1203.9931	1244.8719	1251.2666	1263.8658	1283.0315	1310.6454	1317.327	1351.6818	1412.7925	1438.9523	1509.1528	1518.196	3023.7674	3039.5666	3075.487	3092.1008	3104.2755	3141.5054	3192.0526	3477.4855	3722.9754
OC1C2OCC2C11CN1	O[C@H]1[C@H]2OC[C@H]2[C@]21CN2	
InChI=1S/C6H9NO2/c8-5-4-3(1-9-4)6(5)2-7-6/h3-5,7-8H,1-2H2	InChI=1S/C6H9NO2/c8-5-4-3(1-9-4)6(5)2-7-6/h3-5,7-8H,1-2H2/t3-,4+,5+,6+/m1/s1
