21
gdb 119412	3.32827	0.89731	0.8192	1.8478	79.37	-0.2262	0.0764	0.3026	1479.4859	0.180719	-424.183996	-424.174266	-424.173322	-424.218911	35.854	
C	 0.0393574327	 1.4985464226	-0.0077250708	-0.485836
C	 0.0489815812	 0.0076630525	 0.0768268413	 0.409879
C	 1.185365999	-0.9139084564	-0.2547658191	-0.382204
C	 0.5113894049	-1.0043415055	 1.10977621	 0.220455
C	 1.2327177023	-0.8646784642	 2.4192044498	-0.305183
C	 1.9300812435	-2.1524285326	 2.8538418178	-0.062176
O	 2.5722941296	-1.8981659428	 4.093245751	-0.420045
C	-0.8629557636	-1.6357251533	 0.9000075194	-0.130523
O	-1.1965101305	-0.6771591379	-0.1372447287	-0.324991
H	 1.0180918921	 1.9053031467	 0.2625444158	 0.123587
H	-0.1889752092	 1.8219466472	-1.0297879151	 0.132953
H	-0.7154200161	 1.9255574917	 0.659890854	 0.127529
H	 1.0462598529	-1.6915461881	-1.001905595	 0.108009
H	 2.1752382944	-0.4664426606	-0.2352891525	 0.110215
H	 1.9879672359	-0.072714555	 2.3512575857	 0.106954
H	 0.5348567899	-0.5639871736	 3.2107367408	 0.107384
H	 1.1896701601	-2.9640278512	 2.9464526549	 0.085943
H	 2.6520741151	-2.4578749276	 2.0800884649	 0.090667
H	 3.0150319623	-2.7037975576	 4.3750782966	 0.285794
H	-0.9077560865	-2.6711581391	 0.5398815571	 0.098713
H	-1.5303377999	-1.5178354852	 1.763144122	 0.102878
69.4412	96.7519	101.7129	188.2092	216.2173	249.8489	264.0855	333.0927	349.1021	374.1441	446.6987	494.7514	626.7702	756.6936	786.4433	797.616	849.6166	919.5168	947.1637	974.634	987.185	1011.0814	1021.5638	1049.6424	1066.5057	1087.1109	1112.0695	1156.1123	1185.3918	1211.8836	1242.6649	1255.6615	1282.6516	1317.8864	1341.5531	1354.1942	1403.306	1429.7789	1459.9005	1473.3355	1486.253	1491.3178	1507.8183	1524.3082	1527.1014	2962.9012	2992.158	3009.9735	3027.1692	3032.6016	3056.7751	3070.3199	3095.9509	3105.5456	3115.8984	3197.4026	3831.0213
CC12CC1(CCO)CO2	C[C@@]12C[C@]1(CCO)CO2	
InChI=1S/C7H12O2/c1-6-4-7(6,2-3-8)5-9-6/h8H,2-5H2,1H3	InChI=1S/C7H12O2/c1-6-4-7(6,2-3-8)5-9-6/h8H,2-5H2,1H3/t6-,7-/m1/s1
