18
gdb 16889	3.90514	1.80786	1.4148	1.8941	73.52	-0.2294	0.0078	0.2372	921.6576	0.155068	-347.810343	-347.803171	-347.802227	-347.84141	28.135	
C	 0.0585227113	 1.5263104373	 0.0084139461	-0.479341
C	-0.0294716221	 0.0275567115	-0.0189970853	 0.304109
C	-0.0267894683	-0.6778064365	-1.1561618798	-0.144178
C	-0.0835324832	-2.1586358223	-1.1564977704	 0.012342
O	 0.8737090263	-2.865228317	-0.3232468426	-0.263527
C	-0.4944163742	-2.8537211162	 0.0747649604	 0.055618
C	-0.8570970896	-2.0116122554	 1.2760896314	-0.249797
C	-0.0729742085	-0.6849550757	 1.31599074	-0.299755
H	 0.9409505743	 1.8586117778	 0.5709550833	 0.128002
H	 0.1191883947	 1.9490488268	-0.9979816502	 0.121253
H	-0.812167301	 1.9632506289	 0.514466885	 0.123596
H	 0.0216798222	-0.1759314006	-2.1185604473	 0.079011
H	-0.2527294656	-2.643874594	-2.1155840233	 0.087257
H	-1.0014381363	-3.8161683967	-0.0098217149	 0.085025
H	-1.9356076032	-1.8104848008	 1.2254634045	 0.1058
H	-0.6849670373	-2.572124936	 2.201733197	 0.107022
H	 0.9562969435	-0.8911418848	 1.6348355283	 0.131423
H	-0.5040959731	-0.0278650564	 2.0798171678	 0.09614
142.643	178.4648	215.9286	326.4447	347.0077	389.5808	477.5995	482.9223	641.973	690.4162	763.5447	777.502	837.0464	853.5071	896.5791	951.6722	974.5701	1015.0614	1039.4438	1063.8263	1075.5342	1087.8795	1145.1687	1180.5985	1218.0394	1265.7825	1279.6062	1330.1438	1354.8153	1383.0263	1398.004	1412.9774	1458.0895	1475.2777	1479.8168	1485.6538	1489.1782	1722.7401	3013.0829	3022.3601	3029.6564	3058.7175	3061.486	3070.5285	3096.5909	3111.1314	3130.4856	3165.0217
CC1=CC2OC2CC1	CC1=C[C@H]2O[C@H]2CC1	
InChI=1S/C7H10O/c1-5-2-3-6-7(4-5)8-6/h4,6-7H,2-3H2,1H3	InChI=1S/C7H10O/c1-5-2-3-6-7(4-5)8-6/h4,6-7H,2-3H2,1H3/t6-,7+/m0/s1
