18
gdb 92758	3.51666	1.11142	0.90532	2.9262	74.65	-0.2559	-0.0586	0.1973	1312.346	0.146177	-439.128085	-439.118813	-439.117869	-439.163434	32.586	
C	-0.3759212922	 1.5435119981	-0.1004394237	-0.39732
C	 0.0906494664	 0.1025343326	 0.0213609888	 0.099287
C	 1.0178728713	-0.3892975954	-1.1263045455	-0.205029
N	 2.3044665914	-0.6839875914	-0.4810409617	-0.303605
C	 2.1342038914	-0.4582921636	 0.7612795184	 0.314778
O	 0.9319756554	-0.0340039407	 1.2025733009	-0.249006
C	 3.2085223925	-0.6354072769	 1.806683892	 0.315544
C	 4.5447170846	-1.1227987132	 1.2979652888	-0.473951
O	 2.9754866927	-0.3929925202	 2.9662597438	-0.279882
H	 0.4776875815	 2.2139465096	-0.2421815642	 0.129327
H	-1.0435935418	 1.6484243942	-0.9619990357	 0.123419
H	-0.9173581385	 1.8555368854	 0.7963451804	 0.13732
H	-0.7644837428	-0.5635879283	 0.1713230656	 0.09843
H	 0.6403802905	-1.2895754804	-1.6225941416	 0.12374
H	 1.156983004	 0.3730718805	-1.9017281129	 0.120046
H	 4.9365620966	-0.4340246397	 0.5436973147	 0.154244
H	 5.2378250896	-1.2068285809	 2.1353684329	 0.138466
H	 4.4286944873	-2.0897178996	 0.799300819	 0.154193
37.928	59.835	108.3451	165.2825	180.9153	243.2603	320.8275	365.0715	433.2567	496.1422	508.679	623.2727	699.3187	723.468	836.1287	894.2574	929.9524	952.9301	973.3741	1015.6702	1042.8992	1070.3587	1118.2424	1138.0678	1144.9065	1226.2489	1281.7715	1333.0844	1364.0837	1384.1239	1405.3215	1412.0457	1455.7101	1463.1771	1484.7354	1493.6657	1497.9821	1696.3784	1810.5203	3035.1777	3039.8424	3053.1198	3054.4254	3074.5517	3112.1527	3117.4457	3125.1375	3161.1082
CC1CN=C(O1)C(C)=O	C[C@H]1CN=C(O1)C(=O)C	
InChI=1S/C6H9NO2/c1-4-3-7-6(9-4)5(2)8/h4H,3H2,1-2H3	InChI=1S/C6H9NO2/c1-4-3-7-6(9-4)5(2)8/h4H,3H2,1-2H3/t4-/m0/s1
