16
gdb 56368	2.03777	1.47383	1.26551	2.7568	72.9	-0.2767	-0.0192	0.2575	1090.4617	0.123614	-396.918245	-396.909166	-396.908222	-396.952149	32.463	
C	-0.0837625764	 1.4856950766	-0.0930540599	-0.406557
C	 0.0112864357	-0.0590021165	 0.0444970683	-0.105784
C	 0.7310859798	-0.4007036628	 1.2859730781	 0.306257
N	 1.334978767	-0.646207568	 2.2390781438	-0.316489
C	-1.3485140586	-0.6240046039	 0.1014367877	 0.29264
N	-2.4219570911	-1.0502526029	 0.0874697217	-0.330788
C	 0.7897521137	-0.6514999874	-1.1507633103	 0.014457
C	 0.599317791	-2.0483536236	-1.5998557544	-0.24759
N	 0.1352955458	-0.917193508	-2.4278925837	-0.327676
H	 0.9237128529	 1.9062439664	-0.121514669	 0.152394
H	-0.6014538391	 1.7351053341	-1.0215461529	 0.155122
H	-0.6258924247	 1.9182918258	 0.749478782	 0.15871
H	 1.7732967593	-0.1952062934	-1.2352754875	 0.123379
H	 1.4432412049	-2.5996898189	-2.0018079754	 0.13704
H	-0.1462768487	-2.6520330206	-1.0904847252	 0.144578
H	-0.8764289516	-0.8273976168	-2.3490778331	 0.250307
76.5875	132.6535	145.2379	167.7949	225.1484	230.5171	256.8178	367.8214	416.4117	486.6466	522.1457	580.4678	615.191	652.4147	822.1225	881.5109	925.2917	945.9831	965.1529	1003.7711	1070.9348	1115.2329	1150.2485	1169.9536	1181.8453	1244.9947	1259.4515	1308.2436	1390.5929	1415.0875	1485.3442	1491.6456	1511.1515	2360.7104	2366.1654	3060.4357	3123.0403	3137.5361	3146.668	3151.3293	3212.6693	3487.4262
CC(C#N)(C#N)C1CN1	CC(C#N)(C#N)[C@H]1CN1	
InChI=1S/C6H7N3/c1-6(3-7,4-8)5-2-9-5/h5,9H,2H2,1H3	InChI=1S/C6H7N3/c1-6(3-7,4-8)5-2-9-5/h5,9H,2H2,1H3/t5-/m1/s1
