21
gdb 63382	2.90229	1.1647	0.97528	3.0651	83.65	-0.265	0.0322	0.2972	1289.3322	0.181728	-383.2819	-383.272124	-383.27118	-383.315889	37.451	
C	-0.2988794128	 1.4992345824	-0.0338918255	-0.448548
C	-0.0008869416	-0.0008315653	 0.0062081038	 0.356779
C	-1.266536025	-0.8200590687	-0.2296085122	-0.454273
C	 1.2198880702	-0.4012917147	-0.8851757421	-0.284735
C	 2.1239396589	-0.4760946681	 0.3852517079	 0.149099
N	 2.9255040199	 0.7372298471	 0.5409263674	-0.537804
C	 0.8327084374	-0.4208228771	 1.2607799288	-0.284738
C	 2.9218134689	-1.7035864043	 0.5180279335	 0.219306
N	 3.5752667842	-2.6524172658	 0.6272806109	-0.34899
H	 0.6083701307	 2.0842481744	 0.1350925804	 0.138755
H	-0.7172615872	 1.7847492884	-1.0061643814	 0.109798
H	-1.0314922983	 1.7688882889	 0.7358113717	 0.109798
H	-1.7076542122	-0.5876026414	-1.205802534	 0.116198
H	-1.0608023833	-1.8954369648	-0.2022518437	 0.113665
H	-2.0217385492	-0.6034113904	 0.5347923586	 0.116197
H	 1.0955592686	-1.3761993932	-1.3612630495	 0.11541
H	 1.5514637152	 0.3255168205	-1.6305196954	 0.109191
H	 3.3788107162	 0.7384365006	 1.4512977845	 0.240145
H	 3.668443942	 0.7529881155	-0.1533758806	 0.240146
H	 0.8806099915	 0.2916835107	 2.0876854253	 0.10919
H	 0.5529550459	-1.4035661548	 1.6461559216	 0.115411
74.7812	140.86	191.2567	215.6447	241.6751	273.792	297.9408	310.8001	331.2556	391.6522	408.9196	433.7531	509.179	587.9225	603.2706	703.6334	835.1608	865.87	882.857	891.8463	902.0295	951.1766	973.4223	979.355	999.4441	1029.918	1108.8689	1141.1961	1210.9208	1249.7143	1250.06	1254.1173	1302.0643	1304.4289	1319.1808	1401.7756	1419.698	1463.1462	1478.2358	1487.343	1489.0322	1500.3619	1514.1514	1655.4096	2335.8239	3019.9261	3025.3373	3063.7543	3068.3355	3083.5981	3089.9942	3093.3701	3121.4955	3125.7814	3126.9233	3478.8658	3559.0935
CC1(C)CC(N)(C1)C#N	CC1(C)CC(N)(C1)C#N	
InChI=1S/C7H12N2/c1-6(2)3-7(9,4-6)5-8/h3-4,9H2,1-2H3	InChI=1S/C7H12N2/c1-6(2)3-7(9,4-6)5-8/h3-4,9H2,1-2H3
