16
gdb 93387	3.31249	1.39227	1.09648	4.275	64.96	-0.2497	0.0025	0.2523	1065.5313	0.12563	-475.035378	-475.027631	-475.026687	-475.067585	29.574	
O	-0.1588418828	 1.454365759	 0.1532642974	-0.427434
C	-0.0014202682	 0.0521252592	 0.0275766134	 0.083665
C	 0.7838188535	-0.5297995103	 1.2160862752	-0.199348
N	 0.774104066	-1.98372481	 1.1818043634	-0.345286
C	-0.3068790482	-2.7503167663	 0.8496459626	 0.437255
O	-0.3014553629	-3.9660008549	 0.8807980933	-0.374419
C	-1.5184320532	-1.9752259874	 0.3859187702	-0.087127
O	-1.9659953825	-0.9021244615	 1.2295710076	-0.240199
C	-1.378194053	-0.5680289231	-0.0238549331	 0.047007
H	 0.7003986907	 1.8704327195	 0.0311299699	 0.290925
H	 0.5130123173	-0.2067308224	-0.9123329404	 0.085517
H	 1.8231686937	-0.1901626393	 1.1676513958	 0.104096
H	 0.3369403426	-0.1350308688	 2.1354042855	 0.14027
H	 1.5584263602	-2.4951374069	 1.5570674911	 0.253388
H	-2.302717931	-2.6039056135	-0.0261792601	 0.120287
H	-2.0629128022	-0.1523293033	-0.7610422617	 0.111402
91.3538	198.5392	236.173	261.962	288.5196	349.4029	421.8618	443.0294	502.609	543.7596	624.9118	697.5058	755.0327	794.6877	865.5747	924.0035	929.1559	991.2885	1064.9666	1101.649	1108.8473	1113.6726	1144.3615	1241.7428	1253.1023	1270.6637	1308.8881	1330.8578	1374.8244	1389.9506	1430.4413	1460.7028	1474.396	1512.898	1798.7782	2974.2918	3039.5098	3085.2339	3135.3541	3165.8999	3623.7583	3821.1813
OC1CNC(=O)C2OC12	O[C@H]1CNC(=O)[C@H]2O[C@@H]12	
InChI=1S/C5H7NO3/c7-2-1-6-5(8)4-3(2)9-4/h2-4,7H,1H2,(H,6,8)	InChI=1S/C5H7NO3/c7-2-1-6-5(8)4-3(2)9-4/h2-4,7H,1H2,(H,6,8)/t2-,3-,4-/m0/s1
