22
gdb 105255	2.08739	1.39697	1.06039	0.5287	82.89	-0.2231	0.0803	0.3034	1259.8963	0.192579	-404.29189	-404.282117	-404.281172	-404.326206	37.246	
C	 0.9381602434	 0.0728522281	-1.219148889	-0.375072
C	 0.1984174741	-0.4544101748	 0.018765887	-0.283893
C	-1.3168622695	-0.5511035827	-0.1288961406	 0.338434
C	-1.8761607089	-1.4366554677	-1.2326009806	-0.365732
C	-2.0032416205	-1.851036085	 0.2113788517	 0.067873
O	-1.2164623308	-2.8944910846	 0.7110482112	-0.426263
N	-2.170532847	 0.5868018025	 0.1665290153	-0.115349
C	-2.0436698711	 1.2686971523	 1.4488213928	-0.232901
C	-1.6538413433	 1.9486676634	 0.1812638479	-0.230523
H	 2.0135687984	 0.1419111887	-1.0253928144	 0.109887
H	 0.7975430863	-0.5950248863	-2.0747041771	 0.115674
H	 0.5892529647	 1.0641683566	-1.5233051445	 0.116327
H	 0.5733048731	-1.4514159043	 0.2658338881	 0.123559
H	 0.4380838789	 0.1720741194	 0.8873171427	 0.094899
H	-2.7634162762	-1.0913910754	-1.7497506729	 0.115645
H	-1.1612094837	-1.9860847098	-1.8366757194	 0.107722
H	-2.9846233354	-1.7553987727	 0.673010136	 0.09296
H	-1.5007034531	-3.7092393175	 0.2845470833	 0.288356
H	-2.9800197169	 1.5106028625	 1.9445546632	 0.1131
H	-1.2392327312	 0.9749997718	 2.1204754552	 0.116192
H	-0.591763645	 2.1161108095	 0.0267159744	 0.115533
H	-2.2991650863	 2.699019756	-0.2683621701	 0.113573
70.7233	138.8815	168.9194	181.7982	211.3008	238.7736	267.6132	302.2302	348.8479	392.3571	446.0819	482.9566	599.8659	636.4445	771.5768	803.9655	824.5619	848.9541	896.3672	941.9345	958.1117	979.2759	1018.8448	1029.8439	1043.8981	1051.4128	1100.661	1112.2913	1116.053	1121.0746	1169.0357	1173.7265	1180.3873	1220.5837	1277.1976	1298.9294	1321.2511	1351.8183	1378.8233	1409.1382	1416.1586	1475.0262	1491.3175	1493.4408	1495.9216	1508.0148	1524.6158	3032.6988	3038.751	3087.0213	3097.8143	3104.1586	3107.8343	3113.3842	3116.5888	3132.6875	3177.0113	3194.8151	3229.2464	3809.4409
CCC1(CC1O)N1CC1	CC[C@]1(C[C@H]1O)N1CC1	
InChI=1S/C7H13NO/c1-2-7(5-6(7)9)8-3-4-8/h6,9H,2-5H2,1H3	InChI=1S/C7H13NO/c1-2-7(5-6(7)9)8-3-4-8/h6,9H,2-5H2,1H3/t6-,7-/m1/s1
