21
gdb 91955	2.29912	1.83402	1.24448	1.3228	81.65	-0.2336	0.0857	0.3192	1083.2172	0.183067	-387.066792	-387.058668	-387.057724	-387.099157	32.887	
C	 0.1486584738	 1.5695551326	-0.1480638636	-0.410744
C	 0.1052709345	 0.061995195	 0.0171750885	 0.079253
O	 0.7696427963	-0.5387943488	-1.1075357914	-0.278647
C	 1.2399518258	-1.8065906798	-0.7250827712	 0.100758
C	 2.5954917087	-1.8416191584	-0.0783213188	-0.311632
C	 1.335470981	-1.8675989999	 0.7722456707	-0.160663
C	 0.798823242	-0.5381392316	 1.2526156905	 0.334287
C	 1.5467244275	 0.2945062281	 2.2667725375	-0.305438
C	 0.2387366692	-0.3652988943	 2.6352154343	-0.332406
H	 1.1821965173	 1.924774966	-0.1836687481	 0.124567
H	-0.3469664998	 1.8579712845	-1.0789222803	 0.126291
H	-0.3691797631	 2.0668743972	 0.6786662597	 0.114499
H	-0.946073337	-0.2731710877	 0.0183957577	 0.067333
H	 0.8837255841	-2.6279029956	-1.3395198941	 0.091954
H	 3.1700494127	-2.7600063022	-0.1473000234	 0.107055
H	 3.1786585333	-0.9271403733	-0.098596011	 0.117566
H	 1.0893607651	-2.7684426852	 1.3230081293	 0.089281
H	 2.4620958119	-0.1210513425	 2.674547134	 0.11326
H	 1.5570798175	 1.3730283872	 2.1562389731	 0.111743
H	-0.633313527	 0.2712222528	 2.7541390761	 0.110092
H	 0.2590932964	-1.2158186041	 3.3089154602	 0.111592
79.9731	190.2546	231.6663	262.3485	269.1511	356.973	385.7639	474.3293	492.7085	529.1751	695.2289	713.3521	770.0587	797.3372	813.9714	879.3111	897.781	916.9355	930.2134	970.4928	999.3566	1004.4992	1049.411	1053.9961	1064.055	1080.2942	1094.7446	1102.7017	1117.4931	1143.1836	1151.3822	1190.6025	1204.7085	1259.523	1300.115	1331.3651	1368.7583	1385.9019	1390.9045	1412.7724	1466.0798	1469.6373	1483.7394	1497.2869	1508.32	2949.4205	3041.3322	3112.7195	3120.0013	3124.0351	3125.1536	3135.7797	3149.6521	3169.7742	3200.1446	3218.6796	3222.4515
CC1OC2CC2C11CC1	C[C@H]1O[C@H]2C[C@H]2C21CC2	
InChI=1S/C8H12O/c1-5-8(2-3-8)6-4-7(6)9-5/h5-7H,2-4H2,1H3	InChI=1S/C8H12O/c1-5-8(2-3-8)6-4-7(6)9-5/h5-7H,2-4H2,1H3/t5-,6-,7+/m1/s1
