17
gdb 14491	3.68198	2.04041	1.56013	1.6618	75.04	-0.229	0.0296	0.2586	851.2549	0.141719	-326.605629	-326.598258	-326.597314	-326.636776	29.094	
C	-0.1592756097	 1.5384058874	 0.0472094701	-0.482456
C	-0.0069668251	 0.0176638894	-0.0379754774	 0.181926
C	-1.3035193039	-0.5762037584	 0.2706003509	 0.282142
C	-2.4065310965	-0.9886492658	 0.5159363375	-0.439258
C	 0.8537743367	-0.6639890582	-1.1555825866	-0.093369
C	 2.0777118341	-0.109810574	-0.401871577	-0.185739
N	 1.1960463865	-0.6173901046	 0.7577672667	-0.173293
C	 0.9831530824	-1.8385254997	-0.164133608	-0.18043
H	 0.7271683547	 2.0876269746	-0.2694401828	 0.120934
H	-0.9959375308	 1.8534122382	-0.5824587153	 0.133526
H	-0.3918957801	 1.8223637279	 1.0775488008	 0.142821
H	-3.3730540789	-1.3699212097	 0.7362046848	 0.193069
H	 0.6492657904	-0.6848681929	-2.2319773739	 0.069242
H	 3.0096242906	-0.6722325812	-0.4915217304	 0.103937
H	 2.2801557002	 0.9594909422	-0.3925976625	 0.103403
H	 0.0957038322	-2.4236073655	 0.0744868171	 0.124332
H	 1.8730030371	-2.4667355897	-0.2417304841	 0.099213
147.2143	151.9782	181.3466	278.5067	380.7551	498.3908	501.2926	540.976	620.3683	630.5228	649.1024	660.9493	745.1283	789.2669	821.3139	903.5934	909.2107	936.355	1014.3273	1052.9366	1064.2468	1096.0733	1104.1811	1157.1343	1190.1935	1197.3226	1220.4515	1232.3194	1246.3526	1274.4018	1409.0412	1484.0421	1488.2697	1522.4783	1560.7436	2224.3257	3037.852	3054.9042	3074.7051	3084.7959	3119.5789	3139.538	3151.4311	3158.5055	3500.9731
CC1(C#C)C2CN1C2	C[C@@]1(C#C)[C@H]2CN1C2	
InChI=1S/C7H9N/c1-3-7(2)6-4-8(7)5-6/h1,6H,4-5H2,2H3	InChI=1S/C7H9N/c1-3-7(2)6-4-8(7)5-6/h1,6H,4-5H2,2H3/t7-/m1/s1
