21
gdb 115752	2.05538	1.27491	0.83616	4.0746	84.06	-0.2256	0.0338	0.2594	1407.5362	0.182368	-383.270402	-383.26076	-383.259816	-383.305624	34.89	
C	 0.0324084582	 1.6169888489	-0.0045291441	-0.383938
C	-0.0646703784	 0.0931508869	-0.0131575734	-0.137411
N	 0.5255411891	-0.4724173068	-1.2157994813	-0.07025
C	-0.1820351463	-0.3090017525	-2.5032896991	-0.161515
C	 0.2558509995	-1.7413168536	-2.8907526098	-0.272041
C	 0.5478017148	-1.9355976133	-1.3830562155	 0.062327
C	 1.8645291618	-2.6275563225	-0.9990553568	-0.346819
C	 2.0850862991	-2.6729153303	 0.4449628555	 0.268911
N	 2.2380070629	-2.7022616381	 1.5904149275	-0.317362
H	 1.0766149519	 1.9363269119	-0.0669967685	 0.126113
H	-0.5073038194	 2.0546953274	-0.8512184081	 0.116394
H	-0.403029963	 2.0238106757	 0.9128423754	 0.117709
H	 0.4708844258	-0.3185096031	 0.848856317	 0.129587
H	-1.124797963	-0.2129181467	 0.0921081681	 0.072942
H	-1.2753563947	-0.2286197808	-2.386462609	 0.089272
H	 0.1670972497	 0.5213145237	-3.1245214352	 0.107188
H	-0.4941642477	-2.3933835126	-3.3381475111	 0.112164
H	 1.1632609908	-1.7582478247	-3.4988757388	 0.111421
H	-0.2900339568	-2.4371229526	-0.8709140385	 0.074966
H	 1.866392908	-3.6545146001	-1.3837577333	 0.148377
H	 2.6973432278	-2.0931394366	-1.467966351	 0.151966
56.2026	85.8993	103.3054	164.0369	192.6693	225.1508	276.0806	335.489	393.7897	426.5871	451.2716	523.7718	667.4557	749.9688	808.7128	841.9835	893.0308	939.944	951.911	967.3906	993.5772	1043.1208	1078.6872	1110.4502	1130.7778	1144.0666	1195.4299	1213.1643	1225.1017	1243.1027	1258.1614	1282.039	1300.7953	1316.3647	1351.3746	1384.4291	1400.8138	1418.3688	1453.5292	1486.4823	1490.2576	1493.3898	1509.7503	1526.0908	2357.9103	2903.5143	2961.5377	2970.9403	3038.0323	3042.0907	3066.0352	3069.1216	3079.2182	3090.964	3106.6501	3119.9483	3140.3922
CCN1CCC1CC#N	CCN1CC[C@H]1CC#N	
InChI=1S/C7H12N2/c1-2-9-6-4-7(9)3-5-8/h7H,2-4,6H2,1H3	InChI=1S/C7H12N2/c1-2-9-6-4-7(9)3-5-8/h7H,2-4,6H2,1H3/t7-/m1/s1
