21
gdb 32588	2.77113	1.20175	0.91296	1.5972	87.74	-0.1764	0.0586	0.235	1361.3345	0.182749	-383.3117	-383.30161	-383.300665	-383.347078	36.77	
C	-0.0192073534	 1.5726083273	-0.0089106226	-0.371412
C	-0.0017670739	 0.0415955059	-0.010636927	-0.142516
N	 0.6831678069	-0.5197254292	-1.1632586749	-0.01372
C	 0.0774544988	-0.8816143499	-2.3509595029	-0.206651
C	 1.0469520727	-1.218971413	-3.2643672365	 0.282643
C	 0.8236887191	-1.6854923125	-4.6711466746	-0.497541
C	 2.3018391169	-1.0633695962	-2.5993561212	-0.331151
C	 2.0461705239	-0.6320361598	-1.3162338311	 0.277166
N	 2.9028882969	-0.2515351016	-0.2574306705	-0.61071
H	 1.0012644401	 1.9608410808	 0.0325214856	 0.14275
H	-0.5017766159	 1.9547014642	-0.9132405532	 0.124046
H	-0.5696839916	 1.9454641642	 0.8611130318	 0.110029
H	 0.4813161756	-0.3246950046	 0.8997953265	 0.110153
H	-1.0218698045	-0.3550308409	-0.0128033924	 0.11201
H	-0.9983825712	-0.881641247	-2.4368506928	 0.103696
H	 1.3054187431	-1.0237612475	-5.4013293689	 0.118646
H	 1.2282947635	-2.69113155	-4.8392885313	 0.11794
H	-0.2436477488	-1.7172031304	-4.9105755617	 0.113609
H	 3.2803918076	-1.2674508836	-3.0098687289	 0.075131
H	 3.8380727622	-0.0887149201	-0.6102476208	 0.245132
H	 2.9718921519	-0.9687361762	 0.4601788074	 0.240751
47.9533	101.0747	117.043	131.3036	198.0689	217.5373	268.6299	295.7601	307.2058	405.004	484.7774	580.7236	631.8198	639.8199	655.2943	690.9794	758.3882	776.7633	811.7061	840.8489	965.2808	990.7972	1015.7348	1062.2966	1092.6759	1108.7431	1140.8783	1177.4177	1209.8066	1248.8904	1300.7921	1373.7859	1389.8919	1406.3379	1408.8132	1423.4749	1467.5786	1482.7033	1489.2816	1490.4778	1508.2621	1513.9377	1555.3967	1622.2355	1654.2103	3018.0307	3041.1654	3052.447	3063.0932	3090.5919	3098.4544	3113.1861	3133.8065	3229.4451	3246.4989	3478.6669	3591.6387
CCN1C=C(C)C=C1N	CCn1cc(C)cc1N	
InChI=1S/C7H12N2/c1-3-9-5-6(2)4-7(9)8/h4-5H,3,8H2,1-2H3	InChI=1S/C7H12N2/c1-3-9-5-6(2)4-7(9)8/h4-5H,3,8H2,1-2H3
