19
gdb 91206	2.16201	1.58611	1.4348	2.2117	75.65	-0.244	-0.0267	0.2173	1052.588	0.157829	-423.022506	-423.013702	-423.012758	-423.056041	33.439	
C	 0.3437622696	 1.5850429089	-0.2651049638	-0.419337
C	 0.0515389617	 0.1094418565	-0.0251979409	-0.010399
C	 0.7332872446	-0.9633049157	-0.9305267393	-0.251147
C	 1.3776595731	-1.6307782228	 0.3011576647	-0.104121
C	 2.7391976413	-0.9991154092	 0.7063031133	-0.352028
C	 1.991427984	-0.171221006	 1.762585261	 0.314937
O	 2.3160240338	 0.29383524	 2.8230898976	-0.320284
C	 0.6112410107	-0.5682849553	 1.2606593416	 0.306306
O	-0.3485605333	-0.7905029061	 2.2336959116	-0.473362
H	 1.4200478705	 1.7832364734	-0.3183044628	 0.115983
H	-0.0998240988	 1.9205634228	-1.2086575005	 0.119194
H	-0.0711494384	 2.2019677618	 0.5386787646	 0.13136
H	-1.0301280594	-0.0518873589	 0.0035556471	 0.09967
H	 0.0149126422	-1.5967507462	-1.4553148663	 0.107637
H	 1.4475153001	-0.5764674984	-1.6638291973	 0.097694
H	 1.2898635473	-2.7072176853	 0.4369545298	 0.085173
H	 3.4654804307	-1.6774838316	 1.1623609885	 0.134122
H	 3.2430261118	-0.4261874025	-0.0771850415	 0.125012
H	 0.0929926085	-0.7650118455	 3.0927373327	 0.293589
61.4774	96.0096	211.0228	221.2556	231.9108	343.7536	351.3125	379.0958	412.352	493.4214	508.7521	605.3715	678.5147	756.9315	807.4698	825.6021	882.9097	895.166	944.0936	976.3952	1004.797	1028.928	1066.8325	1107.6315	1116.1906	1126.9066	1159.4189	1202.7851	1211.9732	1222.298	1272.9312	1291.993	1329.7543	1368.9471	1379.1096	1410.4447	1442.9969	1492.0037	1494.7288	1496.9589	1849.7077	3028.6713	3053.7598	3059.5596	3061.6333	3095.5178	3102.312	3108.2347	3111.2346	3133.1656	3764.5548
CC1CC2CC(=O)C12O	C[C@H]1C[C@H]2CC(=O)[C@@]12O	
InChI=1S/C7H10O2/c1-4-2-5-3-6(8)7(4,5)9/h4-5,9H,2-3H2,1H3	InChI=1S/C7H10O2/c1-4-2-5-3-6(8)7(4,5)9/h4-5,9H,2-3H2,1H3/t4-,5-,7+/m0/s1
