16
gdb 42693	2.99839	1.99294	1.71567	3.3852	70.72	-0.2363	-0.0247	0.2116	835.0081	0.128019	-400.74997	-400.744114	-400.74317	-400.780037	24.741	
O	-0.008443312	-0.0100585672	-0.0538546468	-0.342972
C	-0.0219221448	 1.1969903071	-0.0224093404	 0.449199
C	-1.2358605488	 2.0773774394	 0.0087636362	-0.19445
C	-1.1582575679	 3.2499675364	 0.9836445094	-0.076047
C	 0.1258858574	 3.3415387206	 1.7886969558	-0.183444
N	 1.2407225397	 3.253531244	 0.8281090899	-0.114396
C	 0.7141542004	 3.4509274651	-0.5225079495	-0.055623
C	-0.8146231123	 3.4592537169	-0.4637029678	-0.079884
C	 1.1873468288	 2.0927315831	-0.1028176196	-0.177859
H	-2.1999533838	 1.64134413	-0.2184987454	 0.109666
H	-2.0906226541	 3.6143769673	 1.4004962362	 0.103645
H	 0.1959824977	 4.3145026994	 2.2874527355	 0.118493
H	 0.2252817087	 2.5620491854	 2.5501746978	 0.12624
H	 1.2589837408	 4.0929703636	-1.2047951386	 0.104365
H	-1.407186505	 4.0481241373	-1.1498729223	 0.10212
H	 2.1447173952	 1.6540290915	-0.3608180805	 0.110948
143.1174	370.8424	394.6451	449.1947	580.0155	605.953	686.6228	720.1327	743.5761	774.212	801.4061	828.461	874.3462	885.3861	918.2946	965.302	976.3959	999.7395	1022.0734	1051.9265	1065.2643	1087.3461	1096.0134	1102.9073	1201.7	1227.8654	1244.5763	1283.7953	1298.9181	1314.7719	1325.6056	1337.6947	1397.9345	1496.7862	1828.0862	3045.8256	3091.878	3175.272	3176.2771	3184.5606	3202.3874	3216.7858
O=C1C2C3CN4C(C23)C14	O=C1[C@H]2[C@H]3CN4[C@H]([C@@H]23)[C@H]14	
InChI=1S/C7H7NO/c9-7-4-2-1-8-5(3(2)4)6(7)8/h2-6H,1H2	InChI=1S/C7H7NO/c9-7-4-2-1-8-5(3(2)4)6(7)8/h2-6H,1H2/t2-,3+,4-,5+,6+,8?/m0/s1
