20
gdb 30777	3.22386	1.2189	0.90092	3.2008	84.78	-0.1686	0.0409	0.2095	1326.7577	0.171347	-399.366001	-399.356026	-399.355081	-399.401273	35.214	
C	-0.1149350735	 1.474132395	 0.0011609091	-0.308551
N	 0.014157953	 0.0280420192	-0.1165143753	-0.389858
C	-1.160480265	-0.7272874908	-0.0476975862	 0.261972
C	-1.2703014841	-2.1034167658	-0.0022485377	 0.180868
C	-0.2397608899	-3.1792250915	 0.0111944798	-0.515551
N	-2.6421859755	-2.3420920027	 0.0119412034	-0.034136
C	-3.290280286	-3.6329150761	 0.0605461286	-0.338139
C	-3.2565421096	-1.1329583431	-0.0404639181	-0.018691
N	-2.3974316538	-0.1350441566	-0.0727976954	-0.341812
H	 0.877939315	 1.9215833924	-0.0983755084	 0.105389
H	-0.7488125843	 1.8489220246	-0.8051542693	 0.143185
H	-0.563194339	 1.805285801	 0.9498975671	 0.108965
H	 0.7411016717	-0.3390826888	 0.4811652264	 0.226367
H	-0.123440437	-3.6657400741	 0.9899616642	 0.121595
H	-0.4534064246	-3.9709302859	-0.71786375	 0.124086
H	 0.7303967272	-2.7530901883	-0.2602431729	 0.134994
H	-3.018199344	-4.1801764606	 0.9694696326	 0.138605
H	-4.3719859784	-3.4851603686	 0.0553945625	 0.14264
H	-3.0206551622	-4.2461253369	-0.8060513411	 0.139811
H	-4.3328550199	-1.0408259327	-0.0500951493	 0.118259
50.5601	110.3114	120.7934	150.4306	181.9507	201.6224	237.854	256.4977	323.2826	346.8081	520.3223	540.8539	629.2482	648.9443	734.8054	746.3447	769.6638	792.853	954.0128	1059.7942	1060.8707	1082.6721	1113.2006	1151.142	1154.9325	1181.5836	1220.5076	1263.103	1343.0845	1415.4075	1417.8744	1446.1145	1454.412	1462.2421	1473.3527	1478.5689	1483.3023	1489.5512	1494.8983	1516.8724	1526.7953	1542.2524	1641.7799	2990.8749	2999.483	3031.0581	3046.378	3082.0053	3086.0366	3103.5222	3129.0191	3132.6785	3240.7775	3579.2045
CNC1=C(C)N(C)C=N1	CNc1c(C)n(C)cn1	
InChI=1S/C6H11N3/c1-5-6(7-2)8-4-9(5)3/h4,7H,1-3H3	InChI=1S/C6H11N3/c1-5-6(7-2)8-4-9(5)3/h4,7H,1-3H3
