20
gdb 106393	3.33349	1.38851	1.21955	2.0838	78.23	-0.2241	0.0772	0.3013	1079.4421	0.173095	-403.087132	-403.079509	-403.078565	-403.119037	31.149	
O	-0.0124835666	 1.4187523355	-0.0705567885	-0.423605
C	-0.0079438168	-0.0023984342	-0.0294095813	-0.214309
C	-1.43428486	-0.4859428924	-0.034112772	 0.370781
C	-2.5153034123	 0.0368150918	 0.9839109508	-0.251176
C	-3.4912541461	-0.555430698	-0.0920621539	-0.057223
C	-2.4509743221	-0.0711148115	-1.137396108	-0.262134
C	-3.1587945877	-2.0547651136	 0.058776736	-0.031525
N	-2.3648667969	-2.6455167226	-1.0485617376	-0.344403
C	-1.6811240103	-2.0059511509	 0.1032066273	-0.107837
H	 0.8992242724	 1.7206836594	-0.113855251	 0.287411
H	 0.5226353779	-0.4247619984	-0.8984772259	 0.09289
H	 0.505142829	-0.3691557685	 0.8764101785	 0.079052
H	-2.5275890314	-0.411052134	 1.9832341769	 0.078362
H	-2.5413463803	 1.1261507337	 1.0483289376	 0.109625
H	-4.5408299583	-0.2671640287	-0.1447410727	 0.058835
H	-2.469320026	 1.0122848398	-1.2560452535	 0.103975
H	-2.4049805789	-0.5790426529	-2.0986544563	 0.117773
H	-3.7542266107	-2.6975177434	 0.6972591646	 0.086538
H	-2.3357394998	-3.6548086365	-0.913495209	 0.225332
H	-1.0781455751	-2.6044716644	 0.7780227579	 0.081639
98.093	171.7167	230.4265	281.5893	353.2885	405.5488	440.3678	528.4868	590.9963	648.395	676.5366	785.7191	801.8788	844.4694	859.2915	875.784	908.1097	922.1457	940.7494	972.2272	985.9853	1037.3432	1067.9216	1072.3346	1079.0704	1094.1336	1131.4676	1150.4335	1158.5672	1188.8113	1221.9754	1230.3213	1233.8697	1253.6498	1279.6447	1299.0032	1303.3706	1347.8207	1400.0429	1464.128	1477.6066	1511.1545	1516.5297	2949.3445	2981.8192	3045.7154	3097.0131	3115.5815	3127.8403	3161.681	3165.6456	3177.4403	3483.0847	3833.7938
OCC12CC(C1)C1NC21	OC[C@@]12C[C@@H](C1)[C@H]1N[C@@H]21	
InChI=1S/C7H11NO/c9-3-7-1-4(2-7)5-6(7)8-5/h4-6,8-9H,1-3H2	InChI=1S/C7H11NO/c9-3-7-1-4(2-7)5-6(7)8-5/h4-6,8-9H,1-3H2/t4-,5-,6-,7+/m1/s1
