16
gdb 14456	3.49432	2.33494	1.97775	1.4223	63.54	-0.2326	0.0778	0.3104	746.1008	0.130805	-383.678074	-383.671675	-383.670731	-383.708299	25.457	
C	 0.0523376825	 1.4867080139	-0.1142203825	-0.53034
C	-0.0075971001	-0.0013332735	 0.0113566612	 0.402841
O	 0.554359302	-0.8369590173	-1.0630445421	-0.347098
C	 0.0660509588	-1.8073028596	-0.0829351616	 0.023338
C	 0.5923533131	-0.9522820134	 1.1075643503	-0.125176
C	-0.4339757227	-1.0523595646	 2.2226055539	-0.112539
O	-1.6717700631	-1.0563566742	 1.4712364754	-0.277435
C	-1.2254056091	-0.973571859	 0.1421634839	 0.063399
H	 1.0890573964	 1.8363315127	-0.1414695046	 0.133737
H	-0.4474453007	 1.8129156839	-1.0314624512	 0.137533
H	-0.4512775441	 1.9557280186	 0.7370079568	 0.133774
H	 0.2028310977	-2.8672641386	-0.2926144283	 0.092806
H	 1.6574491511	-0.9217101897	 1.3304499513	 0.085375
H	-0.3562830576	-1.9746613915	 2.8105390197	 0.110607
H	-0.4206116782	-0.1970667905	 2.9088401272	 0.109622
H	-2.043373876	-0.970293847	-0.5751710794	 0.099556
176.5235	215.8103	237.7652	348.2505	463.9131	488.1558	638.9334	680.4367	726.4843	772.4758	778.4349	878.6718	907.856	937.7225	940.5087	972.6328	987.0727	1024.0777	1062.2585	1097.154	1114.3111	1145.0528	1168.9406	1211.5063	1213.8751	1239.6239	1264.5396	1283.6277	1350.8337	1396.8384	1423.2519	1475.5461	1490.0098	1521.963	3023.9554	3038.0143	3062.2502	3111.1963	3113.5825	3128.2703	3145.3913	3158.8477
CC12OC3C1COC23	C[C@@]12O[C@H]3[C@@H]1CO[C@@H]23	
InChI=1S/C6H8O2/c1-6-3-2-7-5(6)4(3)8-6/h3-5H,2H2,1H3	InChI=1S/C6H8O2/c1-6-3-2-7-5(6)4(3)8-6/h3-5H,2H2,1H3/t3-,4-,5+,6+/m0/s1
