21
gdb 76875	2.28969	1.87333	1.52526	1.6154	80.39	-0.2432	0.0105	0.2537	1003.5158	0.184339	-387.093	-387.085098	-387.084154	-387.124814	32.301	
C	-0.1656120144	 1.5880881426	-0.092284856	-0.414516
C	 0.0483201622	 0.077783545	-0.001041569	 0.012079
C	 0.9187091797	-0.5475034457	-1.1488485458	 0.008244
O	 1.2451508676	-1.8218019953	-0.5801841058	-0.249644
C	 1.9450998402	-1.3049035983	 0.5585231744	 0.008273
C	 2.9156309054	-0.3218323056	-0.0865920569	-0.081597
C	 2.2733834747	 0.151991585	-1.1552036369	-0.081553
C	 0.8067814479	-0.4820809407	 1.2607525516	 0.012094
C	 1.2794824883	 0.5213505579	 2.3118464333	-0.414518
H	 0.7770273339	 2.1415217273	-0.067357016	 0.118998
H	-0.6793621613	 1.8469210644	-1.0252525196	 0.109546
H	-0.7876941587	 1.9515037287	 0.7317605363	 0.115834
H	-0.9296498665	-0.4107375742	-0.0532067199	 0.078103
H	 0.4112731609	-0.6688350138	-2.106024128	 0.074004
H	 2.3701565843	-2.1142725455	 1.1523652736	 0.074007
H	 3.875486406	-0.0252493432	 0.3133839186	 0.104083
H	 2.5809398491	 0.9298240376	-1.8405140215	 0.104078
H	 0.1554106222	-1.2116973041	 1.7518528475	 0.078104
H	 1.9543312182	 1.2724793639	 1.8925038068	 0.119006
H	 0.4344540729	 1.0484460646	 2.7659439127	 0.115829
H	 1.8133809574	 0.0076547894	 3.1195858905	 0.109545
128.484	218.3868	232.7926	256.5654	260.4306	321.8144	475.2647	479.1741	516.0065	573.9325	682.4002	721.5124	739.8164	786.1917	815.1454	868.0625	904.3761	906.5422	921.916	946.4067	982.1101	1009.2614	1026.0784	1067.2057	1071.9109	1083.5494	1113.3512	1163.2076	1164.5643	1193.1436	1247.1955	1264.7742	1293.6578	1319.4025	1341.3343	1349.9445	1368.0051	1370.4574	1406.9235	1416.7844	1489.931	1495.5645	1506.2441	1511.9134	1639.3526	3030.0015	3033.9272	3039.6653	3058.6716	3089.472	3094.2432	3108.6755	3115.9378	3116.5562	3121.0552	3215.2384	3240.9912
CC1C2OC(C=C2)C1C	C[C@H]1[C@@H]2O[C@@H](C=C2)[C@H]1C	
InChI=1S/C8H12O/c1-5-6(2)8-4-3-7(5)9-8/h3-8H,1-2H3	InChI=1S/C8H12O/c1-5-6(2)8-4-3-7(5)9-8/h3-8H,1-2H3/t5-,6+,7-,8+
