18
gdb 68583	4.19531	0.98076	0.91939	4.3588	76.42	-0.2711	0.0322	0.3033	1279.6595	0.147663	-401.919257	-401.910944	-401.91	-401.952379	31.917	
O	-0.0815191032	 1.3311081844	 0.0182347037	-0.464664
C	 0.0227097849	-0.0427825297	-0.0006217972	 0.40142
C	 0.6665294158	-0.9842676852	 1.0692561801	-0.344934
C	 0.0452003852	-1.9048424822	-0.0203112203	 0.340494
C	 0.0647353093	-3.4199605221	-0.0198600174	-0.468646
C	-0.6053247311	-3.9861494138	-1.1912069342	 0.265369
N	-1.1379745826	-4.413788221	-2.1230927206	-0.311609
C	-1.2083063159	-0.9764951517	-0.0040088301	-0.287668
C	 0.6528132119	-0.9589355763	-1.0980489121	-0.322027
H	 0.8042390195	 1.7090205705	-0.0070953409	 0.285414
H	 1.7586421431	-0.9828000643	 1.1401312531	 0.088646
H	 0.1932769399	-1.0019723165	 2.0546965819	 0.098239
H	 1.0984216897	-3.7854288195	 0.0006329445	 0.153838
H	-0.4250868512	-3.8051378886	 0.8823811763	 0.155099
H	-1.8136133518	-0.9897182622	 0.9062637889	 0.097379
H	-1.8240309298	-0.9732407179	-0.9061572711	 0.112589
H	 0.1678611266	-0.9591456425	-2.076811479	 0.113151
H	 1.7440994596	-0.9554953916	-1.1808356755	 0.08791
68.7892	97.4693	230.6095	245.0528	277.4911	393.2754	401.881	409.9043	460.8462	549.9893	555.6135	641.9138	689.7847	758.8034	795.6258	914.7794	934.9442	942.3699	958.3697	985.7845	1051.2273	1060.5713	1105.0026	1116.0571	1130.4722	1138.5491	1148.2589	1156.26	1174.0573	1266.0643	1295.5264	1312.7716	1344.6742	1386.7288	1459.784	1493.501	1496.5799	1565.053	2363.5535	3036.189	3043.0381	3049.2253	3060.4573	3073.4366	3113.9809	3123.2185	3129.6801	3809.1358
OC12CC(CC#N)(C1)C2	O[C@@]12C[C@@](CC#N)(C1)C2	
InChI=1S/C7H9NO/c8-2-1-6-3-7(9,4-6)5-6/h9H,1,3-5H2	InChI=1S/C7H9NO/c8-2-1-6-3-7(9,4-6)5-6/h9H,1,3-5H2/t6-,7-
