17
gdb 75953	2.3979	1.68575	1.16116	2.5435	71.14	-0.2768	-0.0055	0.2713	1066.5247	0.137013	-455.164869	-455.15651	-455.155566	-455.198786	30.589	
C	-0.2216083651	 1.3848365892	 0.0074864187	-0.394554
C	 0.041269121	-0.144367609	 0.002469135	-0.116989
C	 0.7944938782	-0.5035876679	-1.2623047486	 0.356525
N	 0.2040591452	-0.6248612606	-2.3695262015	-0.497146
O	 2.1657052991	-0.5543599316	-1.1493865347	-0.234866
C	 2.6499104593	-1.1527633258	 0.0324384388	-0.006323
O	 2.1329245765	-0.5699438526	 1.2082547489	-0.234904
C	 0.7593169444	-0.5180218596	 1.2835426647	 0.356608
N	 0.1382207268	-0.6505719262	 2.3725839423	-0.49719
H	 0.7207678088	 1.9403758786	 0.0234296187	 0.129996
H	-0.7766845839	 1.6605580275	-0.8912863185	 0.144768
H	-0.8009675323	 1.6504730627	 0.8938750626	 0.144823
H	-0.9202500143	-0.6582864052	-0.0137107959	 0.138903
H	 0.87693157	-0.8131472098	-3.1151740203	 0.227034
H	 2.4190816348	-2.2278724865	 0.0221593514	 0.115376
H	 3.7279627385	-0.9938784045	 0.0485290087	 0.140941
H	 0.7898899828	-0.8480645788	 3.1344988996	 0.226999
30.7021	98.6734	218.0395	229.0454	250.2731	269.2128	376.2854	422.2665	511.0685	543.9358	682.4783	702.1306	746.0933	790.4751	854.6071	919.6713	928.8539	950.0504	1012.8017	1039.0305	1039.3202	1078.3751	1130.4976	1140.8649	1192.0936	1280.9366	1300.531	1304.1327	1308.9464	1353.1522	1399.2183	1460.6863	1493.6993	1498.6286	1526.2757	1757.4934	1775.4685	3001.0619	3050.2129	3113.4669	3133.11	3139.0558	3146.4993	3471.0086	3471.5342
CC1C(=N)OCOC1=N	C[C@H]1[C]([NH])OCO[C]1[NH]	
InChI=1S/C5H8N2O2/c1-3-4(6)8-2-9-5(3)7/h3,6-7H,2H2,1H3	InChI=1S/C5H8N2O2/c1-3-4(6)8-2-9-5(3)7/h3,6-7H,2H2,1H3
