23
gdb 96317	2.03776	1.48477	0.92246	1.1149	88.81	-0.2302	0.0172	0.2474	1351.0292	0.206185	-388.301164	-388.291808	-388.290863	-388.335067	36.112	
C	 0.1202098749	 1.6240716872	 0.0255499525	-0.406457
C	-0.0079293466	 0.0940053323	-0.0097604895	-0.026623
C	 0.5857082	-0.4716331705	-1.315557101	-0.184456
C	 0.2335544914	-1.9321429043	-1.6044049425	-0.081853
O	 0.811484402	-2.8698155505	-0.718375641	-0.233293
C	 0.2362855084	-2.9051919559	 0.5756521852	-0.176753
C	 0.711578997	-1.8148839642	 1.5248701754	 0.290116
C	 1.3108214706	-2.2968357033	 2.8199322587	-0.479957
C	 0.598361611	-0.5156984209	 1.2393532196	-0.126331
H	 1.173331272	 1.9278354736	 0.0053688373	 0.117403
H	-0.3777362806	 2.08327671	-0.8340439382	 0.108513
H	-0.3274038091	 2.0369059539	 0.9354874414	 0.112608
H	-1.084128237	-0.1461957883	-0.0180724785	 0.079864
H	 0.2130406085	 0.1245751542	-2.1596834177	 0.087274
H	 1.6766798792	-0.3624178984	-1.301380739	 0.102886
H	-0.864606101	-2.0524133157	-1.6132495657	 0.079178
H	 0.6002135884	-2.2068825062	-2.5992701579	 0.101829
H	-0.8652608553	-2.8769561573	 0.4955515708	 0.092481
H	 0.5023792438	-3.8851584206	 0.98497871	 0.102856
H	 0.6039598184	-2.9284687672	 3.3746425695	 0.121447
H	 2.1994872091	-2.9149207317	 2.6368990322	 0.128095
H	 1.5989724995	-1.4652131785	 3.4682793501	 0.118496
H	 0.9693133854	 0.1983667122	 1.973889728	 0.072677
63.287	155.7487	187.826	220.2675	245.7772	269.9274	307.719	326.2568	379.0498	413.5486	468.5174	492.7974	539.7161	614.7204	797.1463	836.2666	860.2745	871.5173	943.6754	954.6443	977.4668	994.4671	1031.3555	1058.5328	1078.0252	1092.1094	1126.027	1135.0066	1188.0648	1213.3536	1225.5339	1283.0662	1314.4764	1337.4211	1341.5506	1365.8184	1389.62	1403.2328	1412.3242	1413.0037	1424.7257	1467.3027	1478.7183	1484.7531	1491.8655	1495.8371	1497.9333	1502.1571	1734.7079	2942.5749	2948.5815	2961.9953	3010.5833	3014.0649	3028.1993	3055.9494	3063.5519	3067.6287	3069.645	3094.992	3104.1078	3109.8396	3125.7111
CC1CCOCC(C)=C1	C[C@H]1CCOCC(=C1)C	
InChI=1S/C8H14O/c1-7-3-4-9-6-8(2)5-7/h5,7H,3-4,6H2,1-2H3	InChI=1S/C8H14O/c1-7-3-4-9-6-8(2)5-7/h5,7H,3-4,6H2,1-2H3/t7-/m0/s1
