17
gdb 52827	2.56908	1.01951	0.96979	1.3243	79.31	-0.2419	-0.0333	0.2086	1355.4729	0.131875	-421.800803	-421.790819	-421.789875	-421.837357	34.234	
C	-0.0043396635	 1.5090491404	-0.1275281412	-0.50111
C	 0.0190152538	 0.0558202223	-0.0697792739	 0.060047
C	 0.0426102874	-1.1474470434	-0.016339581	 0.101087
C	 0.0373885658	-2.5984127375	 0.0363680412	 0.079248
C	 1.0651134174	-3.2427482877	-0.8895826934	-0.426807
O	 0.1406148304	-3.1119541324	 1.4066031661	-0.307209
C	-1.1869463229	-3.6661860827	 1.4253303345	-0.192644
C	-1.3893750989	-3.2295093827	-0.0255121021	 0.312121
O	-2.2307822383	-3.3407590542	-0.8585996203	-0.269454
H	 0.8424305316	 1.8995110293	-0.702122201	 0.15327
H	-0.9246418943	 1.8704450955	-0.599121575	 0.155902
H	 0.046177912	 1.9413099162	 0.8776978016	 0.156326
H	 2.070385114	-2.9232654011	-0.6028896659	 0.141252
H	 1.0076813031	-4.3325015548	-0.8225693892	 0.124088
H	 0.8788514002	-2.9366042256	-1.922315243	 0.142992
H	-1.2031281445	-4.7490268559	 1.6008797008	 0.133747
H	-1.8503558632	-3.1716567157	 2.1469101919	 0.137143
23.8536	74.1424	78.9178	130.2202	187.6315	204.9721	266.007	305.3795	342.9925	410.3011	494.7935	510.0968	567.309	616.6684	712.2143	848.0299	858.1683	958.5099	1011.2628	1037.2461	1050.2298	1052.5993	1060.2497	1108.541	1138.1704	1180.2838	1263.4704	1296.1986	1395.9719	1412.7462	1474.6442	1476.5547	1477.1897	1480.1423	1486.4683	1929.1231	2362.6277	3016.3827	3030.1665	3046.6681	3062.5842	3092.963	3093.8905	3127.3245	3132.3075
CC#CC1(C)OCC1=O	CC#C[C@@]1(C)OCC1=O	
InChI=1S/C7H8O2/c1-3-4-7(2)6(8)5-9-7/h5H2,1-2H3	InChI=1S/C7H8O2/c1-3-4-7(2)6(8)5-9-7/h5H2,1-2H3/t7-/m1/s1
