17
gdb 90694	3.76257	1.17572	1.07269	16.2157	72.61	-0.1661	-0.039	0.1271	1136.7569	0.136917	-455.038863	-455.030717	-455.029773	-455.071881	30.662	
N	 0.2677287956	 1.1887525388	 0.1675478461	-0.439894
H	 0.4134434685	 0.1751264626	 0.2006131911	 0.327755
H	 1.182253112	 1.6433502311	 0.2154870492	 0.32701
H	-0.1669753955	 1.4275222064	-0.7264934944	 0.327081
C	-0.6307716519	 1.6202348308	 1.350887917	-0.033024
C	-1.8682976006	 0.7109115184	 1.4144363823	-0.166847
N	-1.3215080726	-0.0193898457	 2.6196582236	-0.157364
C	-0.1282783469	 0.9201141408	 2.607641178	-0.071465
C	-1.1250569849	 0.9964670626	 3.7015616904	-0.138212
C	-2.0139663689	 2.2617230343	 3.9449516972	 0.362451
O	-2.3821631081	 2.4009880319	 5.1099049916	-0.442235
O	-2.2119891128	 2.9624398963	 2.915455604	-0.500425
H	-0.7419632294	 2.7006940419	 1.3167974453	 0.165899
H	-2.7992085502	 1.2486323461	 1.5744729556	 0.17833
H	-1.9509165949	 0.0076755159	 0.5743738306	 0.074217
H	 0.8983481673	 0.5816947014	 2.7464096561	 0.081118
H	-0.8211537669	 0.4853754563	 4.6108942462	 0.105606
57.8715	144.1364	218.1244	242.8477	247.2021	309.8957	351.5864	439.187	486.1915	663.5526	730.3243	746.8808	767.0679	808.8184	824.69	859.4436	893.6251	911.5678	943.3607	986.6499	1029.4363	1065.4042	1097.2606	1106.519	1194.0165	1212.8681	1228.9034	1274.0277	1284.3955	1318.5661	1339.1097	1350.8963	1436.2447	1460.1687	1641.2376	1650.9567	1776.9758	3004.4733	3103.8018	3160.0865	3167.165	3171.8242	3391.4166	3490.1931	3510.8265
[NH3+]C1CN2C1C2C([O-])=O	[NH3][C@H]1CN2[C@@H]1[C@H]2C(=O)[O]	
InChI=1S/C5H8N2O2/c6-2-1-7-3(2)4(7)5(8)9/h2-4H,1,6H2,(H,8,9)	InChI=1S/C5H8N2O2/c6-2-1-7-3(2)4(7)5(8)9/h2-4H,1H2,6H3/t2-,3-,4-,7?/m0/s1
