17
gdb 67702	2.36662	2.05402	1.74051	2.193	70.73	-0.2257	0.0007	0.2264	877.2992	0.138045	-421.808053	-421.801304	-421.80036	-421.8387	28.113	
O	-0.0895493448	 1.3680723984	-0.0860693753	-0.469838
C	 0.0175532837	-0.0100387543	-0.0112504319	 0.387649
C	-1.1667671464	-0.9059914632	-0.0579233805	-0.123346
C	-0.9050252899	-1.9522553332	-1.1367613925	-0.09913
O	 0.3042590488	-1.546842752	-1.7911944286	-0.258931
C	 1.070985885	-0.8177664439	-0.82265072	-0.046312
C	 1.6472644421	-1.7939535659	 0.1940768341	-0.102707
C	 0.8639526543	-1.8587246387	 1.2749926901	-0.078237
C	-0.2466467443	-0.8625909179	 1.1989951076	-0.1809
H	 0.6056687669	 1.7553848763	 0.4571958489	 0.286101
H	-2.1607475175	-0.4917840962	 0.063229673	 0.102753
H	-0.7926471584	-2.9602330488	-0.7139508587	 0.097587
H	-1.7003374951	-1.977921021	-1.887376849	 0.110833
H	 1.7936927274	-0.2082420649	-1.3690899409	 0.081776
H	 2.4876812063	-2.4395915828	-0.0285434225	 0.102861
H	 0.9772287417	-2.5541430013	 2.0991978007	 0.1003
H	-0.6914914197	-0.4441441904	 2.0949370555	 0.08954
212.2802	253.9654	299.1865	310.6986	348.7576	462.59	558.2646	596.2632	643.3871	715.529	718.8432	781.8589	791.4202	874.5539	913.8012	938.6069	947.8764	952.7371	974.5061	990.3665	1032.5826	1048.3968	1058.1223	1086.2149	1129.2273	1191.3927	1195.3881	1232.7791	1273.1831	1298.5843	1315.136	1325.7133	1364.9664	1372.976	1469.9864	1509.2752	1653.0397	3006.9285	3080.375	3097.124	3175.272	3187.4472	3191.043	3218.2829	3795.9119
OC12C3COC1C=CC23	O[C@@]12[C@H]3CO[C@@H]1C=C[C@@H]23	
InChI=1S/C7H8O2/c8-7-4-1-2-6(7)9-3-5(4)7/h1-2,4-6,8H,3H2	InChI=1S/C7H8O2/c8-7-4-1-2-6(7)9-3-5(4)7/h1-2,4-6,8H,3H2/t4-,5+,6-,7+/m1/s1
