16
gdb 71215	2.45989	2.07169	1.65084	1.4171	67.71	-0.229	-0.0253	0.2037	867.4926	0.126137	-437.846388	-437.839656	-437.838712	-437.8772	27.481	
O	-0.0029119472	 1.3973275527	 0.0302286172	-0.487652
C	-0.034167187	 0.022383036	 0.0897361863	 0.304899
C	 0.4482610379	-0.8246382255	 1.3092432415	-0.316537
C	-0.403614679	-1.9318129535	 0.6537221863	-0.041085
C	-0.0148791462	-2.074081683	-0.8768958809	-0.13115
N	-1.4193460059	-1.6584107169	-1.2257320691	-0.318359
C	-1.3553780534	-0.8781117437	 0.037044127	-0.062716
C	 0.6900085482	-0.7292975449	-1.0253130953	 0.378682
O	 1.486681094	-0.284222699	-1.8086923507	-0.357425
H	 0.6348318362	 1.631503277	-0.6608809142	 0.291991
H	 1.5245440241	-0.9696473919	 1.4423171782	 0.11005
H	-0.0039664045	-0.4859222159	 2.2449378633	 0.119722
H	-0.749871633	-2.8232786703	 1.1681843656	 0.097507
H	 0.3928764051	-2.9693519776	-1.3415937594	 0.094394
H	-1.4853759211	-1.1040294923	-2.0822575679	 0.223492
H	-2.2722169383	-0.4984301812	 0.4858113521	 0.094188
148.4967	240.2702	287.3242	371.2344	386.9882	458.336	512.2363	601.8927	674.5402	719.8574	765.7744	782.5766	807.0852	845.5272	900.1017	923.9116	956.8969	980.3396	986.3181	1014.6793	1063.0652	1097.198	1110.3637	1138.6748	1188.1408	1193.7875	1201.305	1237.2826	1274.9684	1288.3015	1329.7869	1370.6332	1394.9821	1499.0271	1871.4131	3053.297	3115.1625	3129.843	3143.952	3166.0292	3422.5049	3713.7269
OC12CC3C(NC13)C2=O	O[C@@]12C[C@@H]3[C@@H](N[C@H]13)C2=O	
InChI=1S/C6H7NO2/c8-5-3-2-1-6(5,9)4(2)7-3/h2-4,7,9H,1H2	InChI=1S/C6H7NO2/c8-5-3-2-1-6(5,9)4(2)7-3/h2-4,7,9H,1H2/t2-,3-,4+,6+/m1/s1
