20
gdb 107245	2.41629	1.72914	1.25326	2.5642	78.24	-0.216	0.0653	0.2813	1075.8867	0.169699	-403.058916	-403.05022	-403.049276	-403.091761	34.335	
C	 0.083443152	 1.5968972247	-0.0537523328	-0.38569
C	 0.0000795414	 0.0642511912	-0.0676019666	-0.276057
C	 0.6189223094	-0.5737423352	-1.2858883362	 0.247375
C	 1.5761662834	-1.7015696714	-1.2481883214	-0.304456
N	 2.0697797037	-0.3601787701	-1.6425445943	-0.174551
C	 1.6315476151	-0.0263431506	-3.0567642003	-0.054555
C	 0.8041786389	-1.0552074434	-3.7983919756	-0.371662
C	 0.1778731227	-0.1960735638	-2.7329836192	 0.329211
O	-0.8697635964	 0.6722057582	-2.9833969299	-0.44455
H	 1.126298033	 1.9176939955	-0.1318403906	 0.130911
H	-0.471013335	 2.0283895757	-0.8899041286	 0.137761
H	-0.3294331637	 1.9961605433	 0.8777817719	 0.10399
H	 0.5004394639	-0.3385135719	 0.8205541771	 0.102391
H	-1.048609809	-0.2564104784	-0.0011805468	 0.093896
H	 1.9495981761	-1.9913871681	-0.2691869131	 0.118569
H	 1.5531383951	-2.5174758525	-1.9607177502	 0.114966
H	 2.1723697908	 0.7618516585	-3.5638780492	 0.110914
H	 0.5481485874	-0.7081909146	-4.7957805128	 0.120681
H	 0.940572498	-2.129159382	-3.732956446	 0.112044
H	-1.6637394168	 0.1501887849	-3.1447943155	 0.288813
95.2683	134.331	202.7363	232.8985	274.5333	285.6147	393.8631	417.7749	476.4874	483.2556	514.3043	596.6529	628.9321	713.1967	778.1215	792.7088	843.3792	890.0398	923.1634	956.6589	983.4059	997.764	1015.1125	1032.0995	1062.1049	1095.0144	1095.8002	1111.0362	1135.0195	1174.0191	1229.7713	1263.7818	1292.8334	1324.9567	1331.2068	1385.519	1402.7189	1409.4721	1472.2911	1485.8065	1498.0985	1517.5039	1526.0244	3016.6682	3045.0173	3059.9982	3112.4348	3116.8422	3129.53	3135.4578	3196.7542	3202.199	3211.1664	3788.0545
CCC12CN1C1CC21O	CC[C@]12CN1[C@H]1C[C@@]21O	
InChI=1S/C7H11NO/c1-2-6-4-8(6)5-3-7(5,6)9/h5,9H,2-4H2,1H3	InChI=1S/C7H11NO/c1-2-6-4-8(6)5-3-7(5,6)9/h5,9H,2-4H2,1H3/t5-,6+,7-,8?/m0/s1
