16
gdb 10930	5.65789	1.37798	1.27232	4.1378	69.47	-0.2707	0.0233	0.294	968.7758	0.131276	-342.764896	-342.757477	-342.756532	-342.796516	27.752	
C	 0.0350903952	 1.5560214959	 0.0275584348	-0.485207
C	-0.0380775217	 0.060532711	 0.0748960684	 0.348678
C	-1.3300675305	-0.7753267496	-0.0017541988	-0.308348
C	-0.6812248523	-1.816791658	 0.9840341091	-0.165353
C	-0.5350261538	-3.1874887836	 0.5136767538	 0.273487
N	-0.403491154	-4.2619592543	 0.106200501	-0.329797
C	 0.6002187969	-0.9486717088	 0.9946732227	-0.094394
N	 1.1107359803	-0.7308112085	-0.3463229769	-0.346762
H	 1.0477856341	 1.8935023316	 0.2609338857	 0.13998
H	-0.2201530935	 1.9258910862	-0.972426398	 0.128775
H	-0.6616737022	 2.0092896581	 0.7403716127	 0.119803
H	-2.1993509476	-0.2916182185	 0.4486181377	 0.121605
H	-1.6018713637	-1.1471807282	-0.9935262321	 0.12034
H	-1.1897851908	-1.8149203906	 1.9509777926	 0.129483
H	 1.2702567002	-0.8387110948	 1.8395273189	 0.108439
H	 0.8983342034	-1.4875198679	-0.9950281217	 0.23927
95.6334	148.3303	201.4545	259.9254	320.6282	373.8946	450.8354	516.816	587.2154	662.3253	741.9367	795.2432	839.1757	920.9587	932.2955	971.2669	990.4817	1025.8706	1060.5957	1098.0812	1126.3093	1128.5782	1195.3985	1202.5194	1241.741	1266.7663	1296.2359	1326.2795	1405.2527	1454.7839	1484.7276	1487.7914	1496.3456	2349.7379	3032.5131	3062.9472	3087.1496	3092.57	3122.4865	3125.8273	3182.5295	3461.8739
CC12CC(C#N)C1N2	C[C@]12C[C@@H](C#N)[C@H]1N2	
InChI=1S/C6H8N2/c1-6-2-4(3-7)5(6)8-6/h4-5,8H,2H2,1H3	InChI=1S/C6H8N2/c1-6-2-4(3-7)5(6)8-6/h4-5,8H,2H2,1H3/t4-,5+,6-/m0/s1
