18
gdb 78436	3.43988	1.37558	1.32802	1.3899	75.6	-0.2056	0.017	0.2227	1025.6088	0.149171	-401.892931	-401.885768	-401.884824	-401.924219	29.144	
O	-0.0684812206	 1.3675678278	 0.067373192	-0.429674
C	-0.0351410497	-0.0321662779	 0.0430286975	 0.067836
C	-1.4080110609	-0.6360305652	-0.0073779426	-0.107532
C	-0.5111106753	-0.6757754865	-1.2409469942	-0.081358
N	-0.4772638514	-2.140718683	-1.2427450147	-0.102623
C	 0.8009302319	-2.825190299	-0.9636252498	-0.221085
C	 0.680312389	-3.2653222758	 0.4803000107	-0.073171
C	-0.4864985977	-2.9016095512	 1.0133393579	-0.075726
C	-1.3239263629	-2.1763547013	-0.0003329837	-0.040333
H	 0.6859300606	 1.6895517383	-0.4370531101	 0.288071
H	 0.7466332689	-0.4914123173	 0.6476813388	 0.08998
H	-2.2914358217	-0.0381586008	 0.1717155192	 0.100475
H	-0.5814697004	-0.1093820186	-2.1642910999	 0.092476
H	 0.9481996153	-3.6819951628	-1.6368273796	 0.106008
H	 1.6550714474	-2.1500562447	-1.1221358211	 0.100672
H	 1.4617522685	-3.8211177436	 0.9871690027	 0.09877
H	-0.815927863	-3.1062700909	 2.0249524149	 0.101007
H	-2.3012340479	-2.6477674874	-0.1649571182	 0.086208
163.3719	175.4538	282.3639	290.3258	319.6477	407.4211	490.3435	552.621	679.8283	700.6336	745.4486	793.8271	825.1729	851.2281	906.6703	929.4103	932.4365	959.4567	969.2561	1013.7476	1048.6849	1059.9911	1080.7974	1094.9557	1122.305	1140.1833	1145.4654	1188.4588	1220.8502	1234.6173	1247.6185	1285.901	1303.4321	1316.2055	1341.7015	1363.0126	1440.1361	1499.8616	1670.2646	2989.2294	3009.5378	3015.9797	3100.4763	3156.3929	3186.6906	3207.8301	3214.7615	3804.5614
OC1C2C1N1CC=CC21	O[C@H]1[C@H]2[C@@H]1N1CC=C[C@@H]21	
InChI=1S/C7H9NO/c9-7-5-4-2-1-3-8(4)6(5)7/h1-2,4-7,9H,3H2	InChI=1S/C7H9NO/c9-7-5-4-2-1-3-8(4)6(5)7/h1-2,4-7,9H,3H2/t4-,5+,6-,7-/m0/s1
