21
gdb 60636	2.81811	1.11189	0.85082	2.8925	79.5	-0.2598	-0.025	0.2348	1384.6088	0.180789	-424.237492	-424.227714	-424.226769	-424.272951	35.701	
C	-0.0547403116	 1.4228506659	 0.0690922655	-0.475229
C	 0.0542845754	-0.0830879133	 0.0796212454	 0.36283
O	 0.1961024826	-0.7133605137	 1.1076466907	-0.321802
C	-0.0197995338	-0.8467206289	-1.2474172999	 0.009772
O	 0.1994937069	-2.2127350036	-1.0109806023	-0.436399
C	-1.3633965147	-0.6516465789	-1.9633322147	 0.036876
C	-1.6587582452	 0.6497203025	-2.765822998	-0.240568
C	-2.3113882492	-0.2269028951	-3.868363194	-0.221894
C	-1.5690886646	-1.4552179099	-3.2777097009	-0.214506
H	 0.5840161829	 1.8582691408	-0.7051243624	 0.141295
H	-1.0838970782	 1.7171009907	-0.1635052528	 0.156154
H	 0.2159818378	 1.8178656946	 1.0490550993	 0.146339
H	 0.7768170427	-0.448463458	-1.9017951154	 0.076848
H	 0.2793385298	-2.2904248932	-0.0455495063	 0.290896
H	-2.1764972119	-0.8691882953	-1.2611133682	 0.075429
H	-2.2760086511	 1.4184359511	-2.2941962145	 0.096411
H	-0.7346253147	 1.118278226	-3.1217369895	 0.099495
H	-3.3943807952	-0.3020058802	-3.7359945349	 0.1047
H	-2.1080258293	 0.0381646023	-4.9082911398	 0.099275
H	-0.6146410832	-1.6363293019	-3.7811927796	 0.106988
H	-2.1070605455	-2.4016976318	-3.2077246878	 0.10709
52.3952	73.6228	110.8963	137.6773	150.8083	253.2084	300.0321	349.727	388.3894	443.0206	500.2151	543.9982	628.3779	668.5722	778.8264	785.2656	845.3815	898.9406	935.7541	952.5848	968.5348	979.228	1012.4493	1046.7979	1093.1723	1133.3237	1153.4146	1199.1029	1207.1646	1231.4646	1256.388	1259.9186	1272.5632	1284.1937	1289.8179	1319.3447	1376.0045	1386.7489	1437.8987	1461.5253	1475.0727	1477.832	1486.2714	1509.166	1790.9248	2941.3532	3038.9947	3043.1406	3046.8999	3059.5978	3063.0665	3095.4778	3109.8974	3111.2224	3126.6139	3153.1228	3661.871
CC(=O)C(O)C1CCC1	CC(=O)[C@@H](O)C1CCC1	
InChI=1S/C7H12O2/c1-5(8)7(9)6-3-2-4-6/h6-7,9H,2-4H2,1H3	InChI=1S/C7H12O2/c1-5(8)7(9)6-3-2-4-6/h6-7,9H,2-4H2,1H3/t7-/m1/s1
