19
gdb 54977	3.15986	1.08941	1.05865	1.2866	77.86	-0.2313	-0.0104	0.2209	1250.0216	0.157253	-423.017357	-423.008265	-423.00732	-423.051894	33.121	
C	-0.0234742058	 1.4773207232	-0.0174578733	-0.483531
C	 0.0351646121	-0.028685323	-0.1928715133	 0.391724
O	 1.0828993311	-0.6123113117	-0.3989954567	-0.339803
C	-1.2498867413	-0.7622110319	-0.0695346928	-0.221308
C	-1.3801549096	-2.1268116382	-0.7588312194	-0.357438
C	-1.2397991053	-2.0839957652	 0.7042325708	 0.478719
C	-0.1713466823	-2.6316470012	 1.6402117088	-0.341645
C	-1.3687447667	-2.8912217173	 2.580703012	-0.0806
O	-2.3051352356	-2.3973210022	 1.5870035834	-0.304519
H	 0.9801376743	 1.8994090714	-0.079396762	 0.13956
H	-0.659409489	 1.9220579339	-0.7917169725	 0.14087
H	-0.476267945	 1.7315297951	 0.9477808472	 0.138764
H	-2.1571918651	-0.1781148366	 0.0406880493	 0.097308
H	-2.3530536712	-2.3736185996	-1.1689252561	 0.127645
H	-0.514909416	-2.4350406244	-1.3369886379	 0.140771
H	 0.3336745226	-3.527016799	 1.2748658515	 0.123097
H	 0.5742636026	-1.9161511491	 1.984925634	 0.128758
H	-1.569371754	-3.9377894987	 2.8308332762	 0.112519
H	-1.3969206958	-2.2864087353	 3.493837331	 0.109108
58.937	90.5366	127.062	140.237	158.1836	304.8839	325.8784	376.9182	445.0141	540.8814	594.9028	630.4439	779.0278	781.6146	817.1323	876.5562	894.9745	940.0163	949.5429	966.2035	1009.5125	1025.9618	1049.8089	1068.498	1101.9199	1106.1554	1161.6555	1182.7797	1206.245	1215.5015	1247.3009	1332.7784	1365.7759	1378.0679	1405.0616	1461.7539	1465.2095	1475.3001	1490.74	1530.7439	1773.8264	3033.5235	3033.8434	3080.9666	3093.2015	3093.3957	3131.306	3149.2286	3152.0352	3173.8508	3231.1705
CC(=O)C1CC11CCO1	CC(=O)[C@H]1C[C@]21CCO2	
InChI=1S/C7H10O2/c1-5(8)6-4-7(6)2-3-9-7/h6H,2-4H2,1H3	InChI=1S/C7H10O2/c1-5(8)6-4-7(6)2-3-9-7/h6H,2-4H2,1H3/t6-,7+/m1/s1
