19
gdb 81165	2.49446	1.66924	1.25413	2.7363	75.52	-0.2464	-0.034	0.2125	1053.1079	0.158821	-423.012316	-423.004033	-423.003089	-423.045385	31.514	
C	-0.1261576631	 1.5671285322	-0.0352139786	-0.430979
C	 0.0301294209	 0.0559433578	 0.0220440966	-0.004859
C	 1.1348114549	-0.6174288407	-0.8663980213	-0.092809
C	 2.1574631696	-0.2425599362	 0.2513751689	-0.281418
C	 0.9340314914	-0.5807668861	 1.1408458197	 0.365613
O	 0.7472794319	-1.9876491018	 0.9280531941	-0.330353
C	 0.8896487796	-2.0898239802	-0.5126859206	-0.088278
C	 0.8045786775	-0.217836078	 2.5849417278	 0.052613
O	 1.0474222556	 0.8858538583	 3.0082921797	-0.26194
H	 0.82537528	 2.102456391	-0.0161904738	 0.128642
H	-0.6506531756	 1.8510349338	-0.954222626	 0.117752
H	-0.7185740012	 1.9262984942	 0.8115792563	 0.134634
H	-0.9519459934	-0.4263367048	-0.0291438149	 0.080058
H	 1.2825825799	-0.3630506119	-1.915826379	 0.076714
H	 3.0354159867	-0.8792609488	 0.3817262994	 0.105632
H	 2.4342512681	 0.8085376078	 0.271413154	 0.125909
H	-0.027154179	-2.50042676	-0.9504296412	 0.104756
H	 1.7306621537	-2.7486716588	-0.75712759	 0.104531
H	 0.4435391327	-1.0380078378	 3.2424044289	 0.093783
58.5969	152.7775	170.7772	203.4415	296.9901	303.5877	386.8664	442.5455	482.7761	550.8566	655.8195	722.5031	787.4047	811.3788	857.3635	907.2829	943.5915	956.9994	973.3829	997.9812	1028.8676	1065.1772	1087.8038	1111.8045	1115.3973	1148.0349	1168.2742	1187.9509	1230.4599	1250.2681	1262.9236	1292.9963	1356.9564	1379.229	1411.779	1420.063	1486.4244	1491.3639	1507.8611	1530.3034	1818.3377	2903.7636	3028.0656	3040.0477	3050.2085	3070.5192	3082.8063	3102.1468	3120.4305	3126.9386	3174.2867
CC1C2CC1(OC2)C=O	C[C@H]1[C@H]2C[C@@]1(OC2)C=O	
InChI=1S/C7H10O2/c1-5-6-2-7(5,4-8)9-3-6/h4-6H,2-3H2,1H3	InChI=1S/C7H10O2/c1-5-6-2-7(5,4-8)9-3-6/h4-6H,2-3H2,1H3/t5-,6-,7+/m0/s1
