20
gdb 90666	4.33742	1.04497	1.02853	2.3778	79.02	-0.2348	0.0705	0.3054	1256.705	0.171095	-403.076147	-403.067897	-403.066953	-403.109049	31.561	
C	-0.1759401665	 1.451614454	 0.0416213804	-0.412099
C	 0.0089202627	-0.0606145353	 0.0557832356	 0.006696
C	 1.160415025	-0.5861886785	-0.847490276	-0.181677
N	 1.9886676656	-1.0308363568	 0.3322569215	-0.186385
C	 0.8249416868	-0.6038364486	 1.2314850709	-0.12375
C	 1.1759491329	-2.0158855967	 1.0426432084	 0.304683
C	 0.382837469	-3.2072025649	 0.5067482862	-0.149533
O	 0.9322128311	-4.0517561677	 1.5405868898	-0.27831
C	 1.7677306805	-2.9888390276	 2.0544860114	-0.159909
H	 0.7793450689	 1.9659376523	 0.1935639702	 0.125088
H	-0.5907354792	 1.7852878081	-0.9154327435	 0.118825
H	-0.860614223	 1.7741075038	 0.8334713205	 0.118516
H	-0.9602544651	-0.5543023207	-0.0826018627	 0.075243
H	 0.9262347301	-1.3927196164	-1.5504161292	 0.103293
H	 1.683330163	 0.2080956924	-1.3850692024	 0.113134
H	 0.9925722002	-0.0847950154	 2.1721882631	 0.093406
H	-0.710856517	-3.1389494458	 0.5656844837	 0.106594
H	 0.6699438738	-3.5481473108	-0.4971669136	 0.106605
H	 2.8364941869	-3.1921566548	 1.9165779711	 0.114484
H	 1.5643590043	-2.7817119608	 3.1121754848	 0.105095
89.7481	119.0663	195.5975	216.4622	257.5479	285.7389	376.6418	436.6945	474.6224	578.9565	723.9563	801.4852	834.7682	863.3043	894.0249	905.4751	939.1168	962.2396	986.2027	1002.7636	1011.2784	1028.2264	1086.8531	1114.1614	1121.6899	1138.2599	1149.3998	1162.2915	1173.6504	1219.0076	1257.1739	1275.1621	1296.0595	1308.0777	1349.9396	1374.9086	1412.5447	1470.8152	1495.2348	1497.18	1502.8494	1506.62	1528.2976	3000.8443	3019.1676	3026.1622	3028.2393	3045.4151	3047.6852	3064.7753	3096.795	3100.3291	3108.1403	3140.3123
CC1CN2C1C21COC1	C[C@H]1CN2[C@@H]1C12COC1	
InChI=1S/C7H11NO/c1-5-2-8-6(5)7(8)3-9-4-7/h5-6H,2-4H2,1H3	InChI=1S/C7H11NO/c1-5-2-8-6(5)7(8)3-9-4-7/h5-6H,2-4H2,1H3/t5-,6-,8?/m0/s1
