29
gdb 100756	2.13823	0.96234	0.82793	0.0755	99.12	-0.2906	0.0774	0.368	1664.3836	0.272919	-354.774825	-354.762498	-354.761554	-354.812759	45.809	
C	-2.2841887364	 1.9029939682	 0.6782847576	-0.388829
C	-2.1101447155	 0.4121253641	 0.9921983604	-0.169079
C	-1.4033231205	-0.3924542309	-0.1178001369	 0.035147
C	 0.0467839662	 0.0779430511	-0.3275494829	-0.409473
C	-1.4750469606	-1.9340828936	 0.0969792854	 0.046264
C	-0.8057010176	-2.3661037049	 1.4152425449	-0.41284
C	-2.9087381435	-2.5239141701	-0.0285418487	 0.039785
C	-3.6156053387	-2.1118429801	-1.3303733627	-0.398458
C	-2.9024861033	-4.0596347282	 0.0730578133	-0.397401
H	-2.8564921661	 2.4042720808	 1.4654166399	 0.10919
H	-1.3240474616	 2.4206003422	 0.5934218991	 0.117224
H	-2.8227269464	 2.0478363188	-0.2655684388	 0.111151
H	-1.5540206982	 0.3035897587	 1.9319640526	 0.093697
H	-3.1011579492	-0.0190094064	 1.1766451238	 0.093799
H	-1.9295822295	-0.1781157749	-1.0558495288	 0.068764
H	 0.0809546851	 1.1124261489	-0.6810762449	 0.112223
H	 0.63412614	 0.0317996987	 0.5958587573	 0.113353
H	 0.554409354	-0.5395941145	-1.0763994797	 0.107403
H	-0.8913416788	-2.3755998167	-0.7260148269	 0.059542
H	-1.4247116796	-2.1092665384	 2.2821255718	 0.112612
H	-0.6327303819	-3.4443474011	 1.4437209622	 0.113927
H	 0.1667872718	-1.8849662953	 1.5492746883	 0.110923
H	-3.50756742	-2.1466689272	 0.8125211845	 0.071204
H	-3.0136972608	-2.3808054272	-2.2072670309	 0.109553
H	-4.5769905501	-2.6278846378	-1.4219160213	 0.105791
H	-3.8180003102	-1.0391707809	-1.3807815591	 0.115445
H	-3.9136446833	-4.456991686	-0.0634839498	 0.106638
H	-2.2673958523	-4.5012506739	-0.7050986691	 0.108672
H	-2.5406450232	-4.4144412834	 1.0409261096	 0.113772
25.6231	70.8014	86.8329	180.5968	199.0381	214.1683	217.1355	235.6947	248.4217	273.4297	299.654	325.6567	357.7048	395.6835	418.678	456.4465	472.6418	596.5732	746.4045	783.3565	819.6396	881.3021	928.603	929.6439	965.4313	968.7872	979.9095	986.3557	1011.0754	1039.0263	1065.655	1096.2021	1138.5267	1179.2676	1186.2903	1197.5487	1205.0476	1286.1765	1304.7618	1319.8862	1343.7382	1352.7159	1363.3629	1386.3817	1391.2889	1400.9245	1406.139	1412.3279	1417.0968	1422.1638	1482.4263	1488.103	1491.8905	1496.2799	1500.6944	1504.6215	1505.5609	1505.8088	1511.1789	1515.2691	1522.4767	2976.0324	3003.4129	3020.8344	3024.294	3027.4765	3030.0943	3032.57	3033.9531	3042.0999	3058.4181	3085.4761	3093.022	3094.1066	3095.885	3101.624	3106.471	3110.4213	3111.745	3112.5987	3122.7419
CCC(C)C(C)C(C)C	CC[C@@H](C)[C@@H](C)C(C)C	
InChI=1S/C9H20/c1-6-8(4)9(5)7(2)3/h7-9H,6H2,1-5H3	InChI=1S/C9H20/c1-6-8(4)9(5)7(2)3/h7-9H,6H2,1-5H3/t8-,9+/m1/s1
