14
gdb 5560	3.37792	1.79285	1.2361	1.5349	60.45	-0.2026	0.0199	0.2226	924.3496	0.108867	-415.891426	-415.884	-415.883055	-415.923521	27.161	
O	 0.1656624569	 1.3405003996	 0.3907085794	-0.42063
C	-0.0083444615	 0.1509004468	-0.384094961	-0.194278
C	-1.3311691018	-0.4906495624	-0.1656006661	 0.173815
C	-1.7234609336	-1.7625491522	 0.1802801409	 0.270712
O	-0.9103905713	-2.8181850271	 0.4104304358	-0.437356
N	-3.080390975	-1.8739947503	 0.2673093219	-0.341856
C	-3.5391555228	-0.6688464778	-0.0176996734	 0.011118
N	-2.5355777438	 0.1947611719	-0.2943251363	-0.28734
H	 0.0678626369	 1.0899500693	 1.3160352543	 0.281478
H	 0.1167786656	 0.4827367257	-1.4222157473	 0.116442
H	 0.7748517575	-0.5927236364	-0.1847017317	 0.119733
H	-1.4874299874	-3.5586119655	 0.6333585826	 0.301212
H	-4.5790213953	-0.3801550348	-0.0313563303	 0.134227
H	-2.6149075043	 1.1810515531	-0.4789572387	 0.272722
60.0505	145.033	232.869	299.2759	365.4024	375.8843	389.0923	511.2598	524.2837	646.482	684.2553	732.6689	783.916	800.0908	950.5213	968.7484	1022.1345	1097.7997	1138.2065	1185.6814	1255.3952	1290.0898	1333.7566	1374.1815	1400.5706	1422.0349	1495.0445	1501.6194	1520.8402	1684.1037	3015.615	3052.1286	3256.8045	3664.3059	3801.806	3805.0133
OCC1=C(O)N=CN1	OCc1c(O)nc[nH]1	
InChI=1S/C4H6N2O2/c7-1-3-4(8)6-2-5-3/h2,7-8H,1H2,(H,5,6)	InChI=1S/C4H6N2O2/c7-1-3-4(8)6-2-5-3/h2,7-8H,1H2,(H,5,6)
