19
gdb 64426	2.46274	1.70463	1.33571	1.0235	70.25	-0.2554	0.0753	0.3306	1023.2211	0.159226	-460.148975	-460.140753	-460.139809	-460.181256	32.431	
C	-0.0637627342	 1.5707328358	 0.0392959257	-0.429547
C	 0.0385132075	 0.0526327847	-0.0153650864	 0.333152
O	-1.2882151552	-0.4709430225	-0.0214033827	-0.469367
C	 0.7776361713	-0.4303893821	-1.2714710021	-0.139427
O	 0.8304802824	-1.8534382846	-1.2623923545	-0.267682
C	 1.7396255668	-2.3547838229	-0.2920257033	-0.112582
C	 1.5856074282	-1.7062030618	 1.0725894121	 0.014105
O	 2.1740263379	-0.4058630083	 1.2331164729	-0.262908
C	 0.747711001	-0.5056202938	 1.2135277898	 0.019612
H	 0.9291197437	 2.0198481629	 0.1309356815	 0.130812
H	-0.5482203607	 1.9541501861	-0.8635382309	 0.122331
H	-0.6653315629	 1.8745483877	 0.900910571	 0.127749
H	-1.2075014853	-1.3877739674	-0.3168152528	 0.282843
H	 0.2078629971	-0.1464257163	-2.1600741596	 0.115128
H	 1.7859556827	 0.0005799324	-1.3283080155	 0.109382
H	 1.5392957642	-3.4279954452	-0.2174946455	 0.116126
H	 2.7773716742	-2.222328964	-0.6367995337	 0.111932
H	 1.7286848605	-2.3617284252	 1.9311263638	 0.101676
H	 0.2523353907	-0.3025654054	 2.1629514602	 0.096667
116.3919	186.7631	213.2027	259.0431	310.5775	324.1733	387.8991	415.9643	474.4493	487.8187	515.448	554.6519	699.9862	796.1027	817.7735	863.559	911.6415	929.9064	961.3093	990.2127	1017.0311	1031.6363	1077.9951	1115.7564	1123.4118	1160.1997	1195.8725	1245.0326	1277.847	1285.2662	1324.9384	1347.7402	1363.1657	1396.0407	1411.4806	1417.9537	1464.1666	1478.3702	1485.639	1490.1293	1496.0395	2986.0257	3021.9486	3043.0771	3082.504	3102.896	3110.2313	3116.1204	3122.2226	3124.7256	3759.9739
CC1(O)COCC2OC12	C[C@@]1(O)COC[C@H]2O[C@@H]12	
InChI=1S/C6H10O3/c1-6(7)3-8-2-4-5(6)9-4/h4-5,7H,2-3H2,1H3	InChI=1S/C6H10O3/c1-6(7)3-8-2-4-5(6)9-4/h4-5,7H,2-3H2,1H3/t4-,5-,6-/m1/s1
