15
gdb 30010	3.23696	1.63506	1.13645	1.8441	72.54	-0.2038	-0.0269	0.1769	1012.9643	0.114523	-420.639281	-420.632345	-420.631401	-420.67062	27.26	
O	 0.1424054008	 1.4116559825	-0.2233509658	-0.415103
C	-0.0028088499	 0.0137281958	-0.0466977279	-0.057094
C	 0.6255563726	-0.5507220175	 1.2395652164	-0.137324
C	-0.2493003672	-1.2997474491	 1.9342990091	-0.209907
C	-1.5389765023	-1.3053229573	 1.2202447975	 0.24464
C	-1.397599475	-0.5262220423	 0.1147742394	 0.265748
O	-2.5211632037	-0.4943279708	-0.6289580907	-0.19222
C	-3.4213984006	-1.2805427051	 0.0438361805	-0.011731
C	-2.8773998148	-1.8076143202	 1.1811031209	-0.366884
H	-0.2733723683	 1.8400371436	 0.5334862575	 0.287101
H	 0.4895027428	-0.4360749283	-0.9195524874	 0.122415
H	 1.6511338288	-0.3307928168	 1.5046649435	 0.108268
H	-0.0480041684	-1.8144733329	 2.8654057283	 0.108619
H	-4.39730591	-1.350311676	-0.4074844989	 0.137141
H	-3.3811244649	-2.4614781856	 1.8759593874	 0.116332
119.5673	167.902	284.1376	332.6766	357.9172	489.1019	560.0178	607.6647	634.7523	688.5034	704.3245	731.6389	770.314	821.9395	845.7724	919.8561	943.8962	968.1011	1046.177	1050.5404	1078.356	1139.6756	1171.9136	1212.4523	1248.5814	1257.5019	1324.26	1374.5715	1418.2625	1477.5187	1502.2514	1579.2482	1632.0191	3030.6592	3207.205	3233.5235	3252.0652	3284.1639	3800.8257
OC1C=CC2=C1OC=C2	O[C@H]1C=Cc2c1occ2	
InChI=1S/C7H6O2/c8-6-2-1-5-3-4-9-7(5)6/h1-4,6,8H	InChI=1S/C7H6O2/c8-6-2-1-5-3-4-9-7(5)6/h1-4,6,8H/t6-/m0/s1
