23
gdb 57890	2.82701	1.00267	0.95262	2.4906	87.25	-0.2363	-0.0105	0.2258	1429.9355	0.203554	-388.314205	-388.303593	-388.302648	-388.350363	38.834	
C	-0.0115478024	 1.4736263032	 0.2607935578	-0.389619
C	 0.062864334	-0.0406166116	-0.028474408	-0.071893
C	 0.7434252125	-0.328340649	-1.3672405316	-0.387216
C	 0.7765850877	-0.7436773649	 1.1298067623	 0.385395
O	 1.8932526142	-1.2080504301	 1.0002187611	-0.341842
C	 0.0322655283	-0.8070689262	 2.4217027269	-0.116886
C	 0.4240443533	-1.8719271438	 3.4336189456	-0.291439
C	 0.7243745326	-0.4462550652	 3.7484336705	 0.015613
C	 2.1403699401	 0.0796182642	 3.8088913683	-0.418512
H	 0.9939934093	 1.9056060338	 0.3011172622	 0.128535
H	-0.5661995345	 1.984030943	-0.5323990625	 0.120009
H	-0.5088195077	 1.6861296606	 1.2116019307	 0.120164
H	-0.9669626131	-0.4248634069	-0.0503079949	 0.084899
H	 1.7774414354	 0.0263050227	-1.3576539322	 0.130603
H	 0.7695286058	-1.4009672675	-1.5768919444	 0.120231
H	 0.2109032528	 0.1712391843	-2.1825569158	 0.103394
H	-1.0181003972	-0.5422473649	 2.3624434583	 0.08375
H	-0.3752887392	-2.3807771365	 3.9606317999	 0.1128
H	 1.2568426533	-2.4972721645	 3.1291021664	 0.137337
H	 0.0434417079	 0.0281012677	 4.4511984277	 0.090614
H	 2.7708384865	-0.3972582374	 3.0568373671	 0.156135
H	 2.167537597	 1.1623348448	 3.6439167113	 0.112534
H	 2.5711380433	-0.1167207558	 4.7969422435	 0.115394
41.8376	48.4233	166.101	177.0273	190.8217	221.1846	234.0046	276.148	297.6531	318.8764	369.493	420.6982	433.6143	634.6003	716.8853	757.8805	794.4879	842.6779	867.2827	900.4062	930.5845	952.2415	970.7465	986.5933	1059.5768	1081.8098	1085.7205	1107.572	1124.0932	1140.9509	1147.0622	1200.1854	1209.5628	1237.487	1310.5745	1360.586	1390.3262	1397.2695	1409.5956	1419.2937	1424.6807	1473.4247	1484.0173	1485.9355	1500.011	1501.0044	1506.7893	1509.4561	1772.3501	3006.3101	3033.8294	3035.3328	3044.4541	3088.9802	3105.9108	3111.2454	3114.4744	3123.5047	3127.3666	3133.1916	3146.2879	3162.6127	3226.62
CC(C)C(=O)C1CC1C	CC(C)C(=O)[C@H]1C[C@H]1C	
InChI=1S/C8H14O/c1-5(2)8(9)7-4-6(7)3/h5-7H,4H2,1-3H3	InChI=1S/C8H14O/c1-5(2)8(9)7-4-6(7)3/h5-7H,4H2,1-3H3/t6-,7+/m1/s1
