20
gdb 72635	2.33579	1.46289	1.2408	3.9028	82.1	-0.2304	0.0127	0.2431	1134.4168	0.169012	-403.141396	-403.13201	-403.131066	-403.17515	34.835	
C	-0.2917520101	 1.4227748047	 0.0311596774	-0.488632
C	 0.0442106783	-0.0333563849	-0.0609277569	 0.268306
C	 0.7774755047	-0.7484501161	-1.2114512413	-0.270394
C	 1.3959440306	-1.7451563218	-0.1718721568	-0.271932
C	 0.6439971919	-1.0065845661	 0.9497037247	 0.265348
C	 1.0912628652	-0.8196710473	 2.366777868	-0.502915
N	-0.7676549222	-1.058941496	 0.5786425965	-0.118018
C	-1.8670762558	-0.8824357596	 1.3788611399	 0.128989
O	-2.7873854406	-0.1271942666	 1.1517001542	-0.31988
H	 0.5634670871	 2.0283039398	-0.2856585427	 0.116875
H	-1.1452641801	 1.6652998911	-0.6094599889	 0.149445
H	-0.5635257672	 1.7061114651	 1.0509106071	 0.135241
H	 0.132320282	-1.1747970905	-1.9826970001	 0.11211
H	 1.534532641	-0.1154198764	-1.6802333235	 0.106408
H	 1.1457225849	-2.8021899906	-0.2879683316	 0.108252
H	 2.4799619017	-1.6367993297	-0.0874536843	 0.105985
H	 2.1382548108	-0.5017486181	 2.3967986579	 0.130324
H	 0.4875394687	-0.0638592277	 2.8792215381	 0.134718
H	 1.0131597073	-1.7532686748	 2.9361180554	 0.134277
H	-1.8673117681	-1.5870322645	 2.2343068669	 0.075493
106.9505	140.3219	165.9906	182.0481	212.6428	216.6269	255.8813	305.2851	344.9277	439.3997	484.0225	575.6811	649.6375	686.3783	724.5948	797.5573	861.8617	915.0593	938.2584	950.2986	992.5776	1021.0662	1040.8973	1112.1684	1158.8766	1165.08	1195.3687	1212.5451	1229.6989	1237.5868	1320.9883	1340.1757	1413.1791	1414.0182	1423.8405	1458.5911	1467.7206	1476.5487	1483.3138	1483.8948	1494.2562	1510.547	1774.8819	2931.1453	3029.2629	3040.8935	3062.4203	3070.2447	3090.1063	3107.1077	3108.5802	3113.5075	3122.6412	3130.342
CC12CCC1(C)N2C=O	C[C@@]12CC[C@]1(C)N2C=O	
InChI=1S/C7H11NO/c1-6-3-4-7(6,2)8(6)5-9/h5H,3-4H2,1-2H3	InChI=1S/C7H11NO/c1-6-3-4-7(6,2)8(6)5-9/h5H,3-4H2,1-2H3/t6-,7+,8?
