19
gdb 52880	2.03555	1.28875	0.89575	3.1918	85.43	-0.2329	0.0314	0.2644	1364.9863	0.158738	-381.98983	-381.980178	-381.979234	-382.026273	34.27	
C	-0.0481809727	 1.4812847201	 0.0465220401	-0.503933
C	-0.0017756838	 0.0261353764	 0.0321237522	 0.127174
C	 0.026141598	-1.1799061412	 0.0303010557	-0.072225
C	 0.0727579696	-2.6212977466	 0.0037119422	 0.165198
C	-0.4420149517	-3.350446298	 1.2078198686	-0.271227
N	-1.2088045136	-3.3750380755	-0.0409659809	-0.351409
C	 1.1737548584	-3.2488034027	-0.8111631794	-0.014851
C	 1.6958826564	-2.5969643409	-2.0347386911	-0.255431
N	 2.5247359303	-2.6728263217	-0.8156513506	-0.330974
H	 0.9596535283	 1.9073350232	 0.09794149	 0.154969
H	-0.5307598926	 1.8768267428	-0.853926216	 0.153089
H	-0.6065287853	 1.84962	 0.9139957008	 0.153615
H	 0.0178937333	-4.2964859341	 1.4813689144	 0.126416
H	-0.8026319607	-2.7547219609	 2.0410101019	 0.120688
H	-1.9839506763	-2.7190394985	 0.0121825117	 0.238954
H	 1.1502036415	-4.3348798931	-0.7693639297	 0.094803
H	 2.0422300556	-3.2063150616	-2.8643816181	 0.117066
H	 1.2740816744	-1.6352391255	-2.3119914584	 0.117429
H	 2.4997468909	-1.7693589123	-0.3452193633	 0.230649
17.7258	68.6891	83.7359	131.2847	230.4989	239.0642	305.4702	310.1215	385.118	456.0529	530.4684	578.4472	597.2346	805.412	834.3433	865.0568	890.3761	933.5275	966.539	983.6117	1004.5719	1045.2301	1052.1942	1053.5626	1087.7094	1111.9899	1144.4071	1147.3709	1191.1702	1253.5561	1268.1329	1302.7897	1307.3372	1369.5252	1415.0629	1421.8736	1475.598	1478.4923	1503.6315	1506.455	2356.8921	3029.1	3090.234	3092.6324	3109.7951	3114.2542	3140.0727	3201.2575	3202.2161	3478.7001	3509.1966
CC#CC1(CN1)C1CN1	CC#C[C@]1(CN1)[C@H]1CN1	
InChI=1S/C7H10N2/c1-2-3-7(5-9-7)6-4-8-6/h6,8-9H,4-5H2,1H3	InChI=1S/C7H10N2/c1-2-3-7(5-9-7)6-4-8-6/h6,8-9H,4-5H2,1H3/t6-,7+/m1/s1
