14
gdb 24673	4.81665	1.19497	1.02201	1.5917	69.62	-0.2758	-0.0606	0.2152	1106.0042	0.103378	-432.886976	-432.880094	-432.87915	-432.918971	24.95	
C	 0.3547136977	 1.5334578138	 0.1629130123	-0.171012
O	 1.1531426401	 0.4338513288	-0.2415894832	-0.213996
C	-0.2125738773	 0.1727432785	 0.0856961145	-0.007055
C	-0.4601445887	-0.6183434236	 1.3215693072	 0.375119
N	 0.3327220896	-0.4107201517	 2.3794584446	-0.274344
C	 0.0505490466	-1.1633518663	 3.4373203689	 0.082372
N	-0.9292736865	-2.0675408106	 3.5218424204	-0.238402
C	-1.6577961016	-2.1746496196	 2.4118123001	 0.08232
N	-1.4757319175	-1.4878412655	 1.2839736558	-0.285599
H	 0.5906877797	 1.9412043693	 1.1432330621	 0.136516
H	 0.1003439435	 2.249395513	-0.6172664914	 0.124766
H	-0.8540054711	-0.0984972403	-0.7489032695	 0.116308
H	 0.6741740144	-1.0296210946	 4.318668341	 0.136783
H	-2.476425359	-2.8910672113	 2.4240746572	 0.136223
69.4756	143.5376	193.2144	325.3731	356.5945	406.5519	581.4095	628.2088	704.8237	805.6487	846.5829	878.5298	918.2073	986.0166	1002.6775	1020.8822	1049.2286	1102.4472	1160.5989	1172.1707	1183.3265	1193.1805	1261.7648	1275.0084	1326.1717	1417.5439	1425.6017	1476.6097	1507.9835	1585.264	1605.8303	3090.9272	3155.7839	3162.7695	3166.4263	3191.3844
C1OC1C1=NC=NC=N1	C1O[C@H]1c1ncncn1	
InChI=1S/C5H5N3O/c1-4(9-1)5-7-2-6-3-8-5/h2-4H,1H2	InChI=1S/C5H5N3O/c1-4(9-1)5-7-2-6-3-8-5/h2-4H,1H2/t4-/m1/s1
