19
gdb 83248	1.91109	1.78428	1.62769	2.0896	69.93	-0.2445	0.0726	0.3171	1001.6103	0.159514	-460.142784	-460.13444	-460.133496	-460.175263	32.788	
C	-0.1163565726	 1.507957944	-0.0365158744	-0.496247
C	 0.027157219	 0.0059332187	-0.0148932554	 0.228921
C	-0.8441182652	-0.8195017462	 0.9244173067	 0.036923
O	-1.3895930826	-2.047210669	 0.5172277289	-0.434647
C	 0.6458238274	-0.7594583411	 1.1306493996	-0.021273
O	 1.2838996949	-1.9171332684	 0.6403208874	-0.280679
C	 1.5178689216	-1.737412353	-0.7695606627	-0.117535
C	 0.4741859773	-0.721157408	-1.2962296536	 0.046616
O	-0.5796871362	-1.2853131259	-2.0472503077	-0.445151
H	 0.8241697704	 1.9938152274	-0.3205604523	 0.12076
H	-0.8839318325	 1.8109355732	-0.7567716993	 0.136627
H	-0.4075181786	 1.8981483399	 0.9441035479	 0.117598
H	-1.4994606208	-0.2709758745	 1.5959267322	 0.1034
H	-0.692363564	-2.7030053092	 0.6750314409	 0.30046
H	 1.1157307028	-0.3122154935	 2.0014766319	 0.100832
H	 2.538834091	-1.3585805294	-0.9137939157	 0.103465
H	 1.422177637	-2.7068788352	-1.2647742677	 0.118488
H	 0.9654574423	-0.0114534012	-1.9701470825	 0.088524
H	-1.1500216913	-1.7451299484	-1.4132482042	 0.292918
103.4444	201.1381	203.9	245.3797	263.1437	286.4757	372.2219	407.7166	466.5308	557.3314	590.5821	647.7718	666.1395	707.5597	786.7977	831.658	861.6728	903.482	951.1137	989.5197	1013.3144	1037.9851	1068.9102	1115.5481	1120.1597	1134.0393	1155.208	1206.6993	1240.1593	1276.8516	1283.6534	1307.3887	1338.6293	1357.8791	1390.297	1417.3767	1446.4095	1476.9309	1491.008	1499.44	1505.5721	3010.2615	3025.6194	3056.5663	3090.1047	3098.9764	3105.1572	3141.3638	3153.9802	3697.0322	3712.3235
CC12C(O)C1OCC2O	C[C@]12[C@@H](O)[C@H]1OC[C@H]2O	
InChI=1S/C6H10O3/c1-6-3(7)2-9-5(6)4(6)8/h3-5,7-8H,2H2,1H3	InChI=1S/C6H10O3/c1-6-3(7)2-9-5(6)4(6)8/h3-5,7-8H,2H2,1H3/t3-,4+,5-,6+/m1/s1
