23
gdb 115292	2.72725	1.15963	0.87593	1.7938	90.16	-0.2188	0.0291	0.2479	1428.553	0.204013	-388.318005	-388.307583	-388.306639	-388.353456	37.843	
C	 0.0026778711	 1.5385608767	-0.1770243665	-0.381031
C	 0.0175600577	 0.0126463726	-0.0580950473	-0.176381
C	-1.3830412633	-0.5773110012	 0.1536889022	 0.05554
O	-2.2339162855	-0.2088418945	-0.9356115259	-0.279438
C	-2.82195648	-1.3667757365	-1.5094753442	-0.153377
C	-2.2557626349	-2.5384570132	-0.7506250206	 0.183114
C	-2.6432491067	-3.9386344319	-1.1025028527	-0.498039
C	-1.4380189648	-2.0888677974	 0.2045707636	 0.195779
C	-0.6706747565	-2.8584275893	 1.2322017531	-0.504525
H	 1.0091124933	 1.9321644241	-0.3490275349	 0.105626
H	-0.6366405211	 1.8502404004	-1.0067980434	 0.135629
H	-0.3857878067	 2.0011620806	 0.7374872977	 0.109524
H	 0.4462051498	-0.4347259565	-0.9634105943	 0.093552
H	 0.6550145716	-0.2899683189	 0.7825347755	 0.08966
H	-1.7967054915	-0.146829872	 1.0854149669	 0.067541
H	-3.9214352756	-1.3178937247	-1.4246576721	 0.094721
H	-2.5899721629	-1.4112674487	-2.5864142553	 0.096872
H	-3.730540601	-4.0752097325	-1.0396539405	 0.127786
H	-2.3586129118	-4.1802102234	-2.1347926731	 0.128641
H	-2.1744019946	-4.6759377339	-0.4465852909	 0.125935
H	-0.8839861008	-3.9291744873	 1.1877211933	 0.124078
H	 0.4113367333	-2.7288250313	 1.1079327297	 0.131993
H	-0.9122892492	-2.510324151	 2.2448188295	 0.126801
63.0996	105.9985	140.3146	150.4498	170.1241	192.0178	233.9888	272.4915	288.8075	314.8335	397.5405	462.2407	541.8869	618.6239	642.1802	756.8087	833.9528	877.2023	931.9264	954.255	976.8491	993.7753	1045.4001	1054.7003	1084.9986	1093.3601	1109.5359	1137.5988	1156.4078	1199.2446	1208.8309	1270.244	1289.4767	1319.3872	1359.6974	1386.2629	1390.3915	1407.6481	1412.9382	1422.1067	1475.5101	1479.4085	1482.8231	1488.7308	1493.4129	1496.9314	1509.5265	1525.2012	1757.6608	2916.946	2951.8469	2970.7692	3017.042	3019.4252	3022.5666	3034.9454	3060.127	3060.7617	3065.7022	3099.3351	3113.0973	3117.4793	3124.4176
CCC1OCC(C)=C1C	CC[C@H]1OCC(=C1C)C	
InChI=1S/C8H14O/c1-4-8-7(3)6(2)5-9-8/h8H,4-5H2,1-3H3	InChI=1S/C8H14O/c1-4-8-7(3)6(2)5-9-8/h8H,4-5H2,1-3H3/t8-/m1/s1
