16
gdb 68146	4.0018	1.23357	1.11335	4.8808	69.62	-0.2677	0.0042	0.272	1076.7511	0.124577	-437.868544	-437.860996	-437.860052	-437.900248	29.796	
O	-0.0619531766	 1.3966569613	-0.0427382702	-0.471248
C	-0.0129529265	 0.0159409495	 0.0209277898	 0.332133
C	 0.3390572632	-0.8046795879	 1.31320809	-0.332214
C	-0.3797795983	-1.8999425849	 0.4808667132	 0.325081
C	-1.3400801522	-0.7878574039	-0.0281408251	-0.29879
O	 0.5103261185	-2.1153730994	-0.6335200653	-0.309048
C	 0.8125505258	-0.7600437299	-1.0252667717	-0.136256
C	-0.8416161212	-3.14930791	 1.0445357593	 0.217851
N	-1.2331474432	-4.1235118874	 1.5260737909	-0.337655
H	 0.8364666868	 1.7450488746	-0.018020144	 0.290076
H	 1.3860868108	-0.9929753968	 1.5584713653	 0.115424
H	-0.2319251305	-0.4780040016	 2.1821738896	 0.128954
H	-2.0565316864	-0.4619622867	 0.7257031634	 0.130788
H	-1.8157650189	-0.9565674116	-0.9953783052	 0.122964
H	 0.4809270138	-0.5731376617	-2.0521612342	 0.118388
H	 1.8917490249	-0.5776668835	-0.9503837057	 0.103551
148.0876	149.3628	261.1011	305.7172	349.6883	393.6483	469.017	500.6107	519.5937	560.964	569.4376	595.2613	684.8969	828.5229	873.8852	934.5619	945.7507	962.1466	1000.4457	1025.6723	1075.3479	1105.6611	1121.8498	1150.8783	1163.726	1178.7269	1213.9209	1277.7369	1303.6231	1347.6286	1397.0946	1471.2709	1505.8443	1533.4444	2368.898	3023.5022	3075.7426	3079.9538	3088.7278	3156.3557	3163.512	3801.0875
OC12CC(C1)(OC2)C#N	O[C@@]12C[C@@](C1)(OC2)C#N	
InChI=1S/C6H7NO2/c7-3-6-1-5(8,2-6)4-9-6/h8H,1-2,4H2	InChI=1S/C6H7NO2/c7-3-6-1-5(8,2-6)4-9-6/h8H,1-2,4H2/t5-,6-
