21
gdb 119117	2.35349	1.12676	0.90449	1.6262	79.22	-0.2455	-0.0231	0.2224	1408.7142	0.179107	-424.235314	-424.224853	-424.223909	-424.271551	37.184	
C	-0.1716667828	 1.6690920792	 0.1932695759	-0.383252
C	-0.2640572258	 0.1418999441	 0.2268202674	-0.171061
C	 0.8987945416	-0.5004832416	 0.9967851994	-0.259381
C	 0.7954676723	-2.0090716447	 1.0699347287	 0.301895
C	 1.1190936172	-2.7242726303	 2.3251847719	-0.228212
O	-0.2315123125	-2.5411417101	 1.926305717	-0.265778
C	 1.0009722629	-2.7628947071	-0.230621282	 0.330321
C	 0.2995391795	-4.0960981375	-0.3874070693	-0.480576
O	 1.6889236324	-2.2810719886	-1.1031217143	-0.308824
H	 0.7545374012	 1.9987607842	-0.2901569274	 0.118432
H	-1.0093136513	 2.1049298539	-0.359737756	 0.113383
H	-0.185635118	 2.0905851769	 1.204734071	 0.113042
H	-1.2085809683	-0.1644193587	 0.6921762813	 0.107786
H	-0.2746045131	-0.246711021	-0.7980027892	 0.112378
H	 1.8485676501	-0.2497945649	 0.5128676928	 0.123376
H	 0.9299637936	-0.1019485564	 2.0171204182	 0.096158
H	 1.4856012529	-3.7495769831	 2.3003087883	 0.11831
H	 1.4460724059	-2.1360213364	 3.1814327961	 0.125531
H	-0.7825190007	-3.931135575	-0.4295335442	 0.156439
H	 0.6376946099	-4.5712024535	-1.3087220013	 0.139336
H	 0.4744715227	-4.7569977094	 0.4659988357	 0.140696
60.385	75.7756	81.4718	114.896	148.0213	234.9189	247.4268	272.4544	329.6993	333.2219	431.7952	494.8697	521.7459	613.9775	692.5244	741.5571	816.5976	881.8959	894.5662	903.0135	954.8343	967.6396	1040.679	1052.4427	1085.1361	1120.5318	1139.1186	1156.3041	1168.1702	1260.0409	1300.3399	1317.1898	1337.7019	1376.1849	1386.5311	1402.9821	1413.6759	1453.1227	1465.322	1469.1449	1493.5886	1500.233	1508.0962	1524.7656	1798.7825	3029.3113	3031.4036	3042.7707	3048.8909	3064.458	3083.1201	3089.8052	3102.3149	3104.185	3111.2078	3157.6751	3170.5161
CCCC1(CO1)C(C)=O	CCC[C@]1(CO1)C(=O)C	
InChI=1S/C7H12O2/c1-3-4-7(5-9-7)6(2)8/h3-5H2,1-2H3	InChI=1S/C7H12O2/c1-3-4-7(5-9-7)6(2)8/h3-5H2,1-2H3/t7-/m0/s1
