19
gdb 102035	2.15559	1.35388	0.89646	1.1811	75.29	-0.2521	-0.0147	0.2375	1330.9822	0.158548	-456.418808	-456.408673	-456.407729	-456.454755	35.116	
C	-0.2291549467	 0.8146875886	 0.7359342729	-0.377143
C	 0.5005761992	-0.4087780897	 0.1833553198	-0.155674
N	 0.6849945742	-0.3588704701	-1.2768877442	-0.160494
C	 1.8938120869	 0.0485608335	-1.7758503222	 0.180002
O	 2.2046780546	 0.167801183	-2.9474958208	-0.351048
C	-0.4630591286	-0.735962401	-2.0617825372	 0.518501
O	-1.4806942858	-1.0834869059	-1.4901150693	-0.414749
N	-0.2926917138	-0.6658426001	-3.3971925078	-0.358621
C	-1.3581670716	-1.013275884	-4.3159996391	-0.334924
H	 0.3204550229	 1.7362173993	 0.5183539752	 0.116656
H	-1.2271319248	 0.8861586431	 0.2991590864	 0.153324
H	-0.3331170304	 0.727975235	 1.821968139	 0.121046
H	 1.4937570768	-0.5026291165	 0.6316566807	 0.110178
H	-0.0604422344	-1.3158546891	 0.4094841438	 0.147016
H	 2.6117820266	 0.2712306684	-0.9672687423	 0.100055
H	 0.6151881723	-0.3597967288	-3.7312698215	 0.279728
H	-2.2344414962	-1.2953301048	-3.732515753	 0.167531
H	-1.6137082911	-0.1631201331	-4.9580121697	 0.129189
H	-1.0680373403	-1.8552658381	-4.9542383308	 0.129426
58.2158	76.4527	90.7941	120.369	179.2533	211.7075	241.8306	282.9721	338.1457	384.8379	419.822	460.4441	581.4976	686.1463	688.4373	777.4778	789.4125	861.4666	954.1837	1032.1091	1050.5975	1108.8251	1119.0974	1155.6425	1180.8613	1209.3625	1247.641	1288.6674	1392.8983	1407.616	1413.9063	1441.7101	1446.1989	1483.2509	1491.2183	1500.4031	1502.358	1508.6012	1600.2232	1764.2114	1801.7628	2979.1468	3030.3086	3042.9059	3068.0728	3081.1461	3107.0123	3132.273	3145.7851	3158.8765	3498.5531
CCN(C=O)C(=O)NC	CCN(C=O)C(=O)NC	
InChI=1S/C5H10N2O2/c1-3-7(4-8)5(9)6-2/h4H,3H2,1-2H3,(H,6,9)	InChI=1S/C5H10N2O2/c1-3-7(4-8)5(9)6-2/h4H,3H2,1-2H3,(H,6,9)
