16
gdb 11435	4.45349	1.36121	1.22722	0.8968	60.38	-0.2537	-0.0331	0.2206	987.1386	0.13013	-420.892079	-420.884429	-420.883484	-420.924629	27.956	
O	 0.0393160808	 1.2329636918	 0.4383689356	-0.420631
C	-0.0323138428	-0.164606011	 0.2762102291	-0.056372
C	-1.3779569181	-0.5776402138	-0.3209796424	 0.077108
C	-1.6137584392	-2.0878437452	-0.3307441512	-0.362424
C	-2.4028171703	-2.3363374589	 0.9566658799	 0.374373
O	-2.6346529932	-3.3922451818	 1.4786067048	-0.291883
C	-2.8426038933	-0.9621797627	 1.4676332384	-0.187315
O	-2.4401126519	-0.0185914134	 0.4916582149	-0.279477
H	-0.8073353928	 1.4952767816	 0.8220389678	 0.289822
H	 0.7802577171	-0.4619919032	-0.3962378595	 0.112727
H	 0.1245257718	-0.695468471	 1.2328841833	 0.082182
H	-1.488436599	-0.1139865953	-1.3047419891	 0.100575
H	-2.2343295669	-2.3977556711	-1.1784782125	 0.145796
H	-0.702618206	-2.6909095981	-0.3468614397	 0.142147
H	-3.9295780658	-0.9182489905	 1.5927614143	 0.143287
H	-2.3811486006	-0.7780830875	 2.4497613364	 0.130084
60.6939	113.7582	155.9301	240.0024	354.868	436.0611	464.2704	472.7741	511.9162	629.6657	719.4281	759.9749	812.2561	830.0754	942.1883	1007.3633	1028.6885	1073.1909	1095.7638	1105.3699	1166.4016	1186.4605	1220.8263	1227.8124	1259.9994	1313.5435	1328.3017	1364.2268	1394.538	1440.4229	1447.2301	1482.4195	1505.108	1863.2008	2942.2173	2996.3206	3057.2338	3063.6199	3075.0034	3084.4575	3112.9593	3773.7144
OCC1CC(=O)CO1	OC[C@H]1CC(=O)CO1	
InChI=1S/C5H8O3/c6-2-5-1-4(7)3-8-5/h5-6H,1-3H2	InChI=1S/C5H8O3/c6-2-5-1-4(7)3-8-5/h5-6H,1-3H2/t5-/m1/s1
