19
gdb 29572	2.81061	1.45006	1.00976	2.0545	83.28	-0.1831	0.0543	0.2374	1187.6731	0.160351	-382.074882	-382.066253	-382.065309	-382.108237	32.661	
C	 0.2671098887	 1.4212750625	 0.2317239929	-0.506811
C	 0.086887941	-0.0550752922	 0.0584191913	 0.200566
C	 0.0482546179	-0.7601876981	-1.1233334014	-0.160885
N	-0.1548873085	-2.0845123019	-0.835731927	-0.249702
C	-0.2430518899	-2.2555735666	 0.5269256556	-0.169666
C	-0.0975179447	-1.0130002178	 1.1067490491	 0.185556
N	-0.1996045509	-0.6821914656	 2.4750248845	-0.14777
C	 0.2927488218	-1.6336245309	 3.4600233704	-0.227233
C	 1.0268685689	-0.3621232226	 3.2096454445	-0.222736
H	 1.200858452	 1.6667468551	 0.753066067	 0.117653
H	 0.2877465069	 1.9312897748	-0.7359240541	 0.113327
H	-0.5464908329	 1.8546845011	 0.8244950824	 0.130353
H	 0.1487298955	-0.4187493326	-2.1417607974	 0.111869
H	-0.2368292183	-2.8190137398	-1.5146342582	 0.258099
H	-0.4314023192	-3.2225449065	 0.9628480498	 0.111236
H	-0.3198133092	-1.7519554906	 4.3491635171	 0.114272
H	 0.7572309992	-2.5471121218	 3.0940646617	 0.111429
H	 1.9693690139	-0.4351723307	 2.6717756404	 0.115891
H	 0.9519923376	 0.4656692043	 3.9086732813	 0.114552
75.6488	125.0979	160.0426	179.8736	247.7914	294.6901	367.7656	420.2781	506.0214	554.1991	630.1252	644.5219	687.1006	727.8775	748.9207	825.4755	894.4817	907.381	922.462	1002.1409	1036.4452	1067.0113	1083.9069	1103.2903	1118.9227	1128.3438	1171.1658	1173.6958	1199.3281	1246.6666	1291.61	1374.0037	1396.8997	1420.1685	1476.7502	1480.4519	1487.9698	1500.2185	1514.1244	1567.3245	1627.7289	3019.775	3067.3807	3100.2623	3103.3617	3105.0945	3182.9002	3198.2571	3254.1794	3268.4595	3698.3563
CC1=CNC=C1N1CC1	Cc1c[nH]cc1N1CC1	
InChI=1S/C7H10N2/c1-6-4-8-5-7(6)9-2-3-9/h4-5,8H,2-3H2,1H3	InChI=1S/C7H10N2/c1-6-4-8-5-7(6)9-2-3-9/h4-5,8H,2-3H2,1H3
