17
gdb 132351	1.79269	1.75735	0.89303	2.4848	80.82	-0.2036	0.0078	0.2114	1247.623	0.136103	-426.051045	-426.042605	-426.041661	-426.084759	32.19	
C	-0.0234668259	 1.5153371736	 0.0103892121	-0.489059
C	 0.016512773	 0.0062329729	 0.0014886747	 0.354087
C	 0.0441656996	-0.6840076272	-1.2157893659	-0.381162
C	 0.0834428795	-2.0678120115	-1.1905881653	 0.343273
F	 0.1064170501	-2.7357857455	-2.3522648718	-0.086394
C	 0.0961423621	-2.8001520751	-0.0141649999	-0.363822
C	 0.0699071229	-2.1137664273	 1.2048579603	 0.359783
N	 0.1429495359	-2.8102831398	 2.4102478913	-0.590333
C	 0.0278717652	-0.7106322927	 1.1948023716	-0.291976
H	 0.8740837543	 1.9369692051	-0.4559903461	 0.13388
H	-0.8837907897	 1.8929397931	-0.553023658	 0.131526
H	-0.0880456578	 1.9085945787	 1.028067798	 0.120549
H	 0.0339580325	-0.1646566893	-2.1666920221	 0.095405
H	 0.1302211228	-3.8828358277	-0.0566554772	 0.093412
H	-0.1853709634	-3.7640439029	 2.3736557061	 0.248086
H	-0.2314777365	-2.3182445357	 3.2080472009	 0.247404
H	 0.0092048454	-0.1769312986	 2.1407418313	 0.075342
29.0136	193.6234	227.1874	246.8391	283.4664	312.4139	323.7202	510.1339	515.0886	518.5468	554.2372	575.287	600.7936	641.1401	705.5265	823.085	845.8306	848.3972	979.4697	993.5329	1008.2602	1054.9753	1057.6867	1116.6602	1164.7838	1198.68	1287.8802	1355.9494	1382.9145	1413.2297	1472.7538	1484.5168	1514.5323	1519.7472	1637.3373	1652.3407	1664.933	3032.4893	3086.1804	3116.5054	3163.0417	3194.3244	3200.5249	3567.5979	3667.2284
CC1=CC(F)=CC(N)=C1	Cc1cc(F)cc(N)c1	
InChI=1S/C7H8FN/c1-5-2-6(8)4-7(9)3-5/h2-4H,9H2,1H3	InChI=1S/C7H8FN/c1-5-2-6(8)4-7(9)3-5/h2-4H,9H2,1H3
