21
gdb 118921	2.47714	1.04613	1.00416	1.9484	79.16	-0.2459	-0.0282	0.2177	1368.1721	0.179827	-424.240775	-424.23057	-424.229626	-424.27631	37.051	
C	-0.2098400272	 1.6402190497	-0.2145685681	-0.383651
C	-0.0691955516	 0.118924714	-0.1208307999	-0.174484
C	-1.4180581937	-0.5901782256	 0.0404931781	-0.215127
C	-1.2975948346	-2.1124456253	 0.2016258067	 0.314954
O	-0.5330280412	-2.4184709376	 1.3436562048	-0.484098
C	-2.67539052	-2.8479334015	 0.0253294689	-0.288055
C	-2.314827388	-3.1852179855	-1.4566664403	-0.337348
C	-0.8680031962	-2.8601825822	-1.0735375225	 0.33669
O	 0.207006785	-3.2721680656	-1.414158832	-0.320102
H	 0.766500078	 2.1222635344	-0.3236854728	 0.114581
H	-0.8227537481	 1.9333817159	-1.07461967	 0.111053
H	-0.6848616192	 2.0502811451	 0.6836945439	 0.115138
H	 0.439287996	-0.2617302193	-1.0155254641	 0.105473
H	 0.5652088234	-0.1466066133	 0.7310003544	 0.112627
H	-1.9330587543	-0.2136864288	 0.9344357325	 0.108728
H	-2.0700256129	-0.362266991	-0.8129236059	 0.092343
H	 0.2206206992	-2.9457538554	 1.0509078483	 0.294141
H	-2.7171419727	-3.7399384908	 0.6524766541	 0.120762
H	-3.5644847408	-2.2372037534	 0.1878383879	 0.109519
H	-2.4915842662	-4.1981144727	-1.8228438396	 0.132631
H	-2.7318240749	-2.4705291012	-2.1719912344	 0.134226
68.1669	82.8332	92.9372	167.3629	183.0692	208.9219	247.6118	281.19	336.8337	351.0705	449.8135	482.2639	568.5153	715.0037	733.6388	751.8851	763.2796	860.7036	883.9505	916.5822	937.1083	967.5581	1026.1519	1049.4101	1060.2137	1084.4894	1127.1721	1165.2991	1183.5012	1203.8807	1228.4307	1249.1507	1296.5946	1307.8235	1338.6131	1375.6312	1393.1343	1412.9501	1445.4194	1473.9059	1481.2914	1494.8137	1499.9987	1511.2857	1867.6102	3014.4499	3027.7814	3033.1452	3051.3673	3068.7257	3075.7254	3081.6822	3099.4641	3103.053	3127.0104	3146.182	3779.1293
CCCC1(O)CCC1=O	CCC[C@@]1(O)CCC1=O	
InChI=1S/C7H12O2/c1-2-4-7(9)5-3-6(7)8/h9H,2-5H2,1H3	InChI=1S/C7H12O2/c1-2-4-7(9)5-3-6(7)8/h9H,2-5H2,1H3/t7-/m1/s1
