15
gdb 125367	3.33871	1.74435	1.15398	6.346	72.59	-0.2081	0.0103	0.2184	995.6512	0.115375	-413.016757	-413.009521	-413.008577	-413.048272	27.46	
C	-0.0219467632	 1.5305545187	 0.0483892956	-0.495707
C	-0.0100698596	 0.0461703094	-0.0330007636	 0.265814
C	-0.0306024999	-0.7971943658	-1.1003058569	-0.158403
N	-0.0052185071	-2.1182779877	-0.6586904846	-0.421271
C	 0.0308683538	-2.1019030425	 0.7091987842	 0.509645
N	 0.0659994757	-2.9348334872	 1.722510585	-0.36496
N	 0.0882943208	-2.1189775399	 2.8428057648	-0.219629
C	 0.0659898047	-0.8595901907	 2.4705168575	-0.031815
N	 0.0284914381	-0.7852877711	 1.0955319425	-0.078622
H	 0.8728154095	 1.9151286435	 0.5524235843	 0.142363
H	-0.0549495387	 1.9615348364	-0.9547676061	 0.140627
H	-0.8935290675	 1.8980677859	 0.6031900031	 0.142339
H	-0.0611407403	-0.5581971157	-2.1503170931	 0.148119
H	-0.0160075247	-2.9435210666	-1.2288841327	 0.282178
H	 0.0753573485	-0.0041333568	 3.1244113799	 0.139324
157.5242	179.7792	217.0123	241.0915	274.5159	393.1239	527.6627	602.5286	616.2065	654.5944	715.8692	735.9857	752.1261	770.3681	827.3601	990.1983	1008.2134	1032.6209	1069.0326	1095.8788	1120.5496	1213.0982	1271.9128	1284.7123	1365.3737	1411.3526	1424.7125	1430.8229	1474.0827	1476.5687	1498.7872	1644.558	1665.3713	3024.5936	3072.4287	3126.6232	3277.2413	3285.4534	3713.6555
CC1=CNC2=NN=CN12	Cc1c[nH]c2nncn12	
InChI=1S/C5H6N4/c1-4-2-6-5-8-7-3-9(4)5/h2-3H,1H3,(H,6,8)	InChI=1S/C5H6N4/c1-4-2-6-5-8-7-3-9(4)5/h2-3H,1H3,(H,6,8)
