15
gdb 69576	2.92648	1.50781	1.18471	2.8703	67.07	-0.2369	-0.0294	0.2075	1027.8718	0.110536	-457.714171	-457.706122	-457.705178	-457.746801	29.941	
O	-0.0093239477	 1.4175538917	-0.0377910621	-0.444861
C	 0.0153289793	 0.0488031276	 0.0579965477	 0.28261
C	-0.3138112174	-0.8667264797	-1.1132014885	-0.352539
C	-1.2081831574	-0.9155860102	 0.088250462	-0.228958
C	-0.5288557492	-1.7389760234	 1.1599725406	 0.365474
C	-1.0722705942	-2.4799168965	 2.2989905012	-0.268522
O	-0.4452243904	-3.1511584974	 1.198942284	-0.269477
C	 0.6520353984	-0.7527294489	 1.1715575195	 0.272672
O	 1.5844067091	-0.5803390978	 1.9023959782	-0.320125
H	 0.7384656566	 1.7052413667	-0.5732142867	 0.30245
H	-0.7130825485	-0.3204155704	-1.9624700841	 0.132105
H	 0.3150896428	-1.7141357672	-1.3676570601	 0.139617
H	-2.2511028189	-0.6308522904	 0.063598753	 0.12345
H	-0.5160720717	-2.4944493467	 3.2344829087	 0.140112
H	-2.1493273808	-2.6184880274	 2.3799273667	 0.125992
88.7747	162.3012	187.1593	229.8829	248.077	297.5361	376.5615	451.9305	533.8913	545.9506	658.4264	746.8887	783.6366	836.6503	848.2444	921.9874	934.5206	961.4837	977.9839	996.5042	1059.2181	1089.2978	1123.8017	1152.1684	1170.9404	1222.7535	1246.5456	1286.7323	1410.4213	1440.2779	1490.7187	1528.4628	1885.7126	3088.006	3122.5335	3181.9139	3210.5181	3218.5657	3802.5721
OC12CC1C1(CO1)C2=O	O[C@]12C[C@H]1[C@]1(CO1)C2=O	
InChI=1S/C6H6O3/c7-4-5(8)1-3(5)6(4)2-9-6/h3,8H,1-2H2	InChI=1S/C6H6O3/c7-4-5(8)1-3(5)6(4)2-9-6/h3,8H,1-2H2/t3-,5-,6-/m1/s1
