18
gdb 43175	2.22574	1.85039	1.75687	2.353	70.53	-0.2287	-0.0189	0.2098	918.4176	0.151195	-439.096614	-439.089503	-439.088559	-439.12802	28.248	
O	 0.0060729844	 0.0542624667	-0.0616573932	-0.332219
C	-0.0157292681	 1.2522131047	 0.0306941282	 0.429323
C	-1.2083383407	 2.1971410254	 0.0609820916	-0.14497
C	-0.7421814037	 3.2540491804	 1.075228965	-0.167518
N	 0.7495403606	 3.2056734238	 1.0337616082	-0.30495
C	 1.1500767165	 2.2348421919	 0.0140708867	-0.10889
C	 1.1309500535	 2.8281824277	-1.4278881592	-0.114426
O	-0.070591064	 3.547392389	-1.6477794276	-0.238642
C	-1.2408361781	 2.7965427054	-1.3765289636	-0.101163
H	-2.1523713777	 1.7034779516	 0.2950378361	 0.09362
H	-1.1174403155	 4.2508725914	 0.821603859	 0.106455
H	-1.0964006982	 3.0076071619	 2.0831865245	 0.110411
H	 1.1250422499	 4.1235998543	 0.8294578113	 0.224577
H	 2.1122261957	 1.7618970744	 0.2258841891	 0.094147
H	 1.9446192622	 3.5489299032	-1.5588691878	 0.115248
H	 1.2603832883	 2.0208482207	-2.1668104441	 0.108469
H	-1.3697500252	 1.984282772	-2.109247915	 0.110357
H	-2.0780580797	 3.4931440855	-1.4795265394	 0.120171
140.0481	147.6674	275.2099	287.2567	382.3862	441.867	463.3086	509.3345	695.441	714.1181	760.3432	785.2928	830.2803	853.5396	873.9212	948.0165	955.2265	972.9916	1020.6978	1035.5681	1079.2391	1114.8718	1124.0118	1186.7566	1195.5991	1211.9812	1250.3373	1270.0954	1282.4441	1302.7209	1315.9645	1359.8247	1386.5156	1405.6508	1440.7307	1493.6553	1507.4944	1516.2667	1866.6732	2979.523	2985.7288	3024.7174	3065.5897	3075.3809	3084.484	3085.9176	3114.2664	3547.8596
O=C1C2CNC1COC2	O=C1[C@H]2CN[C@@H]1COC2	
InChI=1S/C6H9NO2/c8-6-4-1-7-5(6)3-9-2-4/h4-5,7H,1-3H2	InChI=1S/C6H9NO2/c8-6-4-1-7-5(6)3-9-2-4/h4-5,7H,1-3H2/t4-,5+/m0/s1
