18
gdb 41068	4.01169	1.86714	1.66926	1.2851	77.93	-0.2104	0.0845	0.2949	855.4219	0.150159	-364.683313	-364.677474	-364.676529	-364.713011	26.073	
C	-0.0036502166	 1.3597920248	-0.3632253283	-0.180059
C	 1.444984233	 1.5300645398	 0.1934632006	-0.366049
C	 1.1085827381	 0.2758830411	 0.9906513451	 0.381313
C	 1.6288760636	-1.006806462	 1.6491494715	-0.183149
C	 0.2518674205	-1.7117775778	 1.7522669444	-0.058423
C	 0.7720504607	-0.8596112969	 2.884776382	-0.11856
C	 0.0677718963	 0.3384614255	 2.1887690905	-0.118734
C	-0.6905425874	-0.6014799199	 1.18529589	-0.049068
N	 0.0451419224	-0.1097877014	-0.0104941904	-0.138678
H	-0.7412126632	 1.9418111743	 0.2026466756	 0.099474
H	-0.1562702919	 1.5314039564	-1.4302363859	 0.10702
H	 2.1985395711	 1.3530197388	-0.5786205172	 0.116611
H	 1.6887891277	 2.4363817425	 0.7506973334	 0.103505
H	 2.5409732046	-1.5675263411	 1.4944519487	 0.089608
H	 0.153099602	-2.7866816805	 1.684609588	 0.091513
H	 0.9684764251	-1.0951826561	 3.9211325634	 0.089526
H	-0.3016381476	 1.2491308158	 2.6542536281	 0.070223
H	-1.7646295884	-0.7876773832	 1.1389696307	 0.063927
259.163	287.5151	375.4513	548.7167	553.355	681.2106	711.4273	765.0503	786.9332	797.4103	809.9812	831.3516	845.686	869.2445	870.3182	894.0083	914.8093	934.9442	987.2193	1005.7832	1022.2069	1041.7561	1046.8172	1066.1581	1095.1638	1137.5169	1152.6169	1169.1562	1177.7932	1188.3357	1198.8001	1239.6161	1257.2054	1260.0526	1277.5154	1321.4319	1360.324	1477.2837	1503.3622	3028.3194	3064.624	3101.5871	3105.3144	3125.9169	3141.2249	3200.3141	3203.2397	3218.9014
C1CC23C4C5C4C2C5N13	C1C[C@@]23[C@@H]4[C@H]5[C@@H]4[C@@H]2[C@H]5N13	
InChI=1S/C8H9N/c1-2-9-7-4-3-5(4)8(1,9)6(3)7/h3-7H,1-2H2	InChI=1S/C8H9N/c1-2-9-7-4-3-5(4)8(1,9)6(3)7/h3-7H,1-2H2/t3-,4+,5-,6+,7-,8+/m0/s1
