16
gdb 86858	2.99356	1.24868	1.04111	2.4022	71.85	-0.27	0.0127	0.2827	1153.5918	0.123821	-437.864839	-437.856513	-437.855569	-437.897974	31.447	
O	 0.4330511351	 0.6433390092	 0.7972653844	-0.438763
C	-0.1822719165	-0.296211802	-0.0383907728	 0.068362
C	-1.6163318435	 0.0587272249	-0.4444021158	-0.264743
C	-1.7545152315	-0.7043171376	-1.7814724917	-0.102922
O	-0.4141083048	-0.6852089144	-2.3569759263	-0.228748
C	 0.4960694365	-0.3976849065	-1.3914952304	 0.400407
N	 1.728644465	-0.1878758701	-1.5538080155	-0.566688
C	-2.2203543962	-2.0788229344	-1.6270743505	 0.367929
C	-2.6194935139	-3.2034671853	-1.4898036283	-0.47414
H	 1.3425242872	 0.7226581486	 0.4721568282	 0.298216
H	-0.172481391	-1.2992841888	 0.4204860476	 0.107021
H	-2.3737606851	-0.2347896125	 0.2816733435	 0.131434
H	-1.6794020166	 1.1363485682	-0.6194465324	 0.127809
H	-2.3945773897	-0.175939262	-2.4928820507	 0.129798
H	 2.0137469006	-0.2607511838	-2.530019121	 0.233083
H	-2.9700030856	-4.1998210936	-1.3747865684	 0.211943
79.8688	93.4739	186.9373	257.8025	276.1233	377.6777	393.953	440.6026	463.0884	563.4742	601.7916	637.6557	681.5394	690.6521	761.8352	815.7601	846.0564	878.5509	943.5988	995.3602	1035.6086	1065.6269	1081.0016	1154.4078	1183.2905	1250.136	1271.582	1284.7693	1334.2991	1367.2568	1399.5517	1434.6776	1490.5391	1786.071	2240.2066	2965.3863	3072.0614	3082.1044	3147.5997	3498.3268	3500.7424	3720.082
OC1CC(OC1=N)C#C	O[C@H]1C[C@@H](O[C]1[NH])C#C	
InChI=1S/C6H7NO2/c1-2-4-3-5(8)6(7)9-4/h1,4-5,7-8H,3H2	InChI=1S/C6H7NO2/c1-2-4-3-5(8)6(7)9-4/h1,4-5,7-8H,3H2/t4-,5-/m0/s1
