23
gdb 88988	3.59881	0.79482	0.77654	1.5755	87.64	-0.2212	0.0831	0.3043	1618.0752	0.204787	-384.399854	-384.389879	-384.388934	-384.435381	36.865	
C	 2.1541005751	-0.8161706567	-0.1569439121	-0.310224
N	 0.7343040311	-0.5993491782	 0.0755045952	-0.090946
C	 0.0196508245	-1.5764968487	 0.8881956486	-0.248391
C	 0.2550020972	-0.1925264236	 1.396587756	 0.029032
C	 1.1642293778	 0.0645391752	 2.5861152244	-0.267019
C	 0.4032630287	-0.0122352279	 3.8981866055	 0.034941
C	 0.8753364112	 0.7138559873	 5.1126192794	-0.266181
N	-0.3743394724	 1.0934029169	 4.4653701318	-0.076717
C	-0.4223796274	 2.3849773637	 3.7980847018	-0.315235
H	 2.6838587349	-1.3389581885	 0.6547860227	 0.098907
H	 2.2684519588	-1.4155176583	-1.0659845859	 0.123801
H	 2.6479173298	 0.1466056064	-0.3250723059	 0.121128
H	-0.956430608	-1.8866019317	 0.5236785708	 0.113994
H	 0.6029064021	-2.3735570873	 1.3511171261	 0.10077
H	-0.5780225865	 0.5070781823	 1.3336856655	 0.093464
H	 1.9677717951	-0.6787742243	 2.6224498999	 0.104359
H	 1.6514034608	 1.0402321837	 2.4803371027	 0.102633
H	-0.0868142981	-0.9744660881	 4.0468388111	 0.090111
H	 0.7927041007	 0.2708359381	 6.1021249584	 0.111912
H	 1.7341535556	 1.3737179075	 4.983552652	 0.100996
H	 0.5268174461	 2.7102783944	 3.3435073911	 0.09954
H	-1.1885297412	 2.3649190813	 3.0160354914	 0.124837
H	-0.7124532358	 3.1430496267	 4.5329246994	 0.124288
44.7346	77.6737	115.695	177.1528	203.4503	216.371	287.288	311.7779	349.9903	404.0376	452.6572	479.4029	534.0139	736.6428	747.7622	790.5636	853.4775	894.9443	915.8735	953.4494	1030.6109	1038.272	1050.0598	1079.5357	1112.2815	1115.1341	1130.3528	1132.4641	1151.4389	1161.2388	1174.2782	1188.2528	1202.3296	1206.1451	1250.1367	1309.2314	1340.6586	1342.5099	1421.7943	1424.0321	1447.7241	1450.0026	1476.7323	1488.2487	1490.9784	1501.4327	1504.5982	1512.8021	1516.05	2971.8321	2976.1403	3044.0335	3062.0553	3063.8637	3076.4247	3078.4541	3078.8347	3097.3442	3098.4694	3103.9399	3109.8031	3165.8527	3167.6382
CN1CC1CC1CN1C	CN1C[C@H]1C[C@H]1CN1C	
InChI=1S/C7H14N2/c1-8-4-6(8)3-7-5-9(7)2/h6-7H,3-5H2,1-2H3	InChI=1S/C7H14N2/c1-8-4-6(8)3-7-5-9(7)2/h6-7H,3-5H2,1-2H3/t6-,7+,8?,9?
