16
gdb 44600	2.9953	1.94585	1.54848	2.8994	67.89	-0.241	0.0176	0.2586	872.0171	0.127379	-437.879217	-437.872934	-437.87199	-437.9099	25.573	
N	-0.0430280803	 1.2095394218	 0.30421212	-0.541676
C	-0.0055152125	-0.0059798609	-0.0246427471	 0.425853
O	 1.1342690533	-0.7052409792	-0.3321608649	-0.229372
C	 0.7959259745	-1.9985760934	-0.7863628287	 0.042654
C	 0.0559553347	-2.9364205107	 0.1529241555	 0.064009
O	-0.2537788674	-2.4827797169	 1.4421995951	-0.257222
C	-1.3554769036	-1.5724785244	 1.3349420947	-0.077124
C	-1.1998722221	-0.9489118795	-0.066632853	-0.162947
C	-0.6975025843	-2.1475156244	-0.8901761669	-0.169906
H	 0.8939249404	 1.6157413081	 0.3063460455	 0.226909
H	 1.4979551566	-2.38048615	-1.5171400717	 0.114762
H	 0.2273152406	-4.005060092	 0.0773825305	 0.108581
H	-2.3099194775	-2.1121957993	 1.4186084746	 0.100127
H	-1.2758885801	-0.8413715058	 2.1423102886	 0.137966
H	-2.1001072593	-0.4585173882	-0.4321705135	 0.111311
H	-1.237367933	-2.5515496151	-1.7356870885	 0.106076
113.7834	241.1928	281.0521	428.3769	528.299	586.6637	664.6015	737.2375	750.7346	768.3978	786.0333	797.4584	849.0071	893.7613	932.85	944.0071	969.9133	1000.426	1030.3593	1052.9162	1070.2626	1089.1657	1106.1292	1115.1444	1179.6606	1210.1454	1235.4442	1250.0369	1272.5713	1291.3569	1351.5373	1375.2836	1412.2819	1512.1072	1783.1272	3001.2545	3114.8482	3141.6917	3168.1283	3193.0266	3205.0244	3477.6801
N=C1OC2C3OCC1C23	[NH][C]1O[C@H]2[C@H]3OC[C@@H]1[C@@H]23	
InChI=1S/C6H7NO2/c7-6-2-1-8-4-3(2)5(4)9-6/h2-5,7H,1H2	InChI=1S/C6H7NO2/c7-6-2-1-8-4-3(2)5(4)9-6/h2-5,7H,1H2/t2-,3-,4+,5-/m1/s1
