20
gdb 95121	2.45982	1.53989	1.12352	2.4992	80.01	-0.247	-0.0318	0.2151	1140.7332	0.171862	-403.160733	-403.152269	-403.151325	-403.193582	32.514	
C	-0.0272391569	 1.6045518535	-0.188835285	-0.408352
C	 0.0055643867	 0.0806159964	-0.0494399824	-0.049897
C	 0.7802965277	-0.6270507509	-1.193222672	-0.227047
C	 1.3096292511	-1.9518046307	-0.6007448778	-0.223405
C	 1.506643629	-1.6490451934	 0.8730408269	-0.057709
N	 2.176395842	-0.3822261125	 1.1459498575	-0.371012
C	 0.6998892581	-0.4191803447	 1.210216818	 0.256449
C	 0.0740358324	-0.352360514	 2.5478920368	 0.060863
O	 0.6893150325	-0.4712645877	 3.584679422	-0.282425
H	 0.9878753675	 2.0103070178	-0.1371058574	 0.135689
H	-0.4652113327	 1.9007886131	-1.1474966068	 0.115127
H	-0.6204357311	 2.071363944	 0.6047731716	 0.111867
H	-1.0257406178	-0.3007330859	-0.0214252445	 0.072498
H	 0.1579282374	-0.78063555	-2.0785631936	 0.097617
H	 1.6229880753	 0.0032272274	-1.488609044	 0.12319
H	 0.5720289254	-2.7569111197	-0.699178419	 0.10372
H	 2.231579425	-2.288942554	-1.0851078181	 0.11191
H	 1.598011821	-2.4516325675	 1.5988339647	 0.104714
H	 2.5067491631	-0.3896595785	 2.1120636186	 0.248225
H	-1.0265619559	-0.1939418327	 2.5481391245	 0.077978
113.3496	139.7946	202.8263	229.9842	236.1183	254.6219	328.9798	419.1776	463.6208	525.6524	621.3741	648.3477	755.4865	823.8466	844.8672	871.99	920.4597	930.4351	965.0189	991.7711	1005.9671	1049.678	1070.7672	1103.8028	1128.8824	1135.1739	1153.9475	1214.015	1245.847	1272.0927	1291.7476	1320.6802	1343.9335	1353.6608	1376.1717	1406.024	1424.2104	1430.5957	1480.9631	1493.7492	1498.3321	1502.0188	1789.2496	2893.6262	2999.758	3032.4244	3039.8977	3066.0611	3082.8421	3097.4358	3109.6437	3114.0014	3161.7903	3462.1558
CC1CCC2NC12C=O	C[C@H]1CC[C@H]2N[C@@]12C=O	
InChI=1S/C7H11NO/c1-5-2-3-6-7(5,4-9)8-6/h4-6,8H,2-3H2,1H3	InChI=1S/C7H11NO/c1-5-2-3-6-7(5,4-9)8-6/h4-6,8H,2-3H2,1H3/t5-,6+,7-/m0/s1
