19
gdb 37487	3.79255	1.90895	1.63922	1.0862	85.3	-0.1949	-0.024	0.171	874.1156	0.162407	-348.655635	-348.649757	-348.648812	-348.685298	26.616	
C	-0.0862609917	 1.5530873541	-0.0577095152	-0.253643
C	 1.4371731593	 1.4541593859	 0.0919073243	-0.02805
C	 1.3496456161	 0.0362739948	 0.7416977149	-0.058724
C	 2.5999410504	-0.4363450422	-0.1323134243	-0.008973
C	 2.5982773649	-1.7401490997	-0.9893125746	-0.269807
C	 1.202841377	-1.5989455271	-1.6001557761	-0.156598
C	 0.8063487991	-0.3286162001	-1.3826364712	 0.131157
C	-0.0332496604	 0.0164857415	-0.1889892971	-0.080054
C	 2.0085051316	 0.6157634396	-1.0905197086	-0.084371
H	-0.5609986508	 1.8745128755	 0.8747284957	 0.094846
H	-0.505152077	 2.1152802716	-0.8981193444	 0.094239
H	 2.0593656059	 2.2536085159	 0.4927082082	 0.063609
H	 1.2381805955	-0.1533743453	 1.8102392191	 0.068419
H	 3.5379921385	-0.1893183135	 0.3796632143	 0.057576
H	 3.4665830325	-1.7363860669	-1.6645620437	 0.104256
H	 2.6466506707	-2.677651329	-0.4222034327	 0.103757
H	 0.5099341019	-2.4351954827	-1.5820137866	 0.087452
H	-0.8695396528	-0.6298295414	 0.0748194672	 0.071339
H	 2.5523616393	 1.0393009591	-1.9350206492	 0.06357
270.6747	369.3876	400.9462	424.0656	556.9248	626.123	667.3999	688.6257	768.5231	783.8759	819.5609	847.7308	856.4828	864.2637	879.1512	920.776	934.1648	951.8086	986.6688	988.8153	1002.6815	1030.7692	1035.1744	1073.4056	1105.5054	1130.3537	1137.492	1160.0348	1180.0219	1206.2288	1221.1135	1238.3503	1255.2071	1265.5255	1272.5668	1294.4028	1309.055	1344.7182	1471.336	1495.2115	1603.2742	2994.3881	3040.6853	3043.2402	3052.4022	3096.6503	3103.1888	3107.8152	3122.2575	3128.2332	3161.0905
C1C2C3C4CC=C(C13)C24	C1[C@H]2[C@@H]3[C@H]4C[CH][C]([C@H]13)[C@@H]24	
InChI=1S/C9H10/c1-2-5-8-4(1)6-3-7(8)9(5)6/h1,5-9H,2-3H2	InChI=1S/C9H10/c1-2-5-8-4(1)6-3-7(8)9(5)6/h1,5-9H,2-3H2/t5-,6-,7+,8+,9+/m0/s1
