19
gdb 70363	2.68893	1.8079	1.38777	2.8729	73.71	-0.2367	0.0683	0.305	992.4438	0.160273	-423.00486	-422.997324	-422.996379	-423.036559	29.919	
C	-0.2950720149	 1.3925627102	 0.1331258647	-0.501578
C	 0.1547299057	-0.0270707677	-0.0713171096	 0.407587
O	-0.4259750906	-1.0124129087	 0.8005730057	-0.288288
C	 0.9893014868	-0.8090566717	 0.866658247	-0.014001
C	 1.7736260238	-1.8879448177	 0.1414845151	-0.272286
C	 1.2356182123	-1.8606361203	-1.3020911215	-0.080521
C	-0.0687604917	-2.6057235512	-1.6741718656	-0.077324
O	-0.7496867942	-1.3637905098	-1.9735286837	-0.288903
C	 0.3614474217	-0.5922700887	-1.4764064502	 0.05388
H	 0.3968805742	 2.0938335873	-0.3454001767	 0.120502
H	-1.2862525143	 1.544099705	-0.3076137164	 0.140334
H	-0.3553319038	 1.6309117396	 1.197967297	 0.129214
H	 1.3565414832	-0.3930429247	 1.8034445484	 0.08992
H	 2.8431790569	-1.6493811682	 0.1665185177	 0.104136
H	 1.6478752863	-2.8652086346	 0.6208157243	 0.115268
H	 2.0244085947	-1.9897206396	-2.043780053	 0.083431
H	-0.0155952744	-3.2538042722	-2.5566114212	 0.096298
H	-0.5458348572	-3.1419065113	-0.8471697899	 0.112095
H	 0.6712667255	 0.1826300143	-2.1870816021	 0.070237
140.0517	185.0337	210.3028	257.059	293.4226	362.6933	431.0333	523.7827	578.3608	687.7364	731.6949	764.3892	846.1994	868.6593	880.9724	890.9134	949.9354	972.088	1004.5034	1019.3938	1030.3245	1043.1779	1093.7823	1106.9967	1124.6623	1163.3639	1211.351	1212.0746	1242.9148	1268.2011	1295.1196	1319.0575	1333.1915	1349.5649	1371.9563	1410.5694	1454.689	1476.9273	1484.952	1496.1532	1513.3598	3025.4499	3034.8839	3037.8093	3042.5686	3076.4238	3077.4833	3099.8169	3106.1277	3122.2002	3128.3562
CC12OC1CC1COC21	C[C@]12O[C@H]1C[C@H]1CO[C@@H]21	
InChI=1S/C7H10O2/c1-7-5(9-7)2-4-3-8-6(4)7/h4-6H,2-3H2,1H3	InChI=1S/C7H10O2/c1-7-5(9-7)2-4-3-8-6(4)7/h4-6H,2-3H2,1H3/t4-,5-,6+,7-/m0/s1
