24
gdb 121496	4.02798	0.5664	0.54031	2.8624	91.63	-0.2386	0.0326	0.2711	2213.9627	0.214248	-405.559042	-405.547516	-405.546571	-405.596756	40.677	
C	-0.1893190205	 1.4170328944	 0.3720854762	-0.389047
C	-0.6705021544	 0.0087645935	 0.734006935	-0.180258
C	-1.1130942676	-0.7747778735	-0.5095324837	-0.109688
N	-1.5936807652	-2.1372984056	-0.3626293055	-0.241378
C	-1.6729045883	-2.6754787066	 0.7704701276	 0.123297
O	-2.1617476499	-3.9287375386	 0.8924998917	-0.215235
C	-2.0556189898	-4.5454608074	 2.18618898	 0.126561
C	-3.2023321502	-5.5425594448	 2.2878449055	-0.386737
C	-0.6826705486	-5.1963184459	 2.3437912861	-0.381597
H	 0.1240630065	 1.9725133837	 1.2611614709	 0.112285
H	 0.6634628668	 1.3800345722	-0.3147088463	 0.117655
H	-0.9824508206	 1.9928109615	-0.1175256979	 0.117858
H	 0.1352236133	-0.5319335068	 1.2474229696	 0.096622
H	-1.5027547991	 0.0794679047	 1.4462511297	 0.097808
H	-1.9031618804	-0.2078013349	-1.0227315786	 0.107613
H	-0.2784221214	-0.8049255678	-1.2244811827	 0.1072
H	-1.395050162	-2.2161814832	 1.728633286	 0.07356
H	-2.1818086877	-3.7683983577	 2.9548952836	 0.079907
H	-3.1099439694	-6.3080273766	 1.5115111455	 0.131566
H	-3.1937509783	-6.0361249417	 3.2640415928	 0.116098
H	-4.1630736271	-5.0377693337	 2.1589557402	 0.127086
H	 0.1162458423	-4.4533889042	 2.259584728	 0.119263
H	-0.5962699891	-5.681337378	 3.3212321954	 0.117184
H	-0.5305176794	-5.950220713	 1.5654029707	 0.132377
41.1314	63.937	93.9837	105.5618	166.0932	209.3141	220.1129	239.3029	263.7836	279.9719	287.3831	348.4467	419.2905	463.8524	499.3721	630.9951	749.2698	852.3432	882.8827	895.0775	929.4443	945.4692	963.1907	990.2564	1027.3234	1071.3002	1116.1572	1148.7366	1161.8084	1164.5472	1199.6325	1248.083	1282.9934	1321.8406	1327.4927	1366.0854	1372.8949	1396.4391	1402.2467	1413.4237	1418.4309	1433.1896	1479.2269	1482.1949	1485.787	1493.1414	1493.6398	1501.5913	1509.1595	1510.5578	1775.5025	2991.3284	3000.1973	3015.0732	3018.7049	3029.5601	3031.505	3038.1361	3045.9885	3053.2265	3098.0267	3103.609	3111.2397	3115.4385	3121.9748	3126.1177
CCCN=COC(C)C	CCCN=COC(C)C	
InChI=1S/C7H15NO/c1-4-5-8-6-9-7(2)3/h6-7H,4-5H2,1-3H3	InChI=1S/C7H15NO/c1-4-5-8-6-9-7(2)3/h6-7H,4-5H2,1-3H3
