17
gdb 71270	2.53364	2.10088	1.44114	3.3724	70.91	-0.235	-0.021	0.214	924.9823	0.135812	-421.815504	-421.808149	-421.807204	-421.847085	29.169	
C	-0.0425292276	 1.510786859	-0.0109652483	-0.494378
C	-0.1042153785	 0.0157331402	 0.0710693855	 0.308196
O	 0.3012595966	-0.6641064326	-1.1817017853	-0.335343
C	-0.8447151528	-1.5102711411	-1.0782332439	 0.101041
C	-0.8872532006	-2.1857915409	 0.2740751472	-0.096864
C	 0.3841425542	-2.1643633705	 1.1029548895	-0.350958
C	 0.8017080722	-0.6829290304	 1.1012433523	 0.415459
O	 1.6729490424	-0.1714258013	 1.7514567815	-0.324235
C	-1.4306385894	-0.7716625502	 0.0870737067	-0.213485
H	 0.9958855255	 1.8339363509	-0.1244468722	 0.147118
H	-0.6288072191	 1.8787361537	-0.8563673611	 0.127284
H	-0.4321914898	 1.9521517175	 0.9119240631	 0.129964
H	-1.266458024	-1.9089073733	-1.9933492816	 0.109863
H	-1.6041877109	-2.9896829647	 0.3953145242	 0.098902
H	 0.1981599655	-2.4839077533	 2.1334338911	 0.132354
H	 1.1968994961	-2.7810703598	 0.7074218016	 0.140042
H	-2.4241492699	-0.4121403931	 0.3150524597	 0.105042
106.0718	176.78	236.9659	299.6307	317.6847	422.42	505.0865	540.0442	628.0601	640.4787	729.7494	750.0095	802.8569	826.058	836.8351	854.0491	931.7304	980.5175	1007.6013	1013.7502	1045.0679	1054.0455	1066.296	1098.9559	1113.4718	1180.6756	1201.7652	1220.1726	1273.8442	1307.876	1341.2829	1394.7688	1413.641	1451.191	1477.5171	1481.1486	1852.6697	3046.2284	3056.7771	3098.9396	3118.0001	3131.6603	3180.563	3187.8218	3213.6594
CC12OC3C(CC1=O)C23	C[C@@]12O[C@H]3[C@@H](CC1=O)[C@@H]23	
InChI=1S/C7H8O2/c1-7-4(8)2-3-5(7)6(3)9-7/h3,5-6H,2H2,1H3	InChI=1S/C7H8O2/c1-7-4(8)2-3-5(7)6(3)9-7/h3,5-6H,2H2,1H3/t3-,5+,6-,7+/m0/s1
