19
gdb 78836	3.20564	1.26758	1.07063	3.3451	79.8	-0.2385	-0.0153	0.2232	1167.2541	0.159163	-385.849316	-385.841385	-385.840441	-385.881905	30.75	
C	 0.076040935	 1.6008709224	 0.0738400814	-0.424725
C	 0.1307568606	 0.0803736532	 0.0175580665	 0.027281
C	 0.7870940917	-0.6553606445	-1.1507060394	-0.093652
C	 2.2785549774	-0.832429459	-0.8184067753	-0.075288
C	 1.2404797356	-1.7818139458	-0.2612063194	-0.086407
C	 1.106815108	-0.7392594046	 0.9208232387	-0.095855
C	 2.5376162585	-0.2084481222	 0.5575462874	-0.10038
C	 3.5949347399	-0.9614043922	 1.3148942253	 0.161982
O	 4.5018830349	-0.449883172	 1.9226380625	-0.266718
H	 1.0479927103	 2.0588487209	-0.1280703679	 0.124964
H	-0.6285406903	 1.9844666873	-0.6721566902	 0.117339
H	-0.2638588502	 1.9462034406	 1.0566624287	 0.118057
H	-0.8737455653	-0.3336475165	 0.1651919947	 0.077783
H	 0.4512966008	-0.7213079474	-2.1781374075	 0.089636
H	 3.0053868432	-1.0243191917	-1.5972440376	 0.096472
H	 1.1213851021	-2.8524778477	-0.3290165847	 0.098082
H	 0.8552539413	-0.9570659989	 1.957094627	 0.080315
H	 2.7315064906	 0.8636394308	 0.6428008457	 0.081159
H	 3.4787970457	-2.0698941828	 1.280576224	 0.069951
88.7852	143.542	179.4224	224.595	275.1234	322.609	436.4315	518.104	563.3305	680.6918	772.6358	791.2468	794.4259	820.0411	876.904	892.7406	902.8534	976.3384	1000.0978	1024.0683	1031.3525	1036.204	1047.6899	1064.7849	1111.1783	1124.1279	1137.9013	1160.052	1172.5203	1200.361	1239.9579	1255.9724	1283.526	1330.4944	1356.1073	1388.6773	1410.5286	1429.2552	1491.3992	1499.7614	1825.644	2860.1456	3032.1922	3038.004	3084.2184	3093.7202	3115.9882	3134.4404	3191.1516	3200.3307	3232.7813
CC1C2C3C2C1C3C=O	C[C@H]1[C@H]2[C@@H]3[C@H]2[C@H]1[C@H]3C=O	
InChI=1S/C8H10O/c1-3-5-4(2-9)7-6(3)8(5)7/h2-8H,1H3	InChI=1S/C8H10O/c1-3-5-4(2-9)7-6(3)8(5)7/h2-8H,1H3/t3-,4-,5-,6+,7-,8+/m1/s1
