18
gdb 133694	2.27581	1.35662	1.14854	2.2477	64.93	-0.2857	0.0711	0.3568	1138.092	0.142916	-533.456031	-533.446583	-533.445639	-533.491607	34.067	
C	-0.3081481597	 1.4881398813	-0.0511467233	-0.418627
C	 0.0274831205	 0.0133646954	 0.0398907663	-0.03088
C	 1.4000077319	-0.5573208589	-0.247673	-0.03088
C	 2.5926391551	 0.2820328653	-0.6587788974	-0.418636
C	 0.837078785	-0.6122017072	 1.1598928448	-0.197586
C	 1.3958113023	 0.143262552	 2.3267706591	 0.279412
F	 1.8462103495	 1.3765437067	 2.0307991134	-0.083197
F	 0.4678619641	 0.2903195048	 3.290510168	-0.079664
F	 2.4260463325	-0.5233741819	 2.8796954979	-0.07967
H	 0.5162672957	 2.1332711788	 0.2498044136	 0.135692
H	-0.5839095139	 1.7451779085	-1.079358967	 0.11817
H	-1.1627156759	 1.7270094043	 0.5907442155	 0.126197
H	-0.7972800909	-0.618849975	-0.28025574	 0.093517
H	 1.3885788791	-1.5276959779	-0.7382473691	 0.093513
H	 2.6066880251	 1.2640153555	-0.1876623371	 0.135698
H	 3.5269824027	-0.2231240802	-0.3919688305	 0.1262
H	 2.5916141209	 0.4251688904	-1.7445245018	 0.118168
H	 0.504167316	-1.5865989819	 1.5047054976	 0.11257
17.4919	106.4406	140.155	195.3276	206.1886	243.5917	288.8721	302.5072	436.2656	451.1437	503.614	530.4498	621.7411	687.6914	768.8909	769.5552	801.65	960.624	963.4527	980.1261	1052.7724	1075.7059	1113.2868	1142.2358	1163.1855	1170.2255	1171.1644	1196.9215	1245.8981	1305.0362	1382.8213	1416.2834	1419.3311	1426.9936	1462.4617	1490.9583	1494.036	1506.4115	1516.9225	3040.5789	3042.8902	3094.1283	3095.4011	3122.8048	3132.3093	3154.5171	3157.4856	3164.2552
CC1C(C)C1C(F)(F)F	C[C@H]1[C@@H](C)[C@H]1C(F)(F)F	
InChI=1S/C6H9F3/c1-3-4(2)5(3)6(7,8)9/h3-5H,1-2H3	InChI=1S/C6H9F3/c1-3-4(2)5(3)6(7,8)9/h3-5H,1-2H3/t3-,4+,5-
