18
gdb 102154	2.45484	1.18638	0.89037	3.1975	74.96	-0.24	0.0207	0.2606	1318.4416	0.144703	-439.072045	-439.061839	-439.060895	-439.107665	36.604	
C	 0.1717882442	 1.5042760428	 0.9838808339	-0.247472
O	 0.3600144373	 0.2383332264	 0.3756632299	-0.227148
C	-0.8014552224	-0.3436056729	-0.1415298288	 0.020804
C	-0.3152258456	-1.5503893853	-0.9831944738	-0.36474
C	-1.3230932548	-2.1073119464	-1.874966856	 0.288009
C	-2.1618026792	-2.5448908543	-2.6184909161	-0.448129
C	-1.7735441324	-0.7900157017	 0.9799988125	 0.356117
N	-3.0205043226	-1.136955425	 0.5421398221	-0.516065
O	-1.4529475445	-0.7945771158	 2.1506357713	-0.350768
H	 1.1647321381	 1.8692296978	 1.2554167394	 0.128523
H	-0.2871045645	 2.2168602104	 0.2807051519	 0.099242
H	-0.4459133482	 1.4301653945	 1.8841772453	 0.141433
H	-1.3324283495	 0.3606379326	-0.804253863	 0.088364
H	 0.5389898819	-1.1934135807	-1.5685079281	 0.151872
H	 0.0690440739	-2.3207425217	-0.3046076406	 0.154465
H	-2.8794780532	-2.949494286	-3.2891145157	 0.204946
H	-3.1690791205	-1.3646834729	-0.4297579791	 0.262476
H	-3.624774278	-1.5764967919	 1.219869255	 0.258071
42.1739	86.7949	128.7224	147.5779	198.5525	219.9683	273.9653	301.4864	351.9467	427.683	439.5758	460.1747	507.3729	566.469	624.2972	647.3438	658.362	740.6466	771.1763	953.933	984.0178	1029.9687	1062.7777	1117.09	1165.0098	1177.0182	1196.8564	1232.4309	1286.184	1313.2977	1348.0361	1405.7863	1471.0534	1478.7573	1482.6272	1515.7446	1629.0117	1804.7676	2231.7735	2963.1984	2985.7513	3042.6961	3082.2782	3082.3985	3128.2223	3501.1065	3560.8657	3690.541
COC(CC#C)C(N)=O	CO[C@@H](CC#C)C(=O)N	
InChI=1S/C6H9NO2/c1-3-4-5(9-2)6(7)8/h1,5H,4H2,2H3,(H2,7,8)	InChI=1S/C6H9NO2/c1-3-4-5(9-2)6(7)8/h1,5H,4H2,2H3,(H2,7,8)/t5-/m0/s1
