25
gdb 100946	2.27815	0.99171	0.73998	1.1744	85.62	-0.2439	0.0765	0.3203	1626.3867	0.225823	-426.61758	-426.605666	-426.604722	-426.655036	42.483	
C	 0.2812451494	 0.9881114811	 0.8310547315	-0.391356
C	 0.0315555281	-0.3714845025	 0.1736917116	-0.175613
C	 0.5356928981	-0.4588156835	-1.2731808673	 0.109201
O	 1.9358657259	-0.1551950944	-1.2929720046	-0.254653
C	 2.2901737343	 1.020193076	-1.9871089938	-0.240143
C	 0.3276782167	-1.851259926	-1.9035031417	 0.008388
C	-1.136451981	-2.3109789242	-1.8836728163	-0.406667
C	 0.8759735434	-1.8889661396	-3.3401814296	-0.078178
O	 0.7966787018	-3.1801097568	-3.9316129223	-0.420129
H	 1.3497257974	 1.2171188278	 0.8568975413	 0.129324
H	-0.2277351804	 1.7941524493	 0.2899330747	 0.108316
H	-0.0899845002	 0.9971937999	 1.8603975545	 0.11065
H	 0.5272864888	-1.1581791332	 0.7568984912	 0.099492
H	-1.0402798608	-0.5944387842	 0.1902251818	 0.099931
H	-0.0041801265	 0.2853427242	-1.8819627979	 0.063471
H	 3.3764794205	 1.1223081863	-1.9108615313	 0.123764
H	 2.0186620142	 0.9702958358	-3.0525128802	 0.104812
H	 1.8237891923	 1.9169092241	-1.5545442472	 0.107404
H	 0.9304877611	-2.555523371	-1.3093106089	 0.06708
H	-1.7951314032	-1.5446926385	-2.3113444645	 0.108573
H	-1.2408173536	-3.2136722475	-2.4903371845	 0.130532
H	-1.4905677829	-2.5334947884	-0.8741847369	 0.113436
H	 0.2737877171	-1.2367478538	-3.9851613325	 0.100133
H	 1.9067944704	-1.5149813934	-3.3514215849	 0.101674
H	 1.4069929193	-3.7540644877	-3.4574866123	 0.280558
52.3189	74.2456	104.5255	125.2562	153.9881	169.7022	221.9152	249.8994	265.4935	278.5572	306.5603	327.8932	345.058	392.9471	442.4913	496.1913	579.37	766.7977	864.8382	874.9451	912.1768	940.7867	951.7448	1031.8797	1050.8283	1076.3973	1114.3305	1124.7371	1133.4375	1146.4446	1167.2715	1182.4937	1213.338	1236.4805	1276.4094	1312.7789	1336.8438	1353.2699	1380.4859	1389.6798	1396.5062	1404.6642	1406.8275	1416.973	1477.6948	1481.7644	1487.7544	1495.6355	1499.5545	1504.5781	1509.7187	1512.8175	1518.4761	2962.3154	2982.2406	2990.6226	3019.2203	3029.2427	3030.4396	3030.5393	3034.9433	3066.0166	3076.9408	3098.1035	3101.4779	3103.6733	3121.0539	3126.6559	3813.5426
CCC(OC)C(C)CO	CC[C@@H](OC)[C@@H](C)CO	
InChI=1S/C7H16O2/c1-4-7(9-3)6(2)5-8/h6-8H,4-5H2,1-3H3	InChI=1S/C7H16O2/c1-4-7(9-3)6(2)5-8/h6-8H,4-5H2,1-3H3/t6-,7+/m0/s1
