19
gdb 41808	2.3354	2.0695	1.56128	0.6228	74.95	-0.235	0.0037	0.2386	935.3553	0.162233	-423.021877	-423.014762	-423.013818	-423.053255	28.829	
C	 0.038872264	 1.6327927229	-0.0511141546	-0.105239
O	 1.4000491023	 1.9851122983	-0.2880196481	-0.281181
C	 2.1684137865	 0.8057456303	-0.6235671717	 0.057559
C	 1.1155628922	-0.2708328745	-0.9331750413	-0.250201
C	-0.0000328067	 0.1063078832	 0.0546026112	 0.107895
O	 0.2159589103	-0.4183618719	 1.3582771572	-0.274616
C	 1.189611948	 0.1748632943	 2.2077012605	-0.126372
C	 2.6327381547	 0.141782565	 1.7518325661	-0.068734
C	 3.0734745882	 0.415895818	 0.5255907503	-0.054786
H	-0.314485385	 2.1316336237	 0.8579532538	 0.110865
H	-0.591920116	 1.9650384443	-0.8889331605	 0.094539
H	 2.7725195249	 1.0567995463	-1.5006585298	 0.075876
H	 0.7487642997	-0.1648378347	-1.9598996419	 0.10137
H	 1.4756338725	-1.2889226183	-0.7840546215	 0.115327
H	-0.9724547063	-0.2945648716	-0.2428335573	 0.085848
H	 0.9191177937	 1.217406819	 2.4421763004	 0.115007
H	 1.0961555501	-0.3867764053	 3.1417595402	 0.113947
H	 3.3538144318	-0.0885829481	 2.5329864474	 0.094124
H	 4.1400117351	 0.374284979	 0.3208318197	 0.088772
99.8521	215.5752	262.2186	321.6494	382.4658	421.2912	455.4936	560.6623	673.1078	709.6244	766.8581	807.5799	831.8408	846.1817	883.1906	911.56	937.165	966.3982	988.1241	1011.6523	1034.5171	1045.4013	1079.378	1095.2323	1144.4517	1186.9322	1218.4091	1240.9463	1259.1658	1298.4631	1318.1415	1322.3858	1370.2316	1385.8084	1392.0976	1408.9165	1415.0814	1474.5556	1482.5881	1520.7187	1721.8322	2972.0883	2992.5611	3046.7028	3060.359	3062.9675	3078.345	3083.4821	3135.3005	3143.6985	3168.7774
C1OC2CC1OCC=C2	C1O[C@@H]2C[C@H]1OCC=C2	
InChI=1S/C7H10O2/c1-2-6-4-7(5-9-6)8-3-1/h1-2,6-7H,3-5H2	InChI=1S/C7H10O2/c1-2-6-4-7(5-9-6)8-3-1/h1-2,6-7H,3-5H2/t6-,7+/m0/s1
