21
gdb 61274	4.2634	0.69853	0.66443	2.7305	85.35	-0.2469	-0.0133	0.2336	1744.9962	0.177976	-387.088318	-387.077296	-387.076352	-387.12538	39.183	
C	-0.0264364208	 1.6621387477	 0.1702393361	-0.400871
C	 0.0012935762	 0.1392913332	-0.0037805344	 0.043786
C	 0.7884437312	-0.5504713479	 1.1379966043	-0.371362
C	 2.1894662889	-0.152632593	 1.2074697404	 0.300075
C	 3.3448367749	 0.1775611646	 1.2460116622	-0.438256
C	-1.4139038001	-0.4464993803	-0.0847723615	-0.314418
C	-2.1653658586	-0.1144044969	-1.3712246615	 0.379664
C	-3.6487682536	-0.4403850061	-1.3782326205	-0.472696
O	-1.6143079324	 0.3669050843	-2.3346316981	-0.292908
H	 0.9888545622	 2.062066447	 0.2334874752	 0.131672
H	-0.5299333173	 2.1379612815	-0.6741951541	 0.133776
H	-0.5545666112	 1.9414960589	 1.0908666495	 0.102197
H	 0.5066636742	-0.0878077437	-0.9483774964	 0.107023
H	 0.3010303725	-0.3323276633	 2.0988407709	 0.123984
H	 0.7334715341	-1.6397350962	 1.0106296493	 0.123711
H	 4.3660179571	 0.4651059917	 1.2869776999	 0.193741
H	-1.3824353039	-1.5454970275	-0.0263464709	 0.118822
H	-2.0233354984	-0.1332182514	 0.7746442624	 0.111419
H	-4.1769991574	 0.2425490589	-0.702133588	 0.142995
H	-4.0498957289	-0.3281123909	-2.3861532264	 0.143632
H	-3.8322156186	-1.4554032206	-1.0100611985	 0.134014
41.8084	57.146	101.331	113.6634	123.5065	196.5617	249.5152	278.7947	332.6231	351.1202	375.6417	422.8703	479.0564	530.3765	612.1515	615.1638	637.4592	807.9516	819.1143	850.7673	896.5899	942.0824	962.0055	984.1921	1000.648	1108.5796	1124.7153	1142.8751	1173.0768	1225.823	1266.135	1286.7345	1350.407	1367.5377	1380.6283	1390.2017	1410.7668	1445.7053	1463.7789	1471.8483	1477.0444	1498.3383	1509.5635	1810.7108	2236.7517	2998.7128	3006.4568	3027.7222	3032.7428	3036.0977	3037.6143	3066.4139	3096.5247	3105.3678	3132.5581	3151.9594	3506.9369
CC(CC#C)CC(C)=O	C[C@@H](CC#C)CC(=O)C	
InChI=1S/C8H12O/c1-4-5-7(2)6-8(3)9/h1,7H,5-6H2,2-3H3	InChI=1S/C8H12O/c1-4-5-7(2)6-8(3)9/h1,7H,5-6H2,2-3H3/t7-/m0/s1
