20
gdb 119939	2.27702	1.09316	0.89091	1.8574	82.72	-0.225	0.0337	0.2587	1410.0059	0.167675	-403.062906	-403.052536	-403.051592	-403.098847	36.838	
C	 1.9736931416	 0.3370573542	-1.8013144158	-0.225923
O	 1.3600586513	-0.7696232273	-1.1855675688	-0.233288
C	 0.0787725369	-1.0449181657	-1.7094198683	-0.08944
C	-0.4414085373	-2.2634780933	-0.9812905221	-0.020983
C	-1.4495894959	-2.1589567848	 0.1351203241	-0.208794
C	-1.9942200387	-0.8848023258	 0.5133110808	 0.357899
C	-2.4754848952	 0.1652213128	 0.851833065	-0.472142
N	-1.783709016	-2.7895966868	-1.1584502699	-0.115856
C	-2.7218704448	-2.1271110795	-2.0581260561	-0.316365
H	 2.954916339	 0.4655681634	-1.3382193087	 0.128535
H	 2.1087861901	 0.1797947991	-2.8836315127	 0.102911
H	 1.3897640198	 1.2601385893	-1.6599145501	 0.10664
H	-0.5873505622	-0.1801792147	-1.5790539978	 0.104615
H	 0.1443227243	-1.2555020718	-2.7920144673	 0.0881
H	 0.3224963395	-3.033018336	-0.8776654824	 0.105498
H	-1.3759803191	-2.8715994394	 0.9540503441	 0.11527
H	-2.8926265808	 1.0925276439	 1.1580616701	 0.200089
H	-2.7216974481	-1.0308431141	-2.0058468401	 0.11908
H	-2.4929282664	-2.4330210572	-3.083550617	 0.124599
H	-3.7314662181	-2.4745839863	-1.819740237	 0.129556
47.2332	85.3859	125.1781	154.8232	165.9311	175.9366	233.0931	272.9081	321.6834	358.9833	432.6923	503.9675	590.1514	595.6285	607.2048	660.7366	716.9745	843.3153	909.5765	977.5963	997.3316	1035.122	1107.1803	1133.1682	1145.463	1168.1256	1170.3663	1180.4702	1190.086	1233.0122	1266.9997	1326.9188	1352.3968	1382.3366	1447.7919	1454.7581	1480.9036	1485.8003	1487.5681	1502.1059	1506.2244	1528.4376	2227.7257	2944.7637	2969.5032	3010.2401	3013.4718	3021.9765	3084.	3108.2392	3115.2081	3115.604	3125.5374	3502.7927
COCC1C(C#C)N1C	COC[C@H]1[C@@H](C#C)N1C	
InChI=1S/C7H11NO/c1-4-6-7(5-9-3)8(6)2/h1,6-7H,5H2,2-3H3	InChI=1S/C7H11NO/c1-4-6-7(5-9-3)8(6)2/h1,6-7H,5H2,2-3H3/t6-,7+,8?/m1/s1
