17
gdb 105944	4.4771	1.33932	1.28698	1.9332	70.45	-0.2359	0.0772	0.3131	1013.1906	0.135867	-421.721084	-421.714058	-421.713114	-421.752667	27.831	
C	 0.0953096185	 1.338977678	-0.2233927131	-0.259396
O	-0.0043408117	-0.0220894719	 0.1705015079	-0.275255
C	-1.2764201248	-0.5059876984	 0.1388843083	 0.429438
C	-2.2135801281	-0.8614173002	-0.9985915347	-0.197263
C	-1.7370728268	-1.9241702974	 0.0281290591	-0.187328
C	-2.8821681595	-1.7446633331	 1.0633692869	 0.085729
O	-4.1142735078	-1.5619292607	 0.333084389	-0.292283
C	-3.4785574087	-0.3922658866	-0.2335810608	 0.086876
C	-2.5493920427	-0.215656733	 1.0138797653	-0.202169
H	 1.1528363437	 1.6058594882	-0.176896878	 0.131871
H	-0.2752678092	 1.4836505012	-1.2468237245	 0.116509
H	-0.4700970163	 1.9950294974	 0.4527196552	 0.115327
H	-2.0348016609	-0.9760878586	-2.0586286002	 0.097099
H	-1.1920924904	-2.8073471744	-0.2740740376	 0.100573
H	-2.9675208655	-2.3839503922	 1.9400992399	 0.084522
H	-4.1702598528	 0.332068195	-0.6601714935	 0.081399
H	-2.6980203769	 0.4919346567	 1.8250063007	 0.084351
93.6976	165.7817	173.7119	340.4787	390.0139	554.1951	570.3435	626.8524	744.9976	747.7722	790.6339	828.3951	839.4611	856.967	875.7153	903.0282	925.7394	957.2822	988.2462	1017.8451	1029.1713	1063.3419	1096.9999	1106.3656	1162.206	1163.8258	1179.2107	1202.6554	1205.3144	1219.5342	1257.3186	1270.9535	1306.0469	1432.9518	1486.2753	1504.347	1508.6051	2998.6924	3055.7316	3129.8209	3135.5828	3138.7157	3159.536	3212.3816	3221.7948
COC12C3C1C1OC3C21	CO[C@@]12[C@H]3[C@@H]1[C@@H]1O[C@H]3[C@H]21	
InChI=1S/C7H8O2/c1-8-7-2-3(7)6-4(7)5(2)9-6/h2-6H,1H3	InChI=1S/C7H8O2/c1-8-7-2-3(7)6-4(7)5(2)9-6/h2-6H,1H3/t2-,3+,4-,5+,6-,7-
