16
gdb 27897	1.9973	1.85549	0.96806	1.6825	76.2	-0.2288	-0.0026	0.2262	1167.8015	0.125905	-434.160089	-434.151784	-434.15084	-434.193533	31.258	
C	-0.0063467339	 1.4445506864	-0.011073204	-0.457209
C	 0.0347486535	-0.0590394196	 0.0031015653	 0.350162
N	 0.0971783343	-0.6669103988	-1.1891169625	-0.400108
C	 0.1359011677	-1.9989952565	-1.1636251985	 0.438382
O	 0.1960489003	-2.6304259664	-2.3492970966	-0.416493
C	 0.1162660174	-2.7473271385	 0.0040062935	-0.309277
C	 0.0509334634	-2.0079822878	 1.1879883284	 0.405872
N	 0.0664076886	-2.6034168936	 2.4192340702	-0.567401
N	 0.0060554399	-0.6607464087	 1.1894298822	-0.360829
H	 0.9104438523	 1.8412952529	-0.459530562	 0.137538
H	-0.8393202609	 1.7948212314	-0.6282565817	 0.135824
H	-0.1098295507	 1.8318113047	 1.0024961763	 0.13176
H	 0.2003974995	-1.9299278605	-3.0174315492	 0.297328
H	 0.1545848736	-3.828469611	-0.0167579674	 0.097828
H	-0.190795753	-3.5733263998	 2.4910997401	 0.256671
H	-0.1986609821	-2.009316294	 3.188636686	 0.259953
34.7189	181.4689	201.5253	231.4808	296.9787	335.5263	388.095	474.8786	512.5651	556.0392	559.0709	570.1119	628.8773	635.071	721.2927	787.6841	844.2445	973.55	994.7009	1012.1799	1063.111	1085.1583	1109.9368	1194.9079	1262.9742	1328.8813	1390.3532	1444.6813	1460.3881	1479.4049	1492.173	1502.2691	1611.4824	1637.9017	1665.6004	3047.2829	3104.5476	3156.3923	3212.6232	3597.5029	3720.5723	3757.5375
CC1=NC(O)=CC(N)=N1	Cc1nc(O)cc(N)n1	
InChI=1S/C5H7N3O/c1-3-7-4(6)2-5(9)8-3/h2H,1H3,(H3,6,7,8,9)	InChI=1S/C5H7N3O/c1-3-7-4(6)2-5(9)8-3/h2H,1H3,(H3,6,7,8,9)
