22
gdb 63681	4.2832	0.66006	0.63564	2.8841	85.25	-0.2318	-0.0209	0.2109	1826.0079	0.190617	-404.334918	-404.324268	-404.323324	-404.371645	37.934	
C	 0.1840593449	 1.4943953329	-0.4930517524	-0.456138
C	 0.0314858635	 0.0344291285	-0.1051703047	 0.333551
C	-1.2345609879	-0.61427796	-0.631278129	-0.434294
C	 1.2563253593	-0.8014471665	 0.0777566061	-0.294714
N	 0.424675262	-0.445819122	 1.2280322802	-0.108899
C	 0.9845483625	 0.4616863529	 2.2187756646	-0.15067
C	 1.6633168719	-0.3504355526	 3.3338219591	-0.265457
C	 2.0752198046	 0.5227809162	 4.4944513888	 0.154642
O	 3.1957448964	 0.6250631465	 4.9231288549	-0.236114
H	 1.1318474755	 1.9256790372	-0.1647047782	 0.120591
H	 0.1378302009	 1.595113121	-1.582590382	 0.124002
H	-0.6302230174	 2.0984717149	-0.0757245808	 0.120316
H	-1.25283178	-0.6031210709	-1.7269542527	 0.113174
H	-1.3063023825	-1.6493687419	-0.2898344523	 0.124683
H	-2.1226231791	-0.0784871045	-0.2764095477	 0.115041
H	 1.2642219006	-1.8525505963	-0.2010782599	 0.111009
H	 2.2195811178	-0.3010172417	-0.0232520623	 0.104927
H	 1.7138094121	 1.1756763811	 1.8030810743	 0.097677
H	 0.1624144171	 1.0520025878	 2.6436778324	 0.105875
H	 0.9384034077	-1.0902783724	 3.6989992183	 0.129437
H	 2.5416216372	-0.8826425379	 2.958422395	 0.122189
H	 1.2356254827	 1.0990089679	 4.9525476084	 0.069171
45.6865	62.7499	79.8832	132.4528	181.4204	199.8184	232.2041	277.7279	296.9379	366.9867	414.5454	459.7496	474.2003	538.4439	703.9848	775.3188	797.5638	868.827	899.2351	920.5664	959.65	996.7348	1015.6204	1026.9304	1078.813	1093.9198	1122.1513	1142.8447	1149.339	1202.243	1228.7645	1267.901	1290.8588	1319.7096	1381.638	1389.839	1411.9378	1421.9632	1431.1956	1465.5823	1479.0236	1485.7852	1494.9404	1500.2979	1507.1297	1519.0438	1835.9249	2843.9183	2965.0284	3027.2888	3030.2886	3033.8431	3038.8162	3081.1105	3086.8363	3091.6494	3107.2053	3124.2687	3125.8714	3167.0955
CC1(C)CN1CCC=O	CC1(C)CN1CCC=O	
InChI=1S/C7H13NO/c1-7(2)6-8(7)4-3-5-9/h5H,3-4,6H2,1-2H3	InChI=1S/C7H13NO/c1-7(2)6-8(7)4-3-5-9/h5H,3-4,6H2,1-2H3
