19
gdb 72680	2.29246	1.47658	1.44637	1.9733	82.01	-0.2415	0.0416	0.2831	1063.8576	0.15734	-385.833083	-385.823974	-385.82303	-385.868066	34.522	
O	-0.001698893	 1.3875854189	-0.3339862024	-0.473347
C	 0.0270183545	 0.0251259999	-0.0392218892	 0.36566
C	 0.6288884173	-0.9335839093	-1.0998490096	-0.286779
C	-0.6862280213	-1.7676381382	-1.1042693013	-0.278236
C	-1.3291538329	-0.8039614311	-0.0549013865	 0.136098
C	-1.0443088767	-1.2292469227	 1.4220747425	-0.278248
C	 0.2690370667	-0.3927007052	 1.4349868969	-0.286603
C	-2.6136426504	-0.2375695519	-0.357609446	 0.206706
C	-3.6917627568	 0.2339519062	-0.6108210708	-0.408063
H	 0.8991309581	 1.7279882873	-0.2836718329	 0.277744
H	 0.8012302015	-0.4171053465	-2.0468323911	 0.108986
H	 1.5426996816	-1.4593727361	-0.8090500601	 0.092684
H	-1.2054927424	-1.756992553	-2.063213183	 0.117861
H	-0.5990993826	-2.8027473952	-0.7651645851	 0.101108
H	-1.7990231042	-0.8661875581	 2.1205980155	 0.117854
H	-0.9282155502	-2.3067600585	 1.5616598821	 0.101068
H	 1.1961964546	-0.9374366928	 1.6342874371	 0.092589
H	 0.2111635794	 0.4686816131	 2.1042126536	 0.109081
H	-4.6385264833	 0.658137753	-0.8354102999	 0.183838
14.0668	121.7492	126.887	170.9365	260.2848	342.4131	360.7805	396.4156	518.131	524.2123	584.3049	604.7792	612.8898	615.5419	686.5373	754.2244	760.069	891.2709	895.8948	922.4762	939.8123	961.704	1015.832	1016.7181	1083.03	1135.6925	1184.0208	1212.2317	1230.5505	1235.5324	1239.1307	1255.3492	1265.2983	1271.5818	1320.8517	1355.9681	1466.2515	1477.6108	1480.7521	1498.6811	2228.4105	3053.4128	3056.0232	3067.8648	3070.7306	3108.0027	3110.7114	3130.7751	3134.7078	3503.9365	3789.1722
OC12CCC1(CC2)C#C	O[C@]12CC[C@]1(CC2)C#C	
InChI=1S/C8H10O/c1-2-7-3-5-8(7,9)6-4-7/h1,9H,3-6H2	InChI=1S/C8H10O/c1-2-7-3-5-8(7,9)6-4-7/h1,9H,3-6H2/t7-,8-
