15
gdb 131216	4.03303	0.96707	0.8114	2.7058	72.53	-0.2206	0.0332	0.2538	1343.0936	0.11238	-416.791952	-416.783441	-416.782497	-416.8258	31.438	
O	 0.4888700515	 1.2509552977	 0.103866197	-0.428339
C	 0.2043197189	-0.0632274051	-0.0134439882	 0.464887
C	 0.6105962112	-1.0595691154	-0.8758857552	-0.440122
C	-0.0805656049	-2.2078856883	-0.4148978424	 0.374449
C	-0.0628896087	-3.5986324811	-0.9953918393	-0.450358
C	 1.2690796357	-4.0627761576	-1.3729769629	 0.309918
C	 2.3632251721	-4.437837394	-1.6987735299	-0.464301
N	-0.8446325316	-1.948015499	 0.6378795622	-0.301501
N	-0.6576375567	-0.6194842434	 0.8645380743	-0.254337
H	 1.116053582	 1.4931345747	-0.5843928797	 0.314889
H	 1.3050199742	-0.9835297589	-1.6960735832	 0.108436
H	-0.5080936069	-4.2761810452	-0.2586205922	 0.15227
H	-0.7145308271	-3.637782951	-1.8797055572	 0.142023
H	 3.3300004012	-4.7774596972	-1.9763143525	 0.194496
H	-1.118307771	-0.1661136163	 1.6347193794	 0.277588
36.8218	98.1937	207.2087	268.5002	281.5436	334.6292	352.7233	431.6658	455.5298	479.9781	613.7886	630.7942	647.9746	687.1501	702.452	753.1264	791.9611	940.4553	963.547	997.4567	1053.9858	1142.3214	1164.4585	1183.0195	1215.979	1326.4961	1352.9788	1438.9553	1459.8328	1494.5148	1570.0018	1627.5524	2241.3799	3009.8732	3070.1845	3267.5215	3506.9348	3681.9313	3845.5139
OC1=CC(CC#C)=NN1	Oc1cc(CC#C)n[nH]1	
InChI=1S/C6H6N2O/c1-2-3-5-4-6(9)8-7-5/h1,4H,3H2,(H2,7,8,9)	InChI=1S/C6H6N2O/c1-2-3-5-4-6(9)8-7-5/h1,4H,3H2,(H2,7,8,9)
