15
gdb 6451	4.68593	1.40826	1.30988	1.9213	61.85	-0.2719	0.0058	0.2777	933.8744	0.118033	-399.792012	-399.784305	-399.783361	-399.823801	29.152	
O	 0.1288950278	 1.4071442437	-0.1225533419	-0.4358
C	 0.0296589917	 0.0093282486	-0.0262061716	 0.143696
C	 0.2324533511	-0.5596340946	 1.4109736915	-0.269224
C	-1.3112170612	-0.5673442568	 1.5753560833	 0.239589
O	-1.6779608638	 0.6774148834	 2.1606894194	-0.461495
C	-1.4304612131	-0.539640853	 0.019874677	-0.291772
C	-1.9359933589	-1.686722436	 2.2860676086	 0.225873
N	-2.4477779148	-2.5699824288	 2.8285845923	-0.332028
H	-0.4012964623	 1.7808924084	 0.59299142	 0.287291
H	 0.6730868074	-0.4009278569	-0.805894446	 0.096565
H	 0.6446057417	-1.5703591185	 1.409005082	 0.129014
H	 0.7686269001	 0.0655157773	 2.1270159614	 0.130876
H	-2.6360191965	 0.7744052235	 2.0963065126	 0.296315
H	-2.2153385738	 0.1021125722	-0.3876012098	 0.113684
H	-1.5148225554	-1.5440789026	-0.4015486988	 0.127416
103.0356	146.7117	194.0673	328.7155	349.5725	389.0307	418.4883	421.3133	504.9002	556.077	561.8368	610.3694	798.981	844.1578	869.6513	936.6493	946.5882	978.951	1017.7864	1068.7531	1128.0985	1158.0244	1203.5428	1245.7584	1258.9353	1270.2181	1336.4222	1355.0433	1444.6035	1450.3964	1471.0538	2350.7741	3065.5989	3080.493	3105.3408	3131.5054	3147.1818	3772.3157	3789.5211
OC1CC(O)(C1)C#N	O[C@H]1C[C@@](O)(C1)C#N	
InChI=1S/C5H7NO2/c6-3-5(8)1-4(7)2-5/h4,7-8H,1-2H2	InChI=1S/C5H7NO2/c6-3-5(8)1-4(7)2-5/h4,7-8H,1-2H2/t4-,5+
