18
gdb 51259	4.86029	0.90037	0.83171	2.9654	79.13	-0.2235	-0.0328	0.1907	1375.9641	0.147473	-401.935119	-401.926926	-401.925982	-401.969266	30.21	
O	 0.2535159829	-0.2092043613	-0.2204875468	-0.231716
C	 0.1167971406	 0.9844611637	-0.1824216497	 0.161538
C	 1.2576834693	 1.9870985833	-0.0469311789	-0.38305
C	 1.2506147682	 2.9818194885	-1.1709893886	 0.280259
C	 0.9612037232	 4.285215855	-1.1169178179	-0.190742
C	 1.1204829859	 4.9131058214	-2.4565764726	-0.055456
C	 2.4969664867	 4.8528323229	-3.0293452538	-0.233767
N	 1.5096272513	 3.8354468165	-3.4009290669	-0.097481
C	 1.5808414113	 2.5923482355	-2.6036927583	-0.25249
H	-0.8898875534	 1.457223071	-0.2490857386	 0.082484
H	 1.1201736896	 2.5083809373	 0.9095121482	 0.125865
H	 2.1946411264	 1.4217362653	-0.0015977537	 0.127313
H	 0.6738836593	 4.8365664888	-0.2293918125	 0.101557
H	 0.4068877591	 5.655814279	-2.8035694346	 0.098593
H	 2.7829159838	 5.5148415635	-3.8424811489	 0.117985
H	 3.3018878788	 4.5789766321	-2.3498061565	 0.110193
H	 2.5731904497	 2.1317763292	-2.6956451473	 0.118148
H	 0.8613085574	 1.8642705184	-3.0035502627	 0.120766
44.2769	51.3672	129.9844	234.0678	300.264	368.8466	448.8904	489.4304	507.9875	627.0006	709.4478	773.9584	806.7902	828.7164	863.9163	900.212	930.3214	984.9221	1013.1364	1028.7783	1057.1723	1061.3351	1083.9536	1111.0092	1153.7403	1174.5087	1210.6772	1218.1663	1264.4637	1287.5953	1303.7694	1351.1337	1364.1649	1417.3578	1454.3803	1485.8085	1499.862	1698.8871	1836.3838	2873.2832	3005.788	3024.9282	3041.0321	3085.8951	3094.6791	3141.4294	3185.2898	3204.1868
O=CCC1=CC2CN2C1	O=CCC1=C[C@H]2CN2C1	
InChI=1S/C7H9NO/c9-2-1-6-3-7-5-8(7)4-6/h2-3,7H,1,4-5H2	InChI=1S/C7H9NO/c9-2-1-6-3-7-5-8(7)4-6/h2-3,7H,1,4-5H2/t7-,8?/m0/s1
