12
gdb 21460	5.96304	1.48615	1.18965	4.9053	59.2	-0.2488	-0.0416	0.2072	914.1899	0.085554	-410.799378	-410.792859	-410.791915	-410.830552	23.431	
N	 0.2256766667	 1.2852701212	 0.0043605905	-0.449851
C	 0.0548808939	 0.0251384402	 0.0014298204	 0.086034
N	-1.1902675223	-0.5643612217	 0.0127034701	-0.383658
C	-2.4064959794	 0.0857550762	 0.0273387043	 0.433196
N	-3.526099208	-0.5953027574	 0.0353079511	-0.18953
O	-4.5201714657	 0.3489379139	 0.0493236257	-0.148474
N	-4.0088468571	 1.6116211595	 0.049953914	-0.061284
C	-2.7124252128	 1.4809008683	 0.0365292011	-0.087589
H	 1.217049348	 1.5095992586	-0.0053888271	 0.235241
H	 0.8481032344	-0.7297438839	-0.0098779275	 0.108842
H	-1.2387307047	-1.5707485089	 0.0085661967	 0.274442
H	-2.0351864632	 2.3160074042	 0.0335012606	 0.182632
74.9497	196.8146	200.3503	363.6044	374.9381	507.1456	614.1006	629.8572	723.7417	805.3686	815.2521	910.3862	911.7229	934.3274	1022.8765	1047.9871	1056.585	1124.3065	1193.2362	1242.8275	1408.7187	1432.4707	1496.9686	1523.7004	1647.5628	1731.6397	3068.9688	3317.3042	3529.9807	3646.1404
N=CNC1=NON=C1	N=CNc1nonc1	
InChI=1S/C3H4N4O/c4-2-5-3-1-6-8-7-3/h1-2H,(H2,4,5,7)	InChI=1S/C3H4N4O/c4-2-5-3-1-6-8-7-3/h1-2H,(H2,4,5,7)
