12
gdb 129114	3.32624	1.31439	0.94767	2.5133	69.55	-0.2563	-0.0875	0.1688	1110.8393	0.077683	-468.82968	-468.822292	-468.821348	-468.862221	26.313	
N	-0.2175910065	 1.2269390176	 0.0079627168	-0.513038
C	-0.0248805848	-0.013145222	 0.0004616035	 0.43484
C	-1.1223835298	-1.0675583269	 0.0025630086	-0.431206
C	-0.2916403352	-2.3163804431	-0.0094140566	 0.165971
C	 1.1311504345	-2.0091420957	-0.0175958576	 0.412192
O	 2.0973220913	-2.7105929493	-0.0278994608	-0.340467
N	-1.0916184712	-4.6107638498	-0.0168357903	-0.206866
N	-0.7235367907	-3.5399733997	-0.0133708967	 0.131556
O	 1.2200731703	-0.6144365679	-0.0111374329	-0.2254
H	 0.66539884	 1.739391583	 0.004503168	 0.242311
H	-1.7511126076	-0.9528155419	 0.8914883931	 0.165053
H	-1.7631725602	-0.9439135443	-0.8765016451	 0.165054
78.6693	146.3712	156.8425	205.3733	358.742	472.3555	506.2143	538.9774	549.042	616.7334	675.947	730.6766	779.5581	885.6647	906.6954	976.8832	1017.0994	1086.5	1153.9265	1229.5623	1279.6191	1316.3239	1424.5634	1478.2978	1791.1838	1888.2425	2226.8244	3049.4873	3084.8559	3487.7339
N=C1CC2=C(ON=N2)O1	[NH][C]1C[C](C(=O)O1)[N][N]	
InChI=1S/C4H3N3O2/c5-3-1-2-4(8-3)9-7-6-2/h5H,1H2	InChI=1S/C4H3N3O2/c5-3-1-2(7-6)4(8)9-3/h5H,1H2
