19
gdb 33783	3.52081	1.34162	1.1653	0.7504	81.17	-0.2422	0.0442	0.2864	1093.0231	0.160432	-385.844168	-385.83645	-385.835505	-385.875953	31.429	
C	-0.0071920012	-1.2175438645	-0.0519253469	-0.37197
C	-0.015490764	-0.0151874702	-0.0094257263	 0.136996
C	-0.0212290626	 1.4306444159	 0.0425274785	 0.173633
C	-0.2215037605	 2.1538428349	 1.4217253363	-0.29131
C	 0.652299137	 3.2869579909	 0.8177451047	 0.113889
C	 1.3394700596	 2.2022501226	-0.0489823207	-0.258103
O	-0.089268447	 4.174593887	-0.0058625702	-0.273596
C	-1.2115772945	 3.5578500961	-0.6326898502	-0.079799
C	-0.9775457132	 2.0754583305	-0.9928268969	-0.275158
H	 0.0028453827	-2.2786777434	-0.0871950201	 0.182603
H	-1.2371425136	 2.3812371439	 1.7516588517	 0.10673
H	 0.3114877345	 1.6303403278	 2.2174663154	 0.113385
H	 1.2587471257	 3.9060649215	 1.4802614124	 0.079992
H	 2.1337146382	 1.6789165973	 0.4879865051	 0.107122
H	 1.6824462255	 2.5031751812	-1.0415870685	 0.102309
H	-2.0837277444	 3.6341852563	 0.0320067773	 0.098923
H	-1.4337034457	 4.151764373	-1.5237059637	 0.11065
H	-0.5385159345	 1.9667568303	-1.9900915558	 0.112957
H	-1.939750692	 1.5536066989	-1.0020550121	 0.110746
140.1775	143.2037	222.4468	299.893	394.344	428.2652	444.2484	516.2675	531.5265	589.9835	608.5374	625.5353	628.4104	807.7252	832.4812	837.8231	893.8111	927.3052	946.8093	951.83	965.8272	1003.6429	1054.0631	1063.1848	1132.0571	1178.0668	1195.8971	1203.0299	1234.974	1247.9894	1250.1307	1263.7778	1285.6207	1351.9997	1369.0609	1413.6258	1470.3123	1490.875	1499.262	1525.046	2231.7832	2996.2737	3043.3735	3063.9922	3075.5898	3079.4318	3092.6072	3103.5076	3129.2587	3133.9205	3502.5456
C#CC12CC(C1)OCC2	C#C[C@@]12C[C@@H](C1)OCC2	
InChI=1S/C8H10O/c1-2-8-3-4-9-7(5-8)6-8/h1,7H,3-6H2	InChI=1S/C8H10O/c1-2-8-3-4-9-7(5-8)6-8/h1,7H,3-6H2/t7-,8+
