18
gdb 30015	3.11179	1.56167	1.06071	2.9387	79.61	-0.1964	0.0406	0.237	1112.7361	0.149649	-401.970435	-401.962276	-401.961332	-402.003961	29.628	
C	 0.0059235731	 1.4459558657	 0.041595475	-0.344841
N	-0.0309861318	-0.0010670782	 0.0234029345	-0.108789
C	-0.0106736348	-0.7979057204	-1.1076448323	-0.090425
C	 0.0105227011	-2.1261044118	-0.7314539589	-0.362289
C	 0.0073801112	-2.1318054709	 0.6882264465	 0.238926
C	-0.0137926979	-0.8326944058	 1.1070532315	 0.249215
C	-0.0241114542	-0.7285796533	 2.5944897584	-0.174983
O	-0.0079770395	-2.0990953549	 3.0117571653	-0.281718
C	 0.0081766632	-3.0147251425	 1.8941066557	-0.177008
H	 0.996857865	 1.8231902954	 0.3198555339	 0.139428
H	-0.2423729945	 1.8234393549	-0.9520740433	 0.14327
H	-0.7281262915	 1.8389108312	 0.751452801	 0.141634
H	-0.014599203	-0.3444405593	-2.0868546571	 0.115471
H	 0.0169598443	-2.9686018171	-1.4058130827	 0.098423
H	 0.8529864965	-0.2092376866	 3.0131279279	 0.102328
H	-0.9204613792	-0.2324021133	 3.00093298	 0.101978
H	-0.8724182345	-3.6701462131	 1.9635914963	 0.104669
H	 0.9004059264	-3.65269941	 1.9755746984	 0.104711
53.1523	95.8803	146.5769	186.7268	244.267	263.7037	490.1545	595.7097	601.6265	628.8574	643.6881	700.6548	784.5851	791.0294	855.2476	893.0552	1021.6433	1028.2108	1054.119	1068.0517	1078.3796	1107.1845	1149.4535	1155.8774	1212.3191	1213.3103	1250.5167	1336.2609	1362.3871	1384.1639	1449.6663	1459.3281	1484.9111	1489.57	1517.1793	1524.1868	1533.475	1548.3291	1603.7104	2960.4844	2973.2856	2986.0807	3004.4001	3029.5828	3090.691	3134.7057	3241.4934	3260.6113
CN1C=CC2=C1COC2	Cn1ccc2c1COC2	
InChI=1S/C7H9NO/c1-8-3-2-6-4-9-5-7(6)8/h2-3H,4-5H2,1H3	InChI=1S/C7H9NO/c1-8-3-2-6-4-9-5-7(6)8/h2-3H,4-5H2,1H3
