18
gdb 62977	2.26044	1.6034	1.28693	5.088	75.62	-0.274	0.0211	0.2951	1063.7514	0.146046	-401.930009	-401.92132	-401.920375	-401.962995	32.875	
C	-0.0836355609	 1.5550119492	-0.1423806201	-0.450191
C	-0.01653758	 0.0369862186	-0.038450271	 0.270069
C	-1.3731351184	-0.5910022819	 0.2726376384	-0.454493
C	 0.7004066413	-0.67653979	-1.2076883978	 0.004967
O	 2.0412254125	-0.1835633644	-1.2709854872	-0.232878
C	 1.7512333727	-1.2185202788	-0.337677562	 0.019113
C	 1.126901599	-0.5648286871	 0.9125174795	-0.25196
C	 1.9644455699	 0.3492052519	 1.6698250856	 0.301841
N	 2.618507015	 1.0845690166	 2.2766498979	-0.338109
H	 0.8868543054	 1.9691419257	-0.4228304206	 0.151513
H	-0.8194807599	 1.8508017959	-0.8980815667	 0.11506
H	-0.3830528165	 2.0002623193	 0.8117838611	 0.129276
H	-2.103784134	-0.3240148164	-0.498530886	 0.125645
H	-1.3153141694	-1.6843083938	 0.3140152213	 0.118626
H	-1.756740504	-0.2342524104	 1.2339435103	 0.131783
H	 0.2676208857	-1.0692742517	-2.1209699823	 0.112716
H	 2.3380218189	-2.1275775755	-0.3865004444	 0.122179
H	 0.7011219528	-1.3111117072	 1.5887098638	 0.124845
100.014	138.6568	214.9637	219.7683	244.1151	265.925	329.5459	360.1674	395.9257	514.9019	543.9295	574.8996	678.6892	789.644	848.0375	855.4068	880.4466	909.3855	958.2701	968.456	1002.595	1031.0227	1053.0556	1060.9824	1135.5297	1193.2806	1203.1944	1235.2189	1262.0499	1289.2911	1336.4764	1389.0438	1402.9862	1424.0573	1482.1769	1486.2413	1500.0029	1508.1362	2354.8389	3027.682	3038.0143	3081.2612	3095.7804	3100.821	3104.8632	3134.6797	3181.7055	3200.6453
CC1(C)C2OC2C1C#N	CC1(C)[C@H]2O[C@H]2[C@H]1C#N	
InChI=1S/C7H9NO/c1-7(2)4(3-8)5-6(7)9-5/h4-6H,1-2H3	InChI=1S/C7H9NO/c1-7(2)4(3-8)5-6(7)9-5/h4-6H,1-2H3/t4-,5+,6+/m1/s1
