21
gdb 83612	2.36544	1.8678	1.24032	1.6348	81.94	-0.2263	0.0758	0.3021	1078.4863	0.183501	-387.043705	-387.035766	-387.034822	-387.075989	31.779	
C	-0.1052355543	 1.6047070935	-0.0115750401	-0.419236
C	 0.0013758258	 0.0847218864	-0.0555925903	 0.016514
C	 0.7469844533	-0.5355662278	-1.2763809569	-0.108389
C	 0.3475008214	-1.9973607988	-1.6662593698	-0.239604
C	 1.627002272	-2.5592692926	-0.9589932072	-0.328692
C	 1.7999899856	-1.1919781765	-0.3221362274	 0.502515
O	 3.0289894366	-0.5996920887	 0.0687159555	-0.33005
C	 2.3783044293	 0.0690668429	 1.1830279818	-0.105389
C	 1.0244477216	-0.6229739411	 0.8945712535	-0.16888
H	 0.855658195	 2.0897397322	-0.2121022068	 0.121672
H	-0.8118712296	 1.9602793562	-0.7693245845	 0.116342
H	-0.4591213085	 1.9530200522	 0.9652724126	 0.112808
H	-1.0002241968	-0.3426354933	 0.0698954694	 0.069479
H	 1.0191776935	 0.11939184	-2.1060593577	 0.064886
H	-0.5891021749	-2.3279950761	-1.2093508818	 0.100667
H	 0.2935712366	-2.1902812222	-2.7388562387	 0.106617
H	 1.5260325483	-3.4267615426	-0.3002577139	 0.096572
H	 2.4257953908	-2.7569883492	-1.6810004966	 0.113835
H	 2.8430653422	-0.214294986	 2.1339284285	 0.105089
H	 2.4096766051	 1.1595453016	 1.0830861026	 0.102583
H	 0.6298155069	-1.2394922401	 1.7034824376	 0.070663
78.981	208.8256	220.182	243.0242	281.8109	344.9884	369.983	488.5546	518.8245	641.1166	718.877	741.5304	799.1025	834.7719	877.1573	898.0191	923.4007	958.8926	972.8431	984.3977	995.3036	1025.9833	1040.3951	1076.4016	1120.4151	1129.1137	1149.4669	1163.4311	1169.5714	1197.4669	1221.8335	1234.033	1255.5217	1271.7566	1280.0033	1307.6034	1327.9873	1346.644	1371.3284	1410.4031	1473.516	1490.8967	1492.6298	1499.137	1525.1276	3025.5929	3028.2433	3031.3579	3047.2729	3062.7866	3070.9802	3090.797	3092.8879	3095.4219	3097.6978	3100.2876	3123.125
CC1C2CCC22OCC12	C[C@H]1[C@@H]2CC[C@]32OC[C@@H]13	
InChI=1S/C8H12O/c1-5-6-2-3-8(6)7(5)4-9-8/h5-7H,2-4H2,1H3	InChI=1S/C8H12O/c1-5-6-2-3-8(6)7(5)4-9-8/h5-7H,2-4H2,1H3/t5-,6-,7-,8+/m0/s1
