23
gdb 104979	2.40223	1.27963	1.11064	2.0158	80.45	-0.2594	0.0758	0.3352	1250.0202	0.203393	-425.410044	-425.399787	-425.398843	-425.444389	39.719	
C	-0.3481753845	 1.4817247143	-0.1570276051	-0.427319
C	-0.0201020339	-0.0162908996	-0.0180891603	 0.181883
C	 0.9535811556	-0.1874895511	 1.1685314615	-0.412573
C	-1.3241958341	-0.7926662947	 0.2538923046	-0.419579
C	 0.6495160551	-0.564106525	-1.2921054246	 0.369002
C	 0.8545676352	-2.0821405391	-1.3813966431	-0.137875
O	 1.7390931579	-2.4291538569	-2.4231732964	-0.421385
C	 0.6525920794	 0.1655015174	-2.5692046668	-0.238181
O	 1.8227163247	 0.1528519092	-1.7286010495	-0.299088
H	 0.5354017226	 2.0512954615	-0.4586448307	 0.132151
H	-1.1446173716	 1.6584249881	-0.8864402298	 0.110227
H	-0.6918223978	 1.8762893771	 0.8043462627	 0.110526
H	 0.5126417123	 0.2293957526	 2.0796594512	 0.110747
H	 1.1857962211	-1.2374461273	 1.3685127605	 0.113872
H	 1.8932373851	 0.3372571521	 0.9732481201	 0.131402
H	-2.0113581683	-0.7283125024	-0.596855897	 0.115072
H	-1.1392552944	-1.8505550428	 0.4624597176	 0.120173
H	-1.8347930769	-0.3721019115	 1.1263232495	 0.115266
H	 1.2155706939	-2.4639306366	-0.414253753	 0.094705
H	-0.1012099155	-2.5736934216	-1.5899882058	 0.115859
H	 2.4492257313	-1.7732545144	-2.3831835509	 0.291208
H	 0.754758899	-0.4011134378	-3.4913938221	 0.12702
H	 0.1677051838	 1.1325238084	-2.6582317524	 0.116888
72.0896	121.8102	200.6515	224.3959	262.7575	266.4704	303.3292	317.0086	332.2387	343.8338	373.3293	382.2642	446.1401	517.4889	521.2441	549.9749	675.6733	799.9438	840.5974	904.5276	931.6698	936.4633	941.0611	961.7311	1029.653	1040.5896	1074.57	1092.7419	1132.6905	1163.089	1179.2431	1231.2582	1235.3832	1247.8086	1296.3226	1351.9252	1391.0189	1399.0599	1404.8425	1431.7074	1444.8483	1481.245	1488.3389	1492.8604	1503.6553	1505.6584	1511.4492	1517.5126	1527.704	2988.9234	3030.5967	3034.7382	3041.119	3071.2566	3096.8701	3100.5699	3105.3164	3108.921	3113.4343	3115.7421	3118.5634	3205.3124	3745.977
CC(C)(C)C1(CO)CO1	CC(C)(C)[C@@]1(CO)CO1	
InChI=1S/C7H14O2/c1-6(2,3)7(4-8)5-9-7/h8H,4-5H2,1-3H3	InChI=1S/C7H14O2/c1-6(2,3)7(4-8)5-9-7/h8H,4-5H2,1-3H3/t7-/m1/s1
