19
gdb 107211	3.85498	1.27771	1.142	1.2285	74.23	-0.249	0.0768	0.3258	1116.1641	0.159245	-422.988619	-422.980734	-422.97979	-423.02086	30.998	
C	-0.3840923288	 1.3175096137	-0.1846936563	-0.252129
O	 0.2053025535	 0.0528832686	 0.0590595947	-0.28188
C	 0.8203006556	-0.5054892617	-1.0580548697	 0.429333
C	-0.0464112696	-1.1368720874	-2.113968839	-0.344039
C	 0.8159996024	-2.0081676561	-1.2133559401	-0.147197
C	 2.1722291855	-2.4013492125	-1.7486481003	 0.026545
O	 2.4815950022	-1.8638439692	-3.0446029007	-0.255881
C	 3.0080523205	-1.1960079504	-1.8900948777	 0.043268
C	 2.216940938	 0.0215735712	-1.4351923799	-0.329462
H	 0.3662499348	 2.0758093359	-0.4506574672	 0.109045
H	-1.129075378	 1.2683163262	-0.9911148554	 0.110523
H	-0.8778118779	 1.6224634363	 0.74089904	 0.126255
H	-1.1105338856	-1.1522041	-1.9041228221	 0.112436
H	 0.2316457282	-1.0588082043	-3.1577796642	 0.134242
H	 0.3374809411	-2.6405993335	-0.4761090177	 0.095958
H	 2.5743478754	-3.3903421797	-1.5493907494	 0.096838
H	 4.0928128271	-1.1996121427	-1.8136447622	 0.09664
H	 2.2010428521	 0.8053355256	-2.1995112693	 0.114497
H	 2.6788534236	 0.43788287	-0.5328956836	 0.115005
106.5156	151.3198	183.6338	274.5661	305.7283	363.4962	410.9575	412.5636	563.1434	639.7935	695.3868	714.308	815.4996	827.7005	876.2107	892.791	921.5318	951.6162	969.0854	990.9937	1048.6355	1051.8224	1067.7977	1075.8187	1099.1738	1118.9837	1182.818	1196.6449	1209.7253	1239.7533	1257.7399	1268.1652	1304.6451	1341.9273	1373.974	1417.1861	1463.5623	1471.3293	1485.9762	1490.9742	1508.3409	2991.4884	3042.4922	3046.0395	3088.8547	3118.6662	3139.0033	3139.5604	3159.0783	3196.9432	3236.3087
COC12CC1C1OC1C2	CO[C@]12C[C@H]1[C@H]1O[C@H]1C2	
InChI=1S/C7H10O2/c1-8-7-2-4(7)6-5(3-7)9-6/h4-6H,2-3H2,1H3	InChI=1S/C7H10O2/c1-8-7-2-4(7)6-5(3-7)9-6/h4-6H,2-3H2,1H3/t4-,5-,6+,7-/m0/s1
