19
gdb 32920	4.27711	0.87709	0.74884	2.6965	81.59	-0.1906	0.0259	0.2165	1552.3395	0.159253	-419.24675	-419.237306	-419.236362	-419.282208	33.503	
C	 0.0498891503	 1.3865085108	 0.2397875703	-0.394435
C	-0.2073911722	-0.0431559647	-0.2213536582	-0.125926
N	 0.8960037654	-0.5127851071	-1.0695449856	-0.409931
C	 0.8874318965	-1.8253914666	-1.4976384094	 0.386447
C	 1.1548265959	-2.4607433777	-2.6692401554	-0.224924
N	 1.0998212626	-3.8377913137	-2.4576468216	-0.291952
C	 0.7926347474	-3.9757819903	-1.2123976648	 0.380806
C	 0.5631652726	-5.2178480789	-0.432159223	-0.487844
O	 0.6505829495	-2.7801223937	-0.5494802044	-0.208324
H	 0.9928636513	 1.4527413359	 0.7896233621	 0.132692
H	 0.1041666064	 2.0749540388	-0.6116974317	 0.115011
H	-0.7596993089	 1.7297855468	 0.8899233931	 0.12347
H	-0.2648216425	-0.7132682283	 0.6403178146	 0.132677
H	-1.1764413685	-0.1067038709	-0.742728567	 0.097112
H	 1.0820398318	 0.1154958472	-1.8406876037	 0.238774
H	 1.3830029472	-2.0367660572	-3.6334418095	 0.104296
H	 1.2509035497	-5.2905069711	 0.4173928744	 0.139685
H	-0.4566468027	-5.2567604264	-0.0332550386	 0.137937
H	 0.7184396982	-6.0750717228	-1.0879965116	 0.15443
44.16	62.0085	112.3946	124.6231	211.5858	251.7307	298.3361	336.1406	370.6219	456.1245	628.2235	670.1287	684.9968	702.5924	774.1664	779.9091	817.0382	918.4369	962.7072	989.2055	1039.7374	1063.8267	1069.6716	1134.0649	1141.4805	1163.3932	1246.6053	1291.0545	1296.0921	1359.5491	1384.9501	1411.39	1414.386	1474.3322	1474.9032	1485.1803	1495.3649	1499.2849	1521.6601	1643.087	1660.9773	2970.0564	3034.7919	3036.0331	3086.6537	3086.7369	3108.2913	3124.1566	3152.9793	3264.9457	3573.2714
CCNC1=CN=C(C)O1	CCNc1cnc(C)o1	
InChI=1S/C6H10N2O/c1-3-7-6-4-8-5(2)9-6/h4,7H,3H2,1-2H3	InChI=1S/C6H10N2O/c1-3-7-6-4-8-5(2)9-6/h4,7H,3H2,1-2H3
