20
gdb 120406	3.42424	0.85719	0.73393	4.2081	77.59	-0.2407	0.0377	0.2784	1541.4925	0.169708	-440.304008	-440.293942	-440.292998	-440.339786	35.307	
C	 0.0104541482	 1.4450980741	 0.0593900788	-0.349816
N	 0.0117464434	 0.015003191	-0.1181644471	-0.070893
C	-1.0502576258	-1.0101124842	-0.0864094882	 0.03325
C	-2.0187157379	-1.0407227205	-1.2632664694	-0.18497
C	-3.0649291737	 0.0687239743	-1.2452745784	-0.081855
O	-3.9460853553	-0.1603754749	-2.3326923256	-0.416686
C	 0.0885534011	-2.074428139	-0.091811368	-0.410525
C	 1.0579520132	-0.874701195	-0.0609711646	 0.411803
O	 2.2482623014	-0.7082303964	 0.0103924048	-0.375065
H	 1.0496954318	 1.7562994786	 0.1939031195	 0.161429
H	-0.4012593205	 1.971431486	-0.8092086733	 0.13038
H	-0.5632108425	 1.7377091868	 0.9481540796	 0.123383
H	-1.6058951131	-0.9892473599	 0.8621908559	 0.077083
H	-1.4579295178	-0.9962760861	-2.2038659248	 0.111475
H	-2.5497886869	-2.0004272596	-1.2507224614	 0.116335
H	-3.6039141687	 0.0518519154	-0.2830035285	 0.085353
H	-2.5801298802	 1.053943995	-1.3285715261	 0.090615
H	-4.6001772754	 0.5443272682	-2.3465078289	 0.287826
H	 0.141218101	-2.7171934778	 0.7885294623	 0.130378
H	 0.1470110777	-2.6833536459	-0.9964225264	 0.130498
69.3442	78.6145	103.0495	129.2374	170.205	198.9099	249.3293	263.9248	331.4343	335.4798	485.8523	527.8656	565.3444	722.7446	736.2417	816.9259	864.9239	954.8762	974.2402	1030.0495	1073.1537	1074.572	1077.7062	1099.7544	1145.1419	1163.677	1198.0305	1217.0304	1241.836	1258.5872	1290.2775	1317.647	1326.8119	1398.2935	1408.5982	1444.1743	1462.3671	1467.3264	1481.6175	1486.3112	1517.9011	1527.3278	1876.9128	2959.1622	2992.6443	2999.3242	3014.0921	3035.2404	3067.1561	3082.9361	3083.1906	3123.7245	3141.343	3830.5773
CN1C(CCO)CC1=O	CN1[C@@H](CCO)CC1=O	
InChI=1S/C6H11NO2/c1-7-5(2-3-8)4-6(7)9/h5,8H,2-4H2,1H3	InChI=1S/C6H11NO2/c1-7-5(2-3-8)4-6(7)9/h5,8H,2-4H2,1H3/t5-/m0/s1
