20
gdb 99704	2.38467	0.93614	0.70087	2.1941	84.45	-0.2443	0.0505	0.2949	1629.3824	0.169842	-403.090615	-403.08023	-403.079286	-403.12771	36.418	
C	-0.2562579001	 1.5995715084	-0.0000259758	-0.498961
C	-0.1210747579	 0.1498172866	-0.0056625894	 0.093844
C	 0.0024632702	-1.0482725874	-0.0009522594	 0.054186
C	 0.1093847636	-2.5049034114	-0.0295619207	-0.227631
C	-1.2993297256	-3.1526981089	-0.0088802108	-0.070045
O	-1.2446708074	-4.5655378556	 0.0391639987	-0.42507
C	 0.8958413602	-2.9806344411	-1.2444703343	 0.02044
C	 2.3577734106	-3.1951886321	-1.1852667716	-0.24474
N	 1.4436380831	-4.3517474046	-1.2688079935	-0.340964
H	 0.2569254188	 2.0499683035	-0.8568411596	 0.149309
H	-1.3082227238	 1.9018319283	-0.0480103934	 0.14909
H	 0.1722820539	 2.0354612513	 0.9091637409	 0.149394
H	 0.6358863854	-2.8532655253	 0.8712629367	 0.098184
H	-1.8301926767	-2.8294245334	 0.8907020799	 0.119076
H	-1.8710049502	-2.7940749876	-0.8776338456	 0.099475
H	-0.9052465516	-4.8785790039	-0.806480713	 0.299645
H	 0.4646934366	-2.6710148607	-2.1951736796	 0.098247
H	 2.9695648477	-3.0290073372	-2.0668374856	 0.121848
H	 2.8606952546	-3.001455914	-0.2412146216	 0.116734
H	 1.3420183886	-4.765953955	-0.3446103023	 0.237938
21.2227	74.9241	94.6046	121.9218	150.7719	207.0509	265.7728	298.15	353.6377	363.5974	444.2955	463.5141	479.6926	527.9534	789.2993	828.7204	860.6497	907.5281	958.0865	976.6292	1041.0973	1051.9973	1054.3121	1068.1947	1075.7473	1122.6838	1162.1841	1167.5498	1183.6017	1238.7061	1268.2316	1286.7081	1298.3972	1329.1209	1389.3332	1414.0945	1415.1371	1429.2033	1478.3366	1478.6395	1501.2841	1513.2188	2369.1785	2992.3384	3005.1731	3027.4677	3088.3116	3088.5867	3094.6224	3110.9774	3121.9071	3197.2622	3492.1318	3808.1733
CC#CC(CO)C1CN1	CC#C[C@@H](CO)[C@H]1CN1	
InChI=1S/C7H11NO/c1-2-3-6(5-9)7-4-8-7/h6-9H,4-5H2,1H3	InChI=1S/C7H11NO/c1-2-3-6(5-9)7-4-8-7/h6-9H,4-5H2,1H3/t6-,7+/m0/s1
