17
gdb 67598	2.8468	1.9119	1.8164	2.0241	68.93	-0.2017	0.0836	0.2853	861.3128	0.13772	-421.792121	-421.785641	-421.784697	-421.822645	26.932	
C	-0.017401254	 1.5091784934	 0.0141010148	-0.510087
C	-0.0186466431	 0.0033742106	 0.0054031368	 0.255891
C	 0.9423609322	-0.8853401972	-0.7825774728	 0.00007
O	 0.2651888798	-1.9618727941	-1.3840494596	-0.245721
C	-0.9734072663	-2.0789668478	-0.7285525193	 0.047596
C	-0.9265362522	-2.0879327394	 0.7726289636	 0.047609
O	 0.3505590179	-1.9781594031	 1.3509734516	-0.245704
C	 0.9892918177	-0.8943010057	 0.7213283128	 0.000038
C	-1.296534724	-0.8034252741	 0.0404796761	-0.235832
H	 1.0043427276	 1.9004770231	-0.0120433435	 0.120825
H	-0.5470197415	 1.9137228015	-0.855527997	 0.126187
H	-0.4976298604	 1.9033414224	 0.9165472774	 0.126176
H	 1.7612878557	-0.5078391151	-1.3843289427	 0.10277
H	-1.7001457163	-2.6568127727	-1.2869036001	 0.105852
H	-1.617262373	-2.6726481789	 1.3682919079	 0.105856
H	 1.8442621052	-0.5236573797	 1.2753190572	 0.102768
H	-2.2661346453	-0.3259381133	 0.0735965667	 0.095706
186.5874	220.6545	279.0709	306.2362	552.4417	581.9732	595.5197	679.1223	728.2976	741.779	749.9689	755.4267	805.9209	867.9537	877.8677	962.2956	962.841	989.6877	1018.4731	1033.6217	1052.7031	1061.8108	1104.0263	1108.2962	1123.6649	1138.1122	1181.8841	1205.4683	1235.9654	1275.4776	1299.5709	1361.9198	1400.1553	1418.2658	1440.5367	1490.6378	1499.2499	3027.1177	3088.9192	3099.1233	3174.79	3183.1679	3183.677	3191.1707	3210.4302
CC12C3OC4C(OC13)C24	C[C@@]12[C@@H]3O[C@H]4[C@@H](O[C@H]13)[C@@H]24	
InChI=1S/C7H8O2/c1-7-2-3-4(2)9-6(7)5(7)8-3/h2-6H,1H3	InChI=1S/C7H8O2/c1-7-2-3-4(2)9-6(7)5(7)8-3/h2-6H,1H3/t2-,3+,4-,5+,6-,7+
