16
gdb 76588	3.35057	0.80558	0.77133	5.5306	86.37	-0.2576	-0.0387	0.2189	1501.399	0.122917	-400.723371	-400.714055	-400.713111	-400.758031	33.171	
C	-0.1007616108	 1.5158689857	-0.1318370164	-0.409731
C	 0.0377917782	 0.0161412582	-0.0189668776	-0.043361
C	 1.3541056778	-0.6579689734	-0.2083340913	 0.098201
O	 2.4397350388	 0.1583435535	-0.4777537083	-0.402671
C	 0.7232034529	-0.6342485017	 1.1994724105	-0.308431
C	 1.3230735669	 0.1561614766	 2.2152938773	 0.127216
C	 1.8499725943	 0.8047425185	 3.0923457725	 0.032471
C	 2.4407577418	 1.5371654967	 4.0783622316	 0.198968
N	 2.947375043	 2.1601890526	 4.9193074294	-0.342483
H	 0.8107078881	 2.0247838027	 0.1837890937	 0.149589
H	-0.2997929425	 1.7963948789	-1.1709418427	 0.129327
H	-0.9315333961	 1.8758766612	 0.4822468911	 0.127998
H	-0.8220444353	-0.5507284739	-0.3644223747	 0.1068
H	 1.3692822855	-1.634974833	-0.6911084949	 0.105241
H	 3.2099689824	-0.1791048263	-0.0073830292	 0.301175
H	 0.2952065351	-1.5700940062	 1.5473008589	 0.12969
71.2926	76.5734	162.5895	172.3862	187.4658	242.7951	292.0107	341.766	384.5937	501.1206	536.7393	566.3912	580.3689	643.5979	721.2282	749.9609	832.2417	915.1953	958.0498	1005.7302	1066.7803	1086.8309	1145.0618	1182.8452	1206.2334	1246.1337	1299.2481	1370.3763	1384.8759	1421.7966	1455.086	1490.8394	1501.5838	2257.0024	2384.2898	3047.856	3102.7124	3108.4635	3141.0036	3148.6542	3159.7921	3804.9437
CC1C(O)C1C#CC#N	C[C@H]1[C@@H](O)[C@H]1C#CC#N	
InChI=1S/C7H7NO/c1-5-6(7(5)9)3-2-4-8/h5-7,9H,1H3	InChI=1S/C7H7NO/c1-5-6(7(5)9)3-2-4-8/h5-7,9H,1H3/t5-,6+,7-/m1/s1
