20
gdb 66471	3.45008	1.55926	1.4171	1.7944	81.66	-0.222	0.0799	0.3018	1018.9943	0.171276	-365.944042	-365.936348	-365.935404	-365.975565	31.315	
C	 0.0337025048	 1.4432431756	 0.0361930793	-0.516535
C	-0.0911517475	-0.0439582136	-0.040064619	 0.370095
C	 0.4463455366	-0.9254593551	-1.1133202977	-0.149382
N	 1.0543838935	-0.9754460798	 0.2660485734	-0.222663
C	-0.0344599915	-2.0127472912	 0.5574850558	-0.026114
C	-1.187577018	-0.9627941535	 0.5528731492	-0.127844
C	-1.855240865	-1.689831601	-0.6397551213	-0.293826
C	-0.4193801915	-2.1980861621	-0.9537051557	 0.329764
C	-0.1268508886	-3.4155985836	-1.7907419325	-0.511762
H	 0.9858368444	 1.7683618871	-0.3946233684	 0.13052
H	-0.7765550343	 1.9343718789	-0.5151737434	 0.119684
H	-0.001576709	 1.7917809578	 1.0740426977	 0.124239
H	 1.0114206285	-0.5857137879	-1.974749185	 0.083907
H	 0.1304492138	-2.8039759958	 1.286829074	 0.073485
H	-1.7320116927	-0.6327194112	 1.4357878594	 0.069445
H	-2.505530191	-2.5066367384	-0.3072679416	 0.095401
H	-2.3714866028	-1.0879861658	-1.3950904203	 0.090956
H	-0.3977587832	-3.2469089269	-2.8400246348	 0.118071
H	 0.9382958857	-3.6699644068	-1.7595945757	 0.126675
H	-0.6921952624	-4.2847986768	-1.4379918935	 0.115882
184.5429	196.0772	216.2464	224.8186	286.8178	331.9487	420.5791	538.8196	569.1554	646.676	732.0356	758.659	806.0666	839.3944	854.8854	864.3612	878.2474	907.998	945.4939	956.6754	992.3696	1004.1064	1023.0921	1068.3381	1091.5021	1112.6688	1156.1443	1173.9269	1196.9629	1202.7388	1215.9987	1221.5382	1249.2297	1293.4043	1347.1045	1401.5373	1413.4287	1435.6451	1480.9361	1485.2977	1492.2348	1492.6696	1493.4182	3022.055	3026.4665	3033.8885	3084.5926	3089.2244	3090.9603	3095.863	3105.8733	3124.6696	3135.6727	3168.6183
CC12C3N1C1C2CC31C	C[C@@]12[C@H]3N1[C@H]1[C@@H]2C[C@@]31C	
InChI=1S/C8H11N/c1-7-3-4-5(7)9-6(7)8(4,9)2/h4-6H,3H2,1-2H3	InChI=1S/C8H11N/c1-7-3-4-5(7)9-6(7)8(4,9)2/h4-6H,3H2,1-2H3/t4-,5-,6-,7+,8+,9?/m0/s1
