18
gdb 5313	4.53951	1.53477	1.26042	1.7418	75.53	-0.1757	0.0543	0.23	999.6836	0.154991	-344.005118	-343.997022	-343.996078	-344.03772	30.278	
C	 0.051802381	 1.264781746	 0.5146305616	-0.329739
N	-0.0371123658	 0.0739197987	-0.3300836896	-0.156794
C	 1.2156212459	-0.6628144222	-0.3742803102	-0.323116
C	-1.1673832083	-0.7294555028	-0.1028037995	 0.344988
C	-1.3245381729	-2.0014625425	 0.4077727317	-0.227856
C	-2.7157877349	-2.3144395074	 0.3496518275	-0.141988
C	-3.364639409	-1.2302370948	-0.1834448234	-0.096802
N	-2.415389423	-0.2692496652	-0.4559689137	-0.297669
H	 0.8211207198	 1.9357715095	 0.1188139367	 0.117618
H	-0.900570289	 1.7996181375	 0.5135279144	 0.116781
H	 0.3050697538	 1.0240890458	 1.5619059492	 0.106218
H	 1.522106124	-1.0577992782	 0.610749071	 0.102511
H	 1.1227511433	-1.5018995351	-1.0673992212	 0.132009
H	 2.0106481242	 0.0005367244	-0.7297587512	 0.11596
H	-0.5373367078	-2.6295908729	 0.7933152072	 0.085024
H	-3.1815047324	-3.2316460646	 0.6762400736	 0.087929
H	-4.4077551381	-1.0517971842	-0.3874165477	 0.110169
H	-2.5743189908	 0.5879760982	-0.9557666567	 0.254756
47.9047	155.5955	197.3917	229.2073	264.5535	357.2188	386.6295	468.2141	471.5182	611.8234	627.1262	671.7077	717.2719	780.1986	839.3336	889.1814	928.2448	1000.2441	1053.6017	1069.9179	1109.7768	1120.9972	1140.4351	1181.1465	1209.957	1223.0968	1290.0691	1337.0849	1427.1172	1441.8429	1457.2462	1470.9892	1480.2207	1492.6924	1501.111	1505.8545	1529.3001	1618.5776	2946.7698	2956.0133	3063.9894	3067.4832	3118.661	3122.3197	3241.9195	3258.0827	3272.2414	3681.4855
CN(C)C1=CC=CN1	CN(C)c1ccc[nH]1	
InChI=1S/C6H10N2/c1-8(2)6-4-3-5-7-6/h3-5,7H,1-2H3	InChI=1S/C6H10N2/c1-8(2)6-4-3-5-7-6/h3-5,7H,1-2H3
