14
gdb 97518	5.13591	0.58963	0.53239	7.5028	74.98	-0.2845	-0.0723	0.2122	1924.8503	0.097629	-436.667971	-436.658043	-436.657099	-436.705082	32.428	
O	-0.1158214469	 1.5054826241	 0.0116919769	-0.405215
C	-0.0289315992	 0.0912845268	 0.0026560184	-0.222192
C	-1.3671187002	-0.481090735	 0.0124724065	 0.217664
C	-2.4607943371	-0.9908178572	 0.0201503319	-0.037819
C	-3.7819411614	-1.5717479417	 0.0294730224	 0.218707
O	-3.9854836191	-2.7611993085	 0.0250306165	-0.255879
C	-4.9113633357	-0.5262397171	 0.0456222852	-0.44265
C	-6.244495217	-1.1150405409	 0.0552464759	 0.271955
N	-7.3115887482	-1.5550639354	 0.0631219404	-0.291995
H	 0.7822787436	 1.8524616917	 0.006870604	 0.29961
H	 0.4995005367	-0.2837045642	-0.8891521132	 0.138904
H	 0.5168650137	-0.2939481625	 0.8794914428	 0.138907
H	-4.7785872794	 0.1183174523	 0.9229217895	 0.184998
H	-4.7952153598	 0.1273334774	-0.8273592171	 0.185006
36.0864	47.3555	56.1944	137.2161	148.5929	214.0493	228.5463	343.3463	364.7849	379.7556	436.794	570.9748	575.2151	595.6958	801.784	914.297	940.5323	989.3948	1010.4119	1071.9471	1167.616	1210.9379	1244.269	1256.0733	1329.7281	1431.8422	1455.8301	1488.7266	1785.1534	2336.0589	2376.9871	2969.5276	2990.4391	3045.2649	3080.5542	3822.0616
OCC#CC(=O)CC#N	OCC#CC(=O)CC#N	
InChI=1S/C6H5NO2/c7-4-3-6(9)2-1-5-8/h8H,3,5H2	InChI=1S/C6H5NO2/c7-4-3-6(9)2-1-5-8/h8H,3,5H2
