18
gdb 38906	3.69393	1.52621	1.2203	1.8939	77.46	-0.221	0.0048	0.2259	1022.4711	0.150322	-401.914339	-401.907489	-401.906545	-401.945629	27.548	
C	 0.086856969	 1.4812012049	-0.0400969171	-0.227623
C	 1.3387731334	 0.6743778172	-0.015442323	-0.164754
N	-0.0123291805	 0.0206760821	 0.0148041245	-0.108367
C	-0.229069177	-0.6257689783	-1.3179649845	-0.211177
C	 1.1887938694	-0.8355210623	-1.8888219166	 0.090291
O	 1.3731640689	-0.7735482951	-3.2907955513	-0.27935
C	 2.520335474	 0.0520971778	-3.5411758772	-0.112965
C	 2.7086140832	 0.8670571743	-2.2764067434	-0.284353
C	 1.9321041383	 0.3516415169	-1.3324069406	 0.331032
H	-0.2365111031	 1.9970307048	 0.8608546866	 0.117428
H	-0.1675259447	 1.9843619011	-0.9705203348	 0.11503
H	 1.9261893377	 0.6045631945	 0.8954924064	 0.10597
H	-0.7732225783	-1.559986236	-1.1631019816	 0.111524
H	-0.811750755	 0.0114294974	-1.9927021588	 0.110472
H	 1.5963366042	-1.7830143238	-1.4926527405	 0.081037
H	 3.3985149589	-0.5722910438	-3.7798045181	 0.103138
H	 2.3172972418	 0.6789128361	-4.4190755475	 0.11456
H	 3.3370695396	 1.7467558423	-2.2254906525	 0.108107
116.2597	145.5179	284.3398	360.7676	418.2151	450.3253	585.5469	651.7171	655.4946	757.5323	772.636	819.2467	825.6854	847.3215	932.2991	952.1169	992.436	1006.7869	1024.6807	1035.6816	1056.1112	1088.5153	1116.9705	1127.4783	1148.2645	1184.398	1200.1357	1206.051	1252.8569	1261.6991	1285.0697	1323.7999	1352.5953	1366.0333	1390.1075	1494.1127	1512.7609	1516.4853	1750.0348	2935.5926	2955.6831	3033.8883	3043.0036	3095.6149	3104.8328	3145.6444	3182.8257	3218.485
C1C2N1CC1OCC=C21	C1[C@H]2N1C[C@H]1OCC=C21	
InChI=1S/C7H9NO/c1-2-9-7-4-8-3-6(8)5(1)7/h1,6-7H,2-4H2	InChI=1S/C7H9NO/c1-2-9-7-4-8-3-6(8)5(1)7/h1,6-7H,2-4H2/t6-,7-,8?/m1/s1
