18
gdb 118808	2.42669	1.09932	0.84601	3.4936	74.26	-0.2708	-0.0032	0.2675	1386.2052	0.14455	-439.065397	-439.055486	-439.054542	-439.100777	34.541	
C	 0.0128922901	 1.3757162923	 0.2613956708	-0.228699
O	-0.0011641306	-0.0344054408	 0.2510827742	-0.237853
C	-1.2370700949	-0.5653764234	-0.1634704506	-0.124465
C	-1.1364268271	-2.0759935667	-0.1265792578	 0.37924
C	 0.0540129324	-2.6860608047	-0.8276313914	-0.464603
O	-1.4928284678	-2.6835784444	 1.1233824347	-0.260401
C	-2.3768561561	-2.8749354519	 0.0200272854	-0.1679
C	-3.6862881227	-2.2618490858	 0.1098801387	 0.306687
N	-4.7407699374	-1.7901794731	 0.1534777083	-0.332326
H	 1.0056804979	 1.6871102495	 0.5931082161	 0.133701
H	-0.1769083223	 1.7911618252	-0.7406227964	 0.10872
H	-0.7399774206	 1.7839609432	 0.9523882243	 0.115899
H	-2.0540556897	-0.232212017	 0.492736643	 0.117619
H	-1.4782644127	-0.2398382935	-1.1909567306	 0.099131
H	 0.9738553991	-2.300325522	-0.3831505209	 0.159559
H	 0.0416523728	-3.7742943333	-0.7351293756	 0.12976
H	 0.0528465121	-2.4187965989	-1.889176574	 0.130102
H	-2.3937985427	-3.8815938446	-0.3951622583	 0.135829
74.839	86.5665	102.2231	149.5546	200.8733	206.0987	226.627	312.6763	350.3087	367.5967	411.9535	471.7526	586.6278	600.9467	750.5427	820.1967	934.7841	957.6907	976.6942	1005.7171	1061.4179	1098.4285	1114.8215	1160.3419	1184.7779	1227.2089	1250.7422	1295.4287	1324.07	1411.3955	1414.0792	1449.114	1476.7954	1480.8569	1485.3797	1497.1266	1502.7847	1519.2949	2358.0858	2953.4512	2978.135	3020.5907	3026.7967	3050.3842	3122.7634	3122.9577	3125.7015	3142.7446
COCC1(C)OC1C#N	COC[C@@]1(C)O[C@H]1C#N	
InChI=1S/C6H9NO2/c1-6(4-8-2)5(3-7)9-6/h5H,4H2,1-2H3	InChI=1S/C6H9NO2/c1-6(4-8-2)5(3-7)9-6/h5H,4H2,1-2H3/t5-,6+/m0/s1
