17
gdb 17491	3.4478	2.43279	1.94081	2.1536	66.25	-0.2339	0.0693	0.3032	747.9933	0.143993	-363.822919	-363.8165	-363.815556	-363.852948	26.404	
O	-0.0489314015	 1.384033131	 0.0203630818	-0.494225
C	 0.0200273799	-0.0128133371	 0.0199461124	 0.403285
C	 0.3840807135	-0.7355598674	-1.3242499413	-0.315505
C	-0.8504073886	-1.6235680921	-1.1131939066	-0.034675
C	-1.3526081366	-0.7465072253	-0.0146397503	-0.095205
N	-0.9706457273	-2.119860253	 0.2680074759	-0.099464
C	 0.2785732014	-2.1411471933	 1.0705432696	-0.16377
C	 0.7634975855	-0.6758587539	 1.1848968089	-0.278051
H	 0.8479247334	 1.7330782379	-0.013087544	 0.279707
H	 0.2292955938	-0.0562135362	-2.1662905421	 0.110661
H	 1.3675568265	-1.2124684959	-1.4084282859	 0.085726
H	-1.3932156988	-2.1623582269	-1.8819760104	 0.092185
H	-2.3303313104	-0.3508212052	 0.2320662479	 0.093608
H	 0.0496916325	-2.5748013079	 2.047581541	 0.111621
H	 1.013827032	-2.7911333609	 0.5864750136	 0.107449
H	 1.8517884673	-0.5821296488	 1.0970735179	 0.091249
H	 0.4529324873	-0.216826025	 2.1297144718	 0.105404
209.6591	235.7594	302.565	370.7305	409.333	445.1635	581.6143	650.6153	710.6106	749.8904	800.5414	856.1872	860.5604	915.024	934.2422	950.1185	970.019	997.1864	1018.3318	1051.4283	1091.4907	1112.2574	1170.6088	1182.4171	1206.8667	1218.0255	1230.1701	1258.4675	1263.1555	1308.2424	1327.7552	1372.3173	1386.4571	1480.8628	1488.8857	1511.2916	3029.934	3035.5718	3056.2288	3078.739	3100.5553	3106.037	3168.0126	3191.7205	3809.9292
OC12CC3C1N3CC2	O[C@]12C[C@@H]3[C@H]1N3CC2	
InChI=1S/C6H9NO/c8-6-1-2-7-4(3-6)5(6)7/h4-5,8H,1-3H2	InChI=1S/C6H9NO/c8-6-1-2-7-4(3-6)5(6)7/h4-5,8H,1-3H2/t4-,5-,6-,7?/m1/s1
