17
gdb 104571	3.01684	1.13029	0.97525	1.8944	70.35	-0.2612	-0.0464	0.2148	1211.7563	0.133265	-458.975325	-458.966468	-458.965524	-459.00931	32.524	
O	 0.1458547545	 1.1656668614	-0.4351470561	-0.424364
C	-0.0294320896	-0.1886183147	-0.0859034999	-0.127963
C	-1.4986999075	-0.5355194173	 0.1791201484	 0.187134
C	-2.4002125309	-0.4050170568	-1.1027913011	-0.388574
C	-2.3826921392	-1.938087278	-1.2015711936	 0.41547
O	-2.6651173299	-2.7177118877	-2.0594404562	-0.274981
C	-1.7815732816	-2.076178147	 0.2084394378	-0.410641
C	-2.0484968475	 0.2254212123	 1.3544831829	 0.118588
O	-1.4691365721	 1.1129147284	 1.9352787628	-0.271679
H	-0.0891022881	 1.6722869084	 0.3528070667	 0.299014
H	 0.3398279711	-0.7833255398	-0.9293722812	 0.111868
H	 0.5662914588	-0.4658694153	 0.7973450804	 0.103076
H	-3.4117306851	-0.0350351059	-0.8960577136	 0.135638
H	-1.9757681305	 0.1732776509	-1.9260567756	 0.160814
H	-0.9198438425	-2.7388518737	 0.3254275236	 0.142133
H	-2.5464012191	-2.3654741899	 0.9391250179	 0.136486
H	-3.0752854807	-0.0771634953	 1.6660182068	 0.087981
59.1153	100.2304	141.0553	209.7563	271.8735	309.1358	321.7641	401.524	438.9998	468.3035	505.8031	556.8315	684.9825	707.1507	780.9862	857.8342	905.7738	922.9689	961.3787	1031.5372	1054.9225	1090.2722	1102.5159	1118.6442	1135.4278	1201.8572	1215.2569	1258.1131	1330.7077	1384.583	1425.0013	1427.4646	1438.5709	1448.8545	1499.3024	1804.475	1906.7396	2866.1575	2990.0201	3042.0087	3046.3038	3062.908	3108.8452	3124.5277	3775.9482
OCC1(CC(=O)C1)C=O	OCC1(CC(=O)C1)C=O	
InChI=1S/C6H8O3/c7-3-6(4-8)1-5(9)2-6/h3,8H,1-2,4H2	InChI=1S/C6H8O3/c7-3-6(4-8)1-5(9)2-6/h3,8H,1-2,4H2
