18
gdb 50509	3.44643	0.96392	0.90163	2.7765	74.14	-0.2482	-0.0358	0.2124	1318.7794	0.147819	-439.128054	-439.119192	-439.118248	-439.163271	30.876	
O	-0.8069984393	 0.8932056879	-0.2455712759	-0.247261
C	-0.1131465458	 1.8432906061	 0.0081446119	 0.164055
C	 1.4018726219	 1.8255471256	-0.0270634335	-0.095911
C	 1.9449626761	 2.6506397833	-1.2270201417	-0.257674
C	 2.0042072219	 4.102771898	-0.719253533	-0.156528
N	 2.040325466	 3.9633349083	 0.7388652276	-0.036671
C	 1.9985457587	 2.5740807974	 1.181557703	-0.204309
C	 2.0324789571	 5.0460634505	 1.5566500205	 0.136929
O	 2.0443003297	 6.196310702	 1.1684967172	-0.334435
H	-0.5633269645	 2.8248557368	 0.2862239125	 0.086753
H	 1.7186804866	 0.7819404182	-0.0738314175	 0.104905
H	 2.947497899	 2.2892020845	-1.4731936534	 0.124677
H	 1.3308537823	 2.5455113213	-2.1242159266	 0.129415
H	 2.8851897789	 4.6397178526	-1.0832670549	 0.132046
H	 1.1279686722	 4.6918131245	-1.0109514112	 0.131891
H	 1.3965767182	 2.4731311304	 2.0910672424	 0.128305
H	 3.0013557244	 2.1826526565	 1.401146173	 0.121066
H	 2.0098111964	 4.7650704361	 2.6287778695	 0.072749
34.95	55.2625	114.9759	167.8717	227.1245	288.6158	318.0004	333.7684	420.0227	531.5005	687.2355	741.8092	827.8025	868.0832	913.6411	917.0316	963.5131	977.071	1021.1685	1034.5042	1098.6063	1140.2827	1180.8476	1206.6981	1221.2846	1234.9767	1265.0815	1321.8635	1326.3571	1358.7805	1367.0089	1403.9053	1430.3543	1445.4605	1494.6547	1516.4448	1529.1563	1790.6314	1834.4969	2862.6509	2931.0278	3005.1813	3046.6461	3062.0573	3067.2466	3082.1864	3102.2266	3115.0237
O=CC1CCN(C1)C=O	O=C[C@H]1CCN(C1)C=O	
InChI=1S/C6H9NO2/c8-4-6-1-2-7(3-6)5-9/h4-6H,1-3H2	InChI=1S/C6H9NO2/c8-4-6-1-2-7(3-6)5-9/h4-6H,1-3H2/t6-/m0/s1
