24
gdb 66150	3.99552	0.73053	0.70452	1.0906	90.54	-0.2292	0.0857	0.3148	1739.5738	0.216745	-368.371557	-368.361652	-368.360708	-368.406999	37.416	
C	 0.1073805563	 1.5921843943	 0.2696293078	-0.462468
C	-0.0219255343	 0.0939566067	 0.0584787128	 0.392451
C	-1.3529205192	-0.3864639057	-0.5010983388	-0.265824
C	-1.6387225602	 0.0810242636	-1.9316484682	-0.142584
N	-2.8704512853	-0.5222602156	-2.4322711046	-0.055873
C	-4.1026219181	 0.2161979598	-2.1743000938	-0.219074
C	-3.5209223995	 0.1603115033	-3.5435621937	-0.222182
C	 1.2196434123	-0.6691487402	-0.3446467402	-0.295456
C	 0.6696336915	-0.8049024489	 1.0563425403	-0.315148
H	 1.0724668217	 1.8430272377	 0.7210612723	 0.111252
H	 0.0328840276	 2.1475840387	-0.671883322	 0.115886
H	-0.6784207699	 1.9650959256	 0.9378994332	 0.111947
H	-1.3813056963	-1.4818896935	-0.4961899743	 0.103277
H	-2.1691417921	-0.0536407345	 0.1550250944	 0.092146
H	-1.6815835768	 1.1845860539	-1.9754308836	 0.076865
H	-0.8201755652	-0.2329351973	-2.5907751616	 0.103256
H	-4.9721359368	-0.3815200876	-1.9160130053	 0.114961
H	-4.0280608605	 1.1649041543	-1.6436938204	 0.106191
H	-3.0611479925	 1.0715836618	-3.9240849688	 0.106347
H	-3.9558316327	-0.4809299547	-4.3051515016	 0.114693
H	 1.1080302999	-1.5126090921	-1.0183622854	 0.109644
H	 2.1429582862	-0.1155409508	-0.4801741255	 0.105761
H	 1.2201876509	-0.3398391314	 1.8676163265	 0.105594
H	 0.1874712332	-1.7386253673	 1.3263900605	 0.108339
50.5766	68.9656	124.4194	136.9861	223.8646	250.1189	306.2747	342.0336	362.2432	394.7755	443.1937	481.5539	717.3591	772.626	787.3346	798.6264	840.3266	870.0544	899.7563	922.8961	953.7427	964.7116	1006.8439	1019.2747	1041.2978	1052.7941	1077.1332	1080.2358	1095.8852	1112.7409	1116.8656	1132.7585	1166.8122	1177.3575	1189.1987	1243.6714	1298.1813	1310.5082	1323.243	1340.0279	1367.0396	1408.7869	1420.7989	1468.5075	1479.3641	1489.4374	1495.3213	1500.2719	1502.2473	1511.5225	1522.4373	2932.7528	3013.7581	3022.3524	3046.7654	3069.5277	3081.5493	3088.6353	3093.4475	3097.2994	3124.3471	3129.1591	3172.3855	3186.8032	3201.8087	3216.256
CC1(CCN2CC2)CC1	CC1(CCN2CC2)CC1	
InChI=1S/C8H15N/c1-8(2-3-8)4-5-9-6-7-9/h2-7H2,1H3	InChI=1S/C8H15N/c1-8(2-3-8)4-5-9-6-7-9/h2-7H2,1H3
