23
gdb 112566	3.53737	0.91252	0.88217	1.3162	87.86	-0.2347	0.0286	0.2633	1463.991	0.204934	-388.306053	-388.296137	-388.295193	-388.340656	37.874	
C	 0.0252666543	 1.5655402728	-0.0237048358	-0.427266
C	-0.012529337	 0.0293220121	 0.0128448758	 0.274178
C	-1.479818215	-0.4475750751	 0.0533720758	-0.416581
C	 0.7585590583	-0.6055400754	-1.1863559799	-0.28664
C	 1.5516434456	-1.8112552529	-0.6199204902	-0.016953
C	 2.9383397608	-1.960025069	-1.2408117009	-0.086028
O	 3.5487656864	-3.1140505551	-0.680440497	-0.423908
C	 1.5738091103	-1.5269208744	 0.8652405496	-0.080733
C	 0.7504420176	-0.5366802417	 1.1981538899	-0.099245
H	 1.055773107	 1.9349296754	-0.0132420974	 0.110385
H	-0.4631692241	 1.9489847997	-0.9270027938	 0.10919
H	-0.4946946284	 1.9950379366	 0.8402160221	 0.107997
H	-2.0419818719	-0.0547566883	-0.8017908084	 0.107244
H	-1.5410778378	-1.5401215584	 0.0303190293	 0.11478
H	-1.9793554835	-0.1055034599	 0.9666389621	 0.108432
H	 0.0902630378	-0.8876189425	-2.0052689284	 0.093057
H	 1.4648170804	 0.1303770767	-1.590753362	 0.090268
H	 1.024496648	-2.7580656157	-0.8072507711	 0.084742
H	 2.8458911845	-2.0504183784	-2.3357140146	 0.082825
H	 3.5290532462	-1.0531789006	-1.031635622	 0.082912
H	 4.4425033217	-3.1823168416	-1.028129905	 0.286186
H	 2.1878705327	-2.1037118815	 1.546870721	 0.101742
H	 0.5790928061	-0.1737080331	 2.2075251309	 0.083415
51.3951	118.9793	181.2278	215.4335	236.8288	262.9221	267.4638	294.8991	327.2178	362.4309	407.4815	450.2751	565.36	603.1078	698.8828	791.0547	809.8909	854.76	893.5893	909.1071	944.7093	969.646	982.8058	996.3132	1029.7806	1066.0029	1072.581	1100.905	1129.3437	1148.3163	1215.2033	1235.7495	1243.3409	1246.9783	1272.0247	1301.0212	1331.4016	1343.6273	1386.9894	1394.9484	1420.3768	1452.8654	1482.1162	1486.3372	1492.7116	1501.2241	1509.2277	1520.4476	1687.3167	2957.4939	2983.6475	3004.5111	3020.2096	3023.2547	3029.7867	3081.3497	3086.4452	3090.9503	3098.287	3101.5335	3168.7766	3210.6322	3832.0446
CC1(C)CC(CO)C=C1	CC1(C)C[C@@H](CO)C=C1	
InChI=1S/C8H14O/c1-8(2)4-3-7(5-8)6-9/h3-4,7,9H,5-6H2,1-2H3	InChI=1S/C8H14O/c1-8(2)4-3-7(5-8)6-9/h3-4,7,9H,5-6H2,1-2H3/t7-/m0/s1
