14
gdb 12292	2.98015	2.28106	1.37925	4.238	63.25	-0.2389	-0.0786	0.1602	855.2242	0.106724	-382.575578	-382.568452	-382.567508	-382.607913	25.742	
O	-0.0104415275	 0.0065908616	 0.307916689	-0.276616
C	-0.0298076822	 1.1926254989	 0.1001426151	 0.310804
C	-1.3146645722	 2.0004299785	-0.0040047246	-0.373944
C	-1.1941108602	 3.2523569614	-0.8300327912	-0.061267
C	-0.0472198958	 3.7415267871	-1.2960716236	-0.061263
C	 1.3032658317	 3.1210883674	-1.060637636	-0.373944
C	 1.3006638231	 1.976689922	-0.0583391743	 0.310803
O	 2.2680195885	 1.6605107615	 0.5854626302	-0.276615
H	-2.1039457592	 1.3360149216	-0.3748282188	 0.144978
H	-1.6146889024	 2.2555171773	 1.025531568	 0.152261
H	-2.1240703723	 3.7710118607	-1.0472469992	 0.103783
H	-0.0561220122	 4.6521636517	-1.8890914057	 0.103782
H	 1.7019245742	 2.7161476153	-2.0051571788	 0.152258
H	 2.0443208066	 3.8588150448	-0.7312133701	 0.14498
47.0584	68.5058	293.1964	338.0655	369.3193	458.3834	470.1149	565.6903	626.3363	649.5286	661.2335	870.162	892.0721	925.5397	976.3105	993.5118	1010.2853	1087.0922	1140.143	1187.6812	1194.8035	1249.1681	1334.1453	1342.007	1412.1531	1438.0142	1438.561	1737.0903	1814.6587	1825.6264	2990.3599	2990.8893	3059.2852	3060.0432	3153.8989	3175.5346
O=C1CC=CCC1=O	O=C1CC=CCC1=O	
InChI=1S/C6H6O2/c7-5-3-1-2-4-6(5)8/h1-2H,3-4H2	InChI=1S/C6H6O2/c7-5-3-1-2-4-6(5)8/h1-2H,3-4H2
