13
gdb 129800	3.56845	1.67114	1.14511	4.2318	65.33	-0.2346	-0.0182	0.2163	965.7921	0.093168	-448.931316	-448.924462	-448.923518	-448.963419	25.403	
N	 0.2093436671	 1.4325301497	 0.003581614	-0.622083
C	-0.042562402	 0.0487883426	 0.0105219014	 0.120251
C	-1.129768482	-0.7985825233	-0.0168528348	 0.259558
O	-2.4932992671	-0.8601331212	-0.0623129529	-0.236081
C	-2.7188762745	-2.2271501593	-0.0547731385	 0.048998
N	-1.6910827424	-3.0040134116	-0.0113070227	-0.324103
C	-0.6289648656	-2.1025527162	 0.0146163212	 0.330679
N	 0.7006432861	-2.1503713523	 0.0602394436	-0.332181
N	 1.0139336275	-0.8351542655	 0.0560670565	-0.190117
H	-0.1532064445	 1.8788294615	-0.8324588836	 0.255632
H	-0.2062836339	 1.89676934	 0.8044208545	 0.255632
H	-3.759322123	-2.5131435958	-0.0868199469	 0.153369
H	 1.9808358242	-0.5529903285	 0.0855265582	 0.280447
37.9082	189.6949	280.2235	285.6093	404.743	528.7603	579.4707	624.2091	625.6599	660.154	716.8003	791.9667	803.1117	833.2643	862.9931	918.889	1048.2832	1111.5945	1187.6705	1208.7152	1215.8252	1286.3761	1328.25	1449.3911	1467.1091	1529.558	1572.6546	1651.4615	1684.7181	3272.198	3506.4594	3573.0138	3659.2414
NC1=C2OC=NC2=NN1	Nc1c2ocnc2n[nH]1	
InChI=1S/C4H4N4O/c5-3-2-4(8-7-3)6-1-9-2/h1H,(H3,5,7,8)	InChI=1S/C4H4N4O/c5-3-2-4(8-7-3)6-1-9-2/h1H,(H3,5,7,8)
