21
gdb 65280	2.62173	1.30858	1.06304	0.8577	89.92	-0.2323	0.0529	0.2852	1234.9212	0.180646	-349.903796	-349.894311	-349.893366	-349.937902	36.341	
C	-0.0455319179	 1.5219946191	 0.0176093728	-0.463463
C	 0.0021432691	 0.0012762461	 0.0013091827	 0.078902
C	 1.3471759954	-0.6790676595	-0.2459415116	-0.385364
C	 0.7419385466	-0.7180704649	 1.1209442438	 0.344824
C	 1.3271333823	-0.1058548275	 2.4034701859	-0.29697
C	 1.1430751817	-1.4914452492	 3.092335947	-0.211539
C	 0.2985810122	-1.9767209501	 1.8764295688	-0.293996
C	-1.1746319386	-0.6438626964	-0.5148058477	 0.291081
C	-2.175177401	-1.172116253	-0.9262128843	-0.473753
H	 0.8730107103	 1.9335113799	 0.4456429075	 0.116758
H	-0.1569018718	 1.91909521	-0.9962277841	 0.126999
H	-0.8900300026	 1.8817016421	 0.6140836831	 0.125457
H	 1.348709053	-1.5910896599	-0.8335748403	 0.120344
H	 2.197009607	-0.0247335371	-0.417977128	 0.110876
H	 2.3497087515	 0.2763073507	 2.341278498	 0.099415
H	 0.6925438548	 0.6739696309	 2.8359348916	 0.104075
H	 2.0850658711	-2.0353104064	 3.1932967936	 0.104922
H	 0.6409959713	-1.486797679	 4.0618961092	 0.10031
H	-0.7777296303	-1.9925470682	 2.0716592494	 0.11139
H	 0.5816642621	-2.9359555984	 1.4354772417	 0.101103
H	-3.0514314763	-1.6400784694	-1.3004248391	 0.188628
67.9937	113.9696	136.4225	193.4839	210.2115	226.1209	344.9166	380.956	413.3328	460.4221	541.9359	570.7775	619.2358	642.32	678.3599	721.8529	790.1158	844.585	869.5433	907.9477	936.0653	940.522	944.6683	980.68	1052.9593	1061.4777	1102.8058	1115.2693	1166.2088	1181.6138	1215.2874	1234.4538	1250.2998	1268.2677	1276.8789	1296.6867	1391.7525	1413.3199	1475.9151	1477.0031	1483.2308	1486.7231	1502.3864	1506.2882	2227.6839	3035.2094	3046.1683	3054.5703	3069.0641	3091.7749	3100.4281	3102.7132	3112.084	3119.9656	3124.6909	3210.7102	3503.9863
CC1(CC11CCC1)C#C	C[C@]1(CC21CCC2)C#C	
InChI=1S/C9H12/c1-3-8(2)7-9(8)5-4-6-9/h1H,4-7H2,2H3	InChI=1S/C9H12/c1-3-8(2)7-9(8)5-4-6-9/h1H,4-7H2,2H3/t8-/m1/s1
