16
gdb 14613	12.91081	0.62249	0.60785	2.5942	69.45	-0.2572	-0.0293	0.228	1724.5201	0.126341	-383.695053	-383.685687	-383.684743	-383.730642	31.122	
O	-0.2155202063	 0.003037193	-0.1069871429	-0.230304
C	-0.0184075894	 1.1886625154	-0.0542892106	 0.15288
C	 1.3312822651	 1.8500981996	-0.2188508313	-0.281764
C	 1.3165369979	 2.9196165347	-1.309889564	-0.049502
O	 2.5296503488	 3.6359587851	-1.2303537898	-0.242301
C	 2.6291118762	 4.6423669905	-2.2220797228	-0.209201
C	 3.8930624915	 5.352152324	-2.0842744298	 0.279333
C	 4.9278536073	 5.9540213682	-1.9927607544	-0.409705
H	-0.8578470892	 1.899540566	 0.1346027572	 0.073971
H	 1.5802500329	 2.3480499654	 0.7285210413	 0.136833
H	 2.0878571772	 1.0885794516	-0.4198501747	 0.134818
H	 1.2034114553	 2.4544964513	-2.3031693929	 0.104822
H	 0.4573627661	 3.5995205291	-1.1706981467	 0.092977
H	 2.5594445946	 4.1979351768	-3.2295392419	 0.122862
H	 1.7907365852	 5.3543767594	-2.13222396	 0.120612
H	 5.845188777	 6.48217234	-1.9068876566	 0.20367
41.8617	55.6854	96.7354	116.5448	126.0213	216.9459	333.9657	335.7931	373.1427	529.9438	558.8977	611.9454	680.2246	789.2611	871.6272	972.6623	995.2559	1029.7326	1032.6042	1114.405	1138.2046	1148.8533	1227.1401	1255.9539	1277.3681	1308.2518	1385.435	1431.4337	1448.1147	1467.9746	1498.1053	1529.2366	1839.7589	2249.4941	2849.5448	2946.6178	2957.1801	2974.0009	2983.65	3030.2563	3120.9901	3506.4425
O=CCCOCC#C	O=CCCOCC#C	
InChI=1S/C6H8O2/c1-2-5-8-6-3-4-7/h1,4H,3,5-6H2	InChI=1S/C6H8O2/c1-2-5-8-6-3-4-7/h1,4H,3,5-6H2
