23
gdb 61881	4.49895	0.63292	0.61202	2.8235	87.29	-0.2468	-0.0191	0.2276	1881.829	0.203445	-388.293268	-388.28275	-388.281806	-388.330231	37.692	
C	-0.254639132	 1.6176014947	 0.0332028221	-0.394477
C	 0.0943784832	 0.1223424493	 0.0652500194	 0.024149
C	 0.8471312057	-0.2906815195	-1.2186919	-0.276715
C	-0.018688131	-0.1900263605	-2.4527210787	 0.158778
O	 0.2498133629	 0.4342474692	-3.4467040787	-0.242312
C	 0.9156425423	-0.2642221998	 1.311380872	-0.213719
C	 0.211776515	-0.0269092065	 2.6317797913	 0.02437
C	-0.8016418764	-1.0226130391	 3.1423425422	-0.255885
C	 0.5350454832	-0.8838948103	 3.8291808057	-0.277008
H	 0.6551237141	 2.2295843708	 0.0461069526	 0.118737
H	-0.8119967886	 1.8800447776	-0.871689291	 0.124885
H	-0.8667541665	 1.904693853	 0.8921950167	 0.120536
H	-0.845221158	-0.4484451507	 0.1007253225	 0.079277
H	 1.7470555964	 0.314633471	-1.3691231525	 0.116781
H	 1.1558330416	-1.3428533927	-1.1301193873	 0.112186
H	-0.975485386	-0.7621323236	-2.3802039626	 0.067643
H	 1.1791309516	-1.3280907347	 1.2418747042	 0.087509
H	 1.8670473914	 0.2865661853	 1.296750323	 0.097341
H	-0.0017851546	 1.0144835092	 2.8549379107	 0.086235
H	-1.6851773113	-0.6533633752	 3.651053929	 0.111518
H	-0.9738591825	-1.9173332767	 2.5520106244	 0.108023
H	 1.2562296947	-1.6846023848	 3.6993713715	 0.11018
H	 0.5664084245	-0.415702356	 4.8067966837	 0.111968
49.7113	55.6992	64.3021	107.724	142.5658	221.5468	244.3306	297.5498	330.6223	381.8457	419.7769	478.4978	534.7828	774.6958	777.722	806.4551	833.7783	856.4451	896.8116	931.1249	938.3573	963.4078	998.6208	1027.5668	1052.8304	1075.3561	1080.4004	1131.5093	1143.5546	1154.3996	1187.0987	1199.53	1220.4364	1232.6689	1261.6369	1285.1574	1332.4298	1368.9293	1374.9391	1413.7507	1420.4044	1430.2248	1459.1312	1470.9039	1481.5007	1496.0846	1503.7741	1509.7213	1834.5214	2838.6225	2996.0507	3003.7007	3007.9791	3031.8283	3041.1254	3086.354	3096.3029	3113.8418	3127.4188	3132.22	3146.519	3204.973	3220.3433
CC(CC=O)CC1CC1	C[C@@H](CC=O)CC1CC1	
InChI=1S/C8H14O/c1-7(4-5-9)6-8-2-3-8/h5,7-8H,2-4,6H2,1H3	InChI=1S/C8H14O/c1-7(4-5-9)6-8-2-3-8/h5,7-8H,2-4,6H2,1H3/t7-/m0/s1
