17
gdb 53808	3.45936	1.0991	0.91498	1.6458	69.32	-0.2354	-0.0867	0.1487	1283.805	0.133105	-458.966922	-458.95749	-458.956546	-459.002835	32.061	
C	 0.1689980877	 1.5298508164	 0.1176323031	-0.474772
C	 0.0812850129	 0.0279469808	 0.1956063515	 0.296558
O	 1.0363780475	-0.7142167323	 0.2450954147	-0.277102
C	-1.3424212978	-0.5766516453	 0.2253685998	 0.241306
O	-2.3148795048	 0.1353318773	 0.2719376877	-0.268698
C	-1.3917600869	-2.0936845607	 0.2273562315	 0.060376
C	-1.1222396308	-2.7626164915	 1.60347262	-0.286364
C	-2.5673595625	-3.2807319506	 1.4514261116	-0.063897
O	-2.7233401012	-2.6132658798	 0.1789108049	-0.273231
H	 1.2128570929	 1.8425257534	 0.147926911	 0.142986
H	-0.3059260342	 1.8814550666	-0.8046510773	 0.158505
H	-0.3952908891	 1.9815864486	 0.9392019643	 0.159545
H	-0.7618558171	-2.47383556	-0.5863158524	 0.109893
H	-0.3345373026	-3.5148337722	 1.5959963243	 0.130331
H	-0.9553057251	-2.0739608311	 2.4329730497	 0.119469
H	-2.6730686307	-4.3673299824	 1.3543374701	 0.109979
H	-3.2863582784	-2.9134713972	 2.1921626855	 0.115117
48.8501	53.2412	80.5236	111.0438	152.5702	223.4597	294.4195	326.3543	399.8614	517.7071	583.898	690.1077	747.0881	801.1416	819.3703	896.9152	953.971	967.4693	1002.9525	1032.692	1047.0936	1087.8438	1121.3916	1163.2987	1208.1534	1243.9186	1250.6926	1257.3597	1344.7709	1370.8242	1385.6724	1451.7141	1459.7542	1489.6532	1530.4827	1800.0462	1814.5739	3026.1093	3035.0505	3048.6524	3071.0021	3090.7024	3110.2561	3151.338	3162.558
CC(=O)C(=O)C1CCO1	CC(=O)C(=O)[C@H]1CCO1	
InChI=1S/C6H8O3/c1-4(7)6(8)5-2-3-9-5/h5H,2-3H2,1H3	InChI=1S/C6H8O3/c1-4(7)6(8)5-2-3-9-5/h5H,2-3H2,1H3/t5-/m1/s1
