20
gdb 85073	2.51053	1.40753	1.04306	3.5682	82.41	-0.2377	0.0114	0.2491	1218.6834	0.171858	-403.206362	-403.197374	-403.19643	-403.240518	33.941	
C	-0.6040573226	 1.4527819408	-0.001412613	-0.385622
C	-0.0398410658	 0.0207391594	 0.023675588	-0.001726
N	 0.7288013597	-0.2498353494	-1.1827864923	-0.332387
C	 2.0177014096	-0.6779764864	-1.3136004836	 0.411735
O	 2.518848329	-0.8506144736	-2.4116000265	-0.391232
C	 2.8120556374	-0.9300815014	-0.0315195532	-0.170829
C	 4.1437526852	-0.1543550407	-0.0888269375	-0.385527
C	 2.043061173	-0.6483377466	 1.2273717102	-0.063204
C	 0.783936272	-0.2266772832	 1.2518257059	-0.063422
H	 0.2089412368	 2.1841828952	-0.0062224583	 0.129883
H	-1.2204407029	 1.6111715777	-0.892617263	 0.115815
H	-1.2323207973	 1.6315424535	 0.87673172	 0.120796
H	-0.9012394325	-0.6680720037	 0.0499048147	 0.096256
H	 0.2662236081	-0.1061604398	-2.070115676	 0.24074
H	 3.066263465	-2.000139974	-0.059245393	 0.114057
H	 3.9674310882	 0.9251794493	-0.0454574028	 0.117896
H	 4.7840119149	-0.427843976	 0.7554188769	 0.10971
H	 4.6621723835	-0.3854252152	-1.0208051056	 0.146552
H	 2.5773203351	-0.8057463045	 2.1620499046	 0.094994
H	 0.2785030435	-0.0376548715	 2.1946094446	 0.095515
42.8836	79.403	213.2009	231.8044	252.2951	276.5412	319.3482	377.9695	466.2864	508.0562	534.4312	576.3718	608.4535	689.4306	737.4827	785.0806	823.4235	877.2877	939.9195	990.5215	1005.7366	1019.4795	1059.9044	1090.8833	1099.8416	1122.3264	1175.5272	1198.4488	1302.3587	1313.4749	1341.4652	1355.2849	1388.1235	1392.1792	1402.8919	1433.9785	1475.4933	1493.0746	1494.2898	1501.6921	1504.4467	1742.8811	1777.4553	2950.9999	2998.5289	3034.8787	3041.0567	3105.4636	3107.6572	3122.035	3142.7685	3143.6592	3174.7542	3593.5237
CC1NC(=O)C(C)C=C1	C[C@H]1NC(=O)[C@@H](C)C=C1	
InChI=1S/C7H11NO/c1-5-3-4-6(2)8-7(5)9/h3-6H,1-2H3,(H,8,9)	InChI=1S/C7H11NO/c1-5-3-4-6(2)8-7(5)9/h3-6H,1-2H3,(H,8,9)/t5-,6+/m0/s1
