18
gdb 22888	2.21343	1.60855	0.97041	1.4821	79.74	-0.224	-0.0294	0.1946	1197.1031	0.146727	-439.063224	-439.054119	-439.053175	-439.097375	33.906	
C	-0.1570747263	 1.5539803189	-0.048301412	-0.491165
C	-0.046272189	 0.058991642	-0.0169888128	 0.241642
C	-0.0089626692	-0.7581778558	-1.0856939927	-0.148246
C	 0.140360939	-2.2150200499	-0.7425266735	-0.289047
C	-0.0120838279	-2.2433584282	 0.7925818342	 0.072174
O	 0.9907401016	-3.0334711872	 1.3961945025	-0.43547
C	 0.0556453975	-0.7694097213	 1.1936828833	 0.289509
N	 0.209702408	-0.5121782014	 2.4351931973	-0.264459
O	 0.3018858136	 0.8583504901	 2.72220041	-0.394733
H	 0.7197920625	 2.0248170385	 0.4045340278	 0.144662
H	-0.2554530691	 1.9089503563	-1.0781100155	 0.113518
H	-1.0224827546	 1.8994303511	 0.525183146	 0.137706
H	-0.0595732162	-0.4077161358	-2.1118223837	 0.100103
H	-0.5929942372	-2.8472195756	-1.2543253533	 0.11154
H	 1.1334604238	-2.5953935288	-1.0123200825	 0.132172
H	-1.0109277669	-2.6268928501	 1.0570413679	 0.085061
H	 1.078067975	-2.7085930867	 2.3011146885	 0.288235
H	 0.4009442756	 0.8592126238	 3.6799678684	 0.3068
34.2252	173.9495	193.3241	207.197	238.5416	283.6111	313.8832	348.6279	390.6971	422.004	484.0782	499.3921	627.7209	671.5462	742.383	781.9916	840.0236	926.2519	963.5367	992.832	1025.7733	1045.9569	1070.742	1082.6802	1133.4595	1185.8883	1249.5794	1261.251	1308.7154	1347.8137	1358.8641	1397.751	1415.2867	1419.9836	1475.724	1478.1868	1485.41	1676.7758	1729.9318	2963.7978	3034.4753	3043.1058	3071.3934	3107.067	3118.8292	3184.4865	3777.3808	3819.6834
CC1=CCC(O)C1=NO	CC1=CC[C@@H](O)C1=NO	
InChI=1S/C6H9NO2/c1-4-2-3-5(8)6(4)7-9/h2,5,8-9H,3H2,1H3	InChI=1S/C6H9NO2/c1-4-2-3-5(8)6(4)7-9/h2,5,8-9H,3H2,1H3/t5-/m1/s1
