17
gdb 126318	5.58467	0.85032	0.78335	4.7599	79.86	-0.2564	-0.046	0.2104	1456.6476	0.136592	-418.049927	-418.041458	-418.040513	-418.083974	30.288	
C	 0.0966039158	 1.5512429936	-0.1902742807	-0.36789
C	 0.0149978829	 0.0434819506	 0.1044074288	-0.30458
C	-1.38933109	-0.4834252543	 0.1029050528	 0.172564
C	-2.1472246263	-0.9000691467	 1.1621013916	-0.110009
N	-3.376066947	-1.278509069	 0.6660613127	-0.016568
C	-4.4446460961	-1.77226261	 1.4256931899	 0.192239
O	-5.5093294841	-2.0999115933	 0.9902817424	-0.257885
N	-3.4473926632	-1.1242312002	-0.6844452692	-0.228073
C	-2.2644521009	-0.6501615644	-1.01762875	-0.038639
H	 1.1368463989	 1.8905594759	-0.1918125946	 0.117883
H	-0.3364707305	 1.7870937442	-1.1673554405	 0.124369
H	-0.4505658405	 2.1269391467	 0.5623756944	 0.123308
H	 0.608512935	-0.5007308349	-0.6405680911	 0.115873
H	 0.478337308	-0.1651474084	 1.0748314933	 0.107413
H	-1.9270239599	-0.9662036252	 2.2163830281	 0.14771
H	-4.1632684027	-1.8168457923	 2.4945466553	 0.096944
H	-2.0517299792	-0.4381102723	-2.0570412431	 0.125342
43.3227	88.4861	168.3686	188.5949	242.2236	276.8716	341.7439	388.7619	517.9606	633.6956	664.1966	697.7569	786.2639	805.7037	822.1374	912.6526	958.248	975.2893	1024.6013	1025.6423	1067.384	1090.79	1182.1802	1221.0761	1283.194	1290.4772	1348.3569	1385.9496	1409.6191	1414.1194	1452.0845	1458.8756	1486.2267	1496.8301	1507.8142	1634.4078	1853.0116	2963.9807	3029.8757	3038.7568	3067.4813	3111.5085	3114.1129	3229.8489	3256.5872
CCC1=CN(C=O)N=C1	CCc1cn(C=O)nc1	
InChI=1S/C6H8N2O/c1-2-6-3-7-8(4-6)5-9/h3-5H,2H2,1H3	InChI=1S/C6H8N2O/c1-2-6-3-7-8(4-6)5-9/h3-5H,2H2,1H3
