22
gdb 113377	2.59093	0.97863	0.81688	2.3019	78.75	-0.2459	0.0566	0.3025	1486.4851	0.193216	-441.449519	-441.438993	-441.438049	-441.485443	38.456	
C	 0.1419123483	 0.1508314361	 1.8853745799	-0.405578
C	-0.5880201344	-1.1909032417	 1.7285445165	-0.2416
C	-1.8233795804	-1.1076390863	 0.8442755815	 0.299653
C	-2.8907472228	-0.1058875764	 1.2926947978	-0.165938
O	-2.7430939832	 1.1761419991	 0.6921089618	-0.413145
N	-1.5700792121	-1.1508773282	-0.6093718166	-0.377359
C	-2.3055273119	-2.2616407446	 0.0238180221	-0.083392
C	-1.6410669506	-3.6147790136	-0.0955360656	-0.076683
O	-1.663939565	-4.0615754321	-1.4415964964	-0.420339
H	 1.0683023818	 0.0272120237	 2.4539306336	 0.120927
H	 0.4042973097	 0.5640723925	 0.9057904759	 0.134269
H	-0.4623239925	 0.8883088113	 2.4276666153	 0.11112
H	 0.1087432909	-1.9166688058	 1.3031894808	 0.111087
H	-0.8794978984	-1.5702927767	 2.7167736247	 0.098111
H	-3.8839425263	-0.4452183537	 0.9845739485	 0.113454
H	-2.8949763909	-0.03470476	 2.3906739948	 0.095843
H	-1.8911314677	 1.5357006247	 0.958220672	 0.288139
H	-2.2015646572	-0.5030462144	-1.0757836989	 0.239112
H	-3.3799779309	-2.298067017	-0.1538364444	 0.086745
H	-0.6136366083	-3.5815471197	 0.2908421157	 0.088833
H	-2.1918713264	-4.3608840285	 0.4872195891	 0.107066
H	-1.2522208219	-3.3574851286	-1.957148088	 0.289674
58.9129	76.0446	105.7569	152.8334	185.6448	218.9019	252.4844	319.8959	333.6153	349.2263	383.6381	439.1747	464.862	496.2261	655.9805	723.5848	785.2432	836.7261	896.5875	934.4798	967.7394	996.472	1002.835	1032.4585	1063.1984	1072.7859	1088.3046	1110.4729	1133.667	1188.6889	1206.2403	1266.523	1269.814	1322.9132	1328.7502	1369.6371	1378.8682	1385.7889	1403.2115	1426.0466	1426.7046	1471.7063	1476.4065	1498.1607	1501.9066	1508.6557	1514.1622	2993.3178	3013.1226	3024.4079	3028.0903	3072.4801	3081.7015	3082.727	3107.1365	3108.935	3112.2665	3492.6966	3787.0605	3826.3375
CCC1(CO)NC1CO	CC[C@@]1(CO)N[C@H]1CO	
InChI=1S/C6H13NO2/c1-2-6(4-9)5(3-8)7-6/h5,7-9H,2-4H2,1H3	InChI=1S/C6H13NO2/c1-2-6(4-9)5(3-8)7-6/h5,7-9H,2-4H2,1H3/t5-,6-/m0/s1
