18
gdb 7780	3.35207	1.74292	1.2397	1.8873	68.66	-0.2405	-0.0158	0.2248	986.5797	0.154207	-384.97533	-384.967633	-384.966689	-385.007329	29.139	
C	-0.0063527914	 1.5286094183	 0.0586415392	-0.401033
C	 0.0208597537	 0.0087869585	 0.0142908504	 0.124236
C	 0.7105364055	-0.5391061209	-1.2559112539	-0.296662
C	 0.8720242505	-2.0495567327	-1.180099427	 0.370252
O	 0.5657011183	-2.7931785701	-2.0822774144	-0.305994
C	 1.4274896543	-2.5342145239	 0.1494282021	-0.298589
C	 0.6860710019	-1.8470332365	 1.312204776	-0.088905
O	 0.7015192509	-0.4400596516	 1.1784755574	-0.250726
H	 1.0129426494	 1.9270831865	 0.055735383	 0.125655
H	-0.5396771223	 1.9287445589	-0.8083983881	 0.12014
H	-0.5073000253	 1.8723888211	 0.9673673263	 0.12723
H	-1.0140534098	-0.3758012429	 0.0370184518	 0.075571
H	 0.1524424554	-0.2815794155	-2.1595348367	 0.118109
H	 1.7092784602	-0.086512585	-1.3207499273	 0.120293
H	 1.347937086	-3.6227092822	 0.2042619738	 0.119893
H	 2.4878465031	-2.256211609	 0.202725389	 0.12544
H	-0.352054205	-2.2159367026	 1.3586028445	 0.09917
H	 1.1663734848	-2.0756505904	 2.2672403338	 0.115921
100.3154	125.8452	218.4308	266.4366	305.9233	390.8593	425.0787	471.4731	505.056	523.7144	674.6173	774.6892	830.5473	843.8392	891.9425	941.9735	963.5168	1011.964	1079.0073	1104.77	1132.1654	1156.1083	1185.4468	1236.1494	1248.7206	1274.9671	1291.3872	1331.4467	1371.3434	1384.8085	1409.8773	1414.9832	1447.8496	1460.9707	1482.9574	1497.4681	1507.4433	1820.6827	2948.0659	2971.832	3026.3546	3036.2412	3044.0739	3091.6568	3109.0667	3112.5553	3119.1894	3125.0992
CC1CC(=O)CCO1	C[C@H]1CC(=O)CCO1	
InChI=1S/C6H10O2/c1-5-4-6(7)2-3-8-5/h5H,2-4H2,1H3	InChI=1S/C6H10O2/c1-5-4-6(7)2-3-8-5/h5H,2-4H2,1H3/t5-/m0/s1
